/*--------------------------------*- C++ -*----------------------------------*\
| =========                 |                                                 |
| \\      /  F ield         | OpenFOAM: The Open Source CFD Toolbox           |
|  \\    /   O peration     | Version:  v2006                                 |
|   \\  /    A nd           | Website:  www.openfoam.com                      |
|    \\/     M anipulation  |                                                 |
\*---------------------------------------------------------------------------*/
FoamFile
{
    version     2.0;
    format      ascii;
    class       volScalarField;
    location    "18.8";
    object      p;
}
// * * * * * * * * * * * * * * * * * * * * * * * * * * * * * * * * * * * * * //

dimensions      [1 -1 -2 0 0 0 0];


internalField   nonuniform List<scalar> 
52500
(
32352.5
32352.3
32352
32351.4
32350.8
32349.9
32348.9
32347.6
32346.3
32344.7
32343
32341.1
32339
32336.8
32334.4
32331.8
32329
32326.1
32323
32319.7
32316.3
32312.6
32308.8
32304.8
32300.7
32296.3
32291.8
32287.1
32282.3
32277.2
32272
32266.6
32261
32255.3
32249.3
32243.2
32236.9
32230.4
32223.7
32216.9
32209.9
32202.7
32195.3
32187.7
32180
32172.1
32164
32155.7
32147.3
32138.6
32129.9
32120.9
32111.7
32102.4
32092.9
32083.2
32073.4
32063.4
32053.2
32042.8
32032.2
32021.5
32010.6
31999.6
31988.4
31977
31965.5
31953.7
31941.9
31929.8
31917.7
31905.3
31892.8
31880.2
31867.4
31854.4
31841.3
31828.1
31814.7
31801.2
31787.5
31773.7
31759.8
31745.7
31731.6
31717.2
31702.8
31688.2
31673.6
31658.8
31643.9
31628.8
31613.7
31598.5
31583.2
31567.7
31552.2
31536.6
31520.9
31505.1
31489.2
31473.3
31457.2
31441.1
31425
31408.8
31392.5
31376.1
31359.7
31343.3
31326.8
31310.2
31293.7
31277
31260.4
31243.7
31227.1
31210.4
31193.6
31176.9
31160.2
31143.4
31126.7
31110
31093.3
31076.6
31059.9
31043.3
31026.6
31010.1
30993.5
30977
30960.5
30944.1
30927.7
30911.4
30895.2
30879
30862.9
30846.8
30830.8
30814.9
30799.1
30783.4
30767.8
30752.2
30736.8
30721.4
30706.2
30691
30676
30661.1
30646.3
30631.6
30617
30602.5
30588.2
30573.9
30559.8
30545.8
30531.9
30518.2
30504.6
30491.1
30477.8
30464.6
30451.5
30438.6
30425.8
30413.1
30400.6
30388.2
30376
30363.9
30351.9
30340.1
30328.4
30316.8
30305.4
30294.1
30283
30272
30261.1
30250.4
30239.8
30229.3
30219
30208.8
30198.8
30188.9
30179.1
30169.5
30160
30150.6
30141.3
30132.2
30123.2
30114.4
30105.7
30097.1
30088.6
30080.3
30072.1
30064
30056
30048.2
30040.5
30032.9
30025.5
30018.1
30010.9
30003.8
29996.8
29989.9
29983.2
29976.5
29970
29963.6
29957.3
29951.1
29945
29939
29933.1
29927.3
29921.6
29916
29910.5
29905.1
29899.8
29894.6
29889.5
29884.5
29879.5
29874.7
29869.9
29865.2
29860.6
29856.1
29851.7
29847.4
29843.1
29838.9
29834.8
29830.8
29826.8
29822.9
29819.1
29815.4
29811.8
29808.2
29804.7
29801.3
29798
29794.7
29791.5
29788.4
29785.4
29782.4
29779.5
29776.7
29774
29771.4
29768.8
29766.3
29763.8
29761.5
29759.2
29757
29754.9
29752.8
29750.8
29748.9
29747
29745.2
29743.5
29741.8
29740.3
29738.7
29737.3
29735.9
29734.6
29733.4
29732.3
29731.3
29730.4
29729.5
29728.7
29728
29727.4
29726.8
29726.3
29725.9
29725.5
29725.1
29724.8
29724.6
29724.4
29724.3
29724.2
29724.2
29724.2
29724.3
29724.4
29724.5
29724.7
29724.9
29725.2
29725.5
29725.8
29726.2
29726.6
29727
29727.4
29727.9
29728.3
29728.8
29729.3
29729.9
29730.4
29730.9
29731.5
29732
29732.5
29733.1
29733.6
29734.2
29734.7
29735.2
29735.7
29736.3
29736.7
29737.2
29737.7
29738.1
29738.5
29739
29739.3
29739.7
29740
29740.4
29740.7
29740.9
29741.2
29741.4
29741.6
29741.7
29741.9
29742
29742
29742.1
31895.1
31894.9
31894.6
31894.1
31893.4
31892.5
31891.5
31890.3
31888.9
31887.3
31885.6
31883.7
31881.7
31879.4
31877
31874.4
31871.7
31868.7
31865.6
31862.3
31858.9
31855.3
31851.5
31847.5
31843.3
31839
31834.5
31829.8
31824.9
31819.9
31814.7
31809.3
31803.7
31797.9
31792
31785.9
31779.6
31773.1
31766.4
31759.6
31752.6
31745.4
31738
31730.4
31722.7
31714.8
31706.7
31698.4
31690
31681.3
31672.5
31663.6
31654.4
31645.1
31635.6
31625.9
31616
31606
31595.8
31585.4
31574.9
31564.2
31553.3
31542.2
31531
31519.6
31508.1
31496.4
31484.5
31472.4
31460.3
31447.9
31435.4
31422.8
31409.9
31397
31383.9
31370.6
31357.3
31343.7
31330.1
31316.3
31302.3
31288.3
31274.1
31259.7
31245.3
31230.7
31216
31201.2
31186.3
31171.3
31156.2
31140.9
31125.6
31110.2
31094.6
31079
31063.3
31047.5
31031.6
31015.7
30999.6
30983.5
30967.3
30951.1
30934.8
30918.4
30902
30885.6
30869.1
30852.5
30835.9
30819.3
30802.7
30786
30769.3
30752.6
30735.9
30719.1
30702.4
30685.6
30668.9
30652.2
30635.4
30618.7
30602.1
30585.4
30568.8
30552.2
30535.6
30519.1
30502.6
30486.2
30469.8
30453.5
30437.2
30421
30404.9
30388.8
30372.8
30356.9
30341.1
30325.4
30309.7
30294.2
30278.7
30263.4
30248.1
30232.9
30217.9
30202.9
30188.1
30173.4
30158.8
30144.3
30130
30115.8
30101.7
30087.7
30073.8
30060.1
30046.5
30033.1
30019.7
30006.5
29993.4
29980.5
29967.7
29955
29942.5
29930.1
29917.8
29905.7
29893.7
29881.9
29870.2
29858.6
29847.2
29835.9
29824.8
29813.8
29802.9
29792.2
29781.6
29771.1
29760.8
29750.7
29740.6
29730.7
29720.9
29711.3
29701.8
29692.4
29683.2
29674
29665.1
29656.2
29647.5
29638.9
29630.4
29622.1
29613.9
29605.8
29597.9
29590
29582.3
29574.8
29567.3
29560
29552.7
29545.6
29538.6
29531.8
29525
29518.4
29511.9
29505.4
29499.1
29492.9
29486.8
29480.8
29475
29469.2
29463.5
29457.9
29452.4
29447
29441.7
29436.5
29431.4
29426.4
29421.4
29416.6
29411.8
29407.2
29402.6
29398.1
29393.6
29389.3
29385
29380.8
29376.7
29372.7
29368.7
29364.9
29361.1
29357.4
29353.7
29350.2
29346.7
29343.3
29339.9
29336.7
29333.5
29330.4
29327.3
29324.4
29321.5
29318.7
29315.9
29313.3
29310.7
29308.2
29305.8
29303.4
29301.1
29298.9
29296.8
29294.7
29292.7
29290.8
29289
29287.2
29285.4
29283.8
29282.2
29280.6
29279.1
29277.6
29276.3
29275.1
29274
29273
29272.2
29271.4
29270.7
29270
29269.4
29268.8
29268.3
29267.9
29267.5
29267.2
29266.9
29266.7
29266.5
29266.4
29266.3
29266.3
29266.3
29266.4
29266.5
29266.6
29266.8
29267.1
29267.3
29267.6
29268
29268.3
29268.7
29269.1
29269.6
29270
29270.5
29271
29271.5
29272
29272.5
29273.1
29273.6
29274.2
29274.7
29275.3
29275.8
29276.4
29276.9
29277.4
29277.9
29278.4
29278.9
29279.4
29279.9
29280.3
29280.7
29281.2
29281.5
29281.9
29282.3
29282.6
29282.9
29283.1
29283.4
29283.6
29283.8
29283.9
29284.1
29284.2
29284.2
29284.3
31438.2
31438
31437.7
31437.2
31436.5
31435.6
31434.6
31433.4
31432
31430.4
31428.7
31426.8
31424.8
31422.5
31420.1
31417.5
31414.8
31411.8
31408.7
31405.5
31402
31398.4
31394.6
31390.6
31386.5
31382.1
31377.6
31372.9
31368.1
31363
31357.8
31352.4
31346.8
31341.1
31335.1
31329
31322.7
31316.3
31309.6
31302.8
31295.7
31288.5
31281.2
31273.6
31265.9
31257.9
31249.9
31241.6
31233.1
31224.5
31215.7
31206.7
31197.6
31188.2
31178.7
31169
31159.2
31149.1
31138.9
31128.5
31118
31107.2
31096.3
31085.3
31074.1
31062.7
31051.1
31039.4
31027.5
31015.5
31003.3
30990.9
30978.4
30965.7
30952.9
30939.9
30926.8
30913.6
30900.2
30886.6
30872.9
30859.1
30845.2
30831.1
30816.9
30802.6
30788.1
30773.5
30758.8
30744
30729.1
30714
30698.9
30683.6
30668.3
30652.8
30637.3
30621.6
30605.9
30590.1
30574.2
30558.2
30542.2
30526
30509.8
30493.6
30477.3
30460.9
30444.5
30428
30411.5
30394.9
30378.3
30361.6
30345
30328.3
30311.6
30294.8
30278.1
30261.3
30244.6
30227.8
30211
30194.3
30177.5
30160.8
30144.1
30127.4
30110.8
30094.2
30077.6
30061
30044.5
30028.1
30011.7
29995.3
29979.1
29962.8
29946.7
29930.6
29914.6
29898.7
29882.9
29867.1
29851.4
29835.9
29820.4
29805
29789.7
29774.6
29759.5
29744.6
29729.7
29715
29700.4
29685.9
29671.6
29657.3
29643.2
29629.2
29615.4
29601.6
29588
29574.5
29561.2
29547.9
29534.9
29521.9
29509.1
29496.4
29483.9
29471.5
29459.3
29447.2
29435.2
29423.4
29411.7
29400.1
29388.7
29377.4
29366.3
29355.3
29344.4
29333.7
29323.1
29312.6
29302.3
29292.1
29282.1
29272.2
29262.4
29252.8
29243.2
29233.9
29224.6
29215.5
29206.5
29197.7
29189
29180.4
29171.9
29163.6
29155.4
29147.3
29139.4
29131.5
29123.8
29116.3
29108.8
29101.5
29094.2
29087.1
29080.2
29073.3
29066.5
29059.9
29053.4
29047
29040.7
29034.5
29028.4
29022.4
29016.5
29010.7
29005
28999.5
28994
28988.6
28983.3
28978.1
28973
28968
28963
28958.2
28953.4
28948.7
28944.2
28939.7
28935.2
28930.9
28926.6
28922.4
28918.3
28914.3
28910.4
28906.5
28902.7
28899
28895.3
28891.8
28888.3
28884.9
28881.5
28878.3
28875.1
28872
28868.9
28866
28863.1
28860.3
28857.5
28854.9
28852.3
28849.8
28847.4
28845
28842.7
28840.5
28838.4
28836.3
28834.3
28832.4
28830.6
28828.8
28827.1
28825.5
28823.9
28822.4
28821
28819.7
28818.5
28817.3
28816.2
28815.2
28814.3
28813.5
28812.7
28812
28811.4
28810.8
28810.3
28809.8
28809.4
28809.1
28808.8
28808.6
28808.4
28808.3
28808.3
28808.2
28808.3
28808.4
28808.5
28808.6
28808.8
28809.1
28809.4
28809.7
28810
28810.4
28810.8
28811.2
28811.6
28812.1
28812.6
28813.1
28813.6
28814.1
28814.7
28815.2
28815.8
28816.3
28816.9
28817.4
28818
28818.5
28819.1
28819.6
28820.1
28820.7
28821.2
28821.6
28822.1
28822.6
28823
28823.4
28823.8
28824.2
28824.5
28824.8
28825.1
28825.4
28825.7
28825.9
28826.1
28826.2
28826.4
28826.5
28826.5
28826.6
30981.7
30981.6
30981.2
30980.7
30980
30979.2
30978.1
30976.9
30975.5
30974
30972.3
30970.4
30968.3
30966.1
30963.7
30961.1
30958.3
30955.4
30952.3
30949
30945.6
30942
30938.2
30934.2
30930
30925.7
30921.2
30916.5
30911.7
30906.7
30901.4
30896
30890.5
30884.7
30878.8
30872.7
30866.4
30859.9
30853.2
30846.4
30839.4
30832.2
30824.8
30817.2
30809.5
30801.6
30793.5
30785.2
30776.8
30768.1
30759.3
30750.3
30741.2
30731.8
30722.3
30712.6
30702.7
30692.7
30682.5
30672.1
30661.5
30650.8
30639.9
30628.8
30617.6
30606.1
30594.6
30582.8
30570.9
30558.9
30546.7
30534.3
30521.8
30509.1
30496.3
30483.3
30470.1
30456.9
30443.4
30429.9
30416.2
30402.4
30388.4
30374.3
30360.1
30345.7
30331.2
30316.6
30301.9
30287.1
30272.1
30257
30241.9
30226.6
30211.2
30195.7
30180.2
30164.5
30148.7
30132.9
30117
30101
30084.9
30068.7
30052.5
30036.2
30019.9
30003.5
29987
29970.5
29953.9
29937.3
29920.7
29904
29887.3
29870.6
29853.9
29837.1
29820.3
29803.5
29786.7
29769.9
29753.1
29736.3
29719.6
29702.8
29686.1
29669.4
29652.7
29636
29619.4
29602.8
29586.3
29569.8
29553.4
29537
29520.7
29504.5
29488.3
29472.2
29456.2
29440.2
29424.4
29408.6
29392.9
29377.3
29361.8
29346.4
29331.1
29315.9
29300.8
29285.9
29271
29256.3
29241.7
29227.2
29212.8
29198.5
29184.4
29170.4
29156.5
29142.7
29129.1
29115.6
29102.3
29089
29076
29063
29050.2
29037.5
29025
29012.6
29000.4
28988.3
28976.3
28964.4
28952.7
28941.2
28929.8
28918.5
28907.3
28896.3
28885.5
28874.8
28864.2
28853.7
28843.4
28833.2
28823.2
28813.3
28803.5
28793.9
28784.4
28775
28765.8
28756.6
28747.7
28738.8
28730.1
28721.5
28713.1
28704.7
28696.5
28688.5
28680.5
28672.7
28665
28657.4
28650
28642.6
28635.4
28628.3
28621.3
28614.5
28607.7
28601.1
28594.6
28588.2
28581.9
28575.7
28569.6
28563.6
28557.7
28552
28546.3
28540.7
28535.2
28529.8
28524.6
28519.4
28514.3
28509.2
28504.3
28499.5
28494.7
28490
28485.5
28481
28476.5
28472.2
28467.9
28463.8
28459.7
28455.6
28451.7
28447.8
28444
28440.3
28436.7
28433.1
28429.6
28426.2
28422.9
28419.6
28416.4
28413.3
28410.3
28407.3
28404.4
28401.6
28398.9
28396.2
28393.6
28391.1
28388.7
28386.4
28384.1
28381.9
28379.8
28377.7
28375.7
28373.8
28372
28370.3
28368.6
28367
28365.4
28364
28362.6
28361.3
28360.1
28358.9
28357.8
28356.9
28356
28355.1
28354.4
28353.7
28353.1
28352.5
28352
28351.6
28351.2
28350.9
28350.6
28350.4
28350.2
28350.1
28350.1
28350.1
28350.1
28350.2
28350.3
28350.5
28350.7
28351
28351.3
28351.6
28351.9
28352.3
28352.7
28353.2
28353.6
28354.1
28354.6
28355.1
28355.6
28356.2
28356.7
28357.3
28357.9
28358.4
28359
28359.6
28360.1
28360.7
28361.3
28361.8
28362.3
28362.9
28363.4
28363.9
28364.4
28364.8
28365.3
28365.7
28366.1
28366.5
28366.8
28367.2
28367.5
28367.8
28368
28368.2
28368.4
28368.6
28368.7
28368.8
28368.9
28368.9
30525.7
30525.5
30525.2
30524.7
30524
30523.1
30522.1
30520.9
30519.5
30518
30516.3
30514.4
30512.3
30510.1
30507.7
30505.1
30502.4
30499.4
30496.3
30493.1
30489.6
30486
30482.2
30478.3
30474.1
30469.8
30465.3
30460.6
30455.8
30450.7
30445.5
30440.1
30434.6
30428.8
30422.9
30416.8
30410.5
30404
30397.3
30390.5
30383.5
30376.3
30368.9
30361.4
30353.6
30345.7
30337.6
30329.3
30320.9
30312.2
30303.4
30294.4
30285.2
30275.9
30266.3
30256.6
30246.8
30236.7
30226.5
30216.1
30205.5
30194.7
30183.8
30172.7
30161.5
30150
30138.5
30126.7
30114.8
30102.7
30090.5
30078.1
30065.5
30052.8
30040
30027
30013.8
30000.5
29987.1
29973.5
29959.8
29945.9
29931.9
29917.8
29903.5
29889.2
29874.6
29860
29845.3
29830.4
29815.4
29800.3
29785.1
29769.8
29754.4
29738.9
29723.3
29707.6
29691.8
29675.9
29659.9
29643.9
29627.8
29611.6
29595.3
29579
29562.6
29546.2
29529.7
29513.1
29496.5
29479.9
29463.2
29446.5
29429.7
29413
29396.2
29379.4
29362.5
29345.7
29328.9
29312
29295.2
29278.4
29261.5
29244.7
29228
29211.2
29194.5
29177.8
29161.1
29144.5
29127.9
29111.4
29094.9
29078.5
29062.2
29045.9
29029.7
29013.6
28997.5
28981.5
28965.6
28949.8
28934.1
28918.5
28902.9
28887.5
28872.2
28857
28841.9
28826.9
28812
28797.2
28782.6
28768.1
28753.7
28739.4
28725.2
28711.2
28697.3
28683.6
28669.9
28656.4
28643.1
28629.8
28616.7
28603.8
28591
28578.4
28565.8
28553.4
28541.1
28529
28517
28505.2
28493.5
28481.9
28470.5
28459.2
28448.1
28437.1
28426.2
28415.5
28404.9
28394.4
28384.1
28374
28363.9
28354
28344.3
28334.6
28325.1
28315.7
28306.5
28297.4
28288.4
28279.6
28270.9
28262.3
28253.9
28245.5
28237.3
28229.3
28221.3
28213.5
28205.8
28198.2
28190.8
28183.5
28176.3
28169.2
28162.2
28155.3
28148.6
28142
28135.5
28129.1
28122.8
28116.6
28110.5
28104.5
28098.7
28092.9
28087.2
28081.7
28076.2
28070.8
28065.5
28060.3
28055.2
28050.2
28045.3
28040.5
28035.7
28031
28026.5
28022
28017.6
28013.2
28009
28004.8
28000.7
27996.7
27992.7
27988.8
27985.1
27981.3
27977.7
27974.1
27970.7
27967.2
27963.9
27960.6
27957.5
27954.4
27951.3
27948.4
27945.5
27942.7
27940
27937.3
27934.7
27932.2
27929.8
27927.5
27925.2
27923
27920.9
27918.9
27916.9
27915
27913.2
27911.5
27909.8
27908.2
27906.7
27905.3
27903.9
27902.7
27901.5
27900.4
27899.3
27898.3
27897.5
27896.6
27895.9
27895.2
27894.6
27894
27893.6
27893.1
27892.8
27892.5
27892.2
27892
27891.9
27891.8
27891.8
27891.8
27891.8
27891.9
27892.1
27892.3
27892.5
27892.8
27893.1
27893.4
27893.8
27894.2
27894.6
27895.1
27895.6
27896
27896.6
27897.1
27897.6
27898.2
27898.8
27899.3
27899.9
27900.5
27901.1
27901.7
27902.3
27902.8
27903.4
27904
27904.5
27905.1
27905.6
27906.1
27906.6
27907.1
27907.6
27908
27908.4
27908.8
27909.2
27909.5
27909.9
27910.1
27910.4
27910.7
27910.9
27911
27911.2
27911.3
27911.4
27911.4
30070.1
30070
30069.6
30069.1
30068.4
30067.6
30066.6
30065.4
30064
30062.4
30060.7
30058.9
30056.8
30054.6
30052.2
30049.6
30046.9
30043.9
30040.9
30037.6
30034.2
30030.5
30026.8
30022.8
30018.7
30014.3
30009.9
30005.2
30000.3
29995.3
29990.1
29984.7
29979.1
29973.4
29967.5
29961.4
29955.1
29948.6
29941.9
29935.1
29928.1
29920.9
29913.5
29905.9
29898.2
29890.3
29882.2
29873.9
29865.4
29856.8
29848
29838.9
29829.8
29820.4
29810.9
29801.1
29791.2
29781.2
29770.9
29760.5
29749.9
29739.1
29728.2
29717.1
29705.8
29694.4
29682.8
29671
29659
29647
29634.7
29622.3
29609.7
29597
29584.1
29571.1
29557.9
29544.6
29531.1
29517.5
29503.7
29489.8
29475.8
29461.6
29447.4
29432.9
29418.4
29403.7
29388.9
29374
29359
29343.9
29328.6
29313.3
29297.8
29282.3
29266.6
29250.9
29235
29219.1
29203.1
29187
29170.8
29154.6
29138.3
29121.9
29105.5
29089
29072.4
29055.8
29039.2
29022.5
29005.7
28989
28972.2
28955.4
28938.5
28921.6
28904.8
28887.9
28871
28854.1
28837.2
28820.3
28803.4
28786.6
28769.8
28752.9
28736.2
28719.4
28702.7
28686
28669.4
28652.9
28636.3
28619.9
28603.5
28587.2
28570.9
28554.7
28538.6
28522.6
28506.6
28490.8
28475
28459.4
28443.8
28428.3
28413
28397.7
28382.6
28367.6
28352.6
28337.9
28323.2
28308.6
28294.2
28279.9
28265.7
28251.7
28237.8
28224
28210.3
28196.8
28183.5
28170.2
28157.1
28144.2
28131.3
28118.6
28106.1
28093.7
28081.4
28069.3
28057.3
28045.5
28033.8
28022.2
28010.8
27999.6
27988.4
27977.4
27966.6
27955.8
27945.3
27934.8
27924.5
27914.3
27904.3
27894.4
27884.6
27875
27865.5
27856.1
27846.9
27837.8
27828.8
27820
27811.3
27802.7
27794.3
27786
27777.8
27769.7
27761.8
27754
27746.3
27738.7
27731.3
27723.9
27716.7
27709.7
27702.7
27695.8
27689.1
27682.5
27676
27669.6
27663.3
27657.1
27651.1
27645.1
27639.3
27633.5
27627.8
27622.3
27616.8
27611.4
27606.2
27601
27595.9
27590.9
27586
27581.2
27576.4
27571.7
27567.2
27562.7
27558.3
27553.9
27549.7
27545.5
27541.4
27537.4
27533.4
27529.6
27525.8
27522.1
27518.4
27514.9
27511.4
27508
27504.7
27501.4
27498.2
27495.1
27492.1
27489.1
27486.3
27483.5
27480.8
27478.1
27475.6
27473.1
27470.7
27468.3
27466.1
27463.9
27461.8
27459.8
27457.8
27456
27454.2
27452.5
27450.8
27449.3
27447.8
27446.4
27445.1
27443.8
27442.6
27441.5
27440.5
27439.6
27438.7
27437.9
27437.2
27436.5
27435.9
27435.4
27434.9
27434.5
27434.2
27433.9
27433.6
27433.5
27433.3
27433.3
27433.3
27433.3
27433.4
27433.5
27433.7
27433.9
27434.2
27434.5
27434.8
27435.2
27435.6
27436
27436.4
27436.9
27437.4
27437.9
27438.5
27439
27439.6
27440.2
27440.8
27441.4
27442
27442.6
27443.2
27443.8
27444.4
27445
27445.6
27446.2
27446.7
27447.3
27447.8
27448.4
27448.9
27449.4
27449.9
27450.3
27450.8
27451.2
27451.6
27451.9
27452.3
27452.6
27452.9
27453.1
27453.3
27453.5
27453.7
27453.8
27453.9
27453.9
29615
29614.9
29614.5
29614
29613.3
29612.5
29611.5
29610.3
29608.9
29607.4
29605.7
29603.8
29601.7
29599.5
29597.1
29594.6
29591.8
29588.9
29585.8
29582.6
29579.2
29575.5
29571.8
29567.8
29563.7
29559.4
29554.9
29550.2
29545.4
29540.3
29535.1
29529.8
29524.2
29518.5
29512.5
29506.4
29500.1
29493.7
29487
29480.2
29473.2
29466
29458.6
29451
29443.3
29435.3
29427.2
29418.9
29410.5
29401.8
29393
29384
29374.8
29365.4
29355.8
29346.1
29336.2
29326.1
29315.8
29305.4
29294.8
29284
29273
29261.9
29250.6
29239.1
29227.5
29215.7
29203.7
29191.6
29179.3
29166.9
29154.3
29141.5
29128.6
29115.5
29102.3
29089
29075.5
29061.8
29048
29034.1
29020
29005.8
28991.5
28977
28962.4
28947.7
28932.9
28917.9
28902.9
28887.7
28872.4
28857
28841.5
28825.9
28810.2
28794.4
28778.5
28762.5
28746.4
28730.3
28714.1
28697.8
28681.4
28665
28648.5
28631.9
28615.3
28598.6
28581.9
28565.2
28548.4
28531.6
28514.7
28497.8
28480.9
28464
28447
28430.1
28413.1
28396.1
28379.2
28362.2
28345.3
28328.4
28311.5
28294.6
28277.8
28261
28244.2
28227.5
28210.8
28194.1
28177.6
28161
28144.6
28128.2
28111.9
28095.6
28079.5
28063.4
28047.4
28031.5
28015.7
28000
27984.4
27968.9
27953.5
27938.2
27923
27907.9
27893
27878.2
27863.5
27848.9
27834.4
27820.1
27805.9
27791.8
27777.9
27764.1
27750.4
27736.9
27723.5
27710.2
27697.1
27684.2
27671.3
27658.6
27646.1
27633.7
27621.4
27609.3
27597.3
27585.5
27573.8
27562.2
27550.8
27539.5
27528.4
27517.4
27506.5
27495.8
27485.2
27474.8
27464.5
27454.3
27444.3
27434.4
27424.6
27415
27405.5
27396.2
27386.9
27377.9
27368.9
27360.1
27351.4
27342.8
27334.3
27326
27317.8
27309.8
27301.9
27294.1
27286.4
27278.8
27271.4
27264.1
27256.9
27249.8
27242.9
27236
27229.3
27222.7
27216.2
27209.8
27203.5
27197.4
27191.3
27185.4
27179.5
27173.8
27168.1
27162.6
27157.1
27151.8
27146.5
27141.3
27136.3
27131.3
27126.4
27121.5
27116.8
27112.1
27107.6
27103.1
27098.7
27094.4
27090.1
27085.9
27081.8
27077.8
27073.9
27070
27066.2
27062.5
27058.9
27055.4
27051.9
27048.5
27045.1
27041.9
27038.7
27035.6
27032.6
27029.7
27026.8
27024
27021.3
27018.7
27016.1
27013.6
27011.2
27008.9
27006.7
27004.5
27002.4
27000.4
26998.5
26996.7
26994.9
26993.2
26991.6
26990.1
26988.6
26987.2
26985.9
26984.7
26983.6
26982.5
26981.5
26980.6
26979.7
26979
26978.3
26977.6
26977.1
26976.5
26976.1
26975.7
26975.4
26975.1
26974.9
26974.8
26974.7
26974.7
26974.7
26974.8
26974.9
26975
26975.2
26975.5
26975.8
26976.1
26976.4
26976.8
26977.2
26977.7
26978.2
26978.7
26979.2
26979.7
26980.3
26980.9
26981.5
26982.1
26982.7
26983.3
26984
26984.6
26985.2
26985.9
26986.5
26987.1
26987.7
26988.3
26988.9
26989.5
26990.1
26990.7
26991.2
26991.7
26992.2
26992.7
26993.2
26993.6
26994
26994.4
26994.7
26995.1
26995.3
26995.6
26995.8
26996
26996.2
26996.3
26996.4
26996.4
29160.4
29160.2
29159.9
29159.4
29158.7
29157.9
29156.8
29155.7
29154.3
29152.8
29151.1
29149.2
29147.2
29144.9
29142.6
29140
29137.3
29134.4
29131.3
29128
29124.6
29121
29117.2
29113.3
29109.2
29104.9
29100.4
29095.7
29090.9
29085.9
29080.7
29075.3
29069.7
29064
29058.1
29052
29045.7
29039.2
29032.6
29025.7
29018.7
29011.5
29004.1
28996.6
28988.8
28980.9
28972.8
28964.5
28956
28947.3
28938.5
28929.4
28920.2
28910.8
28901.3
28891.5
28881.6
28871.5
28861.2
28850.7
28840.1
28829.3
28818.3
28807.1
28795.8
28784.3
28772.7
28760.8
28748.8
28736.7
28724.4
28711.9
28699.2
28686.4
28673.5
28660.4
28647.1
28633.7
28620.2
28606.5
28592.7
28578.7
28564.6
28550.3
28535.9
28521.4
28506.8
28492
28477.1
28462.1
28447
28431.8
28416.4
28401
28385.4
28369.7
28354
28338.1
28322.2
28306.1
28290
28273.8
28257.5
28241.1
28224.7
28208.2
28191.6
28175
28158.3
28141.6
28124.8
28108
28091.1
28074.2
28057.3
28040.3
28023.3
28006.3
27989.3
27972.2
27955.2
27938.2
27921.1
27904.1
27887.1
27870.1
27853.1
27836.2
27819.3
27802.4
27785.5
27768.7
27752
27735.3
27718.6
27702
27685.5
27669.1
27652.7
27636.4
27620.1
27604
27587.9
27572
27556.1
27540.4
27524.7
27509.1
27493.7
27478.3
27463.1
27448
27433
27418.1
27403.4
27388.8
27374.3
27359.9
27345.7
27331.6
27317.6
27303.8
27290.1
27276.6
27263.2
27249.9
27236.8
27223.8
27210.9
27198.2
27185.7
27173.3
27161
27148.9
27136.9
27125.1
27113.4
27101.8
27090.4
27079.1
27068
27057
27046.1
27035.4
27024.9
27014.4
27004.1
26994
26983.9
26974.1
26964.3
26954.7
26945.2
26935.8
26926.6
26917.5
26908.6
26899.8
26891.1
26882.5
26874.1
26865.7
26857.6
26849.5
26841.6
26833.8
26826.1
26818.6
26811.1
26803.8
26796.7
26789.6
26782.7
26775.8
26769.1
26762.5
26756.1
26749.7
26743.4
26737.3
26731.2
26725.3
26719.5
26713.7
26708.1
26702.6
26697.1
26691.8
26686.5
26681.4
26676.3
26671.3
26666.4
26661.6
26656.9
26652.2
26647.7
26643.2
26638.8
26634.5
26630.2
26626.1
26622
26618
26614
26610.2
26606.4
26602.7
26599.1
26595.5
26592
26588.6
26585.3
26582.1
26578.9
26575.8
26572.8
26569.9
26567
26564.2
26561.5
26558.9
26556.4
26553.9
26551.5
26549.2
26547
26544.9
26542.8
26540.8
26538.9
26537.1
26535.4
26533.7
26532.1
26530.6
26529.2
26527.8
26526.6
26525.4
26524.3
26523.2
26522.3
26521.4
26520.6
26519.8
26519.1
26518.5
26518
26517.5
26517.1
26516.8
26516.5
26516.3
26516.1
26516
26515.9
26515.9
26516
26516.1
26516.2
26516.4
26516.6
26516.9
26517.2
26517.6
26518
26518.4
26518.8
26519.3
26519.8
26520.4
26520.9
26521.5
26522.1
26522.7
26523.3
26524
26524.6
26525.3
26525.9
26526.6
26527.3
26527.9
26528.6
26529.2
26529.9
26530.5
26531.2
26531.8
26532.4
26533
26533.5
26534.1
26534.6
26535.1
26535.6
26536
26536.4
26536.8
26537.2
26537.6
26537.9
26538.1
26538.4
26538.6
26538.7
26538.9
26538.9
26539
28706.2
28706
28705.7
28705.2
28704.5
28703.7
28702.7
28701.5
28700.1
28698.6
28696.9
28695
28693
28690.8
28688.4
28685.9
28683.2
28680.3
28677.2
28674
28670.5
28667
28663.2
28659.2
28655.1
28650.8
28646.4
28641.7
28636.9
28631.9
28626.7
28621.3
28615.7
28610
28604.1
28598
28591.7
28585.2
28578.6
28571.8
28564.7
28557.5
28550.2
28542.6
28534.8
28526.9
28518.8
28510.5
28502
28493.3
28484.4
28475.4
28466.2
28456.8
28447.2
28437.4
28427.5
28417.3
28407
28396.5
28385.9
28375
28364
28352.8
28341.5
28330
28318.3
28306.4
28294.4
28282.2
28269.8
28257.3
28244.6
28231.8
28218.8
28205.6
28192.3
28178.9
28165.3
28151.5
28137.7
28123.6
28109.5
28095.2
28080.7
28066.2
28051.5
28036.6
28021.7
28006.6
27991.5
27976.2
27960.7
27945.2
27929.6
27913.9
27898
27882.1
27866.1
27850
27833.7
27817.5
27801.1
27784.7
27768.1
27751.6
27734.9
27718.2
27701.4
27684.6
27667.7
27650.8
27633.9
27616.9
27599.9
27582.8
27565.7
27548.6
27531.5
27514.4
27497.3
27480.2
27463.1
27445.9
27428.8
27411.8
27394.7
27377.7
27360.6
27343.7
27326.7
27309.9
27293
27276.2
27259.5
27242.8
27226.2
27209.7
27193.2
27176.9
27160.6
27144.4
27128.2
27112.2
27096.3
27080.4
27064.7
27049.1
27033.6
27018.2
27002.9
26987.7
26972.7
26957.8
26943
26928.3
26913.8
26899.4
26885.1
26871
26857
26843.2
26829.4
26815.9
26802.5
26789.2
26776
26763
26750.2
26737.5
26724.9
26712.5
26700.2
26688.1
26676.1
26664.3
26652.6
26641
26629.6
26618.3
26607.2
26596.2
26585.4
26574.7
26564.1
26553.7
26543.4
26533.2
26523.2
26513.3
26503.6
26494
26484.5
26475.1
26465.9
26456.9
26447.9
26439.1
26430.4
26421.8
26413.4
26405.1
26396.9
26388.9
26381
26373.2
26365.5
26358
26350.6
26343.3
26336.1
26329.1
26322.1
26315.3
26308.6
26302
26295.6
26289.2
26283
26276.8
26270.8
26264.9
26259.1
26253.4
26247.7
26242.2
26236.8
26231.5
26226.2
26221.1
26216
26211.1
26206.2
26201.4
26196.7
26192
26187.5
26183
26178.6
26174.3
26170.1
26165.9
26161.8
26157.8
26153.9
26150
26146.3
26142.6
26138.9
26135.4
26131.9
26128.5
26125.2
26122
26118.8
26115.7
26112.7
26109.8
26107
26104.2
26101.5
26098.9
26096.4
26093.9
26091.6
26089.3
26087.1
26085
26082.9
26081
26079.1
26077.3
26075.6
26073.9
26072.4
26070.9
26069.5
26068.2
26067
26065.8
26064.7
26063.7
26062.8
26062
26061.2
26060.5
26059.8
26059.3
26058.8
26058.3
26057.9
26057.6
26057.4
26057.2
26057.1
26057
26057
26057
26057.1
26057.2
26057.4
26057.6
26057.9
26058.2
26058.6
26059
26059.4
26059.9
26060.4
26060.9
26061.4
26062
26062.6
26063.2
26063.8
26064.5
26065.2
26065.8
26066.5
26067.2
26067.9
26068.6
26069.3
26070
26070.7
26071.4
26072.1
26072.7
26073.4
26074
26074.7
26075.3
26075.9
26076.4
26077
26077.5
26078
26078.5
26078.9
26079.4
26079.7
26080.1
26080.4
26080.7
26080.9
26081.2
26081.3
26081.5
26081.5
26081.6
28252.5
28252.3
28252
28251.5
28250.8
28249.9
28248.9
28247.8
28246.4
28244.9
28243.2
28241.4
28239.3
28237.1
28234.8
28232.2
28229.5
28226.6
28223.6
28220.3
28216.9
28213.4
28209.6
28205.7
28201.6
28197.3
28192.8
28188.2
28183.3
28178.3
28173.2
28167.8
28162.2
28156.5
28150.6
28144.5
28138.2
28131.8
28125.1
28118.3
28111.3
28104.1
28096.7
28089.1
28081.3
28073.4
28065.3
28057
28048.5
28039.8
28030.9
28021.8
28012.6
28003.2
27993.6
27983.8
27973.8
27963.6
27953.3
27942.8
27932.1
27921.2
27910.2
27899
27887.6
27876
27864.3
27852.4
27840.3
27828.1
27815.7
27803.1
27790.4
27777.5
27764.5
27751.3
27737.9
27724.4
27710.8
27697
27683
27668.9
27654.7
27640.4
27625.9
27611.2
27596.5
27581.6
27566.6
27551.4
27536.2
27520.8
27505.3
27489.7
27474
27458.2
27442.3
27426.3
27410.2
27394
27377.7
27361.3
27344.9
27328.3
27311.7
27295.1
27278.3
27261.5
27244.7
27227.8
27210.8
27193.8
27176.7
27159.7
27142.5
27125.4
27108.2
27091
27073.8
27056.6
27039.4
27022.1
27004.9
26987.7
26970.5
26953.3
26936.2
26919
26901.9
26884.9
26867.8
26850.8
26833.9
26817
26800.2
26783.5
26766.8
26750.1
26733.6
26717.1
26700.7
26684.5
26668.2
26652.1
26636.1
26620.2
26604.4
26588.7
26573.2
26557.7
26542.4
26527.1
26512
26497.1
26482.2
26467.5
26452.9
26438.5
26424.2
26410
26396
26382.1
26368.4
26354.8
26341.4
26328.1
26314.9
26301.9
26289
26276.3
26263.7
26251.3
26239
26226.9
26214.9
26203.1
26191.4
26179.8
26168.4
26157.2
26146.1
26135.1
26124.2
26113.5
26103
26092.6
26082.3
26072.1
26062.1
26052.2
26042.5
26032.9
26023.4
26014.1
26004.9
25995.8
25986.9
25978.1
25969.4
25960.8
25952.4
25944.1
25935.9
25927.9
25920
25912.2
25904.6
25897
25889.6
25882.4
25875.2
25868.2
25861.2
25854.4
25847.8
25841.2
25834.8
25828.4
25822.2
25816.1
25810.1
25804.2
25798.4
25792.7
25787.1
25781.6
25776.2
25770.8
25765.6
25760.5
25755.4
25750.5
25745.6
25740.8
25736.1
25731.5
25727
25722.5
25718.1
25713.8
25709.6
25705.4
25701.4
25697.4
25693.4
25689.6
25685.8
25682.1
25678.5
25675
25671.5
25668.1
25664.8
25661.6
25658.4
25655.3
25652.4
25649.4
25646.6
25643.9
25641.2
25638.6
25636.1
25633.6
25631.3
25629
25626.9
25624.8
25622.7
25620.8
25619
25617.2
25615.5
25613.9
25612.4
25611
25609.6
25608.3
25607.1
25606
25605
25604
25603.1
25602.3
25601.6
25600.9
25600.3
25599.8
25599.3
25598.9
25598.6
25598.3
25598.1
25598
25597.9
25597.8
25597.9
25597.9
25598.1
25598.3
25598.5
25598.8
25599.1
25599.4
25599.8
25600.3
25600.7
25601.2
25601.8
25602.3
25602.9
25603.6
25604.2
25604.8
25605.5
25606.2
25606.9
25607.6
25608.4
25609.1
25609.8
25610.6
25611.3
25612
25612.8
25613.5
25614.2
25614.9
25615.6
25616.3
25617
25617.6
25618.2
25618.8
25619.4
25620
25620.5
25621
25621.5
25621.9
25622.3
25622.7
25623
25623.3
25623.6
25623.8
25624
25624.1
25624.2
25624.2
27799.2
27799
27798.7
27798.2
27797.5
27796.7
27795.7
27794.5
27793.1
27791.6
27790
27788.1
27786.1
27783.9
27781.5
27779
27776.3
27773.4
27770.4
27767.2
27763.8
27760.2
27756.5
27752.6
27748.5
27744.2
27739.7
27735.1
27730.3
27725.3
27720.1
27714.8
27709.2
27703.5
27697.6
27691.5
27685.2
27678.8
27672.1
27665.3
27658.3
27651.1
27643.7
27636.1
27628.3
27620.4
27612.3
27603.9
27595.4
27586.7
27577.8
27568.8
27559.5
27550.1
27540.4
27530.6
27520.6
27510.4
27500.1
27489.5
27478.8
27467.9
27456.8
27445.6
27434.1
27422.5
27410.8
27398.8
27386.7
27374.4
27362
27349.3
27336.6
27323.6
27310.5
27297.3
27283.9
27270.3
27256.6
27242.7
27228.7
27214.6
27200.3
27185.9
27171.3
27156.6
27141.8
27126.8
27111.7
27096.5
27081.2
27065.7
27050.2
27034.5
27018.7
27002.8
26986.8
26970.7
26954.5
26938.2
26921.9
26905.4
26888.8
26872.2
26855.5
26838.7
26821.9
26805
26788
26771
26754
26736.8
26719.7
26702.5
26685.3
26668
26650.7
26633.4
26616.1
26598.8
26581.4
26564.1
26546.8
26529.4
26512.1
26494.8
26477.6
26460.3
26443.1
26425.9
26408.8
26391.7
26374.7
26357.7
26340.7
26323.9
26307.1
26290.4
26273.7
26257.2
26240.7
26224.3
26208
26191.8
26175.7
26159.7
26143.9
26128.1
26112.4
26096.9
26081.5
26066.2
26051
26036
26021.1
26006.4
25991.7
25977.3
25962.9
25948.7
25934.6
25920.7
25907
25893.3
25879.9
25866.6
25853.4
25840.4
25827.5
25814.7
25802.2
25789.7
25777.5
25765.3
25753.3
25741.5
25729.8
25718.3
25706.9
25695.6
25684.5
25673.5
25662.7
25652
25641.5
25631.1
25620.8
25610.7
25600.7
25590.8
25581.1
25571.5
25562
25552.7
25543.5
25534.4
25525.5
25516.7
25508
25499.4
25491
25482.7
25474.6
25466.6
25458.7
25450.9
25443.2
25435.7
25428.3
25421.1
25413.9
25406.9
25400
25393.2
25386.6
25380
25373.6
25367.3
25361.1
25355
25349
25343.1
25337.3
25331.6
25326.1
25320.6
25315.2
25309.9
25304.7
25299.6
25294.5
25289.6
25284.7
25280
25275.3