/*--------------------------------*- C++ -*----------------------------------*\
| =========                 |                                                 |
| \\      /  F ield         | OpenFOAM: The Open Source CFD Toolbox           |
|  \\    /   O peration     | Version:  v2006                                 |
|   \\  /    A nd           | Website:  www.openfoam.com                      |
|    \\/     M anipulation  |                                                 |
\*---------------------------------------------------------------------------*/
FoamFile
{
    version     2.0;
    format      ascii;
    class       volVectorField;
    location    "18.8";
    object      U;
}
// * * * * * * * * * * * * * * * * * * * * * * * * * * * * * * * * * * * * * //

dimensions      [0 1 -1 0 0 0 0];


internalField   nonuniform List<vector> 
52500
(
(0.000727728 -0.00295273 0)
(0.00341007 -0.0040733 0)
(0.00609858 -0.00409516 0)
(0.00859902 -0.00389004 0)
(0.0110909 -0.00377998 0)
(0.0135486 -0.00374541 0)
(0.0159989 -0.00374768 0)
(0.0184447 -0.00375559 0)
(0.0208824 -0.0037546 0)
(0.0233077 -0.00374231 0)
(0.0257169 -0.00372142 0)
(0.0281073 -0.00369509 0)
(0.0304778 -0.00366518 0)
(0.0328283 -0.00363237 0)
(0.035158 -0.00359679 0)
(0.037468 -0.00355797 0)
(0.0397577 -0.00351639 0)
(0.0420269 -0.00347113 0)
(0.0442773 -0.00342227 0)
(0.0465087 -0.00336958 0)
(0.0487218 -0.00331283 0)
(0.0509169 -0.0032521 0)
(0.0530944 -0.00318792 0)
(0.0552542 -0.00312152 0)
(0.0573964 -0.00305445 0)
(0.0595206 -0.00298802 0)
(0.0616261 -0.00292302 0)
(0.0637118 -0.00285972 0)
(0.0657768 -0.00279819 0)
(0.0678197 -0.00273825 0)
(0.0698396 -0.00267966 0)
(0.0718356 -0.00262218 0)
(0.0738071 -0.00256465 0)
(0.0757529 -0.00250635 0)
(0.0776708 -0.00244602 0)
(0.0795578 -0.00238269 0)
(0.0814094 -0.00231617 0)
(0.0832208 -0.00224771 0)
(0.0849865 -0.002178 0)
(0.086701 -0.00210814 0)
(0.0883582 -0.00203706 0)
(0.0899509 -0.00196098 0)
(0.0914697 -0.00187329 0)
(0.0929026 -0.00176627 0)
(0.0942361 -0.00163406 0)
(0.0954575 -0.00147633 0)
(0.0965583 -0.00130004 0)
(0.0975376 -0.00111881 0)
(0.0984025 -0.000949558 0)
(0.0991704 -0.000806449 0)
(0.0998621 -0.000697303 0)
(0.100497 -0.000621374 0)
(0.101092 -0.000571243 0)
(0.101663 -0.000537424 0)
(0.102221 -0.000512392 0)
(0.10277 -0.000491803 0)
(0.103317 -0.000472664 0)
(0.103868 -0.000456148 0)
(0.104424 -0.000443866 0)
(0.10499 -0.000437198 0)
(0.105574 -0.000437841 0)
(0.10618 -0.000446551 0)
(0.106814 -0.000462861 0)
(0.107482 -0.000485685 0)
(0.108186 -0.000513786 0)
(0.10893 -0.000546286 0)
(0.109716 -0.00058289 0)
(0.110547 -0.000623254 0)
(0.111424 -0.000667684 0)
(0.112349 -0.00071636 0)
(0.113323 -0.0007691 0)
(0.114348 -0.000825403 0)
(0.115426 -0.000884448 0)
(0.116556 -0.000945199 0)
(0.117738 -0.00100644 0)
(0.118972 -0.00106698 0)
(0.120257 -0.00112569 0)
(0.12159 -0.00118162 0)
(0.122969 -0.00123391 0)
(0.124393 -0.0012817 0)
(0.125857 -0.00132422 0)
(0.127359 -0.0013607 0)
(0.128897 -0.00139053 0)
(0.130468 -0.00141348 0)
(0.132069 -0.00142978 0)
(0.133697 -0.00144022 0)
(0.135351 -0.00144605 0)
(0.137028 -0.00144887 0)
(0.138728 -0.00145036 0)
(0.140449 -0.00145205 0)
(0.142191 -0.0014551 0)
(0.143953 -0.00145978 0)
(0.145734 -0.0014652 0)
(0.147531 -0.00146958 0)
(0.149343 -0.00147081 0)
(0.151164 -0.0014673 0)
(0.15299 -0.00145815 0)
(0.154818 -0.00144355 0)
(0.156644 -0.00142463 0)
(0.158463 -0.00140203 0)
(0.160274 -0.0013766 0)
(0.162076 -0.00134927 0)
(0.163865 -0.00132048 0)
(0.165641 -0.00129057 0)
(0.167403 -0.00125977 0)
(0.16915 -0.00122833 0)
(0.17088 -0.00119634 0)
(0.172593 -0.00116376 0)
(0.174288 -0.00113056 0)
(0.175964 -0.00109694 0)
(0.177619 -0.00106262 0)
(0.179254 -0.00102716 0)
(0.180867 -0.000990781 0)
(0.182457 -0.000952337 0)
(0.184023 -0.000912228 0)
(0.185564 -0.000870291 0)
(0.187078 -0.000825904 0)
(0.188564 -0.000778568 0)
(0.190022 -0.000727651 0)
(0.191448 -0.000672683 0)
(0.192843 -0.000613082 0)
(0.194204 -0.000548456 0)
(0.195529 -0.00047874 0)
(0.196816 -0.00040417 0)
(0.198065 -0.000325603 0)
(0.199272 -0.000244657 0)
(0.200439 -0.000163158 0)
(0.201565 -8.45678e-05 0)
(0.202647 -1.08506e-05 0)
(0.20369 5.60339e-05 0)
(0.204696 0.000114014 0)
(0.205666 0.00016239 0)
(0.206603 0.000201842 0)
(0.207509 0.000234363 0)
(0.208383 0.000262801 0)
(0.209224 0.000290403 0)
(0.210031 0.000320164 0)
(0.2108 0.000354032 0)
(0.211527 0.000392852 0)
(0.212207 0.000435919 0)
(0.212836 0.000481088 0)
(0.21341 0.000525906 0)
(0.213926 0.000568288 0)
(0.214379 0.000609238 0)
(0.214765 0.000652171 0)
(0.215078 0.000703914 0)
(0.215305 0.00077503 0)
(0.215432 0.000877786 0)
(0.215443 0.00102444 0)
(0.215307 0.00122207 0)
(0.215006 0.00146974 0)
(0.214527 0.00175976 0)
(0.213863 0.00207968 0)
(0.213018 0.00241745 0)
(0.211998 0.00276439 0)
(0.21081 0.00311014 0)
(0.209468 0.00343956 0)
(0.207998 0.00372828 0)
(0.206439 0.00393403 0)
(0.204844 0.00400039 0)
(0.203286 0.00388436 0)
(0.201852 0.00360286 0)
(0.200588 0.00323378 0)
(0.199492 0.002859 0)
(0.198544 0.00252304 0)
(0.197717 0.00223942 0)
(0.196981 0.00200906 0)
(0.196311 0.00182781 0)
(0.195684 0.00168817 0)
(0.195083 0.00158102 0)
(0.194493 0.00149718 0)
(0.193908 0.00142835 0)
(0.193321 0.00136895 0)
(0.192731 0.00131295 0)
(0.192137 0.00125625 0)
(0.19154 0.0011972 0)
(0.190939 0.00113508 0)
(0.190336 0.00106983 0)
(0.189731 0.00100153 0)
(0.189122 0.000931748 0)
(0.188509 0.000862463 0)
(0.187889 0.000795698 0)
(0.187258 0.00073415 0)
(0.186613 0.000679792 0)
(0.185946 0.00063513 0)
(0.185252 0.000602387 0)
(0.184526 0.000582724 0)
(0.18376 0.000576896 0)
(0.182948 0.000585282 0)
(0.182084 0.000607697 0)
(0.181162 0.000643551 0)
(0.180179 0.000691797 0)
(0.179129 0.000750946 0)
(0.178011 0.000819012 0)
(0.176821 0.000894652 0)
(0.175558 0.000975042 0)
(0.174222 0.00105713 0)
(0.172813 0.00113886 0)
(0.171332 0.00121872 0)
(0.16978 0.00129331 0)
(0.168156 0.0013617 0)
(0.166464 0.00142403 0)
(0.164707 0.00147967 0)
(0.162887 0.00152895 0)
(0.161003 0.00157273 0)
(0.159057 0.00161265 0)
(0.15705 0.00165037 0)
(0.154983 0.00168718 0)
(0.152855 0.0017243 0)
(0.150666 0.00176262 0)
(0.148414 0.00180257 0)
(0.146101 0.00184447 0)
(0.143726 0.00188846 0)
(0.141287 0.00193417 0)
(0.138785 0.00198123 0)
(0.136219 0.00202951 0)
(0.133591 0.00207832 0)
(0.130898 0.00212745 0)
(0.128143 0.00217661 0)
(0.125324 0.00222552 0)
(0.122444 0.00227385 0)
(0.119502 0.00232154 0)
(0.116499 0.00236858 0)
(0.113436 0.00241464 0)
(0.110314 0.00245976 0)
(0.107135 0.0025036 0)
(0.103899 0.00254594 0)
(0.100609 0.00258683 0)
(0.097267 0.00262611 0)
(0.0938737 0.00266372 0)
(0.0904319 0.00269957 0)
(0.0869433 0.00273345 0)
(0.0834103 0.00276539 0)
(0.0798354 0.00279562 0)
(0.0762209 0.00282421 0)
(0.0725692 0.00285119 0)
(0.0688829 0.00287666 0)
(0.0651644 0.00290082 0)
(0.0614162 0.00292371 0)
(0.0576402 0.00294553 0)
(0.0538386 0.00296682 0)
(0.0500138 0.00298828 0)
(0.0461675 0.00301025 0)
(0.042301 0.00303344 0)
(0.0384152 0.00305903 0)
(0.0345107 0.00308822 0)
(0.0305869 0.00312267 0)
(0.0266414 0.00316518 0)
(0.022676 0.00322054 0)
(0.0186853 0.00329199 0)
(0.0146588 0.00338583 0)
(0.0105904 0.00350629 0)
(0.00646782 0.00365163 0)
(0.00228368 0.00381428 0)
(-0.00196802 0.00397815 0)
(-0.00629175 0.00413179 0)
(-0.0106812 0.00426421 0)
(-0.0151272 0.00437341 0)
(-0.0196216 0.00446359 0)
(-0.0241594 0.00454186 0)
(-0.028739 0.00461276 0)
(-0.0333617 0.00467948 0)
(-0.038031 0.00474366 0)
(-0.0427521 0.00480694 0)
(-0.0475306 0.00486789 0)
(-0.0523714 0.00492582 0)
(-0.0572788 0.00497939 0)
(-0.0622551 0.00502526 0)
(-0.0672988 0.00505737 0)
(-0.0724024 0.00506593 0)
(-0.0775515 0.00504151 0)
(-0.0827237 0.0049878 0)
(-0.0878919 0.00493903 0)
(-0.093041 0.00496377 0)
(-0.0981833 0.00514918 0)
(-0.10336 0.00554102 0)
(-0.108629 0.00604337 0)
(-0.113982 0.00636872 0)
(-0.119259 0.0061486 0)
(-0.124141 0.00522999 0)
(-0.128279 0.00383803 0)
(-0.131462 0.0023836 0)
(-0.133682 0.00118604 0)
(-0.135067 0.000373409 0)
(-0.135797 -6.07493e-05 0)
(-0.13607 -0.000200112 0)
(-0.136051 -0.000154628 0)
(-0.13588 -2.51888e-05 0)
(-0.135605 0.000109194 0)
(-0.13526 0.000204097 0)
(-0.134863 0.000238192 0)
(-0.134426 0.000205401 0)
(-0.133955 0.000111087 0)
(-0.133451 -3.17648e-05 0)
(-0.132909 -0.00020749 0)
(-0.132321 -0.000400269 0)
(-0.131672 -0.000595957 0)
(-0.130954 -0.000784057 0)
(-0.130157 -0.000958061 0)
(-0.129272 -0.00111464 0)
(-0.128291 -0.00125323 0)
(-0.127212 -0.00137514 0)
(-0.126035 -0.00148238 0)
(-0.124759 -0.00157799 0)
(-0.12339 -0.00166547 0)
(-0.121933 -0.00174778 0)
(-0.120392 -0.00182782 0)
(-0.118772 -0.00190711 0)
(-0.11708 -0.00198614 0)
(-0.115314 -0.00206517 0)
(-0.113476 -0.00214433 0)
(-0.111567 -0.00222242 0)
(-0.109585 -0.00229804 0)
(-0.107532 -0.00237095 0)
(-0.105408 -0.00244098 0)
(-0.103217 -0.00250836 0)
(-0.10096 -0.00257356 0)
(-0.098637 -0.00263793 0)
(-0.0962531 -0.0027017 0)
(-0.0938103 -0.00276483 0)
(-0.0913124 -0.00282708 0)
(-0.0887628 -0.0028891 0)
(-0.0861645 -0.0029512 0)
(-0.0835205 -0.00301385 0)
(-0.0808339 -0.00307749 0)
(-0.0781075 -0.00314291 0)
(-0.0753445 -0.00321072 0)
(-0.0725471 -0.00328141 0)
(-0.0697178 -0.00335614 0)
(-0.0668588 -0.00343605 0)
(-0.0639719 -0.0035215 0)
(-0.0610579 -0.00361247 0)
(-0.0581169 -0.00370948 0)
(-0.05515 -0.00381212 0)
(-0.0521555 -0.00391904 0)
(-0.0491302 -0.00402858 0)
(-0.0460718 -0.00413678 0)
(-0.0429758 -0.00424074 0)
(-0.0398376 -0.00433764 0)
(-0.0366539 -0.00442452 0)
(-0.0334206 -0.00450113 0)
(-0.0301335 -0.00457013 0)
(-0.0267879 -0.00463881 0)
(-0.0233754 -0.0047179 0)
(-0.0198899 -0.00482151 0)
(-0.0163217 -0.00496268 0)
(-0.0126394 -0.00515426 0)
(-0.00894266 -0.0053786 0)
(-0.00491505 -0.00522579 0)
(-0.00119439 -0.00353906 0)
(-0.000237877 -0.00384475 0)
(-0.000190682 -0.00473875 0)
(-0.000711624 -0.00441882 0)
(-0.00111936 -0.00433015 0)
(-0.00150401 -0.0043393 0)
(-0.00185356 -0.0043207 0)
(-0.00221156 -0.00429371 0)
(-0.00256857 -0.00426215 0)
(-0.00292032 -0.00422774 0)
(-0.0032594 -0.00419079 0)
(-0.00357941 -0.00415255 0)
(-0.00387442 -0.00411394 0)
(-0.00413861 -0.00407641 0)
(-0.00436612 -0.00404108 0)
(-0.00455089 -0.0040089 0)
(-0.00468681 -0.0039805 0)
(-0.00476807 -0.00395681 0)
(-0.00478916 -0.00393802 0)
(-0.00474563 -0.00392514 0)
(-0.00463389 -0.00391831 0)
(-0.0044517 -0.00391747 0)
(-0.0041981 -0.00392217 0)
(-0.00387379 -0.00393093 0)
(-0.00348077 -0.00394153 0)
(-0.00302229 -0.00395149 0)
(-0.00250238 -0.00395858 0)
(-0.00192538 -0.00396106 0)
(-0.00129615 -0.00395794 0)
(-0.0006193 -0.00394907 0)
(0.000100335 -0.0039351 0)
(0.000858383 -0.00391705 0)
(0.00165265 -0.00389574 0)
(0.0024809 -0.00387126 0)
(0.00334102 -0.00384226 0)
(0.00423293 -0.00380643 0)
(0.00515563 -0.00376085 0)
(0.00610584 -0.00370259 0)
(0.00708028 -0.00362953 0)
(0.00807219 -0.00353998 0)
(0.00907182 -0.00343229 0)
(0.0100701 -0.00330421 0)
(0.0110575 -0.00315308 0)
(0.0120268 -0.00297699 0)
(0.0129738 -0.00277697 0)
(0.0138983 -0.00255827 0)
(0.0148034 -0.00233055 0)
(0.0156944 -0.00210635 0)
(0.0165755 -0.0018986 0)
(0.0174493 -0.00171804 0)
(0.0183172 -0.00157046 0)
(0.0191781 -0.00145986 0)
(0.0200344 -0.00137996 0)
(0.0208903 -0.00132859 0)
(0.0217485 -0.00129938 0)
(0.0226115 -0.00128894 0)
(0.0234842 -0.0012931 0)
(0.0243713 -0.00130961 0)
(0.0252753 -0.00133882 0)
(0.0262005 -0.00137928 0)
(0.0271496 -0.00143118 0)
(0.0281238 -0.00149458 0)
(0.0291245 -0.00156852 0)
(0.0301523 -0.00165177 0)
(0.0312072 -0.00174268 0)
(0.0322893 -0.00183965 0)
(0.0333982 -0.00194115 0)
(0.0345341 -0.00204599 0)
(0.0356967 -0.00215337 0)
(0.0368847 -0.00226271 0)
(0.038098 -0.00237425 0)
(0.0393357 -0.00248623 0)
(0.0405972 -0.0025988 0)
(0.0418816 -0.00271124 0)
(0.0431886 -0.00282279 0)
(0.0445176 -0.00293253 0)
(0.0458685 -0.00303956 0)
(0.0472414 -0.00314313 0)
(0.0486364 -0.00324283 0)
(0.0500541 -0.00333844 0)
(0.0514952 -0.00343012 0)
(0.0529609 -0.00351832 0)
(0.0544527 -0.00360362 0)
(0.0559726 -0.00368652 0)
(0.057523 -0.00376745 0)
(0.0591059 -0.00384667 0)
(0.0607234 -0.00392421 0)
(0.0623764 -0.00399985 0)
(0.0640651 -0.00407328 0)
(0.0657885 -0.00414401 0)
(0.0675443 -0.00421144 0)
(0.0693298 -0.00427477 0)
(0.0711415 -0.00433294 0)
(0.0729765 -0.00438474 0)
(0.0748322 -0.00442903 0)
(0.0767066 -0.00446505 0)
(0.078599 -0.00449258 0)
(0.0805087 -0.00451175 0)
(0.0824349 -0.00452341 0)
(0.0843781 -0.00452881 0)
(0.0863377 -0.00452812 0)
(0.0883132 -0.00452265 0)
(0.0903039 -0.00451329 0)
(0.0923089 -0.00450057 0)
(0.0943274 -0.00448499 0)
(0.0963584 -0.00446677 0)
(0.098401 -0.00444609 0)
(0.100455 -0.00442315 0)
(0.102518 -0.00439802 0)
(0.10459 -0.00437081 0)
(0.10667 -0.00434151 0)
(0.108757 -0.00430963 0)
(0.110849 -0.00427535 0)
(0.112949 -0.00423872 0)
(0.115051 -0.00419993 0)
(0.117155 -0.00415928 0)
(0.119262 -0.00411573 0)
(0.121372 -0.00407112 0)
(0.123484 -0.00402556 0)
(0.125597 -0.0039788 0)
(0.127713 -0.00393118 0)
(0.129829 -0.00388278 0)
(0.131946 -0.0038336 0)
(0.134064 -0.00378355 0)
(0.136183 -0.00373221 0)
(0.1383 -0.0036794 0)
(0.140417 -0.00362498 0)
(0.142529 -0.00356882 0)
(0.144636 -0.00351203 0)
(0.146733 -0.00345239 0)
(0.148817 -0.00339087 0)
(0.150882 -0.00332809 0)
(0.152923 -0.00326301 0)
(0.154934 -0.00319496 0)
(0.156911 -0.003123 0)
(0.158849 -0.00304609 0)
(0.160746 -0.00296316 0)
(0.162597 -0.00287292 0)
(0.164403 -0.00277441 0)
(0.166163 -0.00266643 0)
(0.167875 -0.00254789 0)
(0.169537 -0.00241843 0)
(0.171147 -0.00227707 0)
(0.172701 -0.00212256 0)
(0.174193 -0.00195297 0)
(0.175617 -0.00176629 0)
(0.176972 -0.00156084 0)
(0.178262 -0.00133498 0)
(0.179491 -0.00108808 0)
(0.180672 -0.000820987 0)
(0.181835 -0.00053815 0)
(0.183001 -0.000248916 0)
(0.184189 3.51241e-05 0)
(0.185412 0.000302827 0)
(0.186678 0.000545623 0)
(0.188002 0.000758636 0)
(0.189395 0.000937714 0)
(0.190863 0.0010795 0)
(0.192401 0.00117685 0)
(0.193994 0.00121561 0)
(0.195603 0.00117908 0)
(0.197168 0.00106327 0)
(0.198618 0.000893108 0)
(0.199917 0.00071181 0)
(0.201059 0.000554986 0)
(0.202056 0.000438186 0)
(0.202923 0.000362907 0)
(0.203675 0.000325533 0)
(0.204329 0.000320619 0)
(0.204896 0.000340994 0)
(0.205386 0.000380879 0)
(0.205806 0.000434173 0)
(0.206163 0.000495452 0)
(0.206458 0.000561086 0)
(0.206692 0.000628717 0)
(0.206866 0.000697371 0)
(0.20698 0.000766484 0)
(0.207032 0.000836388 0)
(0.207018 0.000908243 0)
(0.206938 0.000983023 0)
(0.206788 0.00106289 0)
(0.206567 0.00114893 0)
(0.206273 0.00124152 0)
(0.205905 0.00134214 0)
(0.20546 0.00145155 0)
(0.204939 0.00156998 0)
(0.204343 0.00169738 0)
(0.20367 0.00183313 0)
(0.202924 0.00197613 0)
(0.202104 0.00212518 0)
(0.201215 0.00227894 0)
(0.200259 0.00243586 0)
(0.199239 0.00259457 0)
(0.198157 0.00275404 0)
(0.197017 0.0029136 0)
(0.195823 0.0030728 0)
(0.194574 0.0032312 0)
(0.193272 0.00338881 0)
(0.19192 0.0035458 0)
(0.190516 0.00370265 0)
(0.189058 0.00385897 0)
(0.187545 0.00401555 0)
(0.185975 0.00417319 0)
(0.184344 0.00433162 0)
(0.18265 0.00449073 0)
(0.180889 0.00465051 0)
(0.179058 0.00481124 0)
(0.177157 0.00497299 0)
(0.175183 0.00513533 0)
(0.173135 0.00529818 0)
(0.171012 0.00546118 0)
(0.168815 0.00562403 0)
(0.166543 0.00578671 0)
(0.164198 0.00594901 0)
(0.161779 0.00611092 0)
(0.159288 0.00627234 0)
(0.156726 0.00643311 0)
(0.154091 0.00659336 0)
(0.151385 0.00675294 0)
(0.148609 0.00691181 0)
(0.145762 0.00706971 0)
(0.142845 0.00722651 0)
(0.139858 0.00738184 0)
(0.136802 0.00753538 0)
(0.133677 0.00768664 0)
(0.130484 0.00783515 0)
(0.127224 0.00798079 0)
(0.123898 0.00812303 0)
(0.120508 0.00826136 0)
(0.117054 0.00839533 0)
(0.113539 0.00852458 0)
(0.109964 0.00864879 0)
(0.106331 0.00876766 0)
(0.102643 0.00888072 0)
(0.0989015 0.00898772 0)
(0.0951098 0.00908858 0)
(0.0912701 0.0091831 0)
(0.0873853 0.00927112 0)
(0.0834583 0.00935258 0)
(0.0794921 0.00942739 0)
(0.07549 0.00949555 0)
(0.0714557 0.00955704 0)
(0.0673925 0.00961228 0)
(0.0633034 0.0096618 0)
(0.0591922 0.00970598 0)
(0.0550627 0.00974506 0)
(0.0509184 0.0097805 0)
(0.0467634 0.00981279 0)
(0.0426018 0.00984374 0)
(0.0384394 0.00987557 0)
(0.0342816 0.00990815 0)
(0.0301359 0.00994416 0)
(0.0260138 0.00998711 0)
(0.0219268 0.0100382 0)
(0.0178857 0.0100975 0)
(0.0139061 0.0101641 0)
(0.00999388 0.0102325 0)
(0.00614573 0.0102991 0)
(0.00235915 0.0103626 0)
(-0.00137159 0.0104233 0)
(-0.00505631 0.0104856 0)
(-0.00870382 0.0105553 0)
(-0.0123196 0.0106383 0)
(-0.0159048 0.0107388 0)
(-0.0194665 0.010859 0)
(-0.0230132 0.0109988 0)
(-0.0265459 0.0111557 0)
(-0.0300697 0.0113265 0)
(-0.0335893 0.0115036 0)
(-0.0371062 0.0116775 0)
(-0.0406153 0.0118343 0)
(-0.0441164 0.0119568 0)
(-0.0476064 0.0120259 0)
(-0.0510689 0.0120256 0)
(-0.0544766 0.0119498 0)
(-0.0577703 0.0117924 0)
(-0.0608402 0.0115481 0)
(-0.0635314 0.0112047 0)
(-0.065707 0.0107212 0)
(-0.0673395 0.0100051 0)
(-0.0684891 0.00896396 0)
(-0.0692836 0.00758721 0)
(-0.0698831 0.00598964 0)
(-0.0704901 0.00435312 0)
(-0.0711949 0.00284265 0)
(-0.0719859 0.00156761 0)
(-0.0727848 0.000560329 0)
(-0.073489 -0.000204282 0)
(-0.0739944 -0.000771296 0)
(-0.0742894 -0.00118157 0)
(-0.074359 -0.00146498 0)
(-0.0742245 -0.00164047 0)
(-0.0739268 -0.00172571 0)
(-0.0735159 -0.0017394 0)
(-0.0730354 -0.00171286 0)
(-0.0725177 -0.00167774 0)
(-0.071985 -0.00165886 0)
(-0.0714496 -0.00167184 0)
(-0.0709146 -0.00172488 0)
(-0.0703768 -0.00182182 0)
(-0.0698303 -0.00195991 0)
(-0.0692651 -0.00213094 0)
(-0.0686701 -0.00232655 0)
(-0.0680328 -0.00253802 0)
(-0.0673376 -0.0027535 0)
(-0.0665694 -0.0029636 0)
(-0.0657211 -0.00316287 0)
(-0.0647916 -0.00334803 0)
(-0.0637809 -0.00351999 0)
(-0.0626933 -0.00368272 0)
(-0.0615379 -0.00384005 0)
(-0.0603229 -0.00399592 0)
(-0.0590493 -0.00415307 0)
(-0.0577233 -0.00431153 0)
(-0.0563492 -0.00446972 0)
(-0.0549236 -0.00462692 0)
(-0.0534449 -0.00478259 0)
(-0.0519114 -0.00493292 0)
(-0.050323 -0.00507578 0)
(-0.0486801 -0.00521019 0)
(-0.0469819 -0.00533535 0)
(-0.0452327 -0.00545055 0)
(-0.0434371 -0.00555575 0)
(-0.0415985 -0.00565075 0)
(-0.0397221 -0.00573495 0)
(-0.0378133 -0.00580849 0)
(-0.0358791 -0.0058711 0)
(-0.0339271 -0.0059226 0)
(-0.0319649 -0.00596321 0)
(-0.030002 -0.00599219 0)
(-0.0280493 -0.00601008 0)
(-0.0261176 -0.00601736 0)
(-0.0242196 -0.00601552 0)
(-0.0223681 -0.00600695 0)
(-0.0205753 -0.00599534 0)
(-0.0188538 -0.00598599 0)
(-0.0172132 -0.0059835 0)
(-0.0156607 -0.00599336 0)
(-0.0142013 -0.00601984 0)
(-0.0128317 -0.00606771 0)
(-0.0115478 -0.00614005 0)
(-0.010341 -0.00623622 0)
(-0.00919602 -0.00635712 0)
(-0.00809698 -0.0064983 0)
(-0.00702916 -0.00665625 0)
(-0.00597958 -0.00682189 0)
(-0.00494454 -0.00697746 0)
(-0.00391875 -0.00708934 0)
(-0.00297151 -0.00729004 0)
(-0.00194587 -0.00767858 0)
(-0.000601836 -0.00647657 0)
(-0.000766995 -0.00220421 0)
(-0.0014053 -0.00311417 0)
(-0.00266042 -0.00253232 0)
(-0.00386214 -0.00247191 0)
(-0.00507096 -0.00249317 0)
(-0.00623285 -0.00248657 0)
(-0.00737031 -0.00249001 0)
(-0.00846032 -0.00250759 0)
(-0.00949425 -0.00253679 0)
(-0.0104618 -0.00257831 0)
(-0.0113543 -0.00263266 0)
(-0.012163 -0.00270129 0)
(-0.01288 -0.00278541 0)
(-0.0134987 -0.00288603 0)
(-0.0140134 -0.00300345 0)
(-0.0144199 -0.00313683 0)
(-0.0147157 -0.00328489 0)
(-0.0148994 -0.00344484 0)
(-0.0149719 -0.00361331 0)
(-0.0149357 -0.00378638 0)
(-0.0147962 -0.00395991 0)
(-0.0145601 -0.00412915 0)
(-0.0142349 -0.00429065 0)
(-0.013829 -0.00444183 0)
(-0.0133505 -0.00458089 0)
(-0.0128064 -0.00470697 0)
(-0.0122025 -0.00481971 0)
(-0.0115435 -0.00491851 0)
(-0.0108337 -0.00500436 0)
(-0.0100775 -0.0050773 0)
(-0.00927899 -0.00513984 0)
(-0.00844203 -0.00519461 0)
(-0.00756995 -0.00524421 0)
(-0.00666591 -0.00528955 0)
(-0.00573171 -0.00532928 0)
(-0.00476763 -0.00536071 0)
(-0.00377379 -0.00537705 0)
(-0.00275017 -0.00537301 0)
(-0.00169708 -0.00534405 0)
(-0.000614993 -0.00528533 0)
(0.000496249 -0.00519495 0)
(0.00163753 -0.00507178 0)
(0.00281076 -0.00491761 0)
(0.00401923 -0.00473688 0)
(0.00526769 -0.00453711 0)
(0.0065611 -0.00432808 0)
(0.00790312 -0.00412125 0)
(0.00929525 -0.0039283 0)
(0.0107391 -0.00375945 0)
(0.0122298 -0.00362126 0)
(0.013766 -0.00351716 0)
(0.01534 -0.00344685 0)
(0.0169422 -0.00340429 0)
(0.0185685 -0.0033866 0)
(0.0202126 -0.00338945 0)
(0.0218742 -0.00340976 0)
(0.0235516 -0.00344569 0)
(0.0252443 -0.00349604 0)
(0.0269515 -0.00355998 0)
(0.0286724 -0.00363706 0)
(0.0304057 -0.00372572 0)
(0.0321497 -0.00382457 0)
(0.0339023 -0.00393143 0)
(0.0356615 -0.0040446 0)
(0.037426 -0.00416261 0)
(0.0391944 -0.00428384 0)
(0.0409657 -0.0044074 0)
(0.0427395 -0.00453329 0)
(0.0445143 -0.00466099 0)
(0.046292 -0.00479045 0)
(0.048073 -0.00492133 0)
(0.0498555 -0.00505323 0)
(0.0516408 -0.00518575 0)
(0.0534297 -0.00531811 0)
(0.0552228 -0.00544967 0)
(0.057021 -0.00558006 0)
(0.0588255 -0.00570892 0)
(0.0606376 -0.00583612 0)
(0.0624585 -0.00596165 0)
(0.0642897 -0.00608565 0)
(0.0661325 -0.00620858 0)
(0.0679878 -0.00633102 0)
(0.0698567 -0.00645349 0)
(0.0717394 -0.00657638 0)
(0.073636 -0.00669944 0)
(0.0755462 -0.00682175 0)
(0.0774693 -0.0069418 0)
(0.0794045 -0.00705776 0)
(0.0813505 -0.00716789 0)
(0.0833065 -0.00727073 0)
(0.0852714 -0.00736531 0)
(0.0872445 -0.0074511 0)
(0.0892257 -0.00752805 0)
(0.0912151 -0.00759645 0)
(0.0932131 -0.00765683 0)
(0.0952205 -0.00770985 0)
(0.0972379 -0.00775588 0)
(0.0992658 -0.00779606 0)
(0.101305 -0.00783075 0)
(0.103356 -0.00786031 0)
(0.105417 -0.00788517 0)
(0.107489 -0.0079056 0)
(0.109571 -0.00792181 0)
(0.111661 -0.00793381 0)
(0.113759 -0.00794178 0)
(0.115863 -0.00794573 0)
(0.117971 -0.00794564 0)
(0.120083 -0.00794153 0)
(0.122196 -0.00793337 0)
(0.12431 -0.00792109 0)
(0.126422 -0.00790471 0)
(0.128532 -0.00788431 0)
(0.130639 -0.00785957 0)
(0.132739 -0.00783213 0)
(0.134833 -0.00780021 0)
(0.136919 -0.00776385 0)
(0.138993 -0.00772342 0)
(0.141055 -0.00767878 0)
(0.143103 -0.00762958 0)
(0.145136 -0.0075756 0)
(0.147149 -0.00751661 0)
(0.149139 -0.00745218 0)
(0.151106 -0.00738186 0)
(0.153045 -0.00730546 0)
(0.154954 -0.00722284 0)
(0.156831 -0.00713378 0)
(0.158674 -0.00703831 0)
(0.16048 -0.00693509 0)
(0.162246 -0.00682513 0)
(0.163972 -0.00670809 0)
(0.165657 -0.00658315 0)
(0.1673 -0.00644966 0)
(0.1689 -0.00630774 0)
(0.170457 -0.00615738 0)
(0.17197 -0.00599855 0)
(0.17344 -0.00583154 0)
(0.174868 -0.00565675 0)
(0.176254 -0.00547442 0)
(0.1776 -0.00528435 0)
(0.178907 -0.00508586 0)
(0.180176 -0.00487768 0)
(0.181408 -0.00465831 0)
(0.182607 -0.00442575 0)
(0.183773 -0.00417941 0)
(0.18491 -0.00391784 0)
(0.186021 -0.00364257 0)
(0.187109 -0.00335761 0)
(0.18818 -0.00306846 0)
(0.189234 -0.00278311 0)
(0.190272 -0.00251006 0)
(0.191296 -0.00225616 0)
(0.192305 -0.00202652 0)
(0.193299 -0.00182481 0)
(0.194276 -0.00165452 0)
(0.195231 -0.00151891 0)
(0.196158 -0.00141875 0)
(0.197052 -0.00135013 0)
(0.197908 -0.00130378 0)
(0.198719 -0.00126287 0)
(0.199472 -0.0012062 0)
(0.200154 -0.00111691 0)
(0.200751 -0.000996686 0)
(0.201256 -0.000863104 0)
(0.201672 -0.000730383 0)
(0.202009 -0.000600505 0)
(0.202277 -0.000469957 0)
(0.202486 -0.000336304 0)
(0.202643 -0.000199604 0)
(0.202755 -6.08352e-05 0)
(0.202826 7.94531e-05 0)
(0.202857 0.000217655 0)
(0.202846 0.000355867 0)
(0.202795 0.000493528 0)
(0.202702 0.000632386 0)
(0.202565 0.000773483 0)
(0.202382 0.000917136 0)
(0.202151 0.00106409 0)
(0.201871 0.00121545 0)
(0.201542 0.00137222 0)
(0.201162 0.00153542 0)
(0.200728 0.00170646 0)
(0.200242 0.00188653 0)
(0.199705 0.00207603 0)
(0.199117 0.00227552 0)
(0.198477 0.00248554 0)
(0.197786 0.00270596 0)
(0.197044 0.00293588 0)
(0.196252 0.00317419 0)
(0.195411 0.00341934 0)
(0.194519 0.0036699 0)
(0.193576 0.00392393 0)
(0.192582 0.00417947 0)
(0.191536 0.00443512 0)
(0.190439 0.00469001 0)
(0.189288 0.00494282 0)
(0.188083 0.0051937 0)
(0.186822 0.00544348 0)
(0.185506 0.00569235 0)
(0.184133 0.00594058 0)
(0.182702 0.00618952 0)
(0.181212 0.00644044 0)
(0.179662 0.00669389 0)
(0.178051 0.00695072 0)
(0.176377 0.00721139 0)
(0.17464 0.00747607 0)
(0.172839 0.00774475 0)
(0.170973 0.00801724 0)
(0.169039 0.00829304 0)
(0.167039 0.00857145 0)
(0.164971 0.00885166 0)
(0.162834 0.00913304 0)
(0.160628 0.00941495 0)
(0.158353 0.0096967 0)
(0.156008 0.00997788 0)
(0.153592 0.0102583 0)
(0.151106 0.0105378 0)
(0.14855 0.0108162 0)
(0.145924 0.0110934 0)
(0.143227 0.0113691 0)
(0.140461 0.0116433 0)
(0.137624 0.0119158 0)
(0.134719 0.012186 0)
(0.131745 0.0124534 0)
(0.128703 0.0127175 0)
(0.125595 0.0129774 0)
(0.122421 0.0132325 0)
(0.119182 0.0134823 0)
(0.11588 0.013726 0)
(0.112516 0.0139628 0)
(0.109092 0.0141925 0)
(0.105611 0.0144141 0)
(0.102073 0.014627 0)
(0.0984802 0.014831 0)
(0.0948362 0.0150256 0)
(0.0911431 0.0152098 0)
(0.0874032 0.0153834 0)
(0.0836192 0.015546 0)
(0.0797941 0.0156973 0)
(0.0759309 0.0158372 0)
(0.0720322 0.0159655 0)
(0.0681014 0.0160826 0)
(0.0641429 0.016188 0)
(0.06016 0.0162819 0)
(0.0561556 0.0163648 0)
(0.0521346 0.0164372 0)
(0.0481014 0.0164994 0)
(0.0440603 0.0165528 0)
(0.0400174 0.0165974 0)
(0.0359773 0.0166344 0)
(0.0319459 0.0166617 0)
(0.027931 0.0166807 0)
(0.0239414 0.0166868 0)
(0.0199827 0.0166765 0)
(0.0160695 0.0166467 0)
(0.0122101 0.0165967 0)
(0.00840761 0.0165275 0)
(0.00467338 0.0164462 0)
(0.00100981 0.0163629 0)
(-0.00258168 0.0162842 0)
(-0.00609648 0.0162128 0)
(-0.00952807 0.0161533 0)
(-0.0128675 0.0161055 0)
(-0.0161048 0.0160722 0)
(-0.0192313 0.0160518 0)
(-0.0222388 0.0160463 0)
(-0.0251163 0.0160543 0)
(-0.0278573 0.0160715 0)
(-0.0304573 0.0160925 0)
(-0.0329129 0.0161072 0)
(-0.0352245 0.0161035 0)
(-0.0373945 0.0160646 0)
(-0.039432 0.0159789 0)
(-0.0413434 0.015835 0)
(-0.0431391 0.0156132 0)
(-0.0448278 0.0152824 0)
(-0.0464144 0.0147936 0)
(-0.0479319 0.0140645 0)
(-0.0494405 0.012975 0)
(-0.0509724 0.0114328 0)
(-0.0525475 0.00948872 0)
(-0.0542147 0.00740302 0)
(-0.0560155 0.00558586 0)
(-0.0579525 0.00428593 0)
(-0.0599778 0.0034523 0)
(-0.062037 0.00288584 0)
(-0.0640596 0.00241158 0)
(-0.0659753 0.00193088 0)
(-0.0677486 0.00139134 0)
(-0.0693636 0.000800994 0)
(-0.0708179 0.000198742 0)
(-0.07211 -0.000364307 0)
(-0.0732317 -0.000849184 0)
(-0.0741787 -0.00124272 0)
(-0.0749507 -0.00155418 0)
(-0.0755447 -0.0018068 0)
(-0.0759669 -0.00202622 0)
(-0.0762282 -0.0022296 0)
(-0.0763451 -0.00242649 0)
(-0.0763363 -0.00262449 0)
(-0.0762183 -0.00283125 0)
(-0.0760035 -0.00305466 0)
(-0.0757003 -0.0033045 0)
(-0.0753125 -0.00358571 0)
(-0.074839 -0.00389779 0)
(-0.0742766 -0.00423371 0)
(-0.0736222 -0.00458248 0)
(-0.0728735 -0.00493047 0)
(-0.0720294 -0.00526584 0)
(-0.0710918 -0.00558077 0)
(-0.0700652 -0.00587311 0)
(-0.0689543 -0.00614388 0)
(-0.0677633 -0.00639788 0)
(-0.066496 -0.00664303 0)
(-0.0651544 -0.00688388 0)
(-0.0637398 -0.0071254 0)
(-0.062252 -0.00736934 0)
(-0.060692 -0.00761508 0)
(-0.0590602 -0.00786024 0)
(-0.0573549 -0.00810095 0)
(-0.0555757 -0.00833348 0)
(-0.053724 -0.00855493 0)
(-0.0518018 -0.00876246 0)
(-0.04981 -0.00895457 0)
(-0.0477517 -0.00912915 0)
(-0.0456303 -0.00928413 0)
(-0.0434496 -0.00941806 0)
(-0.0412156 -0.00952917 0)
(-0.0389334 -0.0096154 0)
(-0.0366102 -0.00967266 0)
(-0.0342558 -0.00969913 0)
(-0.0318803 -0.00969257 0)
(-0.0294965 -0.00965141 0)
(-0.0271178 -0.00957457 0)
(-0.0247618 -0.00946317 0)
(-0.022448 -0.00932005 0)
(-0.0201948 -0.00915033 0)
(-0.0180227 -0.00896177 0)
(-0.0159519 -0.00876347 0)
(-0.0140015 -0.00856685 0)
(-0.0121844 -0.008385 0)
(-0.0105144 -0.00822986 0)
(-0.00899594 -0.00811274 0)
(-0.00762823 -0.00804238 0)
(-0.00640563 -0.00802777 0)
(-0.00531271 -0.00807129 0)
(-0.00432913 -0.00815338 0)
(-0.00340792 -0.00822845 0)
(-0.00249169 -0.0083882 0)
(-0.00139209 -0.0089669 0)
(-0.00012873 -0.00755919 0)
(-0.000779308 -0.000403397 0)
(-0.000922053 -0.00160173 0)
(-0.00174558 -0.000576443 0)
(-0.00263833 -0.000443527 0)
(-0.00355201 -0.000541691 0)
(-0.00437265 -0.000621972 0)
(-0.005143 -0.000724029 0)
(-0.00583946 -0.000859943 0)
(-0.00645557 -0.00102567 0)
(-0.00698217 -0.00121967 0)
(-0.00741051 -0.00144068 0)
(-0.00773442 -0.00168793 0)
(-0.007949 -0.00196003 0)
(-0.00805201 -0.00225497 0)
(-0.00804254 -0.0025695 0)
(-0.00792251 -0.00289979 0)
(-0.00769484 -0.00324115 0)
(-0.00736385 -0.00358763 0)
(-0.00693655 -0.00393398 0)
(-0.00642126 -0.00427352 0)
(-0.00582534 -0.00460018 0)
(-0.00515738 -0.00490863 0)
(-0.0044268 -0.0051944 0)
(-0.003641 -0.00545545 0)
(-0.00280745 -0.00569174 0)
(-0.00193329 -0.0059041 0)
(-0.00102298 -0.0060948 0)
(-8.17685e-05 -0.00626388 0)
(0.000888441 -0.00641357 0)
(0.00188574 -0.00654526 0)
(0.00290592 -0.00666007 0)
(0.00394801 -0.0067596 0)
(0.00500897 -0.00684593 0)
(0.00608475 -0.00692081 0)
(0.00717132 -0.00698504 0)
(0.00826897 -0.00703864 0)
(0.0093773 -0.00707985 0)
(0.0104951 -0.00710642 0)
(0.0116277 -0.00711594 0)
(0.0127789 -0.00710648 0)
(0.0139548 -0.00707686 0)
(0.0151621 -0.00702881 0)
(0.016407 -0.00696448 0)
(0.017696 -0.00688938 0)
(0.0190343 -0.00680948 0)
(0.0204256 -0.0067309 0)
(0.0218703 -0.00665995 0)
(0.0233645 -0.00660121 0)
(0.0249029 -0.00655543 0)
(0.0264779 -0.00652588 0)
(0.0280806 -0.00651062 0)
(0.0297096 -0.00651204 0)
(0.0313605 -0.00652637 0)
(0.0330249 -0.00655351 0)
(0.0347009 -0.00659182 0)
(0.0363868 -0.00664113 0)
(0.0380816 -0.00670146 0)
(0.0397836 -0.0067724 0)
(0.0414915 -0.00685322 0)
(0.0432046 -0.00694282 0)
(0.0449215 -0.00703959 0)
(0.0466415 -0.00714197 0)
(0.0483634 -0.00724836 0)
(0.0500859 -0.00735744 0)
(0.0518094 -0.00746816 0)
(0.0535343 -0.0075805 0)
(0.0552602 -0.00769464 0)
(0.0569879 -0.0078103 0)
(0.0587179 -0.00792793 0)
(0.0604508 -0.00804712 0)
(0.0621876 -0.00816887 0)
(0.0639283 -0.00829258 0)
(0.0656739 -0.00841781 0)
(0.0674253 -0.00854462 0)
(0.069183 -0.00867258 0)
(0.0709474 -0.00880134 0)
(0.0727198 -0.00893073 0)
(0.0745011 -0.00906061 0)
(0.0762922 -0.00919093 0)
(0.0780936 -0.00932167 0)
(0.0799053 -0.00945277 0)
(0.0817273 -0.00958379 0)
(0.0835591 -0.00971424 0)
(0.0853999 -0.0098434 0)
(0.0872487 -0.00997024 0)
(0.0891046 -0.0100936 0)
(0.0909665 -0.0102124 0)
(0.0928336 -0.0103256 0)
(0.0947058 -0.0104324 0)
(0.0965832 -0.0105326 0)
(0.0984661 -0.0106261 0)