/*--------------------------------*- C++ -*----------------------------------*\
| =========                 |                                                 |
| \\      /  F ield         | OpenFOAM: The Open Source CFD Toolbox           |
|  \\    /   O peration     | Version:  v2006                                 |
|   \\  /    A nd           | Website:  www.openfoam.com                      |
|    \\/     M anipulation  |                                                 |
\*---------------------------------------------------------------------------*/
FoamFile
{
    version     2.0;
    format      ascii;
    class       volScalarField;
    location    "0";
    object      shifted_f;
}
// * * * * * * * * * * * * * * * * * * * * * * * * * * * * * * * * * * * * * //

dimensions      [0 0 0 0 0 0 0];


internalField   nonuniform List<scalar> 
2500
(
0.000245694
0.000245675
0.000245616
0.000245575
0.000245616
0.000245564
0.000245459
0.000245441
0.000245411
0.000245325
0.000245348
0.000245325
0.00024524
0.000245187
0.000245165
0.000245169
0.000245124
0.000245135
0.000245009
0.000245087
0.000244997
0.000244968
0.000244949
0.000244871
0.00024483
0.000244793
0.000244793
0.000244703
0.00024467
0.000244707
0.000244666
0.000244625
0.000244543
0.000244595
0.000244487
0.000244517
0.000244457
0.000244476
0.000244368
0.000244431
0.000244368
0.000244275
0.000244282
0.000244211
0.000244182
0.000244204
0.000244211
0.000244144
0.00024404
0.00024407
0.000244025
0.000243988
0.000243954
0.000243921
0.000243973
0.000243939
0.000243876
0.000243876
0.000243835
0.000243723
0.000243779
0.000243787
0.00024372
0.000243697
0.000243653
0.000243582
0.000243705
0.000243615
0.000243548
0.000243489
0.000243481
0.000243519
0.000243481
0.000243414
0.000243384
0.000243425
0.000243347
0.000243347
0.000243321
0.000243273
0.000243302
0.000243254
0.00024325
0.000243209
0.000243183
0.000243191
0.000243101
0.000243049
0.000237659
0.000237551
0.000237551
0.000237513
0.00023751
0.000237502
0.000237431
0.000237394
0.000237364
0.000237387
0.000237256
0.000237212
0.000237167
0.000237081
0.000237074
0.000237066
0.000237092
0.000236992
0.000236887
0.000236932
0.000236761
0.000236798
0.000236776
0.000236783
0.000236783
0.000236701
0.000236671
0.000236709
0.000236582
0.000236552
0.0002365
0.000236582
0.000236467
0.000236485
0.000236351
0.000236355
0.000236344
0.000236243
0.000236172
0.000236239
0.000236142
0.000236187
0.000236113
0.000236109
0.000236012
0.000236001
0.000235979
0.000235867
0.000235945
0.000236049
0.000235915
0.000235792
0.000235822
0.000235807
0.000235751
0.0002358
0.000235725
0.000235591
0.000235729
0.000235599
0.000235599
0.000235543
0.000235543
0.000235487
0.000235472
0.000235502
0.000235356
0.000235315
0.000235412
0.000235431
0.000235297
0.000235248
0.000235274
0.000235274
0.000235196
0.000235245
0.000235211
0.000235111
0.000235058
0.000235114
0.000235081
0.000235111
0.000235002
0.000234943
0.00023495
0.000234932
0.000234943
0.000234894
0.00023485
0.000234865
0.000234816
0.000234745
0.000234727
0.000234742
0.000234645
0.00023469
0.000234783
0.00023469
0.000234608
0.00023463
0.000234578
0.000222314
0.000222325
0.000222284
0.000222232
0.000222154
0.000222083
0.000222135
0.000222057
0.000222016
0.000222031
0.000221968
0.000221912
0.000221837
0.000221852
0.0002218
0.000221755
0.000221733
0.000221681
0.000221655
0.000221547
0.000221532
0.000221487
0.000221405
0.000221364
0.000221465
0.00022136
0.000221316
0.000221327
0.000221249
0.000221189
0.000221141
0.0002211
0.00022104
0.00022104
0.000220966
0.00022094
0.000220943
0.000220902
0.000220884
0.00022082
0.000220783
0.000220727
0.000220682
0.000220727
0.00022075
0.000220653
0.000220552
0.000220649
0.000220548
0.000220533
0.000220448
0.000220489
0.000220347
0.000220302
0.000220332
0.000220362
0.000220332
0.000220228
0.000220288
0.000220165
0.000220221
0.000220221
0.000220101
0.000220083
0.000220042
0.000220057
0.000219975
0.000219923
0.000219997
0.000219878
0.00021987
0.000219908
0.000219878
0.000219837
0.000219673
0.000219759
0.000219654
0.000219662
0.000219662
0.000219677
0.000219684
0.000219643
0.000219565
0.000219591
0.000219535
0.000219498
0.000219461
0.000219461
0.000219434
0.000219446
0.000219349
0.000219353
0.000219375
0.000219319
0.000219274
0.000219211
0.000219241
0.000219196
0.000219118
0.000219189
0.000219151
0.000205994
0.000205953
0.000205863
0.000205819
0.000205796
0.000205774
0.000205692
0.000205655
0.000205569
0.000205595
0.000205535
0.00020558
0.000205498
0.000205491
0.000205405
0.000205446
0.000205308
0.000205319
0.000205193
0.000205237
0.000205196
0.000205182
0.000205066
0.000204984
0.000205055
0.000205021
0.000204969
0.000204973
0.00020488
0.000204839
0.000204861
0.000204802
0.000204761
0.000204757
0.000204768
0.000204649
0.000204559
0.000204619
0.000204552
0.000204667
0.000204511
0.000204537
0.000204366
0.000204533
0.000204403
0.000204403
0.000204291
0.000204325
0.000204276
0.000204213
0.000204265
0.000204187
0.000204097
0.000204038
0.000204135
0.00020406
0.000203945
0.000204038
0.000203911
0.000203907
0.000203941
0.000203874
0.000203956
0.000203785
0.00020374
0.000203703
0.000203665
0.000203662
0.000203729
0.000203628
0.000203647
0.000203632
0.00020368
0.00020355
0.000203591
0.000203468
0.000203442
0.000203412
0.000203367
0.000203405
0.00020333
0.000203338
0.0002033
0.000203196
0.000203177
0.000203263
0.000203189
0.000203151
0.000203203
0.000203095
0.000203054
0.000203047
0.000202958
0.000203084
0.00020308
0.00020301
0.000203025
0.000202905
0.000202913
0.000202846
0.000202827
0.000197876
0.000197791
0.000197724
0.00019763
0.000197634
0.000197638
0.000197582
0.000197567
0.000197541
0.000197425
0.000197474
0.000197373
0.000197347
0.00019737
0.000197366
0.000197336
0.000197336
0.000197228
0.000197217
0.000197124
0.000197202
0.00019718
0.000197086
0.000197116
0.000197064
0.000196975
0.000196986
0.0001969
0.000196878
0.000196911
0.00019687
0.00019687
0.000196937
0.000196721
0.000196796
0.000196725
0.000196781
0.00019668
0.000196714
0.000196707
0.000196569
0.000196572
0.000196513
0.000196546
0.000196498
0.000196587
0.000196505
0.000196446
0.000196431
0.000196423
0.000196412
0.000196315
0.00019636
0.000196245
0.000196297
0.00019617
0.000196196
0.000196207
0.000196163
0.000196166
0.000196058
0.000196151
0.000196043
0.000196099
0.000196029
0.000195991
0.000196006
0.000195958
0.000195988
0.000195947
0.000195906
0.000195909
0.000195783
0.000195876
0.000195824
0.000195824
0.000195771
0.000195701
0.000195734
0.000195652
0.000195716
0.000195656
0.000195552
0.000195578
0.000195544
0.000195533
0.000195589
0.000195503
0.000195581
0.00019554
0.00019544
0.000195425
0.000195481
0.000195451
0.000195343
0.00019538
0.00019535
0.000195272
0.00019525
0.000195228
0.000195261
0.000206131
0.00020605
0.000206035
0.000205997
0.000206042
0.000205994
0.00020596
0.00020593
0.000205975
0.000205953
0.000205975
0.000205975
0.00020593
0.000205912
0.000205766
0.000205841
0.000205826
0.000205856
0.00020577
0.000205863
0.000205755
0.000205766
0.000205748
0.000205785
0.000205774
0.000205595
0.000205677
0.00020564
0.000205617
0.000205632
0.000205647
0.000205565
0.000205543
0.000205532
0.000205506
0.000205442
0.000205506
0.000205401
0.000205494
0.000205491
0.000205386
0.000205334
0.000205338
0.000205409
0.000205345
0.000205334
0.000205416
0.000205327
0.000205357
0.000205275
0.000205275
0.00020523
0.000205245
0.000205249
0.0002052
0.000205122
0.000205155
0.000205137
0.000205129
0.000205126
0.000205066
0.000205185
0.000205141
0.000204992
0.0002051
0.000205062
0.000205006
0.000205036
0.000205014
0.000205021
0.000204947
0.000205044
0.000204958
0.000205055
0.00020491
0.000204954
0.000204973
0.000204887
0.000204954
0.000204828
0.000204854
0.000204783
0.000204895
0.000204805
0.00020482
0.000204828
0.000204846
0.000204787
0.000204775
0.000204723
0.000204716
0.00020472
0.000204723
0.000204794
0.000204742
0.000204708
0.000204723
0.000204656
0.000204664
0.000204615
0.000204671
0.000235151
0.000235055
0.000235129
0.000235096
0.000235174
0.000235084
0.000235125
0.00023507
0.000235043
0.000235092
0.00023517
0.000235137
0.000235163
0.00023507
0.000235084
0.000235051
0.000235043
0.000235099
0.00023504
0.000235017
0.00023504
0.000235036
0.000235092
0.000235062
0.00023501
0.000235025
0.000235002
0.000235047
0.000235051
0.000235133
0.000235036
0.000234976
0.000235014
0.000235077
0.000234995
0.000234965
0.000235017
0.000235017
0.000235077
0.000234928
0.000235021
0.000234924
0.000234909
0.000234883
0.000234935
0.000234969
0.000234965
0.000234995
0.000234906
0.000234954
0.000235021
0.000234924
0.000234898
0.000234995
0.000234962
0.000234991
0.000234924
0.000234857
0.000234928
0.00023488
0.000234868
0.000234891
0.000234928
0.000235002
0.000235017
0.000234999
0.000234958
0.000234973
0.00023495
0.000234906
0.000234954
0.000234902
0.000234913
0.000234887
0.000234921
0.000234876
0.000234935
0.000234853
0.000234921
0.000234846
0.000234913
0.000234894
0.00023488
0.00023495
0.000234906
0.000234921
0.000234939
0.000234883
0.000234861
0.00023488
0.000234857
0.000234857
0.000234816
0.000234898
0.000234883
0.000234853
0.000234947
0.000234742
0.000234876
0.000234887
0.000234749
0.000284169
0.000284184
0.000284199
0.000284221
0.00028431
0.000284303
0.000284288
0.000284351
0.000284344
0.000284385
0.000284348
0.000284366
0.000284437
0.000284344
0.000284445
0.000284359
0.00028434
0.000284422
0.000284445
0.000284493
0.000284515
0.000284374
0.000284482
0.000284407
0.000284459
0.000284474
0.000284541
0.000284467
0.000284482
0.000284545
0.000284553
0.000284493
0.000284545
0.000284582
0.00028453
0.000284594
0.000284571
0.000284597
0.000284713
0.000284668
0.000284556
0.000284638
0.000284631
0.000284571
0.000284646
0.000284702
0.000284698
0.000284743
0.000284683
0.000284739
0.000284646
0.000284668
0.000284743
0.00028481
0.000284698
0.000284735
0.000284806
0.00028478
0.000284761
0.000284765
0.000284813
0.000284862
0.000284847
0.000284888
0.000284865
0.000284862
0.00028491
0.000284877
0.000284858
0.00028481
0.000284966
0.000284951
0.000284955
0.000284959
0.000284996
0.000284884
0.000285007
0.00028494
0.000285044
0.000284914
0.000284947
0.000284996
0.000285041
0.000284959
0.000285096
0.000285048
0.000285048
0.0002851
0.000285063
0.000285063
0.000285115
0.000285078
0.000285085
0.000285167
0.000285156
0.000285234
0.000285167
0.000285204
0.000285152
0.000285197
0.000285175
0.000348844
0.000348825
0.000348944
0.0003489
0.000348881
0.000348959
0.000348922
0.000349022
0.000349041
0.000349104
0.000349175
0.00034909
0.000349134
0.000349104
0.00034919
0.000349212
0.000349242
0.000349183
0.000349257
0.000349268
0.000349235
0.000349328
0.000349294
0.000349369
0.000349384
0.00034935
0.000349503
0.000349391
0.000349481
0.000349507
0.000349458
0.000349555
0.000349496
0.000349503
0.00034963
0.000349659
0.000349693
0.00034954
0.000349686
0.000349686
0.000349741
0.000349741
0.000349712
0.000349827
0.000349775
0.00034989
0.000349768
0.000349786
0.000349861
0.00034992
0.000349924
0.000349931
0.000349998
0.000349883
0.000350136
0.000350017
0.000349998
0.000350062
0.000350058
0.000350099
0.000350047
0.000350121
0.000350088
0.000350181
0.000350218
0.000350192
0.000350282
0.000350218
0.000350252
0.000350293
0.000350248
0.000350337
0.00035036
0.000350293
0.000350337
0.0003503
0.000350334
0.000350419
0.000350542
0.000350531
0.000350405
0.000350546
0.000350486
0.000350587
0.000350576
0.000350583
0.000350635
0.000350531
0.000350662
0.000350565
0.000350658
0.000350665
0.000350643
0.000350777
0.000350788
0.000350785
0.000350785
0.000350721
0.000350863
0.000350799
0.000350829
0.000421893
0.000421863
0.000421949
0.000422034
0.000422012
0.000422079
0.000422101
0.000422198
0.000422135
0.000422135
0.000422228
0.000422131
0.000422247
0.000422228
0.000422284
0.000422362
0.000422418
0.000422273
0.000422467
0.000422459
0.000422519
0.000422511
0.000422601
0.000422727
0.000422657
0.000422727
0.000422701
0.000422772
0.000422824
0.000422761
0.000422768
0.000422876
0.000422981
0.000422899
0.000423033
0.000422984
0.000423063
0.000423044
0.000423033
0.000423066
0.000423171
0.000423145
0.00042313
0.000423227
0.000423215
0.000423279
0.000423275
0.000423331
0.000423241
0.000423387
0.000423454
0.000423517
0.000423517
0.00042351
0.000423435
0.000423562
0.000423614
0.000423621
0.000423644
0.000423636
0.000423796
0.000423804
0.000423845
0.0004238
0.000423778
0.000423823
0.000423845
0.000423938
0.000423949
0.000423949
0.000423994
0.000424106
0.000424109
0.000424098
0.000424158
0.00042415
0.000424169
0.000424143
0.000424232
0.000424165
0.000424352
0.000424277
0.000424296
0.000424359
0.0004244
0.000424433
0.000424352
0.000424441
0.00042437
0.000424456
0.000424515
0.000424501
0.000424523
0.000424631
0.000424568
0.000424635
0.000424705
0.000424657
0.000424739
0.000424799
0.000424761
0.000495158
0.000495236
0.000495322
0.0004953
0.000495311
0.000495408
0.00049543
0.000495475
0.000495527
0.000495467
0.000495635
0.000495765
0.000495724
0.000495672
0.000495855
0.000495818
0.000495937
0.000495873
0.000496075
0.000495948
0.000496004
0.000496034
0.000496175
0.000496216
0.000496175
0.000496164
0.000496231
0.00049632
0.000496246
0.000496481
0.000496481
0.000496428
0.000496555
0.000496607
0.000496581
0.0004966
0.000496693
0.000496708
0.000496738
0.000496764
0.000496831
0.000496875
0.00049695
0.000496995
0.000496987
0.000497013
0.000497021
0.000497077
0.000497084
0.000497136
0.000497229
0.000497159
0.000497304
0.000497285
0.00049727
0.000497364
0.000497371
0.00049749
0.000497527
0.00049746
0.000497539
0.000497654
0.000497531
0.000497695
0.00049771
0.000497673
0.000497762
0.000497837
0.000497732
0.000497792
0.000497796
0.000497941
0.000497986
0.000498038
0.000498038
0.00049803
0.000497956
0.000498109
0.000498202
0.000498112
0.00049825
0.000498228
0.000498313
0.000498343
0.000498403
0.00049847
0.000498567
0.000498593
0.000498462
0.00049853
0.000498455
0.000498544
0.000498608
0.000498708
0.000498798
0.000498686
0.000498753
0.000498738
0.000498902
0.000498898
0.000498969
0.000560571
0.000560753
0.000560742
0.000560898
0.000560824
0.000560921
0.000561006
0.000560932
0.000561003
0.000561092
0.000561096
0.000561256
0.000561263
0.000561252
0.000561267
0.000561442
0.000561427
0.000561468
0.000561509
0.000561535
0.000561643
0.00056161
0.000561778
0.0005618
0.000561811
0.000561859
0.000561956
0.00056193
0.000562072
0.000562046
0.00056209
0.000562165
0.000562202
0.000562198
0.000562269
0.000562262
0.000562411
0.000562467
0.000562508
0.00056259
0.000562545
0.000562586
0.000562746
0.000562616
0.000562757
0.000562776
0.000562843
0.000562895
0.000562929
0.000562992
0.000563022
0.000563107
0.000563122
0.000563134
0.000563148
0.000563182
0.000563208
0.000563279
0.000563342
0.000563387
0.00056348
0.00056342
0.000563476
0.000563446
0.000563521
0.000563629
0.000563592
0.000563703
0.000563592
0.000563782
0.000563815
0.000563905
0.000563938
0.000563953
0.000563987
0.000563972
0.000564102
0.000564154
0.000564143
0.000564236
0.000564236
0.000564303
0.000564318
0.000564326
0.000564441
0.000564516
0.000564508
0.000564538
0.000564616
0.000564527
0.000564702
0.000564665
0.000564743
0.000564728
0.000564832
0.000564877
0.000564795
0.000564933
0.000564869
0.00056491
0.000564996
0.000611007
0.000611003
0.000610951
0.000610981
0.000611097
0.000611208
0.000611302
0.000611346
0.000611279
0.000611469
0.000611488
0.0006116
0.000611585
0.000611614
0.000611741
0.000611726
0.000611786
0.000611965
0.000611953
0.000611935
0.000612069
0.000612039
0.000612106
0.000612147
0.000612229
0.000612333
0.000612456
0.00061246
0.000612546
0.00061262
0.000612613
0.000612725
0.00061265
0.000612687
0.000612911
0.00061281
0.000612993
0.00061303
0.000613008
0.000613127
0.000613131
0.000613116
0.000613224
0.000613261
0.000613332
0.000613388
0.000613485
0.000613511
0.000613518
0.000613574
0.000613652
0.00061363
0.000613768
0.000613809
0.000613905
0.000613905
0.000613917
0.000614021
0.000614084
0.000614148
0.000614163
0.000614218
0.000614248
0.000614293
0.000614394
0.00061442
0.000614371
0.00061455
0.000614587
0.000614628
0.000614572
0.00061468
0.000614785
0.000614744
0.000614926
0.000614878
0.000614982
0.000614885
0.000614937
0.000614975
0.000615042
0.000615139
0.00061534
0.000615221
0.00061534
0.000615325
0.000615377
0.000615433
0.000615567
0.000615533
0.000615474
0.000615686
0.0006156
0.000615764
0.000615653
0.000615839
0.000615831
0.000615824
0.000615951
0.00061607
0.000616021
0.000135083
0.000135083
0.000135019
0.000135016
0.0001349
0.000134863
0.000134852
0.000134822
0.000134803
0.000134792
0.000134755
0.000134699
0.00013468
0.000134628
0.000134546
0.000134543
0.000134546
0.000134476
0.000134464
0.000134461
0.000134375
0.000134345
0.000134341
0.000134282
0.000134282
0.000134278
0.000134218
0.000134185
0.000134155
0.00013417
0.000134148
0.000134096
0.000134092
0.000133999
0.000134017
0.000133965
0.000133969
0.000133906
0.000133872
0.000133891
0.000133842
0.000133812
0.000133753
0.000133809
0.000133716
0.000133671
0.000133701
0.00013366
0.000133641
0.00013357
0.000133596
0.000133548
0.000133578
0.000133485
0.000133444
0.0001335
0.000133418
0.00013344
0.000133395
0.00013335
0.000133287
0.000133287
0.000133257
0.000133269
0.000133257
0.000133179
0.000133228
0.000133183
0.000133138
0.000133194
0.000133134
0.000133149
0.000133056
0.000133075
0.000133086
0.000133015
0.000132956
0.000132985
0.000132989
0.000132956
0.000132926
0.000132877
0.00013293
0.000132836
0.000132866
0.000132877
0.00013281
0.00013281
0.000132795
0.000132807
0.000132725
0.000132751
0.000132706
0.000132728
0.000132661
0.000132706
0.000132695
0.000132635
0.000132639
0.000132635
0.000132579
0.000101537
0.000101544
0.00010157
0.000101611
0.000101596
0.000101622
0.0001016
0.00010163
0.000101622
0.000101671
0.000101622
0.000101663
0.000101656
0.000101712
0.000101689
0.000101663
0.000101764
0.0001017
0.000101771
0.000101782
0.000101775
0.000101831
0.000101812
0.000101868
0.00010179
0.000101924
0.000101868
0.000101823
0.000101879
0.000101909
0.000101946
0.000101961
0.000101946
0.000101939
0.000101984
0.000101987
0.000102002
0.000102047
0.000102077
0.000102036
0.000102125
0.000102147
0.000102129
0.000102159
0.000102185
0.000102196
0.000102255
0.000102237
0.000102263
0.000102304
0.000102326
0.000102315
0.000102431
0.000102367
0.000102427
0.000102378
0.000102438
0.000102464
0.000102472
0.000102546
0.000102561
0.000102583
0.000102617
0.000102594
0.000102673
0.000102714
0.000102669
0.000102773
0.000102784
0.00010277
0.0001029
0.000102885
0.000102893
0.000102881
0.000102952
0.000102919
0.000102952
0.000103042
0.000103012
0.000103127
0.000103131
0.000103138
0.000103235
0.000103176
0.000103239
0.000103272
0.000103332
0.000103347
0.000103422
0.000103373
0.00010341
0.000103436
0.000103533
0.000103544
0.0001036
0.000103634
0.00010369
0.000103727
0.000103723
0.000103753
0.000103861
0.000116274
0.000116292
0.000116359
0.000116363
0.000116419
0.000116419
0.00011649
0.000116527
0.000116594
0.000116598
0.000116628
0.000116684
0.000116721
0.000116765
0.000116836
0.00011678
0.000116907
0.000116933
0.000116982
0.000116993
0.000117037
0.000117067
0.000117116
0.000117242
0.000117268
0.000117268
0.000117276
0.000117324
0.000117403
0.000117473
0.000117492
0.000117555
0.000117619
0.000117645
0.000117723
0.000117715
0.00011779
0.000117827
0.000117861
0.000117961
0.000117965
0.000118017
0.000118092
0.000118133
0.00011817
0.000118215
0.000118297
0.0001183
0.000118386
0.00011842
0.000118535
0.00011855
0.000118587
0.000118639
0.000118677
0.000118699
0.000118777
0.000118833
0.000118915
0.000118937
0.000119001
0.000119019
0.000119053
0.000119168
0.000119217
0.000119276
0.000119325
0.000119392
0.00011944
0.000119518
0.000119533
0.000119638
0.000119623
0.000119705
0.000119817
0.000119813
0.000119884
0.000119932
0.000120018
0.000120129
0.000120156
0.000120204
0.000120271
0.000120286
0.000120368
0.00012039
0.000120454
0.000120606
0.000120692
0.000120729
0.000120763
0.000120807
0.00012086
0.000120945
0.000121005
0.000121042
0.000121143
0.000121221
0.00012131
0.000121392
0.000121433
0.000159975
0.00016005
0.000160117
0.00016015
0.00016015
0.000160206
0.000160255
0.000160266
0.000160318
0.000160407
0.000160422
0.000160441
0.000160504
0.000160575
0.000160564
0.000160657
0.000160683
0.000160743
0.000160772
0.000160821
0.000160832
0.000160843
0.000160951
0.000161007
0.000161026
0.000161059
0.000161082
0.000161134
0.000161212
0.000161238
0.000161305
0.000161257
0.000161327
0.000161469
0.000161473
0.000161495
0.000161543
0.000161599
0.000161592
0.000161707
0.0001617
0.000161801
0.000161782
0.00016183
0.000161894
0.000161953
0.00016202
0.000162032
0.000162132
0.000162158
0.000162203
0.000162244
0.0001623
0.000162341
0.000162456
0.000162397
0.000162467
0.000162505
0.000162594
0.00016265
0.00016265
0.000162784
0.000162803
0.000162836
0.000162881
0.000162937
0.000162974
0.000163034
0.000163037
0.00016313
0.000163205
0.000163235
0.000163309
0.000163335
0.000163406
0.000163399
0.000163469
0.000163585
0.000163626
0.000163637
0.000163712
0.000163835
0.000163771
0.000163831
0.00016389
0.000164006
0.00016398
0.000164095
0.000164155
0.000164185
0.000164255
0.000164311
0.000164364
0.000164378
0.000164423
0.000164509
0.000164624
0.000164639
0.000164744
0.000164758
0.000164773
0.000200044
0.000199988
0.000200104
0.000200074
0.000200123
0.000200115
0.000200156
0.000200175
0.000200149
0.000200212
0.000200223
0.000200234
0.000200234
0.000200238
0.000200327
0.000200279
0.000200354
0.000200327
0.000200391
0.000200383
0.000200354
0.000200428
0.000200439
0.000200454
0.000200465
0.000200495
0.000200499
0.000200503
0.000200566
0.000200585
0.000200547
0.00020064
0.000200681
0.000200659
0.000200678
0.000200685
0.000200775
0.000200752
0.000200782
0.00020076
0.000200868
0.000200775
0.000200842
0.000200845
0.000200875
0.000200894
0.000200875
0.00020089
0.000200938
0.000200991
0.000200991
0.000200976
0.000200987
0.000201005
0.000201073
0.000201114
0.000201087
0.000201095
0.000201147
0.000201125
0.000201158
0.000201147
0.000201177
0.000201195
0.000201277
0.000201274
0.000201277
0.000201341
0.00020133
0.000201367
0.000201341
0.000201434
0.000201415
0.000201445
0.000201412
0.00020146
0.000201523
0.000201501
0.000201523
0.000201579
0.000201553
0.00020159
0.000201579
0.000201575
0.000201643
0.000201616
0.000201646
0.000201635
0.000201728
0.000201691
0.000201721
0.000201724
0.000201762
0.000201881
0.000201844
0.000201855
0.000201885
0.0002019
0.000201922
0.0002019
0.00020197
0.000213563
0.000213493
0.000213493
0.000213496
0.000213496
0.000213485
0.000213452
0.000213504
0.000213437
0.000213474
0.000213481
0.000213455
0.000213452
0.000213459
0.000213452
0.000213418
0.000213407
0.000213441
0.000213388
0.000213396
0.000213366
0.000213396
0.000213355
0.000213336
0.000213388
0.000213355
0.00021331
0.000213418
0.000213336
0.000213329
0.000213355
0.000213347
0.000213236
0.000213269
0.000213213
0.000213306
0.000213277
0.000213265
0.00021331
0.000213224
0.000213247
0.000213228
0.00021318
0.000213239
0.00021318
0.000213202
0.000213187
0.000213191
0.00021318
0.000213169
0.000213146
0.000213128
0.00021309
0.000213105
0.000213027
0.000212979
0.000213031
0.000213053
0.000213046
0.000213072
0.00021302
0.000212986
0.000213008
0.000212979
0.000212986
0.000212979
0.000212986
0.000212912
0.000212952
0.000212908
0.00021293
0.000212923
0.000212852
0.000212885
0.000212874
0.000212785
0.000212852
0.000212826
0.000212751
0.000212763
0.000212748
0.000212774
0.000212699
0.00021271
0.000212681
0.00021271
0.000212625
0.000212677
0.000212647
0.000212688
0.000212591
0.000212647
0.000212561
0.000212517
0.000212561
0.000212565
0.000212565
0.000212502
0.000212505
0.000212468
0.000212453
0.000203457
0.000203427
0.000203472
0.000203434
0.000203472
0.000203412
0.00020346
0.000203434
0.00020339
0.000203356
0.000203431
0.000203371
0.0002033
0.0002033
0.000203237
0.000203285
0.000203308
0.000203267
0.000203252
0.000203237
0.000203215
0.000203177
0.0002032
0.000203189
0.000203155
0.000203129
0.000203084
0.000203181
0.000203092
0.000203062
0.000203077
0.000203021
0.000203077
0.000202954
0.000202946
0.000203036
0.000202961
0.000202894
0.000202905
0.000202913
0.000202879
0.000202898
0.000202842
0.000202809
0.00020279
0.000202764
0.000202771
0.000202775
0.000202734
0.000202652
0.000202652
0.000202652
0.000202622
0.000202615
0.000202589
0.000202585
0.000202507
0.000202511
0.000202477
0.000202477
0.000202481
0.000202443
0.000202402
0.000202358
0.000202376
0.000202347
0.000202294
0.000202265
0.000202242
0.000202253
0.000202183
0.000202227
0.000202138
0.000202127
0.000202119
0.000202086
0.000202075
0.000202011
0.000202037
0.000201967
0.000201978
0.000201929
0.000201937
0.000201922
0.000201855
0.000201803
0.00020181
0.000201788
0.000201773
0.000201739
0.00020171
0.000201736
0.000201605
0.000201639
0.000201624
0.000201613
0.000201557
0.000201494
0.000201516
0.000201486
0.000201464
0.000195671
0.000195641
0.000195611
0.000195608
0.000195622
0.000195611
0.000195663
0.000195634
0.000195593
0.000195626
0.000195652
0.00019557
0.000195567
0.000195581
0.000195608
0.000195604
0.000195608
0.000195589
0.000195622
0.000195608
0.000195596
0.000195581
0.000195626
0.000195552
0.000195604
0.000195585
0.000195604
0.000195533
0.000195578
0.000195555
0.000195559
0.00019554
0.000195567
0.00019554
0.000195596
0.000195522
0.000195585
0.000195529
0.0001955
0.000195518
0.00019547
0.000195511
0.000195447
0.00019547
0.000195526
0.000195511
0.000195511
0.000195544
0.000195455
0.000195492
0.000195488
0.00019547
0.000195503
0.000195451
0.000195429
0.000195425
0.000195447
0.000195395
0.000195406
0.000195395
0.000195321
0.000195432
0.000195451
0.00019535
0.000195414
0.000195388
0.000195391
0.000195391
0.000195391
0.000195306
0.000195373
0.00019535
0.000195313
0.000195399
0.000195369
0.00019531
0.000195235
0.00019528
0.000195298
0.000195291
0.000195187
0.000195283
0.000195269
0.00019525
0.000195272
0.000195228
0.000195179
0.000195228
0.000195142
0.000195164
0.000195179
0.000195175
0.000195198
0.000195138
0.000195175
0.000195149
0.000195142
0.000195138
0.000195194
0.000195131
0.000195067
0.000224378
0.000224356
0.000224344
0.000224426
0.000224479
0.000224452
0.000224493
0.000224527
0.000224538
0.000224598
0.000224516
0.000224624
0.000224646
0.000224739
0.000224665
0.000224736
0.000224765
0.000224814
0.000224862
0.000224836
0.000224844
0.000224888
0.000224963
0.000224929
0.000224989
0.000224948
0.000225004
0.000225011
0.000225071
0.000225086
0.000225142
0.000225145
0.000225216
0.00022519
0.000225276
0.000225253
0.000225287
0.000225265
0.000225373
0.000225391
0.000225417
0.000225443
0.000225466
0.000225451
0.000225533
0.000225481
0.00022557
0.000225626
0.000225641
0.000225615
0.000225618
0.000225693
0.000225805
0.00022579
0.000225764
0.000225805
0.000225838
0.000225876
0.000225898
0.00022595
0.000225943
0.000225995
0.000225965
0.000226017
0.000226073
0.000226088
0.000226166
0.000226192
0.000226196
0.000226241
0.000226252
0.000226282
0.000226278
0.000226326
0.000226364
0.000226337
0.000226431
0.000226472
0.000226479
0.000226539
0.00022652
0.000226598
0.000226598
0.000226688
0.000226673
0.000226695
0.000226773
0.000226814
0.000226777
0.000226889
0.000226796
0.000226803
0.00022693
0.000226967
0.000226952
0.000227015
0.000227075
0.000227083
0.000227138
0.000227135
0.000227198
0.000304308
0.000304382
0.000304379
0.000304472
0.000304494
0.000304531
0.000304591
0.000304703
0.000304695
0.000304725
0.00030477
0.000304781
0.000304867
0.000304956
0.000304963
0.00030503
0.000305049
0.000305139
0.000305187
0.000305198
0.000305206
0.000305269
0.000305384
0.00030541
0.00030544
0.000305485
0.000305533
0.000305571
0.000305701
0.000305705
0.000305708
0.000305749
0.000305776
0.000305858
0.000305902
0.00030591
0.000305969
0.000305977
0.000306059
0.000306141
0.000306197
0.00030626
0.000306264
0.000306305
0.000306346
0.000306416
0.000306446
0.000306524
0.000306595
0.000306588
0.00030661
0.000306699
0.000306778
0.00030677
0.000306889
0.000306871
0.00030696
0.000307012
0.000307042
0.000307109
0.000307143
0.00030718
0.000307202
0.000307284
0.000307351
0.000307381
0.000307471
0.000307526
0.00030756
0.000307575
0.000307646
0.000307754
0.000307757
0.000307854
0.000307862
0.000307966
0.000308041
0.000308063
0.000308037
0.000308171
0.000308286
0.000308316
0.000308316
0.000308421
0.000308443
0.000308491
0.000308584
0.000308596
0.000308692
0.000308741
0.000308804
0.000308886
0.000308935
0.000309002
0.000308998
0.000309091
0.00030911
0.000309225
0.000309248
0.000309285
0.000309408
0.000376102
0.000376064
0.000376131
0.000376165
0.000376157
0.000376113
0.000376154
0.00037615
0.000376161
0.000376232
0.000376254
0.000376251
0.000376221
0.000376251
0.000376265
0.000376288
0.000376385
0.000376262
0.000376295
0.000376288
0.000376306
0.000376362
0.000376355
0.000376422
0.000376437
0.000376422
0.000376392
0.000376455
0.000376452
0.000376496
0.000376526
0.000376511
0.000376496
0.000376575
0.000376578
0.000376564
0.000376608
0.000376657
0.000376638
0.000376724
0.000376653
0.000376683
0.000376698
0.000376713
0.000376735
0.000376679
0.000376742
0.000376832
0.000376835
0.000376817
0.000376832
0.000376798
0.000376865
0.000376835
0.000376888
0.000376895
0.000376973
0.000376906
0.000376973
0.000376988
0.000376996
0.00037707
0.000377011
0.000377018
0.000377122
0.000377048
0.00037713
0.00037707
0.000377107
0.00037716
0.000377208
0.000377152
0.000377208
0.000377223
0.000377186
0.000377234
0.000377256
0.000377331
0.00037735
0.000377312
0.000377335
0.000377342
0.000377439
0.000377424
0.00037745
0.000377472
0.000377472
0.000377513
0.000377551
0.000377566
0.000377513
0.000377569
0.000377644
0.000377633
0.000377622
0.000377681
0.000377666
0.000377696
0.000377804
0.000377737
0.000377756
0.000348981
0.000348959
0.000348959
0.000348918
0.000348926
0.000348922
0.00034881
0.000348803
0.00034884
0.000348788
0.000348739
0.000348657
0.000348669
0.000348661
0.000348639
0.000348616
0.00034859
0.000348579
0.000348534
0.000348512
0.00034849
0.000348464
0.000348438
0.000348385
0.000348389
0.000348382
0.000348326
0.000348397
0.000348307
0.000348281
0.000348251
0.000348222
0.000348207
0.000348147
0.000348199
0.000348072
0.000348106
0.000348084
0.00034802
0.000347994