/*--------------------------------*- C++ -*----------------------------------*\
| =========                 |                                                 |
| \\      /  F ield         | OpenFOAM: The Open Source CFD Toolbox           |
|  \\    /   O peration     | Version:  v2006                                 |
|   \\  /    A nd           | Website:  www.openfoam.com                      |
|    \\/     M anipulation  |                                                 |
\*---------------------------------------------------------------------------*/
FoamFile
{
    version     2.0;
    format      ascii;
    class       volScalarField;
    location    "0";
    object      f;
}
// * * * * * * * * * * * * * * * * * * * * * * * * * * * * * * * * * * * * * //

dimensions      [0 0 0 0 0 0 0];


internalField   nonuniform List<scalar> 
2500
(
2.61981e-17
5.88645e-17
-1.74097e-16
-2.40303e-16
4.8127e-16
1.01436e-15
-1.10846e-15
-2.91057e-15
8.28113e-16
7.58242e-15
4.84374e-15
-1.06779e-14
-1.42086e-14
2.09545e-14
7.5159e-14
4.39371e-14
-2.25656e-13
-6.65399e-13
-6.14385e-13
1.90796e-13
1.52845e-12
2.27132e-12
1.75779e-12
-1.96932e-13
-3.21724e-12
-5.93452e-12
-6.56992e-12
-4.06557e-12
1.26858e-12
8.13413e-12
1.47893e-11
1.96329e-11
2.18037e-11
2.12519e-11
1.85939e-11
1.48041e-11
1.08263e-11
7.31444e-12
4.57441e-12
2.64627e-12
1.41198e-12
6.87438e-13
3.01872e-13
1.17635e-13
3.968e-14
1.1344e-14
2.74533e-15
6.21841e-16
1.63524e-16
1.22385e-16
8.19637e-17
-1.08017e-16
-5.20442e-16
4.64657e-16
1.85587e-15
-1.31193e-16
-5.65113e-15
-2.62024e-15
1.26077e-14
1.51315e-14
-1.36735e-14
-3.6421e-14
3.90492e-15
1.09915e-13
8.04858e-14
-5.08601e-13
-1.75069e-12
-2.22981e-12
-1.26418e-12
1.32404e-12
2.98584e-12
2.50992e-12
-8.70853e-13
-7.72893e-12
-1.61705e-11
-2.2796e-11
-2.50077e-11
-2.23364e-11
-1.61742e-11
-8.73152e-12
-2.1915e-12
2.03518e-12
3.65326e-12
3.25808e-12
1.85926e-12
4.04286e-13
-5.81861e-13
-1.00855e-12
-1.02187e-12
-8.18727e-13
-5.54395e-13
-3.29118e-13
-1.71243e-13
-7.76618e-14
-3.02524e-14
-9.83146e-15
-2.53845e-15
-4.93622e-16
-5.97086e-17
-2.6405e-17
1.33864e-16
-6.90546e-16
-8.32446e-16
3.03711e-15
3.53712e-15
-7.23712e-15
-1.37491e-14
1.45866e-14
4.08707e-14
5.84646e-15
-8.03644e-14
-6.67642e-14
1.19418e-13
2.37268e-13
-8.40575e-13
-3.68176e-12
-6.23203e-12
-5.36447e-12
1.14795e-14
5.73674e-12
6.97628e-12
1.59713e-12
-1.46682e-11
-3.88389e-11
-6.27582e-11
-7.75781e-11
-7.90643e-11
-6.79086e-11
-4.87422e-11
-2.75383e-11
-9.47565e-12
2.54413e-12
8.22932e-12
9.15644e-12
7.58077e-12
5.3023e-12
3.31667e-12
1.91468e-12
1.03989e-12
5.44564e-13
2.78798e-13
1.40271e-13
6.81537e-14
3.11436e-14
1.31954e-14
5.1004e-15
1.75185e-15
5.20864e-16
1.34074e-16
3.35462e-17
-2.67585e-16
-2.09654e-15
2.16681e-15
9.62194e-15
-4.32367e-15
-2.85432e-14
-8.31736e-15
7.83545e-14
8.1878e-14
-1.13817e-13
-2.44072e-13
-2.41892e-15
4.02332e-13
-1.17647e-12
-6.94948e-12
-1.4654e-11
-1.59452e-11
-7.07874e-12
8.10177e-12
1.58847e-11
9.89455e-12
-2.37785e-11
-8.22608e-11
-1.49173e-10
-2.01159e-10
-2.22556e-10
-2.10153e-10
-1.71319e-10
-1.20026e-10
-7.02908e-11
-3.17805e-11
-8.03753e-12
2.78924e-12
5.4079e-12
4.33262e-12
2.42208e-12
9.58944e-13
1.58857e-13
-1.56653e-13
-2.07272e-13
-1.58109e-13
-9.56152e-14
-4.98696e-14
-2.2456e-14
-8.48908e-15
-2.68111e-15
-7.15332e-16
-1.7373e-16
-4.29332e-17
-2.70171e-17
-1.78636e-15
-2.95067e-15
1.35191e-14
1.60398e-14
-4.13301e-14
-6.21328e-14
8.41023e-14
2.23224e-13
-4.9319e-14
-5.38953e-13
-4.44243e-13
4.05242e-13
-1.43855e-12
-1.15425e-11
-3.0337e-11
-3.98899e-11
-2.89046e-11
4.16587e-12
3.12012e-11
3.11808e-11
-2.7829e-11
-1.52933e-10
-3.16079e-10
-4.64248e-10
-5.50155e-10
-5.54464e-10
-4.85558e-10
-3.71204e-10
-2.46239e-10
-1.38683e-10
-6.306e-11
-2.0105e-11
-1.34023e-12
3.95528e-12
3.71008e-12
2.16558e-12
9.6686e-13
3.41596e-13
9.40775e-14
2.80861e-14
1.81974e-14
1.65649e-14
1.33419e-14
9.04487e-15
5.03228e-15
2.23962e-15
8.01476e-16
2.16431e-16
4.21253e-17
9.57151e-19
-5.12276e-15
6.82985e-15
3.97623e-14
-2.50671e-14
-1.37786e-13
1.49284e-14
3.81179e-13
3.1656e-13
-8.48996e-13
-1.4913e-12
-4.71951e-13
-1.72844e-12
-1.75489e-11
-5.43291e-11
-8.82439e-11
-8.31569e-11
-2.12964e-11
4.80314e-11
7.26394e-11
-1.33834e-11
-2.55369e-10
-6.15542e-10
-9.85858e-10
-1.24713e-09
-1.32968e-09
-1.23014e-09
-9.98806e-10
-7.11942e-10
-4.42082e-10
-2.3487e-10
-1.03315e-10
-3.49257e-11
-6.89579e-12
1.22964e-12
1.93501e-12
9.48179e-13
2.08618e-13
-8.13823e-14
-1.24311e-13
-8.46255e-14
-4.51928e-14
-2.0028e-14
-7.28413e-15
-2.2457e-15
-8.0137e-16
-4.05057e-16
-2.27282e-16
-1.14873e-16
-4.78082e-17
-2.07023e-17
-5.15674e-15
4.29883e-14
5.75813e-14
-1.87933e-13
-2.3777e-13
4.46219e-13
9.3662e-13
-6.58881e-13
-3.43645e-12
-3.30421e-12
-3.61391e-12
-2.49339e-11
-9.00824e-11
-1.75667e-10
-1.98808e-10
-1.06742e-10
5.00577e-11
1.42822e-10
5.18984e-11
-3.75738e-10
-1.11259e-09
-1.96003e-09
-2.64658e-09
-2.97791e-09
-2.89283e-09
-2.46624e-09
-1.85483e-09
-1.22709e-09
-7.07915e-10
-3.5116e-10
-1.46262e-10
-4.86953e-11
-1.14706e-11
-8.58155e-13
7.28715e-13
3.0669e-13
-3.2831e-14
-1.01377e-13
-6.22916e-14
-2.12226e-14
9.05449e-16
8.07166e-15
7.18431e-15
3.91722e-15
1.67555e-15
5.41225e-16
1.15588e-16
1.18732e-17
-2.86085e-18
2.54017e-18
1.91723e-14
1.22229e-13
-8.49477e-14
-5.71555e-13
1.50187e-13
1.61139e-12
4.99974e-13
-5.34445e-12
-9.76686e-12
-9.96284e-12
-3.52395e-11
-1.37393e-10
-3.20109e-10
-4.26517e-10
-3.32995e-10
-1.91458e-11
2.45661e-10
2.31668e-10
-4.47304e-10
-1.84174e-09
-3.64056e-09
-5.28697e-09
-6.28604e-09
-6.40832e-09
-5.71678e-09
-4.50179e-09
-3.13242e-09
-1.91657e-09
-1.02273e-09
-4.70923e-10
-1.8348e-10
-5.82832e-11
-1.42306e-11
-2.264e-12
-1.58471e-13
-1.54804e-13
-1.94009e-13
-1.23518e-13
-5.39713e-14
-1.40357e-14
1.95105e-15
4.45494e-15
2.05781e-15
4.41098e-16
-2.32847e-16
-3.02756e-16
-1.66335e-16
-6.85782e-17
-2.12958e-17
-1.98516e-18
1.03867e-13
1.61932e-13
-6.73555e-13
-9.02057e-13
1.85496e-12
3.14543e-12
-5.8366e-12
-1.98919e-11
-2.66741e-11
-5.31863e-11
-1.99104e-10
-5.22985e-10
-8.42226e-10
-8.23205e-10
-2.9824e-10
3.36991e-10
5.64665e-10
-3.70957e-10
-2.82217e-09
-6.39521e-09
-1.00448e-08
-1.26475e-08
-1.35164e-08
-1.25938e-08
-1.0348e-08
-7.52457e-09
-4.83282e-09
-2.72626e-09
-1.34083e-09
-5.69539e-10
-2.051e-10
-6.05392e-11
-1.41792e-11
-2.55491e-12
-5.00284e-13
-2.80595e-13
-1.64489e-13
-6.36843e-14
-8.21245e-15
1.19368e-14
1.242e-14
6.41287e-15
2.39401e-15
4.68176e-16
-1.20466e-16
-9.77116e-17
-4.01138e-17
-4.3322e-18
5.49149e-18
7.96158e-18
2.71857e-13
-2.9434e-13
-2.01252e-12
3.84254e-13
5.80341e-12
-3.07649e-12
-3.30433e-11
-6.06039e-11
-9.70259e-11
-2.87306e-10
-8.20297e-10
-1.53636e-09
-1.7847e-09
-1.06703e-09
2.31478e-10
1.05732e-09
3.90673e-11
-4.03264e-09
-1.08241e-08
-1.84891e-08
-2.46486e-08
-2.75806e-08
-2.675e-08
-2.28431e-08
-1.72723e-08
-1.15641e-08
-6.83184e-09
-3.54207e-09
-1.59792e-09
-6.20671e-10
-2.0338e-10
-5.40169e-11
-1.12805e-11
-1.9406e-12
-4.58328e-13
-2.16588e-13
-8.33702e-14
-1.09871e-14
1.53626e-14
1.55877e-14
7.11538e-15
1.84987e-15
-3.62496e-16
-7.46724e-16
-4.22215e-16
-1.75584e-16
-4.69748e-17
-6.28751e-19
5.12833e-18
3.13228e-18
3.06633e-13
-2.17521e-12
-3.38252e-12
5.70041e-12
6.12664e-12
-4.23869e-11
-1.17215e-10
-1.88384e-10
-4.28539e-10
-1.217e-09
-2.60537e-09
-3.55824e-09
-2.94564e-09
-5.56075e-10
1.66429e-09
1.31944e-09
-4.74781e-09
-1.69181e-08
-3.23573e-08
-4.62426e-08
-5.44645e-08
-5.51454e-08
-4.89203e-08
-3.83652e-08
-2.6651e-08
-1.63679e-08
-8.85962e-09
-4.20304e-09
-1.72607e-09
-6.04811e-10
-1.75859e-10
-3.97449e-11
-6.63821e-12
-8.9041e-13
-1.98461e-13
-6.1717e-14
5.39052e-15
2.81132e-14
2.43872e-14
1.11445e-14
3.03085e-15
-3.70056e-16
-9.91759e-16
-5.3913e-16
-1.9412e-16
-2.06693e-17
2.85429e-17
2.00185e-17
9.43998e-18
2.49189e-18
-6.88669e-13
-6.52325e-12
-2.2448e-12
1.56672e-11
-2.88843e-11
-1.77582e-10
-3.46364e-10
-6.33249e-10
-1.65409e-09
-3.91829e-09
-6.41813e-09
-6.73567e-09
-3.33701e-09
1.65369e-09
3.85458e-09
-3.13686e-09
-2.2328e-08
-5.08665e-08
-8.04067e-08
-1.01522e-07
-1.08563e-07
-1.00949e-07
-8.25457e-08
-5.96209e-08
-3.80118e-08
-2.13374e-08
-1.05273e-08
-4.53643e-09
-1.67451e-09
-5.16775e-10
-1.26921e-10
-2.17837e-11
-1.96254e-12
9.96223e-14
1.03837e-13
7.26451e-14
5.30448e-14
3.52544e-14
1.50745e-14
3.28884e-15
-1.33885e-15
-1.8939e-15
-9.99005e-16
-3.57143e-16
-4.3517e-17
4.63512e-17
3.11724e-17
1.34308e-17
3.34694e-18
-1.59267e-18
-4.44212e-12
-1.37272e-11
4.35937e-12
2.26739e-12
-1.84916e-10
-5.40035e-10
-9.63421e-10
-2.07373e-09
-5.16465e-09
-1.0022e-08
-1.29104e-08
-9.85946e-09
-1.32875e-09
6.07354e-09
1.88423e-09
-2.32225e-08
-6.93289e-08
-1.25262e-07
-1.73427e-07
-1.98912e-07
-1.96254e-07
-1.69294e-07
-1.28378e-07
-8.56221e-08
-5.00666e-08
-2.55783e-08
-1.14126e-08
-4.41225e-09
-1.43135e-09
-3.71328e-10
-6.89552e-11
-5.50887e-12
1.35688e-12
7.73309e-13
3.18815e-13
1.16856e-13
5.05167e-14
2.01249e-14
3.6658e-15
-2.42197e-15
-2.85001e-15
-1.39795e-15
-4.19236e-16
2.10177e-17
1.17518e-16
6.81233e-17
2.72237e-17
5.54927e-18
-1.05312e-18
-1.94524e-18
-1.45721e-11
-2.3472e-11
6.14336e-12
-1.37326e-10
-6.7374e-10
-1.45697e-09
-2.72441e-09
-6.25931e-09
-1.35327e-08
-2.10711e-08
-2.13891e-08
-1.02242e-08
4.95949e-09
9.07994e-09
-1.79097e-08
-8.33596e-08
-1.76272e-07
-2.70246e-07
-3.35829e-07
-3.54203e-07
-3.24694e-07
-2.60972e-07
-1.84029e-07
-1.13468e-07
-6.07693e-08
-2.80883e-08
-1.11956e-08
-3.80229e-09
-1.0385e-09
-2.03265e-10
-1.78867e-11
5.0913e-12
2.93369e-12
1.12244e-12
2.99855e-13
6.60329e-14
2.16199e-14
1.6229e-15
-4.69488e-15
-4.33759e-15
-1.97962e-15
-5.12248e-16
1.00503e-16
2.02683e-16
1.07858e-16
3.66282e-17
3.37359e-18
-5.00247e-18
-3.28994e-18
-1.26263e-18
-3.92762e-11
-3.99391e-11
-1.09694e-10
-7.06914e-10
-1.99832e-09
-3.8433e-09
-7.76518e-09
-1.69384e-08
-3.01666e-08
-3.75247e-08
-2.77975e-08
-3.75476e-09
1.50411e-08
-6.05339e-09
-8.89874e-08
-2.28747e-07
-3.90637e-07
-5.26277e-07
-5.94907e-07
-5.80053e-07
-4.94945e-07
-3.70766e-07
-2.4302e-07
-1.38387e-07
-6.76656e-08
-2.80283e-08
-9.77911e-09
-2.80459e-09
-5.85116e-10
-5.6548e-11
1.46278e-11
9.14127e-12
3.46934e-12
8.14709e-13
7.11308e-14
6.72016e-15
-8.86701e-15
-9.75607e-15
-6.42311e-15
-2.5834e-15
-4.96303e-16
2.79445e-16
3.43464e-16
1.69553e-16
4.94433e-17
-6.65666e-19
-1.01402e-17
-5.56313e-18
-1.9824e-18
1.17064e-19
-1.01117e-10
-1.56365e-10
-6.10407e-10
-2.28723e-09
-5.14782e-09
-9.77454e-09
-2.0162e-08
-3.89554e-08
-5.71684e-08
-5.62244e-08
-2.72241e-08
1.22234e-08
1.44535e-08
-7.00069e-08
-2.57098e-07
-5.12292e-07
-7.61103e-07
-9.28548e-07
-9.67881e-07
-8.77243e-07
-6.97314e-07
-4.85951e-07
-2.95123e-07
-1.54618e-07
-6.85703e-08
-2.5052e-08
-7.37575e-09
-1.63759e-09
-1.85299e-10
3.66376e-11
2.60833e-11
9.93071e-12
2.192e-12
2.01358e-14
-6.75324e-14
-4.62286e-14
-2.22622e-14
-9.3917e-15
-3.06318e-15
-3.07547e-16
5.51871e-16
5.13917e-16
2.33833e-16
5.26546e-17
-1.46916e-17
-2.00704e-17
-9.77385e-18
-2.87207e-18
-1.37316e-19
6.6517e-19
-2.52838e-10
-4.67772e-10
-1.71563e-09
-5.35869e-09
-1.11118e-08
-2.10986e-08
-4.21576e-08
-7.27509e-08
-9.29717e-08
-7.55972e-08
-1.55333e-08
3.57901e-08
1.09108e-09
-1.8332e-07
-5.21666e-07
-9.32189e-07
-1.28302e-06
-1.4671e-06
-1.43763e-06
-1.22297e-06
-9.08144e-07
-5.87316e-07
-3.28564e-07
-1.57159e-07
-6.24425e-08
-1.95574e-08
-4.50029e-09
-5.86716e-10
7.45404e-11
6.94484e-11
2.68557e-11
5.84826e-12
-2.07182e-13
-3.37459e-13
-1.65261e-13
-5.38728e-14
-1.26628e-14
-2.3124e-15
4.99896e-16
1.01867e-15
7.18831e-16
2.97092e-16
4.44129e-17
-3.85177e-17
-3.39281e-17
-1.45617e-17
-3.27813e-18
6.59677e-19
1.00843e-18
5.06496e-19
-3.2682e-10
-3.07941e-10
-1.85993e-09
-7.67443e-09
-1.57654e-08
-2.86691e-08
-5.95477e-08
-1.09924e-07
-1.41736e-07
-1.02947e-07
8.60814e-09
1.14723e-07
1.04393e-07
-1.45119e-07
-6.5397e-07
-1.27418e-06
-1.78418e-06
-2.01843e-06
-1.92094e-06
-1.56173e-06
-1.09062e-06
-6.52785e-07
-3.33234e-07
-1.43484e-07
-4.99027e-08
-1.2646e-08
-1.82671e-09
1.19976e-10
1.72688e-10
6.80904e-11
1.5278e-11
-7.19021e-13
-1.16654e-12
-5.13337e-13
-1.33785e-13
-1.29088e-14
3.04808e-15
3.20424e-15
1.94615e-15
9.31522e-16
3.34474e-16
1.20958e-17
-7.61015e-17
-5.25017e-17
-1.95065e-17
-2.60279e-18
2.23213e-18
1.88336e-18
7.98517e-19
6.77664e-20
1.76062e-09
5.81446e-09
9.22662e-09
6.98167e-09
1.2969e-08
2.1723e-08
-1.95148e-08
-1.39778e-07
-2.5402e-07
-1.57454e-07
1.42369e-07
6.23333e-07
9.91128e-07
8.82396e-07
1.89198e-07
-8.25496e-07
-1.75349e-06
-2.26771e-06
-2.24601e-06
-1.80576e-06
-1.20066e-06
-6.62824e-07
-3.04102e-07
-1.14865e-07
-3.33371e-08
-5.87453e-09
5.63592e-11
4.10093e-10
1.664e-10
3.94711e-11
-1.22127e-12
-3.47033e-12
-1.44803e-12
-3.27776e-13
1.48909e-15
2.18909e-14
1.08798e-14
3.87137e-15
1.08677e-15
2.97043e-16
-5.91874e-17
-1.27137e-16
-7.31612e-17
-2.23944e-17
5.85505e-19
5.16312e-18
3.25458e-18
1.1212e-18
1.35714e-19
-2.12665e-19
1.71679e-08
4.20904e-08
7.21345e-08
1.0705e-07
2.01851e-07
2.93206e-07
1.58898e-07
-2.50891e-07
-5.32703e-07
-2.1644e-07
1.06323e-06
3.04272e-06
4.7616e-06
5.19806e-06
4.09117e-06
1.99856e-06
-1.80707e-07
-1.67621e-06
-2.16933e-06
-1.85571e-06
-1.20037e-06
-6.08361e-07
-2.44719e-07
-7.71024e-08
-1.65539e-08
-7.71954e-10
9.13076e-10
3.98899e-10
1.02504e-10
-3.60297e-13
-9.51607e-12
-3.79117e-12
-7.68776e-13
6.27609e-14
7.751e-14
3.11376e-14
7.83647e-15
9.27784e-16
1.20668e-17
-2.29074e-16
-1.99743e-16
-9.36016e-17
-2.13305e-17
7.19935e-18
9.58914e-18
4.8197e-18
1.28017e-18
-1.2175e-19
-3.26048e-19
-1.69733e-19
9.02628e-08
1.91812e-07
3.1911e-07
5.21425e-07
9.14239e-07
1.11682e-06
4.93846e-07
-7.94659e-07
-1.10452e-06
6.8464e-07
5.48131e-06
1.18111e-05
1.67476e-05
1.79736e-05
1.52359e-05
1.00095e-05
4.47794e-06
4.35976e-07
-1.45123e-06
-1.64002e-06
-1.07457e-06
-4.96765e-07
-1.67721e-07
-3.91229e-08
-3.44439e-09
1.86456e-09
9.43584e-10
2.64296e-10
8.87886e-12
-2.44606e-11
-9.45239e-12
-1.78365e-12
2.29475e-13
2.21753e-13
8.1961e-14
1.65619e-14
-2.44022e-16
-1.00708e-15
-6.81389e-16
-3.26784e-16
-1.09635e-16
-1.27078e-17
1.82638e-17
1.54921e-17
6.22144e-18
9.59675e-19
-6.66609e-19
-6.33474e-19
-2.59561e-19
-1.03814e-20
3.75656e-07
7.13751e-07
1.14969e-06
1.92021e-06
3.00133e-06
2.87549e-06
4.05156e-07
-2.37773e-06
-1.59679e-06
6.70403e-06
2.19897e-05
3.85426e-05
4.90964e-05
4.96722e-05
4.10592e-05
2.74716e-05
1.41129e-05
4.66802e-06
2.74316e-08
-1.1506e-06
-8.39007e-07
-3.50196e-07
-9.04794e-08
-9.51892e-09
3.74045e-09
2.25484e-09
6.70556e-10
4.07136e-11
-5.93017e-11
-2.26939e-11
-4.14891e-12
6.10012e-13
5.70147e-13
2.05944e-13
3.80555e-14
-3.9435e-15
-4.12159e-15
-1.94581e-15
-5.98912e-16
-1.02188e-16
1.54048e-17
3.68026e-17
2.26126e-17
6.9247e-18
-2.01585e-19
-1.61615e-18
-1.04569e-18
-3.24758e-19
-1.86222e-20
7.89273e-20
1.3746e-06
2.3739e-06
3.7245e-06
6.07529e-06
8.08742e-06
5.50354e-06
-2.03418e-06
-5.55157e-06
3.87308e-06
3.30191e-05
7.43351e-05
0.000110745
0.000127442
0.000119885
9.35711e-05
5.99779e-05
3.04458e-05
1.12002e-05
2.15393e-06
-4.65704e-07
-5.39393e-07
-1.98923e-07
-2.89453e-08
6.92276e-09
5.23749e-09
1.66125e-09
1.48772e-10
-1.34745e-10
-5.29402e-11
-1.00355e-11
1.38745e-12
1.39138e-12
5.13677e-13
9.54488e-14
-1.36696e-14
-1.31789e-14
-5.40691e-15
-1.22889e-15
4.74391e-18
1.04789e-16
7.34465e-17
3.08059e-17
6.29263e-18
-2.47358e-18
-2.99553e-18
-1.44804e-18
-2.98952e-19
9.14632e-20
1.19048e-19
5.02362e-20
4.57681e-06
7.29992e-06
1.11794e-05
1.70238e-05
1.81401e-05
6.169e-06
-9.93751e-06
-7.61901e-06
3.69339e-05
0.000122843
0.000219733
0.000287051
0.000300936
0.000261863
0.000190008
0.000113517
5.41685e-05
1.94468e-05
4.52504e-06
2.5214e-07
-2.43619e-07
-7.37998e-08
7.40167e-09
1.07826e-08
3.71432e-09
4.81383e-10
-2.7459e-10
-1.2091e-10
-2.59368e-11
2.81876e-12
3.29915e-12
1.30866e-12
2.5169e-13
-4.03935e-14
-3.85454e-14
-1.42755e-14
-2.40926e-15
4.8393e-16
3.77357e-16
1.52897e-16
3.74914e-17
2.44944e-18
-6.37669e-18
-4.77103e-18
-1.64922e-18
-5.37955e-20
3.05005e-19
2.09703e-19
7.13545e-20
-9.93749e-21
1.3972e-05
2.08757e-05
3.09932e-05
4.22585e-05
3.33825e-05
-3.60601e-06
-2.60272e-05
1.86361e-05
0.000166482
0.000382209
0.000579772
0.000679943
0.000654251
0.000525499
0.000351202
0.000192283
8.38736e-05
2.79157e-05
6.50807e-06
7.96503e-07
-2.19167e-08
4.03996e-09
1.8668e-08
7.21152e-09
1.16523e-09
-4.97351e-10
-2.8319e-10
-6.63271e-11
5.30103e-12
8.06247e-12
3.36825e-12
6.38655e-13
-1.195e-13
-1.04763e-13
-3.547e-14
-4.12394e-15
2.10894e-15
1.1419e-15
3.23138e-16
2.81698e-17
-1.15348e-17
-1.32096e-17
-6.61282e-18
-1.40051e-18
4.92626e-19
6.24928e-19
2.97813e-19
5.9995e-20
-1.69272e-20
-2.86479e-20
3.93474e-05
5.55409e-05
7.87346e-05
9.15794e-05
4.39778e-05
-3.84003e-05
-3.97972e-05
0.000161848
0.000569217
0.00104389
0.00139182
0.00148702
0.00131878
0.000975537
0.000596126
0.00029526
0.000115349
3.44486e-05
7.43837e-06
1.00323e-06
8.48991e-08
3.19029e-08
1.32647e-08
2.16563e-09
-1.0136e-09
-6.91135e-10
-1.63622e-10
1.18984e-11
2.00279e-11
8.38227e-12
1.50534e-12
-3.59906e-13
-2.61243e-13
-8.11526e-14
-5.74141e-15
6.44575e-15
2.95617e-15
6.51047e-16
-3.86053e-17
-5.44729e-17
-2.70993e-17
-8.18048e-18
-4.5839e-19
1.3456e-18
9.8146e-19
3.24458e-19
2.61878e-21
-6.2184e-20
-4.11713e-20
-8.75227e-21
0.000103221
0.000138055
0.000182509
0.000169421
1.82574e-05
-0.000112107
5.07336e-05
0.000689003
0.00165976
0.00258257
0.00309288
0.00303381
0.00247985
0.00168187
0.000932186
0.000412597
0.000141824
3.68599e-05
6.91856e-06
8.40192e-07
8.71723e-08
2.4149e-08
3.86549e-09
-2.17331e-09
-1.60605e-09
-3.85359e-10
2.8784e-11
4.5655e-11
1.92967e-11
3.3317e-12
-9.45359e-13
-6.16033e-13
-1.76532e-13
-4.72531e-15
1.7145e-14
6.92157e-15
1.16451e-15
-2.70499e-16
-1.7191e-16
-5.5382e-17
-7.61044e-18
1.77937e-18
2.54405e-18
1.2785e-18
2.33317e-19
-1.15946e-19
-1.25659e-19
-5.46055e-20
-1.05281e-20
8.46209e-21
0.000254741
0.000322073
0.00038581
0.000257816
-0.000108948
-0.000203748
0.00056579
0.00226351
0.00432265
0.00590904
0.00644546
0.00582154
0.00437175
0.00269919
0.00134308
0.000524156
0.000155526
3.38707e-05
5.07428e-06
4.43394e-07
3.36427e-08
3.59576e-09
-4.476e-09
-3.32325e-09
-8.21903e-10
5.01702e-11
9.70202e-11
4.20099e-11
7.37108e-12
-2.04718e-12
-1.38549e-12
-3.77223e-13
1.87619e-15
4.23287e-14
1.54345e-14
1.94941e-15
-9.0917e-16
-4.60131e-16
-1.13279e-16
4.46374e-19
7.89311e-18
4.63023e-18
1.44724e-18
-1.98196e-20
-2.88157e-19
-1.86254e-19
-5.4326e-20
2.78635e-21
1.26799e-20
7.55614e-21
0.00059294
0.000704613
0.000730685
0.000259253
-0.00041395
5.80651e-06
0.00242925
0.00635938
0.0102785
0.0126399
0.0126799
0.0105545
0.00724561
0.00403462
0.00177871
0.000602342
0.00015046
2.587e-05
2.58511e-06
3.93595e-08
-2.55075e-08
-1.45785e-08
-6.48643e-09
-1.52395e-09
8.46214e-11
2.12052e-10
8.87752e-11
1.55897e-11
-4.25456e-12
-3.03568e-12
-7.95651e-13
1.95477e-14
9.75478e-14
3.25911e-14
2.95745e-15
-2.46223e-15
-1.09788e-15
-2.19327e-16
2.81085e-17
2.40046e-17
8.92129e-18
1.52211e-18
-4.45575e-19
-4.96763e-19
-2.24403e-19
-2.81917e-20
2.67441e-20
2.34633e-20
9.5374e-21
-5.21467e-22
0.00129626
0.00143408
0.00120948
-3.80273e-05
-0.000880911
0.00145226
0.00775985
0.0158737
0.0225756
0.0254187
0.0236033
0.0180936
0.011288
0.00560681
0.00215489
0.000619803
0.00012527
1.51013e-05
3.93322e-07
-1.99717e-07
-6.92892e-08
-1.60888e-08
-2.83011e-09
2.06999e-10
4.88539e-10
1.85819e-10
3.19078e-11
-8.99431e-12
-6.48669e-12
-1.62915e-12
7.65974e-14
2.13867e-13
6.50386e-14
3.4217e-15
-5.99924e-15
-2.4132e-15
-3.88228e-16
1.08455e-16
6.44772e-17
1.76869e-17
8.39114e-19
-1.27246e-18
-7.65887e-19
-2.20504e-19
2.88177e-20
6.01859e-20
3.34075e-20
8.05149e-21
-1.29068e-21
-3.24098e-21
0.00264515
0.00268728
0.00169721
-0.00096656
-0.00101191
0.00668539
0.0209286
0.0360138
0.0462314
0.0482239
0.0415821
0.029287
0.0164868
0.00721093
0.00236894
0.000560367
8.50888e-05
4.93812e-06
-8.16318e-07
-2.90915e-07
-5.50753e-08
-5.67163e-09
6.81001e-10
1.1228e-09
3.73838e-10
6.2868e-11
-1.86682e-11
-1.31755e-11
-3.23334e-12
1.94386e-13
4.44683e-13
1.2532e-13
2.19542e-15
-1.34011e-14
-5.04654e-15
-6.37428e-16
3.11448e-16
1.57852e-16
3.48468e-17
-2.20477e-18
-3.2089e-18
-1.24164e-18
-1.61926e-19
1.18136e-19
9.81009e-20
3.71161e-20
1.46713e-21
-6.30975e-21
-4.50561e-21
-1.0715e-21
0.00501692
0.00460138
0.00168587
-0.00278572
0.00142663
0.0214564
0.0501153
0.0755481
0.0890952
0.0866736
0.0693607
0.0446569
0.0224747
0.00852253
0.00233209
0.000429864
4.10416e-05
-1.67645e-06
-1.07763e-06
-2.29914e-07
-1.23147e-08
2.59701e-09
2.43554e-09
6.81712e-10
9.70662e-11
-3.53855e-11
-2.53822e-11
-6.22174e-12
3.84332e-13
9.01762e-13
2.46897e-13
-5.90337e-16
-2.84606e-14
-1.00347e-14
-9.1635e-16
7.83359e-16
3.48302e-16
5.99817e-17
-1.27266e-17
-7.96159e-18
-2.11752e-18
3.27462e-20
2.6035e-19
1.33672e-19
2.60155e-20
-1.23032e-20
-1.314e-20
-5.75462e-21
-1.03561e-21
1.04099e-21
0.00883275
0.00704098
0.000284845
-0.00508021
0.0120872
0.0573191
0.109627
0.148634
0.163072
0.148281
0.109661
0.0639966
0.0284199
0.00916099
0.00201135
0.000260012
6.17462e-06
-3.76617e-06
-9.24093e-07
-4.46359e-08
1.3595e-08
5.88927e-09
1.25735e-09
6.50893e-11
-7.76816e-11
-4.91768e-11
-1.192e-11
9.31863e-13
1.91479e-12
5.34569e-13
2.59004e-15
-6.12973e-14
-1.99643e-14
-1.15302e-15
1.87195e-15
7.25032e-16
8.73458e-17
-4.22437e-17
-1.85621e-17
-3.3608e-18
6.44005e-19
5.49295e-19
1.77699e-19
-2.6768e-21
-3.17693e-20
-1.91804e-20
-4.75197e-21
9.19209e-22
1.60954e-21
7.54638e-22
0.0144013
0.00943807
-0.00378937
-0.00555981
0.0440789
0.135458
0.222775
0.277157
0.285435
0.242436
0.164518
0.0859676
0.0330749
0.00881706
0.00145925
9.92388e-05
-1.11363e-05
-3.42582e-06
-2.60113e-07
6.36602e-08
1.93121e-08
2.40318e-09
-4.39525e-10
-2.74303e-10
-1.01535e-10
-2.21544e-11
3.19505e-12
4.18943e-12
1.12065e-12
-1.51592e-14
-1.38688e-13
-4.19223e-14
-1.14775e-15
4.38618e-15
1.46662e-15
8.85944e-17
-1.17997e-16
-4.02519e-17
-4.05736e-18
2.4684e-18
1.1622e-18
2.31517e-19
-5.87431e-20
-5.54479e-20
-2.08591e-20
2.73138e-23
4.17434e-21
2.69139e-21
8.28037e-22
-2.7089e-22
0.0216708
0.0106027
-0.0114581
0.00603402
0.12306
0.290531
0.424443
0.49262
0.479479
0.37957
0.234234
0.107832
0.0350492
0.00740619
0.000814065
-8.18838e-06
-1.29614e-05
-1.89246e-06
2.21382e-07
6.80103e-08
4.47399e-09
-2.65338e-09
-1.07428e-09
-2.01702e-10
-2.62423e-11
1.2703e-11
8.8591e-12
1.91863e-12
-2.1786e-13
-3.1052e-13
-8.1757e-14
2.87073e-15
1.01309e-14
2.79941e-15
-4.14276e-17
-3.0067e-16
-8.13847e-17
-1.20277e-19
7.47393e-18
2.50937e-18
2.58804e-19
-1.73384e-19
-8.90247e-20
-1.66123e-20
8.22553e-21
7.58779e-21
2.89116e-21
1.27496e-22
-5.06554e-22
-3.63378e-22
0.0298734
0.00798829
-0.021474
0.0491341
0.291532
0.572687
0.761335
0.836331
0.773193
0.568795
0.315949
0.12557
0.0333021
0.00518372
0.000255868
-4.53128e-05
-9.62306e-06
2.97705e-07
2.2942e-07
1.23779e-08
-8.74406e-09
-4.10179e-09
-5.74656e-10
2.43571e-11
4.73048e-11
1.76464e-11
2.32739e-12
-9.02392e-13
-6.40225e-13
-1.29897e-13
2.20374e-14
2.144e-14
4.61027e-15
-6.5473e-16
-6.85202e-16
-1.43507e-16
1.94412e-17
1.9563e-17
4.78156e-18
-5.99047e-20
-4.52624e-19
-1.478e-19
-3.95672e-21
1.89246e-20
9.78294e-21
1.43046e-21
-1.15601e-21
-1.02278e-21
-4.01992e-22
5.30413e-23
0.0371637
-0.000791794
-0.0282494
0.161091
0.611063
1.04469
1.28843
1.35589
1.19466
0.813611
0.402117
0.134553
0.0276907
0.00272955
-7.27703e-05
-3.87851e-05
-2.0262e-06
8.51182e-07
8.47747e-08
-2.69873e-08
-1.60959e-08
-2.48661e-09
2.38822e-10
1.51974e-10
3.55298e-11
1.57036e-12
-2.26936e-12
-1.13354e-12
-1.54573e-13
6.72699e-14
3.91099e-14
5.80475e-15
-2.16005e-15
-1.2899e-15
-1.81285e-16
7.78199e-17
4.19539e-17
6.61029e-18
-1.59466e-18
-1.03851e-18
-2.13428e-19
3.2958e-20
3.38534e-20
9.72265e-21
-1.60727e-21
-2.67306e-21
-1.27735e-21
-2.01309e-22
1.2812e-22
1.39402e-22
0.040901
-0.0173199
-0.013007
0.397976
1.15671
1.77358
2.06205
2.09892
1.76484
1.10701
0.479759
0.130862
0.0193005
0.000741324
-0.000149563
-2.20205e-05
2.96587e-06
4.20967e-07
-8.7741e-08
-6.16918e-08
-9.62094e-09
1.02744e-09
4.70915e-10
8.39248e-11
-3.13215e-12
-5.29383e-12
-1.96038e-12
-1.51354e-13
1.46231e-13
6.72302e-14
6.17944e-15
-4.90683e-15
-2.08656e-15
-1.28836e-16
1.94596e-16
7.31362e-17
3.72155e-18
-5.69372e-18
-2.05087e-18
-1.86863e-19
1.41425e-19
6.15305e-20
7.69244e-21
-6.00311e-21
-3.93467e-21
-9.56215e-22
2.53523e-22
3.52214e-22
1.67521e-22
2.77564e-24
0.0386134
-0.0397876
0.0537468
0.831092
2.00945
2.82401
3.13774
3.10998
2.49155
1.42801
0.531761
0.113001
0.0102754
-0.000304873
-0.00010494
3.83953e-06
1.85805e-06
-2.32778e-07
-1.82182e-07
-3.5089e-08
3.21757e-09
1.36879e-09
2.22127e-10
-1.58064e-11
-1.38591e-11
-3.62341e-12
-1.07258e-13
3.05437e-13
1.20117e-13
6.16298e-15
-1.03186e-14
-3.3546e-15
5.73754e-17
4.10574e-16
1.13189e-16
-7.35605e-18
-1.3325e-17
-3.28762e-18
1.64584e-19
3.71738e-19
1.03989e-19
-9.7283e-22
-1.17974e-20
-4.52106e-21
6.19225e-23
8.66619e-22
5.13244e-22
1.22893e-22
-2.32708e-23
-5.15502e-23
0.0298346
-0.0611811
0.212606
1.55376
3.27874
4.29265
4.61146
4.45821
3.3755
1.74405
0.541148
0.0834698
0.00305792
-0.000453669
-3.8941e-05
9.14933e-06
3.24788e-08
-4.78363e-07
-1.36291e-07
-1.09976e-09
3.80658e-09
6.61327e-10
-3.37697e-11
-4.13171e-11
-6.78155e-12
4.79395e-13
7.50793e-13
2.06266e-13
-7.59731e-15
-2.47476e-14
-5.86836e-15
6.07196e-16
8.6463e-16
1.75732e-16
-3.72818e-17
-2.76719e-17
-4.75064e-18
1.10282e-18
7.67973e-19
1.35217e-19
-2.84694e-20
-2.09885e-20
-4.27086e-21
1.56717e-21
1.37814e-21
4.59005e-22
-3.00806e-23
-1.10017e-22
-6.41911e-23
-8.28697e-24
0.0173613
-0.070622
0.52039
2.76818
5.29614
6.53383
6.8557
6.40876
4.47956
2.02505
0.49768
0.0491209
-0.000702624
-0.000254447
2.6785e-05
1.34889e-06
-1.39854e-06
-5.65391e-07
-4.66367e-08
1.21111e-08
2.41909e-09
-1.06754e-10
-1.16635e-10
-1.35655e-11
4.41085e-12
1.9256e-12
2.87821e-13
-7.76559e-14
-5.81403e-14
-8.9086e-15
2.66474e-15
1.6991e-15
2.16586e-16
-1.25304e-16
-5.62551e-17
-5.46419e-18
3.55848e-18
1.45356e-18
1.27273e-19
-9.4761e-20
-3.69597e-20
-2.90545e-21
3.47992e-21
1.6331e-21
1.25455e-22
-2.51801e-22
-1.81746e-22
-5.40575e-23
1.4452e-24
1.70194e-23
0.00625285
-0.0593284
1.11437
3.94342
6.79593
8.29848
8.65613
8.5
5.99872
2.29529
0.403875
0.0192749
-0.00125529
-4.4208e-05
1.64072e-05
-2.88867e-06
-1.93278e-06
-2.48212e-07
3.80513e-08
7.27039e-09
-6.73705e-10
-3.59445e-10
-2.64204e-11
1.62449e-11
4.36766e-12
9.80819e-14
-2.41933e-13
-9.66846e-14
-2.39896e-15
9.35735e-15
2.82632e-15
-6.2109e-18
-3.40077e-16
-1.00126e-16
3.46349e-18
9.89586e-18
2.56054e-18
-1.06418e-19
-2.64083e-19
-6.63333e-20
2.05868e-21
6.61648e-21
1.78409e-21
-3.22244e-22
-4.24833e-22
-1.71553e-22
-4.78704e-24
3.08385e-23
2.12327e-23
3.89821e-24
0.000407269
-0.0306662
1.28676
4.37803
7.05202
8.23129
8.66158
8.82241
6.72508
2.61282
0.27694
0.00154323
-0.000559652
8.88432e-05
-5.65148e-06
-6.41529e-06
-1.26841e-06
4.96894e-08
1.09999e-08
-3.02839e-09
-9.91698e-10
-9.4739e-12
5.02555e-11
9.88364e-12
-8.86832e-13
-5.90953e-13
-1.26605e-13
2.03303e-14
1.97597e-14
3.55649e-15
-8.40748e-16
-6.34832e-16
-1.1194e-16
3.96359e-17
2.20871e-17
3.22766e-18
-1.09643e-18
-5.81047e-19
-8.34698e-20
2.67876e-20
1.39436e-20
2.17806e-21
-8.17112e-22
-4.99493e-22
-7.41227e-23
6.30871e-23
5.35208e-23
1.85837e-23
7.82455e-25
-5.15136e-24
-0.000552881
-0.00757532
0.90296
3.77317
6.33565
7.27562
7.78313
7.72212
6.00488
2.42425
0.145148
-0.00322345
-2.79511e-05
-1.97378e-06
-1.66484e-05
-5.25412e-06
-1.82138e-07
3.69375e-08
-1.29971e-09
-1.72996e-09
1.7998e-10
1.21658e-10
1.88153e-11
-4.04266e-12
-1.48017e-12
-1.69828e-13
4.39384e-14
2.89244e-14
2.33347e-15
-2.24158e-15
-8.99233e-16
-5.09955e-17
9.43184e-17
3.24729e-17
-4.09256e-19
-3.22589e-18
-9.17393e-19
3.26323e-20
9.56197e-20
2.71615e-20
5.83428e-22
-2.16242e-21
-6.79755e-22
4.0271e-23
1.15179e-22
5.2621e-23
3.33054e-24
-8.80077e-24
-6.60008e-24
-1.48599e-24
-0.000173182
0.00156008
0.28509
2.20063
4.77195
6.15522
6.71105
6.46233
4.75084
1.77067
0.0526971
-0.00158757
0.000172704
-3.99336e-05
-2.10314e-05
-2.22621e-06
1.48855e-07
1.35887e-09
-7.16244e-09
-4.15186e-10
1.82747e-10
2.57601e-11
-7.76915e-12
-2.83327e-12
-4.68524e-14
1.34469e-13
5.23946e-14
9.76568e-16
-4.18102e-15
-1.35057e-15
2.22383e-17
1.56189e-16
3.76967e-17
-7.49938e-18
-5.6611e-18
-7.44804e-19
3.85008e-19
1.97508e-19
2.80259e-20
-9.56496e-21
-5.01404e-21
-8.95535e-22
2.26854e-22
1.50196e-22
2.58969e-23
-1.79717e-23
-1.6383e-23
-5.93719e-24
-3.9957e-25
1.6587e-24
-3.02784e-05
0.000541927
-0.0493176
0.526567
2.52948
4.46413
5.08812
4.46832
3.00982
1.12735
0.00886787
-7.09687e-05
-9.09503e-05
-6.8301e-05
-1.23773e-05
5.21807e-07
-6.4208e-08
-2.85308e-08
-2.2317e-09
5.22102e-10
1.1709e-10
-3.09429e-12
-4.56835e-12
1.61e-13
3.69788e-13
8.07503e-14
-5.83305e-15
-1.01411e-14
-2.27629e-15
1.17528e-16
2.68616e-16
4.6668e-17
-1.60453e-17
-8.39997e-18
-7.35076e-21
8.68456e-19
2.6644e-19
-1.21053e-20
-2.97769e-20
-8.54228e-21
-2.13151e-22
6.62241e-22
2.06772e-22
-1.50011e-23
-3.72674e-23
-1.66567e-23
-9.04267e-25
2.95359e-24
2.22493e-24
4.93782e-25
-0.000277069
-0.000554003
0.0155968
-0.0785646
0.479605
1.87346
2.63476
2.34565
1.33217
0.312485
-0.00495936
0.000380509
-0.000202999
-5.79785e-05
-2.12633e-06
-3.09349e-07
-9.38825e-08
-5.60919e-09
1.73375e-09
2.84207e-10
-1.4419e-11
-1.29761e-11
5.1777e-13
7.80681e-13
7.14309e-14
-4.49706e-14
-2.05129e-14
-1.84173e-15
1.2624e-15
5.47298e-16
4.07463e-17
-4.64169e-17
-1.50368e-17
1.0801e-18
1.73711e-18
3.59599e-19
-6.3889e-20
-5.27923e-20
-9.19447e-21
1.75049e-21
1.21302e-21
1.79285e-22
-7.8652e-23
-4.65602e-23
-4.94105e-24
7.19019e-24
5.79909e-24
1.98943e-24
8.2536e-26
-5.61802e-25
-0.00026562
0.00081297
-0.00746629
0.0273163
-0.068127
0.14249
0.498457
0.58598
0.298083
-0.0344184
0.00271588
-0.000371404
-0.000262629
-2.31333e-05
-3.28208e-07
-2.6528e-07
-3.86099e-08
1.67937e-09
3.17408e-10
-3.89483e-11
-1.31733e-11
5.70764e-12
1.93888e-12
-2.12927e-14
-1.2171e-13
-2.61193e-14
3.71534e-15
3.49015e-15
5.70216e-16
-1.62767e-16
-1.13371e-16
-1.82137e-17
7.68266e-18
4.00382e-18
6.24125e-19
-1.8317e-19
-9.01361e-20
-1.11567e-20
3.97119e-21
1.54756e-21
2.91075e-23
-1.34038e-22
-3.13342e-23
1.41187e-23
1.32798e-23
5.09304e-24
4.89462e-26
-1.04286e-24
-6.94112e-25
-1.23018e-25
-0.000191853
1.64292e-05
0.000906001
-0.0037903