/*--------------------------------*- C++ -*----------------------------------*\
| =========                 |                                                 |
| \\      /  F ield         | OpenFOAM: The Open Source CFD Toolbox           |
|  \\    /   O peration     | Version:  v2006                                 |
|   \\  /    A nd           | Website:  www.openfoam.com                      |
|    \\/     M anipulation  |                                                 |
\*---------------------------------------------------------------------------*/
FoamFile
{
    version     2.0;
    format      ascii;
    class       surfaceScalarField;
    location    "13";
    object      phi;
}
// * * * * * * * * * * * * * * * * * * * * * * * * * * * * * * * * * * * * * //

dimensions      [0 3 -1 0 0 0 0];
oriented        oriented;


internalField   nonuniform List<scalar> 
104500
(
-5.09091e-05
5.09091e-05
-9.2469e-05
4.15599e-05
-0.000136197
4.37283e-05
-0.000181991
4.57935e-05
-0.000228385
4.63939e-05
-0.000274852
4.64669e-05
-0.000321305
4.64535e-05
-0.000367776
4.64707e-05
-0.000414303
4.65268e-05
-0.000460909
4.66062e-05
-0.000507605
4.66963e-05
-0.000554399
4.67939e-05
-0.000601297
4.6898e-05
-0.000648306
4.70092e-05
-0.000695434
4.7128e-05
-0.000742689
4.7255e-05
-0.000790079
4.73903e-05
-0.000837613
4.7534e-05
-0.000885299
4.76856e-05
-0.000933144
4.7845e-05
-0.000981156
4.80117e-05
-0.00102934
4.81849e-05
-0.0010777
4.83633e-05
-0.00112625
4.85452e-05
-0.00117498
4.87289e-05
-0.00122389
4.89125e-05
-0.00127298
4.90935e-05
-0.00132225
4.92685e-05
-0.00137169
4.94339e-05
-0.00142127
4.95864e-05
-0.001471
4.97234e-05
-0.00152084
4.9844e-05
-0.00157079
4.99497e-05
-0.00162084
5.00451e-05
-0.00167097
5.01362e-05
-0.0017212
5.02284e-05
-0.00177152
5.03237e-05
-0.00182194
5.04199e-05
-0.00187245
5.05107e-05
-0.00192304
5.0587e-05
-0.00197368
5.06388e-05
-0.00202434
5.0659e-05
-0.00207498
5.06456e-05
-0.00212559
5.06039e-05
-0.00217613
5.05458e-05
-0.00222662
5.04868e-05
-0.00227706
5.04391e-05
-0.00232746
5.04043e-05
-0.00237783
5.03668e-05
-0.00242812
5.02935e-05
-0.00247826
5.01382e-05
-0.00252811
4.98499e-05
-0.0025775
4.93911e-05
-0.00262625
4.87458e-05
-0.00267417
4.79228e-05
-0.00272112
4.69495e-05
-0.00276699
4.58633e-05
-0.00281169
4.47025e-05
-0.00285519
4.34998e-05
-0.00289747
4.22799e-05
-0.00293853
4.10586e-05
-0.00297837
3.98448e-05
-0.00301701
3.86415e-05
-0.00305446
3.74477e-05
-0.00309072
3.62595e-05
-0.00312579
3.50716e-05
-0.00315967
3.38782e-05
-0.00319234
3.26744e-05
-0.0032238
3.14571e-05
-0.00325403
3.02259e-05
-0.00328301
2.89835e-05
-0.00331074
2.77347e-05
-0.00333723
2.64859e-05
-0.00336247
2.52427e-05
-0.00338648
2.40087e-05
-0.00340927
2.27855e-05
-0.00343084
2.15729e-05
-0.00345121
2.03703e-05
-0.00347039
1.91778e-05
-0.00348839
1.79966e-05
-0.00350521
1.68294e-05
-0.00352089
1.56803e-05
-0.00353545
1.45545e-05
-0.00354891
1.34571e-05
-0.0035613
1.23927e-05
-0.00357266
1.13645e-05
-0.00358304
1.0374e-05
-0.00359246
9.4211e-06
-0.00360096
8.50452e-06
-0.00360859
7.62184e-06
-0.00361536
6.77025e-06
-0.0036213
5.94654e-06
-0.00362645
5.14764e-06
-0.00363082
4.37159e-06
-0.00363444
3.61613e-06
-0.00363732
2.87972e-06
-0.00363948
2.16408e-06
-0.00364094
1.46306e-06
-0.00364172
7.80055e-07
-0.00364183
1.0946e-07
-0.00364136
-4.72755e-07
-0.00364027
-1.08679e-06
-0.00363859
-1.68522e-06
-0.00363633
-2.26267e-06
-0.00363351
-2.8126e-06
-0.00363019
-3.32418e-06
-0.0036264
-3.78589e-06
-0.00362221
-4.19139e-06
-0.00361767
-4.54441e-06
-0.00361281
-4.85907e-06
-0.00360765
-5.15508e-06
-0.0036022
-5.45032e-06
-0.00359645
-5.7552e-06
-0.00359038
-6.07152e-06
-0.00358398
-6.39526e-06
-0.00357726
-6.72065e-06
-0.00357022
-7.04291e-06
-0.00356286
-7.35918e-06
-0.00355519
-7.66799e-06
-0.00354722
-7.96857e-06
-0.00353896
-8.2604e-06
-0.00353042
-8.54307e-06
-0.0035216
-8.81626e-06
-0.00351252
-9.07973e-06
-0.00350319
-9.33339e-06
-0.00349361
-9.57722e-06
-0.0034838
-9.81124e-06
-0.00347377
-1.00355e-05
-0.00346351
-1.02502e-05
-0.00345306
-1.04554e-05
-0.00344241
-1.06512e-05
-0.00343157
-1.08377e-05
-0.00342056
-1.10151e-05
-0.00340937
-1.11836e-05
-0.00339803
-1.13435e-05
-0.00338653
-1.14953e-05
-0.00337489
-1.164e-05
-0.00336311
-1.17789e-05
-0.0033512
-1.19137e-05
-0.00333915
-1.20466e-05
-0.00332697
-1.21802e-05
-0.00331466
-1.23163e-05
-0.0033022
-1.24558e-05
-0.0032896
-1.2597e-05
-0.00327687
-1.27345e-05
-0.00326401
-1.28584e-05
-0.00325106
-1.29538e-05
-0.00323806
-1.30024e-05
-0.00322507
-1.29846e-05
-0.00321219
-1.28836e-05
-0.0031995
-1.26888e-05
-0.0031871
-1.23994e-05
-0.00317507
-1.20245e-05
-0.00316349
-1.15818e-05
-0.0031524
-1.10931e-05
-0.00314182
-1.05794e-05
-0.00313176
-1.00557e-05
-0.00312224
-9.52844e-06
-0.00311324
-8.99525e-06
-0.00310479
-8.44727e-06
-0.00309692
-7.87267e-06
-0.00308966
-7.26117e-06
-0.00308305
-6.60954e-06
-0.00307712
-5.9279e-06
-0.00307188
-5.24538e-06
-0.00306727
-4.61109e-06
-0.00306318
-4.08594e-06
-0.00305945
-3.72571e-06
-0.00305589
-3.56274e-06
-0.00305229
-3.5966e-06
-0.00304849
-3.80002e-06
-0.00304436
-4.13695e-06
-0.00303978
-4.58196e-06
-0.00303464
-5.13102e-06
-0.00302885
-5.79898e-06
-0.00302224
-6.60443e-06
-0.00301469
-7.54925e-06
-0.00300609
-8.60372e-06
-0.00299638
-9.70455e-06
-0.00298562
-1.07672e-05
-0.00297391
-1.17082e-05
-0.00296144
-1.24669e-05
-0.00294842
-1.30187e-05
-0.00293505
-1.33771e-05
-0.00292146
-1.35841e-05
-0.00290777
-1.3693e-05
-0.00289401
-1.37545e-05
-0.00288021
-1.38078e-05
-0.00286633
-1.38783e-05
-0.00285235
-1.39802e-05
-0.00283823
-1.41197e-05
-0.00282393
-1.42988e-05
-0.00280941
-1.45179e-05
-0.00279464
-1.47763e-05
-0.00277956
-1.50741e-05
-0.00276415
-1.54114e-05
-0.00274836
-1.57886e-05
-0.00273215
-1.62062e-05
-0.00271549
-1.66635e-05
-0.00269833
-1.71574e-05
-0.00268065
-1.768e-05
-0.00266244
-1.82169e-05
-0.00264369
-1.87464e-05
-0.00262445
-1.92406e-05
-0.00260478
-1.96679e-05
-0.00258478
-2.00008e-05
-0.00256456
-2.02257e-05
-0.00254422
-2.03377e-05
-0.00252388
-2.034e-05
-0.00250364
-2.02405e-05
-0.00248358
-2.00524e-05
-0.00246379
-1.97987e-05
-0.00244428
-1.95111e-05
-0.00242505
-1.92255e-05
-0.00240607
-1.89763e-05
-0.00238728
-1.87896e-05
-0.00236861
-1.8675e-05
-0.00234998
-1.86281e-05
-0.00233134
-1.86369e-05
-0.00231266
-1.86826e-05
-0.00229392
-1.87462e-05
-0.0022751
-1.88116e-05
-0.00225623
-1.88691e-05
-0.00223732
-1.89149e-05
-0.00221837
-1.89465e-05
-0.00219941
-1.89635e-05
-0.00218044
-1.89695e-05
-0.00216147
-1.89652e-05
-0.00214252
-1.89515e-05
-0.00212359
-1.89286e-05
-0.0021047
-1.88962e-05
-0.00208585
-1.88534e-05
-0.00206705
-1.87995e-05
-0.00204831
-1.87342e-05
-0.00202965
-1.86577e-05
-0.00201108
-1.85701e-05
-0.00199261
-1.84722e-05
-0.00197425
-1.83643e-05
-0.001956
-1.82463e-05
-0.00193788
-1.81186e-05
-0.0019199
-1.79814e-05
-0.00190207
-1.78335e-05
-0.00188439
-1.7676e-05
-0.00186688
-1.75093e-05
-0.00184955
-1.73316e-05
-0.00183241
-1.71429e-05
-0.00181547
-1.6942e-05
-0.00179874
-1.67291e-05
-0.00178224
-1.65016e-05
-0.00176598
-1.62591e-05
-0.00174998
-1.59981e-05
-0.00173426
-1.57172e-05
-0.00171885
-1.54118e-05
-0.00170377
-1.50777e-05
-0.00168906
-1.47098e-05
-0.00167476
-1.43011e-05
-0.00166091
-1.38488e-05
-0.00164756
-1.33553e-05
-0.00163472
-1.28328e-05
-0.00162243
-1.22966e-05
-0.00161067
-1.17519e-05
-0.00159948
-1.1196e-05
-0.00158885
-1.06273e-05
-0.00157881
-1.00466e-05
-0.00156934
-9.46229e-06
-0.00156046
-8.87987e-06
-0.00155216
-8.30336e-06
-0.00154443
-7.72523e-06
-0.0015373
-7.12937e-06
-0.00153081
-6.49048e-06
-0.00152503
-5.78205e-06
-0.00152005
-4.98085e-06
-0.00151598
-4.06878e-06
-0.00151295
-3.034e-06
-0.00151108
-1.86604e-06
-0.00151055
-5.33387e-07
-0.00151136
8.08634e-07
-0.00151363
2.27463e-06
-0.00151747
3.83655e-06
-0.0015229
5.42857e-06
-0.00152988
6.98548e-06
-0.00153832
8.43471e-06
-0.00154803
9.70763e-06
-0.00155879
1.07635e-05
-0.00157039
1.16046e-05
-0.00158258
1.21872e-05
-0.00159513
1.25471e-05
-0.00160788
1.2749e-05
-0.00162037
1.24897e-05
-0.00163204
1.1671e-05
-0.00164213
1.00952e-05
-0.00164962
7.4912e-06
-0.00165325
3.62429e-06
-0.0016518
-1.44568e-06
-0.00164514
-6.66766e-06
-0.00163365
-1.14836e-05
-0.0016185
-1.51482e-05
-0.00160098
-1.75224e-05
-0.00158213
-1.88539e-05
-0.00156259
-1.95352e-05
-0.00154266
-1.99337e-05
-0.00152235
-2.031e-05
-0.00150154
-2.08069e-05
-0.00148007
-2.14676e-05
-0.00145781
-2.22645e-05
-0.00143467
-2.31346e-05
-0.00141066
-2.40151e-05
-0.0013858
-2.48635e-05
-0.00136013
-2.56659e-05
-0.0013337
-2.64281e-05
-0.00130654
-2.71585e-05
-0.00127869
-2.78561e-05
-0.00125017
-2.8513e-05
-0.00122106
-2.91188e-05
-0.0011914
-2.96601e-05
-0.00116126
-3.01315e-05
-0.00113072
-3.05427e-05
-0.00109982
-3.09046e-05
-0.00106859
-3.12278e-05
-0.00103707
-3.15196e-05
-0.00100529
-3.17838e-05
-0.000973264
-3.20215e-05
-0.000941029
-3.2235e-05
-0.000908599
-3.243e-05
-0.000875988
-3.26107e-05
-0.000843211
-3.27774e-05
-0.000810275
-3.29359e-05
-0.000777189
-3.30856e-05
-0.000743962
-3.3227e-05
-0.000710599
-3.33633e-05
-0.000677103
-3.3496e-05
-0.000643469
-3.36337e-05
-0.00060969
-3.37788e-05
-0.000575753
-3.39372e-05
-0.00054164
-3.41132e-05
-0.00050733
-3.43098e-05
-0.000472803
-3.45273e-05
-0.000438034
-3.47687e-05
-0.000403002
-3.50323e-05
-0.000367693
-3.53091e-05
-0.000332102
-3.55904e-05
-0.00029624
-3.58624e-05
-0.000260116
-3.61233e-05
-0.000223724
-3.63921e-05
-0.000186999
-3.67257e-05
-0.000149773
-3.7226e-05
-0.000111864
-3.79087e-05
-7.29726e-05
-3.88914e-05
-3.33849e-05
-3.95876e-05
-3.33849e-05
-7.03634e-05
0.000121273
-0.000133673
0.000104869
-0.000200696
0.000110752
-0.000269666
0.000114764
-0.000338742
0.00011547
-0.000407556
0.000115281
-0.000476224
0.000115122
-0.000544803
0.00011505
-0.000613254
0.000114977
-0.000681522
0.000114874
-0.000749568
0.000114743
-0.000817362
0.000114588
-0.000884874
0.000114409
-0.000952073
0.000114208
-0.00101893
0.000113984
-0.00108541
0.000113737
-0.00115149
0.000113467
-0.00121713
0.000113174
-0.0012823
0.000112857
-0.00134697
0.000112516
-0.00141111
0.000112152
-0.00147469
0.000111763
-0.00153768
0.00011135
-0.00160004
0.000110912
-0.00166176
0.000110447
-0.0017228
0.000109954
-0.00178314
0.000109431
-0.00184275
0.000108876
-0.0019016
0.000108289
-0.00195969
0.000107674
-0.002017
0.000107033
-0.00207353
0.000106373
-0.00212928
0.000105699
-0.00218425
0.000105015
-0.00223844
0.000104325
-0.00229183
0.000103626
-0.00234443
0.000102915
-0.00239619
0.000102184
-0.00244711
0.000101427
-0.00249716
0.000100638
-0.00254633
9.98109e-05
-0.00259462
9.89459e-05
-0.00264201
9.80439e-05
-0.00268852
9.7108e-05
-0.00273411
9.6141e-05
-0.00277877
9.51435e-05
-0.00282244
9.41108e-05
-0.00286507
9.30316e-05
-0.00290659
9.18881e-05
-0.00294696
9.06584e-05
-0.00298614
8.93212e-05
-0.00302415
8.78608e-05
-0.00306103
8.62718e-05
-0.00309685
8.45611e-05
-0.00313167
8.27511e-05
-0.00316559
8.08665e-05
-0.00319866
7.89294e-05
-0.00323091
7.69597e-05
-0.00326239
7.49723e-05
-0.00329308
7.29777e-05
-0.00332301
7.09819e-05
-0.00335215
6.8988e-05
-0.00338051
6.69973e-05
-0.00340807
6.50095e-05
-0.00343483
6.30238e-05
-0.0034608
6.10393e-05
-0.00348598
5.90553e-05
-0.00351038
5.70716e-05
-0.00353401
5.50884e-05
-0.00355689
5.31064e-05
-0.00357903
5.11265e-05
-0.00360044
4.91498e-05
-0.00362114
4.71767e-05
-0.0036411
4.52076e-05
-0.00366033
4.32425e-05
-0.00367883
4.12817e-05
-0.00369658
3.93263e-05
-0.00371359
3.73786e-05
-0.00372986
3.5442e-05
-0.00374538
3.3521e-05
-0.00376017
3.16207e-05
-0.00377424
2.97465e-05
-0.00378759
2.79034e-05
-0.00380023
2.60956e-05
-0.00381216
2.43261e-05
-0.00382339
2.25967e-05
-0.00383393
2.09083e-05
-0.00384377
1.92604e-05
-0.00385291
1.76526e-05
-0.00386137
1.6083e-05
-0.00386916
1.45518e-05
-0.00387627
1.30559e-05
-0.00388271
1.15966e-05
-0.00388851
1.01706e-05
-0.00389368
8.77961e-06
-0.00389822
7.42003e-06
-0.00390215
6.10036e-06
-0.00390549
4.80096e-06
-0.00390825
3.54067e-06
-0.00391045
2.31132e-06
-0.00391204
1.11763e-06
-0.00391306
-7.02471e-08
-0.00391352
-1.2292e-06
-0.00391342
-2.35986e-06
-0.00391276
-3.46745e-06
-0.00391154
-4.54914e-06
-0.00390973
-5.59943e-06
-0.00390731
-6.61128e-06
-0.00390427
-7.57797e-06
-0.00390064
-8.49536e-06
-0.00389643
-9.36352e-06
-0.00389169
-1.01867e-05
-0.00388647
-1.09719e-05
-0.00388082
-1.17259e-05
-0.00387476
-1.24544e-05
-0.00386832
-1.31605e-05
-0.00386152
-1.3846e-05
-0.00385437
-1.45118e-05
-0.00384688
-1.51584e-05
-0.00383906
-1.57864e-05
-0.00383092
-1.63965e-05
-0.00382248
-1.69894e-05
-0.00381373
-1.75656e-05
-0.00380468
-1.81259e-05
-0.00379534
-1.86708e-05
-0.00378572
-1.92012e-05
-0.00377581
-1.97177e-05
-0.00376563
-2.02211e-05
-0.00375516
-2.07123e-05
-0.00374443
-2.1192e-05
-0.00373342
-2.16611e-05
-0.00372213
-2.21205e-05
-0.00371058
-2.25711e-05
-0.00369875
-2.30137e-05
-0.00368664
-2.34495e-05
-0.00367426
-2.38798e-05
-0.00366159
-2.43062e-05
-0.00364864
-2.47308e-05
-0.0036354
-2.51561e-05
-0.00362186
-2.55854e-05
-0.00360802
-2.60217e-05
-0.00359387
-2.64683e-05
-0.00357939
-2.69272e-05
-0.00356459
-2.73989e-05
-0.00354945
-2.78809e-05
-0.00353394
-2.83674e-05
-0.00351804
-2.88488e-05
-0.00350173
-2.93119e-05
-0.00348498
-2.9741e-05
-0.00346774
-3.01201e-05
-0.00344999
-3.04347e-05
-0.00343172
-3.06748e-05
-0.00341291
-3.08364e-05
-0.00339357
-3.09224e-05
-0.00337372
-3.09417e-05
-0.00335339
-3.09072e-05
-0.00333261
-3.08331e-05
-0.00331141
-3.07321e-05
-0.00328979
-3.06135e-05
-0.00326776
-3.0482e-05
-0.00324529
-3.03379e-05
-0.00322237
-3.01781e-05
-0.00319899
-2.99969e-05
-0.00317512
-2.97888e-05
-0.00315082
-2.9552e-05
-0.00312614
-2.92924e-05
-0.0031012
-2.90254e-05
-0.00307615
-2.8774e-05
-0.00305115
-2.85645e-05
-0.00302632
-2.84193e-05
-0.00300177
-2.83532e-05
-0.00297754
-2.83725e-05
-0.00295364
-2.84778e-05
-0.0029301
-2.86671e-05
-0.00290696
-2.89383e-05
-0.00288428
-2.92879e-05
-0.00286212
-2.97108e-05
-0.00284053
-3.01965e-05
-0.0028195
-3.07279e-05
-0.00279899
-3.12809e-05
-0.00277887
-3.18291e-05
-0.00275899
-3.23488e-05
-0.00273918
-3.28226e-05
-0.00271932
-3.32406e-05
-0.0026993
-3.36003e-05
-0.00267909
-3.39058e-05
-0.00265868
-3.41649e-05
-0.0026381
-3.43868e-05
-0.0026174
-3.45809e-05
-0.00259662
-3.47558e-05
-0.00257582
-3.49187e-05
-0.00255505
-3.50761e-05
-0.00253433
-3.52334e-05
-0.00251371
-3.53956e-05
-0.00249322
-3.55672e-05
-0.00247288
-3.57512e-05
-0.00245272
-3.59503e-05
-0.00243276
-3.61666e-05
-0.00241302
-3.64016e-05
-0.00239352
-3.66559e-05
-0.00237427
-3.69274e-05
-0.00235528
-3.72116e-05
-0.00233652
-3.75035e-05
-0.00231797
-3.77963e-05
-0.00229955
-3.80789e-05
-0.00228121
-3.8341e-05
-0.00226287
-3.85711e-05
-0.00224445
-3.87549e-05
-0.00222592
-3.88764e-05
-0.00220723
-3.89208e-05
-0.00218841
-3.88787e-05
-0.00216946
-3.87502e-05
-0.00215042
-3.85444e-05
-0.00213137
-3.82784e-05
-0.00211237
-3.79764e-05
-0.0020935
-3.76624e-05
-0.00207482
-3.73559e-05
-0.00205637
-3.70738e-05
-0.00203818
-3.68288e-05
-0.00202024
-3.66239e-05
-0.00200253
-3.6456e-05
-0.00198502
-3.63177e-05
-0.00196769
-3.62012e-05
-0.00195051
-3.60979e-05
-0.00193346
-3.59961e-05
-0.00191653
-3.58883e-05
-0.00189973
-3.57711e-05
-0.00188306
-3.564e-05
-0.00186652
-3.5492e-05
-0.00185012
-3.53272e-05
-0.00183387
-3.51433e-05
-0.00181778
-3.49397e-05
-0.00180187
-3.47162e-05
-0.00178613
-3.44733e-05
-0.00177058
-3.42098e-05
-0.00175522
-3.39273e-05
-0.00174006
-3.3626e-05
-0.00172512
-3.33063e-05
-0.0017104
-3.29691e-05
-0.0016959
-3.26161e-05
-0.00168164
-3.22472e-05
-0.0016676
-3.18655e-05
-0.00165381
-3.14728e-05
-0.00164025
-3.10676e-05
-0.00162693
-3.06529e-05
-0.00161384
-3.02311e-05
-0.00160098
-2.97996e-05
-0.00158835
-2.93635e-05
-0.00157593
-2.89233e-05
-0.00156371
-2.84763e-05
-0.00155168
-2.80276e-05
-0.00153982
-2.75776e-05
-0.0015281
-2.71265e-05
-0.00151651
-2.66747e-05
-0.00150499
-2.62231e-05
-0.00149352
-2.57743e-05
-0.00148204
-2.53293e-05
-0.00147051
-2.48867e-05
-0.00145889
-2.44555e-05
-0.00144716
-2.40257e-05
-0.00143531
-2.3604e-05
-0.00142332
-2.31812e-05
-0.00141119
-2.27562e-05
-0.00139891
-2.23301e-05
-0.00138647
-2.19e-05
-0.00137389
-2.14601e-05
-0.00136119
-2.10007e-05
-0.00134841
-2.05095e-05
-0.00133557
-1.99694e-05
-0.0013227
-1.93608e-05
-0.00130982
-1.86633e-05
-0.00129694
-1.78563e-05
-0.00128409
-1.69224e-05
-0.00127127
-1.58477e-05
-0.00125852
-1.46222e-05
-0.00124581
-1.32446e-05
-0.00123326
-1.174e-05
-0.00122086
-1.01188e-05
-0.00120862
-8.40294e-06
-0.00119656
-6.63344e-06
-0.00118471
-4.86634e-06
-0.0011731
-3.17423e-06
-0.00116175
-1.64241e-06
-0.00115063
-3.62723e-07
-0.0011398
7.83843e-07
-0.00112902
1.40055e-06
-0.00111788
1.41329e-06
-0.00110589
7.52388e-07
-0.00109292
-4.79455e-07
-0.00107838
-2.86324e-06
-0.00106201
-6.27504e-06
-0.00104381
-1.07175e-05
-0.00102418
-1.60044e-05
-0.00100392
-2.17042e-05
-0.000983288
-2.72974e-05
-0.000962471
-3.23008e-05
-0.000941309
-3.63103e-05
-0.000919709
-3.91226e-05
-0.000897794
-4.07691e-05
-0.000875843
-4.14859e-05
-0.000854138
-4.16386e-05
-0.000832831
-4.16167e-05
-0.000811908
-4.17299e-05
-0.00079124
-4.21365e-05
-0.000770661
-4.28428e-05
-0.000750044
-4.37516e-05
-0.000729322
-4.47377e-05
-0.00070849
-4.56955e-05
-0.000687589
-4.65667e-05
-0.000666679
-4.73381e-05
-0.00064581
-4.80273e-05
-0.000625004
-4.86617e-05
-0.000604259
-4.92587e-05
-0.000583549
-4.98287e-05
-0.00056283
-5.03789e-05
-0.000542061
-5.09002e-05
-0.000521215
-5.13891e-05
-0.000500283
-5.1837e-05
-0.000479273
-5.22372e-05
-0.000458214
-5.25787e-05
-0.000437143
-5.2855e-05
-0.000416105
-5.30598e-05
-0.000395146
-5.31934e-05
-0.000374315
-5.32611e-05
-0.000353655
-5.3271e-05
-0.000333216
-5.32164e-05
-0.00031305
-5.3102e-05
-0.000293211
-5.2924e-05
-0.000273765
-5.26736e-05
-0.000254779
-5.23491e-05
-0.000236317
-5.19576e-05
-0.000218445
-5.15061e-05
-0.000201229
-5.09951e-05
-0.000184719
-5.04468e-05
-0.000168956
-4.98765e-05
-0.000153962
-4.93041e-05
-0.000139742
-4.87472e-05
-0.000126285
-4.82257e-05
-0.000113552
-4.77653e-05
-0.000101493
-4.73678e-05
-9.00348e-05
-4.70486e-05
-7.90797e-05
-4.68175e-05
-6.85244e-05
-4.66786e-05
-5.82689e-05
-4.66477e-05
-4.82713e-05
-4.67233e-05
-3.85981e-05
-4.68991e-05
-2.95615e-05
-4.69453e-05
-2.11695e-05
-4.72835e-05
-1.13897e-05
-4.93675e-05
-4.47746e-05
-7.06717e-05
0.000191944
-0.000132751
0.000166949
-0.00019879
0.00017679
-0.000267558
0.000183532
-0.000336745
0.000184657
-0.000405515
0.000184051
-0.000473906
0.000183513
-0.000542028
0.000183171
-0.000609882
0.000182832
-0.000677424
0.000182416
-0.000744604
0.000181923
-0.000811382
0.000181365
-0.000877719
0.000180746
-0.000943576
0.000180066
-0.00100891
0.000179322
-0.00107369
0.000178517
-0.00113788
0.000177649
-0.00120142
0.00017672
-0.0012643
0.000175733
-0.00132647
0.000174688
-0.0013879
0.000173586
-0.00144857
0.000172432
-0.00150845
0.000171226
-0.00156751
0.000169973
-0.00162574
0.000168675
-0.00168312
0.000167335
-0.00173964
0.000165955
-0.0017953
0.000164539
-0.00185011
0.000163092
-0.00190405
0.00016162
-0.00195715
0.00016013
-0.00200941
0.00015863
-0.00206083
0.000157126
-0.00211144
0.00015562
-0.00216123
0.000154112
-0.0022102
0.000152599
-0.00225836
0.000151075
-0.00230571
0.000149535
-0.00235225
0.000147972
-0.002398
0.000146384
-0.00244296
0.000144767
-0.00248713
0.000143121
-0.00253053
0.000141447
-0.00257318
0.00013975
-0.00261507
0.00013803
-0.00265621
0.000136288
-0.00269662
0.000134517
-0.00273629
0.000132709
-0.00277525
0.000130848
-0.00281351
0.000128919
-0.0028511
0.000126907
-0.00288804
0.000124802
-0.00292437
0.0001226
-0.00296011
0.000120306
-0.00299529
0.000117927
-0.0030299
0.000115477
-0.00306394
0.000112967
-0.00309738
0.000110405
-0.00313021
0.000107802
-0.0031624
0.000105163
-0.00319391
0.000102494
-0.00322472
9.97997e-05
-0.00325481
9.70831e-05
-0.00328415
9.43472e-05
-0.00331272
9.15943e-05
-0.0033405
8.88266e-05
-0.00336749
8.60458e-05
-0.00339368
8.32537e-05
-0.00341904
8.0452e-05
-0.00344358
7.76422e-05
-0.00346727
7.48256e-05
-0.00349013
7.2003e-05
-0.00351213
6.91754e-05
-0.00353326
6.63441e-05
-0.00355353
6.35109e-05
-0.00357293
6.06787e-05
-0.00359145
5.78511e-05
-0.00360911
5.50328e-05
-0.00362589
5.22289e-05
-0.00364182
4.94456e-05
-0.00365689
4.66889e-05
-0.00367111
4.39648e-05
-0.00368448
4.12786e-05
-0.00369702
3.86351e-05
-0.00370873
3.60379e-05
-0.00371963
3.34897e-05
-0.00372971
3.09919e-05
-0.00373899
2.85465e-05
-0.00374749
2.61517e-05
-0.00375522
2.38104e-05
-0.00376219
2.15211e-05
-0.00376842
1.92849e-05
-0.00377392
1.71003e-05
-0.00377872
1.49688e-05
-0.00378283
1.28898e-05
-0.00378628
1.08639e-05
-0.00378907
8.89075e-06
-0.00379123
6.96943e-06
-0.00379279
5.10127e-06
-0.00379377
3.28531e-06
-0.00379417
1.52102e-06
-0.00379405
-1.94623e-07
-0.00379342
-1.86057e-06
-0.0037923
-3.47701e-06
-0.00379072
-5.04662e-06
-0.0037887
-6.57151e-06
-0.00378625
-8.05151e-06
-0.00378337
-9.48346e-06
-0.00378009
-1.08622e-05
-0.0037764
-1.21831e-05
-0.00377232
-1.34448e-05
-0.00376786
-1.46504e-05
-0.00376302
-1.58058e-05
-0.00375783
-1.69176e-05
-0.00375229
-1.7991e-05
-0.00374643
-1.90297e-05
-0.00374024
-2.00358e-05
-0.00373374
-2.10108e-05
-0.00372694
-2.19559e-05
-0.00371985
-2.28726e-05
-0.00371249
-2.37619e-05
-0.00370485
-2.46254e-05
-0.00369695
-2.54641e-05
-0.0036888
-2.62794e-05
-0.0036804
-2.70726e-05
-0.00367175
-2.78449e-05
-0.00366287
-2.85977e-05
-0.00365376
-2.93324e-05
-0.00364442
-3.00502e-05
-0.00363486
-3.07527e-05
-0.00362508
-3.14412e-05
-0.00361509
-3.21173e-05
-0.00360488
-3.27823e-05
-0.00359445
-3.34377e-05
-0.00358382
-3.4085e-05
-0.00357297
-3.47254e-05
-0.00356192
-3.53603e-05
-0.00355066
-3.59909e-05
-0.00353919
-3.66184e-05
-0.00352754
-3.72435e-05
-0.00351569
-3.78671e-05
-0.00350367
-3.84893e-05
-0.00349149
-3.91096e-05
-0.00347916
-3.9727e-05
-0.0034667
-4.03393e-05
-0.00345413
-4.09429e-05
-0.00344144
-4.15331e-05
-0.00342865
-4.21035e-05
-0.00341574
-4.26466e-05
-0.00340271
-4.31542e-05
-0.00338953
-4.36186e-05
-0.00337617
-4.40337e-05
-0.00336261
-4.43962e-05
-0.00334882
-4.47067e-05
-0.00333479
-4.49698e-05
-0.00332051
-4.5193e-05
-0.00330596
-4.53856e-05
-0.00329113
-4.55572e-05
-0.00327603
-4.57157e-05
-0.00326064
-4.58672e-05
-0.00324497
-4.60157e-05
-0.00322898
-4.61629e-05
-0.00321267
-4.63087e-05
-0.00319601
-4.645e-05
-0.00317898
-4.65818e-05
-0.00316157
-4.66989e-05
-0.0031438
-4.68e-05
-0.00312568
-4.68911e-05
-0.00310726
-4.69868e-05
-0.00308857
-4.71072e-05
-0.00306965
-4.72724e-05
-0.00305053
-4.74964e-05
-0.00303122
-4.77837e-05
-0.00301176
-4.81303e-05
-0.00299217
-4.85252e-05
-0.0029725
-4.89561e-05
-0.0029528
-4.94131e-05
-0.00293311
-4.98885e-05
-0.00291346
-5.03774e-05
-0.00289386
-5.08776e-05
-0.0028743
-5.13876e-05
-0.00285475
-5.19043e-05
-0.00283515
-5.24202e-05
-0.00281547
-5.2926e-05
-0.00279565
-5.34112e-05
-0.00277569
-5.38661e-05
-0.00275557
-5.4285e-05
-0.0027353
-5.46657e-05
-0.00271487
-5.50098e-05
-0.0026943
-5.53215e-05
-0.00267361
-5.56059e-05
-0.00265282
-5.58677e-05
-0.00263194
-5.61115e-05
-0.002611
-5.63411e-05
-0.00259001
-5.65589e-05
-0.00256899
-5.67664e-05
-0.00254798
-5.69655e-05
-0.00252699
-5.71569e-05
-0.00250605
-5.73403e-05
-0.00248519
-5.75156e-05
-0.00246443
-5.76832e-05
-0.0024438
-5.7844e-05
-0.0024233
-5.79994e-05
-0.00240295
-5.81494e-05
-0.00238273
-5.82956e-05
-0.00236264
-5.84367e-05
-0.00234264
-5.85671e-05
-0.00232272
-5.86732e-05
-0.00230286
-5.87362e-05
-0.00228305
-5.87359e-05
-0.00226327
-5.86552e-05
-0.00224354
-5.84845e-05
-0.00222385
-5.82285e-05
-0.00220424
-5.78971e-05
-0.00218471
-5.75063e-05
-0.00216529
-5.70789e-05
-0.00214601
-5.66376e-05
-0.00212688
-5.6204e-05
-0.00210791
-5.57937e-05
-0.00208912
-5.54169e-05
-0.0020705
-5.50764e-05
-0.00205205
-5.4767e-05
-0.00203377
-5.44809e-05
-0.00201566
-5.42071e-05
-0.00199772
-5.39348e-05
-0.00197996
-5.36542e-05
-0.00196237
-5.33588e-05
-0.00194496
-5.30447e-05
-0.00192775
-5.27097e-05
-0.00191072
-5.23512e-05
-0.00189389
-5.19701e-05
-0.00187727
-5.15623e-05
-0.00186086
-5.11283e-05
-0.00184466
-5.06694e-05
-0.00182869
-5.01824e-05
-0.00181295
-4.96713e-05
-0.00179744
-4.91324e-05
-0.00178217
-4.85735e-05
-0.00176715
-4.79903e-05
-0.00175238
-4.73858e-05
-0.00173787
-4.67622e-05
-0.00172361
-4.61212e-05
-0.00170962
-4.54648e-05
-0.00169589
-4.47945e-05
-0.00168243
-4.41124e-05
-0.00166924
-4.34247e-05
-0.00165631
-4.27278e-05
-0.00164365
-4.20276e-05
-0.00163125
-4.13252e-05
-0.0016191
-4.06257e-05
-0.0016072
-3.99287e-05
-0.00159553
-3.92385e-05
-0.0015841
-3.85591e-05
-0.00157288
-3.78931e-05
-0.00156186
-3.72438e-05
-0.00155102
-3.66159e-05
-0.00154033
-3.60165e-05
-0.00152977
-3.54504e-05
-0.00151931
-3.49114e-05
-0.00150894
-3.44038e-05
-0.00149862
-3.39239e-05
-0.00148832
-3.3476e-05
-0.00147803
-3.30511e-05
-0.0014677
-3.2661e-05
-0.0014573
-3.22972e-05
-0.0014468
-3.1959e-05
-0.00143616
-3.16373e-05
-0.00142535
-3.13234e-05
-0.00141431
-3.10064e-05
-0.001403
-3.06747e-05
-0.00139134
-3.03176e-05
-0.00137927
-2.99285e-05
-0.00136669
-2.95025e-05
-0.00135351
-2.90322e-05
-0.00133962
-2.85121e-05
-0.00132492
-2.79394e-05
-0.00130935
-2.73144e-05
-0.00129283
-2.66388e-05
-0.00127531
-2.59192e-05
-0.00125677
-2.51715e-05
-0.00123722
-2.44205e-05
-0.0012167
-2.36954e-05
-0.00119531
-2.30274e-05
-0.00117323
-2.24493e-05
-0.00115046
-2.19885e-05
-0.00112731
-2.17404e-05
-0.00110412
-2.17847e-05
-0.00108115
-2.22184e-05
-0.00105835
-2.32759e-05
-0.00103608
-2.51307e-05
-0.00101455
-2.7811e-05
-0.000993961
-3.13018e-05
-0.000974511
-3.5455e-05
-0.000956263
-3.99514e-05
-0.00093916
-4.44006e-05
-0.000922978
-4.84831e-05
-0.000907342
-5.19458e-05
-0.000891856
-5.46084e-05
-0.000876207
-5.64184e-05
-0.000860202
-5.74909e-05
-0.000843754
-5.80866e-05
-0.000826841
-5.85297e-05
-0.000809473
-5.90979e-05
-0.00079167
-5.994e-05
-0.000773447
-6.10651e-05
-0.00075482
-6.23791e-05
-0.000735809
-6.37485e-05
-0.000716457
-6.50476e-05
-0.000696833
-6.61905e-05
-0.00067703
-6.71415e-05
-0.000657144
-6.7913e-05
-0.00063725
-6.85555e-05
-0.000617375
-6.91339e-05
-0.000597504
-6.97e-05
-0.000577595
-7.02878e-05
-0.000557587
-7.09077e-05
-0.00053743
-7.15467e-05
-0.000517086
-7.21803e-05
-0.000496543
-7.27802e-05
-0.000475799
-7.3323e-05
-0.000454861
-7.3793e-05
-0.000433744
-7.41771e-05
-0.000412466
-7.44718e-05
-0.000391055
-7.46719e-05
-0.000369557
-7.47691e-05
-0.000348012
-7.47613e-05
-0.000326479
-7.46346e-05
-0.000305016
-7.43875e-05
-0.000283692
-7.39969e-05
-0.000262587
-7.34542e-05
-0.000241784
-7.27609e-05
-0.000221388
-7.19018e-05
-0.000201492
-7.08914e-05
-0.000182213
-6.9726e-05
-0.000163665
-6.84239e-05
-0.000145965
-6.70049e-05
-0.000129206
-6.55056e-05
-0.000113477
-6.39548e-05
-9.88636e-05
-6.23788e-05
-8.53963e-05
-6.08352e-05
-7.31001e-05
-5.93448e-05
-6.1957e-05
-5.79606e-05
-5.1928e-05
-5.67076e-05
-4.29385e-05
-5.56372e-05
-3.48957e-05
-5.4766e-05
-2.77048e-05
-5.409e-05
-2.11255e-05
-5.35246e-05
-1.43559e-05
-5.40531e-05
-5.79089e-06
-5.79325e-05
-5.05655e-05
-6.77854e-05
0.00025973
-0.000125349
0.000224512
-0.000186456
0.000237897
-0.000250821
0.000247897
-0.000315974
0.00024981
-0.000380781
0.000248858
-0.000445157
0.000247889
-0.000509247
0.000247262
-0.000573106
0.000246691
-0.000636711
0.00024602
-0.000700021
0.000245234
-0.000763005
0.00024435
-0.000825635
0.000243375
-0.000887879
0.000242311
-0.000949712
0.000241155
-0.0010111
0.000239909
-0.00107203
0.000238574
-0.00113246
0.000237151
-0.00119237
0.000235644
-0.00125174
0.000234056
-0.00131055
0.000232393
-0.00136877
0.00023066
-0.00142641
0.000228862
-0.00148344
0.000227007
-0.00153987
0.0002251
-0.00159568
0.000223148
-0.00165088
0.000221155
-0.00170547
0.000219129
-0.00175946
0.000217075
-0.00181284
0.000215002
-0.00186562
0.000212914
-0.00191781
0.000210819
-0.0019694
0.000208719
-0.0020204
0.000206614
-0.00207079
0.000204504
-0.00212058
0.000202384
-0.00216975
0.000200251
-0.00221832
0.000198099
-0.00226627
0.000195925
-0.00231361
0.000193726
-0.00236034
0.000191499
-0.00240647
0.000189245
-0.00245198
0.000186962
-0.00249688
0.000184651
-0.00254116
0.000182311
-0.00258481
0.000179939
-0.00262783
0.000177528
-0.00267019
0.00017507
-0.00271189
0.000172551
-0.00275293
0.000169958
-0.0027933
0.00016728
-0.00283301
0.000164507
-0.00287204
0.000161635
-0.0029104
0.000158666
-0.00294808
0.000155603
-0.00298505
0.000152455
-0.00302132
0.00014923
-0.00305685
0.000145936
-0.00309163
0.000142581
-0.00312564
0.000139172
-0.00315886
0.000135713
-0.00319127
0.000132211
-0.00322285
0.000128668
-0.0032536
0.00012509
-0.00328348
0.000121479
-0.00331249
0.000117839
-0.00334062
0.000114172
-0.00336785
0.000110481
-0.00339416
0.00010677
-0.00341956
0.000103042
-0.00344404
9.92998e-05
-0.00346758
9.55469e-05
-0.00349019
9.17868e-05
-0.00351187
8.80232e-05
-0.00353262
8.426e-05
-0.00355245
8.05017e-05
-0.00357135
7.67532e-05
-0.00358933
7.302e-05
-0.00360641
6.93081e-05
-0.00362259
6.56235e-05
-0.00363788
6.19725e-05
-0.00365227
5.83611e-05
-0.00366579
5.4795e-05
-0.00367843
5.12793e-05
-0.00369021
4.78182e-05
-0.00370114
4.44155e-05
-0.00371122
4.10744e-05
-0.00372047
3.77977e-05
-0.00372891
3.45872e-05
-0.00373654
3.14443e-05
-0.00374339
2.83709e-05
-0.00374947
2.53678e-05
-0.00375481
2.24362e-05
-0.00375942
1.95765e-05
-0.00376332
1.67897e-05
-0.00376653
1.40757e-05
-0.00376907
1.14354e-05
-0.00377097
8.86689e-06
-0.00377224
6.37185e-06
-0.00377291
3.94868e-06
-0.00377298
1.5969e-06
-0.00377249
-6.85424e-07
-0.00377146
-2.89595e-06
-0.0037699
-5.03564e-06
-0.00376784
-7.10494e-06
-0.00376531
-9.10429e-06
-0.00376232
-1.10341e-05
-0.00375891
-1.28947e-05
-0.00375509
-1.46865e-05
-0.00375086
-1.64104e-05
-0.00374624
-1.80682e-05
-0.00374122
-1.96624e-05
-0.00373583
-2.11963e-05
-0.00373008
-2.26731e-05
-0.00372397
-2.40963e-05
-0.00371753
-2.54687e-05
-0.00371078
-2.6793e-05
-0.00370372
-2.80718e-05
-0.00369637
-2.93072e-05
-0.00368874
-3.05014e-05
-0.00368084
-3.16565e-05
-0.00367269
-3.27745e-05
-0.0036643
-3.38575e-05
-0.00365567
-3.49075e-05
-0.00364682
-3.59264e-05
-0.00363775
-3.69162e-05
-0.00362847
-3.78788e-05
-0.00361898
-3.88163e-05
-0.0036093
-3.97304e-05
-0.00359943
-4.06232e-05
-0.00358938
-4.14964e-05
-0.00357914
-4.23519e-05
-0.00356873
-4.31915e-05
-0.00355815
-4.40172e-05
-0.00354741