/*--------------------------------*- C++ -*----------------------------------*\
| =========                 |                                                 |
| \\      /  F ield         | OpenFOAM: The Open Source CFD Toolbox           |
|  \\    /   O peration     | Version:  v2006                                 |
|   \\  /    A nd           | Website:  www.openfoam.com                      |
|    \\/     M anipulation  |                                                 |
\*---------------------------------------------------------------------------*/
FoamFile
{
    version     2.0;
    format      ascii;
    class       volScalarField;
    location    "3.8";
    object      p;
}
// * * * * * * * * * * * * * * * * * * * * * * * * * * * * * * * * * * * * * //

dimensions      [1 -1 -2 0 0 0 0];


internalField   nonuniform List<scalar> 
52500
(
27448.9
27449.6
27451
27453
27455.7
27459.1
27463.2
27467.9
27473.4
27479.5
27486.2
27493.6
27501.7
27510.4
27519.8
27529.8
27540.5
27551.8
27563.7
27576.2
27589.4
27603.1
27617.5
27632.4
27647.9
27664
27680.7
27697.9
27715.7
27734
27752.8
27772.1
27792
27812.3
27833.2
27854.5
27876.3
27898.5
27921.1
27944.2
27967.7
27991.7
28016
28040.6
28065.7
28091.1
28116.9
28142.9
28169.3
28196
28223
28250.3
28277.8
28305.6
28333.6
28361.8
28390.3
28418.9
28447.7
28476.7
28505.9
28535.2
28564.6
28594.1
28623.8
28653.5
28683.3
28713.1
28743.1
28773
28803
28833
28862.9
28892.9
28922.8
28952.7
28982.6
29012.4
29042.1
29071.7
29101.2
29130.7
29160
29189.2
29218.2
29247.1
29275.8
29304.4
29332.8
29360.9
29388.9
29416.7
29444.3
29471.7
29498.8
29525.7
29552.3
29578.7
29604.9
29630.8
29656.4
29681.7
29706.7
29731.5
29756
29780.1
29804
29827.6
29850.8
29873.8
29896.4
29918.7
29940.7
29962.4
29983.7
30004.7
30025.4
30045.8
30065.8
30085.5
30104.9
30124
30142.7
30161.1
30179.1
30196.8
30214.3
30231.3
30248.1
30264.5
30280.7
30296.5
30312
30327.2
30342.1
30356.7
30371
30385
30398.7
30412.1
30425.3
30438.2
30450.8
30463.2
30475.3
30487.1
30498.7
30510.1
30521.2
30532.1
30542.8
30553.2
30563.5
30573.6
30583.4
30593.1
30602.6
30611.9
30621.1
30630.1
30639
30647.7
30656.3
30664.7
30673
30681.3
30689.4
30697.4
30705.4
30713.2
30721
30728.7
30736.4
30744
30751.6
30759.1
30766.6
30774.1
30781.6
30789.1
30796.6
30804.1
30811.6
30819.1
30826.7
30834.3
30842
30849.7
30857.5
30865.4
30873.3
30881.3
30889.4
30897.6
30905.9
30914.3
30922.7
30931.4
30940.1
30948.9
30957.9
30967.1
30976.3
30985.7
30995.3
31005
31014.8
31024.8
31035
31045.3
31055.8
31066.5
31077.4
31088.4
31099.6
31111
31122.5
31134.3
31146.2
31158.3
31170.5
31183
31195.6
31208.4
31221.4
31234.5
31247.8
31261.3
31275
31288.9
31302.9
31317.1
31331.4
31345.9
31360.6
31375.4
31390.4
31405.5
31420.8
31436.2
31451.8
31467.5
31483.3
31499.3
31515.4
31531.5
31547.8
31564.3
31580.8
31597.4
31614.1
31630.9
31647.7
31664.7
31681.7
31698.7
31715.9
31733
31750.3
31767.5
31784.8
31802.2
31819.5
31836.9
31854.3
31871.7
31889
31906.4
31923.8
31941.1
31958.4
31975.7
31992.9
32010.1
32027.3
32044.4
32061.4
32078.4
32095.3
32112.1
32128.8
32145.4
32162
32178.4
32194.7
32210.9
32227
32242.9
32258.7
32274.4
32289.9
32305.3
32320.5
32335.5
32350.4
32365.1
32379.7
32394
32408.2
32422.2
32436
32449.6
32463
32476.2
32489.2
32502
32514.6
32526.9
32539
32550.9
32562.6
32574
32585.1
32596
32606.7
32617.1
32627.3
32637.2
32646.8
32656.2
32665.3
32674.1
32682.7
32690.9
32698.9
32706.6
32714.1
32721.2
32728.1
32734.6
32740.9
32746.8
32752.5
32757.9
32762.9
32767.7
32772.1
32776.3
32780.1
32783.6
32786.8
32789.7
32792.2
32794.5
32796.4
32798
32799.3
32800.3
32800.9
32801.3
26989.3
26990
26991.3
26993.4
26996.1
26999.5
27003.6
27008.3
27013.8
27019.9
27026.6
27034.1
27042.1
27050.9
27060.3
27070.3
27081
27092.3
27104.2
27116.8
27130
27143.7
27158.1
27173.1
27188.6
27204.7
27221.4
27238.6
27256.4
27274.8
27293.6
27313
27332.9
27353.2
27374.1
27395.4
27417.2
27439.5
27462.2
27485.3
27508.8
27532.8
27557.1
27581.9
27606.9
27632.4
27658.2
27684.3
27710.7
27737.4
27764.5
27791.8
27819.3
27847.1
27875.2
27903.5
27932
27960.6
27989.5
28018.5
28047.7
28077
28106.5
28136
28165.7
28195.5
28225.3
28255.2
28285.2
28315.1
28345.1
28375.1
28405.2
28435.2
28465.1
28495.1
28524.9
28554.8
28584.5
28614.2
28643.7
28673.2
28702.5
28731.7
28760.8
28789.7
28818.4
28847
28875.4
28903.6
28931.6
28959.5
28987
29014.4
29041.6
29068.5
29095.1
29121.6
29147.7
29173.6
29199.2
29224.6
29249.6
29274.4
29298.9
29323.1
29346.9
29370.5
29393.8
29416.7
29439.4
29461.7
29483.7
29505.3
29526.7
29547.7
29568.4
29588.8
29608.8
29628.5
29647.9
29666.9
29685.6
29704
29722
29739.8
29757.2
29774.2
29791
29807.4
29823.6
29839.4
29854.9
29870
29884.9
29899.5
29913.8
29927.8
29941.5
29954.9
29968.1
29980.9
29993.5
30005.9
30018
30029.8
30041.4
30052.7
30063.8
30074.7
30085.4
30095.8
30106.1
30116.1
30126
30135.6
30145.1
30154.4
30163.6
30172.5
30181.4
30190.1
30198.6
30207.1
30215.4
30223.6
30231.7
30239.7
30247.6
30255.5
30263.2
30270.9
30278.6
30286.2
30293.7
30301.3
30308.8
30316.2
30323.7
30331.2
30338.7
30346.1
30353.7
30361.2
30368.7
30376.4
30384
30391.7
30399.5
30407.3
30415.2
30423.2
30431.3
30439.5
30447.8
30456.1
30464.6
30473.2
30481.9
30490.8
30499.8
30508.9
30518.1
30527.5
30537
30546.7
30556.6
30566.6
30576.8
30587.1
30597.6
30608.2
30619.1
30630.1
30641.3
30652.6
30664.2
30675.9
30687.7
30699.8
30712.1
30724.5
30737.1
30749.9
30762.9
30776
30789.4
30802.9
30816.6
30830.4
30844.4
30858.6
30873
30887.5
30902.2
30917
30932
30947.2
30962.5
30977.9
30993.5
31009.2
31025
31041
31057.1
31073.3
31089.6
31106
31122.6
31139.2
31155.9
31172.7
31189.6
31206.5
31223.6
31240.6
31257.8
31275
31292.2
31309.5
31326.8
31344.2
31361.5
31378.9
31396.3
31413.7
31431.1
31448.5
31465.9
31483.2
31500.5
31517.8
31535.1
31552.3
31569.4
31586.5
31603.6
31620.6
31637.5
31654.3
31671
31687.6
31704.2
31720.6
31737
31753.2
31769.3
31785.3
31801.1
31816.8
31832.4
31847.8
31863
31878.1
31893
31907.7
31922.3
31936.7
31950.9
31964.9
31978.7
31992.3
32005.8
32019
32032
32044.8
32057.4
32069.7
32081.8
32093.7
32105.4
32116.8
32128
32138.9
32149.6
32160
32170.2
32180.1
32189.7
32199.1
32208.2
32217.1
32225.6
32233.9
32241.9
32249.7
32257.1
32264.2
32271.1
32277.7
32283.9
32289.9
32295.6
32300.9
32306
32310.8
32315.2
32319.4
32323.2
32326.7
32329.9
32332.8
32335.4
32337.6
32339.6
32341.2
32342.5
32343.4
32344.1
32344.4
26527.8
26528.5
26529.8
26531.9
26534.6
26538
26542.1
26546.9
26552.4
26558.5
26565.3
26572.7
26580.8
26589.6
26599
26609.1
26619.8
26631.1
26643.1
26655.7
26668.9
26682.7
26697.1
26712.1
26727.7
26743.9
26760.6
26777.9
26795.7
26814.1
26833
26852.5
26872.4
26892.8
26913.7
26935.1
26957
26979.3
27002.1
27025.3
27048.9
27072.9
27097.3
27122.1
27147.2
27172.7
27198.6
27224.8
27251.3
27278.1
27305.2
27332.6
27360.2
27388.1
27416.2
27444.5
27473.1
27501.9
27530.8
27559.9
27589.1
27618.5
27648.1
27677.7
27707.4
27737.3
27767.2
27797.1
27827.1
27857.2
27887.3
27917.3
27947.4
27977.5
28007.5
28037.5
28067.4
28097.3
28127.1
28156.8
28186.4
28215.9
28245.3
28274.6
28303.7
28332.7
28361.5
28390.1
28418.5
28446.8
28474.9
28502.7
28530.3
28557.8
28584.9
28611.9
28638.6
28665
28691.2
28717.1
28742.8
28768.1
28793.2
28818
28842.5
28866.7
28890.6
28914.2
28937.4
28960.4
28983
29005.4
29027.4
29049
29070.4
29091.4
29112.1
29132.5
29152.5
29172.2
29191.5
29210.6
29229.3
29247.7
29265.7
29283.4
29300.8
29317.9
29334.6
29351
29367.1
29382.9
29398.4
29413.5
29428.4
29443
29457.2
29471.2
29484.9
29498.3
29511.4
29524.2
29536.8
29549.1
29561.1
29572.9
29584.5
29595.8
29606.9
29617.7
29628.4
29638.8
29649
29659
29668.8
29678.4
29687.9
29697.2
29706.3
29715.2
29724
29732.7
29741.2
29749.6
29757.9
29766.1
29774.1
29782.1
29790
29797.8
29805.5
29813.2
29820.8
29828.4
29835.9
29843.4
29850.8
29858.3
29865.7
29873.2
29880.6
29888.1
29895.5
29903
29910.6
29918.1
29925.8
29933.5
29941.2
29949
29956.9
29964.9
29972.9
29981.1
29989.3
29997.7
30006.1
30014.7
30023.4
30032.2
30041.2
30050.3
30059.5
30068.9
30078.4
30088.1
30097.9
30107.9
30118.1
30128.4
30138.9
30149.5
30160.3
30171.3
30182.5
30193.9
30205.4
30217.1
30229
30241.1
30253.3
30265.8
30278.4
30291.2
30304.2
30317.3
30330.7
30344.2
30357.9
30371.7
30385.8
30400
30414.3
30428.9
30443.6
30458.4
30473.4
30488.6
30503.9
30519.3
30534.9
30550.6
30566.5
30582.5
30598.6
30614.8
30631.1
30647.6
30664.1
30680.8
30697.5
30714.3
30731.2
30748.2
30765.3
30782.4
30799.5
30816.8
30834
30851.3
30868.7
30886.1
30903.5
30920.9
30938.3
30955.7
30973.1
30990.6
31008
31025.3
31042.7
31060
31077.3
31094.5
31111.7
31128.9
31145.9
31162.9
31179.9
31196.7
31213.5
31230.2
31246.7
31263.2
31279.5
31295.8
31311.9
31327.9
31343.7
31359.5
31375
31390.5
31405.7
31420.8
31435.8
31450.5
31465.1
31479.5
31493.8
31507.8
31521.7
31535.3
31548.8
31562.1
31575.1
31587.9
31600.5
31612.9
31625.1
31637
31648.7
31660.1
31671.3
31682.3
31693
31703.4
31713.6
31723.6
31733.2
31742.6
31751.8
31760.6
31769.2
31777.5
31785.5
31793.3
31800.7
31807.9
31814.8
31821.4
31827.6
31833.6
31839.3
31844.7
31849.7
31854.5
31859
31863.1
31866.9
31870.5
31873.7
31876.6
31879.1
31881.4
31883.3
31884.9
31886.2
31887.2
31887.8
31888.1
26064.5
26065.1
26066.5
26068.6
26071.3
26074.7
26078.9
26083.7
26089.1
26095.3
26102.1
26109.6
26117.7
26126.5
26136
26146.1
26156.9
26168.2
26180.3
26192.9
26206.2
26220.1
26234.5
26249.6
26265.3
26281.5
26298.3
26315.7
26333.6
26352.1
26371
26390.6
26410.6
26431.1
26452.1
26473.6
26495.6
26518
26540.8
26564.1
26587.8
26611.9
26636.4
26661.3
26686.6
26712.2
26738.2
26764.5
26791.1
26818
26845.2
26872.7
26900.4
26928.4
26956.6
26985.1
27013.7
27042.6
27071.6
27100.8
27130.2
27159.7
27189.3
27219.1
27248.9
27278.9
27308.9
27338.9
27369
27399.2
27429.4
27459.5
27489.7
27519.9
27550
27580.1
27610.1
27640.1
27670
27699.8
27729.4
27759
27788.5
27817.8
27847
27876
27904.9
27933.6
27962.1
27990.5
28018.6
28046.5
28074.2
28101.6
28128.9
28155.9
28182.6
28209.1
28235.3
28261.3
28287
28312.4
28337.5
28362.3
28386.8
28411
28435
28458.6
28481.9
28504.8
28527.5
28549.8
28571.8
28593.5
28614.9
28635.9
28656.6
28676.9
28696.9
28716.6
28736
28755
28773.7
28792
28810.1
28827.8
28845.1
28862.2
28878.9
28895.3
28911.3
28927.1
28942.5
28957.7
28972.5
28987
29001.2
29015.2
29028.8
29042.2
29055.2
29068
29080.6
29092.8
29104.8
29116.6
29128.1
29139.4
29150.4
29161.2
29171.8
29182.1
29192.3
29202.2
29212
29221.6
29231
29240.2
29249.2
29258.1
29266.9
29275.5
29284
29292.3
29300.5
29308.7
29316.7
29324.6
29332.4
29340.2
29347.9
29355.5
29363
29370.5
29378
29385.5
29392.9
29400.3
29407.7
29415
29422.4
29429.8
29437.3
29444.7
29452.2
29459.7
29467.3
29475
29482.7
29490.4
29498.3
29506.2
29514.2
29522.3
29530.6
29538.9
29547.3
29555.9
29564.5
29573.3
29582.2
29591.3
29600.5
29609.9
29619.4
29629
29638.8
29648.8
29658.9
29669.2
29679.7
29690.4
29701.2
29712.2
29723.3
29734.7
29746.2
29757.9
29769.8
29781.8
29794.1
29806.5
29819.1
29831.9
29844.9
29858.1
29871.4
29884.9
29898.6
29912.5
29926.5
29940.8
29955.1
29969.7
29984.4
29999.3
30014.3
30029.5
30044.8
30060.3
30075.9
30091.6
30107.5
30123.5
30139.6
30155.9
30172.2
30188.7
30205.3
30222
30238.7
30255.6
30272.5
30289.5
30306.6
30323.8
30341
30358.2
30375.5
30392.9
30410.3
30427.7
30445.1
30462.6
30480.1
30497.5
30515
30532.4
30549.9
30567.3
30584.7
30602.1
30619.4
30636.7
30653.9
30671.1
30688.2
30705.3
30722.3
30739.1
30756
30772.7
30789.3
30805.8
30822.2
30838.5
30854.6
30870.7
30886.6
30902.4
30918
30933.5
30948.8
30963.9
30978.9
30993.7
31008.4
31022.9
31037.1
31051.2
31065.1
31078.9
31092.4
31105.7
31118.7
31131.6
31144.3
31156.7
31168.9
31180.8
31192.6
31204.1
31215.3
31226.3
31237
31247.5
31257.7
31267.7
31277.4
31286.9
31296
31304.9
31313.5
31321.9
31329.9
31337.7
31345.1
31352.3
31359.2
31365.8
31372.1
31378.1
31383.8
31389.2
31394.3
31399.1
31403.6
31407.7
31411.6
31415.1
31418.3
31421.2
31423.8
31426
31428
31429.6
31430.9
31431.9
31432.5
31432.8
25599.3
25600
25601.3
25603.4
25606.2
25609.6
25613.7
25618.6
25624.1
25630.3
25637.1
25644.6
25652.8
25661.7
25671.2
25681.4
25692.2
25703.7
25715.8
25728.5
25741.8
25755.8
25770.4
25785.5
25801.3
25817.6
25834.5
25852
25870
25888.6
25907.7
25927.3
25947.4
25968.1
25989.2
26010.8
26032.9
26055.4
26078.4
26101.8
26125.7
26149.9
26174.6
26199.6
26225
26250.7
26276.8
26303.3
26330
26357.1
26384.4
26412
26439.9
26468.1
26496.4
26525
26553.8
26582.8
26612
26641.4
26670.9
26700.5
26730.3
26760.2
26790.2
26820.3
26850.4
26880.6
26910.9
26941.1
26971.4
27001.7
27032
27062.3
27092.6
27122.8
27152.9
27183
27213
27242.9
27272.7
27302.4
27332
27361.4
27390.7
27419.8
27448.8
27477.6
27506.2
27534.6
27562.8
27590.8
27618.6
27646.1
27673.4
27700.5
27727.3
27753.8
27780.1
27806.1
27831.8
27857.3
27882.4
27907.3
27931.9
27956.1
27980.1
28003.7
28027
28050
28072.7
28095
28117
28138.7
28160.1
28181.1
28201.8
28222.1
28242.2
28261.8
28281.2
28300.2
28318.9
28337.2
28355.2
28372.9
28390.2
28407.2
28423.9
28440.2
28456.3
28472
28487.4
28502.5
28517.3
28531.7
28545.9
28559.8
28573.4
28586.7
28599.7
28612.4
28624.9
28637.1
28649
28660.7
28672.2
28683.4
28694.3
28705.1
28715.6
28725.9
28735.9
28745.8
28755.5
28765
28774.3
28783.5
28792.5
28801.3
28810
28818.5
28826.9
28835.2
28843.3
28851.4
28859.3
28867.2
28874.9
28882.6
28890.2
28897.8
28905.3
28912.7
28920.1
28927.5
28934.8
28942.1
28949.5
28956.8
28964.1
28971.5
28978.8
28986.2
28993.7
29001.1
29008.7
29016.2
29023.9
29031.6
29039.4
29047.3
29055.2
29063.3
29071.5
29079.7
29088.1
29096.6
29105.3
29114
29122.9
29131.9
29141.1
29150.4
29159.9
29169.5
29179.3
29189.2
29199.3
29209.6
29220.1
29230.7
29241.5
29252.5
29263.6
29274.9
29286.5
29298.2
29310
29322.1
29334.3
29346.8
29359.4
29372.2
29385.2
29398.4
29411.7
29425.2
29438.9
29452.8
29466.9
29481.1
29495.5
29510.1
29524.8
29539.7
29554.7
29569.9
29585.3
29600.8
29616.4
29632.2
29648.1
29664.1
29680.3
29696.6
29713
29729.5
29746.1
29762.8
29779.6
29796.5
29813.5
29830.6
29847.7
29864.9
29882.2
29899.5
29916.8
29934.2
29951.7
29969.1
29986.6
30004.1
30021.7
30039.2
30056.7
30074.2
30091.8
30109.2
30126.7
30144.1
30161.5
30178.9
30196.2
30213.4
30230.6
30247.7
30264.8
30281.7
30298.6
30315.4
30332.1
30348.6
30365.1
30381.5
30397.7
30413.8
30429.8
30445.6
30461.3
30476.8
30492.2
30507.4
30522.5
30537.3
30552.1
30566.6
30580.9
30595.1
30609
30622.8
30636.4
30649.7
30662.9
30675.8
30688.5
30701
30713.2
30725.2
30737
30748.5
30759.8
30770.9
30781.7
30792.2
30802.5
30812.5
30822.2
30831.7
30840.9
30849.8
30858.5
30866.9
30874.9
30882.7
30890.3
30897.5
30904.4
30911
30917.3
30923.4
30929.1
30934.5
30939.6
30944.4
30948.9
30953.1
30956.9
30960.5
30963.7
30966.6
30969.2
30971.5
30973.4
30975
30976.3
30977.3
30977.9
30978.3
25132.2
25132.9
25134.3
25136.4
25139.1
25142.6
25146.8
25151.6
25157.2
25163.4
25170.3
25177.9
25186.2
25195.1
25204.7
25214.9
25225.8
25237.4
25249.6
25262.4
25275.8
25289.9
25304.6
25319.8
25335.7
25352.2
25369.2
25386.8
25404.9
25423.6
25442.9
25462.6
25482.9
25503.7
25525
25546.7
25569
25591.7
25614.8
25638.4
25662.4
25686.8
25711.6
25736.8
25762.4
25788.3
25814.6
25841.2
25868.2
25895.4
25922.9
25950.7
25978.8
26007.1
26035.7
26064.4
26093.4
26122.6
26152
26181.5
26211.2
26241
26271
26301
26331.2
26361.5
26391.8
26422.1
26452.6
26483
26513.5
26543.9
26574.4
26604.9
26635.3
26665.6
26695.9
26726.1
26756.3
26786.3
26816.3
26846.1
26875.8
26905.4
26934.8
26964.1
26993.1
27022
27050.8
27079.3
27107.6
27135.7
27163.5
27191.2
27218.5
27245.7
27272.6
27299.2
27325.5
27351.6
27377.4
27402.9
27428.1
27453
27477.6
27501.9
27525.9
27549.6
27572.9
27595.9
27618.6
27641
27663
27684.7
27706.1
27727.1
27747.8
27768.1
27788.1
27807.8
27827.1
27846.1
27864.8
27883.1
27901
27918.7
27936
27952.9
27969.6
27985.9
28001.9
28017.5
28032.9
28047.9
28062.6
28077.1
28091.2
28105
28118.5
28131.7
28144.7
28157.3
28169.7
28181.9
28193.7
28205.3
28216.7
28227.8
28238.7
28249.3
28259.8
28270
28280
28289.8
28299.4
28308.8
28318
28327.1
28336
28344.7
28353.3
28361.7
28370
28378.2
28386.3
28394.2
28402.1
28409.8
28417.5
28425.1
28432.6
28440.1
28447.5
28454.8
28462.2
28469.4
28476.7
28483.9
28491.2
28498.4
28505.7
28512.9
28520.2
28527.5
28534.9
28542.3
28549.8
28557.3
28564.8
28572.5
28580.2
28588
28595.9
28603.9
28612
28620.3
28628.6
28637
28645.6
28654.3
28663.2
28672.2
28681.3
28690.6
28700
28709.6
28719.3
28729.2
28739.3
28749.6
28760
28770.6
28781.4
28792.3
28803.4
28814.8
28826.3
28837.9
28849.8
28861.9
28874.1
28886.5
28899.2
28912
28925
28938.1
28951.5
28965
28978.7
28992.6
29006.7
29020.9
29035.4
29050
29064.7
29079.6
29094.7
29109.9
29125.3
29140.8
29156.5
29172.3
29188.3
29204.4
29220.6
29236.9
29253.4
29269.9
29286.6
29303.3
29320.2
29337.2
29354.2
29371.3
29388.5
29405.8
29423.1
29440.5
29457.9
29475.4
29492.9
29510.4
29528
29545.5
29563.1
29580.7
29598.3
29615.9
29633.5
29651.1
29668.6
29686.1
29703.6
29721
29738.4
29755.7
29773
29790.2
29807.3
29824.4
29841.3
29858.2
29874.9
29891.6
29908.1
29924.6
29940.9
29957.1
29973.1
29989
30004.8
30020.4
30035.9
30051.2
30066.3
30081.3
30096
30110.6
30125.1
30139.3
30153.3
30167.2
30180.8
30194.2
30207.5
30220.4
30233.2
30245.8
30258.1
30270.2
30282
30293.6
30305
30316.1
30326.9
30337.5
30347.8
30357.9
30367.7
30377.2
30386.5
30395.5
30404.2
30412.6
30420.7
30428.5
30436.1
30443.3
30450.3
30457
30463.3
30469.4
30475.1
30480.6
30485.7
30490.5
30495
30499.2
30503.1
30506.7
30509.9
30512.8
30515.4
30517.7
30519.6
30521.3
30522.6
30523.6
30524.2
30524.5
24663.3
24663.9
24665.3
24667.4
24670.3
24673.8
24678
24682.9
24688.5
24694.7
24701.7
24709.4
24717.7
24726.7
24736.4
24746.7
24757.7
24769.4
24781.7
24794.6
24808.2
24822.3
24837.1
24852.6
24868.6
24885.2
24902.3
24920.1
24938.4
24957.3
24976.7
24996.6
25017
25038
25059.5
25081.4
25103.8
25126.7
25150.1
25173.9
25198.1
25222.7
25247.7
25273.1
25298.9
25325
25351.5
25378.3
25405.5
25432.9
25460.7
25488.7
25517
25545.5
25574.3
25603.3
25632.5
25661.9
25691.5
25721.2
25751.1
25781.2
25811.4
25841.6
25872
25902.5
25933
25963.6
25994.2
26024.8
26055.5
26086.2
26116.8
26147.5
26178.1
26208.6
26239.1
26269.5
26299.8
26330
26360.2
26390.1
26420
26449.7
26479.3
26508.7
26537.9
26567
26595.8
26624.4
26652.9
26681.1
26709.1
26736.8
26764.3
26791.5
26818.5
26845.2
26871.6
26897.8
26923.7
26949.2
26974.5
26999.5
27024.1
27048.5
27072.5
27096.2
27119.6
27142.6
27165.4
27187.7
27209.8
27231.5
27252.9
27273.9
27294.6
27314.9
27334.9
27354.6
27373.9
27392.8
27411.4
27429.7
27447.6
27465.2
27482.5
27499.4
27516
27532.3
27548.2
27563.8
27579.1
27594
27608.7
27623
27637.1
27650.8
27664.2
27677.4
27690.2
27702.8
27715.1
27727.2
27738.9
27750.4
27761.7
27772.7
27783.5
27794
27804.4
27814.5
27824.4
27834.1
27843.6
27852.9
27862
27870.9
27879.7
27888.3
27896.8
27905.2
27913.4
27921.4
27929.4
27937.2
27945
27952.6
27960.2
27967.6
27975.1
27982.4
27989.7
27997
28004.2
28011.3
28018.5
28025.7
28032.8
28039.9
28047.1
28054.3
28061.5
28068.7
28075.9
28083.3
28090.6
28098
28105.5
28113.1
28120.8
28128.5
28136.3
28144.3
28152.3
28160.4
28168.7
28177.1
28185.6
28194.2
28203
28212
28221
28230.3
28239.6
28249.2
28258.9
28268.8
28278.8
28289
28299.4
28310
28320.7
28331.6
28342.8
28354.1
28365.5
28377.2
28389.1
28401.1
28413.4
28425.8
28438.4
28451.2
28464.2
28477.4
28490.7
28504.3
28518
28531.9
28546
28560.3
28574.7
28589.4
28604.1
28619.1
28634.2
28649.5
28664.9
28680.5
28696.2
28712
28728
28744.2
28760.4
28776.8
28793.3
28810
28826.7
28843.5
28860.4
28877.5
28894.6
28911.8
28929
28946.3
28963.7
28981.2
28998.7
29016.2
29033.8
29051.5
29069.1
29086.8
29104.5
29122.1
29139.8
29157.5
29175.2
29192.9
29210.5
29228.1
29245.7
29263.2
29280.7
29298.1
29315.4
29332.7
29349.9
29367.1
29384.1
29401.1
29417.9
29434.7
29451.3
29467.9
29484.3
29500.6
29516.7
29532.7
29548.6
29564.3
29579.8
29595.2
29610.5
29625.5
29640.4
29655.1
29669.6
29683.9
29698.1
29712
29725.7
29739.2
29752.5
29765.6
29778.5
29791.1
29803.5
29815.6
29827.6
29839.2
29850.7
29861.8
29872.8
29883.4
29893.8
29904
29913.8
29923.4
29932.7
29941.8
29950.5
29959
29967.2
29975.1
29982.7
29990
29997
30003.7
30010.1
30016.2
30021.9
30027.4
30032.6
30037.4
30042
30046.2
30050.1
30053.7
30056.9
30059.9
30062.5
30064.8
30066.7
30068.4
30069.7
30070.7
30071.3
30071.7
24192.4
24193.1
24194.5
24196.6
24199.5
24203
24207.3
24212.2
24217.9
24224.2
24231.3
24239
24247.4
24256.5
24266.3
24276.7
24287.9
24299.6
24312
24325.1
24338.8
24353.1
24368.1
24383.7
24399.8
24416.6
24433.9
24451.9
24470.4
24489.4
24509
24529.2
24549.8
24571
24592.7
24614.8
24637.5
24660.6
24684.1
24708.2
24732.6
24757.4
24782.7
24808.3
24834.4
24860.8
24887.5
24914.6
24942
24969.7
24997.7
25025.9
25054.5
25083.3
25112.3
25141.6
25171
25200.7
25230.5
25260.5
25290.7
25321
25351.4
25381.9
25412.6
25443.3
25474
25504.9
25535.7
25566.6
25597.5
25628.4
25659.3
25690.2
25721
25751.7
25782.4
25813
25843.6
25874
25904.3
25934.5
25964.5
25994.4
26024.2
26053.7
26083.1
26112.3
26141.3
26170.1
26198.7
26227.1
26255.2
26283
26310.6
26338
26365.1
26391.9
26418.4
26444.7
26470.6
26496.3
26521.6
26546.7
26571.4
26595.8
26619.9
26643.6
26667
26690.1
26712.9
26735.3
26757.3
26779.1
26800.4
26821.5
26842.1
26862.5
26882.4
26902.1
26921.4
26940.3
26958.9
26977.1
26995
27012.5
27029.7
27046.6
27063.1
27079.3
27095.2
27110.7
27125.9
27140.8
27155.4
27169.6
27183.6
27197.2
27210.6
27223.6
27236.4
27248.8
27261
27273
27284.6
27296
27307.2
27318.1
27328.7
27339.2
27349.4
27359.4
27369.1
27378.7
27388.1
27397.2
27406.2
27415.1
27423.7
27432.2
27440.6
27448.8
27456.8
27464.8
27472.6
27480.3
27487.9
27495.4
27502.9
27510.2
27517.5
27524.7
27531.9
27539
27546.1
27553.2
27560.2
27567.3
27574.3
27581.3
27588.4
27595.4
27602.5
27609.6
27616.8
27624
27631.2
27638.6
27646
27653.4
27661
27668.6
27676.4
27684.2
27692.2
27700.2
27708.4
27716.7
27725.2
27733.8
27742.5
27751.3
27760.4
27769.5
27778.9
27788.3
27798
27807.8
27817.8
27828
27838.3
27848.9
27859.6
27870.5
27881.6
27892.9
27904.3
27916
27927.8
27939.9
27952.1
27964.5
27977.1
27989.9
28002.9
28016.1
28029.5
28043.1
28056.8
28070.8
28084.9
28099.2
28113.6
28128.3
28143.1
28158.1
28173.2
28188.6
28204
28219.7
28235.4
28251.3
28267.4
28283.6
28299.9
28316.4
28332.9
28349.6
28366.4
28383.3
28400.3
28417.4
28434.6
28451.9
28469.2
28486.6
28504.1
28521.7
28539.3
28556.9
28574.6
28592.3
28610.1
28627.8
28645.6
28663.4
28681.2
28699
28716.8
28734.5
28752.3
28770
28787.7
28805.3
28822.9
28840.4
28857.9
28875.3
28892.6
28909.9
28927
28944.1
28961.1
28978
28994.7
29011.4
29027.9
29044.3
29060.5
29076.7
29092.6
29108.5
29124.1
29139.6
29155
29170.1
29185.1
29199.9
29214.6
29229
29243.2
29257.3
29271.1
29284.7
29298.1
29311.3
29324.2
29336.9
29349.4
29361.7
29373.7
29385.5
29397
29408.2
29419.2
29430
29440.4
29450.7
29460.6
29470.3
29479.6
29488.8
29497.6
29506.1
29514.3
29522.3
29530
29537.3
29544.4
29551.1
29557.6
29563.7
29569.5
29575.1
29580.3
29585.1
29589.7
29594
29597.9
29601.5
29604.8
29607.7
29610.4
29612.7
29614.7
29616.3
29617.6
29618.6
29619.3
29619.6
23719.6
23720.3
23721.8
23723.9
23726.8
23730.4
23734.7
23739.7
23745.4
23751.8
23759
23766.8
23775.3
23784.5
23794.4
23805
23816.2
23828.1
23840.7
23853.9
23867.8
23882.3
23897.4
23913.1
23929.5
23946.4
23964
23982.1
24000.8
24020.1
24039.9
24060.3
24081.2
24102.6
24124.5
24146.9
24169.8
24193.2
24217
24241.3
24266
24291.1
24316.7
24342.6
24368.9
24395.6
24422.6
24449.9
24477.6
24505.6
24533.9
24562.5
24591.3
24620.4
24649.7
24679.3
24709.1
24739
24769.1
24799.4
24829.9
24860.5
24891.2
24922
24952.9
24983.9
25015
25046.1
25077.2
25108.3
25139.5
25170.7
25201.8
25232.9
25264
25295
25326
25356.8
25387.6
25418.2
25448.8
25479.2
25509.4
25539.5
25569.5
25599.2
25628.8
25658.2
25687.4
25716.4
25745.1
25773.6
25801.9
25829.9
25857.6
25885.1
25912.3
25939.3
25965.9
25992.3
26018.3
26044.1
26069.5
26094.6
26119.4
26143.9
26168
26191.8
26215.3
26238.4
26261.2
26283.6
26305.7
26327.4
26348.8
26369.8
26390.5
26410.8
26430.8
26450.4
26469.6
26488.5
26507.1
26525.3
26543.1
26560.6
26577.7
26594.5
26611
26627.1
26642.9
26658.3
26673.5
26688.3
26702.7
26716.9
26730.7
26744.3
26757.5
26770.4
26783.1
26795.4
26807.5
26819.3
26830.8
26842.1
26853.1
26863.9
26874.4
26884.7
26894.8
26904.6
26914.3
26923.7
26932.9
26941.9
26950.8
26959.5
26968
26976.3
26984.5
26992.6
27000.5
27008.3
27016
27023.5
27031
27038.4
27045.7
27052.9
27060
27067.1
27074.1
27081.1
27088.1
27095
27101.9
27108.8
27115.7
27122.6
27129.5
27136.4
27143.4
27150.3
27157.4
27164.5
27171.6
27178.8
27186.1
27193.5
27200.9
27208.5
27216.1
27223.8
27231.7
27239.7
27247.8
27256
27264.4
27272.9
27281.5
27290.3
27299.2
27308.3
27317.6
27327
27336.6
27346.4
27356.3
27366.5
27376.8
27387.3
27398
27408.8
27419.9
27431.1
27442.6
27454.2
27466
27478.1
27490.3
27502.7
27515.3
27528.1
27541.2
27554.4
27567.7
27581.3
27595.1
27609.1
27623.2
27637.5
27652
27666.7
27681.6
27696.6
27711.8
27727.2
27742.7
27758.4
27774.2
27790.2
27806.3
27822.6
27839
27855.5
27872.1
27888.9
27905.8
27922.8
27939.9
27957
27974.3
27991.7
28009.1
28026.6
28044.2
28061.9
28079.6
28097.3
28115.1
28132.9
28150.8
28168.7
28186.6
28204.5
28222.4
28240.3
28258.2
28276.1
28294
28311.8
28329.6
28347.4
28365.1
28382.8
28400.4
28417.9
28435.4
28452.7
28470
28487.2
28504.4
28521.4
28538.3
28555
28571.7
28588.2
28604.6
28620.8
28637
28652.9
28668.7
28684.3
28699.8
28715.1
28730.2
28745.2
28759.9
28774.5
28788.8
28803
28816.9
28830.6
28844.1
28857.4
28870.5
28883.3
28895.9
28908.3
28920.4
28932.2
28943.9
28955.2
28966.3
28977.2
28987.7
28998
29008
29017.8
29027.3
29036.4
29045.3
29053.9
29062.3
29070.3
29078
29085.4
29092.5
29099.3
29105.9
29112
29117.9
29123.5
29128.7
29133.7
29138.3
29142.6
29146.5
29150.2
29153.5
29156.5
29159.1
29161.4
29163.4
29165.1
29166.4
29167.4
29168.1
29168.4
23244.9
23245.6
23247.1
23249.2
23252.1
23255.8
23260.1
23265.2
23271
23277.5
23284.7
23292.7
23301.3
23310.6
23320.7
23331.4
23342.8
23354.8
23367.6
23380.9
23395
23409.7
23425
23441
23457.5
23474.7
23492.5
23510.8
23529.8
23549.3
23569.4
23590
23611.2
23632.9
23655
23677.7
23700.9
23724.6
23748.7
23773.3
23798.3
23823.7
23849.6
23875.8
23902.4
23929.4
23956.8
23984.5
24012.5
24040.8
24069.4
24098.3
24127.5
24156.9
24186.6
24216.5
24246.6
24276.8
24307.3
24337.9
24368.7
24399.6
24430.7
24461.8
24493
24524.3
24555.7
24587.1
24618.6
24650
24681.5
24713
24744.4
24775.8
24807.2
24838.5
24869.7
24900.8
24931.8
24962.8
24993.6
25024.2
25054.7
25085
25115.2
25145.2
25175
25204.6
25234
25263.1
25292.1
25320.8
25349.2
25377.4
25405.3
25432.9
25460.3
25487.3
25514.1
25540.6
25566.7
25592.6
25618.1
25643.3
25668.2
25692.7
25716.9
25740.8
25764.3
25787.5
25810.3
25832.7
25854.9
25876.6
25898
25919
25939.7
25960
25979.9
25999.5
26018.7
26037.6
26056.1
26074.2
26092
26109.4
26126.5
26143.2
26159.6
26175.6
26191.3
26206.7
26221.7
26236.4
26250.7
26264.8
26278.5
26291.9
26305
26317.8
26330.4
26342.6
26354.5
26366.2
26377.6
26388.7
26399.6
26410.2
26420.5
26430.7
26440.6
26450.3
26459.7
26469
26478.1
26486.9
26495.6
26504.1
26512.5
26520.7
26528.7
26536.6
26544.3
26552
26559.5
26566.9
26574.2
26581.4
26588.5
26595.5
26602.5
26609.4
26616.3
26623.1
26629.9
26636.7
26643.4
26650.2
26656.9
26663.6
26670.4
26677.2
26684
26690.9
26697.8
26704.7
26711.7
26718.8
26726
26733.2
26740.5
26748
26755.5
26763.1
26770.9
26778.7
26786.7
26794.9
26803.1
26811.5
26820.1
26828.8
26837.7
26846.7
26855.9
26865.2
26874.8
26884.5
26894.4
26904.4
26914.7
26925.2
26935.8
26946.6
26957.7
26968.9
26980.3
26991.9
27003.7
27015.7
27028
27040.4
27053
27065.8
27078.8
27092
27105.4
27119
27132.8
27146.8
27161
27175.4
27189.9
27204.6
27219.5
27234.6
27249.9
27265.3
27280.9
27296.6
27312.5
27328.6
27344.8
27361.1
27377.6
27394.2
27410.9
27427.8
27444.7
27461.8
27479
27496.3
27513.7
27531.2
27548.7
27566.3
27584
27601.8
27619.6
27637.5
27655.4
27673.4
27691.3
27709.4
27727.4
27745.4
27763.5
27781.5
27799.6
27817.6
27835.6
27853.6
27871.5
27889.4
27907.3
27925.1
27942.9
27960.5
27978.2
27995.7
28013.1
28030.5
28047.7
28064.9
28081.9
28098.9
28115.7
28132.3
28148.9
28165.3
28181.5
28197.6
28213.6
28229.4
28245
28260.4
28275.7
28290.8
28305.6
28320.3
28334.8
28349.1
28363.2
28377
28390.7
28404.1
28417.3
28430.2
28443
28455.4
28467.7
28479.6
28491.4
28502.8
28514
28525
28535.6
28546
28556.2
28566
28575.6
28584.8
28593.8
28602.5
28610.9
28619
28626.8
28634.3
28641.5
28648.4
28654.9
28661.2
28667.1
28672.7
28678
28683
28687.6
28692
28696
28699.6
28703
28706
28708.7
28711
28713
28714.7
28716.1
28717.1
28717.7
28718.1
22768.2
22768.9
22770.4
22772.6
22775.6
22779.2
22783.7
22788.8
22794.7
22801.3
22808.6
22816.7
22825.4
22834.9
22845.1
22855.9
22867.5
22879.7
22892.7
22906.2
22920.5
22935.4
22950.9
22967.1
22983.9
23001.3
23019.4
23038
23057.2
23077
23097.4
23118.3
23139.7
23161.7
23184.2
23207.2
23230.7
23254.7
23279.2
23304.1
23329.4
23355.2
23381.4
23408
23435
23462.3
23490
23518.1
23546.5
23575.2
23604.1
23633.4
23663
23692.8
23722.8
23753.1
23783.5
23814.2
23845
23876
23907.2
23938.5
23969.9
24001.4
24033
24064.6
24096.3
24128.1
24159.9
24191.7
24223.5
24255.3
24287.1
24318.8
24350.5
24382.1
24413.6
24445.1
24476.4
24507.6
24538.7
24569.6
24600.4
24631
24661.4
24691.6
24721.7
24751.5
24781.1
24810.5
24839.6
24868.5
24897.1
24925.5
24953.6
24981.4
25008.9
25036.1
25063
25089.6
25115.9
25141.9
25167.5
25192.8
25217.8
25242.4
25266.7
25290.6
25314.2
25337.4
25360.2
25382.7
25404.8
25426.6
25448
25469
25489.7
25510
25529.9
25549.4
25568.6
25587.4
25605.9
25623.9
25641.7
25659
25676
25692.7
25708.9
25724.9
25740.5
25755.7
25770.6
25785.2
25799.4
25813.4
25826.9
25840.2
25853.2
25865.9
25878.2
25890.3
25902.1
25913.6
25924.8
25935.8
25946.5
25956.9
25967.1
25977.1
25986.8
25996.3
26005.6
26014.7
26023.6
26032.2
26040.7
26049.1
26057.2
26065.2
26073.1
26080.8
26088.3
26095.8
26103.1
26110.3
26117.4
26124.4
26131.4
26138.2
26145
26151.8
26158.4
26165.1
26171.7
26178.3
26184.9
26191.4
26198
26204.6
26211.2
26217.8
26224.5
26231.2
26237.9
26244.7
26251.6
26258.5
26265.5
26272.6
26279.8
26287.1
26294.5
26302
26309.6
26317.4
26325.3
26333.3
26341.4
26349.8
26358.2
26366.8
26375.6
26384.5
26393.7
26402.9
26412.4
26422
26431.9
26441.9
26452.1
26462.5
26473.1
26483.9
26494.9
26506.1
26517.5
26529
26540.8
26552.9
26565.1
26577.5
26590.1
26602.9
26615.9
26629.2
26642.6
26656.2
26670
26684
26698.2
26712.6
26727.2
26742
26757
26772.1