/*--------------------------------*- C++ -*----------------------------------*\
| =========                 |                                                 |
| \\      /  F ield         | OpenFOAM: The Open Source CFD Toolbox           |
|  \\    /   O peration     | Version:  v2006                                 |
|   \\  /    A nd           | Website:  www.openfoam.com                      |
|    \\/     M anipulation  |                                                 |
\*---------------------------------------------------------------------------*/
FoamFile
{
    version     2.0;
    format      ascii;
    class       volVectorField;
    location    "0";
    object      U;
}
// * * * * * * * * * * * * * * * * * * * * * * * * * * * * * * * * * * * * * //

dimensions      [0 1 -1 0 0 0 0];


internalField   nonuniform List<vector> 
20000
(
(1 -4.25862e-10 0)
(1 -1.63108e-09 0)
(1 -3.36319e-09 0)
(1 -5.94718e-09 0)
(1 -9.37532e-09 0)
(1 -1.32124e-08 0)
(1 -1.6958e-08 0)
(1 -2.03456e-08 0)
(1 -2.33917e-08 0)
(1 -2.62567e-08 0)
(1 -2.90812e-08 0)
(1 -3.18917e-08 0)
(1 -3.45872e-08 0)
(1 -3.69302e-08 0)
(1 -3.84601e-08 0)
(1 -3.83841e-08 0)
(1 -3.56997e-08 0)
(1 -2.97193e-08 0)
(1 -2.07355e-08 0)
(1 -9.95062e-09 0)
(1 -2.46454e-10 0)
(1 3.8571e-09 0)
(1 -9.7196e-10 0)
(1 -1.6378e-08 0)
(1 -4.01141e-08 0)
(1 -6.41123e-08 0)
(1 -7.86846e-08 0)
(1 -7.8232e-08 0)
(1 -6.39555e-08 0)
(1.00001 -4.21767e-08 0)
(1.00001 -1.91416e-08 0)
(1.00001 1.92655e-09 0)
(1.00001 1.87663e-08 0)
(1.00001 3.13535e-08 0)
(1.00001 4.17211e-08 0)
(1 5.15189e-08 0)
(1 6.06219e-08 0)
(1 6.70386e-08 0)
(1 6.84524e-08 0)
(1 6.37633e-08 0)
(1 5.38668e-08 0)
(1 4.07845e-08 0)
(1 2.61426e-08 0)
(1 1.12734e-08 0)
(1 -3.31928e-09 0)
(1 -1.92594e-08 0)
(1 -3.71725e-08 0)
(1 -5.52891e-08 0)
(1 -7.23468e-08 0)
(1 -8.7397e-08 0)
(1 -9.96579e-08 0)
(1 -1.10813e-07 0)
(1.00001 -1.22182e-07 0)
(1.00001 -1.22673e-07 0)
(1.00001 -9.1353e-08 0)
(1.00001 -1.97924e-08 0)
(1.00001 6.83796e-08 0)
(1.00001 1.35842e-07 0)
(1.00001 1.87309e-07 0)
(1.00001 2.30757e-07 0)
(1.00001 2.68018e-07 0)
(1.00001 2.97806e-07 0)
(1 3.19825e-07 0)
(1 3.32662e-07 0)
(1 3.34126e-07 0)
(1 3.23192e-07 0)
(0.999998 2.98722e-07 0)
(0.999997 2.60534e-07 0)
(0.999995 2.10476e-07 0)
(0.999994 1.51957e-07 0)
(0.999992 8.93701e-08 0)
(0.999991 2.79381e-08 0)
(0.99999 -2.28688e-08 0)
(0.999989 -4.88879e-08 0)
(0.999988 -4.45969e-08 0)
(0.999987 -2.22242e-08 0)
(0.999987 -2.37707e-09 0)
(0.999986 2.76991e-09 0)
(0.999986 -4.93407e-09 0)
(0.999986 -1.89467e-08 0)
(0.999986 -3.68629e-08 0)
(0.999986 -5.63049e-08 0)
(0.999986 -7.38001e-08 0)
(0.999987 -8.9079e-08 0)
(0.999988 -1.04436e-07 0)
(0.999988 -1.22198e-07 0)
(0.999989 -1.4177e-07 0)
(0.99999 -1.58279e-07 0)
(0.999991 -1.64561e-07 0)
(0.999992 -1.55505e-07 0)
(0.999993 -1.31848e-07 0)
(0.999994 -1.00599e-07 0)
(0.999995 -7.13085e-08 0)
(0.999995 -5.08542e-08 0)
(0.999995 -4.08549e-08 0)
(0.999996 -3.89664e-08 0)
(0.999996 -4.1603e-08 0)
(0.999996 -4.56696e-08 0)
(0.999996 -4.91068e-08 0)
(0.999997 -5.08882e-08 0)
(0.999997 -5.07749e-08 0)
(0.999998 -4.89914e-08 0)
(0.999998 -4.59628e-08 0)
(0.999998 -4.21467e-08 0)
(0.999998 -3.79434e-08 0)
(0.999999 -3.3661e-08 0)
(0.999999 -2.95143e-08 0)
(0.999999 -2.56378e-08 0)
(0.999999 -2.21044e-08 0)
(0.999999 -1.89429e-08 0)
(0.999999 -1.6153e-08 0)
(1 -1.37167e-08 0)
(1 -1.16059e-08 0)
(1 -9.78825e-09 0)
(1 -8.23047e-09 0)
(1 -6.90057e-09 0)
(1 -5.76887e-09 0)
(1 -4.80846e-09 0)
(1 -3.99525e-09 0)
(1 -3.30807e-09 0)
(1 -2.72852e-09 0)
(1 -2.24061e-09 0)
(1 -1.83057e-09 0)
(1 -1.48667e-09 0)
(1 -1.19884e-09 0)
(1 -9.58481e-10 0)
(1 -7.58152e-10 0)
(1 -5.91354e-10 0)
(1 -4.5281e-10 0)
(1 -3.38485e-10 0)
(1 -2.44628e-10 0)
(1 -1.66268e-10 0)
(1 -9.7059e-11 0)
(1 -3.63191e-11 0)
(1 1.84356e-11 0)
(1 6.2844e-11 0)
(1 9.31656e-11 0)
(1 1.10229e-10 0)
(1 1.17773e-10 0)
(1 1.19467e-10 0)
(1 1.17899e-10 0)
(1 1.14616e-10 0)
(1 1.10449e-10 0)
(1 1.05819e-10 0)
(1 1.00949e-10 0)
(1 9.59712e-11 0)
(1 9.09732e-11 0)
(1 8.60239e-11 0)
(1 8.11647e-11 0)
(1 7.64345e-11 0)
(1 7.18545e-11 0)
(1 6.74473e-11 0)
(1 6.32231e-11 0)
(1 5.91925e-11 0)
(1 5.5363e-11 0)
(1 5.17244e-11 0)
(1 4.8281e-11 0)
(1 4.50271e-11 0)
(1 4.19624e-11 0)
(1 3.90836e-11 0)
(1 3.63771e-11 0)
(1 3.38339e-11 0)
(1 3.14523e-11 0)
(1 2.92246e-11 0)
(1 2.71431e-11 0)
(1 2.52004e-11 0)
(1 2.33849e-11 0)
(1 2.16888e-11 0)
(1 2.01028e-11 0)
(1 1.86233e-11 0)
(1 1.72465e-11 0)
(1 1.59635e-11 0)
(1 1.47694e-11 0)
(1 1.3659e-11 0)
(1 1.26259e-11 0)
(1 1.16642e-11 0)
(1 1.07682e-11 0)
(1 9.93059e-12 0)
(1 9.14824e-12 0)
(1 8.42084e-12 0)
(1 7.74144e-12 0)
(1 7.10617e-12 0)
(1 6.5135e-12 0)
(1 5.95871e-12 0)
(1 5.439e-12 0)
(1 4.95173e-12 0)
(1 4.49374e-12 0)
(1 4.06263e-12 0)
(1 3.65439e-12 0)
(1 3.26715e-12 0)
(1 2.89903e-12 0)
(1 2.54801e-12 0)
(1 2.2129e-12 0)
(1 1.8917e-12 0)
(1 1.58103e-12 0)
(1 1.27795e-12 0)
(1 9.78465e-13 0)
(1 6.95995e-13 0)
(1 3.30067e-13 0)
(1 1.64343e-13 0)
(1 -1.27614e-09 0)
(1 -4.88876e-09 0)
(1 -1.00813e-08 0)
(1 -1.7828e-08 0)
(1 -2.81057e-08 0)
(1 -3.96099e-08 0)
(1 -5.08406e-08 0)
(1 -6.10007e-08 0)
(1 -7.01397e-08 0)
(1 -7.87374e-08 0)
(1 -8.72244e-08 0)
(1 -9.56999e-08 0)
(1 -1.03825e-07 0)
(1 -1.10768e-07 0)
(1 -1.15143e-07 0)
(1 -1.1501e-07 0)
(1 -1.08149e-07 0)
(1 -9.27684e-08 0)
(1 -6.85841e-08 0)
(1 -3.78364e-08 0)
(1 -7.52242e-09 0)
(1 9.80816e-09 0)
(1 5.08387e-10 0)
(1 -4.33585e-08 0)
(1 -1.14683e-07 0)
(1 -1.88869e-07 0)
(1 -2.36249e-07 0)
(1 -2.38955e-07 0)
(1 -1.99295e-07 0)
(1.00001 -1.35096e-07 0)
(1.00001 -6.6648e-08 0)
(1.00001 -6.67136e-09 0)
(1.00001 4.04369e-08 0)
(1.00001 7.71581e-08 0)
(1.00001 1.08769e-07 0)
(1.00001 1.38955e-07 0)
(1 1.68093e-07 0)
(1 1.92448e-07 0)
(1 2.05608e-07 0)
(1 2.02384e-07 0)
(1 1.82292e-07 0)
(1 1.48688e-07 0)
(1 1.05481e-07 0)
(1 5.6109e-08 0)
(1 3.11152e-09 0)
(1 -5.28218e-08 0)
(1 -1.1016e-07 0)
(1 -1.65678e-07 0)
(1 -2.16951e-07 0)
(1 -2.62168e-07 -1.42784e-40)
(1 -3.00042e-07 -1.65719e-40)
(1 -3.30546e-07 0)
(1.00001 -3.52162e-07 0)
(1.00001 -3.5606e-07 0)
(1.00001 -3.30177e-07 0)
(1.00001 -2.70969e-07 0)
(1.00001 -1.94193e-07 0)
(1.00001 -1.23528e-07 0)
(1.00001 -4.75768e-08 0)
(1.00001 3.62667e-08 0)
(1.00001 1.30882e-07 0)
(1.00001 2.42548e-07 0)
(1.00002 3.50694e-07 0)
(1.00002 4.54107e-07 0)
(1.00002 5.51075e-07 0)
(1.00001 6.37947e-07 0)
(1.00001 7.10511e-07 0)
(1.00001 7.65168e-07 0)
(1.00001 7.9917e-07 0)
(1.00001 8.1045e-07 0)
(1 7.97942e-07 0)
(1 7.62772e-07 0)
(0.999998 7.11223e-07 0)
(0.999995 6.52312e-07 0)
(0.999992 5.87002e-07 0)
(0.99999 5.06621e-07 0)
(0.999988 4.04044e-07 0)
(0.999987 2.82478e-07 0)
(0.999986 1.55572e-07 0)
(0.999986 3.78181e-08 0)
(0.999986 -6.39843e-08 0)
(0.999986 -1.46625e-07 0)
(0.999986 -2.10215e-07 0)
(0.999987 -2.60962e-07 0)
(0.999988 -3.09241e-07 0)
(0.999988 -3.63826e-07 0)
(0.999989 -4.23712e-07 0)
(0.99999 -4.74407e-07 0)
(0.999991 -4.94192e-07 0)
(0.999992 -4.67443e-07 0)
(0.999993 -3.96272e-07 0)
(0.999994 -3.01897e-07 0)
(0.999995 -2.13363e-07 0)
(0.999995 -1.51609e-07 0)
(0.999995 -1.2155e-07 0)
(0.999996 -1.1605e-07 0)
(0.999996 -1.24224e-07 0)
(0.999996 -1.36686e-07 0)
(0.999996 -1.472e-07 0)
(0.999997 -1.52665e-07 0)
(0.999997 -1.52378e-07 0)
(0.999998 -1.47036e-07 0)
(0.999998 -1.37935e-07 0)
(0.999998 -1.26465e-07 0)
(0.999998 -1.13834e-07 0)
(0.999999 -1.0097e-07 0)
(0.999999 -8.85188e-08 0)
(0.999999 -7.68832e-08 0)
(0.999999 -6.62803e-08 0)
(0.999999 -5.67956e-08 0)
(0.999999 -4.84274e-08 0)
(1 -4.11208e-08 0)
(1 -3.47914e-08 0)
(1 -2.93419e-08 0)
(1 -2.46725e-08 0)
(1 -2.06868e-08 0)
(1 -1.72951e-08 0)
(1 -1.44164e-08 0)
(1 -1.19787e-08 0)
(1 -9.91847e-09 0)
(1 -8.18062e-09 0)
(1 -6.71741e-09 0)
(1 -5.48769e-09 0)
(1 -4.45623e-09 0)
(1 -3.59285e-09 0)
(1 -2.87175e-09 0)
(1 -2.27088e-09 0)
(1 -1.77143e-09 0)
(1 -1.35755e-09 0)
(1 -1.01596e-09 0)
(1 -7.3501e-10 0)
(1 -5.03502e-10 0)
(1 -3.10729e-10 0)
(1 -1.51967e-10 0)
(1 -2.08653e-11 0)
(1 8.22944e-11 0)
(1 1.59506e-10 0)
(1 2.14478e-10 0)
(1 2.52266e-10 0)
(1 2.776e-10 0)
(1 2.93844e-10 0)
(1 3.03196e-10 0)
(1 3.07175e-10 0)
(1 3.06924e-10 0)
(1 3.03347e-10 0)
(1 2.97184e-10 0)
(1 2.89044e-10 0)
(1 2.79438e-10 0)
(1 2.6877e-10 0)
(1 2.57388e-10 0)
(1 2.45565e-10 0)
(1 2.33529e-10 0)
(1 2.21452e-10 0)
(1 2.09476e-10 0)
(1 1.9772e-10 0)
(1 1.86254e-10 0)
(1 1.75149e-10 0)
(1 1.64449e-10 0)
(1 1.54189e-10 0)
(1 1.44393e-10 0)
(1 1.35063e-10 0)
(1 1.26198e-10 0)
(1 1.17805e-10 0)
(1 1.09879e-10 0)
(1 1.02406e-10 0)
(1 9.53725e-11 0)
(1 8.87579e-11 0)
(1 8.25474e-11 0)
(1 7.67223e-11 0)
(1 7.12668e-11 0)
(1 6.61642e-11 0)
(1 6.13909e-11 0)
(1 5.69307e-11 0)
(1 5.27666e-11 0)
(1 4.88801e-11 0)
(1 4.5254e-11 0)
(1 4.18712e-11 0)
(1 3.87112e-11 0)
(1 3.57612e-11 0)
(1 3.30144e-11 0)
(1 3.0451e-11 0)
(1 2.80564e-11 0)
(1 2.58223e-11 0)
(1 2.37349e-11 0)
(1 2.17824e-11 0)
(1 1.9955e-11 0)
(1 1.82428e-11 0)
(1 1.66364e-11 0)
(1 1.51248e-11 0)
(1 1.37006e-11 0)
(1 1.23568e-11 0)
(1 1.10852e-11 0)
(1 9.87964e-12 0)
(1 8.73333e-12 0)
(1 7.63783e-12 0)
(1 6.58494e-12 0)
(1 5.57066e-12 0)
(1 4.58388e-12 0)
(1 3.64064e-12 0)
(1 2.52694e-12 0)
(1 -2.12207e-09 0)
(1 -8.13306e-09 0)
(1 -1.67748e-08 0)
(1 -2.96684e-08 0)
(1 -4.67753e-08 0)
(1 -6.59252e-08 0)
(1 -8.46233e-08 0)
(1 -1.01546e-07 0)
(1 -1.1678e-07 0)
(1 -1.31127e-07 0)
(1 -1.45315e-07 0)
(1 -1.59519e-07 0)
(1 -1.73155e-07 0)
(1 -1.848e-07 0)
(1 -1.92192e-07 0)
(1 -1.9234e-07 0)
(1 -1.81816e-07 0)
(1 -1.57474e-07 0)
(1 -1.17977e-07 0)
(1 -6.65228e-08 0)
(1 -1.41202e-08 0)
(1 1.86769e-08 0)
(1 6.11079e-09 0)
(1 -6.7188e-08 0)
(1 -1.88594e-07 0)
(1 -3.15899e-07 0)
(1 -3.98118e-07 0)
(1 -4.04285e-07 0)
(1 -3.37989e-07 0)
(1.00001 -2.29444e-07 0)
(1.00001 -1.14824e-07 0)
(1.00001 -1.77105e-08 0)
(1.00001 5.72443e-08 0)
(1.00001 1.1679e-07 0)
(1.00001 1.69076e-07 0)
(1.00001 2.19439e-07 0)
(1 2.69441e-07 0)
(1 3.14483e-07 0)
(1 3.43684e-07 0)
(1 3.46475e-07 0)
(1 3.19674e-07 0)
(1 2.6724e-07 0)
(1 1.95328e-07 0)
(1 1.09317e-07 0)
(1 1.41842e-08 0)
(1 -8.4788e-08 0)
(1 -1.82828e-07 0)
(1 -2.76254e-07 0)
(1 -3.61946e-07 0)
(1 -4.37529e-07 0)
(1 -5.01156e-07 0)
(1 -5.50007e-07 0)
(1.00001 -5.80912e-07 0)
(1.00001 -5.9505e-07 0)
(1.00001 -5.97203e-07 0)
(1.00001 -5.87779e-07 0)
(1.00001 -5.56721e-07 0)
(1.00001 -4.93849e-07 0)
(1.00001 -3.9751e-07 0)
(1.00001 -2.71713e-07 0)
(1.00001 -1.1756e-07 0)
(1.00001 6.84306e-08 0)
(1.00001 2.69356e-07 0)
(1.00001 4.81515e-07 0)
(1.00001 6.99942e-07 0)
(1.00001 9.17017e-07 0)
(1.00001 1.12441e-06 0)
(1 1.31297e-06 0)
(1 1.47213e-06 0)
(1 1.59087e-06 0)
(0.999998 1.65922e-06 0)
(0.999996 1.6701e-06 0)
(0.999994 1.61928e-06 0)
(0.999992 1.50456e-06 0)
(0.99999 1.32949e-06 0)
(0.999989 1.10658e-06 0)
(0.999987 8.53892e-07 0)
(0.999987 5.89796e-07 0)
(0.999986 3.32765e-07 0)
(0.999986 1.01373e-07 0)
(0.999986 -9.03405e-08 0)
(0.999986 -2.37986e-07 0)
(0.999986 -3.47572e-07 0)
(0.999987 -4.33032e-07 0)
(0.999988 -5.13607e-07 0)
(0.999988 -6.05202e-07 0)
(0.999989 -7.06631e-07 0)
(0.99999 -7.93238e-07 0)
(0.999991 -8.2771e-07 0)
(0.999992 -7.83045e-07 0)
(0.999993 -6.62646e-07 0)
(0.999994 -5.02812e-07 0)
(0.999995 -3.53293e-07 0)
(0.999995 -2.49725e-07 0)
(0.999995 -2.00085e-07 0)
(0.999996 -1.91842e-07 0)
(0.999996 -2.06367e-07 0)
(0.999996 -2.278e-07 0)
(0.999996 -2.45692e-07 0)
(0.999997 -2.5493e-07 0)
(0.999997 -2.54424e-07 0)
(0.999998 -2.45418e-07 0)
(0.999998 -2.30126e-07 0)
(0.999998 -2.10894e-07 0)
(0.999998 -1.89752e-07 0)
(0.999999 -1.68248e-07 0)
(0.999999 -1.47454e-07 0)
(0.999999 -1.28039e-07 0)
(0.999999 -1.10358e-07 0)
(0.999999 -9.4549e-08 0)
(0.999999 -8.06069e-08 0)
(1 -6.84371e-08 0)
(1 -5.78978e-08 0)
(1 -4.88256e-08 0)
(1 -4.10534e-08 0)
(1 -3.44198e-08 0)
(1 -2.87754e-08 0)
(1 -2.39849e-08 0)
(1 -1.99282e-08 0)
(1 -1.64999e-08 0)
(1 -1.3608e-08 0)
(1 -1.11731e-08 0)
(1 -9.12686e-09 0)
(1 -7.41052e-09 0)
(1 -5.97387e-09 0)
(1 -4.774e-09 0)
(1 -3.77438e-09 0)
(1 -2.94396e-09 0)
(1 -2.2562e-09 0)
(1 -1.68841e-09 0)
(1 -1.22136e-09 0)
(1 -8.39261e-10 0)
(1 -5.29479e-10 0)
(1 -2.80519e-10 0)
(1 -8.28707e-11 0)
(1 7.27697e-11 0)
(1 1.95783e-10 0)
(1 2.92164e-10 0)
(1 3.66163e-10 0)
(1 4.21414e-10 0)
(1 4.60905e-10 0)
(1 4.87225e-10 0)
(1 5.02701e-10 0)
(1 5.09394e-10 0)
(1 5.0907e-10 0)
(1 5.03205e-10 0)
(1 4.93027e-10 0)
(1 4.79561e-10 0)
(1 4.63639e-10 0)
(1 4.45962e-10 0)
(1 4.27097e-10 0)
(1 4.075e-10 0)
(1 3.87538e-10 0)
(1 3.67504e-10 0)
(1 3.47645e-10 0)
(1 3.28132e-10 0)
(1 3.09112e-10 0)
(1 2.90692e-10 0)
(1 2.72943e-10 0)
(1 2.55922e-10 0)
(1 2.39658e-10 0)
(1 2.24165e-10 0)
(1 2.09457e-10 0)
(1 1.95533e-10 0)
(1 1.82375e-10 0)
(1 1.69967e-10 0)
(1 1.58283e-10 0)
(1 1.47302e-10 0)
(1 1.36997e-10 0)
(1 1.27334e-10 0)
(1 1.18283e-10 0)
(1 1.09809e-10 0)
(1 1.01884e-10 0)
(1 9.44793e-11 0)
(1 8.75641e-11 0)
(1 8.11085e-11 0)
(1 7.50843e-11 0)
(1 6.946e-11 0)
(1 6.42112e-11 0)
(1 5.93195e-11 0)
(1 5.47564e-11 0)
(1 5.04959e-11 0)
(1 4.65201e-11 0)
(1 4.28075e-11 0)
(1 3.93366e-11 0)
(1 3.60894e-11 0)
(1 3.30494e-11 0)
(1 3.01997e-11 0)
(1 2.75233e-11 0)
(1 2.50064e-11 0)
(1 2.26359e-11 0)
(1 2.0398e-11 0)
(1 1.82804e-11 0)
(1 1.62708e-11 0)
(1 1.43573e-11 0)
(1 1.25269e-11 0)
(1 1.07774e-11 0)
(1 9.05986e-12 0)
(1 7.60736e-12 0)
(1 5.25862e-12 0)
(1 -2.96076e-09 0)
(1 -1.1355e-08 0)
(1 -2.34271e-08 0)
(1 -4.14411e-08 0)
(1 -6.53435e-08 0)
(1 -9.21034e-08 0)
(1 -1.18239e-07 0)
(1 -1.41909e-07 0)
(1 -1.6324e-07 0)
(1 -1.83366e-07 0)
(1 -2.03313e-07 0)
(1 -2.23335e-07 0)
(1 -2.42641e-07 0)
(1 -2.59287e-07 0)
(1 -2.70115e-07 0)
(1 -2.70783e-07 0)
(1 -2.56162e-07 0)
(1 -2.21526e-07 0)
(1 -1.64963e-07 0)
(1 -9.1071e-08 0)
(1 -1.5477e-08 0)
(1 3.22489e-08 0)
(1 1.48797e-08 0)
(1 -9.0157e-08 0)
(1 -2.65046e-07 0)
(1 -4.48513e-07 0)
(1 -5.66247e-07 0)
(1 -5.73558e-07 0)
(1.00001 -4.76632e-07 0)
(1.00001 -3.2036e-07 0)
(1.00001 -1.57422e-07 0)
(1.00001 -2.09824e-08 0)
(1.00001 8.33018e-08 0)
(1.00001 1.65751e-07 0)
(1.00001 2.3816e-07 0)
(1.00001 3.08411e-07 0)
(1 3.79051e-07 0)
(1 4.43238e-07 0)
(1 4.84685e-07 0)
(1 4.87926e-07 0)
(1 4.4885e-07 0)
(1 3.73902e-07 0)
(1 2.72259e-07 0)
(1 1.51572e-07 0)
(1 1.87037e-08 0)
(1 -1.19438e-07 0)
(1 -2.56672e-07 0)
(1 -3.87713e-07 0)
(1 -5.08021e-07 0)
(1 -6.14098e-07 0)
(1 -7.03099e-07 0)
(1 -7.72455e-07 0)
(1.00001 -8.19922e-07 0)
(1.00001 -8.42291e-07 0)
(1.00001 -8.34117e-07 0)
(1.00001 -7.9029e-07 0)
(1.00001 -7.08197e-07 0)
(1.00001 -5.8783e-07 0)
(1.00001 -4.32667e-07 0)
(1.00001 -2.417e-07 0)
(1.00001 -1.90849e-08 0)
(1.00001 2.27607e-07 0)
(1.00001 4.98936e-07 0)
(1.00001 7.85458e-07 0)
(1.00001 1.07658e-06 0)
(1.00001 1.36123e-06 0)
(1.00001 1.62734e-06 0)
(1 1.86167e-06 0)
(1 2.05042e-06 0)
(1 2.18018e-06 0)
(0.999998 2.2394e-06 0)
(0.999996 2.22003e-06 0)
(0.999994 2.11962e-06 0)
(0.999992 1.94435e-06 0)
(0.99999 1.70835e-06 0)
(0.999989 1.42637e-06 0)
(0.999987 1.1091e-06 0)
(0.999986 7.69546e-07 0)
(0.999986 4.3007e-07 0)
(0.999986 1.19137e-07 0)
(0.999986 -1.40716e-07 0)
(0.999986 -3.4204e-07 0)
(0.999986 -4.91665e-07 0)
(0.999987 -6.08198e-07 0)
(0.999987 -7.18965e-07 0)
(0.999988 -8.47333e-07 0)
(0.999989 -9.92012e-07 0)
(0.99999 -1.11715e-06 0)
(0.999991 -1.16803e-06 0)
(0.999992 -1.10482e-06 0)
(0.999993 -9.32136e-07 0)
(0.999994 -7.02893e-07 0)
(0.999995 -4.89583e-07 0)
(0.999995 -3.4353e-07 0)
(0.999995 -2.75259e-07 0)
(0.999996 -2.65775e-07 0)
(0.999996 -2.87982e-07 0)
(0.999996 -3.19271e-07 0)
(0.999996 -3.44977e-07 0)
(0.999997 -3.58078e-07 0)
(0.999997 -3.57244e-07 0)
(0.999998 -3.44377e-07 0)
(0.999998 -3.22685e-07 0)
(0.999998 -2.9551e-07 0)
(0.999998 -2.65714e-07 0)
(0.999999 -2.35471e-07 0)
(0.999999 -2.06273e-07 0)
(0.999999 -1.79043e-07 0)
(0.999999 -1.5427e-07 0)
(0.999999 -1.32137e-07 0)
(0.999999 -1.12628e-07 0)
(1 -9.56075e-08 0)
(1 -8.08723e-08 0)
(1 -6.81918e-08 0)
(1 -5.73305e-08 0)
(1 -4.80619e-08 0)
(1 -4.01765e-08 0)
(1 -3.34849e-08 0)
(1 -2.7819e-08 0)
(1 -2.3031e-08 0)
(1 -1.89925e-08 0)
(1 -1.55925e-08 0)
(1 -1.27353e-08 0)
(1 -1.0339e-08 0)
(1 -8.33323e-09 0)
(1 -6.65823e-09 0)
(1 -5.26285e-09 0)
(1 -4.10353e-09 0)
(1 -3.14319e-09 0)
(1 -2.35046e-09 0)
(1 -1.69878e-09 0)
(1 -1.16568e-09 0)
(1 -7.32131e-10 0)
(1 -3.81486e-10 0)
(1 -1.00444e-10 0)
(1 1.23111e-10 0)
(1 2.98319e-10 0)
(1 4.33159e-10 0)
(1 5.34531e-10 0)
(1 6.08306e-10 0)
(1 6.59517e-10 0)
(1 6.92455e-10 0)
(1 7.10697e-10 0)
(1 7.17201e-10 0)
(1 7.14405e-10 0)
(1 7.04312e-10 0)
(1 6.88572e-10 0)
(1 6.68554e-10 0)
(1 6.4538e-10 0)
(1 6.19975e-10 0)
(1 5.9309e-10 0)
(1 5.65329e-10 0)
(1 5.37185e-10 0)
(1 5.09044e-10 0)
(1 4.81225e-10 0)
(1 4.53957e-10 0)
(1 4.27426e-10 0)
(1 4.01774e-10 0)
(1 3.7709e-10 0)
(1 3.53443e-10 0)
(1 3.30869e-10 0)
(1 3.09389e-10 0)
(1 2.89011e-10 0)
(1 2.69731e-10 0)
(1 2.51524e-10 0)
(1 2.34364e-10 0)
(1 2.18216e-10 0)
(1 2.03043e-10 0)
(1 1.88807e-10 0)
(1 1.7546e-10 0)
(1 1.62961e-10 0)
(1 1.51264e-10 0)
(1 1.40328e-10 0)
(1 1.30114e-10 0)
(1 1.20577e-10 0)
(1 1.11673e-10 0)
(1 1.03364e-10 0)
(1 9.56096e-11 0)
(1 8.83734e-11 0)
(1 8.16272e-11 0)
(1 7.53351e-11 0)
(1 6.94615e-11 0)
(1 6.3979e-11 0)
(1 5.88592e-11 0)
(1 5.40727e-11 0)
(1 4.95942e-11 0)
(1 4.54006e-11 0)
(1 4.14685e-11 0)
(1 3.77748e-11 0)
(1 3.43003e-11 0)
(1 3.10267e-11 0)
(1 2.79356e-11 0)
(1 2.50091e-11 0)
(1 2.22303e-11 0)
(1 1.95824e-11 0)
(1 1.70485e-11 0)
(1 1.4623e-11 0)
(1 1.22481e-11 0)
(1 1.01899e-11 0)
(1 6.92352e-12 0)
(1 -3.78935e-09 0)
(1 -1.45458e-08 0)
(1 -3.00219e-08 0)
(1 -5.31193e-08 0)
(1 -8.37696e-08 0)
(1 -1.18089e-07 0)
(1 -1.51621e-07 0)
(1 -1.82014e-07 0)
(1 -2.09446e-07 0)
(1 -2.35387e-07 0)
(1 -2.61175e-07 0)
(1 -2.87165e-07 0)
(1 -3.12368e-07 0)
(1 -3.34293e-07 0)
(1 -3.48847e-07 0)
(1 -3.50392e-07 0)
(1 -3.32224e-07 0)
(1 -2.88012e-07 0)
(1 -2.14748e-07 0)
(1 -1.17534e-07 0)
(1 -1.60604e-08 0)
(1 5.03802e-08 0)
(1 3.09208e-08 0)
(1 -1.06592e-07 0)
(1 -3.39499e-07 0)
(1 -5.85142e-07 0)
(1 -7.42654e-07 0)
(1 -7.51805e-07 0)
(1.00001 -6.21913e-07 0)
(1.00001 -4.14445e-07 0)
(1.00001 -2.00401e-07 0)
(1.00001 -2.34934e-08 0)
(1.00001 1.09878e-07 0)
(1.00001 2.14563e-07 0)
(1.00001 3.06783e-07 0)
(1.00001 3.97115e-07 0)
(1 4.89139e-07 0)
(1 5.73795e-07 0)
(1 6.28948e-07 0)
(1 6.33635e-07 0)
(1 5.8268e-07 0)
(1 4.85155e-07 0)
(1 3.53316e-07 0)
(1 1.97053e-07 0)
(1 2.51666e-08 0)
(1 -1.53504e-07 0)
(1 -3.30908e-07 0)
(1 -5.00126e-07 0)
(1 -6.55339e-07 0)
(1 -7.92137e-07 0)
(1 -9.07134e-07 0)
(1 -9.96965e-07 0)
(1.00001 -1.05763e-06 0)
(1.00001 -1.08494e-06 0)
(1.00001 -1.07537e-06 0)
(1.00001 -1.02582e-06 0)
(1.00001 -9.33059e-07 0)
(1.00001 -7.91441e-07 0)
(1.00001 -5.99937e-07 0)
(1.00001 -3.59891e-07 0)
(1.00001 -7.52204e-08 0)
(1.00001 2.46789e-07 0)
(1.00001 5.99547e-07 0)
(1.00001 9.71523e-07 0)
(1.00001 1.35063e-06 0)
(1.00001 1.72302e-06 0)
(1.00001 2.07324e-06 0)
(1 2.38436e-06 0)
(1 2.63857e-06 0)
(1 2.81806e-06 0)
(0.999998 2.90687e-06 0)
(0.999996 2.89376e-06 0)
(0.999994 2.77574e-06 0)
(0.999992 2.55985e-06 0)
(0.99999 2.26013e-06 0)
(0.999988 1.89173e-06 0)
(0.999987 1.46989e-06 0)
(0.999986 1.01647e-06 0)
(0.999986 5.65196e-07 0)
(0.999986 1.55317e-07 0)
(0.999986 -1.84199e-07 0)
(0.999986 -4.44558e-07 0)
(0.999986 -6.35506e-07 0)
(0.999987 -7.82266e-07 0)
(0.999987 -9.22166e-07 0)
(0.999988 -1.08798e-06 0)
(0.999989 -1.27907e-06 0)
(0.99999 -1.44715e-06 0)
(0.999991 -1.51752e-06 0)
(0.999992 -1.43533e-06 0)
(0.999994 -1.20625e-06 0)
(0.999994 -9.01937e-07 0)
(0.999995 -6.20672e-07 0)
(0.999995 -4.30995e-07 0)
(0.999995 -3.45322e-07 0)
(0.999996 -3.36689e-07 0)
(0.999996 -3.68495e-07 0)
(0.999996 -4.10976e-07 0)
(0.999996 -4.45195e-07 0)
(0.999997 -4.62357e-07 0)
(0.999997 -4.61087e-07 0)
(0.999998 -4.4411e-07 0)
(0.999998 -4.15739e-07 0)
(0.999998 -3.80372e-07 0)
(0.999998 -3.41731e-07 0)
(0.999999 -3.02613e-07 0)
(0.999999 -2.64925e-07 0)
(0.999999 -2.29834e-07 0)
(0.999999 -1.97949e-07 0)
(0.999999 -1.69491e-07 0)
(0.999999 -1.44427e-07 0)
(1 -1.22573e-07 0)
(1 -1.03662e-07 0)
(1 -8.73942e-08 0)
(1 -7.34643e-08 0)
(1 -6.15798e-08 0)
(1 -5.14707e-08 0)
(1 -4.28933e-08 0)
(1 -3.56314e-08 0)
(1 -2.94953e-08 0)
(1 -2.43201e-08 0)
(1 -1.99635e-08 0)
(1 -1.63026e-08 0)
(1 -1.32324e-08 0)
(1 -1.06628e-08 0)
(1 -8.51713e-09 0)
(1 -6.72975e-09 0)
(1 -5.2449e-09 0)
(1 -4.01516e-09 0)
(1 -3.00025e-09 0)
(1 -2.16599e-09 0)
(1 -1.48352e-09 0)
(1 -9.28593e-10 0)
(1 -4.80497e-10 0)
(1 -1.2185e-10 0)
(1 1.62569e-10 0)
(1 3.85142e-10 0)
(1 5.56614e-10 0)
(1 6.85862e-10 0)
(1 7.80311e-10 0)
(1 8.4628e-10 0)
(1 8.89057e-10 0)
(1 9.13037e-10 0)
(1 9.21906e-10 0)
(1 9.18753e-10 0)
(1 9.06139e-10 0)
(1 8.86188e-10 0)
(1 8.60669e-10 0)
(1 8.31039e-10 0)
(1 7.98493e-10 0)
(1 7.64002e-10 0)
(1 7.28353e-10 0)
(1 6.92188e-10 0)
(1 6.56007e-10 0)
(1 6.2022e-10 0)
(1 5.85131e-10 0)
(1 5.50979e-10 0)
(1 5.17952e-10 0)
(1 4.86163e-10 0)
(1 4.557e-10 0)
(1 4.26617e-10 0)
(1 3.98942e-10 0)
(1 3.72684e-10 0)
(1 3.47836e-10 0)
(1 3.24369e-10 0)
(1 3.02249e-10 0)
(1 2.81432e-10 0)
(1 2.61871e-10 0)
(1 2.43516e-10 0)
(1 2.26308e-10 0)
(1 2.10191e-10 0)
(1 1.9511e-10 0)
(1 1.81011e-10 0)
(1 1.6784e-10 0)
(1 1.55541e-10 0)
(1 1.44057e-10 0)
(1 1.3334e-10 0)
(1 1.2334e-10 0)
(1 1.1401e-10 0)
(1 1.05309e-10 0)
(1 9.7195e-11 0)
(1 8.96211e-11 0)
(1 8.25511e-11 0)
(1 7.59486e-11 0)
(1 6.97762e-11 0)
(1 6.40015e-11 0)
(1 5.85938e-11 0)
(1 5.35229e-11 0)
(1 4.87604e-11 0)
(1 4.42813e-11 0)
(1 4.00617e-11 0)
(1 3.60779e-11 0)
(1 3.23062e-11 0)
(1 2.87245e-11 0)
(1 2.5312e-11 0)
(1 2.20477e-11 0)
(1 1.89236e-11 0)
(1 1.58639e-11 0)
(1 1.32034e-11 0)
(1 9.0134e-12 0)
(1 -4.60497e-09 0)
(1 -1.76966e-08 0)
(1 -3.65428e-08 0)
(1 -6.46759e-08 0)
(1 -1.02013e-07 0)
(1 -1.43827e-07 0)
(1 -1.847e-07 0)
(1 -2.21785e-07 0)
(1 -2.5532e-07 0)
(1 -2.87123e-07 0)
(1 -3.18857e-07 0)
(1 -3.50991e-07 0)
(1 -3.82361e-07 0)
(1 -4.09959e-07 0)
(1 -4.28791e-07 0)
(1 -4.31871e-07 0)
(1 -4.10697e-07 0)
(1 -3.56922e-07 0)
(1 -2.65973e-07 0)
(1 -1.43123e-07 0)
(1 -1.22372e-08 0)
(1 7.66456e-08 0)
(1 5.67185e-08 0)
(1 -1.16014e-07 0)
(1 -4.13957e-07 0)
(1 -7.2977e-07 0)
(1 -9.31597e-07 0)
(1 -9.41521e-07 0)
(1.00001 -7.73419e-07 0)
(1.00001 -5.08733e-07 0)
(1.00001 -2.39734e-07 0)
(1.00001 -2.16263e-08 0)
(1.00001 1.39575e-07 0)
(1.00001 2.64904e-07 0)
(1.00001 3.75791e-07 0)
(1.00001 4.85734e-07 0)
(1 5.99753e-07 0)
(1 7.06521e-07 0)
(1 7.7699e-07 0)
(1 7.83634e-07 0)
(1 7.20229e-07 0)
(1 5.99162e-07 0)
(1 4.36246e-07 0)
(1 2.43657e-07 0)
(1 3.20716e-08 0)
(1 -1.87732e-07 0)
(1 -4.0585e-07 0)
(1 -6.13728e-07 0)
(1 -8.04259e-07 0)
(1 -9.72158e-07 0)
(1 -1.11335e-06 0)
(1 -1.22375e-06 0)
(1.00001 -1.2988e-06 0)
(1.00001 -1.33378e-06 0)
(1.00001 -1.32368e-06 0)
(1.00001 -1.26308e-06 0)
(1.00001 -1.14646e-06 0)
(1.00001 -9.69616e-07 0)
(1.00001 -7.32601e-07 0)
(1.00001 -4.37125e-07 0)
(1.00001 -8.75022e-08 0)
(1.00001 3.08084e-07 0)
(1.00001 7.40744e-07 0)
(1.00001 1.1974e-06 0)
(1.00001 1.66284e-06 0)
(1.00001 2.11996e-06 0)
(1.00001 2.54977e-06 0)
(1 2.9315e-06 0)
(1 3.24309e-06 0)
(1 3.46245e-06 0)
(0.999998 3.56969e-06 0)
(0.999996 3.55085e-06 0)
(0.999994 3.40217e-06 0)
(0.999992 3.13239e-06 0)
(0.99999 2.75987e-06 0)
(0.999988 2.30502e-06 0)
(0.999987 1.78678e-06 0)
(0.999986 1.23029e-06 0)
(0.999986 6.76206e-07 0)
(0.999985 1.7362e-07 0)
(0.999985 -2.40895e-07 0)
(0.999986 -5.56354e-07 0)
(0.999986 -7.84833e-07 0)
(0.999987 -9.58007e-07 0)
(0.999987 -1.12428e-06 0)
(0.999988 -1.32773e-06 0)
(0.999989 -1.56914e-06 0)
(0.99999 -1.78587e-06 0)
(0.999991 -1.87968e-06 0)
(0.999993 -1.77775e-06 0)
(0.999994 -1.48647e-06 0)
(0.999994 -1.09933e-06 0)
(0.999995 -7.44574e-07 0)
(0.999995 -5.09986e-07 0)
(0.999995 -4.08792e-07 0)
(0.999996 -4.03921e-07 0)
(0.999996 -4.47879e-07 0)
(0.999996 -5.03255e-07 0)
(0.999996 -5.4682e-07 0)
(0.999997 -5.68222e-07 0)
(0.999997 -5.66316e-07 0)
(0.999998 -5.44871e-07 0)
(0.999998 -5.09441e-07 0)
(0.999998 -4.65551e-07 0)
(0.999998 -4.1781e-07 0)
(0.999999 -3.69643e-07 0)
(0.999999 -3.23355e-07 0)
(0.999999 -2.80344e-07 0)
(0.999999 -2.41325e-07 0)
(0.999999 -2.06543e-07 0)
(0.999999 -1.75939e-07 0)
(1 -1.49274e-07 0)
(1 -1.26214e-07 0)
(1 -1.06386e-07 0)
(1 -8.94134e-08 0)
(1 -7.49372e-08 0)
(1 -6.26261e-08 0)
(1 -5.21822e-08 0)
(1 -4.33413e-08 0)
(1 -3.5872e-08 0)
(1 -2.95732e-08 0)
(1 -2.4271e-08 0)
(1 -1.98161e-08 0)
(1 -1.60802e-08 0)
(1 -1.29539e-08 0)
(1 -1.03435e-08 0)
(1 -8.16927e-09 0)
(1 -6.36328e-09 0)
(1 -4.86772e-09 0)
(1 -3.63354e-09 0)
(1 -2.61919e-09 0)
(1 -1.78962e-09 0)
(1 -1.1152e-09 0)
(1 -5.70663e-10 0)
(1 -1.34702e-10 0)
(1 2.10887e-10 0)
(1 4.81312e-10 0)
(1 6.89464e-10 0)
(1 8.46138e-10 0)
(1 9.60412e-10 0)
(1 1.03996e-09 0)
(1 1.09123e-09 0)
(1 1.11961e-09 0)
(1 1.12963e-09 0)
(1 1.12507e-09 0)
(1 1.10907e-09 0)
(1 1.0842e-09 0)
(1 1.05261e-09 0)
(1 1.01607e-09 0)
(1 9.76031e-10 0)
(1 9.33669e-10 0)
(1 8.89938e-10 0)
(1 8.45612e-10 0)
(1 8.01297e-10 0)
(1 7.57487e-10 0)
(1 7.14554e-10 0)
(1 6.72783e-10 0)
(1 6.32397e-10 0)
(1 5.93537e-10 0)
(1 5.56305e-10 0)
(1 5.20767e-10 0)
(1 4.86958e-10 0)
(1 4.54884e-10 0)
(1 4.24536e-10 0)
(1 3.95877e-10 0)
(1 3.68865e-10 0)
(1 3.43448e-10 0)
(1 3.19567e-10 0)
(1 2.97159e-10 0)
(1 2.76152e-10 0)
(1 2.56479e-10 0)
(1 2.38072e-10 0)
(1 2.20863e-10 0)
(1 2.04789e-10 0)
(1 1.89778e-10 0)
(1 1.75763e-10 0)
(1 1.62684e-10 0)
(1 1.50482e-10 0)
(1 1.39097e-10 0)
(1 1.2848e-10 0)
(1 1.18578e-10 0)
(1 1.09336e-10 0)
(1 1.00709e-10 0)
(1 9.26525e-11 0)
(1 8.51212e-11 0)
(1 7.80751e-11 0)
(1 7.14764e-11 0)
(1 6.52886e-11 0)
(1 5.94777e-11 0)
(1 5.40127e-11 0)
(1 4.88643e-11 0)
(1 4.40034e-11 0)
(1 3.94009e-11 0)
(1 3.50298e-11 0)
(1 3.08656e-11 0)
(1 2.68825e-11 0)
(1 2.30701e-11 0)
(1 1.93352e-11 0)
(1 1.60835e-11 0)
(1 1.09729e-11 0)
(1 -5.40479e-09 0)
(1 -2.07986e-08 0)
(1 -4.29735e-08 0)
(1 -7.60839e-08 0)
(1 -1.20033e-07 0)
(1 -1.69261e-07 0)
(1 -2.17407e-07 0)
(1 -2.61143e-07 0)
(1 -3.00783e-07 0)
(1 -3.38501e-07 0)
(1 -3.76302e-07 0)
(1 -4.14798e-07 0)
(1 -4.52675e-07 0)
(1 -4.86437e-07 0)
(1 -5.10183e-07 0)
(1 -5.15512e-07 0)
(1 -4.91968e-07 0)
(1 -4.28908e-07 0)
(1 -3.19705e-07 0)
(1 -1.69067e-07 0)
(1 -4.59827e-09 0)
(1 1.11914e-07 0)
(1 9.45808e-08 0)
(1 -1.15882e-07 0)
(1 -4.87287e-07 0)
(1 -8.83441e-07 0)
(1 -1.13567e-06 0)
(1 -1.14551e-06 0)
(1.00001 -9.33187e-07 0)
(1.00001 -6.04287e-07 0)
(1.00001 -2.75884e-07 0)
(1.00001 -1.57008e-08 0)
(1.00001 1.7203e-07 0)
(1.00001 3.1644e-07 0)
(1.00001 4.44999e-07 0)
(1.00001 5.74378e-07 0)
(1 7.11545e-07 0)
(1 8.42771e-07 0)
(1 9.30645e-07 0)
(1 9.39766e-07 0)
(1 8.63028e-07 0)
(1 7.17115e-07 0)
(1 5.21963e-07 0)
(1 2.9203e-07 0)
(1 3.97617e-08 0)
(1 -2.22096e-07 0)
(1 -4.81723e-07 0)
(1 -7.2889e-07 0)
(1 -9.55211e-07 0)
(1 -1.15458e-06 6.9347e-41)
(1 -1.32235e-06 8.10762e-41)
(1 -1.45383e-06 0)
(1.00001 -1.54375e-06 0)
(1.00001 -1.58627e-06 0)
(1.00001 -1.57516e-06 0)
(1.00001 -1.50399e-06 0)
(1.00001 -1.36675e-06 0)
(1.00001 -1.15896e-06 0)
(1.00001 -8.79432e-07 0)
(1.00001 -5.29879e-07 0)
(1.00001 -1.15557e-07 0)
(1.00001 3.54239e-07 0)
(1.00001 8.68143e-07 0)
(1.00001 1.41086e-06 0)
(1.00001 1.96445e-06 0)
(1.00001 2.50869e-06 0)
(1.00001 3.02111e-06 0)
(1 3.47706e-06 0)
(1 3.8502e-06 0)
(1 4.11392e-06 0)
(0.999998 4.24399e-06 0)
(0.999996 4.22307e-06 0)
(0.999994 4.04635e-06 0)
(0.999992 3.72496e-06 0)
(0.99999 3.28191e-06 0)
(0.999988 2.74128e-06 0)
(0.999987 2.12348e-06 0)
(0.999986 1.45699e-06 0)
(0.999985 7.91891e-07 0)
(0.999985 1.90139e-07 0)
(0.999985 -3.02755e-07 0)
(0.999986 -6.73737e-07 0)
(0.999986 -9.37813e-07 0)
(0.999987 -1.13392e-06 0)
(0.999987 -1.32358e-06 0)
(0.999988 -1.56518e-06 0)
(0.999989 -1.86215e-06 0)
(0.99999 -2.13517e-06 0)
(0.999991 -2.25782e-06 0)
(0.999993 -2.13532e-06 0)
(0.999994 -1.77443e-06 0)
(0.999995 -1.29444e-06 0)
(0.999995 -8.59135e-07 0)
(0.999995 -5.78152e-07 0)
(0.999995 -4.63978e-07 0)
(0.999996 -4.66601e-07 0)
(0.999996 -5.25914e-07 0)
(0.999996 -5.96288e-07 0)
(0.999996 -6.50207e-07 0)
(0.999997 -6.76049e-07 0)
(0.999997 -6.73245e-07 0)
(0.999998 -6.4688e-07 0)
(0.999998 -6.03917e-07 0)
(0.999998 -5.51099e-07 0)
(0.999998 -4.93952e-07 0)
(0.999999 -4.36523e-07 0)
(0.999999 -3.81506e-07 0)
(0.999999 -3.30507e-07 0)
(0.999999 -2.84328e-07 0)
(0.999999 -2.43224e-07 0)
(0.999999 -2.07099e-07 0)
(1 -1.75652e-07 0)
(1 -1.48475e-07 0)
(1 -1.2512e-07 0)
(1 -1.05137e-07 0)
(1 -8.80989e-08 0)
(1 -7.36128e-08 0)
(1 -6.13263e-08 0)
(1 -5.09274e-08 0)
(1 -4.21431e-08 0)
(1 -3.47362e-08 0)
(1 -2.8502e-08 0)
(1 -2.32645e-08 0)
(1 -1.88729e-08 0)
(1 -1.51983e-08 0)
(1 -1.21304e-08 0)
(1 -9.57543e-09 0)
(1 -7.45347e-09 0)
(1 -5.69651e-09 0)
(1 -4.24688e-09 0)
(1 -3.05571e-09 0)
(1 -2.08174e-09 0)
(1 -1.29008e-09 0)
(1 -6.51075e-10 0)
(1 -1.39686e-10 0)
(1 2.65404e-10 0)
(1 5.82173e-10 0)
(1 8.25745e-10 0)
(1 1.00885e-09 0)
(1 1.1422e-09 0)
(1 1.2348e-09 0)
(1 1.29424e-09 0)
(1 1.32685e-09 0)
(1 1.33795e-09 0)
(1 1.33195e-09 0)
(1 1.31253e-09 0)
(1 1.28272e-09 0)
(1 1.24505e-09 0)
(1 1.2016e-09 0)
(1 1.15405e-09 0)
(1 1.1038e-09 0)
(1 1.05197e-09 0)
(1 9.9946e-10 0)
(1 9.46992e-10 0)
(1 8.95138e-10 0)
(1 8.44342e-10 0)
(1 7.94933e-10 0)
(1 7.47168e-10 0)
(1 7.01217e-10 0)
(1 6.57198e-10 0)
(1 6.15189e-10 0)
(1 5.75228e-10 0)
(1 5.37323e-10 0)
(1 5.01458e-10 0)
(1 4.67593e-10 0)
(1 4.35676e-10 0)
(1 4.05646e-10 0)
(1 3.77433e-10 0)
(1 3.5096e-10 0)
(1 3.26143e-10 0)
(1 3.02904e-10 0)
(1 2.81161e-10 0)
(1 2.60835e-10 0)
(1 2.41849e-10 0)
(1 2.24119e-10 0)
(1 2.07566e-10 0)
(1 1.92118e-10 0)
(1 1.77706e-10 0)
(1 1.64262e-10 0)
(1 1.51723e-10 0)
(1 1.40029e-10 0)
(1 1.29115e-10 0)
(1 1.18927e-10 0)
(1 1.09412e-10 0)
(1 1.00518e-10 0)
(1 9.2197e-11 0)
(1 8.44046e-11 0)
(1 7.70974e-11 0)
(1 7.02358e-11 0)
(1 6.37827e-11 0)
(1 5.77037e-11 0)
(1 5.19638e-11 0)
(1 4.6529e-11 0)
(1 4.13676e-11 0)
(1 3.64503e-11 0)
(1 3.17473e-11 0)
(1 2.72455e-11 0)
(1 2.28345e-11 0)
(1 1.89918e-11 0)
(1 1.29602e-11 0)
(1 -6.18599e-09 0)
(1 -2.3843e-08 0)
(1 -4.92978e-08 0)
(1 -8.73166e-08 0)
(1 -1.37787e-07 0)
(1 -1.94334e-07 0)
(1 -2.49672e-07 0)
(1 -3.0001e-07 0)
(1 -3.45751e-07 0)
(1 -3.89442e-07 0)
(1 -4.33452e-07 0)
(1 -4.78556e-07 0)
(1 -5.23335e-07 0)
(1 -5.63833e-07 0)
(1 -5.9326e-07 0)
(1 -6.01759e-07 0)
(1 -5.7674e-07 0)
(1 -5.04841e-07 0)
(1 -3.76692e-07 0)
(1 -1.9548e-07 0)
(1 8.027e-09 0)