/*--------------------------------*- C++ -*----------------------------------*\
| =========                 |                                                 |
| \\      /  F ield         | OpenFOAM: The Open Source CFD Toolbox           |
|  \\    /   O peration     | Version:  v2006                                 |
|   \\  /    A nd           | Website:  www.openfoam.com                      |
|    \\/     M anipulation  |                                                 |
\*---------------------------------------------------------------------------*/
FoamFile
{
    version     2.0;
    format      ascii;
    class       volScalarField;
    location    "10.5";
    object      p;
}
// * * * * * * * * * * * * * * * * * * * * * * * * * * * * * * * * * * * * * //

dimensions      [1 -1 -2 0 0 0 0];


internalField   nonuniform List<scalar> 
52500
(
32897.6
32897.4
32897
32896.3
32895.4
32894.3
32892.9
32891.4
32889.6
32887.6
32885.4
32882.9
32880.3
32877.4
32874.3
32871.1
32867.6
32863.9
32859.9
32855.8
32851.5
32847
32842.3
32837.4
32832.3
32827
32821.5
32815.8
32810
32803.9
32797.7
32791.3
32784.7
32778
32771
32763.9
32756.6
32749.2
32741.6
32733.8
32725.9
32717.7
32709.5
32701
32692.4
32683.7
32674.8
32665.7
32656.5
32647.1
32637.6
32628
32618.2
32608.2
32598.1
32587.9
32577.5
32567
32556.3
32545.6
32534.7
32523.6
32512.5
32501.2
32489.8
32478.2
32466.6
32454.8
32442.9
32431
32418.9
32406.7
32394.4
32381.9
32369.4
32356.8
32344.1
32331.3
32318.4
32305.4
32292.4
32279.2
32266
32252.6
32239.2
32225.7
32212.2
32198.6
32184.9
32171.1
32157.2
32143.3
32129.4
32115.3
32101.2
32087.1
32072.9
32058.6
32044.3
32029.9
32015.5
32001
31986.5
31972
31957.4
31942.7
31928.1
31913.3
31898.6
31883.8
31868.9
31854.1
31839.2
31824.2
31809.3
31794.3
31779.3
31764.2
31749.1
31734
31718.9
31703.7
31688.5
31673.3
31658.1
31642.8
31627.5
31612.2
31596.9
31581.5
31566.1
31550.7
31535.3
31519.8
31504.3
31488.8
31473.3
31457.7
31442.2
31426.6
31410.9
31395.3
31379.6
31363.9
31348.1
31332.4
31316.6
31300.8
31284.9
31269
31253.1
31237.2
31221.2
31205.2
31189.2
31173.1
31157
31140.9
31124.7
31108.5
31092.2
31075.9
31059.5
31043.2
31026.7
31010.2
30993.7
30977.2
30960.6
30943.9
30927.2
30910.5
30893.7
30876.9
30860
30843.1
30826.2
30809.2
30792.2
30775.1
30758
30740.8
30723.6
30706.4
30689.1
30671.8
30654.5
30637.1
30619.7
30602.2
30584.8
30567.3
30549.7
30532.2
30514.6
30497
30479.4
30461.8
30444.2
30426.6
30409
30391.3
30373.7
30356.1
30338.5
30320.9
30303.3
30285.8
30268.2
30250.7
30233.2
30215.8
30198.4
30181.1
30163.8
30146.5
30129.4
30112.2
30095.2
30078.2
30061.3
30044.5
30027.8
30011.1
29994.6
29978.2
29961.8
29945.6
29929.5
29913.5
29897.7
29882
29866.4
29850.9
29835.6
29820.4
29805.4
29790.6
29775.9
29761.4
29747
29732.8
29718.8
29704.9
29691.3
29677.8
29664.5
29651.4
29638.5
29625.7
29613.2
29600.9
29588.8
29576.9
29565.1
29553.6
29542.3
29531.2
29520.4
29509.7
29499.2
29489
29478.9
29469.1
29459.5
29450.1
29440.9
29431.9
29423.2
29414.6
29406.3
29398.1
29390.2
29382.5
29375
29367.6
29360.5
29353.6
29346.8
29340.3
29333.9
29327.8
29321.8
29316
29310.3
29304.9
29299.6
29294.4
29289.5
29284.7
29280
29275.6
29271.2
29267.1
29263.1
29259.3
29255.6
29252
29248.6
29245.3
29242.1
29239.1
29236.2
29233.4
29230.7
29228.1
29225.7
29223.3
29221.1
29218.9
29216.8
29214.9
29213
29211.2
29209.5
29207.9
29206.4
29204.9
29203.5
29202.2
29200.9
29199.7
29198.6
29197.6
29196.6
29195.6
29194.7
29193.9
29193.1
29192.3
29191.6
29191
29190.4
29189.8
29189.3
29188.8
29188.4
29188
29187.6
29187.3
29187
29186.7
29186.5
29186.3
29186.1
29186
29185.8
29185.8
29185.7
29185.7
32440.5
32440.2
32439.8
32439.1
32438.2
32437.1
32435.8
32434.2
32432.4
32430.4
32428.2
32425.7
32423.1
32420.2
32417.1
32413.8
32410.3
32406.6
32402.7
32398.6
32394.2
32389.7
32385
32380.1
32375
32369.7
32364.2
32358.5
32352.6
32346.6
32340.4
32334
32327.4
32320.6
32313.7
32306.6
32299.3
32291.8
32284.2
32276.4
32268.5
32260.4
32252.1
32243.6
32235
32226.3
32217.4
32208.3
32199.1
32189.7
32180.2
32170.5
32160.7
32150.8
32140.6
32130.4
32120
32109.5
32098.9
32088.1
32077.2
32066.1
32054.9
32043.6
32032.2
32020.7
32009
31997.3
31985.4
31973.4
31961.3
31949.1
31936.8
31924.3
31911.8
31899.2
31886.5
31873.7
31860.8
31847.8
31834.7
31821.5
31808.3
31795
31781.5
31768.1
31754.5
31740.9
31727.1
31713.4
31699.5
31685.6
31671.6
31657.6
31643.5
31629.3
31615.1
31600.8
31586.5
31572.2
31557.7
31543.3
31528.7
31514.2
31499.6
31484.9
31470.3
31455.5
31440.8
31426
31411.1
31396.3
31381.4
31366.4
31351.5
31336.5
31321.5
31306.4
31291.3
31276.2
31261.1
31245.9
31230.7
31215.5
31200.3
31185
31169.7
31154.4
31139.1
31123.7
31108.3
31092.9
31077.5
31062.1
31046.6
31031.1
31015.6
31000
30984.4
30968.8
30953.2
30937.6
30921.9
30906.2
30890.4
30874.7
30858.9
30843.1
30827.2
30811.4
30795.4
30779.5
30763.5
30747.5
30731.5
30715.4
30699.3
30683.1
30666.9
30650.7
30634.4
30618.1
30601.8
30585.4
30569
30552.5
30536
30519.5
30502.9
30486.2
30469.5
30452.8
30436
30419.2
30402.3
30385.4
30368.5
30351.5
30334.4
30317.4
30300.3
30283.1
30265.9
30248.7
30231.4
30214.1
30196.7
30179.3
30161.9
30144.5
30127
30109.5
30092
30074.4
30056.8
30039.3
30021.7
30004
29986.4
29968.8
29951.1
29933.5
29915.9
29898.2
29880.6
29863
29845.4
29827.9
29810.3
29792.8
29775.3
29757.9
29740.5
29723.1
29705.8
29688.6
29671.4
29654.2
29637.2
29620.2
29603.3
29586.4
29569.7
29553.1
29536.5
29520.1
29503.7
29487.5
29471.4
29455.4
29439.5
29423.8
29408.2
29392.7
29377.4
29362.2
29347.2
29332.3
29317.6
29303.1
29288.7
29274.5
29260.5
29246.6
29233
29219.5
29206.2
29193.1
29180.1
29167.4
29154.9
29142.6
29130.4
29118.5
29106.8
29095.3
29084
29072.9
29062
29051.3
29040.9
29030.6
29020.6
29010.7
29001.1
28991.7
28982.5
28973.6
28964.8
28956.3
28947.9
28939.8
28931.9
28924.1
28916.6
28909.3
28902.2
28895.3
28888.5
28882
28875.6
28869.5
28863.5
28857.7
28852.1
28846.6
28841.3
28836.2
28831.2
28826.4
28821.7
28817.3
28813
28808.8
28804.9
28801
28797.4
28793.8
28790.4
28787.2
28784
28781
28778.1
28775.3
28772.6
28770
28767.6
28765.2
28763
28760.8
28758.8
28756.8
28755
28753.2
28751.5
28749.9
28748.4
28746.9
28745.5
28744.2
28743
28741.8
28740.7
28739.6
28738.6
28737.7
28736.8
28735.9
28735.1
28734.4
28733.7
28733.1
28732.5
28731.9
28731.4
28730.9
28730.5
28730.1
28729.7
28729.4
28729.1
28728.8
28728.6
28728.4
28728.2
28728.1
28728
28727.9
28727.8
28727.8
31983.7
31983.5
31983
31982.3
31981.5
31980.3
31979
31977.4
31975.6
31973.6
31971.4
31968.9
31966.3
31963.4
31960.3
31957
31953.5
31949.8
31945.9
31941.7
31937.4
31932.9
31928.1
31923.2
31918.1
31912.8
31907.3
31901.6
31895.8
31889.7
31883.5
31877.1
31870.5
31863.7
31856.8
31849.6
31842.4
31834.9
31827.3
31819.5
31811.5
31803.4
31795.1
31786.6
31778
31769.3
31760.4
31751.3
31742.1
31732.7
31723.2
31713.5
31703.7
31693.7
31683.6
31673.3
31662.9
31652.4
31641.7
31630.9
31620
31608.9
31597.8
31586.4
31575
31563.5
31551.8
31540
31528.1
31516.1
31504
31491.7
31479.4
31467
31454.4
31441.8
31429.1
31416.3
31403.3
31390.3
31377.2
31364
31350.8
31337.4
31324
31310.5
31296.9
31283.3
31269.5
31255.7
31241.9
31228
31214
31199.9
31185.8
31171.6
31157.4
31143.1
31128.8
31114.4
31100
31085.5
31071
31056.4
31041.8
31027.2
31012.5
30997.7
30983
30968.2
30953.3
30938.5
30923.6
30908.6
30893.7
30878.7
30863.6
30848.6
30833.5
30818.4
30803.3
30788.1
30772.9
30757.7
30742.5
30727.2
30711.9
30696.6
30681.3
30665.9
30650.6
30635.2
30619.7
30604.3
30588.8
30573.3
30557.8
30542.3
30526.7
30511.1
30495.5
30479.9
30464.2
30448.5
30432.8
30417
30401.2
30385.4
30369.6
30353.7
30337.8
30321.9
30305.9
30289.9
30273.9
30257.8
30241.7
30225.5
30209.4
30193.1
30176.9
30160.6
30144.2
30127.9
30111.4
30095
30078.5
30061.9
30045.3
30028.6
30012
29995.2
29978.4
29961.6
29944.8
29927.8
29910.9
29893.9
29876.9
29859.8
29842.6
29825.5
29808.3
29791
29773.7
29756.4
29739.1
29721.7
29704.2
29686.8
29669.3
29651.8
29634.2
29616.7
29599.1
29581.5
29563.9
29546.2
29528.6
29510.9
29493.3
29475.6
29458
29440.3
29422.7
29405.1
29387.5
29369.9
29352.3
29334.8
29317.3
29299.8
29282.4
29265
29247.6
29230.4
29213.2
29196
29178.9
29161.9
29145
29128.1
29111.4
29094.7
29078.1
29061.6
29045.3
29029
29012.9
28996.9
28981
28965.2
28949.6
28934.1
28918.8
28903.6
28888.5
28873.7
28858.9
28844.4
28830
28815.7
28801.7
28787.8
28774.1
28760.6
28747.3
28734.2
28721.3
28708.5
28696
28683.6
28671.5
28659.6
28647.9
28636.3
28625
28613.9
28603
28592.4
28581.9
28571.6
28561.6
28551.8
28542.2
28532.8
28523.6
28514.6
28505.9
28497.3
28489
28480.8
28472.9
28465.2
28457.7
28450.4
28443.3
28436.4
28429.6
28423.1
28416.8
28410.6
28404.6
28398.9
28393.3
28387.8
28382.6
28377.5
28372.6
28367.8
28363.2
28358.8
28354.5
28350.4
28346.4
28342.6
28338.9
28335.4
28332
28328.7
28325.6
28322.6
28319.7
28316.9
28314.2
28311.7
28309.3
28306.9
28304.7
28302.6
28300.6
28298.6
28296.8
28295
28293.3
28291.7
28290.2
28288.8
28287.4
28286.1
28284.8
28283.7
28282.5
28281.5
28280.5
28279.6
28278.7
28277.9
28277.1
28276.3
28275.7
28275
28274.4
28273.9
28273.4
28272.9
28272.5
28272.1
28271.7
28271.4
28271.1
28270.8
28270.6
28270.4
28270.2
28270.1
28270
28269.9
28269.8
28269.8
31527.5
31527.2
31526.8
31526.1
31525.2
31524.1
31522.8
31521.2
31519.4
31517.4
31515.1
31512.7
31510
31507.1
31504
31500.7
31497.2
31493.5
31489.5
31485.4
31481.1
31476.5
31471.8
31466.9
31461.8
31456.4
31450.9
31445.3
31439.4
31433.3
31427.1
31420.7
31414.1
31407.3
31400.3
31393.2
31385.9
31378.4
31370.8
31363
31355
31346.9
31338.6
31330.1
31321.5
31312.8
31303.8
31294.7
31285.5
31276.1
31266.5
31256.8
31247
31237
31226.9
31216.6
31206.2
31195.6
31184.9
31174.1
31163.2
31152.1
31140.9
31129.6
31118.1
31106.5
31094.8
31083
31071.1
31059.1
31046.9
31034.7
31022.3
31009.9
30997.3
30984.6
30971.9
30959
30946.1
30933
30919.9
30906.7
30893.4
30880.1
30866.6
30853.1
30839.5
30825.8
30812
30798.2
30784.3
30770.4
30756.4
30742.3
30728.2
30714
30699.8
30685.5
30671.1
30656.7
30642.3
30627.8
30613.3
30598.7
30584.1
30569.4
30554.7
30540
30525.2
30510.4
30495.5
30480.6
30465.7
30450.8
30435.8
30420.8
30405.8
30390.7
30375.7
30360.6
30345.4
30330.3
30315.1
30299.9
30284.6
30269.4
30254.1
30238.8
30223.5
30208.1
30192.8
30177.4
30162
30146.5
30131.1
30115.6
30100.1
30084.5
30069
30053.4
30037.8
30022.2
30006.5
29990.8
29975.1
29959.4
29943.6
29927.8
29912
29896.1
29880.2
29864.3
29848.3
29832.3
29816.3
29800.3
29784.2
29768
29751.8
29735.6
29719.4
29703.1
29686.7
29670.4
29653.9
29637.5
29621
29604.4
29587.8
29571.2
29554.5
29537.8
29521
29504.2
29487.3
29470.4
29453.4
29436.4
29419.4
29402.3
29385.2
29368
29350.8
29333.5
29316.2
29298.9
29281.5
29264.1
29246.6
29229.2
29211.7
29194.1
29176.6
29159
29141.4
29123.7
29106.1
29088.4
29070.8
29053.1
29035.4
29017.7
29000
28982.4
28964.7
28947
28929.4
28911.8
28894.2
28876.6
28859.1
28841.6
28824.1
28806.7
28789.3
28772
28754.7
28737.5
28720.4
28703.4
28686.4
28669.5
28652.7
28636
28619.4
28602.9
28586.5
28570.2
28554
28538
28522.1
28506.3
28490.6
28475.1
28459.7
28444.5
28429.4
28414.5
28399.7
28385.1
28370.7
28356.5
28342.4
28328.5
28314.8
28301.3
28287.9
28274.8
28261.8
28249.1
28236.5
28224.2
28212
28200.1
28188.4
28176.8
28165.5
28154.4
28143.5
28132.8
28122.4
28112.1
28102.1
28092.2
28082.6
28073.2
28064.1
28055.1
28046.4
28037.8
28029.5
28021.4
28013.5
28005.7
27998.2
27991
27983.9
27977
27970.3
27963.7
27957.4
27951.3
27945.4
27939.6
27934
27928.6
27923.4
27918.3
27913.4
27908.7
27904.1
27899.7
27895.5
27891.4
27887.4
27883.7
27880
27876.5
27873.1
27869.9
27866.8
27863.8
27860.9
27858.2
27855.6
27853
27850.6
27848.3
27846.1
27844
27842
27840.1
27838.2
27836.5
27834.8
27833.3
27831.8
27830.4
27829
27827.7
27826.5
27825.4
27824.3
27823.2
27822.3
27821.3
27820.5
27819.7
27818.9
27818.2
27817.5
27816.9
27816.3
27815.7
27815.2
27814.8
27814.3
27814
27813.6
27813.3
27813
27812.7
27812.5
27812.3
27812.2
27812
27811.9
27811.8
27811.8
27811.8
31071.8
31071.5
31071.1
31070.4
31069.5
31068.4
31067
31065.5
31063.7
31061.6
31059.4
31056.9
31054.3
31051.4
31048.3
31044.9
31041.4
31037.7
31033.7
31029.6
31025.3
31020.7
31016
31011
31005.9
31000.6
30995.1
30989.4
30983.5
30977.4
30971.2
30964.7
30958.1
30951.3
30944.4
30937.2
30929.9
30922.4
30914.8
30907
30899
30890.8
30882.5
30874
30865.4
30856.6
30847.7
30838.5
30829.3
30819.9
30810.3
30800.6
30790.7
30780.7
30770.5
30760.2
30749.8
30739.2
30728.5
30717.7
30706.7
30695.6
30684.3
30673
30661.5
30649.9
30638.2
30626.3
30614.4
30602.3
30590.1
30577.8
30565.4
30552.9
30540.3
30527.7
30514.9
30502
30489
30475.9
30462.8
30449.5
30436.2
30422.8
30409.3
30395.8
30382.1
30368.4
30354.7
30340.8
30326.9
30312.9
30298.9
30284.8
30270.6
30256.4
30242.2
30227.8
30213.5
30199.1
30184.6
30170.1
30155.5
30140.9
30126.3
30111.6
30096.9
30082.2
30067.4
30052.6
30037.7
30022.8
30007.9
29993
29978
29963
29948
29932.9
29917.8
29902.7
29887.6
29872.4
29857.2
29842
29826.8
29811.6
29796.3
29781
29765.7
29750.4
29735
29719.6
29704.2
29688.8
29673.3
29657.9
29642.4
29626.9
29611.3
29595.7
29580.1
29564.5
29548.9
29533.2
29517.5
29501.8
29486
29470.3
29454.4
29438.6
29422.7
29406.8
29390.9
29374.9
29358.9
29342.8
29326.7
29310.6
29294.4
29278.2
29262
29245.7
29229.4
29213
29196.6
29180.1
29163.6
29147.1
29130.5
29113.9
29097.2
29080.4
29063.7
29046.8
29030
29013
28996.1
28979.1
28962
28944.9
28927.8
28910.6
28893.3
28876.1
28858.8
28841.4
28824
28806.6
28789.1
28771.6
28754.1
28736.5
28718.9
28701.3
28683.7
28666
28648.3
28630.7
28613
28595.2
28577.5
28559.8
28542.1
28524.3
28506.6
28488.9
28471.2
28453.6
28435.9
28418.3
28400.7
28383.2
28365.7
28348.2
28330.8
28313.4
28296.1
28278.9
28261.7
28244.6
28227.6
28210.6
28193.8
28177
28160.4
28143.8
28127.4
28111
28094.8
28078.7
28062.7
28046.9
28031.2
28015.6
28000.2
27985
27969.8
27954.9
27940.1
27925.5
27911
27896.7
27882.6
27868.7
27854.9
27841.4
27828
27814.9
27801.9
27789.1
27776.5
27764.2
27752
27740
27728.3
27716.7
27705.4
27694.3
27683.4
27672.7
27662.2
27652
27642
27632.1
27622.5
27613.1
27604
27595
27586.3
27577.7
27569.4
27561.3
27553.4
27545.7
27538.3
27531
27523.9
27517
27510.4
27503.9
27497.6
27491.5
27485.6
27479.8
27474.3
27468.9
27463.7
27458.7
27453.8
27449.2
27444.6
27440.3
27436.1
27432
27428.1
27424.4
27420.8
27417.3
27413.9
27410.7
27407.7
27404.7
27401.9
27399.2
27396.6
27394.1
27391.7
27389.5
27387.3
27385.2
27383.2
27381.4
27379.6
27377.9
27376.2
27374.7
27373.2
27371.8
27370.5
27369.2
27368
27366.9
27365.8
27364.8
27363.9
27363
27362.1
27361.3
27360.6
27359.9
27359.2
27358.6
27358
27357.5
27357
27356.6
27356.2
27355.8
27355.4
27355.1
27354.8
27354.6
27354.4
27354.2
27354
27353.9
27353.8
27353.7
27353.7
27353.6
30616.6
30616.3
30615.9
30615.2
30614.3
30613.2
30611.8
30610.3
30608.5
30606.4
30604.2
30601.7
30599
30596.1
30593
30589.7
30586.1
30582.4
30578.4
30574.3
30569.9
30565.4
30560.6
30555.7
30550.5
30545.2
30539.7
30533.9
30528
30522
30515.7
30509.3
30502.6
30495.8
30488.9
30481.7
30474.4
30466.9
30459.2
30451.4
30443.4
30435.2
30426.9
30418.4
30409.7
30400.9
30391.9
30382.8
30373.5
30364
30354.4
30344.7
30334.8
30324.8
30314.6
30304.2
30293.8
30283.2
30272.4
30261.5
30250.5
30239.4
30228.1
30216.7
30205.2
30193.5
30181.8
30169.9
30157.9
30145.8
30133.6
30121.2
30108.8
30096.3
30083.6
30070.9
30058
30045.1
30032.1
30019
30005.8
29992.5
29979.2
29965.7
29952.2
29938.6
29924.9
29911.2
29897.4
29883.5
29869.5
29855.5
29841.5
29827.3
29813.1
29798.9
29784.6
29770.3
29755.9
29741.4
29726.9
29712.4
29697.8
29683.2
29668.6
29653.9
29639.1
29624.4
29609.6
29594.7
29579.9
29565
29550.1
29535.1
29520.1
29505.1
29490.1
29475
29459.9
29444.8
29429.7
29414.6
29399.4
29384.2
29369
29353.7
29338.5
29323.2
29307.9
29292.6
29277.2
29261.8
29246.5
29231
29215.6
29200.2
29184.7
29169.2
29153.7
29138.1
29122.5
29106.9
29091.3
29075.7
29060
29044.3
29028.5
29012.8
28997
28981.1
28965.3
28949.4
28933.5
28917.5
28901.5
28885.5
28869.4
28853.3
28837.1
28820.9
28804.7
28788.4
28772.1
28755.7
28739.3
28722.9
28706.4
28689.8
28673.2
28656.6
28639.9
28623.2
28606.4
28589.6
28572.7
28555.8
28538.8
28521.8
28504.7
28487.6
28470.5
28453.3
28436
28418.7
28401.4
28384
28366.6
28349.1
28331.7
28314.1
28296.6
28279
28261.3
28243.7
28226
28208.3
28190.6
28172.9
28155.1
28137.4
28119.6
28101.8
28084
28066.3
28048.5
28030.8
28013
27995.3
27977.6
27959.9
27942.3
27924.6
27907.1
27889.5
27872.1
27854.6
27837.3
27820
27802.7
27785.6
27768.5
27751.5
27734.6
27717.8
27701
27684.4
27667.9
27651.5
27635.2
27619.1
27603
27587.2
27571.4
27555.8
27540.3
27525
27509.8
27494.8
27480
27465.3
27450.8
27436.5
27422.3
27408.3
27394.6
27381
27367.6
27354.4
27341.4
27328.6
27316
27303.6
27291.4
27279.4
27267.6
27256.1
27244.7
27233.6
27222.7
27212
27201.5
27191.3
27181.2
27171.4
27161.8
27152.4
27143.3
27134.3
27125.6
27117.1
27108.8
27100.7
27092.8
27085.2
27077.7
27070.5
27063.4
27056.6
27049.9
27043.5
27037.2
27031.2
27025.3
27019.6
27014.1
27008.8
27003.6
26998.6
26993.8
26989.2
26984.7
26980.4
26976.2
26972.2
26968.4
26964.7
26961.1
26957.7
26954.4
26951.2
26948.2
26945.3
26942.5
26939.9
26937.3
26934.9
26932.5
26930.3
26928.2
26926.2
26924.2
26922.4
26920.6
26919
26917.4
26915.8
26914.4
26913
26911.7
26910.5
26909.4
26908.3
26907.2
26906.2
26905.3
26904.4
26903.6
26902.9
26902.1
26901.5
26900.8
26900.2
26899.7
26899.2
26898.7
26898.3
26897.9
26897.5
26897.2
26896.9
26896.6
26896.4
26896.2
26896
26895.8
26895.7
26895.6
26895.5
26895.5
26895.4
30161.9
30161.7
30161.2
30160.6
30159.7
30158.5
30157.2
30155.6
30153.8
30151.7
30149.5
30147
30144.3
30141.4
30138.3
30134.9
30131.4
30127.6
30123.6
30119.5
30115.1
30110.5
30105.7
30100.8
30095.6
30090.3
30084.7
30079
30073.1
30067
30060.7
30054.2
30047.6
30040.8
30033.8
30026.6
30019.3
30011.8
30004.1
29996.2
29988.2
29980
29971.7
29963.1
29954.5
29945.6
29936.6
29927.4
29918.1
29908.6
29899
29889.2
29879.3
29869.2
29859
29848.6
29838.1
29827.4
29816.7
29805.7
29794.7
29783.5
29772.2
29760.7
29749.1
29737.5
29725.6
29713.7
29701.7
29689.5
29677.2
29664.9
29652.4
29639.8
29627.1
29614.3
29601.4
29588.4
29575.4
29562.2
29549
29535.6
29522.2
29508.7
29495.2
29481.5
29467.8
29454
29440.2
29426.2
29412.2
29398.2
29384.1
29369.9
29355.7
29341.4
29327.1
29312.7
29298.3
29283.8
29269.3
29254.7
29240.1
29225.5
29210.8
29196.1
29181.3
29166.6
29151.7
29136.9
29122
29107.1
29092.2
29077.2
29062.2
29047.2
29032.2
29017.1
29002.1
28986.9
28971.8
28956.7
28941.5
28926.3
28911.1
28895.9
28880.6
28865.4
28850.1
28834.8
28819.4
28804.1
28788.7
28773.3
28757.9
28742.5
28727
28711.5
28696
28680.5
28664.9
28649.4
28633.8
28618.1
28602.5
28586.8
28571.1
28555.3
28539.6
28523.8
28507.9
28492
28476.1
28460.2
28444.2
28428.2
28412.1
28396.1
28379.9
28363.7
28347.5
28331.3
28315
28298.6
28282.2
28265.8
28249.3
28232.7
28216.2
28199.5
28182.8
28166.1
28149.3
28132.5
28115.6
28098.7
28081.7
28064.7
28047.6
28030.5
28013.3
27996.1
27978.8
27961.5
27944.1
27926.7
27909.3
27891.8
27874.3
27856.7
27839.1
27821.5
27803.8
27786.1
27768.4
27750.6
27732.9
27715.1
27697.3
27679.5
27661.7
27643.8
27626
27608.2
27590.3
27572.5
27554.7
27536.9
27519.1
27501.4
27483.7
27466
27448.3
27430.7
27413.2
27395.7
27378.2
27360.9
27343.6
27326.3
27309.2
27292.1
27275.1
27258.2
27241.4
27224.7
27208.1
27191.6
27175.3
27159.1
27143
27127
27111.2
27095.5
27080
27064.6
27049.3
27034.3
27019.4
27004.6
26990.1
26975.7
26961.5
26947.5
26933.7
26920
26906.6
26893.4
26880.3
26867.5
26854.8
26842.4
26830.2
26818.2
26806.4
26794.8
26783.5
26772.3
26761.4
26750.7
26740.2
26730
26719.9
26710.1
26700.5
26691.2
26682
26673.1
26664.4
26655.9
26647.6
26639.5
26631.7
26624
26616.6
26609.4
26602.4
26595.6
26589
26582.6
26576.3
26570.3
26564.5
26558.9
26553.4
26548.1
26543
26538.1
26533.4
26528.8
26524.4
26520.1
26516
26512
26508.2
26504.6
26501.1
26497.7
26494.5
26491.4
26488.4
26485.6
26482.8
26480.2
26477.7
26475.4
26473.1
26470.9
26468.8
26466.8
26465
26463.2
26461.5
26459.8
26458.3
26456.8
26455.4
26454.1
26452.8
26451.7
26450.5
26449.5
26448.5
26447.5
26446.6
26445.8
26445
26444.3
26443.6
26442.9
26442.3
26441.8
26441.2
26440.7
26440.3
26439.9
26439.5
26439.1
26438.8
26438.5
26438.3
26438.1
26437.9
26437.7
26437.5
26437.4
26437.3
26437.2
26437.2
26437.2
29707.8
29707.6
29707.1
29706.4
29705.5
29704.4
29703
29701.4
29699.6
29697.6
29695.3
29692.8
29690.1
29687.2
29684
29680.6
29677.1
29673.3
29669.3
29665.1
29660.7
29656.1
29651.3
29646.4
29641.2
29635.8
29630.3
29624.5
29618.6
29612.5
29606.2
29599.7
29593
29586.2
29579.2
29572
29564.6
29557.1
29549.4
29541.5
29533.5
29525.3
29516.9
29508.3
29499.6
29490.7
29481.7
29472.5
29463.1
29453.6
29443.9
29434.1
29424.1
29414
29403.8
29393.3
29382.8
29372.1
29361.2
29350.3
29339.2
29327.9
29316.5
29305
29293.4
29281.7
29269.8
29257.8
29245.7
29233.5
29221.2
29208.7
29196.2
29183.5
29170.8
29157.9
29145
29132
29118.8
29105.6
29092.3
29078.9
29065.4
29051.9
29038.3
29024.6
29010.8
28996.9
28983
28969.1
28955
28940.9
28926.8
28912.5
28898.3
28884
28869.6
28855.2
28840.7
28826.2
28811.6
28797.1
28782.4
28767.8
28753
28738.3
28723.5
28708.7
28693.9
28679
28664.1
28649.2
28634.3
28619.3
28604.3
28589.3
28574.3
28559.2
28544.1
28529
28513.9
28498.8
28483.6
28468.4
28453.2
28438
28422.8
28407.5
28392.2
28376.9
28361.6
28346.3
28330.9
28315.6
28300.2
28284.8
28269.3
28253.9
28238.4
28222.9
28207.4
28191.8
28176.2
28160.6
28145
28129.4
28113.7
28098
28082.2
28066.4
28050.6
28034.8
28018.9
28003
27987
27971
27955
27938.9
27922.8
27906.6
27890.4
27874.2
27857.9
27841.6
27825.2
27808.8
27792.3
27775.7
27759.2
27742.5
27725.9
27709.1
27692.3
27675.5
27658.6
27641.7
27624.7
27607.7
27590.6
27573.4
27556.2
27539
27521.7
27504.4
27487
27469.5
27452
27434.5
27417
27399.4
27381.7
27364
27346.3
27328.6
27310.8
27293
27275.2
27257.3
27239.5
27221.6
27203.7
27185.8
27167.9
27150
27132.1
27114.2
27096.3
27078.4
27060.6
27042.7
27024.9
27007.2
26989.4
26971.8
26954.1
26936.5
26919
26901.5
26884.1
26866.8
26849.6
26832.4
26815.3
26798.3
26781.4
26764.7
26748
26731.4
26715
26698.7
26682.5
26666.5
26650.5
26634.8
26619.2
26603.7
26588.4
26573.3
26558.3
26543.5
26528.9
26514.4
26500.2
26486.1
26472.2
26458.5
26445.1
26431.8
26418.7
26405.8
26393.1
26380.7
26368.4
26356.4
26344.6
26333
26321.6
26310.5
26299.5
26288.8
26278.3
26268.1
26258
26248.2
26238.6
26229.3
26220.1
26211.2
26202.5
26194.1
26185.8
26177.8
26169.9
26162.3
26155
26147.8
26140.8
26134
26127.5
26121.1
26115
26109
26103.2
26097.6
26092.2
26087
26082
26077.1
26072.4
26067.9
26063.6
26059.4
26055.3
26051.5
26047.7
26044.1
26040.7
26037.4
26034.2
26031.2
26028.3
26025.5
26022.9
26020.3
26017.9
26015.6
26013.3
26011.2
26009.2
26007.3
26005.5
26003.7
26002.1
26000.5
25999
25997.6
25996.2
25995
25993.8
25992.6
25991.5
25990.5
25989.6
25988.7
25987.8
25987
25986.3
25985.6
25984.9
25984.3
25983.7
25983.2
25982.7
25982.2
25981.8
25981.4
25981
25980.7
25980.4
25980.1
25979.9
25979.6
25979.5
25979.3
25979.2
25979.1
25979
25978.9
25978.9
25978.8
29254.2
29254
29253.5
29252.8
29251.9
29250.8
29249.4
29247.8
29246
29243.9
29241.6
29239.1
29236.4
29233.4
29230.3
29226.9
29223.3
29219.5
29215.5
29211.3
29206.8
29202.2
29197.4
29192.4
29187.2
29181.8
29176.2
29170.5
29164.5
29158.4
29152.1
29145.6
29138.9
29132.1
29125
29117.8
29110.4
29102.9
29095.2
29087.3
29079.2
29070.9
29062.5
29053.9
29045.2
29036.3
29027.2
29018
29008.6
28999
28989.3
28979.4
28969.4
28959.2
28948.9
28938.4
28927.8
28917.1
28906.2
28895.1
28884
28872.7
28861.2
28849.7
28838
28826.2
28814.2
28802.2
28790
28777.7
28765.3
28752.8
28740.2
28727.5
28714.7
28701.8
28688.7
28675.6
28662.4
28649.1
28635.8
28622.3
28608.8
28595.2
28581.5
28567.7
28553.9
28540
28526
28512
28497.9
28483.7
28469.5
28455.2
28440.9
28426.5
28412.1
28397.7
28383.1
28368.6
28354
28339.4
28324.7
28310
28295.3
28280.5
28265.7
28250.9
28236
28221.1
28206.2
28191.3
28176.3
28161.4
28146.4
28131.3
28116.3
28101.2
28086.2
28071.1
28055.9
28040.8
28025.7
28010.5
27995.3
27980.1
27964.9
27949.6
27934.4
27919.1
27903.8
27888.5
27873.2
27857.8
27842.5
27827.1
27811.7
27796.3
27780.8
27765.3
27749.8
27734.3
27718.8
27703.2
27687.6
27672
27656.3
27640.6
27624.9
27609.2
27593.4
27577.6
27561.7
27545.8
27529.9
27513.9
27497.9
27481.9
27465.8
27449.7
27433.5
27417.3
27401
27384.7
27368.3
27351.9
27335.4
27318.9
27302.3
27285.7
27269
27252.3
27235.5
27218.7
27201.8
27184.8
27167.8
27150.8
27133.7
27116.5
27099.3
27082
27064.7
27047.3
27029.9
27012.4
26994.9
26977.4
26959.7
26942.1
26924.4
26906.7
26888.9
26871.1
26853.3
26835.4
26817.5
26799.6
26781.7
26763.7
26745.7
26727.7
26709.8
26691.8
26673.8
26655.8
26637.8
26619.9
26601.9
26584
26566.1
26548.2
26530.4
26512.6
26494.9
26477.2
26459.6
26442
26424.5
26407
26389.7
26372.4
26355.2
26338.2
26321.2
26304.3
26287.5
26270.9
26254.3
26237.9
26221.6
26205.5
26189.5
26173.6
26157.9
26142.4
26127
26111.8
26096.7
26081.9
26067.2
26052.7
26038.3
26024.2
26010.3
25996.5
25983
25969.6
25956.5
25943.6
25930.9
25918.4
25906.1
25894
25882.2
25870.6
25859.2
25848
25837
25826.3
25815.8
25805.6
25795.5
25785.7
25776.1
25766.8
25757.7
25748.8
25740.1
25731.6
25723.4
25715.4
25707.6
25700.1
25692.7
25685.6
25678.7
25672
25665.4
25659.1
25653
25647.1
25641.4
25635.9
25630.6
25625.4
25620.5
25615.7
25611.1
25606.6
25602.3
25598.2
25594.3
25590.5
25586.8
25583.3
25579.9
25576.7
25573.6
25570.7
25567.8
25565.1
25562.5
25560.1
25557.7
25555.5
25553.3
25551.3
25549.3
25547.5
25545.7
25544
25542.5
25540.9
25539.5
25538.2
25536.9
25535.7
25534.5
25533.4
25532.4
25531.4
25530.5
25529.7
25528.8
25528.1
25527.4
25526.7
25526.1
25525.5
25525
25524.5
25524
25523.6
25523.2
25522.8
25522.5
25522.2
25521.9
25521.6
25521.4
25521.2
25521
25520.9
25520.7
25520.6
25520.6
25520.5
25520.5
25520.4
28801.1
28800.9
28800.4
28799.7
28798.8
28797.7
28796.3
28794.7
28792.8
28790.8
28788.5
28785.9
28783.2
28780.2
28777
28773.6
28770
28766.2
28762.1
28757.9
28753.4
28748.8
28744
28738.9
28733.7
28728.3
28722.7
28716.9
28710.9
28704.8
28698.5
28691.9
28685.3
28678.4
28671.3
28664.1
28656.7
28649.1
28641.4
28633.4
28625.3
28617
28608.6
28600
28591.2
28582.2
28573.1
28563.8
28554.4
28544.8
28535
28525.1
28515
28504.8
28494.4
28483.9
28473.2
28462.4
28451.5
28440.4
28429.1
28417.7
28406.2
28394.6
28382.8
28371
28358.9
28346.8
28334.6
28322.2
28309.7
28297.1
28284.5
28271.7
28258.8
28245.8
28232.7
28219.5
28206.2
28192.8
28179.4
28165.9
28152.2
28138.6
28124.8
28111
28097
28083.1
28069
28054.9
28040.8
28026.5
28012.3
27997.9
27983.6
27969.1
27954.7
27940.2
27925.6
27911
27896.4
27881.7
27867
27852.2
27837.5
27822.7
27807.8
27793
27778.1
27763.2
27748.3
27733.3
27718.4
27703.4
27688.4
27673.3
27658.3
27643.2
27628.2
27613.1
27597.9
27582.8
27567.7
27552.5
27537.3
27522.2
27507
27491.7
27476.5
27461.3
27446
27430.7
27415.4
27400.1
27384.8
27369.4
27354
27338.6
27323.2
27307.8
27292.3
27276.8
27261.3
27245.8
27230.2
27214.6
27199
27183.4
27167.7
27152
27136.2
27120.5
27104.6
27088.8
27072.9
27057
27041
27025
27008.9
26992.8
26976.6
26960.4
26944.2
26927.9
26911.5
26895.1
26878.7
26862.2
26845.6
26829
26812.3
26795.6
26778.8
26762
26745.1
26728.1
26711.1
26694
26676.9
26659.7
26642.5
26625.2
26607.8
26590.4
26573
26555.4
26537.9
26520.3
26502.6
26484.9
26467.2
26449.4
26431.5
26413.7
26395.8
26377.8
26359.9
26341.9
26323.8
26305.8
26287.8
26269.7
26251.6
26233.5
26215.4
26197.3
26179.3
26161.2
26143.2
26125.1
26107.1
26089.1
26071.2
26053.3
26035.4
26017.6
25999.9
25982.2
25964.6
25947
25929.6
25912.2
25894.9
25877.7
25860.6
25843.6
25826.7
25809.9
25793.3
25776.8
25760.4
25744.1
25728
25712.1
25696.3
25680.6
25665.1
25649.8
25634.7
25619.7
25605
25590.4
25576
25561.8
25547.7
25533.9
25520.3
25506.9
25493.7
25480.7
25468
25455.4
25443.1
25431
25419.1
25407.5
25396.1
25384.9
25373.9
25363.2
25352.7
25342.4
25332.4
25322.6
25313
25303.7
25294.6
25285.7
25277.1
25268.6
25260.5
25252.5
25244.7
25237.2
25229.9
25222.8
25216
25209.3
25202.9
25196.6
25190.6
25184.8
25179.1
25173.7
25168.4
25163.4
25158.5
25153.8
25149.2
25144.9
25140.7
25136.6
25132.8
25129.1
25125.5
25122.1
25118.8
25115.7
25112.7
25109.8
25107.1
25104.4
25101.9
25099.5
25097.3
25095.1
25093
25091.1
25089.2
25087.4
25085.7
25084.1
25082.6
25081.2
25079.8
25078.5
25077.3
25076.2
25075.1
25074
25073.1
25072.2
25071.3
25070.5
25069.8
25069
25068.4
25067.8
25067.2
25066.6
25066.1
25065.7
25065.2
25064.9
25064.5
25064.1
25063.8
25063.6
25063.3
25063.1
25062.9
25062.7
25062.5
25062.4
25062.3
25062.2
25062.1
25062
25062
25062
28348.6
28348.3
28347.9
28347.2
28346.3
28345.1
28343.7
28342.1
28340.2
28338.1
28335.8
28333.3
28330.5
28327.5
28324.3
28320.8
28317.2
28313.3
28309.3
28305
28300.5
28295.8
28291
28285.9
28280.7
28275.2
28269.6
28263.8
28257.8
28251.6
28245.3
28238.8
28232
28225.1
28218.1
28210.8
28203.4
28195.8
28188
28180
28171.9
28163.6
28155.1
28146.4
28137.6
28128.6
28119.5
28110.1
28100.6
28091
28081.2
28071.2
28061.1
28050.8
28040.3
28029.7
28019
28008.1
27997.1
27985.9
27974.6
27963.1
27951.6
27939.8
27928
27916
27903.9
27891.7
27879.4
27866.9
27854.4
27841.7
27828.9
27816
27803.1
27790
27776.8
27763.5
27750.1
27736.7
27723.2
27709.5
27695.8
27682.1
27668.2
27654.3
27640.3
27626.2
27612.1
27597.9
27583.7
27569.4
27555.1
27540.7
27526.2
27511.7
27497.2
27482.6
27468
27453.4
27438.7
27424
27409.2
27394.4
27379.6
27364.8
27349.9
27335.1
27320.2
27305.2
27290.3
27275.3
27260.3
27245.3
27230.3
27215.3
27200.2
27185.2
27170.1
27155
27139.9
27124.8
27109.6
27094.5
27079.3
27064.2
27049
27033.8
27018.6
27003.4
26988.1
26972.9
26957.6
26942.3
26927
26911.7
26896.4
26881
26865.6
26850.2
26834.8
26819.4
26803.9
26788.4
26772.9
26757.4
26741.8
26726.2
26710.5
26694.9
26679.2
26663.4
26647.6
26631.8
26616
26600.1
26584.1
26568.1
26552.1
26536
26519.9
26503.7
26487.5
26471.2
26454.9
26438.5
26422.1
26405.6
26389
26372.4
26355.7
26339
26322.2
26305.4
26288.5
26271.5
26254.5
26237.4
26220.2
26203
26185.8
26168.4
26151.1
26133.6
26116.1
26098.6
26081
26063.3
26045.6
26027.8
26010
25992.1
25974.2
25956.3
25938.3
25920.3
25902.2
25884.2
25866.1
25847.9
25829.8
25811.6
25793.4
25775.2
25757
25738.8
25720.7
25702.5
25684.3
25666.2
25648
25629.9
25611.9
25593.8
25575.8
25557.9
25540
25522.2
25504.5
25486.8
25469.2
25451.7
25434.2
25416.9
25399.7
25382.5
25365.5
25348.6
25331.9
25315.2
25298.7
25282.3
25266.1
25250.1
25234.1
25218.4
25202.8