/*--------------------------------*- C++ -*----------------------------------*\
| =========                 |                                                 |
| \\      /  F ield         | OpenFOAM: The Open Source CFD Toolbox           |
|  \\    /   O peration     | Version:  v2006                                 |
|   \\  /    A nd           | Website:  www.openfoam.com                      |
|    \\/     M anipulation  |                                                 |
\*---------------------------------------------------------------------------*/
FoamFile
{
    version     2.0;
    format      ascii;
    class       volScalarField;
    location    "0";
    object      alpha.water;
}
// * * * * * * * * * * * * * * * * * * * * * * * * * * * * * * * * * * * * * //

dimensions      [0 0 0 0 0 0 0];


internalField   nonuniform List<scalar> 
67500
(
0.0465322
0.0208049
0.015169
0.00731409
-0.0116674
-0.0251492
-0.169105
-0.414777
-0.305811
-0.151227
0.0383188
0.21685
0.274327
0.139181
-0.0698178
-0.201438
-0.0626083
0.179916
0.178776
-0.0741492
-0.194158
-0.0742476
0.0104537
0.0235187
0.0240104
0.00362322
-0.014349
-0.0103544
0.00228501
0.00840783
0.00899957
0.00899957
0.00899957
0.00899957
0.00899957
0.00899957
0.00899957
0.00899957
0.00899957
0.00899957
0.00899957
0.00899957
0.00899957
0.00899957
0.00899957
0.00899957
0.00899957
0.00899957
0.00899957
0.00899957
0.00899957
0.00899957
0.00899957
0.00899957
0.00899957
0.00899957
0.00899957
0.00899957
0.00899957
0.00899957
0.00899957
0.00899957
0.00899957
0.00899957
0.00899957
0.00899957
0.00899957
0.00899957
0.00899957
0.00899957
0.00899957
0.00899957
0.00899957
0.00899957
0.00899957
0.00899957
0.00899957
0.00899957
0.00899957
0.00899957
0.00899957
0.00899957
0.00899957
0.00899957
0.00899957
0.00899957
0.00899957
0.00899957
0.00899957
0.00899957
0.00899957
0.00899957
0.00899957
0.00899957
0.00899957
0.00899957
0.00899957
0.00899957
0.00899957
0.00899957
0.00899957
0.00899957
0.00899957
0.00899957
0.00899957
0.00899957
0.00899957
0.00899957
0.00899957
0.00899957
0.00899957
0.00899957
0.00899957
0.00899957
0.00899957
0.00899957
0.00899957
0.00899957
0.00899957
0.00899957
0.00899957
0.00899957
0.00899957
0.00899957
0.00899957
0.00899957
0.00899957
0.00899957
0.00899957
0.00899957
0.00899957
0.00899957
0.00899957
0.00899957
0.00899957
0.00899957
0.00899957
0.00899957
0.00899957
0.00899957
0.00899957
0.00899957
0.00899957
0.00899957
0.00899957
0.00899957
0.00899957
0.00899957
0.00899957
0.00899957
0.00899957
0.00899957
0.00899957
0.00899957
0.00899957
0.00899957
0.00899957
0.00899957
0.00899957
0.00899957
0.00899957
0.00899957
0.00899957
0.00899957
0.00899957
0.00899957
0.00899957
0.00899957
0.00899957
0.00899957
0.00899957
0.00899957
0.00899957
0.00899957
0.00899957
0.00899957
0.00899957
0.00899957
0.00899957
0.00899957
0.00899957
0.00899957
0.00899957
0.00899957
0.00899957
0.00899957
0.00899957
0.00899957
0.00899957
0.00899957
0.00899957
0.00899957
0.00899957
0.00899957
0.00899957
0.00899957
0.00899957
0.00899957
0.00899957
0.00899957
0.00899957
0.00899957
0.00899957
0.00899957
0.00899957
0.00899957
0.00899957
0.00899957
0.00899957
0.00899957
0.00899957
0.00899957
0.00899957
0.00899957
0.00899957
0.00899957
0.00899957
0.00899957
0.00899957
0.00899957
0.00899957
0.00899957
0.00899957
0.00899957
0.00899957
0.00899957
0.00899957
0.00899957
0.00899957
0.00899957
0.00899957
0.00899957
0.00899957
0.00899957
0.00899957
0.00899957
0.00899957
0.00899957
0.00899957
0.00899957
0.00899957
0.00899957
0.00899957
0.00899957
0.00899957
0.00899957
0.00899957
0.00899957
0.00899957
0.00899957
0.00899957
0.00899957
0.00899957
0.00899957
0.00899957
0.00899957
0.00899957
0.00899957
0.00899957
0.00899957
0.00899957
0.00899957
0.00899957
0.00899957
0.00899957
0.00899957
0.00899957
0.00899957
0.00899957
0.00899957
0.00899957
0.00899957
0.00899957
0.00899957
0.00899957
0.00899957
0.00899957
0.00899957
0.00899957
0.00899957
0.00899957
0.00899957
0.00899957
0.00899957
0.00899957
0.00899957
0.00899957
0.00899957
0.00899957
0.00899957
0.00899957
0.00899957
0.00899957
0.00899957
0.00899957
0.00899957
0.00899957
0.00899957
0.00899957
0.00899957
0.00899957
0.00899957
0.00899957
0.00899957
0.00899957
0.00899957
0.00899957
0.00899957
0.00899957
0.00899957
0.00899957
0.00899957
0.00899957
0.00899957
0.00899957
0.00899957
0.00899957
0.00899957
0.00899957
0.00899957
0.00899957
0.00899957
0.00899957
0.00899957
0.00899957
0.00899957
0.00899957
0.00899957
0.00899957
0.00899957
0.00899957
0.00899957
0.00899957
0.00899957
0.00899957
0.00899957
0.00899957
0.00899957
0.00899957
0.00899957
0.00899957
0.00899957
0.00899957
0.00899957
0.00899957
0.00899957
0.00899957
0.00899957
0.00899957
0.00899957
0.00899957
0.00899957
0.00899957
0.00899957
0.00899957
0.00899957
0.00899957
0.00899957
0.00899957
0.00899957
0.00899957
0.00899957
0.00899957
0.00899957
0.00899957
0.00899957
0.00899957
0.00899957
0.00899957
0.00899957
0.00899957
0.00899957
0.00899957
0.00899957
0.00899957
0.00899957
0.00899957
0.00899957
0.00899957
0.00899957
0.00899957
0.00899957
0.00899957
0.00899957
0.00899957
0.00899957
0.00899957
0.00899957
0.00899957
0.00899957
0.00899957
0.00899957
0.00899957
0.00899957
0.00899957
0.00899957
0.00899957
0.00899957
0.00899957
0.00899957
0.00899957
0.00899957
0.00899957
0.00899957
0.00899957
0.00899957
0.00899957
0.00899957
0.00899957
0.00899957
0.00899957
0.00899957
0.00899957
0.00899957
0.00899957
0.00899957
0.00899957
0.00899957
0.00899957
0.00899957
0.00899957
0.00899957
0.00899957
0.00899957
0.00899957
0.00899957
0.00899957
0.00899957
0.00899957
0.00899957
0.00899957
0.00899957
0.00899957
0.00899957
0.00899957
0.00899957
0.00899957
0.00899957
0.00899957
0.00899957
0.00899957
0.00899957
0.00899957
0.00899957
0.00899957
0.00899957
0.00899957
0.00899957
0.00899957
0.00899957
0.0203871
0.0527933
-0.0764887
0.026058
0.0151625
-0.134518
-0.375114
-0.448263
-0.227103
0.0851465
0.22258
0.0888746
-0.0206333
0.167032
0.193711
0.0444089
-0.116622
-0.213474
-0.209871
-0.163924
-0.113907
-0.00468111
0.161113
0.300023
0.208486
-0.0333036
-0.173446
-0.192294
-0.102375
-0.00117578
0.00899957
0.00899957
0.00899957
0.00899957
0.00899957
0.00899957
0.00899957
0.00899503
0.00897614
0.0089831
0.00895575
0.00875008
0.00853497
0.00848799
0.00858595
0.00873598
0.00875187
0.00841061
0.00766457
0.00671904
0.00587694
0.00538212
0.00531879
0.00558142
0.00605639
0.00661665
0.00716202
0.00762875
0.00798908
0.00824554
0.00841617
0.00851828
0.0085653
0.00857591
0.00859706
0.00865212
0.00874071
0.00883782
0.00891756
0.00896908
0.00899222
0.00899941
0.00899957
0.00899957
0.00899957
0.00899957
0.00899957
0.00899957
0.00899957
0.00899957
0.00899957
0.00899957
0.00899957
0.00899957
0.00899957
0.00899957
0.00899957
0.00899957
0.00899957
0.00899957
0.00899957
0.00899957
0.00899957
0.00899957
0.00899957
0.00899957
0.00899957
0.00899957
0.00899957
0.00899957
0.00899957
0.00899957
0.00899957
0.00899957
0.00899957
0.00899957
0.00899957
0.00899957
0.00899957
0.00899957
0.00899957
0.00899957
0.00899957
0.00899957
0.00899957
0.00899957
0.00899957
0.00899957
0.00899957
0.00899957
0.00899957
0.00899957
0.00899957
0.00899957
0.00899957
0.00899957
0.00899957
0.00899957
0.00899957
0.00899957
0.00899957
0.00899957
0.00899957
0.00899957
0.00899957
0.00899957
0.00899957
0.00899957
0.00899957
0.00899957
0.00899957
0.00899957
0.00899957
0.00899957
0.00899957
0.00899957
0.00899957
0.00899957
0.00899957
0.00899957
0.00899957
0.00899957
0.00899957
0.00899957
0.00899957
0.00899957
0.00899957
0.00899957
0.00899957
0.00899957
0.00899957
0.00899957
0.00899957
0.00899957
0.00899957
0.00899957
0.00899957
0.00899957
0.00899957
0.00899957
0.00899957
0.00899957
0.00899957
0.00899957
0.00899957
0.00899957
0.00899957
0.00899957
0.00899957
0.00899957
0.00899957
0.00899957
0.00899957
0.00899957
0.00899957
0.00899957
0.00899957
0.00899957
0.00899957
0.00899957
0.00899957
0.00899957
0.00899957
0.00899957
0.00899957
0.00899957
0.00899957
0.00899957
0.00899957
0.00899957
0.00899957
0.00899957
0.00899957
0.00899957
0.00899957
0.00899957
0.00899957
0.00899957
0.00899957
0.00899957
0.00899957
0.00899957
0.00899957
0.00899957
0.00899957
0.00899957
0.00899957
0.00899957
0.00899957
0.00899957
0.00899957
0.00899957
0.00899957
0.00899957
0.00899957
0.00899957
0.00899957
0.00899957
0.00899957
0.00899957
0.00899957
0.00899957
0.00899957
0.00899957
0.00899957
0.00899957
0.00899957
0.00899957
0.00899957
0.00899957
0.00899957
0.00899957
0.00899957
0.00899957
0.00899957
0.00899957
0.00899957
0.00899957
0.00899957
0.00899957
0.00899957
0.00899957
0.00899957
0.00899957
0.00899957
0.00899957
0.00899957
0.00899957
0.00899957
0.00899957
0.00899957
0.00899957
0.00899957
0.00899957
0.00899957
0.00899957
0.00899957
0.00899957
0.00899957
0.00899957
0.00899957
0.00899957
0.00899957
0.00899957
0.00899957
0.00899957
0.00899957
0.00899957
0.00899957
0.00899957
0.00899957
0.00899957
0.00899957
0.00899957
0.00899957
0.00899957
0.00899957
0.00899957
0.00899957
0.00899957
0.00899957
0.00899957
0.00899957
0.00899957
0.00899957
0.00899957
0.00899957
0.00899957
0.00899957
0.00899957
0.00899957
0.00899957
0.00899957
0.00899957
0.00899957
0.00899957
0.00899957
0.00899957
0.00899957
0.00899957
0.00899957
0.00899957
0.00899957
0.00899957
0.00899957
0.00899957
0.00899957
0.00899957
0.00899957
0.00899957
0.00899957
0.00899957
0.00899957
0.00899957
0.00899957
0.00899957
0.00899957
0.00899957
0.00899957
0.00899957
0.00899957
0.00899957
0.00899957
0.00899957
0.00899957
0.00899957
0.00899957
0.00899957
0.00899957
0.00899957
0.00899957
0.00899957
0.00899957
0.00899957
0.00899957
0.00899957
0.00899957
0.00899957
0.00899957
0.00899957
0.00899957
0.00899957
0.00899957
0.00899957
0.00899957
0.00899957
0.00899957
0.00899957
0.00899957
0.00899957
0.00899957
0.00899957
0.00899957
0.00899957
0.00899957
0.00899957
0.00899957
0.00899957
0.00899957
0.00899957
0.00899957
0.00899957
0.00899957
0.00899957
0.00899957
0.00899957
0.00899957
0.00899957
0.00899957
0.00899957
0.00899957
0.00899957
0.00899957
0.00899957
0.00899957
0.00899957
0.00899957
0.00899957
0.00899957
0.00899957
0.00899957
0.00899957
0.00899957
0.00899957
0.00899957
0.00899957
0.00899957
0.00899957
0.00899957
0.00899957
0.00899957
0.00899957
0.00899957
0.00899957
0.00899957
0.00899957
0.00899957
0.00899957
0.00899957
0.00899957
0.00899957
0.00899957
0.00899957
0.00899957
0.00899957
0.00899957
0.00899957
0.00899957
0.00899957
0.00899957
0.00899957
0.00899957
0.00899957
0.00899957
0.00899957
0.00899957
0.00899957
0.00899957
0.00899957
0.00899957
0.00899957
0.00899957
0.00899957
0.00899957
0.00899957
0.00899957
0.00899957
0.00899957
0.00899957
0.00899957
0.00899957
0.00899957
0.00899957
0.00899957
0.00899957
0.00899957
0.00899957
0.00899957
0.00899957
0.00899957
0.0836951
0.0604432
-0.303033
-0.0520375
0.213971
0.360705
0.215556
-0.368783
-0.299896
0.0319267
0.267954
0.415177
0.359737
0.150324
-0.0549175
-0.145184
-0.168105
-0.174254
-0.089169
0.111551
0.254037
0.200031
0.0484844
-0.107566
-0.197959
-0.173947
-0.0574497
0.00479305
0.00899957
0.00899957
0.00896364
0.0137097
0.00929669
0.00399614
0.00990838
0.0156831
-0.00716387
-0.0265018
-0.0245857
-0.0196538
-0.022781
-0.0292321
-0.0274852
-0.0146776
0.00520635
0.0229299
0.0275022
0.0163277
-0.00390033
-0.0239032
-0.0387579
-0.0477118
-0.0516282
-0.0511472
-0.0466534
-0.0395922
-0.0315762
-0.024254
-0.0194172
-0.0176369
-0.0190603
-0.0234106
-0.03001
-0.0369298
-0.0421566
-0.044237
-0.0430823
-0.0398361
-0.0357994
-0.0321592
-0.0296711
-0.0286645
-0.0288129
-0.0301561
-0.0318449
-0.0337315
-0.0348893
-0.0349476
-0.0332529
-0.0300032
-0.0257457
-0.0210843
-0.0164683
-0.0121352
-0.00817299
-0.00461341
-0.00147005
0.00124055
0.00350377
0.00532082
0.0067103
0.00770827
0.00836107
0.00874121
0.0089291
0.00899251
0.00899957
0.00899957
0.00899957
0.00899957
0.00899957
0.00899957
0.00899957
0.00899957
0.00899957
0.00899957
0.00899957
0.00899957
0.00899957
0.00899957
0.00899957
0.00899957
0.00899957
0.00899957
0.00899957
0.00899957
0.00899957
0.00899957
0.00899957
0.00899957
0.00899957
0.00899957
0.00899957
0.00899957
0.00899957
0.00899957
0.00899957
0.00899957
0.00899957
0.00899957
0.00899957
0.00899957
0.00899957
0.00899957
0.00899957
0.00899957
0.00899957
0.00899957
0.00899957
0.00899957
0.00899957
0.00899957
0.00899957
0.00899957
0.00899957
0.00899957
0.00899957
0.00899957
0.00899957
0.00899957
0.00899957
0.00899957
0.00899957
0.00899957
0.00899957
0.00899957
0.00899957
0.00899957
0.00899957
0.00899957
0.00899957
0.00899957
0.00899957
0.00899957
0.00899957
0.00899957
0.00899957
0.00899957
0.00899957
0.00899957
0.00899957
0.00899957
0.00899957
0.00899957
0.00899957
0.00899957
0.00899957
0.00899957
0.00899957
0.00899957
0.00899957
0.00899957
0.00899957
0.00899957
0.00899957
0.00899957
0.00899957
0.00899957
0.00899957
0.00899957
0.00899957
0.00899957
0.00899957
0.00899957
0.00899957
0.00899957
0.00899957
0.00899957
0.00899957
0.00899957
0.00899957
0.00899957
0.00899957
0.00899957
0.00899957
0.00899957
0.00899957
0.00899957
0.00899957
0.00899957
0.00899957
0.00899957
0.00899957
0.00899957
0.00899957
0.00899957
0.00899957
0.00899957
0.00899957
0.00899957
0.00899957
0.00899957
0.00899957
0.00899957
0.00899957
0.00899957
0.00899957
0.00899957
0.00899957
0.00899957
0.00899957
0.00899957
0.00899957
0.00899957
0.00899957
0.00899957
0.00899957
0.00899957
0.00899957
0.00899957
0.00899957
0.00899957
0.00899957
0.00899957
0.00899957
0.00899957
0.00899957
0.00899957
0.00899957
0.00899957
0.00899957
0.00899957
0.00899957
0.00899957
0.00899957
0.00899957
0.00899957
0.00899957
0.00899957
0.00899957
0.00899957
0.00899957
0.00899957
0.00899957
0.00899957
0.00899957
0.00899957
0.00899957
0.00899957
0.00899957
0.00899957
0.00899957
0.00899957
0.00899957
0.00899957
0.00899957
0.00899957
0.00899957
0.00899957
0.00899957
0.00899957
0.00899957
0.00899957
0.00899957
0.00899957
0.00899957
0.00899957
0.00899957
0.00899957
0.00899957
0.00899957
0.00899957
0.00899957
0.00899957
0.00899957
0.00899957
0.00899957
0.00899957
0.00899957
0.00899957
0.00899957
0.00899957
0.00899957
0.00899957
0.00899957
0.00899957
0.00899957
0.00899957
0.00899957
0.00899957
0.00899957
0.00899957
0.00899957
0.00899957
0.00899957
0.00899957
0.00899957
0.00899957
0.00899957
0.00899957
0.00899957
0.00899957
0.00899957
0.00899957
0.00899957
0.00899957
0.00899957
0.00899957
0.00899957
0.00899957
0.00899957
0.00899957
0.00899957
0.00899957
0.00899957
0.00899957
0.00899957
0.00899957
0.00899957
0.00899957
0.00899957
0.00899957
0.00899957
0.00899957
0.00899957
0.00899957
0.00899957
0.00899957
0.00899957
0.00899957
0.00899957
0.00899957
0.00899957
0.00899957
0.00899957
0.00899957
0.00899957
0.00899957
0.00899957
0.00899957
0.00899957
0.00899957
0.00899957
0.00899957
0.00899957
0.00899957
0.00899957
0.00899957
0.00899957
0.00899957
0.00899957
0.00899957
0.00899957
0.00899957
0.00899957
0.00899957
0.00899957
0.00899957
0.00899957
0.00899957
0.00899957
0.00899957
0.00899957
0.00899957
0.00899957
0.00899957
0.00899957
0.00899957
0.00899957
0.00899957
0.00899957
0.00899957
0.00899957
0.00899957
0.00899957
0.00899957
0.00899957
0.00899957
0.00899957
0.00899957
0.00899957
0.00899957
0.00899957
0.00899957
0.00899957
0.00899957
0.00899957
0.00899957
0.00899957
0.00899957
0.00899957
0.00899957
0.00899957
0.00899957
0.00899957
0.00899957
0.00899957
0.00899957
0.00899957
0.00899957
0.00899957
0.00899957
0.00899957
0.00899957
0.00899957
0.00899957
0.00899957
0.00899957
0.00899957
0.00899957
0.00899957
0.00899957
0.00899957
0.00899957
0.00899957
0.00899957
0.00899957
0.00899957
0.00899957
0.00899957
0.00899957
0.00899957
0.00899957
0.00899957
0.00899957
0.00899957
0.00899957
0.00899957
0.00899957
0.00899957
0.0545375
0.00212015
0.0559668
0.320299
0.485665
0.338432
0.174548
-0.129776
-0.188122
-0.197605
-0.188383
-0.155754
-0.104501
-0.0350323
0.0503301
0.158931
0.193781
0.0580466
-0.138093
-0.143197
0.0303167
0.0277124
-0.0105988
-0.0487325
-0.0425685
-0.0477903
-0.0463068
-0.0222731
-0.0406935
-0.0838281
0.0702525
-0.0499508
-0.1306
-0.00825925
0.0721415
0.0473468
0.00272853
-0.022221
-0.0351073
-0.0429684
-0.0464869
-0.0454476
-0.0409627
-0.0348255
-0.0292398
-0.0276058
-0.0308052
-0.0376138
-0.0435405
-0.0456788
-0.0427648
-0.0353861
-0.0249391
-0.0130122
-0.00118898
0.00930553
0.0172595
0.0216938
0.0227384
0.0211488
0.0186183
0.0178017
0.0211213
0.029205
0.0418338
0.0564364
0.0701396
0.0813073
0.0885139
0.0907656
0.0882371
0.0810731
0.0695312
0.0547259
0.0369506
0.0175387
-0.00310046
-0.023457
-0.0431392
-0.0620673
-0.079666
-0.094939
-0.107229
-0.116726
-0.123013
-0.125672
-0.124899
-0.121324
-0.115222
-0.106995
-0.097205
-0.086454
-0.0757628
-0.0655539
-0.0562986
-0.0485725
-0.0418038
-0.0364343
-0.0320147
-0.0282077
-0.0243118
-0.0203487
-0.0164712
-0.0128128
-0.00939211
-0.006125
-0.00294766
7.61282e-05
0.00278143
0.0049994
0.00666072
0.00779735
0.00849872
0.00886322
0.00899065
0.00899957
0.00899957
0.00899957
0.00899957
0.00899957
0.00899957
0.00899957
0.00899957
0.00899957
0.00899957
0.00899957
0.00899957
0.00899957
0.00899957
0.00899957
0.00899957
0.00899957
0.00899957
0.00899957
0.00899957
0.00899957
0.00899957
0.00899957
0.00899957
0.00899957
0.00899957
0.00899957
0.00899957
0.00899957
0.00899957
0.00899957
0.00899957
0.00899957
0.00899957
0.00899957
0.00899957
0.00899957
0.00899957
0.00899957
0.00899957
0.00899957
0.00899957
0.00899957
0.00899957
0.00899957
0.00899957
0.00899957
0.00899957
0.00899957
0.00899957
0.00899957
0.00899957
0.00899957
0.00899957
0.00899957
0.00899957
0.00899957
0.00899957
0.00899957
0.00899957
0.00899957
0.00899957
0.00899957
0.00899957
0.00899957
0.00899957
0.00899957
0.00899957
0.00899957
0.00899957
0.00899957
0.00899957
0.00899957
0.00899957
0.00899957
0.00899957
0.00899957
0.00899957
0.00899957
0.00899957
0.00899957
0.00899957
0.00899957
0.00899957
0.00899957
0.00899957
0.00899957
0.00899957
0.00899957
0.00899957
0.00899957
0.00899957
0.00899957
0.00899957
0.00899957
0.00899957
0.00899957
0.00899957
0.00899957
0.00899957
0.00899957
0.00899957
0.00899957
0.00899957
0.00899957
0.00899957
0.00899957
0.00899957
0.00899957
0.00899957
0.00899957
0.00899957
0.00899957
0.00899957
0.00899957
0.00899957
0.00899957
0.00899957
0.00899957
0.00899957
0.00899957
0.00899957
0.00899957
0.00899957
0.00899957
0.00899957
0.00899957
0.00899957
0.00899957
0.00899957
0.00899957
0.00899957
0.00899957
0.00899957
0.00899957
0.00899957
0.00899957
0.00899957
0.00899957
0.00899957
0.00899957
0.00899957
0.00899957
0.00899957
0.00899957
0.00899957
0.00899957
0.00899957
0.00899957
0.00899957
0.00899957
0.00899957
0.00899957
0.00899957
0.00899957
0.00899957
0.00899957
0.00899957
0.00899957
0.00899957
0.00899957
0.00899957
0.00899957
0.00899957
0.00899957
0.00899957
0.00899957
0.00899957
0.00899957
0.00899957
0.00899957
0.00899957
0.00899957
0.00899957
0.00899957
0.00899957
0.00899957
0.00899957
0.00899957
0.00899957
0.00899957
0.00899957
0.00899957
0.00899957
0.00899957
0.00899957
0.00899957
0.00899957
0.00899957
0.00899957
0.00899957
0.00899957
0.00899957
0.00899957
0.00899957
0.00899957
0.00899957
0.00899957
0.00899957
0.00899957
0.00899957
0.00899957
0.00899957
0.00899957
0.00899957
0.00899957
0.00899957
0.00899957
0.00899957
0.00899957
0.00899957
0.00899957
0.00899957
0.00899957
0.00899957
0.00899957
0.00899957
0.00899957
0.00899957
0.00899957
0.00899957
0.00899957
0.00899957
0.00899957
0.00899957
0.00899957
0.00899957
0.00899957
0.00899957
0.00899957
0.00899957
0.00899957
0.00899957
0.00899957
0.00899957
0.00899957
0.00899957
0.00899957
0.00899957
0.00899957
0.00899957
0.00899957
0.00899957
0.00899957
0.00899957
0.00899957
0.00899957
0.00899957
0.00899957
0.00899957
0.00899957
0.00899957
0.00899957
0.00899957
0.00899957
0.00899957
0.00899957
0.00899957
0.00899957
0.00899957
0.00899957
0.00899957
0.00899957
0.00899957
0.00899957
0.00899957
0.00899957
0.00899957
0.00899957
0.00899957
0.00899957
0.00899957
0.00899957
0.00899957
0.00899957
0.00899957
0.00899957
0.00899957
0.00899957
0.00899957
0.00899957
0.00899957
0.00899957
0.00899957
0.00899957
0.00899957
0.00899957
0.00899957
0.00899957
0.00899957
0.00899957
0.00899957
0.00899957
0.00899957
0.00899957
0.00899957
0.00899957
0.00899957
0.00899957
0.00899957
0.00899957
0.00899957
0.00899957
0.00899957
0.00899957
0.00899957
0.00899957
0.00899957
0.00899957
0.00899957
0.00899957
0.00899957
0.00899957
0.00899957
0.00899957
0.00899957
0.00899957
0.00899957
0.00899957
0.00899957
0.00899957
0.00899957
0.00899957
0.00899957
0.00899957
0.00899957
0.00899957
0.00899957
0.00899957
0.00899957
0.00899957
0.00899957
0.00899957
0.00899957
0.00899957
0.0211088
0.103132
0.301474
0.315114
0.331088
0.187428
-0.182327
-0.0769239
-0.0295349
0.069527
0.0848567
0.00879311
-0.0628336
-0.104545
-0.11578
-0.106196
-0.0890332
0.071689
0.184172
-0.0526415
0.0409671
0.0738593
0.0859964
-0.138001
-0.133618
-0.10066
-0.0528944
0.0355011
0.175665
0.248849
0.150231
0.0894645
0.0884093
0.0999002
0.112692
0.116501
0.121512
0.126796
0.132281
0.137528
0.141122
0.142756
0.141607
0.137261
0.129943
0.121266
0.112853
0.106244
0.100521
0.0941511
0.0850013
0.0720313
0.0539903
0.0318929
0.00583999
-0.0227983
-0.0520062
-0.0812869
-0.109385
-0.13486
-0.156187
-0.172808
-0.184033
-0.188344
-0.186448
-0.177891
-0.16263
-0.141754
-0.115843
-0.0854605
-0.0525427
-0.0183138
0.0159508
0.048805
0.078524
0.105
0.1273
0.144098
0.155934
0.162805
0.165462
0.163618
0.157599
0.148744
0.137159
0.123207
0.107431
0.0905885
0.0727037
0.0542276
0.0347487
0.0147266
-0.00620978
-0.0275668
-0.0487594
-0.0695745
-0.089244
-0.107593
-0.12333
-0.136715
-0.148422
-0.157961
-0.165806
-0.170977
-0.172516
-0.169923
-0.162693
-0.151501
-0.137422
-0.12174
-0.105157
-0.0879772
-0.0709611
-0.0546467
-0.0396475
-0.0267681
-0.0163256
-0.00861468
-0.00253777
0.002063
0.00524535
0.00726091
0.00840043
0.00888694
0.00899957
0.00899957
0.00899957
0.00899957
0.00899957
0.00899957
0.00899957
0.00899957
0.00899957
0.00899957
0.00899957
0.00899957
0.00899957
0.00899957
0.00899957
0.00899957
0.00899957
0.00899957
0.00899957
0.00899957
0.00899957
0.00899957
0.00899957
0.00899957
0.00899957
0.00899957
0.00899957
0.00899957
0.00899957
0.00899957
0.00899957
0.00899957
0.00899957
0.00899957
0.00899957
0.00899957
0.00899957
0.00899957
0.00899957
0.00899957
0.00899957
0.00899957
0.00899957
0.00899957
0.00899957
0.00899957
0.00899957
0.00899957
0.00899957
0.00899957
0.00899957
0.00899957
0.00899957
0.00899957
0.00899957
0.00899957
0.00899957
0.00899957
0.00899957
0.00899957
0.00899957
0.00899957
0.00899957
0.00899957
0.00899957
0.00899957
0.00899957
0.00899957
0.00899957
0.00899957
0.00899957
0.00899957
0.00899957
0.00899957
0.00899957
0.00899957
0.00899957
0.00899957
0.00899957
0.00899957
0.00899957
0.00899957
0.00899957
0.00899957
0.00899957
0.00899957
0.00899957
0.00899957
0.00899957
0.00899957
0.00899957
0.00899957
0.00899957
0.00899957
0.00899957
0.00899957
0.00899957
0.00899957
0.00899957
0.00899957
0.00899957
0.00899957
0.00899957
0.00899957
0.00899957
0.00899957
0.00899957
0.00899957
0.00899957
0.00899957
0.00899957
0.00899957
0.00899957
0.00899957
0.00899957
0.00899957
0.00899957
0.00899957
0.00899957
0.00899957
0.00899957
0.00899957
0.00899957
0.00899957
0.00899957
0.00899957
0.00899957
0.00899957
0.00899957
0.00899957
0.00899957
0.00899957
0.00899957
0.00899957
0.00899957
0.00899957
0.00899957
0.00899957
0.00899957
0.00899957
0.00899957
0.00899957
0.00899957
0.00899957
0.00899957
0.00899957
0.00899957
0.00899957
0.00899957
0.00899957
0.00899957
0.00899957
0.00899957
0.00899957
0.00899957
0.00899957
0.00899957
0.00899957
0.00899957
0.00899957
0.00899957
0.00899957
0.00899957
0.00899957
0.00899957
0.00899957
0.00899957
0.00899957
0.00899957
0.00899957
0.00899957
0.00899957
0.00899957
0.00899957
0.00899957
0.00899957
0.00899957
0.00899957
0.00899957
0.00899957
0.00899957
0.00899957
0.00899957
0.00899957
0.00899957
0.00899957
0.00899957
0.00899957
0.00899957
0.00899957
0.00899957
0.00899957
0.00899957
0.00899957
0.00899957
0.00899957
0.00899957
0.00899957
0.00899957
0.00899957
0.00899957
0.00899957
0.00899957
0.00899957
0.00899957
0.00899957
0.00899957
0.00899957
0.00899957
0.00899957
0.00899957
0.00899957
0.00899957
0.00899957
0.00899957
0.00899957
0.00899957
0.00899957
0.00899957
0.00899957
0.00899957
0.00899957
0.00899957
0.00899957
0.00899957
0.00899957
0.00899957
0.00899957
0.00899957
0.00899957
0.00899957
0.00899957
0.00899957
0.00899957
0.00899957
0.00899957
0.00899957
0.00899957
0.00899957
0.00899957
0.00899957
0.00899957
0.00899957
0.00899957
0.00899957
0.00899957
0.00899957
0.00899957
0.00899957
0.00899957
0.00899957
0.00899957
0.00899957
0.00899957
0.00899957
0.00899957
0.00899957
0.00899957
0.00899957
0.00899957
0.00899957
0.00899957
0.00899957
0.00899957
0.00899957
0.00899957
0.00899957
0.00899957
0.00899957
0.00899957
0.00899957
0.00899957
0.00899957
0.00899957
0.00899957
0.00899957
0.00899957
0.00899957
0.00899957
0.00899957
0.00899957
0.00899957
0.00899957
0.00899957
0.00899957
0.00899957
0.00899957
0.00899957
0.00899957
0.00899957
0.00899957
0.00899957
0.00899957
0.00899957
0.00899957
0.00899957
0.00899957
0.00899957
0.00899957
0.00899957
0.00899957
0.00899957
0.00899957
0.00899957
0.00899957
0.00899957
0.00899957
0.00899957
0.00899957
0.00899957
0.00899957
0.00899957
0.00899957
0.00899957
0.00899957
0.00899957
0.00899957
0.00899957
0.00899957
0.00899957
0.00899957
0.00899957
0.00899957
0.00899957
0.00899957
0.00899957
-0.00662113
0.16852
0.198456
0.13581
0.164108
0.2241
0.00607842
-0.271363
-0.126542
0.0869866
0.161391
0.0718967
-0.0527127
-0.132412
-0.0667026
0.0424084
-0.0294653
-0.150164
0.0568062
0.243543
0.133599
-0.0336314
-0.134891
-0.18293
-0.195264
-0.193072
-0.182428
-0.15284
-0.0286291
-0.0985419
-0.178529
-0.179044
-0.179485
-0.179725
-0.178277
-0.174703
-0.169275
-0.161456
-0.151667
-0.140314
-0.126603
-0.109876
-0.0897549
-0.0653046
-0.0368245
-0.00425879
0.0302712
0.0653987
0.0993415
0.13147
0.160617
0.184561
0.204287
0.217583
0.224211
0.224221
0.216461
0.201959
0.181442
0.155088
0.123896
0.0894634
0.0527564
0.0155897
-0.0212077
-0.0566528
-0.0889135
-0.118369
-0.14357
-0.164828
-0.181896
-0.193731
-0.201748
-0.205176
-0.204087
-0.199187
-0.190359
-0.177223
-0.160756
-0.140611
-0.117262
-0.0909809
-0.0617381
-0.0312522
0.00115367
0.0343172
0.066752
0.0983484
0.127549
0.1538
0.177138
0.19554
0.210156
0.219794
0.223469
0.221944
0.213937
0.200568
0.181292
0.157033
0.128919
0.0968262
0.0627438
0.0267005
-0.0102034
-0.0463657
-0.0816436
-0.115023
-0.144933
-0.17085
-0.192514
-0.208845
-0.219766
-0.224682
-0.223192
-0.215772
-0.202349
-0.183226
-0.160753
-0.136286
-0.111182
-0.0863242
-0.0633683
-0.0431024
-0.0257627
-0.0125994
-0.00347557
0.00215669
0.0057604
0.00782799
0.00874499
0.00899657
0.00899957
0.00899957
0.00899957
0.00899957
0.00899957
0.00899957
0.00899957
0.00899957
0.00899957
0.00899957
0.00899957
0.00899957
0.00899957
0.00899957
0.00899957
0.00899957
0.00899957
0.00899957
0.00899957
0.00899957
0.00899957
0.00899957
0.00899957
0.00899957
0.00899957
0.00899957
0.00899957
0.00899957
0.00899957
0.00899957
0.00899957
0.00899957
0.00899957
0.00899957
0.00899957
0.00899957
0.00899957
0.00899957
0.00899957
0.00899957
0.00899957
0.00899957
0.00899957
0.00899957
0.00899957
0.00899957
0.00899957
0.00899957
0.00899957
0.00899957
0.00899957
0.00899957
0.00899957
0.00899957
0.00899957
0.00899957
0.00899957
0.00899957
0.00899957
0.00899957
0.00899957
0.00899957
0.00899957
0.00899957
0.00899957
0.00899957
0.00899957
0.00899957
0.00899957
0.00899957
0.00899957
0.00899957
0.00899957
0.00899957
0.00899957
0.00899957
0.00899957
0.00899957
0.00899957
0.00899957
0.00899957
0.00899957
0.00899957
0.00899957
0.00899957
0.00899957
0.00899957
0.00899957
0.00899957
0.00899957
0.00899957
0.00899957
0.00899957
0.00899957
0.00899957
0.00899957
0.00899957
0.00899957
0.00899957
0.00899957
0.00899957
0.00899957
0.00899957
0.00899957
0.00899957
0.00899957
0.00899957
0.00899957
0.00899957
0.00899957
0.00899957
0.00899957
0.00899957
0.00899957
0.00899957
0.00899957
0.00899957
0.00899957
0.00899957
0.00899957
0.00899957
0.00899957
0.00899957
0.00899957
0.00899957
0.00899957
0.00899957
0.00899957
0.00899957
0.00899957
0.00899957
0.00899957
0.00899957
0.00899957
0.00899957
0.00899957
0.00899957
0.00899957
0.00899957
0.00899957
0.00899957
0.00899957
0.00899957
0.00899957
0.00899957
0.00899957
0.00899957
0.00899957
0.00899957
0.00899957
0.00899957
0.00899957
0.00899957
0.00899957
0.00899957
0.00899957
0.00899957
0.00899957
0.00899957
0.00899957
0.00899957
0.00899957
0.00899957
0.00899957
0.00899957
0.00899957
0.00899957
0.00899957
0.00899957
0.00899957
0.00899957
0.00899957
0.00899957
0.00899957
0.00899957
0.00899957
0.00899957
0.00899957
0.00899957
0.00899957
0.00899957
0.00899957
0.00899957
0.00899957
0.00899957
0.00899957
0.00899957
0.00899957
0.00899957
0.00899957
0.00899957
0.00899957
0.00899957
0.00899957
0.00899957
0.00899957
0.00899957
0.00899957
0.00899957
0.00899957
0.00899957
0.00899957
0.00899957
0.00899957
0.00899957
0.00899957
0.00899957
0.00899957
0.00899957
0.00899957
0.00899957
0.00899957
0.00899957
0.00899957
0.00899957
0.00899957
0.00899957
0.00899957
0.00899957
0.00899957
0.00899957
0.00899957
0.00899957
0.00899957
0.00899957
0.00899957
0.00899957
0.00899957
0.00899957
0.00899957
0.00899957
0.00899957
0.00899957
0.00899957
0.00899957
0.00899957
0.00899957
0.00899957
0.00899957
0.00899957
0.00899957
0.00899957
0.00899957
0.00899957
0.00899957
0.00899957
0.00899957
0.00899957
0.00899957
0.00899957
0.00899957
0.00899957
0.00899957
0.00899957
0.00899957
0.00899957
0.00899957
0.00899957
0.00899957
0.00899957
0.00899957
0.00899957
0.00899957
0.00899957
0.00899957
0.00899957
0.00899957
0.00899957
0.00899957
0.00899957
0.00899957
0.00899957
0.00899957
0.00899957
0.00899957
0.00899957
0.00899957
0.00899957
0.00899957
0.00899957
0.00899957
0.00899957
0.00899957
0.00899957
0.00899957
0.00899957
0.00899957
0.00899957
0.00899957
0.00899957
0.00899957
0.00899957
0.00899957
0.00899957
0.00899957
0.00899957
0.00899957
0.00899957
0.00899957
0.00899957
0.00899957
0.00899957
0.00899957
0.00899957
0.00899957
0.00899957
0.00899957