/*--------------------------------*- C++ -*----------------------------------*\
| =========                 |                                                 |
| \\      /  F ield         | OpenFOAM: The Open Source CFD Toolbox           |
|  \\    /   O peration     | Version:  v2006                                 |
|   \\  /    A nd           | Website:  www.openfoam.com                      |
|    \\/     M anipulation  |                                                 |
\*---------------------------------------------------------------------------*/
FoamFile
{
    version     2.0;
    format      ascii;
    class       volScalarField;
    location    "2.4";
    object      p;
}
// * * * * * * * * * * * * * * * * * * * * * * * * * * * * * * * * * * * * * //

dimensions      [1 -1 -2 0 0 0 0];


internalField   nonuniform List<scalar> 
150000
(
17629.3
17630.2
17628.6
17627.7
17626
17623.9
17621.5
17618.7
17615.5
17612
17608.2
17604
17599.5
17594.6
17589.5
17584.1
17578.5
17572.6
17566.5
17560.2
17553.6
17546.9
17540.1
17533
17525.9
17518.6
17511.3
17503.8
17496.3
17488.8
17481.1
17473.5
17465.9
17458.2
17450.6
17442.9
17435.3
17427.7
17420.2
17412.7
17405.2
17397.7
17390.4
17383
17375.7
17368.4
17361.1
17353.9
17346.6
17339.4
17332.1
17324.8
17317.5
17310.1
17302.7
17295.2
17287.6
17279.9
17272.1
17264.1
17256.1
17247.9
17239.5
17231
17222.1
17213
17203.8
17194.3
17184.5
17174.5
17164.3
17153.8
17143
17132
17120.7
17109.2
17097.3
17085.3
17073
17060.4
17047.7
17034.7
17021.5
17008.1
16994.6
16980.9
16967
16953.1
16939
16924.9
16910.7
16896.6
16882.4
16868.3
16854.2
16840.2
16826.4
16812.7
16799.2
16785.9
16772.8
16760.1
16747.6
16735.4
16723.7
16712.3
16701.3
16690.7
16680.6
16671
16661.8
16653.2
16645.1
16637.5
16630.5
16624
16618.1
16612.7
16607.9
16603.7
16600.1
16597
16594.5
16592.5
16591
16590.1
16589.8
16589.9
16590.5
16591.7
16593.3
16595.4
16597.9
16600.8
16604.2
16608
16612.1
16616.7
16621.5
16626.8
16632.3
16638.2
16644.3
16650.8
16657.5
16664.4
16671.6
16679
16686.6
16694.4
16702.3
16710.5
16718.7
16727.2
16735.7
16744.4
16753.2
16762
16771
16780.1
16789.2
16798.4
16807.7
16817.1
16826.5
16836
16845.5
16855.1
16864.7
16874.4
16884.2
16894
16903.8
16913.8
16923.8
16933.8
16944
16954.2
16964.5
16974.9
16985.3
16995.9
17006.6
17017.4
17028.3
17039.4
17050.6
17061.9
17073.3
17085
17096.8
17108.7
17120.9
17133.2
17145.8
17158.5
17171.5
17184.7
17198.1
17211.7
17225.6
17239.8
17254.2
17268.8
17283.8
17299
17314.5
17330.3
17346.5
17362.9
17379.7
17396.7
17414.1
17431.9
17450
17468.4
17487.2
17506.4
17525.9
17545.9
17566.2
17586.9
17608
17629.5
17651.4
17673.8
17696.5
17719.7
17743.4
17767.5
17792
17817
17842.5
17868.4
17894.8
17921.7
17949.1
17977
18005.3
18034.2
18063.6
18093.6
18124
18155
18186.6
18218.7
18251.3
18284.5
18318.2
18352.6
18387.4
18422.9
18459
18495.6
18532.8
18570.7
18609.1
18648.1
18687.8
18728
18768.9
18810.3
18852.4
18895.1
18938.5
18982.4
19027
19072.2
19118
19164.5
19211.6
19259.3
19307.7
19356.6
19406.2
19456.4
19507.3
19558.7
19610.8
19663.5
19716.8
19770.7
19825.2
19880.3
19936
19992.3
20049.2
20106.6
20164.6
20223.2
20282.3
20342
20402.2
20462.9
20524.2
20585.9
20648.1
20710.9
20774.1
20837.7
20901.8
20966.3
21031.2
21096.5
21162.3
21228.3
21294.8
21361.5
21428.6
21495.9
21563.5
21631.4
21699.5
21767.9
21836.4
21905
21973.9
22042.8
22111.9
22181
22250.2
22319.3
22388.5
22457.7
22526.8
22595.8
22664.8
22733.6
22802.2
22870.6
22938.8
23006.8
23074.5
23141.9
23208.9
23275.6
23341.9
23407.8
23473.3
23538.3
23602.7
23666.7
23730.1
23793
23855.2
23916.8
23977.8
24038.1
24097.7
24156.6
24214.8
24272.2
24328.8
24384.6
24439.5
24493.7
24547
24599.4
24650.9
24701.6
24751.3
24800
24847.9
24894.8
24940.7
24985.6
25029.6
25072.6
25114.6
25155.6
25195.5
25234.5
25272.5
25309.4
25345.3
25380.3
25414.2
25447.1
25479
25509.9
25539.8
25568.7
25596.7
25623.6
25649.6
25674.7
25698.8
25721.9
25744.2
25765.5
25786
25805.5
25824.2
25842.1
25859.1
25875.3
25890.7
25905.3
25919.2
25932.3
25944.7
25956.4
25967.4
25977.7
25987.4
25996.5
26004.9
26012.8
26020.1
26026.9
26033.1
26038.9
26044.2
26049
26053.3
26057.3
26060.8
26064
26066.8
26069.2
26071.4
26073.2
26074.7
26076
26077
26077.8
26078.3
26078.6
26078.8
26078.7
26078.5
26078.1
26077.6
26077
26076.2
26075.3
26074.3
26073.3
26072.1
26070.9
26069.6
26068.3
26066.9
26065.5
26064
26062.5
26061
26059.4
26057.8
26056.3
26054.7
26053.1
26051.5
26049.9
26048.4
26046.8
26045.2
26043.7
26042.1
26040.6
26039.1
26037.7
26036.2
26034.8
26033.4
26032
26030.7
26029.4
26028.1
26026.8
26025.6
26024.4
26023.3
26022.2
26021.1
26020
26019
26018.1
26017.1
26016.2
26015.4
26014.6
26013.8
26013.1
26012.4
26011.7
26011.1
26010.6
26010
26009.6
26009.1
26008.8
26008.3
26008.2
26007.7
26007.8
26007.2
26007.5
26007.1
26007.3
17301.9
17302.8
17301.2
17300.3
17298.6
17296.5
17294.1
17291.3
17288.1
17284.6
17280.8
17276.6
17272.1
17267.3
17262.2
17256.8
17251.1
17245.3
17239.2
17232.8
17226.3
17219.6
17212.8
17205.7
17198.6
17191.4
17184
17176.6
17169.1
17161.5
17153.9
17146.3
17138.6
17131
17123.4
17115.7
17108.1
17100.6
17093
17085.5
17078.1
17070.6
17063.2
17055.9
17048.6
17041.3
17034.1
17026.8
17019.6
17012.3
17005.1
16997.8
16990.5
16983.2
16975.7
16968.2
16960.7
16953
16945.2
16937.2
16929.1
16920.8
16912.3
16903.6
16894.8
16885.8
16876.6
16867.1
16857.3
16847.4
16837.1
16826.7
16815.9
16804.9
16793.6
16782.1
16770.3
16758.2
16745.9
16733.4
16720.6
16707.6
16694.4
16681
16667.5
16653.8
16639.9
16626
16611.9
16597.8
16583.6
16569.4
16555.2
16541.1
16527
16513
16499.2
16485.5
16471.9
16458.6
16445.6
16432.8
16420.3
16408.1
16396.3
16384.9
16373.9
16363.3
16353.2
16343.5
16334.4
16325.7
16317.6
16310
16303
16296.5
16290.6
16285.3
16280.5
16276.3
16272.6
16269.6
16267
16265.1
16263.6
16262.7
16262.4
16262.5
16263.2
16264.3
16265.9
16268
16270.6
16273.5
16276.9
16280.7
16284.9
16289.4
16294.3
16299.5
16305.1
16311
16317.2
16323.6
16330.3
16337.3
16344.4
16351.8
16359.4
16367.2
16375.2
16383.4
16391.6
16400.1
16408.6
16417.3
16426.1
16435
16444
16453
16462.2
16471.4
16480.7
16490.1
16499.5
16508.9
16518.5
16528.1
16537.7
16547.4
16557.1
16566.9
16576.8
16586.7
16596.7
16606.8
16616.9
16627.1
16637.4
16647.8
16658.3
16668.9
16679.5
16690.3
16701.2
16712.3
16723.5
16734.8
16746.2
16757.9
16769.6
16781.6
16793.8
16806.1
16818.6
16831.4
16844.3
16857.5
16870.9
16884.5
16898.4
16912.6
16927
16941.6
16956.6
16971.8
16987.3
17003.1
17019.2
17035.7
17052.4
17069.5
17086.9
17104.6
17122.7
17141.2
17160
17179.1
17198.7
17218.6
17238.9
17259.6
17280.7
17302.2
17324.1
17346.4
17369.2
17392.4
17416
17440.1
17464.7
17489.7
17515.1
17541
17567.5
17594.3
17621.7
17649.6
17678
17706.9
17736.3
17766.2
17796.7
17827.7
17859.2
17891.3
17923.9
17957.1
17990.8
18025.1
18060
18095.5
18131.6
18168.2
18205.4
18243.2
18281.7
18320.7
18360.3
18400.6
18441.4
18482.9
18525
18567.7
18611
18655
18699.6
18744.8
18790.6
18837.1
18884.2
18931.9
18980.2
19029.2
19078.8
19129
19179.9
19231.3
19283.4
19336.1
19389.4
19443.3
19497.8
19552.9
19608.6
19664.9
19721.8
19779.2
19837.3
19895.8
19955
20014.6
20074.8
20135.6
20196.8
20258.6
20320.8
20383.5
20446.7
20510.4
20574.5
20639
20704
20769.3
20835
20901.1
20967.5
21034.3
21101.4
21168.7
21236.4
21304.3
21372.4
21440.7
21509.3
21578
21646.8
21715.8
21784.8
21854
21923.2
21992.4
22061.6
22130.8
22199.9
22268.9
22337.9
22406.7
22475.3
22543.8
22612
22680
22747.7
22815.1
22882.2
22948.9
23015.2
23081.1
23146.6
23211.6
23276.1
23340.1
23403.5
23466.4
23528.7
23590.3
23651.3
23711.6
23771.2
23830.1
23888.3
23945.7
24002.3
24058.1
24113.1
24167.3
24220.6
24273
24324.6
24375.2
24424.9
24473.7
24521.5
24568.4
24614.4
24659.3
24703.3
24746.3
24788.2
24829.2
24869.2
24908.2
24946.1
24983.1
25019
25054
25087.9
25120.8
25152.7
25183.6
25213.5
25242.4
25270.3
25297.3
25323.3
25348.3
25372.4
25395.6
25417.8
25439.1
25459.6
25479.1
25497.8
25515.6
25532.6
25548.8
25564.2
25578.8
25592.7
25605.8
25618.2
25629.8
25640.8
25651.1
25660.8
25669.9
25678.3
25686.2
25693.5
25700.2
25706.5
25712.2
25717.5
25722.3
25726.6
25730.5
25734.1
25737.2
25740
25742.4
25744.6
25746.4
25747.9
25749.2
25750.2
25750.9
25751.4
25751.8
25751.9
25751.8
25751.6
25751.2
25750.7
25750
25749.3
25748.4
25747.4
25746.3
25745.2
25743.9
25742.6
25741.3
25739.9
25738.5
25737
25735.5
25734
25732.4
25730.8
25729.3
25727.7
25726.1
25724.5
25722.9
25721.3
25719.8
25718.2
25716.7
25715.1
25713.6
25712.1
25710.6
25709.2
25707.8
25706.4
25705
25703.7
25702.3
25701.1
25699.8
25698.6
25697.4
25696.2
25695.1
25694
25693
25692
25691
25690.1
25689.2
25688.3
25687.5
25686.8
25686
25685.3
25684.7
25684.1
25683.5
25683
25682.5
25682.1
25681.7
25681.3
25681.1
25680.6
25680.8
25680.2
25680.5
25680
25680.2
16974.2
16975.1
16973.5
16972.6
16970.9
16968.8
16966.4
16963.6
16960.4
16956.9
16953.1
16948.9
16944.4
16939.6
16934.5
16929.1
16923.5
16917.6
16911.5
16905.2
16898.7
16892
16885.1
16878.1
16871
16863.8
16856.4
16849
16841.5
16834
16826.4
16818.8
16811.2
16803.5
16795.9
16788.3
16780.7
16773.2
16765.6
16758.1
16750.7
16743.3
16735.9
16728.6
16721.3
16714.1
16706.9
16699.6
16692.4
16685.2
16678
16670.8
16663.5
16656.2
16648.8
16641.3
16633.8
16626.1
16618.3
16610.4
16602.4
16594.1
16585.7
16577.2
16568.4
16559.4
16550.1
16540.6
16530.8
16520.9
16510.6
16500.1
16489.3
16478.3
16467
16455.4
16443.6
16431.5
16419.2
16406.6
16393.8
16380.8
16367.5
16354.1
16340.5
16326.7
16312.8
16298.8
16284.7
16270.5
16256.3
16242.1
16227.8
16213.6
16199.5
16185.5
16171.5
16157.8
16144.2
16130.9
16117.7
16104.9
16092.4
16080.2
16068.3
16056.9
16045.9
16035.3
16025.1
16015.4
16006.3
15997.6
15989.5
15981.9
15974.9
15968.4
15962.5
15957.1
15952.4
15948.2
15944.5
15941.5
15939
15937
15935.6
15934.8
15934.4
15934.6
15935.3
15936.5
15938.1
15940.2
15942.8
15945.8
15949.2
15953
15957.2
15961.8
15966.7
15972
15977.6
15983.5
15989.7
15996.2
16002.9
16009.9
16017.1
16024.5
16032.2
16040
16048
16056.1
16064.4
16072.9
16081.5
16090.2
16099
16107.9
16116.9
16125.9
16135.1
16144.3
16153.6
16163
16172.4
16181.9
16191.4
16201
16210.6
16220.3
16230.1
16239.9
16249.7
16259.6
16269.6
16279.7
16289.8
16300
16310.3
16320.7
16331.1
16341.7
16352.4
16363.2
16374.1
16385.1
16396.3
16407.6
16419
16430.6
16442.4
16454.4
16466.5
16478.8
16491.3
16504.1
16517
16530.2
16543.6
16557.2
16571.1
16585.2
16599.6
16614.2
16629.2
16644.4
16659.9
16675.7
16691.8
16708.2
16725
16742
16759.4
16777.1
16795.2
16813.7
16832.4
16851.6
16871.1
16891
16911.3
16932
16953.1
16974.6
16996.5
17018.8
17041.6
17064.8
17088.4
17112.5
17137
17162
17187.4
17213.3
17239.7
17266.6
17294
17321.9
17350.2
17379.1
17408.5
17438.4
17468.9
17499.9
17531.4
17563.5
17596.1
17629.3
17663
17697.3
17732.2
17767.7
17803.7
17840.4
17877.6
17915.4
17953.8
17992.8
18032.5
18072.7
18113.6
18155
18197.1
18239.8
18283.2
18327.1
18371.7
18416.9
18462.7
18509.2
18556.3
18604
18652.4
18701.3
18750.9
18801.2
18852
18903.5
18955.5
19008.2
19061.6
19115.5
19170
19225.1
19280.8
19337.1
19394
19451.5
19509.5
19568.1
19627.2
19686.9
19747.1
19807.9
19869.1
19930.9
19993.1
20055.9
20119.1
20182.8
20246.9
20311.4
20376.4
20441.7
20507.5
20573.6
20640.1
20706.8
20773.9
20841.3
20909
20976.9
21045.1
21113.5
21182
21250.8
21319.6
21388.6
21457.7
21526.9
21596.1
21665.4
21734.6
21803.8
21873
21942.1
22011.1
22079.9
22148.6
22217.1
22285.4
22353.4
22421.1
22488.6
22555.7
22622.4
22688.8
22754.8
22820.3
22885.3
22949.8
23013.9
23077.3
23140.2
23202.5
23264.2
23325.2
23385.6
23445.2
23504.1
23562.3
23619.8
23676.4
23732.3
23787.3
23841.5
23894.8
23947.2
23998.8
24049.4
24099.2
24148
24195.8
24242.7
24288.7
24333.6
24377.6
24420.6
24462.6
24503.6
24543.6
24582.6
24620.5
24657.5
24693.4
24728.3
24762.2
24795.1
24827
24857.9
24887.8
24916.7
24944.6
24971.6
24997.5
25022.6
25046.6
25069.8
25092
25113.3
25133.7
25153.3
25171.9
25189.7
25206.7
25222.9
25238.3
25252.8
25266.7
25279.7
25292.1
25303.7
25314.7
25325
25334.6
25343.7
25352.1
25359.9
25367.2
25373.9
25380.1
25385.8
25391.1
25395.8
25400.1
25404.1
25407.6
25410.7
25413.4
25415.9
25418
25419.7
25421.2
25422.5
25423.4
25424.2
25424.7
25425
25425.1
25425
25424.8
25424.4
25423.8
25423.2
25422.4
25421.5
25420.5
25419.4
25418.2
25417
25415.7
25414.3
25412.9
25411.5
25410
25408.5
25406.9
25405.4
25403.8
25402.2
25400.6
25399
25397.5
25395.9
25394.3
25392.7
25391.1
25389.6
25388.1
25386.5
25385
25383.6
25382.1
25380.7
25379.3
25377.9
25376.6
25375.3
25374
25372.7
25371.5
25370.3
25369.2
25368
25367
25365.9
25364.9
25363.9
25363
25362.1
25361.2
25360.4
25359.7
25358.9
25358.2
25357.6
25357
25356.4
25355.9
25355.4
25354.9
25354.6
25354.2
25354
25353.5
25353.6
25353.1
25353.4
25352.8
25353.1
16646.2
16647.1
16645.5
16644.6
16642.9
16640.8
16638.4
16635.6
16632.4
16628.9
16625.1
16620.9
16616.4
16611.6
16606.5
16601.1
16595.5
16589.6
16583.5
16577.2
16570.7
16564.1
16557.2
16550.2
16543.1
16535.9
16528.6
16521.2
16513.7
16506.2
16498.6
16491
16483.4
16475.8
16468.2
16460.6
16453
16445.5
16438
16430.6
16423.2
16415.8
16408.5
16401.2
16393.9
16386.7
16379.5
16372.4
16365.2
16358.1
16350.9
16343.7
16336.5
16329.2
16321.9
16314.4
16306.9
16299.3
16291.6
16283.7
16275.7
16267.5
16259
16250.5
16241.6
16232.7
16223.4
16214
16204.3
16194.3
16184
16173.5
16162.8
16151.7
16140.4
16128.8
16117
16104.8
16092.5
16079.9
16067
16053.9
16040.6
16027.2
16013.5
15999.7
15985.7
15971.6
15957.5
15943.2
15928.9
15914.6
15900.3
15886
15871.8
15857.7
15843.7
15829.9
15816.2
15802.8
15789.6
15776.7
15764.1
15751.8
15740
15728.4
15717.4
15706.7
15696.5
15686.8
15677.6
15669
15660.8
15653.2
15646.2
15639.7
15633.8
15628.5
15623.7
15619.5
15615.9
15612.9
15610.4
15608.5
15607.1
15606.3
15606
15606.2
15606.9
15608.2
15609.9
15612
15614.6
15617.7
15621.1
15625
15629.3
15633.9
15638.9
15644.2
15649.8
15655.8
15662
15668.5
15675.3
15682.3
15689.6
15697.1
15704.7
15712.6
15720.6
15728.8
15737.1
15745.6
15754.2
15762.9
15771.7
15780.7
15789.7
15798.8
15807.9
15817.2
15826.5
15835.8
15845.3
15854.7
15864.3
15873.9
15883.5
15893.2
15902.9
15912.7
15922.6
15932.5
15942.5
15952.5
15962.6
15972.8
15983.1
15993.5
16003.9
16014.5
16025.1
16035.9
16046.8
16057.8
16069
16080.2
16091.7
16103.3
16115
16127
16139.1
16151.4
16163.9
16176.6
16189.5
16202.7
16216.1
16229.7
16243.5
16257.7
16272
16286.7
16301.6
16316.8
16332.3
16348.1
16364.2
16380.6
16397.3
16414.3
16431.7
16449.4
16467.5
16485.9
16504.7
16523.8
16543.3
16563.2
16583.5
16604.2
16625.2
16646.7
16668.6
16690.9
16713.7
16736.8
16760.4
16784.5
16809
16834
16859.4
16885.3
16911.7
16938.6
16965.9
16993.8
17022.1
17051
17080.4
17110.3
17140.7
17171.7
17203.2
17235.3
17267.9
17301.1
17334.8
17369.1
17404
17439.4
17475.5
17512.1
17549.3
17587.1
17625.5
17664.6
17704.2
17744.4
17785.3
17826.7
17868.8
17911.5
17954.8
17998.8
18043.4
18088.6
18134.4
18180.9
18228
18275.7
18324
18373
18422.6
18472.8
18523.7
18575.2
18627.3
18680
18733.3
18787.2
18841.7
18896.9
18952.6
19008.9
19065.8
19123.3
19181.3
19239.9
19299.1
19358.8
19419
19479.8
19541.1
19602.9
19665.1
19727.9
19791.1
19854.8
19919
19983.6
20048.5
20113.9
20179.7
20245.9
20312.3
20379.2
20446.3
20513.7
20581.5
20649.4
20717.6
20786
20854.6
20923.4
20992.4
21061.4
21130.5
21199.8
21269.1
21338.4
21407.7
21476.9
21546.1
21615.3
21684.3
21753.3
21822
21890.5
21958.9
22026.9
22094.7
22162.2
22229.4
22296.2
22362.6
22428.6
22494.2
22559.3
22623.9
22688
22751.5
22814.4
22876.8
22938.5
22999.6
23060
23119.7
23178.7
23236.9
23294.4
23351.1
23406.9
23462
23516.2
23569.6
23622
23673.6
23724.3
23774.1
23822.9
23870.8
23917.7
23963.7
24008.7
24052.6
24095.7
24137.7
24178.7
24218.6
24257.6
24295.6
24332.5
24368.5
24403.4
24437.3
24470.2
24502.1
24532.9
24562.8
24591.7
24619.6
24646.5
24672.5
24697.5
24721.5
24744.7
24766.9
24788.1
24808.5
24828
24846.7
24864.4
24881.4
24897.5
24912.9
24927.4
24941.2
24954.2
24966.5
24978.1
24989.1
24999.3
25008.9
25017.9
25026.3
25034.1
25041.3
25048
25054.2
25059.8
25065
25069.7
25074
25077.9
25081.3
25084.4
25087.2
25089.5
25091.6
25093.4
25094.8
25096
25096.9
25097.6
25098.1
25098.4
25098.5
25098.4
25098.1
25097.7
25097.1
25096.4
25095.6
25094.7
25093.6
25092.5
25091.4
25090.1
25088.8
25087.4
25086
25084.5
25083
25081.5
25079.9
25078.4
25076.8
25075.2
25073.6
25072
25070.4
25068.8
25067.2
25065.6
25064.1
25062.5
25061
25059.4
25057.9
25056.5
25055
25053.6
25052.2
25050.8
25049.4
25048.1
25046.8
25045.6
25044.4
25043.2
25042
25040.9
25039.8
25038.8
25037.7
25036.8
25035.8
25034.9
25034.1
25033.3
25032.5
25031.7
25031.1
25030.4
25029.8
25029.2
25028.7
25028.2
25027.7
25027.4
25027
25026.8
25026.3
25026.4
25025.8
25026.2
25025.6
25025.9
16317.7
16318.6
16317.1
16316.2
16314.5
16312.4
16310
16307.2
16304
16300.5
16296.7
16292.5
16288
16283.2
16278.1
16272.8
16267.2
16261.3
16255.2
16249
16242.5
16235.8
16229
16222
16214.9
16207.7
16200.4
16193
16185.6
16178.1
16170.5
16163
16155.4
16147.8
16140.2
16132.7
16125.2
16117.7
16110.2
16102.8
16095.4
16088.1
16080.9
16073.6
16066.4
16059.3
16052.2
16045
16037.9
16030.8
16023.7
16016.6
16009.4
16002.2
15995
15987.6
15980.1
15972.6
15964.9
15957.1
15949.1
15940.9
15932.6
15924.1
15915.3
15906.3
15897.1
15887.7
15878
15868
15857.7
15847.2
15836.4
15825.4
15814
15802.4
15790.5
15778.3
15765.9
15753.2
15740.3
15727.2
15713.8
15700.3
15686.5
15672.6
15658.6
15644.4
15630.1
15615.8
15601.4
15586.9
15572.5
15558.2
15543.8
15529.6
15515.5
15501.6
15487.9
15474.3
15461.1
15448.1
15435.4
15423.1
15411.1
15399.5
15388.4
15377.7
15367.4
15357.7
15348.4
15339.7
15331.6
15324
15316.9
15310.4
15304.5
15299.2
15294.5
15290.3
15286.7
15283.7
15281.3
15279.4
15278.1
15277.3
15277.1
15277.4
15278.2
15279.4
15281.2
15283.4
15286.1
15289.2
15292.7
15296.7
15301
15305.7
15310.7
15316.1
15321.8
15327.8
15334.1
15340.7
15347.5
15354.6
15361.9
15369.4
15377.1
15385
15393.1
15401.3
15409.7
15418.2
15426.9
15435.6
15444.5
15453.4
15462.4
15471.5
15480.7
15490
15499.3
15508.7
15518.1
15527.6
15537.1
15546.7
15556.3
15566
15575.8
15585.6
15595.4
15605.3
15615.3
15625.3
15635.4
15645.6
15655.9
15666.2
15676.6
15687.2
15697.8
15708.6
15719.4
15730.4
15741.6
15752.8
15764.2
15775.8
15787.6
15799.5
15811.6
15823.9
15836.3
15849
15861.9
15875.1
15888.4
15902
15915.8
15929.9
15944.3
15958.9
15973.8
15989
16004.4
16020.2
16036.3
16052.7
16069.4
16086.4
16103.7
16121.4
16139.5
16157.9
16176.6
16195.7
16215.2
16235.1
16255.4
16276
16297.1
16318.5
16340.4
16362.7
16385.4
16408.6
16432.2
16456.2
16480.7
16505.6
16531.1
16556.9
16583.3
16610.2
16637.5
16665.3
16693.7
16722.5
16751.9
16781.8
16812.2
16843.2
16874.7
16906.7
16939.3
16972.5
17006.2
17040.5
17075.3
17110.8
17146.8
17183.4
17220.6
17258.4
17296.8
17335.8
17375.5
17415.7
17456.5
17498
17540.1
17582.8
17626.1
17670
17714.6
17759.8
17805.7
17852.1
17899.2
17946.9
17995.3
18044.3
18093.9
18144.1
18195
18246.4
18298.5
18351.3
18404.6
18458.5
18513.1
18568.2
18624
18680.3
18737.2
18794.7
18852.8
18911.4
18970.6
19030.3
19090.6
19151.3
19212.7
19274.5
19336.8
19399.6
19462.9
19526.6
19590.8
19655.4
19720.4
19785.9
19851.7
19917.9
19984.4
20051.3
20118.5
20186
20253.7
20321.7
20390
20458.5
20527.1
20596
20665
20734.1
20803.3
20872.6
20941.9
21011.3
21080.7
21150
21219.3
21288.5
21357.6
21426.7
21495.5
21564.1
21632.5
21700.6
21768.5
21836.1
21903.3
21970.2
22036.7
22102.8
22168.5
22233.6
22298.3
22362.4
22426
22489.1
22551.5
22613.3
22674.4
22734.9
22794.6
22853.7
22912
22969.5
23026.2
23082.2
23137.3
23191.5
23244.9
23297.5
23349.1
23399.8
23449.6
23498.5
23546.4
23593.3
23639.3
23684.3
23728.3
23771.4
23813.4
23854.4
23894.4
23933.4
23971.3
24008.3
24044.2
24079.1
24113
24145.9
24177.8
24208.6
24238.5
24267.4
24295.3
24322.2
24348.1
24373.1
24397.1
24420.2
24442.3
24463.6
24483.9
24503.4
24522
24539.7
24556.6
24572.7
24588
24602.5
24616.2
24629.2
24641.5
24653
24663.9
24674.1
24683.6
24692.6
24700.9
24708.6
24715.8
24722.4
24728.5
24734.1
24739.3
24743.9
24748.2
24752
24755.4
24758.4
24761.1
24763.4
24765.4
24767.1
24768.6
24769.7
24770.6
24771.3
24771.7
24771.9
24771.9
24771.8
24771.5
24771
24770.4
24769.7
24768.9
24767.9
24766.9
24765.7
24764.5
24763.2
24761.9
24760.5
24759.1
24757.6
24756.1
24754.5
24753
24751.4
24749.8
24748.2
24746.6
24744.9
24743.3
24741.7
24740.1
24738.5
24737
24735.4
24733.8
24732.3
24730.8
24729.3
24727.9
24726.4
24725
24723.6
24722.3
24721
24719.7
24718.4
24717.2
24716
24714.8
24713.7
24712.6
24711.5
24710.5
24709.6
24708.6
24707.7
24706.8
24706
24705.2
24704.5
24703.8
24703.2
24702.5
24702
24701.4
24701
24700.5
24700.2
24699.7
24699.6
24699
24699.2
24698.6
24698.9
24698.4
24698.6
15989
15989.9
15988.3
15987.4
15985.7
15983.6
15981.2
15978.4
15975.3
15971.8
15967.9
15963.8
15959.3
15954.5
15949.5
15944.1
15938.5
15932.7
15926.6
15920.4
15913.9
15907.3
15900.5
15893.5
15886.4
15879.2
15872
15864.6
15857.2
15849.7
15842.2
15834.7
15827.1
15819.6
15812
15804.5
15797.1
15789.6
15782.2
15774.8
15767.5
15760.3
15753.1
15745.9
15738.8
15731.7
15724.6
15717.6
15710.6
15703.6
15696.5
15689.5
15682.4
15675.3
15668.1
15660.8
15653.4
15645.9
15638.3
15630.6
15622.6
15614.5
15606.2
15597.7
15589
15580.1
15570.9
15561.5
15551.8
15541.8
15531.6
15521
15510.2
15499.1
15487.8
15476.1
15464.2
15451.9
15439.5
15426.7
15413.7
15400.5
15387
15373.4
15359.5
15345.5
15331.4
15317.1
15302.7
15288.2
15273.7
15259.1
15244.6
15230.1
15215.6
15201.3
15187.1
15173
15159.2
15145.5
15132.1
15119
15106.2
15093.8
15081.7
15070.1
15058.8
15048.1
15037.8
15028
15018.7
15009.9
15001.8
14994.1
14987.1
14980.6
14974.7
14969.4
14964.7
14960.5
14957
14954
14951.6
14949.8
14948.6
14947.9
14947.7
14948
14948.9
14950.3
14952.1
14954.4
14957.2
14960.4
14964
14968
14972.4
14977.2
14982.3
14987.7
14993.5
14999.6
15006
15012.6
15019.5
15026.7
15034.1
15041.6
15049.4
15057.4
15065.5
15073.8
15082.2
15090.7
15099.4
15108.2
15117.1
15126.1
15135.1
15144.3
15153.5
15162.7
15172.1
15181.5
15190.9
15200.4
15209.9
15219.5
15229.2
15238.8
15248.6
15258.4
15268.2
15278.1
15288.1
15298.1
15308.2
15318.3
15328.6
15338.9
15349.3
15359.8
15370.4
15381.2
15392
15403
15414.1
15425.3
15436.7
15448.2
15460
15471.8
15483.9
15496.2
15508.6
15521.3
15534.2
15547.3
15560.6
15574.1
15588
15602
15616.3
15630.9
15645.8
15661
15676.4
15692.1
15708.2
15724.5
15741.2
15758.2
15775.5
15793.2
15811.2
15829.6
15848.3
15867.4
15886.9
15906.7
15927
15947.6
15968.6
15990.1
16011.9
16034.2
16056.9
16080
16103.6
16127.6
16152
16177
16202.4
16228.2
16254.6
16281.4
16308.7
16336.5
16364.9
16393.7
16423
16452.9
16483.3
16514.2
16545.7
16577.8
16610.3
16643.5
16677.2
16711.5
16746.3
16781.7
16817.7
16854.3
16891.5
16929.3
16967.7
17006.7
17046.3
17086.5
17127.4
17168.8
17210.9
17253.6
17296.9
17340.8
17385.4
17430.6
17476.5
17522.9
17570
17617.7
17666.1
17715.1
17764.7
17814.9
17865.8
17917.3
17969.4
18022.1
18075.5
18129.4
18184
18239.2
18294.9
18351.3
18408.2
18465.7
18523.8
18582.5
18641.7
18701.4
18761.7
18822.5
18883.9
18945.7
19008.1
19070.9
19134.3
19198
19262.3
19326.9
19392
19457.5
19523.4
19589.6
19656.2
19723.2
19790.4
19858
19925.8
19993.9
20062.2
20130.8
20199.5
20268.4
20337.5
20406.7
20476
20545.4
20614.8
20684.3
20753.7
20823.2
20892.6
20961.9
21031.1
21100.2
21169.1
21237.8
21306.3
21374.5
21442.5
21510.2
21577.5
21644.5
21711.1
21777.3
21843
21908.3
21973
22037.3
22101
22164.1
22226.6
22288.4
22349.7
22410.2
22470
22529.2
22587.5
22645.1
22701.9
22757.9
22813.1
22867.4
22920.9
22973.5
23025.2
23075.9
23125.8
23174.7
23222.6
23269.6
23315.6
23360.7
23404.7
23447.8
23489.8
23530.8
23570.8
23609.8
23647.8
23684.7
23720.7
23755.6
23789.5
23822.3
23854.2
23885
23914.9
23943.7
23971.6
23998.5
24024.4
24049.3
24073.3
24096.3
24118.4
24139.6
24159.9
24179.3
24197.9
24215.6
24232.4
24248.4
24263.7
24278.1
24291.8
24304.7
24316.9
24328.4
24339.2
24349.3
24358.8
24367.6
24375.9
24383.5
24390.6
24397.2
24403.2
24408.8
24413.8
24418.4
24422.6
24426.4
24429.7
24432.7
24435.3
24437.6
24439.5
24441.1
24442.5
24443.6
24444.4
24445
24445.4
24445.6
24445.6
24445.4
24445
24444.5
24443.9
24443.1
24442.2
24441.2
24440.2
24439
24437.7
24436.4
24435.1
24433.6
24432.2
24430.7
24429.1
24427.6
24426
24424.4
24422.8
24421.1
24419.5
24417.9
24416.2
24414.6
24413
24411.4
24409.8
24408.2
24406.7
24405.2
24403.6
24402.1
24400.7
24399.2
24397.8
24396.4
24395.1
24393.7
24392.4
24391.2
24389.9
24388.7
24387.6
24386.4
24385.3
24384.3
24383.3
24382.3
24381.3
24380.4
24379.6
24378.7
24378
24377.2
24376.5
24375.9
24375.2
24374.7
24374.1
24373.7
24373.2
24372.8
24372.4
24372.2
24371.7
24371.8
24371.2
24371.6
24371
24371.3
15659.8
15660.7
15659.2
15658.3
15656.6
15654.5
15652.1
15649.3
15646.2
15642.7
15638.9
15634.7
15630.2
15625.5
15620.4
15615.1
15609.5
15603.7
15597.7
15591.4
15585
15578.4
15571.6
15564.7
15557.6
15550.5
15543.2
15535.9
15528.5
15521.1
15513.6
15506.1
15498.6
15491.1
15483.6
15476.2
15468.7
15461.3
15454
15446.7
15439.5
15432.3
15425.1
15418
15411
15404
15397
15390.1
15383.1
15376.2
15369.3
15362.3
15355.3
15348.3
15341.2
15334
15326.7
15319.3
15311.8
15304.1
15296.3
15288.3
15280
15271.6
15262.9
15254
15244.9
15235.5
15225.8
15215.8
15205.6
15195.1
15184.2
15173.1
15161.7
15150
15138
15125.7
15113.1
15100.3
15087.2
15073.9
15060.3
15046.5
15032.6
15018.4
15004.1
14989.7
14975.1
14960.5
14945.9
14931.2
14916.5
14901.8
14887.2
14872.7
14858.3
14844.1
14830.1
14816.3
14802.8
14789.6
14776.6
14764.1
14751.9
14740.1
14728.8
14718
14707.6
14697.7
14688.4
14679.6
14671.4
14663.7
14656.6
14650.1
14644.3
14639
14634.3
14630.2
14626.7
14623.8
14621.5
14619.7
14618.5
14617.9
14617.8
14618.3
14619.2
14620.7
14622.6
14625
14627.9
14631.2
14634.9
14639
14643.5
14648.3
14653.6
14659.1
14665
14671.2
14677.6
14684.4
14691.4
14698.6
14706
14713.7
14721.5
14729.6
14737.8
14746.1
14754.6
14763.2
14771.9
14780.7
14789.7
14798.7
14807.8
14816.9
14826.2
14835.5
14844.8
14854.2
14863.7
14873.2
14882.7
14892.3
14901.9
14911.6
14921.3
14931.1
14941
14950.8
14960.8
14970.8
14980.8
14991
15001.2
15011.5
15021.9
15032.4
15043
15053.7
15064.5
15075.4
15086.5
15097.7
15109
15120.6
15132.2
15144.1
15156.1
15168.3
15180.8
15193.4
15206.2
15219.3
15232.6
15246.1
15259.9
15273.9
15288.2
15302.8
15317.6
15332.7
15348.1
15363.9
15379.9
15396.2
15412.8
15429.8
15447.1
15464.7
15482.7
15501.1
15519.8
15538.8
15558.3
15578.1
15598.3
15618.9
15639.9
15661.3
15683.1
15705.4
15728
15751.1
15774.7
15798.6
15823.1
15848
15873.3
15899.2
15925.5
15952.3
15979.6
16007.4
16035.7
16064.5
16093.8
16123.6
16154
16184.9
16216.4
16248.4
16281
16314.1
16347.8
16382
16416.8
16452.2
16488.2
16524.8
16562
16599.8
16638.1
16677.1
16716.7
16756.9
16797.8
16839.2
16881.3
16923.9
16967.3
17011.2
17055.8
17101
17146.8
17193.3
17240.4
17288.1
17336.5
17385.4
17435.1
17485.3
17536.2
17587.7
17639.8
17692.6
17745.9
17799.9
17854.5
17909.7
17965.5
18021.8
18078.8
18136.3
18194.5
18253.1
18312.4
18372.2
18432.5
18493.4
18554.8
18616.7
18679.1
18742
18805.3
18869.2
18933.5
18998.2
19063.3
19128.9
19194.8
19261.1
19327.8
19394.8
19462.1
19529.8
19597.7
19665.9
19734.3
19802.9
19871.8
19940.8
20009.9
20079.2
20148.6
20218.1
20287.7
20357.2
20426.8
20496.3
20565.8
20635.2
20704.6
20773.8
20842.8
20911.6
20980.2
21048.6
21116.7
21184.5
21251.9
21319
21385.7
21452
21517.9
21583.3
21648.1
21712.5
21776.3
21839.5
21902.1
21964.1
22025.4
22086
22145.9
22205.2
22263.6
22321.3
22378.2
22434.3
22489.5
22543.9
22597.4
22650.1
22701.8
22752.7
22802.6
22851.5
22899.5
22946.6
22992.6
23037.7
23081.8
23124.8
23166.9
23207.9
23248
23287
23324.9
23361.9
23397.8
23432.7
23466.6
23499.5
23531.3
23562.1
23591.9
23620.8
23648.6
23675.4
23701.3
23726.2
23750.1
23773.1
23795.2
23816.3
23836.5
23855.9
23874.4
23892
23908.8
23924.7
23939.9
23954.2
23967.8
23980.7
23992.8
24004.2
24014.9
24025
24034.3
24043.1
24051.3
24058.9
24065.9
24072.4
24078.3
24083.8
24088.7
24093.3
24097.3
24101
24104.3
24107.2
24109.7
24111.9
24113.8
24115.3
24116.6
24117.6
24118.4
24119
24119.3
24119.4
24119.3
24119.1
24118.7
24118.1
24117.4
24116.6
24115.7
24114.6
24113.5
24112.3
24111
24109.7
24108.3
24106.8
24105.3
24103.8
24102.2
24100.6
24099
24097.4
24095.7
24094.1
24092.4
24090.8
24089.1
24087.5
24085.9
24084.3
24082.7
24081.1
24079.5
24078
24076.4
24074.9
24073.4
24072
24070.6
24069.2
24067.8
24066.5
24065.2
24063.9
24062.7
24061.4
24060.3
24059.1
24058
24057
24055.9
24055
24054
24053.1
24052.2
24051.4
24050.6
24049.9
24049.1
24048.5
24047.9
24047.3
24046.7
24046.3
24045.8
24045.5
24045
24044.8
24044.3
24044.4
24043.8
24044.2
24043.6
24043.9
15330.3
15331.2
15329.7
15328.8
15327.1
15325
15322.6
15319.8
15316.7
15313.2
15309.4
15305.3
15300.8
15296.1
15291
15285.8
15280.2
15274.4
15268.4
15262.2
15255.8
15249.2
15242.4
15235.5
15228.5
15221.4
15214.2
15206.9
15199.5
15192.1
15184.7
15177.3
15169.8
15162.4
15154.9
15147.5
15140.2
15132.8
15125.6
15118.3
15111.2
15104.1
15097
15090
15083
15076.1
15069.3
15062.4
15055.6
15048.8
15042
15035.1
15028.3
15021.3
15014.4
15007.3
15000.1
14992.8
14985.4
14977.8
14970
14962.1
14954
14945.6
14937
14928.1
14919
14909.6
14900
14890
14879.8
14869.2
14858.4
14847.2
14835.8
14824
14811.9
14799.5
14786.9
14774
14760.8
14747.3
14733.6
14719.7
14705.6
14691.3
14676.8
14662.2
14647.5
14632.7
14617.9
14603
14588.1
14573.3
14558.5
14543.8
14529.3
14514.9
14500.7
14486.7
14473.1
14459.7
14446.6
14433.9
14421.6
14409.7
14398.3
14387.3
14376.8
14366.9
14357.5
14348.6
14340.4
14332.7
14325.6
14319.1
14313.2
14308
14303.3
14299.3
14295.8
14293
14290.7
14289.1
14288
14287.4
14287.5
14288
14289.1
14290.6
14292.7
14295.2
14298.2
14301.6
14305.4
14309.6
14314.2
14319.2
14324.6
14330.2
14336.2
14342.5
14349.1
14355.9
14363
14370.3
14377.8
14385.6
14393.5
14401.6
14409.9
14418.3
14426.9
14435.5
14444.3
14453.2
14462.2
14471.2
14480.4
14489.6
14498.8
14508.2
14517.5
14526.9
14536.4
14545.9
14555.5
14565.1
14574.7
14584.4
14594.1
14603.8
14613.7
14623.5
14633.4
14643.4
14653.5
14663.6
14673.8
14684
14694.4
14704.9
14715.4
14726.1
14736.8
14747.7
14758.8
14770
14781.3
14792.7
14804.4
14816.2
14828.2
14840.4
14852.8
14865.3
14878.1
14891.2
14904.4
14917.9
14931.7
14945.7
14959.9
14974.4
14989.2
15004.3
15019.7
15035.4
15051.3
15067.6
15084.2
15101.2
15118.4
15136
15154
15172.3
15191
15210
15229.4
15249.2
15269.3
15289.9
15310.9
15332.2
15354
15376.2
15398.9
15421.9
15445.4
15469.4
15493.8
15518.6
15544
15569.8
15596.1