/*--------------------------------*- C++ -*----------------------------------*\
| =========                 |                                                 |
| \\      /  F ield         | OpenFOAM: The Open Source CFD Toolbox           |
|  \\    /   O peration     | Version:  v2006                                 |
|   \\  /    A nd           | Website:  www.openfoam.com                      |
|    \\/     M anipulation  |                                                 |
\*---------------------------------------------------------------------------*/
FoamFile
{
    version     2.0;
    format      ascii;
    class       surfaceScalarField;
    location    "11.1";
    object      alphaPhi0.water;
}
// * * * * * * * * * * * * * * * * * * * * * * * * * * * * * * * * * * * * * //

dimensions      [0 3 -1 0 0 0 0];
oriented        oriented;


internalField   nonuniform List<scalar> 
104500
(
3.0618e-05
-3.0618e-05
6.99757e-05
-3.93577e-05
0.000107133
-3.71578e-05
0.000142059
-3.49253e-05
0.000176447
-3.4388e-05
0.000210726
-3.42797e-05
0.000244956
-3.42295e-05
0.000279076
-3.41199e-05
0.000313047
-3.39709e-05
0.000346857
-3.38103e-05
0.000380508
-3.36505e-05
0.000413999
-3.34911e-05
0.00044733
-3.33307e-05
0.000480505
-3.31754e-05
0.000513528
-3.30229e-05
0.000546402
-3.28745e-05
0.000579126
-3.27241e-05
0.000611704
-3.25772e-05
0.000644134
-3.24304e-05
0.000676416
-3.22817e-05
0.000708533
-3.21171e-05
0.000740486
-3.19537e-05
0.000772267
-3.17809e-05
0.000803861
-3.15938e-05
0.000835257
-3.13961e-05
0.000866437
-3.11798e-05
0.000897387
-3.09495e-05
0.000928089
-3.07019e-05
0.000958529
-3.04408e-05
0.000988694
-3.01652e-05
0.00101857
-2.98771e-05
0.00104814
-2.95697e-05
0.00107738
-2.92412e-05
0.00110627
-2.88836e-05
0.00113476
-2.84923e-05
0.00116282
-2.8065e-05
0.00119043
-2.76045e-05
0.00121755
-2.71214e-05
0.00124418
-2.6628e-05
0.00127032
-2.614e-05
0.00129598
-2.56665e-05
0.0013212
-2.5213e-05
0.00134597
-2.47744e-05
0.00137031
-2.4341e-05
0.00139422
-2.39069e-05
0.00141767
-2.34554e-05
0.00144066
-2.29878e-05
0.00146319
-2.25242e-05
0.00148529
-2.21068e-05
0.00150708
-2.17914e-05
0.00152872
-2.1635e-05
0.00155039
-2.16744e-05
0.00157231
-2.19141e-05
0.00159463
-2.23212e-05
0.00161747
-2.28393e-05
0.00164087
-2.34057e-05
0.00166484
-2.39628e-05
0.00168931
-2.44717e-05
0.00171422
-2.49106e-05
0.00173949
-2.52721e-05
0.00176505
-2.55576e-05
0.00179082
-2.57717e-05
0.00181674
-2.59207e-05
0.00184275
-2.60118e-05
0.00186881
-2.60516e-05
0.00189485
-2.60463e-05
0.00192085
-2.60013e-05
0.00194677
-2.592e-05
0.00197258
-2.58053e-05
0.00199824
-2.56593e-05
0.00202372
-2.54827e-05
0.002049
-2.5277e-05
0.00207404
-2.50459e-05
0.00209884
-2.47939e-05
0.00212336
-2.45268e-05
0.00214761
-2.42503e-05
0.00217158
-2.39692e-05
0.00219527
-2.36862e-05
0.00221867
-2.34012e-05
0.00224178
-2.31114e-05
0.00226459
-2.28119e-05
0.00228709
-2.24969e-05
0.00230925
-2.21605e-05
0.00233105
-2.17984e-05
0.00235246
-2.14086e-05
0.00237345
-2.09918e-05
0.002394
-2.05511e-05
0.00241409
-2.00915e-05
0.00243371
-1.96183e-05
0.00245285
-1.9137e-05
0.0024715
-1.86521e-05
0.00248967
-1.81671e-05
0.00250735
-1.76843e-05
0.00252456
-1.72053e-05
0.00254129
-1.67308e-05
0.00255755
-1.62613e-05
0.00257335
-1.57969e-05
0.00258868
-1.53374e-05
0.00260357
-1.48829e-05
0.002618
-1.44332e-05
0.00263199
-1.3988e-05
0.00264553
-1.35472e-05
0.00265865
-1.31107e-05
0.00267132
-1.26783e-05
0.00268357
-1.22503e-05
0.0026954
-1.18266e-05
0.00270681
-1.14075e-05
0.0027178
-1.09933e-05
0.00272839
-1.05841e-05
0.00273857
-1.01801e-05
0.00274835
-9.78142e-06
0.00275774
-9.3883e-06
0.00276674
-9.00091e-06
0.00277536
-8.61946e-06
0.0027836
-8.24406e-06
0.00279147
-7.87465e-06
0.00279899
-7.51109e-06
0.00280614
-7.15326e-06
0.00281294
-6.80101e-06
0.00281939
-6.45416e-06
0.00282551
-6.11238e-06
0.00283128
-5.77541e-06
0.00283672
-5.44315e-06
0.00284184
-5.11548e-06
0.00284663
-4.79221e-06
0.00285111
-4.47321e-06
0.00285526
-4.1584e-06
0.00285911
-3.8476e-06
0.00286265
-3.54047e-06
0.00286589
-3.23664e-06
0.00286882
-2.93555e-06
0.00287146
-2.63662e-06
0.0028738
-2.33934e-06
0.00287584
-2.04369e-06
0.00287759
-1.75046e-06
0.00287906
-1.46212e-06
0.00288024
-1.18359e-06
0.00288116
-9.22253e-07
0.00288185
-6.86301e-07
0.00288233
-4.81087e-07
0.00288263
-3.04622e-07
0.00288278
-1.43648e-07
0.00288275
3.11623e-08
0.0028825
2.47163e-07
0.00288197
5.3105e-07
0.00288106
9.05352e-07
0.00287967
1.39631e-06
0.00287768
1.98409e-06
0.00287504
2.64266e-06
0.00287169
3.34809e-06
0.00286762
4.07001e-06
0.00286284
4.77751e-06
0.00285738
5.46712e-06
0.00285124
6.14214e-06
0.00284442
6.8124e-06
0.00283693
7.49214e-06
0.00282873
8.19878e-06
0.00281978
8.95197e-06
0.00281
9.77512e-06
0.00279932
1.06825e-05
0.00278768
1.16434e-05
0.00277511
1.25661e-05
0.00276177
1.33428e-05
0.00274785
1.39179e-05
0.00273354
1.43091e-05
0.00271897
1.45727e-05
0.00270421
1.4757e-05
0.00268933
1.48788e-05
0.00267441
1.4921e-05
0.00265957
1.48388e-05
0.00264501
1.45636e-05
0.00263093
1.40787e-05
0.00261755
1.3384e-05
0.00260505
1.24961e-05
0.00259355
1.14982e-05
0.00258306
1.04986e-05
0.00257346
9.59494e-06
0.00256461
8.85003e-06
0.00255633
8.28566e-06
0.00254844
7.88903e-06
0.00254081
7.62552e-06
0.00253335
7.46044e-06
0.00252598
7.36711e-06
0.00251866
7.3209e-06
0.00251136
7.30095e-06
0.00250407
7.29069e-06
0.00249679
7.27785e-06
0.00248954
7.2538e-06
0.00248233
7.21233e-06
0.00247518
7.14829e-06
0.00246812
7.05663e-06
0.00246119
6.93129e-06
0.00245443
6.76391e-06
0.00244788
6.54244e-06
0.00244162
6.26475e-06
0.00243569
5.92993e-06
0.00243016
5.53182e-06
0.00242508
5.07286e-06
0.00242052
4.56644e-06
0.00241648
4.03842e-06
0.00241295
3.52593e-06
0.00240988
3.0734e-06
0.00240715
2.72726e-06
0.00240463
2.52572e-06
0.00240216
2.46737e-06
0.00239961
2.55463e-06
0.00239683
2.77205e-06
0.00239375
3.08536e-06
0.0023903
3.4511e-06
0.00238647
3.82531e-06
0.0023823
4.17127e-06
0.00237784
4.46465e-06
0.00237314
4.69515e-06
0.00236828
4.86513e-06
0.00236329
4.98614e-06
0.00235821
5.07429e-06
0.00235307
5.1457e-06
0.00234786
5.21305e-06
0.00234257
5.28437e-06
0.00233721
5.36331e-06
0.00233176
5.4507e-06
0.00232621
5.54615e-06
0.00232056
5.64917e-06
0.0023148
5.75977e-06
0.00230892
5.87861e-06
0.00230292
6.00689e-06
0.00229677
6.14586e-06
0.00229047
6.29652e-06
0.00228402
6.45943e-06
0.00227738
6.63478e-06
0.00227056
6.82252e-06
0.00226354
7.02245e-06
0.0022563
7.23428e-06
0.00224884
7.45766e-06
0.00224115
7.69236e-06
0.00223321
7.93824e-06
0.00222502
8.1952e-06
0.00221655
8.46312e-06
0.00220781
8.74197e-06
0.00219878
9.03182e-06
0.00218945
9.33277e-06
0.0021798
9.64489e-06
0.00216983
9.96831e-06
0.00215953
1.03033e-05
0.00214888
1.06501e-05
0.00213787
1.10093e-05
0.00212649
1.13813e-05
0.00211472
1.17675e-05
0.00210255
1.21696e-05
0.00208996
1.25893e-05
0.00207694
1.30284e-05
0.00206345
1.34894e-05
0.00204947
1.39747e-05
0.00203499
1.44867e-05
0.00201996
1.50279e-05
0.00200436
1.56003e-05
0.00198815
1.62048e-05
0.00197131
1.68402e-05
0.00195381
1.7502e-05
0.00193563
1.81819e-05
0.00191676
1.8869e-05
0.00189721
1.95508e-05
0.00187699
2.02168e-05
0.00185613
2.08651e-05
0.00183462
2.15049e-05
0.00181247
2.21552e-05
0.00178963
2.28409e-05
0.00176604
2.3587e-05
0.00174163
2.44123e-05
0.0017163
2.53303e-05
0.00168995
2.63485e-05
0.00166248
2.74685e-05
0.00163379
2.86925e-05
0.00160376
3.00218e-05
0.00157231
3.14541e-05
0.00153933
3.29815e-05
0.00150474
3.45877e-05
0.0014685
3.62451e-05
0.00143059
3.79078e-05
0.00139107
3.95228e-05
0.00135001
4.10585e-05
0.0013075
4.25085e-05
0.00126364
4.38633e-05
0.00121855
4.50871e-05
0.00117242
4.61248e-05
0.0011255
4.69208e-05
0.00107807
4.74356e-05
0.00103045
4.76171e-05
0.000983114
4.73355e-05
0.000936732
4.63827e-05
0.000892173
4.45589e-05
0.000850377
4.17962e-05
0.000812128
3.82482e-05
0.000777801
3.43276e-05
0.000747203
3.05981e-05
0.000719629
2.75731e-05
0.000694132
2.54972e-05
0.00066982
2.43123e-05
0.000646056
2.3764e-05
0.000622505
2.35507e-05
0.000599069
2.34364e-05
0.000575801
2.32673e-05
0.000552835
2.29668e-05
0.00053031
2.25247e-05
0.000508346
2.19641e-05
0.000487032
2.13133e-05
0.000466439
2.05933e-05
0.00044662
1.98194e-05
0.00042761
1.90092e-05
0.000409424
1.81861e-05
0.000392044
1.73805e-05
0.00037543
1.66135e-05
0.000359529
1.59015e-05
0.000344281
1.52478e-05
0.000329624
1.4657e-05
0.000315514
1.41104e-05
0.000301905
1.36085e-05
0.000288754
1.31509e-05
0.000276019
1.27352e-05
0.000263662
1.23576e-05
0.000251649
1.20126e-05
0.000239955
1.1694e-05
0.000228558
1.1397e-05
0.00021744
1.11178e-05
0.000206583
1.08572e-05
0.00019597
1.06131e-05
0.000185582
1.03881e-05
0.000175403
1.01787e-05
0.00016542
9.98369e-06
0.00015562
9.79917e-06
0.000145998
9.6223e-06
0.000136552
9.44575e-06
0.000127284
9.26822e-06
0.000118198
9.0863e-06
0.0001093
8.89741e-06
0.000100599
8.70131e-06
9.21006e-05
8.49855e-06
8.38133e-05
8.28726e-06
7.57435e-05
8.06985e-06
6.78915e-05
7.85194e-06
6.02522e-05
7.63929e-06
5.28088e-05
7.44342e-06
4.55397e-05
7.26909e-06
3.84396e-05
7.1001e-06
3.15555e-05
6.88415e-06
2.50458e-05
6.50971e-06
1.91013e-05
5.94442e-06
1.43674e-05
4.73392e-06
1.04695e-05
3.89789e-06
1.04695e-05
1.5253e-05
-4.5871e-05
3.80537e-05
-6.21584e-05
5.68618e-05
-5.59658e-05
7.39014e-05
-5.19649e-05
9.08346e-05
-5.13212e-05
0.000108038
-5.14829e-05
0.000125392
-5.15836e-05
0.00014286
-5.1588e-05
0.000160483
-5.15941e-05
0.000178307
-5.16344e-05
0.000196357
-5.16998e-05
0.00021466
-5.1795e-05
0.000233244
-5.19145e-05
0.000252129
-5.20601e-05
0.000271336
-5.22296e-05
0.000290891
-5.24301e-05
0.000310811
-5.26439e-05
0.000331113
-5.28794e-05
0.000351816
-5.31335e-05
0.000372931
-5.33967e-05
0.000394494
-5.36794e-05
0.000416491
-5.39515e-05
0.000438939
-5.42282e-05
0.000461848
-5.45029e-05
0.000485213
-5.47611e-05
0.000509047
-5.50144e-05
0.000533348
-5.52504e-05
0.000558117
-5.54709e-05
0.000583348
-5.56714e-05
0.000609033
-5.58507e-05
0.000635162
-5.60062e-05
0.00066172
-5.61275e-05
0.000688691
-5.62115e-05
0.000716058
-5.62511e-05
0.000743807
-5.62411e-05
0.000771909
-5.61672e-05
0.000800359
-5.60548e-05
0.000829143
-5.59045e-05
0.000858241
-5.57268e-05
0.000887634
-5.55325e-05
0.000917293
-5.53258e-05
0.000947197
-5.51164e-05
0.000977326
-5.49037e-05
0.00100767
-5.46843e-05
0.00103821
-5.44455e-05
0.00106895
-5.41969e-05
0.00109991
-5.39462e-05
0.00113109
-5.37051e-05
0.00116247
-5.34912e-05
0.00119401
-5.33245e-05
0.00122559
-5.3218e-05
0.00125709
-5.31707e-05
0.00128835
-5.31739e-05
0.00131923
-5.32068e-05
0.00134965
-5.32578e-05
0.00137954
-5.32984e-05
0.00140889
-5.331e-05
0.0014377
-5.3282e-05
0.001466
-5.32077e-05
0.00149381
-5.30834e-05
0.00152116
-5.291e-05
0.00154808
-5.26887e-05
0.00157458
-5.24212e-05
0.00160068
-5.21114e-05
0.00162639
-5.17616e-05
0.00165172
-5.13749e-05
0.00167667
-5.09538e-05
0.00170125
-5.04982e-05
0.00172545
-5.00134e-05
0.00174929
-4.94987e-05
0.00177277
-4.89548e-05
0.00179587
-4.83845e-05
0.00181862
-4.77907e-05
0.001841
-4.71769e-05
0.00186302
-4.65468e-05
0.00188468
-4.5904e-05
0.00190596
-4.5251e-05
0.00192686
-4.45881e-05
0.00194737
-4.39136e-05
0.00196748
-4.32237e-05
0.00198719
-4.25133e-05
0.00200647
-4.1777e-05
0.00202532
-4.10103e-05
0.00204373
-4.02104e-05
0.0020617
-3.9377e-05
0.00207922
-3.8512e-05
0.00209628
-3.76194e-05
0.0021129
-3.67042e-05
0.00212905
-3.57719e-05
0.00214474
-3.48277e-05
0.00215997
-3.38764e-05
0.00217472
-3.2922e-05
0.002189
-3.19675e-05
0.00220281
-3.10154e-05
0.00221615
-3.00676e-05
0.00222901
-2.91256e-05
0.00224141
-2.81906e-05
0.00225333
-2.72633e-05
0.0022648
-2.63447e-05
0.0022758
-2.54355e-05
0.00228635
-2.45365e-05
0.00229645
-2.36484e-05
0.00230611
-2.2772e-05
0.00231534
-2.1908e-05
0.00232415
-2.10573e-05
0.00233254
-2.02206e-05
0.00234053
-1.93986e-05
0.00234813
-1.85921e-05
0.00235535
-1.78018e-05
0.0023622
-1.70284e-05
0.00236869
-1.62725e-05
0.00237483
-1.55344e-05
0.00238065
-1.48148e-05
0.00238614
-1.41138e-05
0.00239133
-1.34317e-05
0.00239622
-1.27688e-05
0.00240084
-1.21253e-05
0.00240518
-1.15011e-05
0.00240928
-1.08962e-05
0.00241314
-1.03105e-05
0.00241677
-9.74404e-06
0.00242019
-9.19656e-06
0.00242341
-8.66801e-06
0.00242646
-8.15848e-06
0.00242933
-7.66787e-06
0.00243206
-7.19619e-06
0.00243464
-6.74358e-06
0.0024371
-6.3102e-06
0.00243946
-5.89634e-06
0.00244173
-5.50241e-06
0.00244392
-5.12906e-06
0.00244606
-4.77708e-06
0.00244817
-4.44771e-06
0.00245027
-4.14271e-06
0.00245238
-3.8643e-06
0.00245453
-3.61466e-06
0.00245674
-3.39483e-06
0.00245903
-3.20381e-06
0.00246138
-3.03744e-06
0.00246378
-2.8879e-06
0.00246622
-2.74378e-06
0.00246867
-2.58997e-06
0.00247111
-2.4106e-06
0.00247355
-2.19402e-06
0.00247602
-1.93404e-06
0.00247855
-1.6301e-06
0.00248124
-1.28726e-06
0.00248414
-9.18541e-07
0.00248732
-5.3653e-07
0.00249081
-1.42621e-07
0.00249458
3.01165e-07
0.00249867
6.85728e-07
0.00250308
1.05702e-06
0.00250781
1.41158e-06
0.00251287
1.75144e-06
0.00251829
2.07371e-06
0.00252411
2.37969e-06
0.00253039
2.67376e-06
0.0025372
2.96311e-06
0.00254462
3.25704e-06
0.0025527
3.56527e-06
0.00256138
3.89246e-06
0.00257048
4.23376e-06
0.00257983
4.57605e-06
0.00258923
4.90502e-06
0.00259859
5.21076e-06
0.00260786
5.4886e-06
0.002617
5.73661e-06
0.00262597
5.95281e-06
0.00263468
6.1329e-06
0.00264297
6.27056e-06
0.00265068
6.36764e-06
0.00265766
6.40289e-06
0.00266382
6.33688e-06
0.00266912
6.20017e-06
0.0026736
6.01767e-06
0.00267738
5.81855e-06
0.0026806
5.62916e-06
0.00268341
5.46945e-06
0.00268595
5.35759e-06
0.00268827
5.30538e-06
0.00269042
5.30742e-06
0.00269243
5.35511e-06
0.00269431
5.43933e-06
0.00269606
5.55102e-06
0.00269767
5.6816e-06
0.00269913
5.82322e-06
0.00270041
5.96896e-06
0.00270151
6.11274e-06
0.00270241
6.24908e-06
0.00270309
6.37286e-06
0.00270355
6.47935e-06
0.00270375
6.5643e-06
0.00270367
6.61765e-06
0.0027033
6.63122e-06
0.00270263
6.60007e-06
0.00270164
6.52013e-06
0.00270033
6.392e-06
0.00269867
6.22321e-06
0.00269668
6.0295e-06
0.00269437
5.8346e-06
0.00269177
5.66799e-06
0.00268894
5.56084e-06
0.00268593
5.54029e-06
0.00268277
5.62848e-06
0.00267947
5.84675e-06
0.00267606
6.18949e-06
0.0026725
6.63805e-06
0.00266879
7.16451e-06
0.00266488
7.73593e-06
0.00266073
8.31927e-06
0.00265631
8.88597e-06
0.00265159
9.41535e-06
0.00264656
9.89622e-06
0.00264122
1.03267e-05
0.00263558
1.07131e-05
0.00262966
1.1068e-05
0.00262347
1.14047e-05
0.00261701
1.17355e-05
0.00261031
1.20698e-05
0.00260334
1.24141e-05
0.00259612
1.27725e-05
0.00258862
1.31471e-05
0.00258084
1.35394e-05
0.00257277
1.39502e-05
0.00256439
1.43806e-05
0.00255571
1.48314e-05
0.0025467
1.53036e-05
0.00253736
1.57976e-05
0.00252769
1.63136e-05
0.00251766
1.68514e-05
0.00250727
1.74103e-05
0.00249651
1.79893e-05
0.00248538
1.85876e-05
0.00247387
1.92039e-05
0.00246197
1.9837e-05
0.00244968
2.04858e-05
0.002437
2.11492e-05
0.00242391
2.18259e-05
0.00241043
2.25144e-05
0.00239655
2.32138e-05
0.00238227
2.39227e-05
0.0023676
2.46396e-05
0.00235254
2.5363e-05
0.0023371
2.60918e-05
0.00232128
2.68247e-05
0.0023051
2.75605e-05
0.00228857
2.82973e-05
0.00227171
2.90345e-05
0.00225453
2.97711e-05
0.00223705
3.05062e-05
0.0022193
3.12389e-05
0.00220131
3.19683e-05
0.0021831
3.26936e-05
0.00216471
3.34143e-05
0.00214618
3.41298e-05
0.00212755
3.48411e-05
0.00210884
3.55477e-05
0.00209009
3.62488e-05
0.00207133
3.69438e-05
0.00205257
3.76332e-05
0.0020338
3.83179e-05
0.00201502
3.9001e-05
0.00199619
3.96864e-05
0.00197732
4.03806e-05
0.00195838
4.10926e-05
0.00193939
4.18336e-05
0.00192036
4.26149e-05
0.00190132
4.34496e-05
0.00188231
4.43483e-05
0.00186333
4.53219e-05
0.00184442
4.63822e-05
0.00182557
4.75409e-05
0.00180678
4.88084e-05
0.00178804
5.01935e-05
0.00176932
5.17019e-05
0.00175058
5.33343e-05
0.00173174
5.50829e-05
0.00171272
5.69293e-05
0.00169339
5.88462e-05
0.00167365
6.08004e-05
0.00165341
6.27501e-05
0.00163264
6.4636e-05
0.00161135
6.63746e-05
0.00158962
6.78595e-05
0.00156757
6.8965e-05
0.00154546
6.95492e-05
0.00152362
6.94544e-05
0.00150243
6.85304e-05
0.00148208
6.67264e-05
0.00146257
6.40734e-05
0.00144365
6.07142e-05
0.00142492
5.69744e-05
0.00140595
5.33042e-05
0.00138637
5.01712e-05
0.00136606
4.78892e-05
0.0013451
4.64555e-05
0.00132379
4.56237e-05
0.00130243
4.51205e-05
0.00128124
4.474e-05
0.00126033
4.4347e-05
0.00123972
4.38812e-05
0.00121934
4.33468e-05
0.00119908
4.27857e-05
0.0011788
4.22409e-05
0.00115838
4.17329e-05
0.00113772
4.12531e-05
0.00111677
4.07749e-05
0.0010955
4.02726e-05
0.00107395
3.97331e-05
0.00105218
3.91579e-05
0.00103023
3.85572e-05
0.00100819
3.79472e-05
0.000986093
3.7343e-05
0.000963986
3.67632e-05
0.000941877
3.62197e-05
0.00091976
3.57258e-05
0.000897617
3.52938e-05
0.000875422
3.49305e-05
0.000853143
3.46361e-05
0.00083075
3.4406e-05
0.00080821
3.42337e-05
0.000785492
3.4115e-05
0.000762561
3.40487e-05
0.000739381
3.40377e-05
0.000715907
3.40867e-05
0.000692096
3.41991e-05
0.000667898
3.43765e-05
0.000643264
3.46179e-05
0.000618143
3.49203e-05
0.000592486
3.52786e-05
0.000566247
3.56856e-05
0.000539383
3.61316e-05
0.000511866
3.66033e-05
0.000483676
3.7088e-05
0.000454803
3.7574e-05
0.000425253
3.80489e-05
0.00039504
3.85e-05
0.000364191
3.89191e-05
0.000332745
3.92981e-05
0.000300754
3.96302e-05
0.00026829
3.99069e-05
0.00023544
4.01196e-05
0.000202282
4.02573e-05
0.000168856
4.03104e-05
0.000135074
4.02914e-05
0.000100603
4.04157e-05
6.56244e-05
3.97127e-05
3.27812e-05
3.67411e-05
4.32507e-05
1.45497e-05
-6.04208e-05
3.85111e-05
-8.61198e-05
5.82118e-05
-7.56666e-05
7.53364e-05
-6.90894e-05
9.21328e-05
-6.81177e-05
0.000109384
-6.87343e-05
0.000127015
-6.92142e-05
0.000144932
-6.95049e-05
0.000163136
-6.97984e-05
0.000181655
-7.01531e-05
0.000200528
-7.05735e-05
0.000219778
-7.10445e-05
0.000239433
-7.15697e-05
0.000259511
-7.21381e-05
0.000280023
-7.27417e-05
0.000300989
-7.33958e-05
0.000322449
-7.41038e-05
0.000344395
-7.48255e-05
0.000366845
-7.55842e-05
0.000389821
-7.63723e-05
0.00041332
-7.71788e-05
0.000437357
-7.79876e-05
0.00046194
-7.88113e-05
0.000487063
-7.96266e-05
0.000512748
-8.0446e-05
0.000538973
-8.12394e-05
0.000565735
-8.20121e-05
0.000593019
-8.27545e-05
0.000620813
-8.34662e-05
0.000649102
-8.41392e-05
0.00067786
-8.47648e-05
0.000707069
-8.53362e-05
0.0007367
-8.58425e-05
0.000766728
-8.62789e-05
0.000797125
-8.66378e-05
0.000827885
-8.69276e-05
0.000858966
-8.71356e-05
0.000890338
-8.72768e-05
0.000921971
-8.736e-05
0.000953829
-8.73899e-05
0.000985879
-8.73764e-05
0.00101808
-8.73142e-05
0.00105038
-8.72112e-05
0.00108277
-8.70671e-05
0.0011152
-8.68789e-05
0.00114765
-8.66436e-05
0.00118007
-8.63658e-05
0.00121241
-8.60473e-05
0.00124461
-8.56922e-05
0.0012766
-8.53173e-05
0.00130831
-8.49284e-05
0.00133968
-8.45345e-05
0.00137065
-8.41418e-05
0.0014012
-8.37585e-05
0.00143131
-8.33758e-05
0.00146101
-8.29927e-05
0.0014903
-8.26014e-05
0.00151921
-8.21925e-05
0.00154776
-8.17597e-05
0.00157598
-8.1298e-05
0.00160387
-8.08027e-05
0.00163145
-8.02699e-05
0.00165873
-7.96981e-05
0.00168571
-7.90883e-05
0.00171238
-7.84381e-05
0.00173876
-7.77484e-05
0.00176482
-7.70196e-05
0.00179058
-7.62545e-05
0.00181602
-7.54515e-05
0.00184113
-7.46128e-05
0.00186592
-7.37404e-05
0.00189037
-7.28351e-05
0.00191447
-7.18984e-05
0.00193823
-7.0933e-05
0.00196162
-6.99417e-05
0.00198465
-6.89271e-05
0.00200729
-6.78907e-05
0.00202953
-6.68332e-05
0.00205137
-6.57531e-05
0.0020728
-6.46476e-05
0.0020938
-6.35131e-05
0.00211436
-6.23459e-05
0.0021345
-6.11433e-05
0.00215419
-5.99041e-05
0.00217344
-5.86293e-05
0.00219225
-5.73213e-05
0.00221062
-5.5984e-05
0.00222854
-5.46225e-05
0.00224601
-5.32417e-05
0.00226302
-5.18466e-05
0.00227959
-5.04416e-05
0.0022957
-4.90306e-05
0.00231135
-4.76169e-05
0.00232654
-4.62035e-05
0.00234126
-4.47927e-05
0.00235552
-4.33868e-05
0.00236932
-4.19878e-05
0.00238265
-4.05975e-05
0.00239553
-3.92175e-05
0.00240794
-3.78496e-05
0.0024199
-3.64953e-05
0.00243141
-3.51562e-05
0.00244247
-3.38338e-05
0.00245309
-3.25295e-05
0.00246328
-3.12448e-05
0.00247304
-2.99811e-05
0.00248238
-2.87396e-05
0.00249131
-2.75216e-05
0.00249984
-2.63283e-05
0.00250797
-2.51605e-05
0.00251571
-2.40193e-05
0.00252309
-2.29054e-05
0.00253009
-2.18196e-05
0.00253674
-2.07624e-05
0.00254304
-1.97343e-05
0.00254901
-1.87357e-05
0.00255465
-1.7767e-05
0.00255998
-1.68282e-05
0.002565
-1.59195e-05
0.00256973
-1.5041e-05
0.00257418
-1.41925e-05
0.00257836
-1.33737e-05
0.00258227
-1.25848e-05
0.00258594
-1.18255e-05
0.00258937
-1.10958e-05
0.00259257
-1.03956e-05
0.00259555
-9.7248e-06
0.00259832
-9.0836e-06
0.0026009
-8.47208e-06
0.00260329
-7.89037e-06
0.0026055
-7.33862e-06
0.00260754
-6.81714e-06
0.00260941
-6.32631e-06
0.00261114
-5.86646e-06
0.00261271
-5.43785e-06
0.00261414
-5.04024e-06
0.00261541
-4.67221e-06
0.00261654
-4.33022e-06
0.00261751
-4.00791e-06
0.00261832
-3.69617e-06
0.00261896
-3.38399e-06
0.00261943
-3.06018e-06
0.00261973
-2.71576e-06
0.00261989
-2.34607e-06
0.0026199
-1.95144e-06
0.00261981
-1.53622e-06
0.00261963
-1.10655e-06
0.00261938
-6.67073e-07
0.00261907
-2.23716e-07
0.00261876
1.65921e-07
0.00261847
5.88854e-07
0.00261815
1.00313e-06
0.00261781
1.39917e-06
0.00261744
1.78463e-06
0.00261703
2.16262e-06
0.00261658
2.52297e-06
0.00261609
2.86296e-06
0.00261559
3.17928e-06
0.00261508
3.46582e-06
0.00261462
3.72021e-06
0.00261424
3.95143e-06
0.00261394
4.18375e-06
0.00261374
4.43666e-06
0.00261361
4.70893e-06
0.00261353
4.97951e-06
0.00261352
5.22317e-06
0.00261359
5.42269e-06
0.00261375
5.57242e-06
0.00261403
5.67481e-06
0.00261443
5.73692e-06
0.00261493
5.76737e-06
0.00261552
5.7745e-06
0.00261616
5.76127e-06
0.00261677
5.72541e-06
0.00261731
5.66926e-06
0.00261772
5.59885e-06
0.00261803
5.51656e-06
0.00261823
5.42751e-06
0.00261836
5.34244e-06
0.00261844
5.27308e-06
0.00261852
5.22822e-06
0.00261861
5.21226e-06
0.00261874
5.22649e-06
0.00261891
5.26983e-06
0.00261912
5.33962e-06
0.00261937
5.43251e-06
0.00261965
5.54485e-06
0.00261995
5.67295e-06
0.00262024
5.81319e-06
0.00262053
5.962e-06
0.00262079
6.11597e-06
0.002621
6.27164e-06
0.00262114
6.42538e-06
0.00262118
6.57284e-06
0.0026211
6.70965e-06
0.00262087
6.83256e-06
0.00262045
6.93971e-06
0.00261981
7.03163e-06
0.00261892
7.1128e-06
0.00261776
7.19293e-06
0.0026163
7.28733e-06
0.00261456
7.41618e-06
0.00261251
7.60241e-06
0.00261019
7.86816e-06
0.00260758
8.23055e-06
0.00260473
8.69805e-06
0.00260166
9.26769e-06
0.00259837
9.92615e-06
0.00259488
1.06511e-05
0.0025912
1.14146e-05
0.00258733
1.21885e-05
0.00258327
1.29487e-05
0.00257901
1.36787e-05
0.00257453
1.43715e-05
0.00256983
1.50284e-05
0.00256489
1.56571e-05
0.00255968
1.62691e-05
0.00255421
1.68762e-05
0.00254846
1.74885e-05
0.00254242
1.81138e-05
0.00253607
1.87573e-05
0.00252942
1.94222e-05
0.00252246
2.01107e-05
0.00251517
2.08241e-05
0.00250756
2.15637e-05
0.00249961
2.23308e-05
0.00249132
2.31262e-05
0.00248267
2.39505e-05
0.00247366
2.48037e-05
0.00246429
2.56856e-05
0.00245455
2.65953e-05
0.00244443
2.7532e-05
0.00243392
2.84945e-05
0.00242303
2.94812e-05
0.00241174
3.04908e-05
0.00240005
3.15219e-05
0.00238797
3.25723e-05
0.00237548
3.36404e-05
0.00236258
3.47247e-05
0.00234927
3.58231e-05
0.00233555
3.69336e-05
0.00232142
3.80541e-05
0.00230688
3.91826e-05
0.00229192
4.03167e-05
0.00227656
4.14543e-05
0.00226079
4.25927e-05
0.00224462
4.37301e-05
0.00222805
4.48644e-05
0.0022111
4.59932e-05
0.00219375
4.71137e-05
0.00217604
4.82235e-05
0.00215795
4.93205e-05
0.00213952
5.04021e-05
0.00212075
5.14659e-05
0.00210165
5.25096e-05
0.00208225
5.3532e-05
0.00206256
5.453e-05
0.00204261
5.5502e-05
0.00202241
5.64472e-05
0.00200199
5.73663e-05
0.00198136
5.82611e-05
0.00196054
5.9136e-05
0.00193955
5.99959e-05
0.00191838
6.08481e-05
0.00189707
6.16983e-05
0.00187561
6.255e-05
0.00185404
6.34065e-05
0.00183238
6.42697e-05
0.00181069
6.51398e-05
0.00178902
6.60214e-05
0.00176742
6.69189e-05
0.00174597
6.78381e-05
0.00172472
6.87847e-05
0.00170377
6.97641e-05
0.00168318
7.07811e-05
0.00166304
7.18394e-05
0.00164343
7.29402e-05
0.00162443
7.40829e-05
0.0016061
7.52639e-05
0.00158847
7.64775e-05
0.00157156
7.77119e-05
0.00155536
7.89431e-05
0.00153987
8.01321e-05
0.00152502
8.12249e-05
0.00151072
8.21558e-05
0.00149683
8.28547e-05
0.00148313
8.32511e-05
0.00146934
8.32458e-05
0.00145516
8.27091e-05
0.00144034
8.1544e-05
0.00142465
7.97664e-05
0.00140785
7.75105e-05
0.0013898
7.50317e-05
0.00137043
7.26663e-05
0.00134985
7.07541e-05
0.00132826
6.94843e-05
0.00130595
6.8757e-05
0.00128328
6.82963e-05
0.00126053
6.78716e-05
0.0012379
6.73666e-05
0.00121551
6.67396e-05
0.0011934
6.599e-05
0.00117159
6.51591e-05
0.00115006
6.43205e-05
0.00112874
6.35538e-05
0.00110756
6.29127e-05
0.00108641
6.24091e-05
0.00106517
6.20115e-05
0.00104378
6.16649e-05
0.0010222
6.1311e-05
0.00100046
6.0901e-05
0.000978599
6.04147e-05
0.000956687
5.98597e-05
0.000934769
5.92612e-05
0.00091288
5.86517e-05
0.000891037
5.80633e-05
0.000869244
5.75183e-05
0.000847506
5.70314e-05
0.000825828
5.66089e-05
0.000804208
5.62559e-05
0.000782638
5.59764e-05
0.000761101
5.57705e-05
0.000739572
5.56436e-05
0.000718021
5.55999e-05
0.000696413
5.56463e-05
0.000674707
5.57927e-05
0.00065286
5.60456e-05
0.000630827
5.64094e-05
0.000608554
5.6891e-05
0.000585981
5.74939e-05
0.000563039
5.82202e-05
0.000539657
5.90675e-05
0.000515761
6.0028e-05
0.000491276
6.10877e-05
0.000466132
6.22325e-05
0.000440262
6.34439e-05
0.000413607
6.47042e-05
0.000386114
6.59929e-05
0.000357747
6.72858e-05
0.000328488
6.85575e-05
0.000298337
6.97812e-05
0.000267311
7.09325e-05
0.000235449
7.19815e-05
0.00020281
7.28968e-05
0.000169444
7.36763e-05
0.000135362
7.43736e-05
0.000100838
7.49392e-05
6.71917e-05
7.33593e-05
3.608e-05
6.78528e-05
7.93307e-05
1.75695e-05
-7.79903e-05
4.50678e-05
-0.000113618
6.88664e-05
-9.94652e-05
8.98132e-05
-9.00363e-05
0.000110252
-8.85567e-05
0.000131043
-8.95248e-05
0.000152212
-9.03836e-05
0.000173611
-9.09033e-05
0.000195232
-9.14198e-05
0.000217078
-9.19994e-05
0.000239183
-9.26783e-05
0.00026157
-9.34316e-05
0.000284256
-9.42555e-05
0.000307239
-9.51205e-05
0.000330552
-9.60547e-05
0.000354204
-9.70483e-05
0.000378186
-9.80855e-05
0.000402537
-9.91764e-05
0.000427242
-0.00010029
0.000452314
-0.000101444
0.000477742
-0.000102607
0.000503558
-0.000103803
0.000529743
-0.000104997
0.000556288
-0.000106171
0.000583184
-0.000107342
0.000610433
-0.000108488
0.000638018
-0.000109597
0.000665917
-0.000110653
0.000694115
-0.000111665
0.000722594
-0.000112618
0.000751332
-0.000113503
0.000780303
-0.000114307
0.000809493
-0.000115032
0.000838871
-0.000115657
0.000868431
-0.000116198
0.00089815
-0.000116646
0.000928014
-0.000117
0.000958006
-0.000117269
0.000988101
-0.000117455
0.00101828
-0.000117567
0.00104851
-0.000117606
0.00107877
-0.000117576
0.00110904
-0.000117477
0.00113929
-0.000117317
0.0011695
-0.000117091
0.00119966
-0.000116802
0.00122974
-0.000116453
0.00125974
-0.000116044
0.00128964
-0.000115594
0.00131943
-0.000115104
0.00134909
-0.000114587
0.00137861
-0.000114056
0.00140798
-0.000113515
0.00143719
-0.000112971
0.00146624
-0.00011242
0.0014951
-0.000111858
0.00152378
-0.000111278
0.00155226
-0.000110671
0.00158053
-0.000110033
0.00160859
-0.000109356
0.00163643
-0.000108638
0.00166403
-0.000107873
0.0016914
-0.000107065
0.00171852
-0.00010621
0.00174539
-0.000105306
0.00177199
-0.000104355
0.00179833
-0.000103356
0.00182438
-0.000102309
0.00185015
-0.000101217
0.00187562
-0.000100079
0.00190077
-9.88961e-05
0.00192561
-9.76699e-05
0.00195011
-9.64013e-05
0.00197427
-9.50922e-05
0.00199807
-9.37441e-05
0.0020215
-9.23588e-05
0.00204455
-9.09379e-05
0.0020672
-8.94819e-05
0.00208944
-8.79906e-05
0.00211125
-8.64635e-05
0.00213264
-8.48993e-05
0.00215359
-8.32973e-05
0.0021741
-8.16566e-05
0.00219418
-7.99778e-05
0.00221381
-7.82625e-05
0.002233
-7.65131e-05
0.00225175
-7.47335e-05
0.00227006
-7.29275e-05
0.00228791
-7.10994e-05
0.00230532
-6.92534e-05
0.00232227
-6.7394e-05
0.00233877
-6.55247e-05
0.0023548
-6.36495e-05
0.00237037
-6.17717e-05
0.00238547
-5.98946e-05
0.0024001
-5.8021e-05
0.00241427
-5.61538e-05
0.00242797
-5.42954e-05
0.0024412
-5.24484e-05
0.00245396
-5.06152e-05
0.00246627
-4.8798e-05
0.00247811
-4.69993e-05
0.0024895
-4.52209e-05
0.00250043
-4.34652e-05
0.00251092
-4.17341e-05
0.00252097
-4.00293e-05
0.00253058
-3.83527e-05
0.00253977
-3.6706e-05
0.00254853
-3.50906e-05
0.00255688
-3.35078e-05
0.00256482
-3.19591e-05
0.00257236
-3.04456e-05
0.00257951
-2.89683e-05
0.00258627
-2.75279e-05
0.00259266
-2.61254e-05
0.00259869
-2.47613e-05
0.00260436
-2.3436e-05
0.00260968
-2.21498e-05
0.00261466
-2.0903e-05
0.00261932
-1.96957e-05
0.00262365
-1.85283e-05
0.00262768
-1.74005e-05
0.00263141
-1.63123e-05
0.00263484
-1.52636e-05
0.002638
-1.42543e-05
0.00264089
-1.32843e-05
0.00264352
-1.23533e-05
0.0026459
-1.14611e-05
0.00264803
-1.06076e-05
0.00264994
-9.79254e-06
0.00265161
-9.01561e-06
0.00265307
-8.27647e-06
0.00265432
-7.57457e-06
0.00265536
-6.90905e-06
0.0026562
-6.27876e-06
0.00265685
-5.68197e-06
0.00265729
-5.11604e-06
0.00265754
-4.57711e-06
0.00265759
-4.0603e-06
0.00265745
-3.56005e-06
0.00265714
-3.07067e-06
0.00265667
-2.58703e-06
0.00265606
-2.10521e-06
0.00265533
-1.62316e-06
0.00265452
-1.14087e-06
0.00265365
-6.60301e-07
0.00265272
-1.84524e-07
0.00265176
2.97508e-07
0.00265076
7.75286e-07
0.00264971
1.2132e-06
0.00264867
1.63417e-06
0.0026476
2.0703e-06
0.00264652
2.47707e-06
0.00264545
2.86039e-06
0.00264437
3.23873e-06
0.0026433
3.59241e-06
0.00264223
3.93614e-06
0.00264115
4.26165e-06
0.00264003
4.57753e-06
0.00263887
4.88172e-06
0.00263765
5.17635e-06
0.00263637
5.45998e-06
0.00263508
5.73118e-06
0.0026338
5.98621e-06
0.00263256
6.22065e-06
0.00263135
6.43049e-06
0.00263016
6.61257e-06
0.00262897
6.76418e-06
0.00262776
6.88362e-06
0.00262653
6.96992e-06
0.00262527
7.02242e-06
0.00262401
7.0412e-06
0.00262274
7.02758e-06
0.00262148
6.98396e-06
0.00262024
6.9151e-06
0.00261901
6.82874e-06
0.00261778
6.73736e-06
0.00261656
6.6538e-06
0.00261531
6.58667e-06
0.00261405
6.54136e-06
0.00261275
6.52144e-06
0.00261144
6.52825e-06
0.0026101
6.5613e-06
0.00260875
6.6191e-06
0.00260739
6.69978e-06
0.00260602
6.80122e-06
0.00260465
6.92127e-06
0.00260326
7.05794e-06
0.00260187
7.20938e-06
0.00260045
7.37385e-06