/*--------------------------------*- C++ -*----------------------------------*\
| =========                 |                                                 |
| \\      /  F ield         | OpenFOAM: The Open Source CFD Toolbox           |
|  \\    /   O peration     | Version:  v2006                                 |
|   \\  /    A nd           | Website:  www.openfoam.com                      |
|    \\/     M anipulation  |                                                 |
\*---------------------------------------------------------------------------*/
FoamFile
{
    version     2.0;
    format      ascii;
    class       surfaceScalarField;
    location    "11.1";
    object      phi;
}
// * * * * * * * * * * * * * * * * * * * * * * * * * * * * * * * * * * * * * //

dimensions      [0 3 -1 0 0 0 0];
oriented        oriented;


internalField   nonuniform List<scalar> 
104500
(
3.07693e-05
-3.07693e-05
7.02831e-05
-3.95138e-05
0.000107597
-3.73136e-05
0.000142676
-3.50795e-05
0.000177217
-3.45407e-05
0.000211649
-3.44318e-05
0.00024603
-3.43809e-05
0.0002803
-3.42706e-05
0.000314421
-3.41207e-05
0.00034838
-3.39592e-05
0.000382178
-3.37982e-05
0.000415816
-3.36377e-05
0.000449292
-3.3476e-05
0.000482611
-3.33193e-05
0.000515776
-3.31653e-05
0.000548792
-3.30154e-05
0.000581655
-3.28634e-05
0.00061437
-3.27149e-05
0.000646936
-3.25663e-05
0.000679352
-3.24159e-05
0.000711602
-3.22496e-05
0.000743686
-3.20843e-05
0.000775596
-3.19097e-05
0.000807317
-3.17208e-05
0.000838838
-3.15212e-05
0.000870141
-3.13029e-05
0.000901211
-3.10706e-05
0.000932032
-3.0821e-05
0.00096259
-3.05579e-05
0.00099287
-3.02802e-05
0.00102286
-2.99901e-05
0.00105254
-2.96804e-05
0.00108189
-2.93499e-05
0.00111088
-2.89901e-05
0.00113948
-2.85967e-05
0.00116764
-2.81673e-05
0.00119535
-2.77046e-05
0.00122257
-2.7219e-05
0.00124929
-2.67231e-05
0.00127552
-2.62324e-05
0.00130128
-2.57561e-05
0.00132658
-2.52996e-05
0.00135144
-2.4858e-05
0.00137586
-2.44217e-05
0.00139984
-2.39848e-05
0.00142337
-2.35304e-05
0.00144643
-2.30598e-05
0.00146903
-2.25929e-05
0.0014912
-2.21716e-05
0.00151305
-2.18517e-05
0.00153474
-2.16901e-05
0.00155646
-2.17239e-05
0.00157842
-2.1958e-05
0.00160078
-2.23599e-05
0.00162366
-2.28733e-05
0.00164709
-2.34357e-05
0.00167108
-2.39893e-05
0.00169558
-2.4495e-05
0.00172051
-2.4931e-05
0.0017458
-2.52896e-05
0.00177137
-2.55722e-05
0.00179715
-2.57834e-05
0.00182308
-2.59296e-05
0.0018491
-2.60177e-05
0.00187515
-2.60546e-05
0.0019012
-2.60463e-05
0.0019272
-2.59983e-05
0.00195311
-2.5914e-05
0.00197891
-2.57963e-05
0.00200456
-2.56474e-05
0.00203002
-2.54678e-05
0.00205528
-2.52592e-05
0.00208031
-2.50251e-05
0.00210508
-2.47701e-05
0.00212958
-2.44999e-05
0.0021538
-2.42204e-05
0.00217773
-2.39362e-05
0.00220138
-2.36501e-05
0.00222475
-2.33621e-05
0.00224782
-2.30693e-05
0.00227058
-2.27671e-05
0.00229303
-2.24494e-05
0.00231514
-2.21104e-05
0.00233689
-2.17459e-05
0.00235824
-2.13536e-05
0.00237918
-2.09345e-05
0.00239967
-2.04915e-05
0.0024197
-2.00295e-05
0.00243925
-1.95539e-05
0.00245832
-1.90702e-05
0.0024769
-1.85828e-05
0.002495
-1.80953e-05
0.00251261
-1.761e-05
0.00252974
-1.71286e-05
0.00254639
-1.66518e-05
0.00256257
-1.618e-05
0.00257828
-1.57133e-05
0.00259354
-1.52517e-05
0.00260833
-1.47951e-05
0.00262267
-1.43433e-05
0.00263657
-1.38961e-05
0.00265002
-1.34535e-05
0.00266304
-1.30151e-05
0.00267562
-1.2581e-05
0.00268777
-1.21513e-05
0.0026995
-1.1726e-05
0.0027108
-1.13054e-05
0.00272169
-1.08897e-05
0.00273217
-1.04791e-05
0.00274224
-1.00738e-05
0.00275192
-9.67394e-06
0.0027612
-9.27967e-06
0.00277009
-8.89122e-06
0.0027786
-8.50879e-06
0.00278673
-8.13249e-06
0.00279449
-7.76227e-06
0.00280189
-7.39799e-06
0.00280893
-7.03952e-06
0.00281562
-6.68672e-06
0.00282196
-6.33942e-06
0.00282795
-5.99728e-06
0.00283361
-5.66004e-06
0.00283894
-5.32761e-06
0.00284394
-4.99985e-06
0.00284862
-4.67659e-06
0.00285298
-4.35768e-06
0.00285702
-4.04305e-06
0.00286075
-3.73252e-06
0.00286418
-3.42576e-06
0.0028673
-3.12239e-06
0.00287012
-2.82186e-06
0.00287265
-2.52358e-06
0.00287487
-2.22706e-06
0.0028768
-1.93223e-06
0.00287844
-1.6399e-06
0.0028798
-1.35248e-06
0.00288087
-1.07485e-06
0.00288169
-8.14361e-07
0.00288227
-5.79197e-07
0.00288264
-3.74765e-07
0.00288284
-1.99063e-07
0.00288288
-3.77988e-08
0.00288274
1.41843e-07
0.00288239
3.46511e-07
0.00288176
6.29184e-07
0.00288076
1.00146e-06
0.00287927
1.48966e-06
0.00287719
2.07479e-06
0.00287446
2.7321e-06
0.00287102
3.43835e-06
0.00286687
4.15457e-06
0.00286201
4.85923e-06
0.00285646
5.54686e-06
0.00285024
6.21996e-06
0.00284335
6.88803e-06
0.00283579
7.56528e-06
0.00282752
8.26911e-06
0.0028185
9.01914e-06
0.00280866
9.83871e-06
0.00279792
1.07423e-05
0.00278622
1.17001e-05
0.0027736
1.26211e-05
0.0027602
1.33975e-05
0.00274623
1.39725e-05
0.00273187
1.43629e-05
0.00271724
1.46245e-05
0.00270243
1.48063e-05
0.00268751
1.49254e-05
0.00267254
1.49653e-05
0.00265766
1.48814e-05
0.00264306
1.46052e-05
0.00262894
1.41201e-05
0.00261551
1.34251e-05
0.00260298
1.25361e-05
0.00259144
1.15358e-05
0.00258091
1.05324e-05
0.00257128
9.62392e-06
0.00256241
8.87361e-06
0.00255411
8.30386e-06
0.0025462
7.90235e-06
0.00253857
7.63471e-06
0.0025311
7.46582e-06
0.00252373
7.36894e-06
0.00251642
7.31941e-06
0.00250912
7.29632e-06
0.00250184
7.28308e-06
0.00249457
7.26736e-06
0.00248733
7.24049e-06
0.00248013
7.19624e-06
0.002473
7.12948e-06
0.00246597
7.03514e-06
0.00245906
6.9072e-06
0.00245232
6.73729e-06
0.00244581
6.5134e-06
0.00243958
6.23356e-06
0.00243368
5.89671e-06
0.00242818
5.49663e-06
0.00242315
5.03571e-06
0.00241862
4.52721e-06
0.00241462
3.99682e-06
0.00241114
3.48154e-06
0.00240812
3.02571e-06
0.00240544
2.67565e-06
0.00240297
2.47012e-06
0.00240056
2.40799e-06
0.00239807
2.49144e-06
0.00239536
2.70543e-06
0.00239235
3.01587e-06
0.00238897
3.37934e-06
0.00238522
3.75183e-06
0.00238112
4.09648e-06
0.00237673
4.38879e-06
0.00237211
4.6183e-06
0.00236733
4.78724e-06
0.00236242
4.90707e-06
0.00235743
4.99391e-06
0.00235236
5.06388e-06
0.00234723
5.12977e-06
0.00234203
5.19964e-06
0.00233676
5.27722e-06
0.00233139
5.36335e-06
0.00232593
5.45766e-06
0.00232037
5.55964e-06
0.00231471
5.66928e-06
0.00230892
5.78725e-06
0.002303
5.91472e-06
0.00229695
6.05296e-06
0.00229075
6.20297e-06
0.00228438
6.36532e-06
0.00227784
6.5402e-06
0.00227111
6.72755e-06
0.00226419
6.92719e-06
0.00225705
7.13882e-06
0.00224969
7.36209e-06
0.00224209
7.59677e-06
0.00223425
7.84272e-06
0.00222615
8.09983e-06
0.00221778
8.36799e-06
0.00220913
8.64716e-06
0.00220019
8.93742e-06
0.00219096
9.23886e-06
0.0021814
9.55155e-06
0.00217153
9.87562e-06
0.00216132
1.02113e-05
0.00215076
1.0559e-05
0.00213984
1.0919e-05
0.00212855
1.1292e-05
0.00211687
1.16792e-05
0.00210479
1.20824e-05
0.00209228
1.25032e-05
0.00207934
1.29435e-05
0.00206593
1.34058e-05
0.00205204
1.38924e-05
0.00203764
1.44058e-05
0.00202269
1.49483e-05
0.00200716
1.55223e-05
0.00199104
1.61283e-05
0.00197427
1.67653e-05
0.00195684
1.74287e-05
0.00193873
1.81105e-05
0.00191993
1.87996e-05
0.00190045
1.94837e-05
0.0018803
2.01521e-05
0.00185949
2.08027e-05
0.00183805
2.14449e-05
0.00181595
2.20974e-05
0.00179317
2.27852e-05
0.00176963
2.35332e-05
0.00174527
2.43603e-05
0.00171999
2.52802e-05
0.00169369
2.63003e-05
0.00166627
2.74223e-05
0.00163762
2.86484e-05
0.00160764
2.99798e-05
0.00157623
3.14144e-05
0.00154328
3.2944e-05
0.00150873
3.45527e-05
0.00147252
3.62127e-05
0.00143464
3.78783e-05
0.00139514
3.94967e-05
0.00135411
4.10357e-05
0.00131162
4.24887e-05
0.00126777
4.38466e-05
0.0012227
4.50736e-05
0.00117658
4.61148e-05
0.00112967
4.69144e-05
0.00108224
4.74328e-05
0.00103462
4.76179e-05
0.000987277
4.73409e-05
0.000940883
4.63944e-05
0.000896305
4.45777e-05
0.000854483
4.18217e-05
0.000816205
3.82788e-05
0.000781844
3.43606e-05
0.000751213
3.06306e-05
0.00072361
2.76031e-05
0.000698086
2.55245e-05
0.000673748
2.43381e-05
0.000649957
2.37901e-05
0.000626379
2.35785e-05
0.000602912
2.34669e-05
0.000579611
2.33009e-05
0.000556608
2.30035e-05
0.000534043
2.25643e-05
0.000512037
2.20065e-05
0.000490679
2.13583e-05
0.000470038
2.06408e-05
0.000450168
1.98694e-05
0.000431107
1.90616e-05
0.000412866
1.82407e-05
0.000395429
1.74372e-05
0.000378757
1.66721e-05
0.000362795
1.59619e-05
0.000347485
1.53102e-05
0.000332763
1.47213e-05
0.000318587
1.41766e-05
0.00030491
1.36766e-05
0.000291689
1.32209e-05
0.000278882
1.28071e-05
0.000266451
1.24313e-05
0.000254363
1.20881e-05
0.000242591
1.17713e-05
0.000231115
1.14761e-05
0.000219917
1.11986e-05
0.000208977
1.09396e-05
0.00019828
1.06971e-05
0.000187806
1.04736e-05
0.000177541
1.02657e-05
0.000167469
1.0072e-05
0.00015758
9.88885e-06
0.000147867
9.71325e-06
0.000138329
9.53789e-06
0.000128967
9.36149e-06
0.000119787
9.18062e-06
0.000110794
8.9927e-06
0.000101996
8.79748e-06
9.34009e-05
8.59552e-06
8.50159e-05
8.38495e-06
7.68478e-05
8.16816e-06
6.8897e-05
7.95077e-06
6.11584e-05
7.7386e-06
5.36153e-05
7.54312e-06
4.62462e-05
7.36912e-06
3.90458e-05
7.20042e-06
3.2061e-05
6.98477e-06
2.54504e-05
6.61055e-06
1.9405e-05
6.04545e-06
1.45695e-05
4.83544e-06
1.05699e-05
3.99965e-06
1.05699e-05
1.54134e-05
-4.61827e-05
3.8378e-05
-6.24784e-05
5.73503e-05
-5.62859e-05
7.45513e-05
-5.22806e-05
9.16448e-05
-5.16342e-05
0.000109008
-5.17946e-05
0.000126521
-5.18939e-05
0.000144147
-5.18967e-05
0.000161927
-5.19008e-05
0.000179907
-5.19388e-05
0.00019811
-5.20019e-05
0.000216567
-5.20944e-05
0.000235302
-5.22111e-05
0.000254337
-5.23537e-05
0.000273691
-5.252e-05
0.000293393
-5.27171e-05
0.000313457
-5.29275e-05
0.000333902
-5.31594e-05
0.000354745
-5.34097e-05
0.000375998
-5.36691e-05
0.000397697
-5.39478e-05
0.000419828
-5.42159e-05
0.000442407
-5.44885e-05
0.000465445
-5.4759e-05
0.000488937
-5.5013e-05
0.000512896
-5.52618e-05
0.000537319
-5.54935e-05
0.000562207
-5.57094e-05
0.000587555
-5.59053e-05
0.000613354
-5.608e-05
0.000639595
-5.62308e-05
0.000666262
-5.63473e-05
0.000693338
-5.64264e-05
0.00072081
-5.64612e-05
0.000748659
-5.64462e-05
0.000776859
-5.63673e-05
0.000805404
-5.62497e-05
0.000834279
-5.60941e-05
0.000863467
-5.59108e-05
0.000892945
-5.57108e-05
0.000922687
-5.54981e-05
0.00095267
-5.52828e-05
0.000982876
-5.5064e-05
0.00101329
-5.48383e-05
0.0010439
-5.45933e-05
0.00107471
-5.43384e-05
0.00110573
-5.4081e-05
0.00113697
-5.38332e-05
0.00116841
-5.36121e-05
0.0012
-5.34379e-05
0.00123163
-5.33238e-05
0.00126318
-5.32688e-05
0.00129448
-5.32643e-05
0.00132541
-5.32898e-05
0.00135587
-5.33336e-05
0.0013858
-5.33672e-05
0.00141519
-5.3372e-05
0.00144403
-5.33374e-05
0.00147235
-5.32566e-05
0.00150019
-5.31259e-05
0.00152757
-5.2946e-05
0.0015545
-5.27183e-05
0.00158101
-5.24444e-05
0.00160713
-5.21283e-05
0.00163284
-5.1772e-05
0.00165818
-5.1379e-05
0.00168313
-5.09516e-05
0.0017077
-5.04896e-05
0.00173191
-4.99985e-05
0.00175574
-4.94775e-05
0.0017792
-4.89274e-05
0.00180229
-4.83509e-05
0.00182501
-4.77509e-05
0.00184737
-4.71308e-05
0.00186937
-4.64945e-05
0.00189099
-4.58456e-05
0.00191224
-4.51864e-05
0.00193311
-4.45174e-05
0.00195359
-4.38369e-05
0.00197366
-4.31411e-05
0.00199332
-4.2425e-05
0.00201255
-4.16832e-05
0.00203135
-4.09111e-05
0.00204971
-4.01059e-05
0.00206762
-3.92673e-05
0.00208509
-3.83972e-05
0.0021021
-3.74996e-05
0.00211865
-3.65793e-05
0.00213473
-3.56419e-05
0.00215036
-3.46927e-05
0.00216551
-3.37365e-05
0.00218019
-3.27771e-05
0.0021944
-3.18177e-05
0.00220813
-3.08608e-05
0.00222139
-2.99083e-05
0.00223417
-2.89618e-05
0.00224648
-2.80223e-05
0.00225832
-2.70907e-05
0.00226969
-2.61678e-05
0.0022806
-2.52545e-05
0.00229106
-2.43515e-05
0.00230106
-2.34595e-05
0.00231063
-2.25793e-05
0.00231976
-2.17118e-05
0.00232846
-2.08576e-05
0.00233676
-2.00176e-05
0.00234464
-1.91924e-05
0.00235214
-1.83829e-05
0.00235925
-1.75897e-05
0.00236599
-1.68136e-05
0.00237237
-1.6055e-05
0.0023784
-1.53146e-05
0.0023841
-1.45927e-05
0.00238948
-1.38896e-05
0.00239456
-1.32056e-05
0.00239934
-1.2541e-05
0.00240383
-1.18958e-05
0.00240807
-1.12702e-05
0.00241204
-1.06641e-05
0.00241578
-1.00774e-05
0.00241929
-9.51006e-06
0.0024226
-8.96189e-06
0.0024257
-8.43283e-06
0.00242862
-7.92296e-06
0.00243138
-7.43219e-06
0.00243398
-6.96053e-06
0.00243645
-6.50811e-06
0.00243879
-6.07509e-06
0.00244103
-5.66176e-06
0.00244317
-5.26853e-06
0.00244525
-4.89605e-06
0.00244727
-4.54508e-06
0.00244926
-4.21688e-06
0.00245124
-3.91317e-06
0.00245323
-3.63618e-06
0.00245527
-3.3881e-06
0.00245737
-3.16997e-06
0.00245953
-2.98083e-06
0.00246177
-2.81656e-06
0.00246406
-2.66936e-06
0.00246639
-2.52785e-06
0.00246873
-2.37692e-06
0.00247107
-2.20094e-06
0.00247341
-1.98998e-06
0.00247578
-1.7349e-06
0.00247821
-1.43584e-06
0.0024808
-1.09855e-06
0.00248361
-7.36243e-07
0.0024867
-3.59243e-07
0.00249008
5.97872e-08
0.00249377
4.69043e-07
0.00249777
8.51882e-07
0.0025021
1.22065e-06
0.00250675
1.57206e-06
0.00251173
1.90797e-06
0.00251707
2.22602e-06
0.00252281
2.52759e-06
0.00252901
2.81705e-06
0.00253575
3.10157e-06
0.0025431
3.39049e-06
0.00255111
3.69359e-06
0.00255971
4.01566e-06
0.00256876
4.35192e-06
0.00257804
4.68929e-06
0.00258739
5.01336e-06
0.0025967
5.31414e-06
0.00260592
5.5869e-06
0.00261502
5.82973e-06
0.00262394
6.04068e-06
0.00263261
6.21555e-06
0.00264086
6.34809e-06
0.00264854
6.44031e-06
0.0026555
6.47035e-06
0.00266164
6.39917e-06
0.00266691
6.25701e-06
0.00267138
6.06863e-06
0.00267514
5.86318e-06
0.00267834
5.66716e-06
0.00268115
5.50059e-06
0.00268367
5.38145e-06
0.00268598
5.32194e-06
0.00268813
5.31695e-06
0.00269014
5.3578e-06
0.00269203
5.43536e-06
0.00269378
5.54056e-06
0.0026954
5.66481e-06
0.00269687
5.80025e-06
0.00269817
5.93994e-06
0.00269929
6.07779e-06
0.00270021
6.20832e-06
0.00270092
6.32642e-06
0.0027014
6.42735e-06
0.00270163
6.50694e-06
0.00270158
6.55511e-06
0.00270125
6.56369e-06
0.00270062
6.52769e-06
0.00269968
6.44301e-06
0.0026984
6.31019e-06
0.00269679
6.13664e-06
0.00269485
5.938e-06
0.0026926
5.73789e-06
0.00269006
5.56571e-06
0.00268728
5.45263e-06
0.00268432
5.42586e-06
0.00268122
5.50748e-06
0.002678
5.71928e-06
0.00267465
6.05587e-06
0.00267116
6.49875e-06
0.00266752
7.02013e-06
0.00266369
7.58712e-06
0.00265962
8.16666e-06
0.00265527
8.7301e-06
0.00265064
9.25664e-06
0.00264569
9.73495e-06
0.00264043
1.0163e-05
0.00263488
1.0547e-05
0.00262904
1.08993e-05
0.00262294
1.12334e-05
0.00261658
1.15616e-05
0.00260996
1.18934e-05
0.00260309
1.22352e-05
0.00259596
1.25912e-05
0.00258855
1.29636e-05
0.00258087
1.33538e-05
0.00257289
1.37628e-05
0.00256462
1.41914e-05
0.00255603
1.46407e-05
0.00254712
1.51115e-05
0.00253788
1.56043e-05
0.0025283
1.61193e-05
0.00251837
1.66562e-05
0.00250809
1.72144e-05
0.00249743
1.7793e-05
0.0024864
1.8391e-05
0.00247499
1.90073e-05
0.00246319
1.96405e-05
0.002451
2.02896e-05
0.00243842
2.09536e-05
0.00242544
2.16309e-05
0.00241205
2.23204e-05
0.00239827
2.30209e-05
0.00238409
2.3731e-05
0.00236952
2.44494e-05
0.00235455
2.51744e-05
0.00233921
2.5905e-05
0.00232349
2.664e-05
0.0023074
2.73779e-05
0.00229096
2.81171e-05
0.00227419
2.88568e-05
0.0022571
2.9596e-05
0.00223971
3.0334e-05
0.00222204
3.10697e-05
0.00220413
3.18022e-05
0.00218601
3.25308e-05
0.0021677
3.3255e-05
0.00214925
3.3974e-05
0.00213069
3.4689e-05
0.00211205
3.53994e-05
0.00209338
3.61045e-05
0.00207468
3.68036e-05
0.00205599
3.74972e-05
0.00203728
3.81862e-05
0.00201856
3.88737e-05
0.0019998
3.95635e-05
0.00198098
4.02621e-05
0.0019621
4.09786e-05
0.00194316
4.1724e-05
0.00192419
4.25098e-05
0.0019052
4.33488e-05
0.00188623
4.42521e-05
0.0018673
4.52302e-05
0.00184843
4.62951e-05
0.00182962
4.74585e-05
0.00181086
4.87307e-05
0.00179216
5.01205e-05
0.00177347
5.16339e-05
0.00175475
5.32714e-05
0.00173594
5.50252e-05
0.00171694
5.68772e-05
0.00169763
5.87999e-05
0.00167791
6.07601e-05
0.00165768
6.27163e-05
0.00163692
6.46089e-05
0.00161564
6.6355e-05
0.00159391
6.78479e-05
0.00157186
6.89622e-05
0.00154974
6.95559e-05
0.00152788
6.94717e-05
0.00150666
6.85587e-05
0.00148629
6.67644e-05
0.00146675
6.41199e-05
0.00144781
6.0767e-05
0.00142905
5.70301e-05
0.00141006
5.33595e-05
0.00139046
5.02237e-05
0.00137013
4.79386e-05
0.00134915
4.6504e-05
0.00132781
4.56743e-05
0.00130643
4.51753e-05
0.00128521
4.48001e-05
0.00126426
4.4413e-05
0.00124361
4.39528e-05
0.00122319
4.34237e-05
0.00120288
4.28672e-05
0.00118256
4.23267e-05
0.0011621
4.18228e-05
0.00114139
4.13472e-05
0.00112039
4.08734e-05
0.00109908
4.03756e-05
0.00107748
3.98407e-05
0.00105564
3.927e-05
0.00103364
3.86737e-05
0.00101153
3.80681e-05
0.000989377
3.74682e-05
0.000967205
3.68925e-05
0.000945029
3.6353e-05
0.000922843
3.5863e-05
0.000900629
3.54348e-05
0.000878361
3.50753e-05
0.000856007
3.47845e-05
0.000833537
3.4558e-05
0.000810919
3.43892e-05
0.000788122
3.4274e-05
0.000765109
3.42111e-05
0.000741845
3.42034e-05
0.000718287
3.42555e-05
0.000694389
3.4371e-05
0.000670104
3.45513e-05
0.00064538
3.47956e-05
0.000620168
3.51007e-05
0.00059442
3.54615e-05
0.000568087
3.5871e-05
0.000541129
3.63194e-05
0.000513516
3.67934e-05
0.000485229
3.72803e-05
0.000456258
3.77683e-05
0.000426608
3.82451e-05
0.000396295
3.8698e-05
0.000365345
3.91186e-05
0.000333796
3.94991e-05
0.000301703
3.98325e-05
0.000269135
4.01103e-05
0.000236181
4.03239e-05
0.000202919
4.04624e-05
0.000169387
4.05162e-05
0.0001355
4.04977e-05
0.000100923
4.06223e-05
6.58378e-05
3.99209e-05
3.28863e-05
3.69511e-05
4.34562e-05
1.47126e-05
-6.08953e-05
3.88409e-05
-8.66066e-05
5.87098e-05
-7.61549e-05
7.59996e-05
-6.95703e-05
9.29593e-05
-6.85939e-05
0.000110373
-6.92084e-05
0.000128165
-6.96863e-05
0.000146243
-6.99744e-05
0.000164607
-7.02646e-05
0.000183284
-7.06157e-05
0.000202314
-7.10322e-05
0.000221719
-7.1499e-05
0.000241527
-7.20197e-05
0.000261757
-7.25833e-05
0.000282419
-7.31819e-05
0.000303532
-7.38306e-05
0.000325138
-7.4533e-05
0.000347228
-7.5249e-05
0.00036982
-7.60018e-05
0.000392934
-7.67838e-05
0.00041657
-7.7584e-05
0.000440741
-7.83863e-05
0.000465456
-7.92035e-05
0.000490709
-8.00121e-05
0.00051652
-8.08245e-05
0.00054287
-8.1611e-05
0.000569753
-8.23765e-05
0.000597155
-8.31118e-05
0.000625066
-8.38162e-05
0.000653468
-8.44817e-05
0.000682337
-8.50998e-05
0.000711653
-8.56635e-05
0.000741388
-8.61621e-05
0.000771518
-8.65907e-05
0.000802013
-8.69417e-05
0.00083287
-8.72234e-05
0.000864043
-8.74232e-05
0.000895505
-8.7556e-05
0.000927225
-8.76307e-05
0.000959166
-8.76518e-05
0.000991297
-8.76294e-05
0.00102357
-8.75582e-05
0.00105595
-8.74461e-05
0.00108841
-8.72927e-05
0.00112091
-8.70952e-05
0.00115342
-8.68504e-05
0.00118591
-8.65631e-05
0.00121831
-8.62349e-05
0.00125056
-8.58699e-05
0.00128261
-8.5485e-05
0.00131437
-8.5086e-05
0.00134579
-8.46818e-05
0.0013768
-8.42788e-05
0.0014074
-8.38851e-05
0.00143756
-8.34921e-05
0.00146729
-8.30986e-05
0.00149661
-8.26972e-05
0.00152555
-8.22782e-05
0.00155413
-8.18354e-05
0.00158237
-8.13637e-05
0.00161028
-8.08585e-05
0.00163788
-8.03159e-05
0.00166517
-7.97344e-05
0.00169216
-7.91148e-05
0.00171884
-7.84549e-05
0.00174522
-7.77554e-05
0.00177128
-7.70171e-05
0.00179703
-7.62423e-05
0.00182246
-7.54298e-05
0.00184757
-7.45816e-05
0.00187234
-7.36998e-05
0.00189678
-7.2785e-05
0.00192086
-7.18389e-05
0.0019446
-7.08642e-05
0.00196797
-6.98637e-05
0.00199096
-6.88398e-05
0.00201357
-6.77943e-05
0.00203578
-6.67276e-05
0.00205758
-6.56386e-05
0.00207896
-6.45244e-05
0.00209992
-6.33813e-05
0.00212044
-6.22056e-05
0.00214053
-6.09947e-05
0.00216017
-5.97474e-05
0.00217936
-5.84646e-05
0.00219812
-5.71486e-05
0.00221642
-5.58035e-05
0.00223427
-5.44342e-05
0.00225168
-5.30457e-05
0.00226863
-5.1643e-05
0.00228512
-5.02305e-05
0.00230116
-4.88121e-05
0.00231673
-4.73911e-05
0.00233184
-4.59705e-05
0.00234648
-4.45528e-05
0.00236066
-4.31401e-05
0.00237438
-4.17343e-05
0.00238762
-4.03375e-05
0.00240041
-3.89512e-05
0.00241273
-3.75771e-05
0.00242459
-3.62168e-05
0.00243601
-3.48719e-05
0.00244697
-3.35439e-05
0.00245749
-3.22342e-05
0.00246758
-3.09443e-05
0.00247724
-2.96755e-05
0.00248647
-2.84293e-05
0.0024953
-2.72067e-05
0.00250372
-2.6009e-05
0.00251174
-2.48372e-05
0.00251938
-2.36921e-05
0.00252664
-2.25745e-05
0.00253353
-2.14853e-05
0.00254007
-2.04249e-05
0.00254625
-1.9394e-05
0.00255211
-1.83927e-05
0.00255763
-1.74216e-05
0.00256284
-1.64807e-05
0.00256775
-1.55702e-05
0.00257236
-1.469e-05
0.00257669
-1.38401e-05
0.00258075
-1.30203e-05
0.00258455
-1.22306e-05
0.00258809
-1.14708e-05
0.0025914
-1.07408e-05
0.00259448
-1.00406e-05
0.00259735
-9.37012e-06
0.0026
-8.72945e-06
0.00260246
-8.11873e-06
0.00260473
-7.53808e-06
0.00260682
-6.98765e-06
0.00260874
-6.46774e-06
0.0026105
-5.97873e-06
0.00261211
-5.52095e-06
0.00261357
-5.09465e-06
0.00261488
-4.69961e-06
0.00261604
-4.33442e-06
0.00261706
-3.99557e-06
0.00261792
-3.67676e-06
0.00261862
-3.36889e-06
0.00261915
-3.061e-06
0.00261952
-2.74192e-06
0.00261972
-2.4027e-06
0.00261977
-2.03875e-06
0.00261968
-1.64987e-06
0.00261949
-1.24009e-06
0.0026192
-8.15164e-07
0.00261885
-3.82056e-07
0.00261844
4.62114e-08
0.00261806
4.42856e-07
0.00261767
8.56513e-07
0.00261726
1.2624e-06
0.00261683
1.65181e-06
0.00261637
2.03082e-06
0.00261588
2.40179e-06
0.00261535
2.7552e-06
0.00261479
3.08822e-06
0.00261421
3.39752e-06
0.00261363
3.67705e-06
0.0026131
3.92432e-06
0.00261264
4.14811e-06
0.00261229
4.37245e-06
0.00261202
4.61707e-06
0.00261183
4.8811e-06
0.0026117
5.14377e-06
0.00261164
5.37976e-06
0.00261165
5.57166e-06
0.00261177
5.71364e-06
0.002612
5.80807e-06
0.00261235
5.86198e-06
0.00261282
5.88399e-06
0.00261337
5.8825e-06
0.00261398
5.86045e-06
0.00261457
5.81569e-06
0.00261507
5.75054e-06
0.00261547
5.67101e-06
0.00261576
5.57949e-06
0.00261594
5.48104e-06
0.00261606
5.38638e-06
0.00261613
5.30723e-06
0.0026162
5.25253e-06
0.00261629
5.22671e-06
0.00261642
5.23114e-06
0.00261659
5.26476e-06
0.0026168
5.32495e-06
0.00261706
5.40834e-06
0.00261735
5.5113e-06
0.00261766
5.63015e-06
0.00261797
5.76125e-06
0.00261828
5.90104e-06
0.00261856
6.04612e-06
0.0026188
6.19304e-06
0.00261897
6.33817e-06
0.00261904
6.47719e-06
0.002619
6.60575e-06
0.00261881
6.72058e-06
0.00261843
6.81982e-06
0.00261784
6.90394e-06
0.002617
6.97735e-06
0.00261589
7.04964e-06
0.00261449
7.13604e-06
0.0026128
7.25669e-06
0.00261081
7.43448e-06
0.00260855
7.69163e-06
0.00260601
8.04536e-06
0.00260323
8.50434e-06
0.00260022
9.06577e-06
0.002597
9.71653e-06
0.00259358
1.04344e-05
0.00258998
1.11916e-05
0.00258619
1.19598e-05
0.0025822
1.27148e-05
0.00257802
1.34402e-05
0.00257362
1.41286e-05
0.00256901
1.47812e-05
0.00256415
1.54057e-05
0.00255903
1.60135e-05
0.00255365
1.66164e-05
0.00254799
1.72246e-05
0.00254203
1.7846e-05
0.00253578
1.84858e-05
0.00252923
1.91472e-05
0.00252236
1.98323e-05
0.00251517
2.05427e-05
0.00250765
2.12796e-05
0.0024998
2.20441e-05
0.0024916
2.28372e-05
0.00248306
2.36594e-05
0.00247415
2.45109e-05
0.00246488
2.53913e-05
0.00245523
2.62999e-05
0.00244521
2.72357e-05
0.00243481
2.81976e-05
0.00242402
2.9184e-05
0.00241283
3.01936e-05
0.00240124
3.1225e-05
0.00238926
3.22759e-05
0.00237687
3.3345e-05
0.00236407
3.44304e-05
0.00235086
3.55303e-05
0.00233724
3.66425e-05
0.0023232
3.77651e-05
0.00230876
3.88958e-05
0.0022939
4.00325e-05
0.00227863
4.1173e-05
0.00226295
4.23145e-05
0.00224688
4.34553e-05
0.0022304
4.45933e-05
0.00221353
4.57259e-05
0.00219628
4.68506e-05
0.00217865
4.79648e-05
0.00216065
4.90664e-05
0.0021423
5.01529e-05
0.00212361
5.12217e-05
0.00210459
5.22707e-05
0.00208527
5.32986e-05
0.00206565
5.43023e-05
0.00204577
5.52802e-05
0.00202565
5.62314e-05
0.00200529
5.71567e-05
0.00198473
5.80578e-05
0.00196398
5.8939e-05
0.00194305
5.98053e-05
0.00192195
6.06641e-05
0.00190069
6.15209e-05
0.00187929
6.23793e-05
0.00185777
6.32425e-05
0.00183617
6.41126e-05
0.00181453
6.49899e-05
0.0017929
6.58786e-05
0.00177135
6.67833e-05
0.00174993
6.77098e-05
0.00172873
6.86639e-05
0.00170781
6.96508e-05
0.00168725
7.06754e-05
0.00166714
7.17414e-05
0.00164757
7.28501e-05
0.00162859
7.40008e-05
0.00161028
7.51899e-05
0.00159267
7.64119e-05
0.00157577
7.76548e-05
0.00155959
7.88949e-05
0.00154411
8.00932e-05
0.00152927
8.11956e-05
0.00151498
8.21366e-05
0.00150109
8.28459e-05
0.0014874
8.32529e-05
0.00147361
8.32585e-05
0.00145944
8.27334e-05
0.00144462
8.15796e-05
0.00142893
7.98122e-05
0.00141213
7.75643e-05
0.00139407
7.50909e-05
0.0013747
7.27283e-05
0.00135411
7.08173e-05
0.0013325
6.9549e-05
0.00131018
6.88259e-05
0.00128748
6.83722e-05
0.0012647
6.79562e-05
0.00124204
6.74602e-05
0.00121961
6.68419e-05
0.00119746
6.61007e-05
0.00117561
6.52774e-05
0.00115403
6.44456e-05
0.00113267
6.36851e-05
0.00111144
6.30501e-05
0.00109024
6.25524e-05
0.00106895
6.21611e-05
0.0010475
6.18213e-05
0.00102587
6.14744e-05
0.00100407
6.10717e-05
0.00098215
6.05925e-05
0.000960173
6.00445e-05
0.000938189
5.94527e-05
0.000916231
5.88496e-05
0.000894317
5.82673e-05
0.000872452
5.77282e-05
0.00085064
5.7247e-05
0.000828885
5.68302e-05
0.000807187
5.64827e-05
0.000785536
5.62085e-05
0.000763918
5.60079e-05
0.000742306
5.5886e-05
0.000720669
5.58473e-05
0.000698974
5.58985e-05
0.00067718
5.60495e-05
0.000655244
5.63069e-05
0.000633121
5.66751e-05
0.000610755
5.71608e-05
0.000588088
5.77678e-05
0.000565052
5.8498e-05
0.000541574
5.93491e-05
0.00051758
6.03132e-05
0.000492997
6.13765e-05
0.000467752
6.25247e-05
0.000441781
6.37393e-05
0.000415024
6.50028e-05
0.000387427
6.62943e-05
0.000358956
6.75901e-05
0.000329591
6.88642e-05
0.000299333
7.00903e-05
0.0002682
7.12437e-05
0.000236229
7.22945e-05
0.00020348
7.32115e-05
0.000170004
7.39923e-05
0.000135811
7.46906e-05
0.000101176
7.52575e-05
6.74156e-05
7.3681e-05
3.61895e-05
6.81772e-05
7.96457e-05
1.7732e-05
-7.86273e-05
4.53979e-05
-0.000114272
6.93656e-05
-0.000100123
9.04784e-05
-9.06831e-05
0.000111081
-8.91965e-05
0.000132034
-9.01615e-05
0.000153365
-9.10176e-05
0.000174925
-9.15338e-05
0.000196706
-9.20458e-05
0.000218711
-9.26204e-05
0.000240972
-9.32938e-05
0.000263515
-9.40412e-05
0.000286354
-9.48589e-05
0.000309488
-9.57172e-05
0.00033295
-9.66444e-05
0.00035675
-9.76306e-05
0.000380877
-9.86602e-05
0.000405371
-9.97431e-05
0.000430218
-0.000100848
0.000455428
-0.000101994
0.000480993
-0.000103149
0.000506942
-0.000104336
0.000533259
-0.000105521
0.000559932
-0.000106685
0.000586954
-0.000107847
0.000614327
-0.000108984
0.000642034
-0.000110083
0.000670051
-0.000111129
0.000698366
-0.000112131
0.000726958
-0.000113074
0.000755807
-0.000113948
0.000784886
-0.000114743
0.00081418
-0.000115456
0.000843661
-0.000116071
0.000873321
-0.000116602
0.000903136
-0.000117038
0.000933094
-0.000117382
0.000963177
-0.000117639
0.00099336
-0.000117814
0.00102362
-0.000117914
0.00105393
-0.000117941
0.00108427
-0.000117899
0.00111462
-0.000117788
0.00114494
-0.000117616
0.00117522
-0.000117378
0.00120545
-0.000117076
0.0012356
-0.000116714
0.00126566
-0.000116292
0.00129562
-0.000115829
0.00132546
-0.000115327
0.00135517
-0.000114796
0.00138474
-0.000114251
0.00141416
-0.000113697
0.00144341
-0.000113139
0.00147249
-0.000112575
0.00150139
-0.000112
0.0015301
-0.000111406
0.00155861
-0.000110786
0.00158691
-0.000110134
0.00161499
-0.000109444
0.00164284
-0.000108713
0.00167046
-0.000107935
0.00169784
-0.000107114
0.00172497
-0.000106245
0.00175185
-0.000105329
0.00177845
-0.000104364
0.00180479
-0.000103352
0.00183084
-0.000102293
0.0018566
-0.000101188
0.00188205
-0.000100037
0.0019072
-9.88417e-05
0.00193201
-9.76029e-05
0.0019565
-9.63218e-05
0.00198063
-9.50003e-05
0.00200441
-9.36399e-05
0.00202781
-9.22425e-05
0.00205083
-9.08094e-05
0.00207344
-8.93414e-05
0.00209564
-8.78383e-05
0.00211742
-8.62995e-05
0.00213876
-8.47237e-05
0.00215966
-8.31104e-05
0.00218013
-8.14585e-05
0.00220015
-7.97687e-05
0.00221973
-7.80425e-05
0.00223886
-7.62824e-05
0.00225755
-7.44921e-05
0.00227579
-7.26757e-05
0.00229358
-7.08372e-05
0.00231092
-6.89811e-05
0.0023278
-6.71116e-05
0.00234422
-6.52325e-05
0.00236018
-6.33476e-05
0.00237567
-6.14603e-05
0.00239069
-5.95739e-05
0.00240524
-5.76912e-05
0.00241932
-5.5815e-05
0.00243293
-5.3948e-05
0.00244607
-5.20925e-05
0.00245875
-5.02511e-05
0.00247096
-4.84259e-05
0.0024827
-4.66195e-05
0.00249399
-4.48337e-05
0.00250483
-4.30707e-05
0.00251522
-4.13327e-05
0.00252516
-3.96212e-05
0.00253467
-3.79383e-05
0.00254375
-3.62855e-05
0.00255241
-3.46643e-05
0.00256064
-3.30761e-05
0.00256848
-3.15222e-05
0.0025759
-3.00038e-05
0.00258294
-2.85219e-05
0.00258959
-2.70774e-05
0.00259587
-2.5671e-05
0.00260178
-2.43034e-05
0.00260733
-2.29749e-05
0.00261254
-2.16859e-05
0.00261741
-2.04366e-05
0.00262194
-1.92272e-05
0.00262616
-1.80579e-05
0.00263007
-1.69287e-05
0.00263368
-1.58395e-05
0.002637
-1.47901e-05
0.00264004
-1.37804e-05
0.00264281
-1.28103e-05
0.00264532
-1.18797e-05
0.00264758
-1.09883e-05
0.00264959
-1.01359e-05
0.00265138
-9.32223e-06
0.00265294
-8.54708e-06
0.00265428
-7.81008e-06
0.00265541
-7.11067e-06
0.00265634
-6.44799e-06
0.00265706
-5.8209e-06
0.00265759
-5.22768e-06
0.00265792
-4.66569e-06
0.00265806
-4.13109e-06
0.002658
-3.61902e-06
0.00265776
-3.12392e-06
0.00265733
-2.64012e-06
0.00265676
-2.16247e-06
0.00265604
-1.68709e-06
0.00265521
-1.21195e-06
0.0026543
-7.37069e-07
0.00265332
-2.64155e-07
0.0026523
2.10759e-07
0.00265124
6.79316e-07
0.00265014
1.14624e-06
0.002649
1.57883e-06
0.00264786
1.99313e-06
0.00264671
2.41946e-06
0.00264554
2.81734e-06
0.00264438
3.19211e-06
0.00264322
3.56088e-06
0.00264207
3.90539e-06
0.00264092
4.23938e-06
0.00263976
4.55529e-06
0.00263858
4.86124e-06
0.00263735
5.15534e-06
0.00263606
5.4397e-06
0.00263472
5.71296e-06
0.00263336
5.97367e-06
0.00263202
6.2181e-06
0.00263072
6.44182e-06
0.00262946
6.64082e-06
0.00262822
6.81194e-06
0.00262698
6.95247e-06
0.00262573
7.06074e-06
0.00262446
7.13576e-06
0.00262316
7.17688e-06
0.00262186
7.18416e-06
0.00262056
7.15887e-06
0.00261928
7.10343e-06
0.002618
7.02255e-06
0.00261675
6.92398e-06
0.00261551
6.82018e-06
0.00261427
6.72398e-06
0.00261301
6.64407e-06
0.00261173
6.5859e-06
0.00261043
6.55309e-06
0.00260911
6.54702e-06
0.00260777
6.56724e-06
0.00260643
6.6123e-06
0.00260507
6.68032e-06
0.00260371
6.7692e-06
0.00260234
6.8768e-06
0.00260097
7.00112e-06
0.00259959
7.14034e-06
0.0025982
7.29271e-06
0.00259679
7.45654e-06
0.00259536