/*--------------------------------*- C++ -*----------------------------------*\
| =========                 |                                                 |
| \\      /  F ield         | OpenFOAM: The Open Source CFD Toolbox           |
|  \\    /   O peration     | Version:  v2006                                 |
|   \\  /    A nd           | Website:  www.openfoam.com                      |
|    \\/     M anipulation  |                                                 |
\*---------------------------------------------------------------------------*/
FoamFile
{
    version     2.0;
    format      ascii;
    class       volScalarField;
    location    "0";
    object      alpha.water;
}
// * * * * * * * * * * * * * * * * * * * * * * * * * * * * * * * * * * * * * //

dimensions      [0 0 0 0 0 0 0];


internalField   nonuniform List<scalar> 
67500
(
0.996865
0.996865
0.958605
0.387722
0.17763
0.317424
0.26331
0.264552
0.683097
0.805494
0.805492
0.764578
0.736587
0.74661
0.747385
0.404405
0.723597
0.999923
0.999983
0.999983
0.998234
0.999627
1
1
1
1
1
1
1
1
1
1
1
1
1
1
1
1
1
1
1
1
1
1
1
1
1
1
1
1
1
1
1
1
1
1
1
1
1
1
1
1
1
1
1
1
1
1
1
1
1
1
1
1
1
1
1
1
1
1
1
1
1
1
1
1
1
1
1
1
1
1
1
1
1
1
1
1
1
1
1
1
1
1
1
1
1
1
1
1
1
1
1
1
1
1
1
1
1
1
1
1
1
1
1
1
1
1
1
1
1
1
1
1
1
1
1
1
1
1
1
1
1
1
1
1
1
1
1
1
1
1
1
1
1
1
1
1
1
1
1
1
1
1
1
1
1
1
1
1
1
1
1
1
1
1
1
1
1
1
1
1
1
1
1
1
1
1
1
1
1
1
1
1
1
1
1
1
1
1
1
1
1
1
1
1
1
1
1
1
1
1
1
1
1
1
1
1
1
1
1
1
1
1
1
1
1
1
1
1
1
1
1
1
1
1
1
1
1
1
1
1
1
1
1
1
1
1
1
1
1
1
1
1
1
1
1
1
1
1
1
1
1
1
1
1
1
1
1
1
1
1
1
1
1
1
1
1
1
1
1
1
1
1
1
1
1
1
1
1
1
1
1
1
1
1
1
1
1
1
1
1
1
1
1
1
1
1
1
1
1
1
1
1
1
1
1
1
1
1
1
1
1
1
1
1
1
1
1
1
1
1
1
1
1
1
1
1
1
1
1
1
1
1
1
1
1
1
1
1
1
1
1
1
1
1
1
1
1
1
1
1
1
1
1
1
1
1
1
1
1
1
1
1
1
1
1
1
1
1
1
1
1
1
1
1
1
1
1
1
1
1
1
1
1
1
1
1
1
1
1
1
1
1
1
1
1
1
1
1
1
1
1
1
1
1
1
1
1
1
1
1
1
1
1
1
1
1
1
1
1
1
1
1
1
1
1
1
1
1
1
1
1
1
1
1
1
1
1
1
0.996865
0.954078
0.312609
9.988e-38
-1.43523e-21
0.0162955
0.087717
0.468061
0.717849
0.805465
0.805531
0.435677
0.0897315
0.0698397
0.0692998
0.0692585
0.122118
0.139681
0.119533
0.11925
0.57541
0.993467
1
1
1
1
1
1
1
1
1
1
1
1
1
1
1
1
1
1
1
1
1
1
1
1
1
1
1
1
1
1
1
1
1
1
1
1
1
1
1
1
1
1
1
1
1
1
1
1
1
1
1
1
1
1
1
1
1
1
1
1
1
1
1
1
1
1
1
1
1
1
1
1
1
1
1
1
1
1
1
1
1
1
1
1
1
1
1
1
1
1
1
1
1
1
1
1
1
1
1
1
1
1
1
1
1
1
1
1
1
1
1
1
1
1
1
1
1
1
1
1
1
1
1
1
1
1
1
1
1
1
1
1
1
1
1
1
1
1
1
1
1
1
1
1
1
1
1
1
1
1
1
1
1
1
1
1
1
1
1
1
1
1
1
1
1
1
1
1
1
1
1
1
1
1
1
1
1
1
1
1
1
1
1
1
1
1
1
1
1
1
1
1
1
1
1
1
1
1
1
1
1
1
1
1
1
1
1
1
1
1
1
1
1
1
1
1
1
1
1
1
1
1
1
1
1
1
1
1
1
1
1
1
1
1
1
1
1
1
1
1
1
1
1
1
1
1
1
1
1
1
1
1
1
1
1
1
1
1
1
1
1
1
1
1
1
1
1
1
1
1
1
1
1
1
1
1
1
1
1
1
1
1
1
1
1
1
1
1
1
1
1
1
1
1
1
1
1
1
1
1
1
1
1
1
1
1
1
1
1
1
1
1
1
1
1
1
1
1
1
1
1
1
1
1
1
1
1
1
1
1
1
1
1
1
1
1
1
1
1
1
1
1
1
1
1
1
1
1
1
1
1
1
1
1
1
1
1
1
1
1
1
1
1
1
1
1
1
1
1
1
1
1
1
1
1
1
1
1
1
1
1
1
1
1
1
1
1
1
1
1
1
1
1
1
1
1
1
1
1
1
1
1
1
1
1
1
1
1
1
1
1
1
1
1
1
1
1
1
1
1
1
1
1
1
1
1
1
1
0.996865
0.847745
0.104264
0.0018803
0.256732
0.534902
0.534052
0.218853
0.0892007
0.392542
0.597282
0.618859
0.619049
0.370872
0.234749
0.163331
0.199026
0.354639
0.605054
0.854229
0.987853
1
1
1
1
1
1
1
1
1
0.996027
0.994314
0.9967
0.998791
0.997022
0.990989
0.981675
0.970604
0.959565
0.950071
0.943906
0.943004
0.945562
0.95091
0.957577
0.963973
0.968869
0.971767
0.9731
0.973998
0.975713
0.978851
0.98309
0.987596
0.991598
0.994677
0.996761
0.998025
0.998754
0.999245
0.999673
0.999973
1
1
1
1
1
1
1
1
1
1
1
1
1
1
1
1
1
1
1
1
1
1
1
1
1
1
1
1
1
1
1
1
1
1
1
1
1
1
1
1
1
1
1
1
1
1
1
1
1
1
1
1
1
1
1
1
1
1
1
1
1
1
1
1
1
1
1
1
1
1
1
1
1
1
1
1
1
1
1
1
1
1
1
1
1
1
1
1
1
1
1
1
1
1
1
1
1
1
1
1
1
1
1
1
1
1
1
1
1
1
1
1
1
1
1
1
1
1
1
1
1
1
1
1
1
1
1
1
1
1
1
1
1
1
1
1
1
1
1
1
1
1
1
1
1
1
1
1
1
1
1
1
1
1
1
1
1
1
1
1
1
1
1
1
1
1
1
1
1
1
1
1
1
1
1
1
1
1
1
1
1
1
1
1
1
1
1
1
1
1
1
1
1
1
1
1
1
1
1
1
1
1
1
1
1
1
1
1
1
1
1
1
1
1
1
1
1
1
1
1
1
1
1
1
1
1
1
1
1
1
1
1
1
1
1
1
1
1
1
1
1
1
1
1
1
1
1
1
1
1
1
1
1
1
1
1
1
1
1
1
1
1
1
1
1
1
1
1
1
1
1
1
1
1
1
1
1
1
1
1
1
1
1
1
1
1
1
1
1
1
1
1
1
1
1
1
1
1
1
1
1
1
1
1
1
1
1
1
1
1
1
1
1
1
1
1
1
1
1
1
1
1
1
1
1
1
1
1
1
1
1
1
1
1
1
1
1
1
1
1
1
1
1
1
1
1
1
1
1
1
1
1
1
1
1
1
1
1
1
1
1
1
1
1
1
1
1
1
1
1
1
1
1
1
1
1
1
1
1
1
1
1
1
1
1
1
1
1
0.940135
0.803023
0.106367
0.166216
0.248506
0.0952261
0.00158432
-3.66824e-20
-3.38446e-20
-1.0812e-19
-5.78968e-19
0.163922
0.251659
0.436904
0.628407
0.886654
0.971045
0.993033
0.998786
0.99998
0.999568
0.999921
0.998045
0.980096
0.938581
0.89251
0.859486
0.87663
0.847323
0.686606
0.551971
0.561228
0.636926
0.642476
0.544485
0.41883
0.322786
0.268057
0.241936
0.232377
0.234443
0.246735
0.267891
0.295718
0.325536
0.34986
0.362683
0.363936
0.361767
0.363767
0.375294
0.397489
0.42858
0.46557
0.504876
0.542382
0.574213
0.598362
0.615951
0.631596
0.651973
0.683024
0.72766
0.764381
0.800664
0.83686
0.870667
0.90137
0.928637
0.952002
0.970947
0.985062
0.994264
0.998957
1
1
1
1
1
1
1
1
1
1
1
1
1
1
1
1
1
1
1
1
1
1
1
1
1
1
1
1
1
1
1
1
1
1
1
1
1
1
1
1
1
1
1
1
1
1
1
1
1
1
1
1
1
1
1
1
1
1
1
1
1
1
1
1
1
1
1
1
1
1
1
1
1
1
1
1
1
1
1
1
1
1
1
1
1
1
1
1
1
1
1
1
1
1
1
1
1
1
1
1
1
1
1
1
1
1
1
1
1
1
1
1
1
1
1
1
1
1
1
1
1
1
1
1
1
1
1
1
1
1
1
1
1
1
1
1
1
1
1
1
1
1
1
1
1
1
1
1
1
1
1
1
1
1
1
1
1
1
1
1
1
1
1
1
1
1
1
1
1
1
1
1
1
1
1
1
1
1
1
1
1
1
1
1
1
1
1
1
1
1
1
1
1
1
1
1
1
1
1
1
1
1
1
1
1
1
1
1
1
1
1
1
1
1
1
1
1
1
1
1
1
1
1
1
1
1
1
1
1
1
1
1
1
1
1
1
1
1
1
1
1
1
1
1
1
1
1
1
1
1
1
1
1
1
1
1
1
1
1
1
1
1
1
1
1
1
1
1
1
1
1
1
1
1
1
1
1
1
1
1
1
1
1
1
1
1
1
1
1
1
1
1
1
1
1
1
1
1
1
1
1
1
1
1
1
1
1
1
1
1
1
1
1
1
1
1
1
1
1
1
1
1
1
1
1
1
1
1
1
1
1
1
1
1
1
1
1
1
1
1
1
1
1
1
1
1
1
1
1
1
1
1
1
1
1
1
1
1
1
1
1
1
1
1
1
1
1
1
1
1
1
1
1
1
1
1
0.791781
0.723399
0.112018
0.171128
0.0629573
3.53514e-19
3.10158e-20
1.32866e-09
-1.33489e-23
1.35587e-23
-3.18715e-22
2.89771e-27
-2.49124e-27
-1.04382e-20
2.88748e-19
0.0627487
0.181847
0.561415
0.977239
0.999993
0.899277
0.997865
0.374442
-7.21413e-36
-2.53448e-35
-2.19915e-21
0.000708124
0.00657753
0.00461074
-3.35842e-21
1.08853e-35
-1.52178e-36
4.22351e-22
0.000113744
0.000483542
1.39246e-36
1.66475e-36
1.02327e-36
-6.18337e-37
-4.82987e-38
2.05284e-36
-7.9366e-37
6.00639e-37
4.01973e-37
-3.71239e-38
-8.6766e-38
5.44127e-38
-1.2865e-38
-8.79028e-38
-2.50029e-38
-1.11888e-21
-3.37878e-21
-4.21244e-21
-4.11173e-21
-3.60615e-21
-3.50519e-21
-4.85496e-21
-7.30436e-21
-7.863e-21
-5.37716e-21
-4.36507e-21
-9.59825e-22
2.30616e-19
0.0216278
0.049856
0.0843846
0.125454
0.173801
0.230702
0.296774
0.371946
0.453855
0.538553
0.623563
0.707788
0.778099
0.819107
0.852563
0.881628
0.906796
0.929038
0.948744
0.965859
0.980122
0.991001
0.997777
0.999997
1
1
1
1
1
1
1
1
1
1
1
1
1
1
1
1
1
1
1
1
1
1
1
1
1
1
1
1
1
1
1
1
1
1
1
1
1
1
1
1
1
1
1
1
1
1
1
1
1
1
1
1
1
1
1
1
1
1
1
1
1
1
1
1
1
1
1
1
1
1
1
1
1
1
1
1
1
1
1
1
1
1
1
1
1
1
1
1
1
1
1
1
1
1
1
1
1
1
1
1
1
1
1
1
1
1
1
1
1
1
1
1
1
1
1
1
1
1
1
1
1
1
1
1
1
1
1
1
1
1
1
1
1
1
1
1
1
1
1
1
1
1
1
1
1
1
1
1
1
1
1
1
1
1
1
1
1
1
1
1
1
1
1
1
1
1
1
1
1
1
1
1
1
1
1
1
1
1
1
1
1
1
1
1
1
1
1
1
1
1
1
1
1
1
1
1
1
1
1
1
1
1
1
1
1
1
1
1
1
1
1
1
1
1
1
1
1
1
1
1
1
1
1
1
1
1
1
1
1
1
1
1
1
1
1
1
1
1
1
1
1
1
1
1
1
1
1
1
1
1
1
1
1
1
1
1
1
1
1
1
1
1
1
1
1
1
1
1
1
1
1
1
1
1
1
1
1
1
1
1
1
1
1
1
1
1
1
1
1
1
1
1
1
1
1
1
1
1
1
1
1
1
1
1
1
1
1
1
1
1
1
1
1
1
1
1
1
1
1
1
1
1
1
1
1
1
1
1
1
1
1
1
1
1
1
1
1
1
1
1
1
1
1
1
1
1
1
1
1
1
1
1
1
1
1
1
1
1
1
1
1
1
1
0.699359
0.57698
1.3711e-18
0.0624752
1.89585e-19
4.30398e-27
1.5346e-08
1.26144e-06
9.49886e-06
1.11583e-05
-2.46769e-23
1.6403e-08
6.00012e-08
-5.3817e-23
-2.09588e-23
-6.42604e-22
-3.38479e-25
0.000101204
0.408014
0.937337
0.520451
7.32198e-18
0.00668132
-5.57671e-34
3.07743e-17
6.47825e-17
5.24361e-17
5.44228e-17
5.24336e-17
8.87579e-17
8.28379e-17
5.12224e-17
3.04831e-17
8.41974e-18
8.29928e-18
9.36376e-18
7.06301e-18
4.99134e-18
3.41169e-18
2.27498e-18
1.49408e-18
9.74047e-19
6.33321e-19
4.13404e-19
2.74765e-19
1.88795e-19
1.31771e-19
9.27988e-20
6.48564e-20
4.37292e-20
2.81471e-20
1.69307e-20
8.9767e-21
3.33668e-21
-5.74024e-22
-3.10663e-21
-4.5446e-21
-5.38123e-21
-6.12739e-21
-7.01702e-21
-7.57195e-21
-7.14005e-21
-6.27488e-21
-5.73111e-21
-5.77083e-21
-5.67943e-21
-5.18051e-21
-4.92206e-21
-5.49566e-21
-6.92718e-21
-7.64961e-21
-5.63224e-21
-5.07373e-21
-3.06905e-21
2.45868e-20
0.0134758
0.0495151
0.0884141
0.129051
0.172381
0.21987
0.273295
0.334957
0.407779
0.493873
0.591428
0.695766
0.797532
0.860566
0.910276
0.950336
0.97839
0.99448
0.999903
1
1
1
1
1
1
1
1
1
1
1
1
1
1
1
1
1
1
1
1
1
1
1
1
1
1
1
1
1
1
1
1
1
1
1
1
1
1
1
1
1
1
1
1
1
1
1
1
1
1
1
1
1
1
1
1
1
1
1
1
1
1
1
1
1
1
1
1
1
1
1
1
1
1
1
1
1
1
1
1
1
1
1
1
1
1
1
1
1
1
1
1
1
1
1
1
1
1
1
1
1
1
1
1
1
1
1
1
1
1
1
1
1
1
1
1
1
1
1
1
1
1
1
1
1
1
1
1
1
1
1
1
1
1
1
1
1
1
1
1
1
1
1
1
1
1
1
1
1
1
1
1
1
1
1
1
1
1
1
1
1
1
1
1
1
1
1
1
1
1
1
1
1
1
1
1
1
1
1
1
1
1
1
1
1
1
1
1
1
1
1
1
1
1
1
1
1
1
1
1
1
1
1
1
1
1
1
1
1
1
1
1
1
1
1
1
1
1
1
1
1
1
1
1
1
1
1
1
1
1
1
1
1
1
1
1
1
1
1
1
1
1
1
1
1
1
1
1
1
1
1
1
1
1
1
1
1
1
1
1
1
1
1
1
1
1
1
1
1
1
1
1
1
1
1
1
1
1
1
1
1
1
1
1
1
1
1
1
1
1
1
1
1
1
1
1
1
1
1
1
1
1
1
1
1
1
1
1
1
1
1
1
1
1
1
1
1
1
1
1
1
1
1
1
1
1
1
1
1
1
1
1
1
1
1
1
1
1
1
1
1
1
1
1
1
1
1
1
1
1
1
1
1
1
1
1
0.669715
0.337166
5.42843e-21
0.00254561
1.09625e-24
5.15573e-08
3.77367e-08
1.01119e-05
4.28711e-05
4.23555e-05
0
4.80648e-23
3.5909e-06
1.44374e-05
1.19683e-05
-1.07614e-23
3.39025e-19
0.0758802
0.356624
0.304772
9.25322e-19
7.90823e-18
8.34525e-18
9.30115e-17
1.82453e-16
2.67677e-16
2.93518e-16
3.28567e-16
3.47655e-16
3.19158e-16
2.61622e-16
1.89621e-16
1.33879e-16
9.16062e-17
6.34769e-17
4.68744e-17
3.33444e-17
2.32247e-17
1.59787e-17
1.09325e-17
7.47662e-18
5.12747e-18
3.53166e-18
2.44464e-18
1.7011e-18
1.1893e-18
8.33298e-19
5.83353e-19
4.066e-19
2.81109e-19
1.92164e-19
1.29539e-19
8.58361e-20
5.56087e-20
3.48695e-20
2.07156e-20
1.10893e-20
4.52422e-21
1.41768e-23
-3.10442e-21
-5.22923e-21
-6.56694e-21
-7.23108e-21
-7.38348e-21
-7.4102e-21
-7.84159e-21
-8.87884e-21
-1.03404e-20
-1.25328e-20
-1.56367e-20
-1.77719e-20
-1.70634e-20
-1.64873e-20
-2.00766e-20
-2.74436e-20
-3.42155e-20
-3.55851e-20
-3.1368e-20
-2.65439e-20
-2.52666e-20
-2.53067e-20
-2.27202e-20
-1.08411e-20
-4.46257e-21
-6.37258e-21
-1.60827e-21
-4.40678e-38
0.0102348
0.0667102
0.15018
0.25982
0.391038
0.533223
0.676487
0.818126
0.899413
0.949781
0.981907
0.997492
1
1
1
1
1
1
1
1
1
1
1
1
1
1
1
1
1
1
1
1
1
1
1
1
1
1
1
1
1
1
1
1
1
1
1
1
1
1
1
1
1
1
1
1
1
1
1
1
1
1
1
1
1
1
1
1
1
1
1
1
1
1
1
1
1
1
1
1
1
1
1
1
1
1
1
1
1
1
1
1
1
1
1
1
1
1
1
1
1
1
1
1
1
1
1
1
1
1
1
1
1
1
1
1
1
1
1
1
1
1
1
1
1
1
1
1
1
1
1
1
1
1
1
1
1
1
1
1
1
1
1
1
1
1
1
1
1
1
1
1
1
1
1
1
1
1
1
1
1
1
1
1
1
1
1
1
1
1
1
1
1
1
1
1
1
1
1
1
1
1
1
1
1
1
1
1
1
1
1
1
1
1
1
1
1
1
1
1
1
1
1
1
1
1
1
1
1
1
1
1
1
1
1
1
1
1
1
1
1
1
1
1
1
1
1
1
1
1
1
1
1
1
1
1
1
1
1
1
1
1
1
1
1
1
1
1
1
1
1
1
1
1
1
1
1
1
1
1
1
1
1
1
1
1
1
1
1
1
1
1
1
1
1
1
1
1
1
1
1
1
1
1
1
1
1
1
1
1
1
1
1
1
1
1
1
1
1
1
1
1
1
1
1
1
1
1
1
1
1
1
1
1
1
1
1
1
1
1
1
1
1
1
1
1
1
1
1
1
1
1
1
1
1
1
1
1
1
1
1
1
1
1
1
1
1
1
1
1
1
1
1
1
1
1
1
1
1
1
1
1
1
0.603072
0.126245
0
-3.29445e-21
6.89513e-08
9.92207e-08
6.57757e-07
2.8164e-05
4.28525e-05
4.28711e-05
1.091e-05
1.50632e-22
1.70742e-05
0.000273868
0.000324251
9.00844e-21
1.49562e-05
0.00275749
0.0118913
0.00537518
2.52835e-34
1.53901e-17
2.8208e-17
2.89318e-17
3.60499e-15
5.66353e-14
1.76298e-14
3.31472e-16
5.86057e-16
4.58522e-16
4.33386e-16
3.9651e-16
2.899e-16
2.04854e-16
1.42982e-16
9.78627e-17
6.56299e-17
4.3369e-17
2.85632e-17
1.89486e-17
1.27382e-17
8.69067e-18
6.00933e-18
4.20131e-18
2.96236e-18
2.10108e-18
1.49418e-18
1.06198e-18
7.52108e-19
5.29309e-19
3.69347e-19
2.55111e-19
1.74181e-19
1.17401e-19
7.7993e-20
5.09221e-20
3.24897e-20
2.00181e-20
1.16103e-20
5.94378e-21
2.10983e-21
-5.0592e-22
-2.31072e-21
-3.56871e-21
-4.45516e-21
-5.09568e-21
-5.58671e-21
-6.01628e-21
-6.47753e-21
-7.05319e-21
-7.79853e-21
-8.79712e-21
-1.02934e-20
-1.28293e-20
-1.75054e-20
-2.58396e-20
-3.73694e-20
-4.81183e-20
-5.39924e-20
-5.50846e-20
-5.24898e-20
-4.60109e-20
-3.61421e-20
-2.2415e-20
-7.42033e-21
4.69548e-21
1.33696e-20
1.7163e-36
-5.61099e-36
4.52577e-36
1.8951e-41
0
2.88776e-35
6.74794e-35
0.000986263
0.0863344
0.23033
0.404549
0.581334
0.746503
0.88419
0.95386
0.987833
0.999543
1
1
1
1
1
1
1
1
1
1
1
1
1
1
1
1
1
1
1
1
1
1
1
1
1
1
1
1
1
1
1
1
1
1
1
1
1
1
1
1
1
1
1
1
1
1
1
1
1
1
1
1
1
1
1
1
1
1
1
1
1
1
1
1
1
1
1
1
1
1
1
1
1
1
1
1
1
1
1
1
1
1
1
1
1
1
1
1
1
1
1
1
1
1
1
1
1
1
1
1
1
1
1
1
1
1
1
1
1
1
1
1
1
1
1
1
1
1
1
1
1
1
1
1
1
1
1
1
1
1
1
1
1
1
1
1
1
1
1
1
1
1
1
1
1
1
1
1
1
1
1
1
1
1
1
1
1
1
1
1
1
1
1
1
1
1
1
1
1
1
1
1
1
1
1
1
1
1
1
1
1
1
1
1
1
1
1
1
1
1
1
1
1
1
1
1
1
1
1
1
1
1
1
1
1
1
1
1
1
1
1
1
1
1
1
1
1
1
1
1
1
1
1
1
1
1
1
1
1
1
1
1
1
1
1
1
1
1
1
1
1
1
1
1
1
1
1
1
1
1
1
1
1
1
1
1
1
1
1
1
1
1
1
1
1
1
1
1
1
1
1
1
1
1
1
1
1
1
1
1
1
1
1
1
1
1
1
1
1
1
1
1
1
1
1
1
1
1
1
1
1
1
1
1
1
1
1
1
1
1
1
1
1
1
1
1
1
1
1
1
1
1
1
1
1
1
1
1
1
1
1
1
1
1
1
1
1
1
1
1
1
1
1
1
1
1
0.600467
0.0191923
-4.14495e-27
2.16441e-09
5.8276e-08
4.02347e-08
-1.43376e-23
1.56432e-06
1.41863e-05
3.04112e-05
2.99496e-06
2.18429e-17
1.45913e-05
0.00033508
0.000614333
0.000640562
0.000308939
8.13575e-21
-1.68412e-22
-3.10385e-22
-8.83405e-22
-1.8505e-35
-1.90481e-34
2.91089e-14
1.14009e-12
9.81287e-13
1.32393e-13
8.1654e-16
6.52939e-16
5.35217e-16
5.88871e-16
8.46297e-16
6.35766e-16
4.46228e-16
3.11891e-16
2.11857e-16
1.39667e-16
9.05638e-17
5.87892e-17
3.87652e-17
2.61508e-17
1.80421e-17
1.26696e-17
9.00127e-18
6.43611e-18
4.61241e-18
3.30181e-18
2.35434e-18
1.66814e-18
1.17197e-18
8.14934e-19
5.60011e-19
3.79869e-19
2.54127e-19
1.67559e-19
1.0882e-19
6.95341e-20
4.36176e-20
2.6736e-20
1.58631e-20
8.92639e-21
4.53411e-21
1.76689e-21
2.16131e-23
-1.0974e-21
-1.84502e-21
-2.37826e-21
-2.79117e-21
-3.14205e-21
-3.47142e-21
-3.81316e-21
-4.20013e-21
-4.66819e-21
-5.26468e-21
-6.07061e-21
-7.26293e-21
-9.20416e-21
-1.24729e-20
-1.76914e-20
-2.51088e-20
-3.4203e-20
-4.33505e-20
-4.98479e-20
-4.9545e-20
-3.47148e-20
1.12877e-20
1.27407e-19
3.93408e-19
1.00774e-18
1.99455e-18
3.29038e-18
5.11517e-18
7.0252e-18
6.74263e-18
7.44804e-35
-2.7577e-17
-6.57607e-17
-4.38244e-17
-1.37618e-17
-2.84552e-19
0.029549
0.20554
0.439197
0.644799
0.816596
0.935844
0.985979
0.999726
1
1
1
1
1
1
1
1
1
1
1
1
1
1
1
1
1
1
1
1
1
1
1
1
1
1
1
1
1
1
1
1
1
1
1
1
1
1
1
1
1
1
1
1
1
1
1
1
1
1
1
1
1
1
1
1
1
1
1
1
1
1
1
1
1
1
1
1
1
1
1
1
1
1
1
1
1
1
1
1
1
1
1
1
1
1
1
1
1
1
1
1
1
1
1
1
1
1
1
1
1
1
1
1
1
1
1
1
1
1
1
1
1
1
1
1
1
1
1
1
1
1
1
1
1
1
1
1
1
1
1
1
1
1
1
1
1
1
1
1
1
1
1
1
1
1
1
1
1
1
1
1
1
1
1
1
1
1
1
1
1
1
1
1
1
1
1
1
1
1
1
1
1
1
1
1
1
1
1
1
1
1
1
1
1
1
1
1
1
1
1
1
1
1
1
1
1
1
1
1
1
1
1
1
1
1
1
1
1
1
1
1
1
1
1
1
1
1
1
1
1
1
1
1
1
1
1
1
1
1
1
1
1
1
1
1
1
1
1
1
1
1
1
1
1
1
1
1
1
1
1
1
1
1
1
1
1
1
1
1
1
1
1
1
1
1
1
1
1
1
1
1
1
1
1
1
1
1
1
1
1
1
1
1
1
1
1
1
1
1
1
1
1
1
1
1
1
1
1
1
1
1
1
1
1
1
1
1
1
1
1
1
1
1
1
1
1
1
1
1
1
1
1
1
1
1
1
1
1
1
1
1
1
1
1
1
1
1
1
1
1
1
0.647419
1.23219e-19
0.00171471
-2.54656e-27
2.52795e-09
2.55573e-10
3.84526e-25
-1.80469e-24
2.18884e-23
9.29688e-29
1.55444e-20
6.88032e-15
7.38746e-15
2.15968e-15
8.39879e-06
0.000997346
0.00232385
0.00233862
0.000641221
2.25894e-21
4.93507e-14
4.76859e-13
1.99357e-12
6.98609e-12
8.42422e-12
3.2341e-12
3.42658e-13
1.51381e-15
1.21948e-15
2.64915e-15
4.83212e-15
2.99521e-15
1.47647e-15
9.30647e-16
6.35563e-16
4.24169e-16
2.74413e-16
1.75252e-16
1.12993e-16
7.48105e-17
5.11841e-17
3.60421e-17
2.58785e-17
1.87708e-17
1.36614e-17
9.93326e-18
7.19511e-18
5.18068e-18
3.70085e-18
2.61809e-18
1.83096e-18
1.26391e-18
8.60134e-19
5.76571e-19
3.805e-19
2.47155e-19
1.57992e-19
9.93618e-20
6.14322e-20
3.72775e-20
2.21277e-20
1.27666e-20
7.06497e-21
3.63348e-21
1.57796e-21
3.35342e-22
-4.37914e-22
-9.45543e-22
-1.30647e-21
-1.59023e-21
-1.83886e-21
-2.08013e-21
-2.33574e-21
-2.62629e-21
-2.97342e-21
-3.4002e-21
-3.93492e-21
-4.62795e-21
-5.58329e-21
-6.99171e-21
-9.14861e-21
-1.24042e-20
-1.69172e-20
-2.17056e-20
-2.10199e-20
7.24487e-21
1.3102e-19
5.22424e-19
1.5361e-18
3.68283e-18
7.59568e-18
1.46242e-17
2.72482e-17
4.61194e-17
6.5261e-17
5.34425e-17
-9.45835e-18
-4.14995e-17
-1.67025e-17
7.0851e-18
7.19146e-34
-5.16263e-15
-1.94966e-19
-4.99004e-28
-1.02594e-27
0.0991441
0.383677
0.639664
0.822864
0.946933
0.993785
1
1
1
1
1
1
1
1
1
1
1
1
1
1
1
1
1
1
1
1
1
1
1
1
1
1
1
1
1
1
1
1
1
1
1
1
1
1
1
1
1
1
1
1
1
1
1
1
1
1
1
1
1
1
1
1
1
1
1
1
1
1
1
1
1
1
1
1
1
1
1
1
1
1
1
1
1
1
1
1
1
1
1
1
1
1
1
1
1
1
1
1
1
1
1
1
1
1
1
1
1
1
1
1
1
1
1
1
1
1
1
1
1
1
1
1
1
1
1
1
1
1
1
1
1
1
1
1
1
1
1
1
1
1
1
1
1
1
1
1
1
1
1
1
1
1
1
1
1
1
1
1
1
1
1
1
1
1
1
1
1
1
1
1
1
1
1
1
1
1
1
1
1
1
1
1
1
1
1
1
1
1
1
1
1
1
1
1
1
1
1
1
1
1
1
1
1
1
1
1
1
1
1
1
1
1
1
1
1
1
1
1
1
1
1
1
1
1
1
1
1
1
1
1
1
1
1
1
1
1
1
1
1
1
1
1
1
1
1
1
1
1
1
1
1
1
1
1
1
1
1
1
1
1
1
1
1
1
1
1
1
1
1
1
1
1
1
1
1
1
1
1
1
1
1
1
1
1
1
1
1
1
1
1
1
1
1
1
1
1
1
1
1
1
1
1
1
1
1
1
1
1
1
1
1
1
1
1
1
1
1
1
1
1
1
1
1
1
1
1
1
1
1
1
1
1
1
1
1
1
1
1
1
1
1
1
1
1
1
0.647964
1.86345e-21
0.00312732
-1.30178e-25
1.14842e-26
-6.51584e-28
-2.45221e-30
4.31675e-11
7.66315e-10
1.24228e-09
6.84464e-10
6.37998e-18
1.927e-11
2.19892e-12
1.31902e-20
-1.86332e-21
0.000833282
0.00346883
0.00348811
0.00252745
1.67673e-14
2.20847e-14
2.67914e-11
2.88975e-11
1.62173e-11
3.56095e-12
5.03187e-13
5.02664e-13
3.1652e-13
1.65618e-13
6.16289e-14
1.47496e-14
2.95227e-15
1.67847e-15
1.16671e-15
7.62813e-16
4.77639e-16
2.97202e-16
1.89806e-16
1.26918e-16
8.90067e-17
6.46159e-17
4.77428e-17
3.54488e-17
2.62691e-17
1.93731e-17
1.42019e-17
1.03392e-17
7.46584e-18
5.33803e-18
3.77133e-18
2.62717e-18
1.80116e-18
1.21368e-18
8.03166e-19
5.2186e-19
3.32972e-19
2.08699e-19
1.28551e-19
7.78439e-20
4.6351e-20
2.71358e-20
1.56077e-20
8.79523e-21
4.81503e-21
2.5015e-21
1.15146e-21
3.50364e-22
-1.42192e-22
-4.64366e-22
-6.95546e-22
-8.81958e-22
-1.05163e-21
-1.22307e-21
-1.41018e-21
-1.62495e-21
-1.88027e-21
-2.1952e-21
-2.6039e-21
-3.16659e-21
-3.97981e-21
-5.17188e-21
-6.79482e-21
-8.15799e-21
-4.87867e-21
2.10707e-20
1.28193e-19
4.75728e-19
1.44025e-18
3.73312e-18
8.52584e-18
1.81112e-17
3.75848e-17
7.54341e-17
1.38507e-16
2.07465e-16
2.38643e-16
2.21875e-16
1.80783e-16
1.30047e-16
7.52628e-17
-1.73808e-35
1.15778e-12
2.71718e-10
3.41851e-10
-1.32119e-25
-2.70984e-27
-6.2757e-21
-9.55887e-22
0.109167
0.453459
0.722575
0.896969
0.981809
0.999966
1
1
1
1
1
1
1
1
1
1
1
1
1
1
1
1
1
1
1
1
1
1
1
1
1
1
1
1
1
1
1
1
1
1
1
1
1
1
1
1
1
1
1
1
1
1
1
1
1
1
1
1
1
1
1
1
1
1
1
1
1
1
1
1
1
1
1
1
1
1
1
1
1
1
1
1
1
1
1
1
1
1
1
1
1
1
1
1
1
1
1
1
1
1
1
1
1
1
1
1
1
1
1
1
1
1
1
1
1
1
1
1
1
1
1
1
1
1
1
1
1
1
1
1
1
1
1
1
1
1
1
1
1
1
1
1
1
1
1
1
1
1
1
1
1
1
1
1
1
1
1
1
1
1
1
1
1
1
1
1
1
1
1
1
1
1
1
1
1
1
1
1
1
1
1
1
1
1
1
1
1
1
1
1
1
1
1
1
1
1
1
1
1
1
1
1
1
1
1
1
1
1
1
1
1
1
1
1
1
1
1
1
1
1
1
1
1
1
1
1
1
1
1
1
1
1
1
1
1
1
1
1
1
1
1
1
1
1
1
1
1
1
1
1
1
1
1
1
1
1
1
1
1
1
1
1
1
1
1
1
1
1
1
1
1
1
1
1
1
1
1
1
1
1
1
1
1
1
1
1
1
1
1
1
1
1
1
1
1
1
1
1
1
1
1
1
1
1
1
1
1
1
1
1
1
1
1
1
1
1
1
1
1
1
1
1
1
1
1
1
1
1
1
1
1
1
1
1
1
1
1
1
1
1
1
0.516891
8.89113e-20
0.00262623
2.13025e-05
1.67712e-05
6.72991e-05
1.56449e-05
4.31747e-11
8.99017e-11
5.12102e-11
5.60692e-11
2.02331e-28
1.02385e-10
3.05934e-11
2.67729e-11
7.36204e-11
4.82014e-26
1.60337e-20
0.00181568
0.0045515
0.00461195
6.80318e-06
5.24142e-12
5.08988e-12
7.91363e-13
1.69961e-12
2.68571e-12
2.69706e-12
1.74256e-12
8.23729e-13
2.55529e-13
4.26312e-14
3.30683e-15
2.3948e-15
1.88396e-15
1.2431e-15
7.56218e-16
4.59013e-16
2.92353e-16
1.99812e-16
1.45258e-16
1.09311e-16
8.30586e-17
6.28779e-17
4.72416e-17
3.52492e-17
2.6155e-17
1.93057e-17
1.41627e-17
1.03047e-17
7.412e-18
5.2512e-18
3.65278e-18
2.48924e-18
1.65985e-18
1.08263e-18
6.90916e-19
4.31731e-19
2.64403e-19
1.58884e-19
9.38021e-20
5.44856e-20
3.11859e-20
1.76132e-20
9.81954e-21
5.39187e-21
2.89185e-21
1.48097e-21
6.78801e-22
2.13417e-22
-6.79938e-23
-2.51126e-22
-3.84293e-22
-4.95244e-22
-6.00598e-22
-7.11235e-22
-8.35784e-22
-9.83766e-22
-1.16921e-21
-1.41484e-21
-1.75636e-21
-2.24043e-21
-2.85664e-21
-3.04928e-21
6.55443e-22
2.33104e-20
1.16476e-19
4.26932e-19
1.31631e-18
3.5135e-18
8.27724e-18
1.78831e-17
3.68826e-17
7.32778e-17
1.36267e-16
2.27707e-16
3.31976e-16
4.17586e-16
4.54655e-16
4.27735e-16
3.30381e-16
1.77711e-16
5.38141e-17
5.30249e-17
8.10984e-09
2.35631e-08
1.07232e-08
1.1333e-25
-4.36452e-26
-6.34133e-27
2.17671e-31
6.81848e-32
1.84493e-18
0.285561
0.65635
0.867132
0.975916
0.999937
1
1
1
1
1
1
1
1
1
1
1
1
1
1
1
1
1
1
1
1
1
1
1
1
1
1
1
1
1
1
1
1
1
1
1
1
1
1
1
1
1
1
1
1
1
1
1
1
1
1
1
1
1
1
1
1
1
1
1
1
1
1
1
1
1
1
1
1
1
1
1
1
1
1
1
1
1
1
1
1
1
1
1
1
1
1
1
1
1
1
1
1
1
1
1
1
1
1
1
1
1
1
1
1
1
1
1
1
1
1
1
1
1
1
1
1
1
1
1
1
1
1
1
1
1
1
1
1
1
1
1
1
1
1
1
1
1
1
1
1
1
1
1
1
1
1
1
1
1
1
1
1
1
1
1
1
1
1
1
1
1
1
1
1
1
1
1
1
1
1
1
1
1
1
1
1
1
1
1
1
1
1
1
1
1
1
1
1
1
1
1
1
1
1
1
1
1
1
1
1
1
1
1
1
1
1
1
1
1
1
1
1
1
1
1
1
1
1
1
1
1
1
1
1
1
1
1
1
1
1
1
1
1
1
1
1
1
1
1
1
1
1
1
1
1
1
1
1
1
1
1
1
1
1
1
1
1
1
1
1
1
1
1
1
1
1
1
1
1
1
1
1
1
1
1
1
1
1
1
1
1
1
1
1
1
1
1
1
1
1
1
1
1
1
1
1
1
1
1
1
1
1
1
1
1
1
1
1
1
1
1
1
1
1
1
1
1
1
1
1
1
1
1
1
1
1
1
1
1
1
1
1
0.0164155
8.47277e-20
8.9446e-05
1.43253e-05
7.28322e-05
7.28252e-05
5.27389e-05
1.79989e-06
-1.27073e-23
1.1349e-07
2.04568e-07
1.85699e-07
1.98948e-08
2.52442e-11
2.60939e-11
1.85395e-10
2.70014e-09
3.49077e-09
2.14958e-09
0.00151746
0.00573835
0.00478462
0.000293518
4.51188e-14
4.51188e-14
1.69637e-12
4.53312e-12
4.8818e-12
4.04743e-12
2.08041e-12
6.37008e-13
7.66773e-14
3.71208e-15
3.14599e-15
2.70403e-15
1.8082e-15
1.07544e-15
6.43469e-16
4.15455e-16
2.94841e-16
2.2371e-16
1.73924e-16
1.3472e-16
1.03054e-16
7.80343e-17
5.88277e-17
4.43195e-17
3.33893e-17
2.51238e-17
1.88273e-17
1.39667e-17
1.01856e-17
7.26291e-18
5.04727e-18
3.41366e-18
2.24674e-18
1.44e-18
8.99854e-19
5.49084e-19
3.27726e-19
1.91695e-19
1.10114e-19
6.22564e-20
3.47243e-20
1.91474e-20
1.04526e-20
5.64868e-21
3.01274e-21
1.57111e-21
7.81441e-22
3.44801e-22
9.75401e-23
-4.96156e-23
-1.45411e-22
-2.1669e-22
-2.78613e-22
-3.40373e-22
-4.08683e-22
-4.90343e-22
-5.9464e-22
-7.35799e-22
-9.33435e-22
-1.18552e-21
-1.22909e-21
8.35535e-22
1.43664e-20
7.51932e-20
2.95071e-19
9.68229e-19
2.74319e-18
6.84517e-18
1.53906e-17
3.18273e-17
6.11197e-17
1.08585e-16
1.76404e-16
2.59117e-16
3.42224e-16
4.06049e-16
4.32309e-16
4.11422e-16
3.36449e-16
2.12784e-16
8.10568e-17
7.22661e-17
2.96948e-08
2.72827e-07
2.93719e-07
5.4348e-08
7.91347e-25
2.82388e-14
1.1486e-14
1.06978e-29
5.87571e-30
1.23343e-30
4.26038e-29
0.198704
0.639496
0.880188
0.983856
1
1
1
1
1
1
1
1
1
1
1
1
1
1
1
1
1
1
1
1
1
1
1
1
1
1
1
1
1
1
1
1
1
1
1
1
1
1
1
1
1
1
1
1
1
1
1
1
1
1
1
1
1
1
1
1
1
1
1
1
1
1
1
1
1
1
1
1
1
1
1
1
1
1
1
1
1
1
1
1
1
1
1
1
1
1
1
1
1
1
1
1
1
1
1
1
1
1
1
1
1
1
1
1
1
1
1
1
1
1
1
1
1
1
1
1
1
1
1
1
1
1
1
1
1
1
1
1
1
1
1
1
1
1
1
1
1
1
1
1
1
1
1
1
1
1
1
1
1
1
1
1
1
1
1
1
1
1
1
1
1
1
1
1
1
1
1
1
1
1
1
1
1
1
1
1
1
1
1
1
1
1
1
1
1
1
1
1
1
1
1
1
1
1
1
1
1
1
1
1
1
1
1
1
1
1
1
1
1
1
1
1
1
1
1
1
1
1
1
1
1
1
1
1
1
1
1
1
1
1
1
1
1
1
1
1
1
1
1
1
1
1
1
1
1
1
1
1
1
1
1
1
1
1
1
1
1
1
1
1
1
1
1
1
1
1
1
1
1
1
1
1
1
1
1
1
1
1
1
1
1
1
1
1
1
1
1
1
1
1
1
1
1
1
1
1
1
1
1
1
1
1
1
1
1
1
1
1
1
1
1
1
1
1
1
1
1
1
1
1
1
1
1
1
1
1
1
1
1
1
0.356637
0.0267103
1.54449e-19
6.56982e-06
1.88562e-05
2.99839e-05
1.2893e-05
9.23374e-07
-4.09748e-24
4.08315e-09
3.45372e-10
1.77886e-07
2.61139e-07
1.81813e-07
6.37822e-09
1.83881e-10
5.85199e-09
9.5634e-09
2.32266e-09
2.14958e-09
0.002966
0.00650936
0.0048203
0.000525585
4.75792e-07
4.51188e-14
2.51572e-12
4.63565e-12
4.71127e-12
3.167e-12
1.22847e-12
1.73784e-13
4.88714e-15
4.06889e-15
3.43628e-15
2.30117e-15
1.35669e-15
8.17849e-16
5.47409e-16
4.07123e-16
3.19715e-16
2.52667e-16
1.96431e-16
1.50231e-16
1.14203e-16
8.73423e-17
6.75573e-17
5.26682e-17
4.1311e-17
3.25364e-17
2.53947e-17
1.93695e-17
1.43187e-17
1.02259e-17
7.05301e-18
4.70318e-18
3.03733e-18
1.90342e-18
1.15992e-18
6.8886e-19
3.99609e-19
2.26986e-19
1.26573e-19
6.94748e-20
3.76365e-20
2.01711e-20
1.07152e-20
5.64718e-21
2.95061e-21
1.52242e-21
7.67141e-22
3.66414e-22
1.51179e-22
3.2012e-23
-3.83477e-23
-8.49869e-23
-1.21455e-22
-1.55485e-22
-1.922e-22
-2.36115e-22
-2.92625e-22
-3.69037e-22
-4.69796e-22
-5.2558e-22
1.53758e-22
5.73732e-21
3.48423e-20
1.53062e-19
5.49828e-19
1.68547e-18
4.51338e-18
1.07176e-17
2.28092e-17
4.38661e-17
7.67435e-17
1.22753e-16
1.80165e-16
2.43245e-16
3.0246e-16
3.46169e-16
3.63227e-16
3.45481e-16
2.87989e-16
1.9211e-16
7.85291e-17
6.70126e-17
1.02134e-07
3.25961e-06
2.66004e-06
5.79926e-07
8.54058e-24
4.40164e-25
1.30792e-11
9.34962e-12
5.56109e-12
5.3099e-11
-1.25136e-26
-8.32628e-27
-3.97026e-30
0.224053
0.696342
0.927245
0.996318
1
1
1
1
1
1
1
1
1
1
1
1
1
1
1
1
1
1
1
1
1
1
1
1
1
1
1
1
1
1
1
1
1
1
1
1
1
1
1
1
1
1
1
1
1
1
1
1
1
1
1
1
1
1
1
1
1
1
1
1
1
1
1
1
1
1
1
1
1
1
1
1
1
1
1
1
1
1
1
1
1
1
1
1
1
1
1
1
1
1
1
1
1
1
1
1
1
1
1
1
1
1
1
1
1
1
1
1
1
1
1
1
1
1
1
1
1
1
1
1
1
1
1
1
1
1
1
1
1
1
1
1
1
1
1
1
1
1
1
1
1
1
1
1
1
1
1
1
1
1
1
1
1
1
1
1
1
1
1
1
1
1
1
1
1
1
1
1
1
1
1
1
1
1
1
1
1
1
1
1
1
1
1
1
1
1
1
1
1
1
1
1
1
1
1
1
1
1
1
1
1
1
1
1
1
1
1
1
1
1
1
1
1
1
1
1
1
1
1
1
1
1
1
1
1
1
1
1
1
1
1
1
1
1
1
1
1
1
1
1
1
1
1
1
1
1
1
1
1
1
1
1
1
1
1
1
1
1
1
1
1
1
1
1
1
1
1
1
1
1
1
1
1
1
1
1
1
1
1
1
1
1
1
1
1
1
1
1
1
1
1
1
1
1
1
1
1
1
1
1
1
1
1
1
1
1
1
1
1
1
1
1
1
1
1
1
1
1
1
1
1
1
1
1
1
1
1
0.745787
0.0163353
1.19251e-20
3.66745e-07
5.78423e-21
6.79603e-21
1.41401e-20
1.65739e-20
-8.72513e-22
-6.23656e-27
-7.25375e-28
-8.76117e-26
9.22518e-08
3.2851e-07
3.01015e-07
3.47127e-08
4.4601e-10
7.67723e-09
1.14663e-08
1.51431e-07
5.85295e-21
0.00404328
0.00548414
0.0052198
0.00134618
0.000106724
1.92489e-12
1.75068e-12
3.09831e-12
2.59166e-12
2.06034e-12
1.22983e-12
4.09286e-13
6.3322e-14
4.69451e-15
2.21592e-15
1.43199e-15
9.28634e-16
6.6397e-16
5.12843e-16
4.02401e-16
3.15143e-16
2.42271e-16
1.84038e-16
1.40424e-16
1.09942e-16
8.99495e-17
7.43888e-17
6.23145e-17
5.34702e-17
4.52566e-17
3.67342e-17
2.83749e-17
2.08869e-17
1.47066e-17
9.94295e-18
6.47689e-18
4.07724e-18
2.487e-18
1.4736e-18
8.50208e-19
4.78824e-19
2.639e-19
1.42716e-19
7.59384e-20
3.98642e-20
2.06983e-20
1.06525e-20
5.44274e-21
2.76238e-21
1.39102e-21
6.91588e-22
3.34855e-22
1.51886e-22
5.63849e-23
4.35572e-24
-2.66844e-23
-4.83695e-23
-6.69781e-23
-8.63186e-23
-1.0933e-22
-1.39079e-22
-1.79127e-22
-2.20162e-22
-7.55477e-23
1.71222e-21
1.27991e-20
6.3553e-20
2.5025e-19
8.25277e-19
2.34704e-18
5.8689e-18
1.3085e-17
2.62827e-17
4.79242e-17
7.97546e-17
1.21596e-16
1.70372e-16
2.20036e-16
2.62689e-16
2.90269e-16
2.95656e-16
2.72218e-16
2.15467e-16
1.20317e-16
6.70133e-17
6.70126e-17
2.74757e-06
4.50499e-06
4.47369e-06
1.56258e-06
2.55722e-09
1.17956e-11
1.02453e-11
1.86541e-12
1.30676e-09
1.79638e-09
7.41279e-09
4.76783e-10
-3.65871e-27
-3.0295e-18
0
0.372487
0.811169
0.97659
0.999872
1
1
1
1
1
1
1
1
1
1
1
1
1
1
1
1
1
1
1
1
1
1
1
1
1
1
1
1
1
1
1
1
1
1
1
1
1
1
1
1
1
1
1
1
1
1
1
1
1
1
1
1
1
1
1
1
1
1
1
1
1
1
1
1
1
1
1
1
1
1
1
1
1
1
1
1
1
1
1
1
1
1
1
1
1
1
1
1
1
1
1
1
1
1
1
1
1
1
1
1
1
1
1
1
1
1
1
1
1
1
1
1
1
1
1
1
1
1
1
1
1
1
1
1
1
1
1
1
1
1
1
1
1
1
1
1
1
1
1
1
1
1
1
1
1
1
1
1
1
1
1
1
1
1
1
1
1
1
1
1
1
1
1
1
1
1
1
1
1
1
1
1
1
1
1
1
1
1
1
1
1
1
1
1
1
1
1
1
1
1
1
1
1
1
1
1
1
1
1
1
1
1
1
1
1
1
1
1
1
1
1
1
1
1
1
1
1
1
1
1
1
1
1
1
1
1
1
1
1
1
1
1
1
1
1
1
1
1
1
1
1
1
1
1
1
1
1
1
1
1
1
1
1
1
1
1
1
1
1
1
1
1
1
1
1
1
1
1
1
1
1
1
1
1
1
1
1
1
1
1
1
1
1
1
1
1
1
1
1
1
1
1
1
1
1
1
1
1
1
1
1
1
1
1
1
1
1
1
1
1
1
1
1
1
1
1
1
1
1
1
1
1
1
1
0.745787
0.0314863
-2.82854e-20
-5.09277e-25
0.000628933
0.00714995
0.0183308
0.0351822
0.0288097
0.00622835
1.55435e-20
-3.70298e-22
-3.51892e-24
3.14294e-07
3.2851e-07
1.10083e-07
4.07291e-10
5.63606e-09
7.41878e-09
2.34603e-09
-5.59968e-21
-1.38828e-21
0.00209719
0.00372325
0.00416846
0.00269602
0.000481947
1.24062e-06
3.1263e-13
4.73463e-13
2.61181e-12
4.24626e-12
2.86243e-12
9.69128e-13
1.04011e-13
1.37331e-15
1.03377e-15
8.77715e-16
7.09592e-16
5.59245e-16
4.34527e-16
3.33387e-16
2.57548e-16
2.0563e-16
1.64589e-16
1.30019e-16
1.0477e-16
9.19342e-17
8.49591e-17
8.58103e-17
8.21668e-17
7.15782e-17
5.75025e-17
4.32992e-17
3.09133e-17
2.10864e-17
1.38147e-17
8.72667e-18
5.33143e-18
3.15814e-18
1.81802e-18
1.01928e-18
5.57794e-19
2.98626e-19
1.56783e-19
8.09214e-20
4.1164e-20
2.06885e-20
1.02965e-20
5.08466e-21
2.49492e-21
1.21694e-21
5.89156e-22
2.81388e-22
1.30219e-22
5.52426e-23
1.70234e-23
-3.79219e-24
-1.67903e-23
-2.68764e-23
-3.68044e-23
-4.84694e-23
-6.36168e-23
-8.1591e-23
-5.48106e-23
4.67005e-22
4.14641e-21
2.24941e-20
9.45141e-20
3.28046e-19
9.72389e-19
2.51592e-18
5.77208e-18
1.18817e-17
2.21467e-17
3.76519e-17
5.87484e-17
8.46318e-17
1.13329e-16
1.42259e-16
1.69007e-16
1.91406e-16
2.06161e-16
2.05386e-16
1.74138e-16
9.96373e-17
6.70133e-17
6.70126e-17
3.46096e-06
4.50499e-06
4.47369e-06
7.17528e-07
2.10482e-12
2.09357e-12
1.83562e-12
3.80729e-10
4.27503e-09
2.14741e-08
4.38483e-10
1.44219e-23
-3.33548e-25
-6.27288e-26
-2.73977e-15
-2.98009e-15
0.0822703
0.615657
0.927902
0.99755
1
1
1
1
1
1
1
1
1
1
1
1
1
1
1
1
1
1
1
1
1
1
1
1
1
1
1
1
1
1
1
1
1
1
1
1
1
1
1
1
1
1
1
1
1
1
1
1
1
1
1
1
1
1
1
1
1
1
1
1
1
1
1
1
1
1
1
1
1
1
1
1
1
1
1
1
1
1
1
1
1
1
1
1
1
1
1
1
1
1
1
1
1
1
1
1
1
1
1
1
1
1
1
1
1
1
1
1
1
1
1
1
1
1
1
1
1
1
1
1
1
1
1
1
1
1
1
1
1
1
1
1
1
1
1
1
1
1
1
1
1
1
1
1
1
1
1
1
1
1
1
1
1
1
1
1
1
1
1
1
1
1
1
1
1
1
1
1
1
1
1
1
1
1
1
1
1
1
1
1
1
1
1
1
1
1
1
1
1
1
1
1
1
1
1
1
1
1
1
1
1
1
1
1
1
1
1
1
1
1
1
1
1
1
1
1
1
1
1
1
1
1
1
1
1
1
1
1
1
1
1
1
1
1
1
1
1
1
1
1
1
1
1
1
1
1
1
1
1
1
1
1
1
1
1
1
1
1
1
1
1
1
1
1
1
1
1
1
1
1
1
1
1
1
1
1
1
1
1
1
1
1
1
1
1
1
1
1
1
1
1
1
1
1
1
1
1
1
1
1
1
1
1
1
1
1
1
1
1
1
1
1
1
1
1
1
1
1
1
1
1
1
0.745787
0.331684
0.0135824
-2.37129e-21
0.0321828
0.230534
0.229659
0.228697
0.227207
0.0959288
0.00135556
-8.702e-21
-1.294e-25
8.32857e-08
1.26141e-07
2.49333e-08
3.74573e-10
3.07215e-09
1.23578e-09
5.74254e-20
0.00114624
0.00102529
0.000119387
1.37132e-09
0.00149052
0.00279564
0.00290173
0.000686088
3.1263e-13
3.1263e-13
1.60685e-12
6.62694e-12
7.34465e-12
3.58047e-12
7.24308e-13
5.76422e-15
9.20812e-16
7.97702e-16
6.57677e-16
5.55913e-16
8.76631e-14
3.88153e-13
5.56122e-13
4.60852e-13
2.39332e-13
6.93278e-14
5.68178e-15
1.02527e-16