/*--------------------------------*- C++ -*----------------------------------*\
| =========                 |                                                 |
| \\      /  F ield         | OpenFOAM: The Open Source CFD Toolbox           |
|  \\    /   O peration     | Version:  v2006                                 |
|   \\  /    A nd           | Website:  www.openfoam.com                      |
|    \\/     M anipulation  |                                                 |
\*---------------------------------------------------------------------------*/
FoamFile
{
    version     2.0;
    format      ascii;
    class       volVectorField;
    location    "0";
    object      U;
}
// * * * * * * * * * * * * * * * * * * * * * * * * * * * * * * * * * * * * * //

dimensions      [0 1 -1 0 0 0 0];


internalField   nonuniform List<vector> 
20000
(
(1 3.07893e-12 0)
(1 8.83584e-12 0)
(1 1.55204e-11 0)
(1 2.37034e-11 0)
(1 3.36504e-11 0)
(1 4.56902e-11 0)
(1 6.00445e-11 0)
(1 7.68312e-11 0)
(1 9.6186e-11 0)
(1 1.18333e-10 0)
(1 1.43512e-10 0)
(1 1.71809e-10 0)
(1 2.03037e-10 0)
(1 2.36694e-10 0)
(1 2.72009e-10 0)
(1 3.08018e-10 0)
(1 3.43603e-10 0)
(1 3.77516e-10 0)
(1 4.08378e-10 0)
(1 4.34719e-10 0)
(1 4.55056e-10 0)
(1 4.68034e-10 0)
(1 4.72602e-10 0)
(1 4.68117e-10 0)
(1 4.54306e-10 0)
(1 4.31253e-10 0)
(1 3.99624e-10 0)
(1 3.60596e-10 0)
(1 3.15613e-10 0)
(1 2.66124e-10 0)
(1 2.13397e-10 0)
(1 1.58465e-10 0)
(1 1.02209e-10 0)
(1 4.55435e-11 0)
(1 -1.04414e-11 0)
(1 -6.44617e-11 0)
(1 -1.15082e-10 0)
(1 -1.606e-10 0)
(1 -1.98836e-10 0)
(1 -2.26962e-10 0)
(1 -2.41778e-10 0)
(1 -2.4136e-10 0)
(1 -2.25174e-10 0)
(1 -1.99425e-10 0)
(1 -1.88628e-10 0)
(1 -2.17521e-10 0)
(1 -2.94889e-10 0)
(1 -4.2461e-10 0)
(1 -6.11752e-10 0)
(1 -8.63925e-10 0)
(1 -1.19165e-09 0)
(1 -1.60859e-09 0)
(1 -2.13186e-09 0)
(1 -2.78239e-09 0)
(1 -3.5858e-09 0)
(1 -4.57341e-09 0)
(1 -5.78364e-09 0)
(1 -7.26303e-09 0)
(1 -9.06725e-09 0)
(1 -1.12624e-08 0)
(1 -1.39267e-08 0)
(1 -1.7151e-08 0)
(1 -2.10377e-08 0)
(1 -2.56981e-08 0)
(1 -3.12552e-08 0)
(1 -3.78481e-08 0)
(1 -4.56204e-08 0)
(1 -5.46887e-08 0)
(1 -6.51515e-08 0)
(1 -7.72185e-08 0)
(1 -9.13036e-08 0)
(1 -1.07544e-07 0)
(1 -1.24602e-07 0)
(1.00001 -1.39738e-07 0)
(1.00001 -1.53931e-07 0)
(1.00001 -1.797e-07 0)
(1.00001 -2.33491e-07 0)
(1.00001 -2.89107e-07 0)
(1.00001 -2.2473e-07 0)
(1.00001 8.07698e-08 0)
(1.00001 4.8173e-07 0)
(1.00001 8.22085e-07 0)
(1.00001 1.05026e-06 0)
(1.00001 1.18448e-06 0)
(1.00001 1.26086e-06 0)
(1 1.31e-06 0)
(1 1.35371e-06 0)
(1 1.40722e-06 0)
(0.999997 1.48006e-06 0)
(0.999995 1.57497e-06 0)
(0.999992 1.68591e-06 0)
(0.99999 1.79716e-06 0)
(0.999987 1.88523e-06 0)
(0.999984 1.92392e-06 0)
(0.999982 1.89075e-06 0)
(0.999979 1.77323e-06 0)
(0.999975 1.57222e-06 0)
(0.999972 1.30085e-06 0)
(0.999969 9.78536e-07 0)
(0.999966 6.24835e-07 0)
(0.999963 2.56235e-07 0)
(0.99996 -1.13807e-07 0)
(0.999957 -4.73042e-07 0)
(0.999954 -8.08482e-07 0)
(0.999952 -1.10589e-06 0)
(0.99995 -1.35064e-06 0)
(0.999948 -1.52945e-06 0)
(0.999946 -1.63235e-06 0)
(0.999945 -1.6533e-06 0)
(0.999944 -1.59039e-06 0)
(0.999944 -1.4494e-06 0)
(0.999943 -1.25426e-06 0)
(0.999943 -1.05541e-06 0)
(0.999944 -9.17505e-07 0)
(0.999945 -8.51431e-07 0)
(0.999947 -8.48764e-07 0)
(0.999951 -8.90809e-07 0)
(0.999955 -9.44842e-07 0)
(0.999961 -9.60297e-07 0)
(0.999968 -8.68108e-07 0)
(0.999975 -5.88693e-07 0)
(0.999982 -4.86827e-08 0)
(0.999988 7.87934e-07 0)
(0.999992 1.8786e-06 0)
(0.999994 3.02021e-06 0)
(0.999994 3.83561e-06 0)
(0.999992 4.28958e-06 0)
(0.99999 4.4686e-06 0)
(0.999987 4.45095e-06 0)
(0.999984 4.27719e-06 0)
(0.999981 3.96447e-06 0)
(0.999977 3.52227e-06 0)
(0.999972 2.96092e-06 0)
(0.999968 2.29579e-06 0)
(0.999963 1.55016e-06 0)
(0.999958 7.53454e-07 0)
(0.999954 -5.93933e-08 0)
(0.999949 -8.4979e-07 0)
(0.999944 -1.57831e-06 0)
(0.99994 -2.2083e-06 0)
(0.999937 -2.70927e-06 0)
(0.999933 -3.06e-06 0)
(0.99993 -3.25057e-06 0)
(0.999928 -3.2833e-06 0)
(0.999926 -3.17143e-06 0)
(0.999925 -2.93581e-06 0)
(0.999924 -2.6024e-06 0)
(0.999923 -2.20429e-06 0)
(0.999923 -1.79057e-06 0)
(0.999923 -1.44275e-06 0)
(0.999924 -1.19756e-06 0)
(0.999926 -1.04603e-06 0)
(0.999928 -9.64824e-07 0)
(0.999931 -9.25532e-07 0)
(0.999935 -8.9874e-07 0)
(0.99994 -8.60321e-07 0)
(0.999944 -7.97642e-07 0)
(0.999949 -7.12254e-07 0)
(0.999953 -6.17042e-07 0)
(0.999956 -5.28595e-07 0)
(0.999959 -4.59013e-07 0)
(0.999962 -4.12155e-07 0)
(0.999964 -3.8523e-07 0)
(0.999967 -3.72386e-07 0)
(0.999969 -3.67359e-07 0)
(0.999972 -3.64848e-07 0)
(0.999974 -3.61111e-07 0)
(0.999976 -3.54005e-07 0)
(0.999979 -3.42687e-07 0)
(0.999981 -3.27226e-07 0)
(0.999983 -3.0825e-07 0)
(0.999985 -2.86663e-07 0)
(0.999987 -2.63438e-07 0)
(0.999989 -2.39491e-07 0)
(0.99999 -2.15611e-07 0)
(0.999991 -1.92424e-07 0)
(0.999993 -1.70397e-07 0)
(0.999994 -1.49847e-07 0)
(0.999995 -1.30963e-07 0)
(0.999996 -1.13829e-07 0)
(0.999996 -9.8452e-08 0)
(0.999997 -8.47789e-08 0)
(0.999997 -7.27171e-08 0)
(0.999998 -6.21493e-08 0)
(0.999998 -5.29448e-08 0)
(0.999999 -4.49683e-08 0)
(0.999999 -3.80854e-08 0)
(0.999999 -3.2167e-08 0)
(0.999999 -2.70913e-08 0)
(0.999999 -2.27451e-08 0)
(1 -1.90241e-08 0)
(1 -1.58338e-08 0)
(1 -1.30888e-08 0)
(1 -1.07143e-08 0)
(1 -8.64466e-09 0)
(1 -6.82876e-09 0)
(1 -5.21271e-09 0)
(1 -3.79869e-09 0)
(1 -2.50573e-09 0)
(1 -1.02726e-09 0)
(1 5.80186e-12 0)
(1 1.52875e-11 0)
(1 2.51863e-11 0)
(1 3.61869e-11 0)
(1 4.81298e-11 0)
(1 6.11905e-11 0)
(1 7.56495e-11 0)
(1 9.17957e-11 0)
(1 1.09853e-10 0)
(1 1.29907e-10 0)
(1 1.51877e-10 0)
(1 1.75543e-10 0)
(1 2.00649e-10 0)
(1 2.26975e-10 0)
(1 2.54345e-10 0)
(1 2.82584e-10 0)
(1 3.11419e-10 0)
(1 3.40415e-10 0)
(1 3.68965e-10 0)
(1 3.96343e-10 0)
(1 4.21822e-10 0)
(1 4.44814e-10 0)
(1 4.64987e-10 0)
(1 4.82323e-10 0)
(1 4.97104e-10 0)
(1 5.09971e-10 0)
(1 5.2197e-10 0)
(1 5.34135e-10 0)
(1 5.47256e-10 0)
(1 5.61753e-10 0)
(1 5.77617e-10 0)
(1 5.94427e-10 0)
(1 6.11447e-10 0)
(1 6.27715e-10 0)
(1 6.42038e-10 0)
(1 6.52886e-10 0)
(1 6.58331e-10 0)
(1 6.56107e-10 0)
(1 6.43691e-10 0)
(1 6.18164e-10 0)
(1 5.76053e-10 0)
(1 5.12487e-10 0)
(1 4.2228e-10 0)
(1 2.96204e-10 0)
(1 1.10615e-10 0)
(1 -1.60281e-10 0)
(1 -5.31719e-10 0)
(1 -1.02227e-09 0)
(1 -1.65621e-09 0)
(1 -2.46392e-09 7.27188e-43)
(1 -3.48275e-09 7.69504e-43)
(1 -4.75805e-09 0)
(1 -6.34423e-09 0)
(1 -8.30641e-09 0)
(1 -1.0723e-08 0)
(1 -1.3689e-08 0)
(1 -1.73205e-08 0)
(1 -2.17576e-08 0)
(1 -2.71676e-08 0)
(1 -3.37489e-08 0)
(1 -4.17356e-08 0)
(1 -5.14004e-08 0)
(1 -6.30522e-08 0)
(1 -7.70296e-08 0)
(1 -9.36971e-08 0)
(1 -1.13447e-07 0)
(1 -1.36701e-07 0)
(1 -1.63901e-07 0)
(1 -1.95488e-07 0)
(1 -2.31883e-07 0)
(1 -2.7343e-07 0)
(1 -3.20168e-07 0)
(1 -3.71449e-07 0)
(1.00001 -4.26077e-07 0)
(1.00001 -4.83924e-07 0)
(1.00001 -5.47566e-07 0)
(1.00001 -6.17311e-07 0)
(1.00001 -6.71023e-07 0)
(1.00001 -6.43151e-07 0)
(1.00001 -4.82538e-07 0)
(1.00002 -3.10365e-07 0)
(1.00002 -1.9847e-07 0)
(1.00003 -1.39772e-07 0)
(1.00003 -1.04728e-07 0)
(1.00004 -7.37231e-08 0)
(1.00004 -4.38657e-08 0)
(1.00004 -2.39172e-08 0)
(1.00005 -2.75431e-08 0)
(1.00005 -6.66088e-08 0)
(1.00006 -1.43877e-07 0)
(1.00006 -2.45987e-07 0)
(1.00007 -3.41274e-07 0)
(1.00008 -3.86858e-07 0)
(1.00008 -3.45527e-07 0)
(1.00009 -2.01207e-07 0)
(1.0001 3.55879e-08 0)
(1.0001 3.38674e-07 0)
(1.0001 6.72815e-07 0)
(1.0001 1.01435e-06 0)
(1.0001 1.35017e-06 0)
(1.00009 1.67218e-06 0)
(1.00009 1.97155e-06 0)
(1.00008 2.23655e-06 0)
(1.00007 2.45336e-06 0)
(1.00006 2.60704e-06 0)
(1.00004 2.68328e-06 0)
(1.00003 2.67185e-06 0)
(1.00002 2.56968e-06 0)
(1 2.38096e-06 0)
(0.99999 2.11497e-06 0)
(0.999979 1.78227e-06 0)
(0.999969 1.38943e-06 0)
(0.999962 9.31033e-07 0)
(0.999958 3.91612e-07 0)
(0.999955 -2.07959e-07 0)
(0.999954 -8.42191e-07 0)
(0.999956 -1.48841e-06 0)
(0.999959 -2.12306e-06 0)
(0.999964 -2.71902e-06 0)
(0.999971 -3.24395e-06 0)
(0.99998 -3.66116e-06 0)
(0.999992 -3.93191e-06 0)
(1.00001 -4.02404e-06 0)
(1.00002 -3.92576e-06 0)
(1.00004 -3.70543e-06 0)
(1.00007 -3.55728e-06 0)
(1.00009 -3.424e-06 0)
(1.00012 -3.22153e-06 0)
(1.00014 -2.9038e-06 0)
(1.00016 -2.45705e-06 0)
(1.00018 -1.88584e-06 0)
(1.0002 -1.20158e-06 0)
(1.00021 -4.22641e-07 0)
(1.00022 4.27953e-07 0)
(1.00022 1.31145e-06 0)
(1.00022 2.18891e-06 0)
(1.00021 3.01876e-06 0)
(1.00019 3.75832e-06 0)
(1.00018 4.368e-06 0)
(1.00015 4.81553e-06 0)
(1.00013 5.07948e-06 0)
(1.0001 5.15134e-06 0)
(1.00008 5.03569e-06 0)
(1.00005 4.7488e-06 0)
(1.00003 4.31736e-06 0)
(1 3.77712e-06 0)
(0.999984 3.16896e-06 0)
(0.999968 2.53064e-06 0)
(0.999955 1.88405e-06 0)
(0.999946 1.2164e-06 0)
(0.99994 5.38823e-07 0)
(0.999937 -1.19306e-07 0)
(0.999936 -7.26016e-07 0)
(0.999936 -1.24268e-06 0)
(0.999939 -1.62642e-06 0)
(0.999942 -1.84446e-06 0)
(0.999946 -1.89159e-06 0)
(0.99995 -1.79867e-06 0)
(0.999953 -1.62487e-06 0)
(0.999956 -1.43549e-06 0)
(0.999959 -1.27809e-06 0)
(0.999962 -1.17204e-06 0)
(0.999964 -1.11429e-06 0)
(0.999967 -1.09095e-06 0)
(0.999969 -1.08576e-06 0)
(0.999972 -1.08457e-06 0)
(0.999974 -1.07735e-06 0)
(0.999976 -1.05849e-06 0)
(0.999979 -1.02601e-06 0)
(0.999981 -9.80494e-07 0)
(0.999983 -9.24052e-07 0)
(0.999985 -8.59551e-07 0)
(0.999987 -7.90009e-07 0)
(0.999989 -7.18232e-07 0)
(0.99999 -6.46617e-07 0)
(0.999992 -5.77069e-07 0)
(0.999993 -5.10994e-07 0)
(0.999994 -4.49349e-07 0)
(0.999995 -3.92703e-07 0)
(0.999996 -3.41313e-07 0)
(0.999996 -2.95194e-07 0)
(0.999997 -2.54188e-07 0)
(0.999997 -2.18016e-07 0)
(0.999998 -1.86326e-07 0)
(0.999998 -1.58723e-07 0)
(0.999999 -1.34802e-07 0)
(0.999999 -1.1416e-07 0)
(0.999999 -9.64112e-08 0)
(0.999999 -8.11975e-08 0)
(0.999999 -6.81886e-08 0)
(1 -5.70854e-08 0)
(1 -4.762e-08 0)
(1 -3.9554e-08 0)
(1 -3.26768e-08 0)
(1 -2.6803e-08 0)
(1 -2.17702e-08 0)
(1 -1.74396e-08 0)
(1 -1.36563e-08 0)
(1 -1.0528e-08 0)
(1 -6.43055e-09 0)
(1 6.76442e-12 0)
(1 1.69027e-11 0)
(1 2.68574e-11 0)
(1 3.71251e-11 0)
(1 4.70835e-11 0)
(1 5.68168e-11 0)
(1 6.67598e-11 0)
(1 7.74332e-11 0)
(1 8.9162e-11 0)
(1 1.01939e-10 0)
(1 1.15537e-10 0)
(1 1.2977e-10 0)
(1 1.44728e-10 0)
(1 1.60857e-10 0)
(1 1.78876e-10 0)
(1 1.99619e-10 0)
(1 2.23877e-10 0)
(1 2.52296e-10 0)
(1 2.85358e-10 0)
(1 3.23403e-10 0)
(1 3.66666e-10 0)
(1 4.15294e-10 0)
(1 4.6934e-10 0)
(1 5.28764e-10 0)
(1 5.93473e-10 0)
(1 6.63337e-10 0)
(1 7.38006e-10 0)
(1 8.16704e-10 0)
(1 8.98394e-10 0)
(1 9.81932e-10 0)
(1 1.06608e-09 0)
(1 1.14946e-09 0)
(1 1.23037e-09 0)
(1 1.3067e-09 0)
(1 1.3757e-09 0)
(1 1.43393e-09 0)
(1 1.47727e-09 0)
(1 1.50067e-09 0)
(1 1.49791e-09 0)
(1 1.46112e-09 0)
(1 1.38048e-09 0)
(1 1.24429e-09 0)
(1 1.03883e-09 0)
(1 7.48933e-10 0)
(1 3.59713e-10 0)
(1 -1.48403e-10 0)
(1 -8.03938e-10 0)
(1 -1.64432e-09 0)
(1 -2.71457e-09 0)
(1 -4.06829e-09 0)
(1 -5.76961e-09 0)
(1 -7.89525e-09 0)
(1 -1.05366e-08 0)
(1 -1.38025e-08 0)
(1 -1.78236e-08 0)
(1 -2.27587e-08 0)
(1 -2.88007e-08 0)
(1 -3.6183e-08 0)
(1 -4.51843e-08 0)
(1 -5.61347e-08 0)
(1 -6.94237e-08 0)
(1 -8.55051e-08 0)
(1 -1.04894e-07 0)
(1 -1.28157e-07 0)
(1 -1.55897e-07 0)
(1 -1.88764e-07 0)
(1 -2.27461e-07 0)
(1 -2.72753e-07 0)
(1 -3.25403e-07 0)
(1 -3.86047e-07 0)
(1 -4.55047e-07 0)
(1 -5.32521e-07 0)
(1 -6.18518e-07 0)
(1.00001 -7.12652e-07 0)
(1.00001 -8.12069e-07 0)
(1.00001 -9.08678e-07 0)
(1.00001 -9.91704e-07 0)
(1.00001 -1.06307e-06 0)
(1.00001 -1.15413e-06 0)
(1.00001 -1.29461e-06 0)
(1.00002 -1.43482e-06 0)
(1.00002 -1.5132e-06 0)
(1.00002 -1.50916e-06 0)
(1.00002 -1.43734e-06 0)
(1.00002 -1.32595e-06 0)
(1.00002 -1.2081e-06 0)
(1.00002 -1.12063e-06 0)
(1.00002 -1.10149e-06 0)
(1.00003 -1.18114e-06 0)
(1.00003 -1.36732e-06 0)
(1.00003 -1.62795e-06 0)
(1.00003 -1.88324e-06 0)
(1.00003 -2.02152e-06 0)
(1.00003 -1.94063e-06 0)
(1.00004 -1.59112e-06 0)
(1.00004 -9.91758e-07 0)
(1.00004 -2.09473e-07 0)
(1.00004 6.74901e-07 0)
(1.00004 1.59576e-06 0)
(1.00003 2.5115e-06 0)
(1.00003 3.39715e-06 0)
(1.00002 4.23018e-06 0)
(1.00002 4.98248e-06 0)
(1.00001 5.61964e-06 0)
(1 6.10226e-06 0)
(0.999997 6.39083e-06 0)
(0.999989 6.4557e-06 0)
(0.999981 6.28482e-06 0)
(0.999974 5.88266e-06 0)
(0.999967 5.26422e-06 0)
(0.999961 4.45276e-06 0)
(0.999956 3.48182e-06 0)
(0.999953 2.39645e-06 0)
(0.99995 1.24603e-06 0)
(0.99995 6.45408e-08 0)
(0.999951 -1.1241e-06 0)
(0.999953 -2.30077e-06 0)
(0.999957 -3.45024e-06 0)
(0.999962 -4.56145e-06 0)
(0.999969 -5.62705e-06 0)
(0.999977 -6.64107e-06 0)
(0.999986 -7.5952e-06 0)
(0.999997 -8.47131e-06 0)
(1.00001 -9.22944e-06 0)
(1.00002 -9.78783e-06 0)
(1.00003 -1.00263e-05 0)
(1.00004 -9.90974e-06 0)
(1.00005 -9.45117e-06 0)
(1.00006 -8.66758e-06 0)
(1.00007 -7.56775e-06 0)
(1.00008 -6.16257e-06 0)
(1.00009 -4.47337e-06 0)
(1.00009 -2.53847e-06 0)
(1.00009 -4.13844e-07 0)
(1.00009 1.82267e-06 0)
(1.00009 4.07797e-06 0)
(1.00008 6.24554e-06 0)
(1.00007 8.21355e-06 0)
(1.00006 9.87575e-06 0)
(1.00005 1.11425e-05 0)
(1.00003 1.19509e-05 0)
(1.00002 1.22712e-05 0)
(1 1.21089e-05 0)
(0.999989 1.15024e-05 0)
(0.999976 1.05169e-05 0)
(0.999964 9.23829e-06 0)
(0.999953 7.76281e-06 0)
(0.999945 6.18489e-06 0)
(0.999939 4.58754e-06 0)
(0.999934 3.04221e-06 0)
(0.999932 1.59538e-06 0)
(0.999931 2.73381e-07 0)
(0.999931 -8.96149e-07 0)
(0.999933 -1.86785e-06 0)
(0.999937 -2.58316e-06 0)
(0.999941 -2.99617e-06 0)
(0.999945 -3.1048e-06 0)
(0.999949 -2.96636e-06 0)
(0.999953 -2.68501e-06 0)
(0.999956 -2.37418e-06 0)
(0.999959 -2.11575e-06 0)
(0.999962 -1.94279e-06 0)
(0.999964 -1.85006e-06 0)
(0.999967 -1.81412e-06 0)
(0.999969 -1.80774e-06 0)
(0.999972 -1.80729e-06 0)
(0.999974 -1.79618e-06 0)
(0.999976 -1.76518e-06 0)
(0.999979 -1.71114e-06 0)
(0.999981 -1.63516e-06 0)
(0.999983 -1.54086e-06 0)
(0.999985 -1.43309e-06 0)
(0.999987 -1.31692e-06 0)
(0.999989 -1.19706e-06 0)
(0.99999 -1.07752e-06 0)
(0.999992 -9.61458e-07 0)
(0.999993 -8.51235e-07 0)
(0.999994 -7.48432e-07 0)
(0.999995 -6.53992e-07 0)
(0.999996 -5.68336e-07 0)
(0.999996 -4.91484e-07 0)
(0.999997 -4.23166e-07 0)
(0.999997 -3.62914e-07 0)
(0.999998 -3.10134e-07 0)
(0.999998 -2.6417e-07 0)
(0.999999 -2.2434e-07 0)
(0.999999 -1.89973e-07 0)
(0.999999 -1.60428e-07 0)
(0.999999 -1.35107e-07 0)
(0.999999 -1.1346e-07 0)
(1 -9.49937e-08 0)
(1 -7.92626e-08 0)
(1 -6.58732e-08 0)
(1 -5.44772e-08 0)
(1 -4.47687e-08 0)
(1 -3.6472e-08 0)
(1 -2.93743e-08 0)
(1 -2.31319e-08 0)
(1 -1.8197e-08 0)
(1 -1.12446e-08 0)
(1 9.47242e-12 0)
(1 2.45155e-11 0)
(1 4.01838e-11 0)
(1 5.71542e-11 0)
(1 7.47674e-11 0)
(1 9.33173e-11 0)
(1 1.1344e-10 0)
(1 1.35818e-10 0)
(1 1.60929e-10 0)
(1 1.88912e-10 0)
(1 2.19648e-10 0)
(1 2.52975e-10 0)
(1 2.88886e-10 0)
(1 3.27633e-10 0)
(1 3.69679e-10 0)
(1 4.15571e-10 0)
(1 4.65769e-10 0)
(1 5.20515e-10 0)
(1 5.79777e-10 0)
(1 6.43265e-10 0)
(1 7.10499e-10 0)
(1 7.809e-10 0)
(1 8.53881e-10 0)
(1 9.28918e-10 0)
(1 1.00555e-09 0)
(1 1.08336e-09 0)
(1 1.16196e-09 0)
(1 1.24109e-09 0)
(1 1.32065e-09 0)
(1 1.40049e-09 0)
(1 1.48019e-09 0)
(1 1.55889e-09 0)
(1 1.63503e-09 0)
(1 1.70633e-09 0)
(1 1.76976e-09 0)
(1 1.82143e-09 0)
(1 1.85655e-09 0)
(1 1.86913e-09 0)
(1 1.85175e-09 0)
(1 1.7953e-09 0)
(1 1.68841e-09 0)
(1 1.51679e-09 0)
(1 1.26161e-09 0)
(1 8.98779e-10 0)
(1 3.98989e-10 0)
(1 -2.73197e-10 0)
(1 -1.16122e-09 0)
(1 -2.31541e-09 0)
(1 -3.7962e-09 0)
(1 -5.67667e-09 0)
(1 -8.04515e-09 0)
(1 -1.10079e-08 0)
(1 -1.4692e-08 0)
(1 -1.92491e-08 0)
(1 -2.48613e-08 0)
(1 -3.17501e-08 0)
(1 -4.01851e-08 0)
(1 -5.04924e-08 0)
(1 -6.30613e-08 0)
(1 -7.83524e-08 0)
(1 -9.69099e-08 0)
(1 -1.19369e-07 0)
(1 -1.46449e-07 0)
(1 -1.78942e-07 0)
(1 -2.17695e-07 0)
(1 -2.63616e-07 0)
(1 -3.17695e-07 0)
(1 -3.80987e-07 0)
(1 -4.54557e-07 0)
(1 -5.39364e-07 0)
(1 -6.36104e-07 0)
(1 -7.44962e-07 0)
(1 -8.65235e-07 0)
(1.00001 -9.95077e-07 0)
(1.00001 -1.13186e-06 0)
(1.00001 -1.27287e-06 0)
(1.00001 -1.41388e-06 0)
(1.00001 -1.54345e-06 0)
(1.00001 -1.63847e-06 0)
(1.00001 -1.67339e-06 0)
(1.00002 -1.63189e-06 0)
(1.00002 -1.53255e-06 0)
(1.00002 -1.39736e-06 0)
(1.00002 -1.23949e-06 0)
(1.00002 -1.07117e-06 0)
(1.00002 -9.13122e-07 0)
(1.00002 -7.98503e-07 0)
(1.00002 -7.68642e-07 0)
(1.00003 -8.60149e-07 0)
(1.00003 -1.08401e-06 0)
(1.00003 -1.40203e-06 0)
(1.00003 -1.71538e-06 0)
(1.00003 -1.88469e-06 0)
(1.00003 -1.7833e-06 0)
(1.00004 -1.35429e-06 0)
(1.00004 -6.28197e-07 0)
(1.00004 3.04552e-07 0)
(1.00004 1.34301e-06 0)
(1.00004 2.40803e-06 0)
(1.00003 3.45493e-06 0)
(1.00003 4.46008e-06 0)
(1.00002 5.40031e-06 0)
(1.00002 6.24349e-06 0)
(1.00001 6.94908e-06 0)
(1 7.47028e-06 0)
(0.999997 7.76021e-06 0)
(0.999989 7.78488e-06 0)
(0.999981 7.53251e-06 0)
(0.999973 7.01128e-06 0)
(0.999967 6.24153e-06 0)
(0.999961 5.25072e-06 0)
(0.999956 4.07168e-06 0)
(0.999952 2.74029e-06 0)
(0.99995 1.29401e-06 0)
(0.999949 -2.31845e-07 0)
(0.99995 -1.80042e-06 0)
(0.999953 -3.37486e-06 0)
(0.999957 -4.91815e-06 0)
(0.999962 -6.39147e-06 0)
(0.999969 -7.75291e-06 0)
(0.999977 -8.95816e-06 0)
(0.999986 -9.96392e-06 0)
(0.999997 -1.07334e-05 0)
(1.00001 -1.12441e-05 0)
(1.00002 -1.14885e-05 0)
(1.00003 -1.14524e-05 0)
(1.00004 -1.11339e-05 0)
(1.00005 -1.05057e-05 0)
(1.00007 -9.5378e-06 0)
(1.00007 -8.21386e-06 0)
(1.00008 -6.53611e-06 0)
(1.00009 -4.52867e-06 0)
(1.00009 -2.2378e-06 0)
(1.00009 2.66165e-07 0)
(1.00009 2.89335e-06 0)
(1.00009 5.53111e-06 0)
(1.00008 8.05217e-06 0)
(1.00007 1.03247e-05 0)
(1.00006 1.22242e-05 0)
(1.00005 1.3647e-05 0)
(1.00003 1.45218e-05 0)
(1.00002 1.48175e-05 0)
(1 1.45452e-05 0)
(0.999989 1.37536e-05 0)
(0.999975 1.25222e-05 0)
(0.999963 1.09544e-05 0)
(0.999953 9.16639e-06 0)
(0.999945 7.2682e-06 0)
(0.999938 5.3473e-06 0)
(0.999934 3.4658e-06 0)
(0.999931 1.6636e-06 0)
(0.99993 -2.34561e-08 0)
(0.999931 -1.54582e-06 0)
(0.999933 -2.82752e-06 0)
(0.999937 -3.77437e-06 0)
(0.999941 -4.31156e-06 0)
(0.999945 -4.42915e-06 0)
(0.999949 -4.20486e-06 0)
(0.999953 -3.78573e-06 0)
(0.999956 -3.33287e-06 0)
(0.999959 -2.9615e-06 0)
(0.999962 -2.71607e-06 0)
(0.999964 -2.58655e-06 0)
(0.999967 -2.53804e-06 0)
(0.999969 -2.53111e-06 0)
(0.999972 -2.53204e-06 0)
(0.999974 -2.51735e-06 0)
(0.999976 -2.47422e-06 0)
(0.999979 -2.39838e-06 0)
(0.999981 -2.29152e-06 0)
(0.999983 -2.15889e-06 0)
(0.999985 -2.00737e-06 0)
(0.999987 -1.84415e-06 0)
(0.999989 -1.67585e-06 0)
(0.99999 -1.50809e-06 0)
(0.999992 -1.34531e-06 0)
(0.999993 -1.1908e-06 0)
(0.999994 -1.04676e-06 0)
(0.999995 -9.14489e-07 0)
(0.999996 -7.94567e-07 0)
(0.999996 -6.87007e-07 0)
(0.999997 -5.9142e-07 0)
(0.999997 -5.07141e-07 0)
(0.999998 -4.33332e-07 0)
(0.999998 -3.69067e-07 0)
(0.999999 -3.13389e-07 0)
(0.999999 -2.65357e-07 0)
(0.999999 -2.24069e-07 0)
(0.999999 -1.88687e-07 0)
(0.999999 -1.58441e-07 0)
(1 -1.32634e-07 0)
(1 -1.10644e-07 0)
(1 -9.19171e-08 0)
(1 -7.59642e-08 0)
(1 -6.23561e-08 0)
(1 -5.0709e-08 0)
(1 -4.07215e-08 0)
(1 -3.1942e-08 0)
(1 -2.49549e-08 0)
(1 -1.51478e-08 0)
(1 1.22388e-11 0)
(1 3.16286e-11 0)
(1 5.16407e-11 0)
(1 7.29859e-11 0)
(1 9.46987e-11 0)
(1 1.17026e-10 0)
(1 1.4069e-10 0)
(1 1.6655e-10 0)
(1 1.95209e-10 0)
(1 2.26762e-10 0)
(1 2.60894e-10 0)
(1 2.97232e-10 0)
(1 3.35708e-10 0)
(1 3.7674e-10 0)
(1 4.21169e-10 0)
(1 4.70021e-10 0)
(1 5.24235e-10 0)
(1 5.84463e-10 0)
(1 6.51005e-10 0)
(1 7.23857e-10 0)
(1 8.02824e-10 0)
(1 8.87636e-10 0)
(1 9.78022e-10 0)
(1 1.07375e-09 0)
(1 1.17465e-09 0)
(1 1.28062e-09 0)
(1 1.39155e-09 0)
(1 1.50733e-09 0)
(1 1.62755e-09 0)
(1 1.7514e-09 0)
(1 1.87751e-09 0)
(1 2.00384e-09 0)
(1 2.12758e-09 0)
(1 2.24508e-09 0)
(1 2.35172e-09 0)
(1 2.44172e-09 0)
(1 2.508e-09 0)
(1 2.54193e-09 0)
(1 2.533e-09 0)
(1 2.4684e-09 0)
(1 2.33239e-09 0)
(1 2.1057e-09 0)
(1 1.76442e-09 0)
(1 1.27986e-09 0)
(1 6.18159e-10 0)
(1 -2.62885e-10 0)
(1 -1.41587e-09 0)
(1 -2.90522e-09 0)
(1 -4.8092e-09 0)
(1 -7.22238e-09 0)
(1 -1.02587e-08 0)
(1 -1.4055e-08 0)
(1 -1.87746e-08 0)
(1 -2.4612e-08 0)
(1 -3.18009e-08 0)
(1 -4.0625e-08 0)
(1 -5.14306e-08 0)
(1 -6.46361e-08 0)
(1 -8.07402e-08 0)
(1 -1.00333e-07 0)
(1 -1.24113e-07 0)
(1 -1.52893e-07 0)
(1 -1.87602e-07 0)
(1 -2.29254e-07 0)
(1 -2.78936e-07 0)
(1 -3.37812e-07 0)
(1 -4.07155e-07 0)
(1 -4.88347e-07 0)
(1 -5.82793e-07 0)
(1 -6.91716e-07 0)
(1 -8.15928e-07 0)
(1 -9.5568e-07 0)
(1 -1.1106e-06 0)
(1.00001 -1.27934e-06 0)
(1.00001 -1.45828e-06 0)
(1.00001 -1.63958e-06 0)
(1.00001 -1.81083e-06 0)
(1.00001 -1.95969e-06 0)
(1.00001 -2.08118e-06 0)
(1.00001 -2.17629e-06 0)
(1.00002 -2.23412e-06 0)
(1.00002 -2.23924e-06 0)
(1.00002 -2.17763e-06 0)
(1.00002 -2.04886e-06 0)
(1.00002 -1.87206e-06 0)
(1.00002 -1.68618e-06 0)
(1.00002 -1.54731e-06 0)
(1.00002 -1.52041e-06 0)
(1.00003 -1.66161e-06 0)
(1.00003 -1.98967e-06 0)
(1.00003 -2.4531e-06 0)
(1.00003 -2.91334e-06 0)
(1.00003 -3.1723e-06 0)
(1.00003 -3.04849e-06 0)
(1.00004 -2.45752e-06 0)
(1.00004 -1.43865e-06 0)
(1.00004 -1.15625e-07 0)
(1.00004 1.36747e-06 0)
(1.00004 2.89866e-06 0)
(1.00003 4.41375e-06 0)
(1.00003 5.87737e-06 0)
(1.00002 7.25465e-06 0)
(1.00002 8.49856e-06 0)
(1.00001 9.55081e-06 0)
(1 1.03442e-05 0)
(0.999997 1.08108e-05 0)
(0.999989 1.09002e-05 0)
(0.999981 1.05936e-05 0)
(0.999973 9.90124e-06 0)
(0.999966 8.85139e-06 0)
(0.99996 7.48435e-06 0)
(0.999955 5.85188e-06 0)
(0.999952 4.01469e-06 0)
(0.99995 2.03599e-06 0)
(0.999949 -2.77777e-08 0)
(0.99995 -2.1263e-06 0)
(0.999952 -4.21645e-06 0)
(0.999956 -6.26093e-06 0)
(0.999961 -8.22606e-06 0)
(0.999968 -1.00794e-05 0)
(0.999977 -1.17873e-05 0)
(0.999986 -1.33117e-05 0)
(0.999996 -1.46068e-05 0)
(1.00001 -1.56173e-05 0)
(1.00002 -1.62764e-05 0)
(1.00003 -1.65073e-05 0)
(1.00004 -1.62586e-05 0)
(1.00005 -1.54946e-05 0)
(1.00007 -1.41973e-05 0)
(1.00008 -1.23645e-05 0)
(1.00008 -1.00117e-05 0)
(1.00009 -7.17703e-06 0)
(1.00009 -3.92617e-06 0)
(1.0001 -3.56718e-07 0)
(1.00009 3.40031e-06 0)
(1.00009 7.18481e-06 0)
(1.00008 1.08161e-05 0)
(1.00007 1.41055e-05 0)
(1.00006 1.68741e-05 0)
(1.00005 1.89713e-05 0)
(1.00003 2.02924e-05 0)
(1.00002 2.07898e-05 0)
(1 2.04756e-05 0)
(0.999989 1.94159e-05 0)
(0.999975 1.77219e-05 0)
(0.999963 1.55402e-05 0)
(0.999952 1.30377e-05 0)
(0.999944 1.03753e-05 0)
(0.999938 7.68442e-06 0)
(0.999933 5.0624e-06 0)
(0.99993 2.57416e-06 0)
(0.99993 2.6811e-07 0)
(0.999931 -1.79712e-06 0)
(0.999933 -3.52837e-06 0)
(0.999936 -4.80556e-06 0)
(0.99994 -5.53194e-06 0)
(0.999945 -5.69612e-06 0)
(0.999949 -5.40377e-06 0)
(0.999953 -4.8536e-06 0)
(0.999957 -4.26214e-06 0)
(0.999959 -3.7822e-06 0)
(0.999962 -3.47013e-06 0)
(0.999964 -3.31004e-06 0)
(0.999967 -3.25451e-06 0)
(0.999969 -3.25139e-06 0)
(0.999972 -3.25668e-06 0)
(0.999974 -3.24019e-06 0)
(0.999976 -3.18571e-06 0)
(0.999979 -3.08818e-06 0)
(0.999981 -2.95014e-06 0)
(0.999983 -2.77866e-06 0)
(0.999985 -2.5828e-06 0)
(0.999987 -2.37195e-06 0)
(0.999989 -2.15469e-06 0)
(0.99999 -1.9383e-06 0)
(0.999992 -1.7285e-06 0)
(0.999993 -1.52948e-06 0)
(0.999994 -1.34407e-06 0)
(0.999995 -1.1739e-06 0)
(0.999996 -1.0197e-06 0)
(0.999996 -8.81462e-07 0)
(0.999997 -7.5866e-07 0)
(0.999997 -6.50424e-07 0)
(0.999998 -5.55665e-07 0)
(0.999998 -4.73184e-07 0)
(0.999999 -4.01742e-07 0)
(0.999999 -3.40123e-07 0)
(0.999999 -2.87169e-07 0)
(0.999999 -2.41797e-07 0)
(0.999999 -2.0302e-07 0)
(1 -1.69944e-07 0)
(1 -1.41769e-07 0)
(1 -1.17788e-07 0)
(1 -9.73739e-08 0)
(1 -7.99761e-08 0)
(1 -6.51021e-08 0)
(1 -5.23646e-08 0)
(1 -4.11805e-08 0)
(1 -3.22784e-08 0)
(1 -1.9788e-08 0)
(1 1.49785e-11 0)
(1 3.86122e-11 0)
(1 6.29774e-11 0)
(1 8.90005e-11 0)
(1 1.15567e-10 0)
(1 1.43072e-10 0)
(1 1.72483e-10 0)
(1 2.04895e-10 0)
(1 2.41066e-10 0)
(1 2.81157e-10 0)
(1 3.24885e-10 0)
(1 3.71936e-10 0)
(1 4.22345e-10 0)
(1 4.76663e-10 0)
(1 5.35855e-10 0)
(1 6.01035e-10 0)
(1 6.73176e-10 0)
(1 7.529e-10 0)
(1 8.4041e-10 0)
(1 9.35538e-10 0)
(1 1.03785e-09 0)
(1 1.14679e-09 0)
(1 1.26173e-09 0)
(1 1.38211e-09 0)
(1 1.5074e-09 0)
(1 1.63713e-09 0)
(1 1.77084e-09 0)
(1 1.90797e-09 0)
(1 2.04783e-09 0)
(1 2.1894e-09 0)
(1 2.33132e-09 0)
(1 2.47157e-09 0)
(1 2.60735e-09 0)
(1 2.73484e-09 0)
(1 2.84901e-09 0)
(1 2.94352e-09 0)
(1 3.01051e-09 0)
(1 3.0403e-09 0)
(1 3.02099e-09 0)
(1 2.93784e-09 0)
(1 2.77246e-09 0)
(1 2.5018e-09 0)
(1 2.09702e-09 0)
(1 1.52214e-09 0)
(1 7.33381e-10 0)
(1 -3.22428e-10 0)
(1 -1.71074e-09 0)
(1 -3.51057e-09 0)
(1 -5.81699e-09 0)
(1 -8.74465e-09 0)
(1 -1.24318e-08 0)
(1 -1.70448e-08 0)
(1 -2.27821e-08 0)
(1 -2.98804e-08 0)
(1 -3.86236e-08 0)
(1 -4.9357e-08 0)
(1 -6.25027e-08 0)
(1 -7.85705e-08 0)
(1 -9.81678e-08 0)
(1 -1.22012e-07 0)
(1 -1.50953e-07 0)
(1 -1.85984e-07 0)
(1 -2.28238e-07 0)
(1 -2.78955e-07 0)
(1 -3.39458e-07 0)
(1 -4.11169e-07 0)
(1 -4.95648e-07 0)
(1 -5.94593e-07 0)
(1 -7.09737e-07 0)
(1 -8.42639e-07 0)
(1 -9.94431e-07 0)
(1 -1.16554e-06 0)
(1 -1.3553e-06 0)
(1.00001 -1.56142e-06 0)
(1.00001 -1.77931e-06 0)
(1.00001 -2.00177e-06 0)
(1.00001 -2.21873e-06 0)
(1.00001 -2.41699e-06 0)
(1.00001 -2.57985e-06 0)
(1.00001 -2.68686e-06 0)
(1.00002 -2.71404e-06 0)
(1.00002 -2.6494e-06 0)
(1.00002 -2.49591e-06 0)
(1.00002 -2.2689e-06 0)
(1.00002 -1.99695e-06 0)
(1.00002 -1.72541e-06 0)
(1.00002 -1.51843e-06 0)
(1.00002 -1.45248e-06 0)
(1.00003 -1.59646e-06 0)
(1.00003 -1.97646e-06 0)
(1.00003 -2.53307e-06 0)
(1.00003 -3.09674e-06 0)
(1.00003 -3.42044e-06 0)
(1.00003 -3.27778e-06 0)
(1.00004 -2.56794e-06 0)
(1.00004 -1.34765e-06 0)
(1.00004 2.22226e-07 0)
(1.00004 1.96352e-06 0)
(1.00004 3.74247e-06 0)
(1.00003 5.48813e-06 0)
(1.00003 7.16625e-06 0)
(1.00003 8.74117e-06 0)
(1.00002 1.01602e-05 0)
(1.00001 1.13562e-05 0)
(1 1.225e-05 0)
(0.999997 1.27598e-05 0)
(0.999989 1.28259e-05 0)
(0.999981 1.24283e-05 0)
(0.999973 1.15821e-05 0)
(0.999966 1.03221e-05 0)
(0.99996 8.69497e-06 0)
(0.999955 6.75866e-06 0)
(0.999951 4.58003e-06 0)
(0.999949 2.22774e-06 0)
(0.999948 -2.35012e-07 0)
(0.999949 -2.751e-06 0)
(0.999951 -5.26703e-06 0)
(0.999955 -7.73213e-06 0)
(0.999961 -1.0095e-05 0)
(0.999968 -1.23019e-05 0)
(0.999976 -1.42959e-05 0)
(0.999986 -1.60184e-05 0)
(0.999996 -1.74118e-05 0)
(1.00001 -1.84223e-05 0)
(1.00002 -1.89992e-05 0)
(1.00003 -1.90916e-05 0)
(1.00004 -1.86616e-05 0)
(1.00006 -1.76742e-05 0)
(1.00007 -1.61013e-05 0)
(1.00008 -1.39291e-05 0)
(1.00008 -1.11669e-05 0)
(1.00009 -7.85439e-06 0)
(1.00009 -4.06582e-06 0)
(1.0001 8.58403e-08 0)
(1.00009 4.45036e-06 0)
(1.00009 8.84169e-06 0)
(1.00008 1.3048e-05 0)
(1.00007 1.68477e-05 0)
(1.00006 2.00311e-05 0)
(1.00005 2.24222e-05 0)
(1.00003 2.38999e-05 0)
(1.00002 2.4411e-05 0)
(1 2.39735e-05 0)
(0.999988 2.26683e-05 0)
(0.999974 2.06284e-05 0)
(0.999962 1.80283e-05 0)
(0.999952 1.50653e-05 0)
(0.999943 1.19282e-05 0)
(0.999937 8.76648e-06 0)
(0.999932 5.68517e-06 0)
(0.99993 2.75222e-06 0)
(0.999929 1.86724e-08 0)
(0.99993 -2.44698e-06 0)
(0.999932 -4.52627e-06 0)
(0.999936 -6.06098e-06 0)
(0.99994 -6.92014e-06 0)
(0.999945 -7.08242e-06 0)
(0.999949 -6.67865e-06 0)
(0.999953 -5.96138e-06 0)
(0.999957 -5.20617e-06 0)
(0.99996 -4.6041e-06 0)
(0.999962 -4.22062e-06 0)
(0.999965 -4.03006e-06 0)
(0.999967 -3.96961e-06 0)
(0.999969 -3.97265e-06 0)
(0.999972 -3.98409e-06 0)
(0.999974 -3.96672e-06 0)
(0.999977 -3.90108e-06 0)
(0.999979 -3.78149e-06 0)
(0.999981 -3.61159e-06 0)
(0.999983 -3.40042e-06 0)
(0.999985 -3.1594e-06 0)
(0.999987 -2.90017e-06 0)
(0.999989 -2.63334e-06 0)
(0.99999 -2.36784e-06 0)
(0.999992 -2.11066e-06 0)
(0.999993 -1.86691e-06 0)
(0.999994 -1.63999e-06 0)
(0.999995 -1.43188e-06 0)
(0.999996 -1.24341e-06 0)
(0.999996 -1.07454e-06 0)
(0.999997 -9.24602e-07 0)
(0.999997 -7.92509e-07 0)
(0.999998 -6.76909e-07 0)
(0.999998 -5.76321e-07 0)
(0.999999 -4.89224e-07 0)
(0.999999 -4.14124e-07 0)
(0.999999 -3.49598e-07 0)
(0.999999 -2.94323e-07 0)
(0.999999 -2.4709e-07 0)
(1 -2.06804e-07 0)
(1 -1.72489e-07 0)
(1 -1.43279e-07 0)
(1 -1.18406e-07 0)
(1 -9.72008e-08 0)
(1 -7.90622e-08 0)
(1 -6.35184e-08 0)
(1 -4.98642e-08 0)
(1 -3.89818e-08 0)
(1 -2.37436e-08 0)
(1 1.76964e-11 0)
(1 4.55752e-11 0)
(1 7.4334e-11 0)
(1 1.05083e-10 0)
(1 1.36486e-10 0)
(1 1.68981e-10 0)
(1 2.0367e-10 0)
(1 2.41803e-10 0)
(1 2.84251e-10 0)
(1 3.31189e-10 0)
(1 3.82239e-10 0)
(1 4.3695e-10 0)
(1 4.95268e-10 0)
(1 5.57765e-10 0)
(1 6.25553e-10 0)
(1 6.99977e-10 0)
(1 7.82254e-10 0)
(1 8.732e-10 0)
(1 9.7313e-10 0)
(1 1.08191e-09 0)
(1 1.19912e-09 0)
(1 1.32416e-09 0)
(1 1.45646e-09 0)
(1 1.5955e-09 0)
(1 1.74085e-09 0)
(1 1.89218e-09 0)
(1 2.04921e-09 0)
(1 2.21159e-09 0)
(1 2.37883e-09 0)
(1 2.55001e-09 0)
(1 2.7236e-09 0)
(1 2.89717e-09 0)
(1 3.06718e-09 0)
(1 3.22876e-09 0)
(1 3.37558e-09 0)
(1 3.49972e-09 0)
(1 3.59142e-09 0)
(1 3.63867e-09 0)
(1 3.62682e-09 0)
(1 3.53789e-09 0)
(1 3.34977e-09 0)
(1 3.03498e-09 0)
(1 2.5598e-09 0)
(1 1.88267e-09 0)
(1 9.52804e-10 0)
(1 -2.91383e-10 0)
(1 -1.92562e-09 0)
(1 -4.04223e-09 0)
(1 -6.75288e-09 0)
(1 -1.01924e-08 -3.628e-43)
(1 -1.45237e-08 -3.84274e-43)
(1 -1.99425e-08 0)
(1 -2.66829e-08 0)
(1 -3.5023e-08 0)
(1 -4.52964e-08 0)
(1 -5.79096e-08 0)
(1 -7.33597e-08 0)
(1 -9.22474e-08 0)
(1 -1.15287e-07 0)
(1 -1.43323e-07 0)
(1 -1.77351e-07 0)
(1 -2.18546e-07 0)
(1 -2.68245e-07 0)
(1 -3.27913e-07 0)
(1 -3.99107e-07 0)
(1 -4.835e-07 0)
(1 -5.82937e-07 0)
(1 -6.99457e-07 0)
(1 -8.35168e-07 0)
(1 -9.91967e-07 0)
(1 -1.17119e-06 0)
(1 -1.37336e-06 0)
(1 -1.59788e-06 0)
(1.00001 -1.84267e-06 0)
(1.00001 -2.10295e-06 0)
(1.00001 -2.36972e-06 0)
(1.00001 -2.62858e-06 0)
(1.00001 -2.86089e-06 0)
(1.00001 -3.04754e-06 0)
(1.00001 -3.1714e-06 0)
(1.00002 -3.2158e-06 0)
(1.00002 -3.1696e-06 0)
(1.00002 -3.02907e-06 0)
(1.00002 -2.80133e-06 0)
(1.00002 -2.51224e-06 0)
(1.00002 -2.2134e-06 0)
(1.00002 -1.98382e-06 0)
(1.00002 -1.92093e-06 0)
(1.00003 -2.11533e-06 0)
(1.00003 -2.60625e-06 0)
(1.00003 -3.3255e-06 0)
(1.00003 -4.06294e-06 0)
(1.00003 -4.50567e-06 0)
(1.00003 -4.3643e-06 0)
(1.00004 -3.50976e-06 0)
(1.00004 -2.01471e-06 0)
(1.00004 -8.27423e-08 0)
(1.00004 2.06035e-06 0)
(1.00004 4.2487e-06 0)
(1.00003 6.39868e-06 0)
(1.00003 8.47238e-06 0)
(1.00003 1.04272e-05 0)
(1.00002 1.21977e-05 0)
(1.00001 1.37007e-05 0)
(1.00001 1.48371e-05 0)
(0.999997 1.55032e-05 0)
(0.999989 1.5623e-05 0)
(0.99998 1.51714e-05 0)
(0.999973 1.41677e-05 0)
(0.999965 1.26548e-05 0)
(0.999959 1.06901e-05 0)
(0.999954 8.34708e-06 0)
(0.99995 5.71056e-06 0)
(0.999948 2.86695e-06 0)
(0.999947 -1.04155e-07 0)
(0.999948 -3.1311e-06 0)