/*--------------------------------*- C++ -*----------------------------------*\
| =========                 |                                                 |
| \\      /  F ield         | OpenFOAM: The Open Source CFD Toolbox           |
|  \\    /   O peration     | Version:  v2006                                 |
|   \\  /    A nd           | Website:  www.openfoam.com                      |
|    \\/     M anipulation  |                                                 |
\*---------------------------------------------------------------------------*/
FoamFile
{
    version     2.0;
    format      ascii;
    class       volScalarField;
    location    "0";
    object      p;
}
// * * * * * * * * * * * * * * * * * * * * * * * * * * * * * * * * * * * * * //

dimensions      [1 -1 -2 0 0 0 0];


internalField   nonuniform List<scalar> 
20000
(
0.000104893
0.000105277
0.000106069
0.000107216
0.000108737
0.000110602
0.000112793
0.000115281
0.000118023
0.000120971
0.000124068
0.000127239
0.000130395
0.000133425
0.000136195
0.000138544
0.000140276
0.000141155
0.000140899
0.000139168
0.000135557
0.000129585
0.000120679
0.000108167
9.12533e-05
6.90104e-05
4.03596e-05
4.05762e-06
-4.13119e-05
-9.7334e-05
-0.000165741
-0.000248363
-0.000347035
-0.000463446
-0.000598881
-0.00075385
-0.000927598
-0.00111754
-0.00131873
-0.00152337
-0.00172096
-0.00189941
-0.00204801
-0.00216283
-0.00225283
-0.00234186
-0.00245336
-0.00259764
-0.00281037
-0.00304525
-0.00326844
-0.00342739
-0.00351282
-0.00350554
-0.00339932
-0.00318917
-0.00287301
-0.00245369
-0.00193825
-0.00133916
-0.000677217
1.90211e-05
0.00071826
0.00139117
0.00201295
0.00256069
0.00302397
0.00337477
0.00361022
0.00372387
0.00371226
0.00357506
0.00331502
0.00293827
0.00245456
0.00187757
0.00122486
0.0005175
-0.000220249
-0.000955865
-0.00165069
-0.0023347
-0.00295942
-0.00351379
-0.00399274
-0.00439941
-0.00474721
-0.005042
-0.00529589
-0.00552161
-0.00572501
-0.00590589
-0.00605848
-0.00617228
-0.00623361
-0.0062276
-0.00614097
-0.00596523
-0.00570061
-0.00535753
-0.00494991
-0.00448694
-0.00399444
-0.00348123
-0.00295466
-0.00242599
-0.00191207
-0.00143903
-0.00103735
-0.00072922
-0.000516845
-0.000378917
-0.000278722
-0.000181373
-6.81519e-05
6.25232e-05
0.000203361
0.000345053
0.000479016
0.000598716
0.000700305
0.000782277
0.000844785
0.000889071
0.000917011
0.000930754
0.000932489
0.000924304
0.000908111
0.000885602
0.000858249
0.000827308
0.000793835
0.000758707
0.000722645
0.000686234
0.000649945
0.000614148
0.000579133
0.00054512
0.000512273
0.000480706
0.000450499
0.000421697
0.000394321
0.000368373
0.000343837
0.000320686
0.000298883
0.000278385
0.000259142
0.000241102
0.000224214
0.000208453
0.000193676
0.000179883
0.000167013
0.000155025
0.000143856
0.000133459
0.000123785
0.000114789
0.000106426
9.86557e-05
9.14385e-05
8.47376e-05
7.85181e-05
7.27474e-05
6.73947e-05
6.24313e-05
5.78301e-05
5.35657e-05
4.96143e-05
4.59539e-05
4.25635e-05
3.9424e-05
3.65175e-05
3.38273e-05
3.1338e-05
2.90351e-05
2.69054e-05
2.49366e-05
2.31171e-05
2.14362e-05
1.98839e-05
1.84511e-05
1.71292e-05
1.59105e-05
1.47877e-05
1.37542e-05
1.2804e-05
1.19314e-05
1.11314e-05
1.03993e-05
9.73057e-06
9.12114e-06
8.56762e-06
8.06513e-06
7.615e-06
7.19954e-06
0.000104856
0.000105241
0.000106037
0.000107185
0.000108706
0.000110573
0.000112767
0.000115258
0.000118004
0.000120959
0.000124062
0.000127241
0.000130407
0.000133449
0.000136234
0.000138601
0.000140354
0.000141259
0.000141033
0.000139339
0.000135772
0.000129851
0.000121007
0.000108566
9.17368e-05
6.95913e-05
4.10526e-05
4.87801e-06
-4.03494e-05
-9.6217e-05
-0.000164462
-0.000246922
-0.000345449
-0.000461756
-0.00059716
-0.000752214
-0.000926208
-0.00111661
-0.00131848
-0.00152404
-0.00172266
-0.00190197
-0.00205074
-0.00216443
-0.00225205
-0.00233963
-0.00246471
-0.00264915
-0.00286625
-0.0030952
-0.00330895
-0.00345661
-0.00353389
-0.00352025
-0.00340773
-0.00319083
-0.00286776
-0.00244167
-0.00192001
-0.00131562
-0.000649839
4.83784e-05
0.000747726
0.00141962
0.00203905
0.00258511
0.00303704
0.00338674
0.00362189
0.00373542
0.00372364
0.00358602
0.00332523
0.00294729
0.00246196
0.0018829
0.00122774
0.000517388
-0.000225312
-0.000979179
-0.00172469
-0.00241422
-0.00304102
-0.00359386
-0.00407065
-0.00446712
-0.00479944
-0.00507811
-0.00531475
-0.0055217
-0.0057065
-0.00587091
-0.00601052
-0.00611562
-0.00617275
-0.00616693
-0.00608433
-0.00591576
-0.00566004
-0.00532484
-0.00492475
-0.004478
-0.00399239
-0.00348067
-0.00295396
-0.00242414
-0.00190814
-0.0014327
-0.00102932
-0.000721089
-0.000510475
-0.000375512
-0.000278152
-0.000182426
-6.94949e-05
6.16763e-05
0.000203273
0.000345704
0.000480238
0.000600287
0.000702025
0.000783998
0.000846406
0.000890533
0.000918286
0.000931836
0.000933386
0.00092503
0.000908685
0.000886043
0.000858578
0.000827541
0.000793988
0.000758795
0.000722679
0.000686226
0.000649903
0.00061408
0.000579045
0.000545017
0.000512159
0.000480585
0.000450373
0.000421569
0.000394194
0.000368247
0.000343713
0.000320565
0.000298766
0.000278272
0.000259032
0.000240995
0.000224105
0.000208291
0.000193535
0.000179762
0.00016691
0.000154938
0.000143779
0.000133391
0.000123724
0.000114734
0.000106377
9.86112e-05
9.13984e-05
8.47012e-05
7.84852e-05
7.27176e-05
6.73677e-05
6.24068e-05
5.78078e-05
5.35454e-05
4.95958e-05
4.5937e-05
4.25481e-05
3.941e-05
3.65047e-05
3.38155e-05
3.13272e-05
2.90253e-05
2.68965e-05
2.49284e-05
2.31096e-05
2.14293e-05
1.98776e-05
1.84453e-05
1.71239e-05
1.59057e-05
1.47833e-05
1.37502e-05
1.28003e-05
1.19281e-05
1.11284e-05
1.03966e-05
9.72823e-06
9.11912e-06
8.56599e-06
8.06386e-06
7.61551e-06
7.19165e-06
0.000104786
0.000105173
0.000105969
0.000107119
0.000108643
0.000110515
0.000112715
0.000115212
0.000117968
0.000120933
0.000124049
0.000127245
0.000130431
0.000133497
0.000136312
0.000138714
0.00014051
0.000141466
0.000141302
0.000139681
0.000136201
0.000130384
0.000121662
0.000109364
9.27027e-05
7.0752e-05
4.24373e-05
6.5173e-06
-3.84259e-05
-9.39841e-05
-0.000161904
-0.000244041
-0.000342274
-0.000458362
-0.00059369
-0.000748898
-0.000923375
-0.00111469
-0.00131795
-0.00152535
-0.00172602
-0.00190702
-0.00205638
-0.00216892
-0.00225375
-0.00233647
-0.00244926
-0.00261719
-0.00283127
-0.00306935
-0.00328163
-0.00345378
-0.00353745
-0.00352969
-0.00342264
-0.00321073
-0.00289188
-0.00246898
-0.00194883
-0.00134362
-0.000674587
2.86124e-05
0.000733978
0.00141247
0.00203876
0.00259161
0.0030505
0.00340498
0.00364247
0.00375721
0.00374587
0.00360806
0.00334652
0.00296731
0.00248017
0.00189875
0.00124058
0.000527105
-0.00021658
-0.000964707
-0.00169656
-0.00238062
-0.00300783
-0.00356236
-0.00403541
-0.00444383
-0.00477915
-0.00506124
-0.00530513
-0.00552173
-0.00571816
-0.00589501
-0.0060466
-0.00616203
-0.0062269
-0.00622549
-0.00614342
-0.00597115
-0.0057077
-0.00536242
-0.00495229
-0.00449556
-0.00400272
-0.00348555
-0.00295541
-0.00242181
-0.00190095
-0.00142031
-0.00101329
-0.000704756
-0.00049768
-0.000368729
-0.000277113
-0.000184643
-7.22527e-05
5.9952e-05
0.000203093
0.000347016
0.000482698
0.000603445
0.000705479
0.000787449
0.000849652
0.000893458
0.000920837
0.000934
0.000935178
0.000926481
0.000909831
0.000886925
0.000859233
0.000828005
0.000794293
0.000758969
0.000722748
0.000686209
0.000649818
0.000613943
0.000578867
0.00054481
0.00051193
0.000480342
0.000450122
0.000421314
0.000393938
0.000367993
0.000343464
0.000320323
0.000298532
0.000278047
0.000258818
0.000240794
0.000223921
0.000208132
0.000193389
0.000179619
0.000166783
0.0001548
0.000143647
0.000133264
0.000123603
0.000114619
0.000106268
9.85083e-05
9.13013e-05
8.46098e-05
7.83993e-05
7.26369e-05
6.72921e-05
6.2336e-05
5.77416e-05
5.34835e-05
4.95381e-05
4.58831e-05
4.24979e-05
3.93631e-05
3.6461e-05
3.37749e-05
3.12893e-05
2.899e-05
2.68636e-05
2.48978e-05
2.30812e-05
2.14028e-05
1.9853e-05
1.84224e-05
1.71026e-05
1.58857e-05
1.47647e-05
1.37329e-05
1.27841e-05
1.1913e-05
1.11143e-05
1.03833e-05
9.7157e-06
9.1073e-06
8.55478e-06
8.05327e-06
7.60433e-06
7.182e-06
0.000104682
0.000105069
0.000105867
0.00010702
0.00010855
0.000110428
0.000112636
0.000115144
0.000117912
0.000120894
0.00012403
0.000127251
0.000130466
0.000133569
0.000136427
0.000138882
0.000140742
0.000141775
0.000141703
0.000140192
0.000136843
0.00013118
0.000122641
0.000110559
9.41486e-05
7.24897e-05
4.4511e-05
8.97317e-06
-3.55429e-05
-9.06355e-05
-0.000158065
-0.000239713
-0.000337502
-0.000453262
-0.000588479
-0.000743921
-0.000919123
-0.00111179
-0.00131714
-0.00152733
-0.00173116
-0.0019149
-0.00206507
-0.0021747
-0.00225238
-0.00232715
-0.00243881
-0.00261457
-0.00284277
-0.00309249
-0.0033189
-0.00348675
-0.00357192
-0.00356385
-0.00345553
-0.00324114
-0.00291835
-0.00249032
-0.00196375
-0.00135049
-0.000672295
3.98854e-05
0.000752868
0.00143708
0.00206736
0.00262243
0.00308335
0.00343815
0.00367641
0.00379157
0.00378002
0.00364119
0.00337764
0.00299524
0.00250363
0.00191646
0.00125147
0.000530208
-0.000223006
-0.000983194
-0.00172653
-0.00242204
-0.00305445
-0.00361094
-0.00408945
-0.00448528
-0.00481229
-0.00508657
-0.00532222
-0.00553085
-0.00572023
-0.00589164
-0.0060398
-0.00615392
-0.00621938
-0.00621986
-0.00614007
-0.00596945
-0.00570671
-0.00536199
-0.0049529
-0.00449669
-0.00400403
-0.0034867
-0.00295452
-0.00241684
-0.00188937
-0.00140113
-0.000988698
-0.00067977
-0.000478192
-0.000358549
-0.000275775
-0.000188226
-7.65564e-05
5.72991e-05
0.000202821
0.00034902
0.000486437
0.000608226
0.000710694
0.000792648
0.000854537
0.000897853
0.000924664
0.000937244
0.000937862
0.000928653
0.000911546
0.000888243
0.000860211
0.000828698
0.000794748
0.000759228
0.000722848
0.000686182
0.00064969
0.000613735
0.0005786
0.000544498
0.000511587
0.000479978
0.000449744
0.00042093
0.000393554
0.000367613
0.000343091
0.00031996
0.000298181
0.000277708
0.000258492
0.00024048
0.000223616
0.00020784
0.000193107
0.000179354
0.000166521
0.000154571
0.000143434
0.000133066
0.000123419
0.000114448
0.000106109
9.83607e-05
9.11643e-05
8.44827e-05
7.82814e-05
7.25275e-05
6.71906e-05
6.22419e-05
5.76543e-05
5.34027e-05
4.94631e-05
4.58136e-05
4.24334e-05
3.93033e-05
3.64056e-05
3.37235e-05
3.12418e-05
2.89459e-05
2.68228e-05
2.486e-05
2.3046e-05
2.13703e-05
1.98227e-05
1.83943e-05
1.70765e-05
1.58615e-05
1.47422e-05
1.37119e-05
1.27646e-05
1.18948e-05
1.10973e-05
1.03674e-05
9.70086e-06
9.09337e-06
8.54167e-06
8.0408e-06
7.59242e-06
7.17131e-06
0.000104542
0.00010493
0.00010573
0.000106888
0.000108425
0.000110311
0.00011253
0.000115052
0.000117838
0.000120841
0.000124004
0.000127257
0.000130512
0.000133663
0.00013658
0.000139105
0.000141051
0.000142186
0.000142236
0.000140871
0.000137695
0.000132239
0.000123943
0.000112146
9.60707e-05
7.48006e-05
4.72696e-05
1.22415e-05
-3.17043e-05
-8.61745e-05
-0.000152948
-0.000233937
-0.000331123
-0.000446425
-0.000581466
-0.000737186
-0.000913323
-0.00110779
-0.00131595
-0.00152992
-0.00173805
-0.00192549
-0.00207691
-0.00218335
-0.00225304
-0.00231789
-0.00242257
-0.00259662
-0.00283032
-0.00308918
-0.00332571
-0.00350544
-0.00359756
-0.00359376
-0.00348885
-0.00327659
-0.00295438
-0.00252549
-0.00199594
-0.00137654
-0.000689302
3.3156e-05
0.000756113
0.00144949
0.00208826
0.00265076
0.00311803
0.00347758
0.00371899
0.00383587
0.00382481
0.00368531
0.00341991
0.00303445
0.00253855
0.00194584
0.00127418
0.000545339
-0.000215742
-0.000982901
-0.00173058
-0.00243041
-0.00306544
-0.00362308
-0.00409787
-0.0044935
-0.00481975
-0.00509167
-0.00532569
-0.00553494
-0.0057276
-0.00590481
-0.00606065
-0.00618332
-0.006257
-0.00626407
-0.00618789
-0.00601679
-0.00574934
-0.00539711
-0.00497983
-0.00451575
-0.00401674
-0.00349384
-0.00295654
-0.00241207
-0.00187485
-0.0013757
-0.000955497
-0.000645847
-0.000451807
-0.000345052
-0.000274455
-0.00019352
-8.26229e-05
5.36303e-05
0.000202453
0.000351754
0.000491508
0.000614681
0.000717708
0.000799623
0.000861074
0.000903726
0.00092977
0.000941567
0.000941436
0.000931541
0.000913825
0.000889992
0.000861509
0.000829615
0.000795349
0.000759569
0.000722977
0.000686142
0.000649516
0.000613457
0.000578242
0.000544081
0.000511127
0.00047949
0.00044924
0.000420418
0.000393041
0.000367105
0.000342594
0.000319475
0.000297711
0.000277256
0.00025806
0.000240069
0.000223228
0.000207476
0.000192764
0.000179031
0.000166226
0.000154282
0.00014316
0.000132808
0.000123177
0.00011422
0.000105896
9.81609e-05
9.09773e-05
8.43079e-05
7.81181e-05
7.23752e-05
6.70486e-05
6.21096e-05
5.75311e-05
5.32879e-05
4.93563e-05
4.57143e-05
4.2341e-05
3.92174e-05
3.63258e-05
3.36494e-05
3.11729e-05
2.88819e-05
2.67633e-05
2.48048e-05
2.29947e-05
2.13226e-05
1.97784e-05
1.83531e-05
1.70382e-05
1.58259e-05
1.4709e-05
1.3681e-05
1.27358e-05
1.18679e-05
1.10722e-05
1.0344e-05
9.67884e-06
9.07267e-06
8.52215e-06
8.02232e-06
7.57489e-06
7.1549e-06
0.000104367
0.000104756
0.00010556
0.000106724
0.000108268
0.000110165
0.000112398
0.000114937
0.000117745
0.000120774
0.00012397
0.000127263
0.000130568
0.000133779
0.000136768
0.000139382
0.000141433
0.000142696
0.000142898
0.000141715
0.000138755
0.000133555
0.000125562
0.000114123
9.84644e-05
7.76793e-05
5.07075e-05
1.63171e-05
-2.69139e-05
-8.06022e-05
-0.000146548
-0.000226704
-0.00032312
-0.000437832
-0.000572632
-0.00072868
-0.00090597
-0.00110267
-0.00131435
-0.00153311
-0.00174681
-0.00193926
-0.00209261
-0.00219479
-0.00225297
-0.00230341
-0.00239944
-0.00257638
-0.00282438
-0.00310231
-0.00335702
-0.00354596
-0.00364325
-0.00364224
-0.00353904
-0.00332667
-0.00300209
-0.0025689
-0.00203243
-0.0014023
-0.000701182
3.58748e-05
0.000772042
0.00147661
0.00212472
0.00269457
0.00316752
0.00353075
0.00377465
0.00389285
0.00388186
0.00374104
0.00347272
0.00308255
0.00257995
0.00197858
0.00129643
0.00055567
-0.000218175
-0.000998053
-0.00175688
-0.00246668
-0.00310827
-0.00366846
-0.00414201
-0.00453197
-0.00485041
-0.00511382
-0.00534038
-0.00554441
-0.00573465
-0.00591237
-0.00607136
-0.00619911
-0.00627879
-0.00629156
-0.00621922
-0.00604849
-0.00577748
-0.00541938
-0.00499638
-0.00452766
-0.00402486
-0.00349843
-0.00295682
-0.00240509
-0.00185602
-0.00134299
-0.000912724
-0.000602126
-0.000417999
-0.000328231
-0.000273544
-0.000200964
-9.07228e-05
4.88474e-05
0.000201996
0.000355282
0.000497993
0.000622881
0.000726578
0.00080841
0.000869286
0.000911086
0.000936158
0.000946966
0.000945894
0.000935138
0.00091666
0.000892166
0.000863118
0.00083075
0.00079609
0.000759986
0.000723132
0.000686085
0.000649293
0.000613104
0.00057779
0.000543556
0.000510551
0.000478879
0.000448608
0.000419777
0.000392399
0.00036647
0.000341971
0.000318869
0.000297125
0.000276692
0.000257519
0.000239552
0.000222734
0.000207007
0.000192318
0.000178609
0.000165824
0.000153908
0.000142811
0.000132481
0.000122871
0.000113935
0.000105629
9.79124e-05
9.07458e-05
8.40923e-05
7.79174e-05
7.21884e-05
6.68749e-05
6.19482e-05
5.73811e-05
5.31486e-05
4.92269e-05
4.55941e-05
4.22294e-05
3.91138e-05
3.62296e-05
3.35601e-05
3.109e-05
2.88051e-05
2.6692e-05
2.47386e-05
2.29333e-05
2.12656e-05
1.97254e-05
1.83039e-05
1.69924e-05
1.57833e-05
1.46694e-05
1.36442e-05
1.27015e-05
1.18359e-05
1.10423e-05
1.0316e-05
9.65263e-06
9.04803e-06
8.49893e-06
8.00038e-06
7.55409e-06
7.1353e-06
0.000104156
0.000104547
0.000105355
0.000106526
0.00010808
0.000109989
0.000112238
0.000114798
0.000117631
0.000120693
0.000123928
0.00012727
0.000130633
0.000133915
0.000136992
0.00013971
0.000141888
0.000143302
0.000143686
0.00014272
0.000140019
0.000135126
0.000127495
0.000116482
0.000101323
8.11193e-05
5.48181e-05
2.11934e-05
-2.11779e-05
-7.39236e-05
-0.000138869
-0.00021801
-0.000313479
-0.000427448
-0.000561911
-0.000718297
-0.000896913
-0.00109626
-0.00131218
-0.00153683
-0.0017575
-0.00195634
-0.00211236
-0.0022095
-0.00225353
-0.00228616
-0.00237122
-0.00255073
-0.00281362
-0.00311127
-0.00338431
-0.00358609
-0.00369066
-0.00369401
-0.00359411
-0.00338301
-0.00305711
-0.00262057
-0.0020777
-0.00143628
-0.000719626
3.41688e-05
0.00078568
0.00150358
0.00216328
0.00274283
0.00322349
0.00359234
0.00384008
0.0039604
0.00394986
0.00380777
0.00353638
0.00314116
0.00263144
0.00202085
0.00132756
0.000574143
-0.000213215
-0.00100639
-0.00177684
-0.00249643
-0.00314432
-0.00370667
-0.00417825
-0.00456345
-0.00487524
-0.00513149
-0.00535197
-0.00555275
-0.00574341
-0.0059253
-0.00609163
-0.00622878
-0.00631845
-0.00634005
-0.0062733
-0.00610282
-0.00582612
-0.00545871
-0.0050263
-0.0045496
-0.00403999
-0.00350737
-0.00295964
-0.00239853
-0.00183425
-0.00130335
-0.000860005
-0.000547936
-0.000376318
-0.000308217
-0.000273635
-0.000211178
-0.000101221
4.28204e-05
0.000201457
0.000359684
0.000505991
0.000632916
0.000737369
0.000819054
0.0008792
0.000919945
0.000943829
0.000953438
0.000951228
0.000939438
0.000920043
0.000894756
0.000865033
0.000832097
0.000796965
0.000760475
0.000723307
0.000686009
0.000649018
0.000612675
0.000577244
0.000542922
0.000509855
0.000478142
0.000447847
0.000419005
0.000391627
0.000365707
0.000341223
0.000318141
0.000296421
0.000276014
0.00025687
0.000238933
0.000222145
0.00020645
0.000191792
0.000178113
0.000165357
0.000153469
0.000142397
0.000132093
0.000122507
0.000113594
0.00010531
9.76143e-05
9.04674e-05
8.38324e-05
7.76751e-05
7.19627e-05
6.66647e-05
6.17525e-05
5.71991e-05
5.29793e-05
4.90695e-05
4.54477e-05
4.20934e-05
3.89875e-05
3.61123e-05
3.34512e-05
3.09889e-05
2.87112e-05
2.66049e-05
2.46577e-05
2.28582e-05
2.11957e-05
1.96606e-05
1.82436e-05
1.69364e-05
1.57312e-05
1.46209e-05
1.3599e-05
1.26594e-05
1.17966e-05
1.10057e-05
1.02817e-05
9.62047e-06
9.01781e-06
8.47046e-06
7.97349e-06
7.52861e-06
7.11124e-06
0.000103911
0.000104303
0.000105115
0.000106294
0.000107859
0.000109784
0.000112051
0.000114635
0.000117498
0.000120596
0.000123877
0.000127274
0.000130706
0.000134071
0.000137248
0.000140089
0.000142412
0.000144003
0.000144598
0.000143884
0.000141483
0.000136945
0.000129736
0.000119218
0.000104641
8.51126e-05
5.95927e-05
2.68619e-05
-1.45032e-05
-6.61425e-05
-0.000129908
-0.000207845
-0.000302177
-0.000415233
-0.000549248
-0.000705967
-0.000886072
-0.00108847
-0.00130937
-0.00154102
-0.00177019
-0.00197713
-0.00213699
-0.00222839
-0.0022547
-0.00226425
-0.00233479
-0.00251781
-0.00280033
-0.00312428
-0.00342142
-0.00363869
-0.00375089
-0.00375857
-0.00366212
-0.00345196
-0.00312381
-0.00268276
-0.00213177
-0.0014761
-0.000739929
3.45712e-05
0.000804649
0.00153834
0.00221152
0.00280214
0.00329127
0.00366609
0.00391782
0.00404033
0.00403015
0.00388648
0.00361134
0.00320993
0.00269136
0.00206921
0.00136184
0.000592357
-0.000212197
-0.00102238
-0.00180807
-0.0025402
-0.00319633
-0.00376174
-0.00423106
-0.00460929
-0.00491113
-0.00515669
-0.00536792
-0.00556287
-0.00575213
-0.0059372
-0.00611061
-0.00625752
-0.00635798
-0.00638941
-0.00632908
-0.00615894
-0.00587565
-0.00549759
-0.00505507
-0.00457038
-0.00405401
-0.00351565
-0.00296221
-0.002391
-0.00180868
-0.00125577
-0.000796077
-0.000481994
-0.000325961
-0.000285071
-0.000275444
-0.000224914
-0.000114538
3.54175e-05
0.000200865
0.000365069
0.000515633
0.000644896
0.000750163
0.000831609
0.000890845
0.000930317
0.000952787
0.000960979
0.000957431
0.000944428
0.000923964
0.000897752
0.000867242
0.000833646
0.000797967
0.000761028
0.000723497
0.000685908
0.000648687
0.000612165
0.000576598
0.000542177
0.000509039
0.000477279
0.000446956
0.000418102
0.000390725
0.000364815
0.000340348
0.000317291
0.000295599
0.000275223
0.000256112
0.000238209
0.000221457
0.000205797
0.000191174
0.000177529
0.000164806
0.000152951
0.000141912
0.000131638
0.000122081
0.000113195
0.000104938
9.72665e-05
9.01429e-05
8.353e-05
7.73934e-05
7.17005e-05
6.64207e-05
6.15256e-05
5.6988e-05
5.27831e-05
4.88872e-05
4.52784e-05
4.19361e-05
3.88414e-05
3.59766e-05
3.33252e-05
3.0872e-05
2.86027e-05
2.65042e-05
2.45643e-05
2.27714e-05
2.11152e-05
1.95857e-05
1.8174e-05
1.68717e-05
1.56711e-05
1.4565e-05
1.35469e-05
1.26109e-05
1.17514e-05
1.09634e-05
1.02422e-05
9.58339e-06
8.98297e-06
8.43763e-06
7.9425e-06
7.49927e-06
7.08347e-06
0.000103629
0.000104023
0.00010484
0.000106028
0.000107606
0.000109547
0.000111836
0.000114447
0.000117343
0.000120484
0.000123816
0.000127277
0.000130785
0.000134245
0.000137536
0.000140514
0.000143004
0.000144795
0.000145629
0.000145201
0.000143141
0.000139008
0.000132277
0.000122324
0.000108407
8.96497e-05
6.50215e-05
3.33132e-05
-6.89818e-06
-5.72652e-05
-0.000119667
-0.000196204
-0.000289196
-0.000401148
-0.000534569
-0.000691575
-0.000873287
-0.0010791
-0.0013057
-0.00154558
-0.00178497
-0.00200203
-0.0021672
-0.00225221
-0.00225676
-0.00223738
-0.00228981
-0.00247745
-0.00278387
-0.00313902
-0.00346392
-0.00369855
-0.00381868
-0.00383097
-0.0037388
-0.00353001
-0.00319951
-0.00275393
-0.00219438
-0.0015226
-0.000763797
3.46284e-05
0.000825835
0.00157738
0.00226594
0.0028693
0.0033682
0.00375005
0.00400654
0.00413171
0.00412205
0.00397669
0.00369739
0.00328909
0.00276069
0.0021257
0.00140269
0.00061531
-0.000208412
-0.00103762
-0.00184051
-0.00258668
-0.00325194
-0.00382055
-0.00428708
-0.00465756
-0.00494839
-0.00518219
-0.00538348
-0.00557255
-0.00576122
-0.00595107
-0.00613385
-0.00629319
-0.00640716
-0.00645091
-0.0063987
-0.00622906
-0.00593741
-0.00554592
-0.00509087
-0.00459654
-0.00407195
-0.00352672
-0.00296706
-0.0023844
-0.0017803
-0.0012002
-0.000720025
-0.00040304
-0.000266104
-0.000258999
-0.000279963
-0.000243144
-0.00013119
2.64906e-05
0.000200265
0.000371578
0.000527077
0.000658955
0.000765057
0.000846137
0.000904256
0.000942218
0.000963034
0.000969582
0.000964493
0.000950097
0.000928408
0.00090114
0.000869734
0.000835387
0.000799087
0.000761639
0.000723695
0.000685776
0.000648295
0.000611572
0.000575852
0.000541318
0.0005081
0.000476287
0.000445934
0.000417067
0.000389691
0.000363793
0.000339348
0.000316318
0.000294658
0.000274319
0.000255246
0.000237383
0.000220671
0.000205053
0.00019047
0.000176864
0.00016418
0.000152363
0.000141359
0.000131119
0.000121595
0.000112741
0.000104513
9.68697e-05
8.97726e-05
8.31847e-05
7.70715e-05
7.14007e-05
6.61417e-05
6.12659e-05
5.67466e-05
5.25586e-05
4.86785e-05
4.50845e-05
4.1756e-05
3.86741e-05
3.58212e-05
3.3181e-05
3.07381e-05
2.84784e-05
2.63889e-05
2.44572e-05
2.2672e-05
2.10228e-05
1.94999e-05
1.80943e-05
1.67976e-05
1.56021e-05
1.45008e-05
1.34872e-05
1.25552e-05
1.16995e-05
1.09149e-05
1.01968e-05
9.54086e-06
8.94301e-06
8.4e-06
7.90697e-06
7.46563e-06
7.05163e-06
0.000103311
0.000103708
0.00010453
0.000105728
0.00010732
0.00010928
0.000111592
0.000114233
0.000117167
0.000120354
0.000123744
0.000127275
0.00013087
0.000134434
0.000137853
0.000140985
0.000143661
0.000145674
0.000146776
0.000146667
0.000144988
0.000141307
0.000135111
0.000125789
0.000112614
9.47198e-05
7.1093e-05
4.05355e-05
1.62648e-06
-4.72993e-05
-0.00010815
-0.000183078
-0.000274507
-0.000385139
-0.000517794
-0.000675007
-0.000858407
-0.00106797
-0.001301
-0.00155037
-0.00180188
-0.00203147
-0.002204
-0.00228219
-0.00226027
-0.00220462
-0.00223416
-0.0024275
-0.00276315
-0.00315609
-0.00351413
-0.0037687
-0.00389684
-0.00391383
-0.00382673
-0.00361953
-0.00328618
-0.00283577
-0.00226694
-0.00157652
-0.000790999
3.54195e-05
0.000850831
0.00162254
0.00232851
0.00294625
0.003456
0.00384556
0.00410728
0.00423536
0.0042263
0.00407908
0.00379518
0.00337915
0.00283958
0.00218986
0.00144877
0.000640612
-0.00020547
-0.00105698
-0.00188018
-0.00264286
-0.00331893
-0.00389136
-0.00435448
-0.00471552
-0.00499287
-0.00521215
-0.00540104
-0.00558253
-0.00576985
-0.00596473
-0.00615798
-0.00633148
-0.00646105
-0.00651922
-0.00647671
-0.00630771
-0.00600589
-0.00559823
-0.00512886
-0.00462417
-0.00409075
-0.00353848
-0.00297325
-0.00237859
-0.0017489
-0.00113573
-0.000630234
-0.000309222
-0.000195559
-0.000230207
-0.000288421
-0.000267047
-0.000151754
1.59046e-05
0.000199738
0.000379392
0.000540517
0.000675246
0.00078216
0.000862708
0.000919471
0.000955662
0.000974569
0.000979239
0.000972399
0.00095643
0.000933362
0.000904908
0.000872497
0.00083731
0.000800314
0.000762298
0.000723894
0.000685608
0.000647837
0.00061089
0.000575
0.000540341
0.000507036
0.000475165
0.000444779
0.000415898
0.000388525
0.000362642
0.00033822
0.000315222
0.000293599
0.0002733
0.000254271
0.000236453
0.000219787
0.000204214
0.000189677
0.000176116
0.000163475
0.000151699
0.000140736
0.000130535
0.000121048
0.000112229
0.000104035
9.64234e-05
8.93562e-05
8.27965e-05
7.67099e-05
7.1064e-05
6.58283e-05
6.09745e-05
5.64755e-05
5.23067e-05
4.84444e-05
4.48669e-05
4.15538e-05
3.84864e-05
3.56469e-05
3.30192e-05
3.05879e-05
2.83391e-05
2.62595e-05
2.43371e-05
2.25604e-05
2.09192e-05
1.94037e-05
1.80049e-05
1.67145e-05
1.55249e-05
1.44289e-05
1.34202e-05
1.24928e-05
1.16413e-05
1.08606e-05
1.0146e-05
9.49319e-06
8.89822e-06
8.35782e-06
7.86717e-06
7.42795e-06
7.01592e-06
0.000102957
0.000103356
0.000104185
0.000105394
0.000107001
0.000108981
0.00011132
0.000113993
0.000116969
0.000120207
0.00012366
0.000127268
0.000130958
0.000134637
0.000138196
0.000141498
0.000144378
0.000146636
0.000148033
0.000148277
0.000147017
0.000143835
0.00013823
0.000129606
0.000117249
0.000100311
7.77939e-05
4.85157e-05
1.10592e-05
-3.62537e-05
-9.53592e-05
-0.000168461
-0.00025809
-0.000367159
-0.000498833
-0.000656127
-0.000841245
-0.00105484
-0.00129499
-0.00155518
-0.00182098
-0.002066
-0.00224857
-0.0023198
-0.00226582
-0.00216483
-0.00216571
-0.00236634
-0.00273768
-0.00317588
-0.00357277
-0.00384936
-0.00398478
-0.00400618
-0.00392516
-0.00371986
-0.00338315
-0.002928
-0.00234965
-0.00163814
-0.000821592
3.70013e-05
0.000879514
0.00167348
0.00239877
0.00303252
0.00355422
0.00395227
0.0042198
0.00435117
0.00434284
0.00419365
0.00390472
0.00348017
0.00292824
0.00226215
0.00150091
0.00066951
-0.000201662
-0.0010783
-0.00192447
-0.0027058
-0.00339406
-0.00397069
-0.00442977
-0.0047797
-0.00504129
-0.00524371
-0.00541834
-0.00559126
-0.00577733
-0.00597841
-0.00618418
-0.00637444
-0.00652244
-0.00659779
-0.00656711
-0.006399
-0.00608465
-0.00565731
-0.00517128
-0.00465519
-0.00411193
-0.00355214
-0.00298221
-0.00237513
-0.0017153
-0.00106189
-0.000525102
-0.000198452
-0.000112958
-0.000199058
-0.000302437
-0.000298083
-0.000176886
3.53763e-06
0.000199401
0.000388737
0.000556181
0.00069395
0.000801596
0.000881399
0.00093653
0.000970664
0.000987392
0.00098994
0.000981136
0.00096341
0.000938808
0.000909039
0.000875516
0.0008394
0.000801638
0.000762995
0.000724086
0.000685396
0.000647308
0.000610115
0.00057404
0.000539244
0.000505843
0.00047391
0.000443489
0.000414595
0.000387224
0.000361359
0.000336965
0.000314002
0.000292421
0.000272168
0.000253187
0.000235419
0.000218804
0.000203283
0.000188796
0.000175285
0.000162692
0.000150964
0.000140046
0.000129888
0.000120442
0.000111662
0.000103505
9.59283e-05
8.88943e-05
8.23658e-05
7.63087e-05
7.06903e-05
6.54806e-05
6.06509e-05
5.61747e-05
5.2027e-05
4.81844e-05
4.46253e-05
4.13295e-05
3.8278e-05
3.54535e-05
3.28396e-05
3.04212e-05
2.81843e-05
2.61159e-05
2.42037e-05
2.24366e-05
2.08042e-05
1.92968e-05
1.79056e-05
1.66222e-05
1.54391e-05
1.43491e-05
1.33459e-05
1.24236e-05
1.15767e-05
1.08002e-05
1.00895e-05
9.44027e-06
8.84849e-06
8.311e-06
7.82298e-06
7.38612e-06
6.97628e-06
0.000102566
0.000102968
0.000103803
0.000105024
0.000106648
0.00010865
0.000111017
0.000113726
0.000116746
0.00012004
0.000123562
0.000127254
0.000131047
0.000134852
0.000138563
0.000142049
0.000145152
0.000147678
0.000149396
0.000150023
0.000149222
0.000146583
0.000141623
0.000133761
0.0001223
0.000106408
8.51093e-05
5.72386e-05
2.13857e-05
-2.41399e-05
-8.1301e-05
-0.000152348
-0.000239918
-0.000347148
-0.000477588
-0.000634784
-0.000821592
-0.00103944
-0.00128737
-0.00155976
-0.00184224
-0.00210616
-0.00230232
-0.00236694
-0.0022743
-0.00211667
-0.00208175
-0.00229166
-0.00270647
-0.0031987
-0.0036411
-0.00394183
-0.00408313
-0.00410846
-0.00403491
-0.00383183
-0.00349107
-0.0030315
-0.00244371
-0.00170841
-0.000855791
3.97319e-05
0.000912386
0.00173068
0.00247732
0.00312876
0.00366346
0.00407069
0.00434454
0.00447952
0.00447205
0.00432081
0.00402648
0.00359268
0.00302717
0.00234296
0.00155924
0.000701757
-0.000197713
-0.00110283
-0.00197518
-0.0027778
-0.00347997
-0.0040614
-0.00451576
-0.00485259
-0.00509566
-0.00527822
-0.00543605
-0.00559879
-0.00578322
-0.00599129
-0.0062114
-0.00642093
-0.00659022
-0.00668571
-0.00666925
-0.00650235
-0.00617266
-0.00572147
-0.00521643
-0.00468834
-0.00413437
-0.0035669
-0.00299414
-0.00237499
-0.00167991
-0.000977753
-0.000402459
-6.80005e-05
-1.65084e-05
-0.000166014
-0.000324064
-0.000338015
-0.000207298
-1.06916e-05
0.000199431
0.000399899
0.000574343
0.00071527
0.000823503
0.000902292
0.000955476
0.00098724
0.0010015
0.00100167
0.000990686
0.000971018
0.000944728
0.000913514
0.000878774
0.000841643
0.000803045
0.00076372
0.000724261
0.000685132
0.0006467
0.000609241
0.000572965
0.000538023
0.00050452
0.000472521
0.000442062
0.000413154
0.00038579
0.000359944
0.000335582
0.000312658
0.000291123
0.000270921
0.000251994
0.000234281
0.000217723
0.000202258
0.000187827
0.000174371
0.000161832
0.000150155
0.000139286
0.000129176
0.000119775
0.000111039
0.000102922
9.53843e-05
8.83867e-05
8.18927e-05
7.58679e-05
7.02799e-05
6.50986e-05
6.02956e-05
5.58443e-05
5.17198e-05
4.78989e-05
4.43601e-05
4.10831e-05
3.80492e-05
3.52411e-05
3.26424e-05
3.02382e-05
2.80145e-05
2.59582e-05
2.40573e-05
2.23007e-05
2.0678e-05
1.91796e-05
1.77967e-05
1.6521e-05
1.53449e-05
1.42615e-05
1.32643e-05
1.23476e-05
1.15058e-05
1.0734e-05
1.00276e-05
9.38218e-06
8.79393e-06
8.25963e-06
7.7745e-06
7.34023e-06
6.93278e-06
0.000102139
0.000102543
0.000103385
0.000104619
0.000106261
0.000108287
0.000110684
0.000113432
0.0001165
0.000119853
0.000123449
0.000127232
0.000131136
0.000135076
0.000138952
0.000142636
0.000145979
0.000148794
0.000150858
0.000151901
0.000151594
0.000149544
0.000145281
0.000138244
0.000127754
0.000112998
9.30224e-05
6.66871e-05
3.25901e-05
-1.09713e-05
-6.59837e-05
-0.000134736
-0.000219968
-0.00032505
-0.000453954
-0.000610818
-0.000799215
-0.00102146
-0.00127777
-0.00156377
-0.00186558
-0.00215253
-0.00236696
-0.00242604
-0.00228689
-0.00205845