/*--------------------------------*- C++ -*----------------------------------*\
| =========                 |                                                 |
| \\      /  F ield         | OpenFOAM: The Open Source CFD Toolbox           |
|  \\    /   O peration     | Version:  v2006                                 |
|   \\  /    A nd           | Website:  www.openfoam.com                      |
|    \\/     M anipulation  |                                                 |
\*---------------------------------------------------------------------------*/
FoamFile
{
    version     2.0;
    format      ascii;
    class       volScalarField;
    location    "0";
    object      p;
}
// * * * * * * * * * * * * * * * * * * * * * * * * * * * * * * * * * * * * * //

dimensions      [1 -1 -2 0 0 0 0];


internalField   nonuniform List<scalar> 
20000
(
1.76061e-06
1.76725e-06
1.78641e-06
1.81891e-06
1.86207e-06
1.91577e-06
1.98041e-06
2.05656e-06
2.14465e-06
2.24505e-06
2.35822e-06
2.48468e-06
2.62507e-06
2.78004e-06
2.95027e-06
3.13654e-06
3.3397e-06
3.56068e-06
3.80049e-06
4.06024e-06
4.34114e-06
4.64444e-06
4.97137e-06
5.32324e-06
5.70124e-06
6.10655e-06
6.54027e-06
7.00346e-06
7.49704e-06
8.02184e-06
8.57858e-06
9.16777e-06
9.78966e-06
1.04441e-05
1.11304e-05
1.18474e-05
1.25931e-05
1.33643e-05
1.4157e-05
1.49703e-05
1.57892e-05
1.66069e-05
1.74125e-05
1.81916e-05
1.89262e-05
1.95942e-05
2.01684e-05
2.06154e-05
2.08952e-05
2.0959e-05
2.07477e-05
2.0191e-05
1.92045e-05
1.76875e-05
1.55188e-05
1.25534e-05
8.61951e-06
3.51532e-06
-2.9977e-06
-1.12044e-05
-2.14455e-05
-3.41241e-05
-4.97086e-05
-6.87415e-05
-9.18591e-05
-0.000119819
-0.000153522
-0.000194012
-0.000242462
-0.000300174
-0.000368599
-0.000449391
-0.00054439
-0.000655354
-0.000783714
-0.000924936
-0.00105573
-0.00125143
-0.00146832
-0.00170126
-0.001941
-0.0021789
-0.00240311
-0.00259798
-0.00274713
-0.00283918
-0.00287548
-0.00287442
-0.00286475
-0.00286776
-0.00288129
-0.00287982
-0.00281574
-0.00265698
-0.00236951
-0.0019353
-0.00134459
-0.000592638
0.000318727
0.00137876
0.00256772
0.00385629
0.00520387
0.0065605
0.00787366
0.00909581
0.0101912
0.0111301
0.0118906
0.0124581
0.0128346
0.0130225
0.013025
0.0128452
0.0124843
0.0119421
0.0112169
0.0103074
0.00921411
0.00795222
0.00653947
0.00490816
0.00312737
0.00122273
-0.000778555
-0.00284348
-0.00493034
-0.00698869
-0.00896231
-0.0107723
-0.0123659
-0.0136725
-0.0146405
-0.0152404
-0.0154726
-0.0153699
-0.014994
-0.0144239
-0.0137406
-0.0130113
-0.0122819
-0.0115759
-0.0109005
-0.01025
-0.00960521
-0.00897282
-0.00833855
-0.00769825
-0.00705907
-0.00644156
-0.00587412
-0.00538036
-0.00496628
-0.00461547
-0.0042959
-0.00397623
-0.00364048
-0.00328963
-0.0029335
-0.00258339
-0.00224935
-0.001939
-0.00165693
-0.00140504
-0.00118328
-0.000990301
-0.000823942
-0.000681647
-0.000560746
-0.000458626
-0.000372837
-0.000301148
-0.000241563
-0.000192323
-0.000151895
-0.000118951
-9.23492e-05
-7.11121e-05
-5.44056e-05
-4.15196e-05
-3.18521e-05
-2.48924e-05
-2.02085e-05
-1.74349e-05
-1.6262e-05
-1.64274e-05
-1.77082e-05
-1.99132e-05
-2.28781e-05
-2.64588e-05
-3.05273e-05
-3.49663e-05
-3.96661e-05
-4.45187e-05
-4.94162e-05
-5.42417e-05
-5.88807e-05
-6.31472e-05
-6.70143e-05
-6.94433e-05
1.75715e-06
1.76365e-06
1.78185e-06
1.81329e-06
1.85548e-06
1.90816e-06
1.97172e-06
2.04669e-06
2.13361e-06
2.23293e-06
2.34515e-06
2.47086e-06
2.6107e-06
2.76538e-06
2.93566e-06
3.12239e-06
3.32647e-06
3.54887e-06
3.79059e-06
4.05263e-06
4.33607e-06
4.64198e-06
4.97148e-06
5.32567e-06
5.70558e-06
6.1123e-06
6.547e-06
7.01083e-06
7.50487e-06
8.03005e-06
8.5871e-06
9.17653e-06
9.79857e-06
1.04531e-05
1.11397e-05
1.18569e-05
1.26026e-05
1.33738e-05
1.41663e-05
1.49732e-05
1.57907e-05
1.66087e-05
1.74153e-05
1.81959e-05
1.89325e-05
1.96029e-05
2.018e-05
2.06307e-05
2.09149e-05
2.0984e-05
2.07792e-05
2.02301e-05
1.92528e-05
1.77468e-05
1.55912e-05
1.26413e-05
8.7258e-06
3.6433e-06
-2.84383e-06
-1.10196e-05
-2.12243e-05
-3.38605e-05
-4.93957e-05
-6.83707e-05
-9.14199e-05
-0.000119299
-0.000152908
-0.000193288
-0.000241619
-0.000299215
-0.000367537
-0.000448179
-0.000542749
-0.000652863
-0.0007809
-0.000933894
-0.00112552
-0.00131783
-0.0015227
-0.00174001
-0.00196863
-0.00220005
-0.00242068
-0.00261379
-0.00276253
-0.00285544
-0.00289371
-0.00289528
-0.00288802
-0.00289219
-0.0029047
-0.00290068
-0.00283157
-0.00266667
-0.00237333
-0.00193358
-0.00133746
-0.000579812
0.000337812
0.00140458
0.0026004
0.00389534
0.005248
0.00660779
0.00792233
0.0091446
0.0102348
0.0111635
0.0119133
0.0124783
0.0128532
0.01304
0.013042
0.0128618
0.0125007
0.0119578
0.0112312
0.0103183
0.00921672
0.00792178
0.00644027
0.00482131
0.00305588
0.00116102
-0.000835571
-0.00289747
-0.00498108
-0.00703513
-0.00900489
-0.0108082
-0.0123932
-0.0136897
-0.0146456
-0.0152317
-0.0154488
-0.0153311
-0.0149417
-0.0143615
-0.0136727
-0.0129433
-0.0122183
-0.0115199
-0.0108535
-0.0102136
-0.00959149
-0.00896756
-0.00833585
-0.00769626
-0.00705608
-0.00643665
-0.00586757
-0.0053735
-0.00496083
-0.00461262
-0.00429557
-0.00397728
-0.00364158
-0.00329003
-0.00293296
-0.00258198
-0.00224728
-0.00193652
-0.00165427
-0.00140236
-0.00118071
-0.000987917
-0.000821781
-0.000679722
-0.000559053
-0.000457152
-0.000371563
-0.000300054
-0.000240627
-0.000191525
-0.000151217
-0.000118376
-9.1863e-05
-7.07014e-05
-5.40591e-05
-4.12278e-05
-3.16065e-05
-2.4686e-05
-2.00352e-05
-1.72897e-05
-1.61406e-05
-1.63263e-05
-1.76244e-05
-1.98444e-05
-2.28225e-05
-2.6415e-05
-3.04943e-05
-3.49437e-05
-3.96536e-05
-4.45165e-05
-4.94248e-05
-5.42619e-05
-5.89142e-05
-6.31926e-05
-6.71136e-05
-6.94737e-05
1.75519e-06
1.76232e-06
1.78108e-06
1.81307e-06
1.85585e-06
1.90913e-06
1.97332e-06
2.04898e-06
2.13664e-06
2.23669e-06
2.34958e-06
2.47587e-06
2.61617e-06
2.77116e-06
2.94158e-06
3.12824e-06
3.33199e-06
3.55377e-06
3.79452e-06
4.05529e-06
4.33715e-06
4.64126e-06
4.96876e-06
5.32082e-06
5.69865e-06
6.10352e-06
6.53666e-06
6.99924e-06
7.49229e-06
8.01668e-06
8.5731e-06
9.16208e-06
9.7839e-06
1.04385e-05
1.11252e-05
1.18428e-05
1.25893e-05
1.33619e-05
1.41571e-05
1.4968e-05
1.5789e-05
1.661e-05
1.74197e-05
1.82037e-05
1.89445e-05
1.962e-05
2.02031e-05
2.06611e-05
2.09542e-05
2.1034e-05
2.0842e-05
2.03082e-05
1.93492e-05
1.78651e-05
1.57358e-05
1.2817e-05
8.93807e-06
3.89889e-06
-2.53655e-06
-1.06507e-05
-2.07826e-05
-3.33341e-05
-4.8771e-05
-6.76303e-05
-9.05418e-05
-0.000118258
-0.00015168
-0.000191855
-0.000239954
-0.000297263
-0.000365217
-0.000445505
-0.000540198
-0.000651611
-0.000781118
-0.000927361
-0.00109542
-0.00127403
-0.00147891
-0.00170378
-0.00194144
-0.00218118
-0.00240896
-0.00260767
-0.00275947
-0.00285169
-0.00288521
-0.00287987
-0.0028675
-0.00287197
-0.00289064
-0.00288747
-0.00284157
-0.0026878
-0.00240378
-0.00197157
-0.00138146
-0.000628143
0.00028712
0.00135364
0.00255169
0.0038518
0.00521241
0.00658204
0.00790708
0.00913956
0.0102398
0.011179
0.011938
0.0125068
0.0128841
0.0130715
0.0130735
0.0128936
0.0125332
0.0119919
0.0112681
0.0103606
0.00927021
0.00799884
0.00654326
0.00492459
0.00314795
0.00123987
-0.000769953
-0.00284608
-0.0049459
-0.00701815
-0.0089933
-0.0108361
-0.0124435
-0.013761
-0.014734
-0.015331
-0.0155516
-0.0154303
-0.0150318
-0.0144395
-0.0137384
-0.0129982
-0.0122641
-0.011558
-0.0108848
-0.0102378
-0.00960697
-0.00897698
-0.00834245
-0.00769867
-0.0070538
-0.00642898
-0.0058557
-0.00536048
-0.00495037
-0.00460725
-0.00429521
-0.0039796
-0.00364393
-0.00329089
-0.00293192
-0.00257918
-0.00224313
-0.00193154
-0.00164892
-0.001397
-0.00117557
-0.000983148
-0.00081746
-0.000675873
-0.000555669
-0.000454206
-0.000369018
-0.000297867
-0.000238756
-0.000189932
-0.000149863
-0.000117228
-9.08918e-05
-6.98811e-05
-5.33671e-05
-4.06448e-05
-3.11159e-05
-2.42736e-05
-1.96891e-05
-1.69996e-05
-1.5898e-05
-1.61242e-05
-1.74567e-05
-1.97065e-05
-2.27104e-05
-2.63258e-05
-3.0426e-05
-3.48948e-05
-3.96235e-05
-4.45054e-05
-4.94336e-05
-5.42925e-05
-5.89693e-05
-6.32787e-05
-6.72215e-05
-6.9633e-05
1.75245e-06
1.75949e-06
1.77808e-06
1.80978e-06
1.8522e-06
1.90507e-06
1.96879e-06
2.04391e-06
2.13094e-06
2.2303e-06
2.34248e-06
2.46805e-06
2.60766e-06
2.762e-06
2.93182e-06
3.11795e-06
3.32127e-06
3.54274e-06
3.78334e-06
4.04414e-06
4.32624e-06
4.63076e-06
4.95887e-06
5.31173e-06
5.69051e-06
6.09639e-06
6.53049e-06
6.9939e-06
7.48764e-06
8.0126e-06
8.56951e-06
9.15896e-06
9.78122e-06
1.04362e-05
1.11234e-05
1.18414e-05
1.25885e-05
1.33618e-05
1.41573e-05
1.4969e-05
1.57911e-05
1.66145e-05
1.74276e-05
1.82163e-05
1.8963e-05
1.96457e-05
2.02378e-05
2.07067e-05
2.1013e-05
2.11088e-05
2.09359e-05
2.0425e-05
1.94934e-05
1.80422e-05
1.59521e-05
1.30798e-05
9.25572e-06
4.28135e-06
-2.07674e-06
-1.00985e-05
-2.01215e-05
-3.25461e-05
-4.78356e-05
-6.65218e-05
-8.92281e-05
-0.000116702
-0.000149842
-0.000189692
-0.000237431
-0.000294367
-0.000361972
-0.000441879
-0.000535815
-0.000645564
-0.000773146
-0.000921661
-0.0010968
-0.00128854
-0.00150002
-0.00172675
-0.00196415
-0.00220399
-0.00243306
-0.00263385
-0.00278728
-0.0028789
-0.0029086
-0.00289757
-0.0028813
-0.0028866
-0.00291102
-0.00292782
-0.00287533
-0.00272547
-0.00244205
-0.00200828
-0.00141528
-0.000657435
0.000264451
0.00133966
0.00254853
0.00386167
0.00523667
0.00662008
0.00795637
0.00919651
0.0103008
0.0112406
0.0119976
0.0125642
0.012938
0.0131234
0.013124
0.0129433
0.0125824
0.0120402
0.011314
0.0104011
0.00930007
0.00801197
0.00654091
0.0049093
0.00312755
0.00121618
-0.000797969
-0.00288027
-0.004988
-0.00707
-0.00907293
-0.0109079
-0.0125243
-0.0138464
-0.0148178
-0.0154055
-0.015609
-0.0154643
-0.0150397
-0.0144231
-0.0137037
-0.0129533
-0.0122169
-0.0115147
-0.0108494
-0.0102127
-0.00959109
-0.00896886
-0.00833781
-0.00769471
-0.00704569
-0.00641439
-0.00583574
-0.00533942
-0.0049337
-0.00459874
-0.0042946
-0.00398316
-0.00364751
-0.00329218
-0.00293031
-0.00257491
-0.00223684
-0.00192401
-0.00164085
-0.00138892
-0.00116784
-0.000975981
-0.000810971
-0.000670097
-0.000550594
-0.000449789
-0.000365202
-0.00029459
-0.000235955
-0.000187545
-0.000147835
-0.00011551
-8.94378e-05
-6.8653e-05
-5.23314e-05
-3.97723e-05
-3.03817e-05
-2.36566e-05
-1.91712e-05
-1.65656e-05
-1.55351e-05
-1.58218e-05
-1.72062e-05
-1.95007e-05
-2.2544e-05
-2.61946e-05
-3.0327e-05
-3.48263e-05
-3.95849e-05
-4.44973e-05
-4.94574e-05
-5.43507e-05
-5.90656e-05
-6.34177e-05
-6.74047e-05
-6.98902e-05
1.74872e-06
1.75566e-06
1.77424e-06
1.80593e-06
1.84835e-06
1.90124e-06
1.965e-06
2.04018e-06
2.1273e-06
2.2268e-06
2.33912e-06
2.46483e-06
2.60455e-06
2.75897e-06
2.92882e-06
3.11493e-06
3.31817e-06
3.53948e-06
3.77983e-06
4.04026e-06
4.32185e-06
4.62573e-06
4.95305e-06
5.30496e-06
5.68264e-06
6.08729e-06
6.52012e-06
6.98228e-06
7.47487e-06
7.99883e-06
8.55494e-06
9.1438e-06
9.76571e-06
1.04207e-05
1.11081e-05
1.18269e-05
1.25752e-05
1.33503e-05
1.41482e-05
1.49635e-05
1.57897e-05
1.66178e-05
1.74365e-05
1.8232e-05
1.89868e-05
1.96795e-05
2.02836e-05
2.0767e-05
2.1091e-05
2.1208e-05
2.10606e-05
2.05801e-05
1.96848e-05
1.82773e-05
1.62395e-05
1.34291e-05
9.67782e-06
4.78953e-06
-1.46574e-06
-9.3646e-06
-1.92424e-05
-3.14984e-05
-4.65923e-05
-6.50488e-05
-8.74811e-05
-0.00011463
-0.000147394
-0.000186828
-0.000234107
-0.000290508
-0.000357442
-0.000436573
-0.000529924
-0.000639805
-0.000768237
-0.000916844
-0.00108747
-0.00127433
-0.00148123
-0.00170724
-0.00194761
-0.00219312
-0.00242935
-0.00263718
-0.00279522
-0.00288638
-0.00290937
-0.00288812
-0.0028646
-0.00287118
-0.00290564
-0.0029255
-0.00290315
-0.0027672
-0.00249375
-0.00206721
-0.00147938
-0.000723983
0.000198988
0.00127896
0.00249671
0.00382339
0.00521569
0.00661775
0.00797165
0.00922711
0.0103442
0.0112937
0.012057
0.0126263
0.013002
0.0131873
0.0131877
0.0130071
0.0126472
0.0121069
0.0113838
0.0104754
0.00938049
0.00809914
0.00663472
0.00500292
0.00321472
0.00129152
-0.000738416
-0.00284004
-0.00497078
-0.00707908
-0.00909722
-0.0109789
-0.012626
-0.0139741
-0.0149634
-0.0155573
-0.015754
-0.0155907
-0.0151399
-0.0144952
-0.0137516
-0.0129841
-0.0122376
-0.0115304
-0.0108634
-0.0102263
-0.00960379
-0.0089801
-0.00834663
-0.00769821
-0.00704048
-0.00639822
-0.00581078
-0.00531206
-0.0049119
-0.00458797
-0.00429456
-0.00398862
-0.00365273
-0.00329408
-0.00292819
-0.00256916
-0.00222837
-0.0019139
-0.00163004
-0.0013781
-0.0011575
-0.000966416
-0.000802319
-0.000662403
-0.000543836
-0.00044391
-0.000360126
-0.000290231
-0.000232229
-0.00018437
-0.000145139
-0.000113224
-8.75046e-05
-6.70203e-05
-5.09543e-05
-3.86122e-05
-2.94056e-05
-2.28362e-05
-1.84825e-05
-1.59885e-05
-1.50526e-05
-1.54196e-05
-1.68727e-05
-1.92264e-05
-2.23213e-05
-2.60176e-05
-3.01916e-05
-3.473e-05
-3.95264e-05
-4.44769e-05
-4.94771e-05
-5.44142e-05
-5.91779e-05
-6.35869e-05
-6.76367e-05
-7.02178e-05
1.74404e-06
1.75093e-06
1.76949e-06
1.80114e-06
1.84345e-06
1.8962e-06
1.95976e-06
2.03472e-06
2.12155e-06
2.2207e-06
2.3326e-06
2.45784e-06
2.59704e-06
2.7509e-06
2.92017e-06
3.10567e-06
3.30829e-06
3.52895e-06
3.76867e-06
4.02847e-06
4.30946e-06
4.6128e-06
4.93963e-06
5.29115e-06
5.66856e-06
6.07307e-06
6.50589e-06
6.96816e-06
7.46093e-06
7.98514e-06
8.54156e-06
9.1308e-06
9.7532e-06
1.04088e-05
1.1097e-05
1.18168e-05
1.25664e-05
1.33431e-05
1.41431e-05
1.49612e-05
1.57911e-05
1.6624e-05
1.74489e-05
1.82523e-05
1.90169e-05
1.97217e-05
2.03406e-05
2.08421e-05
2.11879e-05
2.13313e-05
2.12156e-05
2.07729e-05
1.99229e-05
1.85698e-05
1.65972e-05
1.38639e-05
1.02031e-05
5.42193e-06
-7.05336e-07
-8.45093e-06
-1.81477e-05
-3.01934e-05
-4.50438e-05
-6.32143e-05
-8.53058e-05
-0.000112051
-0.000144346
-0.000183247
-0.000229927
-0.000285667
-0.00035191
-0.000430336
-0.00052289
-0.000631674
-0.00075873
-0.000906349
-0.00107685
-0.00126741
-0.00147941
-0.00171103
-0.00195725
-0.00220926
-0.00245282
-0.00266793
-0.00283092
-0.00292143
-0.00293627
-0.00290243
-0.00286983
-0.00287768
-0.00292416
-0.00297247
-0.00295403
-0.00282966
-0.00256224
-0.00213785
-0.00154987
-0.000791199
0.000139048
0.00123019
0.00246336
0.00381031
0.00522643
0.00665249
0.00802736
0.00929913
0.0104276
0.0113833
0.0121486
0.0127172
0.0130898
0.0132724
0.0132708
0.0130893
0.0127292
0.0121889
0.0114649
0.0105534
0.00945234
0.00816194
0.00668722
0.00504294
0.00324239
0.00130651
-0.00073754
-0.0028558
-0.00500631
-0.00713783
-0.00919154
-0.0110897
-0.0127615
-0.0141285
-0.015126
-0.0157142
-0.01589
-0.015693
-0.0152012
-0.0145164
-0.0137411
-0.0129542
-0.0122002
-0.0114941
-0.0108338
-0.0102061
-0.00959216
-0.00897509
-0.00834481
-0.00769489
-0.00702872
-0.00637403
-0.0057763
-0.00527523
-0.00488293
-0.00457394
-0.00429484
-0.00399601
-0.0036596
-0.00329654
-0.00292547
-0.00256181
-0.00221759
-0.00190108
-0.00161638
-0.00136448
-0.00114452
-0.000954421
-0.000791484
-0.000652777
-0.00053539
-0.000436569
-0.000353791
-0.000284794
-0.000227583
-0.000180414
-0.000141779
-0.000110377
-8.5097e-05
-6.49873e-05
-4.92399e-05
-3.71682e-05
-2.81907e-05
-2.18152e-05
-1.76255e-05
-1.52703e-05
-1.44521e-05
-1.49192e-05
-1.64579e-05
-1.88856e-05
-2.20452e-05
-2.57993e-05
-3.00263e-05
-3.46146e-05
-3.94599e-05
-4.446e-05
-4.95122e-05
-5.45056e-05
-5.93315e-05
-6.3812e-05
-6.79406e-05
-7.06355e-05
1.73842e-06
1.74527e-06
1.76379e-06
1.79536e-06
1.83754e-06
1.89014e-06
1.95353e-06
2.02828e-06
2.11489e-06
2.21381e-06
2.32547e-06
2.45044e-06
2.58937e-06
2.74293e-06
2.91188e-06
3.09704e-06
3.29929e-06
3.51955e-06
3.75884e-06
4.01818e-06
4.29867e-06
4.60146e-06
4.9277e-06
5.27859e-06
5.65531e-06
6.05907e-06
6.49109e-06
6.95253e-06
7.44446e-06
7.96788e-06
8.52363e-06
9.11239e-06
9.73456e-06
1.03902e-05
1.10789e-05
1.17996e-05
1.25508e-05
1.33297e-05
1.41328e-05
1.4955e-05
1.579e-05
1.66293e-05
1.74622e-05
1.82754e-05
1.9052e-05
1.97715e-05
2.04081e-05
2.09312e-05
2.13032e-05
2.14782e-05
2.14004e-05
2.10028e-05
2.02068e-05
1.89187e-05
1.70239e-05
1.43828e-05
1.08302e-05
6.17666e-06
2.02222e-07
-7.35999e-06
-1.684e-05
-2.86343e-05
-4.31943e-05
-6.10241e-05
-8.27079e-05
-0.000108966
-0.000140696
-0.000178964
-0.000224951
-0.000279917
-0.000345248
-0.000422597
-0.000514017
-0.000621899
-0.000748618
-0.000896356
-0.00106652
-0.00125713
-0.00146899
-0.00170152
-0.00195096
-0.00220907
-0.00246119
-0.00268559
-0.00285514
-0.00294486
-0.00294878
-0.00289788
-0.00285287
-0.00286241
-0.00292503
-0.00299266
-0.00300196
-0.00289596
-0.00264003
-0.00222295
-0.00163979
-0.000882111
5.23339e-05
0.00115277
0.00240101
0.00376999
0.00521366
0.00666856
0.0080695
0.00936269
0.0105075
0.0114743
0.0122455
0.0128157
0.0131883
0.0133697
0.0133671
0.0131854
0.0128263
0.0122879
0.0115664
0.0106575
0.00955857
0.00826911
0.00679354
0.00514404
0.00333392
0.00138363
-0.000679809
-0.00282272
-0.00500333
-0.00717022
-0.00926034
-0.0112042
-0.0129172
-0.0143182
-0.015337
-0.0159287
-0.0160881
-0.0158569
-0.01532
-0.0145891
-0.013776
-0.012965
-0.0121994
-0.0114907
-0.0108334
-0.0102109
-0.00960107
-0.00898626
-0.00835575
-0.00769981
-0.00702042
-0.00634807
-0.00573587
-0.00523081
-0.00484797
-0.00455778
-0.00429667
-0.00400636
-0.00366873
-0.00329983
-0.00292221
-0.00255284
-0.00220444
-0.00188551
-0.00159985
-0.00134805
-0.00112889
-0.00094001
-0.000778487
-0.000641245
-0.000525281
-0.000427787
-0.000346215
-0.000278294
-0.00022203
-0.000175686
-0.000137764
-0.000106976
-8.22201e-05
-6.2558e-05
-4.71913e-05
-3.54427e-05
-2.67389e-05
-2.05951e-05
-1.66015e-05
-1.44121e-05
-1.37345e-05
-1.43211e-05
-1.59619e-05
-1.84776e-05
-2.1714e-05
-2.55364e-05
-2.98254e-05
-3.44721e-05
-3.93741e-05
-4.44315e-05
-4.95439e-05
-5.46028e-05
-5.95016e-05
-6.40668e-05
-6.82901e-05
-7.11219e-05
1.73186e-06
1.73868e-06
1.75715e-06
1.78862e-06
1.83067e-06
1.88309e-06
1.94628e-06
2.02079e-06
2.10713e-06
2.20572e-06
2.31702e-06
2.44158e-06
2.58004e-06
2.73308e-06
2.90147e-06
3.08602e-06
3.28761e-06
3.50718e-06
3.74573e-06
4.0043e-06
4.28399e-06
4.58596e-06
4.91137e-06
5.26143e-06
5.63736e-06
6.04039e-06
6.47175e-06
6.93262e-06
7.42412e-06
7.94727e-06
8.50293e-06
9.0918e-06
9.71431e-06
1.03705e-05
1.10602e-05
1.17823e-05
1.25353e-05
1.33168e-05
1.41231e-05
1.49497e-05
1.57902e-05
1.66366e-05
1.74783e-05
1.83025e-05
1.90929e-05
1.98291e-05
2.04863e-05
2.10342e-05
2.14365e-05
2.16482e-05
2.16143e-05
2.12689e-05
2.05355e-05
1.93228e-05
1.75186e-05
1.49845e-05
1.15572e-05
7.05146e-06
1.25424e-06
-6.09475e-06
-1.53225e-05
-2.68247e-05
-4.10484e-05
-5.84833e-05
-7.96935e-05
-0.000105385
-0.000136458
-0.000173987
-0.000219151
-0.00027319
-0.000337474
-0.000413684
-0.000503935
-0.000610679
-0.000736336
-0.000883123
-0.00105254
-0.00124394
-0.00145823
-0.00169525
-0.00195168
-0.00221943
-0.00248345
-0.00272028
-0.00289897
-0.00298876
-0.00297978
-0.00290769
-0.00284707
-0.00285845
-0.00294019
-0.00303632
-0.00307102
-0.00298342
-0.00273737
-0.00232513
-0.00174426
-0.000984438
-4.17986e-05
0.0010724
0.00234078
0.00373791
0.00521593
0.00670588
0.0081375
0.00945491
0.0106172
0.0115945
0.0123698
0.0129397
0.0133092
0.0134872
0.013482
0.0132993
0.0129406
0.0124033
0.0116826
0.0107729
0.0096705
0.00837461
0.00688972
0.00522728
0.00340145
0.00143258
-0.000652813
-0.00282179
-0.00503335
-0.00723655
-0.00936917
-0.0113546
-0.0131087
-0.014543
-0.0155798
-0.0161684
-0.0163013
-0.016023
-0.0154271
-0.0146376
-0.0137783
-0.0129396
-0.0121631
-0.0114552
-0.0108059
-0.0101944
-0.0095945
-0.00898662
-0.00835938
-0.00769995
-0.00700669
-0.00631388
-0.00568454
-0.00517509
-0.00480458
-0.00453848
-0.00430005
-0.00401999
-0.00368027
-0.00330387
-0.00291823
-0.002542
-0.00218869
-0.00186698
-0.00158028
-0.00132867
-0.00111051
-0.000923109
-0.000763277
-0.000627771
-0.000513486
-0.000417553
-0.000337396
-0.000270734
-0.000215576
-0.000170194
-0.000133103
-0.000103028
-7.8883e-05
-5.9741e-05
-4.48164e-05
-3.34429e-05
-2.50567e-05
-1.91815e-05
-1.5415e-05
-1.34178e-05
-1.29031e-05
-1.36281e-05
-1.53874e-05
-1.80051e-05
-2.13308e-05
-2.52328e-05
-2.95946e-05
-3.43098e-05
-3.92787e-05
-4.44039e-05
-4.95874e-05
-5.47235e-05
-5.97079e-05
-6.4372e-05
-6.87053e-05
-7.16936e-05
1.72437e-06
1.73117e-06
1.74957e-06
1.78093e-06
1.82283e-06
1.87505e-06
1.93799e-06
2.01223e-06
2.09825e-06
2.19649e-06
2.30738e-06
2.43148e-06
2.56945e-06
2.72197e-06
2.88979e-06
3.07373e-06
3.27468e-06
3.49357e-06
3.73141e-06
3.98923e-06
4.26816e-06
4.56933e-06
4.89393e-06
5.24317e-06
5.61828e-06
6.0205e-06
6.45107e-06
6.91118e-06
7.40196e-06
7.92447e-06
8.47963e-06
9.06819e-06
9.69063e-06
1.03472e-05
1.10375e-05
1.17609e-05
1.25159e-05
1.33001e-05
1.41102e-05
1.49418e-05
1.57889e-05
1.66434e-05
1.74954e-05
1.83323e-05
1.91383e-05
1.98937e-05
2.05742e-05
2.11505e-05
2.15872e-05
2.18406e-05
2.18564e-05
2.15703e-05
2.09079e-05
1.97808e-05
1.80796e-05
1.56671e-05
1.2382e-05
8.04366e-06
2.44751e-06
-4.6587e-06
-1.35988e-05
-2.47688e-05
-3.86114e-05
-5.55995e-05
-7.62718e-05
-0.000101316
-0.000131633
-0.000168316
-0.000212551
-0.000265557
-0.000328652
-0.000403482
-0.000492224
-0.000597521
-0.000722083
-0.000868294
-0.00103761
-0.00122988
-0.00144595
-0.00168627
-0.00194855
-0.0022255
-0.00250196
-0.00275264
-0.00294186
-0.00303136
-0.00300565
-0.00290591
-0.00282473
-0.00283795
-0.00294331
-0.00307305
-0.00314158
-0.00307764
-0.00284454
-0.0024399
-0.00186441
-0.00110491
-0.000155359
0.000972142
0.00226143
0.00368966
0.00520691
0.00673735
0.00820454
0.00955029
0.0107334
0.0117239
0.0125051
0.0130755
0.0134429
0.013618
0.0136107
0.0134276
0.01307
0.0125351
0.0118169
0.0109091
0.0098068
0.00850866
0.00701848
0.00534649
0.00350667
0.00151885
-0.000591068
-0.0027908
-0.00504012
-0.00728846
-0.00947212
-0.0115137
-0.013322
-0.0148016
-0.0158661
-0.0164571
-0.0165638
-0.0162339
-0.015571
-0.014714
-0.0138015
-0.0129313
-0.0121426
-0.0114348
-0.0107932
-0.0101925
-0.00960119
-0.0089986
-0.00837333
-0.00770797
-0.00699619
-0.00627671
-0.00562502
-0.00510919
-0.00475345
-0.00451714
-0.00430654
-0.00403824
-0.00369496
-0.00330898
-0.00291364
-0.0025293
-0.0021703
-0.00184547
-0.00155768
-0.00130638
-0.00108945
-0.000903792
-0.000745925
-0.000612421
-0.000500061
-0.000405913
-0.000327368
-0.00026214
-0.000208239
-0.000163951
-0.000127804
-9.85404e-05
-7.50886e-05
-5.65379e-05
-4.21158e-05
-3.11686e-05
-2.31435e-05
-1.75737e-05
-1.40657e-05
-1.2287e-05
-1.19575e-05
-1.28399e-05
-1.47336e-05
-1.74673e-05
-2.08941e-05
-2.48859e-05
-2.93296e-05
-3.41217e-05
-3.91656e-05
-4.43666e-05
-4.96296e-05
-5.48521e-05
-5.99327e-05
-6.47084e-05
-6.91665e-05
-7.23329e-05
1.71595e-06
1.72272e-06
1.74106e-06
1.7723e-06
1.81401e-06
1.86601e-06
1.92869e-06
2.00261e-06
2.08828e-06
2.18611e-06
2.29655e-06
2.42015e-06
2.55755e-06
2.70946e-06
2.87662e-06
3.05985e-06
3.26003e-06
3.47811e-06
3.71509e-06
3.97201e-06
4.25e-06
4.55019e-06
4.87378e-06
5.222e-06
5.5961e-06
5.99733e-06
6.42695e-06
6.88618e-06
7.37618e-06
7.89808e-06
8.45283e-06
9.04124e-06
9.66385e-06
1.03209e-05
1.10123e-05
1.17373e-05
1.24946e-05
1.32819e-05
1.40963e-05
1.49335e-05
1.57876e-05
1.66511e-05
1.75144e-05
1.83653e-05
1.91887e-05
1.99654e-05
2.06718e-05
2.12796e-05
2.17547e-05
2.20546e-05
2.21261e-05
2.1906e-05
2.13226e-05
2.02912e-05
1.87052e-05
1.64289e-05
1.33023e-05
9.15027e-06
3.77841e-06
-3.05579e-06
-1.1673e-05
-2.24714e-05
-3.58896e-05
-5.23806e-05
-7.24511e-05
-9.67665e-05
-0.000126234
-0.000161967
-0.000205161
-0.000256999
-0.000318735
-0.000391999
-0.000479068
-0.000582783
-0.000706067
-0.000851388
-0.00102022
-0.00121293
-0.0014308
-0.00167518
-0.00194495
-0.00223365
-0.00252599
-0.0027946
-0.00299826
-0.0030892
-0.00304401
-0.00291018
-0.00280329
-0.00281876
-0.00295298
-0.00312367
-0.0032304
-0.00319221
-0.00297141
-0.00257319
-0.00200246
-0.00124195
-0.000282917
0.000860881
0.00217488
0.00363997
0.00520382
0.00678183
0.00828995
0.00966764
0.0108738
0.0118781
0.0126644
0.0132338
0.0135971
0.0137675
0.0137569
0.0135727
0.0132162
0.0126836
0.0119678
0.0110607
0.00995648
0.00865282
0.0071531
0.00546697
0.00360858
0.00159762
-0.000540537
-0.00277451
-0.00506511
-0.00736244
-0.0096025
-0.0117043
-0.0135718
-0.0151006
-0.016194
-0.0167845
-0.0168571
-0.0164633
-0.0157185
-0.0147801
-0.0138049
-0.0128994
-0.012099
-0.011394
-0.0107641
-0.0101786
-0.00959962
-0.00900528
-0.00838488
-0.00771511
-0.00698259
-0.00623143
-0.00555284
-0.00502937
-0.0046921
-0.00449307
-0.00431679
-0.00406192
-0.00371309
-0.00331502
-0.00290808
-0.00251429
-0.0021488
-0.00182057
-0.00153169
-0.0012809
-0.00106548
-0.000881878
-0.000726299
-0.000595104
-0.000484949
-0.000392833
-0.000316119
-0.000252512
-0.00020003
-0.000156973
-0.000121887
-9.35324e-05
-7.08572e-05
-5.29676e-05
-3.9107e-05
-2.86356e-05
-2.10132e-05
-1.57839e-05
-1.25636e-05
-1.10284e-05
-1.09049e-05
-1.19625e-05
-1.40058e-05
-1.68684e-05
-2.04078e-05
-2.45e-05
-2.90351e-05
-3.39134e-05
-3.90412e-05
-4.43273e-05
-4.96796e-05
-5.49992e-05
-6.01877e-05
-6.50881e-05
-6.96856e-05
-7.30496e-05
1.70661e-06
1.71336e-06
1.73162e-06
1.76271e-06
1.80424e-06
1.85599e-06
1.91837e-06
1.99195e-06
2.07722e-06
2.1746e-06
2.28452e-06
2.40756e-06
2.54434e-06
2.69557e-06
2.862e-06
3.04445e-06
3.24379e-06
3.46098e-06
3.69703e-06
3.95297e-06
4.22994e-06
4.52907e-06
4.85159e-06
5.19874e-06
5.57176e-06
5.97193e-06
6.40054e-06
6.85882e-06
7.34798e-06
7.86916e-06
8.4234e-06
9.01153e-06
9.63417e-06
1.02917e-05
1.0984e-05
1.17106e-05
1.24702e-05
1.3261e-05
1.408e-05
1.49232e-05
1.57852e-05
1.66586e-05
1.75342e-05
1.84007e-05
1.92433e-05
2.00435e-05
2.07784e-05
2.14208e-05
2.19382e-05
2.22894e-05
2.24222e-05
2.22747e-05
2.17781e-05
2.08522e-05
1.93936e-05
1.72677e-05
1.43154e-05
1.03678e-05
5.24269e-06
-1.2905e-06
-9.54967e-06
-1.99372e-05
-3.28894e-05
-4.88359e-05
-6.82435e-05
-9.17495e-05
-0.000120268
-0.000154943
-0.000196986
-0.000247541
-0.000307779
-0.000379282
-0.00046441
-0.000566232
-0.000687969
-0.00083229
-0.00100075
-0.00119404
-0.00141382
-0.00166238
-0.00193998
-0.00224129
-0.00255125
-0.00284051
-0.00306154
-0.00315455
-0.00308502
-0.00290755
-0.00276743
-0.00278512
-0.00295426
-0.00317384
-0.00332629
-0.00331806
-0.00311064
-0.00271991
-0.00215624
-0.00139626
-0.000427814
0.00073259
0.00207262
0.00357868
0.00519567
0.00682793
0.00838218
0.0097956
0.0110276
0.0120473
0.0128392
0.0134073
0.013766
0.0139315
0.0139175
0.0137325
0.0133778
0.0128485
0.0121361
0.0112312
0.0101264
0.00881873
0.00731073
0.00561141
0.00373469
0.00169985
-0.000468496
-0.00274006
-0.00507694
-0.00743012
-0.0097351
-0.0119083
-0.0138467
-0.015436
-0.0165667
-0.0171605
-0.0171965
-0.0167303
-0.0158914
-0.0148591
-0.0138126
-0.012869
-0.0120574
-0.0113569
-0.0107409
-0.0101725
-0.00960652
-0.0090202
-0.00840516
-0.00773021
-0.00697205
-0.00618133
-0.0054689
-0.00493513
-0.00462008
-0.00446711
-0.00433274
-0.0040928
-0.00373562
-0.00332242
-0.0029018
-0.00249714
-0.0021244
-0.0017925
-0.00150259
-0.00125248
-0.00103884
-0.0008576
-0.000704595
-0.000575975
-0.000468265
-0.000378397
-0.000303702
-0.000241882
-0.000190964
-0.000149263
-0.000115347
-8.79958e-05
-6.61778e-05
-4.90185e-05
-3.57784e-05
-2.5833e-05
-1.8656e-05
-1.38033e-05
-1.09014e-05
-9.63537e-06
-9.74e-06
-1.09913e-05
-1.32e-05
-1.62051e-05
-1.98688e-05
-2.40714e-05
-2.87072e-05
-3.368e-05
-3.88999e-05
-4.42791e-05
-4.97291e-05
-5.5155e-05
-6.04616e-05
-6.54991e-05
-7.02497e-05
-7.38316e-05
1.69635e-06
1.70307e-06
1.72124e-06
1.75219e-06
1.7935e-06
1.84498e-06
1.90704e-06
1.98024e-06
2.06507e-06
2.16195e-06
2.27132e-06
2.39373e-06
2.52983e-06
2.68032e-06
2.84594e-06
3.02752e-06
3.22594e-06
3.44215e-06
3.67716e-06
3.93202e-06
4.20785e-06
4.50582e-06
4.82714e-06
5.17306e-06
5.54487e-06
5.94385e-06
6.3713e-06
6.82849e-06
7.31667e-06
7.83703e-06
8.39067e-06
8.9785e-06
9.60118e-06
1.02592e-05
1.09525e-05
1.16809e-05
1.24433e-05
1.32377e-05
1.40617e-05
1.49115e-05
1.57819e-05
1.66661e-05
1.75552e-05
1.84384e-05
1.93019e-05
2.01276e-05
2.08934e-05
2.15735e-05
2.2137e-05
2.25442e-05
2.27438e-05
2.26752e-05
2.22729e-05
2.14619e-05
2.01428e-05
1.81814e-05
1.54187e-05
1.16925e-05
6.8357e-06
6.32112e-07
-7.23372e-06
-1.7172e-05
-2.96186e-05
-4.49755e-05
-6.36601e-05
-8.62746e-05
-0.000113744
-0.000147258
-0.000188049
-0.000237209
-0.000295794
-0.000365312
-0.000448231
-0.000547908
-0.000667911
-0.000811115
-0.000979089
-0.00117268
-0.00139409
-0.00164681
-0.00193284
-0.00224843
-0.00257904
-0.00289345
-0.00313697
-0.00323465
-0.0031364
-0.00290457
-0.00272277
-0.00274338
-0.00295514
-0.00323316
-0.00343896
-0.00346384
-0.00326882
-0.00288474
-0.00232912
-0.00156965
-0.000589996
0.000588791
0.00195743
0.00351023
0.00518884
0.00688354
0.00848979
0.00994281
0.0112032
0.0122393
0.0130362
0.0136015
0.0139539
0.0141128
0.0140943
0.0139082
0.0135554
0.01303
0.0123216
0.011419
0.0103132
0.00900017
0.00748177
0.00576653
0.00386835
0.00180624
-0.000395832
-0.00270878
-0.00509629
-0.00751068
-0.00988744
-0.0121399
-0.014158
-0.0158156
-0.0169889
-0.0175855
-0.017578
-0.017026
-0.0160756
-0.0149328
-0.0138041
-0.0128192
-0.0119983
-0.0113055
-0.0107075
-0.0101607
-0.00961037
-0.00903409
-0.00842764
-0.00774932
-0.00696168
-0.00612332
-0.00536973
-0.00482301
-0.00453509
-0.00443928
-0.00435606
-0.00413228
-0.00376274
-0.0033306
-0.00289386
-0.00247676
-0.00209598
-0.00176027
-0.0014695
-0.00122043
-0.00100899
-0.000830532
-0.000680508
-0.000554829
-0.000449886
-0.000362541
-0.000290101
-0.000230266
-0.000181076
-0.00014087
-0.000108236
-8.19834e-05
-6.11014e-05
-4.47377e-05
-3.21725e-05
-2.27985e-05
-1.61046e-05
-1.16601e-05
-9.10302e-06
-8.12843e-06
-8.47976e-06
-9.94053e-06
-1.2328e-05
-1.5487e-05
-1.92851e-05
-2.36072e-05
-2.83519e-05
-3.34272e-05
-3.8747e-05
-4.42274e-05
-4.97838e-05
-5.53253e-05
-6.07606e-05
-6.59471e-05
-7.08643e-05
-7.46829e-05
1.68518e-06
1.69186e-06
1.70995e-06
1.74073e-06
1.78181e-06
1.833e-06
1.8947e-06
1.96748e-06
2.05184e-06
2.14818e-06
2.25693e-06
2.37866e-06
2.51402e-06
2.6637e-06
2.82845e-06
3.00908e-06
3.20649e-06
3.42163e-06
3.65551e-06
3.90919e-06
4.18378e-06
4.48047e-06
4.80047e-06
5.14507e-06
5.51555e-06
5.91323e-06
6.33942e-06
6.79544e-06
7.28255e-06
7.80201e-06
8.355e-06
8.94247e-06
9.56515e-06
1.02236e-05
1.09181e-05
1.16483e-05
1.24134e-05
1.32117e-05
1.4041e-05
1.48979e-05
1.57774e-05
1.66731e-05
1.75767e-05
1.8478e-05
1.93639e-05
2.02171e-05
2.10163e-05
2.17369e-05
2.23501e-05
2.28179e-05
2.30897e-05