/*--------------------------------*- C++ -*----------------------------------*\
| =========                 |                                                 |
| \\      /  F ield         | OpenFOAM: The Open Source CFD Toolbox           |
|  \\    /   O peration     | Version:  v2006                                 |
|   \\  /    A nd           | Website:  www.openfoam.com                      |
|    \\/     M anipulation  |                                                 |
\*---------------------------------------------------------------------------*/
FoamFile
{
    version     2.0;
    format      ascii;
    class       volVectorField;
    location    "0";
    object      U;
}
// * * * * * * * * * * * * * * * * * * * * * * * * * * * * * * * * * * * * * //

dimensions      [0 1 -1 0 0 0 0];


internalField   nonuniform List<vector> 
67500
(
(-0.0216467 0.0163607 0)
(-0.0385628 0.0199936 0)
(-0.0664851 0.0128043 0)
(-0.0884961 -0.0395305 0)
(-0.0641322 -0.0918223 0)
(-0.0513986 -0.107567 0)
(-0.0333893 -0.106895 0)
(0.0500809 -0.103671 0)
(0.145446 -0.0915921 0)
(0.220418 -0.0726254 0)
(0.273476 -0.0589352 0)
(0.307161 -0.0404707 0)
(0.319334 -0.014524 0)
(0.311382 0.00643128 0)
(0.282634 0.017907 0)
(0.222491 -0.00233482 0)
(0.187259 -0.0153139 0)
(0.167727 -0.0112026 0)
(0.158592 -0.00694604 0)
(0.158922 -0.0106279 0)
(0.16811 -0.0151479 0)
(0.181624 -0.0152011 0)
(0.194128 -0.0117789 0)
(0.203014 -0.00746152 0)
(0.208636 -0.0042381 0)
(0.212036 -0.00284042 0)
(0.213992 -0.0028271 0)
(0.215463 -0.0032803 0)
(0.217567 -0.0036423 0)
(0.220904 -0.00375353 0)
(0.225164 -0.00355136 0)
(0.229677 -0.00300119 0)
(0.234238 -0.00231789 0)
(0.239208 -0.00189119 0)
(0.245114 -0.00201437 0)
(0.252316 -0.00267976 0)
(0.260886 -0.00362585 0)
(0.27054 -0.00455466 0)
(0.280762 -0.00523153 0)
(0.29105 -0.00553463 0)
(0.301058 -0.00548228 0)
(0.310621 -0.00518741 0)
(0.319734 -0.00479355 0)
(0.328524 -0.00442894 0)
(0.337186 -0.00418843 0)
(0.345912 -0.00411365 0)
(0.354809 -0.00417388 0)
(0.363866 -0.0042821 0)
(0.372969 -0.00434204 0)
(0.381984 -0.00430016 0)
(0.390833 -0.00417168 0)
(0.39952 -0.00402134 0)
(0.408104 -0.00391753 0)
(0.41669 -0.00392088 0)
(0.425435 -0.00406579 0)
(0.434486 -0.00431321 0)
(0.443904 -0.00459224 0)
(0.453648 -0.00483431 0)
(0.463609 -0.00499266 0)
(0.473654 -0.0050533 0)
(0.483667 -0.00503243 0)
(0.493567 -0.00496225 0)
(0.503316 -0.00487391 0)
(0.512906 -0.00478574 0)
(0.522344 -0.00469918 0)
(0.531629 -0.00460205 0)
(0.540737 -0.00447416 0)
(0.54959 -0.00429003 0)
(0.558054 -0.00404322 0)
(0.566056 -0.00380812 0)
(0.573704 -0.00366106 0)
(0.581187 -0.0035941 0)
(0.588629 -0.00357936 0)
(0.596095 -0.00360462 0)
(0.603634 -0.00366052 0)
(0.611281 -0.00373529 0)
(0.619052 -0.00381597 0)
(0.626941 -0.00388836 0)
(0.634914 -0.00393719 0)
(0.642911 -0.00395427 0)
(0.650881 -0.00395496 0)
(0.65883 -0.00396608 0)
(0.666804 -0.00399275 0)
(0.674833 -0.00402338 0)
(0.682912 -0.00404539 0)
(0.691008 -0.00404819 0)
(0.699073 -0.00402477 0)
(0.707055 -0.00397868 0)
(0.714928 -0.00392809 0)
(0.722711 -0.00388795 0)
(0.730431 -0.00385488 0)
(0.738095 -0.00381823 0)
(0.745683 -0.00377281 0)
(0.753176 -0.00372152 0)
(0.760567 -0.00367104 0)
(0.767861 -0.00362367 0)
(0.775063 -0.00357608 0)
(0.782167 -0.00352533 0)
(0.789165 -0.0034719 0)
(0.796054 -0.00341755 0)
(0.802833 -0.00336252 0)
(0.809501 -0.00330588 0)
(0.816055 -0.00324743 0)
(0.82249 -0.00318762 0)
(0.828804 -0.00312648 0)
(0.834995 -0.00306377 0)
(0.841058 -0.00299943 0)
(0.846992 -0.00293357 0)
(0.852792 -0.00286622 0)
(0.858456 -0.00279741 0)
(0.86398 -0.00272731 0)
(0.869364 -0.00265609 0)
(0.874603 -0.00258395 0)
(0.879698 -0.00251111 0)
(0.884646 -0.00243779 0)
(0.889447 -0.00236422 0)
(0.894101 -0.00229061 0)
(0.898607 -0.00221717 0)
(0.902967 -0.00214408 0)
(0.907181 -0.00207152 0)
(0.911251 -0.00199963 0)
(0.915178 -0.00192855 0)
(0.918963 -0.00185842 0)
(0.922609 -0.00178934 0)
(0.926118 -0.00172142 0)
(0.929492 -0.00165474 0)
(0.932734 -0.00158939 0)
(0.935847 -0.00152546 0)
(0.938833 -0.00146301 0)
(0.941696 -0.0014021 0)
(0.944439 -0.0013428 0)
(0.947065 -0.00128516 0)
(0.949577 -0.00122922 0)
(0.951979 -0.00117504 0)
(0.954275 -0.00112262 0)
(0.956468 -0.001072 0)
(0.958561 -0.00102317 0)
(0.960558 -0.000976141 0)
(0.962463 -0.000930895 0)
(0.964279 -0.000887418 0)
(0.966011 -0.000845688 0)
(0.96766 -0.000805678 0)
(0.969231 -0.000767358 0)
(0.970728 -0.000730693 0)
(0.972152 -0.000695645 0)
(0.973508 -0.000662173 0)
(0.974799 -0.00063023 0)
(0.976028 -0.000599769 0)
(0.977197 -0.000570739 0)
(0.978309 -0.000543087 0)
(0.979368 -0.000516758 0)
(0.980375 -0.000491697 0)
(0.981333 -0.00046785 0)
(0.982245 -0.000445161 0)
(0.983113 -0.000423576 0)
(0.983938 -0.000403043 0)
(0.984724 -0.00038351 0)
(0.985471 -0.000364924 0)
(0.986183 -0.000347238 0)
(0.986859 -0.000330402 0)
(0.987503 -0.00031437 0)
(0.988116 -0.000299096 0)
(0.988699 -0.000284535 0)
(0.989254 -0.000270648 0)
(0.989781 -0.000257395 0)
(0.990282 -0.00024474 0)
(0.990759 -0.00023265 0)
(0.991212 -0.000221097 0)
(0.991643 -0.000210054 0)
(0.992052 -0.0001995 0)
(0.992441 -0.000189414 0)
(0.992809 -0.000179781 0)
(0.993159 -0.000170585 0)
(0.993491 -0.000161815 0)
(0.993806 -0.000153459 0)
(0.994105 -0.000145505 0)
(0.994388 -0.000137943 0)
(0.994656 -0.000130762 0)
(0.99491 -0.000123951 0)
(0.995151 -0.000117497 0)
(0.99538 -0.000111388 0)
(0.995597 -0.000105611 0)
(0.995802 -0.000100152 0)
(0.995997 -9.49964e-05 0)
(0.996182 -9.01306e-05 0)
(0.996357 -8.55399e-05 0)
(0.996524 -8.121e-05 0)
(0.996682 -7.71266e-05 0)
(0.996832 -7.32759e-05 0)
(0.996975 -6.96444e-05 0)
(0.99711 -6.62191e-05 0)
(0.99724 -6.29874e-05 0)
(0.997362 -5.99371e-05 0)
(0.997479 -5.70568e-05 0)
(0.99759 -5.43353e-05 0)
(0.997696 -5.17621e-05 0)
(0.997797 -4.93271e-05 0)
(0.997894 -4.70208e-05 0)
(0.997985 -4.48341e-05 0)
(0.998073 -4.27586e-05 0)
(0.998156 -4.07862e-05 0)
(0.998236 -3.89095e-05 0)
(0.998312 -3.71216e-05 0)
(0.998384 -3.54162e-05 0)
(0.998453 -3.37874e-05 0)
(0.998519 -3.223e-05 0)
(0.998582 -3.07392e-05 0)
(0.998642 -2.93108e-05 0)
(0.998699 -2.79409e-05 0)
(0.998754 -2.66262e-05 0)
(0.998806 -2.53638e-05 0)
(0.998855 -2.4151e-05 0)
(0.998902 -2.29857e-05 0)
(0.998947 -2.18658e-05 0)
(0.99899 -2.07897e-05 0)
(0.99903 -1.97557e-05 0)
(0.999069 -1.87626e-05 0)
(0.999105 -1.78093e-05 0)
(0.99914 -1.68945e-05 0)
(0.999173 -1.60174e-05 0)
(0.999204 -1.5177e-05 0)
(0.999234 -1.43724e-05 0)
(0.999261 -1.36029e-05 0)
(0.999288 -1.28677e-05 0)
(0.999313 -1.21659e-05 0)
(0.999337 -1.14968e-05 0)
(0.999359 -1.08597e-05 0)
(0.99938 -1.02537e-05 0)
(0.9994 -9.67798e-06 0)
(0.999419 -9.13184e-06 0)
(0.999436 -8.61442e-06 0)
(0.999453 -8.12491e-06 0)
(0.999469 -7.66245e-06 0)
(0.999484 -7.22622e-06 0)
(0.999498 -6.81535e-06 0)
(0.999511 -6.42899e-06 0)
(0.999523 -6.06627e-06 0)
(0.999535 -5.72633e-06 0)
(0.999546 -5.4083e-06 0)
(0.999557 -5.11132e-06 0)
(0.999567 -4.83453e-06 0)
(0.999576 -4.57708e-06 0)
(0.999585 -4.33811e-06 0)
(0.999593 -4.11678e-06 0)
(0.999601 -3.91226e-06 0)
(0.999609 -3.72373e-06 0)
(0.999616 -3.55036e-06 0)
(0.999623 -3.39136e-06 0)
(0.99963 -3.24594e-06 0)
(0.999636 -3.11332e-06 0)
(0.999642 -2.99273e-06 0)
(0.999648 -2.88344e-06 0)
(0.999654 -2.78471e-06 0)
(0.999659 -2.69582e-06 0)
(0.999665 -2.6161e-06 0)
(0.99967 -2.54486e-06 0)
(0.999675 -2.48146e-06 0)
(0.99968 -2.42526e-06 0)
(0.999684 -2.37566e-06 0)
(0.999689 -2.33207e-06 0)
(0.999694 -2.29394e-06 0)
(0.999698 -2.26073e-06 0)
(0.999703 -2.23193e-06 0)
(0.999707 -2.20705e-06 0)
(0.999712 -2.18563e-06 0)
(0.999716 -2.16723e-06 0)
(0.99972 -2.15145e-06 0)
(0.999725 -2.13787e-06 0)
(0.999729 -2.12615e-06 0)
(0.999733 -2.11592e-06 0)
(0.999737 -2.10687e-06 0)
(0.999742 -2.09868e-06 0)
(0.999746 -2.09106e-06 0)
(0.99975 -2.08375e-06 0)
(0.999754 -2.07649e-06 0)
(0.999758 -2.06902e-06 0)
(0.999762 -2.06114e-06 0)
(0.999766 -2.05263e-06 0)
(0.999771 -2.04329e-06 0)
(0.999775 -2.03292e-06 0)
(0.999779 -2.02136e-06 0)
(0.999783 -2.00844e-06 0)
(0.999787 -1.99401e-06 0)
(0.999791 -1.97792e-06 0)
(0.999795 -1.96006e-06 0)
(0.999799 -1.94029e-06 0)
(0.999802 -1.91854e-06 0)
(0.999806 -1.8947e-06 0)
(0.99981 -1.86871e-06 0)
(0.999814 -1.84053e-06 0)
(0.999817 -1.81011e-06 0)
(0.999821 -1.77747e-06 0)
(0.999824 -1.7426e-06 0)
(0.999828 -1.70556e-06 0)
(0.999831 -1.66641e-06 0)
(0.999835 -1.62525e-06 0)
(0.999838 -1.58222e-06 0)
(0.999841 -1.53747e-06 0)
(0.999844 -1.49118e-06 0)
(0.999847 -1.44359e-06 0)
(0.99985 -1.39492e-06 0)
(0.999852 -1.34544e-06 0)
(0.999855 -1.29545e-06 0)
(0.999858 -1.24525e-06 0)
(0.99986 -1.19513e-06 0)
(0.999862 -1.14541e-06 0)
(0.999865 -1.09639e-06 0)
(0.999867 -1.04837e-06 0)
(0.999869 -1.0016e-06 0)
(0.999871 -9.56323e-07 0)
(0.999873 -9.12761e-07 0)
(0.999874 -8.71088e-07 0)
(0.999876 -8.31451e-07 0)
(0.999878 -7.9397e-07 0)
(0.999879 -7.58739e-07 0)
(0.999881 -7.25836e-07 0)
(0.999882 -6.95326e-07 0)
(0.999884 -6.67273e-07 0)
(0.999885 -6.41742e-07 0)
(0.999886 -6.18803e-07 0)
(0.999887 -5.98524e-07 0)
(0.999889 -5.80975e-07 0)
(0.99989 -5.66208e-07 0)
(0.999891 -5.54243e-07 0)
(0.999892 -5.45058e-07 0)
(0.999893 -5.38558e-07 0)
(0.999894 -5.34565e-07 0)
(0.999895 -5.32802e-07 0)
(0.999896 -5.32885e-07 0)
(0.999897 -5.34325e-07 0)
(0.999898 -5.36546e-07 0)
(0.999899 -5.38911e-07 0)
(0.9999 -5.40761e-07 0)
(0.999902 -5.41468e-07 0)
(0.999903 -5.40484e-07 0)
(0.999904 -5.37401e-07 0)
(0.999905 -5.31994e-07 0)
(0.999906 -5.24257e-07 0)
(0.999907 -5.14411e-07 0)
(0.999908 -5.029e-07 0)
(0.999909 -4.90351e-07 0)
(0.99991 -4.77532e-07 0)
(0.999911 -4.65278e-07 0)
(0.999912 -4.54419e-07 0)
(0.999913 -4.45716e-07 0)
(0.999914 -4.39792e-07 0)
(0.999914 -4.37092e-07 0)
(0.999915 -4.37854e-07 0)
(0.999916 -4.421e-07 0)
(0.999917 -4.49655e-07 0)
(0.999918 -4.60164e-07 0)
(0.999919 -4.73137e-07 0)
(0.99992 -4.87985e-07 0)
(0.999921 -5.04068e-07 0)
(0.999922 -5.20735e-07 0)
(0.999923 -5.37359e-07 0)
(0.999924 -5.53363e-07 0)
(0.999925 -5.68246e-07 0)
(0.999927 -5.81594e-07 0)
(0.999928 -5.93082e-07 0)
(0.999929 -6.02482e-07 0)
(0.99993 -6.0965e-07 0)
(0.999931 -6.14523e-07 0)
(0.999933 -6.1711e-07 0)
(0.999934 -6.17474e-07 0)
(0.999935 -6.15725e-07 0)
(0.999936 -6.1201e-07 0)
(0.999938 -6.06499e-07 0)
(0.999939 -5.99376e-07 0)
(0.99994 -5.90834e-07 0)
(0.999941 -5.81067e-07 0)
(0.999942 -5.70263e-07 0)
(0.999943 -5.58603e-07 0)
(0.999945 -5.46256e-07 0)
(0.999946 -5.33379e-07 0)
(0.999947 -5.20114e-07 0)
(0.999948 -5.06589e-07 0)
(0.999949 -4.92917e-07 0)
(0.99995 -4.79198e-07 0)
(0.999951 -4.65518e-07 0)
(0.999952 -4.51949e-07 0)
(0.999952 -4.38554e-07 0)
(0.999953 -4.25385e-07 0)
(0.999954 -4.12483e-07 0)
(0.999955 -3.99881e-07 0)
(0.999956 -3.87606e-07 0)
(0.999956 -3.75677e-07 0)
(0.999957 -3.64109e-07 0)
(0.999958 -3.5291e-07 0)
(0.999959 -3.42086e-07 0)
(0.999959 -3.31637e-07 0)
(0.99996 -3.21563e-07 0)
(0.999961 -3.1186e-07 0)
(0.999961 -3.02521e-07 0)
(0.999962 -2.93539e-07 0)
(0.999962 -2.84906e-07 0)
(0.999963 -2.76612e-07 0)
(0.999963 -2.68647e-07 0)
(0.999964 -2.60999e-07 0)
(0.999965 -2.53657e-07 0)
(0.999965 -2.4661e-07 0)
(0.999966 -2.39846e-07 0)
(0.999966 -2.33354e-07 0)
(0.999966 -2.27123e-07 0)
(0.999967 -2.2114e-07 0)
(0.999967 -2.15395e-07 0)
(0.999968 -2.09877e-07 0)
(0.999968 -2.04577e-07 0)
(0.999969 -1.99483e-07 0)
(0.999969 -1.94585e-07 0)
(0.999969 -1.89876e-07 0)
(0.99997 -1.85345e-07 0)
(0.99997 -1.80983e-07 0)
(0.99997 -1.76783e-07 0)
(0.999971 -1.72737e-07 0)
(0.999971 -1.68836e-07 0)
(0.999971 -1.65074e-07 0)
(0.999972 -1.61444e-07 0)
(0.999972 -1.57939e-07 0)
(0.999972 -1.54553e-07 0)
(0.999973 -1.51279e-07 0)
(0.999973 -1.48113e-07 0)
(0.999973 -1.45049e-07 0)
(0.999974 -1.42081e-07 0)
(0.999974 -1.39205e-07 0)
(0.999974 -1.36417e-07 0)
(0.999974 -1.33711e-07 0)
(0.999975 -1.31084e-07 0)
(0.999975 -1.28531e-07 0)
(0.999975 -1.2605e-07 0)
(0.999975 -1.23636e-07 0)
(0.999976 -1.21287e-07 0)
(0.999976 -1.18998e-07 0)
(0.999976 -1.16768e-07 0)
(0.999976 -1.14592e-07 0)
(0.999977 -1.12469e-07 0)
(0.999977 -1.10396e-07 0)
(0.999977 -1.0837e-07 0)
(0.999977 -1.0639e-07 0)
(0.999977 -1.04452e-07 0)
(0.999978 -1.02555e-07 0)
(0.999978 -1.00698e-07 0)
(0.999978 -9.88772e-08 0)
(0.999978 -9.70918e-08 0)
(0.999978 -9.53411e-08 0)
(0.999979 -9.3619e-08 0)
(0.999979 -9.19424e-08 0)
(0.999979 -9.0231e-08 0)
(0.999979 -8.88234e-08 0)
(0.999979 -8.62493e-08 0)
(-0.026175 0.0425751 0)
(-0.0272106 0.025374 0)
(-0.0724435 0.033863 0)
(-0.0498328 0.0153893 0)
(-0.00999529 0.0123143 0)
(0.0494125 0.0564419 0)
(0.045939 -0.0257927 0)
(0.0613591 -0.0900924 0)
(0.107244 -0.0957378 0)
(0.130969 -0.0583726 0)
(0.132635 -0.024701 0)
(0.135676 -0.0222616 0)
(0.183725 -0.0111107 0)
(0.232723 0.018049 0)
(0.236308 0.0622464 0)
(0.261018 0.0789845 0)
(0.26227 0.0659422 0)
(0.257083 0.044146 0)
(0.250592 0.0192325 0)
(0.243257 0.000138822 0)
(0.23022 -0.00956248 0)
(0.215711 -0.0101238 0)
(0.20656 -0.00769549 0)
(0.204583 -0.00548555 0)
(0.207023 -0.00339058 0)
(0.210662 -0.00106239 0)
(0.214628 0.000602541 0)
(0.220256 0.000438847 0)
(0.228568 -0.00147979 0)
(0.238703 -0.00384055 0)
(0.249269 -0.00552981 0)
(0.260214 -0.00672596 0)
(0.272153 -0.00814904 0)
(0.285355 -0.0100177 0)
(0.299425 -0.012017 0)
(0.313543 -0.0136962 0)
(0.326861 -0.0147223 0)
(0.338828 -0.0150115 0)
(0.349292 -0.0147118 0)
(0.358358 -0.0141106 0)
(0.366281 -0.0135054 0)
(0.373419 -0.0131025 0)
(0.380171 -0.0129904 0)
(0.386864 -0.01316 0)
(0.393687 -0.0135261 0)
(0.400671 -0.0139388 0)
(0.40772 -0.0142285 0)
(0.414673 -0.0142973 0)
(0.42139 -0.0141825 0)
(0.427824 -0.0140088 0)
(0.434051 -0.0138857 0)
(0.440235 -0.0138413 0)
(0.44654 -0.0138348 0)
(0.453074 -0.0139184 0)
(0.459906 -0.0141843 0)
(0.467043 -0.0145314 0)
(0.47436 -0.0148504 0)
(0.481677 -0.0150717 0)
(0.488844 -0.0151637 0)
(0.495775 -0.0151273 0)
(0.502474 -0.0149839 0)
(0.509015 -0.0147632 0)
(0.515516 -0.0144963 0)
(0.522097 -0.0142102 0)
(0.528852 -0.0139223 0)
(0.535836 -0.0136325 0)
(0.543058 -0.0133152 0)
(0.55044 -0.0128896 0)
(0.557752 -0.0122621 0)
(0.564804 -0.0116593 0)
(0.571721 -0.0113402 0)
(0.578725 -0.0112563 0)
(0.585888 -0.0112917 0)
(0.593213 -0.0113943 0)
(0.600714 -0.0115414 0)
(0.608409 -0.0117132 0)
(0.616299 -0.0118859 0)
(0.62437 -0.0120276 0)
(0.632576 -0.0120938 0)
(0.640817 -0.0120534 0)
(0.649004 -0.0119693 0)
(0.657146 -0.0119494 0)
(0.665325 -0.0120011 0)
(0.673582 -0.0120717 0)
(0.681904 -0.012117 0)
(0.690247 -0.0121055 0)
(0.69854 -0.0120171 0)
(0.706703 -0.0118626 0)
(0.714698 -0.0117075 0)
(0.722565 -0.0116012 0)
(0.73036 -0.0115245 0)
(0.738094 -0.0114352 0)
(0.745737 -0.0113115 0)
(0.75326 -0.011162 0)
(0.760661 -0.0110129 0)
(0.767958 -0.0108738 0)
(0.775163 -0.0107322 0)
(0.78227 -0.0105781 0)
(0.789267 -0.010415 0)
(0.796153 -0.0102506 0)
(0.802931 -0.0100856 0)
(0.809599 -0.00991584 0)
(0.816153 -0.00974068 0)
(0.822589 -0.00956169 0)
(0.828905 -0.00937886 0)
(0.835099 -0.00919101 0)
(0.841166 -0.00899801 0)
(0.847103 -0.00880034 0)
(0.852907 -0.00859808 0)
(0.858574 -0.00839142 0)
(0.864102 -0.00818088 0)
(0.869488 -0.00796705 0)
(0.87473 -0.00775046 0)
(0.879827 -0.00753177 0)
(0.884776 -0.00731166 0)
(0.889578 -0.00709081 0)
(0.894232 -0.00686985 0)
(0.898739 -0.00664941 0)
(0.903099 -0.00643005 0)
(0.907312 -0.00621227 0)
(0.911381 -0.00599655 0)
(0.915306 -0.00578328 0)
(0.91909 -0.00557285 0)
(0.922734 -0.00536559 0)
(0.926241 -0.0051618 0)
(0.929613 -0.00496177 0)
(0.932853 -0.00476573 0)
(0.935964 -0.00457393 0)
(0.938948 -0.00438657 0)
(0.941808 -0.00420386 0)
(0.944548 -0.00402597 0)
(0.947171 -0.00385307 0)
(0.94968 -0.00368529 0)
(0.952079 -0.00352276 0)
(0.954372 -0.00336556 0)
(0.956561 -0.00321373 0)
(0.958651 -0.0030673 0)
(0.960645 -0.00292625 0)
(0.962547 -0.00279057 0)
(0.96436 -0.0026602 0)
(0.966088 -0.00253507 0)
(0.967734 -0.0024151 0)
(0.969303 -0.0023002 0)
(0.970796 -0.00219027 0)
(0.972218 -0.0020852 0)
(0.973571 -0.00198484 0)
(0.974859 -0.00188908 0)
(0.976085 -0.00179777 0)
(0.977251 -0.00171074 0)
(0.978361 -0.00162785 -1.84034e-41)
(0.979417 -0.00154893 -1.76582e-41)
(0.980422 -0.00147382 0)
(0.981378 -0.00140234 0)
(0.982288 -0.00133433 0)
(0.983153 -0.00126964 0)
(0.983977 -0.0012081 0)
(0.984761 -0.00114955 0)
(0.985506 -0.00109385 0)
(0.986216 -0.00104084 0)
(0.986891 -0.000990384 0)
(0.987534 -0.000942332 0)
(0.988145 -0.000896551 0)
(0.988727 -0.00085291 0)
(0.98928 -0.000811283 0)
(0.989806 -0.000771556 0)
(0.990307 -0.000733619 0)
(0.990782 -0.000697376 0)
(0.991235 -0.000662738 0)
(0.991664 -0.00062963 0)
(0.992072 -0.000597985 0)
(0.99246 -0.000567745 0)
(0.992828 -0.000538862 0)
(0.993177 -0.000511293 0)
(0.993508 -0.000485 0)
(0.993822 -0.000459949 0)
(0.99412 -0.000436106 0)
(0.994402 -0.00041344 0)
(0.99467 -0.000391918 0)
(0.994923 -0.000371504 0)
(0.995164 -0.000352163 0)
(0.995392 -0.000333856 0)
(0.995608 -0.000316544 0)
(0.995813 -0.000300185 0)
(0.996007 -0.000284736 0)
(0.996191 -0.000270155 0)
(0.996366 -0.000256398 0)
(0.996532 -0.000243421 0)
(0.99669 -0.000231184 0)
(0.99684 -0.000219643 0)
(0.996982 -0.000208759 0)
(0.997117 -0.000198493 0)
(0.997246 -0.000188807 0)
(0.997368 -0.000179665 0)
(0.997485 -0.000171032 0)
(0.997596 -0.000162876 0)
(0.997701 -0.000155164 0)
(0.997802 -0.000147866 0)
(0.997898 -0.000140954 0)
(0.99799 -0.000134401 0)
(0.998077 -0.000128181 0)
(0.99816 -0.000122269 0)
(0.998239 -0.000116645 0)
(0.998315 -0.000111287 0)
(0.998388 -0.000106176 0)
(0.998457 -0.000101294 0)
(0.998522 -9.66265e-05 0)
(0.998585 -9.2158e-05 0)
(0.998645 -8.78762e-05 0)
(0.998702 -8.37696e-05 0)
(0.998756 -7.98282e-05 0)
(0.998808 -7.60433e-05 0)
(0.998858 -7.2407e-05 0)
(0.998905 -6.89128e-05 0)
(0.998949 -6.55546e-05 0)
(0.998992 -6.23274e-05 0)
(0.999032 -5.92267e-05 0)
(0.999071 -5.62485e-05 0)
(0.999107 -5.33893e-05 0)
(0.999142 -5.06458e-05 0)
(0.999175 -4.80151e-05 0)
(0.999206 -4.54946e-05 0)
(0.999235 -4.30817e-05 0)
(0.999263 -4.07739e-05 0)
(0.999289 -3.85689e-05 0)
(0.999314 -3.64644e-05 0)
(0.999338 -3.44579e-05 0)
(0.99936 -3.25472e-05 0)
(0.999381 -3.07299e-05 0)
(0.999401 -2.90037e-05 0)
(0.99942 -2.73662e-05 0)
(0.999437 -2.58148e-05 0)
(0.999454 -2.43471e-05 0)
(0.99947 -2.29607e-05 0)
(0.999485 -2.16529e-05 0)
(0.999499 -2.04212e-05 0)
(0.999512 -1.9263e-05 0)
(0.999524 -1.81758e-05 0)
(0.999536 -1.71569e-05 0)
(0.999547 -1.62037e-05 0)
(0.999557 -1.53136e-05 0)
(0.999567 -1.44841e-05 0)
(0.999577 -1.37127e-05 0)
(0.999585 -1.29966e-05 0)
(0.999594 -1.23335e-05 0)
(0.999602 -1.17208e-05 0)
(0.999609 -1.1156e-05 0)
(0.999617 -1.06367e-05 0)
(0.999624 -1.01605e-05 0)
(0.99963 -9.72501e-06 0)
(0.999636 -9.3279e-06 0)
(0.999643 -8.96689e-06 0)
(0.999648 -8.63974e-06 0)
(0.999654 -8.34426e-06 0)
(0.999659 -8.0783e-06 0)
(0.999665 -7.8398e-06 0)
(0.99967 -7.62674e-06 0)
(0.999675 -7.43715e-06 0)
(0.99968 -7.26916e-06 0)
(0.999685 -7.12094e-06 0)
(0.999689 -6.99075e-06 0)
(0.999694 -6.87689e-06 0)
(0.999698 -6.77777e-06 0)
(0.999703 -6.69185e-06 0)
(0.999707 -6.61768e-06 0)
(0.999712 -6.55386e-06 0)
(0.999716 -6.49909e-06 0)
(0.99972 -6.45211e-06 0)
(0.999725 -6.41177e-06 0)
(0.999729 -6.37694e-06 0)
(0.999733 -6.34659e-06 0)
(0.999737 -6.31974e-06 0)
(0.999742 -6.29546e-06 0)
(0.999746 -6.27288e-06 0)
(0.99975 -6.2512e-06 0)
(0.999754 -6.22964e-06 0)
(0.999758 -6.20749e-06 0)
(0.999762 -6.18406e-06 0)
(0.999766 -6.15872e-06 0)
(0.999771 -6.13088e-06 0)
(0.999775 -6.09996e-06 0)
(0.999779 -6.06544e-06 0)
(0.999783 -6.02683e-06 0)
(0.999787 -5.98367e-06 0)
(0.999791 -5.93554e-06 0)
(0.999795 -5.88205e-06 0)
(0.999799 -5.82287e-06 0)
(0.999802 -5.75768e-06 0)
(0.999806 -5.68624e-06 0)
(0.99981 -5.60832e-06 0)
(0.999814 -5.5238e-06 0)
(0.999817 -5.43257e-06 0)
(0.999821 -5.33461e-06 0)
(0.999825 -5.22996e-06 0)
(0.999828 -5.11877e-06 0)
(0.999831 -5.00122e-06 0)
(0.999835 -4.87763e-06 0)
(0.999838 -4.74836e-06 0)
(0.999841 -4.61391e-06 0)
(0.999844 -4.47484e-06 0)
(0.999847 -4.3318e-06 0)
(0.99985 -4.18553e-06 0)
(0.999853 -4.03683e-06 0)
(0.999855 -3.88656e-06 0)
(0.999858 -3.73563e-06 0)
(0.99986 -3.58497e-06 0)
(0.999863 -3.43549e-06 0)
(0.999865 -3.28813e-06 0)
(0.999867 -3.14373e-06 0)
(0.999869 -3.00312e-06 0)
(0.999871 -2.86703e-06 0)
(0.999873 -2.7361e-06 0)
(0.999875 -2.61088e-06 0)
(0.999876 -2.49184e-06 0)
(0.999878 -2.37934e-06 0)
(0.999879 -2.27365e-06 0)
(0.999881 -2.17502e-06 0)
(0.999882 -2.0836e-06 0)
(0.999884 -1.99954e-06 0)
(0.999885 -1.92298e-06 0)
(0.999886 -1.85407e-06 0)
(0.999887 -1.79292e-06 0)
(0.999889 -1.73969e-06 0)
(0.99989 -1.69447e-06 0)
(0.999891 -1.65733e-06 0)
(0.999892 -1.62818e-06 0)
(0.999893 -1.60684e-06 0)
(0.999894 -1.59287e-06 0)
(0.999895 -1.58559e-06 0)
(0.999896 -1.58404e-06 0)
(0.999897 -1.58697e-06 0)
(0.999898 -1.59286e-06 0)
(0.999899 -1.6e-06 0)
(0.9999 -1.60659e-06 0)
(0.999902 -1.61087e-06 0)
(0.999903 -1.61128e-06 0)
(0.999904 -1.60658e-06 0)
(0.999905 -1.59602e-06 0)
(0.999906 -1.57942e-06 0)
(0.999907 -1.5572e-06 0)
(0.999908 -1.53038e-06 0)
(0.999909 -1.50053e-06 0)
(0.99991 -1.46957e-06 0)
(0.999911 -1.43966e-06 0)
(0.999912 -1.413e-06 0)
(0.999913 -1.3916e-06 0)
(0.999914 -1.37718e-06 0)
(0.999914 -1.37099e-06 0)
(0.999915 -1.37374e-06 0)
(0.999916 -1.3856e-06 0)
(0.999917 -1.40618e-06 0)
(0.999918 -1.43461e-06 0)
(0.999919 -1.46966e-06 0)
(0.99992 -1.50979e-06 0)
(0.999921 -1.5533e-06 0)
(0.999922 -1.59844e-06 0)
(0.999923 -1.64349e-06 0)
(0.999924 -1.68688e-06 0)
(0.999925 -1.7272e-06 0)
(0.999927 -1.76327e-06 0)
(0.999928 -1.79417e-06 0)
(0.999929 -1.81922e-06 0)
(0.99993 -1.83798e-06 0)
(0.999931 -1.85025e-06 0)
(0.999933 -1.85603e-06 0)
(0.999934 -1.85546e-06 0)
(0.999935 -1.84885e-06 0)
(0.999936 -1.83659e-06 0)
(0.999938 -1.81916e-06 0)
(0.999939 -1.79708e-06 0)
(0.99994 -1.77089e-06 0)
(0.999941 -1.74115e-06 0)
(0.999942 -1.7084e-06 0)
(0.999943 -1.67317e-06 0)
(0.999945 -1.63594e-06 0)
(0.999946 -1.59718e-06 0)
(0.999947 -1.55729e-06 0)
(0.999948 -1.51666e-06 0)
(0.999949 -1.47561e-06 0)
(0.99995 -1.43444e-06 0)
(0.999951 -1.39341e-06 0)
(0.999952 -1.35272e-06 0)
(0.999952 -1.31257e-06 0)
(0.999953 -1.2731e-06 0)
(0.999954 -1.23444e-06 0)
(0.999955 -1.19668e-06 0)
(0.999956 -1.15991e-06 0)
(0.999957 -1.12418e-06 0)
(0.999957 -1.08953e-06 0)
(0.999958 -1.05599e-06 0)
(0.999959 -1.02358e-06 0)
(0.999959 -9.92294e-07 0)
(0.99996 -9.6213e-07 0)
(0.999961 -9.33078e-07 0)
(0.999961 -9.0512e-07 0)
(0.999962 -8.78233e-07 0)
(0.999962 -8.5239e-07 0)
(0.999963 -8.27563e-07 0)
(0.999964 -8.0372e-07 0)
(0.999964 -7.80829e-07 0)
(0.999965 -7.58855e-07 0)
(0.999965 -7.37763e-07 0)
(0.999966 -7.17521e-07 0)
(0.999966 -6.98091e-07 0)
(0.999966 -6.79441e-07 0)
(0.999967 -6.61537e-07 0)
(0.999967 -6.44345e-07 0)
(0.999968 -6.27834e-07 0)
(0.999968 -6.11972e-07 0)
(0.999969 -5.96728e-07 0)
(0.999969 -5.82074e-07 0)
(0.999969 -5.67981e-07 0)
(0.99997 -5.54423e-07 0)
(0.99997 -5.41373e-07 0)
(0.99997 -5.28806e-07 0)
(0.999971 -5.16698e-07 0)
(0.999971 -5.05027e-07 0)
(0.999971 -4.93771e-07 0)
(0.999972 -4.82909e-07 0)
(0.999972 -4.72422e-07 0)
(0.999972 -4.6229e-07 0)
(0.999973 -4.52496e-07 0)
(0.999973 -4.43023e-07 0)
(0.999973 -4.33854e-07 0)
(0.999974 -4.24975e-07 0)
(0.999974 -4.16371e-07 0)
(0.999974 -4.08028e-07 0)
(0.999974 -3.99932e-07 0)
(0.999975 -3.92073e-07 0)
(0.999975 -3.84437e-07 0)
(0.999975 -3.77013e-07 0)
(0.999975 -3.69792e-07 0)
(0.999976 -3.62762e-07 0)
(0.999976 -3.55915e-07 0)
(0.999976 -3.49241e-07 0)
(0.999976 -3.42733e-07 0)
(0.999977 -3.36381e-07 0)
(0.999977 -3.30178e-07 0)
(0.999977 -3.24118e-07 0)
(0.999977 -3.18193e-07 0)
(0.999978 -3.12396e-07 0)
(0.999978 -3.06721e-07 0)
(0.999978 -3.01164e-07 0)
(0.999978 -2.95717e-07 0)
(0.999978 -2.90376e-07 0)
(0.999978 -2.85138e-07 0)
(0.999979 -2.79985e-07 0)
(0.999979 -2.74969e-07 0)
(0.999979 -2.69849e-07 0)
(0.999979 -2.65637e-07 0)
(0.999979 -2.57954e-07 0)
(-0.0226013 0.0673334 0)
(-0.00850271 0.0524646 0)
(-0.070806 0.0607385 0)
(-0.115881 -0.0464199 0)
(-0.157761 -0.0623439 0)
(-0.139708 -0.0740061 0)
(-0.119745 -0.116469 0)
(-0.143916 -0.137994 0)
(-0.13054 -0.132827 0)
(-0.0277416 -0.097124 0)
(0.0548866 -0.066495 0)
(0.0885826 -0.0511927 0)
(0.106325 -0.0453482 0)
(0.118283 -0.021636 0)
(0.142634 -0.00356296 0)
(0.179467 -0.0046815 0)
(0.208956 -0.00732848 0)
(0.22618 -0.00142302 0)
(0.229424 0.00661938 0)
(0.219692 0.0114331 0)
(0.208128 0.0122812 0)
(0.204135 0.00629534 0)
(0.21151 -0.00465261 0)
(0.226192 -0.0114319 0)
(0.243043 -0.0134141 0)
(0.263044 -0.013687 0)
(0.288244 -0.0155075 0)
(0.313496 -0.0191832 0)
(0.335166 -0.0223771 0)
(0.352254 -0.0233874 0)
(0.366099 -0.0231449 0)
(0.377735 -0.0232654 0)
(0.38735 -0.0243319 0)
(0.395126 -0.0259031 0)
(0.401525 -0.027333 0)
(0.407242 -0.0282134 0)
(0.413062 -0.0283302 0)
(0.419663 -0.0276056 0)
(0.427347 -0.0261197 0)
(0.435971 -0.0241371 0)
(0.44512 -0.0220181 0)
(0.45431 -0.0201068 0)
(0.463135 -0.0186396 0)
(0.471344 -0.0177108 0)
(0.478901 -0.0172707 0)
(0.486017 -0.0171535 0)
(0.49308 -0.0171244 0)
(0.500422 -0.016938 0)
(0.508093 -0.0164507 0)
(0.515839 -0.0157565 0)
(0.523389 -0.0151604 0)
(0.530588 -0.0150075 0)
(0.537373 -0.0153202 0)
(0.543678 -0.0159505 0)
(0.54942 -0.0169867 0)
(0.554746 -0.0180105 0)
(0.559625 -0.0187059 0)
(0.563997 -0.0189453 0)
(0.567814 -0.0187719 0)
(0.571042 -0.0183669 0)
(0.573695 -0.0179723 0)
(0.57584 -0.0177887 0)
(0.577595 -0.0179077 0)
(0.579097 -0.0183065 0)
(0.580483 -0.0188871 0)
(0.581878 -0.0195045 0)
(0.58343 -0.0199749 0)
(0.585274 -0.019998 0)
(0.58729 -0.0192191 0)
(0.589371 -0.018441 0)
(0.591854 -0.0181896 0)
(0.595133 -0.0181952 0)
(0.599197 -0.018305 0)
(0.603907 -0.0185178 0)
(0.609173 -0.018824 0)
(0.614936 -0.0191949 0)
(0.621152 -0.0195929 0)
(0.627792 -0.019964 0)
(0.634798 -0.0202188 0)
(0.642002 -0.0202436 0)
(0.649215 -0.0201477 0)
(0.656485 -0.0201932 0)
(0.663999 -0.0203821 0)
(0.671822 -0.0205938 0)
(0.679917 -0.0207364 0)
(0.688211 -0.0207421 0)
(0.69659 -0.0205534 0)
(0.704888 -0.0201779 0)
(0.713013 -0.0198031 0)
(0.721041 -0.0195632 0)
(0.729071 -0.0193945 0)
(0.737092 -0.0191989 0)
(0.745022 -0.0189358 0)
(0.752781 -0.0186318 0)
(0.760358 -0.0183536 0)
(0.767799 -0.0181175 0)
(0.775132 -0.0178848 0)
(0.78234 -0.0176269 0)
(0.789404 -0.017352 0)
(0.796328 -0.0170798 0)
(0.803131 -0.0168093 0)
(0.809817 -0.0165289 0)
(0.816381 -0.0162373 0)
(0.822822 -0.0159399 0)
(0.829141 -0.0156367 0)
(0.835338 -0.0153244 0)
(0.841409 -0.0150031 0)
(0.84735 -0.014674 0)
(0.853158 -0.0143371 0)
(0.858831 -0.0139924 0)
(0.864363 -0.013641 0)
(0.869754 -0.0132839 0)
(0.875 -0.0129221 0)
(0.880099 -0.0125568 0)
(0.885051 -0.0121891 0)
(0.889855 -0.0118203 0)
(0.89451 -0.0114513 0)
(0.899016 -0.0110832 0)
(0.903375 -0.010717 0)
(0.907587 -0.0103534 0)
(0.911653 -0.00999334 0)
(0.915576 -0.00963742 0)
(0.919356 -0.00928627 0)
(0.922996 -0.00894043 0)
(0.926499 -0.00860042 0)
(0.929867 -0.00826669 0)
(0.933102 -0.00793964 0)
(0.936207 -0.00761968 0)
(0.939185 -0.00730713 0)
(0.94204 -0.00700235 0)
(0.944774 -0.00670563 0)
(0.947391 -0.00641725 0)
(0.949893 -0.00613744 0)
(0.952286 -0.00586641 0)
(0.954572 -0.00560429 0)
(0.956754 -0.00535116 0)
(0.958837 -0.00510706 0)
(0.960824 -0.00487198 0)
(0.962719 -0.00464585 0)
(0.964526 -0.00442858 0)
(0.966247 -0.00422008 0)
(0.967887 -0.00402019 0)
(0.969449 -0.00382876 0)
(0.970936 -0.00364563 0)
(0.972351 -0.0034706 0)
(0.973699 -0.00330347 0)
(0.974981 -0.00314399 0)
(0.976201 -0.00299194 0)
(0.977362 -0.00284704 0)
(0.978467 -0.00270904 0)
(0.979518 -0.00257767 0)
(0.980518 -0.00245263 0)
(0.981469 -0.00233366 0)
(0.982375 -0.00222047 0)
(0.983236 -0.00211281 0)
(0.984056 -0.00201039 0)
(0.984836 -0.00191297 0)
(0.985578 -0.00182028 0)
(0.986284 -0.00173208 0)
(0.986956 -0.00164813 0)
(0.987596 -0.00156818 0)
(0.988204 -0.00149202 0)
(0.988783 -0.00141941 0)
(0.989334 -0.00135016 0)
(0.989857 -0.00128406 0)
(0.990356 -0.00122094 0)
(0.990829 -0.00116062 0)
(0.991279 -0.00110297 0)
(0.991707 -0.00104786 0)
(0.992113 -0.000995181 0)
(0.992499 -0.000944831 0)
(0.992865 -0.000896732 0)
(0.993213 -0.000850817 0)
(0.993542 -0.000807024 0)
(0.993854 -0.000765298 0)
(0.994151 -0.000725585 0)
(0.994431 -0.000687835 0)
(0.994698 -0.000651991 0)
(0.99495 -0.000617998 0)
(0.995189 -0.000585796 0)
(0.995415 -0.000555321 0)
(0.99563 -0.000526506 0)
(0.995834 -0.000499283 0)
(0.996027 -0.000473579 0)
(0.99621 -0.000449322 0)
(0.996384 -0.000426439 0)
(0.996549 -0.000404858 0)
(0.996706 -0.000384508 0)
(0.996854 -0.00036532 0)
(0.996996 -0.000347225 0)
(0.99713 -0.000330158 0)
(0.997258 -0.000314057 0)
(0.99738 -0.00029886 0)
(0.997496 -0.000284511 0)
(0.997606 -0.000270954 0)
(0.997711 -0.000258136 0)
(0.997811 -0.000246006 0)
(0.997907 -0.000234518 0)
(0.997998 -0.000223625 0)
(0.998085 -0.000213286 0)
(0.998168 -0.00020346 0)
(0.998247 -0.00019411 0)
(0.998322 -0.000185201 0)
(0.998394 -0.000176702 0)
(0.998463 -0.000168584 0)
(0.998528 -0.00016082 0)
(0.998591 -0.000153387 0)
(0.998651 -0.000146264 0)
(0.998707 -0.000139431 0)
(0.998762 -0.000132872 0)
(0.998813 -0.000126573 0)
(0.998862 -0.00012052 0)
(0.998909 -0.000114703 0)
(0.998954 -0.000109112 0)
(0.998996 -0.000103738 0)
(0.999036 -9.85752e-05 0)
(0.999075 -9.36157e-05 0)
(0.999111 -8.8854e-05 0)
(0.999145 -8.42849e-05 0)
(0.999178 -7.99037e-05 0)
(0.999209 -7.57058e-05 0)
(0.999238 -7.16871e-05 0)
(0.999266 -6.78435e-05 0)
(0.999292 -6.41711e-05 0)
(0.999317 -6.06661e-05 0)
(0.99934 -5.73245e-05 0)
(0.999363 -5.41426e-05 0)
(0.999384 -5.11164e-05 0)
(0.999403 -4.8242e-05 0)
(0.999422 -4.55154e-05 0)
(0.999439 -4.29324e-05 0)
(0.999456 -4.0489e-05 0)
(0.999472 -3.8181e-05 0)
(0.999486 -3.60041e-05 0)
(0.9995 -3.39541e-05 0)
(0.999513 -3.20266e-05 0)
(0.999526 -3.02174e-05 0)
(0.999537 -2.8522e-05 0)
(0.999548 -2.69362e-05 0)
(0.999559 -2.54556e-05 0)
(0.999568 -2.4076e-05 0)
(0.999578 -2.27929e-05 0)
(0.999586 -2.16023e-05 0)
(0.999595 -2.04999e-05 0)
(0.999603 -1.94814e-05 0)
(0.99961 -1.85428e-05 0)
(0.999617 -1.768e-05 0)
(0.999624 -1.68889e-05 0)
(0.999631 -1.61657e-05 0)
(0.999637 -1.55064e-05 0)
(0.999643 -1.49072e-05 0)
(0.999649 -1.43644e-05 0)
(0.999654 -1.38743e-05 0)
(0.99966 -1.34333e-05 0)
(0.999665 -1.30381e-05 0)