/*--------------------------------*- C++ -*----------------------------------*\
| =========                 |                                                 |
| \\      /  F ield         | OpenFOAM: The Open Source CFD Toolbox           |
|  \\    /   O peration     | Version:  v2006                                 |
|   \\  /    A nd           | Website:  www.openfoam.com                      |
|    \\/     M anipulation  |                                                 |
\*---------------------------------------------------------------------------*/
FoamFile
{
    version     2.0;
    format      ascii;
    class       volVectorField;
    location    "0";
    object      U;
}
// * * * * * * * * * * * * * * * * * * * * * * * * * * * * * * * * * * * * * //

dimensions      [0 1 -1 0 0 0 0];


internalField   nonuniform List<vector> 
67500
(
(-0.0276854 0.0186881 0)
(-0.0441464 0.0159338 0)
(-0.0594039 0.0203822 0)
(-0.0948755 0.000585206 0)
(-0.0976633 -0.0500697 0)
(-0.0542511 -0.0991106 0)
(0.00438343 -0.128103 0)
(0.11934 -0.130626 0)
(0.253958 -0.075677 0)
(0.323974 -0.0287856 0)
(0.331125 0.00335013 0)
(0.314563 0.0162555 0)
(0.302919 0.027128 0)
(0.247479 -0.0110221 0)
(0.210001 -0.0351531 0)
(0.185073 -0.0162168 0)
(0.166058 0.00101036 0)
(0.159469 -0.0046363 0)
(0.165025 -0.0147084 0)
(0.177311 -0.0167333 0)
(0.190226 -0.0124556 0)
(0.199811 -0.00671624 0)
(0.205641 -0.00258948 0)
(0.209293 -0.000826338 0)
(0.212152 -0.000740742 0)
(0.215018 -0.00142177 0)
(0.218303 -0.00219419 0)
(0.222139 -0.00290966 0)
(0.226428 -0.00335517 0)
(0.230881 -0.00342892 0)
(0.235454 -0.00329956 0)
(0.240567 -0.00323257 0)
(0.246864 -0.00346127 0)
(0.254728 -0.00399985 0)
(0.264073 -0.0046556 0)
(0.274449 -0.00519965 0)
(0.285299 -0.00548573 0)
(0.296153 -0.00549058 0)
(0.30672 -0.00529433 0)
(0.316899 -0.00502066 0)
(0.326751 -0.00478394 0)
(0.336417 -0.00465018 0)
(0.34604 -0.00462319 0)
(0.355709 -0.00466049 0)
(0.365436 -0.00470384 0)
(0.375175 -0.00470939 0)
(0.384859 -0.00466955 0)
(0.394464 -0.00461526 0)
(0.404029 -0.00459519 0)
(0.413653 -0.00464733 0)
(0.423463 -0.0047799 0)
(0.433569 -0.00496812 0)
(0.444025 -0.00516598 0)
(0.454805 -0.00532738 0)
(0.465823 -0.00542347 0)
(0.47696 -0.00544703 0)
(0.488092 -0.00540595 0)
(0.49911 -0.00531129 0)
(0.509916 -0.0051636 0)
(0.520387 -0.00494717 0)
(0.530373 -0.00466791 0)
(0.539828 -0.00441762 0)
(0.548884 -0.00425365 0)
(0.557696 -0.00415008 0)
(0.566339 -0.00408121 0)
(0.574846 -0.00404166 0)
(0.583254 -0.00402891 0)
(0.5916 -0.00403652 0)
(0.599905 -0.00405236 0)
(0.608169 -0.00406683 0)
(0.616403 -0.00408943 0)
(0.624653 -0.00413368 0)
(0.632982 -0.00419466 0)
(0.641426 -0.00426005 0)
(0.649993 -0.00431935 0)
(0.658667 -0.00436249 0)
(0.667407 -0.00438001 0)
(0.676151 -0.00436731 0)
(0.68484 -0.00433311 0)
(0.693451 -0.00429746 0)
(0.701999 -0.0042695 0)
(0.7105 -0.00424148 0)
(0.718942 -0.00420336 0)
(0.727298 -0.00415265 0)
(0.735544 -0.00409571 0)
(0.743677 -0.00404029 0)
(0.751703 -0.00398649 0)
(0.759622 -0.00392975 0)
(0.767422 -0.00386849 0)
(0.775096 -0.00380485 0)
(0.782641 -0.00374036 0)
(0.790056 -0.00367436 0)
(0.797337 -0.00360619 0)
(0.804479 -0.00353642 0)
(0.811481 -0.00346552 0)
(0.818339 -0.00339336 0)
(0.825053 -0.00331979 0)
(0.831617 -0.00324496 0)
(0.838031 -0.00316892 0)
(0.844292 -0.00309163 0)
(0.850396 -0.00301318 0)
(0.856343 -0.00293369 0)
(0.862129 -0.00285331 0)
(0.867754 -0.00277223 0)
(0.873216 -0.00269064 0)
(0.878514 -0.00260878 0)
(0.883649 -0.00252688 0)
(0.888619 -0.00244517 0)
(0.893427 -0.00236386 0)
(0.898072 -0.00228316 0)
(0.902556 -0.00220325 0)
(0.906882 -0.0021243 0)
(0.911051 -0.00204647 0)
(0.915065 -0.00196987 0)
(0.918927 -0.00189463 0)
(0.92264 -0.00182086 0)
(0.926207 -0.00174864 0)
(0.929632 -0.00167804 0)
(0.932917 -0.00160915 0)
(0.936066 -0.00154202 0)
(0.939082 -0.00147672 0)
(0.94197 -0.00141327 0)
(0.944732 -0.00135173 0)
(0.947374 -0.00129212 0)
(0.949898 -0.00123447 0)
(0.952309 -0.00117878 0)
(0.954611 -0.00112507 0)
(0.956807 -0.00107334 0)
(0.958901 -0.00102356 0)
(0.960899 -0.000975714 0)
(0.962802 -0.000929786 0)
(0.964615 -0.00088574 0)
(0.966343 -0.000843539 0)
(0.967988 -0.000803144 0)
(0.969553 -0.000764512 0)
(0.971044 -0.000727597 0)
(0.972462 -0.000692351 0)
(0.973811 -0.000658722 0)
(0.975095 -0.000626659 0)
(0.976316 -0.000596107 0)
(0.977478 -0.000567008 0)
(0.978583 -0.000539307 0)
(0.979634 -0.000512947 0)
(0.980633 -0.000487868 0)
(0.981584 -0.000464016 0)
(0.982488 -0.000441332 0)
(0.983348 -0.000419761 0)
(0.984166 -0.000399249 0)
(0.984944 -0.000379742 0)
(0.985684 -0.000361187 0)
(0.986388 -0.000343534 0)
(0.987057 -0.000326732 0)
(0.987694 -0.000310733 0)
(0.988299 -0.000295491 0)
(0.988875 -0.000280962 0)
(0.989423 -0.000267105 0)
(0.989943 -0.000253882 0)
(0.990437 -0.000241258 0)
(0.990907 -0.000229202 0)
(0.991354 -0.000217687 0)
(0.991778 -0.000206689 0)
(0.99218 -0.000196187 0)
(0.992562 -0.000186163 0)
(0.992924 -0.000176601 0)
(0.993268 -0.000167487 0)
(0.993594 -0.000158809 0)
(0.993902 -0.000150554 0)
(0.994195 -0.000142711 0)
(0.994473 -0.000135266 0)
(0.994736 -0.000128208 0)
(0.994985 -0.000121524 0)
(0.995222 -0.000115199 0)
(0.995446 -0.000109219 0)
(0.995658 -0.00010357 0)
(0.99586 -9.82359e-05 0)
(0.996051 -9.32023e-05 0)
(0.996232 -8.84537e-05 0)
(0.996405 -8.39749e-05 0)
(0.996568 -7.97513e-05 0)
(0.996723 -7.57683e-05 0)
(0.996871 -7.20119e-05 0)
(0.997011 -6.84687e-05 0)
(0.997145 -6.51255e-05 0)
(0.997271 -6.197e-05 0)
(0.997392 -5.89902e-05 0)
(0.997507 -5.61747e-05 0)
(0.997617 -5.35126e-05 0)
(0.997721 -5.09936e-05 0)
(0.997821 -4.8608e-05 0)
(0.997915 -4.63463e-05 0)
(0.998006 -4.42e-05 0)
(0.998092 -4.21608e-05 0)
(0.998174 -4.0221e-05 0)
(0.998253 -3.83737e-05 0)
(0.998328 -3.66123e-05 0)
(0.998399 -3.49308e-05 0)
(0.998468 -3.33238e-05 0)
(0.998533 -3.17864e-05 0)
(0.998595 -3.03142e-05 0)
(0.998654 -2.89034e-05 0)
(0.99871 -2.75503e-05 0)
(0.998764 -2.62519e-05 0)
(0.998815 -2.50056e-05 0)
(0.998864 -2.38089e-05 0)
(0.99891 -2.26596e-05 0)
(0.998954 -2.15561e-05 0)
(0.998996 -2.04965e-05 0)
(0.999036 -1.94794e-05 0)
(0.999074 -1.85036e-05 0)
(0.99911 -1.75677e-05 0)
(0.999145 -1.66707e-05 0)
(0.999177 -1.58115e-05 0)
(0.999208 -1.49891e-05 0)
(0.999237 -1.42027e-05 0)
(0.999265 -1.34513e-05 0)
(0.999291 -1.2734e-05 0)
(0.999315 -1.20499e-05 0)
(0.999339 -1.13983e-05 0)
(0.999361 -1.07781e-05 0)
(0.999382 -1.01887e-05 0)
(0.999402 -9.62906e-06 0)
(0.99942 -9.09837e-06 0)
(0.999438 -8.59574e-06 0)
(0.999455 -8.12032e-06 0)
(0.999471 -7.67121e-06 0)
(0.999485 -7.24754e-06 0)
(0.9995 -6.84843e-06 0)
(0.999513 -6.47299e-06 0)
(0.999525 -6.12035e-06 0)
(0.999537 -5.78964e-06 0)
(0.999549 -5.47999e-06 0)
(0.999559 -5.19053e-06 0)
(0.999569 -4.92041e-06 0)
(0.999579 -4.66879e-06 0)
(0.999588 -4.43483e-06 0)
(0.999597 -4.2177e-06 0)
(0.999605 -4.01658e-06 0)
(0.999613 -3.83068e-06 0)
(0.99962 -3.65919e-06 0)
(0.999627 -3.50135e-06 0)
(0.999634 -3.35639e-06 0)
(0.999641 -3.22356e-06 0)
(0.999647 -3.10213e-06 0)
(0.999653 -2.99139e-06 0)
(0.999659 -2.89064e-06 0)
(0.999665 -2.79922e-06 0)
(0.99967 -2.71645e-06 0)
(0.999676 -2.64171e-06 0)
(0.999681 -2.57439e-06 0)
(0.999686 -2.5139e-06 0)
(0.999691 -2.45967e-06 0)
(0.999696 -2.41115e-06 0)
(0.9997 -2.36783e-06 0)
(0.999705 -2.32921e-06 0)
(0.99971 -2.29482e-06 0)
(0.999714 -2.2642e-06 0)
(0.999719 -2.23693e-06 0)
(0.999723 -2.21262e-06 0)
(0.999728 -2.19086e-06 0)
(0.999732 -2.17132e-06 0)
(0.999736 -2.15363e-06 0)
(0.999741 -2.1375e-06 0)
(0.999745 -2.1226e-06 0)
(0.999749 -2.10866e-06 0)
(0.999753 -2.09542e-06 0)
(0.999757 -2.08261e-06 0)
(0.999762 -2.07e-06 0)
(0.999766 -2.05736e-06 0)
(0.99977 -2.04449e-06 0)
(0.999774 -2.03118e-06 0)
(0.999778 -2.01725e-06 0)
(0.999782 -2.00253e-06 0)
(0.999786 -1.98684e-06 0)
(0.99979 -1.97003e-06 0)
(0.999794 -1.95197e-06 0)
(0.999798 -1.93251e-06 0)
(0.999802 -1.91155e-06 0)
(0.999805 -1.88897e-06 0)
(0.999809 -1.86469e-06 0)
(0.999813 -1.83863e-06 0)
(0.999817 -1.81074e-06 0)
(0.99982 -1.78097e-06 0)
(0.999824 -1.7493e-06 0)
(0.999827 -1.71574e-06 0)
(0.99983 -1.68031e-06 0)
(0.999834 -1.64306e-06 0)
(0.999837 -1.60408e-06 0)
(0.99984 -1.56345e-06 0)
(0.999843 -1.52132e-06 0)
(0.999846 -1.47784e-06 0)
(0.999849 -1.43319e-06 0)
(0.999852 -1.38759e-06 0)
(0.999855 -1.34127e-06 0)
(0.999857 -1.29447e-06 0)
(0.99986 -1.24746e-06 0)
(0.999862 -1.2005e-06 0)
(0.999865 -1.15386e-06 0)
(0.999867 -1.10782e-06 0)
(0.999869 -1.06262e-06 0)
(0.999871 -1.0185e-06 0)
(0.999873 -9.75683e-07 0)
(0.999875 -9.34347e-07 0)
(0.999877 -8.94653e-07 0)
(0.999879 -8.56732e-07 0)
(0.99988 -8.20685e-07 0)
(0.999882 -7.86595e-07 0)
(0.999884 -7.54524e-07 0)
(0.999885 -7.24528e-07 0)
(0.999886 -6.9666e-07 0)
(0.999888 -6.70976e-07 0)
(0.999889 -6.47539e-07 0)
(0.99989 -6.26422e-07 0)
(0.999892 -6.07699e-07 0)
(0.999893 -5.91441e-07 0)
(0.999894 -5.77698e-07 0)
(0.999895 -5.66485e-07 0)
(0.999896 -5.57761e-07 0)
(0.999897 -5.51413e-07 0)
(0.999898 -5.47233e-07 0)
(0.9999 -5.44916e-07 0)
(0.999901 -5.44053e-07 0)
(0.999902 -5.44144e-07 0)
(0.999903 -5.4462e-07 0)
(0.999904 -5.44879e-07 0)
(0.999905 -5.44331e-07 0)
(0.999906 -5.42448e-07 0)
(0.999907 -5.38819e-07 0)
(0.999908 -5.33194e-07 0)
(0.999909 -5.25519e-07 0)
(0.99991 -5.15952e-07 0)
(0.999911 -5.04859e-07 0)
(0.999912 -4.92789e-07 0)
(0.999913 -4.80423e-07 0)
(0.999914 -4.68521e-07 0)
(0.999915 -4.57847e-07 0)
(0.999916 -4.49108e-07 0)
(0.999917 -4.42892e-07 0)
(0.999918 -4.39622e-07 0)
(0.999919 -4.39535e-07 0)
(0.99992 -4.42667e-07 0)
(0.999921 -4.48864e-07 0)
(0.999922 -4.57808e-07 0)
(0.999922 -4.69051e-07 0)
(0.999923 -4.8205e-07 0)
(0.999924 -4.96213e-07 0)
(0.999925 -5.10935e-07 0)
(0.999927 -5.25633e-07 0)
(0.999928 -5.39772e-07 0)
(0.999929 -5.52885e-07 0)
(0.99993 -5.64588e-07 0)
(0.999931 -5.74579e-07 0)
(0.999932 -5.82646e-07 0)
(0.999933 -5.88657e-07 0)
(0.999934 -5.92555e-07 0)
(0.999936 -5.94348e-07 0)
(0.999937 -5.94096e-07 0)
(0.999938 -5.91903e-07 0)
(0.999939 -5.87905e-07 0)
(0.99994 -5.82261e-07 0)
(0.999942 -5.75143e-07 0)
(0.999943 -5.66729e-07 0)
(0.999944 -5.57199e-07 0)
(0.999945 -5.46728e-07 0)
(0.999946 -5.35482e-07 0)
(0.999947 -5.23619e-07 0)
(0.999948 -5.11283e-07 0)
(0.999949 -4.98604e-07 0)
(0.99995 -4.85702e-07 0)
(0.999951 -4.72679e-07 0)
(0.999952 -4.59628e-07 0)
(0.999953 -4.46628e-07 0)
(0.999954 -4.33744e-07 0)
(0.999955 -4.21035e-07 0)
(0.999955 -4.08546e-07 0)
(0.999956 -3.96317e-07 0)
(0.999957 -3.84377e-07 0)
(0.999958 -3.72749e-07 0)
(0.999959 -3.61453e-07 0)
(0.999959 -3.50499e-07 0)
(0.99996 -3.39895e-07 0)
(0.999961 -3.29647e-07 0)
(0.999961 -3.19754e-07 0)
(0.999962 -3.10216e-07 0)
(0.999962 -3.01027e-07 0)
(0.999963 -2.92183e-07 0)
(0.999964 -2.83675e-07 0)
(0.999964 -2.75497e-07 0)
(0.999965 -2.67637e-07 0)
(0.999965 -2.60087e-07 0)
(0.999966 -2.52836e-07 0)
(0.999966 -2.45873e-07 0)
(0.999967 -2.39187e-07 0)
(0.999967 -2.32769e-07 0)
(0.999968 -2.26605e-07 0)
(0.999968 -2.20687e-07 0)
(0.999969 -2.15003e-07 0)
(0.999969 -2.09542e-07 0)
(0.999969 -2.04296e-07 0)
(0.99997 -1.99254e-07 0)
(0.99997 -1.94406e-07 0)
(0.999971 -1.89743e-07 0)
(0.999971 -1.85257e-07 0)
(0.999971 -1.80939e-07 0)
(0.999972 -1.76781e-07 0)
(0.999972 -1.72775e-07 0)
(0.999972 -1.68913e-07 0)
(0.999973 -1.65189e-07 0)
(0.999973 -1.61596e-07 0)
(0.999973 -1.58126e-07 0)
(0.999974 -1.54775e-07 0)
(0.999974 -1.51536e-07 0)
(0.999974 -1.48404e-07 0)
(0.999975 -1.45373e-07 0)
(0.999975 -1.42438e-07 0)
(0.999975 -1.39595e-07 0)
(0.999975 -1.36838e-07 0)
(0.999976 -1.34164e-07 0)
(0.999976 -1.31569e-07 0)
(0.999976 -1.29048e-07 0)
(0.999976 -1.26598e-07 0)
(0.999977 -1.24216e-07 0)
(0.999977 -1.21897e-07 0)
(0.999977 -1.1964e-07 0)
(0.999977 -1.17441e-07 0)
(0.999978 -1.15297e-07 0)
(0.999978 -1.13206e-07 0)
(0.999978 -1.11165e-07 0)
(0.999978 -1.09172e-07 0)
(0.999979 -1.07224e-07 0)
(0.999979 -1.05319e-07 0)
(0.999979 -1.03456e-07 0)
(0.999979 -1.01632e-07 0)
(0.999979 -9.98458e-08 0)
(0.99998 -9.80954e-08 0)
(0.99998 -9.63793e-08 0)
(0.99998 -9.46958e-08 0)
(0.99998 -9.30436e-08 0)
(0.99998 -9.14212e-08 0)
(0.999981 -8.98273e-08 0)
(0.999981 -8.82607e-08 0)
(0.999981 -8.67202e-08 0)
(0.999981 -8.52047e-08 0)
(0.999981 -8.37132e-08 0)
(0.999981 -8.22444e-08 0)
(0.999982 -8.07982e-08 0)
(0.999982 -7.93702e-08 0)
(0.999982 -7.7975e-08 0)
(0.999982 -7.65448e-08 0)
(0.999982 -7.53668e-08 0)
(0.999982 -7.32005e-08 0)
(-0.0313472 0.0496494 0)
(-0.0197801 0.0176388 0)
(-0.074026 0.0260191 0)
(-0.104 0.0186532 0)
(0.0195681 0.0033792 0)
(0.0133285 -0.0308173 0)
(0.0927052 -0.0516059 0)
(0.0356091 -0.193794 0)
(0.13996 -0.103651 0)
(0.132473 -0.0493758 0)
(0.145702 -0.0125898 0)
(0.210088 0.00310496 0)
(0.143467 0.0664702 0)
(0.265356 0.0723751 0)
(0.257553 0.0742144 0)
(0.248174 0.0518289 0)
(0.255188 0.0255495 0)
(0.250248 0.00530547 0)
(0.235523 -0.00671104 0)
(0.218439 -0.0107143 0)
(0.206835 -0.00989743 0)
(0.202773 -0.00794725 0)
(0.20356 -0.00626685 0)
(0.206323 -0.00489088 0)
(0.209439 -0.00402399 0)
(0.213037 -0.00392282 0)
(0.21787 -0.00379784 0)
(0.224278 -0.0041343 0)
(0.232146 -0.00461069 0)
(0.241046 -0.00524376 0)
(0.251215 -0.0065131 0)
(0.263089 -0.00867608 0)
(0.276479 -0.0112558 0)
(0.290574 -0.0135343 0)
(0.30439 -0.0150645 0)
(0.317206 -0.0157958 0)
(0.328713 -0.0159362 0)
(0.338939 -0.0157366 0)
(0.348132 -0.0154225 0)
(0.35665 -0.0151501 0)
(0.364846 -0.0149956 0)
(0.372976 -0.0149605 0)
(0.381144 -0.0149944 0)
(0.389317 -0.0150321 0)
(0.397388 -0.0150303 0)
(0.405259 -0.014983 0)
(0.412907 -0.0149201 0)
(0.42042 -0.0148887 0)
(0.427964 -0.0149355 0)
(0.435719 -0.0150975 0)
(0.443798 -0.0153849 0)
(0.452212 -0.0157631 0)
(0.460877 -0.016159 0)
(0.469662 -0.0164907 0)
(0.478446 -0.0166934 0)
(0.487169 -0.0167334 0)
(0.495836 -0.0166105 0)
(0.504503 -0.0163515 0)
(0.513231 -0.0159763 0)
(0.521989 -0.0154317 0)
(0.530571 -0.0146615 0)
(0.538868 -0.0139782 0)
(0.547068 -0.0135632 0)
(0.55535 -0.0133036 0)
(0.563712 -0.0130994 0)
(0.572114 -0.0129313 0)
(0.580545 -0.0128001 0)
(0.589007 -0.0126981 0)
(0.597491 -0.0125975 0)
(0.605956 -0.0124771 0)
(0.614376 -0.0123999 0)
(0.622806 -0.0124355 0)
(0.631332 -0.0125628 0)
(0.639994 -0.012733 0)
(0.648794 -0.0129061 0)
(0.657712 -0.0130418 0)
(0.666696 -0.0131014 0)
(0.675661 -0.0130617 0)
(0.684518 -0.0129505 0)
(0.693242 -0.0128431 0)
(0.701877 -0.01277 0)
(0.710459 -0.0127003 0)
(0.718975 -0.0125975 0)
(0.727383 -0.0124505 0)
(0.735653 -0.0122812 0)
(0.743791 -0.0121186 0)
(0.75182 -0.0119618 0)
(0.759744 -0.0117926 0)
(0.767546 -0.0116067 0)
(0.775217 -0.0114136 0)
(0.782759 -0.0112197 0)
(0.790173 -0.0110217 0)
(0.797454 -0.0108169 0)
(0.804597 -0.0106076 0)
(0.8116 -0.0103952 0)
(0.818461 -0.010179 0)
(0.825177 -0.00995835 0)
(0.831745 -0.00973382 0)
(0.838162 -0.00950562 0)
(0.844426 -0.0092736 0)
(0.850533 -0.00903806 0)
(0.856482 -0.00879945 0)
(0.862271 -0.00855819 0)
(0.867898 -0.00831479 0)
(0.873361 -0.00806989 0)
(0.878661 -0.00782417 0)
(0.883796 -0.00757832 0)
(0.888766 -0.00733304 0)
(0.893573 -0.00708899 0)
(0.898218 -0.0068468 0)
(0.902701 -0.006607 0)
(0.907025 -0.00637011 0)
(0.911192 -0.00613657 0)
(0.915204 -0.00590676 0)
(0.919064 -0.00568104 0)
(0.922775 -0.00545972 0)
(0.92634 -0.00524306 0)
(0.929761 -0.0050313 0)
(0.933043 -0.00482465 0)
(0.936189 -0.0046233 0)
(0.939202 -0.0044274 0)
(0.942086 -0.0042371 0)
(0.944846 -0.00405252 0)
(0.947484 -0.00387374 0)
(0.950004 -0.00370083 0)
(0.952412 -0.00353383 0)
(0.95471 -0.00337276 0)
(0.956903 -0.0032176 0)
(0.958994 -0.00306833 0)
(0.960987 -0.00292487 0)
(0.962887 -0.00278716 0)
(0.964697 -0.00265509 0)
(0.966421 -0.00252856 0)
(0.968063 -0.00240745 0)
(0.969625 -0.00229163 0)
(0.971113 -0.00218095 0)
(0.972528 -0.00207529 0)
(0.973874 -0.00197447 0)
(0.975155 -0.00187836 0)
(0.976374 -0.00178677 0)
(0.977532 -0.00169954 0)
(0.978635 -0.00161651 0)
(0.979683 -0.0015375 0)
(0.98068 -0.00146233 0)
(0.981629 -0.00139083 0)
(0.982531 -0.00132284 0)
(0.983389 -0.00125819 0)
(0.984205 -0.00119672 0)
(0.984981 -0.00113825 0)
(0.985719 -0.00108264 -1.08395e-41)
(0.986421 -0.00102973 -1.03012e-41)
(0.987089 -0.000979377 0)
(0.987724 -0.000931427 0)
(0.988328 -0.000885745 0)
(0.988903 -0.000842199 0)
(0.989449 -0.000800664 0)
(0.989968 -0.000761028 0)
(0.990462 -0.000723185 0)
(0.99093 -0.000687043 0)
(0.991376 -0.000652521 0)
(0.991799 -0.000619545 0)
(0.9922 -0.000588056 0)
(0.992581 -0.000558 0)
(0.992942 -0.000529329 0)
(0.993285 -0.000502004 0)
(0.99361 -0.000475986 0)
(0.993918 -0.000451238 0)
(0.99421 -0.000427724 0)
(0.994487 -0.000405409 0)
(0.99475 -0.000384254 0)
(0.994998 -0.000364219 0)
(0.995234 -0.000345263 0)
(0.995457 -0.000327342 0)
(0.995669 -0.000310412 0)
(0.99587 -0.000294428 0)
(0.996061 -0.000279344 0)
(0.996241 -0.000265113 0)
(0.996413 -0.000251691 0)
(0.996576 -0.000239034 0)
(0.996731 -0.000227098 0)
(0.996878 -0.00021584 0)
(0.997018 -0.000205222 0)
(0.997151 -0.000195203 0)
(0.997278 -0.000185747 0)
(0.997398 -0.000176817 0)
(0.997513 -0.00016838 0)
(0.997622 -0.000160402 0)
(0.997726 -0.000152854 0)
(0.997825 -0.000145705 0)
(0.99792 -0.000138928 0)
(0.99801 -0.000132496 0)
(0.998096 -0.000126386 0)
(0.998178 -0.000120573 0)
(0.998257 -0.000115037 0)
(0.998331 -0.000109758 0)
(0.998403 -0.000104719 0)
(0.998471 -9.99029e-05 0)
(0.998536 -9.5295e-05 0)
(0.998597 -9.08823e-05 0)
(0.998657 -8.66531e-05 0)
(0.998713 -8.25968e-05 0)
(0.998766 -7.87044e-05 0)
(0.998818 -7.49677e-05 0)
(0.998866 -7.13796e-05 0)
(0.998913 -6.79337e-05 0)
(0.998957 -6.46245e-05 0)
(0.998999 -6.14472e-05 0)
(0.999038 -5.83973e-05 0)
(0.999076 -5.54708e-05 0)
(0.999112 -5.26642e-05 0)
(0.999146 -4.99741e-05 0)
(0.999179 -4.73974e-05 0)
(0.999209 -4.49313e-05 0)
(0.999239 -4.25729e-05 0)
(0.999266 -4.03194e-05 0)
(0.999292 -3.81684e-05 0)
(0.999317 -3.61171e-05 0)
(0.99934 -3.4163e-05 0)
(0.999362 -3.23035e-05 0)
(0.999383 -3.0536e-05 0)
(0.999403 -2.8858e-05 0)
(0.999422 -2.72668e-05 0)
(0.999439 -2.57598e-05 0)
(0.999456 -2.43345e-05 0)
(0.999471 -2.2988e-05 0)
(0.999486 -2.17179e-05 0)
(0.9995 -2.05215e-05 0)
(0.999514 -1.93961e-05 0)
(0.999526 -1.8339e-05 0)
(0.999538 -1.73478e-05 0)
(0.999549 -1.64197e-05 0)
(0.99956 -1.55522e-05 0)
(0.99957 -1.47427e-05 0)
(0.999579 -1.39887e-05 0)
(0.999588 -1.32876e-05 0)
(0.999597 -1.26371e-05 0)
(0.999605 -1.20345e-05 0)
(0.999613 -1.14776e-05 0)
(0.99962 -1.09639e-05 0)
(0.999628 -1.04912e-05 0)
(0.999634 -1.0057e-05 0)
(0.999641 -9.65927e-06 0)
(0.999647 -9.2957e-06 0)
(0.999653 -8.96417e-06 0)
(0.999659 -8.66261e-06 0)
(0.999665 -8.38898e-06 0)
(0.99967 -8.14132e-06 0)
(0.999676 -7.91772e-06 0)
(0.999681 -7.71635e-06 0)
(0.999686 -7.53544e-06 0)
(0.999691 -7.37328e-06 0)
(0.999696 -7.22825e-06 0)
(0.9997 -7.09878e-06 0)
(0.999705 -6.98339e-06 0)
(0.99971 -6.88066e-06 0)
(0.999714 -6.78924e-06 0)
(0.999719 -6.70784e-06 0)
(0.999723 -6.63527e-06 0)
(0.999728 -6.57038e-06 0)
(0.999732 -6.51208e-06 0)
(0.999736 -6.45935e-06 0)
(0.999741 -6.41124e-06 0)
(0.999745 -6.36684e-06 0)
(0.999749 -6.3253e-06 0)
(0.999753 -6.28581e-06 0)
(0.999757 -6.24762e-06 0)
(0.999762 -6.21001e-06 0)
(0.999766 -6.17231e-06 0)
(0.99977 -6.1339e-06 0)
(0.999774 -6.09417e-06 0)
(0.999778 -6.05256e-06 0)
(0.999782 -6.00854e-06 0)
(0.999786 -5.96163e-06 0)
(0.99979 -5.91135e-06 0)
(0.999794 -5.85728e-06 0)
(0.999798 -5.79903e-06 0)
(0.999802 -5.73624e-06 0)
(0.999805 -5.6686e-06 0)
(0.999809 -5.59584e-06 0)
(0.999813 -5.51772e-06 0)
(0.999817 -5.43408e-06 0)
(0.99982 -5.34478e-06 0)
(0.999824 -5.24978e-06 0)
(0.999827 -5.14907e-06 0)
(0.999831 -5.04274e-06 0)
(0.999834 -4.93092e-06 0)
(0.999837 -4.81385e-06 0)
(0.99984 -4.69184e-06 0)
(0.999843 -4.56529e-06 0)
(0.999846 -4.43466e-06 0)
(0.999849 -4.30052e-06 0)
(0.999852 -4.16349e-06 0)
(0.999855 -4.02428e-06 0)
(0.999858 -3.88362e-06 0)
(0.99986 -3.74231e-06 0)
(0.999863 -3.60117e-06 0)
(0.999865 -3.461e-06 0)
(0.999867 -3.32262e-06 0)
(0.999869 -3.18678e-06 0)
(0.999871 -3.0542e-06 0)
(0.999873 -2.92553e-06 0)
(0.999875 -2.80132e-06 0)
(0.999877 -2.68207e-06 0)
(0.999879 -2.56815e-06 0)
(0.99988 -2.4599e-06 0)
(0.999882 -2.35757e-06 0)
(0.999884 -2.26133e-06 0)
(0.999885 -2.17138e-06 0)
(0.999887 -2.08784e-06 0)
(0.999888 -2.01087e-06 0)
(0.999889 -1.94063e-06 0)
(0.99989 -1.87729e-06 0)
(0.999892 -1.82105e-06 0)
(0.999893 -1.77206e-06 0)
(0.999894 -1.73045e-06 0)
(0.999895 -1.69624e-06 0)
(0.999896 -1.66933e-06 0)
(0.999897 -1.6494e-06 0)
(0.999898 -1.63589e-06 0)
(0.9999 -1.62796e-06 0)
(0.999901 -1.62448e-06 0)
(0.999902 -1.62408e-06 0)
(0.999903 -1.62515e-06 0)
(0.999904 -1.626e-06 0)
(0.999905 -1.62496e-06 0)
(0.999906 -1.6205e-06 0)
(0.999907 -1.61144e-06 0)
(0.999908 -1.59702e-06 0)
(0.999909 -1.57704e-06 0)
(0.99991 -1.55189e-06 0)
(0.999911 -1.52252e-06 0)
(0.999912 -1.49042e-06 0)
(0.999913 -1.45744e-06 0)
(0.999914 -1.42565e-06 0)
(0.999915 -1.39716e-06 0)
(0.999916 -1.37392e-06 0)
(0.999917 -1.35756e-06 0)
(0.999918 -1.34928e-06 0)
(0.999919 -1.34976e-06 0)
(0.99992 -1.35912e-06 0)
(0.999921 -1.37697e-06 0)
(0.999922 -1.40246e-06 0)
(0.999922 -1.43437e-06 0)
(0.999923 -1.47118e-06 0)
(0.999924 -1.51127e-06 0)
(0.999925 -1.55292e-06 0)
(0.999926 -1.59449e-06 0)
(0.999928 -1.63446e-06 0)
(0.999929 -1.67149e-06 0)
(0.99993 -1.70447e-06 0)
(0.999931 -1.73252e-06 0)
(0.999932 -1.75501e-06 0)
(0.999933 -1.77154e-06 0)
(0.999934 -1.78194e-06 0)
(0.999936 -1.78622e-06 0)
(0.999937 -1.78453e-06 0)
(0.999938 -1.77717e-06 0)
(0.999939 -1.76453e-06 0)
(0.99994 -1.74706e-06 0)
(0.999942 -1.72527e-06 0)
(0.999943 -1.69967e-06 0)
(0.999944 -1.67079e-06 0)
(0.999945 -1.63914e-06 0)
(0.999946 -1.60522e-06 0)
(0.999947 -1.56948e-06 0)
(0.999948 -1.53236e-06 0)
(0.999949 -1.49423e-06 0)
(0.99995 -1.45546e-06 0)
(0.999951 -1.41634e-06 0)
(0.999952 -1.37716e-06 0)
(0.999953 -1.33813e-06 0)
(0.999954 -1.29947e-06 0)
(0.999955 -1.26134e-06 0)
(0.999955 -1.22389e-06 0)
(0.999956 -1.18721e-06 0)
(0.999957 -1.15141e-06 0)
(0.999958 -1.11655e-06 0)
(0.999959 -1.08268e-06 0)
(0.999959 -1.04985e-06 0)
(0.99996 -1.01807e-06 0)
(0.999961 -9.87354e-07 0)
(0.999961 -9.57709e-07 0)
(0.999962 -9.29127e-07 0)
(0.999962 -9.01595e-07 0)
(0.999963 -8.75097e-07 0)
(0.999964 -8.49609e-07 0)
(0.999964 -8.25107e-07 0)
(0.999965 -8.01562e-07 0)
(0.999965 -7.78945e-07 0)
(0.999966 -7.57225e-07 0)
(0.999966 -7.36368e-07 0)
(0.999967 -7.16343e-07 0)
(0.999967 -6.97117e-07 0)
(0.999968 -6.78657e-07 0)
(0.999968 -6.60931e-07 0)
(0.999969 -6.43907e-07 0)
(0.999969 -6.27553e-07 0)
(0.999969 -6.11841e-07 0)
(0.99997 -5.96739e-07 0)
(0.99997 -5.8222e-07 0)
(0.999971 -5.68256e-07 0)
(0.999971 -5.54821e-07 0)
(0.999971 -5.41889e-07 0)
(0.999972 -5.29436e-07 0)
(0.999972 -5.17438e-07 0)
(0.999972 -5.05874e-07 0)
(0.999973 -4.94721e-07 0)
(0.999973 -4.83959e-07 0)
(0.999973 -4.7357e-07 0)
(0.999974 -4.63534e-07 0)
(0.999974 -4.53834e-07 0)
(0.999974 -4.44454e-07 0)
(0.999975 -4.35376e-07 0)
(0.999975 -4.26587e-07 0)
(0.999975 -4.18071e-07 0)
(0.999975 -4.09816e-07 0)
(0.999976 -4.01808e-07 0)
(0.999976 -3.94035e-07 0)
(0.999976 -3.86486e-07 0)
(0.999976 -3.79149e-07 0)
(0.999977 -3.72014e-07 0)
(0.999977 -3.65071e-07 0)
(0.999977 -3.58311e-07 0)
(0.999977 -3.51725e-07 0)
(0.999978 -3.45305e-07 0)
(0.999978 -3.39042e-07 0)
(0.999978 -3.32929e-07 0)
(0.999978 -3.26959e-07 0)
(0.999979 -3.21125e-07 0)
(0.999979 -3.15421e-07 0)
(0.999979 -3.0984e-07 0)
(0.999979 -3.04378e-07 0)
(0.999979 -2.99028e-07 0)
(0.99998 -2.93785e-07 0)
(0.99998 -2.88645e-07 0)
(0.99998 -2.83603e-07 0)
(0.99998 -2.78654e-07 0)
(0.99998 -2.73795e-07 0)
(0.999981 -2.69021e-07 0)
(0.999981 -2.64329e-07 0)
(0.999981 -2.59715e-07 0)
(0.999981 -2.55176e-07 0)
(0.999981 -2.50708e-07 0)
(0.999981 -2.46309e-07 0)
(0.999982 -2.41977e-07 0)
(0.999982 -2.377e-07 0)
(0.999982 -2.33521e-07 0)
(0.999982 -2.29237e-07 0)
(0.999982 -2.25707e-07 0)
(0.999982 -2.19229e-07 0)
(-0.026291 0.07012 0)
(0.00303856 0.0475725 0)
(-0.0775918 0.0891064 0)
(-0.0825171 -0.0242819 0)
(-0.00071974 -0.153268 0)
(0.0339951 -0.0972868 0)
(0.0827379 -0.112518 0)
(-0.0438382 -0.16008 0)
(0.0526333 -0.0924729 0)
(0.0168531 -0.0690082 0)
(0.0760805 -0.054193 0)
(0.101081 -0.0334989 0)
(0.133054 -0.0231721 0)
(0.180341 -0.019253 0)
(0.215493 -0.0163189 0)
(0.232197 -0.00423712 0)
(0.23395 0.0103812 0)
(0.222308 0.0192418 0)
(0.206666 0.0197453 0)
(0.198204 0.0130572 0)
(0.200283 0.00308782 0)
(0.207322 -0.00484901 0)
(0.217783 -0.00881323 0)
(0.231879 -0.00940776 0)
(0.248694 -0.00996323 0)
(0.268675 -0.0134922 0)
(0.290637 -0.0161118 0)
(0.315209 -0.0196886 0)
(0.336583 -0.0215182 0)
(0.354573 -0.0228333 0)
(0.371562 -0.0247861 0)
(0.387186 -0.0274025 0)
(0.401123 -0.0299233 0)
(0.413358 -0.0313742 0)
(0.424057 -0.0312673 0)
(0.433742 -0.0297456 0)
(0.442865 -0.0273679 0)
(0.451702 -0.0247724 0)
(0.460319 -0.0225311 0)
(0.468713 -0.0209834 0)
(0.476887 -0.0202067 0)
(0.484848 -0.020024 0)
(0.492563 -0.0200989 0)
(0.499943 -0.0200943 0)
(0.506873 -0.0198166 0)
(0.513266 -0.0192933 0)
(0.519122 -0.0187822 0)
(0.524551 -0.0186179 0)
(0.529701 -0.0189857 0)
(0.53466 -0.0198317 0)
(0.539421 -0.0209252 0)
(0.543891 -0.0219734 0)
(0.547943 -0.0227426 0)
(0.551471 -0.0231561 0)
(0.554429 -0.0233021 0)
(0.556845 -0.0233499 0)
(0.558815 -0.0234389 0)
(0.560498 -0.0235943 0)
(0.562137 -0.0236753 0)
(0.563945 -0.0233173 0)
(0.565804 -0.0222028 0)
(0.567681 -0.0214024 0)
(0.570031 -0.0211294 0)
(0.573201 -0.0209803 0)
(0.57717 -0.0208268 0)
(0.581867 -0.0207019 0)
(0.587262 -0.0206521 0)
(0.593318 -0.0206998 0)
(0.599949 -0.0207814 0)
(0.606953 -0.0207736 0)
(0.61415 -0.020796 0)
(0.621589 -0.0210086 0)
(0.629389 -0.0213463 0)
(0.637573 -0.0217133 0)
(0.646114 -0.0220516 0)
(0.654977 -0.0223005 0)
(0.664081 -0.0223871 0)
(0.673274 -0.022244 0)
(0.682369 -0.0219286 0)
(0.691314 -0.0216557 0)
(0.700208 -0.0214935 0)
(0.709113 -0.0213465 0)
(0.71798 -0.0211289 0)
(0.726708 -0.0208208 0)
(0.735223 -0.0204848 0)
(0.743546 -0.0201934 0)
(0.751732 -0.0199333 0)
(0.759791 -0.0196527 0)
(0.76769 -0.0193383 0)
(0.775419 -0.0190149 0)
(0.782994 -0.0186964 0)
(0.79043 -0.0183708 0)
(0.797725 -0.0180305 0)
(0.804872 -0.0176821 0)
(0.811876 -0.0173297 0)
(0.818738 -0.0169705 0)
(0.825456 -0.016603 0)
(0.832026 -0.0162292 0)
(0.838446 -0.0158492 0)
(0.844714 -0.0154625 0)
(0.850826 -0.0150696 0)
(0.856779 -0.0146714 0)
(0.862572 -0.0142686 0)
(0.868202 -0.0138621 0)
(0.873668 -0.0134531 0)
(0.878969 -0.0130427 0)
(0.884105 -0.0126322 0)
(0.889075 -0.0122226 0)
(0.893881 -0.0118151 0)
(0.898523 -0.0114107 0)
(0.903004 -0.0110104 0)
(0.907325 -0.0106151 0)
(0.911487 -0.0102253 0)
(0.915495 -0.00984186 0)
(0.91935 -0.00946526 0)
(0.923056 -0.00909601 0)
(0.926614 -0.00873458 0)
(0.93003 -0.00838134 0)
(0.933305 -0.00803665 0)
(0.936444 -0.00770082 0)
(0.939451 -0.00737411 0)
(0.942328 -0.00705676 0)
(0.94508 -0.00674895 0)
(0.947711 -0.00645085 0)
(0.950224 -0.00616256 0)
(0.952624 -0.00588416 0)
(0.954915 -0.00561566 0)
(0.9571 -0.00535706 0)
(0.959184 -0.00510828 0)
(0.96117 -0.00486922 0)
(0.963063 -0.00463975 0)
(0.964866 -0.00441971 0)
(0.966582 -0.00420892 0)
(0.968217 -0.00400716 0)
(0.969773 -0.00381423 0)
(0.971254 -0.0036299 0)
(0.972662 -0.00345392 0)
(0.974003 -0.00328604 0)
(0.975278 -0.00312599 0)
(0.97649 -0.0029735 0)
(0.977644 -0.00282829 0)
(0.978741 -0.00269006 0)
(0.979784 -0.00255854 0)
(0.980777 -0.00243342 0)
(0.98172 -0.00231443 0)
(0.982618 -0.00220128 0)
(0.983472 -0.00209369 0)
(0.984284 -0.00199139 0)
(0.985056 -0.0018941 0)
(0.98579 -0.00180158 0)
(0.986489 -0.00171355 0)
(0.987154 -0.00162977 0)
(0.987786 -0.00155 0)
(0.988387 -0.00147399 0)
(0.988959 -0.00140155 0)
(0.989503 -0.00133244 0)
(0.990019 -0.00126649 0)
(0.99051 -0.00120352 0)
(0.990977 -0.00114337 0)
(0.99142 -0.0010859 0)
(0.991841 -0.00103101 0)
(0.992241 -0.000978583 0)
(0.99262 -0.000928535 0)
(0.992979 -0.000880791 0)
(0.993321 -0.000835285 0)
(0.993644 -0.000791954 0)
(0.99395 -0.00075074 0)
(0.994241 -0.000711584 0)
(0.994516 -0.000674426 0)
(0.994777 -0.000639203 0)
(0.995024 -0.000605851 0)
(0.995258 -0.000574299 0)
(0.99548 -0.000544475 0)
(0.995691 -0.000516304 0)
(0.995891 -0.000489711 0)
(0.99608 -0.000464618 0)
(0.99626 -0.000440949 0)
(0.99643 -0.000418628 0)
(0.996592 -0.00039758 0)
(0.996746 -0.000377733 0)
(0.996893 -0.000359016 0)
(0.997032 -0.000341363 0)
(0.997164 -0.000324707 0)
(0.99729 -0.000308987 0)
(0.99741 -0.000294143 0)
(0.997524 -0.000280118 0)
(0.997632 -0.000266858 0)
(0.997736 -0.000254311 0)
(0.997835 -0.000242427 0)
(0.997929 -0.000231161 0)
(0.998018 -0.00022047 0)
(0.998104 -0.000210311 0)
(0.998186 -0.000200647 0)
(0.998264 -0.000191442 0)
(0.998338 -0.000182664 0)
(0.998409 -0.000174284 0)
(0.998477 -0.000166273 0)
(0.998542 -0.000158608 0)
(0.998603 -0.000151266 0)
(0.998662 -0.000144229 0)
(0.998718 -0.000137479 0)
(0.998772 -0.000131001 0)
(0.998822 -0.000124781 0)
(0.998871 -0.000118808 0)
(0.998917 -0.000113071 0)
(0.998961 -0.000107561 0)
(0.999003 -0.000102271 0)
(0.999042 -9.71919e-05 0)
(0.99908 -9.23186e-05 0)
(0.999116 -8.76446e-05 0)
(0.99915 -8.31646e-05 0)
(0.999182 -7.88735e-05 0)
(0.999213 -7.47664e-05 0)
(0.999242 -7.08387e-05 0)
(0.999269 -6.70859e-05 0)
(0.999295 -6.35037e-05 0)
(0.999319 -6.00877e-05 0)
(0.999343 -5.68337e-05 0)
(0.999365 -5.37374e-05 0)
(0.999385 -5.07945e-05 0)
(0.999405 -4.80006e-05 0)
(0.999424 -4.53515e-05 0)
(0.999441 -4.28428e-05 0)
(0.999458 -4.04701e-05 0)
(0.999473 -3.82289e-05 0)
(0.999488 -3.6115e-05 0)
(0.999502 -3.41238e-05 0)
(0.999515 -3.2251e-05 0)
(0.999527 -3.04921e-05 0)
(0.999539 -2.88429e-05 0)
(0.99955 -2.7299e-05 0)
(0.999561 -2.5856e-05 0)
(0.999571 -2.45096e-05 0)
(0.99958 -2.32557e-05 0)
(0.999589 -2.209e-05 0)
(0.999598 -2.10084e-05 0)
(0.999606 -2.00069e-05 0)
(0.999614 -1.90813e-05 0)
(0.999621 -1.82278e-05 0)
(0.999628 -1.74424e-05 0)
(0.999635 -1.67213e-05 0)
(0.999641 -1.60608e-05 0)
(0.999648 -1.54572e-05 0)
(0.999654 -1.4907e-05 0)
(0.99966 -1.44066e-05 0)
(0.999665 -1.39528e-05 0)
(0.999671 -1.35421e-05 0)
(0.999676 -1.31715e-05 0)
(0.999681 -1.28378e-05 0)
(0.999686 -1.25382e-05 0)
(0.999691 -1.22697e-05 0)
(0.999696 -1.20298e-05 0)
(0.999701 -1.18156e-05 0)