/*--------------------------------*- C++ -*----------------------------------*\
| =========                 |                                                 |
| \\      /  F ield         | OpenFOAM: The Open Source CFD Toolbox           |
|  \\    /   O peration     | Version:  v2006                                 |
|   \\  /    A nd           | Website:  www.openfoam.com                      |
|    \\/     M anipulation  |                                                 |
\*---------------------------------------------------------------------------*/
FoamFile
{
    version     2.0;
    format      ascii;
    class       volScalarField;
    location    "5.6";
    object      p;
}
// * * * * * * * * * * * * * * * * * * * * * * * * * * * * * * * * * * * * * //

dimensions      [1 -1 -2 0 0 0 0];


internalField   nonuniform List<scalar> 
52500
(
30882.3
30882.4
30882.5
30882.7
30883
30883.4
30883.8
30884.3
30884.9
30885.5
30886.2
30887
30887.9
30888.8
30889.8
30890.8
30892
30893.2
30894.4
30895.8
30897.2
30898.6
30900.1
30901.7
30903.4
30905.1
30906.8
30908.7
30910.5
30912.4
30914.4
30916.4
30918.5
30920.6
30922.8
30924.9
30927.1
30929.4
30931.7
30933.9
30936.2
30938.6
30940.9
30943.2
30945.6
30947.9
30950.2
30952.5
30954.8
30957.1
30959.3
30961.5
30963.7
30965.8
30967.8
30969.8
30971.8
30973.6
30975.4
30977.1
30978.7
30980.3
30981.7
30983
30984.2
30985.3
30986.2
30987
30987.7
30988.2
30988.6
30988.8
30988.9
30988.7
30988.4
30988
30987.3
30986.5
30985.4
30984.1
30982.7
30981
30979.1
30977
30974.6
30972.1
30969.2
30966.2
30962.9
30959.3
30955.5
30951.5
30947.2
30942.6
30937.8
30932.7
30927.3
30921.6
30915.7
30909.5
30903.1
30896.3
30889.3
30882
30874.4
30866.6
30858.4
30850
30841.3
30832.4
30823.1
30813.6
30803.8
30793.7
30783.3
30772.7
30761.8
30750.6
30739.2
30727.5
30715.5
30703.3
30690.8
30678.1
30665.1
30651.9
30638.4
30624.7
30610.7
30596.6
30582.2
30567.6
30552.7
30537.7
30522.4
30507
30491.3
30475.4
30459.4
30443.2
30426.8
30410.2
30393.5
30376.6
30359.6
30342.4
30325
30307.6
30290
30272.2
30254.4
30236.5
30218.4
30200.2
30182
30163.7
30145.3
30126.8
30108.3
30089.7
30071
30052.3
30033.6
30014.9
29996.1
29977.3
29958.5
29939.7
29920.9
29902.2
29883.4
29864.7
29846
29827.3
29808.7
29790.2
29771.7
29753.2
29734.9
29716.6
29698.4
29680.3
29662.3
29644.5
29626.7
29609
29591.5
29574.1
29556.9
29539.8
29522.8
29506
29489.4
29472.9
29456.7
29440.6
29424.6
29408.9
29393.4
29378.1
29363
29348.1
29333.4
29318.9
29304.7
29290.7
29276.9
29263.4
29250.1
29237.1
29224.3
29211.8
29199.6
29187.6
29175.9
29164.4
29153.3
29142.4
29131.8
29121.5
29111.4
29101.7
29092.3
29083.1
29074.3
29065.7
29057.5
29049.6
29041.9
29034.6
29027.6
29020.9
29014.5
29008.4
29002.6
28997.2
28992
28987.2
28982.6
28978.4
28974.5
28970.9
28967.7
28964.7
28962
28959.7
28957.6
28955.9
28954.5
28953.3
28952.5
28951.9
28951.7
28951.7
28952
28952.7
28953.6
28954.7
28956.2
28957.9
28959.9
28962.1
28964.6
28967.4
28970.4
28973.6
28977.1
28980.9
28984.8
28989
28993.4
28998
29002.8
29007.9
29013.1
29018.5
29024.1
29029.8
29035.8
29041.9
29048.1
29054.5
29061.1
29067.7
29074.6
29081.5
29088.5
29095.7
29102.9
29110.2
29117.6
29125.1
29132.6
29140.2
29147.9
29155.6
29163.3
29171.1
29178.9
29186.7
29194.5
29202.3
29210.1
29217.9
29225.6
29233.3
29241
29248.6
29256.2
29263.7
29271.1
29278.4
29285.7
29292.8
29299.9
29306.9
29313.7
29320.4
29327
29333.5
29339.8
29346
29352
29357.9
29363.6
29369.1
29374.5
29379.6
29384.6
29389.4
29394
29398.4
29402.6
29406.6
29410.4
29413.9
29417.2
29420.4
29423.2
29425.9
29428.3
29430.5
29432.5
29434.2
29435.7
29436.9
29437.9
29438.6
29439.1
29439.4
30424.3
30424.4
30424.5
30424.7
30425
30425.4
30425.8
30426.3
30426.9
30427.5
30428.2
30429
30429.9
30430.8
30431.8
30432.9
30434
30435.2
30436.5
30437.8
30439.2
30440.6
30442.2
30443.8
30445.4
30447.1
30448.9
30450.7
30452.6
30454.5
30456.5
30458.5
30460.6
30462.7
30464.8
30467
30469.3
30471.5
30473.8
30476.1
30478.4
30480.7
30483.1
30485.4
30487.8
30490.1
30492.4
30494.8
30497.1
30499.3
30501.6
30503.8
30506
30508.1
30510.2
30512.2
30514.1
30516
30517.8
30519.6
30521.2
30522.7
30524.2
30525.5
30526.7
30527.8
30528.7
30529.6
30530.3
30530.8
30531.2
30531.4
30531.5
30531.4
30531.1
30530.7
30530
30529.2
30528.2
30526.9
30525.5
30523.8
30521.9
30519.8
30517.5
30514.9
30512.1
30509.1
30505.8
30502.2
30498.4
30494.4
30490.1
30485.5
30480.7
30475.6
30470.2
30464.6
30458.7
30452.5
30446
30439.3
30432.3
30425
30417.4
30409.5
30401.4
30393
30384.3
30375.3
30366
30356.5
30346.7
30336.6
30326.2
30315.6
30304.7
30293.5
30282.1
30270.3
30258.4
30246.1
30233.7
30220.9
30207.9
30194.7
30181.2
30167.5
30153.5
30139.3
30124.9
30110.3
30095.4
30080.4
30065.1
30049.6
30034
30018.1
30002
29985.8
29969.4
29952.8
29936
29919.1
29902.1
29884.8
29867.5
29850
29832.4
29814.7
29796.8
29778.9
29760.8
29742.6
29724.4
29706
29687.6
29669.1
29650.6
29632
29613.3
29594.6
29575.9
29557.1
29538.3
29519.5
29500.7
29481.9
29463.1
29444.3
29425.5
29406.8
29388.1
29369.4
29350.8
29332.2
29313.7
29295.2
29276.9
29258.6
29240.4
29222.3
29204.2
29186.3
29168.6
29150.9
29133.4
29116
29098.7
29081.6
29064.6
29047.8
29031.2
29014.7
28998.4
28982.3
28966.3
28950.6
28935
28919.7
28904.6
28889.7
28875
28860.5
28846.2
28832.2
28818.5
28804.9
28791.6
28778.6
28765.8
28753.3
28741
28729.1
28717.3
28705.9
28694.7
28683.8
28673.2
28662.9
28652.9
28643.1
28633.7
28624.5
28615.7
28607.1
28598.9
28590.9
28583.3
28576
28568.9
28562.2
28555.8
28549.7
28544
28538.5
28533.3
28528.5
28524
28519.8
28515.9
28512.3
28509
28506
28503.4
28501
28499
28497.3
28495.8
28494.7
28493.9
28493.3
28493.1
28493.1
28493.5
28494.1
28495
28496.2
28497.6
28499.3
28501.3
28503.6
28506.1
28508.9
28511.9
28515.2
28518.7
28522.4
28526.4
28530.6
28535
28539.6
28544.5
28549.5
28554.8
28560.2
28565.8
28571.6
28577.5
28583.7
28589.9
28596.4
28602.9
28609.6
28616.5
28623.4
28630.5
28637.6
28644.9
28652.2
28659.6
28667.1
28674.7
28682.3
28690
28697.7
28705.4
28713.2
28721
28728.9
28736.7
28744.5
28752.3
28760.1
28767.9
28775.6
28783.3
28791
28798.5
28806.1
28813.5
28820.9
28828.1
28835.3
28842.4
28849.4
28856.2
28863
28869.6
28876
28882.3
28888.6
28894.7
28900.5
28906.2
28911.8
28917.1
28922.3
28927.3
28932.1
28936.7
28941.1
28945.3
28949.3
28953.1
28956.7
28960
28963.1
28966
28968.7
28971.1
28973.3
28975.3
28977
28978.5
28979.7
28980.7
28981.4
28981.9
28982.2
29966.1
29966.2
29966.3
29966.5
29966.8
29967.2
29967.6
29968.1
29968.7
29969.3
29970
29970.8
29971.7
29972.6
29973.6
29974.7
29975.8
29977
29978.3
29979.6
29981
29982.5
29984
29985.6
29987.3
29989
29990.8
29992.6
29994.5
29996.4
29998.4
30000.5
30002.5
30004.7
30006.8
30009
30011.3
30013.5
30015.8
30018.1
30020.5
30022.8
30025.2
30027.6
30029.9
30032.3
30034.7
30037
30039.3
30041.6
30043.9
30046.2
30048.4
30050.5
30052.6
30054.7
30056.6
30058.6
30060.4
30062.1
30063.8
30065.4
30066.8
30068.2
30069.4
30070.6
30071.6
30072.4
30073.1
30073.7
30074.1
30074.4
30074.5
30074.4
30074.2
30073.8
30073.1
30072.3
30071.3
30070.1
30068.7
30067
30065.2
30063.1
30060.8
30058.2
30055.5
30052.4
30049.2
30045.6
30041.9
30037.8
30033.5
30029
30024.2
30019.1
30013.7
30008.1
30002.2
29996
29989.6
29982.9
29975.8
29968.6
29961
29953.1
29945
29936.6
29927.9
29918.9
29909.6
29900.1
29890.3
29880.2
29869.8
29859.2
29848.3
29837.1
29825.6
29813.9
29801.9
29789.7
29777.2
29764.4
29751.4
29738.1
29724.6
29710.9
29696.9
29682.7
29668.3
29653.6
29638.8
29623.7
29608.4
29592.9
29577.2
29561.3
29545.2
29529
29512.5
29495.9
29479.2
29462.2
29445.1
29427.9
29410.5
29393
29375.3
29357.5
29339.7
29321.6
29303.5
29285.3
29267.1
29248.7
29230.2
29211.7
29193.1
29174.5
29155.8
29137
29118.3
29099.5
29080.6
29061.8
29042.9
29024.1
29005.2
28986.4
28967.6
28948.8
28930
28911.3
28892.7
28874
28855.5
28837
28818.6
28800.3
28782
28763.9
28745.9
28727.9
28710.1
28692.4
28674.8
28657.4
28640.1
28622.9
28605.9
28589.1
28572.4
28555.9
28539.6
28523.4
28507.5
28491.7
28476.1
28460.8
28445.6
28430.7
28415.9
28401.4
28387.2
28373.1
28359.3
28345.8
28332.5
28319.4
28306.6
28294.1
28281.8
28269.8
28258
28246.6
28235.4
28224.5
28213.9
28203.5
28193.5
28183.7
28174.3
28165.1
28156.2
28147.7
28139.4
28131.5
28123.8
28116.5
28109.5
28102.7
28096.3
28090.2
28084.5
28079
28073.8
28069
28064.5
28060.3
28056.4
28052.8
28049.5
28046.6
28043.9
28041.6
28039.5
28037.8
28036.4
28035.3
28034.4
28033.9
28033.7
28033.8
28034.1
28034.7
28035.7
28036.9
28038.3
28040.1
28042.1
28044.4
28046.9
28049.7
28052.8
28056.1
28059.6
28063.4
28067.4
28071.6
28076
28080.7
28085.6
28090.7
28095.9
28101.4
28107
28112.8
28118.8
28125
28131.3
28137.8
28144.4
28151.1
28158
28165
28172.1
28179.3
28186.6
28193.9
28201.4
28208.9
28216.6
28224.2
28231.9
28239.7
28247.5
28255.3
28263.2
28271
28278.9
28286.8
28294.6
28302.5
28310.3
28318
28325.8
28333.5
28341.1
28348.6
28356.1
28363.5
28370.8
28378.1
28385.2
28392.2
28399.1
28405.8
28412.5
28419
28425.4
28431.6
28437.7
28443.6
28449.3
28454.9
28460.3
28465.5
28470.5
28475.3
28480
28484.4
28488.6
28492.6
28496.5
28500
28503.4
28506.5
28509.4
28512.1
28514.6
28516.8
28518.7
28520.5
28521.9
28523.2
28524.2
28524.9
28525.4
28525.7
29507.7
29507.8
29507.9
29508.2
29508.4
29508.8
29509.2
29509.7
29510.3
29510.9
29511.7
29512.4
29513.3
29514.2
29515.2
29516.3
29517.4
29518.7
29519.9
29521.3
29522.7
29524.2
29525.7
29527.3
29529
29530.7
29532.5
29534.3
29536.2
29538.2
29540.2
29542.2
29544.3
29546.5
29548.7
29550.9
29553.2
29555.5
29557.8
29560.1
29562.5
29564.9
29567.3
29569.7
29572.1
29574.5
29576.9
29579.3
29581.6
29584
29586.3
29588.6
29590.8
29593
29595.2
29597.3
29599.3
29601.2
29603.1
29604.9
29606.6
29608.3
29609.8
29611.2
29612.5
29613.7
29614.7
29615.6
29616.4
29617
29617.5
29617.8
29617.9
29617.9
29617.7
29617.3
29616.8
29616
29615
29613.9
29612.5
29610.9
29609.1
29607
29604.7
29602.2
29599.5
29596.5
29593.3
29589.8
29586
29582
29577.8
29573.2
29568.4
29563.4
29558
29552.4
29546.6
29540.4
29534
29527.2
29520.2
29513
29505.4
29497.5
29489.4
29481
29472.3
29463.3
29454
29444.5
29434.7
29424.6
29414.2
29403.5
29392.6
29381.4
29369.9
29358.2
29346.2
29333.9
29321.4
29308.6
29295.6
29282.3
29268.8
29255
29241
29226.7
29212.3
29197.6
29182.7
29167.6
29152.2
29136.7
29120.9
29105
29088.9
29072.6
29056.1
29039.4
29022.6
29005.6
28988.4
28971.1
28953.7
28936.1
28918.5
28900.6
28882.7
28864.6
28846.5
28828.2
28809.9
28791.5
28772.9
28754.4
28735.7
28717
28698.3
28679.5
28660.6
28641.8
28622.9
28604
28585.1
28566.2
28547.3
28528.4
28509.5
28490.7
28471.9
28453.1
28434.4
28415.7
28397.1
28378.6
28360.1
28341.7
28323.4
28305.3
28287.2
28269.2
28251.3
28233.5
28215.9
28198.4
28181.1
28163.9
28146.8
28129.9
28113.2
28096.7
28080.3
28064.1
28048.1
28032.3
28016.7
28001.3
27986.1
27971.1
27956.3
27941.8
27927.5
27913.4
27899.6
27886
27872.6
27859.5
27846.7
27834.1
27821.8
27809.8
27798
27786.5
27775.3
27764.4
27753.7
27743.4
27733.3
27723.5
27714
27704.9
27696
27687.4
27679.1
27671.2
27663.5
27656.2
27649.1
27642.4
27636
27629.9
27624.1
27618.6
27613.5
27608.7
27604.1
27599.9
27596
27592.5
27589.2
27586.2
27583.6
27581.3
27579.3
27577.5
27576.1
27575
27574.2
27573.7
27573.5
27573.6
27574
27574.6
27575.6
27576.8
27578.3
27580.1
27582.1
27584.5
27587
27589.9
27593
27596.3
27599.9
27603.7
27607.7
27612
27616.5
27621.2
27626.1
27631.2
27636.6
27642.1
27647.8
27653.6
27659.7
27665.9
27672.3
27678.8
27685.4
27692.2
27699.2
27706.2
27713.4
27720.6
27728
27735.4
27743
27750.6
27758.2
27766
27773.7
27781.6
27789.4
27797.3
27805.2
27813.2
27821.1
27829
27837
27844.9
27852.7
27860.6
27868.4
27876.1
27883.8
27891.4
27898.9
27906.4
27913.8
27921
27928.2
27935.3
27942.2
27949.1
27955.8
27962.3
27968.8
27975
27981.1
27987.1
27992.9
27998.5
28003.9
28009.2
28014.2
28019.1
28023.8
28028.2
28032.5
28036.5
28040.4
28044
28047.4
28050.5
28053.5
28056.2
28058.6
28060.8
28062.8
28064.6
28066.1
28067.3
28068.3
28069.1
28069.6
28069.8
29049.1
29049.2
29049.4
29049.6
29049.9
29050.2
29050.6
29051.1
29051.7
29052.4
29053.1
29053.9
29054.7
29055.7
29056.7
29057.7
29058.9
29060.1
29061.4
29062.7
29064.1
29065.6
29067.2
29068.8
29070.5
29072.2
29074
29075.9
29077.8
29079.8
29081.8
29083.9
29086
29088.2
29090.4
29092.7
29095
29097.3
29099.6
29102
29104.4
29106.9
29109.3
29111.7
29114.2
29116.6
29119.1
29121.5
29124
29126.4
29128.7
29131.1
29133.4
29135.6
29137.8
29140
29142.1
29144.1
29146.1
29147.9
29149.7
29151.4
29153
29154.4
29155.8
29157
29158.1
29159.1
29160
29160.7
29161.2
29161.6
29161.8
29161.8
29161.7
29161.4
29160.9
29160.1
29159.2
29158.1
29156.8
29155.3
29153.5
29151.5
29149.3
29146.8
29144.1
29141.2
29138
29134.5
29130.8
29126.8
29122.6
29118.1
29113.4
29108.3
29103
29097.4
29091.6
29085.4
29079
29072.3
29065.3
29058
29050.5
29042.6
29034.5
29026.1
29017.4
29008.4
28999.1
28989.6
28979.7
28969.6
28959.2
28948.6
28937.6
28926.4
28914.9
28903.1
28891.1
28878.8
28866.2
28853.4
28840.4
28827.1
28813.5
28799.7
28785.6
28771.4
28756.8
28742.1
28727.1
28712
28696.6
28681
28665.2
28649.2
28633
28616.7
28600.1
28583.4
28566.5
28549.5
28532.3
28514.9
28497.4
28479.8
28462
28444.1
28426.1
28408
28389.7
28371.4
28353
28334.5
28315.9
28297.3
28278.5
28259.8
28240.9
28222.1
28203.2
28184.2
28165.3
28146.3
28127.3
28108.3
28089.4
28070.4
28051.4
28032.5
28013.6
27994.8
27976
27957.3
27938.6
27920
27901.4
27883
27864.6
27846.3
27828.2
27810.1
27792.2
27774.3
27756.7
27739.1
27721.7
27704.4
27687.3
27670.4
27653.6
27636.9
27620.5
27604.3
27588.2
27572.3
27556.6
27541.2
27525.9
27510.9
27496.1
27481.5
27467.1
27453
27439.1
27425.5
27412.1
27399
27386.1
27373.5
27361.1
27349
27337.2
27325.7
27314.5
27303.5
27292.8
27282.4
27272.3
27262.5
27253
27243.8
27234.9
27226.3
27218
27210
27202.4
27195
27188
27181.2
27174.8
27168.7
27162.9
27157.4
27152.3
27147.5
27142.9
27138.7
27134.8
27131.3
27128
27125.1
27122.5
27120.1
27118.1
27116.4
27115.1
27114
27113.2
27112.7
27112.5
27112.7
27113.1
27113.8
27114.7
27116
27117.6
27119.4
27121.5
27123.8
27126.5
27129.3
27132.5
27135.9
27139.5
27143.4
27147.5
27151.8
27156.3
27161.1
27166.1
27171.3
27176.7
27182.2
27188
27194
27200.1
27206.4
27212.8
27219.4
27226.1
27233
27240
27247.1
27254.4
27261.7
27269.1
27276.7
27284.3
27292
27299.7
27307.6
27315.4
27323.3
27331.3
27339.3
27347.3
27355.3
27363.3
27371.3
27379.3
27387.3
27395.3
27403.2
27411.1
27418.9
27426.6
27434.3
27442
27449.5
27457
27464.3
27471.6
27478.7
27485.7
27492.6
27499.4
27506
27512.5
27518.9
27525
27531.1
27536.9
27542.6
27548.1
27553.4
27558.5
27563.4
27568.1
27572.6
27576.9
27581
27584.9
27588.5
27592
27595.2
27598.1
27600.8
27603.3
27605.6
27607.6
27609.3
27610.8
27612.1
27613.1
27613.9
27614.4
27614.6
28590.4
28590.4
28590.6
28590.8
28591.1
28591.4
28591.9
28592.4
28592.9
28593.6
28594.3
28595.1
28596
28596.9
28597.9
28599
28600.1
28601.4
28602.6
28604
28605.4
28606.9
28608.5
28610.1
28611.8
28613.6
28615.4
28617.3
28619.2
28621.2
28623.3
28625.4
28627.6
28629.8
28632
28634.3
28636.6
28639
28641.4
28643.8
28646.3
28648.8
28651.3
28653.8
28656.3
28658.8
28661.3
28663.8
28666.3
28668.8
28671.2
28673.6
28676
28678.3
28680.6
28682.9
28685
28687.1
28689.2
28691.1
28693
28694.7
28696.4
28698
28699.4
28700.7
28701.9
28703
28703.9
28704.7
28705.3
28705.7
28706
28706.2
28706.1
28705.9
28705.4
28704.8
28703.9
28702.9
28701.6
28700.2
28698.5
28696.5
28694.4
28692
28689.3
28686.4
28683.3
28679.9
28676.2
28672.3
28668.1
28663.7
28659
28654
28648.7
28643.1
28637.3
28631.2
28624.8
28618.1
28611.1
28603.9
28596.3
28588.5
28580.4
28571.9
28563.2
28554.3
28545
28535.4
28525.6
28515.4
28505
28494.3
28483.4
28472.1
28460.6
28448.8
28436.7
28424.4
28411.8
28398.9
28385.8
28372.5
28358.9
28345
28330.9
28316.6
28302
28287.2
28272.2
28257
28241.5
28225.8
28210
28193.9
28177.7
28161.2
28144.6
28127.8
28110.8
28093.7
28076.4
28059
28041.4
28023.7
28005.8
27987.9
27969.8
27951.5
27933.2
27914.8
27896.3
27877.7
27859
27840.3
27821.5
27802.6
27783.7
27764.7
27745.7
27726.7
27707.6
27688.6
27669.5
27650.4
27631.3
27612.3
27593.2
27574.2
27555.3
27536.3
27517.4
27498.6
27479.8
27461.1
27442.5
27423.9
27405.5
27387.1
27368.9
27350.7
27332.7
27314.8
27297
27279.4
27261.9
27244.5
27227.3
27210.3
27193.4
27176.7
27160.2
27143.9
27127.7
27111.8
27096.1
27080.5
27065.2
27050.1
27035.2
27020.6
27006.1
26992
26978
26964.3
26950.9
26937.7
26924.7
26912.1
26899.7
26887.6
26875.7
26864.1
26852.8
26841.8
26831.1
26820.7
26810.5
26800.7
26791.2
26781.9
26773
26764.4
26756.1
26748.1
26740.4
26733
26725.9
26719.2
26712.8
26706.7
26700.9
26695.4
26690.2
26685.4
26680.9
26676.7
26672.8
26669.2
26666
26663.1
26660.5
26658.2
26656.2
26654.5
26653.1
26652.1
26651.3
26650.9
26650.8
26650.9
26651.4
26652.1
26653.1
26654.4
26656
26657.9
26660.1
26662.5
26665.2
26668.1
26671.3
26674.8
26678.4
26682.4
26686.6
26691
26695.6
26700.4
26705.5
26710.8
26716.2
26721.9
26727.8
26733.8
26740
26746.4
26752.9
26759.6
26766.4
26773.4
26780.5
26787.7
26795.1
26802.5
26810.1
26817.7
26825.4
26833.2
26841.1
26849
26857
26865
26873.1
26881.1
26889.3
26897.4
26905.5
26913.6
26921.7
26929.8
26937.9
26945.9
26953.9
26961.8
26969.7
26977.5
26985.2
26992.8
27000.4
27007.8
27015.2
27022.4
27029.5
27036.5
27043.4
27050.1
27056.7
27063.1
27069.4
27075.5
27081.4
27087.1
27092.7
27098.1
27103.2
27108.2
27113
27117.6
27121.9
27126.1
27130
27133.7
27137.2
27140.4
27143.4
27146.1
27148.7
27150.9
27153
27154.7
27156.3
27157.5
27158.6
27159.3
27159.8
27160.1
28131.4
28131.5
28131.6
28131.8
28132.1
28132.5
28132.9
28133.4
28134
28134.6
28135.3
28136.1
28137
28137.9
28138.9
28140
28141.2
28142.4
28143.7
28145.1
28146.5
28148
28149.6
28151.3
28153
28154.8
28156.6
28158.5
28160.5
28162.5
28164.6
28166.7
28168.9
28171.2
28173.5
28175.8
28178.2
28180.6
28183.1
28185.6
28188.1
28190.6
28193.2
28195.8
28198.3
28200.9
28203.5
28206.1
28208.7
28211.2
28213.7
28216.2
28218.7
28221.1
28223.5
28225.8
28228.1
28230.3
28232.4
28234.5
28236.4
28238.3
28240.1
28241.7
28243.3
28244.7
28246
28247.2
28248.2
28249
28249.8
28250.3
28250.7
28250.9
28251
28250.8
28250.5
28249.9
28249.2
28248.2
28247
28245.6
28244
28242.2
28240.1
28237.8
28235.2
28232.4
28229.3
28225.9
28222.3
28218.5
28214.3
28209.9
28205.3
28200.3
28195.1
28189.6
28183.8
28177.7
28171.3
28164.6
28157.7
28150.4
28142.9
28135.1
28126.9
28118.5
28109.8
28100.8
28091.6
28082
28072.1
28062
28051.5
28040.8
28029.8
28018.5
28007
27995.2
27983
27970.7
27958
27945.1
27932
27918.6
27904.9
27891
27876.8
27862.4
27847.8
27832.9
27817.8
27802.5
27787
27771.2
27755.3
27739.1
27722.8
27706.3
27689.6
27672.7
27655.6
27638.4
27621
27603.5
27585.8
27568
27550
27531.9
27513.7
27495.4
27477
27458.5
27439.9
27421.1
27402.4
27383.5
27364.6
27345.6
27326.6
27307.5
27288.4
27269.2
27250.1
27230.9
27211.7
27192.5
27173.3
27154.1
27135
27115.9
27096.8
27077.7
27058.7
27039.8
27020.9
27002.1
26983.3
26964.7
26946.1
26927.6
26909.3
26891
26872.9
26854.9
26837
26819.3
26801.7
26784.2
26766.9
26749.8
26732.8
26716
26699.4
26683
26666.8
26650.7
26634.9
26619.3
26603.9
26588.7
26573.7
26559
26544.5
26530.2
26516.2
26502.5
26488.9
26475.7
26462.7
26450
26437.5
26425.3
26413.4
26401.8
26390.4
26379.4
26368.6
26358.1
26348
26338.1
26328.5
26319.2
26310.3
26301.6
26293.3
26285.3
26277.5
26270.1
26263.1
26256.3
26249.9
26243.7
26237.9
26232.5
26227.3
26222.5
26217.9
26213.8
26209.9
26206.3
26203.1
26200.2
26197.6
26195.3
26193.4
26191.7
26190.4
26189.4
26188.7
26188.3
26188.2
26188.4
26188.9
26189.7
26190.7
26192.1
26193.8
26195.7
26197.9
26200.4
26203.2
26206.2
26209.4
26213
26216.8
26220.8
26225
26229.5
26234.3
26239.2
26244.4
26249.7
26255.3
26261.1
26267
26273.2
26279.5
26286
26292.6
26299.4
26306.4
26313.4
26320.7
26328
26335.5
26343
26350.7
26358.5
26366.3
26374.2
26382.2
26390.3
26398.4
26406.5
26414.7
26423
26431.2
26439.4
26447.7
26455.9
26464.2
26472.4
26480.6
26488.7
26496.8
26504.9
26512.9
26520.8
26528.6
26536.4
26544.1
26551.6
26559.1
26566.5
26573.7
26580.8
26587.8
26594.6
26601.2
26607.8
26614.1
26620.3
26626.3
26632.2
26637.8
26643.3
26648.5
26653.6
26658.4
26663.1
26667.5
26671.7
26675.7
26679.4
26683
26686.3
26689.3
26692.1
26694.6
26697
26699
26700.8
26702.4
26703.7
26704.7
26705.5
26706
26706.3
27672.2
27672.3
27672.4
27672.6
27672.9
27673.3
27673.7
27674.2
27674.8
27675.4
27676.2
27677
27677.8
27678.8
27679.8
27680.9
27682
27683.3
27684.6
27686
27687.4
27688.9
27690.5
27692.2
27693.9
27695.7
27697.6
27699.6
27701.6
27703.6
27705.7
27707.9
27710.2
27712.5
27714.8
27717.2
27719.6
27722.1
27724.7
27727.2
27729.8
27732.4
27735
27737.7
27740.4
27743
27745.7
27748.4
27751
27753.7
27756.3
27758.9
27761.5
27764
27766.5
27769
27771.3
27773.6
27775.9
27778
27780.1
27782.1
27784
27785.8
27787.4
27789
27790.4
27791.7
27792.8
27793.8
27794.6
27795.3
27795.8
27796.1
27796.3
27796.2
27796
27795.6
27794.9
27794.1
27793
27791.7
27790.2
27788.4
27786.4
27784.1
27781.7
27778.9
27775.9
27772.6
27769.1
27765.3
27761.2
27756.9
27752.3
27747.4
27742.2
27736.7
27730.9
27724.9
27718.5
27711.9
27705
27697.7
27690.2
27682.4
27674.3
27665.9
27657.2
27648.2
27638.9
27629.3
27619.4
27609.3
27598.8
27588
27577
27565.7
27554.1
27542.2
27530.1
27517.7
27505
27492
27478.8
27465.3
27451.6
27437.6
27423.3
27408.9
27394.1
27379.2
27364
27348.6
27333
27317.2
27301.1
27284.9
27268.4
27251.8
27235
27218
27200.8
27183.5
27166
27148.4
27130.6
27112.6
27094.5
27076.3
27058
27039.6
27021
27002.4
26983.6
26964.8
26945.9
26926.9
26907.8
26888.7
26869.6
26850.3
26831.1
26811.8
26792.5
26773.2
26753.9
26734.6
26715.2
26695.9
26676.6
26657.4
26638.2
26619
26599.8
26580.8
26561.7
26542.8
26523.9
26505.2
26486.5
26467.9
26449.4
26431
26412.7
26394.6
26376.6
26358.7
26341
26323.5
26306.1
26288.8
26271.7
26254.8
26238.1
26221.6
26205.3
26189.1
26173.2
26157.5
26142
26126.7
26111.6
26096.8
26082.2
26067.9
26053.8
26039.9
26026.3
26013
25999.9
25987.1
25974.6
25962.3
25950.4
25938.7
25927.3
25916.1
25905.3
25894.8
25884.6
25874.6
25865
25855.7
25846.7
25838
25829.7
25821.6
25813.8
25806.4
25799.3
25792.5
25786.1
25779.9
25774.1
25768.6
25763.5
25758.7
25754.1
25750
25746.1
25742.6
25739.4
25736.5
25733.9
25731.6
25729.7
25728.1
25726.8
25725.8
25725.2
25724.8
25724.8
25725
25725.6
25726.4
25727.6
25729
25730.7
25732.7
25735
25737.6
25740.4
25743.5
25746.9
25750.5
25754.4
25758.5
25762.9
25767.5
25772.3
25777.4
25782.6
25788.1
25793.8
25799.7
25805.8
25812
25818.5
25825.1
25831.9
25838.8
25845.9
25853.1
25860.5
25868
25875.6
25883.3
25891.1
25899
25907
25915.1
25923.2
25931.4
25939.7
25948
25956.3
25964.7
25973.1
25981.5
25989.9
25998.3
26006.7
26015
26023.4
26031.7
26039.9
26048.1
26056.3
26064.3
26072.3
26080.2
26088
26095.7
26103.3
26110.8
26118.2
26125.4
26132.5
26139.4
26146.2
26152.9
26159.3
26165.6
26171.8
26177.7
26183.4
26189
26194.4
26199.5
26204.4
26209.2
26213.7
26218
26222
26225.8
26229.4
26232.7
26235.8
26238.7
26241.3
26243.6
26245.7
26247.6
26249.2
26250.5
26251.5
26252.3
26252.8
26253.1
27212.8
27212.9
27213
27213.3
27213.5
27213.9
27214.3
27214.8
27215.4
27216.1
27216.8
27217.6
27218.5
27219.4
27220.4
27221.5
27222.7
27223.9
27225.2
27226.6
27228.1
27229.6
27231.3
27233
27234.7
27236.5
27238.4
27240.4
27242.4
27244.6
27246.7
27249
27251.2
27253.6
27256
27258.4
27261
27263.5
27266.1
27268.7
27271.4
27274.1
27276.8
27279.6
27282.3
27285.1
27287.9
27290.7
27293.4
27296.2
27298.9
27301.7
27304.3
27307
27309.6
27312.2
27314.7
27317.1
27319.5
27321.8
27324
27326.1
27328.1
27330.1
27331.9
27333.5
27335.1
27336.5
27337.8
27338.9
27339.9
27340.7
27341.3
27341.8
27342
27342.1
27342
27341.7
27341.2
27340.4
27339.5
27338.3
27336.9
27335.2
27333.3
27331.2
27328.8
27326.1
27323.2
27320
27316.6
27312.8
27308.8
27304.5
27300
27295.1
27290
27284.6
27278.9
27272.8
27266.5
27259.9
27253
27245.8
27238.3
27230.5
27222.4
27214
27205.3
27196.3
27187
27177.4
27167.5
27157.3
27146.8
27136
27125
27113.6
27101.9
27090
27077.8
27065.3
27052.6
27039.6
27026.3
27012.7
26998.9
26984.8
26970.5
26955.9
26941.1
26926.1
26910.8
26895.3
26879.6
26863.6
26847.5
26831.1
26814.6
26797.8
26780.9
26763.8
26746.5
26729
26711.4
26693.6
26675.7
26657.6
26639.4
26621.1
26602.6
26584
26565.3
26546.5
26527.6
26508.6
26489.6
26470.4
26451.2
26432
26412.7
26393.3
26373.9
26354.5
26335
26315.6
26296.1
26276.6
26257.1
26237.7
26218.2
26198.8
26179.4
26160.1
26140.8
26121.6
26102.4
26083.3
26064.3
26045.4
26026.5
26007.8
25989.2
25970.6
25952.2
25934
25915.8
25897.8
25880
25862.3
25844.7
25827.4
25810.2
25793.1
25776.3
25759.6
25743.2
25726.9
25710.9
25695.1
25679.4
25664
25648.9
25634
25619.3
25604.8
25590.6
25576.7
25563
25549.6
25536.4
25523.5
25510.9
25498.6
25486.5
25474.8
25463.3
25452.1
25441.2
25430.6
25420.4
25410.4
25400.7
25391.3
25382.3
25373.6
25365.2
25357.1
25349.3
25341.8
25334.7
25327.9
25321.4
25315.3
25309.5
25304
25298.8
25294
25289.5
25285.3
25281.4
25277.9
25274.7
25271.9
25269.3
25267.1
25265.2
25263.6
25262.4
25261.4
25260.8
25260.5
25260.5
25260.8
25261.5
25262.4
25263.6
25265.1
25266.9
25269
25271.4
25274
25277
25280.2
25283.6
25287.4
25291.4
25295.6
25300.1
25304.8
25309.7
25314.9
25320.3
25325.9
25331.8
25337.8
25344
25350.4
25357
25363.8
25370.7
25377.8
25385
25392.4
25399.9
25407.6
25415.4
25423.2
25431.2
25439.3
25447.5
25455.7
25464
25472.4
25480.8
25489.3
25497.8
25506.4
25514.9
25523.5
25532.1
25540.6
25549.2
25557.7
25566.3
25574.7
25583.1
25591.5
25599.8
25608
25616.2
25624.3
25632.2
25640.1
25647.8
25655.5
25663
25670.4
25677.6
25684.7
25691.6
25698.4
25705
25711.4
25717.7
25723.7
25729.6
25735.3
25740.7
25746
25751
25755.8
25760.4
25764.8
25768.9
25772.8
25776.5
25779.9
25783
25786
25788.6
25791
25793.1
25795
25796.6
25798
25799
25799.9
25800.4
25800.7
26753.3
26753.3
26753.5
26753.7
26754
26754.3
26754.8
26755.3
26755.8
26756.5
26757.2
26758
26758.9
26759.8
26760.9
26762
26763.1
26764.4
26765.7
26767.1
26768.6
26770.2
26771.8
26773.5
26775.3
26777.1
26779.1
26781.1
26783.2
26785.3
26787.5
26789.8
26792.1
26794.5
26797
26799.5
26802.1
26804.7
26807.4
26810.1
26812.9
26815.7
26818.5
26821.4
26824.2
26827.1
26830
26832.9
26835.8
26838.7
26841.6
26844.4
26847.2
26850
26852.8
26855.5
26858.2
26860.8
26863.3
26865.7
26868.1
26870.4
26872.5
26874.6
26876.6
26878.4
26880.1
26881.7
26883.1
26884.4
26885.5
26886.5
26887.2
26887.9
26888.3
26888.5
26888.5
26888.3
26888
26887.4
26886.5
26885.5
26884.2
26882.6
26880.8
26878.8
26876.5
26874
26871.1
26868
26864.7
26861
26857.1
26852.9
26848.4
26843.6
26838.6
26833.2
26827.5
26821.6
26815.3
26808.7
26801.8
26794.7
26787.2
26779.4
26771.3
26762.9
26754.2
26745.2
26735.8
26726.2
26716.3
26706.1
26695.6
26684.7
26673.6
26662.2
26650.5
26638.6
26626.3
26613.7
26600.9
26587.8
26574.4
26560.8
26546.9
26532.7
26518.3
26503.7
26488.7
26473.6
26458.2
26442.6
26426.7
26410.7
26394.4
26377.9
26361.2
26344.4
26327.3
26310
26292.6
26275
26257.2
26239.3
26221.2
26203
26184.6
26166.1
26147.5
26128.7
26109.9
26090.9
26071.9
26052.7
26033.5
26014.2
25994.8
25975.4
25955.9
25936.4
25916.8
25897.2
25877.6
25857.9
25838.3
25818.6
25799
25779.3
25759.7
25740.1
25720.6
25701.1
25681.6
25662.2
25642.9
25623.6
25604.4
25585.3
25566.3
25547.4
25528.6
25510
25491.4
25473
25454.7
25436.5
25418.5
25400.7
25383
25365.5
25348.1
25330.9
25314
25297.2
25280.6
25264.2
25248
25232
25216.3
25200.8
25185.5
25170.5
25155.7
25141.1
25126.8
25112.7
25098.9
25085.4
25072.2
25059.2
25046.5
25034.1
25021.9
25010.1
24998.5
24987.3
24976.3
24965.7
24955.3
24945.3
24935.5
24926.1
24917
24908.3
24899.8
24891.7
24883.9
24876.4
24869.2
24862.4
24855.9
24849.7
24843.9
24838.4
24833.2
24828.4
24823.9
24819.7
24815.9
24812.4
24809.2
24806.4
24803.8
24801.7
24799.8
24798.3
24797.1
24796.2
24795.6
24795.4
24795.5
24795.8
24796.5
24797.5
24798.8
24800.4
24802.3
24804.5
24807
24809.8
24812.8
24816.1
24819.7
24823.5
24827.6
24832
24836.6
24841.5
24846.6
24851.9
24857.4
24863.2
24869.2
24875.4
24881.7
24888.3
24895.1
24902
24909.1
24916.4
24923.8
24931.3
24939
24946.9
24954.8
24962.9
24971.1
24979.3
24987.7
24996.1
25004.6
25013.2
25021.8
25030.5
25039.2
25048
25056.7
25065.5
25074.3
25083
25091.8
25100.5
25109.2
25117.9
25126.5
25135.1
25143.5
25152
25160.3
25168.5
25176.7
25184.7
25192.7
25200.5
25208.2
25215.7
25223.1
25230.3
25237.4
25244.3
25251.1
25257.7
25264.1
25270.3
25276.3
25282.1
25287.6
25293
25298.2
25303.1
25307.8
25312.3
25316.5
25320.5
25324.2
25327.7
25330.9
25333.9
25336.6
25339.1
25341.2
25343.2
25344.8
25346.2
25347.3
25348.1
25348.7
25348.9
26293.5
26293.6
26293.7
26293.9
26294.2
26294.6
26295
26295.5
26296.1
26296.7
26297.4
26298.2
26299.1
26300.1
26301.1
26302.2
26303.4
26304.6
26306
26307.4
26308.9
26310.4
26312.1
26313.8
26315.6
26317.5
26319.5
26321.5
26323.6
26325.8
26328.1
26330.4
26332.8
26335.3
26337.9
26340.5
26343.1
26345.8
26348.6
26351.4
26354.3
26357.2
26360.1
26363.1
26366.1
26369.1
26372.1
26375.1
26378.2
26381.2
26384.2
26387.2
26390.2
26393.2
26396.1
26398.9
26401.8
26404.5
26407.2
26409.8
26412.4
26414.8
26417.2
26419.4
26421.5
26423.6
26425.4
26427.2
26428.8
26430.2
26431.5
26432.7
26433.6
26434.4
26435
26435.4
26435.5
26435.5
26435.3
26434.8
26434.1
26433.2
26432.1
26430.6
26429
26427.1
26424.9
26422.5
26419.8
26416.8
26413.5
26410
26406.1
26402
26397.6
26392.9
26387.9
26382.6
26377
26371
26364.8
26358.3
26351.4
26344.3
26336.8
26329
26321
26312.6
26303.9
26294.8
26285.5
26275.9
26265.9
26255.7
26245.1
26234.2
26223.1
26211.6
26199.9
26187.8
26175.5
26162.9
26150
26136.8
26123.3
26109.6
26095.6
26081.3
26066.8
26052
26037
26021.7
26006.2
25990.5
25974.5
25958.3
25941.9
25925.2
25908.4
25891.4
25874.2
25856.7
25839.2
25821.4
25803.4
25785.3
25767.1
25748.7
25730.1
25711.5
25692.7
25673.7
25654.7
25635.6
25616.3
25597
25577.6
25558.1
25538.5
25518.9
25499.2
25479.5
25459.7
25439.9
25420.1
25400.3
25380.4
25360.6
25340.8
25320.9
25301.1
25281.4
25261.6
25241.9
25222.3
25202.7
25183.2
25163.7
25144.3
25125.1
25105.9
25086.8
25067.8
25048.9
25030.2
25011.6
24993.1
24974.8
24956.6
24938.6
24920.8
24903.1
24885.6
24868.2
24851.1
24834.1
24817.4
24800.9
24784.5
24768.4
24752.6
24736.9
24721.5
24706.3
24691.4
24676.7
24662.3
24648.1
24634.2
24620.5
24607.2
24594.1
24581.3
24568.8
24556.5
24544.6
24533
24521.6
24510.6
24499.8
24489.4
24479.3
24469.5
24460
24450.9
24442.1
24433.6
24425.4
24417.5
24410
24402.8
24396
24389.5
24383.3
24377.4
24371.9
24366.7
24361.9
24357.4
24353.2
24349.4
24345.9