/*--------------------------------*- C++ -*----------------------------------*\
| =========                 |                                                 |
| \\      /  F ield         | OpenFOAM: The Open Source CFD Toolbox           |
|  \\    /   O peration     | Version:  v2006                                 |
|   \\  /    A nd           | Website:  www.openfoam.com                      |
|    \\/     M anipulation  |                                                 |
\*---------------------------------------------------------------------------*/
FoamFile
{
    version     2.0;
    format      ascii;
    class       volScalarField;
    location    "0";
    object      p;
}
// * * * * * * * * * * * * * * * * * * * * * * * * * * * * * * * * * * * * * //

dimensions      [1 -1 -2 0 0 0 0];


internalField   nonuniform List<scalar> 
67500
(
9.17544
9.93444
11.8011
17.0847
24.6222
37.5967
13.4077
-7.0343
-9.64284
-9.47277
-9.32509
-9.64924
-9.40882
-7.71535
-6.59563
-5.89556
-4.34615
-2.46457
-1.26733
-0.486075
0.227233
0.838978
1.28577
1.60869
1.85272
2.01933
2.11477
2.1954
2.32633
2.52583
2.74828
2.93043
3.02942
3.03395
2.95675
2.82613
2.67487
2.529
2.40327
2.30359
2.23275
2.19531
2.19999
2.25959
2.38771
2.59324
2.8723
3.1967
3.49315
3.63934
3.58924
3.45057
3.31507
3.22384
3.19406
3.22057
3.28103
3.33714
3.34769
3.33006
3.35467
3.45037
3.60748
3.81038
4.03359
4.24302
4.41331
4.55152
4.68593
4.83128
4.98424
5.13387
5.26946
5.39143
5.51042
5.63128
5.74955
5.86124
5.96731
6.06934
6.16547
6.25276
6.32961
6.39423
6.444
6.47708
6.49293
6.49161
6.47368
6.44033
6.39302
6.3332
6.26224
6.18139
6.09169
5.99404
5.88922
5.77794
5.66086
5.53864
5.41191
5.28129
5.14745
5.01103
4.87272
4.7332
4.59314
4.45319
4.31394
4.17591
4.03959
3.90534
3.77347
3.64424
3.51781
3.3943
3.27378
3.1563
3.04186
2.93044
2.82202
2.71654
2.61396
2.51424
2.41732
2.32316
2.23172
2.14296
2.05684
1.97332
1.89238
1.81398
1.73809
1.66467
1.5937
1.52512
1.45889
1.39498
1.33332
1.27387
1.21657
1.16135
1.10815
1.05691
1.00757
0.960044
0.914281
0.87021
0.827766
0.786888
0.747515
0.709588
0.673054
0.637859
0.603954
0.571293
0.53983
0.509524
0.480335
0.452225
0.425158
0.399098
0.374014
0.349872
0.326644
0.304301
0.282813
0.262156
0.242303
0.223231
0.204916
0.187337
0.170471
0.1543
0.138804
0.123963
0.109761
0.0961792
0.0832011
0.0708101
0.0589899
0.0477245
0.0369982
0.0267955
0.0171013
0.00790057
-0.00082142
-0.00907897
-0.0168861
-0.0242562
-0.0312026
-0.0377377
-0.0438738
-0.0496223
-0.0549944
-0.0600006
-0.0646511
-0.0689556
-0.0729235
-0.0765638
-0.0798855
-0.0828974
-0.0856081
-0.0880264
-0.0901611
-0.0920212
-0.0936161
-0.094955
-0.0960479
-0.0969046
-0.0975357
-0.0979517
-0.0981635
-0.0981823
-0.0980194
-0.0976862
-0.0971944
-0.0965555
-0.0957811
-0.0948826
-0.0938712
-0.0927581
-0.091554
-0.0902695
-0.0889146
-0.0874991
-0.0860322
-0.0845228
-0.0829791
-0.0814091
-0.0798201
-0.0782188
-0.0766117
-0.0750045
-0.0734026
-0.0718108
-0.0702336
-0.0686749
-0.0671381
-0.0656266
-0.0641429
-0.0626895
-0.0612685
-0.0598816
-0.0585303
-0.0572158
-0.0559391
-0.0547009
-0.0535018
-0.0523421
-0.0512222
-0.0501419
-0.0491014
-0.0481004
-0.0471387
-0.0462159
-0.0453316
-0.0444853
-0.0436766
-0.0429047
-0.0421692
-0.0414694
-0.0408045
-0.0401739
-0.0395768
-0.0390126
-0.0384804
-0.0379795
-0.0375091
-0.0370684
-0.0366567
-0.0362729
-0.0359164
-0.0355862
-0.0352815
-0.0350012
-0.0347444
-0.0345102
-0.0342975
-0.0341052
-0.0339321
-0.0337771
-0.033639
-0.0335164
-0.0334081
-0.0333125
-0.0332282
-0.0331538
-0.0330876
-0.0330281
-0.0329736
-0.0329226
-0.0328733
-0.0328241
-0.0327734
-0.0327196
-0.0326611
-0.0325964
-0.0325242
-0.0324431
-0.0323519
-0.0322496
-0.0321351
-0.0320076
-0.0318666
-0.0317115
-0.0315421
-0.0313583
-0.03116
-0.0309475
-0.0307211
-0.0304814
-0.0302289
-0.0299642
-0.0296883
-0.0294016
-0.0291051
-0.0287993
-0.0284849
-0.0281625
-0.0278325
-0.0274955
-0.0271519
-0.026802
-0.0264462
-0.026085
-0.0257187
-0.025348
-0.0249733
-0.0245953
-0.0242147
-0.0238321
-0.0234484
-0.0230644
-0.0226808
-0.0222983
-0.0219178
-0.0215399
-0.0211653
-0.0207946
-0.0204284
-0.020067
-0.0197109
-0.0193604
-0.0190158
-0.0186773
-0.018345
-0.0180191
-0.0176996
-0.0173865
-0.0170798
-0.0167794
-0.0164852
-0.0161972
-0.0159152
-0.0156391
-0.0153687
-0.0151039
-0.0148444
-0.0145901
-0.0143409
-0.0140965
-0.0138568
-0.0136216
-0.0133908
-0.0131641
-0.0129414
-0.0127225
-0.0125073
-0.0122956
-0.0120873
-0.0118823
-0.0116803
-0.0114813
-0.0112852
-0.0110918
-0.010901
-0.0107127
-0.0105267
-0.0103431
-0.0101617
-0.00998235
-0.00980503
-0.00962964
-0.00945611
-0.00928434
-0.00911428
-0.00894585
-0.00877899
-0.00861363
-0.00844971
-0.00828717
-0.00812596
-0.00796603
-0.00780732
-0.0076498
-0.00749341
-0.00733811
-0.00718385
-0.00703061
-0.00687834
-0.006727
-0.00657655
-0.00642697
-0.00627822
-0.00613028
-0.0059831
-0.00583666
-0.00569094
-0.00554591
-0.00540154
-0.00525781
-0.00511469
-0.00497216
-0.0048302
-0.00468878
-0.00454789
-0.00440751
-0.00426761
-0.00412818
-0.00398919
-0.00385064
-0.00371249
-0.00357474
-0.00343737
-0.00330036
-0.00316369
-0.00302735
-0.00289132
-0.00275559
-0.00262014
-0.00248496
-0.00235002
-0.00221533
-0.00208086
-0.0019466
-0.00181254
-0.00167865
-0.00154494
-0.00141138
-0.00127796
-0.00114467
-0.00101149
-0.000878401
-0.000745441
-0.000612418
-0.000479884
-0.000345677
-0.000215874
-6.2222e-05
6.73847
8.1728
7.38698
10.0814
11.2065
9.83137
-5.73741
-17.6132
-9.72303
-9.40964
-9.37655
-9.36303
-9.16502
-9.20553
-7.12941
-4.89388
-3.65508
-2.33794
-1.46692
-0.855828
-0.178154
0.564346
1.17277
1.56809
1.8488
2.05788
2.18611
2.23502
2.28763
2.42553
2.61952
2.79209
2.87919
2.85978
2.74875
2.58383
2.40619
2.24497
2.11309
2.01131
1.93645
1.88971
1.88085
1.92685
2.046
2.25293
2.55228
2.93266
3.32783
3.51524
3.38272
3.1705
2.99964
2.89948
2.88245
2.93732
3.04052
3.14438
3.16225
3.11116
3.12038
3.22063
3.3919
3.61899
3.87176
4.10231
4.26657
4.3817
4.50214
4.64712
4.80776
4.96667
5.10461
5.22285
5.34246
5.47019
5.59589
5.7125
5.82327
5.93219
6.03615
6.13088
6.2154
6.28794
6.34483
6.38393
6.40506
6.40835
6.3944
6.36471
6.32091
6.26454
6.19707
6.11975
6.03359
5.93942
5.83799
5.72997
5.616
5.49671
5.37272
5.24466
5.11317
4.97891
4.84259
4.7049
4.56653
4.42816
4.29041
4.15381
4.01884
3.8859
3.75529
3.62725
3.50196
3.37954
3.26006
3.14355
3.03002
2.91945
2.81181
2.70706
2.60515
2.50604
2.40968
2.31603
2.22505
2.13671
2.05097
1.9678
1.88717
1.80907
1.73344
1.66027
1.58953
1.52116
1.45514
1.39141
1.32994
1.27066
1.21352
1.15845
1.1054
1.05431
1.0051
0.957705
0.912064
0.868109
0.825774
0.784999
0.745721
0.707884
0.671433
0.636316
0.602484
0.569889
0.538489
0.508242
0.479108
0.451049
0.424029
0.398015
0.372973
0.348871
0.325681
0.303373
0.281919
0.261293
0.24147
0.222426
0.204138
0.186583
0.169742
0.153593
0.138119
0.123299
0.109116
0.0955537
0.0825942
0.0702212
0.0584186
0.0471703
0.0364608
0.0262747
0.0165965
0.00741143
-0.0012953
-0.00953804
-0.0173308
-0.0246872
-0.0316203
-0.0381428
-0.0442667
-0.0500036
-0.0553647
-0.0603604
-0.0650008
-0.0692955
-0.073254
-0.0768852
-0.0801978
-0.0832007
-0.0859024
-0.0883117
-0.0904372
-0.092288
-0.0938732
-0.0952023
-0.0962849
-0.0971312
-0.0977516
-0.0981566
-0.0983572
-0.0983646
-0.0981901
-0.0978454
-0.097342
-0.0966915
-0.0959056
-0.0949957
-0.0939733
-0.0928493
-0.0916348
-0.0903401
-0.0889755
-0.0875507
-0.086075
-0.0845572
-0.0830057
-0.0814283
-0.0798325
-0.0782249
-0.0766119
-0.0749994
-0.0733926
-0.0717965
-0.0702153
-0.068653
-0.0671131
-0.0655988
-0.0641127
-0.0626573
-0.0612345
-0.0598462
-0.0584936
-0.0571782
-0.0559007
-0.054662
-0.0534625
-0.0523026
-0.0511825
-0.0501023
-0.049062
-0.0480612
-0.0470998
-0.0461774
-0.0452936
-0.0444479
-0.0436397
-0.0428685
-0.0421336
-0.0414345
-0.0407703
-0.0401404
-0.0395441
-0.0389806
-0.0384492
-0.0379491
-0.0374795
-0.0370396
-0.0366287
-0.0362458
-0.0358902
-0.0355609
-0.035257
-0.0349777
-0.034722
-0.0344888
-0.0342771
-0.0340859
-0.0339141
-0.0337603
-0.0336235
-0.0335023
-0.0333953
-0.0333012
-0.0332184
-0.0331455
-0.0330809
-0.033023
-0.0329702
-0.0329208
-0.0328732
-0.0328256
-0.0327765
-0.0327242
-0.0326672
-0.032604
-0.0325331
-0.0324532
-0.0323631
-0.0322617
-0.032148
-0.0320212
-0.0318806
-0.0317258
-0.0315565
-0.0313726
-0.0311741
-0.0309612
-0.0307343
-0.030494
-0.0302408
-0.0299755
-0.0296987
-0.0294114
-0.0291142
-0.0288078
-0.0284929
-0.0281701
-0.0278398
-0.0275025
-0.0271585
-0.0268083
-0.0264522
-0.0260906
-0.0257238
-0.0253525
-0.0249772
-0.0245985
-0.0242171
-0.0238338
-0.0234493
-0.0230644
-0.0226799
-0.0222967
-0.0219154
-0.0215369
-0.0211616
-0.0207904
-0.0204236
-0.0200618
-0.0197053
-0.0193545
-0.0190097
-0.018671
-0.0183387
-0.0180127
-0.0176932
-0.0173801
-0.0170734
-0.0167731
-0.0164791
-0.0161912
-0.0159093
-0.0156334
-0.0153631
-0.0150984
-0.0148391
-0.0145851
-0.014336
-0.0140918
-0.0138523
-0.0136173
-0.0133866
-0.01316
-0.0129375
-0.0127188
-0.0125037
-0.0122922
-0.0120841
-0.0118792
-0.0116773
-0.0114785
-0.0112825
-0.0110892
-0.0108985
-0.0107103
-0.0105244
-0.0103409
-0.0101596
-0.00998032
-0.00980308
-0.00962778
-0.00945432
-0.00928263
-0.00911264
-0.00894427
-0.00877747
-0.00861217
-0.00844831
-0.00828582
-0.00812467
-0.00796478
-0.00780613
-0.00764865
-0.0074923
-0.00733705
-0.00718283
-0.00702963
-0.00687739
-0.00672609
-0.00657568
-0.00642613
-0.00627741
-0.00612949
-0.00598235
-0.00583594
-0.00569025
-0.00554524
-0.0054009
-0.00525719
-0.00511409
-0.00497158
-0.00482964
-0.00468825
-0.00454738
-0.00440702
-0.00426714
-0.00412772
-0.00398876
-0.00385022
-0.00371209
-0.00357436
-0.003437
-0.00330001
-0.00316335
-0.00302703
-0.00289102
-0.0027553
-0.00261986
-0.0024847
-0.00234978
-0.0022151
-0.00208065
-0.0019464
-0.00181235
-0.00167848
-0.00154478
-0.00141123
-0.00127783
-0.00114455
-0.00101138
-0.000878308
-0.000745361
-0.000612351
-0.000479831
-0.000345636
-0.000215845
-6.22123e-05
3.99867
3.10664
0.492837
0.605626
0.327064
0.549593
-6.00552
-17.2026
-10.998
-9.53013
-9.4448
-10.2207
-11.2557
-9.12086
-6.27987
-3.19235
-1.34722
-0.690348
-0.157589
0.455536
1.13599
1.4777
1.57725
1.62697
1.70502
1.71761
1.60962
1.47831
1.55748
1.87555
2.20031
2.42247
2.52586
2.5192
2.41725
2.2538
2.06567
1.88027
1.7134
1.57354
1.46407
1.38308
1.33247
1.32274
1.36827
1.4972
1.74934
2.1866
2.86375
3.28292
2.98296
2.62671
2.38865
2.27811
2.30769
2.45109
2.67604
2.9173
2.92998
2.73884
2.68277
2.76974
2.94747
3.21087
3.52505
3.81017
3.95679
4.01429
4.10921
4.26148
4.44743
4.63488
4.77884
4.88382
5.0041
5.14939
5.29215
5.41694
5.53497
5.65767
5.77761
5.8869
5.98702
6.0762
6.14759
6.19859
6.23024
6.24262
6.2364
6.21382
6.17694
6.12743
6.06693
5.99672
5.91767
5.83051
5.73591
5.63443
5.52668
5.41326
5.29477
5.17181
5.04502
4.91507
4.78269
4.64861
4.5136
4.37837
4.24358
4.10981
3.97755
3.84721
3.7191
3.59345
3.47045
3.3502
3.23277
3.1182
3.00649
2.89761
2.79154
2.68823
2.58765
2.48976
2.39451
2.30186
2.2118
2.12429
2.0393
1.95682
1.87682
1.79929
1.72419
1.65151
1.58122
1.51328
1.44766
1.38431
1.32319
1.26425
1.20743
1.15268
1.09993
1.04912
1.00017
0.953039
0.907642
0.863917
0.8218
0.781228
0.742141
0.704483
0.668198
0.633236
0.599548
0.567088
0.535814
0.505683
0.476658
0.448701
0.421778
0.395853
0.370896
0.346874
0.323759
0.301521
0.280134
0.259571
0.239807
0.220819
0.202584
0.185079
0.168285
0.152182
0.13675
0.121971
0.107828
0.094304
0.0813814
0.0690443
0.0572767
0.0460627
0.0353868
0.0252335
0.0155875
0.00643376
-0.00224243
-0.0104555
-0.0182196
-0.0255484
-0.032455
-0.0389521
-0.0450518
-0.0507657
-0.0561047
-0.0610793
-0.0656996
-0.069975
-0.0739147
-0.0775276
-0.0808223
-0.0838074
-0.0864912
-0.0888825
-0.0909897
-0.0928218
-0.0943877
-0.0956971
-0.0967594
-0.0975848
-0.0981836
-0.0985666
-0.0987447
-0.0987293
-0.0985317
-0.0981637
-0.097637
-0.0969633
-0.0961544
-0.0952218
-0.0941771
-0.0930315
-0.0917959
-0.0904809
-0.0890968
-0.0876534
-0.08616
-0.0846255
-0.0830583
-0.0814663
-0.0798567
-0.0782365
-0.0766119
-0.0749887
-0.0733722
-0.0717673
-0.0701782
-0.0686088
-0.0670627
-0.0655429
-0.0640521
-0.0625925
-0.0611662
-0.059775
-0.05842
-0.0571026
-0.0558237
-0.0545838
-0.0533836
-0.0522233
-0.0511031
-0.050023
-0.048983
-0.0479828
-0.0470221
-0.0461005
-0.0452177
-0.044373
-0.043566
-0.042796
-0.0420625
-0.0413646
-0.0407019
-0.0400734
-0.0394786
-0.0389166
-0.0383867
-0.0378882
-0.0374202
-0.036982
-0.0365727
-0.0361915
-0.0358376
-0.0355101
-0.0352081
-0.0349307
-0.034677
-0.0344458
-0.0342364
-0.0340474
-0.0338779
-0.0337266
-0.0335924
-0.0334739
-0.0333697
-0.0332785
-0.0331987
-0.033129
-0.0330676
-0.0330129
-0.0329634
-0.0329173
-0.0328729
-0.0328286
-0.0327827
-0.0327336
-0.0326795
-0.0326191
-0.0325509
-0.0324734
-0.0323855
-0.032286
-0.0321739
-0.0320484
-0.0319088
-0.0317547
-0.0315857
-0.0314017
-0.0312028
-0.0309893
-0.0307615
-0.03052
-0.0302655
-0.0299987
-0.0297205
-0.0294317
-0.029133
-0.0288252
-0.028509
-0.0281849
-0.0278535
-0.0275151
-0.0271701
-0.0268189
-0.0264618
-0.0260992
-0.0257314
-0.0253589
-0.0249824
-0.0246024
-0.0242196
-0.0238348
-0.0234489
-0.0230626
-0.0226767
-0.0222921
-0.0219096
-0.0215298
-0.0211535
-0.0207813
-0.0204136
-0.0200511
-0.019694
-0.0193427
-0.0189975
-0.0186586
-0.018326
-0.0179999
-0.0176804
-0.0173674
-0.0170608
-0.0167607
-0.0164669
-0.0161793
-0.0158977
-0.015622
-0.0153521
-0.0150877
-0.0148288
-0.0145751
-0.0143264
-0.0140825
-0.0138433
-0.0136087
-0.0133783
-0.0131521
-0.0129299
-0.0127115
-0.0124967
-0.0122855
-0.0120776
-0.011873
-0.0116714
-0.0114728
-0.0112771
-0.011084
-0.0108935
-0.0107055
-0.0105199
-0.0103366
-0.0101554
-0.00997633
-0.00979926
-0.00962411
-0.0094508
-0.00927926
-0.00910941
-0.00894118
-0.0087745
-0.00860932
-0.00844557
-0.00828319
-0.00812214
-0.00796236
-0.0078038
-0.00764641
-0.00749015
-0.00733498
-0.00718085
-0.00702772
-0.00687555
-0.00672432
-0.00657397
-0.00642449
-0.00627584
-0.00612798
-0.00598089
-0.00583453
-0.0056889
-0.00554394
-0.00539964
-0.00525598
-0.00511293
-0.00497047
-0.00482857
-0.00468722
-0.00454639
-0.00440607
-0.00426622
-0.00412685
-0.00398792
-0.00384941
-0.00371132
-0.00357362
-0.0034363
-0.00329934
-0.00316272
-0.00302642
-0.00289044
-0.00275475
-0.00261935
-0.00248421
-0.00234932
-0.00221467
-0.00208025
-0.00194603
-0.001812
-0.00167816
-0.00154449
-0.00141097
-0.00127759
-0.00114433
-0.0010112
-0.000878148
-0.000745227
-0.000612243
-0.000479748
-0.000345579
-0.000215812
-6.22093e-05
3.10327
1.2019
0.711115
0.482277
0.477615
0.440476
-0.276085
-10.6759
-12.9273
-8.65478
-6.92692
-7.72487
-8.46493
-10.5273
-8.46168
-4.74287
-3.24093
-3.02701
-3.13043
-2.08902
-0.224372
1.44859
2.34862
2.68369
2.92623
3.09201
2.92251
2.36429
2.03077
2.26179
2.31855
2.07369
1.6889
1.27648
0.944428
0.751541
0.685415
0.678415
0.653577
0.576941
0.468578
0.375309
0.356883
0.464283
0.722013
1.11993
1.63525
2.40545
3.65148
4.09192
2.91307
2.26499
1.88931
1.6736
1.60063
1.62456
1.79838
2.2561
2.32959
1.88846
1.78107
1.93297
2.20896
2.59977
3.07263
3.506
3.56916
3.45361
3.48562
3.64677
3.87991
4.13008
4.28088
4.34676
4.46896
4.65324
4.83263
4.96914
5.09533
5.24271
5.39017
5.52083
5.64494
5.76103
5.85414
5.92201
5.96916
5.99486
5.99955
5.98721
5.96048
5.92107
5.87104
5.81163
5.74342
5.66696
5.58272
5.49114
5.39279
5.28824
5.17804
5.06277
4.94304
4.81953
4.69302
4.56433
4.4343
4.30374
4.17337
4.04383
3.91564
3.7892
3.66484
3.5428
3.42324
3.30626
3.19193
3.08027
2.97128
2.86495
2.76123
2.6601
2.56151
2.46543
2.37184
2.2807
2.192
2.10573
2.02187
1.94041
1.86135
1.78467
1.71036
1.6384
1.56879
1.50148
1.43645
1.37367
1.31308
1.25465
1.19832
1.14403
1.09173
1.04134
0.992804
0.946055
0.901024
0.857645
0.815855
0.775589
0.736789
0.699398
0.663362
0.628632
0.595159
0.562899
0.531811
0.501854
0.472991
0.445187
0.418406
0.392615
0.367784
0.343881
0.320878
0.298746
0.277459
0.25699
0.237315
0.218411
0.200255
0.182825
0.166102
0.150066
0.134698
0.119981
0.105897
0.0924301
0.0795628
0.0672795
0.0555645
0.0444019
0.0337764
0.0236724
0.0140746
0.00496808
-0.00366219
-0.0118307
-0.0195518
-0.026839
-0.0337058
-0.0401648
-0.0462282
-0.0519075
-0.0572135
-0.0621568
-0.066747
-0.0709935
-0.0749053
-0.0784909
-0.0817589
-0.0847173
-0.0873746
-0.089739
-0.0918189
-0.093623
-0.0951602
-0.0964399
-0.0974718
-0.0982657
-0.0988323
-0.0991822
-0.0993265
-0.0992767
-0.0990443
-0.0986413
-0.0980794
-0.0973707
-0.0965271
-0.0955604
-0.0944822
-0.0933039
-0.0920366
-0.0906911
-0.0892777
-0.0878063
-0.0862864
-0.0847268
-0.083136
-0.0815219
-0.0798919
-0.0782527
-0.0766106
-0.0749714
-0.0733404
-0.0717224
-0.0701215
-0.0685416
-0.0669862
-0.0654582
-0.0639602
-0.0624946
-0.0610631
-0.0596675
-0.058309
-0.0569888
-0.0557077
-0.0544662
-0.0532649
-0.052104
-0.0509837
-0.0499038
-0.0488643
-0.0478649
-0.0469053
-0.045985
-0.0451036
-0.0442606
-0.0434554
-0.0426873
-0.0419556
-0.0412599
-0.0405992
-0.0399729
-0.0393803
-0.0388206
-0.038293
-0.0377968
-0.0373312
-0.0368954
-0.0364886
-0.03611
-0.0357587
-0.0354339
-0.0351347
-0.0348601
-0.0346094
-0.0343813
-0.0341751
-0.0339895
-0.0338236
-0.033676
-0.0335456
-0.0334311
-0.0333312
-0.0332443
-0.0331691
-0.033104
-0.0330474
-0.0329977
-0.0329531
-0.032912
-0.0328726
-0.0328332
-0.0327922
-0.0327477
-0.0326982
-0.0326421
-0.0325779
-0.0325041
-0.0324195
-0.0323229
-0.0322132
-0.0320897
-0.0319515
-0.0317982
-0.0316294
-0.0314452
-0.0312455
-0.0310307
-0.0308012
-0.0305578
-0.0303012
-0.0300322
-0.0297517
-0.0294608
-0.0291602
-0.0288508
-0.0285332
-0.028208
-0.0278756
-0.0275365
-0.0271908
-0.0268388
-0.0264808
-0.026117
-0.0257478
-0.0253737
-0.0249952
-0.024613
-0.0242278
-0.0238405
-0.0234519
-0.023063
-0.0226745
-0.0222874
-0.0219025
-0.0215206
-0.0211423
-0.0207683
-0.0203991
-0.0200352
-0.0196771
-0.0193249
-0.0189791
-0.0186396
-0.0183068
-0.0179805
-0.0176609
-0.017348
-0.0170416
-0.0167418
-0.0164483
-0.016161
-0.0158799
-0.0156047
-0.0153353
-0.0150715
-0.014813
-0.0145598
-0.0143117
-0.0140684
-0.0138297
-0.0135956
-0.0133657
-0.01314
-0.0129183
-0.0127004
-0.0124861
-0.0122753
-0.0120679
-0.0118636
-0.0116625
-0.0114642
-0.0112688
-0.0110761
-0.010886
-0.0106983
-0.010513
-0.0103299
-0.010149
-0.00997023
-0.00979341
-0.0096185
-0.00944542
-0.0092741
-0.00910446
-0.00893642
-0.00876994
-0.00860494
-0.00844136
-0.00827915
-0.00811826
-0.00795863
-0.00780022
-0.00764297
-0.00748684
-0.00733179
-0.00717778
-0.00702476
-0.00687271
-0.00672158
-0.00657134
-0.00642195
-0.00627339
-0.00612562
-0.00597862
-0.00583235
-0.00568679
-0.00554191
-0.00539769
-0.0052541
-0.00511112
-0.00496873
-0.00482689
-0.0046856
-0.00454484
-0.00440457
-0.00426479
-0.00412547
-0.0039866
-0.00384815
-0.00371011
-0.00357246
-0.00343519
-0.00329827
-0.0031617
-0.00302545
-0.00288952
-0.00275388
-0.00261852
-0.00248342
-0.00234858
-0.00221397
-0.00207959
-0.00194541
-0.00181143
-0.00167763
-0.001544
-0.00141052
-0.00127718
-0.00114397
-0.00101087
-0.000877861
-0.000744979
-0.000612034
-0.000479578
-0.000345448
-0.00021572
-6.21755e-05
2.79908
0.916047
0.676238
0.533595
0.466901
0.409816
0.172549
-1.82231
-10.3319
-5.2666
-1.77722
-0.692419
-0.143048
-8.10403
-5.5001
-0.085793
-0.892552
0.0701
0.00527157
-0.0830699
-0.0278004
0.219646
0.606491
0.684402
0.624189
0.636784
0.722198
1.0415
0.763558
0.645339
0.544869
0.480552
0.442763
0.413983
0.392349
0.38115
0.379094
0.379178
0.376235
0.37132
0.3671
0.36382
0.363057
0.36907
0.3859
0.424425
0.558206
0.910335
2.75711
4.4971
1.27184
0.331386
0.0810584
0.133155
0.465933
1.01828
1.88536
3.24934
3.04225
1.90157
1.6427
1.50084
1.49489
1.73535
2.26771
3.05357
2.92159
2.52911
2.52281
2.74563
3.10339
3.52292
3.66614
3.59844
3.72196
3.98654
4.23029
4.36252
4.48368
4.67129
4.86418
5.02325
5.18418
5.34455
5.46807
5.55679
5.62478
5.66736
5.6846
5.68493
5.67122
5.6449
5.60895
5.56431
5.51087
5.44898
5.37877
5.30054
5.21482
5.12218
5.02312
4.91817
4.80786
4.69288
4.5741
4.45247
4.32898
4.20456
4.08003
3.9561
3.8333
3.71208
3.59273
3.47551
3.36055
3.24795
3.13776
3.02999
2.92465
2.8217
2.72112
2.62287
2.52693
2.43326
2.34186
2.25272
2.16582
2.08118
1.9988
1.91869
1.84085
1.76529
1.69201
1.62102
1.55229
1.48582
1.42158
1.35953
1.29966
1.2419
1.18621
1.13254
1.08083
1.031
0.983007
0.936772
0.892228
0.849311
0.807954
0.768096
0.729677
0.692641
0.656936
0.622513
0.589326
0.557333
0.526493
0.496767
0.468121
0.440519
0.413927
0.388316
0.363652
0.339907
0.317053
0.295061
0.273906
0.253562
0.234004
0.215211
0.197159
0.179829
0.163199
0.147252
0.131969
0.117333
0.103328
0.0899355
0.0771413
0.0649294
0.053284
0.0421898
0.0316312
0.021593
0.0120597
0.00301613
-0.00555277
-0.0136617
-0.0213252
-0.028557
-0.0353707
-0.0417789
-0.0477939
-0.0534272
-0.0586895
-0.0635911
-0.0681416
-0.0723499
-0.0762249
-0.0797746
-0.0830073
-0.0859307
-0.0885529
-0.0908818
-0.0929255
-0.0946925
-0.0961916
-0.0974319
-0.0984231
-0.0991751
-0.0996985
-0.100004
-0.100103
-0.100007
-0.0997282
-0.0992781
-0.0986692
-0.0979135
-0.0970234
-0.0960108
-0.0948877
-0.0936656
-0.0923559
-0.0909695
-0.0895169
-0.088008
-0.0864526
-0.0848595
-0.0832372
-0.0815937
-0.0799363
-0.0782719
-0.0766066
-0.0749462
-0.0732959
-0.0716604
-0.0700439
-0.0684501
-0.0668824
-0.0653436
-0.0638363
-0.0623626
-0.0609243
-0.059523
-0.0581599
-0.056836
-0.0555521
-0.0543086
-0.0531059
-0.0519444
-0.0508238
-0.0497443
-0.0487056
-0.0477073
-0.0467492
-0.0458307
-0.0449513
-0.0441105
-0.0433076
-0.0425421
-0.0418131
-0.04112
-0.0404622
-0.0398388
-0.0392492
-0.0386925
-0.038168
-0.0376749
-0.0372125
-0.0367799
-0.0363765
-0.0360012
-0.0356534
-0.0353321
-0.0350366
-0.0347659
-0.034519
-0.0342951
-0.0340932
-0.0339121
-0.0337508
-0.0336082
-0.0334829
-0.0333738
-0.0332795
-0.0331985
-0.0331294
-0.0330706
-0.0330204
-0.0329772
-0.0329393
-0.0329049
-0.0328723
-0.0328396
-0.032805
-0.0327669
-0.0327235
-0.0326732
-0.0326143
-0.0325455
-0.0324654
-0.0323727
-0.0322664
-0.0321456
-0.0320094
-0.0318575
-0.0316894
-0.0315051
-0.0313047
-0.0310885
-0.0308571
-0.0306111
-0.0303516
-0.0300793
-0.0297955
-0.0295012
-0.0291972
-0.0288846
-0.028564
-0.0282361
-0.0279014
-0.02756
-0.0272123
-0.0268583
-0.0264984
-0.0261326
-0.0257613
-0.025385
-0.0250041
-0.0246193
-0.0242315
-0.0238415
-0.0234501
-0.0230583
-0.0226671
-0.0222774
-0.0218899
-0.0215057
-0.0211253
-0.0207494
-0.0203785
-0.0200133
-0.0196539
-0.0193008
-0.0189543
-0.0186143
-0.0182811
-0.0179548
-0.0176352
-0.0173224
-0.0170163
-0.0167169
-0.0164238
-0.0161371
-0.0158566
-0.015582
-0.0153133
-0.0150501
-0.0147924
-0.0145399
-0.0142925
-0.0140499
-0.0138119
-0.0135785
-0.0133493
-0.0131243
-0.0129032
-0.0126859
-0.0124722
-0.012262
-0.0120551
-0.0118514
-0.0116508
-0.011453
-0.0112581
-0.0110658
-0.0108761
-0.0106889
-0.010504
-0.0103213
-0.0101408
-0.00996232
-0.00978584
-0.00961125
-0.00943847
-0.00926743
-0.00909806
-0.00893029
-0.00876406
-0.0085993
-0.00843595
-0.00827396
-0.00811327
-0.00795384
-0.00779561
-0.00763854
-0.00748259
-0.0073277
-0.00717385
-0.00702099
-0.00686908
-0.00671809
-0.00656798
-0.00641872
-0.00627028
-0.00612263
-0.00597574
-0.00582958
-0.00568412
-0.00553935
-0.00539522
-0.00525173
-0.00510884
-0.00496653
-0.00482478
-0.00468358
-0.00454289
-0.0044027
-0.004263
-0.00412375
-0.00398495
-0.00384657
-0.0037086
-0.00357102
-0.00343381
-0.00329696
-0.00316045
-0.00302427
-0.00288839
-0.00275281
-0.00261751
-0.00248247
-0.00234769
-0.00221314
-0.00207881
-0.00194469
-0.00181076
-0.00167701
-0.00154343
-0.00141001
-0.00127672
-0.00114356
-0.00101051
-0.000877557
-0.000744727
-0.000611833
-0.000479427
-0.00034535
-0.000215668
-6.21803e-05
2.46713
0.568507
0.539264
0.518587
0.447681
0.35329
0.227615
0.0466715
-0.803241
2.06841
-0.168999
-0.160538
-0.456287
-5.51245
-14.9881
-5.27344
1.07989
0.708712
0.531348
0.275101
0.139405
0.162687
0.379084
0.505774
0.460308
0.422665
0.482811
0.712545
0.743734
0.630769
0.517229
0.461529
0.433752
0.416238
0.403762
0.394846
0.389213
0.386122
0.384748
0.384927
0.386502
0.388698
0.391077
0.394095
0.400548
0.428034
0.498242
0.621726
0.688666
0.335729
0.117705
0.211791
0.278972
0.326061
0.383468
0.545902
0.958287
3.17681
2.83228
-0.730792
-0.48969
0.082093
0.600249
1.40354
2.75948
4.87999
3.19112
2.03725
1.89997
1.95884
2.24317
2.87391
2.91567
2.5423
2.65979
3.09866
3.53201
3.60802
3.67842
3.94407
4.21079
4.38801
4.59804
4.82854
4.98787
5.09813
5.19622
5.26076
5.29105
5.30661
5.30846
5.29743
5.27935
5.25386
5.21954
5.17649
5.12418
5.06274
4.99295
4.91536
4.83042
4.7385
4.63999
4.53559
4.4263
4.31329
4.19778
4.08089
3.96358
3.84661
3.73056
3.61587
3.50283
3.39166
3.28249
3.17539
3.0704
2.96753
2.86676
2.76805
2.67139
2.57674
2.48409
2.39343
2.30475
2.21806
2.13339
2.05076
1.9702
1.89174
1.81541
1.74123
1.66923
1.59941
1.53177
1.46633
1.40306
1.34193
1.28293
1.22601
1.17113
1.11823
1.06725
1.01813
0.970813
0.925221
0.881289
0.838949
0.798136
0.758787
0.720843
0.684249
0.648954
0.614912
0.582078
0.550412
0.519877
0.490435
0.462055
0.434702
0.408345
0.382953
0.358497
0.334949
0.312279
0.290462
0.269471
0.249283
0.229872
0.211217
0.193295
0.176088
0.159576
0.143739
0.128562
0.114027
0.100118
0.0868199
0.0741167
0.0619935
0.0504351
0.0394262
0.0289515
0.0189957
0.00954319
0.000578664
-0.00791316
-0.0159473
-0.0235384
-0.0307007
-0.0374477
-0.0437924
-0.049747
-0.0553229
-0.0605308
-0.0653807
-0.0698819
-0.0740431
-0.0778726
-0.0813781
-0.0845673
-0.0874475
-0.0900264
-0.0923113
-0.0943102
-0.0960312
-0.0974828
-0.098674
-0.0996144
-0.100314
-0.100783
-0.101033
-0.101075
-0.100921
-0.100584
-0.100074
-0.0994059
-0.0985912
-0.0976424
-0.0965721
-0.0953924
-0.0941153
-0.0927522
-0.0913143
-0.0898124
-0.0882566
-0.0866566
-0.0850215
-0.0833599
-0.0816796
-0.0799881
-0.0782921
-0.0765979
-0.0749111
-0.0732368
-0.0715796
-0.0699437
-0.0683327
-0.0667498
-0.0651977
-0.0636788
-0.0621952
-0.0607487
-0.0593404
-0.0579717
-0.0566434
-0.0553561
-0.0541102
-0.052906
-0.0517437
-0.0506231
-0.0495441
-0.0485065
-0.0475098
-0.0465536
-0.0456374
-0.0447606
-0.0439225
-0.0431227
-0.0423603
-0.0416347
-0.0409451
-0.0402908
-0.0396711
-0.0390851
-0.0385322
-0.0380116
-0.0375224
-0.037064
-0.0366355
-0.0362361
-0.0358651
-0.0355216
-0.0352047
-0.0349138
-0.0346478
-0.0344058
-0.034187
-0.0339904
-0.0338149
-0.0336595
-0.033523
-0.0334042
-0.0333018
-0.0332145
-0.0331409
-0.0330794
-0.0330284
-0.0329864
-0.0329515
-0.032922
-0.0328961
-0.0328719
-0.0328476
-0.0328213
-0.0327913
-0.0327557
-0.0327127
-0.0326609
-0.0325984
-0.032524
-0.0324363
-0.0323341
-0.0322164
-0.0320825
-0.0319318
-0.0317639
-0.0315788
-0.0313767
-0.0311581
-0.0309235
-0.030674
-0.0304105
-0.0301344
-0.0298468
-0.029549
-0.0292422
-0.0289273
-0.028605
-0.0282759
-0.0279404
-0.0275985
-0.0272502
-0.0268955
-0.0265344
-0.0261669
-0.0257934
-0.0254141
-0.0250296
-0.0246407
-0.0242484
-0.0238535
-0.0234572
-0.0230604
-0.0226644
-0.02227
-0.0218783
-0.02149
-0.0211061
-0.0207271
-0.0203536
-0.019986
-0.0196249
-0.0192703
-0.0189226
-0.0185819
-0.0182483
-0.0179217
-0.0176021
-0.0172895
-0.0169838
-0.0166848
-0.0163924
-0.0161064
-0.0158266
-0.0155529
-0.015285
-0.0150227
-0.0147659
-0.0145144
-0.0142678
-0.0140262
-0.0137891
-0.0135566
-0.0133283
-0.0131041
-0.0128838
-0.0126673
-0.0124544
-0.0122449
-0.0120388
-0.0118358
-0.0116358
-0.0114387
-0.0112444
-0.0110527
-0.0108635
-0.0106768
-0.0104924
-0.0103102
-0.0101301
-0.00995212
-0.00977606
-0.00960187
-0.00942947
-0.0092588
-0.00908978
-0.00892234
-0.00875642
-0.00859196
-0.0084289
-0.00826719
-0.00810676
-0.00794758
-0.0077896
-0.00763276
-0.00747702
-0.00732235
-0.00716869
-0.00701602
-0.0068643
-0.00671348
-0.00656354
-0.00641445
-0.00626616
-0.00611866
-0.00597192
-0.0058259
-0.00568058
-0.00553593
-0.00539193
-0.00524856
-0.00510578
-0.00496359
-0.00482195
-0.00468085
-0.00454026
-0.00440018
-0.00426057
-0.00412142
-0.00398271
-0.00384442
-0.00370654
-0.00356904
-0.00343192
-0.00329515
-0.00315872
-0.00302262
-0.00288682
-0.00275132
-0.00261609
-0.00248113
-0.00234642
-0.00221194
-0.00207768
-0.00194363
-0.00180977
-0.0016761
-0.00154259
-0.00140923
-0.00127601
-0.00114291
-0.00100994
-0.000877047
-0.000744283
-0.000611454
-0.000479113
-0.000345103
-0.000215489
-6.2105e-05
2.08522
0.44194
0.474355
0.458637
0.394983
0.28554
0.162302
0.0296446
-0.331558
-0.424016
-0.0870611
-0.137558
-0.260671
-0.433654
-0.887258
-2.30639
-0.0778998
0.26115
0.0467051
-0.0976606
-0.0285487
0.188999
0.385025
0.504872
0.552103
0.589352
0.618314
0.585236
0.527344
0.478707
0.455235
0.435748
0.419823
0.407608
0.398274
0.391009
0.385358
0.381222
0.378857
0.378511
0.37998
0.382721
0.386337
0.390467
0.3959
0.409253
0.436575
0.482577
0.504021
0.479142
0.411488
0.391818
0.391547
0.399217
0.430187
0.514223
0.632798
0.54976
0.011063
0.146839
0.298124
0.391183
0.485895
0.682267
1.28964
6.12727
1.86079
-0.415027
-0.13932
0.591263
1.65811
3.68347
2.79553
1.72731
1.90813
2.29506
2.98774
2.76339
2.62254
3.00978
3.44245
3.59724
3.87999
4.24075
4.4282
4.54634
4.68799
4.77462
4.81161
4.8469
4.86853
4.87554
4.88082
4.87982
4.86938
4.84998
4.81954
4.77831
4.72775
4.66847
4.6008
4.52477
4.44045
4.34856
4.25032
4.14729
4.04105
3.93298
3.8242
3.71555
3.6076
3.50078
3.39536
3.29151
3.18934
3.08889
2.99019
2.89321
2.79794
2.70433
2.61237
2.52203
2.43331
2.34621
2.26076
2.17698
2.09494
2.01468
1.93626
1.85974
1.78517
1.71261
1.6421
1.57366
1.50732
1.44308
1.38096
1.32092
1.26296
1.20703
1.1531
1.10112
1.05102
1.00275
0.956239
0.911418
0.868218
0.82657
0.786408
0.747668
0.710293
0.674228
0.639425
0.605838
0.573427
0.542154
0.511984
0.482883
0.454821
0.427766
0.401689
0.376561
0.352353
0.329038
0.306589
0.284979
0.264184
0.24418
0.224943
0.206451
0.188684
0.171623
0.155248
0.139542
0.124489
0.110073
0.096278
0.0830904
0.0704949
0.0584771
0.0470221
0.036115
0.0257407
0.0158837
0.00652843
-0.00234086
-0.0107397
-0.0186837
-0.0261876
-0.0332661
-0.0399331
-0.0462015
-0.0520838
-0.0575912
-0.0627344
-0.067523
-0.0719659
-0.0760715
-0.0798474
-0.0833008
-0.0864388
-0.0892682
-0.0917959
-0.094029
-0.0959747
-0.097641
-0.0990359
-0.100168
-0.101048
-0.101684
-0.102088
-0.102271
-0.102244
-0.10202
-0.101611
-0.10103
-0.10029
-0.0994032
-0.0983834
-0.0972432
-0.095995
-0.0946511
-0.0932235
-0.0917235
-0.0901621
-0.0885497
-0.086896
-0.0852104
-0.0835013
-0.0817769