/*--------------------------------*- C++ -*----------------------------------*\
| =========                 |                                                 |
| \\      /  F ield         | OpenFOAM: The Open Source CFD Toolbox           |
|  \\    /   O peration     | Version:  v2006                                 |
|   \\  /    A nd           | Website:  www.openfoam.com                      |
|    \\/     M anipulation  |                                                 |
\*---------------------------------------------------------------------------*/
FoamFile
{
    version     2.0;
    format      ascii;
    class       volVectorField;
    location    "0";
    object      U;
}
// * * * * * * * * * * * * * * * * * * * * * * * * * * * * * * * * * * * * * //

dimensions      [0 1 -1 0 0 0 0];


internalField   nonuniform List<vector> 
67500
(
(-0.030847 0.024223 0)
(-0.0701216 0.0105789 0)
(-0.0510044 -0.016041 0)
(-0.00808324 -0.0263241 0)
(0.0267063 -0.0233142 0)
(0.132147 -0.055388 0)
(0.278554 -0.0215252 0)
(0.325641 0.0155777 0)
(0.28063 0.0199825 0)
(0.236161 0.00870945 0)
(0.221129 0.00212386 0)
(0.217696 0.000740695 0)
(0.215028 5.57367e-05 0)
(0.213241 -0.000713557 0)
(0.213092 -0.00103284 0)
(0.214502 -0.00123925 0)
(0.217363 -0.0017212 0)
(0.221607 -0.00237484 0)
(0.227196 -0.00303757 0)
(0.234036 -0.0036564 0)
(0.242023 -0.00423411 0)
(0.251089 -0.00478087 0)
(0.261185 -0.00529823 0)
(0.27226 -0.00577877 0)
(0.284238 -0.00621325 0)
(0.297028 -0.00659734 0)
(0.310535 -0.00693305 0)
(0.324673 -0.00722602 0)
(0.33937 -0.00748208 0)
(0.354562 -0.00770451 0)
(0.370188 -0.0078932 0)
(0.386181 -0.00804568 0)
(0.40246 -0.00815863 0)
(0.418935 -0.00822837 0)
(0.435503 -0.00824942 0)
(0.452047 -0.00821251 0)
(0.46843 -0.0081074 0)
(0.484506 -0.00793824 0)
(0.500178 -0.00773951 0)
(0.515435 -0.00754796 0)
(0.530314 -0.00736748 0)
(0.544834 -0.00718795 0)
(0.558997 -0.00701266 0)
(0.572829 -0.00685946 0)
(0.586394 -0.00673936 0)
(0.599754 -0.00664382 0)
(0.612945 -0.00655999 0)
(0.625981 -0.00648318 0)
(0.638873 -0.00641137 0)
(0.651626 -0.00633828 0)
(0.664228 -0.00625648 0)
(0.676657 -0.00616276 0)
(0.688886 -0.00605717 0)
(0.700892 -0.00593983 0)
(0.712651 -0.00581105 0)
(0.724141 -0.00567238 0)
(0.735343 -0.00552588 0)
(0.746245 -0.00537334 0)
(0.756835 -0.00521647 0)
(0.767108 -0.00505691 0)
(0.777059 -0.00489599 0)
(0.786687 -0.00473476 0)
(0.795993 -0.0045741 0)
(0.804977 -0.00441469 0)
(0.813645 -0.00425705 0)
(0.821999 -0.00410161 0)
(0.830044 -0.00394869 0)
(0.837786 -0.00379853 0)
(0.845231 -0.00365137 0)
(0.852385 -0.00350737 0)
(0.859253 -0.0033667 0)
(0.865844 -0.0032295 0)
(0.872165 -0.00309589 0)
(0.878221 -0.00296596 0)
(0.884022 -0.00283982 0)
(0.889574 -0.0027175 0)
(0.894886 -0.00259906 0)
(0.899964 -0.00248451 0)
(0.904818 -0.00237386 0)
(0.909454 -0.00226708 0)
(0.913881 -0.00216415 0)
(0.918106 -0.00206502 0)
(0.922136 -0.00196964 0)
(0.925979 -0.00187793 0)
(0.929643 -0.00178984 0)
(0.933134 -0.00170528 0)
(0.93646 -0.00162417 0)
(0.939627 -0.00154641 0)
(0.942642 -0.00147192 0)
(0.945511 -0.0014006 0)
(0.94824 -0.00133236 0)
(0.950837 -0.0012671 0)
(0.953305 -0.00120473 0)
(0.955652 -0.00114515 0)
(0.957883 -0.00108827 0)
(0.960003 -0.001034 0)
(0.962016 -0.000982246 0)
(0.963929 -0.000932919 0)
(0.965745 -0.000885931 0)
(0.96747 -0.000841196 0)
(0.969108 -0.000798629 0)
(0.970663 -0.000758142 0)
(0.972138 -0.000719651 0)
(0.973539 -0.000683072 0)
(0.974869 -0.000648323 0)
(0.976131 -0.00061532 0)
(0.977328 -0.000583982 0)
(0.978465 -0.000554231 0)
(0.979544 -0.000525987 0)
(0.980568 -0.000499175 0)
(0.981539 -0.000473722 0)
(0.982461 -0.000449555 0)
(0.983336 -0.000426607 0)
(0.984166 -0.000404812 0)
(0.984954 -0.000384107 0)
(0.985702 -0.000364433 0)
(0.986411 -0.000345735 0)
(0.987084 -0.00032796 0)
(0.987722 -0.000311061 0)
(0.988327 -0.000294993 0)
(0.988901 -0.000279714 0)
(0.989445 -0.000265188 0)
(0.989961 -0.000251382 0)
(0.99045 -0.000238263 0)
(0.990914 -0.000225803 0)
(0.991353 -0.000213976 0)
(0.991769 -0.000202756 0)
(0.992163 -0.000192119 0)
(0.992537 -0.000182041 0)
(0.992891 -0.000172501 0)
(0.993226 -0.000163475 0)
(0.993544 -0.000154941 0)
(0.993845 -0.000146875 0)
(0.994131 -0.000139258 0)
(0.994402 -0.000132066 0)
(0.994659 -0.000125278 0)
(0.994903 -0.000118873 0)
(0.995134 -0.000112832 0)
(0.995354 -0.000107135 0)
(0.995562 -0.000101763 0)
(0.995761 -9.66974e-05 0)
(0.995949 -9.19219e-05 0)
(0.996128 -8.74196e-05 0)
(0.996298 -8.31745e-05 0)
(0.99646 -7.91714e-05 0)
(0.996615 -7.53958e-05 0)
(0.996762 -7.18336e-05 0)
(0.996902 -6.84713e-05 0)
(0.997035 -6.5296e-05 0)
(0.997163 -6.22954e-05 0)
(0.997284 -5.94577e-05 0)
(0.997401 -5.67717e-05 0)
(0.997511 -5.42268e-05 0)
(0.997617 -5.1813e-05 0)
(0.997719 -4.95209e-05 0)
(0.997815 -4.73418e-05 0)
(0.997908 -4.52676e-05 0)
(0.997996 -4.32908e-05 0)
(0.998081 -4.14048e-05 0)
(0.998162 -3.96032e-05 0)
(0.998239 -3.78805e-05 0)
(0.998313 -3.62316e-05 0)
(0.998384 -3.46521e-05 0)
(0.998452 -3.31379e-05 0)
(0.998517 -3.16854e-05 0)
(0.998578 -3.02915e-05 0)
(0.998638 -2.89532e-05 0)
(0.998694 -2.76681e-05 0)
(0.998748 -2.64337e-05 0)
(0.9988 -2.52481e-05 0)
(0.998849 -2.41094e-05 0)
(0.998896 -2.30159e-05 0)
(0.998941 -2.1966e-05 0)
(0.998984 -2.09583e-05 0)
(0.999025 -1.99913e-05 0)
(0.999064 -1.90638e-05 0)
(0.999101 -1.81746e-05 0)
(0.999137 -1.73225e-05 0)
(0.999171 -1.65063e-05 0)
(0.999203 -1.57249e-05 0)
(0.999233 -1.49774e-05 0)
(0.999263 -1.42625e-05 0)
(0.99929 -1.35792e-05 0)
(0.999317 -1.29266e-05 0)
(0.999342 -1.23035e-05 0)
(0.999366 -1.17091e-05 0)
(0.999389 -1.11423e-05 0)
(0.999411 -1.06021e-05 0)
(0.999431 -1.00876e-05 0)
(0.999451 -9.59781e-06 0)
(0.99947 -9.13187e-06 0)
(0.999487 -8.68884e-06 0)
(0.999504 -8.26784e-06 0)
(0.99952 -7.86801e-06 0)
(0.999536 -7.4885e-06 0)
(0.99955 -7.1285e-06 0)
(0.999564 -6.7872e-06 0)
(0.999578 -6.46381e-06 0)
(0.99959 -6.15758e-06 0)
(0.999602 -5.86777e-06 0)
(0.999614 -5.59366e-06 0)
(0.999625 -5.33455e-06 0)
(0.999635 -5.08976e-06 0)
(0.999645 -4.85865e-06 0)
(0.999654 -4.64056e-06 0)
(0.999663 -4.4349e-06 0)
(0.999672 -4.24105e-06 0)
(0.99968 -4.05844e-06 0)
(0.999688 -3.88653e-06 0)
(0.999696 -3.72475e-06 0)
(0.999703 -3.57261e-06 0)
(0.99971 -3.42958e-06 0)
(0.999717 -3.2952e-06 0)
(0.999723 -3.16898e-06 0)
(0.99973 -3.05049e-06 0)
(0.999736 -2.93928e-06 0)
(0.999741 -2.83494e-06 0)
(0.999747 -2.73707e-06 0)
(0.999752 -2.64529e-06 0)
(0.999757 -2.55921e-06 0)
(0.999763 -2.47848e-06 0)
(0.999767 -2.40276e-06 0)
(0.999772 -2.33172e-06 0)
(0.999777 -2.26504e-06 0)
(0.999781 -2.20241e-06 0)
(0.999786 -2.14354e-06 0)
(0.99979 -2.08815e-06 0)
(0.999794 -2.03595e-06 0)
(0.999798 -1.9867e-06 0)
(0.999802 -1.94014e-06 0)
(0.999806 -1.89602e-06 0)
(0.999809 -1.85412e-06 0)
(0.999813 -1.81421e-06 0)
(0.999817 -1.77607e-06 0)
(0.99982 -1.7395e-06 0)
(0.999824 -1.7043e-06 0)
(0.999827 -1.67029e-06 0)
(0.99983 -1.63729e-06 0)
(0.999834 -1.60512e-06 0)
(0.999837 -1.57364e-06 0)
(0.99984 -1.5427e-06 0)
(0.999843 -1.51215e-06 0)
(0.999846 -1.48189e-06 0)
(0.999849 -1.45178e-06 0)
(0.999852 -1.42175e-06 0)
(0.999854 -1.3917e-06 0)
(0.999857 -1.36156e-06 0)
(0.99986 -1.33128e-06 0)
(0.999863 -1.30081e-06 0)
(0.999865 -1.27014e-06 0)
(0.999868 -1.23927e-06 0)
(0.99987 -1.20819e-06 0)
(0.999872 -1.17693e-06 0)
(0.999875 -1.14555e-06 0)
(0.999877 -1.11409e-06 0)
(0.999879 -1.08263e-06 0)
(0.999881 -1.05124e-06 0)
(0.999883 -1.02002e-06 0)
(0.999885 -9.89054e-07 0)
(0.999887 -9.58446e-07 0)
(0.999889 -9.28286e-07 0)
(0.999891 -8.9866e-07 0)
(0.999893 -8.69647e-07 0)
(0.999895 -8.41313e-07 0)
(0.999896 -8.13714e-07 0)
(0.999898 -7.86894e-07 0)
(0.999899 -7.60883e-07 0)
(0.999901 -7.35707e-07 0)
(0.999902 -7.11386e-07 0)
(0.999904 -6.87941e-07 0)
(0.999905 -6.654e-07 0)
(0.999906 -6.43803e-07 0)
(0.999908 -6.23204e-07 0)
(0.999909 -6.03675e-07 0)
(0.99991 -5.85305e-07 0)
(0.999911 -5.68196e-07 0)
(0.999912 -5.52452e-07 0)
(0.999913 -5.38176e-07 0)
(0.999915 -5.25446e-07 0)
(0.999916 -5.14305e-07 0)
(0.999917 -5.04744e-07 0)
(0.999918 -4.96683e-07 0)
(0.999919 -4.8997e-07 0)
(0.99992 -4.8437e-07 0)
(0.99992 -4.79577e-07 0)
(0.999921 -4.75234e-07 0)
(0.999922 -4.70953e-07 0)
(0.999923 -4.6636e-07 0)
(0.999924 -4.61127e-07 0)
(0.999925 -4.55012e-07 0)
(0.999926 -4.47896e-07 0)
(0.999927 -4.39796e-07 0)
(0.999928 -4.30878e-07 0)
(0.999929 -4.21443e-07 0)
(0.99993 -4.11903e-07 0)
(0.99993 -4.02739e-07 0)
(0.999931 -3.94454e-07 0)
(0.999932 -3.87527e-07 0)
(0.999933 -3.82362e-07 0)
(0.999933 -3.79258e-07 0)
(0.999934 -3.78381e-07 0)
(0.999935 -3.79758e-07 0)
(0.999936 -3.83279e-07 0)
(0.999936 -3.88717e-07 0)
(0.999937 -3.95747e-07 0)
(0.999938 -4.0398e-07 0)
(0.999939 -4.1299e-07 0)
(0.99994 -4.22348e-07 0)
(0.999941 -4.31637e-07 0)
(0.999941 -4.40484e-07 0)
(0.999942 -4.48563e-07 0)
(0.999943 -4.55611e-07 0)
(0.999944 -4.61426e-07 0)
(0.999945 -4.65872e-07 0)
(0.999946 -4.68867e-07 0)
(0.999947 -4.70385e-07 0)
(0.999948 -4.70443e-07 0)
(0.999949 -4.69094e-07 0)
(0.99995 -4.66422e-07 0)
(0.999951 -4.62528e-07 0)
(0.999952 -4.57529e-07 0)
(0.999953 -4.51549e-07 0)
(0.999953 -4.44717e-07 0)
(0.999954 -4.37158e-07 0)
(0.999955 -4.28994e-07 0)
(0.999956 -4.20341e-07 0)
(0.999957 -4.11305e-07 0)
(0.999958 -4.01986e-07 0)
(0.999958 -3.92471e-07 0)
(0.999959 -3.8284e-07 0)
(0.99996 -3.73162e-07 0)
(0.999961 -3.63497e-07 0)
(0.999961 -3.53897e-07 0)
(0.999962 -3.44406e-07 0)
(0.999963 -3.3506e-07 0)
(0.999963 -3.25888e-07 0)
(0.999964 -3.16916e-07 0)
(0.999965 -3.08162e-07 0)
(0.999965 -2.9964e-07 0)
(0.999966 -2.91361e-07 0)
(0.999967 -2.83331e-07 0)
(0.999967 -2.75555e-07 0)
(0.999968 -2.68034e-07 0)
(0.999968 -2.60768e-07 0)
(0.999969 -2.53754e-07 0)
(0.999969 -2.46989e-07 0)
(0.99997 -2.40469e-07 0)
(0.99997 -2.34187e-07 0)
(0.999971 -2.28138e-07 0)
(0.999971 -2.22314e-07 0)
(0.999971 -2.16709e-07 0)
(0.999972 -2.11314e-07 0)
(0.999972 -2.06122e-07 0)
(0.999973 -2.01125e-07 0)
(0.999973 -1.96316e-07 0)
(0.999974 -1.91687e-07 0)
(0.999974 -1.8723e-07 0)
(0.999974 -1.82938e-07 0)
(0.999975 -1.78803e-07 0)
(0.999975 -1.7482e-07 0)
(0.999975 -1.7098e-07 0)
(0.999976 -1.67277e-07 0)
(0.999976 -1.63706e-07 0)
(0.999976 -1.60259e-07 0)
(0.999977 -1.56931e-07 0)
(0.999977 -1.53716e-07 0)
(0.999977 -1.50609e-07 0)
(0.999978 -1.47605e-07 0)
(0.999978 -1.44699e-07 0)
(0.999978 -1.41886e-07 0)
(0.999978 -1.39162e-07 0)
(0.999979 -1.36523e-07 0)
(0.999979 -1.33964e-07 0)
(0.999979 -1.31481e-07 0)
(0.999979 -1.29072e-07 0)
(0.99998 -1.26732e-07 0)
(0.99998 -1.24459e-07 0)
(0.99998 -1.22248e-07 0)
(0.99998 -1.20098e-07 0)
(0.999981 -1.18006e-07 0)
(0.999981 -1.15968e-07 0)
(0.999981 -1.13982e-07 0)
(0.999981 -1.12046e-07 0)
(0.999982 -1.10158e-07 0)
(0.999982 -1.08315e-07 0)
(0.999982 -1.06515e-07 0)
(0.999982 -1.04757e-07 0)
(0.999982 -1.03039e-07 0)
(0.999983 -1.01359e-07 0)
(0.999983 -9.9715e-08 0)
(0.999983 -9.81058e-08 0)
(0.999983 -9.65299e-08 0)
(0.999983 -9.49858e-08 0)
(0.999984 -9.34723e-08 0)
(0.999984 -9.19882e-08 0)
(0.999984 -9.05322e-08 0)
(0.999984 -8.91033e-08 0)
(0.999984 -8.77003e-08 0)
(0.999985 -8.63222e-08 0)
(0.999985 -8.49682e-08 0)
(0.999985 -8.36372e-08 0)
(0.999985 -8.23285e-08 0)
(0.999985 -8.10412e-08 0)
(0.999985 -7.97744e-08 0)
(0.999986 -7.85275e-08 0)
(0.999986 -7.72998e-08 0)
(0.999986 -7.60906e-08 0)
(0.999986 -7.48993e-08 0)
(0.999986 -7.37252e-08 0)
(0.999986 -7.25679e-08 0)
(0.999986 -7.14266e-08 0)
(0.999987 -7.0301e-08 0)
(0.999987 -6.91905e-08 0)
(0.999987 -6.80947e-08 0)
(0.999987 -6.70131e-08 0)
(0.999987 -6.59453e-08 0)
(0.999987 -6.48908e-08 0)
(0.999987 -6.38493e-08 0)
(0.999988 -6.28204e-08 0)
(0.999988 -6.18037e-08 0)
(0.999988 -6.07988e-08 0)
(0.999988 -5.98056e-08 0)
(0.999988 -5.88235e-08 0)
(0.999988 -5.78524e-08 0)
(0.999988 -5.68918e-08 0)
(0.999988 -5.59417e-08 0)
(0.999988 -5.50018e-08 0)
(0.999989 -5.40716e-08 0)
(0.999989 -5.3151e-08 0)
(0.999989 -5.22398e-08 0)
(0.999989 -5.13376e-08 0)
(0.999989 -5.04444e-08 0)
(0.999989 -4.95598e-08 0)
(0.999989 -4.86837e-08 0)
(0.999989 -4.78159e-08 0)
(0.999989 -4.69562e-08 0)
(0.999989 -4.61043e-08 0)
(0.99999 -4.52602e-08 0)
(0.99999 -4.44236e-08 0)
(0.99999 -4.35943e-08 0)
(0.99999 -4.27723e-08 0)
(0.99999 -4.19573e-08 0)
(0.99999 -4.11491e-08 0)
(0.99999 -4.03476e-08 0)
(0.99999 -3.9553e-08 0)
(0.99999 -3.87632e-08 0)
(0.99999 -3.7987e-08 0)
(0.99999 -3.71857e-08 0)
(0.99999 -3.65242e-08 0)
(0.999991 -3.52958e-08 0)
(-0.0323495 0.0680228 0)
(-0.0555878 0.0159545 0)
(-0.014733 -0.0541376 0)
(-0.00953782 -0.0550018 0)
(-0.0282784 -0.114532 0)
(0.0355284 -0.26712 0)
(0.227381 -0.168406 0)
(0.336559 0.00163873 0)
(0.316514 0.0617924 0)
(0.25506 0.0440756 0)
(0.223759 0.0190525 0)
(0.215258 0.00851671 0)
(0.21227 0.00519059 0)
(0.210838 0.00265798 0)
(0.211081 -9.0423e-05 0)
(0.212787 -0.0027294 0)
(0.215889 -0.00517949 0)
(0.220387 -0.0074082 0)
(0.226075 -0.0093987 0)
(0.232777 -0.0111945 0)
(0.240425 -0.0128595 0)
(0.249026 -0.0144362 0)
(0.258609 -0.0159296 0)
(0.269194 -0.0173166 0)
(0.280757 -0.0185698 0)
(0.293235 -0.0196806 0)
(0.306547 -0.0206628 0)
(0.320607 -0.0215398 0)
(0.335342 -0.0223298 0)
(0.35068 -0.0230382 0)
(0.366551 -0.0236569 0)
(0.382874 -0.0241674 0)
(0.399555 -0.0245482 0)
(0.416484 -0.0247818 0)
(0.433546 -0.0248502 0)
(0.450606 -0.0247228 0)
(0.467494 -0.0243623 0)
(0.484001 -0.0237844 0)
(0.499982 -0.0231311 0)
(0.515449 -0.0225426 0)
(0.530484 -0.0220147 0)
(0.545113 -0.0214926 0)
(0.559318 -0.0209759 0)
(0.573127 -0.0205263 0)
(0.586642 -0.0201845 0)
(0.599961 -0.0199156 0)
(0.613122 -0.0196728 0)
(0.626132 -0.0194458 0)
(0.639008 -0.0192348 0)
(0.651761 -0.0190204 0)
(0.664377 -0.0187774 0)
(0.676825 -0.0184965 0)
(0.689075 -0.0181796 0)
(0.701104 -0.0178269 0)
(0.712885 -0.0174388 0)
(0.724394 -0.0170205 0)
(0.735612 -0.016579 0)
(0.746525 -0.0161196 0)
(0.757124 -0.0156473 0)
(0.767402 -0.0151673 0)
(0.777356 -0.0146835 0)
(0.786985 -0.0141991 0)
(0.796289 -0.0137165 0)
(0.805272 -0.0132379 0)
(0.813936 -0.0127647 0)
(0.822286 -0.0122983 0)
(0.830327 -0.0118394 0)
(0.838064 -0.0113889 0)
(0.845503 -0.0109475 0)
(0.852651 -0.0105155 0)
(0.859514 -0.0100936 0)
(0.866098 -0.00968208 0)
(0.872412 -0.00928134 0)
(0.878462 -0.00889169 0)
(0.884256 -0.00851337 0)
(0.889801 -0.00814658 0)
(0.895105 -0.00779141 0)
(0.900177 -0.00744794 0)
(0.905023 -0.00711615 0)
(0.909652 -0.006796 0)
(0.914072 -0.00648738 0)
(0.91829 -0.00619018 0)
(0.922313 -0.00590421 0)
(0.92615 -0.00562928 0)
(0.929807 -0.00536518 0)
(0.933292 -0.00511167 0)
(0.936611 -0.0048685 0)
(0.939772 -0.0046354 0)
(0.94278 -0.00441209 0)
(0.945644 -0.0041983 0)
(0.948368 -0.00399373 0)
(0.950959 -0.0037981 0)
(0.953422 -0.00361112 0)
(0.955764 -0.00343252 0)
(0.95799 -0.00326201 0)
(0.960104 -0.00309931 0)
(0.962114 -0.00294416 0)
(0.964022 -0.00279629 0)
(0.965834 -0.00265544 0)
(0.967555 -0.00252134 0)
(0.969188 -0.00239373 0)
(0.970739 -0.00227237 0)
(0.972211 -0.002157 0)
(0.973608 -0.00204735 0)
(0.974935 -0.00194319 0)
(0.976193 -0.00184427 0)
(0.977388 -0.00175035 0)
(0.978521 -0.00166117 0)
(0.979597 -0.00157652 0)
(0.980618 -0.00149616 0)
(0.981588 -0.00141988 0)
(0.982507 -0.00134745 0)
(0.98338 -0.00127867 0)
(0.984208 -0.00121335 0)
(0.984994 -0.00115129 0)
(0.985739 -0.00109233 0)
(0.986447 -0.00103629 0)
(0.987118 -0.000983011 0)
(0.987754 -0.000932357 0)
(0.988358 -0.000884192 0)
(0.98893 -0.000838394 0)
(0.989473 -0.000794851 0)
(0.989988 -0.000753462 0)
(0.990475 -0.000714134 0)
(0.990937 -0.000676781 0)
(0.991375 -0.000641324 0)
(0.99179 -0.000607688 0)
(0.992184 -0.0005758 0)
(0.992556 -0.000545591 0)
(0.992909 -0.000516993 0)
(0.993244 -0.000489937 0)
(0.993561 -0.000464355 0)
(0.993861 -0.000440182 0)
(0.994146 -0.00041735 0)
(0.994416 -0.000395795 0)
(0.994672 -0.000375452 0)
(0.994915 -0.000356259 0)
(0.995146 -0.000338155 0)
(0.995365 -0.000321082 0)
(0.995573 -0.000304983 0)
(0.99577 -0.000289804 0)
(0.995958 -0.000275494 0)
(0.996137 -0.000262003 0)
(0.996306 -0.000249283 0)
(0.996468 -0.000237288 0)
(0.996622 -0.000225975 0)
(0.996769 -0.000215302 0)
(0.996908 -0.000205228 0)
(0.997042 -0.000195714 0)
(0.997169 -0.000186724 -5.74866e-42)
(0.99729 -0.000178222 -5.54659e-42)
(0.997406 -0.000170174 0)
(0.997516 -0.00016255 0)
(0.997622 -0.000155317 0)
(0.997723 -0.00014845 0)
(0.99782 -0.00014192 0)
(0.997912 -0.000135705 0)
(0.998 -0.000129782 0)
(0.998085 -0.00012413 0)
(0.998165 -0.000118731 0)
(0.998243 -0.000113567 0)
(0.998316 -0.000108625 0)
(0.998387 -0.000103891 0)
(0.998455 -9.93519e-05 0)
(0.998519 -9.49977e-05 0)
(0.998581 -9.08188e-05 0)
(0.99864 -8.68065e-05 0)
(0.998697 -8.29533e-05 0)
(0.998751 -7.92524e-05 0)
(0.998802 -7.56975e-05 0)
(0.998851 -7.22831e-05 0)
(0.998898 -6.90041e-05 0)
(0.998943 -6.58559e-05 0)
(0.998986 -6.2834e-05 0)
(0.999027 -5.99343e-05 0)
(0.999066 -5.71531e-05 0)
(0.999103 -5.44866e-05 0)
(0.999138 -5.19314e-05 0)
(0.999172 -4.9484e-05 0)
(0.999204 -4.71411e-05 0)
(0.999235 -4.48994e-05 0)
(0.999264 -4.27557e-05 0)
(0.999292 -4.0707e-05 0)
(0.999318 -3.87501e-05 0)
(0.999343 -3.6882e-05 0)
(0.999367 -3.50997e-05 0)
(0.99939 -3.34002e-05 0)
(0.999412 -3.17806e-05 0)
(0.999432 -3.0238e-05 0)
(0.999452 -2.87696e-05 0)
(0.999471 -2.73727e-05 0)
(0.999488 -2.60445e-05 0)
(0.999505 -2.47823e-05 0)
(0.999521 -2.35837e-05 0)
(0.999537 -2.2446e-05 0)
(0.999551 -2.13668e-05 0)
(0.999565 -2.03437e-05 0)
(0.999578 -1.93743e-05 0)
(0.999591 -1.84563e-05 0)
(0.999603 -1.75876e-05 0)
(0.999614 -1.6766e-05 0)
(0.999625 -1.59893e-05 0)
(0.999635 -1.52556e-05 0)
(0.999645 -1.45629e-05 0)
(0.999655 -1.39093e-05 0)
(0.999664 -1.32929e-05 0)
(0.999672 -1.27119e-05 0)
(0.999681 -1.21646e-05 0)
(0.999689 -1.16494e-05 0)
(0.999696 -1.11646e-05 0)
(0.999703 -1.07087e-05 0)
(0.99971 -1.02801e-05 0)
(0.999717 -9.87741e-06 0)
(0.999724 -9.49922e-06 0)
(0.99973 -9.14417e-06 0)
(0.999736 -8.81097e-06 0)
(0.999742 -8.49836e-06 0)
(0.999747 -8.20514e-06 0)
(0.999752 -7.93015e-06 0)
(0.999758 -7.67227e-06 0)
(0.999763 -7.43044e-06 0)
(0.999768 -7.20361e-06 0)
(0.999772 -6.99081e-06 0)
(0.999777 -6.79107e-06 0)
(0.999781 -6.60347e-06 0)
(0.999786 -6.42714e-06 0)
(0.99979 -6.26123e-06 0)
(0.999794 -6.10492e-06 0)
(0.999798 -5.95742e-06 0)
(0.999802 -5.81797e-06 0)
(0.999806 -5.68586e-06 0)
(0.999809 -5.56037e-06 0)
(0.999813 -5.44085e-06 0)
(0.999817 -5.32664e-06 0)
(0.99982 -5.21712e-06 0)
(0.999824 -5.11172e-06 0)
(0.999827 -5.00986e-06 0)
(0.99983 -4.91102e-06 0)
(0.999834 -4.81468e-06 0)
(0.999837 -4.72039e-06 0)
(0.99984 -4.62769e-06 0)
(0.999843 -4.53618e-06 0)
(0.999846 -4.44549e-06 0)
(0.999849 -4.35528e-06 0)
(0.999852 -4.26526e-06 0)
(0.999855 -4.17517e-06 0)
(0.999857 -4.08481e-06 0)
(0.99986 -3.994e-06 0)
(0.999863 -3.90263e-06 0)
(0.999865 -3.81064e-06 0)
(0.999868 -3.71799e-06 0)
(0.99987 -3.62473e-06 0)
(0.999873 -3.53093e-06 0)
(0.999875 -3.43671e-06 0)
(0.999877 -3.34227e-06 0)
(0.999879 -3.2478e-06 0)
(0.999881 -3.15355e-06 0)
(0.999884 -3.05979e-06 0)
(0.999886 -2.96681e-06 0)
(0.999887 -2.8749e-06 0)
(0.999889 -2.78433e-06 0)
(0.999891 -2.69537e-06 0)
(0.999893 -2.60827e-06 0)
(0.999895 -2.52321e-06 0)
(0.999896 -2.44037e-06 0)
(0.999898 -2.35988e-06 0)
(0.999899 -2.28182e-06 0)
(0.999901 -2.20627e-06 0)
(0.999902 -2.13328e-06 0)
(0.999904 -2.06291e-06 0)
(0.999905 -1.99525e-06 0)
(0.999906 -1.9304e-06 0)
(0.999908 -1.86853e-06 0)
(0.999909 -1.80986e-06 0)
(0.99991 -1.75465e-06 0)
(0.999911 -1.70322e-06 0)
(0.999912 -1.65589e-06 0)
(0.999913 -1.61299e-06 0)
(0.999915 -1.57477e-06 0)
(0.999916 -1.54137e-06 0)
(0.999917 -1.51278e-06 0)
(0.999918 -1.48876e-06 0)
(0.999919 -1.46885e-06 0)
(0.99992 -1.45235e-06 0)
(0.99992 -1.43831e-06 0)
(0.999921 -1.42564e-06 0)
(0.999922 -1.41315e-06 0)
(0.999923 -1.39966e-06 0)
(0.999924 -1.38417e-06 0)
(0.999925 -1.36592e-06 0)
(0.999926 -1.34452e-06 0)
(0.999927 -1.32005e-06 0)
(0.999928 -1.29299e-06 0)
(0.999929 -1.26429e-06 0)
(0.99993 -1.23522e-06 0)
(0.99993 -1.20728e-06 0)
(0.999931 -1.18201e-06 0)
(0.999932 -1.1609e-06 0)
(0.999933 -1.14518e-06 0)
(0.999933 -1.13578e-06 0)
(0.999934 -1.13318e-06 0)
(0.999935 -1.13747e-06 0)
(0.999936 -1.14829e-06 0)
(0.999936 -1.16493e-06 0)
(0.999937 -1.1864e-06 0)
(0.999938 -1.2115e-06 0)
(0.999939 -1.23893e-06 0)
(0.99994 -1.26737e-06 0)
(0.999941 -1.29557e-06 0)
(0.999941 -1.32239e-06 0)
(0.999942 -1.34685e-06 0)
(0.999943 -1.36815e-06 0)
(0.999944 -1.38571e-06 0)
(0.999945 -1.3991e-06 0)
(0.999946 -1.40809e-06 0)
(0.999947 -1.41261e-06 0)
(0.999948 -1.41273e-06 0)
(0.999949 -1.40859e-06 0)
(0.99995 -1.40047e-06 0)
(0.999951 -1.38867e-06 0)
(0.999952 -1.37354e-06 0)
(0.999953 -1.35548e-06 0)
(0.999953 -1.33486e-06 0)
(0.999954 -1.31206e-06 0)
(0.999955 -1.28745e-06 0)
(0.999956 -1.26138e-06 0)
(0.999957 -1.23418e-06 0)
(0.999958 -1.20614e-06 0)
(0.999958 -1.17751e-06 0)
(0.999959 -1.14855e-06 0)
(0.99996 -1.11946e-06 0)
(0.999961 -1.09041e-06 0)
(0.999961 -1.06157e-06 0)
(0.999962 -1.03306e-06 0)
(0.999963 -1.00499e-06 0)
(0.999964 -9.77451e-07 0)
(0.999964 -9.50516e-07 0)
(0.999965 -9.24239e-07 0)
(0.999965 -8.98663e-07 0)
(0.999966 -8.73818e-07 0)
(0.999967 -8.49725e-07 0)
(0.999967 -8.26395e-07 0)
(0.999968 -8.03833e-07 0)
(0.999968 -7.82037e-07 0)
(0.999969 -7.61e-07 0)
(0.999969 -7.40711e-07 0)
(0.99997 -7.21156e-07 0)
(0.99997 -7.02318e-07 0)
(0.999971 -6.84177e-07 0)
(0.999971 -6.66713e-07 0)
(0.999972 -6.49904e-07 0)
(0.999972 -6.33727e-07 0)
(0.999972 -6.18159e-07 0)
(0.999973 -6.03177e-07 0)
(0.999973 -5.88757e-07 0)
(0.999974 -5.74877e-07 0)
(0.999974 -5.61514e-07 0)
(0.999974 -5.48646e-07 0)
(0.999975 -5.3625e-07 0)
(0.999975 -5.24306e-07 0)
(0.999975 -5.12793e-07 0)
(0.999976 -5.01692e-07 0)
(0.999976 -4.90983e-07 0)
(0.999976 -4.80649e-07 0)
(0.999977 -4.70671e-07 0)
(0.999977 -4.61032e-07 0)
(0.999977 -4.51717e-07 0)
(0.999978 -4.4271e-07 0)
(0.999978 -4.33997e-07 0)
(0.999978 -4.25563e-07 0)
(0.999978 -4.17395e-07 0)
(0.999979 -4.09481e-07 0)
(0.999979 -4.01807e-07 0)
(0.999979 -3.94364e-07 0)
(0.999979 -3.87139e-07 0)
(0.99998 -3.80123e-07 0)
(0.99998 -3.73306e-07 0)
(0.99998 -3.66678e-07 0)
(0.99998 -3.60231e-07 0)
(0.999981 -3.53955e-07 0)
(0.999981 -3.47844e-07 0)
(0.999981 -3.41889e-07 0)
(0.999981 -3.36084e-07 0)
(0.999982 -3.30421e-07 0)
(0.999982 -3.24895e-07 0)
(0.999982 -3.19499e-07 0)
(0.999982 -3.14227e-07 0)
(0.999982 -3.09074e-07 0)
(0.999983 -3.04035e-07 0)
(0.999983 -2.99105e-07 0)
(0.999983 -2.94279e-07 0)
(0.999983 -2.89552e-07 0)
(0.999983 -2.84921e-07 0)
(0.999984 -2.80382e-07 0)
(0.999984 -2.75931e-07 0)
(0.999984 -2.71565e-07 0)
(0.999984 -2.67279e-07 0)
(0.999984 -2.63071e-07 0)
(0.999985 -2.58938e-07 0)
(0.999985 -2.54877e-07 0)
(0.999985 -2.50885e-07 0)
(0.999985 -2.4696e-07 0)
(0.999985 -2.43098e-07 0)
(0.999985 -2.39299e-07 0)
(0.999986 -2.35559e-07 0)
(0.999986 -2.31877e-07 0)
(0.999986 -2.2825e-07 0)
(0.999986 -2.24676e-07 0)
(0.999986 -2.21155e-07 0)
(0.999986 -2.17683e-07 0)
(0.999986 -2.1426e-07 0)
(0.999987 -2.10884e-07 0)
(0.999987 -2.07553e-07 0)
(0.999987 -2.04266e-07 0)
(0.999987 -2.01022e-07 0)
(0.999987 -1.97819e-07 0)
(0.999987 -1.94656e-07 0)
(0.999987 -1.91532e-07 0)
(0.999988 -1.88445e-07 0)
(0.999988 -1.85396e-07 0)
(0.999988 -1.82382e-07 0)
(0.999988 -1.79402e-07 0)
(0.999988 -1.76456e-07 0)
(0.999988 -1.73543e-07 0)
(0.999988 -1.70662e-07 0)
(0.999988 -1.67812e-07 0)
(0.999988 -1.64992e-07 0)
(0.999989 -1.62202e-07 0)
(0.999989 -1.59441e-07 0)
(0.999989 -1.56707e-07 0)
(0.999989 -1.54001e-07 0)
(0.999989 -1.51322e-07 0)
(0.999989 -1.48668e-07 0)
(0.999989 -1.4604e-07 0)
(0.999989 -1.43437e-07 0)
(0.999989 -1.40858e-07 0)
(0.999989 -1.38303e-07 0)
(0.99999 -1.3577e-07 0)
(0.99999 -1.33261e-07 0)
(0.99999 -1.30773e-07 0)
(0.99999 -1.28307e-07 0)
(0.99999 -1.25862e-07 0)
(0.99999 -1.23438e-07 0)
(0.99999 -1.21034e-07 0)
(0.99999 -1.1865e-07 0)
(0.99999 -1.16281e-07 0)
(0.99999 -1.13953e-07 0)
(0.99999 -1.11549e-07 0)
(0.99999 -1.09564e-07 0)
(0.999991 -1.0588e-07 0)
(-0.0269828 0.102375 0)
(-0.0285425 0.0083874 0)
(-0.00602045 -0.0572821 0)
(-0.0968784 -0.0494381 0)
(0.0604992 -0.0856559 0)
(0.0691429 -0.367506 0)
(0.165842 -0.307718 0)
(0.263749 -0.0299231 0)
(0.248168 0.0862362 0)
(0.209268 0.0801433 0)
(0.193385 0.0403908 0)
(0.189586 0.0122449 0)
(0.1899 0.00147101 0)
(0.193454 -0.0012715 0)
(0.198889 -0.00331964 0)
(0.204353 -0.00621676 0)
(0.209404 -0.00938517 0)
(0.214472 -0.0123973 0)
(0.21994 -0.0151411 0)
(0.22604 -0.0176704 0)
(0.233017 -0.0201081 0)
(0.241161 -0.0225658 0)
(0.250716 -0.0250817 0)
(0.261759 -0.0276001 0)
(0.274168 -0.0300129 0)
(0.28769 -0.0322281 0)
(0.302049 -0.0342081 0)
(0.317021 -0.035962 0)
(0.332447 -0.0375113 0)
(0.348226 -0.0388667 0)
(0.364291 -0.0400244 0)
(0.380594 -0.0409677 0)
(0.397097 -0.0416731 0)
(0.413777 -0.0421243 0)
(0.43063 -0.0423075 0)
(0.44764 -0.0421702 0)
(0.464676 -0.0415844 0)
(0.481428 -0.0404739 0)
(0.497648 -0.0391705 0)
(0.513422 -0.0380518 0)
(0.528915 -0.0370604 0)
(0.544069 -0.0360406 0)
(0.558717 -0.0350065 0)
(0.572816 -0.0341407 0)
(0.586525 -0.033547 0)
(0.60001 -0.033115 0)
(0.6133 -0.0327239 0)
(0.626382 -0.0323601 0)
(0.639294 -0.0320376 0)
(0.652084 -0.0317125 0)
(0.664744 -0.0313254 0)
(0.677231 -0.0308628 0)
(0.689516 -0.0303377 0)
(0.70158 -0.0297511 0)
(0.713396 -0.0291008 0)
(0.724934 -0.0283981 0)
(0.736177 -0.0276567 0)
(0.74711 -0.0268851 0)
(0.757724 -0.0260924 0)
(0.768011 -0.0252878 0)
(0.77797 -0.0244776 0)
(0.7876 -0.023667 0)
(0.796902 -0.0228603 0)
(0.80588 -0.0220607 0)
(0.814537 -0.0212706 0)
(0.822879 -0.0204919 0)
(0.83091 -0.0197262 0)
(0.838637 -0.0189746 0)
(0.846065 -0.0182381 0)
(0.853201 -0.0175175 0)
(0.860051 -0.0168137 0)
(0.866622 -0.0161273 0)
(0.872922 -0.015459 0)
(0.878958 -0.0148092 0)
(0.884737 -0.0141784 0)
(0.890268 -0.0135668 0)
(0.895557 -0.0129747 0)
(0.900614 -0.0124022 0)
(0.905445 -0.0118492 0)
(0.91006 -0.0113156 0)
(0.914465 -0.0108013 0)
(0.918668 -0.0103061 0)
(0.922677 -0.00982957 0)
(0.9265 -0.00937152 0)
(0.930143 -0.00893154 0)
(0.933614 -0.00850923 0)
(0.936921 -0.00810417 0)
(0.940069 -0.0077159 0)
(0.943065 -0.00734396 0)
(0.945916 -0.00698789 0)
(0.948629 -0.0066472 0)
(0.951208 -0.00632141 0)
(0.953661 -0.00601004 0)
(0.955992 -0.00571262 0)
(0.958207 -0.00542869 0)
(0.960312 -0.00515778 0)
(0.962312 -0.00489945 0)
(0.964211 -0.00465325 0)
(0.966014 -0.00441874 0)
(0.967726 -0.00419549 0)
(0.969351 -0.00398307 0)
(0.970894 -0.00378105 0)
(0.972359 -0.003589 0)
(0.973749 -0.00340651 0)
(0.975068 -0.00323316 0)
(0.97632 -0.00306853 0)
(0.977508 -0.00291223 0)
(0.978636 -0.00276385 0)
(0.979706 -0.00262299 0)
(0.980722 -0.00248929 0)
(0.981685 -0.00236236 0)
(0.9826 -0.00224186 0)
(0.983468 -0.00212743 0)
(0.984292 -0.00201876 0)
(0.985074 -0.00191552 0)
(0.985815 -0.00181742 0)
(0.986519 -0.00172418 0)
(0.987186 -0.00163553 0)
(0.98782 -0.00155125 0)
(0.98842 -0.0014711 0)
(0.98899 -0.00139489 0)
(0.989529 -0.00132243 0)
(0.990041 -0.00125354 0)
(0.990526 -0.00118808 0)
(0.990986 -0.00112591 0)
(0.991421 -0.0010669 0)
(0.991834 -0.00101091 0)
(0.992225 -0.000957841 0)
(0.992595 -0.000907566 0)
(0.992946 -0.000859974 0)
(0.993278 -0.000814952 0)
(0.993594 -0.000772388 0)
(0.993892 -0.00073217 0)
(0.994175 -0.000694187 0)
(0.994444 -0.000658331 0)
(0.994698 -0.000624493 0)
(0.99494 -0.000592569 0)
(0.995169 -0.000562459 0)
(0.995387 -0.000534065 0)
(0.995594 -0.000507292 0)
(0.99579 -0.000482051 0)
(0.995977 -0.000458255 0)
(0.996154 -0.000435822 0)
(0.996323 -0.000414672 0)
(0.996484 -0.000394729 0)
(0.996637 -0.00037592 0)
(0.996782 -0.000358175 0)
(0.996921 -0.000341427 0)
(0.997054 -0.000325612 0)
(0.99718 -0.000310667 0)
(0.997301 -0.000296534 0)
(0.997416 -0.000283157 0)
(0.997526 -0.000270482 0)
(0.997631 -0.000258459 0)
(0.997732 -0.000247042 0)
(0.997828 -0.000236186 0)
(0.99792 -0.000225852 0)
(0.998008 -0.000216002 0)
(0.998092 -0.000206603 0)
(0.998172 -0.000197623 0)
(0.998249 -0.000189034 0)
(0.998323 -0.000180812 0)
(0.998393 -0.000172935 0)
(0.998461 -0.000165382 0)
(0.998525 -0.000158135 0)
(0.998587 -0.00015118 0)
(0.998646 -0.000144501 0)
(0.998702 -0.000138087 0)
(0.998756 -0.000131925 0)
(0.998807 -0.000126007 0)
(0.998856 -0.000120322 0)
(0.998903 -0.000114862 0)
(0.998947 -0.00010962 0)
(0.99899 -0.000104588 0)
(0.999031 -9.97592e-05 0)
(0.99907 -9.51279e-05 0)
(0.999106 -9.06877e-05 0)
(0.999142 -8.64328e-05 0)
(0.999175 -8.23574e-05 0)
(0.999207 -7.84561e-05 0)
(0.999238 -7.47235e-05 0)
(0.999267 -7.11543e-05 0)
(0.999294 -6.77432e-05 0)
(0.999321 -6.44851e-05 0)
(0.999346 -6.13749e-05 0)
(0.99937 -5.84076e-05 0)
(0.999392 -5.55783e-05 0)
(0.999414 -5.28821e-05 0)
(0.999434 -5.03143e-05 0)
(0.999454 -4.787e-05 0)
(0.999472 -4.55448e-05 0)
(0.99949 -4.33341e-05 0)
(0.999507 -4.12334e-05 0)
(0.999523 -3.92385e-05 0)
(0.999538 -3.7345e-05 0)
(0.999553 -3.5549e-05 0)
(0.999566 -3.38464e-05 0)
(0.999579 -3.22333e-05 0)
(0.999592 -3.07058e-05 0)
(0.999604 -2.92604e-05 0)
(0.999615 -2.78933e-05 0)
(0.999626 -2.66011e-05 0)
(0.999636 -2.53805e-05 0)
(0.999646 -2.42281e-05 0)
(0.999656 -2.31407e-05 0)
(0.999665 -2.21154e-05 0)
(0.999673 -2.1149e-05 0)
(0.999681 -2.02388e-05 0)
(0.999689 -1.93819e-05 0)
(0.999697 -1.85756e-05 0)
(0.999704 -1.78174e-05 0)
(0.999711 -1.71047e-05 0)
(0.999718 -1.64351e-05 0)
(0.999724 -1.58063e-05 0)
(0.99973 -1.5216e-05 0)
(0.999736 -1.4662e-05 0)
(0.999742 -1.41424e-05 0)
(0.999747 -1.3655e-05 0)
(0.999753 -1.31979e-05 0)
(0.999758 -1.27693e-05 0)
(0.999763 -1.23674e-05 0)
(0.999768 -1.19904e-05 0)
(0.999773 -1.16368e-05 0)
(0.999777 -1.13049e-05 0)
(0.999782 -1.09933e-05 0)
(0.999786 -1.07003e-05 0)
(0.99979 -1.04247e-05 0)
(0.999794 -1.01651e-05 0)
(0.999798 -9.92006e-06 0)
(0.999802 -9.68846e-06 0)
(0.999806 -9.46904e-06 0)
(0.99981 -9.26065e-06 0)
(0.999813 -9.06216e-06 0)
(0.999817 -8.87249e-06 0)
(0.99982 -8.69063e-06 0)
(0.999824 -8.51557e-06 0)
(0.999827 -8.3464e-06 0)
(0.99983 -8.18222e-06 0)
(0.999834 -8.02219e-06 0)
(0.999837 -7.86552e-06 0)
(0.99984 -7.71147e-06 0)
(0.999843 -7.55937e-06 0)
(0.999846 -7.40858e-06 0)
(0.999849 -7.25856e-06 0)
(0.999852 -7.10881e-06 0)
(0.999855 -6.9589e-06 0)
(0.999857 -6.80848e-06 0)
(0.99986 -6.65726e-06 0)
(0.999863 -6.50506e-06 0)