/*--------------------------------*- C++ -*----------------------------------*\
| =========                 |                                                 |
| \\      /  F ield         | OpenFOAM: The Open Source CFD Toolbox           |
|  \\    /   O peration     | Version:  v2006                                 |
|   \\  /    A nd           | Website:  www.openfoam.com                      |
|    \\/     M anipulation  |                                                 |
\*---------------------------------------------------------------------------*/
FoamFile
{
    version     2.0;
    format      ascii;
    class       volScalarField;
    location    "10.7";
    object      p;
}
// * * * * * * * * * * * * * * * * * * * * * * * * * * * * * * * * * * * * * //

dimensions      [1 -1 -2 0 0 0 0];


internalField   nonuniform List<scalar> 
150000
(
16920.3
16920
16919.3
16918.4
16917.1
16915.6
16913.7
16911.6
16909.1
16906.4
16903.4
16900.1
16896.5
16892.6
16888.5
16884.1
16879.5
16874.6
16869.5
16864.1
16858.5
16852.8
16846.8
16840.6
16834.2
16827.6
16820.8
16813.9
16806.8
16799.5
16792.1
16784.6
16776.9
16769.2
16761.3
16753.3
16745.2
16737
16728.8
16720.4
16712.1
16703.7
16695.2
16686.7
16678.2
16669.7
16661.3
16652.8
16644.3
16635.9
16627.5
16619.2
16610.9
16602.7
16594.6
16586.6
16578.7
16570.9
16563.3
16555.9
16548.6
16541.4
16534.5
16527.7
16521.1
16514.8
16508.7
16502.8
16497.2
16491.8
16486.8
16482
16477.6
16473.4
16469.7
16466.3
16463.3
16460.8
16458.6
16457
16455.7
16455
16454.8
16455.1
16455.9
16457.3
16459.3
16461.9
16465
16468.9
16473.3
16478.5
16484.3
16490.8
16498
16505.9
16514.5
16523.9
16534
16544.9
16556.5
16568.9
16582.1
16596
16610.7
16626.1
16642.3
16659.3
16677
16695.5
16714.7
16734.6
16755.3
16776.7
16798.7
16821.5
16844.9
16869.1
16893.9
16919.4
16945.7
16972.6
17000.1
17028.4
17057.2
17086.7
17116.8
17147.5
17178.8
17210.7
17243.2
17276.2
17309.8
17344
17378.7
17413.9
17449.6
17485.8
17522.6
17559.8
17597.5
17635.6
17674.2
17713.3
17752.8
17792.7
17833
17873.8
17914.9
17956.4
17998.2
18040.4
18083
18125.8
18169
18212.4
18256.1
18300.1
18344.3
18388.8
18433.4
18478.3
18523.3
18568.5
18614
18659.5
18705.3
18751.1
18797
18842.9
18888.7
18934.6
18980.5
19026.3
19072.1
19117.9
19163.7
19209.3
19254.9
19300.3
19345.6
19390.7
19435.6
19480.3
19524.7
19568.9
19612.9
19656.5
19699.9
19742.9
19785.6
19827.9
19869.8
19911.3
19952.4
19993.1
20033.3
20073
20112.3
20151
20189.2
20226.9
20264
20300.6
20336.6
20372
20406.8
20441
20474.6
20507.5
20539.8
20571.4
20602.4
20632.6
20662.2
20691.1
20719.3
20746.8
20773.5
20799.5
20824.8
20849.3
20873.1
20896.2
20918.5
20940
20960.8
20980.7
21000
21018.5
21036.3
21053.6
21070.5
21086.3
21101.1
21115
21127.8
21139.5
21150.5
21160.8
21170.5
21179.7
21188.1
21195.8
21202.6
21208.8
21214.3
21219.3
21223.6
21227.3
21230.4
21232.8
21234.5
21235.6
21236.1
21236.1
21235.5
21234.4
21232.7
21230.4
21227.6
21224.1
21219.9
21215.2
21209.9
21204.1
21197.9
21191.1
21184
21176.5
21168.7
21160.6
21152.3
21143.8
21135
21126.1
21116.9
21107.6
21098
21088.3
21078.4
21068.5
21058.4
21048.4
21038.3
21028.1
21018
21007.9
20997.8
20987.8
20977.9
20968.1
20958.4
20948.8
20939.5
20930.3
20921.3
20912.5
20904
20895.7
20887.7
20880
20872.6
20865.5
20858.7
20852.3
20846.2
20840.5
20835.2
20830.4
20825.9
20821.9
20818.3
20815.2
20812.6
20810.4
20808.8
20807.7
20807.1
20807
20807.5
20808.6
20810.3
20812.5
20815.4
20818.9
20823
20827.7
20833.2
20839.2
20845.9
20853.4
20861.4
20870.2
20879.7
20889.9
20900.8
20912.5
20924.8
20937.9
20951.8
20966.4
20981.8
20997.9
21014.8
21032.5
21050.9
21070.2
21090.1
21110.9
21132.5
21154.8
21177.9
21201.8
21226.4
21251.9
21278.1
21305
21332.8
21361.3
21390.5
21420.5
21451.3
21482.7
21515
21547.9
21581.5
21615.8
21650.8
21686.5
21722.9
21759.8
21797.5
21835.7
21874.5
21914
21954
21994.5
22035.6
22077.2
22119.3
22161.8
22204.8
22248.3
22292.2
22336.4
22381.1
22426.1
22471.4
22517.1
22563
22609.2
22655.7
22702.4
22749.2
22796.3
22843.5
22890.9
22938.4
22986
23033.7
23081.4
23129.3
23177.1
23225
23272.9
23320.8
23368.7
23416.6
23464.4
23512.2
23559.9
23607.5
23655.1
23702.5
23749.8
23797.1
23844.1
23891.1
23937.8
23984.5
24030.9
24077.2
24123.4
24169.3
24215.2
24260.8
24306.4
24351.8
24397
24442
24486.8
24531.5
24575.9
24620.2
24664.2
24708.1
24751.7
24795.1
24838.4
24881.4
24924.2
24966.7
25009
25051
25092.8
25134.4
25175.6
25216.5
25257.2
25297.5
25337.5
25377.1
25416.5
25455.4
25494
25532.2
25569.9
25607.3
25644.1
25680.5
25716.4
25751.8
25786.6
25821
25854.7
25887.8
25920.3
25952.1
25983.2
26013.6
26043.2
26072.1
26100.2
26127.4
26153.9
26179.4
26204.1
26227.9
26250.8
26272.7
26293.6
26313.6
26332.6
26350.5
26367.4
26383.3
26398.2
26411.9
26424.5
26436
26446.5
26455.7
26463.9
26470.9
26476.8
26481.5
26485
26487.3
26488.5
16593.6
16593.2
16592.5
16591.6
16590.4
16588.8
16587
16584.8
16582.4
16579.6
16576.6
16573.3
16569.7
16565.8
16561.7
16557.3
16552.6
16547.7
16542.6
16537.3
16531.7
16525.9
16519.9
16513.7
16507.3
16500.7
16493.9
16487
16479.9
16472.6
16465.2
16457.7
16450
16442.2
16434.3
16426.3
16418.2
16410
16401.8
16393.5
16385.1
16376.7
16368.2
16359.7
16351.2
16342.7
16334.2
16325.7
16317.3
16308.8
16300.4
16292.1
16283.8
16275.6
16267.5
16259.5
16251.6
16243.8
16236.2
16228.7
16221.4
16214.2
16207.3
16200.5
16193.9
16187.6
16181.4
16175.6
16169.9
16164.6
16159.5
16154.7
16150.3
16146.2
16142.4
16139
16136
16133.4
16131.3
16129.6
16128.4
16127.6
16127.4
16127.6
16128.5
16129.9
16131.8
16134.4
16137.6
16141.4
16145.8
16151
16156.8
16163.3
16170.5
16178.4
16187
16196.4
16206.5
16217.4
16229
16241.4
16254.5
16268.5
16283.1
16298.6
16314.8
16331.7
16349.5
16367.9
16387.1
16407.1
16427.7
16449.1
16471.2
16494
16517.5
16541.6
16566.5
16592
16618.3
16645.2
16672.8
16701
16729.9
16759.4
16789.5
16820.2
16851.5
16883.4
16915.8
16948.9
16982.5
17016.6
17051.3
17086.5
17122.3
17158.5
17195.2
17232.5
17270.2
17308.3
17346.9
17386
17425.5
17465.4
17505.8
17546.5
17587.6
17629.1
17671
17713.1
17755.7
17798.6
17841.7
17885.1
17928.8
17972.7
18016.9
18061.3
18106.1
18151.1
18196.3
18241.6
18287.1
18332.7
18378.4
18424.2
18470
18515.9
18561.8
18607.6
18653.5
18699.3
18745.1
18790.9
18836.7
18882.3
18927.9
18973.4
19018.7
19063.8
19108.7
19153.4
19197.9
19242.1
19286
19329.7
19373.1
19416.1
19458.8
19501.1
19543
19584.5
19625.6
19666.3
19706.5
19746.3
19785.5
19824.3
19862.5
19900.2
19937.3
19973.9
20009.9
20045.3
20080.2
20114.3
20147.9
20180.9
20213.1
20244.8
20275.7
20306
20335.6
20364.5
20392.7
20420.2
20446.9
20472.9
20498.2
20522.7
20546.5
20569.6
20591.9
20613.4
20634.2
20654.1
20673.4
20691.8
20709.6
20726.6
20742.8
20758.7
20773.9
20788.2
20801.6
20813.9
20825.2
20835.5
20844.9
20853.5
20861.5
20868.9
20875.8
20882
20887.7
20892.7
20897.1
20900.8
20903.9
20906.3
20908
20909.1
20909.6
20909.5
20908.9
20907.8
20906.1
20903.7
20900.7
20897
20892.8
20888
20882.8
20877.1
20870.9
20864.4
20857.4
20850
20842.3
20834.2
20825.9
20817.3
20808.5
20799.5
20790.2
20780.8
20771.2
20761.4
20751.5
20741.6
20731.5
20721.4
20711.3
20701.1
20691
20680.8
20670.8
20660.7
20650.8
20641
20631.3
20621.7
20612.4
20603.2
20594.2
20585.4
20576.9
20568.6
20560.6
20552.9
20545.4
20538.3
20531.5
20525.1
20519
20513.3
20508
20503.1
20498.6
20494.6
20491
20487.9
20485.2
20483.1
20481.4
20480.3
20479.6
20479.6
20480.1
20481.1
20482.8
20485
20487.9
20491.4
20495.5
20500.2
20505.6
20511.7
20518.4
20525.8
20533.9
20542.7
20552.1
20562.3
20573.3
20584.9
20597.3
20610.4
20624.2
20638.9
20654.2
20670.4
20687.2
20704.9
20723.3
20742.6
20762.5
20783.3
20804.8
20827.2
20850.3
20874.2
20898.8
20924.2
20950.4
20977.4
21005.2
21033.7
21062.9
21092.9
21123.7
21155.2
21187.4
21220.3
21253.9
21288.2
21323.3
21359
21395.3
21432.3
21469.9
21508.2
21547
21586.5
21626.5
21667
21708.1
21749.7
21791.8
21834.4
21877.4
21920.9
21964.8
22009.1
22053.8
22098.8
22144.1
22189.8
22235.7
22282
22328.4
22375.1
22422
22469.1
22516.3
22563.7
22611.2
22658.8
22706.5
22754.3
22802.1
22850
22897.9
22945.8
22993.7
23041.6
23089.5
23137.3
23185.1
23232.8
23280.5
23328
23375.4
23422.8
23470
23517.1
23564
23610.8
23657.5
23703.9
23750.2
23796.4
23842.3
23888.2
23933.9
23979.4
24024.8
24070
24115
24159.9
24204.5
24249
24293.2
24337.3
24381.1
24424.8
24468.2
24511.5
24554.5
24597.3
24639.8
24682.1
24724.2
24766
24807.5
24848.7
24889.7
24930.3
24970.6
25010.6
25050.2
25089.5
25128.4
25167
25205.2
25243
25280.3
25317.3
25353.8
25389.8
25425.2
25460.2
25494.5
25528.2
25561.4
25593.8
25625.6
25656.7
25687.1
25716.8
25745.7
25773.7
25801
25827.5
25853
25877.7
25901.5
25924.4
25946.3
25967.2
25987.2
26006.2
26024.1
26041
26057
26071.8
26085.5
26098.1
26109.7
26120.1
26129.4
26137.5
26144.5
26150.4
26155.1
26158.6
26161
26162.1
16267
16266.6
16266
16265
16263.8
16262.2
16260.4
16258.2
16255.7
16253
16249.9
16246.6
16243
16239.1
16235
16230.6
16226
16221.1
16215.9
16210.6
16205
16199.2
16193.2
16186.9
16180.5
16173.9
16167.2
16160.2
16153.1
16145.8
16138.4
16130.9
16123.2
16115.4
16107.5
16099.4
16091.3
16083.1
16074.9
16066.5
16058.1
16049.7
16041.2
16032.7
16024.2
16015.7
16007.2
15998.7
15990.2
15981.8
15973.3
15965
15956.7
15948.5
15940.3
15932.3
15924.4
15916.6
15909
15901.5
15894.1
15887
15880
15873.2
15866.6
15860.2
15854.1
15848.1
15842.5
15837.1
15832
15827.2
15822.7
15818.6
15814.8
15811.4
15808.4
15805.8
15803.6
15801.9
15800.6
15799.8
15799.6
15799.8
15800.6
15802
15803.9
15806.5
15809.6
15813.4
15817.9
15823
15828.7
15835.2
15842.4
15850.3
15858.9
15868.3
15878.4
15889.3
15900.9
15913.3
15926.4
15940.4
15955
15970.5
15986.7
16003.7
16021.4
16039.8
16059
16079
16099.7
16121.1
16143.2
16166
16189.5
16213.7
16238.6
16264.1
16290.4
16317.3
16344.9
16373.1
16402
16431.5
16461.6
16492.3
16523.7
16555.6
16588.1
16621.1
16654.7
16688.9
16723.6
16758.8
16794.5
16830.8
16867.5
16904.8
16942.5
16980.7
17019.3
17058.4
17097.9
17137.8
17178.2
17219
17260.1
17301.6
17343.5
17385.8
17428.3
17471.2
17514.4
17557.8
17601.6
17645.6
17689.8
17734.3
17779
17823.9
17869
17914.2
17959.7
18005.3
18051
18096.9
18142.8
18188.7
18234.6
18280.5
18326.4
18372.3
18418.2
18464
18509.8
18555.5
18601.1
18646.5
18691.8
18737
18781.9
18826.6
18871.1
18915.4
18959.4
19003.1
19046.4
19089.5
19132.2
19174.5
19216.5
19258
19299.1
19339.8
19380.1
19419.8
19459.1
19497.9
19536.1
19573.8
19611
19647.6
19683.6
19719
19753.9
19788.1
19821.7
19854.6
19886.9
19918.5
19949.5
19979.8
20009.4
20038.3
20066.5
20094
20120.7
20146.8
20172.1
20196.6
20220.4
20243.5
20265.8
20287.3
20308.1
20328.2
20347.5
20366.1
20384
20401.2
20417.7
20433.4
20448.2
20462.2
20475.2
20487.3
20498.5
20509
20518.6
20527.5
20535.7
20543.2
20550
20556.2
20561.8
20566.8
20571.2
20574.8
20577.8
20580
20581.6
20582.6
20583
20583
20582.4
20581.3
20579.7
20577.4
20574.4
20570.9
20566.7
20562
20556.7
20550.9
20544.7
20538
20531
20523.5
20515.7
20507.6
20499.2
20490.6
20481.8
20472.7
20463.4
20454
20444.3
20434.6
20424.7
20414.7
20404.6
20394.4
20384.3
20374.1
20363.9
20353.8
20343.7
20333.6
20323.7
20313.8
20304.1
20294.5
20285.1
20275.9
20266.9
20258.1
20249.5
20241.2
20233.2
20225.4
20217.9
20210.8
20204
20197.5
20191.4
20185.7
20180.4
20175.5
20171
20166.9
20163.3
20160.2
20157.5
20155.3
20153.7
20152.5
20151.9
20151.8
20152.3
20153.3
20155
20157.2
20160
20163.5
20167.6
20172.3
20177.7
20183.8
20190.5
20198
20205.9
20214.7
20224.1
20234.3
20245.2
20256.8
20269.2
20282.3
20296.2
20310.8
20326.1
20342.3
20359.1
20376.8
20395.2
20414.4
20434.4
20455.2
20476.7
20499
20522.1
20546
20570.7
20596.1
20622.3
20649.3
20677
20705.5
20734.8
20764.8
20795.5
20827
20859.2
20892.2
20925.8
20960.2
20995.2
21030.9
21067.2
21104.3
21141.9
21180.2
21219
21258.5
21298.5
21339.1
21380.2
21421.8
21464
21506.6
21549.6
21593.1
21637
21681.3
21726
21771.1
21816.5
21862.1
21908.1
21954.4
22000.8
22047.6
22094.5
22141.6
22188.8
22236.2
22283.7
22331.4
22379.1
22426.9
22474.7
22522.6
22570.5
22618.5
22666.4
22714.3
22762.2
22810
22857.8
22905.5
22953.2
23000.7
23048.1
23095.5
23142.7
23189.8
23236.7
23283.6
23330.2
23376.7
23423.1
23469.3
23515.3
23561.2
23606.9
23652.4
23697.8
23743.1
23788.1
23833
23877.6
23922.1
23966.4
24010.5
24054.4
24098.1
24141.5
24184.8
24227.8
24270.6
24313.2
24355.6
24397.6
24439.5
24481
24522.3
24563.3
24604
24644.4
24684.5
24724.2
24763.6
24802.6
24841.2
24879.5
24917.3
24954.7
24991.7
25028.1
25063.9
25099.3
25134.2
25168.6
25202.3
25235.5
25267.9
25299.8
25330.9
25361.3
25390.9
25419.8
25447.9
25475.2
25501.7
25527.3
25552
25575.8
25598.6
25620.6
25641.5
25661.5
25680.5
25698.4
25715.3
25731.4
25746.2
25759.9
25772.5
25784.1
25794.5
25803.8
25812
25819
25824.8
25829.5
25833.1
25835.4
25836.6
15940.6
15940.2
15939.6
15938.6
15937.4
15935.8
15933.9
15931.8
15929.3
15926.5
15923.5
15920.1
15916.5
15912.7
15908.5
15904.1
15899.4
15894.5
15889.4
15884
15878.4
15872.6
15866.6
15860.3
15853.9
15847.3
15840.5
15833.5
15826.4
15819.1
15811.7
15804.1
15796.4
15788.6
15780.7
15772.6
15764.5
15756.3
15748
15739.7
15731.2
15722.8
15714.3
15705.8
15697.2
15688.7
15680.2
15671.6
15663.1
15654.7
15646.2
15637.8
15629.5
15621.3
15613.1
15605.1
15597.2
15589.3
15581.7
15574.1
15566.8
15559.5
15552.5
15545.7
15539.1
15532.6
15526.5
15520.5
15514.8
15509.4
15504.3
15499.4
15494.9
15490.7
15486.9
15483.5
15480.4
15477.8
15475.6
15473.8
15472.5
15471.7
15471.4
15471.6
15472.4
15473.7
15475.6
15478.1
15481.2
15485
15489.4
15494.5
15500.2
15506.7
15513.8
15521.7
15530.3
15539.7
15549.8
15560.7
15572.3
15584.7
15597.8
15611.7
15626.4
15641.8
15658.1
15675
15692.8
15711.2
15730.5
15750.4
15771.1
15792.5
15814.6
15837.5
15861
15885.2
15910.2
15935.8
15962
15989
16016.6
16044.8
16073.7
16103.2
16133.4
16164.1
16195.5
16227.4
16259.9
16293
16326.6
16360.8
16395.5
16430.8
16466.5
16502.7
16539.5
16576.8
16614.5
16652.7
16691.4
16730.5
16770
16810
16850.4
16891.2
16932.3
16973.9
17015.8
17058
17100.6
17143.4
17186.6
17230.1
17273.9
17318
17362.3
17406.8
17451.6
17496.7
17541.9
17587.2
17632.7
17678.3
17724
17769.8
17815.7
17861.6
17907.5
17953.4
17999.4
18045.3
18091.3
18137.2
18183
18228.7
18274.3
18319.8
18365.2
18410.3
18455.3
18500.1
18544.6
18588.9
18632.9
18676.6
18720
18763.1
18805.8
18848.2
18890.2
18931.8
18972.9
19013.6
19053.9
19093.7
19133
19171.8
19210.1
19247.8
19285
19321.6
19357.7
19393.1
19428
19462.2
19495.8
19528.8
19561.1
19592.7
19623.7
19654
19683.6
19712.6
19740.8
19768.3
19795
19821.1
19846.4
19871
19894.8
19917.8
19940.2
19961.7
19982.5
20002.5
20021.8
20040.3
20058.1
20075.2
20091.5
20107.1
20122
20136
20149.2
20161.5
20172.9
20183.5
20193.2
20202.2
20210.4
20218
20224.9
20231.1
20236.7
20241.7
20246
20249.6
20252.5
20254.8
20256.4
20257.4
20257.8
20257.6
20256.9
20255.6
20253.8
20251.4
20248.3
20244.6
20240.3
20235.5
20230.2
20224.4
20218.1
20211.5
20204.5
20197.1
20189.3
20181.2
20172.9
20164.2
20155.3
20146.2
20136.9
20127.3
20117.7
20107.8
20097.9
20087.8
20077.7
20067.5
20057.3
20047.1
20036.9
20026.7
20016.5
20006.4
19996.4
19986.5
19976.8
19967.2
19957.7
19948.5
19939.4
19930.6
19922
19913.6
19905.6
19897.8
19890.3
19883.1
19876.2
19869.8
19863.6
19857.9
19852.5
19847.6
19843.1
19839
19835.3
19832.2
19829.5
19827.3
19825.6
19824.4
19823.7
19823.6
19824.1
19825.1
19826.7
19828.9
19831.7
19835.2
19839.2
19844
19849.3
19855.3
19862
19869.2
19877.4
19886.2
19895.6
19905.8
19916.7
19928.3
19940.7
19953.8
19967.6
19982.2
19997.5
20013.6
20030.5
20048.2
20066.6
20085.8
20105.8
20126.5
20148.1
20170.4
20193.5
20217.3
20242
20267.4
20293.6
20320.6
20348.4
20376.9
20406.1
20436.2
20466.9
20498.4
20530.6
20563.6
20597.2
20631.6
20666.6
20702.4
20738.7
20775.8
20813.4
20851.7
20890.6
20930.1
20970.1
21010.8
21051.9
21093.6
21135.7
21178.3
21221.4
21265
21308.9
21353.3
21398
21443.1
21488.5
21534.2
21580.2
21626.5
21673
21719.7
21766.7
21813.8
21861.1
21908.5
21956.1
22003.8
22051.5
22099.3
22147.2
22195.1
22243.1
22291
22339
22386.9
22434.8
22482.6
22530.4
22578.2
22625.8
22673.4
22720.9
22768.2
22815.4
22862.5
22909.5
22956.4
23003
23049.6
23095.9
23142.2
23188.2
23234.1
23279.9
23325.5
23370.9
23416.1
23461.2
23506.1
23550.8
23595.3
23639.6
23683.7
23727.7
23771.4
23814.9
23858.2
23901.2
23944.1
23986.7
24029.1
24071.2
24113
24154.6
24196
24237
24277.7
24318.2
24358.3
24398
24437.4
24476.4
24515.1
24553.4
24591.2
24628.6
24665.5
24702
24738.1
24773.6
24808.6
24843
24876.8
24909.9
24942.5
24974.3
25005.5
25035.9
25065.6
25094.5
25122.7
25150
25176.5
25202.1
25226.8
25250.7
25273.6
25295.5
25316.5
25336.5
25355.5
25373.5
25390.5
25406.4
25421.3
25435
25447.7
25459.2
25469.7
25479
25487.2
25494.2
25500.1
25504.8
25508.3
25510.7
25511.8
15614.4
15614
15613.4
15612.4
15611.2
15609.6
15607.7
15605.5
15603.1
15600.3
15597.2
15593.9
15590.3
15586.4
15582.2
15577.8
15573.1
15568.2
15563
15557.6
15552
15546.2
15540.1
15533.9
15527.4
15520.8
15514
15507
15499.9
15492.5
15485.1
15477.5
15469.8
15461.9
15454
15445.9
15437.8
15429.5
15421.2
15412.8
15404.4
15395.9
15387.4
15378.8
15370.3
15361.7
15353.1
15344.6
15336
15327.5
15319.1
15310.7
15302.3
15294.1
15285.9
15277.8
15269.8
15262
15254.3
15246.7
15239.3
15232
15225
15218.1
15211.4
15204.9
15198.7
15192.7
15186.9
15181.5
15176.3
15171.4
15166.8
15162.6
15158.8
15155.3
15152.2
15149.5
15147.2
15145.4
15144
15143.2
15142.8
15143
15143.7
15145
15146.8
15149.3
15152.4
15156.1
15160.5
15165.5
15171.2
15177.6
15184.8
15192.6
15201.2
15210.5
15220.6
15231.5
15243.1
15255.5
15268.6
15282.5
15297.2
15312.7
15328.9
15345.9
15363.6
15382.1
15401.3
15421.3
15442
15463.5
15485.6
15508.5
15532.1
15556.3
15581.3
15606.9
15633.2
15660.2
15687.8
15716.1
15745
15774.5
15804.7
15835.5
15866.8
15898.8
15931.3
15964.4
15998
16032.2
16067
16102.2
16138
16174.3
16211.1
16248.4
16286.2
16324.4
16363.1
16402.3
16441.8
16481.8
16522.3
16563.1
16604.3
16645.9
16687.8
16730.1
16772.7
16815.7
16858.9
16902.5
16946.4
16990.4
17034.7
17079.2
17124.1
17169.1
17214.3
17259.6
17305.2
17350.8
17396.6
17442.5
17488.5
17534.4
17580.4
17626.5
17672.5
17718.5
17764.5
17810.4
17856.3
17902.1
17947.7
17993.3
18038.7
18083.9
18128.9
18173.7
18218.3
18262.6
18306.7
18350.4
18393.9
18437
18479.8
18522.2
18564.2
18605.8
18647
18687.8
18728.1
18767.9
18807.2
18846.1
18884.4
18922.1
18959.4
18996
19032.1
19067.6
19102.4
19136.7
19170.3
19203.3
19235.7
19267.3
19298.3
19328.7
19358.3
19387.2
19415.5
19443
19469.8
19495.8
19521.2
19545.8
19569.6
19592.7
19615
19636.6
19657.4
19677.5
19696.9
19715.5
19733.3
19750.4
19766.8
19782.4
19797.2
19811.1
19824.2
19836.4
19847.8
19858.3
19868.1
19877.1
19885.5
19893.1
19900
19906.2
19911.8
19916.7
19921
19924.5
19927.4
19929.7
19931.3
19932.2
19932.6
19932.4
19931.6
19930.3
19928.4
19925.8
19922.7
19919
19914.7
19909.9
19904.6
19898.8
19892.5
19885.8
19878.6
19871.1
19863.3
19855.1
19846.7
19838
19829
19819.8
19810.4
19800.8
19791.1
19781.2
19771.2
19761.1
19750.9
19740.6
19730.3
19720.1
19709.8
19699.5
19689.3
19679.2
19669.1
19659.2
19649.4
19639.7
19630.2
19620.9
19611.8
19602.9
19594.2
19585.8
19577.7
19569.9
19562.3
19555.1
19548.2
19541.7
19535.5
19529.7
19524.4
19519.4
19514.8
19510.7
19507
19503.8
19501.1
19498.8
19497.1
19495.9
19495.2
19495.1
19495.5
19496.5
19498.1
19500.3
19503.1
19506.5
19510.5
19515.2
19520.5
19526.5
19533.1
19540.4
19548.5
19557.2
19566.7
19576.8
19587.7
19599.3
19611.6
19624.7
19638.5
19653.1
19668.4
19684.5
19701.4
19719
19737.4
19756.6
19776.6
19797.3
19818.9
19841.2
19864.3
19888.2
19912.8
19938.2
19964.5
19991.4
20019.2
20047.7
20077
20107
20137.8
20169.3
20201.5
20234.5
20268.2
20302.5
20337.6
20373.4
20409.8
20446.8
20484.5
20522.8
20561.8
20601.3
20641.4
20682
20723.2
20764.9
20807.1
20849.7
20892.9
20936.5
20980.4
21024.8
21069.6
21114.7
21160.2
21205.9
21252
21298.3
21344.9
21391.7
21438.7
21485.8
21533.2
21580.6
21628.2
21676
21723.7
21771.6
21819.5
21867.5
21915.5
21963.4
22011.4
22059.4
22107.3
22155.2
22203
22250.8
22298.4
22346
22393.5
22440.9
22488.1
22535.3
22582.3
22629.1
22675.8
22722.4
22768.8
22815.1
22861.2
22907.1
22952.9
22998.5
23044
23089.2
23134.3
23179.2
23224
23268.5
23312.9
23357
23401
23444.7
23488.3
23531.6
23574.7
23617.6
23660.2
23702.6
23744.8
23786.7
23828.4
23869.7
23910.8
23951.6
23992.1
24032.2
24072
24111.5
24150.6
24189.3
24227.7
24265.6
24303.1
24340.1
24376.7
24412.7
24448.3
24483.3
24517.7
24551.6
24584.8
24617.4
24649.3
24680.5
24711
24740.8
24769.7
24797.9
24825.3
24851.8
24877.5
24902.3
24926.2
24949.1
24971.1
24992.2
25012.2
25031.3
25049.3
25066.3
25082.3
25097.1
25110.9
25123.6
25135.2
25145.6
25155
25163.2
25170.2
25176.1
25180.8
25184.4
25186.7
25187.9
15288.4
15288
15287.4
15286.4
15285.1
15283.6
15281.7
15279.5
15277
15274.2
15271.2
15267.8
15264.2
15260.3
15256.1
15251.7
15247
15242
15236.8
15231.4
15225.8
15219.9
15213.8
15207.6
15201.1
15194.4
15187.6
15180.6
15173.4
15166.1
15158.6
15151
15143.2
15135.3
15127.3
15119.2
15111.1
15102.8
15094.4
15086
15077.6
15069
15060.5
15051.9
15043.3
15034.7
15026.1
15017.5
15008.9
15000.4
14991.9
14983.4
14975
14966.7
14958.5
14950.4
14942.4
14934.5
14926.7
14919.1
14911.6
14904.3
14897.2
14890.3
14883.5
14877
14870.7
14864.7
14858.9
14853.3
14848.1
14843.2
14838.5
14834.2
14830.3
14826.7
14823.6
14820.8
14818.5
14816.6
14815.2
14814.3
14813.8
14814
14814.6
14815.8
14817.6
14820
14823
14826.7
14831
14836
14841.7
14848.1
14855.2
14863
14871.5
14880.9
14890.9
14901.8
14913.4
14925.7
14938.9
14952.8
14967.5
14982.9
14999.2
15016.2
15033.9
15052.4
15071.7
15091.7
15112.5
15133.9
15156.1
15179
15202.6
15226.9
15251.9
15277.6
15303.9
15330.9
15358.6
15386.9
15415.8
15445.4
15475.6
15506.4
15537.8
15569.8
15602.3
15635.5
15669.1
15703.4
15738.1
15773.4
15809.3
15845.6
15882.4
15919.8
15957.6
15995.8
16034.6
16073.8
16113.4
16153.4
16193.9
16234.7
16276
16317.6
16359.6
16401.9
16444.6
16487.5
16530.8
16574.4
16618.2
16662.4
16706.9
16751.6
16796.5
16841.6
16886.8
16932.3
16977.8
17023.5
17069.4
17115.3
17161.3
17207.3
17253.4
17299.5
17345.5
17391.6
17437.7
17483.7
17529.6
17575.4
17621.2
17666.8
17712.2
17757.5
17802.6
17847.4
17892.1
17936.5
17980.6
18024.4
18067.9
18111.1
18153.9
18196.4
18238.4
18280.1
18321.3
18362.2
18402.5
18442.4
18481.8
18520.6
18559
18596.8
18634.1
18670.8
18706.9
18742.4
18777.3
18811.6
18845.3
18878.3
18910.6
18942.4
18973.4
19003.7
19033.4
19062.4
19090.6
19118.2
19145
19171.1
19196.4
19221
19244.9
19268
19290.4
19312
19332.8
19352.9
19372.2
19390.8
19408.6
19425.7
19442
19457.5
19472.3
19486.2
19499.4
19511.7
19523.1
19533.8
19543.7
19552.8
19561.1
19568.8
19575.7
19582
19587.5
19592.4
19596.6
19600.2
19603
19605.2
19606.8
19607.7
19608
19607.7
19606.8
19605.4
19603.3
19600.7
19597.4
19593.6
19589.2
19584.3
19578.8
19573
19566.7
19559.9
19552.8
19545.2
19537.3
19529.1
19520.6
19511.8
19502.8
19493.5
19484.1
19474.4
19464.6
19454.6
19444.5
19434.3
19424.1
19413.7
19403.4
19393
19382.7
19372.3
19362.1
19351.8
19341.7
19331.7
19321.8
19312.1
19302.5
19293.2
19284
19275
19266.3
19257.9
19249.7
19241.8
19234.2
19226.9
19220
19213.4
19207.2
19201.4
19195.9
19190.9
19186.3
19182.1
19178.4
19175.1
19172.3
19170.1
19168.3
19167
19166.3
19166.1
19166.5
19167.5
19169
19171.2
19173.9
19177.3
19181.3
19185.9
19191.2
19197.2
19203.8
19211.1
19219.1
19227.8
19237.2
19247.3
19258.2
19269.7
19282.1
19295.1
19308.9
19323.5
19338.8
19354.9
19371.7
19389.3
19407.7
19426.9
19446.9
19467.6
19489.1
19511.4
19534.5
19558.4
19583.1
19608.5
19634.7
19661.7
19689.5
19718
19747.3
19777.3
19808.1
19839.6
19871.9
19904.9
19938.6
19973
20008.1
20043.8
20080.3
20117.4
20155.1
20193.5
20232.4
20272
20312.1
20352.8
20394
20435.8
20478
20520.8
20564
20607.6
20651.6
20696.1
20740.9
20786.1
20831.6
20877.4
20923.5
20969.9
21016.5
21063.3
21110.4
21157.6
21205
21252.5
21300.2
21348
21395.8
21443.7
21491.7
21539.7
21587.7
21635.7
21683.7
21731.7
21779.7
21827.6
21875.5
21923.3
21971
22018.6
22066.1
22113.5
22160.8
22208
22255
22301.9
22348.6
22395.2
22441.7
22488
22534.1
22580.1
22625.9
22671.6
22717
22762.3
22807.5
22852.4
22897.2
22941.8
22986.2
23030.4
23074.4
23118.1
23161.7
23205.1
23248.2
23291.2
23333.9
23376.3
23418.5
23460.5
23502.2
23543.6
23584.8
23625.6
23666.2
23706.4
23746.3
23785.8
23825
23863.8
23902.2
23940.2
23977.8
24014.9
24051.5
24087.7
24123.3
24158.4
24192.9
24226.8
24260.1
24292.8
24324.7
24356
24386.6
24416.4
24445.5
24473.7
24501.2
24527.8
24553.5
24578.4
24602.3
24625.3
24647.4
24668.5
24688.6
24707.7
24725.8
24742.8
24758.8
24773.7
24787.6
24800.3
24811.9
24822.4
24831.7
24840
24847
24852.9
24857.7
24861.2
24863.6
24864.8
14962.6
14962.3
14961.6
14960.6
14959.3
14957.8
14955.9
14953.7
14951.2
14948.4
14945.3
14941.9
14938.3
14934.3
14930.1
14925.7
14921
14916
14910.8
14905.4
14899.7
14893.8
14887.7
14881.4
14874.9
14868.2
14861.3
14854.3
14847.1
14839.7
14832.2
14824.5
14816.7
14808.8
14800.8
14792.7
14784.4
14776.1
14767.7
14759.3
14750.8
14742.2
14733.6
14725
14716.3
14707.7
14699
14690.4
14681.8
14673.2
14664.6
14656.1
14647.7
14639.4
14631.1
14622.9
14614.9
14606.9
14599.1
14591.4
14583.9
14576.5
14569.4
14562.3
14555.5
14548.9
14542.6
14536.5
14530.6
14525
14519.7
14514.7
14510
14505.6
14501.6
14497.9
14494.7
14491.9
14489.5
14487.5
14486
14485
14484.5
14484.5
14485.1
14486.2
14488
14490.3
14493.2
14496.8
14501.1
14506
14511.6
14518
14525
14532.8
14541.3
14550.6
14560.7
14571.5
14583.1
14595.4
14608.6
14622.5
14637.2
14652.7
14668.9
14685.9
14703.7
14722.3
14741.6
14761.6
14782.4
14803.9
14826.1
14849
14872.7
14897
14922.1
14947.8
14974.2
15001.2
15028.9
15057.3
15086.2
15115.9
15146.1
15176.9
15208.4
15240.4
15273
15306.1
15339.9
15374.1
15408.9
15444.3
15480.1
15516.5
15553.4
15590.8
15628.6
15666.9
15705.7
15744.9
15784.6
15824.7
15865.2
15906.1
15947.4
15989.1
16031.1
16073.5
16116.2
16159.3
16202.7
16246.3
16290.2
16334.4
16378.9
16423.6
16468.6
16513.7
16559
16604.5
16650.1
16695.9
16741.9
16787.9
16834
16880.1
16926.3
16972.4
17018.6
17064.8
17110.9
17157
17203
17248.9
17294.7
17340.4
17385.9
17431.2
17476.4
17521.3
17566
17610.5
17654.7
17698.5
17742.1
17785.4
17828.3
17870.8
17912.9
17954.6
17995.9
18036.8
18077.2
18117.2
18156.6
18195.5
18233.9
18271.8
18309.1
18345.9
18382
18417.6
18452.5
18486.9
18520.6
18553.6
18586.1
18617.8
18648.9
18679.3
18709
18737.9
18766.2
18793.8
18820.7
18846.8
18872.2
18896.8
18920.7
18943.8
18966.2
18987.9
19008.8
19028.9
19048.2
19066.8
19084.7
19101.8
19118.1
19133.6
19148.4
19162.3
19175.4
19187.7
19199.2
19209.8
19219.7
19228.8
19237.2
19244.8
19251.8
19258
19263.6
19268.4
19272.6
19276.1
19278.9
19281
19282.5
19283.4
19283.7
19283.3
19282.3
19280.8
19278.6
19275.9
19272.6
19268.7
19264.2
19259.3
19253.8
19247.8
19241.4
19234.6
19227.3
19219.7
19211.7
19203.4
19194.8
19185.9
19176.8
19167.4
19157.9
19148.1
19138.2
19128.1
19117.9
19107.6
19097.3
19086.9
19076.4
19066
19055.5
19045.1
19034.7
19024.4
19014.2
19004.2
18994.2
18984.4
18974.7
18965.3
18956.1
18947
18938.2
18929.7
18921.5
18913.5
18905.8
18898.5
18891.5
18884.9
18878.6
18872.7
18867.2
18862.1
18857.4
18853.2
18849.4
18846.1
18843.3
18840.9
18839.1
18837.8
18837
18836.8
18837.2
18838.1
18839.6
18841.7
18844.4
18847.7
18851.6
18856.2
18861.5
18867.4
18874
18881.2
18889.2
18897.9
18907.3
18917.3
18928.2
18939.7
18952
18965
18978.8
18993.3
19008.6
19024.7
19041.5
19059.1
19077.5
19096.6
19116.6
19137.3
19158.8
19181.1
19204.2
19228.1
19252.7
19278.2
19304.4
19331.4
19359.2
19387.7
19417
19447.1
19477.9
19509.4
19541.7
19574.7
19608.5
19642.9
19678
19713.8
19750.3
19787.5
19825.2
19863.6
19902.7
19942.3
19982.5
20023.2
20064.5
20106.3
20148.6
20191.4
20234.6
20278.3
20322.4
20367
20411.8
20457.1
20502.7
20548.6
20594.7
20641.2
20687.9
20734.8
20781.9
20829.2
20876.6
20924.2
20972
21019.8
21067.7
21115.7
21163.7
21211.7
21259.8
21307.9
21355.9
21404
21452
21500
21547.9
21595.7
21643.4
21691.1
21738.6
21786.1
21833.4
21880.6
21927.7
21974.6
22021.4
22068
22114.5
22160.9
22207
22253.1
22298.9
22344.6
22390.1
22435.5
22480.7
22525.6
22570.4
22615.1
22659.5
22703.8
22747.8
22791.6
22835.3
22878.7
22921.9
22964.9
23007.6
23050.1
23092.4
23134.4
23176.2
23217.7
23258.9
23299.8
23340.5
23380.8
23420.7
23460.4
23499.6
23538.5
23577
23615.1
23652.7
23689.9
23726.7
23762.9
23798.6
23833.8
23868.4
23902.4
23935.8
23968.6
24000.6
24032
24062.7
24092.6
24121.7
24150.1
24177.6
24204.3
24230.1
24255.1
24279.1
24302.2
24324.3
24345.5
24365.7
24384.8
24403
24420.1
24436.1
24451.1
24464.9
24477.7
24489.4
24499.9
24509.3
24517.5
24524.6
24530.5
24535.3
24538.9
24541.2
24542.4
14637.1
14636.7
14636
14635
14633.7
14632.2
14630.3
14628.1
14625.5
14622.7
14619.6
14616.2
14612.6
14608.6
14604.4
14599.9
14595.2
14590.2
14584.9
14579.4
14573.7
14567.8
14561.7
14555.3
14548.8
14542.1
14535.2
14528.1
14520.8
14513.4
14505.8
14498.1
14490.3
14482.4
14474.3
14466.1
14457.9
14449.5
14441.1
14432.6
14424
14415.4
14406.7
14398.1
14389.4
14380.7
14372
14363.3
14354.6
14345.9
14337.3
14328.8
14320.3
14311.9
14303.6
14295.4
14287.2
14279.2
14271.3
14263.6
14256
14248.6
14241.4
14234.2
14227.4
14220.7
14214.3
14208.1
14202.1
14196.4
14191
14185.9
14181.1
14176.7
14172.6
14168.8
14165.5
14162.6
14160.1
14158
14156.4
14155.3
14154.8
14154.7
14155.2
14156.2
14157.9
14160.1
14163
14166.5
14170.7
14175.5
14181.1
14187.4
14194.4
14202.1
14210.6
14219.8
14229.9
14240.7
14252.2
14264.6
14277.7
14291.6
14306.4
14321.8
14338.1
14355.2
14373
14391.5
14410.9
14430.9
14451.8
14473.3
14495.6
14518.6
14542.3
14566.7
14591.7
14617.5
14643.9
14671
14698.8
14727.2
14756.2
14785.9
14816.1
14847
14878.5
14910.6
14943.2
14976.4
15010.2
15044.5
15079.4
15114.8
15150.7
15187.1
15224
15261.4
15299.3
15337.7
15376.5
15415.8
15455.5
15495.7
15536.3
15577.2
15618.6
15660.3
15702.4
15744.9
15787.7
15830.8
15874.2
15917.9
15961.9
16006.2
16050.8
16095.6
16140.6
16186
16231.4
16276.9
16322.7
16368.5
16414.5
16460.6
16506.7
16552.9
16599.1
16645.4
16691.7
16737.9
16784.1
16830.3
16876.4
16922.4
16968.3
17014
17059.6
17105.1
17150.3
17195.3
17240.1
17284.6
17328.9
17372.9
17416.5
17459.8
17502.8
17545.4
17587.6
17629.4
17670.8
17711.7
17752.2
17792.2
17831.7
17870.7
17909.2
17947.1
17984.5
18021.3
18057.5
18093.1
18128.1
18162.5
18196.3
18229.4
18261.9
18293.7
18324.8
18355.2
18384.9
18414
18442.3
18469.9
18496.8
18523
18548.4
18573.1
18597
18620.2
18642.6
18664.3
18685.2
18705.3
18724.7
18743.3
18761.1