/*--------------------------------*- C++ -*----------------------------------*\
| =========                 |                                                 |
| \\      /  F ield         | OpenFOAM: The Open Source CFD Toolbox           |
|  \\    /   O peration     | Version:  v2006                                 |
|   \\  /    A nd           | Website:  www.openfoam.com                      |
|    \\/     M anipulation  |                                                 |
\*---------------------------------------------------------------------------*/
FoamFile
{
    version     2.0;
    format      ascii;
    class       volScalarField;
    location    "10.7";
    object      p_rgh;
}
// * * * * * * * * * * * * * * * * * * * * * * * * * * * * * * * * * * * * * //

dimensions      [1 -1 -2 0 0 0 0];


internalField   nonuniform List<scalar> 
150000
(
-2536.16
-2536.52
-2537.17
-2538.11
-2539.36
-2540.9
-2542.75
-2544.9
-2547.35
-2550.09
-2553.12
-2556.44
-2560.03
-2563.89
-2568.01
-2572.4
-2577.03
-2581.91
-2587.03
-2592.38
-2597.96
-2603.75
-2609.74
-2615.95
-2622.34
-2628.92
-2635.69
-2642.62
-2649.71
-2656.96
-2664.36
-2671.89
-2679.55
-2687.34
-2695.23
-2703.23
-2711.32
-2719.5
-2727.75
-2736.06
-2744.43
-2752.84
-2761.29
-2769.76
-2778.25
-2786.75
-2795.25
-2803.73
-2812.19
-2820.62
-2829
-2837.34
-2845.62
-2853.81
-2861.91
-2869.92
-2877.8
-2885.56
-2893.18
-2900.65
-2907.95
-2915.08
-2922.03
-2928.79
-2935.35
-2941.7
-2947.82
-2953.7
-2959.32
-2964.68
-2969.74
-2974.51
-2978.95
-2983.05
-2986.8
-2990.17
-2993.15
-2995.72
-2997.85
-2999.54
-3000.76
-3001.5
-3001.73
-3001.43
-3000.59
-2999.2
-2997.22
-2994.64
-2991.45
-2987.63
-2983.17
-2978.04
-2972.23
-2965.73
-2958.53
-2950.61
-2941.97
-2932.59
-2922.47
-2911.6
-2899.97
-2887.58
-2874.42
-2860.5
-2845.82
-2830.37
-2814.17
-2797.2
-2779.48
-2761.02
-2741.81
-2721.87
-2701.22
-2679.85
-2657.78
-2635.02
-2611.56
-2587.42
-2562.58
-2537.05
-2510.84
-2483.94
-2456.37
-2428.14
-2399.27
-2369.78
-2339.67
-2308.96
-2277.66
-2245.77
-2213.32
-2180.31
-2146.67
-2112.51
-2077.83
-2042.62
-2006.9
-1970.67
-1933.93
-1896.72
-1859.02
-1820.87
-1782.27
-1743.21
-1703.72
-1663.8
-1623.47
-1582.74
-1541.62
-1500.13
-1458.28
-1416.09
-1373.53
-1330.65
-1287.5
-1244.09
-1200.4
-1156.43
-1112.2
-1067.75
-1023.1
-978.241
-933.194
-887.96
-842.544
-796.962
-751.244
-705.421
-659.541
-613.648
-567.764
-521.887
-476.023
-430.176
-384.353
-338.569
-292.838
-247.181
-201.624
-156.195
-110.919
-65.8191
-20.9146
23.7768
68.2369
112.447
156.387
200.038
243.381
286.396
329.065
371.369
413.289
454.807
495.906
536.567
576.773
616.507
655.753
694.494
732.715
770.4
807.536
844.108
880.102
915.507
950.31
984.499
1018.06
1050.99
1083.27
1114.9
1145.85
1176.13
1205.72
1234.62
1262.8
1290.27
1317.02
1343.03
1368.31
1392.85
1416.64
1439.68
1461.96
1483.49
1504.25
1524.25
1543.48
1561.97
1579.79
1597.12
1613.96
1629.8
1644.63
1658.46
1671.26
1683.03
1693.97
1704.25
1714
1723.18
1731.64
1739.28
1746.13
1752.29
1757.83
1762.76
1767.11
1770.83
1773.9
1776.31
1778.05
1779.14
1779.64
1779.6
1779.02
1777.9
1776.21
1773.93
1771.08
1767.56
1763.41
1758.68
1753.4
1747.62
1741.36
1734.65
1727.53
1720.03
1712.22
1704.13
1695.82
1687.28
1678.54
1669.59
1660.43
1651.06
1641.49
1631.77
1621.93
1611.98
1601.95
1591.87
1581.75
1571.62
1561.49
1551.38
1541.31
1531.3
1521.38
1511.56
1501.87
1492.33
1482.96
1473.77
1464.79
1456.04
1447.51
1439.24
1431.24
1423.52
1416.1
1408.99
1402.22
1395.79
1389.72
1384.04
1378.75
1373.87
1369.41
1365.39
1361.81
1358.71
1356.08
1353.93
1352.3
1351.17
1350.58
1350.53
1351.03
1352.11
1353.77
1356.02
1358.88
1362.37
1366.48
1371.24
1376.65
1382.69
1389.43
1396.86
1404.94
1413.71
1423.19
1433.39
1444.3
1455.95
1468.33
1481.45
1495.31
1509.93
1525.3
1541.44
1558.34
1576
1594.44
1613.65
1633.64
1654.41
1675.95
1698.28
1721.38
1745.26
1769.92
1795.35
1821.56
1848.53
1876.27
1904.77
1934.02
1964.02
1994.77
2026.25
2058.45
2091.37
2125
2159.32
2194.33
2230.02
2266.36
2303.35
2340.97
2379.2
2418.04
2457.47
2497.46
2538
2579.08
2620.67
2662.75
2705.32
2748.34
2791.8
2835.67
2879.94
2924.59
2969.6
3014.93
3060.58
3106.52
3152.73
3199.18
3245.86
3292.74
3339.8
3387.03
3434.39
3481.89
3529.49
3577.18
3624.95
3672.77
3720.64
3768.53
3816.44
3864.35
3912.24
3960.1
4007.93
4055.7
4103.4
4151.03
4198.57
4246.01
4293.34
4340.55
4387.63
4434.56
4481.35
4527.97
4574.43
4620.73
4666.86
4712.83
4758.66
4804.34
4849.88
4895.25
4940.46
4985.48
5030.31
5074.96
5119.4
5163.65
5207.7
5251.56
5295.2
5338.65
5381.87
5424.88
5467.66
5510.2
5552.5
5594.55
5636.34
5677.86
5719.09
5760.04
5800.68
5841
5880.99
5920.65
5959.96
5998.92
6037.5
6075.69
6113.45
6150.76
6187.56
6223.96
6259.85
6295.26
6330.14
6364.47
6398.2
6431.31
6463.78
6495.57
6526.68
6557.06
6586.7
6615.57
6643.66
6670.93
6697.36
6722.93
6747.62
6771.4
6794.26
6816.17
6837.12
6857.09
6876.05
6894
6910.93
6926.84
6941.66
6955.38
6968.01
6979.54
6989.96
6999.25
7007.4
7014.42
7020.29
7024.98
7028.5
7030.82
7031.97
-2535.94
-2536.32
-2536.97
-2537.9
-2539.15
-2540.69
-2542.54
-2544.69
-2547.15
-2549.89
-2552.93
-2556.24
-2559.84
-2563.71
-2567.84
-2572.23
-2576.87
-2581.75
-2586.88
-2592.23
-2597.81
-2603.6
-2609.61
-2615.82
-2622.22
-2628.8
-2635.57
-2642.51
-2649.61
-2656.86
-2664.27
-2671.81
-2679.48
-2687.27
-2695.17
-2703.17
-2711.27
-2719.45
-2727.71
-2736.04
-2744.42
-2752.84
-2761.3
-2769.78
-2778.28
-2786.78
-2795.28
-2803.77
-2812.24
-2820.67
-2829.07
-2837.41
-2845.69
-2853.9
-2862.01
-2870.03
-2877.93
-2885.71
-2893.34
-2900.83
-2908.14
-2915.29
-2922.25
-2929.02
-2935.58
-2941.93
-2948.05
-2953.94
-2959.57
-2964.93
-2970.01
-2974.78
-2979.23
-2983.35
-2987.11
-2990.49
-2993.48
-2996.06
-2998.21
-2999.91
-3001.15
-3001.89
-3002.13
-3001.85
-3001.02
-2999.64
-2997.67
-2995.11
-2991.93
-2988.12
-2983.66
-2978.54
-2972.74
-2966.25
-2959.05
-2951.14
-2942.5
-2933.12
-2923
-2912.13
-2900.5
-2888.11
-2874.96
-2861.04
-2846.37
-2830.92
-2814.72
-2797.76
-2780.05
-2761.58
-2742.38
-2722.44
-2701.77
-2680.39
-2658.3
-2635.52
-2612.04
-2587.87
-2563.01
-2537.46
-2511.23
-2484.32
-2456.74
-2428.51
-2399.64
-2370.15
-2340.04
-2309.33
-2278.02
-2246.13
-2213.65
-2180.59
-2147.02
-2112.88
-2078.19
-2042.97
-2007.25
-1971.01
-1934.27
-1897.04
-1859.34
-1821.19
-1782.57
-1743.51
-1704.01
-1664.09
-1623.75
-1583.01
-1541.88
-1500.38
-1458.52
-1416.36
-1373.79
-1330.93
-1287.77
-1244.36
-1200.7
-1156.81
-1112.64
-1068.16
-1023.37
-978.371
-933.197
-887.877
-842.413
-796.809
-751.093
-705.305
-659.471
-613.612
-567.749
-521.893
-476.04
-430.196
-384.37
-338.578
-292.834
-247.158
-201.582
-156.136
-110.845
-65.7324
-20.8149
23.8896
68.3629
112.586
156.539
200.203
243.558
286.585
329.265
371.58
413.511
455.039
496.147
536.817
577.032
616.775
656.029
694.779
733.008
770.702
807.846
844.426
880.429
915.841
950.652
984.848
1018.42
1051.35
1083.64
1115.27
1146.23
1176.51
1206.1
1235
1263.18
1290.65
1317.4
1343.42
1368.71
1393.25
1417.04
1440.08
1462.37
1483.89
1504.65
1524.65
1543.88
1562.35
1580.08
1597.05
1613.34
1629.21
1644.42
1658.74
1672.08
1684.44
1695.72
1705.98
1715.37
1724.01
1732.02
1739.42
1746.25
1752.51
1758.15
1763.19
1767.58
1771.31
1774.37
1776.79
1778.5
1779.59
1780.07
1780.01
1779.43
1778.31
1776.59
1774.24
1771.17
1767.5
1763.29
1758.55
1753.31
1747.6
1741.44
1734.85
1727.86
1720.48
1712.76
1704.73
1696.42
1687.82
1678.99
1669.95
1660.71
1651.27
1641.66
1631.91
1622.03
1612.05
1602
1591.9
1581.76
1571.61
1561.46
1551.34
1541.26
1531.24
1521.31
1511.48
1501.79
1492.24
1482.86
1473.67
1464.68
1455.92
1447.38
1439.1
1431.09
1423.35
1415.92
1408.8
1402.01
1395.57
1389.49
1383.79
1378.49
1373.59
1369.12
1365.08
1361.49
1358.37
1355.72
1353.56
1351.9
1350.76
1350.15
1350.08
1350.57
1351.64
1353.28
1355.53
1358.38
1361.85
1365.96
1370.7
1376.08
1382.16
1388.9
1396.34
1404.4
1413.17
1422.65
1432.84
1443.75
1455.39
1467.77
1480.88
1494.74
1509.35
1524.72
1540.85
1557.75
1575.41
1593.84
1613.05
1633.04
1653.8
1675.35
1697.67
1720.77
1744.65
1769.31
1794.74
1820.95
1847.92
1875.66
1904.16
1933.42
1963.42
1994.17
2025.65
2057.86
2090.79
2124.42
2158.75
2193.76
2229.45
2265.8
2302.8
2340.43
2378.68
2417.53
2456.96
2496.97
2537.52
2578.61
2620.22
2662.32
2704.9
2747.94
2791.41
2835.31
2879.59
2924.26
2969.28
3014.63
3060.29
3106.24
3152.46
3198.92
3245.61
3292.5
3339.58
3386.82
3434.2
3481.7
3529.31
3577.01
3624.78
3672.62
3720.49
3768.4
3816.31
3864.23
3912.13
3960
4007.83
4055.61
4103.32
4150.96
4198.5
4245.95
4293.28
4340.5
4387.59
4434.53
4481.33
4527.96
4574.43
4620.73
4666.87
4712.84
4758.67
4804.36
4849.91
4895.29
4940.5
4985.53
5030.37
5075.01
5119.47
5163.72
5207.78
5251.64
5295.29
5338.74
5381.97
5424.98
5467.77
5510.32
5552.62
5594.68
5636.47
5678
5719.23
5760.18
5800.8
5841.1
5881.07
5920.71
5960
5998.94
6037.51
6075.7
6113.47
6150.81
6187.76
6224.3
6260.29
6295.75
6330.66
6365
6398.74
6431.86
6464.34
6496.14
6527.25
6557.64
6587.28
6616.16
6644.25
6671.52
6697.95
6723.53
6748.22
6772.01
6794.87
6816.79
6837.74
6857.7
6876.67
6894.62
6911.54
6927.48
6942.29
6956.02
6968.65
6980.18
6990.59
6999.88
7008.04
7015.05
7020.92
7025.62
7029.15
7031.46
7032.64
-2535.52
-2535.88
-2536.52
-2537.46
-2538.71
-2540.27
-2542.13
-2544.29
-2546.76
-2549.51
-2552.56
-2555.88
-2559.48
-2563.36
-2567.5
-2571.89
-2576.54
-2581.44
-2586.57
-2591.94
-2597.53
-2603.33
-2609.35
-2615.56
-2621.97
-2628.57
-2635.35
-2642.3
-2649.41
-2656.68
-2664.09
-2671.64
-2679.32
-2687.12
-2695.04
-2703.05
-2711.17
-2719.36
-2727.63
-2735.96
-2744.35
-2752.79
-2761.26
-2769.75
-2778.27
-2786.79
-2795.31
-2803.81
-2812.3
-2820.75
-2829.16
-2837.52
-2845.81
-2854.03
-2862.16
-2870.18
-2878.1
-2885.88
-2893.53
-2901.03
-2908.37
-2915.53
-2922.52
-2929.31
-2935.91
-2942.29
-2948.44
-2954.35
-2960.01
-2965.4
-2970.5
-2975.3
-2979.78
-2983.92
-2987.7
-2991.11
-2994.13
-2996.73
-2998.91
-3000.63
-3001.89
-3002.66
-3002.93
-3002.67
-3001.87
-3000.51
-2998.57
-2996.03
-2992.87
-2989.08
-2984.64
-2979.54
-2973.75
-2967.28
-2960.09
-2952.19
-2943.56
-2934.19
-2924.08
-2913.21
-2901.59
-2889.2
-2876.05
-2862.14
-2847.46
-2832.02
-2815.81
-2798.85
-2781.13
-2762.66
-2743.45
-2723.5
-2702.83
-2681.43
-2659.33
-2636.52
-2613.01
-2588.81
-2563.92
-2538.35
-2512.1
-2485.18
-2457.6
-2429.36
-2400.49
-2370.99
-2340.87
-2310.15
-2278.83
-2246.93
-2214.44
-2181.39
-2147.79
-2113.63
-2078.93
-2043.69
-2007.97
-1971.72
-1934.98
-1897.75
-1860.04
-1821.84
-1783.2
-1744.11
-1704.6
-1664.65
-1624.3
-1583.54
-1542.4
-1500.88
-1458.99
-1416.71
-1374.17
-1331.28
-1288.11
-1244.68
-1200.95
-1156.95
-1112.69
-1068.2
-1023.5
-978.603
-933.526
-888.27
-842.828
-797.213
-751.455
-705.599
-659.696
-613.783
-567.875
-521.971
-476.076
-430.192
-384.327
-338.49
-292.708
-247.01
-201.419
-155.959
-110.652
-65.5185
-20.5785
24.1493
68.6456
112.891
156.866
200.552
243.928
286.976
329.678
372.014
413.965
455.514
496.642
537.333
577.567
617.33
656.603
695.372
733.619
771.332
808.493
845.09
881.109
916.537
951.362
985.571
1019.15
1052.1
1084.4
1116.04
1147.01
1177.3
1206.9
1235.81
1264.01
1291.49
1318.25
1344.28
1369.57
1394.12
1417.93
1440.99
1463.29
1484.84
1505.64
1525.68
1544.99
1563.58
1581.47
1598.68
1615.18
1630.89
1645.74
1659.68
1672.71
1684.81
1696.04
1706.47
1716.14
1725.03
1733.19
1740.68
1747.51
1753.73
1759.34
1764.34
1768.68
1772.33
1775.27
1777.49
1779.1
1780.12
1780.53
1780.48
1779.92
1778.83
1777.16
1774.86
1771.93
1768.37
1764.2
1759.45
1754.18
1748.42
1742.2
1735.54
1728.47
1721.02
1713.22
1705.11
1696.73
1688.13
1679.28
1670.21
1660.94
1651.47
1641.84
1632.06
1622.16
1612.16
1602.08
1591.95
1581.78
1571.6
1561.42
1551.26
1541.15
1531.11
1521.16
1511.31
1501.59
1492.02
1482.61
1473.39
1464.37
1455.57
1447.01
1438.69
1430.65
1422.89
1415.44
1408.3
1401.49
1395.03
1388.93
1383.21
1377.89
1372.97
1368.48
1364.42
1360.82
1357.68
1355.01
1352.84
1351.17
1350.02
1349.39
1349.32
1349.8
1350.85
1352.48
1354.71
1357.55
1361.01
1365.09
1369.82
1375.2
1381.27
1388.02
1395.48
1403.43
1412.17
1421.64
1431.82
1442.72
1454.35
1466.71
1479.82
1493.67
1508.27
1523.63
1539.75
1556.64
1574.29
1592.72
1611.93
1631.91
1652.67
1674.21
1696.53
1719.62
1743.5
1768.16
1793.59
1819.8
1846.77
1874.51
1903.02
1932.28
1962.29
1993.04
2024.53
2056.74
2089.67
2123.32
2157.66
2192.68
2228.38
2264.75
2301.76
2339.4
2377.67
2416.53
2455.99
2496.01
2536.59
2577.7
2619.33
2661.45
2704.06
2747.12
2790.62
2834.53
2878.85
2923.53
2968.58
3013.95
3059.64
3105.61
3151.85
3198.34
3245.05
3291.97
3339.06
3386.32
3433.72
3481.25
3528.88
3576.6
3624.39
3672.23
3720.12
3768.04
3815.96
3863.89
3911.8
3959.68
4007.52
4055.3
4103.02
4150.65
4198.2
4245.65
4292.98
4340.2
4387.29
4434.25
4481.05
4527.71
4574.22
4620.57
4666.75
4712.79
4758.66
4804.38
4849.94
4895.34
4940.56
4985.6
5030.46
5075.13
5119.61
5163.9
5207.98
5251.87
5295.56
5339.03
5382.29
5425.33
5468.14
5510.72
5553.06
5595.14
5636.97
5678.53
5719.81
5760.83
5801.52
5841.9
5881.96
5921.69
5961.08
6000.1
6038.74
6076.98
6114.81
6152.23
6189.19
6225.58
6261.43
6296.85
6331.75
6366.09
6399.83
6432.96
6465.45
6497.26
6528.39
6558.79
6588.45
6617.34
6645.44
6672.72
6699.17
6724.76
6749.47
6773.27
6796.14
6818.08
6839.04
6859.02
6877.99
6895.94
6912.82
6928.91
6943.68
6957.4
6970.03
6981.57
6991.99
7001.29
7009.45
7016.46
7022.34
7027.04
7030.58
7032.9
7034.07
-2534.92
-2535.3
-2535.94
-2536.87
-2538.13
-2539.68
-2541.56
-2543.73
-2546.2
-2548.96
-2552.02
-2555.35
-2558.96
-2562.85
-2566.99
-2571.4
-2576.06
-2580.97
-2586.11
-2591.49
-2597.09
-2602.91
-2608.94
-2615.17
-2621.59
-2628.21
-2635
-2641.96
-2649.09
-2656.37
-2663.8
-2671.37
-2679.07
-2686.89
-2694.83
-2702.86
-2710.99
-2719.2
-2727.49
-2735.84
-2744.25
-2752.71
-2761.2
-2769.72
-2778.26
-2786.8
-2795.34
-2803.87
-2812.37
-2820.85
-2829.28
-2837.65
-2845.97
-2854.21
-2862.36
-2870.41
-2878.35
-2886.16
-2893.84
-2901.38
-2908.75
-2915.95
-2922.98
-2929.81
-2936.44
-2942.85
-2949.04
-2954.99
-2960.68
-2966.1
-2971.24
-2976.07
-2980.59
-2984.76
-2988.58
-2992.03
-2995.08
-2997.72
-2999.94
-3001.7
-3003
-3003.81
-3004.11
-3003.89
-3003.13
-3001.8
-2999.9
-2997.39
-2994.27
-2990.51
-2986.1
-2981.02
-2975.26
-2968.81
-2961.65
-2953.77
-2945.16
-2935.8
-2925.7
-2914.84
-2903.23
-2890.84
-2877.7
-2863.78
-2849.1
-2833.65
-2817.44
-2800.47
-2782.75
-2764.27
-2745.05
-2725.09
-2704.4
-2682.98
-2660.86
-2638.02
-2614.49
-2590.26
-2565.35
-2539.74
-2513.47
-2486.52
-2458.92
-2430.66
-2401.77
-2372.25
-2342.12
-2311.38
-2280.04
-2248.12
-2215.62
-2182.55
-2148.92
-2114.75
-2080.02
-2044.73
-2009.01
-1972.76
-1935.99
-1898.74
-1861
-1822.79
-1784.13
-1745.02
-1705.48
-1665.51
-1625.13
-1584.35
-1543.18
-1501.64
-1459.73
-1417.48
-1374.91
-1332.05
-1288.86
-1245.39
-1201.58
-1157.53
-1113.23
-1068.67
-1023.86
-978.842
-933.648
-888.293
-842.801
-797.185
-751.467
-705.671
-659.816
-613.918
-567.995
-522.059
-476.115
-430.165
-384.235
-338.348
-292.526
-246.79
-201.162
-155.666
-110.324
-65.1557
-20.1806
24.582
69.1129
113.392
157.401
201.119
244.528
287.609
330.342
372.708
414.69
456.269
497.427
538.146
578.409
618.199
657.5
696.295
734.57
772.308
809.495
846.116
882.159
917.611
952.457
986.688
1020.29
1053.26
1085.57
1117.23
1148.21
1178.52
1208.14
1237.06
1265.27
1292.77
1319.54
1345.59
1370.89
1395.46
1419.28
1442.35
1464.66
1486.21
1507.01
1527.04
1546.32
1564.85
1582.63
1599.68
1616.01
1631.64
1646.5
1660.54
1673.73
1686.01
1697.44
1707.99
1717.73
1726.69
1734.93
1742.49
1749.39
1755.64
1761.24
1766.18
1770.47
1774.08
1777.02
1779.27
1780.88
1781.86
1782.31
1782.14
1781.39
1780.13
1778.29
1775.85
1772.78
1769.1
1764.82
1760
1754.67
1748.86
1742.61
1735.96
1728.97
1721.57
1713.83
1705.74
1697.35
1688.71
1679.81
1670.69
1661.36
1651.85
1642.17
1632.34
1622.39
1612.34
1602.21
1592.03
1581.82
1571.59
1561.36
1551.16
1541.01
1530.93
1520.93
1511.04
1501.28
1491.67
1482.23
1472.97
1463.91
1455.07
1446.48
1438.13
1430.05
1422.26
1414.77
1407.59
1400.75
1394.26
1388.13
1382.38
1377.02
1372.08
1367.55
1363.46
1359.83
1356.66
1353.96
1351.76
1350.06
1348.88
1348.23
1348.13
1348.58
1349.61
1351.22
1353.43
1356.25
1359.68
1363.75
1368.45
1373.81
1379.82
1386.48
1393.75
1401.91
1410.68
1420.14
1430.31
1441.2
1452.81
1465.16
1478.25
1492.09
1506.68
1522.03
1538.15
1555.02
1572.67
1591.09
1610.29
1630.26
1651.02
1672.55
1694.87
1717.97
1741.84
1766.5
1791.93
1818.14
1845.12
1872.87
1901.37
1930.64
1960.66
1991.42
2022.92
2055.14
2088.09
2121.75
2156.1
2191.14
2226.86
2263.24
2300.28
2337.94
2376.23
2415.12
2454.6
2494.65
2535.25
2576.39
2618.05
2660.21
2702.84
2745.93
2789.47
2833.41
2877.76
2922.48
2967.56
3012.96
3058.68
3104.69
3150.96
3197.49
3244.23
3291.18
3338.31
3385.61
3433.04
3480.6
3528.26
3576.01
3623.83
3671.71
3719.62
3767.56
3815.51
3863.46
3911.39
3959.29
4007.15
4054.95
4102.68
4150.33
4197.89
4245.35
4292.7
4339.94
4387.05
4434.02
4480.85
4527.54
4574.07
4620.45
4666.67
4712.74
4758.65
4804.4
4849.98
4895.4
4940.64
4985.71
5030.59
5075.29
5119.8
5164.11
5208.24
5252.15
5295.87
5339.37
5382.66
5425.73
5468.57
5511.18
5553.55
5595.67
5637.54
5679.14
5720.46
5761.51
5802.24
5842.66
5882.75
5922.51
5961.91
6000.94
6039.6
6077.86
6115.7
6153.11
6190.04
6226.47
6262.61
6298.13
6333.09
6367.48
6401.27
6434.44
6466.96
6498.82
6529.98
6560.42
6590.11
6619.04
6647.18
6674.5
6700.98
6726.6
6751.34
6775.17
6798.08
6820.04
6841.03
6861.04
6880.04
6898.02
6914.98
6930.95
6945.79
6959.54
6972.2
6983.75
6994.18
7003.49
7011.67
7018.69
7024.57
7029.29
7032.85
7035.17
7036.33
-2534.11
-2534.48
-2535.13
-2536.07
-2537.34
-2538.9
-2540.78
-2542.96
-2545.44
-2548.21
-2551.27
-2554.61
-2558.24
-2562.13
-2566.29
-2570.71
-2575.39
-2580.31
-2585.47
-2590.86
-2596.48
-2602.32
-2608.36
-2614.62
-2621.06
-2627.7
-2634.51
-2641.5
-2648.65
-2655.95
-2663.4
-2671
-2678.72
-2686.56
-2694.51
-2702.58
-2710.74
-2718.97
-2727.29
-2735.67
-2744.1
-2752.59
-2761.11
-2769.66
-2778.22
-2786.8
-2795.37
-2803.93
-2812.47
-2820.97
-2829.43
-2837.84
-2846.18
-2854.45
-2862.63
-2870.71
-2878.68
-2886.53
-2894.25
-2901.82
-2909.23
-2916.48
-2923.55
-2930.43
-2937.11
-2943.58
-2949.81
-2955.81
-2961.55
-2967.02
-2972.21
-2977.09
-2981.65
-2985.88
-2989.75
-2993.24
-2996.35
-2999.04
-3001.31
-3003.12
-3004.47
-3005.33
-3005.69
-3005.52
-3004.81
-3003.53
-3001.67
-2999.21
-2996.13
-2992.42
-2988.05
-2983.01
-2977.29
-2970.87
-2963.73
-2955.88
-2947.29
-2937.95
-2927.86
-2917.02
-2905.41
-2893.03
-2879.89
-2865.97
-2851.29
-2835.83
-2819.61
-2802.63
-2784.89
-2766.39
-2747.15
-2727.17
-2706.46
-2685.02
-2662.87
-2640.01
-2616.44
-2592.18
-2567.23
-2541.6
-2515.3
-2488.32
-2460.69
-2432.42
-2403.5
-2373.96
-2343.8
-2313.04
-2281.67
-2249.73
-2217.2
-2184.11
-2150.46
-2116.26
-2081.53
-2046.3
-2010.46
-1974.16
-1937.36
-1900.07
-1862.3
-1824.06
-1785.37
-1746.23
-1706.65
-1666.65
-1626.24
-1585.43
-1544.22
-1502.64
-1460.7
-1418.4
-1375.77
-1332.84
-1289.59
-1245.99
-1202.11
-1158.09
-1113.82
-1069.32
-1024.45
-979.426
-934.226
-888.86
-843.338
-797.665
-751.872
-705.989
-660.041
-614.058
-568.053
-522.031
-476.011
-430.006
-384.028
-338.095
-292.226
-246.445
-200.774
-155.234
-109.846
-64.631
-19.6092
25.2
69.7768
114.102
158.155
201.917
245.37
288.493
331.267
373.675
415.697
457.315
498.512
539.269
579.569
619.395
658.732
697.562
735.871
773.642
810.861
847.514
883.588
919.068
953.943
988.2
1021.83
1054.82
1087.15
1118.83
1149.84
1180.16
1209.8
1238.74
1266.97
1294.48
1321.27
1347.34
1372.67
1397.25
1421.09
1444.19
1466.53
1488.11
1508.95
1529.03
1548.36
1566.95
1584.81
1601.92
1618.29
1633.87
1648.65
1662.59
1675.67
1687.9
1699.27
1709.83
1719.61
1728.64
1736.96
1744.56
1751.48
1757.73
1763.31
1768.23
1772.48
1776.05
1778.95
1781.18
1782.76
1783.72
1784.12
1783.91
1783.15
1781.81
1779.88
1777.35
1774.21
1770.49
1766.21
1761.39
1756.08
1750.31
1744
1737.27
1730.11
1722.61
1714.78
1706.62
1698.17
1689.46
1680.49
1671.3
1661.91
1652.32
1642.58
1632.68
1622.67
1612.56
1602.37
1592.12
1581.85
1571.55
1561.27
1551.01
1540.8
1530.67
1520.61
1510.67
1500.86
1491.2
1481.7
1472.39
1463.28
1454.39
1445.74
1437.35
1429.22
1421.38
1413.84
1406.62
1399.74
1393.2
1387.03
1381.25
1375.85
1370.87
1366.31
1362.18
1358.51
1355.3
1352.58
1350.34
1348.61
1347.4
1346.73
1346.59
1347.02
1348.02
1349.6
1351.78
1354.56
1357.97
1362
1366.68
1372.01
1378
1384.63
1391.94
1400
1408.75
1418.18
1428.33
1439.2
1450.8
1463.13
1476.2
1490.02
1504.6
1519.93
1536.03
1552.9
1570.53
1588.94
1608.13
1628.1
1648.84
1670.37
1692.68
1715.78
1739.65
1764.31
1789.74
1815.95
1842.94
1870.69
1899.2
1928.48
1958.5
1989.28
2020.79
2053.03
2086
2119.67
2154.05
2189.11
2224.86
2261.26
2298.32
2336.02
2374.34
2413.26
2452.77
2492.86
2533.5
2574.68
2616.38
2658.57
2701.25
2744.38
2787.96
2831.95
2876.34
2921.1
2966.22
3011.67
3057.44
3103.49
3149.81
3196.37
3243.16
3290.15
3337.33
3384.67
3432.15
3479.75
3527.45
3575.25
3623.11
3671.02
3718.98
3766.95
3814.94
3862.91
3910.87
3958.8
4006.68
4054.51
4102.26
4149.94
4197.52
4245.01
4292.38
4339.64
4386.77
4433.77
4480.63
4527.35
4573.91
4620.32
4666.58
4712.68
4758.62
4804.4
4850.02
4895.47
4940.74
4985.83
5030.75
5075.48
5120.02
5164.37
5208.52
5252.48
5296.22
5339.76
5383.09
5426.19
5469.07
5511.72
5554.13
5596.3
5638.21
5679.85
5721.22
5762.31
5803.1
5843.57
5883.72
5923.54
5963
6002.11
6040.83
6079.16
6117.07
6154.56
6191.6
6228.19
6264.24
6299.79
6334.8
6369.24
6403.09
6436.31
6468.89
6500.81
6532.02
6562.52
6592.27
6621.25
6649.44
6676.81
6703.35
6729.02
6753.8
6777.68
6800.64
6822.64
6843.68
6863.73
6882.78
6900.8
6917.8
6933.76
6948.64
6962.42
6975.11
6986.69
6997.15
7006.48
7014.67
7021.71
7027.6
7032.33
7035.9
7038.24
7039.4
-2533.09
-2533.47
-2534.12
-2535.09
-2536.37
-2537.91
-2539.8
-2541.99
-2544.48
-2547.26
-2550.33
-2553.69
-2557.32
-2561.23
-2565.41
-2569.85
-2574.54
-2579.48
-2584.67
-2590.08
-2595.72
-2601.58
-2607.66
-2613.93
-2620.41
-2627.07
-2633.91
-2640.92
-2648.1
-2655.44
-2662.92
-2670.54
-2678.29
-2686.17
-2694.16
-2702.25
-2710.43
-2718.7
-2727.05
-2735.47
-2743.94
-2752.46
-2761.01
-2769.6
-2778.2
-2786.81
-2795.42
-2804.02
-2812.59
-2821.13
-2829.63
-2838.07
-2846.46
-2854.76
-2862.98
-2871.11
-2879.12
-2887.01
-2894.77
-2902.39
-2909.86
-2917.16
-2924.28
-2931.22
-2937.96
-2944.48
-2950.77
-2956.83
-2962.63
-2968.16
-2973.4
-2978.35
-2982.97
-2987.26
-2991.19
-2994.75
-2997.92
-3000.68
-3003.01
-3004.89
-3006.3
-3007.23
-3007.65
-3007.55
-3006.9
-3005.68
-3003.88
-3001.48
-2998.46
-2994.8
-2990.48
-2985.49
-2979.81
-2973.43
-2966.34
-2958.51
-2949.95
-2940.64
-2930.57
-2919.74
-2908.14
-2895.77
-2882.63
-2868.71
-2854.02
-2838.56
-2822.33
-2805.33
-2787.57
-2769.05
-2749.79
-2729.78
-2709.04
-2687.58
-2665.39
-2642.49
-2618.89
-2594.59
-2569.6
-2543.93
-2517.59
-2490.58
-2462.92
-2434.61
-2405.66
-2376.08
-2345.89
-2315.1
-2283.7
-2251.72
-2219.17
-2186.04
-2152.36
-2118.13
-2083.36
-2048.07
-2012.23
-1975.89
-1939.06
-1901.73
-1863.93
-1825.65
-1786.92
-1747.74
-1708.13
-1668.08
-1627.63
-1586.77
-1545.53
-1503.91
-1461.92
-1419.59
-1376.93
-1333.95
-1290.66
-1247.06
-1203.25
-1159.05
-1114.6
-1069.89
-1025.04
-979.942
-934.667
-889.235
-843.677
-797.965
-752.136
-706.215
-660.217
-614.184
-568.117
-522.036
-475.951
-429.878
-383.833
-337.835
-291.905
-246.063
-200.331
-154.731
-109.283
-64.0091
-18.9281
25.9397
70.5745
114.957
159.066
202.885
246.392
289.569
332.397
374.857
416.931
458.6
499.846
540.652
581.001
620.875
660.257
699.133
737.485
775.3
812.561
849.256
885.369
920.888
955.8
990.093
1023.76
1056.78
1089.15
1120.85
1151.89
1182.24
1211.91
1240.87
1269.13
1296.67
1323.49
1349.57
1374.93
1399.54
1423.41
1446.52
1468.88
1490.49
1511.33
1531.42
1550.75
1569.31
1587.13
1604.19
1620.49
1636.03
1650.79
1664.74
1677.87
1690.16
1701.63
1712.29
1722.16
1731.27
1739.64
1747.29
1754.23
1760.48
1766.05
1770.93
1775.14
1778.67
1781.52
1783.72
1785.26
1786.18
1786.5
1786.21
1785.34
1783.89
1781.83
1779.18
1775.94
1772.12
1767.71
1762.76
1757.29
1751.45
1745.17
1738.42
1731.25
1723.71
1715.83
1707.63
1699.12
1690.33
1681.3
1672.03
1662.56
1652.9
1643.08
1633.11
1623.02
1612.83
1602.56
1592.24
1581.89
1571.52
1561.16
1550.83
1540.55
1530.34
1520.22
1510.21
1500.34
1490.61
1481.04
1471.67
1462.5
1453.55
1444.84
1436.38
1428.2
1420.3
1412.71
1405.44
1398.5
1391.91
1385.69
1379.85
1374.41
1369.37
1364.76
1360.59
1356.87
1353.62
1350.84
1348.56
1346.79
1345.54
1344.82
1344.64
1345.03
1345.99
1347.53
1349.67
1352.42
1355.79
1359.79
1364.43
1369.72
1375.67
1382.29
1389.59
1397.59
1406.3
1415.71
1425.83
1436.68
1448.25
1460.56
1473.61
1487.41
1501.97
1517.28
1533.36
1550.21
1567.83
1586.23
1605.41
1625.37
1646.1
1667.63
1689.93
1713.02
1736.9
1761.55
1786.99
1813.2
1840.19
1867.95
1896.48
1925.76
1955.81
1986.6
2018.13
2050.39
2083.38
2117.08
2151.48
2186.57
2222.35
2258.79
2295.89
2333.62
2371.98
2410.94
2450.5
2490.63
2531.32
2572.55
2614.29
2656.54
2699.27
2742.46
2786.08
2830.13
2874.57
2919.4
2964.57
3010.08
3055.9
3102
3148.38
3195
3241.84
3288.89
3336.12
3383.51
3431.05
3478.7
3526.46
3574.3
3622.22
3670.18
3718.18
3766.2
3814.22
3862.24
3910.24
3958.2
4006.12
4053.98
4101.76
4149.47
4197.08
4244.6
4292
4339.29
4386.45
4433.48
4480.38
4527.13
4573.73
4620.18
4666.47
4712.61
4758.59
4804.41
4850.06
4895.54
4940.85
4985.98
5030.93
5075.69
5120.27
5164.67
5208.86
5252.85
5296.64
5340.22
5383.59
5426.74
5469.67
5512.36
5554.82
5597.04
5639
5680.7
5722.13
5763.27
5804.12
5844.66
5884.88
5924.77
5964.31
6003.49
6042.29
6080.69
6118.69
6156.25
6193.37
6230.01
6266.15
6301.78
6336.87
6371.38
6405.3
6438.6
6471.26
6503.25
6534.54
6565.1
6594.93
6623.98
6652.24
6679.69
6706.29
6732.03
6756.88
6780.83
6803.84
6825.91
6847
6867.11
6886.21
6904.29
6921.33
6937.33
6952.24
6966.07
6978.79
6990.4
7000.89
7010.24
7018.45
7025.52
7031.42
7036.17
7039.75
7042.1
7043.26
-2531.87
-2532.25
-2532.91
-2533.88
-2535.18
-2536.72
-2538.62
-2540.82
-2543.32
-2546.11
-2549.2
-2552.57
-2556.22
-2560.15
-2564.35
-2568.81
-2573.53
-2578.49
-2583.7
-2589.14
-2594.81
-2600.7
-2606.81
-2613.11
-2619.62
-2626.31
-2633.19
-2640.23
-2647.45
-2654.81
-2662.33
-2669.99
-2677.78
-2685.68
-2693.71
-2701.83
-2710.06
-2718.37
-2726.76
-2735.22
-2743.73
-2752.29
-2760.89
-2769.52
-2778.17
-2786.82
-2795.47
-2804.12
-2812.74
-2821.32
-2829.87
-2838.36
-2846.79
-2855.14
-2863.41
-2871.58
-2879.65
-2887.59
-2895.41
-2903.08
-2910.61
-2917.96
-2925.15
-2932.17
-2938.97
-2945.55
-2951.92
-2958.04
-2963.91
-2969.51
-2974.83
-2979.85
-2984.55
-2988.91
-2992.92
-2996.55
-2999.8
-3002.64
-3005.04
-3007
-3008.5
-3009.5
-3010
-3009.98
-3009.4
-3008.26
-3006.54
-3004.21
-3001.25
-2997.66
-2993.41
-2988.47
-2982.85
-2976.52
-2969.47
-2961.69
-2953.16
-2943.87
-2933.83
-2923.02
-2911.43
-2899.07
-2885.93
-2872
-2857.31
-2841.83
-2825.58
-2808.56
-2790.78
-2772.24
-2752.94
-2732.91
-2712.13
-2690.62
-2668.4
-2645.46
-2621.82
-2597.47
-2572.44
-2546.73
-2520.35
-2493.3
-2465.59
-2437.24
-2408.25
-2378.64
-2348.41
-2317.58
-2286.15
-2254.13
-2221.53
-2188.36
-2154.64
-2120.37
-2085.56
-2050.22
-2014.35
-1977.97
-1941.09
-1903.73
-1865.88
-1827.56
-1788.78
-1749.56
-1709.89
-1669.8
-1629.3
-1588.39
-1547.1
-1505.42
-1463.38
-1420.99
-1378.26
-1335.21
-1291.85
-1248.19
-1204.27
-1160.05
-1115.57
-1070.85
-1025.93
-980.789
-935.475
-889.987
-844.385
-798.567
-752.638
-706.623
-660.549
-614.413
-568.248
-522.07
-475.893
-429.734
-383.606
-337.53
-291.524
-245.608
-199.804
-154.131
-108.612
-63.2667
-18.1148
26.8234
71.5279
115.979
160.157
204.043
247.617
290.859
333.752
376.276
418.412
460.142
501.449
542.315
582.721
622.652
662.091
701.022
739.428
777.295
814.608
851.352
887.514
923.08
958.038
992.375
1026.08
1059.14
1091.55
1123.3
1154.37
1184.75
1214.45
1243.45
1271.74
1299.31
1326.16
1352.28
1377.67
1402.31
1426.2
1449.35
1471.74
1493.38
1514.26
1534.38
1553.74
1572.35
1590.19
1607.28
1623.6
1639.13
1653.87
1667.8
1680.9
1693.19
1704.65
1715.31
1725.19
1734.3
1742.68
1750.33
1757.27
1763.51
1769.06
1773.92
1778.09
1781.58
1784.39
1786.54
1788.04
1788.91
1789.15
1788.79
1787.83
1786.26
1784.12
1781.38
1778.06
1774.21
1769.74
1764.78
1759.34
1753.33
1746.92
1740.08
1732.82
1725.19
1717.22
1708.91
1700.31
1691.43
1682.3
1672.94
1663.36
1653.61
1643.68
1633.62
1623.43
1613.14
1602.78
1592.37
1581.92
1571.47
1561.02
1550.6
1540.24
1529.94
1519.74
1509.65
1499.69
1489.89
1480.25
1470.8
1461.55
1452.53
1443.75
1435.22
1426.97
1419
1411.35
1404.01
1397.01
1390.36
1384.07
1378.17
1372.67
1367.58
1362.91
1358.68
1354.91
1351.6
1348.77
1346.44
1344.62
1343.31
1342.54
1342.32
1342.66
1343.57
1345.07
1347.16
1349.86
1353.19
1357.14
1361.74
1366.99
1372.9
1379.48
1386.75
1394.71
1403.38
1412.75
1422.84
1433.66
1445.2
1457.48
1470.5
1484.28
1498.81
1514.11
1530.17
1547
1564.6
1582.98
1602.14
1622.09
1642.82
1664.33
1686.63
1709.72
1733.59
1758.25
1783.68
1809.9
1836.9
1864.67
1893.2
1922.5
1952.56
1983.37
2014.92
2047.21
2080.23
2113.96
2148.39
2183.52
2219.33
2255.82
2292.95
2330.73
2369.14
2408.15
2447.76
2487.95
2528.7
2569.98
2611.79
2654.1
2696.89
2740.14
2783.84
2827.95
2872.46
2917.35
2962.59
3008.17
3054.05
3100.23
3146.67
3193.36
3240.27
3287.38
3334.68
3382.14
3429.73
3477.45
3525.27
3573.18
3621.15
3669.17
3717.23
3765.3
3813.38
3861.45
3909.49
3957.5
4005.46
4053.35
4101.18
4148.93
4196.58
4244.13
4291.57
4338.9
4386.1
4433.17
4480.1
4526.89
4573.53
4620.02
4666.36
4712.54
4758.56
4804.42
4850.11
4895.63
4940.98
4986.15
5031.14
5075.95
5120.57
5165.02
5209.26
5253.29
5297.13
5340.76
5384.18
5427.38
5470.36
5513.12
5555.64
5597.91
5639.94
5681.7
5723.2
5764.41
5805.34
5845.95
5886.26
5926.23
5965.85
6005.12
6044.01
6082.5
6120.59
6158.24
6195.45
6232.18
6268.42
6304.14
6339.31
6373.92
6407.93
6441.33
6474.07
6506.15
6537.53
6568.19
6598.11
6627.25
6655.6
6683.13
6709.81
6735.63
6760.57
6784.59
6807.68
6829.82
6850.99
6871.16
6890.33
6908.47
6925.57
6941.61
6956.57
6970.44
6983.21
6994.86
7005.38
7014.77
7023.01
7030.1
7036.02
7040.78
7044.37
7046.73
7047.9
-2530.43
-2530.82
-2531.48
-2532.47
-2533.77
-2535.33
-2537.23
-2539.44
-2541.95
-2544.76
-2547.87
-2551.26
-2554.94
-2558.89
-2563.11
-2567.6
-2572.34
-2577.34
-2582.58
-2588.05
-2593.76
-2599.68
-2605.82
-2612.16
-2618.7
-2625.44
-2632.35
-2639.44
-2646.69
-2654.1
-2661.65
-2669.35