/*--------------------------------*- C++ -*----------------------------------*\
| =========                 |                                                 |
| \\      /  F ield         | OpenFOAM: The Open Source CFD Toolbox           |
|  \\    /   O peration     | Version:  v2006                                 |
|   \\  /    A nd           | Website:  www.openfoam.com                      |
|    \\/     M anipulation  |                                                 |
\*---------------------------------------------------------------------------*/
FoamFile
{
    version     2.0;
    format      ascii;
    class       surfaceScalarField;
    location    "5";
    object      phi;
}
// * * * * * * * * * * * * * * * * * * * * * * * * * * * * * * * * * * * * * //

dimensions      [0 3 -1 0 0 0 0];
oriented        oriented;


internalField   nonuniform List<scalar> 
99450
(
4.07683e-05
-4.07683e-05
9.16414e-05
-5.0873e-05
0.000137647
-4.6006e-05
0.00018428
-4.66324e-05
0.000229281
-4.50017e-05
0.000274942
-4.56601e-05
0.000319094
-4.41529e-05
0.000363379
-4.42845e-05
0.000406393
-4.30139e-05
0.000448995
-4.2602e-05
0.000490584
-4.15887e-05
0.000531311
-4.07277e-05
0.000571009
-3.96978e-05
0.000609641
-3.86317e-05
0.000647104
-3.74638e-05
0.000683346
-3.6242e-05
0.000718278
-3.49316e-05
0.000751847
-3.3569e-05
0.000783992
-3.21453e-05
0.000814652
-3.06602e-05
0.000843786
-2.91332e-05
0.000871361
-2.75758e-05
0.000897344
-2.5983e-05
0.000921698
-2.43531e-05
0.000944417
-2.27197e-05
0.000965473
-2.10554e-05
0.000984853
-1.93806e-05
0.00100255
-1.76994e-05
0.00101858
-1.60226e-05
0.00103292
-1.43451e-05
0.00104561
-1.26879e-05
0.00105665
-1.10418e-05
0.00106608
-9.43071e-06
0.00107392
-7.84e-06
0.0010802
-6.27565e-06
0.00108494
-4.74831e-06
0.00108818
-3.23257e-06
0.00108994
-1.76652e-06
0.00109027
-3.31067e-07
0.00108916
1.11083e-06
0.00108666
2.50856e-06
0.00108278
3.87285e-06
0.00107757
5.20917e-06
0.0010711
6.47542e-06
0.0010634
7.69334e-06
0.00105464
8.76113e-06
0.00104503
9.60868e-06
0.00103466
1.03715e-05
0.00102354
1.11252e-05
0.00101154
1.19968e-05
0.000998642
1.28996e-05
0.000984781
1.38604e-05
0.000969963
1.4818e-05
0.000954178
1.57851e-05
0.000937448
1.673e-05
0.000919799
1.76493e-05
0.00090124
1.85594e-05
0.000881802
1.94381e-05
0.000861515
2.02866e-05
0.000840406
2.11091e-05
0.000818509
2.1897e-05
0.000795862
2.26474e-05
0.000772471
2.33901e-05
0.000748403
2.40686e-05
0.000723683
2.47198e-05
0.000698349
2.53342e-05
0.000672446
2.59029e-05
0.000646012
2.64342e-05
0.000619067
2.69451e-05
0.000591668
2.73991e-05
0.000563858
2.78093e-05
0.000535667
2.81912e-05
0.00050715
2.8517e-05
0.000478347
2.88035e-05
0.000449288
2.90582e-05
0.000420009
2.92793e-05
0.000390527
2.94824e-05
0.00036086
2.96667e-05
0.000331022
2.98375e-05
0.000301025
2.99978e-05
0.000270881
3.0144e-05
0.000240607
3.02734e-05
0.000210218
3.03893e-05
0.00017974
3.04776e-05
0.000149182
3.05586e-05
0.000118559
3.06223e-05
8.78959e-05
3.06636e-05
5.72039e-05
3.0692e-05
2.64948e-05
3.07091e-05
-4.22719e-06
3.0722e-05
-3.49371e-05
3.071e-05
-6.56234e-05
3.06863e-05
-9.62768e-05
3.06534e-05
-0.000126892
3.0615e-05
-0.000157475
3.05831e-05
-0.000188046
3.0571e-05
-0.000218626
3.05804e-05
-0.000249192
3.05657e-05
-0.000279608
3.04159e-05
-0.000309608
2.99997e-05
-0.000338845
2.92375e-05
-0.000367
2.81551e-05
-0.000393854
2.68538e-05
-0.000419283
2.5429e-05
-0.000443215
2.39317e-05
-0.0004656
2.23852e-05
-0.00048641
2.08103e-05
-0.000505616
1.92061e-05
-0.000523199
1.7583e-05
-0.000539125
1.59257e-05
-0.000553359
1.42344e-05
-0.000565852
1.2493e-05
-0.00057656
1.07073e-05
-0.000585431
8.87088e-06
-0.000592426
6.99563e-06
-0.000597515
5.08866e-06
-0.00060069
3.17497e-06
-0.000601944
1.25384e-06
-0.000601374
-5.69544e-07
-0.000599068
-2.30611e-06
-0.000595092
-3.97566e-06
-0.000589521
-5.57119e-06
-0.000582421
-7.10059e-06
-0.00057385
-8.57065e-06
-0.000563852
-9.99746e-06
-0.000552481
-1.13715e-05
-0.0005398
-1.26812e-05
-0.000525846
-1.3954e-05
-0.00051067
-1.51758e-05
-0.000494322
-1.63482e-05
-0.000476837
-1.74846e-05
-0.000458271
-1.85661e-05
-0.000438677
-1.95945e-05
-0.000418102
-2.05742e-05
-0.000396609
-2.14932e-05
-0.000374257
-2.23525e-05
-0.000351112
-2.31446e-05
-0.00032722
-2.38918e-05
-0.000302681
-2.45394e-05
-0.000277364
-2.53168e-05
-0.000251719
-2.56449e-05
-0.000225011
-2.67086e-05
-0.000198377
-2.66338e-05
-0.000170347
-2.80303e-05
-0.000142788
-2.75584e-05
-0.000113718
-2.90703e-05
-8.46275e-05
-2.90902e-05
-5.33764e-05
-3.12512e-05
-2.40237e-05
-2.93527e-05
-2.40237e-05
3.11661e-05
-7.19344e-05
6.55477e-05
-8.52547e-05
9.92164e-05
-7.96747e-05
0.000130867
-7.82834e-05
0.00016342
-7.75544e-05
0.000195156
-7.73959e-05
0.000227451
-7.64481e-05
0.000258945
-7.57782e-05
0.00029069
-7.47586e-05
0.000321818
-7.37301e-05
0.000352817
-7.25876e-05
0.000383417
-7.13279e-05
0.000413677
-6.99584e-05
0.000443532
-6.8486e-05
0.000472956
-6.68875e-05
0.000501908
-6.51942e-05
0.000530356
-6.338e-05
0.00055826
-6.14724e-05
0.000585581
-5.94671e-05
0.000612269
-5.7348e-05
0.000638275
-5.51394e-05
0.000663557
-5.28578e-05
0.000688063
-5.04885e-05
0.000711765
-4.80554e-05
0.00073459
-4.55441e-05
0.000756531
-4.29965e-05
0.000777514
-4.03643e-05
0.000797547
-3.77323e-05
0.000816557
-3.50322e-05
0.000834538
-3.23263e-05
0.000851431
-2.95812e-05
0.000867213
-2.68237e-05
0.000881842
-2.40596e-05
0.000895282
-2.12793e-05
0.000907528
-1.85224e-05
0.000918536
-1.57564e-05
0.000928294
-1.29902e-05
0.000936792
-1.02643e-05
0.000944003
-7.5425e-06
0.00094993
-4.81561e-06
0.000954519
-2.08062e-06
0.000957768
6.23984e-07
0.000959732
3.24459e-06
0.00096033
5.87787e-06
0.000959505
8.51831e-06
0.000957147
1.11191e-05
0.000953075
1.36809e-05
0.000947243
1.62033e-05
0.000939677
1.86913e-05
0.000930528
2.11456e-05
0.00091989
2.35375e-05
0.000907836
2.59144e-05
0.000894433
2.82212e-05
0.000879737
3.04815e-05
0.000863791
3.26757e-05
0.000846634
3.48065e-05
0.000828318
3.68756e-05
0.000808921
3.88343e-05
0.000788457
4.07506e-05
0.000766983
4.25832e-05
0.000744551
4.43298e-05
0.000721206
4.59921e-05
0.000697056
4.754e-05
0.000672084
4.904e-05
0.000646391
5.04134e-05
0.000620021
5.17041e-05
0.000593019
5.29046e-05
0.000565457
5.39965e-05
0.000537439
5.49628e-05
0.00050895
5.58885e-05
0.000480094
5.66655e-05
0.000450952
5.73322e-05
0.000421549
5.79202e-05
0.00039197
5.83827e-05
0.000362282
5.87459e-05
0.000332555
5.90068e-05
0.000302874
5.91631e-05
0.000273315
5.92253e-05
0.000243959
5.91945e-05
0.00021488
5.90759e-05
0.00018615
5.88743e-05
0.000157829
5.85943e-05
0.000129993
5.82259e-05
0.000102678
5.77924e-05
7.59634e-05
5.7273e-05
4.99041e-05
5.66817e-05
2.45619e-05
5.60058e-05
-1.6762e-08
5.52707e-05
-2.3763e-05
5.44554e-05
-4.66247e-05
5.35836e-05
-6.85565e-05
5.26418e-05
-8.95016e-05
5.16313e-05
-0.000109403
5.05553e-05
-0.000128202
4.9413e-05
-0.000145821
4.82027e-05
-0.00016217
4.69201e-05
-0.000177138
4.55486e-05
-0.000190629
4.40563e-05
-0.000202611
4.2398e-05
-0.000213153
4.05418e-05
-0.000222392
3.84766e-05
-0.000230488
3.62507e-05
-0.000237565
3.3931e-05
-0.0002437
3.15642e-05
-0.000248931
2.9162e-05
-0.000253278
2.67325e-05
-0.000256753
2.42851e-05
-0.00025937
2.18235e-05
-0.000261136
1.93491e-05
-0.000262072
1.68614e-05
-0.000262216
1.43791e-05
-0.000261611
1.18871e-05
-0.000260314
9.41054e-06
-0.000258401
6.95793e-06
-0.000255949
4.5438e-06
-0.000253051
2.19039e-06
-0.000249789
-8.66736e-08
-0.000246088
-2.44721e-06
-0.000242007
-4.65041e-06
-0.000237553
-6.76017e-06
-0.000232711
-8.81821e-06
-0.000227494
-1.07881e-05
-0.000221884
-1.27107e-05
-0.000215905
-1.45492e-05
-0.000209594
-1.63082e-05
-0.000202984
-1.79819e-05
-0.000196093
-1.95725e-05
-0.000188973
-2.10739e-05
-0.000181629
-2.25199e-05
-0.000174069
-2.39081e-05
-0.000166338
-2.52151e-05
-0.000158427
-2.64775e-05
-0.00015036
-2.76614e-05
-0.000142156
-2.87786e-05
-0.000133822
-2.98272e-05
-0.000125376
-3.07979e-05
-0.000116807
-3.17142e-05
-0.000108164
-3.25348e-05
-9.93461e-05
-3.33569e-05
-9.06638e-05
-3.39991e-05
-8.15043e-05
-3.48045e-05
-7.28908e-05
-3.53221e-05
-6.36422e-05
-3.58824e-05
-5.5227e-05
-3.64455e-05
-4.61779e-05
-3.66075e-05
-3.83926e-05
-3.68557e-05
-3.0268e-05
-3.72148e-05
-2.11341e-05
-4.03851e-05
-4.80006e-06
-4.56868e-05
-2.88237e-05
3.39389e-05
-0.000105873
7.25944e-05
-0.00012391
0.000109791
-0.000116871
0.000144877
-0.00011337
0.000180616
-0.000113293
0.000215752
-0.000112532
0.000251148
-0.000111843
0.000285985
-0.000110616
0.00032076
-0.000109534
0.000355083
-0.000108053
0.000389063
-0.000106568
0.000422588
-0.000104852
0.000455629
-0.000102999
0.00048814
-0.000100997
0.000520077
-9.88247e-05
0.000551385
-9.65025e-05
0.00058205
-9.40448e-05
0.000611994
-9.14159e-05
0.000641167
-8.86405e-05
0.000669559
-8.57405e-05
0.000697088
-8.26681e-05
0.000723713
-7.94822e-05
0.000749404
-7.61798e-05
0.000774095
-7.27464e-05
0.000797755
-6.92043e-05
0.000820327
-6.55687e-05
0.000841807
-6.18438e-05
0.000862105
-5.80305e-05
0.00088119
-5.41169e-05
0.000899018
-5.01543e-05
0.000915552
-4.61154e-05
0.000930762
-4.20335e-05
0.000944607
-3.79051e-05
0.000957071
-3.37428e-05
0.00096811
-2.95614e-05
0.000977709
-2.53555e-05
0.000985866
-2.11473e-05
0.000992531
-1.69299e-05
0.000997706
-1.27172e-05
0.00100142
-8.52796e-06
0.00100367
-4.33224e-06
0.00100452
-2.27093e-07
0.00100374
4.02503e-06
0.00100148
8.1336e-06
0.000997822
1.21809e-05
0.000992726
1.62157e-05
0.000986162
2.02442e-05
0.000978146
2.42198e-05
0.000968734
2.81033e-05
0.000957981
3.18989e-05
0.000945919
3.55989e-05
0.000932621
3.9213e-05
0.00091811
4.27323e-05
0.000902428
4.6163e-05
0.000885615
4.94885e-05
0.000867712
5.27097e-05
0.000848771
5.5817e-05
0.000828796
5.88087e-05
0.000807863
6.16837e-05
0.000786014
6.44325e-05
0.000763291
6.70527e-05
0.000739746
6.9537e-05
0.000715404
7.18821e-05
0.000690372
7.40717e-05
0.000664645
7.61402e-05
0.000638318
7.80319e-05
0.00061142
7.98026e-05
0.000584007
8.14095e-05
0.000556118
8.28515e-05
0.000527858
8.41486e-05
0.000499243
8.52798e-05
0.000470318
8.62574e-05
0.000441168
8.70709e-05
0.000411826
8.77242e-05
0.000382361
8.82108e-05
0.000352825
8.85426e-05
0.000323282
8.8707e-05
0.00029379
8.87165e-05
0.000264402
8.85827e-05
0.000235187
8.82911e-05
0.000206201
8.78604e-05
0.000177494
8.73008e-05
0.00014912
8.66002e-05
0.000121144
8.57687e-05
9.36007e-05
8.4816e-05
6.65524e-05
8.37299e-05
4.00232e-05
8.2535e-05
1.40761e-05
8.12178e-05
-1.12526e-05
7.97841e-05
-3.59076e-05
7.82386e-05
-5.98569e-05
7.65911e-05
-8.30516e-05
7.48261e-05
-0.000105457
7.29604e-05
-0.000127022
7.0978e-05
-0.000147708
6.88887e-05
-0.000167459
6.66715e-05
-0.000186217
6.43068e-05
-0.000203959
6.17976e-05
-0.000220668
5.91077e-05
-0.000236391
5.62645e-05
-0.000251173
5.32589e-05
-0.000265054
5.01313e-05
-0.000278023
4.69001e-05
-0.000290048
4.35895e-05
-0.000301103
4.02165e-05
-0.000311158
3.67871e-05
-0.000320191
3.33184e-05
-0.000328195
2.98274e-05
-0.000335153
2.63073e-05
-0.000341063
2.27719e-05
-0.000345916
1.92315e-05
-0.000349725
1.56959e-05
-0.000352483
1.21693e-05
-0.0003542
8.67453e-06
-0.000354878
5.22135e-06
-0.000354483
1.79582e-06
-0.000353152
-1.41796e-06
-0.000351016
-4.58288e-06
-0.000347953
-7.7134e-06
-0.000343962
-1.07514e-05
-0.000339097
-1.36832e-05
-0.000333388
-1.64974e-05
-0.000326891
-1.92069e-05
-0.000319634
-2.18064e-05
-0.000311654
-2.42884e-05
-0.000302989
-2.66466e-05
-0.000293667
-2.88953e-05
-0.000283727
-3.10133e-05
-0.000273235
-3.30125e-05
-0.000262259
-3.48833e-05
-0.000250838
-3.66368e-05
-0.000239042
-3.82735e-05
-0.000226916
-3.97869e-05
-0.000214506
-4.11887e-05
-0.000201859
-4.24739e-05
-0.000189004
-4.3653e-05
-0.000175991
-4.47275e-05
-0.000162819
-4.57061e-05
-0.000149556
-4.66208e-05
-0.000136212
-4.73424e-05
-0.000122793
-4.82239e-05
-0.000109448
-4.86666e-05
-9.58799e-05
-4.94507e-05
-8.27325e-05
-4.95929e-05
-6.93267e-05
-5.00133e-05
-5.67329e-05
-4.94494e-05
-4.35535e-05
-5.03941e-05
-2.85362e-05
-5.54024e-05
-7.35422e-06
-6.68687e-05
-3.61779e-05
3.57473e-05
-0.000141621
7.80339e-05
-0.000166197
0.0001179
-0.000156737
0.000156476
-0.000151946
0.00019499
-0.000151807
0.000233164
-0.000150706
0.000271079
-0.000149759
0.000308585
-0.000148121
0.000345593
-0.000146542
0.000382141
-0.000144601
0.000418102
-0.000142528
0.00045347
-0.00014022
0.000488173
-0.000137703
0.000522155
-0.000134979
0.000555387
-0.000132057
0.000587802
-0.000128917
0.000619343
-0.000125586
0.000649985
-0.000122057
0.000679684
-0.00011834
0.000708376
-0.000114433
0.000736057
-0.00011035
0.000762676
-0.000106101
0.000788176
-0.00010168
0.000812538
-9.71083e-05
0.000835737
-9.24032e-05
0.000857715
-8.75466e-05
0.000878452
-8.25808e-05
0.000897931
-7.75091e-05
0.000916132
-7.2318e-05
0.000933023
-6.70451e-05
0.000948576
-6.16691e-05
0.000962797
-5.62539e-05
0.000975639
-5.07471e-05
0.000987108
-4.5212e-05
0.000997159
-3.96126e-05
0.0010058
-3.40008e-05
0.00101303
-2.83738e-05
0.00101882
-2.27236e-05
0.00102318
-1.70776e-05
0.00102609
-1.14292e-05
0.00102753
-5.77441e-06
0.00102742
-1.18006e-07
0.00102613
5.31073e-06
0.00102342
1.08485e-05
0.00101926
1.63349e-05
0.00101371
2.17658e-05
0.00100683
2.71273e-05
0.000998655
3.23959e-05
0.000989193
3.75659e-05
0.000978452
4.26395e-05
0.00096645
4.76012e-05
0.000953242
5.24213e-05
0.000938795
5.71792e-05
0.000923212
6.17457e-05
0.000906462
6.62381e-05
0.000888626
7.05459e-05
0.000869733
7.47103e-05
0.000849792
7.87498e-05
0.000828876
8.25991e-05
0.00080703
8.62785e-05
0.000784298
8.97849e-05
0.000760725
9.311e-05
0.000736344
9.62628e-05
0.00071119
9.92259e-05
0.000685355
0.000101975
0.000658847
0.00010454
0.000631774
0.000106876
0.000604145
0.000109038
0.000576019
0.000110978
0.00054747
0.000112697
0.000518514
0.000114236
0.000489241
0.000115531
0.000459683
0.000116628
0.0004299
0.000117508
0.000399943
0.000118168
0.000369871
0.000118615
0.000339719
0.000118859
0.000309558
0.000118878
0.000279437
0.000118703
0.000249405
0.000118324
0.000219518
0.000117747
0.000189841
0.000116978
0.000160417
0.000116024
0.000131302
0.000114884
0.000102562
0.000113556
7.42144e-05
0.000112077
4.63497e-05
0.0001104
1.89894e-05
0.000108578
-7.79401e-06
0.000106567
-3.39782e-05
0.000104423
-5.94876e-05
0.0001021
-8.42983e-05
9.96367e-05
-0.000108354
9.70161e-05
-0.000131619
9.42433e-05
-0.000154051
9.13205e-05
-0.000175622
8.82425e-05
-0.000196321
8.50062e-05
-0.000216128
8.16039e-05
-0.000235054
7.80339e-05
-0.000253091
7.43015e-05
-0.00027024
7.04077e-05
-0.000286471
6.63628e-05
-0.000301757
6.21855e-05
-0.000316064
5.78966e-05
-0.000329366
5.35191e-05
-0.00034165
4.90709e-05
-0.000352908
4.45759e-05
-0.000363118
4.0038e-05
-0.000372283
3.54724e-05
-0.000380405
3.0894e-05
-0.000387471
2.62968e-05
-0.000393487
2.17117e-05
-0.000398459
1.71419e-05
-0.000402388
1.26032e-05
-0.000405287
8.12039e-06
-0.000407201
3.71004e-06
-0.000407946
-6.73491e-07
-0.000407528
-5.00044e-06
-0.000406094
-9.14732e-06
-0.000403655
-1.31906e-05
-0.000400216
-1.71216e-05
-0.000395788
-2.09254e-05
-0.000390396
-2.45995e-05
-0.000384065
-2.81378e-05
-0.000376817
-3.15355e-05
-0.000368672
-3.47917e-05
-0.000359658
-3.79094e-05
-0.000349797
-4.08742e-05
-0.000339132
-4.3678e-05
-0.000327697
-4.6318e-05
-0.000315548
-4.87863e-05
-0.000302726
-5.10951e-05
-0.000289264
-5.32486e-05
-0.000275212
-5.52409e-05
-0.000260612
-5.70745e-05
-0.0002455
-5.87649e-05
-0.00022993
-6.02974e-05
-0.000213936
-6.17003e-05
-0.000197586
-6.29707e-05
-0.000180848
-6.40801e-05
-0.000163891
-6.51809e-05
-0.000146566
-6.59914e-05
-0.000129121
-6.68957e-05
-0.000111364
-6.73504e-05
-9.35716e-05
-6.78054e-05
-7.58298e-05
-6.71912e-05
-5.73013e-05
-6.89227e-05
-3.62374e-05
-7.64662e-05
-1.1971e-05
-9.11352e-05
-4.8149e-05
3.63889e-05
-0.00017801
7.99506e-05
-0.000209758
0.000120772
-0.000197558
0.000160341
-0.000191515
0.000199755
-0.000191222
0.000238826
-0.000189777
0.000277547
-0.00018848
0.000315821
-0.000186394
0.000353572
-0.000184294
0.000390784
-0.000181813
0.000427357
-0.000179101
0.000463263
-0.000176127
0.000498452
-0.000172891
0.000532873
-0.0001694
0.000566466
-0.000165651
0.000599186
-0.000161638
0.000630998
-0.000157397
0.000661862
-0.000152922
0.000691731
-0.000148208
0.00072055
-0.000143252
0.000748324
-0.000138124
0.000774994
-0.000132771
0.000800513
-0.000127199
0.000824879
-0.000121475
0.000848047
-0.000115571
0.000869993
-0.000109492
0.000890687
-0.000103276
0.000910085
-9.6907e-05
0.000928194
-9.04265e-05
0.000944967
-8.38185e-05
0.000960415
-7.71164e-05
0.000974484
-7.03239e-05
0.00098719
-6.34521e-05
0.000998492
-5.65149e-05
0.00100841
-4.95278e-05
0.00101691
-4.25065e-05
0.00102399
-3.5452e-05
0.00102966
-2.83901e-05
0.0010339
-2.13202e-05
0.00103672
-1.42529e-05
0.00103818
-7.22999e-06
0.00103833
-2.68445e-07
0.00103684
6.799e-06
0.00103399
1.37037e-05
0.00102977
2.05555e-05
0.0010242
2.7335e-05
0.0010173
3.40234e-05
0.00100907
4.06254e-05
0.000999525
4.71124e-05
0.000988668
5.34967e-05
0.000976523
5.97459e-05
0.000963097
6.58477e-05
0.000948497
7.17784e-05
0.000932671
7.75725e-05
0.000915725
8.31837e-05
0.000897647
8.86243e-05
0.000878484
9.38734e-05
0.000858304
9.89289e-05
0.000837128
0.000103776
0.000814997
0.00010841
0.000791956
0.000112825
0.000768051
0.000117015
0.000743324
0.00012099
0.000717853
0.000124696
0.00069166
0.000128168
0.000664801
0.000131399
0.000637316
0.000134361
0.000609283
0.000137071
0.000580742
0.000139519
0.000551726
0.000141713
0.000522332
0.00014363
0.000492586
0.000145277
0.000462554
0.00014666
0.00043229
0.000147772
0.000401837
0.000148621
0.000371268
0.000149183
0.000340639
0.000149488
0.000309975
0.000149542
0.000279367
0.000149311
0.00024886
0.000148831
0.000218497
0.00014811
0.000188347
0.000147129
0.000158469
0.000145902
0.000128893
0.00014446
9.97111e-05
0.000142737
7.09532e-05
0.000140835
4.26887e-05
0.000138664
1.49472e-05
0.000136319
-1.22085e-05
0.000133723
-3.87199e-05
0.000130934
-6.45605e-05
0.000127941
-8.96678e-05
0.000124744
-0.000114004
0.000121353
-0.000137532
0.00011777
-0.000160204
0.000113993
-0.000181996
0.000110035
-0.000202873
0.000105883
-0.000222807
0.000101539
-0.0002418
9.70262e-05
-0.000259828
9.23303e-05
-0.000276894
8.74729e-05
-0.000293
8.24691e-05
-0.000308151
7.73367e-05
-0.000322351
7.20963e-05
-0.000335582
6.67505e-05
-0.000347836
6.13243e-05
-0.000359098
5.58384e-05
-0.000369352
5.0292e-05
-0.000378591
4.47112e-05
-0.000386805
3.91082e-05
-0.000393997
3.34886e-05
-0.000400161
2.7876e-05
-0.000405302
2.22831e-05
-0.000409425
1.67262e-05
-0.000412521
1.12164e-05
-0.000414571
5.75957e-06
-0.000415596
3.51916e-07
-0.000415787
-4.81009e-06
-0.000414923
-1.00114e-05
-0.000413044
-1.50694e-05
-0.000410159
-2.00067e-05
-0.000406287
-2.47972e-05
-0.000401439
-2.94478e-05
-0.000395642
-3.39346e-05
-0.000388916
-3.82613e-05
-0.000381282
-4.24253e-05
-0.000372769
-4.64228e-05
-0.0003634
-5.02426e-05
-0.000353192
-5.3886e-05
-0.000342173
-5.73374e-05
-0.000330362
-6.05976e-05
-0.000317786
-6.36706e-05
-0.000304487
-6.65478e-05
-0.000290494
-6.92342e-05
-0.000275837
-7.17309e-05
-0.00026056
-7.40424e-05
-0.000244682
-7.61756e-05
-0.000228247
-7.81355e-05
-0.000211309
-7.99085e-05
-0.000193863
-8.1526e-05
-0.000176061
-8.29826e-05
-0.00015781
-8.4243e-05
-0.000139231
-8.54749e-05
-0.000120324
-8.62569e-05
-0.000101142
-8.69876e-05
-8.18624e-05
-8.64705e-05
-6.16799e-05
-8.91052e-05
-3.90868e-05
-9.90593e-05
-1.39529e-05
-0.000116269
-6.21019e-05
3.69746e-05
-0.000214984
8.07817e-05
-0.000253566
0.000122036
-0.000238812
0.000161982
-0.000231461
0.000201852
-0.000231092
0.000241288
-0.000229213
0.000280488
-0.00022768
0.000319114
-0.00022502
0.000357312
-0.000222492
0.000394896
-0.000219396
0.000431899
-0.000216105
0.000468196
-0.000212423
0.000503785
-0.00020848
0.000538587
-0.000204203
0.000572562
-0.000199625
0.000605678
-0.000194754
0.000637891
-0.00018961
0.000669128
-0.000184158
0.000699364
-0.000178445
0.000728588
-0.000172475
0.000756715
-0.000166251
0.000783727
-0.000159783
0.000809628
-0.000153099
0.000834329
-0.000146176
0.000857811
-0.000139054
0.000880073
-0.000131754
0.000901055
-0.000124258
0.000920751
-0.000116603
0.000939122
-0.000108798
0.000956144
-0.000100841
0.000971824
-9.2796e-05
0.000986111
-8.46105e-05
0.000999022
-7.63632e-05
0.0010105
-6.79974e-05
0.00102059
-5.96148e-05
0.00102923
-5.11491e-05
0.00103644
-4.26553e-05
0.00104219
-3.4143e-05
0.00104648
-2.56083e-05
0.00104932
-1.70925e-05
0.00105068
-8.59221e-06
0.00105049
-8.07878e-08
0.00104904
8.25092e-06
0.00104613
1.66115e-05
0.0010418
2.48909e-05
0.00103605
3.30873e-05
0.0010289
4.11718e-05
0.00102039
4.91342e-05
0.00101053
5.69663e-05
0.000999384
6.46464e-05
0.000986953
7.21768e-05
0.000973237
7.95639e-05
0.000958292
8.67238e-05
0.000942138
9.37265e-05
0.00092483
0.000100492
0.000906381
0.000107073
0.000886834
0.00011342
0.000866257
0.000119507
0.000844655
0.000125377
0.000822084
0.00013098
0.000798596
0.000136314
0.000774224
0.000141387
0.000749045
0.000146169
0.000723076
0.000150665
0.000696378
0.000154867
0.000669038
0.000158739
0.000641059
0.00016234
0.000612516
0.000165614
0.000583448
0.000168588
0.000553957
0.000171204
0.000524056
0.00017353
0.000493801
0.000175532
0.000463274
0.000177187
0.00043252
0.000178526
0.000401581
0.000179559
0.000370532
0.000180233
0.000339428
0.000180591
0.000308332
0.000180638
0.000277268
0.000180375
0.000246332
0.000179766
0.000215576
0.000178866
0.000185026
0.000177678
0.000154775
0.000176153
0.000124864
0.000174371
9.53347e-05
0.000172266
6.62575e-05
0.000169912
3.76719e-05
0.00016725
9.64369e-06
0.000164348
-1.77934e-05
0.00016116
-4.45779e-05
0.000157719
-7.06699e-05
0.000154033
-9.60367e-05
0.000150111
-0.000120625
0.000145941
-0.000144389
0.000141535
-0.000167318
0.000136922
-0.000189357
0.000132073
-0.000210496
0.000127022
-0.000230716
0.000121758
-0.000249988
0.000116299
-0.000268304
0.000110646
-0.000285659
0.000104827
-0.000302031
9.88414e-05
-0.000317406
9.27118e-05
-0.000331759
8.64489e-05
-0.000345083
8.00744e-05
-0.000357368
7.36101e-05
-0.000368598
6.70682e-05
-0.000378772
6.04657e-05
-0.000387888
5.38276e-05
-0.000395939
4.71592e-05
-0.00040293
4.04796e-05
-0.000408866
3.38122e-05
-0.000413743
2.71595e-05
-0.000417572
2.05553e-05
-0.000420357
1.40015e-05
-0.000422119
7.52128e-06
-0.000422894
1.12693e-06
-0.000422493
-5.21114e-06
-0.00042113
-1.13744e-05
-0.000418793
-1.74065e-05
-0.00041549
-2.33099e-05
-0.000411218
-2.90686e-05
-0.00040601
-3.46559e-05
-0.000399867
-4.0078e-05
-0.000392812
-4.53159e-05
-0.000384854
-5.03832e-05
-0.000376042
-5.5235e-05
-0.000366387
-5.9897e-05
-0.000355932
-6.43415e-05
-0.000344681
-6.85888e-05
-0.000332672
-7.26058e-05
-0.000319921
-7.64223e-05
-0.000306468
-8.00004e-05
-0.000292335
-8.33671e-05
-0.000277555
-8.65108e-05
-0.00026216
-8.94381e-05
-0.00024619
-9.21449e-05
-0.000229673
-9.4653e-05
-0.000212647
-9.6934e-05
-0.000195171
-9.90025e-05
-0.000177224
-0.000100929
-0.000158907
-0.00010256
-0.000140144
-0.000104238
-0.000121131
-0.00010527
-0.000101789
-0.00010633
-8.24146e-05
-0.000105845
-6.22868e-05
-0.000109233
-3.99299e-05
-0.000121416
-1.4486e-05
-0.000141713
-7.65878e-05
3.76236e-05
-0.000252608
8.19199e-05
-0.000297862
0.000123731
-0.000280623
0.00016416
-0.00027189
0.000204564
-0.000271496
0.000244512
-0.000269162
0.000284262
-0.000267429
0.000323429
-0.000264188
0.000362181
-0.000261244
0.000400308
-0.000257523
0.000437862
-0.000253659
0.000474725
-0.000249286
0.000510859
-0.000244613
0.000546215
-0.000239558
0.000580753
-0.000234163
0.000614415
-0.000228417
0.000647159
-0.000222354
0.000678932
-0.00021593
0.000709695
-0.000209208
0.000739421
-0.000202201
0.000768043
-0.000194874
0.00079554
-0.00018728
0.000821885
-0.000179444
0.000847021
-0.000171313
0.000870924
-0.000162956
0.000893561
-0.00015439
0.00091491
-0.000145608
0.000934942
-0.000136634
0.000953634
-0.00012749
0.000970956
-0.000118162
0.000986877
-0.000108717
0.0010014
-9.91352e-05
0.00101448
-8.94424e-05
0.00102614
-7.96581e-05
0.00103632
-6.97917e-05
0.00104504
-5.98695e-05
0.00105228
-4.98986e-05
0.00105804
-3.99021e-05
0.00106234
-2.99071e-05
0.00106515
-1.98998e-05
0.00106648
-9.92813e-06
0.00106638
1.82789e-08
0.00106476
9.879e-06
0.00106169
1.96796e-05
0.00105717
2.94068e-05
0.00105123
3.90272e-05
0.00104389
4.85172e-05
0.00103515
5.78722e-05
0.00102504
6.70759e-05
0.00101356
7.61233e-05
0.00100076
8.49805e-05
0.000986713
9.36091e-05
0.000971374
0.000102063
0.000954834
0.000110267
0.000937073
0.000118253
0.000918186
0.00012596
0.000898195
0.00013341
0.000877097
0.000140605
0.000854986
0.000147489
0.000831897
0.000154069
0.00080788
0.000160331
0.000782965
0.000166301
0.000757212
0.000171922
0.00073068
0.000177197
0.000703421
0.000182126
0.000675469
0.000186692
0.000646885
0.000190923
0.000617742
0.000194757
0.00058808
0.000198249
0.000557962
0.000201322
0.000527451
0.000204042
0.000496578
0.000206405
0.000465427
0.000208338
0.000434051
0.000209903
0.000402524
0.000211085
0.00037086
0.000211898
0.000339155
0.000212296
0.000307466
0.000212328
0.000275833
0.000212008
0.00024432
0.000211279
0.000212993
0.000210193
0.000181898
0.000208773
0.000151099
0.000206953
0.000120665
0.000204806
9.061e-05
0.000202321
6.10101e-05
0.000199512
3.1926e-05
0.000196334
3.41544e-06
0.000192858
-2.45093e-05
0.000189085
-5.1772e-05
0.000184981
-7.83322e-05
0.000180593
-0.000104141
0.00017592
-0.000129167
0.000170966
-0.000153377
0.000165745
-0.000176716
0.000160261
-0.000199168
0.000154526
-0.000220696
0.000148549
-0.000241269
0.000142331
-0.000260879
0.000135909
-0.000279505
0.000129273
-0.00029712
0.000122441
-0.000313707
0.000115429
-0.000329264
0.000108269
-0.000343784
0.000100969
-0.000357239
9.35299e-05
-0.000369629
8.6e-05
-0.000380943
7.83822e-05
-0.000391173
7.06959e-05
-0.000400312
6.29663e-05
-0.000408351
5.51981e-05
-0.000415297
4.74251e-05
-0.000421137
3.96531e-05
-0.00042589
3.19119e-05
-0.000429541
2.42066e-05
-0.000432102
1.65621e-05
-0.000433586
9.00517e-06
-0.000433993
1.53422e-06
-0.000433387
-5.81675e-06
-0.000431728
-1.30337e-05
-0.00042902
-2.01142e-05
-0.000425294
-2.70358e-05
-0.00042058
-3.37827e-05
-0.000414885
-4.03507e-05
-0.000408248
-4.67153e-05
-0.000400688
-5.28757e-05
-0.000392245
-5.88267e-05
-0.000382927
-6.45533e-05
-0.000372774
-7.00501e-05
-0.000361802
-7.53135e-05
-0.00035005
-8.03402e-05
-0.000337541
-8.51154e-05
-0.000324324
-8.9639e-05
-0.000310417
-9.39075e-05
-0.000295854
-9.79301e-05
-0.000280664
-0.000101701
-0.00026489
-0.000105212
-0.000248559
-0.000108476
-0.000231724
-0.000111488
-0.000214399
-0.000114259
-0.000196645
-0.000116756
-0.00017843
-0.000119144
-0.000159923
-0.000121067
-0.00014098
-0.000123181
-0.000121845
-0.000124405
-0.000102356
-0.000125819
-8.29699e-05
-0.000125232
-6.28626e-05
-0.00012934
-4.04885e-05
-0.00014379
-1.46147e-05
-0.000167587
-9.12026e-05
3.83305e-05
-0.000290938
8.34147e-05
-0.000342946
0.000125989
-0.000323198
0.000167129
-0.00031303
0.000208232
-0.000312599
0.000248935
-0.000309864
0.000289386
-0.00030788
0.000329294
-0.000304095
0.000368753
-0.000300703
0.000407606
-0.000296375
0.000445845
-0.000291899
0.000483412
-0.000286853
0.000520236
-0.000281436
0.000556281
-0.000275604
0.000591474
-0.000269356
0.000625785
-0.000262729
0.000659155
-0.000255724
0.000691541
-0.000248316
0.000722899
-0.000240566
0.000753176
-0.000232478
0.000782361
-0.000224058
0.000810386
-0.000215304
0.000837206
-0.000206264
0.000862807
-0.000196914
0.000887161
-0.00018731
0.000910207
-0.000177437
0.000931935
-0.000167335
0.000952312
-0.000157012
0.000971297
-0.000146474
0.000988905
-0.000135771
0.00100508
-0.000124895
0.00101981
-0.000113864
0.00103309
-0.000102717
0.00104488
-9.14529e-05
0.00105519
-8.01043e-05
0.001064
-6.86756e-05
0.00107131
-5.72056e-05
0.00107711
-4.57016e-05
0.00108138
-3.41812e-05
0.00108416
-2.26777e-05
0.0010854
-1.11737e-05
0.00108515
2.71237e-07
0.00108339
1.16363e-05
0.00108014
2.29335e-05
0.00107543
3.4117e-05
0.00106927
4.51866e-05
0.00106166
5.61284e-05
0.00105262
6.69116e-05
0.00104218
7.75192e-05
0.00103038
8.79174e-05
0.00101724
9.81194e-05
0.00100276
0.000108095
0.000987
0.00011782
0.00096998
0.000127287
0.000951769
0.000136464
0.000932355
0.000145374
0.000911796
0.000153969
0.000890173
0.000162228
0.000867503
0.000170159
0.000843813
0.000177759
0.00081917
0.000184974
0.000793655
0.000191817
0.000767275
0.000198302
0.000740071
0.000204401
0.000712141
0.000210055
0.000683497
0.000215336
0.000654222
0.000220199
0.00062437
0.000224609
0.000593994
0.000228626
0.000563147
0.000232169
0.000531889
0.000235299
0.000500313
0.000237982
0.00046843
0.000240221
0.000436327
0.000242006
0.000404059
0.000243353
0.000371678
0.000244279
0.000339247
0.000244726
0.000306832
0.000244742
0.000274506
0.000244334
0.000242277
0.000243508
0.000210255
0.000242215
0.000178493
0.000240535
0.000147017
0.000238429
0.000115909
0.000235913
8.52196e-05
0.000233011
5.50135e-05
0.000229718
2.53249e-05
0.000226023
-3.8024e-06
0.000221985
-3.2307e-05
0.00021759
-6.01307e-05
0.000212805
-8.72338e-05
0.000207696
-0.000113575
0.000202261
-0.000139121
0.000196512
-0.000163816
0.000190441
-0.000187645
0.00018409
-0.000210561
0.000177442
-0.000232535
0.000170524
-0.000253541
0.000163337
-0.000273551
0.000155919
-0.000292547
0.000148269
-0.000310523
0.000140417
-0.000327454
0.00013236
-0.000343317
0.000124132
-0.00035809
0.000115742
-0.000371772
0.000107212
-0.000384343
9.85701e-05
-0.000395796
8.98359e-05
-0.000406126
8.10256e-05
-0.000415322
7.2162e-05
-0.000423386
6.32629e-05
-0.00043032
5.43591e-05
-0.000436118
4.54512e-05
-0.000440778
3.65717e-05
-0.000444318
2.77466e-05
-0.000446736
1.89798e-05
-0.000448038
1.03079e-05
-0.000448233
1.72924e-06
-0.000447337
-6.7136e-06
-0.000445362
-1.50079e-05
-0.000442332
-2.3145e-05
-0.000438274
-3.10934e-05
-0.000433184
-3.88727e-05
-0.000427113
-4.64217e-05
-0.00042006
-5.37678e-05
-0.000412062
-6.08739e-05
-0.000403144
-6.77449e-05
-0.000393336
-7.43614e-05
-0.000382668
-8.07179e-05
-0.000371163
-8.68187e-05
-0.000358885
-9.26182e-05
-0.000345849
-9.81517e-05
-0.000332087
-0.000103401
-0.000317637
-0.000108357
-0.000302536
-0.000113031
-0.00028683
-0.000117408
-0.000270549
-0.000121492
-0.000253734
-0.000125292
-0.000236409
-0.000128812