/*--------------------------------*- C++ -*----------------------------------*\
| =========                 |                                                 |
| \\      /  F ield         | OpenFOAM: The Open Source CFD Toolbox           |
|  \\    /   O peration     | Version:  v2006                                 |
|   \\  /    A nd           | Website:  www.openfoam.com                      |
|    \\/     M anipulation  |                                                 |
\*---------------------------------------------------------------------------*/
FoamFile
{
    version     2.0;
    format      ascii;
    class       volScalarField;
    location    "0";
    object      shifted_f;
}
// * * * * * * * * * * * * * * * * * * * * * * * * * * * * * * * * * * * * * //

dimensions      [0 0 0 0 0 0 0];


internalField   nonuniform List<scalar> 
2500
(
0.0112491
0.0112495
0.0112354
0.0113594
0.0113653
0.0108931
0.0108631
0.0109009
0.0108791
0.0108252
0.0108305
0.0108304
0.0108321
0.0108332
0.0108334
0.0108342
0.0108342
0.0108344
0.0108356
0.0108346
0.010836
0.0108365
0.0108364
0.0108382
0.0108383
0.010839
0.0108381
0.0108743
0.0107935
0.0101902
0.0100632
0.00375079
0.00673108
0.00842742
0.00843587
0.00842724
0.00842677
0.00842714
0.00842766
0.00842777
0.00842737
0.00842684
0.00842753
0.00842713
0.00842687
0.00842654
0.00842691
0.00842753
0.00842603
0.00842738
0.0084263
0.0084153
0.00840737
0.00841018
0.00834949
0.00821057
0.00733557
0.00822903
0.00813542
0.00799219
0.00799209
0.00799232
0.00799389
0.00799477
0.00799514
0.00799581
0.00799538
0.00799496
0.00799462
0.00799618
0.00799543
0.00799606
0.00799659
0.00799661
0.00799646
0.00799711
0.00805824
0.00806336
0.00785355
0.00775935
0.00792404
0.00675621
0.00525275
0.00810784
0.0083681
0.00833863
0.00834166
0.00834073
0.00834185
0.00834137
0.00834282
0.00834264
0.00834244
0.00834237
0.0083433
0.00834284
0.00834358
0.00834321
0.00834305
0.00834282
0.00834351
0.00834399
0.00834467
0.00834869
0.00846362
0.00845063
0.00756434
0.00751666
0.00755001
0.00767026
0.0076681
0.00767372
0.00767608
0.00767799
0.00767723
0.00767889
0.00767863
0.0076782
0.00767896
0.00767994
0.00768023
0.00767989
0.00768039
0.00768245
0.00768267
0.00768253
0.00768419
0.00768182
0.00771251
0.00788211
0.00741011
0.00802793
0.00110365
0.00333738
0.00423241
0.00419926
0.00419285
0.00419444
0.00419467
0.00419454
0.00419498
0.00419481
0.00419476
0.00419571
0.00419508
0.00419485
0.00419516
0.00419485
0.00419438
0.00419471
0.00419493
0.00419584
0.00420042
0.00418948
0.00418996
0.00411814
0.00393189
0.0025366
0.00352484
0.0036308
0.00356788
0.00356456
0.00356656
0.00356662
0.00356847
0.00356929
0.00356913
0.00356894
0.00356834
0.00356884
0.00356756
0.00356862
0.00356856
0.0035688
0.00356901
0.00356977
0.00356976
0.00358617
0.0035802
0.00339122
0.00332758
0.00305048
0.00151183
0.000273806
0.00192887
0.00200004
0.00197279
0.00197716
0.00197687
0.00197871
0.00197798
0.00197899
0.00197917
0.00197909
0.0019788
0.00197849
0.00197885
0.00197922
0.00197817
0.00197852
0.00197832
0.00197885
0.00197907
0.00198065
0.00199503
0.00202687
0.00198738
0.000732139
0.000671018
0.000675171
0.000928525
0.000991292
0.000995233
0.000997403
0.00099919
0.000998824
0.000999139
0.00100006
0.000999521
0.00100022
0.000999416
0.000999915
0.0010006
0.00100188
0.00100247
0.00100291
0.00100258
0.00100258
0.00100099
0.00101653
0.00121223
0.00092845
0.00193653
-0.00424631
-0.00283667
-0.00245284
-0.00249511
-0.00249773
-0.00249445
-0.0024949
-0.00249347
-0.00249326
-0.00249437
-0.00249243
-0.00249438
-0.00249297
-0.00249456
-0.00249386
-0.00249386
-0.00249444
-0.0024946
-0.00249375
-0.00249298
-0.00248064
-0.00248244
-0.00248587
-0.0025189
-0.00272247
-0.00453204
-0.00387637
-0.00352731
-0.0033446
-0.00334861
-0.00334417
-0.00334334
-0.00334308
-0.00334299
-0.00334336
-0.00334256
-0.00334401
-0.00334416
-0.00334366
-0.00334393
-0.00334342
-0.00334324
-0.00334394
-0.00334285
-0.00334244
-0.00337403
-0.00339167
-0.00354049
-0.00355363
-0.00396925
-0.00545992
-0.00631615
-0.00550918
-0.00552429
-0.00554335
-0.00553576
-0.00553573
-0.00553482
-0.00553539
-0.00553529
-0.00553503
-0.00553481
-0.00553535
-0.005536
-0.00553621
-0.00553658
-0.00553622
-0.00553669
-0.0055365
-0.00553589
-0.00553633
-0.00553743
-0.00552748
-0.0056393
-0.00565561
-0.00713939
-0.00719712
-0.0072454
-0.00677372
-0.00668653
-0.00668357
-0.00668253
-0.00668176
-0.0066823
-0.00668183
-0.00668181
-0.00668217
-0.00668247
-0.006682
-0.00668184
-0.00668129
-0.00668143
-0.00668092
-0.00668071
-0.00668012
-0.00668019
-0.00668221
-0.0066837
-0.0066688
-0.00642681
-0.00544947
-0.0100593
-0.00930889
-0.00919158
-0.0092292
-0.00922642
-0.00922246
-0.00922312
-0.00922336
-0.00922237
-0.00922302
-0.00922348
-0.00922259
-0.00922388
-0.00922326
-0.00922371
-0.00922488
-0.00922384
-0.00922283
-0.00922368
-0.00922379
-0.00921997
-0.00921397
-0.00922042
-0.00915405
-0.00936078
-0.0112271
-0.0116277
-0.0110752
-0.0106858
-0.0106868
-0.0106865
-0.0106848
-0.0106865
-0.0106853
-0.010686
-0.0106865
-0.0106856
-0.0106868
-0.0106865
-0.0106874
-0.0106879
-0.0106865
-0.0106873
-0.0106867
-0.0106867
-0.010765
-0.0107863
-0.0109299
-0.0108868
-0.0110044
-0.0121658
-0.0126614
-0.0123421
-0.012383
-0.0123917
-0.0123849
-0.0123843
-0.0123845
-0.0123835
-0.012384
-0.012384
-0.0123848
-0.0123846
-0.0123858
-0.0123862
-0.0123862
-0.0123864
-0.0123862
-0.0123864
-0.0123869
-0.0123871
-0.0123878
-0.012395
-0.012603
-0.0124832
-0.0139209
-0.0139389
-0.014053
-0.0133649
-0.0133316
-0.0133331
-0.0133303
-0.0133324
-0.0133314
-0.0133312
-0.0133323
-0.0133314
-0.0133334
-0.0133338
-0.0133339
-0.0133327
-0.0133333
-0.0133351
-0.0133341
-0.0133346
-0.0133349
-0.0133353
-0.0133492
-0.0135514
-0.0123391
-0.0116497
-0.0145184
-0.0141876
-0.0141848
-0.0142111
-0.0142028
-0.0142013
-0.0142011
-0.014202
-0.0142011
-0.0142022
-0.0142033
-0.0142026
-0.0142037
-0.0142028
-0.0142037
-0.014204
-0.0142046
-0.0142049
-0.0142042
-0.0142061
-0.0142104
-0.0142073
-0.014209
-0.0140283
-0.0142804
-0.0153718
-0.0177064
-0.0171066
-0.0169044
-0.0169016
-0.0169
-0.0169006
-0.0169027
-0.0169015
-0.0169022
-0.0169024
-0.0169026
-0.0169027
-0.0169044
-0.0169031
-0.0169032
-0.0169042
-0.0169046
-0.0169046
-0.0169031
-0.0170134
-0.0170331
-0.0172037
-0.0171184
-0.0168771
-0.0176272
-0.0178639
-0.0177771
-0.0178159
-0.0178144
-0.017807
-0.0178067
-0.0178068
-0.0178072
-0.0178089
-0.0178081
-0.0178087
-0.0178085
-0.0178095
-0.0178097
-0.0178095
-0.0178114
-0.0178097
-0.0178101
-0.0178124
-0.0178117
-0.0178106
-0.0178273
-0.0179552
-0.0175946
-0.018483
-0.0183982
-0.0185592
-0.0183106
-0.0183864
-0.018394
-0.0183936
-0.0183956
-0.0183963
-0.0183955
-0.0183973
-0.0183976
-0.0183981
-0.0183988
-0.0183992
-0.0184007
-0.018401
-0.0184003
-0.0184022
-0.0184025
-0.0184028
-0.0184015
-0.0184268
-0.0186898
-0.0168719
-0.0164883
-0.0179456
-0.0178314
-0.017863
-0.0178749
-0.0178653
-0.0178625
-0.0178639
-0.017865
-0.0178655
-0.0178656
-0.0178667
-0.0178675
-0.0178671
-0.0178683
-0.0178689
-0.0178695
-0.0178693
-0.0178701
-0.0178709
-0.0178723
-0.0178772
-0.0178749
-0.0178689
-0.0176647
-0.018021
-0.0166905
-0.0213479
-0.0211748
-0.0217765
-0.0217689
-0.0217671
-0.0217688
-0.0217669
-0.0217661
-0.0217668
-0.0217681
-0.021768
-0.0217678
-0.0217675
-0.0217678
-0.021767
-0.0217669
-0.0217682
-0.0217686
-0.0217677
-0.0218695
-0.0218834
-0.0220451
-0.0219558
-0.0216258
-0.0220159
-0.0221041
-0.022108
-0.0221323
-0.0221243
-0.0221162
-0.0221167
-0.0221171
-0.0221177
-0.0221185
-0.0221177
-0.0221177
-0.0221184
-0.0221183
-0.0221205
-0.0221184
-0.0221194
-0.022118
-0.0221187
-0.0221196
-0.0221187
-0.0221162
-0.0221244
-0.0220329
-0.0214719
-0.0208376
-0.0205754
-0.0206732
-0.022712
-0.0228984
-0.0229028
-0.0229062
-0.0229059
-0.0229053
-0.0229055
-0.0229055
-0.0229079
-0.022908
-0.0229081
-0.0229091
-0.0229083
-0.0229094
-0.0229103
-0.0229104
-0.0229115
-0.0229102
-0.0229097
-0.0229462
-0.0230381
-0.0216878
-0.0215278
-0.0221023
-0.0220824
-0.0221142
-0.0221137
-0.0221018
-0.0221004
-0.022103
-0.0221025
-0.0221029
-0.0221037
-0.0221051
-0.0221053
-0.0221054
-0.0221067
-0.0221046
-0.022106
-0.0221065
-0.0221065
-0.0221067
-0.022107
-0.0221069
-0.0221001
-0.0220953
-0.0220053
-0.0223862
-0.0159619
-0.0210507
-0.0227247
-0.0240337
-0.0240256
-0.02403
-0.0240317
-0.0240305
-0.0240288
-0.0240299
-0.0240291
-0.0240289
-0.0240285
-0.0240286
-0.0240287
-0.0240277
-0.0240282
-0.0240278
-0.0240264
-0.0240273
-0.0240973
-0.0241058
-0.0241493
-0.0241027
-0.0238512
-0.0239982
-0.0240205
-0.0240476
-0.0240552
-0.0240447
-0.0240387
-0.0240381
-0.024039
-0.0240391
-0.0240403
-0.0240386
-0.0240379
-0.0240372
-0.024039
-0.0240378
-0.0240365
-0.0240376
-0.0240373
-0.0240363
-0.024036
-0.0240352
-0.0240323
-0.0240304
-0.0238291
-0.0233154
-0.0192666
-0.0188333
-0.0185562
-0.0236403
-0.0238115
-0.0238228
-0.0238231
-0.023821
-0.023818
-0.0238193
-0.0238204
-0.02382
-0.0238196
-0.0238185
-0.0238191
-0.0238204
-0.023819
-0.0238177
-0.0238182
-0.0238169
-0.0238172
-0.0238149
-0.0238536
-0.0236767
-0.0230463
-0.0230249
-0.0231776
-0.0231877
-0.023207
-0.023196
-0.0231864
-0.0231845
-0.0231848
-0.0231862
-0.0231876
-0.0231862
-0.023185
-0.0231843
-0.0231856
-0.0231842
-0.0231843
-0.0231838
-0.0231829
-0.0231827
-0.0231821
-0.0231817
-0.0231775
-0.0231672
-0.0231676
-0.0232047
-0.0231646
-0.00943252
-0.00610307
-0.0113812
-0.0118048
-0.0118
-0.0118052
-0.0118056
-0.011805
-0.0118049
-0.0118074
-0.0118079
-0.0118095
-0.0118111
-0.0118112
-0.0118123
-0.0118135
-0.0118143
-0.0118142
-0.0118152
-0.0118169
-0.0118713
-0.0118702
-0.0117159
-0.0117231
-0.0115462
-0.0115792
-0.0115777
-0.011603
-0.0115989
-0.0115866
-0.0115826
-0.0115853
-0.0115863
-0.0115877
-0.0115892
-0.011589
-0.0115901
-0.0115918
-0.0115915
-0.0115895
-0.0115911
-0.0115916
-0.0115915
-0.0115922
-0.0115915
-0.0115919
-0.0115921
-0.0115818
-0.0115504
-0.0113885
-0.00144309
-0.00127922
-5.19914e-05
-0.0012704
-0.0013152
-0.00133302
-0.00133586
-0.00133337
-0.00133374
-0.00133284
-0.0013347
-0.00133505
-0.00133517
-0.00133483
-0.00133578
-0.00133665
-0.0013347
-0.00133445
-0.00133452
-0.00133431
-0.00133381
-0.001331
-0.00134224
-0.000959668
-0.000640559
-0.000666957
-0.000663498
-0.000680121
-0.00068357
-0.000670809
-0.000662013
-0.000663181
-0.000663241
-0.000664032
-0.000664147
-0.000664392
-0.00066187
-0.000664112
-0.00066241
-0.000661935
-0.000660701
-0.000659324
-0.000658673
-0.000657262
-0.000655997
-0.000653822
-0.000650321
-0.000643887
-0.000647672
-0.000681713
0.000624767
0.0139241
0.0468372
0.0431312
0.0452327
0.0452427
0.0452382
0.0452345
0.045232
0.045226
0.0452209
0.0452165
0.0452126
0.0452078
0.0452032
0.0451986
0.0451951
0.0451899
0.0451866
0.0451822
0.0451786
0.0451468
0.0451533
0.0454182
0.0454013
0.0454951
0.0454942
0.0455001
0.0454831
0.0454888
0.045497
0.0454941
0.0454881
0.0454857
0.0454799
0.0454781
0.0454752
0.0454688
0.045466
0.0454642
0.0454618
0.0454587
0.0454561
0.0454526
0.0454504
0.045448
0.0454466
0.0454443
0.0454488
0.0452575
0.0447786
0.0579549
0.0563631
0.0578146
0.0705046
0.070368
0.0703584
0.0703549
0.0703526
0.0703514
0.0703501
0.0703449
0.0703427
0.0703432
0.0703407
0.0703376
0.0703353
0.0703346
0.0703339
0.070332
0.0703281
0.070328
0.0703269
0.0703572
0.0706977
0.0708241
0.0708035
0.0708406
0.0708287
0.0708346
0.0708476
0.0708497
0.0708486
0.0708461
0.0708429
0.0708446
0.0708442
0.0708411
0.0708412
0.0708419
0.0708441
0.0708442
0.0708455
0.0708459
0.0708463
0.0708466
0.0708482
0.0708505
0.0708478
0.0708457
0.0708301
0.0736308
0.0484163
0.102053
0.113567
0.117132
0.117141
0.117137
0.117135
0.117135
0.117131
0.117127
0.117125
0.117122
0.117121
0.117116
0.117113
0.117113
0.11711
0.117106
0.117105
0.117103
0.117106
0.117107
0.117297
0.117288
0.11731
0.117317
0.117322
0.117317
0.117331
0.117336
0.11733
0.117327
0.117323
0.11732
0.117316
0.117314
0.117314
0.117308
0.11731
0.117306
0.117305
0.117302
0.1173
0.1173
0.117297
0.117297
0.117291
0.117294
0.11712
0.116055
0.11208
0.108515
0.106549
0.133184
0.132939
0.132957
0.132954
0.132954
0.13295
0.13295
0.132945
0.132944
0.132943
0.13294
0.132938
0.132937
0.132933
0.132933
0.132928
0.132927
0.132923
0.132921
0.132936
0.133117
0.133092
0.133081
0.133112
0.133104
0.133114
0.133124
0.13312
0.133117
0.133112
0.133109
0.133107
0.133103
0.133102
0.133101
0.133098
0.133095
0.133095
0.133091
0.133091
0.133089
0.133088
0.133085
0.13308
0.13307
0.133066
0.133059
0.13498
0.0529502
0.0241209
0.0550606
0.0573096
0.0573031
0.0573002
0.0573047
0.0573092
0.0573132
0.0573169
0.0573203
0.0573222
0.0573278
0.0573296
0.0573338
0.0573361
0.0573401
0.057342
0.0573445
0.0573488
0.0573273
0.0573212
0.0574176
0.0574105
0.0574043
0.057412
0.0574202
0.0574293
0.0574462
0.0574479
0.0574478
0.0574455
0.057445
0.0574452
0.0574486
0.0574498
0.057453
0.0574536
0.0574547
0.0574549
0.0574573
0.0574602
0.0574592
0.0574587
0.0574588
0.0574593
0.0574593
0.0574525
0.0574104
0.0566971
0.0230449
0.0224959
0.0154284
0.0421016
0.0422629
0.0422796
0.0422747
0.0422714
0.042267
0.0422626
0.0422579
0.0422547
0.0422504
0.0422452
0.0422413
0.0422372
0.0422284
0.0422258
0.0422204
0.0422149
0.0422075
0.0422044
0.042168
0.0422752
0.0421996
0.0421924
0.0421976
0.0421927
0.0422002
0.0421988
0.0421833
0.0421758
0.0421663
0.0421575
0.0421545
0.0421444
0.0421365
0.0421286
0.0421215
0.042111
0.0421052
0.0420943
0.0420856
0.0420753
0.0420656
0.0420568
0.0420395
0.0420207
0.0420155
0.0421567
0.0418028
-0.0196344
-0.186752
-0.151008
-0.153421
-0.153461
-0.153468
-0.153466
-0.153464
-0.153459
-0.153456
-0.153454
-0.153449
-0.153444
-0.15344
-0.153435
-0.153436
-0.153431
-0.15343
-0.153425
-0.153425
-0.15348
-0.153459
-0.153383
-0.153387
-0.153403
-0.1534
-0.153396
-0.153386
-0.153374
-0.153375
-0.15338
-0.153381
-0.153383
-0.153374
-0.153375
-0.153368
-0.15337
-0.153373
-0.153369
-0.153367
-0.153368
-0.15337
-0.153368
-0.153367
-0.153367
-0.153369
-0.153372
-0.153384
-0.153451
-0.154083
-0.200866
-0.19495
-0.203398
-0.220004
-0.219474
-0.219491
-0.219497
-0.219501
-0.21951
-0.219515
-0.219522
-0.219529
-0.219535
-0.219542
-0.219548
-0.219556
-0.219564
-0.219571
-0.219577
-0.219588
-0.219593
-0.219603
-0.219623
-0.219546
-0.219616
-0.219623
-0.219635
-0.219642
-0.219638
-0.219648
-0.219668
-0.219684
-0.219696
-0.219696
-0.219709
-0.219713
-0.219728
-0.219739
-0.219751
-0.219762
-0.219776
-0.219789
-0.2198
-0.219813
-0.219826
-0.219843
-0.219865
-0.219886
-0.219892
-0.219819
-0.222781
-0.191345
-0.408823
-0.418731
-0.441409
-0.441444
-0.441449
-0.441448
-0.441451
-0.441451
-0.441448
-0.441446
-0.441445
-0.441446
-0.441446
-0.441444
-0.44144
-0.441443
-0.441444
-0.441441
-0.441441
-0.441381
-0.441356
-0.441295
-0.441301
-0.441315
-0.441317
-0.441319
-0.441309
-0.441303
-0.441311
-0.441323
-0.441323
-0.44131
-0.441316
-0.441311
-0.441312
-0.441312
-0.441311
-0.441315
-0.441315
-0.441319
-0.441318
-0.441322
-0.441325
-0.441327
-0.441326
-0.441331
-0.441345
-0.441472
-0.442865
-0.479624
-0.469391
-0.469929
-0.628926
-0.629526
-0.629562
-0.629571
-0.629579
-0.629586
-0.629591
-0.629597
-0.629606
-0.629612
-0.629623
-0.629627
-0.629631
-0.629638
-0.629648
-0.629651
-0.629661
-0.629669
-0.629678
-0.629679
-0.629621
-0.629666
-0.629667
-0.629689
-0.629694
-0.629693
-0.629707
-0.629727
-0.62974
-0.629739
-0.629747
-0.629755
-0.629765
-0.629771
-0.62978
-0.629792
-0.629802
-0.629813
-0.629819
-0.629831
-0.629844
-0.629856
-0.629864
-0.629885
-0.629906
-0.629915
-0.630299
-0.63766
-0.490583
-0.582616
-0.722564
-0.793421
-0.793414
-0.79342
-0.793429
-0.793439
-0.793447
-0.793454
-0.793459
-0.793466
-0.793472
-0.793475
-0.793484
-0.793492
-0.793496
-0.793503
-0.793506
-0.793515
-0.793419
-0.793416
-0.793386
-0.793394
-0.793412
-0.793421
-0.79343
-0.793426
-0.793434
-0.79345
-0.793464
-0.793462
-0.793469
-0.793476
-0.79348
-0.793482
-0.793491
-0.793498
-0.793502
-0.793512
-0.793517
-0.793523
-0.79353
-0.793535
-0.793545
-0.793551
-0.793561
-0.793574
-0.793627
-0.794776
-0.784166
-0.776107
-0.755788
-1.14935
-1.15262
-1.15265
-1.15267
-1.15268
-1.1527
-1.15271
-1.15272
-1.15274
-1.15275
-1.15276
-1.15277
-1.15278
-1.15279
-1.1528
-1.15281
-1.15282
-1.15282
-1.15284
-1.15284
-1.1528
-1.15283
-1.15283
-1.15286
-1.15286
-1.15286
-1.15288
-1.1529
-1.15289
-1.1529
-1.1529
-1.15291
-1.15291
-1.15292
-1.15293
-1.15293
-1.15294
-1.15295
-1.15295
-1.15296
-1.15296
-1.15297
-1.15298
-1.15299
-1.153
-1.15301
-1.15397
-1.16486
-0.96035
-0.694623
-1.02621
-1.14465
-1.14464
-1.14466
-1.14468
-1.1447
-1.14473
-1.14475
-1.14477
-1.14479
-1.14481
-1.14483
-1.14485
-1.14487
-1.14489
-1.1449
-1.14492
-1.14494
-1.14505
-1.14507
-1.14507
-1.14509
-1.14511
-1.14513
-1.14514
-1.14516
-1.14519
-1.14521
-1.14519
-1.1452
-1.14522
-1.14523
-1.14524
-1.14526
-1.14527
-1.14529
-1.1453
-1.14531
-1.14533
-1.14535
-1.14536
-1.14538
-1.14539
-1.14541
-1.14542
-1.14543
-1.14527
-1.1433
-1.05944
-1.06185
-1.00979
-1.62033
-1.62591
-1.62593
-1.62596
-1.62599
-1.62602
-1.62604
-1.62606
-1.62609
-1.62611
-1.62613
-1.62615
-1.62617
-1.62618
-1.6262
-1.62621
-1.62622
-1.62624
-1.62625
-1.62625
-1.62624
-1.62625
-1.62625
-1.62627
-1.62628
-1.6263
-1.62631
-1.62627
-1.62627
-1.62627
-1.62627
-1.62627
-1.62628
-1.62627
-1.62628
-1.62628
-1.62628
-1.62628
-1.62628
-1.62628
-1.62628
-1.62627
-1.62627
-1.62627
-1.62626
-1.62627
-1.62739
-1.63473
-1.49532
-0.660661
-1.17316
-1.30626
-1.30629
-1.30633
-1.30637
-1.30641
-1.30645
-1.30649
-1.30653
-1.30657
-1.3066
-1.30663
-1.30667
-1.30671
-1.30673
-1.30676
-1.3068
-1.30682
-1.30692
-1.30694
-1.30695
-1.30698
-1.30701
-1.30703
-1.30706
-1.30709
-1.30713
-1.3071
-1.30712
-1.30715
-1.30716
-1.30719
-1.30721
-1.30724
-1.30725
-1.30727
-1.3073
-1.30731
-1.30733
-1.30735
-1.30738
-1.30739
-1.30741
-1.30743
-1.30745
-1.30746
-1.30697
-1.29975
-1.16751
-1.18702
-1.10398
-1.8016
-1.8069
-1.80693
-1.80698
-1.80703
-1.80707
-1.80711
-1.80715
-1.80719
-1.80723
-1.80725
-1.80728
-1.80731
-1.80734
-1.80736
-1.80738
-1.8074
-1.80742
-1.80743
-1.80744
-1.80744
-1.80744
-1.80745
-1.80746
-1.80747
-1.80749
-1.80744
-1.80743
-1.80744
-1.80744
-1.80744
-1.80743
-1.80742
-1.80742
-1.80742
-1.8074
-1.8074
-1.80738
-1.80738
-1.80736
-1.80735
-1.80734
-1.80733
-1.80731
-1.80728
-1.80727
-1.80758
-1.80183
-1.82261
-0.422673
-1.01877
-1.13979
-1.13987
-1.13992
-1.13999
-1.14004
-1.1401
-1.14015
-1.1402
-1.14025
-1.14029
-1.14034
-1.14038
-1.14043
-1.14047
-1.1405
-1.14054
-1.14058
-1.14045
-1.14049
-1.14051
-1.14053
-1.14056
-1.14059
-1.14062
-1.14066
-1.14064
-1.14067
-1.14069
-1.14071
-1.14074
-1.14075
-1.14078
-1.1408
-1.14083
-1.14084
-1.14086
-1.14088
-1.1409
-1.14092
-1.14094
-1.14095
-1.14097
-1.14099
-1.14101
-1.14101
-1.14018
-1.13028
-0.993323
-1.03042
-0.933382
-1.53236
-1.53506
-1.53513
-1.5352
-1.53527
-1.53532
-1.53539
-1.53544
-1.5355
-1.53554
-1.53558
-1.53563
-1.53567
-1.53571
-1.53574
-1.53577
-1.5358
-1.53583
-1.53585
-1.53587
-1.53588
-1.53588
-1.5359
-1.5359
-1.53592
-1.53588
-1.53588
-1.53589
-1.53589
-1.53589
-1.53587
-1.53587
-1.53587
-1.53586
-1.53585
-1.53585
-1.53582
-1.53581
-1.5358
-1.53577
-1.53576
-1.53574
-1.53572
-1.53569
-1.53565
-1.53563
-1.53401
-1.51141
-1.72114
-0.00755465
-0.538056
-0.610133
-0.610215
-0.610293
-0.610364
-0.61043
-0.610494
-0.610553
-0.610624
-0.610675
-0.610737
-0.610799
-0.610847
-0.610894
-0.610939
-0.610985
-0.611029
-0.611072
-0.61092
-0.610958
-0.610973
-0.611017
-0.61104
-0.611075
-0.611094
-0.611096
-0.611118
-0.611133
-0.611164
-0.611178
-0.611202
-0.611228
-0.611248
-0.61126
-0.611281
-0.611298
-0.611319
-0.611332
-0.611346
-0.611361
-0.611366
-0.61138
-0.611384
-0.611402
-0.611415
-0.611398
-0.610506
-0.605286
-0.477773
-0.528864
-0.440473
-0.765531
-0.765066
-0.765163
-0.765253
-0.765329
-0.765405
-0.765479
-0.765547
-0.765611
-0.765675
-0.765735
-0.765794
-0.765841
-0.765885
-0.765926
-0.765967
-0.766004
-0.766038
-0.766069
-0.766091
-0.766117
-0.766108
-0.766135
-0.766138
-0.766129
-0.766141
-0.766138
-0.766143
-0.766152
-0.766151
-0.766146
-0.76614
-0.766141
-0.766129
-0.766122
-0.766098
-0.766087
-0.766067
-0.766056
-0.766036
-0.766013
-0.765991
-0.76596
-0.765925
-0.765888
-0.76586
-0.762493
-0.720758
-1.154
0.570968
0.268388
0.276924
0.276845
0.276767
0.276687
0.276619
0.276548
0.276477
0.276411
0.276348
0.276294
0.276239
0.276179
0.276137
0.276085
0.276037
0.27599
0.275956
0.275989
0.275959
0.275937
0.275903
0.275884
0.275864
0.275836
0.275801
0.275773
0.275761
0.275738
0.275723
0.275705
0.275688
0.275677
0.275659
0.27566
0.275648
0.275638
0.275626
0.275625
0.275624
0.275623
0.275616
0.275616
0.275611
0.275621
0.275647
0.275976
0.270567
0.337646
0.274749
0.332676
0.355226
0.357957
0.357868
0.357781
0.357693
0.357636
0.357563
0.357492
0.357433
0.357379
0.357329
0.357275
0.357229
0.357184
0.357145
0.357107
0.357075
0.357056
0.357029
0.357
0.356983
0.357003
0.356981
0.356965
0.356961
0.356959
0.356952
0.356957
0.35696
0.356959
0.356963
0.356983
0.356991
0.357005
0.357034
0.357041
0.357059
0.357083
0.357115
0.35714
0.357174
0.357204
0.357238
0.357283
0.357336
0.357393
0.360424
0.417232
-0.352345
1.01348
1.00461
1.08505
1.08499
1.08492
1.08486
1.08481
1.08474
1.0847
1.08464
1.0846
1.08456
1.08451
1.08448
1.08445
1.0844
1.08438
1.08435
1.08432
1.08427
1.08424
1.08424
1.08421
1.08422
1.0842
1.08418
1.08418
1.08417
1.08416
1.08416
1.08415
1.08415
1.08414
1.08415
1.08416
1.08416
1.08417
1.08417
1.08418
1.08419
1.0842
1.08423
1.08424
1.08424
1.08427
1.08429
1.08432
1.08352
1.06689
0.936799
0.872198
0.887516
1.22203
1.22598
1.22591
1.22585
1.2258
1.22576
1.22571
1.22566
1.22562
1.22559
1.22556
1.22553
1.2255
1.22548
1.22545
1.22544
1.22542
1.22541
1.22541
1.22541
1.2254
1.22544
1.22545
1.22546
1.22547
1.22547
1.22551
1.22551
1.22553
1.22554
1.22557
1.22559
1.22561
1.22565
1.22568
1.22571
1.22575
1.22578
1.22582
1.22586
1.22591
1.22595
1.22601
1.22606
1.2261
1.22618
1.22756
1.26826
0.19748
0.901315
1.13198
1.24798
1.24792
1.24787
1.24783
1.2478
1.24777
1.24773
1.2477
1.24768
1.24766
1.24763
1.24761
1.24759
1.24758
1.24757
1.24756
1.24754
1.24747
1.24747
1.24746
1.24747
1.24745
1.24745
1.24745
1.24746
1.24747
1.24747
1.24748
1.24749
1.2475
1.24753
1.24753
1.24756
1.24758
1.24761
1.24763
1.24765
1.24768
1.24771
1.24774
1.24777
1.24779
1.24784
1.24787
1.24792
1.24611
1.22351
0.846366
0.79683
0.771755
1.29954
1.30384
1.30381
1.30377
1.30374
1.30372
1.30369
1.30367
1.30364
1.30363
1.30362
1.3036
1.30359
1.30358
1.30358
1.30359
1.30358
1.30359
1.30359
1.3036
1.30358
1.30353
1.30355
1.30355
1.30358
1.3036
1.30363
1.30365
1.30368
1.30371
1.30374
1.30379
1.30382
1.30386
1.30391
1.30394
1.30399
1.30404
1.30409
1.30414
1.3042
1.30425
1.3043
1.30438
1.30442
1.30452
1.30521
1.30499
0.192428
0.135793
0.522677
0.639726
0.639684
0.639649
0.639623
0.639613
0.639592
0.639569
0.639564
0.639539
0.639546
0.639529
0.639518
0.639512
0.63951
0.639507
0.639508
0.639512
0.639482
0.639476
0.639482
0.639483
0.639484
0.639495
0.639512
0.639526
0.639549
0.639562
0.639584
0.63961
0.639621
0.639654
0.639683
0.639711
0.639743
0.639771
0.639811
0.639842
0.639882
0.639926
0.639969
0.640003
0.640061
0.640097
0.640157
0.640183
0.637878
0.616326
0.0901824
0.06782
0.0140735
0.587368
0.591088
0.591064
0.591049
0.591036
0.591017
0.591002
0.590994
0.590993
0.590978
0.590985
0.590989
0.590982
0.590983
0.590995
0.591
0.591007
0.591012
0.591038
0.591053
0.591081
0.591097
0.591126
0.591148
0.591181
0.59121
0.59123
0.59126
0.591293
0.591329
0.591376
0.591415
0.59146
0.591516
0.591568
0.59161
0.591661
0.591724
0.591775
0.591838
0.591904
0.591968
0.592032
0.592089
0.592128
0.592214
0.591732
0.560098
-0.27358
-1.01019
-0.550668
-0.454298
-0.454328
-0.45435
-0.454364
-0.454378
-0.454385
-0.454396
-0.454391
-0.454413
-0.454417
-0.454403
-0.454418
-0.45442
-0.454414
-0.454406
-0.454408
-0.454398
-0.454402
-0.454393
-0.45441
-0.454403
-0.454389
-0.454375
-0.454346
-0.454332
-0.454312
-0.454298
-0.454267
-0.454254
-0.454223
-0.454193
-0.454157
-0.454124
-0.454096
-0.454056
-0.454022
-0.45398
-0.453938
-0.453885
-0.453844
-0.453797
-0.453744
-0.453699
-0.453638
-0.453614
-0.45633
-0.473895
-0.994274
-0.985708
-1.05576
-0.553631
-0.551159
-0.551179
-0.55119
-0.551193
-0.551202
-0.55121
-0.551207
-0.551204
-0.551206
-0.551196
-0.551192
-0.551184
-0.551178
-0.551176
-0.551165
-0.551155
-0.551137
-0.551121
-0.551097
-0.551066
-0.551044
-0.551023
-0.55099
-0.550976
-0.550938
-0.550911
-0.550879
-0.550841
-0.550793
-0.550761
-0.550721
-0.550687
-0.550626
-0.550582
-0.550529
-0.550483
-0.550416
-0.550364
-0.5503
-0.550237
-0.550169
-0.550098
-0.550049
-0.550005
-0.549961
-0.55359
-0.597793
-0.918159
-2.12663
-1.68343
-1.61698
-1.61698
-1.61699
-1.61701
-1.61702
-1.61702
-1.61703
-1.61703
-1.61704
-1.61704
-1.61704
-1.61704
-1.61704
-1.61704
-1.61704
-1.61703
-1.61703
-1.61701
-1.61699
-1.61694
-1.61694
-1.61693
-1.61691
-1.61691
-1.61689
-1.61687
-1.61686
-1.61683
-1.61681
-1.61679
-1.61676
-1.61673
-1.61671
-1.61667
-1.61663
-1.6166
-1.61656
-1.61651
-1.61647
-1.61643
-1.61639
-1.61633
-1.61628
-1.61623
-1.61625
-1.61851
-1.6325
-1.97615
-1.94031
-2.01498
-1.64435
-1.64324
-1.64325
-1.64326
-1.64327
-1.64327
-1.64327
-1.64327
-1.64327
-1.64327
-1.64327
-1.64327
-1.64326
-1.64326
-1.64325
-1.64325
-1.64324
-1.64323
-1.64321
-1.6432
-1.64315
-1.64314
-1.64312
-1.64309
-1.64308
-1.64305
-1.64304
-1.64302
-1.64299
-1.64295
-1.64291
-1.64289
-1.64285
-1.64282
-1.64276
-1.64272
-1.64267
-1.64262
-1.64257
-1.64253
-1.64247
-1.64241
-1.64235
-1.6423
-1.64228
-1.64224
-1.64851
-1.68636
-1.42957
-2.86385
-2.50671
-2.46881
-2.46881
-2.46882
-2.46882
-2.46884
-2.46884
-2.46884
-2.46885
-2.46885
-2.46886
-2.46886
-2.46886
-2.46887
-2.46887
-2.46887
-2.46887
-2.46887
)
;

boundaryField
{
    movingWall
    {
        type            zeroGradient;
    }
    fixedWalls
    {
        type            zeroGradient;
    }
    frontAndBack
    {
        type            empty;
    }
}

