/*--------------------------------*- C++ -*----------------------------------*\
| =========                 |                                                 |
| \\      /  F ield         | OpenFOAM: The Open Source CFD Toolbox           |
|  \\    /   O peration     | Version:  v2006                                 |
|   \\  /    A nd           | Website:  www.openfoam.com                      |
|    \\/     M anipulation  |                                                 |
\*---------------------------------------------------------------------------*/
FoamFile
{
    version     2.0;
    format      ascii;
    class       volScalarField;
    location    "0";
    object      f;
}
// * * * * * * * * * * * * * * * * * * * * * * * * * * * * * * * * * * * * * //

dimensions      [0 0 0 0 0 0 0];


internalField   nonuniform List<scalar> 
2500
(
-7.81988e-18
-1.35671e-17
-1.87833e-17
-2.53246e-17
-3.19976e-17
-3.86823e-17
-4.8376e-17
-4.78824e-17
-2.88176e-17
-8.61972e-19
1.51652e-17
9.20979e-18
-7.33057e-18
-1.66528e-17
-1.26834e-17
-3.45325e-18
1.4952e-18
9.09886e-19
-1.08938e-18
-1.96229e-18
-1.72095e-18
-1.09058e-18
-5.39377e-19
-2.00489e-19
-3.9393e-20
1.69745e-20
2.5945e-20
1.95866e-20
1.15763e-20
5.89829e-21
2.68962e-21
1.1181e-21
4.28e-22
1.51653e-22
4.98186e-23
1.51403e-23
4.22494e-24
1.06379e-24
2.3182e-25
3.85396e-26
1.89283e-27
-2.1317e-27
-1.31417e-27
-5.41985e-28
-1.89023e-28
-5.95497e-29
-1.74371e-29
-4.8185e-30
-1.26827e-30
-3.61711e-31
-9.61836e-18
-1.90198e-17
-2.32731e-17
-2.95401e-17
-3.9367e-17
-4.63528e-17
-6.58931e-17
-7.42282e-17
-4.79975e-17
2.7247e-19
3.42314e-17
2.53953e-17
-7.95362e-18
-3.00274e-17
-2.43712e-17
-5.81653e-18
4.81267e-18
3.22108e-18
-1.29827e-18
-3.12765e-18
-2.69956e-18
-1.62e-18
-7.37931e-19
-2.32627e-19
-1.314e-20
5.08076e-20
5.08554e-20
3.41977e-20
1.89706e-20
9.22809e-21
4.04176e-21
1.61507e-21
5.92539e-22
1.99866e-22
6.17355e-23
1.72505e-23
4.23263e-24
8.40104e-25
9.27051e-26
-2.36646e-26
-2.19208e-26
-1.0383e-26
-3.96866e-27
-1.34618e-27
-4.20509e-28
-1.23247e-28
-3.42669e-29
-9.10263e-30
-2.3218e-30
-6.43554e-31
-1.7224e-17
-4.3801e-17
-4.49539e-17
-5.13504e-17
-7.76665e-17
-8.21235e-17
-1.26587e-16
-1.65019e-16
-1.14364e-16
-2.49341e-18
9.38697e-17
7.90638e-17
-8.5479e-18
-7.42768e-17
-6.41832e-17
-1.47024e-17
1.60388e-17
1.0937e-17
-2.46288e-18
-7.27319e-18
-6.01067e-18
-3.38721e-18
-1.41551e-18
-3.64819e-19
5.18893e-20
1.48382e-19
1.25328e-19
7.87148e-20
4.18128e-20
1.96414e-20
8.32423e-21
3.21276e-21
1.13221e-21
3.62944e-22
1.04409e-22
2.6035e-23
5.08005e-24
4.32211e-25
-2.44695e-25
-1.87158e-25
-8.69998e-26
-3.34737e-26
-1.15204e-26
-3.66272e-27
-1.09408e-27
-3.1018e-28
-8.40287e-29
-2.18559e-29
-5.47763e-30
-1.49333e-30
-2.67815e-17
-1.12347e-16
-8.72027e-17
-8.25967e-17
-1.6303e-16
-1.37805e-16
-2.18655e-16
-3.64995e-16
-2.70914e-16
-2.08614e-17
2.49399e-16
2.43631e-16
9.85109e-18
-1.82311e-16
-1.71885e-16
-3.98826e-17
5.10679e-17
3.53612e-17
-5.41509e-18
-1.75093e-17
-1.33346e-17
-6.87049e-18
-2.54237e-18
-4.43041e-19
2.91206e-19
3.96248e-19
2.95544e-19
1.74543e-19
8.87726e-20
4.01481e-20
1.63736e-20
6.04921e-21
2.01761e-21
5.98518e-22
1.51653e-22
2.88611e-23
1.46105e-24
-2.18311e-24
-1.49566e-24
-6.89384e-25
-2.67978e-25
-9.37504e-26
-3.03716e-26
-9.25312e-27
-2.67648e-27
-7.39748e-28
-1.9627e-28
-5.01638e-29
-1.23848e-29
-3.32782e-30
-2.44787e-17
-3.25237e-16
-1.71736e-16
-1.13315e-16
-3.41447e-16
-2.05477e-16
-3.18207e-16
-8.15788e-16
-6.14604e-16
-7.27783e-17
8.79846e-16
8.01441e-16
8.95993e-17
-4.67531e-16
-4.89553e-16
-1.13698e-16
1.60109e-16
1.1448e-16
-1.56888e-17
-4.41449e-17
-2.93809e-17
-1.33312e-17
-4.10658e-18
-1.45594e-19
1.0013e-18
9.89069e-19
6.67997e-19
3.7236e-19
1.81029e-19
7.84347e-20
3.05103e-20
1.06259e-20
3.25999e-21
8.40893e-22
1.55336e-22
1.05342e-24
-1.73202e-23
-1.11655e-23
-5.15174e-24
-2.03112e-24
-7.2383e-25
-2.39255e-25
-7.4412e-26
-2.19739e-26
-6.19925e-27
-1.6784e-27
-4.37596e-28
-1.10168e-28
-2.68419e-29
-7.1194e-30
6.83939e-17
-1.08655e-15
-4.1495e-16
5.18301e-16
-5.32087e-16
-1.97276e-15
-4.29541e-15
-4.32793e-15
-1.19948e-15
1.34422e-15
1.00332e-14
2.33402e-15
8.71226e-17
-3.45737e-15
-1.76008e-15
-3.01134e-16
5.78879e-16
3.96264e-16
-5.96848e-17
-1.18069e-16
-6.34898e-17
-2.39764e-17
-5.35055e-18
1.47054e-18
2.87008e-18
2.33104e-18
1.44704e-18
7.62535e-19
3.53156e-19
1.45421e-19
5.31499e-20
1.69467e-20
4.47318e-21
8.05236e-22
-3.39408e-23
-1.23755e-22
-7.76962e-23
-3.62102e-23
-1.45388e-23
-5.28996e-24
-1.78662e-24
-5.67807e-25
-1.71298e-25
-4.93532e-26
-1.36404e-26
-3.62887e-27
-9.31839e-28
-2.31476e-28
-5.57294e-29
-1.46071e-29
2.23704e-15
-3.30144e-15
-1.65412e-15
2.3093e-14
6.12498e-15
-3.48834e-14
-6.04781e-14
-3.45405e-14
3.63352e-14
1.43327e-13
5.69553e-14
-4.48348e-15
-6.22199e-14
-2.79348e-14
-6.036e-15
-3.20518e-16
5.50446e-15
1.55095e-15
-3.05032e-16
-3.45357e-16
-1.29314e-16
-3.68577e-17
-3.15512e-18
6.78526e-18
7.37375e-18
5.20876e-18
2.99968e-18
1.49394e-18
6.55246e-19
2.53025e-19
8.44843e-20
2.30523e-20
4.12666e-21
-3.44207e-22
-7.99857e-22
-5.02739e-22
-2.38765e-22
-9.80468e-23
-3.65118e-23
-1.26189e-23
-4.1021e-24
-1.26515e-24
-3.72432e-25
-1.05115e-25
-2.85431e-26
-7.47737e-27
-1.89408e-27
-4.64814e-28
-1.10687e-28
-2.86947e-29
2.05847e-14
-4.61025e-15
-3.30793e-15
9.90037e-14
7.30139e-14
-1.24525e-13
-2.63754e-13
-9.81778e-14
1.05365e-12
7.66963e-13
9.89451e-14
-7.58671e-13
-3.54887e-13
-6.78745e-14
-5.48126e-15
1.04701e-13
3.5752e-14
3.73572e-15
-3.953e-15
-1.13869e-15
-2.11009e-16
-3.58266e-17
1.14075e-17
2.10822e-17
1.74266e-17
1.10404e-17
5.93257e-18
2.7866e-18
1.1462e-18
4.05145e-19
1.16126e-19
2.15376e-20
-2.08271e-21
-4.67045e-21
-3.01612e-21
-1.47335e-21
-6.21592e-22
-2.37502e-22
-8.41209e-23
-2.79959e-23
-8.83196e-24
-2.65748e-24
-7.6615e-25
-2.12384e-25
-5.67698e-26
-1.46659e-26
-3.66895e-27
-8.90302e-28
-2.09858e-28
-5.38463e-29
4.19073e-14
1.10836e-13
1.0726e-13
1.40604e-13
6.32875e-13
-1.44737e-13
-6.15691e-13
5.13977e-12
5.29296e-12
1.78137e-12
-8.31129e-12
-4.06366e-12
-7.021e-13
7.8779e-13
1.75434e-12
6.09418e-13
7.57139e-14
-8.2743e-14
-2.84837e-14
-2.26033e-15
-5.78419e-17
3.08155e-17
5.74183e-17
5.46151e-17
3.82666e-17
2.21475e-17
1.11404e-17
4.91456e-18
1.86387e-18
5.73463e-19
1.16402e-19
-7.84212e-21
-2.44495e-20
-1.67141e-20
-8.48879e-21
-3.69804e-21
-1.45347e-21
-5.28271e-22
-1.80107e-22
-5.81367e-23
-1.78822e-23
-5.26632e-24
-1.49038e-24
-4.06493e-25
-1.07104e-25
-2.73158e-26
-6.75489e-27
-1.62201e-27
-3.78692e-28
-9.62292e-29
-1.5818e-13
1.24241e-12
2.08571e-12
-2.40469e-12
1.54665e-12
1.35246e-11
3.43927e-11
2.74918e-11
1.32451e-11
-8.17934e-11
-4.48029e-11
-8.94508e-12
2.92302e-11
2.87587e-11
9.61248e-12
1.22993e-12
-1.52378e-12
-6.47651e-13
-6.43984e-14
1.61338e-15
5.76087e-16
2.14036e-16
1.61034e-16
1.24844e-16
7.84332e-17
4.18488e-17
1.97218e-17
8.11468e-18
2.7474e-18
6.43184e-19
-2.67095e-22
-1.12534e-19
-8.50583e-20
-4.55634e-20
-2.06229e-20
-8.36037e-21
-3.12112e-21
-1.09024e-21
-3.59983e-22
-1.13145e-22
-3.40244e-23
-9.82699e-24
-2.73422e-24
-7.34659e-25
-1.91008e-25
-4.81362e-26
-1.17757e-26
-2.80003e-27
-6.47886e-28
-1.63142e-28
-6.44078e-13
3.83616e-12
8.51562e-12
-1.4107e-11
-1.61565e-11
2.45291e-10
4.60486e-10
5.01234e-11
-6.97544e-10
-5.07118e-10
-7.3367e-11
4.63636e-10
3.43954e-10
1.25188e-10
1.88451e-11
-2.42166e-11
-1.21906e-11
-1.66077e-12
2.50593e-14
1.20087e-14
1.75999e-15
4.2162e-16
3.43671e-16
2.62435e-16
1.50831e-16
7.38346e-17
3.25646e-17
1.23711e-17
3.47913e-18
3.03823e-19
-4.32692e-19
-3.93041e-19
-2.27191e-19
-1.0779e-19
-4.5214e-20
-1.73461e-20
-6.20301e-21
-2.09235e-21
-6.71068e-22
-2.05801e-22
-6.06011e-23
-1.71883e-23
-4.7074e-24
-1.24737e-24
-3.20336e-25
-7.98419e-26
-1.93383e-26
-4.55677e-27
-1.04566e-27
-2.61093e-28
-1.43823e-13
6.77076e-12
1.83273e-11
-3.14901e-11
-8.15107e-11
8.1323e-10
1.64272e-09
-2.8613e-09
-4.56793e-09
-1.29148e-09
4.48969e-09
3.34512e-09
1.19276e-09
2.19512e-10
-3.34492e-10
-2.02368e-10
-3.36933e-11
-1.74826e-13
1.70169e-13
4.16692e-14
1.98857e-15
4.39511e-16
6.86167e-16
5.46039e-16
2.73341e-16
1.1923e-16
4.93289e-17
1.71142e-17
3.22129e-18
-1.15948e-18
-1.60362e-18
-1.04615e-18
-5.28449e-19
-2.30481e-19
-9.08662e-20
-3.31898e-20
-1.1401e-20
-3.71927e-21
-1.1599e-21
-3.47418e-22
-1.00278e-22
-2.79619e-23
-7.54688e-24
-1.97459e-24
-5.01485e-25
-1.23764e-25
-2.97118e-26
-6.94487e-27
-1.58191e-27
-3.92007e-28
1.61487e-12
7.50325e-12
2.35725e-11
-7.40695e-11
-2.13815e-10
1.12267e-09
2.73248e-09
-1.50452e-08
-1.04193e-08
2.40755e-08
2.3167e-08
7.53646e-09
1.92377e-09
-5.90581e-09
-3.5379e-09
-6.03534e-10
-1.19449e-11
2.51243e-12
6.64147e-13
3.49578e-14
-1.97757e-15
6.34208e-16
1.93522e-15
1.24515e-15
4.54575e-16
1.66634e-16
6.69212e-17
2.13173e-17
2.55405e-19
-5.27836e-18
-4.36711e-18
-2.43091e-18
-1.11372e-18
-4.51272e-19
-1.67617e-19
-5.82702e-20
-1.92087e-20
-6.05564e-21
-1.83601e-21
-5.37348e-22
-1.5219e-22
-4.17829e-23
-1.11333e-23
-2.88178e-24
-7.25193e-25
-1.77547e-25
-4.23194e-26
-9.82736e-27
-2.22491e-27
-5.47854e-28
-6.58225e-09
-2.97352e-08
-4.56954e-08
-4.7332e-08
-9.83336e-08
-1.7059e-07
-2.17782e-07
-4.26013e-08
6.60515e-08
1.48516e-07
4.84562e-08
-4.66668e-08
-1.27056e-07
-6.70232e-08
-1.21185e-08
-2.72317e-10
3.08202e-11
9.54357e-12
6.71771e-13
-2.47882e-14
-6.2494e-15
7.35677e-15
8.73599e-15
3.03873e-15
5.87715e-16
1.69641e-16
8.01693e-17
2.5925e-17
-8.4813e-18
-1.53507e-17
-1.04133e-17
-5.15131e-18
-2.15118e-18
-8.06614e-19
-2.80551e-19
-9.22839e-20
-2.90609e-20
-8.82903e-21
-2.60001e-21
-7.44105e-22
-2.07227e-22
-5.61857e-23
-1.48326e-23
-3.81252e-24
-9.54145e-25
-2.3253e-25
-5.51974e-26
-1.27676e-26
-2.87923e-27
-7.05773e-28
-7.81715e-08
-1.8791e-07
-2.78178e-07
-4.03561e-07
-9.1239e-07
-1.57491e-06
-1.33262e-06
4.25457e-07
1.63271e-06
5.28676e-07
-1.02321e-06
-1.68198e-06
-8.98521e-07
-2.25797e-07
-1.33875e-08
2.64219e-10
9.46896e-11
1.20528e-11
-1.40148e-13
-6.54155e-14
8.55128e-15
4.16209e-14
3.10674e-14
5.64207e-15
2.19394e-16
3.35608e-17
9.5238e-17
4.41996e-17
-2.8504e-17
-3.91438e-17
-2.3086e-17
-1.00866e-17
-3.77642e-18
-1.28744e-18
-4.12543e-19
-1.26672e-19
-3.77359e-20
-1.09897e-20
-3.14074e-21
-8.81671e-22
-2.42891e-22
-6.55453e-23
-1.72906e-23
-4.45087e-24
-1.11654e-24
-2.72743e-25
-6.48554e-26
-1.50134e-26
-3.38465e-27
-8.28241e-28
-2.48702e-07
-5.07463e-07
-7.3838e-07
-1.22238e-06
-2.77823e-06
-4.76488e-06
-3.62806e-06
2.98516e-06
6.05053e-06
1.06438e-06
-9.63946e-06
-7.14759e-06
-2.46007e-06
-3.68145e-07
1.9219e-09
5.17278e-10
1.00804e-10
1.04251e-11
-1.59198e-13
-1.05479e-13
9.66721e-14
2.83079e-13
9.01123e-14
4.9395e-15
-1.34036e-15
-3.48956e-16
1.79879e-16
1.36153e-16
-7.21988e-17
-9.80235e-17
-4.88903e-17
-1.80172e-17
-5.78944e-18
-1.72173e-18
-4.88904e-19
-1.35482e-19
-3.72572e-20
-1.02817e-20
-2.85907e-21
-7.98852e-22
-2.22627e-22
-6.13425e-23
-1.65828e-23
-4.37322e-24
-1.12104e-24
-2.78792e-25
-6.72154e-26
-1.57119e-26
-3.56311e-27
-8.73948e-28
-4.53154e-07
-8.50703e-07
-1.23007e-06
-2.24869e-06
-4.98123e-06
-8.70789e-06
-5.18625e-06
8.39951e-06
1.02808e-05
-2.25742e-05
-3.2788e-05
-1.31103e-05
-3.37162e-06
-2.6987e-07
1.93818e-10
1.94069e-10
1.10589e-10
1.89178e-11
-4.83043e-13
-2.81082e-13
6.23154e-12
2.67168e-12
1.92876e-13
-1.27131e-14
-5.53895e-15
-8.32581e-16
9.35225e-16
5.53057e-16
-1.73324e-16
-2.64467e-16
-9.86144e-17
-2.74084e-17
-6.7628e-18
-1.53521e-18
-3.265e-19
-6.69709e-20
-1.41245e-20
-3.38729e-21
-9.79003e-22
-3.2183e-22
-1.09006e-22
-3.58024e-23
-1.11457e-23
-3.27352e-24
-9.0883e-25
-2.39438e-25
-6.0106e-26
-1.44307e-26
-3.32461e-27
-8.20899e-28
-5.05911e-07
-9.22225e-07
-1.33281e-06
-2.56487e-06
-5.53552e-06
-1.06098e-05
2.95912e-05
1.71008e-05
-0.0001179
-0.000225577
-6.41921e-05
0.00020253
0.000753737
0.000946991
0.000712115
0.000322109
6.39114e-05
3.82593e-12
-9.26412e-13
3.00046e-12
5.00737e-11
8.47991e-12
-9.38758e-14
-3.8759e-14
-9.69649e-15
6.41736e-16
1.18661e-14
2.00407e-15
-1.17547e-15
-8.93562e-16
-1.72462e-16
-2.55481e-17
-2.05303e-18
5.48441e-19
3.8134e-19
1.45893e-19
4.51091e-20
1.21445e-20
2.89065e-21
5.9791e-22
9.9997e-23
9.68224e-24
-1.64535e-24
-1.36202e-24
-5.35912e-25
-1.6809e-25
-4.64792e-26
-1.17709e-26
-2.78164e-27
-6.89321e-28
4.87286e-05
0.00012872
0.000219714
0.000278348
0.000538105
0.000982847
0.000964726
-7.40988e-05
-0.00148218
-0.00110321
0.0022075
0.0103712
0.0194963
0.0237753
0.0218581
0.0155684
0.00837285
0.00311139
0.000566332
1.21798e-06
1.2603e-10
-1.10011e-12
-2.51204e-13
-4.59412e-14
5.01462e-14
2.06828e-13
5.67208e-14
-1.8231e-15
-2.01548e-14
-3.3725e-15
-9.27841e-17
3.77836e-17
1.8345e-17
6.22099e-18
1.85881e-18
5.14535e-19
1.3397e-19
3.29072e-20
7.59527e-21
1.63035e-21
3.1898e-22
5.44992e-23
7.20631e-24
3.32012e-25
-2.18191e-25
-1.08346e-25
-3.48091e-26
-9.31277e-27
-2.21481e-27
-5.29547e-28
0.000365677
0.000846696
0.00152276
0.00239927
0.00420445
0.00581388
0.00418826
-0.00128532
-0.00545591
-0.00226153
0.0157316
0.0467953
0.0795554
0.0964927
0.0919267
0.0700846
0.0417968
0.0183854
0.00493834
0.000289204
1.20834e-10
2.61714e-14
-2.48492e-13
2.38889e-12
3.23854e-12
1.10904e-12
3.66813e-14
-4.57334e-13
-1.06803e-13
-3.8855e-15
1.05752e-15
2.65284e-16
6.00189e-17
1.44062e-17
3.47404e-18
8.24861e-19
1.91279e-19
4.30297e-20
9.30083e-21
1.90332e-21
3.60133e-22
6.02858e-23
7.97945e-24
4.4863e-25
-1.89146e-25
-9.71908e-26
-3.02972e-26
-7.63517e-27
-1.6476e-27
-3.2511e-28
0.00109919
0.00245057
0.00448647
0.00750375
0.0127511
0.016306
0.010504
-0.00428185
-0.0132077
0.000892458
0.0472996
0.120316
0.195992
0.237626
0.230182
0.180881
0.112398
0.0524073
0.0157395
0.0014547
1.19036e-09
2.4818e-11
2.91933e-11
3.63026e-11
1.61731e-11
1.81802e-12
-8.41959e-12
-2.38551e-12
-1.51236e-13
2.14521e-14
5.19122e-15
4.56282e-16
6.94352e-17
1.35193e-17
2.62548e-18
4.92291e-19
8.88732e-20
1.55768e-20
2.66906e-21
4.40903e-22
6.55257e-23
6.76813e-24
-4.2815e-25
-5.39091e-25
-2.04661e-25
-5.59626e-26
-1.16826e-26
-1.53732e-27
1.09497e-28
2.11904e-28
0.00227363
0.00497748
0.00921063
0.0157813
0.0264441
0.0325812
0.0195387
-0.0099947
-0.0235924
0.00871177
0.0986363
0.231462
0.367675
0.446853
0.438141
0.351692
0.224432
0.10836
0.0345382
0.00390953
3.90414e-09
3.9788e-10
2.71315e-10
1.53103e-10
3.50365e-11
-1.3233e-10
-4.46381e-11
-3.81311e-12
3.36576e-13
1.11503e-13
8.09662e-15
-1.43482e-16
-4.58357e-17
-1.31828e-17
-3.77068e-18
-1.03042e-18
-2.60769e-19
-6.01229e-20
-1.24405e-20
-2.24386e-21
-3.2524e-22
-2.56858e-23
5.25778e-24
3.5196e-24
1.25527e-24
3.71303e-25
1.00701e-25
2.61245e-26
6.62116e-27
1.87548e-27
0.00365132
0.00791958
0.0147285
0.0254896
0.042427
0.0512036
0.0290402
-0.017633
-0.0348687
0.0211246
0.161855
0.361029
0.564646
0.68981
0.683631
0.558677
0.364029
0.180314
0.0598537
0.00769516
5.20038e-09
1.23582e-09
1.06804e-09
3.4655e-10
-1.85182e-09
-7.42989e-10
-7.826e-11
4.51913e-12
1.87836e-12
2.11337e-13
-2.46085e-15
-9.72442e-16
-2.23987e-16
-5.33378e-17
-1.28667e-17
-2.98938e-18
-6.47022e-19
-1.2533e-19
-2.00276e-20
-1.92369e-21
2.68842e-22
2.30336e-22
8.90284e-23
2.74429e-23
7.51339e-24
1.90677e-24
4.59182e-25
1.06582e-25
2.41232e-26
6.00266e-27
0.00473527
0.0102283
0.0190042
0.0329389
0.0547251
0.0654478
0.0354375
-0.0251465
-0.0444526
0.0330823
0.217133
0.470719
0.730965
0.900691
0.901821
0.749111
0.496714
0.25103
0.085864
0.0120621
5.28821e-09
1.58854e-09
2.16649e-09
-2.77248e-08
-1.28327e-08
-1.49962e-09
4.70883e-11
2.65455e-11
4.9122e-12
5.43805e-14
-1.23556e-14
-2.83496e-15
-3.40537e-16
-6.63686e-17
-1.43406e-17
-2.85811e-18
-4.60847e-19
-3.45124e-20
1.43694e-20
9.46648e-21
3.70723e-21
1.19593e-21
3.44322e-22
9.15086e-23
2.28687e-23
5.44042e-24
1.24369e-24
2.7539e-25
5.94901e-26
1.40238e-26
0.00499996
0.010797
0.019913
0.0342977
0.0571382
0.068516
0.0360597
-0.0298482
-0.0494682
0.0383208
0.241883
0.520194
0.809336
1.00864
1.02061
0.860048
0.578793
0.297147
0.10388
0.0154994
-1.45149e-08
-4.41663e-07
-5.20989e-07
-2.30598e-07
-3.47471e-08
4.32705e-10
3.11602e-10
8.46287e-11
5.69907e-12
-2.00743e-13
-5.91151e-14
-3.68652e-15
-5.9433e-18
8.35911e-19
2.79091e-18
1.89216e-18
8.90497e-19
3.493e-19
1.21665e-19
3.87282e-20
1.14482e-20
3.17577e-21
8.33161e-22
2.0802e-22
4.97012e-23
1.14218e-23
2.53737e-24
5.47659e-25
1.15436e-25
2.64687e-26
0.00407894
0.00886642
0.0159934
0.0268055
0.0452377
0.0558814
0.0288948
-0.0298019
-0.0489318
0.0308979
0.221114
0.487683
0.774852
0.984835
1.00903
0.858848
0.582959
0.301858
0.106733
0.0164429
-4.05454e-06
-5.13214e-06
-2.93674e-06
-7.28827e-07
-2.96047e-08
2.7117e-09
1.24882e-09
1.45298e-10
-2.11936e-12
-9.4067e-13
-1.00117e-13
9.13278e-16
3.43149e-16
1.06923e-16
3.33684e-17
1.04482e-17
3.24279e-18
9.86029e-19
2.90986e-19
8.28111e-20
2.2646e-20
5.94316e-21
1.49731e-21
3.62681e-22
8.46548e-23
1.90971e-23
4.17796e-24
8.89879e-25
1.85312e-25
4.19466e-26
0.0020621
0.00462073
0.00781888
0.0118526
0.0210195
0.029238
0.0159051
-0.0219334
-0.040532
0.00814522
0.144105
0.355174
0.599747
0.7911
0.826077
0.711035
0.486393
0.252971
0.0896405
0.0138197
-1.97738e-05
-1.89173e-05
-8.00054e-06
-1.22927e-06
1.94282e-08
1.22753e-08
2.80482e-09
6.37911e-11
-7.33765e-12
-2.2553e-12
-1.00913e-13
2.72857e-15
8.05057e-16
2.0457e-16
6.02593e-17
1.82306e-17
5.45018e-18
1.59306e-18
4.53037e-19
1.24884e-19
3.32738e-20
8.55388e-21
2.12068e-21
5.07366e-22
1.17327e-22
2.62865e-23
5.72325e-24
1.21523e-24
2.52626e-25
5.71417e-26
1.61862e-05
0.00027304
-0.000213884
-0.00234949
-0.00244062
0.0023469
0.00347196
-0.00931622
-0.0264296
-0.0180045
0.0465363
0.180432
0.357692
0.504416
0.537896
0.463676
0.314871
0.161328
0.0555781
0.00784075
-6.9214e-05
-4.84521e-05
-1.36336e-05
-8.71065e-07
7.99941e-08
3.33211e-08
3.77039e-09
-6.80426e-11
-2.99417e-11
-3.04468e-12
4.16522e-14
1.29514e-14
1.1845e-15
2.0542e-16
6.39962e-17
2.00924e-17
6.12145e-18
1.80491e-18
5.15085e-19
1.42161e-19
3.78967e-20
9.74916e-21
2.42039e-21
5.80481e-22
1.34739e-22
3.03479e-23
6.65392e-24
1.42526e-24
2.99377e-25
6.86021e-26
-0.00108349
-0.00215795
-0.00428403
-0.00889557
-0.0140548
-0.012857
-0.00297026
0.00238882
-0.0108865
-0.0326662
-0.0274966
0.0332243
0.136961
0.227649
0.249724
0.21163
0.137672
0.0657812
0.0198641
0.00162362
-0.000224075
-8.55137e-05
-1.24909e-05
6.68223e-07
2.69182e-07
4.85849e-08
-1.75125e-11
-2.69339e-10
-6.18372e-11
-8.58623e-13
1.43496e-13
2.77679e-14
3.13911e-16
6.65451e-17
3.41675e-17
1.32539e-17
4.51168e-18
1.42503e-18
4.26744e-19
1.22159e-19
3.35353e-20
8.84567e-21
2.24631e-21
5.50549e-22
1.30618e-22
3.00992e-23
6.76113e-24
1.48584e-24
3.20551e-25
7.56785e-26
-0.00105425
-0.00220215
-0.00390139
-0.0071112
-0.0124591
-0.0133492
-0.00359888
0.00820111
0.00142243
-0.0291002
-0.0537009
-0.0442718
-0.00449757
0.0332093
0.0415456
0.0295375
0.0111612
-0.00101994
-0.00421776
-0.00207981
-0.000523228
-5.13288e-05
5.88908e-06
2.07755e-06
3.60239e-07
1.56234e-08
-2.82667e-09
-8.0201e-10
-4.55614e-11
1.79251e-12
4.18531e-13
1.60588e-14
-2.27386e-16
-4.70062e-17
-3.32582e-18
2.28811e-18
1.53881e-18
6.56851e-19
2.35365e-19
7.60843e-20
2.28481e-20
6.47219e-21
1.74624e-21
4.51954e-22
1.12851e-22
2.73163e-23
6.43587e-24
1.48084e-24
3.33625e-25
8.22649e-26
-0.000329023
-0.000798066
-0.00098085
-0.00104714
-0.00292548
-0.00499629
-0.0012999
0.00750828
0.00735026
-0.0109589
-0.0382683
-0.0549349
-0.0577643
-0.0577703
-0.0582695
-0.0548702
-0.0434466
-0.0271435
-0.0120612
-0.00327661
-0.000250071
2.98324e-05
1.2729e-05
2.74126e-06
1.48702e-07
-2.58404e-08
-8.27697e-09
-5.98539e-10
2.45104e-11
6.00893e-12
2.74435e-13
-6.14275e-15
-1.09942e-15
-1.69473e-16
-3.4121e-17
-6.42677e-18
-8.88688e-19
7.85729e-21
6.92937e-20
3.54847e-20
1.34158e-20
4.40965e-21
1.3285e-21
3.75892e-22
1.01242e-22
2.61743e-23
6.53147e-24
1.57913e-24
3.70904e-25
9.48799e-26
0.000254658
0.000406817
0.00103937
0.00270517
0.00385558
0.00240805
0.000350511
0.00235038
0.00705182
0.00589097
-0.00692872
-0.0288886
-0.0520916
-0.0670826
-0.0693532
-0.0603969
-0.0427645
-0.0231697
-0.00885862
-0.0018592
2.95405e-05
3.16064e-05
1.16661e-05
1.44033e-06
-1.39191e-07
-4.81106e-08
-4.43497e-09
2.4872e-10
5.76225e-11
2.41824e-12
-1.02917e-13
-1.76943e-14
-7.09239e-16
-1.03433e-16
-2.84456e-17
-6.37195e-18
-1.08275e-18
-7.1252e-20
4.6659e-20
3.03726e-20
1.26057e-20
4.40256e-21
1.39093e-21
4.09573e-22
1.14127e-22
3.03609e-23
7.75439e-24
1.90884e-24
4.5416e-25
1.17161e-25
0.000303673
0.000547569
0.000936626
0.00215367
0.00396596
0.0036469
4.30008e-05
-0.00188813
0.00301327
0.0108992
0.0106694
-0.00162601
-0.0198649
-0.0321112
-0.0322493
-0.0249886
-0.0146642
-0.00624117
-0.00161621
6.83571e-05
3.9971e-05
1.39248e-05
1.76665e-06
-7.27419e-07
-1.89856e-07
-1.26665e-08
2.23209e-09
5.28933e-10
1.48117e-11
-1.6613e-12
-3.06283e-13
-8.05851e-16
1.92086e-16
3.00538e-17
4.55852e-18
1.76754e-18
9.71506e-19
4.56303e-19
1.83135e-19
6.5746e-20
2.17711e-20
6.77129e-21
1.99928e-21
5.64023e-22
1.52665e-22
3.97601e-23
9.98544e-24
2.42257e-24
5.68663e-25
1.44549e-25
2.94056e-05
2.12753e-05
-0.000312602
-0.000504217
0.000300266
0.000785083
-0.00084859
-0.00259673
-0.00034999
0.00547976
0.0090931
0.00795801
0.00656478
0.00827994
0.0111423
0.0124447
0.0104799
0.00646272
0.00281887
0.000687182
5.3791e-05
-2.03847e-05
-9.41095e-06
-1.53371e-06
3.84099e-08
2.07339e-08
4.43499e-09
1.19043e-10
-2.33663e-11
-5.84109e-12
-1.54114e-13
6.39075e-15
1.20335e-15
1.73772e-16
4.0742e-17
1.18008e-17
3.72793e-18
1.19823e-18
3.79092e-19
1.1659e-19
3.47234e-20
1.00054e-20
2.7891e-21
7.52241e-22
1.96328e-22
4.95966e-23
1.21322e-23
2.87527e-24
6.60652e-25
1.64256e-25
-0.000165153
-0.000370947
-0.000971097
-0.00176733
-0.00196986
-0.00154339
-0.00115396
-0.000863102
-0.000877487
-0.00148676
-0.00118341
0.00370762
0.0144977
0.025945
0.0307031
0.0272588
0.018338
0.00907548
0.00294397
0.000382347
-8.26049e-05
-4.51362e-05
-1.12152e-05
-2.41892e-07
1.06485e-07
4.12453e-08
3.16387e-09
-2.39909e-10
-6.94241e-11
-4.77937e-12
1.31582e-13
2.74975e-14
1.34088e-15
1.22917e-16
4.4995e-17
1.50175e-17
4.87682e-18
1.55042e-18
4.7985e-19
1.44029e-19
4.18615e-20
1.17765e-20
3.20671e-21
8.45271e-22
2.15728e-22
5.33215e-23
1.27687e-23
2.96382e-24
6.67244e-25
1.62235e-25
-0.000137715
-0.000327733
-0.000686312
-0.00109906
-0.00144172
-0.00148084
-0.000686002
0.000663048
0.000401995
-0.00309361
-0.00630318
-0.00298413
0.00796857
0.0199521
0.023818
0.0198498
0.0119387
0.00482735
0.000942559
-0.000162076
-9.51342e-05
-3.17654e-05
-3.94059e-06
4.68974e-07
1.91834e-07
2.74419e-08
-2.19898e-09
-6.43413e-10
-4.40024e-11
1.84459e-12
4.3355e-13
1.60249e-14
-9.7888e-17
5.71589e-18
1.44807e-17
8.0363e-18
3.34895e-18
1.21728e-18
4.06077e-19
1.27158e-19
3.78064e-20
1.07417e-20
2.928e-21
7.67687e-22
1.93958e-22
4.72891e-23
1.11393e-23
2.53787e-24
5.59801e-25
1.32821e-25
-2.55283e-05
-0.000100024
-0.000181443
-0.00011287
-6.22919e-05
-0.000314227
-0.000318288
0.000638006
0.00120713
-0.000665038
-0.00397484
-0.004568
-0.00109246
0.00354747
0.00525507
0.003991
0.00160811
-8.0714e-05
-0.000544604
-0.000247459
-7.16325e-05
-1.0067e-05
2.42993e-06
8.90521e-07
1.07469e-07
-1.40299e-08
-4.39357e-09
-3.49073e-10
1.4131e-11
3.67894e-12
1.89664e-13
-2.78479e-15
-4.77814e-16
-6.96407e-17
-7.74146e-18
1.11724e-18
1.27018e-18
6.19752e-19
2.40224e-19
8.22127e-20
2.58118e-20
7.57297e-21
2.09802e-21
5.52428e-22
1.38857e-22
3.34228e-23
7.72168e-24
1.71534e-24
3.66922e-25
8.36032e-26
1.21977e-05
-6.1257e-07
-3.72915e-05
4.95067e-05
0.000262601
0.000193988
-0.000207821
-0.000157336
0.000702595
0.00124974
0.000366885
-0.00179806
-0.00398252
-0.00528313
-0.00535133
-0.00456771
-0.0031661
-0.00169175
-0.00059449
-0.000143833
-1.34359e-05
1.01076e-05
4.06415e-06
4.9076e-07
-5.78654e-08
-1.75494e-08
-1.44074e-09
8.00346e-11
1.99938e-11
1.41841e-12
-2.77609e-14
-5.29577e-15
-4.71878e-16
-8.46035e-17
-1.69789e-17
-2.7378e-18
-1.35013e-19
1.50772e-19
9.36007e-20
3.86e-20
1.33338e-20
4.11381e-21
1.16489e-21
3.07037e-22
7.59297e-23
1.76962e-23
3.89456e-24
8.09183e-25
1.58277e-25
3.14878e-26
-8.6344e-06
-1.67028e-05
-8.84772e-05
-0.000173655
-0.000109155
1.11888e-05
-0.000145827
-0.000446773
-0.000212198
0.000834797
0.00162286
0.000923055
-0.00136234
-0.00367968
-0.00431264
-0.00347909
-0.00197128
-0.000691265
-0.000107695
4.61611e-05
2.97217e-05
9.77639e-06
1.20235e-06
-2.51903e-07
-7.55846e-08
-4.84711e-09
4.786e-10
9.8399e-11
3.92323e-12
2.56794e-14
-1.54921e-14
-2.76391e-15
-2.79651e-16
-5.39468e-17
-1.20859e-17
-2.50247e-18
-3.84288e-19
-1.7773e-21
3.03495e-20
1.61612e-20
6.0745e-21
1.91458e-21
5.32606e-22
1.33236e-22
3.00509e-23
6.03279e-24
1.03334e-24
1.30835e-25
2.65215e-27
-7.06383e-27
-1.47667e-05
-2.07949e-05
-5.25683e-05
-0.00015168
-0.000220281
-0.000120839
2.55543e-05
-0.000113519
-0.000423256
-0.000302407
0.000447989
0.00114568
0.00121279
0.000890015
0.000619345
0.000580025
0.000569526
0.000417081
0.000227685
8.07882e-05
1.36073e-05
-2.28682e-06
-1.1459e-06
-2.89601e-07
-1.94649e-08
4.09049e-09
1.19482e-09
8.3068e-11
-4.85421e-12
-1.0973e-12
-4.75004e-14
8.55139e-16
1.4497e-16
2.39676e-17
4.67052e-18
1.20325e-18
4.10104e-19
1.53177e-19
5.47938e-20
1.79286e-20
5.30687e-21
1.4147e-21
3.36262e-22
6.93093e-23
1.14023e-23
1.00152e-24
-2.42757e-25
-1.76407e-25
-6.80191e-26
-2.44222e-26
1.66837e-06
7.87189e-06
4.2599e-05
6.16007e-05
8.24809e-06
-1.28311e-05
0.000102032
0.000171738
-6.79483e-05
-0.000465002
-0.000504477
8.0301e-05
0.00106276
0.00180795
0.0019513
0.00161495
0.00101216
0.000469114
0.000139232
1.32519e-05
-8.9833e-06
-3.67018e-06
-7.49529e-07
-6.1418e-08
2.03754e-08
7.85787e-09
1.0993e-09
-5.34279e-11
-1.59297e-11
-1.31718e-12
2.31466e-14
4.41258e-15
3.83626e-16
7.33227e-17
1.80652e-17
4.80051e-18
1.34769e-18
3.88266e-19
1.11e-19
3.06294e-20
7.99653e-21
1.94382e-21
4.31927e-22
8.49757e-23
1.36821e-23
1.29206e-24
-2.08173e-25
-1.70717e-25
-6.6209e-26
-2.35907e-26
9.25113e-06
1.68248e-05
4.75541e-05
0.000104232
0.000121211
6.63421e-05
3.22151e-05
0.00010707
0.000165694
2.74806e-07
-0.000318839
-0.000434321
-0.000197906
0.00018319
0.000354213
0.000278058
0.000104607
-1.74528e-05
-4.77107e-05
-2.69126e-05
-8.4308e-06
-1.04689e-06
2.89762e-07
1.17904e-07
2.25643e-08
5.90308e-10
-3.46869e-10
-8.42453e-11
-2.91298e-12
2.5569e-13
5.31602e-14
1.92521e-15
6.16085e-17
3.26051e-17
1.28672e-17
4.4811e-18
1.47014e-18
4.59828e-19
1.36672e-19
3.8395e-20
1.01466e-20
2.51023e-21
5.77385e-22
1.21973e-22
2.30782e-23
3.67696e-24
3.94191e-25
-2.03297e-26
-2.93419e-26
-1.36615e-26
1.57847e-06
2.95306e-07
-8.09946e-06
-2.53311e-06
2.46068e-05
1.91297e-05
-3.92949e-05
-4.42499e-05
7.63712e-05
0.000190549
0.000113638
-0.000157086
-0.000457852
-0.000633879
-0.000637664
-0.000530254
-0.000357145
-0.000188422
-7.33379e-05
-1.86431e-05
-1.17131e-06
1.13255e-06
5.22237e-07
9.87802e-08
-7.65803e-09
-3.14084e-09
-3.79538e-10
1.96012e-11
4.66608e-12
1.82386e-13
-4.60722e-15
-5.06612e-16
-4.30921e-17
1.64165e-18
4.61664e-18
2.56503e-18
1.06757e-18
3.82364e-19
1.23317e-19
3.65434e-20
1.00538e-20
2.5814e-21
6.1958e-22
1.38747e-22
2.87926e-23
5.45133e-24
9.08543e-25
1.20508e-25
7.33665e-27
-3.3662e-27
-3.94937e-06
-7.85555e-06
-2.301e-05
-4.57515e-05
-4.69642e-05
-2.59437e-05
-2.47373e-05
-5.06714e-05
-4.53252e-05
3.73803e-05
0.000133448
0.000122599
-1.55433e-05
-0.000178553
-0.000237386
-0.000193958
-0.000107076
-3.67081e-05
-2.87257e-06
5.09889e-06
2.40938e-06
5.93881e-07
2.7763e-08
-3.62093e-08
-9.70699e-09
-4.63081e-10
9.56642e-11
2.27918e-11
1.04428e-12
-4.98915e-14
-9.67928e-15
-5.5509e-16
-7.02105e-17
-1.04508e-17
3.88059e-19
1.21499e-18
6.65192e-19
2.69002e-19
9.29873e-20
2.88569e-20
8.22481e-21
2.17938e-21
5.40441e-22
1.25789e-22
2.74718e-23
5.60692e-24
1.05887e-24
1.81081e-25
2.66318e-26
2.81681e-27
-1.22237e-06
-1.3758e-06
-4.90044e-07
-5.93396e-06
-1.59028e-05
-1.15266e-05
1.02961e-05
8.3412e-06
-3.48677e-05
-6.30182e-05
-2.07419e-05
7.64948e-05
0.000159927
0.000193372
0.000185398
0.00015481
0.000109012
6.21757e-05
2.69684e-05
7.39776e-06
6.85467e-07
-4.05496e-07
-1.80467e-07
-2.51508e-08
2.63093e-09
8.20663e-10
7.42315e-11
-3.36691e-12
-8.92829e-13
-8.08394e-14
5.12905e-16
2.21656e-17
-7.99156e-18
-1.35316e-18
1.02042e-18
9.12735e-19
4.62536e-19
1.85728e-19
6.46804e-20
2.03122e-20
5.87141e-21
1.58095e-21
3.99418e-22
9.50788e-23
2.1364e-23
4.52933e-24
9.03141e-25
1.68128e-25
2.87806e-26
4.65567e-27
1.30471e-06
2.7268e-06
8.13101e-06
1.53942e-05
1.46256e-05
8.36932e-06
1.00368e-05
1.80219e-05
1.06196e-05
-1.96916e-05
-4.38174e-05
-3.07202e-05
1.89091e-05
7.27539e-05
9.15369e-05
7.72485e-05
4.7451e-05
2.03508e-05
4.70097e-06
-7.29784e-07
-6.45962e-07
-2.04478e-07
-1.2153e-08
8.02573e-09
2.28962e-09
1.3513e-10
-1.4238e-11
-3.13992e-12
-4.91225e-13
-5.12264e-14
7.46851e-16
1.49849e-16
3.57084e-17
9.78559e-18
3.10337e-18
1.09593e-18
3.93825e-19
1.35793e-19
4.39883e-20
1.33417e-20
3.7977e-21
1.01814e-21
2.57905e-22
6.18769e-23
1.4081e-23
3.04016e-24
6.22005e-25
1.20198e-25
2.17923e-26
3.94394e-27
4.57311e-07
6.00113e-07
6.49745e-07
2.68011e-06
5.69487e-06
3.69e-06
-2.55217e-06
-1.36334e-06
1.11416e-05
1.75826e-05
3.12568e-06
-2.48414e-05
-4.6083e-05
-5.33958e-05
-4.97381e-05
-4.11868e-05
-2.97719e-05
-1.77112e-05
-7.97684e-06
-2.28866e-06
-2.44221e-07
7.83957e-08
3.07238e-08
4.28892e-09
-5.8761e-11
-1.05162e-10
-3.43732e-11
-4.03926e-12
2.60329e-13
6.81945e-14
2.9309e-15
3.48336e-17
1.81074e-17
6.8174e-18
2.35099e-18
8.0064e-19
2.67444e-19
8.62119e-20
2.65663e-20
7.79287e-21
2.17281e-21
5.75778e-22
1.4509e-22
3.4793e-23
7.94459e-24
1.72753e-24
3.57486e-25
7.02648e-26
1.30672e-26
2.47423e-27
-3.38419e-07
-7.25188e-07
-2.20322e-06
-4.06525e-06
-3.77519e-06
-2.12083e-06
-2.76675e-06
-4.86738e-06
-2.33013e-06
5.79564e-06
1.13686e-05
7.0951e-06
-6.20027e-06
-1.93708e-05
-2.3845e-05
-2.05375e-05
-1.31769e-05
-6.17322e-06
-1.88756e-06
-1.78399e-07
1.66579e-07
6.76846e-08
1.10088e-08
-1.71717e-09
-7.6463e-10
-1.30922e-10
2.70934e-12
1.87646e-12
4.05536e-13
1.55109e-14
-7.0283e-16
-1.55077e-16
-3.18073e-17
-5.44897e-18
-5.37098e-19
9.62764e-20
8.23659e-20
3.44696e-20
1.17493e-20
3.59362e-21
1.01977e-21
2.72302e-22
6.88787e-23
1.65626e-23
3.79322e-24
8.28125e-25
1.72335e-25
3.41469e-26
6.42523e-27
1.2412e-27
-9.84917e-08
-1.27158e-07
-1.53776e-07
-5.80639e-07
-1.1894e-06
-7.5837e-07
5.06825e-07
2.00899e-07
-2.27253e-06
-3.52569e-06