/*--------------------------------*- C++ -*----------------------------------*\
| =========                 |                                                 |
| \\      /  F ield         | OpenFOAM: The Open Source CFD Toolbox           |
|  \\    /   O peration     | Version:  v2006                                 |
|   \\  /    A nd           | Website:  www.openfoam.com                      |
|    \\/     M anipulation  |                                                 |
\*---------------------------------------------------------------------------*/
FoamFile
{
    version     2.0;
    format      ascii;
    class       volScalarField;
    location    "2.2";
    object      p;
}
// * * * * * * * * * * * * * * * * * * * * * * * * * * * * * * * * * * * * * //

dimensions      [1 -1 -2 0 0 0 0];


internalField   nonuniform List<scalar> 
52500
(
32780.3
32779.9
32778.9
32777.5
32775.6
32773.2
32770.3
32767
32763.2
32758.9
32754.2
32748.9
32743.2
32737.1
32730.5
32723.4
32715.8
32707.8
32699.4
32690.4
32681.1
32671.2
32661
32650.2
32639.1
32627.5
32615.4
32603
32590
32576.7
32563
32548.8
32534.2
32519.2
32503.8
32487.9
32471.7
32455.1
32438.1
32420.7
32402.9
32384.7
32366.2
32347.3
32328
32308.4
32288.4
32268
32247.3
32226.3
32205
32183.3
32161.3
32139
32116.3
32093.4
32070.2
32046.6
32022.8
31998.7
31974.4
31949.7
31924.8
31899.7
31874.3
31848.7
31822.8
31796.7
31770.4
31743.9
31717.1
31690.2
31663.1
31635.8
31608.3
31580.7
31552.9
31524.9
31496.8
31468.6
31440.3
31411.8
31383.2
31354.5
31325.7
31296.8
31267.9
31238.9
31209.8
31180.7
31151.5
31122.3
31093
31063.7
31034.5
31005.2
30975.9
30946.7
30917.5
30888.3
30859.1
30830
30801
30772
30743.1
30714.3
30685.6
30657
30628.5
30600.1
30571.9
30543.7
30515.8
30487.9
30460.3
30432.8
30405.5
30378.4
30351.4
30324.7
30298.2
30271.8
30245.7
30219.9
30194.2
30168.9
30143.7
30118.8
30094.2
30069.8
30045.7
30021.9
29998.4
29975.2
29952.2
29929.5
29907.2
29885.1
29863.4
29842
29820.9
29800.1
29779.6
29759.4
29739.6
29720.1
29701
29682.1
29663.6
29645.4
29627.6
29610
29592.8
29576
29559.4
29543.2
29527.3
29511.7
29496.5
29481.5
29466.9
29452.6
29438.5
29424.8
29411.4
29398.2
29385.4
29372.8
29360.5
29348.4
29336.7
29325.1
29313.8
29302.8
29292
29281.4
29271
29260.8
29250.8
29241
29231.4
29222
29212.7
29203.5
29194.5
29185.6
29176.9
29168.2
29159.6
29151.2
29142.8
29134.4
29126.2
29117.9
29109.7
29101.5
29093.3
29085.2
29077
29068.7
29060.5
29052.2
29043.8
29035.4
29026.8
29018.2
29009.5
29000.7
28991.7
28982.6
28973.4
28964
28954.4
28944.7
28934.8
28924.7
28914.4
28903.9
28893.1
28882.2
28871
28859.5
28847.8
28835.9
28823.7
28811.2
28798.4
28785.4
28772.1
28758.5
28744.6
28730.3
28715.8
28701
28685.9
28670.4
28654.7
28638.6
28622.3
28605.6
28588.5
28571.2
28553.6
28535.6
28517.4
28498.8
28479.9
28460.7
28441.3
28421.5
28401.4
28381.1
28360.5
28339.6
28318.4
28297
28275.4
28253.4
28231.3
28209
28186.4
28163.6
28140.6
28117.5
28094.2
28070.7
28047
28023.3
27999.4
27975.4
27951.3
27927.1
27902.8
27878.5
27854.2
27829.8
27805.4
27781
27756.6
27732.3
27708
27683.8
27659.6
27635.6
27611.6
27587.8
27564.2
27540.7
27517.3
27494.1
27471.2
27448.4
27425.9
27403.6
27381.6
27359.8
27338.4
27317.2
27296.4
27275.9
27255.8
27235.9
27216.5
27197.4
27178.7
27160.4
27142.5
27125
27107.9
27091.2
27075
27059.2
27043.8
27028.9
27014.4
27000.3
26986.7
26973.6
26960.9
26948.7
26936.9
26925.5
26914.6
26904.2
26894.2
26884.6
26875.5
26866.8
26858.6
26850.8
26843.3
26836.4
26829.8
26823.6
26817.8
26812.4
26807.5
26802.8
26798.6
26794.8
26791.3
26788.2
26785.4
26783
26780.9
26779.2
26777.9
26776.8
26776.2
26775.7
32323.8
32323.3
32322.4
32320.9
32319
32316.7
32313.8
32310.5
32306.7
32302.4
32297.6
32292.4
32286.7
32280.5
32273.9
32266.8
32259.3
32251.3
32242.8
32233.9
32224.5
32214.6
32204.4
32193.6
32182.5
32170.8
32158.8
32146.3
32133.4
32120
32106.3
32092.1
32077.5
32062.5
32047
32031.2
32015
31998.3
31981.3
31963.9
31946.1
31927.9
31909.3
31890.4
31871.1
31851.5
31831.5
31811.1
31790.4
31769.4
31748
31726.3
31704.3
31682
31659.3
31636.4
31613.1
31589.6
31565.7
31541.6
31517.2
31492.6
31467.7
31442.5
31417.1
31391.4
31365.6
31339.4
31313.1
31286.6
31259.8
31232.9
31205.7
31178.4
31150.9
31123.3
31095.4
31067.5
31039.4
31011.1
30982.7
30954.2
30925.6
30896.9
30868.1
30839.2
30810.2
30781.2
30752.1
30722.9
30693.7
30664.5
30635.2
30605.9
30576.6
30547.3
30518
30488.8
30459.5
30430.3
30401.1
30372
30343
30314
30285
30256.2
30227.5
30198.8
30170.3
30141.9
30113.7
30085.5
30057.5
30029.7
30002
29974.5
29947.2
29920
29893.1
29866.3
29839.8
29813.4
29787.3
29761.4
29735.8
29710.4
29685.2
29660.3
29635.7
29611.3
29587.2
29563.4
29539.8
29516.6
29493.6
29471
29448.6
29426.5
29404.8
29383.4
29362.2
29341.4
29321
29300.8
29281
29261.4
29242.3
29223.4
29204.9
29186.7
29168.8
29151.3
29134.1
29117.2
29100.7
29084.5
29068.6
29053
29037.8
29022.8
29008.2
28993.9
28979.9
28966.1
28952.7
28939.6
28926.7
28914.2
28901.9
28889.9
28878.1
28866.6
28855.3
28844.3
28833.5
28822.9
28812.6
28802.4
28792.4
28782.7
28773.1
28763.6
28754.4
28745.3
28736.3
28727.4
28718.7
28710.1
28701.5
28693.1
28684.7
28676.4
28668.2
28660
28651.8
28643.6
28635.5
28627.3
28619.1
28610.9
28602.7
28594.4
28586.1
28577.7
28569.2
28560.6
28551.9
28543.1
28534.2
28525.1
28515.9
28506.6
28497.1
28487.4
28477.5
28467.4
28457.1
28446.6
28435.9
28425
28413.8
28402.4
28390.7
28378.8
28366.6
28354.1
28341.4
28328.4
28315.1
28301.5
28287.6
28273.4
28258.9
28244
28228.9
28213.5
28197.7
28181.7
28165.3
28148.6
28131.6
28114.3
28096.6
28078.7
28060.4
28041.8
28022.9
28003.7
27984.2
27964.4
27944.4
27924
27903.4
27882.5
27861.3
27839.8
27818.2
27796.2
27774.1
27751.7
27729.1
27706.2
27683.2
27660.1
27636.7
27613.2
27589.5
27565.7
27541.7
27517.7
27493.6
27469.3
27445
27420.7
27396.3
27371.9
27347.4
27323
27298.6
27274.2
27249.8
27225.6
27201.4
27177.3
27153.3
27129.4
27105.7
27082.1
27058.7
27035.5
27012.5
26989.8
26967.2
26945
26923
26901.2
26879.8
26858.6
26837.7
26817.2
26797
26777.2
26757.7
26738.6
26719.9
26701.5
26683.6
26666.1
26648.9
26632.3
26616
26600.2
26584.8
26569.8
26555.3
26541.2
26527.6
26514.5
26501.8
26489.5
26477.7
26466.4
26455.5
26445
26435
26425.5
26416.4
26407.7
26399.4
26391.6
26384.2
26377.2
26370.7
26364.5
26358.7
26353.3
26348.4
26343.8
26339.5
26335.7
26332.2
26329.1
26326.3
26323.9
26321.9
26320.2
26318.8
26317.8
26317.2
26316.7
31868.5
31868.1
31867.1
31865.7
31863.8
31861.4
31858.5
31855.2
31851.4
31847.1
31842.3
31837.1
31831.4
31825.2
31818.6
31811.5
31803.9
31795.9
31787.4
31778.5
31769.1
31759.2
31748.9
31738.2
31727
31715.4
31703.3
31690.8
31677.9
31664.5
31650.7
31636.5
31621.9
31606.8
31591.4
31575.5
31559.2
31542.6
31525.5
31508.1
31490.3
31472.1
31453.5
31434.5
31415.2
31395.5
31375.5
31355.1
31334.4
31313.3
31291.9
31270.2
31248.1
31225.8
31203.1
31180.1
31156.8
31133.2
31109.4
31085.2
31060.8
31036.1
31011.2
30986
30960.5
30934.8
30908.9
30882.7
30856.4
30829.8
30803
30776
30748.8
30721.5
30693.9
30666.2
30638.4
30610.4
30582.2
30553.9
30525.5
30496.9
30468.3
30439.5
30410.7
30381.7
30352.7
30323.6
30294.5
30265.3
30236
30206.7
30177.4
30148.1
30118.8
30089.4
30060.1
30030.8
30001.5
29972.2
29943
29913.8
29884.7
29855.7
29826.7
29797.8
29769.1
29740.4
29711.8
29683.4
29655.1
29626.9
29598.9
29571
29543.3
29515.7
29488.3
29461.2
29434.2
29407.4
29380.8
29354.4
29328.3
29302.4
29276.7
29251.2
29226
29201.1
29176.4
29152
29127.9
29104.1
29080.5
29057.2
29034.2
29011.6
28989.2
28967.1
28945.3
28923.9
28902.7
28881.9
28861.4
28841.3
28821.4
28801.9
28782.7
28763.9
28745.4
28727.2
28709.3
28691.8
28674.6
28657.7
28641.2
28625
28609.1
28593.5
28578.3
28563.4
28548.8
28534.5
28520.5
28506.8
28493.4
28480.3
28467.5
28454.9
28442.7
28430.7
28418.9
28407.4
28396.2
28385.2
28374.5
28363.9
28353.6
28343.5
28333.6
28323.8
28314.3
28304.9
28295.7
28286.6
28277.7
28268.8
28260.2
28251.6
28243.1
28234.7
28226.4
28218.1
28209.9
28201.8
28193.7
28185.6
28177.5
28169.4
28161.2
28153.1
28144.9
28136.7
28128.4
28120
28111.6
28103.1
28094.4
28085.7
28076.8
28067.8
28058.6
28049.3
28039.9
28030.2
28020.4
28010.3
28000.1
27989.6
27979
27968
27956.9
27945.5
27933.9
27922
27909.8
27897.4
27884.7
27871.7
27858.4
27844.8
27830.9
27816.8
27802.3
27787.5
27772.4
27757
27741.2
27725.2
27708.8
27692.1
27675.1
27657.8
27640.1
27622.1
27603.9
27585.3
27566.4
27547.2
27527.7
27507.9
27487.8
27467.4
27446.7
27425.8
27404.6
27383.1
27361.4
27339.4
27317.2
27294.8
27272.1
27249.3
27226.2
27203
27179.6
27156
27132.3
27108.4
27084.4
27060.3
27036.1
27011.8
26987.5
26963.1
26938.6
26914.1
26889.6
26865.1
26840.6
26816.2
26791.8
26767.4
26743.2
26719
26694.9
26671
26647.2
26623.5
26600.1
26576.8
26553.7
26530.9
26508.3
26485.9
26463.7
26441.9
26420.3
26399.1
26378.2
26357.6
26337.3
26317.4
26297.9
26278.7
26259.9
26241.5
26223.5
26206
26188.8
26172.1
26155.8
26139.9
26124.5
26109.5
26094.9
26080.9
26067.2
26054
26041.3
26029.1
26017.3
26005.9
25995
25984.5
25974.5
25965
25955.9
25947.2
25939
25931.1
25923.7
25916.8
25910.2
25904.1
25898.3
25892.9
25888
25883.4
25879.2
25875.4
25871.9
25868.8
25866
25863.6
25861.6
25859.9
25858.6
25857.6
25856.9
25856.4
31414.6
31414.1
31413.1
31411.7
31409.8
31407.4
31404.5
31401.2
31397.3
31393
31388.3
31383
31377.3
31371.1
31364.5
31357.4
31349.8
31341.8
31333.2
31324.3
31314.9
31305
31294.7
31283.9
31272.7
31261
31249
31236.4
31223.5
31210.1
31196.3
31182
31167.4
31152.3
31136.8
31120.9
31104.6
31087.9
31070.8
31053.3
31035.5
31017.2
30998.6
30979.6
30960.3
30940.5
30920.5
30900
30879.3
30858.2
30836.7
30814.9
30792.8
30770.4
30747.7
30724.6
30701.3
30677.7
30653.7
30629.5
30605.1
30580.3
30555.3
30530.1
30504.6
30478.8
30452.8
30426.6
30400.2
30373.5
30346.7
30319.6
30292.4
30265
30237.4
30209.6
30181.7
30153.6
30125.4
30097
30068.5
30039.9
30011.2
29982.4
29953.4
29924.4
29895.4
29866.2
29837
29807.7
29778.4
29749
29719.6
29690.2
29660.8
29631.4
29602
29572.6
29543.3
29513.9
29484.7
29455.4
29426.3
29397.1
29368.1
29339.2
29310.3
29281.6
29253
29224.5
29196.1
29167.8
29139.7
29111.8
29084
29056.4
29029
29001.7
28974.7
28947.8
28921.2
28894.8
28868.6
28842.6
28816.9
28791.4
28766.2
28741.2
28716.5
28692
28667.9
28644
28620.4
28597.1
28574
28551.3
28528.9
28506.8
28485
28463.5
28442.4
28421.6
28401
28380.9
28361
28341.5
28322.3
28303.4
28284.9
28266.7
28248.9
28231.3
28214.1
28197.3
28180.8
28164.6
28148.7
28133.2
28117.9
28103
28088.4
28074.2
28060.2
28046.5
28033.2
28020.1
28007.3
27994.8
27982.6
27970.7
27959
27947.5
27936.4
27925.4
27914.7
27904.2
27894
27883.9
27874.1
27864.4
27854.9
27845.6
27836.4
27827.4
27818.6
27809.9
27801.2
27792.7
27784.3
27776
27767.8
27759.6
27751.5
27743.4
27735.4
27727.4
27719.3
27711.3
27703.3
27695.2
27687.1
27679
27670.8
27662.5
27654.1
27645.7
27637.1
27628.5
27619.7
27610.7
27601.6
27592.4
27583
27573.4
27563.6
27553.7
27543.5
27533.1
27522.5
27511.6
27500.6
27489.2
27477.7
27465.8
27453.7
27441.3
27428.6
27415.7
27402.4
27388.9
27375.1
27360.9
27346.5
27331.7
27316.6
27301.2
27285.5
27269.4
27253.1
27236.4
27219.4
27202
27184.4
27166.4
27148.1
27129.5
27110.6
27091.4
27071.9
27052
27031.9
27011.5
26990.8
26969.8
26948.5
26927
26905.2
26883.2
26860.9
26838.5
26815.7
26792.8
26769.7
26746.4
26722.9
26699.2
26675.4
26651.4
26627.4
26603.2
26578.9
26554.5
26530
26505.5
26480.9
26456.3
26431.7
26407
26382.4
26357.9
26333.3
26308.9
26284.5
26260.2
26236
26211.9
26188
26164.3
26140.7
26117.3
26094.1
26071.1
26048.4
26025.9
26003.7
25981.8
25960.1
25938.8
25917.7
25897
25876.7
25856.7
25837
25817.8
25798.9
25780.4
25762.4
25744.7
25727.5
25710.7
25694.3
25678.4
25662.9
25647.9
25633.3
25619.2
25605.5
25592.3
25579.5
25567.2
25555.4
25544.1
25533.1
25522.7
25512.7
25503.1
25494
25485.4
25477.1
25469.3
25461.9
25455
25448.4
25442.3
25436.6
25431.2
25426.3
25421.7
25417.5
25413.7
25410.3
25407.2
25404.5
25402.1
25400.1
25398.4
25397.1
25396.1
25395.4
25395
30961.9
30961.4
30960.4
30959
30957.1
30954.7
30951.8
30948.4
30944.6
30940.3
30935.5
30930.2
30924.5
30918.3
30911.6
30904.5
30896.9
30888.8
30880.3
30871.3
30861.9
30852
30841.6
30830.8
30819.6
30807.9
30795.8
30783.2
30770.2
30756.8
30742.9
30728.6
30713.9
30698.8
30683.3
30667.4
30651
30634.3
30617.1
30599.6
30581.7
30563.4
30544.7
30525.7
30506.3
30486.5
30466.3
30445.9
30425
30403.8
30382.3
30360.5
30338.3
30315.8
30293
30269.9
30246.5
30222.8
30198.8
30174.6
30150
30125.2
30100.1
30074.8
30049.2
30023.4
29997.3
29971
29944.5
29917.8
29890.9
29863.7
29836.4
29808.9
29781.2
29753.4
29725.3
29697.2
29668.9
29640.4
29611.8
29583.1
29554.3
29525.4
29496.4
29467.3
29438.1
29408.9
29379.6
29350.2
29320.8
29291.3
29261.9
29232.4
29202.9
29173.4
29143.9
29114.4
29084.9
29055.5
29026.1
28996.8
28967.6
28938.4
28909.3
28880.2
28851.3
28822.5
28793.7
28765.2
28736.7
28708.4
28680.2
28652.2
28624.3
28596.6
28569.1
28541.8
28514.7
28487.7
28461
28434.5
28408.3
28382.2
28356.4
28330.9
28305.6
28280.6
28255.8
28231.3
28207.1
28183.1
28159.5
28136.1
28113
28090.3
28067.8
28045.7
28023.9
28002.4
27981.2
27960.3
27939.8
27919.6
27899.7
27880.2
27861
27842.1
27823.6
27805.4
27787.5
27770
27752.8
27736
27719.5
27703.3
27687.4
27671.9
27656.7
27641.9
27627.3
27613.1
27599.1
27585.5
27572.2
27559.2
27546.5
27534
27521.9
27510
27498.3
27487
27475.9
27465
27454.4
27444
27433.8
27423.8
27414
27404.5
27395.1
27385.8
27376.8
27367.9
27359.1
27350.5
27342
27333.6
27325.3
27317.1
27308.9
27300.9
27292.9
27284.9
27276.9
27269
27261.1
27253.2
27245.3
27237.3
27229.3
27221.3
27213.2
27205
27196.8
27188.4
27180
27171.4
27162.7
27153.9
27144.9
27135.8
27126.5
27117
27107.3
27097.4
27087.3
27077
27066.5
27055.7
27044.7
27033.5
27022
27010.2
26998.1
26985.8
26973.2
26960.3
26947.1
26933.6
26919.8
26905.7
26891.3
26876.5
26861.5
26846.1
26830.4
26814.4
26798
26781.4
26764.3
26747
26729.4
26711.4
26693.1
26674.4
26655.5
26636.3
26616.7
26596.8
26576.6
26556.2
26535.4
26514.4
26493.1
26471.5
26449.6
26427.5
26405.2
26382.6
26359.8
26336.8
26313.6
26290.1
26266.5
26242.8
26218.8
26194.8
26170.5
26146.2
26121.8
26097.3
26072.7
26048
26023.3
25998.5
25973.8
25949
25924.2
25899.5
25874.8
25850.2
25825.7
25801.2
25776.9
25752.7
25728.6
25704.7
25680.9
25657.4
25634
25610.9
25588
25565.3
25542.9
25520.8
25499
25477.6
25456.4
25435.5
25415.1
25394.9
25375.2
25355.8
25336.8
25318.2
25300
25282.3
25265
25248.1
25231.6
25215.6
25200.1
25185
25170.3
25156.1
25142.4
25129.2
25116.4
25104.1
25092.2
25080.8
25069.9
25059.5
25049.5
25039.9
25030.8
25022.1
25013.9
25006.1
24998.8
24991.9
24985.3
24979.2
24973.5
24968.2
24963.3
24958.8
24954.6
24950.8
24947.4
24944.4
24941.7
24939.3
24937.3
24935.7
24934.3
24933.3
24932.7
24932.2
30510.4
30509.9
30509
30507.5
30505.6
30503.2
30500.3
30496.9
30493.1
30488.8
30484
30478.7
30472.9
30466.7
30460
30452.9
30445.2
30437.1
30428.6
30419.6
30410.1
30400.2
30389.8
30378.9
30367.7
30355.9
30343.8
30331.1
30318.1
30304.6
30290.7
30276.4
30261.6
30246.5
30230.9
30214.9
30198.5
30181.7
30164.5
30146.9
30128.9
30110.5
30091.8
30072.7
30053.2
30033.3
30013.1
29992.6
29971.7
29950.4
29928.8
29906.9
29884.7
29862.1
29839.2
29816
29792.5
29768.7
29744.7
29720.3
29695.7
29670.7
29645.6
29620.1
29594.5
29568.5
29542.4
29516
29489.4
29462.6
29435.5
29408.3
29380.9
29353.2
29325.5
29297.5
29269.4
29241.1
29212.7
29184.1
29155.4
29126.6
29097.7
29068.7
29039.5
29010.3
28981
28951.7
28922.3
28892.8
28863.3
28833.7
28804.1
28774.5
28744.9
28715.3
28685.6
28656.1
28626.5
28597
28567.5
28538
28508.6
28479.3
28450.1
28421
28391.9
28363
28334.2
28305.5
28276.9
28248.5
28220.2
28192.1
28164.1
28136.3
28108.7
28081.3
28054.1
28027.1
28000.3
27973.7
27947.3
27921.2
27895.3
27869.7
27844.3
27819.2
27794.4
27769.8
27745.5
27721.5
27697.8
27674.4
27651.2
27628.4
27605.9
27583.7
27561.9
27540.3
27519.1
27498.2
27477.6
27457.4
27437.5
27418
27398.7
27379.9
27361.3
27343.1
27325.3
27307.8
27290.6
27273.8
27257.3
27241.1
27225.3
27209.8
27194.6
27179.8
27165.3
27151.1
27137.2
27123.7
27110.4
27097.4
27084.8
27072.4
27060.3
27048.5
27037
27025.7
27014.7
27003.9
26993.4
26983
26973
26963.1
26953.4
26944
26934.7
26925.6
26916.6
26907.8
26899.2
26890.7
26882.3
26874
26865.9
26857.8
26849.8
26841.9
26834
26826.1
26818.3
26810.6
26802.8
26795
26787.2
26779.4
26771.6
26763.7
26755.7
26747.7
26739.6
26731.3
26723
26714.6
26706
26697.3
26688.4
26679.4
26670.2
26660.9
26651.3
26641.5
26631.6
26621.4
26610.9
26600.3
26589.4
26578.2
26566.8
26555.1
26543.1
26530.9
26518.3
26505.5
26492.4
26479
26465.2
26451.2
26436.8
26422.1
26407.1
26391.7
26376
26360
26343.7
26327
26310
26292.7
26275
26257
26238.7
26220.1
26201.1
26181.8
26162.2
26142.3
26122
26101.5
26080.7
26059.6
26038.2
26016.5
25994.6
25972.4
25949.9
25927.3
25904.3
25881.2
25857.8
25834.3
25810.6
25786.6
25762.6
25738.3
25714
25689.5
25664.9
25640.2
25615.4
25590.6
25565.7
25540.7
25515.8
25490.8
25465.9
25441
25416.1
25391.3
25366.5
25341.9
25317.3
25292.9
25268.6
25244.5
25220.5
25196.8
25173.2
25149.9
25126.8
25104
25081.4
25059.1
25037.1
25015.5
24994.1
24973.1
24952.5
24932.2
24912.2
24892.7
24873.6
24854.9
24836.6
24818.7
24801.2
24784.2
24767.7
24751.6
24735.9
24720.7
24706
24691.8
24678
24664.7
24651.9
24639.5
24627.6
24616.2
24605.3
24594.8
24584.8
24575.3
24566.2
24557.6
24549.4
24541.6
24534.3
24527.4
24520.9
24514.8
24509.2
24503.9
24499
24494.5
24490.4
24486.7
24483.3
24480.3
24477.6
24475.3
24473.3
24471.7
24470.4
24469.4
24468.8
24468.3
30060.3
30059.8
30058.8
30057.4
30055.4
30053
30050.1
30046.7
30042.9
30038.5
30033.7
30028.4
30022.6
30016.4
30009.7
30002.5
29994.8
29986.7
29978.1
29969
29959.5
29949.6
29939.1
29928.2
29916.9
29905.1
29892.9
29880.2
29867.1
29853.6
29839.6
29825.2
29810.4
29795.2
29779.5
29763.5
29747
29730.1
29712.9
29695.2
29677.1
29658.7
29639.9
29620.7
29601.1
29581.2
29560.9
29540.2
29519.2
29497.9
29476.2
29454.2
29431.8
29409.2
29386.2
29362.9
29339.3
29315.4
29291.2
29266.7
29242
29217
29191.7
29166.1
29140.3
29114.3
29088
29061.5
29034.8
29007.8
28980.7
28953.3
28925.8
28898
28870.1
28842
28813.8
28785.4
28756.8
28728.1
28699.3
28670.4
28641.3
28612.1
28582.9
28553.5
28524.1
28494.6
28465
28435.4
28405.8
28376.1
28346.3
28316.6
28286.8
28257.1
28227.3
28197.6
28167.9
28138.2
28108.6
28079
28049.5
28020.1
27990.7
27961.4
27932.2
27903.2
27874.2
27845.4
27816.7
27788.1
27759.7
27731.5
27703.4
27675.5
27647.8
27620.2
27592.9
27565.8
27538.9
27512.2
27485.7
27459.5
27433.5
27407.8
27382.3
27357.1
27332.2
27307.5
27283.2
27259.1
27235.3
27211.8
27188.6
27165.7
27143.2
27120.9
27099
27077.4
27056.1
27035.2
27014.6
26994.3
26974.4
26954.8
26935.6
26916.7
26898.2
26880
26862.1
26844.6
26827.5
26810.6
26794.2
26778
26762.2
26746.8
26731.7
26716.9
26702.4
26688.3
26674.5
26661
26647.8
26634.9
26622.3
26610
26598
26586.3
26574.9
26563.7
26552.8
26542.1
26531.7
26521.5
26511.5
26501.8
26492.3
26482.9
26473.8
26464.8
26456
26447.4
26438.9
26430.5
26422.3
26414.2
26406.1
26398.2
26390.4
26382.6
26374.9
26367.2
26359.6
26352
26344.4
26336.8
26329.1
26321.5
26313.8
26306.1
26298.3
26290.4
26282.4
26274.4
26266.2
26257.9
26249.5
26241
26232.3
26223.4
26214.3
26205.1
26195.7
26186.1
26176.2
26166.1
26155.8
26145.3
26134.5
26123.5
26112.2
26100.6
26088.7
26076.6
26064.1
26051.4
26038.3
26025
26011.3
25997.3
25983
25968.3
25953.3
25938
25922.4
25906.4
25890.1
25873.4
25856.4
25839.1
25821.4
25803.4
25785.1
25766.4
25747.4
25728.1
25708.4
25688.4
25668.1
25647.5
25626.6
25605.4
25583.9
25562.2
25540.1
25517.8
25495.2
25472.4
25449.4
25426.1
25402.6
25378.9
25355
25330.9
25306.6
25282.2
25257.7
25233
25208.2
25183.3
25158.3
25133.3
25108.1
25083
25057.8
25032.6
25007.4
24982.3
24957.2
24932.1
24907.1
24882.2
24857.4
24832.8
24808.3
24783.9
24759.7
24735.7
24711.9
24688.3
24665
24641.9
24619.1
24596.6
24574.4
24552.5
24530.9
24509.7
24488.9
24468.4
24448.3
24428.6
24409.2
24390.3
24371.9
24353.8
24336.3
24319.1
24302.4
24286.2
24270.4
24255.2
24240.4
24226
24212.2
24198.8
24186
24173.6
24161.7
24150.2
24139.3
24128.8
24118.8
24109.3
24100.2
24091.6
24083.4
24075.7
24068.4
24061.5
24055.1
24049.1
24043.4
24038.2
24033.4
24029
24024.9
24021.2
24017.9
24014.9
24012.3
24010
24008.1
24006.5
24005.2
24004.2
24003.6
24003.1
29611.4
29610.9
29610
29608.5
29606.6
29604.1
29601.2
29597.8
29593.9
29589.6
29584.7
29579.4
29573.6
29567.3
29560.6
29553.3
29545.6
29537.5
29528.8
29519.7
29510.2
29500.2
29489.7
29478.7
29467.3
29455.5
29443.2
29430.5
29417.3
29403.7
29389.7
29375.2
29360.3
29345
29329.3
29313.1
29296.6
29279.6
29262.3
29244.5
29226.4
29207.8
29188.9
29169.6
29150
29129.9
29109.5
29088.8
29067.7
29046.2
29024.4
29002.3
28979.8
28957.1
28934
28910.5
28886.8
28862.8
28838.5
28813.9
28789
28763.9
28738.5
28712.8
28686.8
28660.7
28634.3
28607.6
28580.7
28553.6
28526.3
28498.8
28471.1
28443.3
28415.2
28387
28358.6
28330
28301.3
28272.4
28243.5
28214.4
28185.2
28155.8
28126.4
28096.9
28067.3
28037.7
28007.9
27978.2
27948.3
27918.5
27888.6
27858.7
27828.7
27798.8
27768.9
27739
27709.2
27679.3
27649.5
27619.8
27590.1
27560.5
27531
27501.6
27472.2
27443
27413.9
27384.9
27356.1
27327.4
27298.8
27270.4
27242.2
27214.2
27186.3
27158.6
27131.2
27103.9
27076.9
27050
27023.5
26997.1
26971
26945.2
26919.6
26894.3
26869.3
26844.5
26820
26795.9
26772
26748.4
26725.1
26702.2
26679.6
26657.2
26635.3
26613.6
26592.3
26571.3
26550.7
26530.4
26510.4
26490.8
26471.6
26452.6
26434.1
26415.9
26398
26380.5
26363.4
26346.6
26330.1
26314
26298.3
26282.9
26267.8
26253.1
26238.7
26224.6
26210.8
26197.4
26184.3
26171.5
26159
26146.8
26134.9
26123.3
26112
26100.9
26090.1
26079.6
26069.3
26059.3
26049.4
26039.9
26030.5
26021.3
26012.3
26003.5
25994.9
25986.4
25978.1
25969.9
25961.8
25953.9
25946.1
25938.3
25930.7
25923.1
25915.6
25908.1
25900.6
25893.2
25885.8
25878.4
25871
25863.5
25856
25848.5
25840.9
25833.2
25825.4
25817.6
25809.6
25801.5
25793.3
25784.9
25776.3
25767.7
25758.8
25749.7
25740.5
25731
25721.3
25711.4
25701.2
25690.8
25680.2
25669.3
25658.1
25646.6
25634.9
25622.8
25610.5
25597.9
25584.9
25571.6
25558
25544.1
25529.9
25515.3
25500.3
25485.1
25469.5
25453.5
25437.2
25420.6
25403.6
25386.3
25368.6
25350.5
25332.2
25313.5
25294.4
25275
25255.3
25235.3
25214.9
25194.2
25173.2
25151.9
25130.3
25108.4
25086.2
25063.8
25041.1
25018.1
24994.9
24971.4
24947.8
24923.9
24899.8
24875.5
24851
24826.4
24801.7
24776.7
24751.7
24726.6
24701.4
24676
24650.7
24625.3
24599.8
24574.4
24548.9
24523.5
24498.1
24472.7
24447.5
24422.3
24397.2
24372.2
24347.4
24322.8
24298.3
24274
24249.9
24226.1
24202.5
24179.1
24156.1
24133.3
24110.8
24088.6
24066.8
24045.4
24024.3
24003.5
23983.2
23963.3
23943.7
23924.6
23906
23887.8
23870
23852.7
23835.9
23819.5
23803.6
23788.2
23773.3
23758.9
23745
23731.6
23718.6
23706.2
23694.2
23682.8
23671.8
23661.3
23651.3
23641.8
23632.7
23624.1
23616
23608.3
23601.1
23594.3
23587.9
23581.9
23576.4
23571.2
23566.5
23562.1
23558.1
23554.5
23551.2
23548.3
23545.7
23543.5
23541.6
23540
23538.8
23537.8
23537.3
23536.8
29163.9
29163.4
29162.4
29160.9
29159
29156.5
29153.6
29150.2
29146.3
29141.9
29137
29131.7
29125.8
29119.5
29112.7
29105.5
29097.7
29089.5
29080.8
29071.7
29062
29052
29041.4
29030.4
29019
29007.1
28994.7
28981.9
28968.7
28955
28940.9
28926.3
28911.4
28896
28880.1
28863.9
28847.3
28830.2
28812.7
28794.9
28776.6
28758
28739
28719.6
28699.8
28679.6
28659.1
28638.3
28617
28595.4
28573.5
28551.3
28528.7
28505.8
28482.5
28459
28435.1
28411
28386.5
28361.8
28336.8
28311.5
28285.9
28260.1
28234
28207.6
28181.1
28154.3
28127.2
28100
28072.5
28044.8
28017
27988.9
27960.7
27932.3
27903.7
27875
27846.1
27817.1
27787.9
27758.6
27729.2
27699.7
27670.1
27640.4
27610.7
27580.8
27550.9
27520.9
27490.9
27460.9
27430.8
27400.7
27370.6
27340.5
27310.4
27280.3
27250.3
27220.3
27190.3
27160.4
27130.5
27100.7
27071
27041.4
27011.9
26982.5
26953.2
26924.1
26895.1
26866.2
26837.5
26808.9
26780.5
26752.3
26724.3
26696.5
26668.8
26641.4
26614.2
26587.3
26560.5
26534.1
26507.8
26481.9
26456.2
26430.7
26405.6
26380.7
26356.1
26331.8
26307.9
26284.2
26260.8
26237.8
26215.1
26192.7
26170.6
26148.9
26127.5
26106.5
26085.8
26065.5
26045.5
26025.8
26006.6
25987.6
25969.1
25950.9
25933
25915.5
25898.4
25881.6
25865.2
25849.1
25833.4
25818
25803
25788.3
25774
25760
25746.3
25733
25720
25707.3
25694.9
25682.8
25671
25659.6
25648.4
25637.4
25626.8
25616.4
25606.3
25596.4
25586.7
25577.3
25568.1
25559.1
25550.3
25541.7
25533.2
25524.9
25516.8
25508.8
25501
25493.3
25485.6
25478.1
25470.7
25463.3
25456
25448.8
25441.5
25434.3
25427.1
25420
25412.8
25405.5
25398.3
25390.9
25383.5
25376.1
25368.5
25360.9
25353.1
25345.2
25337.2
25329.1
25320.7
25312.2
25303.6
25294.7
25285.6
25276.3
25266.8
25257.1
25247.1
25236.9
25226.4
25215.6
25204.6
25193.3
25181.7
25169.7
25157.5
25145
25132.1
25119
25105.5
25091.6
25077.5
25062.9
25048.1
25032.9
25017.3
25001.4
24985.1
24968.5
24951.5
24934.2
24916.5
24898.4
24880
24861.3
24842.2
24822.7
24802.9
24782.8
24762.4
24741.6
24720.5
24699.1
24677.3
24655.3
24633
24610.4
24587.5
24564.4
24541
24517.3
24493.4
24469.3
24445
24420.5
24395.8
24370.9
24345.9
24320.8
24295.5
24270
24244.5
24218.9
24193.3
24167.6
24141.8
24116
24090.3
24064.5
24038.8
24013.1
23987.5
23962
23936.6
23911.3
23886.2
23861.2
23836.4
23811.8
23787.4
23763.2
23739.2
23715.6
23692.2
23669.1
23646.3
23623.8
23601.7
23580
23558.6
23537.6
23517
23496.8
23477.1
23457.7
23438.9
23420.4
23402.5
23385
23368
23351.5
23335.4
23319.9
23304.9
23290.3
23276.3
23262.8
23249.8
23237.3
23225.3
23213.8
23202.9
23192.4
23182.4
23172.9
23163.8
23155.3
23147.2
23139.6
23132.4
23125.6
23119.3
23113.4
23108
23102.9
23098.2
23093.9
23090
23086.4
23083.2
23080.4
23077.9
23075.7
23073.9
23072.4
23071.1
23070.2
23069.7
23069.2
28717.6
28717.1
28716.1
28714.7
28712.7
28710.2
28707.3
28703.9
28699.9
28695.5
28690.6
28685.2
28679.3
28673
28666.2
28658.8
28651.1
28642.8
28634
28624.8
28615.2
28605
28594.4
28583.3
28571.8
28559.8
28547.4
28534.5
28521.2
28507.4
28493.2
28478.6
28463.5
28448
28432.1
28415.8
28399
28381.8
28364.3
28346.3
28327.9
28309.2
28290
28270.5
28250.6
28230.3
28209.7
28188.7
28167.3
28145.6
28123.5
28101.1
28078.4
28055.3
28031.9
28008.2
27984.2
27959.9
27935.3
27910.4
27885.2
27859.7
27834
27808
27781.7
27755.2
27728.5
27701.5
27674.3
27646.8
27619.2
27591.3
27563.3
27535
27506.6
27478
27449.2
27420.3
27391.2
27362
27332.6
27303.2
27273.6
27243.9
27214
27184.1
27154.2
27124.1
27094
27063.8
27033.6
27003.3
26973.1
26942.8
26912.4
26882.1
26851.8
26821.5
26791.3
26761
26730.9
26700.7
26670.7
26640.7
26610.8
26581
26551.3
26521.7
26492.2
26462.8
26433.6
26404.5
26375.6
26346.9
26318.3
26289.9
26261.7
26233.7
26205.9
26178.3
26151
26123.8
26097
26070.3
26043.9
26017.8
25992
25966.4
25941.1
25916.1
25891.4
25867
25842.9
25819.1
25795.6
25772.5
25749.7
25727.2
25705.1
25683.3
25661.8
25640.7
25620
25599.6
25579.6
25559.9
25540.6
25521.6
25503.1
25484.8
25467
25449.5
25432.4
25415.6
25399.2
25383.2
25367.5
25352.2
25337.3
25322.7
25308.4
25294.5
25280.9
25267.7
25254.8
25242.2
25229.9
25218
25206.3
25195
25183.9
25173.2
25162.7
25152.5
25142.5
25132.8
25123.3
25114.1
25105.1
25096.3
25087.7
25079.3
25071.1
25063
25055.1
25047.4
25039.7
25032.3
25024.9
25017.6
25010.4
25003.3
24996.2
24989.2
24982.2
24975.3
24968.4
24961.4
24954.5
24947.5
24940.5
24933.4
24926.3
24919.1
24911.8
24904.4
24896.8
24889.2
24881.4
24873.5
24865.4
24857.1
24848.7
24840
24831.2
24822.1
24812.8
24803.2
24793.5
24783.4
24773.1
24762.5
24751.7
24740.5
24729
24717.3
24705.2
24692.8
24680.1
24667
24653.6
24639.9
24625.8
24611.4
24596.6
24581.4
24565.9
24550
24533.8
24517.2
24500.2
24482.9
24465.2
24447.1
24428.6
24409.9
24390.7
24371.2
24351.3
24331.1
24310.6
24289.7
24268.4
24246.9
24225
24202.8
24180.4
24157.6
24134.5
24111.2
24087.6
24063.7
24039.6
24015.2
23990.7
23965.9
23940.9
23915.8
23890.5
23865
23839.4
23813.7
23787.9
23761.9
23735.9
23709.9
23683.8
23657.7
23631.5
23605.4
23579.3
23553.3
23527.3
23501.4
23475.7
23450
23424.5
23399.1
23373.9
23348.9
23324.1
23299.6
23275.3
23251.2
23227.5
23204
23180.9
23158.1
23135.7
23113.6
23091.9
23070.6
23049.7
23029.2
23009.2
22989.6
22970.4
22951.8
22933.6
22915.9
22898.7
22882
22865.8
22850.1
22834.9
22820.3
22806.2
22792.6
22779.5
22766.9
22754.9
22743.4
22732.4
22721.9
22711.9
22702.4
22693.4
22684.9
22676.9
22669.3
22662.2
22655.6
22649.3
22643.5
22638.1
22633.2
22628.6
22624.4
22620.6
22617.1
22614
22611.2
22608.8
22606.7
22604.9
22603.5
22602.3
22601.4
22600.9
22600.4
28272.7
28272.2
28271.2
28269.7
28267.7
28265.3
28262.3
28258.8
28254.9
28250.4
28245.5
28240.1
28234.1
28227.7
28220.9
28213.5
28205.6
28197.3
28188.5
28179.2
28169.5
28159.3
28148.6
28137.5
28125.9
28113.8
28101.3
28088.3
28074.9
28061
28046.7
28032
28016.8
28001.2
27985.2
27968.7
27951.8
27934.5
27916.9
27898.8
27880.3
27861.4
27842.1
27822.4
27802.4
27781.9
27761.2
27740
27718.5
27696.6
27674.4
27651.8
27628.9
27605.7
27582.1
27558.3
27534.1
27509.6
27484.8
27459.7
27434.3
27408.7
27382.8
27356.6
27330.1
27303.4
27276.5
27249.3
27221.9
27194.2
27166.4
27138.3
27110
27081.6
27052.9
27024.1
26995.1
26966
26936.7
26907.2
26877.7
26847.9
26818.1
26788.2
26758.2
26728
26697.8
26667.5
26637.2
26606.8
26576.3
26545.8
26515.3
26484.8
26454.2
26423.7
26393.1
26362.6
26332.1
26301.6
26271.2
26240.9
26210.6
26180.4
26150.2
26120.2
26090.2
26060.4
26030.7
26001.1
25971.7
25942.4
25913.3
25884.3
25855.6
25827
25798.6
25770.4
25742.4
25714.6
25687.1
25659.7
25632.7
25605.9
25579.3
25553
25527
25501.3
25475.8
25450.7
25425.8
25401.3
25377.1
25353.2
25329.6
25306.3
25283.4
25260.8
25238.6
25216.7
25195.2
25174
25153.2
25132.8
25112.7
25093
25073.7
25054.7
25036.1
25017.9
25000
24982.5
24965.4
24948.7
24932.3
24916.4
24900.7
24885.5
24870.6
24856.1
24841.9
24828.1
24814.6
24801.5
24788.7
24776.2
24764.1
24752.3
24740.8
24729.6
24718.7
24708.1
24697.8
24687.8
24678
24668.5
24659.3
24650.2
24641.5
24632.9
24624.5
24616.3
24608.4
24600.6
24592.9
24585.4
24578.1
24570.8
24563.7
24556.7
24549.8
24543
24536.2
24529.5
24522.8
24516.1
24509.5
24502.8
24496.1
24489.4
24482.7
24475.9
24469.1
24462.1
24455.1
24448
24440.8
24433.4
24425.9
24418.2
24410.4
24402.3
24394.1
24385.7
24377.1
24368.3
24359.2
24349.9
24340.3
24330.5
24320.4
24310
24299.3
24288.4
24277.1
24265.5
24253.5
24241.3
24228.7
24215.8