/*--------------------------------*- C++ -*----------------------------------*\
| =========                 |                                                 |
| \\      /  F ield         | OpenFOAM: The Open Source CFD Toolbox           |
|  \\    /   O peration     | Version:  v2006                                 |
|   \\  /    A nd           | Website:  www.openfoam.com                      |
|    \\/     M anipulation  |                                                 |
\*---------------------------------------------------------------------------*/
FoamFile
{
    version     2.0;
    format      ascii;
    class       volVectorField;
    location    "2.2";
    object      U;
}
// * * * * * * * * * * * * * * * * * * * * * * * * * * * * * * * * * * * * * //

dimensions      [0 1 -1 0 0 0 0];


internalField   nonuniform List<vector> 
52500
(
(0.000400474 -0.000899231 0)
(0.00119158 -0.000896078 0)
(0.00198282 -0.000897372 0)
(0.00277672 -0.000899643 0)
(0.00357428 -0.000902659 0)
(0.00437664 -0.000906358 0)
(0.00518494 -0.000910829 0)
(0.00600015 -0.000916069 0)
(0.0068233 -0.000921998 0)
(0.00765543 -0.000928622 0)
(0.00849757 -0.000935989 0)
(0.0093509 -0.000944064 0)
(0.0102164 -0.000952933 0)
(0.0110947 -0.000962515 0)
(0.0119874 -0.000972565 0)
(0.0128955 -0.000983475 0)
(0.0138194 -0.000995081 0)
(0.0147604 -0.00100742 0)
(0.0157193 -0.00102044 0)
(0.0166972 -0.00103412 0)
(0.017695 -0.0010484 0)
(0.0187135 -0.00106328 0)
(0.0197537 -0.00107874 0)
(0.0208164 -0.00109479 0)
(0.0219024 -0.00111147 0)
(0.0230122 -0.00112874 0)
(0.0241473 -0.00114635 0)
(0.0253085 -0.00116463 0)
(0.0264958 -0.00118336 0)
(0.0277103 -0.00120257 0)
(0.0289529 -0.0012223 0)
(0.0302241 -0.0012426 0)
(0.0315246 -0.0012634 0)
(0.032855 -0.00128467 0)
(0.0342159 -0.0013064 0)
(0.035608 -0.00132859 0)
(0.0370317 -0.00135123 0)
(0.0384876 -0.0013743 0)
(0.0399761 -0.00139785 0)
(0.0414976 -0.00142181 0)
(0.0430528 -0.00144611 0)
(0.0446418 -0.00147083 0)
(0.0462651 -0.00149589 0)
(0.0479231 -0.00152128 0)
(0.0496159 -0.00154695 0)
(0.0513439 -0.00157291 0)
(0.0531074 -0.00159924 0)
(0.0549063 -0.00162581 0)
(0.056741 -0.00165263 0)
(0.0586115 -0.0016797 0)
(0.0605179 -0.001707 0)
(0.06246 -0.00173438 0)
(0.064438 -0.00176179 0)
(0.0664526 -0.00178917 0)
(0.0685025 -0.0018169 0)
(0.0705873 -0.00184428 0)
(0.0727083 -0.00187164 0)
(0.074865 -0.00189907 0)
(0.0770566 -0.00192648 0)
(0.0792832 -0.00195383 0)
(0.0815444 -0.00198111 0)
(0.0838399 -0.00200833 0)
(0.0861693 -0.00203542 0)
(0.0885322 -0.00206252 0)
(0.0909283 -0.00208955 0)
(0.0933571 -0.00211647 0)
(0.095818 -0.0021433 0)
(0.0983106 -0.00217003 0)
(0.100834 -0.00219668 0)
(0.103389 -0.00222332 0)
(0.105973 -0.00224984 0)
(0.108586 -0.00227632 0)
(0.111228 -0.0023027 0)
(0.113898 -0.00232888 0)
(0.116595 -0.00235447 0)
(0.119317 -0.00237935 0)
(0.122065 -0.0024033 0)
(0.124837 -0.00242595 0)
(0.127631 -0.00244701 0)
(0.130445 -0.0024665 0)
(0.133278 -0.00248418 0)
(0.136128 -0.00250014 0)
(0.138994 -0.00251448 0)
(0.141874 -0.00252722 0)
(0.144767 -0.00253823 0)
(0.147669 -0.00254806 0)
(0.150579 -0.00255602 0)
(0.153496 -0.00256235 0)
(0.156419 -0.00256686 0)
(0.159344 -0.00256989 0)
(0.16227 -0.00257133 0)
(0.165196 -0.00257117 0)
(0.168119 -0.00256927 0)
(0.171038 -0.00256551 0)
(0.17395 -0.00256012 0)
(0.176853 -0.002553 0)
(0.179746 -0.00254404 0)
(0.182627 -0.00253333 0)
(0.185493 -0.00252084 0)
(0.188342 -0.00250654 0)
(0.191173 -0.00249039 0)
(0.193982 -0.00247254 0)
(0.196769 -0.0024523 0)
(0.199531 -0.00243043 0)
(0.202265 -0.00240691 0)
(0.204971 -0.00238165 0)
(0.207645 -0.00235392 0)
(0.210285 -0.00232446 0)
(0.21289 -0.00229337 0)
(0.215457 -0.00226028 0)
(0.217985 -0.00222528 0)
(0.22047 -0.00218839 0)
(0.222911 -0.0021496 0)
(0.225306 -0.00210892 0)
(0.227653 -0.00206634 0)
(0.229949 -0.00202182 0)
(0.232193 -0.00197541 0)
(0.234383 -0.00192714 0)
(0.236516 -0.00187697 0)
(0.23859 -0.001825 0)
(0.240604 -0.00177119 0)
(0.242555 -0.00171551 0)
(0.244442 -0.00165798 0)
(0.246262 -0.00159867 0)
(0.248015 -0.00153753 0)
(0.249697 -0.00147472 0)
(0.251307 -0.00140992 0)
(0.252843 -0.00134328 0)
(0.254304 -0.00127505 0)
(0.255687 -0.00120514 0)
(0.256992 -0.0011335 0)
(0.258216 -0.00106018 0)
(0.259357 -0.000985203 0)
(0.260415 -0.000908462 0)
(0.261388 -0.000830411 0)
(0.262274 -0.000750746 0)
(0.263071 -0.00066936 0)
(0.263778 -0.000586575 0)
(0.264395 -0.000502487 0)
(0.264918 -0.000417042 0)
(0.265348 -0.000330291 0)
(0.265683 -0.000242228 0)
(0.265921 -0.000152848 0)
(0.266061 -6.20423e-05 0)
(0.2661 3.06073e-05 0)
(0.266037 0.000126835 0)
(0.265869 0.000225691 0)
(0.265595 0.000326821 0)
(0.265214 0.00042995 0)
(0.264726 0.000534953 0)
(0.264128 0.000641764 0)
(0.263421 0.000750252 0)
(0.262603 0.000860328 0)
(0.261673 0.000972021 0)
(0.260631 0.00108535 0)
(0.259476 0.00120027 0)
(0.258208 0.00131667 0)
(0.256825 0.00143448 0)
(0.255328 0.00155366 0)
(0.253716 0.00167427 0)
(0.251988 0.00179627 0)
(0.250144 0.00191961 0)
(0.248184 0.00204424 0)
(0.246107 0.00217011 0)
(0.243914 0.00229716 0)
(0.241604 0.00242527 0)
(0.239177 0.00255442 0)
(0.236633 0.00268461 0)
(0.233972 0.00281575 0)
(0.231193 0.00294767 0)
(0.228298 0.0030803 0)
(0.225287 0.00321363 0)
(0.222158 0.00334751 0)
(0.218914 0.00348167 0)
(0.215554 0.00361594 0)
(0.212079 0.0037502 0)
(0.20849 0.00388419 0)
(0.204786 0.00401737 0)
(0.20097 0.00414927 0)
(0.197042 0.00427935 0)
(0.193004 0.00440752 0)
(0.188857 0.00453542 0)
(0.1846 0.00466573 0)
(0.180233 0.00479707 0)
(0.175755 0.00491378 0)
(0.171184 0.00497792 0)
(0.166559 0.00493958 0)
(0.161939 0.00477184 0)
(0.157377 0.00450476 0)
(0.152894 0.00421893 0)
(0.14847 0.00399482 0)
(0.144064 0.00386641 0)
(0.139636 0.00381915 0)
(0.135162 0.00382018 0)
(0.130631 0.00384451 0)
(0.12604 0.00388009 0)
(0.12139 0.00392181 0)
(0.116681 0.00396658 0)
(0.111914 0.00401139 0)
(0.107093 0.00405285 0)
(0.102222 0.00408799 0)
(0.097307 0.00411555 0)
(0.0923534 0.00413604 0)
(0.0873652 0.004151 0)
(0.0823462 0.00416206 0)
(0.0773003 0.00416997 0)
(0.0722301 0.00417518 0)
(0.0671376 0.00417766 0)
(0.0620259 0.00417707 0)
(0.0568983 0.00417349 0)
(0.0517572 0.00416705 0)
(0.0466049 0.00415751 0)
(0.0414454 0.00414523 0)
(0.0362698 0.00412911 0)
(0.0310966 0.00411623 0)
(0.0259265 0.00409075 0)
(0.0207566 0.00406902 0)
(0.0155993 0.0040403 0)
(0.0104362 0.00401023 0)
(0.00528603 0.00398 0)
(0.000161946 0.00394408 0)
(-0.00495335 0.00390596 0)
(-0.0100636 0.00386707 0)
(-0.0151558 0.00382841 0)
(-0.0202282 0.00378787 0)
(-0.025281 0.00374651 0)
(-0.0303122 0.00370483 0)
(-0.035321 0.00366292 0)
(-0.0403056 0.00362122 0)
(-0.0452648 0.00357985 0)
(-0.0501992 0.00353886 0)
(-0.0551069 0.00349878 0)
(-0.059986 0.00346027 0)
(-0.0648385 0.00342337 0)
(-0.0696647 0.00338743 0)
(-0.0744619 0.00335339 0)
(-0.0792297 0.00332145 0)
(-0.0839689 0.00329169 0)
(-0.0886793 0.00326429 0)
(-0.0933611 0.00323937 0)
(-0.0980143 0.00321705 0)
(-0.102639 0.00319743 0)
(-0.107236 0.00318059 0)
(-0.111804 0.00316658 0)
(-0.116344 0.00315546 0)
(-0.120857 0.00314724 0)
(-0.125342 0.0031419 0)
(-0.1298 0.00313938 0)
(-0.13423 0.00313961 0)
(-0.138632 0.0031425 0)
(-0.143007 0.00314795 0)
(-0.147355 0.00315579 0)
(-0.151674 0.00316584 0)
(-0.155965 0.00317788 0)
(-0.160227 0.00319168 0)
(-0.164459 0.00320695 0)
(-0.168661 0.00322335 0)
(-0.172832 0.00324048 0)
(-0.176969 0.00325789 0)
(-0.181073 0.00327508 0)
(-0.185141 0.00329152 0)
(-0.189171 0.00330677 0)
(-0.193163 0.00332061 0)
(-0.197114 0.00333358 0)
(-0.201024 0.00334683 0)
(-0.204889 0.00336073 0)
(-0.208705 0.00337494 0)
(-0.212469 0.00338909 0)
(-0.216178 0.0034027 0)
(-0.219829 0.00341529 0)
(-0.223416 0.0034264 0)
(-0.226938 0.00343556 0)
(-0.230388 0.00344231 0)
(-0.233764 0.00344622 0)
(-0.237061 0.00344687 0)
(-0.240273 0.0034439 0)
(-0.243396 0.00343697 0)
(-0.246425 0.00342574 0)
(-0.249355 0.00340985 0)
(-0.25218 0.00338893 0)
(-0.254895 0.00336255 0)
(-0.257494 0.00333065 0)
(-0.259972 0.00329377 0)
(-0.262326 0.00325124 0)
(-0.26455 0.00319448 0)
(-0.266635 0.00309722 0)
(-0.268554 0.00291022 0)
(-0.270248 0.00257277 0)
(-0.271645 0.0020577 0)
(-0.272684 0.00143393 0)
(-0.273328 0.00085117 0)
(-0.273608 0.000406743 0)
(-0.273616 8.34957e-05 0)
(-0.273416 -0.000168139 0)
(-0.273011 -0.000374332 0)
(-0.272412 -0.000550196 0)
(-0.271625 -0.000708919 0)
(-0.270656 -0.00085873 0)
(-0.269507 -0.00100403 0)
(-0.268182 -0.00114686 0)
(-0.26668 -0.00128809 0)
(-0.265004 -0.00142808 0)
(-0.263152 -0.00156709 0)
(-0.261125 -0.0017054 0)
(-0.258924 -0.00184335 0)
(-0.256548 -0.00198129 0)
(-0.253997 -0.00211949 0)
(-0.251271 -0.00225818 0)
(-0.248371 -0.00239743 0)
(-0.245297 -0.00253728 0)
(-0.242047 -0.00267764 0)
(-0.238624 -0.00281841 0)
(-0.235028 -0.00295941 0)
(-0.231259 -0.0031004 0)
(-0.227318 -0.00324114 0)
(-0.223207 -0.00338137 0)
(-0.218927 -0.00352085 0)
(-0.214479 -0.00365935 0)
(-0.209866 -0.00379664 0)
(-0.205089 -0.00393251 0)
(-0.20015 -0.00406673 0)
(-0.195052 -0.00419908 0)
(-0.189798 -0.00432935 0)
(-0.18439 -0.00445732 0)
(-0.178831 -0.00458277 0)
(-0.173124 -0.00470551 0)
(-0.167274 -0.00482535 0)
(-0.161283 -0.00494211 0)
(-0.155156 -0.00505559 0)
(-0.148896 -0.00516563 0)
(-0.142508 -0.00527205 0)
(-0.135996 -0.00537468 0)
(-0.129366 -0.00547335 0)
(-0.122621 -0.0055679 0)
(-0.115767 -0.00565816 0)
(-0.108809 -0.00574394 0)
(-0.101754 -0.00582508 0)
(-0.0946052 -0.0059014 0)
(-0.0873703 -0.00597273 0)
(-0.0800548 -0.00603896 0)
(-0.0726648 -0.00610004 0)
(-0.0652068 -0.00615595 0)
(-0.0576873 -0.00620582 0)
(-0.0501126 -0.00624628 0)
(-0.042495 -0.00627239 0)
(-0.0348657 -0.00629658 0)
(-0.027241 -0.00640887 0)
(-0.0193861 -0.00680593 0)
(-0.0102145 -0.00727332 0)
(-0.00237219 -0.00507413 0)
(0.000199262 -0.0016654 0)
(0.00058154 -0.00164899 0)
(0.000967247 -0.00165459 0)
(0.00135536 -0.00166286 0)
(0.00174823 -0.00167405 0)
(0.00214696 -0.001688 0)
(0.00255283 -0.00170478 0)
(0.00296734 -0.0017243 0)
(0.00339173 -0.00174666 0)
(0.00382708 -0.00177175 0)
(0.00427471 -0.00179949 0)
(0.00473598 -0.00182979 0)
(0.00521219 -0.00186274 0)
(0.00570464 -0.00189833 0)
(0.00621447 -0.00193639 0)
(0.00674275 -0.00197713 0)
(0.00729068 -0.00202027 0)
(0.00785953 -0.00206597 0)
(0.00845054 -0.00211386 0)
(0.00906481 -0.00216415 0)
(0.00970344 -0.00221674 0)
(0.0103675 -0.00227175 0)
(0.0110579 -0.0023291 0)
(0.0117757 -0.00238863 0)
(0.012522 -0.00245023 0)
(0.0132978 -0.00251391 0)
(0.0141041 -0.00257952 0)
(0.0149418 -0.0026474 0)
(0.0158116 -0.00271729 0)
(0.0167143 -0.00278902 0)
(0.0176508 -0.00286245 0)
(0.018622 -0.0029375 0)
(0.0196287 -0.00301421 0)
(0.0206715 -0.00309248 0)
(0.0217511 -0.00317223 0)
(0.0228682 -0.0032534 0)
(0.0240232 -0.00333595 0)
(0.0252168 -0.00341969 0)
(0.0264494 -0.00350446 0)
(0.0277218 -0.00359033 0)
(0.0290341 -0.0036772 0)
(0.0303867 -0.003765 0)
(0.0317802 -0.00385354 0)
(0.0332147 -0.00394278 0)
(0.0346905 -0.00403278 0)
(0.0362076 -0.00412327 0)
(0.0377663 -0.00421423 0)
(0.0393668 -0.00430553 0)
(0.0410091 -0.00439708 0)
(0.0426929 -0.00448879 0)
(0.0444187 -0.0045806 0)
(0.0461861 -0.00467239 0)
(0.0479949 -0.00476394 0)
(0.049845 -0.00485527 0)
(0.0517359 -0.0049467 0)
(0.0536672 -0.00503725 0)
(0.0556386 -0.00512707 0)
(0.0576497 -0.00521621 0)
(0.0597002 -0.00530459 0)
(0.0617893 -0.00539196 0)
(0.0639166 -0.00547835 0)
(0.0660811 -0.00556287 0)
(0.068282 -0.00564691 0)
(0.0705186 -0.00572952 0)
(0.0727903 -0.00581055 0)
(0.075096 -0.00589015 0)
(0.0774346 -0.00596817 0)
(0.0798049 -0.00604443 0)
(0.082206 -0.00611888 0)
(0.0846366 -0.00619145 0)
(0.0870954 -0.00626196 0)
(0.0895812 -0.00633039 0)
(0.0920925 -0.00639658 0)
(0.094628 -0.00646061 0)
(0.0971861 -0.00652211 0)
(0.0997654 -0.00658083 0)
(0.102365 -0.00663657 0)
(0.104983 -0.00668908 0)
(0.10762 -0.00673812 0)
(0.110272 -0.00678365 0)
(0.11294 -0.00682525 0)
(0.115623 -0.00686294 0)
(0.118318 -0.00689668 0)
(0.121024 -0.00692642 0)
(0.123741 -0.00695216 0)
(0.126466 -0.00697309 0)
(0.129198 -0.00699021 0)
(0.131936 -0.00700304 0)
(0.134677 -0.00701142 0)
(0.13742 -0.00701531 0)
(0.140164 -0.00701466 0)
(0.142907 -0.00700957 0)
(0.145646 -0.00699973 0)
(0.148381 -0.00698515 0)
(0.151109 -0.00696577 0)
(0.153828 -0.00694165 0)
(0.156537 -0.0069127 0)
(0.159233 -0.00687887 0)
(0.161915 -0.00684007 0)
(0.164581 -0.00679651 0)
(0.167229 -0.00674736 0)
(0.169858 -0.00669362 0)
(0.172463 -0.00663502 0)
(0.175043 -0.00657117 0)
(0.177598 -0.00650221 0)
(0.180126 -0.0064282 0)
(0.182624 -0.00634911 0)
(0.185087 -0.00626494 0)
(0.187518 -0.00617571 0)
(0.189912 -0.00608128 0)
(0.192269 -0.00598185 0)
(0.194585 -0.0058774 0)
(0.196859 -0.00576789 0)
(0.199089 -0.00565333 0)
(0.201273 -0.00553385 0)
(0.203409 -0.00540944 0)
(0.205495 -0.00528002 0)
(0.20753 -0.0051459 0)
(0.20951 -0.00500705 0)
(0.211436 -0.00486346 0)
(0.213304 -0.00471514 0)
(0.215113 -0.00456223 0)
(0.216862 -0.0044048 0)
(0.218548 -0.00424286 0)
(0.220169 -0.00407656 0)
(0.221726 -0.00390596 0)
(0.223216 -0.00373107 0)
(0.224635 -0.00355212 0)
(0.225984 -0.00336914 0)
(0.227263 -0.00318224 0)
(0.228468 -0.00299154 0)
(0.229598 -0.00279693 0)
(0.230652 -0.00259872 0)
(0.231629 -0.00239711 0)
(0.232529 -0.00219236 0)
(0.233349 -0.00198421 0)
(0.234088 -0.00177268 0)
(0.234745 -0.00155818 0)
(0.23532 -0.00134095 0)
(0.235812 -0.00112088 0)
(0.23622 -0.000898074 0)
(0.236543 -0.000672881 0)
(0.23678 -0.000445378 0)
(0.236931 -0.000215421 0)
(0.236997 1.71485e-05 0)
(0.23698 0.000252902 0)
(0.236879 0.000491363 0)
(0.236695 0.000732185 0)
(0.236429 0.000974767 0)
(0.236079 0.00121901 0)
(0.235645 0.00146488 0)
(0.235129 0.00171216 0)
(0.234529 0.00196057 0)
(0.233846 0.00221005 0)
(0.233079 0.00246039 0)
(0.23223 0.00271137 0)
(0.231298 0.00296296 0)
(0.230284 0.00321504 0)
(0.229187 0.00346749 0)
(0.228009 0.00372023 0)
(0.22675 0.00397299 0)
(0.225409 0.00422567 0)
(0.223989 0.00447819 0)
(0.222488 0.00473042 0)
(0.220909 0.0049823 0)
(0.21925 0.00523366 0)
(0.217514 0.00548434 0)
(0.215701 0.00573438 0)
(0.213812 0.00598376 0)
(0.211846 0.00623212 0)
(0.209806 0.00647932 0)
(0.207692 0.00672545 0)
(0.205505 0.00697034 0)
(0.203245 0.00721375 0)
(0.200913 0.00745576 0)
(0.198512 0.00769644 0)
(0.19604 0.00793551 0)
(0.193499 0.00817265 0)
(0.19089 0.00840797 0)
(0.188214 0.00864157 0)
(0.185471 0.00887362 0)
(0.182662 0.00910533 0)
(0.179789 0.00933853 0)
(0.176857 0.00957259 0)
(0.173864 0.0097995 0)
(0.170797 0.0100014 0)
(0.167621 0.0101566 0)
(0.164286 0.0102547 0)
(0.16075 0.0103114 0)
(0.157001 0.0103632 0)
(0.153062 0.0104439 0)
(0.148976 0.0105645 0)
(0.144781 0.0107147 0)
(0.1405 0.0108776 0)
(0.136145 0.0110422 0)
(0.131719 0.0112038 0)
(0.127226 0.0113607 0)
(0.122668 0.0115123 0)
(0.118047 0.0116578 0)
(0.113362 0.0117962 0)
(0.108612 0.0119261 0)
(0.103797 0.0120469 0)
(0.0989142 0.0121586 0)
(0.0939637 0.0122623 0)
(0.0889455 0.012359 0)
(0.0838614 0.0124492 0)
(0.0787127 0.0125327 0)
(0.0734993 0.0126096 0)
(0.0682229 0.0126802 0)
(0.0628865 0.0127445 0)
(0.057491 0.0128023 0)
(0.0520379 0.0128537 0)
(0.0465291 0.0128986 0)
(0.040965 0.0129364 0)
(0.0353413 0.0129746 0)
(0.0296708 0.0129966 0)
(0.0239604 0.0130219 0)
(0.0182039 0.013034 0)
(0.0124025 0.0130444 0)
(0.00655687 0.0130499 0)
(0.000684778 0.0130505 0)
(-0.00522102 0.0130429 0)
(-0.0111664 0.0130309 0)
(-0.0171421 0.0130159 0)
(-0.0231451 0.0129955 0)
(-0.0291701 0.0129703 0)
(-0.0352152 0.012941 0)
(-0.0412771 0.0129075 0)
(-0.0473519 0.01287 0)
(-0.0534365 0.0128288 0)
(-0.0595279 0.0127839 0)
(-0.0656201 0.0127353 0)
(-0.0717094 0.0126834 0)
(-0.077796 0.0126282 0)
(-0.0838742 0.0125701 0)
(-0.0899369 0.0125092 0)
(-0.0959812 0.0124455 0)
(-0.102003 0.0123791 0)
(-0.107998 0.0123099 0)
(-0.113962 0.0122381 0)
(-0.119891 0.0121638 0)
(-0.125779 0.0120869 0)
(-0.131622 0.0120074 0)
(-0.137416 0.0119253 0)
(-0.143155 0.0118405 0)
(-0.148835 0.0117531 0)
(-0.154451 0.0116629 0)
(-0.159999 0.0115698 0)
(-0.165473 0.0114735 0)
(-0.170868 0.0113741 0)
(-0.17618 0.0112712 0)
(-0.181404 0.0111648 0)
(-0.186535 0.0110544 0)
(-0.191568 0.01094 0)
(-0.196498 0.0108212 0)
(-0.201321 0.0106978 0)
(-0.206031 0.0105694 0)
(-0.210626 0.0104356 0)
(-0.215098 0.0102962 0)
(-0.219446 0.0101506 0)
(-0.223663 0.00999842 0)
(-0.227745 0.00983939 0)
(-0.231689 0.00967331 0)
(-0.235488 0.00950035 0)
(-0.239138 0.00932086 0)
(-0.242636 0.00913447 0)
(-0.245977 0.00894027 0)
(-0.249159 0.00873751 0)
(-0.25218 0.0085256 0)
(-0.255036 0.00830408 0)
(-0.257724 0.00807252 0)
(-0.260242 0.00783057 0)
(-0.262587 0.00757792 0)
(-0.264756 0.00731429 0)
(-0.266748 0.00703939 0)
(-0.268561 0.006753 0)
(-0.270193 0.00645494 0)
(-0.271642 0.00614506 0)
(-0.272908 0.00582331 0)
(-0.27399 0.00548977 0)
(-0.274887 0.00514474 0)
(-0.275599 0.00478909 0)
(-0.276126 0.00442437 0)
(-0.276468 0.004052 0)
(-0.276624 0.00367056 0)
(-0.276598 0.00327047 0)
(-0.276412 0.00283049 0)
(-0.276124 0.00232598 0)
(-0.275807 0.00175226 0)
(-0.275517 0.00114364 0)
(-0.275289 0.000560998 0)
(-0.275093 4.47332e-05 0)
(-0.274828 -0.000420148 0)
(-0.274426 -0.000867306 0)
(-0.273892 -0.00130756 0)
(-0.273213 -0.00174336 0)
(-0.272381 -0.00217649 0)
(-0.271387 -0.00260806 0)
(-0.270224 -0.00303892 0)
(-0.268888 -0.00346968 0)
(-0.267378 -0.00390069 0)
(-0.26569 -0.00433209 0)
(-0.263825 -0.0047639 0)
(-0.26178 -0.00519602 0)
(-0.259557 -0.00562832 0)
(-0.257155 -0.00606062 0)
(-0.254574 -0.00649266 0)
(-0.251814 -0.00692418 0)
(-0.248876 -0.00735485 0)
(-0.245761 -0.00778431 0)
(-0.24247 -0.00821221 0)
(-0.239004 -0.00863815 0)
(-0.235365 -0.00906174 0)
(-0.231553 -0.00948258 0)
(-0.227571 -0.00990026 0)
(-0.223419 -0.0103143 0)
(-0.2191 -0.0107244 0)
(-0.214616 -0.01113 0)
(-0.209967 -0.0115308 0)
(-0.205158 -0.0119262 0)
(-0.200189 -0.0123158 0)
(-0.195063 -0.0126992 0)
(-0.189784 -0.0130759 0)
(-0.184353 -0.0134454 0)
(-0.178774 -0.0138073 0)
(-0.173051 -0.0141611 0)
(-0.167185 -0.0145062 0)
(-0.161181 -0.0148423 0)
(-0.155044 -0.0151687 0)
(-0.148776 -0.015485 0)
(-0.142381 -0.0157907 0)
(-0.135865 -0.0160853 0)
(-0.129232 -0.0163682 0)
(-0.122487 -0.0166389 0)
(-0.115634 -0.0168971 0)
(-0.108679 -0.0171421 0)
(-0.101627 -0.0173736 0)
(-0.0944842 -0.017591 0)
(-0.0872556 -0.017794 0)
(-0.0799475 -0.0179822 0)
(-0.0725658 -0.0181556 0)
(-0.0651169 -0.0183141 0)
(-0.0576073 -0.0184551 0)
(-0.0500434 -0.0185686 0)
(-0.042437 -0.01864 0)
(-0.0348179 -0.0187061 0)
(-0.0272037 -0.0190362 0)
(-0.0193601 -0.0202169 0)
(-0.0101863 -0.0216064 0)
(-0.00234697 -0.0150456 0)
(0.000266069 -0.00225373 0)
(0.000780573 -0.00222559 0)
(0.00129804 -0.00223585 0)
(0.00181804 -0.0022511 0)
(0.00234258 -0.00227115 0)
(0.00287294 -0.00229599 0)
(0.00341034 -0.00232577 0)
(0.00395589 -0.0023606 0)
(0.00451083 -0.00240007 0)
(0.00507666 -0.0024443 0)
(0.00565461 -0.00249336 0)
(0.00624574 -0.00254736 0)
(0.0068511 -0.00260661 0)
(0.00747182 -0.0026702 0)
(0.00810939 -0.00273814 0)
(0.00876517 -0.00281059 0)
(0.0094398 -0.00288792 0)
(0.0101348 -0.00296948 0)
(0.0108512 -0.00305543 0)
(0.0115897 -0.00314598 0)
(0.0123514 -0.00324052 0)
(0.0131373 -0.00333896 0)
(0.013949 -0.00344123 0)
(0.0147874 -0.0035473 0)
(0.0156533 -0.00365745 0)
(0.0165473 -0.00377158 0)
(0.0174703 -0.00388903 0)
(0.0184235 -0.00400993 0)
(0.0194079 -0.00413392 0)
(0.0204245 -0.00426125 0)
(0.0214739 -0.00439189 0)
(0.0225567 -0.00452566 0)
(0.0236733 -0.0046621 0)
(0.0248249 -0.00480115 0)
(0.0260119 -0.00494279 0)
(0.027235 -0.00508686 0)
(0.0284948 -0.00523303 0)
(0.0297922 -0.00538135 0)
(0.0311272 -0.00553188 0)
(0.0325001 -0.00568405 0)
(0.0339115 -0.00583797 0)
(0.0353622 -0.00599329 0)
(0.0368522 -0.00615011 0)
(0.0383815 -0.00630813 0)
(0.0399508 -0.0064668 0)
(0.0415602 -0.00662637 0)
(0.0432099 -0.00678649 0)
(0.0449 -0.00694716 0)
(0.0466305 -0.00710812 0)
(0.0484013 -0.00726908 0)
(0.0502124 -0.00742964 0)
(0.0520641 -0.00759004 0)
(0.0539559 -0.00775004 0)
(0.0558875 -0.00790939 0)
(0.0578591 -0.00806778 0)
(0.0598707 -0.00822489 0)
(0.0619216 -0.00838079 0)
(0.0640113 -0.00853524 0)
(0.0661395 -0.00868787 0)
(0.0683058 -0.00883873 0)
(0.0705108 -0.00898749 0)
(0.0727516 -0.00913392 0)
(0.0750276 -0.00927785 0)
(0.0773408 -0.00941914 0)
(0.0796887 -0.00955747 0)
(0.0820705 -0.0096926 0)
(0.0844859 -0.0098244 0)
(0.0869339 -0.00995255 0)
(0.0894134 -0.0100768 0)
(0.0919236 -0.0101971 0)
(0.0944633 -0.0103133 0)
(0.0970315 -0.0104251 0)
(0.0996269 -0.0105314 0)
(0.102248 -0.0106336 0)
(0.104895 -0.0107312 0)
(0.107564 -0.0108236 0)
(0.110257 -0.0109108 0)
(0.11297 -0.0109929 0)
(0.115702 -0.0110697 0)
(0.118454 -0.011141 0)
(0.121222 -0.0112066 0)
(0.124005 -0.0112664 0)
(0.126803 -0.0113201 0)
(0.129613 -0.0113675 0)
(0.132436 -0.0114085 0)
(0.135268 -0.0114431 0)
(0.138105 -0.0114711 0)
(0.14095 -0.0114914 0)
(0.1438 -0.0115055 0)
(0.146652 -0.0115122 0)
(0.149505 -0.0115116 0)
(0.152358 -0.0115037 0)
(0.155207 -0.0114882 0)
(0.158053 -0.0114651 0)
(0.160892 -0.0114343 0)
(0.163722 -0.0113957 0)
(0.166542 -0.0113489 0)
(0.169349 -0.0112943 0)
(0.172143 -0.0112315 0)
(0.17492 -0.0111606 0)
(0.17768 -0.0110816 0)
(0.180418 -0.0109943 0)
(0.183134 -0.0108992 0)
(0.185825 -0.0107951 0)
(0.18849 -0.0106825 0)
(0.191127 -0.0105617 0)
(0.193733 -0.010433 0)
(0.196306 -0.0102956 0)
(0.198844 -0.0101496 0)
(0.201345 -0.00999544 0)
(0.203808 -0.00983298 0)
(0.206229 -0.00966214 0)
(0.208607 -0.00948306 0)
(0.21094 -0.00929577 0)
(0.213226 -0.00910063 0)
(0.215462 -0.00889669 0)
(0.217647 -0.00868488 0)
(0.219779 -0.00846564 0)
(0.221856 -0.00823845 0)
(0.223875 -0.00800336 0)
(0.225836 -0.00776064 0)
(0.227735 -0.00751047 0)
(0.229572 -0.00725302 0)
(0.231344 -0.00698816 0)
(0.23305 -0.00671634 0)
(0.234688 -0.00643727 0)
(0.236255 -0.00615168 0)
(0.237751 -0.00585984 0)
(0.239174 -0.00556088 0)
(0.240522 -0.00525542 0)
(0.241793 -0.00494437 0)
(0.242987 -0.00462725 0)
(0.244101 -0.00430421 0)
(0.245135 -0.00397584 0)
(0.246086 -0.00364202 0)
(0.246954 -0.00330326 0)
(0.247737 -0.00295959 0)
(0.248434 -0.00261097 0)
(0.249044 -0.00225779 0)
(0.249567 -0.0019003 0)
(0.249999 -0.00153862 0)
(0.250341 -0.0011731 0)
(0.250593 -0.000803826 0)
(0.250752 -0.000430859 0)
(0.250818 -5.442e-05 0)
(0.25079 0.000324436 0)
(0.250667 0.000705498 0)
(0.250447 0.00108901 0)
(0.250131 0.00147487 0)
(0.249718 0.00186229 0)
(0.249208 0.00225119 0)
(0.2486 0.00264153 0)
(0.247893 0.00303317 0)
(0.247088 0.00342568 0)
(0.246184 0.00381904 0)
(0.245181 0.00421325 0)
(0.24408 0.00460785 0)
(0.242879 0.00500265 0)
(0.24158 0.00539738 0)
(0.240181 0.0057918 0)
(0.238684 0.00618596 0)
(0.237089 0.00657961 0)
(0.235395 0.0069724 0)
(0.233604 0.00736428 0)
(0.231715 0.00775491 0)
(0.22973 0.00814402 0)
(0.227648 0.00853154 0)
(0.225471 0.00891723 0)
(0.223199 0.00930088 0)
(0.220832 0.00968232 0)
(0.218372 0.0100614 0)
(0.21582 0.010438 0)
(0.213176 0.0108117 0)
(0.210442 0.0111825 0)
(0.207618 0.01155 0)
(0.204707 0.011914 0)
(0.201709 0.012274 0)
(0.198625 0.0126299 0)
(0.195457 0.0129815 0)
(0.192206 0.0133282 0)
(0.188875 0.0136689 0)
(0.185465 0.0140019 0)
(0.181979 0.0143254 0)
(0.178422 0.0146392 0)
(0.174798 0.0149479 0)
(0.171112 0.0152637 0)
(0.167357 0.0156019 0)
(0.16352 0.01597 0)
(0.159586 0.016358 0)
(0.155544 0.0167412 0)
(0.151397 0.0170959 0)
(0.147158 0.0174139 0)
(0.142841 0.0177028 0)
(0.138458 0.0179746 0)
(0.134013 0.0182377 0)
(0.129508 0.0184945 0)
(0.124945 0.0187457 0)
(0.120324 0.0189913 0)
(0.115648 0.0192309 0)
(0.110917 0.0194646 0)
(0.106131 0.0196932 0)
(0.101292 0.0199168 0)
(0.0963997 0.0201344 0)
(0.0914547 0.0203454 0)
(0.0864582 0.0205489 0)
(0.0814114 0.0207448 0)
(0.0763157 0.0209327 0)
(0.0711727 0.0211119 0)
(0.0659841 0.0212829 0)
(0.0607509 0.021446 0)
(0.0554745 0.0216007 0)
(0.0501565 0.021747 0)
(0.0447983 0.0218844 0)
(0.0394017 0.0220142 0)
(0.033959 0.0221366 0)
(0.0284882 0.0222492 0)
(0.0229879 0.0223549 0)
(0.0174548 0.0224517 0)
(0.011893 0.0225398 0)
(0.006301 0.0226171 0)
(0.000692642 0.0226905 0)
(-0.00494457 0.0227519 0)
(-0.0106052 0.0228042 0)
(-0.0162862 0.0228475 0)
(-0.0219863 0.022881 0)
(-0.0276992 0.0229046 0)
(-0.033424 0.0229184 0)
(-0.0391587 0.0229222 0)
(-0.0448989 0.0229157 0)
(-0.050642 0.0228986 0)
(-0.0563869 0.0228714 0)
(-0.0621284 0.0228336 0)
(-0.0678627 0.0227846 0)
(-0.0735889 0.0227245 0)
(-0.0793033 0.0226541 0)
(-0.0850006 0.0225727 0)
(-0.0906775 0.02248 0)
(-0.0963308 0.0223761 0)
(-0.101957 0.0222608 0)
(-0.107551 0.0221341 0)
(-0.11311 0.0219959 0)
(-0.118631 0.021846 0)
(-0.124108 0.0216844 0)
(-0.129538 0.021511 0)
(-0.134918 0.0213256 0)
(-0.140242 0.0211283 0)
(-0.145508 0.0209189 0)
(-0.15071 0.0206973 0)
(-0.155846 0.0204635 0)
(-0.160912 0.0202174 0)
(-0.165903 0.0199589 0)
(-0.170816 0.0196879 0)
(-0.175647 0.0194045 0)
(-0.180393 0.0191085 0)
(-0.185051 0.0187999 0)
(-0.189616 0.0184787 0)
(-0.194087 0.0181449 0)
(-0.198459 0.0177985 0)
(-0.20273 0.0174396 0)
(-0.206898 0.0170682 0)
(-0.210959 0.0166844 0)
(-0.214912 0.0162884 0)
(-0.218753 0.01588 0)
(-0.222482 0.0154592 0)
(-0.226095 0.0150254 0)
(-0.229592 0.0145783 0)
(-0.232971 0.0141177 0)
(-0.23623 0.0136435 0)
(-0.239368 0.0131558 0)
(-0.242383 0.0126547 0)
(-0.245275 0.0121407 0)
(-0.248041 0.0116138 0)
(-0.250682 0.0110746 0)
(-0.253195 0.0105233 0)
(-0.255581 0.00996034 0)
(-0.257839 0.00938605 0)
(-0.259968 0.00880086 0)
(-0.261967 0.0082052 0)
(-0.263835 0.00759948 0)
(-0.265572 0.00698412 0)
(-0.267175 0.00635939 0)
(-0.268642 0.0057252 0)
(-0.269972 0.00508086 0)
(-0.27116 0.00442571 0)
(-0.272201 0.00376217 0)
(-0.273093 0.00310072 0)
(-0.273837 0.00246291 0)
(-0.27443 0.00187534 0)
(-0.274883 0.00134899 0)
(-0.275215 0.000854788 0)
(-0.27542 0.000331952 0)
(-0.275477 -0.000259037 0)
(-0.275385 -0.000902263 0)
(-0.275134 -0.00157006 0)
(-0.274702 -0.00225302 0)
(-0.274087 -0.00294786 0)
(-0.273288 -0.003651 0)
(-0.272311 -0.00435981 0)
(-0.271157 -0.00507259 0)
(-0.269827 -0.0057884 0)
(-0.268321 -0.00650662 0)
(-0.266639 -0.00722682 0)
(-0.26478 -0.00794854 0)
(-0.262744 -0.00867127 0)
(-0.260531 -0.00939449 0)
(-0.25814 -0.0101176 0)
(-0.255571 -0.0108401 0)
(-0.252826 -0.0115613 0)
(-0.249903 -0.0122807 0)
(-0.246803 -0.0129978 0)
(-0.243528 -0.0137119 0)
(-0.240077 -0.0144224 0)
(-0.236452 -0.0151289 0)
(-0.232653 -0.0158306 0)
(-0.228682 -0.0165269 0)
(-0.22454 -0.0172172 0)
(-0.220228 -0.0179009 0)
(-0.215748 -0.0185771 0)
(-0.211103 -0.0192453 0)
(-0.206294 -0.0199047 0)
(-0.201323 -0.0205545 0)
(-0.196192 -0.021194 0)
(-0.190905 -0.0218225 0)
(-0.185464 -0.022439 0)
(-0.179872 -0.0230428 0)
(-0.174132 -0.0236332 0)
(-0.168248 -0.0242092 0)
(-0.162223 -0.02477 0)
(-0.156061 -0.0253149 0)
(-0.149766 -0.0258429 0)
(-0.143343 -0.0263532 0)
(-0.136795 -0.026845 0)
(-0.130128 -0.0273175 0)
(-0.123346 -0.0277697 0)
(-0.116454 -0.028201 0)
(-0.109457 -0.0286104 0)
(-0.102362 -0.0289972 0)
(-0.0951739 -0.0293605 0)
(-0.0878982 -0.0296996 0)
(-0.0805412 -0.030014 0)
(-0.0731089 -0.0303037 0)
(-0.0656078 -0.0305683 0)
(-0.0580447 -0.0308035 0)
(-0.0504266 -0.0309922 0)
(-0.0427653 -0.0311096 0)
(-0.0350892 -0.0312207 0)
(-0.0274159 -0.0317823 0)
(-0.0195074 -0.0337714 0)
(-0.0102428 -0.036081 0)
(-0.00234074 -0.0250635 0)
(0.000282891 -0.0032986 0)
(0.000832871 -0.00325886 0)
(0.00138588 -0.0032736 0)
(0.00194125 -0.00329448 0)
(0.0025018 -0.00332207 0)
(0.00306754 -0.00335705 0)
(0.00363942 -0.00339866 0)
(0.0042198 -0.0034473 0)
(0.0048098 -0.00350277 0)
(0.00540964 -0.00356503 0)
(0.00602054 -0.00363397 0)
(0.00664336 -0.00370946 0)
(0.00728099 -0.00379163 0)
(0.00793515 -0.00388003 0)
(0.0086051 -0.00397492 0)
(0.00929129 -0.00407653 0)
(0.00999612 -0.00418408 0)
(0.0107211 -0.00429769 0)
(0.011466 -0.00441792 0)
(0.0122331 -0.00454351 0)
(0.0130239 -0.00467537 0)
(0.0138385 -0.00481283 0)
(0.0146778 -0.0049558 0)
(0.015542 -0.00510448 0)
(0.0164323 -0.00525826 0)
(0.0173512 -0.00541694 0)
(0.0182992 -0.0055807 0)
(0.0192767 -0.00574922 0)
(0.0202843 -0.00592249 0)
(0.021322 -0.00610022 0)
(0.0223914 -0.00628217 0)
(0.023494 -0.00646825 0)
(0.0246305 -0.00665841 0)
(0.0258006 -0.00685243 0)
(0.0270052 -0.00705 0)
(0.0282455 -0.00725091 0)
(0.0295216 -0.00745504 0)
(0.0308333 -0.0076624 0)
(0.0321823 -0.00787244 0)
(0.033569 -0.00808489 0)
(0.0349934 -0.00829992 0)
(0.0364558 -0.00851695 0)
(0.0379567 -0.00873575 0)
(0.0394973 -0.00895622 0)
(0.0410771 -0.00917822 0)
(0.0426956 -0.00940138 0)
(0.0443538 -0.00962537 0)
(0.0460515 -0.00984998 0)
(0.0477894 -0.010075 0)
(0.0495675 -0.0103002 0)
(0.0513853 -0.0105253 0)
(0.0532425 -0.01075 0)
(0.0551396 -0.0109739 0)
(0.0570766 -0.0111969 0)
(0.0590533 -0.0114185 0)
(0.0610688 -0.0116389 0)
(0.0631228 -0.0118576 0)
(0.0652158 -0.0120743 0)
(0.0673469 -0.0122886 0)
(0.0695156 -0.0125003 0)
(0.0717219 -0.0127092 0)
(0.073965 -0.0129158 0)
(0.0762439 -0.0131182 0)
(0.0785584 -0.0133168 0)
(0.0809084 -0.0135117 0)
(0.0832925 -0.0137023 0)
(0.0857101 -0.0138882 0)
(0.0881605 -0.0140694 0)
(0.0906425 -0.0142457 0)
(0.0931551 -0.0144161 0)
(0.0956976 -0.0145814 0)
(0.0982709 -0.0147409 0)
(0.100871 -0.0148942 0)
(0.103496 -0.0150409 0)
(0.106148 -0.0151809 0)
(0.108825 -0.0153139 0)
(0.111526 -0.0154397 0)
(0.114248 -0.0155579 0)
(0.116991 -0.0156684 0)
(0.119752 -0.0157709 0)
(0.122532 -0.0158653 0)
(0.125328 -0.0159511 0)
(0.128138 -0.0160284 0)
(0.130962 -0.0160959 0)
(0.133797 -0.0161547 0)
(0.136641 -0.0162055 0)
(0.139495 -0.0162455 0)
(0.142356 -0.0162757 0)
(0.145219 -0.0162961 0)
(0.148087 -0.0163064 0)
(0.150956 -0.0163063 0)
(0.153824 -0.0162957 0)
(0.15669 -0.0162744 0)
(0.159551 -0.0162422 0)
(0.162406 -0.0161992 0)
(0.165254 -0.016145 0)
(0.16809 -0.0160796 0)
(0.170915 -0.0160028 0)
(0.173725 -0.0159146 0)
(0.176519 -0.0158147 0)
(0.179294 -0.0157037 0)
(0.182049 -0.0155808 0)
(0.184783 -0.015446 0)
(0.187491 -0.0152993 0)
(0.190172 -0.0151409 0)
(0.192825 -0.0149706 0)
(0.195447 -0.0147885 0)
(0.198036 -0.0145944 0)
(0.200589 -0.0143885 0)
(0.203106 -0.0141706 0)
(0.205583 -0.0139409 0)
(0.208019 -0.0136994 0)
(0.210411 -0.0134462 0)
(0.212758 -0.0131812 0)
(0.215058 -0.0129047 0)
(0.217309 -0.0126166 0)
(0.219506 -0.0123172 0)
(0.221649 -0.0120066 0)
(0.223738 -0.0116847 0)