/*--------------------------------*- C++ -*----------------------------------*\
| =========                 |                                                 |
| \\      /  F ield         | OpenFOAM: The Open Source CFD Toolbox           |
|  \\    /   O peration     | Version:  v2006                                 |
|   \\  /    A nd           | Website:  www.openfoam.com                      |
|    \\/     M anipulation  |                                                 |
\*---------------------------------------------------------------------------*/
FoamFile
{
    version     2.0;
    format      ascii;
    class       volScalarField;
    location    "13.7";
    object      p_rgh;
}
// * * * * * * * * * * * * * * * * * * * * * * * * * * * * * * * * * * * * * //

dimensions      [1 -1 -2 0 0 0 0];


internalField   nonuniform List<scalar> 
52500
(
2804.22
2804.09
2803.83
2803.44
2802.92
2802.31
2801.53
2800.63
2799.61
2798.45
2797.17
2795.76
2794.22
2792.55
2790.75
2788.83
2786.77
2784.58
2782.27
2779.83
2777.25
2774.55
2771.72
2768.76
2765.67
2762.45
2759.1
2755.62
2752.01
2748.27
2744.41
2740.41
2736.27
2732.01
2727.62
2723.1
2718.44
2713.66
2708.74
2703.69
2698.51
2693.2
2687.75
2682.18
2676.47
2670.63
2664.67
2658.57
2652.35
2645.99
2639.51
2632.89
2626.14
2619.26
2612.25
2605.11
2597.84
2590.44
2582.92
2575.27
2567.5
2559.61
2551.6
2543.47
2535.23
2526.86
2518.39
2509.8
2501.1
2492.29
2483.37
2474.35
2465.22
2456
2446.67
2437.25
2427.73
2418.12
2408.41
2398.62
2388.74
2378.78
2368.74
2358.61
2348.41
2338.14
2327.79
2317.37
2306.88
2296.33
2285.71
2275.04
2264.3
2253.51
2242.67
2231.77
2220.82
2209.83
2198.8
2187.72
2176.6
2165.45
2154.26
2143.04
2131.8
2120.53
2109.23
2097.92
2086.58
2075.23
2063.86
2052.49
2041.1
2029.71
2018.31
2006.92
1995.52
1984.13
1972.74
1961.37
1950
1938.65
1927.32
1916.01
1904.72
1893.45
1882.22
1871.01
1859.83
1848.7
1837.59
1826.53
1815.52
1804.55
1793.63
1782.75
1771.93
1761.17
1750.46
1739.82
1729.23
1718.71
1708.26
1697.89
1687.58
1677.36
1667.21
1657.14
1647.16
1637.26
1627.45
1617.73
1608.11
1598.57
1589.14
1579.8
1570.56
1561.43
1552.41
1543.49
1534.68
1525.98
1517.39
1508.91
1500.55
1492.3
1484.16
1476.14
1468.23
1460.44
1452.77
1445.22
1437.79
1430.49
1423.32
1416.29
1409.38
1402.61
1395.98
1389.47
1383.1
1376.87
1370.76
1364.79
1358.97
1353.3
1347.76
1342.36
1337.11
1331.99
1327.02
1322.19
1317.5
1312.95
1308.54
1304.28
1300.15
1296.17
1292.32
1288.62
1285.05
1281.63
1278.34
1275.19
1272.17
1269.29
1266.55
1263.94
1261.47
1259.13
1256.92
1254.84
1252.89
1251.07
1249.38
1247.81
1246.37
1245.05
1243.86
1242.78
1241.82
1240.97
1240.24
1239.63
1239.12
1238.72
1238.44
1238.25
1238.17
1238.19
1238.31
1238.53
1238.85
1239.26
1239.76
1240.35
1241.03
1241.8
1242.65
1243.59
1244.61
1245.7
1246.88
1248.13
1249.46
1250.86
1252.33
1253.87
1255.48
1257.15
1258.89
1260.7
1262.57
1264.5
1266.48
1268.53
1270.63
1272.79
1275
1277.27
1279.59
1281.95
1284.37
1286.83
1289.33
1291.88
1294.47
1297.1
1299.77
1302.48
1305.23
1308
1310.81
1313.65
1316.52
1319.41
1322.32
1325.26
1328.22
1331.19
1334.18
1337.18
1340.19
1343.21
1346.24
1349.27
1352.3
1355.34
1358.38
1361.44
1364.51
1367.6
1370.7
1373.8
1376.88
1379.95
1383
1386.02
1389.01
1391.98
1394.92
1397.83
1400.71
1403.56
1406.38
1409.17
1411.93
1414.64
1417.32
1419.96
1422.56
1425.11
1427.62
1430.08
1432.49
1434.86
1437.17
1439.43
1441.64
1443.79
1445.88
1447.92
1449.9
1451.82
1453.67
1455.47
1457.2
1458.86
1460.47
1462
1463.47
1464.87
1466.21
1467.47
1468.67
1469.79
1470.85
1471.83
1472.75
1473.59
1474.35
1475.05
1475.67
1476.21
1476.68
1477.07
1477.38
1477.62
1477.78
1477.85
2804.61
2804.46
2804.22
2803.84
2803.34
2802.7
2801.93
2801.04
2800.01
2798.85
2797.57
2796.16
2794.61
2792.94
2791.14
2789.21
2787.16
2784.97
2782.66
2780.21
2777.64
2774.94
2772.1
2769.14
2766.05
2762.83
2759.48
2756
2752.4
2748.66
2744.79
2740.79
2736.65
2732.39
2728
2723.48
2718.82
2714.03
2709.12
2704.06
2698.88
2693.57
2688.12
2682.54
2676.84
2671
2665.03
2658.93
2652.69
2646.33
2639.84
2633.21
2626.45
2619.56
2612.55
2605.4
2598.13
2590.72
2583.2
2575.55
2567.77
2559.88
2551.86
2543.73
2535.48
2527.11
2518.63
2510.03
2501.33
2492.51
2483.59
2474.56
2465.43
2456.2
2446.87
2437.44
2427.92
2418.3
2408.59
2398.8
2388.91
2378.95
2368.9
2358.77
2348.56
2338.28
2327.93
2317.5
2307.01
2296.45
2285.83
2275.15
2264.4
2253.61
2242.75
2231.85
2220.9
2209.9
2198.86
2187.78
2176.66
2165.5
2154.31
2143.08
2131.83
2120.55
2109.25
2097.92
2086.58
2075.22
2063.85
2052.46
2041.07
2029.67
2018.27
2006.86
1995.46
1984.06
1972.67
1961.28
1949.91
1938.56
1927.22
1915.9
1904.6
1893.32
1882.08
1870.86
1859.68
1848.53
1837.43
1826.36
1815.33
1804.35
1793.42
1782.54
1771.72
1760.95
1750.24
1739.59
1729.01
1718.49
1708.05
1697.67
1687.37
1677.14
1666.99
1656.92
1646.94
1637.04
1627.23
1617.5
1607.87
1598.34
1588.9
1579.55
1570.3
1561.15
1552.1
1543.16
1534.32
1525.58
1516.96
1508.44
1500.04
1491.75
1483.58
1475.54
1467.62
1459.82
1452.16
1444.63
1437.23
1429.95
1422.81
1415.79
1408.9
1402.14
1395.51
1389.02
1382.66
1376.45
1370.37
1364.43
1358.62
1352.94
1347.41
1342.01
1336.75
1331.64
1326.66
1321.83
1317.14
1312.58
1308.18
1303.91
1299.78
1295.79
1291.95
1288.24
1284.67
1281.25
1277.96
1274.8
1271.79
1268.91
1266.17
1263.56
1261.08
1258.74
1256.54
1254.46
1252.51
1250.69
1249
1247.43
1245.99
1244.68
1243.48
1242.4
1241.44
1240.6
1239.87
1239.26
1238.75
1238.36
1238.07
1237.89
1237.81
1237.83
1237.96
1238.18
1238.5
1238.91
1239.41
1240.01
1240.69
1241.46
1242.32
1243.26
1244.28
1245.38
1246.56
1247.81
1249.14
1250.55
1252.02
1253.57
1255.18
1256.86
1258.61
1260.42
1262.3
1264.23
1266.22
1268.28
1270.39
1272.55
1274.77
1277.04
1279.37
1281.74
1284.16
1286.63
1289.14
1291.7
1294.3
1296.93
1299.61
1302.33
1305.08
1307.86
1310.68
1313.53
1316.4
1319.3
1322.23
1325.17
1328.14
1331.12
1334.12
1337.13
1340.16
1343.19
1346.23
1349.27
1352.31
1355.35
1358.4
1361.46
1364.53
1367.62
1370.71
1373.81
1376.89
1379.95
1383
1386.02
1389.01
1391.98
1394.92
1397.83
1400.72
1403.58
1406.4
1409.2
1411.96
1414.68
1417.36
1420.01
1422.61
1425.17
1427.68
1430.15
1432.56
1434.93
1437.25
1439.52
1441.73
1443.88
1445.98
1448.02
1450
1451.93
1453.79
1455.58
1457.32
1458.99
1460.6
1462.14
1463.61
1465.02
1466.35
1467.62
1468.82
1469.95
1471.01
1472
1472.91
1473.75
1474.52
1475.22
1475.84
1476.39
1476.85
1477.25
1477.56
1477.79
1477.95
1478.03
2805.21
2805.07
2804.83
2804.45
2803.94
2803.31
2802.54
2801.65
2800.62
2799.47
2798.19
2796.78
2795.24
2793.57
2791.78
2789.85
2787.8
2785.61
2783.3
2780.86
2778.29
2775.59
2772.76
2769.8
2766.71
2763.49
2760.14
2756.66
2753.06
2749.32
2745.45
2741.45
2737.31
2733.05
2728.66
2724.13
2719.47
2714.68
2709.76
2704.7
2699.52
2694.2
2688.75
2683.16
2677.45
2671.6
2665.62
2659.51
2653.27
2646.9
2640.4
2633.76
2627
2620.11
2613.08
2605.93
2598.65
2591.25
2583.72
2576.06
2568.28
2560.38
2552.36
2544.22
2535.96
2527.58
2519.09
2510.49
2501.78
2492.96
2484.03
2474.99
2465.85
2456.61
2447.27
2437.83
2428.3
2418.67
2408.95
2399.14
2389.25
2379.27
2369.21
2359.07
2348.85
2338.55
2328.19
2317.75
2307.25
2296.68
2286.04
2275.35
2264.59
2253.78
2242.92
2232
2221.04
2210.03
2198.97
2187.88
2176.74
2165.57
2154.37
2143.13
2131.87
2120.57
2109.26
2097.92
2086.56
2075.19
2063.81
2052.41
2041
2029.59
2018.17
2006.76
1995.34
1983.93
1972.52
1961.13
1949.74
1938.37
1927.02
1915.69
1904.38
1893.09
1881.84
1870.61
1859.42
1848.26
1837.14
1826.06
1815.02
1804.03
1793.09
1782.2
1771.36
1760.58
1749.86
1739.2
1728.6
1718.07
1707.61
1697.22
1686.9
1676.66
1666.5
1656.42
1646.42
1636.51
1626.68
1616.95
1607.31
1597.76
1588.31
1578.95
1569.7
1560.55
1551.5
1542.56
1533.73
1525.01
1516.39
1507.89
1499.5
1491.23
1483.07
1475.03
1467.11
1459.31
1451.63
1444.08
1436.66
1429.36
1422.19
1415.15
1408.25
1401.48
1394.84
1388.34
1381.97
1375.74
1369.65
1363.69
1357.88
1352.2
1346.66
1341.26
1336.01
1330.89
1325.91
1321.07
1316.38
1311.82
1307.41
1303.14
1299.01
1295.02
1291.17
1287.46
1283.9
1280.47
1277.18
1274.02
1271.01
1268.13
1265.39
1262.78
1260.31
1257.97
1255.76
1253.69
1251.74
1249.92
1248.24
1246.67
1245.23
1243.92
1242.72
1241.65
1240.69
1239.86
1239.13
1238.52
1238.02
1237.63
1237.35
1237.17
1237.1
1237.13
1237.26
1237.49
1237.81
1238.23
1238.74
1239.34
1240.03
1240.81
1241.67
1242.62
1243.65
1244.76
1245.94
1247.21
1248.54
1249.95
1251.44
1252.99
1254.61
1256.3
1258.06
1259.88
1261.76
1263.7
1265.71
1267.77
1269.89
1272.06
1274.29
1276.58
1278.91
1281.29
1283.72
1286.2
1288.73
1291.29
1293.9
1296.56
1299.25
1301.97
1304.74
1307.54
1310.37
1313.23
1316.12
1319.04
1321.98
1324.94
1327.92
1330.93
1333.94
1336.97
1340.02
1343.07
1346.13
1349.2
1352.27
1355.34
1358.42
1361.5
1364.58
1367.67
1370.75
1373.83
1376.9
1379.95
1383
1386.02
1389.02
1392
1394.95
1397.88
1400.78
1403.65
1406.49
1409.3
1412.07
1414.8
1417.5
1420.15
1422.76
1425.33
1427.85
1430.33
1432.76
1435.14
1437.47
1439.74
1441.96
1444.13
1446.23
1448.28
1450.28
1452.21
1454.07
1455.88
1457.62
1459.3
1460.91
1462.46
1463.94
1465.35
1466.7
1467.97
1469.17
1470.31
1471.37
1472.37
1473.29
1474.13
1474.91
1475.61
1476.24
1476.79
1477.26
1477.65
1477.97
1478.2
1478.36
1478.44
2806.14
2806.01
2805.77
2805.39
2804.88
2804.24
2803.48
2802.58
2801.56
2800.41
2799.13
2797.73
2796.19
2794.52
2792.73
2790.81
2788.76
2786.58
2784.27
2781.83
2779.26
2776.56
2773.74
2770.78
2767.69
2764.48
2761.13
2757.65
2754.05
2750.31
2746.44
2742.44
2738.31
2734.04
2729.65
2725.12
2720.46
2715.66
2710.74
2705.68
2700.49
2695.17
2689.71
2684.12
2678.4
2672.55
2666.56
2660.44
2654.19
2647.81
2641.3
2634.66
2627.88
2620.98
2613.95
2606.78
2599.5
2592.08
2584.54
2576.87
2569.08
2561.17
2553.13
2544.98
2536.71
2528.32
2519.82
2511.2
2502.47
2493.63
2484.69
2475.64
2466.48
2457.22
2447.87
2438.41
2428.86
2419.22
2409.48
2399.66
2389.75
2379.75
2369.67
2359.51
2349.28
2338.96
2328.58
2318.12
2307.6
2297.01
2286.36
2275.64
2264.87
2254.04
2243.16
2232.22
2221.24
2210.21
2199.14
2188.02
2176.87
2165.68
2154.45
2143.2
2131.91
2120.6
2109.27
2097.91
2086.53
2075.14
2063.74
2052.32
2040.89
2029.46
2018.03
2006.59
1995.15
1983.72
1972.3
1960.88
1949.48
1938.09
1926.72
1915.37
1904.04
1892.74
1881.46
1870.22
1859
1847.83
1836.69
1825.59
1814.54
1803.53
1792.57
1781.66
1770.81
1760.01
1749.27
1738.59
1727.98
1717.44
1706.96
1696.55
1686.22
1675.96
1665.79
1655.69
1645.68
1635.75
1625.91
1616.16
1606.5
1596.94
1587.47
1578.1
1568.83
1559.66
1550.6
1541.64
1532.79
1524.04
1515.41
1506.89
1498.49
1490.2
1482.03
1473.98
1466.05
1458.25
1450.57
1443.02
1435.59
1428.29
1421.13
1414.09
1407.18
1400.41
1393.76
1387.26
1380.88
1374.65
1368.55
1362.59
1356.77
1351.08
1345.54
1340.13
1334.87
1329.75
1324.76
1319.92
1315.22
1310.67
1306.25
1301.98
1297.84
1293.85
1290
1286.29
1282.72
1279.29
1275.99
1272.84
1269.83
1266.95
1264.21
1261.6
1259.13
1256.79
1254.59
1252.51
1250.57
1248.76
1247.07
1245.51
1244.08
1242.77
1241.58
1240.51
1239.56
1238.73
1238.01
1237.41
1236.92
1236.53
1236.26
1236.09
1236.03
1236.07
1236.2
1236.44
1236.78
1237.2
1237.73
1238.34
1239.04
1239.83
1240.7
1241.66
1242.7
1243.82
1245.02
1246.3
1247.65
1249.07
1250.57
1252.13
1253.77
1255.47
1257.24
1259.07
1260.97
1262.93
1264.94
1267.02
1269.15
1271.34
1273.59
1275.88
1278.23
1280.63
1283.08
1285.57
1288.12
1290.7
1293.33
1296
1298.71
1301.45
1304.24
1307.06
1309.91
1312.79
1315.7
1318.64
1321.6
1324.58
1327.59
1330.61
1333.65
1336.7
1339.76
1342.84
1345.92
1349
1352.09
1355.19
1358.28
1361.38
1364.48
1367.58
1370.68
1373.77
1376.86
1379.93
1382.99
1386.03
1389.05
1392.05
1395.02
1397.97
1400.89
1403.78
1406.64
1409.46
1412.25
1415
1417.71
1420.38
1423.01
1425.6
1428.14
1430.63
1433.07
1435.47
1437.81
1440.1
1442.33
1444.51
1446.64
1448.7
1450.7
1452.65
1454.53
1456.34
1458.1
1459.79
1461.41
1462.97
1464.45
1465.88
1467.23
1468.51
1469.72
1470.86
1471.93
1472.93
1473.85
1474.7
1475.48
1476.18
1476.8
1477.34
1477.81
1478.22
1478.54
1478.78
1478.94
1479.02
2807.37
2807.24
2806.99
2806.62
2806.11
2805.47
2804.71
2803.82
2802.8
2801.65
2800.38
2798.97
2797.44
2795.78
2793.99
2792.07
2790.02
2787.85
2785.54
2783.11
2780.54
2777.85
2775.02
2772.07
2768.99
2765.77
2762.43
2758.95
2755.35
2751.61
2747.74
2743.74
2739.61
2735.34
2730.94
2726.41
2721.75
2716.96
2712.03
2706.96
2701.77
2696.44
2690.98
2685.39
2679.66
2673.8
2667.8
2661.68
2655.42
2649.03
2642.51
2635.85
2629.07
2622.15
2615.11
2607.94
2600.63
2593.2
2585.65
2577.97
2570.16
2562.23
2554.18
2546.01
2537.72
2529.32
2520.8
2512.16
2503.41
2494.56
2485.59
2476.52
2467.34
2458.06
2448.68
2439.21
2429.63
2419.97
2410.21
2400.36
2390.42
2380.4
2370.3
2360.12
2349.85
2339.52
2329.11
2318.63
2308.08
2297.46
2286.78
2276.05
2265.25
2254.39
2243.48
2232.52
2221.52
2210.46
2199.36
2188.22
2177.04
2165.83
2154.58
2143.29
2131.98
2120.65
2109.29
2097.9
2086.5
2075.08
2063.65
2052.21
2040.76
2029.3
2017.84
2006.38
1994.92
1983.46
1972.01
1960.57
1949.14
1937.73
1926.33
1914.96
1903.6
1892.27
1880.97
1869.7
1858.47
1847.27
1836.1
1824.98
1813.9
1802.87
1791.89
1780.96
1770.08
1759.26
1748.5
1737.8
1727.16
1716.59
1706.1
1695.67
1685.31
1675.04
1664.84
1654.72
1644.69
1634.74
1624.88
1615.11
1605.43
1595.85
1586.36
1576.98
1567.69
1558.5
1549.42
1540.45
1531.59
1522.83
1514.18
1505.65
1497.24
1488.94
1480.75
1472.69
1464.75
1456.93
1449.24
1441.67
1434.23
1426.92
1419.73
1412.68
1405.76
1398.98
1392.33
1385.81
1379.43
1373.18
1367.08
1361.11
1355.28
1349.59
1344.03
1338.62
1333.35
1328.22
1323.23
1318.39
1313.68
1309.12
1304.7
1300.42
1296.28
1292.28
1288.43
1284.71
1281.14
1277.71
1274.41
1271.26
1268.24
1265.37
1262.62
1260.02
1257.55
1255.22
1253.01
1250.94
1249.01
1247.2
1245.52
1243.96
1242.53
1241.23
1240.05
1238.99
1238.05
1237.22
1236.51
1235.92
1235.44
1235.07
1234.8
1234.65
1234.6
1234.65
1234.8
1235.05
1235.4
1235.84
1236.37
1237
1237.72
1238.52
1239.41
1240.39
1241.44
1242.58
1243.79
1245.08
1246.45
1247.89
1249.4
1250.99
1252.64
1254.36
1256.15
1258
1259.91
1261.89
1263.92
1266.02
1268.17
1270.38
1272.64
1274.96
1277.33
1279.75
1282.21
1284.73
1287.29
1289.9
1292.55
1295.24
1297.97
1300.74
1303.55
1306.39
1309.26
1312.17
1315.1
1318.06
1321.05
1324.06
1327.09
1330.14
1333.21
1336.29
1339.39
1342.49
1345.61
1348.73
1351.85
1354.98
1358.11
1361.24
1364.37
1367.49
1370.62
1373.73
1376.84
1379.93
1383.01
1386.08
1389.12
1392.14
1395.14
1398.11
1401.06
1403.97
1406.85
1409.7
1412.51
1415.29
1418.02
1420.72
1423.37
1425.98
1428.54
1431.05
1433.52
1435.93
1438.29
1440.6
1442.86
1445.05
1447.19
1449.27
1451.29
1453.25
1455.15
1456.98
1458.75
1460.46
1462.09
1463.66
1465.17
1466.6
1467.96
1469.25
1470.47
1471.62
1472.7
1473.7
1474.63
1475.49
1476.27
1476.98
1477.61
1478.17
1478.64
1479.04
1479.36
1479.6
1479.76
1479.83
2808.92
2808.78
2808.54
2808.16
2807.66
2807.02
2806.26
2805.37
2804.36
2803.21
2801.94
2800.54
2799.01
2797.35
2795.56
2793.65
2791.61
2789.43
2787.13
2784.7
2782.14
2779.45
2776.63
2773.68
2770.6
2767.39
2764.04
2760.57
2756.96
2753.23
2749.36
2745.36
2741.22
2736.96
2732.56
2728.03
2723.36
2718.56
2713.63
2708.56
2703.36
2698.03
2692.56
2686.96
2681.23
2675.36
2669.36
2663.22
2656.95
2650.55
2644.02
2637.35
2630.55
2623.62
2616.56
2609.38
2602.06
2594.61
2587.04
2579.34
2571.51
2563.56
2555.49
2547.3
2538.99
2530.56
2522.02
2513.36
2504.59
2495.71
2486.72
2477.62
2468.41
2459.11
2449.7
2440.2
2430.59
2420.9
2411.11
2401.23
2391.27
2381.22
2371.08
2360.87
2350.58
2340.21
2329.77
2319.26
2308.68
2298.03
2287.32
2276.55
2265.72
2254.83
2243.89
2232.9
2221.86
2210.77
2199.64
2188.46
2177.25
2166
2154.72
2143.41
2132.06
2120.69
2109.3
2097.88
2086.45
2075
2063.54
2052.06
2040.58
2029.09
2017.59
2006.1
1994.6
1983.12
1971.63
1960.16
1948.7
1937.26
1925.83
1914.42
1903.04
1891.68
1880.35
1869.04
1857.78
1846.54
1835.35
1824.2
1813.09
1802.03
1791.02
1780.06
1769.15
1758.3
1747.51
1736.78
1726.12
1715.52
1704.99
1694.54
1684.16
1673.85
1663.63
1653.49
1643.43
1633.45
1623.57
1613.78
1604.08
1594.47
1584.96
1575.55
1566.24
1557.04
1547.94
1538.94
1530.06
1521.28
1512.62
1504.07
1495.63
1487.32
1479.12
1471.04
1463.09
1455.26
1447.55
1439.97
1432.51
1425.19
1417.99
1410.93
1404
1397.2
1390.54
1384.01
1377.61
1371.36
1365.24
1359.26
1353.42
1347.72
1342.16
1336.74
1331.46
1326.32
1321.32
1316.47
1311.75
1307.18
1302.76
1298.47
1294.33
1290.32
1286.47
1282.75
1279.17
1275.73
1272.44
1269.28
1266.27
1263.39
1260.65
1258.04
1255.58
1253.24
1251.05
1248.98
1247.05
1245.24
1243.57
1242.02
1240.6
1239.31
1238.13
1237.08
1236.15
1235.34
1234.64
1234.06
1233.59
1233.23
1232.98
1232.84
1232.8
1232.87
1233.04
1233.31
1233.67
1234.13
1234.68
1235.33
1236.06
1236.88
1237.79
1238.78
1239.86
1241.02
1242.25
1243.56
1244.95
1246.41
1247.94
1249.55
1251.22
1252.96
1254.77
1256.64
1258.58
1260.58
1262.63
1264.75
1266.93
1269.16
1271.45
1273.79
1276.18
1278.63
1281.12
1283.66
1286.25
1288.89
1291.57
1294.29
1297.05
1299.85
1302.68
1305.56
1308.46
1311.4
1314.37
1317.36
1320.38
1323.42
1326.49
1329.57
1332.67
1335.79
1338.92
1342.06
1345.21
1348.36
1351.52
1354.69
1357.85
1361.02
1364.18
1367.35
1370.5
1373.65
1376.79
1379.92
1383.03
1386.13
1389.21
1392.26
1395.29
1398.3
1401.27
1404.22
1407.13
1410.01
1412.85
1415.66
1418.42
1421.15
1423.83
1426.46
1429.05
1431.59
1434.08
1436.52
1438.91
1441.24
1443.52
1445.74
1447.9
1450
1452.05
1454.03
1455.94
1457.8
1459.58
1461.3
1462.96
1464.54
1466.06
1467.51
1468.88
1470.19
1471.42
1472.58
1473.67
1474.68
1475.62
1476.48
1477.27
1477.98
1478.62
1479.17
1479.65
1480.05
1480.38
1480.62
1480.78
1480.86
2810.79
2810.65
2810.41
2810.03
2809.52
2808.89
2808.13
2807.25
2806.23
2805.09
2803.82
2802.42
2800.9
2799.24
2797.46
2795.55
2793.51
2791.34
2789.04
2786.61
2784.06
2781.37
2778.55
2775.6
2772.53
2769.32
2765.98
2762.5
2758.9
2755.16
2751.29
2747.29
2743.16
2738.89
2734.49
2729.96
2725.29
2720.49
2715.55
2710.48
2705.28
2699.94
2694.46
2688.85
2683.11
2677.23
2671.22
2665.07
2658.79
2652.38
2645.83
2639.15
2632.34
2625.39
2618.32
2611.11
2603.77
2596.31
2588.71
2580.99
2573.14
2565.17
2557.08
2548.86
2540.52
2532.07
2523.5
2514.81
2506.01
2497.09
2488.07
2478.94
2469.71
2460.37
2450.93
2441.39
2431.75
2422.02
2412.2
2402.28
2392.28
2382.2
2372.03
2361.77
2351.45
2341.04
2330.56
2320.01
2309.39
2298.71
2287.96
2277.15
2266.28
2255.36
2244.38
2233.35
2222.27
2211.14
2199.97
2188.76
2177.51
2166.22
2154.9
2143.54
2132.16
2120.75
2109.32
2097.87
2086.39
2074.9
2063.4
2051.89
2040.36
2028.83
2017.3
2005.77
1994.24
1982.71
1971.19
1959.68
1948.18
1936.7
1925.23
1913.78
1902.36
1890.96
1879.6
1868.26
1856.95
1845.68
1834.45
1823.27
1812.12
1801.02
1789.98
1778.98
1768.04
1757.16
1746.33
1735.57
1724.87
1714.24
1703.68
1693.2
1682.78
1672.45
1662.19
1652.02
1641.93
1631.93
1622.01
1612.19
1602.46
1592.83
1583.29
1573.86
1564.52
1555.29
1546.16
1537.15
1528.24
1519.44
1510.75
1502.18
1493.72
1485.39
1477.17
1469.07
1461.1
1453.24
1445.52
1437.92
1430.45
1423.11
1415.9
1408.82
1401.87
1395.05
1388.38
1381.83
1375.43
1369.16
1363.02
1357.03
1351.18
1345.47
1339.89
1334.46
1329.17
1324.02
1319.02
1314.15
1309.43
1304.85
1300.42
1296.12
1291.97
1287.97
1284.1
1280.38
1276.8
1273.36
1270.06
1266.9
1263.89
1261.01
1258.27
1255.67
1253.2
1250.87
1248.68
1246.62
1244.69
1242.89
1241.23
1239.69
1238.28
1236.99
1235.83
1234.79
1233.87
1233.07
1232.39
1231.82
1231.37
1231.02
1230.79
1230.67
1230.65
1230.73
1230.92
1231.21
1231.59
1232.07
1232.65
1233.31
1234.07
1234.91
1235.84
1236.86
1237.96
1239.14
1240.39
1241.73
1243.14
1244.63
1246.18
1247.81
1249.51
1251.28
1253.11
1255.01
1256.97
1259
1261.08
1263.23
1265.43
1267.69
1270.01
1272.38
1274.8
1277.28
1279.8
1282.38
1285
1287.67
1290.38
1293.13
1295.93
1298.76
1301.63
1304.54
1307.49
1310.46
1313.46
1316.5
1319.56
1322.64
1325.75
1328.87
1332.02
1335.18
1338.35
1341.53
1344.73
1347.93
1351.13
1354.34
1357.55
1360.77
1363.97
1367.18
1370.38
1373.57
1376.75
1379.92
1383.07
1386.21
1389.32
1392.42
1395.49
1398.53
1401.54
1404.53
1407.48
1410.39
1413.27
1416.11
1418.91
1421.67
1424.39
1427.05
1429.68
1432.25
1434.77
1437.24
1439.66
1442.02
1444.32
1446.57
1448.76
1450.89
1452.96
1454.96
1456.9
1458.77
1460.58
1462.33
1464
1465.6
1467.14
1468.6
1470
1471.32
1472.56
1473.74
1474.84
1475.86
1476.81
1477.68
1478.48
1479.19
1479.83
1480.39
1480.88
1481.28
1481.6
1481.85
1482.01
1482.09
2812.97
2812.84
2812.59
2812.22
2811.71
2811.08
2810.32
2809.44
2808.43
2807.29
2806.02
2804.63
2803.11
2801.45
2799.68
2797.77
2795.73
2793.57
2791.27
2788.85
2786.29
2783.61
2780.79
2777.85
2774.77
2771.56
2768.22
2764.75
2761.15
2757.42
2753.55
2749.55
2745.41
2741.14
2736.74
2732.2
2727.53
2722.73
2717.79
2712.71
2707.5
2702.16
2696.68
2691.06
2685.31
2679.42
2673.4
2667.24
2660.95
2654.52
2647.96
2641.26
2634.43
2627.46
2620.37
2613.14
2605.78
2598.29
2590.67
2582.93
2575.05
2567.05
2558.93
2550.68
2542.32
2533.83
2525.22
2516.5
2507.67
2498.72
2489.66
2480.49
2471.22
2461.84
2452.36
2442.78
2433.11
2423.34
2413.47
2403.52
2393.47
2383.34
2373.13
2362.84
2352.46
2342.01
2331.49
2320.9
2310.23
2299.5
2288.71
2277.86
2266.94
2255.97
2244.95
2233.87
2222.75
2211.57
2200.36
2189.1
2177.8
2166.47
2155.1
2143.7
2132.27
2120.82
2109.34
2097.84
2086.32
2074.78
2063.24
2051.68
2040.11
2028.53
2016.95
2005.37
1993.8
1982.22
1970.66
1959.1
1947.56
1936.03
1924.52
1913.03
1901.56
1890.12
1878.71
1867.33
1855.98
1844.67
1833.39
1822.16
1810.98
1799.84
1788.75
1777.71
1766.73
1755.8
1744.94
1734.14
1723.4
1712.73
1702.13
1691.61
1681.16
1670.79
1660.49
1650.29
1640.16
1630.12
1620.18
1610.32
1600.56
1590.89
1581.33
1571.86
1562.5
1553.24
1544.08
1535.03
1526.1
1517.27
1508.56
1499.97
1491.49
1483.12
1474.88
1466.76
1458.77
1450.89
1443.15
1435.53
1428.04
1420.68
1413.44
1406.35
1399.38
1392.55
1385.85
1379.29
1372.87
1366.58
1360.44
1354.43
1348.56
1342.83
1337.25
1331.8
1326.5
1321.34
1316.32
1311.45
1306.72
1302.13
1297.68
1293.38
1289.23
1285.21
1281.34
1277.61
1274.03
1270.58
1267.28
1264.12
1261.1
1258.23
1255.49
1252.89
1250.42
1248.1
1245.91
1243.85
1241.93
1240.14
1238.48
1236.95
1235.55
1234.28
1233.13
1232.1
1231.2
1230.42
1229.75
1229.2
1228.76
1228.44
1228.23
1228.12
1228.13
1228.23
1228.44
1228.75
1229.16
1229.66
1230.26
1230.95
1231.74
1232.61
1233.56
1234.6
1235.73
1236.93
1238.22
1239.58
1241.02
1242.54
1244.12
1245.78
1247.51
1249.3
1251.17
1253.09
1255.09
1257.14
1259.26
1261.44
1263.67
1265.97
1268.32
1270.72
1273.18
1275.69
1278.25
1280.87
1283.52
1286.23
1288.98
1291.78
1294.61
1297.49
1300.4
1303.35
1306.34
1309.36
1312.41
1315.49
1318.59
1321.72
1324.88
1328.05
1331.25
1334.45
1337.68
1340.91
1344.16
1347.41
1350.67
1353.93
1357.19
1360.46
1363.72
1366.97
1370.22
1373.46
1376.69
1379.91
1383.11
1386.3
1389.46
1392.6
1395.72
1398.81
1401.87
1404.89
1407.89
1410.85
1413.77
1416.65
1419.49
1422.29
1425.05
1427.75
1430.41
1433.02
1435.58
1438.09
1440.54
1442.93
1445.27
1447.55
1449.77
1451.93
1454.02
1456.05
1458.02
1459.92
1461.76
1463.52
1465.22
1466.85
1468.4
1469.88
1471.3
1472.63
1473.9
1475.08
1476.2
1477.23
1478.19
1479.08
1479.88
1480.61
1481.25
1481.82
1482.31
1482.71
1483.04
1483.28
1483.45
1483.53
2815.48
2815.34
2815.1
2814.72
2814.22
2813.59
2812.84
2811.96
2810.95
2809.81
2808.55
2807.15
2805.63
2803.99
2802.21
2800.31
2798.27
2796.11
2793.82
2791.4
2788.85
2786.16
2783.35
2780.41
2777.34
2774.13
2770.79
2767.32
2763.72
2759.99
2756.12
2752.12
2747.98
2743.71
2739.31
2734.77
2730.1
2725.29
2720.34
2715.26
2710.05
2704.7
2699.21
2693.58
2687.82
2681.92
2675.89
2669.72
2663.41
2656.97
2650.39
2643.67
2636.82
2629.84
2622.72
2615.47
2608.09
2600.57
2592.92
2585.15
2577.25
2569.21
2561.06
2552.78
2544.38
2535.85
2527.21
2518.45
2509.57
2500.58
2491.48
2482.27
2472.96
2463.53
2454.01
2444.38
2434.66
2424.84
2414.93
2404.93
2394.83
2384.66
2374.39
2364.05
2353.63
2343.13
2332.55
2321.91
2311.2
2300.41
2289.57
2278.66
2267.7
2256.68
2245.6
2234.47
2223.29
2212.07
2200.8
2189.49
2178.14
2166.75
2155.33
2143.88
2132.4
2120.89
2109.36
2097.81
2086.24
2074.65
2063.05
2051.43
2039.81
2028.19
2016.56
2004.92
1993.3
1981.67
1970.05
1958.45
1946.85
1935.27
1923.71
1912.17
1900.65
1889.16
1877.7
1866.26
1854.87
1843.5
1832.18
1820.9
1809.67
1798.48
1787.34
1776.26
1765.23
1754.26
1743.35
1732.5
1721.72
1711.01
1700.37
1689.8
1679.3
1668.89
1658.56
1648.31
1638.14
1628.07
1618.08
1608.19
1598.39
1588.69
1579.09
1569.58
1560.19
1550.89
1541.7
1532.63
1523.66
1514.8
1506.06
1497.43
1488.93
1480.54
1472.27
1464.12
1456.1
1448.2
1440.43
1432.79
1425.27
1417.89
1410.63
1403.51
1396.53
1389.68
1382.96
1376.38
1369.94
1363.63
1357.47
1351.44
1345.56
1339.82
1334.21
1328.75
1323.44
1318.26
1313.23
1308.35
1303.6
1299
1294.55
1290.24
1286.07
1282.05
1278.17
1274.44
1270.85
1267.4
1264.09
1260.93
1257.91
1255.03
1252.29
1249.7
1247.24
1244.91
1242.73
1240.68
1238.76
1236.98
1235.34
1233.82
1232.43
1231.17
1230.03
1229.02
1228.14
1227.37
1226.72
1226.19
1225.78
1225.48
1225.29
1225.21
1225.23
1225.37
1225.6
1225.94
1226.37
1226.9
1227.53
1228.25
1229.06
1229.96
1230.95
1232.02
1233.17
1234.41
1235.73
1237.12
1238.59
1240.14
1241.76
1243.45
1245.21
1247.04
1248.93
1250.9
1252.92
1255.02
1257.17
1259.38
1261.66
1263.99
1266.38
1268.82
1271.32
1273.87
1276.47
1279.13
1281.83
1284.58
1287.37
1290.21
1293.09
1296.02
1298.98
1301.98
1305.02
1308.09
1311.19
1314.32
1317.48
1320.67
1323.87
1327.11
1330.35
1333.62
1336.9
1340.2
1343.5
1346.81
1350.13
1353.45
1356.78
1360.1
1363.42
1366.74
1370.04
1373.34
1376.63
1379.91
1383.16
1386.4
1389.62
1392.82
1395.99
1399.13
1402.24
1405.32
1408.37
1411.37
1414.35
1417.28
1420.17
1423.01
1425.81
1428.56
1431.26
1433.92
1436.52
1439.06
1441.55
1443.99
1446.36
1448.68
1450.93
1453.12
1455.25
1457.31
1459.31
1461.24
1463.1
1464.9
1466.62
1468.27
1469.85
1471.35
1472.79
1474.14
1475.42
1476.63
1477.76
1478.81
1479.78
1480.68
1481.49
1482.23
1482.88
1483.45
1483.95
1484.36
1484.68
1484.93
1485.1
1485.18
2818.3
2818.17
2817.93
2817.55
2817.05
2816.42
2815.67
2814.79
2813.78
2812.65
2811.39
2810
2808.48
2806.84
2805.06
2803.16
2801.13
2798.97
2796.69
2794.27
2791.72
2789.04
2786.23
2783.29
2780.22
2777.01
2773.68
2770.21
2766.61
2762.87
2759.01
2755.01
2750.87
2746.6
2742.2
2737.66
2732.98
2728.17
2723.22
2718.14
2712.91
2707.56
2702.06
2696.43
2690.65
2684.75
2678.7
2672.51
2666.19
2659.73
2653.13
2646.4
2639.53
2632.52
2625.38
2618.1
2610.69
2603.14
2595.47
2587.66
2579.72
2571.66
2563.46
2555.14
2546.7
2538.14
2529.45
2520.65
2511.72
2502.69
2493.54
2484.28
2474.92
2465.44
2455.87
2446.19
2436.42
2426.54
2416.58
2406.52
2396.37
2386.14
2375.82
2365.42
2354.94
2344.38
2333.75
2323.05
2312.28
2301.44
2290.54
2279.57
2268.55
2257.47
2246.33
2235.15
2223.91
2212.63
2201.3
2189.93
2178.52
2167.07
2155.59
2144.08
2132.54
2120.98
2109.38
2097.77
2086.14
2074.49
2062.83
2051.16
2039.48
2027.79
2016.1
2004.41
1992.73
1981.04
1969.37
1957.7
1946.05
1934.41
1922.79
1911.19
1899.62
1888.07
1876.55
1865.06
1853.6
1842.19
1830.81
1819.47
1808.18
1796.94
1785.75
1774.61
1763.53
1752.51
1741.54
1730.65
1719.81
1709.05
1698.36
1687.74
1677.2
1666.74
1656.36
1646.07
1635.86
1625.74
1615.71
1605.77
1595.93
1586.19
1576.55
1567.01
1557.57
1548.24
1539.01
1529.9
1520.9
1512.01
1503.23
1494.57
1486.03
1477.61
1469.31
1461.14
1453.09
1445.16
1437.36
1429.69
1422.15
1414.74
1407.46
1400.32
1393.31
1386.43
1379.7
1373.09
1366.63
1360.31
1354.12
1348.08
1342.17
1336.41
1330.79
1325.32
1319.98
1314.79
1309.75
1304.85
1300.09
1295.48
1291.01
1286.69
1282.51
1278.48
1274.59
1270.85
1267.26
1263.8
1260.49
1257.33
1254.31
1251.43
1248.69
1246.09
1243.63
1241.31
1239.14
1237.09
1235.19
1233.42
1231.78
1230.27
1228.9
1227.65
1226.53
1225.54
1224.67
1223.93
1223.3
1222.79
1222.4
1222.13
1221.96
1221.91
1221.96
1222.12
1222.39
1222.75
1223.22
1223.78
1224.44
1225.2
1226.04
1226.97
1227.99
1229.1
1230.29
1231.56
1232.91
1234.34
1235.85
1237.43
1239.08
1240.81
1242.61
1244.48
1246.41
1248.41
1250.48
1252.61
1254.8
1257.06
1259.37
1261.75
1264.18
1266.66
1269.21
1271.8
1274.45
1277.15
1279.9
1282.7
1285.55
1288.44
1291.38
1294.35
1297.37
1300.43
1303.52
1306.65
1309.81
1313
1316.22
1319.47
1322.74
1326.03
1329.34
1332.68
1336.02
1339.38
1342.75
1346.13
1349.52
1352.91
1356.3
1359.69
1363.08
1366.46
1369.84
1373.21
1376.56
1379.9
1383.22
1386.52
1389.81
1393.06
1396.29
1399.5
1402.67
1405.81
1408.91
1411.98
1415
1417.99
1420.93
1423.83
1426.68
1429.48
1432.23
1434.93
1437.58
1440.17
1442.71
1445.18
1447.6
1449.96
1452.25
1454.48
1456.64
1458.74
1460.77
1462.74
1464.63
1466.45
1468.2
1469.88
1471.49
1473.02
1474.47
1475.85
1477.15
1478.38
1479.52
1480.59
1481.58
1482.48
1483.31
1484.06
1484.72
1485.3
1485.8
1486.22
1486.55
1486.8
1486.97
1487.05
2821.45
2821.32
2821.07
2820.7
2820.2
2819.57
2818.82
2817.94
2816.94
2815.81
2814.55
2813.16
2811.65
2810.01
2808.24
2806.34
2804.31
2802.16
2799.87
2797.46
2794.91
2792.23
2789.43
2786.49
2783.42
2780.22
2776.88
2773.42
2769.82
2766.09
2762.22
2758.22
2754.08
2749.81
2745.41
2740.87
2736.19
2731.37
2726.42
2721.33
2716.1
2710.74
2705.23
2699.59
2693.81
2687.89
2681.83
2675.63
2669.29
2662.81
2656.2
2649.44
2642.55
2635.51
2628.34
2621.04
2613.6
2606.02
2598.31
2590.46
2582.49
2574.38
2566.15
2557.78
2549.3
2540.69
2531.95
2523.1
2514.13
2505.04
2495.84
2486.52
2477.1
2467.57
2457.94
2448.21
2438.37
2428.44
2418.41
2408.29
2398.08
2387.79
2377.41
2366.94
2356.4
2345.78
2335.09
2324.32
2313.49
2302.58
2291.61
2280.59
2269.5
2258.35
2247.15
2235.9
2224.59
2213.24
2201.85
2190.42
2178.94
2167.43
2155.88
2144.3
2132.7
2121.06
2109.41
2097.73
2086.03
2074.32
2062.59
2050.85
2039.1
2027.35
2015.6
2003.84
1992.09
1980.34
1968.6
1956.87
1945.15
1933.45
1921.76
1910.1
1898.46
1886.85
1875.26
1863.71
1852.19
1840.71
1829.27
1817.88
1806.53
1795.22
1783.97
1772.77
1761.63
1750.55
1739.53
1728.58
1717.69
1706.87
1696.12
1685.45
1674.86
1664.35
1653.92
1643.57
1633.31
1623.14
1613.07
1603.08
1593.2
1583.41
1573.72
1564.13
1554.65
1545.28
1536.02
1526.86
1517.82
1508.89
1500.08
1491.39
1482.81
1474.35
1466.02
1457.81
1449.73
1441.77
1433.94
1426.24
1418.67
1411.23
1403.93
1396.76
1389.72
1382.82
1376.06
1369.43
1362.94
1356.6
1350.39
1344.32
1338.4
1332.62
1326.98
1321.48
1316.13
1310.92
1305.86
1300.94
1296.17
1291.54
1287.06
1282.73