/*--------------------------------*- C++ -*----------------------------------*\
| =========                 |                                                 |
| \\      /  F ield         | OpenFOAM: The Open Source CFD Toolbox           |
|  \\    /   O peration     | Version:  v2006                                 |
|   \\  /    A nd           | Website:  www.openfoam.com                      |
|    \\/     M anipulation  |                                                 |
\*---------------------------------------------------------------------------*/
FoamFile
{
    version     2.0;
    format      ascii;
    class       volVectorField;
    location    "0";
    object      U;
}
// * * * * * * * * * * * * * * * * * * * * * * * * * * * * * * * * * * * * * //

dimensions      [0 1 -1 0 0 0 0];


internalField   nonuniform List<vector> 
67500
(
(-0.0164476 0.0116014 0)
(-0.0327207 -0.0019502 0)
(-0.00119384 -0.0204973 0)
(0.0517179 -0.0287592 0)
(0.112583 -0.0292646 0)
(0.163194 -0.0209671 0)
(0.195181 -0.0114601 0)
(0.210951 -0.00525074 0)
(0.217019 -0.00209463 0)
(0.218621 -0.000608148 0)
(0.21871 -0.000173564 0)
(0.219048 -0.000523239 0)
(0.220792 -0.0013315 0)
(0.224492 -0.00230322 0)
(0.230207 -0.00326869 0)
(0.23778 -0.00415898 0)
(0.247019 -0.00495995 0)
(0.257755 -0.00568253 0)
(0.269856 -0.00634403 0)
(0.283223 -0.00695744 0)
(0.297773 -0.00752717 0)
(0.31342 -0.00804946 0)
(0.330061 -0.0085149 0)
(0.34757 -0.00891151 0)
(0.365793 -0.00922758 0)
(0.384559 -0.00945502 0)
(0.403684 -0.00959338 0)
(0.422999 -0.00965224 0)
(0.442359 -0.00964554 0)
(0.461643 -0.00958285 0)
(0.480745 -0.00946876 0)
(0.499564 -0.00930887 0)
(0.518017 -0.00911508 0)
(0.536052 -0.00890345 0)
(0.553647 -0.0086859 0)
(0.570801 -0.00846828 0)
(0.587519 -0.00825462 0)
(0.603814 -0.00804705 0)
(0.6197 -0.0078444 0)
(0.635184 -0.00764415 0)
(0.650269 -0.00744406 0)
(0.664953 -0.00724202 0)
(0.679231 -0.00703649 0)
(0.693094 -0.00682687 0)
(0.706534 -0.00661333 0)
(0.719542 -0.00639655 0)
(0.732114 -0.00617763 0)
(0.744246 -0.00595785 0)
(0.755937 -0.00573848 0)
(0.767191 -0.00552071 0)
(0.778011 -0.00530559 0)
(0.788404 -0.00509397 0)
(0.798377 -0.00488656 0)
(0.807939 -0.00468389 0)
(0.817102 -0.00448639 0)
(0.825874 -0.00429435 0)
(0.834269 -0.00410799 0)
(0.842296 -0.00392746 0)
(0.849969 -0.00375286 0)
(0.857298 -0.00358421 0)
(0.864296 -0.00342154 0)
(0.870975 -0.00326481 0)
(0.877347 -0.00311396 0)
(0.883423 -0.00296893 0)
(0.889214 -0.0028296 0)
(0.894733 -0.00269588 0)
(0.899991 -0.00256763 0)
(0.904997 -0.00244471 0)
(0.909763 -0.002327 0)
(0.914298 -0.00221433 0)
(0.918614 -0.00210656 0)
(0.922719 -0.00200352 0)
(0.926623 -0.00190507 0)
(0.930334 -0.00181104 0)
(0.933862 -0.00172128 0)
(0.937214 -0.00163564 0)
(0.9404 -0.00155395 0)
(0.943426 -0.00147606 0)
(0.9463 -0.00140184 0)
(0.949029 -0.00133113 0)
(0.951621 -0.00126379 0)
(0.954081 -0.00119969 0)
(0.956416 -0.0011387 0)
(0.958633 -0.00108067 0)
(0.960736 -0.0010255 0)
(0.962732 -0.00097305 0)
(0.964625 -0.00092321 0)
(0.966422 -0.000875864 0)
(0.968126 -0.000830899 0)
(0.969743 -0.000788208 0)
(0.971277 -0.000747683 0)
(0.972732 -0.000709223 0)
(0.974112 -0.000672728 0)
(0.975421 -0.000638102 0)
(0.976662 -0.000605252 0)
(0.97784 -0.000574088 0)
(0.978957 -0.000544523 0)
(0.980017 -0.000516476 0)
(0.981022 -0.000489866 0)
(0.981975 -0.000464618 0)
(0.982879 -0.000440657 0)
(0.983736 -0.000417916 0)
(0.984549 -0.000396328 0)
(0.98532 -0.000375831 0)
(0.986052 -0.000356368 0)
(0.986745 -0.000337882 0)
(0.987402 -0.000320325 0)
(0.988025 -0.000303648 0)
(0.988616 -0.000287809 0)
(0.989176 -0.000272767 0)
(0.989706 -0.000258486 0)
(0.990209 -0.00024493 0)
(0.990685 -0.000232069 0)
(0.991137 -0.00021987 0)
(0.991564 -0.000208307 0)
(0.991969 -0.000197351 0)
(0.992353 -0.000186975 0)
(0.992716 -0.000177154 0)
(0.993061 -0.000167862 0)
(0.993387 -0.000159075 0)
(0.993697 -0.000150769 0)
(0.99399 -0.000142921 0)
(0.994268 -0.000135509 0)
(0.994532 -0.00012851 0)
(0.994782 -0.000121904 0)
(0.995019 -0.00011567 0)
(0.995244 -0.000109789 0)
(0.995458 -0.000104242 0)
(0.995661 -9.90111e-05 0)
(0.995853 -9.40789e-05 0)
(0.996037 -8.94286e-05 0)
(0.996211 -8.50443e-05 0)
(0.996377 -8.09104e-05 0)
(0.996534 -7.70119e-05 0)
(0.996684 -7.33344e-05 0)
(0.996827 -6.98641e-05 0)
(0.996964 -6.65877e-05 0)
(0.997094 -6.34925e-05 0)
(0.997217 -6.05664e-05 0)
(0.997336 -5.77979e-05 0)
(0.997449 -5.51761e-05 0)
(0.997556 -5.26909e-05 0)
(0.997659 -5.03326e-05 0)
(0.997757 -4.80925e-05 0)
(0.997851 -4.59622e-05 0)
(0.997941 -4.39344e-05 0)
(0.998027 -4.2002e-05 0)
(0.998109 -4.01588e-05 0)
(0.998188 -3.8399e-05 0)
(0.998263 -3.67175e-05 0)
(0.998334 -3.51096e-05 0)
(0.998403 -3.3571e-05 0)
(0.998469 -3.20981e-05 0)
(0.998531 -3.06874e-05 0)
(0.998591 -2.93357e-05 0)
(0.998649 -2.80403e-05 0)
(0.998703 -2.67986e-05 0)
(0.998756 -2.56083e-05 0)
(0.998806 -2.44674e-05 0)
(0.998854 -2.33737e-05 0)
(0.998899 -2.23255e-05 0)
(0.998943 -2.1321e-05 0)
(0.998984 -2.03587e-05 0)
(0.999024 -1.94369e-05 0)
(0.999062 -1.85543e-05 0)
(0.999098 -1.77094e-05 0)
(0.999133 -1.69008e-05 0)
(0.999166 -1.61273e-05 0)
(0.999197 -1.53876e-05 0)
(0.999227 -1.46804e-05 0)
(0.999256 -1.40045e-05 0)
(0.999283 -1.33587e-05 0)
(0.99931 -1.2742e-05 0)
(0.999334 -1.21532e-05 0)
(0.999358 -1.15912e-05 0)
(0.999381 -1.1055e-05 0)
(0.999402 -1.05436e-05 0)
(0.999423 -1.00559e-05 0)
(0.999443 -9.59108e-06 0)
(0.999461 -9.14812e-06 0)
(0.999479 -8.72616e-06 0)
(0.999496 -8.32434e-06 0)
(0.999512 -7.94182e-06 0)
(0.999528 -7.57781e-06 0)
(0.999543 -7.23152e-06 0)
(0.999557 -6.90222e-06 0)
(0.99957 -6.58918e-06 0)
(0.999583 -6.29172e-06 0)
(0.999595 -6.00917e-06 0)
(0.999607 -5.74088e-06 0)
(0.999618 -5.48626e-06 0)
(0.999629 -5.24469e-06 0)
(0.999639 -5.01562e-06 0)
(0.999649 -4.7985e-06 0)
(0.999659 -4.59279e-06 0)
(0.999667 -4.39798e-06 0)
(0.999676 -4.21359e-06 0)
(0.999684 -4.03914e-06 0)
(0.999692 -3.87418e-06 0)
(0.9997 -3.71826e-06 0)
(0.999707 -3.57095e-06 0)
(0.999714 -3.43185e-06 0)
(0.999721 -3.30056e-06 0)
(0.999727 -3.17668e-06 0)
(0.999734 -3.05986e-06 0)
(0.99974 -2.94973e-06 0)
(0.999745 -2.84594e-06 0)
(0.999751 -2.74815e-06 0)
(0.999756 -2.65604e-06 0)
(0.999762 -2.5693e-06 0)
(0.999767 -2.4876e-06 0)
(0.999771 -2.41066e-06 0)
(0.999776 -2.33819e-06 0)
(0.999781 -2.26991e-06 0)
(0.999785 -2.20555e-06 0)
(0.99979 -2.14484e-06 0)
(0.999794 -2.08754e-06 0)
(0.999798 -2.0334e-06 0)
(0.999802 -1.98217e-06 0)
(0.999806 -1.93364e-06 0)
(0.99981 -1.88758e-06 0)
(0.999813 -1.84377e-06 0)
(0.999817 -1.80202e-06 0)
(0.999821 -1.76212e-06 0)
(0.999824 -1.7239e-06 0)
(0.999828 -1.68716e-06 0)
(0.999831 -1.65175e-06 0)
(0.999834 -1.6175e-06 0)
(0.999837 -1.58427e-06 0)
(0.999841 -1.5519e-06 0)
(0.999844 -1.52029e-06 0)
(0.999847 -1.4893e-06 0)
(0.99985 -1.45882e-06 0)
(0.999852 -1.42878e-06 0)
(0.999855 -1.39907e-06 0)
(0.999858 -1.36964e-06 0)
(0.999861 -1.34042e-06 0)
(0.999863 -1.31136e-06 0)
(0.999866 -1.28245e-06 0)
(0.999869 -1.25365e-06 0)
(0.999871 -1.22496e-06 0)
(0.999873 -1.19638e-06 0)
(0.999876 -1.16794e-06 0)
(0.999878 -1.13964e-06 0)
(0.99988 -1.11153e-06 0)
(0.999883 -1.08364e-06 0)
(0.999885 -1.05601e-06 0)
(0.999887 -1.02867e-06 0)
(0.999889 -1.00165e-06 0)
(0.999891 -9.75001e-07 0)
(0.999893 -9.48734e-07 0)
(0.999895 -9.22872e-07 0)
(0.999896 -8.97432e-07 0)
(0.999898 -8.72428e-07 0)
(0.9999 -8.47874e-07 0)
(0.999902 -8.23787e-07 0)
(0.999903 -8.00193e-07 0)
(0.999905 -7.77127e-07 0)
(0.999906 -7.54643e-07 0)
(0.999908 -7.32809e-07 0)
(0.999909 -7.11713e-07 0)
(0.999911 -6.91457e-07 0)
(0.999912 -6.72153e-07 0)
(0.999913 -6.53917e-07 0)
(0.999915 -6.36854e-07 0)
(0.999916 -6.21047e-07 0)
(0.999917 -6.06544e-07 0)
(0.999918 -5.93341e-07 0)
(0.999919 -5.81373e-07 0)
(0.999921 -5.7051e-07 0)
(0.999922 -5.60554e-07 0)
(0.999923 -5.51253e-07 0)
(0.999924 -5.42316e-07 0)
(0.999925 -5.33444e-07 0)
(0.999926 -5.24355e-07 0)
(0.999927 -5.14823e-07 0)
(0.999928 -5.04706e-07 0)
(0.999929 -4.93967e-07 0)
(0.99993 -4.8269e-07 0)
(0.999931 -4.71073e-07 0)
(0.999932 -4.59417e-07 0)
(0.999933 -4.48091e-07 0)
(0.999934 -4.375e-07 0)
(0.999935 -4.28041e-07 0)
(0.999935 -4.20061e-07 0)
(0.999936 -4.1383e-07 0)
(0.999937 -4.0951e-07 0)
(0.999938 -4.0715e-07 0)
(0.999939 -4.06685e-07 0)
(0.99994 -4.07942e-07 0)
(0.99994 -4.10669e-07 0)
(0.999941 -4.1455e-07 0)
(0.999942 -4.19234e-07 0)
(0.999943 -4.24362e-07 0)
(0.999944 -4.29584e-07 0)
(0.999945 -4.3458e-07 0)
(0.999945 -4.39071e-07 0)
(0.999946 -4.42826e-07 0)
(0.999947 -4.4567e-07 0)
(0.999948 -4.47476e-07 0)
(0.999949 -4.4817e-07 0)
(0.99995 -4.47721e-07 0)
(0.999951 -4.46136e-07 0)
(0.999952 -4.43453e-07 0)
(0.999953 -4.39735e-07 0)
(0.999953 -4.35063e-07 0)
(0.999954 -4.29529e-07 0)
(0.999955 -4.23235e-07 0)
(0.999956 -4.16282e-07 0)
(0.999957 -4.08773e-07 0)
(0.999958 -4.00808e-07 0)
(0.999958 -3.92481e-07 0)
(0.999959 -3.83878e-07 0)
(0.99996 -3.75079e-07 0)
(0.999961 -3.66157e-07 0)
(0.999961 -3.57176e-07 0)
(0.999962 -3.48192e-07 0)
(0.999963 -3.39254e-07 0)
(0.999964 -3.30403e-07 0)
(0.999964 -3.21675e-07 0)
(0.999965 -3.13097e-07 0)
(0.999965 -3.04695e-07 0)
(0.999966 -2.96486e-07 0)
(0.999967 -2.88486e-07 0)
(0.999967 -2.80705e-07 0)
(0.999968 -2.7315e-07 0)
(0.999968 -2.65826e-07 0)
(0.999969 -2.58736e-07 0)
(0.999969 -2.51879e-07 0)
(0.99997 -2.45255e-07 0)
(0.99997 -2.3886e-07 0)
(0.999971 -2.32692e-07 0)
(0.999971 -2.26744e-07 0)
(0.999972 -2.21012e-07 0)
(0.999972 -2.15489e-07 0)
(0.999973 -2.10169e-07 0)
(0.999973 -2.05045e-07 0)
(0.999973 -2.0011e-07 0)
(0.999974 -1.95358e-07 0)
(0.999974 -1.90781e-07 0)
(0.999975 -1.86372e-07 0)
(0.999975 -1.82124e-07 0)
(0.999975 -1.7803e-07 0)
(0.999976 -1.74085e-07 0)
(0.999976 -1.7028e-07 0)
(0.999976 -1.6661e-07 0)
(0.999977 -1.6307e-07 0)
(0.999977 -1.59652e-07 0)
(0.999977 -1.56351e-07 0)
(0.999978 -1.53163e-07 0)
(0.999978 -1.50081e-07 0)
(0.999978 -1.471e-07 0)
(0.999978 -1.44217e-07 0)
(0.999979 -1.41426e-07 0)
(0.999979 -1.38723e-07 0)
(0.999979 -1.36103e-07 0)
(0.99998 -1.33564e-07 0)
(0.99998 -1.311e-07 0)
(0.99998 -1.2871e-07 0)
(0.99998 -1.26388e-07 0)
(0.999981 -1.24132e-07 0)
(0.999981 -1.21939e-07 0)
(0.999981 -1.19806e-07 0)
(0.999981 -1.17731e-07 0)
(0.999982 -1.1571e-07 0)
(0.999982 -1.13741e-07 0)
(0.999982 -1.11822e-07 0)
(0.999982 -1.0995e-07 0)
(0.999982 -1.08124e-07 0)
(0.999983 -1.06341e-07 0)
(0.999983 -1.046e-07 0)
(0.999983 -1.02899e-07 0)
(0.999983 -1.01235e-07 0)
(0.999983 -9.96082e-08 0)
(0.999984 -9.80161e-08 0)
(0.999984 -9.64574e-08 0)
(0.999984 -9.49308e-08 0)
(0.999984 -9.3435e-08 0)
(0.999984 -9.19687e-08 0)
(0.999985 -9.05308e-08 0)
(0.999985 -8.91201e-08 0)
(0.999985 -8.77356e-08 0)
(0.999985 -8.63763e-08 0)
(0.999985 -8.50412e-08 0)
(0.999985 -8.37295e-08 0)
(0.999986 -8.24403e-08 0)
(0.999986 -8.11728e-08 0)
(0.999986 -7.99262e-08 0)
(0.999986 -7.86997e-08 0)
(0.999986 -7.74927e-08 0)
(0.999986 -7.63045e-08 0)
(0.999987 -7.51345e-08 0)
(0.999987 -7.39821e-08 0)
(0.999987 -7.28468e-08 0)
(0.999987 -7.17278e-08 0)
(0.999987 -7.06248e-08 0)
(0.999987 -6.95373e-08 0)
(0.999987 -6.84647e-08 0)
(0.999988 -6.74067e-08 0)
(0.999988 -6.63628e-08 0)
(0.999988 -6.53326e-08 0)
(0.999988 -6.43157e-08 0)
(0.999988 -6.33117e-08 0)
(0.999988 -6.23203e-08 0)
(0.999988 -6.13411e-08 0)
(0.999988 -6.03737e-08 0)
(0.999989 -5.9418e-08 0)
(0.999989 -5.84735e-08 0)
(0.999989 -5.754e-08 0)
(0.999989 -5.66172e-08 0)
(0.999989 -5.57048e-08 0)
(0.999989 -5.48027e-08 0)
(0.999989 -5.39104e-08 0)
(0.999989 -5.30278e-08 0)
(0.999989 -5.21547e-08 0)
(0.99999 -5.12908e-08 0)
(0.99999 -5.04358e-08 0)
(0.99999 -4.95897e-08 0)
(0.99999 -4.87522e-08 0)
(0.99999 -4.79231e-08 0)
(0.99999 -4.71022e-08 0)
(0.99999 -4.62894e-08 0)
(0.99999 -4.54844e-08 0)
(0.99999 -4.4687e-08 0)
(0.99999 -4.38972e-08 0)
(0.999991 -4.31147e-08 0)
(0.999991 -4.23394e-08 0)
(0.999991 -4.15711e-08 0)
(0.999991 -4.08097e-08 0)
(0.999991 -4.0055e-08 0)
(0.999991 -3.9307e-08 0)
(0.999991 -3.85653e-08 0)
(0.999991 -3.783e-08 0)
(0.999991 -3.71009e-08 0)
(0.999991 -3.63778e-08 0)
(0.999991 -3.56605e-08 0)
(0.999991 -3.49491e-08 0)
(0.999991 -3.42433e-08 0)
(0.999992 -3.35431e-08 0)
(0.999992 -3.28483e-08 0)
(0.999992 -3.21588e-08 0)
(0.999992 -3.14744e-08 0)
(0.999992 -3.07952e-08 0)
(0.999992 -3.01209e-08 0)
(0.999992 -2.94517e-08 0)
(0.999992 -2.87858e-08 0)
(0.999992 -2.81309e-08 0)
(0.999992 -2.74537e-08 0)
(0.999992 -2.68949e-08 0)
(0.999992 -2.58539e-08 0)
(-0.019036 0.03472 0)
(-0.0310995 -0.00704848 0)
(0.00509236 -0.0633815 0)
(0.0776402 -0.0920045 0)
(0.145636 -0.0847922 0)
(0.186433 -0.0563309 0)
(0.203282 -0.0313248 0)
(0.208985 -0.0152605 0)
(0.21183 -0.00620204 0)
(0.21358 -0.00170817 0)
(0.214425 -0.00055508 0)
(0.215507 -0.00181262 0)
(0.218029 -0.00434023 0)
(0.222448 -0.00724446 0)
(0.2287 -0.010071 0)
(0.236603 -0.0126636 0)
(0.246004 -0.0150064 0)
(0.256793 -0.0171386 0)
(0.268892 -0.0191082 0)
(0.282244 -0.0209475 0)
(0.296795 -0.0226631 0)
(0.31248 -0.0242379 0)
(0.329203 -0.0256395 0)
(0.346838 -0.0268299 0)
(0.365226 -0.0277734 0)
(0.384176 -0.0284451 0)
(0.403483 -0.028844 0)
(0.422956 -0.0290055 0)
(0.442445 -0.028979 0)
(0.461838 -0.028792 0)
(0.481032 -0.0284505 0)
(0.499921 -0.0279639 0)
(0.518415 -0.0273684 0)
(0.536463 -0.0267202 0)
(0.554055 -0.0260586 0)
(0.571199 -0.0253995 0)
(0.587904 -0.0247552 0)
(0.604187 -0.0241323 0)
(0.620066 -0.0235257 0)
(0.635548 -0.0229266 0)
(0.650637 -0.0223279 0)
(0.665328 -0.021723 0)
(0.679615 -0.0211068 0)
(0.693487 -0.0204778 0)
(0.706935 -0.0198366 0)
(0.71995 -0.0191853 0)
(0.732526 -0.0185274 0)
(0.744659 -0.017867 0)
(0.75635 -0.0172079 0)
(0.7676 -0.0165538 0)
(0.778414 -0.0159078 0)
(0.7888 -0.0152725 0)
(0.798765 -0.01465 0)
(0.808319 -0.0140419 0)
(0.817471 -0.0134493 0)
(0.826233 -0.0128733 0)
(0.834617 -0.0123144 0)
(0.842633 -0.011773 0)
(0.850295 -0.0112494 0)
(0.857613 -0.0107437 0)
(0.8646 -0.010256 0)
(0.871267 -0.00978609 0)
(0.877628 -0.00933387 0)
(0.883693 -0.00889908 0)
(0.889474 -0.00848142 0)
(0.894983 -0.00808056 0)
(0.90023 -0.00769611 0)
(0.905226 -0.00732767 0)
(0.909982 -0.00697482 0)
(0.914509 -0.0066371 0)
(0.918815 -0.00631406 0)
(0.922911 -0.00600522 0)
(0.926807 -0.00571012 0)
(0.93051 -0.00542829 0)
(0.93403 -0.00515925 0)
(0.937375 -0.00490253 0)
(0.940553 -0.00465767 0)
(0.943572 -0.00442423 0)
(0.946439 -0.00420175 0)
(0.949162 -0.0039898 0)
(0.951747 -0.00378797 0)
(0.954202 -0.00359583 0)
(0.956531 -0.00341299 0)
(0.958742 -0.00323907 0)
(0.96084 -0.00307369 0)
(0.962831 -0.00291648 0)
(0.96472 -0.00276709 0)
(0.966512 -0.00262518 0)
(0.968211 -0.0024904 0)
(0.969824 -0.00236244 0)
(0.971354 -0.00224098 0)
(0.972805 -0.0021257 0)
(0.974181 -0.00201632 0)
(0.975487 -0.00191254 0)
(0.976725 -0.00181408 0)
(0.977899 -0.00172067 0)
(0.979014 -0.00163207 0)
(0.98007 -0.001548 0)
(0.981072 -0.00146825 0)
(0.982023 -0.00139258 0)
(0.982925 -0.00132077 0)
(0.98378 -0.00125261 0)
(0.984591 -0.00118791 0)
(0.98536 -0.00112647 0)
(0.986089 -0.00106814 0)
(0.98678 -0.00101273 0)
(0.987436 -0.000960104 0)
(0.988057 -0.000910117 0)
(0.988646 -0.000862639 0)
(0.989205 -0.00081755 0)
(0.989734 -0.00077474 0)
(0.990235 -0.000734105 0)
(0.99071 -0.00069555 0)
(0.99116 -0.000658983 0)
(0.991586 -0.00062432 0)
(0.99199 -0.000591477 0)
(0.992373 -0.000560375 0)
(0.992735 -0.000530936 0)
(0.993079 -0.000503085 0)
(0.993404 -0.000476748 0)
(0.993713 -0.000451854 0)
(0.994005 -0.000428332 0)
(0.994282 -0.000406117 0)
(0.994545 -0.000385141 0)
(0.994794 -0.000365342 0)
(0.995031 -0.000346659 0)
(0.995255 -0.000329035 0)
(0.995468 -0.000312412 0)
(0.995671 -0.000296736 0)
(0.995863 -0.000281956 0)
(0.996046 -0.000268021 0)
(0.996219 -0.000254884 0)
(0.996385 -0.000242497 0)
(0.996542 -0.000230816 0)
(0.996692 -0.000219797 0)
(0.996834 -0.000209399 0)
(0.99697 -0.000199583 0)
(0.9971 -0.000190309 0)
(0.997223 -0.000181542 0)
(0.997341 -0.000173247 0)
(0.997454 -0.000165392 0)
(0.997561 -0.000157946 0)
(0.997664 -0.00015088 0)
(0.997762 -0.000144168 0)
(0.997856 -0.000137784 0)
(0.997945 -0.000131708 0)
(0.998031 -0.000125917 0)
(0.998113 -0.000120393 0)
(0.998191 -0.000115119 0)
(0.998266 -0.000110079 -2.96827e-42)
(0.998338 -0.000105259 -3.02281e-42)
(0.998406 -0.000100647 0)
(0.998471 -9.62321e-05 0)
(0.998534 -9.20029e-05 0)
(0.998594 -8.79507e-05 0)
(0.998651 -8.40671e-05 0)
(0.998706 -8.03444e-05 0)
(0.998758 -7.67757e-05 0)
(0.998808 -7.33548e-05 0)
(0.998856 -7.00756e-05 0)
(0.998901 -6.69326e-05 0)
(0.998945 -6.39208e-05 0)
(0.998986 -6.10354e-05 0)
(0.999026 -5.82716e-05 0)
(0.999064 -5.56251e-05 0)
(0.9991 -5.30918e-05 0)
(0.999135 -5.06674e-05 0)
(0.999167 -4.83481e-05 0)
(0.999199 -4.61302e-05 0)
(0.999229 -4.40097e-05 0)
(0.999257 -4.19833e-05 0)
(0.999285 -4.00472e-05 0)
(0.999311 -3.81982e-05 0)
(0.999336 -3.64328e-05 0)
(0.999359 -3.4748e-05 0)
(0.999382 -3.31404e-05 0)
(0.999403 -3.1607e-05 0)
(0.999424 -3.0145e-05 0)
(0.999443 -2.87513e-05 0)
(0.999462 -2.74233e-05 0)
(0.99948 -2.61583e-05 0)
(0.999497 -2.49537e-05 0)
(0.999513 -2.3807e-05 0)
(0.999529 -2.27157e-05 0)
(0.999543 -2.16776e-05 0)
(0.999557 -2.06904e-05 0)
(0.999571 -1.9752e-05 0)
(0.999584 -1.88602e-05 0)
(0.999596 -1.80132e-05 0)
(0.999608 -1.7209e-05 0)
(0.999619 -1.64457e-05 0)
(0.99963 -1.57216e-05 0)
(0.99964 -1.50349e-05 0)
(0.99965 -1.43841e-05 0)
(0.999659 -1.37675e-05 0)
(0.999668 -1.31835e-05 0)
(0.999676 -1.26308e-05 0)
(0.999685 -1.21079e-05 0)
(0.999693 -1.16135e-05 0)
(0.9997 -1.11462e-05 0)
(0.999707 -1.07046e-05 0)
(0.999714 -1.02877e-05 0)
(0.999721 -9.89424e-06 0)
(0.999728 -9.523e-06 0)
(0.999734 -9.17289e-06 0)
(0.99974 -8.84285e-06 0)
(0.999746 -8.53181e-06 0)
(0.999751 -8.23878e-06 0)
(0.999756 -7.96277e-06 0)
(0.999762 -7.70283e-06 0)
(0.999767 -7.45805e-06 0)
(0.999772 -7.22752e-06 0)
(0.999776 -7.01039e-06 0)
(0.999781 -6.80582e-06 0)
(0.999785 -6.61299e-06 0)
(0.99979 -6.43113e-06 0)
(0.999794 -6.25947e-06 0)
(0.999798 -6.09727e-06 0)
(0.999802 -5.94383e-06 0)
(0.999806 -5.79845e-06 0)
(0.99981 -5.66047e-06 0)
(0.999814 -5.52926e-06 0)
(0.999817 -5.4042e-06 0)
(0.999821 -5.2847e-06 0)
(0.999824 -5.1702e-06 0)
(0.999828 -5.06017e-06 0)
(0.999831 -4.95409e-06 0)
(0.999834 -4.85149e-06 0)
(0.999837 -4.75192e-06 0)
(0.999841 -4.65496e-06 0)
(0.999844 -4.56023e-06 0)
(0.999847 -4.46736e-06 0)
(0.99985 -4.37604e-06 0)
(0.999852 -4.28599e-06 0)
(0.999855 -4.19694e-06 0)
(0.999858 -4.1087e-06 0)
(0.999861 -4.02108e-06 0)
(0.999863 -3.93395e-06 0)
(0.999866 -3.84722e-06 0)
(0.999869 -3.76083e-06 0)
(0.999871 -3.67476e-06 0)
(0.999873 -3.58901e-06 0)
(0.999876 -3.50365e-06 0)
(0.999878 -3.41874e-06 0)
(0.99988 -3.33438e-06 0)
(0.999883 -3.25067e-06 0)
(0.999885 -3.16773e-06 0)
(0.999887 -3.08568e-06 0)
(0.999889 -3.00461e-06 0)
(0.999891 -2.92462e-06 0)
(0.999893 -2.8458e-06 0)
(0.999895 -2.76819e-06 0)
(0.999896 -2.69186e-06 0)
(0.999898 -2.61683e-06 0)
(0.9999 -2.54315e-06 0)
(0.999902 -2.47086e-06 0)
(0.999903 -2.40004e-06 0)
(0.999905 -2.33079e-06 0)
(0.999906 -2.26327e-06 0)
(0.999908 -2.19768e-06 0)
(0.999909 -2.1343e-06 0)
(0.999911 -2.07342e-06 0)
(0.999912 -2.0154e-06 0)
(0.999913 -1.96059e-06 0)
(0.999915 -1.90932e-06 0)
(0.999916 -1.86186e-06 0)
(0.999917 -1.81836e-06 0)
(0.999918 -1.77882e-06 0)
(0.999919 -1.74305e-06 0)
(0.999921 -1.71065e-06 0)
(0.999922 -1.68102e-06 0)
(0.999923 -1.6534e-06 0)
(0.999924 -1.62688e-06 0)
(0.999925 -1.60052e-06 0)
(0.999926 -1.57347e-06 0)
(0.999927 -1.54501e-06 0)
(0.999928 -1.51468e-06 0)
(0.999929 -1.48239e-06 0)
(0.99993 -1.44836e-06 0)
(0.999931 -1.41322e-06 0)
(0.999932 -1.3779e-06 0)
(0.999933 -1.34354e-06 0)
(0.999934 -1.31139e-06 0)
(0.999935 -1.28267e-06 0)
(0.999935 -1.25848e-06 0)
(0.999936 -1.23963e-06 0)
(0.999937 -1.22662e-06 0)
(0.999938 -1.21961e-06 0)
(0.999939 -1.21838e-06 0)
(0.99994 -1.2224e-06 0)
(0.99994 -1.23088e-06 0)
(0.999941 -1.24286e-06 0)
(0.999942 -1.25727e-06 0)
(0.999943 -1.27299e-06 0)
(0.999944 -1.28897e-06 0)
(0.999945 -1.30423e-06 0)
(0.999945 -1.31793e-06 0)
(0.999946 -1.32937e-06 0)
(0.999947 -1.33803e-06 0)
(0.999948 -1.34352e-06 0)
(0.999949 -1.34564e-06 0)
(0.99995 -1.34429e-06 0)
(0.999951 -1.33949e-06 0)
(0.999952 -1.33138e-06 0)
(0.999953 -1.32015e-06 0)
(0.999953 -1.30604e-06 0)
(0.999954 -1.28935e-06 0)
(0.999955 -1.27036e-06 0)
(0.999956 -1.2494e-06 0)
(0.999957 -1.22678e-06 0)
(0.999958 -1.20279e-06 0)
(0.999958 -1.17772e-06 0)
(0.999959 -1.15183e-06 0)
(0.99996 -1.12536e-06 0)
(0.999961 -1.09853e-06 0)
(0.999961 -1.07153e-06 0)
(0.999962 -1.04453e-06 0)
(0.999963 -1.01768e-06 0)
(0.999964 -9.91089e-07 0)
(0.999964 -9.64874e-07 0)
(0.999965 -9.39119e-07 0)
(0.999965 -9.13893e-07 0)
(0.999966 -8.89252e-07 0)
(0.999967 -8.6524e-07 0)
(0.999967 -8.41888e-07 0)
(0.999968 -8.19219e-07 0)
(0.999968 -7.97245e-07 0)
(0.999969 -7.75973e-07 0)
(0.999969 -7.55405e-07 0)
(0.99997 -7.35535e-07 0)
(0.99997 -7.16356e-07 0)
(0.999971 -6.97854e-07 0)
(0.999971 -6.80016e-07 0)
(0.999972 -6.62825e-07 0)
(0.999972 -6.46263e-07 0)
(0.999973 -6.3031e-07 0)
(0.999973 -6.14945e-07 0)
(0.999973 -6.00148e-07 0)
(0.999974 -5.85898e-07 0)
(0.999974 -5.72173e-07 0)
(0.999975 -5.58953e-07 0)
(0.999975 -5.46216e-07 0)
(0.999975 -5.33943e-07 0)
(0.999976 -5.22112e-07 0)
(0.999976 -5.10705e-07 0)
(0.999976 -4.99702e-07 0)
(0.999977 -4.89086e-07 0)
(0.999977 -4.78838e-07 0)
(0.999977 -4.68942e-07 0)
(0.999978 -4.59381e-07 0)
(0.999978 -4.5014e-07 0)
(0.999978 -4.41204e-07 0)
(0.999978 -4.32558e-07 0)
(0.999979 -4.24189e-07 0)
(0.999979 -4.16084e-07 0)
(0.999979 -4.08229e-07 0)
(0.99998 -4.00615e-07 0)
(0.99998 -3.93228e-07 0)
(0.99998 -3.86059e-07 0)
(0.99998 -3.79097e-07 0)
(0.999981 -3.72333e-07 0)
(0.999981 -3.65758e-07 0)
(0.999981 -3.59362e-07 0)
(0.999981 -3.53138e-07 0)
(0.999982 -3.47077e-07 0)
(0.999982 -3.41173e-07 0)
(0.999982 -3.35417e-07 0)
(0.999982 -3.29805e-07 0)
(0.999982 -3.24328e-07 0)
(0.999983 -3.18982e-07 0)
(0.999983 -3.1376e-07 0)
(0.999983 -3.08657e-07 0)
(0.999983 -3.03669e-07 0)
(0.999983 -2.98789e-07 0)
(0.999984 -2.94015e-07 0)
(0.999984 -2.8934e-07 0)
(0.999984 -2.84761e-07 0)
(0.999984 -2.80275e-07 0)
(0.999984 -2.75877e-07 0)
(0.999985 -2.71565e-07 0)
(0.999985 -2.67334e-07 0)
(0.999985 -2.63181e-07 0)
(0.999985 -2.59104e-07 0)
(0.999985 -2.551e-07 0)
(0.999985 -2.51166e-07 0)
(0.999986 -2.47299e-07 0)
(0.999986 -2.43497e-07 0)
(0.999986 -2.39758e-07 0)
(0.999986 -2.36079e-07 0)
(0.999986 -2.32459e-07 0)
(0.999986 -2.28895e-07 0)
(0.999987 -2.25386e-07 0)
(0.999987 -2.21929e-07 0)
(0.999987 -2.18524e-07 0)
(0.999987 -2.15167e-07 0)
(0.999987 -2.11859e-07 0)
(0.999987 -2.08597e-07 0)
(0.999987 -2.0538e-07 0)
(0.999988 -2.02206e-07 0)
(0.999988 -1.99075e-07 0)
(0.999988 -1.95984e-07 0)
(0.999988 -1.92934e-07 0)
(0.999988 -1.89922e-07 0)
(0.999988 -1.86948e-07 0)
(0.999988 -1.84011e-07 0)
(0.999988 -1.8111e-07 0)
(0.999989 -1.78243e-07 0)
(0.999989 -1.75409e-07 0)
(0.999989 -1.72609e-07 0)
(0.999989 -1.69841e-07 0)
(0.999989 -1.67104e-07 0)
(0.999989 -1.64398e-07 0)
(0.999989 -1.61721e-07 0)
(0.999989 -1.59074e-07 0)
(0.999989 -1.56455e-07 0)
(0.99999 -1.53863e-07 0)
(0.99999 -1.51299e-07 0)
(0.99999 -1.4876e-07 0)
(0.99999 -1.46248e-07 0)
(0.99999 -1.43761e-07 0)
(0.99999 -1.41299e-07 0)
(0.99999 -1.3886e-07 0)
(0.99999 -1.36445e-07 0)
(0.99999 -1.34053e-07 0)
(0.99999 -1.31684e-07 0)
(0.999991 -1.29337e-07 0)
(0.999991 -1.27011e-07 0)
(0.999991 -1.24706e-07 0)
(0.999991 -1.22422e-07 0)
(0.999991 -1.20158e-07 0)
(0.999991 -1.17914e-07 0)
(0.999991 -1.1569e-07 0)
(0.999991 -1.13484e-07 0)
(0.999991 -1.11296e-07 0)
(0.999991 -1.09127e-07 0)
(0.999991 -1.06976e-07 0)
(0.999991 -1.04841e-07 0)
(0.999991 -1.02724e-07 0)
(0.999992 -1.00624e-07 0)
(0.999992 -9.85394e-08 0)
(0.999992 -9.6471e-08 0)
(0.999992 -9.44181e-08 0)
(0.999992 -9.23805e-08 0)
(0.999992 -9.03576e-08 0)
(0.999992 -8.83503e-08 0)
(0.999992 -8.63528e-08 0)
(0.999992 -8.43879e-08 0)
(0.999992 -8.23567e-08 0)
(0.999992 -8.06803e-08 0)
(0.999992 -7.75576e-08 0)
(-0.0161304 0.0568629 0)
(-0.0274322 -0.0201857 0)
(0.0413365 -0.133556 0)
(0.122245 -0.176626 0)
(0.208654 -0.143165 0)
(0.248616 -0.0662288 0)
(0.234267 -0.0252895 0)
(0.210773 -0.0138852 0)
(0.200667 -0.00870277 0)
(0.200853 -0.00413698 0)
(0.203792 -0.00251638 0)
(0.207255 -0.00451243 0)
(0.211811 -0.00853096 0)
(0.217758 -0.0130836 0)
(0.22495 -0.017459 0)
(0.233259 -0.0214703 0)
(0.242673 -0.0251444 0)
(0.253238 -0.0285589 0)
(0.265013 -0.031779 0)
(0.27806 -0.0348399 0)
(0.292417 -0.0377389 0)
(0.308076 -0.0404353 0)
(0.32497 -0.0428615 0)
(0.342967 -0.0449366 0)
(0.361877 -0.0465811 0)
(0.381459 -0.0477308 0)
(0.401433 -0.0483693 0)
(0.421537 -0.0485782 0)
(0.441599 -0.0484793 0)
(0.461512 -0.0481283 0)
(0.481166 -0.0475255 0)
(0.500422 -0.0466742 0)
(0.519151 -0.0456371 0)
(0.537311 -0.0445293 0)
(0.554937 -0.0434177 0)
(0.57207 -0.0423137 0)
(0.58874 -0.0412385 0)
(0.604984 -0.0402073 0)
(0.620835 -0.0392055 0)
(0.636305 -0.0382149 0)
(0.651394 -0.0372244 0)
(0.666097 -0.0362212 0)
(0.680401 -0.0351961 0)
(0.694293 -0.0341471 0)
(0.707759 -0.0330759 0)
(0.720787 -0.0319867 0)
(0.733372 -0.030886 0)
(0.745508 -0.0297809 0)
(0.757196 -0.0286784 0)
(0.768439 -0.0275847 0)
(0.779242 -0.026505 0)
(0.789614 -0.0254437 0)
(0.799562 -0.0244043 0)
(0.809096 -0.0233892 0)
(0.818228 -0.0224005 0)
(0.826969 -0.0214396 0)
(0.835331 -0.0205074 0)
(0.843324 -0.0196046 0)
(0.850963 -0.0187317 0)
(0.858258 -0.0178888 0)
(0.865222 -0.0170759 0)
(0.871866 -0.0162928 0)
(0.878204 -0.0155393 0)
(0.884247 -0.0148148 0)
(0.890006 -0.014119 0)
(0.895494 -0.0134512 0)
(0.90072 -0.0128108 0)
(0.905696 -0.0121971 0)
(0.910432 -0.0116095 0)
(0.914939 -0.011047 0)
(0.919227 -0.010509 0)
(0.923305 -0.00999475 0)
(0.927183 -0.00950337 0)
(0.930869 -0.00903409 0)
(0.934373 -0.00858613 0)
(0.937702 -0.00815871 0)
(0.940865 -0.00775106 0)
(0.94387 -0.00736241 0)
(0.946723 -0.00699204 0)
(0.949433 -0.0066392 0)
(0.952005 -0.00630321 0)
(0.954447 -0.00598338 0)
(0.956765 -0.00567903 0)
(0.958964 -0.00538954 0)
(0.961051 -0.00511426 0)
(0.963032 -0.0048526 0)
(0.964911 -0.00460397 0)
(0.966693 -0.00436778 0)
(0.968384 -0.00414348 0)
(0.969988 -0.00393054 0)
(0.971509 -0.00372841 0)
(0.972953 -0.00353659 0)
(0.974321 -0.00335458 0)
(0.97562 -0.00318189 0)
(0.976851 -0.00301807 0)
(0.978019 -0.00286267 0)
(0.979127 -0.00271525 0)
(0.980178 -0.00257539 0)
(0.981175 -0.00244271 0)
(0.98212 -0.00231682 0)
(0.983017 -0.00219735 0)
(0.983867 -0.00208396 0)
(0.984674 -0.00197632 0)
(0.985439 -0.00187411 0)
(0.986164 -0.00177706 0)
(0.986852 -0.00168488 0)
(0.987504 -0.00159731 0)
(0.988122 -0.00151414 0)
(0.988708 -0.00143514 0)
(0.989263 -0.00136011 0)
(0.989789 -0.00128887 0)
(0.990287 -0.00122124 0)
(0.99076 -0.00115708 0)
(0.991207 -0.00109623 0)
(0.991631 -0.00103855 0)
(0.992033 -0.000983893 0)
(0.992413 -0.000932139 0)
(0.992773 -0.000883155 0)
(0.993115 -0.000836816 0)
(0.993438 -0.000792998 0)
(0.993745 -0.000751583 0)
(0.994036 -0.000712454 0)
(0.994311 -0.000675498 0)
(0.994572 -0.000640607 0)
(0.99482 -0.000607675 0)
(0.995055 -0.000576601 0)
(0.995278 -0.000547288 0)
(0.99549 -0.000519642 0)
(0.995691 -0.000493573 0)
(0.995882 -0.000468994 0)
(0.996064 -0.000445823 0)
(0.996236 -0.000423978 0)
(0.996401 -0.000403382 0)
(0.996557 -0.000383961 0)
(0.996706 -0.000365642 0)
(0.996848 -0.000348356 0)
(0.996983 -0.000332037 0)
(0.997112 -0.000316621 0)
(0.997235 -0.000302047 0)
(0.997352 -0.000288259 0)
(0.997464 -0.0002752 0)
(0.997571 -0.000262821 0)
(0.997673 -0.000251074 0)
(0.997771 -0.000239914 0)
(0.997864 -0.000229301 0)
(0.997953 -0.000219196 0)
(0.998038 -0.000209565 0)
(0.99812 -0.000200377 0)
(0.998198 -0.000191604 0)
(0.998272 -0.00018322 0)
(0.998344 -0.000175201 0)
(0.998412 -0.000167528 0)
(0.998477 -0.00016018 0)
(0.99854 -0.000153142 0)
(0.998599 -0.000146397 0)
(0.998656 -0.000139933 0)
(0.998711 -0.000133736 0)
(0.998763 -0.000127796 0)
(0.998812 -0.000122101 0)
(0.99886 -0.000116641 0)
(0.998905 -0.000111409 0)
(0.998949 -0.000106395 0)
(0.99899 -0.000101591 0)
(0.99903 -9.69891e-05 0)
(0.999067 -9.2583e-05 0)
(0.999103 -8.83653e-05 0)
(0.999138 -8.4329e-05 0)
(0.999171 -8.04678e-05 0)
(0.999202 -7.67753e-05 0)
(0.999232 -7.32453e-05 0)
(0.99926 -6.98717e-05 0)
(0.999287 -6.66487e-05 0)
(0.999313 -6.35707e-05 0)
(0.999338 -6.06321e-05 0)
(0.999361 -5.78274e-05 0)
(0.999384 -5.51515e-05 0)
(0.999405 -5.25992e-05 0)
(0.999426 -5.01656e-05 0)
(0.999445 -4.78459e-05 0)
(0.999464 -4.56356e-05 0)
(0.999482 -4.35301e-05 0)
(0.999498 -4.15252e-05 0)
(0.999515 -3.96166e-05 0)
(0.99953 -3.78004e-05 0)
(0.999545 -3.60727e-05 0)
(0.999559 -3.44298e-05 0)
(0.999572 -3.2868e-05 0)
(0.999585 -3.1384e-05 0)
(0.999597 -2.99745e-05 0)
(0.999609 -2.86361e-05 0)
(0.99962 -2.7366e-05 0)
(0.99963 -2.6161e-05 0)
(0.999641 -2.50184e-05 0)
(0.99965 -2.39354e-05 0)
(0.99966 -2.29094e-05 0)
(0.999669 -2.19378e-05 0)
(0.999677 -2.10183e-05 0)
(0.999685 -2.01483e-05 0)
(0.999693 -1.93257e-05 0)
(0.999701 -1.85482e-05 0)
(0.999708 -1.78137e-05 0)
(0.999715 -1.71202e-05 0)
(0.999722 -1.64657e-05 0)
(0.999728 -1.58482e-05 0)
(0.999734 -1.52659e-05 0)
(0.99974 -1.47169e-05 0)
(0.999746 -1.41997e-05 0)
(0.999751 -1.37124e-05 0)
(0.999757 -1.32534e-05 0)
(0.999762 -1.28212e-05 0)
(0.999767 -1.24142e-05 0)
(0.999772 -1.2031e-05 0)
(0.999777 -1.167e-05 0)
(0.999781 -1.133e-05 0)
(0.999786 -1.10095e-05 0)
(0.99979 -1.07072e-05 0)
(0.999794 -1.04219e-05 0)
(0.999798 -1.01524e-05 0)
(0.999802 -9.8974e-06 0)
(0.999806 -9.65584e-06 0)
(0.99981 -9.42659e-06 0)
(0.999814 -9.20859e-06 0)
(0.999817 -9.0008e-06 0)
(0.999821 -8.80226e-06 0)
(0.999824 -8.61202e-06 0)
(0.999828 -8.4292e-06 0)
(0.999831 -8.25293e-06 0)
(0.999834 -8.08243e-06 0)
(0.999838 -7.91695e-06 0)
(0.999841 -7.75578e-06 0)
(0.999844 -7.59829e-06 0)
(0.999847 -7.44386e-06 0)
(0.99985 -7.29198e-06 0)
(0.999853 -7.14216e-06 0)
(0.999855 -6.99399e-06 0)
(0.999858 -6.84711e-06 0)
(0.999861 -6.70123e-06 0)
(0.999864 -6.55613e-06 0)
(0.999866 -6.41164e-06 0)
(0.999869 -6.26768e-06 0)
(0.999871 -6.1242e-06 0)
(0.999874 -5.98125e-06 0)
(0.999876 -5.83891e-06 0)
(0.999878 -5.69729e-06 0)
(0.99988 -5.55657e-06 0)
(0.999883 -5.41693e-06 0)
(0.999885 -5.27858e-06 0)