/*--------------------------------*- C++ -*----------------------------------*\
| =========                 |                                                 |
| \\      /  F ield         | OpenFOAM: The Open Source CFD Toolbox           |
|  \\    /   O peration     | Version:  v2006                                 |
|   \\  /    A nd           | Website:  www.openfoam.com                      |
|    \\/     M anipulation  |                                                 |
\*---------------------------------------------------------------------------*/
FoamFile
{
    version     2.0;
    format      ascii;
    class       surfaceScalarField;
    location    "16";
    object      alphaPhi0.water;
}
// * * * * * * * * * * * * * * * * * * * * * * * * * * * * * * * * * * * * * //

dimensions      [0 3 -1 0 0 0 0];
oriented        oriented;


internalField   nonuniform List<scalar> 
299200
(
0.00151958
-0.00151958
0.00334991
-0.00183033
0.00514802
-0.00179812
0.00692807
-0.00178005
0.00869817
-0.0017701
0.0104516
-0.00175342
0.0121823
-0.00173069
0.0138882
-0.00170596
0.0155698
-0.00168156
0.0172282
-0.00165841
0.018865
-0.00163676
0.0204815
-0.0016165
0.0220788
-0.00159731
0.0236576
-0.00157884
0.0252183
-0.0015607
0.0267607
-0.00154243
0.0282843
-0.00152354
0.029788
-0.00150368
0.0312706
-0.00148261
0.0327307
-0.00146017
0.0341671
-0.00143634
0.0355784
-0.00141127
0.0369636
-0.00138527
0.0383223
-0.00135872
0.0396544
-0.00133206
0.04096
-0.00130564
0.0422397
-0.00127969
0.0434939
-0.00125415
0.0447225
-0.00122863
0.0459249
-0.00120243
0.0470995
-0.00117459
0.0482437
-0.00114414
0.049354
-0.00111036
0.0504271
-0.00107302
0.0514596
-0.00103254
0.0524496
-0.000990051
0.053397
-0.000947347
0.0543035
-0.000906483
0.0551727
-0.000869195
0.056009
-0.000836298
0.0568164
-0.000807385
0.0575974
-0.000781051
0.0583528
-0.000755415
0.0590815
-0.000728724
0.0597813
-0.000699779
0.0604494
-0.000668078
0.0610831
-0.000633698
0.0616801
-0.000597028
0.0622386
-0.000558496
0.062757
-0.000518427
0.0632341
-0.000477046
0.0636687
-0.000434599
0.0640602
-0.000391486
0.0644085
-0.000348325
0.0647144
-0.000305915
0.0649795
-0.000265121
0.0652063
-0.000226733
0.0653976
-0.000191352
0.065557
-0.000159339
0.0656878
-0.000130833
0.0657936
-0.000105804
0.0658777
-8.41097e-05
0.0659433
-6.5558e-05
0.0659931
-4.98712e-05
0.0660299
-3.67176e-05
0.0660558
-2.5983e-05
0.0660728
-1.69862e-05
0.0660818
-8.94288e-06
0.0660822
-4.64662e-07
0.0660725
9.74462e-06
0.0660517
2.07463e-05
0.0660187
3.30893e-05
0.0659717
4.69658e-05
0.0659097
6.20072e-05
0.0658322
7.74702e-05
0.0657396
9.25857e-05
0.0656328
0.000106786
0.0655131
0.000119773
0.0653816
0.000131471
0.0652397
0.000141932
0.0650884
0.000151236
0.064929
0.000159446
0.0647624
0.000166621
0.0645895
0.000172866
0.0644111
0.00017838
0.0642276
0.000183513
0.0640388
0.000188824
0.0638436
0.00019513
0.0636401
0.000203512
0.0634249
0.000215278
0.063193
0.000231832
0.0629387
0.000254342
0.0626556
0.000283093
0.062339
0.000316638
0.0619877
0.000351272
0.0616063
0.000381401
0.061205
0.000401244
0.0607978
0.000407242
0.0603956
0.000402205
0.0600064
0.000389217
0.0596342
0.000372191
0.0592788
0.000355377
0.0589369
0.000341855
0.0586037
0.000333261
0.0582739
0.000329763
0.0579436
0.000330309
0.0576105
0.000333089
0.0572743
0.000336202
0.0569361
0.000338185
0.0565971
0.000339
0.0562568
0.000340299
0.0559126
0.00034425
0.0555605
0.000352089
0.0551978
0.000362695
0.0548245
0.000373323
0.05444
0.0003845
0.0540319
0.000408051
0.053561
0.000470971
0.0529595
0.000601417
0.0521684
0.000791142
0.0511978
0.000970573
0.0501624
0.0010354
0.0492015
0.000960884
0.0484288
0.000772757
0.0478683
0.000560505
0.0474572
0.000411038
0.0471022
0.000355062
0.0467269
0.000375244
0.0462952
0.000431786
0.0458118
0.000483335
0.0452844
0.000527448
0.0447172
0.000567206
0.0441082
0.000609011
0.0434565
0.000651618
0.0427712
0.000685328
0.0420719
0.000699335
0.041382
0.00068985
0.0407139
0.000668134
0.0400713
0.000642608
0.0394509
0.000620345
0.0388458
0.000605133
0.0382487
0.000597126
0.0376536
0.000595077
0.0370562
0.000597428
0.0364533
0.000602855
0.0358426
0.000610709
0.0352232
0.000619449
0.0345961
0.000627016
0.0339649
0.000631254
0.0333345
0.000630401
0.0327083
0.000626196
0.0320897
0.000618592
0.0314821
0.000607603
0.0308886
0.000593523
0.0303118
0.000576754
0.0297539
0.000557958
0.0292158
0.000538069
0.0286977
0.000518113
0.0281987
0.00049902
0.0277172
0.0004815
0.0272512
0.000465921
0.0267991
0.000452171
0.0263594
0.000439654
0.025932
0.000427462
0.0255173
0.000414694
0.0251165
0.000400769
0.024731
0.000385472
0.0243622
0.00036878
0.0240114
0.00035084
0.0236795
0.0003319
0.0233673
0.000312174
0.0230756
0.000291755
0.0228049
0.000270689
0.0225554
0.000249494
0.0223256
0.000229819
0.0221112
0.000214405
0.0219039
0.000207262
0.02169
0.000213857
0.0214518
0.000238265
0.021181
0.000270749
0.0208707
0.000310361
0.0205242
0.000346507
0.0201583
0.000365897
0.019797
0.000361245
0.0194628
0.00033422
0.0191791
0.000283685
0.0189594
0.000219756
0.0188039
0.000155472
0.0187007
0.000103214
0.0186289
7.17775e-05
0.0185694
5.94466e-05
0.0185164
5.30783e-05
0.0184801
3.62367e-05
0.0184773
2.85918e-06
0.0185139
-3.66601e-05
0.0185703
-5.63321e-05
0.0186003
-2.99961e-05
0.018548
5.22299e-05
0.0183906
0.000157435
0.0181299
0.000260665
0.0177755
0.000354437
0.0173373
0.000438183
0.0168232
0.000514117
0.0162443
0.00057894
0.0156171
0.000627151
0.0149602
0.000656876
0.0142926
0.000667669
0.0136263
0.000666219
0.0129654
0.000660906
0.0123133
0.000652111
0.0116727
0.000640578
0.0110477
0.000625
0.0104444
0.000603355
0.00986933
0.000575057
0.00932725
0.000542086
0.00881858
0.000508665
0.00833926
0.000479318
0.00788244
0.000456825
0.00744136
0.000441076
0.00701109
0.000430274
0.00658949
0.000421597
0.00617467
0.000414821
0.00576149
0.000413178
0.0053389
0.000422598
0.00489048
0.00044841
0.00439824
0.000492243
0.00385002
0.000548221
0.00324215
0.000607867
0.00257459
0.000667564
0.00184059
0.000734004
0.00102139
0.000819195
9.56385e-05
0.000925753
-0.000939681
0.00103532
-0.00205046
0.00111077
-0.00316555
0.0011151
-0.00420585
0.0010403
-0.00511121
0.000905364
-0.00584276
0.000731549
-0.00639674
0.000553982
-0.00679179
0.000395047
-0.00705577
0.000263986
-0.00721615
0.00016037
-0.00729379
7.76426e-05
-0.007298
4.21054e-06
-0.00724507
-5.29294e-05
-0.00715026
-9.48104e-05
-0.00702877
-0.000121492
-0.0068895
-0.000139263
-0.00673715
-0.00015235
-0.00657418
-0.00016297
-0.00640198
-0.000172202
-0.00622146
-0.00018052
-0.00603336
-0.000188097
-0.00583839
-0.000194972
-0.00563724
-0.000201156
-0.00543057
-0.000206669
-0.0052191
-0.000211471
-0.00500336
-0.000215737
-0.00478384
-0.00021952
-0.00456097
-0.000222867
-0.00433516
-0.000225816
-0.00410671
-0.000228443
-0.0038759
-0.000230811
-0.00364303
-0.000232872
-0.00340848
-0.000234547
-0.00317274
-0.000235744
-0.0029362
-0.000236545
-0.00269939
-0.0002368
-0.00246304
-0.000236355
-0.0022277
-0.000235343
-0.00199426
-0.000233438
-0.0017632
-0.000231061
-0.00153507
-0.000228125
-0.00131117
-0.000223902
-0.00109142
-0.000219751
-0.000876558
-0.000214862
-0.000667034
-0.000209524
-0.000463256
-0.000203778
-0.000265648
-0.000197608
-7.46152e-05
-0.000191033
0.000109297
-0.000183912
0.00028679
-0.000177493
0.000456539
-0.000169749
0.000618519
-0.00016198
0.000772736
-0.000154216
0.00091876
-0.000146025
0.00105664
-0.000137877
0.00118587
-0.000129234
0.00130713
-0.000121256
0.00141961
-0.000112487
0.0015235
-0.000103886
0.00161838
-9.48765e-05
0.00170471
-8.63301e-05
0.00178243
-7.77236e-05
0.00185142
-6.89904e-05
0.00191174
-6.0314e-05
0.00196376
-5.20238e-05
0.00200752
-4.37575e-05
0.00204299
-3.54724e-05
0.00207045
-2.74648e-05
0.00209001
-1.95524e-05
0.00210186
-1.18566e-05
0.00210621
-4.34664e-06
0.00210345
2.76272e-06
0.00209346
9.98591e-06
0.00207643
1.70294e-05
0.00205252
2.39157e-05
0.00202193
3.05897e-05
0.00198478
3.71493e-05
0.0019412
4.35791e-05
0.00189123
4.99715e-05
0.00183509
5.61364e-05
0.00177279
6.22969e-05
0.00170441
6.83781e-05
0.00163008
7.43327e-05
0.00154987
8.02096e-05
0.00146394
8.59317e-05
0.00137247
9.14694e-05
0.00127564
9.68348e-05
0.00117375
0.000101889
0.00106708
0.000106666
0.00095612
0.000110962
0.000841161
0.000114959
0.000722819
0.000118341
0.000601641
0.000121179
0.000477816
0.000123825
0.000353006
0.000124809
0.000226521
0.000126485
9.99792e-05
0.000126542
-2.62554e-05
0.000126235
-0.00015123
0.000124975
-0.000274526
0.000123296
-0.000394801
0.000120275
-0.000512109
0.000117308
-0.000625473
0.000113364
-0.000734753
0.00010928
-0.000839419
0.000104666
-0.000938746
9.93272e-05
-0.00103276
9.40132e-05
-0.00112052
8.77583e-05
-0.00120145
8.09327e-05
-0.00127537
7.3919e-05
-0.00134068
6.53087e-05
-0.00139531
5.46317e-05
-0.00143591
4.06044e-05
-0.00145976
2.38443e-05
-0.00146618
6.42501e-06
-0.00145755
-8.63823e-06
-0.00143763
-1.99169e-05
-0.00140923
-2.83991e-05
-0.00137456
-3.46698e-05
-0.00133552
-3.90373e-05
-0.00129199
-4.35292e-05
-0.00124118
-5.08083e-05
-0.00117774
-6.34404e-05
-0.00109665
-8.10933e-05
-0.000996626
-0.000100025
-0.000880019
-0.000116607
-0.000752457
-0.000127562
-0.000619506
-0.000132951
-0.00048514
-0.000134366
-0.000351652
-0.000133488
-0.000219978
-0.000131674
-9.01567e-05
-0.000129821
3.83219e-05
-0.000128479
0.000165543
-0.000127221
0.000292406
-0.000126863
0.000417942
-0.000125535
0.000538277
-0.000120336
0.000647107
-0.00010883
0.000733767
-8.66599e-05
0.000786055
-5.22884e-05
0.000794437
-8.38125e-06
0.00076025
3.41865e-05
0.000695267
6.4983e-05
0.000621387
7.38803e-05
0.000565304
5.60829e-05
0.00054791
1.73939e-05
0.000575274
-2.7364e-05
0.000638116
-6.28414e-05
0.000720358
-8.22425e-05
0.000805399
-8.50409e-05
0.000881539
-7.61402e-05
0.000943904
-6.23644e-05
0.000991721
-4.78174e-05
0.00102758
-3.58618e-05
0.00105637
-2.87854e-05
0.00108401
-2.76407e-05
0.00111705
-3.30414e-05
0.00116289
-4.58353e-05
0.0012303
-6.74151e-05
0.00133067
-0.000100374
0.00147503
-0.000144355
0.00166685
-0.000191818
0.00189497
-0.000228122
0.00213713
-0.000242161
0.00237437
-0.000237236
0.00259808
-0.000223714
0.00280803
-0.000209949
0.00300592
-0.000197895
0.00319205
-0.000186122
0.00336602
-0.000173979
0.00352797
-0.000161947
0.00367895
-0.00015098
0.00382081
-0.000141856
0.00395582
-0.000135016
0.00408632
-0.000130495
0.00421431
-0.000127988
0.00434124
-0.000126932
0.00446788
-0.000126641
0.00459438
-0.0001265
0.00472061
-0.000126227
0.0048461
-0.000125499
0.00497013
-0.000124029
0.00509189
-0.000121753
0.00521064
-0.00011875
0.0053257
-0.000115065
0.0054366
-0.000110903
0.00554293
-0.000106331
0.00564445
-0.00010152
0.00574086
-9.64069e-05
0.00583204
-9.11743e-05
0.00591807
-8.6032e-05
0.0059991
-8.10282e-05
0.00607555
-7.64595e-05
0.00614915
-7.35913e-05
0.00622141
-7.22589e-05
0.00629582
-7.44125e-05
0.00637739
-8.15717e-05
0.00646707
-8.96782e-05
0.0065633
-9.62372e-05
0.00666444
-0.000101134
0.00677101
-0.000106572
0.0068855
-0.000114492
0.00700869
-0.000123184
0.00714247
-0.000133784
0.00728944
-0.00014697
0.00745225
-0.000162811
0.00763354
-0.000181291
0.00783598
-0.000202441
0.00806225
-0.000226264
0.00831478
-0.000252534
0.00859562
-0.000280833
0.00890617
-0.000310551
0.00924701
-0.000340843
0.00961788
-0.000370868
0.0100169
-0.000399067
0.0104411
-0.000424185
0.0108862
-0.000445121
0.0113467
-0.000460442
0.0118157
-0.000468977
0.0122857
-0.000470025
0.0127493
-0.000463572
0.0131988
-0.000449487
0.013627
-0.000428207
0.0140275
-0.000400579
0.014395
-0.000367435
0.0147255
-0.000330574
0.0150167
-0.000291153
0.0152672
-0.000250468
0.0154769
-0.000209749
0.0156466
-0.000169717
0.0157776
-0.000130929
0.0158712
-9.36214e-05
0.0159289
-5.76752e-05
0.0159515
-2.25889e-05
0.0159396
1.18714e-05
0.0158903
4.93173e-05
0.0158031
8.71636e-05
0.0156763
0.00012679
0.0155078
0.00016852
0.0152953
0.00021252
0.0150367
0.000258536
0.0147308
0.00030589
0.0143771
0.000353747
0.0139758
0.000401264
0.0135286
0.000447251
0.0130378
0.000490756
0.0125068
0.000531067
0.0119393
0.000567432
0.01134
0.000599279
0.010714
0.00062608
0.0100662
0.000647748
0.00940208
0.000664136
0.00872705
0.000675028
0.00804648
0.000680571
0.00736562
0.00068086
0.0066896
0.000676019
0.00602324
0.000666364
0.0053712
0.000652042
0.00473853
0.000632664
0.00413035
0.000608185
0.00355171
0.000578643
0.00300577
0.000545932
0.00249157
0.000514199
0.00200376
0.00048782
0.00154239
0.000461365
0.0011184
0.000423988
0.000663848
0.000454553
0.000663848
0.00126121
-0.00278078
0.00276438
-0.0033335
0.00421197
-0.00324571
0.00562062
-0.0031887
0.00699783
-0.00314731
0.00833722
-0.00309281
0.00963735
-0.00303081
0.0109022
-0.00297081
0.0121386
-0.00291793
0.0133541
-0.00287398
0.0145565
-0.00283914
0.0157527
-0.00281268
0.0169485
-0.00279306
0.0181477
-0.0027781
0.0193524
-0.00276539
0.0205623
-0.00275235
0.0217756
-0.00273681
0.0229891
-0.00271718
0.0241991
-0.00269257
0.0254018
-0.00266288
0.0265941
-0.00262868
0.0277739
-0.00259109
0.0289402
-0.00255153
0.0300927
-0.00251127
0.0312319
-0.0024712
0.0323577
-0.00243151
0.0334697
-0.00239162
0.0345656
-0.00235011
0.0356418
-0.00230484
0.0366927
-0.00225334
0.0377115
-0.00219338
0.0386911
-0.00212368
0.0396254
-0.00204472
0.0405116
-0.00195922
0.041351
-0.00187194
0.0421498
-0.00178881
0.0429178
-0.00171531
0.043666
-0.00165473
0.0444038
-0.00160695
0.045136
-0.00156849
0.0458623
-0.00153375
0.0465782
-0.00149691
0.0472765
-0.00145372
0.04795
-0.00140227
0.0485932
-0.00134299
0.049203
-0.0012778
0.0497784
-0.00120911
0.0503204
-0.00113906
0.0508309
-0.00106898
0.0513119
-0.000999452
0.0517653
-0.000930444
0.0521924
-0.000861717
0.052594
-0.000793081
0.0529702
-0.000724538
0.0533206
-0.000656261
0.053644
-0.000588494
0.0539387
-0.000521459
0.0542027
-0.00045533
0.0544336
-0.000390297
0.0546295
-0.000326689
0.0547887
-0.000265011
0.0549105
-0.000205907
0.0549951
-0.000150201
0.0550441
-9.88066e-05
0.0550595
-5.21403e-05
0.055044
-1.05486e-05
0.0549989
2.81804e-05
0.0549262
6.37226e-05
0.0548282
9.75719e-05
0.0547069
0.000131018
0.0545631
0.000164564
0.0543983
0.000197911
0.0542149
0.000230329
0.054016
0.00026093
0.0538045
0.000288943
0.0535831
0.000313952
0.053354
0.000335972
0.0531184
0.000355314
0.0528775
0.00037236
0.0526321
0.000387377
0.0523828
0.000400484
0.0521305
0.000411761
0.0518757
0.000421421
0.0516186
0.000429944
0.051359
0.000438062
0.0510959
0.000446617
0.0508283
0.000456399
0.0505553
0.000468074
0.0502766
0.00048222
0.0499925
0.000499425
0.0497039
0.000520421
0.0494119
0.000546294
0.0491163
0.000578699
0.0488132
0.000619817
0.0484928
0.000671598
0.04814
0.000734219
0.0477367
0.000804554
0.0472681
0.000875867
0.0467322
0.000938105
0.0461384
0.00098296
0.0455021
0.00100856
0.0448407
0.00101677
0.0441711
0.00101138
0.043509
0.000995412
0.0428692
0.000969574
0.0422671
0.000932369
0.0417188
0.00088142
0.0412398
0.00081519
0.0408432
0.000734816
0.0405369
0.000645279
0.0403216
0.000555609
0.0401879
0.00047789
0.0401163
0.000423688
0.0400811
0.000397919
0.0400628
0.000391604
0.040067
0.00038033
0.0401338
0.000341267
0.0403141
0.000290684
0.0406078
0.000307678
0.0409006
0.000498373
0.0409546
0.000916528
0.0404925
0.00149754
0.0394253
0.00202802
0.0378265
0.00237159
0.0359216
0.00246543
0.033997
0.00233561
0.0322952
0.00205685
0.0309584
0.00171205
0.0299905
0.0013997
0.0293291
0.00114471
0.0289068
0.000949821
0.0286554
0.000818523
0.0285043
0.00076019
0.028378
0.000777884
0.0282071
0.000856237
0.0279419
0.000964571
0.0275617
0.00106999
0.0270892
0.00114065
0.0265601
0.00117168
0.0260122
0.00116832
0.0254759
0.00114136
0.0249711
0.00110192
0.0245068
0.00105938
0.0240825
0.0010218
0.0236901
0.000995247
0.0233182
0.000982534
0.022954
0.000983731
0.0225845
0.000996452
0.0221986
0.00101722
0.0217897
0.00103926
0.0213574
0.00105853
0.020904
0.00107195
0.0204336
0.00107798
0.019951
0.0010762
0.019461
0.00106674
0.0189688
0.00105016
0.0184794
0.0010274
0.0179979
0.000999639
0.017529
0.000967947
0.0170774
0.000933117
0.0166477
0.000895568
0.0162445
0.000855403
0.0158716
0.000812569
0.0155319
0.000767142
0.0152267
0.000719842
0.0149549
0.000672594
0.0147117
0.000628635
0.0144888
0.000591731
0.0142747
0.000564934
0.0140565
0.000550084
0.0138211
0.000547639
0.0135567
0.000556115
0.0132561
0.000571286
0.0129194
0.000586191
0.0125565
0.000592695
0.012187
0.00058395
0.0118357
0.000558531
0.0115295
0.000520081
0.0112839
0.000483851
0.0110819
0.00047273
0.0109037
0.000488629
0.010725
0.000525155
0.0105161
0.000574782
0.0102756
0.000601775
0.0100164
0.000593429
0.00975284
0.000547224
0.0095007
0.0004719
0.00926997
0.000386199
0.00905533
0.000317856
0.00883093
0.000296175
0.00855938
0.000330996
0.00818721
0.000425253
0.00769265
0.000530792
0.00709725
0.00059826
0.00644689
0.000613697
0.0057645
0.000626059
0.00504231
0.000692192
0.00426445
0.000830095
0.00343514
0.000986742
0.00259681
0.001099
0.00180781
0.00114344
0.00110696
0.00113903
0.000500104
0.00112097
-3.31916e-05
0.00111224
-0.00052246
0.00111642
-0.000994389
0.00112881
-0.0014619
0.00113518
-0.0019297
0.00113402
-0.0023971
0.00112831
-0.00286429
0.0011193
-0.00333041
0.0011067
-0.0037945
0.00108908
-0.00425563
0.00106448
-0.00471242
0.00103186
-0.00516266
0.000992317
-0.00560308
0.000949088
-0.00603019
0.000906425
-0.00644147
0.000868112
-0.00683674
0.000836341
-0.00721789
0.000811427
-0.00758821
0.000791915
-0.00795015
0.000776761
-0.0083039
0.000766931
-0.00864681
0.000765503
-0.00897382
0.000775426
-0.00927761
0.000796036
-0.00954734
0.00081795
-0.00976303
0.000823553
-0.00989448
0.000799013
-0.00990626
0.000745785
-0.00976767
0.000680601
-0.00946368
0.000621772
-0.0089976
0.000569232
-0.00839242
0.000505594
-0.00768583
0.000408506
-0.00692093
0.000275401
-0.00613755
0.000121978
-0.00538352
-2.24817e-05
-0.00469127
-0.000138262
-0.00407536
-0.00022087
-0.00353313
-0.000278238
-0.00305578
-0.000316983
-0.00263534
-0.000342799
-0.00227132
-0.00035981
-0.00195413
-0.00037012
-0.00167135
-0.000377583
-0.00140828
-0.000384566
-0.00115539
-0.000392151
-0.000907313
-0.000400427
-0.000661273
-0.00040901
-0.000416066
-0.000417409
-0.000171403
-0.000425183
7.2514e-05
-0.000432015
0.000315252
-0.000437711
0.000556266
-0.00044217
0.000794969
-0.000445372
0.0010306
-0.000447103
0.00126261
-0.000447748
0.00149015
-0.00044706
0.00171242
-0.000445139
0.00192842
-0.000441812
0.00213746
-0.000437487
0.00233858
-0.000431925
0.00253092
-0.000425215
0.00271394
-0.000417571
0.00288667
-0.00040847
0.00304899
-0.000398862
0.00320049
-0.000388299
0.00334125
-0.000377114
0.00347127
-0.000365367
0.00359026
-0.000352426
0.00369893
-0.000339737
0.00379746
-0.000326648
0.00388675
-0.000313191
0.00396661
-0.000299617
0.00403778
-0.000286025
0.00410048
-0.000272227
0.00415508
-0.000258377
0.00420198
-0.00024451
0.00424155
-0.000230605
0.00427439
-0.000216754
0.0043001
-0.000203201
0.00431928
-0.000188923
0.00433248
-0.000175189
0.00433962
-0.000161357
0.0043411
-0.000147497
0.00433689
-0.000133666
0.00432755
-0.000119894
0.00431269
-0.000106403
0.00429303
-9.28237e-05
0.00426826
-7.91209e-05
0.00423986
-6.64738e-05
0.00420683
-5.32941e-05
0.00416956
-4.04538e-05
0.00412891
-2.83435e-05
0.00408421
-1.56106e-05
0.00403613
-3.95028e-06
0.00398482
7.55708e-06
0.0039307
1.86411e-05
0.00387384
2.9403e-05
0.0038143
3.99852e-05
0.00375237
5.00745e-05
0.00368811
5.99115e-05
0.00362154
6.9329e-05
0.00355295
7.85775e-05
0.00348231
8.76727e-05
0.00340973
9.64935e-05
0.00333515
0.000105172
0.00325866
0.000113638
0.00318019
0.000122048
0.00309968
0.000130482
0.00301729
0.000138529
0.00293304
0.00014654
0.0028472
0.000154218
0.00275979
0.000161744
0.0026711
0.000168898
0.00258146
0.000175572
0.00249116
0.000181778
0.00240058
0.000187411
0.00231019
0.000192274
0.00222042
0.000196435
0.00213156
0.000199829
0.00204437
0.000202147
0.00195917
0.00020354
0.00187652
0.000203826
0.00179737
0.000202982
0.00172055
0.000201631
0.0016484
0.000198636
0.00158038
0.000194562
0.00151723
0.000189376
0.00145896
0.000183246
0.00140659
0.000175664
0.00135882
0.000168054
0.00131755
0.000158576
0.00128307
0.000147839
0.00125545
0.000136901
0.00123571
0.000124407
0.00122353
0.000111508
0.0012215
9.6042e-05
0.00122969
7.95668e-05
0.00124898
6.16454e-05
0.00128154
4.13612e-05
0.00132757
1.92765e-05
0.00138752
-5.32002e-06
0.00145874
-3.06186e-05
0.00153848
-5.589e-05
0.00162418
-7.92737e-05
0.00171653
-0.000100997
0.00181769
-0.000121077
0.00193029
-0.000140998
0.00205515
-0.000159527
0.00219464
-0.000178523
0.00234851
-0.000197399
0.00251596
-0.000218261
0.00268882
-0.000236301
0.0028553
-0.000247571
0.00300448
-0.000249212
0.00312937
-0.00024149
0.00322976
-0.000227958
0.00331001
-0.000213201
0.00337494
-0.000199293
0.00342705
-0.000185598
0.00346687
-0.000171492
0.00349353
-0.000156486
0.00350494
-0.000139888
0.00349932
-0.000121597
0.00347485
-0.000102392
0.003433
-8.36889e-05
0.00338038
-6.77175e-05
0.00332937
-5.78214e-05
0.00329993
-5.72157e-05
0.003317
-6.93602e-05
0.00340597
-9.73498e-05
0.00358418
-0.000144023
0.00385969
-0.000210531
0.00422458
-0.000291009
0.0046544
-0.000373736
0.00510852
-0.000436725
0.00554687
-0.000465718
0.00593943
-0.000455395
0.0062715
-0.000414314
0.00654463
-0.000358177
0.00677144
-0.000302944
0.00697073
-0.000261661
0.00716122
-0.000238305
0.00735894
-0.000233577
0.00757575
-0.000245596
0.00781981
-0.000271703
0.00809227
-0.000305497
0.00839099
-0.000344559
0.00871051
-0.000386937
0.00904028
-0.000430141
0.00936381
-0.000467882
0.00966266
-0.000490675
0.00992359
-0.000489048
0.0101445
-0.000463056
0.0103321
-0.000424868
0.0104968
-0.000388386
0.0106431
-0.000356216
0.010772
-0.000326853
0.0108837
-0.000297801
0.0109797
-0.00026994
0.011063
-0.000245265
0.0111373
-0.00022529
0.011206
-0.000210607
0.0112719
-0.000200906
0.0113366
-0.000195131
0.0114004
-0.000191799
0.0114628
-0.000189406
0.0115229
-0.000186704
0.0115794
-0.000183029
0.0116309
-0.00017771
0.0116764
-0.000170977
0.0117153
-0.000162901
0.0117473
-0.000153811
0.0117726
-0.000144003
0.0117911
-0.000133597
0.011803
-0.00012276
0.0118083
-0.000111635
0.0118071
-0.000100318
0.0117993
-8.86757e-05
0.0117851
-7.69074e-05
0.0117644
-6.5307e-05
0.0117372
-5.38996e-05
0.0117036
-4.28569e-05
0.0116629
-3.28476e-05
0.0116141
-2.35295e-05
0.0115545
-1.48098e-05
0.0114803
-7.32715e-06
0.0113901
4.75065e-07
0.0112878
6.07259e-06
0.0111775
9.17264e-06
0.0110616
9.30782e-06
0.0109415
5.65031e-06
0.0108223
-4.02392e-06
0.0107112
-2.26713e-05
0.0106144
-5.01342e-05
0.010538
-8.63689e-05
0.0104874
-0.000130724
0.0104679
-0.000182956
0.0104842
-0.000242533
0.0105403
-0.000308621
0.0106394
-0.000380008
0.010784
-0.000455138
0.0109753
-0.000532083
0.0112124
-0.000607971
0.0114942
-0.00068093
0.0118175
-0.0007475
0.0121772
-0.000804816
0.012567
-0.000850184
0.0129793
-0.000881285
0.0134057
-0.000896421
0.0138371
-0.000895017
0.0142646
-0.000877001
0.0146798
-0.00084334
0.0150749
-0.000795701
0.0154443
-0.000736842
0.0157825
-0.000668774
0.0160861
-0.000594794
0.0163536
-0.000517942
0.0165845
-0.000440659
0.0167796
-0.000364746
0.0169402
-0.000291544
0.0170686
-0.000222029
0.0171669
-0.000156031
0.0172373
-9.29702e-05
0.0172805
-3.13024e-05
0.0172987
3.11288e-05
0.0172929
9.2917e-05
0.0172616
0.00015811
0.017203
0.000227083
0.0171149
0.000300616
0.0169945
0.000378962
0.0168387
0.000461731
0.0166443
0.000548107
0.0164086
0.000637
0.0161287
0.000727127
0.0158025
0.000816991
0.0154286
0.000904964
0.0150063
0.000989726
0.0145354
0.00107021
0.0140159
0.00114551
0.0134487
0.001215
0.0128344
0.00127836
0.0121744
0.00133511
0.0114699
0.00138499
0.010723
0.00142777
0.00993553
0.00146352
0.00910892
0.00149297
0.00824547
0.00151549
0.00734992
0.00152822
0.00643011
0.001528
0.00549718
0.00151157
0.00456516
0.00147794
0.00365014
0.00142923
0.00277926
0.0013587
0.00200995
0.00123067
0.00139597
0.00103797
0.000835386
0.00101514
0.00149923
0.00121555
-0.00399634
0.00267131
-0.00478927
0.00402414
-0.00459854
0.00529205
-0.00445661
0.00650861
-0.00436387
0.00768918
-0.00427339
0.00884529
-0.00418691
0.00999003
-0.00411556
0.0111364
-0.00406427
0.0122953
-0.00403294
0.0134749
-0.00401871
0.0146794
-0.0040172
0.0159095
-0.0040231
0.0171624
-0.00403106
0.0184333
-0.00403625
0.0197158
-0.00403485
0.0210034
-0.00402438
0.0222899
-0.00400375
0.0235705
-0.00397314
0.0248414
-0.00393383
0.0261005
-0.00388777
0.0273466
-0.00383718
0.028579
-0.00378391
0.0297968
-0.00372909
0.0309984
-0.00367279
0.032181
-0.00361404
0.0333403
-0.00355099
0.0344715
-0.00348131
0.0355693
-0.00340264
0.0366293
-0.00331336
0.0376493
-0.00321331
0.0386301
-0.0031045
0.0395768
-0.00299138
0.040498
-0.00288045
0.0414049
-0.00277886
0.0423085
-0.0026924
0.0432167
-0.00262348
0.0441318
-0.00256982
0.0450497
-0.00252487
0.0459608
-0.00247965
0.0468525
-0.00242546
0.0477119
-0.00235631
0.0485284
-0.00227023
0.0492953
-0.0021691
0.0500096
-0.00205731
0.0506718
-0.00193999
0.0512842
-0.00182155
0.05185
-0.00170485
0.0523721
-0.00159112
0.052853
-0.0014803
0.0532942
-0.00137167
0.0536969
-0.00126435
0.0540614
-0.00115765
0.0543881
-0.00105125
0.0546771
-0.00094522
0.0549285
-0.000839864
0.0551427
-0.00073565
0.0553205
-0.000633133
0.0554631
-0.00053297
0.0555724
-0.000435959
0.0556504
-0.000342989
0.0556994
-0.000254957
0.0557217
-0.000172476
0.0557185
-9.56116e-05
0.0556905
-2.41632e-05
0.055639
4.0966e-05
0.0555641
0.0001031
0.0554656
0.000162217
0.0553439
0.000219247
0.0552006
0.000274365
0.0550382
0.000326958
0.0548601
0.000376023
0.0546697
0.000420665
0.0544701
0.000460582
0.0542627
0.000496374
0.0540472
0.000529369
0.0538221
0.000561141
0.0535844
0.000592933
0.0533315
0.000625275
0.0530609
0.000657964
0.052771
0.000690403
0.0524607
0.000722096
0.0521291
0.000753053
0.0517751
0.000783888
0.0513976
0.000815582
0.0509952
0.000849053
0.0505668
0.000884793
0.0501121
0.000922753
0.0496318
0.00096251
0.0491277
0.00100356
0.0486025
0.00104555
0.0480603
0.00108849
0.0475061
0.00113289
0.046946
0.00117997
0.0463863
0.00123131
0.0458327
0.00128777
0.0452894
0.00134788
0.044758
0.00140726
0.044236
0.0014601
0.0437173
0.00150166
0.0431969
0.00152895
0.042673
0.00154069
0.0421483
0.00153612
0.0416301
0.0015136
0.0411293
0.00147031
0.0406579
0.00140382
0.0402249
0.00131439
0.0398334
0.00120671
0.039478
0.00109027
0.0391447
0.000978489
0.0388122
0.000888195
0.0384504
0.000839637
0.0380199
0.000854167
0.0374725
0.000945363
0.0367596
0.00110445
0.0358494
0.00129061
0.0347476
0.00144301
0.0335152
0.00152315
0.0322604
0.00156247
0.0311049
0.00165381
0.0301249
0.00189655
0.0292934
0.00232907
0.0284988
0.00282263
0.027679
0.00319136
0.026852
0.00329238
0.0260731
0.00311459
0.0253777
0.00275223
0.0247583
0.00233148
0.0242003
0.00195764
0.0236814
0.00166362
0.0231844
0.00144688
0.0227015
0.00130142
0.0222344
0.00122725
0.0217901
0.0012222
0.0213745
0.00127178
0.0209892
0.00134989
0.0206288
0.00143044
0.0202787
0.00149073
0.0199302
0.00152013
0.0195795
0.00151906
0.0192262
0.00149468
0.0188718
0.00145631
0.0185182
0.00141292
0.0181683
0.00137179
0.0178254
0.00133811
0.0174932
0.00131477
0.0171746
0.00130226
0.0168722
0.00129883
0.0165879
0.00130154
0.0163204
0.0013068
0.0160673
0.00131164
0.0158255
0.00131378
0.0155915
0.0013119
0.0153623
0.00130541
0.0151349
0.00129412
0.0149071
0.00127797
0.0146777
0.00125682
0.014447
0.00123033
0.0142172
0.00119781
0.0139919
0.00115838
0.0137761
0.00111138
0.0135744
0.00105705
0.0133899
0.000997104
0.013222
0.000935082
0.0130656
0.000876196
0.0129115
0.000826752
0.0127471
0.000792979
0.0125595
0.000779361
0.0123372
0.000787209
0.0120727
0.000814625
0.0117637
0.00085658
0.011415
0.000904821
0.0110383
0.00094801
0.0106515
0.000973018
0.010276
0.000968192
0.00993159
0.000928332
0.00963158
0.000858542
0.00937519
0.000776464
0.00915671
0.000702336
0.00897529
0.000654152
0.00882466
0.000639255
0.0087012
0.000648618
0.00860768
0.000668299
0.00853362
0.000675839
0.00847123
0.000655817
0.00841519
0.00060326
0.00836096
0.00052613
0.00830017
0.000446996
0.0082122
0.00040582
0.00804454
0.000463838
0.00771984
0.000655692
0.00716189
0.000983206
0.00631493
0.00137775
0.0051868
0.00172639
0.00385101
0.00194949
0.00243103
0.00204603
0.00105534
0.00206789
-0.000152005
0.00203744
-0.001115
0.00194973
-0.00180236
0.00178636
-0.00224279
0.00158387
-0.00250209
0.00139833
-0.00265346
0.00127235
-0.00275544
0.00121421
-0.00284267
0.00120365
-0.0029336
0.00121973
-0.00304002
0.0012416
-0.00316431
0.00125831
-0.00330385
0.00126785
-0.00345546
0.00127091
-0.00361687
0.00126812
-0.00378724
0.00125945
-0.00396648
0.00124372
-0.00415388
0.00121926
-0.00434748
0.00118591
-0.00454392
0.00114553
-0.00473934
0.00110185
-0.00493028
0.00105905
-0.00511401
0.00102007
-0.00528801
0.000985429
-0.00544951
0.000953414
-0.00559441
0.000921668
-0.00571637
0.000888889
-0.00580583
0.000854963
-0.00584863
0.000818229
-0.0058246
0.000772006
-0.00571098
0.000704331
-0.00548939
0.000601963
-0.0051504
0.000460015
-0.00469679
0.000292181
-0.00414557
0.000129376
-0.00352965
5.85762e-06
-0.00288713
-7.32916e-05
-0.00227108
-0.000110458
-0.00173264
-0.000129934
-0.00130705
-0.000150181
-0.00100968
-0.000175397
-0.000823646
-0.000208514
-0.000712302
-0.000249606
-0.00064066
-0.000292512
-0.000585358
-0.000333539
-0.00053187
-0.000370472
-0.000472309
-0.00040236
-0.000403533
-0.000428586
-0.00032449
-0.000449162
-0.000234771
-0.000467303
-0.000134556
-0.000484781
-2.51879e-05
-0.000501519
9.16105e-05
-0.000517225
0.000214345
-0.000531744
0.000341962
-0.000545026
0.00047384
-0.000557062
0.000609683
-0.000567857
0.000749386
-0.000577413
0.000892926
-0.00058571
0.00104023
-0.000592676
0.00119161
-0.000598482
0.00134648
-0.000602617
0.0015046
-0.000605185
0.00166551
-0.000606044
0.00182862
-0.000604927
0.00199299
-0.000601857
0.00215778
-0.000596713
0.00232207
-0.000589499
0.00248469
-0.000580193
0.00264523
-0.000569009
0.00280246
-0.000556092
0.00295586
-0.000541696
0.00310482
-0.000526079
0.0032487
-0.000509252
0.00338862
-0.000492344
0.00352298
-0.000474096
0.00365176
-0.000455429
0.00377609
-0.000437523
0.00389469
-0.000418211
0.00400766
-0.000398995
0.00411527
-0.000379835
0.00421732
-0.000360431
0.00431365
-0.000340844
0.00440415
-0.000321105
0.00448863
-0.000301231
0.00456661
-0.000281183
0.00463904
-0.000261353
0.00470485