/*--------------------------------*- C++ -*----------------------------------*\
| =========                 |                                                 |
| \\      /  F ield         | OpenFOAM: The Open Source CFD Toolbox           |
|  \\    /   O peration     | Version:  v2006                                 |
|   \\  /    A nd           | Website:  www.openfoam.com                      |
|    \\/     M anipulation  |                                                 |
\*---------------------------------------------------------------------------*/
FoamFile
{
    version     2.0;
    format      ascii;
    class       surfaceScalarField;
    location    "17.3";
    object      phi;
}
// * * * * * * * * * * * * * * * * * * * * * * * * * * * * * * * * * * * * * //

dimensions      [0 3 -1 0 0 0 0];
oriented        oriented;


internalField   nonuniform List<scalar> 
99450
(
-1.39313e-05
1.39313e-05
-1.0851e-05
-3.08037e-06
-6.41796e-06
-4.43301e-06
-5.42641e-06
-9.91546e-07
-7.7841e-06
2.35769e-06
-1.21112e-05
4.3271e-06
-1.74187e-05
5.30753e-06
-2.32748e-05
5.8561e-06
-2.95707e-05
6.29587e-06
-3.63177e-05
6.74706e-06
-4.3543e-05
7.2253e-06
-5.12573e-05
7.71429e-06
-5.94568e-05
8.19942e-06
-6.81208e-05
8.66409e-06
-7.72235e-05
9.10263e-06
-8.67329e-05
9.50939e-06
-9.6615e-05
9.88218e-06
-0.000106825
1.02097e-05
-0.000117314
1.04896e-05
-0.00012804
1.07255e-05
-0.000138956
1.09159e-05
-0.000150008
1.10521e-05
-0.000161155
1.11469e-05
-0.000172353
1.11978e-05
-0.000183563
1.12102e-05
-0.000194747
1.1184e-05
-0.000205875
1.11281e-05
-0.00021692
1.10456e-05
-0.000227861
1.09405e-05
-0.000238687
1.08261e-05
-0.0002494
1.0713e-05
-0.000260011
1.06109e-05
-0.000270569
1.05581e-05
-0.000281154
1.05853e-05
-0.000291893
1.07387e-05
-0.000302944
1.10511e-05
-0.000314501
1.15566e-05
-0.000326802
1.23012e-05
-0.000340056
1.32538e-05
-0.000354306
1.42508e-05
-0.000369406
1.50996e-05
-0.00038512
1.57144e-05
-0.000401233
1.61121e-05
-0.000417535
1.63028e-05
-0.000433803
1.6268e-05
-0.000449788
1.59842e-05
-0.000465237
1.54496e-05
-0.000479906
1.46687e-05
-0.000493524
1.36184e-05
-0.000505801
1.2277e-05
-0.000516441
1.064e-05
-0.000525209
8.76802e-06
-0.000532068
6.85835e-06
-0.000537151
5.08341e-06
-0.000540693
3.54153e-06
-0.000542912
2.21961e-06
-0.000543999
1.08717e-06
-0.000544057
5.73681e-08
-0.000543135
-9.21807e-07
-0.000541307
-1.82771e-06
-0.000538619
-2.68854e-06
-0.000535107
-3.51215e-06
-0.000530832
-4.275e-06
-0.000525827
-5.0049e-06
-0.000520133
-5.69407e-06
-0.000513785
-6.34736e-06
-0.000506822
-6.96357e-06
-0.000499276
-7.54601e-06
-0.000491189
-8.08615e-06
-0.000482584
-8.60524e-06
-0.000473497
-9.08744e-06
-0.000463952
-9.54471e-06
-0.000453982
-9.96991e-06
-0.000443625
-1.03575e-05
-0.000432898
-1.07271e-05
-0.00042183
-1.1068e-05
-0.000410447
-1.13825e-05
-0.000398778
-1.16694e-05
-0.000386851
-1.19263e-05
-0.000374701
-1.21504e-05
-0.000362356
-1.23446e-05
-0.000349856
-1.25002e-05
-0.000337243
-1.26137e-05
-0.000324559
-1.26839e-05
-0.000311856
-1.2703e-05
-0.000299177
-1.2679e-05
-0.000286581
-1.25954e-05
-0.00027413
-1.24511e-05
-0.000261893
-1.22372e-05
-0.000249943
-1.19498e-05
-0.00023837
-1.15731e-05
-0.000227288
-1.10824e-05
-0.000216828
-1.04599e-05
-0.000207156
-9.67189e-06
-0.00019845
-8.70631e-06
-0.000191003
-7.44641e-06
-0.000185191
-5.81228e-06
-0.00018147
-3.72115e-06
-0.000180253
-1.21652e-06
-0.000181754
1.50048e-06
-0.000185759
4.00563e-06
-0.000191806
6.0467e-06
-0.000199262
7.45598e-06
-0.000207495
8.23341e-06
-0.000215973
8.47795e-06
-0.000224277
8.30384e-06
-0.000232073
7.79606e-06
-0.000239027
6.95392e-06
-0.000244699
5.67188e-06
-0.000248568
3.86865e-06
-0.00025017
1.60189e-06
-0.00024908
-1.08942e-06
-0.00024531
-3.77006e-06
-0.0002393
-6.01047e-06
-0.000231727
-7.57263e-06
-0.000223275
-8.4525e-06
-0.000214468
-8.80646e-06
-0.000205638
-8.8303e-06
-0.000196953
-8.68481e-06
-0.000188466
-8.48739e-06
-0.0001802
-8.26537e-06
-0.000172184
-8.01673e-06
-0.000164449
-7.73441e-06
-0.00015701
-7.43961e-06
-0.000149856
-7.15307e-06
-0.000142977
-6.8796e-06
-0.000136359
-6.61748e-06
-0.00012998
-6.37969e-06
-0.000123823
-6.15701e-06
-0.000117866
-5.95667e-06
-0.000112082
-5.78381e-06
-0.00010647
-5.61195e-06
-0.000101003
-5.46747e-06
-9.56644e-05
-5.33834e-06
-9.04176e-05
-5.24677e-06
-8.52357e-05
-5.18192e-06
-8.00699e-05
-5.16579e-06
-7.48669e-05
-5.20302e-06
-6.95782e-05
-5.28869e-06
-6.4161e-05
-5.41723e-06
-5.85744e-05
-5.58658e-06
-5.27759e-05
-5.79849e-06
-4.67257e-05
-6.05026e-06
-4.03524e-05
-6.37323e-06
-3.35961e-05
-6.75636e-06
-2.64142e-05
-7.18185e-06
-1.89121e-05
-7.5021e-06
-1.10889e-05
-7.82324e-06
-3.50588e-06
-7.58302e-06
-3.50589e-06
-1.6168e-05
3.00993e-05
-1.70684e-05
-2.17999e-06
-1.7092e-05
-4.40933e-06
-2.12968e-05
3.21319e-06
-2.95424e-05
1.06034e-05
-4.01705e-05
1.49552e-05
-5.18556e-05
1.69926e-05
-6.40912e-05
1.80917e-05
-7.68749e-05
1.90795e-05
-9.03278e-05
2.02e-05
-0.000104527
2.14244e-05
-0.000119478
2.2665e-05
-0.000135151
2.38727e-05
-0.00015149
2.50031e-05
-0.00016844
2.60524e-05
-0.000185917
2.6987e-05
-0.00020385
2.78154e-05
-0.000222141
2.85006e-05
-0.000240695
2.90436e-05
-0.000259409
2.94388e-05
-0.000278172
2.96788e-05
-0.00029689
2.9771e-05
-0.000315448
2.97048e-05
-0.000333748
2.94971e-05
-0.000351693
2.91551e-05
-0.000369191
2.86823e-05
-0.000386154
2.80914e-05
-0.000402505
2.73967e-05
-0.000418152
2.65877e-05
-0.000433012
2.5686e-05
-0.000447005
2.47052e-05
-0.000460047
2.36538e-05
-0.000472046
2.25563e-05
-0.000482925
2.14649e-05
-0.000492611
2.0425e-05
-0.000501055
1.94946e-05
-0.000508204
1.87058e-05
-0.000513983
1.80803e-05
-0.00051836
1.76307e-05
-0.000521451
1.73414e-05
-0.000523503
1.71519e-05
-0.000524801
1.70117e-05
-0.000525564
1.68751e-05
-0.000525959
1.66978e-05
-0.00052611
1.64191e-05
-0.00052612
1.59944e-05
-0.000526061
1.53907e-05
-0.000525973
1.45811e-05
-0.000525894
1.35386e-05
-0.000525852
1.22353e-05
-0.000525901
1.06894e-05
-0.00052609
8.95689e-06
-0.000526365
7.13302e-06
-0.000526594
5.31315e-06
-0.00052658
3.52674e-06
-0.000526174
1.81405e-06
-0.000525322
2.35119e-07
-0.000524028
-1.23703e-06
-0.000522284
-2.665e-06
-0.000520083
-4.02939e-06
-0.00051745
-5.32117e-06
-0.000514425
-6.53773e-06
-0.000510986
-7.71367e-06
-0.000507154
-8.8368e-06
-0.000502951
-9.897e-06
-0.000498371
-1.09277e-05
-0.000493419
-1.19154e-05
-0.000488103
-1.28621e-05
-0.000482425
-1.37636e-05
-0.000476419
-1.46119e-05
-0.000470058
-1.54484e-05
-0.000463366
-1.62365e-05
-0.000456345
-1.69907e-05
-0.000448995
-1.77077e-05
-0.000441327
-1.83953e-05
-0.000433345
-1.90502e-05
-0.000425051
-1.96761e-05
-0.00041645
-2.02703e-05
-0.000407543
-2.08332e-05
-0.00039833
-2.13634e-05
-0.000388818
-2.18573e-05
-0.000379013
-2.23043e-05
-0.00036892
-2.27068e-05
-0.000358543
-2.30611e-05
-0.000347887
-2.33593e-05
-0.000336995
-2.35706e-05
-0.000325863
-2.37271e-05
-0.000314529
-2.37853e-05
-0.000303015
-2.37513e-05
-0.000291348
-2.36166e-05
-0.000279556
-2.33649e-05
-0.000267679
-2.29603e-05
-0.000255734
-2.24047e-05
-0.000243738
-2.16681e-05
-0.000231739
-2.07053e-05
-0.000219719
-1.94666e-05
-0.00020764
-1.78909e-05
-0.000195451
-1.59099e-05
-0.000183138
-1.35299e-05
-0.000170783
-1.08547e-05
-0.000158628
-8.14932e-06
-0.000146856
-5.72509e-06
-0.000135501
-3.89857e-06
-0.000124346
-2.92207e-06
-0.000112986
-2.88209e-06
-0.000100949
-3.73264e-06
-8.77985e-05
-5.35472e-06
-7.32143e-05
-7.63033e-06
-5.71566e-05
-1.03858e-05
-3.97895e-05
-1.34984e-05
-2.14442e-05
-1.67434e-05
-2.67133e-06
-1.98623e-05
1.60681e-05
-2.25095e-05
3.4424e-05
-2.43664e-05
5.21137e-05
-2.52623e-05
6.89489e-05
-2.52877e-05
8.48202e-05
-2.46778e-05
9.96667e-05
-2.36768e-05
0.000113455
-2.24733e-05
0.000126139
-2.11707e-05
0.000137682
-1.9809e-05
0.000148081
-1.84153e-05
0.000157353
-1.70068e-05
0.000165488
-1.55742e-05
0.000172465
-1.41299e-05
0.000178276
-1.26914e-05
0.000182903
-1.12438e-05
0.000186326
-9.80312e-06
0.000188558
-8.38877e-06
0.000189601
-7.00029e-06
0.00018942
-5.60199e-06
0.000188027
-4.21934e-06
0.000185427
-2.86725e-06
0.000181601
-1.51219e-06
0.000176541
-1.86868e-07
0.000170261
1.0981e-06
0.000162824
2.27139e-06
0.00015428
3.34061e-06
0.000144693
4.29823e-06
0.00013415
5.12535e-06
0.000122755
5.80887e-06
0.000110615
6.34112e-06
9.78298e-05
6.73527e-06
8.44649e-05
6.99167e-06
7.05527e-05
7.15586e-06
5.61341e-05
7.23677e-06
4.12041e-05
7.42788e-06
2.64327e-05
6.94816e-06
1.35722e-05
5.27755e-06
1.00663e-05
-1.66836e-05
4.67829e-05
-1.53053e-05
-3.55835e-06
-1.11543e-05
-8.56025e-06
-1.10666e-05
3.12542e-06
-1.60368e-05
1.55736e-05
-2.4474e-05
2.33923e-05
-3.45734e-05
2.70921e-05
-4.53274e-05
2.88457e-05
-5.65341e-05
3.02862e-05
-6.83513e-05
3.20172e-05
-8.09655e-05
3.40386e-05
-9.44665e-05
3.61661e-05
-0.000108847
3.82529e-05
-0.000124064
4.02206e-05
-0.00014004
4.20278e-05
-0.000156702
4.3649e-05
-0.000173942
4.50559e-05
-0.000191673
4.62316e-05
-0.000209771
4.71418e-05
-0.000228118
4.77859e-05
-0.000246604
4.81646e-05
-0.000265099
4.82654e-05
-0.000283506
4.81127e-05
-0.000301734
4.77251e-05
-0.000319679
4.70995e-05
-0.000337265
4.62684e-05
-0.00035443
4.52565e-05
-0.000371109
4.40758e-05
-0.000387264
4.27429e-05
-0.000402868
4.12898e-05
-0.000417885
3.97223e-05
-0.0004323
3.80688e-05
-0.000446113
3.63686e-05
-0.000459292
3.46441e-05
-0.000471814
3.29467e-05
-0.000483634
3.13155e-05
-0.000494705
2.97765e-05
-0.000504942
2.83176e-05
-0.000514248
2.69366e-05
-0.000522564
2.5657e-05
-0.000529896
2.44837e-05
-0.000536258
2.3374e-05
-0.000541674
2.22908e-05
-0.000546175
2.11997e-05
-0.000549812
2.00559e-05
-0.000552652
1.88344e-05
-0.000554788
1.75264e-05
-0.00055632
1.61132e-05
-0.000557355
1.45741e-05
-0.000558025
1.2905e-05
-0.000558436
1.11002e-05
-0.00055863
9.15049e-06
-0.000558601
7.10443e-06
-0.000558293
5.0049e-06
-0.00055765
2.88413e-06
-0.000556639
8.03288e-07
-0.000555183
-1.22129e-06
-0.000553271
-3.14868e-06
-0.000550936
-5.00066e-06
-0.000548187
-6.7776e-06
-0.000545016
-8.4923e-06
-0.000541408
-1.0146e-05
-0.000537383
-1.17393e-05
-0.000532948
-1.32714e-05
-0.000528091
-1.47539e-05
-0.00052283
-1.6189e-05
-0.000517173
-1.75717e-05
-0.000511129
-1.89063e-05
-0.000504699
-2.01937e-05
-0.000497873
-2.14374e-05
-0.000490694
-2.26276e-05
-0.000483146
-2.37846e-05
-0.000475244
-2.48932e-05
-0.000466987
-2.59639e-05
-0.000458392
-2.69909e-05
-0.000449464
-2.79782e-05
-0.000440214
-2.89261e-05
-0.000430651
-2.9833e-05
-0.000420784
-3.07005e-05
-0.00041062
-3.1527e-05
-0.000400168
-3.23093e-05
-0.000389434
-3.30381e-05
-0.000378433
-3.37083e-05
-0.000367176
-3.43178e-05
-0.00035568
-3.48558e-05
-0.00034395
-3.53005e-05
-0.000332012
-3.56651e-05
-0.000319868
-3.59287e-05
-0.000307538
-3.60816e-05
-0.000295036
-3.61188e-05
-0.000282383
-3.60175e-05
-0.000269571
-3.57722e-05
-0.000256614
-3.5362e-05
-0.000243513
-3.47696e-05
-0.00023024
-3.39778e-05
-0.000216757
-3.29492e-05
-0.000202943
-3.17053e-05
-0.000188634
-3.02185e-05
-0.000173663
-2.85014e-05
-0.000157899
-2.6619e-05
-0.000141333
-2.47147e-05
-0.000124085
-2.29733e-05
-0.000106357
-2.16268e-05
-8.84302e-05
-2.08487e-05
-7.05659e-05
-2.07464e-05
-5.30223e-05
-2.12762e-05
-3.60589e-05
-2.23182e-05
-1.98979e-05
-2.37913e-05
-4.73581e-06
-2.55479e-05
9.20964e-06
-2.74439e-05
2.17889e-05
-2.93227e-05
3.29366e-05
-3.101e-05
4.27161e-05
-3.22889e-05
5.13237e-05
-3.2974e-05
5.90588e-05
-3.29974e-05
6.62307e-05
-3.24596e-05
7.31002e-05
-3.15472e-05
7.98468e-05
-3.04234e-05
8.65673e-05
-2.91938e-05
9.33095e-05
-2.7913e-05
0.000100096
-2.65954e-05
0.000106918
-2.52378e-05
0.000113748
-2.38363e-05
0.000120524
-2.235e-05
0.000127168
-2.07739e-05
0.000133559
-1.90826e-05
0.000139601
-1.72862e-05
0.000145189
-1.53907e-05
0.000150203
-1.34028e-05
0.000154541
-1.13382e-05
0.000158128
-9.18921e-06
0.000160848
-6.93936e-06
0.000162604
-4.62312e-06
0.000163304
-2.21234e-06
0.000162806
3.1072e-07
0.000161056
2.84875e-06
0.000157926
5.40071e-06
0.000153336
7.93155e-06
0.000147234
1.03997e-05
0.000139591
1.27681e-05
0.000130407
1.49927e-05
0.000119717
1.70317e-05
0.000107595
1.88576e-05
9.41326e-05
2.04536e-05
7.94305e-05
2.1858e-05
6.35606e-05
2.31067e-05
4.67955e-05
2.4193e-05
3.06071e-05
2.31365e-05
1.7142e-05
1.87426e-05
2.72083e-05
-1.6599e-05
6.33819e-05
-1.41424e-05
-6.01492e-06
-7.88271e-06
-1.482e-05
-4.79696e-06
3.96648e-08
-6.66085e-06
1.74375e-05
-1.24592e-05
2.91906e-05
-2.04307e-05
3.50635e-05
-2.93183e-05
3.77333e-05
-3.86908e-05
3.96588e-05
-4.86028e-05
4.19292e-05
-5.92439e-05
4.46796e-05
-7.0757e-05
4.76792e-05
-8.31923e-05
5.06881e-05
-9.6529e-05
5.35573e-05
-0.000110714
5.62132e-05
-0.000125694
5.8629e-05
-0.000141377
6.07388e-05
-0.000157677
6.2531e-05
-0.000174472
6.39376e-05
-0.000191672
6.49858e-05
-0.000209145
6.56373e-05
-0.0002268
6.592e-05
-0.00024451
6.58232e-05
-0.000262189
6.54042e-05
-0.000279753
6.46632e-05
-0.000297121
6.36359e-05
-0.000314203
6.23389e-05
-0.000330949
6.08213e-05
-0.000347304
5.90984e-05
-0.000363228
5.7214e-05
-0.000378699
5.51932e-05
-0.000393709
5.3079e-05
-0.00040824
5.08991e-05
-0.000422277
4.86809e-05
-0.0004358
4.64699e-05
-0.000448773
4.42884e-05
-0.000461148
4.21516e-05
-0.000472895
4.00644e-05
-0.000483987
3.80288e-05
-0.000494374
3.60441e-05
-0.000503988
3.4098e-05
-0.00051278
3.2166e-05
-0.000520725
3.02352e-05
-0.000527808
2.82827e-05
-0.000534031
2.62791e-05
-0.000539411
2.42144e-05
-0.000543961
2.20761e-05
-0.000547719
1.98717e-05
-0.00055073
1.75851e-05
-0.000553058
1.52331e-05
-0.000554783
1.28247e-05
-0.000555974
1.03417e-05
-0.000556683
7.81288e-06
-0.000556917
5.23965e-06
-0.000556724
2.69031e-06
-0.000556077
1.56783e-07
-0.000554966
-2.33263e-06
-0.000553352
-4.76275e-06
-0.000551232
-7.11999e-06
-0.000548604
-9.40642e-06
-0.000545472
-1.16236e-05
-0.00054183
-1.37882e-05
-0.000537691
-1.58778e-05
-0.000533061
-1.79018e-05
-0.000527955
-1.98595e-05
-0.000522385
-2.17591e-05
-0.000516361
-2.35956e-05
-0.000509892
-2.53756e-05
-0.000502991
-2.70944e-05
-0.000495675
-2.87539e-05
-0.000487946
-3.0356e-05
-0.000479829
-3.19018e-05
-0.000471333
-3.33893e-05
-0.000462477
-3.48203e-05
-0.000453271
-3.61967e-05
-0.000443733
-3.75157e-05
-0.000433883
-3.87763e-05
-0.000423735
-3.99813e-05
-0.000413304
-4.11312e-05
-0.000402614
-4.2217e-05
-0.000391685
-4.32382e-05
-0.000380538
-4.4185e-05
-0.000369185
-4.5062e-05
-0.000357645
-4.58578e-05
-0.000345936
-4.65648e-05
-0.000334051
-4.71858e-05
-0.000322022
-4.76939e-05
-0.000309856
-4.80941e-05
-0.000297564
-4.83739e-05
-0.000285145
-4.85381e-05
-0.000272626
-4.85359e-05
-0.000259993
-4.84057e-05
-0.000247237
-4.81177e-05
-0.000234347
-4.76598e-05
-0.000221307
-4.70181e-05
-0.00020805
-4.62056e-05
-0.000194558
-4.5197e-05
-0.000180761
-4.40162e-05
-0.00016656
-4.2702e-05
-0.000151887
-4.12926e-05
-0.000136712
-3.98895e-05
-0.000121096
-3.85896e-05
-0.000105225
-3.74971e-05
-8.93556e-05
-3.67183e-05
-7.38291e-05
-3.62729e-05
-5.89482e-05
-3.6157e-05
-4.49471e-05
-3.63193e-05
-3.20421e-05
-3.66964e-05
-2.04246e-05
-3.71654e-05
-1.02006e-05
-3.76678e-05
-1.41076e-06
-3.81126e-05
6.00701e-06
-3.84277e-05
1.22492e-05
-3.85311e-05
1.76429e-05
-3.83677e-05
2.25512e-05
-3.79058e-05
2.72371e-05
-3.71455e-05
3.18165e-05
-3.61266e-05
3.6303e-05
-3.491e-05
4.06563e-05
-3.35471e-05
4.48404e-05
-3.20971e-05
4.88305e-05
-3.05856e-05
5.26224e-05
-2.90297e-05
5.62263e-05
-2.74402e-05
5.96518e-05
-2.57755e-05
6.29325e-05
-2.40545e-05
6.60725e-05
-2.22226e-05
6.909e-05
-2.03037e-05
7.19986e-05
-1.82993e-05
7.47475e-05
-1.61517e-05
7.73272e-05
-1.39178e-05
7.96975e-05
-1.15596e-05
8.18109e-05
-9.05272e-06
8.3641e-05
-6.45323e-06
8.50366e-05
-3.60797e-06
8.60055e-05
-6.58188e-07
8.64807e-05
2.37358e-06
8.62664e-05
5.61503e-06
8.52543e-05
8.94358e-06
8.33339e-05
1.23201e-05
8.03953e-05
1.57067e-05
7.63656e-05
1.90225e-05
7.11843e-05
2.2213e-05
6.48279e-05
2.5214e-05
5.7258e-05
2.80235e-05
4.83661e-05
3.07499e-05
3.8086e-05
3.33868e-05
2.7382e-05
3.48969e-05
1.87438e-05
3.17748e-05
1.30293e-05
2.4457e-05
4.02376e-05
-1.71853e-05
8.05673e-05
-1.44291e-05
-8.77122e-06
-6.88274e-06
-2.23663e-05
-2.03618e-06
-4.8069e-06
-2.168e-06
1.75694e-05
-6.60262e-06
3.36253e-05
-1.36411e-05
4.2102e-05
-2.19187e-05
4.60109e-05
-3.07798e-05
4.85199e-05
-4.01694e-05
5.13187e-05
-5.02452e-05
5.47554e-05
-6.11903e-05
5.86243e-05
-7.30974e-05
6.25952e-05
-8.59712e-05
6.64311e-05
-9.9782e-05
7.00239e-05
-0.000114453
7.33004e-05
-0.000129917
7.62026e-05
-0.000146065
7.86789e-05
-0.000162825
8.06973e-05
-0.000180039
8.22006e-05
-0.000197634
8.3232e-05
-0.000215464
8.37503e-05
-0.000233447
8.3806e-05
-0.000251469
8.34255e-05
-0.000269435
8.26294e-05
-0.00028726
8.14614e-05
-0.000304878
7.99561e-05
-0.000322213
7.81565e-05
-0.000339217
7.6103e-05
-0.000355837
7.38338e-05
-0.000372029
7.13852e-05
-0.000387742
6.87918e-05
-0.000402932
6.60887e-05
-0.000417569
6.33182e-05
-0.000431592
6.04929e-05
-0.000444953
5.765e-05
-0.000457609
5.48072e-05
-0.000469502
5.19578e-05
-0.000480604
4.91298e-05
-0.000490887
4.63271e-05
-0.00050033
4.35418e-05
-0.000508942
4.07781e-05
-0.000516737
3.80303e-05
-0.000523733
3.52784e-05
-0.000529962
3.25084e-05
-0.000535453
2.9705e-05
-0.000540247
2.68697e-05
-0.000544343
2.39682e-05
-0.000547787
2.10293e-05
-0.000550574
1.80198e-05
-0.000552711
1.49617e-05
-0.000554233
1.18642e-05
-0.000555179
8.75822e-06
-0.000555587
5.64748e-06
-0.000555458
2.56143e-06
-0.000554795
-5.05963e-07
-0.000553612
-3.51535e-06
-0.00055191
-6.46479e-06
-0.000549684
-9.34601e-06
-0.000546928
-1.21621e-05
-0.000543643
-1.49096e-05
-0.000539864
-1.75668e-05
-0.000535577
-2.0165e-05
-0.000530794
-2.26843e-05
-0.000525525
-2.51285e-05
-0.00051978
-2.75048e-05
-0.000513572
-2.98031e-05
-0.00050692
-3.20272e-05
-0.000499835
-3.41795e-05
-0.000492332
-3.62574e-05
-0.000484426
-3.82621e-05
-0.000476134
-4.0194e-05
-0.000467471
-4.20518e-05
-0.000458456
-4.38355e-05
-0.000449104
-4.55482e-05
-0.000439438
-4.7182e-05
-0.000429472
-4.87424e-05
-0.000419226
-5.02266e-05
-0.000408724
-5.16339e-05
-0.000397975
-5.29657e-05
-0.000387011
-5.42021e-05
-0.000375844
-5.53524e-05
-0.000364491
-5.64149e-05
-0.000352966
-5.73825e-05
-0.000341286
-5.82446e-05
-0.000329466
-5.90057e-05
-0.000317511
-5.96498e-05
-0.000305434
-6.01709e-05
-0.000293246
-6.05621e-05
-0.000280955
-6.08289e-05
-0.000268534
-6.09571e-05
-0.000256008
-6.09317e-05
-0.000243376
-6.07497e-05
-0.000230627
-6.04083e-05
-0.000217742
-5.99035e-05
-0.000204707
-5.92405e-05
-0.000191491
-5.8413e-05
-0.000178064
-5.74429e-05
-0.000164414
-5.63517e-05
-0.000150528
-5.51787e-05
-0.000136437
-5.39806e-05
-0.000122219
-5.28079e-05
-0.000107994
-5.17225e-05
-9.39345e-05
-5.07773e-05
-8.02036e-05
-5.00038e-05
-6.69818e-05
-4.93789e-05
-5.43957e-05
-4.89053e-05
-4.25673e-05
-4.85248e-05
-3.15215e-05
-4.82112e-05
-2.12947e-05
-4.78947e-05
-1.18692e-05
-4.75381e-05
-3.23831e-06
-4.70586e-05
4.62021e-06
-4.63897e-05
1.1731e-05
-4.54784e-05
1.81255e-05
-4.43003e-05
2.38422e-05
-4.28622e-05
2.89171e-05
-4.12015e-05
3.3376e-05
-3.93689e-05
3.72399e-05
-3.74109e-05
4.05071e-05
-3.53642e-05
4.31735e-05
-3.32521e-05
4.52484e-05
-3.11046e-05
4.67532e-05
-2.8945e-05
4.7769e-05
-2.67913e-05
4.82918e-05
-2.45772e-05
4.84242e-05
-2.2355e-05
4.82255e-05
-2.0105e-05
4.77415e-05
-1.78153e-05
4.70509e-05
-1.54611e-05
4.61856e-05
-1.30525e-05
4.51959e-05
-1.05699e-05
4.41339e-05
-7.99069e-06
4.29783e-05
-5.29766e-06
4.18333e-05
-2.46301e-06
4.06627e-05
5.12414e-07
3.94038e-05
3.63252e-06
3.80974e-05
6.92141e-06
3.6694e-05
1.0347e-05
3.5131e-05
1.38832e-05
3.33455e-05
1.74921e-05
3.12629e-05
2.11051e-05
2.88321e-05
2.46438e-05
2.59848e-05
2.80613e-05
2.2566e-05
3.14422e-05
1.83122e-05
3.50037e-05
1.32741e-05
3.84249e-05
8.97463e-06
3.91964e-05
7.83232e-06
3.29171e-05
8.7352e-06
2.35541e-05
4.89728e-05
-1.80714e-05
9.86387e-05
-1.53888e-05
-1.14538e-05
-6.49739e-06
-3.12577e-05
4.91786e-07
-1.17961e-05
2.25922e-06
1.58019e-05
-1.014e-06
3.68985e-05
-7.56386e-06
4.86519e-05
-1.57524e-05
5.41994e-05
-2.46485e-05
5.7416e-05
-3.40657e-05
6.07359e-05
-4.42089e-05
6.48987e-05
-5.52935e-05
6.97089e-05
-6.74526e-05
7.47543e-05
-8.07393e-05
7.97178e-05
-9.50893e-05
8.4374e-05
-0.000110431
8.86424e-05
-0.000126672
9.24437e-05
-0.00014367
9.56764e-05
-0.000161281
9.8308e-05
-0.000179393
0.000100313
-0.000197855
0.000101694
-0.00021655
0.000102445
-0.000235374
0.00010263
-0.000254187
0.000102238
-0.000272888
0.00010133
-0.000291385
9.99592e-05
-0.000309607
9.8178e-05
-0.00032748
9.60293e-05
-0.000344939
9.35623e-05
-0.000361929
9.08236e-05
-0.000378404
8.786e-05
-0.000394321
8.47087e-05
-0.000409646
8.14141e-05
-0.000424337
7.80086e-05
-0.000438359
7.45155e-05
-0.000451687
7.09779e-05
-0.000464287
6.74077e-05
-0.000476158
6.38283e-05
-0.000487256
6.02275e-05
-0.000497572
5.66438e-05
-0.000507099
5.30685e-05
-0.000515819
4.94975e-05
-0.000523714
4.5926e-05
-0.000530785
4.23489e-05
-0.000537038
3.87617e-05
-0.000542491
3.5158e-05
-0.000547152
3.15308e-05
-0.000551075
2.78908e-05
-0.000554277
2.42319e-05
-0.000556818
2.056e-05
-0.000558735
1.68793e-05
-0.000560067
1.31957e-05
-0.000560819
9.51083e-06
-0.000561017
5.84464e-06
-0.000560663
2.2081e-06
-0.000559781
-1.38846e-06
-0.000558367
-4.92864e-06
-0.000556433
-8.3997e-06
-0.000553966
-1.18121e-05
-0.000550982
-1.51465e-05
-0.000547496
-1.83954e-05
-0.000543497
-2.15657e-05
-0.000539005
-2.46572e-05
-0.000534024
-2.76652e-05
-0.000528566
-3.05871e-05
-0.000522652
-3.34184e-05
-0.000516287
-3.61682e-05
-0.000509486
-3.88286e-05
-0.000502261
-4.14042e-05
-0.000494628
-4.38899e-05
-0.000486605
-4.62852e-05
-0.000478207
-4.85927e-05
-0.000469446
-5.08126e-05
-0.00046034
-5.29413e-05
-0.000450914
-5.49748e-05
-0.000441175
-5.69211e-05
-0.000431143
-5.87744e-05
-0.000420835
-6.05343e-05
-0.000410264
-6.22044e-05
-0.000399454
-6.37757e-05
-0.000388426
-6.52309e-05
-0.000377186
-6.65921e-05
-0.000365753
-6.78479e-05
-0.00035414
-6.89952e-05
-0.000342354
-7.0031e-05
-0.000330414
-7.09456e-05
-0.000318312
-7.17516e-05
-0.000306078
-7.24048e-05
-0.000293702
-7.29387e-05
-0.000281193
-7.33371e-05
-0.000268563
-7.35873e-05
-0.000255802
-7.36929e-05
-0.000242909
-7.36423e-05
-0.000229883
-7.34343e-05
-0.000216717
-7.30702e-05
-0.000203408
-7.25488e-05
-0.000189944
-7.18774e-05
-0.000176323
-7.10644e-05
-0.000162542
-7.01324e-05
-0.000148617
-6.91033e-05
-0.000134586
-6.80117e-05
-0.000120505
-6.68889e-05
-0.000106449
-6.57782e-05
-9.25287e-05
-6.4698e-05
-7.88629e-05
-6.36695e-05
-6.55585e-05
-6.26833e-05
-5.27435e-05
-6.17203e-05
-4.05142e-05
-6.0754e-05
-2.89603e-05
-5.97651e-05
-1.81479e-05
-5.87071e-05
-8.16095e-06
-5.7525e-05
9.747e-07
-5.61943e-05
9.26888e-06
-5.46838e-05
1.67638e-05
-5.29733e-05
2.35165e-05
-5.1053e-05
2.95823e-05
-4.89281e-05
3.49978e-05
-4.6617e-05
3.97683e-05
-4.41394e-05
4.38958e-05
-4.15384e-05
4.73723e-05
-3.88407e-05
5.01948e-05
-3.60746e-05
5.23364e-05
-3.32462e-05
5.38085e-05
-3.0417e-05
5.45694e-05
-2.75523e-05
5.4702e-05
-2.47098e-05
5.41948e-05
-2.18478e-05
5.31171e-05
-1.90273e-05
5.15075e-05
-1.62056e-05
4.94352e-05
-1.33889e-05
4.6957e-05
-1.05743e-05
4.4144e-05
-7.75693e-06
4.10603e-05
-4.90699e-06
3.7801e-05
-2.03837e-06
3.44412e-05
8.96818e-07
3.10512e-05
3.90237e-06
2.76884e-05
6.99538e-06
2.44251e-05
1.01846e-05
2.13117e-05
1.34604e-05
1.83713e-05
1.68237e-05
1.56216e-05
2.02417e-05
1.3067e-05
2.36597e-05
1.07031e-05
2.70078e-05
8.49194e-06
3.02724e-05
6.28658e-06
3.36475e-05
3.88785e-06
3.74025e-05
1.49907e-06
4.08137e-05
5.62671e-07
4.01328e-05
2.74962e-06
3.07301e-05
6.17925e-06
2.01245e-05
5.51521e-05
-1.94809e-05
0.00011812
-1.72179e-05
-1.37168e-05
-6.84756e-06
-4.16281e-05
2.91243e-06
-2.15561e-05
7.47489e-06
1.12395e-05
6.13078e-06
3.82426e-05
4.78471e-07
5.43042e-05
-7.4258e-06
6.21037e-05
-1.62929e-05
6.62831e-05
-2.5709e-05
7.0152e-05
-3.58512e-05
7.50409e-05
-4.7086e-05
8.09437e-05
-5.95959e-05
8.72641e-05
-7.34664e-05
9.35883e-05
-8.86622e-05
9.95698e-05
-0.000105031
0.000105011
-0.000122414
0.000109827
-0.000140672
0.000113934
-0.000159599
0.000117235
-0.000179019
0.000119734
-0.000198751
0.000121426
-0.000218661
0.000122355
-0.000238582
0.000122551
-0.000258402
0.000122059
-0.000278022
0.00012095
-0.000297323
0.000119261
-0.00031625
0.000117105
-0.00033471
0.000114489
-0.000352657
0.000111509
-0.000370045
0.000108211
-0.000386829
0.000104645
-0.00040298
0.000100859
-0.000418454
9.68888e-05
-0.000433231
9.27851e-05
-0.000447295
8.85799e-05
-0.000460612
8.42943e-05
-0.000473161
7.9957e-05
-0.000484915
7.55826e-05
-0.000495896
7.12086e-05
-0.000506066
6.6814e-05
-0.000515416
6.24179e-05
-0.000523948
5.80299e-05
-0.000531678
5.36562e-05
-0.000538614
4.92851e-05
-0.000544771
4.49186e-05
-0.000550167
4.05537e-05
-0.000554849
3.6213e-05
-0.000558816
3.18574e-05
-0.000562108
2.75236e-05
-0.000564724
2.31766e-05
-0.000566688
1.88431e-05
-0.000568013
1.45203e-05
-0.000568734
1.02318e-05
-0.000568874
5.98495e-06
-0.000568434
1.76782e-06
-0.000567439
-2.38265e-06
-0.000565894
-6.47389e-06
-0.000563803
-1.04908e-05
-0.000561191
-1.44237e-05
-0.000558049
-1.8289e-05
-0.000554388
-2.20564e-05
-0.000550218
-2.57354e-05
-0.000545556
-2.93193e-05
-0.00054041
-3.2811e-05
-0.000534793
-3.62042e-05
-0.000528713
-3.94988e-05
-0.000522184
-4.26973e-05
-0.000515221
-4.57909e-05
-0.000507844
-4.87813e-05
-0.000500057
-5.16775e-05
-0.000491879
-5.44631e-05
-0.000483325
-5.71459e-05
-0.000474417
-5.97208e-05
-0.000465165
-6.21934e-05
-0.000455582
-6.45579e-05
-0.000445687
-6.68157e-05
-0.000435498
-6.89636e-05
-0.000425027
-7.10051e-05
-0.000414287
-7.29452e-05
-0.000403307
-7.47557e-05
-0.000392088
-7.64493e-05
-0.000380648
-7.8032e-05
-0.000369
-7.94967e-05
-0.000357154
-8.08411e-05
-0.000345121
-8.20636e-05
-0.000332915
-8.31515e-05
-0.000320543
-8.41237e-05
-0.000308007
-8.49407e-05
-0.000295319
-8.56266e-05
-0.000282485
-8.61713e-05
-0.000269503
-8.65697e-05
-0.000256383
-8.68127e-05
-0.000243112
-8.6913e-05
-0.000229706
-8.68402e-05
-0.000216162
-8.66146e-05
-0.000202483
-8.62279e-05
-0.00018867
-8.56906e-05
-0.000174729
-8.50052e-05
-0.000160677
-8.41847e-05
-0.000146538
-8.32416e-05
-0.000132355
-8.21947e-05
-0.000118177
-8.1067e-05
-0.000104086
-7.9869e-05
-9.01676e-05
-7.86168e-05
-7.65141e-05
-7.7323e-05
-6.32283e-05
-7.59691e-05
-5.03946e-05
-7.4554e-05
-3.80937e-05
-7.3055e-05
-2.63993e-05
-7.14595e-05
-1.53695e-05
-6.97369e-05
-5.02991e-06
-6.78646e-05
4.60379e-06
-6.5828e-05
1.35179e-05
-6.35979e-05
2.17062e-05
-6.11616e-05
2.91699e-05
-5.85167e-05
3.59202e-05
-5.56784e-05
4.19592e-05
-5.2656e-05
4.7298e-05
-4.94782e-05
5.1935e-05
-4.61754e-05
5.58653e-05
-4.27711e-05
5.90938e-05
-3.9303e-05
6.1612e-05
-3.57644e-05
6.34136e-05
-3.22187e-05
6.45309e-05
-2.86696e-05
6.49794e-05
-2.51583e-05
6.47546e-05
-2.1623e-05
6.38658e-05
-1.81386e-05
6.23598e-05
-1.46996e-05
6.02719e-05
-1.1301e-05
5.76529e-05
-7.95525e-06
5.4553e-05
-4.65706e-06
5.10432e-05
-1.39714e-06
4.71825e-05
1.82235e-06
4.30567e-05
5.02255e-06
3.87517e-05
8.20744e-06
3.43624e-05
1.13846e-05
2.99767e-05
1.45703e-05
2.56791e-05
1.7758e-05
2.15544e-05
2.09484e-05
1.76611e-05
2.4135e-05
1.40606e-05
2.72602e-05
1.07996e-05
3.02688e-05
7.88777e-06
3.31842e-05
5.28624e-06
3.62491e-05
2.91426e-06
3.97745e-05
9.42969e-07
4.27849e-05
2.49234e-07
4.08266e-05
2.07071e-06
2.89087e-05
5.13187e-06
1.70634e-05
6.0284e-05
-2.1459e-05
0.000139579
-2.02247e-05
-1.4951e-05
-8.79856e-06
-5.30542e-05
3.88214e-06
-3.42368e-05
1.20933e-05
3.02833e-06
1.38238e-05
3.65121e-05
1.00424e-05
5.80855e-05
3.02102e-06
6.91252e-05
-5.41468e-06
7.47188e-05
-1.45362e-05
7.92736e-05
-2.44448e-05
8.49494e-05
-3.5564e-05
9.20628e-05
-4.83084e-05
0.000100009
-6.27803e-05
0.00010806
-7.89012e-05
0.000115691
-9.64934e-05
0.000122603
-0.000115328
0.000128661
-0.000135091
0.000133697
-0.000155587
0.000137731
-0.000176575
0.000140722
-0.00019784
0.00014269
-0.000219182
0.000143698
-0.00024043
0.000143799
-0.000261449
0.000143078
-0.000282125
0.000141625
-0.00030238
0.000139516
-0.000322102
0.000136827
-0.000341258
0.000133644
-0.00035978
0.000130031
-0.00037763
0.000126062
-0.000394776
0.000121791
-0.000411192
0.000117275
-0.000426869
0.000112566
-0.000441787
0.000107702
-0.000455917
0.000102711
-0.000469267
9.76441e-05
-0.000481819
9.25087e-05
-0.000493584
8.73476e-05
-0.000504532
8.21566e-05
-0.000514681
7.69627e-05
-0.000524035
7.17726e-05
-0.00053259
6.65843e-05
-0.000540352
6.1418e-05
-0.000547328
5.62619e-05
-0.000553531
5.11214e-05
-0.000558976
4.59986e-05
-0.000563653
4.08902e-05
-0.000567617
3.58209e-05
-0.000570868
3.07752e-05
-0.000573436
2.57437e-05
-0.00057535
2.07577e-05
-0.00057664
1.581e-05
-0.00057731
1.09024e-05
-0.000577374
6.04885e-06
-0.000576863
1.25685e-06
-0.000575762
-3.48392e-06
-0.000574104
-8.1318e-06
-0.000571891
-1.27042e-05
-0.000569124
-1.71903e-05
-0.000565847
-2.15663e-05
-0.000562044
-2.58589e-05
-0.000557721
-3.00588e-05
-0.000552897
-3.41438e-05
-0.000547584
-3.81231e-05
-0.00054179
-4.19982e-05
-0.000535532
-4.57573e-05
-0.000528828
-4.94014e-05
-0.000521681
-5.2938e-05
-0.000514106
-5.63559e-05
-0.000506135
-5.96485e-05
-0.000497768
-6.28304e-05
-0.000489023
-6.58904e-05
-0.000479912
-6.88326e-05
-0.000470454
-7.16506e-05
-0.000460665
-7.43475e-05
-0.000450559
-7.69213e-05
-0.000440151
-7.93721e-05
-0.000429457
-8.16985e-05
-0.000418491
-8.39111e-05
-0.00040727
-8.59772e-05
-0.000395807
-8.79119e-05
-0.000384116
-8.97233e-05
-0.000372207
-9.14056e-05
-0.000360095
-9.29536e-05
-0.000347791
-9.4367e-05
-0.000335294
-9.56491e-05
-0.00032263
-9.67872e-05
-0.000309786
-9.77849e-05
-0.000296783
-9.86298e-05
-0.000283624
-9.93295e-05
-0.000270315
-9.98797e-05
-0.000256854
-0.000100273
-0.000243261
-0.000100506
-0.000229513
-0.000100588
-0.000215637
-0.00010049
-0.000201626
-0.000100239
-0.000187501
-9.98156e-05
-0.000173271
-9.92351e-05
-0.000158959
-9.84968e-05
-0.000144593
-9.76078e-05
-0.000130217
-9.65704e-05
-0.000115884
-9.54009e-05
-0.000101655
-9.40981e-05
-8.75962e-05
-9.2675e-05
-7.38072e-05
-9.1112e-05
-6.03613e-05
-8.9415e-05
-4.7337e-05
-8.75783e-05
-3.4807e-05
-8.5585e-05
-2.28452e-05
-8.34213e-05
-1.15068e-05
-8.10753e-05
-8.38545e-07
-7.85329e-05
9.12074e-06
-7.57873e-05
1.83418e-05
-7.2819e-05
2.68332e-05
-6.96531e-05