/*--------------------------------*- C++ -*----------------------------------*\
| =========                 |                                                 |
| \\      /  F ield         | OpenFOAM: The Open Source CFD Toolbox           |
|  \\    /   O peration     | Version:  v2006                                 |
|   \\  /    A nd           | Website:  www.openfoam.com                      |
|    \\/     M anipulation  |                                                 |
\*---------------------------------------------------------------------------*/
FoamFile
{
    version     2.0;
    format      ascii;
    class       volScalarField;
    location    "4.6";
    object      p_rgh;
}
// * * * * * * * * * * * * * * * * * * * * * * * * * * * * * * * * * * * * * //

dimensions      [1 -1 -2 0 0 0 0];


internalField   nonuniform List<scalar> 
50000
(
3516.13
3515.64
3514.32
3512.77
3510.3
3507.53
3504.02
3500.04
3495.46
3490.35
3484.7
3478.51
3471.8
3464.58
3456.85
3448.63
3439.93
3430.77
3421.15
3411.08
3400.6
3389.7
3378.41
3366.73
3354.7
3342.31
3329.6
3316.58
3303.27
3289.68
3275.83
3261.75
3247.45
3232.95
3218.27
3203.44
3188.46
3173.37
3158.18
3142.91
3127.58
3112.21
3096.82
3081.43
3066.06
3050.73
3035.46
3020.26
3005.16
2990.18
2975.33
2960.63
2946.09
2931.75
2917.6
2903.67
2889.98
2876.53
2863.35
2850.44
2837.83
2825.52
2813.52
2801.85
2790.52
2779.55
2768.93
2758.68
2748.8
2739.31
2730.22
2721.52
2713.23
2705.35
2697.89
2690.84
2684.21
2678.01
2672.23
2666.88
2661.95
2657.45
2653.37
2649.72
2646.49
2643.67
2641.26
2639.26
2637.67
2636.47
2635.66
2635.24
2635.19
2635.51
2636.18
2637.21
2638.57
2640.26
2642.27
2644.58
2647.19
2650.08
2653.24
2656.67
2660.34
2664.24
2668.35
2672.66
2677.16
2681.84
2686.67
2691.65
2696.75
2701.97
2707.28
2712.67
2718.13
2723.65
2729.2
2734.76
2740.34
2745.9
2751.44
2756.93
2762.38
2767.75
2773.03
2778.22
2783.29
2788.24
2793.04
2797.69
2802.18
2806.48
2810.6
2814.52
2818.22
2821.71
2824.96
2827.98
2830.74
2833.26
2835.5
2837.51
2839.19
2840.66
2841.77
2842.68
2843.22
2843.55
3517.29
3516.8
3515.47
3513.91
3511.45
3508.65
3505.14
3501.14
3496.55
3491.43
3485.75
3479.55
3472.82
3465.57
3457.82
3449.57
3440.85
3431.65
3422
3411.91
3401.39
3390.46
3379.13
3367.42
3355.35
3342.93
3330.18
3317.12
3303.77
3290.14
3276.26
3262.14
3247.8
3233.26
3218.54
3203.67
3188.66
3173.52
3158.29
3142.98
3127.61
3112.2
3096.78
3081.35
3065.95
3050.58
3035.28
3020.05
3004.91
2989.9
2975.01
2960.29
2945.73
2931.35
2917.18
2903.22
2889.5
2876.02
2862.81
2849.88
2837.24
2824.91
2812.89
2801.2
2789.85
2778.85
2768.22
2757.95
2748.06
2738.56
2729.45
2720.74
2712.44
2704.55
2697.08
2690.03
2683.4
2677.19
2671.41
2666.06
2661.14
2656.64
2652.57
2648.92
2645.69
2642.89
2640.49
2638.51
2636.93
2635.74
2634.95
2634.54
2634.51
2634.85
2635.54
2636.59
2637.97
2639.69
2641.72
2644.05
2646.68
2649.6
2652.77
2656.21
2659.93
2663.84
2667.97
2672.31
2676.84
2681.54
2686.4
2691.4
2696.53
2701.77
2707.11
2712.53
2718.02
2723.57
2729.14
2734.74
2740.34
2745.94
2751.5
2757.03
2762.5
2767.9
2773.21
2778.42
2783.52
2788.5
2793.34
2798.01
2802.51
2806.84
2810.98
2814.91
2818.64
2822.14
2825.41
2828.44
2831.22
2833.76
2836
2838.04
2839.7
2841.22
2842.29
2843.25
2843.76
2844.11
3519.39
3518.9
3517.57
3516
3513.52
3510.72
3507.18
3503.17
3498.55
3493.4
3487.7
3481.46
3474.7
3467.41
3459.62
3451.34
3442.56
3433.32
3423.62
3413.48
3402.91
3391.92
3380.54
3368.77
3356.64
3344.15
3331.34
3318.22
3304.8
3291.1
3277.15
3262.96
3248.55
3233.94
3219.15
3204.21
3189.12
3173.92
3158.61
3143.23
3127.79
3112.3
3096.8
3081.3
3065.82
3050.38
3035
3019.71
3004.52
2989.43
2974.47
2959.66
2945.03
2930.59
2916.35
2902.33
2888.55
2875.02
2861.75
2848.77
2836.08
2823.69
2811.63
2799.9
2788.51
2777.47
2766.8
2756.5
2746.58
2737.05
2727.91
2719.18
2710.86
2702.96
2695.47
2688.4
2681.76
2675.55
2669.77
2664.42
2659.49
2655
2650.94
2647.3
2644.08
2641.29
2638.91
2636.95
2635.39
2634.23
2633.46
2633.08
2633.08
2633.45
2634.18
2635.26
2636.68
2638.44
2640.51
2642.9
2645.58
2648.54
2651.78
2655.27
2659.02
2662.99
2667.18
2671.58
2676.17
2680.93
2685.85
2690.92
2696.11
2701.41
2706.81
2712.29
2717.84
2723.44
2729.08
2734.74
2740.4
2746.05
2751.67
2757.25
2762.77
2768.23
2773.59
2778.86
2784
2789.02
2793.88
2798.61
2803.17
2807.54
2811.73
2815.7
2819.47
2823.01
2826.31
2829.38
2832.18
2834.75
2837.01
2839.08
2840.75
2842.29
2843.36
2844.34
2844.85
2845.19
3522.63
3522.14
3520.8
3519.21
3516.72
3513.89
3510.33
3506.28
3501.63
3496.44
3490.69
3484.41
3477.59
3470.25
3462.39
3454.04
3445.2
3435.89
3426.11
3415.89
3405.23
3394.16
3382.68
3370.82
3358.59
3346.01
3333.1
3319.87
3306.35
3292.55
3278.49
3264.19
3249.67
3234.95
3220.04
3204.98
3189.78
3174.46
3159.04
3143.54
3127.98
3112.38
3096.77
3081.16
3065.57
3050.02
3034.53
3019.12
3003.8
2988.62
2973.57
2958.68
2943.96
2929.42
2915.09
2900.99
2887.12
2873.5
2860.16
2847.09
2834.33
2821.87
2809.74
2797.94
2786.49
2775.39
2764.67
2754.32
2744.35
2734.78
2725.61
2716.84
2708.49
2700.56
2693.05
2685.96
2679.31
2673.09
2667.3
2661.94
2657.02
2652.54
2648.49
2644.86
2641.67
2638.9
2636.54
2634.61
2633.08
2631.96
2631.24
2630.9
2630.95
2631.37
2632.15
2633.29
2634.77
2636.59
2638.73
2641.18
2643.93
2646.96
2650.27
2653.84
2657.66
2661.72
2665.99
2670.46
2675.13
2680.01
2685.02
2690.17
2695.44
2700.84
2706.33
2711.9
2717.54
2723.23
2728.96
2734.71
2740.46
2746.2
2751.91
2757.58
2763.19
2768.72
2774.17
2779.51
2784.74
2789.84
2794.79
2799.58
2804.2
2808.64
2812.88
2816.92
2820.74
2824.33
2827.68
2830.79
2833.64
2836.24
2838.53
2840.63
2842.32
2843.89
2844.98
2845.97
2846.49
2846.83
3526.97
3526.47
3525.12
3523.51
3521
3518.13
3514.54
3510.45
3505.75
3500.5
3494.69
3488.34
3481.45
3474.03
3466.09
3457.65
3448.72
3439.31
3429.43
3419.1
3408.33
3397.14
3385.54
3373.56
3361.21
3348.5
3335.45
3322.09
3308.42
3294.48
3280.28
3265.83
3251.16
3236.29
3221.24
3206.03
3190.68
3175.21
3159.64
3143.99
3128.28
3112.54
3096.78
3081.02
3065.28
3049.58
3033.95
3018.4
3002.97
2987.63
2972.44
2957.4
2942.54
2927.88
2913.42
2899.19
2885.21
2871.48
2858.02
2844.85
2831.99
2819.43
2807.21
2795.32
2783.79
2772.61
2761.81
2751.4
2741.37
2731.74
2722.51
2713.7
2705.31
2697.34
2689.8
2682.69
2676.02
2669.79
2663.99
2658.64
2653.72
2649.24
2645.2
2641.6
2638.43
2635.69
2633.37
2631.48
2630
2628.93
2628.26
2627.98
2628.09
2628.58
2629.44
2630.65
2632.21
2634.12
2636.34
2638.89
2641.73
2644.87
2648.28
2651.95
2655.88
2660.04
2664.41
2668.99
2673.74
2678.84
2683.93
2689.19
2694.58
2700.09
2705.7
2711.39
2717.16
2722.97
2728.82
2734.68
2740.55
2746.41
2752.24
2758.02
2763.74
2769.39
2774.95
2780.4
2785.73
2790.93
2795.98
2800.86
2805.58
2810.1
2814.43
2818.54
2822.44
2826.1
2829.52
2832.69
2835.59
2838.25
2840.58
2842.72
2844.45
2846.04
2847.15
2848.16
2848.69
2849.04
3532.42
3531.91
3530.55
3528.91
3526.37
3523.46
3519.82
3515.67
3510.91
3505.6
3499.71
3493.27
3486.29
3478.78
3470.74
3462.18
3453.13
3443.6
3433.59
3423.12
3412.21
3400.88
3389.13
3376.99
3364.48
3351.61
3338.39
3324.86
3311.02
3296.9
3282.51
3267.89
3253.03
3237.98
3222.74
3207.34
3191.8
3176.14
3160.38
3144.54
3128.64
3112.7
3096.75
3080.8
3064.88
3049
3033.18
3017.45
3001.82
2986.32
2970.97
2955.77
2940.75
2925.92
2911.31
2896.93
2882.8
2868.93
2855.33
2842.03
2829.04
2816.37
2804.02
2792.03
2780.39
2769.12
2758.23
2747.73
2737.62
2727.92
2718.63
2709.76
2701.32
2693.3
2685.73
2678.59
2671.89
2665.64
2659.84
2654.48
2649.57
2645.1
2641.08
2637.5
2634.36
2631.66
2629.39
2627.55
2626.12
2625.11
2624.51
2624.31
2624.5
2625.08
2626.03
2627.34
2629
2631.01
2633.35
2636
2638.97
2642.22
2645.76
2649.57
2653.62
2657.92
2662.44
2667.17
2672.1
2677.24
2682.51
2687.93
2693.47
2699.14
2704.9
2710.75
2716.66
2722.63
2728.63
2734.64
2740.66
2746.67
2752.64
2758.57
2764.44
2770.23
2775.92
2781.51
2786.98
2792.3
2797.48
2802.48
2807.31
2811.95
2816.38
2820.59
2824.58
2828.33
2831.83
2835.08
2838.05
2840.77
2843.17
2845.35
2847.13
2848.75
2849.9
2850.92
2851.47
2851.83
3538.99
3538.46
3537.09
3535.42
3532.84
3529.88
3526.19
3521.98
3517.14
3511.74
3505.76
3499.22
3492.13
3484.5
3476.33
3467.64
3458.45
3448.77
3438.6
3427.97
3416.89
3405.38
3393.46
3381.13
3368.42
3355.35
3341.94
3328.19
3314.15
3299.81
3285.21
3270.36
3255.29
3240.01
3224.54
3208.92
3193.15
3177.26
3161.26
3145.19
3129.07
3112.9
3096.72
3080.55
3064.4
3048.3
3032.27
3016.32
3000.49
2984.77
2969.2
2953.8
2938.58
2923.56
2908.77
2894.2
2879.89
2865.85
2852.09
2838.63
2825.48
2812.66
2800.18
2788.05
2776.29
2764.9
2753.9
2743.29
2733.09
2723.31
2713.94
2705
2696.5
2688.43
2680.81
2673.63
2666.91
2660.64
2654.82
2649.46
2644.56
2640.11
2636.11
2632.56
2629.46
2626.8
2624.59
2622.8
2621.45
2620.52
2620
2619.89
2620.18
2620.86
2621.92
2623.34
2625.13
2627.26
2629.74
2632.53
2635.64
2639.04
2642.73
2646.7
2650.91
2655.38
2660.06
2664.97
2670.08
2675.37
2680.82
2686.42
2692.15
2697.99
2703.94
2709.97
2716.07
2722.22
2728.4
2734.6
2740.8
2746.99
2753.14
2759.24
2765.28
2771.24
2777.11
2782.86
2788.48
2793.96
2799.28
2804.43
2809.4
2814.17
2818.73
2823.07
2827.17
2831.03
2834.64
2837.97
2841.03
2843.83
2846.3
2848.54
2850.38
2852.03
2853.23
2854.27
2854.84
2855.21
3546.7
3546.16
3544.77
3543.05
3540.44
3537.42
3533.67
3529.37
3524.45
3518.95
3512.86
3506.2
3498.98
3491.21
3482.89
3474.05
3464.69
3454.83
3444.48
3433.66
3422.38
3410.66
3398.52
3385.98
3373.04
3359.74
3346.09
3332.1
3317.81
3303.22
3288.37
3273.26
3257.93
3242.38
3226.65
3210.76
3194.72
3178.56
3162.3
3145.96
3129.56
3113.13
3096.68
3080.24
3063.83
3047.47
3031.18
3014.98
2998.89
2982.93
2967.12
2951.48
2936.03
2920.79
2905.77
2890.99
2876.47
2862.22
2848.27
2834.62
2821.3
2808.3
2795.66
2783.38
2771.47
2759.94
2748.81
2738.08
2727.77
2717.88
2708.43
2699.41
2690.83
2682.7
2675.03
2667.81
2661.05
2654.76
2648.93
2643.57
2638.67
2634.24
2630.26
2626.75
2623.7
2621.1
2618.94
2617.23
2615.96
2615.12
2614.7
2614.7
2615.1
2615.9
2617.09
2618.65
2620.58
2622.87
2625.5
2628.45
2631.73
2635.31
2639.18
2643.32
2647.73
2652.39
2657.27
2662.38
2667.69
2673.18
2678.84
2684.65
2690.59
2696.65
2702.81
2709.06
2715.37
2721.74
2728.14
2734.55
2740.97
2747.36
2753.73
2760.04
2766.28
2772.44
2778.5
2784.44
2790.26
2795.92
2801.42
2806.74
2811.87
2816.8
2821.51
2825.99
2830.23
2834.22
2837.94
2841.39
2844.55
2847.44
2850
2852.3
2854.21
2855.91
2857.15
2858.22
2858.82
2859.19
3555.57
3555.01
3553.6
3551.84
3549.19
3546.1
3542.27
3537.88
3532.85
3527.24
3521.03
3514.23
3506.86
3498.93
3490.44
3481.41
3471.86
3461.8
3451.24
3440.2
3428.69
3416.74
3404.35
3391.55
3378.35
3364.78
3350.86
3336.6
3322.02
3307.14
3291.99
3276.59
3260.95
3245.1
3229.07
3212.87
3196.52
3180.05
3163.48
3146.83
3130.12
3113.38
3096.62
3079.88
3063.17
3046.5
3029.92
3013.42
2997.05
2980.8
2964.72
2948.8
2933.08
2917.58
2902.3
2887.28
2872.52
2858.04
2843.87
2830
2816.47
2803.28
2790.45
2777.98
2765.91
2754.22
2742.94
2732.08
2721.64
2711.64
2702.07
2692.96
2684.3
2676.1
2668.36
2661.1
2654.31
2647.99
2642.14
2636.78
2631.89
2627.47
2623.53
2620.06
2617.06
2614.52
2612.44
2610.82
2609.64
2608.9
2608.6
2608.72
2609.25
2610.19
2611.53
2613.25
2615.35
2617.81
2620.62
2623.76
2627.23
2631.01
2635.09
2639.45
2644.07
2648.95
2654.06
2659.4
2664.95
2670.67
2676.57
2682.62
2688.81
2695.11
2701.52
2708.02
2714.58
2721.19
2727.84
2734.5
2741.16
2747.8
2754.41
2760.96
2767.44
2773.83
2780.11
2786.28
2792.31
2798.18
2803.88
2809.41
2814.73
2819.84
2824.73
2829.38
2833.77
2837.91
2841.77
2845.34
2848.63
2851.62
2854.27
2856.65
2858.64
2860.4
2861.7
2862.79
2863.42
2863.81
3565.63
3565.05
3563.61
3561.8
3559.09
3555.93
3552.01
3547.52
3542.38
3536.64
3530.28
3523.33
3515.79
3507.67
3498.99
3489.76
3479.99
3469.7
3458.9
3447.6
3435.84
3423.61
3410.94
3397.86
3384.37
3370.49
3356.26
3341.68
3326.77
3311.57
3296.09
3280.35
3264.37
3248.18
3231.8
3215.24
3198.54
3181.72
3164.8
3147.8
3130.74
3113.65
3096.55
3079.45
3062.4
3045.4
3028.47
3011.65
2994.94
2978.38
2961.97
2945.75
2929.73
2913.93
2898.37
2883.06
2868.03
2853.29
2838.86
2824.75
2810.98
2797.57
2784.52
2771.86
2759.59
2747.72
2736.28
2725.26
2714.68
2704.54
2694.86
2685.64
2676.88
2668.6
2660.8
2653.48
2646.64
2640.3
2634.44
2629.07
2624.19
2619.8
2615.89
2612.47
2609.53
2607.06
2605.07
2603.54
2602.47
2601.85
2601.67
2601.93
2602.62
2603.72
2605.23
2607.13
2609.42
2612.07
2615.08
2618.44
2622.13
2626.14
2630.45
2635.05
2639.92
2645.05
2650.42
2656.03
2661.84
2667.83
2674
2680.32
2686.79
2693.38
2700.07
2706.84
2713.69
2720.58
2727.51
2734.45
2741.39
2748.31
2755.19
2762.01
2768.76
2775.41
2781.95
2788.37
2794.64
2800.76
2806.7
2812.45
2817.99
2823.31
2828.4
2833.23
2837.81
2842.11
2846.13
2849.85
2853.27
2856.38
2859.15
2861.62
2863.7
2865.52
2866.88
2868.01
2868.67
2869.07
3576.89
3576.29
3574.83
3572.96
3570.2
3566.94
3562.93
3558.32
3553.06
3547.17
3540.65
3533.52
3525.79
3517.47
3508.57
3499.1
3489.09
3478.54
3467.47
3455.89
3443.83
3431.3
3418.32
3404.91
3391.09
3376.88
3362.29
3347.36
3332.09
3316.52
3300.66
3284.55
3268.19
3251.61
3234.84
3217.89
3200.8
3183.58
3166.27
3148.87
3131.42
3113.93
3096.44
3078.96
3061.52
3044.14
3026.83
3009.64
2992.57
2975.64
2958.88
2942.31
2925.95
2909.82
2893.93
2878.31
2862.98
2847.94
2833.23
2818.85
2804.82
2791.15
2777.87
2764.98
2752.49
2740.43
2728.79
2717.6
2706.85
2696.57
2686.75
2677.41
2668.55
2660.18
2652.31
2644.93
2638.04
2631.66
2625.79
2620.42
2615.55
2611.18
2607.32
2603.95
2601.08
2598.69
2596.79
2595.37
2594.42
2593.94
2593.91
2594.33
2595.18
2596.47
2598.16
2600.27
2602.76
2605.64
2608.88
2612.48
2616.42
2620.68
2625.26
2630.12
2635.27
2640.69
2646.36
2652.25
2658.35
2664.65
2671.12
2677.76
2684.53
2691.43
2698.44
2705.53
2712.69
2719.9
2727.15
2734.41
2741.66
2748.89
2756.08
2763.2
2770.25
2777.2
2784.03
2790.73
2797.29
2803.67
2809.87
2815.88
2821.66
2827.22
2832.53
2837.58
2842.36
2846.86
2851.05
2854.94
2858.51
2861.76
2864.65
2867.23
2869.4
2871.3
2872.72
2873.9
2874.6
2875.01
3589.4
3588.78
3587.29
3585.36
3582.52
3579.17
3575.05
3570.32
3564.9
3558.85
3552.15
3544.83
3536.89
3528.34
3519.19
3509.47
3499.18
3488.35
3476.98
3465.09
3452.7
3439.84
3426.51
3412.74
3398.55
3383.95
3368.98
3353.65
3337.98
3322
3305.73
3289.19
3272.41
3255.4
3238.19
3220.82
3203.29
3185.63
3167.88
3150.04
3132.15
3114.23
3096.3
3078.39
3060.52
3042.72
3025
3007.38
2989.91
2972.58
2955.43
2938.48
2921.74
2905.24
2888.99
2873.02
2857.35
2841.99
2826.95
2812.27
2797.95
2784
2770.45
2757.31
2744.59
2732.3
2720.45
2709.07
2698.14
2687.7
2677.73
2668.26
2659.29
2650.82
2642.86
2635.41
2628.48
2622.06
2616.17
2610.79
2605.94
2601.6
2597.78
2594.48
2591.68
2589.39
2587.6
2586.3
2585.48
2585.15
2585.28
2585.87
2586.92
2588.4
2590.31
2592.64
2595.38
2598.5
2602
2605.86
2610.08
2614.62
2619.48
2624.65
2630.11
2635.86
2641.85
2648.06
2654.49
2661.12
2667.93
2674.91
2682.03
2689.28
2696.63
2704.08
2711.59
2719.16
2726.76
2734.37
2741.97
2749.54
2757.07
2764.54
2771.92
2779.2
2786.36
2793.38
2800.24
2806.93
2813.43
2819.71
2825.77
2831.59
2837.16
2842.45
2847.46
2852.16
2856.56
2860.63
2864.37
2867.77
2870.8
2873.5
2875.78
2877.76
2879.26
2880.49
2881.22
2881.66
3603.18
3602.53
3601.01
3599.01
3596.1
3592.64
3588.41
3583.53
3577.96
3571.72
3564.83
3557.29
3549.11
3540.31
3530.9
3520.89
3510.3
3499.15
3487.44
3475.21
3462.46
3449.23
3435.51
3421.35
3406.75
3391.74
3376.34
3360.57
3344.46
3328.02
3311.29
3294.29
3277.04
3259.56
3241.87
3224.02
3206
3187.87
3169.63
3151.31
3132.94
3114.53
3096.13
3077.74
3059.4
3041.13
3022.94
3004.87
2986.95
2969.18
2951.6
2934.22
2917.07
2900.16
2883.52
2867.17
2851.12
2835.39
2820.01
2804.99
2790.35
2776.1
2762.26
2748.84
2735.85
2723.32
2711.24
2699.64
2688.52
2677.89
2667.77
2658.15
2649.05
2640.47
2632.42
2624.9
2617.91
2611.46
2605.54
2600.17
2595.33
2591.03
2587.26
2584.02
2581.31
2579.12
2577.45
2576.28
2575.62
2575.45
2575.76
2576.55
2577.8
2579.51
2581.66
2584.24
2587.23
2590.63
2594.41
2598.57
2603.08
2607.94
2613.13
2618.61
2624.38
2630.57
2636.88
2643.44
2650.24
2657.23
2664.42
2671.78
2679.28
2686.91
2694.65
2702.49
2710.39
2718.35
2726.33
2734.33
2742.32
2750.28
2758.19
2766.03
2773.79
2781.43
2788.95
2796.32
2803.53
2810.55
2817.37
2823.98
2830.34
2836.45
2842.3
2847.85
2853.11
2858.06
2862.67
2866.95
2870.88
2874.45
2877.64
2880.47
2882.87
2884.94
2886.53
2887.81
2888.59
2889.04
3618.28
3617.6
3616.04
3613.96
3610.97
3607.39
3603.03
3598
3592.25
3585.82
3578.71
3570.93
3562.49
3553.42
3543.71
3533.39
3522.47
3510.96
3498.9
3486.28
3473.14
3459.49
3445.36
3430.76
3415.71
3400.24
3384.37
3368.13
3351.53
3334.6
3317.36
3299.85
3282.08
3264.08
3245.88
3227.49
3208.96
3190.29
3171.52
3152.67
3133.77
3114.84
3095.91
3077
3058.15
3039.36
3020.68
3002.11
2983.69
2965.44
2947.38
2929.53
2911.92
2894.57
2877.49
2860.72
2844.26
2828.14
2812.38
2796.99
2782
2767.41
2753.25
2739.52
2726.25
2713.45
2701.12
2689.28
2677.95
2667.13
2656.82
2647.05
2637.81
2629.11
2620.96
2613.35
2606.31
2599.81
2593.88
2588.5
2583.68
2579.42
2575.71
2572.55
2569.93
2567.85
2566.31
2565.29
2564.8
2564.81
2565.32
2566.33
2567.81
2569.76
2572.17
2575.02
2578.3
2582
2586.1
2590.58
2595.43
2600.63
2606.17
2612.04
2618.21
2624.69
2631.41
2638.38
2645.58
2652.98
2660.58
2668.35
2676.27
2684.33
2692.5
2700.76
2709.09
2717.47
2725.88
2734.31
2742.72
2751.1
2759.43
2767.69
2775.85
2783.9
2791.81
2799.57
2807.16
2814.55
2821.73
2828.68
2835.38
2841.82
2847.97
2853.82
2859.36
2864.57
2869.43
2873.94
2878.07
2881.83
2885.19
2888.17
2890.71
2892.88
2894.56
2895.9
2896.72
2897.2
3634.72
3634.02
3632.41
3630.26
3627.18
3623.47
3618.96
3613.76
3607.82
3601.17
3593.82
3585.79
3577.07
3567.69
3557.66
3546.99
3535.71
3523.83
3511.36
3498.33
3484.76
3470.67
3456.07
3440.99
3425.46
3409.49
3393.1
3376.34
3359.2
3341.74
3323.95
3305.88
3287.55
3268.99
3250.21
3231.25
3212.14
3192.89
3173.54
3154.12
3134.64
3115.14
3095.64
3076.16
3056.74
3037.4
3018.16
2999.06
2980.1
2961.32
2942.74
2924.38
2906.27
2888.44
2870.89
2853.65
2836.75
2820.2
2804.02
2788.24
2772.86
2757.9
2743.39
2729.34
2715.75
2702.65
2690.05
2677.96
2666.39
2655.36
2644.86
2634.91
2625.52
2616.69
2608.43
2600.74
2593.63
2587.1
2581.14
2575.76
2570.97
2566.74
2563.1
2560.02
2557.51
2555.55
2554.16
2553.3
2552.99
2553.2
2553.94
2555.18
2556.91
2559.13
2561.83
2564.98
2568.57
2572.6
2577.03
2581.87
2587.09
2592.67
2598.6
2604.86
2611.45
2618.32
2625.47
2632.87
2640.5
2648.35
2656.4
2664.62
2673
2681.52
2690.15
2698.88
2707.68
2716.53
2725.41
2734.3
2743.17
2752.02
2760.8
2769.51
2778.12
2786.61
2794.96
2803.14
2811.15
2818.95
2826.52
2833.86
2840.93
2847.72
2854.21
2860.38
2866.23
2871.72
2876.86
2881.61
2885.98
2889.95
2893.5
2896.64
2899.32
2901.61
2903.39
2904.8
2905.67
2906.18
3652.57
3651.83
3650.18
3647.93
3644.75
3640.91
3636.25
3630.86
3624.71
3617.83
3610.22
3601.9
3592.88
3583.17
3572.78
3561.75
3550.07
3537.77
3524.87
3511.39
3497.35
3482.77
3467.67
3452.07
3436.01
3419.49
3402.55
3385.22
3367.51
3349.45
3331.07
3312.4
3293.46
3274.28
3254.88
3235.3
3215.56
3195.68
3175.71
3155.65
3135.55
3115.42
3095.3
3075.21
3055.18
3035.23
3015.39
2995.69
2976.15
2956.8
2937.66
2918.75
2900.11
2881.74
2863.68
2845.95
2828.56
2811.55
2794.92
2778.69
2762.9
2747.55
2732.65
2718.24
2704.32
2690.9
2678
2665.63
2653.81
2642.54
2631.84
2621.7
2612.15
2603.18
2594.8
2587.02
2579.84
2573.26
2567.28
2561.91
2557.13
2552.96
2549.38
2546.4
2544
2542.19
2540.95
2540.27
2540.16
2540.59
2541.56
2543.06
2545.08
2547.59
2550.59
2554.07
2558.01
2562.39
2567.2
2572.42
2578.03
2584.03
2590.38
2597.08
2604.1
2611.42
2619.03
2626.89
2635
2643.33
2651.87
2660.59
2669.46
2678.48
2687.62
2696.85
2706.15
2715.51
2724.9
2734.3
2743.68
2753.03
2762.31
2771.52
2780.61
2789.59
2798.41
2807.06
2815.52
2823.76
2831.77
2839.52
2846.99
2854.17
2861.04
2867.57
2873.75
2879.56
2884.99
2890.03
2894.64
2898.84
2902.6
2905.92
2908.76
2911.18
2913.07
2914.55
2915.48
2916.01
3671.86
3671.09
3669.39
3667.04
3663.76
3659.76
3654.93
3649.34
3642.96
3635.83
3627.94
3619.31
3609.95
3599.89
3589.12
3577.68
3565.58
3552.83
3539.46
3525.49
3510.94
3495.83
3480.19
3464.03
3447.39
3430.28
3412.74
3394.79
3376.45
3357.75
3338.73
3319.4
3299.8
3279.95
3259.89
3239.63
3219.21
3198.66
3178
3157.27
3136.49
3115.69
3094.89
3074.14
3053.44
3032.84
3012.36
2992.02
2971.85
2951.87
2932.12
2912.62
2893.39
2874.46
2855.84
2837.57
2819.66
2802.14
2785.02
2768.33
2752.08
2736.3
2721
2706.19
2691.9
2678.14
2664.92
2652.26
2640.16
2628.64
2617.71
2607.37
2597.64
2588.53
2580.02
2572.14
2564.89
2558.26
2552.26
2546.89
2542.14
2538.02
2534.52
2531.64
2529.37
2527.71
2526.64
2526.16
2526.27
2526.94
2528.17
2529.95
2532.27
2535.1
2538.44
2542.27
2546.58
2551.35
2556.56
2562.2
2568.25
2574.69
2581.5
2588.67
2596.16
2603.97
2612.07
2620.44
2629.06
2637.92
2646.98
2656.23
2665.64
2675.2
2684.89
2694.67
2704.52
2714.43
2724.37
2734.32
2744.25
2754.14
2763.97
2773.71
2783.34
2792.84
2802.17
2811.33
2820.28
2829.01
2837.49
2845.7
2853.62
2861.22
2868.49
2875.41
2881.96
2888.12
2893.87
2899.21
2904.11
2908.55
2912.54
2916.06
2919.07
2921.63
2923.64
2925.2
2926.2
2926.76
3692.65
3691.84
3690.08
3687.64
3684.23
3680.08
3675.06
3669.25
3662.63
3655.22
3647.03
3638.06
3628.35
3617.89
3606.72
3594.84
3582.27
3569.04
3555.16
3540.66
3525.56
3509.88
3493.65
3476.88
3459.62
3441.87
3423.68
3405.06
3386.05
3366.67
3346.94
3326.91
3306.6
3286.03
3265.24
3244.25
3223.1
3201.82
3180.43
3158.96
3137.45
3115.92
3094.4
3072.93
3051.52
3030.21
3009.03
2988
2967.15
2946.51
2926.11
2905.96
2886.1
2866.55
2847.34
2828.49
2810.01
2791.94
2774.3
2757.1
2740.37
2724.12
2708.38
2693.15
2678.47
2664.34
2650.77
2637.78
2625.39
2613.6
2602.43
2591.88
2581.96
2572.68
2564.04
2556.06
2548.72
2542.04
2536.02
2530.65
2525.94
2521.88
2518.47
2515.7
2513.57
2512.07
2511.19
2510.93
2511.27
2512.2
2513.72
2515.81
2518.44
2521.63
2525.33
2529.55
2534.26
2539.45
2545.09
2551.18
2557.7
2564.62
2571.93
2579.6
2587.61
2595.95
2604.58
2613.5
2622.67
2632.09
2641.72
2651.54
2661.54
2671.68
2681.95
2692.32
2702.78
2713.28
2723.82
2734.36
2744.88
2755.37
2765.78
2776.1
2786.31
2796.37
2806.27
2815.98
2825.47
2834.72
2843.71
2852.42
2860.82
2868.89
2876.6
2883.95
2890.9
2897.44
2903.54
2909.21
2914.41
2919.13
2923.36
2927.1
2930.31
2933.02
2935.15
2936.81
2937.87
2938.47
3714.99
3714.14
3712.32
3709.77
3706.24
3701.91
3696.7
3690.65
3683.76
3676.06
3667.53
3658.21
3648.11
3637.24
3625.61
3613.26
3600.19
3586.44
3572.01
3556.94
3541.24
3524.95
3508.08
3490.66
3472.73
3454.3
3435.4
3416.06
3396.32
3376.2
3355.73
3334.93
3313.85
3292.51
3270.94
3249.17
3227.23
3205.16
3182.98
3160.72
3138.43
3116.11
3093.82
3071.57
3049.39
3027.32
3005.39
2983.62
2962.04
2940.69
2919.58
2898.74
2878.2
2858
2838.14
2818.66
2799.58
2780.92
2762.71
2744.97
2727.72
2710.97
2694.75
2679.08
2663.97
2649.43
2635.5
2622.16
2609.45
2597.38
2585.94
2575.16
2565.04
2555.59
2546.81
2538.71
2531.29
2524.56
2518.52
2513.15
2508.48
2504.48
2501.17
2498.52
2496.54
2495.22
2494.55
2494.52
2495.12
2496.34
2498.17
2500.58
2503.58
2507.13
2511.23
2515.86
2521.01
2526.65
2532.76
2539.34
2546.36
2553.82
2561.66
2569.87
2578.43
2587.33
2596.54
2606.04
2615.81
2625.82
2636.07
2646.51
2657.13
2667.9
2678.81
2689.82
2700.91
2712.06
2723.23
2734.42
2745.58
2756.7
2767.75
2778.7
2789.53
2800.21
2810.71
2821.02
2831.09
2840.92
2850.47
2859.71
2868.64
2877.21
2885.41
2893.21
2900.6
2907.55
2914.05
2920.07
2925.6
2930.62
2935.13
2939.1
2942.51
2945.39
2947.67
2949.43
2950.56
2951.2
3738.96
3738.06
3736.18
3733.51
3729.83
3725.32
3719.89
3713.59
3706.42
3698.39
3689.51
3679.81
3669.28
3657.96
3645.86
3632.99
3619.39
3605.07
3590.05
3574.37
3558.03
3541.07
3523.52
3505.4
3486.74
3467.57
3447.92
3427.82
3407.29
3386.37
3365.09
3343.48
3321.57
3299.4
3276.99
3254.38
3231.6
3208.68
3185.65
3162.55
3139.41
3116.26
3093.13
3070.05
3047.05
3024.17
3001.43
2978.86
2956.5
2934.37
2912.51
2890.93
2869.67
2848.75
2828.21
2808.05
2788.32
2769.04
2750.22
2731.89
2714.08
2696.8
2680.07
2663.91
2648.34
2633.38
2619.05
2605.34
2592.29
2579.91
2568.19
2557.16
2546.83
2537.19
2528.26
2520.04
2512.54
2505.75
2499.68
2494.33
2489.7
2485.78
2482.56
2480.05
2478.24
2477.12
2476.67
2476.9
2477.78
2479.31
2481.46
2484.24
2487.61
2491.58
2496.1
2501.18
2506.8
2512.92
2519.54
2526.63
2534.15
2542.29
2550.66
2559.44
2568.59
2578.09
2587.92
2598.04
2608.45
2619.12
2630.02
2641.12
2652.41
2663.86
2675.44
2687.14
2698.92
2710.75
2722.62
2734.5
2746.35
2758.16
2769.89
2781.52
2793.02
2804.36
2815.52
2826.47
2837.18
2847.63
2857.78
2867.61
2877.1
2886.22
2894.94
2903.25
2911.11
2918.52
2925.43
2931.85
2937.74
2943.09
2947.89
2952.12
2955.76
2958.82
2961.25
2963.12
2964.33
2965.01
3764.6
3763.65
3761.7
3758.91
3755.08
3750.37
3744.71
3738.14
3730.66
3722.28
3713.03
3702.9
3691.93
3680.12
3667.5
3654.09
3639.91
3624.98
3609.33
3592.98
3575.96
3558.29
3540.01
3521.13
3501.7
3481.73
3461.27
3440.34
3418.97
3397.2
3375.05
3352.57
3329.77
3306.71
3283.4
3259.89
3236.2
3212.38
3188.44
3164.44
3140.39
3116.34
3092.31
3068.34
3044.47
3020.71
2997.11
2973.69
2950.5
2927.54
2904.87
2882.5
2860.46
2838.78
2817.5
2796.63
2776.2
2756.24
2736.77
2717.82
2699.41
2681.55
2664.28
2647.6
2631.55
2616.13
2601.36
2587.26
2573.85
2561.13
2549.12
2537.82
2527.26
2517.43
2508.33
2499.99
2492.39
2485.55
2479.46
2474.12
2469.54
2465.7
2462.6
2460.24
2458.61
2457.7
2457.5
2458
2459.18
2461.04
2463.56
2466.73
2470.52
2474.91
2479.91
2485.47
2491.59
2498.23
2505.4
2513.06
2521.22
2529.84
2538.85
2548.26
2558.06
2568.21
2578.7
2589.5
2600.59
2611.95
2623.55
2635.36
2647.37
2659.54
2671.85
2684.28
2696.79
2709.37
2721.98
2734.6
2747.19
2759.74
2772.2
2784.56
2796.79
2808.85
2820.72
2832.36
2843.75
2854.87
2865.67
2876.14
2886.24
2895.96
2905.25
2914.1
2922.49
2930.38
2937.75
2944.59
2950.88
2956.59
2961.7
2966.22
2970.1
2973.37
2975.97
2977.95
2979.25
2979.98
3792
3791
3788.97
3786.04
3782.06
3777.13
3771.22
3764.36
3756.55
3747.8
3738.13
3727.56
3716.1
3703.78
3690.6
3676.61
3661.81
3646.23
3629.89
3612.83
3595.07
3576.64
3557.57
3537.89
3517.62
3496.81
3475.48
3453.66
3431.39
3408.7
3385.63
3362.2
3338.47
3314.45
3290.18
3265.7
3241.05
3216.25
3191.35
3166.38
3141.36
3116.35
3091.37
3066.45
3041.63
3016.94
2992.42
2968.09
2944
2920.17
2896.63
2873.41
2850.54
2828.05
2805.98
2784.34
2763.17
2742.49
2722.33
2702.7
2683.65
2665.18
2647.32
2630.09
2613.51
2597.6
2582.38
2567.86
2554.06
2540.98
2528.65
2517.08
2506.27
2496.23
2486.96
2478.48
2470.79
2463.89
2457.78
2452.46
2447.93
2444.18
2441.21
2439.01
2437.58
2436.9
2436.96
2437.76
2439.28
2441.5
2444.41
2447.99
2452.23
2457.1
2462.59
2468.68
2475.34
2482.55
2490.28
2498.51
2507.41
2516.61
2526.26
2536.34
2546.82
2557.66
2568.86
2580.38
2592.2
2604.3
2616.64
2629.21
2641.99
2654.93
2668.02
2681.23
2694.53
2707.9
2721.3
2734.71
2748.1
2761.44
2774.69
2787.84
2800.84
2813.68
2826.31
2838.7
2850.83
2862.67
2874.18
2885.34
2896.11
2906.46
2916.38
2925.82
2934.76
2943.19
2951.06
2958.37
2965.08
2971.18
2976.64
2981.47
2985.62
2989.11
2991.88
2994
2995.4
2996.17
3821.22
3820.17
3818.06
3814.99
3810.83
3805.68
3799.5
3792.32
3784.15
3775.01
3764.9
3753.85
3741.87
3728.99
3715.22
3700.59
3685.13
3668.85
3651.79
3633.97
3615.42
3596.17
3576.26
3555.71
3534.55
3512.83
3490.56
3467.8
3444.56
3420.9
3396.83
3372.41
3347.66
3322.62
3297.33
3271.82
3246.13
3220.3
3194.36
3168.36
3142.31
3116.27
3090.27
3064.34
3038.51
3012.83
2987.32
2962.03
2936.98
2912.21
2887.74
2863.62
2839.87
2816.52
2793.6
2771.14
2749.18
2727.73
2706.82
2686.48
2666.74
2647.62
2629.13
2611.31
2594.18
2577.75
2562.04
2547.06
2532.84
2519.39
2506.73
2494.85
2483.78
2473.52
2464.07
2455.45
2447.66
2440.7
2434.57
2429.27
2424.8
2421.15
2418.32
2416.3
2415.08
2414.66
2415.01
2416.13
2418.01
2420.62
2423.96
2427.99
2432.71
2438.09
2444.12
2450.76
2458.01
2465.83
2474.2
2483.12
2492.57
2502.48
2512.84
2523.63
2534.84
2546.43
2558.37
2570.66
2583.26
2596.14
2609.28
2622.66
2636.25
2650.01
2663.93
2677.98
2692.12
2706.33
2720.58
2734.84
2749.08
2763.27
2777.37
2791.36
2805.2
2818.86
2832.31
2845.52
2858.45
2871.06
2883.34
2895.24
2906.73
2917.78
2928.36
2938.45
2948
2957
2965.42
2973.23
2980.4
2986.93
2992.78
2997.93
3002.38
3006.11
3009.08
3011.34
3012.84
3013.67
3852.35
3851.25
3849.04
3845.83
3841.47
3836.08
3829.61
3822.1
3813.55
3803.98
3793.4
3781.84
3769.3
3755.82
3741.42
3726.12
3709.94
3692.91
3675.07
3656.43
3637.04
3616.92
3596.1
3574.62
3552.52
3529.82
3506.56
3482.78
3458.52
3433.81
3408.69
3383.19
3357.36
3331.24
3304.85
3278.24
3251.45
3224.52
3197.48
3170.37
3143.23
3116.09
3089
3061.99
3035.1
3008.36
2981.8
2955.48
2929.41
2903.64
2878.19
2853.1
2828.4
2804.13
2780.32
2756.99
2734.17
2711.9
2690.2
2669.1
2648.63
2628.81
2609.66
2591.21
2573.48
2556.49
2540.26
2524.8
2510.14
2496.29
2483.26
2471.06
2459.71
2449.22
2439.58
2430.82
2422.92
2415.9
2409.75
2404.47
2400.07
2396.53
2393.85
2392.03
2391.05
2390.9
2391.57
2393.04
2395.31
2398.35
2402.14
2406.66
2411.9
2417.83
2424.43
2431.68
2439.55
2448.03
2457.08
2466.69
2476.83
2487.46
2498.57
2510.12
2522.09
2534.47
2547.22
2560.32
2573.74
2587.46
2601.45
2615.68
2630.13
2644.77
2659.58
2674.51
2689.55
2704.66
2719.81
2734.98
2750.13
2765.22
2780.24
2795.13
2809.87
2824.42
2838.75
2852.83
2866.62
2880.07
2893.17
2905.87
2918.15
2929.95
2941.26
2952.04
2962.26
2971.88
2980.89
2989.25
2996.93
3003.91
3010.18
3015.7
3020.47
3024.46
3027.64
3030.06
3031.67
3032.56
3885.48
3884.33
3882.02
3878.64
3874.08
3868.43
3861.65
3853.78
3844.82
3834.8
3823.71
3811.6
3798.47
3784.35
3769.26
3753.24
3736.29
3718.47
3699.79
3680.28
3659.99
3638.93
3617.15
3594.68
3571.56
3547.82
3523.5
3498.64
3473.28
3447.46
3421.21
3394.57
3367.59
3340.31
3312.75
3284.98
3257.01
3228.9
3200.69
3172.41
3144.1
3115.8
3087.55
3059.39
3031.36
3003.5
2975.83
2948.4
2921.25
2894.41
2867.92
2841.8
2816.1
2790.85
2766.08
2741.81
2718.1
2694.95
2672.41
2650.5
2629.25
2608.68
2588.82
2569.7
2551.33
2533.75
2516.96
2501
2485.86
2471.58
2458.17
2445.64
2433.99
2423.25
2413.41
2404.49
2396.48
2389.4
2383.23
2377.99
2373.66
2370.24
2367.74
2366.12
2365.4
2365.55
2366.56
2368.42
2371.11
2374.6
2378.89
2383.94
2389.74
2396.27
2403.49
2411.38
2419.93
2429.09
2438.86
2449.22
2460.1
2471.51
2483.4
2495.76
2508.56