/*--------------------------------*- C++ -*----------------------------------*\
| =========                 |                                                 |
| \\      /  F ield         | OpenFOAM: The Open Source CFD Toolbox           |
|  \\    /   O peration     | Version:  v2006                                 |
|   \\  /    A nd           | Website:  www.openfoam.com                      |
|    \\/     M anipulation  |                                                 |
\*---------------------------------------------------------------------------*/
FoamFile
{
    version     2.0;
    format      ascii;
    class       volVectorField;
    location    "0";
    object      U;
}
// * * * * * * * * * * * * * * * * * * * * * * * * * * * * * * * * * * * * * //

dimensions      [0 1 -1 0 0 0 0];


internalField   nonuniform List<vector> 
67500
(
(0.0280227 -0.011549 0)
(0.0268048 -0.020446 0)
(0.0891005 -0.0201812 0)
(0.127214 -0.0185273 0)
(0.158841 -0.0175705 0)
(0.193106 -0.0171255 0)
(0.227887 -0.0168663 0)
(0.261509 -0.0165976 0)
(0.294291 -0.016256 0)
(0.326425 -0.0158547 0)
(0.357747 -0.0154157 0)
(0.388142 -0.0149492 0)
(0.417571 -0.01446 0)
(0.446002 -0.0139528 0)
(0.4734 -0.0134328 0)
(0.499745 -0.0129049 0)
(0.525026 -0.0123737 0)
(0.549242 -0.0118436 0)
(0.572399 -0.0113182 0)
(0.59451 -0.0108006 0)
(0.615594 -0.0102937 0)
(0.635674 -0.00979948 0)
(0.654779 -0.00931978 0)
(0.672939 -0.00885588 0)
(0.690187 -0.00840874 0)
(0.706558 -0.00797899 0)
(0.722086 -0.00756697 0)
(0.736808 -0.00717283 0)
(0.75076 -0.00679649 0)
(0.763977 -0.00643775 0)
(0.776495 -0.00609626 0)
(0.788346 -0.00577158 0)
(0.799565 -0.00546322 0)
(0.810183 -0.00517062 0)
(0.820232 -0.00489317 0)
(0.829742 -0.00463027 0)
(0.83874 -0.00438128 0)
(0.847254 -0.00414558 0)
(0.855309 -0.00392254 0)
(0.862932 -0.00371154 0)
(0.870144 -0.00351198 0)
(0.876969 -0.00332328 0)
(0.883427 -0.00314487 0)
(0.889538 -0.00297621 0)
(0.895322 -0.00281679 0)
(0.900797 -0.0026661 0)
(0.905978 -0.00252367 0)
(0.910883 -0.00238904 0)
(0.915527 -0.0022618 0)
(0.919924 -0.00214153 0)
(0.924086 -0.00202784 0)
(0.928029 -0.00192036 0)
(0.931762 -0.00181876 0)
(0.935298 -0.00172269 0)
(0.938647 -0.00163185 0)
(0.94182 -0.00154594 0)
(0.944826 -0.00146468 0)
(0.947674 -0.0013878 0)
(0.950373 -0.00131507 0)
(0.952931 -0.00124623 0)
(0.955354 -0.00118108 0)
(0.957651 -0.0011194 0)
(0.959828 -0.00106098 0)
(0.961892 -0.00100566 0)
(0.963848 -0.000953239 0)
(0.965702 -0.000903571 0)
(0.967459 -0.000856495 0)
(0.969125 -0.000811869 0)
(0.970704 -0.000769558 0)
(0.972201 -0.000729436 0)
(0.97362 -0.000691386 0)
(0.974965 -0.000655298 0)
(0.976239 -0.000621069 0)
(0.977447 -0.000588603 0)
(0.978592 -0.000557812 0)
(0.979677 -0.000528608 0)
(0.980704 -0.000500914 0)
(0.981679 -0.000474653 0)
(0.982602 -0.000449753 0)
(0.983476 -0.000426146 0)
(0.984305 -0.000403768 0)
(0.98509 -0.000382555 0)
(0.985834 -0.000362449 0)
(0.986539 -0.000343394 0)
(0.987206 -0.000325336 0)
(0.987839 -0.000308224 0)
(0.988438 -0.00029201 0)
(0.989006 -0.000276648 0)
(0.989544 -0.000262095 0)
(0.990054 -0.000248308 0)
(0.990536 -0.00023525 0)
(0.990994 -0.000222884 0)
(0.991427 -0.000211173 0)
(0.991838 -0.000200085 0)
(0.992227 -0.000189588 0)
(0.992596 -0.000179652 0)
(0.992945 -0.000170248 0)
(0.993276 -0.000161349 0)
(0.99359 -0.000152927 0)
(0.993887 -0.000144959 0)
(0.994169 -0.00013742 0)
(0.994436 -0.000130288 0)
(0.99469 -0.00012354 0)
(0.99493 -0.000117155 0)
(0.995158 -0.000111115 0)
(0.995374 -0.000105401 0)
(0.995579 -9.99932e-05 0)
(0.995774 -9.48764e-05 0)
(0.995959 -9.0034e-05 0)
(0.996134 -8.5451e-05 0)
(0.9963 -8.11132e-05 0)
(0.996458 -7.7007e-05 0)
(0.996608 -7.31198e-05 0)
(0.99675 -6.94397e-05 0)
(0.996885 -6.59553e-05 0)
(0.997014 -6.26561e-05 0)
(0.997136 -5.95322e-05 0)
(0.997252 -5.6574e-05 0)
(0.997362 -5.37728e-05 0)
(0.997467 -5.11202e-05 0)
(0.997566 -4.86081e-05 0)
(0.997661 -4.62293e-05 0)
(0.997751 -4.39764e-05 0)
(0.997837 -4.18429e-05 0)
(0.997918 -3.98224e-05 0)
(0.997996 -3.79089e-05 0)
(0.99807 -3.60965e-05 0)
(0.99814 -3.438e-05 0)
(0.998207 -3.27541e-05 0)
(0.998271 -3.12139e-05 0)
(0.998332 -2.97549e-05 0)
(0.99839 -2.83726e-05 0)
(0.998445 -2.70629e-05 0)
(0.998498 -2.58218e-05 0)
(0.998549 -2.46455e-05 0)
(0.998597 -2.35306e-05 0)
(0.998643 -2.24736e-05 0)
(0.998687 -2.14714e-05 0)
(0.998729 -2.05211e-05 0)
(0.998769 -1.96197e-05 0)
(0.998807 -1.87646e-05 0)
(0.998844 -1.79533e-05 0)
(0.998879 -1.71833e-05 0)
(0.998912 -1.64526e-05 0)
(0.998945 -1.57589e-05 0)
(0.998975 -1.51003e-05 0)
(0.999005 -1.44748e-05 0)
(0.999033 -1.38808e-05 0)
(0.99906 -1.33166e-05 0)
(0.999086 -1.27807e-05 0)
(0.999111 -1.22714e-05 0)
(0.999136 -1.17876e-05 0)
(0.999159 -1.13279e-05 0)
(0.999181 -1.08911e-05 0)
(0.999202 -1.0476e-05 0)
(0.999223 -1.00816e-05 0)
(0.999242 -9.70687e-06 0)
(0.999261 -9.3508e-06 0)
(0.99928 -9.01251e-06 0)
(0.999298 -8.69116e-06 0)
(0.999315 -8.38592e-06 0)
(0.999331 -8.09603e-06 0)
(0.999347 -7.82076e-06 0)
(0.999362 -7.55941e-06 0)
(0.999377 -7.31133e-06 0)
(0.999392 -7.07588e-06 0)
(0.999405 -6.85247e-06 0)
(0.999419 -6.64051e-06 0)
(0.999432 -6.43946e-06 0)
(0.999445 -6.24879e-06 0)
(0.999457 -6.06798e-06 0)
(0.999469 -5.89656e-06 0)
(0.999481 -5.73405e-06 0)
(0.999492 -5.57999e-06 0)
(0.999503 -5.43396e-06 0)
(0.999514 -5.29554e-06 0)
(0.999524 -5.16431e-06 0)
(0.999534 -5.03988e-06 0)
(0.999544 -4.92188e-06 0)
(0.999554 -4.80994e-06 0)
(0.999563 -4.70371e-06 0)
(0.999573 -4.60283e-06 0)
(0.999582 -4.50699e-06 0)
(0.999591 -4.41585e-06 0)
(0.9996 -4.32911e-06 0)
(0.999608 -4.24647e-06 0)
(0.999616 -4.16764e-06 0)
(0.999625 -4.09233e-06 0)
(0.999633 -4.02028e-06 0)
(0.999641 -3.95122e-06 0)
(0.999649 -3.8849e-06 0)
(0.999656 -3.82108e-06 0)
(0.999664 -3.75951e-06 0)
(0.999671 -3.69998e-06 0)
(0.999679 -3.64225e-06 0)
(0.999686 -3.58612e-06 0)
(0.999693 -3.5314e-06 0)
(0.9997 -3.47787e-06 0)
(0.999707 -3.42536e-06 0)
(0.999714 -3.37369e-06 0)
(0.99972 -3.32269e-06 0)
(0.999727 -3.27221e-06 0)
(0.999734 -3.22208e-06 0)
(0.99974 -3.17219e-06 0)
(0.999746 -3.12239e-06 0)
(0.999752 -3.07258e-06 0)
(0.999759 -3.02264e-06 0)
(0.999765 -2.9725e-06 0)
(0.99977 -2.92206e-06 0)
(0.999776 -2.87128e-06 0)
(0.999782 -2.8201e-06 0)
(0.999788 -2.76847e-06 0)
(0.999793 -2.7164e-06 0)
(0.999798 -2.66385e-06 0)
(0.999804 -2.61085e-06 0)
(0.999809 -2.55741e-06 0)
(0.999814 -2.50356e-06 0)
(0.999819 -2.44935e-06 0)
(0.999824 -2.39484e-06 0)
(0.999828 -2.34009e-06 0)
(0.999833 -2.28517e-06 0)
(0.999838 -2.23019e-06 0)
(0.999842 -2.17522e-06 0)
(0.999846 -2.12036e-06 0)
(0.99985 -2.06573e-06 0)
(0.999855 -2.01143e-06 0)
(0.999858 -1.95756e-06 0)
(0.999862 -1.90422e-06 0)
(0.999866 -1.85152e-06 0)
(0.99987 -1.79953e-06 0)
(0.999873 -1.74834e-06 0)
(0.999877 -1.698e-06 0)
(0.99988 -1.64855e-06 0)
(0.999883 -1.60001e-06 0)
(0.999886 -1.55239e-06 0)
(0.99989 -1.50567e-06 0)
(0.999893 -1.45983e-06 0)
(0.999895 -1.41484e-06 0)
(0.999898 -1.37068e-06 0)
(0.999901 -1.32733e-06 0)
(0.999903 -1.2848e-06 0)
(0.999906 -1.24311e-06 0)
(0.999908 -1.20232e-06 0)
(0.999911 -1.1625e-06 0)
(0.999913 -1.12374e-06 0)
(0.999915 -1.08614e-06 0)
(0.999917 -1.04979e-06 0)
(0.99992 -1.01478e-06 0)
(0.999922 -9.81181e-07 0)
(0.999923 -9.49023e-07 0)
(0.999925 -9.18313e-07 0)
(0.999927 -8.89026e-07 0)
(0.999929 -8.61107e-07 0)
(0.999931 -8.34477e-07 0)
(0.999932 -8.09041e-07 0)
(0.999934 -7.84692e-07 0)
(0.999935 -7.61322e-07 0)
(0.999937 -7.38824e-07 0)
(0.999938 -7.171e-07 0)
(0.99994 -6.96062e-07 0)
(0.999941 -6.75635e-07 0)
(0.999942 -6.55758e-07 0)
(0.999944 -6.36383e-07 0)
(0.999945 -6.17474e-07 0)
(0.999946 -5.9901e-07 0)
(0.999947 -5.80973e-07 0)
(0.999948 -5.63359e-07 0)
(0.99995 -5.46165e-07 0)
(0.999951 -5.29394e-07 0)
(0.999952 -5.13051e-07 0)
(0.999953 -4.97142e-07 0)
(0.999954 -4.81673e-07 0)
(0.999955 -4.66652e-07 0)
(0.999956 -4.52084e-07 0)
(0.999956 -4.37971e-07 0)
(0.999957 -4.24315e-07 0)
(0.999958 -4.11116e-07 0)
(0.999959 -3.98373e-07 0)
(0.99996 -3.8608e-07 0)
(0.999961 -3.74233e-07 0)
(0.999961 -3.62825e-07 0)
(0.999962 -3.51847e-07 0)
(0.999963 -3.41289e-07 0)
(0.999963 -3.31141e-07 0)
(0.999964 -3.21392e-07 0)
(0.999965 -3.12029e-07 0)
(0.999965 -3.0304e-07 0)
(0.999966 -2.94411e-07 0)
(0.999966 -2.8613e-07 0)
(0.999967 -2.78185e-07 0)
(0.999968 -2.7056e-07 0)
(0.999968 -2.63244e-07 0)
(0.999969 -2.56224e-07 0)
(0.999969 -2.49486e-07 0)
(0.99997 -2.43019e-07 0)
(0.99997 -2.3681e-07 0)
(0.999971 -2.30848e-07 0)
(0.999971 -2.25121e-07 0)
(0.999971 -2.19619e-07 0)
(0.999972 -2.14331e-07 0)
(0.999972 -2.09247e-07 0)
(0.999973 -2.04356e-07 0)
(0.999973 -1.99651e-07 0)
(0.999973 -1.95122e-07 0)
(0.999974 -1.9076e-07 0)
(0.999974 -1.86557e-07 0)
(0.999975 -1.82506e-07 0)
(0.999975 -1.78598e-07 0)
(0.999975 -1.74828e-07 0)
(0.999976 -1.71189e-07 0)
(0.999976 -1.67674e-07 0)
(0.999976 -1.64277e-07 0)
(0.999977 -1.60992e-07 0)
(0.999977 -1.57815e-07 0)
(0.999977 -1.54739e-07 0)
(0.999978 -1.5176e-07 0)
(0.999978 -1.48874e-07 0)
(0.999978 -1.46075e-07 0)
(0.999978 -1.43361e-07 0)
(0.999979 -1.40726e-07 0)
(0.999979 -1.38167e-07 0)
(0.999979 -1.35681e-07 0)
(0.99998 -1.33264e-07 0)
(0.99998 -1.30913e-07 0)
(0.99998 -1.28625e-07 0)
(0.99998 -1.26398e-07 0)
(0.999981 -1.24228e-07 0)
(0.999981 -1.22113e-07 0)
(0.999981 -1.2005e-07 0)
(0.999981 -1.18038e-07 0)
(0.999982 -1.16074e-07 0)
(0.999982 -1.14156e-07 0)
(0.999982 -1.12282e-07 0)
(0.999982 -1.10451e-07 0)
(0.999982 -1.0866e-07 0)
(0.999983 -1.06907e-07 0)
(0.999983 -1.05192e-07 0)
(0.999983 -1.03512e-07 0)
(0.999983 -1.01867e-07 0)
(0.999984 -1.00255e-07 0)
(0.999984 -9.86741e-08 0)
(0.999984 -9.71242e-08 0)
(0.999984 -9.56038e-08 0)
(0.999984 -9.41118e-08 0)
(0.999984 -9.2647e-08 0)
(0.999985 -9.12084e-08 0)
(0.999985 -8.97951e-08 0)
(0.999985 -8.84061e-08 0)
(0.999985 -8.70407e-08 0)
(0.999985 -8.56981e-08 0)
(0.999986 -8.43776e-08 0)
(0.999986 -8.30784e-08 0)
(0.999986 -8.17998e-08 0)
(0.999986 -8.05411e-08 0)
(0.999986 -7.93018e-08 0)
(0.999986 -7.80812e-08 0)
(0.999987 -7.68788e-08 0)
(0.999987 -7.5694e-08 0)
(0.999987 -7.45263e-08 0)
(0.999987 -7.33752e-08 0)
(0.999987 -7.22402e-08 0)
(0.999987 -7.11208e-08 0)
(0.999987 -7.00167e-08 0)
(0.999988 -6.89273e-08 0)
(0.999988 -6.78523e-08 0)
(0.999988 -6.67913e-08 0)
(0.999988 -6.57439e-08 0)
(0.999988 -6.47098e-08 0)
(0.999988 -6.36885e-08 0)
(0.999988 -6.26798e-08 0)
(0.999988 -6.16833e-08 0)
(0.999989 -6.06988e-08 0)
(0.999989 -5.97261e-08 0)
(0.999989 -5.87648e-08 0)
(0.999989 -5.78147e-08 0)
(0.999989 -5.68754e-08 0)
(0.999989 -5.59467e-08 0)
(0.999989 -5.50284e-08 0)
(0.999989 -5.41201e-08 0)
(0.999989 -5.32217e-08 0)
(0.99999 -5.2333e-08 0)
(0.99999 -5.14537e-08 0)
(0.99999 -5.05838e-08 0)
(0.99999 -4.97229e-08 0)
(0.99999 -4.8871e-08 0)
(0.99999 -4.80276e-08 0)
(0.99999 -4.71927e-08 0)
(0.99999 -4.6366e-08 0)
(0.99999 -4.55473e-08 0)
(0.99999 -4.47366e-08 0)
(0.999991 -4.39336e-08 0)
(0.999991 -4.31384e-08 0)
(0.999991 -4.23506e-08 0)
(0.999991 -4.15701e-08 0)
(0.999991 -4.07967e-08 0)
(0.999991 -4.00302e-08 0)
(0.999991 -3.92704e-08 0)
(0.999991 -3.85172e-08 0)
(0.999991 -3.77705e-08 0)
(0.999991 -3.70302e-08 0)
(0.999991 -3.62963e-08 0)
(0.999991 -3.55686e-08 0)
(0.999991 -3.4847e-08 0)
(0.999992 -3.41313e-08 0)
(0.999992 -3.34212e-08 0)
(0.999992 -3.27166e-08 0)
(0.999992 -3.20173e-08 0)
(0.999992 -3.13233e-08 0)
(0.999992 -3.06344e-08 0)
(0.999992 -2.99506e-08 0)
(0.999992 -2.92717e-08 0)
(0.999992 -2.85977e-08 0)
(0.999992 -2.79285e-08 0)
(0.999992 -2.7264e-08 0)
(0.999992 -2.6604e-08 0)
(0.999992 -2.59484e-08 0)
(0.999992 -2.52972e-08 0)
(0.999992 -2.46503e-08 0)
(0.999992 -2.40074e-08 0)
(0.999992 -2.33685e-08 0)
(0.999993 -2.27335e-08 0)
(0.999993 -2.21021e-08 0)
(0.999993 -2.14743e-08 0)
(0.999993 -2.08499e-08 0)
(0.999993 -2.02289e-08 0)
(0.999993 -1.96112e-08 0)
(0.999993 -1.89966e-08 0)
(0.999993 -1.83853e-08 0)
(0.999993 -1.77769e-08 0)
(0.999993 -1.71716e-08 0)
(0.999993 -1.65692e-08 0)
(0.999993 -1.59695e-08 0)
(0.999993 -1.53725e-08 0)
(0.999993 -1.47781e-08 0)
(0.999993 -1.41861e-08 0)
(0.999993 -1.35964e-08 0)
(0.999993 -1.30089e-08 0)
(0.999993 -1.24236e-08 0)
(0.999993 -1.18404e-08 0)
(0.999993 -1.12591e-08 0)
(0.999993 -1.06797e-08 0)
(0.999993 -1.0102e-08 0)
(0.999993 -9.52615e-09 0)
(0.999993 -8.95184e-09 0)
(0.999993 -8.37944e-09 0)
(0.999993 -7.80713e-09 0)
(0.999993 -7.24214e-09 0)
(0.999993 -6.65364e-09 0)
(0.999993 -6.17018e-09 0)
(0.999993 -5.25089e-09 0)
(0.0276542 -0.0346584 0)
(0.0269231 -0.0612652 0)
(0.0892517 -0.060713 0)
(0.127288 -0.0556599 0)
(0.159196 -0.0526999 0)
(0.19367 -0.0513888 0)
(0.228505 -0.0506343 0)
(0.262181 -0.0498263 0)
(0.295042 -0.0487962 0)
(0.327251 -0.047589 0)
(0.358634 -0.046268 0)
(0.389079 -0.0448634 0)
(0.41855 -0.0433908 0)
(0.447011 -0.0418645 0)
(0.474429 -0.0402999 0)
(0.500784 -0.038712 0)
(0.526067 -0.0371149 0)
(0.550277 -0.0355213 0)
(0.573421 -0.0339423 0)
(0.595514 -0.0323876 0)
(0.616574 -0.030865 0)
(0.636628 -0.0293812 0)
(0.655702 -0.0279412 0)
(0.67383 -0.026549 0)
(0.691045 -0.0252073 0)
(0.707381 -0.023918 0)
(0.722875 -0.0226821 0)
(0.737562 -0.0215 0)
(0.751479 -0.0203715 0)
(0.764662 -0.0192958 0)
(0.777146 -0.0182719 0)
(0.788965 -0.0172985 0)
(0.800153 -0.0163741 0)
(0.810741 -0.015497 0)
(0.820761 -0.0146653 0)
(0.830243 -0.0138773 0)
(0.839214 -0.013131 0)
(0.847703 -0.0124246 0)
(0.855735 -0.0117561 0)
(0.863334 -0.0111237 0)
(0.870525 -0.0105256 0)
(0.877329 -0.00996006 0)
(0.883767 -0.00942537 0)
(0.88986 -0.00891991 0)
(0.895627 -0.00844211 0)
(0.901085 -0.00799049 0)
(0.906251 -0.00756363 0)
(0.911141 -0.00716017 0)
(0.915771 -0.00677882 0)
(0.920154 -0.00641836 0)
(0.924304 -0.00607763 0)
(0.928235 -0.00575554 0)
(0.931957 -0.00545102 0)
(0.935482 -0.00516311 0)
(0.938822 -0.00489086 0)
(0.941985 -0.00463339 0)
(0.944982 -0.00438986 0)
(0.947822 -0.00415947 0)
(0.950513 -0.00394149 0)
(0.953063 -0.00373519 0)
(0.95548 -0.00353993 0)
(0.95777 -0.00335505 0)
(0.959941 -0.00317999 0)
(0.961999 -0.00301417 0)
(0.963949 -0.00285708 0)
(0.965798 -0.00270821 0)
(0.96755 -0.00256712 0)
(0.969212 -0.00243337 0)
(0.970786 -0.00230656 0)
(0.972279 -0.0021863 0)
(0.973694 -0.00207225 0)
(0.975034 -0.00196409 0)
(0.976305 -0.00186149 0)
(0.97751 -0.00176418 0)
(0.978651 -0.00167188 0)
(0.979733 -0.00158435 0)
(0.980758 -0.00150134 0)
(0.98173 -0.00142263 0)
(0.98265 -0.00134799 0)
(0.983522 -0.00127723 0)
(0.984348 -0.00121016 0)
(0.985131 -0.00114658 0)
(0.985873 -0.00108631 0)
(0.986576 -0.0010292 0)
(0.987241 -0.000975076 0)
(0.987872 -0.000923787 0)
(0.98847 -0.000875189 0)
(0.989036 -0.000829145 0)
(0.989572 -0.000785525 0)
(0.99008 -0.000744204 0)
(0.990562 -0.000705066 0)
(0.991018 -0.000668001 0)
(0.99145 -0.000632901 0)
(0.991859 -0.000599669 0)
(0.992247 -0.000568208 0)
(0.992615 -0.000538428 0)
(0.992963 -0.000510243 0)
(0.993293 -0.00048357 0)
(0.993606 -0.000458331 0)
(0.993903 -0.00043445 0)
(0.994184 -0.000411856 0)
(0.99445 -0.00039048 0)
(0.994703 -0.000370256 0)
(0.994943 -0.000351124 0)
(0.99517 -0.000333022 0)
(0.995385 -0.000315895 0)
(0.99559 -0.00029969 0)
(0.995784 -0.000284355 0)
(0.995968 -0.000269843 0)
(0.996143 -0.000256108 0)
(0.996309 -0.000243108 0)
(0.996466 -0.000230802 0)
(0.996615 -0.000219153 0)
(0.996757 -0.000208123 0)
(0.996892 -0.000197681 0)
(0.99702 -0.000187793 0)
(0.997142 -0.000178431 0)
(0.997258 -0.000169565 0)
(0.997367 -0.00016117 0)
(0.997472 -0.00015322 0)
(0.997571 -0.000145691 0)
(0.997666 -0.000138562 0)
(0.997755 -0.00013181 0)
(0.997841 -0.000125416 0)
(0.997922 -0.00011936 0)
(0.998 -0.000113625 0)
(0.998073 -0.000108194 0)
(0.998144 -0.000103049 0)
(0.99821 -9.81764e-05 0)
(0.998274 -9.35606e-05 0)
(0.998335 -8.9188e-05 0)
(0.998393 -8.50453e-05 0)
(0.998448 -8.112e-05 0)
(0.998501 -7.74004e-05 0)
(0.998551 -7.38751e-05 0)
(0.998599 -7.05337e-05 0)
(0.998645 -6.73659e-05 0)
(0.998689 -6.43624e-05 0)
(0.99873 -6.15142e-05 0)
(0.99877 -5.88127e-05 0)
(0.998809 -5.62499e-05 0)
(0.998845 -5.38183e-05 0)
(0.99888 -5.15108e-05 0)
(0.998914 -4.93207e-05 0)
(0.998946 -4.72416e-05 0)
(0.998977 -4.52676e-05 0)
(0.999006 -4.3393e-05 0)
(0.999034 -4.16127e-05 0)
(0.999061 -3.99216e-05 0)
(0.999087 -3.83152e-05 -8.94158e-42)
(0.999112 -3.67889e-05 -8.72314e-42)
(0.999136 -3.53388e-05 0)
(0.999159 -3.39609e-05 0)
(0.999182 -3.26516e-05 0)
(0.999203 -3.14074e-05 0)
(0.999223 -3.02252e-05 0)
(0.999243 -2.91019e-05 0)
(0.999262 -2.80346e-05 0)
(0.99928 -2.70206e-05 0)
(0.999298 -2.60573e-05 0)
(0.999315 -2.51424e-05 0)
(0.999332 -2.42735e-05 0)
(0.999347 -2.34483e-05 0)
(0.999363 -2.2665e-05 0)
(0.999378 -2.19214e-05 0)
(0.999392 -2.12156e-05 0)
(0.999406 -2.0546e-05 0)
(0.999419 -1.99106e-05 0)
(0.999432 -1.9308e-05 0)
(0.999445 -1.87365e-05 0)
(0.999457 -1.81946e-05 0)
(0.999469 -1.76808e-05 0)
(0.999481 -1.71937e-05 0)
(0.999492 -1.6732e-05 0)
(0.999503 -1.62943e-05 0)
(0.999514 -1.58794e-05 0)
(0.999524 -1.54861e-05 0)
(0.999534 -1.51132e-05 0)
(0.999544 -1.47596e-05 0)
(0.999554 -1.44241e-05 0)
(0.999564 -1.41058e-05 0)
(0.999573 -1.38035e-05 0)
(0.999582 -1.35162e-05 0)
(0.999591 -1.32431e-05 0)
(0.9996 -1.29832e-05 0)
(0.999608 -1.27356e-05 0)
(0.999617 -1.24994e-05 0)
(0.999625 -1.22737e-05 0)
(0.999633 -1.20578e-05 0)
(0.999641 -1.18509e-05 0)
(0.999649 -1.16522e-05 0)
(0.999656 -1.1461e-05 0)
(0.999664 -1.12765e-05 0)
(0.999672 -1.10981e-05 0)
(0.999679 -1.09251e-05 0)
(0.999686 -1.0757e-05 0)
(0.999693 -1.0593e-05 0)
(0.9997 -1.04326e-05 0)
(0.999707 -1.02752e-05 0)
(0.999714 -1.01204e-05 0)
(0.999721 -9.96756e-06 0)
(0.999727 -9.81625e-06 0)
(0.999734 -9.66602e-06 0)
(0.99974 -9.51646e-06 0)
(0.999746 -9.36718e-06 0)
(0.999753 -9.21784e-06 0)
(0.999759 -9.06813e-06 0)
(0.999765 -8.91777e-06 0)
(0.999771 -8.76654e-06 0)
(0.999776 -8.61424e-06 0)
(0.999782 -8.46072e-06 0)
(0.999788 -8.30587e-06 0)
(0.999793 -8.14965e-06 0)
(0.999798 -7.99201e-06 0)
(0.999804 -7.83298e-06 0)
(0.999809 -7.67263e-06 0)
(0.999814 -7.51104e-06 0)
(0.999819 -7.34836e-06 0)
(0.999824 -7.18475e-06 0)
(0.999829 -7.02042e-06 0)
(0.999833 -6.85559e-06 0)
(0.999838 -6.69054e-06 0)
(0.999842 -6.52553e-06 0)
(0.999846 -6.36087e-06 0)
(0.999851 -6.19687e-06 0)
(0.999855 -6.03386e-06 0)
(0.999859 -5.87214e-06 0)
(0.999862 -5.71204e-06 0)
(0.999866 -5.55384e-06 0)
(0.99987 -5.39782e-06 0)
(0.999873 -5.24419e-06 0)
(0.999877 -5.09312e-06 0)
(0.99988 -4.94475e-06 0)
(0.999883 -4.79913e-06 0)
(0.999887 -4.65627e-06 0)
(0.99989 -4.51613e-06 0)
(0.999893 -4.37863e-06 0)
(0.999895 -4.24369e-06 0)
(0.999898 -4.11121e-06 0)
(0.999901 -3.98115e-06 0)
(0.999904 -3.85353e-06 0)
(0.999906 -3.72842e-06 0)
(0.999909 -3.60598e-06 0)
(0.999911 -3.48644e-06 0)
(0.999913 -3.37006e-06 0)
(0.999915 -3.25716e-06 0)
(0.999918 -3.14803e-06 0)
(0.99992 -3.04295e-06 0)
(0.999922 -2.94211e-06 0)
(0.999923 -2.84563e-06 0)
(0.999925 -2.75353e-06 0)
(0.999927 -2.66572e-06 0)
(0.999929 -2.58204e-06 0)
(0.999931 -2.50224e-06 0)
(0.999932 -2.42604e-06 0)
(0.999934 -2.3531e-06 0)
(0.999935 -2.28309e-06 0)
(0.999937 -2.2157e-06 0)
(0.999938 -2.15061e-06 0)
(0.99994 -2.08757e-06 0)
(0.999941 -2.02635e-06 0)
(0.999942 -1.96677e-06 0)
(0.999944 -1.90868e-06 0)
(0.999945 -1.85198e-06 0)
(0.999946 -1.7966e-06 0)
(0.999947 -1.7425e-06 0)
(0.999949 -1.68965e-06 0)
(0.99995 -1.63807e-06 0)
(0.999951 -1.58775e-06 0)
(0.999952 -1.53872e-06 0)
(0.999953 -1.49098e-06 0)
(0.999954 -1.44457e-06 0)
(0.999955 -1.39951e-06 0)
(0.999956 -1.3558e-06 0)
(0.999956 -1.31346e-06 0)
(0.999957 -1.27249e-06 0)
(0.999958 -1.2329e-06 0)
(0.999959 -1.19467e-06 0)
(0.99996 -1.15779e-06 0)
(0.999961 -1.12226e-06 0)
(0.999961 -1.08804e-06 0)
(0.999962 -1.05512e-06 0)
(0.999963 -1.02346e-06 0)
(0.999963 -9.93025e-07 0)
(0.999964 -9.63789e-07 0)
(0.999965 -9.35712e-07 0)
(0.999965 -9.08758e-07 0)
(0.999966 -8.82886e-07 0)
(0.999966 -8.58058e-07 0)
(0.999967 -8.34234e-07 0)
(0.999968 -8.11374e-07 0)
(0.999968 -7.89438e-07 0)
(0.999969 -7.68389e-07 0)
(0.999969 -7.48188e-07 0)
(0.99997 -7.28798e-07 0)
(0.99997 -7.10183e-07 0)
(0.999971 -6.92308e-07 0)
(0.999971 -6.75139e-07 0)
(0.999971 -6.58643e-07 0)
(0.999972 -6.42789e-07 0)
(0.999972 -6.27546e-07 0)
(0.999973 -6.12885e-07 0)
(0.999973 -5.98778e-07 0)
(0.999973 -5.85198e-07 0)
(0.999974 -5.7212e-07 0)
(0.999974 -5.59519e-07 0)
(0.999975 -5.47373e-07 0)
(0.999975 -5.35658e-07 0)
(0.999975 -5.24355e-07 0)
(0.999976 -5.13444e-07 0)
(0.999976 -5.02904e-07 0)
(0.999976 -4.92719e-07 0)
(0.999977 -4.82871e-07 0)
(0.999977 -4.73343e-07 0)
(0.999977 -4.6412e-07 0)
(0.999978 -4.55189e-07 0)
(0.999978 -4.46534e-07 0)
(0.999978 -4.38142e-07 0)
(0.999978 -4.30002e-07 0)
(0.999979 -4.22101e-07 0)
(0.999979 -4.14429e-07 0)
(0.999979 -4.06973e-07 0)
(0.99998 -3.99726e-07 0)
(0.99998 -3.92676e-07 0)
(0.99998 -3.85816e-07 0)
(0.99998 -3.79136e-07 0)
(0.999981 -3.72629e-07 0)
(0.999981 -3.66286e-07 0)
(0.999981 -3.60101e-07 0)
(0.999981 -3.54067e-07 0)
(0.999982 -3.48176e-07 0)
(0.999982 -3.42424e-07 0)
(0.999982 -3.36804e-07 0)
(0.999982 -3.31311e-07 0)
(0.999982 -3.25939e-07 0)
(0.999983 -3.20683e-07 0)
(0.999983 -3.15539e-07 0)
(0.999983 -3.10502e-07 0)
(0.999983 -3.05567e-07 0)
(0.999984 -3.00732e-07 0)
(0.999984 -2.95993e-07 0)
(0.999984 -2.91344e-07 0)
(0.999984 -2.86784e-07 0)
(0.999984 -2.82309e-07 0)
(0.999984 -2.77915e-07 0)
(0.999985 -2.736e-07 0)
(0.999985 -2.6936e-07 0)
(0.999985 -2.65194e-07 0)
(0.999985 -2.61099e-07 0)
(0.999985 -2.57073e-07 0)
(0.999986 -2.53112e-07 0)
(0.999986 -2.49215e-07 0)
(0.999986 -2.4538e-07 0)
(0.999986 -2.41605e-07 0)
(0.999986 -2.37888e-07 0)
(0.999986 -2.34226e-07 0)
(0.999987 -2.3062e-07 0)
(0.999987 -2.27066e-07 0)
(0.999987 -2.23563e-07 0)
(0.999987 -2.2011e-07 0)
(0.999987 -2.16706e-07 0)
(0.999987 -2.13348e-07 0)
(0.999987 -2.10036e-07 0)
(0.999988 -2.06768e-07 0)
(0.999988 -2.03544e-07 0)
(0.999988 -2.00361e-07 0)
(0.999988 -1.97219e-07 0)
(0.999988 -1.94117e-07 0)
(0.999988 -1.91054e-07 0)
(0.999988 -1.88028e-07 0)
(0.999988 -1.85039e-07 0)
(0.999989 -1.82086e-07 0)
(0.999989 -1.79168e-07 0)
(0.999989 -1.76284e-07 0)
(0.999989 -1.73434e-07 0)
(0.999989 -1.70616e-07 0)
(0.999989 -1.6783e-07 0)
(0.999989 -1.65075e-07 0)
(0.999989 -1.6235e-07 0)
(0.999989 -1.59655e-07 0)
(0.99999 -1.5699e-07 0)
(0.99999 -1.54352e-07 0)
(0.99999 -1.51743e-07 0)
(0.99999 -1.4916e-07 0)
(0.99999 -1.46604e-07 0)
(0.99999 -1.44074e-07 0)
(0.99999 -1.41569e-07 0)
(0.99999 -1.39089e-07 0)
(0.99999 -1.36633e-07 0)
(0.99999 -1.34202e-07 0)
(0.999991 -1.31793e-07 0)
(0.999991 -1.29407e-07 0)
(0.999991 -1.27044e-07 0)
(0.999991 -1.24703e-07 0)
(0.999991 -1.22382e-07 0)
(0.999991 -1.20083e-07 0)
(0.999991 -1.17804e-07 0)
(0.999991 -1.15545e-07 0)
(0.999991 -1.13305e-07 0)
(0.999991 -1.11085e-07 0)
(0.999991 -1.08884e-07 0)
(0.999991 -1.06701e-07 0)
(0.999991 -1.04535e-07 0)
(0.999992 -1.02388e-07 0)
(0.999992 -1.00257e-07 0)
(0.999992 -9.8143e-08 0)
(0.999992 -9.60452e-08 0)
(0.999992 -9.39633e-08 0)
(0.999992 -9.1897e-08 0)
(0.999992 -8.9846e-08 0)
(0.999992 -8.781e-08 0)
(0.999992 -8.57886e-08 0)
(0.999992 -8.37815e-08 0)
(0.999992 -8.17884e-08 0)
(0.999992 -7.98089e-08 0)
(0.999992 -7.78426e-08 0)
(0.999992 -7.58892e-08 0)
(0.999992 -7.39483e-08 0)
(0.999992 -7.20194e-08 0)
(0.999992 -7.01024e-08 0)
(0.999993 -6.81968e-08 0)
(0.999993 -6.63024e-08 0)
(0.999993 -6.44189e-08 0)
(0.999993 -6.25458e-08 0)
(0.999993 -6.06831e-08 0)
(0.999993 -5.88302e-08 0)
(0.999993 -5.69871e-08 0)
(0.999993 -5.51533e-08 0)
(0.999993 -5.33286e-08 0)
(0.999993 -5.15128e-08 0)
(0.999993 -4.97055e-08 0)
(0.999993 -4.79065e-08 0)
(0.999993 -4.61155e-08 0)
(0.999993 -4.43321e-08 0)
(0.999993 -4.2556e-08 0)
(0.999993 -4.0787e-08 0)
(0.999993 -3.90247e-08 0)
(0.999993 -3.7269e-08 0)
(0.999993 -3.55194e-08 0)
(0.999993 -3.37758e-08 0)
(0.999993 -3.2038e-08 0)
(0.999993 -3.03056e-08 0)
(0.999993 -2.85784e-08 0)
(0.999993 -2.68558e-08 0)
(0.999993 -2.51388e-08 0)
(0.999993 -2.34218e-08 0)
(0.999993 -2.17266e-08 0)
(0.999993 -1.99607e-08 0)
(0.999993 -1.85099e-08 0)
(0.999993 -1.57517e-08 0)
(0.0270498 -0.0576284 0)
(0.0269756 -0.102124 0)
(0.089437 -0.10166 0)
(0.127556 -0.0930522 0)
(0.159951 -0.0879357 0)
(0.194761 -0.0857631 0)
(0.229729 -0.0845321 0)
(0.263536 -0.0831783 0)
(0.296559 -0.0814488 0)
(0.328918 -0.0794243 0)
(0.360426 -0.0772074 0)
(0.390976 -0.0748493 0)
(0.420529 -0.0723773 0)
(0.449051 -0.0698162 0)
(0.47651 -0.0671921 0)
(0.502887 -0.0645303 0)
(0.528174 -0.0618546 0)
(0.552372 -0.0591865 0)
(0.57549 -0.0565444 0)
(0.597544 -0.0539443 0)
(0.618558 -0.0513995 0)
(0.638556 -0.0489208 0)
(0.65757 -0.0465165 0)
(0.675633 -0.044193 0)
(0.69278 -0.0419548 0)
(0.709046 -0.0398049 0)
(0.724468 -0.0377447 0)
(0.739085 -0.0357748 0)
(0.752932 -0.0338946 0)
(0.766046 -0.0321029 0)
(0.778462 -0.0303979 0)
(0.790216 -0.0287773 0)
(0.80134 -0.0272385 0)
(0.811867 -0.0257785 0)
(0.821829 -0.0243945 0)
(0.831254 -0.0230832 0)
(0.840172 -0.0218415 0)
(0.848609 -0.0206661 0)
(0.856592 -0.019554 0)
(0.864146 -0.018502 0)
(0.871292 -0.0175071 0)
(0.878055 -0.0165663 0)
(0.884454 -0.015677 0)
(0.890509 -0.0148362 0)
(0.896241 -0.0140415 0)
(0.901665 -0.0132904 0)
(0.906799 -0.0125804 0)
(0.91166 -0.0119094 0)
(0.916261 -0.0112751 0)
(0.920617 -0.0106756 0)
(0.924743 -0.010109 0)
(0.928649 -0.00957327 0)
(0.932349 -0.00906683 0)
(0.935853 -0.00858799 0)
(0.939172 -0.00813521 0)
(0.942317 -0.007707 0)
(0.945296 -0.00730198 0)
(0.948119 -0.00691882 0)
(0.950794 -0.00655629 0)
(0.953329 -0.00621319 0)
(0.955732 -0.00588843 0)
(0.958009 -0.00558096 0)
(0.960167 -0.0052898 0)
(0.962213 -0.00501401 0)
(0.964152 -0.00475272 0)
(0.96599 -0.00450512 0)
(0.967733 -0.00427044 0)
(0.969384 -0.00404797 0)
(0.97095 -0.00383702 0)
(0.972434 -0.00363698 0)
(0.973841 -0.00344726 0)
(0.975174 -0.00326732 0)
(0.976438 -0.00309665 0)
(0.977636 -0.00293476 0)
(0.978771 -0.00278121 0)
(0.979846 -0.00263559 0)
(0.980866 -0.00249748 0)
(0.981831 -0.00236653 0)
(0.982747 -0.00224237 0)
(0.983614 -0.00212465 0)
(0.984435 -0.00201306 0)
(0.985214 -0.00190729 0)
(0.985951 -0.00180704 0)
(0.98665 -0.00171202 0)
(0.987312 -0.00162198 0)
(0.987939 -0.00153666 0)
(0.988533 -0.00145582 0)
(0.989096 -0.00137922 0)
(0.989629 -0.00130666 0)
(0.990134 -0.00123792 0)
(0.990613 -0.00117281 0)
(0.991066 -0.00111115 0)
(0.991495 -0.00105276 0)
(0.991902 -0.000997483 0)
(0.992288 -0.000945148 0)
(0.992653 -0.000895611 0)
(0.993 -0.000848727 0)
(0.993328 -0.000804359 0)
(0.993639 -0.000762377 0)
(0.993934 -0.000722655 0)
(0.994213 -0.000685074 0)
(0.994478 -0.000649519 0)
(0.994729 -0.000615883 0)
(0.994967 -0.000584061 0)
(0.995193 -0.000553954 0)
(0.995408 -0.000525469 0)
(0.995611 -0.000498516 0)
(0.995804 -0.000473011 0)
(0.995987 -0.000448875 0)
(0.996161 -0.000426031 0)
(0.996325 -0.000404409 0)
(0.996482 -0.000383941 0)
(0.996631 -0.000364565 0)
(0.996772 -0.00034622 0)
(0.996906 -0.000328851 0)
(0.997033 -0.000312405 0)
(0.997154 -0.000296832 0)
(0.997269 -0.000282086 0)
(0.997378 -0.000268122 0)
(0.997482 -0.000254898 0)
(0.997581 -0.000242375 0)
(0.997675 -0.000230516 0)
(0.997764 -0.000219286 0)
(0.997849 -0.00020865 0)
(0.99793 -0.000198577 0)
(0.998007 -0.000189038 0)
(0.99808 -0.000180004 0)
(0.99815 -0.000171447 0)
(0.998217 -0.000163342 0)
(0.99828 -0.000155664 0)
(0.998341 -0.000148391 0)
(0.998398 -0.0001415 0)
(0.998453 -0.000134971 0)
(0.998506 -0.000128784 0)
(0.998556 -0.000122921 0)
(0.998603 -0.000117363 0)
(0.998649 -0.000112094 0)
(0.998692 -0.000107098 0)
(0.998734 -0.00010236 0)
(0.998774 -9.78667e-05 0)
(0.998812 -9.36038e-05 0)
(0.998848 -8.95592e-05 0)
(0.998883 -8.57208e-05 0)
(0.998917 -8.20776e-05 0)
(0.998949 -7.86191e-05 0)
(0.998979 -7.53353e-05 0)
(0.999009 -7.22169e-05 0)
(0.999037 -6.92552e-05 0)
(0.999064 -6.64419e-05 0)
(0.99909 -6.37693e-05 0)
(0.999114 -6.12302e-05 0)
(0.999138 -5.88176e-05 0)
(0.999161 -5.65251e-05 0)
(0.999183 -5.43468e-05 0)
(0.999205 -5.22768e-05 0)
(0.999225 -5.03098e-05 0)
(0.999245 -4.84408e-05 0)
(0.999264 -4.6665e-05 0)
(0.999282 -4.49779e-05 0)
(0.999299 -4.33752e-05 0)
(0.999316 -4.18528e-05 0)
(0.999333 -4.0407e-05 0)
(0.999349 -3.90341e-05 0)
(0.999364 -3.77307e-05 0)
(0.999379 -3.64935e-05 0)
(0.999393 -3.53192e-05 0)
(0.999407 -3.4205e-05 0)
(0.99942 -3.3148e-05 0)
(0.999433 -3.21454e-05 0)
(0.999446 -3.11946e-05 0)
(0.999458 -3.0293e-05 0)
(0.99947 -2.94382e-05 0)
(0.999482 -2.86279e-05 0)
(0.999493 -2.78598e-05 0)
(0.999504 -2.71318e-05 0)
(0.999514 -2.64417e-05 0)
(0.999525 -2.57875e-05 0)
(0.999535 -2.51673e-05 0)
(0.999545 -2.45791e-05 0)
(0.999555 -2.40212e-05 0)
(0.999564 -2.34917e-05 0)
(0.999573 -2.2989e-05 0)
(0.999582 -2.25114e-05 0)
(0.999591 -2.20572e-05 0)
(0.9996 -2.16251e-05 0)
(0.999609 -2.12133e-05 0)
(0.999617 -2.08205e-05 0)
(0.999625 -2.04454e-05 0)
(0.999633 -2.00864e-05 0)
(0.999641 -1.97424e-05 0)
(0.999649 -1.9412e-05 0)
(0.999657 -1.90941e-05 0)
(0.999664 -1.87874e-05 0)
(0.999672 -1.84908e-05 0)
(0.999679 -1.82032e-05 0)
(0.999686 -1.79236e-05 0)
(0.999693 -1.7651e-05 0)
(0.9997 -1.73843e-05 0)
(0.999707 -1.71226e-05 0)
(0.999714 -1.68651e-05 0)
(0.999721 -1.66109e-05 0)
(0.999727 -1.63592e-05 0)
(0.999734 -1.61093e-05 0)
(0.99974 -1.58604e-05 0)
(0.999747 -1.5612e-05 0)
(0.999753 -1.53635e-05 0)
(0.999759 -1.51142e-05 0)
(0.999765 -1.48639e-05 0)
(0.999771 -1.46121e-05 0)
(0.999777 -1.43584e-05 0)
(0.999782 -1.41026e-05 0)
(0.999788 -1.38446e-05 0)
(0.999793 -1.35843e-05 0)
(0.999799 -1.33215e-05 0)
(0.999804 -1.30564e-05 0)
(0.999809 -1.27891e-05 0)
(0.999814 -1.25196e-05 0)
(0.999819 -1.22483e-05 0)
(0.999824 -1.19754e-05 0)
(0.999829 -1.17012e-05 0)
(0.999833 -1.14262e-05 0)
(0.999838 -1.11508e-05 0)
(0.999842 -1.08755e-05 0)
(0.999847 -1.06007e-05 0)
(0.999851 -1.0327e-05 0)
(0.999855 -1.0055e-05 0)
(0.999859 -9.78512e-06 0)
(0.999863 -9.51797e-06 0)
(0.999866 -9.25402e-06 0)
(0.99987 -8.99373e-06 0)
(0.999874 -8.73748e-06 0)
(0.999877 -8.48558e-06 0)
(0.99988 -8.23822e-06 0)
(0.999884 -7.99551e-06 0)
(0.999887 -7.75746e-06 0)
(0.99989 -7.52396e-06 0)
(0.999893 -7.29489e-06 0)
(0.999896 -7.07005e-06 0)
(0.999898 -6.84929e-06 0)
(0.999901 -6.63252e-06 0)
(0.999904 -6.41973e-06 0)
(0.999906 -6.21104e-06 0)
(0.999909 -6.00673e-06 0)