/*--------------------------------*- C++ -*----------------------------------*\
| =========                 |                                                 |
| \\      /  F ield         | OpenFOAM: The Open Source CFD Toolbox           |
|  \\    /   O peration     | Version:  v2006                                 |
|   \\  /    A nd           | Website:  www.openfoam.com                      |
|    \\/     M anipulation  |                                                 |
\*---------------------------------------------------------------------------*/
FoamFile
{
    version     2.0;
    format      ascii;
    class       surfaceScalarField;
    location    "19.4";
    object      phi;
}
// * * * * * * * * * * * * * * * * * * * * * * * * * * * * * * * * * * * * * //

dimensions      [0 3 -1 0 0 0 0];
oriented        oriented;


internalField   nonuniform List<scalar> 
99450
(
1.14382e-05
-1.14382e-05
4.22912e-05
-3.0853e-05
7.74391e-05
-3.51478e-05
0.000110016
-3.25773e-05
0.000138658
-2.86414e-05
0.000164393
-2.57355e-05
0.000188609
-2.42162e-05
0.000212237
-2.36272e-05
0.000235678
-2.34416e-05
0.000258974
-2.32961e-05
0.000281981
-2.3007e-05
0.000304491
-2.25099e-05
0.000326291
-2.17995e-05
0.000347185
-2.08944e-05
0.000367009
-1.98239e-05
0.000385631
-1.86224e-05
0.000402957
-1.7326e-05
0.000418931
-1.59736e-05
0.00043353
-1.45991e-05
0.000446761
-1.32309e-05
0.000458653
-1.18919e-05
0.000469251
-1.05979e-05
0.000478608
-9.35717e-06
0.000486785
-8.17639e-06
0.000493851
-7.066e-06
0.000499863
-6.01281e-06
0.000504879
-5.01617e-06
0.000508946
-4.06649e-06
0.000512105
-3.15903e-06
0.000514396
-2.29128e-06
0.000515846
-1.44974e-06
0.000516464
-6.18224e-07
0.000516232
2.3198e-07
0.000515073
1.15957e-06
0.000512914
2.15897e-06
0.000509643
3.27035e-06
0.000505102
4.54093e-06
0.000499097
6.00523e-06
0.000491383
7.7147e-06
0.000481752
9.63093e-06
0.000470085
1.16667e-05
0.000456475
1.36095e-05
0.000441184
1.52914e-05
0.000424534
1.66499e-05
0.000406835
1.76995e-05
0.000388367
1.84676e-05
0.000369393
1.89742e-05
0.000350196
1.91964e-05
0.00033106
1.91363e-05
0.000312272
1.87881e-05
0.000294138
1.81336e-05
0.000276953
1.71857e-05
0.00026092
1.60332e-05
0.000246083
1.4837e-05
0.000232309
1.37732e-05
0.000219382
1.29275e-05
0.00020708
1.23023e-05
0.00019524
1.18392e-05
0.000183769
1.14712e-05
0.000172624
1.11454e-05
0.000161773
1.08509e-05
0.000151191
1.05818e-05
0.000140863
1.03282e-05
0.000130753
1.01101e-05
0.000120851
9.90212e-06
0.000111139
9.71162e-06
0.000101604
9.53481e-06
9.22408e-05
9.36349e-06
8.30332e-05
9.20757e-06
7.39767e-05
9.05647e-06
6.50652e-05
8.91155e-06
5.63045e-05
8.76071e-06
4.76816e-05
8.62283e-06
3.92032e-05
8.4784e-06
3.08743e-05
8.32896e-06
2.26862e-05
8.18809e-06
1.46473e-05
8.03885e-06
6.76065e-06
7.8867e-06
-9.6819e-07
7.72884e-06
-8.53595e-06
7.56776e-06
-1.59454e-05
7.40945e-06
-2.31963e-05
7.25093e-06
-3.0295e-05
7.09871e-06
-3.72675e-05
6.97247e-06
-4.41076e-05
6.84012e-06
-5.08293e-05
6.72167e-06
-5.74553e-05
6.62596e-06
-6.4017e-05
6.56175e-06
-7.05206e-05
6.50364e-06
-7.70337e-05
6.51308e-06
-8.36024e-05
6.56871e-06
-9.02931e-05
6.6907e-06
-9.72169e-05
6.92373e-06
-0.000104497
7.27996e-06
-0.000112328
7.83149e-06
-0.000120986
8.65798e-06
-0.000130891
9.90454e-06
-0.000142591
1.17e-05
-0.00015652
1.39293e-05
-0.000172852
1.63318e-05
-0.000191434
1.85819e-05
-0.000211881
2.04471e-05
-0.000233542
2.16612e-05
-0.000255714
2.21722e-05
-0.000277807
2.20926e-05
-0.000299326
2.15193e-05
-0.000319845
2.05185e-05
-0.000338903
1.90578e-05
-0.000355936
1.70336e-05
-0.000370239
1.4303e-05
-0.000381043
1.0804e-05
-0.000387741
6.69818e-06
-0.00039027
2.52904e-06
-0.000389215
-1.05487e-06
-0.000385641
-3.57487e-06
-0.000380523
-5.11791e-06
-0.000374577
-5.94538e-06
-0.000368195
-6.38212e-06
-0.000361539
-6.65619e-06
-0.000354613
-6.92614e-06
-0.000347432
-7.18053e-06
-0.000339991
-7.44153e-06
-0.000332285
-7.70564e-06
-0.00032431
-7.97548e-06
-0.00031606
-8.24925e-06
-0.000307529
-8.53158e-06
-0.000298722
-8.80706e-06
-0.000289629
-9.09241e-06
-0.000280251
-9.37869e-06
-0.000270571
-9.68e-06
-0.000260601
-9.96974e-06
-0.000250344
-1.02572e-05
-0.000239798
-1.05457e-05
-0.000228955
-1.08428e-05
-0.000217797
-1.11583e-05
-0.000206305
-1.14924e-05
-0.000194441
-1.18639e-05
-0.00018217
-1.22704e-05
-0.000169459
-1.27116e-05
-0.000156268
-1.3191e-05
-0.000142567
-1.37005e-05
-0.000128334
-1.42332e-05
-0.000113541
-1.47928e-05
-9.814e-05
-1.54014e-05
-8.21096e-05
-1.60304e-05
-6.54581e-05
-1.66515e-05
-4.83426e-05
-1.71155e-05
-3.08377e-05
-1.75049e-05
-1.35251e-05
-1.73126e-05
-1.35251e-05
9.44273e-06
-2.0881e-05
3.77875e-05
-5.91978e-05
7.05932e-05
-6.79535e-05
0.000100391
-6.23748e-05
0.000125305
-5.35553e-05
0.000146412
-4.68424e-05
0.000165572
-4.33767e-05
0.00018413
-4.21855e-05
0.000202595
-4.19061e-05
0.000220892
-4.15929e-05
0.0002387
-4.08159e-05
0.000255671
-3.94809e-05
0.00027151
-3.76383e-05
0.000285991
-3.53752e-05
0.00029895
-3.27828e-05
0.000310289
-2.9961e-05
0.000319964
-2.70011e-05
0.000327978
-2.39884e-05
0.000334382
-2.10023e-05
0.000339255
-1.81042e-05
0.000342712
-1.53493e-05
0.000344885
-1.27701e-05
0.000345922
-1.03942e-05
0.000345976
-8.23054e-06
0.000345195
-6.28481e-06
0.000343723
-4.54167e-06
0.000341698
-2.99043e-06
0.000339231
-1.59948e-06
0.00033645
-3.78588e-07
0.000333511
6.47423e-07
0.000330518
1.54327e-06
0.000327596
2.30473e-06
0.000324864
2.96377e-06
0.00032247
3.55321e-06
0.000320508
4.12099e-06
0.000319041
4.73725e-06
0.000318105
5.47718e-06
0.000317712
6.39835e-06
0.00031784
7.58659e-06
0.000318398
9.07255e-06
0.000319193
1.08722e-05
0.000319899
1.29028e-05
0.000320147
1.50444e-05
0.000319632
1.71643e-05
0.000318158
1.91738e-05
0.000315616
2.1009e-05
0.000311969
2.26212e-05
0.000307263
2.39029e-05
0.000301554
2.48448e-05
0.000294913
2.54292e-05
0.000287423
2.56239e-05
0.000279133
2.54757e-05
0.000270107
2.50595e-05
0.000260444
2.44994e-05
0.000250309
2.39084e-05
0.000239862
2.33744e-05
0.000229226
2.29382e-05
0.000218449
2.26163e-05
0.000207563
2.23574e-05
0.000196553
2.21551e-05
0.000185416
2.19878e-05
0.000174149
2.18491e-05
0.000162751
2.17259e-05
0.000151249
2.16124e-05
0.000139645
2.15057e-05
0.000127948
2.1409e-05
0.000116195
2.12877e-05
0.000104375
2.11834e-05
9.25274e-05
2.10554e-05
8.06774e-05
2.09065e-05
6.88311e-05
2.07578e-05
5.70087e-05
2.05831e-05
4.52424e-05
2.03892e-05
3.35611e-05
2.01596e-05
2.1965e-05
1.99251e-05
1.04968e-05
1.96563e-05
-8.22934e-07
1.93585e-05
-1.19681e-05
1.90318e-05
-2.29186e-05
1.86794e-05
-3.36454e-05
1.82945e-05
-4.411e-05
1.78741e-05
-5.42952e-05
1.74361e-05
-6.41775e-05
1.6981e-05
-7.37228e-05
1.65178e-05
-8.29268e-05
1.60442e-05
-9.17745e-05
1.55694e-05
-0.00010025
1.51015e-05
-0.000108341
1.46525e-05
-0.000116081
1.42441e-05
-0.000123431
1.38624e-05
-0.0001304
1.35385e-05
-0.000136984
1.32747e-05
-0.000143176
1.31155e-05
-0.000148975
1.30791e-05
-0.000154343
1.31989e-05
-0.000159222
1.35376e-05
-0.000163495
1.41771e-05
-0.000166997
1.52026e-05
-0.000169751
1.66825e-05
-0.000172008
1.85889e-05
-0.000174142
2.07162e-05
-0.000176445
2.27499e-05
-0.000179023
2.42391e-05
-0.000181768
2.49174e-05
-0.000184169
2.4494e-05
-0.000185561
2.29114e-05
-0.000185277
2.02346e-05
-0.000182789
1.65697e-05
-0.00017776
1.2004e-05
-0.000170238
6.78108e-06
-0.000160687
1.25289e-06
-0.00014966
-4.32828e-06
-0.000137756
-9.37494e-06
-0.000125483
-1.33282e-05
-0.000113052
-1.60062e-05
-0.000100633
-1.75364e-05
-8.83392e-05
-1.82393e-05
-7.63419e-05
-1.83794e-05
-6.47305e-05
-1.82676e-05
-5.36197e-05
-1.8037e-05
-4.2909e-05
-1.78911e-05
-3.26558e-05
-1.76948e-05
-2.28323e-05
-1.75291e-05
-1.34554e-05
-1.73524e-05
-4.56702e-06
-1.71376e-05
3.80909e-06
-1.69077e-05
1.16364e-05
-1.66344e-05
1.88643e-05
-1.63203e-05
2.54494e-05
-1.59638e-05
3.13326e-05
-1.55633e-05
3.65069e-05
-1.5144e-05
4.09142e-05
-1.46644e-05
4.44862e-05
-1.41177e-05
4.72117e-05
-1.35682e-05
4.90371e-05
-1.29837e-05
4.99286e-05
-1.23838e-05
4.99191e-05
-1.18544e-05
4.89901e-05
-1.13414e-05
4.72062e-05
-1.09276e-05
4.46509e-05
-1.06357e-05
4.14366e-05
-1.04862e-05
3.76531e-05
-1.04497e-05
3.34114e-05
-1.05511e-05
2.88025e-05
-1.07925e-05
2.3872e-05
-1.11e-05
1.86411e-05
-1.14206e-05
1.3123e-05
-1.15974e-05
7.69843e-06
-1.20803e-05
3.7952e-06
-1.34093e-05
-9.72991e-06
8.17586e-06
-2.90568e-05
3.70819e-05
-8.81039e-05
7.24289e-05
-0.0001033
0.000106017
-9.59627e-05
0.000134782
-8.23208e-05
0.000158995
-7.10555e-05
0.000180411
-6.47925e-05
0.000200794
-6.25684e-05
0.000221134
-6.22459e-05
0.000241583
-6.20419e-05
0.000261789
-6.10216e-05
0.000281232
-5.89238e-05
0.000299437
-5.58441e-05
0.000316054
-5.1992e-05
0.000330852
-4.75807e-05
0.000343686
-4.2795e-05
0.000354489
-3.7804e-05
0.000363281
-3.27803e-05
0.000370152
-2.78733e-05
0.000375229
-2.31812e-05
0.000378678
-1.87989e-05
0.000380688
-1.47797e-05
0.000381439
-1.11449e-05
0.000381107
-7.89932e-06
0.000379853
-5.03074e-06
0.000377835
-2.52382e-06
0.000375202
-3.57484e-07
0.000372005
1.59835e-06
0.000368374
3.25204e-06
0.000364345
4.67646e-06
0.000359975
5.91296e-06
0.000355299
6.98129e-06
0.000350336
7.92627e-06
0.000345101
8.78799e-06
0.000339616
9.60694e-06
0.000333897
1.04559e-05
0.000327993
1.13808e-05
0.000321959
1.24326e-05
0.000315921
1.36243e-05
0.000309996
1.49979e-05
0.00030429
1.65786e-05
0.000298834
1.83588e-05
0.000293612
2.02659e-05
0.000288581
2.21957e-05
0.000283684
2.40702e-05
0.000278855
2.58378e-05
0.000274035
2.74417e-05
0.000269086
2.88518e-05
0.000263896
3.00348e-05
0.000258303
3.10226e-05
0.000252161
3.17657e-05
0.000245374
3.22627e-05
0.00023787
3.2563e-05
0.000229723
3.26467e-05
0.00022098
3.26512e-05
0.000211797
3.25573e-05
0.000202255
3.24801e-05
0.000192436
3.24359e-05
0.00018238
3.24133e-05
0.000172137
3.23983e-05
0.000161714
3.24109e-05
0.000151117
3.2446e-05
0.000140384
3.24585e-05
0.000129524
3.24726e-05
0.000118562
3.2468e-05
0.00010752
3.24503e-05
9.64159e-05
3.23921e-05
8.52775e-05
3.23218e-05
7.41094e-05
3.22235e-05
6.29516e-05
3.20642e-05
5.18266e-05
3.18828e-05
4.07487e-05
3.1661e-05
2.97235e-05
3.14144e-05
1.87898e-05
3.10933e-05
7.98364e-06
3.07313e-05
-2.6892e-06
3.03292e-05
-1.32081e-05
2.98774e-05
-2.3552e-05
2.93758e-05
-3.37019e-05
2.88292e-05
-4.36374e-05
2.823e-05
-5.33319e-05
2.75686e-05
-6.27476e-05
2.68518e-05
-7.18859e-05
2.61192e-05
-8.0721e-05
2.5353e-05
-8.92395e-05
2.45626e-05
-9.74296e-05
2.37595e-05
-0.000105266
2.29381e-05
-0.000112745
2.21316e-05
-0.000119839
2.1338e-05
-0.000126548
2.05711e-05
-0.000132867
1.98575e-05
-0.00013877
1.91779e-05
-0.000144242
1.8587e-05
-0.000149286
1.81235e-05
-0.000153851
1.77637e-05
-0.000157858
1.75446e-05
-0.000161173
1.74924e-05
-0.000163602
1.76312e-05
-0.000164923
1.80041e-05
-0.000164974
1.86392e-05
-0.000163626
1.93682e-05
-0.00016092
2.00446e-05
-0.000157019
2.0338e-05
-0.000152024
1.99224e-05
-0.000146208
1.86779e-05
-0.000139816
1.65196e-05
-0.000133079
1.34973e-05
-0.000126228
9.7187e-06
-0.000119662
5.43774e-06
-0.000113616
7.35633e-07
-0.00010832
-4.0429e-06
-0.000104107
-8.5417e-06
-0.000100968
-1.25137e-05
-9.86073e-05
-1.56891e-05
-9.65824e-05
-1.80311e-05
-9.4444e-05
-1.96748e-05
-9.19063e-05
-2.07769e-05
-8.86894e-05
-2.15963e-05
-8.46924e-05
-2.22647e-05
-7.98578e-05
-2.28716e-05
-7.43283e-05
-2.34206e-05
-6.80173e-05
-2.40058e-05
-6.10142e-05
-2.45323e-05
-5.33879e-05
-2.49787e-05
-4.52084e-05
-2.53171e-05
-3.65893e-05
-2.55268e-05
-2.76471e-05
-2.55765e-05
-1.85208e-05
-2.54466e-05
-9.33636e-06
-2.51483e-05
-2.37352e-07
-2.46623e-05
8.6765e-06
-2.40579e-05
1.72613e-05
-2.32492e-05
2.53954e-05
-2.22519e-05
3.28961e-05
-2.10689e-05
3.96183e-05
-1.97059e-05
4.54097e-05
-1.81753e-05
5.01221e-05
-1.65668e-05
5.36056e-05
-1.48248e-05
5.57076e-05
-1.30296e-05
5.63701e-05
-1.12983e-05
5.55275e-05
-9.64355e-06
5.32227e-05
-8.14489e-06
4.94697e-05
-6.79807e-06
4.4365e-05
-5.68782e-06
3.80214e-05
-4.75639e-06
3.0606e-05
-4.00522e-06
2.2281e-05
-3.27234e-06
1.41779e-05
-3.97719e-06
8.21155e-06
-7.44301e-06
-1.51836e-06
6.67079e-06
-3.57276e-05
3.49657e-05
-0.000116399
7.07517e-05
-0.000139087
0.000105866
-0.000131077
0.000136831
-0.000113285
0.000163437
-9.76621e-05
0.000187152
-8.85075e-05
0.000209732
-8.51477e-05
0.000232355
-8.48688e-05
0.000255372
-8.50596e-05
0.00027849
-8.4139e-05
0.000301102
-8.15365e-05
0.000322575
-7.73163e-05
0.000342387
-7.18043e-05
0.000360158
-6.53517e-05
0.000375707
-5.83438e-05
0.000388966
-5.10628e-05
0.000399956
-4.37709e-05
0.000408746
-3.66628e-05
0.000415512
-2.99472e-05
0.000420412
-2.36989e-05
0.000423651
-1.80188e-05
0.000425433
-1.29268e-05
0.000425947
-8.41346e-06
0.000425369
-4.45333e-06
0.000423845
-9.99018e-07
0.000421537
1.9505e-06
0.000418594
4.54065e-06
0.000415062
6.78401e-06
0.000411005
8.73345e-06
0.000406466
1.04522e-05
0.000401455
1.1992e-05
0.000395981
1.34006e-05
0.000390039
1.47303e-05
0.000383618
1.60282e-05
0.000376739
1.73344e-05
0.000369433
1.86872e-05
0.000361734
2.01314e-05
0.000353711
2.16473e-05
0.000345445
2.32638e-05
0.000337061
2.49628e-05
0.000328694
2.67253e-05
0.000320451
2.85096e-05
0.000312357
3.02891e-05
0.000304402
3.20252e-05
0.000296572
3.36677e-05
0.000288824
3.51903e-05
0.000281117
3.65587e-05
0.000273363
3.77884e-05
0.000265521
3.88649e-05
0.000257513
3.97739e-05
0.000249257
4.05181e-05
0.000240719
4.11015e-05
0.000231827
4.15385e-05
0.00022261
4.18678e-05
0.000213048
4.21197e-05
0.000203196
4.23324e-05
0.000193114
4.25179e-05
0.000182842
4.26847e-05
0.000172407
4.28332e-05
0.000161847
4.29718e-05
0.0001512
4.30923e-05
0.000140472
4.31871e-05
0.00012969
4.32538e-05
0.00011887
4.32882e-05
0.000108035
4.32858e-05
9.7186e-05
4.32409e-05
8.63547e-05
4.31531e-05
7.55671e-05
4.30111e-05
6.48096e-05
4.28217e-05
5.41142e-05
4.25782e-05
4.34928e-05
4.22824e-05
3.29847e-05
4.19226e-05
2.25745e-05
4.15034e-05
1.22837e-05
4.10221e-05
2.13227e-06
4.04806e-05
-7.86462e-06
3.98743e-05
-1.76993e-05
3.92105e-05
-2.73543e-05
3.84842e-05
-3.68052e-05
3.76809e-05
-4.60532e-05
3.68166e-05
-5.51213e-05
3.592e-05
-6.39556e-05
3.49535e-05
-7.25474e-05
3.39448e-05
-8.08856e-05
3.29008e-05
-8.89502e-05
3.18241e-05
-9.67536e-05
3.07415e-05
-0.000104252
2.96295e-05
-0.000111429
2.85152e-05
-0.000118277
2.74195e-05
-0.000124753
2.63333e-05
-0.000130867
2.52915e-05
-0.000136548
2.42685e-05
-0.000141755
2.33303e-05
-0.000146452
2.24609e-05
-0.000150574
2.16667e-05
-0.00015408
2.0998e-05
-0.000156874
2.04249e-05
-0.000158818
1.99484e-05
-0.000159673
1.94947e-05
-0.00015935
1.90447e-05
-0.000157738
1.84331e-05
-0.000154948
1.75482e-05
-0.000151283
1.62566e-05
-0.000147057
1.4452e-05
-0.000142644
1.21066e-05
-0.000138394
9.248e-06
-0.000134662
5.98662e-06
-0.000131683
2.45877e-06
-0.000129825
-1.12311e-06
-0.000129085
-4.78236e-06
-0.000129325
-8.30185e-06
-0.000130276
-1.15633e-05
-0.00013149
-1.44742e-05
-0.000132525
-1.69964e-05
-0.000133062
-1.91385e-05
-0.000132878
-2.09604e-05
-0.000131962
-2.2512e-05
-0.000130359
-2.38681e-05
-0.000128151
-2.50795e-05
-0.000125389
-2.6183e-05
-0.000122123
-2.72714e-05
-0.000118392
-2.8263e-05
-0.000114181
-2.91897e-05
-0.000109505
-2.99933e-05
-0.000104337
-3.06947e-05
-9.86543e-05
-3.12595e-05
-9.24595e-05
-3.16414e-05
-8.57874e-05
-3.18204e-05
-7.86662e-05
-3.17835e-05
-7.12205e-05
-3.15035e-05
-6.34003e-05
-3.10693e-05
-5.53469e-05
-3.03053e-05
-4.7144e-05
-2.92718e-05
-3.89619e-05
-2.78881e-05
-3.08777e-05
-2.62595e-05
-2.31512e-05
-2.42933e-05
-1.58914e-05
-2.20847e-05
-9.27484e-06
-1.96461e-05
-3.54538e-06
-1.70277e-05
1.1829e-06
-1.43718e-05
4.74116e-06
-1.17032e-05
7.07011e-06
-9.12701e-06
8.07921e-06
-6.69692e-06
7.67815e-06
-4.35534e-06
5.83001e-06
-2.15707e-06
3.26851e-06
-7.10845e-07
2.2581e-06
-2.96677e-06
4.06467e-06
-9.24957e-06
2.54631e-06
4.59447e-06
-4.03221e-05
3.11411e-05
-0.000142945
6.62646e-05
-0.00017421
0.000101743
-0.000166556
0.000133704
-0.000145246
0.000161526
-0.000125485
0.00018653
-0.000113511
0.000210513
-0.000109131
0.000234814
-0.000109169
0.000259888
-0.000110134
0.000285398
-0.000109649
0.000310573
-0.000106712
0.000334555
-0.000101299
0.00035663
-9.38785e-05
0.000376338
-8.50598e-05
0.000393418
-7.54243e-05
0.000407809
-6.54537e-05
0.000419582
-5.5544e-05
0.000428901
-4.59812e-05
0.000435955
-3.70015e-05
0.000440987
-2.87311e-05
0.000444216
-2.12471e-05
0.000445873
-1.4584e-05
0.000446171
-8.71158e-06
0.000445299
-3.58175e-06
0.000443421
8.79611e-07
0.00044063
4.74081e-06
0.00043708
8.09129e-06
0.000432861
1.10031e-05
0.000428052
1.35416e-05
0.000422716
1.57888e-05
0.000416913
1.77952e-05
0.000410676
1.96368e-05
0.000404044
2.13627e-05
0.000397065
2.30068e-05
0.00038979
2.46096e-05
0.000382261
2.62164e-05
0.000374537
2.78556e-05
0.00036666
2.95243e-05
0.000358674
3.12499e-05
0.000350616
3.30209e-05
0.000342511
3.48303e-05
0.000334362
3.66579e-05
0.000326189
3.84626e-05
0.000317971
4.02434e-05
0.000309689
4.19492e-05
0.000301337
4.35425e-05
0.000292883
4.50127e-05
0.000284327
4.6344e-05
0.000275649
4.75431e-05
0.00026683
4.85932e-05
0.000257844
4.95035e-05
0.000248664
5.02822e-05
0.000239261
5.09413e-05
0.000229628
5.1501e-05
0.000219769
5.19784e-05
0.000209709
5.23919e-05
0.000199472
5.27553e-05
0.000189057
5.31001e-05
0.000178528
5.33617e-05
0.000167891
5.36092e-05
0.000157175
5.38085e-05
0.000146392
5.39701e-05
0.000135567
5.40782e-05
0.000124708
5.41478e-05
0.000113847
5.41465e-05
0.000102987
5.41002e-05
9.21434e-05
5.39971e-05
8.13368e-05
5.38177e-05
7.05773e-05
5.35812e-05
5.98791e-05
5.32764e-05
4.92384e-05
5.29231e-05
3.87048e-05
5.24562e-05
2.82692e-05
5.1939e-05
1.79437e-05
5.13476e-05
7.74243e-06
5.06819e-05
-2.32574e-06
4.99425e-05
-1.22548e-05
4.91396e-05
-2.20129e-05
4.82423e-05
-3.16047e-05
4.72727e-05
-4.1026e-05
4.62379e-05
-5.02476e-05
4.51416e-05
-5.92723e-05
4.39782e-05
-6.80846e-05
4.27571e-05
-7.6668e-05
4.14842e-05
-8.50067e-05
4.01628e-05
-9.30737e-05
3.88085e-05
-0.000100874
3.74295e-05
-0.00010835
3.59911e-05
-0.000115497
3.45672e-05
-0.0001223
3.3136e-05
-0.00012871
3.1702e-05
-0.000134722
3.02797e-05
-0.000140279
2.8888e-05
-0.000145311
2.74931e-05
-0.000149816
2.61712e-05
-0.000153685
2.48674e-05
-0.00015687
2.36096e-05
-0.000159269
2.23476e-05
-0.000160872
2.10979e-05
-0.000161649
1.98211e-05
-0.000161604
1.83879e-05
-0.000160773
1.6718e-05
-0.000159334
1.48167e-05
-0.00015748
1.25982e-05
-0.000155441
1.00674e-05
-0.000153444
7.25111e-06
-0.000151588
4.13113e-06
-0.000149952
8.22671e-07
-0.000148427
-2.64817e-06
-0.000147139
-6.07025e-06
-0.000146044
-9.39669e-06
-0.000145088
-1.25192e-05
-0.000144201
-1.5362e-05
-0.000143314
-1.78831e-05
-0.00014237
-2.00825e-05
-0.000141331
-2.19988e-05
-0.000140185
-2.36588e-05
-0.000138912
-2.51408e-05
-0.000137499
-2.64919e-05
-0.00013594
-2.77422e-05
-0.000134367
-2.88445e-05
-0.000132694
-2.9936e-05
-0.00013086
-3.1024e-05
-0.000128898
-3.19556e-05
-0.000126713
-3.28792e-05
-0.000124335
-3.36375e-05
-0.000121656
-3.43199e-05
-0.000118623
-3.48535e-05
-0.000115172
-3.52351e-05
-0.000111257
-3.54178e-05
-0.000106938
-3.53887e-05
-0.000102126
-3.51172e-05
-9.68417e-05
-3.45562e-05
-9.1058e-05
-3.36718e-05
-8.48677e-05
-3.24497e-05
-7.83164e-05
-3.08446e-05
-7.1484e-05
-2.89171e-05
-6.44805e-05
-2.66497e-05
-5.74152e-05
-2.40931e-05
-5.04627e-05
-2.13243e-05
-4.37246e-05
-1.84413e-05
-3.73374e-05
-1.55142e-05
-3.1531e-05
-1.25033e-05
-2.66118e-05
-9.27459e-06
-2.2652e-05
-6.11686e-06
-1.81757e-05
-5.18715e-06
-1.06683e-05
-1.04741e-05
-8.85613e-07
-1.90323e-05
1.6607e-06
1.82861e-06
-4.21507e-05
2.56069e-05
-0.000166724
5.87736e-05
-0.000207377
9.3899e-05
-0.000201681
0.000126738
-0.000178085
0.000155932
-0.000154678
0.000182512
-0.000140091
0.000208361
-0.00013498
0.000234985
-0.000135794
0.000262881
-0.000138029
0.000291568
-0.000138336
0.000319971
-0.000135115
0.000346866
-0.000128194
0.000371245
-0.000118258
0.000392461
-0.000106276
0.000410238
-9.32012e-05
0.000424636
-7.98514e-05
0.000435873
-6.67812e-05
0.000444269
-5.43774e-05
0.000450156
-4.28879e-05
0.000453884
-3.24596e-05
0.000455785
-2.31478e-05
0.00045614
-1.49393e-05
0.000455195
-7.7669e-06
0.000453161
-1.5473e-06
0.000450239
3.80169e-06
0.000446547
8.43219e-06
0.000442209
1.24294e-05
0.000437318
1.58944e-05
0.000431961
1.88984e-05
0.000426183
2.15668e-05
0.000420012
2.39663e-05
0.000413502
2.61466e-05
0.000406681
2.81836e-05
0.000399575
3.01129e-05
0.000392218
3.19669e-05
0.000384643
3.37912e-05
0.000376897
3.56015e-05
0.000368996
3.74258e-05
0.000360978
3.92681e-05
0.000352866
4.11327e-05
0.000344697
4.29991e-05
0.00033651
4.48449e-05
0.000328306
4.66667e-05
0.000320094
4.84555e-05
0.00031183
5.02131e-05
0.000303529
5.1844e-05
0.000295138
5.3403e-05
0.000286623
5.48592e-05
0.000277965
5.62011e-05
0.000269137
5.74214e-05
0.00026012
5.85205e-05
0.0002509
5.95021e-05
0.000241464
6.03772e-05
0.000231815
6.11505e-05
0.000221952
6.18413e-05
0.000211886
6.24577e-05
0.000201643
6.29985e-05
0.000191263
6.34798e-05
0.000180726
6.38989e-05
0.000170082
6.42534e-05
0.000159337
6.45533e-05
0.000148521
6.47863e-05
0.000137639
6.49603e-05
0.000126725
6.50616e-05
0.000115779
6.50923e-05
0.000104817
6.50621e-05
9.3871e-05
6.49433e-05
8.29367e-05
6.47519e-05
7.20365e-05
6.44815e-05
6.11734e-05
6.41394e-05
5.03924e-05
6.37041e-05
3.96699e-05
6.31786e-05
2.90374e-05
6.25716e-05
1.85048e-05
6.18802e-05
8.08447e-06
6.11022e-05
-2.21082e-06
6.02378e-05
-1.23739e-05
5.93027e-05
-2.23688e-05
5.82372e-05
-3.22038e-05
5.71077e-05
-4.18632e-05
5.58973e-05
-5.13301e-05
5.46086e-05
-6.05879e-05
5.32359e-05
-6.9625e-05
5.17942e-05
-7.84249e-05
5.02841e-05
-8.69507e-05
4.86886e-05
-9.51927e-05
4.70505e-05
-0.000103115
4.53514e-05
-0.000110759
4.36353e-05
-0.000118032
4.18406e-05
-0.000124928
4.00316e-05
-0.000131399
3.81731e-05
-0.000137419
3.62992e-05
-0.000142939
3.44086e-05
-0.000147991
3.25452e-05
-0.000152458
3.06376e-05
-0.000156324
2.87338e-05
-0.000159516
2.68013e-05
-0.000162065
2.48964e-05
-0.000163881
2.29139e-05
-0.000164933
2.08731e-05
-0.000165248
1.87032e-05
-0.000164968
1.64384e-05
-0.000164085
1.39338e-05
-0.000162707
1.12194e-05
-0.000160964
8.32434e-06
-0.000158939
5.2265e-06
-0.000156842
2.03363e-06
-0.000154794
-1.22484e-06
-0.000152848
-4.59421e-06
-0.000151054
-7.86467e-06
-0.000149429
-1.10209e-05
-0.000147947
-1.40014e-05
-0.000146551
-1.67582e-05
-0.000145175
-1.92592e-05
-0.000143747
-2.15101e-05
-0.000142254
-2.34926e-05
-0.000140634
-2.52779e-05
-0.000138939
-2.68367e-05
-0.000137209
-2.82213e-05
-0.000135441
-2.95099e-05
-0.000133628
-3.06574e-05
-0.000131862
-3.17029e-05
-0.000130221
-3.26642e-05
-0.000128603
-3.35738e-05
-0.000127073
-3.44096e-05
-0.00012553
-3.51807e-05
-0.000123979
-3.58701e-05
-0.000122358
-3.64746e-05
-0.000120626
-3.69674e-05
-0.000118713
-3.73306e-05
-0.000116548
-3.75541e-05
-0.000114076
-3.75887e-05
-0.00011122
-3.74122e-05
-0.000107915
-3.69769e-05
-0.00010412
-3.62452e-05
-9.97468e-05
-3.52175e-05
-9.48145e-05
-3.38494e-05
-8.92891e-05
-3.2175e-05
-8.31969e-05
-3.01853e-05
-7.6593e-05
-2.79281e-05
-6.95089e-05
-2.55254e-05
-6.20635e-05
-2.29597e-05
-5.44547e-05
-2.01121e-05
-4.69981e-05
-1.67312e-05
-3.95235e-05
-1.35915e-05
-3.04927e-05
-1.4218e-05
-1.8039e-05
-2.29278e-05
-4.2501e-06
-3.28212e-05
-2.5894e-06
-1.8205e-06
-4.03302e-05
1.69135e-05
-0.000185458
4.56247e-05
-0.000236088
7.92581e-05
-0.000235315
0.000112587
-0.000211414
0.000143505
-0.000185596
0.000172757
-0.000169342
0.000202157
-0.000164381
0.000233132
-0.000166769
0.000265983
-0.000170881
0.000299932
-0.000172285
0.00033343
-0.000168612
0.000364704
-0.000159468
0.000392311
-0.000145865
0.000415406
-0.000129371
0.000433766
-0.000111561
0.000447662
-9.37473e-05
0.000457594
-7.67138e-05
0.000464148
-6.09309e-05
0.000467905
-4.66448e-05
0.000469397
-3.39523e-05
0.000469098
-2.28486e-05
0.00046737
-1.32115e-05
0.00046453
-4.92634e-06
0.000460831
2.15095e-06
0.000456422
8.21081e-06
0.000451463
1.33919e-05
0.000446067
1.78249e-05
0.00044033
2.16318e-05
0.000434258
2.497e-05
0.0004279
2.79248e-05
0.00042131
3.05567e-05
0.000414509
3.2947e-05
0.000407527
3.51656e-05
0.000400382
3.72588e-05
0.000393063
3.92853e-05
0.000385593
4.12617e-05
0.000378011
4.31831e-05
0.000370298
4.5139e-05
0.000362489
4.70772e-05
0.000354608
4.90139e-05
0.000346622
5.09845e-05
0.00033855
5.29172e-05
0.000330378
5.48387e-05
0.000322125
5.67085e-05
0.000313807
5.85306e-05
0.000305366
6.02849e-05
0.000296801
6.19681e-05
0.000288102
6.35581e-05
0.000279251
6.50526e-05
0.000270232
6.64404e-05
0.00026103
6.77226e-05
0.000251638
6.88941e-05
0.000242052
6.99636e-05
0.00023226
7.09416e-05
0.000222282
7.18198e-05
0.000212126
7.2614e-05
0.000201795
7.3329e-05
0.000191314
7.39607e-05
0.000180699
7.45141e-05
0.000169962
7.49905e-05
0.000159124
7.53909e-05
0.000148201
7.57097e-05
0.000137208
7.59533e-05
0.000126168
7.61019e-05
0.000115086
7.6174e-05
0.000103987
7.61613e-05
9.28834e-05
7.60465e-05
8.17897e-05
7.58456e-05
7.07195e-05
7.55516e-05
5.96705e-05
7.51885e-05
4.87005e-05
7.46741e-05
3.77919e-05
7.40872e-05
2.69643e-05
7.33993e-05
1.62336e-05
7.26109e-05
5.61515e-06
7.17206e-05
-4.87428e-06
7.07272e-05
-1.52309e-05
6.96593e-05
-2.54337e-05
6.844e-05
-3.54606e-05
6.71345e-05
-4.52992e-05
6.57358e-05
-5.49308e-05
6.42401e-05
-6.43443e-05
6.26495e-05
-7.35155e-05
6.09653e-05
-8.24144e-05
5.91831e-05
-9.1065e-05
5.73391e-05
-9.94098e-05
5.53952e-05
-0.000107431
5.33726e-05
-0.000115076
5.12807e-05
-0.000122358
4.91223e-05
-0.000129215
4.68888e-05
-0.000135682
4.46402e-05
-0.000141684
4.23014e-05
-0.000147199
3.99234e-05
-0.00015215
3.74962e-05
-0.000156542
3.50299e-05
-0.00016035
3.25418e-05
-0.000163549
3.00003e-05
-0.000166068
2.74147e-05
-0.000167929
2.47752e-05
-0.000169109
2.20534e-05
-0.000169655
1.92487e-05
-0.000169558
1.63412e-05
-0.000168933
1.33096e-05
-0.000167887
1.01727e-05
-0.000166473
6.91056e-06
-0.000164782
3.53529e-06
-0.000162885
1.37207e-07
-0.000160789
-3.32124e-06
-0.000158709
-6.6745e-06
-0.00015659
-9.98364e-06
-0.000154412
-1.31987e-05
-0.000152239
-1.61747e-05
-0.000150056
-1.89408e-05
-0.00014784
-2.14755e-05
-0.000145623
-2.37267e-05
-0.000143343
-2.57727e-05
-0.000141062
-2.75586e-05
-0.000138762
-2.91366e-05
-0.000136434
-3.05496e-05
-0.000134112
-3.18317e-05
-0.000131824
-3.29458e-05
-0.000129595
-3.39313e-05
-0.000127418
-3.48413e-05
-0.000125316
-3.56763e-05
-0.000123316
-3.64097e-05
-0.000121425
-3.70714e-05
-0.000119609
-3.76862e-05
-0.000117852
-3.82312e-05
-0.000116109
-3.8711e-05
-0.000114379
-3.90601e-05
-0.000112594
-3.93394e-05
-0.000110699
-3.94831e-05
-0.000108596
-3.95162e-05
-0.000106199
-3.93734e-05
-0.000103467
-3.8977e-05
-0.000100308
-3.83769e-05
-9.65817e-05
-3.75754e-05
-9.2302e-05
-3.64547e-05
-8.73738e-05
-3.51136e-05
-8.17329e-05
-3.3569e-05
-7.53772e-05
-3.18811e-05
-6.83181e-05
-3.00189e-05
-6.06864e-05
-2.77437e-05
-5.26232e-05
-2.47944e-05
-4.39314e-05
-2.22832e-05
-3.35675e-05
-2.45819e-05
-2.03145e-05
-3.61809e-05
-5.92883e-06
-4.72068e-05
-8.51823e-06
-6.82174e-06
-3.35084e-05
4.04262e-06
-0.000196322
2.73054e-05
-0.000259351
5.81138e-05
-0.000266123
8.92735e-05
-0.000242574
0.000120166
-0.000216489
0.00015246
-0.000201636
0.000187853
-0.000199773
0.000226714
-0.00020563
0.000268258
-0.000212424
0.000310794
-0.000214821
0.000352115
-0.000209934
0.000389894
-0.000197247
0.000422109
-0.00017808
0.000447613
-0.000154875
0.000466384
-0.000130331
0.000479111
-0.000106474
0.00048684
-8.44435e-05
0.000490605
-6.46952e-05
0.000491347
-4.73874e-05
0.000489822
-3.24271e-05
0.000486608
-1.96342e-05
0.000482229
-8.8329e-06
0.000477045
2.58013e-07
0.000471288
7.90763e-06
0.000465145
1.43536e-05
0.000458742
1.97954e-05
0.000452187
2.43794e-05
0.000445478
2.8341e-05
0.000438671
3.17774e-05
0.000431795
3.48003e-05
0.000424827
3.75246e-05
0.000417787
3.99876e-05
0.000410646
4.23065e-05
0.000403403
4.45014e-05
0.000396063
4.66253e-05
0.000388622
4.87027e-05
0.000381037
5.07685e-05
0.000373371
5.28049e-05
0.000365575
5.48727e-05
0.000357675
5.6914e-05
0.000349669
5.89905e-05
0.000341551
6.10354e-05
0.000333338
6.30515e-05
0.000324995
6.50514e-05
0.000316532
6.69935e-05
0.000307941
6.88767e-05
0.000299218
7.06907e-05
0.000290342
7.24337e-05
0.000281288
7.41064e-05
0.000272066
7.56629e-05
0.000262652
7.71364e-05
0.000253061
7.84852e-05
0.000243275
7.975e-05
0.000233303
8.09135e-05
0.000223143
8.19796e-05
0.000212806
8.29508e-05
0.000202312
8.3823e-05
0.00019166
8.4613e-05
0.000180882
8.52923e-05
0.000169977
8.58955e-05
0.000158976
8.63916e-05
0.000147882
8.68039e-05
0.000136724
8.71106e-05
0.000125506
8.73205e-05
0.00011424
8.74402e-05
0.000102963
8.74379e-05
9.16712e-05
8.73383e-05
8.03834e-05
8.71334e-05
6.91084e-05
8.68267e-05
5.7899e-05
8.63979e-05
4.67229e-05
8.58502e-05
3.56154e-05
8.51947e-05
2.45909e-05
8.44238e-05
1.36636e-05
8.35381e-05
2.84866e-06
8.25356e-05
-7.84699e-06
8.14229e-05
-1.83811e-05
8.01934e-05
-2.87525e-05
7.88114e-05
-3.89489e-05
7.73309e-05
-4.89554e-05
7.57424e-05
-5.87533e-05
7.40381e-05
-6.83211e-05
7.22173e-05
-7.76431e-05
7.02873e-05
-8.66876e-05
6.82275e-05
-9.54335e-05
6.60851e-05
-0.000103872
6.3834e-05
-0.000111984
6.14843e-05
-0.000119731
5.90274e-05
-0.000127091
5.6483e-05
-0.000134051
5.38489e-05
-0.000140543
5.11317e-05
-0.000146572
4.83307e-05
-0.000152104
4.54556e-05
-0.000157094
4.24856e-05
-0.000161535
3.94707e-05
-0.000165389
3.63959e-05
-0.00016863
3.32419e-05
-0.000171225
3.00097e-05
-0.000173174
2.67242e-05
-0.000174491
2.33695e-05
-0.000175192
1.995e-05
-0.000175288
1.64375e-05
-0.000174849
1.28709e-05
-0.000173911
9.23441e-06
-0.00017256
5.55912e-06
-0.000170908
1.88397e-06
-0.000168991
-1.77993e-06
-0.000166847
-5.46506e-06
-0.000164526
-8.99613e-06
-0.000162101
-1.24088e-05
-0.000159698
-1.56011e-05
-0.000157232
-1.86412e-05
-0.000154697
-2.14754e-05
-0.000152119
-2.40538e-05
-0.000149474
-2.63715e-05
-0.000146807
-2.84399e-05
-0.000144103
-3.02627e-05
-0.000141331
-3.1908e-05
-0.000138536
-3.33449e-05
-0.000135755
-3.46127e-05
-0.000132976
-3.57247e-05
-0.000130205
-3.67021e-05
-0.000127469
-3.75773e-05
-0.000124797
-3.83487e-05
-0.000122177
-3.90299e-05
-0.000119608
-3.96402e-05
-0.000117104
-4.01901e-05
-0.000114701
-4.06347e-05
-0.000112335
-4.10769e-05
-0.000109986
-4.14083e-05
-0.000107641
-4.16847e-05
-0.000105251
-4.18735e-05