/*--------------------------------*- C++ -*----------------------------------*\
| =========                 |                                                 |
| \\      /  F ield         | OpenFOAM: The Open Source CFD Toolbox           |
|  \\    /   O peration     | Version:  v2006                                 |
|   \\  /    A nd           | Website:  www.openfoam.com                      |
|    \\/     M anipulation  |                                                 |
\*---------------------------------------------------------------------------*/
FoamFile
{
    version     2.0;
    format      ascii;
    class       volScalarField;
    location    "8.9";
    object      p;
}
// * * * * * * * * * * * * * * * * * * * * * * * * * * * * * * * * * * * * * //

dimensions      [1 -1 -2 0 0 0 0];


internalField   nonuniform List<scalar> 
50000
(
22216.7
22216.8
22217.1
22217.5
22218
22218.7
22219.5
22220.4
22221.5
22222.7
22224
22225.5
22227
22228.8
22230.6
22232.6
22234.7
22237
22239.4
22241.9
22244.5
22247.3
22250.2
22253.2
22256.4
22259.6
22263
22266.5
22270.1
22273.9
22277.7
22281.7
22285.7
22289.9
22294.1
22298.5
22302.9
22307.5
22312.1
22316.8
22321.5
22326.4
22331.3
22336.2
22341.3
22346.3
22351.5
22356.6
22361.9
22367.1
22372.4
22377.7
22383
22388.4
22393.7
22399.1
22404.5
22409.9
22415.2
22420.6
22425.9
22431.2
22436.5
22441.8
22447.1
22452.3
22457.4
22462.6
22467.6
22472.7
22477.7
22482.6
22487.5
22492.3
22497
22501.7
22506.3
22510.9
22515.4
22519.8
22524.1
22528.3
22532.5
22536.6
22540.6
22544.6
22548.4
22552.2
22555.9
22559.5
22563
22566.5
22569.9
22573.1
22576.3
22579.5
22582.5
22585.4
22588.3
22591.1
22593.8
22596.5
22599
22601.5
22603.9
22606.3
22608.5
22610.7
22612.9
22614.9
22616.9
22618.8
22620.7
22622.5
22624.2
22625.9
22627.5
22629.1
22630.6
22632.1
22633.5
22634.9
22636.2
22637.4
22638.6
22639.8
22640.9
22642
22643
22643.9
22644.8
22645.7
22646.5
22647.3
22648
22648.7
22649.4
22649.9
22650.5
22651
22651.5
22651.9
22652.2
22652.6
22652.8
22653.1
22653.3
22653.4
22653.5
22653.5
21765.1
21765.3
21765.5
21765.9
21766.5
21767.1
21767.9
21768.9
21769.9
21771.1
21772.4
21773.9
21775.5
21777.2
21779.1
21781.1
21783.2
21785.5
21787.9
21790.4
21793
21795.8
21798.7
21801.7
21804.9
21808.2
21811.5
21815.1
21818.7
21822.4
21826.3
21830.2
21834.3
21838.4
21842.7
21847
21851.5
21856
21860.6
21865.3
21870.1
21875
21879.9
21884.8
21889.9
21895
21900.1
21905.3
21910.5
21915.8
21921.1
21926.4
21931.7
21937.1
21942.5
21947.8
21953.2
21958.6
21964
21969.3
21974.7
21980
21985.3
21990.6
21995.8
22001.1
22006.2
22011.4
22016.5
22021.5
22026.5
22031.4
22036.3
22041.1
22045.9
22050.6
22055.2
22059.7
22064.2
22068.6
22073
22077.2
22081.4
22085.5
22089.5
22093.4
22097.3
22101.1
22104.8
22108.4
22111.9
22115.4
22118.7
22122
22125.2
22128.3
22131.4
22134.3
22137.2
22140
22142.7
22145.3
22147.9
22150.4
22152.8
22155.1
22157.4
22159.5
22161.7
22163.7
22165.7
22167.6
22169.5
22171.3
22173.1
22174.8
22176.4
22178
22179.5
22181
22182.4
22183.7
22185
22186.3
22187.5
22188.6
22189.7
22190.8
22191.8
22192.7
22193.6
22194.5
22195.3
22196.1
22196.8
22197.5
22198.1
22198.7
22199.3
22199.8
22200.2
22200.6
22201
22201.3
22201.6
22201.8
22202
22202.1
22202.2
22202.3
21313.3
21313.4
21313.7
21314.1
21314.6
21315.3
21316.1
21317
21318.1
21319.3
21320.6
21322.1
21323.7
21325.4
21327.3
21329.3
21331.4
21333.7
21336.1
21338.6
21341.3
21344.1
21347
21350
21353.2
21356.4
21359.8
21363.4
21367
21370.7
21374.6
21378.6
21382.6
21386.8
21391.1
21395.5
21399.9
21404.5
21409.1
21413.8
21418.6
21423.4
21428.4
21433.4
21438.4
21443.5
21448.7
21453.9
21459.1
21464.4
21469.7
21475
21480.4
21485.7
21491.1
21496.5
21501.9
21507.3
21512.7
21518.1
21523.4
21528.8
21534.1
21539.4
21544.6
21549.9
21555.1
21560.2
21565.3
21570.4
21575.4
21580.3
21585.2
21590
21594.8
21599.5
21604.1
21608.7
21613.2
21617.6
21621.9
21626.2
21630.4
21634.5
21638.5
21642.4
21646.3
21650.1
21653.8
21657.4
21660.9
21664.4
21667.7
21671
21674.2
21677.3
21680.4
21683.3
21686.2
21689
21691.7
21694.4
21696.9
21699.4
21701.8
21704.1
21706.4
21708.6
21710.7
21712.8
21714.8
21716.7
21718.6
21720.4
21722.1
21723.8
21725.4
21726.9
21728.5
21729.9
21731.3
21732.7
21733.9
21735.2
21736.4
21737.5
21738.6
21739.7
21740.7
21741.6
21742.5
21743.4
21744.2
21745
21745.7
21746.3
21747
21747.6
21748.1
21748.6
21749.1
21749.5
21749.8
21750.1
21750.4
21750.6
21750.8
21751
21751.1
21751.1
20861.2
20861.3
20861.6
20862
20862.5
20863.2
20864
20864.9
20866
20867.2
20868.5
20870
20871.6
20873.3
20875.2
20877.2
20879.4
20881.6
20884
20886.6
20889.2
20892
20895
20898
20901.2
20904.5
20907.9
20911.4
20915.1
20918.9
20922.7
20926.7
20930.8
20935
20939.3
20943.7
20948.1
20952.7
20957.4
20962.1
20966.9
20971.8
20976.7
20981.7
20986.8
20991.9
20997.1
21002.3
21007.6
21012.9
21018.2
21023.6
21029
21034.3
21039.7
21045.2
21050.6
21056
21061.4
21066.8
21072.2
21077.5
21082.9
21088.2
21093.5
21098.7
21103.9
21109.1
21114.2
21119.3
21124.3
21129.3
21134.2
21139
21143.8
21148.5
21153.1
21157.7
21162.2
21166.6
21171
21175.3
21179.5
21183.6
21187.6
21191.6
21195.4
21199.2
21202.9
21206.5
21210.1
21213.5
21216.9
21220.2
21223.4
21226.5
21229.5
21232.5
21235.4
21238.2
21240.9
21243.5
21246.1
21248.5
21251
21253.3
21255.5
21257.7
21259.8
21261.9
21263.9
21265.8
21267.6
21269.4
21271.2
21272.8
21274.4
21276
21277.5
21278.9
21280.3
21281.7
21283
21284.2
21285.4
21286.5
21287.6
21288.6
21289.6
21290.6
21291.5
21292.3
21293.1
21293.9
21294.6
21295.3
21295.9
21296.5
21297
21297.5
21297.9
21298.3
21298.7
21299
21299.3
21299.5
21299.7
21299.9
21299.9
21300
20408.8
20408.9
20409.2
20409.6
20410.1
20410.8
20411.6
20412.5
20413.6
20414.8
20416.1
20417.6
20419.2
20421
20422.9
20424.9
20427
20429.3
20431.7
20434.3
20437
20439.8
20442.7
20445.8
20449
20452.3
20455.7
20459.3
20463
20466.7
20470.6
20474.7
20478.8
20483
20487.3
20491.7
20496.2
20500.8
20505.5
20510.3
20515.1
20520
20525
20530
20535.1
20540.3
20545.5
20550.7
20556
20561.3
20566.7
20572.1
20577.5
20582.9
20588.3
20593.8
20599.2
20604.7
20610.1
20615.5
20620.9
20626.3
20631.7
20637
20642.3
20647.6
20652.8
20658
20663.2
20668.3
20673.3
20678.3
20683.2
20688.1
20692.9
20697.6
20702.3
20706.9
20711.4
20715.8
20720.2
20724.5
20728.7
20732.8
20736.9
20740.8
20744.7
20748.5
20752.2
20755.8
20759.4
20762.8
20766.2
20769.5
20772.7
20775.8
20778.9
20781.8
20784.7
20787.5
20790.2
20792.8
20795.4
20797.8
20800.2
20802.6
20804.8
20807
20809.1
20811.1
20813.1
20815
20816.9
20818.6
20820.4
20822
20823.6
20825.1
20826.6
20828.1
20829.4
20830.8
20832
20833.3
20834.4
20835.5
20836.6
20837.6
20838.6
20839.6
20840.4
20841.3
20842.1
20842.8
20843.6
20844.2
20844.8
20845.4
20845.9
20846.4
20846.9
20847.3
20847.6
20848
20848.2
20848.5
20848.6
20848.8
20848.9
20848.9
19956.1
19956.2
19956.5
19956.9
19957.4
19958.1
19958.9
19959.8
19960.9
19962.1
19963.5
19965
19966.6
19968.3
19970.2
19972.3
19974.4
19976.7
19979.2
19981.7
19984.4
19987.3
19990.2
19993.3
19996.5
19999.9
20003.3
20006.9
20010.6
20014.4
20018.3
20022.4
20026.5
20030.8
20035.1
20039.6
20044.1
20048.7
20053.5
20058.3
20063.1
20068.1
20073.1
20078.2
20083.3
20088.5
20093.7
20099
20104.3
20109.7
20115.1
20120.5
20126
20131.4
20136.9
20142.4
20147.9
20153.3
20158.8
20164.3
20169.7
20175.1
20180.5
20185.9
20191.2
20196.5
20201.8
20207
20212.2
20217.3
20222.4
20227.4
20232.3
20237.2
20242.1
20246.8
20251.5
20256.1
20260.6
20265.1
20269.5
20273.8
20278
20282.2
20286.2
20290.2
20294.1
20297.9
20301.6
20305.3
20308.8
20312.3
20315.7
20318.9
20322.2
20325.3
20328.3
20331.3
20334.1
20336.9
20339.6
20342.3
20344.8
20347.3
20349.7
20352
20354.2
20356.4
20358.5
20360.5
20362.5
20364.4
20366.2
20367.9
20369.6
20371.3
20372.9
20374.4
20375.9
20377.3
20378.6
20379.9
20381.2
20382.4
20383.6
20384.7
20385.7
20386.7
20387.7
20388.6
20389.5
20390.3
20391.1
20391.9
20392.6
20393.2
20393.8
20394.4
20394.9
20395.4
20395.9
20396.3
20396.6
20396.9
20397.2
20397.4
20397.6
20397.8
20397.8
20397.9
19503.1
19503.2
19503.5
19503.9
19504.4
19505.1
19505.9
19506.9
19507.9
19509.2
19510.5
19512
19513.6
19515.4
19517.3
19519.4
19521.5
19523.9
19526.3
19528.9
19531.6
19534.5
19537.5
19540.6
19543.8
19547.2
19550.7
19554.3
19558
19561.9
19565.8
19569.9
19574.1
19578.4
19582.8
19587.3
19591.8
19596.5
19601.3
19606.1
19611
19616
19621.1
19626.2
19631.4
19636.6
19641.9
19647.2
19652.6
19658
19663.4
19668.9
19674.4
19679.9
19685.4
19690.9
19696.5
19702
19707.5
19713
19718.5
19723.9
19729.4
19734.8
19740.2
19745.5
19750.8
19756.1
19761.3
19766.4
19771.5
19776.6
19781.6
19786.5
19791.3
19796.1
19800.8
19805.5
19810
19814.5
19818.9
19823.2
19827.5
19831.6
19835.7
19839.7
19843.6
19847.4
19851.2
19854.8
19858.4
19861.9
19865.2
19868.5
19871.8
19874.9
19877.9
19880.9
19883.7
19886.5
19889.2
19891.8
19894.4
19896.8
19899.2
19901.5
19903.8
19905.9
19908
19910
19912
19913.8
19915.6
19917.4
19919.1
19920.7
19922.2
19923.7
19925.2
19926.6
19927.9
19929.2
19930.4
19931.6
19932.8
19933.9
19934.9
19935.9
19936.8
19937.7
19938.6
19939.4
19940.2
19940.9
19941.6
19942.3
19942.9
19943.5
19944
19944.5
19944.9
19945.3
19945.6
19945.9
19946.2
19946.4
19946.6
19946.8
19946.8
19946.9
19049.8
19049.9
19050.2
19050.6
19051.1
19051.8
19052.6
19053.6
19054.7
19055.9
19057.3
19058.8
19060.4
19062.2
19064.1
19066.2
19068.4
19070.7
19073.2
19075.8
19078.5
19081.4
19084.4
19087.6
19090.9
19094.3
19097.8
19101.4
19105.2
19109.1
19113.1
19117.2
19121.5
19125.8
19130.2
19134.8
19139.4
19144.1
19148.9
19153.8
19158.8
19163.8
19168.9
19174.1
19179.3
19184.6
19190
19195.3
19200.8
19206.2
19211.7
19217.2
19222.8
19228.3
19233.9
19239.5
19245
19250.6
19256.2
19261.7
19267.3
19272.8
19278.3
19283.7
19289.1
19294.5
19299.9
19305.2
19310.4
19315.6
19320.7
19325.8
19330.8
19335.8
19340.7
19345.5
19350.2
19354.9
19359.5
19364
19368.4
19372.8
19377.1
19381.3
19385.4
19389.4
19393.3
19397.1
19400.9
19404.5
19408.1
19411.6
19415
19418.3
19421.5
19424.6
19427.7
19430.6
19433.5
19436.3
19439
19441.6
19444.1
19446.6
19448.9
19451.2
19453.4
19455.6
19457.6
19459.6
19461.6
19463.4
19465.2
19466.9
19468.6
19470.2
19471.7
19473.2
19474.6
19476
19477.3
19478.6
19479.8
19480.9
19482
19483.1
19484.1
19485.1
19486
19486.9
19487.8
19488.6
19489.3
19490.1
19490.7
19491.4
19492
19492.5
19493.1
19493.5
19494
19494.3
19494.7
19495
19495.3
19495.5
19495.7
19495.8
19495.9
19495.9
18596.2
18596.3
18596.6
18597
18597.6
18598.2
18599
18600
18601.1
18602.3
18603.7
18605.2
18606.9
18608.7
18610.6
18612.7
18614.9
18617.3
18619.8
18622.4
18625.2
18628.1
18631.2
18634.3
18637.7
18641.1
18644.7
18648.4
18652.2
18656.1
18660.2
18664.3
18668.6
18673
18677.5
18682.1
18686.8
18691.5
18696.4
18701.3
18706.4
18711.5
18716.6
18721.9
18727.2
18732.5
18737.9
18743.4
18748.8
18754.4
18759.9
18765.5
18771.1
18776.7
18782.3
18788
18793.6
18799.2
18804.9
18810.5
18816
18821.6
18827.2
18832.7
18838.1
18843.6
18849
18854.3
18859.6
18864.8
18870
18875.1
18880.2
18885.2
18890.1
18895
18899.8
18904.5
18909.1
18913.6
18918.1
18922.5
18926.8
18931
18935.1
18939.1
18943.1
18946.9
18950.7
18954.4
18958
18961.5
18964.9
18968.2
18971.4
18974.5
18977.6
18980.5
18983.4
18986.2
18988.8
18991.5
18994
18996.4
18998.8
19001
19003.2
19005.4
19007.4
19009.4
19011.3
19013.1
19014.9
19016.6
19018.2
19019.8
19021.3
19022.7
19024.1
19025.5
19026.8
19028
19029.2
19030.3
19031.4
19032.4
19033.4
19034.4
19035.3
19036.2
19037
19037.8
19038.5
19039.2
19039.9
19040.5
19041.1
19041.7
19042.2
19042.6
19043.1
19043.4
19043.8
19044.1
19044.3
19044.6
19044.7
19044.9
19045
19045
18142.3
18142.4
18142.7
18143.1
18143.7
18144.3
18145.2
18146.1
18147.2
18148.5
18149.9
18151.4
18153.1
18154.9
18156.8
18158.9
18161.2
18163.6
18166.1
18168.8
18171.6
18174.5
18177.6
18180.8
18184.2
18187.7
18191.3
18195
18198.9
18202.9
18207
18211.2
18215.5
18220
18224.5
18229.2
18233.9
18238.8
18243.7
18248.7
18253.8
18259
18264.2
18269.5
18274.9
18280.3
18285.8
18291.3
18296.8
18302.4
18308.1
18313.7
18319.4
18325.1
18330.7
18336.4
18342.1
18347.8
18353.5
18359.2
18364.8
18370.5
18376.1
18381.6
18387.2
18392.7
18398.1
18403.5
18408.8
18414.1
18419.4
18424.5
18429.6
18434.7
18439.7
18444.6
18449.4
18454.1
18458.8
18463.4
18467.9
18472.3
18476.6
18480.8
18485
18489.1
18493
18496.9
18500.7
18504.4
18508
18511.5
18514.9
18518.2
18521.4
18524.6
18527.6
18530.6
18533.4
18536.2
18538.9
18541.5
18544
18546.4
18548.7
18551
18553.2
18555.3
18557.3
18559.3
18561.1
18562.9
18564.7
18566.3
18567.9
18569.5
18570.9
18572.4
18573.7
18575
18576.3
18577.5
18578.7
18579.8
18580.8
18581.8
18582.8
18583.7
18584.6
18585.5
18586.3
18587
18587.8
18588.5
18589.1
18589.7
18590.3
18590.8
18591.3
18591.8
18592.2
18592.6
18592.9
18593.2
18593.5
18593.7
18593.8
18594
18594.1
18594.1
17688.1
17688.2
17688.5
17688.9
17689.5
17690.1
17691
17691.9
17693
17694.3
17695.7
17697.2
17698.9
17700.8
17702.7
17704.9
17707.1
17709.6
17712.1
17714.8
17717.7
17720.7
17723.8
17727
17730.4
17734
17737.6
17741.4
17745.4
17749.4
17753.6
17757.9
17762.3
17766.8
17771.4
17776.1
17780.9
17785.8
17790.8
17795.9
17801.1
17806.3
17811.6
17817
17822.5
17828
17833.5
17839.1
17844.7
17850.4
17856.1
17861.8
17867.6
17873.3
17879.1
17884.9
17890.6
17896.4
17902.2
17907.9
17913.6
17919.3
17925
17930.6
17936.2
17941.8
17947.3
17952.7
17958.1
17963.5
17968.8
17974
17979.2
17984.3
17989.3
17994.2
17999.1
18003.9
18008.6
18013.2
18017.7
18022.2
18026.6
18030.8
18035
18039.1
18043.1
18047
18050.8
18054.5
18058.1
18061.6
18065.1
18068.4
18071.6
18074.8
18077.8
18080.8
18083.6
18086.4
18089.1
18091.6
18094.1
18096.6
18098.9
18101.1
18103.3
18105.3
18107.3
18109.3
18111.1
18112.9
18114.6
18116.2
18117.8
18119.3
18120.7
18122.1
18123.4
18124.7
18125.9
18127.1
18128.2
18129.3
18130.3
18131.3
18132.2
18133.1
18134
18134.8
18135.6
18136.3
18137
18137.7
18138.3
18138.9
18139.5
18140
18140.5
18140.9
18141.4
18141.7
18142.1
18142.3
18142.6
18142.8
18143
18143.1
18143.2
18143.2
17233.5
17233.7
17234
17234.4
17234.9
17235.6
17236.4
17237.4
17238.5
17239.8
17241.2
17242.8
17244.5
17246.3
17248.3
17250.5
17252.8
17255.2
17257.8
17260.6
17263.5
17266.5
17269.7
17273
17276.4
17280
17283.7
17287.6
17291.6
17295.7
17299.9
17304.3
17308.8
17313.3
17318
17322.8
17327.7
17332.7
17337.8
17343
17348.2
17353.5
17358.9
17364.4
17369.9
17375.5
17381.1
17386.8
17392.5
17398.3
17404.1
17409.9
17415.7
17421.6
17427.4
17433.3
17439.1
17445
17450.8
17456.6
17462.4
17468.2
17473.9
17479.6
17485.3
17490.9
17496.5
17502
17507.5
17512.9
17518.3
17523.6
17528.8
17533.9
17539
17544
17548.9
17553.7
17558.5
17563.2
17567.7
17572.2
17576.6
17580.9
17585.2
17589.3
17593.3
17597.2
17601.1
17604.8
17608.4
17612
17615.4
17618.7
17622
17625.1
17628.2
17631.1
17634
17636.7
17639.4
17642
17644.4
17646.8
17649.1
17651.4
17653.5
17655.5
17657.5
17659.4
17661.2
17662.9
17664.6
17666.2
17667.7
17669.2
17670.6
17671.9
17673.2
17674.4
17675.6
17676.7
17677.8
17678.8
17679.8
17680.8
17681.7
17682.6
17683.4
17684.2
17684.9
17685.7
17686.3
17687
17687.6
17688.2
17688.7
17689.2
17689.7
17690.1
17690.5
17690.9
17691.2
17691.5
17691.8
17692
17692.1
17692.3
17692.4
17692.4
16778.7
16778.8
16779.1
16779.5
16780.1
16780.8
16781.6
16782.6
16783.7
16785
16786.4
16788
16789.7
16791.6
16793.6
16795.8
16798.1
16800.6
16803.2
16806
16809
16812
16815.3
16818.6
16822.1
16825.8
16829.6
16833.5
16837.5
16841.7
16846
16850.5
16855
16859.7
16864.5
16869.3
16874.3
16879.4
16884.6
16889.8
16895.2
16900.6
16906.1
16911.6
16917.3
16922.9
16928.7
16934.4
16940.3
16946.1
16952
16957.9
16963.8
16969.8
16975.7
16981.6
16987.6
16993.5
16999.4
17005.3
17011.2
17017.1
17022.9
17028.7
17034.4
17040.1
17045.8
17051.4
17056.9
17062.4
17067.8
17073.2
17078.5
17083.7
17088.8
17093.9
17098.8
17103.7
17108.5
17113.2
17117.9
17122.4
17126.8
17131.2
17135.4
17139.6
17143.7
17147.6
17151.5
17155.2
17158.9
17162.4
17165.9
17169.2
17172.5
17175.6
17178.7
17181.6
17184.5
17187.2
17189.9
17192.4
17194.9
17197.3
17199.5
17201.7
17203.8
17205.8
17207.8
17209.6
17211.4
17213.1
17214.7
17216.3
17217.7
17219.2
17220.5
17221.8
17223
17224.2
17225.4
17226.4
17227.5
17228.5
17229.4
17230.3
17231.2
17232
17232.8
17233.6
17234.3
17235
17235.7
17236.3
17236.9
17237.4
17238
17238.5
17238.9
17239.4
17239.8
17240.1
17240.4
17240.7
17241
17241.2
17241.3
17241.5
17241.5
17241.6
16323.5
16323.7
16324
16324.4
16324.9
16325.6
16326.4
16327.4
16328.5
16329.8
16331.3
16332.9
16334.6
16336.5
16338.6
16340.8
16343.1
16345.6
16348.3
16351.2
16354.1
16357.3
16360.5
16364
16367.5
16371.3
16375.1
16379.1
16383.2
16387.5
16391.9
16396.4
16401
16405.8
16410.7
16415.6
16420.7
16425.9
16431.1
16436.5
16441.9
16447.5
16453.1
16458.7
16464.4
16470.2
16476.1
16481.9
16487.9
16493.8
16499.8
16505.8
16511.8
16517.9
16523.9
16530
16536
16542
16548.1
16554.1
16560
16566
16571.9
16577.8
16583.6
16589.4
16595.1
16600.8
16606.4
16612
16617.4
16622.9
16628.2
16633.5
16638.7
16643.8
16648.8
16653.8
16658.7
16663.4
16668.1
16672.7
16677.2
16681.6
16685.9
16690
16694.1
16698.1
16702
16705.8
16709.5
16713
16716.5
16719.9
16723.1
16726.3
16729.3
16732.3
16735.1
16737.9
16740.5
16743.1
16745.5
16747.8
16750.1
16752.3
16754.3
16756.3
16758.2
16760
16761.7
16763.4
16764.9
16766.4
16767.9
16769.2
16770.5
16771.8
16773
16774.1
16775.2
16776.2
16777.2
16778.1
16779
16779.9
16780.7
16781.5
16782.3
16783
16783.7
16784.4
16785
16785.6
16786.2
16786.7
16787.2
16787.7
16788.2
16788.6
16789
16789.3
16789.6
16789.9
16790.2
16790.4
16790.5
16790.7
16790.7
16790.8
15868
15868.1
15868.4
15868.9
15869.4
15870.1
15870.9
15871.9
15873
15874.3
15875.8
15877.4
15879.2
15881.1
15883.2
15885.4
15887.8
15890.4
15893.1
15896
15899
15902.2
15905.5
15909
15912.6
15916.4
15920.4
15924.4
15928.7
15933
15937.5
15942.1
15946.8
15951.7
15956.6
15961.7
15966.9
15972.2
15977.5
15983
15988.5
15994.2
15999.9
16005.7
16011.5
16017.4
16023.3
16029.3
16035.4
16041.4
16047.5
16053.7
16059.8
16065.9
16072.1
16078.3
16084.4
16090.5
16096.7
16102.8
16108.8
16114.9
16120.9
16126.8
16132.8
16138.6
16144.5
16150.2
16155.9
16161.6
16167.1
16172.6
16178.1
16183.4
16188.7
16193.9
16199
16204
16208.9
16213.7
16218.5
16223.1
16227.6
16232.1
16236.4
16240.6
16244.8
16248.8
16252.7
16256.5
16260.2
16263.8
16267.3
16270.7
16274
16277.1
16280.2
16283.1
16286
16288.7
16291.3
16293.8
16296.3
16298.6
16300.8
16302.9
16304.9
16306.9
16308.7
16310.5
16312.2
16313.8
16315.3
16316.7
16318.1
16319.4
16320.6
16321.8
16323
16324
16325
16326
16326.9
16327.8
16328.7
16329.5
16330.3
16331
16331.8
16332.4
16333.1
16333.7
16334.4
16334.9
16335.5
16336
16336.5
16337
16337.4
16337.8
16338.2
16338.6
16338.9
16339.1
16339.4
16339.6
16339.7
16339.9
16340
16340
15412.1
15412.3
15412.6
15413
15413.5
15414.2
15415
15416
15417.2
15418.5
15419.9
15421.6
15423.3
15425.3
15427.4
15429.7
15432.1
15434.7
15437.5
15440.4
15443.5
15446.7
15450.2
15453.7
15457.4
15461.3
15465.3
15469.5
15473.8
15478.2
15482.8
15487.5
15492.3
15497.3
15502.3
15507.5
15512.8
15518.2
15523.7
15529.3
15535
15540.7
15546.5
15552.4
15558.4
15564.4
15570.5
15576.6
15582.8
15589
15595.2
15601.4
15607.7
15614
15620.2
15626.5
15632.8
15639
15645.2
15651.5
15657.6
15663.8
15669.9
15676
15682
15688
15693.9
15699.7
15705.5
15711.2
15716.9
15722.5
15728
15733.4
15738.8
15744
15749.2
15754.3
15759.2
15764.1
15768.9
15773.6
15778.2
15782.7
15787.1
15791.4
15795.5
15799.6
15803.6
15807.4
15811.1
15814.7
15818.3
15821.6
15824.9
15828.1
15831.2
15834.1
15836.9
15839.6
15842.3
15844.8
15847.2
15849.5
15851.6
15853.7
15855.7
15857.6
15859.4
15861.1
15862.7
15864.3
15865.7
15867.1
15868.4
15869.7
15870.8
15871.9
15873
15874
15875
15875.9
15876.7
15877.6
15878.4
15879.1
15879.9
15880.6
15881.2
15881.9
15882.5
15883.1
15883.7
15884.3
15884.8
15885.3
15885.8
15886.2
15886.7
15887.1
15887.4
15887.8
15888.1
15888.4
15888.6
15888.8
15889
15889.1
15889.2
15889.2
14955.8
14956
14956.4
14956.8
14957.3
14958
14958.8
14959.8
14960.9
14962.2
14963.7
14965.4
14967.2
14969.1
14971.3
14973.6
14976.1
14978.7
14981.5
14984.5
14987.7
14991
14994.5
14998.1
15001.9
15005.8
15009.9
15014.2
15018.6
15023.1
15027.8
15032.6
15037.6
15042.6
15047.8
15053.1
15058.5
15064.1
15069.7
15075.4
15081.2
15087.1
15093
15099.1
15105.2
15111.3
15117.5
15123.8
15130.1
15136.4
15142.7
15149.1
15155.5
15161.9
15168.3
15174.7
15181.1
15187.5
15193.8
15200.1
15206.4
15212.7
15218.9
15225.1
15231.2
15237.3
15243.3
15249.3
15255.2
15261
15266.7
15272.4
15278
15283.5
15288.9
15294.3
15299.5
15304.6
15309.7
15314.7
15319.5
15324.3
15328.9
15333.5
15337.9
15342.2
15346.5
15350.6
15354.5
15358.4
15362.2
15365.8
15369.4
15372.8
15376.1
15379.2
15382.3
15385.2
15388.1
15390.8
15393.4
15395.9
15398.2
15400.5
15402.6
15404.7
15406.6
15408.5
15410.2
15411.9
15413.4
15414.9
15416.3
15417.6
15418.8
15420
15421.1
15422.1
15423.1
15424
15424.9
15425.8
15426.6
15427.3
15428.1
15428.8
15429.4
15430.1
15430.7
15431.3
15431.9
15432.5
15433
15433.6
15434.1
15434.6
15435
15435.5
15435.9
15436.3
15436.7
15437
15437.3
15437.6
15437.8
15438
15438.2
15438.3
15438.4
15438.4
14499.2
14499.4
14499.8
14500.2
14500.7
14501.4
14502.2
14503.2
14504.3
14505.6
14507.1
14508.8
14510.6
14512.6
14514.8
14517.1
14519.6
14522.3
14525.2
14528.2
14531.5
14534.8
14538.4
14542.1
14546
14550
14554.2
14558.6
14563.1
14567.7
14572.5
14577.5
14582.5
14587.7
14593
14598.5
14604
14609.7
14615.4
14621.3
14627.2
14633.2
14639.3
14645.5
14651.7
14658
14664.4
14670.8
14677.2
14683.7
14690.2
14696.7
14703.2
14709.8
14716.3
14722.8
14729.4
14735.9
14742.3
14748.8
14755.2
14761.6
14767.9
14774.2
14780.5
14786.7
14792.8
14798.9
14804.8
14810.8
14816.6
14822.4
14828.1
14833.7
14839.2
14844.6
14849.9
14855.1
14860.3
14865.3
14870.2
14875
14879.8
14884.4
14888.9
14893.2
14897.5
14901.7
14905.7
14909.6
14913.4
14917.1
14920.6
14924
14927.4
14930.5
14933.6
14936.5
14939.4
14942.1
14944.6
14947.1
14949.4
14951.7
14953.8
14955.8
14957.7
14959.5
14961.1
14962.7
14964.2
14965.6
14966.9
14968.2
14969.3
14970.4
14971.4
14972.4
14973.3
14974.1
14974.9
14975.7
14976.4
14977.1
14977.7
14978.4
14979
14979.6
14980.2
14980.7
14981.3
14981.8
14982.3
14982.8
14983.3
14983.8
14984.3
14984.7
14985.1
14985.5
14985.9
14986.2
14986.5
14986.8
14987.1
14987.3
14987.4
14987.6
14987.6
14987.7
14042.2
14042.5
14042.8
14043.2
14043.7
14044.3
14045.2
14046.1
14047.3
14048.6
14050.1
14051.8
14053.6
14055.6
14057.8
14060.2
14062.8
14065.5
14068.5
14071.6
14074.9
14078.3
14082
14085.8
14089.7
14093.9
14098.2
14102.7
14107.3
14112
14116.9
14122
14127.2
14132.5
14138
14143.5
14149.2
14155
14160.9
14166.9
14173
14179.2
14185.4
14191.8
14198.2
14204.6
14211.1
14217.7
14224.3
14230.9
14237.5
14244.2
14250.9
14257.6
14264.3
14270.9
14277.6
14284.3
14290.9
14297.5
14304
14310.5
14317
14323.4
14329.8
14336.1
14342.3
14348.5
14354.6
14360.6
14366.6
14372.4
14378.2
14383.9
14389.5
14395
14400.4
14405.7
14410.9
14416.1
14421.1
14425.9
14430.7
14435.4
14439.9
14444.4
14448.7
14452.9
14457
14460.9
14464.8
14468.5
14472
14475.5
14478.8
14482
14485.1
14488
14490.8
14493.5
14496.1
14498.5
14500.8
14503
14505.1
14507
14508.9
14510.6
14512.2
14513.7
14515.1
14516.4
14517.7
14518.8
14519.9
14520.9
14521.8
14522.6
14523.5
14524.2
14524.9
14525.6
14526.2
14526.8
14527.4
14528
14528.5
14529.1
14529.6
14530.1
14530.6
14531.1
14531.6
14532.1
14532.6
14533
14533.5
14533.9
14534.3
14534.7
14535.1
14535.4
14535.7
14536
14536.3
14536.5
14536.7
14536.8
14536.9
14536.9
13584.8
13585.1
13585.4
13585.8
13586.3
13586.9
13587.7
13588.7
13589.8
13591.2
13592.7
13594.3
13596.2
13598.2
13600.5
13602.9
13605.5
13608.3
13611.3
13614.5
13617.9
13621.4
13625.1
13629
13633.1
13637.4
13641.8
13646.4
13651.1
13656
13661
13666.2
13671.6
13677
13682.6
13688.3
13694.2
13700.1
13706.2
13712.3
13718.6
13724.9
13731.4
13737.9
13744.4
13751
13757.7
13764.4
13771.2
13778
13784.8
13791.6
13798.5
13805.3
13812.2
13819
13825.8
13832.6
13839.4
13846.1
13852.8
13859.4
13866
13872.6
13879.1
13885.5
13891.9
13898.2
13904.4
13910.5
13916.6
13922.5
13928.4
13934.2
13939.9
13945.5
13951
13956.4
13961.7
13966.9
13972
13977
13981.8
13986.5
13991.2
13995.7
14000
14004.3
14008.4
14012.4
14016.3
14020
14023.6
14027.1
14030.4
14033.6
14036.7
14039.6
14042.4
14045.1
14047.7
14050.1
14052.3
14054.5
14056.5
14058.4
14060.2
14061.8
14063.4
14064.8
14066.1
14067.4
14068.5
14069.5
14070.5
14071.4
14072.2
14073
14073.7
14074.3
14074.9
14075.5
14076
14076.6
14077.1
14077.5
14078
14078.5
14078.9
14079.4
14079.9
14080.3
14080.8
14081.3
14081.7
14082.2
14082.6
14083
14083.5
14083.9
14084.2
14084.6
14084.9
14085.2
14085.5
14085.7
14085.9
14086
14086.1
14086.1
13127
13127.3
13127.6
13128
13128.5
13129.1
13129.9
13130.8
13131.9
13133.3
13134.8
13136.5
13138.3
13140.4
13142.7
13145.2
13147.8
13150.7
13153.8
13157
13160.4
13164.1
13167.9
13171.9
13176.1
13180.5
13185
13189.7
13194.6
13199.6
13204.8
13210.1
13215.6
13221.2
13227
13232.8
13238.8
13245
13251.2
13257.5
13263.9
13270.5
13277.1
13283.7
13290.5
13297.3
13304.1
13311
13318
13324.9
13331.9
13338.9
13346
13353
13360
13367
13374
13380.9
13387.8
13394.7
13401.6
13408.4
13415.1
13421.8
13428.4
13435
13441.5
13447.9
13454.2
13460.5
13466.6
13472.7
13478.7
13484.6
13490.4
13496.1
13501.7
13507.2
13512.6
13517.9
13523
13528.1
13533
13537.8
13542.5
13547.1
13551.5
13555.8
13560
13564
13567.9
13571.7
13575.3
13578.8
13582.2
13585.4
13588.5
13591.4
13594.2
13596.9
13599.4
13601.8
13604
13606.1
13608.1
13609.9
13611.6
13613.2
13614.7
13616
13617.3
13618.4
13619.4
13620.4
13621.2
13622
13622.7
13623.3
13623.9
13624.4
13624.9
13625.4
13625.8
13626.2
13626.6
13627
13627.4
13627.8
13628.2
13628.6
13629.1
13629.5
13629.9
13630.4
13630.8
13631.3
13631.7
13632.1
13632.6
13633
13633.4
13633.7
13634.1
13634.4
13634.7
13634.9
13635.1
13635.3
13635.3
13635.4
12668.7
12669
12669.4
12669.8
12670.2
12670.8
12671.5
12672.5
12673.6
12674.9
12676.4
12678.1
12680
12682.1
12684.4
12686.9
12689.7
12692.6
12695.7
12699
12702.6
12706.3
12710.2
12714.4
12718.7
12723.1
12727.8
12732.6
12737.6
12742.8
12748.1
12753.6
12759.3
12765
12771
12777
12783.2
12789.5
12795.9
12802.4
12809
12815.7
12822.5
12829.4
12836.3
12843.3
12850.4
12857.5
12864.6
12871.8
12878.9
12886.1
12893.3
12900.5
12907.7
12914.9
12922.1
12929.2
12936.3
12943.3
12950.3
12957.3
12964.2
12971
12977.8
12984.5
12991.1
12997.6
13004.1
13010.5
13016.8
13023
13029.1
13035.1
13041
13046.8
13052.5
13058.1
13063.6
13068.9
13074.2
13079.3
13084.3
13089.2
13094
13098.6
13103.1
13107.5
13111.7
13115.8
13119.7
13123.6
13127.2
13130.8
13134.1
13137.4
13140.5
13143.4
13146.2
13148.8
13151.3
13153.7
13155.9
13157.9
13159.8
13161.6
13163.2
13164.7
13166.1
13167.4
13168.5
13169.5
13170.4
13171.2
13171.9
13172.6
13173.2
13173.7
13174.1
13174.5
13174.9
13175.2
13175.5
13175.8
13176.1
13176.4
13176.8
13177.1
13177.4
13177.8
13178.1
13178.5
13178.9
13179.4
13179.8
13180.3
13180.7
13181.2
13181.6
13182
13182.5
13182.8
13183.2
13183.5
13183.8
13184.1
13184.3
13184.5
13184.6
13184.6
12210
12210.3
12210.6
12211.1
12211.5
12212
12212.7
12213.6
12214.7
12216
12217.5
12219.2
12221.2
12223.3
12225.6
12228.2
12231
12234
12237.2
12240.6
12244.2
12248.1
12252.1
12256.3
12260.8
12265.4
12270.2
12275.2
12280.3
12285.6
12291.1
12296.8
12302.6
12308.5
12314.6
12320.9
12327.2
12333.7
12340.3
12347.1
12353.9
12360.8
12367.8
12374.8
12382
12389.2
12396.4
12403.7
12411.1
12418.4
12425.8
12433.2
12440.6
12448
12455.4
12462.8
12470.1
12477.4
12484.7
12491.9
12499.1
12506.2
12513.2
12520.2
12527.1
12534
12540.7
12547.4
12554
12560.5
12567
12573.3
12579.5
12585.6
12591.6
12597.6
12603.4
12609.1
12614.6
12620.1
12625.4
12630.7
12635.8
12640.7
12645.6
12650.3
12654.8
12659.3
12663.6
12667.7
12671.7
12675.6
12679.3
12682.8
12686.2
12689.5
12692.6
12695.5
12698.3
12700.9
12703.4
12705.7
12707.9
12709.9
12711.7
12713.4
12715
12716.4
12717.7
12718.8
12719.8
12720.7
12721.5
12722.2
12722.7
12723.2
12723.7
12724
12724.3
12724.6
12724.8
12725
12725.2
12725.3
12725.5
12725.7
12725.9
12726.2
12726.5
12726.8
12727.1
12727.4
12727.8
12728.3
12728.7
12729.1
12729.6
12730.1
12730.6
12731
12731.5
12731.9
12732.3
12732.7
12733
12733.3
12733.5
12733.7
12733.8
12733.8
11750.7
11751
11751.4
11751.8
11752.3
11752.8
11753.4
11754.3
11755.4
11756.6
11758.1
11759.9
11761.8
11764
11766.3
11769
11771.8
11774.9
11778.2
11781.7
11785.4
11789.4
11793.5
11797.9
11802.4
11807.2
11812.1
11817.2
11822.6
11828.1
11833.7
11839.5
11845.5
11851.7
11858
11864.4
11871
11877.6
11884.5
11891.4
11898.4
11905.5
11912.8
11920
11927.4
11934.8
11942.3
11949.8
11957.4
11965
11972.6
11980.2
11987.8
11995.4
12003
12010.6
12018.1
12025.6
12033
12040.4
12047.8
12055.1
12062.3
12069.4
12076.5
12083.5
12090.4
12097.2
12104
12110.6
12117.2
12123.6
12130
12136.2
12142.4
12148.4
12154.3
12160.1
12165.8
12171.3
12176.8
12182.1
12187.3
12192.3
12197.3
12202
12206.7
12211.2
12215.5
12219.7
12223.8
12227.7
12231.5
12235.1
12238.5
12241.8
12244.9
12247.8
12250.6
12253.2
12255.7
12257.9
12260.1
12262
12263.8
12265.4
12266.9
12268.2
12269.3
12270.4
12271.2
12272
12272.6
12273.1
12273.6
12273.9
12274.1
12274.3
12274.5
12274.5
12274.6
12274.6
12274.7
12274.7
12274.8
12274.9
12275
12275.1
12275.3
12275.6
12275.9
12276.2
12276.6
12277
12277.4
12277.9
12278.4
12278.9
12279.4
12279.9
12280.4
12280.9
12281.4
12281.8
12282.1
12282.4
12282.7
12282.9
12283
12283.1
11290.8
11291.1
11291.6
11292.1
11292.5
11293
11293.6
11294.4
11295.4
11296.7
11298.2
11299.9
11301.8
11304
11306.5
11309.1
11312.1
11315.2
11318.6
11322.2
11326
11330.1
11334.4
11338.9
11343.6
11348.5
11353.6
11358.9
11364.4
11370
11375.9
11381.9
11388.1
11394.4
11400.9
11407.5
11414.3
11421.2
11428.2
11435.4
11442.7
11450
11457.5
11465
11472.6
11480.3
11488
11495.7
11503.5
11511.3
11519.2
11527
11534.9
11542.7
11550.5
11558.3
11566
11573.7
11581.4
11588.9
11596.5
11603.9
11611.3
11618.7
11625.9
11633
11640.1
11647.1
11654
11660.8
11667.4
11674
11680.5
11686.9
11693.1
11699.3
11705.3
11711.2
11717
11722.7
11728.2
11733.6
11738.9
11744.1
11749.1
11753.9
11758.6
11763.2
11767.7
11771.9
11776
11780
11783.8
11787.4
11790.9
11794.2
11797.3
11800.3
11803
11805.6
11808.1
11810.3
11812.4
11814.3
11816
11817.5
11818.9
11820.1
11821.1
11822
11822.8
11823.3
11823.8
11824.2
11824.4
11824.5
11824.6
11824.6
11824.5
11824.4
11824.3
11824.2
11824.1
11824
11823.9
11823.8
11823.8
11823.9
11824
11824.2
11824.4
11824.8
11825.1
11825.6
11826
11826.5