/*--------------------------------*- C++ -*----------------------------------*\
| =========                 |                                                 |
| \\      /  F ield         | OpenFOAM: The Open Source CFD Toolbox           |
|  \\    /   O peration     | Version:  v2006                                 |
|   \\  /    A nd           | Website:  www.openfoam.com                      |
|    \\/     M anipulation  |                                                 |
\*---------------------------------------------------------------------------*/
FoamFile
{
    version     2.0;
    format      ascii;
    class       volScalarField;
    location    "11.1";
    object      p_rgh;
}
// * * * * * * * * * * * * * * * * * * * * * * * * * * * * * * * * * * * * * //

dimensions      [1 -1 -2 0 0 0 0];


internalField   nonuniform List<scalar> 
150000
(
-2624.97
-2625.34
-2626.09
-2627.23
-2628.75
-2630.63
-2632.86
-2635.44
-2638.35
-2641.59
-2645.16
-2649.04
-2653.24
-2657.75
-2662.58
-2667.68
-2673.06
-2678.73
-2684.66
-2690.85
-2697.29
-2703.97
-2710.89
-2718.02
-2725.37
-2732.92
-2740.65
-2748.56
-2756.64
-2764.88
-2773.27
-2781.77
-2790.38
-2799.1
-2807.9
-2816.78
-2825.72
-2834.71
-2843.74
-2852.79
-2861.84
-2870.89
-2879.93
-2888.93
-2897.88
-2906.78
-2915.61
-2924.36
-2933.02
-2941.57
-2949.99
-2958.29
-2966.44
-2974.43
-2982.24
-2989.86
-2997.28
-3004.47
-3011.42
-3018.13
-3024.58
-3030.76
-3036.65
-3042.25
-3047.54
-3052.51
-3057.14
-3061.42
-3065.34
-3068.87
-3071.99
-3074.7
-3076.97
-3078.78
-3080.12
-3080.98
-3081.31
-3081.11
-3080.37
-3079.08
-3077.22
-3074.77
-3071.73
-3068.07
-3063.79
-3058.88
-3053.32
-3047.11
-3040.23
-3032.69
-3024.47
-3015.58
-3006
-2995.73
-2984.78
-2973.13
-2960.8
-2947.77
-2934.05
-2919.64
-2904.55
-2888.77
-2872.32
-2855.2
-2837.41
-2818.97
-2799.88
-2780.15
-2759.79
-2738.81
-2717.23
-2695.06
-2672.31
-2649
-2625.15
-2600.78
-2575.9
-2550.54
-2524.69
-2498.37
-2471.61
-2444.4
-2416.78
-2388.76
-2360.37
-2331.65
-2302.62
-2273.31
-2243.75
-2213.95
-2183.96
-2153.78
-2123.44
-2092.96
-2062.37
-2031.7
-2000.96
-1970.18
-1939.38
-1908.59
-1877.82
-1847.09
-1816.43
-1785.86
-1755.38
-1725.02
-1694.8
-1664.71
-1634.79
-1605.03
-1575.45
-1546.07
-1516.9
-1487.95
-1459.24
-1430.79
-1402.6
-1374.64
-1346.9
-1319.35
-1291.99
-1264.83
-1237.88
-1211.13
-1184.58
-1158.22
-1132.05
-1106.07
-1080.29
-1054.7
-1029.31
-1004.07
-978.979
-953.989
-929.082
-904.24
-879.448
-854.689
-829.949
-805.219
-780.489
-755.747
-730.979
-706.17
-681.302
-656.361
-631.329
-606.194
-580.942
-555.56
-530.036
-504.36
-478.52
-452.508
-426.315
-399.934
-373.358
-346.584
-319.607
-292.423
-265.033
-237.436
-209.634
-181.628
-153.422
-125.021
-96.4293
-67.6539
-38.7013
-9.58441
19.6879
49.1039
78.6512
108.316
138.083
167.935
197.856
227.827
257.829
287.843
317.85
347.83
377.765
407.636
437.423
467.109
496.674
526.099
555.366
584.453
613.339
641.996
670.393
698.496
726.286
753.786
781.085
808.284
835.23
861.606
887.428
912.881
937.995
962.671
986.884
1010.67
1034.01
1056.82
1079.07
1100.78
1122
1142.78
1163.18
1183.2
1202.81
1221.99
1240.69
1258.9
1276.62
1293.89
1310.74
1327.2
1343.31
1359.08
1374.47
1389.41
1403.86
1417.82
1431.29
1444.3
1456.79
1468.88
1480.61
1492.03
1503.18
1514.11
1524.82
1535.29
1545.52
1555.57
1565.45
1575.16
1584.73
1594.19
1603.55
1612.85
1622.13
1631.42
1640.74
1650.12
1659.56
1669.11
1678.79
1688.62
1698.64
1708.88
1719.38
1730.15
1741.24
1752.67
1764.45
1776.62
1789.19
1802.19
1815.64
1829.55
1843.96
1858.88
1874.32
1890.32
1906.88
1924.03
1941.77
1960.14
1979.12
1998.75
2019.03
2039.96
2061.56
2083.83
2106.78
2130.41
2154.73
2179.74
2205.44
2231.84
2258.93
2286.72
2315.21
2344.39
2374.27
2404.83
2436.07
2468
2500.59
2533.84
2567.75
2602.31
2637.5
2673.32
2709.76
2746.82
2784.47
2822.71
2861.53
2900.92
2940.87
2981.35
3022.37
3063.91
3105.95
3148.49
3191.5
3234.97
3278.89
3323.25
3368.02
3413.2
3458.76
3504.69
3550.97
3597.59
3644.53
3691.78
3739.31
3787.1
3835.15
3883.43
3931.93
3980.62
4029.49
4078.53
4127.71
4177.01
4226.42
4275.93
4325.5
4375.14
4424.81
4474.5
4524.2
4573.89
4623.55
4673.16
4722.72
4772.21
4821.61
4870.9
4920.07
4969.12
5018.01
5066.73
5115.26
5163.61
5211.74
5259.65
5307.32
5354.74
5401.89
5448.78
5495.38
5541.69
5587.69
5633.39
5678.76
5723.81
5768.52
5812.88
5856.89
5900.55
5943.83
5986.74
6029.26
6071.39
6113.13
6154.47
6195.39
6235.9
6275.99
6315.67
6354.92
6393.76
6432.2
6470.25
6507.91
6545.2
6582.11
6618.65
6654.81
6690.59
6726.01
6761.05
6795.74
6830.07
6864.06
6897.71
6931.03
6964.03
6996.71
7029.07
7061.14
7092.9
7124.37
7155.55
7186.45
7217.07
7247.42
7277.48
7307.26
7336.72
7365.87
7394.97
7423.96
7452.78
7481.37
7509.73
7537.84
7565.7
7593.3
7620.65
7647.72
7674.5
7700.98
7727.16
7753.01
7778.53
7803.71
7828.53
7852.97
7877.02
7900.66
7923.86
7946.61
7968.89
7990.66
8011.92
8032.63
8052.76
8072.3
8091.22
8109.49
8127.08
8143.96
8160.12
8175.51
8190.12
8203.91
8216.86
8228.95
8240.15
8250.44
8259.79
8268.18
8275.59
8282.01
8287.4
8291.75
8295.04
8297.2
8298.08
-2624.73
-2625.1
-2625.85
-2626.99
-2628.51
-2630.4
-2632.63
-2635.21
-2638.13
-2641.37
-2644.94
-2648.83
-2653.03
-2657.53
-2662.39
-2667.49
-2672.88
-2678.54
-2684.48
-2690.68
-2697.12
-2703.81
-2710.74
-2717.88
-2725.23
-2732.79
-2740.53
-2748.45
-2756.53
-2764.78
-2773.2
-2781.69
-2790.31
-2799.04
-2807.85
-2816.74
-2825.69
-2834.69
-2843.73
-2852.78
-2861.85
-2870.91
-2879.95
-2888.96
-2897.93
-2906.84
-2915.68
-2924.44
-2933.1
-2941.65
-2950.09
-2958.39
-2966.55
-2974.55
-2982.37
-2990.01
-2997.44
-3004.65
-3011.62
-3018.35
-3024.81
-3031
-3036.9
-3042.5
-3047.8
-3052.77
-3057.41
-3061.69
-3065.61
-3069.14
-3072.28
-3074.99
-3077.27
-3079.09
-3080.44
-3081.3
-3081.64
-3081.47
-3080.75
-3079.47
-3077.62
-3075.19
-3072.15
-3068.5
-3064.23
-3059.32
-3053.77
-3047.57
-3040.7
-3033.16
-3024.95
-3016.05
-3006.48
-2996.22
-2985.26
-2973.62
-2961.28
-2948.26
-2934.54
-2920.13
-2905.03
-2889.26
-2872.8
-2855.67
-2837.88
-2819.44
-2800.34
-2780.61
-2760.24
-2739.26
-2717.67
-2695.48
-2672.72
-2649.4
-2625.54
-2601.15
-2576.26
-2550.87
-2525.01
-2498.69
-2471.91
-2444.69
-2417.05
-2389.01
-2360.61
-2331.87
-2302.82
-2273.5
-2243.92
-2214.11
-2184.1
-2153.9
-2123.55
-2093.05
-2062.45
-2031.76
-2001
-1970.21
-1939.39
-1908.58
-1877.8
-1847.06
-1816.39
-1785.8
-1755.31
-1724.94
-1694.7
-1664.61
-1634.67
-1604.91
-1575.33
-1545.94
-1516.77
-1487.83
-1459.13
-1430.67
-1402.47
-1374.5
-1346.75
-1319.19
-1291.82
-1264.65
-1237.7
-1210.94
-1184.38
-1158.02
-1131.85
-1105.88
-1080.11
-1054.55
-1029.18
-1003.99
-978.929
-953.966
-929.088
-904.264
-879.479
-854.721
-829.984
-805.259
-780.539
-755.81
-731.055
-706.257
-681.402
-656.471
-631.45
-606.326
-581.084
-555.713
-530.199
-504.532
-478.701
-452.698
-426.514
-400.141
-373.573
-346.806
-319.834
-292.657
-265.271
-237.678
-209.878
-181.874
-153.669
-125.267
-96.6746
-67.898
-38.9402
-9.82103
19.4546
48.8733
78.4236
108.091
137.862
167.718
197.642
227.617
257.625
287.645
317.659
347.648
377.592
407.471
437.268
466.962
496.534
525.966
555.238
584.331
613.223
641.891
670.312
698.461
726.325
753.921
781.299
808.471
835.419
862.072
888.264
913.837
938.829
963.378
987.513
1011.18
1034.35
1057.01
1079.15
1100.79
1121.98
1142.76
1163.18
1183.22
1202.85
1222.03
1240.72
1258.91
1276.6
1293.85
1310.7
1327.22
1343.42
1359.27
1374.74
1389.68
1404.1
1418.01
1431.42
1444.35
1456.92
1469.11
1480.95
1492.45
1503.64
1514.51
1525.11
1535.51
1545.71
1555.72
1565.56
1575.24
1584.78
1594.2
1603.53
1612.8
1622.05
1631.29
1640.56
1649.89
1659.3
1668.82
1678.5
1688.33
1698.35
1708.59
1719.08
1729.86
1740.94
1752.35
1764.12
1776.27
1788.83
1801.81
1815.24
1829.15
1843.54
1858.44
1873.88
1889.86
1906.41
1923.55
1941.29
1959.64
1978.62
1998.23
2018.5
2039.42
2061.01
2083.28
2106.22
2129.84
2154.16
2179.16
2204.86
2231.26
2258.35
2286.14
2314.63
2343.82
2373.7
2404.26
2435.51
2467.44
2500.04
2533.29
2567.21
2601.77
2636.97
2672.79
2709.24
2746.3
2783.96
2822.21
2861.04
2900.43
2940.39
2980.88
3021.91
3063.46
3105.51
3148.05
3191.08
3234.56
3278.49
3322.86
3367.64
3412.83
3458.4
3504.34
3550.64
3597.27
3644.22
3691.48
3739.02
3786.83
3834.89
3883.19
3931.7
3980.4
4029.29
4078.34
4127.53
4176.85
4226.27
4275.79
4325.38
4375.03
4424.71
4474.42
4524.13
4573.83
4623.51
4673.14
4722.71
4772.21
4821.62
4870.92
4920.1
4969.17
5018.07
5066.8
5115.36
5163.72
5211.86
5259.79
5307.47
5354.9
5402.07
5448.96
5495.57
5541.88
5587.89
5633.6
5678.98
5724.03
5768.76
5813.13
5857.16
5900.82
5944.12
5987.04
6029.58
6071.72
6113.47
6154.81
6195.74
6236.24
6276.31
6315.94
6355.14
6393.91
6432.29
6470.3
6507.94
6545.25
6582.19
6618.75
6654.92
6690.7
6726.09
6761.12
6795.78
6830.09
6864.06
6897.69
6931
6963.98
6996.65
7029.01
7061.05
7092.8
7124.25
7155.41
7186.27
7216.86
7247.24
7277.29
7307.03
7336.56
7366.01
7395.23
7424.25
7453.06
7481.65
7510
7538.1
7565.95
7593.54
7620.87
7647.92
7674.69
7701.16
7727.33
7753.17
7778.69
7803.86
7828.67
7853.1
7877.15
7900.78
7923.97
7946.72
7968.99
7990.77
8012.02
8032.73
8052.87
8072.41
8091.33
8109.59
8127.19
8144.07
8160.23
8175.63
8190.24
8204.03
8216.99
8229.09
8240.29
8250.58
8259.93
8268.32
8275.74
8282.16
8287.56
8291.93
8295.23
8297.39
8298.35
-2624.23
-2624.6
-2625.35
-2626.48
-2628.01
-2629.91
-2632.15
-2634.74
-2637.67
-2640.92
-2644.5
-2648.4
-2652.61
-2657.13
-2661.97
-2667.09
-2672.49
-2678.17
-2684.12
-2690.33
-2696.79
-2703.5
-2710.43
-2717.59
-2724.96
-2732.53
-2740.29
-2748.23
-2756.33
-2764.6
-2773.01
-2781.53
-2790.17
-2798.91
-2807.74
-2816.65
-2825.62
-2834.64
-2843.69
-2852.77
-2861.85
-2870.93
-2879.99
-2889.02
-2898
-2906.93
-2915.79
-2924.57
-2933.25
-2941.82
-2950.28
-2958.6
-2966.77
-2974.79
-2982.62
-2990.27
-2997.71
-3004.93
-3011.91
-3018.65
-3025.14
-3031.35
-3037.27
-3042.91
-3048.23
-3053.23
-3057.89
-3062.21
-3066.15
-3069.71
-3072.87
-3075.6
-3077.9
-3079.75
-3081.12
-3081.99
-3082.36
-3082.21
-3081.51
-3080.25
-3078.43
-3076.01
-3072.99
-3069.36
-3065.11
-3060.22
-3054.68
-3048.49
-3041.63
-3034.1
-3025.9
-3017.02
-3007.45
-2997.19
-2986.24
-2974.6
-2962.27
-2949.24
-2935.52
-2921.11
-2906.01
-2890.23
-2873.77
-2856.64
-2838.85
-2820.4
-2801.29
-2781.55
-2761.17
-2740.18
-2718.57
-2696.37
-2673.59
-2650.24
-2626.35
-2601.93
-2577
-2551.56
-2525.65
-2499.27
-2472.45
-2445.19
-2417.53
-2389.47
-2361.06
-2332.31
-2303.24
-2273.9
-2244.29
-2214.45
-2184.41
-2154.18
-2123.79
-2093.27
-2062.63
-2031.91
-2001.12
-1970.29
-1939.45
-1908.61
-1877.8
-1847.03
-1816.33
-1785.71
-1755.19
-1724.8
-1694.53
-1664.42
-1634.47
-1604.7
-1575.12
-1545.73
-1516.55
-1487.56
-1458.85
-1430.37
-1402.13
-1374.12
-1346.34
-1318.79
-1291.45
-1264.33
-1237.44
-1210.77
-1184.3
-1157.96
-1131.79
-1105.8
-1080.01
-1054.45
-1029.09
-1003.9
-978.853
-953.898
-929.009
-904.184
-879.413
-854.683
-829.982
-805.296
-780.611
-755.914
-731.189
-706.419
-681.589
-656.684
-631.689
-606.588
-581.37
-556.02
-530.528
-504.88
-479.069
-453.082
-426.913
-400.554
-373.999
-347.243
-320.281
-293.111
-265.731
-238.142
-210.345
-182.341
-154.135
-125.731
-97.1356
-68.3577
-39.3829
-10.2602
19.0228
48.4515
78.0128
107.693
137.476
167.345
197.285
227.276
257.3
287.338
317.371
347.379
377.343
407.243
437.059
466.773
496.366
525.816
555.107
584.216
613.126
641.816
670.269
698.471
726.416
754.11
781.563
808.754
835.611
862.052
888.004
913.488
938.558
963.219
987.443
1011.2
1034.45
1057.2
1079.45
1101.22
1122.53
1143.42
1163.9
1183.96
1203.58
1222.74
1241.41
1259.59
1277.28
1294.52
1311.35
1327.81
1343.93
1359.7
1375.06
1390.04
1404.53
1418.48
1431.93
1444.9
1457.44
1469.6
1481.39
1492.83
1503.96
1514.81
1525.42
1535.81
1545.98
1555.95
1565.74
1575.38
1584.88
1594.27
1603.57
1612.81
1622.03
1631.25
1640.49
1649.79
1659.17
1668.65
1678.26
1688.03
1698
1708.2
1718.65
1729.39
1740.43
1751.8
1763.53
1775.65
1788.17
1801.11
1814.51
1828.38
1842.74
1857.62
1873.03
1888.99
1905.51
1922.63
1940.34
1958.67
1977.63
1997.23
2017.47
2038.38
2059.96
2082.21
2105.14
2128.76
2153.06
2178.06
2203.75
2230.15
2257.24
2285.02
2313.51
2342.7
2372.57
2403.14
2434.39
2466.32
2498.92
2532.18
2566.1
2600.66
2635.87
2671.7
2708.16
2745.22
2782.89
2821.15
2859.99
2899.4
2939.36
2979.87
3020.91
3062.47
3104.53
3147.09
3190.12
3233.62
3277.57
3321.95
3366.75
3411.96
3457.55
3503.51
3549.82
3596.47
3643.45
3690.72
3738.29
3786.12
3834.2
3882.52
3931.05
3979.78
4028.69
4077.76
4126.98
4176.32
4225.77
4275.32
4324.93
4374.61
4424.32
4474.06
4523.8
4573.53
4623.23
4672.9
4722.5
4772.03
4821.46
4870.79
4920
4969.09
5018.01
5066.76
5115.33
5163.71
5211.87
5259.81
5307.51
5354.95
5402.14
5449.04
5495.66
5541.99
5588
5633.71
5679.1
5724.16
5768.88
5813.26
5857.28
5900.94
5944.23
5987.14
6029.67
6071.81
6113.55
6154.89
6195.82
6236.34
6276.44
6316.13
6355.4
6394.27
6432.73
6470.8
6508.49
6545.79
6582.72
6619.27
6655.45
6691.24
6726.67
6761.73
6796.43
6830.77
6864.77
6898.43
6931.76
6964.77
6997.46
7029.84
7061.91
7093.69
7125.19
7156.4
7187.34
7217.99
7248.21
7278.31
7308.13
7337.7
7367.04
7396.18
7425.12
7453.86
7482.38
7510.67
7538.73
7566.54
7594.11
7621.41
7648.44
7675.19
7701.65
7727.8
7753.63
7779.14
7804.3
7829.11
7853.54
7877.58
7901.21
7924.41
7947.16
7969.44
7991.22
8012.48
8033.2
8053.35
8072.9
8091.84
8110.12
8127.73
8144.63
8160.81
8176.22
8190.85
8204.67
8217.65
8229.76
8240.99
8251.29
8260.66
8269.07
8276.5
8282.93
8288.35
8292.75
8296.08
8298.25
8299.17
-2623.5
-2623.86
-2624.59
-2625.74
-2627.28
-2629.19
-2631.45
-2634.05
-2636.99
-2640.25
-2643.84
-2647.75
-2651.98
-2656.52
-2661.36
-2666.5
-2671.92
-2677.61
-2683.58
-2689.81
-2696.29
-2703.02
-2709.98
-2717.16
-2724.55
-2732.15
-2739.93
-2747.89
-2756.02
-2764.31
-2772.74
-2781.29
-2789.96
-2798.73
-2807.59
-2816.52
-2825.52
-2834.57
-2843.65
-2852.75
-2861.86
-2870.97
-2880.06
-2889.12
-2898.13
-2907.09
-2915.97
-2924.78
-2933.48
-2942.08
-2950.56
-2958.91
-2967.11
-2975.14
-2983.01
-2990.68
-2998.15
-3005.4
-3012.42
-3019.2
-3025.71
-3031.96
-3037.92
-3043.59
-3048.94
-3053.98
-3058.67
-3063.02
-3067
-3070.59
-3073.78
-3076.55
-3078.89
-3080.77
-3082.2
-3083.08
-3083.48
-3083.36
-3082.69
-3081.47
-3079.67
-3077.29
-3074.3
-3070.7
-3066.47
-3061.6
-3056.08
-3049.91
-3043.07
-3035.56
-3027.37
-3018.5
-3008.94
-2998.69
-2987.75
-2976.11
-2963.78
-2950.75
-2937.03
-2922.61
-2907.51
-2891.72
-2875.26
-2858.12
-2840.31
-2821.84
-2802.71
-2782.95
-2762.55
-2741.53
-2719.9
-2697.67
-2674.86
-2651.48
-2627.55
-2603.09
-2578.11
-2552.63
-2526.67
-2500.25
-2473.37
-2446.07
-2418.35
-2390.25
-2361.79
-2332.99
-2303.88
-2274.49
-2244.84
-2214.95
-2184.85
-2154.57
-2124.13
-2093.55
-2062.87
-2032.09
-2001.26
-1970.38
-1939.49
-1908.6
-1877.74
-1846.93
-1816.19
-1785.53
-1754.98
-1724.54
-1694.25
-1664.11
-1634.14
-1604.34
-1574.74
-1545.35
-1516.17
-1487.24
-1458.46
-1429.96
-1401.7
-1373.67
-1345.87
-1318.28
-1290.91
-1263.76
-1236.83
-1210.09
-1183.5
-1157.21
-1131.15
-1105.31
-1079.66
-1054.19
-1028.89
-1003.73
-978.672
-953.721
-928.858
-904.064
-879.325
-854.63
-829.967
-805.321
-780.677
-756.021
-731.336
-706.606
-681.815
-656.947
-631.988
-606.924
-581.74
-556.423
-530.962
-505.345
-479.562
-453.602
-427.457
-401.12
-374.585
-347.846
-320.9
-293.742
-266.373
-238.791
-210.999
-182.997
-154.791
-126.384
-97.7824
-68.9932
-40.0195
-10.8815
18.415
47.8583
77.4356
107.133
136.934
166.824
196.785
226.8
256.849
286.914
316.975
347.014
377.009
406.942
436.792
466.54
496.166
525.65
554.971
584.111
613.049
641.765
670.243
698.468
726.43
754.13
781.568
808.731
835.581
862.062
888.109
913.706
938.836
963.503
987.719
1011.48
1034.78
1057.6
1079.94
1101.8
1123.21
1144.18
1164.7
1184.8
1204.44
1223.63
1242.34
1260.57
1278.32
1295.63
1312.51
1328.99
1345.1
1360.82
1376.12
1390.97
1405.32
1419.19
1432.56
1445.49
1458.01
1470.16
1481.94
1493.38
1504.52
1515.36
1525.94
1536.28
1546.39
1556.31
1566.05
1575.63
1585.08
1594.41
1603.66
1612.85
1622.01
1631.17
1640.35
1649.59
1658.91
1668.33
1677.89
1687.62
1697.54
1707.69
1718.09
1728.77
1739.75
1751.06
1762.74
1774.8
1787.26
1800.15
1813.5
1827.32
1841.63
1856.47
1871.83
1887.75
1904.24
1921.32
1939
1957.3
1976.23
1995.81
2016.03
2036.92
2058.47
2080.7
2103.62
2127.22
2151.52
2176.51
2202.19
2228.58
2255.67
2283.46
2311.94
2341.13
2371
2401.57
2432.82
2464.75
2497.36
2530.62
2564.55
2599.12
2634.33
2670.18
2706.64
2743.72
2781.4
2819.67
2858.52
2897.94
2937.92
2978.44
3019.5
3061.08
3103.16
3145.73
3188.79
3232.31
3276.28
3320.68
3365.5
3410.73
3456.34
3502.33
3548.67
3595.35
3642.35
3689.65
3737.24
3785.1
3833.22
3881.56
3930.12
3978.89
4027.83
4076.93
4126.18
4175.56
4225.05
4274.63
4324.28
4373.99
4423.74
4473.51
4523.29
4573.06
4622.8
4672.5
4722.14
4771.71
4821.18
4870.55
4919.8
4968.91
5017.86
5066.65
5115.25
5163.66
5211.86
5259.83
5307.56
5355.04
5402.26
5449.2
5495.85
5542.2
5588.25
5633.98
5679.39
5724.47
5769.21
5813.61
5857.65
5901.33
5944.63
5987.56
6030.11
6072.26
6114.02
6155.37
6196.32
6236.86
6276.99
6316.71
6356.01
6394.9
6433.39
6471.48
6509.19
6546.51
6583.45
6620
6656.18
6691.98
6727.41
6762.47
6797.16
6831.5
6865.5
6899.15
6932.47
6965.46
6998.13
7030.49
7062.54
7094.29
7125.75
7156.91
7187.77
7218.34
7248.69
7278.84
7308.68
7338.27
7367.64
7396.8
7425.75
7454.47
7482.98
7511.26
7539.31
7567.11
7594.66
7621.96
7648.98
7675.73
7702.18
7728.33
7754.16
7779.67
7804.84
7829.66
7854.1
7878.15
7901.8
7925.01
7947.78
7970.08
7991.88
8013.17
8033.92
8054.09
8073.68
8092.64
8110.96
8128.61
8145.55
8161.76
8177.21
8191.88
8205.74
8218.75
8230.9
8242.16
8252.5
8261.9
8270.34
8277.8
8284.26
8289.71
8294.14
8297.5
8299.68
8300.56
-2622.52
-2622.87
-2623.6
-2624.76
-2626.31
-2628.23
-2630.51
-2633.12
-2636.07
-2639.35
-2642.95
-2646.88
-2651.12
-2655.68
-2660.54
-2665.7
-2671.14
-2676.86
-2682.86
-2689.11
-2695.62
-2702.38
-2709.37
-2716.58
-2724
-2731.63
-2739.45
-2747.45
-2755.61
-2763.93
-2772.39
-2780.98
-2789.68
-2798.49
-2807.38
-2816.35
-2825.39
-2834.47
-2843.59
-2852.73
-2861.88
-2871.02
-2880.15
-2889.24
-2898.29
-2907.28
-2916.21
-2925.05
-2933.79
-2942.43
-2950.94
-2959.32
-2967.55
-2975.62
-2983.52
-2991.22
-2998.73
-3006.01
-3013.07
-3019.88
-3026.43
-3032.72
-3038.73
-3044.44
-3049.84
-3054.92
-3059.67
-3064.06
-3068.09
-3071.73
-3074.97
-3077.78
-3080.16
-3082.08
-3083.52
-3084.5
-3084.95
-3084.88
-3084.26
-3083.08
-3081.33
-3078.98
-3076.03
-3072.47
-3068.27
-3063.44
-3057.95
-3051.81
-3044.99
-3037.51
-3029.34
-3020.48
-3010.94
-3000.7
-2989.76
-2978.13
-2965.8
-2952.77
-2939.05
-2924.63
-2909.52
-2893.72
-2877.24
-2860.08
-2842.25
-2823.76
-2804.62
-2784.82
-2764.39
-2743.34
-2721.67
-2699.4
-2676.55
-2653.13
-2629.15
-2604.64
-2579.6
-2554.07
-2528.05
-2501.56
-2474.62
-2447.25
-2419.47
-2391.31
-2362.78
-2333.92
-2304.74
-2275.28
-2245.56
-2215.6
-2185.44
-2155.08
-2124.57
-2093.93
-2063.17
-2032.33
-2001.42
-1970.48
-1939.52
-1908.57
-1877.65
-1846.78
-1815.98
-1785.27
-1754.67
-1724.19
-1693.85
-1663.67
-1633.66
-1603.83
-1574.19
-1544.76
-1515.55
-1486.55
-1457.78
-1429.29
-1401.02
-1372.99
-1345.2
-1317.63
-1290.29
-1263.18
-1236.29
-1209.63
-1183.2
-1156.92
-1130.83
-1104.95
-1079.27
-1053.79
-1028.48
-1003.33
-978.317
-953.413
-928.597
-903.855
-879.172
-854.534
-829.928
-805.337
-780.749
-756.146
-731.514
-706.836
-682.096
-657.279
-632.369
-607.353
-582.215
-556.943
-531.525
-505.948
-480.202
-454.278
-428.166
-401.859
-375.35
-348.635
-321.708
-294.568
-267.213
-239.64
-211.854
-183.855
-155.648
-127.237
-98.6276
-69.8277
-40.8444
-11.6904
17.6242
47.0878
76.6873
106.409
136.237
166.155
196.147
226.194
256.279
286.381
316.483
346.563
376.603
406.581
436.478
466.274
495.949
525.482
554.854
584.045
613.036
641.809
670.348
698.639
726.673
754.442
781.934
809.126
835.979
862.45
888.495
914.096
939.245
963.946
988.201
1012
1035.35
1058.22
1080.63
1102.58
1124.08
1145.12
1165.71
1185.85
1205.52
1224.73
1243.46
1261.72
1279.52
1296.86
1313.78
1330.29
1346.39
1362.07
1377.32
1392.11
1406.43
1420.26
1433.62
1446.52
1459
1471.09
1482.82
1494.2
1505.28
1516.06
1526.58
1536.85
1546.9
1556.76
1566.43
1575.94
1585.32
1594.58
1603.76
1612.88
1621.97
1631.05
1640.16
1649.32
1658.56
1667.91
1677.4
1687.05
1696.89
1706.97
1717.29
1727.89
1738.8
1750.04
1761.64
1773.62
1786.02
1798.84
1812.12
1825.88
1840.13
1854.9
1870.22
1886.08
1902.52
1919.56
1937.2
1955.46
1974.35
1993.89
2014.08
2034.94
2056.47
2078.68
2101.58
2125.17
2149.45
2174.43
2200.11
2226.49
2253.57
2281.36
2309.84
2339.03
2368.91
2399.48
2430.73
2462.66
2495.27
2528.55
2562.48
2597.06
2632.29
2668.15
2704.63
2741.72
2779.42
2817.71
2856.58
2896.02
2936.02
2976.56
3017.64
3059.24
3101.35
3143.95
3187.03
3230.58
3274.57
3319.01
3363.86
3409.12
3454.76
3500.78
3547.16
3593.87
3640.91
3688.25
3735.88
3783.78
3831.93
3880.31
3928.92
3977.72
4026.71
4075.85
4125.15
4174.57
4224.1
4273.73
4323.43
4373.18
4422.98
4472.8
4522.63
4572.45
4622.24
4671.98
4721.67
4771.28
4820.8
4870.22
4919.51
4968.66
5017.66
5066.49
5115.14
5163.59
5211.83
5259.85
5307.62
5355.15
5402.41
5449.39
5496.08
5542.48
5588.56
5634.33
5679.78
5724.89
5769.66
5814.09
5858.15
5901.85
5945.18
5988.13
6030.7
6072.87
6114.64
6156.02
6196.99
6237.55
6277.7
6317.44
6356.77
6395.69
6434.21
6472.32
6510.05
6547.38
6584.33
6620.89
6657.07
6692.87
6728.3
6763.36
6798.06
6832.4
6866.39
6900.04
6933.36
6966.35
6999.01
7031.37
7063.42
7095.17
7126.63
7157.82
7188.73
7219.4
7249.83
7279.83
7309.63
7339.21
7368.57
7397.7
7426.62
7455.32
7483.79
7512.04
7540.05
7567.83
7595.36
7622.64
7649.65
7676.38
7702.83
7728.97
7754.81
7780.32
7805.5
7830.33
7854.78
7878.85
7902.52
7925.76
7948.56
7970.89
7992.73
8014.05
8034.84
8055.06
8074.69
8093.71
8112.07
8129.77
8146.76
8163.03
8178.54
8193.26
8207.17
8220.25
8232.45
8243.76
8254.15
8263.6
8272.08
8279.57
8286.07
8291.57
8296.03
8299.41
8301.59
8302.45
-2621.3
-2621.65
-2622.38
-2623.55
-2625.12
-2627.06
-2629.34
-2631.97
-2634.93
-2638.23
-2641.85
-2645.8
-2650.06
-2654.64
-2659.52
-2664.7
-2670.17
-2675.93
-2681.95
-2688.24
-2694.79
-2701.58
-2708.61
-2715.86
-2723.32
-2730.99
-2738.85
-2746.89
-2755.1
-2763.46
-2771.96
-2780.59
-2789.34
-2798.19
-2807.13
-2816.15
-2825.23
-2834.35
-2843.52
-2852.7
-2861.9
-2871.09
-2880.26
-2889.4
-2898.5
-2907.54
-2916.51
-2925.39
-2934.18
-2942.86
-2951.42
-2959.84
-2968.12
-2976.23
-2984.17
-2991.92
-2999.46
-3006.8
-3013.9
-3020.76
-3027.37
-3033.71
-3039.76
-3045.53
-3050.99
-3056.12
-3060.92
-3065.37
-3069.46
-3073.15
-3076.45
-3079.33
-3081.77
-3083.75
-3085.26
-3086.28
-3086.79
-3086.77
-3086.21
-3085.09
-3083.39
-3081.1
-3078.2
-3074.68
-3070.53
-3065.73
-3060.29
-3054.18
-3047.39
-3039.94
-3031.79
-3022.96
-3013.43
-3003.21
-2992.28
-2980.66
-2968.33
-2955.3
-2941.58
-2927.15
-2912.03
-2896.22
-2879.73
-2862.55
-2844.7
-2826.18
-2807
-2787.17
-2766.71
-2745.61
-2723.9
-2701.58
-2678.68
-2655.2
-2631.16
-2606.59
-2581.48
-2555.88
-2529.78
-2503.21
-2476.2
-2448.75
-2420.89
-2392.64
-2364.03
-2335.09
-2305.83
-2276.28
-2246.47
-2216.42
-2186.17
-2155.73
-2125.13
-2094.39
-2063.55
-2032.62
-2001.63
-1970.61
-1939.57
-1908.54
-1877.55
-1846.6
-1815.73
-1784.95
-1754.29
-1723.75
-1693.36
-1663.13
-1633.07
-1603.2
-1573.54
-1544.08
-1514.85
-1485.86
-1457.12
-1428.54
-1400.24
-1372.19
-1344.38
-1316.81
-1289.47
-1262.36
-1235.47
-1208.81
-1182.37
-1156.14
-1130.12
-1104.31
-1078.7
-1053.28
-1028.02
-1002.92
-977.947
-953.09
-928.328
-903.646
-879.026
-854.453
-829.913
-805.39
-780.868
-756.333
-731.766
-707.153
-682.477
-657.723
-632.874
-607.916
-582.835
-557.618
-532.252
-506.724
-481.025
-455.143
-429.071
-402.8
-376.323
-349.636
-322.734
-295.613
-268.273
-240.712
-212.932
-184.936
-156.727
-128.31
-99.6911
-70.8774
-41.8776
-12.7026
16.6367
46.1281
75.7585
105.514
135.378
165.336
195.37
225.462
255.594
285.747
315.901
346.036
376.132
406.169
436.125
465.982
495.717
525.311
554.743
583.994
613.044
641.876
670.471
698.816
726.896
754.702
782.219
809.428
836.301
862.803
888.902
914.576
939.809
964.595
988.93
1012.81
1036.22
1059.17
1081.66
1103.68
1125.23
1146.33
1166.97
1187.15
1206.87
1226.11
1244.88
1263.17
1281
1298.38
1315.32
1331.82
1347.89
1363.52
1378.7
1393.42
1407.65
1421.41
1434.7
1447.55
1459.99
1472.05
1483.74
1495.09
1506.13
1516.86
1527.33
1537.54
1547.53
1557.31
1566.9
1576.33
1585.62
1594.8
1603.89
1612.93
1621.92
1630.92
1639.94
1649
1658.15
1667.4
1676.8
1686.35
1696.11
1706.08
1716.31
1726.81
1737.63
1748.78
1760.28
1772.18
1784.48
1797.22
1810.42
1824.1
1838.28
1852.98
1868.22
1884.02
1900.4
1917.37
1934.95
1953.16
1972
1991.5
2011.65
2032.47
2053.96
2076.14
2099.01
2122.58
2146.84
2171.8
2197.47
2223.84
2250.92
2278.7
2307.18
2336.36
2366.24
2396.82
2428.08
2460.02
2492.64
2525.92
2559.87
2594.46
2629.7
2665.58
2702.08
2739.19
2776.91
2815.22
2854.12
2893.58
2933.61
2974.18
3015.29
3056.92
3099.06
3141.7
3184.81
3228.39
3272.43
3316.9
3361.79
3407.09
3452.78
3498.84
3545.26
3592.02
3639.1
3686.49
3734.17
3782.11
3830.32
3878.76
3927.41
3976.27
4025.31
4074.51
4123.86
4173.34
4222.93
4272.61
4322.37
4372.19
4422.05
4471.93
4521.81
4571.69
4621.54
4671.35
4721.09
4770.76
4820.34
4869.81
4919.16
4968.37
5017.43
5066.32
5115.02
5163.52
5211.82
5259.89
5307.71
5355.29
5402.6
5449.64
5496.38
5542.83
5588.97
5634.78
5680.27
5725.43
5770.24
5814.69
5858.79
5902.52
5945.88
5988.86
6031.45
6073.65
6115.45
6156.85
6197.84
6238.42
6278.6
6318.36
6357.72
6396.67
6435.21
6473.35
6511.09
6548.44
6585.39
6621.96
6658.15
6693.95
6729.38
6764.45
6799.14
6833.48
6867.47
6901.11
6934.42
6967.39
7000.05
7032.39
7064.43
7096.17
7127.61
7158.77
7189.65
7220.25
7250.58
7280.71
7310.52
7340.1
7369.45
7398.58
7427.49
7456.17
7484.64
7512.87
7540.87
7568.63
7596.15
7623.42
7650.42
7677.15
7703.59
7729.74
7755.58
7781.11
7806.3
7831.14
7855.62
7879.71
7903.41
7926.68
7949.52
7971.89
7993.77
8015.15
8035.98
8056.26
8075.95
8095.02
8113.45
8131.22
8148.28
8164.61
8180.19
8194.98
8208.96
8222.1
8234.37
8245.75
8256.2
8265.7
8274.24
8281.79
8288.33
8293.86
8298.35
8301.75
8303.96
8304.81
-2619.84
-2620.19
-2620.93
-2622.11
-2623.69
-2625.64
-2627.94
-2630.58
-2633.56
-2636.87
-2640.52
-2644.49
-2648.78
-2653.39
-2658.3
-2663.51
-2669.01
-2674.8
-2680.87
-2687.2
-2693.78
-2700.62
-2707.69
-2714.99
-2722.5
-2730.22
-2738.12
-2746.21
-2754.47
-2762.88
-2771.44
-2780.13
-2788.93
-2797.83
-2806.82
-2815.9
-2825.03
-2834.21
-2843.43
-2852.67
-2861.92
-2871.17
-2880.39
-2889.59
-2898.74
-2907.84
-2916.86
-2925.8
-2934.65
-2943.38
-2951.99
-2960.47
-2968.79
-2976.96
-2984.95
-2992.75
-3000.35
-3007.74
-3014.9
-3021.81
-3028.48
-3034.88
-3041
-3046.82
-3052.35
-3057.55
-3062.42
-3066.93
-3071.08
-3074.85
-3078.22
-3081.17
-3083.68
-3085.74
-3087.32
-3088.42
-3089
-3089.05
-3088.56
-3087.5
-3085.87
-3083.64
-3080.8
-3077.34
-3073.24
-3068.5
-3063.09
-3057.03
-3050.28
-3042.86
-3034.75
-3025.94
-3016.43
-3006.23
-2995.32
-2983.7
-2971.38
-2958.35
-2944.62
-2930.19
-2915.06
-2899.24
-2882.72
-2865.52
-2847.64
-2829.09
-2809.87
-2790.01
-2769.49
-2748.35
-2726.58
-2704.21
-2681.24
-2657.69
-2633.58
-2608.93
-2583.75
-2558.06
-2531.87
-2505.21
-2478.1
-2450.55
-2422.6
-2394.25
-2365.54
-2336.49
-2307.13
-2277.48
-2247.56
-2217.41
-2187.05
-2156.5
-2125.79
-2094.95
-2064
-2032.97
-2001.88
-1970.76
-1939.62
-1908.5
-1877.41
-1846.38
-1815.43
-1784.57
-1753.83
-1723.22
-1692.76
-1662.47
-1632.35
-1602.43
-1572.72
-1543.22
-1513.95
-1484.91
-1456.1
-1427.52
-1399.25
-1371.21
-1343.4
-1315.84
-1288.52
-1261.44
-1234.59
-1207.98
-1181.58
-1155.39
-1129.41
-1103.64
-1078.06
-1052.68
-1027.47
-1002.42
-977.505
-952.71
-928.017
-903.406
-878.862
-854.368
-829.907
-805.465
-781.024
-756.568
-732.081
-707.547
-682.948
-658.268
-633.493
-608.607
-583.595
-558.444
-533.14
-507.672
-482.028
-456.198
-430.173
-403.945
-377.507
-350.853
-323.979
-296.882
-269.561
-242.013
-214.24
-186.246
-158.034
-129.61
-100.978
-72.1464
-43.1246
-13.9228
15.4478
44.9747
74.6446
104.443
134.354
164.362
194.45
224.599
254.79
285.005
315.224
345.427
375.592
405.7
435.729
465.658
495.468
525.137
554.645
583.973
613.101
642.011
670.686
699.111
727.272
755.153
782.739
810.006
836.929
863.477
889.622
915.343
940.627
965.465
989.853
1013.79
1037.27
1060.28
1082.84
1104.93
1126.56
1147.72
1168.42
1188.65
1208.4
1227.68
1246.48
1264.81
1282.67
1300.06
1317.01
1333.5
1349.55
1365.15
1380.28
1394.95
1409.14
1422.86
1436.12
1448.93
1461.33
1473.34
1484.97
1496.26
1507.23
1517.89
1528.28
1538.4
1548.3
1557.98
1567.48
1576.81
1586.01
1595.08
1604.07
1612.99
1621.88
1630.77
1639.67
1648.62
1657.66
1666.8
1676.07
1685.52
1695.15
1705.01
1715.13
1725.52
1736.22
1747.26
1758.66
1770.45
1782.64
1795.28
1808.38
1821.96
1836.04
1850.65
1865.8
1881.52
1897.83
1914.73
1932.24
1950.38
1969.17
1988.61
2008.71
2029.48
2050.94
2073.08
2095.92
2119.45
2143.69
2168.64
2194.29
2220.65
2247.72
2275.49
2303.97
2333.15
2363.03
2393.61
2424.88
2456.83
2489.45
2522.75
2556.71
2591.32
2626.58
2662.48
2699
2736.14
2773.88
2812.22
2851.15
2890.64
2930.7
2971.31
3012.45
3054.12
3096.3
3138.97
3182.13
3225.76
3269.83
3314.35
3359.29
3404.64
3450.38
3496.49
3542.96
3589.78
3636.92
3684.36
3732.1
3780.11
3828.38
3876.88
3925.6
3974.52
4023.63
4072.9
4122.32
4171.87
4221.53
4271.28
4321.11
4371
4420.93
4470.88
4520.84
4570.79
4620.71
4670.59
4720.41
4770.15
4819.8
4869.34
4918.76
4968.04
5017.17
5066.12
5114.89
5163.46
5211.82
5259.95
5307.85
5355.48
5402.86
5449.96
5496.76
5543.27
5589.46
5635.33
5680.88
5726.08
5770.94
5815.44
5859.58
5903.35
5946.75
5989.76
6032.39
6074.62
6116.45
6157.88
6198.9
6239.51
6279.72
6319.51
6358.89
6397.86
6436.43
6474.59
6512.35
6549.71
6586.68
6623.25
6659.44
6695.25
6730.68
6765.74
6800.43
6834.77
6868.75
6902.38
6935.68
6968.64
7001.29
7033.62
7065.64
7097.36
7128.79
7159.94
7190.81
7221.41
7251.76
7281.91
7311.65
7341.22
7370.56
7399.67
7428.56
7457.23
7485.67
7513.88
7541.86
7569.6
7597.1
7624.35
7651.34
7678.06
7704.51
7730.66
7756.51
7782.04
7807.25
7832.12
7856.62
7880.74
7904.47
7927.79
7950.66
7973.08
7995.02
8016.45
8037.34
8057.69
8077.44
8096.59
8115.09
8132.93
8150.07
8166.48
8182.14
8197.02
8211.08
8224.3
8236.64
8248.09
8258.62
8268.19
8276.79
8284.4
8291
8296.57
8301.09
8304.52
8306.74
8307.6
-2618.14
-2618.49
-2619.24
-2620.43
-2622.02
-2623.99
-2626.3
-2628.96