/*--------------------------------*- C++ -*----------------------------------*\
| =========                 |                                                 |
| \\      /  F ield         | OpenFOAM: The Open Source CFD Toolbox           |
|  \\    /   O peration     | Version:  v2006                                 |
|   \\  /    A nd           | Website:  www.openfoam.com                      |
|    \\/     M anipulation  |                                                 |
\*---------------------------------------------------------------------------*/
FoamFile
{
    version     2.0;
    format      ascii;
    class       volScalarField;
    location    "15.6";
    object      p;
}
// * * * * * * * * * * * * * * * * * * * * * * * * * * * * * * * * * * * * * //

dimensions      [1 -1 -2 0 0 0 0];


internalField   nonuniform List<scalar> 
50000
(
22270.5
22270.1
22269.5
22268.4
22267.1
22265.4
22263.4
22261.1
22258.4
22255.5
22252.2
22248.6
22244.8
22240.6
22236.1
22231.4
22226.4
22221.1
22215.6
22209.8
22203.8
22197.5
22191
22184.3
22177.4
22170.4
22163.1
22155.6
22148
22140.2
22132.3
22124.3
22116.1
22107.8
22099.5
22091
22082.5
22073.9
22065.2
22056.5
22047.8
22039.1
22030.3
22021.6
22012.8
22004.2
21995.5
21986.9
21978.4
21969.9
21961.5
21953.3
21945.1
21937.1
21929.1
21921.4
21913.7
21906.3
21899
21891.9
21885
21878.2
21871.7
21865.4
21859.3
21853.4
21847.8
21842.4
21837.3
21832.4
21827.8
21823.4
21819.3
21815.5
21812
21808.7
21805.7
21803
21800.5
21798.4
21796.5
21794.9
21793.6
21792.6
21791.8
21791.4
21791.2
21791.2
21791.6
21792.2
21793
21794.1
21795.4
21797
21798.8
21800.8
21803.1
21805.5
21808.2
21811
21814
21817.2
21820.5
21824
21827.6
21831.3
21835.2
21839.2
21843.3
21847.4
21851.7
21856
21860.3
21864.8
21869.2
21873.7
21878.2
21882.7
21887.1
21891.6
21896
21900.4
21904.8
21909
21913.2
21917.4
21921.4
21925.4
21929.2
21932.9
21936.5
21940
21943.3
21946.5
21949.6
21952.5
21955.2
21957.8
21960.1
21962.3
21964.4
21966.2
21967.8
21969.3
21970.5
21971.5
21972.4
21973
21973.4
21973.6
21819.8
21819.5
21818.8
21817.8
21816.5
21814.8
21812.8
21810.4
21807.8
21804.8
21801.5
21797.9
21794.1
21789.9
21785.4
21780.6
21775.6
21770.3
21764.8
21759
21753
21746.7
21740.2
21733.5
21726.6
21719.4
21712.2
21704.7
21697
21689.3
21681.3
21673.2
21665.1
21656.8
21648.4
21639.9
21631.3
21622.7
21614
21605.3
21596.6
21587.8
21579
21570.3
21561.5
21552.8
21544.1
21535.5
21527
21518.5
21510.1
21501.8
21493.6
21485.6
21477.6
21469.8
21462.2
21454.7
21447.4
21440.3
21433.3
21426.6
21420
21413.7
21407.6
21401.7
21396.1
21390.7
21385.6
21380.7
21376
21371.7
21367.6
21363.7
21360.2
21356.9
21353.9
21351.2
21348.7
21346.6
21344.7
21343.1
21341.8
21340.8
21340.1
21339.6
21339.4
21339.5
21339.8
21340.4
21341.3
21342.4
21343.7
21345.3
21347.1
21349.2
21351.4
21353.9
21356.5
21359.4
21362.4
21365.6
21368.9
21372.4
21376.1
21379.9
21383.7
21387.7
21391.8
21396
21400.3
21404.6
21409
21413.4
21417.9
21422.4
21426.9
21431.4
21435.9
21440.4
21444.8
21449.2
21453.6
21457.9
21462.1
21466.3
21470.3
21474.3
21478.1
21481.9
21485.5
21489
21492.4
21495.6
21498.6
21501.5
21504.3
21506.8
21509.2
21511.4
21513.5
21515.3
21516.9
21518.4
21519.6
21520.7
21521.5
21522.2
21522.6
21522.8
21369.8
21369.5
21368.8
21367.8
21366.5
21364.8
21362.7
21360.4
21357.7
21354.7
21351.4
21347.8
21343.9
21339.7
21335.2
21330.4
21325.4
21320.1
21314.5
21308.7
21302.6
21296.3
21289.7
21283
21276
21268.9
21261.6
21254
21246.4
21238.5
21230.6
21222.5
21214.2
21205.9
21197.4
21188.9
21180.3
21171.6
21162.9
21154.2
21145.4
21136.6
21127.8
21118.9
21110.2
21101.4
21092.7
21084
21075.4
21066.9
21058.5
21050.1
21041.9
21033.8
21025.8
21018
21010.3
21002.8
20995.4
20988.3
20981.3
20974.5
20968
20961.6
20955.5
20949.6
20943.9
20938.5
20933.3
20928.4
20923.8
20919.4
20915.3
20911.4
20907.8
20904.6
20901.6
20898.8
20896.4
20894.2
20892.4
20890.8
20889.5
20888.5
20887.8
20887.3
20887.1
20887.2
20887.6
20888.2
20889.1
20890.2
20891.6
20893.2
20895
20897.1
20899.4
20901.9
20904.5
20907.4
20910.5
20913.7
20917.1
20920.6
20924.3
20928.1
20932.1
20936.1
20940.3
20944.5
20948.8
20953.2
20957.6
20962.1
20966.6
20971.1
20975.7
20980.2
20984.7
20989.2
20993.7
20998.2
21002.6
21006.9
21011.2
21015.3
21019.4
21023.4
21027.3
21031.1
21034.7
21038.3
21041.6
21044.9
21048
21050.9
21053.6
21056.2
21058.6
21060.9
21062.9
21064.8
21066.4
21067.9
21069.1
21070.2
21071
21071.7
21072.1
21072.3
20920.5
20920.1
20919.5
20918.4
20917.1
20915.4
20913.3
20910.9
20908.2
20905.2
20901.9
20898.3
20894.3
20890.1
20885.5
20880.7
20875.6
20870.3
20864.6
20858.8
20852.6
20846.3
20839.7
20832.9
20825.9
20818.7
20811.3
20803.7
20796
20788.1
20780.1
20771.9
20763.6
20755.2
20746.7
20738.1
20729.4
20720.7
20711.9
20703.1
20694.2
20685.3
20676.5
20667.6
20658.7
20649.9
20641.1
20632.4
20623.7
20615.1
20606.6
20598.2
20590
20581.8
20573.8
20565.9
20558.1
20550.6
20543.2
20535.9
20528.9
20522.1
20515.5
20509.1
20502.9
20497
20491.3
20485.8
20480.6
20475.7
20471
20466.6
20462.4
20458.6
20455
20451.7
20448.7
20446
20443.5
20441.4
20439.5
20437.9
20436.6
20435.6
20434.9
20434.5
20434.3
20434.4
20434.8
20435.5
20436.4
20437.5
20438.9
20440.6
20442.5
20444.6
20446.9
20449.5
20452.2
20455.1
20458.2
20461.5
20465
20468.6
20472.3
20476.2
20480.2
20484.3
20488.5
20492.8
20497.1
20501.6
20506
20510.6
20515.2
20519.8
20524.4
20529
20533.6
20538.2
20542.7
20547.2
20551.6
20556
20560.3
20564.6
20568.7
20572.8
20576.7
20580.5
20584.2
20587.8
20591.2
20594.5
20597.6
20600.5
20603.3
20605.9
20608.4
20610.6
20612.7
20614.6
20616.3
20617.7
20619
20620.1
20620.9
20621.6
20622
20622.2
20471.8
20471.4
20470.7
20469.7
20468.3
20466.6
20464.5
20462.1
20459.4
20456.3
20453
20449.3
20445.3
20441
20436.4
20431.5
20426.4
20421
20415.3
20409.4
20403.2
20396.7
20390.1
20383.2
20376.1
20368.9
20361.4
20353.7
20345.9
20337.9
20329.8
20321.6
20313.2
20304.7
20296.1
20287.4
20278.7
20269.8
20261
20252
20243.1
20234.1
20225.1
20216.2
20207.2
20198.3
20189.4
20180.6
20171.9
20163.2
20154.6
20146.1
20137.8
20129.5
20121.4
20113.4
20105.6
20098
20090.5
20083.2
20076.1
20069.3
20062.6
20056.1
20049.9
20043.9
20038.2
20032.7
20027.4
20022.4
20017.7
20013.3
20009.1
20005.2
20001.6
19998.3
19995.3
19992.5
19990.1
19987.9
19986.1
19984.5
19983.2
19982.2
19981.5
19981.1
19981
19981.1
19981.6
19982.2
19983.2
19984.4
19985.9
19987.6
19989.5
19991.7
19994.1
19996.7
19999.5
20002.5
20005.7
20009
20012.6
20016.2
20020.1
20024
20028.1
20032.3
20036.6
20040.9
20045.4
20049.9
20054.5
20059.1
20063.8
20068.4
20073.1
20077.8
20082.5
20087.1
20091.8
20096.3
20100.9
20105.3
20109.7
20114
20118.2
20122.3
20126.3
20130.2
20133.9
20137.6
20141
20144.4
20147.5
20150.5
20153.4
20156
20158.5
20160.8
20162.9
20164.8
20166.5
20168
20169.3
20170.3
20171.2
20171.8
20172.3
20172.5
20023.7
20023.4
20022.7
20021.6
20020.2
20018.4
20016.3
20013.9
20011.1
20008
20004.6
20000.9
19996.8
19992.5
19987.8
19982.9
19977.7
19972.2
19966.4
19960.4
19954.1
19947.6
19940.9
19933.9
19926.8
19919.4
19911.8
19904.1
19896.1
19888.1
19879.8
19871.5
19863
19854.4
19845.7
19836.9
19828
19819.1
19810.1
19801
19792
19782.9
19773.8
19764.7
19755.7
19746.7
19737.7
19728.7
19719.9
19711.1
19702.4
19693.8
19685.4
19677
19668.8
19660.7
19652.8
19645.1
19637.5
19630.2
19623
19616
19609.3
19602.7
19596.4
19590.4
19584.6
19579
19573.7
19568.7
19563.9
19559.4
19555.2
19551.3
19547.7
19544.3
19541.3
19538.5
19536.1
19533.9
19532.1
19530.5
19529.3
19528.3
19527.6
19527.2
19527.1
19527.3
19527.8
19528.5
19529.5
19530.8
19532.3
19534.1
19536.1
19538.4
19540.8
19543.5
19546.4
19549.5
19552.8
19556.2
19559.8
19563.6
19567.5
19571.6
19575.8
19580.1
19584.5
19588.9
19593.5
19598.1
19602.8
19607.5
19612.3
19617.1
19621.9
19626.6
19631.4
19636.2
19640.9
19645.6
19650.2
19654.7
19659.2
19663.6
19667.9
19672.1
19676.2
19680.1
19683.9
19687.6
19691.2
19694.6
19697.8
19700.8
19703.7
19706.4
19708.9
19711.3
19713.4
19715.3
19717.1
19718.6
19719.9
19721
19721.9
19722.5
19723
19723.2
19576.3
19575.9
19575.2
19574.2
19572.7
19570.9
19568.8
19566.3
19563.5
19560.4
19556.9
19553.1
19549
19544.5
19539.8
19534.8
19529.5
19523.9
19518
19511.9
19505.6
19499
19492.1
19485
19477.7
19470.3
19462.6
19454.7
19446.7
19438.5
19430.1
19421.6
19413
19404.3
19395.4
19386.5
19377.5
19368.4
19359.3
19350.1
19340.9
19331.7
19322.5
19313.3
19304.1
19294.9
19285.8
19276.7
19267.7
19258.8
19250
19241.3
19232.7
19224.2
19215.9
19207.7
19199.7
19191.8
19184.2
19176.7
19169.4
19162.4
19155.5
19148.9
19142.5
19136.4
19130.5
19124.9
19119.5
19114.4
19109.6
19105.1
19100.8
19096.9
19093.2
19089.8
19086.8
19084
19081.5
19079.4
19077.5
19076
19074.7
19073.8
19073.2
19072.8
19072.8
19073
19073.5
19074.3
19075.4
19076.7
19078.3
19080.2
19082.3
19084.6
19087.2
19090
19092.9
19096.1
19099.5
19103.1
19106.8
19110.7
19114.8
19119
19123.3
19127.7
19132.2
19136.8
19141.5
19146.2
19151
19155.9
19160.8
19165.7
19170.6
19175.5
19180.4
19185.3
19190.1
19194.9
19199.6
19204.3
19208.9
19213.4
19217.8
19222.1
19226.2
19230.3
19234.2
19238
19241.6
19245
19248.3
19251.5
19254.4
19257.2
19259.8
19262.1
19264.3
19266.3
19268.1
19269.6
19270.9
19272.1
19273
19273.6
19274.1
19274.3
19129.5
19129.2
19128.5
19127.4
19125.9
19124.1
19121.9
19119.4
19116.5
19113.3
19109.7
19105.9
19101.7
19097.2
19092.3
19087.2
19081.8
19076.1
19070.2
19063.9
19057.5
19050.7
19043.8
19036.6
19029.1
19021.5
19013.7
19005.7
18997.5
18989.2
18980.7
18972
18963.2
18954.3
18945.4
18936.3
18927.1
18917.9
18908.6
18899.3
18889.9
18880.5
18871.1
18861.8
18852.4
18843.1
18833.8
18824.6
18815.4
18806.4
18797.4
18788.5
18779.8
18771.2
18762.7
18754.4
18746.2
18738.3
18730.5
18722.9
18715.5
18708.3
18701.3
18694.6
18688.1
18681.9
18675.9
18670.2
18664.8
18659.6
18654.7
18650.1
18645.8
18641.8
18638.1
18634.7
18631.7
18628.9
18626.4
18624.3
18622.4
18620.9
18619.6
18618.7
18618.1
18617.8
18617.8
18618.1
18618.7
18619.6
18620.7
18622.1
18623.8
18625.8
18628
18630.4
18633.1
18636
18639.1
18642.4
18645.9
18649.6
18653.5
18657.6
18661.7
18666.1
18670.5
18675.1
18679.7
18684.5
18689.3
18694.2
18699.2
18704.2
18709.2
18714.3
18719.3
18724.4
18729.4
18734.4
18739.4
18744.3
18749.2
18754
18758.7
18763.3
18767.8
18772.2
18776.5
18780.7
18784.7
18788.6
18792.3
18795.8
18799.2
18802.4
18805.5
18808.3
18810.9
18813.4
18815.6
18817.6
18819.4
18821
18822.4
18823.6
18824.5
18825.2
18825.6
18825.9
18683.5
18683.1
18682.4
18681.3
18679.8
18677.9
18675.7
18673.1
18670.1
18666.9
18663.2
18659.3
18655
18650.4
18645.4
18640.2
18634.7
18628.9
18622.8
18616.4
18609.8
18602.9
18595.8
18588.5
18580.9
18573.1
18565.2
18557
18548.6
18540.1
18531.5
18522.6
18513.7
18504.6
18495.5
18486.2
18476.9
18467.4
18458
18448.4
18438.9
18429.3
18419.8
18410.2
18400.7
18391.2
18381.7
18372.3
18363
18353.7
18344.6
18335.6
18326.7
18317.9
18309.2
18300.8
18292.4
18284.3
18276.4
18268.6
18261.1
18253.8
18246.7
18239.9
18233.3
18226.9
18220.8
18215
18209.5
18204.3
18199.3
18194.7
18190.3
18186.2
18182.5
18179.1
18176
18173.2
18170.7
18168.5
18166.7
18165.2
18164
18163.1
18162.5
18162.3
18162.3
18162.7
18163.3
18164.3
18165.5
18167
18168.8
18170.9
18173.2
18175.8
18178.6
18181.6
18184.9
18188.3
18192
18195.9
18199.9
18204.1
18208.4
18212.9
18217.6
18222.3
18227.1
18232.1
18237.1
18242.1
18247.3
18252.4
18257.6
18262.9
18268.1
18273.3
18278.5
18283.7
18288.8
18293.9
18298.9
18303.8
18308.7
18313.5
18318.1
18322.6
18327.1
18331.3
18335.5
18339.5
18343.3
18347
18350.4
18353.7
18356.9
18359.8
18362.5
18365
18367.3
18369.4
18371.2
18372.9
18374.3
18375.5
18376.4
18377.1
18377.6
18377.8
18238.1
18237.7
18236.9
18235.8
18234.3
18232.4
18230.1
18227.4
18224.4
18221.1
18217.3
18213.3
18208.9
18204.2
18199.1
18193.8
18188.1
18182.2
18175.9
18169.4
18162.7
18155.6
18148.4
18140.8
18133.1
18125.2
18117
18108.6
18100.1
18091.4
18082.5
18073.5
18064.4
18055.1
18045.7
18036.3
18026.7
18017.1
18007.4
17997.7
17987.9
17978.2
17968.4
17958.6
17948.9
17939.2
17929.5
17919.9
17910.4
17900.9
17891.6
17882.4
17873.2
17864.3
17855.5
17846.8
17838.3
17830
17821.9
17814
17806.3
17798.9
17791.6
17784.6
17777.9
17771.5
17765.3
17759.3
17753.7
17748.4
17743.3
17738.6
17734.2
17730.1
17726.3
17722.8
17719.7
17716.8
17714.3
17712.2
17710.4
17708.8
17707.7
17706.8
17706.3
17706.1
17706.2
17706.7
17707.4
17708.4
17709.8
17711.4
17713.3
17715.5
17718
17720.7
17723.6
17726.8
17730.2
17733.9
17737.7
17741.8
17746
17750.3
17754.9
17759.6
17764.4
17769.3
17774.3
17779.5
17784.7
17789.9
17795.3
17800.6
17806
17811.4
17816.8
17822.2
17827.6
17833
17838.3
17843.5
17848.7
17853.8
17858.9
17863.8
17868.6
17873.3
17877.8
17882.3
17886.5
17890.7
17894.6
17898.4
17902
17905.4
17908.6
17911.6
17914.4
17917
17919.4
17921.5
17923.5
17925.2
17926.6
17927.8
17928.8
17929.5
17930
17930.3
17793.3
17793
17792.2
17791.1
17789.5
17787.5
17785.2
17782.5
17779.4
17775.9
17772.1
17767.9
17763.4
17758.5
17753.4
17747.9
17742.1
17736
17729.6
17722.9
17716
17708.8
17701.3
17693.6
17685.7
17677.6
17669.2
17660.6
17651.9
17643
17633.9
17624.7
17615.3
17605.8
17596.2
17586.5
17576.7
17566.9
17557
17547
17537
17527
17517
17507
17497
17487.1
17477.2
17467.3
17457.6
17447.9
17438.4
17428.9
17419.6
17410.4
17401.4
17392.5
17383.8
17375.3
17367.1
17359
17351.1
17343.5
17336.1
17328.9
17322.1
17315.5
17309.1
17303.1
17297.4
17291.9
17286.8
17282
17277.5
17273.3
17269.4
17265.9
17262.7
17259.9
17257.4
17255.2
17253.4
17251.9
17250.8
17250
17249.5
17249.4
17249.5
17250.1
17250.9
17252.1
17253.5
17255.3
17257.3
17259.6
17262.2
17265.1
17268.2
17271.6
17275.2
17279
17283.1
17287.3
17291.7
17296.3
17301
17305.9
17311
17316.1
17321.4
17326.7
17332.1
17337.6
17343.2
17348.8
17354.4
17360
17365.6
17371.2
17376.8
17382.4
17387.9
17393.3
17398.7
17404
17409.2
17414.3
17419.3
17424.2
17428.9
17433.5
17437.9
17442.2
17446.3
17450.2
17453.9
17457.4
17460.8
17463.9
17466.8
17469.5
17471.9
17474.1
17476.1
17477.9
17479.4
17480.6
17481.6
17482.4
17482.9
17483.2
17349.3
17348.9
17348.2
17347
17345.4
17343.4
17341
17338.2
17335
17331.4
17327.5
17323.2
17318.6
17313.6
17308.2
17302.6
17296.6
17290.3
17283.8
17276.9
17269.8
17262.4
17254.8
17246.9
17238.7
17230.4
17221.8
17213
17204
17194.9
17185.6
17176.1
17166.5
17156.7
17146.9
17136.9
17126.9
17116.8
17106.6
17096.4
17086.1
17075.8
17065.6
17055.3
17045.1
17034.9
17024.7
17014.6
17004.6
16994.7
16984.9
16975.2
16965.7
16956.2
16947
16937.9
16929
16920.3
16911.8
16903.5
16895.4
16887.6
16880.1
16872.8
16865.7
16859
16852.5
16846.3
16840.4
16834.9
16829.6
16824.7
16820.1
16815.9
16811.9
16808.4
16805.2
16802.3
16799.8
16797.6
16795.8
16794.3
16793.2
16792.5
16792
16792
16792.3
16792.9
16793.8
16795.1
16796.7
16798.5
16800.7
16803.2
16806
16809.1
16812.4
16815.9
16819.7
16823.8
16828
16832.5
16837.1
16841.9
16846.9
16852.1
16857.3
16862.7
16868.2
16873.8
16879.5
16885.2
16891
16896.8
16902.7
16908.5
16914.4
16920.3
16926.1
16931.9
16937.6
16943.3
16948.9
16954.4
16959.8
16965.1
16970.2
16975.3
16980.2
16985
16989.6
16994
16998.2
17002.3
17006.2
17009.8
17013.3
17016.5
17019.5
17022.3
17024.9
17027.2
17029.2
17031
17032.6
17033.9
17034.9
17035.7
17036.3
17036.5
16906
16905.6
16904.8
16903.6
16902
16900
16897.5
16894.6
16891.3
16887.7
16883.6
16879.1
16874.3
16869.2
16863.7
16857.9
16851.7
16845.3
16838.5
16831.5
16824.1
16816.5
16808.7
16800.5
16792.2
16783.6
16774.7
16765.7
16756.5
16747.1
16737.5
16727.7
16717.9
16707.8
16697.7
16687.5
16677.2
16666.8
16656.3
16645.8
16635.2
16624.7
16614.1
16603.6
16593.1
16582.6
16572.1
16561.8
16551.5
16541.3
16531.2
16521.3
16511.4
16501.8
16492.3
16482.9
16473.8
16464.8
16456.1
16447.6
16439.3
16431.3
16423.5
16416
16408.8
16401.9
16395.3
16388.9
16382.9
16377.2
16371.8
16366.8
16362.1
16357.8
16353.8
16350.2
16346.9
16344
16341.5
16339.3
16337.5
16336.1
16335
16334.3
16333.9
16333.9
16334.3
16335
16336.1
16337.5
16339.2
16341.3
16343.6
16346.3
16349.3
16352.5
16356
16359.8
16363.8
16368.1
16372.6
16377.3
16382.2
16387.3
16392.5
16397.9
16403.5
16409.1
16414.9
16420.8
16426.7
16432.7
16438.8
16444.9
16451
16457.1
16463.2
16469.3
16475.4
16481.4
16487.4
16493.3
16499.1
16504.9
16510.5
16516
16521.4
16526.7
16531.8
16536.7
16541.5
16546.1
16550.6
16554.8
16558.8
16562.6
16566.2
16569.6
16572.7
16575.6
16578.2
16580.6
16582.8
16584.7
16586.3
16587.7
16588.7
16589.6
16590.1
16590.4
16463.4
16463
16462.2
16461
16459.4
16457.3
16454.8
16451.8
16448.4
16444.6
16440.4
16435.8
16430.8
16425.5
16419.8
16413.7
16407.4
16400.8
16393.8
16386.5
16379
16371.1
16363
16354.7
16346
16337.2
16328.1
16318.8
16309.3
16299.6
16289.7
16279.7
16269.5
16259.2
16248.8
16238.2
16227.6
16216.9
16206.1
16195.3
16184.4
16173.5
16162.7
16151.8
16141
16130.2
16119.4
16108.8
16098.2
16087.7
16077.3
16067.1
16057
16047
16037.2
16027.6
16018.2
16009
16000
15991.3
15982.8
15974.5
15966.5
15958.8
15951.4
15944.3
15937.4
15930.9
15924.8
15918.9
15913.4
15908.3
15903.5
15899.1
15895
15891.3
15888
15885.1
15882.5
15880.3
15878.5
15877.1
15876.1
15875.4
15875.1
15875.2
15875.7
15876.5
15877.7
15879.3
15881.2
15883.4
15885.9
15888.8
15892
15895.4
15899.2
15903.2
15907.5
15912
15916.8
15921.8
15926.9
15932.3
15937.8
15943.5
15949.4
15955.3
15961.4
15967.5
15973.8
15980.1
15986.4
15992.8
15999.2
16005.7
16012.1
16018.4
16024.8
16031.1
16037.4
16043.5
16049.6
16055.6
16061.5
16067.2
16072.9
16078.4
16083.7
16088.8
16093.8
16098.6
16103.2
16107.7
16111.8
16115.8
16119.6
16123.1
16126.3
16129.4
16132.1
16134.6
16136.8
16138.8
16140.5
16141.9
16143
16143.9
16144.5
16144.8
16021.4
16021
16020.2
16019
16017.3
16015.3
16012.7
16009.7
16006.2
16002.2
15997.9
15993.1
15987.9
15982.4
15976.5
15970.2
15963.7
15956.8
15949.6
15942.2
15934.4
15926.3
15917.9
15909.3
15900.4
15891.2
15881.9
15872.3
15862.5
15852.5
15842.3
15831.9
15821.4
15810.8
15800
15789.1
15778.1
15767.1
15756
15744.8
15733.6
15722.4
15711.2
15700
15688.8
15677.7
15666.6
15655.6
15644.7
15633.9
15623.2
15612.6
15602.2
15591.9
15581.8
15571.9
15562.2
15552.7
15543.5
15534.5
15525.7
15517.2
15509
15501
15493.4
15486
15479
15472.3
15466
15460
15454.4
15449.1
15444.2
15439.6
15435.5
15431.7
15428.3
15425.4
15422.8
15420.6
15418.8
15417.4
15416.4
15415.8
15415.6
15415.8
15416.4
15417.4
15418.7
15420.4
15422.5
15424.9
15427.6
15430.7
15434.1
15437.8
15441.8
15446.1
15450.7
15455.5
15460.5
15465.8
15471.3
15477
15482.8
15488.9
15495
15501.3
15507.7
15514.2
15520.8
15527.4
15534.1
15540.8
15547.5
15554.2
15560.9
15567.6
15574.3
15580.9
15587.4
15593.9
15600.3
15606.5
15612.7
15618.7
15624.6
15630.3
15635.9
15641.3
15646.5
15651.5
15656.3
15660.9
15665.3
15669.4
15673.4
15677
15680.4
15683.6
15686.5
15689.1
15691.4
15693.5
15695.2
15696.7
15697.9
15698.8
15699.4
15699.7
15580.2
15579.9
15579
15577.7
15576
15574
15571.5
15568.4
15564.8
15560.7
15556.1
15551.1
15545.7
15539.9
15533.8
15527.4
15520.6
15513.5
15506.1
15498.3
15490.3
15481.9
15473.3
15464.4
15455.2
15445.7
15436.1
15426.1
15416
15405.7
15395.1
15384.4
15373.6
15362.6
15351.4
15340.2
15328.9
15317.4
15306
15294.4
15282.9
15271.3
15259.7
15248.1
15236.6
15225.1
15213.6
15202.2
15191
15179.8
15168.8
15157.8
15147.1
15136.5
15126.1
15115.8
15105.8
15096
15086.5
15077.2
15068.1
15059.3
15050.8
15042.6
15034.8
15027.2
15020
15013.1
15006.6
15000.4
14994.6
14989.2
14984.1
14979.5
14975.2
14971.4
14967.9
14964.9
14962.3
14960.1
14958.3
14957
14956
14955.5
14955.4
14955.7
14956.4
14957.5
14959
14960.8
14963.1
14965.7
14968.7
14972
14975.7
14979.6
14983.9
14988.5
14993.4
14998.5
15003.9
15009.5
15015.3
15021.3
15027.5
15033.9
15040.4
15047.1
15053.8
15060.7
15067.6
15074.6
15081.6
15088.7
15095.7
15102.8
15109.9
15116.9
15123.9
15130.8
15137.6
15144.4
15151.1
15157.6
15164.1
15170.4
15176.6
15182.6
15188.4
15194
15199.5
15204.7
15209.8
15214.6
15219.2
15223.5
15227.6
15231.4
15235
15238.3
15241.3
15244
15246.5
15248.6
15250.5
15252
15253.3
15254.2
15254.8
15255.1
15139.8
15139.6
15138.6
15137.2
15135.6
15133.6
15131.2
15128.1
15124.3
15119.9
15115
15109.7
15104.1
15098.1
15091.8
15085.1
15078.1
15070.8
15063.1
15055.1
15046.8
15038.1
15029.2
15020
15010.5
15000.7
14990.7
14980.4
14969.9
14959.2
14948.3
14937.3
14926
14914.6
14903.1
14891.5
14879.7
14867.9
14856
14844.1
14832.1
14820.1
14808.1
14796.2
14784.2
14772.3
14760.5
14748.7
14737.1
14725.5
14714.1
14702.8
14691.7
14680.7
14669.9
14659.4
14649
14638.9
14629
14619.4
14610
14600.9
14592.2
14583.7
14575.6
14567.7
14560.3
14553.2
14546.4
14540.1
14534.1
14528.5
14523.3
14518.6
14514.2
14510.3
14506.8
14503.7
14501
14498.8
14497.1
14495.7
14494.9
14494.4
14494.4
14494.8
14495.6
14496.9
14498.5
14500.6
14503
14505.9
14509.1
14512.7
14516.6
14520.9
14525.5
14530.4
14535.6
14541
14546.8
14552.7
14558.9
14565.3
14571.9
14578.7
14585.6
14592.6
14599.8
14607
14614.3
14621.7
14629.1
14636.5
14644
14651.4
14658.8
14666.2
14673.5
14680.8
14688
14695.1
14702.1
14709
14715.8
14722.4
14728.8
14735.1
14741.2
14747.1
14752.9
14758.4
14763.7
14768.7
14773.5
14778.1
14782.3
14786.4
14790.1
14793.5
14796.7
14799.6
14802.1
14804.4
14806.3
14807.9
14809.2
14810.2
14810.9
14811.2
14700.1
14699.9
14698.9
14697.5
14695.9
14694.1
14691.7
14688.5
14684.5
14679.7
14674.5
14668.9
14663
14656.9
14650.3
14643.4
14636.2
14628.6
14620.7
14612.4
14603.8
14594.9
14585.7
14576.1
14566.3
14556.2
14545.8
14535.1
14524.3
14513.2
14501.9
14490.4
14478.7
14466.9
14455
14442.9
14430.8
14418.5
14406.2
14393.8
14381.4
14369
14356.6
14344.2
14331.8
14319.5
14307.2
14295
14283
14271
14259.2
14247.5
14235.9
14224.6
14213.4
14202.5
14191.8
14181.3
14171
14161.1
14151.4
14142
14132.9
14124.1
14115.7
14107.6
14099.9
14092.6
14085.6
14079
14072.8
14067.1
14061.7
14056.8
14052.4
14048.3
14044.8
14041.6
14039
14036.7
14035
14033.7
14032.8
14032.5
14032.5
14033.1
14034
14035.4
14037.3
14039.5
14042.2
14045.3
14048.8
14052.7
14056.9
14061.5
14066.4
14071.7
14077.2
14083.1
14089.2
14095.6
14102.2
14109
14116
14123.2
14130.5
14138
14145.5
14153.2
14160.9
14168.7
14176.5
14184.4
14192.2
14200
14207.8
14215.6
14223.3
14231
14238.5
14246
14253.3
14260.6
14267.7
14274.6
14281.4
14288
14294.4
14300.6
14306.6
14312.4
14318
14323.3
14328.3
14333.1
14337.6
14341.8
14345.7
14349.3
14352.7
14355.7
14358.3
14360.7
14362.7
14364.4
14365.8
14366.8
14367.5
14367.9
14261
14260.2
14258.9
14257
14255.4
14254
14252.1
14249.2
14244.9
14239.8
14234.3
14228.5
14222.5
14216.2
14209.4
14202.4
14194.9
14187.1
14178.9
14170.4
14161.5
14152.3
14142.7
14132.8
14122.6
14112.1
14101.3
14090.3
14079
14067.5
14055.8
14043.8
14031.8
14019.5
14007.1
13994.6
13982
13969.2
13956.5
13943.6
13930.8
13917.9
13905
13892.1
13879.3
13866.5
13853.8
13841.1
13828.6
13816.2
13803.9
13791.8
13779.9
13768.1
13756.5
13745.2
13734.1
13723.2
13712.6
13702.2
13692.2
13682.4
13673
13663.9
13655.2
13646.8
13638.8
13631.2
13624
13617.2
13610.8
13604.9
13599.4
13594.3
13589.7
13585.6
13581.9
13578.7
13576
13573.8
13572
13570.7
13570
13569.7
13569.8
13570.5
13571.6
13573.2
13575.2
13577.7
13580.7
13584
13587.8
13592
13596.5
13601.4
13606.7
13612.4
13618.3
13624.6
13631.1
13637.9
13645
13652.3
13659.7
13667.4
13675.2
13683.1
13691.1
13699.2
13707.4
13715.6
13723.9
13732.2
13740.4
13748.7
13756.9
13765.1
13773.2
13781.3
13789.2
13797.1
13804.8
13812.4
13819.9
13827.2
13834.3
13841.2
13848
13854.5
13860.8
13866.9
13872.7
13878.3
13883.6
13888.6
13893.3
13897.8
13901.9
13905.7
13909.2
13912.3
13915.2
13917.6
13919.8
13921.6
13923
13924.1
13924.8
13925.2
13819.9
13818.9
13816.4
13813.6
13811.9
13811.1
13810.5
13808.6
13804.9
13799.8
13794
13788.1
13782.1
13775.8
13769.1
13761.9
13754.3
13746.2
13737.8
13729
13719.8
13710.2
13700.3
13690
13679.5
13668.6
13657.4
13645.9
13634.2
13622.2
13610
13597.6
13585.1
13572.3
13559.4
13546.4
13533.3
13520.1
13506.8
13493.5
13480.1
13466.7
13453.3
13440
13426.7
13413.4
13400.2
13387.1
13374.1
13361.2
13348.4
13335.9
13323.4
13311.2
13299.2
13287.4
13275.9
13264.6
13253.6
13242.8
13232.4
13222.3
13212.5
13203.1
13194
13185.3
13177
13169.1
13161.6
13154.6
13148
13141.8
13136.1
13130.9
13126.1
13121.9
13118.1
13114.9
13112.1
13109.9
13108.1
13106.9
13106.2
13106
13106.2
13107
13108.3
13110.1
13112.4
13115.1
13118.3
13121.9
13126
13130.5
13135.4
13140.7
13146.4
13152.5
13158.9
13165.6
13172.6
13179.9
13187.4
13195.2
13203.1
13211.3
13219.6
13228
13236.5
13245.1
13253.8
13262.5
13271.2
13280
13288.7
13297.4
13306.1
13314.7
13323.2
13331.7
13340.1
13348.4
13356.5
13364.5
13372.3
13380
13387.5
13394.8
13401.9
13408.8
13415.5
13421.8
13428
13433.8
13439.4
13444.7
13449.7
13454.3
13458.7
13462.7
13466.3
13469.7
13472.6
13475.2
13477.5
13479.4
13480.9
13482
13482.8
13483.1
13377.6
13375.7
13371.6
13367.6
13365.6
13365.7
13366.9
13366.8
13364.3
13359.6
13353.8
13347.9
13341.9
13335.9
13329.2
13322
13314.3
13306.1
13297.4
13288.3
13278.8
13268.9
13258.6
13247.9
13236.9
13225.6
13213.9
13202
13189.8
13177.3
13164.7
13151.8
13138.7
13125.4
13112
13098.5
13084.8
13071.1
13057.3
13043.4
13029.5
13015.6
13001.7
12987.8
12973.9
12960.1
12946.4
12932.8
12919.3
12905.9
12892.6
12879.6
12866.7
12854
12841.5
12829.2
12817.2
12805.5
12794
12782.8
12772
12761.5
12751.3
12741.5
12732.1
12723
12714.4
12706.2
12698.4
12691.1
12684.2
12677.9
12672
12666.6
12661.7
12657.3
12653.4
12650.1
12647.3
12645
12643.3
12642.1
12641.4
12641.3
12641.7
12642.6
12644.1
12646.1
12648.6
12651.6
12655
12659
12663.4
12668.3
12673.6
12679.3
12685.4
12691.9
12698.8
12706
12713.5
12721.3
12729.3
12737.6
12746.2
12754.9
12763.7
12772.7
12781.7
12790.9
12800.1
12809.3
12818.5
12827.8
12837
12846.2
12855.3
12864.4
12873.4
12882.3
12891.1
12899.8
12908.4
12916.8
12925.1
12933.2
12941.1
12948.8
12956.3
12963.5
12970.5
12977.3
12983.7
12989.9
12995.8
13001.3
13006.6
13011.5
13016.1
13020.3
13024.1
13027.6
13030.8
13033.5
13035.9
13037.9
13039.4
13040.6
13041.4
13041.8
12935.9
12933.3
12927.7
12922.7
12920.3
12921.1
12923.6
12925.5
12923.9
12919.5
12913.5
12907.3
12901.9
12896.4
12890.1
12882.9
12875
12866.6
12857.7
12848.3
12838.5
12828.2
12817.5
12806.4
12795
12783.2
12771
12758.6
12745.9
12732.9
12719.7
12706.3
12692.6
12678.8
12664.9
12650.8
12636.5
12622.2
12607.8
12593.4
12578.9
12564.4
12550
12535.5
12521.1
12506.7
12492.5
12478.3
12464.2
12450.3
12436.5
12422.9
12409.5
12396.3
12383.3
12370.5
12358
12345.8
12333.9
12322.3
12311
12300
12289.4
12279.2
12269.4
12260
12251
12242.4
12234.4
12226.7
12219.6
12213
12206.9
12201.3
12196.2
12191.7
12187.7
12184.3
12181.4
12179.1
12177.4
12176.2
12175.6
12175.6
12176.1
12177.2
12178.9
12181.1
12183.8
12187.1
12190.9
12195.2
12200
12205.2
12210.9
12217.1
12223.7
12230.7
12238
12245.8
12253.8
12262.2
12270.8
12279.7
12288.8
12298.1
12307.6
12317.1
12326.8
12336.5
12346.3
12356
12365.8
12375.6
12385.3
12395
12404.6
12414.2
12423.7
12433.1
12442.4
12451.6
12460.6
12469.5
12478.2
12486.7
12495.1
12503.2
12511.1
12518.7
12526.1
12533.2
12540
12546.5
12552.7
12558.6
12564.1
12569.3
12574.1
12578.5
12582.6
12586.3
12589.6
12592.5
12595
12597.1
12598.8
12600
12600.9
12601.3
12498.9
12495.4
12489.6
12484.2
12481.6
12482.1
12484.8
12486.3
12484.7
12480.2
12474.2
12468.3
12463
12457.9
12451.8
12444.7
12436.7
12428.1
12418.9
12409.2
12399
12388.3
12377.1
12365.6
12353.7
12341.3
12328.7
12315.7
12302.5
12288.9
12275.2
12261.1
12246.9
12232.5
12217.9
12203.2
12188.4
12173.5
12158.5
12143.5
12128.4
12113.3
12098.2
12083.1
12068.1
12053.2
12038.3
12023.6
12008.9
11994.4
11980.1
11965.9
11951.9
11938.2
11924.6
11911.4
11898.3
11885.6
11873.2
11861
11849.3
11837.9
11826.8
11816.2
11805.9
11796.1
11786.7
11777.8
11769.4
11761.5
11754.1
11747.1
11740.8
11735
11729.7
11725
11720.9
11717.4
11714.5
11712.1
11710.4
11709.3
11708.8
11708.8
11709.5
11710.8
11712.6
11715.1
11718.1
11721.7
11725.8
11730.4
11735.6
11741.3
11747.4
11754.1
11761.2
11768.7
11776.6
11784.9
11793.6
11802.6
11811.9
11821.4
11831.2
11841.1
11851.2
11861.4
11871.7
11882
11892.4
11902.7
11913.1
11923.4
11933.6
11943.9
11954
11964.1
11974.1
11984
11993.8
12003.5
12013
12022.4
12031.6
12040.6
12049.4
12058
12066.3
12074.3
12082.1
12089.6
12096.8
12103.7
12110.2
12116.4
12122.3
12127.7
12132.8
12137.5
12141.8
12145.7
12149.2
12152.2
12154.9
12157.1
12158.8
12160.2
12161.1
12161.5
12067.9
12064.3
12058.8
12053.6
12050.6
12050.3
12051.3
12051
12048
12042.7
12036.5
12030.8
12025.7
12020.8
12014.8
12007.6
11999.5
11990.6
11981.1
11971
11960.3
11949.2
11937.6
11925.5
11913
11900.2
11887
11873.4
11859.6
11845.4
11831
11816.4
11801.5
11786.5
11771.3
11755.9
11740.5
11724.9
11709.3
11693.6
11677.8
11662.1
11646.4
11630.7
11615
11599.5
11584
11568.6
11553.3
11538.2
11523.3
11508.5
11494
11479.6
11465.5
11451.7
11438.1
11424.8
11411.8
11399.2
11386.9
11375
11363.5
11352.3
11341.6
11331.4
11321.6
11312.3
11303.5
11295.2
11287.5
11280.3
11273.7
11267.6
11262.1
11257.3
11253
11249.4
11246.4
11244
11242.3
11241.2
11240.7
11240.9
11241.8
11243.2
11245.3
11248
11251.3
11255.2
11259.6
11264.7
11270.3
11276.4
11283.1
11290.2
11297.8
11305.9
11314.5
11323.4
11332.7
11342.4
11352.3
11362.6
11373.1
11383.8
11394.6
11405.5
11416.5
11427.5
11438.4
11449.4
11460.3
11471.2
11482
11492.8
11503.5
11514.1
11524.7
11535.1
11545.4
11555.6
11565.7
11575.6
11585.3
11594.8
11604.1
11613.2
11622
11630.5
11638.7
11646.6
11654.2
11661.5
11668.4
11674.9
11681.1
11686.9
11692.3
11697.2
11701.8
11705.9
11709.6
11712.8
11715.6
11717.9
11719.8
11721.2
11722.1
11722.6
11641.4
11639
11634.3
11629.6
11626
11624
11622.3
11619.2
11614.1
11607.7
11601.2
11595.4
11590.6
11585.6
11579.4
11572
11563.5
11554.2
11544.3
11533.7
11522.6
11510.9
11498.8
11486.2
11473.1
11459.7
11445.9
11431.7
11417.2
11402.4
11387.4
11372.1
11356.5
11340.8
11324.9
11308.9
11292.7
11276.4
11260.1
11243.7
11227.3
11210.9
11194.5
11178.1
11161.8
11145.6
11129.4
11113.4
11097.5
11081.7
11066.2
11050.8
11035.6
11020.6
11005.9
10991.5
10977.3
10963.4
10949.9
10936.7
10923.8
10911.4
10899.3
10887.7
10876.5
10865.8
10855.6
10845.8
10836.6
10828
10819.9
10812.3
10805.4
10799.1
10793.4
10788.4
10783.9
10780.2
10777.1
10774.7
10773
10771.9
10771.5
10771.8
10772.8
10774.4
10776.8
10779.7
10783.3
10787.6
10792.4
10797.9
10803.9
10810.6
10817.7
10825.4
10833.6
10842.3
10851.5
10861.1
10871.1
10881.5
10892.3
10903.3
10914.6
10926.1
10937.7
10949.4
10961.1
10972.8
10984.4
10996
11007.6
11019
11030.4
11041.7
11053
11064.2
11075.3
11086.3
11097.2
11108
11118.7
11129.1
11139.4
11149.4