/*--------------------------------*- C++ -*----------------------------------*\
| =========                 |                                                 |
| \\      /  F ield         | OpenFOAM: The Open Source CFD Toolbox           |
|  \\    /   O peration     | Version:  v2006                                 |
|   \\  /    A nd           | Website:  www.openfoam.com                      |
|    \\/     M anipulation  |                                                 |
\*---------------------------------------------------------------------------*/
FoamFile
{
    version     2.0;
    format      ascii;
    class       volScalarField;
    location    "12.6";
    object      p_rgh;
}
// * * * * * * * * * * * * * * * * * * * * * * * * * * * * * * * * * * * * * //

dimensions      [1 -1 -2 0 0 0 0];


internalField   nonuniform List<scalar> 
50000
(
3066.58
3066.58
3066.58
3066.56
3066.54
3066.52
3066.49
3066.46
3066.43
3066.39
3066.34
3066.29
3066.24
3066.18
3066.1
3066.02
3065.92
3065.81
3065.69
3065.54
3065.38
3065.19
3064.97
3064.72
3064.45
3064.13
3063.77
3063.37
3062.93
3062.43
3061.87
3061.26
3060.59
3059.85
3059.04
3058.15
3057.17
3056.11
3054.96
3053.72
3052.38
3050.94
3049.39
3047.72
3045.95
3044.05
3042.02
3039.87
3037.59
3035.17
3032.62
3029.92
3027.08
3024.09
3020.96
3017.67
3014.23
3010.63
3006.87
3002.95
2998.88
2994.64
2990.24
2985.68
2980.95
2976.07
2971.02
2965.81
2960.45
2954.92
2949.24
2943.41
2937.43
2931.3
2925.03
2918.61
2912.06
2905.38
2898.57
2891.64
2884.6
2877.44
2870.17
2862.81
2855.35
2847.81
2840.19
2832.5
2824.74
2816.93
2809.06
2801.15
2793.22
2785.25
2777.27
2769.27
2761.28
2753.29
2745.32
2737.37
2729.46
2721.58
2713.75
2705.97
2698.26
2690.62
2683.06
2675.58
2668.21
2660.93
2653.76
2646.71
2639.78
2632.98
2626.33
2619.82
2613.45
2607.24
2601.19
2595.29
2589.56
2584
2578.61
2573.4
2568.36
2563.5
2558.83
2554.35
2550.05
2545.94
2542.02
2538.3
2534.77
2531.43
2528.29
2525.34
2522.59
2520.04
2517.68
2515.52
2513.56
2511.8
2510.23
2508.86
2507.68
2506.71
2505.92
2505.34
2504.95
2504.74
3066.55
3066.55
3066.55
3066.53
3066.51
3066.49
3066.46
3066.44
3066.4
3066.37
3066.33
3066.28
3066.23
3066.17
3066.11
3066.03
3065.94
3065.83
3065.71
3065.58
3065.42
3065.24
3065.03
3064.79
3064.52
3064.21
3063.86
3063.47
3063.03
3062.54
3061.99
3061.39
3060.71
3059.97
3059.15
3058.27
3057.31
3056.26
3055.12
3053.89
3052.56
3051.13
3049.58
3047.93
3046.16
3044.27
3042.26
3040.11
3037.84
3035.43
3032.88
3030.19
3027.35
3024.37
3021.24
3017.95
3014.51
3010.92
3007.16
3003.25
2999.17
2994.94
2990.54
2985.97
2981.25
2976.36
2971.31
2966.1
2960.73
2955.2
2949.52
2943.68
2937.7
2931.56
2925.28
2918.86
2912.3
2905.61
2898.79
2891.85
2884.79
2877.62
2870.35
2862.97
2855.51
2847.95
2840.32
2832.61
2824.84
2817.01
2809.13
2801.21
2793.26
2785.28
2777.28
2769.28
2761.27
2753.27
2745.28
2737.31
2729.37
2721.47
2713.62
2705.82
2698.09
2690.43
2682.85
2675.35
2667.96
2660.67
2653.49
2646.44
2639.52
2632.73
2626.07
2619.55
2613.18
2606.95
2600.89
2594.98
2589.24
2583.67
2578.28
2573.05
2568.01
2563.15
2558.47
2553.98
2549.68
2545.56
2541.64
2537.91
2534.38
2531.03
2527.89
2524.94
2522.18
2519.63
2517.27
2515.11
2513.14
2511.38
2509.8
2508.43
2507.26
2506.28
2505.5
2504.91
2504.52
2504.32
3066.5
3066.5
3066.5
3066.49
3066.47
3066.45
3066.43
3066.4
3066.37
3066.34
3066.31
3066.27
3066.23
3066.17
3066.12
3066.05
3065.97
3065.88
3065.77
3065.64
3065.5
3065.33
3065.14
3064.91
3064.66
3064.36
3064.03
3063.66
3063.24
3062.76
3062.24
3061.65
3061
3060.28
3059.5
3058.63
3057.67
3056.63
3055.51
3054.28
3052.96
3051.54
3050.01
3048.37
3046.61
3044.73
3042.73
3040.6
3038.33
3035.93
3033.39
3030.71
3027.89
3024.91
3021.79
3018.51
3015.08
3011.49
3007.74
3003.82
2999.75
2995.52
2991.12
2986.55
2981.83
2976.94
2971.88
2966.67
2961.29
2955.75
2950.06
2944.22
2938.22
2932.07
2925.77
2919.34
2912.76
2906.06
2899.22
2892.26
2885.18
2877.99
2870.69
2863.29
2855.8
2848.22
2840.56
2832.83
2825.03
2817.17
2809.26
2801.31
2793.33
2785.32
2777.29
2769.25
2761.21
2753.18
2745.16
2737.16
2729.2
2721.27
2713.4
2705.58
2697.82
2690.14
2682.54
2675.04
2667.63
2660.34
2653.13
2646.04
2639.07
2632.25
2625.56
2619.01
2612.62
2606.37
2600.29
2594.37
2588.61
2583.02
2577.61
2572.37
2567.32
2562.44
2557.75
2553.25
2548.94
2544.82
2540.89
2537.15
2533.61
2530.26
2527.11
2524.16
2521.4
2518.84
2516.48
2514.31
2512.35
2510.58
2509.01
2507.63
2506.46
2505.48
2504.7
2504.11
2503.72
2503.52
3066.43
3066.44
3066.43
3066.42
3066.41
3066.39
3066.37
3066.35
3066.33
3066.31
3066.28
3066.25
3066.22
3066.18
3066.13
3066.08
3066.01
3065.94
3065.85
3065.74
3065.61
3065.46
3065.29
3065.09
3064.85
3064.59
3064.28
3063.93
3063.53
3063.08
3062.58
3062.01
3061.39
3060.69
3059.92
3059.08
3058.16
3057.14
3056.04
3054.85
3053.55
3052.15
3050.64
3049.02
3047.28
3045.42
3043.44
3041.32
3039.08
3036.69
3034.17
3031.51
3028.69
3025.73
3022.62
3019.35
3015.93
3012.34
3008.6
3004.69
3000.62
2996.39
2991.99
2987.43
2982.7
2977.8
2972.74
2967.52
2962.13
2956.58
2950.88
2945.01
2939
2932.83
2926.51
2920.06
2913.46
2906.73
2899.86
2892.87
2885.76
2878.54
2871.21
2863.78
2856.25
2848.63
2840.93
2833.16
2825.32
2817.42
2809.47
2801.48
2793.45
2785.39
2777.32
2769.23
2761.15
2753.07
2745
2736.96
2728.95
2720.98
2713.06
2705.2
2697.4
2689.67
2682.03
2674.47
2667.01
2659.64
2652.41
2645.3
2638.32
2631.46
2624.75
2618.17
2611.74
2605.47
2599.36
2593.41
2587.63
2582.02
2576.58
2571.33
2566.25
2561.36
2556.66
2552.14
2547.82
2543.69
2539.75
2536
2532.45
2529.1
2525.94
2522.98
2520.22
2517.66
2515.3
2513.13
2511.16
2509.39
2507.82
2506.44
2505.27
2504.29
2503.51
2502.93
2502.53
2502.32
3066.33
3066.34
3066.34
3066.33
3066.32
3066.3
3066.29
3066.28
3066.26
3066.25
3066.23
3066.22
3066.2
3066.17
3066.14
3066.11
3066.06
3066.01
3065.94
3065.86
3065.76
3065.64
3065.49
3065.32
3065.11
3064.88
3064.6
3064.28
3063.92
3063.5
3063.03
3062.5
3061.91
3061.25
3060.52
3059.7
3058.81
3057.83
3056.76
3055.6
3054.33
3052.96
3051.48
3049.89
3048.18
3046.34
3044.39
3042.3
3040.07
3037.71
3035.21
3032.57
3029.77
3026.83
3023.73
3020.48
3017.06
3013.49
3009.75
3005.86
3001.79
2997.56
2993.16
2988.59
2983.86
2978.96
2973.89
2968.65
2963.25
2957.69
2951.96
2946.08
2940.04
2933.85
2927.51
2921.02
2914.39
2907.62
2900.72
2893.7
2886.55
2879.28
2871.91
2864.43
2856.85
2849.18
2841.43
2833.6
2825.71
2817.75
2809.75
2801.7
2793.61
2785.49
2777.36
2769.21
2761.06
2752.92
2744.79
2736.69
2728.62
2720.59
2712.61
2704.69
2696.83
2689.05
2681.35
2673.75
2666.24
2658.83
2651.55
2644.38
2637.34
2630.43
2623.67
2617.05
2610.58
2604.27
2598.12
2592.13
2586.32
2580.68
2575.21
2569.93
2564.83
2559.92
2555.19
2550.66
2546.32
2542.17
2538.22
2534.46
2530.9
2527.54
2524.38
2521.41
2518.65
2516.08
2513.72
2511.55
2509.58
2507.81
2506.23
2504.86
2503.68
2502.7
2501.92
2501.34
2500.94
2500.74
3066.2
3066.21
3066.21
3066.21
3066.2
3066.19
3066.18
3066.18
3066.17
3066.17
3066.17
3066.17
3066.16
3066.16
3066.15
3066.14
3066.12
3066.09
3066.05
3066
3065.93
3065.85
3065.74
3065.6
3065.44
3065.24
3065
3064.72
3064.4
3064.02
3063.59
3063.11
3062.55
3061.93
3061.24
3060.47
3059.62
3058.69
3057.66
3056.53
3055.3
3053.97
3052.53
3050.97
3049.3
3047.5
3045.57
3043.52
3041.32
3038.99
3036.52
3033.9
3031.13
3028.2
3025.12
3021.89
3018.49
3014.93
3011.21
3007.31
3003.25
2999.02
2994.63
2990.06
2985.32
2980.41
2975.33
2970.08
2964.66
2959.08
2953.33
2947.42
2941.36
2935.13
2928.76
2922.23
2915.56
2908.75
2901.81
2894.73
2887.53
2880.21
2872.78
2865.24
2857.6
2849.87
2842.06
2834.17
2826.2
2818.18
2810.1
2801.97
2793.81
2785.62
2777.41
2769.19
2760.96
2752.74
2744.54
2736.36
2728.21
2720.1
2712.05
2704.05
2696.12
2688.27
2680.5
2672.82
2665.24
2657.77
2650.41
2643.19
2636.09
2629.13
2622.31
2615.63
2609.11
2602.75
2596.56
2590.53
2584.67
2578.99
2573.49
2568.18
2563.05
2558.11
2553.36
2548.8
2544.44
2540.27
2536.3
2532.53
2528.96
2525.59
2522.42
2519.45
2516.67
2514.1
2511.73
2509.56
2507.59
2505.82
2504.24
2502.87
2501.69
2500.72
2499.93
2499.35
2498.96
2498.75
3066.03
3066.04
3066.05
3066.05
3066.05
3066.04
3066.04
3066.05
3066.05
3066.07
3066.08
3066.1
3066.12
3066.14
3066.15
3066.17
3066.18
3066.19
3066.18
3066.17
3066.14
3066.09
3066.03
3065.94
3065.82
3065.66
3065.47
3065.25
3064.97
3064.65
3064.27
3063.83
3063.33
3062.76
3062.12
3061.4
3060.6
3059.71
3058.73
3057.66
3056.48
3055.19
3053.79
3052.28
3050.65
3048.89
3047
3044.99
3042.83
3040.53
3038.09
3035.5
3032.76
3029.86
3026.81
3023.59
3020.21
3016.67
3012.96
3009.07
3005.02
3000.8
2996.4
2991.83
2987.08
2982.16
2977.07
2971.8
2966.37
2960.76
2954.99
2949.05
2942.94
2936.68
2930.27
2923.7
2916.98
2910.12
2903.12
2895.98
2888.72
2881.34
2873.84
2866.23
2858.52
2850.71
2842.82
2834.85
2826.8
2818.69
2810.52
2802.31
2794.06
2785.78
2777.47
2769.16
2760.84
2752.53
2744.23
2735.96
2727.72
2719.52
2711.37
2703.28
2695.27
2687.32
2679.47
2671.71
2664.05
2656.5
2649.07
2641.76
2634.59
2627.56
2620.67
2613.93
2607.35
2600.93
2594.67
2588.59
2582.69
2576.96
2571.42
2566.07
2560.9
2555.93
2551.15
2546.56
2542.17
2537.99
2534
2530.21
2526.63
2523.24
2520.06
2517.08
2514.3
2511.72
2509.35
2507.17
2505.2
2503.42
2501.85
2500.47
2499.3
2498.32
2497.54
2496.95
2496.56
2496.35
3065.81
3065.83
3065.85
3065.85
3065.85
3065.85
3065.86
3065.88
3065.9
3065.93
3065.96
3066
3066.05
3066.09
3066.14
3066.19
3066.24
3066.28
3066.32
3066.35
3066.37
3066.37
3066.36
3066.32
3066.25
3066.15
3066.02
3065.85
3065.63
3065.37
3065.05
3064.67
3064.23
3063.73
3063.14
3062.49
3061.74
3060.91
3059.99
3058.97
3057.84
3056.61
3055.27
3053.81
3052.23
3050.52
3048.68
3046.71
3044.59
3042.34
3039.93
3037.38
3034.67
3031.81
3028.78
3025.59
3022.23
3018.71
3015.01
3011.14
3007.09
3002.87
2998.48
2993.9
2989.15
2984.22
2979.11
2973.83
2968.37
2962.73
2956.93
2950.95
2944.81
2938.51
2932.04
2925.42
2918.64
2911.72
2904.66
2897.45
2890.12
2882.66
2875.08
2867.39
2859.59
2851.7
2843.71
2835.65
2827.5
2819.29
2811.03
2802.71
2794.35
2785.96
2777.55
2769.13
2760.7
2752.28
2743.87
2735.49
2727.14
2718.83
2710.58
2702.38
2694.26
2686.21
2678.25
2670.39
2662.64
2654.99
2647.47
2640.07
2632.82
2625.7
2618.73
2611.92
2605.26
2598.77
2592.46
2586.32
2580.36
2574.58
2568.99
2563.59
2558.38
2553.37
2548.55
2543.94
2539.52
2535.31
2531.3
2527.49
2523.89
2520.49
2517.3
2514.31
2511.52
2508.94
2506.56
2504.38
2502.4
2500.62
2499.05
2497.67
2496.49
2495.51
2494.73
2494.15
2493.76
2493.55
3065.55
3065.57
3065.59
3065.6
3065.61
3065.62
3065.64
3065.67
3065.7
3065.75
3065.81
3065.87
3065.94
3066.02
3066.11
3066.2
3066.29
3066.38
3066.47
3066.55
3066.62
3066.68
3066.72
3066.74
3066.74
3066.71
3066.64
3066.53
3066.39
3066.19
3065.94
3065.63
3065.26
3064.82
3064.31
3063.72
3063.05
3062.28
3061.43
3060.47
3059.41
3058.24
3056.96
3055.56
3054.04
3052.39
3050.6
3048.68
3046.62
3044.41
3042.05
3039.54
3036.87
3034.04
3031.05
3027.89
3024.55
3021.05
3017.37
3013.52
3009.48
3005.27
3000.87
2996.29
2991.53
2986.59
2981.47
2976.16
2970.68
2965.01
2959.17
2953.15
2946.96
2940.61
2934.09
2927.4
2920.56
2913.57
2906.43
2899.15
2891.74
2884.19
2876.52
2868.73
2860.84
2852.84
2844.75
2836.57
2828.32
2819.99
2811.61
2803.17
2794.7
2786.18
2777.65
2769.1
2760.55
2752
2743.46
2734.95
2726.47
2718.04
2709.66
2701.34
2693.1
2684.93
2676.85
2668.88
2661.01
2653.26
2645.63
2638.13
2630.77
2623.56
2616.5
2609.6
2602.86
2596.29
2589.9
2583.69
2577.67
2571.83
2566.18
2560.73
2555.48
2550.42
2545.57
2540.92
2536.48
2532.24
2528.2
2524.37
2520.75
2517.34
2514.13
2511.13
2508.33
2505.74
2503.36
2501.17
2499.19
2497.41
2495.84
2494.46
2493.28
2492.3
2491.52
2490.94
2490.54
2490.34
3065.22
3065.26
3065.28
3065.3
3065.31
3065.33
3065.36
3065.4
3065.46
3065.53
3065.61
3065.7
3065.81
3065.92
3066.05
3066.18
3066.32
3066.46
3066.61
3066.75
3066.88
3067
3067.11
3067.2
3067.27
3067.31
3067.32
3067.29
3067.22
3067.11
3066.94
3066.71
3066.42
3066.06
3065.62
3065.11
3064.51
3063.83
3063.05
3062.17
3061.18
3060.08
3058.87
3057.54
3056.08
3054.5
3052.77
3050.91
3048.91
3046.75
3044.45
3041.98
3039.36
3036.57
3033.62
3030.49
3027.19
3023.71
3020.05
3016.21
3012.19
3007.98
3003.59
2999.01
2994.24
2989.29
2984.14
2978.81
2973.3
2967.6
2961.71
2955.65
2949.41
2943
2936.41
2929.66
2922.75
2915.68
2908.46
2901.09
2893.57
2885.93
2878.16
2870.26
2862.25
2854.14
2845.93
2837.63
2829.25
2820.79
2812.28
2803.7
2795.09
2786.44
2777.76
2769.07
2760.37
2751.67
2742.99
2734.34
2725.72
2717.14
2708.62
2700.16
2691.77
2683.47
2675.26
2667.15
2659.15
2651.28
2643.52
2635.91
2628.44
2621.12
2613.96
2606.96
2600.13
2593.47
2587
2580.71
2574.61
2568.71
2563
2557.49
2552.19
2547.08
2542.19
2537.5
2533.02
2528.75
2524.69
2520.84
2517.2
2513.77
2510.55
2507.54
2504.73
2502.14
2499.74
2497.56
2495.57
2493.79
2492.22
2490.84
2489.66
2488.68
2487.9
2487.32
2486.92
2486.71
3064.83
3064.87
3064.9
3064.93
3064.95
3064.98
3065.02
3065.07
3065.15
3065.24
3065.35
3065.48
3065.62
3065.78
3065.95
3066.13
3066.33
3066.53
3066.73
3066.94
3067.14
3067.34
3067.53
3067.7
3067.85
3067.97
3068.07
3068.13
3068.14
3068.11
3068.03
3067.89
3067.69
3067.42
3067.08
3066.65
3066.14
3065.54
3064.85
3064.05
3063.15
3062.13
3061
3059.75
3058.37
3056.85
3055.2
3053.41
3051.47
3049.37
3047.13
3044.72
3042.14
3039.4
3036.49
3033.4
3030.14
3026.69
3023.05
3019.24
3015.23
3011.03
3006.64
3002.06
2997.28
2992.31
2987.15
2981.79
2976.24
2970.5
2964.57
2958.46
2952.16
2945.68
2939.03
2932.2
2925.21
2918.05
2910.73
2903.26
2895.64
2887.89
2880
2871.98
2863.85
2855.61
2847.26
2838.82
2830.3
2821.7
2813.03
2804.31
2795.53
2786.73
2777.89
2769.04
2760.17
2751.32
2742.47
2733.65
2724.87
2716.13
2707.45
2698.83
2690.28
2681.83
2673.46
2665.21
2657.07
2649.05
2641.16
2633.41
2625.82
2618.37
2611.1
2603.99
2597.05
2590.3
2583.73
2577.36
2571.18
2565.2
2559.43
2553.86
2548.49
2543.34
2538.4
2533.67
2529.15
2524.85
2520.77
2516.89
2513.23
2509.79
2506.55
2503.53
2500.72
2498.11
2495.72
2493.53
2491.54
2489.76
2488.18
2486.8
2485.62
2484.65
2483.87
2483.29
2482.89
2482.68
3064.34
3064.39
3064.44
3064.48
3064.51
3064.54
3064.6
3064.67
3064.77
3064.89
3065.03
3065.19
3065.37
3065.57
3065.8
3066.04
3066.29
3066.56
3066.84
3067.12
3067.41
3067.69
3067.96
3068.22
3068.46
3068.68
3068.87
3069.03
3069.14
3069.21
3069.23
3069.19
3069.09
3068.92
3068.67
3068.35
3067.94
3067.43
3066.83
3066.13
3065.32
3064.4
3063.35
3062.19
3060.89
3059.46
3057.88
3056.17
3054.3
3052.27
3050.09
3047.75
3045.23
3042.54
3039.68
3036.63
3033.41
3029.99
3026.39
3022.59
3018.6
3014.41
3010.03
3005.44
3000.66
2995.67
2990.49
2985.1
2979.52
2973.74
2967.76
2961.59
2955.23
2948.68
2941.95
2935.03
2927.95
2920.69
2913.27
2905.69
2897.95
2890.07
2882.06
2873.91
2865.63
2857.24
2848.75
2840.15
2831.47
2822.71
2813.87
2804.98
2796.03
2787.05
2778.04
2769
2759.96
2750.92
2741.9
2732.89
2723.93
2715
2706.14
2697.34
2688.62
2679.99
2671.46
2663.04
2654.74
2646.56
2638.52
2630.63
2622.89
2615.31
2607.9
2600.67
2593.62
2586.76
2580.1
2573.63
2567.36
2561.3
2555.45
2549.81
2544.39
2539.18
2534.19
2529.42
2524.86
2520.53
2516.41
2512.52
2508.84
2505.37
2502.13
2499.09
2496.27
2493.66
2491.26
2489.07
2487.09
2485.31
2483.73
2482.35
2481.18
2480.2
2479.42
2478.84
2478.45
2478.24
3063.75
3063.82
3063.88
3063.94
3063.98
3064.02
3064.09
3064.18
3064.3
3064.45
3064.62
3064.82
3065.05
3065.31
3065.59
3065.89
3066.21
3066.56
3066.92
3067.28
3067.66
3068.03
3068.4
3068.76
3069.11
3069.43
3069.73
3069.99
3070.22
3070.4
3070.53
3070.6
3070.61
3070.55
3070.41
3070.2
3069.89
3069.5
3069
3068.41
3067.7
3066.87
3065.93
3064.86
3063.65
3062.31
3060.83
3059.19
3057.41
3055.46
3053.35
3051.07
3048.62
3046
3043.19
3040.19
3037.01
3033.63
3030.06
3026.29
3022.32
3018.14
3013.76
3009.18
3004.39
2999.38
2994.18
2988.76
2983.14
2977.31
2971.28
2965.04
2958.61
2951.99
2945.17
2938.17
2930.98
2923.61
2916.08
2908.37
2900.51
2892.5
2884.34
2876.04
2867.61
2859.06
2850.4
2841.63
2832.77
2823.83
2814.81
2805.73
2796.59
2787.42
2778.2
2768.97
2759.73
2750.49
2741.26
2732.05
2722.88
2713.76
2704.7
2695.7
2686.79
2677.96
2669.24
2660.64
2652.15
2643.8
2635.59
2627.54
2619.64
2611.92
2604.37
2597
2589.83
2582.85
2576.07
2569.5
2563.14
2556.99
2551.06
2545.34
2539.85
2534.59
2529.55
2524.73
2520.13
2515.77
2511.62
2507.7
2504
2500.52
2497.27
2494.22
2491.4
2488.78
2486.38
2484.19
2482.21
2480.43
2478.85
2477.48
2476.31
2475.34
2474.56
2473.98
2473.59
2473.38
3063.04
3063.12
3063.21
3063.29
3063.34
3063.4
3063.48
3063.59
3063.73
3063.91
3064.12
3064.36
3064.64
3064.95
3065.3
3065.67
3066.07
3066.5
3066.95
3067.41
3067.88
3068.36
3068.84
3069.32
3069.78
3070.22
3070.63
3071.02
3071.37
3071.67
3071.92
3072.11
3072.25
3072.31
3072.29
3072.2
3072.01
3071.74
3071.36
3070.88
3070.28
3069.57
3068.73
3067.77
3066.66
3065.42
3064.04
3062.5
3060.8
3058.94
3056.91
3054.71
3052.33
3049.77
3047.02
3044.09
3040.95
3037.62
3034.08
3030.34
3026.4
3022.24
3017.86
3013.28
3008.48
3003.46
2998.23
2992.78
2987.11
2981.24
2975.14
2968.85
2962.34
2955.63
2948.72
2941.61
2934.31
2926.83
2919.17
2911.33
2903.33
2895.16
2886.85
2878.39
2869.79
2861.06
2852.22
2843.27
2834.21
2825.07
2815.85
2806.56
2797.22
2787.82
2778.39
2768.94
2759.48
2750.01
2740.56
2731.13
2721.74
2712.39
2703.11
2693.89
2684.76
2675.73
2666.8
2657.99
2649.31
2640.76
2632.37
2624.13
2616.07
2608.18
2600.48
2592.96
2585.65
2578.54
2571.64
2564.95
2558.49
2552.25
2546.23
2540.44
2534.88
2529.55
2524.46
2519.59
2514.96
2510.56
2506.38
2502.44
2498.72
2495.23
2491.96
2488.91
2486.08
2483.47
2481.07
2478.88
2476.9
2475.13
2473.56
2472.19
2471.02
2470.05
2469.28
2468.71
2468.32
2468.1
3062.17
3062.27
3062.39
3062.5
3062.58
3062.65
3062.74
3062.87
3063.04
3063.25
3063.5
3063.79
3064.13
3064.5
3064.91
3065.37
3065.86
3066.38
3066.92
3067.49
3068.08
3068.68
3069.28
3069.87
3070.46
3071.03
3071.58
3072.1
3072.58
3073.02
3073.41
3073.74
3074
3074.2
3074.32
3074.35
3074.3
3074.15
3073.9
3073.54
3073.07
3072.48
3071.76
3070.91
3069.93
3068.79
3067.51
3066.08
3064.48
3062.71
3060.78
3058.66
3056.36
3053.88
3051.2
3048.32
3045.24
3041.96
3038.47
3034.76
3030.84
3026.7
3022.34
3017.75
3012.94
3007.91
3002.65
2997.17
2991.46
2985.53
2979.37
2973
2966.41
2959.61
2952.6
2945.38
2937.97
2930.36
2922.56
2914.57
2906.42
2898.09
2889.6
2880.96
2872.18
2863.26
2854.22
2845.06
2835.8
2826.44
2817
2807.48
2797.9
2788.28
2778.61
2768.92
2759.21
2749.5
2739.8
2730.13
2720.49
2710.9
2701.37
2691.91
2682.55
2673.28
2664.12
2655.08
2646.18
2637.43
2628.83
2620.4
2612.15
2604.08
2596.2
2588.53
2581.07
2573.82
2566.79
2559.98
2553.4
2547.06
2540.95
2535.08
2529.45
2524.06
2518.9
2513.99
2509.32
2504.88
2500.68
2496.72
2492.98
2489.48
2486.2
2483.15
2480.32
2477.71
2475.32
2473.13
2471.16
2469.39
2467.83
2466.47
2465.31
2464.35
2463.59
2463.02
2462.63
2462.41
3061.11
3061.23
3061.39
3061.54
3061.66
3061.76
3061.87
3062.02
3062.21
3062.46
3062.75
3063.09
3063.48
3063.93
3064.42
3064.96
3065.54
3066.17
3066.83
3067.52
3068.23
3068.96
3069.7
3070.43
3071.16
3071.88
3072.57
3073.24
3073.86
3074.45
3074.98
3075.46
3075.87
3076.22
3076.48
3076.66
3076.75
3076.74
3076.63
3076.41
3076.07
3075.61
3075.02
3074.3
3073.44
3072.43
3071.26
3069.94
3068.45
3066.79
3064.95
3062.93
3060.72
3058.32
3055.72
3052.91
3049.9
3046.67
3043.22
3039.56
3035.66
3031.54
3027.2
3022.61
3017.8
3012.75
3007.47
3001.95
2996.19
2990.2
2983.98
2977.53
2970.85
2963.95
2956.83
2949.5
2941.95
2934.2
2926.25
2918.11
2909.79
2901.28
2892.61
2883.78
2874.8
2865.67
2856.41
2847.03
2837.53
2827.94
2818.26
2808.49
2798.66
2788.78
2778.85
2768.9
2758.92
2748.95
2738.98
2729.04
2719.13
2709.27
2699.47
2689.76
2680.13
2670.6
2661.19
2651.91
2642.77
2633.78
2624.96
2616.31
2607.85
2599.59
2591.53
2583.69
2576.06
2568.66
2561.49
2554.55
2547.86
2541.41
2535.2
2529.25
2523.54
2518.08
2512.87
2507.91
2503.2
2498.73
2494.5
2490.52
2486.77
2483.26
2479.98
2476.93
2474.11
2471.5
2469.12
2466.94
2464.98
2463.23
2461.68
2460.33
2459.18
2458.22
2457.47
2456.9
2456.52
2456.3
3059.82
3059.96
3060.17
3060.39
3060.56
3060.7
3060.83
3061
3061.23
3061.51
3061.84
3062.24
3062.69
3063.21
3063.79
3064.43
3065.12
3065.86
3066.65
3067.47
3068.33
3069.2
3070.09
3070.98
3071.86
3072.74
3073.59
3074.42
3075.21
3075.96
3076.65
3077.29
3077.86
3078.36
3078.78
3079.12
3079.36
3079.51
3079.55
3079.47
3079.28
3078.97
3078.52
3077.94
3077.21
3076.33
3075.29
3074.09
3072.72
3071.18
3069.45
3067.53
3065.42
3063.11
3060.59
3057.87
3054.92
3051.75
3048.36
3044.74
3040.88
3036.79
3032.46
3027.88
3023.06
3018
3012.68
3007.13
3001.32
2995.27
2988.98
2982.45
2975.67
2968.67
2961.43
2953.97
2946.28
2938.38
2930.27
2921.96
2913.45
2904.76
2895.89
2886.85
2877.64
2868.29
2858.8
2849.17
2839.43
2829.58
2819.63
2809.6
2799.5
2789.33
2779.13
2768.88
2758.62
2748.35
2738.09
2727.86
2717.65
2707.5
2697.42
2687.41
2677.49
2667.69
2658
2648.45
2639.04
2629.8
2620.73
2611.86
2603.18
2594.7
2586.45
2578.41
2570.61
2563.04
2555.72
2548.65
2541.83
2535.26
2528.96
2522.91
2517.13
2511.6
2506.34
2501.33
2496.58
2492.08
2487.83
2483.84
2480.08
2476.57
2473.29
2470.25
2467.43
2464.84
2462.46
2460.3
2458.36
2456.62
2455.08
2453.75
2452.61
2451.67
2450.93
2450.37
2449.99
2449.77
3058.25
3058.41
3058.69
3058.99
3059.24
3059.44
3059.61
3059.81
3060.06
3060.37
3060.75
3061.2
3061.73
3062.33
3063
3063.75
3064.56
3065.44
3066.37
3067.34
3068.35
3069.39
3070.44
3071.51
3072.57
3073.62
3074.65
3075.65
3076.62
3077.54
3078.41
3079.22
3079.97
3080.64
3081.23
3081.73
3082.14
3082.45
3082.66
3082.74
3082.71
3082.55
3082.25
3081.82
3081.24
3080.5
3079.6
3078.54
3077.3
3075.88
3074.27
3072.47
3070.47
3068.26
3065.84
3063.19
3060.33
3057.23
3053.9
3050.33
3046.51
3042.45
3038.13
3033.57
3028.74
3023.66
3018.33
3012.73
3006.87
3000.76
2994.39
2987.77
2980.89
2973.77
2966.41
2958.81
2950.97
2942.91
2934.63
2926.13
2917.43
2908.53
2899.44
2890.18
2880.74
2871.14
2861.39
2851.51
2841.49
2831.37
2821.13
2810.81
2800.41
2789.95
2779.43
2768.88
2758.3
2747.72
2737.14
2726.58
2716.06
2705.59
2695.19
2684.86
2674.64
2664.52
2654.54
2644.69
2635
2625.48
2616.14
2607.01
2598.09
2589.39
2580.92
2572.68
2564.69
2556.94
2549.46
2542.24
2535.29
2528.61
2522.2
2516.06
2510.19
2504.6
2499.28
2494.23
2489.44
2484.92
2480.65
2476.65
2472.89
2469.38
2466.11
2463.08
2460.27
2457.7
2455.35
2453.21
2451.28
2449.57
2448.05
2446.74
2445.62
2444.69
2443.96
2443.41
2443.04
2442.82
3056.31
3056.51
3056.89
3057.3
3057.66
3057.94
3058.17
3058.41
3058.68
3059.03
3059.45
3059.96
3060.55
3061.24
3062.02
3062.89
3063.84
3064.87
3065.96
3067.11
3068.29
3069.52
3070.76
3072.01
3073.26
3074.5
3075.73
3076.92
3078.08
3079.2
3080.26
3081.26
3082.19
3083.04
3083.82
3084.5
3085.09
3085.58
3085.95
3086.21
3086.35
3086.36
3086.23
3085.95
3085.53
3084.95
3084.2
3083.28
3082.19
3080.9
3079.43
3077.75
3075.87
3073.77
3071.45
3068.91
3066.13
3063.11
3059.85
3056.33
3052.56
3048.54
3044.25
3039.69
3034.87
3029.77
3024.41
3018.77
3012.86
3006.69
3000.22
2993.51
2986.53
2979.29
2971.79
2964.04
2956.04
2947.81
2939.34
2930.65
2921.73
2912.61
2903.29
2893.78
2884.09
2874.23
2864.21
2854.04
2843.74
2833.31
2822.77
2812.14
2801.42
2790.63
2779.78
2768.89
2757.97
2747.05
2736.12
2725.22
2714.35
2703.53
2692.78
2682.11
2671.55
2661.1
2650.78
2640.62
2630.61
2620.78
2611.14
2601.75
2592.57
2583.62
2574.91
2566.46
2558.26
2550.33
2542.68
2535.3
2528.21
2521.41
2514.89
2508.66
2502.71
2497.05
2491.68
2486.58
2481.77
2477.22
2472.95
2468.93
2465.18
2461.68
2458.43
2455.41
2452.63
2450.09
2447.76
2445.65
2443.76
2442.07
2440.58
2439.29
2438.19
2437.29
2436.57
2436.04
2435.67
2435.45
3053.86
3054.14
3054.62
3055.18
3055.68
3056.11
3056.46
3056.77
3057.08
3057.44
3057.9
3058.45
3059.12
3059.91
3060.81
3061.82
3062.94
3064.14
3065.41
3066.75
3068.14
3069.57
3071.02
3072.48
3073.95
3075.4
3076.84
3078.24
3079.61
3080.93
3082.19
3083.39
3084.52
3085.58
3086.55
3087.43
3088.21
3088.88
3089.44
3089.89
3090.21
3090.39
3090.44
3090.34
3090.09
3089.67
3089.09
3088.33
3087.39
3086.26
3084.93
3083.39
3081.63
3079.66
3077.46
3075.02
3072.34
3069.41
3066.22
3062.77
3059.06
3055.07
3050.81
3046.27
3041.45
3036.34
3030.95
3025.27
3019.31
3013.06
3006.52
2999.7
2992.61
2985.23
2977.59
2969.68
2961.52
2953.09
2944.42
2935.52
2926.38
2917.02
2907.45
2897.68
2887.71
2877.57
2867.26
2856.78
2846.17
2835.42
2824.55
2813.58
2802.51
2791.37
2780.17
2768.92
2757.63
2746.33
2735.03
2723.75
2712.5
2701.31
2690.18
2679.14
2668.21
2657.4
2646.73
2636.21
2625.87
2615.71
2605.75
2596.06
2586.6
2577.38
2568.41
2559.72
2551.3
2543.17
2535.34
2527.8
2520.56
2513.63
2507
2500.67
2494.65
2488.93
2483.5
2478.37
2473.53
2468.97
2464.69
2460.68
2456.94
2453.46
2450.23
2447.24
2444.5
2441.98
2439.69
2437.62
2435.76
2434.11
2432.66
2431.4
2430.33
2429.45
2428.76
2428.23
2427.87
2427.66
3050.85
3051.28
3051.75
3052.42
3053.13
3053.85
3054.45
3054.87
3055.22
3055.58
3056.05
3056.65
3057.4
3058.29
3059.34
3060.52
3061.81
3063.22
3064.71
3066.27
3067.89
3069.55
3071.23
3072.92
3074.62
3076.3
3077.97
3079.6
3081.19
3082.73
3084.21
3085.63
3086.98
3088.24
3089.42
3090.51
3091.49
3092.36
3093.13
3093.77
3094.28
3094.66
3094.9
3094.98
3094.91
3094.68
3094.27
3093.69
3092.92
3091.94
3090.77
3089.38
3087.77
3085.94
3083.86
3081.54
3078.97
3076.14
3073.04
3069.66
3066.01
3062.07
3057.85
3053.33
3048.51
3043.39
3037.98
3032.26
3026.23
3019.91
3013.28
3006.36
2999.14
2991.63
2983.83
2975.76
2967.4
2958.78
2949.9
2940.76
2931.39
2921.77
2911.93
2901.88
2891.62
2881.18
2870.55
2859.75
2848.8
2837.71
2826.49
2815.15
2803.71
2792.19
2780.6
2768.96
2757.28
2745.58
2733.88
2722.19
2710.53
2698.93
2687.39
2675.95
2664.61
2653.41
2642.35
2631.45
2620.74
2610.24
2599.96
2589.92
2580.13
2570.61
2561.37
2552.43
2543.78
2535.43
2527.4
2519.69
2512.3
2505.24
2498.49
2492.07
2485.97
2480.19
2474.72
2469.56
2464.7
2460.13
2455.86
2451.86
2448.14
2444.69
2441.5
2438.55
2435.85
2433.38
2431.14
2429.12
2427.31
2425.7
2424.29
2423.07
2422.03
2421.19
2420.51
2420.01
2419.66
2419.45
3047.43
3047.92
3048.35
3049.11
3050.18
3051.33
3052.22
3052.78
3053.1
3053.4
3053.84
3054.46
3055.29
3056.33
3057.54
3058.92
3060.44
3062.09
3063.83
3065.64
3067.52
3069.44
3071.38
3073.33
3075.28
3077.22
3079.13
3081
3082.84
3084.61
3086.33
3087.98
3089.55
3091.04
3092.44
3093.74
3094.94
3096.03
3097
3097.85
3098.57
3099.15
3099.59
3099.88
3100.01
3099.97
3099.76
3099.36
3098.77
3097.97
3096.97
3095.75
3094.3
3092.61
3090.68
3088.49
3086.04
3083.31
3080.31
3077.02
3073.44
3069.56
3065.38
3060.88
3056.07
3050.95
3045.51
3039.75
3033.67
3027.26
3020.54
3013.51
3006.16
2998.5
2990.54
2982.28
2973.73
2964.9
2955.79
2946.41
2936.77
2926.88
2916.76
2906.4
2895.83
2885.06
2874.1
2862.95
2851.64
2840.18
2828.58
2816.86
2805.02
2793.1
2781.1
2769.03
2756.93
2744.79
2732.65
2720.52
2708.43
2696.38
2684.4
2672.52
2660.74
2649.11
2637.62
2626.32
2615.21
2604.31
2593.65
2583.26
2573.14
2563.3
2553.76
2544.54
2535.64
2527.06
2518.83
2510.94
2503.4
2496.19
2489.34
2482.82
2476.65
2470.81
2465.3
2460.12
2455.25
2450.69
2446.43
2442.46
2438.77
2435.36
2432.22
2429.33
2426.68
2424.27
2422.09
2420.13
2418.37
2416.82
2415.46
2414.29
2413.3
2412.49
2411.85
2411.37
2411.04
2410.82
3043.57
3043.94
3044.58
3045.59
3047.24
3048.86
3049.99
3050.55
3050.7
3050.81
3051.14
3051.78
3052.72
3053.93
3055.37
3057
3058.8
3060.73
3062.76
3064.87
3067.04
3069.25
3071.48
3073.71
3075.94
3078.14
3080.32
3082.46
3084.55
3086.58
3088.54
3090.43
3092.24
3093.97
3095.6
3097.13
3098.56
3099.87
3101.07
3102.14
3103.08
3103.88
3104.53
3105.04
3105.37
3105.54
3105.53
3105.34
3104.94
3104.35
3103.53
3102.49
3101.21
3099.69
3097.91
3095.87
3093.56
3090.96
3088.06
3084.87
3081.37
3077.56
3073.42
3068.96
3064.16
3059.04
3053.57
3047.77
3041.63
3035.14
3028.33
3021.17
3013.68
3005.87
2997.73
2989.28
2980.52
2971.46
2962.1
2952.46
2942.55
2932.37
2921.94
2911.26
2900.36
2889.24
2877.92
2866.4
2854.71
2842.85
2830.85
2818.71
2806.45
2794.09
2781.65
2769.13
2756.57
2743.97
2731.36
2718.76
2706.18
2693.65
2681.2
2668.83
2656.59
2644.48
2632.53
2620.78
2609.23
2597.92
2586.85
2576.07
2565.57
2555.38
2545.53
2536.01
2526.84
2518.02
2509.58
2501.5
2493.79
2486.45
2479.48
2472.88
2466.64
2460.75
2455.21
2450.01
2445.14
2440.6
2436.37
2432.44
2428.8
2425.45
2422.37
2419.54
2416.97
2414.64
2412.53
2410.64
2408.96
2407.48
2406.18
2405.07
2404.13
2403.36
2402.76
2402.31
2401.99
2401.78
3038.48
3038.8
3039.81
3041.51
3043.57
3045.78
3047.27
3047.79
3047.62
3047.46
3047.69
3048.4
3049.53
3051.01
3052.75
3054.72
3056.86
3059.13
3061.51
3063.95
3066.45
3068.98
3071.53
3074.07
3076.59
3079.09
3081.56
3083.97
3086.33
3088.62
3090.85
3093
3095.06
3097.03
3098.9
3100.68
3102.34
3103.89
3105.32
3106.63
3107.8
3108.83
3109.71
3110.44
3111.01
3111.4
3111.61
3111.64
3111.46
3111.07
3110.46
3109.61
3108.53
3107.19
3105.59
3103.71
3101.54
3099.08
3096.31
3093.23
3089.82
3086.08
3082.01
3077.58
3072.81
3067.68
3062.2
3056.35
3050.15
3043.58
3036.66
3029.38
3021.74
3013.76
3005.44
2996.78
2987.79
2978.49
2968.87
2958.95
2948.74
2938.25
2927.49
2916.47
2905.21
2893.72
2882.02
2870.11
2858.01
2845.73
2833.3
2820.72
2808.01
2795.18
2782.27
2769.27
2756.22
2743.12
2730.01
2716.89
2703.8
2690.75
2677.78
2664.89
2652.13
2639.51
2627.06
2614.81
2602.79
2591.02
2579.54
2568.3
2557.39
2546.82
2536.62
2526.78
2517.32
2508.26
2499.58
2491.31
2483.44
2475.96
2468.88
2462.2
2455.89
2449.96
2444.4
2439.2
2434.35
2429.84
2425.65
2421.78
2418.21
2414.93
2411.93
2409.19
2406.71
2404.46
2402.45
2400.65
2399.06
2397.66
2396.44
2395.4
2394.53
2393.81
2393.25
2392.83
2392.54
2392.33
3030.56
3030.97
3032.18
3034.03
3036.45
3039.82
3042.27
3043.34
3043.03
3042.55
3042.93
3043.99
3045.54
3047.46
3049.65
3052.05
3054.62
3057.31
3060.08
3062.91
3065.78
3068.66
3071.55
3074.42
3077.27
3080.08
3082.84
3085.55
3088.19
3090.76
3093.26
3095.67
3098
3100.23
3102.36
3104.38
3106.29
3108.09
3109.77
3111.32
3112.73
3114.01
3115.13
3116.1
3116.91
3117.54
3117.99
3118.25
3118.3
3118.14
3117.75
3117.13
3116.25
3115.12
3113.7
3112.01
3110.01
3107.7
3105.08
3102.12
3098.82
3095.17
3091.16
3086.78
3082.04
3076.91
3071.41
3065.52
3059.25
3052.6
3045.57
3038.15
3030.37
3022.21
3013.68
3004.81
2995.58
2986.01
2976.11
2965.89
2955.36
2944.54
2933.43
2922.05
2910.41
2898.53
2886.41
2874.08
2861.55
2848.83
2835.94
2822.89