/*--------------------------------*- C++ -*----------------------------------*\
| =========                 |                                                 |
| \\      /  F ield         | OpenFOAM: The Open Source CFD Toolbox           |
|  \\    /   O peration     | Version:  v2006                                 |
|   \\  /    A nd           | Website:  www.openfoam.com                      |
|    \\/     M anipulation  |                                                 |
\*---------------------------------------------------------------------------*/
FoamFile
{
    version     2.0;
    format      ascii;
    class       volScalarField;
    location    "7.25";
    object      r;
}
// * * * * * * * * * * * * * * * * * * * * * * * * * * * * * * * * * * * * * //

dimensions      [1 2 0 0 0 0 0];


internalField   nonuniform List<scalar> 
350
(
-1.29329e-137
7.62256e-136
-2.31067e-134
7.05939e-133
-2.14063e-131
6.44481e-130
-1.92626e-128
5.71487e-127
-1.68278e-125
4.91729e-124
-1.42575e-122
4.10128e-121
-1.1703e-119
3.31217e-118
-9.29614e-117
2.58703e-115
-7.13744e-114
1.95189e-112
-5.29014e-111
1.42071e-109
-3.77999e-108
9.96201e-107
-2.60011e-105
6.71954e-104
-1.71911e-102
4.35305e-101
-1.09073e-99
2.7038e-98
-6.62928e-97
1.60727e-95
-3.85244e-94
9.12624e-93
-2.1362e-91
4.93927e-90
-1.12779e-88
2.5422e-87
-5.65544e-86
1.24124e-84
-2.68677e-83
5.73365e-82
-1.20585e-80
2.49834e-79
-5.09704e-78
1.02355e-76
-2.02219e-75
3.92872e-74
-7.50195e-73
1.40721e-71
-2.59153e-70
4.68281e-69
-8.29722e-68
1.44058e-66
-2.44911e-65
4.07388e-64
-6.62483e-63
1.05225e-61
-1.6309e-60
2.464e-59
-3.6247e-58
5.18541e-57
-7.2042e-56
9.70582e-55
-1.26591e-53
1.59551e-52
-1.93917e-51
2.2674e-50
-2.54368e-49
2.72932e-48
-2.79054e-47
2.70665e-46
-2.47685e-45
2.12363e-44
-1.69046e-43
1.23362e-42
-8.099e-42
4.63635e-41
-2.17496e-40
7.01871e-40
-1.58861e-40
-1.71737e-38
1.31442e-37
-4.58253e-37
-5.201e-37
1.52087e-35
-6.85481e-35
-7.11953e-35
2.1627e-33
-6.40877e-33
-3.81626e-32
2.84696e-31
4.34062e-31
-8.83916e-30
-2.48281e-30
2.59408e-28
7.50743e-29
-7.7237e-27
-1.13666e-26
2.16985e-25
8.68293e-25
-4.23023e-24
-4.27647e-23
-4.40892e-23
1.17098e-21
7.7882e-21
8.54276e-21
-2.001e-19
-1.72499e-18
-6.78788e-18
6.39538e-19
2.30708e-16
2.14558e-15
1.36076e-14
7.0567e-14
3.18831e-13
1.29552e-12
4.82528e-12
1.66855e-11
5.4062e-11
1.65277e-10
4.79401e-10
1.32525e-09
3.50452e-09
8.89336e-09
2.17166e-08
5.11489e-08
1.16441e-07
2.56692e-07
5.48878e-07
1.14012e-06
2.30372e-06
4.53373e-06
8.70012e-06
1.62966e-05
2.98261e-05
5.33847e-05
9.35244e-05
0.000160496
0.000269995
0.000445557
0.000721756
0.00114838
0.00179575
0.00276129
0.00417745
0.00622106
0.00912387
0.0131842
0.0187794
0.026378
0.036552
0.0499874
0.0674917
0.0899991
0.11857
0.154387
0.19874
0.253011
0.318642
0.397111
0.489883
0.59837
0.723881
0.867568
1.03038
1.21301
1.41586
1.639
1.88213
2.14458
2.42532
2.72293
3.03566
3.36146
3.698
4.04274
4.393
4.74603
5.09902
5.44925
5.7941
6.13109
6.45797
6.77274
7.07368
7.35936
7.62863
7.88069
8.11497
8.33121
8.52935
8.70956
8.87214
9.01753
9.14623
9.25878
9.35568
9.43741
9.50433
9.55668
9.59456
9.6179
9.62647
9.61986
9.59751
9.55874
9.50275
9.42871
9.33573
9.22301
9.08982
8.93557
8.7599
8.56267
8.34407
8.10457
7.84501
7.56657
7.27077
6.95947
6.63479
6.29913
5.95506
5.60532
5.2527
4.90002
4.55002
4.20535
3.86848
3.54168
3.22694
2.92599
2.64025
2.37083
2.11852
1.88383
1.66696
1.46786
1.28625
1.12163
0.973339
0.840579
0.722439
0.617934
0.526031
0.445678
0.375824
0.315438
0.263526
0.219143
0.181401
0.149478
0.122617
0.100134
0.0814112
0.065898
0.0531084
0.0426161
0.0340502
0.0270905
0.0214626
0.016933
0.0133041
0.0104101
0.00811257
0.00629669
0.00486779
0.0037483
0.00287498
0.0021966
0.00167184
0.00126761
0.0009575
0.000720556
0.000540242
0.000403567
0.000300376
0.000222767
0.000164623
0.000121225
8.89562e-05
6.5051e-05
4.74067e-05
3.44308e-05
2.49225e-05
1.79798e-05
1.29283e-05
9.26557e-06
6.619e-06
4.71319e-06
3.34542e-06
2.36709e-06
1.66962e-06
1.17401e-06
8.22984e-07
5.75156e-07
4.00744e-07
2.78386e-07
1.92814e-07
1.33154e-07
9.16852e-08
6.29491e-08
4.30958e-08
2.94203e-08
2.00279e-08
1.35959e-08
9.20411e-09
6.21385e-09
4.18368e-09
2.8092e-09
1.88125e-09
1.25648e-09
8.36985e-10
5.56105e-10
3.68513e-10
2.43589e-10
1.60596e-10
1.05613e-10
6.92876e-11
4.53299e-11
2.95992e-11
1.92659e-11
1.25183e-11
8.11376e-12
5.23885e-12
3.3882e-12
2.17014e-12
1.40075e-12
8.93671e-13
5.69333e-13
3.69246e-13
2.25733e-13
1.52763e-13
8.93814e-14
5.97893e-14
3.91823e-14
1.8882e-14
2.02593e-14
3.91916e-15
9.29366e-15
2.57739e-15
5.14305e-16
5.25272e-15
-4.08076e-15
5.22409e-15
-2.9391e-15
1.28661e-15
1.3742e-15
-3.05806e-15
4.1616e-15
-4.11312e-15
)
;

boundaryField
{
    right
    {
        type            zeroGradient;
    }
    left
    {
        type            inletOutlet;
        inletValue      uniform 0;
        value           uniform 0;
    }
    top
    {
        type            zeroGradient;
    }
    bottom
    {
        type            zeroGradient;
    }
    empty
    {
        type            empty;
    }
}


// ************************************************************************* //
