/*--------------------------------*- C++ -*----------------------------------*\
| =========                 |                                                 |
| \\      /  F ield         | OpenFOAM: The Open Source CFD Toolbox           |
|  \\    /   O peration     | Version:  v2006                                 |
|   \\  /    A nd           | Website:  www.openfoam.com                      |
|    \\/     M anipulation  |                                                 |
\*---------------------------------------------------------------------------*/
FoamFile
{
    version     2.0;
    format      ascii;
    class       volScalarField;
    location    "3.6";
    object      p;
}
// * * * * * * * * * * * * * * * * * * * * * * * * * * * * * * * * * * * * * //

dimensions      [1 -1 -2 0 0 0 0];


internalField   nonuniform List<scalar> 
52500
(
27227.3
27227.9
27229.1
27231
27233.5
27236.5
27240.2
27244.5
27249.5
27255
27261.1
27267.8
27275.2
27283.1
27291.6
27300.8
27310.5
27320.7
27331.6
27343
27355
27367.6
27380.7
27394.3
27408.5
27423.3
27438.5
27454.3
27470.6
27487.4
27504.7
27522.5
27540.7
27559.5
27578.7
27598.3
27618.4
27638.9
27659.9
27681.3
27703.1
27725.2
27747.8
27770.7
27794
27817.7
27841.7
27866
27890.6
27915.6
27940.8
27966.3
27992.1
28018.1
28044.4
28071
28097.7
28124.7
28151.8
28179.2
28206.7
28234.3
28262.1
28290.1
28318.2
28346.3
28374.6
28403
28431.4
28459.9
28488.4
28516.9
28545.5
28574.1
28602.7
28631.2
28659.7
28688.2
28716.6
28745
28773.3
28801.5
28829.5
28857.5
28885.4
28913.1
28940.6
28968
28995.2
29022.3
29049.1
29075.8
29102.2
29128.5
29154.4
29180.2
29205.7
29230.9
29255.9
29280.6
29305
29329.1
29352.9
29376.3
29399.5
29422.4
29444.9
29467
29488.9
29510.3
29531.4
29552.2
29572.5
29592.5
29612.1
29631.4
29650.2
29668.6
29686.6
29704.3
29721.5
29738.3
29754.7
29770.7
29786.2
29801.3
29816
29830.3
29844.2
29857.6
29870.5
29883.1
29895.2
29906.9
29918.1
29928.9
29939.3
29949.3
29958.8
29967.8
29976.5
29984.7
29992.5
29999.9
30006.8
30013.3
30019.4
30025.1
30030.3
30035.2
30039.6
30043.7
30047.3
30050.6
30053.4
30055.9
30058
30059.7
30061
30062
30062.6
30062.8
30062.7
30062.2
30061.4
30060.3
30058.8
30057.1
30055
30052.5
30049.8
30046.8
30043.5
30040
30036.1
30032
30027.6
30023
30018.1
30013
30007.7
30002.2
29996.4
29990.5
29984.3
29978
29971.5
29964.8
29958
29951
29943.9
29936.6
29929.3
29921.8
29914.2
29906.5
29898.8
29890.9
29883
29875.1
29867.1
29859
29851
29842.9
29834.8
29826.7
29818.6
29810.6
29802.5
29794.5
29786.6
29778.7
29770.9
29763.1
29755.5
29747.9
29740.4
29733.1
29725.8
29718.7
29711.8
29705
29698.3
29691.8
29685.5
29679.3
29673.3
29667.5
29661.9
29656.5
29651.4
29646.4
29641.7
29637.2
29632.9
29628.9
29625.1
29621.6
29618.3
29615.3
29612.5
29610.1
29607.8
29605.9
29604.3
29602.9
29601.8
29601
29600.5
29600.3
29600.4
29600.7
29601.4
29602.4
29603.6
29605.1
29607
29609.1
29611.5
29614.2
29617.1
29620.4
29623.9
29627.7
29631.8
29636.1
29640.8
29645.6
29650.8
29656.1
29661.8
29667.6
29673.7
29680.1
29686.6
29693.4
29700.4
29707.5
29714.9
29722.5
29730.2
29738.1
29746.2
29754.4
29762.8
29771.3
29779.9
29788.6
29797.5
29806.4
29815.4
29824.5
29833.7
29843
29852.3
29861.6
29871
29880.4
29889.9
29899.3
29908.8
29918.3
29927.7
29937.1
29946.5
29955.9
29965.2
29974.4
29983.5
29992.6
30001.6
30010.4
30019.2
30027.8
30036.4
30044.8
30053
30061.1
30069.1
30076.9
30084.5
30091.9
30099.2
30106.3
30113.1
30119.8
30126.2
30132.5
30138.5
30144.3
30149.8
30155.1
30160.2
30165
30169.5
30173.8
30177.8
30181.6
30185.1
30188.3
30191.2
30193.8
30196.2
30198.3
30200
30201.5
30202.7
30203.6
30204.2
30204.5
26767.8
26768.4
26769.6
26771.5
26774
26777.1
26780.7
26785.1
26790
26795.5
26801.7
26808.4
26815.8
26823.7
26832.2
26841.4
26851.1
26861.4
26872.2
26883.7
26895.7
26908.3
26921.4
26935.1
26949.3
26964
26979.3
26995.1
27011.4
27028.2
27045.5
27063.3
27081.6
27100.4
27119.6
27139.3
27159.4
27180
27201
27222.4
27244.2
27266.4
27289
27311.9
27335.3
27358.9
27383
27407.3
27432
27457
27482.2
27507.8
27533.6
27559.7
27586
27612.6
27639.3
27666.3
27693.5
27720.9
27748.4
27776.1
27804
27832
27860.1
27888.3
27916.6
27945
27973.4
28001.9
28030.5
28059.1
28087.7
28116.3
28144.9
28173.5
28202
28230.6
28259
28287.4
28315.7
28343.9
28372
28400
28427.9
28455.6
28483.2
28510.7
28537.9
28565
28591.9
28618.5
28645
28671.3
28697.3
28723
28748.6
28773.8
28798.8
28823.5
28847.9
28872
28895.9
28919.4
28942.6
28965.4
28987.9
29010.1
29032
29053.5
29074.6
29095.3
29115.7
29135.7
29155.3
29174.6
29193.4
29211.9
29229.9
29247.5
29264.8
29281.6
29298
29313.9
29329.5
29344.6
29359.3
29373.6
29387.5
29400.9
29413.9
29426.4
29438.5
29450.2
29461.4
29472.3
29482.6
29492.6
29502.1
29511.1
29519.8
29528
29535.8
29543.1
29550.1
29556.6
29562.7
29568.3
29573.6
29578.4
29582.9
29586.9
29590.5
29593.8
29596.6
29599
29601.1
29602.8
29604.1
29605.1
29605.7
29605.9
29605.8
29605.3
29604.5
29603.3
29601.8
29600
29597.9
29595.5
29592.8
29589.7
29586.4
29582.8
29579
29574.8
29570.4
29565.8
29560.9
29555.8
29550.4
29544.9
29539.1
29533.1
29527
29520.6
29514.1
29507.4
29500.5
29493.5
29486.4
29479.1
29471.7
29464.2
29456.6
29448.9
29441.1
29433.3
29425.4
29417.4
29409.3
29401.3
29393.2
29385.1
29377
29368.8
29360.7
29352.7
29344.6
29336.6
29328.6
29320.7
29312.9
29305.1
29297.4
29289.8
29282.3
29274.9
29267.7
29260.6
29253.6
29246.7
29240
29233.5
29227.1
29220.9
29214.9
29209.1
29203.5
29198.1
29192.9
29187.9
29183.1
29178.6
29174.3
29170.3
29166.5
29163
29159.7
29156.7
29153.9
29151.4
29149.2
29147.3
29145.6
29144.2
29143.1
29142.3
29141.8
29141.6
29141.7
29142.1
29142.7
29143.7
29144.9
29146.4
29148.3
29150.4
29152.8
29155.5
29158.4
29161.7
29165.2
29169.1
29173.1
29177.5
29182.1
29187
29192.1
29197.5
29203.1
29209
29215.1
29221.4
29228
29234.8
29241.7
29248.9
29256.3
29263.9
29271.6
29279.5
29287.6
29295.9
29304.3
29312.8
29321.5
29330.2
29339.1
29348.1
29357.2
29366.4
29375.6
29384.9
29394.3
29403.6
29413.1
29422.5
29432
29441.5
29451
29460.5
29469.9
29479.4
29488.8
29498.1
29507.4
29516.7
29525.9
29535
29544
29552.9
29561.7
29570.3
29578.9
29587.3
29595.6
29603.7
29611.7
29619.5
29627.2
29634.6
29641.9
29649
29655.9
29662.6
29669.1
29675.3
29681.3
29687.1
29692.7
29698
29703.1
29707.9
29712.5
29716.8
29720.8
29724.6
29728.1
29731.3
29734.2
29736.9
29739.2
29741.3
29743.1
29744.6
29745.8
29746.7
29747.3
29747.6
26306.6
26307.3
26308.5
26310.3
26312.8
26315.9
26319.6
26323.9
26328.9
26334.4
26340.6
26347.3
26354.7
26362.7
26371.2
26380.4
26390.1
26400.4
26411.3
26422.8
26434.8
26447.4
26460.6
26474.3
26488.6
26503.3
26518.7
26534.5
26550.9
26567.7
26585.1
26602.9
26621.3
26640.1
26659.3
26679.1
26699.3
26719.9
26740.9
26762.4
26784.2
26806.5
26829.1
26852.2
26875.6
26899.3
26923.4
26947.8
26972.5
26997.6
27022.9
27048.5
27074.4
27100.5
27126.9
27153.6
27180.4
27207.5
27234.7
27262.2
27289.8
27317.5
27345.5
27373.5
27401.7
27430
27458.3
27486.8
27515.3
27543.9
27572.5
27601.2
27629.8
27658.5
27687.2
27715.8
27744.5
27773
27801.6
27830
27858.4
27886.7
27914.8
27942.9
27970.8
27998.6
28026.3
28053.8
28081.1
28108.2
28135.1
28161.9
28188.4
28214.7
28240.7
28266.6
28292.1
28317.4
28342.5
28367.2
28391.7
28415.8
28439.7
28463.2
28486.5
28509.4
28531.9
28554.2
28576
28597.5
28618.7
28639.5
28659.9
28679.9
28699.6
28718.8
28737.7
28756.1
28774.2
28791.9
28809.1
28825.9
28842.3
28858.3
28873.9
28889
28903.7
28918
28931.9
28945.3
28958.3
28970.8
28982.9
28994.6
29005.9
29016.7
29027
29037
29046.5
29055.5
29064.2
29072.4
29080.1
29087.5
29094.4
29100.9
29106.9
29112.6
29117.8
29122.7
29127.1
29131.1
29134.7
29137.9
29140.7
29143.1
29145.2
29146.9
29148.1
29149.1
29149.6
29149.8
29149.7
29149.2
29148.3
29147.1
29145.6
29143.8
29141.6
29139.2
29136.4
29133.3
29130
29126.4
29122.4
29118.3
29113.8
29109.2
29104.2
29099.1
29093.7
29088.1
29082.3
29076.3
29070
29063.6
29057.1
29050.3
29043.4
29036.4
29029.2
29021.9
29014.5
29006.9
28999.3
28991.5
28983.7
28975.8
28967.8
28959.8
28951.7
28943.6
28935.4
28927.3
28919.1
28911
28902.8
28894.7
28886.6
28878.5
28870.5
28862.5
28854.6
28846.8
28839.1
28831.5
28823.9
28816.5
28809.2
28802
28795
28788.1
28781.3
28774.8
28768.4
28762.1
28756.1
28750.2
28744.6
28739.1
28733.9
28728.9
28724.1
28719.6
28715.2
28711.2
28707.3
28703.8
28700.5
28697.4
28694.6
28692.1
28689.9
28687.9
28686.3
28684.9
28683.8
28683
28682.4
28682.2
28682.3
28682.6
28683.3
28684.2
28685.5
28687
28688.8
28690.9
28693.4
28696.1
28699
28702.3
28705.9
28709.7
28713.8
28718.2
28722.8
28727.7
28732.9
28738.3
28743.9
28749.9
28756
28762.4
28769
28775.8
28782.8
28790
28797.4
28805
28812.8
28820.8
28828.9
28837.2
28845.6
28854.2
28862.8
28871.6
28880.6
28889.6
28898.7
28907.9
28917.2
28926.5
28935.9
28945.3
28954.8
28964.3
28973.8
28983.4
28992.9
29002.5
29012
29021.5
29030.9
29040.3
29049.7
29059
29068.2
29077.4
29086.4
29095.4
29104.2
29112.9
29121.5
29130
29138.3
29146.5
29154.5
29162.4
29170.1
29177.6
29184.9
29192
29198.9
29205.7
29212.2
29218.5
29224.5
29230.3
29235.9
29241.3
29246.4
29251.2
29255.8
29260.1
29264.2
29268
29271.5
29274.7
29277.7
29280.3
29282.7
29284.8
29286.6
29288.1
29289.2
29290.1
29290.7
29291.1
25843.7
25844.4
25845.6
25847.5
25850
25853.1
25856.8
25861.1
25866.1
25871.6
25877.8
25884.6
25892
25900
25908.6
25917.8
25927.6
25937.9
25948.9
25960.4
25972.5
25985.1
25998.3
26012.1
26026.4
26041.2
26056.6
26072.5
26088.9
26105.9
26123.3
26141.2
26159.6
26178.5
26197.8
26217.7
26237.9
26258.6
26279.7
26301.3
26323.2
26345.6
26368.3
26391.4
26414.9
26438.7
26462.9
26487.4
26512.2
26537.4
26562.8
26588.5
26614.5
26640.7
26667.2
26693.9
26720.9
26748.1
26775.4
26803
26830.7
26858.5
26886.6
26914.7
26943
26971.4
26999.8
27028.4
27057
27085.7
27114.4
27143.2
27172
27200.7
27229.5
27258.3
27287
27315.7
27344.3
27372.8
27401.3
27429.7
27457.9
27486.1
27514.1
27542
27569.7
27597.3
27624.7
27651.9
27678.9
27705.7
27732.3
27758.7
27784.8
27810.7
27836.4
27861.7
27886.8
27911.7
27936.2
27960.4
27984.3
28007.9
28031.2
28054.2
28076.8
28099.1
28121
28142.5
28163.7
28184.6
28205
28225.1
28244.8
28264.1
28283
28301.5
28319.5
28337.2
28354.5
28371.3
28387.8
28403.8
28419.4
28434.5
28449.2
28463.5
28477.4
28490.8
28503.8
28516.4
28528.5
28540.1
28551.4
28562.2
28572.5
28582.5
28592
28601
28609.6
28617.8
28625.6
28632.9
28639.8
28646.2
28652.3
28657.9
28663.1
28667.9
28672.3
28676.3
28679.9
28683
28685.8
28688.2
28690.2
28691.8
28693.1
28694
28694.5
28694.6
28694.4
28693.9
28693
28691.7
28690.2
28688.3
28686.1
28683.6
28680.8
28677.6
28674.2
28670.5
28666.6
28662.4
28657.9
28653.1
28648.1
28642.9
28637.5
28631.8
28625.9
28619.8
28613.6
28607.1
28600.5
28593.7
28586.7
28579.6
28572.3
28565
28557.5
28549.8
28542.1
28534.3
28526.4
28518.4
28510.4
28502.3
28494.1
28486
28477.7
28469.5
28461.3
28453
28444.8
28436.6
28428.4
28420.3
28412.2
28404.2
28396.2
28388.3
28380.5
28372.8
28365.2
28357.7
28350.4
28343.1
28336
28329.1
28322.3
28315.6
28309.2
28302.9
28296.8
28290.8
28285.1
28279.6
28274.3
28269.3
28264.4
28259.8
28255.5
28251.3
28247.5
28243.9
28240.5
28237.4
28234.6
28232
28229.8
28227.8
28226.1
28224.7
28223.5
28222.7
28222.2
28221.9
28222
28222.3
28222.9
28223.9
28225.1
28226.7
28228.5
28230.6
28233
28235.7
28238.7
28242
28245.6
28249.4
28253.6
28258
28262.6
28267.6
28272.8
28278.2
28283.9
28289.8
28296
28302.4
28309.1
28315.9
28323
28330.3
28337.7
28345.4
28353.2
28361.2
28369.4
28377.7
28386.2
28394.9
28403.6
28412.5
28421.5
28430.6
28439.8
28449
28458.4
28467.8
28477.3
28486.8
28496.4
28506
28515.6
28525.2
28534.8
28544.4
28554
28563.6
28573.1
28582.6
28592
28601.4
28610.7
28619.9
28629
28638.1
28647
28655.8
28664.4
28673
28681.4
28689.6
28697.7
28705.6
28713.4
28721
28728.3
28735.5
28742.5
28749.3
28755.8
28762.2
28768.3
28774.2
28779.8
28785.2
28790.3
28795.2
28799.8
28804.2
28808.3
28812.1
28815.6
28818.9
28821.8
28824.5
28826.9
28829
28830.8
28832.3
28833.5
28834.4
28835
28835.3
25379.1
25379.8
25381
25382.9
25385.4
25388.5
25392.3
25396.6
25401.6
25407.2
25413.4
25420.2
25427.7
25435.7
25444.3
25453.6
25463.4
25473.8
25484.8
25496.4
25508.5
25521.3
25534.5
25548.4
25562.7
25577.7
25593.1
25609.1
25625.6
25642.6
25660.1
25678.2
25696.7
25715.6
25735.1
25755
25775.4
25796.2
25817.4
25839.1
25861.1
25883.6
25906.4
25929.7
25953.3
25977.2
26001.5
26026.1
26051.1
26076.4
26101.9
26127.8
26153.9
26180.2
26206.9
26233.7
26260.8
26288.1
26315.6
26343.3
26371.1
26399.1
26427.3
26455.6
26484
26512.5
26541.1
26569.8
26598.6
26627.4
26656.3
26685.2
26714.1
26743
26771.9
26800.8
26829.6
26858.4
26887.2
26915.8
26944.4
26972.9
27001.3
27029.6
27057.7
27085.7
27113.6
27141.3
27168.8
27196.1
27223.2
27250.2
27276.9
27303.3
27329.6
27355.6
27381.3
27406.8
27432
27456.9
27481.5
27505.8
27529.8
27553.5
27576.9
27599.9
27622.6
27644.9
27666.9
27688.5
27709.8
27730.7
27751.2
27771.3
27791
27810.4
27829.3
27847.8
27866
27883.7
27901
27917.9
27934.3
27950.3
27965.9
27981.1
27995.9
28010.2
28024
28037.5
28050.5
28063
28075.1
28086.8
28098
28108.8
28119.2
28129.1
28138.6
28147.6
28156.2
28164.3
28172.1
28179.4
28186.2
28192.7
28198.7
28204.3
28209.5
28214.2
28218.6
28222.5
28226
28229.2
28231.9
28234.2
28236.2
28237.8
28238.9
28239.8
28240.2
28240.3
28240
28239.4
28238.5
28237.2
28235.5
28233.6
28231.3
28228.7
28225.8
28222.6
28219.2
28215.4
28211.4
28207.1
28202.5
28197.7
28192.6
28187.3
28181.8
28176
28170.1
28163.9
28157.5
28151
28144.3
28137.4
28130.3
28123.1
28115.8
28108.3
28100.7
28093
28085.2
28077.3
28069.3
28061.2
28053.1
28044.9
28036.6
28028.4
28020.1
28011.7
28003.4
27995.1
27986.8
27978.5
27970.2
27962
27953.8
27945.7
27937.6
27929.6
27921.7
27913.9
27906.2
27898.6
27891.2
27883.9
27876.7
27869.6
27862.7
27856
27849.4
27843.1
27836.9
27830.9
27825.1
27819.5
27814.2
27809
27804.1
27799.4
27795
27790.8
27786.9
27783.2
27779.8
27776.7
27773.8
27771.2
27768.9
27766.8
27765.1
27763.6
27762.5
27761.6
27761
27760.8
27760.8
27761.1
27761.8
27762.7
27763.9
27765.5
27767.3
27769.4
27771.8
27774.6
27777.6
27780.9
27784.5
27788.4
27792.5
27797
27801.7
27806.6
27811.9
27817.4
27823.1
27829.1
27835.4
27841.8
27848.5
27855.5
27862.6
27870
27877.5
27885.2
27893.2
27901.3
27909.5
27917.9
27926.5
27935.2
27944.1
27953.1
27962.1
27971.3
27980.6
27990
27999.4
28008.9
28018.5
28028.1
28037.8
28047.5
28057.2
28066.9
28076.6
28086.3
28096
28105.7
28115.3
28124.9
28134.4
28143.9
28153.3
28162.6
28171.8
28181
28190
28198.9
28207.6
28216.2
28224.7
28233.1
28241.2
28249.2
28257.1
28264.7
28272.2
28279.4
28286.5
28293.3
28300
28306.4
28312.5
28318.5
28324.2
28329.6
28334.8
28339.7
28344.4
28348.8
28352.9
28356.8
28360.3
28363.6
28366.6
28369.3
28371.7
28373.9
28375.7
28377.2
28378.4
28379.3
28379.9
28380.2
24912.8
24913.5
24914.8
24916.7
24919.2
24922.3
24926.1
24930.5
24935.5
24941.1
24947.3
24954.2
24961.7
24969.8
24978.5
24987.8
24997.6
25008.1
25019.2
25030.8
25043.1
25055.9
25069.2
25083.2
25097.6
25112.6
25128.2
25144.3
25160.9
25178
25195.7
25213.8
25232.4
25251.5
25271.1
25291.1
25311.6
25332.6
25353.9
25375.7
25397.9
25420.5
25443.5
25466.9
25490.7
25514.8
25539.2
25564
25589.1
25614.5
25640.3
25666.3
25692.6
25719.1
25745.9
25772.9
25800.2
25827.6
25855.3
25883.2
25911.2
25939.4
25967.7
25996.1
26024.7
26053.4
26082.2
26111.1
26140
26169
26198
26227.1
26256.2
26285.2
26314.3
26343.4
26372.4
26401.3
26430.2
26459.1
26487.8
26516.5
26545
26573.5
26601.8
26629.9
26657.9
26685.7
26713.4
26740.8
26768.1
26795.2
26822
26848.6
26875
26901.1
26926.9
26952.5
26977.8
27002.9
27027.6
27052
27076.1
27099.9
27123.3
27146.5
27169.2
27191.7
27213.7
27235.4
27256.8
27277.7
27298.3
27318.5
27338.3
27357.7
27376.7
27395.3
27413.4
27431.2
27448.5
27465.4
27481.9
27498
27513.6
27528.8
27543.6
27557.9
27571.8
27585.2
27598.2
27610.8
27622.9
27634.6
27645.8
27656.6
27666.9
27676.8
27686.3
27695.3
27703.8
27712
27719.7
27726.9
27733.8
27740.2
27746.1
27751.7
27756.8
27761.5
27765.8
27769.7
27773.2
27776.3
27778.9
27781.2
27783.1
27784.6
27785.7
27786.5
27786.9
27786.9
27786.5
27785.8
27784.8
27783.4
27781.7
27779.7
27777.3
27774.6
27771.6
27768.4
27764.8
27760.9
27756.8
27752.4
27747.7
27742.8
27737.6
27732.2
27726.6
27720.8
27714.7
27708.4
27701.9
27695.3
27688.5
27681.5
27674.3
27667
27659.5
27651.9
27644.2
27636.4
27628.5
27620.5
27612.3
27604.2
27595.9
27587.6
27579.2
27570.8
27562.4
27554
27545.5
27537.1
27528.6
27520.2
27511.8
27503.5
27495.2
27486.9
27478.8
27470.7
27462.7
27454.8
27446.9
27439.2
27431.7
27424.2
27416.9
27409.8
27402.8
27395.9
27389.3
27382.8
27376.5
27370.4
27364.5
27358.9
27353.4
27348.2
27343.2
27338.4
27333.9
27329.6
27325.6
27321.9
27318.4
27315.2
27312.2
27309.6
27307.2
27305.1
27303.3
27301.8
27300.6
27299.7
27299.1
27298.8
27298.8
27299.1
27299.7
27300.6
27301.9
27303.4
27305.2
27307.4
27309.8
27312.6
27315.6
27318.9
27322.6
27326.5
27330.7
27335.1
27339.9
27344.9
27350.2
27355.8
27361.6
27367.7
27374
27380.5
27387.3
27394.3
27401.5
27409
27416.6
27424.4
27432.5
27440.7
27449
27457.5
27466.2
27475.1
27484
27493.1
27502.3
27511.6
27521
27530.5
27540.1
27549.7
27559.4
27569.1
27578.9
27588.7
27598.6
27608.4
27618.3
27628.1
27637.9
27647.7
27657.5
27667.2
27676.9
27686.5
27696
27705.4
27714.8
27724
27733.1
27742.1
27751
27759.8
27768.4
27776.8
27785.1
27793.2
27801.1
27808.9
27816.4
27823.8
27830.9
27837.9
27844.6
27851.1
27857.3
27863.3
27869.1
27874.6
27879.9
27884.9
27889.6
27894
27898.2
27902.1
27905.7
27909
27912.1
27914.8
27917.3
27919.4
27921.2
27922.8
27924
27924.9
27925.5
27925.9
24444.8
24445.5
24446.8
24448.7
24451.2
24454.4
24458.2
24462.6
24467.6
24473.3
24479.6
24486.5
24494.1
24502.2
24511
24520.3
24530.3
24540.8
24552
24563.7
24576.1
24588.9
24602.4
24616.4
24631
24646.2
24661.8
24678
24694.8
24712
24729.8
24748.1
24766.9
24786.1
24805.8
24826
24846.7
24867.8
24889.3
24911.3
24933.7
24956.4
24979.6
25003.2
25027.1
25051.4
25076
25101
25126.3
25151.9
25177.8
25204
25230.5
25257.3
25284.3
25311.5
25338.9
25366.6
25394.5
25422.5
25450.8
25479.2
25507.7
25536.4
25565.2
25594
25623
25652.1
25681.2
25710.4
25739.7
25768.9
25798.2
25827.5
25856.8
25886
25915.2
25944.4
25973.5
26002.5
26031.5
26060.3
26089
26117.7
26146.1
26174.5
26202.6
26230.6
26258.5
26286.1
26313.5
26340.8
26367.7
26394.5
26421
26447.3
26473.3
26499
26524.5
26549.6
26574.5
26599
26623.2
26647.2
26670.7
26694
26716.8
26739.4
26761.5
26783.3
26804.8
26825.8
26846.5
26866.7
26886.6
26906.1
26925.1
26943.8
26962
26979.8
26997.2
27014.1
27030.7
27046.8
27062.4
27077.7
27092.4
27106.8
27120.7
27134.1
27147.1
27159.7
27171.8
27183.5
27194.7
27205.5
27215.8
27225.7
27235.1
27244.1
27252.6
27260.7
27268.4
27275.6
27282.4
27288.7
27294.7
27300.2
27305.2
27309.9
27314.1
27317.9
27321.3
27324.3
27326.9
27329.2
27331
27332.4
27333.4
27334.1
27334.4
27334.3
27333.9
27333.1
27332
27330.5
27328.7
27326.5
27324.1
27321.3
27318.2
27314.8
27311.1
27307.1
27302.9
27298.4
27293.6
27288.5
27283.3
27277.7
27272
27266
27259.8
27253.4
27246.8
27240
27233.1
27225.9
27218.6
27211.2
27203.6
27195.9
27188
27180.1
27172
27163.8
27155.6
27147.2
27138.9
27130.4
27121.9
27113.4
27104.8
27096.2
27087.6
27079
27070.4
27061.9
27053.4
27044.9
27036.4
27028
27019.7
27011.5
27003.3
26995.3
26987.3
26979.5
26971.8
26964.2
26956.8
26949.5
26942.3
26935.4
26928.6
26922
26915.6
26909.4
26903.4
26897.6
26892
26886.7
26881.5
26876.7
26872.1
26867.7
26863.6
26859.7
26856.2
26852.9
26849.9
26847.1
26844.7
26842.5
26840.7
26839.1
26837.9
26836.9
26836.3
26836
26835.9
26836.2
26836.8
26837.7
26838.9
26840.5
26842.3
26844.4
26846.9
26849.7
26852.7
26856.1
26859.7
26863.7
26868
26872.5
26877.3
26882.4
26887.8
26893.4
26899.3
26905.4
26911.8
26918.5
26925.4
26932.5
26939.8
26947.3
26955.1
26963
26971.2
26979.5
26988
26996.7
27005.5
27014.4
27023.5
27032.7
27042.1
27051.5
27061.1
27070.7
27080.4
27090.2
27100.1
27110
27119.9
27129.9
27139.9
27149.9
27159.9
27169.9
27179.8
27189.8
27199.7
27209.6
27219.4
27229.1
27238.8
27248.4
27257.8
27267.2
27276.5
27285.6
27294.7
27303.5
27312.3
27320.8
27329.3
27337.5
27345.6
27353.4
27361.1
27368.6
27375.8
27382.9
27389.7
27396.3
27402.6
27408.7
27414.6
27420.2
27425.5
27430.6
27435.4
27439.9
27444.1
27448.1
27451.8
27455.1
27458.2
27461
27463.5
27465.7
27467.5
27469.1
27470.3
27471.3
27471.9
27472.2
23975.1
23975.8
23977
23979
23981.5
23984.7
23988.5
23993
23998.1
24003.8
24010.2
24017.1
24024.7
24033
24041.8
24051.2
24061.3
24071.9
24083.2
24095
24107.5
24120.5
24134.1
24148.2
24162.9
24178.2
24194
24210.4
24227.3
24244.7
24262.6
24281
24300
24319.4
24339.3
24359.7
24380.5
24401.8
24423.5
24445.7
24468.3
24491.3
24514.6
24538.4
24562.6
24587.1
24611.9
24637.1
24662.6
24688.5
24714.6
24741.1
24767.8
24794.8
24822
24849.5
24877.2
24905.1
24933.2
24961.5
24989.9
25018.6
25047.3
25076.3
25105.3
25134.4
25163.7
25193
25222.3
25251.8
25281.3
25310.8
25340.3
25369.8
25399.3
25428.8
25458.2
25487.6
25516.9
25546.2
25575.4
25604.4
25633.4
25662.2
25690.9
25719.4
25747.8
25776
25804.1
25831.9
25859.5
25886.9
25914.1
25941
25967.7
25994.2
26020.3
26046.2
26071.8
26097.2
26122.2
26146.9
26171.2
26195.3
26219
26242.3
26265.4
26288
26310.3
26332.2
26353.7
26374.9
26395.6
26416
26435.9
26455.5
26474.6
26493.3
26511.6
26529.5
26546.9
26564
26580.5
26596.7
26612.4
26627.6
26642.4
26656.8
26670.7
26684.2
26697.2
26709.8
26721.9
26733.5
26744.7
26755.5
26765.8
26775.6
26785.1
26794
26802.5
26810.6
26818.2
26825.4
26832.1
26838.4
26844.3
26849.7
26854.7
26859.3
26863.4
26867.2
26870.5
26873.4
26876
26878.1
26879.8
26881.1
26882.1
26882.6
26882.8
26882.6
26882.1
26881.2
26879.9
26878.4
26876.4
26874.2
26871.6
26868.7
26865.4
26861.9
26858.1
26854
26849.6
26845
26840
26834.9
26829.4
26823.8
26817.9
26811.7
26805.4
26798.8
26792.1
26785.2
26778
26770.8
26763.3
26755.7
26748
26740.1
26732.1
26723.9
26715.7
26707.4
26699
26690.5
26681.9
26673.3
26664.6
26655.9
26647.2
26638.5
26629.7
26620.9
26612.2
26603.5
26594.8
26586.1
26577.5
26568.9
26560.5
26552.1
26543.7
26535.5
26527.4
26519.4
26511.5
26503.8
26496.2
26488.8
26481.5
26474.4
26467.4
26460.7
26454.1
26447.8
26441.6
26435.7
26430
26424.5
26419.3
26414.3
26409.6
26405.1
26400.9
26396.9
26393.2
26389.8
26386.7
26383.9
26381.4
26379.2
26377.2
26375.6
26374.3
26373.3
26372.6
26372.2
26372.2
26372.4
26373
26373.9
26375.1
26376.6
26378.5
26380.6
26383.1
26385.9
26389
26392.4
26396.1
26400.1
26404.4
26409
26413.9
26419
26424.5
26430.2
26436.2
26442.4
26448.9
26455.7
26462.7
26469.9
26477.4
26485
26492.9
26501
26509.3
26517.8
26526.4
26535.2
26544.2
26553.3
26562.5
26571.9
26581.4
26591.1
26600.8
26610.6
26620.5
26630.4
26640.5
26650.5
26660.6
26670.8
26681
26691.1
26701.3
26711.5
26721.7
26731.8
26741.9
26751.9
26761.9
26771.8
26781.7
26791.4
26801.1
26810.6
26820.1
26829.4
26838.6
26847.6
26856.5
26865.2
26873.8
26882.2
26890.4
26898.4
26906.2
26913.8
26921.2
26928.3
26935.3
26942
26948.5
26954.7
26960.6
26966.3
26971.8
26976.9
26981.8
26986.4
26990.7
26994.8
26998.5
27001.9
27005.1
27007.9
27010.4
27012.6
27014.5
27016.1
27017.4
27018.3
27019
27019.3
23503.6
23504.3
23505.6
23507.5
23510.1
23513.3
23517.2
23521.7
23526.8
23532.6
23539
23546.1
23553.7
23562
23571
23580.5
23590.7
23601.4
23612.8
23624.7
23637.3
23650.4
23664.2
23678.5
23693.3
23708.7
23724.7
23741.3
23758.3
23775.9
23794
23812.6
23831.8
23851.4
23871.5
23892.1
23913.1
23934.6
23956.6
23979
24001.8
24025
24048.6
24072.6
24097
24121.8
24146.9
24172.4
24198.1
24224.2
24250.6
24277.3
24304.3
24331.6
24359.1
24386.8
24414.8
24443
24471.3
24499.9
24528.7
24557.6
24586.6
24615.8
24645.1
24674.5
24704
24733.6
24763.3
24793
24822.8
24852.5
24882.3
24912.1
24941.9
24971.6
25001.3
25031
25060.6
25090.1
25119.5
25148.8
25178
25207.1
25236.1
25264.8
25293.5
25321.9
25350.1
25378.2
25406
25433.7
25461.1
25488.2
25515.1
25541.8
25568.1
25594.2
25620
25645.5
25670.7
25695.5
25720.1
25744.3
25768.1
25791.7
25814.8
25837.6
25860
25882
25903.7
25925
25945.8
25966.3
25986.3
26006
26025.2
26044
26062.4
26080.3
26097.8
26114.9
26131.5
26147.7
26163.4
26178.7
26193.6
26208
26221.9
26235.4
26248.4
26261
26273.1
26284.7
26295.9
26306.7
26316.9
26326.8
26336.1
26345.1
26353.5
26361.5
26369.1
26376.2
26382.9
26389.1
26394.9
26400.3
26405.2
26409.7
26413.8
26417.5
26420.7
26423.5
26425.9
26428
26429.6
26430.8
26431.6
26432.1
26432.2
26431.9
26431.2
26430.2
26428.8
26427.1
26425
26422.6
26419.9
26416.8
26413.5
26409.8
26405.8
26401.6
26397
26392.2
26387.1
26381.8
26376.2
26370.4
26364.3
26358
26351.5
26344.8
26337.9
26330.7
26323.4
26316
26308.4
26300.6
26292.6
26284.6
26276.4
26268.1
26259.7
26251.1
26242.5
26233.9
26225.1
26216.3
26207.5
26198.6
26189.6
26180.7
26171.7
26162.8
26153.9
26144.9
26136
26127.2
26118.4
26109.6
26101
26092.4
26083.9
26075.5
26067.2
26059
26050.9
26043
26035.2
26027.6
26020.1
26012.9
26005.8
25998.8
25992.1
25985.6
25979.3
25973.2
25967.3
25961.7
25956.3
25951.2
25946.3
25941.7
25937.4
25933.3
25929.5
25926
25922.8
25919.9
25917.2
25914.9
25912.9
25911.2
25909.8
25908.8
25908
25907.6
25907.5
25907.7
25908.3
25909.1
25910.3
25911.9
25913.7
25915.9
25918.4
25921.2
25924.3
25927.7
25931.5
25935.6
25939.9
25944.6
25949.6
25954.8
25960.4
25966.2
25972.3
25978.6
25985.3
25992.2
25999.3
26006.6
26014.2
26022.1
26030.1
26038.3
26046.8
26055.4
26064.2
26073.2
26082.4
26091.7
26101.1
26110.7
26120.4
26130.2
26140.1
26150.1
26160.2
26170.4
26180.6
26190.9
26201.2
26211.5
26221.9
26232.3
26242.7
26253.1
26263.4
26273.8
26284.1
26294.3
26304.5
26314.6
26324.7
26334.6
26344.5
26354.2
26363.8
26373.3
26382.7
26391.9
26401
26409.9
26418.6
26427.2
26435.6
26443.7
26451.7
26459.5
26467
26474.3
26481.4
26488.3
26494.8
26501.2
26507.3
26513.1
26518.6
26523.9
26528.9
26533.6
26538
26542.1
26545.9
26549.4
26552.6
26555.5
26558.1
26560.3
26562.2
26563.9
26565.2
26566.1
26566.8
26567.1
23030.3
23031.1
23032.3
23034.3
23036.9
23040.1
23044
23048.6
23053.8
23059.6
23066.1
23073.3
23081
23089.4
23098.4
23108.1
23118.4
23129.2
23140.7
23152.8
23165.5
23178.8
23192.7
23207.2
23222.2
23237.8
23254
23270.7
23287.9
23305.7
23324
23342.9
23362.2
23382.1
23402.4
23423.2
23444.5
23466.3
23488.5
23511.1
23534.2
23557.7
23581.6
23605.8
23630.5
23655.5
23680.9
23706.7
23732.8
23759.2
23785.9
23812.9
23840.1
23867.7
23895.5
23923.5
23951.8
23980.3
24009
24037.9
24066.9
24096.2
24125.5
24155
24184.7
24214.4
24244.2
24274.1
24304.1
24334.1
24364.2
24394.3
24424.4
24454.5
24484.5
24514.6
24544.6
24574.6
24604.4
24634.2
24664
24693.6
24723
24752.4
24781.6
24810.7
24839.5
24868.2
24896.8
24925.1
24953.2
24981
25008.7
25036.1
25063.2
25090.1
25116.6
25142.9
25168.9
25194.6
25220
25245.1
25269.8
25294.2
25318.2
25341.9
25365.2
25388.2
25410.7
25432.9
25454.7
25476.1
25497.1
25517.6
25537.8
25557.5
25576.9
25595.8
25614.2
25632.2
25649.8
25666.9
25683.6
25699.9
25715.7
25731
25745.9
25760.3
25774.2
25787.7
25800.8
25813.3
25825.5
25837.1
25848.3
25859
25869.3
25879.1
25888.4
25897.3
25905.7
25913.6
25921.2
25928.2
25934.8
25941
25946.7
25952
25956.8
25961.2
25965.2
25968.8
25971.9
25974.6
25976.9
25978.8
25980.3
25981.4
25982.1
25982.5
25982.4
25982
25981.2
25980
25978.5
25976.6
25974.4
25971.8
25968.9
25965.7
25962.2
25958.4
25954.2
25949.8
25945.1
25940.1
25934.8
25929.3
25923.5
25917.5
25911.3
25904.8
25898.1
25891.2
25884
25876.7
25869.2
25861.6
25853.8
25845.8
25837.6
25829.4
25821
25812.4
25803.8
25795.1
25786.3
25777.4
25768.4
25759.4
25750.3
25741.2
25732.1
25722.9
25713.8
25704.6
25695.4
25686.3
25677.2
25668.1
25659.1
25650.2
25641.3
25632.5
25623.7
25615.1
25606.6
25598.2
25589.9
25581.8
25573.8
25566
25558.4
25550.9
25543.6
25536.4
25529.5
25522.8
25516.3
25510.1
25504
25498.2
25492.7
25487.4
25482.4
25477.6
25473.1
25468.9
25465
25461.3
25458
25455
25452.3
25449.8
25447.7
25446
25444.5
25443.4
25442.5
25442.1
25441.9
25442.1
25442.6
25443.5
25444.6
25446.2
25448
25450.2
25452.7
25455.5
25458.7
25462.2
25466
25470.1
25474.6
25479.3
25484.4
25489.8
25495.4
25501.3
25507.6
25514
25520.8
25527.8
25535.1
25542.6
25550.4
25558.4
25566.6
25575
25583.6
25592.5
25601.5
25610.7
25620
25629.5
25639.2
25649
25658.9
25668.9
25679
25689.3
25699.6
25710
25720.4
25731
25741.5
25752.1
25762.7
25773.3
25784
25794.6
25805.2
25815.7
25826.3
25836.7
25847.2
25857.5
25867.8
25878
25888
25898
25907.8
25917.6
25927.1
25936.6
25945.8
25954.9
25963.9
25972.6
25981.2
25989.5
25997.7
26005.6
26013.3
26020.8
26028.1
26035.1
26041.8
26048.3
26054.5
26060.4
26066.1
26071.5
26076.6
26081.4
26085.9
26090.1
26094
26097.6
26100.9
26103.8
26106.4
26108.7
26110.7
26112.4
26113.7
26114.7
26115.4
26115.7
22555.3
22556
22557.3
22559.3
22561.9
22565.2
22569.2
22573.8
22579
22584.9
22591.5
22598.7
22606.6
22615.1
22624.2
22634
22644.4
22655.4
22667
22679.3
22692.1
22705.6
22719.6
22734.3
22749.5
22765.3
22781.7
22798.6
22816.1
22834.1
22852.6
22871.7
22891.3
22911.4
22932
22953.1
22974.7
22996.7
23019.2
23042.1
23065.4
23089.2
23113.4
23138
23163
23188.3
23214.1
23240.1
23266.5
23293.2
23320.3
23347.6
23375.2
23403.1
23431.3
23459.6
23488.3
23517.1
23546.1
23575.4
23604.8
23634.4
23664.1
23693.9
23723.9
23754
23784.2
23814.4
23844.8
23875.1
23905.5
23936
23966.4
23996.8
24027.3
24057.6
24088
24118.3
24148.5
24178.6
24208.7
24238.6
24268.4
24298
24327.6
24356.9
24386.1
24415.1
24443.9
24472.5
24500.9
24529
24556.9
24584.6
24612
24639.1
24665.9
24692.5
24718.7
24744.6
24770.2
24795.5
24820.4
24845
24869.2
24893.1
24916.6
24939.7
24962.4
24984.8
25006.7
25028.3
25049.4
25070.1
25090.4
25110.2
25129.7
25148.6
25167.2
25185.3
25203
25220.2
25236.9
25253.2
25269.1
25284.4
25299.3
25313.8
25327.8
25341.3
25354.3
25366.9
25379
25390.6
25401.8
25412.5
25422.7
25432.5
25441.8
25450.6
25459
25466.9
25474.3
25481.3
25487.9
25493.9
25499.6
25504.8
25509.5
25513.8
25517.7
25521.2
25524.2
25526.8
25529
25530.7
25532.1
25533
25533.6
25533.8
25533.6
25533
25532
25530.7
25529
25527
25524.6
25521.8
25518.8
25515.4
25511.7
25507.7
25503.3
25498.7
25493.8
25488.6
25483.2
25477.4
25471.5
25465.2
25458.8
25452.1
25445.2
25438
25430.7
25423.2
25415.5
25407.6
25399.5
25391.3
25382.9
25374.4
25365.8
25357.1
25348.2
25339.2
25330.2
25321.1
25311.9
25302.6
25293.3
25284
25274.6
25265.2
25255.8
25246.3
25236.9
25227.6
25218.2
25208.9
25199.6
25190.4
25181.3
25172.3
25163.3
25154.5
25145.7
25137.1
25128.6
25120.2
25112
25104
25096.1
25088.4
25080.8
25073.5
25066.4
25059.5
25052.8
25046.3
25040.1
25034.1