/*--------------------------------*- C++ -*----------------------------------*\
| =========                 |                                                 |
| \\      /  F ield         | OpenFOAM: The Open Source CFD Toolbox           |
|  \\    /   O peration     | Version:  v2006                                 |
|   \\  /    A nd           | Website:  www.openfoam.com                      |
|    \\/     M anipulation  |                                                 |
\*---------------------------------------------------------------------------*/
FoamFile
{
    version     2.0;
    format      ascii;
    class       volScalarField;
    location    "0";
    object      f;
}
// * * * * * * * * * * * * * * * * * * * * * * * * * * * * * * * * * * * * * //

dimensions      [0 0 0 0 0 0 0];


internalField   nonuniform List<scalar> 
2500
(
-1.18864e-32
3.1537e-26
-7.63328e-23
-2.29913e-20
2.25241e-18
-3.39109e-18
-2.47767e-16
6.97925e-15
-2.13931e-13
5.28824e-12
-8.10627e-11
3.46278e-10
1.11346e-09
-4.61803e-08
1.43589e-06
-1.85266e-05
4.49435e-05
0.000444994
-0.00382927
-0.00778636
0.0697395
0.323608
0.636403
0.767942
0.629051
0.328506
0.0856696
-0.00110326
-0.00375775
-0.00113444
0.000228561
0.000199075
3.15924e-05
-6.65072e-06
-3.87652e-06
-5.72195e-07
-2.9505e-08
-8.73387e-09
1.48221e-10
8.37444e-10
2.87835e-10
5.34478e-12
-5.91654e-12
-1.10758e-12
4.97027e-14
1.3081e-14
1.07551e-15
-2.52707e-17
-1.87381e-16
-2.64996e-17
-2.34489e-30
9.92247e-25
-9.10982e-22
-3.08911e-19
1.4582e-17
-5.43614e-18
-1.07928e-15
4.4764e-14
-1.39051e-12
3.82562e-11
-8.45641e-10
1.2441e-08
-9.97533e-08
2.37711e-07
2.13161e-06
-5.59034e-05
0.000319007
0.000447327
-0.00867289
-0.00405504
0.107071
0.322845
0.491891
0.482284
0.31679
0.127851
0.0204629
-0.00284389
-0.00147156
0.000210482
0.000342147
0.000118094
1.51843e-06
-2.47191e-06
-5.02324e-07
3.30433e-08
-2.94831e-08
-1.34234e-08
-1.61122e-09
-3.12382e-11
-5.9268e-12
-3.8384e-12
-2.24119e-13
4.38181e-13
6.59407e-14
6.60271e-15
4.42695e-16
-2.9748e-17
-1.02943e-16
-1.85673e-17
-2.79431e-28
2.4642e-23
-6.38918e-21
-3.17609e-18
6.96765e-17
4.02062e-18
-2.27875e-15
8.03891e-14
-2.42617e-12
7.74707e-11
-2.53293e-09
5.32059e-08
-6.66391e-07
4.32898e-06
-3.83364e-06
-0.00010158
0.000900775
-0.000295245
-0.0159353
0.00124102
0.168271
0.476276
0.71737
0.705866
0.475985
0.201797
0.0343122
-0.00409769
-0.00245335
0.000111876
0.000502229
0.000178515
7.59346e-06
-4.08841e-06
-1.45949e-06
-1.47903e-07
-3.54867e-08
-1.4025e-08
-1.12613e-09
2.61432e-10
7.69718e-11
-3.82147e-12
-2.28122e-12
7.57986e-14
1.04524e-13
9.28685e-15
4.81087e-16
-7.51846e-17
-1.43635e-16
-2.72834e-17
-2.76537e-26
5.81616e-22
-1.01506e-20
-2.97703e-17
4.75198e-16
-5.68867e-15
2.20505e-13
-5.0107e-12
6.39997e-11
-2.34276e-10
-3.77136e-09
1.20438e-07
-1.90619e-06
1.61905e-05
-5.71727e-05
-0.000123662
0.00193775
-0.00310523
-0.0258875
0.0136609
0.239396
0.592394
0.797272
0.718298
0.433127
0.151676
0.0116002
-0.00542969
-0.00171638
0.000906914
0.000700228
0.000171546
-2.44458e-06
-3.37795e-06
-4.48975e-07
2.16097e-08
-4.27226e-08
-2.10923e-08
-2.01138e-09
1.17367e-10
2.47254e-11
-4.83055e-12
-4.61923e-13
6.17143e-13
1.43398e-13
8.2224e-15
4.16131e-16
-1.5612e-16
-1.98145e-16
-3.90053e-17
-2.48358e-24
1.29374e-20
6.95291e-19
-2.74051e-16
8.9461e-15
-2.25564e-13
4.56414e-12
-7.43931e-11
9.48691e-10
-8.41875e-09
3.50375e-08
1.44818e-07
-3.28242e-06
3.7456e-05
-0.000192707
5.95857e-05
0.00339782
-0.00822095
-0.037327
0.0295504
0.313723
0.699766
0.874837
0.743784
0.415624
0.11998
5.67196e-05
-0.00604045
-0.000696102
0.00145123
0.000852589
0.000157514
-4.88023e-06
-2.56729e-06
7.2196e-08
4.29651e-08
-4.57122e-08
-2.23286e-08
-1.6806e-09
1.68144e-10
3.14094e-11
-3.62881e-12
4.79295e-13
7.638e-13
1.47199e-13
6.19278e-15
2.36371e-16
-2.82983e-16
-2.68543e-16
-5.39994e-17
-2.07613e-22
2.67599e-19
1.26038e-17
-1.63423e-15
4.65602e-14
-9.51368e-13
1.64232e-11
-2.4712e-10
3.24287e-09
-3.46362e-08
2.78622e-07
-1.12976e-06
-2.67373e-06
5.94082e-05
-0.000444184
0.000811518
0.00497764
-0.0158101
-0.0487935
0.0487197
0.382241
0.773787
0.896182
0.697929
0.332318
0.0676593
-0.0109538
-0.00635953
0.000981199
0.00205986
0.000916609
0.000106859
-5.67146e-06
-5.75702e-07
8.2502e-07
1.13509e-07
-5.66713e-08
-2.36322e-08
-1.22109e-09
1.96391e-10
2.24646e-11
-2.38969e-12
1.70614e-12
9.49057e-13
1.06021e-13
1.93172e-15
-1.18817e-16
-4.62394e-16
-3.53088e-16
-7.19773e-17
-1.61783e-20
5.1146e-18
5.50482e-17
-3.67497e-15
8.30097e-14
-1.50074e-12
2.42249e-11
-3.59173e-10
5.06545e-09
-7.27292e-08
8.43762e-07
-6.25831e-06
2.00088e-05
5.91665e-05
-0.000795001
0.0022278
0.00612438
-0.0256743
-0.0589123
0.0698016
0.435537
0.805634
0.864853
0.600729
0.240048
0.0237696
-0.0146091
-0.0053184
0.00262559
0.00245941
0.00083163
4.82253e-05
-2.34692e-06
2.08302e-06
1.40863e-06
1.10636e-07
-6.62637e-08
-2.07736e-08
6.50864e-11
2.78366e-10
7.66573e-12
-3.14626e-12
1.87047e-12
8.27602e-13
2.17205e-14
-3.95158e-15
-7.04141e-16
-6.90517e-16
-4.45142e-16
-9.187e-17
-1.15789e-18
1.10869e-16
-2.77362e-15
9.21915e-14
-2.19459e-12
3.75248e-11
-4.68511e-10
3.99745e-09
-1.67601e-08
-6.6492e-08
1.4698e-06
-1.66104e-05
8.4899e-05
-8.53603e-05
-0.00114678
0.0044072
0.00629277
-0.0368664
-0.0665354
0.0895375
0.466815
0.793893
0.766922
0.467187
0.142958
-0.010131
-0.0150912
-0.00154459
0.0040408
0.00263017
0.000615177
2.52111e-07
3.6635e-07
4.65449e-06
1.81729e-06
2.14549e-08
-7.22742e-08
-1.41069e-08
1.159e-09
3.37018e-10
-2.81312e-11
-8.13519e-12
1.4117e-12
3.69259e-13
-7.08852e-14
-1.29789e-14
-1.40469e-15
-9.34124e-16
-5.32241e-16
-1.11762e-16
-7.24917e-17
3.33389e-15
-8.56668e-14
1.68604e-12
-2.76858e-11
3.79425e-10
-4.25168e-09
3.71256e-08
-2.35553e-07
8.52879e-07
9.75618e-07
-2.83511e-05
0.000199415
-0.000450815
-0.001326
0.00721651
0.00495481
-0.0479725
-0.070987
0.104566
0.473675
0.716293
0.628129
0.321621
0.0584419
-0.0260703
-0.0138913
0.00253404
0.00483238
0.00236128
0.000333408
-1.91621e-05
3.44403e-06
6.7798e-06
1.81533e-06
-1.03018e-07
-7.47605e-08
-4.65676e-09
1.96182e-09
2.68509e-10
-7.39463e-11
-1.36897e-11
5.50815e-13
-1.6438e-13
-1.38194e-13
-1.87385e-14
-1.99596e-15
-1.13321e-15
-5.98206e-16
-1.29152e-16
-9.53885e-16
1.83689e-14
-3.5528e-13
5.83952e-12
-8.49664e-11
1.09655e-09
-1.21084e-08
1.10122e-07
-7.88724e-07
3.96842e-06
-1.0077e-05
-2.95252e-05
0.00033859
-0.0010492
-0.001069
0.0102272
0.00251373
-0.0577137
-0.072286
0.113386
0.452528
0.599891
0.461961
0.183428
-0.0037075
-0.028939
-0.00906764
0.00519216
0.00477485
0.00156097
5.14872e-05
-1.54981e-05
1.05608e-05
8.16455e-06
1.26344e-06
-1.82714e-07
-6.50019e-08
4.58487e-09
2.41966e-09
-8.91031e-11
-1.19111e-10
-1.26432e-11
3.7728e-13
-3.50176e-13
-1.48795e-13
-1.60332e-14
-2.42821e-15
-1.24054e-15
-6.28321e-16
-1.41551e-16
-2.66739e-15
3.34548e-14
-5.51622e-13
7.72523e-12
-1.01626e-10
1.39583e-09
-1.67788e-08
1.69804e-07
-1.56048e-06
1.01412e-05
-3.91572e-05
3.20986e-05
0.00043697
-0.00183247
-0.000159958
0.0131082
-0.000727252
-0.0653172
-0.0707411
0.11628
0.395776
0.460417
0.294716
0.0696438
-0.0378211
-0.0266586
-0.00164307
0.00625488
0.00379928
0.000661931
-0.000113882
-1.55738e-05
1.844e-05
8.58047e-06
4.64214e-07
-1.89552e-07
-2.38674e-08
1.2263e-08
2.62593e-09
-4.38622e-10
-1.48277e-10
1.93231e-12
2.36555e-12
-5.48095e-14
-7.84056e-14
-1.05392e-14
-2.48636e-15
-1.21164e-15
-6.1435e-16
-1.47224e-16
5.62951e-14
-9.21631e-13
1.51634e-11
-1.86974e-10
1.74501e-09
-1.20673e-08
5.33488e-08
-2.30728e-08
-1.81066e-06
1.79027e-05
-9.06507e-05
0.000183135
0.000429868
-0.00267322
0.00117641
0.0153494
-0.00453715
-0.069654
-0.0670636
0.111579
0.313309
0.310095
0.150805
-0.00882477
-0.0461469
-0.0211884
0.00320906
0.00566297
0.00203616
-9.83561e-05
-0.000143094
-2.21266e-06
2.21589e-05
6.56208e-06
-2.27221e-07
-1.55713e-07
2.50274e-08
1.65226e-08
9.68238e-10
-6.39776e-10
-1.08096e-10
2.33611e-11
6.77081e-12
4.41402e-13
1.21932e-14
-5.78159e-15
-2.14741e-15
-1.00089e-15
-5.55437e-16
-1.45813e-16
1.17511e-12
-8.2543e-12
9.95084e-11
-1.02279e-09
8.96845e-09
-6.66977e-08
3.91977e-07
-1.5893e-06
2.14444e-06
2.08388e-05
-0.000152591
0.000423545
0.000143745
-0.00341621
0.00297331
0.0167636
-0.00822379
-0.0713847
-0.0602536
0.0922334
0.213572
0.176606
0.0413332
-0.0502644
-0.042028
-0.0106583
0.00502614
0.00352532
0.000194102
-0.000519862
-0.000138272
3.41097e-05
2.26077e-05
2.62238e-06
-6.16327e-07
-9.56477e-08
5.74296e-08
1.70534e-08
-1.51094e-09
-7.02566e-10
4.23737e-11
4.66417e-11
9.17961e-12
6.49787e-13
3.36685e-14
-3.54802e-15
-7.20881e-16
-5.69775e-16
-4.62323e-16
-1.38786e-16
5.1153e-12
-2.1767e-11
2.15932e-10
-2.00231e-09
1.79038e-08
-1.48363e-07
1.00969e-06
-5.0037e-06
1.40819e-05
2.79527e-06
-0.000195545
0.000708602
-0.000314661
-0.0039029
0.00490508
0.0173588
-0.0114557
-0.0701338
-0.0516374
0.0620887
0.120432
0.0683508
-0.0283323
-0.0585764
-0.0314747
-0.00119263
0.0047811
0.00126302
-0.000961232
-0.000577022
-6.53042e-05
4.43829e-05
1.65472e-05
-7.87748e-07
-6.23899e-07
6.24731e-08
7.2097e-08
8.16827e-09
-2.69968e-09
-5.05279e-10
1.81444e-10
6.208e-11
5.69289e-12
3.34637e-13
8.97439e-15
2.86531e-15
3.21839e-15
3.82381e-17
-3.65605e-16
-1.29725e-16
8.69353e-12
-1.17342e-11
-8.05149e-11
1.00965e-09
5.0853e-09
-1.59759e-07
1.49848e-06
-9.50054e-06
3.43929e-05
-4.89017e-05
-0.000191088
0.000959631
-0.000922262
-0.00405455
0.00660183
0.0173999
-0.0139258
-0.0639126
-0.0435096
0.0294768
0.0470355
-0.00713692
-0.0579539
-0.048033
-0.0151798
0.00394655
0.00265524
-0.000936531
-0.00136634
-0.000456249
2.82055e-05
3.3872e-05
2.00932e-06
-3.05054e-06
-5.18613e-07
2.03829e-07
7.30174e-08
-4.34646e-09
-2.80481e-09
2.52455e-10
2.63624e-10
4.50545e-11
-2.37642e-12
-4.67518e-13
8.25647e-15
2.77062e-14
1.09465e-14
5.21486e-16
-3.18323e-16
-1.23548e-16
-1.47814e-10
9.72829e-10
-8.14651e-09
4.95738e-08
-2.12339e-07
5.05713e-07
7.29063e-07
-1.20138e-05
5.80992e-05
-0.000134301
-6.37753e-05
0.00111598
-0.00159722
-0.00390769
0.00797869
0.0167735
-0.0150621
-0.053456
-0.0369961
0.00152947
-0.00525834
-0.043175
-0.0555801
-0.0290365
-0.000676197
0.0049007
0.000349402
-0.00219964
-0.00132776
-0.000213256
5.91599e-05
1.55096e-05
-8.71472e-06
-3.5978e-06
5.51035e-08
2.38953e-07
3.43162e-08
-9.9198e-09
-1.77783e-09
8.77139e-10
2.74631e-10
-1.26806e-11
-1.06012e-11
-1.2019e-12
1.04302e-13
7.52765e-14
1.94728e-14
4.80487e-16
-3.4519e-16
-1.23136e-16
-1.52273e-09
4.78737e-09
-3.27953e-08
1.76671e-07
-7.63416e-07
2.44666e-06
-4.3577e-06
-6.79202e-06
7.47701e-05
-0.000233366
0.000127667
0.00113847
-0.00220843
-0.00354821
0.00907474
0.0154047
-0.0140813
-0.0403587
-0.0304329
-0.0173853
-0.0295734
-0.047693
-0.0352966
-0.00800787
0.00675581
0.0031914
-0.00182049
-0.00230077
-0.000849924
7.65415e-06
3.53373e-05
-1.03137e-05
-1.16831e-05
-2.22558e-06
6.33738e-07
2.38481e-07
-1.65003e-08
-9.94431e-09
1.25356e-09
1.07667e-09
8.51923e-11
-6.15686e-11
-1.61014e-11
-4.89302e-13
2.58328e-13
1.20894e-13
2.20343e-14
-3.03746e-16
-4.15359e-16
-1.25284e-16
-5.4037e-09
1.08883e-08
-6.7899e-08
3.45706e-07
-1.53059e-06
5.39358e-06
-1.37455e-05
1.24393e-05
7.42039e-05
-0.000314281
0.000369538
0.00100033
-0.00273093
-0.00304965
0.00966965
0.0133403
-0.00964076
-0.0258916
-0.021859
-0.0211829
-0.0318858
-0.0324543
-0.0123075
0.00693153
0.00758159
0.000604915
-0.00281853
-0.00171357
-0.000237254
9.94762e-05
5.55384e-06
-2.78017e-05
-1.09366e-05
4.63864e-07
7.59461e-07
9.55535e-08
-3.93853e-08
-6.00738e-09
3.27326e-09
9.06158e-10
-1.91359e-10
-8.42301e-11
-1.03875e-11
1.00093e-12
4.17955e-13
1.20096e-13
1.32941e-14
-1.47844e-15
-5.04909e-16
-1.2204e-16
-9.26749e-09
1.25116e-08
-7.55049e-08
3.9121e-07
-1.91624e-06
7.87729e-06
-2.48275e-05
4.43888e-05
2.33768e-05
-0.000350579
0.000607361
0.000820558
-0.00311066
-0.00257466
0.00950297
0.0112155
-0.00366828
-0.0120383
-0.0111528
-0.0146192
-0.0201006
-0.0105928
0.00576376
0.0116782
0.00495578
-0.00167395
-0.0022991
-0.000668095
0.000178249
7.28469e-05
-3.05687e-05
-2.67079e-05
-3.66484e-06
1.91042e-06
5.51002e-07
-1.12739e-07
-4.62479e-08
3.17724e-09
3.09376e-09
-1.19715e-10
-3.29163e-10
-7.32235e-11
3.85103e-12
2.06234e-12
4.39208e-13
4.98042e-14
-5.8669e-15
-2.37453e-15
-5.10278e-16
-1.03807e-16
3.3897e-09
-2.30057e-08
1.02817e-07
-1.94323e-07
-7.54052e-07
8.04784e-06
-3.26604e-05
8.02945e-05
-4.88956e-05
-0.000329806
0.000792335
0.00063375
-0.0033648
-0.00217116
0.00784605
0.00938543
0.00211039
-0.000280937
-0.000298472
-0.00418794
-0.00347018
0.00577905
0.0132505
0.00922269
0.00110492
-0.00224305
-0.000975675
0.000309482
0.000297428
2.12351e-05
-5.05521e-05
-1.70722e-05
3.10153e-06
1.82322e-06
-1.34781e-08
-1.74802e-07
-2.83165e-08
9.3904e-09
1.6584e-09
-9.74026e-10
-3.34709e-10
3.40508e-12
1.28883e-11
2.51438e-12
1.19122e-13
-3.3444e-14
-1.69158e-14
-2.89565e-15
-3.46005e-16
-6.4712e-17
1.04195e-07
-1.26899e-07
6.05627e-07
-1.8147e-06
3.45582e-06
5.39354e-07
-3.36807e-05
0.000112191
-0.000137008
-0.000283303
0.000962618
0.000461346
-0.00340316
-0.00197973
0.00525962
0.00760034
0.00674829
0.00826784
0.00795523
0.00549959
0.00750135
0.0119737
0.0110515
0.00382851
-0.00141942
-0.00113532
0.000361447
0.000682916
0.00021699
-4.60932e-05
-3.6496e-05
-7.25539e-07
4.5797e-06
7.2695e-07
-4.8708e-07
-1.55237e-07
1.96769e-08
9.73707e-09
-1.04136e-09
-1.02812e-09
-9.84729e-11
5.98207e-11
1.47021e-11
4.73944e-13
-1.95065e-13
-6.47556e-14
-1.61722e-14
-1.72065e-15
-7.59806e-17
-1.25863e-17
2.99038e-07
-2.40872e-07
1.21486e-06
-3.91371e-06
9.80724e-06
-1.45847e-05
-1.41592e-05
0.000129542
-0.000218563
-0.000224283
0.00108019
0.000332717
-0.00306082
-0.00214481
0.00223708
0.00547483
0.00921916
0.0123981
0.0117683
0.00988638
0.00992487
0.00947773
0.0043569
-0.000779504
-0.00157538
0.000270959
0.00112348
0.000611444
4.80441e-05
-5.93284e-05
-1.13234e-05
9.82449e-06
3.09325e-06
-8.27349e-07
-5.02046e-07
-2.07728e-08
3.80794e-08
5.54881e-09
-2.58285e-09
-5.80858e-10
1.96759e-10
7.03973e-11
3.80787e-12
-1.78454e-12
-3.46159e-13
-3.89479e-14
-3.66685e-15
6.23387e-16
2.20735e-16
3.83754e-17
3.7016e-07
-2.55652e-07
1.37096e-06
-5.12116e-06
1.56015e-05
-3.05945e-05
1.1387e-05
0.000127556
-0.000283955
-0.000171569
0.00112625
0.000303324
-0.00240942
-0.00258397
-0.000623888
0.00319639
0.00915385
0.01264
0.0113602
0.00837129
0.00598884
0.0024292
-0.00160957
-0.00268711
-0.000567844
0.00111797
0.00101505
0.000279669
-5.07356e-05
-1.63598e-05
1.70462e-05
9.4349e-06
-2.65856e-07
-1.39538e-06
-2.63657e-07
1.02218e-07
3.33971e-08
-4.01283e-09
-2.01329e-09
2.98608e-10
2.61464e-10
3.38203e-11
-1.04615e-11
-2.63279e-12
-1.65076e-13
1.12033e-14
8.2156e-15
2.35258e-15
4.36506e-16
6.69606e-17
-4.43282e-07
-3.82171e-08
3.92806e-08
-3.90008e-06
1.82477e-05
-4.50301e-05
3.99987e-05
0.000118414
-0.000334261
-0.000131497
0.0010769
0.00048434
-0.00162414
-0.0030062
-0.00259489
0.00140598
0.00758798
0.00992292
0.00754343
0.00349535
-0.000231634
-0.0035244
-0.00464617
-0.00262616
8.07474e-05
0.000972121
0.000447947
-9.06729e-06
-2.51501e-05
2.89758e-05
2.56429e-05
3.50049e-06
-2.88724e-06
-1.01649e-06
1.36249e-07
1.0264e-07
4.66505e-09
-7.79431e-09
-8.14793e-10
6.99462e-10
1.60335e-10
-3.7887e-11
-1.43284e-11
-1.36689e-12
1.62328e-13
3.94095e-14
1.09336e-14
2.51541e-15
4.26921e-16
6.16638e-17
-2.5649e-06
3.81123e-07
-2.84209e-06
7.57704e-07
1.57057e-05
-5.50313e-05
6.67711e-05
0.00010748
-0.000366938
-0.000130299
0.000940898
0.000825618
-0.000893188
-0.00316875
-0.00334232
0.000621034
0.00564309
0.00604593
0.00288427
-0.00120384
-0.00458993
-0.0061592
-0.00523735
-0.00246468
-0.000337222
-5.13527e-05
-0.000126737
-6.11283e-05
5.16655e-05
5.56434e-05
1.4921e-05
-4.21193e-06
-2.71253e-06
-8.64323e-08
2.95032e-07
5.45631e-08
-2.11276e-08
-5.87196e-09
1.17246e-09
4.55093e-10
-7.96557e-11
-5.95188e-11
-9.02974e-12
1.28672e-12
2.9303e-13
3.07333e-14
6.65565e-15
1.62185e-15
2.74624e-16
3.25719e-17
-3.84116e-06
1.75649e-06
-5.27303e-06
8.04953e-06
8.50223e-06
-5.88007e-05
8.83616e-05
0.000100636
-0.000369138
-0.000193159
0.000798311
0.0011127
-0.000407794
-0.00295739
-0.00293962
0.000932573
0.00397452
0.00313531
-0.000177559
-0.00356657
-0.00605631
-0.00674992
-0.00560324
-0.00365603
-0.00207388
-0.00105244
-0.000348023
3.77396e-05
9.81558e-05
4.33321e-05
-1.89049e-06
-6.14682e-06
-1.08303e-06
6.17243e-07
2.04213e-07
-3.15782e-08
-1.99184e-08
-1.05479e-10
1.54098e-09
7.23182e-11
-1.74664e-10
-3.92335e-11
5.62806e-12
2.00949e-12
1.7551e-13
-1.12163e-14
8.63729e-16
5.07193e-16
7.27905e-17
-2.94279e-18
4.75038e-06
7.93595e-06
-4.58047e-06
1.62095e-05
-2.251e-07
-6.15056e-05
0.000102708
0.000101708
-0.000346992
-0.000291791
0.000682316
0.00119244
-0.000282663
-0.002236
-0.00131096
0.00214172
0.00335256
0.00167984
-0.00100939
-0.00364499
-0.00611036
-0.00813359
-0.00823414
-0.00661695
-0.00400236
-0.0015739
-0.000226059
0.000129542
8.62678e-05
8.64997e-06
-1.04738e-05
-3.17936e-06
9.89791e-07
5.6385e-07
-1.72814e-09
-6.4041e-08
-9.76351e-09
4.29864e-09
8.90002e-10
-3.33058e-10
-1.05467e-10
1.57691e-11
9.94044e-12
1.23578e-12
-2.43197e-13
-4.21376e-14
-1.16796e-15
-1.74889e-16
-7.51767e-17
-2.57958e-17
2.38404e-05
1.71618e-05
-1.49243e-06
2.22122e-05
-1.0508e-05
-6.52362e-05
0.000111764
0.00011332
-0.000322861
-0.000343242
0.000589672
0.000950667
-0.00047184
-0.00118653
0.000991242
0.00350193
0.00324716
0.00150862
-0.000510433
-0.00327969
-0.00802711
-0.0126594
-0.0133625
-0.0101925
-0.00526643
-0.00155245
-8.85076e-06
0.000110892
3.13532e-05
-1.28709e-05
-6.35173e-06
1.00753e-06
1.36848e-06
1.58703e-07
-1.49687e-07
-3.98861e-08
8.53045e-09
3.65575e-09
-2.21033e-10
-2.78021e-10
7.44559e-12
3.44129e-11
5.72877e-12
-1.3354e-12
-3.83531e-13
-2.8323e-14
-1.29333e-16
-2.50925e-16
-9.76309e-17
-2.40474e-17
3.52274e-05
1.78701e-05
-5.03412e-06
1.87909e-05
-2.39708e-05
-6.76712e-05
0.00011775
0.000123234
-0.000293813
-0.000289961
0.000456358
0.000322399
-0.000741629
0.000148539
0.00310638
0.00421642
0.00331892
0.00191004
-0.000114568
-0.00537959
-0.0149988
-0.0212316
-0.0201478
-0.0134196
-0.00576458
-0.00113122
7.13631e-05
3.54647e-05
-1.57462e-05
-1.17373e-05
5.76242e-07
2.79268e-06
5.74394e-07
-2.84175e-07
-1.16608e-07
8.88168e-09
1.28191e-08
1.36789e-09
-8.34721e-10
-1.07287e-10
7.89751e-11
1.82716e-11
-4.57847e-12
-1.95411e-12
-2.14587e-13
2.66676e-14
1.94114e-15
-1.37257e-16
-4.49679e-17
-5.31937e-18
-8.37055e-06
-2.05205e-05
-3.25949e-05
3.72388e-06
-3.40141e-05
-5.81018e-05
0.000122062
0.000108523
-0.000223663
-0.000121595
0.000192418
-0.000481174
-0.000786878
0.00164686
0.00436622
0.00431098
0.00326781
0.00223612
-0.0017198
-0.0139375
-0.0278935
-0.0330779
-0.0276766
-0.0160168
-0.00574016
-0.000704763
-5.2059e-06
-1.92172e-05
-1.7097e-05
-1.93492e-08
4.62416e-06
1.35978e-06
-4.64022e-07
-2.96436e-07
-1.06194e-08
3.42973e-08
6.60488e-09
-2.10015e-09
-5.75052e-10
1.11892e-10
4.51798e-11
-8.67921e-12
-6.76952e-12
-9.54546e-13
2.30083e-13
4.85969e-14
1.37343e-15
-3.74244e-17
1.7959e-17
1.46263e-17
-8.88838e-05
-7.86544e-05
-6.23172e-05
-1.87292e-06
-2.03205e-05
-2.87786e-05
0.000114166
5.47016e-05
-8.73894e-05
4.83837e-05
-0.000240821
-0.00115419
-0.000239252
0.00305043
0.0044376
0.00388425
0.00367532
0.00227074
-0.00938794
-0.0296389
-0.046429
-0.0474671
-0.0352477
-0.0180571
-0.00541742
-0.000423255
-4.22065e-05
-2.22314e-05
6.73947e-07
7.38969e-06
2.72134e-06
-7.07375e-07
-6.8776e-07
-8.28263e-08
7.18908e-08
2.027e-08
-4.13277e-09
-2.22237e-09
-5.44872e-11
1.47715e-10
6.64896e-12
-1.61971e-11
-2.72822e-12
1.02115e-12
3.17171e-13
2.72194e-14
-1.3503e-15
-3.37598e-17
5.03421e-17
2.47874e-17
-0.000100399
-8.3701e-05
-3.40439e-05
5.2444e-05
3.16326e-05
3.07067e-06
6.5752e-05
5.54225e-06
9.90507e-05
7.7471e-05
-0.000787931
-0.00133629
0.000946004
0.00393105
0.00390796
0.00367396
0.00487306
-0.00156638
-0.02406
-0.0532744
-0.0691091
-0.0637247
-0.0423788
-0.0194136
-0.00496747
-0.00024586
-2.27351e-07
1.63487e-05
1.47603e-05
5.5779e-06
-9.28487e-07
-1.35716e-06
-2.54566e-07
1.31384e-07
5.1882e-08
-5.54613e-09
-6.7823e-09
-7.74603e-10
4.62414e-10
8.07991e-11
-2.8346e-11
-5.70469e-12
3.06123e-12
1.25539e-12
1.20717e-13
-2.76476e-14
-2.80571e-15
4.67052e-17
5.87355e-17
2.48187e-17
0.000102753
8.19301e-05
0.000104638
0.00014328
6.56342e-05
-1.9468e-05
-2.23311e-05
3.334e-05
0.000238074
-0.000172474
-0.00123364
-0.000688515
0.00240311
0.0038275
0.00339628
0.00510885
0.00598756
-0.0103304
-0.0479178
-0.0848017
-0.0955945
-0.0792668
-0.0477962
-0.0196742
-0.00410904
-3.66424e-05
3.6617e-05
2.77285e-05
1.08558e-05
-8.13167e-07
-2.28713e-06
-5.45108e-07
2.42619e-07
1.29656e-07
7.34265e-11
-1.59234e-08
-2.68252e-09
1.16273e-09
3.48735e-10
-3.09243e-11
-1.59691e-11
4.4627e-12
3.26835e-12
3.25345e-13
-1.84836e-13
-3.86329e-14
-1.18257e-15
1.52273e-16
5.80315e-17
2.03084e-17
0.000263344
0.000189774
0.000157473
0.00013089
-2.93878e-06
-9.8213e-05
-6.60333e-05
0.000125888
0.000229132
-0.000682795
-0.00127777
0.00083371
0.00335619
0.00294553
0.00332094
0.00854514
0.00499906
-0.0281814
-0.0829315
-0.122959
-0.122312
-0.0922623
-0.0504874
-0.0182018
-0.00276806
5.87524e-05
4.32225e-05
1.74375e-05
-5.84433e-07
-3.65275e-06
-1.02966e-06
4.03519e-07
2.73297e-07
1.89042e-08
-3.2579e-08
-7.18897e-09
2.53555e-09
1.11985e-09
6.49102e-12
-7.31766e-11
-3.96819e-12
6.57161e-12
6.81881e-13
-6.82984e-13
-1.99724e-13
-1.26049e-14
1.56031e-15
2.41209e-16
5.10691e-17
1.56427e-17
1.98637e-05
-1.85727e-05
-2.85403e-05
-5.42798e-05
-0.00011294
-0.000115936
1.85392e-05
0.000190726
-0.000310624
-0.00118649
-1.67632e-05
0.00281145
0.00286886
0.00180287
0.00579147
0.0129283
-0.00357919
-0.0610887
-0.130238
-0.162937
-0.14789
-0.0999306
-0.0495121
-0.015032
-0.00132806
3.19835e-05
1.87482e-05
-1.38649e-06
-5.45667e-06
-1.675e-06
6.1999e-07
5.00917e-07
5.20871e-08
-6.5141e-08
-1.93846e-08
3.90417e-09
2.57181e-09
9.04638e-11
-2.5173e-10
-3.85055e-11
1.19216e-11
1.48505e-12
-1.67722e-12
-6.12387e-13
-2.77912e-14
1.9507e-14
2.44907e-15
1.49725e-16
3.22846e-17
1.17291e-17
-0.000298124
-0.000263686
-0.000184785
-0.000113416
-5.72083e-06
5.91425e-05
0.000114784
-0.0002165
-0.00108618
-0.000709358
0.00193344
0.00374092
0.00128537
0.00157033
0.0102783
0.0145502
-0.0312473
-0.117353
-0.189601
-0.20515
-0.165151
-0.100371
-0.0428415
-0.0103387
-0.000319949
1.64286e-05
1.40766e-07
-6.26307e-06
-2.22088e-06
9.01777e-07
8.32977e-07
1.03785e-07
-1.22383e-07
-4.55836e-08
4.81014e-09
5.65909e-09
4.00867e-10
-6.42478e-10
-1.46396e-10
2.38315e-11
7.49609e-12
-1.91667e-12
-1.10727e-12
3.35764e-15
1.08017e-13
2.11214e-14
6.28729e-16
-6.29355e-18
8.67143e-18
8.27974e-18
-9.54731e-05
-3.92023e-05
9.98249e-05
0.000238579
0.000295028
0.000136299
-0.000349157
-0.001044
-0.00131658
0.00118373
0.00366719
0.0031955
-0.000244323
0.00578
0.0153948
-0.00820232
-0.0979731
-0.20582
-0.260889
-0.242239
-0.171541
-0.0908903
-0.0330531
-0.00561928
8.33878e-05
1.73358e-05
-5.15963e-06
-1.66834e-06
1.61018e-06
1.3129e-06
1.79923e-07
-2.03173e-07
-8.44371e-08
7.49563e-09
1.27164e-08
1.48673e-09
-1.27043e-09
-3.4475e-10
6.48667e-11
3.39305e-11
8.34318e-13
-2.1408e-12
5.55786e-14
3.5346e-13
8.42377e-14
1.91936e-15
-8.21875e-16
-1.23628e-16
-7.56186e-18
5.80023e-18
0.000692564
0.000633256
0.000654527
0.000488151
8.45599e-05
-0.000807191
-0.00131089
-0.00140549
0.000646651
0.00361219
0.00357813
0.00194453
0.00132199
0.0144137
0.00950072
-0.0837233
-0.227289
-0.333439
-0.340883
-0.268993
-0.163544
-0.0740894
-0.0216005
-0.00180447
-1.06874e-05
-2.03263e-06
1.02847e-06
2.51955e-06
1.75547e-06
2.08707e-07
-3.19726e-07
-1.36547e-07
1.6167e-08
2.69392e-08
4.49006e-09
-2.19821e-09
-6.91001e-10
1.37391e-10
9.7563e-11
8.0809e-12
-5.83906e-12
-2.73436e-13
7.38502e-13
1.84462e-13
-1.61315e-14
-9.30365e-15
-1.19783e-15
-1.0042e-16
-4.27058e-18
5.23623e-18
0.000663997
0.000465373
-6.30108e-05
-0.000898362
-0.00168347
-0.00194966
-0.00142763
0.000687752
0.00382736
0.00356396
0.00101111
0.00247146
0.0149102
0.0217738
-0.0785158
-0.271432
-0.443269
-0.496032
-0.422143
-0.279609
-0.142738
-0.0531938
-0.0110124
-7.9346e-05
4.43249e-05
1.78816e-05
4.6169e-06
1.54692e-06
-6.22703e-08
-5.18404e-07
-2.06262e-07
3.19875e-08
4.83503e-08
8.82913e-09
-4.27672e-09
-1.61544e-09
1.90609e-10
2.13294e-10
1.97779e-11
-1.77221e-11
-2.85558e-12
1.04281e-12
2.75676e-13
-8.23009e-14
-4.63506e-14
-7.90507e-15
-2.42937e-16
1.32219e-18
9.59129e-18
5.76464e-18
-0.00305982
-0.0030829
-0.00319056
-0.00299712
-0.00229185
-0.000541104
0.00185725
0.00411667
0.00482183
-0.00177478
-0.000356282
0.02413
0.0374834
-0.0534416
-0.311005
-0.615497
-0.750396
-0.684173
-0.48534
-0.268341
-0.112989
-0.0324493
-0.00310046
0.000166832
7.84366e-05
1.78791e-05
9.05506e-07
-1.18978e-06
-9.71629e-07
-3.23819e-07
5.81841e-08
7.61297e-08
1.2851e-08
-8.84094e-09
-3.67343e-09
1.95249e-10
4.16895e-10
3.46692e-11
-4.54614e-11
-1.07157e-11
1.75345e-12
6.68448e-13
-1.49685e-13
-1.16438e-13
-2.09451e-14
8.35661e-16
3.10597e-16
7.90294e-17
2.03007e-17
5.81439e-18
-0.00237597
-0.0020415
-0.00112272
0.000314408
0.00227865
0.00368229
0.00449265
0.0049943
-0.000605983
-0.00795289
0.0267195
0.0716576
0.0337414
-0.320851
-0.800258
-1.14542
-1.12492
-0.862523
-0.513972
-0.235127
-0.07828
-0.0142825
0.000481874
0.00019487
5.03351e-05
5.32062e-06
-2.25823e-06
-1.27547e-06
-3.27087e-07
1.14289e-07
1.03779e-07
1.22155e-08
-1.70517e-08
-6.83231e-09
4.76102e-10
9.02652e-10
1.03826e-10
-8.44235e-11
-2.18105e-11
4.22173e-12
1.93613e-12
-1.88841e-13
-2.45309e-13
-2.91621e-14
1.38722e-14
3.26168e-15
4.51689e-16
8.65332e-17
1.87918e-17
4.26791e-18
0.00387075
0.00416392
0.00458299
0.00478725
0.0047716
0.00334588
0.00354112
0.000909695
-0.0113846
0.00824551
0.0980484
0.110227
-0.302746
-1.00937
-1.62151
-1.8014
-1.5172
-0.98558
-0.494874
-0.185098
-0.0447816
-0.00173343
0.000566275
0.000228428
1.84639e-05
-6.06854e-06
-2.30972e-06
-1.92159e-07
2.65795e-07
1.44224e-07
4.05366e-09
-2.94663e-08
-1.0397e-08
1.66352e-09
1.91882e-09
2.86899e-10
-1.44248e-10
-3.83497e-11
9.27572e-12
4.84322e-12
-1.67155e-13
-5.4363e-13
-5.75707e-14
4.33039e-14
1.31044e-14
1.70022e-15
2.04813e-16
4.09945e-17
8.60966e-18
1.72389e-18
0.00214027
0.0021123
0.00192242
0.00132268
0.00102045
-0.00177664
0.00299249
-0.00800269
-0.0147735
0.0887325
0.169876
-0.272391
-1.2416
-2.25488
-2.73327
-2.51795
-1.80054
-1.00577
-0.425678
-0.126731
-0.0168408
0.00175631
0.000735917
0.000101866
-6.49637e-06
-1.4229e-06
4.66859e-07
4.67985e-07
1.86432e-07
-1.71711e-08
-4.89074e-08
-1.49385e-08
3.81505e-09
3.3676e-09
4.92764e-10
-2.91098e-10
-8.19857e-11
1.56071e-11
9.80722e-12
-1.64883e-13
-1.12331e-12
-1.17697e-13
1.02836e-13
2.92289e-14
1.94096e-15
-2.55302e-16
-4.13261e-17
-7.3604e-18
-1.60256e-18
-4.70097e-19
0.000112225
0.000143921
-0.000299943
0.000336893
-0.00135115
-0.00252556
0.00564017
-0.0199228
0.076918
0.204749
-0.362807
-1.65581
-3.19795
-4.09931
-3.97261
-3.08987
-1.89799
-0.903491
-0.319719
-0.0689981
0.000408739
0.000346936
0.000177101
5.01838e-05
2.97869e-06
6.24132e-07
4.16164e-07
1.29741e-07
-6.78505e-08
-7.38381e-08
-1.98652e-08
6.48898e-09
4.7762e-09
4.50649e-10
-6.23558e-10
-1.82335e-10
2.50315e-11
1.84172e-11
2.67895e-13
-1.93559e-12
-1.17189e-13
2.50206e-13
6.86708e-14
-2.02481e-15
-3.20278e-15
-6.92364e-16
-1.27956e-16
-2.72873e-17
-6.03184e-18
-1.39874e-18
-0.000530811
1.22753e-05
-0.00167988
0.00343976
-0.00945761
0.0144058
0.00271864
0.0444572
0.240752
-0.79372
-2.71404
-4.90862
-6.33887
-6.21597
-5.06581
-3.34387
-1.75796
-0.715512
-0.207909
-0.0239784
0.000823999
0.000542708
9.95286e-05
-2.04836e-05
-6.71202e-06
-1.29669e-07
4.34153e-08
-1.00733e-07
-8.93758e-08
-2.16369e-08
9.05804e-09
5.57591e-09
-2.28351e-11
-1.1064e-09
-2.93576e-10
5.83999e-11
3.58907e-11
1.12298e-12
-3.44943e-12
-2.62467e-13
4.06142e-13
9.54521e-14
-2.18549e-14
-1.08008e-14
-2.15214e-15
-3.46738e-16
-8.16579e-17
-2.04058e-17
-4.93853e-18
-1.19132e-18
-0.00166243
0.00099459
-0.00529062
0.0131875
-0.0301964
0.0859769
0.00498552
0.231682
-1.9726
-5.42477
-8.61008
-10.4755
-10.0988
-8.23379
-5.6057
-3.14151
-1.4136
-0.488737
-0.109309
-0.001591
-0.000378412
-0.000238712
-7.2268e-05
-2.34147e-07
1.42091e-06
6.20359e-08
-2.39289e-07
-1.25622e-07
-1.44259e-08
1.61601e-08
6.87562e-09
-6.7427e-10
-1.46601e-09
-2.74865e-10
1.53562e-10
6.75482e-11
4.4152e-13
-6.59912e-12
-7.53172e-13
4.91922e-13
5.31922e-14
-8.14144e-14
-3.1495e-14
-4.28065e-15
-1.53867e-16
-6.17472e-17
-2.39464e-17
-7.75125e-18
-2.21762e-18
-6.00224e-19
-0.0061632
0.00406645
-0.0165311
0.0463626
-0.0727653
0.237456
-0.662173
-5.37198
-11.9914
-16.9318
-18.8556
-17.4197
-13.7303
-9.26702
-5.31872
-2.54789
-0.984228
-0.289124
-0.0440815
-0.000296325
7.91855e-05
8.28675e-05
2.75545e-05
-5.85785e-07
-1.00494e-06
-2.33941e-07
1.3492e-08
3.49553e-08
2.05912e-08
4.28752e-09
-2.26953e-09
-1.55008e-09
-3.93448e-11
3.1555e-10
1.09539e-10
-7.17293e-12
-1.21308e-11
-1.6002e-12
6.97317e-13
1.4419e-14
-1.36656e-13
-4.7454e-14
-1.47846e-15
1.92661e-15
3.59301e-16
5.28886e-17
5.90325e-18
-2.6151e-19
-4.2664e-19
-1.75982e-19
-0.017402
0.0103912
-0.0508593
0.128127
-1.89781
-8.24674
-17.9123
-27.8222
-35.491
-35.9751
-31.533
-23.7953
-15.5662
-8.85807
-4.35051
-1.80334
-0.606002
-0.15267
-0.0150454
-0.00039458
-6.66813e-05
-2.02318e-05
-8.81455e-07
2.49489e-06
8.34257e-07
-1.2042e-07
-4.16763e-08
-1.31213e-09
-2.56962e-09
-4.06176e-09
-1.68458e-09
2.69057e-10
4.35644e-10
1.07165e-10
-3.22234e-11
-1.88546e-11
-1.33344e-12
1.71003e-12
3.18978e-13
-7.40326e-14
-9.60715e-15
1.80411e-14
7.4106e-15
1.32005e-15
2.28229e-16
4.69472e-17
8.78815e-18
1.31827e-18
1.17323e-19
-1.46609e-20
-1.18549
-4.79745
-13.0517
-27.2776
-43.8792
-58.7346
-69.7121
-74.2937
-70.1187
-58.2271
-42.2083
-26.7431
-14.8887
-7.29568
-3.12135
-1.14011
-0.340866
-0.0753177
-0.00598044
0.000264356
0.000182625
7.18823e-05
1.0809e-05
-2.5638e-06
-1.79734e-06
-5.21034e-07
-4.46071e-08
-7.0596e-09
-4.07908e-09
-1.34423e-09
2.6719e-10
3.65616e-10
4.96222e-11
-5.89708e-11
-2.47092e-11
-2.3381e-14
2.61183e-12
5.30695e-13
-7.68104e-14
1.20609e-14
2.88469e-14
1.06302e-14
1.45752e-15
2.39258e-16
7.20381e-17
1.87264e-17
4.07831e-18
7.43243e-19
1.08457e-19
1.00253e-20
-84.2942
-104.419
-128.353
-149.764
-163.361
-161.671
-150.742
-130.786
-103.54
-73.3971
-46.0771
-25.5628
-12.5693
-5.48422
-2.10691