/*--------------------------------*- C++ -*----------------------------------*\
| =========                 |                                                 |
| \\      /  F ield         | OpenFOAM: The Open Source CFD Toolbox           |
|  \\    /   O peration     | Version:  v2006                                 |
|   \\  /    A nd           | Website:  www.openfoam.com                      |
|    \\/     M anipulation  |                                                 |
\*---------------------------------------------------------------------------*/
FoamFile
{
    version     2.0;
    format      ascii;
    class       volVectorField;
    location    "0";
    object      U;
}
// * * * * * * * * * * * * * * * * * * * * * * * * * * * * * * * * * * * * * //

dimensions      [0 1 -1 0 0 0 0];


internalField   nonuniform List<vector> 
20000
(
(1 5.19076e-12 0)
(1 1.51638e-11 0)
(1 2.76951e-11 0)
(1 4.4115e-11 0)
(1 6.43106e-11 0)
(1 8.75243e-11 0)
(1 1.12832e-10 0)
(1 1.39543e-10 0)
(1 1.67231e-10 0)
(1 1.95563e-10 0)
(1 2.2407e-10 0)
(1 2.51933e-10 0)
(1 2.77879e-10 0)
(1 3.00203e-10 0)
(1 3.16943e-10 0)
(1 3.26184e-10 0)
(1 3.26339e-10 0)
(1 3.16125e-10 0)
(1 2.9471e-10 0)
(1 2.62364e-10 0)
(1 2.2057e-10 0)
(1 1.71767e-10 0)
(1 1.18925e-10 0)
(1 6.50186e-11 0)
(1 1.26483e-11 0)
(1 -3.61527e-11 0)
(1 -7.98439e-11 0)
(1 -1.1671e-10 0)
(1 -1.43614e-10 0)
(1 -1.56655e-10 0)
(1 -1.53863e-10 0)
(1 -1.38848e-10 0)
(1 -1.36228e-10 0)
(1 -1.60245e-10 0)
(1 -2.17304e-10 0)
(1 -3.11543e-10 0)
(1 -4.47544e-10 0)
(1 -6.31499e-10 0)
(1 -8.71721e-10 0)
(1 -1.17897e-09 0)
(1 -1.56676e-09 0)
(1 -2.05169e-09 0)
(1 -2.65385e-09 0)
(1 -3.39737e-09 0)
(1 -4.31141e-09 0)
(1 -5.43167e-09 0)
(1 -6.80198e-09 0)
(1 -8.47572e-09 0)
(1 -1.05171e-08 0)
(1 -1.30021e-08 0)
(1 -1.60191e-08 0)
(1 -1.9668e-08 0)
(1 -2.40575e-08 0)
(1 -2.93021e-08 0)
(1 -3.5521e-08 0)
(1 -4.28373e-08 0)
(1 -5.13797e-08 0)
(1 -6.12818e-08 0)
(1 -7.26623e-08 0)
(1 -8.55595e-08 0)
(1 -9.98967e-08 0)
(1 -1.15646e-07 0)
(1.00001 -1.32979e-07 0)
(1.00001 -1.515e-07 0)
(1.00001 -1.68612e-07 0)
(1.00001 -1.80731e-07 0)
(1.00001 -1.91551e-07 0)
(1.00001 -2.17029e-07 0)
(1.00001 -2.57338e-07 0)
(1.00001 -2.3564e-07 0)
(1.00002 -2.914e-08 0)
(1.00002 2.97243e-07 0)
(1.00001 5.94445e-07 0)
(1.00001 8.06918e-07 0)
(1.00001 9.47038e-07 0)
(1.00001 1.04924e-06 0)
(1.00001 1.14404e-06 0)
(1.00001 1.24978e-06 0)
(1 1.37118e-06 0)
(1 1.49994e-06 0)
(0.999999 1.61728e-06 0)
(0.999996 1.69876e-06 0)
(0.999994 1.72167e-06 0)
(0.999991 1.67146e-06 0)
(0.999988 1.54509e-06 0)
(0.999985 1.35062e-06 0)
(0.999982 1.10455e-06 0)
(0.999979 8.24652e-07 0)
(0.999975 5.24704e-07 0)
(0.999972 2.15863e-07 0)
(0.99997 -9.18628e-08 0)
(0.999967 -3.87623e-07 0)
(0.999965 -6.58955e-07 0)
(0.999962 -8.92501e-07 0)
(0.999961 -1.07547e-06 0)
(0.999959 -1.19723e-06 0)
(0.999958 -1.25123e-06 0)
(0.999957 -1.236e-06 0)
(0.999956 -1.15433e-06 0)
(0.999956 -1.01653e-06 0)
(0.999956 -8.52806e-07 0)
(0.999956 -7.21697e-07 0)
(0.999957 -6.50728e-07 0)
(0.999959 -6.35913e-07 0)
(0.999961 -6.66899e-07 0)
(0.999965 -7.31199e-07 0)
(0.999969 -8.086e-07 0)
(0.999975 -8.60121e-07 0)
(0.999981 -8.17733e-07 0)
(0.999988 -5.84252e-07 0)
(0.999994 -5.97903e-08 0)
(0.999999 8.02345e-07 0)
(1 1.89805e-06 0)
(1 2.86502e-06 0)
(1 3.47305e-06 0)
(1 3.7677e-06 0)
(0.999997 3.84414e-06 0)
(0.999994 3.76321e-06 0)
(0.999991 3.55271e-06 0)
(0.999987 3.22481e-06 0)
(0.999982 2.78855e-06 0)
(0.999978 2.25618e-06 0)
(0.999973 1.64611e-06 0)
(0.999968 9.81687e-07 0)
(0.999963 2.91513e-07 0)
(0.999958 -3.91543e-07 0)
(0.999954 -1.03284e-06 0)
(0.999949 -1.59909e-06 0)
(0.999945 -2.06146e-06 0)
(0.999942 -2.39824e-06 0)
(0.999939 -2.59737e-06 0)
(0.999937 -2.65732e-06 0)
(0.999935 -2.58665e-06 0)
(0.999933 -2.40306e-06 0)
(0.999932 -2.13042e-06 0)
(0.999932 -1.7985e-06 0)
(0.999931 -1.44997e-06 0)
(0.999932 -1.14731e-06 0)
(0.999932 -9.4143e-07 0)
(0.999934 -8.25671e-07 0)
(0.999936 -7.76279e-07 0)
(0.999939 -7.65819e-07 0)
(0.999942 -7.65879e-07 0)
(0.999946 -7.52226e-07 0)
(0.999951 -7.10874e-07 0)
(0.999955 -6.41555e-07 0)
(0.999959 -5.56137e-07 0)
(0.999962 -4.71873e-07 0)
(0.999965 -4.02949e-07 0)
(0.999967 -3.55487e-07 0)
(0.999969 -3.28161e-07 0)
(0.999971 -3.15712e-07 0)
(0.999973 -3.11968e-07 0)
(0.999975 -3.1148e-07 0)
(0.999978 -3.10274e-07 0)
(0.99998 -3.05989e-07 0)
(0.999982 -2.97627e-07 0)
(0.999984 -2.8516e-07 0)
(0.999985 -2.69159e-07 0)
(0.999987 -2.50499e-07 0)
(0.999989 -2.30139e-07 0)
(0.99999 -2.08984e-07 0)
(0.999992 -1.87809e-07 0)
(0.999993 -1.67227e-07 0)
(0.999994 -1.4769e-07 0)
(0.999995 -1.29498e-07 0)
(0.999995 -1.12828e-07 0)
(0.999996 -9.77528e-08 0)
(0.999997 -8.42723e-08 0)
(0.999997 -7.23302e-08 0)
(0.999998 -6.18349e-08 0)
(0.999998 -5.26734e-08 0)
(0.999998 -4.47223e-08 0)
(0.999999 -3.78561e-08 0)
(0.999999 -3.19524e-08 0)
(0.999999 -2.68954e-08 0)
(0.999999 -2.25772e-08 0)
(0.999999 -1.88987e-08 0)
(1 -1.5769e-08 0)
(1 -1.31054e-08 0)
(1 -1.08324e-08 0)
(1 -8.88317e-09 0)
(1 -7.19916e-09 0)
(1 -5.73174e-09 0)
(1 -4.44295e-09 0)
(1 -3.30601e-09 0)
(1 -2.30565e-09 0)
(1 -1.43839e-09 0)
(1 -7.11552e-10 0)
(1 -1.39771e-10 0)
(1 2.62661e-10 0)
(1 4.92333e-10 0)
(1 5.65032e-10 0)
(1 5.15945e-10 0)
(1 3.89196e-10 0)
(1 2.2943e-10 0)
(1 6.0953e-11 0)
(1 -7.34582e-11 0)
(1 -2.37957e-10 0)
(1 -3.16445e-10 0)
(1 9.16071e-12 0)
(1 2.56404e-11 0)
(1 4.31758e-11 0)
(1 6.29007e-11 0)
(1 8.50974e-11 0)
(1 1.09839e-10 0)
(1 1.36711e-10 0)
(1 1.65226e-10 0)
(1 1.94948e-10 0)
(1 2.25439e-10 0)
(1 2.56162e-10 0)
(1 2.86401e-10 0)
(1 3.15259e-10 0)
(1 3.41727e-10 0)
(1 3.64824e-10 0)
(1 3.83786e-10 0)
(1 3.98172e-10 0)
(1 4.07845e-10 0)
(1 4.13242e-10 0)
(1 4.15546e-10 0)
(1 4.16084e-10 0)
(1 4.15967e-10 0)
(1 4.15773e-10 0)
(1 4.15258e-10 0)
(1 4.13278e-10 0)
(1 4.07861e-10 0)
(1 3.96514e-10 0)
(1 3.76836e-10 0)
(1 3.46921e-10 0)
(1 3.04424e-10 0)
(1 2.45435e-10 0)
(1 1.63026e-10 0)
(1 3.41034e-11 0)
(1 -1.5569e-10 0)
(1 -4.18173e-10 0)
(1 -7.68167e-10 0)
(1 -1.2244e-09 0)
(1 -1.8102e-09 0)
(1 -2.55438e-09 0)
(1 -3.49209e-09 0)
(1 -4.666e-09 0)
(1 -6.12743e-09 0)
(1 -7.9377e-09 0)
(1 -1.01699e-08 0)
(1 -1.29121e-08 0)
(1 -1.62716e-08 0)
(1 -2.03802e-08 0)
(1 -2.53981e-08 0)
(1 -3.15177e-08 0)
(1 -3.89669e-08 6.97996e-43)
(1 -4.80109e-08 6.58448e-43)
(1 -5.89493e-08 0)
(1 -7.21087e-08 0)
(1 -8.78329e-08 0)
(1 -1.06479e-07 0)
(1 -1.28419e-07 0)
(1 -1.54036e-07 0)
(1 -1.83712e-07 0)
(1 -2.17775e-07 0)
(1 -2.56426e-07 0)
(1 -2.99669e-07 0)
(1 -3.47259e-07 0)
(1.00001 -3.98566e-07 0)
(1.00001 -4.52104e-07 0)
(1.00001 -5.04934e-07 0)
(1.00001 -5.53341e-07 0)
(1.00001 -5.95772e-07 0)
(1.00001 -6.33091e-07 0)
(1.00001 -6.54778e-07 0)
(1.00001 -6.13588e-07 0)
(1.00002 -4.51839e-07 0)
(1.00002 -2.4322e-07 0)
(1.00002 -8.20976e-08 0)
(1.00002 1.81413e-08 0)
(1.00003 6.96314e-08 0)
(1.00003 8.01375e-08 0)
(1.00003 4.86122e-08 0)
(1.00004 -2.56545e-08 0)
(1.00004 -1.32084e-07 0)
(1.00005 -2.43109e-07 0)
(1.00005 -3.18165e-07 0)
(1.00006 -3.17743e-07 0)
(1.00007 -2.22352e-07 0)
(1.00007 -3.71393e-08 0)
(1.00008 2.10996e-07 0)
(1.00008 5.02849e-07 0)
(1.00008 7.98239e-07 0)
(1.00008 1.08536e-06 0)
(1.00008 1.35885e-06 0)
(1.00007 1.61272e-06 0)
(1.00007 1.83861e-06 0)
(1.00006 2.02596e-06 0)
(1.00005 2.16272e-06 0)
(1.00004 2.23651e-06 0)
(1.00003 2.23772e-06 0)
(1.00002 2.16289e-06 0)
(1.00001 2.01443e-06 0)
(0.999995 1.79866e-06 0)
(0.999985 1.52532e-06 0)
(0.999977 1.20465e-06 0)
(0.999971 8.39051e-07 0)
(0.999967 4.10314e-07 0)
(0.999964 -7.62433e-08 0)
(0.999964 -5.98324e-07 0)
(0.999965 -1.13708e-06 0)
(0.999967 -1.67645e-06 0)
(0.999971 -2.19898e-06 0)
(0.999977 -2.68136e-06 0)
(0.999983 -3.09042e-06 0)
(0.999992 -3.38169e-06 0)
(1 -3.50705e-06 0)
(1.00002 -3.43138e-06 0)
(1.00003 -3.18137e-06 0)
(1.00005 -2.93902e-06 0)
(1.00007 -2.77673e-06 0)
(1.00009 -2.60579e-06 0)
(1.00011 -2.35532e-06 0)
(1.00013 -1.99559e-06 0)
(1.00015 -1.52267e-06 0)
(1.00016 -9.44266e-07 0)
(1.00017 -2.74964e-07 0)
(1.00018 4.64054e-07 0)
(1.00018 1.23849e-06 0)
(1.00018 2.01231e-06 0)
(1.00018 2.74674e-06 0)
(1.00016 3.40149e-06 0)
(1.00015 3.93889e-06 0)
(1.00013 4.32804e-06 0)
(1.00011 4.54854e-06 0)
(1.00009 4.59278e-06 0)
(1.00006 4.46604e-06 0)
(1.00004 4.18523e-06 0)
(1.00002 3.77673e-06 0)
(0.999998 3.27364e-06 0)
(0.999981 2.71344e-06 0)
(0.999967 2.13154e-06 0)
(0.999956 1.5494e-06 0)
(0.999949 9.63887e-07 0)
(0.999944 3.68118e-07 0)
(0.999941 -2.14189e-07 0)
(0.999941 -7.54861e-07 0)
(0.999942 -1.22097e-06 0)
(0.999944 -1.57286e-06 0)
(0.999948 -1.7757e-06 0)
(0.999952 -1.81735e-06 0)
(0.999955 -1.71987e-06 0)
(0.999959 -1.53611e-06 0)
(0.999962 -1.33049e-06 0)
(0.999965 -1.15438e-06 0)
(0.999967 -1.03197e-06 0)
(0.999969 -9.62952e-07 0)
(0.999971 -9.33958e-07 0)
(0.999973 -9.28039e-07 0)
(0.999975 -9.29896e-07 0)
(0.999978 -9.28295e-07 0)
(0.99998 -9.16628e-07 0)
(0.999982 -8.9221e-07 0)
(0.999984 -8.55157e-07 0)
(0.999985 -8.07319e-07 0)
(0.999987 -7.51401e-07 0)
(0.999989 -6.90332e-07 0)
(0.99999 -6.26853e-07 0)
(0.999992 -5.63307e-07 0)
(0.999993 -5.01544e-07 0)
(0.999994 -4.4292e-07 0)
(0.999995 -3.8834e-07 0)
(0.999996 -3.38328e-07 0)
(0.999996 -2.93109e-07 0)
(0.999997 -2.52675e-07 0)
(0.999997 -2.1686e-07 0)
(0.999998 -1.85386e-07 0)
(0.999998 -1.57914e-07 0)
(0.999998 -1.34073e-07 0)
(0.999999 -1.13485e-07 0)
(0.999999 -9.57802e-08 0)
(0.999999 -8.06117e-08 0)
(0.999999 -6.76575e-08 0)
(0.999999 -5.66253e-08 0)
(1 -4.72534e-08 0)
(1 -3.9309e-08 0)
(1 -3.25874e-08 0)
(1 -2.69099e-08 0)
(1 -2.2121e-08 0)
(1 -1.80869e-08 0)
(1 -1.46932e-08 0)
(1 -1.1843e-08 0)
(1 -9.45499e-09 0)
(1 -7.46233e-09 0)
(1 -5.81123e-09 0)
(1 -4.45874e-09 0)
(1 -3.36928e-09 0)
(1 -2.50949e-09 0)
(1 -1.84477e-09 0)
(1 -1.33839e-09 0)
(1 -9.54959e-10 0)
(1 -6.62779e-10 0)
(1 -4.42711e-10 0)
(1 -2.59861e-10 0)
(1 -1.6348e-10 0)
(1 3.3232e-11 0)
(1 1.02771e-11 0)
(1 2.74972e-11 0)
(1 4.37832e-11 0)
(1 5.93012e-11 0)
(1 7.54411e-11 0)
(1 9.40563e-11 0)
(1 1.15784e-10 0)
(1 1.40511e-10 0)
(1 1.67812e-10 0)
(1 1.97218e-10 0)
(1 2.28394e-10 0)
(1 2.61246e-10 0)
(1 2.95952e-10 0)
(1 3.32918e-10 0)
(1 3.72692e-10 0)
(1 4.1583e-10 0)
(1 4.62794e-10 0)
(1 5.13955e-10 0)
(1 5.69563e-10 0)
(1 6.29209e-10 0)
(1 6.91355e-10 0)
(1 7.53561e-10 0)
(1 8.12713e-10 0)
(1 8.65212e-10 0)
(1 9.07147e-10 0)
(1 9.34382e-10 0)
(1 9.42511e-10 0)
(1 9.26401e-10 0)
(1 8.79225e-10 0)
(1 7.91937e-10 0)
(1 6.54177e-10 0)
(1 4.54913e-10 0)
(1 1.84808e-10 0)
(1 -1.71262e-10 0)
(1 -6.35386e-10 0)
(1 -1.23578e-09 0)
(1 -2.00654e-09 0)
(1 -2.98866e-09 0)
(1 -4.23149e-09 0)
(1 -5.7945e-09 0)
(1 -7.74928e-09 0)
(1 -1.01817e-08 0)
(1 -1.31939e-08 0)
(1 -1.69079e-08 0)
(1 -2.14702e-08 0)
(1 -2.70596e-08 0)
(1 -3.38953e-08 0)
(1 -4.22442e-08 0)
(1 -5.24265e-08 0)
(1 -6.48215e-08 0)
(1 -7.98704e-08 0)
(1 -9.80728e-08 0)
(1 -1.19973e-07 0)
(1 -1.46143e-07 0)
(1 -1.77178e-07 0)
(1 -2.13699e-07 0)
(1 -2.56349e-07 0)
(1 -3.0576e-07 0)
(1 -3.62482e-07 0)
(1 -4.26891e-07 0)
(1 -4.99052e-07 0)
(1 -5.78486e-07 0)
(1.00001 -6.63859e-07 0)
(1.00001 -7.52858e-07 0)
(1.00001 -8.42241e-07 0)
(1.00001 -9.27043e-07 0)
(1.00001 -9.97977e-07 0)
(1.00001 -1.04077e-06 0)
(1.00001 -1.04726e-06 0)
(1.00001 -1.03711e-06 0)
(1.00002 -1.0479e-06 0)
(1.00002 -1.06385e-06 0)
(1.00002 -1.04298e-06 0)
(1.00002 -9.80935e-07 0)
(1.00002 -9.11882e-07 0)
(1.00002 -8.8506e-07 0)
(1.00002 -9.44708e-07 0)
(1.00002 -1.11297e-06 0)
(1.00002 -1.3731e-06 0)
(1.00002 -1.65948e-06 0)
(1.00003 -1.86807e-06 0)
(1.00003 -1.89333e-06 0)
(1.00003 -1.67236e-06 0)
(1.00003 -1.20956e-06 0)
(1.00003 -5.61797e-07 0)
(1.00003 1.90347e-07 0)
(1.00003 9.83373e-07 0)
(1.00003 1.77581e-06 0)
(1.00003 2.54508e-06 0)
(1.00002 3.2742e-06 0)
(1.00002 3.9417e-06 0)
(1.00001 4.51964e-06 0)
(1.00001 4.97452e-06 0)
(1 5.27069e-06 0)
(0.999994 5.3791e-06 0)
(0.999988 5.28584e-06 0)
(0.999981 4.99311e-06 0)
(0.999976 4.51404e-06 0)
(0.999971 3.86795e-06 0)
(0.999966 3.08023e-06 0)
(0.999963 2.18489e-06 0)
(0.999961 1.22455e-06 0)
(0.99996 2.34014e-07 0)
(0.999961 -7.64312e-07 0)
(0.999963 -1.75331e-06 0)
(0.999966 -2.71726e-06 0)
(0.99997 -3.64253e-06 0)
(0.999975 -4.51987e-06 0)
(0.999982 -5.34645e-06 0)
(0.99999 -6.12587e-06 0)
(0.999998 -6.86126e-06 0)
(1.00001 -7.53943e-06 0)
(1.00002 -8.10441e-06 0)
(1.00003 -8.43435e-06 0)
(1.00004 -8.44319e-06 0)
(1.00005 -8.12838e-06 0)
(1.00006 -7.51188e-06 0)
(1.00006 -6.60805e-06 0)
(1.00007 -5.42701e-06 0)
(1.00008 -3.98464e-06 0)
(1.00008 -2.31066e-06 0)
(1.00008 -4.52215e-07 0)
(1.00008 1.52316e-06 0)
(1.00008 3.53188e-06 0)
(1.00007 5.47612e-06 0)
(1.00006 7.2513e-06 0)
(1.00005 8.75666e-06 0)
(1.00004 9.90613e-06 0)
(1.00003 1.06382e-05 0)
(1.00001 1.09231e-05 0)
(1 1.07648e-05 0)
(0.999988 1.01988e-05 0)
(0.999976 9.28612e-06 0)
(0.999965 8.10771e-06 0)
(0.999956 6.75536e-06 0)
(0.999949 5.3188e-06 0)
(0.999943 3.87542e-06 0)
(0.99994 2.48767e-06 0)
(0.999938 1.19801e-06 0)
(0.999937 2.53553e-08 0)
(0.999938 -1.0132e-06 0)
(0.99994 -1.88313e-06 0)
(0.999943 -2.53154e-06 0)
(0.999947 -2.90889e-06 0)
(0.999951 -3.00087e-06 0)
(0.999955 -2.84929e-06 0)
(0.999959 -2.54706e-06 0)
(0.999962 -2.20574e-06 0)
(0.999965 -1.91358e-06 0)
(0.999967 -1.71162e-06 0)
(0.999969 -1.59906e-06 0)
(0.999971 -1.5531e-06 0)
(0.999973 -1.54518e-06 0)
(0.999975 -1.54966e-06 0)
(0.999978 -1.54783e-06 0)
(0.99998 -1.52878e-06 0)
(0.999982 -1.48815e-06 0)
(0.999984 -1.42627e-06 0)
(0.999985 -1.34631e-06 0)
(0.999987 -1.25284e-06 0)
(0.999989 -1.1508e-06 0)
(0.99999 -1.04477e-06 0)
(0.999992 -9.38679e-07 0)
(0.999993 -8.35606e-07 0)
(0.999994 -7.37807e-07 0)
(0.999995 -6.46785e-07 0)
(0.999996 -5.63408e-07 0)
(0.999996 -4.88041e-07 0)
(0.999997 -4.20667e-07 0)
(0.999997 -3.61001e-07 0)
(0.999998 -3.08578e-07 0)
(0.999998 -2.62828e-07 0)
(0.999998 -2.2313e-07 0)
(0.999999 -1.88852e-07 0)
(0.999999 -1.59379e-07 0)
(0.999999 -1.34129e-07 0)
(0.999999 -1.12567e-07 0)
(0.999999 -9.42063e-08 0)
(1 -7.86138e-08 0)
(1 -6.54049e-08 0)
(1 -5.42429e-08 0)
(1 -4.48344e-08 0)
(1 -3.69246e-08 0)
(1 -3.02934e-08 0)
(1 -2.47507e-08 0)
(1 -2.01321e-08 0)
(1 -1.62955e-08 0)
(1 -1.31174e-08 0)
(1 -1.04899e-08 0)
(1 -8.31846e-09 0)
(1 -6.52194e-09 0)
(1 -5.03296e-09 0)
(1 -3.79905e-09 0)
(1 -2.78124e-09 0)
(1 -1.94969e-09 0)
(1 -1.28055e-09 0)
(1 -7.47709e-10 0)
(1 -3.37501e-10 0)
(1 -9.18566e-12 0)
(1 3.12009e-10 0)
(1 1.47788e-11 0)
(1 4.00062e-11 0)
(1 6.62353e-11 0)
(1 9.37571e-11 0)
(1 1.24437e-10 0)
(1 1.60347e-10 0)
(1 2.01716e-10 0)
(1 2.47911e-10 0)
(1 2.98091e-10 0)
(1 3.51485e-10 0)
(1 4.07483e-10 0)
(1 4.65628e-10 0)
(1 5.25555e-10 0)
(1 5.86915e-10 0)
(1 6.49332e-10 0)
(1 7.12411e-10 0)
(1 7.75765e-10 0)
(1 8.38941e-10 0)
(1 9.01216e-10 0)
(1 9.61521e-10 0)
(1 1.01859e-09 0)
(1 1.07103e-09 0)
(1 1.11712e-09 0)
(1 1.15461e-09 0)
(1 1.18053e-09 0)
(1 1.19096e-09 0)
(1 1.18088e-09 0)
(1 1.14382e-09 0)
(1 1.07169e-09 0)
(1 9.54684e-10 0)
(1 7.79994e-10 0)
(1 5.30045e-10 0)
(1 1.83518e-10 0)
(1 -2.87667e-10 0)
(1 -9.16197e-10 0)
(1 -1.74045e-09 0)
(1 -2.80662e-09 0)
(1 -4.17073e-09 0)
(1 -5.90082e-09 0)
(1 -8.07929e-09 0)
(1 -1.08057e-08 0)
(1 -1.41996e-08 0)
(1 -1.84037e-08 0)
(1 -2.3588e-08 0)
(1 -2.99571e-08 0)
(1 -3.77607e-08 0)
(1 -4.73052e-08 0)
(1 -5.89634e-08 0)
(1 -7.31826e-08 0)
(1 -9.04923e-08 0)
(1 -1.1151e-07 0)
(1 -1.36933e-07 0)
(1 -1.67524e-07 0)
(1 -2.04084e-07 0)
(1 -2.47445e-07 0)
(1 -2.98477e-07 0)
(1 -3.58086e-07 0)
(1 -4.27172e-07 0)
(1 -5.06527e-07 0)
(1 -5.96673e-07 0)
(1 -6.9769e-07 0)
(1 -8.08998e-07 0)
(1.00001 -9.29014e-07 0)
(1.00001 -1.0545e-06 0)
(1.00001 -1.17974e-06 0)
(1.00001 -1.29648e-06 0)
(1.00001 -1.39541e-06 0)
(1.00001 -1.4681e-06 0)
(1.00001 -1.50543e-06 0)
(1.00001 -1.49235e-06 0)
(1.00002 -1.41102e-06 0)
(1.00002 -1.25303e-06 0)
(1.00002 -1.04427e-06 0)
(1.00002 -8.31341e-07 0)
(1.00002 -6.60921e-07 0)
(1.00002 -5.78274e-07 0)
(1.00002 -6.22604e-07 0)
(1.00002 -8.12412e-07 0)
(1.00002 -1.12292e-06 0)
(1.00002 -1.46998e-06 0)
(1.00003 -1.72146e-06 0)
(1.00003 -1.74458e-06 0)
(1.00003 -1.46528e-06 0)
(1.00003 -8.95921e-07 0)
(1.00003 -1.13069e-07 0)
(1.00003 7.7845e-07 0)
(1.00003 1.70346e-06 0)
(1.00003 2.61369e-06 0)
(1.00003 3.48734e-06 0)
(1.00002 4.30805e-06 0)
(1.00002 5.05179e-06 0)
(1.00001 5.68615e-06 0)
(1.00001 6.17198e-06 0)
(1 6.46752e-06 0)
(0.999994 6.53962e-06 0)
(0.999988 6.37469e-06 0)
(0.999981 5.97893e-06 0)
(0.999975 5.36998e-06 0)
(0.99997 4.57075e-06 0)
(0.999966 3.60835e-06 0)
(0.999963 2.51288e-06 0)
(0.999961 1.31751e-06 0)
(0.99996 5.21056e-08 0)
(0.999961 -1.25424e-06 0)
(0.999962 -2.57235e-06 0)
(0.999965 -3.8743e-06 0)
(0.99997 -5.13176e-06 0)
(0.999975 -6.31301e-06 0)
(0.999982 -7.3805e-06 0)
(0.999989 -8.29138e-06 0)
(0.999998 -9.00258e-06 0)
(1.00001 -9.48187e-06 0)
(1.00002 -9.71753e-06 0)
(1.00003 -9.70505e-06 0)
(1.00004 -9.44856e-06 0)
(1.00005 -8.93792e-06 0)
(1.00006 -8.14395e-06 0)
(1.00006 -7.04304e-06 0)
(1.00007 -5.62747e-06 0)
(1.00008 -3.91015e-06 0)
(1.00008 -1.92603e-06 0)
(1.00008 2.66753e-07 0)
(1.00008 2.58923e-06 0)
(1.00008 4.9393e-06 0)
(1.00007 7.1991e-06 0)
(1.00006 9.24461e-06 0)
(1.00005 1.09573e-05 0)
(1.00004 1.22373e-05 0)
(1.00003 1.3015e-05 0)
(1.00001 1.32599e-05 0)
(1 1.2982e-05 0)
(0.999987 1.22278e-05 0)
(0.999975 1.10736e-05 0)
(0.999965 9.61773e-06 0)
(0.999956 7.97039e-06 0)
(0.999948 6.23659e-06 0)
(0.999943 4.49868e-06 0)
(0.999939 2.81103e-06 0)
(0.999937 1.20701e-06 0)
(0.999937 -2.89891e-07 0)
(0.999938 -1.64538e-06 0)
(0.99994 -2.79885e-06 0)
(0.999943 -3.66446e-06 0)
(0.999947 -4.16247e-06 0)
(0.999951 -4.26558e-06 0)
(0.999955 -4.02942e-06 0)
(0.999959 -3.58512e-06 0)
(0.999962 -3.09169e-06 0)
(0.999965 -2.67416e-06 0)
(0.999967 -2.3889e-06 0)
(0.999969 -2.23238e-06 0)
(0.999971 -2.17055e-06 0)
(0.999973 -2.16209e-06 0)
(0.999975 -2.17042e-06 0)
(0.999978 -2.16911e-06 0)
(0.99998 -2.14296e-06 0)
(0.999982 -2.08605e-06 0)
(0.999984 -1.99904e-06 0)
(0.999985 -1.88653e-06 0)
(0.999987 -1.75508e-06 0)
(0.999989 -1.61164e-06 0)
(0.99999 -1.46272e-06 0)
(0.999992 -1.3138e-06 0)
(0.999993 -1.16921e-06 0)
(0.999994 -1.0321e-06 0)
(0.999995 -9.04552e-07 0)
(0.999996 -7.87775e-07 0)
(0.999996 -6.82259e-07 0)
(0.999997 -5.87969e-07 0)
(0.999997 -5.04492e-07 0)
(0.999998 -4.3117e-07 0)
(0.999998 -3.67197e-07 0)
(0.999998 -3.11699e-07 0)
(0.999999 -2.63787e-07 0)
(0.999999 -2.22597e-07 0)
(0.999999 -1.87316e-07 0)
(0.999999 -1.57191e-07 0)
(0.999999 -1.31541e-07 0)
(1 -1.09757e-07 0)
(1 -9.12993e-08 0)
(1 -7.5693e-08 0)
(1 -6.25245e-08 0)
(1 -5.14349e-08 0)
(1 -4.21147e-08 0)
(1 -3.42982e-08 0)
(1 -2.77584e-08 0)
(1 -2.23022e-08 0)
(1 -1.77663e-08 0)
(1 -1.40128e-08 0)
(1 -1.0925e-08 0)
(1 -8.40379e-09 0)
(1 -6.36337e-09 0)
(1 -4.7278e-09 0)
(1 -3.42919e-09 0)
(1 -2.40715e-09 0)
(1 -1.60892e-09 0)
(1 -9.89229e-10 0)
(1 -5.11718e-10 0)
(1 -1.48365e-10 0)
(1 2.15003e-10 0)
(1 1.90893e-11 0)
(1 5.16793e-11 0)
(1 8.51515e-11 0)
(1 1.19478e-10 0)
(1 1.56796e-10 0)
(1 1.99701e-10 0)
(1 2.48621e-10 0)
(1 3.02944e-10 0)
(1 3.61764e-10 0)
(1 4.24187e-10 0)
(1 4.89477e-10 0)
(1 5.57117e-10 0)
(1 6.26804e-10 0)
(1 6.98416e-10 0)
(1 7.71985e-10 0)
(1 8.47654e-10 0)
(1 9.25599e-10 0)
(1 1.00592e-09 0)
(1 1.08849e-09 0)
(1 1.17285e-09 0)
(1 1.25795e-09 0)
(1 1.34182e-09 0)
(1 1.42129e-09 0)
(1 1.49192e-09 0)
(1 1.54801e-09 0)
(1 1.58269e-09 0)
(1 1.5879e-09 0)
(1 1.55427e-09 0)
(1 1.47062e-09 0)
(1 1.32341e-09 0)
(1 1.09551e-09 0)
(1 7.6553e-10 0)
(1 3.08341e-10 0)
(1 -3.08221e-10 0)
(1 -1.12368e-09 0)
(1 -2.18686e-09 0)
(1 -3.55737e-09 0)
(1 -5.30762e-09 0)
(1 -7.5253e-09 0)
(1 -1.03164e-08 0)
(1 -1.38087e-08 0)
(1 -1.81559e-08 0)
(1 -2.35409e-08 0)
(1 -3.01817e-08 0)
(1 -3.83404e-08 0)
(1 -4.83374e-08 0)
(1 -6.05657e-08 0)
(1 -7.55033e-08 0)
(1 -9.37236e-08 0)
(1 -1.15905e-07 0)
(1 -1.4284e-07 0)
(1 -1.75425e-07 0)
(1 -2.14639e-07 0)
(1 -2.61512e-07 0)
(1 -3.17111e-07 0)
(1 -3.82556e-07 0)
(1 -4.59023e-07 0)
(1 -5.47686e-07 0)
(1 -6.49584e-07 0)
(1 -7.65438e-07 0)
(1 -8.95417e-07 0)
(1 -1.03881e-06 0)
(1.00001 -1.19351e-06 0)
(1.00001 -1.35538e-06 0)
(1.00001 -1.5178e-06 0)
(1.00001 -1.67118e-06 0)
(1.00001 -1.80216e-06 0)
(1.00001 -1.89366e-06 0)
(1.00001 -1.92874e-06 0)
(1.00001 -1.89936e-06 0)
(1.00002 -1.81152e-06 0)
(1.00002 -1.67481e-06 0)
(1.00002 -1.5027e-06 0)
(1.00002 -1.32029e-06 0)
(1.00002 -1.17167e-06 0)
(1.00002 -1.11875e-06 0)
(1.00002 -1.22451e-06 0)
(1.00002 -1.52386e-06 0)
(1.00002 -1.98872e-06 0)
(1.00002 -2.50462e-06 0)
(1.00003 -2.88637e-06 0)
(1.00003 -2.94529e-06 0)
(1.00003 -2.57362e-06 0)
(1.00003 -1.78547e-06 0)
(1.00003 -6.90401e-07 0)
(1.00003 5.78324e-07 0)
(1.00003 1.90034e-06 0)
(1.00003 3.20937e-06 0)
(1.00003 4.47516e-06 0)
(1.00002 5.6732e-06 0)
(1.00002 6.76839e-06 0)
(1.00001 7.71416e-06 0)
(1.00001 8.45424e-06 0)
(1 8.9278e-06 0)
(0.999994 9.08547e-06 0)
(0.999988 8.90554e-06 0)
(0.999981 8.39446e-06 0)
(0.999975 7.5759e-06 0)
(0.99997 6.48284e-06 0)
(0.999966 5.15686e-06 0)
(0.999962 3.64816e-06 0)
(0.99996 2.01047e-06 0)
(0.99996 2.92917e-07 0)
(0.99996 -1.46112e-06 0)
(0.999962 -3.21401e-06 0)
(0.999965 -4.93279e-06 0)
(0.999969 -6.58711e-06 0)
(0.999975 -8.14835e-06 0)
(0.999981 -9.58927e-06 0)
(0.999989 -1.0883e-05 0)
(0.999998 -1.2e-05 0)
(1.00001 -1.29022e-05 0)
(1.00002 -1.35376e-05 0)
(1.00003 -1.38358e-05 0)
(1.00004 -1.37332e-05 0)
(1.00005 -1.31868e-05 0)
(1.00006 -1.21716e-05 0)
(1.00006 -1.06783e-05 0)
(1.00007 -8.71343e-06 0)
(1.00008 -6.30336e-06 0)
(1.00008 -3.49972e-06 0)
(1.00008 -3.84531e-07 0)
(1.00008 2.92726e-06 0)
(1.00008 6.29124e-06 0)
(1.00007 9.54092e-06 0)
(1.00006 1.24997e-05 0)
(1.00005 1.49974e-05 0)
(1.00004 1.68896e-05 0)
(1.00003 1.80741e-05 0)
(1.00001 1.85036e-05 0)
(1 1.81881e-05 0)
(0.999987 1.71903e-05 0)
(0.999975 1.56154e-05 0)
(0.999964 1.36019e-05 0)
(0.999955 1.13071e-05 0)
(0.999948 8.88396e-06 0)
(0.999942 6.45637e-06 0)
(0.999939 4.11049e-06 0)
(0.999937 1.90016e-06 0)
(0.999936 -1.41127e-07 0)
(0.999937 -1.97407e-06 0)
(0.999939 -3.52631e-06 0)
(0.999943 -4.68919e-06 0)
(0.999947 -5.35923e-06 0)
(0.999951 -5.50137e-06 0)
(0.999955 -5.19116e-06 0)
(0.999959 -4.6055e-06 0)
(0.999962 -3.95822e-06 0)
(0.999965 -3.41564e-06 0)
(0.999967 -3.05019e-06 0)
(0.999969 -2.85429e-06 0)
(0.999971 -2.78125e-06 0)
(0.999973 -2.77617e-06 0)
(0.999975 -2.79113e-06 0)
(0.999978 -2.79203e-06 0)
(0.99998 -2.75953e-06 0)
(0.999982 -2.68646e-06 0)
(0.999984 -2.574e-06 0)
(0.999986 -2.42843e-06 0)
(0.999987 -2.2584e-06 0)
(0.999989 -2.07301e-06 0)
(0.99999 -1.8807e-06 0)
(0.999992 -1.68856e-06 0)
(0.999993 -1.50217e-06 0)
(0.999994 -1.32555e-06 0)
(0.999995 -1.16137e-06 0)
(0.999996 -1.01114e-06 0)
(0.999996 -8.75479e-07 0)
(0.999997 -7.54305e-07 0)
(0.999997 -6.47074e-07 0)
(0.999998 -5.52922e-07 0)
(0.999998 -4.70803e-07 0)
(0.999999 -3.99583e-07 0)
(0.999999 -3.38114e-07 0)
(0.999999 -2.85281e-07 0)
(0.999999 -2.40033e-07 0)
(0.999999 -2.01406e-07 0)
(0.999999 -1.68521e-07 0)
(1 -1.40599e-07 0)
(1 -1.16947e-07 0)
(1 -9.69582e-08 0)
(1 -8.01045e-08 0)
(1 -6.59275e-08 0)
(1 -5.4031e-08 0)
(1 -4.40741e-08 0)
(1 -3.57632e-08 0)
(1 -2.88466e-08 0)
(1 -2.31079e-08 0)
(1 -1.83613e-08 0)
(1 -1.44478e-08 0)
(1 -1.12314e-08 0)
(1 -8.59736e-09 0)
(1 -6.44963e-09 0)
(1 -4.70883e-09 0)
(1 -3.30856e-09 0)
(1 -2.19323e-09 0)
(1 -1.31341e-09 0)
(1 -6.2664e-10 0)
(1 -1.07362e-10 0)
(1 4.25191e-10 0)
(1 2.33558e-11 0)
(1 6.30783e-11 0)
(1 1.03812e-10 0)
(1 1.45691e-10 0)
(1 1.91473e-10 0)
(1 2.445e-10 0)
(1 3.05383e-10 0)
(1 3.73386e-10 0)
(1 4.47371e-10 0)
(1 5.2622e-10 0)
(1 6.09029e-10 0)
(1 6.95175e-10 0)
(1 7.84283e-10 0)
(1 8.7614e-10 0)
(1 9.70617e-10 0)
(1 1.0676e-09 0)
(1 1.16696e-09 0)
(1 1.26841e-09 0)
(1 1.37137e-09 0)
(1 1.4747e-09 0)
(1 1.57649e-09 0)
(1 1.67385e-09 0)
(1 1.7629e-09 0)
(1 1.83867e-09 0)
(1 1.89518e-09 0)
(1 1.9253e-09 0)
(1 1.92058e-09 0)
(1 1.87084e-09 0)
(1 1.76345e-09 0)
(1 1.5824e-09 0)
(1 1.30728e-09 0)
(1 9.12227e-10 0)
(1 3.65092e-10 0)
(1 -3.74991e-10 0)
(1 -1.35765e-09 0)
(1 -2.6429e-09 0)
(1 -4.30331e-09 0)
(1 -6.42684e-09 0)
(1 -9.11995e-09 0)
(1 -1.25114e-08 0)
(1 -1.67566e-08 0)
(1 -2.20423e-08 0)
(1 -2.85915e-08 0)
(1 -3.66693e-08 0)
(1 -4.65946e-08 0)
(1 -5.87574e-08 0)
(1 -7.36367e-08 0)
(1 -9.1815e-08 0)
(1 -1.1399e-07 0)
(1 -1.40989e-07 0)
(1 -1.73775e-07 0)
(1 -2.13445e-07 0)
(1 -2.61194e-07 0)
(1 -3.18279e-07 0)
(1 -3.86001e-07 0)
(1 -4.65733e-07 0)
(1 -5.58926e-07 0)
(1 -6.67046e-07 0)
(1 -7.91407e-07 0)
(1 -9.32931e-07 0)
(1 -1.09187e-06 0)
(1 -1.26746e-06 0)
(1.00001 -1.45735e-06 0)
(1.00001 -1.6567e-06 0)
(1.00001 -1.85713e-06 0)
(1.00001 -2.04588e-06 0)
(1.00001 -2.20651e-06 0)
(1.00001 -2.32114e-06 0)
(1.00001 -2.37349e-06 0)
(1.00001 -2.35113e-06 0)
(1.00002 -2.24623e-06 0)
(1.00002 -2.05567e-06 0)
(1.00002 -1.79405e-06 0)
(1.00002 -1.50405e-06 0)
(1.00002 -1.2536e-06 0)
(1.00002 -1.12627e-06 0)
(1.00002 -1.20222e-06 0)
(1.00002 -1.5264e-06 0)
(1.00002 -2.06662e-06 0)
(1.00002 -2.68225e-06 0)
(1.00003 -3.14176e-06 0)
(1.00003 -3.20873e-06 0)
(1.00003 -2.75092e-06 0)
(1.00003 -1.79237e-06 0)
(1.00003 -4.74174e-07 0)
(1.00003 1.0256e-06 0)
(1.00003 2.57142e-06 0)
(1.00003 4.08838e-06 0)
(1.00003 5.54619e-06 0)
(1.00002 6.92122e-06 0)
(1.00002 8.1746e-06 0)
(1.00001 9.25265e-06 0)
(1.00001 1.00891e-05 0)
(1 1.06107e-05 0)
(0.999994 1.07584e-05 0)
(0.999987 1.05086e-05 0)
(0.999981 9.87219e-06 0)
(0.999975 8.87957e-06 0)
(0.99997 7.56969e-06 0)
(0.999965 5.99003e-06 0)
(0.999962 4.19615e-06 0)
(0.99996 2.24711e-06 0)
(0.999959 1.97925e-07 0)
(0.999959 -1.90265e-06 0)
(0.999961 -4.01078e-06 0)
(0.999964 -6.08595e-06 0)
(0.999969 -8.08858e-06 0)
(0.999974 -9.97706e-06 0)
(0.999981 -1.17056e-05 0)
(0.999989 -1.32236e-05 0)
(0.999997 -1.44779e-05 0)
(1.00001 -1.54165e-05 0)
(1.00002 -1.59912e-05 0)
(1.00003 -1.61548e-05 0)
(1.00004 -1.58696e-05 0)
(1.00005 -1.51049e-05 0)
(1.00006 -1.38326e-05 0)
(1.00006 -1.20328e-05 0)
(1.00007 -9.70362e-06 0)
(1.00008 -6.86905e-06 0)
(1.00008 -3.58573e-06 0)
(1.00008 5.26203e-08 0)
(1.00008 3.91454e-06 0)
(1.00008 7.83182e-06 0)
(1.00007 1.16085e-05 0)
(1.00006 1.50364e-05 0)
(1.00005 1.79153e-05 0)
(1.00004 2.00757e-05 0)
(1.00003 2.13992e-05 0)
(1.00001 2.18327e-05 0)
(1 2.13923e-05 0)
(0.999986 2.01552e-05 0)
(0.999974 1.82485e-05 0)
(0.999963 1.5837e-05 0)
(0.999954 1.31085e-05 0)
(0.999947 1.02429e-05 0)
(0.999942 7.38184e-06 0)
(0.999938 4.6191e-06 0)
(0.999936 2.00983e-06 0)
(0.999936 -4.13027e-07 0)
(0.999937 -2.60547e-06 0)
(0.999939 -4.47595e-06 0)
(0.999943 -5.88146e-06 0)
(0.999947 -6.68285e-06 0)
(0.999951 -6.82854e-06 0)
(0.999956 -6.41059e-06 0)
(0.999959 -5.65367e-06 0)
(0.999963 -4.83067e-06 0)
(0.999965 -4.15131e-06 0)
(0.999967 -3.70232e-06 0)
(0.999969 -3.4685e-06 0)
(0.999971 -3.38756e-06 0)
(0.999973 -3.38923e-06 0)
(0.999975 -3.4134e-06 0)
(0.999978 -3.41801e-06 0)
(0.99998 -3.37973e-06 0)
(0.999982 -3.29034e-06 0)
(0.999984 -3.15189e-06 0)
(0.999986 -2.9725e-06 0)
(0.999987 -2.76308e-06 0)
(0.999989 -2.535e-06 0)
(0.99999 -2.29867e-06 0)
(0.999992 -2.06282e-06 0)
(0.999993 -1.83427e-06 0)
(0.999994 -1.6179e-06 0)
(0.999995 -1.41695e-06 0)
(0.999996 -1.23321e-06 0)
(0.999996 -1.0674e-06 0)
(0.999997 -9.19393e-07 0)
(0.999997 -7.88483e-07 0)
(0.999998 -6.73596e-07 0)
(0.999998 -5.73431e-07 0)
(0.999999 -4.86592e-07 0)
(0.999999 -4.11665e-07 0)
(0.999999 -3.47283e-07 0)
(0.999999 -2.92158e-07 0)
(0.999999 -2.45107e-07 0)
(0.999999 -2.05059e-07 0)
(1 -1.71058e-07 0)
(1 -1.42258e-07 0)
(1 -1.17916e-07 0)
(1 -9.73862e-08 0)
(1 -8.01081e-08 0)
(1 -6.5598e-08 0)
(1 -5.34405e-08 0)
(1 -4.32802e-08 0)
(1 -3.48135e-08 0)
(1 -2.77819e-08 0)
(1 -2.19657e-08 0)
(1 -1.71774e-08 0)
(1 -1.32575e-08 0)
(1 -1.00689e-08 0)
(1 -7.49416e-09 0)
(1 -5.43176e-09 0)
(1 -3.79412e-09 0)
(1 -2.5061e-09 0)
(1 -1.50143e-09 0)
(1 -7.25727e-10 0)
(1 -1.42553e-10 0)
(1 4.50054e-10 0)
(1 2.7586e-11 0)
(1 7.44581e-11 0)
(1 1.22557e-10 0)
(1 1.72081e-10 0)
(1 2.26234e-10 0)
(1 2.88888e-10 0)
(1 3.60686e-10 0)
(1 4.40696e-10 0)
(1 5.27548e-10 0)
(1 6.19913e-10 0)
(1 7.16715e-10 0)
(1 8.17201e-10 0)
(1 9.20901e-10 0)
(1 1.02754e-09 0)
(1 1.13697e-09 0)
(1 1.24915e-09 0)
(1 1.36405e-09 0)
(1 1.48155e-09 0)
(1 1.60118e-09 0)
(1 1.72192e-09 0)
(1 1.84192e-09 0)
(1 1.95826e-09 0)
(1 2.06673e-09 0)
(1 2.16166e-09 0)
(1 2.23581e-09 0)
(1 2.28028e-09 0)
(1 2.28432e-09 0)
(1 2.23505e-09 0)
(1 2.11679e-09 0)
(1 1.9102e-09 0)
(1 1.59115e-09 0)
(1 1.12923e-09 0)
(1 4.86523e-10 0)
(1 -3.83502e-10 0)
(1 -1.53873e-09 0)
(1 -3.04904e-09 0)
(1 -4.99953e-09 0)
(1 -7.49366e-09 0)
(1 -1.06567e-08 0)
(1 -1.46401e-08 0)
(1 -1.96266e-08 0)
(1 -2.58364e-08 0)
(1 -3.35315e-08 0)
(1 -4.30239e-08 0)
(1 -5.46886e-08 0)
(1 -6.89842e-08 0)
(1 -8.64752e-08 0)
(1 -1.07848e-07 0)
(1 -1.33922e-07 0)
(1 -1.6567e-07 -3.63377e-43)
(1 -2.04227e-07 -3.46871e-43)
(1 -2.50888e-07 0)
(1 -3.07066e-07 0)
(1 -3.74241e-07 0)
(1 -4.53948e-07 0)
(1 -5.47812e-07 0)
(1 -6.57566e-07 0)
(1 -7.84986e-07 0)
(1 -9.3168e-07 0)
(1 -1.09881e-06 0)
(1 -1.28679e-06 0)
(1 -1.49484e-06 0)
(1 -1.72031e-06 0)
(1.00001 -1.95755e-06 0)
(1.00001 -2.19682e-06 0)
(1.00001 -2.42354e-06 0)
(1.00001 -2.61846e-06 0)
(1.00001 -2.75905e-06 0)
(1.00001 -2.82255e-06 0)
(1.00001 -2.79122e-06 0)
(1.00002 -2.65751e-06 0)
(1.00002 -2.42628e-06 0)
(1.00002 -2.12164e-06 0)
(1.00002 -1.79333e-06 0)
(1.00002 -1.51745e-06 0)
(1.00002 -1.39132e-06 0)
(1.00002 -1.51385e-06 0)
(1.00002 -1.94535e-06 0)
(1.00002 -2.65164e-06 0)
(1.00002 -3.46005e-06 0)
(1.00003 -4.07828e-06 0)
(1.00003 -4.20404e-06 0)
(1.00003 -3.67015e-06 0)
(1.00003 -2.50746e-06 0)
(1.00003 -8.95258e-07 0)
(1.00003 9.45826e-07 0)
(1.00003 2.8412e-06 0)
(1.00003 4.70103e-06 0)
(1.00003 6.4935e-06 0)
(1.00002 8.19188e-06 0)
(1.00002 9.74833e-06 0)
(1.00001 1.10966e-05 0)
(1.00001 1.21543e-05 0)
(1 1.28288e-05 0)
(0.999994 1.30447e-05 0)
(0.999987 1.2772e-05 0)
(0.999981 1.20247e-05 0)
(0.999974 1.08401e-05 0)
(0.999969 9.26559e-06 0)
(0.999965 7.36001e-06 0)
(0.999961 5.1938e-06 0)
(0.999959 2.84115e-06 0)
(0.999958 3.70911e-07 0)
(0.999959 -2.15605e-06 0)
(0.999961 -4.68617e-06 0)
(0.999964 -7.17164e-06 0)
(0.999968 -9.56737e-06 0)
(0.999974 -1.18283e-05 0)
(0.99998 -1.39074e-05 0)
(0.999988 -1.57551e-05 0)
(0.999997 -1.7318e-05 0)
(1.00001 -1.85379e-05 0)