/*--------------------------------*- C++ -*----------------------------------*\
| =========                 |                                                 |
| \\      /  F ield         | OpenFOAM: The Open Source CFD Toolbox           |
|  \\    /   O peration     | Version:  v2006                                 |
|   \\  /    A nd           | Website:  www.openfoam.com                      |
|    \\/     M anipulation  |                                                 |
\*---------------------------------------------------------------------------*/
FoamFile
{
    version     2.0;
    format      ascii;
    class       volScalarField;
    location    "0";
    object      f;
}
// * * * * * * * * * * * * * * * * * * * * * * * * * * * * * * * * * * * * * //

dimensions      [0 0 0 0 0 0 0];


internalField   nonuniform List<scalar> 
2500
(
-8.80298e-270
3.0263e-247
-1.57333e-237
1.20133e-227
7.05473e-223
2.02604e-219
1.61707e-216
1.354e-214
1.18588e-214
4.01144e-213
1.32258e-213
1.76417e-214
1.3158e-215
6.3615e-217
2.17885e-218
5.61704e-220
1.13943e-221
1.88184e-223
2.59979e-225
3.07119e-227
3.15938e-229
2.87406e-231
2.3426e-233
1.73048e-235
1.17023e-237
7.31e-240
4.25251e-242
2.32121e-244
1.19717e-246
5.87233e-249
2.75639e-251
1.24514e-253
5.44125e-256
2.31078e-258
9.5733e-261
3.88072e-263
1.54259e-265
6.02113e-268
2.30943e-270
8.70627e-273
3.22576e-275
1.17438e-277
4.20015e-280
1.47543e-282
5.09034e-285
1.72492e-287
5.74201e-290
1.87824e-292
6.03934e-295
1.33973e-297
-2.17547e-263
2.51515e-241
-7.84435e-232
4.2783e-222
1.95409e-217
4.59159e-214
3.10094e-211
2.25031e-209
1.74064e-209
5.27739e-208
1.57551e-208
1.92017e-209
1.31844e-210
5.90561e-212
1.88423e-213
4.54634e-215
8.66733e-217
1.35022e-218
1.76518e-220
1.97899e-222
1.93713e-224
1.68071e-226
1.30939e-228
9.26321e-231
6.00992e-233
3.60772e-235
2.01995e-237
1.06269e-239
5.28944e-242
2.50702e-244
1.13836e-246
4.97977e-249
2.10948e-251
8.69219e-254
3.49712e-256
1.37785e-258
5.32749e-261
2.0242e-263
7.56292e-266
2.77919e-268
1.00437e-270
3.56871e-273
1.24639e-275
4.27794e-278
1.44283e-280
4.78201e-283
1.5577e-285
4.98829e-288
1.57094e-290
3.44845e-293
-5.31492e-257
2.06645e-235
-3.86628e-226
1.50619e-216
5.35068e-212
1.02868e-208
5.87839e-206
3.69715e-204
2.52599e-204
6.86569e-203
1.85613e-203
2.06714e-204
1.30676e-205
5.42333e-207
1.61199e-208
3.64056e-210
6.52317e-212
9.58569e-214
1.18593e-215
1.26188e-217
1.17535e-219
9.72663e-222
7.24311e-224
4.90743e-226
3.05475e-228
1.76226e-230
9.49666e-233
4.81546e-235
2.31322e-237
1.05942e-239
4.65355e-242
1.97141e-244
8.09536e-247
3.23663e-249
1.26462e-251
4.8428e-254
1.8214e-256
6.73667e-259
2.45187e-261
8.78278e-264
3.09591e-266
1.07361e-268
3.66169e-271
1.22799e-273
4.04885e-276
1.31251e-278
4.18368e-281
1.31162e-283
4.04566e-286
8.78889e-289
-1.29662e-250
1.6951e-229
-1.90253e-220
5.29408e-211
1.46277e-206
2.3009e-203
1.11257e-200
6.06453e-199
3.66026e-199
8.92078e-198
2.18421e-198
2.22299e-199
1.29391e-200
4.97591e-202
1.37793e-203
2.91297e-205
4.90589e-207
6.80065e-209
7.96263e-211
8.04158e-213
7.12759e-215
5.62614e-217
4.00475e-219
2.59868e-221
1.55203e-223
8.60475e-226
4.46315e-228
2.18134e-230
1.01131e-232
4.47556e-235
1.90182e-237
7.80242e-240
3.10592e-242
1.20491e-244
4.57208e-247
1.70178e-249
6.22595e-252
2.24162e-254
7.94757e-257
2.7751e-259
9.54157e-262
3.22942e-264
1.07561e-266
3.52452e-269
1.13606e-271
3.60202e-274
1.12354e-276
3.44843e-279
1.04179e-281
2.23979e-284
-3.15815e-244
1.38804e-223
-9.34536e-215
1.85749e-205
3.9918e-201
5.13738e-198
2.10195e-195
9.93006e-194
5.29512e-194
1.15748e-192
2.56697e-193
2.38775e-194
1.27979e-195
4.56078e-197
1.17676e-198
2.32877e-200
3.6866e-202
4.82117e-204
5.34258e-206
5.1213e-208
4.3197e-210
3.25246e-212
2.21307e-214
1.37543e-216
7.88181e-219
4.19969e-221
2.09669e-223
9.87739e-226
4.41973e-228
1.89008e-230
7.76995e-233
3.08713e-235
1.19131e-237
4.48443e-240
1.65259e-242
5.9788e-245
2.12772e-247
7.45749e-250
2.57568e-252
8.76699e-255
2.94023e-257
9.71265e-260
3.15913e-262
1.01146e-264
3.18723e-267
9.88418e-270
3.01697e-272
9.0655e-275
2.68242e-277
5.70738e-280
-7.67844e-238
1.13436e-217
-4.58136e-209
6.50423e-200
1.08716e-195
1.14478e-192
3.96324e-190
1.62271e-188
7.6461e-189
1.49951e-187
3.01249e-188
2.56135e-189
1.26428e-190
4.17558e-192
1.0039e-193
1.85993e-195
2.76786e-197
3.415e-199
3.58185e-201
3.25915e-203
2.61619e-205
1.87905e-207
1.22224e-209
7.27579e-212
4.00059e-214
2.04873e-216
9.84534e-219
4.4707e-221
1.93078e-223
7.97904e-226
3.17332e-228
1.22106e-230
4.568e-233
1.66853e-235
5.97169e-238
2.09998e-240
7.2698e-243
2.48044e-245
8.34564e-248
2.7691e-250
9.05869e-253
2.92063e-255
9.27708e-258
2.90225e-260
8.94058e-263
2.71193e-265
8.10029e-268
2.38293e-270
6.90601e-273
1.45418e-275
-1.86314e-231
9.25011e-212
-2.24092e-203
2.27247e-194
2.95431e-190
2.54526e-187
7.45611e-185
2.64586e-183
1.10183e-183
1.93922e-182
3.52969e-183
2.74352e-184
1.24726e-185
3.81812e-187
8.55441e-189
1.48388e-190
2.076e-192
2.4167e-194
2.3993e-196
2.0724e-198
1.58327e-200
1.08481e-202
6.74574e-205
3.84638e-207
2.02941e-209
9.98885e-212
4.62065e-214
2.02255e-216
8.43093e-219
3.36695e-221
1.2955e-223
4.82789e-226
1.75096e-228
6.20609e-231
2.15724e-233
7.37381e-236
2.48322e-238
8.24816e-241
2.70351e-243
8.74449e-246
2.79037e-248
8.78081e-251
2.72382e-253
8.32621e-256
2.50756e-258
7.43963e-261
2.17455e-263
6.26288e-266
1.77776e-268
3.70465e-271
-4.51073e-225
7.52447e-206
-1.0934e-197
7.91995e-189
8.00821e-185
5.64502e-182
1.39925e-179
4.30343e-178
1.58413e-178
2.50302e-177
4.12831e-178
2.93382e-179
1.2286e-180
3.48635e-182
7.27988e-184
1.18243e-185
1.55532e-187
1.70845e-189
1.6056e-191
1.31658e-193
9.57351e-196
6.25788e-198
3.72031e-200
2.03199e-202
1.0288e-204
4.86719e-207
2.16733e-209
9.14511e-212
3.67956e-214
1.42009e-216
5.28648e-219
1.90808e-221
6.70899e-224
2.30752e-226
7.79027e-229
2.5884e-231
8.47966e-234
2.74198e-236
8.75552e-239
2.76073e-241
8.59327e-244
2.63936e-246
7.99572e-249
2.38824e-251
7.03168e-254
2.04058e-256
5.83674e-259
1.64578e-261
4.57573e-264
9.43655e-267
-1.08934e-218
6.10398e-200
-5.32012e-192
2.75257e-183
2.16475e-179
1.24851e-176
2.61861e-174
6.98001e-173
2.27171e-173
3.22375e-172
4.81887e-173
3.13158e-174
1.20818e-175
3.17843e-177
6.18624e-179
9.40944e-181
1.16377e-182
1.20634e-184
1.07329e-186
8.35563e-189
5.78325e-191
3.6067e-193
2.05004e-195
1.07262e-197
5.21159e-200
2.36996e-202
1.01593e-204
4.13249e-207
1.60498e-209
5.98635e-212
2.15614e-214
7.53756e-217
2.56948e-219
8.57613e-222
2.81214e-224
9.08265e-227
2.89464e-229
9.11244e-232
2.83471e-234
8.71352e-237
2.64572e-239
7.93156e-242
2.3466e-244
6.84884e-247
1.97142e-249
5.59593e-252
1.56637e-254
4.32413e-257
1.17755e-259
2.40331e-262
-2.62344e-212
4.93645e-194
-2.58056e-186
9.53679e-178
5.8335e-174
2.75274e-171
4.88535e-169
1.12862e-167
3.24841e-168
4.14198e-167
5.61244e-168
3.33582e-169
1.18584e-170
2.89262e-172
5.24832e-174
7.47643e-176
8.69566e-178
8.50681e-180
7.16573e-182
5.29675e-184
3.48983e-186
2.0766e-188
1.12859e-190
5.65702e-193
2.63783e-195
1.15308e-197
4.75864e-200
1.8661e-202
6.99612e-205
2.52199e-207
8.78897e-210
2.97599e-212
9.83592e-215
3.18591e-217
1.01469e-219
3.18578e-222
9.87746e-225
3.02726e-227
9.17467e-230
2.74933e-232
8.14332e-235
2.38286e-237
6.88507e-240
1.96359e-242
5.5259e-245
1.53426e-247
4.20273e-250
1.13591e-252
3.02984e-255
6.11961e-258
-6.29824e-206
3.97851e-188
-1.24736e-180
3.29269e-172
1.56652e-168
6.04818e-166
9.0825e-164
1.81856e-162
4.63011e-163
5.30739e-162
6.52045e-163
3.54523e-164
1.16145e-165
2.62732e-167
4.44447e-169
5.93041e-171
6.48704e-173
5.98988e-175
4.77751e-177
3.35332e-179
2.10333e-181
1.19426e-183
6.20643e-186
2.98051e-188
1.33386e-190
5.60525e-193
2.22709e-195
8.42006e-198
3.04737e-200
1.06175e-202
3.58027e-205
1.17427e-207
3.76302e-210
1.18289e-212
3.65939e-215
1.11691e-217
3.36903e-220
1.00528e-222
2.96829e-225
8.67175e-228
2.50562e-230
7.15655e-233
2.01953e-235
5.62814e-238
1.54851e-240
4.20553e-243
1.12738e-245
2.98328e-248
7.79422e-251
1.55792e-253
-1.50677e-199
3.1941e-182
-6.00579e-175
1.1324e-166
4.19028e-163
1.32369e-160
1.68196e-158
2.91883e-157
6.57577e-158
6.78014e-157
7.5543e-158
3.75811e-159
1.13485e-160
2.38109e-162
3.756e-164
4.69507e-166
4.83073e-168
4.21059e-170
3.18025e-172
2.11984e-174
1.26593e-176
6.85937e-179
3.40894e-181
1.56854e-183
6.73765e-186
2.722e-188
1.04131e-190
3.79583e-193
1.32625e-195
4.46638e-198
1.45737e-200
4.63019e-203
1.43871e-205
4.38922e-208
1.31898e-210
3.91368e-213
1.14855e-215
3.33674e-218
9.59915e-221
2.73406e-223
7.70658e-226
2.14859e-228
5.92171e-231
1.61266e-233
4.33806e-236
1.15245e-238
3.02338e-241
7.83316e-244
2.00458e-246
3.96518e-249
-3.5906e-193
2.55324e-176
-2.87899e-169
3.87741e-161
1.11594e-157
2.88429e-155
3.10113e-153
4.6643e-152
9.30129e-153
8.63224e-152
8.72476e-153
3.97228e-154
1.1059e-155
2.15257e-157
3.16682e-159
3.70903e-161
3.59005e-163
2.95423e-165
2.11324e-167
1.33784e-169
7.60736e-172
3.93395e-174
1.8698e-176
8.24391e-179
3.39917e-181
1.32032e-183
4.86348e-186
1.70943e-188
5.76646e-191
1.87714e-193
5.92729e-196
1.82425e-198
5.49649e-201
1.62752e-203
4.75095e-206
1.37053e-208
3.91331e-211
1.10695e-213
3.10272e-216
8.61604e-219
2.36929e-221
6.44799e-224
1.73571e-226
4.61916e-229
1.21487e-231
3.15705e-234
8.10559e-237
2.05616e-239
5.15417e-242
1.00892e-244
-8.51863e-187
2.03103e-170
-1.37329e-163
1.3211e-155
2.95728e-152
6.25382e-150
5.68954e-148
7.41685e-147
1.30967e-147
1.09485e-146
1.00413e-147
4.18505e-149
1.07444e-150
1.94053e-152
2.66309e-154
2.92291e-156
2.66191e-158
2.0683e-160
1.4014e-162
8.42724e-165
4.56335e-167
2.25239e-169
1.02396e-171
4.32638e-174
1.71248e-176
6.39582e-179
2.26868e-181
7.6893e-184
2.50444e-186
7.88106e-189
2.40833e-191
7.18075e-194
2.09808e-196
6.02998e-199
1.71e-201
4.79605e-204
1.33246e-206
3.66997e-209
1.00231e-211
2.71377e-214
7.28044e-217
1.93415e-219
5.08526e-222
1.32252e-224
3.4009e-227
8.64535e-230
2.17233e-232
5.39552e-235
1.32483e-237
2.56632e-240
-2.01102e-180
1.60677e-164
-6.51431e-158
4.47623e-150
7.79341e-147
1.34845e-144
1.03805e-142
1.17284e-141
1.83464e-142
1.38272e-141
1.1511e-142
4.39313e-144
1.04034e-145
1.74385e-147
2.23287e-149
2.29703e-151
1.9686e-153
1.44452e-155
9.27208e-158
5.29696e-160
2.73179e-162
1.28714e-164
5.5974e-167
2.26659e-169
8.61349e-172
3.09351e-174
1.05676e-176
3.45409e-179
1.08632e-181
3.30485e-184
9.7743e-187
2.82355e-189
8.00072e-192
2.23203e-194
6.14943e-197
1.67698e-199
4.53349e-202
1.21588e-204
3.23575e-207
8.54219e-210
2.23586e-212
5.79857e-215
1.48912e-217
3.78472e-220
9.51615e-223
2.36646e-225
5.8196e-228
1.41529e-230
3.40411e-233
6.52532e-236
-4.72099e-174
1.26328e-158
-3.07077e-152
1.50717e-144
2.04096e-141
2.88935e-139
1.88205e-137
1.84305e-136
2.5552e-137
1.7379e-136
1.31374e-137
4.59258e-139
1.00345e-140
1.56148e-142
1.86586e-144
1.79949e-146
1.45156e-148
1.00605e-150
6.1186e-153
3.32118e-155
1.63154e-157
7.33921e-160
3.0534e-162
1.18513e-164
4.32439e-167
1.49363e-169
4.91425e-172
1.54918e-174
4.70508e-177
1.38393e-179
3.96176e-182
1.10889e-184
3.04744e-187
8.25312e-190
2.2092e-192
5.85815e-195
1.54109e-197
4.02495e-200
1.04379e-202
2.68691e-205
6.8618e-208
1.73731e-210
4.35799e-213
1.08249e-215
2.66135e-218
6.47441e-221
1.55833e-223
3.71081e-226
8.74317e-229
1.65846e-231
-1.10131e-167
9.8628e-153
-1.43729e-146
5.03882e-139
5.30715e-136
6.14728e-134
3.38818e-132
2.87579e-131
3.53553e-132
2.17254e-131
1.49186e-132
4.77876e-134
9.63676e-136
1.39251e-137
1.55324e-139
1.40466e-141
1.0667e-143
6.98446e-146
4.0255e-148
2.07646e-150
9.7181e-153
4.17417e-155
1.66165e-157
6.18266e-160
2.1664e-162
7.19706e-165
2.2809e-167
6.93557e-170
2.03438e-172
5.786e-175
1.60336e-177
4.34873e-180
1.15921e-182
3.04783e-185
7.92733e-188
2.04418e-190
5.23338e-193
1.33112e-195
3.36406e-198
8.44451e-201
2.10423e-203
5.20133e-206
1.27451e-208
3.09407e-211
7.43836e-214
1.77032e-216
4.1705e-219
9.72452e-222
2.24452e-224
4.21297e-227
-2.55085e-161
7.63938e-147
-6.67347e-141
1.67112e-133
1.36898e-130
1.29741e-128
6.05079e-127
4.45137e-126
4.85582e-127
2.69937e-126
1.68457e-127
4.9463e-129
9.20911e-131
1.23607e-132
1.28736e-134
1.09197e-136
7.80848e-139
4.83119e-141
2.63926e-143
1.29399e-145
5.77055e-148
2.36709e-150
9.01748e-153
3.21691e-155
1.0826e-157
3.45971e-160
1.05629e-162
3.09846e-165
8.77869e-168
2.41449e-170
6.47749e-173
1.7026e-175
4.4026e-178
1.1239e-180
2.84069e-183
7.12398e-186
1.77507e-188
4.39732e-191
1.08308e-193
2.65138e-196
6.44689e-199
1.55589e-201
3.72438e-204
8.83711e-207
2.07751e-209
4.83742e-212
1.11543e-214
2.54688e-217
5.75883e-220
1.06959e-222
-5.86074e-155
5.86419e-141
-3.07044e-135
5.49195e-128
3.49927e-125
2.71342e-123
1.07078e-121
6.82777e-121
6.61316e-122
3.33092e-121
1.89001e-122
5.08908e-124
8.75102e-126
1.09141e-127
1.06168e-129
8.44881e-132
5.69051e-134
3.32767e-136
1.72349e-138
8.03325e-141
3.41421e-143
1.33776e-145
4.87782e-148
1.66867e-150
5.39427e-153
1.65855e-155
4.87898e-158
1.38082e-160
3.77933e-163
1.00535e-165
2.61144e-168
6.65301e-171
1.66903e-173
4.13736e-176
1.01631e-178
2.479e-181
6.01234e-184
1.45075e-186
3.48281e-189
8.31525e-192
1.97308e-194
4.64954e-197
1.08732e-199
2.52177e-202
5.7976e-205
1.32079e-207
2.9811e-210
6.66569e-213
1.47658e-215
2.7136e-218
-1.33425e-148
4.45568e-135
-1.39813e-129
1.78626e-122
8.85229e-120
5.61635e-118
1.87539e-116
1.0365e-115
8.92043e-117
4.07832e-116
2.10511e-117
5.20032e-119
8.26238e-121
9.57838e-123
8.70542e-125
6.5016e-127
4.12569e-129
2.28087e-131
1.12025e-133
4.96518e-136
2.01161e-138
7.53029e-141
2.6286e-143
8.62462e-146
2.67866e-148
7.9252e-151
2.24668e-153
6.13574e-156
1.62259e-158
4.17525e-161
1.05026e-163
2.59374e-166
6.31366e-169
1.51999e-171
3.62918e-174
8.6112e-177
2.03309e-179
4.77893e-182
1.11834e-184
2.60433e-187
6.03106e-190
1.38781e-192
3.17085e-195
7.1887e-198
1.61632e-200
3.6029e-203
7.96033e-206
1.74311e-208
3.78304e-211
6.87901e-214
-3.00601e-142
3.34621e-129
-6.29163e-124
5.74154e-117
2.21309e-114
1.14884e-112
3.246e-111
1.55501e-110
1.19014e-111
4.94946e-111
2.32534e-112
5.27265e-114
7.74367e-116
8.34762e-118
7.09101e-120
4.97176e-122
2.97332e-124
1.5545e-126
7.24217e-129
3.05309e-131
1.17941e-133
4.21907e-136
1.41024e-138
4.43891e-141
1.32483e-143
3.77257e-146
1.03082e-148
2.71712e-151
6.94374e-154
1.72869e-156
4.21169e-159
1.00845e-161
2.38228e-164
5.57088e-167
1.29307e-169
2.98502e-172
6.86159e-175
1.57138e-177
3.58496e-180
8.14381e-183
1.84076e-185
4.13661e-188
9.23486e-191
2.04673e-193
4.50096e-196
9.81744e-199
2.12343e-201
4.55387e-204
9.68337e-207
1.74218e-209
-6.69228e-136
2.47968e-123
-2.79323e-118
1.82071e-111
5.45851e-109
2.31845e-107
5.5429e-106
2.30164e-105
1.56801e-106
5.94662e-106
2.54439e-107
5.29831e-109
7.19611e-111
7.21649e-113
5.73177e-115
3.77416e-117
2.12793e-119
1.05242e-121
4.65228e-124
1.86601e-126
6.87512e-129
2.35089e-131
7.52635e-134
2.27323e-136
6.52134e-139
1.78773e-141
4.70937e-144
1.19835e-146
2.9601e-149
7.13137e-152
1.68317e-154
3.90825e-157
8.96167e-160
2.03598e-162
4.59499e-165
1.03218e-167
2.31042e-170
5.15578e-173
1.14689e-175
2.54181e-178
5.6084e-181
1.23096e-183
2.68542e-186
5.81889e-189
1.25166e-191
2.67167e-194
5.65739e-197
1.18833e-199
2.47593e-202
4.40731e-205
-1.46975e-129
1.80962e-117
-1.22099e-112
5.68481e-106
1.3256e-103
4.60682e-102
9.31946e-101
3.3544e-100
2.03616e-101
7.06331e-101
2.75404e-102
5.26946e-104
6.62188e-106
6.18042e-108
4.59177e-110
2.84062e-112
1.51049e-114
7.06949e-117
2.9663e-119
1.13236e-121
3.98041e-124
1.30141e-126
3.99182e-129
1.15726e-131
3.19195e-134
8.42612e-137
2.14052e-139
5.25954e-142
1.25608e-144
2.92913e-147
6.69908e-150
1.50881e-152
3.35902e-155
7.41567e-158
1.62768e-160
3.5586e-163
7.75816e-166
1.6873e-168
3.66028e-171
7.91566e-174
1.70518e-176
3.65588e-179
7.79461e-182
1.65145e-184
3.47505e-187
7.25936e-190
1.50509e-192
3.09667e-195
6.32243e-198
1.11347e-200
-3.17773e-123
1.29754e-111
-5.24275e-107
1.74353e-100
3.1622e-98
8.99179e-97
1.53917e-95
4.80224e-95
2.60019e-96
8.28061e-96
2.94401e-97
5.17866e-99
6.02431e-101
5.23551e-103
3.64013e-105
2.1166e-107
1.06191e-109
4.70513e-112
1.87463e-114
6.81346e-117
2.28584e-119
7.14856e-122
2.10149e-124
5.8497e-127
1.55179e-129
3.94591e-132
9.6695e-135
2.29497e-137
5.30064e-140
1.19683e-142
2.65314e-145
5.79785e-148
1.25355e-150
2.69003e-153
5.74384e-156
1.22253e-158
2.59651e-161
5.50492e-164
1.16482e-166
2.45847e-169
5.17144e-172
1.08322e-174
2.25745e-177
4.67726e-180
9.62911e-183
1.96886e-185
3.99718e-188
8.05637e-191
1.61196e-193
2.80861e-196
-6.74778e-117
9.11567e-106
-2.20509e-101
5.23801e-95
7.38907e-93
1.71916e-91
2.49006e-90
6.73454e-90
3.25653e-91
9.5631e-91
3.10206e-92
5.0194e-94
5.40809e-96
4.37851e-98
2.85028e-100
1.55847e-102
7.38061e-105
3.09726e-107
1.17226e-109
4.05827e-112
1.29996e-114
3.89015e-117
1.09648e-119
2.9317e-122
7.48267e-125
1.8335e-127
4.33574e-130
9.94347e-133
2.22192e-135
4.85928e-138
1.0445e-140
2.21543e-143
4.65353e-146
9.71001e-149
2.01759e-151
4.18194e-154
8.65535e-157
1.78934e-159
3.69403e-162
7.61091e-165
1.56365e-167
3.20047e-170
6.5206e-173
1.3214e-175
2.66189e-178
5.32803e-181
1.05934e-183
2.09182e-186
4.10216e-189
7.07102e-192
-1.40325e-110
6.25391e-100
-9.05434e-96
1.53626e-89
1.68559e-87
3.20887e-86
3.93275e-85
9.22037e-85
3.98693e-86
1.08551e-85
3.21443e-87
4.78696e-89
4.77948e-91
3.60675e-93
2.19937e-95
1.1314e-97
5.06015e-100
2.01216e-102
7.23798e-105
2.38785e-107
7.30657e-110
2.0932e-112
5.65937e-115
1.45411e-117
3.57247e-120
8.43902e-123
1.92661e-125
4.27132e-128
9.23811e-131
1.95774e-133
4.08215e-136
8.40757e-139
1.71644e-141
3.48394e-144
7.04739e-147
1.42307e-149
2.87123e-152
5.7899e-155
1.16657e-157
2.34695e-160
4.71058e-163
9.42368e-166
1.87741e-168
3.72187e-171
7.33767e-174
1.43799e-176
2.80038e-179
5.41838e-182
1.04156e-184
1.77615e-187
-2.84808e-104
4.17313e-94
-3.61476e-90
4.38079e-84
3.7386e-82
5.82351e-81
6.03921e-80
1.22743e-79
4.75244e-81
1.20782e-80
3.26657e-82
4.47933e-84
4.14647e-86
2.91801e-88
1.66769e-90
8.07543e-93
3.41272e-95
1.2866e-97
4.4009e-100
1.38432e-102
4.04846e-105
1.11092e-107
2.88267e-110
7.12139e-113
1.685e-115
3.83931e-118
8.4665e-121
1.8155e-123
3.80258e-126
7.81291e-129
1.58116e-131
3.16389e-134
6.28121e-137
1.24084e-139
2.44475e-142
4.81164e-145
9.4682e-148
1.86314e-150
3.66511e-153
7.2026e-156
1.41275e-158
2.76318e-161
5.38428e-164
1.04445e-166
2.01567e-169
3.86831e-172
7.38001e-175
1.39941e-177
2.63729e-180
4.44908e-183
-5.61828e-98
2.69513e-88
-1.39614e-84
1.20856e-78
8.02222e-77
1.02247e-75
8.97216e-75
1.58086e-74
5.4884e-76
1.31312e-75
3.24452e-77
4.0983e-79
3.5189e-81
2.31048e-83
1.23824e-85
5.64708e-88
2.25627e-90
8.06923e-93
2.62622e-95
7.88118e-98
2.20425e-100
5.79717e-103
1.44462e-105
3.4335e-108
7.82903e-111
1.72174e-113
3.66983e-116
7.61628e-119
1.54586e-121
3.08144e-124
6.05666e-127
1.17823e-129
2.27616e-132
4.37912e-135
8.40894e-138
1.61407e-140
3.09937e-143
5.95466e-146
1.14422e-148
2.19741e-151
4.21374e-154
8.06051e-157
1.53675e-159
2.91777e-162
5.51357e-165
1.03645e-167
1.93755e-170
3.60137e-173
6.65517e-176
1.11069e-178
-1.07168e-91
1.67437e-82
-5.1847e-79
3.20574e-73
1.6551e-71
1.72609e-70
1.28163e-69
1.95773e-69
6.10298e-71
1.3895e-70
3.13674e-72
3.65057e-74
2.90838e-76
1.78247e-78
8.96223e-81
3.85167e-83
1.45582e-85
4.94224e-88
1.53148e-90
4.38767e-93
1.17442e-95
2.96246e-98
7.09467e-101
1.6235e-103
3.57016e-106
7.5838e-109
1.56361e-111
3.14323e-114
6.18726e-117
1.19753e-119
2.28795e-122
4.33072e-125
8.1479e-128
1.5279e-130
2.86175e-133
5.36125e-136
1.00532e-138
1.88704e-141
3.54411e-144
6.65503e-147
1.24826e-149
2.3364e-152
4.35999e-155
8.1055e-158
1.50023e-160
2.76321e-163
5.06305e-166
9.22711e-169
1.6724e-171
2.76124e-174
-1.9641e-85
9.92955e-77
-1.83687e-73
8.11235e-68
3.25775e-66
2.78001e-65
1.7466e-64
2.31309e-64
6.48328e-66
1.4243e-65
2.93659e-67
3.14873e-69
2.32805e-71
1.33225e-73
6.28737e-76
2.54773e-78
9.11538e-81
2.93941e-83
8.67868e-86
2.37561e-88
6.09023e-91
1.47468e-93
3.39699e-96
7.49088e-99
1.59011e-101
3.26567e-104
6.51924e-107
1.27063e-109
2.42816e-112
4.56794e-115
8.49212e-118
1.5657e-120
2.8719e-123
5.25465e-126
9.60958e-129
1.75879e-131
3.2236e-134
5.91667e-137
1.08696e-139
1.99711e-142
3.66631e-145
6.71844e-148
1.2278e-150
2.23598e-153
4.05531e-156
7.32134e-159
1.31532e-161
2.35105e-164
4.18069e-167
6.82919e-170
-3.43067e-79
5.56569e-71
-6.14684e-68
1.93903e-62
6.05665e-61
4.22915e-60
2.24827e-59
2.5815e-59
6.51318e-61
1.40604e-60
2.64503e-62
2.61178e-64
1.79194e-66
9.5766e-69
4.2437e-71
1.62219e-73
5.49741e-76
1.6851e-78
4.74431e-81
1.24185e-83
3.05209e-86
7.10104e-89
1.57498e-91
3.35038e-94
6.87271e-97
1.3662e-99
2.64385e-102
5.00234e-105
9.29221e-108
1.70134e-110
3.08184e-113
5.54216e-116
9.92463e-119
1.77422e-121
3.17224e-124
5.6794e-127
1.01866e-129
1.83021e-132
3.29218e-135
5.92394e-138
1.06528e-140
1.91255e-143
3.42512e-146
6.11394e-149
1.08714e-151
1.92473e-154
3.39192e-157
5.94882e-160
1.03822e-162
1.67808e-165
-5.65119e-73
2.91048e-65
-1.9175e-62
4.32045e-57
1.04969e-55
5.99762e-55
2.69787e-54
2.68584e-54
6.10515e-56
1.32696e-55
2.27319e-57
2.06485e-59
1.31398e-61
6.55742e-64
2.72899e-66
9.84503e-69
3.16208e-71
9.2204e-74
2.47757e-76
6.20752e-79
1.46412e-81
3.27682e-84
7.00631e-87
1.43961e-89
2.85762e-92
5.50618e-95
1.03448e-97
1.90307e-100
3.44194e-103
6.14391e-106
1.08632e-108
1.90891e-111
3.34336e-114
5.85021e-117
1.02444e-119
1.79708e-122
3.15914e-125
5.56415e-128
9.81274e-131
1.73127e-133
3.05278e-136
5.37486e-139
9.4406e-142
1.65301e-144
2.88365e-147
5.00976e-150
8.66507e-153
1.49189e-155
2.55669e-158
4.08956e-161
-8.6564e-67
1.39507e-59
-5.47762e-57
8.81551e-52
1.66595e-50
7.78906e-50
2.96463e-49
2.55903e-49
5.24262e-51
1.18611e-50
1.8439e-52
1.53765e-54
9.06532e-57
4.22247e-59
1.65024e-61
5.62005e-64
1.7117e-66
4.75162e-69
1.2197e-71
2.92827e-74
6.63631e-77
1.43067e-79
2.95318e-82
5.87034e-85
1.12948e-87
2.11331e-90
3.86202e-93
6.92192e-96
1.22156e-98
2.13064e-101
3.68584e-104
6.34407e-107
1.08939e-109
1.87028e-112
3.21504e-115
5.5382e-118
9.56166e-121
1.65401e-123
2.86469e-126
4.96321e-129
8.59347e-132
1.48556e-134
2.56192e-137
4.40451e-140
7.54487e-143
1.28724e-145
2.18681e-148
3.69866e-151
6.22782e-154
9.86119e-157
-1.20914e-60
5.97829e-54
-1.39734e-51
1.60626e-46
2.36114e-45
9.03341e-45
2.90923e-44
2.17737e-44
4.01863e-46
9.91977e-46
1.39121e-47
1.06133e-49
5.78493e-52
2.51206e-54
9.21552e-57
2.96285e-59
8.56079e-62
2.26402e-64
5.55723e-67
1.28e-69
2.79123e-72
5.80545e-75
1.15898e-77
2.23314e-80
4.17362e-83
7.6006e-86
1.35448e-88
2.37161e-91
4.09572e-94
7.00185e-97
1.1889e-99
2.01098e-102
3.39684e-105
5.7405e-108
9.71743e-111
1.64861e-113
2.80307e-116
4.77412e-119
8.13875e-122
1.38747e-124
2.3631e-127
4.01741e-130
6.81212e-133
1.15139e-135
1.93893e-138
3.25204e-141
5.43145e-144
9.03223e-147
1.49549e-149
2.34503e-152
-1.49646e-54
2.2065e-48
-3.06591e-46
2.51729e-41
2.87826e-40
9.01098e-40
2.45547e-39
1.59343e-39
2.64509e-41
7.63645e-41
9.56592e-43
6.63686e-45
3.33268e-47
1.3464e-49
4.6314e-52
1.40525e-54
3.8528e-57
9.71394e-60
2.28244e-62
5.05066e-65
1.06155e-67
2.13436e-70
4.13021e-73
7.73358e-76
1.40796e-78
2.50345e-81
4.36555e-84
7.49558e-87
1.27192e-89
2.14048e-92
3.58351e-95
5.98428e-98
9.98923e-101
1.66919e-103
2.7944e-106
4.68779e-109
7.8781e-112
1.32546e-114
2.23067e-117
3.75168e-120
6.3001e-123
1.05549e-125
1.763e-128
2.93441e-131
4.86512e-134
8.03273e-137
1.32059e-139
2.16167e-142
3.52318e-145
5.47437e-148
-1.56691e-48
6.60122e-43
-5.44355e-41
3.19237e-36
2.83928e-35
7.27375e-35
1.67707e-34
9.43558e-35
1.40388e-36
5.2895e-36
5.81652e-38
3.63417e-40
1.67134e-42
6.25992e-45
2.01518e-47
5.7656e-50
1.49998e-52
3.60782e-55
8.12474e-58
1.73023e-60
3.51277e-63
6.84549e-66
1.28799e-68
2.35199e-71
4.18815e-74
7.30416e-77
1.25274e-79
2.12111e-82
3.55814e-85
5.93244e-88
9.858e-91
1.63622e-93
2.71689e-96
4.51725e-99
7.52281e-102
1.25459e-104
2.09404e-107
3.49528e-110
5.82916e-113
9.70461e-116
1.61159e-118
2.66779e-121
4.39988e-124
7.22706e-127
1.18197e-129
1.92449e-132
3.11937e-135
5.03358e-138
8.08686e-141
1.24622e-143
-1.27325e-42
1.42902e-37
-6.97915e-36
2.92342e-31
2.02248e-30
4.23972e-30
8.27095e-30
4.03403e-30
5.34583e-32
3.18866e-31
2.98014e-33
1.64865e-35
6.87706e-38
2.37447e-40
7.13096e-43
1.9211e-45
4.74188e-48
1.08903e-50
2.35469e-53
4.83825e-56
9.52001e-59
1.80553e-61
3.31938e-64
5.94569e-67
1.04247e-69
1.79684e-72
3.05688e-75
5.15168e-78
8.62812e-81
1.43995e-83
2.39965e-86
3.99873e-89
6.66798e-92
1.11283e-94
1.85815e-97
3.10218e-100
5.17406e-103
8.61378e-106
1.43019e-108
2.36658e-111
3.90051e-114
6.40037e-117
1.04531e-119
1.69887e-122
2.74739e-125
4.42111e-128
7.07988e-131
1.12839e-133
1.7902e-136
2.73951e-139
-6.42213e-37
1.6868e-32
-4.86663e-31
1.45623e-26
7.83971e-26
1.34504e-25
2.22077e-25
9.38138e-26
1.09507e-27
1.58731e-26
1.17649e-28
5.58514e-31
2.07882e-33
6.55815e-36
1.82912e-38
4.63272e-41
1.08558e-43
2.38628e-46
4.97359e-49
9.91441e-52
1.90398e-54
3.54471e-57
6.43342e-60
1.14403e-62
2.00245e-65
3.46422e-68
5.94476e-71
1.01494e-73
1.72787e-76
2.93766e-79
4.99166e-82
8.47805e-85
1.43877e-87
2.43796e-90
4.12123e-93
6.94397e-96
1.16524e-98
1.94605e-101
3.23289e-104
5.34028e-107
8.76945e-110
1.43143e-112
2.32251e-115
3.74598e-118
6.00701e-121
9.57893e-124
1.51928e-126
2.39733e-129
3.7644e-132
5.72985e-135
-3.39587e-31
5.39426e-26
-8.22101e-23
2.07906e-18
8.71279e-18
1.22451e-17
1.71038e-17
6.28846e-18
7.69303e-20
5.94465e-22
2.85273e-24
1.0869e-26
3.50815e-29
9.98951e-32
2.57957e-34
6.16138e-37
1.38164e-39
2.94275e-42
6.00978e-45
1.18623e-47
2.27867e-50
4.28571e-53
7.934e-56
1.45222e-58
2.6375e-61
4.76534e-64
8.57857e-67
1.53968e-69
2.75479e-72
4.91032e-75
8.71153e-78
1.53676e-80
2.69306e-83
4.68463e-86
8.0844e-89
1.38357e-91
2.34773e-94
3.94984e-97
6.58916e-100
1.09014e-102
1.78914e-105
2.91374e-108
4.7103e-111
7.56124e-114
1.20571e-116
1.91056e-119
3.00957e-122
4.71441e-125
7.34651e-128
1.11458e-130
-2.98326e-14
1.88851e-11
-7.35799e-09
8.43818e-07
2.78912e-06
3.20641e-06
3.80144e-06
1.21733e-06
2.46437e-09
1.61845e-18
9.96825e-23
1.29762e-24
9.12991e-27
4.65886e-29
1.91272e-31
6.71594e-34
2.09766e-36
5.98893e-39
1.5939e-41
4.01144e-44
9.64783e-47
2.2343e-49
5.00927e-52
1.09136e-54
2.31677e-57
4.80122e-60
9.72797e-63
1.92944e-65
3.75022e-68
7.15079e-71
1.33894e-73
2.46437e-76
4.46289e-79
7.95984e-82
1.39949e-84
2.42774e-87
4.15881e-90
7.04082e-93
1.17896e-95
1.95393e-98
3.20741e-101
5.21807e-104
8.41857e-107
1.34767e-109
2.14179e-112
3.38087e-115
5.30326e-118
8.26998e-121
1.2826e-123
1.94416e-126
-3.36587e-09
1.66807e-06
-0.000605876
0.116853
0.248898
0.262509
0.263126
0.145668
0.0136172
-2.36272e-19
-8.47752e-22
3.0514e-24
3.51732e-24
6.67006e-26
4.6259e-28
2.29797e-30
9.36812e-33
3.32632e-35
1.06339e-37
3.12552e-40
8.56765e-43
2.21305e-45
5.42882e-48
1.27257e-50
2.86486e-53
6.21995e-56
1.30703e-58
2.66649e-61
5.29576e-64
1.02633e-66
1.94506e-69
3.61157e-72
6.58127e-75
1.1788e-77
2.07819e-80
3.61067e-83
6.18929e-86
1.04783e-88
1.75366e-91
2.90386e-94
4.76127e-97
7.73567e-100
1.2462e-102
1.99184e-105
3.16038e-108
4.98045e-111
7.79911e-114
1.21412e-116
1.87973e-119
2.85428e-122
1.92516e-06
-0.000634852
0.116122
0.364837
0.628137
0.761779
0.763149
0.647039
0.280229
0.0144238
4.63334e-09
2.30377e-15
2.56196e-19
1.53718e-21
7.81108e-24
3.30199e-26
1.22242e-28
4.08517e-31
1.25618e-33
3.60012e-36
9.70532e-39
2.47861e-41
6.03134e-44
1.40523e-46
3.14812e-49
6.80684e-52
1.42518e-54
2.89808e-57
5.73869e-60
1.10919e-62
2.09704e-65
3.88547e-68
7.06739e-71
1.26392e-73
2.22552e-76
3.86307e-79
6.61788e-82
1.12004e-84
1.87449e-87
3.1048e-90
5.09357e-93
8.28234e-96
1.33569e-98
2.13766e-101
3.39692e-104
5.36243e-107
8.4133e-110
1.31245e-112
2.03648e-115
3.10852e-118
4.23668e-06
-0.00133268
0.23265
0.613365
0.878293
0.999361
0.999997
1.00201
0.650636
0.149619
0.000442615
1.44949e-10
1.0472e-14
7.52586e-19
4.01179e-21
3.25781e-23
1.8727e-25
8.54771e-28
3.29641e-30
1.11641e-32
3.40847e-35
9.55874e-38
2.49709e-40
6.14263e-43
1.43507e-45
3.20608e-48
6.88825e-51
1.42991e-53
2.87926e-56
5.64252e-59
1.07926e-61
2.01978e-64
3.70629e-67
6.68101e-70
1.18501e-72
2.07115e-75
3.57162e-78
6.08386e-81
1.0247e-83
1.70812e-86
2.82032e-89
4.61595e-92
7.49373e-95
1.20746e-97
1.9321e-100
3.07175e-103
4.85446e-106
7.62919e-109
1.1928e-111
1.83898e-114
4.64155e-06
-0.00139297
0.231718
0.730432
0.998344
1
0.999996
1.00139
0.768284
0.269571
0.00165681
5.91157e-10
4.47415e-14
3.38619e-18
2.5226e-22
3.9751e-24
3.35297e-26
2.00489e-28
9.52839e-31
3.82906e-33
1.35216e-35
4.3067e-38
1.26054e-40
3.4382e-43
8.83355e-46
2.15606e-48
5.03366e-51
1.13041e-53
2.45324e-56
5.16527e-59
1.05861e-61
2.11786e-64
4.14613e-67
7.95965e-70
1.50126e-72
2.78637e-75
5.09642e-78
9.19793e-81
1.63986e-83
2.89104e-86
5.04463e-89
8.71943e-92
1.494e-94
2.53926e-97
4.28371e-100
7.1768e-103
1.19469e-105
1.97694e-108
3.25334e-111
5.27786e-114
2.52799e-06
-0.000723458
0.114262
0.598034
0.98428
1
0.999995
1.00145
0.768546
0.269898
0.00173592
6.47893e-10
5.13158e-14
4.06441e-18
3.16632e-22
5.21925e-24
4.60639e-26
2.88215e-28
1.43335e-30
6.02746e-33
2.22732e-35
7.42357e-38
2.27374e-40
6.48978e-43
1.74482e-45
4.45649e-48
1.08876e-50
2.55859e-53
5.8106e-56
1.28024e-58
2.74567e-61
5.74813e-64
1.17757e-66
2.36568e-69
4.66911e-72
9.06844e-75
1.7357e-77
3.27804e-80
6.1157e-83
1.12826e-85
2.06016e-88
3.72627e-91
6.68116e-94
1.18829e-96
2.09774e-99
3.6777e-102
6.40643e-105
1.10935e-107
1.91038e-110
3.24336e-113
-1.35126e-08
5.30313e-06
-0.00152257
0.231252
0.717418
0.985425
1.00073
0.884426
0.636713
0.256069
0.00192992
7.57671e-10
6.27374e-14
5.19475e-18
4.2276e-22
7.28183e-24
6.71768e-26
4.39365e-28
2.28413e-30
1.00408e-32
3.87868e-35
1.3514e-37
4.32695e-40
1.29104e-42
3.62854e-45
9.68824e-48
2.47431e-50
6.07846e-53
1.44306e-55
3.32371e-58
7.45162e-61
1.63079e-63
3.49245e-66
7.33442e-69
1.51326e-71
3.07241e-74
6.14737e-77
1.21366e-79
2.36699e-82
4.56485e-85
8.71332e-88
1.64749e-90
3.08793e-93
5.74121e-96
1.05949e-98
1.94172e-101
3.53582e-104
6.40039e-107
1.15218e-109
2.04499e-112
3.128e-11
-1.49011e-08
5.79544e-06
-0.00159298
0.23177
0.600829
0.737294
0.622327
0.373575
0.12241
0.00080326
3.27276e-10
2.83036e-14
2.44779e-18
2.07897e-22
3.73913e-24
3.60209e-26
2.46033e-28
1.33576e-30
6.13231e-33
2.47394e-35
9.00201e-38
3.01016e-40