/*--------------------------------*- C++ -*----------------------------------*\
| =========                 |                                                 |
| \\      /  F ield         | OpenFOAM: The Open Source CFD Toolbox           |
|  \\    /   O peration     | Version:  v2006                                 |
|   \\  /    A nd           | Website:  www.openfoam.com                      |
|    \\/     M anipulation  |                                                 |
\*---------------------------------------------------------------------------*/
FoamFile
{
    version     2.0;
    format      ascii;
    class       volVectorField;
    location    "4.1";
    object      U;
}
// * * * * * * * * * * * * * * * * * * * * * * * * * * * * * * * * * * * * * //

dimensions      [0 1 -1 0 0 0 0];


internalField   nonuniform List<vector> 
150000
(
(-0.00939364 0.00574395 0)
(-0.0207966 0.00338218 0)
(-0.0289864 0.00344201 0)
(-0.0410577 0.00384537 0)
(-0.0523003 0.00415472 0)
(-0.0649395 0.00425783 0)
(-0.0769449 0.0042808 0)
(-0.0892442 0.00427968 0)
(-0.101381 0.00427757 0)
(-0.113553 0.004277 0)
(-0.125707 0.00428453 0)
(-0.137858 0.00429739 0)
(-0.150002 0.00431321 0)
(-0.162139 0.00433088 0)
(-0.174266 0.00435014 0)
(-0.186382 0.00437116 0)
(-0.198484 0.00439451 0)
(-0.21057 0.0044199 0)
(-0.222638 0.00444631 0)
(-0.234685 0.00447341 0)
(-0.246708 0.00450173 0)
(-0.258704 0.00453141 0)
(-0.27067 0.00456177 0)
(-0.282601 0.00459214 0)
(-0.294494 0.00462242 0)
(-0.306346 0.00465256 0)
(-0.318151 0.00468225 0)
(-0.329906 0.00471128 0)
(-0.341606 0.00473959 0)
(-0.353247 0.00476714 0)
(-0.364825 0.00479386 0)
(-0.376335 0.00481984 0)
(-0.387774 0.0048451 0)
(-0.399137 0.00486947 0)
(-0.41042 0.00489284 0)
(-0.421619 0.00491525 0)
(-0.432729 0.00493687 0)
(-0.443746 0.00495789 0)
(-0.454666 0.0049785 0)
(-0.465486 0.00499878 0)
(-0.4762 0.00501869 0)
(-0.486805 0.00503786 0)
(-0.497295 0.00505555 0)
(-0.507665 0.00507128 0)
(-0.517909 0.00508587 0)
(-0.52802 0.00510208 0)
(-0.537998 0.00512322 0)
(-0.547846 0.00514952 0)
(-0.557573 0.00517401 0)
(-0.567182 0.00518067 0)
(-0.576664 0.00514721 0)
(-0.58599 0.00505226 0)
(-0.595109 0.00488442 0)
(-0.603956 0.00464888 0)
(-0.612471 0.00436805 0)
(-0.620613 0.00407453 0)
(-0.628371 0.00379843 0)
(-0.635756 0.00355477 0)
(-0.642794 0.00333856 0)
(-0.649501 0.0031339 0)
(-0.655877 0.00293585 0)
(-0.661918 0.00277296 0)
(-0.667648 0.00271234 0)
(-0.673146 0.00283404 0)
(-0.678558 0.00317653 0)
(-0.684069 0.0036951 0)
(-0.68985 0.00428707 0)
(-0.695987 0.0048193 0)
(-0.702436 0.00516954 0)
(-0.709062 0.00529167 0)
(-0.715692 0.00523089 0)
(-0.722172 0.00505994 0)
(-0.728409 0.00483657 0)
(-0.734369 0.00459708 0)
(-0.740048 0.00435156 0)
(-0.745444 0.00409939 0)
(-0.750555 0.00384278 0)
(-0.755382 0.00358781 0)
(-0.759934 0.00334037 0)
(-0.764222 0.00310405 0)
(-0.768264 0.00288057 0)
(-0.772075 0.00267067 0)
(-0.775674 0.00247464 0)
(-0.779079 0.00229238 0)
(-0.782307 0.00212351 0)
(-0.785377 0.00196759 0)
(-0.788307 0.00182415 0)
(-0.791112 0.00169258 0)
(-0.79381 0.00157227 0)
(-0.796415 0.0014625 0)
(-0.798943 0.00136239 0)
(-0.801407 0.00127111 0)
(-0.80382 0.00118827 0)
(-0.806195 0.00111356 0)
(-0.808541 0.0010464 0)
(-0.81087 0.000986344 0)
(-0.81319 0.000933026 0)
(-0.815511 0.000885771 0)
(-0.817838 0.000843748 0)
(-0.820179 0.000806514 0)
(-0.822538 0.000773834 0)
(-0.824921 0.000745257 0)
(-0.82733 0.000720471 0)
(-0.829769 0.00069912 0)
(-0.832238 0.000680702 0)
(-0.834739 0.000664752 0)
(-0.83727 0.000650985 0)
(-0.839832 0.000639081 0)
(-0.842421 0.000628527 0)
(-0.845036 0.000618909 0)
(-0.847672 0.000609867 0)
(-0.850325 0.000601012 0)
(-0.852989 0.000591945 0)
(-0.855659 0.000582332 0)
(-0.858328 0.000571896 0)
(-0.860989 0.000560345 0)
(-0.863635 0.000547499 0)
(-0.866258 0.000533235 0)
(-0.868849 0.000517522 0)
(-0.8714 0.00050042 0)
(-0.873904 0.000481972 0)
(-0.876352 0.000462312 0)
(-0.878737 0.000441654 0)
(-0.881051 0.000420225 0)
(-0.883288 0.000398267 0)
(-0.885441 0.000376068 0)
(-0.887505 0.000353919 0)
(-0.889475 0.000332013 0)
(-0.891347 0.000310428 0)
(-0.893119 0.000289109 0)
(-0.894787 0.00026768 0)
(-0.89635 0.000245286 0)
(-0.897806 0.000220413 0)
(-0.899154 0.000190644 0)
(-0.90039 0.000152764 0)
(-0.901512 0.000103346 0)
(-0.902512 3.94913e-05 0)
(-0.903379 -4.06796e-05 0)
(-0.904095 -0.000137871 0)
(-0.904638 -0.00025276 0)
(-0.904986 -0.000386502 0)
(-0.905116 -0.000530278 0)
(-0.904998 -0.000656362 0)
(-0.904691 -0.000746769 0)
(-0.904232 -0.00082619 0)
(-0.903617 -0.000910487 0)
(-0.902846 -0.000998173 0)
(-0.90192 -0.00108618 0)
(-0.900836 -0.00117698 0)
(-0.899593 -0.00127048 0)
(-0.898192 -0.00136628 0)
(-0.896633 -0.00146393 0)
(-0.894919 -0.00156288 0)
(-0.893052 -0.0016625 0)
(-0.891037 -0.00176223 0)
(-0.888879 -0.00186121 0)
(-0.886583 -0.00195812 0)
(-0.884158 -0.00205144 0)
(-0.881614 -0.00213964 0)
(-0.87896 -0.00222128 0)
(-0.876208 -0.0022958 0)
(-0.87337 -0.00236386 0)
(-0.870453 -0.00242664 0)
(-0.867467 -0.00248485 0)
(-0.864419 -0.00253845 0)
(-0.861317 -0.00258696 0)
(-0.85817 -0.00262967 0)
(-0.85499 -0.00266595 0)
(-0.851786 -0.00269532 0)
(-0.848569 -0.00271746 0)
(-0.84535 -0.00273199 0)
(-0.842139 -0.00273866 0)
(-0.838948 -0.00273775 0)
(-0.835787 -0.00272999 0)
(-0.832666 -0.00271593 0)
(-0.829595 -0.00269493 0)
(-0.826586 -0.00266381 0)
(-0.823656 -0.00261695 0)
(-0.820823 -0.00254885 0)
(-0.818112 -0.0024581 0)
(-0.815539 -0.00234981 0)
(-0.813114 -0.0022337 0)
(-0.810838 -0.00211969 0)
(-0.808703 -0.00201461 0)
(-0.8067 -0.00191998 0)
(-0.804818 -0.00183252 0)
(-0.803053 -0.00175018 0)
(-0.8014 -0.00167052 0)
(-0.799856 -0.00159282 0)
(-0.79842 -0.00151459 0)
(-0.797092 -0.00143893 0)
(-0.795866 -0.00136432 0)
(-0.794739 -0.00129051 0)
(-0.793711 -0.00121754 0)
(-0.792777 -0.00114548 0)
(-0.791934 -0.00107452 0)
(-0.79118 -0.00100509 0)
(-0.790511 -0.000937875 0)
(-0.789922 -0.00087343 0)
(-0.789408 -0.000811481 0)
(-0.788967 -0.000750801 0)
(-0.788595 -0.000690023 0)
(-0.78829 -0.000627214 0)
(-0.788052 -0.000563857 0)
(-0.787877 -0.000505526 0)
(-0.787759 -0.000464743 0)
(-0.787682 -0.000458024 0)
(-0.787618 -0.000499187 0)
(-0.787535 -0.000591989 0)
(-0.7874 -0.000723231 0)
(-0.787193 -0.000859873 0)
(-0.786926 -0.000955882 0)
(-0.786648 -0.000964615 0)
(-0.786444 -0.000851839 0)
(-0.786402 -0.000599079 0)
(-0.786612 -0.000227628 0)
(-0.787147 0.000212923 0)
(-0.788047 0.000672148 0)
(-0.789311 0.00110455 0)
(-0.790899 0.00147635 0)
(-0.79275 0.00177305 0)
(-0.794796 0.0019924 0)
(-0.796969 0.00214093 0)
(-0.799212 0.00223149 0)
(-0.801472 0.00227982 0)
(-0.803702 0.00229763 0)
(-0.805865 0.0022931 0)
(-0.807936 0.00226928 0)
(-0.809893 0.00223189 0)
(-0.811724 0.00218453 0)
(-0.81342 0.00212994 0)
(-0.814976 0.00207035 0)
(-0.81639 0.0020076 0)
(-0.817662 0.0019432 0)
(-0.818793 0.00187834 0)
(-0.819784 0.00181406 0)
(-0.82064 0.00175122 0)
(-0.821365 0.00169045 0)
(-0.821963 0.00163233 0)
(-0.82244 0.00157734 0)
(-0.822801 0.00152599 0)
(-0.823051 0.00147871 0)
(-0.823198 0.00143587 0)
(-0.823241 0.001396 0)
(-0.823187 0.00134867 0)
(-0.823041 0.00130155 0)
(-0.822808 0.0012578 0)
(-0.822494 0.00121853 0)
(-0.822106 0.00118431 0)
(-0.821652 0.00115552 0)
(-0.821142 0.00113245 0)
(-0.820583 0.00111537 0)
(-0.819984 0.00110451 0)
(-0.819354 0.00110002 0)
(-0.818703 0.00110206 0)
(-0.818039 0.00111074 0)
(-0.817372 0.00112611 0)
(-0.816712 0.0011482 0)
(-0.816066 0.00117696 0)
(-0.815446 0.00121229 0)
(-0.81486 0.00125406 0)
(-0.814317 0.00130209 0)
(-0.813828 0.00135621 0)
(-0.8134 0.00141624 0)
(-0.813043 0.00148204 0)
(-0.812766 0.00155352 0)
(-0.812577 0.00163042 0)
(-0.812482 0.00171054 0)
(-0.812487 0.00179044 0)
(-0.812585 0.00187237 0)
(-0.81278 0.0019576 0)
(-0.813076 0.00204704 0)
(-0.813479 0.0021407 0)
(-0.81399 0.00223901 0)
(-0.814611 0.00234434 0)
(-0.815348 0.00246132 0)
(-0.816206 0.00259482 0)
(-0.817198 0.00274701 0)
(-0.818338 0.00291642 0)
(-0.819641 0.00309813 0)
(-0.821123 0.00328206 0)
(-0.822793 0.00345156 0)
(-0.824644 0.00359198 0)
(-0.82665 0.00371538 0)
(-0.828782 0.0038874 0)
(-0.831063 0.00422054 0)
(-0.833602 0.00479318 0)
(-0.836563 0.00549235 0)
(-0.840014 0.0059273 0)
(-0.843709 0.00565373 0)
(-0.846985 0.00453483 0)
(-0.849077 0.00292231 0)
(-0.849819 0.00159362 0)
(-0.849909 0.000952958 0)
(-0.850186 0.000703976 0)
(-0.85071 0.000527549 0)
(-0.851416 0.000392261 0)
(-0.852283 0.000314388 0)
(-0.853291 0.000279719 0)
(-0.854442 0.000273958 0)
(-0.85574 0.000284826 0)
(-0.857191 0.000304524 0)
(-0.858798 0.000328865 0)
(-0.860563 0.000355822 0)
(-0.862487 0.000384452 0)
(-0.864571 0.000414178 0)
(-0.866814 0.000444696 0)
(-0.869217 0.000475897 0)
(-0.87178 0.000507758 0)
(-0.874503 0.000540287 0)
(-0.877385 0.0005735 0)
(-0.880426 0.000607459 0)
(-0.883624 0.000642273 0)
(-0.88698 0.000678088 0)
(-0.890491 0.000715028 0)
(-0.894158 0.000753191 0)
(-0.897977 0.00079265 0)
(-0.901949 0.000833454 0)
(-0.906072 0.000875657 0)
(-0.910343 0.000919306 0)
(-0.91476 0.000964404 0)
(-0.919322 0.00101091 0)
(-0.924025 0.00105875 0)
(-0.928868 0.00110788 0)
(-0.933846 0.00115822 0)
(-0.938957 0.00120963 0)
(-0.944197 0.00126194 0)
(-0.949562 0.00131501 0)
(-0.955048 0.00136867 0)
(-0.96065 0.00142278 0)
(-0.966364 0.00147716 0)
(-0.972184 0.00153167 0)
(-0.978104 0.00158613 0)
(-0.98412 0.00164035 0)
(-0.990225 0.00169412 0)
(-0.996412 0.00174724 0)
(-1.00268 0.00179952 0)
(-1.00901 0.00185082 0)
(-1.0154 0.00190094 0)
(-1.02185 0.0019497 0)
(-1.02835 0.00199687 0)
(-1.03489 0.00204224 0)
(-1.04145 0.00208556 0)
(-1.04805 0.00212662 0)
(-1.05465 0.00216516 0)
(-1.06126 0.00220098 0)
(-1.06787 0.00223384 0)
(-1.07447 0.00226353 0)
(-1.08105 0.00228993 0)
(-1.0876 0.00231314 0)
(-1.09411 0.00233358 0)
(-1.10057 0.00235165 0)
(-1.10698 0.00236735 0)
(-1.11332 0.00238046 0)
(-1.11958 0.00239077 0)
(-1.12576 0.00239806 0)
(-1.13185 0.00240212 0)
(-1.13783 0.00240267 0)
(-1.1437 0.00239943 0)
(-1.14944 0.00239213 0)
(-1.15506 0.00238049 0)
(-1.16053 0.00236427 0)
(-1.16585 0.00234322 0)
(-1.17101 0.00231708 0)
(-1.176 0.00228551 0)
(-1.18082 0.0022481 0)
(-1.18544 0.00220436 0)
(-1.18987 0.00215375 0)
(-1.19409 0.00209561 0)
(-1.19809 0.00202903 0)
(-1.20186 0.00195235 0)
(-1.2054 0.00186238 0)
(-1.20869 0.00175328 0)
(-1.21171 0.00161547 0)
(-1.21444 0.00143547 0)
(-1.21683 0.00119816 0)
(-1.21883 0.000891594 0)
(-1.22037 0.000515685 0)
(-1.22138 9.97079e-05 0)
(-1.22182 -0.000283219 0)
(-1.22173 -0.000552435 0)
(-1.22128 -0.00070136 0)
(-1.22058 -0.000806555 0)
(-1.21961 -0.000903905 0)
(-1.2184 -0.000996827 0)
(-1.21693 -0.00108887 0)
(-1.21523 -0.00117977 0)
(-1.21329 -0.00126959 0)
(-1.21111 -0.00135829 0)
(-1.2087 -0.00144583 0)
(-1.20606 -0.00153216 0)
(-1.20319 -0.00161718 0)
(-1.20009 -0.00170087 0)
(-1.19677 -0.00178322 0)
(-1.19324 -0.00186425 0)
(-1.18948 -0.00194398 0)
(-1.18551 -0.00202242 0)
(-1.18134 -0.00209955 0)
(-1.17695 -0.00217539 0)
(-1.17236 -0.00224994 0)
(-1.16757 -0.00232323 0)
(-1.16258 -0.00239529 0)
(-1.15739 -0.00246615 0)
(-1.15201 -0.00253585 0)
(-1.14644 -0.0026044 0)
(-1.14068 -0.00267184 0)
(-1.13474 -0.0027382 0)
(-1.12862 -0.0028035 0)
(-1.12231 -0.00286778 0)
(-1.11583 -0.00293106 0)
(-1.10917 -0.00299338 0)
(-1.10235 -0.00305478 0)
(-1.09535 -0.00311532 0)
(-1.08819 -0.00317508 0)
(-1.08086 -0.00323414 0)
(-1.07336 -0.00329261 0)
(-1.06571 -0.00335063 0)
(-1.0579 -0.00340833 0)
(-1.04993 -0.00346592 0)
(-1.04181 -0.00352358 0)
(-1.03353 -0.0035815 0)
(-1.0251 -0.00363983 0)
(-1.01652 -0.00369861 0)
(-1.00778 -0.00375783 0)
(-0.998897 -0.00381739 0)
(-0.989863 -0.00387717 0)
(-0.980682 -0.00393702 0)
(-0.971354 -0.00399686 0)
(-0.96188 -0.00405661 0)
(-0.952262 -0.00411622 0)
(-0.942501 -0.00417566 0)
(-0.932599 -0.0042349 0)
(-0.922556 -0.00429394 0)
(-0.912374 -0.00435281 0)
(-0.902054 -0.00441158 0)
(-0.891598 -0.00447029 0)
(-0.881006 -0.00452901 0)
(-0.870281 -0.00458776 0)
(-0.859423 -0.00464655 0)
(-0.848433 -0.00470536 0)
(-0.837314 -0.00476421 0)
(-0.826065 -0.0048231 0)
(-0.814688 -0.00488206 0)
(-0.803185 -0.00494112 0)
(-0.791557 -0.0050003 0)
(-0.779804 -0.00505962 0)
(-0.767928 -0.00511913 0)
(-0.755931 -0.00517883 0)
(-0.743813 -0.00523876 0)
(-0.731574 -0.00529891 0)
(-0.719218 -0.0053593 0)
(-0.706743 -0.00542005 0)
(-0.694152 -0.00548142 0)
(-0.681445 -0.00554387 0)
(-0.668622 -0.00560793 0)
(-0.655682 -0.00567394 0)
(-0.642626 -0.00574177 0)
(-0.629453 -0.00581082 0)
(-0.616166 -0.00588015 0)
(-0.602767 -0.00594898 0)
(-0.589259 -0.00601694 0)
(-0.575647 -0.00608418 0)
(-0.561933 -0.00615115 0)
(-0.548122 -0.00621831 0)
(-0.534216 -0.00628586 0)
(-0.520217 -0.00635376 0)
(-0.506127 -0.00642176 0)
(-0.49195 -0.0064896 0)
(-0.477687 -0.00655705 0)
(-0.463341 -0.00662389 0)
(-0.448916 -0.00668999 0)
(-0.434413 -0.00675526 0)
(-0.419835 -0.00681966 0)
(-0.405184 -0.00688318 0)
(-0.390464 -0.0069458 0)
(-0.375676 -0.00700742 0)
(-0.360824 -0.00706787 0)
(-0.34591 -0.00712708 0)
(-0.330938 -0.00718518 0)
(-0.31591 -0.00724246 0)
(-0.300828 -0.00729893 0)
(-0.285696 -0.00735431 0)
(-0.270515 -0.007409 0)
(-0.255287 -0.0074642 0)
(-0.240013 -0.0075198 0)
(-0.224697 -0.00757307 0)
(-0.209341 -0.00761986 0)
(-0.193949 -0.0076562 0)
(-0.178543 -0.00767496 0)
(-0.163132 -0.00767002 0)
(-0.147695 -0.00766586 0)
(-0.13232 -0.00765078 0)
(-0.116883 -0.00769744 0)
(-0.101348 -0.00789856 0)
(-0.0860038 -0.00800783 0)
(-0.0691736 -0.00857551 0)
(-0.0556358 -0.0098273 0)
(-0.0328792 -0.0087853 0)
(-0.0254592 -0.00614681 0)
(-0.00271588 -0.00694669 0)
(-0.0110339 0.0195226 0)
(-0.0244027 0.0134634 0)
(-0.0352875 0.0141873 0)
(-0.0508527 0.0156456 0)
(-0.0655703 0.0163305 0)
(-0.0815915 0.0164761 0)
(-0.0968443 0.0164519 0)
(-0.112341 0.0164114 0)
(-0.127645 0.0163852 0)
(-0.142971 0.0163607 0)
(-0.158246 0.0163366 0)
(-0.173467 0.016308 0)
(-0.188616 0.0162741 0)
(-0.20368 0.016235 0)
(-0.218646 0.0161905 0)
(-0.233503 0.0161403 0)
(-0.248238 0.0160842 0)
(-0.262839 0.0160218 0)
(-0.277297 0.015953 0)
(-0.291599 0.0158776 0)
(-0.305737 0.0157958 0)
(-0.319698 0.0157075 0)
(-0.333475 0.0156122 0)
(-0.347058 0.0155096 0)
(-0.36044 0.0154001 0)
(-0.373612 0.0152838 0)
(-0.386567 0.0151604 0)
(-0.399298 0.0150301 0)
(-0.4118 0.0148929 0)
(-0.424067 0.0147492 0)
(-0.436094 0.0145989 0)
(-0.447874 0.0144421 0)
(-0.459405 0.0142788 0)
(-0.470682 0.0141091 0)
(-0.481699 0.0139329 0)
(-0.492455 0.0137501 0)
(-0.502945 0.013561 0)
(-0.513166 0.0133656 0)
(-0.523115 0.013164 0)
(-0.532789 0.0129566 0)
(-0.542185 0.0127433 0)
(-0.5513 0.012524 0)
(-0.56013 0.0122977 0)
(-0.568675 0.0120637 0)
(-0.576933 0.0118221 0)
(-0.584903 0.0115752 0)
(-0.592581 0.0113275 0)
(-0.599959 0.0110845 0)
(-0.607022 0.0108496 0)
(-0.613757 0.0106213 0)
(-0.620158 0.010392 0)
(-0.626238 0.01015 0)
(-0.632035 0.00988378 0)
(-0.637602 0.00958713 0)
(-0.642999 0.00926208 0)
(-0.648272 0.00891828 0)
(-0.653443 0.00856887 0)
(-0.65851 0.00822427 0)
(-0.663459 0.00788698 0)
(-0.668282 0.00755069 0)
(-0.67299 0.00720633 0)
(-0.677606 0.00685295 0)
(-0.682139 0.00650714 0)
(-0.686556 0.00620404 0)
(-0.690762 0.00598321 0)
(-0.694601 0.00586299 0)
(-0.697895 0.00582843 0)
(-0.700532 0.00583252 0)
(-0.702504 0.00581315 0)
(-0.703908 0.00572519 0)
(-0.704909 0.00556426 0)
(-0.705677 0.00535654 0)
(-0.706333 0.00512977 0)
(-0.706926 0.00490231 0)
(-0.707473 0.00467982 0)
(-0.707989 0.00446219 0)
(-0.708489 0.00425038 0)
(-0.708995 0.00404747 0)
(-0.709519 0.00385668 0)
(-0.710073 0.00368004 0)
(-0.710663 0.00351845 0)
(-0.711296 0.00337232 0)
(-0.711977 0.00324196 0)
(-0.712714 0.00312761 0)
(-0.713511 0.00302941 0)
(-0.714376 0.00294719 0)
(-0.715313 0.00288048 0)
(-0.716331 0.00282886 0)
(-0.717434 0.00279195 0)
(-0.718631 0.00276898 0)
(-0.719927 0.00275918 0)
(-0.721328 0.00276193 0)
(-0.72284 0.00277671 0)
(-0.72447 0.00280224 0)
(-0.726221 0.00283766 0)
(-0.728097 0.00288164 0)
(-0.730103 0.00293313 0)
(-0.732241 0.00299124 0)
(-0.734513 0.00305503 0)
(-0.736919 0.00312357 0)
(-0.73946 0.00319525 0)
(-0.742133 0.00326847 0)
(-0.744937 0.00334242 0)
(-0.747869 0.00341593 0)
(-0.750923 0.00348799 0)
(-0.754095 0.00355741 0)
(-0.757379 0.00362298 0)
(-0.760767 0.00368371 0)
(-0.76425 0.00373862 0)
(-0.767819 0.00378655 0)
(-0.771465 0.00382638 0)
(-0.775177 0.00385734 0)
(-0.778942 0.00387877 0)
(-0.782749 0.00388981 0)
(-0.786586 0.0038898 0)
(-0.790439 0.00387824 0)
(-0.794296 0.00385486 0)
(-0.798143 0.00381937 0)
(-0.801967 0.00377154 0)
(-0.805754 0.00371145 0)
(-0.809491 0.00363932 0)
(-0.813165 0.00355551 0)
(-0.816764 0.00346048 0)
(-0.820274 0.00335475 0)
(-0.823685 0.00323908 0)
(-0.826985 0.00311443 0)
(-0.830163 0.00298177 0)
(-0.833209 0.00284215 0)
(-0.836115 0.00269676 0)
(-0.838871 0.00254687 0)
(-0.841471 0.00239379 0)
(-0.843908 0.00223884 0)
(-0.846179 0.0020834 0)
(-0.848279 0.00192875 0)
(-0.850211 0.00177578 0)
(-0.851978 0.00162396 0)
(-0.853588 0.00147025 0)
(-0.855054 0.00130928 0)
(-0.856394 0.00113592 0)
(-0.857627 0.00094744 0)
(-0.858779 0.000742385 0)
(-0.859882 0.000525571 0)
(-0.860977 0.000316782 0)
(-0.862005 0.000133218 0)
(-0.862924 -3.51324e-05 0)
(-0.863738 -0.000194151 0)
(-0.864451 -0.000364144 0)
(-0.865077 -0.000539368 0)
(-0.865631 -0.000713687 0)
(-0.866122 -0.000885178 0)
(-0.86656 -0.00105268 0)
(-0.866956 -0.0012152 0)
(-0.86732 -0.00137173 0)
(-0.867662 -0.00152139 0)
(-0.867993 -0.00166341 0)
(-0.868322 -0.00179685 0)
(-0.868659 -0.00192061 0)
(-0.869013 -0.0020334 0)
(-0.869389 -0.00213428 0)
(-0.869794 -0.00222311 0)
(-0.870231 -0.00230081 0)
(-0.870703 -0.00236867 0)
(-0.871213 -0.00242763 0)
(-0.871765 -0.00247802 0)
(-0.872363 -0.00251929 0)
(-0.873011 -0.00255065 0)
(-0.873714 -0.00257172 0)
(-0.874472 -0.00258219 0)
(-0.875287 -0.00258194 0)
(-0.876161 -0.00257099 0)
(-0.877093 -0.00254934 0)
(-0.878083 -0.00251734 0)
(-0.879131 -0.00247506 0)
(-0.880235 -0.00242258 0)
(-0.881396 -0.00235958 0)
(-0.882615 -0.00228471 0)
(-0.883891 -0.00219606 0)
(-0.885218 -0.00209319 0)
(-0.886586 -0.00197634 0)
(-0.88798 -0.0018492 0)
(-0.889382 -0.00171827 0)
(-0.890781 -0.00158818 0)
(-0.892176 -0.00146168 0)
(-0.893569 -0.00134094 0)
(-0.894963 -0.00122757 0)
(-0.896364 -0.0011171 0)
(-0.897774 -0.00100964 0)
(-0.899193 -0.000906845 0)
(-0.900619 -0.0008091 0)
(-0.902054 -0.000719342 0)
(-0.903498 -0.000629636 0)
(-0.904941 -0.000541264 0)
(-0.906381 -0.000455239 0)
(-0.907814 -0.000372227 0)
(-0.909236 -0.000292701 0)
(-0.910645 -0.000217044 0)
(-0.912036 -0.000145589 0)
(-0.913406 -7.85917e-05 0)
(-0.914751 -1.61387e-05 0)
(-0.916069 4.20225e-05 0)
(-0.917356 9.61741e-05 0)
(-0.918608 0.000146312 0)
(-0.919821 0.000192834 0)
(-0.920995 0.000235791 0)
(-0.922138 0.000276073 0)
(-0.92327 0.000314295 0)
(-0.924429 0.000350842 0)
(-0.925662 0.000385803 0)
(-0.927023 0.000418661 0)
(-0.928548 0.000449953 0)
(-0.930244 0.000484084 0)
(-0.932069 0.000528646 0)
(-0.933936 0.000592088 0)
(-0.935727 0.000682022 0)
(-0.937328 0.000806804 0)
(-0.938636 0.000961583 0)
(-0.93957 0.00112913 0)
(-0.940089 0.00129437 0)
(-0.940188 0.00144005 0)
(-0.939881 0.00154221 0)
(-0.939196 0.00159913 0)
(-0.938174 0.00161082 0)
(-0.936853 0.00157965 0)
(-0.935266 0.00151122 0)
(-0.933444 0.00141263 0)
(-0.931415 0.00128686 0)
(-0.929214 0.00113809 0)
(-0.926858 0.000979536 0)
(-0.924357 0.000813695 0)
(-0.921725 0.000643228 0)
(-0.918972 0.000470574 0)
(-0.916108 0.000297937 0)
(-0.91314 0.000126939 0)
(-0.910075 -4.10999e-05 0)
(-0.90692 -0.000205143 0)
(-0.903681 -0.000364465 0)
(-0.900363 -0.000518491 0)
(-0.896969 -0.000666749 0)
(-0.893506 -0.000808812 0)
(-0.889976 -0.000944358 0)
(-0.886383 -0.00107318 0)
(-0.882732 -0.00119512 0)
(-0.879027 -0.00131013 0)
(-0.875273 -0.00141955 0)
(-0.87148 -0.00153013 0)
(-0.867653 -0.00163598 0)
(-0.863796 -0.00173446 0)
(-0.859914 -0.00182472 0)
(-0.85601 -0.00190642 0)
(-0.852085 -0.00197942 0)
(-0.848144 -0.00204365 0)
(-0.844187 -0.00209908 0)
(-0.840218 -0.0021457 0)
(-0.836238 -0.00218352 0)
(-0.832251 -0.00221255 0)
(-0.828257 -0.00223278 0)
(-0.824261 -0.0022442 0)
(-0.820263 -0.00224675 0)
(-0.816267 -0.00224035 0)
(-0.812274 -0.00222489 0)
(-0.80829 -0.00220025 0)
(-0.804316 -0.00216634 0)
(-0.800356 -0.00212314 0)
(-0.796415 -0.00207075 0)
(-0.792496 -0.00200944 0)
(-0.788606 -0.00193973 0)
(-0.784747 -0.00186252 0)
(-0.780926 -0.0017802 0)
(-0.77715 -0.00169609 0)
(-0.773436 -0.00160954 0)
(-0.769791 -0.00152063 0)
(-0.766219 -0.00142964 0)
(-0.762721 -0.00133774 0)
(-0.759299 -0.00124647 0)
(-0.755957 -0.00115682 0)
(-0.752694 -0.00106825 0)
(-0.749506 -0.000978505 0)
(-0.74638 -0.000884501 0)
(-0.743298 -0.000782632 0)
(-0.740242 -0.000668343 0)
(-0.73719 -0.000538039 0)
(-0.734132 -0.000394875 0)
(-0.731083 -0.000253841 0)
(-0.728091 -0.000138057 0)
(-0.725201 -6.26847e-05 0)
(-0.722363 -1.80466e-05 0)
(-0.719324 2.45916e-05 0)
(-0.715614 7.6508e-05 0)
(-0.710716 7.18441e-05 0)
(-0.704514 -0.000125903 0)
(-0.697711 -0.000530513 0)
(-0.691653 -0.000947476 0)
(-0.687489 -0.00104257 0)
(-0.685267 -0.000686829 0)
(-0.684128 -0.000111108 0)
(-0.683766 0.00045489 0)
(-0.684037 0.000915098 0)
(-0.684772 0.0012736 0)
(-0.685894 0.00156699 0)
(-0.687357 0.00182993 0)
(-0.689132 0.0020816 0)
(-0.6912 0.00232941 0)
(-0.693549 0.00257541 0)
(-0.696171 0.00282023 0)
(-0.699061 0.00306423 0)
(-0.702217 0.00330759 0)
(-0.705637 0.00355025 0)
(-0.709318 0.00379202 0)
(-0.71326 0.00403264 0)
(-0.717459 0.00427182 0)
(-0.721915 0.00450923 0)
(-0.726623 0.00474454 0)
(-0.731581 0.00497744 0)
(-0.736785 0.00520755 0)
(-0.74223 0.00543452 0)
(-0.747912 0.00565796 0)
(-0.753825 0.00587752 0)
(-0.759962 0.00609281 0)
(-0.766316 0.00630344 0)
(-0.772881 0.00650903 0)
(-0.779647 0.0067092 0)
(-0.786606 0.00690354 0)
(-0.793749 0.00709165 0)
(-0.801066 0.00727312 0)
(-0.808546 0.00744758 0)
(-0.816179 0.00761464 0)
(-0.823953 0.00777394 0)
(-0.831857 0.00792508 0)
(-0.839878 0.00806768 0)
(-0.848003 0.00820137 0)
(-0.856221 0.00832579 0)
(-0.864517 0.00844061 0)
(-0.872879 0.0085455 0)
(-0.881292 0.00864015 0)
(-0.889742 0.00872425 0)
(-0.898216 0.00879747 0)
(-0.906699 0.00885953 0)
(-0.915176 0.00891017 0)
(-0.923633 0.00894916 0)
(-0.932056 0.00897631 0)
(-0.94043 0.00899144 0)
(-0.948741 0.00899438 0)
(-0.956973 0.00898501 0)
(-0.965112 0.0089632 0)
(-0.973145 0.00892887 0)
(-0.981058 0.00888193 0)
(-0.988836 0.00882231 0)
(-0.996466 0.00874994 0)
(-1.00394 0.0086647 0)
(-1.01123 0.00856644 0)
(-1.01834 0.00845527 0)
(-1.02525 0.00833151 0)
(-1.03195 0.00819542 0)
(-1.03843 0.00804715 0)
(-1.04468 0.00788683 0)
(-1.05069 0.00771463 0)
(-1.05644 0.00753072 0)
(-1.06194 0.00733533 0)
(-1.06718 0.00712872 0)
(-1.07214 0.00691117 0)
(-1.07682 0.00668299 0)
(-1.08122 0.0064445 0)
(-1.08533 0.00619601 0)
(-1.08914 0.00593784 0)
(-1.09266 0.00567031 0)
(-1.09588 0.00539376 0)
(-1.09881 0.00510858 0)
(-1.10143 0.00481524 0)
(-1.10375 0.00451429 0)
(-1.10578 0.00420634 0)
(-1.10752 0.00389194 0)
(-1.10896 0.00357136 0)
(-1.11012 0.00324412 0)
(-1.11102 0.00290819 0)
(-1.11168 0.00255954 0)
(-1.11214 0.00219246 0)
(-1.11248 0.00180059 0)
(-1.11277 0.00137844 0)
(-1.1131 0.000929366 0)
(-1.11353 0.000481267 0)
(-1.11406 7.99431e-05 0)
(-1.11446 -0.000260054 0)
(-1.1146 -0.000581798 0)
(-1.11451 -0.000899905 0)
(-1.11416 -0.00121378 0)
(-1.11355 -0.00152556 0)
(-1.11267 -0.00183473 0)
(-1.11155 -0.00214111 0)
(-1.11016 -0.00244443 0)
(-1.10852 -0.00274453 0)
(-1.10663 -0.00304136 0)
(-1.1045 -0.00333487 0)
(-1.10211 -0.00362496 0)
(-1.09948 -0.00391152 0)
(-1.09662 -0.00419444 0)
(-1.09351 -0.00447367 0)
(-1.09017 -0.0047492 0)
(-1.08659 -0.00502108 0)
(-1.08279 -0.0052893 0)
(-1.07876 -0.00555388 0)
(-1.07451 -0.0058148 0)
(-1.07004 -0.0060721 0)
(-1.06535 -0.00632579 0)
(-1.06044 -0.00657592 0)
(-1.05532 -0.00682254 0)
(-1.05 -0.00706571 0)
(-1.04446 -0.00730545 0)
(-1.03873 -0.00754182 0)
(-1.03279 -0.00777484 0)
(-1.02666 -0.00800458 0)
(-1.02033 -0.00823106 0)
(-1.01381 -0.00845435 0)
(-1.0071 -0.00867449 0)
(-1.0002 -0.00889156 0)
(-0.993113 -0.0091056 0)
(-0.985848 -0.00931671 0)
(-0.978403 -0.00952498 0)
(-0.970781 -0.00973052 0)
(-0.962984 -0.00993348 0)
(-0.955015 -0.010134 0)
(-0.946877 -0.0103322 0)
(-0.938572 -0.0105282 0)
(-0.930103 -0.0107222 0)
(-0.921472 -0.010914 0)
(-0.912683 -0.0111039 0)
(-0.903738 -0.0112918 0)
(-0.894639 -0.0114777 0)
(-0.88539 -0.0116616 0)
(-0.875994 -0.0118435 0)
(-0.866453 -0.0120235 0)
(-0.856769 -0.0122016 0)
(-0.846945 -0.0123777 0)
(-0.836984 -0.0125519 0)
(-0.826888 -0.012724 0)
(-0.816659 -0.0128942 0)
(-0.8063 -0.0130623 0)
(-0.795813 -0.0132283 0)
(-0.7852 -0.0133923 0)
(-0.774465 -0.0135543 0)
(-0.763609 -0.0137143 0)
(-0.752636 -0.0138723 0)
(-0.741548 -0.0140283 0)
(-0.730346 -0.0141823 0)
(-0.719035 -0.0143342 0)
(-0.707616 -0.0144841 0)
(-0.696092 -0.014632 0)
(-0.684466 -0.014778 0)
(-0.67274 -0.014922 0)
(-0.660918 -0.015064 0)
(-0.649 -0.0152042 0)
(-0.636991 -0.0153425 0)
(-0.624893 -0.015479 0)
(-0.612708 -0.015614 0)
(-0.600439 -0.0157475 0)
(-0.588088 -0.0158798 0)
(-0.57566 -0.0160107 0)
(-0.563156 -0.0161399 0)
(-0.550581 -0.0162668 0)
(-0.537936 -0.0163904 0)
(-0.525226 -0.0165096 0)
(-0.512454 -0.0166237 0)
(-0.499624 -0.0167322 0)
(-0.486743 -0.0168352 0)
(-0.473814 -0.0169333 0)
(-0.460845 -0.017027 0)
(-0.447838 -0.0171169 0)
(-0.434798 -0.0172028 0)
(-0.421728 -0.0172848 0)
(-0.408632 -0.0173627 0)
(-0.395514 -0.0174369 0)
(-0.382377 -0.0175077 0)
(-0.369226 -0.0175754 0)
(-0.356063 -0.0176401 0)
(-0.342892 -0.0177015 0)
(-0.329717 -0.0177594 0)
(-0.316542 -0.0178136 0)
(-0.303368 -0.0178642 0)
(-0.290201 -0.0179115 0)
(-0.277044 -0.0179557 0)
(-0.263899 -0.0179968 0)
(-0.25077 -0.0180345 0)
(-0.237659 -0.0180688 0)
(-0.224569 -0.0181003 0)
(-0.211501 -0.0181291 0)
(-0.19846 -0.0181552 0)
(-0.185447 -0.0181778 0)
(-0.172463 -0.0181955 0)
(-0.159504 -0.0182127 0)
(-0.146571 -0.0182276 0)
(-0.133674 -0.0182212 0)
(-0.120743 -0.0182496 0)
(-0.107816 -0.0182686 0)
(-0.0950135 -0.0182301 0)
(-0.0817042 -0.0184315 0)
(-0.0697594 -0.0182563 0)
(-0.0553858 -0.0184708 0)
(-0.0461061 -0.0188533 0)
(-0.0307641 -0.0185162 0)
(-0.0239047 -0.0179628 0)
(-0.000218944 -0.0171286 0)
(-0.0104406 0.0339655 0)
(-0.0233015 0.0235733 0)
(-0.0334824 0.0251315 0)
(-0.048207 0.0279929 0)
(-0.0622171 0.0291994 0)
(-0.0775115 0.0293857 0)
(-0.0920472 0.0292787 0)
(-0.106804 0.0291787 0)
(-0.121366 0.0291246 0)
(-0.13595 0.0290758 0)
(-0.15048 0.0290138 0)
(-0.164956 0.0289313 0)
(-0.179359 0.0288288 0)
(-0.193675 0.0287075 0)
(-0.207892 0.0285683 0)
(-0.221999 0.0284123 0)
(-0.235986 0.0282394 0)
(-0.249841 0.0280497 0)
(-0.263556 0.0278438 0)
(-0.277121 0.0276221 0)
(-0.290529 0.0273853 0)
(-0.303773 0.0271342 0)
(-0.316845 0.0268692 0)
(-0.329739 0.0265908 0)
(-0.342451 0.0262998 0)
(-0.354976 0.0259967 0)
(-0.367309 0.0256823 0)
(-0.379448 0.0253572 0)
(-0.391389 0.025022 0)
(-0.403129 0.0246773 0)
(-0.414667 0.0243237 0)
(-0.426001 0.0239619 0)
(-0.437129 0.0235921 0)
(-0.448049 0.023215 0)
(-0.458762 0.0228308 0)
(-0.469267 0.02244 0)
(-0.479563 0.0220428 0)
(-0.48965 0.0216396 0)
(-0.499528 0.0212305 0)
(-0.509197 0.0208157 0)
(-0.518657 0.0203952 0)
(-0.527909 0.0199689 0)
(-0.536954 0.0195373 0)
(-0.545792 0.0191008 0)
(-0.554426 0.0186598 0)
(-0.562856 0.0182135 0)
(-0.571082 0.0177592 0)
(-0.5791 0.0172929 0)
(-0.586907 0.0168101 0)
(-0.5945 0.016309 0)
(-0.601882 0.0157926 0)
(-0.609059 0.0152692 0)
(-0.61604 0.01475 0)
(-0.622833 0.0142453 0)
(-0.629442 0.0137604 0)
(-0.635867 0.0132936 0)
(-0.642101 0.0128389 0)
(-0.648138 0.0123907 0)
(-0.653974 0.0119494 0)
(-0.659611 0.0115233 0)
(-0.665058 0.0111249 0)
(-0.670323 0.0107628 0)
(-0.675405 0.0104312 0)
(-0.680284 0.010105 0)
(-0.684928 0.00975061 0)
(-0.689311 0.0093455 0)
(-0.693428 0.00887864 0)
(-0.697292 0.00836546 0)
(-0.700938 0.007853 0)
(-0.704408 0.00738554 0)
(-0.70772 0.00697271 0)
(-0.710872 0.00660519 0)
(-0.713862 0.00626647 0)
(-0.716689 0.00594071 0)
(-0.719355 0.00562503 0)
(-0.721869 0.00532558 0)
(-0.724242 0.00504839 0)
(-0.726483 0.00479561 0)
(-0.728604 0.00456684 0)
(-0.730615 0.0043614 0)
(-0.732526 0.00417922 0)
(-0.73435 0.00402078 0)
(-0.7361 0.00388664 0)
(-0.737787 0.00377702 0)
(-0.739424 0.00369198 0)
(-0.741025 0.00363138 0)
(-0.742601 0.00359523 0)
(-0.744164 0.00358343 0)
(-0.745727 0.00359485 0)
(-0.747299 0.00362853 0)
(-0.748893 0.00368379 0)
(-0.750517 0.00375948 0)
(-0.752183 0.00385343 0)
(-0.753898 0.00396451 0)
(-0.755671 0.00409165 0)
(-0.757509 0.00423309 0)
(-0.759419 0.00438659 0)
(-0.761406 0.00455029 0)
(-0.763475 0.00472222 0)
(-0.76563 0.00490032 0)
(-0.767873 0.00508258 0)
(-0.770208 0.00526716 0)
(-0.772635 0.0054519 0)
(-0.775153 0.00563439 0)
(-0.777763 0.00581247 0)
(-0.780463 0.0059842 0)
(-0.783248 0.00614756 0)
(-0.786117 0.00630054 0)
(-0.789063 0.00644126 0)
(-0.792082 0.00656797 0)
(-0.795166 0.00667907 0)
(-0.798308 0.00677287 0)
(-0.801499 0.00684781 0)
(-0.804731 0.00690275 0)
(-0.807994 0.00693664 0)
(-0.811277 0.00694859 0)
(-0.81457 0.00693792 0)
(-0.817861 0.00690421 0)
(-0.821138 0.00684712 0)
(-0.824391 0.00676644 0)
(-0.827606 0.00666239 0)
(-0.830773 0.00653537 0)
(-0.833878 0.00638595 0)
(-0.836912 0.00621503 0)
(-0.839861 0.00602363 0)
(-0.842716 0.00581279 0)
(-0.845465 0.00558377 0)
(-0.848098 0.00533806 0)
(-0.850606 0.00507725 0)
(-0.852978 0.00480296 0)
(-0.855208 0.00451687 0)
(-0.857287 0.00422078 0)
(-0.859207 0.00391685 0)
(-0.860963 0.00360776 0)
(-0.862547 0.00329684 0)
(-0.863955 0.00298771 0)
(-0.865184 0.00268388 0)
(-0.866237 0.00238835 0)
(-0.867118 0.00210338 0)
(-0.867838 0.00183052 0)
(-0.868408 0.00157035 0)
(-0.868832 0.00131886 0)
(-0.869113 0.00106471 0)
(-0.869258 0.000799901 0)
(-0.869281 0.000532107 0)
(-0.869212 0.000271716 0)
(-0.86906 3.89197e-05 0)
(-0.868816 -0.000182196 0)
(-0.868497 -0.000390085 0)
(-0.868119 -0.000583819 0)
(-0.867694 -0.000762617 0)
(-0.867233 -0.000925876 0)
(-0.866747 -0.0010733 0)
(-0.866248 -0.00120457 0)
(-0.865744 -0.00131937 0)
(-0.865246 -0.0014175 0)
(-0.864762 -0.00149888 0)
(-0.8643 -0.00156387 0)
(-0.863864 -0.00161333 0)
(-0.863462 -0.00164875 0)
(-0.863096 -0.00167163 0)
(-0.862773 -0.00168279 0)