/*--------------------------------*- C++ -*----------------------------------*\
| =========                 |                                                 |
| \\      /  F ield         | OpenFOAM: The Open Source CFD Toolbox           |
|  \\    /   O peration     | Version:  v2006                                 |
|   \\  /    A nd           | Website:  www.openfoam.com                      |
|    \\/     M anipulation  |                                                 |
\*---------------------------------------------------------------------------*/
FoamFile
{
    version     2.0;
    format      ascii;
    class       volScalarField;
    location    "0";
    object      f;
}
// * * * * * * * * * * * * * * * * * * * * * * * * * * * * * * * * * * * * * //

dimensions      [0 0 0 0 0 0 0];


internalField   nonuniform List<scalar> 
2500
(
2.1312e-82
1.09819e-67
1.49912e-60
1.83632e-54
-4.06806e-50
3.01306e-47
-9.01564e-45
-4.99565e-42
-1.77572e-40
-1.05165e-40
9.49455e-38
1.31338e-36
9.15876e-36
7.87731e-35
2.97201e-34
8.74285e-34
9.42639e-33
7.17018e-32
2.9336e-31
6.37372e-31
-3.70293e-32
-5.71574e-30
-2.17573e-29
-4.31591e-29
-3.80181e-29
5.77095e-29
3.74688e-28
1.20453e-27
2.9356e-27
5.70361e-27
9.06939e-27
1.21067e-26
1.38879e-26
1.39327e-26
1.23351e-26
9.55446e-27
6.07225e-27
2.17835e-27
-1.98488e-27
-6.19279e-27
-9.92844e-27
-1.24535e-26
-1.32124e-26
-1.22047e-26
-1.0001e-26
-7.41076e-27
-5.07675e-27
-3.28945e-27
-2.05472e-27
-7.66244e-28
4.52495e-80
3.57976e-66
1.84692e-58
4.16532e-53
-1.05047e-48
5.62498e-46
-1.14721e-43
-6.46348e-41
-2.11875e-39
-5.04458e-39
8.55253e-37
1.09491e-35
7.17825e-35
6.12445e-34
1.98319e-33
2.18615e-33
3.40243e-32
3.44729e-31
1.57639e-30
3.89023e-30
2.6544e-30
-1.91708e-29
-8.5061e-29
-1.79112e-28
-1.93711e-28
6.12931e-29
9.62971e-28
3.44608e-27
8.8302e-27
1.7623e-26
2.83997e-26
3.81046e-26
4.3725e-26
4.37673e-26
3.86408e-26
2.99634e-26
1.94372e-26
8.10737e-27
-3.59813e-27
-1.52076e-26
-2.54878e-26
-3.25009e-26
-3.47028e-26
-3.20333e-26
-2.60411e-26
-1.90023e-26
-1.2741e-26
-8.05548e-27
-4.91388e-27
-1.90904e-27
9.10128e-78
-9.51169e-65
1.20285e-56
8.82703e-52
-2.55878e-47
9.71031e-45
-1.36656e-42
-8.05984e-40
-2.46691e-38
-9.39361e-38
7.61777e-36
9.06229e-35
5.6199e-34
4.9444e-33
1.48583e-32
-2.90615e-33
7.52368e-32
1.64342e-30
8.76475e-30
2.39962e-29
2.65883e-29
-6.54981e-29
-3.69013e-28
-8.26841e-28
-1.01067e-27
-2.5614e-28
2.70971e-27
1.14588e-26
3.13773e-26
6.48231e-26
1.06415e-25
1.44129e-25
1.66118e-25
1.66569e-25
1.47173e-25
1.14454e-25
7.53959e-26
3.43949e-26
-6.92966e-27
-4.74006e-26
-8.3337e-26
-1.08276e-25
-1.16721e-25
-1.08129e-25
-8.7676e-26
-6.33941e-26
-4.18751e-26
-2.59983e-26
-1.55795e-26
-6.24714e-27
1.86149e-75
-2.94941e-62
6.30592e-55
1.90941e-50
-6.02967e-46
1.57405e-43
-1.53067e-41
-9.65991e-39
-2.76991e-37
-1.36317e-36
6.51037e-35
7.12325e-34
4.13881e-33
3.89112e-32
1.15331e-31
-1.04011e-31
-4.35945e-31
6.50333e-30
4.52906e-29
1.38372e-28
1.97272e-28
-1.64028e-28
-1.51619e-27
-3.66782e-27
-4.93376e-27
-3.09917e-27
5.81309e-27
3.50318e-26
1.06096e-25
2.29751e-25
3.8645e-25
5.30017e-25
6.14845e-25
6.18579e-25
5.47669e-25
4.27383e-25
2.8541e-25
1.3975e-25
-3.3925e-27
-1.41688e-25
-2.64942e-25
-3.52282e-25
-3.84536e-25
-3.58446e-25
-2.90538e-25
-2.08456e-25
-1.35699e-25
-8.26731e-26
-4.86144e-26
-2.01045e-26
3.85809e-73
-3.43105e-60
2.92554e-53
4.45008e-49
-1.37371e-44
2.37703e-42
-1.59602e-40
-1.10831e-37
-2.9903e-36
-1.71767e-35
5.34311e-34
5.27816e-33
2.81094e-32
2.95939e-31
9.08553e-31
-9.66929e-31
-8.07602e-30
1.57795e-29
2.13385e-28
7.47383e-28
1.26403e-27
-9.05822e-30
-5.81925e-27
-1.56027e-26
-2.27701e-26
-2.02725e-26
2.98665e-27
9.43291e-26
3.37944e-25
7.81544e-25
1.35712e-24
1.89174e-24
2.21374e-24
2.23854e-24
1.98882e-24
1.55851e-24
1.05368e-24
5.46096e-25
5.98952e-26
-4.0289e-25
-8.17005e-25
-1.11749e-24
-1.2392e-24
-1.16572e-24
-9.46945e-25
-6.75369e-25
-4.33495e-25
-2.58959e-25
-1.49214e-25
-6.35507e-26
8.04269e-71
-3.12105e-58
1.24374e-51
1.16298e-47
-3.02306e-43
3.2931e-41
-1.53204e-39
-1.21112e-36
-3.09346e-35
-1.94796e-34
4.2266e-33
3.64956e-32
1.69623e-31
2.15624e-30
7.09848e-30
-6.15691e-30
-7.83863e-29
-5.01577e-29
8.78206e-28
3.76855e-27
7.33275e-27
3.65022e-27
-2.03246e-26
-6.34283e-26
-9.99206e-26
-1.08201e-25
-6.29694e-26
1.9854e-25
9.97115e-25
2.53826e-24
4.59645e-24
6.54072e-24
7.7405e-24
7.88203e-24
7.03839e-24
5.54408e-24
3.79102e-24
2.05764e-24
4.39199e-25
-1.0759e-24
-2.43659e-24
-3.44943e-24
-3.90011e-24
-3.71474e-24
-3.03314e-24
-2.15498e-24
-1.3649e-24
-7.98806e-25
-4.5022e-25
-1.97064e-25
1.67064e-68
-2.49151e-56
4.9233e-50
3.36722e-46
-6.4183e-42
4.05571e-40
-1.34616e-38
-1.25196e-35
-3.05475e-34
-2.0144e-33
3.25062e-32
2.31998e-31
8.28941e-31
1.49082e-29
5.39576e-29
-2.64855e-29
-6.12715e-28
-1.11869e-27
2.78657e-27
1.75652e-26
3.9231e-26
3.34669e-26
-6.08411e-26
-2.44976e-25
-4.18157e-25
-5.14832e-25
-5.03122e-25
1.52011e-25
2.63875e-24
7.81257e-24
1.49662e-23
2.18588e-23
2.62342e-23
2.69563e-23
2.42379e-23
1.92156e-23
1.32824e-23
7.48789e-24
2.21094e-24
-2.63756e-24
-7.00221e-24
-1.03374e-23
-1.19655e-23
-1.15824e-23
-9.5386e-24
-6.76866e-24
-4.23505e-24
-2.42617e-24
-1.33459e-24
-5.98645e-25
3.42578e-66
-1.81706e-54
1.82905e-48
1.02428e-44
-1.3126e-40
4.10516e-39
-1.1141e-37
-1.21243e-34
-2.86632e-33
-1.9026e-32
2.4703e-31
1.32406e-30
2.14046e-30
9.66675e-29
3.93522e-28
-2.04885e-29
-4.21951e-27
-1.08601e-26
2.81348e-27
7.40724e-26
1.94806e-25
2.21668e-25
-1.27501e-25
-8.90005e-25
-1.67044e-24
-2.25928e-24
-2.75552e-24
-1.4929e-24
5.79313e-24
2.25351e-23
4.66597e-23
7.04294e-23
8.59955e-23
8.93656e-23
8.1079e-23
6.4804e-23
4.52802e-23
2.63434e-23
9.49861e-24
-5.65695e-24
-1.92997e-23
-2.99945e-23
-3.57062e-23
-3.52745e-23
-2.94171e-23
-2.0915e-23
-1.29477e-23
-7.25498e-24
-3.8843e-24
-1.77899e-24
6.87846e-64
-1.2328e-52
6.40088e-47
3.10698e-43
-2.5806e-39
2.47407e-38
-1.00623e-36
-1.08341e-33
-2.54131e-32
-1.62848e-31
1.90055e-30
6.5027e-30
-1.7034e-29
5.77945e-28
2.72648e-27
1.06376e-27
-2.64786e-26
-8.34987e-26
-5.35836e-26
2.68863e-25
8.96659e-25
1.25709e-24
6.94035e-26
-2.9866e-24
-6.36356e-24
-9.29626e-24
-1.28164e-23
-1.2073e-23
7.71182e-24
5.97828e-23
1.38572e-22
2.18125e-22
2.71959e-22
2.86526e-22
2.62932e-22
2.12331e-22
1.50059e-22
8.9654e-23
3.70309e-23
-9.22317e-24
-5.07036e-23
-8.3986e-23
-1.03359e-22
-1.0472e-22
-8.88451e-23
-6.35318e-23
-3.89973e-23
-2.13598e-23
-1.10937e-23
-5.16318e-24
1.34336e-61
-7.85215e-51
2.11235e-45
9.09618e-42
-4.86536e-38
-2.27589e-37
-1.29538e-35
-8.695e-33
-2.11404e-31
-1.23634e-30
1.51972e-29
2.51107e-29
-3.65583e-28
3.09321e-27
1.7805e-26
1.45211e-26
-1.5385e-25
-5.6549e-25
-6.38136e-25
7.18555e-25
3.7917e-24
6.41717e-24
2.9011e-24
-8.9127e-24
-2.30408e-23
-3.61917e-23
-5.38157e-23
-6.30104e-23
-1.45464e-23
1.40616e-22
3.89301e-22
6.47034e-22
8.27325e-22
8.86057e-22
8.24656e-22
6.7473e-22
4.82968e-22
2.95267e-22
1.34428e-22
-3.40661e-24
-1.25884e-22
-2.26013e-22
-2.89276e-22
-3.02296e-22
-2.62339e-22
-1.89545e-22
-1.15696e-22
-6.19273e-23
-3.10759e-23
-1.4608e-23
2.53851e-59
-4.71712e-49
6.56781e-44
2.5276e-40
-8.76961e-37
-1.19861e-35
-2.32865e-34
-5.91031e-32
-1.63497e-30
-7.89868e-30
1.28091e-28
5.82906e-29
-4.22698e-27
1.38805e-26
1.08768e-25
1.33488e-25
-8.34951e-25
-3.50611e-24
-5.01978e-24
1.98917e-25
1.44239e-23
3.00511e-23
2.24074e-23
-2.13769e-23
-7.87487e-23
-1.34005e-22
-2.09399e-22
-2.75002e-22
-1.74019e-22
2.67367e-22
1.02433e-21
1.83031e-21
2.41257e-21
2.63418e-21
2.49435e-21
2.07522e-21
1.50808e-21
9.4129e-22
4.6041e-22
5.90759e-23
-2.91645e-22
-5.81556e-22
-7.79558e-22
-8.45967e-22
-7.55797e-22
-5.5479e-22
-3.38022e-22
-1.76862e-22
-8.53451e-23
-4.01986e-23
4.62172e-57
-2.6783e-47
1.91891e-42
6.60879e-39
-1.5053e-35
-2.86157e-34
-4.45084e-33
-2.82152e-31
-1.16129e-29
-3.58148e-29
1.12734e-27
-1.0104e-29
-3.92657e-26
4.1723e-26
6.15932e-25
1.01343e-24
-4.25539e-24
-2.02613e-23
-3.31492e-23
-1.54086e-23
4.69807e-23
1.29865e-22
1.2963e-22
-2.43728e-23
-2.50774e-22
-4.73178e-22
-7.65469e-22
-1.07429e-21
-9.25771e-22
2.68215e-22
2.48519e-21
4.9106e-21
6.71566e-21
7.4985e-21
7.25037e-21
6.16239e-21
4.56343e-21
2.90549e-21
1.49919e-21
3.55462e-22
-6.17875e-22
-1.42139e-21
-2.01207e-21
-2.28644e-21
-2.11926e-21
-1.59083e-21
-9.72223e-22
-4.97814e-22
-2.29736e-22
-1.07281e-22
8.07813e-55
-1.43782e-45
5.24456e-41
1.61609e-37
-2.44811e-34
-5.36929e-33
-7.88129e-32
1.534e-31
-7.45051e-29
-4.52876e-31
1.00742e-26
9.1981e-28
-3.18952e-25
-5.44802e-26
3.19139e-24
6.73565e-24
-2.045e-23
-1.10127e-22
-1.95973e-22
-1.46997e-22
1.12433e-22
5.16777e-22
6.47028e-22
1.41824e-22
-7.25123e-22
-1.59466e-21
-2.65122e-21
-3.86223e-21
-3.88477e-21
-8.25591e-22
5.40785e-21
1.24076e-20
1.77522e-20
2.03351e-20
2.0161e-20
1.76142e-20
1.33654e-20
8.68728e-21
4.6647e-21
1.46535e-21
-1.15376e-21
-3.2711e-21
-4.93858e-21
-5.93986e-21
-5.76589e-21
-4.46075e-21
-2.75138e-21
-1.38184e-21
-6.06093e-22
-2.76551e-22
1.35113e-52
-7.29167e-44
1.33179e-39
3.67052e-36
-3.74615e-33
-8.7562e-32
-1.25708e-30
2.61353e-29
-4.22253e-28
2.45858e-27
8.85512e-26
4.1867e-26
-2.33502e-24
-2.23523e-24
1.48057e-23
4.00862e-23
-9.3023e-23
-5.65319e-22
-1.06373e-21
-9.87235e-22
3.5253e-23
1.87451e-21
2.91038e-21
1.41464e-21
-1.79359e-21
-5.12339e-21
-8.75394e-21
-1.29604e-20
-1.42496e-20
-6.85027e-21
9.93954e-21
2.92426e-20
4.42706e-20
5.21888e-20
5.33058e-20
4.82748e-20
3.78367e-20
2.51777e-20
1.39235e-20
5.10178e-21
-1.74764e-21
-7.00445e-21
-1.14126e-20
-1.47395e-20
-1.51623e-20
-1.2203e-20
-7.65492e-21
-3.78546e-21
-1.56731e-21
-6.84424e-22
2.15574e-50
-3.48632e-42
3.11196e-38
7.65861e-35
-5.33901e-32
-1.28651e-30
-1.8092e-29
4.27428e-28
-2.06155e-27
3.70963e-26
7.46075e-25
6.91864e-25
-1.55902e-23
-2.34972e-23
5.89187e-23
2.15351e-22
-4.02346e-22
-2.74173e-21
-5.35855e-21
-5.60019e-21
-1.78394e-21
6.06033e-21
1.19891e-20
8.28812e-21
-3.10689e-21
-1.56369e-20
-2.77078e-20
-4.09425e-20
-4.73929e-20
-3.05128e-20
1.2731e-20
6.3396e-20
1.03259e-19
1.25603e-19
1.32863e-19
1.26203e-19
1.03381e-19
7.08078e-20
4.00144e-20
1.59093e-20
-1.58976e-21
-1.37274e-20
-2.44616e-20
-3.46407e-20
-3.8344e-20
-3.24686e-20
-2.09118e-20
-1.02419e-20
-3.97401e-21
-1.60976e-21
3.27045e-48
-1.56666e-40
6.60393e-37
1.4386e-33
-6.97125e-31
-1.7314e-29
-2.36322e-28
5.03853e-27
-8.70028e-27
3.905e-25
5.9144e-24
8.00659e-24
-9.51935e-23
-1.82973e-22
1.79692e-22
1.04398e-21
-1.66505e-21
-1.25175e-20
-2.51309e-20
-2.8256e-20
-1.47885e-20
1.66062e-20
4.54222e-20
3.97092e-20
1.26414e-21
-4.50063e-20
-8.45988e-20
-1.22553e-19
-1.45331e-19
-1.08795e-19
-2.41159e-21
1.23625e-19
2.22596e-19
2.79704e-19
3.0807e-19
3.12426e-19
2.72184e-19
1.93537e-19
1.11162e-19
4.55204e-20
1.45737e-21
-2.40771e-20
-4.74406e-20
-7.61732e-20
-9.26227e-20
-8.36796e-20
-5.59899e-20
-2.73881e-20
-9.88731e-21
-3.53088e-21
4.70099e-46
-6.5876e-39
1.2537e-35
2.32909e-32
-8.08735e-30
-2.15425e-28
-2.81476e-27
5.01067e-26
-3.82715e-26
3.37072e-24
4.35013e-23
7.48587e-23
-5.29481e-22
-1.19781e-21
2.24559e-22
4.5328e-21
-6.65513e-21
-5.33139e-20
-1.09468e-19
-1.29159e-19
-8.43524e-20
3.32429e-20
1.57778e-19
1.67664e-19
4.64463e-20
-1.20369e-19
-2.51289e-19
-3.49881e-19
-4.14582e-19
-3.37915e-19
-8.78596e-20
2.07969e-19
4.35724e-19
5.64058e-19
6.49551e-19
7.24366e-19
6.89287e-19
5.15204e-19
2.99881e-19
1.2096e-19
1.02735e-20
-3.68959e-20
-7.93963e-20
-1.53812e-19
-2.11638e-19
-2.07704e-19
-1.46539e-19
-7.24363e-20
-2.41734e-20
-6.93293e-21
6.37661e-44
-2.57594e-37
2.12234e-34
2.8711e-31
-7.75628e-29
-2.49524e-27
-3.06822e-26
4.44404e-25
-2.71665e-25
2.48659e-23
2.93091e-22
5.95419e-22
-2.65159e-21
-6.83101e-21
-2.05255e-21
1.73314e-20
-2.60787e-20
-2.08027e-19
-4.39356e-19
-5.37116e-19
-3.97488e-19
1.22212e-20
4.97714e-19
6.39926e-19
2.93216e-19
-2.89365e-19
-7.35154e-19
-9.60667e-19
-1.10657e-18
-9.42671e-19
-3.79193e-19
2.72672e-19
7.52276e-19
9.89899e-19
1.18848e-18
1.54398e-18
1.67578e-18
1.33918e-18
7.89584e-19
3.0076e-19
1.99296e-20
-5.04808e-20
-1.01859e-19
-2.76168e-19
-4.50482e-19
-4.92339e-19
-3.73498e-19
-1.89605e-19
-5.82563e-20
-1.08492e-20
8.12309e-42
-9.28471e-36
3.46628e-33
1.15754e-30
-4.68614e-28
-2.70972e-26
-3.07729e-25
3.63958e-24
-2.55437e-24
1.57904e-22
1.78177e-21
4.10348e-21
-1.16628e-20
-3.41493e-20
-2.16995e-20
5.63357e-20
-1.02483e-19
-7.17743e-19
-1.5999e-18
-2.02214e-18
-1.62089e-18
-3.06993e-19
1.40141e-18
2.22205e-18
1.38331e-18
-5.68794e-19
-2.15525e-18
-2.56478e-18
-2.77775e-18
-2.39391e-18
-1.16358e-18
1.75756e-19
1.08223e-18
1.3765e-18
1.65486e-18
2.91692e-18
3.90334e-18
3.40806e-18
2.03894e-18
7.04172e-19
-2.01944e-20
-8.2922e-20
-5.49776e-20
-4.12859e-19
-8.69035e-19
-1.09939e-18
-9.22025e-19
-4.9154e-19
-1.39287e-19
-6.50139e-21
9.66022e-40
-3.04441e-34
7.46526e-32
-7.59667e-29
2.61296e-27
-2.78123e-25
-2.87747e-24
2.83698e-23
-1.73466e-23
8.54431e-22
9.55672e-21
2.44603e-20
-4.26446e-20
-1.47664e-19
-1.32101e-19
1.42087e-19
-4.14398e-19
-2.03374e-18
-5.14562e-18
-6.79858e-18
-5.77449e-18
-1.96047e-18
3.42122e-18
6.97191e-18
5.65314e-18
-5.53e-19
-6.46982e-18
-6.74205e-18
-6.59936e-18
-5.57263e-18
-2.89437e-18
-3.65323e-19
1.11313e-18
1.02668e-18
6.74174e-19
4.44609e-18
8.69286e-18
8.51075e-18
5.18009e-18
1.56261e-18
-3.26602e-19
-2.68292e-19
1.69292e-19
-4.25667e-19
-1.43032e-18
-2.25588e-18
-2.18641e-18
-1.2631e-18
-3.3466e-19
4.56395e-20
1.0641e-37
-8.88987e-33
2.64007e-30
-3.34063e-27
1.5497e-25
-2.7158e-24
-2.59168e-23
2.14572e-22
-1.91508e-24
3.85521e-21
4.34215e-20
1.22931e-19
-1.10577e-19
-5.28784e-19
-6.0603e-19
1.76424e-19
-1.73647e-18
-3.95103e-18
-1.39561e-17
-1.98899e-17
-1.77839e-17
-8.03702e-18
6.883e-18
1.93007e-17
2.10254e-17
2.58991e-18
-2.03173e-17
-1.76299e-17
-1.49907e-17
-1.19607e-17
-5.7516e-18
-1.56115e-18
2.48824e-19
-1.68255e-18
-6.27405e-18
3.47556e-18
1.84704e-17
2.08792e-17
1.29419e-17
3.30327e-18
-1.5851e-18
-1.18453e-18
5.59118e-19
-1.54691e-20
-1.65306e-18
-4.02744e-18
-4.91472e-18
-3.21963e-18
-8.26007e-19
2.89745e-19
1.07391e-35
-2.22336e-31
1.09971e-28
-9.44327e-26
3.47318e-24
-2.51477e-23
-2.39717e-22
1.54545e-21
1.8748e-21
1.42741e-20
1.52118e-19
4.79395e-19
-4.59462e-20
-1.35944e-18
-2.14824e-18
-8.23815e-19
-7.22152e-18
-3.17928e-18
-2.95303e-17
-4.81569e-17
-4.56948e-17
-2.50009e-17
1.03398e-17
4.45844e-17
7.23476e-17
2.30913e-17
-6.77313e-17
-4.62869e-17
-3.33336e-17
-2.39574e-17
-6.95909e-18
-1.97324e-18
-1.99114e-18
-9.15461e-18
-3.13531e-17
-9.89157e-18
3.7342e-17
5.02982e-17
3.16097e-17
6.61343e-18
-5.56485e-18
-4.78097e-18
4.09655e-20
9.59263e-19
2.91328e-19
-5.2743e-18
-1.02312e-17
-8.14031e-18
-2.15723e-18
1.19226e-18
9.76779e-34
-4.35505e-30
4.20424e-27
-2.20213e-24
6.00029e-23
-2.14541e-22
-2.45756e-21
9.49672e-21
3.00578e-20
4.76179e-20
2.86084e-19
9.73583e-19
1.52938e-18
-5.78228e-19
-5.4001e-18
-8.3529e-18
-2.65654e-17
-2.8262e-17
-4.41518e-17
-8.58468e-17
-8.78928e-17
-5.82635e-17
9.16926e-18
7.5962e-17
2.33351e-16
1.27766e-16
-2.45707e-16
-1.29809e-16
-7.80137e-17
-4.63756e-17
1.1332e-17
9.64035e-18
-4.1117e-18
-2.22266e-17
-1.03016e-16
-6.6829e-17
7.14333e-17
1.18785e-16
7.44948e-17
1.19641e-17
-1.60536e-17
-1.67133e-17
-7.1328e-18
3.81356e-19
9.29926e-18
-1.01655e-19
-1.88048e-17
-2.0362e-17
-6.11087e-18
4.13123e-18
7.79073e-32
-4.72678e-29
1.41261e-25
-4.57719e-23
8.94291e-22
-1.54917e-21
-2.83664e-20
2.92699e-20
2.89236e-19
2.25421e-19
-8.08591e-19
-5.08511e-18
1.02064e-17
2.14879e-17
-5.8017e-18
-4.12373e-17
-6.50959e-17
-1.21734e-15
4.62843e-15
6.68581e-15
7.21335e-16
-8.06924e-17
1.74075e-18
1.48631e-16
2.15691e-15
6.80158e-16
-1.29246e-15
-9.68666e-16
-2.33381e-16
-9.34359e-17
1.3356e-16
9.73404e-17
2.44533e-18
-3.44747e-17
-2.8475e-16
-2.65853e-16
1.275e-16
2.74649e-16
1.65244e-16
1.57274e-17
-3.95735e-17
-5.18113e-17
-4.30384e-17
-1.46208e-17
3.45761e-17
3.25665e-17
-2.67214e-17
-4.99399e-17
-1.88197e-17
1.28553e-17
5.16667e-30
7.75855e-28
4.27835e-24
-8.9389e-22
1.18965e-20
-7.16085e-21
-3.41085e-19
-4.06453e-19
1.81983e-18
1.88615e-18
-8.85323e-18
-8.26154e-17
4.05987e-17
2.50181e-16
2.25178e-17
-4.56993e-16
2.95251e-16
-9.99493e-15
4.70135e-14
1.86776e-13
2.20739e-13
1.49091e-13
1.28298e-13
7.28422e-14
2.63894e-14
2.50171e-15
-9.21767e-15
-1.35588e-14
-1.57148e-15
-2.03451e-16
1.2391e-15
6.89252e-16
3.83341e-17
-4.18807e-17
-1.53077e-15
-1.01887e-15
2.08388e-16
6.2198e-16
3.26024e-16
-9.31678e-18
-8.33025e-17
-1.45176e-16
-1.81089e-16
-9.7743e-17
8.23263e-17
1.58652e-16
-1.13007e-17
-1.17121e-16
-6.17161e-17
3.67008e-17
2.4747e-28
5.80458e-26
1.24804e-22
-1.73393e-20
1.41654e-19
2.08679e-20
-3.79868e-18
-1.02796e-17
6.19538e-18
1.8529e-17
-2.35394e-17
-8.17222e-16
1.21089e-15
7.20731e-15
-9.74292e-15
-2.41951e-14
2.57779e-14
7.46744e-14
6.15452e-14
5.43255e-13
1.0137e-12
1.28611e-12
9.97759e-13
7.63952e-13
9.63688e-14
-1.25403e-13
-3.01931e-14
-4.61653e-14
-1.62799e-14
-1.9826e-15
1.09851e-14
3.55699e-15
-5.37733e-14
-4.3166e-14
-1.86857e-14
-4.08888e-15
3.59712e-16
1.36882e-15
4.80897e-16
-2.40134e-16
-1.44445e-16
-3.95763e-16
-7.34713e-16
-4.72383e-16
1.27569e-16
6.28929e-16
1.14419e-16
-2.45317e-16
-2.12736e-16
9.61662e-17
2.99228e-27
1.39472e-24
3.91166e-21
-3.50649e-19
1.48415e-18
8.92268e-19
-3.36864e-17
-1.53003e-16
5.23128e-18
1.23928e-15
-1.10036e-16
-4.17625e-15
2.11929e-14
4.75346e-14
-6.09374e-13
-1.4824e-13
8.85857e-13
2.69359e-12
-2.04408e-12
-4.60881e-11
-2.55719e-11
2.22445e-12
1.84848e-12
2.51161e-12
-2.79488e-11
-7.02335e-12
5.69783e-15
-1.69128e-14
-1.04258e-12
-6.31884e-14
-1.35207e-14
-7.04136e-13
-4.88805e-13
-2.49863e-13
-8.01862e-14
-1.08123e-14
1.03617e-15
2.89894e-15
-1.16458e-15
-4.26145e-15
-2.07638e-15
-4.10906e-15
-5.21587e-15
-2.30606e-15
1.55625e-15
4.15579e-15
6.65141e-16
-5.51084e-16
-8.42938e-16
2.26012e-16
-1.05576e-24
-2.86095e-23
1.43249e-19
-7.51905e-18
1.47866e-17
9.10724e-18
-1.41726e-16
-2.60935e-15
1.94305e-14
2.44627e-14
-4.04484e-13
7.05795e-15
2.16856e-12
-5.34079e-12
-3.94662e-12
4.02219e-11
5.91166e-12
7.76378e-12
-1.80395e-12
-5.39149e-10
-1.36267e-09
-1.16187e-09
-1.01777e-09
-7.81772e-10
-2.26665e-10
-1.11061e-10
2.90297e-11
1.73414e-11
-3.30588e-11
-4.36327e-11
-2.70694e-11
-5.54133e-12
-1.44036e-12
-4.48724e-13
-1.44986e-13
-1.64897e-14
8.60765e-15
8.61143e-15
-1.99486e-14
-2.68707e-14
-3.74627e-14
-3.77933e-14
-2.84982e-14
-7.3506e-15
8.05961e-14
2.53786e-14
1.95378e-15
-1.37111e-14
-4.14961e-15
6.85006e-16
-1.65741e-22
-7.32765e-21
5.88283e-18
-1.9794e-16
1.25877e-15
-3.23494e-15
3.0578e-16
-1.60945e-14
2.82724e-13
-6.91926e-13
-2.69661e-12
1.4171e-11
1.5802e-11
-1.2067e-10
-1.63509e-12
4.49223e-10
-1.41452e-10
-2.00127e-10
-2.15996e-10
-1.10462e-09
-4.59502e-09
-1.1168e-08
-9.74012e-09
-4.70794e-09
-6.48149e-10
-1.37627e-09
7.82891e-10
4.85927e-10
-8.66666e-11
-2.77152e-10
-1.39774e-10
-2.38994e-11
-2.27705e-12
6.51147e-13
-2.96005e-14
3.01582e-14
6.57899e-14
4.54547e-14
-6.22022e-14
-6.51672e-14
-1.42585e-13
-1.88425e-13
-7.22332e-14
5.14427e-13
4.67127e-13
6.37182e-14
-2.83575e-13
-1.2453e-13
-1.10351e-14
1.26877e-14
-1.45653e-20
-7.94551e-19
1.92014e-16
-3.18782e-15
1.9596e-14
-5.30128e-14
-9.7676e-14
6.92542e-13
1.14312e-12
-1.14808e-11
2.02405e-12
1.20777e-10
-2.42883e-10
-5.16099e-10
1.31365e-09
1.20565e-09
-1.03042e-09
-5.07159e-09
-1.58416e-09
8.36033e-09
3.45444e-08
-2.15511e-08
-2.34514e-08
-9.14392e-09
-8.84497e-10
-4.32731e-09
2.92466e-08
1.4991e-08
1.04418e-09
-6.28849e-10
-2.40736e-10
-2.02144e-09
1.79307e-09
3.82774e-10
7.07695e-13
3.02736e-13
6.02294e-13
3.08892e-13
-7.39509e-14
-7.66e-14
-2.09347e-13
-5.81089e-13
9.76469e-12
7.65647e-12
1.2663e-12
-5.41159e-12
-3.57418e-12
-4.97118e-13
1.24604e-13
8.47818e-14
-1.22776e-16
2.55949e-15
-1.41954e-14
3.51366e-14
-3.77176e-14
1.31433e-13
-2.89659e-12
2.7151e-11
-8.06368e-11
-9.70263e-11
7.23358e-10
5.94252e-10
-4.79492e-09
-1.37619e-09
1.66881e-08
1.9654e-10
-4.3462e-08
-2.5656e-08
1.71059e-07
1.5498e-07
2.95556e-07
1.7704e-07
-2.0431e-08
5.31101e-08
2.03668e-07
9.81207e-07
1.35563e-06
5.2858e-07
4.23773e-08
-7.07871e-10
1.37032e-10
-1.07173e-08
1.3695e-07
2.97421e-08
8.30513e-10
1.20145e-10
3.19882e-11
2.64482e-12
1.11629e-10
9.82351e-11
1.26255e-10
1.56602e-10
1.25183e-10
4.02584e-11
-2.97962e-11
-5.14794e-11
-1.41863e-11
-8.03011e-13
1.19211e-12
2.967e-13
-2.40647e-14
1.18704e-13
-6.17757e-13
2.78689e-12
-7.77959e-12
6.51409e-12
-3.71187e-12
1.0739e-10
-6.13412e-10
8.38211e-10
4.53537e-09
-1.25702e-08
-2.20206e-08
8.67135e-08
1.14784e-07
-3.26262e-07
-9.81169e-07
-3.64238e-08
2.76839e-06
6.65591e-07
-3.04241e-07
1.27503e-05
0.000117458
0.000723612
0.00243791
0.00543378
0.00899748
0.0117228
0.0122149
0.0103811
0.00695685
0.00345922
0.00106708
8.06831e-05
6.39384e-08
5.11679e-09
3.28792e-10
9.72474e-10
1.19272e-09
8.11706e-10
8.95515e-10
8.75093e-10
4.8123e-10
9.11011e-11
-4.30369e-10
-1.97639e-10
-2.55659e-11
1.39414e-11
5.62101e-12
4.504e-13
-1.06297e-13
2.72305e-13
-1.98838e-12
1.06549e-11
-3.01286e-11
-8.53032e-12
7.32761e-10
-2.13351e-09
-2.53444e-09
1.53203e-08
1.33699e-08
-1.63679e-07
1.6609e-08
1.04377e-06
4.85924e-07
-4.6386e-06
-3.58726e-06
7.20972e-06
1.151e-05
-9.02215e-05
-0.000432705
-1.68139e-05
0.00437907
0.016057
0.0360922
0.0610544
0.0835929
0.0958075
0.0947197
0.0818498
0.0612165
0.039192
0.0209183
0.00871131
0.00234366
0.000207063
1.20963e-08
7.96117e-09
3.21678e-09
2.38069e-09
2.33282e-09
1.71265e-09
9.51105e-10
-5.01056e-09
-2.5227e-09
-3.75307e-10
1.49498e-10
9.87831e-11
1.39211e-11
-1.98112e-12
4.41117e-12
-2.00701e-11
7.89494e-11
-1.7547e-10
7.1727e-11
2.60128e-11
3.56711e-09
-1.89772e-08
2.93479e-08
1.10165e-07
-2.63383e-07
-6.75851e-07
1.47024e-06
3.46411e-06
-5.48414e-06
-1.7331e-05
5.11583e-05
0.00020951
-0.000208776
-0.0022372
-0.00452397
-0.00124868
0.017491
0.0598844
0.124487
0.197954
0.25952
0.289283
0.283888
0.248787
0.193983
0.134102
0.081436
0.0425174
0.0181877
0.00562729
0.000748409
3.77078e-08
9.75034e-10
3.61038e-09
3.51719e-09
-1.56669e-08
-7.26152e-08
-4.28562e-08
-8.46008e-09
9.04593e-10
1.30255e-09
3.58322e-10
1.38316e-11
-1.26639e-11
2.72748e-11
-9.15429e-11
4.7225e-10
-1.73526e-09
2.30131e-09
7.40385e-09
-2.58329e-08
-6.42331e-08
2.74911e-07
3.03285e-07
-2.03741e-06
-9.3104e-07
1.09269e-05
-3.39255e-06
-9.56195e-05
-8.75638e-06
0.000690788
0.00120121
-0.0011531
-0.00837826
-0.0152229
-0.00766464
0.0329658
0.120374
0.248662
0.391268
0.510458
0.571233
0.565419
0.507104
0.410548
0.299473
0.195676
0.112963
0.0560236
0.0224775
0.00619901
0.00053172
-6.69534e-09
-1.60463e-07
-5.29733e-07
-7.791e-07
-4.82191e-07
-1.44051e-07
-1.38613e-08
1.10386e-08
5.28186e-09
6.02616e-10
-9.30091e-11
-5.27443e-11
-1.06824e-10
4.36404e-10
-2.58411e-10
-5.2942e-09
1.57151e-08
3.11126e-08
-2.12751e-07
1.9057e-07
1.12598e-06
-2.09213e-06
-7.70891e-06
2.76329e-05
5.89452e-05
-0.000159292
-0.000493131
9.91135e-05
0.00234516
0.00358047
-0.00166399
-0.0165498
-0.0315058
-0.0235233
0.0343383
0.157411
0.337763
0.542315
0.721373
0.8285
0.83743
0.775476
0.654741
0.502481
0.348287
0.215591
0.116631
0.0528607
0.0181843
0.00334388
1.23469e-05
-4.67475e-06
-5.23978e-06
-3.65464e-06
-1.41609e-06
-2.38068e-07
7.46378e-08
5.68717e-08
1.18172e-08
-3.77993e-10
-4.68536e-10
-1.40725e-10
-1.08008e-10
3.4228e-09
-1.8265e-08
2.16821e-08
1.04821e-07
-2.75917e-07
-6.16374e-07
4.19807e-06
-2.39061e-07
-3.36569e-05
-3.98283e-06
0.000183129
0.000182894
-0.000547816
-0.00138684
-7.43511e-05
0.00442163
0.00759662
0.000830665
-0.0202356
-0.0447149
-0.0446301
0.00863894
0.135164
0.327211
0.54913
0.75613
0.905297
0.957361
0.920212
0.812656
0.657711
0.48098
0.314509
0.18079
0.0883474
0.0340879
0.00825807
0.000323294
-2.07633e-05
-1.91132e-05
-9.6251e-06
-2.24813e-06
4.31167e-07
5.48605e-07
1.91115e-07
1.39661e-08
-3.20143e-09
-1.63946e-09
-2.46967e-10
1.66703e-08
-3.64192e-08
-1.10233e-07
6.48123e-07
-2.44402e-07
-4.71616e-06
5.39923e-06
2.691e-05
-2.30984e-05
-0.000131678
-3.78435e-06
0.00048615
0.000510148
-0.000877679
-0.00264966
-0.0012646
0.00512548
0.0114631
0.00749541
-0.0132719
-0.0431127
-0.0558197
-0.0292141
0.0528703
0.190616
0.366388
0.552763
0.719052
0.83077
0.855
0.80076
0.678197
0.519032
0.354623
0.212573
0.108668
0.0445248
0.0121808
0.000809314
-6.64731e-05
-4.94035e-05
-1.50081e-05
1.93463e-06
4.72352e-06
2.25076e-06
3.65444e-07
-1.6193e-08
-1.11525e-08
-3.47508e-09
-2.21117e-10
2.35881e-08
-6.7836e-07
5.6624e-07
3.76638e-06
-5.28915e-06
-1.7051e-05
2.20045e-05
7.5166e-05
-4.1111e-05
-0.000279884
-0.000105825
0.000717006
0.00104968
-0.000591937
-0.00340793
-0.00327932
0.00274655
0.0117725
0.0134777
0.00192837
-0.0215976
-0.043732
-0.0459745
-0.0225018
0.0312899
0.11545
0.227077
0.355487
0.477759
0.557323
0.563262
0.510947
0.411531
0.291875
0.179823
0.093901
0.0392226
0.0109994
0.000704228
-0.000186008
-8.08147e-05
1.35258e-05
3.39357e-05
1.9597e-05
5.20413e-06
2.41074e-07
-4.00108e-08
-2.35581e-08
-5.50667e-09
-8.63698e-11
-2.58715e-07
-1.68054e-06
2.61742e-06
8.57132e-06
-1.10817e-05
-3.44762e-05
2.44779e-05
0.000122627
8.26737e-06
-0.000339064
-0.000320109
0.00051868
0.00134599
0.000453195
-0.00245828
-0.00431406
-0.00157742
0.00594155
0.0127003
0.0117771
0.00216599
-0.0132628
-0.0295608
-0.0420081
-0.0467165
-0.0378288
-0.00386631
0.0590925
0.141008
0.215883
0.24857
0.236851
0.193512
0.134504
0.0781348
0.0363324
0.0118224
0.00141845
-0.000924538
-0.000387586
8.2895e-05
0.000191411
0.000127299
4.77476e-05
7.23711e-06
-1.3579e-07
-9.29077e-08
-3.61266e-08
-5.74486e-09
3.52122e-11
-2.68595e-07
-2.05927e-06
2.05569e-06
1.06708e-05
-4.21397e-06
-3.71313e-05
-1.00557e-05
9.90728e-05
0.000104557
-0.00015145
-0.000407927
-8.52759e-05
0.000843867
0.00119887
-0.000144277
-0.0026329
-0.0035164
-0.00111059
0.00384076
0.00838431
0.00971483
0.00726375
-0.000595204
-0.0159598
-0.0377515
-0.0579849
-0.0664005
-0.055861
-0.0291775
0.00262379
0.0207373
0.0191613
0.00689443
-0.00771327
-0.0170725
-0.0184802
-0.0140515
-0.00722056
-0.00228823
0.000153267
0.000749335
0.000580162
0.000279264
7.93894e-05
5.43448e-06
-1.6819e-07
-1.1993e-07
-4.11848e-08
-4.21921e-09
2.47406e-11
2.8452e-07
-1.00312e-06
-2.18798e-06
4.52549e-06
1.08584e-05
-9.63976e-06
-4.07599e-05
-1.54238e-06
0.000112115
9.96918e-05
-0.000175616
-0.000406957
-8.31616e-05
0.000733265
0.0010817
0.000293122
-0.00135893
-0.00275143
-0.00284177
-0.0012822
0.00241369
0.00741893
0.0106765
0.00850314
-0.00100997
-0.0163065
-0.0321304
-0.0434766
-0.0487357
-0.0522055
-0.0573822
-0.0625568
-0.0642556
-0.0595034
-0.0478507
-0.0323827
-0.0172465
-0.00636317
-2.29953e-05
0.00207709
0.00178282
0.0010395
0.000417744
9.24841e-05
1.495e-06
-1.83288e-07
-1.04697e-07
-2.91293e-08
-1.77865e-09
6.45805e-11
3.28499e-07
1.46311e-07
-2.43664e-06
-1.61791e-06
9.23307e-06
1.00675e-05
-2.11269e-05
-4.3341e-05
1.67319e-05
0.000117475
8.59992e-05
-0.000144401
-0.000351705
-0.000223168
0.000311284
0.000960042
0.00108683
0.000237145
-0.00168092
-0.00357483
-0.00364605
-0.00102721
0.00385023
0.00867399
0.0108787
0.00995481
0.00627058
-0.000217251
-0.00965476
-0.0215434
-0.033417
-0.0407099
-0.0401485
-0.0330849
-0.0216117
-0.00966989
-0.000503375
0.00447856
0.00545273
0.00429651
0.00261432
0.00126605
0.000439674
6.96338e-05
-2.56311e-07
-1.48325e-07
-4.94581e-08
-6.6297e-09
9.94367e-10
2.386e-10
1.33689e-08
8.19482e-07
-1.4736e-07
-3.86317e-06
-1.18091e-06
1.13014e-05
1.11027e-05
-1.80738e-05
-4.45225e-05
-1.08986e-05
8.54668e-05
0.00013688
2.22162e-05
-0.000259119
-0.000445124
-0.00021856
0.00047013
0.00117674
0.00118124
0.000237703
-0.00133254
-0.00260508
-0.0026775
-0.0012606
0.00178733
0.0060056
0.0101438
0.0127735
0.0126401
0.009632
0.0054989
0.00298305
0.00371629
0.00701058
0.010808
0.0131623
0.0130654
0.0109839
0.00774046
0.0046493
0.00238916
0.000970269
0.000268572
2.28528e-05
-5.88639e-07
-1.56547e-07
1.11255e-08
1.16297e-08
3.45883e-09
7.58393e-11
-9.33005e-08
1.41184e-08
6.89896e-07
3.72323e-07
-2.42034e-06
-3.36808e-06
3.77729e-06
1.43599e-05
6.05736e-06
-2.99832e-05
-5.21117e-05
-1.49538e-06
0.000114342
0.000164056
2.51618e-05
-0.00027716
-0.000484602
-0.000319328
0.000274088
0.000992462
0.00124383
0.000657407
-0.000760953
-0.00244033
-0.00345219
-0.00309107
-0.0012285
0.00170916
0.00489257
0.00756139
0.00932791
0.0107267
0.0120177
0.0131624
0.0130728
0.0120443
0.00955695
0.00654075
0.00387542
0.00195168
0.000786291
0.000221266
6.73004e-06
-9.87166e-06
-2.79885e-06
-1.06325e-07
4.33675e-08
2.26675e-08
4.1826e-09
-1.90946e-10
5.09193e-08
-5.03298e-08
-3.76858e-07
1.68298e-07
1.56449e-06
2.41483e-07
-4.6089e-06
-4.57877e-06
7.47037e-06
1.9753e-05
6.12734e-06
-3.79799e-05
-6.37683e-05
-9.08759e-06
0.000117147
0.000185035
7.46355e-05
-0.000204749
-0.000442492
-0.000399645
5.56902e-06
0.000636022
0.00105612
0.000877573
-3.75263e-05
-0.00143967
-0.00271326
-0.00340947
-0.00347502
-0.00303036
-0.00229413
-0.00172927
-0.00122368
-0.00088321
-0.000831033
-0.00102342
-0.00125644
-0.00131627
-0.00117595
-0.000899708
-0.000572615
-0.000302721
-0.000117776
-2.85312e-05
-1.17969e-06
9.66491e-08
5.63188e-08
1.75367e-08
1.7785e-09
-3.09897e-11
-1.74396e-08
6.11725e-08
1.24247e-07
-2.9967e-07
-5.74465e-07
7.29537e-07
2.2497e-06
-3.56026e-07
-6.27567e-06
-5.1118e-06
9.07984e-06
2.16139e-05
9.30051e-06
-3.2121e-05
-6.63122e-05
-3.82909e-05
7.202e-05
0.000186059
0.000158806
-6.56198e-05
-0.000360149
-0.000427971
-0.000162019
0.000328944
0.000768855
0.000970607
0.000910279
0.000592263
2.12956e-05
-0.000902901
-0.00210816
-0.0032329
-0.00421991
-0.0048415
-0.00490004
-0.00449696
-0.00373121
-0.00279234
-0.00186393
-0.00109423
-0.000559565
-0.000233817
-7.48143e-05
-1.27326e-05
3.74726e-07
1.19264e-07
2.49265e-08
4.81929e-09
4.35979e-10
9.21671e-11
9.77236e-09
-2.36816e-08
-6.00546e-08
1.29912e-07
2.35482e-07
-3.92548e-07
-9.07004e-07
6.43901e-07
2.97852e-06
7.39095e-07
-7.089e-06
-8.40168e-06
6.55766e-06
2.52586e-05
1.7597e-05
-2.44619e-05
-6.08737e-05
-4.49075e-05
2.413e-05
9.84401e-05
0.000124715
7.92687e-05
-4.58926e-05
-0.000224956
-0.000372256
-0.00034206
-2.68802e-05
0.000568921
0.00121887
0.00168615
0.00175585
0.00145159
0.000902627
0.000318768
-0.000113324
-0.0002852
-0.000264161
-0.000156003
-4.22352e-05
2.62337e-05
4.66019e-05
3.65764e-05
2.06439e-05
7.22106e-06
1.20836e-06
2.91858e-10
-1.05997e-08
-5.50746e-09
-8.71771e-10
1.17836e-10