/*--------------------------------*- C++ -*----------------------------------*\
| =========                 |                                                 |
| \\      /  F ield         | OpenFOAM: The Open Source CFD Toolbox           |
|  \\    /   O peration     | Version:  v2006                                 |
|   \\  /    A nd           | Website:  www.openfoam.com                      |
|    \\/     M anipulation  |                                                 |
\*---------------------------------------------------------------------------*/
FoamFile
{
    version     2.0;
    format      ascii;
    class       volVectorField;
    location    "0";
    object      U_new;
}
// * * * * * * * * * * * * * * * * * * * * * * * * * * * * * * * * * * * * * //

dimensions      [0 1 -1 0 0 0 0];


internalField   nonuniform List<vector> 
2500
(
(0.000656 -0.053792 0)
(0.000656 -0.161376 0)
(0.000656 -0.26896 0)
(0.000656 -0.376544 0)
(0.000656 -0.484128 0)
(0.000656 -0.591712 0)
(0.000656 -0.699296 0)
(0.000656 -0.80688 0)
(0.000656 -0.914464 0)
(0.000656 -1.02205 0)
(0.000656 -1.12963 0)
(0.000656 -1.23722 0)
(0.000656 -1.3448 0)
(0.000656 -1.45238 0)
(0.000656 -1.55997 0)
(0.000656 -1.66755 0)
(0.000656 -1.77514 0)
(0.000656 -1.88272 0)
(0.000656 -1.9903 0)
(0.000656 -2.09789 0)
(0.000656 -2.20547 0)
(0.000656 -2.31306 0)
(0.000656 -2.42064 0)
(0.000656 -2.52822 0)
(0.000656 -2.63581 0)
(0.000656 -2.74339 0)
(0.000656 -2.85098 0)
(0.000656 -2.95856 0)
(0.000656 -3.06614 0)
(0.000656 -3.17373 0)
(0.000656 -3.28131 0)
(0.000656 -3.3889 0)
(0.000656 -3.49648 0)
(0.000656 -3.60406 0)
(0.000656 -3.71165 0)
(0.000656 -3.81923 0)
(0.000656 -3.92682 0)
(0.000656 -4.0344 0)
(0.000656 -4.14198 0)
(0.000656 -4.24957 0)
(0.000656 -4.35715 0)
(0.000656 -4.46474 0)
(0.000656 -4.57232 0)
(0.000656 -4.6799 0)
(0.000656 -4.78749 0)
(0.000656 -4.89507 0)
(0.000656 -5.00266 0)
(0.000656 -5.11024 0)
(0.000656 -5.21782 0)
(0.000656 -5.32541 0)
(0.005904 -0.053792 0)
(0.005904 -0.161376 0)
(0.005904 -0.26896 0)
(0.005904 -0.376544 0)
(0.005904 -0.484128 0)
(0.005904 -0.591712 0)
(0.005904 -0.699296 0)
(0.005904 -0.80688 0)
(0.005904 -0.914464 0)
(0.005904 -1.02205 0)
(0.005904 -1.12963 0)
(0.005904 -1.23722 0)
(0.005904 -1.3448 0)
(0.005904 -1.45238 0)
(0.005904 -1.55997 0)
(0.005904 -1.66755 0)
(0.005904 -1.77514 0)
(0.005904 -1.88272 0)
(0.005904 -1.9903 0)
(0.005904 -2.09789 0)
(0.005904 -2.20547 0)
(0.005904 -2.31306 0)
(0.005904 -2.42064 0)
(0.005904 -2.52822 0)
(0.005904 -2.63581 0)
(0.005904 -2.74339 0)
(0.005904 -2.85098 0)
(0.005904 -2.95856 0)
(0.005904 -3.06614 0)
(0.005904 -3.17373 0)
(0.005904 -3.28131 0)
(0.005904 -3.3889 0)
(0.005904 -3.49648 0)
(0.005904 -3.60406 0)
(0.005904 -3.71165 0)
(0.005904 -3.81923 0)
(0.005904 -3.92682 0)
(0.005904 -4.0344 0)
(0.005904 -4.14198 0)
(0.005904 -4.24957 0)
(0.005904 -4.35715 0)
(0.005904 -4.46474 0)
(0.005904 -4.57232 0)
(0.005904 -4.6799 0)
(0.005904 -4.78749 0)
(0.005904 -4.89507 0)
(0.005904 -5.00266 0)
(0.005904 -5.11024 0)
(0.005904 -5.21782 0)
(0.005904 -5.32541 0)
(0.0164 -0.053792 0)
(0.0164 -0.161376 0)
(0.0164 -0.26896 0)
(0.0164 -0.376544 0)
(0.0164 -0.484128 0)
(0.0164 -0.591712 0)
(0.0164 -0.699296 0)
(0.0164 -0.80688 0)
(0.0164 -0.914464 0)
(0.0164 -1.02205 0)
(0.0164 -1.12963 0)
(0.0164 -1.23722 0)
(0.0164 -1.3448 0)
(0.0164 -1.45238 0)
(0.0164 -1.55997 0)
(0.0164 -1.66755 0)
(0.0164 -1.77514 0)
(0.0164 -1.88272 0)
(0.0164 -1.9903 0)
(0.0164 -2.09789 0)
(0.0164 -2.20547 0)
(0.0164 -2.31306 0)
(0.0164 -2.42064 0)
(0.0164 -2.52822 0)
(0.0164 -2.63581 0)
(0.0164 -2.74339 0)
(0.0164 -2.85098 0)
(0.0164 -2.95856 0)
(0.0164 -3.06614 0)
(0.0164 -3.17373 0)
(0.0164 -3.28131 0)
(0.0164 -3.3889 0)
(0.0164 -3.49648 0)
(0.0164 -3.60406 0)
(0.0164 -3.71165 0)
(0.0164 -3.81923 0)
(0.0164 -3.92682 0)
(0.0164 -4.0344 0)
(0.0164 -4.14198 0)
(0.0164 -4.24957 0)
(0.0164 -4.35715 0)
(0.0164 -4.46474 0)
(0.0164 -4.57232 0)
(0.0164 -4.6799 0)
(0.0164 -4.78749 0)
(0.0164 -4.89507 0)
(0.0164 -5.00266 0)
(0.0164 -5.11024 0)
(0.0164 -5.21782 0)
(0.0164 -5.32541 0)
(0.032144 -0.053792 0)
(0.032144 -0.161376 0)
(0.032144 -0.26896 0)
(0.032144 -0.376544 0)
(0.032144 -0.484128 0)
(0.032144 -0.591712 0)
(0.032144 -0.699296 0)
(0.032144 -0.80688 0)
(0.032144 -0.914464 0)
(0.032144 -1.02205 0)
(0.032144 -1.12963 0)
(0.032144 -1.23722 0)
(0.032144 -1.3448 0)
(0.032144 -1.45238 0)
(0.032144 -1.55997 0)
(0.032144 -1.66755 0)
(0.032144 -1.77514 0)
(0.032144 -1.88272 0)
(0.032144 -1.9903 0)
(0.032144 -2.09789 0)
(0.032144 -2.20547 0)
(0.032144 -2.31306 0)
(0.032144 -2.42064 0)
(0.032144 -2.52822 0)
(0.032144 -2.63581 0)
(0.032144 -2.74339 0)
(0.032144 -2.85098 0)
(0.032144 -2.95856 0)
(0.032144 -3.06614 0)
(0.032144 -3.17373 0)
(0.032144 -3.28131 0)
(0.032144 -3.3889 0)
(0.032144 -3.49648 0)
(0.032144 -3.60406 0)
(0.032144 -3.71165 0)
(0.032144 -3.81923 0)
(0.032144 -3.92682 0)
(0.032144 -4.0344 0)
(0.032144 -4.14198 0)
(0.032144 -4.24957 0)
(0.032144 -4.35715 0)
(0.032144 -4.46474 0)
(0.032144 -4.57232 0)
(0.032144 -4.6799 0)
(0.032144 -4.78749 0)
(0.032144 -4.89507 0)
(0.032144 -5.00266 0)
(0.032144 -5.11024 0)
(0.032144 -5.21782 0)
(0.032144 -5.32541 0)
(0.053136 -0.053792 0)
(0.053136 -0.161376 0)
(0.053136 -0.26896 0)
(0.053136 -0.376544 0)
(0.053136 -0.484128 0)
(0.053136 -0.591712 0)
(0.053136 -0.699296 0)
(0.053136 -0.80688 0)
(0.053136 -0.914464 0)
(0.053136 -1.02205 0)
(0.053136 -1.12963 0)
(0.053136 -1.23722 0)
(0.053136 -1.3448 0)
(0.053136 -1.45238 0)
(0.053136 -1.55997 0)
(0.053136 -1.66755 0)
(0.053136 -1.77514 0)
(0.053136 -1.88272 0)
(0.053136 -1.9903 0)
(0.053136 -2.09789 0)
(0.053136 -2.20547 0)
(0.053136 -2.31306 0)
(0.053136 -2.42064 0)
(0.053136 -2.52822 0)
(0.053136 -2.63581 0)
(0.053136 -2.74339 0)
(0.053136 -2.85098 0)
(0.053136 -2.95856 0)
(0.053136 -3.06614 0)
(0.053136 -3.17373 0)
(0.053136 -3.28131 0)
(0.053136 -3.3889 0)
(0.053136 -3.49648 0)
(0.053136 -3.60406 0)
(0.053136 -3.71165 0)
(0.053136 -3.81923 0)
(0.053136 -3.92682 0)
(0.053136 -4.0344 0)
(0.053136 -4.14198 0)
(0.053136 -4.24957 0)
(0.053136 -4.35715 0)
(0.053136 -4.46474 0)
(0.053136 -4.57232 0)
(0.053136 -4.6799 0)
(0.053136 -4.78749 0)
(0.053136 -4.89507 0)
(0.053136 -5.00266 0)
(0.053136 -5.11024 0)
(0.053136 -5.21782 0)
(0.053136 -5.32541 0)
(0.079376 -0.053792 0)
(0.079376 -0.161376 0)
(0.079376 -0.26896 0)
(0.079376 -0.376544 0)
(0.079376 -0.484128 0)
(0.079376 -0.591712 0)
(0.079376 -0.699296 0)
(0.079376 -0.80688 0)
(0.079376 -0.914464 0)
(0.079376 -1.02205 0)
(0.079376 -1.12963 0)
(0.079376 -1.23722 0)
(0.079376 -1.3448 0)
(0.079376 -1.45238 0)
(0.079376 -1.55997 0)
(0.079376 -1.66755 0)
(0.079376 -1.77514 0)
(0.079376 -1.88272 0)
(0.079376 -1.9903 0)
(0.079376 -2.09789 0)
(0.079376 -2.20547 0)
(0.079376 -2.31306 0)
(0.079376 -2.42064 0)
(0.079376 -2.52822 0)
(0.079376 -2.63581 0)
(0.079376 -2.74339 0)
(0.079376 -2.85098 0)
(0.079376 -2.95856 0)
(0.079376 -3.06614 0)
(0.079376 -3.17373 0)
(0.079376 -3.28131 0)
(0.079376 -3.3889 0)
(0.079376 -3.49648 0)
(0.079376 -3.60406 0)
(0.079376 -3.71165 0)
(0.079376 -3.81923 0)
(0.079376 -3.92682 0)
(0.079376 -4.0344 0)
(0.079376 -4.14198 0)
(0.079376 -4.24957 0)
(0.079376 -4.35715 0)
(0.079376 -4.46474 0)
(0.079376 -4.57232 0)
(0.079376 -4.6799 0)
(0.079376 -4.78749 0)
(0.079376 -4.89507 0)
(0.079376 -5.00266 0)
(0.079376 -5.11024 0)
(0.079376 -5.21782 0)
(0.079376 -5.32541 0)
(0.110864 -0.053792 0)
(0.110864 -0.161376 0)
(0.110864 -0.26896 0)
(0.110864 -0.376544 0)
(0.110864 -0.484128 0)
(0.110864 -0.591712 0)
(0.110864 -0.699296 0)
(0.110864 -0.80688 0)
(0.110864 -0.914464 0)
(0.110864 -1.02205 0)
(0.110864 -1.12963 0)
(0.110864 -1.23722 0)
(0.110864 -1.3448 0)
(0.110864 -1.45238 0)
(0.110864 -1.55997 0)
(0.110864 -1.66755 0)
(0.110864 -1.77514 0)
(0.110864 -1.88272 0)
(0.110864 -1.9903 0)
(0.110864 -2.09789 0)
(0.110864 -2.20547 0)
(0.110864 -2.31306 0)
(0.110864 -2.42064 0)
(0.110864 -2.52822 0)
(0.110864 -2.63581 0)
(0.110864 -2.74339 0)
(0.110864 -2.85098 0)
(0.110864 -2.95856 0)
(0.110864 -3.06614 0)
(0.110864 -3.17373 0)
(0.110864 -3.28131 0)
(0.110864 -3.3889 0)
(0.110864 -3.49648 0)
(0.110864 -3.60406 0)
(0.110864 -3.71165 0)
(0.110864 -3.81923 0)
(0.110864 -3.92682 0)
(0.110864 -4.0344 0)
(0.110864 -4.14198 0)
(0.110864 -4.24957 0)
(0.110864 -4.35715 0)
(0.110864 -4.46474 0)
(0.110864 -4.57232 0)
(0.110864 -4.6799 0)
(0.110864 -4.78749 0)
(0.110864 -4.89507 0)
(0.110864 -5.00266 0)
(0.110864 -5.11024 0)
(0.110864 -5.21782 0)
(0.110864 -5.32541 0)
(0.1476 -0.053792 0)
(0.1476 -0.161376 0)
(0.1476 -0.26896 0)
(0.1476 -0.376544 0)
(0.1476 -0.484128 0)
(0.1476 -0.591712 0)
(0.1476 -0.699296 0)
(0.1476 -0.80688 0)
(0.1476 -0.914464 0)
(0.1476 -1.02205 0)
(0.1476 -1.12963 0)
(0.1476 -1.23722 0)
(0.1476 -1.3448 0)
(0.1476 -1.45238 0)
(0.1476 -1.55997 0)
(0.1476 -1.66755 0)
(0.1476 -1.77514 0)
(0.1476 -1.88272 0)
(0.1476 -1.9903 0)
(0.1476 -2.09789 0)
(0.1476 -2.20547 0)
(0.1476 -2.31306 0)
(0.1476 -2.42064 0)
(0.1476 -2.52822 0)
(0.1476 -2.63581 0)
(0.1476 -2.74339 0)
(0.1476 -2.85098 0)
(0.1476 -2.95856 0)
(0.1476 -3.06614 0)
(0.1476 -3.17373 0)
(0.1476 -3.28131 0)
(0.1476 -3.3889 0)
(0.1476 -3.49648 0)
(0.1476 -3.60406 0)
(0.1476 -3.71165 0)
(0.1476 -3.81923 0)
(0.1476 -3.92682 0)
(0.1476 -4.0344 0)
(0.1476 -4.14198 0)
(0.1476 -4.24957 0)
(0.1476 -4.35715 0)
(0.1476 -4.46474 0)
(0.1476 -4.57232 0)
(0.1476 -4.6799 0)
(0.1476 -4.78749 0)
(0.1476 -4.89507 0)
(0.1476 -5.00266 0)
(0.1476 -5.11024 0)
(0.1476 -5.21782 0)
(0.1476 -5.32541 0)
(0.189584 -0.053792 0)
(0.189584 -0.161376 0)
(0.189584 -0.26896 0)
(0.189584 -0.376544 0)
(0.189584 -0.484128 0)
(0.189584 -0.591712 0)
(0.189584 -0.699296 0)
(0.189584 -0.80688 0)
(0.189584 -0.914464 0)
(0.189584 -1.02205 0)
(0.189584 -1.12963 0)
(0.189584 -1.23722 0)
(0.189584 -1.3448 0)
(0.189584 -1.45238 0)
(0.189584 -1.55997 0)
(0.189584 -1.66755 0)
(0.189584 -1.77514 0)
(0.189584 -1.88272 0)
(0.189584 -1.9903 0)
(0.189584 -2.09789 0)
(0.189584 -2.20547 0)
(0.189584 -2.31306 0)
(0.189584 -2.42064 0)
(0.189584 -2.52822 0)
(0.189584 -2.63581 0)
(0.189584 -2.74339 0)
(0.189584 -2.85098 0)
(0.189584 -2.95856 0)
(0.189584 -3.06614 0)
(0.189584 -3.17373 0)
(0.189584 -3.28131 0)
(0.189584 -3.3889 0)
(0.189584 -3.49648 0)
(0.189584 -3.60406 0)
(0.189584 -3.71165 0)
(0.189584 -3.81923 0)
(0.189584 -3.92682 0)
(0.189584 -4.0344 0)
(0.189584 -4.14198 0)
(0.189584 -4.24957 0)
(0.189584 -4.35715 0)
(0.189584 -4.46474 0)
(0.189584 -4.57232 0)
(0.189584 -4.6799 0)
(0.189584 -4.78749 0)
(0.189584 -4.89507 0)
(0.189584 -5.00266 0)
(0.189584 -5.11024 0)
(0.189584 -5.21782 0)
(0.189584 -5.32541 0)
(0.236816 -0.053792 0)
(0.236816 -0.161376 0)
(0.236816 -0.26896 0)
(0.236816 -0.376544 0)
(0.236816 -0.484128 0)
(0.236816 -0.591712 0)
(0.236816 -0.699296 0)
(0.236816 -0.80688 0)
(0.236816 -0.914464 0)
(0.236816 -1.02205 0)
(0.236816 -1.12963 0)
(0.236816 -1.23722 0)
(0.236816 -1.3448 0)
(0.236816 -1.45238 0)
(0.236816 -1.55997 0)
(0.236816 -1.66755 0)
(0.236816 -1.77514 0)
(0.236816 -1.88272 0)
(0.236816 -1.9903 0)
(0.236816 -2.09789 0)
(0.236816 -2.20547 0)
(0.236816 -2.31306 0)
(0.236816 -2.42064 0)
(0.236816 -2.52822 0)
(0.236816 -2.63581 0)
(0.236816 -2.74339 0)
(0.236816 -2.85098 0)
(0.236816 -2.95856 0)
(0.236816 -3.06614 0)
(0.236816 -3.17373 0)
(0.236816 -3.28131 0)
(0.236816 -3.3889 0)
(0.236816 -3.49648 0)
(0.236816 -3.60406 0)
(0.236816 -3.71165 0)
(0.236816 -3.81923 0)
(0.236816 -3.92682 0)
(0.236816 -4.0344 0)
(0.236816 -4.14198 0)
(0.236816 -4.24957 0)
(0.236816 -4.35715 0)
(0.236816 -4.46474 0)
(0.236816 -4.57232 0)
(0.236816 -4.6799 0)
(0.236816 -4.78749 0)
(0.236816 -4.89507 0)
(0.236816 -5.00266 0)
(0.236816 -5.11024 0)
(0.236816 -5.21782 0)
(0.236816 -5.32541 0)
(0.289296 -0.053792 0)
(0.289296 -0.161376 0)
(0.289296 -0.26896 0)
(0.289296 -0.376544 0)
(0.289296 -0.484128 0)
(0.289296 -0.591712 0)
(0.289296 -0.699296 0)
(0.289296 -0.80688 0)
(0.289296 -0.914464 0)
(0.289296 -1.02205 0)
(0.289296 -1.12963 0)
(0.289296 -1.23722 0)
(0.289296 -1.3448 0)
(0.289296 -1.45238 0)
(0.289296 -1.55997 0)
(0.289296 -1.66755 0)
(0.289296 -1.77514 0)
(0.289296 -1.88272 0)
(0.289296 -1.9903 0)
(0.289296 -2.09789 0)
(0.289296 -2.20547 0)
(0.289296 -2.31306 0)
(0.289296 -2.42064 0)
(0.289296 -2.52822 0)
(0.289296 -2.63581 0)
(0.289296 -2.74339 0)
(0.289296 -2.85098 0)
(0.289296 -2.95856 0)
(0.289296 -3.06614 0)
(0.289296 -3.17373 0)
(0.289296 -3.28131 0)
(0.289296 -3.3889 0)
(0.289296 -3.49648 0)
(0.289296 -3.60406 0)
(0.289296 -3.71165 0)
(0.289296 -3.81923 0)
(0.289296 -3.92682 0)
(0.289296 -4.0344 0)
(0.289296 -4.14198 0)
(0.289296 -4.24957 0)
(0.289296 -4.35715 0)
(0.289296 -4.46474 0)
(0.289296 -4.57232 0)
(0.289296 -4.6799 0)
(0.289296 -4.78749 0)
(0.289296 -4.89507 0)
(0.289296 -5.00266 0)
(0.289296 -5.11024 0)
(0.289296 -5.21782 0)
(0.289296 -5.32541 0)
(0.347024 -0.053792 0)
(0.347024 -0.161376 0)
(0.347024 -0.26896 0)
(0.347024 -0.376544 0)
(0.347024 -0.484128 0)
(0.347024 -0.591712 0)
(0.347024 -0.699296 0)
(0.347024 -0.80688 0)
(0.347024 -0.914464 0)
(0.347024 -1.02205 0)
(0.347024 -1.12963 0)
(0.347024 -1.23722 0)
(0.347024 -1.3448 0)
(0.347024 -1.45238 0)
(0.347024 -1.55997 0)
(0.347024 -1.66755 0)
(0.347024 -1.77514 0)
(0.347024 -1.88272 0)
(0.347024 -1.9903 0)
(0.347024 -2.09789 0)
(0.347024 -2.20547 0)
(0.347024 -2.31306 0)
(0.347024 -2.42064 0)
(0.347024 -2.52822 0)
(0.347024 -2.63581 0)
(0.347024 -2.74339 0)
(0.347024 -2.85098 0)
(0.347024 -2.95856 0)
(0.347024 -3.06614 0)
(0.347024 -3.17373 0)
(0.347024 -3.28131 0)
(0.347024 -3.3889 0)
(0.347024 -3.49648 0)
(0.347024 -3.60406 0)
(0.347024 -3.71165 0)
(0.347024 -3.81923 0)
(0.347024 -3.92682 0)
(0.347024 -4.0344 0)
(0.347024 -4.14198 0)
(0.347024 -4.24957 0)
(0.347024 -4.35715 0)
(0.347024 -4.46474 0)
(0.347024 -4.57232 0)
(0.347024 -4.6799 0)
(0.347024 -4.78749 0)
(0.347024 -4.89507 0)
(0.347024 -5.00266 0)
(0.347024 -5.11024 0)
(0.347024 -5.21782 0)
(0.347024 -5.32541 0)
(0.41 -0.053792 0)
(0.41 -0.161376 0)
(0.41 -0.26896 0)
(0.41 -0.376544 0)
(0.41 -0.484128 0)
(0.41 -0.591712 0)
(0.41 -0.699296 0)
(0.41 -0.80688 0)
(0.41 -0.914464 0)
(0.41 -1.02205 0)
(0.41 -1.12963 0)
(0.41 -1.23722 0)
(0.41 -1.3448 0)
(0.41 -1.45238 0)
(0.41 -1.55997 0)
(0.41 -1.66755 0)
(0.41 -1.77514 0)
(0.41 -1.88272 0)
(0.41 -1.9903 0)
(0.41 -2.09789 0)
(0.41 -2.20547 0)
(0.41 -2.31306 0)
(0.41 -2.42064 0)
(0.41 -2.52822 0)
(0.41 -2.63581 0)
(0.41 -2.74339 0)
(0.41 -2.85098 0)
(0.41 -2.95856 0)
(0.41 -3.06614 0)
(0.41 -3.17373 0)
(0.41 -3.28131 0)
(0.41 -3.3889 0)
(0.41 -3.49648 0)
(0.41 -3.60406 0)
(0.41 -3.71165 0)
(0.41 -3.81923 0)
(0.41 -3.92682 0)
(0.41 -4.0344 0)
(0.41 -4.14198 0)
(0.41 -4.24957 0)
(0.41 -4.35715 0)
(0.41 -4.46474 0)
(0.41 -4.57232 0)
(0.41 -4.6799 0)
(0.41 -4.78749 0)
(0.41 -4.89507 0)
(0.41 -5.00266 0)
(0.41 -5.11024 0)
(0.41 -5.21782 0)
(0.41 -5.32541 0)
(0.478224 -0.053792 0)
(0.478224 -0.161376 0)
(0.478224 -0.26896 0)
(0.478224 -0.376544 0)
(0.478224 -0.484128 0)
(0.478224 -0.591712 0)
(0.478224 -0.699296 0)
(0.478224 -0.80688 0)
(0.478224 -0.914464 0)
(0.478224 -1.02205 0)
(0.478224 -1.12963 0)
(0.478224 -1.23722 0)
(0.478224 -1.3448 0)
(0.478224 -1.45238 0)
(0.478224 -1.55997 0)
(0.478224 -1.66755 0)
(0.478224 -1.77514 0)
(0.478224 -1.88272 0)
(0.478224 -1.9903 0)
(0.478224 -2.09789 0)
(0.478224 -2.20547 0)
(0.478224 -2.31306 0)
(0.478224 -2.42064 0)
(0.478224 -2.52822 0)
(0.478224 -2.63581 0)
(0.478224 -2.74339 0)
(0.478224 -2.85098 0)
(0.478224 -2.95856 0)
(0.478224 -3.06614 0)
(0.478224 -3.17373 0)
(0.478224 -3.28131 0)
(0.478224 -3.3889 0)
(0.478224 -3.49648 0)
(0.478224 -3.60406 0)
(0.478224 -3.71165 0)
(0.478224 -3.81923 0)
(0.478224 -3.92682 0)
(0.478224 -4.0344 0)
(0.478224 -4.14198 0)
(0.478224 -4.24957 0)
(0.478224 -4.35715 0)
(0.478224 -4.46474 0)
(0.478224 -4.57232 0)
(0.478224 -4.6799 0)
(0.478224 -4.78749 0)
(0.478224 -4.89507 0)
(0.478224 -5.00266 0)
(0.478224 -5.11024 0)
(0.478224 -5.21782 0)
(0.478224 -5.32541 0)
(0.551696 -0.053792 0)
(0.551696 -0.161376 0)
(0.551696 -0.26896 0)
(0.551696 -0.376544 0)
(0.551696 -0.484128 0)
(0.551696 -0.591712 0)
(0.551696 -0.699296 0)
(0.551696 -0.80688 0)
(0.551696 -0.914464 0)
(0.551696 -1.02205 0)
(0.551696 -1.12963 0)
(0.551696 -1.23722 0)
(0.551696 -1.3448 0)
(0.551696 -1.45238 0)
(0.551696 -1.55997 0)
(0.551696 -1.66755 0)
(0.551696 -1.77514 0)
(0.551696 -1.88272 0)
(0.551696 -1.9903 0)
(0.551696 -2.09789 0)
(0.551696 -2.20547 0)
(0.551696 -2.31306 0)
(0.551696 -2.42064 0)
(0.551696 -2.52822 0)
(0.551696 -2.63581 0)
(0.551696 -2.74339 0)
(0.551696 -2.85098 0)
(0.551696 -2.95856 0)
(0.551696 -3.06614 0)
(0.551696 -3.17373 0)
(0.551696 -3.28131 0)
(0.551696 -3.3889 0)
(0.551696 -3.49648 0)
(0.551696 -3.60406 0)
(0.551696 -3.71165 0)
(0.551696 -3.81923 0)
(0.551696 -3.92682 0)
(0.551696 -4.0344 0)
(0.551696 -4.14198 0)
(0.551696 -4.24957 0)
(0.551696 -4.35715 0)
(0.551696 -4.46474 0)
(0.551696 -4.57232 0)
(0.551696 -4.6799 0)
(0.551696 -4.78749 0)
(0.551696 -4.89507 0)
(0.551696 -5.00266 0)
(0.551696 -5.11024 0)
(0.551696 -5.21782 0)
(0.551696 -5.32541 0)
(0.630416 -0.053792 0)
(0.630416 -0.161376 0)
(0.630416 -0.26896 0)
(0.630416 -0.376544 0)
(0.630416 -0.484128 0)
(0.630416 -0.591712 0)
(0.630416 -0.699296 0)
(0.630416 -0.80688 0)
(0.630416 -0.914464 0)
(0.630416 -1.02205 0)
(0.630416 -1.12963 0)
(0.630416 -1.23722 0)
(0.630416 -1.3448 0)
(0.630416 -1.45238 0)
(0.630416 -1.55997 0)
(0.630416 -1.66755 0)
(0.630416 -1.77514 0)
(0.630416 -1.88272 0)
(0.630416 -1.9903 0)
(0.630416 -2.09789 0)
(0.630416 -2.20547 0)
(0.630416 -2.31306 0)
(0.630416 -2.42064 0)
(0.630416 -2.52822 0)
(0.630416 -2.63581 0)
(0.630416 -2.74339 0)
(0.630416 -2.85098 0)
(0.630416 -2.95856 0)
(0.630416 -3.06614 0)
(0.630416 -3.17373 0)
(0.630416 -3.28131 0)
(0.630416 -3.3889 0)
(0.630416 -3.49648 0)
(0.630416 -3.60406 0)
(0.630416 -3.71165 0)
(0.630416 -3.81923 0)
(0.630416 -3.92682 0)
(0.630416 -4.0344 0)
(0.630416 -4.14198 0)
(0.630416 -4.24957 0)
(0.630416 -4.35715 0)
(0.630416 -4.46474 0)
(0.630416 -4.57232 0)
(0.630416 -4.6799 0)
(0.630416 -4.78749 0)
(0.630416 -4.89507 0)
(0.630416 -5.00266 0)
(0.630416 -5.11024 0)
(0.630416 -5.21782 0)
(0.630416 -5.32541 0)
(0.714384 -0.053792 0)
(0.714384 -0.161376 0)
(0.714384 -0.26896 0)
(0.714384 -0.376544 0)
(0.714384 -0.484128 0)
(0.714384 -0.591712 0)
(0.714384 -0.699296 0)
(0.714384 -0.80688 0)
(0.714384 -0.914464 0)
(0.714384 -1.02205 0)
(0.714384 -1.12963 0)
(0.714384 -1.23722 0)
(0.714384 -1.3448 0)
(0.714384 -1.45238 0)
(0.714384 -1.55997 0)
(0.714384 -1.66755 0)
(0.714384 -1.77514 0)
(0.714384 -1.88272 0)
(0.714384 -1.9903 0)
(0.714384 -2.09789 0)
(0.714384 -2.20547 0)
(0.714384 -2.31306 0)
(0.714384 -2.42064 0)
(0.714384 -2.52822 0)
(0.714384 -2.63581 0)
(0.714384 -2.74339 0)
(0.714384 -2.85098 0)
(0.714384 -2.95856 0)
(0.714384 -3.06614 0)
(0.714384 -3.17373 0)
(0.714384 -3.28131 0)
(0.714384 -3.3889 0)
(0.714384 -3.49648 0)
(0.714384 -3.60406 0)
(0.714384 -3.71165 0)
(0.714384 -3.81923 0)
(0.714384 -3.92682 0)
(0.714384 -4.0344 0)
(0.714384 -4.14198 0)
(0.714384 -4.24957 0)
(0.714384 -4.35715 0)
(0.714384 -4.46474 0)
(0.714384 -4.57232 0)
(0.714384 -4.6799 0)
(0.714384 -4.78749 0)
(0.714384 -4.89507 0)
(0.714384 -5.00266 0)
(0.714384 -5.11024 0)
(0.714384 -5.21782 0)
(0.714384 -5.32541 0)
(0.8036 -0.053792 0)
(0.8036 -0.161376 0)
(0.8036 -0.26896 0)
(0.8036 -0.376544 0)
(0.8036 -0.484128 0)
(0.8036 -0.591712 0)
(0.8036 -0.699296 0)
(0.8036 -0.80688 0)
(0.8036 -0.914464 0)
(0.8036 -1.02205 0)
(0.8036 -1.12963 0)
(0.8036 -1.23722 0)
(0.8036 -1.3448 0)
(0.8036 -1.45238 0)
(0.8036 -1.55997 0)
(0.8036 -1.66755 0)
(0.8036 -1.77514 0)
(0.8036 -1.88272 0)
(0.8036 -1.9903 0)
(0.8036 -2.09789 0)
(0.8036 -2.20547 0)
(0.8036 -2.31306 0)
(0.8036 -2.42064 0)
(0.8036 -2.52822 0)
(0.8036 -2.63581 0)
(0.8036 -2.74339 0)
(0.8036 -2.85098 0)
(0.8036 -2.95856 0)
(0.8036 -3.06614 0)
(0.8036 -3.17373 0)
(0.8036 -3.28131 0)
(0.8036 -3.3889 0)
(0.8036 -3.49648 0)
(0.8036 -3.60406 0)
(0.8036 -3.71165 0)
(0.8036 -3.81923 0)
(0.8036 -3.92682 0)
(0.8036 -4.0344 0)
(0.8036 -4.14198 0)
(0.8036 -4.24957 0)
(0.8036 -4.35715 0)
(0.8036 -4.46474 0)
(0.8036 -4.57232 0)
(0.8036 -4.6799 0)
(0.8036 -4.78749 0)
(0.8036 -4.89507 0)
(0.8036 -5.00266 0)
(0.8036 -5.11024 0)
(0.8036 -5.21782 0)
(0.8036 -5.32541 0)
(0.898064 -0.053792 0)
(0.898064 -0.161376 0)
(0.898064 -0.26896 0)
(0.898064 -0.376544 0)
(0.898064 -0.484128 0)
(0.898064 -0.591712 0)
(0.898064 -0.699296 0)
(0.898064 -0.80688 0)
(0.898064 -0.914464 0)
(0.898064 -1.02205 0)
(0.898064 -1.12963 0)
(0.898064 -1.23722 0)
(0.898064 -1.3448 0)
(0.898064 -1.45238 0)
(0.898064 -1.55997 0)
(0.898064 -1.66755 0)
(0.898064 -1.77514 0)
(0.898064 -1.88272 0)
(0.898064 -1.9903 0)
(0.898064 -2.09789 0)
(0.898064 -2.20547 0)
(0.898064 -2.31306 0)
(0.898064 -2.42064 0)
(0.898064 -2.52822 0)
(0.898064 -2.63581 0)
(0.898064 -2.74339 0)
(0.898064 -2.85098 0)
(0.898064 -2.95856 0)
(0.898064 -3.06614 0)
(0.898064 -3.17373 0)
(0.898064 -3.28131 0)
(0.898064 -3.3889 0)
(0.898064 -3.49648 0)
(0.898064 -3.60406 0)
(0.898064 -3.71165 0)
(0.898064 -3.81923 0)
(0.898064 -3.92682 0)
(0.898064 -4.0344 0)
(0.898064 -4.14198 0)
(0.898064 -4.24957 0)
(0.898064 -4.35715 0)
(0.898064 -4.46474 0)
(0.898064 -4.57232 0)
(0.898064 -4.6799 0)
(0.898064 -4.78749 0)
(0.898064 -4.89507 0)
(0.898064 -5.00266 0)
(0.898064 -5.11024 0)
(0.898064 -5.21782 0)
(0.898064 -5.32541 0)
(0.997776 -0.053792 0)
(0.997776 -0.161376 0)
(0.997776 -0.26896 0)
(0.997776 -0.376544 0)
(0.997776 -0.484128 0)
(0.997776 -0.591712 0)
(0.997776 -0.699296 0)
(0.997776 -0.80688 0)
(0.997776 -0.914464 0)
(0.997776 -1.02205 0)
(0.997776 -1.12963 0)
(0.997776 -1.23722 0)
(0.997776 -1.3448 0)
(0.997776 -1.45238 0)
(0.997776 -1.55997 0)
(0.997776 -1.66755 0)
(0.997776 -1.77514 0)
(0.997776 -1.88272 0)
(0.997776 -1.9903 0)
(0.997776 -2.09789 0)
(0.997776 -2.20547 0)
(0.997776 -2.31306 0)
(0.997776 -2.42064 0)
(0.997776 -2.52822 0)
(0.997776 -2.63581 0)
(0.997776 -2.74339 0)
(0.997776 -2.85098 0)
(0.997776 -2.95856 0)
(0.997776 -3.06614 0)
(0.997776 -3.17373 0)
(0.997776 -3.28131 0)
(0.997776 -3.3889 0)
(0.997776 -3.49648 0)
(0.997776 -3.60406 0)
(0.997776 -3.71165 0)
(0.997776 -3.81923 0)
(0.997776 -3.92682 0)
(0.997776 -4.0344 0)
(0.997776 -4.14198 0)
(0.997776 -4.24957 0)
(0.997776 -4.35715 0)
(0.997776 -4.46474 0)
(0.997776 -4.57232 0)
(0.997776 -4.6799 0)
(0.997776 -4.78749 0)
(0.997776 -4.89507 0)
(0.997776 -5.00266 0)
(0.997776 -5.11024 0)
(0.997776 -5.21782 0)
(0.997776 -5.32541 0)
(1.10274 -0.053792 0)
(1.10274 -0.161376 0)
(1.10274 -0.26896 0)
(1.10274 -0.376544 0)
(1.10274 -0.484128 0)
(1.10274 -0.591712 0)
(1.10274 -0.699296 0)
(1.10274 -0.80688 0)
(1.10274 -0.914464 0)
(1.10274 -1.02205 0)
(1.10274 -1.12963 0)
(1.10274 -1.23722 0)
(1.10274 -1.3448 0)
(1.10274 -1.45238 0)
(1.10274 -1.55997 0)
(1.10274 -1.66755 0)
(1.10274 -1.77514 0)
(1.10274 -1.88272 0)
(1.10274 -1.9903 0)
(1.10274 -2.09789 0)
(1.10274 -2.20547 0)
(1.10274 -2.31306 0)
(1.10274 -2.42064 0)
(1.10274 -2.52822 0)
(1.10274 -2.63581 0)
(1.10274 -2.74339 0)
(1.10274 -2.85098 0)
(1.10274 -2.95856 0)
(1.10274 -3.06614 0)
(1.10274 -3.17373 0)
(1.10274 -3.28131 0)
(1.10274 -3.3889 0)
(1.10274 -3.49648 0)
(1.10274 -3.60406 0)
(1.10274 -3.71165 0)
(1.10274 -3.81923 0)
(1.10274 -3.92682 0)
(1.10274 -4.0344 0)
(1.10274 -4.14198 0)
(1.10274 -4.24957 0)
(1.10274 -4.35715 0)
(1.10274 -4.46474 0)
(1.10274 -4.57232 0)
(1.10274 -4.6799 0)
(1.10274 -4.78749 0)
(1.10274 -4.89507 0)
(1.10274 -5.00266 0)
(1.10274 -5.11024 0)
(1.10274 -5.21782 0)
(1.10274 -5.32541 0)
(1.21294 -0.053792 0)
(1.21294 -0.161376 0)
(1.21294 -0.26896 0)
(1.21294 -0.376544 0)
(1.21294 -0.484128 0)
(1.21294 -0.591712 0)
(1.21294 -0.699296 0)
(1.21294 -0.80688 0)
(1.21294 -0.914464 0)
(1.21294 -1.02205 0)
(1.21294 -1.12963 0)
(1.21294 -1.23722 0)
(1.21294 -1.3448 0)
(1.21294 -1.45238 0)
(1.21294 -1.55997 0)
(1.21294 -1.66755 0)
(1.21294 -1.77514 0)
(1.21294 -1.88272 0)
(1.21294 -1.9903 0)
(1.21294 -2.09789 0)
(1.21294 -2.20547 0)
(1.21294 -2.31306 0)
(1.21294 -2.42064 0)
(1.21294 -2.52822 0)
(1.21294 -2.63581 0)
(1.21294 -2.74339 0)
(1.21294 -2.85098 0)
(1.21294 -2.95856 0)
(1.21294 -3.06614 0)
(1.21294 -3.17373 0)
(1.21294 -3.28131 0)
(1.21294 -3.3889 0)
(1.21294 -3.49648 0)
(1.21294 -3.60406 0)
(1.21294 -3.71165 0)
(1.21294 -3.81923 0)
(1.21294 -3.92682 0)
(1.21294 -4.0344 0)
(1.21294 -4.14198 0)
(1.21294 -4.24957 0)
(1.21294 -4.35715 0)
(1.21294 -4.46474 0)
(1.21294 -4.57232 0)
(1.21294 -4.6799 0)
(1.21294 -4.78749 0)
(1.21294 -4.89507 0)
(1.21294 -5.00266 0)
(1.21294 -5.11024 0)
(1.21294 -5.21782 0)
(1.21294 -5.32541 0)
(1.3284 -0.053792 0)
(1.3284 -0.161376 0)
(1.3284 -0.26896 0)
(1.3284 -0.376544 0)
(1.3284 -0.484128 0)
(1.3284 -0.591712 0)
(1.3284 -0.699296 0)
(1.3284 -0.80688 0)
(1.3284 -0.914464 0)
(1.3284 -1.02205 0)
(1.3284 -1.12963 0)
(1.3284 -1.23722 0)
(1.3284 -1.3448 0)
(1.3284 -1.45238 0)
(1.3284 -1.55997 0)
(1.3284 -1.66755 0)
(1.3284 -1.77514 0)
(1.3284 -1.88272 0)
(1.3284 -1.9903 0)
(1.3284 -2.09789 0)
(1.3284 -2.20547 0)
(1.3284 -2.31306 0)
(1.3284 -2.42064 0)
(1.3284 -2.52822 0)
(1.3284 -2.63581 0)
(1.3284 -2.74339 0)
(1.3284 -2.85098 0)
(1.3284 -2.95856 0)
(1.3284 -3.06614 0)
(1.3284 -3.17373 0)
(1.3284 -3.28131 0)
(1.3284 -3.3889 0)
(1.3284 -3.49648 0)
(1.3284 -3.60406 0)
(1.3284 -3.71165 0)
(1.3284 -3.81923 0)
(1.3284 -3.92682 0)
(1.3284 -4.0344 0)
(1.3284 -4.14198 0)
(1.3284 -4.24957 0)
(1.3284 -4.35715 0)
(1.3284 -4.46474 0)
(1.3284 -4.57232 0)
(1.3284 -4.6799 0)
(1.3284 -4.78749 0)
(1.3284 -4.89507 0)
(1.3284 -5.00266 0)
(1.3284 -5.11024 0)
(1.3284 -5.21782 0)
(1.3284 -5.32541 0)
(1.4491 -0.053792 0)
(1.4491 -0.161376 0)
(1.4491 -0.26896 0)
(1.4491 -0.376544 0)
(1.4491 -0.484128 0)
(1.4491 -0.591712 0)
(1.4491 -0.699296 0)
(1.4491 -0.80688 0)
(1.4491 -0.914464 0)
(1.4491 -1.02205 0)
(1.4491 -1.12963 0)
(1.4491 -1.23722 0)
(1.4491 -1.3448 0)
(1.4491 -1.45238 0)
(1.4491 -1.55997 0)
(1.4491 -1.66755 0)
(1.4491 -1.77514 0)
(1.4491 -1.88272 0)
(1.4491 -1.9903 0)
(1.4491 -2.09789 0)
(1.4491 -2.20547 0)
(1.4491 -2.31306 0)
(1.4491 -2.42064 0)
(1.4491 -2.52822 0)
(1.4491 -2.63581 0)
(1.4491 -2.74339 0)
(1.4491 -2.85098 0)
(1.4491 -2.95856 0)
(1.4491 -3.06614 0)
(1.4491 -3.17373 0)
(1.4491 -3.28131 0)
(1.4491 -3.3889 0)
(1.4491 -3.49648 0)
(1.4491 -3.60406 0)
(1.4491 -3.71165 0)
(1.4491 -3.81923 0)
(1.4491 -3.92682 0)
(1.4491 -4.0344 0)
(1.4491 -4.14198 0)
(1.4491 -4.24957 0)
(1.4491 -4.35715 0)
(1.4491 -4.46474 0)
(1.4491 -4.57232 0)
(1.4491 -4.6799 0)
(1.4491 -4.78749 0)
(1.4491 -4.89507 0)
(1.4491 -5.00266 0)
(1.4491 -5.11024 0)
(1.4491 -5.21782 0)
(1.4491 -5.32541 0)
(1.57506 -0.053792 0)
(1.57506 -0.161376 0)
(1.57506 -0.26896 0)
(1.57506 -0.376544 0)
(1.57506 -0.484128 0)
(1.57506 -0.591712 0)
(1.57506 -0.699296 0)
(1.57506 -0.80688 0)
(1.57506 -0.914464 0)
(1.57506 -1.02205 0)
(1.57506 -1.12963 0)
(1.57506 -1.23722 0)
(1.57506 -1.3448 0)
(1.57506 -1.45238 0)
(1.57506 -1.55997 0)
(1.57506 -1.66755 0)
(1.57506 -1.77514 0)
(1.57506 -1.88272 0)
(1.57506 -1.9903 0)
(1.57506 -2.09789 0)
(1.57506 -2.20547 0)
(1.57506 -2.31306 0)
(1.57506 -2.42064 0)
(1.57506 -2.52822 0)
(1.57506 -2.63581 0)
(1.57506 -2.74339 0)
(1.57506 -2.85098 0)
(1.57506 -2.95856 0)
(1.57506 -3.06614 0)
(1.57506 -3.17373 0)
(1.57506 -3.28131 0)
(1.57506 -3.3889 0)
(1.57506 -3.49648 0)
(1.57506 -3.60406 0)
(1.57506 -3.71165 0)
(1.57506 -3.81923 0)
(1.57506 -3.92682 0)
(1.57506 -4.0344 0)
(1.57506 -4.14198 0)
(1.57506 -4.24957 0)
(1.57506 -4.35715 0)
(1.57506 -4.46474 0)
(1.57506 -4.57232 0)
(1.57506 -4.6799 0)
(1.57506 -4.78749 0)
(1.57506 -4.89507 0)
(1.57506 -5.00266 0)
(1.57506 -5.11024 0)
(1.57506 -5.21782 0)
(1.57506 -5.32541 0)
(1.70626 -0.053792 0)
(1.70626 -0.161376 0)
(1.70626 -0.26896 0)
(1.70626 -0.376544 0)
(1.70626 -0.484128 0)
(1.70626 -0.591712 0)
(1.70626 -0.699296 0)
(1.70626 -0.80688 0)
(1.70626 -0.914464 0)
(1.70626 -1.02205 0)
(1.70626 -1.12963 0)
(1.70626 -1.23722 0)
(1.70626 -1.3448 0)
(1.70626 -1.45238 0)
(1.70626 -1.55997 0)
(1.70626 -1.66755 0)
(1.70626 -1.77514 0)
(1.70626 -1.88272 0)
(1.70626 -1.9903 0)
(1.70626 -2.09789 0)
(1.70626 -2.20547 0)
(1.70626 -2.31306 0)
(1.70626 -2.42064 0)
(1.70626 -2.52822 0)
(1.70626 -2.63581 0)
(1.70626 -2.74339 0)
(1.70626 -2.85098 0)
(1.70626 -2.95856 0)
(1.70626 -3.06614 0)
(1.70626 -3.17373 0)
(1.70626 -3.28131 0)
(1.70626 -3.3889 0)
(1.70626 -3.49648 0)
(1.70626 -3.60406 0)
(1.70626 -3.71165 0)
(1.70626 -3.81923 0)
(1.70626 -3.92682 0)
(1.70626 -4.0344 0)
(1.70626 -4.14198 0)
(1.70626 -4.24957 0)
(1.70626 -4.35715 0)
(1.70626 -4.46474 0)
(1.70626 -4.57232 0)
(1.70626 -4.6799 0)
(1.70626 -4.78749 0)
(1.70626 -4.89507 0)
(1.70626 -5.00266 0)
(1.70626 -5.11024 0)
(1.70626 -5.21782 0)
(1.70626 -5.32541 0)
(1.8427 -0.053792 0)
(1.8427 -0.161376 0)
(1.8427 -0.26896 0)
(1.8427 -0.376544 0)
(1.8427 -0.484128 0)
(1.8427 -0.591712 0)
(1.8427 -0.699296 0)
(1.8427 -0.80688 0)
(1.8427 -0.914464 0)
(1.8427 -1.02205 0)
(1.8427 -1.12963 0)
(1.8427 -1.23722 0)
(1.8427 -1.3448 0)
(1.8427 -1.45238 0)
(1.8427 -1.55997 0)
(1.8427 -1.66755 0)
(1.8427 -1.77514 0)
(1.8427 -1.88272 0)
(1.8427 -1.9903 0)
(1.8427 -2.09789 0)
(1.8427 -2.20547 0)
(1.8427 -2.31306 0)
(1.8427 -2.42064 0)
(1.8427 -2.52822 0)
(1.8427 -2.63581 0)
(1.8427 -2.74339 0)
(1.8427 -2.85098 0)
(1.8427 -2.95856 0)
(1.8427 -3.06614 0)
(1.8427 -3.17373 0)
(1.8427 -3.28131 0)
(1.8427 -3.3889 0)
(1.8427 -3.49648 0)
(1.8427 -3.60406 0)
(1.8427 -3.71165 0)
(1.8427 -3.81923 0)
(1.8427 -3.92682 0)
(1.8427 -4.0344 0)
(1.8427 -4.14198 0)
(1.8427 -4.24957 0)
(1.8427 -4.35715 0)
(1.8427 -4.46474 0)
(1.8427 -4.57232 0)
(1.8427 -4.6799 0)
(1.8427 -4.78749 0)
(1.8427 -4.89507 0)
(1.8427 -5.00266 0)
(1.8427 -5.11024 0)
(1.8427 -5.21782 0)
(1.8427 -5.32541 0)
(1.9844 -0.053792 0)
(1.9844 -0.161376 0)
(1.9844 -0.26896 0)
(1.9844 -0.376544 0)
(1.9844 -0.484128 0)
(1.9844 -0.591712 0)
(1.9844 -0.699296 0)
(1.9844 -0.80688 0)
(1.9844 -0.914464 0)
(1.9844 -1.02205 0)
(1.9844 -1.12963 0)
(1.9844 -1.23722 0)
(1.9844 -1.3448 0)
(1.9844 -1.45238 0)
(1.9844 -1.55997 0)
(1.9844 -1.66755 0)
(1.9844 -1.77514 0)
(1.9844 -1.88272 0)
(1.9844 -1.9903 0)