/*--------------------------------*- C++ -*----------------------------------*\
| =========                 |                                                 |
| \\      /  F ield         | OpenFOAM: The Open Source CFD Toolbox           |
|  \\    /   O peration     | Version:  v2006                                 |
|   \\  /    A nd           | Website:  www.openfoam.com                      |
|    \\/     M anipulation  |                                                 |
\*---------------------------------------------------------------------------*/
FoamFile
{
    version     2.0;
    format      ascii;
    class       surfaceScalarField;
    location    "19.3";
    object      alphaPhi0.water;
}
// * * * * * * * * * * * * * * * * * * * * * * * * * * * * * * * * * * * * * //

dimensions      [0 3 -1 0 0 0 0];
oriented        oriented;


internalField   nonuniform List<scalar> 
299200
(
0.000429884
-0.000429884
0.00128148
-0.000851597
0.00223453
-0.000953052
0.00314759
-0.000913052
0.0039858
-0.000838212
0.00475281
-0.000767017
0.00545609
-0.000703277
0.00610103
-0.00064494
0.00669314
-0.000592106
0.00723922
-0.000546081
0.00774723
-0.000508009
0.00822577
-0.000478539
0.00868351
-0.000457743
0.00912869
-0.000445186
0.00956872
-0.000440021
0.0100097
-0.000440998
0.0104564
-0.000446657
0.0109119
-0.000455539
0.0113782
-0.000466339
0.0118563
-0.000478007
0.012346
-0.000489758
0.0128471
-0.000501053
0.0133586
-0.000511579
0.0138799
-0.000521214
0.0144098
-0.000529988
0.0149479
-0.000538038
0.0154934
-0.000545551
0.0160461
-0.000552707
0.0166058
-0.000559644
0.0171722
-0.00056643
0.0177453
-0.000573063
0.0183247
-0.000579466
0.0189102
-0.000585497
0.0195012
-0.000590958
0.0200968
-0.000595606
0.020696
-0.000599192
0.0212975
-0.0006015
0.0218999
-0.000602392
0.0225018
-0.000601866
0.0231019
-0.000600121
0.0236995
-0.000597601
0.0242945
-0.000594975
0.0248875
-0.000592999
0.0254797
-0.000592289
0.0260728
-0.000593103
0.0266681
-0.00059521
0.027266
-0.000597912
0.0278662
-0.000600205
0.0284672
-0.000601047
0.0290668
-0.000599626
0.0296624
-0.000595553
0.0302513
-0.000588933
0.0308316
-0.000580305
0.0314021
-0.000570496
0.0319626
-0.000560452
0.0325136
-0.000551064
0.0330567
-0.000543019
0.0335934
-0.000536732
0.0341258
-0.000532355
0.0346556
-0.000529818
0.0351845
-0.000528908
0.0357138
-0.000529358
0.0362448
-0.000530918
0.0367782
-0.00053341
0.0373149
-0.000536744
0.0378558
-0.00054091
0.0384018
-0.000545951
0.0389537
-0.000551912
0.0395125
-0.000558786
0.0400789
-0.000566482
0.0406537
-0.000574796
0.0412372
-0.000583418
0.0418291
-0.000591944
0.042429
-0.000599911
0.0430359
-0.000606837
0.0436481
-0.000612257
0.0442639
-0.000615774
0.044881
-0.000617079
0.0454969
-0.000615981
0.0461094
-0.000612407
0.0467158
-0.000606399
0.0473139
-0.000598101
0.0479016
-0.000587743
0.0484772
-0.000575625
0.0490393
-0.000562106
0.0495869
-0.000547583
0.0501194
-0.000532472
0.0506366
-0.000517177
0.0511386
-0.000502069
0.0516261
-0.000487448
0.0520996
-0.00047353
0.05256
-0.000460425
0.0530082
-0.000448138
0.0534448
-0.000436584
0.0538704
-0.000425607
0.0542854
-0.000415016
0.05469
-0.000404612
0.0550842
-0.000394213
0.0554679
-0.000383665
0.0558407
-0.000372841
0.0562024
-0.000361642
0.0565523
-0.000349993
0.0568902
-0.000337831
0.0572153
-0.000325099
0.057527
-0.000311725
0.0578246
-0.000297609
0.0581072
-0.000282618
0.0583739
-0.000266637
0.0586235
-0.000249666
0.0588555
-0.000231948
0.0590695
-0.000214042
0.0592662
-0.000196698
0.0594468
-0.000180534
0.0596123
-0.000165542
0.0597629
-0.00015064
0.0598964
-0.000133435
0.0600069
-0.000110515
0.0600855
-7.86395e-05
0.0601231
-3.756e-05
0.0601164
6.69671e-06
0.0600661
5.0266e-05
0.059979
8.70893e-05
0.0598586
0.000120451
0.0597094
0.000149155
0.0595382
0.000171212
0.0593524
0.000185802
0.0591597
0.000192737
0.0589664
0.000193308
0.0587769
0.000189429
0.0585942
0.000182753
0.058419
0.000175195
0.0582517
0.000167239
0.0580926
0.000159133
0.0579415
0.000151163
0.0577974
0.000144012
0.0576584
0.00013902
0.0575205
0.000137887
0.0573789
0.000141664
0.0572264
0.000152445
0.057055
0.000171429
0.0568576
0.000197402
0.0566328
0.000224747
0.0563914
0.000241481
0.0561555
0.00023585
0.0559619
0.000193664
0.0558557
0.000106168
0.0558529
2.74525e-06
0.0559583
-0.000105315
0.0561425
-0.000184234
0.0563654
-0.000222871
0.0564355
-7.01781e-05
0.0559317
0.000503801
0.0545702
0.00136156
0.0524551
0.00211508
0.0501787
0.00227635
0.048446
0.00173273
0.047694
0.000752003
0.0478138
-0.000119784
0.0484067
-0.00059287
0.0490074
-0.00060071
0.0493132
-0.000305813
0.0492693
4.38605e-05
0.0490278
0.000241541
0.0487625
0.000265307
0.0485332
0.0002293
0.0483322
0.000200993
0.0481314
0.000200806
0.0478998
0.000231539
0.0476063
0.000293577
0.0472259
0.000380315
0.0467474
0.000478573
0.0461783
0.00056904
0.0455461
0.000632226
0.0448902
0.000655931
0.0442437
0.000646483
0.0436276
0.000616082
0.0430496
0.000577979
0.0425053
0.000544322
0.0419846
0.00052068
0.0414776
0.000506992
0.040977
0.000500645
0.0404777
0.000499238
0.0399761
0.000501619
0.0394687
0.000507466
0.0389521
0.000516538
0.0384239
0.000528226
0.0378824
0.000541508
0.0373273
0.000555123
0.0367595
0.000567798
0.036181
0.000578449
0.0355947
0.000586343
0.0350035
0.00059118
0.0344104
0.000593065
0.0338181
0.000592373
0.0332285
0.0005896
0.0326432
0.000585219
0.0320636
0.000579604
0.0314906
0.000572994
0.0309251
0.000565505
0.030368
0.000557172
0.02982
0.000547984
0.0292821
0.000537904
0.0287552
0.000526882
0.0282403
0.000514884
0.0277384
0.000501911
0.0272504
0.000488013
0.0267771
0.000473287
0.0263192
0.000457863
0.0258773
0.000441898
0.0254517
0.000425605
0.0250425
0.000409204
0.0246496
0.000392909
0.0242727
0.000376967
0.023911
0.000361612
0.023564
0.000347054
0.0232305
0.000333468
0.0229096
0.000320959
0.0226
0.000309568
0.0223007
0.000299256
0.0220109
0.000289839
0.0217299
0.000281
0.0214576
0.000272338
0.0211942
0.000263373
0.0209406
0.0002536
0.020698
0.000242552
0.0204681
0.00022996
0.0202524
0.000215657
0.0200528
0.000199643
0.0198705
0.000182247
0.0197066
0.000163891
0.0195615
0.000145175
0.0194345
0.000126925
0.0193249
0.000109658
0.0192306
9.42882e-05
0.0191496
8.09797e-05
0.0190793
7.03532e-05
0.0190173
6.19669e-05
0.0189617
5.55702e-05
0.0189112
5.05342e-05
0.0188652
4.59758e-05
0.0188239
4.12771e-05
0.0187875
3.64497e-05
0.0187554
3.20651e-05
0.0187261
2.93565e-05
0.018696
3.0086e-05
0.0186603
3.57206e-05
0.0186135
4.67557e-05
0.0185517
6.1779e-05
0.0184748
7.69493e-05
0.0183868
8.80152e-05
0.0182945
9.22812e-05
0.0182043
9.01402e-05
0.0181179
8.64723e-05
0.0180289
8.89461e-05
0.0179271
0.000101779
0.0178016
0.000125579
0.0176463
0.000155235
0.0174654
0.00018096
0.0172731
0.000192243
0.0170916
0.000181514
0.0169458
0.000145855
0.0168595
8.62836e-05
0.0168548
4.65586e-06
0.0169413
-8.64627e-05
0.0171206
-0.000179283
0.0173703
-0.000249789
0.017647
-0.000276608
0.0178657
-0.000218728
0.0178308
3.48587e-05
0.017278
0.00055287
0.0162432
0.00103473
0.0149816
0.00126167
0.0137531
0.00122843
0.0126713
0.0010818
0.0117555
0.000915878
0.0109728
0.000782643
0.0102902
0.000682655
0.00968855
0.000601607
0.0091601
0.00052845
0.00870293
0.000457168
0.00831739
0.000385536
0.00800245
0.000314945
0.00775391
0.000248537
0.00756421
0.000189695
0.00742399
0.000140223
0.00732338
0.000100612
0.00725248
7.08973e-05
0.00720305
4.94359e-05
0.00716846
3.45843e-05
0.00714354
2.49233e-05
0.00712431
1.92255e-05
0.00710758
1.67314e-05
0.00709048
1.70996e-05
0.00707096
1.95177e-05
0.00704737
2.35934e-05
0.00701846
2.89064e-05
0.00698375
3.47153e-05
0.00694382
3.99333e-05
0.00690072
4.30959e-05
0.00685805
4.26677e-05
0.00681974
3.83158e-05
0.00678877
3.09666e-05
0.00676664
2.2128e-05
0.00675315
1.34937e-05
0.00674639
6.76248e-06
0.00674523
1.1518e-06
0.00675287
-7.63791e-06
0.00677409
-2.12216e-05
0.00681667
-4.25805e-05
0.00688756
-7.08875e-05
0.0069892
-0.00010164
0.00711993
-0.000130727
0.00727428
-0.000154353
0.00744498
-0.000170697
0.00762495
-0.00017997
0.00780878
-0.000183833
0.00799333
-0.000184545
0.00817753
-0.000184202
0.00836183
-0.000184297
0.00854743
-0.000185601
0.00873569
-0.000188264
0.00892773
-0.000192037
0.00912422
-0.000196492
0.00932541
-0.000201191
0.0095312
-0.000205786
0.00974124
-0.000210047
0.00995509
-0.000213852
0.0101723
-0.000217158
0.0103922
-0.000219965
0.0106145
-0.000222292
0.0108387
-0.000224165
0.0110643
-0.000225602
0.0112909
-0.000226618
0.0115181
-0.000227222
0.0117455
-0.000227421
0.0119728
-0.000227218
0.0121994
-0.000226614
0.012425
-0.000225602
0.0126491
-0.000224164
0.0128714
-0.000222249
0.0130911
-0.00021974
0.0133076
-0.000216462
0.0135198
-0.000212183
0.013726
-0.000206261
0.0139228
-0.000196724
0.0141023
-0.000179584
0.0142523
-0.000149922
0.0143575
-0.000105225
0.0144065
-4.9025e-05
0.0143969
9.63585e-06
0.01433
6.69127e-05
0.0142079
0.000122044
0.01403
0.000177871
0.0137995
0.000230534
0.0135264
0.000273082
0.013227
0.000299441
0.0129197
0.000307247
0.0126205
0.000299208
0.012338
0.000282527
0.0120718
0.000266207
0.0118146
0.000257211
0.0115563
0.00025825
0.0112887
0.000267613
0.0110079
0.000280807
0.0107152
0.000292763
0.0104152
0.000299992
0.0101132
0.000302001
0.00981287
0.000300297
0.00951591
0.000296955
0.00922249
0.000293423
0.00893237
0.000290123
0.00864565
0.000286718
0.00836302
0.00028263
0.00808556
0.000277457
0.00781446
0.000271104
0.00755074
0.000263721
0.00729519
0.000255545
0.00704841
0.000246782
0.0068108
0.000237608
0.00658257
0.000228227
0.00636368
0.000218899
0.00615373
0.000209942
0.005952
0.000201729
0.00575735
0.000194653
0.00556827
0.000189084
0.00538294
0.000185327
0.00519944
0.000183502
0.00501587
0.000183569
0.00483038
0.000185491
0.00464137
0.00018901
0.00444764
0.000193728
0.00424851
0.000199127
0.00404349
0.00020502
0.00383226
0.000211228
0.00361456
0.000217702
0.00339008
0.000224486
0.00315855
0.000231527
0.00292011
0.000238436
0.00267592
0.000244192
0.00242872
0.000247197
0.0021833
0.000245427
0.00194625
0.000237043
0.00172399
0.000222268
0.00152576
0.000198224
0.00136066
0.000165099
0.00123734
0.000123326
0.00116481
7.25307e-05
0.00115856
6.24569e-06
0.00121981
-6.1252e-05
0.0013467
-0.000126884
0.00152422
-0.000177518
0.0017337
-0.00020948
0.00195723
-0.000223539
0.00217927
-0.000222033
0.00238843
-0.000209162
0.00258064
-0.000192211
0.002758
-0.000177359
0.00292826
-0.000170258
0.0031047
-0.000176448
0.00330108
-0.000196376
0.00352736
-0.000226278
0.00378711
-0.000259756
0.00407733
-0.000290211
0.00438969
-0.000312369
0.00471211
-0.000322414
0.00502951
-0.000317398
0.00532699
-0.000297487
0.00559086
-0.000263865
0.00581016
-0.000219303
0.00598057
-0.000170413
0.0061067
-0.000126121
0.00619991
-9.32119e-05
0.00627624
-7.63296e-05
0.0063517
-7.54618e-05
0.00643743
-8.57286e-05
0.00653612
-9.86894e-05
0.00664315
-0.000107031
0.00674737
-0.000104227
0.00683658
-8.92018e-05
0.00690241
-6.58317e-05
0.0069402
-3.77938e-05
0.00694912
-8.92158e-06
0.0069266
2.25276e-05
0.00687626
5.03386e-05
0.00679842
7.78357e-05
0.00669606
0.000102364
0.006572
0.000124057
0.00642863
0.000143371
0.00626776
0.000160874
0.00609073
0.000177027
0.0058988
0.000191934
0.00569343
0.000205362
0.0054765
0.000216938
0.00525014
0.00022635
0.00501673
0.000233418
0.00477873
0.000237999
0.00453893
0.000239794
0.00430079
0.000238142
0.00406882
0.000231975
0.00384873
0.000220089
0.00364705
0.000201676
0.00347017
0.000176884
0.00332306
0.00014711
0.0032082
0.000114856
0.00312501
8.31898e-05
0.00307024
5.47675e-05
0.00303861
3.16371e-05
0.00302275
1.58529e-05
0.0030128
9.95055e-06
0.00299572
1.70821e-05
0.00295405
4.16688e-05
0.00286645
8.76077e-05
0.00270932
0.000157123
0.00245809
0.000251228
0.00208809
0.000370001
0.00157795
0.000510143
0.000919408
0.000658542
0.000130997
0.000788411
-0.000740031
0.000871029
-0.00163407
0.000894039
-0.00251029
0.000876222
-0.00334601
0.000835719
-0.00413115
0.000785135
-0.00485736
0.000726216
-0.00551325
0.00065589
-0.00608575
0.000572496
-0.00656141
0.000475659
-0.00692883
0.000367419
-0.00717889
0.000250062
-0.00730107
0.000122184
-0.00727354
-2.75344e-05
-0.00707962
-0.000193915
-0.00669057
-0.00038905
-0.00609129
-0.000599284
-0.00528514
-0.000806144
-0.00430238
-0.00098276
-0.00319893
-0.00110346
-0.00205606
-0.00114287
-0.000966589
-0.00108947
-0.000966589
0.000307438
-0.000737322
0.00105704
-0.00160119
0.00188146
-0.00177748
0.00261736
-0.00164895
0.00322998
-0.00145084
0.00373077
-0.00126781
0.00413374
-0.00110624
0.00444709
-0.000958295
0.00468033
-0.00082534
0.00484874
-0.00071449
0.0049727
-0.000631973
0.00507501
-0.000580853
0.00517809
-0.00056082
0.00530158
-0.000568678
0.00546033
-0.000598763
0.00566315
-0.000643823
0.00591297
-0.000696477
0.00620789
-0.000750462
0.00654289
-0.000801331
0.00691142
-0.000846543
0.00730686
-0.0008852
0.00772339
-0.000917582
0.00815649
-0.000944681
0.00860309
-0.000967808
0.00906141
-0.000988313
0.00953074
-0.00100737
0.010011
-0.0010258
0.0105023
-0.00104404
0.0110048
-0.00106208
0.0115178
-0.0010795
0.0120404
-0.00109563
0.0125706
-0.00110967
0.0131059
-0.00112075
0.0136431
-0.00112818
0.014179
-0.00113149
0.0147104
-0.00113061
0.0152349
-0.00112605
0.0157515
-0.00111892
0.0162606
-0.00111102
0.0167651
-0.00110457
0.0172694
-0.00110189
0.0177793
-0.00110494
0.018301
-0.00111469
0.0188395
-0.00113079
0.0193979
-0.00115147
0.0199765
-0.00117383
0.020573
-0.00119443
0.0211829
-0.00121007
0.0218002
-0.0012184
0.0224189
-0.00121834
0.0230335
-0.00121013
0.0236397
-0.00119514
0.0242349
-0.00117547
0.024818
-0.00115356
0.0253893
-0.00113176
0.0259502
-0.00111203
0.026503
-0.00109581
0.0270502
-0.00108388
0.0275943
-0.00107645
0.0281378
-0.00107329
0.0286827
-0.00107387
0.0292309
-0.00107754
0.0297836
-0.00108366
0.0303419
-0.00109172
0.0309066
-0.00110136
0.031478
-0.00111234
0.0320566
-0.00112451
0.0326424
-0.00113775
0.0332355
-0.00115187
0.0338356
-0.00116657
0.0344422
-0.00118143
0.0350547
-0.0011959
0.0356721
-0.00120936
0.0362933
-0.0012211
0.0369169
-0.00123044
0.0375414
-0.00123673
0.038165
-0.00123942
0.038786
-0.00123811
0.0394026
-0.00123255
0.0400129
-0.00122267
0.040615
-0.00120856
0.0412074
-0.00119045
0.0417884
-0.00116873
0.0423566
-0.00114392
0.0429112
-0.00111664
0.0434512
-0.00108761
0.0439763
-0.0010576
0.0444866
-0.00102741
0.0449822
-0.000997744
0.045464
-0.000969226
0.0459328
-0.000942279
0.0463894
-0.000917115
0.046835
-0.000893708
0.0472702
-0.000871813
0.0476957
-0.000851021
0.0481115
-0.000830836
0.0485176
-0.000810764
0.0489138
-0.000790388
0.0492996
-0.000769419
0.0496744
-0.000747715
0.0500381
-0.000725266
0.0503902
-0.000702165
0.050731
-0.00067856
0.0510605
-0.000654606
0.0513792
-0.000630429
0.0516876
-0.000606081
0.0519866
-0.00058153
0.0522766
-0.000556664
0.0525583
-0.00053136
0.0528319
-0.000505586
0.0530974
-0.000479549
0.0533545
-0.000453795
0.0536032
-0.000429218
0.0538446
-0.000406914
0.0540818
-0.00038789
0.0543211
-0.000372717
0.0545718
-0.00036122
0.0548455
-0.000352347
0.0551523
-0.000344361
0.0554934
-0.000334359
0.0558609
-0.00031728
0.0562392
-0.000291207
0.0566129
-0.000253214
0.0569632
-0.00020117
0.0572696
-0.000135202
0.0575127
-5.72939e-05
0.0576812
2.42235e-05
0.057768
0.000106556
0.0577734
0.00018398
0.0577063
0.000249857
0.0575804
0.000301118
0.057411
0.000336647
0.0572131
0.00035705
0.0570001
0.000364177
0.0567837
0.000360383
0.056575
0.000347753
0.056385
0.00032785
0.0562239
0.000302765
0.0561014
0.000274929
0.0560243
0.000248521
0.0559906
0.000231153
0.0559791
0.000236197
0.0559334
0.000287221
0.0557674
0.000401801
0.0553787
0.000582433
0.0546849
0.000799885
0.0537026
0.000985118
0.0525471
0.00105021
0.0514564
0.000906417
0.0507532
0.000480302
0.0509208
-0.000237781
0.0524063
-0.000981627
0.0549612
-0.00119341
0.0577007
-0.000624369
0.0595539
0.00042318
0.0599126
0.00137398
0.0587982
0.00186638
0.0566924
0.00198608
0.0541415
0.00195797
0.0515993
0.0019415
0.049371
0.00192251
0.0475795
0.00183537
0.04618
0.00164102
0.0450759
0.00136938
0.0442191
0.00108613
0.0435773
0.000842734
0.0431199
0.000658202
0.0428221
0.000529359
0.0426624
0.000453303
0.0426078
0.000434964
0.0426045
0.000481797
0.0425803
0.00059323
0.0424571
0.000755432
0.0421753
0.000937808
0.0417228
0.00109897
0.0411213
0.00121757
0.0404143
0.00128496
0.0396526
0.00130599
0.038881
0.00129229
0.0381313
0.00125674
0.0374213
0.00121064
0.0367579
0.00116265
0.0361405
0.001119
0.035564
0.00108391
0.0350207
0.00105988
0.0345009
0.00104797
0.0339945
0.00104791
0.0334913
0.00105836
0.032982
0.00107708
0.0324592
0.00110124
0.0319177
0.00112785
0.0313548
0.00115409
0.0307703
0.00117761
0.0301659
0.0011967
0.0295453
0.00121022
0.028913
0.00121757
0.028274
0.00121854
0.0276338
0.0012132
0.0269975
0.00120179
0.02637
0.0011847
0.0257555
0.00116249
0.0251576
0.0011358
0.0245791
0.00110538
0.024022
0.00107204
0.0234873
0.00103657
0.0229755
0.000999816
0.0224862
0.000962608
0.0220183
0.000925728
0.0215703
0.000889868
0.0211403
0.000855607
0.0207261
0.000823414
0.0203254
0.000793586
0.0199362
0.000766263
0.0195563
0.000741429
0.0191845
0.000718877
0.0188198
0.000698218
0.0184618
0.000678915
0.0181111
0.000660265
0.017769
0.000641411
0.0174374
0.00062143
0.017119
0.000599406
0.0168167
0.000574568
0.0165337
0.000546378
0.0162726
0.000514737
0.0160352
0.000479984
0.0158224
0.000442726
0.015634
0.000404081
0.0154684
0.000365222
0.0153233
0.000327289
0.0151958
0.000291451
0.0150825
0.000258419
0.0149803
0.000229137
0.0148865
0.000203529
0.0147989
0.000181816
0.0147167
0.000163179
0.0146396
0.000147456
0.0145687
0.000132913
0.0145058
0.000118467
0.014453
0.000103278
0.0144125
8.65513e-05
0.014385
6.87222e-05
0.0143699
5.15269e-05
0.0143631
3.88646e-05
0.0143579
3.45729e-05
0.014343
4.50608e-05
0.0143048
7.38904e-05
0.0142283
0.000123267
0.0141006
0.000189481
0.0139118
0.000265743
0.0136584
0.000341354
0.0133425
0.000408184
0.0129691
0.000463584
0.0125442
0.000511366
0.0120773
0.000555893
0.0115844
0.000594579
0.0110909
0.000619102
0.0106307
0.000615418
0.0102414
0.000570345
0.00995534
0.000478266
0.00979256
0.000344287
0.00975616
0.00018226
0.00983209
1.03558e-05
0.00999116
-0.000154418
0.0102041
-0.000299434
0.0104461
-0.000421247
0.0107153
-0.00051897
0.0110299
-0.00059125
0.0114443
-0.00063314
0.0120875
-0.00060828
0.0130573
-0.000417008
0.0141454
-5.33313e-05
0.0151267
0.000280345
0.0158382
0.000516985
0.0163157
0.000604285
0.0166247
0.000606903
0.0168262
0.000581113
0.0169584
0.000550467
0.0170419
0.000518098
0.0170887
0.000481629
0.0171063
0.000439618
0.017099
0.000392785
0.0170679
0.000346082
0.0170129
0.000303547
0.0169356
0.000266938
0.0168392
0.00023661
0.0167282
0.000211625
0.0166086
0.000190556
0.0164861
0.000171945
0.0163659
0.000154737
0.0162526
0.000138262
0.0161495
0.000122264
0.0160595
0.000106782
0.0159825
9.40381e-05
0.0159184
8.36262e-05
0.0158643
7.77431e-05
0.0158142
7.90209e-05
0.015758
9.08856e-05
0.0156807
0.000117184
0.0155625
0.000161304
0.0153804
0.000224801
0.0151141
0.00030461
0.0147557
0.000389392
0.014314
0.00046378
0.0138158
0.00051175
0.013304
0.000518497
0.012828
0.00047722
0.0124305
0.000389837
0.0121418
0.000267523
0.0119747
0.000124497
0.0119248
-2.10207e-05
0.0119752
-0.000152082
0.0121061
-0.000261562
0.0122944
-0.000342627
0.0125199
-0.000396237
0.0127672
-0.000427273
0.0130254
-0.000442049
0.0132875
-0.000446646
0.0135494
-0.000446053
0.0138089
-0.000443841
0.0140655
-0.000442198
0.0143194
-0.000442172
0.0145714
-0.000444002
0.0148223
-0.000447439
0.0150731
-0.000452008
0.0153246
-0.000457192
0.015577
-0.000462534
0.0158309
-0.00046768
0.0160861
-0.000472375
0.0163426
-0.000476455
0.0166001
-0.000479814
0.0168583
-0.000482387
0.0171169
-0.000484135
0.0173753
-0.00048503
0.0176331
-0.000485048
0.0178898
-0.000484163
0.018145
-0.000482337
0.0183979
-0.000479522
0.0186479
-0.000475647
0.0188944
-0.000470617
0.0191364
-0.000464295
0.0193732
-0.000456498
0.0196037
-0.000446986
0.0198269
-0.000435397
0.0200417
-0.000421072
0.020248
-0.00040302
0.0204489
-0.000380456
0.0206528
-0.000353798
0.0208725
-0.000325014
0.0211199
-0.000296381
0.0213978
-0.000268276
0.0217029
-0.000238172
0.0220301
-0.000205152
0.0223779
-0.00016989
0.0227436
-0.00013517
0.0231214
-0.00010474
0.0235027
-8.19178e-05
0.0238781
-6.81358e-05
0.0242392
-6.19092e-05
0.024581
-5.9224e-05
0.0249025
-5.52623e-05
0.0252062
-4.65531e-05
0.0254972
-3.26908e-05
0.0257807
-1.59113e-05
0.0260606
8.91411e-07
0.0263388
1.45764e-05
0.026616
2.27914e-05
0.0268914
2.66045e-05
0.0271636
2.80738e-05
0.0274312
2.93626e-05
0.0276928
3.18165e-05
0.0279472
3.56901e-05
0.0281935
4.04188e-05
0.028431
4.51761e-05
0.0286591
4.93021e-05
0.0288778
5.24781e-05
0.0290867
5.47511e-05
0.0292859
5.63938e-05
0.029475
5.76544e-05
0.0296538
5.87953e-05
0.0298219
6.01363e-05
0.0299788
6.20241e-05
0.0301239
6.48333e-05
0.0302567
6.89548e-05
0.0303766
7.47548e-05
0.0304831
8.25631e-05
0.0305758
9.26565e-05
0.0306543
0.000105006
0.0307186
0.000119246
0.0307689
0.000135194
0.0308054
0.000152502
0.0308284
0.000170773
0.0308383
0.000189173
0.0308354
0.000207973
0.0308196
0.000227025
0.0307909
0.000246332
0.0307496
0.000265831
0.030696
0.000285131
0.0306311
0.000303315
0.0305569
0.000318393
0.0304763
0.000327839
0.0303931
0.000328605
0.0303128
0.000317279
0.0302414
0.000293715
0.030183
0.000256665
0.0301414
0.000206606
0.0301187
0.000146034
0.030112
7.92322e-05
0.0301041
1.41893e-05
0.030097
-5.41309e-05
0.0300771
-0.000107038
0.0300401
-0.000140495
0.0299822
-0.000151533
0.0298961
-0.000137477
0.0297711
-9.6994e-05
0.029593
-3.11005e-05
0.0293482
5.26026e-05
0.0290294
0.0001414
0.0286369
0.000222247
0.0281754
0.000285038
0.0276569
0.000322197
0.0270998
0.000330768
0.0265277
0.000312332
0.0259657
0.000271829
0.025437
0.00021634
0.0249603
0.000154265
0.024548
9.48533e-05
0.024204
4.65236e-05
0.0239248
1.53255e-05
0.0237023
3.23634e-06
0.0235248
7.10962e-06
0.0233782
2.04603e-05
0.0232513
3.37147e-05
0.0231371
3.78878e-05
0.0230348
2.68393e-05
0.022951
-1.92155e-06
0.0228903
-3.80002e-05
0.0228647
-8.14359e-05
0.0228839
-0.000123441
0.022952
-0.000157298
0.0230624
-0.000176288
0.0231976
-0.000172987
0.0233319
-0.000143211
0.0234408
-8.63246e-05
0.0235049
-1.37945e-05
0.0235139
6.88643e-05
0.0234724
0.00014383
0.0233902
0.00020622
0.0232798
0.000253854
0.0231526
0.000288051
0.0230173
0.000312297
0.0228787
0.000330599
0.0227377
0.000346308
0.0225929
0.000361694
0.0224413
0.00037804
0.0222788
0.000395839
0.022102
0.000414863
0.0219076
0.000434181
0.0216934
0.000452334
0.0214575
0.00046783
0.0211977
0.000479947
0.0209098
0.000489564
0.020587
0.000499707
0.0202188
0.000515291
0.0197925
0.000541184
0.0192958
0.000579889
0.0187215
0.000629028
0.0180719
0.000681222
0.0173612
0.000726601
0.0166137
0.000757388
0.0158579
0.000772876
0.0151174
0.000782181
0.0144028
0.000802244
0.0137081
0.00085179
0.0130157
0.000943647
0.0123063
0.00107942
0.0115683
0.00124811
0.0107994
0.00142743
0.0100013
0.00158654
0.00917861
0.00169372
0.00834182
0.00173082
0.00751184
0.00170621
0.00670452
0.00164304
0.0059262
0.00156346
0.00517684
0.00147558
0.00445753
0.00137519
0.00377422
0.00125581
0.00313443
0.00111545
0.00254245
0.0009594
0.00199726
0.000795254
0.00149177
0.000627665
0.00100807
0.000456167
0.000543199
0.000270958
9.45089e-05
5.96408e-05
-0.000301115
-0.00020366
-0.000594712
-0.000512547
-0.000735042
-0.00084243
-0.000689423
-0.00114908
-0.00048411
-0.00134818
-0.000219859
-0.00135372
-0.00118645
0.000270945
-0.00100827
0.00104104
-0.00237129
0.00194095
-0.00267739
0.00272593
-0.00243393
0.00330656
-0.00203146
0.00369819
-0.00165944
0.00395168
-0.00135973
0.00411095
-0.00111757
0.00420944
-0.000923827
0.00427921
-0.000784257
0.00435351
-0.000706273
0.00446244
-0.000689783
0.00462816
-0.000726538
0.00486208
-0.000802597
0.00516535
-0.000902032
0.0055315
-0.00100998
0.00594987
-0.00111484
0.00640854
-0.00120914
0.00689645
-0.00128924
0.00740444
-0.00135454
0.00792568
-0.00140644
0.00845554
-0.00144744
0.00899128
-0.00148042
0.00953158
-0.00150811
0.010076
-0.00153275
0.0106246
-0.00155592
0.0111773
-0.00157849
0.0117338
-0.00160059
0.0122935
-0.00162177
0.0128551
-0.00164114
0.0134171
-0.0016576
0.0139776
-0.00167012
0.0145347
-0.0016779
0.0150872
-0.00168063
0.0156343
-0.00167862
0.0161766
-0.00167288
0.0167157
-0.00166523
0.0172549
-0.00165813
0.0177984
-0.00165443
0.0183507
-0.0016569
0.0189164
-0.0016676
0.0194988
-0.00168737
0.0200995
-0.00171536
0.0207177
-0.00174898
0.0213505
-0.00178425
0.0219932
-0.00181656
0.0226403
-0.00184152
0.023286
-0.00185583
0.0239254
-0.00185777
0.0245544
-0.00184734
0.0251704
-0.0018261
0.025772
-0.00179674
0.0263591
-0.00176255
0.0269324
-0.00172692
0.0274936
-0.00169292
0.0280445
-0.00166295
0.0285873
-0.00163865
0.0291242
-0.00162079
0.0296572
-0.00160945
0.0301881
-0.00160417
0.0307184
-0.00160417
0.0312495
-0.00160862
0.0317826
-0.00161672
0.0323187
-0.00162787
0.0328589
-0.0016416
0.0334042
-0.00165763
0.0339554
-0.00167568
0.0345132
-0.0016955
0.035078
-0.0017167
0.0356502
-0.00173875
0.0362297
-0.00176096
0.0368163
-0.00178248
0.0374093
-0.00180236
0.0380078
-0.0018196
0.0386105
-0.0018332
0.0392161
-0.00184228
0.0398227
-0.00184606
0.0404286
-0.00184397
0.0410317
-0.00183567
0.0416301
-0.00182105
0.0422218
-0.00180025
0.042805
-0.00177363
0.0433781
-0.00174182
0.0439398
-0.0017056
0.0444891
-0.00166593
0.0450253
-0.00162388
0.0455483
-0.00158053
0.0460578
-0.00153695
0.0465541
-0.00149407
0.0470375
-0.0014526
0.0475082
-0.00141296
0.0479663
-0.00137525
0.0484119
-0.00133925
0.0488445
-0.00130447
0.0492637
-0.00127023
0.0496686
-0.00123576
0.0500583
-0.00120038
0.0504314
-0.00116352
0.0507868
-0.00112485
0.0511234
-0.00108428
0.05144
-0.00104193
0.051736
-0.000998087
0.0520105
-0.000953137
0.0522634
-0.00090749
0.0524945
-0.000861525
0.052704
-0.000815543
0.0528922
-0.000769761
0.0530599
-0.000724309
0.0532078
-0.000679275
0.053337
-0.000634766
0.0534484
-0.000590997
0.053543
-0.000548372
0.0536213
-0.00050752
0.0536836
-0.000469239
0.0537301
-0.000434376
0.053761
-0.000403621
0.053777
-0.000377268
0.0537796
-0.000354932
0.0537705
-0.000335223
0.0537513
-0.000315212
0.0537254
-0.000291309
0.0536955
-0.000261352
0.0536652
-0.000222863
0.0536373
-0.000173271
0.0536141
-0.000111987
0.0535974
-4.06541e-05
0.0535791
4.25417e-05
0.0535595
0.0001262
0.0535348
0.000208648
0.0535017
0.00028298
0.0534582
0.000344599
0.0534037
0.000391167
0.0533376
0.000423117
0.0532585
0.000443248
0.0531633
0.000455586
0.0530469
0.000464168
0.0529025
0.000472271
0.0527229
0.000482396
0.052501
0.000496751
0.0522295
0.000520063
0.0518998
0.000560879
0.0515046
0.000631406
0.051042
0.000749759
0.0505035
0.00094029
0.0498702
0.0012158
0.0491224
0.00154764
0.0482635
0.00184404
0.047332
0.00198165
0.0464043
0.00183411
0.0455879
0.00129671
0.0450197
0.000330444
0.0447783
-0.000740187
0.0451518
-0.0015669
0.0462989
-0.00177155
0.0478859
-0.00116382
0.0491754
8.45231e-05
0.0495719
0.00146991
0.0489252
0.00263277
0.0475555
0.00332765
0.0459501
0.00354688
0.0444963
0.00337635
0.043369
0.00296268
0.0425465
0.00246347
0.0419161
0.00199983
0.041367
0.0016352
0.0408308
0.00137893
0.0402831
0.00120589
0.0397275
0.00108498
0.0391795
0.00100127
0.0386565
0.000957989
0.0381723
0.000966027
0.0377336
0.00103191
0.037335
0.00115404
0.0369572
0.00131558
0.0365722
0.00148398
0.0361613
0.0016285
0.0357189
0.00172731
0.0352507
0.00177425
0.0347661
0.00177683
0.0342736
0.00174929
0.033778
0.00170626
0.0332814
0.00165924
0.0327846
0.00161584
0.032288
0.00158049
0.0317925
0.00155538
0.0312992
0.00154126
0.0308092
0.00153788
0.0303234
0.00154417
0.0298421
0.0015584
0.0293651
0.00157821
0.0288921
0.0016009
0.0284225
0.0016237
0.027956
0.00164403
0.027493
0.00165975
0.0270339
0.00166927
0.02658
0.00167155
0.0261324
0.00166611
0.0256927
0.0016529
0.0252622
0.00163225
0.0248421
0.00160486
0.024433
0.00157161
0.0240351
0.0015337
0.0236481
0.00149235
0.0232712
0.00144892
0.0229031
0.00140467
0.0225421
0.0013608
0.0221864
0.00131835
0.0218339
0.00127819
0.0214829
0.00124085
0.0211317
0.00120681
0.0207792
0.00117598
0.0204245
0.00114826
0.0200677
0.00112308
0.0197095
0.00109962
0.0193514
0.00107696
0.0189958
0.00105386
0.0186457
0.00102901
0.0183048
0.00100116
0.0179769
0.000969303
0.0176657
0.000932651
0.017374
0.000891013
0.0171039
0.000844696
0.0168558
0.000794529
0.0166287
0.000741803
0.0164207
0.000687978
0.0162286
0.000634854
0.0160488
0.000583854
0.0158779
0.000536093
0.015713
0.000492187
0.0155519
0.000452611
0.0153929
0.000417355
0.0152359
0.000386131
0.0150811
0.000358383
0.0149296
0.000333273
0.0147829
0.000309956
0.0146434
0.000286927
0.0145127
0.000263631
0.0143932
0.000237967
0.0142874
0.000209094
0.0141967
0.000177183
0.014122
0.00014343
0.014064
0.00010956
0.0140211
8.17945e-05
0.0139887
6.69434e-05
0.0139596
7.41089e-05
0.0139217
0.000111874
0.0138566
0.000188318
0.0137406
0.000305448
0.0135486
0.000457787
0.0132594
0.000630509
0.0128653
0.000802274
0.0123804
0.000948557
0.0118422
0.00104949
0.0113075
0.00109062
0.0108372
0.00106487
0.0104832
0.00097317
0.0102744
0.000824225
0.0102098
0.000634906
0.0102605
0.000427517
0.010379
0.00022587
0.0105125
4.8738e-05
0.0106119
-8.91131e-05
0.0106458
-0.000188277
0.0105947
-0.000248334
0.0104498
-0.000276355
0.01021
-0.000279127
0.0098801
-0.000261383
0.00947949
-0.000232527
0.00907299
-0.000201782
0.00876724
-0.000111258
0.00862754
8.63734e-05
0.00857757
0.000330311
0.00859696
0.000497592
0.00861803
0.000583217
0.00861724
0.000607693
0.00860048
0.000597877
0.00857681
0.000574139
0.00855069
0.000544219
0.00852295
0.000509369
0.00849366
0.000468908
0.0084639
0.000422537
0.00843668
0.000373307
0.00841575
0.000324475
0.00840407
0.000278619
0.00840391
0.000236772
0.00841705
0.000198479
0.0084446
0.000163014
0.00848708
0.000129459
0.00854482
9.69962e-05
0.00861794
6.51426e-05
0.00870648
3.37261e-05
0.0088115
1.76005e-06
0.00893013
-2.45874e-05
0.00906412
-5.03653e-05
0.00921353
-7.16688e-05
0.00937876
-8.62062e-05
0.00956075
-9.1107e-05
0.00976094
-8.30047e-05
0.00998089
-5.86463e-05
0.0102219
-1.61646e-05
0.0104823
4.41896e-05
0.0107555
0.000116169
0.011031
0.000188248
0.0112993
0.000243435
0.0115541
0.000263775
0.0117934
0.000237928
0.0120176
0.000165555
0.0122254
5.9741e-05
0.0124175
-6.75787e-05