/*--------------------------------*- C++ -*----------------------------------*\
| =========                 |                                                 |
| \\      /  F ield         | OpenFOAM: The Open Source CFD Toolbox           |
|  \\    /   O peration     | Version:  v2006                                 |
|   \\  /    A nd           | Website:  www.openfoam.com                      |
|    \\/     M anipulation  |                                                 |
\*---------------------------------------------------------------------------*/
FoamFile
{
    version     2.0;
    format      ascii;
    class       volScalarField;
    location    "0";
    object      f;
}
// * * * * * * * * * * * * * * * * * * * * * * * * * * * * * * * * * * * * * //

dimensions      [0 0 0 0 0 0 0];


internalField   nonuniform List<scalar> 
2500
(
2.19778e-67
-4.42702e-54
-1.39533e-46
6.66564e-42
3.00457e-38
-5.91927e-36
1.2799e-33
3.41992e-31
1.41322e-29
2.19993e-28
2.27369e-27
1.85863e-26
1.11357e-25
3.92627e-25
6.48337e-25
-8.15147e-25
-3.48075e-24
1.86059e-23
1.42343e-22
4.4338e-22
8.68481e-22
1.20561e-21
1.20882e-21
7.38177e-22
-1.20785e-22
-9.97588e-22
-1.45519e-21
-1.36938e-21
-9.7366e-22
-5.61219e-22
-2.7448e-22
-1.17852e-22
-4.56327e-23
-1.62715e-23
-5.4209e-24
-1.69812e-24
-4.98294e-25
-1.34627e-25
-3.21347e-26
-6.04855e-27
-4.6023e-28
3.19418e-28
2.36153e-28
1.10036e-28
4.28841e-29
1.50386e-29
4.88987e-30
1.49656e-30
4.34743e-31
4.62786e-32
1.33525e-65
-1.19543e-52
-2.48116e-45
7.94059e-41
3.08388e-37
-6.3703e-35
2.59519e-33
1.53717e-30
6.21461e-29
8.73304e-28
8.00624e-27
6.04025e-26
3.51258e-25
1.1599e-24
1.58007e-24
-3.8113e-24
-1.54241e-23
2.56121e-23
2.88171e-22
9.23727e-22
1.79132e-21
2.43751e-21
2.40742e-21
1.49176e-21
-1.27471e-22
-1.77161e-21
-2.62252e-21
-2.44527e-21
-1.69993e-21
-9.49547e-22
-4.47939e-22
-1.85487e-22
-6.95959e-23
-2.42686e-23
-7.99809e-24
-2.50413e-24
-7.38594e-25
-2.00392e-25
-4.76121e-26
-8.69961e-27
-5.03854e-28
5.45291e-28
3.68621e-28
1.64417e-28
6.1733e-29
2.08916e-29
6.56412e-30
1.94487e-30
5.48285e-31
6.67875e-32
-6.97191e-65
-2.52459e-51
-3.28074e-44
7.62301e-40
2.74819e-36
-5.51761e-34
-2.12485e-32
5.80531e-30
2.53067e-28
3.33278e-27
2.77396e-26
1.98706e-25
1.1681e-24
3.75586e-24
4.52378e-24
-1.48732e-23
-6.02344e-23
2.35471e-23
6.80099e-22
2.2968e-21
4.48436e-21
6.07348e-21
5.98951e-21
3.80525e-21
-5.68301e-23
-4.04275e-21
-6.15967e-21
-5.76057e-21
-3.96279e-21
-2.17073e-21
-9.99166e-22
-4.03334e-22
-1.48033e-22
-5.085e-23
-1.66399e-23
-5.19725e-24
-1.52543e-24
-4.06379e-25
-9.15352e-26
-1.39324e-26
8.52518e-28
1.87821e-27
1.02302e-27
4.20863e-28
1.50245e-28
4.88904e-29
1.48539e-29
4.2718e-30
1.17269e-30
1.51955e-31
-1.24612e-61
-6.07737e-50
-3.37985e-43
6.84842e-39
2.39894e-35
-4.31178e-33
-3.31311e-31
1.82223e-29
9.87377e-28
1.23708e-26
9.29689e-26
6.34109e-25
3.85002e-24
1.22675e-23
1.38896e-23
-5.10546e-23
-2.12051e-22
-6.81559e-23
1.52521e-21
5.54839e-21
1.09658e-20
1.48154e-20
1.46112e-20
9.54694e-21
5.71511e-22
-8.89657e-21
-1.41124e-20
-1.32884e-20
-9.05134e-21
-4.85416e-21
-2.17288e-21
-8.51511e-22
-3.04519e-22
-1.02764e-22
-3.33276e-23
-1.03505e-23
-2.99757e-24
-7.6792e-25
-1.54417e-25
-1.30862e-26
8.15819e-27
6.22074e-27
2.88706e-27
1.10195e-27
3.74182e-28
1.16981e-28
3.43173e-29
9.55997e-30
2.54901e-30
3.46131e-31
-2.10717e-59
-2.07092e-48
-1.17772e-42
5.64943e-38
2.04326e-34
-3.10802e-32
-3.05329e-30
3.36374e-29
3.66725e-27
4.46369e-26
2.9971e-25
1.94962e-24
1.25376e-23
4.02826e-23
4.6058e-23
-1.5823e-22
-6.9157e-22
-5.37335e-22
3.20533e-21
1.29913e-20
2.61647e-20
3.53513e-20
3.49129e-20
2.35101e-20
3.22065e-21
-1.87834e-20
-3.1497e-20
-3.00051e-20
-2.02539e-20
-1.06126e-20
-4.60071e-21
-1.74103e-21
-6.03753e-22
-1.99588e-22
-6.40652e-23
-1.9721e-23
-5.57416e-24
-1.32874e-24
-2.07294e-25
1.94259e-26
3.46833e-26
1.90996e-26
7.9653e-27
2.86402e-27
9.31525e-28
2.80943e-28
7.97821e-29
2.15586e-29
5.58496e-30
7.86198e-31
-2.60338e-57
-9.42161e-47
6.65172e-41
4.12324e-37
1.69159e-33
-2.08397e-31
-2.36159e-29
-1.15306e-28
1.28686e-26
1.56781e-25
9.22241e-25
5.7134e-24
4.01239e-23
1.32002e-22
1.61322e-22
-4.4425e-22
-2.11484e-21
-2.32406e-21
6.15382e-21
2.93993e-20
6.08443e-20
8.24418e-20
8.16247e-20
5.67074e-20
1.21858e-20
-3.77515e-20
-6.83609e-20
-6.62921e-20
-4.43958e-20
-2.26713e-20
-9.46713e-21
-3.43532e-21
-1.14787e-21
-3.70579e-22
-1.17671e-22
-3.57794e-23
-9.70901e-24
-2.0198e-24
-1.27947e-25
1.59743e-25
1.15906e-25
5.45053e-26
2.11556e-26
7.26826e-27
2.28273e-27
6.67875e-28
1.84376e-28
4.84802e-29
1.22293e-29
1.77157e-30
-2.72886e-55
-4.55858e-45
2.64284e-39
2.40854e-36
1.35604e-32
-1.29939e-30
-1.6716e-28
-1.86495e-27
4.23508e-26
5.39011e-25
2.68052e-24
1.5675e-23
1.25216e-22
4.27264e-22
5.75456e-22
-1.11352e-21
-6.09332e-21
-8.22356e-21
1.02034e-20
6.40774e-20
1.37734e-19
1.87747e-19
1.8651e-19
1.33682e-19
3.90877e-20
-7.13047e-20
-1.43945e-19
-1.43244e-19
-9.53241e-20
-4.72902e-20
-1.88856e-20
-6.5068e-21
-2.07639e-21
-6.52476e-22
-2.05165e-22
-6.13625e-23
-1.55333e-23
-2.38533e-24
4.57546e-25
6.0949e-25
3.40015e-25
1.45927e-25
5.38708e-26
1.78753e-26
5.45852e-27
1.55743e-27
4.19778e-28
1.078e-28
2.65576e-29
3.93983e-30
-2.52075e-53
-2.09801e-43
6.94456e-38
6.32543e-36
1.0483e-31
-7.45405e-30
-1.1253e-27
-1.46394e-26
1.3046e-25
1.83859e-24
7.25839e-24
3.89297e-23
3.77077e-22
1.34994e-21
2.02305e-21
-2.38076e-21
-1.65445e-20
-2.59343e-20
1.22133e-20
1.33931e-19
3.03171e-19
4.17186e-19
4.16014e-19
3.07304e-19
1.13301e-19
-1.23624e-19
-2.93109e-19
-3.02559e-19
-2.0051e-19
-9.624e-20
-3.63927e-20
-1.17321e-20
-3.52726e-21
-1.07509e-21
-3.36218e-22
-9.8327e-23
-2.18828e-23
-9.21265e-25
2.53736e-24
1.86156e-24
9.13719e-25
3.69671e-25
1.31559e-25
4.2482e-26
1.268e-26
3.54323e-27
9.35952e-28
2.35547e-28
5.6848e-29
8.60857e-30
-2.05179e-51
-8.97262e-42
1.5516e-36
-1.16753e-34
7.77478e-31
-3.81067e-29
-7.3629e-27
-9.25275e-26
3.83831e-25
6.3856e-24
1.80224e-23
8.08444e-23
1.0798e-21
4.10986e-21
6.84974e-21
-3.74056e-21
-4.21728e-20
-7.52179e-20
-8.6724e-22
2.67041e-19
6.48264e-19
9.03855e-19
9.04676e-19
6.87188e-19
3.04609e-19
-1.86852e-19
-5.74453e-19
-6.24295e-19
-4.1331e-19
-1.90904e-19
-6.7382e-20
-1.98511e-20
-5.49201e-21
-1.61859e-21
-5.09726e-22
-1.44289e-22
-2.40703e-23
6.38795e-24
8.49374e-24
5.04829e-24
2.29761e-24
8.91953e-25
3.08638e-25
9.7498e-26
2.85548e-26
7.84032e-27
2.03584e-27
5.0356e-28
1.19388e-28
1.8413e-29
-1.41748e-49
-3.57736e-40
3.16772e-35
-3.1279e-33
5.48536e-30
-1.57104e-28
-4.7377e-26
-5.21196e-25
1.16995e-24
2.34464e-23
4.07921e-23
1.02651e-22
2.8733e-21
1.18784e-20
2.19931e-20
-8.56755e-22
-1.00057e-19
-2.03323e-19
-6.95926e-20
5.04787e-19
1.34592e-18
1.90812e-18
1.91541e-18
1.49094e-18
7.69063e-19
-2.10064e-19
-1.0758e-18
-1.25734e-18
-8.35397e-19
-3.68694e-19
-1.18852e-19
-3.06584e-20
-7.42489e-21
-2.11501e-21
-6.95227e-22
-1.8641e-22
-9.32473e-24
2.90963e-23
2.36945e-23
1.26388e-23
5.47216e-24
2.0598e-24
6.96863e-25
2.16133e-25
6.22846e-26
1.68448e-26
4.30968e-27
1.05014e-27
2.45154e-28
3.84435e-29
-7.20414e-48
-1.34062e-38
6.11849e-34
-5.60431e-32
3.61535e-29
-2.90794e-28
-3.00592e-25
-2.73552e-24
4.30983e-24
9.41025e-23
8.99784e-23
-1.82705e-22
6.79308e-21
3.19385e-20
6.61332e-20
2.46995e-20
-2.17347e-19
-5.14737e-19
-3.01327e-19
8.98899e-19
2.71416e-18
3.92305e-18
3.94221e-18
3.12937e-18
1.83447e-18
-2.17663e-20
-1.90229e-18
-2.46881e-18
-1.65755e-18
-6.92371e-19
-1.9675e-19
-4.04662e-20
-7.33954e-21
-2.05722e-21
-8.05483e-22
-1.91939e-22
5.17933e-23
8.82313e-23
5.95924e-23
2.97736e-23
1.24373e-23
4.5687e-24
1.51675e-24
4.63009e-25
1.31546e-25
3.5105e-26
8.86511e-27
2.13193e-27
4.90985e-28
7.81759e-29
-5.48137e-47
-4.75959e-37
1.14316e-32
-9.11607e-31
2.11873e-28
3.72867e-27
-1.86858e-24
-1.3816e-23
2.03386e-23
4.13884e-22
2.59338e-22
-2.11214e-21
1.26203e-20
7.7137e-20
1.83589e-19
1.33562e-19
-4.18323e-19
-1.21979e-18
-9.46061e-19
1.50267e-18
5.32539e-18
7.85166e-18
7.87203e-18
6.33272e-18
4.14405e-18
8.44495e-19
-3.1074e-18
-4.71737e-18
-3.23434e-18
-1.26239e-18
-2.96733e-19
-3.59178e-20
6.2573e-23
-2.87636e-22
-6.75209e-22
-9.82463e-23
2.20528e-22
2.27431e-22
1.39508e-22
6.67087e-23
2.71081e-23
9.75717e-24
3.18627e-24
9.5894e-25
2.68976e-25
7.09202e-26
1.77007e-26
4.20699e-27
9.5725e-28
1.54571e-28
5.05885e-44
-1.61149e-35
2.0979e-31
-1.41087e-29
9.14585e-28
6.57316e-26
-1.12121e-23
-6.92776e-23
1.05691e-22
1.9268e-21
1.26337e-21
-1.08442e-20
8.1683e-21
1.53975e-19
4.59649e-19
4.91754e-19
-6.59352e-19
-2.69101e-18
-2.51212e-18
2.37959e-18
1.02044e-17
1.52888e-17
1.52104e-17
1.23037e-17
8.86404e-18
3.50833e-18
-4.47394e-18
-8.74588e-18
-6.22404e-18
-2.23132e-18
-3.78882e-19
1.9835e-20
2.69079e-20
5.38349e-21
-1.01725e-22
1.87715e-22
6.15468e-22
5.33124e-22
3.08996e-22
1.43093e-22
5.68447e-23
2.00983e-23
6.4658e-24
1.92065e-24
5.32375e-25
1.38817e-25
3.42763e-26
8.05991e-27
1.81407e-27
2.96741e-28
9.16509e-42
-5.23201e-34
3.81399e-30
-2.04596e-28
-9.31042e-28
7.15375e-25
-6.33903e-23
-3.54639e-22
5.09168e-22
9.03375e-21
7.64886e-21
-4.39202e-20
-7.9821e-20
1.79222e-19
9.87164e-19
1.47464e-18
-6.27506e-19
-5.46058e-18
-5.85209e-18
3.73875e-18
1.92135e-17
2.89345e-17
2.83203e-17
2.28206e-17
1.79094e-17
1.04134e-17
-4.9515e-18
-1.5654e-17
-1.18618e-17
-3.81871e-18
-3.05875e-19
2.16076e-19
9.80656e-20
1.83248e-20
9.04001e-22
7.57445e-22
1.45518e-21
1.17016e-21
6.53716e-22
2.95114e-22
1.14929e-22
3.99735e-23
1.26805e-23
3.72037e-24
1.01972e-24
2.63124e-25
6.4321e-26
1.4976e-26
3.33727e-27
5.52438e-28
1.16195e-39
-1.63661e-32
6.87282e-29
-2.66801e-27
-9.89038e-26
6.43127e-24
-3.2435e-22
-1.87589e-21
1.99838e-21
4.07954e-20
4.37083e-20
-1.53848e-19
-5.72972e-19
-3.9192e-19
1.56042e-18
3.71687e-18
7.28904e-19
-9.9465e-18
-1.18766e-17
6.52022e-18
3.58361e-17
5.31174e-17
5.04652e-17
4.00556e-17
3.40113e-17
2.64502e-17
-1.39502e-18
-2.68154e-17
-2.25197e-17
-6.32994e-18
2.98615e-19
7.51877e-19
2.59609e-19
4.20199e-20
1.32573e-21
1.59722e-21
3.132e-21
2.44361e-21
1.3291e-21
5.86829e-22
2.24335e-22
7.68087e-23
2.40367e-23
6.96819e-24
1.88936e-24
4.82667e-25
1.16872e-25
2.69605e-26
5.95256e-27
9.96176e-28
1.2538e-37
-4.95331e-31
1.21844e-27
-2.88021e-26
-1.8157e-24
5.03679e-23
-1.37468e-21
-1.0101e-20
4.82722e-21
1.71121e-19
2.20553e-19
-4.68493e-19
-2.63884e-18
-3.92055e-18
3.32246e-19
7.62591e-18
5.9857e-18
-1.5379e-17
-1.97007e-17
1.40944e-17
6.67327e-17
9.42834e-17
8.50899e-17
6.54678e-17
6.01896e-17
6.05181e-17
1.40068e-17
-4.3275e-17
-4.29119e-17
-1.02166e-17
2.36165e-18
2.04403e-18
5.87221e-19
7.52879e-20
-2.8235e-21
2.37192e-21
6.35068e-21
4.90503e-21
2.60767e-21
1.12713e-21
4.23065e-22
1.42604e-22
4.40292e-23
1.2614e-23
3.38414e-24
8.56182e-25
2.05431e-25
4.69744e-26
1.02815e-26
1.73786e-27
1.22332e-35
-1.45608e-29
2.09557e-26
-1.89589e-25
-2.54406e-23
3.41957e-22
-3.37013e-21
-5.32012e-20
-1.03074e-20
6.439e-19
9.69832e-19
-1.14897e-18
-9.7469e-18
-1.88036e-17
-1.06835e-17
1.07954e-17
1.97829e-17
-1.68478e-17
-1.97347e-17
3.57427e-17
1.24298e-16
1.61188e-16
1.33341e-16
9.59302e-17
9.77811e-17
1.26725e-16
5.86332e-17
-6.37861e-17
-8.27648e-17
-1.63722e-17
8.03445e-18
4.91945e-18
1.18345e-18
9.81409e-20
-2.26665e-20
2.12435e-21
1.24128e-20
9.53364e-21
4.95123e-21
2.09329e-21
7.70973e-22
2.55747e-22
7.78919e-23
2.20528e-23
5.85476e-24
1.46723e-24
3.48942e-25
7.91181e-26
1.7174e-26
2.92923e-27
1.11251e-33
-4.17005e-28
3.42984e-25
1.62939e-24
-3.06063e-22
1.90495e-21
1.63227e-20
-2.5923e-19
-2.40807e-19
2.07432e-18
3.64667e-18
-1.43452e-18
-2.9451e-17
-7.06152e-17
-5.76386e-17
-3.75662e-19
4.68202e-17
1.34389e-18
2.78296e-17
9.03004e-17
2.27276e-16
2.65257e-16
1.89559e-16
1.11318e-16
1.41787e-16
2.41334e-16
1.68827e-16
-7.99523e-17
-1.62709e-16
-2.74813e-17
2.2156e-17
1.09368e-17
2.13013e-18
3.68494e-20
-8.40724e-20
-8.07489e-22
2.38306e-20
1.80417e-20
9.11501e-21
3.76061e-21
1.35725e-21
4.42742e-22
1.32966e-22
3.71973e-23
9.77265e-24
2.42618e-24
5.72032e-25
1.2864e-25
2.77016e-26
4.76334e-27
9.65127e-32
-1.16449e-26
5.20163e-24
9.75186e-23
-3.1959e-21
6.94924e-21
3.40432e-19
-1.08755e-18
-2.13839e-18
5.17565e-18
1.12253e-17
7.20173e-18
-6.88338e-17
-2.25293e-16
-2.04744e-16
-7.17195e-17
8.28286e-17
7.7913e-17
2.67871e-16
1.99512e-16
3.77277e-16
4.2955e-16
2.39663e-16
3.20064e-17
1.733e-16
4.02173e-16
4.22056e-16
-6.68113e-17
-3.2642e-16
-5.36048e-17
5.55808e-17
2.28799e-17
3.30698e-18
-3.12381e-19
-2.39114e-19
-7.5961e-21
4.56495e-20
3.33755e-20
1.62864e-20
6.53386e-21
2.30632e-21
7.39048e-22
2.18745e-22
6.04523e-23
1.57164e-23
3.86559e-24
9.03665e-25
2.01591e-25
4.30732e-26
7.4599e-27
8.19214e-30
-3.15719e-25
6.9704e-23
2.52003e-21
-2.81628e-20
-1.42089e-20
3.43476e-18
-3.50102e-18
-1.51865e-17
6.14474e-18
2.59425e-17
8.35287e-17
-1.08478e-16
-6.64471e-16
-5.23428e-16
-3.36864e-16
9.88605e-17
2.80356e-16
1.3264e-15
3.52672e-16
6.22256e-16
7.89238e-16
2.7324e-16
-5.86515e-16
1.54923e-16
5.56579e-16
1.0476e-15
3.42768e-17
-6.72033e-16
-1.34304e-16
1.33622e-16
4.54139e-17
3.86113e-18
-1.43212e-18
-5.77516e-19
-1.36949e-20
8.81605e-20
6.04938e-20
2.82466e-20
1.09696e-20
3.77785e-21
1.1877e-21
3.46237e-22
9.45012e-23
2.43101e-23
5.924e-24
1.37319e-24
3.03897e-25
6.44308e-26
1.12281e-26
7.01606e-28
-8.19314e-24
7.21063e-22
5.06426e-20
-1.96271e-19
-6.53584e-19
2.70783e-17
-6.31459e-18
-1.00092e-16
-3.18896e-17
4.51489e-17
6.62592e-16
-1.95197e-16
-4.60218e-15
-2.3953e-15
-1.54443e-15
4.52421e-17
1.62392e-15
4.70972e-15
1.33726e-15
1.62826e-14
2.09733e-15
-4.14592e-14
-5.29013e-15
7.9433e-17
3.79048e-15
3.44707e-15
3.42144e-16
-2.08763e-15
-4.33576e-16
3.2232e-16
8.56712e-17
8.35633e-19
-4.33415e-18
-1.22122e-18
6.36742e-21
1.72021e-19
1.07459e-19
4.75086e-20
1.77676e-20
5.95393e-21
1.83386e-21
5.26199e-22
1.41805e-22
3.60927e-23
8.71383e-24
2.00281e-24
4.39688e-25
9.24873e-26
1.6199e-26
6.24515e-26
-1.97243e-22
1.67455e-21
8.64217e-19
-9.37944e-19
-9.37701e-18
2.03121e-16
6.5951e-18
-7.16693e-16
-2.96971e-16
5.68067e-15
3.43804e-15
-4.27181e-14
-3.84983e-14
-5.52888e-14
-7.8067e-15
2.69233e-13
2.53741e-14
5.84786e-15
2.76666e-13
2.00963e-13
-1.42034e-12
-4.37221e-13
-1.67191e-14
1.83678e-13
4.38879e-14
1.24911e-14
7.5187e-16
-1.50537e-14
-1.53897e-15
8.47548e-16
1.51981e-16
-1.41603e-17
-1.08781e-17
-2.25308e-18
1.3474e-19
3.36777e-19
1.86672e-19
7.73211e-20
2.76967e-20
9.005e-21
2.71355e-21
7.65906e-22
2.03751e-22
5.13073e-23
1.22717e-23
2.79636e-24
6.08816e-25
1.27002e-25
2.23253e-26
5.83103e-24
-4.13454e-21
-2.08767e-19
1.27749e-17
-2.06421e-18
-9.73454e-17
2.76854e-15
-7.16148e-15
-3.91308e-15
2.96949e-14
4.91122e-13
-1.10953e-12
-3.28574e-12
-1.64439e-13
-3.10934e-13
1.20222e-11
3.19059e-12
5.14531e-13
-8.42196e-14
2.53336e-12
6.7795e-13
-1.69301e-11
-1.42349e-12
1.35081e-11
1.22808e-12
1.64126e-13
2.43175e-14
-1.78506e-13
-6.84292e-14
-3.13731e-15
2.85682e-15
2.3407e-16
-6.27196e-17
-2.38336e-17
-3.46549e-18
5.80489e-19
6.52382e-19
3.1556e-19
1.21321e-19
4.14081e-20
1.30271e-20
3.83577e-21
1.0645e-21
2.79511e-22
6.96303e-23
1.64961e-23
3.72531e-24
8.0385e-25
1.66147e-25
2.92565e-26
5.52794e-22
-6.37261e-20
-8.99618e-18
2.62069e-16
-1.83864e-15
7.93046e-16
1.83485e-14
-3.33633e-13
-1.20906e-14
2.22493e-12
3.1681e-12
-8.8888e-11
-2.4433e-11
7.49993e-10
5.95127e-10
7.14128e-11
6.88561e-12
4.72335e-12
-3.34654e-10
-1.28854e-10
-7.19235e-10
-6.56543e-11
6.92992e-10
9.62459e-11
1.96248e-12
4.26982e-13
-1.65136e-13
-1.05315e-12
-1.56764e-13
2.799e-14
1.12694e-14
1.35372e-16
-1.95102e-16
-4.52644e-17
-3.71869e-18
1.78979e-18
1.22852e-18
5.1501e-19
1.82506e-19
5.90985e-20
1.79514e-20
5.16056e-21
1.40787e-21
3.64864e-22
8.9904e-23
2.10873e-23
4.71555e-24
1.00718e-24
2.05898e-25
3.62115e-26
4.86588e-20
-7.8119e-20
-2.76066e-16
7.66208e-15
-1.07747e-13
1.02589e-12
-3.0734e-12
-1.58493e-12
1.15019e-11
1.63741e-11
-5.51573e-10
-4.33406e-10
7.98553e-09
8.84212e-09
4.04571e-09
-6.16981e-10
-1.32265e-08
-6.7423e-09
-5.31862e-09
-1.46577e-08
-5.78135e-09
1.93442e-08
5.71935e-09
1.97828e-10
4.90892e-12
7.7177e-13
-1.16514e-11
-3.65042e-12
-9.85922e-14
2.00047e-13
3.1074e-14
-1.07203e-15
-4.9917e-16
-6.88228e-17
2.95557e-19
4.5541e-18
2.20572e-18
8.02473e-19
2.61169e-19
8.00324e-20
2.34479e-20
6.58049e-21
1.76516e-21
4.5151e-22
1.09991e-22
2.55148e-23
5.63978e-24
1.18932e-24
2.39654e-25
4.18897e-26
3.4072e-18
1.10385e-17
-1.51502e-15
2.99458e-14
-4.32801e-13
5.67786e-12
-7.28349e-11
1.81312e-10
6.21761e-10
-2.41909e-09
-1.79694e-08
7.03072e-08
1.20456e-07
2.53942e-08
-2.78016e-07
-7.38404e-07
-4.15159e-07
-6.25867e-08
-1.83626e-08
-5.86533e-08
-1.52487e-08
2.04493e-07
1.54961e-08
-2.21416e-11
1.48559e-11
-7.79793e-11
-6.08171e-11
-6.50848e-12
2.10716e-12
7.62338e-13
3.78678e-14
-4.61756e-15
-1.09008e-15
-6.24901e-17
1.54073e-17
9.94474e-18
3.69639e-18
1.17607e-18
3.51789e-19
1.02065e-19
2.88734e-20
7.91993e-21
2.09022e-21
5.27573e-22
1.26895e-22
2.904e-23
6.32151e-24
1.3095e-24
2.58336e-25
4.4464e-26
1.15669e-15
-2.30814e-14
3.5075e-13
-3.95884e-12
3.32905e-11
-1.35975e-10
-2.89068e-10
3.15406e-09
3.58243e-09
-6.64786e-08
-7.21029e-08
1.0305e-06
4.89837e-07
-7.49678e-06
-1.08344e-05
-4.43727e-06
-1.26441e-06
-1.3078e-07
-6.03574e-08
5.40444e-06
1.01304e-05
7.44e-07
-2.3493e-09
-1.93863e-10
3.3165e-11
-6.32947e-10
-1.85935e-10
1.63236e-12
9.77166e-12
1.67473e-12
-2.49368e-14
-1.95405e-14
-1.85667e-15
5.72695e-17
5.10867e-17
1.86927e-17
5.63774e-18
1.58931e-18
4.39904e-19
1.21525e-19
3.3353e-20
8.96945e-21
2.33121e-21
5.79853e-22
1.37236e-22
3.08135e-23
6.55405e-24
1.3194e-24
2.51112e-25
4.17007e-26
2.32783e-14
-3.11623e-13
4.55142e-12
-5.92205e-11
6.11639e-10
-4.72136e-09
1.5866e-08
1.44392e-08
-1.62615e-07
-3.01479e-07
4.14622e-06
3.46434e-06
-3.43429e-05
-4.84642e-05
-3.45649e-05
-1.35905e-05
0.000420386
0.00156256
0.00156767
0.000675715
7.44995e-05
-3.8856e-08
-8.6318e-09
-1.31843e-09
-3.98108e-09
-2.37939e-09
-2.84976e-10
7.95597e-11
3.08486e-11
1.90942e-12
-2.01503e-13
-6.4711e-14
-1.87185e-15
3.44972e-16
1.10993e-16
2.96115e-17
7.5674e-18
1.92768e-18
5.01989e-19
1.34039e-19
3.60846e-20
9.56638e-21
2.44898e-21
5.97692e-22
1.38036e-22
3.00311e-23
6.13206e-24
1.16965e-24
2.06772e-25
3.12183e-26
4.71831e-14
-2.22108e-13
5.77477e-12
-1.52176e-10
1.77048e-09
-1.79598e-08
1.56125e-07
-2.25005e-07
-2.13319e-06
5.16692e-06
2.55563e-05
-4.48615e-05
-0.000214384
-0.000102882
0.000715197
0.00912068
0.0185173
0.0188003
0.0112472
0.00341175
0.000215339
-8.87713e-08
-3.51325e-08
-2.02777e-08
-2.87695e-08
-5.37889e-09
2.91486e-10
3.3363e-10
6.02015e-11
-7.10211e-13
-8.11806e-13
-1.26781e-13
2.00815e-15
8.21249e-16
1.76433e-16
3.78265e-17
8.49107e-18
2.01854e-18
5.13211e-19
1.36871e-19
3.6887e-20
9.70771e-21
2.43869e-21
5.77024e-22
1.27493e-22
2.60906e-23
4.88559e-24
8.17529e-25
1.1549e-25
1.08627e-26
-1.78875e-11
1.44416e-10
-1.36022e-09
1.04513e-08
-5.5065e-08
1.28695e-07
4.33496e-07
-2.55307e-06
-6.56949e-06
5.68053e-05
4.88358e-05
-0.000817721
-0.000576256
0.00482928
0.0337659
0.0694682
0.0827472
0.0661099
0.0340724
0.00928932
0.000437856
-6.06707e-08
-2.37673e-07
-3.3497e-07
-1.08551e-07
-5.33017e-09
2.79767e-09
1.05056e-09
6.94114e-11
-6.18166e-12
-2.37872e-12
-1.45248e-13
5.44995e-15
1.64416e-15
2.11915e-16
3.54029e-17
7.16094e-18
1.71478e-18
4.66658e-19
1.3261e-19
3.68106e-20
9.63833e-21
2.34111e-21
5.21768e-22
1.05208e-22
1.86556e-23
2.7009e-24
2.33399e-25
-2.94109e-26
-2.08588e-26
-1.513e-10
7.11317e-10
-6.7638e-09
6.11874e-08
-4.92252e-07
2.55747e-06
-5.94216e-06
-9.60064e-06
5.60117e-05
0.000179026
-0.00115876
-0.00315569
0.00358811
0.0591245
0.146376
0.212551
0.210629
0.150652
0.07218
0.0186501
0.00075079
-1.91764e-06
-2.75339e-06
-1.40342e-06
-2.26945e-07
1.50036e-08
1.03194e-08
2.10664e-09
-3.66562e-12
-2.1961e-11
-4.42671e-12
-1.86489e-14
1.93998e-14
2.82728e-15
1.28025e-16
1.33456e-17
2.87045e-18
1.05823e-18
3.99516e-19
1.32375e-19
3.83387e-20
9.81478e-21
2.22489e-21
4.39434e-22
7.13921e-23
7.55426e-24
-4.82478e-25
-5.95985e-25
-2.30013e-25
-6.43504e-26
-4.55614e-10
3.77631e-10
5.11215e-11
4.08697e-08
-9.5772e-07
8.06378e-06
-3.92875e-05
1.00428e-06
0.000457222
-0.000124092
-0.00548858
-0.00563511
0.0563337
0.198407
0.362441
0.440904
0.397753
0.263091
0.119658
0.0297779
0.00105228
-1.30525e-05
-1.04557e-05
-3.60576e-06
-2.6926e-07
5.52044e-08
2.69113e-08
2.95633e-09
-1.4275e-10
-6.11628e-11
-5.10114e-12
1.6235e-13
5.57251e-14
2.48215e-15
-1.29237e-16
-2.77608e-17
-3.04945e-18
4.6586e-19
4.07864e-19
1.54702e-19
4.45199e-20
1.0648e-20
2.12845e-21
3.30059e-22
2.50634e-23
-7.45971e-24
-4.69223e-24
-1.66629e-24
-4.82704e-25
-1.18553e-25
2.97791e-09
-2.76302e-08
2.40806e-07
-1.52414e-06
6.43997e-06
1.35834e-06
-0.000104538
0.000338819
0.00115588
-0.00492999
-0.0132979
0.0240098
0.176875
0.429706
0.65557
0.713193
0.594317
0.369919
0.16088
0.0384402
0.00114661
-4.17033e-05
-2.75705e-05
-6.65251e-06
1.64679e-08
1.63207e-07
4.98979e-08
1.5787e-09
-4.42478e-10
-1.09056e-10
-2.1232e-12
4.69796e-13
8.57836e-14
-1.16041e-15
-4.22224e-16
-6.42566e-17
-6.08883e-18
7.3553e-19
6.1761e-19
2.15862e-19
5.66478e-20
1.20333e-20
1.97602e-21
1.72969e-22
-3.77355e-23
-2.68903e-23
-9.9299e-24
-2.95255e-24
-7.77028e-25
-1.80634e-25
3.30972e-07
-1.22795e-07
5.68645e-07
-4.1035e-06
2.9788e-05
-0.000131877
-0.000103487
0.00148838
-0.000894617
-0.0158631
-0.0138585
0.0995472
0.364452
0.705457
0.938406
0.933928
0.729716
0.42802
0.17766
0.0399026
0.000763521
-0.000109097
-5.5831e-05
-8.37572e-06
6.66249e-07
3.76401e-07
6.2383e-08
-2.49424e-09
-1.08816e-09
-1.11463e-10
3.56192e-12
1.13989e-12
3.6296e-14
-6.70214e-15
-8.97091e-16
-6.75446e-17
-1.10519e-18
2.55974e-18
1.08651e-18
3.11552e-19
7.11842e-20
1.28935e-20
1.52125e-21
-7.78742e-23
-1.23784e-22
-5.13201e-23
-1.61208e-23
-4.39904e-24
-1.09413e-24
-2.45774e-25
2.08215e-06
-1.34291e-06
-1.77978e-06
2.04533e-05
-1.40447e-06
-0.000376482
0.00119701
0.00262503
-0.011001
-0.0288977
0.0248545
0.226638
0.571178
0.929144
1.09828
1.02495
0.748619
0.416037
0.159291
0.0306697
-0.000102338
-0.000248477
-8.47961e-05
-4.89714e-06
1.48347e-06
5.77091e-07
3.90334e-08
-4.99325e-09
-1.4814e-09
-4.52214e-11
9.003e-12
1.40343e-12
-8.44267e-14
-1.86669e-14
-5.88272e-16
1.65665e-17
1.47996e-17
5.78217e-18
1.68163e-18
4.00882e-19
7.82771e-20
1.11878e-20
3.96925e-22
-4.77591e-22
-2.38848e-22
-8.06576e-23
-2.29877e-23
-5.90209e-24
-1.40522e-24
-3.07186e-25
-9.00682e-07
-1.69759e-05
9.95085e-06
0.000112669
-0.000532867
0.000141627
0.00494382
-0.00222655
-0.0329612
-0.0322198
0.0856455
0.356136
0.717402
1.01608
1.09979
0.949139
0.636714
0.316432
0.103192
0.0126287
-0.000809477
-0.000465689
-9.33106e-05
3.64984e-06
2.82312e-06
5.78713e-07
-1.72525e-08
-9.48904e-09
-9.59739e-10
9.15609e-11
2.07077e-11
-3.70175e-13
-2.48324e-13
-2.15042e-14
3.08017e-16
1.0648e-16
3.18786e-17
8.59522e-18
2.04011e-18
4.12778e-19
6.49666e-20
4.80062e-21
-1.6834e-21
-1.05008e-21
-3.80463e-22
-1.12992e-22
-2.98973e-23
-7.29543e-24
-1.67172e-24
-3.56636e-25
-5.00659e-05
-8.01025e-05
0.000235266
-1.97776e-05
-0.00178126
0.00273354
0.00931984
-0.0137232
-0.0550094
-0.0282788
0.14066
0.427323
0.744263
0.941702
0.924174
0.722944
0.428062
0.177073
0.0384106
-0.00221245
-0.00182346
-0.000577203
-3.22397e-05
1.08873e-05
3.55612e-06
1.5687e-07
-4.99929e-08
-1.05512e-08
6.16406e-10
2.19509e-10
1.05866e-11
-2.57745e-12
-5.02091e-13
-9.15458e-17
5.40648e-16
1.51139e-16
3.78756e-17
8.78793e-18
1.78903e-18
2.89728e-19
2.38351e-20
-6.82766e-21
-4.63716e-21
-1.74111e-21
-5.31121e-22
-1.43775e-22
-3.58029e-23
-8.35753e-24
-1.84976e-24
-3.85751e-25
-8.27206e-05
0.00011674
0.000884188
-0.00107912
-0.00323113
0.00720764
0.0118522
-0.0261505
-0.0692394
-0.0229664
0.152488
0.409198
0.634691
0.718529
0.643664
0.440781
0.212365
0.0557869
-0.00621665
-0.00679091
-0.00280786
-0.000328541
5.12544e-05
1.70853e-05
8.54495e-07
-4.14589e-07
-8.64196e-08
5.24054e-09
2.62079e-09
3.04587e-10
-1.64397e-11
-5.16952e-12
-1.94749e-13
5.33834e-15
8.84595e-16
1.39871e-16
2.93375e-17
5.77429e-18
8.84201e-19
4.36057e-20
-3.81003e-20
-2.13773e-20
-7.83903e-21
-2.401e-21
-6.57969e-22
-1.66297e-22
-3.94199e-23
-8.85756e-24
-1.90051e-24
-3.88136e-25
0.000429359
0.000890346
0.00114468
-0.00394203
-0.00421533
0.0123039
0.0137458
-0.0306335
-0.0689882
-0.0247791
0.105287
0.27272
0.411287
0.427221
0.341316
0.185919
0.0487998
-0.0160678
-0.0172312
-0.00794825
-0.00132605
0.000185854
6.90147e-05
4.82895e-06
-2.59675e-06
-7.9336e-07
-1.53719e-09
1.69492e-08
3.95959e-09
9.7767e-12
-2.44782e-11
-4.29823e-12
6.12747e-14
1.30079e-14
4.60639e-16
4.65523e-17
8.9229e-18
8.25299e-19
-3.09811e-19
-2.33706e-19
-9.92358e-20
-3.40458e-20
-1.02775e-20
-2.8282e-21
-7.23145e-22
-1.73896e-22
-3.96642e-23
-8.63653e-24
-1.80424e-24
-3.61743e-25
-0.00144253
-0.000971531
-0.0021194
-0.00774786
-0.00229088
0.0188882
0.018604
-0.0206095
-0.0502916
-0.034499
0.019628
0.0991857
0.162046
0.158614
0.0904736
0.00609925
-0.0388586
-0.0320269
-0.0143169
-0.00215539
0.000776836
0.000288149
3.92338e-05
-9.97861e-06
-4.45406e-06
-5.6251e-07
6.43135e-08
2.50328e-08
1.62997e-09
-1.5472e-10
-3.87499e-11
-8.45328e-13
1.2406e-13
1.22884e-14
-2.22226e-16
-4.33577e-17
-1.05264e-17
-3.43442e-18
-1.22489e-18
-4.21128e-19
-1.34695e-19
-3.9953e-20
-1.10465e-20
-2.86549e-21
-7.01726e-22
-1.63136e-22
-3.61823e-23
-7.68965e-24
-1.57201e-24
-3.10417e-25
-0.00446225
-0.00309852
-0.00358803
-0.00439737
0.00690259
0.025653
0.0242298
0.000894085
-0.0216534
-0.0357694
-0.0372978
-0.0180578
-0.00446109
-0.0211191
-0.0547814
-0.067705
-0.0472456
-0.0174465
8.15128e-05
0.00342018
0.00144227
0.00024515
-3.39423e-05
-1.98352e-05
-4.50465e-06
1.01914e-07
8.63683e-08
1.42238e-08
-7.33407e-10
-2.15954e-10
-3.29937e-12
2.31673e-12
3.4307e-13
-4.93214e-15
-7.41353e-16
-9.41525e-17
-1.88395e-17
-4.88993e-18
-1.45212e-18
-4.43132e-19
-1.3135e-19
-3.70307e-20
-9.87526e-21
-2.49225e-21
-5.9683e-22
-1.36092e-22
-2.96575e-23
-6.19922e-24
-1.24722e-24
-2.43511e-25
0.00815132
0.00968859
0.0100315
0.00994249
0.0152815
0.0224834
0.0207853
0.0139861
0.00249309
-0.0182915
-0.0359295
-0.0427756
-0.05479
-0.071326
-0.0714552
-0.0468529
-0.0113606
0.00848514
0.0102327
0.00504118
0.00112255
-6.47462e-05
-5.57319e-05
-1.83421e-05
-5.11504e-07
4.10355e-07
1.16827e-07
3.24952e-09
-4.42698e-10
-4.90498e-11
1.98529e-11
4.29121e-12
-3.24947e-15
-6.17038e-15
-5.31997e-16
-5.05344e-17
-1.05495e-17
-3.06436e-18
-9.91297e-19
-3.16865e-19
-9.60478e-20
-2.73505e-20
-7.31928e-21
-1.84648e-21
-4.40826e-22
-9.9997e-23
-2.16396e-23
-4.48486e-24
-8.93501e-25
-1.73265e-25
0.0106208
0.011334
0.0107681
0.00815196
0.005733
0.00323947
0.00362959
0.00893001
0.00951719
0.00321731
-0.00319533
-0.0138665
-0.028126
-0.0329541
-0.0169932
0.00926118
0.0239509
0.0205422
0.0108067
0.00306079
5.19208e-05
-9.4656e-05
-4.7958e-05
-4.14515e-06
1.77242e-06
5.59861e-07
2.4321e-08
-3.46659e-09
-7.14734e-10
1.02542e-10
2.79492e-11
9.15877e-13
-5.58813e-14
-6.29605e-15
2.1321e-16
3.69129e-17
4.71912e-18
1.95298e-20
-2.88508e-19
-1.42384e-19
-5.11705e-20
-1.58511e-20
-4.44667e-21
-1.15371e-21
-2.80079e-22
-6.41213e-23
-1.39294e-23
-2.88627e-24
-5.73095e-25
-1.10915e-25
0.0032
0.00311889
0.00205426
-0.000132506
-0.00363521
-0.00712059
-0.0062278
-0.00142347
0.00285533
0.00788653
0.0119336
0.00931042
0.00378696
0.00813694
0.0221597
0.0308039
0.0261548
0.0148627
0.00510935
0.000535759
-0.000109221
-4.60575e-05
5.75079e-07
4.52723e-06
1.42685e-06
-7.93864e-08
-2.70966e-08
-2.6319e-09
7.19219e-10
1.76232e-10
2.39592e-12
-6.62563e-13
-1.09017e-13
5.91019e-15
8.44599e-16
8.87329e-17
1.21851e-17
1.53179e-18
1.05221e-19
-2.98797e-20
-1.92612e-20
-7.18341e-21
-2.21094e-21
-6.06044e-22
-1.52351e-22
-3.56694e-23
-7.85642e-24
-1.64023e-24
-3.26583e-25
-6.33822e-26
-0.00185401
-0.00231358
-0.0027903
-0.00269068
-0.00292337
-0.00302984
-0.00265796
-0.00317556
-0.00284053
0.0012985
0.0052199
0.00440656
0.00337187
0.00795576
0.0147125
0.0142937
0.00952676
0.00404299
0.000887976
6.6689e-05
0.000101901
5.62608e-05
1.25195e-05
-5.2773e-07
-9.85343e-07
-2.39942e-07
-5.78808e-09
2.67209e-09
6.7857e-10
-5.22057e-11
-1.38456e-11
-7.11632e-13
6.68993e-14
1.1147e-14
2.12845e-16
1.28468e-17
1.87086e-18
2.2652e-19
3.03334e-21
-1.38761e-20
-7.59257e-21
-2.94141e-21
-9.56462e-22
-2.75045e-22
-7.17699e-23
-1.72712e-23
-3.87802e-24
-8.19882e-25
-1.64425e-25
-3.21189e-26
-0.000742802
-0.000820957
-0.000619813
0.00012158
0.00125779
0.00234894
0.00218153
-3.85495e-05
-0.00161732
-0.000427786
-0.000272315
-0.00377053
-0.00811406
-0.00837198
-0.00557009
-0.0020439
-0.00012299
0.000604912
0.000717208
0.000537944
0.00020628
2.78278e-05
-9.17518e-06
-3.80131e-06
-4.10217e-07
1.13654e-07
3.22164e-08
1.42118e-09
-4.39215e-10
-1.1337e-10
-3.77401e-12
3.61383e-13
7.11924e-14
-2.08876e-15
-3.35141e-16
-4.85284e-17
-7.96985e-18
-1.30357e-18
-2.09738e-19
-3.50996e-20
-6.79663e-21
-1.6098e-21
-4.31764e-22
-1.17447e-22
-3.05076e-23
-7.42254e-24
-1.68901e-24
-3.611e-25
-7.29795e-26
-1.43662e-26
0.000580987
0.000688904
0.000791782
0.000743575
0.000543064
0.0006936
0.000675854
-0.000480616
-0.000571996
0.0021763
0.0036009
-0.00102298
-0.00816463
-0.0105755
-0.00733306
-0.00209352
0.00111694
0.00181371
0.00132894
0.000536967
7.32323e-05
-2.21132e-05
-9.07499e-06
-9.97889e-07
2.869e-07
9.14297e-08
5.13743e-09
-9.50802e-10
-1.82237e-10
2.9648e-11
6.8715e-12
1.8847e-13
-3.31262e-14
-5.95786e-15
-3.05587e-16
-3.94526e-17
-6.97264e-18
-1.21763e-18
-2.0684e-19
-3.44503e-20
-5.82942e-21
-1.06744e-21
-2.21956e-22
-5.13331e-23
-1.23451e-23
-2.91819e-24
-6.59262e-25
-1.41051e-25
-2.85786e-26
-5.65437e-27
-0.000284944
-0.000298421
-0.000383508
-0.000968666
-0.00171868
-0.00116758
-0.0009303
-0.00298793
-0.00289134
0.00273379
0.00670563
0.00333601
-0.00313448
-0.00461046
-0.00166949
0.00166611
0.002583
0.00189736
0.000778621
0.000134535
-2.20728e-05
-4.91516e-06
1.59875e-06
6.89588e-07
6.17747e-08
-3.61302e-08
-1.16132e-08
-6.90533e-10
1.18211e-10
3.26909e-11
1.01947e-12
-1.05853e-13
-2.40631e-14
-5.65088e-16
2.79972e-17
2.40899e-18
-3.4066e-19
-2.03882e-19
-5.83014e-20
-1.31929e-20
-2.65851e-21
-5.13976e-22
-1.01669e-22
-2.13465e-23
-4.71611e-24
-1.05691e-24
-2.32158e-25
-4.90016e-26
-9.86183e-27
-1.94917e-27
-5.09862e-05
-6.87958e-05
-0.000638476
-0.00357443
-0.00520261
-0.0020992
-0.000882925
-0.00495736