/*--------------------------------*- C++ -*----------------------------------*\
| =========                 |                                                 |
| \\      /  F ield         | OpenFOAM: The Open Source CFD Toolbox           |
|  \\    /   O peration     | Version:  v2006                                 |
|   \\  /    A nd           | Website:  www.openfoam.com                      |
|    \\/     M anipulation  |                                                 |
\*---------------------------------------------------------------------------*/
FoamFile
{
    version     2.0;
    format      ascii;
    class       volScalarField;
    location    "9.5";
    object      r;
}
// * * * * * * * * * * * * * * * * * * * * * * * * * * * * * * * * * * * * * //

dimensions      [1 2 0 0 0 0 0];


internalField   nonuniform List<scalar> 
350
(
-6.53316e-181
-1.05982e-177
-1.69168e-174
-2.65953e-171
-4.1163e-168
-6.26946e-165
-9.39222e-162
-1.38327e-158
-2.00178e-155
-2.84487e-152
-3.96817e-149
-5.42921e-146
-7.28148e-143
-9.5663e-140
-1.23025e-136
-1.54753e-133
-1.90248e-130
-2.28382e-127
-2.67461e-124
-3.05272e-121
-3.39219e-118
-3.66558e-115
-3.84719e-112
-3.91658e-109
-3.862e-106
-3.68285e-103
-3.39068e-100
-3.00829e-97
-2.56685e-94
-2.10166e-91
-1.64714e-88
-1.23229e-85
-8.77354e-83
-5.92394e-80
-3.77847e-77
-2.2664e-74
-1.27181e-71
-6.63638e-69
-3.19703e-66
-1.40965e-63
-5.62878e-61
-2.00842e-58
-6.29353e-56
-1.6916e-53
-3.76944e-51
-6.59534e-49
-8.17191e-47
-5.34555e-45
1.42001e-43
4.76774e-41
1.3925e-39
2.10512e-38
2.10685e-37
1.5272e-36
8.15411e-36
2.91733e-35
2.42441e-35
-6.28266e-34
-6.48937e-33
-4.3016e-32
-2.29246e-31
-1.04702e-30
-4.1995e-30
-1.49086e-29
-4.66941e-29
-1.26882e-28
-2.85645e-28
-4.5672e-28
-6.36171e-29
3.30374e-27
1.74789e-26
6.42945e-26
1.97946e-25
5.40586e-25
1.34526e-24
3.09844e-24
6.67653e-24
1.35763e-23
2.62526e-23
4.86208e-23
8.6795e-23
1.50095e-22
2.52183e-22
4.11877e-22
6.52841e-22
1.0016e-21
1.48512e-21
2.13463e-21
3.01345e-21
4.30584e-21
6.53151e-21
1.09831e-20
2.05159e-20
4.08421e-20
8.24831e-20
1.63502e-19
3.13047e-19
5.75621e-19
1.01579e-18
1.72301e-18
2.8161e-18
4.4457e-18
6.79069e-18
1.00382e-17
1.44045e-17
2.02039e-17
2.77966e-17
3.74265e-17
4.89422e-17
6.2044e-17
7.70055e-17
9.40391e-17
1.13659e-16
1.30627e-16
1.37344e-16
1.39741e-16
4.53772e-17
1.50679e-16
-8.14297e-17
-1.2515e-15
-9.68335e-16
-4.19176e-15
-8.66987e-15
1.72166e-15
-2.28257e-14
8.97354e-16
-3.23492e-14
-1.72027e-14
-1.73993e-14
1.45838e-14
-2.68739e-16
2.01551e-13
-2.60989e-13
6.12228e-13
-2.98288e-13
9.06309e-13
-7.02654e-13
5.71425e-13
-9.3238e-13
1.32535e-12
1.33713e-12
1.74278e-12
1.05044e-11
1.88081e-11
2.20285e-11
2.75522e-11
-1.21956e-11
2.79936e-11
-2.74625e-10
-1.6397e-10
-6.62491e-10
-1.56128e-09
-1.35918e-09
-4.4079e-09
-3.79622e-09
-1.02809e-08
-1.14467e-08
-1.35561e-08
-3.09132e-08
-2.68746e-08
-5.71877e-08
-4.1778e-08
-6.66906e-08
-7.83448e-08
-2.03634e-08
-2.22081e-07
-1.57937e-07
-6.50162e-07
-7.19074e-07
-7.90092e-07
-8.33773e-07
-9.23471e-07
-2.49082e-06
-1.08336e-05
-1.03215e-05
1.14101e-05
9.12451e-05
0.000305762
0.000797839
0.00181475
0.00375857
0.00724844
0.0131919
0.0228605
0.0379609
0.0606919
0.0937754
0.140448
0.204407
0.289694
0.400532
0.541098
0.71527
0.926339
1.17673
1.46775
1.79938
2.17016
2.57715
3.01596
3.48096
3.96548
4.46213
4.96311
5.46067
5.94733
6.4163
6.86167
7.27863
7.66356
8.01407
8.32895
8.60809
8.85234
9.06333
9.24329
9.39489
9.52104
9.62473
9.70894
9.77652
9.83007
9.87198
9.90433
9.92867
9.94732
9.95867
9.97291
9.97553
9.97468
9.96867
9.95622
9.93541
9.90373
9.85808
9.79488
9.71015
9.59973
9.45946
9.28549
9.07455
8.82421
8.53317
8.20146
7.83054
7.42336
6.98433
6.51908
6.03431
5.53743
5.03622
4.53848
4.05167
3.58261
3.13719
2.72023
2.33534
1.98492
1.67015
1.39113
1.14701
0.936152
0.756309
0.604819
0.47877
0.375152
0.290986
0.223423
0.169818
0.127774
0.0951739
0.0701801
0.0512315
0.0370248
0.0264902
0.0187635
0.0131577
0.00913438
0.00627776
0.00427116
0.00287665
0.00191783
0.00126557
0.000826573
0.000534266
0.000341714
0.000216239
0.000135362
8.38021e-05
5.1298e-05
3.1038e-05
1.85553e-05
1.0955e-05
6.38374e-06
3.66883e-06
2.0776e-06
1.15784e-06
6.33959e-07
3.40341e-07
1.78413e-07
9.12436e-08
4.48483e-08
2.16993e-08
9.09156e-09
3.80066e-09
1.02995e-10
3.7626e-11
1.58747e-13
7.80127e-14
8.11891e-15
1.4801e-15
-5.68479e-15
-1.07958e-14
-1.37299e-14
-1.5149e-14
-1.56709e-14
-1.56032e-14
-1.50977e-14
-1.42149e-14
-1.30865e-14
-1.17885e-14
-1.03733e-14
-8.88692e-15
-7.35101e-15
-5.79466e-15
-4.24076e-15
-2.71701e-15
-1.2511e-15
1.29818e-16
1.40153e-15
2.54476e-15
3.54613e-15
4.39853e-15
5.10054e-15
5.65546e-15
6.06998e-15
6.3532e-15
6.51547e-15
6.56733e-15
6.51586e-15
6.3614e-15
6.10611e-15
5.75532e-15
5.31621e-15
4.79868e-15
4.21471e-15
3.5787e-15
2.8997e-15
2.22454e-15
1.41579e-15
)
;

boundaryField
{
    right
    {
        type            zeroGradient;
    }
    left
    {
        type            inletOutlet;
        inletValue      uniform 0;
        value           uniform 0;
    }
    top
    {
        type            zeroGradient;
    }
    bottom
    {
        type            zeroGradient;
    }
    empty
    {
        type            empty;
    }
}


// ************************************************************************* //
