/*--------------------------------*- C++ -*----------------------------------*\
| =========                 |                                                 |
| \\      /  F ield         | OpenFOAM: The Open Source CFD Toolbox           |
|  \\    /   O peration     | Version:  v2006                                 |
|   \\  /    A nd           | Website:  www.openfoam.com                      |
|    \\/     M anipulation  |                                                 |
\*---------------------------------------------------------------------------*/
FoamFile
{
    version     2.0;
    format      ascii;
    class       surfaceScalarField;
    location    "15.1";
    object      alphaPhi0.water;
}
// * * * * * * * * * * * * * * * * * * * * * * * * * * * * * * * * * * * * * //

dimensions      [0 3 -1 0 0 0 0];
oriented        oriented;


internalField   nonuniform List<scalar> 
104500
(
1.74415e-05
-1.74415e-05
4.10957e-05
-2.36542e-05
6.3294e-05
-2.21983e-05
8.43683e-05
-2.10743e-05
0.00010517
-2.08022e-05
0.000125894
-2.07235e-05
0.000146576
-2.06823e-05
0.000167184
-2.06077e-05
0.000187668
-2.04844e-05
0.000207991
-2.0323e-05
0.000228124
-2.01326e-05
0.000248043
-1.99191e-05
0.000267725
-1.96816e-05
0.000287142
-1.94177e-05
0.000306269
-1.9127e-05
0.000325076
-1.88063e-05
0.00034353
-1.84548e-05
0.000361599
-1.80687e-05
0.000379245
-1.76456e-05
0.000396428
-1.71833e-05
0.000413111
-1.66834e-05
0.000429262
-1.61504e-05
0.000444854
-1.55924e-05
0.000459875
-1.50207e-05
0.000474312
-1.44376e-05
0.000488158
-1.3846e-05
0.000501407
-1.32484e-05
0.000514052
-1.26453e-05
0.00052609
-1.20378e-05
0.000537515
-1.14252e-05
0.000548322
-1.0807e-05
0.000558498
-1.01755e-05
0.000568024
-9.52668e-06
0.000576882
-8.85734e-06
0.000585051
-8.16988e-06
0.000592523
-7.47138e-06
0.000599294
-6.77092e-06
0.000605369
-6.07564e-06
0.000610754
-5.38449e-06
0.00061544
-4.68617e-06
0.000619398
-3.95771e-06
0.000622576
-3.17819e-06
0.000624918
-2.34246e-06
0.00062639
-1.47134e-06
0.000626998
-6.08403e-07
0.000626776
2.22619e-07
0.000625894
8.81883e-07
0.000624557
1.33714e-06
0.000622975
1.5818e-06
0.000621368
1.60669e-06
0.000619924
1.44403e-06
0.000618793
1.13129e-06
0.000618077
7.15536e-07
0.000617833
2.44247e-07
0.000618088
-2.55488e-07
0.000618883
-7.94638e-07
0.000620206
-1.32304e-06
0.00062205
-1.84401e-06
0.000624421
-2.37125e-06
0.000627328
-2.90706e-06
0.000630802
-3.47325e-06
0.000634884
-4.08273e-06
0.000639607
-4.72227e-06
0.000644998
-5.39112e-06
0.000651076
-6.07798e-06
0.000657853
-6.77765e-06
0.000665334
-7.48077e-06
0.000673522
-8.18742e-06
0.000682414
-8.8926e-06
0.000692014
-9.59963e-06
0.00070232
-1.03063e-05
0.000713331
-1.10108e-05
0.000725044
-1.17135e-05
0.000737458
-1.24139e-05
0.000750559
-1.31007e-05
0.000764332
-1.37733e-05
0.000778759
-1.44263e-05
0.000793817
-1.50588e-05
0.000809478
-1.56601e-05
0.00082571
-1.62321e-05
0.000842489
-1.67799e-05
0.000859784
-1.72946e-05
0.000877566
-1.77818e-05
0.000895812
-1.82459e-05
0.000914499
-1.8687e-05
0.000933606
-1.91075e-05
0.000953118
-1.95117e-05
0.000973015
-1.98973e-05
0.000993283
-2.02682e-05
0.00101391
-2.06285e-05
0.00103489
-2.09824e-05
0.00105623
-2.13321e-05
0.00107791
-2.16848e-05
0.00109995
-2.204e-05
0.00112235
-2.23952e-05
0.00114509
-2.27421e-05
0.00116816
-2.30691e-05
0.00119152
-2.33648e-05
0.00121514
-2.3621e-05
0.00123898
-2.38346e-05
0.00126299
-2.40087e-05
0.00128714
-2.41529e-05
0.00131142
-2.4277e-05
0.00133581
-2.43911e-05
0.00136031
-2.45008e-05
0.00138492
-2.46092e-05
0.00140964
-2.47175e-05
0.00143446
-2.48258e-05
0.0014594
-2.49348e-05
0.00148444
-2.50428e-05
0.00150959
-2.51494e-05
0.00153484
-2.52539e-05
0.0015602
-2.53566e-05
0.00158565
-2.54554e-05
0.0016112
-2.55506e-05
0.00163685
-2.56415e-05
0.00166257
-2.57267e-05
0.00168838
-2.58062e-05
0.00171426
-2.58793e-05
0.0017402
-2.59453e-05
0.00176621
-2.60039e-05
0.00179226
-2.6054e-05
0.00181836
-2.60949e-05
0.00184448
-2.61259e-05
0.00187063
-2.6146e-05
0.00189678
-2.61547e-05
0.00192293
-2.61511e-05
0.00194907
-2.61353e-05
0.00197518
-2.61078e-05
0.00200125
-2.60699e-05
0.00202727
-2.60246e-05
0.00205325
-2.59758e-05
0.00207918
-2.59288e-05
0.00210507
-2.58889e-05
0.00213093
-2.58599e-05
0.00215677
-2.58426e-05
0.0021826
-2.58331e-05
0.00220842
-2.58219e-05
0.00223422
-2.57937e-05
0.00225995
-2.573e-05
0.00228556
-2.56113e-05
0.00231098
-2.54205e-05
0.00233612
-2.51454e-05
0.0023609
-2.47805e-05
0.00238523
-2.43279e-05
0.00240903
-2.37951e-05
0.00243222
-2.31928e-05
0.00245475
-2.25314e-05
0.00247657
-2.18167e-05
0.00249762
-2.10474e-05
0.00251783
-2.02127e-05
0.00253712
-1.92944e-05
0.00255539
-1.8271e-05
0.00257252
-1.71254e-05
0.00258837
-1.58527e-05
0.00260284
-1.4468e-05
0.00261585
-1.30075e-05
0.00262737
-1.15237e-05
0.00263745
-1.00765e-05
0.00264617
-8.7245e-06
0.00265369
-7.52053e-06
0.0026602
-6.5127e-06
0.00266595
-5.74611e-06
0.00267121
-5.26143e-06
0.0026763
-5.0868e-06
0.00268153
-5.22676e-06
0.00268718
-5.65295e-06
0.00269348
-6.30252e-06
0.00270057
-7.08486e-06
0.00270846
-7.89703e-06
0.0027171
-8.64142e-06
0.00272635
-9.24441e-06
0.00273601
-9.66433e-06
0.00274591
-9.89404e-06
0.00275586
-9.95415e-06
0.00276574
-9.88278e-06
0.00277547
-9.72422e-06
0.00278499
-9.52109e-06
0.0027943
-9.30889e-06
0.00280341
-9.11433e-06
0.00281237
-8.95511e-06
0.00282121
-8.8421e-06
0.00282999
-8.78083e-06
0.00283876
-8.7724e-06
0.00284758
-8.81489e-06
0.00285648
-8.90307e-06
0.00286551
-9.02816e-06
0.00287469
-9.17608e-06
0.00288401
-9.32797e-06
0.00289347
-9.45965e-06
0.00290302
-9.54391e-06
0.00291257
-9.55361e-06
0.00292204
-9.46554e-06
0.0029313
-9.26348e-06
0.00294024
-8.9403e-06
0.00294874
-8.49851e-06
0.00295669
-7.94804e-06
0.00296399
-7.30567e-06
0.00297059
-6.59319e-06
0.00297642
-5.83481e-06
0.00298148
-5.05969e-06
0.00298577
-4.29464e-06
0.00298934
-3.56555e-06
0.00299223
-2.89194e-06
0.00299451
-2.27815e-06
0.00299624
-1.72839e-06
0.00299748
-1.23808e-06
0.00299827
-7.94096e-07
0.00299865
-3.80233e-07
0.00299858
6.68716e-08
0.00299809
4.90141e-07
0.00299719
9.05899e-07
0.00299586
1.33041e-06
0.00299409
1.76566e-06
0.00299188
2.21026e-06
0.00298922
2.66228e-06
0.0029861
3.12005e-06
0.00298252
3.58229e-06
0.00297847
4.04837e-06
0.00297395
4.51807e-06
0.00296896
4.99158e-06
0.00296349
5.46902e-06
0.00295754
5.95006e-06
0.00295111
6.43419e-06
0.00294418
6.92133e-06
0.00293677
7.41149e-06
0.00292887
7.90429e-06
0.00292047
8.3991e-06
0.00291157
8.89553e-06
0.00290218
9.39363e-06
0.00289229
9.8934e-06
0.00288189
1.03947e-05
0.00287099
1.08975e-05
0.00285959
1.14022e-05
0.00284768
1.1909e-05
0.00283527
1.24178e-05
0.00282234
1.29289e-05
0.00280889
1.34435e-05
0.00279493
1.39623e-05
0.00278044
1.44862e-05
0.00276543
1.50166e-05
0.00274987
1.55551e-05
0.00273377
1.61034e-05
0.00271711
1.66648e-05
0.00269986
1.72433e-05
0.00268202
1.78431e-05
0.00266355
1.84667e-05
0.00264444
1.9115e-05
0.00262465
1.9786e-05
0.00260417
2.04759e-05
0.00258299
2.11806e-05
0.0025611
2.18972e-05
0.00253847
2.26248e-05
0.00251511
2.33637e-05
0.002491
2.41135e-05
0.00246612
2.48725e-05
0.00244048
2.56379e-05
0.00241408
2.64085e-05
0.00238689
2.7187e-05
0.00235891
2.79822e-05
0.0023301
2.88085e-05
0.00230041
2.96843e-05
0.00226979
3.06284e-05
0.00223813
3.16566e-05
0.00220535
3.27795e-05
0.00217135
3.40021e-05
0.00213602
3.53245e-05
0.00209928
3.67415e-05
0.00206104
3.82424e-05
0.00202123
3.98089e-05
0.00197982
4.14135e-05
0.0019368
4.30177e-05
0.00189223
4.45725e-05
0.0018462
4.60239e-05
0.00179888
4.73274e-05
0.0017504
4.84774e-05
0.00170087
4.95269e-05
0.00165026
5.06109e-05
0.00159854
5.17182e-05
0.00154588
5.2658e-05
0.00149288
5.30063e-05
0.0014407
5.21753e-05
0.00139098
4.97183e-05
0.00134537
4.56113e-05
0.00130501
4.03641e-05
0.00127021
3.47992e-05
0.00124048
2.97264e-05
0.0012148
2.56865e-05
0.00119191
2.28839e-05
0.00117069
2.12263e-05
0.00115025
2.04356e-05
0.00113007
2.01839e-05
0.00110987
2.01985e-05
0.00108959
2.02751e-05
0.0010693
2.02936e-05
0.0010491
2.0195e-05
0.00102913
1.99749e-05
0.00100947
1.96633e-05
0.000990162
1.93044e-05
0.000971216
1.89463e-05
0.000952586
1.86298e-05
0.000934208
1.83782e-05
0.000916007
1.82005e-05
0.00089792
1.80874e-05
0.000879896
1.80236e-05
0.000861903
1.79933e-05
0.000843932
1.79716e-05
0.000825966
1.79657e-05
0.000807993
1.79733e-05
0.000790013
1.79792e-05
0.000772012
1.80013e-05
0.000753972
1.80403e-05
0.00073588
1.80922e-05
0.000717723
1.81566e-05
0.000699486
1.82365e-05
0.000681161
1.83253e-05
0.000662736
1.84254e-05
0.000644203
1.85326e-05
0.000625553
1.86498e-05
0.000606778
1.87756e-05
0.00058787
1.89072e-05
0.000568822
1.90485e-05
0.000549633
1.91894e-05
0.000530294
1.93388e-05
0.000510804
1.949e-05
0.000491155
1.96492e-05
0.000471346
1.98089e-05
0.000451366
1.99794e-05
0.000431216
2.01502e-05
0.0004109
2.03163e-05
0.000390421
2.04784e-05
0.000369792
2.06298e-05
0.000349021
2.07711e-05
0.000328129
2.08919e-05
0.00030714
2.09884e-05
0.000286089
2.1051e-05
0.000264998
2.1091e-05
0.000243898
2.11e-05
0.000222822
2.10757e-05
0.000201786
2.10361e-05
0.000180817
2.09697e-05
0.000159944
2.0873e-05
0.000139227
2.07168e-05
0.000118746
2.04812e-05
9.86528e-05
2.00928e-05
7.90964e-05
1.95564e-05
6.01976e-05
1.88988e-05
4.23678e-05
1.78299e-05
2.52042e-05
1.71636e-05
2.52042e-05
-6.18031e-06
-1.12612e-05
-1.02809e-05
-1.95536e-05
-1.71452e-05
-1.5334e-05
-2.42189e-05
-1.40007e-05
-3.09825e-05
-1.40385e-05
-3.76472e-05
-1.40587e-05
-4.43162e-05
-1.40132e-05
-5.09496e-05
-1.39743e-05
-5.74836e-05
-1.39503e-05
-6.38777e-05
-1.39289e-05
-7.00919e-05
-1.39184e-05
-7.61021e-05
-1.3909e-05
-8.18918e-05
-1.38919e-05
-8.74246e-05
-1.38849e-05
-9.26813e-05
-1.38703e-05
-9.76272e-05
-1.38604e-05
-0.00010224
-1.38418e-05
-0.000106495
-1.38143e-05
-0.000110355
-1.37854e-05
-0.000113802
-1.37362e-05
-0.000116801
-1.36841e-05
-0.000119342
-1.36097e-05
-0.000121411
-1.3523e-05
-0.000123012
-1.34202e-05
-0.000124155
-1.32947e-05
-0.000124851
-1.31501e-05
-0.00012512
-1.29787e-05
-0.000124987
-1.27783e-05
-0.000124478
-1.25472e-05
-0.000123618
-1.22848e-05
-0.000122434
-1.19908e-05
-0.000120942
-1.16679e-05
-0.000119151
-1.13174e-05
-0.000117066
-1.09425e-05
-0.000114685
-1.05508e-05
-0.000112008
-1.01483e-05
-0.000109034
-9.74507e-06
-0.000105761
-9.34935e-06
-0.000102182
-8.96285e-06
-9.82888e-05
-8.57955e-06
-9.40579e-05
-8.18866e-06
-8.94562e-05
-7.77988e-06
-8.4448e-05
-7.3507e-06
-7.90056e-05
-6.91366e-06
-7.31198e-05
-6.4942e-06
-6.67742e-05
-6.12297e-06
-6.00415e-05
-5.8509e-06
-5.29796e-05
-5.72471e-06
-4.56142e-05
-5.78364e-06
-3.79679e-05
-6.03956e-06
-3.0042e-05
-6.48184e-06
-2.18172e-05
-7.09351e-06
-1.3256e-05
-7.8457e-06
-4.30511e-06
-8.70665e-06
5.08784e-06
-9.64844e-06
1.49395e-05
-1.06463e-05
2.5288e-05
-1.16715e-05
3.61566e-05
-1.27125e-05
4.7547e-05
-1.37617e-05
5.94506e-05
-1.48106e-05
7.18392e-05
-1.58619e-05
8.46745e-05
-1.69181e-05
9.79307e-05
-1.79784e-05
0.000111586
-1.90465e-05
0.000125627
-2.01191e-05
0.000140044
-2.1195e-05
0.000154834
-2.22698e-05
0.000169987
-2.33413e-05
0.000185499
-2.44041e-05
0.000201355
-2.54554e-05
0.000217536
-2.6488e-05
0.000234028
-2.75025e-05
0.000250809
-2.84946e-05
0.000267868
-2.94725e-05
0.000285183
-3.0416e-05
0.000302746
-3.13366e-05
0.000320554
-3.22334e-05
0.000338589
-3.30944e-05
0.000356866
-3.39371e-05
0.00037539
-3.47555e-05
0.000394157
-3.55476e-05
0.000413175
-3.63123e-05
0.000432446
-3.70532e-05
0.000451973
-3.77724e-05
0.000471755
-3.84688e-05
0.000491793
-3.9146e-05
0.000512082
-3.98001e-05
0.000532628
-4.04433e-05
0.000553433
-4.10741e-05
0.000574503
-4.16982e-05
0.000595832
-4.23111e-05
0.00061742
-4.29208e-05
0.000639267
-4.35311e-05
0.00066136
-4.4133e-05
0.000683694
-4.47299e-05
0.000706259
-4.53064e-05
0.000729052
-4.58621e-05
0.000752068
-4.63815e-05
0.000775309
-4.6862e-05
0.000798779
-4.73038e-05
0.000822479
-4.77086e-05
0.000846408
-4.80821e-05
0.000870559
-4.8428e-05
0.000894921
-4.87537e-05
0.000919484
-4.90635e-05
0.000944238
-4.93629e-05
0.000969175
-4.96543e-05
0.000994286
-4.99376e-05
0.00101956
-5.02125e-05
0.001045
-5.04819e-05
0.0010706
-5.07466e-05
0.00109635
-5.10035e-05
0.00112225
-5.12551e-05
0.00114829
-5.15019e-05
0.00117449
-5.17413e-05
0.00120082
-5.1975e-05
0.0012273
-5.22031e-05
0.00125391
-5.24231e-05
0.00128067
-5.26378e-05
0.00130757
-5.2844e-05
0.00133461
-5.30431e-05
0.00136179
-5.32342e-05
0.00138911
-5.34185e-05
0.00141658
-5.35948e-05
0.0014442
-5.37646e-05
0.00147197
-5.39276e-05
0.00149991
-5.40859e-05
0.00152801
-5.42406e-05
0.0015563
-5.43927e-05
0.00158477
-5.45432e-05
0.00161344
-5.46928e-05
0.0016423
-5.48408e-05
0.00167136
-5.49852e-05
0.00170059
-5.51223e-05
0.00172998
-5.52457e-05
0.00175948
-5.5347e-05
0.00178907
-5.54164e-05
0.00181869
-5.54423e-05
0.00184831
-5.54121e-05
0.00187789
-5.53148e-05
0.00190742
-5.5141e-05
0.00193689
-5.48852e-05
0.00196629
-5.45454e-05
0.00199563
-5.41237e-05
0.00202493
-5.36249e-05
0.00205419
-5.30551e-05
0.00208341
-5.24208e-05
0.00211261
-5.17264e-05
0.00214177
-5.09733e-05
0.00217088
-5.016e-05
0.00219995
-4.92829e-05
0.00222899
-4.83376e-05
0.00225804
-4.73215e-05
0.00228715
-4.62367e-05
0.00231639
-4.50926e-05
0.00234583
-4.39071e-05
0.00237553
-4.27067e-05
0.00240553
-4.15224e-05
0.00243584
-4.0386e-05
0.00246644
-3.93266e-05
0.00249729
-3.83682e-05
0.00252831
-3.75303e-05
0.00255939
-3.68284e-05
0.0025904
-3.62737e-05
0.00262118
-3.587e-05
0.00265157
-3.56095e-05
0.00268138
-3.54678e-05
0.00271048
-3.54028e-05
0.00273876
-3.53603e-05
0.00276615
-3.52857e-05
0.00279264
-3.51347e-05
0.00281828
-3.48798e-05
0.00284312
-3.45117e-05
0.00286727
-3.40363e-05
0.00289078
-3.347e-05
0.00291373
-3.28334e-05
0.00293615
-3.21473e-05
0.00295806
-3.14296e-05
0.00297945
-3.06942e-05
0.00300029
-2.99509e-05
0.00302054
-2.9206e-05
0.00304016
-2.84627e-05
0.0030591
-2.77223e-05
0.00307731
-2.69839e-05
0.00309474
-2.62453e-05
0.00311134
-2.55025e-05
0.00312706
-2.47501e-05
0.00314187
-2.39816e-05
0.00315573
-2.31904e-05
0.00316864
-2.2369e-05
0.00318061
-2.15115e-05
0.00319167
-2.06148e-05
0.00320188
-1.96789e-05
0.00321132
-1.87071e-05
0.00322009
-1.77016e-05
0.00322825
-1.6665e-05
0.0032359
-1.55995e-05
0.0032431
-1.45004e-05
0.00324988
-1.33701e-05
0.00325624
-1.22044e-05
0.00326219
-1.10044e-05
0.00326767
-9.77343e-06
0.00327262
-8.51878e-06
0.00327698
-7.25384e-06
0.00328068
-5.9784e-06
0.00328367
-4.71866e-06
0.0032859
-3.46025e-06
0.00328733
-2.23204e-06
0.00328798
-1.03019e-06
0.00328793
1.24513e-07
0.00328714
1.2772e-06
0.00328564
2.40954e-06
0.00328345
3.52047e-06
0.0032806
4.61613e-06
0.0032771
5.70232e-06
0.00327298
6.78388e-06
0.00326824
7.86485e-06
0.00326287
8.94817e-06
0.00325688
1.00356e-05
0.00325027
1.11284e-05
0.00324304
1.22269e-05
0.00323517
1.33322e-05
0.00322668
1.44442e-05
0.00321755
1.55624e-05
0.00320779
1.6686e-05
0.00319738
1.7815e-05
0.00318634
1.89492e-05
0.00317465
2.00881e-05
0.00316232
2.12303e-05
0.00314933
2.23751e-05
0.00313571
2.35216e-05
0.00312143
2.46691e-05
0.00310651
2.58165e-05
0.00309095
2.69628e-05
0.00307475
2.81072e-05
0.00305792
2.92488e-05
0.00304047
3.03867e-05
0.00302239
3.15204e-05
0.0030037
3.2649e-05
0.00298442
3.37719e-05
0.00296454
3.48887e-05
0.0029441
3.5999e-05
0.0029231
3.71023e-05
0.00290157
3.81985e-05
0.00287952
3.92877e-05
0.002857
4.03692e-05
0.00283402
4.14421e-05
0.00281063
4.25048e-05
0.00278686
4.35555e-05
0.00276274
4.45928e-05
0.00273831
4.56163e-05
0.00271358
4.66269e-05
0.00268858
4.76265e-05
0.00266332
4.86173e-05
0.00263784
4.96017e-05
0.00261213
5.05823e-05
0.0025862
5.15632e-05
0.00256006
5.25509e-05
0.00253369
5.35561e-05
0.00250708
5.45933e-05
0.00248021
5.56808e-05
0.00245305
5.6839e-05
0.00242559
5.80885e-05
0.0023978
5.94477e-05
0.00236965
6.09312e-05
0.0023411
6.25486e-05
0.00231212
6.4303e-05
0.00228267
6.61899e-05
0.00225272
6.81943e-05
0.00222224
7.02887e-05
0.00219123
7.24295e-05
0.00215969
7.4557e-05
0.00212766
7.65956e-05
0.00209523
7.84584e-05
0.0020625
8.00538e-05
0.00202969
8.12935e-05
0.00199713
8.20881e-05
0.00196541
8.23292e-05
0.00193531
8.18189e-05
0.00190757
8.0393e-05
0.00188271
7.78671e-05
0.00186087
7.40173e-05
0.00184176
6.88286e-05
0.00182472
6.26503e-05
0.00180892
5.6163e-05
0.00179356
5.01569e-05
0.00177804
4.52502e-05
0.00176201
4.17214e-05
0.00174536
3.95334e-05
0.00172813
3.84545e-05
0.00171036
3.8201e-05
0.00169203
3.85173e-05
0.00167303
3.91975e-05
0.00165324
4.00672e-05
0.00163256
4.09711e-05
0.00161098
4.17728e-05
0.00158859
4.23719e-05
0.00156553
4.27222e-05
0.001542
4.28345e-05
0.00151818
4.27671e-05
0.0014942
4.26037e-05
0.00147015
4.24285e-05
0.00144605
4.23059e-05
0.00142186
4.22694e-05
0.00139756
4.23261e-05
0.00137309
4.24602e-05
0.00134842
4.26462e-05
0.00132353
4.28585e-05
0.00129842
4.30796e-05
0.00127311
4.32884e-05
0.00124763
4.3479e-05
0.00122202
4.36511e-05
0.00119631
4.38087e-05
0.0011705
4.39598e-05
0.00114463
4.41086e-05
0.00111868
4.42739e-05
0.00109266
4.44522e-05
0.00106653
4.466e-05
0.00104028
4.49009e-05
0.00101388
4.51732e-05
0.00098731
4.54777e-05
0.000960548
4.58097e-05
0.000933555
4.61827e-05
0.000906303
4.65905e-05
0.000878752
4.70413e-05
0.000850861
4.75406e-05
0.000822577
4.80927e-05
0.00079385
4.87062e-05
0.000764618
4.93819e-05
0.000734816
5.01183e-05
0.00070438
5.09151e-05
0.000673252
5.17571e-05
0.00064138
5.26438e-05
0.000608712
5.35596e-05
0.000575217
5.44835e-05
0.000540872
5.53955e-05
0.000505674
5.62891e-05
0.000469649
5.71257e-05
0.000432834
5.78906e-05
0.000395294
5.85758e-05
0.000357118
5.9146e-05
0.000318396
5.95945e-05
0.000279209
5.99043e-05
0.000239636
6.00544e-05
0.000199686
6.00421e-05
0.000159293
5.99502e-05
0.000118394
5.97969e-05
7.75541e-05
5.86701e-05
3.90006e-05
5.57171e-05
6.42048e-05
-1.06181e-05
-6.43067e-07
-1.76126e-05
-1.25591e-05
-2.79652e-05
-4.98135e-06
-3.92569e-05
-2.70903e-06
-5.03051e-05
-2.99036e-06
-6.1047e-05
-3.31686e-06
-7.15594e-05
-3.50085e-06
-8.17757e-05
-3.758e-06
-9.16336e-05
-4.09236e-06
-0.000101075
-4.48745e-06
-0.000110053
-4.94091e-06
-0.000118522
-5.43993e-06
-0.000126463
-5.95047e-06
-0.000133821
-6.52642e-06
-0.000140554
-7.13767e-06
-0.000146639
-7.77512e-06
-0.000152046
-8.43486e-06
-0.000156747
-9.11331e-06
-0.000160726
-9.80641e-06
-0.000163956
-1.05061e-05
-0.000166429
-1.12115e-05
-0.000168148
-1.18906e-05
-0.000169125
-1.25457e-05
-0.000169369
-1.31765e-05
-0.0001689
-1.37639e-05
-0.000167755
-1.4295e-05
-0.000165972
-1.47617e-05
-0.000163585
-1.51652e-05
-0.000160625
-1.55077e-05
-0.000157124
-1.5785e-05
-0.00015309
-1.60253e-05
-0.000148537
-1.62203e-05
-0.000143475
-1.638e-05
-0.000137907
-1.65104e-05
-0.000131849
-1.66083e-05
-0.000125314
-1.66833e-05
-0.000118318
-1.67412e-05
-0.000110875
-1.67922e-05
-0.000102988
-1.685e-05
-9.4645e-05
-1.69227e-05
-8.58174e-05
-1.70163e-05
-7.64647e-05
-1.71326e-05
-6.65419e-05
-1.72735e-05
-5.60143e-05
-1.74413e-05
-4.48531e-05
-1.76554e-05
-3.30528e-05
-1.79233e-05
-2.06605e-05
-1.82432e-05
-7.74257e-06
-1.86426e-05
5.61846e-06
-1.91447e-05
1.93409e-05
-1.9762e-05
3.33542e-05
-2.04952e-05
4.75972e-05
-2.13365e-05
6.20233e-05
-2.22718e-05
7.66004e-05
-2.32837e-05
9.13077e-05
-2.43557e-05
0.000106135
-2.54733e-05
0.000121086
-2.66232e-05
0.000136171
-2.77972e-05
0.000151395
-2.89861e-05
0.00016677
-3.01851e-05
0.0001823
-3.13917e-05
0.000197991
-3.26097e-05
0.000213854
-3.38415e-05
0.000229897
-3.50888e-05
0.000246128
-3.63502e-05
0.000262557
-3.76238e-05
0.000279192
-3.89052e-05
0.000296038
-4.01877e-05
0.000313101
-4.14671e-05
0.000330383
-4.27366e-05
0.000347885
-4.39904e-05
0.00036561
-4.52273e-05
0.000383559
-4.64436e-05
0.000401716
-4.76297e-05
0.000420101
-4.8801e-05
0.000438714
-4.99499e-05
0.000457556
-5.10756e-05
0.000476641
-5.2179e-05
0.000495966
-5.32624e-05
0.000515537
-5.43259e-05
0.000535348
-5.53591e-05
0.000555413
-5.63769e-05
0.000575731
-5.73709e-05
0.000596301
-5.83431e-05
0.000617123
-5.92898e-05
0.000638191
-6.02144e-05
0.000659507
-6.1116e-05
0.00068106
-6.19963e-05
0.000702842
-6.28567e-05
0.000724843
-6.36984e-05
0.000747051
-6.45197e-05
0.000769454
-6.53234e-05
0.000792033
-6.61098e-05
0.000814777
-6.68776e-05
0.000837671
-6.76234e-05
0.000860708
-6.83432e-05
0.000883879
-6.90332e-05
0.000907187
-6.96894e-05
0.000930634
-7.03098e-05
0.000954226
-7.0895e-05
0.000977964
-7.14475e-05
0.00100185
-7.19704e-05
0.00102589
-7.24676e-05
0.00105008
-7.29429e-05
0.00107442
-7.33993e-05
0.00109889
-7.38397e-05
0.0011235
-7.42649e-05
0.00114824
-7.4677e-05
0.00117311
-7.5077e-05
0.00119809
-7.54665e-05
0.00122319
-7.58446e-05
0.0012484
-7.62133e-05
0.00127372
-7.65736e-05
0.00129914
-7.69226e-05
0.00132466
-7.72636e-05
0.00135028
-7.75966e-05
0.001376
-7.79189e-05
0.00140181
-7.82334e-05
0.00142771
-7.85384e-05
0.0014537
-7.88345e-05
0.00147978
-7.91218e-05
0.00150595
-7.93996e-05
0.0015322
-7.96689e-05
0.00155853
-7.99279e-05
0.00158494
-8.01782e-05
0.00161143
-8.04177e-05
0.00163799
-8.06481e-05
0.00166462
-8.08673e-05
0.0016913
-8.10755e-05
0.00171803
-8.12703e-05
0.00174479
-8.14501e-05
0.00177156
-8.16105e-05
0.00179832
-8.17482e-05
0.00182506
-8.18574e-05
0.00185174
-8.19316e-05
0.00187836
-8.19647e-05
0.00190489
-8.19496e-05
0.00193133
-8.18795e-05
0.00195767
-8.17483e-05
0.0019839
-8.1552e-05
0.00201005
-8.12876e-05
0.00203612
-8.09544e-05
0.00206213
-8.05535e-05
0.00208809
-8.00867e-05
0.00211402
-7.95568e-05
0.00213993
-7.89666e-05
0.00216583
-7.83173e-05
0.00219171
-7.76098e-05
0.00221759
-7.68439e-05
0.00224344
-7.60189e-05
0.00226929
-7.51337e-05
0.00229515
-7.41887e-05
0.00232101
-7.31866e-05
0.00234691
-7.21328e-05
0.00237285
-7.10363e-05
0.00239885
-6.99093e-05
0.00242491
-6.87676e-05
0.00245102
-6.76292e-05
0.00247715
-6.65133e-05
0.00250326
-6.54383e-05
0.00252931
-6.44195e-05
0.00255525
-6.34673e-05
0.00258101
-6.2586e-05
0.00260651
-6.17733e-05
0.00263166
-6.10204e-05
0.00265636
-6.03122e-05
0.00268052
-5.96283e-05
0.00270406
-5.89449e-05
0.00272694
-5.82393e-05
0.00274915
-5.74938e-05
0.00277071
-5.66981e-05
0.00279168
-5.58495e-05
0.00281212
-5.49509e-05
0.00283209
-5.40079e-05
0.00285165
-5.30262e-05
0.00287083
-5.20103e-05
0.00288964
-5.09633e-05
0.0029081
-4.98867e-05
0.00292619
-4.8782e-05
0.00294389
-4.76505e-05
0.00296117
-4.64931e-05
0.00297802
-4.53107e-05
0.0029944
-4.4103e-05
0.00301029
-4.28697e-05
0.00302565
-4.16092e-05
0.00304047
-4.03192e-05
0.00305471
-3.89957e-05
0.00306837
-3.76363e-05
0.00308141
-3.62351e-05
0.00309384
-3.47916e-05
0.00310563
-3.33074e-05
0.0031168
-3.17863e-05
0.00312736
-3.02331e-05
0.00313731
-2.86552e-05
0.00314667
-2.70633e-05
0.00315545
-2.54527e-05
0.00316369
-2.38331e-05
0.00317139
-2.21987e-05
0.00317855
-2.0534e-05
0.00318519
-1.88391e-05
0.00319129
-1.71042e-05
0.00319684
-1.53274e-05
0.00320183
-1.35064e-05
0.00320622
-1.165e-05
0.00321001
-9.76571e-06
0.00321316
-7.86527e-06
0.00321566
-5.95986e-06
0.00321749
-4.06287e-06
0.00321864
-2.18475e-06
0.0032191
-3.32643e-07
0.00321888
1.49453e-06
0.003218
3.29488e-06
0.00321645
5.06956e-06
0.00321424
6.823e-06
0.00321138
8.56075e-06
0.00320788
1.02887e-05
0.00320373
1.20117e-05
0.00319894
1.37339e-05
0.00319352
1.54582e-05
0.00318746
1.71864e-05
0.00318077
1.89195e-05
0.00317345
2.06577e-05
0.00316549
2.24015e-05
0.0031569
2.41514e-05
0.00314768
2.5907e-05
0.00313783
2.7668e-05
0.00312734
2.94336e-05
0.00311623
3.12033e-05
0.00310448
3.29761e-05
0.0030921
3.4751e-05
0.0030791
3.65269e-05
0.00306547
3.83026e-05
0.00305121
4.00764e-05
0.00303632
4.18466e-05
0.00302082
4.36123e-05
0.00300469
4.53721e-05
0.00298796
4.71238e-05
0.00297061
4.8866e-05
0.00295266
5.0597e-05
0.00293412
5.23149e-05
0.00291499
5.40172e-05
0.00289529
5.57025e-05
0.00287502
5.7369e-05
0.00285421
5.90141e-05
0.00283286
6.06352e-05
0.002811
6.22289e-05
0.00278865
6.37913e-05
0.00276584
6.53182e-05
0.00274259
6.6806e-05
0.00271893
6.82527e-05
0.00269488
6.9658e-05
0.00267049
7.10226e-05
0.00264577
7.23482e-05
0.00262075
7.36353e-05
0.00259546
7.48854e-05
0.00256995
7.61001e-05
0.00254423
7.72831e-05
0.00251834
7.84408e-05
0.00249231
7.95829e-05
0.00246618
8.07206e-05
0.00244
8.18679e-05
0.0024138
8.30376e-05
0.00238764
8.42408e-05
0.00236161
8.54876e-05
0.00233575
8.67854e-05
0.00231016
8.81391e-05
0.00228491
8.95512e-05
0.00226008
9.10194e-05
0.00223574
9.25345e-05
0.00221195
9.40779e-05
0.00218876
9.56191e-05
0.00216621
9.71149e-05
0.00214429
9.85106e-05
0.00212301
9.97436e-05
0.00210231
0.000100749
0.00208214
0.000101464
0.00206241
0.00010182
0.002043
0.000101739
0.0020237
0.000101117
0.00200431
9.97856e-05
0.00198465
9.75282e-05
0.00196443
9.42385e-05
0.00194322
9.00317e-05
0.00192057
8.53035e-05
0.0018961
8.06317e-05
0.0018697
7.65579e-05
0.00184155
7.33978e-05
0.00181209
7.1181e-05
0.00178188
6.97408e-05
0.00175148
6.88572e-05
0.00172132
6.83652e-05
0.00169166
6.81779e-05
0.00166261
6.82483e-05
0.00163415
6.85269e-05
0.00160618
6.89403e-05
0.00157858
6.93735e-05
0.00155122
6.97265e-05
0.00152403
6.99177e-05
0.00149694
6.9919e-05
0.00146996
6.97532e-05
0.00144307
6.94872e-05
0.0014163
6.91989e-05
0.00138965
6.89609e-05
0.00136309
6.88247e-05
0.00133661
6.88129e-05
0.00131014
6.89223e-05
0.00128366
6.91255e-05
0.00125714
6.93774e-05
0.00123058
6.96413e-05
0.00120397
6.99015e-05
0.00117733
7.01196e-05
0.00115069
7.02927e-05
0.00112406
7.0432e-05
0.00109748
7.0545e-05
0.00107094
7.0645e-05
0.00104447
7.07465e-05
0.00101805
7.08727e-05
0.000991705
7.10046e-05
0.000965421
7.11847e-05
0.000939215
7.138e-05
0.000913067
7.16252e-05
0.000886962
7.19144e-05
0.000860891
7.22544e-05
0.000834824
7.2657e-05
0.000808732
7.31334e-05
0.000782607
7.36655e-05
0.000756389
7.43112e-05
0.000730047
7.50481e-05
0.000703531
7.58972e-05
0.000676779
7.68703e-05
0.00064973
7.79642e-05
0.000622294
7.91938e-05
0.000594382
8.05553e-05
0.000565897
8.20449e-05
0.000536748
8.36318e-05
0.00050684
8.53039e-05
0.000476094
8.70354e-05
0.000444423
8.87968e-05
0.000411761
9.0552e-05
0.000378075
9.22619e-05
0.000343333
9.38878e-05
0.00030754
9.53878e-05
0.00027071
9.67339e-05
0.000232875
9.78895e-05
0.000194103
9.88143e-05
0.000154679
9.9374e-05
0.00011553
9.89464e-05
7.81746e-05
9.60252e-05
4.26749e-05
9.12168e-05
0.00010688
-7.31132e-06
6.66826e-06
-9.04256e-06
-1.08279e-05
-1.44365e-05
4.12594e-07
-2.16019e-05
4.45641e-06
-2.8538e-05
3.94568e-06
-3.49915e-05
3.13666e-06
-4.10588e-05
2.56648e-06
-4.67821e-05
1.96531e-06
-5.21123e-05
1.23785e-06
-5.6999e-05
3.99247e-07
-6.13173e-05
-6.22693e-07
-6.51532e-05
-1.604e-06
-6.84412e-05
-2.66247e-06
-7.11574e-05
-3.81018e-06
-7.32534e-05
-5.04166e-06
-7.47272e-05
-6.30136e-06
-7.55677e-05
-7.5944e-06
-7.57613e-05
-8.91968e-06
-7.53119e-05
-1.02558e-05
-7.42463e-05
-1.15717e-05
-7.25823e-05
-1.28754e-05
-7.03261e-05
-1.41468e-05
-6.74924e-05
-1.53794e-05
-6.41368e-05
-1.65322e-05
-6.0283e-05
-1.76177e-05
-5.59604e-05
-1.86175e-05
-5.12015e-05
-1.95206e-05
-4.60379e-05
-2.03289e-05
-4.04991e-05
-2.10465e-05
-3.45995e-05
-2.16846e-05
-2.8369e-05
-2.22559e-05
-2.18186e-05
-2.27707e-05
-1.49584e-05
-2.32401e-05
-7.79974e-06
-2.36691e-05
-3.45879e-07
-2.40622e-05
7.39155e-06
-2.44207e-05
1.54029e-05
-2.47526e-05
2.3677e-05
-2.50663e-05
3.21894e-05
-2.53624e-05
4.09276e-05
-2.56609e-05
4.98881e-05
-2.59769e-05
5.90675e-05
-2.6312e-05
6.84839e-05
-2.66898e-05
7.81497e-05
-2.71071e-05
8.80769e-05
-2.75827e-05
9.82697e-05
-2.81161e-05
0.000108741
-2.87142e-05
0.000119481
-2.93832e-05
0.000130467
-3.01306e-05
0.000141667
-3.09616e-05
0.000153049
-3.18769e-05
0.000164586
-3.2874e-05
0.000176262
-3.39474e-05
0.000188069
-3.5091e-05
0.000200012
-3.62986e-05
0.000212102
-3.75631e-05
0.000224355
-3.8877e-05
0.00023679
-4.02318e-05
0.000249428
-4.16239e-05
0.000262292
-4.30495e-05
0.000275399
-4.44987e-05
0.000288767
-4.59773e-05
0.000302401
-4.74757e-05
0.000316314
-4.90019e-05
0.000330508
-5.05443e-05
0.000344995
-5.21105e-05
0.000359766
-5.36759e-05
0.000374829
-5.52513e-05
0.000390203
-5.68408e-05
0.000405877
-5.84101e-05
0.00042186
-5.99737e-05
0.00043815
-6.15173e-05
0.000454759
-6.30531e-05
0.0004717
-6.45704e-05
0.000488967
-6.60676e-05
0.000506558
-6.75416e-05
0.000524478
-6.89949e-05
0.000542722
-7.04234e-05
0.00056129
-7.18306e-05
0.000580177
-7.32128e-05
0.000599385
-7.45675e-05
0.000618902
-7.58937e-05
0.000638724
-7.71925e-05
0.00065884
-7.84592e-05
0.000679248
-7.96984e-05
0.00069994
-8.09055e-05
0.000720909
-8.20851e-05
0.000742143
-8.32307e-05
0.000763634
-8.43478e-05
0.000785368
-8.54316e-05
0.000807335
-8.64867e-05
0.00082952
-8.75091e-05
0.000851909
-8.84983e-05
0.000874489
-8.94574e-05
0.000897247
-9.03816e-05
0.000920174
-9.12705e-05
0.000943264
-9.21233e-05
0.000966513
-9.29387e-05
0.000989921
-9.37174e-05
0.00101349
-9.44597e-05
0.00103721
-9.51677e-05
0.00106108
-9.58436e-05
0.0010851
-9.64895e-05
0.00110927
-9.71079e-05
0.00113357
-9.77007e-05
0.001158
-9.82706e-05
0.00118255
-9.88191e-05
0.00120722
-9.9348e-05
0.001232
-9.9858e-05
0.00125689
-0.000100351
0.00128187
-0.000100828
0.00130695
-0.000101289
0.00133211
-0.000101736
0.00135736
-0.000102169
0.00138268
-0.000102588
0.00140808
-0.000102994
0.00143355
-0.000103387
0.00145908
-0.000103767
0.00148468
-0.000104133
0.00151033
-0.000104487
0.00153604
-0.000104828
0.00156179
-0.000105155
0.00158759
-0.000105468
0.00161343
-0.000105767
0.0016393
-0.000106052
0.00166521
-0.000106321
0.00169113
-0.000106573
0.00171707
-0.000106807
0.00174302
-0.000107022
0.00176896
-0.000107213
0.00179489
-0.000107377
0.00182079
-0.000107511
0.00184665
-0.000107611
0.00187246
-0.00010767
0.00189822
-0.000107685
0.0019239
-0.000107652
0.00194952
-0.000107566
0.00197507
-0.000107425
0.00200054
-0.000107225
0.00202595
-0.000106964
0.00205131
-0.000106642
0.00207661
-0.000106258
0.00210187
-0.00010581
0.00212708
-0.000105298
0.00215225
-0.000104723
0.00217736
-0.000104084
0.00220243
-0.000103381
0.00222743
-0.000102613
0.00225237
-0.000101782
0.00227724
-0.000100888
0.00230203
-9.99322e-05
0.00232676
-9.89167e-05
0.00235142
-9.78446e-05
0.00237601
-9.6721e-05
0.00240052
-9.55525e-05
0.00242496
-9.43473e-05
0.00244931
-9.31156e-05
0.00247355
-9.18685e-05
0.00249765
-9.06172e-05
0.00252159
-8.9372e-05
0.00254531
-8.81418e-05
0.00256878
-8.69328e-05
0.00259194
-8.57489e-05
0.00261476
-8.45913e-05
0.00263719
-8.34584e-05
0.00265923
-8.23456e-05
0.00268084
-8.12449e-05