/*--------------------------------*- C++ -*----------------------------------*\
| =========                 |                                                 |
| \\      /  F ield         | OpenFOAM: The Open Source CFD Toolbox           |
|  \\    /   O peration     | Version:  v2006                                 |
|   \\  /    A nd           | Website:  www.openfoam.com                      |
|    \\/     M anipulation  |                                                 |
\*---------------------------------------------------------------------------*/
FoamFile
{
    version     2.0;
    format      ascii;
    class       volScalarField;
    location    "15.1";
    object      p_rgh;
}
// * * * * * * * * * * * * * * * * * * * * * * * * * * * * * * * * * * * * * //

dimensions      [1 -1 -2 0 0 0 0];


internalField   nonuniform List<scalar> 
52500
(
2146.11
2145.95
2145.61
2145.11
2144.45
2143.62
2142.63
2141.47
2140.15
2138.66
2137.01
2135.2
2133.23
2131.11
2128.82
2126.38
2123.79
2121.04
2118.15
2115.1
2111.91
2108.57
2105.09
2101.46
2097.7
2093.8
2089.76
2085.59
2081.29
2076.86
2072.3
2067.62
2062.82
2057.9
2052.86
2047.71
2042.45
2037.08
2031.61
2026.03
2020.35
2014.58
2008.72
2002.76
1996.73
1990.61
1984.41
1978.13
1971.77
1965.34
1958.84
1952.27
1945.64
1938.95
1932.21
1925.41
1918.55
1911.65
1904.71
1897.72
1890.7
1883.64
1876.55
1869.44
1862.3
1855.14
1847.97
1840.77
1833.57
1826.36
1819.15
1811.93
1804.72
1797.51
1790.31
1783.12
1775.94
1768.78
1761.64
1754.52
1747.43
1740.36
1733.33
1726.33
1719.37
1712.45
1705.56
1698.73
1691.94
1685.2
1678.52
1671.88
1665.31
1658.79
1652.34
1645.95
1639.62
1633.36
1627.17
1621.06
1615.01
1609.05
1603.16
1597.34
1591.61
1585.96
1580.39
1574.91
1569.51
1564.2
1558.97
1553.84
1548.79
1543.83
1538.96
1534.18
1529.49
1524.89
1520.39
1515.97
1511.64
1507.41
1503.26
1499.2
1495.23
1491.35
1487.55
1483.85
1480.22
1476.68
1473.22
1469.84
1466.54
1463.32
1460.17
1457.1
1454.1
1451.16
1448.29
1445.49
1442.74
1440.06
1437.43
1434.85
1432.33
1429.85
1427.42
1425.03
1422.68
1420.36
1418.08
1415.83
1413.6
1411.39
1409.2
1407.02
1404.86
1402.7
1400.54
1398.39
1396.22
1394.04
1391.85
1389.64
1387.4
1385.13
1382.82
1380.47
1378.08
1375.64
1373.15
1370.6
1367.99
1365.32
1362.57
1359.74
1356.84
1353.85
1350.76
1347.58
1344.3
1340.92
1337.42
1333.82
1330.09
1326.23
1322.25
1318.14
1313.89
1309.5
1304.96
1300.27
1295.42
1290.41
1285.24
1279.9
1274.39
1268.7
1262.82
1256.76
1250.51
1244.07
1237.43
1230.59
1223.54
1216.29
1208.83
1201.16
1193.28
1185.2
1176.85
1168.28
1159.48
1150.46
1141.21
1131.72
1121.99
1112.03
1101.82
1091.37
1080.68
1069.74
1058.56
1047.13
1035.46
1023.53
1011.35
998.93
986.256
973.333
960.16
946.738
933.067
919.149
904.983
890.572
875.916
861.017
845.876
830.496
814.878
799.024
782.938
766.62
750.075
733.305
716.314
699.104
681.678
664.042
646.199
628.152
609.907
591.467
572.839
554.026
535.035
515.87
496.538
477.044
457.394
437.595
417.654
397.576
377.368
357.036
336.589
316.031
295.371
274.614
253.769
232.841
211.84
190.77
169.642
148.462
127.24
105.983
84.6949
63.3831
42.0556
20.7244
-0.593259
-21.8763
-43.1028
-64.2551
-85.3218
-106.297
-127.18
-147.967
-168.656
-189.242
-209.715
-230.067
-250.287
-270.362
-290.283
-310.038
-329.616
-349.008
-368.203
-387.193
-405.968
-424.519
-442.837
-460.912
-478.736
-496.299
-513.592
-530.606
-547.332
-563.762
-579.887
-595.699
-611.188
-626.349
-641.171
-655.648
-669.771
-683.533
-696.927
-709.945
-722.581
-734.827
-746.677
-758.125
-769.163
-779.787
-789.99
-799.767
-809.112
-818.021
-826.487
-834.508
-842.078
-849.193
-855.851
-862.046
-867.777
-873.039
-877.832
-882.152
-885.997
-889.366
-892.256
-894.667
-896.597
-898.046
-899.008
-899.489
2146.53
2146.36
2146.03
2145.53
2144.87
2144.04
2143.04
2141.88
2140.56
2139.07
2137.42
2135.61
2133.64
2131.51
2129.22
2126.78
2124.18
2121.44
2118.54
2115.49
2112.29
2108.95
2105.46
2101.83
2098.07
2094.16
2090.12
2085.95
2081.64
2077.2
2072.64
2067.96
2063.15
2058.22
2053.18
2048.02
2042.75
2037.38
2031.9
2026.31
2020.63
2014.85
2008.97
2003.01
1996.96
1990.83
1984.62
1978.33
1971.97
1965.53
1959.03
1952.45
1945.81
1939.11
1932.35
1925.53
1918.67
1911.75
1904.8
1897.8
1890.77
1883.7
1876.6
1869.48
1862.33
1855.16
1847.98
1840.78
1833.57
1826.35
1819.12
1811.9
1804.68
1797.46
1790.25
1783.05
1775.86
1768.69
1761.54
1754.42
1747.32
1740.24
1733.2
1726.2
1719.23
1712.3
1705.41
1698.57
1691.77
1685.02
1678.33
1671.69
1665.11
1658.59
1652.13
1645.73
1639.4
1633.13
1626.94
1620.82
1614.77
1608.8
1602.9
1597.09
1591.35
1585.7
1580.13
1574.64
1569.24
1563.92
1558.7
1553.56
1548.51
1543.55
1538.68
1533.9
1529.21
1524.61
1520.1
1515.69
1511.36
1507.12
1502.98
1498.92
1494.96
1491.08
1487.29
1483.58
1479.96
1476.42
1472.97
1469.59
1466.3
1463.08
1459.94
1456.87
1453.88
1450.95
1448.09
1445.29
1442.56
1439.88
1437.26
1434.7
1432.18
1429.72
1427.3
1424.92
1422.58
1420.28
1418
1415.76
1413.54
1411.35
1409.17
1407.01
1404.85
1402.71
1400.56
1398.41
1396.26
1394.09
1391.91
1389.71
1387.48
1385.22
1382.92
1380.59
1378.21
1375.78
1373.3
1370.77
1368.17
1365.5
1362.76
1359.95
1357.06
1354.08
1351
1347.84
1344.57
1341.2
1337.72
1334.12
1330.4
1326.56
1322.6
1318.49
1314.25
1309.87
1305.35
1300.67
1295.83
1290.84
1285.68
1280.35
1274.84
1269.16
1263.3
1257.25
1251.01
1244.58
1237.94
1231.11
1224.07
1216.83
1209.37
1201.7
1193.8
1185.65
1177.35
1168.81
1160.03
1151.03
1141.78
1132.3
1122.58
1112.62
1102.42
1091.98
1081.3
1070.36
1059.18
1047.76
1036.08
1024.16
1011.99
999.563
986.89
973.966
960.793
947.369
933.697
919.777
905.609
891.195
876.536
861.633
846.488
831.102
815.478
799.618
783.524
767.199
750.645
733.866
716.864
699.644
682.208
664.56
646.704
628.645
610.387
591.935
573.292
554.465
535.458
516.277
496.928
477.415
457.747
437.927
417.964
397.863
377.631
357.276
336.804
316.222
295.537
274.757
253.889
232.94
211.917
190.828
169.678
148.477
127.231
105.948
84.637
63.3065
41.9666
20.628
-0.695141
-21.9859
-43.226
-64.3988
-85.4916
-106.497
-127.412
-148.234
-168.957
-189.576
-210.08
-230.46
-250.706
-270.807
-290.751
-310.53
-330.132
-349.549
-368.769
-387.784
-406.585
-425.161
-443.505
-461.605
-479.453
-497.04
-514.357
-531.394
-548.144
-564.597
-580.745
-596.579
-612.091
-627.273
-642.117
-656.615
-670.759
-684.541
-697.955
-710.993
-723.647
-735.912
-747.78
-759.244
-770.3
-780.94
-791.158
-800.95
-810.309
-819.231
-827.71
-835.743
-843.324
-850.449
-857.116
-863.319
-869.058
-874.327
-879.125
-883.451
-887.3
-890.673
-893.568
-895.982
-897.915
-899.366
-900.331
-900.811
2147.39
2147.22
2146.89
2146.39
2145.72
2144.89
2143.89
2142.73
2141.4
2139.91
2138.25
2136.44
2134.46
2132.33
2130.03
2127.59
2124.99
2122.23
2119.33
2116.27
2113.07
2109.72
2106.22
2102.59
2098.81
2094.9
2090.85
2086.66
2082.34
2077.9
2073.33
2068.63
2063.81
2058.87
2053.81
2048.64
2043.36
2037.97
2032.47
2026.87
2021.17
2015.38
2009.49
2003.51
1997.44
1991.29
1985.05
1978.74
1972.36
1965.9
1959.37
1952.77
1946.11
1939.38
1932.6
1925.77
1918.89
1911.96
1904.98
1897.97
1890.92
1883.83
1876.72
1869.57
1862.41
1855.22
1848.02
1840.8
1833.57
1826.33
1819.09
1811.85
1804.61
1797.37
1790.14
1782.93
1775.72
1768.54
1761.37
1754.23
1747.11
1740.03
1732.97
1725.95
1718.96
1712.02
1705.11
1698.26
1691.44
1684.68
1677.98
1671.32
1664.73
1658.19
1651.72
1645.31
1638.97
1632.69
1626.49
1620.35
1614.3
1608.31
1602.41
1596.59
1590.84
1585.18
1579.6
1574.11
1568.7
1563.38
1558.15
1553
1547.95
1542.99
1538.11
1533.33
1528.64
1524.04
1519.53
1515.12
1510.79
1506.56
1502.42
1498.36
1494.4
1490.53
1486.74
1483.04
1479.42
1475.89
1472.45
1469.08
1465.8
1462.59
1459.46
1456.4
1453.41
1450.5
1447.65
1444.87
1442.15
1439.49
1436.88
1434.34
1431.84
1429.39
1426.99
1424.64
1422.32
1420.03
1417.79
1415.57
1413.37
1411.2
1409.05
1406.91
1404.78
1402.66
1400.54
1398.41
1396.28
1394.14
1391.98
1389.8
1387.59
1385.36
1383.09
1380.78
1378.42
1376.02
1373.57
1371.06
1368.49
1365.85
1363.14
1360.36
1357.49
1354.54
1351.49
1348.35
1345.11
1341.77
1338.31
1334.75
1331.06
1327.24
1323.3
1319.22
1315.01
1310.65
1306.15
1301.5
1296.68
1291.71
1286.57
1281.27
1275.78
1270.13
1264.28
1258.26
1252.04
1245.62
1239.01
1232.2
1225.18
1217.96
1210.52
1202.86
1195
1186.91
1178.58
1170.04
1161.27
1152.27
1143.03
1133.56
1123.85
1113.9
1103.71
1093.27
1082.59
1071.66
1060.49
1049.06
1037.39
1025.47
1013.29
1000.87
988.194
975.268
962.09
948.662
934.984
921.056
906.88
892.457
877.787
862.872
847.715
832.316
816.677
800.801
784.691
768.348
751.775
734.976
717.953
700.709
683.25
665.577
647.695
629.609
611.322
592.84
574.166
555.307
536.267
517.051
497.665
478.116
458.408
438.548
418.542
398.397
378.12
357.718
337.197
316.565
295.829
274.998
254.077
233.076
212.002
190.863
169.667
148.422
127.137
105.821
84.483
63.1337
41.7835
20.4424
-0.878863
-22.1692
-43.4177
-64.6142
-85.7492
-106.814
-127.799
-148.695
-169.494
-190.184
-210.756
-231.2
-251.506
-271.663
-291.663
-311.495
-331.15
-350.62
-369.893
-388.962
-407.816
-426.445
-444.84
-462.992
-480.891
-498.528
-515.894
-532.979
-549.776
-566.276
-582.47
-598.349
-613.906
-629.131
-644.018
-658.558
-672.743
-686.566
-700.019
-713.095
-725.787
-738.089
-749.992
-761.492
-772.581
-783.254
-793.505
-803.327
-812.716
-821.667
-830.173
-838.231
-845.836
-852.985
-859.673
-865.896
-871.652
-876.938
-881.751
-886.089
-889.95
-893.332
-896.235
-898.656
-900.596
-902.052
-903.022
-903.504
2148.68
2148.51
2148.2
2147.68
2147.01
2146.18
2145.18
2144.01
2142.69
2141.2
2139.52
2137.69
2135.71
2133.56
2131.26
2128.81
2126.2
2123.43
2120.52
2117.45
2114.23
2110.87
2107.37
2103.72
2099.92
2096
2091.93
2087.73
2083.39
2078.93
2074.34
2069.62
2064.78
2059.82
2054.75
2049.55
2044.25
2038.84
2033.32
2027.69
2021.97
2016.15
2010.23
2004.23
1998.13
1991.96
1985.69
1979.35
1972.94
1966.45
1959.89
1953.27
1946.58
1939.82
1933.02
1926.16
1919.24
1912.28
1905.28
1898.24
1891.16
1884.04
1876.9
1869.73
1862.54
1855.32
1848.09
1840.84
1833.59
1826.32
1819.05
1811.79
1804.52
1797.26
1790
1782.76
1775.53
1768.32
1761.13
1753.96
1746.82
1739.71
1732.63
1725.58
1718.57
1711.6
1704.68
1697.8
1690.96
1684.18
1677.45
1670.78
1664.16
1657.61
1651.12
1644.69
1638.33
1632.03
1625.81
1619.66
1613.59
1607.59
1601.67
1595.84
1590.08
1584.4
1578.81
1573.31
1567.89
1562.56
1557.32
1552.17
1547.11
1542.14
1537.27
1532.48
1527.79
1523.19
1518.68
1514.26
1509.94
1505.71
1501.57
1497.52
1493.56
1489.7
1485.92
1482.22
1478.62
1475.1
1471.66
1468.31
1465.04
1461.85
1458.73
1455.69
1452.72
1449.82
1447
1444.24
1441.54
1438.9
1436.32
1433.8
1431.33
1428.91
1426.54
1424.21
1421.92
1419.67
1417.45
1415.26
1413.1
1410.96
1408.84
1406.73
1404.63
1402.54
1400.45
1398.36
1396.27
1394.16
1392.04
1389.89
1387.72
1385.53
1383.3
1381.03
1378.71
1376.35
1373.94
1371.47
1368.94
1366.34
1363.68
1360.93
1358.11
1355.19
1352.19
1349.09
1345.9
1342.59
1339.18
1335.65
1332
1328.23
1324.33
1320.29
1316.12
1311.8
1307.34
1302.72
1297.95
1293.01
1287.91
1282.64
1277.19
1271.56
1265.76
1259.76
1253.57
1247.19
1240.61
1233.83
1226.84
1219.64
1212.23
1204.6
1196.76
1188.69
1180.39
1171.87
1163.12
1154.14
1144.92
1135.46
1125.76
1115.83
1105.65
1095.22
1084.55
1073.63
1062.46
1051.04
1039.37
1027.45
1015.28
1002.86
990.177
977.247
964.064
950.629
936.943
923.005
908.818
894.381
879.697
864.766
849.591
834.172
818.512
802.614
786.479
770.11
753.51
736.682
719.628
702.353
684.859
667.151
649.233
631.108
612.781
594.257
575.54
556.635
537.548
518.284
498.848
479.247
459.486
439.572
419.51
399.308
378.972
358.509
337.926
317.231
296.43
275.532
254.543
233.473
212.328
191.118
169.85
148.534
127.179
105.793
84.3857
62.9669
41.5452
20.1303
-1.26687
-22.635
-43.9625
-65.2378
-86.45
-107.589
-128.646
-149.613
-170.482
-191.243
-211.888
-232.406
-252.788
-273.022
-293.1
-313.01
-332.743
-352.29
-371.641
-390.786
-409.715
-428.42
-446.89
-465.117
-483.09
-500.8
-518.238
-535.395
-552.262
-568.831
-585.093
-601.039
-616.661
-631.952
-646.902
-661.504
-675.75
-689.633
-703.144
-716.277
-729.025
-741.381
-753.338
-764.889
-776.028
-786.75
-797.048
-806.916
-816.349
-825.342
-833.89
-841.987
-849.63
-856.815
-863.537
-869.792
-875.578
-880.891
-885.729
-890.09
-893.971
-897.371
-900.288
-902.723
-904.673
-906.137
-907.11
-907.592
2150.39
2150.21
2149.88
2149.36
2148.7
2147.86
2146.85
2145.67
2144.32
2142.81
2141.16
2139.35
2137.36
2135.22
2132.91
2130.44
2127.82
2125.04
2122.11
2119.03
2115.8
2112.42
2108.89
2105.22
2101.41
2097.46
2093.37
2089.15
2084.79
2080.3
2075.69
2070.94
2066.08
2061.09
2055.98
2050.76
2045.43
2039.98
2034.43
2028.78
2023.02
2017.17
2011.22
2005.18
1999.05
1992.84
1986.54
1980.16
1973.71
1967.18
1960.58
1953.92
1947.19
1940.4
1933.56
1926.66
1919.71
1912.71
1905.67
1898.59
1891.48
1884.33
1877.14
1869.94
1862.71
1855.45
1848.19
1840.9
1833.61
1826.31
1819.01
1811.7
1804.4
1797.1
1789.81
1782.53
1775.27
1768.03
1760.8
1753.6
1746.43
1739.28
1732.17
1725.09
1718.05
1711.05
1704.09
1697.18
1690.32
1683.51
1676.75
1670.05
1663.41
1656.83
1650.31
1643.85
1637.47
1631.15
1624.91
1618.74
1612.64
1606.63
1600.69
1594.83
1589.06
1583.37
1577.76
1572.25
1566.82
1561.48
1556.22
1551.06
1546
1541.02
1536.14
1531.35
1526.65
1522.05
1517.54
1513.13
1508.81
1504.58
1500.44
1496.4
1492.45
1488.59
1484.82
1481.14
1477.55
1474.05
1470.63
1467.29
1464.04
1460.86
1457.77
1454.75
1451.8
1448.93
1446.13
1443.4
1440.73
1438.12
1435.57
1433.08
1430.65
1428.26
1425.93
1423.64
1421.39
1419.17
1416.99
1414.85
1412.73
1410.63
1408.55
1406.49
1404.44
1402.4
1400.36
1398.32
1396.27
1394.21
1392.14
1390.05
1387.93
1385.79
1383.61
1381.39
1379.13
1376.83
1374.47
1372.05
1369.58
1367.03
1364.42
1361.73
1358.96
1356.1
1353.16
1350.11
1346.97
1343.72
1340.36
1336.89
1333.29
1329.57
1325.73
1321.74
1317.62
1313.35
1308.94
1304.37
1299.65
1294.76
1289.7
1284.48
1279.08
1273.5
1267.73
1261.78
1255.63
1249.29
1242.75
1236.01
1229.06
1221.9
1214.52
1206.93
1199.11
1191.07
1182.81
1174.32
1165.59
1156.63
1147.44
1138
1128.32
1118.4
1108.24
1097.83
1087.17
1076.26
1065.1
1053.69
1042.02
1030.1
1017.93
1005.51
992.825
979.89
966.7
953.256
939.558
925.607
911.404
896.95
882.246
867.293
852.094
836.649
820.961
805.032
788.865
772.461
755.824
738.956
721.861
704.542
687.003
669.247
651.278
633.101
614.72
596.139
577.364
558.398
539.248
519.919
500.417
480.746
460.914
440.926
420.789
400.509
380.094
359.549
338.883
318.103
297.215
276.229
255.152
233.991
212.756
191.454
170.095
148.688
127.24
105.762
84.2639
62.7546
41.2447
19.7449
-1.73501
-23.1856
-44.5979
-65.9627
-87.2705
-108.512
-129.676
-150.754
-171.734
-192.607
-213.362
-233.99
-254.48
-274.822
-295.006
-315.023
-334.862
-354.514
-373.969
-393.217
-412.249
-431.054
-449.625
-467.95
-486.022
-503.829
-521.364
-538.616
-555.577
-572.239
-588.592
-604.628
-620.338
-635.715
-650.75
-665.435
-679.762
-693.723
-707.312
-720.521
-733.342
-745.77
-757.796
-769.415
-780.62
-791.405
-801.765
-811.693
-821.184
-830.232
-838.833
-846.982
-854.675
-861.906
-868.673
-874.971
-880.797
-886.148
-891.021
-895.413
-899.323
-902.749
-905.688
-908.141
-910.106
-911.581
-912.56
-913.044
2152.58
2152.4
2152.06
2151.55
2150.87
2150.03
2149.01
2147.83
2146.48
2144.97
2143.31
2141.47
2139.47
2137.31
2134.98
2132.5
2129.86
2127.07
2124.12
2121.01
2117.76
2114.36
2110.81
2107.12
2103.28
2099.3
2095.18
2090.93
2086.54
2082.02
2077.37
2072.59
2067.69
2062.67
2057.53
2052.27
2046.9
2041.42
2035.83
2030.13
2024.34
2018.44
2012.45
2006.37
2000.19
1993.93
1987.59
1981.17
1974.67
1968.1
1961.45
1954.74
1947.97
1941.13
1934.24
1927.29
1920.3
1913.25
1906.17
1899.04
1891.88
1884.68
1877.45
1870.2
1862.92
1855.62
1848.31
1840.98
1833.64
1826.29
1818.94
1811.59
1804.25
1796.9
1789.57
1782.25
1774.94
1767.66
1760.39
1753.15
1745.93
1738.74
1731.59
1724.47
1717.39
1710.35
1703.36
1696.41
1689.51
1682.66
1675.87
1669.14
1662.46
1655.84
1649.29
1642.81
1636.39
1630.05
1623.77
1617.58
1611.45
1605.41
1599.45
1593.57
1587.78
1582.07
1576.44
1570.91
1565.46
1560.11
1554.84
1549.67
1544.59
1539.61
1534.72
1529.92
1525.22
1520.62
1516.11
1511.7
1507.38
1503.16
1499.03
1494.99
1491.05
1487.21
1483.45
1479.78
1476.21
1472.72
1469.32
1466
1462.77
1459.62
1456.55
1453.56
1450.65
1447.81
1445.04
1442.34
1439.71
1437.14
1434.63
1432.18
1429.79
1427.45
1425.16
1422.91
1420.71
1418.55
1416.42
1414.32
1412.26
1410.21
1408.19
1406.18
1404.19
1402.2
1400.22
1398.24
1396.25
1394.25
1392.24
1390.21
1388.16
1386.08
1383.96
1381.81
1379.62
1377.38
1375.09
1372.74
1370.34
1367.86
1365.32
1362.7
1360
1357.21
1354.33
1351.36
1348.29
1345.11
1341.82
1338.41
1334.88
1331.23
1327.45
1323.53
1319.48
1315.28
1310.93
1306.42
1301.76
1296.94
1291.94
1286.78
1281.44
1275.91
1270.2
1264.31
1258.21
1251.93
1245.44
1238.74
1231.84
1224.72
1217.39
1209.84
1202.06
1194.06
1185.84
1177.38
1168.69
1159.76
1150.59
1141.18
1131.53
1121.63
1111.49
1101.09
1090.45
1079.55
1068.4
1057
1045.34
1033.43
1021.26
1008.83
996.143
983.201
970.002
956.547
942.835
928.868
914.645
900.169
885.441
870.461
855.232
839.755
824.032
808.065
791.857
775.41
758.727
741.81
724.664
707.291
689.695
671.879
653.848
635.606
617.157
598.506
579.658
560.617
541.388
521.979
502.392
482.636
462.715
442.637
422.407
402.032
381.518
360.874
340.106
319.222
298.229
277.136
255.949
234.678
213.331
191.916
170.442
148.918
127.354
105.759
84.1417
62.5127
40.8814
19.2575
-2.34927
-23.9289
-45.4713
-66.9662
-88.4036
-109.773
-131.066
-152.271
-173.379
-194.38
-215.264
-236.021
-256.64
-277.112
-297.427
-317.574
-337.543
-357.324
-376.908
-396.284
-415.443
-434.375
-453.07
-471.52
-489.714
-507.643
-525.297
-542.668
-559.746
-576.523
-592.99
-609.137
-624.958
-640.442
-655.582
-670.37
-684.799
-698.859
-712.545
-725.848
-738.761
-751.278
-763.391
-775.094
-786.38
-797.244
-807.68
-817.681
-827.243
-836.359
-845.026
-853.237
-860.989
-868.278
-875.098
-881.447
-887.321
-892.716
-897.631
-902.061
-906.005
-909.462
-912.428
-914.904
-916.887
-918.374
-919.361
-919.849
2155.21
2155.04
2154.7
2154.18
2153.5
2152.65
2151.63
2150.45
2149.1
2147.57
2145.88
2144.03
2142.01
2139.83
2137.49
2134.98
2132.32
2129.5
2126.53
2123.4
2120.12
2116.69
2113.11
2109.39
2105.52
2101.51
2097.36
2093.07
2088.64
2084.08
2079.39
2074.58
2069.63
2064.57
2059.38
2054.08
2048.66
2043.14
2037.5
2031.75
2025.91
2019.96
2013.92
2007.79
2001.56
1995.25
1988.85
1982.38
1975.82
1969.19
1962.49
1955.73
1948.9
1942.01
1935.06
1928.06
1921
1913.9
1906.76
1899.58
1892.36
1885.1
1877.82
1870.51
1863.17
1855.82
1848.45
1841.06
1833.67
1826.27
1818.87
1811.46
1804.06
1796.67
1789.28
1781.91
1774.55
1767.21
1759.89
1752.6
1745.33
1738.1
1730.89
1723.73
1716.6
1709.52
1702.47
1695.48
1688.54
1681.65
1674.81
1668.03
1661.31
1654.66
1648.07
1641.55
1635.09
1628.71
1622.4
1616.17
1610.02
1603.95
1597.96
1592.05
1586.23
1580.5
1574.85
1569.29
1563.83
1558.46
1553.18
1547.99
1542.9
1537.91
1533.01
1528.21
1523.5
1518.9
1514.39
1509.98
1505.66
1501.44
1497.32
1493.3
1489.37
1485.53
1481.79
1478.14
1474.59
1471.12
1467.75
1464.46
1461.25
1458.13
1455.1
1452.14
1449.26
1446.46
1443.73
1441.07
1438.48
1435.96
1433.5
1431.1
1428.75
1426.47
1424.23
1422.04
1419.89
1417.79
1415.72
1413.69
1411.68
1409.7
1407.75
1405.81
1403.88
1401.97
1400.06
1398.15
1396.23
1394.31
1392.37
1390.42
1388.45
1386.44
1384.41
1382.34
1380.23
1378.07
1375.86
1373.6
1371.27
1368.88
1366.42
1363.88
1361.26
1358.56
1355.76
1352.87
1349.88
1346.79
1343.58
1340.25
1336.81
1333.24
1329.54
1325.7
1321.72
1317.6
1313.33
1308.9
1304.31
1299.56
1294.64
1289.54
1284.27
1278.82
1273.18
1267.34
1261.32
1255.09
1248.66
1242.02
1235.18
1228.12
1220.84
1213.34
1205.61
1197.66
1189.48
1181.06
1172.41
1163.51
1154.38
1145
1135.38
1125.51
1115.39
1105.02
1094.39
1083.51
1072.38
1060.98
1049.33
1037.42
1025.25
1012.82
1000.14
987.186
973.977
960.508
946.78
932.793
918.548
904.046
889.288
874.277
859.012
843.496
827.731
811.719
795.463
778.964
762.226
745.252
728.044
710.607
692.943
675.056
656.951
638.631
620.101
601.366
582.43
563.299
543.977
524.47
504.784
484.925
464.898
444.711
424.369
403.879
383.248
362.484
341.594
320.585
299.464
278.241
256.923
235.518
214.035
192.483
170.871
149.208
127.502
105.764
84.0033
62.2291
40.4514
18.6799
-3.07524
-24.8042
-46.4969
-68.1435
-89.734
-111.259
-132.707
-154.07
-175.336
-196.496
-217.539
-238.455
-259.233
-279.864
-300.337
-320.641
-340.767
-360.705
-380.444
-399.975
-419.287
-438.372
-457.218
-475.817
-494.159
-512.234
-530.033
-547.547
-564.766
-581.681
-598.285
-614.567
-630.519
-646.133
-661.401
-676.314
-690.864
-705.044
-718.846
-732.262
-745.286
-757.91
-770.127
-781.931
-793.316
-804.275
-814.801
-824.891
-834.536
-843.734
-852.478
-860.763
-868.585
-875.94
-882.824
-889.232
-895.161
-900.608
-905.569
-910.043
-914.026
-917.517
-920.514
-923.015
-925.018
-926.52
-927.517
-928.011
2158.31
2158.13
2157.79
2157.27
2156.59
2155.73
2154.7
2153.5
2152.13
2150.59
2148.89
2147.02
2144.98
2142.78
2140.41
2137.89
2135.2
2132.36
2129.35
2126.2
2122.88
2119.42
2115.81
2112.05
2108.14
2104.09
2099.9
2095.56
2091.1
2086.49
2081.76
2076.89
2071.9
2066.79
2061.55
2056.2
2050.73
2045.14
2039.45
2033.65
2027.75
2021.74
2015.64
2009.45
2003.16
1996.78
1990.33
1983.79
1977.17
1970.48
1963.71
1956.88
1949.99
1943.03
1936.01
1928.95
1921.83
1914.66
1907.45
1900.2
1892.91
1885.59
1878.24
1870.87
1863.47
1856.05
1848.61
1841.17
1833.71
1826.24
1818.78
1811.31
1803.84
1796.39
1788.94
1781.5
1774.09
1766.69
1759.31
1751.95
1744.63
1737.34
1730.08
1722.85
1715.67
1708.53
1701.44
1694.39
1687.39
1680.45
1673.56
1666.74
1659.97
1653.27
1646.63
1640.06
1633.57
1627.14
1620.8
1614.53
1608.34
1602.23
1596.21
1590.27
1584.42
1578.65
1572.98
1567.4
1561.91
1556.52
1551.22
1546.02
1540.92
1535.91
1531
1526.19
1521.48
1516.87
1512.36
1507.95
1503.64
1499.43
1495.32
1491.3
1487.39
1483.57
1479.85
1476.22
1472.68
1469.24
1465.89
1462.63
1459.46
1456.38
1453.38
1450.46
1447.62
1444.86
1442.18
1439.57
1437.03
1434.56
1432.16
1429.81
1427.53
1425.3
1423.13
1421
1418.92
1416.89
1414.89
1412.93
1411
1409.09
1407.22
1405.36
1403.51
1401.68
1399.85
1398.02
1396.19
1394.36
1392.51
1390.65
1388.76
1386.85
1384.91
1382.93
1380.91
1378.85
1376.74
1374.57
1372.34
1370.05
1367.68
1365.24
1362.72
1360.12
1357.42
1354.63
1351.74
1348.74
1345.62
1342.4
1339.05
1335.57
1331.97
1328.22
1324.34
1320.31
1316.13
1311.79
1307.29
1302.62
1297.79
1292.78
1287.59
1282.22
1276.65
1270.9
1264.95
1258.79
1252.43
1245.87
1239.09
1232.09
1224.87
1217.43
1209.76
1201.87
1193.74
1185.37
1176.76
1167.91
1158.82
1149.48
1139.89
1130.05
1119.96
1109.62
1099.01
1088.15
1077.03
1065.65
1054.01
1042.1
1029.94
1017.5
1004.81
991.853
978.632
965.147
951.4
937.39
923.119
908.587
893.796
878.747
863.441
847.88
832.067
816.003
799.69
783.132
766.33
749.288
732.009
714.496
696.753
678.784
660.592
642.182
623.558
604.725
585.687
566.45
547.019
527.4
507.597
487.618
467.468
447.154
426.681
406.058
385.291
364.387
343.354
322.199
300.93
279.555
258.084
236.523
214.881
193.169
171.394
149.565
127.693
105.786
83.855
61.9086
39.9569
18.0099
-3.92244
-25.8302
-47.7032
-69.5313
-91.3046
-113.013
-134.645
-156.193
-177.644
-198.988
-220.216
-241.317
-262.28
-283.095
-303.752
-324.241
-344.55
-364.669
-384.59
-404.301
-423.793
-443.055
-462.078
-480.851
-499.365
-517.612
-535.58
-553.26
-570.644
-587.722
-604.486
-620.925
-637.032
-652.798
-668.215
-683.274
-697.967
-712.286
-726.224
-739.774
-752.927
-765.676
-778.016
-789.939
-801.438
-812.507
-823.14
-833.331
-843.076
-852.367
-861.201
-869.572
-877.475
-884.907
-891.862
-898.338
-904.33
-909.835
-914.85
-919.372
-923.399
-926.928
-929.958
-932.487
-934.512
-936.031
-937.039
-937.539
2161.86
2161.69
2161.34
2160.82
2160.12
2159.25
2158.21
2157
2155.62
2154.06
2152.34
2150.45
2148.39
2146.16
2143.77
2141.22
2138.5
2135.63
2132.59
2129.4
2126.05
2122.55
2118.9
2115.09
2111.14
2107.05
2102.81
2098.43
2093.91
2089.26
2084.47
2079.55
2074.5
2069.33
2064.03
2058.62
2053.09
2047.44
2041.68
2035.82
2029.85
2023.78
2017.61
2011.34
2004.99
1998.54
1992.01
1985.4
1978.71
1971.94
1965.11
1958.2
1951.23
1944.2
1937.11
1929.96
1922.77
1915.53
1908.24
1900.91
1893.55
1886.16
1878.73
1871.28
1863.8
1856.31
1848.8
1841.28
1833.75
1826.21
1818.67
1811.13
1803.59
1796.06
1788.54
1781.04
1773.55
1766.08
1758.63
1751.21
1743.82
1736.46
1729.14
1721.85
1714.6
1707.4
1700.24
1693.13
1686.07
1679.07
1672.13
1665.24
1658.42
1651.67
1644.98
1638.36
1631.81
1625.34
1618.95
1612.63
1606.4
1600.25
1594.19
1588.21
1582.33
1576.53
1570.83
1565.22
1559.71
1554.29
1548.97
1543.75
1538.63
1533.61
1528.69
1523.87
1519.16
1514.54
1510.03
1505.62
1501.32
1497.11
1493.01
1489.01
1485.11
1481.31
1477.6
1474
1470.49
1467.08
1463.76
1460.54
1457.4
1454.36
1451.4
1448.53
1445.74
1443.03
1440.4
1437.84
1435.36
1432.95
1430.61
1428.33
1426.11
1423.95
1421.85
1419.8
1417.8
1415.84
1413.93
1412.05
1410.2
1408.39
1406.6
1404.83
1403.07
1401.33
1399.6
1397.87
1396.14
1394.41
1392.66
1390.9
1389.12
1387.31
1385.48
1383.61
1381.7
1379.75
1377.74
1375.69
1373.57
1371.39
1369.13
1366.81
1364.4
1361.9
1359.32
1356.64
1353.86
1350.97
1347.97
1344.85
1341.62
1338.25
1334.75
1331.12
1327.34
1323.41
1319.33
1315.1
1310.7
1306.14
1301.4
1296.49
1291.39
1286.11
1280.64
1274.97
1269.11
1263.04
1256.76
1250.27
1243.57
1236.65
1229.5
1222.13
1214.53
1206.69
1198.62
1190.31
1181.76
1172.96
1163.92
1154.62
1145.07
1135.27
1125.21
1114.89
1104.31
1093.47
1082.37
1071
1059.37
1047.47
1035.31
1022.88
1010.18
997.211
983.976
970.474
956.705
942.67
928.368
913.802
898.973
883.881
868.529
852.917
837.048
820.924
804.548
787.921
771.047
753.928
736.568
718.969
701.136
683.072
664.782
646.268
627.537
608.592
589.438
570.08
550.525
530.776
510.841
490.725
470.433
449.974
429.353
408.577
387.653
366.589
345.392
324.07
302.631
281.083
259.435
237.694
215.871
193.973
172.011
149.992
127.928
105.827
83.6984
61.5532
39.4008
17.2514
-4.88518
-26.9986
-49.0787
-71.1152
-93.0979
-115.016
-136.86
-158.619
-180.282
-201.84
-223.28
-244.594
-265.77
-286.797
-307.666
-328.365
-348.885
-369.214
-389.343
-409.261
-428.958
-448.424
-467.649
-486.623
-505.336
-523.779
-541.941
-559.813
-577.387
-594.651
-611.598
-628.218
-644.503
-660.443
-676.031
-691.257
-706.115
-720.595
-734.689
-748.391
-761.693
-774.587
-787.066
-799.125
-810.755
-821.951
-832.706
-843.015
-852.871
-862.271
-871.207
-879.675
-887.671
-895.19
-902.227
-908.779
-914.842
-920.412
-925.487
-930.064
-934.139
-937.711
-940.777
-943.336
-945.386
-946.924
-947.944
-948.451
2165.88
2165.7
2165.35
2164.82
2164.12
2163.24
2162.18
2160.96
2159.56
2157.98
2156.24
2154.32
2152.24
2149.99
2147.57
2144.98
2142.23
2139.32
2136.25
2133.02
2129.63
2126.08
2122.38
2118.53
2114.53
2110.39
2106.09
2101.66
2097.08
2092.37
2087.52
2082.54
2077.43
2072.2
2066.84
2061.35
2055.75
2050.03
2044.21
2038.27
2032.22
2026.08
2019.83
2013.49
2007.05
2000.53
1993.91
1987.22
1980.45
1973.6
1966.68
1959.69
1952.63
1945.51
1938.34
1931.11
1923.83
1916.5
1909.13
1901.72
1894.27
1886.79
1879.28
1871.74
1864.18
1856.6
1849.01
1841.4
1833.79
1826.16
1818.54
1810.92
1803.3
1795.69
1788.09
1780.51
1772.94
1765.39
1757.87
1750.37
1742.9
1735.47
1728.07
1720.71
1713.39
1706.11
1698.88
1691.71
1684.58
1677.51
1670.5
1663.55
1656.67
1649.85
1643.1
1636.43
1629.82
1623.3
1616.85
1610.49
1604.21
1598.01
1591.9
1585.89
1579.96
1574.13
1568.39
1562.75
1557.2
1551.76
1546.42
1541.17
1536.03
1531
1526.07
1521.24
1516.52
1511.9
1507.39
1502.98
1498.68
1494.48
1490.39
1486.4
1482.52
1478.74
1475.06
1471.48
1468
1464.62
1461.34
1458.15
1455.06
1452.06
1449.15
1446.33
1443.59
1440.94
1438.37
1435.87
1433.46
1431.11
1428.84
1426.64
1424.5
1422.42
1420.4
1418.43
1416.51
1414.64
1412.82
1411.03
1409.28
1407.57
1405.88
1404.21
1402.56
1400.93
1399.3
1397.68
1396.07
1394.44
1392.81
1391.17
1389.51
1387.82
1386.1
1384.36
1382.57
1380.74
1378.86
1376.93
1374.94
1372.88
1370.76
1368.56
1366.27
1363.91
1361.45
1358.9
1356.24
1353.48
1350.61
1347.62
1344.5
1341.26
1337.89
1334.37
1330.72
1326.91
1322.95
1318.83
1314.55
1310.1
1305.47
1300.67
1295.68
1290.5
1285.14
1279.57
1273.8
1267.83
1261.65
1255.25
1248.63
1241.8
1234.73
1227.44
1219.91
1212.15
1204.14
1195.9
1187.4
1178.66
1169.67
1160.42
1150.92
1141.16
1131.14
1120.85
1110.3
1099.49
1088.41
1077.06
1065.44
1053.55
1041.38
1028.95
1016.25
1003.27
990.02
976.498
962.705
948.641
934.306
919.702
904.83
889.69
874.285
858.616
842.686
826.495
810.047
793.343
776.388
759.182
741.73
724.036
706.101
687.931
669.529
650.9
632.047
612.976
593.692
574.199
554.503
534.609
514.524
494.253
473.803
453.18
432.391
411.443
390.342
369.098
347.716
326.206
304.574
282.83
260.983
239.039
217.01
194.903
172.728
150.494
128.212
105.89
83.5389
61.1683
38.7884
16.4092
-5.95903
-28.3058
-50.6207
-72.8936
-95.1139
-117.271
-139.354
-161.353
-183.257
-205.055
-226.736
-248.29
-269.706
-290.974
-312.082
-333.02
-353.777
-374.343
-394.707
-414.859
-434.789
-454.486
-473.94
-493.14
-512.078
-530.742
-549.124
-567.213
-585
-602.475
-619.629
-636.454
-652.939
-669.077
-684.858
-700.274
-715.317
-729.978
-744.25
-758.124
-771.594
-784.651
-797.289
-809.501
-821.279
-832.618
-843.511
-853.952
-863.936
-873.456
-882.508
-891.086
-899.185
-906.802
-913.931
-920.569
-926.711
-932.355
-937.496
-942.133
-946.262
-949.881
-952.988
-955.581
-957.658
-959.217
-960.251
-960.764
2170.37
2170.18
2169.83
2169.29
2168.58
2167.69
2166.62
2165.37
2163.95
2162.36
2160.59
2158.65
2156.54
2154.26
2151.8
2149.18
2146.4
2143.44
2140.33
2137.05
2133.62
2130.02
2126.27
2122.37
2118.32
2114.11
2109.76
2105.26
2100.63
2095.85
2090.93
2085.89
2080.7
2075.39
2069.96
2064.4
2058.72
2052.93
2047.02
2041
2034.87
2028.64
2022.3
2015.87
2009.35
2002.74
1996.03
1989.25
1982.38
1975.44
1968.43
1961.34
1954.19
1946.98
1939.71
1932.38
1925.01
1917.58
1910.12
1902.61
1895.07
1887.49
1879.88
1872.25
1864.59
1856.92
1849.23
1841.53
1833.82
1826.11
1818.4
1810.68
1802.97
1795.27
1787.58
1779.91
1772.25
1764.62
1757.01
1749.42
1741.87
1734.35
1726.87
1719.43
1712.03
1704.67
1697.36
1690.11
1682.91
1675.76
1668.68
1661.66
1654.7
1647.82
1641
1634.26
1627.59
1621.01
1614.5
1608.08
1601.74
1595.5
1589.34
1583.27
1577.3
1571.43
1565.65
1559.97
1554.4
1548.92
1543.55
1538.29
1533.13