/*--------------------------------*- C++ -*----------------------------------*\
| =========                 |                                                 |
| \\      /  F ield         | OpenFOAM: The Open Source CFD Toolbox           |
|  \\    /   O peration     | Version:  v2006                                 |
|   \\  /    A nd           | Website:  www.openfoam.com                      |
|    \\/     M anipulation  |                                                 |
\*---------------------------------------------------------------------------*/
FoamFile
{
    version     2.0;
    format      ascii;
    class       volScalarField;
    location    "17.1";
    object      p_rgh;
}
// * * * * * * * * * * * * * * * * * * * * * * * * * * * * * * * * * * * * * //

dimensions      [1 -1 -2 0 0 0 0];


internalField   nonuniform List<scalar> 
52500
(
339.6
339.601
339.609
339.623
339.642
339.664
339.691
339.72
339.754
339.792
339.835
339.882
339.935
339.993
340.057
340.129
340.207
340.293
340.388
340.491
340.604
340.727
340.861
341.006
341.164
341.334
341.518
341.716
341.929
342.157
342.401
342.661
342.94
343.237
343.552
343.888
344.245
344.622
345.023
345.446
345.893
346.365
346.864
347.39
347.944
348.527
349.142
349.789
350.47
351.186
351.938
352.727
353.553
354.416
355.317
356.255
357.231
358.247
359.302
360.4
361.541
362.726
363.958
365.237
366.566
367.945
369.375
370.859
372.397
373.991
375.643
377.353
379.124
380.956
382.852
384.813
386.84
388.935
391.1
393.335
395.644
398.026
400.484
403.02
405.634
408.33
411.107
413.968
416.915
419.948
423.071
426.283
429.587
432.985
436.477
440.066
443.753
447.539
451.426
455.416
459.51
463.708
468.014
472.429
476.953
481.59
486.34
491.205
496.186
501.285
506.504
511.843
517.304
522.889
528.598
534.433
540.396
546.487
552.709
559.061
565.546
572.164
578.917
585.805
592.831
599.993
607.295
614.736
622.316
630.038
637.901
645.907
654.054
662.345
670.778
679.355
688.075
696.938
705.944
715.093
724.384
733.815
743.387
753.098
762.95
772.94
783.067
793.33
803.728
814.258
824.921
835.713
846.633
857.678
868.846
880.134
891.538
903.057
914.689
926.432
938.283
950.241
962.301
974.461
986.717
999.064
1011.5
1024.01
1036.6
1049.27
1061.99
1074.78
1087.63
1100.52
1113.46
1126.44
1139.45
1152.5
1165.57
1178.67
1191.78
1204.9
1218.03
1231.16
1244.29
1257.4
1270.5
1283.58
1296.63
1309.64
1322.61
1335.53
1348.4
1361.21
1373.96
1386.64
1399.23
1411.74
1424.17
1436.5
1448.74
1460.87
1472.9
1484.81
1496.6
1508.26
1519.8
1531.19
1542.45
1553.56
1564.52
1575.33
1585.97
1596.45
1606.76
1616.9
1626.87
1636.65
1646.25
1655.67
1664.89
1673.92
1682.76
1691.39
1699.83
1708.06
1716.08
1723.9
1731.5
1738.89
1746.07
1753.03
1759.77
1766.29
1772.6
1778.68
1784.54
1790.18
1795.6
1800.8
1805.78
1810.53
1815.06
1819.37
1823.46
1827.33
1830.98
1834.42
1837.64
1840.64
1843.43
1846.01
1848.38
1850.54
1852.5
1854.26
1855.81
1857.16
1858.32
1859.28
1860.04
1860.61
1861
1861.23
1861.27
1861.15
1860.85
1860.38
1859.75
1858.95
1858.01
1856.91
1855.66
1854.28
1852.75
1851.09
1849.29
1847.36
1845.3
1843.12
1840.82
1838.41
1835.89
1833.27
1830.55
1827.72
1824.76
1821.79
1818.81
1815.8
1812.74
1809.63
1806.47
1803.24
1799.95
1796.61
1793.21
1789.77
1786.3
1782.79
1779.26
1775.71
1772.16
1768.59
1765.02
1761.46
1757.9
1754.35
1750.82
1747.3
1743.81
1740.35
1736.91
1733.51
1730.16
1726.84
1723.58
1720.36
1717.2
1714.1
1711.06
1708.09
1705.18
1702.35
1699.59
1696.91
1694.32
1691.8
1689.38
1687.04
1684.79
1682.64
1680.59
1678.64
1676.79
1675.04
1673.41
1671.88
1670.47
1669.16
1667.98
1666.91
1665.96
1665.12
1664.41
1663.81
1663.34
1662.98
1662.74
1662.6
339.572
339.572
339.582
339.598
339.617
339.64
339.666
339.695
339.728
339.765
339.806
339.852
339.904
339.96
340.023
340.092
340.169
340.253
340.345
340.446
340.557
340.678
340.81
340.953
341.108
341.277
341.458
341.654
341.865
342.091
342.333
342.592
342.869
343.164
343.478
343.812
344.166
344.542
344.94
345.361
345.807
346.277
346.774
347.298
347.85
348.431
349.043
349.687
350.365
351.077
351.825
352.609
353.43
354.287
355.182
356.115
357.086
358.096
359.147
360.24
361.376
362.558
363.785
365.061
366.385
367.76
369.186
370.666
372.2
373.789
375.437
377.143
378.909
380.738
382.63
384.587
386.61
388.701
390.862
393.094
395.399
397.778
400.233
402.765
405.376
408.068
410.843
413.701
416.644
419.674
422.793
426.002
429.303
432.697
436.186
439.771
443.454
447.236
451.12
455.106
459.196
463.392
467.696
472.107
476.63
481.264
486.011
490.873
495.851
500.946
506.161
511.497
516.954
522.535
528.241
534.073
540.033
546.121
552.339
558.689
565.171
571.787
578.538
585.425
592.448
599.609
606.909
614.349
621.929
629.65
637.512
645.517
653.665
661.955
670.389
678.965
687.686
696.55
705.557
714.709
724.003
733.434
743.007
752.721
762.577
772.573
782.706
792.976
803.38
813.919
824.589
835.39
846.32
857.377
868.558
879.859
891.274
902.806
914.453
926.212
938.079
950.051
962.124
974.292
986.553
998.902
1011.33
1023.85
1036.43
1049.09
1061.81
1074.6
1087.44
1100.34
1113.29
1126.28
1139.31
1152.38
1165.47
1178.59
1191.73
1204.87
1218.02
1231.17
1244.31
1257.44
1270.55
1283.64
1296.7
1309.72
1322.7
1335.63
1348.52
1361.34
1374.1
1386.79
1399.41
1411.95
1424.4
1436.76
1449.02
1461.17
1473.21
1485.14
1496.94
1508.62
1520.17
1531.58
1542.85
1553.97
1564.94
1575.76
1586.41
1596.91
1607.23
1617.38
1627.35
1637.15
1646.76
1656.18
1665.41
1674.45
1683.3
1691.94
1700.38
1708.62
1716.65
1724.47
1732.07
1739.47
1746.65
1753.61
1760.36
1766.88
1773.19
1779.27
1785.14
1790.78
1796.2
1801.39
1806.37
1811.12
1815.65
1819.96
1824.05
1827.92
1831.57
1835
1838.21
1841.21
1844
1846.57
1848.94
1851.1
1853.05
1854.8
1856.35
1857.7
1858.85
1859.81
1860.59
1861.18
1861.58
1861.79
1861.83
1861.69
1861.38
1860.91
1860.28
1859.48
1858.53
1857.43
1856.18
1854.78
1853.25
1851.55
1849.7
1847.71
1845.6
1843.36
1841.01
1838.57
1836
1833.31
1830.52
1827.68
1824.84
1821.94
1818.99
1815.98
1812.91
1809.79
1806.6
1803.34
1800.03
1796.66
1793.24
1789.78
1786.29
1782.76
1779.22
1775.66
1772.09
1768.51
1764.93
1761.35
1757.77
1754.21
1750.66
1747.13
1743.63
1740.15
1736.7
1733.29
1729.92
1726.59
1723.32
1720.09
1716.92
1713.8
1710.75
1707.77
1704.85
1702.01
1699.24
1696.55
1693.95
1691.42
1688.99
1686.64
1684.39
1682.23
1680.17
1678.21
1676.35
1674.6
1672.96
1671.42
1670
1668.69
1667.5
1666.42
1665.46
1664.62
1663.91
1663.31
1662.83
1662.47
1662.23
1662.1
339.419
339.423
339.435
339.452
339.472
339.494
339.52
339.549
339.581
339.617
339.658
339.703
339.753
339.809
339.87
339.938
340.014
340.097
340.188
340.289
340.399
340.519
340.65
340.792
340.947
341.114
341.295
341.49
341.699
341.924
342.164
342.422
342.696
342.989
343.3
343.632
343.983
344.356
344.751
345.17
345.612
346.079
346.573
347.093
347.642
348.219
348.826
349.465
350.135
350.838
351.575
352.348
353.156
354.001
354.884
355.805
356.766
357.768
358.812
359.898
361.029
362.204
363.426
364.696
366.015
367.385
368.806
370.28
371.809
373.394
375.036
376.738
378.499
380.323
382.21
384.161
386.18
388.266
390.421
392.648
394.947
397.32
399.77
402.296
404.901
407.587
410.355
413.207
416.144
419.168
422.281
425.483
428.777
432.165
435.647
439.225
442.902
446.677
450.554
454.533
458.617
462.806
467.102
471.507
476.022
480.649
485.389
490.244
495.215
500.303
505.511
510.839
516.29
521.864
527.563
533.388
539.341
545.422
551.634
557.978
564.454
571.064
577.809
584.691
591.709
598.866
606.162
613.598
621.174
628.892
636.752
644.754
652.9
661.188
669.621
678.197
686.917
695.781
704.788
713.937
723.228
732.665
742.24
751.96
761.827
771.832
781.974
792.253
802.668
813.217
823.898
834.711
845.654
856.726
867.927
879.255
890.666
902.207
913.868
925.641
937.523
949.51
961.598
973.784
986.063
998.432
1010.89
1023.42
1036.03
1048.72
1061.47
1074.29
1087.16
1100.09
1113.07
1126.09
1139.15
1152.24
1165.36
1178.51
1191.67
1204.84
1218.02
1231.2
1244.37
1257.53
1270.68
1283.8
1296.89
1309.95
1322.96
1335.93
1348.85
1361.7
1374.5
1387.22
1399.87
1412.43
1424.91
1437.29
1449.57
1461.75
1473.82
1485.77
1497.6
1509.31
1520.88
1532.32
1543.61
1554.76
1565.75
1576.59
1587.27
1597.79
1608.13
1618.31
1628.3
1638.12
1647.75
1657.19
1666.44
1675.5
1684.36
1693.01
1701.47
1709.72
1717.76
1725.59
1733.2
1740.61
1747.8
1754.77
1761.52
1768.05
1774.36
1780.45
1786.32
1791.96
1797.38
1802.58
1807.55
1812.3
1816.83
1821.13
1825.22
1829.08
1832.72
1836.15
1839.36
1842.35
1845.12
1847.69
1850.04
1852.18
1854.12
1855.85
1857.39
1858.72
1859.85
1860.79
1861.55
1862.12
1862.5
1862.7
1862.71
1862.56
1862.23
1861.73
1861.07
1860.25
1859.27
1858.14
1856.85
1855.42
1853.82
1852.13
1850.3
1848.35
1846.26
1844.06
1841.74
1839.28
1836.73
1834.08
1831.34
1828.51
1825.61
1822.63
1819.59
1816.49
1813.34
1810.13
1806.87
1803.55
1800.19
1796.78
1793.32
1789.83
1786.31
1782.76
1779.19
1775.6
1772
1768.39
1764.78
1761.17
1757.57
1753.98
1750.4
1746.85
1743.31
1739.81
1736.34
1732.9
1729.5
1726.15
1722.85
1719.6
1716.41
1713.27
1710.2
1707.2
1704.26
1701.4
1698.62
1695.91
1693.29
1690.75
1688.3
1685.94
1683.67
1681.5
1679.43
1677.46
1675.59
1673.83
1672.18
1670.63
1669.2
1667.89
1666.69
1665.6
1664.64
1663.8
1663.07
1662.47
1661.99
1661.63
1661.39
1661.25
339.129
339.131
339.143
339.161
339.181
339.204
339.23
339.259
339.292
339.329
339.37
339.416
339.467
339.523
339.586
339.656
339.732
339.817
339.909
340.011
340.122
340.243
340.375
340.519
340.674
340.841
341.022
341.216
341.425
341.648
341.887
342.142
342.414
342.704
343.013
343.341
343.688
344.057
344.448
344.862
345.3
345.762
346.25
346.764
347.307
347.878
348.479
349.111
349.774
350.471
351.201
351.966
352.767
353.604
354.479
355.392
356.345
357.339
358.374
359.452
360.574
361.741
362.955
364.217
365.527
366.888
368.3
369.766
371.286
372.862
374.495
376.187
377.939
379.753
381.63
383.572
385.58
387.656
389.801
392.017
394.306
396.669
399.107
401.623
404.218
406.893
409.65
412.491
415.417
418.43
421.532
424.723
428.006
431.383
434.854
438.421
442.086
445.85
449.716
453.684
457.756
461.933
466.218
470.612
475.115
479.731
484.459
489.303
494.263
499.34
504.537
509.854
515.294
520.857
526.546
532.361
538.303
544.375
550.578
556.912
563.379
569.981
576.718
583.592
590.603
597.753
605.042
612.472
620.044
627.757
635.613
643.613
651.756
660.043
668.475
677.051
685.772
694.638
703.649
712.804
722.104
731.549
741.141
750.872
760.737
770.744
780.892
791.178
801.602
812.161
822.854
833.677
844.629
855.706
866.905
878.224
889.7
901.28
912.971
924.773
936.683
948.698
960.815
973.032
985.342
997.743
1010.23
1022.8
1035.45
1048.17
1060.96
1073.81
1086.73
1099.7
1112.71
1125.78
1138.88
1152.01
1165.18
1178.37
1191.58
1204.79
1218.02
1231.24
1244.46
1257.67
1270.86
1284.03
1297.17
1310.27
1323.33
1336.35
1349.31
1362.22
1375.06
1387.83
1400.52
1413.13
1425.66
1438.09
1450.42
1462.64
1474.75
1486.75
1498.62
1510.37
1521.98
1533.46
1544.79
1555.98
1567.01
1577.89
1588.6
1599.15
1609.52
1619.73
1629.75
1639.6
1649.25
1658.72
1668
1677.08
1685.96
1694.64
1703.11
1711.38
1719.44
1727.29
1734.92
1742.34
1749.53
1756.52
1763.28
1769.82
1776.13
1782.23
1788.1
1793.74
1799.16
1804.36
1809.33
1814.08
1818.6
1822.9
1826.98
1830.83
1834.47
1837.88
1841.08
1844.05
1846.82
1849.37
1851.7
1853.83
1855.75
1857.46
1858.98
1860.29
1861.4
1862.32
1863.05
1863.59
1863.94
1864.11
1864.1
1863.91
1863.56
1863.03
1862.34
1861.49
1860.48
1859.32
1858
1856.54
1854.93
1853.18
1851.31
1849.3
1847.17
1844.92
1842.55
1840.06
1837.47
1834.79
1832
1829.14
1826.2
1823.19
1820.12
1816.98
1813.78
1810.52
1807.2
1803.83
1800.41
1796.95
1793.44
1789.91
1786.34
1782.74
1779.13
1775.5
1771.85
1768.2
1764.55
1760.9
1757.26
1753.63
1750.01
1746.41
1742.84
1739.3
1735.79
1732.32
1728.88
1725.5
1722.16
1718.88
1715.65
1712.49
1709.38
1706.35
1703.39
1700.5
1697.69
1694.95
1692.31
1689.75
1687.27
1684.89
1682.61
1680.42
1678.33
1676.35
1674.47
1672.7
1671.03
1669.48
1668.04
1666.72
1665.51
1664.42
1663.45
1662.61
1661.88
1661.28
1660.8
1660.44
1660.19
1660.04
338.721
338.722
338.734
338.753
338.775
338.799
338.827
338.859
338.894
338.934
338.979
339.028
339.083
339.144
339.211
339.284
339.365
339.453
339.549
339.654
339.768
339.892
340.026
340.171
340.327
340.495
340.675
340.869
341.076
341.297
341.533
341.786
342.054
342.34
342.644
342.967
343.31
343.673
344.058
344.466
344.897
345.352
345.833
346.34
346.874
347.437
348.029
348.651
349.305
349.991
350.71
351.465
352.254
353.08
353.944
354.847
355.788
356.771
357.795
358.862
359.972
361.128
362.33
363.58
364.879
366.227
367.628
369.081
370.589
372.152
373.772
375.451
377.19
378.991
380.855
382.783
384.778
386.84
388.971
391.174
393.449
395.797
398.222
400.723
403.304
405.965
408.708
411.535
414.446
417.445
420.532
423.709
426.978
430.339
433.796
437.349
440.999
444.749
448.6
452.554
456.611
460.774
465.044
469.423
473.912
478.512
483.226
488.055
492.999
498.062
503.244
508.547
513.972
519.521
525.196
530.997
536.926
542.984
549.174
555.495
561.95
568.54
575.266
582.129
589.13
596.271
603.551
610.973
618.537
626.244
634.094
642.088
650.228
658.512
666.942
675.517
684.238
693.106
702.119
711.278
720.583
730.033
739.629
749.367
759.247
769.268
779.431
789.733
800.174
810.751
821.464
832.31
843.288
854.395
865.629
876.988
888.476
900.082
911.805
923.638
935.582
947.633
959.788
972.041
984.391
996.833
1009.36
1021.98
1034.67
1047.44
1060.28
1073.18
1086.15
1099.17
1112.24
1125.36
1138.52
1151.71
1164.93
1178.18
1191.45
1204.73
1218.02
1231.3
1244.59
1257.86
1271.11
1284.34
1297.54
1310.71
1323.84
1336.92
1349.95
1362.91
1375.82
1388.65
1401.4
1414.08
1426.66
1439.15
1451.54
1463.82
1475.99
1488.04
1499.97
1511.77
1523.44
1534.97
1546.35
1557.59
1568.67
1579.59
1590.35
1600.95
1611.37
1621.61
1631.68
1641.56
1651.26
1660.76
1670.07
1679.18
1688.1
1696.8
1705.3
1713.6
1721.68
1729.55
1737.2
1744.63
1751.85
1758.85
1765.62
1772.17
1778.5
1784.6
1790.47
1796.12
1801.54
1806.74
1811.71
1816.45
1820.97
1825.26
1829.33
1833.17
1836.79
1840.19
1843.37
1846.33
1849.08
1851.61
1853.92
1856.02
1857.92
1859.61
1861.09
1862.37
1863.45
1864.34
1865.03
1865.54
1865.85
1865.99
1865.94
1865.71
1865.31
1864.74
1864.01
1863.11
1862.06
1860.85
1859.48
1857.98
1856.32
1854.54
1852.62
1850.57
1848.39
1846.1
1843.69
1841.17
1838.55
1835.82
1833
1830.09
1827.09
1824.02
1820.88
1817.66
1814.39
1811.05
1807.66
1804.22
1800.73
1797.2
1793.64
1790.04
1786.4
1782.75
1779.07
1775.38
1771.68
1767.97
1764.26
1760.56
1756.86
1753.17
1749.5
1745.85
1742.22
1738.63
1735.07
1731.55
1728.07
1724.63
1721.25
1717.92
1714.65
1711.44
1708.29
1705.22
1702.22
1699.29
1696.44
1693.68
1691
1688.41
1685.91
1683.5
1681.19
1678.98
1676.87
1674.87
1672.97
1671.18
1669.51
1667.94
1666.5
1665.16
1663.95
1662.86
1661.88
1661.03
1660.3
1659.7
1659.22
1658.86
1658.61
1658.45
338.22
338.221
338.233
338.253
338.277
338.305
338.336
338.371
338.411
338.455
338.504
338.558
338.618
338.683
338.755
338.833
338.918
339.01
339.11
339.217
339.334
339.459
339.594
339.739
339.895
340.062
340.241
340.432
340.635
340.853
341.085
341.333
341.596
341.876
342.174
342.49
342.826
343.182
343.559
343.959
344.381
344.828
345.3
345.798
346.322
346.875
347.457
348.069
348.712
349.388
350.096
350.838
351.616
352.43
353.281
354.17
355.098
356.067
357.077
358.13
359.227
360.368
361.556
362.791
364.075
365.409
366.794
368.232
369.724
371.271
372.875
374.538
376.261
378.045
379.892
381.803
383.78
385.825
387.939
390.124
392.381
394.712
397.118
399.602
402.164
404.807
407.531
410.34
413.233
416.213
419.282
422.441
425.691
429.034
432.472
436.006
439.637
443.369
447.201
451.135
455.173
459.317
463.569
467.928
472.398
476.98
481.675
486.485
491.411
496.455
501.619
506.904
512.311
517.842
523.499
529.282
535.194
541.236
547.41
553.716
560.156
566.731
573.443
580.292
587.281
594.409
601.679
609.091
616.646
624.344
632.187
640.176
648.31
656.591
665.019
673.593
682.315
691.185
700.202
709.366
718.677
728.135
737.739
747.488
757.382
767.419
777.598
787.919
798.38
808.98
819.717
830.589
841.594
852.731
863.997
875.391
886.91
898.551
910.31
922.186
934.173
946.271
958.472
970.777
983.179
995.675
1008.26
1020.93
1033.68
1046.51
1059.42
1072.38
1085.42
1098.51
1111.65
1124.83
1138.06
1151.33
1164.63
1177.95
1191.29
1204.64
1218.01
1231.37
1244.73
1258.08
1271.41
1284.73
1298.01
1311.26
1324.46
1337.62
1350.73
1363.78
1376.76
1389.67
1402.5
1415.25
1427.91
1440.47
1452.94
1465.29
1477.54
1489.66
1501.66
1513.53
1525.27
1536.86
1548.31
1559.61
1570.75
1581.74
1592.56
1603.21
1613.68
1623.98
1634.1
1644.03
1653.77
1663.32
1672.67
1681.82
1690.77
1699.52
1708.05
1716.38
1724.49
1732.38
1740.06
1747.52
1754.76
1761.77
1768.56
1775.12
1781.46
1787.57
1793.45
1799.1
1804.53
1809.72
1814.69
1819.43
1823.94
1828.22
1832.28
1836.11
1839.71
1843.09
1846.25
1849.19
1851.91
1854.41
1856.7
1858.77
1860.64
1862.29
1863.74
1864.98
1866.03
1866.87
1867.52
1867.98
1868.25
1868.34
1868.24
1867.97
1867.52
1866.9
1866.11
1865.16
1864.05
1862.78
1861.37
1859.8
1858.09
1856.24
1854.26
1852.15
1849.91
1847.55
1845.08
1842.49
1839.8
1837.01
1834.12
1831.14
1828.08
1824.94
1821.72
1818.44
1815.09
1811.68
1808.21
1804.69
1801.13
1797.52
1793.88
1790.2
1786.49
1782.76
1779.01
1775.25
1771.47
1767.69
1763.91
1760.14
1756.37
1752.61
1748.87
1745.15
1741.46
1737.8
1734.18
1730.59
1727.05
1723.56
1720.12
1716.73
1713.4
1710.14
1706.94
1703.81
1700.76
1697.79
1694.89
1692.08
1689.36
1686.73
1684.19
1681.75
1679.41
1677.17
1675.03
1673.01
1671.09
1669.28
1667.58
1666
1664.54
1663.2
1661.97
1660.87
1659.89
1659.03
1658.3
1657.69
1657.21
1656.85
1656.6
1656.43
337.638
337.639
337.652
337.673
337.699
337.73
337.764
337.804
337.847
337.896
337.949
338.008
338.072
338.142
338.217
338.299
338.387
338.482
338.584
338.694
338.811
338.937
339.072
339.216
339.37
339.534
339.71
339.897
340.097
340.309
340.536
340.777
341.034
341.308
341.598
341.907
342.234
342.582
342.95
343.34
343.753
344.189
344.651
345.138
345.651
346.193
346.763
347.362
347.993
348.655
349.35
350.079
350.843
351.642
352.478
353.353
354.266
355.219
356.214
357.251
358.331
359.456
360.627
361.845
363.111
364.427
365.794
367.214
368.687
370.215
371.801
373.444
375.146
376.91
378.737
380.628
382.584
384.608
386.701
388.864
391.1
393.409
395.794
398.256
400.797
403.417
406.12
408.906
411.778
414.736
417.782
420.919
424.147
427.468
430.883
434.395
438.004
441.713
445.523
449.435
453.451
457.573
461.802
466.139
470.586
475.146
479.818
484.605
489.509
494.531
499.672
504.935
510.32
515.829
521.464
527.227
533.118
539.14
545.293
551.58
558.001
564.558
571.253
578.086
585.059
592.173
599.429
606.828
614.371
622.06
629.894
637.875
646.003
654.279
662.704
671.277
679.999
688.87
697.891
707.061
716.379
725.846
735.461
745.224
755.133
765.188
775.388
785.731
796.217
806.844
817.611
828.515
839.555
850.729
862.035
873.47
885.032
896.719
908.528
920.454
932.494
944.645
956.905
969.268
981.731
994.291
1006.94
1019.68
1032.5
1045.41
1058.38
1071.43
1084.54
1097.71
1110.94
1124.21
1137.53
1150.88
1164.26
1177.67
1191.1
1204.55
1218
1231.46
1244.92
1258.36
1271.79
1285.19
1298.57
1311.91
1325.22
1338.47
1351.68
1364.82
1377.89
1390.9
1403.83
1416.67
1429.42
1442.08
1454.63
1467.07
1479.4
1491.61
1503.7
1515.65
1527.47
1539.14
1550.67
1562.05
1573.26
1584.32
1595.21
1605.93
1616.47
1626.83
1637.01
1647
1656.8
1666.4
1675.8
1685.01
1694
1702.79
1711.37
1719.73
1727.87
1735.8
1743.51
1750.99
1758.25
1765.29
1772.1
1778.68
1785.03
1791.15
1797.04
1802.69
1808.12
1813.32
1818.28
1823.01
1827.51
1831.79
1835.83
1839.64
1843.23
1846.59
1849.72
1852.63
1855.32
1857.8
1860.05
1862.09
1863.91
1865.53
1866.93
1868.13
1869.13
1869.93
1870.53
1870.93
1871.15
1871.18
1871.03
1870.69
1870.18
1869.5
1868.64
1867.63
1866.45
1865.11
1863.63
1861.99
1860.21
1858.29
1856.24
1854.05
1851.74
1849.3
1846.75
1844.09
1841.32
1838.45
1835.49
1832.43
1829.28
1826.05
1822.75
1819.38
1815.94
1812.44
1808.88
1805.27
1801.62
1797.92
1794.19
1790.42
1786.62
1782.8
1778.96
1775.11
1771.24
1767.38
1763.51
1759.65
1755.79
1751.96
1748.13
1744.34
1740.57
1736.83
1733.13
1729.46
1725.85
1722.28
1718.77
1715.31
1711.92
1708.59
1705.32
1702.13
1699.02
1695.99
1693.04
1690.18
1687.4
1684.72
1682.14
1679.65
1677.27
1674.99
1672.82
1670.76
1668.8
1666.97
1665.25
1663.65
1662.16
1660.8
1659.56
1658.44
1657.45
1656.58
1655.84
1655.23
1654.74
1654.37
1654.12
1653.95
336.978
336.979
336.992
337.015
337.044
337.077
337.115
337.157
337.205
337.257
337.314
337.376
337.444
337.517
337.595
337.679
337.769
337.866
337.969
338.079
338.196
338.321
338.454
338.596
338.747
338.908
339.079
339.262
339.456
339.663
339.883
340.117
340.367
340.632
340.914
341.214
341.532
341.87
342.229
342.608
343.01
343.436
343.886
344.361
344.862
345.391
345.948
346.535
347.151
347.8
348.48
349.194
349.942
350.725
351.545
352.403
353.299
354.235
355.211
356.23
357.291
358.397
359.548
360.746
361.992
363.288
364.633
366.031
367.483
368.989
370.551
372.172
373.851
375.591
377.394
379.261
381.193
383.192
385.26
387.398
389.609
391.893
394.252
396.688
399.203
401.798
404.475
407.235
410.081
413.013
416.033
419.144
422.346
425.64
429.03
432.516
436.099
439.782
443.565
447.451
451.44
455.535
459.738
464.048
468.469
473.002
477.648
482.408
487.286
492.281
497.396
502.633
507.992
513.476
519.086
524.823
530.69
536.688
542.818
549.082
555.481
562.017
568.691
575.504
582.459
589.555
596.795
604.179
611.709
619.385
627.208
635.18
643.3
651.571
659.991
668.562
677.284
686.157
695.182
704.357
713.684
723.162
732.79
742.568
752.495
762.571
772.794
783.163
793.678
804.336
815.136
826.077
837.157
848.373
859.723
871.206
882.818
894.557
906.42
918.404
930.505
942.72
955.046
967.478
980.014
992.648
1005.38
1018.2
1031.1
1044.09
1057.15
1070.28
1083.48
1096.75
1110.07
1123.45
1136.87
1150.32
1163.81
1177.33
1190.87
1204.42
1217.98
1231.55
1245.11
1258.67
1272.21
1285.73
1299.22
1312.68
1326.09
1339.46
1352.78
1366.03
1379.22
1392.33
1405.37
1418.32
1431.18
1443.95
1456.6
1469.15
1481.59
1493.9
1506.08
1518.13
1530.05
1541.82
1553.44
1564.9
1576.21
1587.35
1598.32
1609.12
1619.74
1630.17
1640.42
1650.48
1660.35
1670.01
1679.48
1688.74
1697.79
1706.62
1715.25
1723.66
1731.84
1739.81
1747.55
1755.07
1762.36
1769.42
1776.25
1782.84
1789.21
1795.34
1801.24
1806.9
1812.33
1817.53
1822.49
1827.21
1831.7
1835.96
1839.99
1843.78
1847.34
1850.68
1853.79
1856.67
1859.32
1861.76
1863.97
1865.97
1867.75
1869.31
1870.67
1871.82
1872.76
1873.5
1874.04
1874.38
1874.54
1874.5
1874.28
1873.87
1873.29
1872.54
1871.61
1870.51
1869.26
1867.84
1866.28
1864.56
1862.69
1860.69
1858.55
1856.27
1853.87
1851.35
1848.71
1845.95
1843.09
1840.13
1837.06
1833.91
1830.66
1827.34
1823.94
1820.46
1816.92
1813.32
1809.66
1805.94
1802.18
1798.38
1794.54
1790.67
1786.77
1782.84
1778.9
1774.95
1770.98
1767.01
1763.05
1759.09
1755.13
1751.2
1747.28
1743.39
1739.53
1735.7
1731.9
1728.15
1724.45
1720.8
1717.2
1713.66
1710.19
1706.78
1703.44
1700.18
1696.99
1693.89
1690.88
1687.95
1685.12
1682.38
1679.74
1677.2
1674.76
1672.44
1670.22
1668.12
1666.13
1664.25
1662.5
1660.87
1659.36
1657.97
1656.71
1655.57
1654.56
1653.68
1652.92
1652.3
1651.8
1651.43
1651.17
1651.01
336.239
336.24
336.255
336.279
336.31
336.345
336.386
336.431
336.481
336.536
336.596
336.661
336.731
336.806
336.886
336.971
337.062
337.159
337.262
337.371
337.487
337.61
337.74
337.879
338.026
338.182
338.348
338.525
338.713
338.913
339.126
339.353
339.594
339.851
340.124
340.414
340.723
341.05
341.397
341.766
342.156
342.57
343.007
343.469
343.957
344.472
345.015
345.586
346.188
346.82
347.484
348.181
348.912
349.678
350.48
351.319
352.196
353.112
354.068
355.066
356.107
357.191
358.32
359.495
360.718
361.989
363.311
364.684
366.111
367.591
369.128
370.722
372.374
374.088
375.863
377.702
379.606
381.576
383.616
385.725
387.906
390.161
392.491
394.898
397.383
399.949
402.596
405.326
408.142
411.045
414.035
417.116
420.288
423.553
426.913
430.368
433.922
437.574
441.328
445.183
449.143
453.208
457.38
461.66
466.05
470.552
475.168
479.898
484.745
489.71
494.795
500.001
505.33
510.784
516.365
522.074
527.912
533.882
539.984
546.222
552.595
559.106
565.756
572.547
579.479
586.555
593.776
601.142
608.655
616.317
624.127
632.088
640.199
648.462
656.877
665.445
674.167
683.041
692.07
701.252
710.588
720.077
729.72
739.515
749.462
759.561
769.81
780.209
790.756
801.449
812.288
823.271
834.396
845.66
857.062
868.599
880.269
892.069
903.997
916.048
928.22
940.509
952.912
965.425
978.044
990.765
1003.58
1016.5
1029.5
1042.59
1055.76
1069
1082.32
1095.68
1109.11
1122.59
1136.12
1149.69
1163.3
1176.94
1190.6
1204.27
1217.96
1231.65
1245.35
1259.03
1272.7
1286.35
1299.97
1313.55
1327.1
1340.6
1354.04
1367.42
1380.74
1393.98
1407.15
1420.23
1433.21
1446.1
1458.88
1471.55
1484.1
1496.53
1508.82
1520.99
1533.01
1544.89
1556.61
1568.18
1579.59
1590.83
1601.89
1612.78
1623.49
1634.01
1644.35
1654.49
1664.43
1674.16
1683.7
1693.02
1702.13
1711.03
1719.71
1728.17
1736.4
1744.41
1752.19
1759.75
1767.07
1774.16
1781.01
1787.63
1794.01
1800.16
1806.07
1811.74
1817.17
1822.36
1827.32
1832.03
1836.51
1840.76
1844.76
1848.53
1852.07
1855.38
1858.45
1861.3
1863.91
1866.31
1868.47
1870.42
1872.15
1873.66
1874.96
1876.05
1876.93
1877.6
1878.07
1878.35
1878.43
1878.31
1878.01
1877.53
1876.87
1876.02
1875.01
1873.83
1872.48
1870.97
1869.31
1867.5
1865.53
1863.43
1861.19
1858.81
1856.31
1853.68
1850.94
1848.08
1845.11
1842.04
1838.86
1835.6
1832.24
1828.8
1825.29
1821.7
1818.04
1814.32
1810.54
1806.71
1802.83
1798.91
1794.95
1790.96
1786.94
1782.9
1778.84
1774.77
1770.69
1766.6
1762.52
1758.45
1754.38
1750.33
1746.31
1742.31
1738.34
1734.4
1730.5
1726.65
1722.85
1719.1
1715.4
1711.77
1708.21
1704.71
1701.28
1697.94
1694.67
1691.49
1688.4
1685.4
1682.49
1679.69
1676.98
1674.38
1671.89
1669.5
1667.23
1665.08
1663.04
1661.13
1659.33
1657.66
1656.12
1654.7
1653.41
1652.25
1651.21
1650.31
1649.54
1648.9
1648.39
1648.01
1647.75
1647.58
335.417
335.419
335.435
335.461
335.493
335.531
335.573
335.62
335.673
335.73
335.792
335.859
335.931
336.007
336.088
336.174
336.265
336.361
336.463
336.57
336.684
336.804
336.931
337.065
337.208
337.359
337.52
337.69
337.872
338.064
338.27
338.488
338.72
338.967
339.23
339.51
339.808
340.124
340.459
340.815
341.193
341.593
342.016
342.464
342.938
343.437
343.964
344.52
345.104
345.719
346.366
347.044
347.757
348.503
349.285
350.103
350.959
351.853
352.787
353.762
354.778
355.838
356.943
358.092
359.289
360.534
361.829
363.174
364.572
366.024
367.531
369.095
370.717
372.4
374.144
375.951
377.823
379.762
381.769
383.845
385.994
388.215
390.512
392.885
395.337
397.869
400.483
403.18
405.962
408.831
411.788
414.835
417.973
421.204
424.53
427.952
431.472
435.091
438.81
442.632
446.558
450.588
454.726
458.972
463.328
467.795
472.376
477.072
481.884
486.815
491.865
497.037
502.332
507.752
513.299
518.975
524.781
530.718
536.79
542.996
549.34
555.822
562.444
569.208
576.116
583.168
590.366
597.711
605.206
612.85
620.645
628.592
636.692
644.946
653.355
661.919
670.639
679.514
688.547
697.736
707.081
716.583
726.241
736.056
746.025
756.15
766.428
776.859
787.441
798.174
809.056
820.086
831.26
842.579
854.038
865.637
877.372
889.24
901.24
913.367
925.618
937.991
950.481
963.083
975.796
988.614
1001.53
1014.55
1027.65
1040.85
1054.13
1067.5
1080.93
1094.43
1107.98
1121.59
1135.25
1148.96
1162.7
1176.48
1190.27
1204.09
1217.92
1231.76
1245.59
1259.42
1273.24
1287.03
1300.8
1314.53
1328.23
1341.87
1355.46
1368.99
1382.46
1395.84
1409.15
1422.37
1435.5
1448.52
1461.44
1474.25
1486.94
1499.5
1511.93
1524.22
1536.37
1548.37
1560.21
1571.9
1583.42
1594.77
1605.94
1616.93
1627.74
1638.36
1648.79
1659.02
1669.04
1678.86
1688.47
1697.87
1707.05
1716.02
1724.76
1733.27
1741.56
1749.62
1757.45
1765.04
1772.4
1779.52
1786.4
1793.05
1799.45
1805.61
1811.53
1817.21
1822.64
1827.83
1832.78
1837.49
1841.95
1846.18
1850.16
1853.91
1857.42
1860.69
1863.73
1866.53
1869.1
1871.45
1873.57
1875.46
1877.13
1878.58
1879.81
1880.83
1881.64
1882.24
1882.63
1882.83
1882.82
1882.62
1882.24
1881.66
1880.9
1879.96
1878.85
1877.57
1876.12
1874.51
1872.74
1870.82
1868.74
1866.53
1864.17
1861.68
1859.06
1856.32
1853.45
1850.47
1847.38
1844.18
1840.89
1837.49
1834.01
1830.45
1826.8
1823.08
1819.29
1815.44
1811.53
1807.57
1803.56
1799.5
1795.41
1791.29
1787.13
1782.96
1778.77
1774.56
1770.35
1766.14
1761.92
1757.72
1753.53
1749.36
1745.21
1741.08
1736.99
1732.94
1728.92
1724.95
1721.04
1717.18
1713.37
1709.64
1705.96
1702.37
1698.84
1695.4
1692.04
1688.77
1685.59
1682.51
1679.52
1676.64
1673.86
1671.19
1668.63
1666.18
1663.85
1661.64
1659.55
1657.58
1655.74
1654.02
1652.44
1650.98
1649.66
1648.46
1647.4
1646.48
1645.68
1645.03
1644.5
1644.11
1643.85
1643.68
334.509
334.512
334.528
334.556
334.59
334.63
334.674
334.724
334.778
334.838
334.902
334.97
335.043
335.12
335.201
335.287
335.378
335.473
335.573
335.679
335.789
335.906
336.029
336.159
336.297
336.442
336.596
336.76
336.934
337.118
337.315
337.524
337.746
337.983
338.235
338.503
338.789
339.092
339.415
339.757
340.121
340.506
340.915
341.347
341.805
342.288
342.798
343.335
343.902
344.498
345.125
345.784
346.475
347.2
347.96
348.756
349.588
350.459
351.368
352.317
353.308
354.341
355.418
356.54
357.708
358.923
360.187
361.502
362.868
364.288
365.762
367.292
368.881
370.529
372.238
374.01
375.846
377.748
379.719
381.759
383.87
386.055
388.314
390.65
393.065
395.559
398.135
400.795
403.539
406.371
409.29
412.3
415.401
418.595
421.884
425.268
428.751
432.332
436.014
439.798
443.685
447.678
451.777
455.985
460.303
464.732
469.274
473.931
478.704
483.596
488.607
493.741
498.997
504.379
509.889
515.527
521.295
527.197
533.232
539.404
545.714
552.163
558.754
565.487
572.366
579.39
586.562
593.884
601.356
608.98
616.757
624.688
632.775
641.019
649.419
657.977
666.695
675.571
684.606
693.802
703.157
712.673
722.348
732.183
742.176
752.328
762.638
773.104
783.727
794.503
805.433
816.513
827.744
839.122
850.645
862.312
874.119
886.065
898.145
910.357
922.697
935.162
947.749
960.454
973.272
986.199
999.231
1012.37
1025.6
1038.92
1052.33
1065.82
1079.38
1093.02
1106.71
1120.47
1134.28
1148.13
1162.02
1175.95
1189.91
1203.88
1217.87
1231.87
1245.86
1259.86
1273.83
1287.79
1301.73
1315.62
1329.48
1343.29
1357.05
1370.74
1384.37
1397.92
1411.39