/*--------------------------------*- C++ -*----------------------------------*\
| =========                 |                                                 |
| \\      /  F ield         | OpenFOAM: The Open Source CFD Toolbox           |
|  \\    /   O peration     | Version:  v2006                                 |
|   \\  /    A nd           | Website:  www.openfoam.com                      |
|    \\/     M anipulation  |                                                 |
\*---------------------------------------------------------------------------*/
FoamFile
{
    version     2.0;
    format      ascii;
    class       volScalarField;
    location    "0";
    object      f;
}
// * * * * * * * * * * * * * * * * * * * * * * * * * * * * * * * * * * * * * //

dimensions      [0 0 0 0 0 0 0];


internalField   nonuniform List<scalar> 
2500
(
-5.65001e-19
-7.87244e-19
-9.72004e-19
-1.04895e-18
-9.76681e-19
-7.32339e-19
-3.79035e-19
-1.06341e-19
-5.11169e-20
-1.41249e-19
-2.019e-19
-1.5342e-19
-5.77014e-20
-1.88958e-21
-2.019e-21
-2.18594e-20
-3.22401e-20
-2.89835e-20
-1.95638e-20
-1.06157e-20
-4.67845e-21
-1.58597e-21
-3.05363e-22
8.29345e-23
1.30141e-22
8.90406e-23
4.68004e-23
2.1031e-23
8.41928e-24
3.06557e-24
1.02764e-24
3.19582e-25
9.26509e-26
2.51104e-26
6.36769e-27
1.50897e-27
3.32715e-28
6.76138e-29
1.24129e-29
1.96432e-30
2.31332e-31
4.28863e-33
-8.80745e-33
-3.77824e-33
-1.13944e-33
-2.94102e-34
-6.89324e-35
-1.50622e-35
-3.11221e-36
-6.59793e-37
-9.48144e-19
-1.32386e-18
-1.66238e-18
-1.82445e-18
-1.75566e-18
-1.36366e-18
-6.78563e-19
-8.45612e-20
4.33428e-20
-1.92471e-19
-3.93472e-19
-3.32151e-19
-1.26664e-19
7.60801e-21
1.17144e-20
-3.45148e-20
-6.06818e-20
-5.61483e-20
-3.77531e-20
-2.00814e-20
-8.50855e-21
-2.63363e-21
-3.12805e-22
3.11413e-22
3.23391e-22
2.02338e-22
1.01779e-22
4.44089e-23
1.73631e-23
6.18912e-24
2.03207e-24
6.18464e-25
1.75118e-25
4.61915e-26
1.1336e-26
2.57588e-27
5.36013e-28
9.97119e-29
1.56193e-29
1.66189e-30
-6.96816e-32
-1.11069e-31
-4.34194e-32
-1.29089e-32
-3.34866e-33
-7.94555e-34
-1.76332e-34
-3.70626e-35
-7.4365e-36
-1.53824e-36
-2.0676e-18
-2.8896e-18
-3.70062e-18
-4.11525e-18
-4.09173e-18
-3.32121e-18
-1.62728e-18
2.91771e-20
4.29088e-19
-2.84454e-19
-9.87798e-19
-9.20421e-19
-3.58859e-19
4.62538e-20
6.78354e-20
-6.93336e-20
-1.49983e-19
-1.41991e-19
-9.47996e-20
-4.93987e-20
-2.01344e-20
-5.65293e-21
-1.90279e-22
1.09454e-21
9.54848e-22
5.65416e-22
2.75777e-22
1.17661e-22
4.51343e-23
1.58014e-23
5.09407e-24
1.52009e-24
4.20855e-25
1.08052e-25
2.56171e-26
5.54984e-27
1.07329e-27
1.74769e-28
1.94581e-29
-7.26475e-31
-1.33266e-30
-5.4057e-31
-1.65774e-31
-4.42508e-32
-1.07879e-32
-2.45692e-33
-5.2943e-34
-1.0881e-34
-2.14461e-35
-4.36767e-36
-4.28526e-18
-5.98656e-18
-7.89693e-18
-8.88662e-18
-9.18843e-18
-7.95675e-18
-3.93318e-18
6.38191e-19
1.92864e-18
-1.15552e-19
-2.4211e-18
-2.5301e-18
-1.0209e-18
1.945e-19
2.85664e-19
-1.21952e-19
-3.66164e-19
-3.54192e-19
-2.33603e-19
-1.1855e-19
-4.60216e-20
-1.12503e-20
1.12786e-21
3.50375e-21
2.70599e-21
1.52776e-21
7.23565e-22
3.01752e-22
1.13418e-22
3.89211e-23
1.22853e-23
3.58023e-24
9.63717e-25
2.38756e-25
5.39018e-26
1.0837e-26
1.8309e-27
2.11242e-28
-8.05199e-30
-1.53878e-29
-6.43731e-30
-2.03268e-30
-5.58011e-31
-1.39754e-31
-3.2667e-32
-7.21825e-33
-1.51998e-33
-3.06714e-34
-5.95477e-35
-1.19648e-35
-8.40558e-18
-1.1705e-17
-1.61543e-17
-1.83182e-17
-1.9781e-17
-1.88381e-17
-9.73744e-18
2.68493e-18
6.93295e-18
1.37325e-18
-5.79127e-18
-6.91133e-18
-2.92637e-18
7.0474e-19
1.05871e-18
-1.59089e-19
-8.87948e-19
-8.73167e-19
-5.64617e-19
-2.76893e-19
-1.00971e-19
-1.98975e-20
6.88853e-21
1.04798e-20
7.37605e-21
3.98932e-21
1.83552e-21
7.4744e-22
2.74727e-22
9.21398e-23
2.83588e-23
8.02308e-24
2.08068e-24
4.89966e-25
1.02398e-25
1.79082e-26
2.11697e-27
-9.68239e-29
-1.712e-28
-7.33285e-29
-2.37897e-29
-6.71086e-30
-1.72619e-30
-4.14107e-31
-9.38408e-32
-2.02504e-32
-4.18459e-33
-8.31402e-34
-1.59315e-34
-3.16303e-35
-1.55497e-17
-2.14439e-17
-3.16718e-17
-3.58698e-17
-4.03506e-17
-4.43756e-17
-2.49554e-17
7.98417e-18
2.22097e-17
7.73054e-18
-1.34513e-17
-1.87982e-17
-8.45988e-18
2.336e-18
3.66664e-18
-6.31222e-21
-2.15799e-18
-2.13255e-18
-1.3372e-18
-6.27133e-19
-2.10505e-19
-2.77784e-20
2.68503e-20
2.96597e-20
1.93557e-20
1.0056e-20
4.49299e-21
1.78317e-21
6.39023e-22
2.08561e-22
6.21983e-23
1.69192e-23
4.16034e-24
9.03669e-25
1.63154e-25
1.94936e-26
-1.21867e-27
-1.83418e-27
-7.98528e-28
-2.65558e-28
-7.6906e-29
-2.03093e-29
-4.99987e-30
-1.16202e-30
-2.57012e-31
-5.43978e-32
-1.10629e-32
-2.16855e-33
-4.10742e-34
-8.06722e-35
-2.72301e-17
-3.65182e-17
-5.92939e-17
-6.62541e-17
-7.60483e-17
-1.05805e-16
-6.63427e-17
1.80558e-17
6.69081e-17
2.95806e-17
-2.97667e-17
-5.11801e-17
-2.4625e-17
7.18907e-18
1.21998e-17
9.84265e-19
-5.32763e-18
-5.1754e-18
-3.09706e-18
-1.36943e-18
-4.0975e-19
-1.439e-20
8.81054e-20
7.99581e-20
4.88936e-20
2.44295e-20
1.05842e-20
4.08211e-21
1.41994e-21
4.48002e-22
1.28142e-22
3.29479e-23
7.43774e-24
1.38214e-24
1.6413e-25
-1.51365e-26
-1.88717e-26
-8.3008e-27
-2.82391e-27
-8.38855e-28
-2.27344e-28
-5.74283e-29
-1.36887e-29
-3.10337e-30
-6.72872e-31
-1.40096e-31
-2.8098e-32
-5.44215e-33
-1.02002e-33
-1.98365e-34
-4.6878e-17
-5.75944e-17
-1.04427e-16
-1.16373e-16
-1.25855e-16
-2.69601e-16
-1.8257e-16
2.69258e-17
2.01636e-16
9.62995e-17
-5.93837e-17
-1.42085e-16
-7.20531e-17
2.01006e-17
3.96567e-17
4.93523e-18
-1.36132e-17
-1.2521e-17
-6.98695e-18
-2.85551e-18
-7.19047e-19
9.32129e-20
2.61096e-19
2.06013e-19
1.18783e-19
5.70628e-20
2.39108e-20
8.9216e-21
2.99154e-21
9.02597e-22
2.43126e-22
5.70555e-23
1.08793e-23
1.25735e-24
-1.77256e-25
-1.85594e-25
-8.21721e-26
-2.85563e-26
-8.69562e-27
-2.41788e-27
-6.26623e-28
-1.53184e-28
-3.55991e-29
-7.9077e-30
-1.68581e-30
-3.45999e-31
-6.85405e-32
-1.31319e-32
-2.43771e-33
-4.69731e-34
-9.09558e-17
-8.55594e-17
-1.65901e-16
-2.28959e-16
-1.68319e-16
-8.86362e-16
-5.12006e-16
6.70314e-18
7.13437e-16
2.84267e-16
-9.44168e-17
-4.34488e-16
-2.12803e-16
4.70754e-17
1.2885e-16
1.87169e-17
-3.68492e-17
-3.02805e-17
-1.5228e-17
-5.589e-18
-1.042e-18
5.1361e-19
7.18342e-19
5.07935e-19
2.77045e-19
1.27744e-19
5.15511e-20
1.84786e-20
5.9057e-21
1.67109e-21
4.08092e-22
7.96457e-23
8.73021e-24
-1.90712e-24
-1.73373e-24
-7.72104e-25
-2.73972e-25
-8.55023e-26
-2.43898e-26
-6.48473e-27
-1.62581e-27
-3.87311e-28
-8.81465e-29
-1.92424e-29
-4.04193e-30
-8.19019e-31
-1.6043e-31
-3.04322e-32
-5.59887e-33
-1.06963e-33
-2.36958e-16
-1.22897e-16
-2.13788e-16
-1.2199e-15
-1.33787e-15
-4.41573e-15
-1.17827e-15
-7.00109e-17
3.86133e-15
7.08844e-16
-1.25345e-15
-2.04821e-15
-6.30623e-16
8.03591e-17
4.60018e-16
6.60735e-17
-1.08954e-16
-7.321e-17
-3.14848e-17
-9.92401e-18
-8.50705e-19
1.83348e-18
1.85831e-18
1.19804e-18
6.1867e-19
2.72866e-19
1.05337e-19
3.58598e-20
1.07028e-20
2.72653e-21
5.44233e-22
5.49714e-23
-1.85983e-23
-1.52732e-23
-6.8581e-24
-2.48667e-24
-7.95648e-25
-2.32878e-25
-6.35282e-26
-1.63356e-26
-3.98928e-27
-9.30203e-28
-2.07939e-28
-4.47036e-29
-9.26629e-30
-1.85586e-30
-3.59782e-31
-6.76171e-32
-1.23362e-32
-2.33777e-33
-6.22392e-16
9.52205e-16
7.18514e-15
-8.76734e-15
-5.52222e-14
-1.39584e-14
3.22496e-14
8.99225e-14
1.49072e-14
-3.06002e-14
-3.52201e-14
-1.08439e-14
-1.40174e-15
2.75664e-15
2.37204e-15
2.08687e-16
-3.80208e-16
-1.75074e-16
-5.89958e-17
-1.47509e-17
1.62281e-18
5.49505e-18
4.54747e-18
2.69885e-18
1.31758e-18
5.52645e-19
2.01856e-19
6.39333e-20
1.70735e-20
3.4966e-21
3.18292e-22
-1.63008e-22
-1.25912e-22
-5.7315e-23
-2.12803e-23
-6.98822e-24
-2.09987e-24
-5.87897e-25
-1.55062e-25
-3.88189e-26
-9.27361e-27
-2.1227e-27
-4.67037e-28
-9.90283e-29
-2.0279e-29
-4.01792e-30
-7.71437e-31
-1.43727e-31
-2.60156e-32
-4.8925e-33
1.06006e-14
1.41729e-13
1.84451e-13
-1.23485e-14
-2.69317e-13
3.9853e-13
9.06173e-13
5.45964e-13
-5.86328e-13
-6.08319e-13
-1.81885e-13
-2.25681e-14
3.57489e-14
5.24403e-14
9.13075e-15
-2.04555e-15
-1.95656e-15
-3.77648e-16
-8.68931e-17
-1.38988e-17
1.11125e-17
1.47793e-17
1.05538e-17
5.78938e-18
2.66118e-18
1.0515e-18
3.56435e-19
1.00657e-19
2.13692e-20
1.77426e-21
-1.27347e-21
-9.63659e-22
-4.48368e-22
-1.71065e-22
-5.77583e-23
-1.78347e-23
-5.12683e-24
-1.38729e-24
-3.56029e-25
-8.71313e-26
-2.0419e-26
-4.59712e-27
-9.9696e-28
-2.08719e-28
-4.22616e-29
-8.28927e-30
-1.57715e-30
-2.91439e-31
-5.23607e-32
-9.77611e-33
5.6568e-13
7.34306e-13
5.54333e-13
4.47994e-14
-5.54106e-13
3.78088e-12
3.32373e-12
1.20919e-12
-5.99737e-12
-1.91421e-12
-3.41713e-13
1.18745e-12
1.04536e-12
2.09885e-13
-1.35331e-14
-5.82687e-14
-8.91234e-15
-3.09366e-16
-4.79547e-17
8.54268e-18
3.82244e-17
3.66904e-17
2.32501e-17
1.177e-17
5.05601e-18
1.8521e-18
5.60668e-19
1.25986e-19
1.04536e-20
-8.75681e-21
-6.78813e-21
-3.26531e-21
-1.28664e-21
-4.47796e-22
-1.42275e-22
-4.20198e-23
-1.16674e-23
-3.06942e-24
-7.69393e-25
-1.84551e-25
-4.25041e-26
-9.42499e-27
-2.01675e-27
-4.17225e-28
-8.35878e-29
-1.62398e-29
-3.06353e-30
-5.61741e-31
-1.00218e-31
-1.85851e-32
2.41679e-12
2.05495e-12
-1.75577e-12
1.80465e-11
5.08793e-11
1.70077e-11
-7.13042e-13
-8.03958e-11
-1.73338e-11
1.29937e-11
3.94042e-11
2.04126e-11
4.33852e-12
-1.40951e-13
-1.46042e-12
-2.80878e-13
-6.83996e-15
7.63088e-16
1.18162e-16
6.54749e-17
1.0361e-16
8.58592e-17
4.86216e-17
2.25022e-17
8.9231e-18
2.94325e-18
7.23197e-19
7.10689e-20
-5.16921e-20
-4.3547e-20
-2.20075e-20
-9.01878e-21
-3.24649e-21
-1.06305e-21
-3.22771e-22
-9.1973e-23
-2.47979e-23
-6.36427e-24
-1.5618e-24
-3.67784e-25
-8.33479e-26
-1.82204e-26
-3.84983e-27
-7.87547e-28
-1.56204e-28
-3.00767e-29
-5.62823e-30
-1.02457e-30
-1.816e-31
-3.34666e-32
5.77046e-12
4.69406e-12
-2.66056e-11
1.46597e-10
3.75271e-10
6.27934e-11
-8.54089e-10
-5.40373e-10
2.07685e-10
7.02012e-10
3.40031e-10
7.95038e-11
3.68646e-12
-3.10703e-11
-7.12774e-12
-3.07672e-13
2.14051e-14
3.91971e-15
1.72644e-16
1.16574e-16
2.52648e-16
1.95337e-16
9.62875e-17
3.98602e-17
1.43273e-17
3.99935e-18
5.39695e-19
-2.46292e-19
-2.50321e-19
-1.36302e-19
-5.86972e-20
-2.1953e-20
-7.42134e-21
-2.31736e-21
-6.7742e-22
-1.8707e-22
-4.9118e-23
-1.23219e-23
-2.96454e-24
-6.861e-25
-1.53125e-25
-3.30241e-26
-6.89448e-27
-1.39543e-27
-2.74161e-28
-5.23464e-29
-9.72244e-30
-1.75812e-30
-3.09771e-31
-5.67669e-32
7.74368e-12
7.14881e-12
-7.56592e-11
3.57889e-10
1.076e-09
-2.0712e-09
-4.19918e-09
-1.31091e-09
5.30431e-09
3.13364e-09
8.05193e-10
1.38547e-10
-5.99043e-10
-1.56038e-10
-9.42579e-12
3.81399e-13
9.99325e-14
4.41623e-15
-6.08672e-16
7.11174e-17
6.7558e-16
4.55965e-16
1.77467e-16
6.32666e-17
2.01725e-17
3.98345e-18
-7.60473e-19
-1.24707e-18
-7.67296e-19
-3.53416e-19
-1.38272e-19
-4.83494e-20
-1.55199e-20
-4.64769e-21
-1.31229e-21
-3.51918e-22
-9.01117e-23
-2.21205e-23
-5.22226e-24
-1.18873e-24
-2.61455e-25
-5.56649e-26
-1.14897e-26
-2.30224e-27
-4.48345e-28
-8.49424e-29
-1.56699e-29
-2.81686e-30
-4.93759e-31
-9.00535e-32
-8.57908e-10
-1.96702e-09
-2.17191e-10
4.17296e-10
2.93667e-10
-1.91337e-08
-8.74452e-09
2.95449e-08
2.48614e-08
5.57075e-09
-3.46134e-09
-1.17892e-08
-3.25726e-09
-2.28128e-10
5.17463e-12
1.49426e-12
1.27499e-13
-7.07643e-15
-2.71284e-15
1.39239e-15
3.26033e-15
1.14063e-15
2.77767e-16
8.24276e-17
2.33483e-17
6.81188e-19
-4.88741e-18
-3.82978e-18
-1.95894e-18
-8.12009e-19
-2.94413e-19
-9.69559e-20
-2.9635e-20
-8.52119e-21
-2.3254e-21
-6.05922e-22
-1.51399e-22
-3.63928e-23
-8.43695e-24
-1.89033e-24
-4.10054e-25
-8.62503e-26
-1.76149e-26
-3.49715e-27
-6.75626e-28
-1.27128e-28
-2.33161e-29
-4.1709e-30
-7.28136e-31
-1.32331e-31
-1.27186e-07
-1.88526e-07
-2.07375e-07
-4.09876e-07
-4.92148e-07
-7.71017e-08
2.99037e-07
2.39283e-07
5.92373e-08
-2.9792e-07
-2.59092e-07
-7.78109e-08
-5.59346e-09
8.09671e-11
2.25504e-11
1.94607e-12
-4.99429e-14
-1.80197e-14
-1.29116e-15
3.924e-14
1.68582e-14
2.27525e-15
2.33778e-16
6.7169e-17
2.11587e-17
-9.20346e-18
-1.54918e-17
-9.85097e-18
-4.46839e-18
-1.68861e-18
-5.67709e-19
-1.75624e-19
-5.09699e-20
-1.40422e-20
-3.69957e-21
-9.3646e-22
-2.28446e-22
-5.3823e-23
-1.22679e-23
-2.70905e-24
-5.80327e-25
-1.20747e-25
-2.44301e-26
-4.81148e-27
-9.23307e-28
-1.72774e-28
-3.15483e-29
-5.62446e-30
-9.79471e-31
-1.77698e-31
-6.3402e-07
-8.97385e-07
-1.38877e-06
-2.55347e-06
-2.58086e-06
3.95863e-08
2.70631e-06
9.81667e-07
-2.32072e-06
-2.92999e-06
-1.20536e-06
-1.93457e-07
1.05038e-09
3.01655e-10
5.00966e-11
7.41682e-14
-2.7868e-13
1.61518e-13
4.44291e-13
2.02204e-13
3.79724e-14
1.40864e-15
-2.20973e-16
-7.31712e-18
2.86874e-17
-2.76588e-17
-4.10697e-17
-2.32037e-17
-9.32886e-18
-3.16887e-18
-9.73539e-19
-2.79534e-19
-7.63706e-20
-2.00556e-20
-5.09038e-21
-1.25207e-21
-2.98768e-22
-6.91883e-23
-1.55536e-23
-3.39552e-24
-7.20345e-25
-1.48632e-25
-2.98574e-26
-5.8453e-27
-1.11634e-27
-2.08155e-28
-3.79204e-29
-6.75273e-30
-1.17587e-30
-2.13532e-31
-1.53208e-06
-2.12412e-06
-3.77871e-06
-6.63195e-06
-6.29442e-06
1.80487e-06
8.63602e-06
1.51696e-06
-1.70855e-05
-9.4095e-06
-2.49977e-06
-2.24312e-07
1.41948e-09
7.56198e-10
1.08916e-10
-7.58185e-13
-6.43214e-13
4.99554e-12
2.26461e-12
4.57499e-13
2.48983e-14
-2.68515e-15
-1.1405e-15
-6.71819e-17
1.37832e-16
-4.72727e-17
-1.06325e-16
-5.2378e-17
-1.77439e-17
-5.17986e-18
-1.40149e-18
-3.63104e-19
-9.1648e-20
-2.27287e-20
-5.55232e-21
-1.33404e-21
-3.14167e-22
-7.22526e-23
-1.61816e-23
-3.5235e-24
-7.45662e-25
-1.53444e-25
-3.07386e-26
-6.00262e-27
-1.14427e-27
-2.132e-28
-3.88621e-29
-6.93457e-30
-1.21172e-30
-2.21158e-31
-2.1119e-06
-2.93936e-06
-5.79105e-06
-9.42503e-06
-8.37573e-06
1.16312e-05
1.64008e-05
-9.8809e-05
-5.08855e-05
-1.41285e-05
-2.59599e-06
4.4677e-07
2.09514e-07
1.76063e-08
1.14129e-10
-6.51542e-13
2.84152e-12
1.06216e-10
5.88313e-12
4.70526e-13
-2.47026e-14
-1.14548e-14
-2.99463e-15
2.24639e-16
8.02008e-16
-3.50667e-17
-3.10359e-16
-1.15558e-16
-2.89459e-17
-6.48129e-18
-1.38271e-18
-2.92691e-19
-6.36606e-20
-1.45418e-20
-3.48509e-21
-8.58131e-22
-2.11371e-22
-5.10004e-23
-1.19077e-23
-2.67656e-24
-5.78843e-25
-1.20684e-25
-2.4338e-26
-4.76547e-27
-9.093e-28
-1.69614e-28
-3.10025e-29
-5.56087e-30
-9.79364e-31
-1.80742e-31
2.52869e-05
2.92898e-05
1.91709e-05
8.11034e-05
0.000217986
6.09465e-05
-0.000426036
-0.000566152
4.52634e-05
0.00263146
0.00639058
0.00812473
0.00695543
0.00413702
0.00160395
0.000298146
4.30391e-08
4.98415e-09
1.06888e-11
-1.71227e-13
-8.26639e-14
-3.11677e-14
-5.60901e-15
1.54127e-14
4.80245e-15
-2.8932e-16
-1.36601e-15
-2.34689e-16
-2.95423e-17
-2.36892e-18
2.54635e-19
1.83166e-19
5.62877e-20
1.31151e-20
2.49262e-21
3.71345e-22
3.2259e-23
-3.90135e-24
-2.90585e-24
-9.54212e-25
-2.46072e-25
-5.5617e-26
-1.15201e-26
-2.24366e-27
-4.1852e-28
-7.58912e-29
-1.35384e-29
-2.39586e-30
-4.22288e-31
-7.92318e-32
0.000834445
0.00123042
0.00166947
0.00260283
0.00271036
0.000175291
-0.00300369
-0.00185431
0.00706806
0.0259578
0.0479608
0.0599863
0.0566553
0.0411401
0.0222662
0.00817582
0.0013598
1.74907e-07
-7.4659e-13
-3.01592e-13
-1.21434e-13
-5.37158e-14
2.65272e-13
1.04649e-13
1.25427e-14
-3.99893e-14
-7.408e-15
-1.6428e-16
4.42735e-17
1.82507e-17
5.2125e-18
1.28122e-18
2.84327e-19
5.78635e-20
1.08328e-20
1.85571e-21
2.86767e-22
3.88614e-23
4.3482e-24
3.38778e-25
3.80623e-27
-3.31928e-27
-4.18425e-29
2.98393e-28
1.34169e-28
4.03792e-29
9.99294e-30
2.18092e-30
4.34263e-31
8.6105e-32
0.00348199
0.00532717
0.00774368
0.0107058
0.00948997
-0.000300642
-0.00939616
-0.0029108
0.0302445
0.0854251
0.145593
0.181244
0.176339
0.135876
0.0801567
0.0337467
0.00802426
0.000248289
2.02337e-11
-1.46537e-13
2.63097e-12
4.56275e-12
1.77568e-12
2.49705e-13
-9.57381e-13
-2.42704e-13
-1.15645e-14
1.46664e-15
3.15619e-16
6.05771e-17
1.24666e-17
2.50529e-18
4.74535e-19
8.30537e-20
1.3104e-20
1.77107e-21
1.7626e-22
2.91216e-24
-4.33766e-24
-1.41501e-24
-2.9592e-25
-4.41292e-26
-3.20738e-27
7.53679e-28
4.32802e-28
1.35112e-28
3.40666e-29
7.60183e-30
1.55918e-30
3.21806e-31
0.00842234
0.0130965
0.0194147
0.0257548
0.0213196
-0.00167461
-0.020424
0.000718146
0.0751953
0.187939
0.30672
0.381726
0.377924
0.301489
0.186097
0.0834707
0.0225169
0.00132543
4.11981e-10
7.19504e-11
6.36434e-11
2.80625e-11
4.41931e-12
-1.98451e-11
-6.19468e-12
-4.31162e-13
3.46433e-14
7.59795e-15
4.86518e-16
6.07114e-17
1.05477e-17
1.67621e-18
2.08621e-19
9.43135e-21
-5.35389e-21
-2.51797e-21
-7.59184e-22
-1.89708e-22
-4.18085e-23
-8.27186e-24
-1.46388e-24
-2.25357e-25
-2.75961e-26
-1.69075e-27
4.0154e-28
2.07754e-28
6.09343e-29
1.46743e-29
3.16237e-30
6.79117e-31
0.0149431
0.0234244
0.0349817
0.04554
0.0362766
-0.00449807
-0.0340489
0.00752335
0.137128
0.320677
0.508875
0.635042
0.637586
0.522603
0.333353
0.155938
0.0453002
0.00357464
1.63291e-09
5.21238e-10
2.6247e-10
6.47164e-11
-3.34135e-10
-1.39383e-10
-1.28557e-11
6.61079e-13
2.10266e-13
1.23372e-14
-2.12856e-16
-5.86262e-17
-1.39029e-17
-3.40132e-18
-8.46276e-19
-2.06867e-19
-4.8743e-20
-1.09973e-20
-2.36975e-21
-4.86145e-22
-9.43679e-23
-1.71492e-23
-2.86295e-24
-4.22633e-25
-4.98592e-26
-2.76039e-27
8.11759e-28
3.96594e-28
1.1533e-28
2.78147e-29
6.02938e-30
1.30629e-30
0.0207433
0.0325816
0.0488139
0.0630811
0.0491335
-0.00806397
-0.0471034
0.0155572
0.198227
0.446104
0.695943
0.873339
0.889827
0.746167
0.488823
0.236084
0.0722432
0.00683931
3.90391e-09
1.46616e-09
6.02056e-10
-4.86835e-09
-2.73966e-09
-3.32689e-10
8.539e-12
4.14743e-12
4.92609e-13
-3.28673e-15
-1.23596e-15
-2.28104e-16
-4.54804e-17
-9.499e-18
-1.97154e-18
-4.01196e-19
-7.9763e-20
-1.5484e-20
-2.93023e-21
-5.3728e-22
-9.41116e-23
-1.53178e-23
-2.18534e-24
-2.29597e-25
-1.59761e-28
9.32356e-27
3.62453e-27
1.02574e-27
2.50671e-28
5.58284e-29
1.16128e-29
2.45843e-30
0.0229102
0.0358571
0.0537293
0.06966
0.0539213
-0.0110012
-0.0551848
0.0192229
0.231753
0.515049
0.799845
1.01368
1.05086
0.898687
0.601699
0.297801
0.0946044
0.0101097
5.84816e-09
-1.37648e-08
-1.09905e-07
-5.94033e-08
-7.96662e-09
8.78112e-11
6.4657e-11
1.26618e-11
2.81187e-13
-2.03489e-14
-3.92891e-15
-3.05842e-16
-4.56267e-17
-7.89857e-18
-1.2697e-18
-1.73612e-19
-1.63684e-20
4.05134e-22
7.38234e-22
2.55327e-22
6.82243e-23
1.65844e-23
3.9051e-24
9.14261e-25
2.13678e-25
4.94682e-26
1.12236e-26
2.47422e-27
5.27188e-28
1.08314e-28
2.14488e-29
4.39795e-30
0.0193912
0.0299321
0.0445693
0.0591515
0.0468299
-0.0117938
-0.0552923
0.0139064
0.221007
0.501241
0.788498
1.01365
1.06674
0.925219
0.629467
0.31696
0.103179
0.0118562
-1.24713e-06
-2.17684e-06
-1.16435e-06
-2.23009e-07
-2.56121e-09
8.33817e-10
2.68791e-10
1.66271e-11
-3.83825e-13
-1.05415e-13
-4.75247e-15
7.81511e-17
2.78014e-17
9.01688e-18
2.75953e-18
7.77956e-19
2.01194e-19
4.80701e-20
1.07194e-20
2.25608e-21
4.53646e-22
8.83524e-23
1.69205e-23
3.23428e-24
6.24263e-25
1.22301e-25
2.42623e-26
4.83555e-27
9.58737e-28
1.87425e-28
3.58883e-29
7.18785e-30
0.0100308
0.0147901
0.0213588
0.0309894
0.0274686
-0.0090875
-0.0443447
-0.00351623
0.1475
0.374809
0.628377
0.84185
0.908649
0.799739
0.550598
0.280227
0.0924452
0.0110474
-1.2163e-05
-1.10276e-05
-3.90596e-06
-3.58089e-07
7.20821e-09
3.88388e-09
4.95868e-10
-4.35675e-12
-1.8434e-12
-1.9839e-13
1.20025e-15
4.25154e-16
1.18764e-16
3.25506e-17
8.61605e-18
2.16586e-18
5.13874e-19
1.15076e-19
2.44075e-20
4.93117e-21
9.56259e-22
1.79723e-22
3.31236e-23
6.06524e-24
1.11707e-24
2.08687e-25
3.96267e-26
7.61403e-27
1.46775e-27
2.8117e-28
5.30916e-29
1.05299e-29
0.000200249
-0.000719003
-0.00224841
0.00106075
0.0062196
-0.00281742
-0.0252457
-0.0225551
0.0464172
0.191171
0.384611
0.558961
0.619221
0.547005
0.374789
0.188883
0.0612155
0.00691208
-4.73887e-05
-3.12077e-05
-7.28964e-06
-1.93843e-07
2.96679e-08
9.72701e-09
5.45896e-10
-1.64082e-11
-4.87854e-12
-2.37298e-13
3.54776e-15
9.40575e-16
1.96353e-16
4.95975e-17
1.2789e-17
3.16524e-18
7.4e-19
1.63179e-19
3.40731e-20
6.77986e-21
1.29601e-21
2.4041e-22
4.38097e-23
7.95081e-24
1.45575e-24
2.71256e-25
5.15246e-26
9.9233e-27
1.9192e-27
3.68909e-28
6.98706e-29
1.38936e-29
-0.0049088
-0.0083016
-0.013563
-0.0150206
-0.00670909
0.00321508
-0.00574835
-0.030831
-0.0314029
0.0318437
0.15444
0.273714
0.314125
0.272708
0.179252
0.0849433
0.0247378
0.00180218
-0.000159554
-5.62301e-05
-6.74503e-06
2.58586e-07
9.47573e-08
1.17414e-08
-1.64456e-10
-6.69518e-11
-7.22872e-12
5.23174e-14
1.59747e-14
1.41834e-15
1.66474e-16
4.37291e-17
1.16734e-17
2.9469e-18
6.95034e-19
1.53521e-19
3.19985e-20
6.35387e-21
1.21551e-21
2.27024e-22
4.20333e-23
7.83415e-24
1.48718e-24
2.88766e-25
5.71019e-26
1.13822e-26
2.26025e-27
4.42627e-28
8.48647e-29
1.70072e-29
-0.00440323
-0.00678716
-0.0106905
-0.0141492
-0.0084652
0.00598386
0.0067576
-0.022582
-0.0566913
-0.050426
0.00353456
0.0631751
0.0811787
0.063472
0.0319181
0.00803619
-0.00152303
-0.00149546
-0.000394332
-3.39193e-05
2.97051e-06
9.06255e-07
1.18804e-07
5.1012e-10
-5.05785e-10
-1.23281e-10
-4.3065e-12
1.38439e-13
2.71458e-14
8.17196e-16
2.54874e-17
1.27696e-17
4.62226e-18
1.36984e-18
3.54094e-19
8.29669e-20
1.81209e-20
3.77696e-21
7.67788e-22
1.55285e-22
3.17317e-23
6.59945e-24
1.394e-24
2.96384e-25
6.27101e-26
1.30699e-26
2.66323e-27
5.28085e-28
1.01638e-28
2.03355e-29
-0.000863177
-0.000785163
-0.000970305
-0.00340606
-0.00352721
0.00419793
0.00971004
-0.00455022
-0.0363297
-0.057556
-0.055354
-0.0455983
-0.043072
-0.0436534
-0.0380672
-0.0247737
-0.0109411
-0.00270119
-0.000148367
2.00692e-05
7.24264e-06
1.11789e-06
1.29145e-08
-6.03024e-09
-1.54322e-09
-5.92457e-11
2.51724e-12
4.58542e-13
2.32363e-15
-2.96499e-16
-7.61972e-17
-1.62165e-17
-2.94916e-18
-4.30264e-19
-3.83476e-20
4.1128e-21
3.54946e-21
1.33316e-21
4.08327e-22
1.132e-22
2.9373e-23
7.23025e-24
1.69933e-24
3.82809e-25
8.28789e-26
1.72822e-26
3.47736e-27
6.76244e-28
1.27293e-28
2.48623e-29
0.001358
0.00254667
0.00444095
0.00416587
0.00100264
0.000177616
0.00542819
0.00855071
-0.00206709
-0.0257868
-0.0512262
-0.0669143
-0.0697309
-0.0614502
-0.0435255
-0.0234693
-0.00848131
-0.00154834
5.16388e-05
2.81037e-05
7.34969e-06
4.05084e-07
-5.211e-08
-1.45234e-08
-7.01835e-10
3.24536e-11
6.55649e-12
3.58926e-14
-5.49393e-15
-8.98273e-16
-1.31879e-16
-2.65144e-17
-5.34703e-18
-9.61656e-19
-1.37585e-19
-9.25892e-21
3.25001e-21
1.92976e-21
6.8049e-22
1.98621e-22
5.19412e-23
1.25668e-23
2.86046e-24
6.18828e-25
1.2812e-25
2.55114e-26
4.90391e-27
9.12654e-28
1.64826e-28
3.09093e-29
0.000984229
0.00149808
0.00286842
0.00396294
0.00164299
-0.00230672
-0.000141621
0.00951754
0.0137702
0.00277427
-0.0188455
-0.0351884
-0.0366403
-0.0286635
-0.0166835
-0.00688834
-0.00168304
8.22852e-05
2.49407e-05
8.63106e-06
1.14864e-06
-3.41042e-07
-8.75651e-08
-2.29813e-09
3.20305e-10
6.5127e-11
-5.35617e-13
-1.87316e-13
-1.60639e-14
9.56212e-17
1.55011e-17
2.51269e-18
9.12956e-19
4.4857e-19
1.89876e-19
6.83383e-20
2.17357e-20
6.28137e-21
1.67828e-21
4.19355e-22
9.88082e-23
2.20946e-23
4.71357e-24
9.63644e-25
1.89517e-25
3.59737e-26
6.60972e-27
1.17853e-27
2.04369e-28
3.67972e-29
-0.000428262
-0.000963228
-0.00106985
-4.54602e-05
5.1379e-06
-0.00206908
-0.0020898
0.00292536
0.00853396
0.00896914
0.00693972
0.00819031
0.0110488
0.0125911
0.010513
0.0061726
0.00244426
0.000480869
2.2032e-05
-1.58109e-05
-5.53207e-06
-5.55307e-07
3.55696e-08
9.95293e-09
5.62463e-10
-2.36274e-11
-5.82943e-12
-2.41415e-13
3.33943e-15
6.47796e-16
1.32892e-16
3.41311e-17
9.16243e-18
2.48127e-18
6.70929e-19
1.79134e-19
4.66595e-20
1.17432e-20
2.83899e-21
6.57545e-22
1.45853e-22
3.10157e-23
6.33418e-24
1.24504e-24
2.3608e-25
4.32849e-26
7.69147e-27
1.32752e-27
2.23024e-28
3.88654e-29
-0.000919454
-0.00162051
-0.00220037
-0.00193165
-0.0010488
-0.000480201
-0.000639943
-0.00171754
-0.00270279
0.000956153
0.0124374
0.0268324
0.0336701
0.0299926
0.0194497
0.00886546
0.00242506
0.000136061
-7.97659e-05
-3.61629e-05
-5.61776e-06
1.96088e-07
7.45463e-08
1.13241e-08
-1.54604e-10
-5.29896e-11
-5.15758e-12
3.71387e-14
8.28579e-15
8.77226e-16
1.82251e-16
4.93617e-17
1.33306e-17
3.55638e-18
9.34308e-19
2.40232e-19
6.00357e-20
1.44981e-20
3.3704e-21
7.52821e-22
1.61492e-22
3.32892e-23
6.6021e-24
1.26179e-24
2.32825e-25
4.15606e-26
7.19213e-27
1.20919e-27
1.9794e-28
3.35759e-29
-0.000489189
-0.00076323
-0.000884664
-0.000982752
-0.000829327
0.000206138
0.00111783
-0.00106726
-0.00590909
-0.0059296
0.00394163
0.018332
0.0248659
0.0212605
0.0123438
0.00444838
0.000579833
-0.000228889
-0.000110144
-2.28122e-05
1.24144e-07
2.23077e-07
7.37698e-08
6.24469e-09
-2.97234e-10
-7.52431e-11
-3.39888e-12
6.1952e-14
1.20034e-14
8.11684e-16
1.35315e-16
3.84519e-17
1.09678e-17
3.05982e-18
8.2596e-19
2.14365e-19
5.33091e-20
1.2684e-20
2.88681e-21
6.2884e-22
1.31247e-22
2.6283e-23
5.05824e-24
9.37208e-25
1.67505e-25
2.8939e-26
4.84393e-27
7.87487e-28
1.24677e-28
2.0436e-29
-0.00010348
-0.000136934
8.74985e-05
0.000151393
-0.000270234
-0.000191101
0.00111251
0.00121388
-0.00199819
-0.00529777
-0.00384647
0.00101017
0.00409329
0.00351861
0.0012794
-0.000317114
-0.000559681
-0.000243128
-5.53345e-05
-1.73313e-06
1.28685e-06
4.93808e-07
5.20618e-08
-3.24475e-09
-8.30064e-10
-3.91551e-11
1.14986e-12
2.13001e-13
1.48998e-15
-8.62013e-17
-1.12604e-18
7.84219e-18
4.1135e-18
1.50013e-18
4.61173e-19
1.26866e-19
3.20567e-20
7.54402e-21
1.6672e-21
3.47825e-22
6.87406e-23
1.2897e-23
2.29998e-24
3.90068e-25
6.29019e-26
9.6372e-27
1.40083e-27
1.92794e-28
2.50646e-29
3.21179e-30
-0.000104953
-0.000209812
-0.000133857
0.000112978
-7.6165e-05
-0.000529266
1.17785e-05
0.00138256
0.00140934
-0.000766362
-0.00367242
-0.00540202
-0.00549967
-0.00453059
-0.00297233
-0.00144422
-0.00045962
-8.43747e-05
8.45378e-07
5.06145e-06
1.85421e-06
1.94855e-07
-1.91538e-08
-4.76084e-09
-1.52413e-10
1.08435e-11
2.1281e-12
-5.1841e-15
-2.52341e-15
-3.75564e-16
-5.86352e-17
-8.34363e-18
-5.14098e-19
2.2645e-19
1.22129e-19
3.90107e-20
9.8925e-21
2.11984e-21
3.84846e-22
5.58361e-23
4.80372e-24
-5.62539e-25
-4.25414e-25
-1.41313e-25
-3.69912e-26
-8.49545e-27
-1.78229e-27
-3.48437e-28
-6.42086e-29
-1.19792e-29
-0.000134376
-0.000265692
-0.0003847
-0.000247944
-6.33395e-05
-0.000249699
-0.000484316
2.39075e-05
0.00115475
0.00150469
0.000239038
-0.00171906
-0.00259768
-0.00215673
-0.00109063
-0.000239875
4.27626e-05
4.85396e-05
1.91652e-05
3.96324e-06
-1.78145e-07
-9.16394e-08
-1.86269e-08
1.89913e-10
8.52417e-11
1.32747e-11
-3.30247e-13
-5.19455e-14
-8.29073e-16
-9.79396e-17
-3.30179e-17
-7.75962e-18
-1.4333e-18
-2.17628e-19
-3.14788e-20
-7.08604e-21
-2.74574e-21
-1.1132e-21
-3.95302e-22
-1.22917e-22
-3.42596e-23
-8.73108e-24
-2.06413e-24
-4.57399e-25
-9.57275e-26
-1.903e-26
-3.60913e-27
-6.55285e-28
-1.14215e-28
-2.03836e-29
-2.28233e-05
-3.51937e-05
-0.000114114
-0.000162163
-4.19092e-06
0.000132309
-0.000156907
-0.000579102
-0.000298933
0.000714234
0.00159643
0.00181437
0.00161252
0.00133875
0.000988794
0.000552101
0.000225268
5.85253e-05
5.13975e-06
-2.50011e-06
-8.56808e-07
-8.12969e-08
6.40315e-09
1.59771e-09
1.15208e-10
-3.01613e-12
-6.13221e-13
-2.28178e-14
1.47524e-16
3.20064e-17
6.44661e-18
1.54542e-18
4.15094e-19
9.1625e-20
8.18974e-21
-4.99479e-21
-3.61627e-21
-1.53648e-21
-5.22599e-22
-1.54701e-22
-4.13633e-23
-1.01963e-23
-2.34734e-24
-5.09127e-25
-1.04702e-25
-2.0514e-26
-3.84364e-27
-6.90795e-28
-1.19384e-28
-2.11498e-29
5.89828e-05
0.000115559
0.000149972
8.04511e-05
3.54135e-05
0.00013906
0.000158291
-0.000151136
-0.000510393
-0.000381855
0.00031614
0.00111495
0.00142458
0.0012065
0.000707353
0.000283779
5.9751e-05
-9.81091e-06
-6.1961e-06
-1.5916e-06
-4.56561e-08
3.34021e-08
8.56907e-09
1.68597e-10
-3.80249e-11
-5.89667e-12
-2.46971e-14
4.75558e-15
7.6664e-16
1.51749e-16
4.19083e-17
1.13824e-17
2.8628e-18
6.52024e-19
1.30347e-19
2.11829e-20
2.02931e-21
-2.99113e-22
-2.47999e-22
-9.37027e-23
-2.79713e-23
-7.31962e-24
-1.74674e-24
-3.87715e-25
-8.09818e-26
-1.60383e-26
-3.02808e-27
-5.47218e-28
-9.49524e-29
-1.68744e-29
2.26895e-05
3.97283e-05
7.93328e-05
8.33896e-05
1.04676e-05
-2.35652e-05
9.55949e-05
0.000197026
1.2692e-05
-0.000346135
-0.000512115
-0.000416876
-0.000274324
-0.000221801
-0.000193913
-0.000142637
-7.82377e-05
-2.54963e-05
-3.93999e-06
2.86886e-07
1.28975e-07
4.10092e-08
4.88123e-09
-3.43838e-10
-1.06398e-10
-7.56891e-12
1.079e-13
2.47709e-14
1.5574e-15
1.33149e-16
4.55234e-17
1.36472e-17
3.67014e-18
8.96718e-19
1.99135e-19
3.97668e-20
6.91435e-21
9.50673e-22
6.18855e-23
-1.95639e-23
-1.09071e-23
-3.54645e-24
-9.45439e-25
-2.242e-25
-4.88915e-26
-9.97493e-27
-1.92377e-27
-3.5313e-28
-6.19968e-29
-1.11212e-29
-1.91841e-05
-3.74158e-05
-4.34644e-05
-1.7721e-05
-1.3139e-05
-5.39639e-05
-3.78795e-05
8.72563e-05
0.000170427
6.65653e-05
-0.000180529
-0.000398054
-0.000453146
-0.000381377
-0.000245291
-0.000120296
-3.91746e-05
-6.83499e-06
9.1661e-07
3.20701e-07
8.69628e-08
1.22562e-08
-2.15278e-09
-5.88362e-10
-3.79665e-11
1.41639e-12
2.56025e-13
-6.86994e-16
-8.31701e-17
3.11086e-17
2.26023e-17
8.99675e-18
2.81568e-18
7.60572e-19
1.83982e-19
4.04022e-20
8.04506e-21
1.42805e-21
2.15218e-22
2.33573e-23
4.84853e-26
-9.43266e-25
-3.63054e-25
-1.00655e-25
-2.39181e-26
-5.14715e-27
-1.02864e-27
-1.93571e-28
-3.45984e-29
-6.29265e-30
-9.48656e-06
-1.67262e-05
-2.95509e-05
-2.7798e-05
-5.13883e-06
1.39964e-06
-3.29675e-05
-4.94629e-05
9.88285e-06
0.000105187
0.000138476
9.52911e-05
5.07818e-05
4.17178e-05
4.22863e-05
3.29693e-05
1.73052e-05
6.08109e-06
8.50805e-07
-6.34471e-08
-3.52018e-08
-1.06679e-08
-1.54674e-09
1.04936e-10
2.13254e-11
9.44812e-13
-5.89961e-14
-1.0273e-14
-3.00518e-16
3.52942e-19
1.1821e-17
5.68038e-18
1.92062e-18
5.46774e-19
1.38522e-19
3.19068e-20
6.72873e-21
1.29587e-21
2.24838e-22
3.39205e-23
4.01004e-24
2.03933e-25
-7.32504e-26
-3.39518e-26
-9.63351e-27
-2.26644e-27
-4.77316e-28
-9.28913e-29
-1.69846e-29
-3.14085e-30
4.68717e-06
9.25214e-06
1.01171e-05
3.15781e-06
3.15368e-06
1.4664e-05
8.3926e-06
-2.64054e-05
-4.48222e-05
-1.12899e-05
5.27343e-05
0.000102871
0.00011598
0.000100214
6.72282e-05
3.44784e-05
1.25233e-05
2.26075e-06
-2.66858e-07
-1.01795e-07
-1.84336e-08
7.29444e-10
5.80545e-10
1.41016e-10
4.6597e-12
-3.03136e-13
-7.42097e-14
-1.46225e-15
7.96035e-17
3.4496e-17
1.29582e-17
4.36204e-18
1.32162e-18
3.6319e-19
9.13093e-20
2.11403e-20
4.52251e-21
8.93401e-22
1.61984e-22
2.65402e-23
3.78577e-24
4.21774e-25
1.91028e-26
-7.51678e-27
-3.24746e-27
-8.78028e-28
-1.97896e-28