/*--------------------------------*- C++ -*----------------------------------*\
| =========                 |                                                 |
| \\      /  F ield         | OpenFOAM: The Open Source CFD Toolbox           |
|  \\    /   O peration     | Version:  v2006                                 |
|   \\  /    A nd           | Website:  www.openfoam.com                      |
|    \\/     M anipulation  |                                                 |
\*---------------------------------------------------------------------------*/
FoamFile
{
    version     2.0;
    format      ascii;
    class       volScalarField;
    location    "0";
    object      alpha.water;
}
// * * * * * * * * * * * * * * * * * * * * * * * * * * * * * * * * * * * * * //

dimensions      [0 0 0 0 0 0 0];


internalField   nonuniform List<scalar> 
67500
(
0.996865
0.985807
0.518211
0.0434576
0.113362
0.224711
0.289884
0.452094
0.571072
0.672254
0.763562
0.803984
0.805531
0.805531
0.766544
0.767193
0.767091
0.505045
0.369958
0.874281
0.999983
0.999983
0.999983
0.961486
0.955716
0.984888
0.999402
1
1
1
1
1
1
1
1
1
1
1
1
1
1
1
1
1
1
1
1
1
1
1
1
1
1
1
1
1
1
1
1
1
1
1
1
1
1
1
1
1
1
1
1
1
1
1
1
1
1
1
1
1
1
1
1
1
1
1
1
1
1
1
1
1
1
1
1
1
1
1
1
1
1
1
1
1
1
1
1
1
1
1
1
1
1
1
1
1
1
1
1
1
1
1
1
1
1
1
1
1
1
1
1
1
1
1
1
1
1
1
1
1
1
1
1
1
1
1
1
1
1
1
1
1
1
1
1
1
1
1
1
1
1
1
1
1
1
1
1
1
1
1
1
1
1
1
1
1
1
1
1
1
1
1
1
1
1
1
1
1
1
1
1
1
1
1
1
1
1
1
1
1
1
1
1
1
1
1
1
1
1
1
1
1
1
1
1
1
1
1
1
1
1
1
1
1
1
1
1
1
1
1
1
1
1
1
1
1
1
1
1
1
1
1
1
1
1
1
1
1
1
1
1
1
1
1
1
1
1
1
1
1
1
1
1
1
1
1
1
1
1
1
1
1
1
1
1
1
1
1
1
1
1
1
1
1
1
1
1
1
1
1
1
1
1
1
1
1
1
1
1
1
1
1
1
1
1
1
1
1
1
1
1
1
1
1
1
1
1
1
1
1
1
1
1
1
1
1
1
1
1
1
1
1
1
1
1
1
1
1
1
1
1
1
1
1
1
1
1
1
1
1
1
1
1
1
1
1
1
1
1
1
1
1
1
1
1
1
1
1
1
1
1
1
1
1
1
1
1
1
1
1
1
1
1
1
1
1
1
1
1
1
1
1
1
1
1
1
1
1
1
1
1
1
1
1
1
1
1
1
1
1
1
1
1
1
1
1
1
1
1
1
1
1
1
1
1
1
1
1
1
1
1
1
1
1
1
1
1
1
1
1
1
1
1
1
1
1
1
1
1
1
0.996865
0.871006
0.0427023
0.0427054
0.0427023
0.323846
0.321154
0.160579
2.48609e-20
-2.45937e-27
0.130857
0.32533
0.563692
0.404186
0.212854
0.208273
0.232248
0.151177
0.118576
0.117062
0.392191
0.546959
0.263296
0.197383
0.196631
0.655468
0.99765
1
1
1
1
1
1
1
1
1
1
1
1
1
1
1
1
1
1
1
1
1
1
1
1
1
1
1
1
1
1
1
1
1
1
1
1
1
1
1
1
1
1
1
1
1
1
1
1
1
1
1
1
1
1
1
1
1
1
1
1
1
1
1
1
1
1
1
1
1
1
1
1
1
1
1
1
1
1
1
1
1
1
1
1
1
1
1
1
1
1
1
1
1
1
1
1
1
1
1
1
1
1
1
1
1
1
1
1
1
1
1
1
1
1
1
1
1
1
1
1
1
1
1
1
1
1
1
1
1
1
1
1
1
1
1
1
1
1
1
1
1
1
1
1
1
1
1
1
1
1
1
1
1
1
1
1
1
1
1
1
1
1
1
1
1
1
1
1
1
1
1
1
1
1
1
1
1
1
1
1
1
1
1
1
1
1
1
1
1
1
1
1
1
1
1
1
1
1
1
1
1
1
1
1
1
1
1
1
1
1
1
1
1
1
1
1
1
1
1
1
1
1
1
1
1
1
1
1
1
1
1
1
1
1
1
1
1
1
1
1
1
1
1
1
1
1
1
1
1
1
1
1
1
1
1
1
1
1
1
1
1
1
1
1
1
1
1
1
1
1
1
1
1
1
1
1
1
1
1
1
1
1
1
1
1
1
1
1
1
1
1
1
1
1
1
1
1
1
1
1
1
1
1
1
1
1
1
1
1
1
1
1
1
1
1
1
1
1
1
1
1
1
1
1
1
1
1
1
1
1
1
1
1
1
1
1
1
1
1
1
1
1
1
1
1
1
1
1
1
1
1
1
1
1
1
1
1
1
1
1
1
1
1
1
1
1
1
1
1
1
1
1
1
1
1
1
1
1
1
1
1
1
1
1
1
1
1
1
1
1
1
1
1
1
1
1
1
1
1
1
1
1
1
1
1
1
1
1
1
1
1
1
1
1
1
1
1
1
1
1
1
1
1
0.994068
0.670861
0.230862
0.225687
0.189604
0.0259643
0.0502134
2.15925e-05
2.44409e-05
7.21245e-07
-1.08184e-19
1.30994e-26
4.46741e-26
0.00486345
0.111199
0.0532316
0.0551727
0.285292
0.27058
0.156852
0.152268
0.152238
0.244177
0.796914
0.996731
1
1
1
1
1
0.996588
0.981788
0.97042
0.961725
0.922894
0.883156
0.883193
0.872779
0.847346
0.829456
0.820719
0.813375
0.802564
0.783454
0.754527
0.725312
0.709708
0.708876
0.717529
0.732989
0.75147
0.770225
0.78814
0.803958
0.810846
0.812272
0.810941
0.808451
0.807668
0.811429
0.821504
0.837113
0.855528
0.873488
0.888602
0.899929
0.90769
0.912753
0.916327
0.919888
0.924925
0.93236
0.942082
0.953079
0.964067
0.974047
0.982509
0.989312
0.994476
0.997996
0.99977
1
1
1
1
1
1
1
1
1
1
1
1
1
1
1
1
1
1
1
1
1
1
1
1
1
1
1
1
1
1
1
1
1
1
1
1
1
1
1
1
1
1
1
1
1
1
1
1
1
1
1
1
1
1
1
1
1
1
1
1
1
1
1
1
1
1
1
1
1
1
1
1
1
1
1
1
1
1
1
1
1
1
1
1
1
1
1
1
1
1
1
1
1
1
1
1
1
1
1
1
1
1
1
1
1
1
1
1
1
1
1
1
1
1
1
1
1
1
1
1
1
1
1
1
1
1
1
1
1
1
1
1
1
1
1
1
1
1
1
1
1
1
1
1
1
1
1
1
1
1
1
1
1
1
1
1
1
1
1
1
1
1
1
1
1
1
1
1
1
1
1
1
1
1
1
1
1
1
1
1
1
1
1
1
1
1
1
1
1
1
1
1
1
1
1
1
1
1
1
1
1
1
1
1
1
1
1
1
1
1
1
1
1
1
1
1
1
1
1
1
1
1
1
1
1
1
1
1
1
1
1
1
1
1
1
1
1
1
1
1
1
1
1
1
1
1
1
1
1
1
1
1
1
1
1
1
1
1
1
1
1
1
1
1
1
1
1
1
1
1
1
1
1
1
1
1
1
1
1
1
1
1
1
1
1
1
1
1
1
1
1
1
1
1
1
1
1
1
1
1
1
1
1
1
1
1
1
1
1
1
1
1
1
1
1
1
1
1
1
1
1
1
1
1
1
1
1
1
1
1
1
1
1
1
1
1
1
1
1
1
1
1
1
1
1
1
1
1
1
1
1
1
1
1
1
1
1
1
1
1
1
1
1
1
1
1
1
1
1
0.994172
0.641477
0.0404912
0.00234225
0.0226746
1.8352e-05
1.50354e-05
1.9027e-05
2.51378e-05
3.27264e-07
1.41289e-08
8.93795e-08
1.25845e-07
1.66303e-09
0.00100252
2.02961e-21
5.20574e-21
0.17296
0.778041
0.880495
0.847158
0.904737
0.962717
0.968972
0.964255
0.980245
1
1
1
1
0.516772
0.380843
0.595687
0.166482
-1.41361e-14
-3.63361e-14
-5.89651e-14
-6.50648e-14
-4.67176e-14
-1.76396e-14
1.11932e-35
-4.51568e-36
-4.30021e-36
2.27958e-37
-1.21999e-37
2.09238e-37
0
-7.13335e-21
-2.16001e-21
-9.33046e-21
2.34221e-38
-1.41523e-21
3.51582e-22
0
0.00535728
0.0114736
0.0188423
0.0281428
0.0401994
0.0557806
0.0753348
0.0980886
0.120896
0.139553
0.15165
0.158346
0.163105
0.169128
0.17823
0.191656
0.210548
0.235685
0.267043
0.303745
0.344666
0.388525
0.434856
0.483952
0.537172
0.596287
0.661557
0.733967
0.78485
0.824078
0.858405
0.886935
0.910077
0.928667
0.943413
0.955079
0.964505
0.972454
0.979485
0.985846
0.991403
0.995777
0.998651
0.999911
1
1
1
1
1
1
1
1
1
1
1
1
1
1
1
1
1
1
1
1
1
1
1
1
1
1
1
1
1
1
1
1
1
1
1
1
1
1
1
1
1
1
1
1
1
1
1
1
1
1
1
1
1
1
1
1
1
1
1
1
1
1
1
1
1
1
1
1
1
1
1
1
1
1
1
1
1
1
1
1
1
1
1
1
1
1
1
1
1
1
1
1
1
1
1
1
1
1
1
1
1
1
1
1
1
1
1
1
1
1
1
1
1
1
1
1
1
1
1
1
1
1
1
1
1
1
1
1
1
1
1
1
1
1
1
1
1
1
1
1
1
1
1
1
1
1
1
1
1
1
1
1
1
1
1
1
1
1
1
1
1
1
1
1
1
1
1
1
1
1
1
1
1
1
1
1
1
1
1
1
1
1
1
1
1
1
1
1
1
1
1
1
1
1
1
1
1
1
1
1
1
1
1
1
1
1
1
1
1
1
1
1
1
1
1
1
1
1
1
1
1
1
1
1
1
1
1
1
1
1
1
1
1
1
1
1
1
1
1
1
1
1
1
1
1
1
1
1
1
1
1
1
1
1
1
1
1
1
1
1
1
1
1
1
1
1
1
1
1
1
1
1
1
1
1
1
1
1
1
1
1
1
1
1
1
1
1
1
1
1
1
1
1
1
1
1
1
1
1
1
1
1
1
1
1
1
1
1
1
1
1
1
1
1
1
1
1
1
1
1
1
1
1
1
1
1
1
1
1
1
1
1
1
1
1
1
1
1
1
1
1
1
1
1
1
1
1
1
1
1
1
1
0.994254
0.520985
1.18805e-19
0.000910454
4.4856e-05
4.49734e-05
1.13415e-05
2.50641e-24
1.01139e-05
0.000996018
2.01979e-20
4.63982e-10
3.55009e-08
4.90273e-10
5.12271e-10
0.000623033
0.00904634
0.00906061
0.0936236
0.887482
1
1
0.256857
0.000837949
2.20235e-18
0.00980289
0.0861902
0.242721
0.450056
0.215748
4.69513e-19
0.0315682
0.0607597
0.00950142
-2.17618e-15
-3.47893e-15
-9.79901e-16
3.50192e-19
2.43035e-17
2.70846e-17
2.38416e-17
8.61168e-18
4.7033e-18
2.38271e-18
1.09044e-18
4.6723e-19
1.82907e-19
8.69482e-20
6.92135e-20
5.08817e-20
4.61862e-20
3.4601e-20
1.82355e-20
7.35798e-39
1.44197e-37
8.53611e-40
-4.71805e-38
-2.26337e-40
1.40232e-37
2.00787e-38
3.26681e-39
0
-1.00975e-38
-1.02347e-21
-1.70898e-21
-2.07243e-21
-2.27417e-21
-2.57102e-21
-3.15216e-21
-4.06484e-21
-5.09413e-21
-5.72133e-21
-5.45597e-21
-4.53372e-21
-4.1098e-21
-5.15345e-21
-6.74671e-21
-6.03251e-21
-2.33424e-21
-1.89796e-21
7.08058e-22
0
0.0266604
0.0627818
0.102042
0.142665
0.183857
0.224092
0.261659
0.296334
0.329786
0.364339
0.402904
0.447656
0.498167
0.552601
0.610433
0.672595
0.740722
0.799744
0.843624
0.88444
0.920028
0.948867
0.970997
0.986642
0.996085
0.999803
1
1
1
1
1
1
1
1
1
1
1
1
1
1
1
1
1
1
1
1
1
1
1
1
1
1
1
1
1
1
1
1
1
1
1
1
1
1
1
1
1
1
1
1
1
1
1
1
1
1
1
1
1
1
1
1
1
1
1
1
1
1
1
1
1
1
1
1
1
1
1
1
1
1
1
1
1
1
1
1
1
1
1
1
1
1
1
1
1
1
1
1
1
1
1
1
1
1
1
1
1
1
1
1
1
1
1
1
1
1
1
1
1
1
1
1
1
1
1
1
1
1
1
1
1
1
1
1
1
1
1
1
1
1
1
1
1
1
1
1
1
1
1
1
1
1
1
1
1
1
1
1
1
1
1
1
1
1
1
1
1
1
1
1
1
1
1
1
1
1
1
1
1
1
1
1
1
1
1
1
1
1
1
1
1
1
1
1
1
1
1
1
1
1
1
1
1
1
1
1
1
1
1
1
1
1
1
1
1
1
1
1
1
1
1
1
1
1
1
1
1
1
1
1
1
1
1
1
1
1
1
1
1
1
1
1
1
1
1
1
1
1
1
1
1
1
1
1
1
1
1
1
1
1
1
1
1
1
1
1
1
1
1
1
1
1
1
1
1
1
1
1
1
1
1
1
1
1
1
1
1
1
1
1
1
1
1
1
1
1
1
1
1
1
1
1
1
1
1
1
1
1
1
1
1
1
1
1
1
1
1
1
1
1
1
1
1
1
1
1
1
1
1
1
1
1
1
1
1
1
1
1
1
1
1
1
1
1
1
1
1
1
0.966824
0.440041
-7.64514e-22
0.000141593
8.50584e-05
1.40832e-05
0
2.69652e-22
6.04469e-05
0.00828706
0.0167246
1.84366e-21
-1.78325e-26
1.3296e-20
0.0023411
0.0365796
0.415642
0.687922
0.6865
0.504574
0.25152
0.0488256
7.93734e-21
1.94075e-20
2.13488e-18
-7.40942e-22
-1.80609e-20
-1.32582e-19
0.010227
1.6892e-19
0
-1.34217e-20
-4.85913e-20
-2.4238e-20
-1.73744e-16
-8.86079e-17
6.99426e-17
1.12791e-16
1.23185e-16
1.10841e-16
8.70844e-17
6.30293e-17
4.36257e-17
2.94637e-17
1.95414e-17
1.27688e-17
8.28699e-18
5.42349e-18
3.62428e-18
2.46862e-18
1.72137e-18
1.22156e-18
8.72456e-19
6.18816e-19
4.49006e-19
3.24353e-19
2.31559e-19
1.62718e-19
1.12196e-19
7.56603e-20
4.96744e-20
3.15095e-20
1.90405e-20
1.06547e-20
5.14236e-21
1.56167e-21
-8.23479e-22
-2.5032e-21
-3.86812e-21
-5.09945e-21
-6.17561e-21
-7.10269e-21
-7.95467e-21
-8.84149e-21
-9.90798e-21
-1.10371e-20
-1.19843e-20
-1.26677e-20
-1.32744e-20
-1.38082e-20
-1.41574e-20
-1.44236e-20
-1.42386e-20
-1.40167e-20
-1.42877e-20
-1.57193e-20
-1.90552e-20
-2.1522e-20
-1.56998e-20
-4.65793e-21
-1.28257e-21
-1.92883e-21
-3.79491e-21
9.95656e-39
2.34224e-38
-7.01169e-38
-2.30497e-38
-2.49725e-38
-2.41811e-19
0.0181161
0.0608763
0.11502
0.180488
0.258473
0.348937
0.449546
0.556048
0.664044
0.770838
0.855675
0.908143
0.948041
0.976355
0.992975
0.99955
1
1
1
1
1
1
1
1
1
1
1
1
1
1
1
1
1
1
1
1
1
1
1
1
1
1
1
1
1
1
1
1
1
1
1
1
1
1
1
1
1
1
1
1
1
1
1
1
1
1
1
1
1
1
1
1
1
1
1
1
1
1
1
1
1
1
1
1
1
1
1
1
1
1
1
1
1
1
1
1
1
1
1
1
1
1
1
1
1
1
1
1
1
1
1
1
1
1
1
1
1
1
1
1
1
1
1
1
1
1
1
1
1
1
1
1
1
1
1
1
1
1
1
1
1
1
1
1
1
1
1
1
1
1
1
1
1
1
1
1
1
1
1
1
1
1
1
1
1
1
1
1
1
1
1
1
1
1
1
1
1
1
1
1
1
1
1
1
1
1
1
1
1
1
1
1
1
1
1
1
1
1
1
1
1
1
1
1
1
1
1
1
1
1
1
1
1
1
1
1
1
1
1
1
1
1
1
1
1
1
1
1
1
1
1
1
1
1
1
1
1
1
1
1
1
1
1
1
1
1
1
1
1
1
1
1
1
1
1
1
1
1
1
1
1
1
1
1
1
1
1
1
1
1
1
1
1
1
1
1
1
1
1
1
1
1
1
1
1
1
1
1
1
1
1
1
1
1
1
1
1
1
1
1
1
1
1
1
1
1
1
1
1
1
1
1
1
1
1
1
1
1
1
1
1
1
1
1
1
1
1
1
1
1
1
1
1
1
1
1
1
1
1
1
1
1
1
1
1
1
1
1
1
1
1
0.865493
0.281369
2.47065e-22
4.79863e-05
9.63195e-05
3.16496e-05
4.78104e-22
6.48445e-09
2.03019e-19
0.0149206
0.206597
0.263389
0.262655
0.262623
0.144924
1.71236e-11
-2.22406e-32
-2.17738e-32
3.81681e-23
1.53086e-05
6.67995e-19
4.37559e-20
5.6779e-13
7.93734e-21
4.68982e-16
5.38318e-16
-2.75989e-22
-2.07026e-22
-1.35388e-20
-1.68337e-33
6.49323e-16
8.75138e-16
3.85518e-16
1.58155e-16
1.76481e-16
2.41095e-16
3.21291e-16
3.48443e-16
3.28807e-16
2.74601e-16
2.07637e-16
1.46587e-16
9.9638e-17
6.66699e-17
4.44878e-17
2.98063e-17
2.01372e-17
1.37755e-17
9.57576e-18
6.77149e-18
4.86533e-18
3.54204e-18
2.60303e-18
1.92343e-18
1.42449e-18
1.05508e-18
7.80339e-19
5.75605e-19
4.23002e-19
3.09392e-19
2.25059e-19
1.62757e-19
1.17006e-19
8.36034e-20
5.93264e-20
4.17185e-20
2.89353e-20
1.96266e-20
1.28243e-20
7.839e-21
4.17351e-21
1.45422e-21
-6.04221e-22
-2.21782e-21
-3.55064e-21
-4.72544e-21
-5.85022e-21
-7.03762e-21
-8.4088e-21
-1.00675e-20
-1.20835e-20
-1.44982e-20
-1.71142e-20
-1.93285e-20
-2.06506e-20
-2.0904e-20
-2.01169e-20
-1.83893e-20
-1.58012e-20
-1.25e-20
-8.69408e-21
-4.4383e-21
4.77401e-22
7.10314e-21
1.75606e-20
3.21143e-20
5.12525e-20
6.15924e-20
2.90212e-20
1.1946e-35
4.89104e-36
-1.15953e-20
-6.13088e-18
-1.38555e-17
-1.85762e-17
-1.74066e-17
-1.35884e-17
-7.13482e-18
-1.28467e-18
0.0297444
0.116527
0.233185
0.368052
0.508595
0.645702
0.774253
0.881535
0.940587
0.975569
0.99439
0.999953
1
1
1
1
1
1
1
1
1
1
1
1
1
1
1
1
1
1
1
1
1
1
1
1
1
1
1
1
1
1
1
1
1
1
1
1
1
1
1
1
1
1
1
1
1
1
1
1
1
1
1
1
1
1
1
1
1
1
1
1
1
1
1
1
1
1
1
1
1
1
1
1
1
1
1
1
1
1
1
1
1
1
1
1
1
1
1
1
1
1
1
1
1
1
1
1
1
1
1
1
1
1
1
1
1
1
1
1
1
1
1
1
1
1
1
1
1
1
1
1
1
1
1
1
1
1
1
1
1
1
1
1
1
1
1
1
1
1
1
1
1
1
1
1
1
1
1
1
1
1
1
1
1
1
1
1
1
1
1
1
1
1
1
1
1
1
1
1
1
1
1
1
1
1
1
1
1
1
1
1
1
1
1
1
1
1
1
1
1
1
1
1
1
1
1
1
1
1
1
1
1
1
1
1
1
1
1
1
1
1
1
1
1
1
1
1
1
1
1
1
1
1
1
1
1
1
1
1
1
1
1
1
1
1
1
1
1
1
1
1
1
1
1
1
1
1
1
1
1
1
1
1
1
1
1
1
1
1
1
1
1
1
1
1
1
1
1
1
1
1
1
1
1
1
1
1
1
1
1
1
1
1
1
1
1
1
1
1
1
1
1
1
1
1
1
1
1
1
1
1
1
1
1
1
1
1
1
1
1
1
1
1
1
1
1
1
1
1
1
1
1
1
1
1
1
1
1
1
1
0.808754
0.124242
-1.20836e-22
3.03579e-05
9.51304e-05
-1.07945e-23
3.13058e-08
7.8395e-08
-3.48311e-21
1.43219e-19
0.0210474
0.167913
0.213808
0.0273031
7.66234e-06
0.000205376
1.54281e-13
6.60168e-13
1.40789e-12
5.10518e-14
4.24357e-12
3.70284e-12
1.58806e-12
1.94075e-20
1.17962e-13
2.87363e-13
1.44753e-13
4.06359e-14
6.71574e-14
7.85117e-14
8.3688e-14
5.97867e-14
2.60812e-14
7.40718e-15
1.33131e-15
8.53016e-16
7.62049e-16
7.27605e-16
6.71529e-16
5.45144e-16
4.04925e-16
2.82609e-16
1.89731e-16
1.2476e-16
8.14173e-17
5.32585e-17
3.52042e-17
2.36711e-17
1.62679e-17
1.14487e-17
8.2407e-18
6.04547e-18
4.49929e-18
3.38128e-18
2.55614e-18
1.93835e-18
1.47123e-18
1.11558e-18
8.4354e-19
6.34986e-19
4.7523e-19
3.53346e-19
2.6096e-19
1.91463e-19
1.39572e-19
1.01066e-19
7.26257e-20
5.16944e-20
3.63489e-20
2.51549e-20
1.70397e-20
1.11926e-20
7.0018e-21
4.01079e-21
1.87852e-21
3.50726e-22
-7.62424e-22
-1.60342e-21
-2.28245e-21
-2.89191e-21
-3.52012e-21
-4.2607e-21
-5.20266e-21
-6.40819e-21
-7.91696e-21
-9.73972e-21
-1.1827e-20
-1.40433e-20
-1.61392e-20
-1.76842e-20
-1.7952e-20
-1.56764e-20
-8.47969e-21
8.36812e-21
4.41815e-20
1.15863e-19
2.51598e-19
4.87182e-19
8.4921e-19
1.45613e-18
2.40328e-18
3.17689e-18
7.26578e-19
-9.79437e-18
-2.61956e-17
-4.00116e-17
-4.34417e-17
-3.58875e-17
-2.21695e-17
-8.34724e-18
8.27055e-36
0
-7.2067e-35
5.79281e-36
-1.76222e-37
-2.99803e-36
0.0248648
0.163071
0.348938
0.526473
0.682746
0.822183
0.926191
0.975333
0.995859
1
1
1
1
1
1
1
1
1
1
1
1
1
1
1
1
1
1
1
1
1
1
1
1
1
1
1
1
1
1
1
1
1
1
1
1
1
1
1
1
1
1
1
1
1
1
1
1
1
1
1
1
1
1
1
1
1
1
1
1
1
1
1
1
1
1
1
1
1
1
1
1
1
1
1
1
1
1
1
1
1
1
1
1
1
1
1
1
1
1
1
1
1
1
1
1
1
1
1
1
1
1
1
1
1
1
1
1
1
1
1
1
1
1
1
1
1
1
1
1
1
1
1
1
1
1
1
1
1
1
1
1
1
1
1
1
1
1
1
1
1
1
1
1
1
1
1
1
1
1
1
1
1
1
1
1
1
1
1
1
1
1
1
1
1
1
1
1
1
1
1
1
1
1
1
1
1
1
1
1
1
1
1
1
1
1
1
1
1
1
1
1
1
1
1
1
1
1
1
1
1
1
1
1
1
1
1
1
1
1
1
1
1
1
1
1
1
1
1
1
1
1
1
1
1
1
1
1
1
1
1
1
1
1
1
1
1
1
1
1
1
1
1
1
1
1
1
1
1
1
1
1
1
1
1
1
1
1
1
1
1
1
1
1
1
1
1
1
1
1
1
1
1
1
1
1
1
1
1
1
1
1
1
1
1
1
1
1
1
1
1
1
1
1
1
1
1
1
1
1
1
1
1
1
1
1
1
1
1
1
1
1
1
1
1
1
1
1
1
1
1
1
1
1
1
0.810773
0.0441741
-2.38795e-24
7.35747e-06
2.31259e-05
9.64692e-25
1.97258e-07
8.96392e-08
-7.12754e-27
9.79376e-11
1.4594e-23
1.40974e-23
-5.97093e-22
2.42322e-20
7.84965e-06
3.10429e-05
9.30067e-06
9.00948e-15
1.04499e-14
4.93755e-14
4.28685e-12
3.38077e-12
4.12388e-13
4.56491e-13
9.24223e-13
9.2102e-13
7.96969e-13
4.63734e-13
2.70165e-13
2.26036e-13
2.16088e-13
2.08675e-13
2.02552e-13
1.5422e-13
9.33846e-14
3.38002e-14
3.93417e-15
1.16878e-15
1.0209e-15
8.94835e-16
7.0627e-16
5.11935e-16
3.52381e-16
2.35729e-16
1.55863e-16
1.03177e-16
6.90464e-17
4.70255e-17
3.27173e-17
2.32751e-17
1.69107e-17
1.25185e-17
9.41541e-18
7.17488e-18
5.52533e-18
4.28925e-18
3.34754e-18
2.61888e-18
2.04739e-18
1.59468e-18
1.23421e-18
9.47308e-19
7.20142e-19
5.41821e-19
4.03313e-19
2.96937e-19
2.16158e-19
1.55506e-19
1.10491e-19
7.74887e-20
5.3602e-20
3.6535e-20
2.44926e-20
1.6097e-20
1.03072e-20
6.34846e-21
3.6544e-21
1.81876e-21
5.55251e-22
-3.35662e-22
-9.92827e-22
-1.51368e-21
-1.9676e-21
-2.40702e-21
-2.87835e-21
-3.42679e-21
-4.09348e-21
-4.90388e-21
-5.83284e-21
-6.70994e-21
-6.99675e-21
-5.29948e-21
1.6484e-21
2.10036e-20
6.76676e-20
1.71361e-19
3.88316e-19
8.17791e-19
1.61874e-18
3.01053e-18
5.24418e-18
8.52858e-18
1.27286e-17
1.66955e-17
1.80125e-17
1.44222e-17
6.72874e-18
-3.94916e-19
-1.92726e-18
3.41823e-18
1.07302e-17
1.55108e-17
1.57802e-17
1.18384e-17
5.61615e-18
7.16707e-19
-1.31041e-36
1.35998e-26
2.56005e-26
1.28764e-26
-9.53327e-27
-8.92745e-28
0.0683618
0.30585
0.533973
0.704481
0.848575
0.951577
0.992405
0.999983
1
1
1
1
1
1
1
1
1
1
1
1
1
1
1
1
1
1
1
1
1
1
1
1
1
1
1
1
1
1
1
1
1
1
1
1
1
1
1
1
1
1
1
1
1
1
1
1
1
1
1
1
1
1
1
1
1
1
1
1
1
1
1
1
1
1
1
1
1
1
1
1
1
1
1
1
1
1
1
1
1
1
1
1
1
1
1
1
1
1
1
1
1
1
1
1
1
1
1
1
1
1
1
1
1
1
1
1
1
1
1
1
1
1
1
1
1
1
1
1
1
1
1
1
1
1
1
1
1
1
1
1
1
1
1
1
1
1
1
1
1
1
1
1
1
1
1
1
1
1
1
1
1
1
1
1
1
1
1
1
1
1
1
1
1
1
1
1
1
1
1
1
1
1
1
1
1
1
1
1
1
1
1
1
1
1
1
1
1
1
1
1
1
1
1
1
1
1
1
1
1
1
1
1
1
1
1
1
1
1
1
1
1
1
1
1
1
1
1
1
1
1
1
1
1
1
1
1
1
1
1
1
1
1
1
1
1
1
1
1
1
1
1
1
1
1
1
1
1
1
1
1
1
1
1
1
1
1
1
1
1
1
1
1
1
1
1
1
1
1
1
1
1
1
1
1
1
1
1
1
1
1
1
1
1
1
1
1
1
1
1
1
1
1
1
1
1
1
1
1
1
1
1
1
1
1
1
1
1
1
1
1
1
1
1
1
1
1
1
1
0.811136
0.0101764
-1.84612e-40
1.53813e-23
8.41916e-24
1.42957e-42
6.04845e-08
7.51505e-09
4.80492e-10
1.16027e-10
4.49447e-06
0.000327552
0.00067446
0.00066885
0.000283115
0.000365671
0.000754808
0.000473678
9.00948e-15
4.46267e-06
9.02316e-13
8.95232e-13
6.42082e-13
5.36401e-13
6.29952e-13
4.1413e-13
2.33051e-13
1.74217e-13
1.75633e-13
1.83136e-13
1.75633e-13
1.83885e-13
1.76049e-13
2.75801e-13
4.28566e-13
3.9923e-13
2.09369e-13
4.98446e-14
1.89348e-15
1.14046e-15
9.83267e-16
7.68571e-16
5.5383e-16
3.8142e-16
2.57323e-16
1.73099e-16
1.1757e-16
8.12695e-17
5.73895e-17
4.14278e-17
3.0537e-17
2.29494e-17
1.7563e-17
1.36758e-17
1.08235e-17
8.68829e-18
7.04853e-18
5.75107e-18
4.694e-18
3.81297e-18
3.06958e-18
2.44149e-18
1.91483e-18
1.47921e-18
1.12494e-18
8.42117e-19
6.20528e-19
4.50128e-19
3.21489e-19
2.2613e-19
1.56698e-19
1.07015e-19
7.20506e-20
4.78294e-20
3.12959e-20
2.01595e-20
1.27448e-20
7.85494e-21
4.65322e-21
2.5657e-21
1.20441e-21
3.09638e-22
-2.92218e-22
-7.18642e-22
-1.0509e-21
-1.34584e-21
-1.64144e-21
-1.95056e-21
-2.22285e-21
-2.22473e-21
-1.23125e-21
2.68128e-21
1.41318e-20
4.33955e-20
1.11928e-19
2.62115e-19
5.73272e-19
1.18521e-18
2.32764e-18
4.34428e-18
7.69297e-18
1.29164e-17
2.05628e-17
3.0989e-17
4.40638e-17
5.89288e-17
7.40168e-17
8.74481e-17
9.76715e-17
1.03715e-16
1.0488e-16
1.00463e-16
8.93337e-17
6.98915e-17
4.03438e-17
4.12485e-18
1.3844e-26
1.07007e-08
2.27267e-08
8.95597e-09
-9.31986e-26
-6.77853e-26
-3.80781e-26
2.19005e-34
1.61524e-30
-1.5384e-30
1.67018e-30
0.116169
0.437513
0.672386
0.82546
0.945477
0.994602
1
1
1
1
1
1
1
1
1
1
1
1
1
1
1
1
1
1
1
1
1
1
1
1
1
1
1
1
1
1
1
1
1
1
1
1
1
1
1
1
1
1
1
1
1
1
1
1
1
1
1
1
1
1
1
1
1
1
1
1
1
1
1
1
1
1
1
1
1
1
1
1
1
1
1
1
1
1
1
1
1
1
1
1
1
1
1
1
1
1
1
1
1
1
1
1
1
1
1
1
1
1
1
1
1
1
1
1
1
1
1
1
1
1
1
1
1
1
1
1
1
1
1
1
1
1
1
1
1
1
1
1
1
1
1
1
1
1
1
1
1
1
1
1
1
1
1
1
1
1
1
1
1
1
1
1
1
1
1
1
1
1
1
1
1
1
1
1
1
1
1
1
1
1
1
1
1
1
1
1
1
1
1
1
1
1
1
1
1
1
1
1
1
1
1
1
1
1
1
1
1
1
1
1
1
1
1
1
1
1
1
1
1
1
1
1
1
1
1
1
1
1
1
1
1
1
1
1
1
1
1
1
1
1
1
1
1
1
1
1
1
1
1
1
1
1
1
1
1
1
1
1
1
1
1
1
1
1
1
1
1
1
1
1
1
1
1
1
1
1
1
1
1
1
1
1
1
1
1
1
1
1
1
1
1
1
1
1
1
1
1
1
1
1
1
1
1
1
1
1
1
1
1
1
1
1
1
1
1
1
1
1
1
1
1
1
1
0.334219
0.0257075
-1.96677e-25
3.55493e-41
-3.25307e-41
-1.23813e-23
1.4911e-25
4.42057e-08
3.18585e-09
4.07235e-08
2.49261e-07
2.46782e-07
2.69643e-05
0.00158167
0.00278516
0.00278644
0.00278236
0.0026911
0.00123904
0.00167121
0.000139072
2.81467e-14
2.81467e-14
2.81467e-14
2.81467e-14
2.81467e-14
2.81467e-14
2.81467e-14
5.77749e-05
0.000129234
0.000149394
3.64482e-05
1.83885e-13
2.81467e-14
4.01344e-13
7.59483e-13
9.04279e-13
5.67821e-13
1.73351e-13
1.09656e-14
1.09423e-15
9.37864e-16
7.40148e-16
5.41204e-16
3.79749e-16
2.62502e-16
1.81996e-16
1.27944e-16
9.16825e-17
6.70755e-17
5.01197e-17
3.82816e-17
2.99466e-17
2.40449e-17
1.98217e-17
1.6718e-17
1.43202e-17
1.23408e-17
1.0602e-17
9.01332e-18
7.54436e-18
6.19827e-18
4.99073e-18
3.93625e-18
3.04136e-18
2.30304e-18
1.7101e-18
1.24591e-18
8.91187e-19
6.26241e-19
4.32611e-19
2.93991e-19
1.96672e-19
1.29597e-19
8.41616e-20
5.3878e-20
3.39942e-20
2.11187e-20
1.2889e-20
7.69351e-21
4.45275e-21
2.45394e-21
1.23135e-21
4.82816e-22
1.41415e-23
-2.97046e-22
-5.24223e-22
-6.99587e-22
-7.89688e-22
-5.9132e-22
5.66842e-22
4.56004e-21
1.61056e-20
4.61168e-20
1.18083e-19
2.79402e-19
6.20031e-19
1.30021e-18
2.5861e-18
4.88538e-18
8.76499e-18
1.49334e-17
2.41782e-17
3.72464e-17
5.46609e-17
7.65052e-17
1.02212e-16
1.30371e-16
1.58602e-16
1.83592e-16
2.01479e-16
2.08499e-16
2.01696e-16
1.79618e-16
1.4119e-16
8.74465e-17
2.57543e-17
2.05879e-17
3.57271e-11
4.32329e-07
4.66109e-07
9.27653e-08
-6.2996e-25
1.7947e-13
2.23668e-12
9.97991e-13
3.37044e-14
1.74917e-27
4.80544e-27
6.15852e-27
-3.37142e-27
0.0724
0.449526
0.725231
0.873523
0.972323
0.999759
1
1
1
1
1
1
1
1
1
1
1
1
1
1
1
1
1
1
1
1
1
1
1
1
1
1
1
1
1
1
1
1
1
1
1
1
1
1
1
1
1
1
1
1
1
1
1
1
1
1
1
1
1
1
1
1
1
1
1
1
1
1
1
1
1
1
1
1
1
1
1
1
1
1
1
1
1
1
1
1
1
1
1
1
1
1
1
1
1
1
1
1
1
1
1
1
1
1
1
1
1
1
1
1
1
1
1
1
1
1
1
1
1
1
1
1
1
1
1
1
1
1
1
1
1
1
1
1
1
1
1
1
1
1
1
1
1
1
1
1
1
1
1
1
1
1
1
1
1
1
1
1
1
1
1
1
1
1
1
1
1
1
1
1
1
1
1
1
1
1
1
1
1
1
1
1
1
1
1
1
1
1
1
1
1
1
1
1
1
1
1
1
1
1
1
1
1
1
1
1
1
1
1
1
1
1
1
1
1
1
1
1
1
1
1
1
1
1
1
1
1
1
1
1
1
1
1
1
1
1
1
1
1
1
1
1
1
1
1
1
1
1
1
1
1
1
1
1
1
1
1
1
1
1
1
1
1
1
1
1
1
1
1
1
1
1
1
1
1
1
1
1
1
1
1
1
1
1
1
1
1
1
1
1
1
1
1
1
1
1
1
1
1
1
1
1
1
1
1
1
1
1
1
1
1
1
1
1
1
1
1
1
1
0.194389
0.0457608
-1.76028e-25
-8.64227e-28
9.59961e-06
2.40842e-05
2.88415e-05
1.24317e-05
1.51399e-07
2.0807e-25
-1.01569e-22
2.29077e-07
3.75054e-24
1.52542e-26
-5.24221e-24
-4.80877e-26
-1.49491e-24
-3.49886e-21
0.00384842
0.00420447
0.00416424
2.81467e-14
8.46689e-06
9.64834e-05
0.000138491
0.000281196
0.000430444
0.000251255
0.000976806
0.00123191
0.0012159
0.000671909
0.000188448
2.44151e-05
4.19788e-13
4.42119e-13
1.10337e-12
1.31562e-12
9.56769e-13
3.25926e-13
2.83205e-14
9.30971e-16
7.98708e-16
6.57176e-16
4.96786e-16
3.60388e-16
2.57902e-16
1.85193e-16
1.34697e-16
9.97537e-17
7.55988e-17
5.9011e-17
4.77793e-17
4.03349e-17
3.54499e-17
3.2098e-17
2.94612e-17
2.69789e-17
2.43574e-17
2.1525e-17
1.85539e-17
1.55817e-17
1.27517e-17
1.0178e-17
7.93172e-18
6.0419e-18
4.5034e-18
3.28764e-18
2.35279e-18
1.65191e-18
1.13874e-18
7.71263e-19
5.1359e-19
3.36459e-19
2.16962e-19
1.37767e-19
8.61616e-20
5.3072e-20
3.21837e-20
1.91997e-20
1.12538e-20
6.46747e-21
3.62884e-21
1.96777e-21
1.00313e-21
4.40837e-22
1.06501e-22
-9.46227e-23
-1.85304e-22
-6.28798e-23
6.98086e-22
3.38091e-21
1.1398e-20
3.30301e-20
8.68395e-20
2.11496e-19
4.82068e-19
1.03429e-18
2.09609e-18
4.02068e-18
7.30864e-18
1.26021e-17
2.06382e-17
3.21519e-17
4.77248e-17
6.75968e-17
9.14786e-17
1.184e-16
1.46627e-16
1.73676e-16
1.9652e-16
2.11974e-16
2.17206e-16
2.09929e-16
1.88337e-16
1.50935e-16
9.42418e-17
3.29621e-17
2.05879e-17
4.4235e-07
3.29379e-06
3.08463e-06
7.3211e-07
4.32093e-09
3.31754e-13
2.57999e-12
1.49227e-14
3.17435e-10
9.50574e-10
1.64513e-09
3.0284e-09
-1.45608e-27
-4.5794e-19
-3.04735e-19
-1.01145e-18
0.181355
0.622258
0.842571
0.956783
0.998237
1
1
1
1
1
1
1
1
1
1
1
1
1
1
1
1
1
1
1
1
1
1
1
1
1
1
1
1
1
1
1
1
1
1
1
1
1
1
1
1
1
1
1
1
1
1
1
1
1
1
1
1
1
1
1
1
1
1
1
1
1
1
1
1
1
1
1
1
1
1
1
1
1
1
1
1
1
1
1
1
1
1
1
1
1
1
1
1
1
1
1
1
1
1
1
1
1
1
1
1
1
1
1
1
1
1
1
1
1
1
1
1
1
1
1
1
1
1
1
1
1
1
1
1
1
1
1
1
1
1
1
1
1
1
1
1
1
1
1
1
1
1
1
1
1
1
1
1
1
1
1
1
1
1
1
1
1
1
1
1
1
1
1
1
1
1
1
1
1
1
1
1
1
1
1
1
1
1
1
1
1
1
1
1
1
1
1
1
1
1
1
1
1
1
1
1
1
1
1
1
1
1
1
1
1
1
1
1
1
1
1
1
1
1
1
1
1
1
1
1
1
1
1
1
1
1
1
1
1
1
1
1
1
1
1
1
1
1
1
1
1
1
1
1
1
1
1
1
1
1
1
1
1
1
1
1
1
1
1
1
1
1
1
1
1
1
1
1
1
1
1
1
1
1
1
1
1
1
1
1
1
1
1
1
1
1
1
1
1
1
1
1
1
1
1
1
1
1
1
1
1
1
1
1
1
1
1
1
1
1
0.591611
0.0422905
-7.1132e-27
5.88809e-06
1.65655e-05
3.22668e-05
3.23745e-05
8.86668e-06
6.02795e-08
-9.46916e-25
-1.71537e-21
-4.05652e-22
-4.94871e-22
-1.33496e-20
5.63665e-21
4.36918e-05
5.73865e-06
1.58948e-25
-2.92288e-27
-2.06868e-27
0.00108535
0.00402934
0.00403214
0.00268126
0.00269853
0.00283067
0.00280994
0.00143975
0.00150126
0.00148645
0.000916045
0.000817751
0.000728197
0.000365377
0.000183378
7.67271e-06
1.14018e-12
1.17063e-12
1.44127e-12
1.20892e-12
4.32046e-13
3.99141e-14
7.58069e-16
6.60069e-16
5.61822e-16
4.38648e-16
3.28039e-16
2.41585e-16
1.78245e-16
1.33451e-16
1.0318e-16
8.41709e-17
7.30386e-17
6.73045e-17
6.5e-17
6.41733e-17
6.31213e-17
6.07486e-17
5.66825e-17
5.1128e-17
4.46068e-17
3.77171e-17
3.09808e-17
2.47758e-17
1.93274e-17
1.47303e-17
1.09826e-17
8.0188e-18
5.73856e-18
4.02823e-18
2.77542e-18
1.87806e-18
1.2488e-18
8.1638e-19
5.24921e-19
3.32085e-19
2.0676e-19
1.26707e-19
7.64304e-20
4.53785e-20
2.65188e-20
1.52554e-20
8.6403e-21
4.81659e-21
2.63711e-21
1.4079e-21
7.18598e-22
3.34213e-22
1.35274e-22
1.10933e-22
4.45426e-22
1.81252e-21
6.1348e-21
1.83057e-20
4.97219e-20
1.24872e-19
2.92474e-19
6.42348e-19
1.32776e-18
2.58998e-18
4.7773e-18
8.34744e-18
1.38425e-17
2.18297e-17
3.28074e-17
4.70858e-17
6.46647e-17
8.51337e-17
1.0761e-16
1.30731e-16
1.52717e-16
1.71498e-16
1.84783e-16
1.90076e-16
1.84563e-16
1.64889e-16
1.16825e-16
5.05864e-17
2.07004e-17
2.05879e-17
2.54852e-06
4.5129e-06
4.52547e-06
2.54115e-06
6.26283e-08
2.50731e-14
1.34317e-14
1.44854e-14
5.86021e-26
5.3012e-09
3.86865e-08
6.69988e-10
-4.50564e-24
4.53732e-25
-5.12753e-20
-8.29008e-21
3.41923e-30
-2.19991e-29
0.0647263
0.545513
0.845087
0.964511
0.999196
1
1
1
1
1
1
1
1
1
1
1
1
1
1
1
1
1
1
1
1
1
1
1
1
1
1
1
1
1
1
1
1
1
1
1
1
1
1
1
1
1
1
1
1
1
1
1
1
1
1
1
1
1
1
1
1
1
1
1
1
1
1
1
1
1
1
1
1
1
1
1
1
1
1
1
1
1
1
1
1
1
1
1
1
1
1
1
1
1
1
1
1
1
1
1
1
1
1
1
1
1
1
1
1
1
1
1
1
1
1
1
1
1
1
1
1
1
1
1
1
1
1
1
1
1
1
1
1
1
1
1
1
1
1
1
1
1
1
1
1
1
1
1
1
1
1
1
1
1
1
1
1
1
1
1
1
1
1
1
1
1
1
1
1
1
1
1
1
1
1
1
1
1
1
1
1
1
1
1
1
1
1
1
1
1
1
1
1
1
1
1
1
1
1
1
1
1
1
1
1
1
1
1
1
1
1
1
1
1
1
1
1
1
1
1
1
1
1
1
1
1
1
1
1
1
1
1
1
1
1
1
1
1
1
1
1
1
1
1
1
1
1
1
1
1
1
1
1
1
1
1
1
1
1
1
1
1
1
1
1
1
1
1
1
1
1
1
1
1
1
1
1
1
1
1
1
1
1
1
1
1
1
1
1
1
1
1
1
1
1
1
1
1
1
1
1
1
1
1
1
1
1
1
1
1
1
1
0.617712
0.0283742
-2.21121e-26
2.16585e-06
2.86865e-06
2.82832e-06
3.16085e-05
-2.83537e-21
-9.67111e-22
-3.34108e-22
-1.74533e-20
-1.13043e-20
4.2957e-20
0.0127986
0.0133669
0.00606988
0.000417671
1.89566e-21
-5.32282e-22
-8.34162e-23
-3.22379e-23
-5.61339e-24
0.00296534
0.00364317
0.00363826
0.00281838
0.000923698
0.00129336
0.000320055
3.37548e-21
4.23673e-22
-4.18939e-21
3.49281e-05
0.000542611
0.000542759
0.000296324
9.32389e-06
1.17109e-12
1.16708e-12
1.5006e-12
1.25368e-12
4.27899e-13
3.35961e-14
6.14124e-16
5.49313e-16
4.70715e-16
3.69167e-16
2.78315e-16
2.07533e-16
1.56762e-16
1.26011e-16
1.17887e-16
1.20366e-16
1.25131e-16
1.32213e-16
1.39006e-16
1.42016e-16
1.39177e-16
1.30451e-16
1.17263e-16
1.01572e-16
8.5181e-17
6.94351e-17
5.51795e-17
4.2843e-17
3.25506e-17
2.42269e-17
1.76788e-17
1.26558e-17
8.89261e-18
6.13554e-18
4.1584e-18
2.7695e-18
1.81308e-18
1.16708e-18
7.38855e-19
4.60136e-19
2.81935e-19
1.69983e-19
1.00861e-19
5.89116e-20
3.38859e-20
1.92064e-20
1.07354e-20
5.9214e-21
3.22308e-21
1.72836e-21
9.08909e-22
4.68813e-22
2.64323e-22
2.96322e-22
8.21098e-22
2.70598e-21
8.29541e-21
2.32602e-20
6.01493e-20
1.44544e-19
3.24617e-19
6.84223e-19
1.35816e-18
2.54604e-18
4.51912e-18
7.6136e-18
1.22061e-17
1.86708e-17
2.73238e-17
3.83687e-17
5.18587e-17
6.7684e-17
8.55839e-17
1.05166e-16
1.2589e-16
1.46908e-16
1.66611e-16
1.81817e-16
1.86704e-16
4.34968e-17
3.25803e-13
9.88873e-13
9.11036e-14
2.05879e-17
3.4129e-06
4.5129e-06
4.52547e-06
5.38063e-07
1.52596e-14
4.19067e-12
4.56939e-12
2.35679e-29
1.28588e-28
6.70283e-19
4.27958e-06
8.53583e-06
1.95986e-06
-5.74808e-25
-1.01705e-24
6.52338e-12
2.64686e-11
1.00608e-27
-7.99171e-45
-9.30751e-19
0.0509366
0.562772
0.879944
0.984916
1
1
1
1
1
1
1
1
1
1
1
1
1
1
1
1
1
1
1
1
1
1
1
1
1
1
1
1
1
1
1
1
1
1
1
1
1
1
1
1
1
1
1
1
1
1
1
1
1
1
1
1
1
1
1
1
1
1
1
1
1
1
1
1
1
1
1
1
1
1
1
1
1
1
1
1
1
1
1
1
1
1
1
1
1
1
1
1
1
1
1
1
1
1
1
1
1
1
1
1
1
1
1
1
1
1
1
1
1
1
1
1
1
1
1
1
1
1
1
1
1
1
1
1
1
1
1
1
1
1
1
1
1
1
1
1
1
1
1
1
1
1
1
1
1
1
1
1
1
1
1
1
1
1
1
1
1
1
1
1
1
1
1
1
1
1
1
1
1
1
1
1
1
1
1
1
1
1
1
1
1
1
1
1
1
1
1
1
1
1
1
1
1
1
1
1
1
1
1
1
1
1
1
1
1
1
1
1
1
1
1
1
1
1
1
1
1
1
1
1
1
1
1
1
1
1
1
1
1
1
1
1
1
1
1
1
1
1
1
1
1
1
1
1
1
1
1
1
1
1
1
1
1
1
1
1
1
1
1
1
1
1
1
1
1
1
1
1
1
1
1
1
1
1
1
1
1
1
1
1
1
1
1
1
1
1
1
1
1
1
1
1
1
1
1
1
1
1
1
1
1
1
1
1
1
0.573612
0.0289429
-9.72217e-22
3.46666e-24
5.52591e-05
7.18164e-05
3.25086e-05
0.00151633
0.00160295
0.00398215
0.0156407
0.0214405
0.0567158
0.0875564
0.0873159
0.013009
6.30167e-07
5.8358e-07
5.45775e-07
1.72146e-07
5.56641e-10
-5.15445e-25
4.50534e-05
4.76015e-06
2.6371e-23
3.91913e-28
-3.71848e-28
0.000432416
0.0021623
0.00116426
8.83941e-05
-1.6199e-22
-1.08855e-26
3.57409e-05
0.000459282
0.000523133
0.000271339
1.09074e-05
1.17109e-12
1.34819e-12
1.44458e-12
1.07663e-12
3.19288e-13
1.47301e-14
5.05717e-16
4.658e-16
4.00024e-16
3.21043e-16
2.48657e-16
1.94932e-16
1.98611e-16
3.16156e-16
3.35374e-16
3.18804e-16
3.18835e-16
3.26234e-16
3.2662e-16
3.12863e-16
2.85743e-16
2.50193e-16
2.11582e-16
1.73913e-16
1.39565e-16
1.09658e-16
8.44993e-17
6.39194e-17
4.74903e-17
3.46649e-17
2.48628e-17
1.75237e-17
1.21379e-17
8.263e-18
5.52908e-18
3.63697e-18
2.3521e-18
1.49577e-18
9.35462e-19
5.75449e-19
3.48238e-19
2.07358e-19
1.21525e-19
7.01276e-20
3.9869e-20
2.23469e-20
1.23589e-20
6.7493e-21
3.64146e-21
1.94109e-21
1.02284e-21
5.41744e-22
3.34551e-22
4.05938e-22
1.03707e-21
3.12148e-21
8.93308e-21
2.36553e-20
5.81077e-20
1.33106e-19
2.85657e-19
5.76618e-19
1.09854e-18
1.98158e-18
3.39526e-18
5.54521e-18
8.66733e-18
1.30258e-17
1.89255e-17
2.67509e-17
3.70354e-17
5.05568e-17
6.84276e-17
9.21194e-17
1.23273e-16
1.62962e-16
2.09845e-16
2.55632e-16
4.0398e-17
3.8424e-12
3.03841e-11
1.87955e-11
2.07004e-17
9.96265e-07
1.95217e-06
3.29067e-07
6.51829e-13
9.01537e-12
3.43323e-11
3.81359e-11
2.92501e-11
5.78526e-12
5.6768e-16
2.74488e-05
6.75087e-05
4.30306e-05
3.57874e-06
-1.64109e-23
-6.84447e-25
2.45539e-10
5.1085e-10
8.34118e-11
-8.88387e-28
-1.6009e-18
-1.71638e-18
-6.25632e-19
0.126601
0.677329
0.941357
0.997784
1
1
1
1
1
1
1
1
1
1
1
1
1
1
1
1
1
1
1
1
1
1
1
1
1
1
1
1
1
1
1
1
1
1
1
1
1
1
1
1
1
1
1
1
1
1
1
1
1
1
1
1
1
1
1
1
1
1
1
1
1
1
1
1
1
1
1
1
1
1
1
1
1
1
1
1
1
1
1
1
1
1
1
1
1
1
1
1
1
1
1
1
1
1
1
1
1
1
1
1
1
1
1
1
1
1
1
1
1
1
1
1
1
1
1
1
1
1
1
1
1
1
1
1
1
1
1
1
1
1
1
1
1
1
1
1
1
1
1
1
1
1
1
1
1
1
1
1
1
1
1
1
1
1
1
1
1
1
1
1
1
1
1
1
1
1
1
1
1
1
1
1
1
1
1
1
1
1
1
1
1
1
1
1
1
1
1
1
1
1
1
1
1
1
1
1
1
1
1
1
1
1
1
1
1
1
1
1
1
1
1
1
1
1
1
1
1
1
1
1
1
1
1
1
1
1
1
1
1
1
1
1
1
1
1
1
1
1
1
1
1
1
1
1
1
1
1
1
1
1
1
1
1
1
1
1
1
1
1
1
1
1
1
1
1
1
1
1
1
1
1
1
1
1
1
1
1
1
1
1
1
1
1
1
1
1
1
1
1
1