/*--------------------------------*- C++ -*----------------------------------*\
| =========                 |                                                 |
| \\      /  F ield         | OpenFOAM: The Open Source CFD Toolbox           |
|  \\    /   O peration     | Version:  v2006                                 |
|   \\  /    A nd           | Website:  www.openfoam.com                      |
|    \\/     M anipulation  |                                                 |
\*---------------------------------------------------------------------------*/
FoamFile
{
    version     2.0;
    format      ascii;
    class       volScalarField;
    location    "0";
    object      p;
}
// * * * * * * * * * * * * * * * * * * * * * * * * * * * * * * * * * * * * * //

dimensions      [1 -1 -2 0 0 0 0];


internalField   nonuniform List<scalar> 
67500
(
3.73898
2.72494
1.56523
0.760579
1.26256
1.48212
1.65597
1.43737
0.587342
0.4179
1.27085
1.45094
0.997537
0.890953
1.55349
2.13826
2.56931
1.08952
-0.129397
1.13459
2.22267
0.935957
-0.114653
-0.172045
0.394933
0.81776
1.58798
2.21683
2.51111
2.54907
2.24518
1.75305
1.29408
0.868475
0.623241
0.529956
0.537203
0.584241
0.598042
0.586216
0.584495
0.608424
0.66034
0.729256
0.794175
0.838737
0.856425
0.844683
0.807711
0.76035
0.719356
0.69916
0.711961
0.741855
0.724977
0.711757
0.723704
0.74759
0.76479
0.761209
0.732345
0.682643
0.622151
0.562996
0.516119
0.488168
0.48054
0.490076
0.510228
0.532952
0.551244
0.561352
0.563791
0.562821
0.564728
0.57593
0.602156
0.648211
0.716374
0.806698
0.916146
1.01782
1.01491
0.906652
0.806372
0.734636
0.677765
0.636985
0.611555
0.598568
0.597083
0.607478
0.630519
0.667251
0.718935
0.786344
0.868763
0.964328
1.06573
1.1414
1.15434
1.13254
1.11181
1.10247
1.11064
1.14034
1.19075
1.25758
1.33122
1.39224
1.42541
1.44556
1.47383
1.51493
1.56731
1.62651
1.6829
1.72819
1.76582
1.80559
1.85129
1.90118
1.95189
2.00065
2.04834
2.09739
2.14784
2.19811
2.24704
2.29443
2.34019
2.38352
2.42355
2.46001
2.493
2.5224
2.54794
2.56935
2.58636
2.59862
2.60586
2.60799
2.60507
2.59733
2.58509
2.56874
2.54865
2.52514
2.49843
2.46864
2.4358
2.39985
2.36074
2.3184
2.27283
2.22411
2.1724
2.11796
2.06112
2.00226
1.9418
1.88016
1.81777
1.75502
1.6923
1.62993
1.56824
1.50747
1.44784
1.38955
1.33273
1.2775
1.22391
1.17202
1.12186
1.07341
1.02666
0.9816
0.938181
0.896372
0.856135
0.817433
0.780234
0.744506
0.710222
0.677357
0.645889
0.615795
0.587053
0.559641
0.533533
0.508699
0.48511
0.462729
0.44152
0.421442
0.402452
0.384505
0.367556
0.35156
0.336471
0.322245
0.308837
0.296206
0.284311
0.273115
0.262579
0.252668
0.243351
0.234594
0.226368
0.218644
0.211393
0.20459
0.198209
0.192225
0.186615
0.181355
0.176423
0.171796
0.167454
0.163376
0.159541
0.155929
0.152522
0.149299
0.146242
0.143334
0.140556
0.137891
0.135322
0.132834
0.130412
0.128041
0.125707
0.1234
0.121107
0.118818
0.116526
0.114223
0.111903
0.109562
0.107197
0.104807
0.10239
0.0999487
0.0974841
0.0949994
0.0924982
0.089985
0.0874646
0.0849423
0.0824237
0.0799142
0.0774196
0.0749451
0.072496
0.0700772
0.067693
0.0653477
0.0630447
0.0607871
0.0585775
0.0564179
0.05431
0.0522547
0.0502528
0.0483044
0.0464094
0.0445673
0.0427771
0.0410379
0.0393484
0.0377069
0.0361119
0.0345615
0.0330539
0.0315873
0.0301597
0.0287691
0.0274136
0.0260914
0.0248007
0.0235397
0.0223068
0.0211004
0.0199189
0.0187611
0.0176256
0.0165112
0.0154168
0.0143415
0.0132843
0.0122444
0.0112212
0.0102139
0.0092221
0.00824522
0.00728287
0.0063347
0.00540044
0.00447984
0.00357274
0.00267901
0.00179854
0.000931303
7.72714e-05
-0.000763533
-0.00159107
-0.00240525
-0.003206
-0.00399318
-0.00476667
-0.00552631
-0.00627193
-0.00700335
-0.00772037
-0.00842281
-0.00911043
-0.00978303
-0.0104404
-0.0110823
-0.0117084
-0.0123186
-0.0129126
-0.0134901
-0.014051
-0.0145948
-0.0151214
-0.0156305
-0.0161218
-0.016595
-0.0170498
-0.0174858
-0.0179028
-0.0183004
-0.0186783
-0.0190362
-0.0193737
-0.0196906
-0.0199866
-0.0202614
-0.0205148
-0.0207467
-0.020957
-0.0211457
-0.0213127
-0.0214583
-0.0215825
-0.0216858
-0.0217684
-0.0218309
-0.0218737
-0.0218976
-0.0219032
-0.0218913
-0.0218628
-0.0218186
-0.0217596
-0.0216868
-0.0216013
-0.0215039
-0.0213956
-0.0212772
-0.0211494
-0.021013
-0.0208684
-0.020716
-0.0205562
-0.0203889
-0.0202144
-0.0200326
-0.0198435
-0.019647
-0.019443
-0.0192317
-0.019013
-0.0187872
-0.0185544
-0.018315
-0.0180693
-0.0178178
-0.0175609
-0.0172991
-0.0170331
-0.0167633
-0.0164904
-0.0162148
-0.015937
-0.0156576
-0.015377
-0.0150956
-0.0148137
-0.0145318
-0.01425
-0.0139687
-0.013688
-0.0134081
-0.0131292
-0.0128514
-0.0125748
-0.0122994
-0.0120254
-0.0117526
-0.0114812
-0.0112112
-0.0109425
-0.0106751
-0.010409
-0.0101442
-0.00988062
-0.00961825
-0.00935704
-0.00909695
-0.00883794
-0.00857995
-0.00832295
-0.0080669
-0.00781174
-0.00755744
-0.00730396
-0.00705124
-0.00679926
-0.00654797
-0.00629734
-0.00604733
-0.00579791
-0.00554903
-0.00530068
-0.00505282
-0.00480541
-0.00455844
-0.00431187
-0.00406568
-0.00381984
-0.00357433
-0.00332913
-0.0030842
-0.00283954
-0.00259511
-0.00235091
-0.0021069
-0.00186308
-0.00161939
-0.00137594
-0.00113226
-0.000889773
-0.000643017
-0.000407399
-0.000111069
3.52268
1.63009
0.523303
0.303447
0.564343
0.949487
1.01247
0.126388
-0.0318114
-0.106006
-0.21452
-0.478583
-0.139408
-0.959538
-0.354761
-0.224885
-0.278546
-1.83169
-3.03146
-1.82759
-0.169184
0.541922
0.778129
1.29445
1.39467
0.647899
1.12417
1.81861
2.29731
2.42654
2.03905
1.5755
1.08495
0.43982
0.291213
0.281117
0.443116
0.626512
0.711671
0.731084
0.735391
0.733605
0.730335
0.726411
0.712538
0.68653
0.65627
0.630378
0.615081
0.612421
0.623199
0.659033
0.746336
0.858872
0.779289
0.725035
0.712556
0.717697
0.721561
0.712135
0.687604
0.651494
0.608723
0.564286
0.524117
0.493614
0.476669
0.473777
0.481396
0.493718
0.505276
0.512492
0.51425
0.51164
0.507347
0.50535
0.510847
0.529123
0.565275
0.62772
0.734117
0.892674
0.890055
0.722016
0.6041
0.542941
0.504363
0.48417
0.478222
0.48184
0.493114
0.512441
0.541918
0.583747
0.639742
0.711603
0.799661
0.90547
1.03327
1.13826
1.12664
1.0736
1.03561
1.01347
1.01242
1.03696
1.08596
1.15694
1.24348
1.31741
1.34397
1.35308
1.37876
1.42289
1.48297
1.55365
1.61968
1.66522
1.69766
1.73512
1.78186
1.83451
1.88786
1.93696
1.98416
2.03421
2.08689
2.13958
2.19053
2.23989
2.28798
2.33363
2.37556
2.41369
2.44846
2.47981
2.50736
2.53087
2.55002
2.56435
2.57347
2.57731
2.57594
2.5696
2.55868
2.54363
2.52486
2.50271
2.47742
2.44909
2.41772
2.38322
2.34549
2.30442
2.25999
2.21226
2.1614
2.10769
2.05146
1.99312
1.93311
1.87187
1.80984
1.74743
1.68502
1.62296
1.56156
1.50109
1.44175
1.38375
1.32722
1.27227
1.21896
1.16735
1.11746
1.06927
1.02278
0.97795
0.934753
0.893149
0.853101
0.814573
0.77753
0.741944
0.707789
0.675042
0.643681
0.613688
0.585041
0.557718
0.531696
0.506947
0.48344
0.461141
0.440012
0.420012
0.401098
0.383226
0.366349
0.350422
0.335399
0.321236
0.307888
0.295313
0.283471
0.272324
0.261835
0.251969
0.242693
0.233975
0.225786
0.218096
0.210879
0.204107
0.197756
0.191802
0.186219
0.180985
0.176079
0.171477
0.167159
0.163104
0.159292
0.155702
0.152316
0.149114
0.146077
0.143188
0.140428
0.137781
0.135229
0.132758
0.130351
0.127994
0.125674
0.123378
0.121096
0.118816
0.116532
0.114235
0.11192
0.109582
0.107219
0.10483
0.102413
0.0999695
0.0975023
0.0950141
0.0925088
0.0899909
0.0874654
0.0849378
0.0824137
0.0798989
0.0773989
0.0749193
0.0724654
0.0700422
0.067654
0.0653052
0.0629991
0.060739
0.0585273
0.0563662
0.0542572
0.0522013
0.0501992
0.048251
0.0463565
0.0445152
0.0427261
0.0409883
0.0393002
0.0376604
0.0360671
0.0345186
0.033013
0.0315483
0.0301225
0.0287338
0.0273803
0.0260599
0.0247709
0.0235116
0.0222803
0.0210753
0.0198952
0.0187387
0.0176044
0.016491
0.0153977
0.0143232
0.0132669
0.0122277
0.0112051
0.0101984
0.00920709
0.00823061
0.00726861
0.00632073
0.0053867
0.00446628
0.00355932
0.00266567
0.00178525
0.00091803
6.39817e-05
-0.000776869
-0.00160447
-0.00241876
-0.00321962
-0.00400694
-0.00478058
-0.00554039
-0.00628619
-0.0070178
-0.00773503
-0.00843767
-0.00912551
-0.00979833
-0.0104559
-0.011098
-0.0117244
-0.0123348
-0.0129291
-0.0135069
-0.0140679
-0.0146121
-0.0151389
-0.0156483
-0.0161399
-0.0166134
-0.0170684
-0.0175048
-0.0179221
-0.01832
-0.0186982
-0.0190564
-0.0193943
-0.0197114
-0.0200076
-0.0202826
-0.0205362
-0.0207681
-0.0209784
-0.0211669
-0.0213338
-0.021479
-0.0216028
-0.0217055
-0.0217876
-0.0218493
-0.0218914
-0.0219144
-0.0219191
-0.0219064
-0.021877
-0.021832
-0.0217722
-0.0216988
-0.0216126
-0.0215147
-0.0214061
-0.0212874
-0.0211596
-0.0210233
-0.0208789
-0.0207268
-0.0205673
-0.0204005
-0.0202263
-0.0200449
-0.0198559
-0.0196595
-0.0194556
-0.0192441
-0.0190251
-0.0187988
-0.0185654
-0.0183253
-0.0180788
-0.0178264
-0.0175686
-0.0173059
-0.017039
-0.0167684
-0.0164946
-0.0162182
-0.0159397
-0.0156596
-0.0153784
-0.0150964
-0.0148141
-0.0145318
-0.0142496
-0.013968
-0.0136871
-0.013407
-0.013128
-0.0128501
-0.0125734
-0.0122979
-0.0120238
-0.011751
-0.0114796
-0.0112096
-0.0109409
-0.0106735
-0.0104075
-0.0101427
-0.00987918
-0.00961686
-0.0093557
-0.00909566
-0.00883669
-0.00857875
-0.0083218
-0.0080658
-0.00781069
-0.00755644
-0.007303
-0.00705033
-0.00679839
-0.00654714
-0.00629655
-0.00604658
-0.00579719
-0.00554835
-0.00530003
-0.0050522
-0.00480483
-0.00455789
-0.00431135
-0.00406519
-0.00381938
-0.00357389
-0.00332871
-0.00308381
-0.00283917
-0.00259477
-0.00235058
-0.0021066
-0.00186279
-0.00161913
-0.00137569
-0.00113204
-0.000889571
-0.000642836
-0.000407239
-0.000110995
4.41414
5.35322
1.47177
0.346822
0.385401
0.256733
0.11027
0.0477575
-0.0712199
-0.196954
-0.316444
-0.349822
-0.301349
-0.163905
0.307199
-0.207537
-0.316977
-0.787221
-1.42346
-1.23992
-0.0513016
1.45527
1.43435
0.804665
1.41525
1.55103
2.10135
2.81297
3.42893
3.32972
1.79264
1.47241
1.17516
-0.694043
-0.0504298
0.113376
0.257052
0.307962
0.306871
0.313601
0.330008
0.342336
0.349599
0.348966
0.337415
0.322558
0.314198
0.310122
0.307446
0.309047
0.322092
0.357657
0.445227
0.733973
0.503079
0.465114
0.484575
0.509939
0.514435
0.482484
0.420839
0.344857
0.272398
0.218593
0.193028
0.191742
0.205824
0.226095
0.243085
0.24822
0.237125
0.211644
0.180552
0.156893
0.152287
0.173349
0.222121
0.299377
0.408668
0.561544
0.813159
1.26122
1.14843
0.845582
0.729482
0.642012
0.561243
0.504677
0.462944
0.430105
0.406735
0.393176
0.39005
0.401174
0.42846
0.472465
0.532785
0.61617
0.776611
0.99922
0.939597
0.828611
0.76967
0.742505
0.748416
0.790013
0.864487
0.971197
1.1126
1.23804
1.23762
1.20895
1.22036
1.25763
1.31938
1.40434
1.48682
1.5268
1.5435
1.57669
1.62897
1.69312
1.75784
1.80982
1.85649
1.90944
1.96725
2.02474
2.07884
2.13124
2.18374
2.23394
2.27946
2.32078
2.35919
2.39457
2.42624
2.45402
2.47757
2.49606
2.50896
2.51621
2.5179
2.51432
2.50601
2.49351
2.47735
2.45792
2.43547
2.41009
2.38171
2.35014
2.3152
2.27669
2.23454
2.18879
2.13962
2.08733
2.0323
1.97498
1.91585
1.8554
1.79408
1.73233
1.67055
1.60909
1.54828
1.48838
1.42963
1.37219
1.31623
1.26185
1.20911
1.15806
1.1087
1.06104
1.01504
0.970687
0.927933
0.886739
0.847068
0.808882
0.772151
0.736846
0.702946
0.670431
0.639283
0.609487
0.581025
0.55388
0.52803
0.503448
0.480105
0.457968
0.437
0.417157
0.398399
0.380677
0.363947
0.348162
0.333274
0.319239
0.306013
0.293554
0.281821
0.270775
0.260381
0.250604
0.241412
0.232773
0.224657
0.217037
0.209885
0.203176
0.196884
0.190985
0.185456
0.180274
0.175417
0.170863
0.166591
0.162581
0.158812
0.155264
0.151919
0.148756
0.145758
0.142906
0.140183
0.13757
0.135052
0.132612
0.130235
0.127906
0.125611
0.123339
0.121077
0.118816
0.116546
0.114262
0.111956
0.109625
0.107265
0.104876
0.102458
0.100011
0.0975385
0.0950432
0.0925293
0.0900018
0.087466
0.0849276
0.0823925
0.0798667
0.0773561
0.0748663
0.0724028
0.0699708
0.0675747
0.0652188
0.0629068
0.0606416
0.058426
0.0562619
0.0541508
0.0520938
0.0500913
0.0481435
0.0462502
0.0444106
0.0426238
0.0408886
0.0392036
0.0375672
0.0359775
0.0344327
0.0329309
0.0314701
0.0300483
0.0286634
0.0273136
0.0259969
0.0247114
0.0234554
0.0222272
0.0210253
0.019848
0.018694
0.017562
0.0164509
0.0153595
0.0142869
0.0132321
0.0121944
0.0111731
0.0101675
0.00917713
0.00820147
0.00724016
0.00629285
0.00535927
0.00443921
0.0035325
0.00263903
0.00175871
0.000891516
3.74318e-05
-0.000803513
-0.00163126
-0.00244574
-0.00324684
-0.00403443
-0.00480838
-0.00556853
-0.00631469
-0.00704669
-0.00776432
-0.00846739
-0.00915567
-0.00982895
-0.010487
-0.0111296
-0.0117564
-0.0123674
-0.0129621
-0.0135404
-0.014102
-0.0146467
-0.0151741
-0.0156841
-0.0161763
-0.0166503
-0.0171061
-0.0175431
-0.017961
-0.0183596
-0.0187385
-0.0190973
-0.0194357
-0.0197534
-0.0200501
-0.0203256
-0.0205795
-0.0208118
-0.0210223
-0.0212109
-0.0213777
-0.0215228
-0.0216464
-0.0217487
-0.0218301
-0.021891
-0.0219321
-0.0219539
-0.0219572
-0.0219427
-0.0219114
-0.0218642
-0.0218021
-0.0217261
-0.0216373
-0.0215367
-0.0214253
-0.021304
-0.0211737
-0.0210351
-0.0208886
-0.0207349
-0.020574
-0.020406
-0.0202311
-0.0200491
-0.01986
-0.0196634
-0.0194595
-0.0192481
-0.0190292
-0.018803
-0.0185696
-0.0183295
-0.0180829
-0.0178303
-0.0175723
-0.0173093
-0.017042
-0.016771
-0.0164968
-0.0162199
-0.015941
-0.0156605
-0.0153788
-0.0150965
-0.0148138
-0.0145311
-0.0142487
-0.0139668
-0.0136856
-0.0134054
-0.0131262
-0.0128481
-0.0125713
-0.0122958
-0.0120217
-0.0117489
-0.0114775
-0.0112074
-0.0109388
-0.0106715
-0.0104055
-0.0101407
-0.00987728
-0.00961503
-0.00935394
-0.00909397
-0.00883508
-0.00857722
-0.00832035
-0.00806442
-0.00780939
-0.00755521
-0.00730184
-0.00704924
-0.00679737
-0.00654619
-0.00629567
-0.00604576
-0.00579643
-0.00554765
-0.00529939
-0.00505161
-0.00480429
-0.00455739
-0.0043109
-0.00406478
-0.00381901
-0.00357357
-0.00332843
-0.00308356
-0.00283896
-0.0025946
-0.00235045
-0.00210649
-0.00186273
-0.00161909
-0.00137569
-0.00113207
-0.00088963
-0.000642932
-0.000407337
-0.000111146
4.1455
2.7183
0.527074
0.179294
0.166606
0.214533
0.189072
0.0313051
-0.170915
-0.335326
-0.396488
-0.394257
-0.338741
-0.204085
-0.0972357
-0.126252
-0.153291
-0.514789
-0.145882
-0.558672
0.322356
1.34377
1.55401
0.847261
0.301244
0.206636
0.801933
2.42258
4.64033
6.49718
1.78608
0.93223
1.72289
0.308874
0.332127
0.302581
0.281733
0.281872
0.299156
0.318667
0.331551
0.336879
0.337514
0.335623
0.332844
0.32997
0.326369
0.321589
0.317253
0.317291
0.326738
0.352478
0.388891
0.330573
0.143818
0.152991
0.173303
0.184254
0.188916
0.190012
0.189276
0.188518
0.188842
0.189816
0.190041
0.188933
0.18697
0.184773
0.182526
0.180112
0.177709
0.175869
0.174973
0.175328
0.177072
0.18031
0.185199
0.192972
0.209735
0.253456
0.391178
1.31407
1.05886
0.229685
0.0737605
0.0804846
0.0692402
0.0710521
0.0875333
0.105611
0.12369
0.14242
0.160718
0.189287
0.237088
0.31183
0.407656
0.550167
0.87404
1.39527
1.03002
0.820873
0.724746
0.645162
0.600819
0.591484
0.612963
0.666368
0.815418
1.05718
0.974171
0.860868
0.859661
0.91793
1.02314
1.17519
1.32608
1.35362
1.33171
1.35673
1.4122
1.48847
1.56847
1.61626
1.65477
1.71067
1.7786
1.84741
1.90799
1.96613
2.02742
2.08588
2.13645
2.18156
2.22498
2.26623
2.30394
2.3383
2.36881
2.39381
2.41245
2.4248
2.43097
2.43138
2.42681
2.41805
2.40573
2.39037
2.37225
2.35138
2.32758
2.30054
2.26988
2.23529
2.1966
2.15383
2.10716
2.05696
2.00368
1.94785
1.89002
1.83071
1.77044
1.70967
1.64882
1.58827
1.52833
1.4693
1.4114
1.35483
1.29973
1.24621
1.19432
1.14411
1.09557
1.0487
1.00346
0.95982
0.917733
0.877157
0.838051
0.80038
0.764113
0.729228
0.695706
0.663534
0.632702
0.603198
0.575013
0.548131
0.522535
0.498203
0.475106
0.453212
0.432482
0.412874
0.394345
0.376848
0.360334
0.344756
0.330066
0.31622
0.303172
0.29088
0.279305
0.268408
0.258154
0.248508
0.239439
0.230916
0.22291
0.215394
0.208342
0.201727
0.195525
0.189713
0.184267
0.179165
0.174385
0.169905
0.165706
0.161765
0.158064
0.154582
0.151301
0.1482
0.145262
0.142469
0.139802
0.137243
0.134777
0.132386
0.130055
0.12777
0.125515
0.123278
0.121048
0.118815
0.116569
0.114303
0.112012
0.109691
0.107337
0.10495
0.10253
0.100078
0.0975968
0.0950905
0.0925636
0.0900215
0.0874699
0.084915
0.082363
0.0798204
0.0772934
0.074788
0.0723098
0.0698643
0.0674561
0.0650895
0.0627682
0.0604954
0.0582737
0.056105
0.0539908
0.0519319
0.049929
0.0479819
0.0460902
0.0442533
0.0424699
0.0407389
0.0390586
0.0374272
0.035843
0.0343039
0.0328079
0.031353
0.029937
0.0285579
0.0272138
0.0259025
0.0246223
0.0233714
0.0221479
0.0209504
0.0197773
0.0186272
0.0174988
0.016391
0.0153026
0.0142326
0.0131803
0.0121447
0.0111253
0.0101213
0.00913236
0.00815792
0.00719763
0.00625116
0.00531825
0.00439871
0.00349239
0.00259917
0.00171899
0.000851826
-2.32156e-06
-0.000843417
-0.0016714
-0.00248617
-0.00328763
-0.00407564
-0.00485006
-0.00561071
-0.00635742
-0.00709
-0.00780824
-0.00851193
-0.00920087
-0.00987481
-0.0105335
-0.0111768
-0.0118044
-0.012416
-0.0130115
-0.0135905
-0.0141529
-0.0146983
-0.0152265
-0.0157373
-0.0162303
-0.0167053
-0.0171619
-0.0175999
-0.0180188
-0.0184184
-0.0187982
-0.019158
-0.0194973
-0.0198158
-0.0201133
-0.0203893
-0.0206436
-0.020876
-0.0210863
-0.0212746
-0.0214407
-0.0215847
-0.021707
-0.0218076
-0.0218871
-0.0219459
-0.0219846
-0.0220039
-0.0220046
-0.0219875
-0.0219536
-0.021904
-0.0218396
-0.0217617
-0.0216712
-0.0215693
-0.0214571
-0.0213354
-0.0212052
-0.0210671
-0.0209215
-0.0207689
-0.0206093
-0.0204428
-0.0202692
-0.0200884
-0.0199
-0.0197038
-0.0194998
-0.0192877
-0.0190677
-0.0188399
-0.0186046
-0.018362
-0.0181128
-0.0178574
-0.0175964
-0.0173305
-0.0170603
-0.0167865
-0.0165096
-0.0162302
-0.015949
-0.0156664
-0.0153829
-0.0150989
-0.0148148
-0.0145308
-0.0142474
-0.0139646
-0.0136827
-0.0134019
-0.0131222
-0.0128438
-0.0125667
-0.012291
-0.0120168
-0.0117439
-0.0114725
-0.0112025
-0.0109339
-0.0106667
-0.0104008
-0.0101362
-0.00987285
-0.00961074
-0.0093498
-0.00908998
-0.00883124
-0.00857354
-0.00831682
-0.00806104
-0.00780615
-0.00755212
-0.00729889
-0.00704642
-0.00679468
-0.00654363
-0.00629322
-0.00604343
-0.00579422
-0.00554554
-0.00529739
-0.00504971
-0.00480248
-0.00455568
-0.00430928
-0.00406324
-0.00381756
-0.00357219
-0.00332712
-0.00308233
-0.0028378
-0.00259351
-0.00234942
-0.00210554
-0.00186183
-0.00161826
-0.00137492
-0.00113136
-0.000888975
-0.000642341
-0.000406812
-0.000110894
2.89028
0.878697
0.347376
0.203255
0.18062
0.201053
0.154601
-0.0215293
-0.270807
-0.4993
-0.49033
-0.45665
-0.367913
-0.186721
-0.0584363
-0.0800881
-0.297678
-0.73427
-1.6097
-0.71556
2.03059
2.63443
0.227469
0.24079
0.221512
0.214418
0.202768
0.274405
0.602483
0.446611
0.473449
0.382526
0.378577
0.281046
0.245237
0.228408
0.241715
0.272887
0.300337
0.322167
0.335045
0.339363
0.338902
0.335354
0.330382
0.325401
0.320669
0.315782
0.311186
0.309358
0.311802
0.317411
0.316514
0.285607
0.238136
0.219935
0.213872
0.211097
0.208901
0.206603
0.204074
0.201334
0.198496
0.195749
0.193186
0.190786
0.188562
0.186636
0.18509
0.183905
0.183146
0.182933
0.183201
0.184075
0.185837
0.188609
0.192987
0.200776
0.216183
0.25045
0.312445
0.256495
-0.0837578
0.0509291
0.103479
0.12529
0.136539
0.143573
0.147857
0.149425
0.149026
0.147573
0.14608
0.14644
0.149268
0.152543
0.15814
0.195728
0.286665
1.94963
0.659978
0.161315
0.0629857
0.00238586
-0.0050536
0.0475226
0.183537
0.375605
0.742228
1.37195
0.962313
0.783654
0.756124
0.732272
0.76463
0.90569
1.15771
1.10078
0.967372
0.972392
1.05168
1.18494
1.32844
1.3673
1.38975
1.45314
1.53499
1.61819
1.68003
1.74053
1.81375
1.88497
1.94227
1.99205
2.04346
2.09401
2.14025
2.18385
2.22433
2.2582
2.28439
2.30352
2.31554
2.32097
2.32115
2.31714
2.30978
2.29981
2.28753
2.27285
2.25542
2.23465
2.2099
2.18067
2.14665
2.10782
2.06443
2.01693
1.96589
1.91196
1.85577
1.79793
1.73902
1.67953
1.6199
1.56053
1.50176
1.44388
1.38713
1.3317
1.27775
1.22538
1.17464
1.12555
1.07812
1.03231
0.988092
0.945411
0.904219
0.864467
0.826114
0.789125
0.753472
0.719137
0.686111
0.654388
0.623966
0.594843
0.567017
0.54048
0.515221
0.491219
0.46845
0.446881
0.426474
0.407187
0.388972
0.371782
0.355565
0.340274
0.325859
0.312272
0.29947
0.28741
0.276051
0.265357
0.255291
0.245822
0.236918
0.228549
0.220688
0.213309
0.206385
0.199892
0.193806
0.188104
0.182763
0.177762
0.173079
0.168694
0.164585
0.160732
0.157116
0.153717
0.150516
0.147495
0.144633
0.141914
0.139319
0.13683
0.134431
0.132104
0.129833
0.127603
0.1254
0.123211
0.121022
0.118825
0.116609
0.114368
0.112095
0.109786
0.107439
0.105053
0.102629
0.100169
0.0976752
0.0951534
0.0926082
0.0900457
0.0874723
0.0848947
0.0823198
0.0797544
0.0772053
0.0746789
0.0721811
0.0697176
0.0672932
0.0649125
0.0625792
0.0602965
0.0580669
0.0558923
0.0537742
0.0517134
0.0497101
0.0477642
0.0458751
0.0440419
0.0422635
0.0405381
0.0388642
0.0372399
0.0356631
0.0341318
0.0326437
0.0311967
0.0297887
0.0284174
0.0270809
0.025777
0.0245039
0.0232597
0.0220426
0.0208511
0.0196836
0.0185386
0.017415
0.0163115
0.0152271
0.0141607
0.0131115
0.0120788
0.0110619
0.0100601
0.009073
0.00810016
0.0071412
0.00619583
0.0052638
0.00434494
0.0034391
0.0025462
0.00166619
0.000799056
-5.51909e-05
-0.000896498
-0.00172479
-0.00253997
-0.00334192
-0.0041305
-0.00490555
-0.00566689
-0.00641434
-0.00714771
-0.00786679
-0.00857135
-0.00926118
-0.00993604
-0.0105957
-0.0112399
-0.0118685
-0.0124811
-0.0130776
-0.0136577
-0.0142211
-0.0147676
-0.015297
-0.0158089
-0.0163032
-0.0167794
-0.0172373
-0.0176766
-0.0180968
-0.0184977
-0.0188789
-0.01924
-0.0195806
-0.0199004
-0.020199
-0.020476
-0.0207312
-0.0209644
-0.0211754
-0.021364
-0.0215303
-0.0216743
-0.0217961
-0.0218961
-0.0219745
-0.0220317
-0.0220685
-0.0220853
-0.0220829
-0.0220622
-0.0220241
-0.0219697
-0.0219001
-0.0218164
-0.0217198
-0.0216117
-0.0214932
-0.0213655
-0.0212296
-0.0210863
-0.0209362
-0.0207798
-0.0206172
-0.0204485
-0.0202734
-0.0200917
-0.019903
-0.0197069
-0.0195032
-0.0192917
-0.0190723
-0.018845
-0.0186101
-0.0183679
-0.0181188
-0.0178633
-0.0176021
-0.0173359
-0.0170651
-0.0167907
-0.0165131
-0.016233
-0.015951
-0.0156676
-0.0153834
-0.0150987
-0.0148139
-0.0145294
-0.0142453
-0.0139621
-0.0136798
-0.0133986
-0.0131187
-0.01284
-0.0125628
-0.012287
-0.0120127
-0.0117398
-0.0114684
-0.0111984
-0.0109299
-0.0106627
-0.0103969
-0.0101324
-0.00986924
-0.00960726
-0.00934647
-0.0090868
-0.00882821
-0.00857066
-0.00831409
-0.00805846
-0.00780373
-0.00754983
-0.00729675
-0.00704442
-0.00679282
-0.00654189
-0.00629161
-0.00604194
-0.00579284
-0.00554428
-0.00529623
-0.00504866
-0.00480153
-0.00455482
-0.00430851
-0.00406256
-0.00381696
-0.00357167
-0.00332668
-0.00308197
-0.00283751
-0.00259328
-0.00234927
-0.00210545
-0.00186181
-0.0016183
-0.00137502
-0.00113152
-0.000889192
-0.000642629
-0.000407099
-0.00011126
2.23346
0.337416
0.216874
0.178596
0.138061
0.13072
0.0885667
-0.0676454
-0.308499
-0.560961
-0.473698
-0.416281
-0.334609
-0.191919
-0.0520519
0.100928
0.751757
1.8133
1.56281
0.0998154
0.140792
0.297982
0.272289
0.246436
0.228284
0.218375
0.212835
0.21443
0.290093
0.34812
0.355781
0.360986
0.359711
0.333521
0.277678
0.250017
0.2604
0.283365
0.302717
0.317451
0.326288
0.329347
0.328741
0.326248
0.322971
0.319441
0.315905
0.312073
0.307945
0.304212
0.301046
0.296979
0.286835
0.265137
0.241097
0.226486
0.217948
0.212472
0.208595
0.205605
0.203117
0.200851
0.198579
0.196175
0.193603
0.190951
0.188429
0.186253
0.184537
0.183263
0.182419
0.182158
0.182479
0.183307
0.184675
0.186694
0.189734
0.194221
0.200816
0.210009
0.214978
0.181276
0.137027
0.140224
0.145903
0.15009
0.15265
0.154146
0.155088
0.155222
0.154812
0.154663
0.154765
0.15427
0.154047
0.15578
0.1617
0.192941
0.215468
0.199199
0.066786
0.105648
0.12117
0.1278
0.13217
0.138304
0.154136
0.178994
0.243783
2.25056
0.493893
-0.115569
-0.0340159
0.0862931
0.280336
0.666785
1.38252
0.997057
0.778958
0.79618
0.795465
0.899031
1.13145
1.07749
1.01809
1.0762
1.19587
1.33004
1.39011
1.45507
1.55402
1.6456
1.70425
1.75185
1.81105
1.87322
1.93012
1.98731
2.04335
2.08965
2.12542
2.15304
2.17192
2.18292
2.18856
2.19017
2.18879
2.18555
2.18074
2.17411
2.16504
2.15256
2.13558
2.11327
2.08516
2.05121
2.01179
1.9675
1.9191
1.86739
1.81315
1.75708
1.69981
1.64188
1.58376
1.52585
1.46852
1.41206
1.35674
1.30275
1.25025
1.19933
1.15004
1.10239
1.05636
1.01191
0.968977
0.927509
0.887446
0.84873
0.811318
0.775176
0.74028
0.706621
0.6742
0.643021
0.613096
0.584435
0.557046
0.53093
0.506081
0.482485
0.46012
0.438952
0.418943
0.400048
0.382219
0.365403
0.349548
0.334604
0.320519
0.307246
0.294739
0.282957
0.27186
0.261411
0.251576
0.242323
0.233623
0.225447
0.217768
0.210562
0.203802
0.197467
0.191531
0.185974
0.180772
0.175905
0.171352
0.167091
0.163103
0.159368
0.155866
0.152578
0.149485
0.146568
0.143808
0.141188
0.138688
0.136291
0.13398
0.131737
0.129545
0.127389
0.125254
0.123126
0.120993
0.118843
0.116667
0.114457
0.112208
0.109916
0.107578
0.105194
0.102765
0.100294
0.0977849
0.0952428
0.092674
0.090085
0.0874832
0.0848761
0.0822713
0.0796764
0.0770986
0.0745449
0.0720217
0.0695349
0.0670897
0.0646907
0.0623419
0.0600464
0.0578067
0.0556247
0.0535017
0.0514382
0.0494346
0.0474903
0.0456046
0.0437763
0.0420041
0.0402861
0.0386205
0.0370052
0.0354379
0.0339164
0.0324384
0.0310015
0.0296036
0.0282422
0.0269153
0.0256207
0.0243565
0.0231208
0.0219117
0.0207277
0.0195671
0.0184287
0.017311
0.0162129
0.0151334
0.0140714
0.0130262
0.011997
0.0109832
0.0099841
0.00899933
0.00802845
0.00707112
0.00612709
0.00519612
0.00427807
0.00337281
0.00248029
0.00160046
0.000733327
-0.000121067
-0.000962663
-0.00179137
-0.00260708
-0.00340966
-0.00419896
-0.0049748
-0.00573702
-0.0064854
-0.00721975
-0.00793984
-0.00864546
-0.00933637
-0.0100123
-0.0106731
-0.0113185
-0.0119482
-0.012562
-0.0131596
-0.0137409
-0.0143055
-0.0148533
-0.015384
-0.0158972
-0.0163928
-0.0168705
-0.01733
-0.0177708
-0.0181927
-0.0185953
-0.0189782
-0.0193409
-0.0196831
-0.0200043
-0.0203041
-0.0205821
-0.0208379
-0.0210712
-0.0212819
-0.0214697
-0.0216345
-0.0217766
-0.0218959
-0.0219928
-0.0220678
-0.0221212
-0.0221538
-0.0221664
-0.0221598
-0.0221349
-0.0220928
-0.0220346
-0.0219616
-0.0218751
-0.0217764
-0.0216668
-0.0215477
-0.0214201
-0.0212852
-0.0211436
-0.0209959
-0.0208424
-0.020683
-0.0205174
-0.0203453
-0.0201659
-0.0199789
-0.0197835
-0.0195795
-0.0193666
-0.0191447
-0.0189141
-0.018675
-0.018428
-0.0181737
-0.0179127
-0.0176458
-0.0173739
-0.0170976
-0.0168179
-0.0165353
-0.0162506
-0.0159645
-0.0156773
-0.0153898
-0.0151021
-0.0148148
-0.0145282
-0.0142423
-0.0139576
-0.0136741
-0.013392
-0.0131113
-0.0128321
-0.0125544
-0.0122784
-0.0120039
-0.0117309
-0.0114595
-0.0111896
-0.0109212
-0.0106543
-0.0103887
-0.0101244
-0.00986147
-0.00959975
-0.00933922
-0.00907982
-0.0088215
-0.00856421
-0.00830791
-0.00805254
-0.00779806
-0.00754441
-0.00729156
-0.00703947
-0.00678809
-0.00653738
-0.00628731
-0.00603784
-0.00578893
-0.00554056
-0.00529268
-0.00504528
-0.00479832
-0.00455176
-0.0043056
-0.0040598
-0.00381433
-0.00356918
-0.00332432
-0.00307973
-0.00283539
-0.00259129
-0.00234739
-0.00210368
-0.00186014
-0.00161674
-0.00137356
-0.00113017
-0.000887936
-0.000641481
-0.000406075
-0.000110732
1.48148
0.185621
0.138734
0.116936
0.0626721
0.03574
0.00459023
-0.0902367
-0.230728
-0.350178
-0.34097
0.112351
0.163071
0.372007
0.378528
0.25293
0.249307
0.248948
0.231315
0.219378
0.220663
0.236507
0.233744
0.233536
0.230914
0.233965
0.239799
0.254682
0.289634
0.328662
0.347366
0.350948
0.353183
0.338094
0.310147
0.288456
0.286711
0.296333
0.306952
0.315658
0.32156
0.324382
0.324768
0.323517
0.321118
0.317805
0.313706
0.30899
0.304036
0.299123
0.29408
0.287672
0.277577
0.262628
0.246459
0.233658
0.224493
0.217834
0.212741
0.208605
0.20506
0.201898
0.198999
0.196286
0.193741
0.191388
0.189277
0.187449
0.185927
0.184718
0.183832
0.183343
0.183322
0.18372
0.184542
0.185781
0.187479
0.189423
0.191001
0.190742
0.184505
0.165847
0.146745
0.150508
0.153236
0.15476
0.155705
0.156154
0.156262
0.155775
0.154887
0.154031
0.153186
0.152107
0.151397
0.152539
0.156339
0.167411
0.182443
0.191871
0.165108
0.156156
0.152638
0.150525
0.149069
0.149886
0.153709
0.170307
0.193016
0.160909
0.0478732
0.101695
0.1308
0.158426
0.187035
0.216112
2.40451
0.723929
-0.163408
0.00718935
0.194568
0.525135
1.16976
0.852263
0.787989
0.825149
0.900697
1.09707
1.08177
1.09911
1.22295
1.36088
1.41522
1.4535
1.53062
1.61159
1.67726
1.75008
1.82672
1.88721
1.934
1.97305
2.00033
2.01718
2.02875
2.0364
2.04169
2.04657
2.0511
2.05472
2.05648
2.05468
2.04761
2.03396
2.01302
1.98481
1.94991
1.90919
1.86367
1.8144
1.76232
1.70824
1.65287
1.59677
1.54042
1.48425
1.42862
1.37386
1.32025
1.26799
1.21724
1.16809
1.12057
1.07467
1.03035
0.987554
0.946196
0.906205
0.867509
0.830044
0.793761
0.758627
0.724628
0.691763
0.660046
0.629499
0.600149
0.572022
0.54514
0.519517
0.495156
0.472048
0.450174
0.4295
0.409987
0.391586
0.374243
0.357903
0.342509
0.328006
0.314341
0.301465
0.28933
0.277895
0.267121
0.256972
0.247415
0.238421
0.229961
0.222009
0.214539
0.207529
0.200955
0.194795
0.189026
0.183628
0.178578
0.173857
0.169444
0.16532
0.161463
0.157856
0.154478
0.151311
0.148336
0.145535
0.142888
0.140378
0.137986
0.135694
0.133483
0.131337
0.129236
0.127166
0.12511
0.123053
0.120983
0.118888
0.116757
0.114584
0.112361
0.110086
0.107756
0.105371
0.102934
0.100448
0.097917
0.0953484
0.092749
0.0901264
0.087489
0.0848452
0.0822036
0.0795724
0.0769597
0.074373
0.0718191
0.0693045
0.0668346
0.0644141
0.0620472
0.0597369
0.0574858
0.0552956
0.0531674
0.0511016
0.0490982
0.0471566
0.0452756
0.0434539
0.0416898
0.0399813
0.0383261
0.0367221
0.0351666
0.0336573
0.0321917
0.0307673
0.0293817
0.0280324
0.0267172
0.025434
0.0241806
0.0229551
0.0217557
0.0205807
0.0194286
0.0182979
0.0171873
0.0160957
0.0150221
0.0139654
0.0129249
0.0118999
0.0108897
0.00989375
0.00891169
0.0079431
0.00698769
0.00604521
0.00511547
0.00419834
0.00329373
0.00240161
0.00152196
0.000654804
-0.000199797
-0.00104177
-0.001871
-0.00268737
-0.00349073
-0.00428092
-0.00505776
-0.00582106
-0.0065706
-0.00730619
-0.00802758
-0.00873455
-0.00942685
-0.0101042
-0.0107665
-0.0114133
-0.0120445
-0.0126599
-0.0132591
-0.0138419
-0.0144082
-0.0149576
-0.01549