/*--------------------------------*- C++ -*----------------------------------*\
| =========                 |                                                 |
| \\      /  F ield         | OpenFOAM: The Open Source CFD Toolbox           |
|  \\    /   O peration     | Version:  v2006                                 |
|   \\  /    A nd           | Website:  www.openfoam.com                      |
|    \\/     M anipulation  |                                                 |
\*---------------------------------------------------------------------------*/
FoamFile
{
    version     2.0;
    format      ascii;
    class       surfaceScalarField;
    location    "15.6";
    object      alphaPhi0.water;
}
// * * * * * * * * * * * * * * * * * * * * * * * * * * * * * * * * * * * * * //

dimensions      [0 3 -1 0 0 0 0];
oriented        oriented;


internalField   nonuniform List<scalar> 
299200
(
0.00105656
-0.00105656
0.00221616
-0.00115959
0.00341959
-0.00120344
0.00464822
-0.00122863
0.0058843
-0.00123607
0.00711152
-0.00122722
0.00832003
-0.00120851
0.00950405
-0.00118401
0.0106602
-0.00115618
0.011787
-0.00112682
0.0128843
-0.00109724
0.0139528
-0.00106847
0.0149938
-0.00104101
0.0160089
-0.00101511
0.017
-0.000991138
0.0179687
-0.000968706
0.018916
-0.000947276
0.0198424
-0.000926451
0.0207483
-0.000905828
0.0216338
-0.000885506
0.0224995
-0.000865675
0.0233463
-0.000846826
0.0241753
-0.000829066
0.0249879
-0.000812515
0.0257844
-0.000796546
0.0265648
-0.000780397
0.0273277
-0.000762892
0.0280707
-0.000742976
0.0287908
-0.000720082
0.0294846
-0.000693873
0.0301497
-0.000665107
0.030786
-0.000636247
0.031396
-0.000610031
0.0319842
-0.000588221
0.032555
-0.000570807
0.0331115
-0.000556442
0.0336547
-0.00054326
0.0341834
-0.000528693
0.0346947
-0.000511309
0.0351853
-0.000490598
0.0356521
-0.000466759
0.0360926
-0.000440445
0.0365046
-0.000412042
0.0368868
-0.000382175
0.0372385
-0.000351721
0.0375604
-0.000321914
0.0378544
-0.000293974
0.0381234
-0.000268982
0.0383711
-0.000247748
0.0386017
-0.000230621
0.0388193
-0.000217622
0.0390279
-0.000208546
0.0392309
-0.000202985
0.0394313
-0.000200401
0.0396316
-0.000200303
0.0398339
-0.000202287
0.0400398
-0.000205919
0.0402506
-0.00021077
0.0404669
-0.000216389
0.0406892
-0.00022228
0.0409172
-0.000227974
0.0411501
-0.000232915
0.0413866
-0.000236499
0.0416248
-0.000238218
0.0418626
-0.000237725
0.0420975
-0.000234971
0.0423278
-0.000230235
0.0425518
-0.000224017
0.0427687
-0.000216931
0.0429783
-0.000209586
0.0431807
-0.000202437
0.0433765
-0.000195742
0.043566
-0.000189559
0.0437498
-0.000183797
0.0439282
-0.000178342
0.0441013
-0.000173114
0.0442693
-0.000168058
0.0444325
-0.000163162
0.0445909
-0.000158432
0.0447448
-0.000153839
0.044894
-0.000149258
0.0450384
-0.000144359
0.0451769
-0.000138493
0.0453077
-0.000130842
0.0454281
-0.00012041
0.0455342
-0.000106066
0.0456211
-8.69217e-05
0.0456834
-6.22445e-05
0.0457161
-3.27615e-05
0.0457147
1.43505e-06
0.0456785
3.62394e-05
0.0456138
6.47084e-05
0.045532
8.17162e-05
0.0454452
8.68119e-05
0.045362
8.32619e-05
0.0452875
7.4497e-05
0.0452238
6.36753e-05
0.0451706
5.31457e-05
0.0451261
4.45725e-05
0.045087
3.90978e-05
0.0450495
3.74833e-05
0.0450089
4.05949e-05
0.0449613
4.76123e-05
0.0449039
5.73673e-05
0.0448354
6.85543e-05
0.0447547
8.06743e-05
0.0446597
9.49726e-05
0.0445471
0.000112647
0.0444106
0.000136432
0.0442468
0.000163886
0.0440573
0.000189478
0.0438466
0.000210663
0.0436109
0.000235685
0.0433259
0.000284995
0.0429488
0.000377132
0.0424452
0.000503645
0.0418246
0.000620565
0.0411507
0.000673852
0.040488
0.000662705
0.0398925
0.000595562
0.0393879
0.000504583
0.0389654
0.000422528
0.0385969
0.000368417
0.0382502
0.000346728
0.0379005
0.000349703
0.0375417
0.000358822
0.0371669
0.000374803
0.0367668
0.000400111
0.0363296
0.000437191
0.0358468
0.000482815
0.0353184
0.000528325
0.0347538
0.000564648
0.034167
0.000586814
0.0335718
0.000595199
0.0329779
0.000593911
0.0323898
0.000588031
0.0318081
0.00058178
0.0312311
0.000576919
0.0306569
0.000574258
0.0300825
0.000574387
0.0295045
0.000578003
0.0289192
0.000585343
0.0283232
0.000595927
0.0277146
0.000608622
0.0270926
0.000622001
0.0264579
0.0006347
0.0258123
0.000645603
0.0251584
0.000653905
0.0244998
0.000658623
0.0238392
0.000660566
0.0231797
0.000659513
0.0225244
0.000655285
0.0218762
0.000648222
0.0212373
0.000638854
0.0206095
0.000627851
0.0199935
0.000615976
0.0193895
0.000604034
0.0187967
0.000592804
0.0182138
0.000582918
0.017639
0.000574771
0.0170706
0.000568366
0.0165074
0.00056324
0.0159487
0.000558716
0.0153946
0.000554102
0.0148456
0.000548921
0.0143028
0.000542786
0.0137677
0.000535187
0.0132418
0.000525868
0.0127265
0.000515298
0.0122231
0.000503414
0.0117332
0.000489838
0.0112589
0.00047438
0.0108012
0.00045769
0.0103594
0.000441815
0.00992927
0.000430092
0.00950282
0.000426447
0.00906828
0.000434545
0.00861185
0.00045643
0.0081184
0.000493449
0.00758475
0.000533641
0.00701267
0.000572085
0.00641359
0.000599081
0.00581155
0.000602044
0.00522983
0.000581719
0.00469119
0.000538631
0.00421175
0.000479449
0.00379705
0.0004147
0.0034428
0.000354249
0.00313642
0.000306372
0.00286047
0.000275959
0.00259454
0.000265924
0.00232311
0.000271433
0.00203847
0.000284634
0.00174236
0.000296114
0.00144008
0.000302281
0.0011338
0.000306279
0.000813569
0.000320231
0.00045478
0.00035879
3.19374e-05
0.000422843
-0.000472555
0.000504492
-0.00106511
0.000592554
-0.00173995
0.000674846
-0.00248445
0.000744491
-0.00328204
0.00079759
-0.00411383
0.000831798
-0.0049609
0.000847069
-0.00580778
0.000846881
-0.00664423
0.000836448
-0.0074653
0.000821068
-0.00826989
0.000804592
-0.00905822
0.000788332
-0.00982936
0.000771135
-0.0105798
0.000750397
-0.0113036
0.000723893
-0.0119951
0.000691484
-0.0126509
0.000655725
-0.0132719
0.000621031
-0.0138637
0.000591854
-0.0144346
0.000570827
-0.0149924
0.000557807
-0.0155427
0.000550325
-0.016088
0.000545317
-0.0166294
0.000541355
-0.0171696
0.000540211
-0.0177164
0.000546786
-0.0182833
0.00056692
-0.0188868
0.000603544
-0.01954
0.000653148
-0.0202459
0.000705965
-0.0209982
0.000752221
-0.0217897
0.000791485
-0.0226259
0.000836221
-0.0235284
0.000902486
-0.0245209
0.000992491
-0.0256047
0.00108387
-0.0267424
0.00113771
-0.027868
0.0011256
-0.028906
0.00103798
-0.0297973
0.000891326
-0.0305183
0.000720928
-0.0310751
0.000556836
-0.0314893
0.000414168
-0.0317897
0.000300456
-0.0320024
0.000212708
-0.0321483
0.000145865
-0.0322433
9.49882e-05
-0.0322996
5.63121e-05
-0.032326
2.63964e-05
-0.0323266
5.79477e-07
-0.0323072
-1.94035e-05
-0.0322694
-3.78252e-05
-0.0322152
-5.41649e-05
-0.0321461
-6.91345e-05
-0.0320627
-8.33169e-05
-0.0319657
-9.70375e-05
-0.0318553
-0.00011043
-0.0317317
-0.000123531
-0.0315954
-0.000136343
-0.0314465
-0.000148879
-0.0312853
-0.000161177
-0.031112
-0.000173297
-0.0309267
-0.00018532
-0.0307294
-0.000197325
-0.03052
-0.000209376
-0.0302985
-0.000221503
-0.0300648
-0.000233696
-0.0298189
-0.000245899
-0.0295609
-0.000258018
-0.029291
-0.000269926
-0.0290095
-0.00028148
-0.028717
-0.000292534
-0.028414
-0.000302963
-0.0281013
-0.000312678
-0.0277797
-0.000321632
-0.0274499
-0.000329813
-0.0271126
-0.000337238
-0.0267687
-0.000343938
-0.0264188
-0.000349951
-0.0260634
-0.000355318
-0.0257034
-0.000360081
-0.0253391
-0.000364277
-0.0249711
-0.000367946
-0.0246
-0.000371119
-0.0242262
-0.000373824
-0.0238501
-0.000376087
-0.0234722
-0.00037793
-0.0230928
-0.000379372
-0.0227124
-0.000380437
-0.0223312
-0.000381143
-0.0219497
-0.000381511
-0.0215681
-0.000381562
-0.0211868
-0.000381317
-0.020806
-0.000380797
-0.020426
-0.000380023
-0.020047
-0.000379015
-0.0196692
-0.000377795
-0.0192928
-0.000376379
-0.018918
-0.000374783
-0.018545
-0.00037302
-0.0181739
-0.0003711
-0.0178049
-0.000369031
-0.0174381
-0.000366816
-0.0170736
-0.000364453
-0.0167117
-0.000361935
-0.0163524
-0.00035925
-0.015996
-0.000356382
-0.0156427
-0.000353308
-0.0152927
-0.00035
-0.0149463
-0.000346429
-0.0146038
-0.000342561
-0.0142654
-0.00033836
-0.0139316
-0.000333791
-0.0136028
-0.000328818
-0.0132794
-0.00032341
-0.0129618
-0.00031754
-0.0126506
-0.000311187
-0.0123463
-0.000304342
-0.0120493
-0.000296999
-0.0117601
-0.000289158
-0.0114793
-0.000280837
-0.0112072
-0.00027206
-0.0109444
-0.000262858
-0.0106911
-0.000253269
-0.0104478
-0.000243329
-0.0102147
-0.000233078
-0.00999216
-0.000222559
-0.00978035
-0.000211811
-0.00957947
-0.000200874
-0.00938969
-0.000189781
-0.00921113
-0.000178563
-0.00904389
-0.000167242
-0.00888805
-0.000155835
-0.0087437
-0.00014435
-0.00861091
-0.000132789
-0.00848976
-0.000121148
-0.00838034
-0.000109419
-0.00828275
-9.75964e-05
-0.00819706
-8.56838e-05
-0.00812336
-7.37011e-05
-0.00806166
-6.16986e-05
-0.00801188
-4.97873e-05
-0.00797366
-3.82144e-05
-0.00794621
-2.74483e-05
-0.00792802
-1.8198e-05
-0.00791661
-1.14099e-05
-0.00790879
-7.81625e-06
-0.00790249
-6.29813e-06
-0.00789896
-3.52754e-06
-0.00790116
2.19307e-06
-0.00791119
1.00325e-05
-0.00793116
1.9969e-05
-0.00796311
3.19482e-05
-0.008008
4.48945e-05
-0.00806377
5.57649e-05
-0.00812516
6.13938e-05
-0.00818604
6.08827e-05
-0.0082413
5.5253e-05
-0.00829034
4.90482e-05
-0.00833619
4.5848e-05
-0.00838472
4.85252e-05
-0.00844011
5.53977e-05
-0.00850478
6.46666e-05
-0.00857964
7.48571e-05
-0.0086646
8.49656e-05
-0.00875882
9.42158e-05
-0.00886089
0.000102071
-0.00896938
0.000108488
-0.00908353
0.000114151
-0.00920437
0.000120838
-0.00933583
0.00013146
-0.00948523
0.000149405
-0.00966223
0.000176997
-0.00987552
0.000213287
-0.0101279
0.000252408
-0.010412
0.000284028
-0.0107107
0.000298718
-0.0110041
0.000293392
-0.0112682
0.00026413
-0.0114916
0.000223435
-0.0116764
0.000184814
-0.0118342
0.000157787
-0.0119795
0.000145267
-0.0121239
0.00014444
-0.0122737
0.000149784
-0.0124329
0.000159154
-0.0126008
0.000167891
-0.0127746
0.000173813
-0.01295
0.000175453
-0.0131212
0.000171172
-0.0132827
0.000161482
-0.0134284
0.00014567
-0.0135505
0.000122124
-0.0136391
8.86324e-05
-0.0136868
4.77014e-05
-0.0136889
2.13509e-06
-0.0136595
-2.9412e-05
-0.0136186
-4.08902e-05
-0.0135831
-3.55401e-05
-0.0135578
-2.53443e-05
-0.0135434
-1.43766e-05
-0.0135424
-9.4739e-07
-0.0135552
1.27752e-05
-0.0135833
2.81211e-05
-0.0136263
4.29949e-05
-0.0136825
5.61787e-05
-0.0137494
6.69124e-05
-0.0138243
7.4897e-05
-0.0139046
8.02482e-05
-0.013988
8.33877e-05
-0.0140729
8.48994e-05
-0.0141583
8.54129e-05
-0.0142436
8.53156e-05
-0.0143286
8.5036e-05
-0.0144135
8.48545e-05
-0.0144983
8.48601e-05
-0.0145833
8.50095e-05
-0.0146685
8.51707e-05
-0.0147537
8.51612e-05
-0.0148385
8.4796e-05
-0.0149224
8.39098e-05
-0.0150047
8.2368e-05
-0.0150848
8.00615e-05
-0.0151617
7.68721e-05
-0.0152343
7.26323e-05
-0.0153014
6.70962e-05
-0.0153613
5.99052e-05
-0.0154118
5.05279e-05
-0.0154499
3.80649e-05
-0.0154711
2.12354e-05
-0.0154702
-9.12252e-07
-0.0154479
-2.23196e-05
-0.0154034
-4.45071e-05
-0.015336
-6.74177e-05
-0.015244
-9.19911e-05
-0.0151253
-0.000118723
-0.0149779
-0.000147344
-0.0148
-0.000177975
-0.0145892
-0.000210709
-0.0143439
-0.000245383
-0.0140621
-0.000281785
-0.0137425
-0.00031961
-0.013384
-0.000358457
-0.0129862
-0.000397819
-0.0125491
-0.000437082
-0.0120736
-0.000475533
-0.0115612
-0.000512377
-0.0110144
-0.000546773
-0.0104366
-0.000577869
-0.00983169
-0.000604862
-0.00920464
-0.000627051
-0.00856074
-0.000643898
-0.00790567
-0.000655075
-0.00724515
-0.000660516
-0.00658471
-0.000660446
-0.00592943
-0.00065528
-0.00528379
-0.000645636
-0.00465151
-0.000632282
-0.00403546
-0.000616045
-0.00343773
-0.000597733
-0.00285967
-0.000578057
-0.0023021
-0.000557574
-0.00176543
-0.000536673
-0.00124971
-0.000515712
-0.000756417
-0.000493296
-0.000285317
-0.0004711
0.000161926
-0.000447244
0.000584918
-0.000422992
0.000980075
-0.000395156
0.00134552
-0.000365449
0.00167826
-0.000332735
0.0019757
-0.000297442
0.0022347
-0.000258994
0.00245284
-0.000218149
0.00262841
-0.000175569
0.00276025
-0.000131836
0.0028477
-8.74499e-05
0.00289188
-4.41814e-05
0.00289516
-3.28042e-06
0.00285801
3.71532e-05
0.00278359
7.44222e-05
0.00267619
0.000107398
0.00254032
0.000135863
0.00238004
0.000160287
0.00219992
0.000180115
0.00200484
0.000195085
0.00179948
0.000205362
0.00158851
0.000210968
0.00137631
0.000212198
0.00116676
0.000209549
0.000963981
0.00020278
0.000772701
0.00019128
0.000597706
0.000174995
0.000445359
0.000152347
0.000321486
0.000123873
0.000230313
9.11733e-05
0.000176511
5.38016e-05
0.0001723
4.21141e-06
0.000224805
-5.25049e-05
0.000240015
-1.52106e-05
0.000240015
0.000616915
-0.00167348
0.00128943
-0.00183211
0.00197709
-0.0018911
0.00266645
-0.00191799
0.00333458
-0.00190421
0.00396658
-0.00185922
0.00456034
-0.00180227
0.00511823
-0.0017419
0.00564758
-0.00168553
0.00615883
-0.00163807
0.00666264
-0.00160105
0.0071686
-0.00157444
0.00768453
-0.00155694
0.00821422
-0.0015448
0.00875925
-0.00153617
0.00931789
-0.00152735
0.00988731
-0.00151669
0.0104638
-0.00150299
0.0110452
-0.00148714
0.0116305
-0.00147082
0.0122211
-0.00145631
0.0128182
-0.00144395
0.0134232
-0.00143405
0.0140358
-0.00142509
0.014653
-0.00141378
0.0152675
-0.00139482
0.0158687
-0.00136417
0.0164453
-0.0013195
0.016987
-0.0012618
0.0174894
-0.00119631
0.0179567
-0.00113241
0.0184011
-0.00108064
0.0188382
-0.00104715
0.0192835
-0.00103349
0.0197473
-0.00103465
0.0202309
-0.00104002
0.0207285
-0.00104084
0.0212316
-0.00103175
0.021732
-0.00101174
0.0222241
-0.000982731
0.0227055
-0.000948112
0.0231754
-0.000910356
0.0236349
-0.000871597
0.0240856
-0.000832878
0.0245285
-0.0007946
0.0249639
-0.000757255
0.0253911
-0.00072122
0.0258092
-0.000687078
0.0262164
-0.000654922
0.0266103
-0.000624491
0.026988
-0.000595329
0.0273464
-0.000566977
0.0276826
-0.000539148
0.0279941
-0.000511951
0.0282798
-0.000486
0.0285396
-0.000462039
0.0287744
-0.000440795
0.0289864
-0.000422704
0.0291775
-0.000407563
0.0293497
-0.000394493
0.029504
-0.000382227
0.0296405
-0.000369428
0.0297591
-0.000355111
0.0298598
-0.000338906
0.0299433
-0.000321258
0.0300117
-0.000303313
0.0300679
-0.000286466
0.0301157
-0.00027184
0.0301588
-0.000260016
0.0302002
-0.000250956
0.0302417
-0.000243948
0.0302844
-0.000238475
0.0303291
-0.00023417
0.0303761
-0.000230814
0.030426
-0.000228289
0.0304792
-0.000226302
0.0305354
-0.000224234
0.0305934
-0.000221172
0.030651
-0.000216072
0.0307051
-0.000207901
0.0307516
-0.000195753
0.0307861
-0.00017885
0.0308038
-0.000156202
0.0307998
-0.000126844
0.0307691
-8.97648e-05
0.0307078
-4.46917e-05
0.0306145
6.37918e-06
0.0304906
6.16458e-05
0.0303381
0.000119678
0.0301642
0.000175405
0.0299748
0.000225611
0.0297707
0.000268757
0.0295498
0.000302672
0.029311
0.000325572
0.029056
0.000338294
0.0287869
0.000343582
0.0285064
0.000344203
0.0282182
0.000341295
0.0279291
0.000333684
0.0276501
0.000318093
0.0273968
0.000290773
0.0271873
0.000250119
0.0270369
0.000198061
0.0269551
0.000139102
0.0269427
8.09565e-05
0.0269896
3.3782e-05
0.0270762
8.40671e-06
0.0271789
9.93524e-06
0.0272759
3.9384e-05
0.0273466
9.32629e-05
0.027376
0.000160036
0.0273642
0.000222483
0.0273294
0.000270442
0.0272919
0.000322558
0.0272364
0.000432597
0.0270844
0.000655605
0.0267096
0.000995426
0.025992
0.00139148
0.0249512
0.00170348
0.0236875
0.00185927
0.0223536
0.00183846
0.0210985
0.00167766
0.0200217
0.00144517
0.0191617
0.00120674
0.0185147
0.000996691
0.0180414
0.000832107
0.0177087
0.000707503
0.0174833
0.000625501
0.0173262
0.000594382
0.0171928
0.000616213
0.0170403
0.000680786
0.0168367
0.000768211
0.0165671
0.000856492
0.0162335
0.000928786
0.0158497
0.000977661
0.015436
0.00100178
0.0150137
0.00100408
0.014598
0.000992591
0.014198
0.000974284
0.0138161
0.000956274
0.0134502
0.00094384
0.0130956
0.000939951
0.0127458
0.000945735
0.0123938
0.000960616
0.0120333
0.000982536
0.0116595
0.00100849
0.0112694
0.0010357
0.0108607
0.00106257
0.0104348
0.00108461
0.00999436
0.00110096
0.00954242
0.00111145
0.00908139
0.00111632
0.00861346
0.00111615
0.00814063
0.00111168
0.00766479
0.00110369
0.00718792
0.00109285
0.00671238
0.00107958
0.00624112
0.00106406
0.0057779
0.00104614
0.00532704
0.00102563
0.00489302
0.00100239
0.0044797
0.000976559
0.0040895
0.00094892
0.00372259
0.000921006
0.00337621
0.000895305
0.00304412
0.000874877
0.00271679
0.000862517
0.00238259
0.00086007
0.00202968
0.000868208
0.00164708
0.000886011
0.00122594
0.00091098
0.000761278
0.000939039
0.00025411
0.000964858
-0.000287166
0.000983091
-0.000847455
0.000990381
-0.00140733
0.000986324
-0.00194728
0.000974497
-0.00245027
0.000959418
-0.00291271
0.000955884
-0.00334581
0.000966743
-0.00375975
0.000986021
-0.00416818
0.00100751
-0.00457871
0.00101258
-0.00498812
0.000991123
-0.00539226
0.000942772
-0.0057866
0.00087379
-0.00616787
0.000795965
-0.00653869
0.000725078
-0.00691211
0.000679792
-0.00731442
0.000678265
-0.00777816
0.000729666
-0.00834625
0.000839523
-0.0090438
0.000982186
-0.00987015
0.00112246
-0.0108032
0.00123535
-0.0118171
0.00132015
-0.0128959
0.00139903
-0.0140304
0.00149333
-0.0152064
0.00159879
-0.0163881
0.00168619
-0.017523
0.00172748
-0.0185625
0.00171433
-0.0194819
0.00166395
-0.0202839
0.00159951
-0.0209893
0.00153724
-0.021626
0.00148375
-0.0222179
0.00143884
-0.0227823
0.00140077
-0.0233296
0.00136837
-0.0238654
0.00134042
-0.024392
0.00131499
-0.0249103
0.00128941
-0.0254209
0.00126102
-0.0259254
0.00122834
-0.0264257
0.00119182
-0.0269237
0.00115368
-0.0274196
0.00111698
-0.0279121
0.00108435
-0.0283985
0.0010572
-0.0288761
0.00103547
-0.0293441
0.00101826
-0.0298036
0.00100479
-0.0302575
0.000995333
-0.0307089
0.000991593
-0.0311583
0.000996139
-0.0316022
0.0010109
-0.0320336
0.00103494
-0.0324429
0.00106241
-0.0328192
0.00108229
-0.0331487
0.0010817
-0.0334088
0.00105163
-0.0335636
0.000990935
-0.0335658
0.000904733
-0.0333715
0.000798193
-0.0329595
0.000671818
-0.0323475
0.000525778
-0.0315922
0.000370294
-0.0307737
0.00021949
-0.0299915
0.000109102
-0.0293087
3.81224e-05
-0.0287502
-1.67943e-06
-0.0282981
-3.78736e-05
-0.0279356
-6.21013e-05
-0.0276412
-8.16471e-05
-0.0273971
-9.82827e-05
-0.0271883
-0.000113764
-0.027003
-0.000129013
-0.0268315
-0.000145071
-0.0266686
-0.000162378
-0.0265081
-0.000179895
-0.0263475
-0.000198437
-0.0261842
-0.000217462
-0.0260168
-0.000236512
-0.0258448
-0.000255298
-0.0256682
-0.000273624
-0.0254873
-0.000291371
-0.0253024
-0.000308457
-0.0251139
-0.000324836
-0.0249223
-0.000340486
-0.024728
-0.000355399
-0.0245318
-0.000369581
-0.024334
-0.000383052
-0.0241355
-0.000395852
-0.0239368
-0.000408028
-0.0237387
-0.000419632
-0.0235417
-0.000430717
-0.0233463
-0.000441334
-0.0231527
-0.000451525
-0.0229614
-0.000461319
-0.0227721
-0.000470736
-0.0225848
-0.000479799
-0.0223993
-0.000488531
-0.022215
-0.000496965
-0.0220315
-0.000505137
-0.0218482
-0.000513082
-0.0216646
-0.000520828
-0.0214802
-0.000528398
-0.0212943
-0.000535804
-0.0211066
-0.000543053
-0.0209165
-0.000550145
-0.0207237
-0.000557079
-0.0205278
-0.000563844
-0.0203285
-0.000570425
-0.0201255
-0.000576804
-0.0199186
-0.000582964
-0.0197077
-0.000588889
-0.0194925
-0.000594569
-0.0192729
-0.000599992
-0.0190489
-0.000605154
-0.0188204
-0.000610051
-0.0185873
-0.000614685
-0.0183495
-0.000619057
-0.0181071
-0.000623175
-0.0178601
-0.000627041
-0.0176085
-0.00063066
-0.0173522
-0.000634031
-0.0170915
-0.000637153
-0.0168262
-0.000640021
-0.0165566
-0.000642626
-0.0162828
-0.000644951
-0.0160048
-0.000646976
-0.015723
-0.000648672
-0.0154374
-0.000650005
-0.0151484
-0.000650931
-0.0148563
-0.000651401
-0.0145613
-0.000651359
-0.0142638
-0.000650749
-0.0139643
-0.00064951
-0.0136632
-0.000647585
-0.0133608
-0.00064492
-0.0130577
-0.000641468
-0.0127543
-0.000637189
-0.0124511
-0.000632053
-0.0121485
-0.00062604
-0.0118469
-0.00061914
-0.0115467
-0.000611357
-0.0112483
-0.000602703
-0.0109521
-0.000593197
-0.0106584
-0.00058286
-0.0103675
-0.000571715
-0.0100798
-0.000559789
-0.00979557
-0.000547107
-0.00951514
-0.000533693
-0.0092389
-0.000519568
-0.00896723
-0.000504751
-0.00870053
-0.000489258
-0.00843924
-0.000473105
-0.0081838
-0.000456306
-0.00793471
-0.000438873
-0.00769245
-0.000420821
-0.00745753
-0.00040217
-0.00723042
-0.000382942
-0.0070116
-0.000363173
-0.00680147
-0.000342914
-0.00660038
-0.000322245
-0.00640852
-0.00030128
-0.00622594
-0.000280175
-0.00605248
-0.000259139
-0.00588776
-0.000238425
-0.00573113
-0.000218323
-0.00558178
-0.00019914
-0.00543882
-0.000181174
-0.00530161
-0.000164655
-0.00517015
-0.000149657
-0.00504556
-0.000135999
-0.00493031
-0.000123069
-0.00482671
-0.000109895
-0.00473422
-9.60234e-05
-0.00465053
-8.14997e-05
-0.004574
-6.64924e-05
-0.00450289
-5.11428e-05
-0.00443476
-3.61817e-05
-0.00436746
-2.24054e-05
-0.00430201
-9.68906e-06
-0.00424562
5.00567e-06
-0.00420689
2.21521e-05
-0.00419766
4.60266e-05
-0.0042255
7.68833e-05
-0.00429225
0.000112601
-0.00439062
0.000146896
-0.00451415
0.000178923
-0.00465883
0.000209351
-0.00482284
0.00023887
-0.0050059
0.000268024
-0.0052088
0.000297109
-0.00543283
0.00032611
-0.00567891
0.000354565
-0.00594595
0.000381191
-0.00622893
0.000403815
-0.00651673
0.000419266
-0.00679108
0.000423751
-0.00702759
0.000413507
-0.00719956
0.000385262
-0.00728403
0.000336874
-0.00726917
0.00026917
-0.00715946
0.000189001
-0.00697112
0.000105054
-0.00674982
4.28335e-05
-0.00653838
1.19909e-05
-0.00636726
1.36974e-05
-0.00625037
4.08971e-05
-0.00618704
8.1941e-05
-0.00616618
0.000123571
-0.00617362
0.000157223
-0.0061882
0.000173734
-0.00619392
0.000173617
-0.00617874
0.000158633
-0.00613707
0.000133782
-0.00606937
0.000103475
-0.00597743
6.95375e-05
-0.00586588
3.41252e-05
-0.00574546
1.69698e-06
-0.00562581
-3.10119e-05
-0.00552633
-5.17845e-05
-0.00546806
-5.6135e-05
-0.00545374
-4.37307e-05
-0.00547281
-2.18198e-05
-0.00551136
3.01312e-06
-0.00556637
2.96649e-05
-0.00563984
5.90892e-05
-0.00573
8.922e-05
-0.00583597
0.000118744
-0.00595386
0.000146008
-0.00608058
0.000169715
-0.0062135
0.000189095
-0.00635065
0.000204063
-0.00649092
0.000215172
-0.00663405
0.000223371
-0.00678036
0.000229705
-0.00693055
0.000235082
-0.00708554
0.00024041
-0.00724605
0.000245823
-0.00741222
0.000251204
-0.00758377
0.000256411
-0.00776018
0.000261266
-0.00794074
0.000265573
-0.00812471
0.000269132
-0.00831129
0.000271743
-0.0084997
0.00027321
-0.00868914
0.00027335
-0.00887876
0.000271989
-0.00906767
0.000268971
-0.00925496
0.000264155
-0.00943971
0.000257385
-0.00962109
0.000248482
-0.00979842
0.000237227
-0.00997124
0.000223352
-0.0101398
0.000206593
-0.0103053
0.000186792
-0.0104701
0.000163817
-0.0106295
0.000137161
-0.0107795
0.000105418
-0.0109155
6.85762e-05
-0.0110342
2.67682e-05
-0.0111314
-2.15651e-05
-0.0112007
-7.80145e-05
-0.0112373
-0.00014139
-0.0112367
-0.000211321
-0.0111947
-0.00028739
-0.0111077
-0.000368706
-0.010973
-0.000454309
-0.0107884
-0.000543087
-0.0105525
-0.00063374
-0.0102648
-0.000724771
-0.00992583
-0.00081451
-0.00953706
-0.000901145
-0.00910105
-0.000982788
-0.00862136
-0.00105756
-0.00810253
-0.00112369
-0.00754995
-0.00117963
-0.00696964
-0.00122421
-0.00636803
-0.00125669
-0.00575167
-0.00127688
-0.00512695
-0.00128517
-0.00449979
-0.00128244
-0.0038754
-0.00127003
-0.00325809
-0.00124959
-0.00265119
-0.00122294
-0.00205708
-0.00119185
-0.00147723
-0.0011579
-0.000912453
-0.00112236
-0.000363114
-0.00108601
0.000170197
-0.00104902
0.00068956
-0.00101266
0.00119268
-0.000974221
0.00167975
-0.000934313
0.00214867
-0.000891912
0.00259882
-0.000845307
0.00302671
-0.000793335
0.00343036
-0.00073639
0.00380651
-0.00067359
0.00415248
-0.000604965
0.00446511
-0.000530775
0.00474196
-0.000452419
0.00498061
-0.000370492
0.00517979
-0.000286631
0.00533743
-0.00020182
0.00545174
-0.000117584
0.00552232
-3.34336e-05
0.00554812
4.86228e-05
0.00553006
0.000125466
0.00546712
0.000198801
0.00536003
0.000267371
0.005209
0.000331152
0.00501496
0.000389121
0.00477907
0.000441257
0.00450232
0.000487717
0.00418535
0.000529168
0.00382889
0.000566006
0.00343573
0.000595942
0.00301039
0.000616613
0.00255955
0.000625838
0.00209326
0.00061864
0.00162668
0.000590449
0.00118137
0.000536483
0.000798538
0.000436636
0.000544693
0.000258057
0.000455615
3.65731e-05
0.000393636
4.67683e-05
0.000633652
0.000482798
-0.00215628
0.000991074
-0.00234038
0.00145304
-0.00235307
0.0018855
-0.00235045
0.00228468
-0.00230338
0.00265409
-0.00222864
0.00300585
-0.00215404
0.00335565
-0.0020917
0.00371893
-0.00204881
0.00410898
-0.00202812
0.00453534
-0.00202741
0.0050024
-0.0020415
0.0055089
-0.00206344
0.00605178
-0.00208768
0.0066243
-0.00210868
0.00722021
-0.00212327
0.00783415
-0.00213062
0.00846301
-0.00213185
0.00910536
-0.00212949
0.00976092
-0.00212638
0.0104286
-0.00212403
0.0111065
-0.00212176
0.0117894
-0.002117
0.0124704
-0.00210604
0.0131404
-0.0020838
0.013792
-0.00204641
0.0144197
-0.00199187
0.0150246
-0.00192441
0.0156148
-0.00185208
0.0162049
-0.00178633
0.0168126
-0.00174015
0.0174522
-0.00172024
0.0181299
-0.00172486
0.0188402
-0.00174379
0.0195682
-0.00176264
0.0202961
-0.00176791
0.0210075
-0.00175225
0.0216911
-0.00171539
0.0223414
-0.00166198
0.0229573
-0.00159861
0.0235403
-0.00153117
0.0240936
-0.00146364
0.0246192
-0.00139722
0.0251188
-0.00133249
0.0255934
-0.0012692
0.0260431
-0.00120695
0.0264675
-0.00114555
0.0268655
-0.00108511
0.0272365
-0.00102591
0.0275801
-0.000968143
0.0278968
-0.000912017
0.0281876
-0.000857794
0.0284544
-0.000805958
0.0286997
-0.00075717
0.0289259
-0.000712241
0.0291357
-0.000671825
0.0293312
-0.000636263
0.0295137
-0.000605264
0.029684
-0.000577828
0.029842
-0.000552509
0.0299877
-0.000527908
0.0301214
-0.000503153
0.0302444
-0.000478104
0.030359
-0.000453535
0.0304685
-0.000430714
0.030576
-0.000410833
0.0306839
-0.000394396
0.030793
-0.00038092
0.0309021
-0.000369051
0.0310082
-0.000357074
0.0311078
-0.000343528
0.0311971
-0.000327826
0.0312732
-0.000310291
0.0313341
-0.000291649
0.0313782
-0.00027244
0.0314046
-0.000252708
0.0314122
-0.000231792
0.0313996
-0.000208586
0.0313655
-0.00018197
0.0313087
-0.000151081
0.0312285
-0.000115603
0.0311258
-7.60846e-05
0.0310022
-3.26649e-05
0.0308613
1.40352e-05
0.0307066
6.49574e-05
0.0305427
0.000119192
0.0303735
0.000175588
0.0302017
0.000233458
0.0300309
0.000290438
0.0298631
0.000343276
0.0296989
0.000389752
0.0295386
0.000429068
0.02938
0.000461249
0.0292187
0.000486873
0.0290501
0.000506986
0.0288712
0.000522418
0.0286827
0.000532693
0.0284887
0.000535291
0.0282963
0.000526153
0.0281133
0.000501007
0.0279467
0.000457454
0.0277999
0.000396843
0.0276733
0.000324741
0.0275621
0.000250269
0.0274575
0.000185577
0.0273461
0.000145179
0.027208
0.000146509
0.0270109
0.000207041
0.0267092
0.000341044
0.0262531
0.000549356
0.0256044
0.000808806
0.024752
0.00107487
0.0237223
0.00130009
0.0225819
0.00146293
0.0214275
0.00158706
0.0203611
0.00172202
0.0194643
0.00189216
0.0187674
0.00208837
0.0182354
0.00223555
0.0178295
0.00226514
0.0175119
0.00215603
0.017243
0.00194663
0.0169834
0.00170477
0.0167031
0.00148704
0.016389
0.00131073
0.016046
0.0011751
0.0156796
0.00107393
0.0152955
0.00100962
0.0149023
0.000987561
0.0145116
0.00100691
0.0141347
0.00105764
0.0137791
0.00112382
0.0134464
0.00118921
0.0131331
0.00124206
0.0128329
0.00127787
0.0125374
0.00129732
0.0122383
0.00130322
0.0119305
0.00130035
0.0116112
0.00129361
0.0112804
0.00128702
0.0109405
0.00128373
0.0105951
0.00128541
0.0102484
0.00129243
0.00990495
0.00130406
0.00956863
0.00131885
0.00924212
0.001335
0.0089269
0.00135091
0.00862382
0.00136565
0.00833024
0.0013782
0.00804285
0.00138835
0.00775795
0.00139635
0.00747174
0.00140253
0.00718073
0.00140716
0.00688209
0.00141032
0.0065741
0.00141169
0.00625639
0.00141056
0.00593022
0.00140574
0.00559835
0.00139593
0.00526455
0.00137994
0.00493285
0.00135733
0.00460623
0.00132901
0.00428535
0.00129743
0.00396761
0.00126666
0.00364678
0.00124184
0.00331377
0.00122832
0.00295812
0.00123052
0.00256985
0.00125079
0.00214131
0.0012886
0.00166894
0.00134059
0.00115393
0.00140102
0.000602949
0.00146196
2.79155e-05
0.00151407
-0.0005554
0.00154817
-0.00112991
0.0015576
-0.00168017
0.00154065
-0.00219582
0.00150197
-0.00267352
0.0014522
-0.00311826
0.00140415
-0.0035321
0.00136973
-0.00391806
0.00135271
-0.00428133
0.00134929
-0.00462458
0.00135077
-0.00495585
0.00134384
-0.00528378
0.00131905
-0.0056137
0.00127269
-0.00594691
0.001207
-0.00628135
0.00113041
-0.00661541
0.00105914
-0.00695613
0.00102051
-0.00733363
0.00105576
-0.00780023
0.00119627
-0.00842179
0.00146109
-0.0092656
0.001826
-0.0103658
0.00222266
-0.0116992
0.00256875
-0.0131863
0.00280725
-0.0147132
0.00292589
-0.0161594
0.0029396
-0.0174239
0.00286324
-0.0184451
0.00270739
-0.0192109
0.00249326
-0.019755
0.00225845
-0.020137
0.00204597
-0.0204215
0.00188403
-0.020662
0.00177768
-0.0208962
0.00171794
-0.021144
0.00168663
-0.0214125
0.00166929
-0.0217012
0.00165704
-0.0220059
0.00164513
-0.0223223
0.00163137
-0.0226477
0.00161487
-0.0229821
0.00159537
-0.0233265
0.00157275
-0.0236815
0.00154684
-0.0240454
0.00151755
-0.0244136
0.00148516
-0.0247798
0.00145057
-0.0251378
0.00141525
-0.0254833
0.00138093
-0.025814
0.00134899
-0.0261293
0.00132006
-0.0264278
0.00129386
-0.0267058
0.00126953
-0.0269557
0.00124606
-0.0271671
0.00122234
-0.0273283
0.0011961
-0.0274279
0.00116205
-0.0274565
0.00111083
-0.0274054
0.00103063
-0.0272664
0.000912562
-0.0270331
0.000757667
-0.0267089
0.000580526
-0.0263163
0.000405639
-0.0259024
0.000257929
-0.0255287
0.000152
-0.0252466
8.82428e-05
-0.0250873
6.01565e-05
-0.0250248
4.65879e-05
-0.0250276
4.09325e-05
-0.0250618
3.25668e-05
-0.0251135
1.37907e-05
-0.0251635
-1.20437e-05
-0.0252079
-3.73117e-05
-0.0252408
-6.53999e-05
-0.0252602
-9.43053e-05
-0.0252669
-0.000122346
-0.0252616
-0.000150336
-0.0252454
-0.00017857
-0.0252188
-0.000206551
-0.0251827
-0.000234459
-0.025138
-0.000262255
-0.0250846
-0.000289849
-0.0250227
-0.000317209
-0.024952
-0.000344336
-0.0248721
-0.000371237
-0.0247827
-0.000397889
-0.0246833
-0.00042422
-0.0245737
-0.000450116
-0.0244537
-0.000475423
-0.0243233
-0.000499956
-0.0241828
-0.000523528
-0.0240327
-0.000545964
-0.0238736
-0.000567127
-0.0237063
-0.000586933
-0.0235316
-0.000605367
-0.0233505
-0.000622488
-0.0231636
-0.000638414
-0.0229716
-0.000653307
-0.022775
-0.000667352
-0.0225741
-0.000680741