/*--------------------------------*- C++ -*----------------------------------*\
| =========                 |                                                 |
| \\      /  F ield         | OpenFOAM: The Open Source CFD Toolbox           |
|  \\    /   O peration     | Version:  v2006                                 |
|   \\  /    A nd           | Website:  www.openfoam.com                      |
|    \\/     M anipulation  |                                                 |
\*---------------------------------------------------------------------------*/
FoamFile
{
    version     2.0;
    format      ascii;
    class       surfaceScalarField;
    location    "15.6";
    object      phi;
}
// * * * * * * * * * * * * * * * * * * * * * * * * * * * * * * * * * * * * * //

dimensions      [0 3 -1 0 0 0 0];
oriented        oriented;


internalField   nonuniform List<scalar> 
299200
(
0.00106052
-0.00106052
0.00222449
-0.00116397
0.00343202
-0.00120753
0.00466468
-0.00123266
0.00590474
-0.00124006
0.00713592
-0.00123118
0.00834837
-0.00121246
0.00953634
-0.00118796
0.0106965
-0.00116015
0.0118273
-0.00113081
0.0129286
-0.00110126
0.0140011
-0.00107251
0.0150461
-0.00104506
0.0160653
-0.00101917
0.0170605
-0.000995177
0.0180332
-0.000972713
0.0189844
-0.000951242
0.0199148
-0.000930366
0.0208245
-0.000909683
0.0217138
-0.000889289
0.0225832
-0.000869379
0.0234336
-0.000850442
0.0242662
-0.000832589
0.0250821
-0.000815942
0.025882
-0.000799884
0.0266657
-0.000783655
0.0274317
-0.000766076
0.0281778
-0.000746092
0.028901
-0.000723126
0.0295978
-0.000696841
0.0302658
-0.000667972
0.0309047
-0.000638965
0.0315173
-0.000612564
0.0321079
-0.000590555
0.0326808
-0.000572961
0.0332393
-0.000558454
0.0337844
-0.00054518
0.034315
-0.000530559
0.0348281
-0.00051314
0.0353205
-0.000492394
0.0357891
-0.000468511
0.0362312
-0.000442141
0.0366449
-0.000413672
0.0370286
-0.000383721
0.0373817
-0.000353154
0.0377049
-0.000323194
0.038
-0.000295063
0.0382698
-0.000269845
0.0385182
-0.000248365
0.0387492
-0.000230981
0.0389669
-0.000217725
0.0391753
-0.000208401
0.0393779
-0.000202607
0.0395777
-0.000199807
0.0397772
-0.00019951
0.0399786
-0.000201313
0.0401833
-0.00020478
0.0403928
-0.000209488
0.0406078
-0.000214984
0.0408286
-0.000220775
0.041055
-0.00022639
0.0412862
-0.000231276
0.0415211
-0.000234828
0.0417576
-0.000236533
0.0419936
-0.000236039
0.0422269
-0.000233288
0.0424555
-0.000228548
0.0426778
-0.000222316
0.042893
-0.000215202
0.0431008
-0.000207816
0.0433014
-0.000200615
0.0434953
-0.000193868
0.0436829
-0.000187635
0.0438648
-0.000181832
0.0440411
-0.000176343
0.0442122
-0.000171087
0.0443782
-0.000166011
0.0445393
-0.000161099
0.0446957
-0.000156358
0.0448474
-0.000151761
0.0449946
-0.000147189
0.0451369
-0.000142319
0.0452734
-0.000136511
0.0454024
-0.000128946
0.045521
-0.000118655
0.0456255
-0.000104489
0.0457111
-8.55225e-05
0.0457721
-6.10252e-05
0.0458037
-3.16496e-05
0.0458011
2.62938e-06
0.0457634
3.76721e-05
0.0456971
6.63596e-05
0.0456135
8.35941e-05
0.0455246
8.88477e-05
0.0454392
8.53959e-05
0.0453626
7.66596e-05
0.0452968
6.58161e-05
0.0452415
5.52336e-05
0.0451949
4.6587e-05
0.0451539
4.10243e-05
0.0451146
3.93134e-05
0.0450723
4.23272e-05
0.045023
4.92404e-05
0.0449641
5.8896e-05
0.0448941
7.00002e-05
0.0448121
8.20137e-05
0.0447161
9.6063e-05
0.0446024
0.000113641
0.0444651
0.000137318
0.0443004
0.000164653
0.0441102
0.000190207
0.0438989
0.000211357
0.0436627
0.000236145
0.0433778
0.000284906
0.0430014
0.000376431
0.0424985
0.000502879
0.0418779
0.000620637
0.0412027
0.000675144
0.040538
0.000664767
0.03994
0.000597943
0.0394333
0.00050669
0.0390093
0.000424077
0.0386399
0.000369395
0.0382926
0.000347276
0.0379424
0.000350182
0.0375831
0.000359316
0.0372079
0.000375238
0.0368075
0.000400377
0.0363702
0.000437255
0.0358874
0.000482774
0.0353591
0.000528327
0.0347943
0.000564795
0.0342072
0.000587113
0.0336116
0.000595588
0.0330173
0.00059431
0.0324289
0.000588385
0.0318469
0.000582072
0.0312697
0.000577152
0.0306953
0.000574438
0.0301208
0.000574508
0.0295427
0.000578058
0.0289574
0.000585335
0.0283615
0.000595868
0.027753
0.000608527
0.0271311
0.000621885
0.0264965
0.000634571
0.025851
0.000645467
0.0251973
0.000653763
0.0245388
0.000658473
0.0238784
0.000660407
0.0232191
0.000659348
0.0225639
0.000655113
0.0219159
0.000648038
0.0212773
0.000638654
0.0206496
0.000627631
0.0200339
0.000615733
0.0194301
0.000603766
0.0188376
0.00059251
0.018255
0.000582597
0.0176806
0.000574424
0.0171126
0.000567995
0.0165498
0.000562847
0.0159914
0.000558301
0.0154378
0.000553667
0.0148893
0.000548464
0.014347
0.000542308
0.0138123
0.000534687
0.013287
0.000525351
0.0127722
0.000514763
0.0122693
0.00050286
0.0117801
0.000489271
0.0113063
0.000473805
0.0108492
0.000457112
0.0104079
0.000441224
0.00997845
0.000429485
0.00955263
0.000425818
0.00911874
0.000433894
0.00866297
0.00045577
0.00817018
0.000492794
0.00763719
0.000532986
0.00706573
0.000571458
0.00646724
0.000598491
0.00586577
0.000601468
0.00528459
0.000581182
0.00474649
0.000538104
0.00426757
0.000478916
0.00385341
0.000414158
0.0034997
0.000353711
0.00319383
0.000305869
0.00291831
0.000275524
0.00265276
0.000265552
0.0023817
0.000271061
0.00209756
0.000284134
0.00180218
0.000295386
0.00150088
0.000301292
0.00119579
0.000305092
0.000876669
0.000319123
0.000518709
0.00035796
9.62767e-05
0.000422433
-0.000407625
0.000503902
-0.000999799
0.000592174
-0.00167433
0.000674531
-0.00241852
0.000744192
-0.00321582
0.0007973
-0.00404731
0.000831485
-0.00489403
0.000846724
-0.00574055
0.000846521
-0.00657664
0.000836088
-0.00739737
0.000820729
-0.00820165
0.000804278
-0.00898968
0.00078803
-0.0097605
0.000770817
-0.0105105
0.00075003
-0.011234
0.000723456
-0.011925
0.000690983
-0.0125802
0.000655191
-0.0132007
0.000620506
-0.013792
0.000591372
-0.0143624
0.000570395
-0.0149198
0.000557404
-0.0154697
0.000549913
-0.0160146
0.000544865
-0.0165555
0.000540865
-0.0170952
0.000539731
-0.0176416
0.000546397
-0.0182083
0.000566695
-0.0188118
0.000603491
-0.019465
0.000653181
-0.0201709
0.000705948
-0.020923
0.000752104
-0.0217144
0.000791422
-0.022551
0.000836513
-0.0234543
0.00090333
-0.024448
0.000993718
-0.0255329
0.00108492
-0.0266709
0.00113794
-0.0277956
0.00112475
-0.0288316
0.00103602
-0.0297204
0.000888726
-0.0304386
0.000718208
-0.0309928
0.000554264
-0.0314048
0.000411945
-0.0317034
0.000298593
-0.0319145
0.000211104
-0.0320589
0.000144409
-0.0321526
9.36646e-05
-0.0322076
5.50974e-05
-0.0322329
2.52375e-05
-0.032232
-8.94559e-07
-0.0322114
-2.0637e-05
-0.0321722
-3.91266e-05
-0.0321168
-5.54654e-05
-0.0320463
-7.0424e-05
-0.0319617
-8.45956e-05
-0.0318634
-9.83051e-05
-0.0317518
-0.000111685
-0.031627
-0.00012477
-0.0314894
-0.000137564
-0.0313393
-0.000150079
-0.031177
-0.000162353
-0.0310025
-0.00017445
-0.0308161
-0.000186448
-0.0306177
-0.000198426
-0.0304072
-0.000210449
-0.0301847
-0.000222545
-0.02995
-0.000234702
-0.0297031
-0.000246865
-0.0294442
-0.000258937
-0.0291734
-0.000270793
-0.0288911
-0.000282289
-0.0285978
-0.000293279
-0.0282942
-0.00030364
-0.0279809
-0.000313284
-0.0276587
-0.000322164
-0.0273284
-0.000330271
-0.0269908
-0.00033762
-0.0266466
-0.000344244
-0.0262964
-0.000350182
-0.0259409
-0.000355474
-0.0255808
-0.00036016
-0.0252165
-0.000364282
-0.0248486
-0.000367874
-0.0244776
-0.000370971
-0.024104
-0.000373601
-0.0237282
-0.000375789
-0.0233507
-0.000377555
-0.0229718
-0.000378923
-0.0225919
-0.000379912
-0.0222113
-0.000380542
-0.0218305
-0.000380836
-0.0214497
-0.000380813
-0.0210692
-0.000380495
-0.0206893
-0.000379901
-0.0203102
-0.000379056
-0.0199322
-0.000377978
-0.0195555
-0.000376688
-0.0191803
-0.000375204
-0.0188068
-0.000373541
-0.0184351
-0.000371713
-0.0180654
-0.000369731
-0.0176978
-0.000367601
-0.0173324
-0.000365327
-0.0169695
-0.000362907
-0.0166092
-0.000360334
-0.0162516
-0.000357598
-0.0158969
-0.00035468
-0.0155454
-0.00035156
-0.0151971
-0.000348209
-0.0148525
-0.000344597
-0.0145119
-0.000340692
-0.0141754
-0.000336458
-0.0138435
-0.000331859
-0.0135167
-0.00032686
-0.0131952
-0.00032143
-0.0128797
-0.000315542
-0.0125705
-0.000309177
-0.0122682
-0.000302325
-0.0119732
-0.00029498
-0.0116861
-0.000287142
-0.0114073
-0.00027883
-0.0111372
-0.000270068
-0.0108763
-0.000260888
-0.010625
-0.000251325
-0.0103836
-0.000241419
-0.0101523
-0.000231208
-0.00993161
-0.000220734
-0.00972158
-0.000210037
-0.00952242
-0.000199156
-0.00933429
-0.000188126
-0.00915732
-0.000176975
-0.00899159
-0.000165726
-0.0088372
-0.000154395
-0.00869421
-0.00014299
-0.0085627
-0.000131512
-0.00844274
-0.000119958
-0.00833442
-0.000108318
-0.00823783
-9.6587e-05
-0.00815307
-8.4768e-05
-0.00808019
-7.28808e-05
-0.00801921
-6.09754e-05
-0.00797005
-4.91629e-05
-0.00793236
-3.76913e-05
-0.00790533
-2.70303e-05
-0.00788743
-1.78905e-05
-0.00787622
-1.12185e-05
-0.00786848
-7.73855e-06
-0.00786216
-6.3194e-06
-0.00785852
-3.64016e-06
-0.00786053
2.01296e-06
-0.00787029
9.76107e-06
-0.00788991
1.96178e-05
-0.00792143
3.15224e-05
-0.00796583
4.43949e-05
-0.00802102
5.51886e-05
-0.00808172
6.07022e-05
-0.00814183
6.01144e-05
-0.00819619
5.43618e-05
-0.00824434
4.81421e-05
-0.00828926
4.49237e-05
-0.00833683
4.75728e-05
-0.00839124
5.44072e-05
-0.00845488
6.36378e-05
-0.00852867
7.37917e-05
-0.00861254
8.38661e-05
-0.00870562
9.30845e-05
-0.00880653
0.000100911
-0.00891384
0.000107304
-0.00902679
0.000112952
-0.00914643
0.000119643
-0.00927672
0.000130293
-0.00942502
0.000148297
-0.00960099
0.00017597
-0.00981333
0.000212341
-0.0100648
0.000251511
-0.010348
0.000283117
-0.0106457
0.000297747
-0.010938
0.000292324
-0.011201
0.00026298
-0.0114233
0.000222282
-0.011607
0.000183707
-0.0117638
0.000156762
-0.0119081
0.000144343
-0.0120517
0.0001436
-0.0122007
0.000149008
-0.0123591
0.000158429
-0.0125263
0.000167192
-0.0126995
0.000173134
-0.0128743
0.000174785
-0.0130448
0.000170507
-0.0132056
0.000160814
-0.0133506
0.00014499
-0.013472
0.00012147
-0.0135599
8.78642e-05
-0.0136068
4.6901e-05
-0.013608
1.16028e-06
-0.0135779
-3.00781e-05
-0.0135365
-4.13982e-05
-0.0135005
-3.59366e-05
-0.0134748
-2.57094e-05
-0.0134601
-1.47268e-05
-0.0134588
-1.35597e-06
-0.0134712
1.242e-05
-0.0134989
2.77348e-05
-0.0135415
4.25921e-05
-0.0135973
5.57595e-05
-0.0136637
6.64749e-05
-0.0137382
7.44407e-05
-0.0138179
7.97746e-05
-0.0139008
8.28996e-05
-0.0139852
8.44001e-05
-0.0140702
8.4906e-05
-0.014155
8.48051e-05
-0.0142395
8.45238e-05
-0.0143238
8.43426e-05
-0.0144082
8.43501e-05
-0.0144927
8.45028e-05
-0.0145773
8.46686e-05
-0.014662
8.46648e-05
-0.0147463
8.43069e-05
-0.0148297
8.34297e-05
-0.0149116
8.1899e-05
-0.0149913
7.96059e-05
-0.0150677
7.64322e-05
-0.0151399
7.22101e-05
-0.0152066
6.66931e-05
-0.0152661
5.95212e-05
-0.0153163
5.01601e-05
-0.015354
3.77007e-05
-0.0153748
2.08383e-05
-0.0153735
-1.2854e-06
-0.0153508
-2.27426e-05
-0.0153059
-4.48891e-05
-0.0152381
-6.7775e-05
-0.0151458
-9.23234e-05
-0.0150268
-0.00011903
-0.0148791
-0.000147622
-0.0147009
-0.000178225
-0.01449
-0.000210934
-0.0142444
-0.000245584
-0.0139624
-0.000281964
-0.0136427
-0.000319768
-0.0132841
-0.000358596
-0.0128861
-0.000397939
-0.0124489
-0.000437182
-0.0119733
-0.000475608
-0.0114609
-0.000512422
-0.0109141
-0.000546779
-0.0103363
-0.000577826
-0.00973156
-0.000604755
-0.00910469
-0.000626867
-0.00846107
-0.00064362
-0.00780639
-0.000654686
-0.00714639
-0.000660001
-0.00648659
-0.000659793
-0.00583212
-0.000654479
-0.00518743
-0.000644681
-0.00455626
-0.00063117
-0.00394148
-0.00061478
-0.00334516
-0.00059632
-0.00276866
-0.000576505
-0.00221276
-0.000555895
-0.00167788
-0.00053488
-0.00116407
-0.000513811
-0.00067276
-0.000491313
-0.000203712
-0.000469048
0.000241437
-0.00044515
0.0006622
-0.000420763
0.00105509
-0.000392894
0.00141824
-0.000363144
0.00174862
-0.000330386
0.00204367
-0.000295044
0.00230022
-0.000256552
0.00251588
-0.000215662
0.00268892
-0.000173038
0.00281818
-0.000129262
0.00290302
-8.48332e-05
0.00294453
-4.15141e-05
0.00294539
-8.63763e-07
0.00290544
3.99537e-05
0.00282835
7.70856e-05
0.00271831
0.00011004
0.00257983
0.000138485
0.00241695
0.000162882
0.00223427
0.000182675
0.00203667
0.000197603
0.00182884
0.000207833
0.00161545
0.000213386
0.00140089
0.000214559
0.00118904
0.000211848
0.000984029
0.000205014
0.000790581
0.000193448
0.000613484
0.000177096
0.000459094
0.00015439
0.000333226
0.000125869
0.000240088
9.31378e-05
0.000184314
5.57741e-05
0.000178097
6.21658e-06
0.000228666
-5.0569e-05
0.000241911
-1.3244e-05
0.000241911
0.000621675
-0.00168219
0.00129913
-0.00184143
0.00199159
-0.00189999
0.00268569
-0.00192676
0.00335854
-0.0019129
0.00399525
-0.00186789
0.0045937
-0.00181091
0.00515628
-0.00175054
0.00569029
-0.00169416
0.00620617
-0.00164669
0.00671456
-0.00160964
0.00722504
-0.00158299
0.00774541
-0.00156544
0.00827947
-0.00155323
0.00882881
-0.00154451
0.00939169
-0.0015356
0.00996527
-0.00152482
0.0105459
-0.001511
0.0111312
-0.00149499
0.0117204
-0.00147849
0.0123148
-0.00146377
0.0129155
-0.00145119
0.013524
-0.00144106
0.01414
-0.00143188
0.0147605
-0.00142039
0.0153781
-0.00140131
0.0159826
-0.00137058
0.0165624
-0.00132585
0.0171073
-0.00126806
0.0176129
-0.0012024
0.0180831
-0.00113818
0.0185301
-0.00108596
0.0189695
-0.00105195
0.0194167
-0.00103777
0.0198822
-0.00103851
0.0203674
-0.00104362
0.0208665
-0.0010443
0.0213711
-0.00103513
0.021873
-0.00101503
0.0223665
-0.000985892
0.022849
-0.000951085
0.02332
-0.000913107
0.0237804
-0.000874099
0.0242318
-0.000835117
0.0246752
-0.000796563
0.025111
-0.000758924
0.0255385
-0.000722579
0.0259568
-0.000688111
0.026364
-0.000655624
0.0267579
-0.00062487
0.0271356
-0.000595399
0.0274939
-0.000566754
0.02783
-0.000538646
0.0281413
-0.000511174
0.0284268
-0.000484943
0.0286862
-0.000460696
0.0289205
-0.000439163
0.0291318
-0.00042079
0.0293222
-0.00040539
0.0294936
-0.000392099
0.0296468
-0.000379656
0.0297823
-0.000366722
0.0298998
-0.000352302
0.0299992
-0.000336005
0.0300814
-0.000318258
0.0301484
-0.000300191
0.030203
-0.000283199
0.0302491
-0.000268413
0.0302903
-0.000256426
0.0303297
-0.000247217
0.0303692
-0.00024008
0.0304098
-0.000234493
0.0304523
-0.000230089
0.0304971
-0.000226645
0.0305448
-0.000224042
0.0305957
-0.000221996
0.0306496
-0.000219897
0.0307053
-0.000216838
0.0307607
-0.000211774
0.0308126
-0.000203674
0.0308571
-0.000191639
0.0308897
-0.000174882
0.0309056
-0.000152418
0.0308999
-0.000123256
0.0308677
-8.64328e-05
0.0308048
-4.1661e-05
0.0307102
9.14991e-06
0.0305849
6.42302e-05
0.0304311
0.00012216
0.0302559
0.000177857
0.0300653
0.000228193
0.0298601
0.00027164
0.0296377
0.000305933
0.0293974
0.000329205
0.0291406
0.000342202
0.0288696
0.000347645
0.0285871
0.000348324
0.0282969
0.000345438
0.0280056
0.000337872
0.0277242
0.000322393
0.0274683
0.000295245
0.0272559
0.000254741
0.0271023
0.000202751
0.0270175
0.000143709
0.0270023
8.52676e-05
0.0270468
3.75303e-05
0.0271316
1.11865e-05
0.0272334
1.18761e-05
0.0273301
4.0606e-05
0.0274009
9.38213e-05
0.0274309
0.000160202
0.0274198
0.00022253
0.0273856
0.000270293
0.027349
0.000321518
0.0272958
0.000429668
0.0271482
0.000650469
0.0267798
0.000988982
0.0260688
0.00138617
0.0250322
0.00170133
0.0237692
0.00186095
0.0224325
0.00184345
0.021172
0.00168457
0.020089
0.0014524
0.0192231
0.00121318
0.0185714
0.00100191
0.0180946
0.000836121
0.0177593
0.000710471
0.0175323
0.000627371
0.0173745
0.000595135
0.0172412
0.000616032
0.0170895
0.000680054
0.0168869
0.000767373
0.0166181
0.0008559
0.0162851
0.000928615
0.0159015
0.00097791
0.0154875
0.00100238
0.0150647
0.00100488
0.0146484
0.000993455
0.0142477
0.000975096
0.0138653
0.000956928
0.0134991
0.000944287
0.0131442
0.000940176
0.0127943
0.000945756
0.0124424
0.000960474
0.012082
0.000982287
0.0117084
0.00100819
0.0113184
0.00103538
0.0109099
0.00106228
0.010484
0.00108438
0.0100436
0.00110079
0.00959167
0.00111131
0.00913057
0.00111622
0.00866254
0.00111607
0.0081896
0.00111159
0.00771366
0.00110358
0.00723669
0.0010927
0.00676107
0.00107939
0.00628976
0.00106382
0.0058265
0.00104586
0.00537563
0.0010253
0.00494161
0.00100201
0.00452831
0.000976142
0.00413816
0.000948453
0.00377135
0.000920479
0.00342511
0.000894705
0.00309322
0.000874193
0.00276616
0.000861746
0.0024323
0.000859214
0.00207979
0.000867276
0.00169763
0.000885019
0.00127695
0.000909949
0.000812771
0.000937986
0.000306068
0.000963815
-0.000234743
0.000982035
-0.000794551
0.000989293
-0.00135392
0.000985184
-0.00189331
0.000973289
-0.00239566
0.00095812
-0.00285744
0.000954572
-0.00328994
0.000965487
-0.00370336
0.000984876
-0.00411141
0.00100654
-0.00452172
0.00101177
-0.00493096
0.000990423
-0.00533496
0.000942112
-0.00572916
0.000873114
-0.00611025
0.000795247
-0.00648088
0.000724339
-0.00685413
0.000679117
-0.00725637
0.000677762
-0.00772021
0.000729394
-0.0082886
0.000839452
-0.00898652
0.000982058
-0.00981308
0.00112194
-0.010746
0.00123424
-0.0117595
0.00131857
-0.0128377
0.00139737
-0.0139717
0.00149193
-0.0151469
0.00159764
-0.0163279
0.0016849
-0.0174617
0.00172596
-0.0184998
0.00171263
-0.0194178
0.00166224
-0.0202186
0.00159802
-0.0209231
0.00153606
-0.0215593
0.0014829
-0.022151
0.00143824
-0.0227153
0.00140036
-0.0232626
0.00136807
-0.0237986
0.00134019
-0.0243253
0.00131478
-0.0248437
0.00128917
-0.0253544
0.00126072
-0.0258589
0.00122797
-0.0263592
0.00119137
-0.0268572
0.00115316
-0.0273531
0.00111641
-0.0278455
0.00108374
-0.0283316
0.00105654
-0.028809
0.00103477
-0.0292766
0.00101752
-0.0297358
0.00100402
-0.0301894
0.000994557
-0.0306406
0.000990842
-0.0310896
0.000995447
-0.0315332
0.00101028
-0.0319641
0.00103436
-0.0323726
0.00106176
-0.0327481
0.00108139
-0.0330763
0.00108035
-0.0333346
0.00104972
-0.0334866
0.000988518
-0.0334853
0.000901959
-0.0332868
0.00079523
-0.0328706
0.00066877
-0.0322554
0.000522756
-0.0314981
0.000367453
-0.0306791
0.000217019
-0.0298976
0.000107137
-0.0292158
3.64893e-05
-0.0286581
-3.4407e-06
-0.0282062
-4.00106e-05
-0.0278435
-6.40727e-05
-0.0275487
-8.37217e-05
-0.0273038
-0.000100488
-0.0270941
-0.000115989
-0.0269078
-0.000131223
-0.0267353
-0.000147311
-0.0265715
-0.000164681
-0.02641
-0.000182148
-0.0262484
-0.000200713
-0.0260841
-0.000219748
-0.0259157
-0.000238795
-0.0257428
-0.000257567
-0.0255652
-0.000275873
-0.0253833
-0.000293592
-0.0251974
-0.000310646
-0.025008
-0.000326989
-0.0248155
-0.000342597
-0.0246204
-0.000357463
-0.0244232
-0.000371594
-0.0242246
-0.000385011
-0.0240253
-0.000397753
-0.0238259
-0.000409866
-0.023627
-0.000421403
-0.0234293
-0.000432417
-0.0232332
-0.000442958
-0.0230391
-0.000453066
-0.0228471
-0.000462773
-0.0226573
-0.000472098
-0.0224695
-0.000481063
-0.0222835
-0.000489693
-0.0220987
-0.000498022
-0.0219148
-0.000506085
-0.0217312
-0.000513917
-0.0215472
-0.000521548
-0.0213625
-0.000528999
-0.0211764
-0.000536283
-0.0209885
-0.000543407
-0.0207982
-0.000550373
-0.0206053
-0.000557176
-0.0204094
-0.000563809
-0.0202101
-0.000570254
-0.0200072
-0.000576496
-0.0198005
-0.000582516
-0.0195898
-0.0005883
-0.0193749
-0.000593835
-0.0191556
-0.000599114
-0.0189321
-0.00060413
-0.018704
-0.000608881
-0.0184715
-0.000613368
-0.0182344
-0.000617594
-0.0179927
-0.000621566
-0.0177465
-0.000625287
-0.0174957
-0.000628761
-0.0172404
-0.00063199
-0.0169806
-0.000634971
-0.0167165
-0.000637701
-0.016448
-0.00064017
-0.0161754
-0.000642363
-0.0158987
-0.000644259
-0.0156182
-0.00064583
-0.0153341
-0.000647042
-0.0150465
-0.000647852
-0.0147559
-0.00064821
-0.0144626
-0.000648062
-0.0141668
-0.000647351
-0.013869
-0.000646018
-0.0135695
-0.000644005
-0.013269
-0.000641259
-0.0129677
-0.000637734
-0.0126662
-0.000633389
-0.0123648
-0.000628196
-0.0120641
-0.000622134
-0.0117645
-0.000615195
-0.0114663
-0.000607382
-0.0111699
-0.00059871
-0.0108757
-0.000589196
-0.010584
-0.000578861
-0.0102951
-0.00056773
-0.0100093
-0.00055583
-0.00972699
-0.000543187
-0.0094485
-0.000529823
-0.00917416
-0.00051576
-0.00890435
-0.000501017
-0.00863947
-0.000485611
-0.00837995
-0.000469556
-0.00812624
-0.000452865
-0.00787882
-0.000435552
-0.00763816
-0.000417632
-0.00740476
-0.000399121
-0.00717911
-0.000380044
-0.00696167
-0.000360433
-0.00675284
-0.000340342
-0.00655295
-0.000319847
-0.00636221
-0.000299063
-0.00618065
-0.000278145
-0.00600812
-0.000257301
-0.00584421
-0.000236784
-0.00568831
-0.000216882
-0.00553957
-0.000197903
-0.00539711
-0.000180144
-0.00526031
-0.000163833
-0.00512916
-0.000149043
-0.00500479
-0.000135592
-0.00488966
-0.000122861
-0.0047861
-0.000109878
-0.00469356
-9.6189e-05
-0.0046097
-8.18385e-05
-0.00453294
-6.7e-05
-0.00446151
-5.18153e-05
-0.00439297
-3.70163e-05
-0.00432518
-2.33975e-05
-0.00425917
-1.08225e-05
-0.00420215
3.68016e-06
-0.0041628
2.07662e-05
-0.00415283
4.4397e-05
-0.00417993
7.52419e-05
-0.00424592
0.00011091
-0.00434345
0.000145109
-0.0044661
0.000177048
-0.00460986
0.000207402
-0.00477293
0.00023686
-0.00495502
0.000265962
-0.00515694
0.000295005
-0.00538
0.00032397
-0.00562509
0.000352395
-0.00589113
0.000378992
-0.00617308
0.000401589
-0.00645979
0.000417007
-0.00673295
0.000421454
-0.00696815
0.000411169
-0.00713869
0.00038288
-0.00722163
0.00033445
-0.00720522
0.000266712
-0.00709401
0.000186535
-0.00690431
0.000102627
-0.00668188
4.05459e-05
-0.00646958
9.9824e-06
-0.00629774
1.18639e-05
-0.00618015
3.91717e-05
-0.00611615
8.03435e-05
-0.00609461
0.000122059
-0.00610136
0.000155761
-0.0061152
0.000172268
-0.00612015
0.000172141
-0.00610415
0.000157133
-0.00606163
0.000132271
-0.00599307
0.000101948
-0.00590025
6.79918e-05
-0.00578782
3.2554e-05
-0.00566686
5.14388e-07
-0.00554632
-3.2678e-05
-0.00544616
-5.32619e-05
-0.00538754
-5.7458e-05
-0.00537277
-4.48421e-05
-0.00539138
-2.27922e-05
-0.00542953
2.21372e-06
-0.00548415
2.89124e-05
-0.00555725
5.83687e-05
-0.00564711
8.85115e-05
-0.00575277
0.000118071
-0.00587035
0.000145323
-0.00599676
0.000168998
-0.00612933
0.000188333
-0.00626611
0.000203252
-0.00640599
0.000214315
-0.00654869
0.000222475
-0.00669456
0.000228778
-0.0068443
0.000234131
-0.00699883
0.000239444
-0.00715888
0.000244848
-0.00732458
0.000250224
-0.00749566
0.000255429
-0.0076716
0.000260285
-0.00785169
0.000264595
-0.00803518
0.000268157
-0.00822129
0.000270774
-0.00840923
0.000272249
-0.0085982
0.0002724
-0.00878735
0.000271053
-0.0089758
0.000268052
-0.00916263
0.000263257
-0.00934693
0.000256511
-0.00952787
0.000247636
-0.00970476
0.000236409
-0.00987716
0.000222564
-0.0100453
0.000205837
-0.0102105
0.000186074
-0.010375
0.000163168
-0.0105343
0.000136541
-0.010684
0.000104847
-0.0108198
6.80634e-05
-0.0109385
2.63228e-05
-0.0110356
-2.19704e-05
-0.0111048
-7.83698e-05
-0.0111413
-0.000141711
-0.0111406
-0.000211614
-0.0110986
-0.000287661
-0.0110116
-0.00036896
-0.0108768
-0.000454548
-0.0106921
-0.000543313
-0.0104561
-0.000633951
-0.0101683
-0.000724964
-0.00982921
-0.000814676
-0.00944036
-0.000901271
-0.00900428
-0.000982855
-0.00852456
-0.00105754
-0.00800576
-0.00112356
-0.00745327
-0.00117936
-0.00687313
-0.00122376
-0.00627179
-0.00125602
-0.00565583
-0.00127597
-0.00503164
-0.00128398
-0.00440517
-0.00128095
-0.00378162
-0.00126823
-0.00316532
-0.00124748
-0.00255959
-0.00122051
-0.0019668
-0.00118911
-0.00138843
-0.00115487
-0.000825261
-0.00111907
-0.000277659
-0.00108248
0.000253818
-0.00104529
0.000771248
-0.00100874
0.00127237
-0.000970168
0.00175745
-0.00093023
0.00222413
-0.000887441
0.00267207
-0.000840839
0.00309772
-0.000788794
0.0034991
-0.000731766
0.00387294
-0.000668886
0.00421658
-0.000600185
0.00452684
-0.000525925
0.0048013
-0.000447503
0.00503756
-0.000365518
0.00523433
-0.000281606
0.00538958
-0.000196762
0.00550125
-0.000112529
0.00556937
-2.81701e-05
0.00559271
5.37405e-05
0.00557214
0.00013061
0.00550671
0.000203919
0.00539715
0.000272445
0.00524366
0.000336167
0.00504719
0.000394065
0.0048089
0.000446122
0.0045298
0.000492492
0.00421051
0.000533844
0.00385178
0.000570579
0.00345638
0.000600413
0.00302886
0.000620977
0.00257586
0.000630093
0.00210746
0.000622788
0.00163882
0.000594511
0.00119145
0.000540504
0.000806535
0.000440691
0.000550579
0.000262172
0.00045955
4.04599e-05
0.000395513
5.07933e-05
0.000637423
0.000487953
-0.00217015
0.00100161
-0.00235508
0.00146883
-0.00236722
0.00190645
-0.00236438
0.00231076
-0.00231721
0.00268528
-0.00224241
0.00304213
-0.00216775
0.00339695
-0.00210536
0.0037652
-0.00206241
0.00416015
-0.00204165
0.00459134
-0.00204083
0.00506315
-0.0020548
0.00557432
-0.0020766
0.00612177
-0.00210069
0.00669878
-0.00212152
0.0072991
-0.00213591
0.00791732
-0.00214304
0.00855034
-0.00214402
0.00919671
-0.00214136
0.00985614
-0.00213792
0.0105276
-0.00213522
0.011209
-0.0021326
0.0118954
-0.0021275
0.0125798
-0.00211624
0.0132532
-0.00209376
0.0139081
-0.00205618
0.0145389
-0.00200146
0.0151469
-0.00193377
0.0157399
-0.00186108
0.0163323
-0.00179481
0.016942
-0.00174794
0.0175834
-0.00172727
0.0182626
-0.00173117
0.0189744
-0.00174956
0.0197039
-0.00176807
0.0204335
-0.0017732
0.0211467
-0.00175746
0.021832
-0.0017205
0.0224839
-0.0016669
0.0231012
-0.00160324
0.0236856
-0.00153543
0.02424
-0.00146749
0.0247665
-0.00140064
0.0252669
-0.0013355
0.0257421
-0.00127181
0.0261924
-0.00120915
0.0266171
-0.00114735
0.0270155
-0.0010865
0.0273868
-0.00102689
0.0277306
-0.00096871
0.0280474
-0.00091217
0.0283382
-0.000857533
0.0286048
-0.000805281
0.0288497
-0.00075607
0.0290755
-0.000710711
0.0292846
-0.000669864
0.0294794
-0.000633881
0.0296611
-0.000602487
0.0298304
-0.000574698
0.0299873
-0.000549075
0.0301319
-0.000524215
0.0302644
-0.000499228
0.0303861
-0.000473956
0.0304992
-0.000449152
0.030607
-0.000426078
0.0307128
-0.000405933
0.0308188
-0.000389242
0.0309259
-0.000375545
0.031033
-0.000363504
0.0311372
-0.000351406
0.0312349
-0.000337776
0.0313224
-0.000322002
0.0313967
-0.000304392
0.0314557
-0.000285668
0.0314981
-0.000266379
0.0315227
-0.000246586
0.0315284
-0.000225646
0.031514
-0.000202457
0.0314782
-0.000175892
0.0314196
-0.000145076
0.0313376
-0.00010972
0.0312331
-7.03187e-05
0.0311077
-2.70409e-05
0.0309649
1.95792e-05
0.0308081
7.03449e-05
0.030642
0.000124404
0.0304705
0.000180679
0.0302963
0.000238466
0.030123
0.000295414
0.0299526
0.00034829
0.0297859
0.000394884
0.0296231
0.000434383
0.0294623
0.000466764
0.029299
0.000492557
0.0291284
0.000512782
0.0289477
0.00052828
0.0287574
0.000538611
0.0285616
0.000541306
0.0283671
0.000532333
0.0281821
0.000507408
0.0280133
0.000464068
0.0278644
0.000403573
0.0277358
0.000331413
0.0276228
0.000256653
0.0275167
0.000191399
0.0274042
0.000150088
0.0272653
0.000150019
0.0270683
0.000208945
0.0267677
0.000341208
0.0263136
0.000547914
0.0256673
0.000806423
0.0248174
0.00107247
0.0237893
0.00129837
0.022649
0.00146187
0.0214927
0.00158596
0.0204228
0.00172039
0.0195214
0.00189031
0.01882
0.00208761
0.0182837
0.00223757
0.0178741
0.00227061
0.0175533
0.00216421
0.0172821
0.00195582
0.0170211
0.00171333
0.0167402
0.00149412
0.0164258
0.00131629
0.0160825
0.00117941
0.0157158
0.00107717
0.0153314
0.00101183
0.0149377
0.000988775
0.0145464
0.00100735
0.0141688
0.00105765
0.0138124
0.00112375
0.013479
0.00118932
0.0131652
0.00124248
0.0128645
0.00127856
0.0125687
0.00129821
0.0122694
0.00130418
0.0119615
0.00130129
0.0116422
0.00129442
0.0113115
0.00128765
0.0109716
0.00128414
0.0106262
0.00128562
0.0102795
0.00129244
0.00993605
0.00130393
0.00959972
0.00131862
0.0092732
0.00133472
0.00895798
0.0013506
0.00865493
0.00136533
0.00836144
0.00137788
0.00807419
0.00138803
0.00778949
0.00139602
0.00750354
0.00140217
0.00721283
0.00140677
0.00691455
0.00140987
0.00660694
0.00141119
0.00628965
0.00140999
0.00596391
0.00140513
0.00563247
0.00139526
0.00529912
0.00137921
0.00496787
0.00135654
0.00464173
0.00132816
0.00432138
0.0012965
0.00400421
0.00126562
0.00368402
0.00124067
0.0033517
0.00122702
0.00299679
0.0012291
0.00260928
0.00124925
0.00218152
0.00128698
0.00170988
0.00133891
0.00119557
0.00139933
0.00064522
0.00146029
7.07501e-05
0.00151246
-0.000512027
0.00154659
-0.00108603
0.00155604
-0.00163579
0.00153906
-0.00215093
0.00150031
-0.00262809
0.00145045
-0.00307229
0.00140232
-0.00348558
0.00136787
-0.00387098
0.00135088
-0.00423365
0.00134755
-0.00457626
0.00134916
-0.00490683
0.00134233
-0.005234
0.0013176
-0.00556312
0.00127123
-0.0058955
0.0012055
-0.00622911
0.00112885
-0.0065624
0.00105763
-0.00690257
0.00101929
-0.00728
0.00105519
-0.00774725
0.00119664
-0.00837029
0.00146249
-0.00921631
0.00182808
-0.010319
0.00222465
-0.0116546
0.00256984
-0.0131431
0.00280703
-0.0146702
0.00292444
-0.0161155
0.00293724
-0.017378
0.00286019
-0.0183969
0.00270377
-0.0191603
0.00248938
-0.0197024
0.00225473
-0.020083
0.0020428
-0.0203666
0.00188163
-0.0206066
0.00177601
-0.0208405
0.00171683
-0.0210881
0.00168588
-0.0213565
0.00166872
-0.0216449
0.00165653
-0.0219494
0.00164463
-0.0222654
0.00163082
-0.0225905
0.00161428
-0.0229245
0.00159472
-0.0232686
0.00157202
-0.0236232
0.001546
-0.0239866
0.00151658
-0.0243543
0.00148406
-0.0247199
0.00144933
-0.0250772
0.00141391
-0.025422
0.00137951
-0.025752
0.00134753
-0.0260665
0.00131856
-0.0263643
0.00129232
-0.0266414
0.00126791
-0.0268903
0.00124435
-0.0271005
0.00122051
-0.0272602
0.00119409
-0.0273582
0.00115973
-0.0273848
0.00110797
-0.0273314
0.00102697
-0.0271897
0.000907982
-0.0269535
0.000752329
-0.0266264
0.000574911
-0.0262316
0.000400388
-0.0258164
0.000253566
-0.0254423
0.000148691
-0.0251607
8.58562e-05
-0.0250019
5.81895e-05
-0.0249395
4.47163e-05
-0.0249418
3.8855e-05
-0.0249753
3.00365e-05
-0.0250258
1.04675e-05
-0.0250753
-1.45188e-05
-0.0251188
-4.02576e-05
-0.0251505
-6.87574e-05
-0.025169
-9.75492e-05
-0.0251746
-0.00012555
-0.0251684
-0.000153592
-0.0251512
-0.000181869
-0.0251235
-0.000209846
-0.0250864
-0.000237764
-0.0250406
-0.000265567
-0.0249862
-0.000293158
-0.0249233
-0.000320507
-0.0248516
-0.000347617
-0.0247707
-0.000374492
-0.0246802
-0.000401111
-0.0245798
-0.0004274
-0.0244691
-0.000453246
-0.0243481
-0.000478491
-0.0242167
-0.000502953
-0.0240753
-0.000526444
-0.0239243
-0.000548789
-0.0237643
-0.000569852
-0.0235961
-0.000589549
-0.0234207
-0.000607868
-0.0232388
-0.000624868
-0.0230512
-0.000640668
-0.0228585
-0.00065543
-0.0226613
-0.000669341
-0.0224598
-0.000682591
-0.0222541