/*--------------------------------*- C++ -*----------------------------------*\
| =========                 |                                                 |
| \\      /  F ield         | OpenFOAM: The Open Source CFD Toolbox           |
|  \\    /   O peration     | Version:  v2006                                 |
|   \\  /    A nd           | Website:  www.openfoam.com                      |
|    \\/     M anipulation  |                                                 |
\*---------------------------------------------------------------------------*/
FoamFile
{
    version     2.0;
    format      ascii;
    class       volScalarField;
    location    "2.75";
    object      r;
}
// * * * * * * * * * * * * * * * * * * * * * * * * * * * * * * * * * * * * * //

dimensions      [1 2 0 0 0 0 0];


internalField   nonuniform List<scalar> 
350
(
-1.15461e-146
9.09605e-145
-4.55034e-143
2.2763e-141
-1.13386e-139
5.62391e-138
-2.77722e-136
1.36542e-134
-6.6826e-133
3.25562e-131
-1.57862e-129
7.61811e-128
-3.65846e-126
1.74821e-124
-8.31165e-123
3.93131e-121
-1.84968e-119
8.65608e-118
-4.02867e-116
1.86452e-114
-8.57997e-113
3.92523e-111
-1.78505e-109
8.06833e-108
-3.62415e-106
1.61754e-104
-7.17245e-103
3.15921e-101
-1.38203e-99
6.00366e-98
-2.58939e-96
1.10863e-94
-4.71092e-93
1.98641e-91
-8.30978e-90
3.4481e-88
-1.41888e-86
5.7888e-85
-2.34103e-83
9.38202e-82
-3.72515e-80
1.46499e-78
-5.70488e-77
2.19914e-75
-8.38923e-74
3.16602e-72
-1.18163e-70
4.35983e-69
-1.58972e-67
5.72613e-66
-2.03664e-64
7.14974e-63
-2.47622e-61
8.45669e-60
-2.84644e-58
9.43745e-57
-3.08041e-55
9.89231e-54
-3.12346e-52
9.68992e-51
-2.95139e-49
8.81875e-48
-2.58279e-46
7.40752e-45
-2.07838e-43
5.69872e-42
-1.52519e-40
3.9794e-39
-1.01077e-37
2.4956e-36
-5.97942e-35
1.38774e-33
-3.11341e-32
6.73681e-31
-1.40234e-29
2.80012e-28
-5.34559e-27
9.7199e-26
-1.67594e-24
2.72602e-23
-4.15681e-22
5.89719e-21
-7.70966e-20
9.17405e-19
-9.77149e-18
9.09446e-17
-7.11957e-16
4.36763e-15
-1.75209e-14
9.39347e-15
3.93043e-13
-1.82009e-12
-6.0982e-12
6.17081e-11
1.85773e-10
-1.67547e-09
-1.10323e-08
8.00372e-09
4.56962e-07
3.47842e-06
1.73284e-05
6.77112e-05
0.000222777
0.000641171
0.00165374
0.00388732
0.00843218
0.0170424
0.0323431
0.0580045
0.0988303
0.160712
0.250412
0.375161
0.54209
0.757559
1.02645
1.35151
1.73291
2.16792
2.65098
3.17395
3.72663
4.29745
4.87423
5.44497
5.99856
6.52534
7.0175
7.4693
7.87709
8.23924
8.55586
8.82854
9.06
9.25373
9.41371
9.54411
9.64906
9.7325
9.79806
9.84899
9.88812
9.91786
9.94022
9.95687
9.96914
9.97809
9.98453
9.98902
9.99191
9.99322
9.99262
9.9892
9.98136
9.96659
9.94129
9.9007
9.83898
9.74939
9.62471
9.45783
9.24239
8.97352
8.64847
8.26708
7.83208
7.34902
6.82605
6.27337
5.70255
5.12577
4.55503
4.00144
3.47466
2.9825
2.5307
2.12291
1.76076
1.44414
1.17146
0.940005
0.746272
0.58629
0.455894
0.350944
0.267501
0.201936
0.151006
0.11188
0.0821448
0.0597804
0.0431296
0.0308541
0.0218903
0.0154053
0.010756
0.00745184
0.00512372
0.00349693
0.0023694
0.00159407
0.00106503
0.000706745
0.000465881
0.000305111
0.000198551
0.000128402
8.25306e-05
5.27297e-05
3.34922e-05
2.11511e-05
1.32822e-05
8.29481e-06
5.15212e-06
3.18312e-06
1.95639e-06
1.19628e-06
7.27822e-07
4.40633e-07
2.65475e-07
1.59187e-07
9.50078e-08
5.64451e-08
3.33829e-08
1.96568e-08
1.15238e-08
6.72723e-09
3.91058e-09
2.26385e-09
1.30528e-09
7.49531e-10
4.28769e-10
2.44282e-10
1.3868e-10
7.84116e-11
4.41845e-11
2.48019e-11
1.3873e-11
7.73426e-12
4.29437e-12
2.3788e-12
1.31123e-12
7.21761e-13
3.95194e-13
2.16039e-13
1.1766e-13
6.37979e-14
3.46179e-14
1.86035e-14
1.00553e-14
5.37115e-15
2.87442e-15
1.54271e-15
8.04967e-16
4.42584e-16
2.20569e-16
1.26264e-16
5.99687e-17
3.49142e-17
1.69859e-17
8.71659e-18
5.47982e-18
1.5523e-18
2.154e-18
-1.31819e-19
9.93783e-19
-3.4653e-19
4.84062e-19
-2.42091e-19
2.22779e-19
-1.18206e-19
8.31312e-20
-3.53811e-20
1.30453e-20
6.75596e-21
-1.57815e-20
2.11793e-20
-2.19422e-20
2.07367e-20
-1.79482e-20
1.46867e-20
-1.13222e-20
8.27248e-21
-5.67478e-21
3.61313e-21
-2.06427e-21
9.74321e-22
-2.59999e-22
-1.63433e-22
3.76857e-22
-4.48647e-22
4.33599e-22
-3.72307e-22
2.92966e-22
-2.13425e-22
1.43666e-22
-8.80349e-23
4.7201e-23
-1.96782e-23
2.95792e-24
5.73124e-24
-8.95875e-24
8.85503e-24
-7.03142e-24
4.60046e-24
-2.25071e-24
3.43242e-25
9.91412e-25
-1.76854e-24
2.08223e-24
-2.05715e-24
1.81721e-24
-1.46802e-24
1.08951e-24
-7.3522e-25
4.35617e-25
-2.03176e-25
3.78128e-26
6.82201e-26
-1.26409e-25
1.49151e-25
-1.47935e-25
1.32369e-25
-1.09817e-25
8.54556e-26
-6.25661e-26
4.2933e-26
-2.72543e-26
1.5511e-26
-7.26613e-27
1.88901e-27
1.29319e-27
-2.90235e-27
3.46184e-27
-3.38068e-27
2.95753e-27
-2.39568e-27
1.82235e-27
-1.30827e-27
8.85023e-28
-5.59209e-28
3.23061e-28
-1.61963e-28
5.93237e-29
5.53501e-31
-3.10288e-29
4.26319e-29
-4.30828e-29
3.97927e-29
)
;

boundaryField
{
    right
    {
        type            zeroGradient;
    }
    left
    {
        type            inletOutlet;
        inletValue      uniform 0;
        value           uniform 0;
    }
    top
    {
        type            zeroGradient;
    }
    bottom
    {
        type            zeroGradient;
    }
    empty
    {
        type            empty;
    }
}


// ************************************************************************* //
