/*--------------------------------*- C++ -*----------------------------------*\
| =========                 |                                                 |
| \\      /  F ield         | OpenFOAM: The Open Source CFD Toolbox           |
|  \\    /   O peration     | Version:  v2006                                 |
|   \\  /    A nd           | Website:  www.openfoam.com                      |
|    \\/     M anipulation  |                                                 |
\*---------------------------------------------------------------------------*/
FoamFile
{
    version     2.0;
    format      ascii;
    class       volScalarField;
    location    "5.5";
    object      p_rgh;
}
// * * * * * * * * * * * * * * * * * * * * * * * * * * * * * * * * * * * * * //

dimensions      [1 -1 -2 0 0 0 0];


internalField   nonuniform List<scalar> 
50000
(
2786.07
2786.66
2787.56
2789.08
2791.01
2793.45
2796.37
2799.75
2803.61
2807.92
2812.68
2817.89
2823.54
2829.6
2836.09
2842.97
2850.24
2857.89
2865.91
2874.27
2882.97
2891.99
2901.31
2910.92
2920.81
2930.95
2941.32
2951.92
2962.72
2973.71
2984.86
2996.16
3007.59
3019.13
3030.76
3042.47
3054.23
3066.03
3077.84
3089.65
3101.45
3113.2
3124.9
3136.53
3148.06
3159.48
3170.78
3181.93
3192.92
3203.74
3214.38
3224.8
3234.99
3244.93
3254.62
3264.04
3273.19
3282.04
3290.59
3298.82
3306.72
3314.29
3321.5
3328.36
3334.85
3340.96
3346.69
3352.03
3356.97
3361.5
3365.63
3369.35
3372.65
3375.53
3377.99
3380.02
3381.63
3382.81
3383.56
3383.89
3383.8
3383.28
3382.35
3381
3379.25
3377.08
3374.52
3371.56
3368.21
3364.49
3360.39
3355.93
3351.12
3345.96
3340.47
3334.65
3328.52
3322.09
3315.38
3308.38
3301.13
3293.63
3285.89
3277.94
3269.79
3261.45
3252.94
3244.28
3235.48
3226.56
3217.54
3208.44
3199.27
3190.05
3180.8
3171.54
3162.28
3153.05
3143.87
3134.74
3125.69
3116.74
3107.91
3099.21
3090.66
3082.28
3074.08
3066.09
3058.31
3050.77
3043.48
3036.45
3029.7
3023.24
3017.09
3011.26
3005.76
3000.61
2995.81
2991.38
2987.31
2983.64
2980.31
2977.48
2974.89
2972.94
2971.13
2970.09
2968.88
2968.52
2785.01
2785.6
2786.5
2788.03
2789.97
2792.42
2795.35
2798.75
2802.62
2806.95
2811.73
2816.96
2822.63
2828.72
2835.23
2842.14
2849.44
2857.12
2865.17
2873.57
2882.3
2891.35
2900.71
2910.36
2920.28
2930.46
2940.87
2951.51
2962.35
2973.37
2984.56
2995.9
3007.37
3018.95
3030.62
3042.36
3054.16
3065.99
3077.85
3089.69
3101.52
3113.31
3125.04
3136.7
3148.27
3159.72
3171.04
3182.23
3193.24
3204.08
3214.71
3225.14
3235.35
3245.3
3255.03
3264.49
3273.67
3282.56
3291.13
3299.39
3307.32
3314.91
3322.14
3329.02
3335.53
3341.66
3347.4
3352.76
3357.71
3362.26
3366.4
3370.12
3373.43
3376.32
3378.78
3380.81
3382.42
3383.6
3384.36
3384.68
3384.59
3384.07
3383.13
3381.77
3380
3377.83
3375.25
3372.28
3368.92
3365.18
3361.07
3356.59
3351.76
3346.58
3341.07
3335.23
3329.08
3322.63
3315.88
3308.87
3301.59
3294.06
3286.29
3278.31
3270.13
3261.76
3253.22
3244.53
3235.69
3226.74
3217.69
3208.55
3199.35
3190.09
3180.81
3171.51
3162.22
3152.96
3143.74
3134.58
3125.5
3116.52
3107.65
3098.92
3090.34
3081.93
3073.7
3065.67
3057.87
3050.3
3042.97
3035.92
3029.14
3022.66
3016.48
3010.63
3005.11
2999.93
2995.11
2990.65
2986.56
2982.87
2979.56
2976.66
2974.14
2972.07
2970.36
2969.11
2968.19
2967.77
2782.95
2783.54
2784.45
2785.99
2787.94
2790.41
2793.36
2796.79
2800.69
2805.05
2809.87
2815.14
2820.85
2826.99
2833.55
2840.51
2847.86
2855.6
2863.71
2872.16
2880.96
2890.08
2899.51
2909.22
2919.21
2929.46
2939.95
2950.66
2961.57
2972.67
2983.94
2995.35
3006.9
3018.55
3030.3
3042.12
3054
3065.91
3077.83
3089.76
3101.66
3113.52
3125.33
3137.06
3148.69
3160.22
3171.61
3182.86
3193.94
3204.85
3215.55
3226.05
3236.33
3246.41
3256.17
3265.65
3274.86
3283.78
3292.39
3300.68
3308.64
3316.26
3323.52
3330.43
3336.96
3343.12
3348.89
3354.26
3359.23
3363.8
3367.95
3371.69
3375
3377.89
3380.36
3382.4
3384
3385.18
3385.93
3386.25
3386.14
3385.61
3384.65
3383.28
3381.49
3379.29
3376.69
3373.69
3370.3
3366.52
3362.38
3357.86
3352.99
3347.77
3342.21
3336.33
3330.13
3323.63
3316.84
3309.78
3302.45
3294.87
3287.06
3279.02
3270.79
3262.36
3253.77
3245.02
3236.13
3227.12
3218.01
3208.81
3199.54
3190.22
3180.87
3171.51
3162.15
3152.82
3143.53
3134.3
3125.15
3116.1
3107.17
3098.36
3089.71
3081.23
3072.94
3064.85
3056.98
3049.35
3041.97
3034.85
3028.02
3021.49
3015.26
3009.36
3003.8
2998.58
2993.71
2989.22
2985.1
2981.38
2978.04
2975.11
2972.57
2970.47
2968.76
2967.49
2966.61
2966.18
2779.85
2780.46
2781.38
2782.93
2784.9
2787.4
2790.38
2793.85
2797.79
2802.2
2807.08
2812.41
2818.18
2824.39
2831.01
2838.05
2845.49
2853.31
2861.51
2870.05
2878.94
2888.16
2897.69
2907.51
2917.6
2927.96
2938.56
2949.38
2960.4
2971.61
2982.99
2994.52
3006.18
3017.95
3029.81
3041.75
3053.74
3065.76
3077.8
3089.83
3101.84
3113.81
3125.72
3137.56
3149.3
3160.92
3172.41
3183.75
3194.93
3205.93
3216.72
3227.31
3237.65
3247.74
3257.61
3267.2
3276.5
3285.5
3294.18
3302.54
3310.56
3318.24
3325.56
3332.52
3339.1
3345.3
3351.1
3356.51
3361.51
3366.11
3370.28
3374.04
3377.37
3380.27
3382.74
3384.79
3386.39
3387.57
3388.31
3388.61
3388.49
3387.94
3386.96
3385.56
3383.74
3381.51
3378.87
3375.83
3372.4
3368.58
3364.38
3359.81
3354.88
3349.6
3343.98
3338.03
3331.77
3325.2
3318.33
3311.19
3303.78
3296.12
3288.23
3280.11
3271.79
3263.27
3254.58
3245.74
3236.76
3227.65
3218.44
3209.14
3199.77
3190.35
3180.9
3171.44
3161.98
3152.55
3143.16
3133.83
3124.57
3115.42
3106.39
3097.49
3088.74
3080.16
3071.77
3063.59
3055.63
3047.91
3040.44
3033.24
3026.33
3019.72
3013.42
3007.44
3001.81
2996.53
2991.61
2987.06
2982.89
2979.12
2975.74
2972.78
2970.21
2968.08
2966.35
2965.07
2964.18
2963.76
2775.7
2776.32
2777.25
2778.83
2780.83
2783.37
2786.39
2789.91
2793.91
2798.39
2803.34
2808.74
2814.6
2820.9
2827.62
2834.76
2842.31
2850.24
2858.56
2867.23
2876.24
2885.59
2895.25
2905.21
2915.45
2925.95
2936.69
2947.66
2958.83
2970.2
2981.73
2993.41
3005.22
3017.15
3029.16
3041.25
3053.39
3065.57
3077.76
3089.94
3102.1
3114.22
3126.28
3138.25
3150.13
3161.89
3173.52
3184.99
3196.3
3207.42
3218.34
3229.04
3239.51
3249.74
3259.69
3269.36
3278.75
3287.84
3296.61
3305.05
3313.15
3320.9
3328.3
3335.32
3341.96
3348.21
3354.07
3359.52
3364.56
3369.19
3373.4
3377.18
3380.53
3383.45
3385.93
3387.98
3389.58
3390.75
3391.48
3391.78
3391.63
3391.06
3390.05
3388.61
3386.76
3384.48
3381.79
3378.7
3375.21
3371.33
3367.06
3362.42
3357.41
3352.06
3346.35
3340.32
3333.96
3327.29
3320.33
3313.09
3305.57
3297.81
3289.8
3281.57
3273.13
3264.5
3255.69
3246.72
3237.61
3228.37
3219.03
3209.6
3200.1
3190.55
3180.96
3171.36
3161.77
3152.2
3142.67
3133.2
3123.81
3114.52
3105.35
3096.31
3087.43
3078.73
3070.21
3061.9
3053.82
3045.97
3038.39
3031.08
3024.06
3017.34
3010.94
3004.88
2999.16
2993.79
2988.79
2984.17
2979.94
2976.1
2972.67
2969.66
2967.05
2964.89
2963.13
2961.83
2960.93
2960.51
2770.49
2771.11
2772.07
2773.67
2775.71
2778.3
2781.38
2784.96
2789.03
2793.59
2798.63
2804.14
2810.1
2816.51
2823.36
2830.63
2838.32
2846.39
2854.85
2863.68
2872.86
2882.37
2892.2
2902.33
2912.74
2923.42
2934.35
2945.5
2956.87
2968.42
2980.14
2992.02
3004.02
3016.14
3028.35
3040.63
3052.96
3065.33
3077.71
3090.08
3102.42
3114.72
3126.96
3139.11
3151.16
3163.09
3174.89
3186.53
3197.99
3209.27
3220.34
3231.19
3241.8
3252.15
3262.25
3272.05
3281.57
3290.77
3299.65
3308.2
3316.4
3324.25
3331.73
3338.83
3345.55
3351.87
3357.79
3363.3
3368.39
3373.06
3377.31
3381.12
3384.5
3387.43
3389.93
3391.98
3393.59
3394.75
3395.47
3395.74
3395.57
3394.97
3393.92
3392.44
3390.54
3388.21
3385.46
3382.3
3378.73
3374.77
3370.42
3365.69
3360.59
3355.13
3349.33
3343.18
3336.71
3329.93
3322.84
3315.47
3307.82
3299.92
3291.77
3283.4
3274.81
3266.03
3257.07
3247.94
3238.68
3229.28
3219.78
3210.18
3200.51
3190.79
3181.03
3171.26
3161.49
3151.75
3142.05
3132.4
3122.84
3113.38
3104.04
3094.84
3085.79
3076.92
3068.24
3059.78
3051.54
3043.54
3035.82
3028.36
3021.21
3014.36
3007.84
3001.65
2995.82
2990.35
2985.25
2980.54
2976.22
2972.31
2968.81
2965.74
2963.07
2960.87
2959.08
2957.75
2956.84
2956.41
2764.19
2764.82
2765.8
2767.44
2769.53
2772.17
2775.31
2778.97
2783.14
2787.8
2792.95
2798.57
2804.67
2811.22
2818.22
2825.64
2833.49
2841.74
2850.38
2859.4
2868.77
2878.48
2888.51
2898.85
2909.48
2920.38
2931.53
2942.91
2954.5
2966.28
2978.23
2990.34
3002.58
3014.93
3027.37
3039.88
3052.45
3065.04
3077.65
3090.25
3102.82
3115.34
3127.79
3140.16
3152.42
3164.56
3176.56
3188.4
3200.05
3211.52
3222.77
3233.8
3244.58
3255.1
3265.35
3275.31
3284.97
3294.31
3303.33
3312
3320.33
3328.28
3335.87
3343.07
3349.88
3356.28
3362.28
3367.86
3373.01
3377.74
3382.03
3385.88
3389.28
3392.24
3394.75
3396.81
3398.42
3399.58
3400.28
3400.53
3400.33
3399.68
3398.59
3397.06
3395.1
3392.7
3389.88
3386.64
3382.98
3378.93
3374.48
3369.64
3364.43
3358.85
3352.92
3346.64
3340.03
3333.11
3325.87
3318.35
3310.54
3302.48
3294.16
3285.62
3276.85
3267.89
3258.74
3249.43
3239.97
3230.38
3220.68
3210.88
3201.01
3191.08
3181.12
3171.14
3161.17
3151.21
3141.3
3131.45
3121.68
3112.01
3102.46
3093.06
3083.81
3074.74
3065.87
3057.21
3048.78
3040.61
3032.7
3025.08
3017.76
3010.76
3004.08
2997.75
2991.78
2986.19
2980.97
2976.15
2971.73
2967.73
2964.14
2961.01
2958.28
2956.03
2954.19
2952.83
2951.9
2951.46
2756.77
2757.43
2758.43
2760.11
2762.25
2764.96
2768.18
2771.94
2776.21
2780.99
2786.26
2792.03
2798.28
2805
2812.17
2819.78
2827.82
2836.28
2845.13
2854.36
2863.96
2873.91
2884.18
2894.77
2905.65
2916.81
2928.22
2939.86
2951.72
2963.77
2976
2988.38
3000.89
3013.51
3026.23
3039.02
3051.85
3064.72
3077.59
3090.46
3103.29
3116.07
3128.78
3141.4
3153.91
3166.29
3178.52
3190.59
3202.48
3214.16
3225.63
3236.86
3247.84
3258.56
3269
3279.14
3288.97
3298.48
3307.65
3316.47
3324.93
3333.02
3340.73
3348.05
3354.96
3361.46
3367.55
3373.21
3378.43
3383.22
3387.56
3391.46
3394.9
3397.89
3400.42
3402.48
3404.09
3405.24
3405.92
3406.14
3405.91
3405.22
3404.08
3402.48
3400.45
3397.97
3395.06
3391.73
3387.98
3383.81
3379.24
3374.28
3368.93
3363.22
3357.14
3350.7
3343.93
3336.84
3329.43
3321.73
3313.74
3305.48
3296.97
3288.22
3279.25
3270.07
3260.71
3251.18
3241.49
3231.67
3221.74
3211.7
3201.6
3191.43
3181.22
3171
3160.78
3150.58
3140.42
3130.33
3120.31
3110.4
3100.61
3090.97
3081.48
3072.18
3063.08
3054.19
3045.55
3037.16
3029.05
3021.23
3013.71
3006.52
2999.67
2993.17
2987.04
2981.29
2975.94
2970.99
2966.45
2962.34
2958.66
2955.44
2952.63
2950.32
2948.43
2947.04
2946.09
2945.64
2748.22
2748.89
2749.93
2751.65
2753.86
2756.64
2759.96
2763.82
2768.21
2773.13
2778.56
2784.49
2790.92
2797.82
2805.19
2813.02
2821.29
2829.98
2839.08
2848.56
2858.43
2868.64
2879.2
2890.07
2901.25
2912.7
2924.41
2936.36
2948.52
2960.89
2973.43
2986.12
2998.95
3011.89
3024.92
3038.02
3051.17
3064.35
3077.53
3090.7
3103.84
3116.92
3129.92
3142.83
3155.62
3168.28
3180.79
3193.13
3205.27
3217.21
3228.92
3240.39
3251.61
3262.55
3273.2
3283.55
3293.57
3303.27
3312.62
3321.61
3330.24
3338.48
3346.33
3353.78
3360.81
3367.43
3373.61
3379.37
3384.67
3389.53
3393.94
3397.88
3401.37
3404.38
3406.93
3409.01
3410.62
3411.75
3412.41
3412.61
3412.33
3411.59
3410.39
3408.72
3406.61
3404.04
3401.03
3397.59
3393.72
3389.43
3384.72
3379.62
3374.12
3368.24
3361.99
3355.38
3348.43
3341.14
3333.53
3325.62
3317.42
3308.94
3300.2
3291.22
3282.01
3272.59
3262.98
3253.19
3243.25
3233.16
3222.96
3212.66
3202.28
3191.83
3181.35
3170.84
3160.34
3149.86
3139.42
3129.04
3118.74
3108.55
3098.48
3088.56
3078.8
3069.23
3059.86
3050.72
3041.82
3033.18
3024.83
3016.78
3009.04
3001.63
2994.58
2987.88
2981.57
2975.65
2970.13
2965.03
2960.36
2956.12
2952.33
2949.01
2946.12
2943.74
2941.8
2940.36
2939.38
2938.91
2738.5
2739.19
2740.27
2742.03
2744.31
2747.18
2750.61
2754.59
2759.12
2764.19
2769.8
2775.92
2782.54
2789.67
2797.27
2805.34
2813.87
2822.82
2832.2
2841.98
2852.14
2862.67
2873.54
2884.74
2896.25
2908.03
2920.09
2932.38
2944.9
2957.62
2970.52
2983.57
2996.76
3010.06
3023.45
3036.9
3050.41
3063.94
3077.48
3090.99
3104.47
3117.89
3131.23
3144.46
3157.58
3170.56
3183.37
3196.01
3208.45
3220.68
3232.67
3244.41
3255.89
3267.08
3277.97
3288.55
3298.8
3308.71
3318.27
3327.45
3336.26
3344.67
3352.68
3360.28
3367.45
3374.19
3380.5
3386.35
3391.75
3396.69
3401.16
3405.17
3408.7
3411.75
3414.32
3416.41
3418.01
3419.13
3419.77
3419.93
3419.61
3418.81
3417.54
3415.8
3413.59
3410.92
3407.8
3404.24
3400.23
3395.8
3390.94
3385.67
3380
3373.94
3367.5
3360.69
3353.53
3346.02
3338.19
3330.04
3321.6
3312.87
3303.88
3294.63
3285.15
3275.46
3265.56
3255.48
3245.25
3234.86
3224.36
3213.75
3203.05
3192.3
3181.5
3170.67
3159.85
3149.04
3138.28
3127.58
3116.96
3106.45
3096.06
3085.82
3075.75
3065.88
3056.21
3046.77
3037.58
3028.67
3020.04
3011.72
3003.73
2996.08
2988.79
2981.87
2975.35
2969.23
2963.53
2958.26
2953.43
2949.05
2945.13
2941.7
2938.72
2936.25
2934.24
2932.76
2931.74
2931.26
2727.56
2728.28
2729.4
2731.22
2733.58
2736.55
2740.1
2744.22
2748.91
2754.15
2759.95
2766.28
2773.14
2780.51
2788.37
2796.72
2805.53
2814.79
2824.48
2834.59
2845.09
2855.97
2867.2
2878.76
2890.64
2902.81
2915.25
2927.94
2940.85
2953.96
2967.26
2980.72
2994.31
3008.01
3021.8
3035.66
3049.57
3063.5
3077.42
3091.33
3105.19
3118.99
3132.7
3146.31
3159.79
3173.12
3186.28
3199.25
3212.03
3224.57
3236.88
3248.92
3260.69
3272.16
3283.33
3294.17
3304.67
3314.82
3324.6
3334
3343.01
3351.62
3359.8
3367.57
3374.9
3381.78
3388.21
3394.18
3399.68
3404.71
3409.26
3413.33
3416.91
3420
3422.6
3424.7
3426.3
3427.41
3428.02
3428.14
3427.77
3426.9
3425.55
3423.72
3421.41
3418.63
3415.39
3411.68
3407.53
3402.93
3397.91
3392.46
3386.59
3380.33
3373.67
3366.64
3359.25
3351.5
3343.41
3335.01
3326.29
3317.29
3308
3298.46
3288.68
3278.68
3268.46
3258.06
3247.5
3236.78
3225.94
3214.98
3203.94
3192.83
3181.67
3170.49
3159.3
3148.14
3137.01
3125.95
3114.97
3104.1
3093.35
3082.76
3072.34
3062.12
3052.11
3042.34
3032.83
3023.59
3014.66
3006.04
2997.76
2989.83
2982.28
2975.12
2968.35
2962.01
2956.1
2950.64
2945.63
2941.1
2937.04
2933.47
2930.38
2927.83
2925.75
2924.21
2923.15
2922.66
2715.38
2716.12
2717.28
2719.18
2721.62
2724.7
2728.38
2732.66
2737.53
2742.97
2748.98
2755.55
2762.66
2770.3
2778.46
2787.11
2796.25
2805.85
2815.9
2826.37
2837.25
2848.51
2860.14
2872.12
2884.41
2897.01
2909.88
2923
2936.35
2949.91
2963.66
2977.56
2991.6
3005.75
3019.99
3034.3
3048.65
3063.02
3077.38
3091.72
3106.01
3120.23
3134.36
3148.37
3162.25
3175.97
3189.52
3202.87
3216.01
3228.91
3241.56
3253.94
3266.04
3277.82
3289.29
3300.42
3311.2
3321.61
3331.64
3341.28
3350.52
3359.33
3367.72
3375.67
3383.17
3390.21
3396.78
3402.88
3408.5
3413.63
3418.26
3422.4
3426.03
3429.17
3431.79
3433.9
3435.5
3436.6
3437.18
3437.25
3436.82
3435.89
3434.45
3432.52
3430.1
3427.19
3423.81
3419.95
3415.63
3410.86
3405.64
3399.99
3393.91
3387.43
3380.53
3373.26
3365.6
3357.58
3349.22
3340.52
3331.51
3322.19
3312.6
3302.73
3292.61
3282.26
3271.7
3260.94
3250.01
3238.92
3227.7
3216.36
3204.93
3193.43
3181.88
3170.3
3158.71
3147.14
3135.61
3124.15
3112.76
3101.49
3090.35
3079.36
3068.55
3057.94
3047.55
3037.41
3027.53
3017.95
3008.67
2999.72
2991.11
2982.88
2975.03
2967.58
2960.56
2953.97
2947.83
2942.15
2936.94
2932.23
2928.01
2924.31
2921.09
2918.44
2916.28
2914.68
2913.58
2913.06
2701.89
2702.66
2703.88
2705.85
2708.39
2711.6
2715.42
2719.87
2724.93
2730.6
2736.85
2743.68
2751.08
2759.02
2767.5
2776.5
2786
2795.97
2806.41
2817.29
2828.59
2840.29
2852.36
2864.79
2877.54
2890.61
2903.96
2917.56
2931.4
2945.45
2959.69
2974.09
2988.63
3003.28
3018.01
3032.81
3047.65
3062.51
3077.36
3092.17
3106.93
3121.62
3136.21
3150.67
3164.99
3179.15
3193.12
3206.88
3220.42
3233.72
3246.75
3259.5
3271.95
3284.08
3295.87
3307.32
3318.41
3329.11
3339.42
3349.32
3358.8
3367.85
3376.45
3384.61
3392.29
3399.5
3406.23
3412.47
3418.21
3423.45
3428.18
3432.39
3436.09
3439.27
3441.92
3444.05
3445.65
3446.72
3447.27
3447.3
3446.8
3445.79
3444.26
3442.22
3439.67
3436.63
3433.09
3429.07
3424.57
3419.6
3414.17
3408.3
3401.99
3395.25
3388.1
3380.55
3372.61
3364.3
3355.63
3346.61
3337.27
3327.62
3317.67
3307.44
3296.95
3286.23
3275.28
3264.13
3252.79
3241.3
3229.66
3217.9
3206.04
3194.11
3182.12
3170.1
3158.07
3146.06
3134.08
3122.17
3110.34
3098.62
3087.04
3075.62
3064.37
3053.33
3042.53
3031.97
3021.69
3011.71
3002.04
2992.72
2983.76
2975.19
2967.01
2959.25
2951.93
2945.06
2938.66
2932.75
2927.33
2922.41
2918.01
2914.15
2910.81
2908.04
2905.79
2904.12
2902.97
2902.43
2687.06
2687.86
2689.13
2691.18
2693.84
2697.17
2701.17
2705.8
2711.08
2716.99
2723.51
2730.63
2738.34
2746.62
2755.46
2764.84
2774.73
2785.13
2796
2807.32
2819.09
2831.26
2843.82
2856.75
2870.02
2883.6
2897.47
2911.61
2925.99
2940.58
2955.36
2970.31
2985.39
3000.58
3015.86
3031.2
3046.58
3061.97
3077.35
3092.69
3107.97
3123.16
3138.25
3153.21
3168.01
3182.64
3197.08
3211.29
3225.27
3239
3252.45
3265.6
3278.43
3290.94
3303.1
3314.9
3326.31
3337.34
3347.95
3358.13
3367.89
3377.19
3386.03
3394.4
3402.29
3409.69
3416.59
3422.98
3428.86
3434.22
3439.05
3443.34
3447.11
3450.33
3453.02
3455.16
3456.76
3457.81
3458.33
3458.3
3457.73
3456.63
3455
3452.84
3450.15
3446.96
3443.25
3439.05
3434.35
3429.17
3423.52
3417.4
3410.83
3403.83
3396.39
3388.54
3380.29
3371.66
3362.65
3353.29
3343.59
3333.56
3323.23
3312.62
3301.73
3290.59
3279.22
3267.64
3255.86
3243.92
3231.83
3219.61
3207.28
3194.88
3182.41
3169.91
3157.39
3144.89
3132.42
3120.02
3107.7
3095.49
3083.42
3071.51
3059.79
3048.28
3037.01
3026
3015.27
3004.85
2994.77
2985.04
2975.68
2966.73
2958.19
2950.09
2942.44
2935.27
2928.58
2922.4
2916.74
2911.61
2907.01
2902.98
2899.48
2896.6
2894.24
2892.5
2891.3
2890.73
2670.81
2671.65
2672.98
2675.12
2677.9
2681.38
2685.56
2690.4
2695.92
2702.09
2708.91
2716.35
2724.41
2733.06
2742.29
2752.08
2762.42
2773.27
2784.61
2796.44
2808.71
2821.41
2834.51
2847.98
2861.81
2875.96
2890.41
2905.13
2920.1
2935.28
2950.66
2966.2
2981.88
2997.67
3013.54
3029.48
3045.44
3061.42
3077.37
3093.28
3109.12
3124.88
3140.51
3156
3171.34
3186.48
3201.42
3216.13
3230.59
3244.78
3258.68
3272.27
3285.53
3298.45
3311
3323.17
3334.95
3346.32
3357.25
3367.75
3377.8
3387.38
3396.48
3405.09
3413.2
3420.8
3427.88
3434.44
3440.47
3445.95
3450.89
3455.28
3459.11
3462.39
3465.11
3467.27
3468.86
3469.9
3470.37
3470.28
3469.64
3468.44
3466.7
3464.41
3461.58
3458.22
3454.33
3449.92
3445.01
3439.6
3433.7
3427.32
3420.47
3413.17
3405.43
3397.26
3388.67
3379.69
3370.32
3360.58
3350.49
3340.06
3329.32
3318.27
3306.95
3295.36
3283.53
3271.48
3259.23
3246.8
3234.22
3221.49
3208.66
3195.73
3182.74
3169.72
3156.67
3143.63
3130.63
3117.69
3104.83
3092.09
3079.49
3067.05
3054.8
3042.78
3030.99
3019.48
3008.26
2997.36
2986.81
2976.63
2966.84
2957.47
2948.53
2940.05
2932.05
2924.54
2917.54
2911.07
2905.14
2899.77
2894.96
2890.73
2887.08
2884.06
2881.58
2879.77
2878.51
2877.91
2653.09
2653.96
2655.37
2657.6
2660.51
2664.16
2668.53
2673.61
2679.39
2685.85
2692.99
2700.79
2709.22
2718.28
2727.95
2738.2
2749.01
2760.36
2772.23
2784.59
2797.42
2810.69
2824.38
2838.46
2852.9
2867.67
2882.75
2898.11
2913.72
2929.55
2945.57
2961.76
2978.09
2994.53
3011.05
3027.63
3044.24
3060.84
3077.43
3093.96
3110.41
3126.77
3142.99
3159.07
3174.97
3190.68
3206.16
3221.41
3236.39
3251.08
3265.47
3279.54
3293.26
3306.61
3319.59
3332.17
3344.34
3356.08
3367.37
3378.21
3388.57
3398.44
3407.82
3416.69
3425.04
3432.86
3440.14
3446.88
3453.06
3458.69
3463.74
3468.23
3472.14
3475.48
3478.23
3480.41
3482
3483.01
3483.44
3483.28
3482.56
3481.26
3479.39
3476.96
3473.97
3470.43
3466.34
3461.72
3456.58
3450.92
3444.75
3438.09
3430.94
3423.32
3415.25
3406.73
3397.78
3388.41
3378.65
3368.5
3357.99
3347.13
3335.94
3324.43
3312.64
3300.57
3288.24
3275.68
3262.92
3249.96
3236.84
3223.57
3210.18
3196.7
3183.14
3169.54
3155.91
3142.3
3128.71
3115.18
3101.74
3088.42
3075.23
3062.21
3049.39
3036.8
3024.45
3012.39
3000.63
2989.21
2978.15
2967.47
2957.21
2947.38
2938
2929.11
2920.71
2912.83
2905.49
2898.7
2892.48
2886.84
2881.8
2877.37
2873.53
2870.37
2867.77
2865.87
2864.54
2863.92
2633.82
2634.74
2636.22
2638.55
2641.61
2645.44
2650.03
2655.36
2661.42
2668.21
2675.7
2683.88
2692.73
2702.23
2712.37
2723.12
2734.46
2746.36
2758.8
2771.75
2785.19
2799.09
2813.42
2828.15
2843.26
2858.71
2874.47
2890.52
2906.83
2923.36
2940.09
2956.99
2974.03
2991.17
3008.39
3025.67
3042.97
3060.26
3077.52
3094.72
3111.84
3128.85
3145.72
3162.42
3178.94
3195.25
3211.33
3227.15
3242.69
3257.93
3272.84
3287.42
3301.64
3315.47
3328.91
3341.93
3354.52
3366.66
3378.33
3389.52
3400.23
3410.42
3420.1
3429.25
3437.85
3445.91
3453.41
3460.34
3466.69
3472.46
3477.64
3482.24
3486.23
3489.63
3492.42
3494.61
3496.19
3497.18
3497.56
3497.34
3496.52
3495.11
3493.11
3490.52
3487.36
3483.63
3479.33
3474.48
3469.08
3463.15
3456.69
3449.72
3442.25
3434.29
3425.86
3416.96
3407.62
3397.85
3387.67
3377.08
3366.12
3354.79
3343.11
3331.11
3318.81
3306.22
3293.36
3280.26
3266.93
3253.41
3239.7
3225.85
3211.86
3197.77
3183.6
3169.38
3155.13
3140.88
3126.66
3112.5
3098.42
3084.46
3070.64
3056.99
3043.54
3030.33
3017.37
3004.71
2992.37
2980.37
2968.75
2957.53
2946.75
2936.41
2926.56
2917.21
2908.38
2900.1
2892.38
2885.25
2878.71
2872.79
2867.49
2862.83
2858.8
2855.48
2852.75
2850.75
2849.35
2848.7
2612.92
2613.89
2615.45
2617.91
2621.12
2625.14
2629.97
2635.57
2641.95
2649.08
2656.96
2665.56
2674.86
2684.85
2695.51
2706.8
2718.71
2731.21
2744.27
2757.87
2771.97
2786.56
2801.58
2817.03
2832.86
2849.05
2865.56
2882.36
2899.43
2916.72
2934.22
2951.88
2969.68
2987.58
3005.56
3023.59
3041.64
3059.67
3077.67
3095.6
3113.43
3131.14
3148.7
3166.08
3183.26
3200.22
3216.93
3233.37
3249.52
3265.34
3280.83
3295.95
3310.7
3325.05
3338.98
3352.47
3365.51
3378.08
3390.16
3401.74
3412.81
3423.35
3433.35
3442.79
3451.68
3459.98
3467.71
3474.84
3481.38
3487.31
3492.63
3497.33
3501.41
3504.87
3507.7
3509.91
3511.49
3512.44
3512.77
3512.48
3511.56
3510.03
3507.88
3505.13
3501.79
3497.84
3493.32
3488.22
3482.55
3476.33
3469.56
3462.26
3454.45
3446.12
3437.3
3428
3418.24
3408.03
3397.39
3386.34
3374.89
3363.06
3350.87
3338.34
3325.49
3312.34
3298.91
3285.22
3271.29
3257.16
3242.83
3228.34
3213.72
3198.97
3184.14
3169.25
3154.33
3139.4
3124.49
3109.64
3094.87
3080.22
3065.71
3051.37
3037.25
3023.36
3009.74
2996.42
2983.43
2970.81
2958.58
2946.77
2935.41
2924.53
2914.16
2904.31
2895.02
2886.3
2878.17
2870.66
2863.78
2857.54
2851.96
2847.06
2842.82
2839.32
2836.45
2834.34
2832.88
2832.18
2590.32
2591.34
2592.99
2595.57
2598.95
2603.19
2608.27
2614.17
2620.89
2628.4
2636.7
2645.76
2655.56
2666.08
2677.3
2689.19
2701.72
2714.87
2728.61
2742.91
2757.74
2773.06
2788.85
2805.06
2821.68
2838.67
2855.99
2873.6
2891.49
2909.61
2927.93
2946.42
2965.04
2983.77
3002.57
3021.41
3040.26
3059.09
3077.88
3096.58
3115.18
3133.65
3151.95
3170.06
3187.96
3205.61
3223.01
3240.11
3256.9
3273.35
3289.45
3305.16
3320.48
3335.37
3349.83
3363.82
3377.35
3390.38
3402.9
3414.89
3426.35
3437.26
3447.6
3457.36
3466.54
3475.12
3483.09
3490.44
3497.17
3503.27
3508.73
3513.55
3517.73
3521.25
3524.13
3526.35
3527.93
3528.85
3529.12
3528.74
3527.72
3526.05
3523.76
3520.83
3517.28
3513.12
3508.35
3502.98
3497.02
3490.49
3483.39
3475.74
3467.55
3458.83
3449.6
3439.87
3429.66
3418.99
3407.86
3396.31
3384.34
3371.97
3359.23
3346.13
3332.7
3318.95
3304.91
3290.59
3276.03
3261.24
3246.25
3231.08
3215.76
3200.32
3184.78
3169.17
3153.51
3137.85
3122.21
3106.61
3091.09
3075.69
3060.43
3045.35
3030.48
3015.86
3001.52
2987.49
2973.8
2960.5
2947.6
2935.15
2923.17
2911.69
2900.75
2890.36
2880.56
2871.36
2862.79
2854.87
2847.61
2841.03
2835.15
2829.98
2825.52
2821.83
2818.8
2816.59
2815.04
2814.31
2565.91
2566.99
2568.74
2571.46
2575.02
2579.49
2584.85
2591.07
2598.16
2606.09
2614.84
2624.4
2634.74
2645.84
2657.67
2670.21
2683.42
2697.28
2711.76
2726.82
2742.43
2758.55
2775.16
2792.22
2809.69
2827.54
2845.73
2864.23
2883
2902.01
2921.22
2940.6
2960.11
2979.72
2999.4
3019.12
3038.84
3058.53
3078.16
3097.7
3117.12
3136.39
3155.49
3174.38
3193.04
3211.45
3229.57
3247.38
3264.86
3281.99
3298.73
3315.08
3331
3346.48
3361.5
3376.03
3390.07
3403.59
3416.58
3429.02
3440.89
3452.19
3462.9
3473
3482.49
3491.36
3499.58
3507.17
3514.11
3520.38
3526
3530.94
3535.22
3538.82
3541.74
3543.98
3545.54
3546.43
3546.63
3546.17
3545.03
3543.23
3540.77
3537.65
3533.89
3529.48
3524.45
3518.8
3512.53
3505.67
3498.21
3490.19
3481.6
3472.46
3462.79
3452.61
3441.92
3430.74
3419.1
3407.01
3394.49
3381.55
3368.22
3354.52
3340.47
3326.08
3311.38
3296.4
3281.15
3265.66
3249.96
3234.07
3218.01
3201.82
3185.52
3169.13
3152.7
3136.25
3119.8
3103.41
3087.08
3070.87
3054.81
3038.92
3023.25
3007.83
2992.7
2977.89
2963.45
2949.4
2935.78
2922.62
2909.97
2897.84
2886.28
2875.3
2864.94
2855.23
2846.17
2837.81
2830.14
2823.2
2816.99
2811.54
2806.83
2802.94
2799.74
2797.41
2795.78
2795
2539.6
2540.74
2542.6
2545.46
2549.23
2553.95
2559.6
2566.18
2573.67
2582.05
2591.3
2601.4
2612.33
2624.05
2636.55
2649.79
2663.74
2678.37
2693.65
2709.54
2726
2743
2760.5
2778.47
2796.86
2815.64
2834.78
2854.23
2873.95
2893.92
2914.09
2934.42
2954.89
2975.45
2996.08
3016.73
3037.38
3057.99
3078.52
3098.96
3119.26
3139.4
3159.34
3179.07
3198.55
3217.75
3236.65
3255.22
3273.43
3291.27
3308.71
3325.73
3342.3
3358.4
3374.02
3389.13
3403.72
3417.76
3431.25
3444.16
3456.48
3468.19
3479.28
3489.75
3499.57
3508.74
3517.25
3525.08
3532.23
3538.7
3544.48
3549.55
3553.93
3557.6
3560.57
3562.83
3564.38
3565.23
3565.37
3564.81
3563.55
3561.6
3558.96
3555.64
3551.64
3546.98
3541.67
3535.71
3529.11
3521.89
3514.06
3505.64
3496.62
3487.04
3476.91
3466.23
3455.03
3443.33
3431.14
3418.48
3405.37
3391.83
3377.87
3363.53
3348.81
3333.75
3318.36
3302.67
3286.69
3270.46
3254
3237.33
3220.49
3203.5
3186.38
3169.17
3151.9
3134.6
3117.3
3100.04
3082.85
3065.76
3048.82
3032.06
3015.52
2999.24
2983.26
2967.61
2952.33
2937.47
2923.06
2909.14
2895.75
2882.92
2870.68
2859.07
2848.11
2837.83
2828.25
2819.4
2811.3
2803.97
2797.41
2791.65
2786.68
2782.56
2779.18
2776.73
2775.01
2774.18
2511.28
2512.49
2514.45
2517.48
2521.46
2526.45
2532.43
2539.39
2547.32
2556.19
2565.98
2576.67
2588.23
2600.64
2613.86
2627.87
2642.62
2658.09
2674.23
2691.02
2708.4
2726.35
2744.82
2763.76
2783.15
2802.95
2823.1
2843.57
2864.32
2885.32
2906.52
2927.88
2949.37
2970.96
2992.59
3014.25
3035.89
3057.48
3078.98
3100.37
3121.62
3142.68
3163.53
3184.15
3204.49
3224.54
3244.27
3263.65
3282.65
3301.25
3319.43
3337.16
3354.42
3371.18
3387.44
3403.16
3418.33
3432.93
3446.94
3460.35
3473.14
3485.3
3496.8
3507.65
3517.83
3527.32
3536.12
3544.21
3551.6
3558.27
3564.21
3569.43
3573.91
3577.66
3580.68
3582.95
3584.49
3585.3
3585.36
3584.7
3583.31
3581.2
3578.37
3574.83
3570.59
3565.66
3560.04
3553.76
3546.81
3539.21
3530.98
3522.13
3512.66
3502.61
3491.98
3480.78
3469.04
3456.78
3444.01
3430.74
3417.01
3402.83
3388.21
3373.19
3357.77
3341.99
3325.86
3309.42
3292.67
3275.65
3258.39
3240.9
3223.22
3205.37
3187.39
3169.29
3151.13
3132.92
3114.7
3096.51
3078.39
3060.36
3042.48
3024.78
3007.29
2990.08
2973.16
2956.6
2940.43
2924.68
2909.41
2894.66
2880.47
2866.86
2853.89
2841.59
2829.97
2819.09
2808.95
2799.58
2791.01
2783.25
2776.31
2770.22
2764.98
2760.62
2757.06
2754.46
2752.65
2751.78
2480.82
2482.1
2484.19
2487.39
2491.61
2496.88
2503.22
2510.6
2519
2528.4
2538.78
2550.11
2562.36
2575.51
2589.52
2604.36
2619.98
2636.36
2653.44
2671.2
2689.58
2708.55
2728.06
2748.07
2768.54
2789.42
2810.66
2832.24
2854.1
2876.2
2898.5
2920.97
2943.56
2966.23
2988.95
3011.68
3034.38
3057.02
3079.56
3101.97
3124.21
3146.26
3168.08
3189.64
3210.91
3231.86
3252.47
3272.7
3292.54
3311.95
3330.91
3349.39
3367.39
3384.86
3401.79
3418.16
3433.95
3449.14
3463.71
3477.65
3490.94
3503.56
3515.5
3526.76
3537.31
3547.14
3556.25
3564.62
3572.25
3579.13
3585.25
3590.62
3595.22
3599.05
3602.11
3604.4
3605.93
3606.68
3606.67
3605.9
3604.36
3602.08
3599.05
3595.28
3590.78
3585.55
3579.62
3572.99
3565.66
3557.67
3549.01
3539.7
3529.76
3519.2
3508.04
3496.3
3483.99
3471.13
3457.74
3443.84
3429.45
3414.58
3399.27
3383.52
3367.37
3350.83
3333.93
3316.68
3299.12
3281.27
3263.15
3244.79
3226.22
3207.47
3188.56
3169.53
3150.4
3131.22
3112.02
3092.84
3073.71
3054.68
3035.78
3017.06
2998.55
2980.32
2962.4
2944.84
2927.69
2910.99
2894.78
2879.12
2864.05
2849.61
2835.84
2822.78
2810.47
2798.92
2788.17
2778.25
2769.17
2760.95
2753.62
2747.18
2741.63
2737.02
2733.26
2730.52
2728.62
2727.69
2448.09
2449.45
2451.67
2455.06
2459.53
2465.12
2471.84
2479.66
2488.58
2498.56
2509.57
2521.6
2534.61
2548.56
2563.43
2579.17
2595.74
2613.1
2631.21
2650.02
2669.49
2689.56
2710.2
2731.35
2752.98
2775.03
2797.45
2820.21
2843.26
2866.55
2890.04
2913.68
2937.45
2961.29
2985.16
3009.04
3032.87
3056.62
3080.26
3103.76
3127.07
3150.16
3173
3195.57
3217.82
3239.73
3261.28
3282.42
3303.14
3323.41
3343.2
3362.49
3381.25
3399.47
3417.12
3434.17
3450.62
3466.43
3481.59
3496.09
3509.91
3523.03
3535.44
3547.12
3558.06
3568.25
3577.69
3586.35
3594.24
3601.34
3607.66
3613.17
3617.89
3621.81
3624.92
3627.23
3628.74
3629.44
3629.34
3628.45
3626.76
3624.29
3621.05
3617.03
3612.25
3606.72
3600.44
3593.44
3585.72
3577.29
3568.18
3558.39
3547.94
3536.85
3525.14
3512.81
3499.89
3486.41
3472.37
3457.79
3442.7
3427.12
3411.07
3394.57
3377.64
3360.3
3342.57
3324.49
3306.07
3287.33
3268.31
3249.04
3229.52
3209.81
3189.92
3169.89
3149.75
3129.54
3109.29
3089.04
3068.83
3048.7
3028.71
3008.89
2989.28
2969.96
2950.95
2932.31
2914.1
2896.34
2879.11
2862.45
2846.42
2831.08
2816.45
2802.57
2789.49
2777.23
2765.83
2755.3
2745.68
2736.98
2729.22
2722.41
2716.55
2711.67
2707.72
2704.81
2702.81
2701.84
2412.95
2414.4
2416.77
2420.36
2425.09
2431.02
2438.15
2446.46
2455.94
2466.54
2478.25
2491.04
2504.86
2519.7
2535.49
2552.21
2569.81
2588.24
2607.46
2627.41
2648.05
2669.32
2691.18
2713.57
2736.44
2759.75
2783.45
2807.48
2831.8
2856.36
2881.11
2906.02
2931.04
2956.12
2981.23
3006.32
3031.36
3056.3
3081.12
3105.76
3130.2
3154.4
3178.34
3201.97
3225.26
3248.19
3270.72
3292.83
3314.49
3335.66
3356.33
3376.47
3396.06
3415.06
3433.47
3451.25
3468.38
3484.86
3500.65
3515.74
3530.11
3543.75
3556.65
3568.78
3580.14
3590.72
3600.5
3609.47
3617.63
3624.97
3631.48
3637.16
3642
3646
3649.17
3651.49
3652.97
3653.62
3653.43
3652.41
3650.56
3647.9
3644.42
3640.13
3635.05
3629.19
3622.56
3615.16
3607.02
3598.14
3588.54
3578.25
3567.26
3555.61
3543.3