/*--------------------------------*- C++ -*----------------------------------*\
| =========                 |                                                 |
| \\      /  F ield         | OpenFOAM: The Open Source CFD Toolbox           |
|  \\    /   O peration     | Version:  v2006                                 |
|   \\  /    A nd           | Website:  www.openfoam.com                      |
|    \\/     M anipulation  |                                                 |
\*---------------------------------------------------------------------------*/
FoamFile
{
    version     2.0;
    format      ascii;
    class       volVectorField;
    location    "5.5";
    object      U;
}
// * * * * * * * * * * * * * * * * * * * * * * * * * * * * * * * * * * * * * //

dimensions      [0 1 -1 0 0 0 0];


internalField   nonuniform List<vector> 
50000
(
(0.00281701 -0.003748 0)
(0.0065326 -0.00540545 0)
(0.0145567 -0.00489644 0)
(0.0185907 -0.00479837 0)
(0.0249591 -0.00468392 0)
(0.0298789 -0.00468879 0)
(0.0355098 -0.00461612 0)
(0.040781 -0.0045764 0)
(0.0461013 -0.00451037 0)
(0.0513659 -0.00444245 0)
(0.0565544 -0.00437229 0)
(0.0616957 -0.00429464 0)
(0.066766 -0.00421241 0)
(0.0717618 -0.0041236 0)
(0.076681 -0.00402719 0)
(0.0815149 -0.00392362 0)
(0.0862569 -0.00381301 0)
(0.0909014 -0.00369587 0)
(0.0954421 -0.00357269 0)
(0.0998733 -0.00344397 0)
(0.10419 -0.00331069 0)
(0.108385 -0.00317362 0)
(0.112454 -0.00303355 0)
(0.116393 -0.00289097 0)
(0.120197 -0.00274663 0)
(0.123863 -0.00260076 0)
(0.127386 -0.00245355 0)
(0.130765 -0.00230547 0)
(0.133995 -0.00215709 0)
(0.137074 -0.00200856 0)
(0.140001 -0.00186025 0)
(0.142774 -0.00171291 0)
(0.145392 -0.00156706 0)
(0.147855 -0.00142331 0)
(0.150163 -0.00128202 0)
(0.152316 -0.00114355 0)
(0.154316 -0.00100808 0)
(0.156165 -0.000875609 0)
(0.157862 -0.000744972 0)
(0.159409 -0.000614091 0)
(0.160804 -0.000479994 0)
(0.162043 -0.000338111 0)
(0.163122 -0.000183073 0)
(0.164033 -1.37604e-05 0)
(0.164771 0.000161616 0)
(0.165336 0.000325272 0)
(0.165741 0.000455133 0)
(0.166011 0.000535601 0)
(0.166173 0.000564909 0)
(0.166254 0.000556563 0)
(0.166262 0.000532853 0)
(0.166192 0.000515998 0)
(0.166035 0.000514183 0)
(0.165784 0.000522435 0)
(0.165435 0.000537957 0)
(0.164991 0.000559352 0)
(0.164452 0.000584631 0)
(0.163819 0.000612859 0)
(0.163094 0.000643225 0)
(0.162277 0.000675174 0)
(0.16137 0.000708604 0)
(0.160376 0.000743311 0)
(0.159296 0.000779453 0)
(0.15813 0.00081703 0)
(0.156882 0.000855766 0)
(0.155553 0.00089576 0)
(0.154145 0.000937239 0)
(0.152659 0.00098005 0)
(0.151097 0.00102444 0)
(0.149461 0.00107036 0)
(0.147753 0.00111688 0)
(0.145974 0.00116385 0)
(0.144126 0.0012114 0)
(0.14221 0.00125936 0)
(0.140229 0.0013083 0)
(0.138184 0.0013593 0)
(0.136074 0.00141365 0)
(0.133901 0.00147293 0)
(0.131663 0.00153854 0)
(0.129358 0.00161131 0)
(0.126985 0.00169137 0)
(0.124542 0.0017781 0)
(0.122028 0.00187085 0)
(0.119442 0.00196854 0)
(0.116782 0.00207081 0)
(0.114049 0.00217767 0)
(0.111241 0.00228872 0)
(0.10836 0.00240409 0)
(0.105403 0.00252278 0)
(0.102372 0.002645 0)
(0.0992656 0.00277088 0)
(0.0960837 0.00290154 0)
(0.0928278 0.00303496 0)
(0.0894955 0.00317233 0)
(0.0860874 0.00331459 0)
(0.0826032 0.0034665 0)
(0.0790391 0.00362761 0)
(0.0753928 0.00379437 0)
(0.0716678 0.00394331 0)
(0.0678831 0.0040462 0)
(0.0640783 0.00407881 0)
(0.0602957 0.00404582 0)
(0.0565729 0.00396164 0)
(0.0529279 0.00385081 0)
(0.0493752 0.00372643 0)
(0.045928 0.00359678 0)
(0.0425839 0.00346257 0)
(0.039345 0.00332569 0)
(0.036218 0.0031844 0)
(0.033205 0.00303595 0)
(0.0303121 0.00287914 0)
(0.0275452 0.00271138 0)
(0.0249091 0.00253062 0)
(0.0224109 0.00233478 0)
(0.0200574 0.0021296 0)
(0.0178521 0.00191135 0)
(0.0157977 0.00168728 0)
(0.0138964 0.00146137 0)
(0.012146 0.00123906 0)
(0.0105402 0.00102463 0)
(0.00907275 0.0008213 0)
(0.00773573 0.000631938 0)
(0.00651875 0.000455568 0)
(0.00541587 0.000289121 0)
(0.00442008 0.000131602 0)
(0.00352442 -1.72727e-05 0)
(0.00272334 -0.000159347 0)
(0.00200938 -0.000291062 0)
(0.00137746 -0.000414331 0)
(0.000822692 -0.000529583 0)
(0.000340651 -0.00063985 0)
(-7.40024e-05 -0.000741059 0)
(-0.000424494 -0.000836533 0)
(-0.000715444 -0.00092518 0)
(-0.000951884 -0.00100582 0)
(-0.00113637 -0.00107897 0)
(-0.00127511 -0.00114553 0)
(-0.00137605 -0.00120617 0)
(-0.00143006 -0.00125824 0)
(-0.00144596 -0.00132947 0)
(-0.00148123 -0.00134888 0)
(-0.00131371 -0.00146531 0)
(-0.00146414 -0.00145584 0)
(-0.000950307 -0.0016013 0)
(-0.00138124 -0.00157032 0)
(-0.000383705 -0.00177228 0)
(-0.00118842 -0.00186627 0)
(0.00046286 -0.00193219 0)
(-0.00044962 -0.00134886 0)
(0.0011724 -0.00104964 0)
(0.00320934 -0.00893032 0)
(0.00476493 -0.0117774 0)
(0.012211 -0.0108606 0)
(0.0146211 -0.0105448 0)
(0.0202026 -0.0103688 0)
(0.0237154 -0.0104005 0)
(0.0284524 -0.0103014 0)
(0.0325279 -0.0102526 0)
(0.0368772 -0.0101637 0)
(0.0411072 -0.0100723 0)
(0.0453217 -0.00997537 0)
(0.0495229 -0.00986563 0)
(0.0536805 -0.00974693 0)
(0.0578074 -0.00961886 0)
(0.0619009 -0.00947994 0)
(0.0659536 -0.0093312 0)
(0.0699638 -0.00917166 0)
(0.0739289 -0.00900115 0)
(0.0778458 -0.00882064 0)
(0.0817111 -0.00862948 0)
(0.0855214 -0.00842771 0)
(0.0892728 -0.0082169 0)
(0.0929622 -0.00799725 0)
(0.0965856 -0.00776833 0)
(0.100139 -0.00753083 0)
(0.10362 -0.00728623 0)
(0.107023 -0.0070344 0)
(0.110344 -0.00677537 0)
(0.113582 -0.00651012 0)
(0.116734 -0.0062396 0)
(0.119795 -0.00596457 0)
(0.122763 -0.00568573 0)
(0.125635 -0.00540429 0)
(0.128408 -0.00512134 0)
(0.131079 -0.00483765 0)
(0.133645 -0.0045543 0)
(0.136102 -0.00427144 0)
(0.138449 -0.00398915 0)
(0.140686 -0.0037079 0)
(0.142812 -0.00342719 0)
(0.144827 -0.00314545 0)
(0.146735 -0.00286079 0)
(0.148544 -0.00257109 0)
(0.15026 -0.00227611 0)
(0.151889 -0.0019788 0)
(0.15343 -0.00168572 0)
(0.15487 -0.00140672 0)
(0.156185 -0.0011491 0)
(0.157349 -0.0009127 0)
(0.158339 -0.000689787 0)
(0.159148 -0.000470214 0)
(0.159781 -0.000244739 0)
(0.160247 -9.99265e-06 0)
(0.160557 0.000235579 0)
(0.160725 0.000482691 0)
(0.160749 0.000723961 0)
(0.160626 0.000959238 0)
(0.16036 0.00118889 0)
(0.159951 0.00141292 0)
(0.159403 0.00163176 0)
(0.15872 0.00184557 0)
(0.157905 0.00205406 0)
(0.156962 0.00225709 0)
(0.155893 0.00245495 0)
(0.154702 0.00264768 0)
(0.153394 0.00283517 0)
(0.151974 0.00301743 0)
(0.150444 0.00319446 0)
(0.14881 0.00336607 0)
(0.147077 0.00353242 0)
(0.145247 0.00369318 0)
(0.143329 0.0038478 0)
(0.141325 0.00399643 0)
(0.139241 0.00413911 0)
(0.137084 0.00427585 0)
(0.134859 0.00440709 0)
(0.132572 0.0045335 0)
(0.130232 0.00465587 0)
(0.127844 0.00477503 0)
(0.125418 0.00489149 0)
(0.122959 0.0050054 0)
(0.120475 0.00511677 0)
(0.117971 0.00522539 0)
(0.115454 0.00533102 0)
(0.112928 0.00543374 0)
(0.1104 0.00553358 0)
(0.107874 0.00562984 0)
(0.105354 0.00572313 0)
(0.102847 0.00581334 0)
(0.100359 0.00590008 0)
(0.0978949 0.00598329 0)
(0.0954592 0.00606364 0)
(0.093057 0.00613976 0)
(0.0906943 0.00621192 0)
(0.0883792 0.00628142 0)
(0.0861186 0.00634672 0)
(0.0839234 0.00641025 0)
(0.0818086 0.00646799 0)
(0.0797828 0.00650753 0)
(0.0778478 0.00651304 0)
(0.0760015 0.00647217 0)
(0.0742317 0.00638389 0)
(0.0725258 0.00625589 0)
(0.0708768 0.00610717 0)
(0.0692801 0.00594839 0)
(0.0677387 0.00578078 0)
(0.0662435 0.00560598 0)
(0.0647941 0.00542699 0)
(0.0633923 0.00524701 0)
(0.0620344 0.00506283 0)
(0.0607165 0.00487631 0)
(0.0594374 0.00468195 0)
(0.058185 0.00448784 0)
(0.0569592 0.00429094 0)
(0.0557515 0.00409148 0)
(0.0545425 0.00389528 0)
(0.0533271 0.00370225 0)
(0.0520978 0.00351305 0)
(0.0508414 0.00333276 0)
(0.049556 0.00316216 0)
(0.0482446 0.00299862 0)
(0.0469055 0.00284977 0)
(0.0455384 0.00270872 0)
(0.0441434 0.00257682 0)
(0.0427239 0.00245474 0)
(0.0412772 0.00234151 0)
(0.0398079 0.00223636 0)
(0.0383136 0.00213975 0)
(0.0367944 0.00204787 0)
(0.0352478 0.00195892 0)
(0.0336823 0.00187571 0)
(0.0320998 0.00179601 0)
(0.0304917 0.00172149 0)
(0.0288649 0.00165136 0)
(0.0272179 0.001584 0)
(0.025553 0.00152416 0)
(0.023871 0.00146799 0)
(0.0221817 0.00141547 0)
(0.0204148 0.00136953 0)
(0.0188242 0.00130635 0)
(0.0168206 0.00130714 0)
(0.0155039 0.00118775 0)
(0.0130815 0.00126682 0)
(0.0121755 0.00107534 0)
(0.00919981 0.0012124 0)
(0.00876672 0.00103538 0)
(0.00511765 0.00109909 0)
(0.00510133 0.000639026 0)
(0.00147891 0.000468509 0)
(0.00315639 0.00197832 0)
(0.00313526 -0.0143016 0)
(0.00532391 -0.0184823 0)
(0.013059 -0.0173265 0)
(0.0159884 -0.0165362 0)
(0.0218161 -0.0163913 0)
(0.0257641 -0.0163761 0)
(0.0307904 -0.0163239 0)
(0.0352458 -0.0162351 0)
(0.0399099 -0.0161299 0)
(0.0444787 -0.0160069 0)
(0.0490078 -0.015872 0)
(0.053518 -0.015724 0)
(0.0579737 -0.0155601 0)
(0.0623837 -0.0153828 0)
(0.066746 -0.0151912 0)
(0.071053 -0.0149846 0)
(0.0753025 -0.0147638 0)
(0.0794898 -0.0145286 0)
(0.0836114 -0.0142785 0)
(0.0876653 -0.0140136 0)
(0.0916459 -0.0137335 0)
(0.0955497 -0.0134383 0)
(0.0993749 -0.0131291 0)
(0.103118 -0.0128064 0)
(0.106773 -0.0124702 0)
(0.110338 -0.0121214 0)
(0.113811 -0.0117605 0)
(0.117186 -0.0113889 0)
(0.120461 -0.0110066 0)
(0.123631 -0.0106141 0)
(0.126694 -0.0102127 0)
(0.129646 -0.00980313 0)
(0.132485 -0.00938594 0)
(0.135206 -0.0089617 0)
(0.137806 -0.00853132 0)
(0.140283 -0.00809588 0)
(0.142633 -0.00765598 0)
(0.144853 -0.00721262 0)
(0.146939 -0.00676728 0)
(0.148889 -0.00632114 0)
(0.150701 -0.00587573 0)
(0.152374 -0.00543322 0)
(0.153906 -0.00499607 0)
(0.155297 -0.0045652 0)
(0.15655 -0.0041379 0)
(0.157666 -0.00370749 0)
(0.158643 -0.00326556 0)
(0.15948 -0.00280685 0)
(0.160174 -0.00233308 0)
(0.160719 -0.00185252 0)
(0.161119 -0.00137568 0)
(0.161379 -0.000910537 0)
(0.161511 -0.000458254 0)
(0.16151 -1.75199e-05 0)
(0.161365 0.000420423 0)
(0.161088 0.000854804 0)
(0.16069 0.00128363 0)
(0.160172 0.00170534 0)
(0.159537 0.00211896 0)
(0.158787 0.00252424 0)
(0.157922 0.00292061 0)
(0.156946 0.0033074 0)
(0.155862 0.00368385 0)
(0.154673 0.00404965 0)
(0.153382 0.00440476 0)
(0.151991 0.00474852 0)
(0.150505 0.00508056 0)
(0.148927 0.00540093 0)
(0.14726 0.00570868 0)
(0.145511 0.00600391 0)
(0.14368 0.00628722 0)
(0.141774 0.00655791 0)
(0.139796 0.00681571 0)
(0.13775 0.00706075 0)
(0.135641 0.00729233 0)
(0.133473 0.00750981 0)
(0.13125 0.00771324 0)
(0.128977 0.00790287 0)
(0.126661 0.00807904 0)
(0.124305 0.0082426 0)
(0.121917 0.00839446 0)
(0.119501 0.00853545 0)
(0.117062 0.0086659 0)
(0.114606 0.00878645 0)
(0.112137 0.00889691 0)
(0.10966 0.00899705 0)
(0.107178 0.00908712 0)
(0.104698 0.00916691 0)
(0.102221 0.00923722 0)
(0.0997521 0.00929714 0)
(0.0972968 0.00934597 0)
(0.0948576 0.00938334 0)
(0.0924384 0.00940953 0)
(0.0900444 0.00942206 0)
(0.0876769 0.00942201 0)
(0.0853433 0.00940383 0)
(0.0830518 0.0093658 0)
(0.0808043 0.00929895 0)
(0.0786047 0.00919819 0)
(0.0764527 0.00905866 0)
(0.0743407 0.00888923 0)
(0.0722502 0.00869554 0)
(0.070179 0.00848919 0)
(0.068127 0.00827279 0)
(0.0660868 0.00805468 0)
(0.0640667 0.00782853 0)
(0.0620725 0.00759486 0)
(0.0601099 0.00735606 0)
(0.0581778 0.00711301 0)
(0.0562752 0.00686577 0)
(0.0544013 0.00661725 0)
(0.0525662 0.00636746 0)
(0.0507697 0.00612126 0)
(0.0490009 0.00588458 0)
(0.0472745 0.00565601 0)
(0.0455882 0.00544393 0)
(0.0439351 0.00524831 0)
(0.0423214 0.00507033 0)
(0.0407467 0.0049082 0)
(0.0392055 0.00476122 0)
(0.0377084 0.00462535 0)
(0.0362521 0.00449964 0)
(0.0348264 0.00438069 0)
(0.0334381 0.00427018 0)
(0.032081 0.00416853 0)
(0.0307516 0.00407712 0)
(0.0294542 0.00399436 0)
(0.0281863 0.0039208 0)
(0.0269358 0.00385386 0)
(0.0257014 0.00379248 0)
(0.0244809 0.00373999 0)
(0.0232681 0.00369195 0)
(0.0220582 0.00365156 0)
(0.0208468 0.0036156 0)
(0.0196378 0.00358712 0)
(0.0184251 0.00356355 0)
(0.0172042 0.00354185 0)
(0.0159756 0.00352716 0)
(0.014705 0.00350456 0)
(0.0135534 0.00350559 0)
(0.0120905 0.0034708 0)
(0.0111695 0.00347826 0)
(0.00934504 0.0034588 0)
(0.00881377 0.00346659 0)
(0.00646312 0.00350912 0)
(0.00639553 0.00355732 0)
(0.0034251 0.00354255 0)
(0.00389083 0.00288487 0)
(0.00107618 0.00155362 0)
(0.0030417 0.00528389 0)
(0.00298268 -0.0202254 0)
(0.00565903 -0.0262221 0)
(0.013496 -0.0246015 0)
(0.0167831 -0.0234206 0)
(0.0227765 -0.0232228 0)
(0.0270183 -0.0231707 0)
(0.0322184 -0.0231067 0)
(0.0369123 -0.0229691 0)
(0.0417579 -0.0228097 0)
(0.0465197 -0.0226286 0)
(0.0512214 -0.0224269 0)
(0.0558949 -0.0222075 0)
(0.0605053 -0.0219671 0)
(0.0650571 -0.0217063 0)
(0.0695508 -0.0214255 0)
(0.0739764 -0.021124 0)
(0.0783303 -0.0208021 0)
(0.0826104 -0.0204598 0)
(0.0868124 -0.0200965 0)
(0.0909332 -0.0197131 0)
(0.0949692 -0.0193099 0)
(0.0989158 -0.0188865 0)
(0.10277 -0.0184441 0)
(0.10653 -0.0179831 0)
(0.110192 -0.0175039 0)
(0.113754 -0.0170071 0)
(0.11721 -0.0164939 0)
(0.12056 -0.0159651 0)
(0.1238 -0.0154211 0)
(0.126929 -0.0148624 0)
(0.129942 -0.0142901 0)
(0.132839 -0.0137053 0)
(0.135616 -0.0131088 0)
(0.138273 -0.0125015 0)
(0.140807 -0.0118845 0)
(0.143215 -0.0112585 0)
(0.145495 -0.0106249 0)
(0.147647 -0.00998463 0)
(0.149669 -0.00933809 0)
(0.15156 -0.00868609 0)
(0.153318 -0.0080294 0)
(0.154942 -0.00736829 0)
(0.156431 -0.0067036 0)
(0.157781 -0.00603627 0)
(0.158991 -0.00536817 0)
(0.160059 -0.0047026 0)
(0.160985 -0.00404272 0)
(0.161772 -0.00339117 0)
(0.162425 -0.00274977 0)
(0.162948 -0.00211861 0)
(0.163342 -0.00149597 0)
(0.163605 -0.000881142 0)
(0.163729 -0.0002743 0)
(0.16373 0.000322786 0)
(0.163614 0.000908162 0)
(0.163369 0.00148713 0)
(0.162994 0.00205963 0)
(0.162493 0.00262456 0)
(0.16187 0.00318089 0)
(0.161128 0.00372719 0)
(0.16027 0.00426228 0)
(0.1593 0.00478551 0)
(0.15822 0.00529617 0)
(0.157033 0.00579341 0)
(0.155742 0.00627655 0)
(0.154352 0.006745 0)
(0.152866 0.00719813 0)
(0.151286 0.00763538 0)
(0.149617 0.00805644 0)
(0.147862 0.00846078 0)
(0.146025 0.0088481 0)
(0.14411 0.00921819 0)
(0.142121 0.00957043 0)
(0.140061 0.00990457 0)
(0.137934 0.0102205 0)
(0.135745 0.0105176 0)
(0.133496 0.0107959 0)
(0.131192 0.0110553 0)
(0.128836 0.0112962 0)
(0.126433 0.0115187 0)
(0.123986 0.0117235 0)
(0.1215 0.0119114 0)
(0.118979 0.0120828 0)
(0.116428 0.0122384 0)
(0.113851 0.0123781 0)
(0.111252 0.0125024 0)
(0.108636 0.0126122 0)
(0.106007 0.0127066 0)
(0.10337 0.0127861 0)
(0.100728 0.0128511 0)
(0.0980864 0.0129015 0)
(0.0954499 0.0129355 0)
(0.0928206 0.0129549 0)
(0.090205 0.0129585 0)
(0.0876069 0.0129445 0)
(0.0850285 0.0129135 0)
(0.0824745 0.01286 0)
(0.0799454 0.012783 0)
(0.0774395 0.0126809 0)
(0.0749576 0.0125495 0)
(0.0724996 0.0123916 0)
(0.07006 0.0122054 0)
(0.0676429 0.0119953 0)
(0.0652586 0.0117597 0)
(0.0629055 0.0115069 0)
(0.060583 0.0112417 0)
(0.0582989 0.0109676 0)
(0.0560559 0.0106846 0)
(0.0538542 0.0103949 0)
(0.0516943 0.0101001 0)
(0.0495769 0.00980012 0)
(0.0475051 0.00950042 0)
(0.0454786 0.00919542 0)
(0.0434978 0.00889003 0)
(0.0415676 0.00858851 0)
(0.0396852 0.00828897 0)
(0.0378542 0.0079948 0)
(0.0360796 0.00770758 0)
(0.0343594 0.00743198 0)
(0.0326941 0.00716572 0)
(0.0310855 0.00691666 0)
(0.0295319 0.00667902 0)
(0.028031 0.00645672 0)
(0.0265823 0.00624816 0)
(0.0251842 0.00605408 0)
(0.0238298 0.00587495 0)
(0.0225263 0.00571001 0)
(0.0212722 0.0055585 0)
(0.0200568 0.00542212 0)
(0.0188822 0.0053035 0)
(0.0177474 0.00519944 0)
(0.0166487 0.00510859 0)
(0.0155783 0.00503125 0)
(0.0145389 0.00496597 0)
(0.013528 0.00491487 0)
(0.0125381 0.00486872 0)
(0.0115746 0.00483438 0)
(0.010625 0.00480737 0)
(0.00968008 0.00478362 0)
(0.00882606 0.00477981 0)
(0.00777071 0.00475083 0)
(0.00716642 0.00476441 0)
(0.00582872 0.0047444 0)
(0.00561396 0.00477529 0)
(0.00385973 0.00482571 0)
(0.00410315 0.00493999 0)
(0.00184254 0.00478154 0)
(0.00273076 0.00366202 0)
(0.000713719 0.00181273 0)
(0.00249608 0.00758287 0)
(0.00293064 -0.0259857 0)
(0.00576214 -0.033916 0)
(0.0135969 -0.0317993 0)
(0.0170051 -0.0302503 0)
(0.0230038 -0.029969 0)
(0.0273351 -0.0298906 0)
(0.0325625 -0.0297919 0)
(0.0373178 -0.0296089 0)
(0.0422023 -0.0293902 0)
(0.0470116 -0.0291473 0)
(0.0517564 -0.0288778 0)
(0.0564685 -0.0285836 0)
(0.0611173 -0.0282628 0)
(0.0657044 -0.0279156 0)
(0.0702299 -0.0275428 0)
(0.074686 -0.0271439 0)
(0.0790695 -0.0267191 0)
(0.0833772 -0.0262692 0)
(0.0876043 -0.0257946 0)
(0.0917479 -0.0252948 0)
(0.0958051 -0.024771 0)
(0.0997713 -0.0242243 0)
(0.103644 -0.0236543 0)
(0.107422 -0.0230612 0)
(0.111099 -0.0224468 0)
(0.114673 -0.0218118 0)
(0.118143 -0.0211564 0)
(0.121504 -0.0204816 0)
(0.124756 -0.0197888 0)
(0.127893 -0.0190789 0)
(0.130915 -0.0183527 0)
(0.133818 -0.0176113 0)
(0.136601 -0.016856 0)
(0.13926 -0.0160883 0)
(0.141796 -0.0153094 0)
(0.144204 -0.0145205 0)
(0.146485 -0.0137229 0)
(0.148636 -0.0129175 0)
(0.150656 -0.0121058 0)
(0.152543 -0.0112892 0)
(0.154298 -0.0104687 0)
(0.155919 -0.00964562 0)
(0.157404 -0.00882151 0)
(0.158755 -0.00799688 0)
(0.159973 -0.00717137 0)
(0.161057 -0.00634435 0)
(0.162008 -0.00551506 0)
(0.162826 -0.00468305 0)
(0.163509 -0.00384956 0)
(0.164058 -0.00301724 0)
(0.164473 -0.00218921 0)
(0.164754 -0.0013686 0)
(0.164907 -0.000556403 0)
(0.164921 0.00024982 0)
(0.164796 0.00104356 0)
(0.164546 0.0018218 0)
(0.164174 0.00258495 0)
(0.163678 0.00333327 0)
(0.163062 0.00406681 0)
(0.162325 0.00478475 0)
(0.161472 0.00548617 0)
(0.160505 0.00617048 0)
(0.159426 0.00683713 0)
(0.158239 0.00748549 0)
(0.156946 0.00811449 0)
(0.155551 0.00872379 0)
(0.154057 0.0093128 0)
(0.152467 0.00988053 0)
(0.150785 0.0104267 0)
(0.149014 0.0109511 0)
(0.147158 0.0114529 0)
(0.14522 0.0119319 0)
(0.143205 0.0123878 0)
(0.141116 0.0128202 0)
(0.138957 0.0132287 0)
(0.136732 0.0136132 0)
(0.134445 0.0139735 0)
(0.1321 0.0143095 0)
(0.1297 0.0146216 0)
(0.127249 0.0149099 0)
(0.124752 0.0151746 0)
(0.122213 0.0154162 0)
(0.119637 0.015635 0)
(0.117027 0.0158313 0)
(0.11439 0.016005 0)
(0.111728 0.0161567 0)
(0.109048 0.0162866 0)
(0.106354 0.0163945 0)
(0.103651 0.0164804 0)
(0.100944 0.0165445 0)
(0.0982353 0.0165867 0)
(0.0955323 0.016605 0)
(0.0928407 0.0166012 0)
(0.0901616 0.0165749 0)
(0.0875008 0.0165235 0)
(0.084861 0.0164472 0)
(0.082247 0.0163443 0)
(0.0796633 0.016214 0)
(0.077105 0.0160551 0)
(0.0745783 0.0158687 0)
(0.0720867 0.0156547 0)
(0.0696235 0.0154146 0)
(0.0671921 0.0151526 0)
(0.0647952 0.0148714 0)
(0.0624305 0.0145716 0)
(0.0600989 0.014258 0)
(0.0578024 0.0139325 0)
(0.0555474 0.0135953 0)
(0.0533362 0.0132486 0)
(0.0511641 0.0128947 0)
(0.0490354 0.012534 0)
(0.0469524 0.0121707 0)
(0.0449124 0.0118052 0)
(0.0429185 0.0114407 0)
(0.0409762 0.0110805 0)
(0.039079 0.0107251 0)
(0.0372261 0.0103791 0)
(0.0354264 0.0100421 0)
(0.0336735 0.00971618 0)
(0.0319689 0.00940035 0)
(0.0303202 0.00909885 0)
(0.0287203 0.00881064 0)
(0.0271693 0.00853449 0)
(0.0256701 0.00827107 0)
(0.0242215 0.00802196 0)
(0.0228203 0.00778621 0)
(0.0214678 0.00756701 0)
(0.020161 0.00736067 0)
(0.0188997 0.00717056 0)
(0.0176837 0.00699603 0)
(0.0165097 0.00683715 0)
(0.0153782 0.0066922 0)
(0.0142859 0.00656189 0)
(0.0132337 0.00644607 0)
(0.012216 0.00634307 0)
(0.0112344 0.00625267 0)
(0.0102907 0.00617496 0)
(0.00936914 0.00610601 0)
(0.00847427 0.00604694 0)
(0.00766184 0.0060033 0)
(0.00668955 0.00594906 0)
(0.00613069 0.0059302 0)
(0.00492212 0.00587031 0)
(0.00475764 0.00589677 0)
(0.00317064 0.00590171 0)
(0.00347342 0.00605586 0)
(0.00146538 0.0056841 0)
(0.00236525 0.00423093 0)
(0.000578175 0.00204429 0)
(0.00226478 0.00962024 0)
(0.0029143 -0.0318682 0)
(0.00583904 -0.0417238 0)
(0.0136351 -0.0391164 0)
(0.0171368 -0.037199 0)
(0.0231147 -0.036836 0)
(0.0275033 -0.0367329 0)
(0.0327417 -0.0366037 0)
(0.0375345 -0.0363723 0)
(0.0424456 -0.0360958 0)
(0.0472847 -0.0357882 0)
(0.05206 -0.0354499 0)
(0.0568026 -0.0350806 0)
(0.0614824 -0.0346789 0)
(0.0661005 -0.0342458 0)
(0.0706584 -0.0337808 0)
(0.0751479 -0.0332841 0)
(0.079564 -0.0327567 0)
(0.0839041 -0.0321993 0)
(0.0881656 -0.0316119 0)
(0.0923444 -0.0309944 0)
(0.0964355 -0.0303477 0)
(0.100436 -0.029673 0)
(0.104345 -0.0289702 0)
(0.108156 -0.0282405 0)
(0.111867 -0.0274847 0)
(0.115476 -0.0267037 0)
(0.118979 -0.0258984 0)
(0.122372 -0.0250701 0)
(0.125653 -0.0242199 0)
(0.128821 -0.0233486 0)
(0.131872 -0.0224577 0)
(0.134803 -0.0215484 0)
(0.137613 -0.020622 0)
(0.140299 -0.0196794 0)
(0.14286 -0.018722 0)
(0.145292 -0.0177511 0)
(0.147595 -0.0167678 0)
(0.149767 -0.0157736 0)
(0.151807 -0.0147701 0)
(0.153712 -0.0137581 0)
(0.155482 -0.0127393 0)
(0.157115 -0.0117156 0)
(0.15861 -0.0106878 0)
(0.159967 -0.00965699 0)
(0.161185 -0.00862545 0)
(0.162262 -0.00759537 0)
(0.1632 -0.00656876 0)
(0.163998 -0.00554758 0)
(0.164661 -0.00453318 0)
(0.165189 -0.00352673 0)
(0.165583 -0.00252951 0)
(0.165843 -0.00154173 0)
(0.165969 -0.000564936 0)
(0.165967 0.000396853 0)
(0.165837 0.00134924 0)
(0.165575 0.00229056 0)
(0.165184 0.0032183 0)
(0.164669 0.0041307 0)
(0.164031 0.00502611 0)
(0.163271 0.00590347 0)
(0.162394 0.00676191 0)
(0.161401 0.0076003 0)
(0.160296 0.00841748 0)
(0.159082 0.00921241 0)
(0.15776 0.00998423 0)
(0.156335 0.0107323 0)
(0.154811 0.0114557 0)
(0.153189 0.0121536 0)
(0.151474 0.0128251 0)
(0.14967 0.01347 0)
(0.14778 0.0140874 0)
(0.145808 0.0146768 0)
(0.143757 0.015238 0)
(0.141632 0.0157704 0)
(0.139437 0.0162735 0)
(0.137175 0.0167474 0)
(0.134851 0.0171917 0)
(0.132469 0.0176063 0)
(0.130034 0.0179911 0)
(0.127548 0.0183464 0)
(0.125017 0.0186723 0)
(0.122445 0.0189689 0)
(0.119837 0.0192366 0)
(0.117197 0.0194754 0)
(0.114531 0.0196853 0)
(0.111843 0.0198668 0)
(0.109137 0.0200201 0)
(0.106418 0.020145 0)
(0.103692 0.0202419 0)
(0.100962 0.0203107 0)
(0.0982328 0.0203511 0)
(0.0955097 0.0203638 0)
(0.0927987 0.020348 0)
(0.0901002 0.0203037 0)
(0.0874195 0.0202307 0)
(0.0847603 0.0201289 0)
(0.0821259 0.019999 0)
(0.0795187 0.0198383 0)
(0.0769397 0.0196466 0)
(0.0743924 0.0194294 0)
(0.0718773 0.019181 0)
(0.0693935 0.018905 0)
(0.0669436 0.0186045 0)
(0.0645299 0.0182812 0)
(0.0621528 0.0179336 0)
(0.0598148 0.0175689 0)
(0.0575171 0.0171867 0)
(0.055263 0.0167928 0)
(0.0530548 0.0163853 0)
(0.0508899 0.0159677 0)
(0.0487709 0.015543 0)
(0.0467003 0.0151141 0)
(0.0446758 0.0146798 0)
(0.0427008 0.0142482 0)
(0.0407761 0.0138163 0)
(0.0388996 0.0133874 0)
(0.037073 0.0129653 0)
(0.0352977 0.0125489 0)
(0.0335708 0.0121418 0)
(0.0318965 0.0117481 0)
(0.0302772 0.0113649 0)
(0.0287042 0.0109953 0)
(0.0271784 0.0106404 0)
(0.025704 0.0103013 0)
(0.0242785 0.00997832 0)
(0.0228975 0.00967191 0)
(0.0215631 0.00938214 0)
(0.0202733 0.00911052 0)
(0.0190252 0.00885706 0)
(0.0178188 0.0086189 0)
(0.0166535 0.00840021 0)
(0.0155276 0.00819655 0)
(0.0144375 0.008012 0)
(0.013384 0.00784395 0)
(0.0123658 0.00769045 0)
(0.0113795 0.00755523 0)
(0.0104262 0.00743238 0)
(0.0094955 0.00732137 0)
(0.00859374 0.00722474 0)
(0.00776336 0.00714171 0)
(0.00679005 0.00705309 0)
(0.00620965 0.00700567 0)
(0.00500594 0.00690927 0)
(0.00481347 0.0069184 0)
(0.00324504 0.00688915 0)
(0.00349652 0.00705922 0)
(0.00152409 0.00653478 0)
(0.0022977 0.00471573 0)
(0.000566252 0.00215497 0)
(0.00221488 0.0114403 0)
(0.00288127 -0.0377551 0)
(0.00593121 -0.0495491 0)
(0.0137203 -0.0464579 0)
(0.0173361 -0.0441465 0)
(0.0233045 -0.0437059 0)
(0.0277697 -0.0435725 0)
(0.0330299 -0.0434211 0)
(0.037878 -0.0431404 0)
(0.0428291 -0.0428096 0)
(0.0477148 -0.0424399 0)
(0.0525353 -0.0420334 0)
(0.0573227 -0.0415908 0)
(0.0620481 -0.04111 0)
(0.0667122 -0.0405914 0)
(0.0713158 -0.0400358 0)
(0.0758505 -0.0394435 0)
(0.0803116 -0.0388148 0)
(0.0846971 -0.0381502 0)
(0.0890035 -0.0374504 0)
(0.0932265 -0.0367166 0)
(0.0973617 -0.035949 0)
(0.101406 -0.0351477 0)
(0.105356 -0.0343141 0)
(0.109209 -0.0334497 0)
(0.11296 -0.0325548 0)
(0.116607 -0.03163 0)
(0.120148 -0.0306773 0)
(0.123577 -0.0296975 0)
(0.126895 -0.0286916 0)
(0.130096 -0.0276609 0)
(0.133178 -0.0266073 0)
(0.136139 -0.0255319 0)
(0.138976 -0.0244359 0)
(0.141688 -0.023321 0)
(0.144271 -0.0221889 0)
(0.146724 -0.0210414 0)
(0.149045 -0.0198798 0)
(0.151232 -0.018706 0)
(0.153284 -0.0175216 0)
(0.155199 -0.0163283 0)
(0.156976 -0.0151279 0)
(0.158614 -0.0139217 0)
(0.160113 -0.0127114 0)
(0.161472 -0.0114986 0)
(0.162691 -0.0102847 0)
(0.16377 -0.00907044 0)
(0.16471 -0.00785681 0)
(0.16551 -0.00664527 0)
(0.166171 -0.00543761 0)
(0.166691 -0.00423573 0)
(0.167073 -0.00304167 0)
(0.167318 -0.00185736 0)
(0.167427 -0.000684383 0)
(0.1674 0.000475389 0)
(0.167239 0.00161813 0)
(0.166948 0.00274346 0)
(0.166529 0.00385054 0)
(0.165982 0.00493811 0)
(0.165311 0.0060049 0)
(0.164518 0.00704985 0)
(0.163606 0.00807162 0)
(0.162577 0.00906903 0)
(0.161434 0.0100411 0)
(0.160181 0.0109863 0)
(0.15882 0.011904 0)
(0.157355 0.0127931 0)
(0.155789 0.0136527 0)
(0.154125 0.0144819 0)
(0.152368 0.01528 0)
(0.150521 0.016046 0)
(0.148587 0.0167793 0)
(0.146571 0.0174795 0)
(0.144477 0.018146 0)
(0.142307 0.018778 0)
(0.140068 0.0193751 0)
(0.137763 0.0199373 0)
(0.135396 0.0204641 0)
(0.132971 0.0209553 0)
(0.130492 0.0214107 0)
(0.127965 0.0218305 0)
(0.125393 0.0222148 0)
(0.122781 0.0225633 0)
(0.120134 0.0228764 0)
(0.117455 0.0231541 0)
(0.114751 0.0233969 0)
(0.112026 0.0236043 0)
(0.109283 0.023777 0)
(0.106528 0.0239148 0)
(0.103765 0.0240176 0)
(0.101 0.0240864 0)
(0.0982344 0.0241206 0)
(0.0954753 0.0241212 0)
(0.0927265 0.0240875 0)
(0.0899905 0.0240184 0)
(0.0872721 0.0239156 0)
(0.0845753 0.0237795 0)
(0.0819011 0.0236097 0)
(0.0792527 0.0234059 0)
(0.0766371 0.0231689 0)
(0.0740528 0.0229009 0)
(0.0714996 0.0226009 0)
(0.0689839 0.0222719 0)
(0.066506 0.0219164 0)
(0.0640637 0.0215362 0)
(0.0616628 0.0211322 0)
(0.0593056 0.0207097 0)
(0.0569908 0.0202667 0)
(0.0547234 0.0198116 0)
(0.052502 0.0193412 0)
(0.0503293 0.0188604 0)
(0.0482079 0.0183714 0)
(0.0461347 0.0178764 0)
(0.0441142 0.0173772 0)
(0.0421475 0.0168789 0)
(0.040233 0.01638 0)
(0.0383735 0.0158855 0)
(0.0365623 0.0153964 0)
(0.0348074 0.0149154 0)
(0.0331095 0.014444 0)
(0.0314609 0.0139864 0)
(0.029867 0.0135392 0)
(0.0283258 0.0131056 0)
(0.0268341 0.0126875 0)
(0.0253936 0.012287 0)
(0.0240019 0.0119031 0)
(0.022655 0.0115346 0)
(0.021356 0.0111883 0)
(0.0201021 0.0108593 0)
(0.0188865 0.0105498 0)
(0.0177139 0.0102596 0)
(0.0165786 0.00998881 0)
(0.0154814 0.009737 0)
(0.0144214 0.0095054 0)
(0.0133912 0.00929077 0)
(0.0123944 0.0090953 0)
(0.0114279 0.00891702 0)
(0.0104878 0.00875368 0)
(0.00957013 0.00860656 0)
(0.00868004 0.00847522 0)
(0.0078448 0.00835916 0)
(0.00688989 0.00824242 0)
(0.00629022 0.00816697 0)
(0.00510778 0.0080369 0)
(0.00487391 0.00803757 0)
(0.00333276 0.00798076 0)
(0.00352489 0.00817498 0)
(0.00157008 0.00752442 0)
(0.00226272 0.00533869 0)
(0.000588259 0.0023201 0)
(0.00222295 0.0133449 0)
(0.00283206 -0.0436904 0)
(0.00603565 -0.0574864 0)
(0.0138356 -0.0539059 0)
(0.0175898 -0.0511888 0)
(0.0235606 -0.0506577 0)
(0.0281213 -0.0504984 0)
(0.0334146 -0.0503245 0)
(0.0383347 -0.0499971 0)
(0.0433375 -0.0496105 0)
(0.0482833 -0.0491791 0)
(0.0531612 -0.0487044 0)
(0.0580043 -0.0481882 0)
(0.062787 -0.0476277 0)
(0.0675069 -0.0470232 0)
(0.0721651 -0.0463761 0)
(0.0767548 -0.0456868 0)
(0.0812708 -0.0449557 0)
(0.0857097 -0.0441833 0)
(0.0900675 -0.0433703 0)
(0.0943411 -0.0425177 0)
(0.0985269 -0.0416263 0)
(0.10262 -0.0406968 0)
(0.106618 -0.03973 0)
(0.110516 -0.038727 0)
(0.114313 -0.0376892 0)
(0.118003 -0.0366176 0)
(0.121585 -0.0355132 0)
(0.125054 -0.0343774 0)
(0.128409 -0.0332119 0)
(0.131645 -0.0320181 0)
(0.134761 -0.0307973 0)
(0.137753 -0.0295511 0)
(0.14062 -0.0282812 0)
(0.143359 -0.0269892 0)
(0.145967 -0.0256768 0)
(0.148443 -0.0243459 0)
(0.150784 -0.0229983 0)
(0.15299 -0.0216357 0)
(0.155058 -0.0202599 0)
(0.156986 -0.0188729 0)
(0.158775 -0.0174764 0)
(0.160423 -0.0160721 0)
(0.161929 -0.0146621 0)
(0.163291 -0.0132487 0)
(0.164511 -0.0118338 0)
(0.165588 -0.0104194 0)
(0.166521 -0.00900766 0)
(0.16731 -0.00760101 0)
(0.167957 -0.00620153 0)
(0.168464 -0.00481079 0)
(0.168832 -0.00343021 0)
(0.16906 -0.00206227 0)
(0.169148 -0.000708175 0)
(0.169101 0.000630345 0)
(0.168919 0.00195248 0)
(0.168603 0.003256 0)
(0.168156 0.0045391 0)
(0.16758 0.0058 0)
(0.166878 0.00703707 0)
(0.166051 0.008249 0)
(0.165102 0.00943428 0)
(0.164035 0.0105914 0)
(0.162853 0.0117189 0)
(0.161558 0.0128156 0)
(0.160154 0.0138803 0)
(0.158645 0.0149118 0)
(0.157033 0.0159089 0)
(0.155323 0.0168707 0)
(0.153517 0.0177963 0)
(0.151621 0.0186845 0)
(0.149638 0.0195347 0)
(0.147572 0.0203464 0)
(0.145426 0.0211186 0)
(0.143205 0.0218509 0)
(0.140914 0.0225427 0)
(0.138556 0.0231933 0)
(0.136136 0.0238027 0)
(0.133658 0.0243707 0)
(0.131127 0.0248969 0)
(0.128547 0.0253811 0)
(0.125922 0.0258238 0)
(0.123258 0.0262243 0)
(0.120558 0.0265831 0)
(0.117828 0.0269001 0)
(0.115072 0.0271759 0)
(0.112295 0.02741 0)
(0.109501 0.0276029 0)
(0.106694 0.027755 0)
(0.103881 0.027866 0)
(0.101064 0.0279366 0)
(0.0982485 0.0279673 0)
(0.0954393 0.0279582 0)
(0.0926391 0.0279095 0)
(0.0898518 0.0278209 0)
(0.0870845 0.0276926 0)
(0.0843377 0.027527 0)
(0.0816141 0.0273234 0)
(0.0789181 0.0270835 0)
(0.0762542 0.0268076 0)
(0.073623 0.0264956 0)
(0.0710261 0.0261492 0)
(0.0684677 0.025772 0)
(0.065949 0.0253641 0)
(0.0634702 0.0249274 0)
(0.0610368 0.0244674 0)
(0.0586473 0.0239823 0)
(0.0563069 0.0234767 0)
(0.0540179 0.0229535 0)
(0.0517774 0.0224126 0)
(0.0495904 0.0218611 0)
(0.047456 0.0212969 0)
(0.0453761 0.0207268 0)
(0.0433528 0.0201528 0)
(0.0413845 0.0195758 0)
(0.0394726 0.019 0)
(0.0376184 0.0184263 0)
(0.0358201 0.0178577 0)
(0.0340799 0.0172983 0)
(0.0323969 0.0167467 0)
(0.0307685 0.0162097 0)
(0.0291957 0.0156863 0)
(0.0276774 0.0151775 0)
(0.0262121 0.0146865 0)
(0.0247997 0.0142144 0)
(0.0234335 0.0137619 0)
(0.0221197 0.0133259 0)
(0.0208555 0.0129161 0)
(0.0196322 0.0125262 0)
(0.0184529 0.0121579 0)
(0.0173137 0.0118139 0)
(0.0162135 0.0114905 0)
(0.0151518 0.0111908 0)
(0.0141208 0.0109117 0)
(0.0131225 0.0106543 0)
(0.0121574 0.0104182 0)
(0.0112159 0.0102018 0)
(0.0103033 0.0100037 0)
(0.00941124 0.00982437 0)
(0.00854418 0.00966196 0)
(0.007724 0.00951741 0)
(0.00679858 0.00937531 0)
(0.0061909 0.00927512 0)
(0.00505505 0.0091215 0)
(0.00479479 0.00910782 0)