/*--------------------------------*- C++ -*----------------------------------*\
| =========                 |                                                 |
| \\      /  F ield         | OpenFOAM: The Open Source CFD Toolbox           |
|  \\    /   O peration     | Version:  v2006                                 |
|   \\  /    A nd           | Website:  www.openfoam.com                      |
|    \\/     M anipulation  |                                                 |
\*---------------------------------------------------------------------------*/
FoamFile
{
    version     2.0;
    format      ascii;
    class       surfaceScalarField;
    location    "19";
    object      phi;
}
// * * * * * * * * * * * * * * * * * * * * * * * * * * * * * * * * * * * * * //

dimensions      [0 3 -1 0 0 0 0];
oriented        oriented;


internalField   nonuniform List<scalar> 
99450
(
-4.2922e-06
4.2922e-06
1.04851e-05
-1.47773e-05
2.90505e-05
-1.85654e-05
4.48797e-05
-1.58292e-05
5.69064e-05
-1.20267e-05
6.62776e-05
-9.37122e-06
7.43471e-05
-8.06949e-06
8.19737e-05
-7.62659e-06
8.95222e-05
-7.54853e-06
9.70474e-05
-7.52524e-06
0.000104465
-7.41738e-06
0.000111651
-7.18668e-06
0.000118489
-6.838e-06
0.00012488
-6.39021e-06
0.000130747
-5.86707e-06
0.000136038
-5.29123e-06
0.000140724
-4.68614e-06
0.00014481
-4.08627e-06
0.000148333
-3.52232e-06
0.000151331
-2.99795e-06
0.000153863
-2.53193e-06
0.000155996
-2.13319e-06
0.000157798
-1.80261e-06
0.000159345
-1.54613e-06
0.000160715
-1.37072e-06
0.000161973
-1.25738e-06
0.000163184
-1.21089e-06
0.000164404
-1.22049e-06
0.000165677
-1.27322e-06
0.000167038
-1.36104e-06
0.000168511
-1.47309e-06
0.0001701
-1.58821e-06
0.000171782
-1.68277e-06
0.000173522
-1.73989e-06
0.000175212
-1.6895e-06
0.000176723
-1.51163e-06
0.000177888
-1.16508e-06
0.000178505
-6.16595e-07
0.000178342
1.62572e-07
0.000177142
1.20027e-06
0.000174826
2.31649e-06
0.000171536
3.29011e-06
0.000167538
3.99721e-06
0.000163121
4.41774e-06
0.000158546
4.57436e-06
0.000154067
4.47942e-06
0.000149932
4.13497e-06
0.000146396
3.53583e-06
0.000143711
2.68515e-06
0.000142139
1.57151e-06
0.000141948
1.91686e-07
0.000143492
-1.54389e-06
0.000146865
-3.37338e-06
0.00015204
-5.17537e-06
0.000158824
-6.78393e-06
0.00016696
-8.13567e-06
0.000176204
-9.244e-06
0.000186374
-1.01697e-05
0.000197356
-1.09821e-05
0.000209074
-1.1718e-05
0.00022146
-1.2386e-05
0.000234451
-1.29915e-05
0.000247982
-1.35305e-05
0.000261994
-1.40119e-05
0.000276429
-1.44356e-05
0.00029123
-1.48004e-05
0.000306343
-1.51138e-05
0.000321717
-1.53739e-05
0.000337303
-1.55855e-05
0.000353052
-1.57491e-05
0.000368919
-1.58669e-05
0.00038486
-1.59413e-05
0.000400833
-1.5973e-05
0.000416795
-1.59621e-05
0.000432706
-1.59101e-05
0.000448526
-1.58203e-05
0.00046422
-1.5694e-05
0.000479749
-1.55291e-05
0.000495077
-1.53276e-05
0.000510166
-1.50895e-05
0.000524978
-1.48124e-05
0.00053947
-1.44917e-05
0.000553599
-1.41288e-05
0.000567319
-1.37205e-05
0.000580581
-1.32614e-05
0.000593335
-1.27538e-05
0.000605524
-1.21892e-05
0.000617088
-1.15643e-05
0.000627967
-1.08786e-05
0.000638086
-1.01192e-05
0.000647361
-9.2749e-06
0.000655689
-8.32789e-06
0.000662941
-7.25265e-06
0.000668952
-6.01053e-06
0.000673495
-4.54309e-06
0.000676254
-2.75949e-06
0.000676808
-5.53644e-07
0.000674523
2.28502e-06
0.000668938
5.5846e-06
0.000659986
8.95223e-06
0.000647849
1.21373e-05
0.00063298
1.48689e-05
0.000616016
1.69636e-05
0.000597613
1.84039e-05
0.000578326
1.92863e-05
0.000558608
1.97181e-05
0.000538867
1.97407e-05
0.000519572
1.92952e-05
0.000501315
1.82575e-05
0.000484815
1.65e-05
0.000470812
1.40025e-05
0.000459789
1.10236e-05
0.000451655
8.1335e-06
0.000445702
5.95336e-06
0.000440911
4.79081e-06
0.000436394
4.51746e-06
0.000431559
4.83499e-06
0.000426099
5.45955e-06
0.000419901
6.19788e-06
0.00041295
6.95061e-06
0.000405264
7.68674e-06
0.000396857
8.40711e-06
0.000387745
9.11145e-06
0.000377948
9.79668e-06
0.000367492
1.04568e-05
0.000356404
1.10875e-05
0.000344715
1.16896e-05
0.000332453
1.22612e-05
0.000319653
1.28005e-05
0.000306344
1.33094e-05
0.000292555
1.37888e-05
0.000278316
1.42387e-05
0.00026366
1.46565e-05
0.000248624
1.50351e-05
0.000233259
1.53655e-05
0.000217622
1.56373e-05
0.000201779
1.58426e-05
0.000185799
1.59802e-05
0.000169751
1.60477e-05
0.000153705
1.60464e-05
0.000137724
1.59808e-05
0.000121871
1.58528e-05
0.000106213
1.56585e-05
9.08331e-05
1.53795e-05
7.57991e-05
1.5034e-05
6.1147e-05
1.46521e-05
4.67657e-05
1.43814e-05
3.265e-05
1.41156e-05
1.82808e-05
1.43693e-05
1.82808e-05
-6.3685e-06
1.06607e-05
5.68328e-06
-2.68291e-05
2.16141e-05
-3.44962e-05
3.42683e-05
-2.84834e-05
4.21531e-05
-1.99114e-05
4.65279e-05
-1.37461e-05
4.92317e-05
-1.07733e-05
5.14864e-05
-9.88127e-06
5.37081e-05
-9.77025e-06
5.58214e-05
-9.63853e-06
5.75848e-05
-9.18075e-06
5.87699e-05
-8.37181e-06
5.92129e-05
-7.28095e-06
5.88068e-05
-5.98417e-06
5.74901e-05
-4.55036e-06
5.5254e-05
-3.05512e-06
5.21203e-05
-1.55239e-06
4.81433e-05
-1.09287e-07
4.34641e-05
1.15688e-06
3.81559e-05
2.31027e-06
3.23494e-05
3.27457e-06
2.61873e-05
4.02888e-06
1.98337e-05
4.55097e-06
1.34404e-05
4.84716e-06
7.17526e-06
4.89447e-06
1.17619e-06
4.74168e-06
-4.42731e-06
4.39261e-06
-9.51305e-06
3.86525e-06
-1.39291e-05
3.14281e-06
-1.75617e-05
2.27155e-06
-2.02956e-05
1.26085e-06
-2.2027e-05
1.43155e-07
-2.25653e-05
-1.14443e-06
-2.18388e-05
-2.46642e-06
-1.97507e-05
-3.77758e-06
-1.6243e-05
-5.01929e-06
-1.12951e-05
-6.11302e-06
-4.89439e-06
-7.01731e-06
2.91166e-06
-7.64348e-06
1.2082e-05
-7.97009e-06
2.23898e-05
-7.99132e-06
3.3482e-05
-7.80202e-06
4.49913e-05
-7.51215e-06
5.66536e-05
-7.24454e-06
6.82878e-05
-7.05981e-06
7.97558e-05
-6.98859e-06
9.09834e-05
-7.0926e-06
0.000101989
-7.47006e-06
0.000112815
-8.14076e-06
0.000123489
-9.10252e-06
0.00013406
-1.03794e-05
0.000144456
-1.19394e-05
0.000154755
-1.3673e-05
0.000165041
-1.54611e-05
0.000175447
-1.71896e-05
0.000186099
-1.87879e-05
0.000197074
-2.02187e-05
0.00020839
-2.14862e-05
0.000220028
-2.26195e-05
0.000231938
-2.36281e-05
0.000244079
-2.45269e-05
0.000256415
-2.53279e-05
0.00026892
-2.60358e-05
0.000281563
-2.66543e-05
0.000294314
-2.71863e-05
0.000307152
-2.76394e-05
0.000320055
-2.80162e-05
0.000333002
-2.83207e-05
0.00034597
-2.85536e-05
0.000358939
-2.8718e-05
0.000371887
-2.88153e-05
0.000384794
-2.88483e-05
0.000397643
-2.88215e-05
0.000410417
-2.87371e-05
0.000423099
-2.85917e-05
0.00043567
-2.83917e-05
0.000448119
-2.81429e-05
0.000460433
-2.78432e-05
0.000472596
-2.749e-05
0.000484598
-2.7092e-05
0.000496432
-2.66457e-05
0.00050808
-2.61405e-05
0.000519537
-2.55855e-05
0.000530778
-2.49617e-05
0.000541791
-2.4274e-05
0.000552552
-2.35152e-05
0.000563038
-2.26752e-05
0.000573221
-2.1747e-05
0.000583069
-2.07263e-05
0.000592548
-1.9598e-05
0.000601626
-1.8353e-05
0.000610266
-1.69681e-05
0.000618438
-1.5425e-05
0.000626127
-1.36997e-05
0.000633344
-1.17592e-05
0.00064014
-9.55546e-06
0.00064659
-7.0045e-06
0.000652847
-3.97198e-06
0.000658759
-3.27276e-07
0.000664214
3.49724e-06
0.000668836
7.51525e-06
0.000672312
1.13928e-05
0.000674561
1.47147e-05
0.000675826
1.71392e-05
0.000676635
1.84777e-05
0.000677617
1.87356e-05
0.00067936
1.79976e-05
0.000682263
1.63923e-05
0.000686466
1.40549e-05
0.000691813
1.11523e-05
0.000697861
7.95443e-06
0.000703993
4.89255e-06
0.000709633
2.49284e-06
0.000714429
1.15803e-06
0.000718221
9.9864e-07
0.000720873
1.86526e-06
0.000722234
3.47431e-06
0.000722182
5.51113e-06
0.000720658
7.72186e-06
0.000717649
9.95964e-06
0.000713168
1.21682e-05
0.000707237
1.4338e-05
0.00069988
1.64687e-05
0.00069111
1.85659e-05
0.000680928
2.06394e-05
0.000669316
2.26995e-05
0.000656258
2.47469e-05
0.000641741
2.67783e-05
0.000625753
2.87883e-05
0.00060829
3.07724e-05
0.000589348
3.27315e-05
0.000568916
3.46703e-05
0.000546984
3.65886e-05
0.000523543
3.84764e-05
0.000498594
4.03139e-05
0.000472154
4.20773e-05
0.000444258
4.37385e-05
0.000414972
4.52661e-05
0.000384389
4.66311e-05
0.000352611
4.78243e-05
0.000319776
4.88157e-05
0.000286022
4.96067e-05
0.000251486
5.01946e-05
0.000216275
5.05905e-05
0.00018047
5.08391e-05
0.000144157
5.09648e-05
0.000107378
5.1161e-05
7.06176e-05
5.08758e-05
3.54067e-05
4.95802e-05
5.36875e-05
-7.5853e-06
1.8246e-05
5.25075e-06
-3.96652e-05
2.39849e-05
-5.32304e-05
4.05776e-05
-4.50761e-05
5.2262e-05
-3.15958e-05
5.95524e-05
-2.10365e-05
6.42829e-05
-1.55038e-05
6.81438e-05
-1.37421e-05
7.20161e-05
-1.36426e-05
7.60034e-05
-1.36258e-05
7.98097e-05
-1.2987e-05
8.30466e-05
-1.16088e-05
8.5406e-05
-9.64029e-06
8.67005e-05
-7.27868e-06
8.68417e-05
-4.6916e-06
8.57922e-05
-2.00556e-06
8.35152e-05
7.2461e-07
8.01286e-05
3.27729e-06
7.57145e-05
5.57104e-06
7.04744e-05
7.55029e-06
6.4589e-05
9.16002e-06
5.82389e-05
1.03789e-05
5.16098e-05
1.11802e-05
4.48887e-05
1.15683e-05
3.81753e-05
1.16078e-05
3.16524e-05
1.12646e-05
2.54442e-05
1.06009e-05
1.96654e-05
9.64399e-06
1.4375e-05
8.43319e-06
9.65466e-06
6.99192e-06
5.55234e-06
5.36318e-06
2.1425e-06
3.55299e-06
-6.01564e-07
1.59964e-06
-2.67029e-06
-3.97689e-07
-4.08115e-06
-2.36672e-06
-4.75868e-06
-4.34176e-06
-4.63933e-06
-6.23236e-06
-3.68224e-06
-7.97441e-06
-1.76197e-06
-9.56375e-06
1.21278e-06
-1.09448e-05
5.33094e-06
-1.21095e-05
1.06062e-05
-1.30773e-05
1.69945e-05
-1.39005e-05
2.44106e-05
-1.46607e-05
3.27731e-05
-1.54222e-05
4.20423e-05
-1.62578e-05
5.21314e-05
-1.71817e-05
6.28838e-05
-1.82224e-05
7.41323e-05
-1.93893e-05
8.57059e-05
-2.06761e-05
9.74519e-05
-2.21254e-05
0.000109228
-2.37152e-05
0.000120977
-2.54228e-05
0.000132714
-2.71972e-05
0.000144498
-2.89743e-05
0.000156414
-3.07038e-05
0.000168527
-3.23321e-05
0.000180867
-3.38257e-05
0.000193421
-3.51741e-05
0.000206191
-3.63976e-05
0.000219158
-3.74938e-05
0.000232297
-3.84665e-05
0.000245591
-3.933e-05
0.000259019
-4.00825e-05
0.000272568
-4.07352e-05
0.000286214
-4.12858e-05
0.000299939
-4.17405e-05
0.000313718
-4.21001e-05
0.000327527
-4.23625e-05
0.000341357
-4.25476e-05
0.000355183
-4.26423e-05
0.000368991
-4.26558e-05
0.000382755
-4.25858e-05
0.000396457
-4.24393e-05
0.00041008
-4.2214e-05
0.000423603
-4.1915e-05
0.000437008
-4.15484e-05
0.000450276
-4.1111e-05
0.000463394
-4.06072e-05
0.000476339
-4.00376e-05
0.000489096
-3.94026e-05
0.000501652
-3.86968e-05
0.000513984
-3.79176e-05
0.000526081
-3.70586e-05
0.000537923
-3.61153e-05
0.000549486
-3.50786e-05
0.000560755
-3.39444e-05
0.000571711
-3.27026e-05
0.000582331
-3.13463e-05
0.000592601
-2.98686e-05
0.000602502
-2.82539e-05
0.000612023
-2.64893e-05
0.000621157
-2.45588e-05
0.000629901
-2.24433e-05
0.000638263
-2.0121e-05
0.000646272
-1.75649e-05
0.000654015
-1.47469e-05
0.000661704
-1.16614e-05
0.000669671
-8.29433e-06
0.000677878
-4.70978e-06
0.000686415
-1.02191e-06
0.000695239
2.56862e-06
0.000704222
5.73175e-06
0.000713128
8.23372e-06
0.000721668
9.93757e-06
0.000729574
1.08294e-05
0.000736618
1.09532e-05
0.000742557
1.04536e-05
0.000747106
9.50597e-06
0.000749949
8.30969e-06
0.000750792
7.11067e-06
0.000749474
6.21107e-06
0.000746058
5.9083e-06
0.000740846
6.37086e-06
0.000734264
7.58037e-06
0.000726739
9.39013e-06
0.000718606
1.16072e-05
0.000710072
1.40455e-05
0.00070123
1.65632e-05
0.000692108
1.90817e-05
0.000682702
2.1574e-05
0.000672996
2.40449e-05
0.000662957
2.65073e-05
0.000652541
2.8982e-05
0.000641681
3.14995e-05
0.000630302
3.40783e-05
0.000618308
3.67412e-05
0.000605609
3.94772e-05
0.000592105
4.22922e-05
0.000577709
4.51686e-05
0.000562329
4.8111e-05
0.000545874
5.1126e-05
0.000528244
5.4218e-05
0.00050934
5.73809e-05
0.000489039
6.06145e-05
0.000467231
6.38854e-05
0.000443804
6.71655e-05
0.000418662
7.04076e-05
0.000391733
7.35603e-05
0.000362985
7.6573e-05
0.000332408
7.9392e-05
0.000300046
8.19685e-05
0.000265984
8.42567e-05
0.000230343
8.62315e-05
0.000193272
8.79106e-05
0.000154896
8.93405e-05
0.000115521
9.05357e-05
7.64075e-05
8.99898e-05
3.95874e-05
8.64002e-05
9.32749e-05
-8.96187e-06
2.72079e-05
3.44305e-06
-5.20701e-05
2.28948e-05
-7.26822e-05
4.12944e-05
-6.34756e-05
5.53568e-05
-4.56582e-05
6.50509e-05
-3.07307e-05
7.19316e-05
-2.23844e-05
7.774e-05
-1.95505e-05
8.35729e-05
-1.94755e-05
8.97389e-05
-1.97919e-05
9.5996e-05
-1.9244e-05
0.000101885
-1.74981e-05
0.000106963
-1.47184e-05
0.000110902
-1.1217e-05
0.000113463
-7.25305e-06
0.000114598
-3.14057e-06
0.000114384
9.39233e-07
0.000112856
4.80474e-06
0.00011012
8.30705e-06
0.000106341
1.13295e-05
0.000101705
1.3796e-05
9.64145e-05
1.56693e-05
9.0658e-05
1.69367e-05
8.46114e-05
1.76148e-05
7.84733e-05
1.77459e-05
7.23732e-05
1.73648e-05
6.64499e-05
1.65241e-05
6.08133e-05
1.52806e-05
5.55558e-05
1.36907e-05
5.07394e-05
1.18083e-05
4.64086e-05
9.69397e-06
4.25518e-05
7.40978e-06
3.91595e-05
4.99191e-06
3.62498e-05
2.51199e-06
3.38573e-05
2.57675e-08
3.20847e-05
-2.56914e-06
3.0866e-05
-5.01365e-06
3.02302e-05
-7.33856e-06
3.0249e-05
-9.58253e-06
3.10014e-05
-1.16973e-05
3.25941e-05
-1.37022e-05
3.50994e-05
-1.55825e-05
3.86074e-05
-1.74085e-05
4.31269e-05
-1.91801e-05
4.86412e-05
-2.09365e-05
5.50924e-05
-2.2709e-05
6.24225e-05
-2.45119e-05
7.05603e-05
-2.63603e-05
7.9435e-05
-2.8264e-05
8.89654e-05
-3.02065e-05
9.905e-05
-3.22099e-05
0.000109584
-3.42495e-05
0.00012048
-3.6319e-05
0.000131686
-3.84022e-05
0.000143155
-4.0444e-05
0.000154873
-4.24215e-05
0.000166844
-4.43027e-05
0.000179083
-4.60655e-05
0.000191607
-4.76981e-05
0.000204402
-4.91922e-05
0.000217456
-5.05479e-05
0.000230763
-5.17734e-05
0.000244298
-5.28647e-05
0.000258043
-5.38284e-05
0.000271972
-5.46641e-05
0.00028606
-5.53732e-05
0.000300281
-5.59617e-05
0.000314612
-5.64315e-05
0.00032904
-5.679e-05
0.000343518
-5.70258e-05
0.00035803
-5.71545e-05
0.000372548
-5.71733e-05
0.000387052
-5.70897e-05
0.000401505
-5.68922e-05
0.000415887
-5.65967e-05
0.000430173
-5.62009e-05
0.000444337
-5.5712e-05
0.000458344
-5.51184e-05
0.000472172
-5.44347e-05
0.000485792
-5.36576e-05
0.000499178
-5.27891e-05
0.000512301
-5.18199e-05
0.000525138
-5.07544e-05
0.000537667
-4.9587e-05
0.000549862
-4.83108e-05
0.000561712
-4.69282e-05
0.000573189
-4.5422e-05
0.000584284
-4.37974e-05
0.000594982
-4.20441e-05
0.00060527
-4.01563e-05
0.000615142
-3.8126e-05
0.000624598
-3.59458e-05
0.000633644
-3.36046e-05
0.000642292
-3.10913e-05
0.000650567
-2.83958e-05
0.000658511
-2.55095e-05
0.000666194
-2.243e-05
0.000673696
-1.91628e-05
0.000681136
-1.57347e-05
0.000688625
-1.21986e-05
0.000696252
-8.64842e-06
0.000704029
-5.20899e-06
0.000711781
-2.02014e-06
0.00071922
7.94669e-07
0.000725979
3.17819e-06
0.000731722
5.08719e-06
0.000736079
6.59586e-06
0.000738735
7.79774e-06
0.000739432
8.80918e-06
0.000737992
9.749e-06
0.00073437
1.07331e-05
0.000728708
1.18732e-05
0.000721348
1.3268e-05
0.000712735
1.49839e-05
0.000703276
1.70399e-05
0.000693252
1.94139e-05
0.000682804
2.20549e-05
0.000671955
2.48942e-05
0.00066066
2.78588e-05
0.000648859
3.08824e-05
0.000636514
3.39188e-05
0.000623619
3.69406e-05
0.000610184
3.99419e-05
0.000596233
4.29334e-05
0.000581804
4.59284e-05
0.000566927
4.89547e-05
0.000551643
5.20254e-05
0.000535962
5.51579e-05
0.000519894
5.83604e-05
0.000503425
6.16381e-05
0.000486536
6.49993e-05
0.000469198
6.84639e-05
0.000451368
7.20487e-05
0.000432975
7.57737e-05
0.000413945
7.96446e-05
0.000394172
8.36581e-05
0.000373531
8.78064e-05
0.000351898
9.20406e-05
0.000329141
9.6318e-05
0.000305126
0.000100587
0.00027975
0.000104768
0.000252942
0.000108777
0.000224668
0.000112531
0.000194888
0.000116012
0.000163513
0.000119285
0.000130559
0.000122295
9.69025e-05
0.000124192
6.49735e-05
0.000121919
3.57052e-05
0.000115668
0.00012898
-1.102e-05
3.82279e-05
-1.67973e-07
-6.29221e-05
1.89765e-05
-9.18266e-05
3.80998e-05
-8.2599e-05
5.33724e-05
-6.09308e-05
6.43006e-05
-4.16589e-05
7.22735e-05
-3.03573e-05
7.90802e-05
-2.63571e-05
8.60031e-05
-2.63985e-05
9.35075e-05
-2.72962e-05
0.000101346
-2.70822e-05
0.000108934
-2.50863e-05
0.00011566
-2.1445e-05
0.000121059
-1.66154e-05
0.000124886
-1.10805e-05
0.000127014
-5.26875e-06
0.000127458
4.96107e-07
0.000126349
5.91342e-06
0.000123836
1.08198e-05
0.000120133
1.50322e-05
0.000115447
1.84825e-05
0.000109981
2.11347e-05
0.000103962
2.29557e-05
9.75782e-05
2.3999e-05
9.1007e-05
2.43171e-05
8.43982e-05
2.39736e-05
7.78845e-05
2.30378e-05
7.15771e-05
2.1588e-05
6.5575e-05
1.96928e-05
5.9965e-05
1.74183e-05
5.48043e-05
1.48548e-05
5.01865e-05
1.20275e-05
4.61325e-05
9.04592e-06
4.26877e-05
5.95677e-06
3.99493e-05
2.7642e-06
3.78025e-05
-4.22344e-07
3.63586e-05
-3.56979e-06
3.57175e-05
-6.69746e-06
3.59048e-05
-9.76979e-06
3.69378e-05
-1.27302e-05
3.8836e-05
-1.56005e-05
4.16475e-05
-1.83941e-05
4.53404e-05
-2.11014e-05
4.99001e-05
-2.37398e-05
5.52932e-05
-2.63296e-05
6.14814e-05
-2.88972e-05
6.84249e-05
-3.14554e-05
7.60838e-05
-3.40191e-05
8.44203e-05
-3.66005e-05
9.33843e-05
-3.91705e-05
0.000102928
-4.17533e-05
0.000113005
-4.43268e-05
0.000123561
-4.68746e-05
0.000134534
-4.93752e-05
0.000145892
-5.18018e-05
0.000157605
-5.41349e-05
0.000169659
-5.63562e-05
0.000182038
-5.84446e-05
0.000194725
-6.03859e-05
0.000207712
-6.21788e-05
0.000220987
-6.38233e-05
0.000234529
-6.53149e-05
0.000248317
-6.66529e-05
0.000262326
-6.78372e-05
0.00027653
-6.88682e-05
0.00029091
-6.97532e-05
0.000305433
-7.04851e-05
0.000320076
-7.10742e-05
0.000334803
-7.15169e-05
0.000349592
-7.18154e-05
0.000364414
-7.19763e-05
0.000379239
-7.19978e-05
0.000394033
-7.18836e-05
0.000408772
-7.16319e-05
0.000423426
-7.12501e-05
0.000437964
-7.07394e-05
0.000452354
-7.01015e-05
0.000466571
-6.93355e-05
0.000480582
-6.8446e-05
0.000494359
-6.74342e-05
0.000507868
-6.62988e-05
0.00052109
-6.50416e-05
0.000533997
-6.36609e-05
0.000546563
-6.21536e-05
0.000558772
-6.05191e-05
0.0005706
-5.87562e-05
0.000582036
-5.68589e-05
0.000593068
-5.48289e-05
0.000603684
-5.26606e-05
0.000613879
-5.03514e-05
0.000623648
-4.78947e-05
0.000632989
-4.5287e-05
0.000641911
-4.25264e-05
0.000650426
-3.96062e-05
0.000658555
-3.65248e-05
0.000666326
-3.32805e-05
0.000673775
-2.98793e-05
0.00068095
-2.63374e-05
0.000687891
-2.26761e-05
0.000694628
-1.89352e-05
0.000701158
-1.51787e-05
0.000707426
-1.14766e-05
0.00071331
-7.90429e-06
0.000718635
-4.53043e-06
0.0007232
-1.387e-06
0.000726779
1.50887e-06
0.00072919
4.1849e-06
0.00073032
6.66723e-06
0.00073011
9.01878e-06
0.000728548
1.13118e-05
0.000725648
1.3633e-05
0.000721445
1.60762e-05
0.000715987
1.87263e-05
0.000709331
2.16399e-05
0.000701537
2.48339e-05
0.000692663
2.82878e-05
0.000682761
3.1957e-05
0.00067187
3.5785e-05
0.000660014
3.97147e-05
0.000647203
4.36929e-05
0.000633446
4.76765e-05
0.000618745
5.16417e-05
0.000603125
5.5561e-05
0.000586634
5.9425e-05
0.000569326
6.32359e-05
0.000551279
6.70023e-05
0.00053257
7.07347e-05
0.000513279
7.44487e-05
0.000493488
7.81516e-05
0.000473265
8.18604e-05
0.000452674
8.55901e-05
0.000431773
8.93655e-05
0.000410607
9.32146e-05
0.000389217
9.71641e-05
0.000367622
0.000101239
0.000345823
0.000105457
0.000323812
0.000109818
0.000301539
0.000114313
0.00027894
0.000118917
0.000255942
0.000123586
0.000232466
0.000128244
0.000208442
0.0001328
0.000183782
0.000137191
0.000158306
0.000141488
0.000131748
0.000145844
0.000104179
0.000149863
7.71604e-05
0.000151211
5.32037e-05
0.000145876
3.12284e-05
0.000137644
0.000160209
-1.37753e-05
5.20032e-05
-5.36218e-06
-7.13353e-05
1.26119e-05
-0.000109801
3.20576e-05
-0.000102045
4.85739e-05
-7.74471e-05
6.08895e-05
-5.39745e-05
7.00854e-05
-3.95532e-05
7.80609e-05
-3.43327e-05
8.63365e-05
-3.4674e-05
9.54843e-05
-3.64441e-05
0.000105187
-3.67852e-05
0.000114644
-3.45426e-05
0.000122979
-2.97807e-05
0.000129529
-2.31653e-05
0.000133899
-1.54503e-05
0.000135965
-7.33506e-06
0.000135903
5.58066e-07
0.000133901
7.91631e-06
0.000130266
1.44542e-05
0.000125263
2.00352e-05
0.000119198
2.45478e-05
0.000112374
2.79587e-05
0.000105024
3.03052e-05
9.73759e-05
3.16476e-05
8.96295e-05
3.20635e-05
8.19562e-05
3.16469e-05
7.45011e-05
3.04929e-05
6.73825e-05
2.87066e-05
6.06903e-05
2.6385e-05
5.45295e-05
2.35791e-05
4.8948e-05
2.04363e-05
4.39536e-05
1.70219e-05
3.9616e-05
1.33835e-05
3.59681e-05
9.6047e-06
3.30078e-05
5.72454e-06
3.07895e-05
1.79592e-06
2.94424e-05
-2.22266e-06
2.89143e-05
-6.16939e-06
2.91966e-05
-1.00521e-05
3.0343e-05
-1.38766e-05
3.23667e-05
-1.76242e-05
3.52693e-05
-2.12967e-05
3.90572e-05
-2.48893e-05
4.37633e-05
-2.8446e-05
4.93399e-05
-3.19062e-05
5.57472e-05
-3.53044e-05
6.29497e-05
-3.8658e-05
7.08923e-05
-4.19617e-05
7.951e-05
-4.52182e-05
8.87642e-05
-4.84248e-05
9.8593e-05
-5.15821e-05
0.000108947
-5.46805e-05
0.00011978
-5.77076e-05
0.000131048
-6.06436e-05
0.000142728
-6.34817e-05
0.00015478
-6.6187e-05
0.000167183
-6.87594e-05
0.000179921
-7.11821e-05
0.000192979
-7.34448e-05
0.000206338
-7.55377e-05
0.000219978
-7.74632e-05
0.000233876
-7.92128e-05
0.000248008
-8.07848e-05
0.000262351
-8.21798e-05
0.000276881
-8.33986e-05
0.000291572
-8.44444e-05
0.000306394
-8.53069e-05
0.000321319
-8.59987e-05
0.000336318
-8.65162e-05
0.000351369
-8.68667e-05
0.000366431
-8.70381e-05
0.000381479
-8.70463e-05
0.000396484
-8.68884e-05
0.000411421
-8.65684e-05
0.000426255
-8.60842e-05
0.000440957
-8.54418e-05
0.000455502
-8.46461e-05
0.000469858
-8.36918e-05
0.000483998
-8.25861e-05
0.000497896
-8.13315e-05
0.000511524
-7.99269e-05
0.000524856
-7.83738e-05
0.000537876
-7.66807e-05
0.000550556
-7.48334e-05
0.000562882
-7.28455e-05
0.000574838
-7.07121e-05
0.000586413
-6.84341e-05
0.000597594
-6.60097e-05
0.000608373
-6.34399e-05
0.000618747
-6.07254e-05
0.000628714
-5.78617e-05
0.000638273
-5.48455e-05
0.000647428
-5.16813e-05
0.000656189
-4.83671e-05
0.000664569
-4.49052e-05
0.000672581
-4.12921e-05
0.000680249
-3.75478e-05
0.000687583
-3.36713e-05
0.000694599
-2.96926e-05
0.000701304
-2.56398e-05
0.000707675
-2.15495e-05
0.000713667
-1.7469e-05
0.000719204
-1.34406e-05
0.000724175
-9.50146e-06
0.000728458
-5.67046e-06
0.00073191
-1.9433e-06
0.000734411
1.68434e-06
0.000735849
5.2289e-06
0.000736106
8.76146e-06
0.000735093
1.23249e-05
0.000732755
1.59718e-05
0.00072908
1.97504e-05
0.000724105
2.3702e-05
0.000717892
2.78523e-05
0.000710516
3.22096e-05
0.000702039
3.67653e-05
0.000692502
4.14941e-05
0.000681928
4.63589e-05
0.000670321
5.13214e-05
0.000657672
5.63426e-05
0.000643971
6.13774e-05
0.000629212
6.63999e-05
0.000613393
7.13808e-05
0.000596515
7.63023e-05
0.000578608
8.11431e-05
0.000559714
8.58964e-05
0.000539894
9.0555e-05
0.000519217
9.5125e-05
0.000497759
9.96096e-05
0.000475606
0.000104014
0.000452843
0.000108353
0.000429565
0.000112643
0.000405871
0.000116908
0.000381859
0.000121176
0.000357629
0.00012547
0.000333271
0.000129814
0.000308865
0.000134224
0.000284472
0.000138706
0.000260135
0.000143254
0.000235881
0.000147839
0.000211723
0.000152403
0.000187657
0.000156866
0.000163624
0.000161224
0.000139454
0.000165658
0.000114914
0.000170383
9.02684e-05
0.000174509
6.71268e-05
0.000174353
4.72555e-05
0.000165747
2.85096e-05
0.00015639
0.000188718
-1.73453e-05
6.93485e-05
-1.31013e-05
-7.55793e-05
1.47385e-06
-0.000124376
2.0299e-05
-0.00012087
3.81387e-05
-9.52868e-05
5.26199e-05
-6.84557e-05
6.42407e-05
-5.11741e-05
7.47845e-05
-4.48764e-05
8.58798e-05
-4.57694e-05
9.8116e-05
-4.86803e-05
0.000111044
-4.97137e-05
0.000123542
-4.70401e-05
0.000134347
-4.05861e-05
0.000142496
-3.13143e-05
0.000147474
-2.04277e-05
0.000149227
-9.0879e-06
0.000148084
1.7006e-06
0.000144476
1.15244e-05
0.000138856
2.00738e-05
0.000131721
2.71707e-05
0.000123483
3.27861e-05
0.00011451
3.69313e-05
0.000105135
3.96805e-05
9.56432e-05
4.11391e-05
8.62497e-05
4.1457e-05
7.71265e-05
4.07701e-05
6.84152e-05
3.92041e-05
6.0241e-05
3.68809e-05
5.27148e-05
3.39112e-05
4.58247e-05
3.04692e-05
3.96298e-05
2.66311e-05
3.42065e-05
2.24452e-05
2.95858e-05
1.80042e-05
2.5803e-05
1.33875e-05
2.28889e-05
8.63866e-06
2.08447e-05
3.84008e-06
1.95918e-05
-9.69717e-07
1.92429e-05
-5.82055e-06
1.97826e-05
-1.05918e-05
2.12372e-05
-1.53312e-05
2.3585e-05
-1.99719e-05
2.68115e-05
-2.45231e-05
3.09209e-05
-2.89987e-05
3.58355e-05
-3.33606e-05
4.16015e-05
-3.76722e-05
4.81791e-05
-4.1882e-05
5.5522e-05
-4.60009e-05
6.35827e-05
-5.00224e-05
7.23282e-05
-5.39637e-05
8.17135e-05
-5.78101e-05
9.16927e-05
-6.15613e-05
0.000102221
-6.52088e-05
0.000113257
-6.87433e-05
0.000124765
-7.21516e-05
0.000136702
-7.54186e-05
0.000149047
-7.85327e-05
0.000161771
-8.14834e-05
0.000174849
-8.42603e-05
0.000188255
-8.68503e-05
0.000201971
-8.92538e-05
0.000215968
-9.14601e-05
0.000230223
-9.34682e-05
0.000244711
-9.52725e-05
0.000259407
-9.68755e-05
0.000274284
-9.82755e-05
0.00028931
-9.94707e-05
0.000304464
-0.000100461
0.000319712
-0.000101247
0.000335029
-0.000101833
0.00035038
-0.000102218
0.000365743
-0.0001024
0.000381083
-0.000102387
0.000396374
-0.000102179
0.000411584
-0.000101779
0.000426687
-0.000101187
0.000441653
-0.000100408
0.000456458
-9.94512e-05
0.000471068
-9.83022e-05
0.000485462
-9.69793e-05
0.000499613
-9.54834e-05
0.000513496
-9.38092e-05
0.00052709
-9.19678e-05
0.000540372
-8.99631e-05
0.000553326
-8.77873e-05
0.000565934
-8.54536e-05
0.000578181
-8.29591e-05
0.000590055
-8.03081e-05
0.000601546
-7.75005e-05
0.000612652
-7.45458e-05
0.000623356
-7.14295e-05
0.000633661
-6.81666e-05
0.000643569
-6.47536e-05
0.00065308
-6.11927e-05
0.0006622
-5.74869e-05
0.000670932
-5.36368e-05
0.000679288
-4.96486e-05
0.00068727
-4.55291e-05
0.000694886
-4.12874e-05
0.000702133
-3.694e-05
0.000708999
-3.25054e-05
0.000715454
-2.80046e-05
0.000721448
-2.34633e-05
0.000726913
-1.89055e-05
0.000731763
-1.4352e-05
0.000735899
-9.8065e-06
0.000739224
-5.26754e-06
0.000741647
-7.38576e-07
0.000743042
3.83388e-06
0.000743356
8.44667e-06
0.000742539
1.31419e-05
0.000740556
1.7955e-05
0.000737387
2.29193e-05
0.000733031
2.80587e-05
0.000727493
3.33897e-05
0.00072079
3.89127e-05
0.00071294
4.46158e-05
0.000703963
5.04706e-05
0.000693869
5.64526e-05
0.00068267
6.25207e-05
0.000670376
6.86363e-05
0.000656982
7.47719e-05
0.000642494
8.08879e-05
0.000626917
8.6958e-05
0.000610263
9.29562e-05
0.000592547
9.88588e-05
0.00057379
0.000104654
0.000554021
0.000110324
0.000533285
0.000115861
0.000511635
0.00012126
0.000489132
0.000126517
0.000465849
0.000131636
0.000441867
0.000136625
0.000417279
0.000141496
0.000392189
0.000146266
0.000366709
0.00015095
0.000340957
0.000155567
0.000315049
0.000160132
0.000289099
0.000164656
0.000263212
0.00016914
0.00023748
0.000173571
0.000211983
0.0001779
0.000186782
0.000182067
0.000161892
0.000186114
0.000137252
0.000190299
0.000112776
0.000194858
8.87235e-05
0.000198562
6.61525e-05
0.000196924
4.62825e-05
0.000185617
2.74229e-05
0.000175249
0.000216141
-2.22747e-05
9.16233e-05
-2.51904e-05
-7.26636e-05
-1.60884e-05
-0.000133478
1.06668e-06
-0.000138025
1.91352e-05
-0.000113355
3.54296e-05
-8.47501e-05
5.05031e-05
-6.62475e-05
6.58653e-05
-6.02386e-05
8.25428e-05
-6.24468e-05
0.000100609
-6.67469e-05
0.000119192
-6.8296e-05
0.000136691
-6.45398e-05
0.000151378
-5.52726e-05
0.000161892
-4.18279e-05
0.000167638
-2.61742e-05
0.000168784
-1.02338e-05
0.000166013
4.47139e-06
0.00016006
1.74776e-05
0.000151729
2.84049e-05
0.000141685
3.72142e-05
0.000130563
4.39087e-05
0.000118874
4.86204e-05
0.000107
5.15536e-05
9.52427e-05
5.28968e-05
8.38662e-05
5.28335e-05
7.30458e-05
5.15905e-05
6.28989e-05
4.9351e-05
5.35691e-05
4.62107e-05
4.50275e-05
4.24528e-05
3.73638e-05
3.81329e-05
3.06332e-05
3.33618e-05
2.48071e-05
2.82713e-05
1.99333e-05
2.2878e-05
1.59835e-05
1.73372e-05
1.29596e-05
1.16626e-05
1.087e-05
5.92962e-06
9.73519e-06
1.65112e-07
9.51026e-06
-5.59562e-06
1.02228e-05
-1.13043e-05
1.18095e-05
-1.69179e-05
1.4311e-05
-2.24735e-05
1.77108e-05
-2.79229e-05
2.19825e-05
-3.32704e-05
2.71057e-05
-3.84838e-05
3.30279e-05
-4.35945e-05
3.97509e-05
-4.8605e-05
4.72497e-05
-5.34997e-05
5.54867e-05
-5.82594e-05
6.44093e-05
-6.28863e-05
7.39771e-05
-6.73779e-05
8.415e-05
-7.17342e-05
9.48914e-05
-7.59502e-05
0.000106162
-8.00136e-05
0.000117918
-8.39075e-05
0.000130132
-8.76332e-05
0.000142775
-9.11753e-05
0.000155811
-9.45196e-05
0.000169217
-9.7666e-05
0.00018297
-0.000100604
0.000197038
-0.000103321
0.000211396
-0.000105818
0.000226018
-0.000108091
0.000240881
-0.000110136
0.000255952
-0.000111946
0.000271202
-0.000113526
0.000286606
-0.000114875
0.000302135
-0.000115989
0.000317758
-0.00011687
0.000333445
-0.00011752
0.000349169
-0.000117942
0.0003649
-0.000118131
0.000380605
-0.000118093
0.000396258
-0.000117832
0.000411829
-0.00011735
0.000427288
-0.000116646
0.00044261
-0.000115729
0.000457766
-0.000114608
0.000472725
-0.000113261
0.000487464
-0.000111718
0.000501963
-0.000109982
0.000516189
-0.000108035
0.000530125
-0.000105903
0.000543748
-0.000103586
0.000557042
-0.000101082
0.00056999
-9.84018e-05
0.000582578
-9.55469e-05
0.000594792
-9.25224e-05
0.000606623
-8.93308e-05
0.000618056
-8.59792e-05
0.000629094
-8.24676e-05
0.000639731
-7.88033e-05
0.00064997
-7.49928e-05
0.000659809
-7.10315e-05
0.000669244
-6.69222e-05
0.000678282
-6.26743e-05
0.000686925
-5.82923e-05
0.000695177
-5.37812e-05
0.000703031
-4.9141e-05
0.000710481
-4.43894e-05
0.000717503
-3.95282e-05
0.000724074
-3.45752e-05
0.000730144
-2.95336e-05
0.00073566
-2.4421e-05
0.000740545
-1.92375e-05
0.000744723
-1.39842e-05
0.00074811
-8.65447e-06
0.000750603
-3.2322e-06
0.000752147
2.2908e-06
0.000752661
7.93176e-06
0.000752081
1.37224e-05
0.000750359
1.96772e-05
0.000747465
2.58128e-05
0.000743385
3.21386e-05
0.000738123
3.86521e-05
0.000731686
4.53492e-05
0.000724092
5.22105e-05
0.000715346
5.9216e-05
0.000705472
6.6327e-05
0.000694476
7.35165e-05
0.000682362
8.07502e-05
0.000669151
8.79827e-05
0.000654847
9.51919e-05
0.000639462
0.000102344
0.000623013
0.000109404
0.000605515
0.000116357
0.000586988
0.00012318
0.000567466
0.000129846
0.000546979
0.000136348
0.000525566
0.000142672
0.000503272
0.000148811
0.00048015
0.000154758
0.000456263
0.000160513
0.000431682
0.000166077
0.000406492
0.000171456
0.000380786
0.000176657
0.000354665
0.000181687
0.000328242
0.000186555
0.00030163
0.000191268
0.000274943
0.000195827
0.000248291
0.000200223
0.000221773
0.000204418
0.000195478
0.000208362
0.000169485
0.000212106
0.00014383
0.000215954
0.000118508
0.00022018
9.36048e-05
0.000223465
6.96588e-05
0.00022087
4.7785e-05
0.000207491