/*--------------------------------*- C++ -*----------------------------------*\
| =========                 |                                                 |
| \\      /  F ield         | OpenFOAM: The Open Source CFD Toolbox           |
|  \\    /   O peration     | Version:  v2006                                 |
|   \\  /    A nd           | Website:  www.openfoam.com                      |
|    \\/     M anipulation  |                                                 |
\*---------------------------------------------------------------------------*/
FoamFile
{
    version     2.0;
    format      ascii;
    class       volScalarField;
    location    "1.7";
    object      p;
}
// * * * * * * * * * * * * * * * * * * * * * * * * * * * * * * * * * * * * * //

dimensions      [1 -1 -2 0 0 0 0];


internalField   nonuniform List<scalar> 
150000
(
19110
19109.9
19103.5
19101.8
19091.2
19085.7
19073.3
19062.5
19048.2
19032.8
19015.6
18996.8
18976.3
18954.3
18930.7
18905.5
18878.9
18850.7
18821.2
18790.2
18757.8
18724
18689
18652.7
18615.2
18576.5
18536.7
18495.7
18453.7
18410.7
18366.9
18322.1
18276.5
18230.1
18183
18135.3
18087
18038.1
17988.7
17938.9
17888.7
17838.3
17787.6
17736.7
17685.7
17634.6
17583.5
17532.4
17481.5
17430.7
17380.1
17329.8
17279.8
17230.2
17181
17132.2
17083.9
17036.2
16989.1
16942.7
16896.9
16851.8
16807.4
16763.9
16721.1
16679.2
16638.1
16597.9
16558.7
16520.3
16483
16446.6
16411.1
16376.7
16343.3
16310.9
16279.6
16249.3
16220
16191.8
16164.6
16138.5
16113.4
16089.4
16066.4
16044.5
16023.6
16003.7
15984.8
15967
15950.2
15934.4
15919.5
15905.6
15892.7
15880.7
15869.7
15859.6
15850.4
15842
15834.6
15828
15822.2
15817.3
15813.2
15809.9
15807.4
15805.6
15804.6
15804.4
15804.8
15806
15807.9
15810.5
15813.7
15817.7
15822.2
15827.5
15833.3
15839.8
15846.9
15854.6
15862.9
15871.8
15881.3
15891.3
15902
15913.2
15924.9
15937.2
15950
15963.4
15977.2
15991.6
16006.5
16021.9
16037.8
16054.2
16071.1
16088.4
16106.2
16124.5
16143.1
16162.2
16181.8
16201.7
16222
16242.7
16263.8
16285.3
16307.1
16329.3
16351.9
16374.7
16397.9
16421.4
16445.2
16469.3
16493.7
16518.3
16543.3
16568.4
16593.9
16619.6
16645.5
16671.7
16698
16724.7
16751.5
16778.5
16805.7
16833.1
16860.8
16888.6
16916.6
16944.8
16973.1
17001.7
17030.4
17059.3
17088.4
17117.7
17147.1
17176.8
17206.6
17236.6
17266.8
17297.1
17327.7
17358.5
17389.5
17420.6
17452
17483.7
17515.5
17547.6
17579.9
17612.5
17645.3
17678.4
17711.7
17745.4
17779.3
17813.5
17848
17882.9
17918
17953.5
17989.3
18025.5
18062
18098.9
18136.2
18173.8
18211.8
18250.2
18288.9
18328.1
18367.7
18407.7
18448.1
18488.9
18530.2
18571.9
18614
18656.5
18699.4
18742.8
18786.6
18830.9
18875.6
18920.7
18966.2
19012.2
19058.5
19105.3
19152.5
19200.2
19248.2
19296.6
19345.5
19394.7
19444.2
19494.2
19544.5
19595.2
19646.2
19697.6
19749.3
19801.2
19853.5
19906.1
19959
20012.1
20065.5
20119.1
20173
20227.1
20281.3
20335.8
20390.4
20445.2
20500.1
20555.2
20610.3
20665.6
20720.9
20776.3
20831.8
20887.3
20942.8
20998.2
21053.7
21109.2
21164.5
21219.9
21275.1
21330.2
21385.2
21440.1
21494.9
21549.4
21603.8
21658
21712
21765.8
21819.3
21872.6
21925.6
21978.3
22030.7
22082.9
22134.7
22186.1
22237.3
22288.1
22338.5
22388.6
22438.2
22487.5
22536.5
22585
22633.1
22680.7
22727.9
22774.8
22821.2
22867.1
22912.6
22957.7
23002.3
23046.5
23090.2
23133.5
23176.3
23218.6
23260.6
23302
23343
23383.6
23423.7
23463.3
23502.5
23541.3
23579.6
23617.4
23654.8
23691.8
23728.4
23764.5
23800.2
23835.4
23870.3
23904.7
23938.7
23972.3
24005.5
24038.2
24070.6
24102.6
24134.1
24165.3
24196.1
24226.5
24256.5
24286.1
24315.3
24344.2
24372.6
24400.7
24428.5
24455.8
24482.8
24509.4
24535.6
24561.5
24587
24612.1
24636.8
24661.2
24685.2
24708.9
24732.1
24755
24777.5
24799.7
24821.4
24842.8
24863.8
24884.4
24904.6
24924.4
24943.8
24962.8
24981.5
24999.7
25017.5
25034.9
25051.9
25068.4
25084.6
25100.3
25115.5
25130.4
25144.8
25158.7
25172.2
25185.3
25197.9
25210
25221.7
25232.9
25243.6
25253.9
25263.7
25273
25281.8
25290.1
25297.9
25305.3
25312.1
25318.5
25324.4
25329.8
25334.6
25339
25342.9
25346.3
25349.2
25351.7
25353.6
25355
25356
25356.5
25356.5
25356
25355.1
25353.7
25351.9
25349.6
25346.9
25343.8
25340.2
25336.3
25331.9
25327.1
25322
25316.4
25310.5
25304.3
25297.7
25290.9
25283.7
25276.2
25268.4
25260.3
25252
25243.5
25234.7
25225.7
25216.6
25207.2
25197.7
25188
25178.2
25168.3
25158.3
25148.2
25138
25127.8
25117.5
25107.2
25096.9
25086.7
25076.4
25066.1
25056
25045.8
25035.8
25025.8
25015.9
25006.2
24996.6
24987.1
24977.7
24968.5
24959.5
24950.7
24942
24933.5
24925.3
24917.2
24909.4
24901.8
24894.4
24887.3
24880.4
24873.8
24867.4
24861.3
24855.4
24849.9
24844.6
24839.5
24834.8
24830.4
24825.9
24822.8
24817.9
24816.3
24811.3
24810.9
24805.9
24806.6
24801.9
24803.2
24799.4
24800.8
24798.5
24799
18784
18785
18776.5
18777.7
18763.7
18761.8
18746.2
18737.6
18722.1
18707.1
18689.8
18671
18650.5
18628.4
18604.8
18579.6
18553
18524.8
18495.2
18464.1
18431.7
18398
18362.9
18326.5
18289
18250.2
18210.3
18169.3
18127.3
18084.3
18040.4
17995.6
17950
17903.5
17856.4
17808.7
17760.3
17711.4
17662
17612.1
17561.9
17511.4
17460.7
17409.8
17358.7
17307.6
17256.5
17205.4
17154.4
17103.6
17052.9
17002.6
16952.5
16902.9
16853.6
16804.8
16756.6
16708.8
16661.7
16615.2
16569.4
16524.2
16479.9
16436.3
16393.5
16351.5
16310.4
16270.3
16231
16192.6
16155.2
16118.8
16083.4
16049
16015.5
15983.2
15951.8
15921.5
15892.2
15864
15836.8
15810.7
15785.6
15761.6
15738.6
15716.7
15695.8
15675.9
15657.1
15639.2
15622.4
15606.6
15591.8
15577.9
15565
15553
15542
15531.9
15522.7
15514.3
15506.9
15500.3
15494.6
15489.7
15485.6
15482.3
15479.8
15478
15477.1
15476.8
15477.3
15478.5
15480.4
15483
15486.2
15490.2
15494.8
15500
15505.9
15512.4
15519.5
15527.2
15535.5
15544.4
15553.9
15563.9
15574.6
15585.8
15597.5
15609.8
15622.6
15636
15649.9
15664.3
15679.2
15694.6
15710.5
15726.9
15743.8
15761.1
15778.9
15797.1
15815.8
15834.9
15854.4
15874.3
15894.7
15915.4
15936.5
15958
15979.9
16002.1
16024.6
16047.5
16070.7
16094.2
16118
16142.1
16166.5
16191.1
16216.1
16241.3
16266.7
16292.4
16318.4
16344.5
16370.9
16397.5
16424.3
16451.4
16478.6
16506
16533.7
16561.5
16589.5
16617.7
16646.1
16674.6
16703.3
16732.2
16761.3
16790.6
16820
16849.7
16879.5
16909.5
16939.6
16970
17000.6
17031.3
17062.3
17093.5
17124.9
17156.5
17188.3
17220.4
17252.7
17285.3
17318.1
17351.2
17384.5
17418.2
17452.1
17486.3
17520.8
17555.6
17590.8
17626.3
17662.1
17698.2
17734.7
17771.6
17808.9
17846.5
17884.5
17922.8
17961.6
18000.8
18040.4
18080.4
18120.8
18161.6
18202.8
18244.5
18286.6
18329.1
18372.1
18415.5
18459.3
18503.6
18548.2
18593.4
18638.9
18684.8
18731.2
18778
18825.2
18872.9
18920.9
18969.3
19018.2
19067.4
19116.9
19166.9
19217.2
19267.9
19318.9
19370.3
19422
19474
19526.3
19578.9
19631.7
19684.9
19738.3
19791.9
19845.8
19899.8
19954.1
20008.6
20063.2
20118
20172.9
20228
20283.2
20338.5
20393.8
20449.2
20504.7
20560.2
20615.7
20671.2
20726.6
20782.1
20837.5
20892.8
20948.1
21003.2
21058.2
21113.1
21167.9
21222.5
21276.9
21331.1
21385.1
21438.8
21492.4
21545.7
21598.7
21651.4
21703.8
21756
21807.8
21859.3
21910.4
21961.2
22011.6
22061.7
22111.4
22160.6
22209.5
22258
22306
22353.7
22400.9
22447.8
22494.2
22540.1
22585.7
22630.7
22675.4
22719.5
22763.3
22806.5
22849.4
22891.7
22933.6
22975.1
23016.1
23056.6
23096.7
23136.4
23175.6
23214.4
23252.7
23290.5
23327.9
23364.9
23401.5
23437.6
23473.3
23508.6
23543.4
23577.8
23611.8
23645.4
23678.6
23711.3
23743.7
23775.7
23807.2
23838.4
23869.2
23899.6
23929.6
23959.2
23988.4
24017.3
24045.8
24073.9
24101.6
24128.9
24155.9
24182.5
24208.8
24234.6
24260.1
24285.2
24310
24334.4
24358.4
24382
24405.3
24428.2
24450.7
24472.8
24494.6
24516
24537
24557.6
24577.8
24597.6
24617
24636.1
24654.7
24672.9
24690.7
24708.1
24725.1
24741.7
24757.8
24773.5
24788.8
24803.7
24818.1
24832
24845.5
24858.6
24871.2
24883.3
24895
24906.2
24916.9
24927.2
24937
24946.3
24955.1
24963.4
24971.3
24978.6
24985.5
24991.9
24997.7
25003.1
25008
25012.4
25016.3
25019.7
25022.6
25025
25027
25028.4
25029.4
25029.8
25029.9
25029.4
25028.5
25027.1
25025.2
25023
25020.3
25017.1
25013.5
25009.6
25005.2
25000.4
24995.2
24989.7
24983.8
24977.6
24971
24964.1
24956.9
24949.4
24941.6
24933.5
24925.2
24916.6
24907.9
24898.9
24889.7
24880.3
24870.8
24861.1
24851.3
24841.4
24831.4
24821.2
24811.1
24800.8
24790.6
24780.3
24769.9
24759.6
24749.4
24739.1
24728.9
24718.8
24708.7
24698.7
24688.9
24679.1
24669.5
24660
24650.6
24641.4
24632.4
24623.5
24614.9
24606.4
24598.1
24590.1
24582.2
24574.6
24567.3
24560.1
24553.3
24546.6
24540.2
24534.1
24528.3
24522.7
24517.4
24512.4
24507.6
24503.2
24498.8
24495.4
24491
24488.8
24484.4
24483.4
24479.1
24479
24475.1
24475.7
24472.5
24473.3
24471.4
24471.8
18458.2
18460.8
18450.9
18453.8
18436.6
18438.7
18419.3
18414.6
18396.4
18382.6
18364.9
18346.2
18325.7
18303.5
18279.9
18254.7
18228
18199.8
18170.1
18139.1
18106.6
18072.8
18037.6
18001.2
17963.6
17924.8
17884.8
17843.8
17801.7
17758.6
17714.6
17669.7
17624
17577.6
17530.4
17482.5
17434
17385
17335.6
17285.7
17235.4
17184.8
17134
17082.9
17031.8
16980.6
16929.4
16878.2
16827.2
16776.2
16725.6
16675.1
16625
16575.3
16526
16477.1
16428.8
16381
16333.8
16287.2
16241.3
16196.2
16151.7
16108.1
16065.3
16023.3
15982.1
15941.9
15902.6
15864.2
15826.8
15790.4
15754.9
15720.5
15687
15654.6
15623.2
15592.9
15563.6
15535.4
15508.2
15482.1
15457
15433
15410
15388.1
15367.2
15347.3
15328.5
15310.7
15293.9
15278.1
15263.3
15249.4
15236.5
15224.6
15213.6
15203.5
15194.3
15186
15178.6
15172
15166.3
15161.4
15157.3
15154.1
15151.6
15149.9
15148.9
15148.7
15149.2
15150.4
15152.3
15154.9
15158.2
15162.2
15166.8
15172
15177.9
15184.4
15191.6
15199.3
15207.6
15216.5
15226
15236.1
15246.8
15258
15269.7
15282
15294.9
15308.3
15322.2
15336.6
15351.5
15366.9
15382.8
15399.2
15416.1
15433.5
15451.3
15469.5
15488.2
15507.3
15526.9
15546.8
15567.2
15587.9
15609
15630.5
15652.4
15674.6
15697.1
15720
15743.2
15766.7
15790.5
15814.7
15839.1
15863.7
15888.7
15913.9
15939.4
15965.1
15991
16017.2
16043.6
16070.2
16097
16124.1
16151.3
16178.8
16206.4
16234.2
16262.2
16290.4
16318.8
16347.3
16376.1
16405
16434.1
16463.3
16492.8
16522.4
16552.2
16582.2
16612.4
16642.7
16673.3
16704.1
16735
16766.2
16797.6
16829.2
16861
16893.1
16925.4
16957.9
16990.7
17023.8
17057.1
17090.7
17124.6
17158.8
17193.3
17228.1
17263.3
17298.7
17334.5
17370.7
17407.2
17444
17481.2
17518.8
17556.8
17595.2
17634
17673.1
17712.7
17752.7
17793.1
17833.9
17875.1
17916.8
17958.9
18001.4
18044.3
18087.7
18131.5
18175.8
18220.5
18265.6
18311.1
18357.1
18403.4
18450.2
18497.5
18545.1
18593.1
18641.6
18690.4
18739.6
18789.2
18839.2
18889.5
18940.2
18991.2
19042.6
19094.3
19146.3
19198.6
19251.3
19304.1
19357.3
19410.7
19464.4
19518.3
19572.4
19626.7
19681.1
19735.8
19790.6
19845.6
19900.7
19955.9
20011.2
20066.5
20122
20177.5
20233
20288.5
20344
20399.5
20455
20510.4
20565.8
20621.1
20676.2
20731.3
20786.2
20841
20895.6
20950
21004.3
21058.3
21112.1
21165.6
21219
21272
21324.7
21377.2
21429.4
21481.2
21532.7
21583.9
21634.7
21685.1
21735.2
21784.9
21834.2
21883.1
21931.6
21979.7
22027.4
22074.7
22121.4
22167.8
22213.8
22259.3
22304.3
22349
22393.1
22436.9
22480.1
22522.9
22565.3
22607.2
22648.7
22689.6
22730.2
22770.3
22809.9
22849.1
22887.8
22926.1
22964
23001.4
23038.4
23074.9
23111
23146.7
23181.9
23216.7
23251.2
23285.1
23318.7
23351.9
23384.6
23417
23448.9
23480.5
23511.6
23542.4
23572.8
23602.8
23632.4
23661.6
23690.4
23718.9
23747
23774.7
23802.1
23829
23855.6
23881.9
23907.7
23933.2
23958.3
23983.1
24007.5
24031.5
24055.1
24078.4
24101.3
24123.8
24145.9
24167.7
24189.1
24210.1
24230.7
24250.9
24270.7
24290.2
24309.2
24327.8
24346.1
24363.9
24381.3
24398.3
24414.9
24431
24446.7
24462
24476.9
24491.3
24505.3
24518.8
24531.9
24544.5
24556.6
24568.3
24579.5
24590.3
24600.6
24610.4
24619.7
24628.5
24636.8
24644.7
24652.1
24658.9
24665.3
24671.2
24676.6
24681.5
24685.9
24689.8
24693.2
24696.1
24698.5
24700.5
24701.9
24702.9
24703.4
24703.4
24702.9
24702
24700.6
24698.8
24696.5
24693.8
24690.6
24687.1
24683.1
24678.7
24673.9
24668.7
24663.2
24657.3
24651
24644.4
24637.5
24630.3
24622.8
24614.9
24606.9
24598.5
24590
24581.2
24572.2
24562.9
24553.6
24544
24534.3
24524.5
24514.5
24504.5
24494.4
24484.2
24473.9
24463.6
24453.3
24443
24432.6
24422.3
24412.1
24401.8
24391.7
24381.6
24371.6
24361.7
24351.9
24342.3
24332.8
24323.4
24314.2
24305.1
24296.3
24287.6
24279.1
24270.8
24262.8
24254.9
24247.3
24239.9
24232.8
24225.9
24219.3
24212.9
24206.8
24200.9
24195.3
24190
24185
24180.2
24175.8
24171.4
24168
24163.6
24161.3
24157.1
24155.8
24151.8
24151.4
24147.8
24148.1
24145.2
24145.7
24144.1
24144.3
18135.4
18136.8
18129
18128.8
18116.4
18113
18098.4
18089.4
18073.8
18058.9
18041.4
18022.6
18002
17979.9
17956.1
17930.9
17904.1
17875.9
17846.1
17815
17782.4
17748.5
17713.3
17676.8
17639.1
17600.1
17560.1
17518.9
17476.7
17433.6
17389.5
17344.5
17298.6
17252
17204.7
17156.7
17108.1
17059
17009.4
16959.4
16909
16858.3
16807.3
16756.2
16704.9
16653.6
16602.3
16551
16499.8
16448.8
16398
16347.4
16297.2
16247.4
16198
16149
16100.6
16052.7
16005.4
15958.7
15912.8
15867.5
15823
15779.3
15736.4
15694.4
15653.2
15612.9
15573.5
15535.1
15497.7
15461.2
15425.7
15391.2
15357.7
15325.3
15293.9
15263.6
15234.3
15206
15178.8
15152.7
15127.6
15103.6
15080.6
15058.7
15037.8
15018
14999.2
14981.4
14964.6
14948.8
14934
14920.2
14907.3
14895.4
14884.4
14874.4
14865.2
14857
14849.6
14843
14837.4
14832.5
14828.5
14825.3
14822.8
14821.1
14820.2
14820
14820.6
14821.8
14823.8
14826.4
14829.7
14833.7
14838.3
14843.6
14849.5
14856.1
14863.2
14871
14879.3
14888.3
14897.8
14907.9
14918.6
14929.8
14941.6
14953.9
14966.8
14980.1
14994.1
15008.5
15023.4
15038.9
15054.8
15071.2
15088.1
15105.5
15123.3
15141.6
15160.3
15179.4
15199
15219
15239.3
15260.1
15281.2
15302.7
15324.6
15346.8
15369.4
15392.3
15415.5
15439.1
15462.9
15487
15511.5
15536.2
15561.1
15586.3
15611.8
15637.5
15663.5
15689.7
15716.1
15742.7
15769.6
15796.6
15823.9
15851.3
15879
15906.8
15934.8
15963
15991.4
16020
16048.7
16077.6
16106.7
16136
16165.4
16195
16224.8
16254.8
16285
16315.3
16345.9
16376.6
16407.6
16438.7
16470.1
16501.7
16533.5
16565.5
16597.8
16630.3
16663.1
16696.2
16729.5
16763.1
16797
16831.1
16865.6
16900.4
16935.5
16970.9
17006.7
17042.8
17079.3
17116.1
17153.3
17190.9
17228.9
17267.2
17306
17345.1
17384.7
17424.6
17465
17505.8
17547
17588.7
17630.7
17673.3
17716.2
17759.6
17803.4
17847.6
17892.3
17937.4
17982.9
18028.9
18075.3
18122.1
18169.3
18217
18265
18313.4
18362.3
18411.5
18461.1
18511.1
18561.5
18612.2
18663.2
18714.6
18766.3
18818.4
18870.7
18923.3
18976.3
19029.4
19082.9
19136.6
19190.5
19244.6
19298.9
19353.5
19408.2
19463
19518
19573.1
19628.4
19683.7
19739.1
19794.6
19850.1
19905.7
19961.3
20016.8
20072.4
20127.9
20183.4
20238.8
20294.1
20349.3
20404.4
20459.4
20514.2
20568.8
20623.3
20677.6
20731.6
20785.5
20839.1
20892.4
20945.5
20998.3
21050.8
21102.9
21154.8
21206.3
21257.5
21308.4
21358.8
21408.9
21458.7
21508
21556.9
21605.4
21653.5
21701.2
21748.5
21795.3
21841.7
21887.7
21933.2
21978.3
22022.9
22067.1
22110.8
22154
22196.9
22239.2
22281.1
22322.6
22363.5
22404.1
22444.1
22483.8
22522.9
22561.7
22599.9
22637.8
22675.2
22712.1
22748.6
22784.7
22820.4
22855.6
22890.4
22924.8
22958.8
22992.3
23025.5
23058.2
23090.5
23122.5
23154
23185.1
23215.9
23246.2
23276.2
23305.8
23335
23363.8
23392.3
23420.3
23448
23475.4
23502.3
23528.9
23555.1
23581
23606.5
23631.6
23656.3
23680.7
23704.7
23728.3
23751.6
23774.5
23797
23819.1
23840.9
23862.3
23883.3
23903.9
23924.1
23944
23963.4
23982.5
24001.1
24019.3
24037.2
24054.6
24071.6
24088.2
24104.4
24120.1
24135.4
24150.3
24164.7
24178.7
24192.2
24205.3
24218
24230.1
24241.8
24253.1
24263.8
24274.1
24283.9
24293.3
24302.1
24310.5
24318.4
24325.7
24332.6
24339
24344.9
24350.3
24355.2
24359.6
24363.5
24367
24369.9
24372.3
24374.3
24375.7
24376.7
24377.2
24377.2
24376.7
24375.8
24374.4
24372.6
24370.3
24367.6
24364.4
24360.8
24356.8
24352.4
24347.6
24342.4
24336.9
24330.9
24324.7
24318
24311.1
24303.9
24296.3
24288.5
24280.4
24272
24263.4
24254.6
24245.5
24236.3
24226.9
24217.3
24207.6
24197.7
24187.7
24177.7
24167.5
24157.3
24147
24136.7
24126.3
24115.9
24105.6
24095.3
24085
24074.7
24064.5
24054.4
24044.4
24034.5
24024.7
24015
24005.5
23996.1
23986.8
23977.8
23968.9
23960.2
23951.7
23943.4
23935.3
23927.5
23919.8
23912.4
23905.3
23898.4
23891.7
23885.3
23879.2
23873.3
23867.7
23862.4
23857.4
23852.6
23848.2
23843.8
23840.3
23836.1
23833.6
23829.6
23828
23824.4
23823.6
23820.4
23820.2
23817.8
23817.9
23816.5
23816.6
17813.3
17814.5
17807.2
17806.2
17794.9
17790.2
17776.6
17766.7
17751.5
17736.4
17719
17700
17679.4
17657.2
17633.5
17608.1
17581.3
17552.9
17523.1
17491.8
17459.2
17425.1
17389.8
17353.2
17315.3
17276.3
17236.1
17194.8
17152.5
17109.2
17064.9
17019.8
16973.8
16927
16879.5
16831.4
16782.7
16733.4
16683.6
16633.4
16582.8
16531.9
16480.8
16429.5
16378.1
16326.6
16275.1
16223.7
16172.3
16121.2
16070.2
16019.5
15969.2
15919.2
15869.6
15820.5
15772
15723.9
15676.5
15629.8
15583.7
15538.4
15493.8
15450
15407
15364.8
15323.6
15283.2
15243.8
15205.3
15167.8
15131.3
15095.7
15061.2
15027.7
14995.2
14963.8
14933.4
14904.1
14875.8
14848.7
14822.5
14797.4
14773.4
14750.5
14728.6
14707.7
14687.9
14669.1
14651.3
14634.5
14618.8
14604
14590.2
14577.4
14565.5
14554.6
14544.6
14535.5
14527.2
14519.9
14513.4
14507.8
14503
14499
14495.8
14493.4
14491.8
14490.9
14490.8
14491.4
14492.7
14494.7
14497.3
14500.7
14504.7
14509.4
14514.7
14520.7
14527.2
14534.4
14542.2
14550.6
14559.6
14569.1
14579.3
14589.9
14601.2
14613
14625.4
14638.3
14651.7
14665.6
14680.1
14695
14710.5
14726.5
14742.9
14759.8
14777.2
14795.1
14813.4
14832.1
14851.3
14870.8
14890.8
14911.2
14932
14953.2
14974.7
14996.6
15018.9
15041.5
15064.4
15087.6
15111.2
15135.1
15159.2
15183.7
15208.4
15233.4
15258.6
15284.1
15309.9
15335.8
15362
15388.5
15415.1
15442
15469.1
15496.3
15523.8
15551.4
15579.3
15607.3
15635.5
15663.9
15692.5
15721.2
15750.1
15779.2
15808.5
15837.9
15867.5
15897.3
15927.3
15957.4
15987.8
16018.3
16049.1
16080
16111.1
16142.5
16174
16205.8
16237.8
16270.1
16302.6
16335.3
16368.4
16401.6
16435.2
16469
16503.2
16537.6
16572.4
16607.5
16642.9
16678.6
16714.7
16751.1
16788
16825.1
16862.7
16900.6
16938.9
16977.6
17016.8
17056.3
17096.2
17136.6
17177.4
17218.6
17260.2
17302.3
17344.8
17387.7
17431.1
17474.9
17519.1
17563.8
17608.9
17654.4
17700.4
17746.8
17793.6
17840.8
17888.4
17936.5
17985
18033.8
18083.1
18132.7
18182.7
18233.1
18283.8
18334.9
18386.3
18438
18490.1
18542.5
18595.1
18648.1
18701.3
18754.8
18808.5
18862.5
18916.6
18971
19025.6
19080.3
19135.2
19190.3
19245.4
19300.7
19356.1
19411.6
19467.1
19522.7
19578.3
19633.9
19689.6
19745.2
19800.7
19856.3
19911.7
19967.1
20022.4
20077.5
20132.5
20187.4
20242.1
20296.6
20351
20405.1
20459
20512.6
20566
20619.1
20672
20724.5
20776.8
20828.7
20880.2
20931.5
20982.3
21032.9
21083
21132.7
21182.1
21231
21279.6
21327.7
21375.4
21422.7
21469.5
21515.9
21561.9
21607.4
21652.5
21697.1
21741.3
21785
21828.3
21871.1
21913.4
21955.3
21996.8
22037.7
22078.2
22118.3
22157.9
22197.1
22235.8
22274
22311.8
22349.2
22386.1
22422.6
22458.7
22494.3
22529.5
22564.3
22598.6
22632.6
22666.1
22699.2
22731.9
22764.2
22796.1
22827.6
22858.7
22889.5
22919.8
22949.7
22979.3
23008.5
23037.3
23065.7
23093.8
23121.5
23148.8
23175.7
23202.3
23228.5
23254.3
23279.8
23304.9
23329.6
23354
23378
23401.6
23424.9
23447.8
23470.3
23492.4
23514.2
23535.6
23556.6
23577.2
23597.4
23617.3
23636.7
23655.8
23674.5
23692.7
23710.6
23728
23745
23761.6
23777.8
23793.6
23808.9
23823.8
23838.2
23852.2
23865.8
23878.9
23891.6
23903.8
23915.5
23926.7
23937.5
23947.8
23957.7
23967
23975.9
23984.3
23992.2
23999.6
24006.5
24012.9
24018.8
24024.3
24029.2
24033.6
24037.5
24041
24043.9
24046.3
24048.3
24049.7
24050.7
24051.2
24051.2
24050.8
24049.8
24048.5
24046.6
24044.3
24041.6
24038.4
24034.8
24030.8
24026.4
24021.5
24016.3
24010.7
24004.8
23998.5
23991.9
23984.9
23977.6
23970
23962.2
23954
23945.6
23937
23928.1
23919
23909.8
23900.3
23890.7
23880.9
23871
23861
23850.9
23840.7
23830.4
23820.1
23809.7
23799.3
23788.9
23778.5
23768.2
23757.8
23747.5
23737.3
23727.2
23717.1
23707.2
23697.3
23687.6
23678.1
23668.6
23659.4
23650.3
23641.4
23632.7
23624.1
23615.8
23607.7
23599.8
23592.2
23584.8
23577.6
23570.7
23564
23557.6
23551.5
23545.6
23540
23534.6
23529.6
23524.8
23520.4
23516
23512.4
23508.4
23505.7
23501.9
23500
23496.7
23495.6
23492.7
23492.2
23490.1
23489.9
23488.7
23488.8
17492.3
17493.5
17486.3
17485.1
17474
17469
17455.6
17445.4
17430.4
17415.2
17397.7
17378.7
17358
17335.7
17311.9
17286.4
17259.5
17231
17201
17169.7
17136.9
17102.7
17067.2
17030.5
16992.4
16953.2
16912.9
16871.4
16828.9
16785.4
16741
16695.6
16649.5
16602.5
16554.8
16506.5
16457.5
16408
16358
16307.6
16256.9
16205.8
16154.4
16102.9
16051.3
15999.6
15947.9
15896.3
15844.7
15793.4
15742.2
15691.4
15640.8
15590.7
15540.9
15491.7
15442.9
15394.8
15347.2
15300.3
15254.1
15208.6
15163.9
15120
15076.9
15034.7
14993.3
14952.9
14913.3
14874.8
14837.2
14800.6
14765
14730.4
14696.9
14664.4
14632.9
14602.5
14573.2
14544.9
14517.7
14491.5
14466.5
14442.4
14419.5
14397.6
14376.7
14356.9
14338.2
14320.4
14303.7
14288
14273.3
14259.5
14246.7
14234.9
14224
14214.1
14205
14196.8
14189.6
14183.1
14177.6
14172.8
14168.9
14165.8
14163.4
14161.9
14161.1
14161
14161.6
14163
14165
14167.8
14171.2
14175.3
14180
14185.3
14191.3
14198
14205.2
14213
14221.4
14230.4
14240
14250.2
14260.9
14272.2
14284.1
14296.5
14309.4
14322.8
14336.8
14351.3
14366.3
14381.8
14397.8
14414.3
14431.2
14448.6
14466.5
14484.8
14503.6
14522.8
14542.4
14562.4
14582.9
14603.7
14624.9
14646.4
14668.4
14690.7
14713.3
14736.2
14759.5
14783.1
14807
14831.2
14855.7
14880.4
14905.4
14930.7
14956.2
14982
15008
15034.2
15060.7
15087.4
15114.2
15141.3
15168.6
15196.1
15223.8
15251.6
15279.7
15307.9
15336.3
15364.8
15393.6
15422.5
15451.6
15480.8
15510.3
15539.9
15569.7
15599.6
15629.8
15660.1
15690.6
15721.3
15752.2
15783.4
15814.7
15846.2
15878
15910
15942.2
15974.6
16007.4
16040.3
16073.6
16107.1
16140.9
16175
16209.4
16244.1
16279.2
16314.5
16350.3
16386.3
16422.7
16459.5
16496.6
16534.1
16572
16610.3
16649
16688.1
16727.6
16767.5
16807.8
16848.6
16889.7
16931.4
16973.4
17015.9
17058.8
17102.1
17145.9
17190.2
17234.8
17279.9
17325.5
17371.4
17417.8
17464.6
17511.9
17559.5
17607.6
17656.1
17704.9
17754.2
17803.9
17853.9
17904.3
17955
18006.2
18057.6
18109.4
18161.5
18213.9
18266.6
18319.6
18372.9
18426.4
18480.2
18534.2
18588.4
18642.8
18697.5
18752.3
18807.2
18862.3
18917.6
18972.9
19028.4
19083.9
19139.5
19195.1
19250.8
19306.5
19362.2
19417.9
19473.5
19529.1
19584.7
19640.1
19695.5
19750.7
19805.8
19860.7
19915.5
19970.1
20024.5
20078.7
20132.6
20186.3
20239.8
20293
20345.9
20398.5
20450.7
20502.7
20554.3
20605.6
20656.5
20707.1
20757.2
20807
20856.4
20905.4
20954
21002.1
21049.9
21097.2
21144
21190.5
21236.4
21282
21327.1
21371.7
21415.9
21459.6
21502.8
21545.6
21588
21629.8
21671.3
21712.2
21752.7
21792.7
21832.3
21871.5
21910.1
21948.4
21986.1
22023.5
22060.4
22096.8
22132.9
22168.5
22203.6
22238.4
22272.7
22306.6
22340.1
22373.2
22405.8
22438.1
22470
22501.4
22532.5
22563.2
22593.5
22623.4
22653
22682.1
22710.9
22739.3
22767.3
22795
22822.3
22849.2
22875.7
22901.9
22927.7
22953.2
22978.3
23003
23027.4
23051.4
23075
23098.2
23121.1
23143.6
23165.8
23187.5
23208.9
23229.9
23250.6
23270.8
23290.7
23310.1
23329.2
23347.9
23366.2
23384
23401.5
23418.5
23435.2
23451.4
23467.1
23482.5
23497.4
23511.9
23525.9
23539.5
23552.6
23565.3
23577.5
23589.3
23600.6
23611.4
23621.8
23631.6
23641
23649.9
23658.3
23666.2
23673.7
23680.6
23687
23693
23698.4
23703.4
23707.8
23711.8
23715.2
23718.2
23720.6
23722.6
23724
23725
23725.5
23725.5
23725.1
23724.1
23722.7
23720.9
23718.6
23715.8
23712.6
23709
23705
23700.5
23695.7
23690.5
23684.9
23678.9
23672.5
23665.9
23658.9
23651.5
23643.9
23636
23627.8
23619.4
23610.7
23601.8
23592.7
23583.3
23573.8
23564.2
23554.4
23544.4
23534.3
23524.2
23513.9
23503.6
23493.2
23482.8
23472.3
23461.9
23451.4
23441
23430.6
23420.3
23410
23399.9
23389.8
23379.8
23369.9
23360.1
23350.5
23341.1
23331.8
23322.7
23313.7
23305
23296.4
23288.1
23279.9
23272
23264.4
23256.9
23249.7
23242.8
23236.1
23229.7
23223.5
23217.6
23212
23206.7
23201.6
23196.8
23192.4
23188
23184.4
23180.4
23177.6
23173.9
23171.9
23168.7
23167.4
23164.7
23164.1
23162.1
23161.8
23160.7
23160.7
17172.5
17173.9
17166.6
17165.5
17154.3
17149.3
17135.7
17125.5
17110.3
17095.1
17077.5
17058.4
17037.7
17015.3
16991.3
16965.8
16938.7
16910.1
16880
16848.5
16815.5
16781.2
16745.5
16708.6
16670.4
16631
16590.4
16548.8
16506
16462.3
16417.7
16372.1
16325.7
16278.5
16230.6
16182
16132.8
16083
16032.8
15982.1
15931.1
15879.8
15828.2
15776.4
15724.6
15672.6
15620.7
15568.8
15517
15465.4
15414.1
15363
15312.2
15261.8
15211.9
15162.4
15113.5
15065.2
15017.4
14970.4
14924
14878.4
14833.5
14789.4
14746.2
14703.8
14662.4
14621.8
14582.2
14543.5
14505.9
14469.2
14433.5
14398.9
14365.3
14332.7
14301.2
14270.8
14241.4
14213.1
14185.9
14159.7
14134.7
14110.7
14087.7
14065.8
14045
14025.2
14006.5
13988.8
13972.1
13956.4
13941.7
13928.1
13915.3
13903.6
13892.7
13882.8
13873.9
13865.8
13858.6
13852.2
13846.7
13842
13838.2
13835.1
13832.9
13831.4
13830.6
13830.6
13831.3
13832.8
13834.9
13837.7
13841.2
13845.3
13850.1
13855.5
13861.5
13868.2
13875.5
13883.4
13891.8
13900.9
13910.5
13920.7
13931.5
13942.9
13954.7
13967.2
13980.1
13993.6
14007.6
14022.2
14037.2
14052.7
14068.8
14085.3
14102.3
14119.7
14137.6
14156
14174.8
14194
14213.7
14233.8
14254.2
14275.1
14296.3
14317.9
14339.9
14362.2
14384.9
14407.9
14431.2
14454.8
14478.7
14502.9
14527.4
14552.2
14577.3
14602.6
14628.1
14653.9
14680
14706.2
14732.7
14759.4
14786.3
14813.4
14840.8
14868.3
14895.9
14923.8
14951.9
14980.1
15008.5
15037.1
15065.8
15094.8
15123.8
15153.1
15182.5
15212.1
15241.9
15271.9
15302
15332.3
15362.8
15393.5
15424.4
15455.4
15486.7
15518.2
15550
15581.9
15614.1
15646.5
15679.2
15712.1
15745.3
15778.8
15812.6
15846.6
15881
15915.7
15950.6
15986
16021.6
16057.6
16094
16130.7
16167.8
16205.2
16243.1
16281.3
16320
16359
16398.5
16438.4
16478.7
16519.4
16560.6
16602.1
16644.2
16686.6
16729.5
16772.9
16816.6
16860.9
16905.5
16950.6
16996.1
17042.1
17088.5
17135.3
17182.6
17230.3
17278.3
17326.8
17375.7
17425
17474.7
17524.7
17575.2
17626
17677.1
17728.6
17780.4
17832.6
17885
17937.8
17990.8
18044.2
18097.7
18151.6
18205.6
18259.9
18314.4
18369.1
18424
18479
18534.2
18589.5
18644.9
18700.5
18756.1
18811.8
18867.5
18923.2
18979
19034.8
19090.6
19146.3
19202
19257.6
19313.1
19368.6
19423.9
19479
19534.1
19588.9
19643.6
19698.1
19752.4
19806.4
19860.2
19913.7
19967
20019.9
20072.6
20124.9
20177
20228.7
20280
20331
20381.6
20431.8
20481.6
20531
20580.1
20628.7
20676.9
20724.6
20772
20818.8
20865.3
20911.3
20956.8
21001.9
21046.6
21090.7
21134.4
21177.7
21220.5
21262.8
21304.7
21346.1
21387
21427.5
21467.5
21507
21546.1
21584.8
21623
21660.7
21698
21734.9
21771.3
21807.3
21842.8
21878
21912.6
21946.9
21980.8
22014.2
22047.3
22079.9
22112.1
22144
22175.4
22206.4
22237.1
22267.3
22297.2
22326.7
22355.8
22384.6
22413
22441
22468.6
22495.8
22522.7
22549.3
22575.4
22601.2
22626.7
22651.7
22676.5
22700.8
22724.8
22748.4
22771.7
22794.5
22817.1
22839.2
22861
22882.4
22903.4
22924
22944.3
22964.1
22983.6
23002.7
23021.4
23039.7
23057.6
23075.1
23092.1
23108.8
23125
23140.8
23156.2
23171.2
23185.7
23199.7
23213.4
23226.5
23239.2
23251.5
23263.3
23274.6
23285.5
23295.9
23305.8
23315.2
23324.1
23332.5
23340.5
23348
23354.9
23361.4
23367.4
23372.8
23377.8
23382.3
23386.2
23389.7
23392.7
23395.1
23397.1
23398.6
23399.6
23400.1
23400.1
23399.6
23398.7
23397.3
23395.4
23393.1
23390.4
23387.2
23383.5
23379.5
23375
23370.1
23364.8
23359.2
23353.2
23346.8
23340.1
23333.1
23325.7
23318
23310.1
23301.8
23293.3
23284.6
23275.6
23266.4
23257.1
23247.5
23237.8
23227.9
23217.9
23207.7
23197.5
23187.2
23176.8
23166.3
23155.9
23145.4
23134.9
23124.3
23113.9
23103.4
23093
23082.7
23072.5
23062.3
23052.3
23042.4
23032.6
23022.9
23013.4
23004.1
22994.9
22985.9
22977.2
22968.6
22960.2
22952
22944.1
22936.4
22928.9
22921.7
22914.7
22908
22901.6
22895.4
22889.5
22883.9
22878.5
22873.5
22868.6
22864.2
22859.8
22856.2
22852.1
22849.4
22845.7
22843.7
22840.4
22839.1
22836.5
22835.7
22833.8
22833.5
22832.4
22832.4
16854
16855.5
16848
16847
16835.6
16830.8
16817
16806.8
16791.5
16776.2
16758.5
16739.4
16718.5
16696
16671.9
16646.2
16619
16590.2
16559.9
16528.2
16495.1
16460.6
16424.7
16387.6
16349.2
16309.5
16268.7
16226.8
16183.9
16139.9
16095
16049.1
16002.4
15955
15906.8
15857.9
15808.4
15758.4
15707.8
15656.9
15605.6
15553.9
15502.1
15450
15397.8
15345.6
15293.4
15241.2
15189.2
15137.3
15085.7
15034.3
14983.3
14932.7
14882.5
14832.8
14783.7
14735.1
14687.2
14639.9
14593.4
14547.5
14502.5
14458.3
14414.9
14372.4
14330.8
14290.1
14250.3
14211.6
14173.8
14137
14101.3
14066.6
14032.9
14000.3
13968.7
13938.3
13908.9
13880.5
13853.3
13827.1
13802.1
13778.1
13755.1
13733.3
13712.5
13692.7
13674
13656.4
13639.7
13624.1
13609.5
13595.8
13583.2
13571.5
13560.7
13550.9
13542
13534
13526.9
13520.6
13515.2
13510.6
13506.9
13503.9
13501.7
13500.3
13499.6
13499.7
13500.5
13502
13504.2
13507.1
13510.6
13514.8
13519.7
13525.2
13531.3
13538
13545.4
13553.3
13561.8
13570.9
13580.6
13590.9
13601.7
13613.1
13625
13637.5
13650.5
13664
13678.1
13692.7
13707.7
13723.3
13739.4
13756
13773
13790.5
13808.4
13826.9
13845.7
13865
13884.7
13904.8
13925.3
13946.2
13967.5
13989.1
14011.1
14033.5
14056.2
14079.2
14102.6
14126.3
14150.2
14174.5
14199
14223.9
14248.9
14274.3
14299.9
14325.7
14351.8
14378.1
14404.6
14431.3
14458.3
14485.4
14512.8
14540.3
14568
14595.9
14624
14652.2
14680.6
14709.2
14738
14766.9
14796
14825.2
14854.7
14884.3
14914
14944
14974.1
15004.4
15034.8
15065.5
15096.3
15127.4
15158.6
15190.1
15221.8
15253.7
15285.8
15318.2
15350.8
15383.7
15416.9
15450.3
15484
15518
15552.3
15586.9
15621.8
15657.1
15692.7
15728.6
15764.9
15801.6
15838.6
15876.1
15913.9
15952.1
15990.7
16029.7
16069.1
16108.9
16149.2
16189.9
16231
16272.6
16314.5
16357
16399.9
16443.2
16486.9
16531.2
16575.8
16620.9
16666.4
16712.4
16758.8
16805.6