/*--------------------------------*- C++ -*----------------------------------*\
| =========                 |                                                 |
| \\      /  F ield         | OpenFOAM: The Open Source CFD Toolbox           |
|  \\    /   O peration     | Version:  v2006                                 |
|   \\  /    A nd           | Website:  www.openfoam.com                      |
|    \\/     M anipulation  |                                                 |
\*---------------------------------------------------------------------------*/
FoamFile
{
    version     2.0;
    format      ascii;
    class       surfaceScalarField;
    location    "17";
    object      alphaPhi0.water;
}
// * * * * * * * * * * * * * * * * * * * * * * * * * * * * * * * * * * * * * //

dimensions      [0 3 -1 0 0 0 0];
oriented        oriented;


internalField   nonuniform List<scalar> 
104500
(
-2.31971e-05
2.31971e-05
-3.88629e-05
1.56658e-05
-5.58665e-05
1.70036e-05
-7.42409e-05
1.83744e-05
-9.29979e-05
1.8757e-05
-0.000111882
1.8884e-05
-0.000130786
1.89045e-05
-0.000149675
1.88885e-05
-0.000168551
1.88761e-05
-0.000187432
1.88813e-05
-0.000206333
1.89008e-05
-0.00022526
1.89273e-05
-0.000244215
1.89543e-05
-0.000263196
1.89808e-05
-0.000282202
1.90065e-05
-0.000301232
1.90296e-05
-0.000320283
1.90516e-05
-0.000339358
1.90747e-05
-0.000358457
1.90993e-05
-0.000377585
1.91274e-05
-0.000396746
1.91615e-05
-0.000415948
1.92016e-05
-0.000435199
1.92506e-05
-0.000454507
1.93087e-05
-0.00047388
1.93729e-05
-0.000493323
1.94432e-05
-0.00051284
1.95172e-05
-0.000532436
1.95957e-05
-0.000552118
1.96818e-05
-0.000571895
1.97767e-05
-0.000591776
1.98815e-05
-0.000611773
1.99975e-05
-0.000631899
2.01258e-05
-0.000652165
2.02662e-05
-0.000672584
2.04185e-05
-0.000693168
2.05841e-05
-0.000713933
2.07649e-05
-0.000734897
2.09636e-05
-0.000756079
2.11821e-05
-0.000777501
2.14226e-05
-0.000799189
2.1688e-05
-0.000821171
2.19817e-05
-0.000843479
2.23085e-05
-0.000866155
2.26757e-05
-0.000889248
2.30932e-05
-0.000912821
2.35731e-05
-0.000936948
2.41261e-05
-0.000961704
2.47563e-05
-0.000987157
2.54533e-05
-0.00101335
2.61879e-05
-0.00104026
2.69135e-05
-0.00106783
2.75716e-05
-0.00109593
2.81018e-05
-0.0011244
2.84654e-05
-0.00115304
2.86457e-05
-0.0011817
2.86557e-05
-0.00121023
2.85299e-05
-0.00123853
2.83047e-05
-0.00126655
2.80124e-05
-0.00129423
2.76792e-05
-0.00132155
2.73207e-05
-0.00134849
2.69474e-05
-0.00137506
2.65622e-05
-0.00140121
2.61584e-05
-0.00142695
2.57325e-05
-0.00145223
2.52791e-05
-0.00147702
2.47944e-05
-0.0015013
2.42791e-05
-0.00152503
2.37359e-05
-0.0015482
2.31694e-05
-0.00157079
2.25852e-05
-0.00159278
2.19887e-05
-0.00161416
2.13844e-05
-0.00163494
2.07744e-05
-0.0016551
2.01598e-05
-0.00167464
1.95399e-05
-0.00169355
1.89158e-05
-0.00171184
1.82884e-05
-0.0017295
1.76586e-05
-0.00174653
1.70287e-05
-0.00176293
1.64022e-05
-0.00177871
1.57828e-05
-0.00179389
1.51744e-05
-0.00180847
1.45801e-05
-0.00182247
1.40021e-05
-0.00183591
1.34415e-05
-0.00184881
1.28997e-05
-0.00186119
1.23766e-05
-0.00187306
1.18716e-05
-0.00188444
1.13834e-05
-0.00189535
1.09102e-05
-0.0019058
1.04507e-05
-0.00191581
1.00035e-05
-0.00192537
9.56646e-06
-0.00193451
9.13691e-06
-0.00194322
8.71139e-06
-0.00195151
8.28714e-06
-0.00195937
7.8641e-06
-0.00196682
7.44507e-06
-0.00197385
7.03163e-06
-0.00198047
6.62403e-06
-0.0019867
6.22397e-06
-0.00199253
5.83532e-06
-0.001998
5.46509e-06
-0.00200312
5.1198e-06
-0.00200792
4.80256e-06
-0.00201243
4.51102e-06
-0.00201667
4.23907e-06
-0.00202065
3.97817e-06
-0.00202437
3.72042e-06
-0.00202783
3.46077e-06
-0.00203103
3.19682e-06
-0.00203395
2.92694e-06
-0.0020366
2.65021e-06
-0.00203897
2.36934e-06
-0.00204106
2.08698e-06
-0.00204286
1.80341e-06
-0.00204438
1.51896e-06
-0.00204562
1.23745e-06
-0.00204658
9.56918e-07
-0.00204725
6.73866e-07
-0.00204765
3.96337e-07
-0.00204778
1.28457e-07
-0.00204767
-1.10094e-07
-0.00204731
-3.5569e-07
-0.00204672
-5.9379e-07
-0.00204589
-8.21559e-07
-0.00204486
-1.03808e-06
-0.00204361
-1.24271e-06
-0.00204218
-1.435e-06
-0.00204056
-1.6146e-06
-0.00203878
-1.78133e-06
-0.00203685
-1.93526e-06
-0.00203477
-2.07698e-06
-0.00203256
-2.20745e-06
-0.00203023
-2.32805e-06
-0.00202779
-2.44063e-06
-0.00202525
-2.54846e-06
-0.00202259
-2.65477e-06
-0.00201983
-2.76322e-06
-0.00201695
-2.87574e-06
-0.00201396
-2.99258e-06
-0.00201085
-3.11109e-06
-0.00200762
-3.22572e-06
-0.0020043
-3.32755e-06
-0.00200089
-3.40466e-06
-0.00199745
-3.44347e-06
-0.00199402
-3.43024e-06
-0.00199066
-3.35302e-06
-0.00198746
-3.20344e-06
-0.00198448
-2.97794e-06
-0.0019818
-2.67747e-06
-0.0019795
-2.30502e-06
-0.00197764
-1.86423e-06
-0.00197628
-1.35834e-06
-0.00197549
-7.87834e-07
-0.00197534
-1.45262e-07
-0.00197592
5.78976e-07
-0.00197729
1.36817e-06
-0.00197956
2.2651e-06
-0.00198284
3.28305e-06
-0.00198726
4.42334e-06
-0.00199293
5.66459e-06
-0.00199988
6.95694e-06
-0.00200811
8.22885e-06
-0.00201752
9.40849e-06
-0.00202797
1.045e-05
-0.00203926
1.12923e-05
-0.00205116
1.18927e-05
-0.00206338
1.22206e-05
-0.00207564
1.22633e-05
-0.00208767
1.20272e-05
-0.00209921
1.15416e-05
-0.00211007
1.08569e-05
-0.0021201
1.00364e-05
-0.00212925
9.14883e-06
-0.00213752
8.26657e-06
-0.00214497
7.45551e-06
-0.00215174
6.76367e-06
-0.00215796
6.21819e-06
-0.00216378
5.82099e-06
-0.00216934
5.56288e-06
-0.00217476
5.41856e-06
-0.00218011
5.3491e-06
-0.00218543
5.31987e-06
-0.00219073
5.29935e-06
-0.00219599
5.26385e-06
-0.00220119
5.19914e-06
-0.00220628
5.09543e-06
-0.00221123
4.94889e-06
-0.00221599
4.75466e-06
-0.0022205
4.51106e-06
-0.00222473
4.22697e-06
-0.00222863
3.90717e-06
-0.0022322
3.56145e-06
-0.0022354
3.20165e-06
-0.00223824
2.84135e-06
-0.00224074
2.49702e-06
-0.00224292
2.18661e-06
-0.00224485
1.92689e-06
-0.00224658
1.72971e-06
-0.00224818
1.60258e-06
-0.00224974
1.56374e-06
-0.00225136
1.61242e-06
-0.0022531
1.74235e-06
-0.00225504
1.94379e-06
-0.00225725
2.20429e-06
-0.00225976
2.50887e-06
-0.0022626
2.83986e-06
-0.00226577
3.17881e-06
-0.00226928
3.50745e-06
-0.00227309
3.80798e-06
-0.00227716
4.06628e-06
-0.00228143
4.27428e-06
-0.00228586
4.42903e-06
-0.00229039
4.53298e-06
-0.00229499
4.59319e-06
-0.00229961
4.6202e-06
-0.00230423
4.6242e-06
-0.00230885
4.61456e-06
-0.00231344
4.5985e-06
-0.00231802
4.58107e-06
-0.00232259
4.56494e-06
-0.00232714
4.55057e-06
-0.00233168
4.53705e-06
-0.0023362
4.52305e-06
-0.00234071
4.50732e-06
-0.0023452
4.4886e-06
-0.00234966
4.4661e-06
-0.0023541
4.43942e-06
-0.00235851
4.40819e-06
-0.00236288
4.37228e-06
-0.00236721
4.33135e-06
-0.0023715
4.28493e-06
-0.00237573
4.23265e-06
-0.0023799
4.17385e-06
-0.00238401
4.10827e-06
-0.00238805
4.03564e-06
-0.002392
3.95583e-06
-0.00239587
3.86889e-06
-0.00239965
3.77467e-06
-0.00240332
3.67322e-06
-0.00240689
3.56524e-06
-0.00241034
3.45164e-06
-0.00241367
3.33335e-06
-0.00241688
3.21202e-06
-0.00241997
3.08947e-06
-0.00242294
2.96743e-06
-0.00242579
2.84882e-06
-0.00242853
2.73848e-06
-0.00243117
2.64153e-06
-0.00243373
2.56491e-06
-0.00243625
2.51806e-06
-0.00243877
2.51298e-06
-0.00244133
2.5654e-06
-0.00244403
2.69422e-06
-0.00244695
2.92384e-06
-0.00245024
3.28752e-06
-0.00245405
3.81472e-06
-0.00245855
4.49863e-06
-0.00246382
5.27355e-06
-0.00246986
6.03463e-06
-0.00247655
6.693e-06
-0.00248377
7.22192e-06
-0.00249143
7.65651e-06
-0.00249949
8.05606e-06
-0.00250796
8.47217e-06
-0.0025169
8.93929e-06
-0.00252638
9.47899e-06
-0.00253648
1.0107e-05
-0.00254731
1.08315e-05
-0.00255896
1.16482e-05
-0.0025715
1.25395e-05
-0.00258498
1.34756e-05
-0.00259939
1.44131e-05
-0.00261468
1.52917e-05
-0.00263072
1.6038e-05
-0.0026473
1.65765e-05
-0.00266415
1.68539e-05
-0.00268103
1.68821e-05
-0.00269766
1.66244e-05
-0.0027138
1.61389e-05
-0.00272926
1.54649e-05
-0.00274373
1.44645e-05
-0.00275648
1.27554e-05
-0.00276618
9.69474e-06
-0.00277076
4.58216e-06
-0.00276796
-2.79497e-06
-0.00275714
-1.08217e-05
-0.0027387
-1.84455e-05
-0.00271422
-2.44709e-05
-0.00268558
-2.86454e-05
-0.00265433
-3.12476e-05
-0.0026216
-3.27331e-05
-0.00258807
-3.35267e-05
-0.00255411
-3.39579e-05
-0.00251985
-3.42621e-05
-0.00248526
-3.45928e-05
-0.00245023
-3.50277e-05
-0.00241464
-3.55902e-05
-0.00237838
-3.62657e-05
-0.00234135
-3.70215e-05
-0.00230353
-3.78224e-05
-0.00226489
-3.86376e-05
-0.00222545
-3.94417e-05
-0.00218524
-4.0215e-05
-0.00214429
-4.09428e-05
-0.00210268
-4.1617e-05
-0.00206044
-4.22384e-05
-0.00201762
-4.28168e-05
-0.00197426
-4.33644e-05
-0.00193036
-4.38937e-05
-0.00188595
-4.44144e-05
-0.00184102
-4.49299e-05
-0.00179558
-4.54364e-05
-0.00174966
-4.59261e-05
-0.00170327
-4.63925e-05
-0.00165643
-4.68347e-05
-0.00160918
-4.72512e-05
-0.00156154
-4.76391e-05
-0.00151354
-4.79997e-05
-0.0014652
-4.83372e-05
-0.00141655
-4.86517e-05
-0.00136761
-4.89406e-05
-0.0013184
-4.92077e-05
-0.00126894
-4.94591e-05
-0.00121925
-4.96902e-05
-0.00116935
-4.99029e-05
-0.00111925
-5.01047e-05
-0.00106895
-5.0298e-05
-0.00101846
-5.04855e-05
-0.000967788
-5.06743e-05
-0.000916918
-5.08703e-05
-0.000865839
-5.1079e-05
-0.000814527
-5.13117e-05
-0.000762954
-5.15736e-05
-0.000711083
-5.18706e-05
-0.000658878
-5.22049e-05
-0.000606302
-5.25766e-05
-0.000553325
-5.2977e-05
-0.000499925
-5.33993e-05
-0.00044608
-5.3845e-05
-0.000391761
-5.43196e-05
-0.00033691
-5.48503e-05
-0.00028144
-5.54699e-05
-0.000225245
-5.61956e-05
-0.000168233
-5.70121e-05
-0.000110227
-5.80059e-05
-5.11375e-05
-5.90894e-05
-5.11375e-05
-4.05264e-05
6.37235e-05
-7.91032e-05
5.42427e-05
-0.000120558
5.84588e-05
-0.000162453
6.02688e-05
-0.00020398
6.02839e-05
-0.000245304
6.02087e-05
-0.000286576
6.01763e-05
-0.000327791
6.01035e-05
-0.000368892
5.99765e-05
-0.000409814
5.98037e-05
-0.000450505
5.95917e-05
-0.00049092
5.93427e-05
-0.000531022
5.9056e-05
-0.000570773
5.8732e-05
-0.000610136
5.83689e-05
-0.000649074
5.79682e-05
-0.000687552
5.75297e-05
-0.000725534
5.70564e-05
-0.000762987
5.65525e-05
-0.000799882
5.60227e-05
-0.000836194
5.54726e-05
-0.000871901
5.49088e-05
-0.000906989
5.43387e-05
-0.000941448
5.37681e-05
-0.000975279
5.32042e-05
-0.00100849
5.26544e-05
-0.0010411
5.21267e-05
-0.00107313
5.16272e-05
-0.00110461
5.11598e-05
-0.00113556
5.0727e-05
-0.00116601
5.03283e-05
-0.00119597
4.99635e-05
-0.00122548
4.9631e-05
-0.00125454
4.93301e-05
-0.00128318
4.90594e-05
-0.00131142
4.88161e-05
-0.00133925
4.85969e-05
-0.00136668
4.83977e-05
-0.00139371
4.82142e-05
-0.00142034
4.80454e-05
-0.00144654
4.78951e-05
-0.00147233
4.77724e-05
-0.00149772
4.76906e-05
-0.0015227
4.76646e-05
-0.00154732
4.77076e-05
-0.00157157
4.78285e-05
-0.00159548
4.80294e-05
-0.00161902
4.83028e-05
-0.0016422
4.86312e-05
-0.001665
4.89865e-05
-0.00168742
4.93293e-05
-0.00170946
4.96122e-05
-0.00173115
4.97894e-05
-0.00175251
4.9826e-05
-0.00177356
4.97011e-05
-0.00179432
4.94123e-05
-0.00181476
4.89738e-05
-0.00183487
4.8411e-05
-0.00185461
4.77545e-05
-0.00187396
4.70339e-05
-0.00189292
4.62736e-05
-0.00191146
4.54911e-05
-0.0019296
4.46961e-05
-0.00194733
4.38921e-05
-0.00196467
4.30776e-05
-0.00198164
4.22484e-05
-0.00199825
4.13999e-05
-0.0020145
4.05301e-05
-0.0020304
3.96403e-05
-0.00204597
3.87339e-05
-0.0020612
3.7816e-05
-0.0020761
3.6892e-05
-0.00209069
3.59669e-05
-0.00210496
3.50448e-05
-0.00211892
3.41287e-05
-0.0021326
3.322e-05
-0.00214601
3.23188e-05
-0.00215914
3.14243e-05
-0.00217202
3.05363e-05
-0.00218465
2.96549e-05
-0.00219703
2.87807e-05
-0.00220916
2.7914e-05
-0.00222104
2.70553e-05
-0.00223266
2.62059e-05
-0.00224403
2.53671e-05
-0.00225513
2.45396e-05
-0.00226595
2.37236e-05
-0.00227649
2.29187e-05
-0.00228675
2.21248e-05
-0.0022967
2.13412e-05
-0.00230636
2.05648e-05
-0.0023157
1.9792e-05
-0.00232472
1.9021e-05
-0.0023334
1.82499e-05
-0.00234174
1.74752e-05
-0.00234972
1.66914e-05
-0.00235733
1.58952e-05
-0.00236455
1.50894e-05
-0.00237138
1.42761e-05
-0.00237781
1.34599e-05
-0.00238384
1.26492e-05
-0.00238946
1.18493e-05
-0.00239469
1.1067e-05
-0.00239954
1.03063e-05
-0.00240399
9.57051e-06
-0.00240805
8.8636e-06
-0.00241172
8.18271e-06
-0.00241501
7.52587e-06
-0.00241792
6.88931e-06
-0.00242046
6.26717e-06
-0.00242266
5.65862e-06
-0.00242452
5.05616e-06
-0.00242605
4.4598e-06
-0.00242727
3.86826e-06
-0.00242818
3.27845e-06
-0.00242879
2.69902e-06
-0.0024291
2.11456e-06
-0.00242913
1.54118e-06
-0.00242887
9.80667e-07
-0.00242834
4.25751e-07
-0.0024275
-1.60456e-07
-0.0024264
-7.05148e-07
-0.00242504
-1.23808e-06
-0.00242339
-1.75892e-06
-0.00242147
-2.27099e-06
-0.00241929
-2.77268e-06
-0.00241685
-3.26214e-06
-0.00241415
-3.73811e-06
-0.00241119
-4.20001e-06
-0.00240798
-4.64736e-06
-0.00240452
-5.08004e-06
-0.0024008
-5.49815e-06
-0.00239683
-5.90175e-06
-0.00239262
-6.29113e-06
-0.00238816
-6.66716e-06
-0.00238346
-7.02958e-06
-0.00237852
-7.37812e-06
-0.00237336
-7.71222e-06
-0.00236798
-8.03082e-06
-0.00236241
-8.33263e-06
-0.00235667
-8.61642e-06
-0.00235078
-8.87997e-06
-0.00234477
-9.12031e-06
-0.00233867
-9.3337e-06
-0.00233248
-9.51539e-06
-0.00232622
-9.65988e-06
-0.00231991
-9.76125e-06
-0.00231352
-9.81375e-06
-0.00230706
-9.81235e-06
-0.00230051
-9.75331e-06
-0.00229386
-9.6347e-06
-0.00228708
-9.4571e-06
-0.00228016
-9.22049e-06
-0.0022731
-8.92393e-06
-0.00226589
-8.56952e-06
-0.00225852
-8.15624e-06
-0.00225099
-7.67982e-06
-0.00224328
-7.13164e-06
-0.0022354
-6.50465e-06
-0.00222735
-5.78667e-06
-0.0022191
-4.96891e-06
-0.00221063
-4.04984e-06
-0.00220192
-3.03886e-06
-0.00219301
-1.95894e-06
-0.00218393
-8.4843e-07
-0.00217472
1.96305e-07
-0.00216551
1.23871e-06
-0.00215636
2.15015e-06
-0.00214736
2.8921e-06
-0.00213857
3.42498e-06
-0.00213004
3.73501e-06
-0.00212183
3.81851e-06
-0.00211398
3.68944e-06
-0.0021065
3.37988e-06
-0.00209941
2.94513e-06
-0.00209271
2.44937e-06
-0.00208639
1.94936e-06
-0.00208043
1.49207e-06
-0.00207478
1.11519e-06
-0.00206941
8.43381e-07
-0.00206426
6.6961e-07
-0.00205929
5.94649e-07
-0.00205447
6.00349e-07
-0.00204978
6.60845e-07
-0.00204522
7.56216e-07
-0.00204078
8.65166e-07
-0.00203649
9.72083e-07
-0.00203236
1.06825e-06
-0.00202842
1.1505e-06
-0.00202468
1.21492e-06
-0.0020212
1.2698e-06
-0.002018
1.31788e-06
-0.00201514
1.36451e-06
-0.00201265
1.41568e-06
-0.00201057
1.48117e-06
-0.00200894
1.57083e-06
-0.00200779
1.69367e-06
-0.00200715
1.85862e-06
-0.00200704
2.073e-06
-0.00200745
2.34084e-06
-0.00200838
2.65556e-06
-0.00200978
3.00874e-06
-0.00201161
3.39309e-06
-0.0020138
3.79733e-06
-0.00201627
4.21109e-06
-0.00201895
4.62518e-06
-0.00202178
5.033e-06
-0.0020247
5.43135e-06
-0.00202768
5.8186e-06
-0.0020307
6.19486e-06
-0.00203375
6.56134e-06
-0.00203686
6.91883e-06
-0.00204006
7.26588e-06
-0.00204339
7.6029e-06
-0.00204689
7.92924e-06
-0.0020506
8.24277e-06
-0.00205455
8.54202e-06
-0.00205875
8.82422e-06
-0.00206321
9.08661e-06
-0.00206793
9.32624e-06
-0.00207287
9.54083e-06
-0.00207802
9.72884e-06
-0.00208334
9.89026e-06
-0.00208882
1.00259e-05
-0.00209442
1.01378e-05
-0.00210012
1.02284e-05
-0.00210591
1.02999e-05
-0.00211178
1.03553e-05
-0.00211771
1.03964e-05
-0.0021237
1.04247e-05
-0.00212973
1.04407e-05
-0.0021358
1.04441e-05
-0.00214191
1.04351e-05
-0.00214803
1.04131e-05
-0.00215418
1.03774e-05
-0.00216033
1.03276e-05
-0.00216649
1.02628e-05
-0.00217263
1.01825e-05
-0.00217876
1.00859e-05
-0.00218487
9.97276e-06
-0.00219093
9.84264e-06
-0.00219696
9.69527e-06
-0.00220292
9.53009e-06
-0.00220882
9.34734e-06
-0.00221463
9.14704e-06
-0.00222035
8.92947e-06
-0.00222595
8.69571e-06
-0.00223143
8.44665e-06
-0.00223677
8.18395e-06
-0.00224194
7.90982e-06
-0.00224693
7.62817e-06
-0.0022517
7.34226e-06
-0.00225624
7.05694e-06
-0.00226051
6.77705e-06
-0.00226445
6.50828e-06
-0.00226801
6.25523e-06
-0.00227111
6.01993e-06
-0.00227362
5.80291e-06
-0.00227541
5.60065e-06
-0.00227631
5.4023e-06
-0.00227623
5.19405e-06
-0.00227517
4.97008e-06
-0.00227321
4.7385e-06
-0.00227051
4.52026e-06
-0.0022672
4.34423e-06
-0.00226338
4.23828e-06
-0.00225914
4.22552e-06
-0.00225452
4.32519e-06
-0.00224959
4.54679e-06
-0.00224438
4.90201e-06
-0.00223895
5.39556e-06
-0.00223333
6.02769e-06
-0.00222757
6.78424e-06
-0.00222173
7.63431e-06
-0.00221585
8.52703e-06
-0.00220995
9.3926e-06
-0.00220405
1.01423e-05
-0.00219814
1.06691e-05
-0.00219214
1.08517e-05
-0.0021858
1.05378e-05
-0.00217884
9.66824e-06
-0.00217095
8.24593e-06
-0.00216158
6.10064e-06
-0.00215019
3.07346e-06
-0.00213661
-8.24399e-07
-0.00212007
-6.85235e-06
-0.00210154
-1.39446e-05
-0.00208246
-2.18709e-05
-0.00206312
-3.0169e-05
-0.00204315
-3.84108e-05
-0.00202144
-4.61815e-05
-0.00199693
-5.31539e-05
-0.00196913
-5.90508e-05
-0.00193821
-6.36551e-05
-0.00190485
-6.6883e-05
-0.00186996
-6.88442e-05
-0.0018344
-6.98228e-05
-0.00179881
-7.01807e-05
-0.0017636
-7.02451e-05
-0.00172894
-7.02483e-05
-0.00169488
-7.03293e-05
-0.00166133
-7.05642e-05
-0.00162816
-7.09946e-05
-0.00159516
-7.16399e-05
-0.00156211
-7.24933e-05
-0.0015288
-7.35172e-05
-0.0014951
-7.46462e-05
-0.00146091
-7.58041e-05
-0.00142623
-7.69213e-05
-0.00139109
-7.79529e-05
-0.00135557
-7.88859e-05
-0.00131973
-7.97321e-05
-0.00128363
-8.05173e-05
-0.00124729
-8.1271e-05
-0.00121072
-8.20111e-05
-0.00117389
-8.27489e-05
-0.0011368
-8.34848e-05
-0.00109942
-8.42115e-05
-0.00106176
-8.49196e-05
-0.0010238
-8.55937e-05
-0.000985582
-8.62182e-05
-0.000947135
-8.67849e-05
-0.000908504
-8.72827e-05
-0.000869738
-8.77065e-05
-0.000830895
-8.80508e-05
-0.000792044
-8.83096e-05
-0.000753245
-8.84896e-05
-0.000714568
-8.85798e-05
-0.000676091
-8.85812e-05
-0.000637912
-8.84779e-05
-0.00060012
-8.82767e-05
-0.000562822
-8.79723e-05
-0.000526113
-8.75797e-05
-0.000490093
-8.70986e-05
-0.000454856
-8.65489e-05
-0.000420462
-8.59675e-05
-0.000386956
-8.53767e-05
-0.000354342
-8.48188e-05
-0.000322595
-8.43239e-05
-0.000291641
-8.3931e-05
-0.000261372
-8.36687e-05
-0.000231659
-8.3558e-05
-0.00020235
-8.36285e-05
-0.000173325
-8.38752e-05
-0.000144495
-8.42996e-05
-0.000115877
-8.48138e-05
-8.76901e-05
-8.51989e-05
-5.98345e-05
-8.58615e-05
-3.03722e-05
-8.85517e-05
-8.15097e-05
-4.42595e-05
0.000107983
-8.40876e-05
9.40707e-05
-0.000127218
0.000101589
-0.000171802
0.000104854
-0.000216347
0.000104828
-0.000260524
0.000104387
-0.00030438
0.000104031
-0.000347904
0.000103628
-0.00039103
0.000103102
-0.000433698
0.000102472
-0.000475855
0.000101748
-0.00051745
0.000100938
-0.000558433
0.00010004
-0.000598765
9.90639e-05
-0.000638406
9.801e-05
-0.000677324
9.6886e-05
-0.000715492
9.56977e-05
-0.000752889
9.4453e-05
-0.000789499
9.31629e-05
-0.000825315
9.18384e-05
-0.000860335
9.04925e-05
-0.000894565
8.91392e-05
-0.000928018
8.77913e-05
-0.000960715
8.64652e-05
-0.000992686
8.51753e-05
-0.00102397
8.39352e-05
-0.0010546
8.27551e-05
-0.00108461
8.16417e-05
-0.00111405
8.05967e-05
-0.00114293
7.96151e-05
-0.0011713
7.86908e-05
-0.00119915
7.78168e-05
-0.00122651
7.69879e-05
-0.00125338
7.62008e-05
-0.00127977
7.54545e-05
-0.00130571
7.47483e-05
-0.00133119
7.40809e-05
-0.00135624
7.34473e-05
-0.00138087
7.28419e-05
-0.00140508
7.22579e-05
-0.00142888
7.16916e-05
-0.00145224
7.11407e-05
-0.00147516
7.06087e-05
-0.0014976
7.01052e-05
-0.00151954
6.96415e-05
-0.00154094
6.92278e-05
-0.00156178
6.88712e-05
-0.00158204
6.85698e-05
-0.00160173
6.83129e-05
-0.00162082
6.80799e-05
-0.00163933
6.78427e-05
-0.00165729
6.75672e-05
-0.00167472
6.72215e-05
-0.00169168
6.67831e-05
-0.00170822
6.62392e-05
-0.00172439
6.55914e-05
-0.00174027
6.48512e-05
-0.00175589
6.4033e-05
-0.00177129
6.31549e-05
-0.00178649
6.22337e-05
-0.00180151
6.12864e-05
-0.00181634
6.03248e-05
-0.001831
5.9352e-05
-0.00184547
5.8369e-05
-0.00185977
5.73714e-05
-0.00187387
5.63549e-05
-0.00188779
5.53183e-05
-0.00190152
5.42608e-05
-0.00191507
5.31834e-05
-0.00192842
5.20895e-05
-0.00194159
5.09851e-05
-0.00195457
4.98741e-05
-0.00196737
4.8763e-05
-0.00197998
4.76544e-05
-0.0019924
4.65499e-05
-0.00200463
4.54497e-05
-0.00201666
4.43543e-05
-0.0020285
4.32629e-05
-0.00204014
4.21733e-05
-0.00205157
4.1084e-05
-0.00206278
3.99946e-05
-0.00207377
3.89055e-05
-0.00208454
3.78174e-05
-0.00209506
3.67316e-05
-0.00210535
3.56495e-05
-0.00211538
3.45713e-05
-0.00212515
3.34969e-05
-0.00213466
3.24291e-05
-0.0021439
3.13645e-05
-0.00215286
3.03046e-05
-0.00216155
2.92498e-05
-0.00216995
2.81975e-05
-0.00217808
2.71475e-05
-0.00218593
2.60983e-05
-0.0021935
2.50486e-05
-0.00220081
2.39998e-05
-0.00220787
2.29495e-05
-0.00221467
2.18977e-05
-0.00222124
2.08455e-05
-0.00222758
1.97953e-05
-0.00223368
1.87506e-05
-0.00223955
1.77165e-05
-0.00224517
1.66926e-05
-0.00225055
1.56832e-05
-0.00225567
1.46902e-05
-0.00226052
1.37122e-05
-0.00226508
1.27492e-05
-0.00226936
1.18008e-05
-0.00227334
1.08664e-05
-0.00227701
9.94262e-06
-0.00228038
9.02404e-06
-0.00228343
8.11341e-06
-0.00228618
7.21084e-06
-0.00228863
6.31112e-06
-0.00229076
5.41199e-06
-0.00229258
4.52119e-06
-0.00229412
3.64655e-06
-0.00229534
2.76371e-06
-0.00229625
1.89736e-06
-0.00229688
1.04813e-06
-0.00229724
1.99201e-07
-0.00229732
-6.22876e-07
-0.00229711
-1.44217e-06
-0.00229663
-2.24231e-06
-0.00229588
-3.02367e-06
-0.00229487
-3.78611e-06
-0.0022936
-4.52891e-06
-0.00229209
-5.25099e-06
-0.00229033
-5.95209e-06
-0.00228835
-6.63068e-06
-0.00228614
-7.2864e-06
-0.00228372
-7.91781e-06
-0.0022811
-8.52446e-06
-0.00227829
-9.10463e-06
-0.0022753
-9.65648e-06
-0.00227215
-1.01777e-05
-0.00226886
-1.06654e-05
-0.00226546
-1.11168e-05
-0.00226196
-1.15293e-05
-0.00225839
-1.19019e-05
-0.00225477
-1.22329e-05
-0.00225113
-1.25209e-05
-0.00224749
-1.27666e-05
-0.00224385
-1.29696e-05
-0.00224024
-1.31302e-05
-0.00223665
-1.32478e-05
-0.00223309
-1.3322e-05
-0.00222955
-1.33506e-05
-0.00222603
-1.33317e-05
-0.00222252
-1.32621e-05
-0.00221902
-1.31401e-05
-0.00221551
-1.29646e-05
-0.00221199
-1.27362e-05
-0.00220846
-1.24544e-05
-0.00220491
-1.21202e-05
-0.00220134
-1.17337e-05
-0.00219772
-1.1294e-05
-0.00219405
-1.08025e-05
-0.0021903
-1.02586e-05
-0.00218642
-9.65929e-06
-0.00218239
-9.00129e-06
-0.00217816
-8.28449e-06
-0.00217368
-7.51259e-06
-0.00216895
-6.69426e-06
-0.00216395
-5.84668e-06
-0.00215875
-4.99975e-06
-0.00215334
-4.17764e-06
-0.00214776
-3.42341e-06
-0.00214211
-2.76655e-06
-0.00213645
-2.23247e-06
-0.00213089
-1.82704e-06
-0.00212553
-1.54064e-06
-0.00212046
-1.37305e-06
-0.00211577
-1.31543e-06
-0.00211148
-1.34268e-06
-0.00210761
-1.42245e-06
-0.00210414
-1.51884e-06
-0.00210105
-1.60308e-06
-0.00209828
-1.65277e-06
-0.00209578
-1.65552e-06
-0.0020935
-1.60769e-06
-0.00209139
-1.51233e-06
-0.00208942
-1.37731e-06
-0.00208754
-1.21109e-06
-0.00208577
-1.02116e-06
-0.00208408
-8.19605e-07
-0.0020825
-6.12333e-07
-0.00208102
-4.0995e-07
-0.00207966
-2.13161e-07
-0.00207843
-1.41383e-08
-0.00207736
2.01345e-07
-0.00207646
4.1512e-07
-0.00207573
6.38709e-07
-0.00207519
8.78272e-07
-0.00207485
1.1402e-06
-0.00207471
1.43003e-06
-0.00207477
1.75404e-06
-0.00207503
2.11793e-06
-0.00207548
2.524e-06
-0.00207611
2.97384e-06
-0.00207692
3.46225e-06
-0.00207789
3.98144e-06
-0.00207902
4.52121e-06
-0.0020803
5.07154e-06
-0.00208171
5.62097e-06
-0.00208324
6.1611e-06
-0.0020849
6.68691e-06
-0.00208666
7.19724e-06
-0.00208854
7.69409e-06
-0.00209053
8.18286e-06
-0.00209263
8.66875e-06
-0.00209487
9.15439e-06
-0.00209725
9.64506e-06
-0.00209979
1.01412e-05
-0.0021025
1.0641e-05
-0.0021054
1.11412e-05
-0.00210849
1.16359e-05
-0.00211178
1.21187e-05
-0.00211528
1.2581e-05
-0.00211897
1.30161e-05
-0.00212285
1.34185e-05
-0.0021269
1.37837e-05
-0.00213112
1.41105e-05
-0.0021355
1.43995e-05
-0.00214001
1.46518e-05
-0.00214465
1.4871e-05
-0.00214941
1.50606e-05
-0.00215428
1.52235e-05
-0.00215925
1.5362e-05
-0.0021643
1.5478e-05
-0.00216943
1.55725e-05
-0.00217463
1.56457e-05
-0.0021799
1.56975e-05
-0.00218521
1.57274e-05
-0.00219057
1.5735e-05
-0.00219596
1.57197e-05
-0.00220138
1.56812e-05
-0.00220681
1.56188e-05
-0.00221226
1.55316e-05
-0.00221771
1.54187e-05
-0.00222314
1.52797e-05
-0.00222856
1.51131e-05
-0.00223395
1.49187e-05
-0.0022393
1.4695e-05
-0.00224459
1.44429e-05
-0.00224982
1.41608e-05
-0.00225498
1.38494e-05
-0.00226004
1.35077e-05
-0.00226499
1.31363e-05
-0.00226982
1.2735e-05
-0.00227449
1.23045e-05
-0.002279
1.18447e-05
-0.00228329
1.1356e-05
-0.00228735
1.08372e-05
-0.00229113
1.0286e-05
-0.00229458
9.69833e-06
-0.00229762
9.06785e-06
-0.0023002
8.38247e-06
-0.00230223
7.62506e-06
-0.00230361
6.78224e-06
-0.00230427
5.86122e-06
-0.00230419
4.88915e-06
-0.00230336
3.90404e-06
-0.00230177
2.93376e-06
-0.00229941
1.98477e-06
-0.00229622
1.04952e-06
-0.00229212
1.26158e-07
-0.00228705
-7.49594e-07
-0.00228091
-1.5964e-06
-0.00227363
-2.3746e-06
-0.00226512
-3.11461e-06
-0.00225531
-3.78032e-06
-0.00224417
-4.35654e-06
-0.00223167
-4.86349e-06
-0.00221782
-5.32273e-06
-0.00220268
-5.7476e-06
-0.00218636
-6.18513e-06
-0.00216899
-6.69583e-06
-0.00215081
-7.33119e-06
-0.00213208
-8.19279e-06
-0.00211304
-9.36859e-06
-0.00209379
-1.10017e-05
-0.00207438
-1.33161e-05
-0.0020548
-1.65055e-05
-0.00203484
-2.07789e-05
-0.0020154
-2.62938e-05
-0.00199654
-3.28067e-05
-0.00197843
-3.99813e-05
-0.00196109
-4.75091e-05
-0.00194428
-5.5222e-05
-0.00192753
-6.29244e-05
-0.00191038
-7.03088e-05
-0.00189244
-7.69919e-05
-0.00187346
-8.26316e-05
-0.00185329
-8.70552e-05
-0.00183182
-9.03175e-05
-0.00180899
-9.26545e-05
-0.0017848
-9.43668e-05
-0.00175933
-9.57095e-05
-0.00173273
-9.68572e-05
-0.00170514
-9.79113e-05
-0.00167677
-9.89407e-05
-0.00164774
-0.000100019
-0.00161816
-0.000101221
-0.00158805
-0.000102607
-0.00155738
-0.000104189
-0.00152609
-0.000105929
-0.00149416
-0.000107744
-0.00146153
-0.000109542
-0.00142824
-0.000111243
-0.00139433
-0.000112798
-0.00135986
-0.000114201
-0.0013249
-0.000115478
-0.0012895
-0.000116673
-0.00125368
-0.000117828
-0.00121746
-0.000118977
-0.00118081
-0.00012013
-0.00114372
-0.000121298
-0.00110618
-0.00012246
-0.00106817
-0.000123605
-0.0010297
-0.000124696
-0.00099076
-0.000125722
-0.000951385
-0.000126657
-0.000911599
-0.000127493
-0.000871435
-0.000128215
-0.000830931
-0.000128813
-0.000790149
-0.000129272
-0.000749151
-0.000129578
-0.000708014
-0.000129718
-0.000666822
-0.000129671
-0.00062568
-0.000129419
-0.000584706
-0.000128946
-0.00054405
-0.000128236
-0.000503851
-0.000127297
-0.000464265
-0.000126135
-0.00042547
-0.000124762
-0.000387641
-0.000123206
-0.000350931
-0.000121529
-0.000315464
-0.000119791
-0.000281345
-0.00011805
-0.000248628
-0.000116386
-0.000217332
-0.000114854
-0.000187421
-0.000113539
-0.000158789
-0.000112507
-0.000131316
-0.000111773
-0.000104849
-0.000111281
-7.89922e-05
-0.000111056
-5.28247e-05
-0.000112029
-2.50107e-05
-0.000116366
-0.00010652
-4.12929e-05
0.000149276
-7.53495e-05
0.000128127
-0.000112719
0.000138958
-0.00015279
0.000144924
-0.00019316
0.000145199
-0.000232943
0.00014417
-0.000272225
0.000143313
-0.000311098
0.000142501
-0.000349559
0.000141564
-0.000387544
0.000140457
-0.000425017
0.000139221
-0.00046194
0.000137861
-0.000498296
0.000136395
-0.000534046
0.000134814
-0.000569174
0.000133138
-0.000603669
0.000131381
-0.000637521
0.000129549
-0.000670736
0.000127668
-0.000703326
0.000125754
-0.000735304
0.000123816
-0.000766689
0.000121878
-0.000797508
0.000119958
-0.000827787
0.00011807
-0.000857553
0.000116231
-0.000886834
0.000114456
-0.000915658
0.00011276
-0.000944053
0.00011115
-0.000972039
0.000109628
-0.000999639
0.000108197
-0.00102687
0.000106843
-0.00105374
0.000105563
-0.00108027
0.000104345
-0.00110646
0.00010318
-0.00113232
0.000102063
-0.00115786
0.00010099
-0.00118307
9.99609e-05
-0.00120796
9.89718e-05
-0.00123254
9.80221e-05
-0.0012568
9.71109e-05
-0.00128078
9.62342e-05
-0.00130448
9.53864e-05
-0.0013279
9.45661e-05
-0.00135106
9.37676e-05
-0.00137394
9.29876e-05
-0.00139653
9.22294e-05
-0.00141879
9.14919e-05
-0.0014407
9.07745e-05
-0.0014622
9.00765e-05
-0.00148328
8.93903e-05
-0.00150391
8.87082e-05
-0.00152409
8.80177e-05
-0.00154382
8.73031e-05
-0.00156315
8.65518e-05
-0.00158212
8.57468e-05
-0.00160076
8.48857e-05
-0.00161913
8.39623e-05
-0.00163726
8.29814e-05
-0.00165518
8.19461e-05
-0.00167289
8.08669e-05
-0.00169041
7.97509e-05
-0.00170772
7.86044e-05
-0.00172483
7.74317e-05
-0.00174171
7.62352e-05
-0.00175836
7.50199e-05
-0.00177477
7.37815e-05
-0.00179094
7.25232e-05
-0.00180687
7.12449e-05
-0.00182255
6.9944e-05
-0.00183799
6.86238e-05
-0.00185319
6.72881e-05
-0.00186815
6.59398e-05
-0.00188285
6.45823e-05
-0.00189731
6.32201e-05
-0.00191151
6.18509e-05
-0.00192544
6.0481e-05
-0.0019391
5.91084e-05
-0.00195248
5.77327e-05
-0.00196557
5.63564e-05
-0.00197837
5.49761e-05
-0.00199088
5.35932e-05
-0.0020031
5.2208e-05
-0.00201501
5.08211e-05
-0.00202663
4.94328e-05
-0.00203794
4.80441e-05
-0.00204894
4.6656e-05
-0.00205964
4.52709e-05
-0.00207004
4.38877e-05
-0.00208012
4.25101e-05
-0.00208989
4.11348e-05
-0.00209935
3.97648e-05
-0.0021085
3.83984e-05
-0.00211733
3.70349e-05
-0.00212586
3.56746e-05
-0.00213408
3.43188e-05
-0.002142
3.29656e-05
-0.00214961
3.16159e-05
-0.00215693
3.02692e-05
-0.00216396
2.89278e-05
-0.00217071
2.75933e-05
-0.00217718
2.62686e-05
-0.00218338
2.495e-05
-0.00218931
2.36414e-05
-0.00219496
2.23435e-05
-0.00220033
2.10521e-05
-0.00220541
1.97748e-05
-0.00221021
1.85062e-05
-0.00221471
1.72474e-05
-0.00221891
1.60023e-05
-0.0022228
1.47637e-05
-0.0022264
1.35337e-05
-0.00222969
1.23172e-05
-0.00223268
1.11026e-05
-0.00223537
9.89923e-06
-0.00223776
8.70491e-06
-0.00223987
7.52067e-06
-0.0022417
6.355e-06
-0.00224324
5.18479e-06
-0.00224452
4.04792e-06
-0.00224554
2.91249e-06
-0.00224628
1.79295e-06
-0.00224679
7.00709e-07
-0.00224702
-3.88453e-07
-0.00224702
-1.4417e-06
-0.00224679
-2.47184e-06
-0.00224634
-3.47723e-06
-0.00224567
-4.45661e-06
-0.00224479
-5.40801e-06
-0.00224371
-6.33055e-06
-0.00224244
-7.22162e-06
-0.00224099
-8.07967e-06
-0.00223937
-8.90363e-06
-0.0022376
-9.69319e-06
-0.00223568
-1.04455e-05
-0.00223362
-1.11591e-05
-0.00223145
-1.1832e-05
-0.00222916
-1.24623e-05
-0.00222678
-1.30481e-05
-0.00222431
-1.3587e-05
-0.00222176
-1.40772e-05
-0.00221915
-1.45176e-05
-0.00221647
-1.49076e-05
-0.00221374
-1.5247e-05
-0.00221098
-1.55352e-05
-0.00220817
-1.57737e-05
-0.00220534
-1.59633e-05
-0.00220248
-1.61043e-05
-0.00219961
-1.61962e-05
-0.00219672
-1.62401e-05
-0.00219382
-1.62338e-05
-0.0021909
-1.61782e-05