/*--------------------------------*- C++ -*----------------------------------*\
| =========                 |                                                 |
| \\      /  F ield         | OpenFOAM: The Open Source CFD Toolbox           |
|  \\    /   O peration     | Version:  v2006                                 |
|   \\  /    A nd           | Website:  www.openfoam.com                      |
|    \\/     M anipulation  |                                                 |
\*---------------------------------------------------------------------------*/
FoamFile
{
    version     2.0;
    format      ascii;
    class       volScalarField;
    location    "17";
    object      p_rgh;
}
// * * * * * * * * * * * * * * * * * * * * * * * * * * * * * * * * * * * * * //

dimensions      [1 -1 -2 0 0 0 0];


internalField   nonuniform List<scalar> 
52500
(
168.279
168.33
168.436
168.599
168.816
169.085
169.408
169.784
170.212
170.694
171.229
171.817
172.459
173.155
173.905
174.71
175.569
176.483
177.453
178.478
179.559
180.697
181.891
183.142
184.45
185.816
187.239
188.721
190.261
191.86
193.518
195.235
197.012
198.849
200.746
202.704
204.723
206.803
208.945
211.149
213.415
215.744
218.136
220.592
223.113
225.699
228.351
231.069
233.856
236.71
239.633
242.625
245.686
248.815
252.012
255.277
258.608
262.008
265.475
269.01
272.615
276.29
280.036
283.854
287.743
291.706
295.742
299.853
304.038
308.298
312.634
317.047
321.538
326.107
330.754
335.481
340.289
345.177
350.147
355.2
360.336
365.555
370.86
376.249
381.725
387.288
392.938
398.677
404.505
410.424
416.433
422.533
428.726
435.011
441.39
447.864
454.433
461.097
467.858
474.716
481.672
488.727
495.881
503.135
510.49
517.947
525.506
533.17
540.937
548.811
556.79
564.875
573.069
581.37
589.781
598.301
606.933
615.675
624.529
633.497
642.578
651.776
661.091
670.525
680.07
689.734
699.516
709.419
719.442
729.587
739.853
750.241
760.751
771.385
782.143
793.024
804.03
815.16
826.414
837.794
849.298
860.927
872.68
884.557
896.558
908.682
920.929
933.299
945.79
958.402
971.135
983.986
996.956
1010.04
1023.24
1036.56
1049.98
1063.52
1077.16
1090.92
1104.78
1118.74
1132.8
1146.97
1161.23
1175.58
1190.03
1204.56
1219.17
1233.87
1248.63
1263.47
1278.38
1293.34
1308.36
1323.44
1338.57
1353.74
1368.96
1384.22
1399.51
1414.83
1430.17
1445.54
1460.93
1476.32
1491.72
1507.13
1522.53
1537.92
1553.29
1568.64
1583.97
1599.27
1614.53
1629.76
1644.93
1660.05
1675.12
1690.12
1705.06
1719.92
1734.71
1749.41
1764.03
1778.55
1792.98
1807.3
1821.52
1835.62
1849.61
1863.47
1877.21
1890.82
1904.3
1917.63
1930.82
1943.86
1956.75
1969.49
1982.06
1994.47
2006.72
2018.8
2030.7
2042.43
2053.98
2065.35
2076.53
2087.53
2098.34
2108.95
2119.38
2129.6
2139.64
2149.47
2159.1
2168.53
2177.75
2186.77
2195.59
2204.2
2212.61
2220.8
2228.79
2236.58
2244.15
2251.52
2258.68
2265.64
2272.38
2278.93
2285.26
2291.4
2297.33
2303.06
2308.59
2313.92
2319.05
2323.99
2328.74
2333.31
2337.68
2341.87
2345.87
2349.68
2353.32
2356.78
2360.06
2363.17
2366.11
2368.88
2371.49
2373.93
2376.22
2378.36
2380.34
2382.18
2383.86
2385.4
2386.8
2388.07
2389.2
2390.21
2391.1
2391.86
2392.47
2392.94
2393.35
2393.73
2394.06
2394.32
2394.5
2394.58
2394.58
2394.48
2394.3
2394.03
2393.68
2393.25
2392.76
2392.21
2391.61
2390.95
2390.24
2389.49
2388.7
2387.87
2387
2386.11
2385.18
2384.23
2383.26
2382.27
2381.27
2380.25
2379.23
2378.2
2377.17
2376.13
2375.11
2374.08
2373.07
2372.06
2371.07
2370.09
2369.14
2368.2
2367.28
2366.39
2365.53
2364.69
2363.89
2363.11
2362.38
2361.68
2361.02
2360.4
2359.83
2359.3
2358.81
2358.37
2357.99
2357.64
2357.35
2357.11
2356.92
2356.77
2356.67
2356.6
168.116
168.166
168.274
168.439
168.656
168.926
169.249
169.625
170.053
170.534
171.069
171.656
172.298
172.993
173.742
174.545
175.403
176.316
177.284
178.308
179.388
180.524
181.717
182.967
184.274
185.639
187.061
188.542
190.082
191.68
193.337
195.054
196.83
198.667
200.563
202.52
204.538
206.618
208.759
210.962
213.228
215.557
217.949
220.405
222.925
225.51
228.16
230.877
233.662
236.514
239.435
242.424
245.482
248.608
251.801
255.062
258.39
261.786
265.251
268.784
272.386
276.059
279.803
283.619
287.507
291.468
295.502
299.61
303.793
308.052
312.386
316.797
321.286
325.853
330.499
335.224
340.03
344.916
349.885
354.936
360.07
365.289
370.592
375.98
381.455
387.017
392.666
398.404
404.231
410.148
416.156
422.255
428.446
434.73
441.108
447.58
454.147
460.81
467.569
474.426
481.38
488.434
495.587
502.84
510.194
517.65
525.209
532.871
540.637
548.509
556.486
564.57
572.761
581.06
589.469
597.987
606.616
615.357
624.209
633.174
642.25
651.448
660.761
670.188
679.736
689.401
699.185
709.088
719.11
729.254
739.519
749.907
760.417
771.05
781.807
792.688
803.694
814.824
826.079
837.459
848.964
860.593
872.348
884.226
896.229
908.356
920.605
932.978
945.472
958.087
970.823
983.678
996.653
1009.74
1022.95
1036.28
1049.71
1063.26
1076.92
1090.69
1104.56
1118.53
1132.61
1146.78
1161.05
1175.41
1189.85
1204.38
1218.99
1233.68
1248.45
1263.28
1278.19
1293.16
1308.18
1323.27
1338.41
1353.6
1368.83
1384.11
1399.42
1414.75
1430.12
1445.5
1460.9
1476.31
1491.72
1507.14
1522.55
1537.95
1553.33
1568.7
1584.04
1599.35
1614.62
1629.86
1645.05
1660.19
1675.27
1690.29
1705.25
1720.13
1734.94
1749.66
1764.3
1778.84
1793.28
1807.62
1821.85
1835.97
1849.97
1863.84
1877.59
1891.2
1904.68
1918.03
1931.22
1944.27
1957.17
1969.92
1982.5
1994.92
2007.18
2019.27
2031.18
2042.91
2054.47
2065.85
2077.04
2088.04
2098.85
2109.48
2119.9
2130.14
2140.17
2150
2159.64
2169.07
2178.3
2187.32
2196.14
2204.75
2213.16
2221.35
2229.34
2237.13
2244.7
2252.07
2259.23
2266.19
2272.93
2279.48
2285.82
2291.95
2297.89
2303.62
2309.16
2314.5
2319.64
2324.58
2329.33
2333.88
2338.24
2342.41
2346.4
2350.21
2353.84
2357.3
2360.59
2363.7
2366.65
2369.42
2372.02
2374.46
2376.73
2378.84
2380.79
2382.59
2384.23
2385.73
2387.08
2388.29
2389.36
2390.3
2391.14
2391.83
2392.44
2393.03
2393.55
2393.97
2394.32
2394.58
2394.74
2394.81
2394.78
2394.66
2394.45
2394.16
2393.79
2393.35
2392.85
2392.29
2391.67
2391
2390.28
2389.52
2388.71
2387.87
2386.99
2386.08
2385.14
2384.18
2383.2
2382.2
2381.18
2380.15
2379.12
2378.08
2377.03
2375.99
2374.95
2373.92
2372.89
2371.88
2370.88
2369.89
2368.92
2367.98
2367.05
2366.15
2365.28
2364.44
2363.63
2362.85
2362.11
2361.4
2360.73
2360.11
2359.53
2358.99
2358.5
2358.06
2357.66
2357.31
2357.02
2356.77
2356.57
2356.42
2356.33
2356.27
167.708
167.761
167.873
168.039
168.257
168.527
168.85
169.226
169.654
170.135
170.67
171.257
171.898
172.594
173.343
174.146
175.005
175.918
176.887
177.912
178.992
180.129
181.323
182.574
183.882
185.247
186.671
188.153
189.693
191.292
192.949
194.667
196.443
198.28
200.176
202.133
204.151
206.231
208.372
210.575
212.84
215.168
217.56
220.016
222.535
225.12
227.77
230.485
233.266
236.114
239.028
242.01
245.059
248.175
251.36
254.613
257.935
261.326
264.786
268.316
271.916
275.587
279.329
283.143
287.03
290.989
295.022
299.128
303.31
307.568
311.901
316.311
320.799
325.365
330.01
334.734
339.539
344.425
349.392
354.442
359.575
364.792
370.093
375.48
380.954
386.514
392.161
397.897
403.722
409.637
415.643
421.74
427.929
434.21
440.586
447.055
453.62
460.28
467.036
473.89
480.842
487.892
495.042
502.292
509.643
517.096
524.651
532.31
540.072
547.94
555.913
563.992
572.18
580.475
588.879
597.393
606.019
614.755
623.605
632.57
641.653
650.84
660.144
669.566
679.107
688.767
698.545
708.444
718.463
728.603
738.865
749.249
759.756
770.387
781.142
792.021
803.025
814.153
825.407
836.786
848.291
859.921
871.676
883.557
895.562
907.692
919.945
932.323
944.823
957.445
970.188
983.052
996.035
1009.14
1022.35
1035.69
1049.13
1062.69
1076.36
1090.14
1104.02
1118
1132.09
1146.27
1160.55
1174.93
1189.39
1203.93
1218.56
1233.27
1248.06
1262.91
1277.84
1292.83
1307.88
1322.99
1338.16
1353.37
1368.62
1383.92
1399.25
1414.61
1430
1445.41
1460.84
1476.27
1491.72
1507.16
1522.6
1538.03
1553.44
1568.84
1584.21
1599.55
1614.85
1630.11
1645.33
1660.5
1675.61
1690.65
1705.63
1720.54
1735.37
1750.12
1764.77
1779.34
1793.8
1808.17
1822.42
1836.56
1850.59
1864.49
1878.26
1891.9
1905.41
1918.78
1932
1945.07
1957.99
1970.75
1983.36
1995.8
2008.07
2020.18
2032.1
2043.86
2055.43
2066.82
2078.02
2089.04
2099.87
2110.5
2120.94
2131.18
2141.22
2151.07
2160.71
2170.15
2179.38
2188.41
2197.23
2205.85
2214.26
2222.46
2230.45
2238.23
2245.81
2253.17
2260.33
2267.28
2274.03
2280.56
2286.89
2293.02
2298.95
2304.67
2310.19
2315.51
2320.63
2325.56
2330.29
2334.84
2339.19
2343.35
2347.33
2351.12
2354.72
2358.16
2361.42
2364.5
2367.42
2370.17
2372.75
2375.18
2377.44
2379.55
2381.51
2383.32
2384.98
2386.5
2387.89
2389.14
2390.26
2391.24
2392.08
2392.82
2393.46
2393.99
2394.42
2394.76
2395.01
2395.18
2395.27
2395.27
2395.19
2395.02
2394.78
2394.46
2394.06
2393.6
2393.07
2392.48
2391.84
2391.14
2390.4
2389.61
2388.78
2387.91
2387.01
2386.07
2385.11
2384.12
2383.12
2382.09
2381.05
2380.01
2378.95
2377.89
2376.83
2375.76
2374.71
2373.65
2372.61
2371.58
2370.56
2369.56
2368.58
2367.62
2366.68
2365.77
2364.89
2364.04
2363.21
2362.43
2361.67
2360.96
2360.29
2359.65
2359.06
2358.52
2358.02
2357.57
2357.17
2356.82
2356.52
2356.27
2356.07
2355.92
2355.82
2355.76
167.04
167.092
167.204
167.371
167.59
167.861
168.185
168.562
168.992
169.475
170.011
170.601
171.244
171.942
172.694
173.5
174.362
175.278
176.25
177.278
178.362
179.502
180.699
181.953
183.264
184.632
186.059
187.543
189.085
190.686
192.345
194.063
195.841
197.678
199.575
201.533
203.551
205.63
207.77
209.973
212.238
214.565
216.956
219.41
221.928
224.511
227.159
229.872
232.652
235.497
238.41
241.389
244.436
247.55
250.733
253.983
257.302
260.69
264.148
267.675
271.272
274.941
278.68
282.491
286.375
290.332
294.362
298.466
302.645
306.899
311.23
315.637
320.122
324.684
329.326
334.047
338.848
343.73
348.693
353.739
358.869
364.082
369.379
374.762
380.231
385.787
391.43
397.162
402.983
408.894
414.895
420.987
427.172
433.449
439.819
446.284
452.843
459.498
466.25
473.098
480.045
487.09
494.234
501.478
508.823
516.27
523.819
531.472
539.228
547.089
555.056
563.129
571.31
579.598
587.996
596.504
605.122
613.853
622.695
631.651
640.721
649.905
659.207
668.625
678.16
687.814
697.587
707.48
717.493
727.629
737.886
748.266
758.769
769.396
780.148
791.025
802.027
813.154
824.407
835.786
847.291
858.922
870.679
882.561
894.57
906.703
918.961
931.343
943.849
956.478
969.229
982.101
995.094
1008.2
1021.43
1034.78
1048.24
1061.81
1075.49
1089.29
1103.18
1117.19
1131.29
1145.5
1159.8
1174.2
1188.69
1203.26
1217.92
1232.66
1247.48
1262.37
1277.32
1292.35
1307.43
1322.58
1337.78
1353.02
1368.31
1383.65
1399.01
1414.41
1429.84
1445.29
1460.75
1476.22
1491.71
1507.19
1522.67
1538.14
1553.6
1569.04
1584.45
1599.83
1615.18
1630.49
1645.75
1660.96
1676.11
1691.2
1706.22
1721.17
1736.04
1750.83
1765.53
1780.13
1794.64
1809.04
1823.33
1837.51
1851.57
1865.51
1879.32
1892.99
1906.53
1919.93
1933.18
1946.29
1959.24
1972.03
1984.66
1997.13
2009.43
2021.56
2033.52
2045.29
2056.89
2068.3
2079.52
2090.56
2101.4
2112.05
2122.5
2132.76
2142.82
2152.67
2162.33
2171.77
2181.02
2190.05
2198.88
2207.5
2215.91
2224.12
2232.11
2239.89
2247.47
2254.83
2261.98
2268.93
2275.67
2282.2
2288.52
2294.64
2300.55
2306.26
2311.77
2317.08
2322.19
2327.1
2331.82
2336.35
2340.68
2344.83
2348.78
2352.56
2356.16
2359.56
2362.8
2365.86
2368.75
2371.48
2374.04
2376.44
2378.68
2380.76
2382.69
2384.46
2386.1
2387.58
2388.93
2390.14
2391.21
2392.16
2392.98
2393.69
2394.3
2394.81
2395.22
2395.53
2395.76
2395.89
2395.93
2395.88
2395.75
2395.54
2395.25
2394.88
2394.44
2393.94
2393.37
2392.75
2392.07
2391.33
2390.55
2389.73
2388.86
2387.96
2387.02
2386.05
2385.05
2384.03
2382.99
2381.94
2380.87
2379.79
2378.7
2377.61
2376.52
2375.43
2374.34
2373.26
2372.2
2371.14
2370.1
2369.08
2368.08
2367.1
2366.14
2365.22
2364.32
2363.45
2362.61
2361.81
2361.05
2360.33
2359.65
2359.01
2358.41
2357.86
2357.36
2356.9
2356.5
2356.14
2355.84
2355.59
2355.39
2355.25
2355.14
2355.07
166.131
166.182
166.294
166.462
166.683
166.957
167.284
167.664
168.098
168.585
169.126
169.721
170.37
171.073
171.831
172.643
173.511
174.433
175.412
176.445
177.535
178.681
179.883
181.141
182.457
183.829
185.259
186.746
188.291
189.893
191.554
193.274
195.053
196.89
198.788
200.745
202.763
204.842
206.982
209.184
211.448
213.774
216.163
218.616
221.132
223.713
226.358
229.068
231.844
234.686
237.594
240.57
243.612
246.723
249.901
253.148
256.463
259.847
263.301
266.824
270.418
274.082
277.818
281.625
285.505
289.458
293.484
297.584
301.759
306.009
310.335
314.737
319.217
323.775
328.412
333.128
337.924
342.801
347.76
352.801
357.925
363.132
368.425
373.802
379.266
384.816
390.454
396.18
401.996
407.901
413.896
419.983
426.161
432.432
438.797
445.256
451.809
458.458
465.203
472.046
478.985
486.024
493.161
500.398
507.736
515.176
522.717
530.362
538.11
545.963
553.922
561.987
570.159
578.439
586.828
595.326
603.936
612.657
621.491
630.438
639.5
648.679
657.968
667.376
676.902
686.547
696.311
706.196
716.202
726.33
736.581
746.954
757.452
768.074
778.821
789.693
800.691
811.816
823.067
834.445
845.95
857.582
869.341
881.226
893.238
905.377
917.642
930.032
942.547
955.186
967.949
980.834
993.841
1006.97
1020.21
1033.58
1047.06
1060.65
1074.36
1088.17
1102.1
1116.13
1130.26
1144.49
1158.83
1173.25
1187.77
1202.38
1217.07
1231.84
1246.69
1261.62
1276.62
1291.69
1306.82
1322
1337.25
1352.54
1367.88
1383.26
1398.68
1414.14
1429.61
1445.12
1460.63
1476.16
1491.7
1507.24
1522.78
1538.3
1553.82
1569.31
1584.78
1600.22
1615.62
1630.99
1646.3
1661.57
1676.78
1691.92
1707
1722
1736.93
1751.77
1766.52
1781.18
1795.74
1810.19
1824.54
1838.77
1852.87
1866.86
1880.72
1894.44
1908.03
1921.47
1934.77
1947.91
1960.9
1973.74
1986.41
1998.91
2011.25
2023.41
2035.4
2047.2
2058.83
2070.27
2081.52
2092.58
2103.45
2114.12
2124.6
2134.87
2144.95
2154.82
2164.48
2173.94
2183.2
2192.24
2201.08
2209.71
2218.12
2226.33
2234.32
2242.11
2249.68
2257.04
2264.19
2271.13
2277.86
2284.38
2290.7
2296.8
2302.7
2308.4
2313.89
2319.18
2324.27
2329.16
2333.86
2338.36
2342.68
2346.8
2350.75
2354.48
2358.04
2361.41
2364.62
2367.64
2370.5
2373.19
2375.71
2378.08
2380.28
2382.33
2384.22
2385.97
2387.56
2389.02
2390.34
2391.52
2392.57
2393.49
2394.29
2394.98
2395.54
2396
2396.36
2396.61
2396.77
2396.84
2396.81
2396.7
2396.51
2396.24
2395.89
2395.47
2394.98
2394.42
2393.8
2393.13
2392.39
2391.61
2390.78
2389.9
2388.98
2388.03
2387.04
2386.03
2384.98
2383.92
2382.83
2381.73
2380.62
2379.5
2378.37
2377.24
2376.11
2374.98
2373.86
2372.74
2371.64
2370.55
2369.48
2368.43
2367.4
2366.4
2365.42
2364.47
2363.55
2362.66
2361.81
2360.99
2360.22
2359.48
2358.79
2358.14
2357.54
2356.98
2356.48
2356.02
2355.61
2355.25
2354.95
2354.7
2354.51
2354.36
2354.25
2354.16
165.003
165.054
165.166
165.336
165.56
165.837
166.169
166.554
166.993
167.486
168.033
168.634
169.29
170
170.765
171.584
172.459
173.388
174.373
175.413
176.508
177.659
178.866
180.129
181.448
182.824
184.257
185.746
187.293
188.897
190.559
192.28
194.059
195.897
197.794
199.751
201.768
203.846
205.985
208.185
210.448
212.772
215.16
217.61
220.125
222.703
225.346
228.055
230.828
233.667
236.573
239.545
242.584
245.691
248.865
252.108
255.418
258.798
262.247
265.766
269.355
273.015
276.746
280.549
284.423
288.371
292.392
296.487
300.656
304.901
309.221
313.618
318.092
322.644
327.274
331.984
336.774
341.644
346.596
351.631
356.748
361.949
367.234
372.604
378.061
383.604
389.235
394.954
400.762
406.659
412.647
418.726
424.897
431.161
437.518
443.968
450.514
457.154
463.891
470.725
477.656
484.685
491.814
499.042
506.37
513.8
521.332
528.967
536.705
544.548
552.496
560.55
568.711
576.98
585.358
593.846
602.444
611.153
619.975
628.911
637.96
647.124
656.406
665.805
675.321
684.956
694.71
704.586
714.583
724.702
734.944
745.31
755.8
766.416
777.157
788.025
799.019
810.141
821.39
832.766
844.271
855.904
867.665
879.555
891.572
903.716
915.989
928.388
940.913
953.564
966.34
979.241
992.264
1005.41
1018.67
1032.06
1045.56
1059.18
1072.91
1086.76
1100.71
1114.77
1128.94
1143.21
1157.58
1172.04
1186.6
1201.25
1215.99
1230.81
1245.71
1260.69
1275.74
1290.86
1306.04
1321.29
1336.59
1351.94
1367.34
1382.79
1398.27
1413.78
1429.32
1444.89
1460.47
1476.07
1491.68
1507.29
1522.89
1538.49
1554.07
1569.64
1585.18
1600.69
1616.17
1631.6
1646.99
1662.33
1677.61
1692.82
1707.97
1723.04
1738.04
1752.95
1767.77
1782.49
1797.12
1811.64
1826.04
1840.34
1854.51
1868.55
1882.47
1896.25
1909.9
1923.39
1936.75
1949.94
1962.99
1975.87
1988.59
2001.14
2013.52
2025.73
2037.75
2049.6
2061.26
2072.74
2084.02
2095.12
2106.01
2116.71
2127.22
2137.52
2147.61
2157.5
2167.19
2176.67
2185.93
2194.99
2203.84
2212.47
2220.9
2229.11
2237.1
2244.89
2252.46
2259.81
2266.96
2273.89
2280.61
2287.12
2293.42
2299.51
2305.39
2311.07
2316.54
2321.81
2326.87
2331.74
2336.41
2340.88
2345.15
2349.24
2353.12
2356.85
2360.38
2363.73
2366.9
2369.89
2372.71
2375.35
2377.84
2380.16
2382.31
2384.32
2386.16
2387.86
2389.41
2390.82
2392.08
2393.21
2394.21
2395.08
2395.83
2396.45
2396.97
2397.37
2397.67
2397.87
2397.96
2397.97
2397.88
2397.71
2397.45
2397.11
2396.7
2396.21
2395.65
2395.03
2394.34
2393.6
2392.81
2391.96
2391.06
2390.13
2389.15
2388.13
2387.09
2386.01
2384.91
2383.79
2382.65
2381.49
2380.33
2379.15
2377.97
2376.79
2375.61
2374.43
2373.26
2372.1
2370.96
2369.83
2368.71
2367.62
2366.56
2365.52
2364.51
2363.52
2362.58
2361.66
2360.79
2359.95
2359.16
2358.41
2357.7
2357.04
2356.43
2355.86
2355.35
2354.89
2354.47
2354.11
2353.81
2353.56
2353.36
2353.22
2353.11
2353.01
163.665
163.716
163.829
164.001
164.229
164.51
164.846
165.236
165.681
166.18
166.734
167.342
168.004
168.722
169.493
170.32
171.201
172.137
173.127
174.173
175.274
176.43
177.641
178.908
180.231
181.61
183.045
184.536
186.085
187.691
189.354
191.075
192.854
194.692
196.589
198.546
200.563
202.64
204.778
206.977
209.238
211.561
213.946
216.395
218.907
221.483
224.124
226.829
229.6
232.436
235.338
238.307
241.342
244.445
247.615
250.854
254.16
257.536
260.98
264.494
268.079
271.733
275.459
279.256
283.125
287.067
291.082
295.171
299.334
303.572
307.886
312.276
316.742
321.287
325.91
330.612
335.394
340.257
345.201
350.227
355.336
360.528
365.805
371.167
376.615
382.15
387.772
393.482
399.281
405.17
411.149
417.219
423.381
429.636
435.983
442.425
448.961
455.592
462.319
469.143
476.064
483.083
490.201
497.418
504.736
512.154
519.675
527.298
535.024
542.854
550.79
558.831
566.979
575.235
583.599
592.073
600.658
609.353
618.162
627.083
636.119
645.271
654.538
663.922
673.425
683.047
692.789
702.653
712.638
722.746
732.978
743.334
753.816
764.423
775.157
786.018
797.007
808.125
819.371
830.746
842.25
853.884
865.647
877.54
889.563
901.715
913.996
926.405
938.943
951.609
964.401
977.319
990.362
1003.53
1016.82
1030.23
1043.76
1057.41
1071.17
1085.05
1099.04
1113.14
1127.35
1141.66
1156.08
1170.59
1185.2
1199.9
1214.69
1229.57
1244.53
1259.57
1274.68
1289.86
1305.11
1320.43
1335.8
1351.22
1366.69
1382.21
1397.77
1413.36
1428.98
1444.63
1460.29
1475.97
1491.66
1507.35
1523.04
1538.72
1554.39
1570.04
1585.67
1601.27
1616.83
1632.35
1647.82
1663.24
1678.61
1693.91
1709.14
1724.3
1739.38
1754.37
1769.27
1784.08
1798.78
1813.38
1827.86
1842.23
1856.48
1870.6
1884.58
1898.44
1912.15
1925.71
1939.13
1952.39
1965.5
1978.44
1991.22
2003.83
2016.26
2028.52
2040.59
2052.49
2064.19
2075.71
2087.04
2098.17
2109.1
2119.84
2130.37
2140.7
2150.82
2160.74
2170.45
2179.94
2189.23
2198.3
2207.16
2215.8
2224.23
2232.45
2240.45
2248.23
2255.8
2263.15
2270.29
2277.21
2283.92
2290.42
2296.7
2302.77
2308.63
2314.29
2319.74
2324.98
2330.01
2334.85
2339.49
2343.92
2348.17
2352.21
2356.07
2359.74
2363.23
2366.53
2369.65
2372.59
2375.36
2377.96
2380.39
2382.66
2384.76
2386.71
2388.5
2390.14
2391.63
2392.98
2394.18
2395.25
2396.19
2397
2397.68
2398.25
2398.69
2399.03
2399.26
2399.38
2399.4
2399.33
2399.17
2398.92
2398.58
2398.17
2397.68
2397.11
2396.47
2395.77
2395.01
2394.19
2393.32
2392.4
2391.43
2390.41
2389.36
2388.28
2387.16
2386.01
2384.84
2383.65
2382.44
2381.22
2379.98
2378.74
2377.5
2376.26
2375.02
2373.78
2372.55
2371.34
2370.14
2368.96
2367.8
2366.66
2365.55
2364.47
2363.41
2362.39
2361.41
2360.46
2359.56
2358.69
2357.87
2357.1
2356.37
2355.69
2355.06
2354.49
2353.96
2353.49
2353.06
2352.7
2352.39
2352.13
2351.93
2351.78
2351.67
2351.57
162.121
162.173
162.287
162.461
162.692
162.977
163.317
163.713
164.163
164.668
165.228
165.842
166.511
167.235
168.013
168.845
169.733
170.674
171.671
172.722
173.827
174.988
176.203
177.474
178.8
180.182
181.619
183.113
184.663
186.27
187.934
189.656
191.436
193.274
195.172
197.128
199.144
201.221
203.358
205.556
207.816
210.138
212.522
214.97
217.48
220.054
222.693
225.396
228.164
230.997
233.896
236.862
239.894
242.993
246.159
249.393
252.695
256.066
259.505
263.014
266.593
270.242
273.962
277.753
281.615
285.55
289.558
293.64
297.795
302.026
306.331
310.713
315.172
319.707
324.322
329.015
333.788
338.641
343.575
348.592
353.691
358.874
364.141
369.493
374.93
380.455
386.067
391.767
397.555
403.434
409.402
415.462
421.613
427.857
434.194
440.624
447.149
453.769
460.484
467.296
474.205
481.212
488.318
495.522
502.827
510.232
517.739
525.348
533.06
540.876
548.797
556.823
564.956
573.196
581.545
590.002
598.571
607.25
616.042
624.947
633.966
643.101
652.353
661.722
671.209
680.816
690.544
700.393
710.364
720.459
730.678
741.023
751.493
762.091
772.816
783.67
794.652
805.764
817.006
828.379
839.882
851.517
863.282
875.18
887.208
899.368
911.659
924.08
936.632
949.314
962.124
975.063
988.129
1001.32
1014.64
1028.08
1041.64
1055.33
1069.13
1083.05
1097.08
1111.22
1125.48
1139.84
1154.31
1168.88
1183.54
1198.31
1213.16
1228.1
1243.13
1258.24
1273.42
1288.68
1304.01
1319.4
1334.85
1350.36
1365.92
1381.52
1397.17
1412.85
1428.57
1444.3
1460.06
1475.84
1491.62
1507.41
1523.2
1538.98
1554.75
1570.5
1586.23
1601.93
1617.59
1633.21
1648.79
1664.31
1679.78
1695.18
1710.51
1725.76
1740.94
1756.03
1771.03
1785.93
1800.72
1815.41
1829.99
1844.45
1858.78
1872.99
1887.06
1900.99
1914.79
1928.43
1941.92
1955.26
1968.44
1981.45
1994.3
2006.97
2019.47
2031.78
2043.92
2055.87
2067.63
2079.2
2090.57
2101.75
2112.72
2123.5
2134.07
2144.43
2154.58
2164.53
2174.26
2183.78
2193.09
2202.18
2211.05
2219.7
2228.14
2236.36
2244.37
2252.15
2259.71
2267.06
2274.19
2281.1
2287.8
2294.28
2300.54
2306.59
2312.43
2318.06
2323.48
2328.69
2333.69
2338.49
2343.09
2347.48
2351.68
2355.68
2359.5
2363.12
2366.55
2369.8
2372.87
2375.76
2378.47
2381.01
2383.38
2385.58
2387.62
2389.5
2391.23
2392.8
2394.22
2395.5
2396.63
2397.63
2398.49
2399.23
2399.84
2400.32
2400.69
2400.94
2401.09
2401.13
2401.07
2400.91
2400.66
2400.32
2399.9
2399.4
2398.81
2398.16
2397.44
2396.65
2395.8
2394.89
2393.93
2392.92
2391.86
2390.76
2389.62
2388.45
2387.25
2386.02
2384.76
2383.49
2382.2
2380.9
2379.59
2378.28
2376.96
2375.65
2374.33
2373.03
2371.74
2370.46
2369.2
2367.95
2366.73
2365.54
2364.37
2363.24
2362.14
2361.07
2360.04
2359.06
2358.11
2357.21
2356.36
2355.55
2354.8
2354.09
2353.44
2352.84
2352.3
2351.81
2351.37
2350.99
2350.67
2350.41
2350.2
2350.04
2349.93
2349.83
160.367
160.42
160.536
160.712
160.946
161.236
161.58
161.98
162.436
162.946
163.512
164.132
164.807
165.537
166.321
167.159
168.052
168.999
170
171.056
172.167
173.331
174.551
175.825
177.154
178.539
179.979
181.475
183.027
184.636
186.301
188.024
189.805
191.644
193.542
195.499
197.515
199.591
201.728
203.926
206.185
208.506
210.889
213.335
215.844
218.416
221.053
223.754
226.519
229.35
232.246
235.208
238.237
241.332
244.494
247.724
251.021
254.387
257.821
261.324
264.897
268.54
272.253
276.037
279.892
283.82
287.82
291.893
296.04
300.261
304.558
308.93
313.379
317.905
322.509
327.192
331.954
336.796
341.719
346.725
351.813
356.984
362.239
367.58
373.006
378.519
384.119
389.807
395.584
401.45
407.407
413.454
419.593
425.825
432.149
438.567
445.079
451.687
458.389
465.188
472.084
479.077
486.168
493.359
500.648
508.039
515.53
523.123
530.819
538.618
546.522
554.531
562.646
570.868
579.198
587.638
596.187
604.848
613.621
622.507
631.507
640.623
649.856
659.206
668.675
678.264
687.974
697.806
707.761
717.84
728.045
738.375
748.833
759.418
770.133
780.977
791.951
803.057
814.294
825.663
837.165
848.799
860.567
872.468
884.503
896.671
908.973
921.407
933.975
946.674
959.505
972.467
985.559
998.78
1012.13
1025.6
1039.2
1052.93
1066.77
1080.74
1094.82
1109.01
1123.32
1137.74
1152.27
1166.9
1181.64
1196.47
1211.4
1226.41
1241.52
1256.71
1271.98
1287.32
1302.74
1318.22
1333.77
1349.37
1365.03
1380.73
1396.48
1412.27
1428.09
1443.93
1459.8
1475.69
1491.58
1507.49
1523.39
1539.28
1555.17
1571.03
1586.88
1602.69
1618.47
1634.21
1649.9
1665.54
1681.12
1696.63
1712.08
1727.45
1742.73
1757.94
1773.04
1788.05
1802.96
1817.75
1832.43
1846.99
1861.43
1875.73
1889.9
1903.93
1917.82
1931.55
1945.13
1958.56
1971.82
1984.91
1997.83
2010.58
2023.15
2035.54
2047.74
2059.75
2071.57
2083.2
2094.63
2105.86
2116.88
2127.7
2138.31
2148.71
2158.9
2168.88
2178.64
2188.19
2197.52
2206.63
2215.51
2224.18
2232.63
2240.86
2248.86
2256.65
2264.21
2271.55
2278.67
2285.57
2292.25
2298.71
2304.95
2310.98
2316.79
2322.39
2327.77
2332.95
2337.91
2342.67
2347.22
2351.57
2355.72
2359.68
2363.43
2367
2370.38
2373.56
2376.57
2379.39
2382.04
2384.51
2386.81
2388.94
2390.9
2392.71
2394.36
2395.85
2397.19
2398.39
2399.44
2400.35
2401.13
2401.78
2402.29
2402.69
2402.97
2403.13
2403.18
2403.13
2402.97
2402.72
2402.37
2401.93
2401.41
2400.8
2400.12
2399.36
2398.54
2397.65
2396.69
2395.69
2394.62
2393.51
2392.35
2391.16
2389.92
2388.65
2387.35
2386.03
2384.68
2383.32
2381.94
2380.54
2379.15
2377.74
2376.34
2374.94
2373.55
2372.17
2370.8
2369.45
2368.11
2366.8
2365.51
2364.25
2363.02
2361.83
2360.67
2359.55
2358.47
2357.43
2356.44
2355.5
2354.6
2353.76
2352.97
2352.23
2351.55
2350.92
2350.35
2349.84
2349.39
2348.99
2348.66
2348.38
2348.16
2348
2347.88
2347.79
158.401
158.455
158.572
158.751
158.989
159.282
159.63
160.035
160.496
161.012
161.583
162.209
162.89
163.625
164.415
165.259
166.157
167.11
168.116
169.177
170.292
171.461
172.684
173.962
175.295
176.682
178.125
179.624
181.178
182.789
184.457
186.181
187.963
189.803
191.702
193.659
195.676
197.752
199.889
202.087
204.345
206.665
209.048
211.492
214
216.571
219.206
221.904
224.668
227.496
230.389
233.348
236.373
239.464
242.622
245.847
249.14
252.5
255.929
259.426
262.992
266.628
270.334
274.11
277.958
281.877
285.868
289.932
294.069
298.28
302.566
306.928
311.365
315.88
320.472
325.143
329.893
334.723
339.633
344.626
349.701
354.859
360.101
365.429
370.841
376.341
381.928
387.602
393.366
399.219
405.162
411.196
417.322
423.539
429.85
436.254
442.752
449.345
456.033
462.817
469.698
476.676
483.752
490.926
498.199
505.572
513.046
520.621
528.299
536.079
543.964
551.953
560.048
568.25
576.559
584.978
593.506
602.145
610.896
619.76
628.738
637.832
647.043
656.372
665.82
675.388
685.077
694.889
704.825
714.886
725.073
735.387
745.829
756.401
767.102
777.935
788.899
799.996
811.227
822.591
834.091
845.725
857.494
869.4
881.441
893.618
905.93
918.379
930.963
943.682
956.536
969.523
982.644
995.896
1009.28
1022.79
1036.43
1050.2
1064.09
1078.11
1092.25
1106.5
1120.87
1135.36
1149.95
1164.66
1179.46
1194.37
1209.38
1224.49
1239.68
1254.96
1270.32
1285.77
1301.28
1316.87
1332.52
1348.23
1364
1379.82
1395.69
1411.59
1427.53
1443.5
1459.49
1475.5
1491.52
1507.55
1523.58
1539.61
1555.62
1571.62
1587.6
1603.54
1619.45
1635.32
1651.15
1666.92
1682.63
1698.27
1713.85
1729.35
1744.76
1760.09
1775.32
1790.45
1805.48
1820.39
1835.19
1849.87
1864.42
1878.84
1893.12
1907.25
1921.24
1935.08
1948.76
1962.28
1975.64
1988.82
2001.83
2014.67
2027.32
2039.78
2052.06
2064.15
2076.04
2087.73
2099.22
2110.51
2121.58
2132.46
2143.11
2153.56
2163.79
2173.8
2183.6
2193.17
2202.53
2211.66
2220.57
2229.25
2237.71
2245.94
2253.95
2261.73
2269.29
2276.63
2283.74
2290.62
2297.28
2303.72
2309.94
2315.94
2321.72
2327.28
2332.63
2337.76
2342.68
2347.39
2351.9
2356.19
2360.29
2364.18
2367.88
2371.38
2374.69
2377.81
2380.75
2383.49
2386.06
2388.46
2390.68
2392.72
2394.61
2396.32
2397.88
2399.29
2400.54
2401.64
2402.6
2403.41
2404.09
2404.64
2405.06
2405.35
2405.53
2405.59
2405.53
2405.37
2405.1
2404.74
2404.28
2403.73
2403.1
2402.38
2401.58
2400.71
2399.77
2398.77
2397.7
2396.58
2395.4
2394.18
2392.91
2391.6
2390.25
2388.87
2387.46
2386.03
2384.58
2383.11
2381.63
2380.13
2378.64
2377.14
2375.64
2374.14
2372.66
2371.19
2369.73
2368.29
2366.88
2365.48
2364.12
2362.79
2361.49
2360.22
2359
2357.82
2356.68
2355.58
2354.54
2353.55
2352.6
2351.71
2350.88
2350.11
2349.39
2348.73
2348.13
2347.59
2347.11
2346.7
2346.34
2346.05
2345.82
2345.65
2345.53
2345.44
156.217
156.272
156.391
156.573
156.814
157.111
157.465
157.874
158.34
158.862
159.439
160.071
160.758
161.499
162.295
163.145
164.049
165.007
166.019
167.084
168.204
169.378
170.605
171.887
173.224
174.615
176.061
177.562
179.119
180.732
182.402
184.128
185.912
187.753
189.653
191.611
193.628
195.705
197.842
200.039
202.297
204.617
206.999
209.442
211.949
214.518
217.151
219.848
222.609
225.435
228.325
231.281
234.303
237.39
240.544
243.764
247.052
250.406
253.829
257.32
260.879
264.507
268.205
271.973
275.812
279.721
283.702
287.756
291.882
296.082
300.356
304.706
309.131
313.633
318.212
322.869
327.605
332.421
337.317
342.295
347.356
352.499
357.727
363.039
368.437
373.922
379.494
385.153
390.902
396.74
402.668
408.687
414.798
421.001
427.296
433.685
440.168
446.745
453.417
460.185
467.05
474.01
481.069
488.225
495.48
502.835
510.289
517.845
525.502
533.261
541.124
549.092
557.164
565.343
573.629
582.023
590.527
599.141
607.868
616.707
625.66
634.729
643.915
653.219
662.642
672.186
681.852
691.642
701.555
711.595
721.761
732.056
742.48
753.035
763.721
774.54
785.493
796.58
807.802
819.161
830.656
842.289
854.059
865.968
878.015
890.201
902.526
914.989
927.591
940.331
953.209
966.224
979.376
992.663
1006.08
1019.64
1033.33
1047.14
1061.09
1075.16
1089.36
1103.68
1118.12
1132.67
1147.35
1162.13
1177.02
1192.02
1207.12
1222.32
1237.61
1252.99
1268.46
1284.02
1299.65
1315.35
1331.12
1346.95
1362.85
1378.79
1394.79
1410.82
1426.9
1443
1459.13
1475.28
1491.45
1507.62
1523.8
1539.97
1556.13
1572.27
1588.39
1604.49
1620.55