/*--------------------------------*- C++ -*----------------------------------*\
| =========                 |                                                 |
| \\      /  F ield         | OpenFOAM: The Open Source CFD Toolbox           |
|  \\    /   O peration     | Version:  v2006                                 |
|   \\  /    A nd           | Website:  www.openfoam.com                      |
|    \\/     M anipulation  |                                                 |
\*---------------------------------------------------------------------------*/
FoamFile
{
    version     2.0;
    format      ascii;
    class       volScalarField;
    location    "0";
    object      shifted_f;
}
// * * * * * * * * * * * * * * * * * * * * * * * * * * * * * * * * * * * * * //

dimensions      [0 0 0 0 0 0 0];


internalField   nonuniform List<scalar> 
2500
(
0.000262354
0.000262398
0.000262361
0.000262458
0.000262447
0.000262398
0.000262406
0.000262503
0.000262544
0.000262484
0.000262547
0.000262488
0.000262558
0.000262517
0.000262581
0.000262577
0.000262603
0.000262577
0.000262659
0.000262633
0.00026267
0.000262666
0.000262745
0.000262719
0.000262734
0.000262711
0.000262775
0.000262741
0.000262804
0.000262778
0.000262793
0.00026283
0.000262849
0.000262856
0.000262883
0.000262912
0.000262979
0.000262927
0.000262979
0.000262972
0.000262957
0.000262976
0.000263046
0.00026295
0.000263061
0.000263002
0.000263069
0.000263065
0.000263128
0.000263087
0.000263192
0.000263143
0.000263192
0.00026314
0.000263214
0.000263203
0.000263184
0.00026324
0.000263251
0.000263244
0.000263285
0.000263333
0.000263277
0.000263263
0.0002633
0.000263333
0.000263356
0.000263423
0.000263337
0.000263371
0.000263397
0.000263464
0.000263426
0.00026349
0.000263426
0.000263426
0.000263494
0.000263497
0.000263501
0.000263616
0.000263583
0.000263624
0.000263639
0.000263657
0.000263631
0.000263672
0.000263676
0.000263765
0.000263736
0.000263777
0.000263769
0.000263799
0.000263739
0.000263724
0.000263773
0.000263814
0.000263888
0.000274543
0.000274628
0.000274647
0.000274628
0.000274621
0.000274688
0.000274643
0.000274613
0.000274643
0.000274636
0.000274718
0.000274792
0.000274763
0.000274811
0.000274844
0.000274729
0.000274781
0.000274815
0.000274874
0.000274874
0.000274964
0.000274885
0.00027493
0.00027496
0.000274997
0.000275016
0.000275012
0.000275012
0.000275042
0.000275031
0.000275105
0.000275083
0.000275094
0.000275087
0.000275146
0.000275116
0.000275131
0.000275221
0.000275139
0.000275195
0.000275172
0.000275217
0.000275228
0.000275206
0.000275243
0.000275329
0.000275332
0.00027531
0.000275418
0.000275403
0.000275407
0.000275388
0.000275433
0.000275455
0.000275522
0.000275474
0.000275526
0.000275496
0.000275545
0.000275631
0.000275563
0.000275604
0.000275537
0.000275552
0.000275638
0.000275664
0.000275671
0.00027569
0.000275694
0.000275772
0.000275705
0.000275753
0.00027575
0.000275753
0.000275794
0.00027582
0.000275787
0.000275828
0.000275958
0.00027591
0.000275925
0.000275947
0.000275988
0.000276029
0.000276018
0.000276007
0.000276063
0.000276037
0.000276074
0.000276025
0.000276033
0.000276066
0.000276137
0.000276197
0.000276119
0.000276119
0.000276256
0.000276178
0.000276249
0.000276264
0.00027623
0.000287786
0.000287767
0.000287842
0.000287842
0.000287864
0.000287835
0.000287857
0.000287924
0.000287931
0.000287976
0.000287935
0.000287957
0.000287987
0.000288006
0.000288043
0.000288084
0.000288051
0.000288077
0.000288114
0.000288162
0.00028817
0.000288099
0.000288181
0.0002882
0.000288162
0.000288274
0.000288296
0.000288256
0.000288326
0.000288218
0.000288349
0.000288356
0.000288367
0.000288397
0.000288416
0.000288412
0.000288356
0.000288442
0.00028849
0.00028852
0.00028852
0.000288505
0.000288524
0.000288531
0.000288606
0.000288583
0.000288587
0.000288654
0.000288624
0.000288699
0.000288662
0.000288766
0.00028868
0.000288717
0.000288714
0.000288788
0.000288829
0.000288758
0.000288814
0.000288781
0.000288904
0.000288952
0.000288952
0.000288885
0.000288915
0.000288978
0.00028903
0.000288986
0.000289027
0.000289012
0.000289064
0.000289042
0.000289138
0.000289071
0.000289101
0.000289135
0.000289191
0.000289202
0.000289161
0.000289213
0.000289213
0.000289239
0.000289261
0.000289362
0.000289358
0.000289291
0.000289369
0.000289384
0.000289399
0.000289392
0.000289392
0.000289503
0.000289533
0.000289466
0.000289466
0.000289481
0.000289589
0.000289578
0.000289667
0.000289571
0.000289574
0.000301782
0.000301789
0.00030176
0.000301767
0.000301778
0.000301816
0.000301871
0.000301946
0.000301968
0.000301976
0.000301912
0.000301924
0.000302017
0.000301987
0.000302002
0.000302006
0.000302028
0.000302043
0.000302125
0.000302162
0.000302128
0.000302237
0.000302184
0.000302203
0.000302192
0.000302237
0.000302225
0.000302222
0.00030224
0.0003023
0.000302289
0.000302292
0.000302356
0.000302382
0.000302397
0.000302397
0.000302464
0.000302445
0.000302412
0.000302538
0.000302438
0.00030249
0.000302546
0.000302602
0.000302631
0.000302527
0.000302598
0.000302605
0.000302617
0.000302702
0.000302721
0.000302721
0.000302751
0.00030281
0.000302758
0.000302754
0.000302851
0.000302806
0.000302803
0.00030281
0.000302885
0.000302907
0.000302911
0.000302892
0.000302948
0.000302911
0.000303026
0.000303011
0.000302993
0.000303078
0.000303119
0.000303105
0.000303108
0.000303116
0.000303153
0.000303242
0.000303231
0.000303257
0.00030328
0.000303209
0.000303235
0.000303302
0.000303332
0.000303395
0.000303391
0.000303362
0.000303362
0.000303399
0.000303395
0.000303436
0.000303414
0.000303451
0.000303496
0.000303559
0.000303548
0.000303503
0.0003036
0.000303615
0.0003036
0.000303708
0.000303697
0.000280555
0.000280567
0.000280444
0.000280432
0.000280432
0.000280391
0.000280373
0.000280272
0.00028022
0.000280198
0.000280138
0.000280112
0.00028003
0.000280034
0.000279985
0.000279974
0.000279952
0.000279918
0.00027987
0.000279848
0.000279754
0.00027978
0.000279702
0.00027971
0.000279643
0.000279579
0.000279572
0.000279561
0.000279587
0.00027949
0.000279449
0.000279363
0.000279382
0.000279386
0.000279389
0.000279345
0.000279337
0.000279285
0.000279292
0.000279218
0.000279184
0.000279151
0.000279129
0.000279158
0.000279088
0.000279073
0.000279028
0.000278994
0.000278991
0.000278998
0.000278939
0.00027889
0.000278912
0.000278916
0.000278849
0.000278819
0.000278834
0.000278831
0.000278752
0.000278771
0.000278749
0.000278749
0.000278685
0.000278737
0.000278745
0.000278693
0.000278704
0.000278652
0.000278685
0.000278667
0.000278663
0.000278633
0.000278611
0.000278562
0.000278551
0.000278562
0.000278614
0.000278551
0.000278521
0.000278521
0.000278559
0.000278544
0.000278462
0.000278544
0.000278447
0.000278499
0.000278469
0.000278432
0.000278436
0.000278432
0.00027841
0.000278383
0.000278413
0.000278428
0.000278398
0.000278387
0.000278454
0.00027841
0.000278428
0.000278465
0.000278439
0.000271287
0.000271216
0.000271223
0.000271201
0.000271168
0.000271156
0.000271168
0.000271019
0.000271041
0.000271011
0.000271004
0.000270907
0.000270933
0.000270911
0.000270907
0.00027087
0.000270817
0.000270844
0.000270743
0.00027081
0.000270743
0.000270609
0.000270579
0.00027059
0.000270598
0.000270557
0.000270568
0.000270557
0.000270497
0.000270523
0.000270505
0.000270411
0.000270437
0.000270385
0.000270385
0.000270337
0.000270341
0.0002703
0.000270307
0.000270214
0.00027018
0.000270106
0.000270136
0.000270117
0.000270132
0.000270065
0.000270035
0.000270084
0.00027005
0.000270016
0.000270054
0.000269935
0.000269916
0.000269894
0.000269953
0.000269867
0.000269867
0.000269827
0.0002698
0.000269808
0.000269767
0.000269782
0.000269741
0.000269681
0.000269663
0.000269663
0.000269685
0.000269663
0.000269651
0.000269596
0.000269648
0.000269547
0.000269525
0.000269555
0.000269536
0.000269484
0.000269484
0.000269447
0.000269428
0.00026945
0.000269454
0.000269406
0.000269391
0.000269324
0.000269376
0.000269298
0.000269331
0.00026923
0.000269245
0.000269279
0.000269193
0.000269212
0.000269171
0.000269152
0.000269219
0.000269201
0.000269089
0.000269163
0.000269156
0.000269119
0.000269104
0.000256013
0.00025595
0.000255805
0.000255812
0.000255737
0.000255633
0.000255611
0.000255547
0.000255506
0.00025541
0.000255357
0.000255294
0.000255272
0.000255104
0.000255123
0.000255037
0.000254966
0.000254937
0.000254843
0.000254799
0.000254806
0.000254679
0.000254679
0.000254612
0.000254512
0.000254426
0.000254419
0.000254396
0.000254314
0.00025424
0.000254177
0.000254165
0.000254087
0.000253972
0.000253968
0.000253934
0.000253849
0.000253815
0.000253726
0.000253718
0.00025367
0.000253569
0.000253491
0.000253461
0.000253379
0.00025335
0.000253294
0.000253197
0.000253152
0.000253085
0.000253007
0.000253048
0.000252958
0.00025294
0.000252832
0.000252832
0.000252768
0.000252623
0.000252642
0.000252541
0.000252545
0.000252467
0.000252377
0.000252325
0.000252284
0.000252284
0.000252157
0.000252154
0.000252113
0.000251982
0.00025202
0.000251908
0.000251915
0.0002518
0.000251744
0.000251699
0.000251625
0.000251647
0.000251565
0.000251472
0.000251491
0.000251442
0.000251394
0.000251301
0.000251271
0.000251155
0.000251148
0.000251103
0.000251058
0.000250999
0.000250962
0.000250909
0.000250842
0.000250746
0.000250757
0.000250675
0.000250626
0.0002506
0.000250537
0.000250552
0.000250462
0.00022934
0.000229266
0.00022921
0.000229113
0.000228975
0.000228949
0.000228945
0.000228822
0.000228744
0.000228677
0.000228558
0.000228483
0.000228446
0.000228357
0.00022829
0.000228249
0.000228118
0.000228029
0.000227984
0.000227913
0.000227861
0.000227727
0.000227671
0.000227597
0.000227511
0.000227466
0.000227362
0.000227313
0.000227224
0.000227161
0.00022709
0.000227053
0.000226978
0.000226952
0.000226837
0.000226766
0.000226688
0.000226587
0.00022649
0.000226442
0.000226412
0.000226323
0.000226211
0.000226129
0.000226051
0.000226025
0.000225972
0.000225902
0.000225846
0.000225756
0.000225727
0.00022563
0.000225555
0.000225492
0.000225492
0.000225328
0.000225253
0.000225257
0.000225171
0.000225127
0.000225022
0.00022494
0.000224911
0.000224873
0.000224728
0.00022471
0.000224702
0.000224557
0.000224549
0.000224497
0.0002244
0.000224326
0.000224296
0.000224214
0.00022408
0.000224072
0.000224035
0.000223938
0.000223957
0.000223771
0.000223797
0.000223741
0.000223663
0.000223681
0.000223543
0.000223543
0.000223406
0.000223372
0.000223331
0.000223275
0.000223268
0.000223152
0.000223096
0.000223119
0.000222974
0.000222988
0.00022297
0.000222839
0.00022281
0.000222731
0.000222694
0.000203457
0.000203367
0.000203349
0.000203341
0.000203215
0.000203162
0.000203114
0.000203088
0.00020301
0.000202943
0.000202958
0.000202838
0.000202741
0.000202801
0.000202704
0.00020266
0.000202645
0.000202503
0.000202473
0.000202376
0.000202361
0.000202321
0.000202242
0.000202153
0.000202168
0.000202101
0.000202037
0.000201993
0.000201948
0.0002019
0.000201844
0.000201773
0.000201758
0.000201691
0.000201631
0.000201561
0.000201602
0.000201486
0.000201456
0.000201408
0.000201341
0.000201348
0.000201281
0.000201236
0.000201199
0.000201132
0.000201166
0.000201054
0.000200965
0.000200961
0.000200901
0.000200849
0.000200778
0.000200737
0.000200767
0.000200693
0.000200666
0.00020064
0.000200544
0.00020051
0.000200484
0.000200484
0.000200409
0.000200316
0.000200346
0.000200283
0.000200268
0.000200253
0.000200219
0.000200104
0.000200089
0.000200074
0.000200048
0.0002
0.000199914
0.000199936
0.000199858
0.00019988
0.000199873
0.000199746
0.000199761
0.000199754
0.000199683
0.000199638
0.000199549
0.000199605
0.000199534
0.000199512
0.000199482
0.000199445
0.000199426
0.000199381
0.000199374
0.000199351
0.000199314
0.000199299
0.000199284
0.000199221
0.000199202
0.000199161
0.000199176
0.000189722
0.000189699
0.000189703
0.000189614
0.000189658
0.000189602
0.000189576
0.000189494
0.000189487
0.000189506
0.000189435
0.000189442
0.00018942
0.000189342
0.000189353
0.000189342
0.00018933
0.000189349
0.000189323
0.000189289
0.000189211
0.000189237
0.000189271
0.000189286
0.000189181
0.000189155
0.000189163
0.000189122
0.000189189
0.000189099
0.000189066
0.000189055
0.000189018
0.000189062
0.000189036
0.00018907
0.000188973
0.000188995
0.000188962
0.000188921
0.000188906
0.000188902
0.00018895
0.000188876
0.000188895
0.000188831
0.000188861
0.000188839
0.000188809
0.000188857
0.00018882
0.000188824
0.000188801
0.000188813
0.00018882
0.000188764
0.000188794
0.00018876
0.000188738
0.000188719
0.000188693
0.000188712
0.000188746
0.000188705
0.000188682
0.000188693
0.000188753
0.000188716
0.00018866
0.000188675
0.000188693
0.000188701
0.000188705
0.000188697
0.000188705
0.000188693
0.000188686
0.000188656
0.000188697
0.000188615
0.000188652
0.000188667
0.000188656
0.000188638
0.000188667
0.00018863
0.000188652
0.00018869
0.00018863
0.000188693
0.000188701
0.000188686
0.000188682
0.000188708
0.000188682
0.000188682
0.000188638
0.000188686
0.000188727
0.000188682
0.000188749
0.000187989
0.000187967
0.000188015
0.000187993
0.000188094
0.000187948
0.000188008
0.000188019
0.000187952
0.000187986
0.00018796
0.000188004
0.000187971
0.00018796
0.000187993
0.000188004
0.000187915
0.000187956
0.000187974
0.000187971
0.000187945
0.000187952
0.000187974
0.000188004
0.000187978
0.000188027
0.000188023
0.000188056
0.000188004
0.000188012
0.000188012
0.000188027
0.000187978
0.000188053
0.00018803
0.000188023
0.000188045
0.000188097
0.000188071
0.000188071
0.000188109
0.000188086
0.000188109
0.000188116
0.000188112
0.00018809
0.000188146
0.000188142
0.000188094
0.000188131
0.00018812
0.000188161
0.000188187
0.000188161
0.000188246
0.000188231
0.000188217
0.000188265
0.00018825
0.000188243
0.000188276
0.000188272
0.000188272
0.000188272
0.000188328
0.000188321
0.000188347
0.000188369
0.000188369
0.00018831
0.000188373
0.000188407
0.000188414
0.00018838
0.000188399
0.000188425
0.000188477
0.000188503
0.000188526
0.000188552
0.0001886
0.000188533
0.000188567
0.000188608
0.000188626
0.000188615
0.000188623
0.000188608
0.000188682
0.000188626
0.000188679
0.000188716
0.000188727
0.000188772
0.000188779
0.000188746
0.000188831
0.000188891
0.000188909
0.000188854
0.000188868
0.000192326
0.000192326
0.000192311
0.000192355
0.00019234
0.000192322
0.000192281
0.00019234
0.000192303
0.000192296
0.000192355
0.000192367
0.000192393
0.000192322
0.000192359
0.000192396
0.000192337
0.000192352
0.000192467
0.0001924
0.000192419
0.000192441
0.00019243
0.000192426
0.000192467
0.000192467
0.000192475
0.000192482
0.000192575
0.000192504
0.000192527
0.000192527
0.000192571
0.000192519
0.000192575
0.000192601
0.000192557
0.000192512
0.000192598
0.000192676
0.000192661
0.000192679
0.000192679
0.000192646
0.000192683
0.000192761
0.000192743
0.000192724
0.000192765
0.000192754
0.000192799
0.000192825
0.000192858
0.000192773
0.000192869
0.000192869
0.000192881
0.000192925
0.000192903
0.000192869
0.000192922
0.000192996
0.000193
0.000192981
0.000192989
0.000192989
0.000193
0.000193022
0.000193067
0.000193097
0.000193078
0.000193138
0.000193197
0.000193227
0.00019316
0.000193197
0.000193171
0.000193257
0.000193305
0.000193287
0.000193324
0.000193339
0.000193343
0.000193406
0.000193391
0.000193443
0.000193495
0.000193454
0.000193443
0.00019351
0.000193555
0.000193533
0.000193611
0.000193577
0.000193588
0.000193685
0.000193696
0.000193708
0.000193734
0.000193793
0.000193842
0.00019886
0.000198863
0.000198875
0.000198878
0.000198901
0.000198893
0.000198912
0.000198908
0.000198931
0.000198927
0.000198971
0.000198983
0.000198938
0.000199001
0.000198957
0.000199039
0.000198964
0.000199024
0.000198975
0.000199027
0.000199098
0.000199068
0.000199098
0.000199068
0.000199083
0.000199098
0.000199154
0.000199128
0.000199184
0.000199195
0.000199154
0.000199188
0.000199225
0.000199277
0.000199229
0.000199255
0.000199251
0.000199262
0.000199329
0.000199322
0.000199333
0.000199366
0.000199359
0.000199426
0.000199363
0.000199441
0.00019943
0.000199463
0.000199445
0.000199493
0.000199523
0.000199493
0.000199512
0.00019953
0.000199504
0.000199571
0.000199575
0.000199623
0.000199642
0.000199649
0.000199709
0.000199713
0.000199668
0.000199731
0.000199724
0.000199743
0.000199798
0.000199802
0.000199843
0.000199854
0.000199899
0.000199884
0.000199955
0.000199921
0.0002
0.000199988
0.000200007
0.000200041
0.000200052
0.000200048
0.000200074
0.000200134
0.000200193
0.000200201
0.00020019
0.000200253
0.000200238
0.000200346
0.000200327
0.000200342
0.000200324
0.000200395
0.000200417
0.000200428
0.000200462
0.000200488
0.000200547
0.000200547
0.000200562
0.000200581
0.000200562
0.000206634
0.000206657
0.000206649
0.000206672
0.000206672
0.000206683
0.000206713
0.000206679
0.000206728
0.000206724
0.000206694
0.000206709
0.000206698
0.000206716
0.000206728
0.000206724
0.000206839
0.000206832
0.000206877
0.000206877
0.000206839
0.000206914
0.00020688
0.000206906
0.000206944
0.000206891
0.000206962
0.00020697
0.000206966
0.000206988
0.000207003
0.000206973
0.000206996
0.000206985
0.000206999
0.000207115
0.000207059
0.000207074
0.00020707
0.00020713
0.000207212
0.000207178
0.000207193
0.000207171
0.000207212
0.000207204
0.000207212
0.000207275
0.000207309
0.000207316
0.000207283
0.000207324
0.000207398
0.000207413
0.000207387
0.000207409
0.000207443
0.000207424
0.000207413
0.00020745
0.000207473
0.000207502
0.000207517
0.000207558
0.000207555
0.000207663
0.000207633
0.000207689
0.000207655
0.000207681
0.000207681
0.000207651
0.000207767
0.000207774
0.000207774
0.000207804
0.00020786
0.000207815
0.000207845
0.000207897
0.000207886
0.000207942
0.000207983
0.000207979
0.000208024
0.000208013
0.00020808
0.000208095
0.000208139
0.000208125
0.000208121
0.000208221
0.00020818
0.000208192
0.000208259
0.000208281
0.000208292
0.000208344
0.000208363
0.000208359
0.000208426
0.000214443
0.000214405
0.000214439
0.000214454
0.000214498
0.000214472
0.000214443
0.000214513
0.000214532
0.000214539
0.000214536
0.000214566
0.000214554
0.000214577
0.000214607
0.000214487
0.000214506
0.000214621
0.000214532
0.000214487
0.000214607
0.000214629
0.000214629
0.000214648
0.000214648
0.00021461
0.000214625
0.000214703
0.000214692
0.000214711
0.000214726
0.000214737
0.000214782
0.000214737
0.000214767
0.000214789
0.000214823
0.000214793
0.000214834
0.000214867
0.00021489
0.000214905
0.000214908
0.000214905
0.000214901
0.000214916
0.000214934
0.000214964
0.00021496
0.000214957
0.000215001
0.000215031
0.000215027
0.000215072
0.000215106
0.000215098
0.000215117
0.000215128
0.000215136
0.000215136
0.000215203
0.000215214
0.000215206
0.000215169
0.000215195
0.000215225
0.000215236
0.000215258
0.000215258
0.000215288
0.000215329
0.000215326
0.000215285
0.000215393
0.00021543
0.000215486
0.000215434
0.000215471
0.000215497
0.000215482
0.000215519
0.000215515
0.000215538
0.000215571
0.000215586
0.000215579
0.000215601
0.000215653
0.000215627
0.000215694
0.000215724
0.000215758
0.000215802
0.000215735
0.000215758
0.000215739
0.000215769
0.000215773
0.00021584
0.000215862
0.000215899
0.000220627
0.000220601
0.000220682
0.000220682
0.000220645
0.000220697
0.000220712
0.000220709
0.000220694
0.000220701
0.00022069
0.000220742
0.000220712
0.000220682
0.000220757
0.000220727
0.000220705
0.000220686
0.000220716
0.000220768
0.000220697
0.000220757
0.000220742
0.000220768
0.000220802
0.000220802
0.000220817
0.000220794
0.000220731
0.000220824
0.000220824
0.000220809
0.000220798
0.000220828
0.00022085
0.00022088
0.000220865
0.000220936
0.000220906
0.000220891
0.000220902
0.000220932
0.000220925
0.000220966
0.000220969
0.000220962
0.000220962
0.00022098
0.00022098
0.000221007
0.000220973
0.000220992
0.000221033
0.000221029
0.000221007
0.000221029
0.000220995
0.000221003
0.000221077
0.000221085
0.000221062
0.000221133
0.000221118
0.000221126
0.000221197
0.000221182
0.000221189
0.000221137
0.0002212
0.000221174
0.000221219
0.000221223
0.000221215
0.000221238
0.000221238
0.000221226
0.000221234
0.000221252
0.00022126
0.000221271
0.000221372
0.000221338
0.000221357
0.000221364
0.000221338
0.000221368
0.000221387
0.000221413
0.000221428
0.000221372
0.000221394
0.000221483
0.000221509
0.000221543
0.000221543
0.000221547
0.000221517
0.000221547
0.000221554
0.000221565
0.000221573
0.000224542
0.000224564
0.000224542
0.000224523
0.000224523
0.000224553
0.000224505
0.000224505
0.000224512
0.000224497
0.000224479
0.000224512
0.00022456
0.000224531
0.000224568
0.000224497
0.000224542
0.000224512
0.000224523
0.000224534
0.000224505
0.000224534
0.000224527
0.000224609
0.000224587
0.000224493
0.000224508
0.00022452
0.000224479
0.000224564
0.00022456
0.000224553
0.000224527
0.000224523
0.000224553
0.000224542
0.000224557
0.000224549
0.000224583
0.000224598
0.000224587
0.00022459
0.000224534
0.000224601
0.000224598
0.000224594
0.000224594
0.000224579
0.000224613
0.000224631
0.000224654
0.00022462
0.000224613
0.000224635
0.000224639
0.000224669
0.000224631
0.000224672
0.000224657
0.000224687
0.00022468
0.000224728
0.000224687
0.000224669
0.000224698
0.00022471
0.000224691
0.000224706
0.00022471
0.00022471
0.000224706
0.000224672
0.000224724
0.000224758
0.00022475
0.00022478
0.00022475
0.000224762
0.000224791
0.000224769
0.00022481
0.00022471
0.00022481
0.000224806
0.000224806
0.000224832
0.000224818
0.000224832
0.000224866
0.00022487
0.000224892
0.000224855
0.000224873
0.00022487
0.000224881
0.000224873
0.00022487
0.000224885
0.000224933
0.000224937
0.000224959
0.000226241
0.000226248
0.000226218
0.000226203
0.000226196
0.000226207
0.000226215
0.000226211
0.000226177
0.000226159
0.000226215
0.000226162
0.000226166
0.000226181
0.000226166
0.000226203
0.000226159
0.000226151
0.000226159
0.000226174
0.000226155
0.000226155
0.000226121
0.000226181
0.000226151
0.000226121
0.000226129
0.000226133
0.000226129
0.000226118
0.00022611
0.000226177
0.000226162
0.00022617
0.000226166
0.00022617
0.000226147
0.000226103
0.000226155
0.000226185
0.000226159
0.000226129
0.000226155
0.000226077
0.000226118
0.000226114
0.00022614
0.00022614
0.00022614
0.00022611
0.00022614
0.00022614
0.000226166
0.000226099
0.000226174
0.000226162
0.000226151
0.000226166
0.000226188
0.000226159
0.000226181
0.000226133
0.000226177
0.000226159
0.00022614
0.000226166
0.000226162
0.000226151
0.000226144
0.000226099
0.00022617
0.000226263
0.000226166
0.000226166
0.000226151
0.00022617
0.000226155
0.000226151
0.000226174
0.000226181
0.000226192
0.000226218
0.000226233
0.000226241
0.000226218
0.000226211
0.00022627
0.000226203
0.000226174
0.000226174
0.000226215
0.000226222
0.000226226
0.000226207
0.000226218
0.000226226
0.000226241
0.000226241
0.00022627
0.000226282
0.000226248
0.000226382
0.000226378
0.000226408
0.0002263
0.000226319
0.000226352
0.000226293
0.000226386
0.000226319
0.000226337
0.000226296
0.000226293
0.000226293
0.000226308
0.000226229
0.00022627
0.000226285
0.000226259
0.000226259
0.000226229
0.000226248
0.000226256
0.000226256
0.000226259
0.000226252
0.00022627
0.000226237
0.000226218
0.000226181
0.000226196
0.000226211
0.000226229
0.000226185
0.0002262
0.000226196
0.000226196
0.000226207
0.000226196
0.000226229
0.000226218
0.0002262
0.0002262
0.000226188
0.000226166
0.000226188
0.000226222
0.000226241
0.000226133
0.000226147
0.000226192
0.000226162
0.000226159
0.000226162
0.000226196
0.000226181
0.000226218
0.000226196
0.000226196
0.000226181
0.000226155
0.000226133
0.00022611
0.000226136
0.000226118
0.000226151
0.000226162
0.000226144
0.000226144
0.000226121
0.000226133
0.000226114
0.000226084
0.000226144
0.000226155
0.000226114
0.000226114
0.000226144
0.000226125
0.000226114
0.000226147
0.00022611
0.000226106
0.000226133
0.000226118
0.000226114
0.000226136
0.000226106
0.000226144
0.000226144
0.000226136
0.000226136
0.000226151
0.000226095
0.00022611
0.000226151
0.000226166
0.000226159
0.000226129
0.000226114
0.000226084
0.000226095
0.00022551
0.000225544
0.000225496
0.000225455
0.000225469
0.000225399
0.000225406
0.000225466
0.000225406
0.000225447
0.00022541
0.000225414
0.000225347
0.00022538
0.00022541
0.000225365
0.00022541
0.000225384
0.000225421
0.000225391
0.000225391
0.000225443
0.000225451
0.000225335
0.000225354
0.000225335
0.000225347
0.000225328
0.000225317
0.000225343
0.000225358
0.000225317
0.000225335
0.000225332
0.000225324
0.000225358
0.000225324
0.00022532
0.000225283
0.000225317
0.00022532
0.000225231
0.000225265
0.000225268
0.000225276
0.000225265
0.00022525
0.000225265
0.000225328
0.000225317
0.000225265
0.000225235
0.000225253
0.000225272
0.000225227
0.000225235
0.000225224
0.00022522
0.000225216
0.000225212
0.000225239
0.000225205
0.000225227
0.000225227
0.000225212
0.000225224
0.000225205
0.000225224
0.000225224
0.000225209
0.000225231
0.000225212
0.000225168
0.000225153
0.000225153
0.000225153
0.000225145
0.000225153
0.000225138
0.00022513
0.000225116
0.000225123
0.00022513
0.000225134
0.000225164
0.000225123
0.000225183
0.000225149
0.000225157
0.000225157
0.000225212
0.000225186
0.000225198
0.000225119
0.000225186
0.000225112
0.000225108
0.000225119
0.000225145
0.000225134
0.00022516
0.000224002
0.00022405
0.00022405
0.000223976
0.000224017
0.000223987
0.000223979
0.000223961
0.000223931
0.000223983
0.000223942
0.000223901
0.000223931
0.000223946
0.000223931
0.000223923
0.00022392
0.000223931
0.000223923
0.000223931
0.00022395
0.000223879
0.000223946
0.000223882
0.000223868
0.000223871
0.000223853
0.000223845
0.000223894
0.000223868
0.000223879
0.000223838
0.000223864
0.000223797
0.000223842
0.000223815
0.000223842
0.000223834
0.000223823
0.000223815
0.000223812
0.000223778
0.000223849
0.000223815
0.00022386
0.000223778
0.00022376
0.000223774
0.000223801
0.00022373
0.00022376
0.000223763
0.000223741
0.000223774
0.000223763
0.000223693
0.000223685
0.000223704
0.000223693
0.000223704
0.000223719
0.000223722
0.000223715
0.000223763
0.000223707
0.000223693
0.000223711
0.000223722
0.000223693
0.00022364
0.000223678
0.000223681
0.000223678
0.0002237
0.000223696
0.000223674
0.000223652
0.000223666
0.000223622
0.000223622
0.000223652
0.000223659
0.000223655
0.00022364
0.000223655
0.000223659
0.000223625
0.000223618
0.000223659
0.000223611
0.000223629
0.000223648
0.000223659
0.000223599
0.000223599
0.000223614
0.000223614
0.000223625
0.000223633
0.000223607
0.00022357
0.000222161
0.000222102
0.000222098
0.000222158
0.000222113
0.00022212
0.000222106
0.00022212
0.000222132
0.000222143
0.000222128
0.000222079
0.000222061
0.000222076
0.000222024
0.000222046
0.000222065
0.000222076
0.000222053
0.000222079
0.000222098
0.000222001
0.000222031
0.000222024
0.000222012
0.000222038
0.00022199
0.000222012
0.00022202
0.000222005
0.000222009
0.000222053
0.000222009
0.000222016
0.000221942
0.000221942
0.000221949
0.000221957
0.000221927
0.000221971
0.000221889
0.000221916
0.000221912
0.000221945
0.00022193
0.000221968
0.000221916
0.000221923
0.000221912
0.00022193
0.000221923
0.000221934
0.000221949
0.00022193
0.000221916
0.000221897
0.00022193
0.000221901
0.000221841
0.000221875
0.000221882
0.000221882
0.000221897
0.000221916
0.000221901
0.000221886
0.000221837
0.000221837
0.000221856
0.000221804
0.0002218
0.000221808
0.000221804
0.000221856
0.0002218
0.000221815
0.000221819
0.000221804
0.000221804
0.000221819
0.000221819
0.000221819
0.000221763
0.000221822
0.000221819
0.000221819
0.000221778
0.00022177
0.000221767
0.000221804
0.000221744
0.000221681
0.000221703
0.000221722
0.000221703
0.000221748
0.000221714
0.000221673
0.000221692
0.000221677
0.000221692
0.000220034
0.000220027
0.000220016
0.000220004
0.000220019
0.000219997
0.000220004
0.000220016
0.000220004
0.000219997
0.000219986
0.00021999
0.000219993
0.000219993
0.000219952
0.00021999
0.000219982
0.000219915
0.000219919
0.00021996
0.000219934
0.000219934
0.00021996
0.000219915
0.000219889
0.0002199
0.000219859
0.00021987
0.000219904
0.000219904
0.0002199
0.000219889
0.000219863
0.000219867
0.000219885
0.000219841
0.000219837
0.000219844
0.000219841
0.000219841
0.00021987
0.000219863
0.000219844
0.000219837
0.000219863
0.000219755
0.000219774
0.000219803
0.000219788
0.000219841
0.000219814
0.000219811
0.000219818
0.000219736
0.000219803
0.000219774
0.000219781
0.000219714
0.000219684
0.000219695
0.000219695
0.000219684
0.000219725
0.000219703
0.00021971
0.000219736
0.000219706
0.00021971
0.000219695
0.000219624
0.000219684
0.000219662
0.000219725
0.000219651
0.000219654
0.000219673
0.000219654
0.000219662
0.000219654
0.000219662
0.000219714
0.000219714
0.000219662
0.000219602
0.000219624
0.00021961
0.000219632
0.000219587
0.00021961
0.00021961
0.000219617
0.00021961
0.000219595
0.000219554
0.000219565
0.000219624
0.00021961
0.000219595
0.000219595
0.000219587
0.000219595
0.000217639
0.000217669
0.00021765
0.000217658
0.000217646
0.000217624
0.000217635
0.000217643
0.000217628
0.000217665
0.000217628
0.000217628
0.000217617
0.000217665
0.000217669
0.000217613
0.000217576
0.000217568
0.000217564
0.000217587
0.000217572
0.000217598
0.000217602
0.000217531
0.000217527
0.00021749
0.000217546
0.000217568
0.000217516
0.000217501
0.000217471
0.000217494
0.000217497
0.000217509
0.000217516
0.000217505
0.000217509
0.000217456
0.000217501
0.00021749
0.000217441
0.000217471
0.000217464
0.000217441
0.000217471
0.000217408
0.000217479
0.000217438
0.00021746
0.000217438
0.0002174
0.000217441
0.000217479
0.000217453
0.000217423
0.000217423
0.000217352
0.000217378
0.000217378
0.000217382
0.000217363
0.00021736
0.000217348
0.000217337
0.000217374
0.000217374
0.000217434
0.000217374
0.000217352
0.000217367
0.000217352
0.000217322
0.000217322
0.000217367
0.00021736
0.000217289
0.000217352
0.000217345
0.000217319
0.000217296
0.000217304
0.000217296
0.000217341
0.000217296
0.0002173
0.000217255
0.000217263
0.000217225
0.000217222
0.000217251
0.000217281
0.000217251
0.000217244
0.000217203
0.000217177
0.000217207
0.000217162
0.00021717
0.000217251
0.000217203
0.000217188
0.000215147
0.000215095
0.000215072
0.000215106
0.000215139
0.000215098
0.000215005
0.000215046
0.000215061
0.000215013
0.000215027
0.00021502
0.00021508
0.000215095
0.000214972
0.000215013
0.000215013
0.000215024
0.000215027
0.000215057
0.000215027
0.000214972
0.00021496
0.000215013
0.00021499
0.000214994
0.000214994
0.000214972
0.00021502
0.000214957