/*--------------------------------*- C++ -*----------------------------------*\
| =========                 |                                                 |
| \\      /  F ield         | OpenFOAM: The Open Source CFD Toolbox           |
|  \\    /   O peration     | Version:  v2006                                 |
|   \\  /    A nd           | Website:  www.openfoam.com                      |
|    \\/     M anipulation  |                                                 |
\*---------------------------------------------------------------------------*/
FoamFile
{
    version     2.0;
    format      ascii;
    class       surfaceScalarField;
    location    "2";
    object      alphaPhi0.water;
}
// * * * * * * * * * * * * * * * * * * * * * * * * * * * * * * * * * * * * * //

dimensions      [0 3 -1 0 0 0 0];
oriented        oriented;


internalField   nonuniform List<scalar> 
99450
(
4.62431e-06
-4.62431e-06
1.82435e-05
-1.36192e-05
2.47108e-05
-6.46729e-06
3.62432e-05
-1.15324e-05
4.25774e-05
-6.3342e-06
5.38035e-05
-1.12261e-05
5.95688e-05
-5.76535e-06
7.07768e-05
-1.12079e-05
7.55882e-05
-4.81146e-06
8.67897e-05
-1.12014e-05
9.08405e-05
-4.0508e-06
0.000101496
-1.06556e-05
0.000105359
-3.86311e-06
0.000114752
-9.39328e-06
0.000118911
-4.15846e-06
0.000126435
-7.52395e-06
0.000131149
-4.71394e-06
0.000136855
-5.7065e-06
0.000141607
-4.7521e-06
0.000146314
-4.70671e-06
0.000150581
-4.26686e-06
0.000154592
-4.01087e-06
0.000158296
-3.70402e-06
0.000161766
-3.46973e-06
0.00016501
-3.24485e-06
0.000168045
-3.03446e-06
0.00017093
-2.88473e-06
0.00017368
-2.75081e-06
0.000176353
-2.67278e-06
0.000178975
-2.62186e-06
0.00018158
-2.6048e-06
0.000184238
-2.65847e-06
0.000186966
-2.72723e-06
0.000189823
-2.85736e-06
0.000192831
-3.00836e-06
0.000196027
-3.19569e-06
0.000199434
-3.40676e-06
0.000203074
-3.64e-06
0.000206947
-3.8736e-06
0.000211053
-4.10565e-06
0.000215382
-4.32926e-06
0.000219925
-4.54278e-06
0.000224664
-4.73911e-06
0.000229574
-4.90951e-06
0.000234626
-5.0519e-06
0.00023979
-5.16448e-06
0.000245035
-5.24443e-06
0.000250342
-5.30731e-06
0.000255667
-5.32544e-06
0.000260983
-5.31535e-06
0.000266258
-5.27491e-06
0.000271461
-5.2035e-06
0.000276563
-5.10193e-06
0.000281536
-4.97312e-06
0.000286349
-4.81299e-06
0.000290973
-4.62399e-06
0.000295379
-4.40623e-06
0.000299542
-4.16245e-06
0.000303433
-3.89077e-06
0.000307024
-3.59176e-06
0.000310292
-3.26761e-06
0.000313209
-2.91753e-06
0.00031575
-2.54032e-06
0.00031791
-2.16051e-06
0.00031965
-1.73928e-06
0.000320965
-1.31514e-06
0.000321815
-8.50595e-07
0.000322175
-3.59783e-07
0.000322062
1.13309e-07
0.000321463
5.98576e-07
0.000320376
1.08691e-06
0.000318771
1.60478e-06
0.00031663
2.14155e-06
0.000313923
2.70737e-06
0.000310608
3.31445e-06
0.000306659
3.94955e-06
0.000302012
4.64654e-06
0.000296686
5.32569e-06
0.000290647
6.03903e-06
0.000283865
6.78237e-06
0.000276358
7.5073e-06
0.000268131
8.22684e-06
0.000259182
8.94897e-06
0.000249514
9.66745e-06
0.000239162
1.03526e-05
0.000228133
1.10291e-05
0.000216447
1.16855e-05
0.00020422
1.22268e-05
0.00019139
1.28301e-05
0.000178033
1.33573e-05
0.00016422
1.38125e-05
0.000149997
1.42238e-05
0.000135447
1.45494e-05
0.000120601
1.48459e-05
0.000105589
1.50125e-05
9.05268e-05
1.50622e-05
7.55107e-05
1.50161e-05
6.06243e-05
1.48864e-05
4.59925e-05
1.46318e-05
3.17332e-05
1.42594e-05
1.78936e-05
1.38395e-05
4.53805e-06
1.33556e-05
-8.30092e-06
1.2839e-05
-2.06145e-05
1.23136e-05
-3.24051e-05
1.17906e-05
-4.36827e-05
1.12776e-05
-5.44849e-05
1.08022e-05
-6.47956e-05
1.03108e-05
-7.46023e-05
9.80662e-06
-8.38918e-05
9.2895e-06
-9.26525e-05
8.76076e-06
-0.000100965
8.31219e-06
-0.000108725
7.76069e-06
-0.00011593
7.20419e-06
-0.000122552
6.62248e-06
-0.000128657
6.10468e-06
-0.00013415
5.49319e-06
-0.000139045
4.89471e-06
-0.00014333
4.28568e-06
-0.000146998
3.66739e-06
-0.000150039
3.04171e-06
-0.000152441
2.40131e-06
-0.000154222
1.78105e-06
-0.000155364
1.14211e-06
-0.000155882
5.17619e-07
-0.000155738
-1.43706e-07
-0.00015497
-7.6797e-07
-0.00015359
-1.38005e-06
-0.00015162
-1.96983e-06
-0.00014906
-2.55962e-06
-0.000145907
-3.15357e-06
-0.000142151
-3.75566e-06
-0.000137807
-4.34462e-06
-0.000132923
-4.88317e-06
-0.00012751
-5.41305e-06
-0.000121559
-5.95095e-06
-0.000115151
-6.40853e-06
-0.000108334
-6.81673e-06
-0.000101074
-7.25971e-06
-9.35322e-05
-7.54213e-06
-8.56364e-05
-7.89585e-06
-7.62858e-05
-9.35054e-06
-6.97783e-05
-6.50757e-06
-5.64674e-05
-1.33109e-05
-5.09749e-05
-5.49245e-06
-3.65661e-05
-1.44088e-05
-2.89293e-05
-7.63683e-06
-1.29734e-05
-1.59558e-05
-2.01214e-06
-1.09613e-05
-2.01214e-06
-2.67819e-06
-1.94612e-06
-4.62571e-06
-1.16717e-05
-4.74808e-06
-6.34491e-06
-9.13098e-06
-7.14948e-06
-9.19093e-06
-6.27425e-06
-1.30708e-05
-7.34624e-06
-1.25799e-05
-6.25628e-06
-1.62922e-05
-7.49561e-06
-1.48498e-05
-6.25391e-06
-1.84954e-05
-7.55585e-06
-1.61098e-05
-6.43642e-06
-1.93293e-05
-7.43603e-06
-1.63499e-05
-6.84253e-06
-1.85681e-05
-7.17507e-06
-1.53308e-05
-7.39578e-06
-1.59136e-05
-6.94114e-06
-1.28107e-05
-7.81686e-06
-1.14625e-05
-7.05471e-06
-8.42424e-06
-7.79033e-06
-5.64681e-06
-7.48414e-06
-2.18129e-06
-7.73238e-06
1.50908e-06
-7.70124e-06
5.6057e-06
-7.80064e-06
1.00022e-05
-7.86626e-06
1.46939e-05
-7.93651e-06
1.96568e-05
-7.99732e-06
2.48409e-05
-8.0689e-06
3.0221e-05
-8.13087e-06
3.5754e-05
-8.20583e-06
4.14034e-05
-8.27122e-06
4.71382e-05
-8.3396e-06
5.28982e-05
-8.41843e-06
5.86566e-05
-8.48572e-06
6.43632e-05
-8.56396e-06
6.99864e-05
-8.63156e-06
7.54776e-05
-8.68689e-06
8.08095e-05
-8.73863e-06
8.59457e-05
-8.77619e-06
9.08881e-05
-8.81603e-06
9.562e-05
-8.8375e-06
0.000100132
-8.84149e-06
0.000104412
-8.82272e-06
0.000108459
-8.78587e-06
0.000112272
-8.72231e-06
0.000115859
-8.63925e-06
0.000119222
-8.52778e-06
0.000122373
-8.39462e-06
0.000125298
-8.23235e-06
0.000128017
-8.04476e-06
0.000130535
-7.83387e-06
0.000132857
-7.59622e-06
0.000134988
-7.33429e-06
0.000136934
-7.04797e-06
0.000138696
-6.73518e-06
0.000140284
-6.40096e-06
0.000141703
-6.04351e-06
0.00014296
-5.6633e-06
0.000144059
-5.26099e-06
0.000145006
-4.83786e-06
0.000145809
-4.39469e-06
0.000146474
-3.93249e-06
0.000147009
-3.45258e-06
0.000147417
-2.94877e-06
0.0001477
-2.44295e-06
0.000147888
-1.92792e-06
0.000147976
-1.40324e-06
0.000147983
-8.57653e-07
0.000147906
-2.82533e-07
0.000147673
3.4665e-07
0.000147358
9.13265e-07
0.00014697
1.47462e-06
0.000146525
2.04988e-06
0.000146037
2.63008e-06
0.000145526
3.21829e-06
0.000145049
3.79136e-06
0.00014463
4.36817e-06
0.000144302
4.97517e-06
0.000144073
5.5541e-06
0.000143974
6.13807e-06
0.000144055
6.70148e-06
0.000144298
7.26486e-06
0.000144678
7.84594e-06
0.000145242
8.38578e-06
0.000146002
8.90684e-06
0.000146973
9.38161e-06
0.000148133
9.86939e-06
0.000149476
1.0342e-05
0.000150956
1.07474e-05
0.000152575
1.12113e-05
0.000154353
1.15793e-05
0.000156209
1.19566e-05
0.000158149
1.22837e-05
0.000160111
1.25872e-05
0.000162148
1.28086e-05
0.000164117
1.30431e-05
0.000165911
1.32682e-05
0.000167497
1.34304e-05
0.000168737
1.36466e-05
0.000169618
1.3751e-05
0.000170011
1.3866e-05
0.000169904
1.39471e-05
0.000169251
1.40083e-05
0.000168055
1.40346e-05
0.000166333
1.40357e-05
0.000164123
1.40005e-05
0.000161454
1.39465e-05
0.00015845
1.38069e-05
0.000155112
1.36487e-05
0.000151465
1.34538e-05
0.000147532
1.3222e-05
0.000143331
1.29619e-05
0.000139072
1.25711e-05
0.000134607
1.22261e-05
0.000129964
1.18467e-05
0.000125177
1.14094e-05
0.000120392
1.08904e-05
0.000115518
1.03664e-05
0.000110514
9.89887e-06
0.000105495
9.30484e-06
0.000100478
8.68444e-06
9.5441e-05
8.07877e-06
9.04099e-05
7.4324e-06
8.5473e-05
6.71801e-06
8.05806e-05
6.03453e-06
7.57664e-05
5.33175e-06
7.10274e-05
4.59538e-06
6.63723e-05
3.88707e-06
6.18675e-05
3.12476e-06
5.74814e-05
2.41623e-06
5.32497e-05
1.67216e-06
4.91737e-05
9.2235e-07
4.52589e-05
1.59166e-07
4.15069e-05
-5.92646e-07
3.79241e-05
-1.30034e-06
3.45185e-05
-2.0074e-06
3.12768e-05
-2.70926e-06
2.822e-05
-3.35173e-06
2.54065e-05
-4.00321e-06
2.2781e-05
-4.6342e-06
2.04214e-05
-5.18259e-06
1.84134e-05
-5.88778e-06
1.442e-05
-5.35724e-06
1.57505e-05
-7.83805e-06
7.88451e-06
-5.4449e-06
1.10033e-05
-8.61122e-06
2.09265e-06
-5.49819e-06
4.28564e-06
-9.82983e-06
1.52824e-07
-1.1823e-05
1.15848e-05
-2.23933e-05
9.57269e-06
2.92945e-08
-1.97541e-06
1.89846e-06
-1.35408e-05
4.65649e-06
-9.10294e-06
3.68912e-06
-6.18212e-06
6.81852e-06
-9.40365e-06
5.80103e-06
-6.32875e-06
9.52623e-06
-9.98147e-06
8.49997e-06
-6.46935e-06
1.27222e-05
-1.04762e-05
1.19357e-05
-6.76932e-06
1.6381e-05
-1.08817e-05
1.62469e-05
-7.30202e-06
2.05301e-05
-1.11257e-05
2.14725e-05
-8.11745e-06
2.52586e-05
-1.11819e-05
2.74916e-05
-9.17413e-06
3.07841e-05
-1.11093e-05
3.40508e-05
-1.03214e-05
3.73534e-05
-1.1093e-05
4.09961e-05
-1.11268e-05
4.47058e-05
-1.14421e-05
4.866e-05
-1.16554e-05
5.27287e-05
-1.18693e-05
5.69468e-05
-1.20844e-05
6.13009e-05
-1.22906e-05
6.57984e-05
-1.24948e-05
7.04105e-05
-1.2681e-05
7.51357e-05
-1.2856e-05
7.9949e-05
-1.30192e-05
8.48423e-05
-1.31646e-05
8.97967e-05
-1.3294e-05
9.47848e-05
-1.34066e-05
9.98009e-05
-1.35018e-05
0.000104812
-1.35752e-05
0.000109814
-1.36336e-05
0.000114794
-1.36664e-05
0.000119723
-1.36682e-05
0.0001246
-1.36527e-05
0.000129414
-1.36307e-05
0.00013413
-1.35527e-05
0.000138763
-1.34753e-05
0.0001433
-1.33589e-05
0.000147747
-1.32336e-05
0.000152089
-1.30643e-05
0.00015631
-1.28599e-05
0.000160419
-1.2637e-05
0.000164414
-1.23894e-05
0.000168275
-1.20936e-05
0.000172012
-1.17816e-05
0.000175617
-1.14386e-05
0.000179083
-1.10627e-05
0.000182407
-1.06576e-05
0.000185582
-1.02236e-05
0.000188605
-9.75817e-06
0.000191471
-9.26658e-06
0.000194175
-8.7476e-06
0.000196713
-8.2017e-06
0.000199083
-7.63025e-06
0.000201279
-7.0341e-06
0.000203299
-6.41448e-06
0.000205139
-5.77286e-06
0.000206797
-5.11019e-06
0.000208277
-4.42866e-06
0.000209566
-3.73197e-06
0.000210649
-3.011e-06
0.000211528
-2.28302e-06
0.0002122
-1.5287e-06
0.000212661
-7.43555e-07
0.000212997
1.0642e-08
0.000213088
8.22206e-07
0.000212937
1.6249e-06
0.000212556
2.43082e-06
0.000211935
3.25143e-06
0.000211104
4.04978e-06
0.000210038
4.85723e-06
0.000208738
5.66739e-06
0.000207284
6.42932e-06
0.000205591
7.24721e-06
0.000203677
8.0518e-06
0.000201542
8.83692e-06
0.000199177
9.62966e-06
0.000196601
1.04225e-05
0.000193787
1.11996e-05
0.000190737
1.19569e-05
0.00018741
1.27085e-05
0.000183832
1.3447e-05
0.000180026
1.41484e-05
0.000175907
1.48663e-05
0.000171648
1.54701e-05
0.000167124
1.61031e-05
0.000162314
1.67669e-05
0.000157287
1.73109e-05
0.000152051
1.78231e-05
0.000146569
1.82903e-05
0.000140897
1.87153e-05
0.000135035
1.91307e-05
0.000128981
1.94837e-05
0.000122922
1.97058e-05
0.000116693
1.99802e-05
0.000110419
2.01401e-05
0.000104028
2.03374e-05
9.76275e-05
2.04091e-05
9.12147e-05
2.04474e-05
8.48293e-05
2.04211e-05
7.85137e-05
2.03161e-05
7.22039e-05
2.02563e-05
6.5984e-05
2.00268e-05
5.9837e-05
1.97957e-05
5.37991e-05
1.94917e-05
4.78907e-05
1.91304e-05
4.21142e-05
1.87383e-05
3.64275e-05
1.82578e-05
3.08494e-05
1.78041e-05
2.54739e-05
1.72222e-05
2.02483e-05
1.6635e-05
1.51772e-05
1.59615e-05
1.02552e-05
1.52884e-05
5.67857e-06
1.44755e-05
1.28617e-06
1.36972e-05
-2.91941e-06
1.289e-05
-6.87197e-06
1.20313e-05
-1.0568e-05
1.11284e-05
-1.40357e-05
1.01858e-05
-1.72217e-05
9.22056e-06
-2.01193e-05
8.22935e-06
-2.27381e-05
7.21418e-06
-2.50366e-05
6.18552e-06
-2.70492e-05
5.13734e-06
-2.87205e-05
4.0875e-06
-3.00716e-05
3.02327e-06
-3.11023e-05
1.95313e-06
-3.18303e-05
8.87106e-07
-3.22463e-05
-1.76601e-07
-3.23322e-05
-1.21449e-06
-3.21075e-05
-2.23211e-06
-3.15966e-05
-3.22009e-06
-3.07696e-05
-4.17878e-06
-2.96668e-05
-5.10595e-06
-2.8319e-05
-5.98203e-06
-2.66727e-05
-6.82895e-06
-2.50271e-05
-7.53333e-06
-2.22823e-05
-8.10202e-06
-2.03122e-05
-9.80816e-06
-1.80008e-05
-7.75631e-06
-1.48451e-05
-1.17669e-05
-1.30803e-05
-7.26296e-06
-9.82029e-06
-1.30898e-05
-4.44258e-06
-1.72007e-05
7.6387e-06
-3.44746e-05
1.72114e-05
3.31668e-07
-2.30708e-06
5.2898e-06
-1.8499e-05
8.17931e-06
-1.19924e-05
1.07504e-05
-8.75318e-06
1.3819e-05
-1.24723e-05
1.63408e-05
-8.85059e-06
1.95069e-05
-1.31475e-05
2.21292e-05
-9.09168e-06
2.5254e-05
-1.36009e-05
2.81461e-05
-9.66146e-06
3.11729e-05
-1.39084e-05
3.43962e-05
-1.05253e-05
3.73398e-05
-1.40693e-05
4.08673e-05
-1.16449e-05
4.37592e-05
-1.40738e-05
4.74822e-05
-1.28971e-05
5.05123e-05
-1.41394e-05
5.42532e-05
-1.40624e-05
5.76324e-05
-1.44721e-05
6.12906e-05
-1.47849e-05
6.496e-05
-1.51116e-05
6.87391e-05
-1.54345e-05
7.26018e-05
-1.5732e-05
7.65607e-05
-1.60433e-05
8.06e-05
-1.63299e-05
8.4707e-05
-1.66017e-05
8.88954e-05
-1.68694e-05
9.31508e-05
-1.71114e-05
9.74699e-05
-1.73383e-05
0.000101848
-1.75424e-05
0.00010628
-1.77267e-05
0.000110767
-1.78927e-05
0.000115291
-1.80262e-05
0.000119863
-1.8147e-05
0.000124462
-1.82327e-05
0.000129086
-1.82905e-05
0.000133737
-1.83193e-05
0.000138387
-1.83029e-05
0.000143035
-1.8278e-05
0.000147692
-1.82095e-05
0.000152319
-1.81028e-05
0.000156919
-1.79589e-05
0.000161458
-1.77723e-05
0.000165941
-1.7548e-05
0.000170376
-1.72947e-05
0.000174749
-1.70103e-05
0.000179029
-1.66694e-05
0.000183216
-1.62805e-05
0.000187298
-1.58635e-05
0.000191262
-1.54025e-05
0.000195101
-1.49018e-05
0.000198805
-1.43613e-05
0.000202361
-1.37802e-05
0.000205763
-1.31597e-05
0.000208997
-1.25006e-05
0.000212054
-1.18047e-05
0.000214925
-1.10724e-05
0.000217599
-1.03047e-05
0.000220069
-9.50338e-06
0.000222324
-8.66999e-06
0.000224357
-7.80584e-06
0.00022616
-6.91284e-06
0.000227725
-5.99445e-06
0.000229046
-5.05234e-06
0.000230109
-4.07425e-06
0.000230914
-3.08747e-06
0.000231458
-2.07314e-06
0.00023177
-1.05551e-06
0.000231763
1.74513e-08
0.0002315
1.08501e-06
0.000230962
2.16349e-06
0.000230143
3.24932e-06
0.000229058
4.33663e-06
0.00022769
5.4176e-06
0.00022604
6.50749e-06
0.000224111
7.59649e-06
0.000221863
8.67695e-06
0.000219339
9.7719e-06
0.000216544
1.08468e-05
0.000213465
1.19154e-05
0.000210119
1.29759e-05
0.000206513
1.40283e-05
0.000202654
1.50588e-05
0.00019854
1.60707e-05
0.000194177
1.70718e-05
0.000189588
1.80362e-05
0.000184766
1.897e-05
0.000179739
1.98935e-05
0.000174461
2.07479e-05
0.000168984
2.15803e-05
0.000163378
2.23727e-05
0.000157574
2.31144e-05
0.000151589
2.38082e-05
0.000145444
2.44359e-05
0.000139151
2.50084e-05
0.000132682
2.55994e-05
0.000126114
2.60515e-05
0.000119377
2.64426e-05
0.000112582
2.67751e-05
0.00010568
2.70427e-05
9.87141e-05
2.73032e-05
9.16851e-05
2.74381e-05
8.46031e-05
2.75293e-05
7.74861e-05
2.7538e-05
7.03007e-05
2.75016e-05
6.32497e-05
2.73073e-05
5.61784e-05
2.70981e-05
4.90851e-05
2.68889e-05
4.20717e-05
2.65051e-05
3.51235e-05
2.60786e-05
2.83017e-05
2.55602e-05
2.15743e-05
2.49853e-05
1.50586e-05
2.43198e-05
8.67435e-06
2.36065e-05
2.47293e-06
2.28364e-05
-3.50594e-06
2.19403e-05
-9.22425e-06
2.10067e-05
-1.47422e-05
1.99934e-05
-1.9972e-05
1.89271e-05
-2.48852e-05
1.78032e-05
-2.94924e-05
1.66385e-05
-3.3754e-05
1.53899e-05
-3.76712e-05
1.4103e-05
-4.12246e-05
1.27739e-05
-4.43958e-05
1.14006e-05
-4.71792e-05
9.99757e-06
-4.95604e-05
8.5667e-06
-5.15259e-05
7.10282e-06
-5.30728e-05
5.63445e-06
-5.41896e-05
4.14002e-06
-5.48847e-05
2.64823e-06
-5.51626e-05
1.16502e-06
-5.501e-05
-3.29155e-07
-5.44284e-05
-1.79615e-06
-5.34291e-05
-3.23134e-06
-5.20229e-05
-4.62638e-06
-5.02255e-05
-5.97612e-06
-4.80533e-05
-7.27817e-06
-4.55259e-05
-8.50946e-06
-4.26754e-05
-9.67946e-06
-3.94551e-05
-1.07536e-05
-3.57457e-05
-1.18115e-05
-3.25887e-05
-1.29651e-05
-2.76796e-05
-1.26654e-05
-2.42781e-05
-1.51685e-05
-1.92992e-05
-1.22418e-05
-1.428e-05
-1.81091e-05
-6.29627e-06
-2.51845e-05
5.34559e-06
-4.61164e-05
2.2557e-05
4.08162e-07
-2.71524e-06
5.70167e-06
-2.37925e-05
8.74617e-06
-1.50369e-05
1.13529e-05
-1.13599e-05
1.43165e-05
-1.54359e-05
1.69112e-05
-1.14453e-05
1.995e-05
-1.61863e-05
2.26095e-05
-1.17512e-05
2.56488e-05
-1.66402e-05
2.84828e-05
-1.24955e-05
3.14989e-05
-1.69245e-05
3.45625e-05
-1.35889e-05
3.75682e-05
-1.70749e-05
4.08711e-05
-1.49479e-05
4.39482e-05
-1.71509e-05
4.74282e-05
-1.63771e-05
5.06633e-05
-1.73745e-05
5.41645e-05
-1.75637e-05
5.76844e-05
-1.7992e-05
6.12928e-05
-1.83933e-05
6.4974e-05
-1.87928e-05
6.8739e-05
-1.91996e-05
7.25932e-05
-1.95862e-05
7.65223e-05
-1.99724e-05
8.05233e-05
-2.03309e-05
8.46057e-05
-2.06841e-05
8.87688e-05
-2.10325e-05
9.3003e-05
-2.13456e-05
9.73181e-05
-2.16534e-05
0.000101699
-2.19229e-05
0.000106146
-2.21741e-05
0.000110645
-2.23917e-05
0.000115207
-2.25882e-05
0.000119802
-2.27416e-05
0.000124436
-2.28671e-05
0.000129101
-2.29553e-05
0.000133785
-2.30034e-05
0.000138505
-2.30225e-05
0.000143203
-2.29763e-05
0.000147905
-2.29117e-05
0.00015258
-2.27773e-05
0.000157238
-2.26178e-05
0.000161867
-2.2401e-05
0.000166442
-2.2123e-05
0.000170949
-2.18017e-05
0.000175378
-2.14389e-05
0.00017974
-2.10315e-05
0.00018402
-2.05604e-05
0.000188188
-2.0032e-05
0.000192234
-1.94488e-05
0.000196152
-1.88191e-05
0.00019993
-1.81396e-05
0.000203556
-1.74062e-05
0.00020702
-1.66238e-05
0.000210313
-1.57931e-05
0.000213423
-1.49154e-05
0.000216343
-1.39922e-05
0.000219061
-1.30223e-05
0.000221567
-1.20094e-05
0.000223852
-1.09554e-05
0.000225909
-9.86217e-06
0.000227726
-8.73042e-06
0.000229296
-7.56403e-06
0.000230608
-6.36504e-06
0.000231684
-5.15028e-06
0.000232493
-3.89644e-06
0.000233029
-2.60829e-06
0.000233304
-1.33102e-06
0.000233285
3.66661e-08
0.000232987
1.38254e-06
0.000232394
2.75636e-06
0.000231532
4.11151e-06
0.000230406
5.46295e-06
0.000228988
6.83594e-06
0.000227286
8.20938e-06
0.000225303
9.57949e-06
0.000223039
1.09408e-05
0.000220475
1.2336e-05
0.000217652
1.367e-05
0.00021456
1.50072e-05
0.0002112
1.63355e-05
0.000207599
1.76293e-05
0.000203749
1.89087e-05
0.000199664
2.01563e-05
0.000195312
2.1423e-05
0.00019075
2.25983e-05
0.000185979
2.37411e-05
0.000180962
2.49111e-05
0.000175741
2.59688e-05
0.000170314
2.70071e-05
0.000164755
2.79317e-05
0.000159003
2.88663e-05
0.000153073
2.97377e-05
0.000146974
3.0535e-05
0.000140709
3.12733e-05
0.000134344
3.19647e-05
0.000127832
3.25636e-05
0.000121187
3.30882e-05
0.00011442
3.35416e-05
0.000107547
3.39156e-05
0.000100609
3.42418e-05
9.35879e-05
3.44587e-05
8.65297e-05
3.45876e-05
7.94255e-05
3.46422e-05
7.23312e-05
3.45959e-05
6.51338e-05
3.45047e-05
5.79361e-05
3.42958e-05
5.09093e-05
3.39158e-05
4.38691e-05
3.35452e-05
3.69177e-05
3.303e-05
3.00161e-05
3.24618e-05
2.32442e-05
3.17572e-05
1.65823e-05
3.09816e-05
1.00948e-05
3.0094e-05
3.84509e-06
2.90861e-05
-2.22808e-06
2.80135e-05
-8.09333e-06
2.68719e-05
-1.37265e-05
2.56265e-05
-1.90667e-05
2.42673e-05
-2.41296e-05
2.28661e-05
-2.88572e-05
2.13662e-05
-3.32713e-05
1.9804e-05
-3.73405e-05
1.81722e-05
-4.10404e-05
1.64739e-05
-4.43579e-05
1.47181e-05
-4.72839e-05
1.29235e-05
-4.98285e-05
1.11114e-05
-5.19049e-05
9.1792e-06
-5.36148e-05
7.34436e-06
-5.48333e-05
5.35848e-06
-5.56284e-05
3.44338e-06
-5.60633e-05
1.59989e-06
-5.59542e-05
-4.38241e-07
-5.54241e-05
-2.32624e-06
-5.44749e-05
-4.18053e-06
-5.31096e-05
-5.9917e-06
-5.13363e-05
-7.74946e-06
-4.91739e-05
-9.44058e-06
-4.66316e-05
-1.10517e-05
-4.37354e-05
-1.25757e-05
-4.04763e-05
-1.40127e-05
-3.69012e-05
-1.53865e-05
-3.31875e-05
-1.66789e-05
-2.88711e-05
-1.69817e-05
-2.48054e-05
-1.92342e-05
-2.03254e-05
-1.67218e-05
-1.51398e-05
-2.32947e-05
-7.23567e-06
-3.30886e-05
5.40068e-06
-5.87528e-05
2.79577e-05
4.37104e-07
-3.15235e-06
5.29232e-06
-2.86477e-05
8.12931e-06
-1.78739e-05
1.06122e-05
-1.38428e-05
1.34641e-05
-1.82878e-05
1.59746e-05
-1.39557e-05
1.89229e-05
-1.91346e-05
2.15088e-05
-1.43371e-05
2.44853e-05
-1.96167e-05
2.72357e-05
-1.52459e-05
3.02113e-05
-1.99e-05
3.31656e-05
-1.65433e-05
3.61564e-05
-2.00657e-05
3.93271e-05
-1.81187e-05
4.23941e-05
-2.02179e-05
4.57327e-05
-1.97157e-05
4.89866e-05
-2.06284e-05
5.24159e-05
-2.0993e-05
5.5908e-05
-2.1484e-05
5.94928e-05
-2.19782e-05
6.31672e-05
-2.24672e-05
6.69249e-05
-2.29572e-05
7.0783e-05
-2.34443e-05
7.47297e-05
-2.39191e-05
7.87736e-05
-2.43748e-05
8.29104e-05
-2.4821e-05
8.71203e-05
-2.52424e-05
9.14314e-05
-2.56567e-05
9.58105e-05
-2.60325e-05
0.000100271
-2.63833e-05
0.00010479
-2.66928e-05
0.000109384
-2.69861e-05
0.000114025
-2.72296e-05
0.000118719
-2.74351e-05
0.00012345
-2.75983e-05
0.000128214
-2.77193e-05
0.000133008
-2.77978e-05
0.0001378
-2.78143e-05
0.000142605
-2.77808e-05
0.000147405
-2.77123e-05
0.000152191
-2.75631e-05
0.000156933
-2.736e-05
0.00016166
-2.71273e-05
0.000166319
-2.67818e-05
0.000170927
-2.64098e-05
0.000175458
-2.59703e-05
0.000179889
-2.54625e-05
0.000184231
-2.49025e-05
0.000188488
-2.42886e-05
0.00019263
-2.35914e-05
0.000196642
-2.28307e-05
0.0002005
-2.19973e-05
0.000204206
-2.11123e-05
0.00020775
-2.01687e-05
0.000211123
-1.91655e-05
0.00021431
-1.81022e-05
0.000217304
-1.69868e-05
0.000220094
-1.58125e-05
0.000222672
-1.45866e-05
0.000225027
-1.33108e-05
0.000227152
-1.19866e-05
0.000229037
-1.06163e-05
0.000230676
-9.20274e-06
0.00023206
-7.74882e-06
0.000233174
-6.26408e-06
0.000234017
-4.74006e-06
0.000234614
-3.20462e-06
0.000234928
-1.64492e-06
0.00023496
4.70928e-09
0.000234711
1.6312e-06
0.000234217
3.25034e-06
0.000233427
4.90172e-06
0.000232336
6.55392e-06
0.000230959
8.21262e-06
0.000229295
9.873e-06
0.000227342
1.15333e-05
0.000225067
1.32151e-05
0.000222598
1.48056e-05
0.000219823
1.64451e-05
0.000216767
1.80632e-05
0.000213426
1.96759e-05
0.00020984
2.12152e-05
0.000205982
2.2767e-05
0.000201841
2.42969e-05
0.000197523
2.57409e-05
0.00019293
2.71917e-05
0.000188067
2.86043e-05
0.000183065
2.99126e-05
0.000177813
3.12212e-05
0.000172349
3.24713e-05
0.000166658
3.3622e-05
0.000160781
3.47437e-05
0.000154716
3.58022e-05
0.000148474
3.67779e-05
0.000142065
3.76823e-05
0.000135517
3.85118e-05
0.000128826
3.92554e-05
0.000122001
3.99129e-05
0.000115057
4.04859e-05
0.000108006
4.09666e-05
0.00010091
4.13372e-05
9.37377e-05
4.16313e-05
8.6508e-05
4.18172e-05
7.92351e-05
4.19151e-05
7.1948e-05
4.1883e-05
6.46598e-05
4.17928e-05
5.74133e-05
4.15424e-05
5.01739e-05
4.11552e-05
4.30079e-05
4.07112e-05
3.59357e-05
4.01022e-05
2.89203e-05
3.94772e-05
2.20189e-05
3.86586e-05
1.5333e-05
3.76676e-05
8.77387e-06
3.66531e-05
2.38326e-06
3.54768e-05
-3.7997e-06
3.41965e-05
-9.73721e-06
3.28094e-05
-1.54214e-05
3.13107e-05
-2.08583e-05
2.97042e-05
-2.59839e-05
2.79918e-05
-3.08064e-05
2.61887e-05
-3.52913e-05
2.42888e-05
-3.94175e-05
2.22984e-05
-4.3175e-05
2.02313e-05
-4.65518e-05
1.80949e-05
-4.95512e-05
1.59229e-05
-5.20713e-05
1.36314e-05
-5.42204e-05
1.13283e-05
-5.58774e-05
9.00141e-06
-5.71409e-05
6.62196e-06
-5.79425e-05
4.245e-06
-5.8278e-05
1.93541e-06
-5.81939e-05
-5.22407e-07
-5.76486e-05
-2.8715e-06
-5.66566e-05
-5.17257e-06
-5.52289e-05
-7.4194e-06
-5.33745e-05
-9.60384e-06
-5.11099e-05
-1.17051e-05
-4.8452e-05
-1.37096e-05
-4.54122e-05
-1.56155e-05
-4.2024e-05
-1.74008e-05
-3.82979e-05
-1.91127e-05
-3.42988e-05
-2.0678e-05
-3.00364e-05
-2.12441e-05
-2.55307e-05
-2.37399e-05
-2.12007e-05
-2.10518e-05
-1.56916e-05
-2.88037e-05
-7.62201e-06
-4.11582e-05
5.5302e-06
-7.1905e-05
3.34879e-05
3.07844e-07
-3.46019e-06
5.11217e-06
-3.3452e-05
7.91137e-06
-2.06731e-05
1.02211e-05
-1.61525e-05
1.29727e-05
-2.10395e-05
1.53461e-05
-1.63291e-05
1.81974e-05
-2.19859e-05
2.06638e-05
-1.68036e-05
2.35689e-05
-2.25218e-05
2.61984e-05
-1.78754e-05
2.91453e-05
-2.28469e-05
3.19908e-05
-1.93888e-05
3.49985e-05
-2.30733e-05
3.80674e-05
-2.11876e-05
4.11782e-05
-2.33287e-05
4.44426e-05
-2.29801e-05
4.77165e-05
-2.39023e-05
5.11295e-05
-2.44061e-05
5.4623e-05
-2.49775e-05
5.82087e-05
-2.55639e-05
6.19068e-05
-2.61652e-05
6.56974e-05
-2.67478e-05
6.95879e-05
-2.73348e-05
7.35692e-05
-2.79004e-05
7.76591e-05
-2.84648e-05
8.18348e-05
-2.89967e-05
8.61129e-05
-2.95204e-05
9.04652e-05
-3.0009e-05
9.49067e-05
-3.0474e-05
9.94292e-05
-3.09058e-05
0.000104033
-3.12966e-05
0.000108706
-3.16588e-05
0.000113424
-3.19476e-05
0.000118204
-3.22154e-05
0.000123029
-3.24235e-05
0.000127899
-3.25896e-05
0.000132781
-3.26789e-05
0.000137681
-3.27149e-05
0.0001426
-3.26995e-05
0.000147493
-3.2606e-05
0.000152394
-3.24634e-05
0.000157263
-3.22294e-05
0.000162083
-3.19474e-05
0.000166893
-3.15915e-05
0.000171622
-3.11394e-05
0.000176272
-3.06203e-05
0.000180846
-3.00357e-05
0.000185315
-2.93718e-05
0.000189657
-2.86301e-05
0.000193891
-2.78255e-05
0.000198011
-2.69512e-05
0.00020199
-2.59758e-05
0.000205814
-2.49364e-05
0.000209475
-2.38294e-05
0.000212962
-2.26527e-05
0.000216264
-2.14049e-05
0.000219358
-2.00805e-05
0.000222245
-1.86997e-05
0.000224918
-1.72591e-05
0.000227366
-1.57592e-05
0.00022958
-1.42006e-05
0.00023155
-1.25858e-05
0.00023327
-1.09227e-05
0.000234733
-9.21187e-06
0.000235929
-7.46019e-06
0.000236856
-5.66733e-06
0.000237502
-3.85102e-06
0.000237866
-2.00878e-06
0.000237956
-8.54131e-08
0.000237759
1.82823e-06
0.000237259
3.75073e-06
0.000236471
5.68932e-06
0.000235391
7.63413e-06
0.000234021
9.58318e-06
0.000232357
1.15371e-05
0.000230383
1.35069e-05
0.000228176
1.54223e-05
0.000225639
1.73429e-05
0.000222825
1.92583e-05
0.000219726
2.1163e-05
0.000216368
2.30335e-05
0.000212718
2.48648e-05
0.000208809
2.66766e-05
0.000204636
2.84692e-05
0.000200204
3.01735e-05
0.00019553
3.18652e-05
0.000190616
3.35183e-05
0.000185466
3.50629e-05
0.000180097
3.65907e-05
0.000174508
3.80597e-05
0.000168699
3.94316e-05
0.000162695
4.0747e-05
0.000156496
4.20016e-05
0.000150119
4.31547e-05
0.000143575
4.4226e-05
0.000136879
4.52077e-05
0.000130039
4.60962e-05
0.000123063
4.68885e-05
0.000115962
4.75867e-05
0.000108744
4.81848e-05
0.000101475
4.86058e-05
9.41195e-05
4.89872e-05
8.6701e-05
4.92358e-05
7.92141e-05
4.9402e-05
7.16705e-05
4.94266e-05
6.42356e-05
4.92277e-05
5.67758e-05
4.90022e-05
4.93419e-05
4.85891e-05
4.18942e-05
4.81589e-05
3.45025e-05
4.74939e-05
2.73588e-05
4.6621e-05
2.02887e-05
4.57286e-05
1.33263e-05
4.46299e-05
6.52406e-06
4.34553e-05
-8.06233e-08
4.20814e-05
-6.48099e-06
4.05968e-05
-1.26355e-05
3.89639e-05
-1.85279e-05
3.72032e-05
-2.4169e-05
3.53453e-05
-2.9466e-05
3.32887e-05
-3.44379e-05
3.11605e-05
-3.91031e-05
2.8954e-05
-4.33711e-05
2.65664e-05
-4.72548e-05
2.4115e-05
-5.07756e-05
2.16157e-05
-5.38146e-05
1.89619e-05
-5.64345e-05
1.62513e-05
-5.86332e-05
1.3527e-05
-6.03506e-05
1.07188e-05
-6.16151e-05
7.88645e-06
-6.23972e-05
5.02711e-06
-6.27511e-05
2.28927e-06
-6.25763e-05
-6.97148e-07
-6.19349e-05
-3.5129e-06
-6.08285e-05
-6.279e-06
-5.92654e-05
-8.98248e-06
-5.72546e-05
-1.16146e-05
-5.48124e-05
-1.41473e-05
-5.1954e-05
-1.65681e-05
-4.8698e-05
-1.88715e-05
-4.50653e-05
-2.10336e-05
-4.10788e-05
-2.30991e-05
-3.67952e-05
-2.49616e-05
-3.22535e-05
-2.57858e-05
-2.74409e-05
-2.85525e-05
-2.28062e-05
-2.56865e-05
-1.68853e-05
-3.47247e-05
-8.18024e-06
-4.98633e-05
5.74162e-06
-8.58269e-05
3.92295e-05
2.23986e-07
-3.68418e-06
4.91297e-06
-3.8141e-05
7.6229e-06
-2.33831e-05
9.84051e-06
-1.83701e-05
1.24918e-05
-2.36907e-05
1.47988e-05
-1.86362e-05
1.75527e-05
-2.47397e-05
1.99524e-05
-1.92033e-05
2.27797e-05
-2.53491e-05
2.53567e-05
-2.04524e-05
2.82413e-05
-2.57316e-05
3.10327e-05
-2.21802e-05
3.39911e-05
-2.60317e-05
3.70129e-05
-2.42094e-05
4.00844e-05
-2.64001e-05
4.33262e-05
-2.62219e-05
4.65801e-05
-2.71562e-05
4.99689e-05
-2.77949e-05
5.34618e-05
-2.84704e-05
5.70501e-05
-2.91522e-05
6.07406e-05
-2.98557e-05
6.45408e-05
-3.05481e-05
6.84415e-05
-3.12355e-05
7.24568e-05
-3.19157e-05
7.65614e-05
-3.25694e-05
8.07949e-05
-3.32302e-05
8.51035e-05
-3.38291e-05
8.95244e-05
-3.44299e-05
9.40371e-05
-3.49867e-05
9.86284e-05
-3.54971e-05
0.000103304
-3.59721e-05
0.000108045
-3.64001e-05
0.000112869
-3.67714e-05
0.000117746
-3.70924e-05
0.000122674
-3.73515e-05
0.000127634
-3.75495e-05
0.000132634
-3.76788e-05
0.000137659
-3.77404e-05
0.000142705
-3.77446e-05
0.000147735
-3.76365e-05
0.000152765
-3.74933e-05
0.000157771
-3.72357e-05
0.000162732
-3.69083e-05
0.000167664
-3.65233e-05
0.000172533
-3.60081e-05
0.00017734
-3.54277e-05
0.000182056
-3.4752e-05
0.000186684
-3.39997e-05
0.000191194
-3.31395e-05
0.000195582
-3.22139e-05
0.000199829
-3.11983e-05
0.000203938
-3.00844e-05
0.000207889
-2.88876e-05
0.000211679
-2.76197e-05
0.000215291
-2.62646e-05
0.000218709
-2.48223e-05
0.000221927
-2.32993e-05
0.000224935
-2.17068e-05
0.000227723
-2.00474e-05
0.000230288
-1.83244e-05
0.000232614
-1.65262e-05
0.000234682
-1.46544e-05
0.000236491
-1.2732e-05
0.000238032
-1.07525e-05
0.0002393
-8.72786e-06
0.000240295
-6.66275e-06
0.000241003
-4.55846e-06
0.000241419
-2.42502e-06
0.000241552
-2.18127e-07
0.000241387
1.99262e-06
0.000240916
4.22173e-06
0.000240142
6.46319e-06
0.000239066
8.71011e-06
0.000237687
1.09624e-05
0.000236011
1.32131e-05
0.000234074
1.5444e-05
0.000231816
1.76808e-05
0.000229255
1.9903e-05
0.000226406
2.21082e-05
0.000223252
2.4317e-05
0.000219837
2.64486e-05
0.000216133
2.85687e-05
0.00021215
3.06596e-05
0.000207906
3.27129e-05
0.000203388
3.46913e-05
0.000198625
3.66282e-05
0.000193608
3.85356e-05
0.000188337
4.03341e-05
0.000182843
4.20841e-05
0.000177113
4.37896e-05
0.000171165
4.53795e-05
0.000165017
4.68953e-05
0.000158653
4.83661e-05
0.000152106
4.9701e-05
0.000145385
5.0947e-05
0.000138508
5.20848e-05
0.000131478
5.31263e-05
0.000124307
5.40599e-05
0.000117011
5.48826e-05
0.000109613
5.55832e-05
0.000102088
5.61301e-05
9.44971e-05
5.65783e-05
8.68598e-05
5.68731e-05
7.91416e-05
5.71201e-05
7.14304e-05
5.71379e-05
6.36643e-05
5.69937e-05
5.58927e-05
5.67738e-05
4.81173e-05
5.63645e-05
4.0545e-05
5.57312e-05
3.30128e-05
5.5026e-05
2.5521e-05
5.41128e-05
1.81028e-05
5.31468e-05
1.0828e-05
5.19048e-05
3.81111e-06
5.04722e-05
-3.0491e-06
4.89417e-05
-9.69102e-06
4.72387e-05
-1.61005e-05
4.53734e-05
-2.22483e-05
4.33509e-05
-2.80765e-05
4.11735e-05
-3.36543e-05
3.88665e-05
-3.88635e-05
3.63698e-05
-4.36796e-05
3.37702e-05
-4.8153e-05
3.10398e-05
-5.22333e-05
2.81953e-05
-5.58403e-05
2.52227e-05
-5.90243e-05
2.21459e-05
-6.17642e-05
1.89912e-05
-6.40743e-05
1.58372e-05
-6.58461e-05
1.24906e-05
-6.71435e-05
9.18381e-06
-6.79341e-05
5.81773e-06
-6.82266e-05
2.58178e-06
-6.8008e-05
-9.15819e-07
-6.72815e-05
-4.23937e-06
-6.60549e-05
-7.50558e-06
-6.43364e-05
-1.0701e-05
-6.21364e-05
-1.38145e-05
-5.94725e-05
-1.68113e-05