/*--------------------------------*- C++ -*----------------------------------*\
| =========                 |                                                 |
| \\      /  F ield         | OpenFOAM: The Open Source CFD Toolbox           |
|  \\    /   O peration     | Version:  v2006                                 |
|   \\  /    A nd           | Website:  www.openfoam.com                      |
|    \\/     M anipulation  |                                                 |
\*---------------------------------------------------------------------------*/
FoamFile
{
    version     2.0;
    format      ascii;
    class       volScalarField;
    location    "2";
    object      p;
}
// * * * * * * * * * * * * * * * * * * * * * * * * * * * * * * * * * * * * * //

dimensions      [1 -1 -2 0 0 0 0];


internalField   nonuniform List<scalar> 
50000
(
22900.2
22900.5
22900.1
22900.9
22900.2
22901.4
22900.7
22902
22901.3
22902.6
22902.2
22903.2
22903.1
22903.8
22904
22904.4
22904.7
22905
22905.2
22905.4
22905.4
22905.4
22905.3
22905.1
22904.8
22904.3
22903.7
22902.9
22901.9
22900.8
22899.4
22897.8
22896
22893.9
22891.6
22888.9
22886
22882.8
22879.2
22875.3
22871.1
22866.4
22861.4
22856.1
22850.3
22844
22837.4
22830.3
22822.7
22814.7
22806.2
22797.2
22787.8
22777.8
22767.3
22756.3
22744.7
22732.6
22720
22706.9
22693.2
22678.9
22664.1
22648.8
22632.9
22616.4
22599.4
22581.8
22563.7
22545
22525.9
22506.1
22485.9
22465.1
22443.8
22422
22399.7
22376.9
22353.7
22330
22305.9
22281.4
22256.4
22231.1
22205.4
22179.3
22152.9
22126.2
22099.1
22071.8
22044.3
22016.5
21988.5
21960.2
21931.9
21903.4
21874.7
21846
21817.2
21788.4
21759.5
21730.7
21701.9
21673.1
21644.5
21615.9
21587.5
21559.3
21531.3
21503.5
21475.9
21448.7
21421.7
21395.1
21368.8
21342.9
21317.4
21292.3
21267.7
21243.6
21220
21196.9
21174.4
21152.5
21131.2
21110.5
21090.5
21071.1
21052.4
21034.4
21017.2
21000.7
20984.9
20970
20955.8
20942.5
20929.9
20918.3
20907.4
20897.4
20888.3
20880.1
20872.6
20867.3
20859.6
20858.2
20850.8
20851.6
20846.6
20847.6
22448.8
22449.1
22448.8
22449.5
22449
22450
22449.5
22450.6
22450.1
22451.2
22451
22451.9
22451.9
22452.6
22452.7
22453.2
22453.5
22453.8
22454
22454.2
22454.3
22454.4
22454.3
22454.1
22453.8
22453.3
22452.7
22452
22451
22449.9
22448.6
22447
22445.2
22443.1
22440.8
22438.2
22435.3
22432.1
22428.6
22424.7
22420.5
22415.9
22410.9
22405.6
22399.8
22393.6
22387
22379.9
22372.4
22364.4
22355.9
22346.9
22337.5
22327.5
22317
22306
22294.5
22282.4
22269.8
22256.7
22243
22228.7
22214
22198.6
22182.7
22166.2
22149.2
22131.7
22113.7
22094.9
22075.7
22055.9
22035.6
22014.8
21993.5
21971.7
21949.4
21926.6
21903.3
21879.6
21855.5
21830.9
21805.9
21780.5
21754.8
21728.7
21702.2
21675.4
21648.4
21621
21593.4
21565.6
21537.5
21509.3
21480.9
21452.3
21423.6
21394.8
21366
21337.1
21308.2
21279.3
21250.5
21221.7
21193
21164.4
21135.9
21107.7
21079.6
21051.8
21024.2
20996.8
20969.8
20943.1
20916.8
20890.8
20865.3
20840.2
20815.5
20791.4
20767.7
20744.6
20722.1
20700.1
20678.8
20658.1
20638
20618.6
20599.8
20581.8
20564.5
20547.9
20532.1
20517.2
20503
20489.6
20477.1
20465.3
20454.5
20444.5
20435.3
20427.2
20419.1
20414.3
20406.4
20405.4
20397.3
20398.5
20393.5
20394.1
21997.3
21997.7
21997.2
21998.2
21997.4
21998.8
21997.8
21999.4
21998.6
22000.1
21999.5
22000.7
22000.5
22001.4
22001.5
22002.1
22002.4
22002.8
22003
22003.3
22003.4
22003.5
22003.4
22003.3
22003.1
22002.7
22002.1
22001.4
22000.5
21999.4
21998.1
21996.6
21994.9
21992.9
21990.6
21988.1
21985.3
21982.1
21978.6
21974.8
21970.6
21966.1
21961.2
21955.9
21950.1
21944
21937.4
21930.4
21922.9
21914.9
21906.5
21897.6
21888.1
21878.2
21867.7
21856.8
21845.3
21833.2
21820.6
21807.5
21793.8
21779.6
21764.8
21749.4
21733.5
21717.1
21700
21682.4
21664.3
21645.6
21626.4
21606.6
21586.3
21565.5
21544.1
21522.3
21499.9
21477.1
21453.8
21430
21405.8
21381.2
21356.2
21330.7
21304.9
21278.7
21252.2
21225.4
21198.2
21170.8
21143.1
21115.2
21087
21058.7
21030.2
21001.5
20972.7
20943.9
20914.9
20885.9
20856.9
20827.9
20799
20770.1
20741.3
20712.6
20684
20655.7
20627.5
20599.5
20571.8
20544.4
20517.3
20490.5
20464.1
20438
20412.4
20387.2
20362.5
20338.1
20314.4
20291.2
20268.6
20246.6
20225.1
20204.3
20184.2
20164.7
20145.9
20127.8
20110.5
20094
20078.1
20063
20048.8
20035.3
20022.7
20010.9
20000
19990
19980.9
19972.7
19964.4
19960.3
19951.1
19951.2
19942.4
19944.3
19938.8
19939.3
21545.8
21546.2
21545.7
21546.7
21545.8
21547.3
21546.3
21548
21547.1
21548.7
21548.1
21549.5
21549.2
21550.3
21550.4
21551
21551.3
21551.8
21552.1
21552.4
21552.6
21552.8
21552.8
21552.8
21552.6
21552.3
21551.8
21551.2
21550.4
21549.4
21548.2
21546.7
21545.1
21543.2
21541
21538.5
21535.8
21532.7
21529.3
21525.6
21521.5
21517
21512.2
21506.9
21501.3
21495.2
21488.7
21481.7
21474.3
21466.4
21458
21449.1
21439.8
21429.9
21419.5
21408.5
21397.1
21385
21372.5
21359.4
21345.7
21331.5
21316.7
21301.4
21285.5
21269
21252
21234.4
21216.3
21197.5
21178.2
21158.4
21138
21117.1
21095.7
21073.8
21051.4
21028.5
21005.1
20981.3
20957
20932.3
20907.1
20881.6
20855.7
20829.4
20802.7
20775.8
20748.5
20721
20693.1
20665.1
20636.8
20608.3
20579.7
20550.9
20522
20493
20463.9
20434.7
20405.6
20376.5
20347.3
20318.3
20289.3
20260.5
20231.8
20203.3
20175
20146.8
20119
20091.4
20064.2
20037.2
20010.6
19984.4
19958.6
19933.2
19908.4
19884
19860.1
19836.8
19814
19791.9
19770.3
19749.4
19729.1
19709.5
19690.6
19672.4
19655
19638.3
19622.3
19607.2
19592.9
19579.3
19566.7
19554.8
19543.8
19533.7
19524.5
19516.2
19508.2
19503.6
19494.8
19494.4
19486
19487.5
19482.4
19482.6
21094.1
21094.5
21094
21095.1
21094.2
21095.8
21094.8
21096.5
21095.6
21097.3
21096.7
21098.2
21098
21099.1
21099.2
21100
21100.4
21100.9
21101.3
21101.7
21102
21102.2
21102.4
21102.4
21102.3
21102.1
21101.8
21101.3
21100.6
21099.7
21098.6
21097.3
21095.7
21093.9
21091.9
21089.5
21086.9
21083.9
21080.6
21077
21073
21068.7
21063.9
21058.8
21053.2
21047.2
21040.8
21033.9
21026.6
21018.8
21010.5
21001.7
20992.4
20982.5
20972.2
20961.3
20949.9
20937.9
20925.4
20912.3
20898.7
20884.4
20869.7
20854.3
20838.4
20821.9
20804.9
20787.3
20769.1
20750.4
20731
20711.1
20690.7
20669.8
20648.3
20626.3
20603.8
20580.8
20557.3
20533.4
20509
20484.1
20458.9
20433.2
20407.2
20380.7
20353.9
20326.8
20299.4
20271.7
20243.7
20215.5
20187
20158.4
20129.5
20100.5
20071.4
20042.2
20012.9
19983.6
19954.3
19924.9
19895.6
19866.4
19837.2
19808.1
19779.2
19750.5
19722
19693.7
19665.6
19637.8
19610.4
19583.2
19556.5
19530
19504
19478.4
19453.4
19428.8
19404.8
19381.3
19358.3
19336
19314.3
19293.2
19272.8
19253
19233.9
19215.6
19198
19181.2
19165.1
19149.8
19135.4
19121.8
19109
19097.1
19086
19075.8
19066.5
19058.1
19050.3
19045.2
19036.8
19035.8
19027.9
19029
19024.2
19024.2
20642.4
20642.8
20642.2
20643.4
20642.5
20644.2
20643.1
20645
20644.1
20645.9
20645.3
20646.9
20646.7
20647.9
20648.2
20649
20649.5
20650.1
20650.6
20651.1
20651.5
20651.9
20652.2
20652.3
20652.4
20652.3
20652.1
20651.7
20651.1
20650.4
20649.4
20648.3
20646.8
20645.2
20643.3
20641.1
20638.6
20635.7
20632.6
20629.1
20625.3
20621
20616.4
20611.4
20606
20600.1
20593.8
20587
20579.8
20572.1
20563.9
20555.2
20545.9
20536.2
20525.9
20515.1
20503.7
20491.8
20479.3
20466.3
20452.7
20438.5
20423.7
20408.4
20392.5
20376
20358.9
20341.3
20323.1
20304.2
20284.9
20264.9
20244.4
20223.4
20201.8
20179.7
20157.1
20134
20110.4
20086.4
20061.8
20036.8
20011.4
19985.6
19959.3
19932.7
19905.8
19878.5
19850.8
19822.9
19794.7
19766.3
19737.6
19708.7
19679.6
19650.4
19621.1
19591.6
19562.1
19532.5
19502.9
19473.3
19443.7
19414.2
19384.8
19355.5
19326.4
19297.4
19268.6
19240
19211.7
19183.7
19156
19128.6
19101.5
19074.8
19048.5
19022.7
18997.4
18972.6
18948.4
18924.7
18901.5
18879
18857
18835.7
18815.1
18795.2
18775.9
18757.4
18739.6
18722.6
18706.5
18691
18676.4
18662.6
18649.7
18637.7
18626.5
18616.2
18606.8
18598.3
18590.4
18585.1
18576.9
18575.6
18567.9
18568.7
18564.1
18564
20190.4
20191
20190.3
20191.6
20190.6
20192.4
20191.3
20193.4
20192.4
20194.4
20193.8
20195.5
20195.4
20196.7
20197.1
20198
20198.7
20199.4
20200
20200.7
20201.2
20201.7
20202.1
20202.4
20202.6
20202.7
20202.7
20202.4
20202
20201.5
20200.7
20199.7
20198.5
20197
20195.2
20193.2
20190.9
20188.2
20185.2
20181.9
20178.2
20174.2
20169.7
20164.8
20159.6
20153.8
20147.7
20141
20133.9
20126.3
20118.3
20109.6
20100.5
20090.9
20080.7
20069.9
20058.6
20046.8
20034.4
20021.4
20007.8
19993.6
19978.9
19963.5
19947.6
19931.1
19914
19896.3
19878.1
19859.2
19839.8
19819.8
19799.2
19778.1
19756.4
19734.2
19711.4
19688.2
19664.4
19640.2
19615.5
19590.3
19564.7
19538.7
19512.2
19485.4
19458.2
19430.7
19402.8
19374.6
19346.2
19317.5
19288.5
19259.4
19230
19200.5
19170.9
19141.1
19111.3
19081.4
19051.5
19021.6
18991.8
18962
18932.2
18902.6
18873.1
18843.8
18814.7
18785.9
18757.2
18728.9
18700.9
18673.2
18646
18618.6
18592.1
18566.1
18540.6
18515.5
18491
18467
18443.6
18420.7
18398.6
18377
18356.2
18336
18316.5
18297.8
18279.8
18262.6
18246.2
18230.6
18215.8
18201.9
18188.8
18176.6
18165.3
18154.8
18145.3
18136.7
18128.9
18123.3
18115.3
18113.6
18106.1
18106.6
18102.2
18102
19738.4
19739
19738.3
19739.7
19738.6
19740.6
19739.4
19741.6
19740.7
19742.8
19742.3
19744.1
19744.1
19745.5
19746
19747
19747.8
19748.7
19749.5
19750.3
19751
19751.7
19752.3
19752.8
19753.2
19753.4
19753.5
19753.5
19753.3
19752.9
19752.4
19751.6
19750.5
19749.3
19747.7
19745.9
19743.7
19741.3
19738.5
19735.4
19731.9
19728
19723.8
19719.1
19714
19708.4
19702.4
19695.9
19689
19681.5
19673.6
19665.1
19656.1
19646.6
19636.5
19625.8
19614.6
19602.9
19590.5
19577.5
19564
19549.9
19535.1
19519.8
19503.9
19487.4
19470.2
19452.5
19434.1
19415.2
19395.7
19375.7
19355
19333.8
19312
19289.6
19266.7
19243.3
19219.4
19195
19170.1
19144.7
19118.8
19092.6
19065.9
19038.8
19011.3
18983.5
18955.4
18926.9
18898.2
18869.1
18839.9
18810.4
18780.7
18750.9
18720.9
18690.8
18660.7
18630.4
18600.2
18569.9
18539.7
18509.5
18479.4
18449.4
18419.6
18389.9
18360.4
18331.2
18302.2
18273.5
18245.2
18217.1
18189.3
18161.9
18135
18108.7
18082.8
18057.4
18032.5
18008.2
17984.5
17961.3
17938.9
17917
17895.9
17875.4
17855.7
17836.7
17818.5
17801
17784.4
17768.6
17753.6
17739.5
17726.2
17713.8
17702.3
17691.8
17682.1
17673.4
17665.5
17659.6
17651.8
17649.7
17642.5
17642.7
17638.4
17638.2
19286.2
19286.8
19286
19287.6
19286.4
19288.6
19287.4
19289.8
19288.8
19291.1
19290.7
19292.6
19292.8
19294.2
19294.9
19296.1
19297.1
19298.1
19299.1
19300
19301
19301.8
19302.6
19303.3
19303.9
19304.4
19304.7
19304.9
19304.9
19304.8
19304.5
19303.9
19303.1
19302
19300.7
19299.1
19297.2
19295
19292.5
19289.6
19286.3
19282.6
19278.6
19274.1
19269.2
19263.9
19258
19251.8
19245
19237.7
19229.9
19221.6
19212.7
19203.3
19193.4
19182.8
19171.7
19160
19147.7
19134.8
19121.4
19107.3
19092.6
19077.2
19061.3
19044.8
19027.6
19009.8
18991.4
18972.4
18952.8
18932.7
18911.9
18890.5
18868.6
18846.1
18823
18799.4
18775.3
18750.6
18725.5
18699.9
18673.8
18647.3
18620.3
18592.9
18565.2
18537
18508.5
18479.7
18450.6
18421.3
18391.7
18361.8
18331.8
18301.5
18271.2
18240.7
18210.1
18179.5
18148.8
18118.1
18087.5
18056.9
18026.4
17996
17965.7
17935.6
17905.7
17876.1
17846.7
17817.6
17788.8
17760.3
17732
17704.3
17677.1
17650.3
17624
17598.2
17573
17548.3
17524.2
17500.7
17477.9
17455.8
17434.3
17413.5
17393.5
17374.2
17355.7
17338
17321.1
17305
17289.8
17275.4
17261.9
17249.3
17237.7
17226.9
17217.1
17208.2
17200.3
17194.1
17186.4
17184
17177
17176.9
17172.7
17172.5
18833.8
18834.4
18833.6
18835.4
18834.1
18836.5
18835.2
18837.8
18836.8
18839.3
18838.9
18841
18841.3
18842.9
18843.8
18845.1
18846.3
18847.5
18848.7
18849.9
18851
18852.1
18853.1
18854
18854.9
18855.6
18856.2
18856.6
18856.9
18857
18856.9
18856.6
18856.1
18855.3
18854.3
18853
18851.3
18849.4
18847.1
18844.4
18841.4
18838
18834.2
18830
18825.3
18820.2
18814.6
18808.5
18801.9
18794.8
18787.2
18779.1
18770.4
18761.1
18751.3
18740.9
18729.9
18718.3
18706.1
18693.3
18679.9
18665.8
18651.1
18635.8
18619.9
18603.3
18586.1
18568.3
18549.8
18530.8
18511.1
18490.8
18469.9
18448.4
18426.3
18403.6
18380.3
18356.5
18332.1
18307.3
18281.9
18256
18229.6
18202.7
18175.5
18147.8
18119.7
18091.2
18062.3
18033.1
18003.7
17973.9
17943.8
17913.6
17883.1
17852.4
17821.6
17790.7
17759.7
17728.6
17697.4
17666.3
17635.2
17604.1
17573.1
17542.2
17511.5
17480.9
17450.6
17420.4
17390.6
17361
17331.7
17302.7
17274
17245.9
17218.2
17191
17164.2
17138
17112.4
17087.3
17062.8
17038.9
17015.7
16993.2
16971.3
16950.2
16929.8
16910.2
16891.4
16873.3
16856.1
16839.8
16824.3
16809.7
16796
16783.1
16771.3
16760.3
16750.3
16741.3
16733.2
16726.8
16719.2
16716.4
16709.6
16709.3
16705.2
16704.8
18381.3
18381.8
18381
18382.9
18381.5
18384.2
18382.8
18385.7
18384.7
18387.4
18387.1
18389.3
18389.8
18391.6
18392.7
18394.1
18395.5
18396.9
18398.4
18399.8
18401.1
18402.5
18403.7
18404.9
18406
18407
18407.9
18408.7
18409.2
18409.6
18409.9
18409.9
18409.6
18409.1
18408.4
18407.4
18406
18404.4
18402.4
18400
18397.3
18394.2
18390.6
18386.7
18382.3
18377.4
18372
18366.2
18359.9
18353
18345.6
18337.6
18329.1
18320
18310.4
18300.1
18289.2
18277.7
18265.6
18252.9
18239.6
18225.6
18210.9
18195.6
18179.7
18163.1
18145.9
18128
18109.5
18090.3
18070.5
18050.1
18029
18007.3
17985
17962.2
17938.7
17914.6
17890
17864.9
17839.2
17813
17786.3
17759.1
17731.4
17703.4
17674.9
17646
17616.7
17587.1
17557.2
17527
17496.5
17465.7
17434.8
17403.6
17372.3
17340.9
17309.4
17277.7
17246.1
17214.4
17182.8
17151.2
17119.6
17088.2
17057
17025.9
16995
16964.3
16933.9
16903.8
16873.9
16844.4
16815.3
16786.6
16758.4
16730.7
16703.5
16676.8
16650.7
16625.1
16600.2
16575.9
16552.2
16529.3
16507
16485.5
16464.7
16444.7
16425.5
16407.1
16389.6
16372.9
16357.1
16342.2
16328.2
16315.2
16303.1
16291.9
16281.7
16272.5
16264.3
16257.5
16250.1
16246.9
16240.3
16239.7
16235.7
16235.3
17928.4
17929.1
17928.2
17930.3
17928.8
17931.8
17930.2
17933.4
17932.3
17935.3
17935
17937.5
17938.2
17940.1
17941.4
17943.1
17944.7
17946.4
17948
17949.7
17951.3
17953
17954.5
17956
17957.4
17958.7
17959.9
17961
17961.9
17962.6
17963.2
17963.5
17963.6
17963.4
17963
17962.3
17961.3
17960
17958.3
17956.3
17953.9
17951.1
17947.9
17944.2
17940.1
17935.5
17930.4
17924.9
17918.8
17912.1
17905
17897.2
17888.9
17880
17870.5
17860.4
17849.7
17838.4
17826.4
17813.7
17800.5
17786.5
17771.9
17756.7
17740.7
17724.1
17706.8
17688.9
17670.3
17651
17631.1
17610.6
17589.3
17567.5
17545
17521.9
17498.1
17473.8
17448.9
17423.5
17397.4
17370.9
17343.8
17316.3
17288.3
17259.8
17230.8
17201.5
17171.8
17141.7
17111.3
17080.6
17049.6
17018.3
16986.8
16955.1
16923.3
16891.3
16859.2
16827
16794.8
16762.5
16730.3
16698.1
16666
16634
16602.1
16570.4
16538.9
16507.6
16476.6
16445.9
16415.5
16385.3
16355.7
16326.5
16297.8
16269.5
16241.7
16214.5
16187.9
16161.8
16136.3
16111.5
16087.4
16064
16041.3
16019.3
15998.1
15977.7
15958.1
15939.4
15921.4
15904.4
15888.3
15873.1
15858.8
15845.4
15833
15821.6
15811.2
15801.8
15793.4
15786.3
15779
15775.4
15769
15768.1
15764.2
15763.7
17475.3
17476
17475
17477.4
17475.7
17479.1
17477.3
17481
17479.7
17483.1
17482.9
17485.6
17486.4
17488.5
17490.1
17492
17493.9
17495.8
17497.7
17499.7
17501.6
17503.5
17505.4
17507.2
17509
17510.6
17512.2
17513.6
17514.9
17516
17516.9
17517.6
17518
17518.3
17518.2
17517.9
17517.3
17516.3
17515
17513.3
17511.3
17508.8
17505.9
17502.6
17498.8
17494.5
17489.8
17484.5
17478.7
17472.3
17465.4
17457.9
17449.9
17441.2
17431.9
17422
17411.4
17400.2
17388.3
17375.8
17362.6
17348.7
17334.2
17318.9
17303
17286.4
17269.1
17251.1
17232.4
17213.1
17193
17172.3
17150.9
17128.8
17106.1
17082.7
17058.7
17034.1
17008.9
16983.1
16956.7
16929.8
16902.4
16874.4
16845.9
16817
16787.6
16757.8
16727.6
16697
16666
16634.7
16603.2
16571.3
16539.2
16507
16474.5
16441.9
16409.1
16376.3
16343.5
16310.6
16277.7
16244.8
16212.1
16179.4
16146.9
16114.5
16082.4
16050.5
16018.9
15987.5
15956.3
15925.6
15895.3
15865.5
15836.2
15807.3
15778.9
15751.1
15723.9
15697.3
15671.3
15646
15621.3
15597.4
15574.1
15551.7
15530
15509.2
15489.1
15469.9
15451.6
15434.2
15417.7
15402.1
15387.5
15373.8
15361.1
15349.4
15338.8
15329.1
15320.5
15313.2
15305.9
15302
15295.6
15294.5
15290.7
15290.1
17021.9
17022.7
17021.6
17024.3
17022.3
17026.2
17024.1
17028.3
17026.9
17030.6
17030.5
17033.4
17034.5
17036.8
17038.7
17040.8
17043
17045.2
17047.4
17049.7
17052
17054.2
17056.4
17058.6
17060.7
17062.8
17064.7
17066.5
17068.1
17069.6
17071
17072.1
17072.9
17073.6
17074
17074
17073.8
17073.3
17072.4
17071.1
17069.4
17067.3
17064.8
17061.9
17058.5
17054.5
17050.1
17045.2
17039.7
17033.6
17027
17019.8
17011.9
17003.5
16994.4
16984.7
16974.3
16963.3
16951.6
16939.1
16926.1
16912.3
16897.8
16882.6
16866.6
16850
16832.7
16814.6
16795.8
16776.3
16756.1
16735.2
16713.6
16691.4
16668.4
16644.8
16620.5
16595.6
16570
16543.9
16517.1
16489.8
16461.9
16433.4
16404.5
16375.1
16345.2
16314.8
16284
16252.9
16221.3
16189.4
16157.2
16124.8
16092.1
16059.1
16026
15992.7
15959.3
15925.8
15892.2
15858.6
15825
15791.4
15758
15724.6
15691.4
15658.3
15625.4
15592.8
15560.5
15528.6
15496.3
15465
15434.1
15403.7
15373.6
15344.1
15315.1
15286.7
15258.8
15231.6
15205
15179.1
15153.8
15129.3
15105.6
15082.6
15060.4
15039
15018.5
14998.8
14980.1
14962.2
14945.3
14929.3
14914.3
14900.3
14887.3
14875.3
14864.4
14854.5
14845.7
14838.1
14830.7
14826.5
14820.3
14818.8
14815.1
14814.4
16568.2
16569.2
16567.8
16571
16568.5
16573.1
16570.5
16575.4
16573.7
16578
16577.8
16581.1
16582.4
16584.9
16587.1
16589.5
16592
16594.5
16597.1
16599.7
16602.3
16604.9
16607.5
16610.1
16612.6
16615.1
16617.4
16619.7
16621.7
16623.7
16625.4
16627
16628.3
16629.4
16630.2
16630.8
16631
16630.9
16630.4
16629.6
16628.3
16626.7
16624.6
16622
16619
16615.5
16611.4
16606.8
16601.7
16596
16589.7
16582.7
16575.2
16567
16558.2
16548.7
16538.5
16527.6
16516.1
16503.8
16490.8
16477.1
16462.7
16447.5
16431.6
16415
16397.6
16379.4
16360.6
16341
16320.6
16299.6
16277.7
16255.2
16232
16208.1
16183.5
16158.2
16132.3
16105.7
16078.5
16050.8
16022.4
15993.5
15964
15934
15903.6
15872.6
15841.2
15809.5
15777.3
15744.7
15711.9
15678.7
15645.3
15611.6
15577.8
15543.7
15509.6
15475.3
15441
15406.6
15372.2
15337.9
15303.6
15269.5
15235.5
15201.6
15168
15134.6
15101.5
15068.6
15036
15003.8
14972.2
14940.9
14910.2
14879.9
14850.2
14821.1
14792.6
14764.6
14737.4
14710.8
14685
14659.8
14635.5
14611.9
14589.2
14567.3
14546.2
14526.1
14506.8
14488.5
14471.1
14454.7
14439.3
14424.9
14411.6
14399.3
14388
14377.8
14368.8
14360.8
14353.5
14348.9
14342.7
14341
14337.3
14336.6
16114.2
16115.2
16113.5
16117.4
16114.2
16119.8
16116.5
16122.3
16120.2
16125.1
16124.9
16128.5
16130
16132.8
16135.3
16138
16140.8
16143.7
16146.6
16149.6
16152.7
16155.7
16158.7
16161.7
16164.7
16167.6
16170.4
16173.1
16175.6
16178.1
16180.3
16182.3
16184.2
16185.7
16187.1
16188.1
16188.8
16189.2
16189.2
16188.8
16188.1
16186.9
16185.2
16183.1
16180.5
16177.4
16173.8
16169.6
16164.8
16159.5
16153.5
16146.9
16139.7
16131.8
16123.2
16113.9
16104
16093.3
16081.9
16069.8
16057
16043.4
16029
16013.9
15998
15981.3
15963.9
15945.7
15926.8
15907
15886.5
15865.2
15843.2
15820.4
15796.9
15772.7
15747.7
15722.1
15695.7
15668.8
15641.1
15612.9
15584
15554.5
15524.5
15493.9
15462.9
15431.3
15399.2
15366.8
15333.9
15300.7
15267.1
15233.1
15199
15164.5
15129.9
15095
15060.1
15025
14989.8
14954.6
14919.4
14884.2
14849.1
14814.1
14779.3
14744.6
14710.1
14675.9
14641.9
14608.1
14574.7
14541.8
14509.3
14477.3
14445.8
14414.7
14384.3
14354.4
14325.1
14296.5
14268.5
14241.2
14214.7
14188.9
14163.9
14139.7
14116.4
14093.9
14072.3
14051.5
14031.8
14012.9
13995.1
13978.2
13962.4
13947.6
13933.8
13921.1
13909.6
13899.1
13889.7
13881.5
13874.1
13869.1
13863
13861
13857.3
13856.6
15659.6
15660.9
15658.7
15663.6
15659.4
15666.4
15661.8
15669.1
15666
15672.1
15671.5
15675.7
15677.4
15680.5
15683.4
15686.4
15689.5
15692.8
15696.1
15699.5
15703
15706.5
15709.9
15713.4
15716.9
15720.2
15723.5
15726.7
15729.8
15732.8
15735.5
15738.1
15740.5
15742.6
15744.4
15746
15747.2
15748.1
15748.7
15748.8
15748.6
15747.9
15746.8
15745.1
15743
15740.4
15737.2
15733.4
15729.1
15724.1
15718.5
15712.3
15705.4
15697.8
15689.5
15680.5
15670.8
15660.4
15649.2
15637.3
15624.5
15611
15596.7
15581.7
15565.8
15549.1
15531.7
15513.4
15494.4
15474.6
15453.8
15432.3
15410
15387
15363.2
15338.6
15313.3
15287.2
15260.5
15233
15204.9
15176.1
15146.7
15116.7
15086
15054.8
15023.1
14990.8
14958.1
14924.9
14891.2
14857.2
14822.8
14788.1
14753.1
14717.8
14682.3
14646.6
14610.8
14574.8
14538.7
14502.6
14466.5
14430.4
14394.4
14358.5
14322.7
14287.1
14251.7
14216.6
14181.8
14146.9
14112.7
14079
14045.6
14012.7
13980.3
13948.5
13917.2
13886.5
13856.4
13827
13798.3
13770.2
13743
13716.5
13690.8
13665.9
13641.9
13618.8
13596.6
13575.3
13554.9
13535.5
13517.1
13499.8
13483.5
13468.2
13454
13440.9
13429
13418.2
13408.5
13400
13392.5
13387.1
13381
13378.7
13375.1
13374.2
15204.5
15206
15203.6
15209.2
15204.1
15212.6
15206.4
15215.8
15211.1
15219.1
15217.7
15222.7
15224.5
15227.9
15231.1
15234.5
15238.1
15241.7
15245.5
15249.3
15253.3
15257.2
15261.2
15265.2
15269.1
15273
15276.9
15280.7
15284.3
15287.8
15291.1
15294.3
15297.2
15299.9
15302.3
15304.5
15306.3
15307.8
15308.9
15309.6
15309.9
15309.8
15309.2
15308.1
15306.5
15304.4
15301.6
15298.3
15294.4
15289.9
15284.7
15278.9
15272.4
15265.2
15257.2
15248.5
15239.1
15228.9
15217.9
15206.1
15193.6
15180.2
15166
15151
15135.1
15118.5
15101
15082.7
15063.5
15043.6
15022.7
15000.9
14978.4
14955
14930.9
14905.9
14880.2
14853.8
14826.5
14798.6
14769.9
14740.6
14710.6
14679.9
14648.6
14616.7
14584.3
14551.3
14517.8
14483.8
14449.3
14414.5
14379.2
14343.6
14307.7
14271.5
14235.1
14198.5
14161.7
14124.7
14087.7
14050.6
14013.5
13976.5
13939.5
13902.6
13865.8
13829.2
13792.9
13756.7
13720.9
13685.2
13650
13615.3
13581
13547.2
13513.9
13481.1
13449
13417.4
13386.5
13356.2
13326.7
13297.8
13269.8
13242.5
13216.1
13190.5
13165.8
13142
13119.1
13097.1
13076.2
13056.2
13037.3
13019.4
13002.5
12986.8
12972.1
12958.6
12946.2
12935
12925
12916.2
12908.5
12902.7
12896.7
12894.1
12890.5
12889.5
14749
14750.7
14748.2
14753.8
14749
14757.4
14751.6
14761.5
14755.9
14766
14762.9
14769.6
14771.2
14774.9
14778.5
14782.4
14786.3
14790.5
14794.7
14799
14803.4
14807.9
14812.4
14817
14821.5
14826
14830.4
14834.8
14839
14843.1
14847.1
14850.9
14854.4
14857.8
14860.8
14863.6
14866
14868.2
14869.9
14871.2
14872.1
14872.6
14872.6
14872.1
14871
14869.4
14867.2
14864.4
14861
14857
14852.3
14846.8
14840.7
14833.9
14826.3
14817.9
14808.8
14798.9
14788.1
14776.5
14764.1
14750.9
14736.8
14721.9
14706.1
14689.4
14671.8
14653.4
14634.2
14614.1
14593
14571
14548.2
14524.5
14500.1
14474.7
14448.6
14421.7
14394
14365.5
14336.3
14306.3
14275.7
14244.3
14212.3
14179.7
14146.5
14112.7
14078.4
14043.5
14008.2
13972.5
13936.3
13899.8
13862.9
13825.7
13788.3
13750.6
13712.8
13674.9
13636.8
13598.7
13560.5
13522.4
13484.4
13446.4
13408.6
13370.9
13333.5
13296.3
13259.3
13222.7
13186.5
13150.8
13115.5
13080.7
13046.4
13012.7
12979.6
12947.1
12915.2
12884.1
12853.6
12824
12795.1
12767
12739.7
12713.4
12687.9
12663.4
12639.8
12617.1
12595.5
12574.9
12555.4
12536.9
12519.5
12503.2
12488.1
12474.1
12461.2
12449.6
12439.2
12430.1
12422.2
12416
12409.9
12407
12403.4
12402.3
14293
14294.6
14292.4
14297.8
14293.3
14301.7
14296.4
14306.1
14301.5
14311.1
14308.5
14316.4
14317
14321.6
14325.7
14329.9
14334.4
14339
14343.7
14348.6
14353.5
14358.6
14363.6
14368.8
14373.9
14379
14384.1
14389.1
14394
14398.8
14403.4
14407.9
14412.1
14416.1
14419.8
14423.3
14426.4
14429.2
14431.6
14433.6
14435.2
14436.3
14436.9
14437
14436.6
14435.5
14433.9
14431.7
14428.8
14425.3
14421.1
14416.1
14410.5
14404
14396.8
14388.8
14380
14370.4
14359.9
14348.5
14336.3
14323.2
14309.3
14294.4
14278.6
14261.9
14244.3
14225.8
14206.4
14186
14164.8
14142.6
14119.6
14095.6
14070.8
14045.1
14018.5
13991.1
13962.9
13933.8
13904
13873.4
13842.1
13810
13777.3
13743.9
13709.8
13675.2
13639.9
13604.2
13567.9
13531.2
13494.1
13456.5
13418.6
13380.4
13341.9
13303.2
13264.2
13225.2
13186
13146.7
13107.5
13068.2
13029
12989.9
12951
12912.2
12873.7
12835.4
12797.2
12759.5
12722.2
12685.4
12649.1
12613.2
12577.9
12543.1
12509
12475.5
12442.7
12410.5
12379.2
12348.6
12318.8
12289.8
12261.7
12234.6
12208.3
12182.9
12158.6
12135.2
12112.9
12091.6
12071.4
12052.3
12034.3
12017.5
12001.8
11987.3
11974
11961.9
11951.1
11941.5
11933.3
11926.7
11920.6
11917.4
11913.7
11912.6
13836.3
13837.9
13836.1
13841.1
13837.2
13844.8
13841.2
13849.4
13847.4
13854.6
13854.9
13860.7
13863.4
13868
13872.4
13877.2
13882.1
13887.2
13892.5
13897.9
13903.4
13909.1
13914.8
13920.6
13926.4
13932.1
13937.9
13943.6
13949.2
13954.7
13960
13965.2
13970.2
13974.9
13979.4
13983.6
13987.5
13991
13994.1
13996.8
13999.1
14000.9
14002.2
14003
14003.2
14002.8
14001.8
14000.2
13997.9
13994.9
13991.3
13986.8
13981.6
13975.6
13968.8
13961.2
13952.8
13943.5
13933.3
13922.2
13910.2
13897.3
13883.4
13868.6
13852.9
13836.2
13818.6
13800
13780.3
13759.7
13738.4
13716
13692.7
13668.4
13643.2
13617.1
13590
13562.1
13533.3
13503.7
13473.2
13441.9
13409.8
13377
13343.4
13309.2
13274.3
13238.7
13202.5
13165.8
13128.5
13090.8
13052.6
13013.9
12974.9
12935.6
12895.9
12856
12815.9
12775.7
12735.3
12694.9
12654.4
12613.9
12573.5
12533.2
12493
12453.1
12413.3
12373.9
12334.3
12295.5
12257.1
12219.1
12181.6
12144.7
12108.2
12072.4
12037.2
12002.6
11968.7
11935.6
11903.2
11871.7
11840.9
11811
11782
11754
11726.8
11700.7
11675.5
11651.4
11628.3
11606.3
11585.4
11565.6
11547
11529.5
11513.2
11498.1
11484.3
11471.7
11460.4
11450.5
11441.9
11434.9
11428.6
11425.1
11421.4
11420.1
13379
13380.5
13379.4
13383.1
13381.5
13386.9
13385.9
13391.9
13392.3
13397.9
13400.1
13405.1
13409
13413.8
13418.8
13424
13429.4
13435
13441
13447
13453.2
13459.5
13465.9
13472.3
13478.8
13485.3
13491.8
13498.3
13504.6
13510.9
13517
13523
13528.7
13534.3
13539.5
13544.5
13549.2
13553.5
13557.4
13560.9
13563.9
13566.5
13568.5
13570
13570.9
13571.3
13571
13570
13568.3
13565.9
13562.8
13558.9
13554.3
13548.8
13542.4
13535.3
13527.2
13518.2
13508.3
13497.5
13485.8
13473.1
13459.4
13444.7
13429
13412.3
13394.7
13376
13356.3
13335.5
13313.9
13291.3
13267.6
13243
13217.4
13190.8
13163.2
13134.8
13105.4
13075.1
13043.9
13011.9
12979
12945.4
12911
12875.8
12839.9
12803.4
12766.2
12728.4
12690.1
12651.2
12611.8
12572
12531.8
12491.3
12450.4
12409.3
12367.9
12326.4
12284.7
12243
12201.2
12159.5
12117.8
12076.1
12034.7
11993.4
11952.4
11911.7
11870.9
11830.8
11791.2
11752
11713.2
11675.1
11637.4
11600.4
11564.1
11528.4
11493.4
11459.2
11425.7
11393.1
11361.4
11330.5
11300.6
11271.5
11243.5
11216.5
11190.5
11165.5
11141.6
11118.9
11097.2
11076.8
11057.4
11039.3
11022.3
11006.6
10992.2
10979
10967.2
10956.8
10947.8
10940.3
10933.9
10930
10926.2
10924.8
12921
12922.3
12921.8
12924.8
12924.4
12928.9
12929.2
12934.3
12936
12941.1
12944.4
12949.3
12954
12959.2
12964.6
12970.4
12976.4
12982.6
12989.1
12995.8
13002.6
13009.7
13016.8
13024
13031.2
13038.5
13045.8
13053.1
13060.2
13067.3
13074.3
13081.1
13087.7
13094.1
13100.2
13106.1
13111.6
13116.7
13121.5
13125.8
13129.6
13133
13135.8
13138.1
13139.8
13140.9
13141.3
13141
13140.1
13138.4
13135.9
13132.6
13128.5
13123.5
13117.7
13111
13103.3
13094.7
13085.2
13074.7
13063.2
13050.7
13037.2
13022.6
13007
12990.4
12972.7
12953.9
12934.1
12913.2
12891.4
12868.5
12844.5
12819.4
12793.4
12766.3
12738.2
12709.1
12679.1
12648.1
12616.2
12583.4
12549.7
12515.2
12479.9
12443.7
12406.9
12369.3
12331
12292.1
12252.6
12212.5
12172
12130.9
12089.5
12047.6
12005.4
11963
11920.3
11877.4
11834.3
11791.2
11748.1
11704.9
11661.8
11618.8
11576
11533.3
11490.9
11448.8
11406.8
11365.4
11324.4
11283.8
11243.8
11204.4
11165.5
11127.2
11089.6
11052.8
11016.6
10981.2
10946.7
10913
10880.1
10848.2
10817.3
10787.3
10758.3
10730.3
10703.4
10677.5
10652.8
10629.3
10606.9
10585.6
10565.6
10546.7
10529.1
10512.7
10497.6
10483.8
10471.4
10460.4
10450.9
10442.9
10436.2
10431.9
10427.9
10426.4
12462.1
12463.3
12463.2
12465.9
12466.3
12470.3
12471.5
12476.2
12478.8
12483.8
12487.8
12493
12498.3
12503.9
12509.9
12516.3
12522.9
12529.8
12536.9
12544.3
12551.9
12559.6
12567.4
12575.5
12583.6
12591.7
12599.9
12608
12616
12624
12631.9
12639.6
12647.1
12654.4
12661.5
12668.2
12674.6
12680.7
12686.3
12691.5
12696.3
12700.5
12704.2
12707.4
12709.9
12711.8
12713
12713.5
12713.2
12712.2
12710.4
12707.8
12704.3
12699.9
12694.6
12688.4
12681.2
12673.1
12663.9
12653.7
12642.5
12630.2
12616.9
12602.5
12587
12570.4
12552.7
12533.9
12514
12492.9
12470.8
12447.6
12423.3
12397.8
12371.3
12343.7
12315.1
12285.4
12254.7
12222.9
12190.2
12156.6
12122
12086.6
12050.3
12013.1
11975.2
11936.4
11897
11856.9
11816.2
11774.9
11733
11690.6
11647.8
11604.5
11561
11517.1
11472.9
11428.6
11384.1
11339.5
11294.9
11250.2
11205.7
11161.2
11116.9
11072.8
11028.9
10985.3
10941.9
10899.1
10856.7
10814.7
10773.4
10732.5
10692.3
10652.8
10613.9
10575.7
10538.3
10501.7
10466
10431.1
10397.1
10364.1
10332.1
10301
10271.1
10242.1
10214.3
10187.5
10161.6
10137.5
10114.3
10092.3
10071.4
10051.8
10033.4
10016.3
10000.4
9985.9
9972.78
9961.11
9950.98
9942.46
9935.36
9930.56
9926.45
9924.78
12002.3
12003.5
12003.6
12006.2
12007.1
12010.9
12012.8
12017.5
12020.7
12025.8
12030.5
12036
12041.8
12048
12054.6
12061.6
12068.9
12076.5
12084.3
12092.4
12100.8
12109.3
12118
12126.8
12135.7
12144.9
12153.9
12163
12172
12180.9
12189.7
12198.4
12206.9
12215.2
12223.2
12231
12238.4
12245.4
12252
12258.2
12263.9
12269.1
12273.7
12277.8
12281.2
12283.9
12286
12287.3
12287.8
12287.6
12286.5
12284.6
12281.8
12278
12273.3
12267.6
12261
12253.3
12244.5
12234.7
12223.8
12211.8
12198.7
12184.5
12169.1
12152.5
12134.8
12116
12095.9
12074.7
12052.4
12028.8
12004.1
11978.3
11951.3
11923.1
11893.9
11863.5
11832.1
11799.6
11766.1
11731.6
11696
11659.6
11622.2
11584
11544.9
11505
11464.3
11422.9
11380.9
11338.2
11294.9
11251.1
11206.9
11162.1
11117.1
11071.6
11026
10980.1
10934
10887.9
10841.6
10795.4
10749.3
10703.2
10657.4
10611.7
10566.3
10521.2
10476.3
10431.9
10388
10344.6
10301.8
10259.5
10217.9
10176.9
10136.7
10097.2
10058.5
10020.6
9983.58
9947.47
9912.3
9878.12
9844.94
9812.82
9781.78
9751.85
9723.08
9695.52
9669.3
9643.72
9619.52
9596.6
9574.91
9554.46
9535.25
9517.3
9500.64
9485.31