/*--------------------------------*- C++ -*----------------------------------*\
| =========                 |                                                 |
| \\      /  F ield         | OpenFOAM: The Open Source CFD Toolbox           |
|  \\    /   O peration     | Version:  v2006                                 |
|   \\  /    A nd           | Website:  www.openfoam.com                      |
|    \\/     M anipulation  |                                                 |
\*---------------------------------------------------------------------------*/
FoamFile
{
    version     2.0;
    format      ascii;
    class       volVectorField;
    location    "2";
    object      U;
}
// * * * * * * * * * * * * * * * * * * * * * * * * * * * * * * * * * * * * * //

dimensions      [0 1 -1 0 0 0 0];


internalField   nonuniform List<vector> 
50000
(
(0.00813524 -0.000845729 0)
(-0.00697924 -0.0021236 0)
(0.0105123 -0.000905877 0)
(-0.00457193 -0.00200767 0)
(0.0116594 -0.000893138 0)
(-0.00153692 -0.00193509 0)
(0.012187 -0.000805451 0)
(0.00181185 -0.00190408 0)
(0.0123981 -0.00063865 0)
(0.0051368 -0.00186628 0)
(0.0125612 -0.000492218 0)
(0.00821322 -0.00171808 0)
(0.0128272 -0.000434581 0)
(0.0109022 -0.00143339 0)
(0.0132954 -0.000470298 0)
(0.0130617 -0.00106211 0)
(0.014069 -0.000534044 0)
(0.0145793 -0.000705703 0)
(0.0151581 -0.000507565 0)
(0.0156757 -0.000482285 0)
(0.0161651 -0.000392085 0)
(0.0166143 -0.000331174 0)
(0.0170435 -0.000266437 0)
(0.0174435 -0.00021396 0)
(0.0178087 -0.000165149 0)
(0.0181575 -0.000120179 0)
(0.0184867 -8.44698e-05 0)
(0.0187991 -5.26871e-05 0)
(0.0191026 -3.06175e-05 0)
(0.0193938 -1.51266e-05 0)
(0.0196889 -6.28897e-06 0)
(0.0199825 -9.1486e-06 0)
(0.0202833 -1.64993e-05 0)
(0.0205965 -3.58961e-05 0)
(0.020922 -6.10592e-05 0)
(0.0212703 -9.31502e-05 0)
(0.0216404 -0.000130955 0)
(0.0220362 -0.000173682 0)
(0.0224582 -0.000218295 0)
(0.0229064 -0.000263013 0)
(0.0233806 -0.00030721 0)
(0.0238794 -0.000349828 0)
(0.0244013 -0.000390075 0)
(0.0249437 -0.000426997 0)
(0.0255038 -0.000459996 0)
(0.0260779 -0.000488591 0)
(0.0266633 -0.000512483 0)
(0.0272571 -0.00053367 0)
(0.0278555 -0.000548506 0)
(0.0284547 -0.000559121 0)
(0.0290515 -0.000565301 0)
(0.0296426 -0.00056702 0)
(0.0302246 -0.000564367 0)
(0.0307942 -0.000558112 0)
(0.0313485 -0.000547021 0)
(0.031884 -0.000531829 0)
(0.0323976 -0.00051257 0)
(0.0328864 -0.00048922 0)
(0.0333474 -0.000461909 0)
(0.0337776 -0.000430684 0)
(0.0341741 -0.000395649 0)
(0.0345338 -0.000356807 0)
(0.0348581 -0.000314076 0)
(0.0351372 -0.000270497 0)
(0.0353739 -0.000221219 0)
(0.0355638 -0.000170782 0)
(0.0357012 -0.000115734 0)
(0.0357919 -5.85379e-05 0)
(0.0358271 6.54083e-06 0)
(0.0358145 7.05729e-05 0)
(0.0357465 0.00013101 0)
(0.035619 0.000194293 0)
(0.0354393 0.000260258 0)
(0.0351996 0.000331203 0)
(0.0348937 0.000410045 0)
(0.03452 0.000499064 0)
(0.0340769 0.000599901 0)
(0.0335561 0.000704427 0)
(0.0329558 0.000815697 0)
(0.0322781 0.000932701 0)
(0.031523 0.00105011 0)
(0.0306849 0.001168 0)
(0.0297654 0.00128783 0)
(0.0287768 0.00140791 0)
(0.0277032 0.0015248 0)
(0.0265481 0.00164042 0)
(0.025341 0.00175298 0)
(0.024053 0.00185306 0)
(0.0226891 0.00195593 0)
(0.0212813 0.00204948 0)
(0.0198131 0.00213153 0)
(0.0182937 0.00220427 0)
(0.0167387 0.00226211 0)
(0.0151452 0.00230969 0)
(0.0135272 0.00233474 0)
(0.0118965 0.00233773 0)
(0.0102608 0.00232016 0)
(0.00863666 0.00228157 0)
(0.00703745 0.0022203 0)
(0.0054647 0.00213726 0)
(0.00392982 0.00204075 0)
(0.00244854 0.00193257 0)
(0.00101993 0.00181843 0)
(-0.00035271 0.00170428 0)
(-0.00166759 0.00159307 0)
(-0.00292642 0.00148614 0)
(-0.00413263 0.00138626 0)
(-0.00528766 0.0012883 0)
(-0.00638991 0.0011924 0)
(-0.00743797 0.00109783 0)
(-0.00843043 0.00100201 0)
(-0.00937106 0.000911746 0)
(-0.0102585 0.000813541 0)
(-0.0110868 0.000715145 0)
(-0.0118544 0.000614854 0)
(-0.0125633 0.000520487 0)
(-0.013212 0.000418265 0)
(-0.0137958 0.000317792 0)
(-0.014315 0.000217799 0)
(-0.0147686 0.000117109 0)
(-0.0151557 1.61008e-05 0)
(-0.0154751 -8.4977e-05 0)
(-0.0157267 -0.000182876 0)
(-0.0159107 -0.0002838 0)
(-0.0160268 -0.000383548 0)
(-0.0160745 -0.000479063 0)
(-0.016053 -0.000576386 0)
(-0.0159638 -0.00067482 0)
(-0.0158109 -0.000771612 0)
(-0.0155964 -0.000864981 0)
(-0.0153163 -0.000957094 0)
(-0.0149695 -0.00104867 0)
(-0.0145642 -0.00113899 0)
(-0.0141002 -0.00122301 0)
(-0.0135678 -0.00130435 0)
(-0.0129839 -0.00138273 0)
(-0.0123566 -0.00144979 0)
(-0.0116622 -0.00151079 0)
(-0.0109366 -0.00156813 0)
(-0.0101731 -0.00161214 0)
(-0.00935102 -0.00167701 0)
(-0.00853098 -0.00181468 0)
(-0.00801188 -0.00145728 0)
(-0.00531521 -0.00238279 0)
(-0.00805985 -0.00123802 0)
(-0.000839449 -0.00258977 0)
(-0.00840807 -0.00169893 0)
(0.00380122 -0.00269449 0)
(-0.00732943 -0.0013125 0)
(0.00723899 -0.00134752 0)
(0.00936343 -0.000491015 0)
(-0.0098474 -0.00203103 0)
(0.00864718 -0.000935662 0)
(-0.00947093 -0.00155314 0)
(0.00712933 -0.000889889 0)
(-0.00878841 -0.00155479 0)
(0.00548121 -0.000806153 0)
(-0.00780947 -0.00158063 0)
(0.00375211 -0.000702208 0)
(-0.00656632 -0.00159529 0)
(0.00204133 -0.000644004 0)
(-0.00517211 -0.00153277 0)
(0.000534021 -0.000674343 0)
(-0.00379981 -0.00137541 0)
(-0.000559384 -0.000785059 0)
(-0.00259188 -0.00115959 0)
(-0.00106004 -0.000914839 0)
(-0.00163947 -0.00097902 0)
(-0.000942542 -0.000943738 0)
(-0.000855057 -0.000920691 0)
(-0.000404307 -0.000899186 0)
(-5.35551e-05 -0.000874726 0)
(0.000392457 -0.00085477 0)
(0.000857431 -0.000837784 0)
(0.00136018 -0.000823836 0)
(0.00189319 -0.000809369 0)
(0.00245347 -0.000803029 0)
(0.00303728 -0.000796007 0)
(0.00363919 -0.000796343 0)
(0.00425703 -0.00079796 0)
(0.00488678 -0.000803893 0)
(0.00552293 -0.000816306 0)
(0.00616199 -0.000829737 0)
(0.00679653 -0.000850595 0)
(0.0074261 -0.000872282 0)
(0.00804428 -0.000897882 0)
(0.00864482 -0.000924677 0)
(0.0092282 -0.000952016 0)
(0.00979309 -0.000978737 0)
(0.0103354 -0.00100323 0)
(0.0108541 -0.00102606 0)
(0.0113486 -0.00104619 0)
(0.0118183 -0.00106339 0)
(0.012263 -0.00107645 0)
(0.0126831 -0.0010852 0)
(0.0130792 -0.00108951 0)
(0.0134492 -0.0010889 0)
(0.0137991 -0.00108578 0)
(0.0141286 -0.00107612 0)
(0.014433 -0.00106207 0)
(0.0147167 -0.00104336 0)
(0.0149796 -0.00102004 0)
(0.0152213 -0.000992147 0)
(0.0154442 -0.000959761 0)
(0.015649 -0.000923008 0)
(0.0158342 -0.000881919 0)
(0.0160017 -0.000836621 0)
(0.0161518 -0.000787184 0)
(0.0162853 -0.000733738 0)
(0.0164029 -0.000676377 0)
(0.0165054 -0.0006152 0)
(0.0165933 -0.000550394 0)
(0.0166675 -0.000481925 0)
(0.016728 -0.000412429 0)
(0.0167788 -0.000336726 0)
(0.0168165 -0.0002622 0)
(0.0168417 -0.000182173 0)
(0.0168664 -0.000101269 0)
(0.016875 -1.49643e-05 0)
(0.0168647 7.10715e-05 0)
(0.0168486 0.000155858 0)
(0.0168247 0.000244279 0)
(0.0167955 0.000333573 0)
(0.0167621 0.000424525 0)
(0.0167285 0.000516001 0)
(0.0167033 0.000610472 0)
(0.0166825 0.000711963 0)
(0.0166681 0.000808557 0)
(0.0166733 0.000907721 0)
(0.0166906 0.00100715 0)
(0.0167227 0.00110421 0)
(0.0167745 0.00120171 0)
(0.0168456 0.00129555 0)
(0.0169413 0.00138716 0)
(0.0170491 0.00147135 0)
(0.0171727 0.00155592 0)
(0.0173224 0.00163771 0)
(0.0174891 0.00170325 0)
(0.0176697 0.00178099 0)
(0.0178666 0.00184331 0)
(0.0180762 0.00190033 0)
(0.0182946 0.00195135 0)
(0.0185303 0.00199441 0)
(0.0187581 0.00202908 0)
(0.01897 0.00205616 0)
(0.0191779 0.00207453 0)
(0.019367 0.00208163 0)
(0.0195255 0.00208952 0)
(0.0196448 0.00207879 0)
(0.0197169 0.00206206 0)
(0.0197338 0.00203961 0)
(0.0196925 0.00201231 0)
(0.0195903 0.00198003 0)
(0.0194278 0.00194658 0)
(0.0192089 0.00191189 0)
(0.0189427 0.00187738 0)
(0.0186278 0.00184061 0)
(0.0182673 0.0018022 0)
(0.017875 0.00176152 0)
(0.017452 0.00171747 0)
(0.0170127 0.00166965 0)
(0.0165397 0.00161795 0)
(0.0160367 0.00156184 0)
(0.0155266 0.00150079 0)
(0.0150121 0.00143446 0)
(0.0144739 0.00136627 0)
(0.0139162 0.0012901 0)
(0.0133621 0.00121847 0)
(0.012798 0.00113606 0)
(0.0122286 0.00105468 0)
(0.0116582 0.000970397 0)
(0.0110933 0.000884859 0)
(0.0105262 0.000798157 0)
(0.0099598 0.000709365 0)
(0.00940941 0.000618915 0)
(0.00886318 0.000527797 0)
(0.00832021 0.000435037 0)
(0.00779314 0.000341003 0)
(0.00728282 0.00024575 0)
(0.00678327 0.000152697 0)
(0.0062973 6.12994e-05 0)
(0.0058319 -3.15381e-05 0)
(0.0053841 -0.000120216 0)
(0.00494536 -0.000200792 0)
(0.00452917 -0.000282282 0)
(0.00414262 -0.000367878 0)
(0.00375832 -0.000439681 0)
(0.00340504 -0.000509786 0)
(0.00308532 -0.000587557 0)
(0.00274487 -0.000635998 0)
(0.00237422 -0.000711464 0)
(0.00261817 -0.000781282 0)
(0.00077796 -0.000667226 0)
(0.00387187 -0.00113859 0)
(-0.00219474 -0.000555357 0)
(0.00581545 -0.00125297 0)
(-0.00540874 -0.000829381 0)
(0.00711834 -0.00177616 0)
(-0.00717693 -0.0020721 0)
(0.0103715 0.000760733 0)
(0.0090578 -0.000117023 0)
(-0.0090304 -0.00142705 0)
(0.00928796 -0.00104581 0)
(-0.00801871 -0.000502856 0)
(0.00853425 -0.00109443 0)
(-0.00668467 -0.000535822 0)
(0.00754798 -0.00118354 0)
(-0.00502527 -0.000552652 0)
(0.00639297 -0.00128508 0)
(-0.00313279 -0.000572303 0)
(0.00520795 -0.00138537 0)
(-0.00116237 -0.000631199 0)
(0.00419052 -0.00144798 0)
(0.00069085 -0.000758738 0)
(0.00355127 -0.00144853 0)
(0.00224245 -0.000951763 0)
(0.00344501 -0.00141205 0)
(0.00340129 -0.00118049 0)
(0.00389758 -0.00138544 0)
(0.00426197 -0.00136014 0)
(0.00467096 -0.00143195 0)
(0.00509004 -0.00146322 0)
(0.00553223 -0.00150755 0)
(0.00598932 -0.00154554 0)
(0.00645975 -0.00158119 0)
(0.00694848 -0.00161566 0)
(0.00744989 -0.00164572 0)
(0.00796485 -0.00167431 0)
(0.00849099 -0.00170003 0)
(0.00902631 -0.00172185 0)
(0.00957068 -0.00174118 0)
(0.0101209 -0.00175706 0)
(0.0106752 -0.00177008 0)
(0.0112318 -0.00177944 0)
(0.0117883 -0.00178437 0)
(0.0123438 -0.00178616 0)
(0.012896 -0.0017838 0)
(0.0134431 -0.00177647 0)
(0.0139846 -0.00176613 0)
(0.0145179 -0.00175243 0)
(0.015042 -0.00173492 0)
(0.0155569 -0.00171364 0)
(0.0160622 -0.00169073 0)
(0.0165574 -0.00166364 0)
(0.0170409 -0.00163369 0)
(0.0175127 -0.00160128 0)
(0.0179694 -0.00156696 0)
(0.0184161 -0.0015259 0)
(0.0188521 -0.00148352 0)
(0.0192713 -0.00143833 0)
(0.0196765 -0.00138945 0)
(0.0200666 -0.00133755 0)
(0.0204413 -0.00128255 0)
(0.0207998 -0.00122375 0)
(0.0211418 -0.0011625 0)
(0.0214667 -0.00109822 0)
(0.0217739 -0.00103091 0)
(0.0220631 -0.000960832 0)
(0.022334 -0.000888066 0)
(0.0225862 -0.000812736 0)
(0.0228191 -0.000735082 0)
(0.0230323 -0.000655257 0)
(0.0232261 -0.000573289 0)
(0.0234 -0.000489569 0)
(0.0235524 -0.000404031 0)
(0.0236828 -0.000319258 0)
(0.0237913 -0.00023227 0)
(0.0238827 -0.000145122 0)
(0.023948 -6.19862e-05 0)
(0.0239878 2.76554e-05 0)
(0.0240083 0.000119063 0)
(0.0240029 0.000212884 0)
(0.0239731 0.000309345 0)
(0.0239155 0.000404848 0)
(0.0238312 0.000499266 0)
(0.0237321 0.000592381 0)
(0.0236029 0.000681183 0)
(0.0234441 0.000770817 0)
(0.0232694 0.000858245 0)
(0.023068 0.000941089 0)
(0.0228462 0.00102394 0)
(0.0225957 0.00110808 0)
(0.0223153 0.00118693 0)
(0.0220143 0.00126254 0)
(0.021683 0.00133432 0)
(0.0213253 0.00140655 0)
(0.0209378 0.00147536 0)
(0.0205315 0.00154205 0)
(0.0200883 0.00160507 0)
(0.019611 0.00166426 0)
(0.019115 0.00172972 0)
(0.0185881 0.00178376 0)
(0.0180398 0.001837 0)
(0.0174641 0.001883 0)
(0.016866 0.00193238 0)
(0.0162438 0.00198534 0)
(0.0156134 0.00203446 0)
(0.0149576 0.0020839 0)
(0.0142808 0.00213418 0)
(0.0136027 0.00218193 0)
(0.0129108 0.00223386 0)
(0.0122145 0.0022775 0)
(0.0115144 0.00231641 0)
(0.0108152 0.00234739 0)
(0.0101196 0.00236707 0)
(0.00942783 0.00238561 0)
(0.00873976 0.00238086 0)
(0.00805943 0.0023717 0)
(0.00738782 0.00235166 0)
(0.00672767 0.00232296 0)
(0.00608187 0.00228891 0)
(0.00544575 0.00223769 0)
(0.00481954 0.0021935 0)
(0.00420894 0.00213762 0)
(0.00362039 0.00207708 0)
(0.00304306 0.00200147 0)
(0.00249034 0.00192809 0)
(0.00195333 0.00184765 0)
(0.00143114 0.00176018 0)
(0.000941547 0.00166789 0)
(0.000472888 0.00157121 0)
(3.29914e-05 0.00146996 0)
(-0.000381251 0.00136152 0)
(-0.000768707 0.00125299 0)
(-0.00112586 0.0011406 0)
(-0.00145319 0.00102236 0)
(-0.0017492 0.00090398 0)
(-0.00201271 0.000784949 0)
(-0.00224208 0.000664152 0)
(-0.00243802 0.000541645 0)
(-0.00260236 0.000419438 0)
(-0.00272771 0.000297393 0)
(-0.002818 0.000178262 0)
(-0.00288263 5.88796e-05 0)
(-0.00291022 -6.01908e-05 0)
(-0.00290131 -0.000175402 0)
(-0.00287195 -0.000288131 0)
(-0.00279846 -0.000400284 0)
(-0.00269837 -0.000504083 0)
(-0.00259174 -0.000608363 0)
(-0.00240221 -0.000706671 0)
(-0.00212214 -0.000681717 0)
(-0.0027797 -0.00114091 0)
(-4.49085e-05 -0.000498699 0)
(-0.00455346 -0.00143823 0)
(0.00294128 -0.000402232 0)
(-0.00660866 -0.0014969 0)
(0.00568571 -0.00166701 0)
(-0.00702658 -0.00415885 0)
(0.00923582 0.00242633 0)
(0.00866377 -0.000419066 0)
(-0.00855021 -0.00255123 0)
(0.00943597 -0.00164148 0)
(-0.00729795 -0.00130131 0)
(0.00914113 -0.00167138 0)
(-0.0055874 -0.0013309 0)
(0.00846908 -0.00175094 0)
(-0.00355093 -0.00136508 0)
(0.00758381 -0.00181031 0)
(-0.00136403 -0.00143195 0)
(0.00667996 -0.00185776 0)
(0.000797558 -0.00152701 0)
(0.00594022 -0.00189349 0)
(0.00276829 -0.001645 0)
(0.00552501 -0.00191613 0)
(0.00439822 -0.0017767 0)
(0.00555361 -0.00192682 0)
(0.00561244 -0.0019052 0)
(0.00608561 -0.00195176 0)
(0.00647023 -0.00198534 0)
(0.00687591 -0.00202287 0)
(0.00728418 -0.00205992 0)
(0.00770219 -0.0020946 0)
(0.00813615 -0.00213133 0)
(0.00857556 -0.00216601 0)
(0.00902506 -0.00220069 0)
(0.00948403 -0.00223381 0)
(0.00994826 -0.00226512 0)
(0.0104226 -0.00229477 0)
(0.0109033 -0.00232244 0)
(0.0113904 -0.00234777 0)
(0.011884 -0.00237101 0)
(0.0123834 -0.00239175 0)
(0.0128883 -0.00240976 0)
(0.0133987 -0.00242449 0)
(0.0139126 -0.0024358 0)
(0.0144298 -0.00244391 0)
(0.014949 -0.00244906 0)
(0.0154694 -0.00244916 0)
(0.0159907 -0.00244683 0)
(0.0165114 -0.00243882 0)
(0.0170272 -0.00242653 0)
(0.0175405 -0.00240974 0)
(0.0180513 -0.002387 0)
(0.0185543 -0.00236008 0)
(0.019049 -0.00232682 0)
(0.019539 -0.00228892 0)
(0.0200219 -0.00224323 0)
(0.0204911 -0.00219325 0)
(0.0209491 -0.00213732 0)
(0.021395 -0.00207545 0)
(0.0218263 -0.002008 0)
(0.0222426 -0.00193502 0)
(0.0226428 -0.00185643 0)
(0.0230256 -0.00177235 0)
(0.02339 -0.00168304 0)
(0.0237349 -0.00158861 0)
(0.024059 -0.00148913 0)
(0.0243616 -0.0013848 0)
(0.0246416 -0.0012758 0)
(0.024898 -0.00116235 0)
(0.0251303 -0.00104467 0)
(0.0253372 -0.000923099 0)
(0.0255175 -0.000798355 0)
(0.0256705 -0.000668265 0)
(0.0257956 -0.000537125 0)
(0.0258923 -0.000402528 0)
(0.0259615 -0.000265044 0)
(0.0260037 -0.000128001 0)
(0.0260147 1.49705e-05 0)
(0.0259937 0.000158365 0)
(0.0259452 0.000303123 0)
(0.0258649 0.00044985 0)
(0.025751 0.000594862 0)
(0.0256076 0.000742611 0)
(0.0254343 0.000891978 0)
(0.0252294 0.00103769 0)
(0.0249916 0.00119112 0)
(0.024721 0.00134359 0)
(0.0244197 0.00149544 0)
(0.0240947 0.00164885 0)
(0.0237349 0.00180288 0)
(0.0233408 0.00195576 0)
(0.022926 0.00210701 0)
(0.0224817 0.00225841 0)
(0.022008 0.00240713 0)
(0.0215126 0.00255115 0)
(0.0209912 0.00269696 0)
(0.0204405 0.00282706 0)
(0.0198816 0.00295921 0)
(0.0192896 0.00309082 0)
(0.0186649 0.00320694 0)
(0.0180361 0.00331518 0)
(0.0173836 0.00341326 0)
(0.0167156 0.00350014 0)
(0.0160276 0.00358399 0)
(0.0153199 0.00364844 0)
(0.0146027 0.00369217 0)
(0.0138685 0.00373247 0)
(0.0131295 0.00375423 0)
(0.0123756 0.00377545 0)
(0.0116075 0.00377511 0)
(0.0108398 0.00376855 0)
(0.0100634 0.00375173 0)
(0.00929643 0.00372757 0)
(0.00851618 0.00369748 0)
(0.00772722 0.00365587 0)
(0.0069499 0.00361613 0)
(0.00617154 0.0035592 0)
(0.00540492 0.003496 0)
(0.00464392 0.00342413 0)
(0.00389945 0.00334048 0)
(0.00316539 0.00325265 0)
(0.00244115 0.0031521 0)
(0.00174057 0.00304757 0)
(0.00105918 0.00292904 0)
(0.00040294 0.00280821 0)
(-0.000228833 0.00267033 0)
(-0.00083394 0.00253227 0)
(-0.00140725 0.00238429 0)
(-0.00194809 0.00223034 0)
(-0.00245431 0.00207034 0)
(-0.00292391 0.00190354 0)
(-0.00335587 0.00173182 0)
(-0.00374793 0.0015556 0)
(-0.00409922 0.00137542 0)
(-0.00440892 0.0011924 0)
(-0.00467432 0.00100555 0)
(-0.00489431 0.000818631 0)
(-0.00507091 0.000628753 0)
(-0.00520332 0.000438987 0)
(-0.0052861 0.000250963 0)
(-0.00532313 6.20907e-05 0)
(-0.00532157 -0.000123875 0)
(-0.00526999 -0.000305363 0)
(-0.00517018 -0.000480447 0)
(-0.00503905 -0.000649193 0)
(-0.00485385 -0.000812198 0)
(-0.0046341 -0.000966157 0)
(-0.00439113 -0.00111073 0)
(-0.00405846 -0.00124457 0)
(-0.00374972 -0.00136066 0)
(-0.00398569 -0.00157966 0)
(-0.00145592 -0.00140359 0)
(-0.00536552 -0.00188756 0)
(0.0018893 -0.00134634 0)
(-0.00705097 -0.00221118 0)
(0.0052662 -0.00307864 0)
(-0.00707179 -0.00586544 0)
(0.00867805 0.00310728 0)
(0.00865804 -0.000280404 0)
(-0.00852217 -0.00306301 0)
(0.0094803 -0.00193784 0)
(-0.00720091 -0.00137441 0)
(0.00915204 -0.00199978 0)
(-0.00547384 -0.00137931 0)
(0.00845712 -0.00211308 0)
(-0.00343056 -0.00142263 0)
(0.00755072 -0.00219046 0)
(-0.00124098 -0.0015325 0)
(0.00662267 -0.00224462 0)
(0.000918039 -0.00170007 0)
(0.00586101 -0.00227768 0)
(0.00287493 -0.00191651 0)
(0.00543856 -0.00229952 0)
(0.00448683 -0.00215218 0)
(0.00549006 -0.00233848 0)
(0.00565641 -0.00235583 0)
(0.00608046 -0.00242949 0)
(0.00646959 -0.00249047 0)
(0.00687018 -0.00255303 0)
(0.00728136 -0.00261585 0)
(0.00770203 -0.00267439 0)
(0.0081287 -0.00273142 0)
(0.00856403 -0.00278681 0)
(0.00901002 -0.00283884 0)
(0.0094656 -0.00289158 0)
(0.00992994 -0.00293757 0)
(0.0104023 -0.00298297 0)
(0.0108826 -0.00302302 0)
(0.0113713 -0.00306071 0)
(0.0118664 -0.00309271 0)
(0.0123681 -0.00312161 0)
(0.0128763 -0.00314509 0)
(0.0133897 -0.00316429 0)
(0.0139078 -0.00317842 0)
(0.0144285 -0.00318721 0)
(0.0149538 -0.00319069 0)
(0.0154803 -0.0031883 0)
(0.0160066 -0.00318058 0)
(0.0165332 -0.00316679 0)
(0.017056 -0.00314818 0)
(0.0175783 -0.00312279 0)
(0.0180961 -0.00308942 0)
(0.0186082 -0.00304965 0)
(0.019114 -0.00300275 0)
(0.019611 -0.00294711 0)
(0.020101 -0.00288707 0)
(0.0205806 -0.00282075 0)
(0.0210479 -0.00274636 0)
(0.0215022 -0.00266484 0)
(0.0219417 -0.00257626 0)
(0.022366 -0.00248027 0)
(0.0227739 -0.00237749 0)
(0.0231638 -0.00226805 0)
(0.0235345 -0.0021522 0)
(0.0238851 -0.00202992 0)
(0.0242145 -0.0019015 0)
(0.0245216 -0.00176718 0)
(0.0248056 -0.00162725 0)
(0.0250652 -0.00148188 0)
(0.0252994 -0.00133128 0)
(0.0255074 -0.00117608 0)
(0.0256918 -0.00101635 0)
(0.0258456 -0.000852265 0)
(0.0259684 -0.000684326 0)
(0.0260653 -0.000510075 0)
(0.0261329 -0.000334476 0)
(0.0261719 -0.000156616 0)
(0.02618 2.37429e-05 0)
(0.0261564 0.000208707 0)
(0.0261034 0.000392718 0)
(0.0260164 0.000576678 0)
(0.0258969 0.000762141 0)
(0.025749 0.000948306 0)
(0.0255703 0.00113411 0)
(0.0253624 0.00131848 0)
(0.0251215 0.00150704 0)
(0.0248469 0.00168871 0)
(0.024544 0.00186999 0)
(0.0242187 0.0020496 0)
(0.0238586 0.00222561 0)
(0.0234646 0.00239829 0)
(0.0230523 0.00256655 0)
(0.0226104 0.00273513 0)
(0.0221389 0.00289309 0)
(0.0216487 0.00304584 0)
(0.0211306 0.00319951 0)
(0.0205832 0.00333934 0)
(0.0200307 0.00347564 0)
(0.019444 0.00360022 0)
(0.0188252 0.00372278 0)
(0.0182014 0.00383792 0)
(0.0175541 0.00394378 0)
(0.0169021 0.00404294 0)
(0.016221 0.00414272 0)
(0.0155119 0.00422723 0)
(0.0148021 0.00430493 0)
(0.0140741 0.00437518 0)
(0.0133461 0.00443751 0)
(0.0125949 0.00449781 0)
(0.0118246 0.00454189 0)
(0.011058 0.00457682 0)
(0.0102822 0.00459992 0)
(0.00950796 0.00461164 0)
(0.00872433 0.00460744 0)
(0.0079485 0.00459286 0)
(0.00716678 0.00456477 0)
(0.00637766 0.00452333 0)
(0.00560775 0.00446896 0)
(0.00484151 0.00440216 0)
(0.00408911 0.00432125 0)
(0.0033441 0.00422823 0)
(0.00261466 0.00412079 0)
(0.00190624 0.00400104 0)
(0.00121319 0.00386982 0)
(0.000543371 0.00372426 0)
(-0.000103879 0.00356561 0)
(-0.000721702 0.0033968 0)
(-0.00130941 0.00321663 0)
(-0.00186482 0.00302602 0)
(-0.00238584 0.00282548 0)
(-0.00287217 0.00261533 0)
(-0.00332057 0.00239682 0)
(-0.00372883 0.00217077 0)
(-0.00409608 0.0019377 0)
(-0.00442262 0.00169783 0)
(-0.00470311 0.00145495 0)
(-0.00493821 0.0012078 0)
(-0.00512933 0.000959782 0)
(-0.00527252 0.000710039 0)
(-0.00536901 0.000460629 0)
(-0.00541877 0.000213008 0)
(-0.00542367 -3.13092e-05 0)
(-0.00537688 -0.000271474 0)
(-0.0052821 -0.000506338 0)
(-0.00515475 -0.000734454 0)
(-0.00497181 -0.000953958 0)
(-0.00475143 -0.00116342 0)
(-0.00450582 -0.00135982 0)
(-0.0041718 -0.00154628 0)
(-0.00388972 -0.00172293 0)
(-0.00399802 -0.00190895 0)
(-0.00165505 -0.00190031 0)
(-0.00535306 -0.00226171 0)
(0.00169955 -0.00184886 0)
(-0.00704351 -0.00279363 0)
(0.00505033 -0.00403735 0)
(-0.00706911 -0.00753462 0)
(0.00866841 0.00409083 0)
(0.00865576 -0.000461214 0)
(-0.00851007 -0.00395133 0)
(0.00937734 -0.00248017 0)
(-0.00723193 -0.00192962 0)
(0.00901622 -0.00255013 0)
(-0.00552092 -0.00195217 0)
(0.00829068 -0.0026763 0)
(-0.0034843 -0.00200576 0)
(0.00735378 -0.00274865 0)
(-0.0012962 -0.00212681 0)
(0.00639781 -0.0027894 0)
(0.000857008 -0.00230053 0)
(0.0056167 -0.0028083 0)
(0.00279489 -0.00251199 0)
(0.00519273 -0.00282036 0)
(0.00436328 -0.00273074 0)
(0.00526635 -0.00286788 0)
(0.0054796 -0.00291229 0)
(0.00588262 -0.00298183 0)
(0.00627515 -0.00305145 0)
(0.00667079 -0.00311908 0)
(0.00707741 -0.00318847 0)
(0.0074966 -0.0032589 0)
(0.00792841 -0.00332867 0)
(0.00836905 -0.00339395 0)
(0.00881704 -0.00345946 0)
(0.00927966 -0.00352199 0)
(0.00975035 -0.00358129 0)
(0.0102299 -0.00363813 0)
(0.010719 -0.00369029 0)
(0.0112155 -0.00373746 0)
(0.01172 -0.00378159 0)
(0.0122304 -0.00381936 0)
(0.0127486 -0.00385274 0)
(0.0132721 -0.00388029 0)
(0.0138008 -0.00390162 0)
(0.0143332 -0.00391592 0)
(0.0148683 -0.00392289 0)
(0.0154047 -0.00392403 0)
(0.0159423 -0.00391753 0)
(0.0164785 -0.00390325 0)
(0.0170105 -0.00388028 0)
(0.0175442 -0.0038487 0)
(0.0180747 -0.00380966 0)
(0.018596 -0.00376232 0)
(0.0191121 -0.00370658 0)
(0.0196196 -0.00363931 0)
(0.0201164 -0.0035642 0)
(0.0206044 -0.00348263 0)
(0.0210821 -0.00339094 0)
(0.0215461 -0.0032912 0)
(0.0219957 -0.00318294 0)
(0.0224297 -0.00306548 0)
(0.0228463 -0.00293939 0)
(0.0232447 -0.00280484 0)
(0.0236242 -0.00266187 0)
(0.0239837 -0.00251154 0)
(0.0243214 -0.0023527 0)
(0.0246367 -0.00218653 0)
(0.0249285 -0.00201333 0)
(0.025196 -0.00183335 0)
(0.025438 -0.00164681 0)
(0.0256537 -0.00145402 0)
(0.0258423 -0.00125534 0)
(0.0260027 -0.00105356 0)
(0.026138 -0.000844693 0)
(0.0262415 -0.000631525 0)
(0.026312 -0.000414401 0)
(0.0263573 -0.000194401 0)
(0.026375 2.83218e-05 0)
(0.0263563 0.000253808 0)
(0.0263042 0.000480887 0)
(0.0262242 0.000708368 0)
(0.0261124 0.000938759 0)
(0.0259695 0.00116982 0)
(0.0257951 0.00140108 0)
(0.0255968 0.0016342 0)
(0.0253596 0.00186337 0)
(0.025085 0.00209202 0)
(0.0247885 0.00231994 0)
(0.0244656 0.00254746 0)
(0.0241072 0.00276739 0)
(0.0237149 0.00298783 0)
(0.0233082 0.00320482 0)
(0.0228647 0.00341788 0)
(0.0223849 0.00362478 0)
(0.0218999 0.00382703 0)
(0.0213773 0.00402473 0)
(0.0208191 0.00421407 0)
(0.0202552 0.00439819 0)
(0.0196594 0.00456633 0)
(0.0190361 0.00473361 0)
(0.0183974 0.0048914 0)
(0.0177347 0.00503724 0)
(0.0170689 0.00517288 0)
(0.0163701 0.00529855 0)
(0.0156402 0.00541011 0)
(0.0149112 0.00550859 0)
(0.0141638 0.00559427 0)
(0.0134196 0.00566593 0)
(0.0126502 0.00572478 0)
(0.0118585 0.00576881 0)
(0.0110751 0.00579756 0)
(0.0102817 0.00581368 0)
(0.00949366 0.00581227 0)
(0.00869496 0.00580299 0)
(0.00789181 0.00577262 0)
(0.00709673 0.00571964 0)
(0.00630164 0.00566171 0)
(0.00551949 0.00558307 0)
(0.004741 0.00549754 0)
(0.00397885 0.00538835 0)
(0.00322581 0.00526257 0)
(0.00248123 0.00512582 0)
(0.00176308 0.0049677 0)
(0.0010599 0.00480518 0)
(0.00037805 0.00461743 0)
(-0.000275311 0.00441728 0)
(-0.000901413 0.00420442 0)
(-0.00149795 0.00397667 0)
(-0.00206198 0.00373701 0)
(-0.00259222 0.00348491 0)
(-0.0030856 0.00322018 0)
(-0.00354037 0.00294512 0)
(-0.00395524 0.00266047 0)
(-0.00433005 0.00236554 0)
(-0.00465946 0.00206426 0)
(-0.00494286 0.00175841 0)
(-0.00517955 0.00144625 0)
(-0.0053706 0.00113251 0)
(-0.00551696 0.000816133 0)
(-0.0056104 0.000499945 0)
(-0.0056552 0.000186371 0)
(-0.0056584 -0.000123819 0)
(-0.00560969 -0.000428947 0)
(-0.00551058 -0.000727352 0)
(-0.00537537 -0.00101752 0)
(-0.005183 -0.00129654 0)
(-0.00495182 -0.00156315 0)
(-0.00469105 -0.00181551 0)
(-0.00434547 -0.00205333 0)
(-0.00406062 -0.00227998 0)
(-0.00406455 -0.00249522 0)
(-0.0018716 -0.00255003 0)
(-0.00534641 -0.00291446 0)
(0.00150542 -0.00250911 0)
(-0.00701621 -0.00359057 0)
(0.00489034 -0.00523293 0)
(-0.00698754 -0.00945988 0)
(0.00860705 0.00489613 0)
(0.00860052 -0.0004566 0)
(-0.008491 -0.00461613 0)
(0.00931175 -0.00284733 0)
(-0.00720717 -0.00220278 0)
(0.00889622 -0.00290574 0)
(-0.00550327 -0.00222447 0)
(0.00812532 -0.00304077 0)
(-0.00347544 -0.0022929 0)
(0.00715174 -0.00312087 0)
(-0.0012979 -0.0024485 0)
(0.0061693 -0.00317371 0)
(0.000840537 -0.00266715 0)
(0.00538061 -0.00321282 0)
(0.00275495 -0.00292806 0)
(0.00497095 -0.0032539 0)
(0.00428511 -0.00319351 0)
(0.00508474 -0.00333697 0)
(0.00534849 -0.00340901 0)
(0.0057351 -0.00349457 0)
(0.0061268 -0.00358367 0)
(0.00652817 -0.00367226 0)
(0.00693646 -0.00375862 0)
(0.00735809 -0.00384518 0)
(0.00779406 -0.00392889 0)
(0.00823821 -0.00401196 0)
(0.00869123 -0.00409105 0)
(0.00915886 -0.00416794 0)
(0.00963487 -0.0042417 0)
(0.0101209 -0.00431109 0)
(0.0106187 -0.00437616 0)
(0.0111227 -0.00443528 0)
(0.0116348 -0.00448981 0)
(0.0121554 -0.00453666 0)
(0.0126814 -0.00457815 0)
(0.0132149 -0.00461224 0)
(0.0137543 -0.00463921 0)
(0.0142975 -0.0046587 0)
(0.0148433 -0.00467007 0)
(0.0153902 -0.00467272 0)
(0.015939 -0.00466632 0)
(0.0164891 -0.0046506 0)
(0.0170362 -0.00462463 0)
(0.0175806 -0.00458822 0)
(0.0181199 -0.00454326 0)
(0.0186545 -0.00448952 0)
(0.0191869 -0.00442255 0)
(0.0197095 -0.0043455 0)
(0.0202179 -0.00425674 0)
(0.0207188 -0.00415812 0)
(0.0212096 -0.004048 0)
(0.0216849 -0.003928 0)
(0.0221471 -0.0037975 0)
(0.0225943 -0.0036576 0)
(0.023024 -0.00350775 0)
(0.0234356 -0.0033478 0)
(0.0238267 -0.00317793 0)
(0.0241979 -0.00299896 0)
(0.024548 -0.00281082 0)
(0.0248741 -0.00261388 0)
(0.0251765 -0.00240839 0)
(0.0254542 -0.00219444 0)
(0.0257062 -0.00197235 0)
(0.0259314 -0.00174293 0)
(0.026129 -0.00150661 0)
(0.0262982 -0.00126391 0)
(0.0264385 -0.0010146 0)
(0.0265488 -0.000762743 0)
(0.0266284 -0.00050391 0)
(0.0266781 -0.000240822 0)
(0.0266971 2.38605e-05 0)
(0.0266833 0.00028993 0)
(0.0266372 0.000560989 0)
(0.0265593 0.000833265 0)
(0.0264495 0.00110673 0)
(0.0263078 0.00138119 0)
(0.0261373 0.00165747 0)
(0.0259322 0.00193149 0)
(0.025691 0.002199 0)
(0.0254207 0.00247057 0)
(0.0251221 0.00273994 0)
(0.0247915 0.00300677 0)
(0.0244271 0.0032653 0)
(0.0240343 0.00352362 0)
(0.0236166 0.00377918 0)
(0.023165 0.00402173 0)
(0.0226823 0.00426415 0)
(0.0221826 0.00450103 0)
(0.0216493 0.00472205 0)
(0.0210851 0.00494202 0)
(0.0205049 0.00515332 0)
(0.0198959 0.00535002 0)
(0.0192634 0.00554042 0)
(0.0186103 0.00572166 0)
(0.0179327 0.00588933 0)
(0.0172529 0.00604584 0)
(0.0165388 0.00619044 0)
(0.0157928 0.00632211 0)
(0.015048 0.00644069 0)
(0.0142841 0.00654651 0)
(0.0135205 0.00663854 0)
(0.0127329 0.00670957 0)
(0.011923 0.00677231 0)
(0.0111201 0.00681756 0)
(0.0103052 0.00685047 0)
(0.00949867 0.00686334 0)
(0.00867822 0.00685565 0)
(0.00784565 0.00683449 0)
(0.00703001 0.00678993 0)
(0.00621013 0.00673871 0)
(0.00540737 0.00665878 0)
(0.00460476 0.00656066 0)
(0.00380314 0.00644589 0)
(0.00302692 0.00630206 0)
(0.00226005 0.00615011 0)
(0.00152357 0.00597223 0)
(0.000797292 0.00577592 0)
(8.33576e-05 0.00556115 0)
(-0.000590662 0.00532806 0)
(-0.0012387 0.00507652 0)
(-0.00185566 0.00480951 0)
(-0.00243716 0.00452422 0)
(-0.00298557 0.00422338 0)
(-0.00349675 0.00390911 0)
(-0.00396629 0.00358063 0)
(-0.00439621 0.00323886 0)
(-0.00478128 0.00288746 0)
(-0.00511847 0.0025282 0)
(-0.00541034 0.00215966 0)
(-0.00565348 0.0017841 0)
(-0.00584821 0.00140313 0)
(-0.0059935 0.00102009 0)
(-0.00608635 0.00063721 0)
(-0.00612911 0.000255596 0)
(-0.00612365 -0.000122668 0)
(-0.00606273 -0.000494282 0)
(-0.00595067 -0.000857491 0)
(-0.00579958 -0.00121115 0)
(-0.00558925 -0.00155164 0)
(-0.00533895 -0.00187707 0)
(-0.00505402 -0.00218641 0)
(-0.00468705 -0.00247755 0)
(-0.00438589 -0.00275499 0)
(-0.00427544 -0.00301245 0)
(-0.00223207 -0.00310599 0)
(-0.00543948 -0.00350935 0)
(0.00117894 -0.00307908 0)
(-0.00703335 -0.0043465 0)
(0.00465494 -0.00638798 0)
(-0.00687462 -0.0113981 0)
(0.00853587 0.0058443 0)
(0.00852654 -0.000501685 0)
(-0.00844166 -0.00532372 0)
(0.00921224 -0.00325964 0)
(-0.00716468 -0.00255079 0)
(0.0087582 -0.00331413 0)
(-0.00546365 -0.00258644 0)
(0.00795094 -0.00346807 0)
(-0.00343703 -0.00267008 0)
(0.00694368 -0.00355924 0)
(-0.00126295 -0.00284736 0)
(0.00594087 -0.00362025 0)
(0.000861479 -0.00309575 0)
(0.00514912 -0.00366654 0)
(0.00274427 -0.00339034 0)
(0.00476024 -0.00372199 0)
(0.00422246 -0.00368601 0)
(0.00492394 -0.00383139 0)
(0.00522408 -0.00392362 0)
(0.0056022 -0.004023 0)
(0.00599111 -0.00412413 0)
(0.00639142 -0.00422942 0)
(0.00680176 -0.00433194 0)
(0.00722544 -0.00443422 0)
(0.00766299 -0.00453486 0)
(0.00811115 -0.00463325 0)
(0.00856887 -0.00472965 0)
(0.00903989 -0.00482136 0)
(0.00952211 -0.00491 0)
(0.0100147 -0.0049933 0)
(0.010519 -0.00507154 0)
(0.0110312 -0.00514449 0)
(0.0115535 -0.00521013 0)
(0.0120828 -0.00526796 0)
(0.0126193 -0.00531901 0)
(0.0131635 -0.00536096 0)
(0.0137131 -0.00539489 0)
(0.0142675 -0.00542017 0)
(0.0148263 -0.00543567 0)
(0.0153877 -0.00544001 0)
(0.015951 -0.00543398 0)
(0.0165144 -0.00541745 0)
(0.0170751 -0.00538993 0)
(0.0176351 -0.00535077 0)
(0.0181896 -0.00529936 0)
(0.0187413 -0.00523513 0)
(0.0192897 -0.00516044 0)
(0.0198273 -0.00507225 0)
(0.0203539 -0.00497147 0)
(0.0208713 -0.00485546 0)
(0.0213784 -0.00472999 0)
(0.0218705 -0.00459128 0)
(0.0223474 -0.00443816 0)
(0.0228081 -0.00427356 0)
(0.0232523 -0.0040972 0)
(0.0236783 -0.00390959 0)
(0.0240841 -0.00371184 0)