/*--------------------------------*- C++ -*----------------------------------*\
| =========                 |                                                 |
| \\      /  F ield         | OpenFOAM: The Open Source CFD Toolbox           |
|  \\    /   O peration     | Version:  v2006                                 |
|   \\  /    A nd           | Website:  www.openfoam.com                      |
|    \\/     M anipulation  |                                                 |
\*---------------------------------------------------------------------------*/
FoamFile
{
    version     2.0;
    format      ascii;
    class       surfaceScalarField;
    location    "6.1";
    object      phi;
}
// * * * * * * * * * * * * * * * * * * * * * * * * * * * * * * * * * * * * * //

dimensions      [0 3 -1 0 0 0 0];
oriented        oriented;


internalField   nonuniform List<scalar> 
99450
(
-4.69547e-05
4.69547e-05
-7.95208e-05
3.25661e-05
-0.000116014
3.64934e-05
-0.000154002
3.79882e-05
-0.000192213
3.82104e-05
-0.000230081
3.78686e-05
-0.000267668
3.75865e-05
-0.000304904
3.72359e-05
-0.000341793
3.68897e-05
-0.000378248
3.6455e-05
-0.000414211
3.59621e-05
-0.000449636
3.54259e-05
-0.000484489
3.48523e-05
-0.000518705
3.42158e-05
-0.000552243
3.35386e-05
-0.000585076
3.28331e-05
-0.000617155
3.20788e-05
-0.000648452
3.12973e-05
-0.000678936
3.04834e-05
-0.000708556
2.96201e-05
-0.000737281
2.87249e-05
-0.000765102
2.78211e-05
-0.000791962
2.68601e-05
-0.000817833
2.58706e-05
-0.00084266
2.48275e-05
-0.00086642
2.37603e-05
-0.000889071
2.26509e-05
-0.000910589
2.15174e-05
-0.000930935
2.03463e-05
-0.000950061
1.91264e-05
-0.000967942
1.78804e-05
-0.000984562
1.66207e-05
-0.000999861
1.52986e-05
-0.00101381
1.39488e-05
-0.00102637
1.25558e-05
-0.00103749
1.11219e-05
-0.00104713
9.64148e-06
-0.00105526
8.13052e-06
-0.00106187
6.61311e-06
-0.00106692
5.04522e-06
-0.00107041
3.48884e-06
-0.00107235
1.94009e-06
-0.00107277
4.23726e-07
-0.00107181
-9.57936e-07
-0.00106952
-2.29554e-06
-0.0010659
-3.61561e-06
-0.00106085
-5.05513e-06
-0.00105419
-6.65702e-06
-0.00104574
-8.45241e-06
-0.00103539
-1.03459e-05
-0.00102305
-1.23362e-05
-0.0010088
-1.42529e-05
-0.000992748
-1.60538e-05
-0.000975007
-1.77415e-05
-0.000955633
-1.93741e-05
-0.000934761
-2.08713e-05
-0.000912396
-2.23657e-05
-0.000888596
-2.37996e-05
-0.000863414
-2.51822e-05
-0.000836918
-2.6496e-05
-0.000809148
-2.77698e-05
-0.000780169
-2.89793e-05
-0.000750052
-3.01163e-05
-0.000718848
-3.12042e-05
-0.000686622
-3.22259e-05
-0.000653441
-3.31814e-05
-0.000619376
-3.40643e-05
-0.000584488
-3.48885e-05
-0.000548857
-3.56311e-05
-0.000512552
-3.6305e-05
-0.000475641
-3.69105e-05
-0.000438234
-3.74077e-05
-0.000400361
-3.78725e-05
-0.000362137
-3.82247e-05
-0.000323603
-3.85341e-05
-0.000284848
-3.8755e-05
-0.000245953
-3.88943e-05
-0.000207016
-3.89373e-05
-0.00016813
-3.88863e-05
-0.000129395
-3.87344e-05
-9.09224e-05
-3.84729e-05
-5.282e-05
-3.81024e-05
-1.51965e-05
-3.76235e-05
2.18427e-05
-3.70392e-05
5.81926e-05
-3.63499e-05
9.37514e-05
-3.55589e-05
0.000128417
-3.4666e-05
0.00016209
-3.36728e-05
0.000194669
-3.2579e-05
0.000226054
-3.13843e-05
0.000256144
-3.00908e-05
0.000284841
-2.86965e-05
0.000312046
-2.72053e-05
0.000337664
-2.56175e-05
0.0003616
-2.39362e-05
0.000383758
-2.21583e-05
0.000404038
-2.02796e-05
0.000422334
-1.82963e-05
0.000438564
-1.623e-05
0.000452728
-1.41635e-05
0.000464962
-1.22344e-05
0.000475537
-1.05746e-05
0.000484776
-9.23967e-06
0.000492953
-8.17671e-06
0.000500222
-7.26901e-06
0.000506639
-6.41681e-06
0.000512198
-5.55907e-06
0.000516892
-4.69434e-06
0.000520703
-3.81032e-06
0.000523622
-2.91983e-06
0.000525661
-2.03856e-06
0.000526845
-1.18405e-06
0.000527219
-3.73848e-07
0.000526785
4.33599e-07
0.0005256
1.18512e-06
0.000523709
1.89103e-06
0.000521142
2.56687e-06
0.000517911
3.23088e-06
0.000514024
3.88701e-06
0.000509459
4.56483e-06
0.000504173
5.28688e-06
0.000498105
6.06749e-06
0.000491197
6.9083e-06
0.000483402
7.79472e-06
0.00047469
8.71197e-06
0.000465038
9.65231e-06
0.000454431
1.06064e-05
0.000442861
1.15705e-05
0.00043033
1.25304e-05
0.000416848
1.34829e-05
0.000402426
1.44219e-05
0.000387081
1.53445e-05
0.000370841
1.62403e-05
0.000353738
1.71031e-05
0.000335803
1.79347e-05
0.000317067
1.87358e-05
0.000297562
1.95055e-05
0.000277339
2.02234e-05
0.000256416
2.09229e-05
0.000234923
2.14927e-05
0.00021279
2.21327e-05
0.00019032
2.24705e-05
0.000167386
2.29336e-05
0.000144278
2.31075e-05
0.000120903
2.33753e-05
9.75473e-05
2.33558e-05
7.45101e-05
2.30373e-05
5.22604e-05
2.22496e-05
2.85165e-05
2.3744e-05
2.85165e-05
-5.37721e-05
0.000100727
-9.9106e-05
7.79e-05
-0.000146627
8.40141e-05
-0.000195857
8.72182e-05
-0.000245054
8.7408e-05
-0.000293521
8.63352e-05
-0.00034148
8.55453e-05
-0.000388792
8.45479e-05
-0.00043542
8.35175e-05
-0.000481319
8.23544e-05
-0.000526396
8.10389e-05
-0.000570577
7.96074e-05
-0.000613781
7.80562e-05
-0.000655943
7.63775e-05
-0.000696992
7.45881e-05
-0.000736844
7.26852e-05
-0.000775467
7.07014e-05
-0.000812768
6.8598e-05
-0.000848686
6.64017e-05
-0.000883184
6.41184e-05
-0.00091621
6.17508e-05
-0.000947687
5.92981e-05
-0.000977597
5.67695e-05
-0.00100588
5.41517e-05
-0.00103253
5.14784e-05
-0.0010575
4.87328e-05
-0.00108076
4.59067e-05
-0.00110225
4.30118e-05
-0.00112197
4.0062e-05
-0.0011399
3.70614e-05
-0.00115602
3.39964e-05
-0.00117028
3.08808e-05
-0.00118268
2.76986e-05
-0.00119321
2.44851e-05
-0.0012019
2.1244e-05
-0.00120872
1.79359e-05
-0.00121367
1.45989e-05
-0.00121678
1.12328e-05
-0.00121802
7.85383e-06
-0.00121742
4.44919e-06
-0.00121499
1.05687e-06
-0.00121064
-2.40588e-06
-0.00120442
-5.79779e-06
-0.0011962
-9.18122e-06
-0.00118598
-1.25112e-05
-0.00117379
-1.58057e-05
-0.00115978
-1.90631e-05
-0.00114417
-2.22691e-05
-0.0011272
-2.54263e-05
-0.00110898
-2.85626e-05
-0.00108969
-3.16314e-05
-0.0010693
-3.4643e-05
-0.00104775
-3.75953e-05
-0.00102504
-4.04587e-05
-0.00100122
-4.31963e-05
-0.000976207
-4.58801e-05
-0.00095011
-4.84625e-05
-0.000922959
-5.09509e-05
-0.000894811
-5.33299e-05
-0.000865701
-5.56064e-05
-0.000835682
-5.77886e-05
-0.0008048
-5.98615e-05
-0.000773102
-6.18138e-05
-0.000740645
-6.36613e-05
-0.000707476
-6.5395e-05
-0.000673623
-6.70341e-05
-0.000639155
-6.85323e-05
-0.000604143
-6.99004e-05
-0.000568602
-7.11727e-05
-0.000532597
-7.23094e-05
-0.000496188
-7.33201e-05
-0.000459396
-7.41993e-05
-0.000422309
-7.49595e-05
-0.000384945
-7.55888e-05
-0.000347376
-7.61031e-05
-0.000309644
-7.64868e-05
-0.000271793
-7.67455e-05
-0.000233849
-7.68812e-05
-0.000195855
-7.68801e-05
-0.000157842
-7.67473e-05
-0.000119841
-7.64737e-05
-8.18878e-05
-7.60561e-05
-4.40228e-05
-7.54885e-05
-6.29088e-06
-7.47711e-05
3.1266e-05
-7.39067e-05
6.85976e-05
-7.28905e-05
0.000105657
-7.1725e-05
0.000142395
-7.04111e-05
0.000178765
-6.8949e-05
0.000214724
-6.73434e-05
0.000250228
-6.55953e-05
0.000285237
-6.37054e-05
0.000319712
-6.16798e-05
0.000353618
-5.95236e-05
0.000386922
-5.72405e-05
0.000419604
-5.48405e-05
0.000451659
-5.23338e-05
0.000483096
-4.97337e-05
0.000513936
-4.70703e-05
0.000544176
-4.4403e-05
0.000573749
-4.18077e-05
0.000602526
-3.9351e-05
0.000630346
-3.70598e-05
0.000657067
-3.48984e-05
0.000682594
-3.27952e-05
0.000706866
-3.06895e-05
0.000729859
-2.85518e-05
0.000751522
-2.63573e-05
0.000771803
-2.40914e-05
0.00079065
-2.17664e-05
0.000808003
-1.93924e-05
0.000823794
-1.69751e-05
0.000837938
-1.45171e-05
0.000850377
-1.20059e-05
0.000861004
-9.442e-06
0.000869712
-6.8162e-06
0.000876388
-4.10903e-06
0.000880912
-1.294e-06
0.000883304
1.49539e-06
0.000883426
4.4426e-06
0.000881223
7.48988e-06
0.000876686
1.06051e-05
0.000869826
1.37676e-05
0.000860666
1.69549e-05
0.000849228
2.01497e-05
0.00083554
2.33405e-05
0.00081963
2.65168e-05
0.00080153
2.96703e-05
0.000781277
3.27836e-05
0.000758927
3.58323e-05
0.000734547
3.88022e-05
0.000708211
4.16809e-05
0.000679989
4.44618e-05
0.000649952
4.71405e-05
0.000618177
4.97089e-05
0.00058475
5.21634e-05
0.000549768
5.4487e-05
0.000513316
5.66756e-05
0.00047552
5.87186e-05
0.000436429
6.05846e-05
0.000396221
6.23406e-05
0.000354882
6.3809e-05
0.000312525
6.52908e-05
0.000269264
6.63685e-05
0.000225024
6.76155e-05
0.000179837
6.85429e-05
0.000133552
6.93225e-05
8.82769e-05
6.75244e-05
4.85099e-05
6.3511e-05
7.70264e-05
-5.20893e-05
0.000152816
-9.3884e-05
0.000119695
-0.000137954
0.000128084
-0.000184376
0.00013364
-0.00023078
0.000133811
-0.00027665
0.000132206
-0.0003219
0.000130795
-0.000366606
0.000129253
-0.000410677
0.000127589
-0.000454071
0.000125748
-0.000496722
0.00012369
-0.000538554
0.000121439
-0.000579505
0.000119007
-0.000619538
0.00011641
-0.000658541
0.000113592
-0.000696496
0.000110639
-0.000733302
0.000107508
-0.000768923
0.00010422
-0.000803314
0.000100792
-0.000836407
9.72112e-05
-0.000868172
9.35161e-05
-0.000898537
8.96631e-05
-0.00092747
8.57026e-05
-0.000954944
8.16262e-05
-0.000980904
7.74381e-05
-0.0010053
7.31314e-05
-0.00102813
6.87372e-05
-0.00104935
6.4232e-05
-0.00106895
5.9659e-05
-0.00108689
5.50044e-05
-0.00110318
5.02807e-05
-0.00111778
4.54875e-05
-0.00113071
4.06287e-05
-0.00114195
3.57242e-05
-0.0011515
3.07855e-05
-0.00115935
2.57921e-05
-0.00116553
2.0777e-05
-0.00117004
1.57439e-05
-0.00117289
1.0701e-05
-0.00117408
5.64237e-06
-0.00117359
5.6454e-07
-0.00117157
-4.42934e-06
-0.00116789
-9.47216e-06
-0.00116259
-1.44811e-05
-0.00115564
-1.94576e-05
-0.00114708
-2.43673e-05
-0.00113693
-2.92135e-05
-0.00112523
-3.39695e-05
-0.00111205
-3.86093e-05
-0.00109746
-4.31519e-05
-0.00108146
-4.76311e-05
-0.00106407
-5.20372e-05
-0.0010453
-5.63654e-05
-0.00102516
-6.05908e-05
-0.00100367
-6.46906e-05
-0.000980845
-6.87045e-05
-0.000956763
-7.2544e-05
-0.000931455
-7.62591e-05
-0.000904964
-7.98216e-05
-0.000877337
-8.32333e-05
-0.000848637
-8.64878e-05
-0.000818915
-8.95843e-05
-0.000788209
-9.25196e-05
-0.000756584
-9.52857e-05
-0.000724063
-9.79166e-05
-0.000690754
-0.000100343
-0.000656687
-0.000102599
-0.000621919
-0.000104669
-0.000586494
-0.000106598
-0.000550488
-0.000108315
-0.000513944
-0.000109864
-0.000476925
-0.000111218
-0.000439484
-0.000112401
-0.000401676
-0.000113396
-0.000363578
-0.000114201
-0.000325233
-0.000114832
-0.000286714
-0.000115265
-0.000248066
-0.000115529
-0.000209343
-0.000115603
-0.000170599
-0.000115492
-0.000131891
-0.000115182
-9.32574e-05
-0.00011469
-5.47431e-05
-0.000114003
-1.64063e-05
-0.000113108
2.17033e-05
-0.000112016
5.95372e-05
-0.000110724
9.70401e-05
-0.000109228
0.00013416
-0.000107531
0.000170853
-0.000105642
0.00020706
-0.00010355
0.000242732
-0.000101267
0.000277824
-9.87971e-05
0.000312289
-9.6145e-05
0.000346083
-9.33176e-05
0.000379168
-9.03251e-05
0.000411498
-8.71712e-05
0.000443049
-8.3884e-05
0.000473792
-8.04772e-05
0.00050371
-7.69884e-05
0.000532765
-7.3458e-05
0.000560874
-6.99167e-05
0.000587908
-6.63851e-05
0.000613707
-6.2859e-05
0.000638139
-5.93303e-05
0.000661092
-5.57481e-05
0.000682516
-5.21137e-05
0.000702373
-4.84086e-05
0.000720643
-4.46276e-05
0.00073732
-4.07679e-05
0.000752386
-3.68325e-05
0.000765822
-3.28287e-05
0.000777608
-2.87607e-05
0.000787723
-2.46319e-05
0.000796158
-2.04412e-05
0.0008029
-1.61842e-05
0.000807933
-1.18494e-05
0.000811254
-7.4295e-06
0.000812893
-2.93359e-06
0.00081264
1.74918e-06
0.000810601
6.48082e-06
0.000806823
1.12688e-05
0.0008013
1.61278e-05
0.000794027
2.10401e-05
0.000784997
2.59853e-05
0.000774204
3.09431e-05
0.000761645
3.58992e-05
0.000747323
4.08389e-05
0.000731243
4.57503e-05
0.00071341
5.0617e-05
0.000693821
5.54211e-05
0.000672472
6.01512e-05
0.000649368
6.47842e-05
0.00062453
6.93006e-05
0.000597989
7.36811e-05
0.000569774
7.7924e-05
0.000539937
8.20007e-05
0.000508541
8.58822e-05
0.000475632
8.95851e-05
0.000441316
9.3034e-05
0.000405616
9.62851e-05
0.000368703
9.92533e-05
0.000330553
0.000101959
0.0002914
0.000104443
0.000251153
0.000106616
0.000209983
0.000108786
0.000167689
0.000110836
0.000124834
0.000112177
8.34354e-05
0.000108923
4.74931e-05
9.94533e-05
0.000124519
-5.16086e-05
0.000204425
-9.11433e-05
0.00015923
-0.000133405
0.000170345
-0.000178034
0.000178269
-0.000222539
0.000178316
-0.000266864
0.000176532
-0.000310557
0.000174488
-0.000353865
0.000172562
-0.00039666
0.000170383
-0.000438872
0.000167961
-0.000480466
0.000165284
-0.00052136
0.000162333
-0.000561473
0.00015912
-0.000600746
0.000155683
-0.000639188
0.000152033
-0.000676647
0.000148099
-0.000713121
0.000143982
-0.000748539
0.000139637
-0.000782833
0.000135086
-0.00081598
0.000130358
-0.000847872
0.000125408
-0.000878521
0.000120312
-0.000907829
0.000115011
-0.000935766
0.000109562
-0.00096229
0.000103962
-0.000987332
9.81738e-05
-0.00101087
9.22728e-05
-0.0010329
8.62649e-05
-0.00105336
8.01186e-05
-0.00107221
7.38529e-05
-0.00108942
6.74898e-05
-0.00110496
6.1034e-05
-0.00111884
5.45039e-05
-0.00113102
4.79051e-05
-0.00114148
4.1246e-05
-0.00115022
3.45329e-05
-0.00115724
2.77906e-05
-0.00116251
2.10163e-05
-0.00116604
1.42308e-05
-0.00116785
7.45718e-06
-0.001168
7.073e-07
-0.00116629
-6.13743e-06
-0.00116291
-1.28449e-05
-0.00115788
-1.95145e-05
-0.00115121
-2.61256e-05
-0.00114292
-3.2657e-05
-0.00113304
-3.90978e-05
-0.00112153
-4.54824e-05
-0.0011084
-5.17358e-05
-0.00109369
-5.78652e-05
-0.00107742
-6.38995e-05
-0.00105965
-6.98091e-05
-0.00104044
-7.55722e-05
-0.00101981
-8.12176e-05
-0.000997808
-8.66948e-05
-0.00097454
-9.19725e-05
-0.000949979
-9.71053e-05
-0.000924195
-0.000102044
-0.000897226
-0.00010679
-0.000869121
-0.000111338
-0.000839929
-0.00011568
-0.000809696
-0.000119817
-0.000778479
-0.000123737
-0.000746314
-0.000127451
-0.000713324
-0.000130906
-0.000679522
-0.000134144
-0.000644952
-0.000137169
-0.000609655
-0.000139965
-0.000573767
-0.000142486
-0.000537271
-0.000144811
-0.000500257
-0.000146878
-0.000462767
-0.000148709
-0.00042489
-0.000150277
-0.000386671
-0.000151616
-0.000348175
-0.000152697
-0.000309467
-0.00015354
-0.000270598
-0.000154134
-0.000231653
-0.000154473
-0.000192687
-0.000154569
-0.000153765
-0.000154414
-0.000114928
-0.000154019
-7.62636e-05
-0.000153354
-3.78252e-05
-0.000152441
3.3971e-07
-0.000151273
3.8172e-05
-0.000149849
7.56099e-05
-0.000148162
0.000112613
-0.000146231
0.000149114
-0.000144033
0.000185069
-0.000141597
0.000220419
-0.0001389
0.000255123
-0.000135971
0.00028913
-0.000132805
0.00032239
-0.000129405
0.000354858
-0.000125785
0.000386488
-0.000121955
0.000417246
-0.00011793
0.000447076
-0.000113714
0.000475938
-0.000109339
0.000503771
-0.000104822
0.000530501
-0.000100188
0.000556042
-9.5457e-05
0.000580304
-9.06473e-05
0.00060321
-8.57656e-05
0.000624698
-8.08182e-05
0.000644736
-7.57858e-05
0.000663307
-7.06844e-05
0.000680374
-6.54762e-05
0.00069592
-6.01731e-05
0.000709913
-5.47609e-05
0.000722331
-4.92503e-05
0.000733143
-4.36409e-05
0.000742322
-3.79396e-05
0.000749842
-3.2152e-05
0.000755685
-2.62844e-05
0.000759834
-2.03333e-05
0.000762289
-1.43047e-05
0.000763052
-8.19168e-06
0.000762077
-1.95881e-06
0.000759671
4.15509e-06
0.000755668
1.04841e-05
0.000750042
1.6894e-05
0.000742813
2.33571e-05
0.000733998
2.98556e-05
0.000723609
3.63736e-05
0.000711657
4.2895e-05
0.000698156
4.9401e-05
0.000683119
5.58758e-05
0.000666576
6.22928e-05
0.000648554
6.86395e-05
0.000629066
7.49086e-05
0.000608136
8.10818e-05
0.000585784
8.71357e-05
0.000562041
9.30437e-05
0.000536926
9.8796e-05
0.000510491
0.00010436
0.000482778
0.000109713
0.000453818
0.000114842
0.000423686
0.000119717
0.000392426
0.000124294
0.000360088
0.000128623
0.000326801
0.00013254
0.00029254
0.00013622
0.000257525
0.000139458
0.000221677
0.000142464
0.000185217
0.000145247
0.00014785
0.000148203
0.000110681
0.000149346
7.54516e-05
0.000144153
4.33233e-05
0.000131582
0.000167843
-5.20754e-05
0.0002565
-9.1674e-05
0.000198828
-0.000134141
0.000212813
-0.000178926
0.000223054
-0.000223691
0.000223081
-0.000268209
0.000221049
-0.000312212
0.000218491
-0.000355818
0.000216168
-0.000398938
0.000213503
-0.000441511
0.000210535
-0.000483469
0.000207242
-0.000524753
0.000203617
-0.000565294
0.000199661
-0.00060503
0.00019542
-0.000643902
0.000190905
-0.000681848
0.000186045
-0.000718819
0.000180952
-0.000754725
0.000175543
-0.000789523
0.000169884
-0.000823143
0.000163978
-0.000855563
0.000157828
-0.000886679
0.000151428
-0.000916478
0.00014481
-0.000944877
0.000137962
-0.000971842
0.000130927
-0.000997355
0.000123687
-0.00102135
0.000116264
-0.00104376
0.00010868
-0.00106458
0.000100935
-0.00108379
9.30621e-05
-0.00110134
8.50408e-05
-0.0011172
7.68977e-05
-0.00113136
6.86577e-05
-0.00114379
6.03384e-05
-0.00115448
5.19342e-05
-0.0011634
4.34503e-05
-0.00117055
3.49495e-05
-0.00117596
2.64199e-05
-0.00117959
1.78653e-05
-0.00118143
9.29873e-06
-0.00118144
7.12383e-07
-0.00117983
-7.75155e-06
-0.00117643
-1.62417e-05
-0.00117127
-2.46774e-05
-0.00116438
-3.30118e-05
-0.00115576
-4.12769e-05
-0.00114543
-4.94261e-05
-0.0011335
-5.74157e-05
-0.00111993
-6.53037e-05
-0.00110476
-7.30333e-05
-0.00108806
-8.06052e-05
-0.00106986
-8.80092e-05
-0.00105016
-9.5268e-05
-0.00102908
-0.000102299
-0.00100663
-0.00010914
-0.000982809
-0.000115797
-0.000957708
-0.000122206
-0.000931372
-0.00012838
-0.000903828
-0.000134334
-0.000875143
-0.000140023
-0.000845365
-0.000145458
-0.000814547
-0.000150635
-0.000782739
-0.000155545
-0.000750014
-0.000160176
-0.000716414
-0.000164506
-0.000681997
-0.000168562
-0.000646828
-0.000172339
-0.000610971
-0.000175822
-0.000574461
-0.000178997
-0.000537396
-0.000181876
-0.000499823
-0.000184451
-0.000461803
-0.000186729
-0.000423396
-0.000188684
-0.000384668
-0.000190344
-0.000345681
-0.000191683
-0.000306503
-0.000192718
-0.0002672
-0.000193437
-0.000227822
-0.000193852
-0.000188441
-0.00019395
-0.000149112
-0.000193742
-0.000109932
-0.000193199
-7.09296e-05
-0.000192357
-3.21703e-05
-0.000191201
6.29542e-06
-0.000189738
4.43914e-05
-0.000187945
8.20776e-05
-0.000185848
0.000119295
-0.000183449
0.000155992
-0.000180729
0.000192122
-0.000177726
0.000227627
-0.000174406
0.000262471
-0.000170815
0.000296585
-0.000166919
0.000329937
-0.000162757
0.000362484
-0.000158332
0.000394183
-0.000153653
0.000424977
-0.000148724
0.000454824
-0.000143561
0.000483675
-0.00013819
0.00051148
-0.000132627
0.000538181
-0.000126889
0.000563705
-0.000120981
0.000587999
-0.000114941
0.000610978
-0.000108745
0.00063258
-0.000102421
0.000652764
-9.59699e-05
0.000671456
-8.93764e-05
0.000688621
-8.26411e-05
0.000704226
-7.57776e-05
0.000718237
-6.87723e-05
0.000730628
-6.16411e-05
0.000741378
-5.43911e-05
0.000750466
-4.70269e-05
0.000757865
-3.95511e-05
0.000763556
-3.1976e-05
0.000767528
-2.43055e-05
0.000769765
-1.65413e-05
0.000770278
-8.70433e-06
0.000769149
-8.30556e-07
0.000765981
7.32346e-06
0.000761115
1.53503e-05
0.000754568
2.34404e-05
0.000746353
3.1572e-05
0.000736486
3.97232e-05
0.000724989
4.78707e-05
0.000711884
5.59995e-05
0.0006972
6.40851e-05
0.00068097
7.21056e-05
0.000663223
8.00404e-05
0.000643992
8.78699e-05
0.000623329
9.55724e-05
0.000601278
0.000103132
0.00057789
0.000110524
0.000553212
0.000117722
0.000527304
0.000124704
0.000500216
0.000131448
0.000472002
0.000137927
0.000442729
0.000144115
0.00041246
0.000149987
0.000381243
0.000155511
0.000349167
0.000160699
0.000316269
0.000165437
0.000282627
0.000169863
0.000248393
0.000173692
0.000213515
0.000177342
0.000178248
0.000180514
0.000142327
0.000184124
0.000106824
0.000184849
7.311e-05
0.000177866
4.15732e-05
0.000163118
0.000209416
-5.2806e-05
0.000309306
-9.3176e-05
0.000239198
-0.000136426
0.000256062
-0.000181918
0.000268547
-0.000227529
0.000268691
-0.000272795
0.000266315
-0.000317587
0.000263284
-0.00036191
0.000260491
-0.000405758
0.000257351
-0.000449051
0.000253828
-0.00049173
0.00024992
-0.000533712
0.000245599
-0.000574934
0.000240882
-0.000615325
0.000235811
-0.000654803
0.000230383
-0.000693375
0.000224617
-0.000730887
0.000218465
-0.000767342
0.000211999
-0.000802665
0.000205207
-0.000836785
0.000198098
-0.000869644
0.000190687
-0.000901205
0.000182989
-0.000931391
0.000174997
-0.000960164
0.000166734
-0.000987478
0.000158241
-0.0010133
0.000149506
-0.00103755
0.000140513
-0.00106022
0.000131356
-0.00108127
0.00012198
-0.00110063
0.00011243
-0.00111832
0.00010273
-0.00113432
9.28974e-05
-0.00114857
8.29052e-05
-0.00116105
7.28164e-05
-0.00117175
6.26364e-05
-0.0011807
5.23948e-05
-0.00118785
4.20993e-05
-0.0011932
3.17763e-05
-0.00119674
2.14038e-05
-0.00119849
1.1045e-05
-0.0011985
7.24125e-07
-0.00119665
-9.60315e-06
-0.00119304
-1.98459e-05
-0.00118773
-2.99908e-05
-0.00118067
-4.00747e-05
-0.00117193
-5.00091e-05
-0.0011615
-5.98556e-05
-0.00114939
-6.95341e-05
-0.00113564
-7.90507e-05
-0.00112028
-8.8392e-05
-0.00110333
-9.75578e-05
-0.00108482
-0.000106522
-0.00106486
-0.000115228
-0.00104341
-0.000123743
-0.00102053
-0.000132018
-0.000996345
-0.000139985
-0.000970815
-0.000147736
-0.000944013
-0.000155183
-0.000916018
-0.00016233
-0.00088685
-0.00016919
-0.000856568
-0.00017574
-0.00082524
-0.000181963
-0.000792927
-0.000187859
-0.000759661
-0.000193442
-0.000725512
-0.000198655
-0.000690545
-0.000203528
-0.000654797
-0.000208087
-0.000618374
-0.000212245
-0.000581306
-0.000216064
-0.000543646
-0.000219536
-0.000505482
-0.000222615
-0.000466875
-0.000225335
-0.000427879
-0.00022768
-0.000388558
-0.000229665
-0.000348978
-0.000231263
-0.000309193
-0.000232504
-0.000269278
-0.000233351
-0.000229301
-0.000233828
-0.000189307
-0.000233944
-0.000149386
-0.000233664
-0.00010957
-0.000233014
-6.99349e-05
-0.000231992
-3.0535e-05
-0.0002306
8.56048e-06
-0.000228834
4.73073e-05
-0.000226692
8.56459e-05
-0.000224187
0.000123521
-0.000221324
0.00016088
-0.000218088
0.000197662
-0.000214508
0.000233831
-0.000210574
0.000269316
-0.0002063
0.000304088
-0.00020169
0.000338087
-0.000196756
0.000371261
-0.000191507
0.000403561
-0.000185953
0.000434941
-0.000180104
0.000465357
-0.000173976
0.00049475
-0.000167584
0.000523066
-0.000160943
0.000550243
-0.000154066
0.000576228
-0.000146966
0.00060094
-0.000139653
0.000624343
-0.000132148
0.000646372
-0.000124449
0.00066696
-0.000116558
0.000686069
-0.000108485
0.000703671
-0.000100243
0.000719714
-9.182e-05
0.000734169
-8.32277e-05
0.000747005
-7.44774e-05
0.000758187
-6.55729e-05
0.000767676
-5.65157e-05
0.000775454
-4.73289e-05
0.000781486
-3.8008e-05
0.000785748
-2.85672e-05
0.000788229
-1.9023e-05
0.000788906
-9.38073e-06
0.000787788
2.86644e-07
0.000785056
1.0056e-05
0.000780494
1.99122e-05
0.000774143
2.97915e-05
0.000766029
3.96856e-05
0.000756175
4.95772e-05
0.0007446
5.94466e-05
0.000731332
6.92668e-05
0.0007164
7.90172e-05
0.000699838
8.86674e-05
0.000681675
9.82041e-05
0.000661948
0.000107597
0.000640706
0.000116814
0.000618004
0.000125834
0.000593896
0.000134632
0.000568436
0.000143182
0.000541683
0.000151457
0.000513709
0.000159421
0.000484578
0.000167058
0.000454355
0.000174337
0.000423118
0.000181224
0.000390936
0.000187694
0.000357884
0.000193751
0.000324039
0.000199283
0.000289475
0.000204427
0.000254316
0.000208851
0.000218588
0.00021307
0.000182433
0.000216668
0.000145726
0.000220832
0.000109207
0.000221368
7.43389e-05
0.000212734
4.18789e-05
0.000195578
0.000251295
-5.37041e-05
0.00036301
-9.48045e-05
0.000280299
-0.000138838
0.000300096
-0.000185155
0.000314864
-0.000231644
0.000315181
-0.000277753
0.000312424
-0.000323381
0.000308912
-0.000368522
0.000305631
-0.000413171
0.000302
-0.000457272
0.000297929
-0.000500682
0.000293331
-0.000543382
0.000288299
-0.000585322
0.000282822
-0.000626442
0.000276931
-0.000666624
0.000270565
-0.000705812
0.000263805
-0.00074398
0.000256633
-0.000781066
0.000249084
-0.00081697
0.000241111
-0.000851663
0.000232791
-0.000885057
0.000224081
-0.000917101
0.000215033
-0.000947775
0.000205671
-0.000977018
0.000195977
-0.00100476
0.000185989
-0.00103095
0.000175692
-0.00105558
0.000165141
-0.00107857
0.000154351
-0.00109992
0.000143322
-0.00111959
0.000132102
-0.00113754
0.000120681
-0.00115372
0.000109074
-0.00116814
9.73295e-05
-0.00118078
8.54565e-05
-0.00119163
7.34862e-05
-0.00120066
6.14224e-05
-0.00120786
4.92994e-05
-0.00121322
3.71348e-05
-0.00121675
2.49425e-05
-0.00121847
1.27601e-05
-0.00121835
6.05736e-07
-0.00121644
-1.15153e-05
-0.00121273
-2.3556e-05
-0.00120722
-3.54947e-05
-0.00119994
-4.7362e-05
-0.00119089
-5.90553e-05
-0.00118015
-7.06014e-05
-0.00116769
-8.19903e-05
-0.00115357
-9.31695e-05
-0.00113782
-0.000104145
-0.00112048
-0.000114896
-0.0011016
-0.000125398
-0.00108119
-0.000135641
-0.00105931
-0.00014562
-0.00103602
-0.000155309
-0.00101133
-0.000164678
-0.00098531
-0.000173753
-0.000958006
-0.000182487
-0.000929462
-0.000190873
-0.000899745
-0.000198907
-0.000868911
-0.000206574
-0.000836997
-0.000213876
-0.000804063
-0.000220794
-0.000770204
-0.0002273
-0.000735424
-0.000233435
-0.000699795
-0.000239157
-0.000663446
-0.000244436
-0.000626349
-0.000249342
-0.000588598
-0.000253815
-0.000550297
-0.000257838
-0.00051146
-0.000261451
-0.000472163
-0.000264632
-0.000432464
-0.000267379
-0.000392449
-0.00026968
-0.000352157
-0.000271556
-0.000311663
-0.000272998
-0.000271035
-0.000273979
-0.000230328
-0.000274535
-0.000189618
-0.000274654
-0.000148956
-0.000274327
-0.000108407
-0.000273563
-6.80339e-05
-0.000272365
-2.78943e-05
-0.00027074
1.19456e-05
-0.000268674
5.14323e-05
-0.000266178
9.05062e-05
-0.000263261
0.000129118
-0.000259936
0.000167201
-0.000256171
0.000204702
-0.00025201
0.000241575
-0.000247448
0.000277755
-0.00024248
0.000313208
-0.000237143
0.000347857
-0.000231405
0.000381664
-0.000225313
0.000414579
-0.000218868
0.000446544
-0.000212069
0.000477514
-0.000204946
0.000507428
-0.000197498
0.000536229
-0.000189743
0.000563867
-0.000181704
0.000590293
-0.000173392
0.000615444
-0.000164804
0.000639259
-0.000155963
0.000661686
-0.000146877
0.000682682
-0.000137554
0.000702199
-0.000128003
0.000720192
-0.000118235
0.000736613
-0.000108241
0.000751433
-9.80476e-05
0.000764614
-8.76584e-05
0.000776134
-7.70935e-05
0.000785961
-6.63426e-05
0.000794062
-5.54297e-05
0.000800428
-4.43742e-05
0.000805042
-3.31815e-05
0.000807894
-2.18749e-05
0.000808962
-1.04479e-05
0.000808166
1.08201e-06
0.000805569
1.26532e-05
0.000801196
2.42852e-05
0.000795031
3.59566e-05
0.000787079
4.76373e-05
0.000777353
5.93035e-05
0.000765868
7.09312e-05
0.00075264
8.2495e-05
0.000737695
9.39627e-05
0.00072105
0.000105312
0.000702744
0.00011651
0.000682815
0.000127525
0.0006613
0.000138329
0.000638246
0.000148888
0.000613702
0.000159177
0.000587726
0.000169157
0.000560383
0.000178799
0.000531727
0.000188077
0.000501828
0.000196957
0.000470763
0.000205403
0.000438596
0.000213391
0.000405406
0.000220884
0.000371282
0.000227875
0.000336301
0.000234264
0.000300548
0.000240179
0.000264128
0.000245271
0.0002271
0.000250098
0.000189553
0.000254215
0.000151412
0.000258973
0.000113258
0.000259521
7.67677e-05
0.000249225
4.30789e-05
0.000229267
0.000294374
-5.4785e-05
0.000417795
-9.66118e-05
0.000322125
-0.000141403
0.000344887
-0.000188617
0.000362077
-0.000236066
0.00036263
-0.00028308
0.000359438
-0.000329571
0.000355404
-0.000375628
0.000351687
-0.000421167
0.000347539
-0.000466084
0.000342846
-0.00051037
0.000337617
-0.000553931
0.00033186
-0.000596708
0.000325599
-0.000638587
0.00031881
-0.000679575
0.000311553
-0.000719567
0.000303797
-0.000758501
0.000295567
-0.000796284
0.000286866
-0.000832892
0.00027772
-0.000868244
0.000268142
-0.000902298
0.000258135
-0.000934998
0.000247733
-0.000966253
0.000236926
-0.000996048
0.000225771
-0.00102431
0.00021425
-0.00105102
0.000202403
-0.00107614
0.000190262
-0.00109958
0.000177791
-0.00112134
0.000165077
-0.00114135
0.000152114
-0.0011596
0.000138934
-0.00117608
0.00012555
-0.00119076
0.000112011
-0.0012036
9.82951e-05
-0.0012146
8.44863e-05
-0.00122373
7.0554e-05
-0.001231
5.65674e-05
-0.00123639
4.25292e-05
-0.00123992
2.8474e-05
-0.00124158
1.4419e-05
-0.00124137
3.94442e-07
-0.0012393
-1.35846e-05
-0.0012354
-2.74569e-05
-0.00122965
-4.12436e-05
-0.00122215
-5.48655e-05
-0.00121285
-6.83519e-05
-0.0012018
-8.16546e-05
-0.001189
-9.47849e-05
-0.00117451
-0.000107664
-0.00115835
-0.000120308
-0.00114056
-0.000132686
-0.00112118
-0.00014478
-0.00110024
-0.000156576
-0.0010778
-0.00016806
-0.00105392
-0.000179189
-0.00102862
-0.00018998
-0.00100198
-0.000200392
-0.00097402
-0.000210448
-0.00094481
-0.000220084
-0.000914398
-0.000229319
-0.000882845
-0.000238128
-0.000850206
-0.000246514
-0.000816545
-0.000254455
-0.000781903
-0.000261942
-0.000746373
-0.000268966
-0.000710006
-0.000275524
-0.000672826
-0.000281616
-0.000634958
-0.00028721
-0.000596419
-0.000292355
-0.000557277
-0.000296979
-0.000517612
-0.000301116
-0.00047749
-0.000304754
-0.000436957
-0.000307913
-0.000396088
-0.000310548
-0.000354957
-0.000312687
-0.000313647
-0.000314307
-0.00027218
-0.000315447
-0.000230639
-0.000316077
-0.00018909
-0.000316202
-0.000147601
-0.000315816
-0.000106223
-0.00031494
-6.50226e-05
-0.000313566
-2.40558e-05
-0.000311707
1.66042e-05
-0.000309334
5.6905e-05
-0.000306479
9.67866e-05
-0.000303142
0.000136186
-0.000299335
0.000175055
-0.00029504
0.00021333
-0.000290285
0.000250958
-0.000285076
0.000287886
-0.000279408
0.000324046
-0.000273302
0.000359403
-0.000266763
0.000393894
-0.000259804
0.000427461
-0.000252435
0.00046006
-0.000244668
0.000491628
-0.000236514
0.000522115
-0.000227986
0.000551478
-0.000219106
0.000579648
-0.000209873
0.000606565
-0.00020031
0.000632186
-0.000190424
0.00065646
-0.000180237
0.000679335
-0.000169751
0.000700755
-0.000158974
0.000720677
-0.000147925
0.000739053
-0.000136611
0.000755856
-0.000125044
0.000771043
-0.000113235
0.000784582
-0.000101197
0.000796425
-8.89372e-05
0.000806557
-7.64747e-05
0.000814954
-6.38265e-05
0.000821585
-5.10054e-05
0.000826429
-3.80255e-05
0.000829451
-2.48967e-05
0.000830667
-1.16641e-05
0.000830087
1.66194e-06
0.000827667
1.50737e-05
0.000823407
2.85453e-05
0.000817315
4.2048e-05
0.000809398
5.55548e-05
0.000799663
6.9039e-05
0.000788124
8.24699e-05
0.000774799
9.58201e-05
0.000759705
0.000109056
0.000742872
0.000122146
0.000724324
0.000135058
0.000704098
0.000147752
0.000682229
0.000160197
0.00065876
0.000172358
0.000633739
0.000184198
0.000607217
0.000195679
0.000579247
0.000206769
0.000549897
0.000217427