/*--------------------------------*- C++ -*----------------------------------*\
| =========                 |                                                 |
| \\      /  F ield         | OpenFOAM: The Open Source CFD Toolbox           |
|  \\    /   O peration     | Version:  v2006                                 |
|   \\  /    A nd           | Website:  www.openfoam.com                      |
|    \\/     M anipulation  |                                                 |
\*---------------------------------------------------------------------------*/
FoamFile
{
    version     2.0;
    format      ascii;
    class       volVectorField;
    location    "10.1";
    object      U;
}
// * * * * * * * * * * * * * * * * * * * * * * * * * * * * * * * * * * * * * //

dimensions      [0 1 -1 0 0 0 0];


internalField   nonuniform List<vector> 
150000
(
(-0.00379661 0.000921897 0)
(-0.00358783 -0.00180727 0)
(-0.000518463 -0.00227313 0)
(0.000874344 -0.00191624 0)
(0.00171923 -0.00152305 0)
(0.00169464 -0.00125541 0)
(0.001363 -0.00110389 0)
(0.000842144 -0.00103121 0)
(0.000240054 -0.00100498 0)
(-0.000385272 -0.00100287 0)
(-0.00099794 -0.00101132 0)
(-0.00158491 -0.00102598 0)
(-0.00214191 -0.00104447 0)
(-0.00265923 -0.00106465 0)
(-0.00313158 -0.00108292 0)
(-0.00355152 -0.00110228 0)
(-0.00391246 -0.00112508 0)
(-0.00420529 -0.00114571 0)
(-0.00442266 -0.00116901 0)
(-0.0045587 -0.00119257 0)
(-0.00460699 -0.00121966 0)
(-0.00456898 -0.00125121 0)
(-0.00443675 -0.00128214 0)
(-0.00420605 -0.00131545 0)
(-0.00387593 -0.00135051 0)
(-0.0034459 -0.00138965 0)
(-0.00290873 -0.00142748 0)
(-0.00226387 -0.00147139 0)
(-0.00151665 -0.00151947 0)
(-0.000657991 -0.00156913 0)
(0.000314265 -0.00161798 0)
(0.00139895 -0.00166883 0)
(0.00259811 -0.00172072 0)
(0.0039143 -0.00177378 0)
(0.00534916 -0.00183147 0)
(0.00690579 -0.00188959 0)
(0.00858492 -0.00194783 0)
(0.010388 -0.00201106 0)
(0.0123187 -0.00207032 0)
(0.0143772 -0.00212742 0)
(0.0165668 -0.00217987 0)
(0.0188927 -0.00222703 0)
(0.0213632 -0.00227365 0)
(0.0239873 -0.00231001 0)
(0.0267722 -0.00234419 0)
(0.0297305 -0.00237765 0)
(0.0328732 -0.00242186 0)
(0.0362154 -0.00246928 0)
(0.0397637 -0.00252925 0)
(0.0435257 -0.00260589 0)
(0.0475059 -0.00270186 0)
(0.0517052 -0.00281956 0)
(0.0561184 -0.00295757 0)
(0.0607351 -0.00311441 0)
(0.0655416 -0.00328942 0)
(0.0705221 -0.00346681 0)
(0.0756566 -0.00363833 0)
(0.0809312 -0.00378841 0)
(0.0863384 -0.0039052 0)
(0.0918799 -0.00397203 0)
(0.0975642 -0.00398877 0)
(0.103412 -0.00396275 0)
(0.109453 -0.00391392 0)
(0.11572 -0.00384983 0)
(0.122234 -0.00379129 0)
(0.129014 -0.00375245 0)
(0.136073 -0.00373892 0)
(0.143411 -0.00375085 0)
(0.15102 -0.00378395 0)
(0.158882 -0.00383127 0)
(0.166979 -0.00388515 0)
(0.175288 -0.00393859 0)
(0.183787 -0.00398629 0)
(0.192455 -0.00402507 0)
(0.201275 -0.00405388 0)
(0.210232 -0.00407341 0)
(0.219314 -0.00408544 0)
(0.228513 -0.00409224 0)
(0.237819 -0.00409592 0)
(0.247226 -0.00409815 0)
(0.256727 -0.00410011 0)
(0.266315 -0.00410247 0)
(0.275984 -0.00410553 0)
(0.285726 -0.00410933 0)
(0.295534 -0.00411369 0)
(0.305396 -0.00411793 0)
(0.315304 -0.0041207 0)
(0.325242 -0.00411974 0)
(0.335193 -0.00411203 0)
(0.345138 -0.00409431 0)
(0.355054 -0.00406397 0)
(0.364916 -0.00402022 0)
(0.374702 -0.00396512 0)
(0.384396 -0.00390433 0)
(0.393994 -0.00384725 0)
(0.403505 -0.00380588 0)
(0.412952 -0.00379292 0)
(0.422378 -0.00381924 0)
(0.431833 -0.00389087 0)
(0.441374 -0.004006 0)
(0.451054 -0.00415371 0)
(0.460916 -0.00431587 0)
(0.470994 -0.00447272 0)
(0.481315 -0.00461029 0)
(0.491912 -0.00472489 0)
(0.502819 -0.00481986 0)
(0.51406 -0.00489406 0)
(0.525627 -0.00492916 0)
(0.537448 -0.00488556 0)
(0.549373 -0.00471401 0)
(0.561187 -0.00438131 0)
(0.57265 -0.00389748 0)
(0.583553 -0.00332223 0)
(0.593781 -0.00275048 0)
(0.60334 -0.00228072 0)
(0.612339 -0.00197846 0)
(0.620947 -0.0018554 0)
(0.629335 -0.0018744 0)
(0.637634 -0.00197412 0)
(0.645919 -0.00209729 0)
(0.65422 -0.00220839 0)
(0.662539 -0.00229618 0)
(0.670871 -0.00236549 0)
(0.679213 -0.00242636 0)
(0.687566 -0.00248647 0)
(0.695933 -0.00254858 0)
(0.704319 -0.00261157 0)
(0.712726 -0.0026725 0)
(0.721153 -0.00272817 0)
(0.729599 -0.00277569 0)
(0.738062 -0.00281238 0)
(0.746537 -0.00283575 0)
(0.755015 -0.00284385 0)
(0.763485 -0.0028359 0)
(0.77193 -0.00281329 0)
(0.780326 -0.00278015 0)
(0.788651 -0.00274355 0)
(0.796879 -0.00271269 0)
(0.804991 -0.00269705 0)
(0.812974 -0.00270382 0)
(0.82083 -0.00273502 0)
(0.828575 -0.00278475 0)
(0.83624 -0.00283567 0)
(0.843873 -0.00285235 0)
(0.851515 -0.00277073 0)
(0.859159 -0.00248991 0)
(0.866701 -0.00188615 0)
(0.873896 -0.000865929 0)
(0.880389 0.000551936 0)
(0.885826 0.00217483 0)
(0.890006 0.00365782 0)
(0.89299 0.00462547 0)
(0.895082 0.00482317 0)
(0.896702 0.00420228 0)
(0.898243 0.00289429 0)
(0.899981 0.00112603 0)
(0.902075 -0.000845476 0)
(0.904585 -0.00276438 0)
(0.907483 -0.00439228 0)
(0.910653 -0.00553708 0)
(0.91392 -0.00612615 0)
(0.917102 -0.00620076 0)
(0.920039 -0.00586841 0)
(0.922618 -0.00524292 0)
(0.924764 -0.00441898 0)
(0.926415 -0.00346845 0)
(0.927509 -0.00246512 0)
(0.928015 -0.00153259 0)
(0.92798 -0.000853109 0)
(0.927661 -0.000482517 0)
(0.927207 -0.000286595 0)
(0.926639 -0.000145442 0)
(0.925944 -1.87496e-05 0)
(0.925115 9.57768e-05 0)
(0.924152 0.000197522 0)
(0.923056 0.000288 0)
(0.921829 0.000368836 0)
(0.92047 0.00044078 0)
(0.918983 0.000503807 0)
(0.917369 0.000557666 0)
(0.915632 0.000602146 0)
(0.913777 0.000637112 0)
(0.911811 0.000662526 0)
(0.90974 0.000678535 0)
(0.907572 0.000685579 0)
(0.905314 0.000684508 0)
(0.902975 0.000676645 0)
(0.900563 0.000663757 0)
(0.898083 0.000647906 0)
(0.895542 0.000631192 0)
(0.892943 0.000615392 0)
(0.890289 0.000601572 0)
(0.887579 0.000589746 0)
(0.884814 0.000578702 0)
(0.881994 0.000566077 0)
(0.879122 0.000548796 0)
(0.876199 0.000523961 0)
(0.873235 0.000490055 0)
(0.870239 0.000446939 0)
(0.867225 0.000393754 0)
(0.864205 0.000330694 0)
(0.861195 0.000261705 0)
(0.858212 0.000193363 0)
(0.85527 0.000132832 0)
(0.852381 8.63053e-05 0)
(0.849553 5.79059e-05 0)
(0.846791 4.92045e-05 0)
(0.844097 5.93853e-05 0)
(0.84147 8.58871e-05 0)
(0.838906 0.000125282 0)
(0.836402 0.000174168 0)
(0.833952 0.000229935 0)
(0.831549 0.000291339 0)
(0.829187 0.000358944 0)
(0.826856 0.000435668 0)
(0.824544 0.000526833 0)
(0.822233 0.000642452 0)
(0.819886 0.000797427 0)
(0.817444 0.00101313 0)
(0.814832 0.00134159 0)
(0.811954 0.00185247 0)
(0.808684 0.00263607 0)
(0.804862 0.00383986 0)
(0.80024 0.00570745 0)
(0.794388 0.00852946 0)
(0.786631 0.0124035 0)
(0.77618 0.0168692 0)
(0.762395 0.021262 0)
(0.74525 0.0246843 0)
(0.725794 0.0262292 0)
(0.705905 0.0250361 0)
(0.687754 0.0212608 0)
(0.672901 0.016261 0)
(0.661546 0.0116953 0)
(0.652593 0.00856841 0)
(0.644514 0.00687917 0)
(0.636294 0.0059641 0)
(0.62777 0.00513127 0)
(0.619358 0.00407106 0)
(0.611549 0.00285785 0)
(0.604579 0.00170027 0)
(0.598404 0.000714719 0)
(0.592843 -0.000129796 0)
(0.587728 -0.000934236 0)
(0.582974 -0.0017719 0)
(0.578563 -0.00264136 0)
(0.5745 -0.0034746 0)
(0.570768 -0.00417271 0)
(0.567314 -0.00464355 0)
(0.564041 -0.00482715 0)
(0.560825 -0.00470491 0)
(0.557535 -0.00429576 0)
(0.554043 -0.00364352 0)
(0.550261 -0.00277895 0)
(0.546129 -0.00172964 0)
(0.54159 -0.000527365 0)
(0.536573 0.000796356 0)
(0.530997 0.00220277 0)
(0.524782 0.00363677 0)
(0.517873 0.00502324 0)
(0.510264 0.00626785 0)
(0.502039 0.00726437 0)
(0.493406 0.00792895 0)
(0.484671 0.00821138 0)
(0.476167 0.0080581 0)
(0.468218 0.00750139 0)
(0.461091 0.00667456 0)
(0.454926 0.00574822 0)
(0.449713 0.00487817 0)
(0.445316 0.00416953 0)
(0.441541 0.00365395 0)
(0.438201 0.00329493 0)
(0.435169 0.00301983 0)
(0.432391 0.00275894 0)
(0.429872 0.00247316 0)
(0.42763 0.00216099 0)
(0.425673 0.00184754 0)
(0.423977 0.00156542 0)
(0.42249 0.00133744 0)
(0.42115 0.00116992 0)
(0.4199 0.00105449 0)
(0.418703 0.000975342 0)
(0.417548 0.000916421 0)
(0.416446 0.000865627 0)
(0.415426 0.000815685 0)
(0.414526 0.000762876 0)
(0.413785 0.000705731 0)
(0.413238 0.000646189 0)
(0.412906 0.000589336 0)
(0.412795 0.000543755 0)
(0.412897 0.00052523 0)
(0.413203 0.000523816 0)
(0.413691 0.000532091 0)
(0.414346 0.000541926 0)
(0.415156 0.00054672 0)
(0.416115 0.000542191 0)
(0.417226 0.000527367 0)
(0.418493 0.000503842 0)
(0.419926 0.000473471 0)
(0.421534 0.000436276 0)
(0.423322 0.000389775 0)
(0.425291 0.000329738 0)
(0.42744 0.000251669 0)
(0.429762 0.000152335 0)
(0.432253 3.07131e-05 0)
(0.434903 -0.000112016 0)
(0.437706 -0.000272876 0)
(0.440656 -0.000446671 0)
(0.443747 -0.000626268 0)
(0.446975 -0.000804355 0)
(0.450335 -0.000975265 0)
(0.453827 -0.00113566 0)
(0.457449 -0.00128426 0)
(0.461203 -0.00142132 0)
(0.465088 -0.00154812 0)
(0.469107 -0.00166652 0)
(0.473257 -0.00177859 0)
(0.477537 -0.0018863 0)
(0.481942 -0.0019912 0)
(0.486468 -0.00209425 0)
(0.491109 -0.00219579 0)
(0.49586 -0.00229561 0)
(0.500714 -0.0023932 0)
(0.505665 -0.00248789 0)
(0.510708 -0.00257907 0)
(0.515836 -0.00266628 0)
(0.521041 -0.00274919 0)
(0.526317 -0.00282756 0)
(0.531656 -0.00290126 0)
(0.537051 -0.00297016 0)
(0.542495 -0.00303419 0)
(0.54798 -0.00309331 0)
(0.553499 -0.00314751 0)
(0.559046 -0.00319677 0)
(0.564613 -0.00324115 0)
(0.570194 -0.00328068 0)
(0.575781 -0.00331544 0)
(0.581369 -0.00334554 0)
(0.586951 -0.00337108 0)
(0.59252 -0.00339221 0)
(0.598071 -0.00340905 0)
(0.603598 -0.00342177 0)
(0.609095 -0.00343051 0)
(0.614557 -0.00343544 0)
(0.61998 -0.00343672 0)
(0.625357 -0.00343448 0)
(0.630685 -0.00342889 0)
(0.635959 -0.00342007 0)
(0.641174 -0.00340815 0)
(0.646327 -0.00339326 0)
(0.651414 -0.00337551 0)
(0.65643 -0.003355 0)
(0.661372 -0.00333183 0)
(0.666237 -0.00330611 0)
(0.671022 -0.00327789 0)
(0.675722 -0.00324727 0)
(0.680336 -0.00321431 0)
(0.684861 -0.00317905 0)
(0.689292 -0.00314155 0)
(0.693628 -0.00310184 0)
(0.697867 -0.00305994 0)
(0.702005 -0.00301585 0)
(0.70604 -0.00296958 0)
(0.70997 -0.00292112 0)
(0.713792 -0.00287046 0)
(0.717505 -0.00281765 0)
(0.721106 -0.00276278 0)
(0.724594 -0.0027061 0)
(0.727968 -0.002648 0)
(0.731227 -0.00258911 0)
(0.734373 -0.0025303 0)
(0.737406 -0.00247273 0)
(0.740331 -0.00241775 0)
(0.743151 -0.00236678 0)
(0.745872 -0.00232117 0)
(0.748498 -0.00228184 0)
(0.751037 -0.00224902 0)
(0.753492 -0.0022219 0)
(0.755869 -0.0021984 0)
(0.758167 -0.0021751 0)
(0.760387 -0.00214737 0)
(0.762525 -0.00210982 0)
(0.764575 -0.00205704 0)
(0.766528 -0.00198446 0)
(0.768375 -0.00188931 0)
(0.770105 -0.00177124 0)
(0.771708 -0.00163255 0)
(0.77317 -0.00147786 0)
(0.774483 -0.00131331 0)
(0.775635 -0.00114565 0)
(0.776616 -0.000980665 0)
(0.777419 -0.000822125 0)
(0.778034 -0.000670851 0)
(0.778453 -0.000525743 0)
(0.778668 -0.000383084 0)
(0.778673 -0.000236843 0)
(0.778452 -8.68015e-05 0)
(0.777994 7.03907e-05 0)
(0.777293 0.000236044 0)
(0.776343 0.000410173 0)
(0.775137 0.00059192 0)
(0.773669 0.000780322 0)
(0.771934 0.000974954 0)
(0.769923 0.00117624 0)
(0.767631 0.00138525 0)
(0.765049 0.00160336 0)
(0.762168 0.00183212 0)
(0.758976 0.00207314 0)
(0.755461 0.00232772 0)
(0.751611 0.00259678 0)
(0.747409 0.00288107 0)
(0.742842 0.0031814 0)
(0.737892 0.00349812 0)
(0.732546 0.00382963 0)
(0.726793 0.00417308 0)
(0.720625 0.00452661 0)
(0.714041 0.00488262 0)
(0.707061 0.00521239 0)
(0.699749 0.00546349 0)
(0.692222 0.0055843 0)
(0.684618 0.00555877 0)
(0.677053 0.00541993 0)
(0.669585 0.00523115 0)
(0.662209 0.00505212 0)
(0.654883 0.00491578 0)
(0.647558 0.00482715 0)
(0.640194 0.00477596 0)
(0.632765 0.00474885 0)
(0.625258 0.00473469 0)
(0.617672 0.00472494 0)
(0.610018 0.00471297 0)
(0.60231 0.00469445 0)
(0.594567 0.00466777 0)
(0.586799 0.00463371 0)
(0.579014 0.00459427 0)
(0.571208 0.00455158 0)
(0.563378 0.00450744 0)
(0.555517 0.0044634 0)
(0.54762 0.00442102 0)
(0.539681 0.00438203 0)
(0.531693 0.0043483 0)
(0.523649 0.00432158 0)
(0.515538 0.00430323 0)
(0.507349 0.00429386 0)
(0.499069 0.00429299 0)
(0.490691 0.00429839 0)
(0.482207 0.00430529 0)
(0.473618 0.00430563 0)
(0.464937 0.0042881 0)
(0.456186 0.00423984 0)
(0.447397 0.00415012 0)
(0.438611 0.00401486 0)
(0.429862 0.0038406 0)
(0.421171 0.00364595 0)
(0.412546 0.00345646 0)
(0.403976 0.00329469 0)
(0.395444 0.00317095 0)
(0.386932 0.00308043 0)
(0.37843 0.00300832 0)
(0.369937 0.00293906 0)
(0.361453 0.00286383 0)
(0.352982 0.00278241 0)
(0.344521 0.00269985 0)
(0.336066 0.00262154 0)
(0.32761 0.00255002 0)
(0.319147 0.00248463 0)
(0.310669 0.00242302 0)
(0.302171 0.00236287 0)
(0.293651 0.00230292 0)
(0.285104 0.00224314 0)
(0.276529 0.00218428 0)
(0.267922 0.00212738 0)
(0.259281 0.00207342 0)
(0.250602 0.00202312 0)
(0.241882 0.00197696 0)
(0.233117 0.00193527 0)
(0.224301 0.00189821 0)
(0.21543 0.00186585 0)
(0.206499 0.00183812 0)
(0.197503 0.00181487 0)
(0.188438 0.00179591 0)
(0.179298 0.00178091 0)
(0.170079 0.00176921 0)
(0.160779 0.00175958 0)
(0.151396 0.00175015 0)
(0.141931 0.00173868 0)
(0.132389 0.00172287 0)
(0.122778 0.00170107 0)
(0.11311 0.0016734 0)
(0.103398 0.0016427 0)
(0.0936529 0.00161301 0)
(0.0838838 0.00158236 0)
(0.0741073 0.00153171 0)
(0.0643748 0.00142448 0)
(0.0547496 0.00124907 0)
(0.0452939 0.00109552 0)
(0.035802 0.00117602 0)
(0.0262777 0.00159116 0)
(0.0162973 0.00225731 0)
(0.00632963 0.0024655 0)
(-0.00464289 0.00525713 0)
(-0.00605709 -0.00110364 0)
(-0.00521854 -0.00141195 0)
(-0.0065299 -0.000141286 0)
(-0.00864496 0.000908433 0)
(-0.0116834 0.00151291 0)
(-0.0149521 0.00182475 0)
(-0.018321 0.00196843 0)
(-0.0216895 0.00202088 0)
(-0.0250158 0.0020261 0)
(-0.0282775 0.00200801 0)
(-0.0314659 0.00197583 0)
(-0.034569 0.00193451 0)
(-0.0375677 0.00188308 0)
(-0.0404549 0.0018206 0)
(-0.0432203 0.0017464 0)
(-0.0458475 0.00166023 0)
(-0.0483299 0.00156549 0)
(-0.0506633 0.00145984 0)
(-0.0528429 0.00134687 0)
(-0.0548689 0.00122422 0)
(-0.0567409 0.00109382 0)
(-0.05846 0.00096002 0)
(-0.0600323 0.000821828 0)
(-0.0614628 0.000681546 0)
(-0.0627542 0.000539254 0)
(-0.063911 0.000399382 0)
(-0.0649399 0.000254114 0)
(-0.0658427 0.000111407 0)
(-0.0666177 -1.69296e-05 0)
(-0.0672703 -0.000152203 0)
(-0.0678052 -0.000291936 0)
(-0.0682228 -0.000434519 0)
(-0.068526 -0.000578161 0)
(-0.068709 -0.000722904 0)
(-0.0687687 -0.000869449 0)
(-0.0687078 -0.00101744 0)
(-0.0685098 -0.00116785 0)
(-0.0681662 -0.00132213 0)
(-0.0676712 -0.00148381 0)
(-0.0670079 -0.00165642 0)
(-0.0661642 -0.00184783 0)
(-0.0651163 -0.00205637 0)
(-0.0638614 -0.00228128 0)
(-0.0624045 -0.00253267 0)
(-0.0607469 -0.00279741 0)
(-0.0588903 -0.00307839 0)
(-0.0568523 -0.00336918 0)
(-0.0546673 -0.00365955 0)
(-0.0523511 -0.00394311 0)
(-0.0499289 -0.0042095 0)
(-0.0474179 -0.00445357 0)
(-0.0448307 -0.00465837 0)
(-0.0421696 -0.00483027 0)
(-0.039402 -0.00495817 0)
(-0.0364832 -0.0050552 0)
(-0.0333507 -0.00513697 0)
(-0.0299116 -0.0052259 0)
(-0.0260641 -0.00534781 0)
(-0.021717 -0.00552829 0)
(-0.0168069 -0.00578439 0)
(-0.0112962 -0.00612012 0)
(-0.00517172 -0.00652661 0)
(0.00153062 -0.00698507 0)
(0.0087272 -0.00747071 0)
(0.0163343 -0.00795808 0)
(0.0242593 -0.00842589 0)
(0.0324127 -0.00885937 0)
(0.0407189 -0.00925088 0)
(0.0491205 -0.00959902 0)
(0.0575787 -0.00990698 0)
(0.0660709 -0.0101806 0)
(0.0745871 -0.0104267 0)
(0.0831249 -0.0106515 0)
(0.0916853 -0.0108603 0)
(0.100269 -0.0110566 0)
(0.108875 -0.0112424 0)
(0.117497 -0.0114185 0)
(0.126129 -0.0115849 0)
(0.134761 -0.0117411 0)
(0.143385 -0.0118862 0)
(0.151991 -0.0120193 0)
(0.160576 -0.0121396 0)
(0.16914 -0.0122457 0)
(0.177683 -0.0123362 0)
(0.186214 -0.0124089 0)
(0.194739 -0.0124613 0)
(0.203269 -0.0124907 0)
(0.211813 -0.0124948 0)
(0.220383 -0.0124722 0)
(0.228988 -0.0124235 0)
(0.237636 -0.0123516 0)
(0.246335 -0.0122625 0)
(0.255091 -0.0121655 0)
(0.263907 -0.0120724 0)
(0.272788 -0.0119962 0)
(0.281732 -0.0119498 0)
(0.290736 -0.0119435 0)
(0.299799 -0.0119834 0)
(0.308915 -0.0120713 0)
(0.318089 -0.0122071 0)
(0.327333 -0.0123929 0)
(0.336681 -0.0126363 0)
(0.34618 -0.0129488 0)
(0.355889 -0.0133365 0)
(0.365854 -0.0137879 0)
(0.376091 -0.0142639 0)
(0.38658 -0.014698 0)
(0.397264 -0.0150097 0)
(0.408068 -0.0151288 0)
(0.418924 -0.0150193 0)
(0.42978 -0.0146932 0)
(0.440607 -0.0142046 0)
(0.45139 -0.013634 0)
(0.462114 -0.0130677 0)
(0.47276 -0.0125744 0)
(0.483306 -0.0121907 0)
(0.49374 -0.0119198 0)
(0.504057 -0.0117421 0)
(0.514266 -0.0116289 0)
(0.524385 -0.0115539 0)
(0.534427 -0.0114988 0)
(0.544406 -0.0114538 0)
(0.554326 -0.0114147 0)
(0.564191 -0.0113802 0)
(0.573998 -0.0113498 0)
(0.583748 -0.0113235 0)
(0.59344 -0.0113014 0)
(0.603077 -0.011284 0)
(0.612661 -0.0112713 0)
(0.622195 -0.0112629 0)
(0.631686 -0.0112563 0)
(0.641136 -0.011247 0)
(0.650546 -0.0112277 0)
(0.659915 -0.0111894 0)
(0.669231 -0.0111221 0)
(0.678474 -0.0110174 0)
(0.687616 -0.0108707 0)
(0.696621 -0.0106837 0)
(0.705451 -0.0104676 0)
(0.714077 -0.0102446 0)
(0.722491 -0.0100486 0)
(0.730719 -0.00992157 0)
(0.738843 -0.0099033 0)
(0.74701 -0.0100119 0)
(0.75544 -0.0102213 0)
(0.764402 -0.0104514 0)
(0.774158 -0.010585 0)
(0.784878 -0.010513 0)
(0.796537 -0.0101817 0)
(0.808859 -0.00960577 0)
(0.821322 -0.00883589 0)
(0.833234 -0.00791483 0)
(0.84384 -0.00685746 0)
(0.852433 -0.00566692 0)
(0.858456 -0.0043678 0)
(0.861586 -0.00302404 0)
(0.861827 -0.00173406 0)
(0.859537 -0.000615521 0)
(0.855379 0.000235718 0)
(0.850168 0.00080837 0)
(0.844669 0.00113577 0)
(0.839467 0.00126971 0)
(0.834928 0.00127062 0)
(0.83123 0.00120064 0)
(0.828434 0.00112233 0)
(0.826522 0.00108224 0)
(0.825395 0.00108438 0)
(0.824875 0.00108218 0)
(0.824607 0.0010582 0)
(0.824387 0.001055 0)
(0.824153 0.00110172 0)
(0.823879 0.00118649 0)
(0.823547 0.00129042 0)
(0.823135 0.00140667 0)
(0.822626 0.00153253 0)
(0.822004 0.00166678 0)
(0.821261 0.00180849 0)
(0.820385 0.00195624 0)
(0.819366 0.00210848 0)
(0.818193 0.00226364 0)
(0.816856 0.00242018 0)
(0.815345 0.00257658 0)
(0.813649 0.00273136 0)
(0.81176 0.00288307 0)
(0.809672 0.00303036 0)
(0.807378 0.00317205 0)
(0.804877 0.00330721 0)
(0.802169 0.00343538 0)
(0.799257 0.00355663 0)
(0.796145 0.00367174 0)
(0.792842 0.00378215 0)
(0.789352 0.00388988 0)
(0.785683 0.0039972 0)
(0.781841 0.00410614 0)
(0.777827 0.00421785 0)
(0.773645 0.00433211 0)
(0.769298 0.00444682 0)
(0.764789 0.00455732 0)
(0.760128 0.0046563 0)
(0.755332 0.00473695 0)
(0.750426 0.00479334 0)
(0.74544 0.00482014 0)
(0.740404 0.00481371 0)
(0.73535 0.00477313 0)
(0.730305 0.00470041 0)
(0.725287 0.0046001 0)
(0.72031 0.00447857 0)
(0.715375 0.0043429 0)
(0.71048 0.00419982 0)
(0.705621 0.00405499 0)
(0.700793 0.0039125 0)
(0.695994 0.00377489 0)
(0.691231 0.00364345 0)
(0.686518 0.0035188 0)
(0.681883 0.00340154 0)
(0.677368 0.00329401 0)
(0.673049 0.00319895 0)
(0.669046 0.00312523 0)
(0.665518 0.00307551 0)
(0.662654 0.00302266 0)
(0.660652 0.00292166 0)
(0.659757 0.00271915 0)
(0.660404 0.00237935 0)
(0.663459 0.00195499 0)
(0.670138 0.00168763 0)
(0.681735 0.00208084 0)
(0.698711 0.00323425 0)
(0.719771 0.00490405 0)
(0.742224 0.00659253 0)
(0.762668 0.00755006 0)
(0.778249 0.00741961 0)
(0.787651 0.00659879 0)
(0.791147 0.00594142 0)
(0.790218 0.00608528 0)
(0.786699 0.00704226 0)
(0.78196 0.00832101 0)
(0.776608 0.00935193 0)
(0.770699 0.0098364 0)
(0.764119 0.00982528 0)
(0.756815 0.00957354 0)
(0.748819 0.00934096 0)
(0.740155 0.00927361 0)
(0.730755 0.00939195 0)
(0.720456 0.00963801 0)
(0.709062 0.00992798 0)
(0.696443 0.0101863 0)
(0.682617 0.0103614 0)
(0.667794 0.01043 0)
(0.652364 0.0103907 0)
(0.636841 0.0102524 0)
(0.621794 0.0100229 0)
(0.607755 0.00969646 0)
(0.595146 0.00928412 0)
(0.584279 0.0088083 0)
(0.575357 0.0082979 0)
(0.568471 0.00779483 0)
(0.563603 0.0073477 0)
(0.560638 0.00699757 0)
(0.559381 0.00676366 0)
(0.559567 0.00663199 0)
(0.560881 0.00655045 0)
(0.562962 0.00644601 0)
(0.565434 0.00624236 0)
(0.567969 0.00587411 0)
(0.570339 0.00534098 0)
(0.57241 0.00469146 0)
(0.574117 0.00400446 0)
(0.575476 0.00336249 0)
(0.576564 0.00282871 0)
(0.577482 0.00242786 0)
(0.578314 0.00214396 0)
(0.579108 0.00193641 0)
(0.579879 0.00176255 0)
(0.580613 0.0015952 0)
(0.581295 0.00142912 0)
(0.581922 0.00127579 0)
(0.582506 0.00115237 0)
(0.583071 0.00107017 0)
(0.58365 0.00102804 0)
(0.58427 0.00101482 0)
(0.584953 0.00101031 0)
(0.585716 0.000990963 0)
(0.586571 0.000934316 0)
(0.587535 0.000823686 0)
(0.588617 0.000650573 0)
(0.589836 0.000416866 0)
(0.591222 0.000132851 0)
(0.592808 -0.000185017 0)
(0.594635 -0.000517168 0)
(0.596744 -0.00084114 0)
(0.599161 -0.00115151 0)
(0.601902 -0.00144342 0)
(0.604967 -0.00171562 0)
(0.608344 -0.00197013 0)
(0.61201 -0.00221245 0)
(0.615939 -0.00245071 0)
(0.620108 -0.00269274 0)
(0.624501 -0.00294248 0)
(0.629109 -0.00319785 0)
(0.633928 -0.00345128 0)
(0.638952 -0.00369249 0)
(0.644173 -0.00391176 0)
(0.649572 -0.00410237 0)
(0.655125 -0.00426144 0)
(0.660798 -0.00438995 0)
(0.666553 -0.00449136 0)
(0.672347 -0.00457049 0)
(0.678136 -0.00463312 0)
(0.683883 -0.00468582 0)
(0.689555 -0.00473576 0)
(0.695131 -0.00479004 0)
(0.700603 -0.00485435 0)
(0.705973 -0.00493169 0)
(0.711252 -0.00502185 0)
(0.716457 -0.00512188 0)
(0.721607 -0.00522729 0)
(0.726718 -0.0053334 0)
(0.731802 -0.00543639 0)
(0.736864 -0.00553372 0)
(0.741904 -0.00562407 0)
(0.746922 -0.00570694 0)
(0.75191 -0.00578226 0)
(0.756862 -0.00585001 0)
(0.761772 -0.00591016 0)
(0.766633 -0.00596264 0)
(0.771439 -0.00600739 0)
(0.776185 -0.00604438 0)
(0.780865 -0.00607364 0)
(0.785474 -0.00609526 0)
(0.790007 -0.00610937 0)
(0.79446 -0.00611613 0)
(0.798829 -0.00611572 0)
(0.803109 -0.00610833 0)
(0.807299 -0.00609412 0)
(0.811395 -0.00607328 0)
(0.815394 -0.00604599 0)
(0.819295 -0.00601244 0)
(0.823095 -0.00597284 0)
(0.826793 -0.00592739 0)
(0.830388 -0.0058763 0)
(0.833879 -0.00581979 0)
(0.837264 -0.00575805 0)
(0.840544 -0.00569129 0)
(0.843716 -0.00561973 0)
(0.846782 -0.00554356 0)
(0.84974 -0.00546298 0)
(0.852591 -0.00537819 0)
(0.855334 -0.00528938 0)
(0.857968 -0.00519674 0)
(0.860494 -0.00510046 0)
(0.862912 -0.0050007 0)
(0.865221 -0.00489764 0)
(0.867422 -0.00479144 0)
(0.869513 -0.00468224 0)
(0.871496 -0.0045702 0)
(0.87337 -0.00445546 0)
(0.875135 -0.00433816 0)
(0.87679 -0.00421843 0)
(0.878336 -0.00409641 0)
(0.879772 -0.00397222 0)
(0.881099 -0.00384598 0)
(0.882317 -0.00371781 0)
(0.883425 -0.00358788 0)
(0.884424 -0.00345637 0)
(0.885315 -0.00332357 0)
(0.886096 -0.00318987 0)
(0.88677 -0.00305579 0)
(0.887337 -0.00292201 0)
(0.887798 -0.00278933 0)
(0.888155 -0.00265865 0)
(0.88841 -0.00253084 0)
(0.888564 -0.00240661 0)
(0.88862 -0.00228638 0)
(0.88858 -0.00217013 0)
(0.888445 -0.00205742 0)
(0.888215 -0.00194735 0)
(0.887888 -0.00183885 0)
(0.887462 -0.00173092 0)
(0.886937 -0.00162302 0)
(0.88631 -0.00151527 0)
(0.885585 -0.00140864 0)
(0.884768 -0.00130466 0)
(0.883875 -0.00120493 0)
(0.882924 -0.00111037 0)
(0.881944 -0.00102057 0)
(0.88096 -0.000933384 0)
(0.880001 -0.000844765 0)
(0.879084 -0.000749069 0)
(0.878218 -0.000641055 0)
(0.8774 -0.000516176 0)
(0.876614 -0.000369951 0)
(0.875836 -0.000202592 0)
(0.875034 -1.56245e-05 0)
(0.874184 0.000188844 0)
(0.873261 0.000407871 0)
(0.872261 0.000634822 0)
(0.871181 0.000866984 0)
(0.870023 0.00110212 0)
(0.868793 0.00133983 0)
(0.867498 0.00158067 0)
(0.866145 0.00182525 0)
(0.86474 0.00207421 0)
(0.86329 0.00232805 0)
(0.8618 0.00258695 0)
(0.860278 0.00285119 0)
(0.858733 0.00312123 0)
(0.857175 0.00339787 0)
(0.855615 0.00368212 0)
(0.854064 0.00397497 0)
(0.852534 0.00427714 0)
(0.851037 0.0045891 0)
(0.849583 0.00491056 0)
(0.848184 0.0052395 0)
(0.846852 0.0055723 0)
(0.845595 0.00590396 0)
(0.844422 0.00622497 0)
(0.843332 0.00651683 0)
(0.842296 0.00675483 0)
(0.841252 0.0069207 0)
(0.84012 0.00701596 0)
(0.838831 0.007064 0)
(0.837347 0.00709884 0)
(0.835666 0.00714937 0)
(0.833804 0.00722952 0)
(0.831784 0.00733884 0)
(0.829626 0.00746936 0)
(0.827344 0.00761145 0)
(0.824946 0.00775553 0)
(0.822436 0.00789167 0)
(0.819815 0.00801105 0)
(0.817082 0.00810942 0)
(0.814235 0.0081896 0)
(0.811268 0.00826025 0)
(0.808173 0.00833147 0)
(0.804936 0.00841048 0)
(0.801541 0.00849996 0)
(0.797976 0.00859914 0)
(0.794229 0.00870622 0)
(0.790293 0.00882009 0)
(0.786164 0.00894105 0)
(0.781837 0.00907036 0)
(0.777309 0.00920944 0)
(0.772576 0.0093591 0)
(0.767634 0.00951899 0)
(0.762477 0.00968733 0)
(0.757096 0.00986069 0)
(0.751481 0.0100343 0)
(0.745615 0.0102025 0)
(0.739475 0.0103605 0)
(0.733029 0.0105053 0)
(0.726235 0.010637 0)
(0.719052 0.0107578 0)
(0.711439 0.0108708 0)
(0.703373 0.0109775 0)
(0.694854 0.0110766 0)
(0.685908 0.0111656 0)
(0.676577 0.0112433 0)
(0.66691 0.0113119 0)
(0.656943 0.0113767 0)
(0.646693 0.0114432 0)
(0.63616 0.0115154 0)
(0.625332 0.0115939 0)
(0.6142 0.0116782 0)
(0.602756 0.0117673 0)
(0.590998 0.0118614 0)
(0.578928 0.0119611 0)
(0.566541 0.0120669 0)
(0.553834 0.0121785 0)
(0.5408 0.0122949 0)
(0.527433 0.0124149 0)
(0.513728 0.0125378 0)
(0.499682 0.0126629 0)
(0.485298 0.0127904 0)
(0.470575 0.0129204 0)
(0.455516 0.0130533 0)
(0.440126 0.0131895 0)
(0.424406 0.0133293 0)
(0.408362 0.0134729 0)
(0.391996 0.0136203 0)
(0.375311 0.0137713 0)
(0.358312 0.0139257 0)
(0.341002 0.0140829 0)
(0.323385 0.0142421 0)
(0.305463 0.0144014 0)
(0.287241 0.014558 0)
(0.268722 0.0147083 0)
(0.249911 0.0148477 0)
(0.230817 0.014972 0)
(0.211454 0.015078 0)
(0.191842 0.0151643 0)
(0.17201 0.015228 0)
(0.151988 0.0152597 0)
(0.131801 0.0152422 0)
(0.111415 0.0151784 0)
(0.0907789 0.0151333 0)
(0.0698264 0.0151881 0)
(0.0493474 0.0151736 0)
(0.0299233 0.0154099 0)
(0.0120998 0.016772 0)
(-0.00531335 0.00995824 0)
(-0.00634409 -0.00128872 0)
(-0.0044118 -0.00158974 0)
(-0.00466475 0.000917187 0)
(-0.00628836 0.00295261 0)
(-0.00923548 0.00404242 0)
(-0.0125064 0.00451353 0)
(-0.0157832 0.00465845 0)
(-0.0189117 0.00464332 0)
(-0.0218668 0.0045515 0)
(-0.0246563 0.00442396 0)
(-0.0272909 0.0042708 0)
(-0.0297712 0.00409763 0)
(-0.0320848 0.00390281 0)
(-0.0342219 0.00368266 0)
(-0.0361741 0.00344413 0)
(-0.0379359 0.00318897 0)
(-0.0395089 0.00292117 0)
(-0.0408964 0.00264627 0)
(-0.0421045 0.00236282 0)
(-0.0431416 0.00208244 0)
(-0.0440162 0.00180398 0)
(-0.0447361 0.00152732 0)
(-0.0453109 0.00125697 0)
(-0.0457495 0.000992601 0)
(-0.0460585 0.000730407 0)
(-0.0462458 0.000478255 0)
(-0.0463138 0.00022708 0)
(-0.0462553 -3.07172e-05 0)
(-0.0460903 -0.000275909 0)
(-0.0458257 -0.000518351 0)
(-0.0454441 -0.000762586 0)
(-0.0449442 -0.00100417 0)
(-0.0443233 -0.00125077 0)
(-0.0435778 -0.00150159 0)
(-0.0427001 -0.001766 0)
(-0.041683 -0.00203941 0)
(-0.0405175 -0.00232358 0)
(-0.0391958 -0.00262748 0)
(-0.0377133 -0.00294974 0)
(-0.0360682 -0.00329192 0)
(-0.0342552 -0.00364925 0)
(-0.032268 -0.0040138 0)
(-0.0301281 -0.00439028 0)
(-0.0278408 -0.00476522 0)
(-0.0254131 -0.00512967 0)
(-0.0228658 -0.00547075 0)
(-0.0201983 -0.00579852 0)
(-0.0174207 -0.0061018 0)
(-0.0145306 -0.00638449 0)
(-0.0115157 -0.00665404 0)
(-0.00834226 -0.0069238 0)
(-0.00497697 -0.00721166 0)
(-0.00136701 -0.00753912 0)
(0.0025533 -0.00792209 0)
(0.00683385 -0.00839538 0)
(0.0115298 -0.00897323 0)
(0.0166812 -0.00966907 0)
(0.0223082 -0.0104757 0)
(0.0284068 -0.0113767 0)
(0.0349487 -0.0123288 0)
(0.0418867 -0.0132838 0)
(0.0491631 -0.014187 0)
(0.0567122 -0.0150117 0)
(0.064466 -0.0157266 0)
(0.0723682 -0.0163178 0)
(0.0803734 -0.0167885 0)
(0.0884463 -0.0171513 0)
(0.0965608 -0.017425 0)
(0.104699 -0.0176302 0)
(0.11285 -0.0177865 0)
(0.121005 -0.0179105 0)
(0.129161 -0.0180141 0)
(0.137315 -0.0181049 0)
(0.145466 -0.0181861 0)
(0.153611 -0.0182576 0)
(0.161749 -0.0183172 0)
(0.169875 -0.0183624 0)
(0.177986 -0.0183911 0)
(0.186077 -0.0184031 0)
(0.194146 -0.0184002 0)
(0.202189 -0.0183863 0)
(0.210207 -0.0183672 0)
(0.2182 -0.0183492 0)
(0.226175 -0.0183381 0)
(0.234139 -0.0183381 0)
(0.242103 -0.0183514 0)
(0.25008 -0.0183772 0)
(0.258084 -0.0184127 0)
(0.266129 -0.0184539 0)
(0.274228 -0.0184963 0)
(0.282395 -0.0185369 0)
(0.29064 -0.018575 0)
(0.298971 -0.0186131 0)
(0.307391 -0.0186569 0)
(0.315898 -0.0187144 0)
(0.324485 -0.0187946 0)
(0.333139 -0.0189054 0)
(0.341846 -0.0190515 0)
(0.350588 -0.0192351 0)
(0.35935 -0.0194588 0)
(0.368116 -0.0197295 0)
(0.376868 -0.0200595 0)
(0.385583 -0.0204609 0)
(0.394225 -0.0209338 0)
(0.402746 -0.0214527 0)
(0.411098 -0.021961 0)
(0.41925 -0.0223792 0)
(0.427204 -0.0226251 0)
(0.435009 -0.0226406 0)
(0.442754 -0.022412 0)
(0.450549 -0.0219765 0)
(0.458495 -0.0214133 0)
(0.466662 -0.0208204 0)
(0.475071 -0.0202861 0)
(0.4837 -0.0198665 0)
(0.492497 -0.0195764 0)
(0.501405 -0.0193972 0)
(0.510374 -0.0192936 0)
(0.519371 -0.0192307 0)
(0.528378 -0.0191839 0)
(0.53739 -0.0191405 0)
(0.546403 -0.019097 0)
(0.555417 -0.0190534 0)
(0.564426 -0.0190106 0)
(0.573425 -0.0189684 0)
(0.582406 -0.0189258 0)
(0.591359 -0.0188818 0)
(0.600274 -0.0188358 0)
(0.609137 -0.0187872 0)
(0.617936 -0.0187354 0)
(0.626661 -0.0186785 0)
(0.6353 -0.0186126 0)
(0.643848 -0.0185313 0)
(0.652302 -0.0184262 0)
(0.660664 -0.0182873 0)
(0.66894 -0.0181055 0)
(0.677134 -0.0178745 0)
(0.685252 -0.0175949 0)
(0.693293 -0.0172768 0)
(0.701248 -0.0169439 0)
(0.709091 -0.0166366 0)
(0.71678 -0.0164125 0)
(0.72425 -0.016338 0)
(0.731418 -0.0164673 0)
(0.738196 -0.0168065 0)
(0.744519 -0.0172797 0)
(0.750379 -0.017724 0)
(0.755838 -0.0179292 0)
(0.761021 -0.0177111 0)
(0.766075 -0.0169709 0)
(0.771116 -0.0157046 0)
(0.776197 -0.0139573 0)
(0.781312 -0.0117807 0)
(0.786413 -0.00923938 0)
(0.791411 -0.0064565 0)
(0.796195 -0.00365031 0)
(0.800638 -0.00111259 0)
(0.804653 0.000869926 0)
(0.808212 0.0021198 0)
(0.811354 0.00265727 0)
(0.814182 0.00263567 0)
(0.816814 0.00225633 0)
(0.819328 0.00169951 0)
(0.821745 0.00111151 0)
(0.824043 0.000593291 0)
(0.826185 0.000205662 0)
(0.828129 -1.21139e-05 0)
(0.82983 -3.53021e-05 0)
(0.83125 9.54935e-05 0)
(0.832373 0.000292534 0)
(0.833195 0.00050616 0)
(0.833706 0.000733565 0)
(0.833917 0.000972704 0)
(0.83384 0.00123168 0)
(0.83348 0.00150671 0)
(0.832844 0.00179204 0)
(0.831942 0.00208528 0)
(0.830781 0.0023854 0)
(0.829372 0.00269201 0)
(0.827725 0.00300481 0)
(0.82585 0.00332321 0)
(0.823756 0.00364627 0)