/*--------------------------------*- C++ -*----------------------------------*\
| =========                 |                                                 |
| \\      /  F ield         | OpenFOAM: The Open Source CFD Toolbox           |
|  \\    /   O peration     | Version:  v2006                                 |
|   \\  /    A nd           | Website:  www.openfoam.com                      |
|    \\/     M anipulation  |                                                 |
\*---------------------------------------------------------------------------*/
FoamFile
{
    version     2.0;
    format      ascii;
    class       volVectorField;
    location    "0";
    object      U_new;
}
// * * * * * * * * * * * * * * * * * * * * * * * * * * * * * * * * * * * * * //

dimensions      [0 1 -1 0 0 0 0];


internalField   nonuniform List<vector> 
2500
(
(0.00068 -0.0578 0)
(0.00068 -0.1734 0)
(0.00068 -0.289 0)
(0.00068 -0.4046 0)
(0.00068 -0.5202 0)
(0.00068 -0.6358 0)
(0.00068 -0.7514 0)
(0.00068 -0.867 0)
(0.00068 -0.9826 0)
(0.00068 -1.0982 0)
(0.00068 -1.2138 0)
(0.00068 -1.3294 0)
(0.00068 -1.445 0)
(0.00068 -1.5606 0)
(0.00068 -1.6762 0)
(0.00068 -1.7918 0)
(0.00068 -1.9074 0)
(0.00068 -2.023 0)
(0.00068 -2.1386 0)
(0.00068 -2.2542 0)
(0.00068 -2.3698 0)
(0.00068 -2.4854 0)
(0.00068 -2.601 0)
(0.00068 -2.7166 0)
(0.00068 -2.8322 0)
(0.00068 -2.9478 0)
(0.00068 -3.0634 0)
(0.00068 -3.179 0)
(0.00068 -3.2946 0)
(0.00068 -3.4102 0)
(0.00068 -3.5258 0)
(0.00068 -3.6414 0)
(0.00068 -3.757 0)
(0.00068 -3.8726 0)
(0.00068 -3.9882 0)
(0.00068 -4.1038 0)
(0.00068 -4.2194 0)
(0.00068 -4.335 0)
(0.00068 -4.4506 0)
(0.00068 -4.5662 0)
(0.00068 -4.6818 0)
(0.00068 -4.7974 0)
(0.00068 -4.913 0)
(0.00068 -5.0286 0)
(0.00068 -5.1442 0)
(0.00068 -5.2598 0)
(0.00068 -5.3754 0)
(0.00068 -5.491 0)
(0.00068 -5.6066 0)
(0.00068 -5.7222 0)
(0.00612 -0.0578 0)
(0.00612 -0.1734 0)
(0.00612 -0.289 0)
(0.00612 -0.4046 0)
(0.00612 -0.5202 0)
(0.00612 -0.6358 0)
(0.00612 -0.7514 0)
(0.00612 -0.867 0)
(0.00612 -0.9826 0)
(0.00612 -1.0982 0)
(0.00612 -1.2138 0)
(0.00612 -1.3294 0)
(0.00612 -1.445 0)
(0.00612 -1.5606 0)
(0.00612 -1.6762 0)
(0.00612 -1.7918 0)
(0.00612 -1.9074 0)
(0.00612 -2.023 0)
(0.00612 -2.1386 0)
(0.00612 -2.2542 0)
(0.00612 -2.3698 0)
(0.00612 -2.4854 0)
(0.00612 -2.601 0)
(0.00612 -2.7166 0)
(0.00612 -2.8322 0)
(0.00612 -2.9478 0)
(0.00612 -3.0634 0)
(0.00612 -3.179 0)
(0.00612 -3.2946 0)
(0.00612 -3.4102 0)
(0.00612 -3.5258 0)
(0.00612 -3.6414 0)
(0.00612 -3.757 0)
(0.00612 -3.8726 0)
(0.00612 -3.9882 0)
(0.00612 -4.1038 0)
(0.00612 -4.2194 0)
(0.00612 -4.335 0)
(0.00612 -4.4506 0)
(0.00612 -4.5662 0)
(0.00612 -4.6818 0)
(0.00612 -4.7974 0)
(0.00612 -4.913 0)
(0.00612 -5.0286 0)
(0.00612 -5.1442 0)
(0.00612 -5.2598 0)
(0.00612 -5.3754 0)
(0.00612 -5.491 0)
(0.00612 -5.6066 0)
(0.00612 -5.7222 0)
(0.017 -0.0578 0)
(0.017 -0.1734 0)
(0.017 -0.289 0)
(0.017 -0.4046 0)
(0.017 -0.5202 0)
(0.017 -0.6358 0)
(0.017 -0.7514 0)
(0.017 -0.867 0)
(0.017 -0.9826 0)
(0.017 -1.0982 0)
(0.017 -1.2138 0)
(0.017 -1.3294 0)
(0.017 -1.445 0)
(0.017 -1.5606 0)
(0.017 -1.6762 0)
(0.017 -1.7918 0)
(0.017 -1.9074 0)
(0.017 -2.023 0)
(0.017 -2.1386 0)
(0.017 -2.2542 0)
(0.017 -2.3698 0)
(0.017 -2.4854 0)
(0.017 -2.601 0)
(0.017 -2.7166 0)
(0.017 -2.8322 0)
(0.017 -2.9478 0)
(0.017 -3.0634 0)
(0.017 -3.179 0)
(0.017 -3.2946 0)
(0.017 -3.4102 0)
(0.017 -3.5258 0)
(0.017 -3.6414 0)
(0.017 -3.757 0)
(0.017 -3.8726 0)
(0.017 -3.9882 0)
(0.017 -4.1038 0)
(0.017 -4.2194 0)
(0.017 -4.335 0)
(0.017 -4.4506 0)
(0.017 -4.5662 0)
(0.017 -4.6818 0)
(0.017 -4.7974 0)
(0.017 -4.913 0)
(0.017 -5.0286 0)
(0.017 -5.1442 0)
(0.017 -5.2598 0)
(0.017 -5.3754 0)
(0.017 -5.491 0)
(0.017 -5.6066 0)
(0.017 -5.7222 0)
(0.03332 -0.0578 0)
(0.03332 -0.1734 0)
(0.03332 -0.289 0)
(0.03332 -0.4046 0)
(0.03332 -0.5202 0)
(0.03332 -0.6358 0)
(0.03332 -0.7514 0)
(0.03332 -0.867 0)
(0.03332 -0.9826 0)
(0.03332 -1.0982 0)
(0.03332 -1.2138 0)
(0.03332 -1.3294 0)
(0.03332 -1.445 0)
(0.03332 -1.5606 0)
(0.03332 -1.6762 0)
(0.03332 -1.7918 0)
(0.03332 -1.9074 0)
(0.03332 -2.023 0)
(0.03332 -2.1386 0)
(0.03332 -2.2542 0)
(0.03332 -2.3698 0)
(0.03332 -2.4854 0)
(0.03332 -2.601 0)
(0.03332 -2.7166 0)
(0.03332 -2.8322 0)
(0.03332 -2.9478 0)
(0.03332 -3.0634 0)
(0.03332 -3.179 0)
(0.03332 -3.2946 0)
(0.03332 -3.4102 0)
(0.03332 -3.5258 0)
(0.03332 -3.6414 0)
(0.03332 -3.757 0)
(0.03332 -3.8726 0)
(0.03332 -3.9882 0)
(0.03332 -4.1038 0)
(0.03332 -4.2194 0)
(0.03332 -4.335 0)
(0.03332 -4.4506 0)
(0.03332 -4.5662 0)
(0.03332 -4.6818 0)
(0.03332 -4.7974 0)
(0.03332 -4.913 0)
(0.03332 -5.0286 0)
(0.03332 -5.1442 0)
(0.03332 -5.2598 0)
(0.03332 -5.3754 0)
(0.03332 -5.491 0)
(0.03332 -5.6066 0)
(0.03332 -5.7222 0)
(0.05508 -0.0578 0)
(0.05508 -0.1734 0)
(0.05508 -0.289 0)
(0.05508 -0.4046 0)
(0.05508 -0.5202 0)
(0.05508 -0.6358 0)
(0.05508 -0.7514 0)
(0.05508 -0.867 0)
(0.05508 -0.9826 0)
(0.05508 -1.0982 0)
(0.05508 -1.2138 0)
(0.05508 -1.3294 0)
(0.05508 -1.445 0)
(0.05508 -1.5606 0)
(0.05508 -1.6762 0)
(0.05508 -1.7918 0)
(0.05508 -1.9074 0)
(0.05508 -2.023 0)
(0.05508 -2.1386 0)
(0.05508 -2.2542 0)
(0.05508 -2.3698 0)
(0.05508 -2.4854 0)
(0.05508 -2.601 0)
(0.05508 -2.7166 0)
(0.05508 -2.8322 0)
(0.05508 -2.9478 0)
(0.05508 -3.0634 0)
(0.05508 -3.179 0)
(0.05508 -3.2946 0)
(0.05508 -3.4102 0)
(0.05508 -3.5258 0)
(0.05508 -3.6414 0)
(0.05508 -3.757 0)
(0.05508 -3.8726 0)
(0.05508 -3.9882 0)
(0.05508 -4.1038 0)
(0.05508 -4.2194 0)
(0.05508 -4.335 0)
(0.05508 -4.4506 0)
(0.05508 -4.5662 0)
(0.05508 -4.6818 0)
(0.05508 -4.7974 0)
(0.05508 -4.913 0)
(0.05508 -5.0286 0)
(0.05508 -5.1442 0)
(0.05508 -5.2598 0)
(0.05508 -5.3754 0)
(0.05508 -5.491 0)
(0.05508 -5.6066 0)
(0.05508 -5.7222 0)
(0.08228 -0.0578 0)
(0.08228 -0.1734 0)
(0.08228 -0.289 0)
(0.08228 -0.4046 0)
(0.08228 -0.5202 0)
(0.08228 -0.6358 0)
(0.08228 -0.7514 0)
(0.08228 -0.867 0)
(0.08228 -0.9826 0)
(0.08228 -1.0982 0)
(0.08228 -1.2138 0)
(0.08228 -1.3294 0)
(0.08228 -1.445 0)
(0.08228 -1.5606 0)
(0.08228 -1.6762 0)
(0.08228 -1.7918 0)
(0.08228 -1.9074 0)
(0.08228 -2.023 0)
(0.08228 -2.1386 0)
(0.08228 -2.2542 0)
(0.08228 -2.3698 0)
(0.08228 -2.4854 0)
(0.08228 -2.601 0)
(0.08228 -2.7166 0)
(0.08228 -2.8322 0)
(0.08228 -2.9478 0)
(0.08228 -3.0634 0)
(0.08228 -3.179 0)
(0.08228 -3.2946 0)
(0.08228 -3.4102 0)
(0.08228 -3.5258 0)
(0.08228 -3.6414 0)
(0.08228 -3.757 0)
(0.08228 -3.8726 0)
(0.08228 -3.9882 0)
(0.08228 -4.1038 0)
(0.08228 -4.2194 0)
(0.08228 -4.335 0)
(0.08228 -4.4506 0)
(0.08228 -4.5662 0)
(0.08228 -4.6818 0)
(0.08228 -4.7974 0)
(0.08228 -4.913 0)
(0.08228 -5.0286 0)
(0.08228 -5.1442 0)
(0.08228 -5.2598 0)
(0.08228 -5.3754 0)
(0.08228 -5.491 0)
(0.08228 -5.6066 0)
(0.08228 -5.7222 0)
(0.11492 -0.0578 0)
(0.11492 -0.1734 0)
(0.11492 -0.289 0)
(0.11492 -0.4046 0)
(0.11492 -0.5202 0)
(0.11492 -0.6358 0)
(0.11492 -0.7514 0)
(0.11492 -0.867 0)
(0.11492 -0.9826 0)
(0.11492 -1.0982 0)
(0.11492 -1.2138 0)
(0.11492 -1.3294 0)
(0.11492 -1.445 0)
(0.11492 -1.5606 0)
(0.11492 -1.6762 0)
(0.11492 -1.7918 0)
(0.11492 -1.9074 0)
(0.11492 -2.023 0)
(0.11492 -2.1386 0)
(0.11492 -2.2542 0)
(0.11492 -2.3698 0)
(0.11492 -2.4854 0)
(0.11492 -2.601 0)
(0.11492 -2.7166 0)
(0.11492 -2.8322 0)
(0.11492 -2.9478 0)
(0.11492 -3.0634 0)
(0.11492 -3.179 0)
(0.11492 -3.2946 0)
(0.11492 -3.4102 0)
(0.11492 -3.5258 0)
(0.11492 -3.6414 0)
(0.11492 -3.757 0)
(0.11492 -3.8726 0)
(0.11492 -3.9882 0)
(0.11492 -4.1038 0)
(0.11492 -4.2194 0)
(0.11492 -4.335 0)
(0.11492 -4.4506 0)
(0.11492 -4.5662 0)
(0.11492 -4.6818 0)
(0.11492 -4.7974 0)
(0.11492 -4.913 0)
(0.11492 -5.0286 0)
(0.11492 -5.1442 0)
(0.11492 -5.2598 0)
(0.11492 -5.3754 0)
(0.11492 -5.491 0)
(0.11492 -5.6066 0)
(0.11492 -5.7222 0)
(0.153 -0.0578 0)
(0.153 -0.1734 0)
(0.153 -0.289 0)
(0.153 -0.4046 0)
(0.153 -0.5202 0)
(0.153 -0.6358 0)
(0.153 -0.7514 0)
(0.153 -0.867 0)
(0.153 -0.9826 0)
(0.153 -1.0982 0)
(0.153 -1.2138 0)
(0.153 -1.3294 0)
(0.153 -1.445 0)
(0.153 -1.5606 0)
(0.153 -1.6762 0)
(0.153 -1.7918 0)
(0.153 -1.9074 0)
(0.153 -2.023 0)
(0.153 -2.1386 0)
(0.153 -2.2542 0)
(0.153 -2.3698 0)
(0.153 -2.4854 0)
(0.153 -2.601 0)
(0.153 -2.7166 0)
(0.153 -2.8322 0)
(0.153 -2.9478 0)
(0.153 -3.0634 0)
(0.153 -3.179 0)
(0.153 -3.2946 0)
(0.153 -3.4102 0)
(0.153 -3.5258 0)
(0.153 -3.6414 0)
(0.153 -3.757 0)
(0.153 -3.8726 0)
(0.153 -3.9882 0)
(0.153 -4.1038 0)
(0.153 -4.2194 0)
(0.153 -4.335 0)
(0.153 -4.4506 0)
(0.153 -4.5662 0)
(0.153 -4.6818 0)
(0.153 -4.7974 0)
(0.153 -4.913 0)
(0.153 -5.0286 0)
(0.153 -5.1442 0)
(0.153 -5.2598 0)
(0.153 -5.3754 0)
(0.153 -5.491 0)
(0.153 -5.6066 0)
(0.153 -5.7222 0)
(0.19652 -0.0578 0)
(0.19652 -0.1734 0)
(0.19652 -0.289 0)
(0.19652 -0.4046 0)
(0.19652 -0.5202 0)
(0.19652 -0.6358 0)
(0.19652 -0.7514 0)
(0.19652 -0.867 0)
(0.19652 -0.9826 0)
(0.19652 -1.0982 0)
(0.19652 -1.2138 0)
(0.19652 -1.3294 0)
(0.19652 -1.445 0)
(0.19652 -1.5606 0)
(0.19652 -1.6762 0)
(0.19652 -1.7918 0)
(0.19652 -1.9074 0)
(0.19652 -2.023 0)
(0.19652 -2.1386 0)
(0.19652 -2.2542 0)
(0.19652 -2.3698 0)
(0.19652 -2.4854 0)
(0.19652 -2.601 0)
(0.19652 -2.7166 0)
(0.19652 -2.8322 0)
(0.19652 -2.9478 0)
(0.19652 -3.0634 0)
(0.19652 -3.179 0)
(0.19652 -3.2946 0)
(0.19652 -3.4102 0)
(0.19652 -3.5258 0)
(0.19652 -3.6414 0)
(0.19652 -3.757 0)
(0.19652 -3.8726 0)
(0.19652 -3.9882 0)
(0.19652 -4.1038 0)
(0.19652 -4.2194 0)
(0.19652 -4.335 0)
(0.19652 -4.4506 0)
(0.19652 -4.5662 0)
(0.19652 -4.6818 0)
(0.19652 -4.7974 0)
(0.19652 -4.913 0)
(0.19652 -5.0286 0)
(0.19652 -5.1442 0)
(0.19652 -5.2598 0)
(0.19652 -5.3754 0)
(0.19652 -5.491 0)
(0.19652 -5.6066 0)
(0.19652 -5.7222 0)
(0.24548 -0.0578 0)
(0.24548 -0.1734 0)
(0.24548 -0.289 0)
(0.24548 -0.4046 0)
(0.24548 -0.5202 0)
(0.24548 -0.6358 0)
(0.24548 -0.7514 0)
(0.24548 -0.867 0)
(0.24548 -0.9826 0)
(0.24548 -1.0982 0)
(0.24548 -1.2138 0)
(0.24548 -1.3294 0)
(0.24548 -1.445 0)
(0.24548 -1.5606 0)
(0.24548 -1.6762 0)
(0.24548 -1.7918 0)
(0.24548 -1.9074 0)
(0.24548 -2.023 0)
(0.24548 -2.1386 0)
(0.24548 -2.2542 0)
(0.24548 -2.3698 0)
(0.24548 -2.4854 0)
(0.24548 -2.601 0)
(0.24548 -2.7166 0)
(0.24548 -2.8322 0)
(0.24548 -2.9478 0)
(0.24548 -3.0634 0)
(0.24548 -3.179 0)
(0.24548 -3.2946 0)
(0.24548 -3.4102 0)
(0.24548 -3.5258 0)
(0.24548 -3.6414 0)
(0.24548 -3.757 0)
(0.24548 -3.8726 0)
(0.24548 -3.9882 0)
(0.24548 -4.1038 0)
(0.24548 -4.2194 0)
(0.24548 -4.335 0)
(0.24548 -4.4506 0)
(0.24548 -4.5662 0)
(0.24548 -4.6818 0)
(0.24548 -4.7974 0)
(0.24548 -4.913 0)
(0.24548 -5.0286 0)
(0.24548 -5.1442 0)
(0.24548 -5.2598 0)
(0.24548 -5.3754 0)
(0.24548 -5.491 0)
(0.24548 -5.6066 0)
(0.24548 -5.7222 0)
(0.29988 -0.0578 0)
(0.29988 -0.1734 0)
(0.29988 -0.289 0)
(0.29988 -0.4046 0)
(0.29988 -0.5202 0)
(0.29988 -0.6358 0)
(0.29988 -0.7514 0)
(0.29988 -0.867 0)
(0.29988 -0.9826 0)
(0.29988 -1.0982 0)
(0.29988 -1.2138 0)
(0.29988 -1.3294 0)
(0.29988 -1.445 0)
(0.29988 -1.5606 0)
(0.29988 -1.6762 0)
(0.29988 -1.7918 0)
(0.29988 -1.9074 0)
(0.29988 -2.023 0)
(0.29988 -2.1386 0)
(0.29988 -2.2542 0)
(0.29988 -2.3698 0)
(0.29988 -2.4854 0)
(0.29988 -2.601 0)
(0.29988 -2.7166 0)
(0.29988 -2.8322 0)
(0.29988 -2.9478 0)
(0.29988 -3.0634 0)
(0.29988 -3.179 0)
(0.29988 -3.2946 0)
(0.29988 -3.4102 0)
(0.29988 -3.5258 0)
(0.29988 -3.6414 0)
(0.29988 -3.757 0)
(0.29988 -3.8726 0)
(0.29988 -3.9882 0)
(0.29988 -4.1038 0)
(0.29988 -4.2194 0)
(0.29988 -4.335 0)
(0.29988 -4.4506 0)
(0.29988 -4.5662 0)
(0.29988 -4.6818 0)
(0.29988 -4.7974 0)
(0.29988 -4.913 0)
(0.29988 -5.0286 0)
(0.29988 -5.1442 0)
(0.29988 -5.2598 0)
(0.29988 -5.3754 0)
(0.29988 -5.491 0)
(0.29988 -5.6066 0)
(0.29988 -5.7222 0)
(0.35972 -0.0578 0)
(0.35972 -0.1734 0)
(0.35972 -0.289 0)
(0.35972 -0.4046 0)
(0.35972 -0.5202 0)
(0.35972 -0.6358 0)
(0.35972 -0.7514 0)
(0.35972 -0.867 0)
(0.35972 -0.9826 0)
(0.35972 -1.0982 0)
(0.35972 -1.2138 0)
(0.35972 -1.3294 0)
(0.35972 -1.445 0)
(0.35972 -1.5606 0)
(0.35972 -1.6762 0)
(0.35972 -1.7918 0)
(0.35972 -1.9074 0)
(0.35972 -2.023 0)
(0.35972 -2.1386 0)
(0.35972 -2.2542 0)
(0.35972 -2.3698 0)
(0.35972 -2.4854 0)
(0.35972 -2.601 0)
(0.35972 -2.7166 0)
(0.35972 -2.8322 0)
(0.35972 -2.9478 0)
(0.35972 -3.0634 0)
(0.35972 -3.179 0)
(0.35972 -3.2946 0)
(0.35972 -3.4102 0)
(0.35972 -3.5258 0)
(0.35972 -3.6414 0)
(0.35972 -3.757 0)
(0.35972 -3.8726 0)
(0.35972 -3.9882 0)
(0.35972 -4.1038 0)
(0.35972 -4.2194 0)
(0.35972 -4.335 0)
(0.35972 -4.4506 0)
(0.35972 -4.5662 0)
(0.35972 -4.6818 0)
(0.35972 -4.7974 0)
(0.35972 -4.913 0)
(0.35972 -5.0286 0)
(0.35972 -5.1442 0)
(0.35972 -5.2598 0)
(0.35972 -5.3754 0)
(0.35972 -5.491 0)
(0.35972 -5.6066 0)
(0.35972 -5.7222 0)
(0.425 -0.0578 0)
(0.425 -0.1734 0)
(0.425 -0.289 0)
(0.425 -0.4046 0)
(0.425 -0.5202 0)
(0.425 -0.6358 0)
(0.425 -0.7514 0)
(0.425 -0.867 0)
(0.425 -0.9826 0)
(0.425 -1.0982 0)
(0.425 -1.2138 0)
(0.425 -1.3294 0)
(0.425 -1.445 0)
(0.425 -1.5606 0)
(0.425 -1.6762 0)
(0.425 -1.7918 0)
(0.425 -1.9074 0)
(0.425 -2.023 0)
(0.425 -2.1386 0)
(0.425 -2.2542 0)
(0.425 -2.3698 0)
(0.425 -2.4854 0)
(0.425 -2.601 0)
(0.425 -2.7166 0)
(0.425 -2.8322 0)
(0.425 -2.9478 0)
(0.425 -3.0634 0)
(0.425 -3.179 0)
(0.425 -3.2946 0)
(0.425 -3.4102 0)
(0.425 -3.5258 0)
(0.425 -3.6414 0)
(0.425 -3.757 0)
(0.425 -3.8726 0)
(0.425 -3.9882 0)
(0.425 -4.1038 0)
(0.425 -4.2194 0)
(0.425 -4.335 0)
(0.425 -4.4506 0)
(0.425 -4.5662 0)
(0.425 -4.6818 0)
(0.425 -4.7974 0)
(0.425 -4.913 0)
(0.425 -5.0286 0)
(0.425 -5.1442 0)
(0.425 -5.2598 0)
(0.425 -5.3754 0)
(0.425 -5.491 0)
(0.425 -5.6066 0)
(0.425 -5.7222 0)
(0.49572 -0.0578 0)
(0.49572 -0.1734 0)
(0.49572 -0.289 0)
(0.49572 -0.4046 0)
(0.49572 -0.5202 0)
(0.49572 -0.6358 0)
(0.49572 -0.7514 0)
(0.49572 -0.867 0)
(0.49572 -0.9826 0)
(0.49572 -1.0982 0)
(0.49572 -1.2138 0)
(0.49572 -1.3294 0)
(0.49572 -1.445 0)
(0.49572 -1.5606 0)
(0.49572 -1.6762 0)
(0.49572 -1.7918 0)
(0.49572 -1.9074 0)
(0.49572 -2.023 0)
(0.49572 -2.1386 0)
(0.49572 -2.2542 0)
(0.49572 -2.3698 0)
(0.49572 -2.4854 0)
(0.49572 -2.601 0)
(0.49572 -2.7166 0)
(0.49572 -2.8322 0)
(0.49572 -2.9478 0)
(0.49572 -3.0634 0)
(0.49572 -3.179 0)
(0.49572 -3.2946 0)
(0.49572 -3.4102 0)
(0.49572 -3.5258 0)
(0.49572 -3.6414 0)
(0.49572 -3.757 0)
(0.49572 -3.8726 0)
(0.49572 -3.9882 0)
(0.49572 -4.1038 0)
(0.49572 -4.2194 0)
(0.49572 -4.335 0)
(0.49572 -4.4506 0)
(0.49572 -4.5662 0)
(0.49572 -4.6818 0)
(0.49572 -4.7974 0)
(0.49572 -4.913 0)
(0.49572 -5.0286 0)
(0.49572 -5.1442 0)
(0.49572 -5.2598 0)
(0.49572 -5.3754 0)
(0.49572 -5.491 0)
(0.49572 -5.6066 0)
(0.49572 -5.7222 0)
(0.57188 -0.0578 0)
(0.57188 -0.1734 0)
(0.57188 -0.289 0)
(0.57188 -0.4046 0)
(0.57188 -0.5202 0)
(0.57188 -0.6358 0)
(0.57188 -0.7514 0)
(0.57188 -0.867 0)
(0.57188 -0.9826 0)
(0.57188 -1.0982 0)
(0.57188 -1.2138 0)
(0.57188 -1.3294 0)
(0.57188 -1.445 0)
(0.57188 -1.5606 0)
(0.57188 -1.6762 0)
(0.57188 -1.7918 0)
(0.57188 -1.9074 0)
(0.57188 -2.023 0)
(0.57188 -2.1386 0)
(0.57188 -2.2542 0)
(0.57188 -2.3698 0)
(0.57188 -2.4854 0)
(0.57188 -2.601 0)
(0.57188 -2.7166 0)
(0.57188 -2.8322 0)
(0.57188 -2.9478 0)
(0.57188 -3.0634 0)
(0.57188 -3.179 0)
(0.57188 -3.2946 0)
(0.57188 -3.4102 0)
(0.57188 -3.5258 0)
(0.57188 -3.6414 0)
(0.57188 -3.757 0)
(0.57188 -3.8726 0)
(0.57188 -3.9882 0)
(0.57188 -4.1038 0)
(0.57188 -4.2194 0)
(0.57188 -4.335 0)
(0.57188 -4.4506 0)
(0.57188 -4.5662 0)
(0.57188 -4.6818 0)
(0.57188 -4.7974 0)
(0.57188 -4.913 0)
(0.57188 -5.0286 0)
(0.57188 -5.1442 0)
(0.57188 -5.2598 0)
(0.57188 -5.3754 0)
(0.57188 -5.491 0)
(0.57188 -5.6066 0)
(0.57188 -5.7222 0)
(0.65348 -0.0578 0)
(0.65348 -0.1734 0)
(0.65348 -0.289 0)
(0.65348 -0.4046 0)
(0.65348 -0.5202 0)
(0.65348 -0.6358 0)
(0.65348 -0.7514 0)
(0.65348 -0.867 0)
(0.65348 -0.9826 0)
(0.65348 -1.0982 0)
(0.65348 -1.2138 0)
(0.65348 -1.3294 0)
(0.65348 -1.445 0)
(0.65348 -1.5606 0)
(0.65348 -1.6762 0)
(0.65348 -1.7918 0)
(0.65348 -1.9074 0)
(0.65348 -2.023 0)
(0.65348 -2.1386 0)
(0.65348 -2.2542 0)
(0.65348 -2.3698 0)
(0.65348 -2.4854 0)
(0.65348 -2.601 0)
(0.65348 -2.7166 0)
(0.65348 -2.8322 0)
(0.65348 -2.9478 0)
(0.65348 -3.0634 0)
(0.65348 -3.179 0)
(0.65348 -3.2946 0)
(0.65348 -3.4102 0)
(0.65348 -3.5258 0)
(0.65348 -3.6414 0)
(0.65348 -3.757 0)
(0.65348 -3.8726 0)
(0.65348 -3.9882 0)
(0.65348 -4.1038 0)
(0.65348 -4.2194 0)
(0.65348 -4.335 0)
(0.65348 -4.4506 0)
(0.65348 -4.5662 0)
(0.65348 -4.6818 0)
(0.65348 -4.7974 0)
(0.65348 -4.913 0)
(0.65348 -5.0286 0)
(0.65348 -5.1442 0)
(0.65348 -5.2598 0)
(0.65348 -5.3754 0)
(0.65348 -5.491 0)
(0.65348 -5.6066 0)
(0.65348 -5.7222 0)
(0.74052 -0.0578 0)
(0.74052 -0.1734 0)
(0.74052 -0.289 0)
(0.74052 -0.4046 0)
(0.74052 -0.5202 0)
(0.74052 -0.6358 0)
(0.74052 -0.7514 0)
(0.74052 -0.867 0)
(0.74052 -0.9826 0)
(0.74052 -1.0982 0)
(0.74052 -1.2138 0)
(0.74052 -1.3294 0)
(0.74052 -1.445 0)
(0.74052 -1.5606 0)
(0.74052 -1.6762 0)
(0.74052 -1.7918 0)
(0.74052 -1.9074 0)
(0.74052 -2.023 0)
(0.74052 -2.1386 0)
(0.74052 -2.2542 0)
(0.74052 -2.3698 0)
(0.74052 -2.4854 0)
(0.74052 -2.601 0)
(0.74052 -2.7166 0)
(0.74052 -2.8322 0)
(0.74052 -2.9478 0)
(0.74052 -3.0634 0)
(0.74052 -3.179 0)
(0.74052 -3.2946 0)
(0.74052 -3.4102 0)
(0.74052 -3.5258 0)
(0.74052 -3.6414 0)
(0.74052 -3.757 0)
(0.74052 -3.8726 0)
(0.74052 -3.9882 0)
(0.74052 -4.1038 0)
(0.74052 -4.2194 0)
(0.74052 -4.335 0)
(0.74052 -4.4506 0)
(0.74052 -4.5662 0)
(0.74052 -4.6818 0)
(0.74052 -4.7974 0)
(0.74052 -4.913 0)
(0.74052 -5.0286 0)
(0.74052 -5.1442 0)
(0.74052 -5.2598 0)
(0.74052 -5.3754 0)
(0.74052 -5.491 0)
(0.74052 -5.6066 0)
(0.74052 -5.7222 0)
(0.833 -0.0578 0)
(0.833 -0.1734 0)
(0.833 -0.289 0)
(0.833 -0.4046 0)
(0.833 -0.5202 0)
(0.833 -0.6358 0)
(0.833 -0.7514 0)
(0.833 -0.867 0)
(0.833 -0.9826 0)
(0.833 -1.0982 0)
(0.833 -1.2138 0)
(0.833 -1.3294 0)
(0.833 -1.445 0)
(0.833 -1.5606 0)
(0.833 -1.6762 0)
(0.833 -1.7918 0)
(0.833 -1.9074 0)
(0.833 -2.023 0)
(0.833 -2.1386 0)
(0.833 -2.2542 0)
(0.833 -2.3698 0)
(0.833 -2.4854 0)
(0.833 -2.601 0)
(0.833 -2.7166 0)
(0.833 -2.8322 0)
(0.833 -2.9478 0)
(0.833 -3.0634 0)
(0.833 -3.179 0)
(0.833 -3.2946 0)
(0.833 -3.4102 0)
(0.833 -3.5258 0)
(0.833 -3.6414 0)
(0.833 -3.757 0)
(0.833 -3.8726 0)
(0.833 -3.9882 0)
(0.833 -4.1038 0)
(0.833 -4.2194 0)
(0.833 -4.335 0)
(0.833 -4.4506 0)
(0.833 -4.5662 0)
(0.833 -4.6818 0)
(0.833 -4.7974 0)
(0.833 -4.913 0)
(0.833 -5.0286 0)
(0.833 -5.1442 0)
(0.833 -5.2598 0)
(0.833 -5.3754 0)
(0.833 -5.491 0)
(0.833 -5.6066 0)
(0.833 -5.7222 0)
(0.93092 -0.0578 0)
(0.93092 -0.1734 0)
(0.93092 -0.289 0)
(0.93092 -0.4046 0)
(0.93092 -0.5202 0)
(0.93092 -0.6358 0)
(0.93092 -0.7514 0)
(0.93092 -0.867 0)
(0.93092 -0.9826 0)
(0.93092 -1.0982 0)
(0.93092 -1.2138 0)
(0.93092 -1.3294 0)
(0.93092 -1.445 0)
(0.93092 -1.5606 0)
(0.93092 -1.6762 0)
(0.93092 -1.7918 0)
(0.93092 -1.9074 0)
(0.93092 -2.023 0)
(0.93092 -2.1386 0)
(0.93092 -2.2542 0)
(0.93092 -2.3698 0)
(0.93092 -2.4854 0)
(0.93092 -2.601 0)
(0.93092 -2.7166 0)
(0.93092 -2.8322 0)
(0.93092 -2.9478 0)
(0.93092 -3.0634 0)
(0.93092 -3.179 0)
(0.93092 -3.2946 0)
(0.93092 -3.4102 0)
(0.93092 -3.5258 0)
(0.93092 -3.6414 0)
(0.93092 -3.757 0)
(0.93092 -3.8726 0)
(0.93092 -3.9882 0)
(0.93092 -4.1038 0)
(0.93092 -4.2194 0)
(0.93092 -4.335 0)
(0.93092 -4.4506 0)
(0.93092 -4.5662 0)
(0.93092 -4.6818 0)
(0.93092 -4.7974 0)
(0.93092 -4.913 0)
(0.93092 -5.0286 0)
(0.93092 -5.1442 0)
(0.93092 -5.2598 0)
(0.93092 -5.3754 0)
(0.93092 -5.491 0)
(0.93092 -5.6066 0)
(0.93092 -5.7222 0)
(1.03428 -0.0578 0)
(1.03428 -0.1734 0)
(1.03428 -0.289 0)
(1.03428 -0.4046 0)
(1.03428 -0.5202 0)
(1.03428 -0.6358 0)
(1.03428 -0.7514 0)
(1.03428 -0.867 0)
(1.03428 -0.9826 0)
(1.03428 -1.0982 0)
(1.03428 -1.2138 0)
(1.03428 -1.3294 0)
(1.03428 -1.445 0)
(1.03428 -1.5606 0)
(1.03428 -1.6762 0)
(1.03428 -1.7918 0)
(1.03428 -1.9074 0)
(1.03428 -2.023 0)
(1.03428 -2.1386 0)
(1.03428 -2.2542 0)
(1.03428 -2.3698 0)
(1.03428 -2.4854 0)
(1.03428 -2.601 0)
(1.03428 -2.7166 0)
(1.03428 -2.8322 0)
(1.03428 -2.9478 0)
(1.03428 -3.0634 0)
(1.03428 -3.179 0)
(1.03428 -3.2946 0)
(1.03428 -3.4102 0)
(1.03428 -3.5258 0)
(1.03428 -3.6414 0)
(1.03428 -3.757 0)
(1.03428 -3.8726 0)
(1.03428 -3.9882 0)
(1.03428 -4.1038 0)
(1.03428 -4.2194 0)
(1.03428 -4.335 0)
(1.03428 -4.4506 0)
(1.03428 -4.5662 0)
(1.03428 -4.6818 0)
(1.03428 -4.7974 0)
(1.03428 -4.913 0)
(1.03428 -5.0286 0)
(1.03428 -5.1442 0)
(1.03428 -5.2598 0)
(1.03428 -5.3754 0)
(1.03428 -5.491 0)
(1.03428 -5.6066 0)
(1.03428 -5.7222 0)
(1.14308 -0.0578 0)
(1.14308 -0.1734 0)
(1.14308 -0.289 0)
(1.14308 -0.4046 0)
(1.14308 -0.5202 0)
(1.14308 -0.6358 0)
(1.14308 -0.7514 0)
(1.14308 -0.867 0)
(1.14308 -0.9826 0)
(1.14308 -1.0982 0)
(1.14308 -1.2138 0)
(1.14308 -1.3294 0)
(1.14308 -1.445 0)
(1.14308 -1.5606 0)
(1.14308 -1.6762 0)
(1.14308 -1.7918 0)
(1.14308 -1.9074 0)
(1.14308 -2.023 0)
(1.14308 -2.1386 0)
(1.14308 -2.2542 0)
(1.14308 -2.3698 0)
(1.14308 -2.4854 0)
(1.14308 -2.601 0)
(1.14308 -2.7166 0)
(1.14308 -2.8322 0)
(1.14308 -2.9478 0)
(1.14308 -3.0634 0)
(1.14308 -3.179 0)
(1.14308 -3.2946 0)
(1.14308 -3.4102 0)
(1.14308 -3.5258 0)
(1.14308 -3.6414 0)
(1.14308 -3.757 0)
(1.14308 -3.8726 0)
(1.14308 -3.9882 0)
(1.14308 -4.1038 0)
(1.14308 -4.2194 0)
(1.14308 -4.335 0)
(1.14308 -4.4506 0)
(1.14308 -4.5662 0)
(1.14308 -4.6818 0)
(1.14308 -4.7974 0)
(1.14308 -4.913 0)
(1.14308 -5.0286 0)
(1.14308 -5.1442 0)
(1.14308 -5.2598 0)
(1.14308 -5.3754 0)
(1.14308 -5.491 0)
(1.14308 -5.6066 0)
(1.14308 -5.7222 0)
(1.25732 -0.0578 0)
(1.25732 -0.1734 0)
(1.25732 -0.289 0)
(1.25732 -0.4046 0)
(1.25732 -0.5202 0)
(1.25732 -0.6358 0)
(1.25732 -0.7514 0)
(1.25732 -0.867 0)
(1.25732 -0.9826 0)
(1.25732 -1.0982 0)
(1.25732 -1.2138 0)
(1.25732 -1.3294 0)
(1.25732 -1.445 0)
(1.25732 -1.5606 0)
(1.25732 -1.6762 0)
(1.25732 -1.7918 0)
(1.25732 -1.9074 0)
(1.25732 -2.023 0)
(1.25732 -2.1386 0)
(1.25732 -2.2542 0)
(1.25732 -2.3698 0)
(1.25732 -2.4854 0)
(1.25732 -2.601 0)
(1.25732 -2.7166 0)
(1.25732 -2.8322 0)
(1.25732 -2.9478 0)
(1.25732 -3.0634 0)
(1.25732 -3.179 0)
(1.25732 -3.2946 0)
(1.25732 -3.4102 0)
(1.25732 -3.5258 0)
(1.25732 -3.6414 0)
(1.25732 -3.757 0)
(1.25732 -3.8726 0)
(1.25732 -3.9882 0)
(1.25732 -4.1038 0)
(1.25732 -4.2194 0)
(1.25732 -4.335 0)
(1.25732 -4.4506 0)
(1.25732 -4.5662 0)
(1.25732 -4.6818 0)
(1.25732 -4.7974 0)
(1.25732 -4.913 0)
(1.25732 -5.0286 0)
(1.25732 -5.1442 0)
(1.25732 -5.2598 0)
(1.25732 -5.3754 0)
(1.25732 -5.491 0)
(1.25732 -5.6066 0)
(1.25732 -5.7222 0)
(1.377 -0.0578 0)
(1.377 -0.1734 0)
(1.377 -0.289 0)
(1.377 -0.4046 0)
(1.377 -0.5202 0)
(1.377 -0.6358 0)
(1.377 -0.7514 0)
(1.377 -0.867 0)
(1.377 -0.9826 0)
(1.377 -1.0982 0)
(1.377 -1.2138 0)
(1.377 -1.3294 0)
(1.377 -1.445 0)
(1.377 -1.5606 0)
(1.377 -1.6762 0)
(1.377 -1.7918 0)
(1.377 -1.9074 0)
(1.377 -2.023 0)
(1.377 -2.1386 0)
(1.377 -2.2542 0)
(1.377 -2.3698 0)
(1.377 -2.4854 0)
(1.377 -2.601 0)
(1.377 -2.7166 0)
(1.377 -2.8322 0)
(1.377 -2.9478 0)
(1.377 -3.0634 0)
(1.377 -3.179 0)
(1.377 -3.2946 0)
(1.377 -3.4102 0)
(1.377 -3.5258 0)
(1.377 -3.6414 0)
(1.377 -3.757 0)
(1.377 -3.8726 0)
(1.377 -3.9882 0)
(1.377 -4.1038 0)
(1.377 -4.2194 0)
(1.377 -4.335 0)
(1.377 -4.4506 0)
(1.377 -4.5662 0)
(1.377 -4.6818 0)
(1.377 -4.7974 0)
(1.377 -4.913 0)
(1.377 -5.0286 0)
(1.377 -5.1442 0)
(1.377 -5.2598 0)
(1.377 -5.3754 0)
(1.377 -5.491 0)
(1.377 -5.6066 0)
(1.377 -5.7222 0)
(1.50212 -0.0578 0)
(1.50212 -0.1734 0)
(1.50212 -0.289 0)
(1.50212 -0.4046 0)
(1.50212 -0.5202 0)
(1.50212 -0.6358 0)
(1.50212 -0.7514 0)
(1.50212 -0.867 0)
(1.50212 -0.9826 0)
(1.50212 -1.0982 0)
(1.50212 -1.2138 0)
(1.50212 -1.3294 0)
(1.50212 -1.445 0)
(1.50212 -1.5606 0)
(1.50212 -1.6762 0)
(1.50212 -1.7918 0)
(1.50212 -1.9074 0)
(1.50212 -2.023 0)
(1.50212 -2.1386 0)
(1.50212 -2.2542 0)
(1.50212 -2.3698 0)
(1.50212 -2.4854 0)
(1.50212 -2.601 0)
(1.50212 -2.7166 0)
(1.50212 -2.8322 0)
(1.50212 -2.9478 0)
(1.50212 -3.0634 0)
(1.50212 -3.179 0)
(1.50212 -3.2946 0)
(1.50212 -3.4102 0)
(1.50212 -3.5258 0)
(1.50212 -3.6414 0)
(1.50212 -3.757 0)
(1.50212 -3.8726 0)
(1.50212 -3.9882 0)
(1.50212 -4.1038 0)
(1.50212 -4.2194 0)
(1.50212 -4.335 0)
(1.50212 -4.4506 0)
(1.50212 -4.5662 0)
(1.50212 -4.6818 0)
(1.50212 -4.7974 0)
(1.50212 -4.913 0)
(1.50212 -5.0286 0)
(1.50212 -5.1442 0)
(1.50212 -5.2598 0)
(1.50212 -5.3754 0)
(1.50212 -5.491 0)
(1.50212 -5.6066 0)
(1.50212 -5.7222 0)
(1.63268 -0.0578 0)
(1.63268 -0.1734 0)
(1.63268 -0.289 0)
(1.63268 -0.4046 0)
(1.63268 -0.5202 0)
(1.63268 -0.6358 0)
(1.63268 -0.7514 0)
(1.63268 -0.867 0)
(1.63268 -0.9826 0)
(1.63268 -1.0982 0)
(1.63268 -1.2138 0)
(1.63268 -1.3294 0)
(1.63268 -1.445 0)
(1.63268 -1.5606 0)
(1.63268 -1.6762 0)
(1.63268 -1.7918 0)
(1.63268 -1.9074 0)
(1.63268 -2.023 0)
(1.63268 -2.1386 0)
(1.63268 -2.2542 0)
(1.63268 -2.3698 0)
(1.63268 -2.4854 0)
(1.63268 -2.601 0)
(1.63268 -2.7166 0)
(1.63268 -2.8322 0)
(1.63268 -2.9478 0)
(1.63268 -3.0634 0)
(1.63268 -3.179 0)
(1.63268 -3.2946 0)
(1.63268 -3.4102 0)
(1.63268 -3.5258 0)
(1.63268 -3.6414 0)
(1.63268 -3.757 0)
(1.63268 -3.8726 0)
(1.63268 -3.9882 0)
(1.63268 -4.1038 0)
(1.63268 -4.2194 0)
(1.63268 -4.335 0)
(1.63268 -4.4506 0)
(1.63268 -4.5662 0)
(1.63268 -4.6818 0)
(1.63268 -4.7974 0)
(1.63268 -4.913 0)
(1.63268 -5.0286 0)
(1.63268 -5.1442 0)
(1.63268 -5.2598 0)
(1.63268 -5.3754 0)
(1.63268 -5.491 0)
(1.63268 -5.6066 0)
(1.63268 -5.7222 0)
(1.76868 -0.0578 0)
(1.76868 -0.1734 0)
(1.76868 -0.289 0)
(1.76868 -0.4046 0)
(1.76868 -0.5202 0)
(1.76868 -0.6358 0)
(1.76868 -0.7514 0)
(1.76868 -0.867 0)
(1.76868 -0.9826 0)
(1.76868 -1.0982 0)
(1.76868 -1.2138 0)
(1.76868 -1.3294 0)
(1.76868 -1.445 0)
(1.76868 -1.5606 0)
(1.76868 -1.6762 0)
(1.76868 -1.7918 0)
(1.76868 -1.9074 0)
(1.76868 -2.023 0)
(1.76868 -2.1386 0)
(1.76868 -2.2542 0)
(1.76868 -2.3698 0)
(1.76868 -2.4854 0)
(1.76868 -2.601 0)
(1.76868 -2.7166 0)
(1.76868 -2.8322 0)
(1.76868 -2.9478 0)
(1.76868 -3.0634 0)
(1.76868 -3.179 0)
(1.76868 -3.2946 0)
(1.76868 -3.4102 0)
(1.76868 -3.5258 0)
(1.76868 -3.6414 0)
(1.76868 -3.757 0)
(1.76868 -3.8726 0)
(1.76868 -3.9882 0)
(1.76868 -4.1038 0)
(1.76868 -4.2194 0)
(1.76868 -4.335 0)
(1.76868 -4.4506 0)
(1.76868 -4.5662 0)
(1.76868 -4.6818 0)
(1.76868 -4.7974 0)
(1.76868 -4.913 0)
(1.76868 -5.0286 0)
(1.76868 -5.1442 0)
(1.76868 -5.2598 0)
(1.76868 -5.3754 0)
(1.76868 -5.491 0)
(1.76868 -5.6066 0)
(1.76868 -5.7222 0)
(1.91012 -0.0578 0)
(1.91012 -0.1734 0)
(1.91012 -0.289 0)
(1.91012 -0.4046 0)
(1.91012 -0.5202 0)
(1.91012 -0.6358 0)
(1.91012 -0.7514 0)
(1.91012 -0.867 0)
(1.91012 -0.9826 0)
(1.91012 -1.0982 0)
(1.91012 -1.2138 0)
(1.91012 -1.3294 0)
(1.91012 -1.445 0)
(1.91012 -1.5606 0)
(1.91012 -1.6762 0)
(1.91012 -1.7918 0)
(1.91012 -1.9074 0)
(1.91012 -2.023 0)
(1.91012 -2.1386 0)
(1.91012 -2.2542 0)
(1.91012 -2.3698 0)
(1.91012 -2.4854 0)
(1.91012 -2.601 0)
(1.91012 -2.7166 0)
(1.91012 -2.8322 0)
(1.91012 -2.9478 0)
(1.91012 -3.0634 0)
(1.91012 -3.179 0)
(1.91012 -3.2946 0)
(1.91012 -3.4102 0)
(1.91012 -3.5258 0)
(1.91012 -3.6414 0)
(1.91012 -3.757 0)
(1.91012 -3.8726 0)
(1.91012 -3.9882 0)
(1.91012 -4.1038 0)
(1.91012 -4.2194 0)
(1.91012 -4.335 0)
(1.91012 -4.4506 0)
(1.91012 -4.5662 0)
(1.91012 -4.6818 0)
(1.91012 -4.7974 0)
(1.91012 -4.913 0)
(1.91012 -5.0286 0)
(1.91012 -5.1442 0)
(1.91012 -5.2598 0)
(1.91012 -5.3754 0)
(1.91012 -5.491 0)
(1.91012 -5.6066 0)
(1.91012 -5.7222 0)
(2.057 -0.0578 0)
(2.057 -0.1734 0)
(2.057 -0.289 0)
(2.057 -0.4046 0)
(2.057 -0.5202 0)
(2.057 -0.6358 0)
(2.057 -0.7514 0)
(2.057 -0.867 0)
(2.057 -0.9826 0)
(2.057 -1.0982 0)
(2.057 -1.2138 0)
(2.057 -1.3294 0)
(2.057 -1.445 0)
(2.057 -1.5606 0)
(2.057 -1.6762 0)
(2.057 -1.7918 0)
(2.057 -1.9074 0)
(2.057 -2.023 0)
(2.057 -2.1386 0)
(2.057 -2.2542 0)
(2.057 -2.3698 0)
(2.057 -2.4854 0)
(2.057 -2.601 0)
(2.057 -2.7166 0)
(2.057 -2.8322 0)
(2.057 -2.9478 0)
(2.057 -3.0634 0)
(2.057 -3.179 0)
(2.057 -3.2946 0)
(2.057 -3.4102 0)
(2.057 -3.5258 0)
(2.057 -3.6414 0)
(2.057 -3.757 0)
(2.057 -3.8726 0)
(2.057 -3.9882 0)
(2.057 -4.1038 0)
(2.057 -4.2194 0)
(2.057 -4.335 0)
(2.057 -4.4506 0)
(2.057 -4.5662 0)
(2.057 -4.6818 0)
(2.057 -4.7974 0)
(2.057 -4.913 0)
(2.057 -5.0286 0)
(2.057 -5.1442 0)
(2.057 -5.2598 0)
(2.057 -5.3754 0)
(2.057 -5.491 0)
(2.057 -5.6066 0)
(2.057 -5.7222 0)
(2.20932 -0.0578 0)
(2.20932 -0.1734 0)
(2.20932 -0.289 0)
(2.20932 -0.4046 0)
(2.20932 -0.5202 0)
(2.20932 -0.6358 0)
(2.20932 -0.7514 0)
(2.20932 -0.867 0)
(2.20932 -0.9826 0)
(2.20932 -1.0982 0)
(2.20932 -1.2138 0)
(2.20932 -1.3294 0)
(2.20932 -1.445 0)
(2.20932 -1.5606 0)
(2.20932 -1.6762 0)
(2.20932 -1.7918 0)
(2.20932 -1.9074 0)
(2.20932 -2.023 0)
(2.20932 -2.1386 0)
(2.20932 -2.2542 0)
(2.20932 -2.3698 0)
(2.20932 -2.4854 0)
(2.20932 -2.601 0)
(2.20932 -2.7166 0)
(2.20932 -2.8322 0)
(2.20932 -2.9478 0)
(2.20932 -3.0634 0)
(2.20932 -3.179 0)
(2.20932 -3.2946 0)
(2.20932 -3.4102 0)
(2.20932 -3.5258 0)
(2.20932 -3.6414 0)
(2.20932 -3.757 0)
(2.20932 -3.8726 0)
(2.20932 -3.9882 0)
(2.20932 -4.1038 0)
(2.20932 -4.2194 0)
(2.20932 -4.335 0)
(2.20932 -4.4506 0)
(2.20932 -4.5662 0)
(2.20932 -4.6818 0)
(2.20932 -4.7974 0)
(2.20932 -4.913 0)
(2.20932 -5.0286 0)
(2.20932 -5.1442 0)
(2.20932 -5.2598 0)
(2.20932 -5.3754 0)
(2.20932 -5.491 0)
(2.20932 -5.6066 0)
(2.20932 -5.7222 0)
(2.36708 -0.0578 0)
(2.36708 -0.1734 0)
(2.36708 -0.289 0)
(2.36708 -0.4046 0)
(2.36708 -0.5202 0)
(2.36708 -0.6358 0)
(2.36708 -0.7514 0)
(2.36708 -0.867 0)
(2.36708 -0.9826 0)
(2.36708 -1.0982 0)
(2.36708 -1.2138 0)
(2.36708 -1.3294 0)
(2.36708 -1.445 0)
(2.36708 -1.5606 0)
(2.36708 -1.6762 0)
(2.36708 -1.7918 0)
(2.36708 -1.9074 0)
(2.36708 -2.023 0)
(2.36708 -2.1386 0)
(2.36708 -2.2542 0)
(2.36708 -2.3698 0)
(2.36708 -2.4854 0)
(2.36708 -2.601 0)
(2.36708 -2.7166 0)
(2.36708 -2.8322 0)
(2.36708 -2.9478 0)
(2.36708 -3.0634 0)
(2.36708 -3.179 0)
(2.36708 -3.2946 0)
(2.36708 -3.4102 0)
(2.36708 -3.5258 0)
(2.36708 -3.6414 0)
(2.36708 -3.757 0)
(2.36708 -3.8726 0)
(2.36708 -3.9882 0)
(2.36708 -4.1038 0)
(2.36708 -4.2194 0)
(2.36708 -4.335 0)
(2.36708 -4.4506 0)
(2.36708 -4.5662 0)
(2.36708 -4.6818 0)
(2.36708 -4.7974 0)
(2.36708 -4.913 0)
(2.36708 -5.0286 0)
(2.36708 -5.1442 0)
(2.36708 -5.2598 0)
(2.36708 -5.3754 0)
(2.36708 -5.491 0)
(2.36708 -5.6066 0)
(2.36708 -5.7222 0)
(2.53028 -0.0578 0)
(2.53028 -0.1734 0)