/*--------------------------------*- C++ -*----------------------------------*\
| =========                 |                                                 |
| \\      /  F ield         | OpenFOAM: The Open Source CFD Toolbox           |
|  \\    /   O peration     | Version:  v2006                                 |
|   \\  /    A nd           | Website:  www.openfoam.com                      |
|    \\/     M anipulation  |                                                 |
\*---------------------------------------------------------------------------*/
FoamFile
{
    version     2.0;
    format      ascii;
    class       volScalarField;
    location    "16";
    object      p;
}
// * * * * * * * * * * * * * * * * * * * * * * * * * * * * * * * * * * * * * //

dimensions      [1 -1 -2 0 0 0 0];


internalField   nonuniform List<scalar> 
50000
(
22279.4
22279.2
22278.9
22278.5
22277.9
22277.1
22276.2
22275.2
22274
22272.7
22271.3
22269.7
22268.1
22266.3
22264.4
22262.5
22260.4
22258.2
22255.9
22253.6
22251.2
22248.6
22246.1
22243.4
22240.7
22237.9
22235.1
22232.3
22229.3
22226.4
22223.4
22220.3
22217.2
22214.1
22211
22207.8
22204.7
22201.5
22198.3
22195.1
22192
22188.8
22185.6
22182.4
22179.2
22176.1
22173
22169.9
22166.8
22163.7
22160.7
22157.8
22154.8
22152
22149.1
22146.3
22143.6
22141
22138.4
22135.8
22133.3
22130.9
22128.6
22126.3
22124.1
22122
22119.9
22118
22116.1
22114.2
22112.5
22110.9
22109.3
22107.8
22106.4
22105
22103.8
22102.6
22101.6
22100.6
22099.7
22098.8
22098.1
22097.4
22096.8
22096.3
22095.9
22095.5
22095.2
22095
22094.9
22094.9
22094.9
22095
22095.2
22095.4
22095.7
22096.1
22096.6
22097.1
22097.6
22098.2
22098.9
22099.6
22100.4
22101.2
22102.1
22103
22103.9
22104.9
22105.9
22107
22108.1
22109.2
22110.4
22111.6
22112.8
22114
22115.2
22116.5
22117.7
22118.9
22120.2
22121.4
22122.6
22123.8
22125
22126.1
22127.3
22128.4
22129.5
22130.5
22131.5
22132.5
22133.4
22134.3
22135.2
22135.9
22136.7
22137.4
22138
22138.6
22139.1
22139.5
22139.9
22140.3
22140.5
22140.7
22140.9
22140.9
21828.3
21828.2
21827.9
21827.4
21826.8
21826
21825.1
21824.1
21822.9
21821.6
21820.2
21818.7
21817
21815.2
21813.3
21811.3
21809.2
21807.1
21804.8
21802.4
21800
21797.5
21794.9
21792.3
21789.6
21786.8
21784
21781.1
21778.1
21775.2
21772.2
21769.1
21766
21762.9
21759.8
21756.6
21753.4
21750.3
21747.1
21743.8
21740.6
21737.4
21734.3
21731.1
21727.9
21724.8
21721.6
21718.5
21715.4
21712.4
21709.4
21706.4
21703.5
21700.6
21697.8
21695
21692.2
21689.6
21687
21684.4
21681.9
21679.5
21677.2
21674.9
21672.7
21670.6
21668.5
21666.5
21664.6
21662.8
21661.1
21659.4
21657.9
21656.4
21654.9
21653.6
21652.4
21651.2
21650.1
21649.1
21648.2
21647.4
21646.6
21646
21645.4
21644.9
21644.4
21644.1
21643.8
21643.6
21643.5
21643.5
21643.5
21643.6
21643.8
21644
21644.3
21644.7
21645.2
21645.7
21646.2
21646.8
21647.5
21648.2
21649
21649.8
21650.7
21651.6
21652.6
21653.6
21654.6
21655.7
21656.8
21657.9
21659.1
21660.3
21661.5
21662.7
21663.9
21665.2
21666.4
21667.7
21668.9
21670.1
21671.4
21672.6
21673.8
21674.9
21676.1
21677.2
21678.3
21679.3
21680.3
21681.3
21682.3
21683.1
21684
21684.8
21685.5
21686.2
21686.8
21687.4
21687.9
21688.4
21688.8
21689.1
21689.4
21689.6
21689.7
21689.8
21377.4
21377.3
21377
21376.6
21375.9
21375.2
21374.3
21373.2
21372
21370.7
21369.3
21367.7
21366.1
21364.3
21362.4
21360.4
21358.3
21356.1
21353.8
21351.4
21349
21346.5
21343.9
21341.2
21338.5
21335.7
21332.9
21330
21327
21324.1
21321
21318
21314.9
21311.8
21308.6
21305.4
21302.3
21299.1
21295.8
21292.6
21289.4
21286.2
21283
21279.8
21276.6
21273.4
21270.3
21267.2
21264.1
21261
21258
21255
21252
21249.1
21246.3
21243.5
21240.8
21238.1
21235.4
21232.9
21230.4
21228
21225.6
21223.3
21221.1
21219
21216.9
21214.9
21213
21211.2
21209.5
21207.8
21206.2
21204.7
21203.3
21202
21200.8
21199.6
21198.5
21197.5
21196.6
21195.8
21195
21194.4
21193.8
21193.3
21192.9
21192.5
21192.2
21192
21191.9
21191.9
21191.9
21192
21192.2
21192.5
21192.8
21193.2
21193.6
21194.1
21194.7
21195.3
21196
21196.7
21197.5
21198.4
21199.3
21200.2
21201.2
21202.2
21203.2
21204.3
21205.5
21206.6
21207.8
21209
21210.2
21211.4
21212.7
21213.9
21215.2
21216.4
21217.7
21218.9
21220.2
21221.4
21222.6
21223.8
21224.9
21226.1
21227.2
21228.2
21229.2
21230.2
21231.2
21232.1
21232.9
21233.7
21234.5
21235.2
21235.8
21236.4
21236.9
21237.4
21237.8
21238.1
21238.4
21238.6
21238.7
21238.8
20926.8
20926.6
20926.4
20925.9
20925.3
20924.5
20923.6
20922.5
20921.3
20920
20918.6
20917
20915.3
20913.5
20911.6
20909.6
20907.4
20905.2
20902.9
20900.6
20898.1
20895.6
20892.9
20890.3
20887.5
20884.7
20881.9
20879
20876
20873
20870
20866.9
20863.8
20860.6
20857.5
20854.3
20851.1
20847.8
20844.6
20841.4
20838.1
20834.9
20831.7
20828.4
20825.2
20822
20818.9
20815.7
20812.6
20809.5
20806.5
20803.5
20800.5
20797.6
20794.7
20791.9
20789.1
20786.4
20783.8
20781.2
20778.7
20776.3
20773.9
20771.6
20769.4
20767.3
20765.2
20763.2
20761.3
20759.5
20757.7
20756
20754.5
20753
20751.5
20750.2
20749
20747.8
20746.7
20745.7
20744.8
20744
20743.3
20742.6
20742
20741.5
20741.1
20740.7
20740.5
20740.3
20740.2
20740.2
20740.2
20740.3
20740.5
20740.8
20741.1
20741.5
20742
20742.5
20743.1
20743.7
20744.4
20745.2
20746
20746.8
20747.7
20748.7
20749.7
20750.7
20751.8
20752.9
20754
20755.2
20756.4
20757.6
20758.9
20760.1
20761.4
20762.7
20763.9
20765.2
20766.5
20767.7
20769
20770.2
20771.4
20772.6
20773.8
20775
20776.1
20777.2
20778.2
20779.2
20780.2
20781.1
20781.9
20782.7
20783.5
20784.2
20784.9
20785.5
20786
20786.4
20786.8
20787.2
20787.5
20787.7
20787.8
20787.9
20476.3
20476.2
20475.9
20475.4
20474.8
20474
20473.1
20472
20470.8
20469.5
20468
20466.4
20464.7
20462.9
20460.9
20458.9
20456.8
20454.5
20452.2
20449.8
20447.3
20444.7
20442.1
20439.4
20436.7
20433.8
20431
20428
20425
20422
20419
20415.9
20412.7
20409.6
20406.4
20403.1
20399.9
20396.7
20393.4
20390.1
20386.9
20383.6
20380.3
20377.1
20373.8
20370.6
20367.4
20364.2
20361.1
20358
20354.9
20351.9
20348.9
20345.9
20343
20340.2
20337.4
20334.7
20332
20329.4
20326.9
20324.4
20322.1
20319.7
20317.5
20315.4
20313.3
20311.3
20309.3
20307.5
20305.8
20304.1
20302.5
20301
20299.6
20298.2
20297
20295.8
20294.8
20293.8
20292.9
20292
20291.3
20290.6
20290.1
20289.6
20289.2
20288.8
20288.6
20288.4
20288.3
20288.3
20288.3
20288.5
20288.7
20288.9
20289.3
20289.7
20290.2
20290.7
20291.3
20292
20292.7
20293.5
20294.3
20295.2
20296.1
20297.1
20298.1
20299.2
20300.3
20301.4
20302.6
20303.8
20305
20306.2
20307.5
20308.8
20310.1
20311.4
20312.7
20314
20315.3
20316.6
20317.8
20319.1
20320.3
20321.6
20322.8
20323.9
20325.1
20326.2
20327.2
20328.3
20329.2
20330.2
20331.1
20331.9
20332.7
20333.4
20334
20334.6
20335.2
20335.7
20336.1
20336.4
20336.7
20336.9
20337
20337.1
20026
20025.9
20025.6
20025.2
20024.5
20023.7
20022.8
20021.7
20020.5
20019.1
20017.6
20016
20014.3
20012.4
20010.4
20008.4
20006.2
20003.9
20001.6
19999.2
19996.6
19994.1
19991.4
19988.7
19985.9
19983
19980.1
19977.2
19974.2
19971.1
19968
19964.9
19961.7
19958.5
19955.3
19952
19948.8
19945.5
19942.2
19938.9
19935.6
19932.3
19929
19925.7
19922.4
19919.2
19915.9
19912.7
19909.5
19906.4
19903.3
19900.2
19897.2
19894.2
19891.2
19888.4
19885.6
19882.8
19880.1
19877.5
19874.9
19872.5
19870.1
19867.7
19865.5
19863.3
19861.2
19859.2
19857.2
19855.4
19853.6
19851.9
19850.4
19848.8
19847.4
19846.1
19844.8
19843.7
19842.6
19841.6
19840.7
19839.9
19839.2
19838.5
19837.9
19837.5
19837.1
19836.7
19836.5
19836.3
19836.2
19836.2
19836.3
19836.5
19836.7
19837
19837.3
19837.8
19838.2
19838.8
19839.4
19840.1
19840.9
19841.7
19842.5
19843.4
19844.4
19845.4
19846.5
19847.6
19848.7
19849.9
19851
19852.3
19853.5
19854.8
19856.1
19857.4
19858.7
19860.1
19861.4
19862.7
19864.1
19865.4
19866.7
19868
19869.3
19870.5
19871.8
19873
19874.1
19875.3
19876.4
19877.4
19878.4
19879.4
19880.3
19881.1
19881.9
19882.7
19883.3
19883.9
19884.5
19885
19885.4
19885.8
19886
19886.3
19886.4
19886.5
19575.9
19575.8
19575.5
19575.1
19574.4
19573.6
19572.7
19571.6
19570.3
19568.9
19567.4
19565.8
19564
19562.1
19560.1
19558
19555.8
19553.5
19551.1
19548.6
19546.1
19543.5
19540.8
19538
19535.2
19532.3
19529.4
19526.4
19523.4
19520.3
19517.1
19514
19510.8
19507.5
19504.3
19501
19497.7
19494.3
19491
19487.7
19484.3
19481
19477.6
19474.3
19470.9
19467.6
19464.4
19461.1
19457.9
19454.7
19451.5
19448.4
19445.3
19442.3
19439.3
19436.4
19433.6
19430.8
19428.1
19425.4
19422.8
19420.3
19417.9
19415.5
19413.3
19411.1
19408.9
19406.9
19405
19403.1
19401.3
19399.6
19398
19396.5
19395.1
19393.7
19392.5
19391.3
19390.3
19389.3
19388.4
19387.6
19386.8
19386.2
19385.6
19385.2
19384.8
19384.5
19384.2
19384.1
19384
19384
19384.1
19384.3
19384.5
19384.8
19385.2
19385.7
19386.2
19386.8
19387.4
19388.1
19388.9
19389.8
19390.6
19391.6
19392.6
19393.6
19394.7
19395.8
19397
19398.2
19399.5
19400.7
19402
19403.3
19404.7
19406
19407.4
19408.8
19410.2
19411.5
19412.9
19414.3
19415.6
19417
19418.3
19419.6
19420.8
19422.1
19423.3
19424.4
19425.6
19426.6
19427.7
19428.7
19429.6
19430.5
19431.3
19432
19432.7
19433.4
19433.9
19434.4
19434.9
19435.2
19435.5
19435.8
19435.9
19436
19126
19125.9
19125.6
19125.2
19124.5
19123.7
19122.7
19121.6
19120.3
19118.9
19117.4
19115.7
19113.9
19112
19109.9
19107.8
19105.5
19103.2
19100.8
19098.3
19095.7
19093
19090.3
19087.5
19084.6
19081.7
19078.7
19075.7
19072.6
19069.5
19066.3
19063.1
19059.9
19056.6
19053.3
19049.9
19046.6
19043.2
19039.8
19036.4
19033
19029.6
19026.2
19022.8
19019.4
19016.1
19012.7
19009.4
19006.2
19002.9
18999.7
18996.5
18993.4
18990.3
18987.3
18984.4
18981.5
18978.7
18975.9
18973.2
18970.6
18968
18965.6
18963.2
18960.9
18958.7
18956.5
18954.5
18952.5
18950.6
18948.8
18947.1
18945.5
18944
18942.6
18941.2
18940
18938.8
18937.7
18936.7
18935.9
18935
18934.3
18933.7
18933.2
18932.7
18932.3
18932
18931.8
18931.7
18931.6
18931.7
18931.8
18932
18932.2
18932.6
18933
18933.5
18934
18934.6
18935.3
18936.1
18936.9
18937.7
18938.7
18939.6
18940.7
18941.8
18942.9
18944.1
18945.3
18946.5
18947.8
18949.1
18950.5
18951.8
18953.2
18954.6
18956
18957.5
18958.9
18960.3
18961.7
18963.2
18964.6
18965.9
18967.3
18968.6
18970
18971.2
18972.5
18973.7
18974.8
18976
18977
18978.1
18979
18979.9
18980.8
18981.5
18982.3
18982.9
18983.5
18984
18984.5
18984.8
18985.1
18985.4
18985.5
18985.6
18676.2
18676.1
18675.9
18675.4
18674.8
18674
18673
18671.8
18670.5
18669.1
18667.5
18665.8
18663.9
18662
18659.9
18657.7
18655.4
18653
18650.5
18648
18645.4
18642.7
18639.9
18637.1
18634.2
18631.2
18628.2
18625.1
18622
18618.8
18615.6
18612.3
18609
18605.7
18602.3
18598.9
18595.5
18592.1
18588.6
18585.2
18581.7
18578.3
18574.8
18571.3
18567.9
18564.5
18561.1
18557.7
18554.4
18551.1
18547.8
18544.6
18541.4
18538.3
18535.2
18532.2
18529.2
18526.4
18523.6
18520.8
18518.2
18515.6
18513.1
18510.7
18508.3
18506.1
18503.9
18501.8
18499.8
18497.9
18496.1
18494.4
18492.8
18491.3
18489.8
18488.5
18487.2
18486.1
18485
18484
18483.1
18482.3
18481.6
18481
18480.5
18480
18479.7
18479.4
18479.2
18479.1
18479.1
18479.1
18479.3
18479.5
18479.8
18480.1
18480.6
18481.1
18481.7
18482.3
18483.1
18483.8
18484.7
18485.6
18486.6
18487.6
18488.7
18489.8
18491
18492.2
18493.5
18494.8
18496.1
18497.5
18498.9
18500.3
18501.7
18503.2
18504.7
18506.1
18507.6
18509.1
18510.6
18512.1
18513.5
18515
18516.4
18517.8
18519.1
18520.5
18521.8
18523
18524.2
18525.4
18526.5
18527.5
18528.5
18529.5
18530.4
18531.2
18531.9
18532.6
18533.2
18533.7
18534.2
18534.6
18534.9
18535.1
18535.3
18535.4
18226.6
18226.5
18226.3
18225.9
18225.2
18224.4
18223.4
18222.3
18220.9
18219.5
18217.8
18216.1
18214.2
18212.1
18210
18207.7
18205.4
18203
18200.4
18197.8
18195.2
18192.4
18189.6
18186.7
18183.8
18180.8
18177.7
18174.6
18171.4
18168.2
18164.9
18161.6
18158.2
18154.9
18151.4
18148
18144.5
18141
18137.5
18134
18130.4
18126.9
18123.4
18119.8
18116.3
18112.8
18109.4
18105.9
18102.5
18099.1
18095.8
18092.5
18089.3
18086.1
18082.9
18079.9
18076.9
18073.9
18071.1
18068.3
18065.6
18063
18060.4
18058
18055.6
18053.3
18051.1
18049
18047
18045.1
18043.3
18041.5
18039.9
18038.4
18036.9
18035.6
18034.3
18033.2
18032.1
18031.1
18030.2
18029.4
18028.8
18028.1
18027.6
18027.2
18026.9
18026.6
18026.4
18026.4
18026.4
18026.4
18026.6
18026.8
18027.2
18027.6
18028
18028.6
18029.2
18029.9
18030.7
18031.5
18032.4
18033.3
18034.3
18035.4
18036.5
18037.7
18039
18040.2
18041.6
18042.9
18044.3
18045.7
18047.2
18048.7
18050.2
18051.7
18053.3
18054.8
18056.4
18057.9
18059.5
18061
18062.5
18064
18065.5
18067
18068.4
18069.8
18071.1
18072.4
18073.7
18074.9
18076
18077.1
18078.2
18079.2
18080.1
18080.9
18081.7
18082.4
18083
18083.6
18084.1
18084.5
18084.8
18085
18085.2
18085.3
17777.1
17777
17776.8
17776.4
17775.9
17775.1
17774.1
17772.9
17771.6
17770
17768.4
17766.5
17764.6
17762.5
17760.2
17757.9
17755.5
17753
17750.4
17747.8
17745.1
17742.3
17739.4
17736.5
17733.5
17730.4
17727.3
17724.1
17720.9
17717.6
17714.3
17710.9
17707.5
17704.1
17700.6
17697
17693.5
17689.9
17686.3
17682.7
17679.1
17675.5
17671.9
17668.3
17664.7
17661.1
17657.6
17654.1
17650.6
17647.1
17643.7
17640.3
17637
17633.8
17630.6
17627.4
17624.4
17621.4
17618.4
17615.6
17612.8
17610.2
17607.6
17605.1
17602.7
17600.3
17598.1
17596
17594
17592
17590.2
17588.4
17586.8
17585.2
17583.8
17582.4
17581.2
17580
17579
17578
17577.1
17576.3
17575.7
17575.1
17574.6
17574.2
17573.9
17573.6
17573.5
17573.4
17573.5
17573.6
17573.8
17574
17574.4
17574.8
17575.3
17575.9
17576.6
17577.3
17578.1
17579
17579.9
17581
17582
17583.1
17584.3
17585.6
17586.9
17588.2
17589.6
17591
17592.5
17594
17595.5
17597.1
17598.6
17600.2
17601.9
17603.5
17605.1
17606.7
17608.3
17610
17611.5
17613.1
17614.7
17616.2
17617.7
17619.1
17620.6
17621.9
17623.2
17624.5
17625.7
17626.9
17627.9
17629
17629.9
17630.8
17631.6
17632.3
17633
17633.6
17634.1
17634.5
17634.8
17635.1
17635.3
17635.3
17327.7
17327.6
17327.4
17327.1
17326.6
17325.9
17324.9
17323.7
17322.4
17320.8
17319.1
17317.2
17315.1
17312.9
17310.6
17308.2
17305.8
17303.2
17300.6
17297.9
17295.1
17292.2
17289.3
17286.3
17283.3
17280.2
17277
17273.8
17270.5
17267.2
17263.8
17260.3
17256.9
17253.3
17249.8
17246.2
17242.5
17238.9
17235.2
17231.5
17227.8
17224.1
17220.4
17216.7
17213
17209.4
17205.7
17202.1
17198.5
17195
17191.5
17188
17184.6
17181.3
17178
17174.8
17171.7
17168.6
17165.6
17162.7
17159.9
17157.2
17154.5
17152
17149.5
17147.2
17144.9
17142.8
17140.7
17138.7
17136.9
17135.1
17133.5
17131.9
17130.4
17129.1
17127.8
17126.7
17125.6
17124.7
17123.8
17123
17122.4
17121.8
17121.3
17120.9
17120.6
17120.4
17120.3
17120.3
17120.4
17120.5
17120.7
17121.1
17121.4
17121.9
17122.5
17123.1
17123.8
17124.6
17125.5
17126.4
17127.4
17128.4
17129.6
17130.8
17132
17133.3
17134.7
17136.1
17137.5
17139
17140.6
17142.1
17143.7
17145.4
17147
17148.7
17150.4
17152.1
17153.8
17155.5
17157.2
17158.9
17160.6
17162.3
17163.9
17165.5
17167.1
17168.6
17170.1
17171.5
17172.9
17174.2
17175.5
17176.7
17177.8
17178.9
17179.9
17180.8
17181.7
17182.4
17183.1
17183.7
17184.2
17184.7
17185
17185.3
17185.5
17185.6
16878.3
16878.3
16878.2
16877.9
16877.5
16876.8
16875.9
16874.8
16873.4
16871.8
16870
16868
16865.8
16863.5
16861.2
16858.7
16856.1
16853.5
16850.8
16848
16845.2
16842.3
16839.3
16836.3
16833.2
16830
16826.8
16823.5
16820.2
16816.8
16813.3
16809.8
16806.3
16802.6
16799
16795.3
16791.6
16787.9
16784.1
16780.3
16776.5
16772.7
16768.9
16765.1
16761.3
16757.6
16753.8
16750.1
16746.4
16742.8
16739.2
16735.6
16732.2
16728.7
16725.4
16722.1
16718.9
16715.7
16712.7
16709.7
16706.8
16704
16701.3
16698.7
16696.2
16693.8
16691.5
16689.3
16687.2
16685.2
16683.4
16681.6
16679.9
16678.3
16676.9
16675.5
16674.3
16673.1
16672.1
16671.1
16670.3
16669.5
16668.9
16668.3
16667.9
16667.5
16667.2
16667.1
16667
16667
16667.1
16667.3
16667.5
16667.9
16668.3
16668.9
16669.5
16670.1
16670.9
16671.7
16672.6
16673.6
16674.7
16675.8
16677
16678.2
16679.5
16680.9
16682.3
16683.8
16685.4
16686.9
16688.6
16690.2
16691.9
16693.6
16695.4
16697.2
16699
16700.8
16702.6
16704.4
16706.2
16707.9
16709.7
16711.5
16713.2
16714.9
16716.5
16718.1
16719.7
16721.2
16722.6
16724
16725.4
16726.6
16727.8
16729
16730
16731
16731.9
16732.7
16733.4
16734
16734.6
16735
16735.4
16735.7
16735.9
16735.9
16428.9
16428.9
16428.8
16428.6
16428.3
16427.8
16427.1
16426.1
16424.7
16423
16421.1
16419
16416.7
16414.3
16411.8
16409.2
16406.6
16403.9
16401.1
16398.3
16395.4
16392.5
16389.4
16386.4
16383.2
16380
16376.7
16373.4
16370
16366.5
16363
16359.4
16355.7
16352
16348.3
16344.5
16340.7
16336.9
16333
16329.1
16325.2
16321.3
16317.4
16313.5
16309.6
16305.7
16301.9
16298
16294.2
16290.5
16286.8
16283.1
16279.5
16276
16272.5
16269.2
16265.9
16262.6
16259.5
16256.4
16253.5
16250.6
16247.9
16245.2
16242.7
16240.2
16237.9
16235.6
16233.5
16231.5
16229.6
16227.8
16226.1
16224.6
16223.1
16221.7
16220.5
16219.3
16218.3
16217.4
16216.5
16215.8
16215.2
16214.6
16214.2
16213.9
16213.6
16213.5
16213.4
16213.5
16213.6
16213.8
16214.2
16214.6
16215
16215.6
16216.3
16217
16217.8
16218.7
16219.7
16220.7
16221.8
16223
16224.3
16225.6
16227
16228.4
16229.9
16231.5
16233.1
16234.8
16236.5
16238.2
16240
16241.9
16243.7
16245.6
16247.5
16249.4
16251.3
16253.2
16255.1
16257
16258.9
16260.7
16262.5
16264.3
16266
16267.7
16269.4
16271
16272.5
16274
16275.4
16276.7
16278
16279.2
16280.3
16281.3
16282.2
16283.1
16283.8
16284.5
16285
16285.5
16285.9
16286.2
16286.4
16286.5
15979.5
15979.6
15979.4
15979.3
15979.1
15979
15978.5
15977.7
15976.4
15974.6
15972.4
15970.1
15967.6
15965.1
15962.5
15959.8
15957.1
15954.3
15951.5
15948.6
15945.7
15942.7
15939.7
15936.5
15933.3
15930.1
15926.7
15923.3
15919.8
15916.3
15912.7
15909
15905.3
15901.5
15897.7
15893.8
15889.9
15885.9
15881.9
15877.9
15873.9
15869.9
15865.8
15861.8
15857.8
15853.8
15849.8
15845.9
15841.9
15838.1
15834.3
15830.5
15826.8
15823.1
15819.6
15816.1
15812.7
15809.4
15806.1
15803
15800
15797
15794.2
15791.5
15788.9
15786.4
15784
15781.7
15779.6
15777.5
15775.6
15773.8
15772.1
15770.5
15769.1
15767.7
15766.4
15765.3
15764.3
15763.4
15762.5
15761.8
15761.2
15760.7
15760.3
15760
15759.8
15759.7
15759.7
15759.8
15760
15760.2
15760.6
15761
15761.6
15762.2
15762.9
15763.7
15764.6
15765.5
15766.5
15767.7
15768.8
15770.1
15771.4
15772.8
15774.3
15775.8
15777.4
15779.1
15780.8
15782.5
15784.3
15786.2
15788.1
15790
15792
15794
15796
15798
15800
15802
15804.1
15806.1
15808
15810
15811.9
15813.8
15815.7
15817.5
15819.2
15820.9
15822.5
15824
15825.5
15826.9
15828.3
15829.5
15830.7
15831.7
15832.7
15833.6
15834.4
15835.1
15835.7
15836.2
15836.6
15836.9
15837.1
15837.2
15530.2
15530.2
15530.1
15530.1
15530.2
15530.4
15530.3
15529.7
15528.4
15526.4
15524
15521.4
15518.7
15515.9
15513.2
15510.4
15507.6
15504.8
15502
15499.1
15496.1
15493.1
15490
15486.8
15483.6
15480.3
15476.9
15473.4
15469.8
15466.2
15462.5
15458.7
15454.9
15451
15447.1
15443.1
15439.1
15435
15430.9
15426.8
15422.6
15418.4
15414.3
15410.1
15406
15401.8
15397.7
15393.6
15389.6
15385.6
15381.6
15377.7
15373.9
15370.1
15366.4
15362.8
15359.3
15355.9
15352.6
15349.3
15346.2
15343.2
15340.3
15337.5
15334.9
15332.3
15329.9
15327.6
15325.4
15323.3
15321.4
15319.5
15317.8
15316.2
15314.8
15313.4
15312.2
15311
15310
15309.1
15308.3
15307.6
15307.1
15306.6
15306.2
15305.9
15305.8
15305.7
15305.7
15305.9
15306.1
15306.4
15306.8
15307.3
15307.9
15308.6
15309.3
15310.2
15311.1
15312.1
15313.2
15314.4
15315.7
15317
15318.4
15319.9
15321.4
15323.1
15324.7
15326.5
15328.3
15330.2
15332.1
15334.1
15336.1
15338.1
15340.2
15342.3
15344.4
15346.6
15348.7
15350.9
15353
15355.2
15357.3
15359.3
15361.4
15363.4
15365.4
15367.3
15369.1
15370.9
15372.6
15374.2
15375.8
15377.3
15378.7
15380
15381.2
15382.4
15383.4
15384.3
15385.2
15385.9
15386.5
15387.1
15387.5
15387.8
15388
15388.1
15080.7
15080.7
15080.7
15080.8
15081.2
15081.9
15082.3
15081.9
15080.5
15078.3
15075.5
15072.6
15069.6
15066.7
15063.9
15061
15058.2
15055.4
15052.5
15049.6
15046.6
15043.6
15040.4
15037.2
15033.9
15030.6
15027.1
15023.6
15019.9
15016.2
15012.4
15008.6
15004.6
15000.6
14996.6
14992.5
14988.3
14984.1
14979.9
14975.6
14971.3
14967
14962.7
14958.4
14954.1
14949.8
14945.5
14941.3
14937.1
14932.9
14928.8
14924.8
14920.8
14916.9
14913.1
14909.4
14905.7
14902.2
14898.8
14895.5
14892.2
14889.2
14886.2
14883.3
14880.6
14878
14875.5
14873.2
14870.9
14868.8
14866.9
14865
14863.3
14861.7
14860.2
14858.9
14857.6
14856.5
14855.5
14854.6
14853.9
14853.2
14852.6
14852.2
14851.9
14851.6
14851.5
14851.5
14851.5
14851.7
14852
14852.4
14852.8
14853.4
14854
14854.8
14855.6
14856.5
14857.5
14858.6
14859.8
14861
14862.4
14863.8
14865.3
14866.8
14868.5
14870.2
14872
14873.8
14875.7
14877.7
14879.7
14881.8
14884
14886.1
14888.4
14890.6
14892.9
14895.2
14897.5
14899.7
14902
14904.3
14906.5
14908.8
14910.9
14913.1
14915.2
14917.2
14919.1
14921
14922.8
14924.6
14926.2
14927.8
14929.3
14930.7
14932
14933.2
14934.2
14935.2
14936.1
14936.9
14937.6
14938.1
14938.6
14938.9
14939.1
14939.2
14630.4
14630.3
14630
14629.7
14630.2
14631.3
14632.6
14632.9
14631.9
14629.6
14626.5
14623.3
14620.2
14617.2
14614.4
14611.6
14608.8
14606
14603.1
14600.2
14597.2
14594.2
14591
14587.8
14584.5
14581
14577.5
14573.9
14570.2
14566.4
14562.5
14558.5
14554.5
14550.3
14546.2
14541.9
14537.6
14533.3
14528.9
14524.5
14520
14515.5
14511.1
14506.6
14502.1
14497.6
14493.2
14488.8
14484.4
14480.1
14475.9
14471.7
14467.6
14463.5
14459.6
14455.7
14451.9
14448.3
14444.7
14441.3
14438
14434.8
14431.8
14428.8
14426
14423.4
14420.9
14418.5
14416.2
14414.1
14412.1
14410.2
14408.5
14406.9
14405.4
14404.1
14402.8
14401.7
14400.7
14399.9
14399.1
14398.5
14398
14397.6
14397.3
14397.1
14397
14397
14397.1
14397.3
14397.7
14398.1
14398.6
14399.2
14400
14400.8
14401.7
14402.6
14403.7
14404.9
14406.1
14407.5
14408.9
14410.4
14412
14413.6
14415.4
14417.2
14419
14421
14423
14425.1
14427.3
14429.5
14431.8
14434.1
14436.5
14438.9
14441.3
14443.7
14446.2
14448.6
14451.1
14453.5
14455.9
14458.2
14460.6
14462.8
14465.1
14467.2
14469.3
14471.3
14473.2
14475.1
14476.8
14478.5
14480.1
14481.5
14482.9
14484.1
14485.3
14486.3
14487.3
14488.1
14488.8
14489.4
14489.9
14490.2
14490.4
14490.5
14178.3
14177.8
14176.3
14174.9
14174.9
14176.6
14179.1
14181.1
14181.4
14179.6
14176.5
14173.1
14170
14167.2
14164.6
14162
14159.3
14156.6
14153.8
14151
14148
14144.9
14141.8
14138.5
14135.1
14131.6
14128
14124.3
14120.5
14116.6
14112.6
14108.6
14104.4
14100.1
14095.8
14091.4
14087
14082.5
14077.9
14073.3
14068.7
14064.1
14059.4
14054.8
14050.1
14045.5
14040.8
14036.3
14031.7
14027.2
14022.8
14018.4
14014.1
14009.9
14005.8
14001.8
13997.9
13994.1
13990.5
13986.9
13983.5
13980.2
13977.1
13974.1
13971.2
13968.5
13965.9
13963.5
13961.2
13959
13957
13955.1
13953.4
13951.8
13950.3
13949
13947.7
13946.7
13945.7
13944.9
13944.1
13943.5
13943
13942.7
13942.4
13942.3
13942.2
13942.3
13942.5
13942.7
13943.1
13943.6
13944.2
13944.9
13945.7
13946.5
13947.5
13948.6
13949.7
13951
13952.3
13953.7
13955.2
13956.8
13958.5
13960.2
13962.1
13964
13966
13968.1
13970.2
13972.4
13974.7
13977.1
13979.5
13982
13984.5
13987
13989.6
13992.2
13994.9
13997.5
14000.1
14002.7
14005.3
14007.8
14010.3
14012.7
14015.1
14017.4
14019.6
14021.7
14023.8
14025.7
14027.6
14029.3
14031
14032.6
14034
14035.3
14036.5
14037.6
14038.6
14039.5
14040.2
14040.8
14041.3
14041.7
14042
14042.1
13725.2
13723.8
13720.4
13717.4
13716.6
13718.6
13722.6
13726.8
13728.7
13728
13725.3
13721.9
13719
13716.7
13714.6
13712.3
13709.9
13707.3
13704.7
13701.9
13698.9
13695.9
13692.7
13689.4
13686
13682.4
13678.8
13675
13671.1
13667.1
13663
13658.7
13654.4
13650
13645.6
13641
13636.4
13631.7
13627
13622.2
13617.4
13612.6
13607.7
13602.9
13598
13593.2
13588.4
13583.6
13578.8
13574.2
13569.5
13565
13560.5
13556.1
13551.9
13547.7
13543.6
13539.7
13535.9
13532.2
13528.7
13525.3
13522.1
13519
13516
13513.3
13510.6
13508.1
13505.8
13503.6
13501.6
13499.7
13497.9
13496.3
13494.9
13493.5
13492.4
13491.3
13490.4
13489.5
13488.9
13488.3
13487.8
13487.5
13487.3
13487.2
13487.2
13487.3
13487.5
13487.9
13488.3
13488.9
13489.5
13490.3
13491.1
13492.1
13493.1
13494.3
13495.5
13496.9
13498.3
13499.8
13501.4
13503.1
13504.8
13506.7
13508.6
13510.6
13512.8
13514.9
13517.2
13519.6
13522
13524.5
13527.1
13529.7
13532.4
13535.2
13538
13540.8
13543.6
13546.4
13549.2
13552
13554.7
13557.4
13560.1
13562.7
13565.2
13567.6
13570
13572.3
13574.5
13576.5
13578.5
13580.4
13582.1
13583.8
13585.3
13586.7
13588
13589.1
13590.2
13591.1
13591.9
13592.5
13593
13593.4
13593.7
13593.8
13273
13271
13266
13261.4
13259.8
13261.9
13266.8
13272.1
13275.2
13275.3
13273
13270
13267.5
13265.8
13264.4
13262.7
13260.6
13258.2
13255.7
13253
13250.1
13247.1
13243.9
13240.5
13237.1
13233.4
13229.7
13225.8
13221.8
13217.7
13213.4
13209.1
13204.6
13200.1
13195.4
13190.7
13185.9
13181.1
13176.2
13171.2
13166.2
13161.1
13156.1
13151
13145.9
13140.8
13135.8
13130.8
13125.8
13120.9
13116.1
13111.3
13106.7
13102.1
13097.6
13093.3
13089.1
13085
13081
13077.2
13073.6
13070.1
13066.7
13063.6
13060.5
13057.7
13055
13052.5
13050.1
13047.9
13045.8
13043.9
13042.2
13040.6
13039.1
13037.8
13036.7
13035.6
13034.7
13033.9
13033.3
13032.8
13032.4
13032.1
13031.9
13031.9
13031.9
13032.1
13032.4
13032.8
13033.2
13033.9
13034.6
13035.4
13036.4
13037.4
13038.5
13039.8
13041.1
13042.5
13044
13045.6
13047.3
13049.1
13051
13052.9
13055
13057.1
13059.4
13061.7
13064.1
13066.6
13069.2
13071.8
13074.6
13077.4
13080.3
13083.2
13086.2
13089.2
13092.3
13095.3
13098.3
13101.3
13104.2
13107.1
13110
13112.8
13115.5
13118.1
13120.6
13123
13125.3
13127.5
13129.6
13131.6
13133.5
13135.2
13136.8
13138.3
13139.7
13140.9
13142
13142.9
13143.7
13144.4
13145
13145.4
13145.6
13145.8
12825.5
12823.1
12817.7
12812.4
12809.8
12811.1
12815.4
12820.1
12822.8
12822.6
12820.4
12817.8
12815.9
12815.1
12814.5
12813.4
12811.7
12809.5
12807.1
12804.5
12801.6
12798.6
12795.3
12791.9
12788.4
12784.7
12780.8
12776.8
12772.7
12768.4
12764.1
12759.6
12755
12750.2
12745.4
12740.5
12735.5
12730.5
12725.3
12720.2
12714.9
12709.6
12704.3
12699
12693.7
12688.4
12683.1
12677.9
12672.7
12667.5
12662.5
12657.5
12652.6
12647.8
12643.1
12638.6
12634.2
12629.9
12625.8
12621.9
12618.1
12614.5
12611
12607.8
12604.7
12601.7
12599
12596.4
12594
12591.8
12589.7
12587.8
12586.1
12584.5
12583.1
12581.8
12580.6
12579.6
12578.8
12578
12577.4
12576.9
12576.6
12576.3
12576.2
12576.2
12576.3
12576.6
12576.9
12577.4
12577.9
12578.6
12579.4
12580.3
12581.3
12582.5
12583.7
12585
12586.4
12588
12589.6
12591.3
12593.1
12595
12596.9
12599
12601.2
12603.4
12605.8
12608.2
12610.8
12613.4
12616.2
12619
12622
12625
12628.1
12631.2
12634.4
12637.7
12640.9
12644.2
12647.4
12650.7
12653.8
12656.9
12660
12663
12665.9
12668.7
12671.4
12673.9
12676.4
12678.8
12681
12683.1
12685
12686.9
12688.6
12690.1
12691.5
12692.8
12694
12695
12695.8
12696.6
12697.1
12697.6
12697.9
12698
12383
12381.1
12375.7
12370.3
12367.2
12367.1
12369.3
12371.7
12372.4
12371.1
12368.7
12366.4
12365.2
12365.3
12365.5
12364.8
12363.3
12361.3
12359
12356.3
12353.5
12350.4
12347.1
12343.6
12339.9
12336.1
12332.2
12328
12323.8
12319.4
12314.9
12310.2
12305.4
12300.5
12295.5
12290.4
12285.2
12280
12274.6
12269.2
12263.7
12258.2
12252.6
12247
12241.4
12235.9
12230.3
12224.8
12219.3
12213.9
12208.6
12203.4
12198.2
12193.2
12188.3
12183.6
12179
12174.6
12170.3
12166.2
12162.2
12158.5
12154.9
12151.6
12148.4
12145.4
12142.6
12140
12137.6
12135.3
12133.2
12131.3
12129.6
12128
12126.6
12125.4
12124.3
12123.3
12122.5
12121.8
12121.2
12120.8
12120.5
12120.3
12120.2
12120.3
12120.5
12120.8
12121.2
12121.7
12122.3
12123.1
12123.9
12124.9
12126
12127.2
12128.6
12130
12131.5
12133.1
12134.9
12136.7
12138.6
12140.6
12142.7
12144.9
12147.1
12149.5
12152
12154.6
12157.3
12160.1
12163
12166
12169.1
12172.4
12175.7
12179.1
12182.6
12186.1
12189.6
12193.1
12196.6
12200.1
12203.5
12206.9
12210.1
12213.3
12216.4
12219.4
12222.3
12225.1
12227.7
12230.2
12232.5
12234.8
12236.8
12238.8
12240.6
12242.2
12243.7
12245
12246.2
12247.3
12248.2
12249
12249.6
12250
12250.3
12250.4
11942.8
11941.7
11937.4
11932.8
11929.4
11927.5
11926.8
11926.1
11924.4
11921.6
11918.9
11917
11916.6
11917.2
11917.7
11917.2
11915.7
11913.7
11911.3
11908.6
11905.7
11902.5
11899.1
11895.5
11891.8
11887.8
11883.8
11879.5
11875.1
11870.6
11865.9
11861
11856.1
11851
11845.8
11840.5
11835
11829.5
11823.9
11818.2
11812.5
11806.7
11800.8
11795
11789.1
11783.2
11777.4
11771.6
11765.8
11760.1
11754.5
11749
11743.6
11738.4
11733.2
11728.2
11723.4
11718.8
11714.3
11710
11706
11702.1
11698.4
11694.9
11691.7
11688.6
11685.8
11683.1
11680.7
11678.4
11676.3
11674.4
11672.7
11671.2
11669.8
11668.6
11667.6
11666.6
11665.9
11665.2
11664.7
11664.3
11664.1
11664
11663.9
11664.1
11664.3
11664.6
11665.1
11665.7
11666.4
11667.2
11668.2
11669.2
11670.4
11671.7
11673.1
11674.7
11676.3
11678.1
11679.9
11681.9
11683.9
11686
11688.2
11690.5
11692.9
11695.4
11698
11700.7
11703.5
11706.5
11709.6
11712.8
11716.2
11719.6
11723.2
11726.9
11730.6
11734.4
11738.3
11742.1
11745.9
11749.6
11753.3
11756.9
11760.4
11763.9
11767.2
11770.4
11773.5
11776.4
11779.2
11781.8
11784.3
11786.7
11788.9
11790.9
11792.8
11794.5
11796.1
11797.5
11798.8
11799.9
11800.8
11801.6
11802.2
11802.7
11803
11803.1
11500.9
11499.8
11497.8
11494.9
11491.4
11488
11484.9
11481.7
11478.2
11474.6
11471.9
11470.5
11470.4
11471.1
11471.2
11470.4
11468.8
11466.7
11464.2
11461.3
11458.3
11455
11451.5
11447.8
11443.9
11439.8
11435.6
11431.2
11426.6
11421.9
11417.1
11412.1
11406.9
11401.6
11396.2
11390.6
11385
11379.2
11373.3
11367.3
11361.3
11355.2
11349.1
11342.9
11336.7
11330.5
11324.3
11318.2
11312.1
11306.1
11300.2
11294.4
11288.7
11283.1
11277.7
11272.5
11267.5
11262.6
11257.9
11253.5
11249.2
11245.2
11241.4
11237.8
11234.5
11231.4
11228.5
11225.8
11223.3
11221.1
11219
11217.1
11215.5
11214
11212.6
11211.5
11210.5
11209.6
11208.9
11208.3
11207.9
11207.5
11207.3
11207.3
11207.3
11207.5
11207.8
11208.2
11208.7
11209.3
11210.1
11211
11212
11213.2
11214.4
11215.9
11217.4
11219
11220.8
11222.7
11224.7
11226.7
11228.9
11231.1
11233.5
11235.9
11238.4
11241
11243.7
11246.5
11249.5
11252.6
11255.9
11259.3
11262.9
11266.7
11270.6
11274.5
11278.6
11282.7
11286.9
11291
11295.1
11299.2
11303.2
11307.1
11310.9
11314.6
11318.2
11321.6
11324.8
11328
11330.9
11333.7
11336.4
11338.9
11341.2
11343.3
11345.3
11347.1
11348.7
11350.2