/*--------------------------------*- C++ -*----------------------------------*\
| =========                 |                                                 |
| \\      /  F ield         | OpenFOAM: The Open Source CFD Toolbox           |
|  \\    /   O peration     | Version:  v2006                                 |
|   \\  /    A nd           | Website:  www.openfoam.com                      |
|    \\/     M anipulation  |                                                 |
\*---------------------------------------------------------------------------*/
FoamFile
{
    version     2.0;
    format      ascii;
    class       volScalarField;
    location    "0";
    object      shifted_f;
}
// * * * * * * * * * * * * * * * * * * * * * * * * * * * * * * * * * * * * * //

dimensions      [0 0 0 0 0 0 0];


internalField   nonuniform List<scalar> 
2500
(
0.000346307
0.000346303
0.000346329
0.000346269
0.000346281
0.000346202
0.000346195
0.000346195
0.000346184
0.000346154
0.000280064
0.000280026
0.000279967
0.000279997
0.000279967
0.000279959
0.0002799
0.000279874
0.000279855
0.000279825
0.000279848
0.000279803
0.000279829
0.000279799
0.000279769
0.000279728
0.000279747
0.000279713
0.000279687
0.000279691
0.000279672
0.000279609
0.00027965
0.00027959
0.000279631
0.00027959
0.000279576
0.000279497
0.00027955
0.000279531
0.000279453
0.000279438
0.000279434
0.000279468
0.000279345
0.000279348
0.000279356
0.000279337
0.000279266
0.000279255
0.000279244
0.000279207
0.000279266
0.000279237
0.000279222
0.000279162
0.000279166
0.000279184
0.000279143
0.000279102
0.000279061
0.000278987
0.000279043
0.000278953
0.000278879
0.000278953
0.000278931
0.000278849
0.000278838
0.000278845
0.00027886
0.000278767
0.000278763
0.000278767
0.000278767
0.000278711
0.000278693
0.000278641
0.000278633
0.000278641
0.000278641
0.000278592
0.000278521
0.000278521
0.000278447
0.000278473
0.000278473
0.000278473
0.000278417
0.000278391
0.00027838
0.000278391
0.00027822
0.000278246
0.000278223
0.00027819
0.000278194
0.000278167
0.000278175
0.000278126
0.000278089
0.000278082
0.000278044
0.000278059
0.000278033
0.000277985
0.000277959
0.000277922
0.000277769
0.000277869
0.000277851
0.000203937
0.000203948
0.000203963
0.000203963
0.000203967
0.000203926
0.000203978
0.000203896
0.000203863
0.000203837
0.000203907
0.000203826
0.000203829
0.000203904
0.000203867
0.00020387
0.000203844
0.000203829
0.000203822
0.000203855
0.000203777
0.000203811
0.000203807
0.000203744
0.000203792
0.000203792
0.000203721
0.000203777
0.000203736
0.000203729
0.000203703
0.00020374
0.000203717
0.000203781
0.000203691
0.000203643
0.000203669
0.00020368
0.000203643
0.000203658
0.000203587
0.00020368
0.000203621
0.000203609
0.000203595
0.000203673
0.000203636
0.000203591
0.000203568
0.000203576
0.000203561
0.000203472
0.000203468
0.000203487
0.000203475
0.000203446
0.000203464
0.000203479
0.000203528
0.000203446
0.000203431
0.000203442
0.000203468
0.000203457
0.000203405
0.000203375
0.000203412
0.000203423
0.000203382
0.000203401
0.000203378
0.000203356
0.000203319
0.000203315
0.000203367
0.000203285
0.000203349
0.000203241
0.00020327
0.000203285
0.000203311
0.000203323
0.000203282
0.000203285
0.000203218
0.000203211
0.000203229
0.000203174
0.000203189
0.000203133
0.0002032
0.000203133
0.00020314
0.000203095
0.000203095
0.000203066
0.000203099
0.000203118
0.00020311
0.000203069
0.000203036
0.000157066
0.000157069
0.000157069
0.000157069
0.000157055
0.000157028
0.000156987
0.000157069
0.000157055
0.000157066
0.000157114
0.000157084
0.000157099
0.000157107
0.000157069
0.000157069
0.000157058
0.000157043
0.000157047
0.000157081
0.000157099
0.00015704
0.000157025
0.000157043
0.000157073
0.000157092
0.000157069
0.000157025
0.000157043
0.000157025
0.000157058
0.000157047
0.000157021
0.000157084
0.000157058
0.000157047
0.000157095
0.000157047
0.000157114
0.000157051
0.000157077
0.000157073
0.000157099
0.000157095
0.000157118
0.000157114
0.000157088
0.000157088
0.000157118
0.000157114
0.000157099
0.000157133
0.000157122
0.00015711
0.00015711
0.000157107
0.000157118
0.000157092
0.000157155
0.000157181
0.000157103
0.000157185
0.000157099
0.000157129
0.000157107
0.000157062
0.000157133
0.000157125
0.000157122
0.000157028
0.000157122
0.000157114
0.00015711
0.000157136
0.000157185
0.000157174
0.000157159
0.000157174
0.000157144
0.000157114
0.000157107
0.000157192
0.000157133
0.000157189
0.000157151
0.000157185
0.000157215
0.000157241
0.000157196
0.000157174
0.000157125
0.000157177
0.000157136
0.000157174
0.000157129
0.000157159
0.000157185
0.000157174
0.000157215
0.000157226
0.000157177
0.00012527
0.000125263
0.000125259
0.000125293
0.000125218
0.000125241
0.000125229
0.000125248
0.000125188
0.000125293
0.000125218
0.000125293
0.000125211
0.000125233
0.000125207
0.000125237
0.000125248
0.000125267
0.000125248
0.000125255
0.000125274
0.000125289
0.000125263
0.000125282
0.000125263
0.000125248
0.000125192
0.000125203
0.000125252
0.000125177
0.000125226
0.000125196
0.000125304
0.000125173
0.000125241
0.00012527
0.000125248
0.000125244
0.000125229
0.000125203
0.000125177
0.000125203
0.000125229
0.000125226
0.0001252
0.00012527
0.000125218
0.000125211
0.000125218
0.000125263
0.00012527
0.000125241
0.000125244
0.000125308
0.000125255
0.000125315
0.000125237
0.000125255
0.000125311
0.000125203
0.000125196
0.000125211
0.000125267
0.000125255
0.0001253
0.000125274
0.000125248
0.00012527
0.000125278
0.000125285
0.000125308
0.000125248
0.000125293
0.000125356
0.000125263
0.000125285
0.0001253
0.0001253
0.000125311
0.000125322
0.000125322
0.000125233
0.000125181
0.000125248
0.000125233
0.000125222
0.000125211
0.000125304
0.000125229
0.000125255
0.000125267
0.000125252
0.000125248
0.000125267
0.000125285
0.000125218
0.000125267
0.000125229
0.000125285
0.000125293
0.000125345
0.000153638
0.000153534
0.000153601
0.000153646
0.000153661
0.000153672
0.000153661
0.000153653
0.000153642
0.000153735
0.000153724
0.000153739
0.000153661
0.000153739
0.000153758
0.000153758
0.000153784
0.000153791
0.000153799
0.00015384
0.000153754
0.000153814
0.000153836
0.000153836
0.000153888
0.000153851
0.000153899
0.000153922
0.000153851
0.000153922
0.000153903
0.000153918
0.000153918
0.000153977
0.000154007
0.000154007
0.000154007
0.000154011
0.000153936
0.000153922
0.000153944
0.000153925
0.000153884
0.000154
0.000154022
0.000154011
0.000154007
0.000154082
0.00015403
0.000154059
0.000154063
0.000154074
0.000154141
0.000154082
0.000154119
0.000154123
0.000154182
0.000154179
0.000154193
0.000154179
0.000154156
0.000154208
0.000154171
0.000154141
0.00015419
0.000154119
0.000154193
0.000154261
0.000154208
0.000154261
0.000154264
0.000154257
0.000154242
0.00015422
0.000154283
0.000154357
0.000154331
0.000154398
0.000154372
0.000154387
0.000154324
0.000154421
0.000154424
0.000154391
0.000154417
0.000154343
0.000154324
0.000154365
0.000154328
0.000154343
0.000154387
0.000154465
0.000154443
0.000154514
0.000154503
0.000154518
0.000154488
0.000154495
0.000154503
0.000154611
0.000154551
0.000251926
0.000251982
0.000252023
0.000251956
0.000252005
0.00025196
0.000251979
0.000251941
0.000251923
0.00025199
0.000251979
0.000252031
0.000252049
0.000251997
0.000252001
0.000251956
0.00025202
0.000251975
0.00025199
0.00025202
0.000251979
0.000252046
0.000251975
0.000251994
0.00025202
0.000252008
0.00025199
0.000251967
0.000251979
0.000252016
0.000251979
0.000251986
0.00025196
0.000252008
0.000251893
0.000251889
0.00025193
0.000251886
0.0002519
0.000251882
0.000251926
0.000251867
0.000251912
0.000251882
0.000251818
0.000251867
0.000251874
0.000251852
0.000251845
0.000251845
0.000251886
0.000251811
0.0002518
0.000251792
0.000251833
0.000251886
0.000251863
0.000251785
0.000251748
0.000251744
0.00025171
0.000251736
0.000251751
0.000251722
0.000251759
0.00025174
0.000251714
0.000251669
0.000251684
0.000251707
0.000251692
0.000251696
0.00025174
0.000251669
0.000251684
0.000251669
0.000251628
0.000251718
0.000251591
0.000251625
0.000251543
0.000251599
0.000251539
0.000251565
0.00025155
0.00025155
0.00025152
0.000251554
0.000251502
0.000251513
0.000251543
0.000251509
0.000251498
0.000251524
0.000251532
0.000251543
0.000251561
0.000251517
0.000251483
0.000251427
0.000251431
0.000319339
0.000319425
0.000319432
0.000319362
0.000319436
0.000319354
0.000319369
0.000319384
0.000319388
0.000319358
0.000319447
0.00031938
0.000319339
0.000319313
0.000319291
0.000319269
0.000319242
0.000319295
0.000319306
0.000319257
0.000319261
0.000319161
0.000319187
0.00031925
0.000319239
0.000319179
0.00031919
0.000319153
0.000319097
0.000319097
0.000319127
0.000319142
0.000319086
0.000319097
0.00031909
0.000319064
0.00031903
0.000319045
0.000318967
0.000319
0.000318952
0.00031893
0.000318926
0.000318903
0.000318907
0.00031893
0.000318859
0.000318859
0.00031884
0.000318822
0.000318788
0.000318792
0.000318762
0.000318743
0.000318691
0.000318725
0.000318628
0.000318591
0.000318523
0.000318594
0.000318564
0.000318561
0.000318449
0.00031849
0.00031852
0.000318486
0.00031843
0.000318401
0.000318374
0.000318334
0.000318304
0.000318293
0.000318334
0.0003183
0.000318248
0.000318311
0.000318211
0.000318211
0.000318196
0.000318125
0.000318091
0.000318047
0.000318017
0.000317995
0.000318013
0.000317942
0.000317987
0.00031798
0.000317898
0.000317939
0.000317831
0.000317756
0.000317842
0.000317778
0.000317793
0.000317749
0.00031773
0.000317693
0.000317711
0.000317615
0.000317678
0.000455819
0.000455804
0.000455823
0.000455797
0.000455882
0.000456013
0.000455938
0.000455935
0.000455882
0.000456028
0.000455972
0.000455935
0.000456028
0.000456054
0.00045605
0.000456039
0.000456043
0.000456106
0.000456005
0.000456054
0.000456106
0.000456043
0.000455998
0.000456106
0.000456102
0.000456098
0.000456139
0.000456125
0.000456102
0.000456087
0.000456106
0.000456121
0.000456091
0.000456113
0.000456113
0.000456046
0.000456091
0.00045599
0.000456057
0.000456057
0.000456005
0.000456039
0.000456013
0.000456065
0.000456057
0.000456031
0.000455987
0.000456035
0.000455994
0.000455987
0.000455931
0.000455961
0.000456009
0.000455961
0.000455953
0.000455942
0.000455935
0.00045592
0.000455827
0.000455879
0.00045583
0.000455845
0.000455864
0.000455808
0.000455808
0.000455845
0.000455827
0.000455767
0.000455819
0.000455815
0.000455771
0.000455715
0.000455767
0.000455748
0.0004557
0.000455692
0.00045567
0.000455707
0.000455659
0.000455622
0.000455637
0.000455663
0.00045561
0.000455637
0.000455633
0.000455625
0.000455607
0.000455607
0.000455551
0.000455569
0.000455491
0.000455558
0.000455528
0.000455484
0.000455488
0.000455491
0.000455473
0.000455491
0.000455439
0.000455443
0.000455406
0.000681989
0.000682026
0.000681963
0.000682101
0.000682071
0.000682134
0.00068213
0.000682082
0.000682179
0.000682183
0.000682201
0.00068225
0.000682253
0.000682302
0.000682212
0.00068219
0.000682261
0.000682306
0.000682279
0.000682268
0.000682276
0.00068232
0.000682369
0.000682313
0.000682253
0.000682261
0.000682268
0.000682306
0.000682253
0.000682261
0.000682365
0.000682302
0.000682246
0.000682291
0.000682238
0.000682216
0.000682231
0.000682246
0.000682238
0.000682216
0.000682175
0.000682097
0.000682171
0.00068219
0.000682194
0.000682179
0.000682149
0.000682157
0.000682093
0.000682
0.000681955
0.000682119
0.000682026
0.000682041
0.000681952
0.00068203
0.000681944
0.000681914
0.000681814
0.000681851
0.000681967
0.000681918
0.000681847
0.000681873
0.000681739
0.000681769
0.000681724
0.000681683
0.000681758
0.00068168
0.000681672
0.000681683
0.000681613
0.000681575
0.000681516
0.000681549
0.000681546
0.000681523
0.000681516
0.000681452
0.000681341
0.000681434
0.000681452
0.000681359
0.000681296
0.000681315
0.00068127
0.000681262
0.000681262
0.000681162
0.000681248
0.000681173
0.000681173
0.000681132
0.000681031
0.000681002
0.000681017
0.000680983
0.000680935
0.000680976
0.000680957
0.000771921
0.000771947
0.000771884
0.000771809
0.000771906
0.000771854
0.000771765
0.000771731
0.000771753
0.000771616
0.000771705
0.000771709
0.000771709
0.00077159
0.000771571
0.000771564
0.000771504
0.000771534
0.000771478
0.000771478
0.000771362
0.000771381
0.000771407
0.000771299
0.000771236
0.000771254
0.000771139
0.00077112
0.000771038
0.000771023
0.000770994
0.000770979
0.000770938
0.000770915
0.000770792
0.000770677
0.000770696
0.000770599
0.000770632
0.000770561
0.000770513
0.000770394
0.000770386
0.000770282
0.000770267
0.000770237
0.0007702
0.000770167
0.000770047
0.000769932
0.000769958
0.000769917
0.000769816
0.000769764
0.000769671
0.000769615
0.000769522
0.0007695
0.00076941
0.000769328
0.000769306
0.000769269
0.000769127
0.000769109
0.000769041
0.000768948
0.000768859
0.00076877
0.000768702
0.000768658
0.000768539
0.000768583
0.000768535
0.000768308
0.000768352
0.000768278
0.000768069
0.000768129
0.000768006
0.000767928
0.000767887
0.000767794
0.000767678
0.000767626
0.00076751
0.000767492
0.000767358
0.000767265
0.000767294
0.000767183
0.000767071
0.000767004
0.000766877
0.000766899
0.000766732
0.000766654
0.000766549
0.000766482
0.000766467
0.000766292
0.000766266
0.000496168
0.000496164
0.000496078
0.000496011
0.000495959
0.000495892
0.000495832
0.000495713
0.000495639
0.000495546
0.000495531
0.000495415
0.000495344
0.000495218
0.000495203
0.000495199
0.00049511
0.000495072
0.000494923
0.000494886
0.000494782
0.000494629
0.000494625
0.000494514
0.000494573
0.00049438
0.000494391
0.000494242
0.000494082
0.000494093
0.000493996
0.000493888
0.000493817
0.000493806
0.000493679
0.000493575
0.00049343
0.000493322
0.000493359
0.000493251
0.00049318
0.000493102
0.000492964
0.000492889
0.000492841
0.000492696
0.000492647
0.000492554
0.000492435
0.00049239
0.000492249
0.000492152
0.000492115
0.000491973
0.000491872
0.000491798
0.000491805
0.000491694
0.000491586
0.000491533
0.00049141
0.000491314
0.000491228
0.000491045
0.000490967
0.000490885
0.000490811
0.000490692
0.000490662
0.000490494
0.000490483
0.000490386
0.000490163
0.000490155
0.000490058
0.000489894
0.000489768
0.000489738
0.000489611
0.000489548
0.00048944
0.000489265
0.000489216
0.000489067
0.000489
0.000488881
0.000488769
0.000488747
0.000488516
0.000488441
0.000488397
0.000488233
0.000488166
0.000488002
0.000487968
0.000487793
0.000487711
0.000487585
0.000487491
0.000487339
0.00048722
0.00024379
0.000243817
0.000243817
0.000243858
0.000243839
0.000243861
0.000243779
0.000243708
0.000243831
0.000243772
0.000243783
0.000243735
0.00024372
0.000243675
0.000243749
0.000243735
0.000243653
0.00024366
0.00024372
0.000243716
0.000243716
0.000243727
0.000243675
0.000243772
0.000243727
0.000243712
0.00024372
0.00024372
0.000243712
0.000243742
0.000243779
0.000243764
0.00024372
0.000243809
0.000243809
0.000243776
0.000243779
0.000243712
0.000243761
0.000243783
0.000243783
0.000243802
0.000243872
0.000243783
0.000243817
0.000243839
0.000243761
0.000243858
0.000243846
0.000243846
0.00024391
0.000243966
0.000243884
0.000243921
0.000243947
0.000243913
0.000244007
0.000243973
0.000244062
0.000243995
0.000243992
0.00024404
0.000244085
0.000244055
0.000244103
0.000244077
0.000244159
0.000244152
0.0002442
0.00024417
0.000244264
0.000244264
0.000244204
0.000244271
0.000244241
0.000244264
0.000244353
0.000244297
0.000244375
0.000244316
0.000244368
0.00024448
0.000244379
0.000244465
0.000244439
0.00024448
0.000244394
0.000244509
0.000244569
0.000244584
0.000244573
0.000244547
0.000244625
0.000244636
0.000244621
0.000244688
0.000244644
0.000244733
0.000244725
0.000244774
0.000244886
0.000431925
0.000431951
0.000431981
0.000432085
0.000432011
0.000432175
0.000432134
0.000432182
0.000432268
0.000432249
0.000432312
0.000432428
0.000432383
0.000432428
0.000432588
0.00043254
0.000432525
0.000432659
0.000432771
0.000432774
0.000432838
0.000432875
0.00043295
0.000432968
0.000433035
0.000433054
0.000433121
0.000433259
0.000433266
0.000433378
0.000433456
0.000433452
0.00043349
0.000433553
0.000433609
0.000433721
0.000433769
0.00043381
0.000433933
0.000434019
0.000434134
0.000434157
0.000434209
0.000434216
0.00043432
0.00043438
0.000434529
0.000434518
0.000434589
0.000434641
0.000434753
0.000434741
0.000434909
0.000434969
0.000435024
0.000435133
0.000435147
0.000435222
0.000435356
0.0004353
0.000435475
0.000435531
0.000435706
0.000435736
0.000435855
0.000435878
0.000435989
0.000436001
0.000436094
0.000436183
0.000436299
0.000436358
0.00043647
0.000436474
0.00043663
0.000436723
0.000436775
0.000436801
0.000437044
0.000437062
0.000437178
0.000437234
0.000437301
0.000437409
0.000437472
0.000437617
0.000437699
0.000437774
0.000437878
0.000437964
0.000438064
0.00043815
0.000438232
0.000438351
0.000438418
0.000438519
0.000438634
0.000438664
0.00043872
0.000438929
0.000438903
0.000822905
0.000822958
0.00082292
0.000823043
0.000823099
0.000823151
0.000823148
0.000823233
0.000823248
0.000823338
0.00082339
0.000823393
0.000823554
0.000823542
0.000823621
0.000823662
0.000823695
0.000823777
0.000823885
0.000823852
0.000823986
0.000823986
0.000824053
0.000824038
0.000824124
0.000824224
0.000824299
0.000824329
0.000824433
0.000824448
0.000824559
0.000824574
0.000824645
0.000824723
0.000824731
0.000824805
0.000824958
0.00082488
0.000824992
0.000825059
0.000825144
0.000825193
0.00082526
0.000825301
0.000825342
0.000825495
0.000825472
0.000825491
0.000825662
0.00082574
0.000825711
0.000825834
0.00082593
0.000825923
0.00082605
0.000826139
0.000826184
0.000826228
0.000826254
0.000826374
0.000826437
0.000826526
0.000826605
0.000826743
0.00082675
0.000826832
0.000826851
0.000826951
0.000827007
0.000827037
0.0008271
0.000827249
0.000827286
0.000827376
0.000827476
0.00082757
0.000827592
0.000827689
0.00082773
0.000827815
0.000827778
0.000827957
0.000827972
0.000828139
0.000828214
0.000828259
0.000828337
0.000828411
0.000828441
0.000828587
0.000828553
0.000828721
0.000828806
0.000828952
0.000828955
0.000829041
0.000829101
0.00082916
0.000829287
0.000829369
0.000829373
0.00101762
0.00101756
0.0010175
0.00101743
0.00101746
0.00101743
0.0010175
0.00101742
0.00101746
0.00101745
0.00101746
0.00101736
0.00101737
0.0010174
0.00101739
0.00101737
0.00101743
0.00101741
0.00101739
0.00101735
0.00101732
0.00101742
0.00101729
0.00101729
0.00101733
0.00101725
0.00101723
0.00101727
0.00101722
0.00101725
0.00101726
0.0010172
0.00101722
0.00101729
0.00101722
0.00101719
0.00101715
0.00101719
0.00101721
0.00101721
0.00101718
0.00101717
0.0010171
0.00101718
0.00101716
0.00101715
0.00101709
0.00101714
0.00101716
0.00101711
0.00101715
0.00101719
0.00101713
0.00101709
0.00101712
0.00101708
0.00101714
0.00101715
0.00101719
0.00101715
0.00101713
0.00101705
0.00101704
0.00101709
0.00101714
0.00101716
0.00101715
0.00101706
0.00101707
0.00101716
0.00101717
0.0010171
0.00101707
0.00101709
0.00101706
0.00101705
0.00101708
0.00101709
0.00101714
0.00101712
0.00101713
0.00101716
0.00101716
0.00101713
0.00101708
0.0010171
0.00101719
0.0010171
0.0010171
0.00101708
0.00101709
0.00101705
0.00101704
0.00101706
0.00101702
0.00101708
0.0010171
0.00101703
0.00101706
0.0010171
0.00101704
0.000820439
0.000820413
0.000820253
0.00082022
0.000820123
0.000820093
0.00082003
0.000819895
0.000819873
0.000819732
0.000819638
0.000819523
0.000819486
0.000819553
0.000819281
0.000819348
0.000819217
0.000819173
0.00081905
0.000819001
0.000818927
0.000818908
0.000818823
0.000818718
0.000818681
0.000818584
0.000818517
0.000818368
0.000818308
0.000818335
0.000818241
0.000818178
0.000818081
0.000818048
0.000817932
0.000817928
0.000817847
0.000817742
0.000817683
0.000817705
0.000817616
0.000817586
0.000817496
0.000817455
0.000817355
0.000817344
0.000817183
0.00081712
0.000817057
0.000817042
0.000816979
0.000816919
0.000816848
0.000816789
0.000816666
0.000816688
0.00081664
0.000816535
0.000816483
0.000816461
0.000816476
0.000816349
0.00081626
0.000816237
0.000816151
0.000816118
0.000816006
0.000816006
0.000815984
0.000815805
0.000815835
0.00081576
0.000815738
0.000815582
0.000815574
0.000815529
0.000815433
0.000815373
0.000815433
0.000815313
0.000815224
0.000815216
0.000815064
0.000815127
0.000814933
0.000814982
0.000814863
0.000814866
0.000814736
0.00081474
0.00081468
0.00081465
0.000814456
0.00081452
0.000814434
0.000814352
0.000814293
0.000814274
0.000814177
0.000814155
0.00081411
0.000509113
0.000509076
0.000509012
0.000508953
0.000508916
0.000508908
0.000508782
0.000508655
0.000508584
0.000508592
0.00050845
0.000508483
0.000508431
0.000508394
0.00050829
0.000508245
0.000508111
0.000508063
0.000508036
0.000508051
0.000507887
0.00050791
0.00050782
0.000507746
0.000507701
0.000507627
0.000507586
0.000507522
0.000507455
0.000507448
0.000507396
0.000507358
0.000507299
0.000507269
0.000507127
0.00050706
0.000507068
0.000507016
0.000506971
0.00050687
0.000506874
0.000506822
0.000506788
0.00050671
0.000506658
0.000506643
0.000506576
0.000506524
0.000506468
0.000506338
0.000506368
0.0005063
0.000506274
0.000506219
0.000506226
0.000506181
0.000506125
0.000506137
0.000506073
0.000505988
0.00050595
0.000505913
0.000505831
0.000505831
0.000505757
0.000505671
0.000505697
0.000505675
0.000505578
0.000505593
0.000505436
0.000505392
0.000505425
0.000505362
0.00050531
0.000505332
0.000505257
0.000505242
0.000505123
0.000505153
0.000505041
0.000505079
0.000505015
0.000504978
0.000504885
0.000504877
0.000504922
0.000504836
0.000504818
0.000504714
0.000504624
0.000504669
0.000504557
0.000504501
0.000504531
0.000504442
0.000504475
0.00050443
0.000504341
0.000504378
0.00050433
0.000419568
0.000419553
0.000419576
0.000419561
0.000419524
0.000419628
0.000419572
0.00041962
0.000419628
0.000419695
0.000419728
0.000419762
0.00041974
0.000419755
0.00041971
0.000419725
0.000419773
0.000419822
0.000419755
0.000419829
0.000419784
0.000419889
0.000419874
0.00041984
0.000419885
0.000419926
0.000419941
0.000419971
0.000419978
0.000419933
0.000420008
0.000419978
0.00042012
0.000420045
0.000420135
0.000419982
0.000420127
0.000420082
0.000420097
0.000420094
0.000420168
0.000420146
0.000420153
0.000420157
0.00042025
0.000420205
0.000420246
0.000420187
0.000420298
0.000420216
0.000420235
0.000420269
0.000420343
0.000420298
0.000420373
0.000420313
0.000420351
0.000420373
0.000420328
0.000420358
0.000420425
0.000420399
0.000420365
0.000420351
0.00042041
0.000420488
0.000420447
0.00042047
0.000420444
0.000420421
0.000420485
0.0004205
0.000420477
0.000420567
0.000420555
0.000420518
0.000420637
0.000420578
0.000420511
0.000420574
0.000420608
0.000420649
0.000420593
0.000420563
0.000420701
0.000420664
0.000420619
0.000420686
0.000420637
0.000420701
0.000420723
0.000420712
0.000420775
0.000420749
0.000420783
0.000420723
0.000420753
0.000420775
0.000420786
0.000420745
0.000420783
0.000559881
0.000559796
0.000559974
0.000560064
0.000560153
0.000560272
0.000560265
0.000560354
0.000560414
0.000560462
0.000560593
0.000560682
0.000560716
0.000560787
0.000560906
0.000561032
0.000561114
0.000561152
0.000561189
0.000561241
0.000561386
0.000561442
0.000561506
0.000561569
0.000561677
0.000561699
0.000561792
0.000561856
0.00056193
0.000562008
0.000562061
0.000562068
0.000562184
0.000562172
0.000562195
0.000562314
0.000562359
0.000562407
0.000562485
0.000562448
0.000562649
0.000562735
0.000562768
0.000562813
0.000562858
0.000562929
0.000562917
0.000563055
0.000563059
0.000563141
0.000563156
0.000563219
0.000563331
0.000563327
0.000563335
0.000563432
0.000563484
0.000563551
0.000563558
0.000563662
0.000563569
0.000563662
0.000563655
0.000563841
0.000563789
0.000563934
0.000563916
0.00056402
0.00056405
0.000564095
0.000564121
0.000564229
0.000564247
0.000564318
0.000564322
0.000564326
0.000564415
0.000564497
0.000564482
0.000564534
0.000564579
0.000564631
0.000564594
0.00056468
0.000564765
0.000564881
0.000564832
0.000564922
0.00056497
0.000564832
0.000564989
0.000565041
0.000565056
0.000565127
0.000565205
0.000565205
0.000565313
0.000565317
0.000565272
0.000565406
0.000565339
0.000730999
0.000731084
0.000731289
0.000731338
0.000731375
0.00073142
0.000731602
0.000731662
0.000731699
0.000731725
0.00073177
0.000731926
0.000731904
0.000732046
0.000732034
0.000732094
0.000732142
0.000732232
0.000732247
0.000732277
0.000732426
0.0007324
0.000732515
0.000732478
0.00073259
0.000732619
0.000732679
0.000732686
0.000732761
0.000732884
0.000732895
0.000732955
0.00073304
0.000733018
0.000733145
0.000733096
0.00073326
0.000733275
0.000733372
0.000733394
0.000733376
0.000733417
0.000733498
0.000733547
0.000733536
0.000733625
0.000733618
0.000733696
0.000733722
0.000733797
0.000733849
0.000733905
0.000733919
0.000733897
0.000734016
0.000733983
0.000734124
0.000734117
0.000734132
0.000734206
0.000734255
0.000734303
0.000734281
0.000734337
0.00073434
0.00073443
0.000734478
0.000734508
0.000734549
0.000734594
0.000734571
0.000734638
0.000734676
0.000734743
0.000734758
0.000734761
0.000734802
0.000734802
0.000734907
0.000734884
0.000734959
0.000734992
0.000734963
0.000735067
0.000735018
0.000735138
0.000735182
0.000735182
0.000735268
0.000735193
0.000735316
0.000735227
0.000735287
0.000735391
0.000735376
0.000735413
0.000735372
0.000735477
0.00073548
0.000735532
0.000735488
0.000794005
0.000794005
0.000793938
0.000793997
0.000793833
0.000793856
0.000793871
0.000793874
0.000793729
0.000793826
0.000793766
0.000793774
0.000793774
0.000793617
0.000793632
0.000793617
0.00079358
0.000793573
0.000793602
0.000793621
0.000793517
0.000793558
0.000793546
0.000793487
0.000793483
0.000793483
0.000793405
0.000793446
0.000793412
0.000793498
0.000793323
0.000793371
0.00079339
0.000793215
0.000793356
0.000793245
0.0007932
0.000793185
0.000793234
0.000793263
0.000793215
0.00079314
0.000793144
0.000793181
0.00079314
0.000793189
0.000793222
0.000793148
0.000793111
0.000793017
0.000793099
0.000793025
0.00079304
0.000793032
0.000793014
0.000792943
0.000792913
0.000792947
0.000792921
0.000792883
0.000792947
0.000792921
0.000792887
0.000792839
0.000792857
0.000792813
0.000792868
0.000792872
0.000792827
0.000792813
0.000792775
0.000792701
0.000792768
0.000792738
0.000792775
0.000792813
0.000792678
0.000792664
0.000792753
0.00079269
0.000792671
0.000792664
0.000792645
0.000792619
0.000792615
0.000792596
0.0007926
0.000792667
0.000792634
0.000792556
0.000792611
0.000792537
0.000792515
0.000792507
0.000792511
0.000792563
0.000792507
0.000792496
0.000792485
0.000792366
0.00079241
0.000752959
0.000752859
0.000752833
0.000752605
0.000752475
0.000752304
0.000752214
0.000752106
0.000751976
0.000751887
0.000751674
0.000751603
0.000751384
0.000751302
0.000751242
0.000751119
0.000750933
0.000750944
0.000750791
0.000750612
0.000750527
0.000750471
0.000750329
0.000750128
0.000750069
0.00074989
0.000749893
0.000749785
0.000749815
0.000749651
0.00074951
0.000749361
0.000749331
0.00074926
0.000749074
0.000748947
0.000748865
0.000748806
0.000748739
0.000748578
0.000748564
0.000748429
0.00074831
0.00074828
0.000748072
0.000748064
0.000748038
0.000747975
0.000747863
0.000747703
0.000747565
0.000747573
0.00074745
0.000747431
0.000747304
0.000747304
0.0007472
0.000747096
0.000746973
0.000746936
0.000746846
0.000746746
0.000746761
0.000746697
0.000746571
0.000746518
0.00074647
0.000746403
0.000746254
0.000746179
0.000746202
0.000746153
0.00074603
0.000745948
0.000745911
0.000745896
0.000745695
0.00074568
0.000745658
0.000745546
0.000745583
0.000745501
0.000745449
0.000745356
0.000745282
0.000745077
0.000745151
0.00074511
0.000744957
0.000744931
0.000744905
0.000744808
0.000744734
0.000744645
0.000744689
0.000744652
0.000744507
0.000744499
0.000744369
0.000744324
0.000744391
0.000694532
0.000694342
0.000694055
0.000693869
0.00069366
0.000693452
0.000693284
0.000693154
0.00069287
0.000692654
0.000692505
0.000692315
0.000692185
0.00069185
0.000691861
0.000691533
0.000691492
0.000691209
0.000691067
0.000690926
0.000690844
0.000690565
0.000690382
0.000690252
0.000690129
0.000689875
0.000689786
0.000689615
0.00068957
0.000689212
0.000689123
0.000688996
0.000688829
0.00068875
0.000688534
0.000688475
0.0006883
0.000688013
0.000687994
0.000687893
0.000687759
0.000687558
0.000687409
0.000687219
0.000687208
0.000686973
0.000686903
0.000686798
0.000686631
0.000686388
0.000686456
0.000686157
0.000686079
0.000685941
0.000685882
0.000685744
0.000685643
0.000685483
0.000685405
0.000685297
0.000685167
0.00068504
0.000684936
0.000684895
0.000684671
0.00068469
0.000684518
0.000684451
0.000684269
0.000684205
0.000684086
0.00068396
0.000683855
0.000683866
0.000683647
0.000683617
0.000683453
0.00068339
0.000683315
0.0006832
0.000683051
0.000683047
0.000682913
0.00068292
0.000682715
0.0006827
0.000682499
0.00068241
0.00068235
0.000682216
0.000682142
0.000682075
0.000681974
0.000681814
0.000681762
0.000681687
0.000681546
0.000681516
0.000681456
0.000681449
0.000681285
0.000696205
0.000696018
0.000695903
0.000695575
0.000695352
0.000695128
0.000694927
0.000694755
0.000694547
0.000694316
0.0006942
0.000693899
0.000693738
0.000693653
0.00069328
0.000693228
0.000693019
0.000692848
0.000692639
0.000692487
0.000692282
0.00069217
0.000691853
0.000691719
0.000691634
0.000691388
0.000691261
0.00069106
0.000690922
0.000690788
0.000690643
0.000690389
0.000690319
0.000690211
0.000690032
0.000689853
0.00068976
0.000689596
0.000689458
0.000689201
0.000689089
0.000688974
0.000688899
0.000688728
0.000688534
0.000688411
0.000688292
0.000688139
0.000688042
0.000687879
0.000687834
0.000687644
0.000687588
0.000687454
0.000687346
0.000687055
0.000686996
0.00068697
0.000686798
0.000686724
0.00068656
0.000686463
0.000686321
0.000686225
0.000686046
0.000685941
0.000685927
0.000685725
0.000685684
0.000685487
0.000685457
0.000685364
0.000685278
0.000685167
0.00068498
0.000684887
0.00068485
0.000684716
0.000684697
0.000684582
0.000684489
0.000684325
0.000684179
0.000684027
0.000683978
0.000683852
0.000683758
0.000683647
0.000683609
0.00068349
0.000683326
0.000683267
0.000683215
0.00068317
0.000683013
0.000682879
0.000682805
0.000682693
0.000682648
0.000682589
0.000682514
0.000776086
0.000775956
0.000775736
0.000775594
0.000775497
0.000775337
0.000775155
0.000774954
0.000774864
0.00077467
0.00077451
0.000774346
0.000774261
0.000774089
0.000773888
0.000773776
0.000773698
0.000773452
0.000773337
0.000773221
0.000772957
0.000772998
0.000772823
0.000772651
0.00077248