/*--------------------------------*- C++ -*----------------------------------*\
| =========                 |                                                 |
| \\      /  F ield         | OpenFOAM: The Open Source CFD Toolbox           |
|  \\    /   O peration     | Version:  v2006                                 |
|   \\  /    A nd           | Website:  www.openfoam.com                      |
|    \\/     M anipulation  |                                                 |
\*---------------------------------------------------------------------------*/
FoamFile
{
    version     2.0;
    format      ascii;
    class       volScalarField;
    location    "0";
    object      f;
}
// * * * * * * * * * * * * * * * * * * * * * * * * * * * * * * * * * * * * * //

dimensions      [0 0 0 0 0 0 0];


internalField   nonuniform List<scalar> 
2500
(
-4.75538e-30
-4.8318e-30
-4.97802e-30
-4.52888e-30
-2.60908e-30
4.1584e-31
2.83685e-30
3.35493e-30
2.56611e-30
2.4766e-30
4.43853e-30
7.71996e-30
1.02874e-29
1.07266e-29
9.16241e-30
6.67537e-30
4.2978e-30
2.5264e-30
1.39636e-30
7.42306e-31
3.84175e-31
1.93761e-31
9.46374e-32
4.43939e-32
1.98681e-32
8.45051e-33
3.41133e-33
1.3076e-33
4.76665e-34
1.65601e-34
5.49627e-35
1.74698e-35
5.33037e-36
1.5648e-36
4.42896e-37
1.21095e-37
3.20403e-38
8.2168e-39
2.04535e-39
4.94824e-40
1.16479e-40
2.67054e-41
5.96897e-42
1.30166e-42
2.77141e-43
5.76482e-44
1.17218e-44
2.33105e-45
4.53577e-46
8.63924e-47
-2.52941e-29
-2.58043e-29
-2.70054e-29
-2.48836e-29
-1.36479e-29
4.88483e-30
2.00285e-29
2.30482e-29
1.68326e-29
1.36006e-29
2.24223e-29
3.98723e-29
5.41319e-29
5.66197e-29
4.78648e-29
3.41127e-29
2.12728e-29
1.20331e-29
6.39791e-30
3.29815e-30
1.67942e-30
8.46338e-31
4.17734e-31
1.99159e-31
9.07132e-32
3.92264e-32
1.60661e-32
6.23428e-33
2.29593e-33
8.04448e-34
2.68898e-34
8.59851e-35
2.63727e-35
7.77779e-36
2.21062e-36
6.06769e-37
1.61137e-37
4.14715e-38
1.03594e-38
2.51491e-39
5.94041e-40
1.36667e-40
3.06515e-41
6.70701e-42
1.43283e-42
2.99035e-43
6.10017e-44
1.21694e-44
2.37519e-45
4.53734e-46
-1.30476e-28
-1.33647e-28
-1.42416e-28
-1.3342e-28
-6.95078e-29
4.13343e-29
1.34326e-28
1.52812e-28
1.09364e-28
7.62348e-29
1.12012e-28
2.02266e-28
2.79824e-28
2.93592e-28
2.45325e-28
1.70449e-28
1.02242e-28
5.50015e-29
2.76862e-29
1.36246e-29
6.76623e-30
3.41072e-30
1.7149e-30
8.39485e-31
3.92816e-31
1.73989e-31
7.2706e-32
2.86768e-32
1.07007e-32
3.78936e-33
1.27769e-33
4.11523e-34
1.26996e-34
3.7654e-35
1.07535e-35
2.96463e-36
7.90575e-37
2.04282e-37
5.12272e-38
1.24838e-38
2.95995e-39
6.83531e-40
1.53872e-40
3.37933e-41
7.24544e-42
1.51748e-42
3.10625e-43
6.21739e-44
1.21737e-44
2.33268e-45
-6.54049e-28
-6.72349e-28
-7.31129e-28
-6.99784e-28
-3.47216e-28
2.98967e-28
8.58242e-28
9.75413e-28
6.95235e-28
4.32234e-28
5.52053e-28
1.00504e-27
1.41841e-27
1.49372e-27
1.23262e-27
8.31995e-28
4.76031e-28
2.39487e-28
1.11077e-28
5.05763e-29
2.40309e-29
1.2155e-29
6.34122e-30
3.25554e-30
1.59255e-30
7.31686e-31
3.14659e-31
1.26889e-31
4.81658e-32
1.7286e-32
5.89066e-33
1.91372e-33
5.9483e-34
1.77457e-34
5.09564e-35
1.41181e-35
3.78236e-36
9.81677e-37
2.47229e-37
6.05015e-38
1.44043e-38
3.33988e-39
7.54868e-40
1.66436e-40
3.5822e-41
7.53062e-42
1.54708e-42
3.10737e-43
6.10452e-44
1.17342e-44
-3.20253e-27
-3.2992e-27
-3.66528e-27
-3.60356e-27
-1.72149e-27
1.94532e-27
5.23301e-27
5.9864e-27
4.28964e-27
2.44764e-27
2.66979e-27
4.86973e-27
7.03087e-27
7.44339e-27
6.06391e-27
3.96238e-27
2.14005e-27
9.8151e-28
3.97909e-28
1.54831e-28
6.62871e-29
3.40556e-29
1.95336e-29
1.11175e-29
5.90631e-30
2.88187e-30
1.29375e-30
5.38082e-31
2.0892e-31
7.62579e-32
2.63267e-32
8.64113e-33
2.70847e-33
8.13755e-34
2.35113e-34
6.55036e-35
1.76394e-35
4.60048e-36
1.16404e-36
2.86165e-37
6.84354e-38
1.59375e-38
3.6176e-39
8.00965e-40
1.73094e-40
3.65316e-41
7.53339e-42
1.51858e-42
2.99355e-43
5.77289e-44
-1.54751e-26
-1.59261e-26
-1.80455e-26
-1.83111e-26
-8.60613e-27
1.16213e-26
3.04768e-26
3.52998e-26
2.5561e-26
1.36648e-26
1.25525e-26
2.28523e-26
3.39505e-26
3.62433e-26
2.91611e-26
1.83817e-26
9.24701e-27
3.70556e-27
1.15275e-27
2.67666e-28
5.79137e-29
3.58064e-29
3.65318e-29
2.95685e-29
1.90683e-29
1.0406e-29
5.00408e-30
2.17629e-30
8.71064e-31
3.24879e-31
1.13957e-31
3.78623e-32
1.19832e-32
3.62935e-33
1.05587e-33
2.95984e-34
8.01566e-35
2.10168e-35
5.34495e-36
1.32048e-36
3.17307e-37
7.42422e-38
1.6929e-38
3.76485e-39
8.17094e-40
1.73159e-40
3.58485e-41
7.25335e-42
1.43488e-42
2.77625e-43
-7.50895e-26
-7.67605e-26
-8.80511e-26
-9.23789e-26
-4.4085e-26
6.42526e-26
1.69574e-25
1.99888e-25
1.4666e-25
7.43752e-26
5.65651e-26
1.02813e-25
1.58895e-25
1.71932e-25
1.36807e-25
8.28909e-26
3.81467e-26
1.23108e-26
1.63297e-27
-1.08542e-27
-9.93336e-28
-4.44818e-28
-1.00168e-28
2.69503e-29
4.62245e-29
3.2958e-29
1.79189e-29
8.34073e-30
3.48098e-30
1.33478e-30
4.77396e-31
1.6091e-31
5.14968e-32
1.57381e-32
4.6137e-33
1.30207e-33
3.5479e-34
9.35611e-35
2.39249e-35
5.94198e-36
1.43517e-36
3.3747e-37
7.73232e-38
1.72761e-38
3.76629e-39
8.01571e-40
1.66621e-40
3.38424e-41
6.71891e-42
1.30436e-42
-3.74657e-25
-3.77308e-25
-4.31192e-25
-4.65641e-25
-2.33604e-25
3.29107e-25
9.01104e-25
1.08647e-24
8.08829e-25
3.91217e-25
2.38916e-25
4.36556e-25
7.15952e-25
7.91812e-25
6.24683e-25
3.62438e-25
1.48701e-25
3.15421e-26
-1.07442e-26
-1.61029e-26
-1.04719e-26
-4.86302e-27
-1.69348e-27
-3.78529e-28
1.94941e-29
8.09593e-29
5.76646e-29
3.00115e-29
1.32901e-29
5.28229e-30
1.9346e-30
6.63105e-31
2.14906e-31
6.63374e-32
1.96099e-32
5.57466e-33
1.52904e-33
4.05705e-34
1.04352e-34
2.60627e-35
6.32918e-36
1.49609e-36
3.44533e-37
7.73536e-38
1.69421e-38
3.62171e-39
7.55987e-40
1.54151e-40
3.07163e-41
5.98327e-42
-1.96626e-24
-1.93408e-24
-2.14897e-24
-2.35654e-24
-1.27678e-24
1.55418e-24
4.56936e-24
5.66589e-24
4.28353e-24
1.97589e-24
9.09064e-25
1.70269e-24
3.07747e-24
3.52579e-24
2.7695e-24
1.53232e-24
5.38423e-25
2.28268e-26
-1.33141e-25
-1.23e-25
-7.34393e-26
-3.42111e-26
-1.29287e-26
-3.83931e-27
-7.2584e-28
6.8163e-29
1.55765e-28
9.995e-29
4.83039e-29
2.0119e-29
7.58297e-30
2.64981e-30
8.70889e-31
2.7176e-31
8.10547e-32
2.32208e-32
6.41363e-33
1.71282e-33
4.43278e-34
1.11368e-34
2.71997e-35
6.4649e-36
1.49669e-36
3.37737e-37
7.43284e-38
1.59616e-38
3.34604e-39
6.85001e-40
1.36999e-40
2.67774e-41
-1.09449e-23
-1.04635e-23
-1.10125e-23
-1.19927e-23
-7.09263e-24
6.6842e-24
2.20816e-23
2.83358e-23
2.17759e-23
9.53936e-24
2.84044e-24
5.76331e-24
1.24528e-23
1.51101e-23
1.1895e-23
6.24655e-24
1.7531e-24
-4.4447e-25
-9.64003e-25
-7.60956e-25
-4.34737e-25
-2.01595e-25
-7.84294e-26
-2.54238e-26
-6.409e-27
-8.65225e-28
2.7679e-28
3.00683e-28
1.66525e-28
7.37456e-29
2.87633e-29
1.0272e-29
3.42766e-30
1.08197e-30
3.2573e-31
9.40688e-32
2.61709e-32
7.03651e-33
1.83277e-33
4.63308e-34
1.1383e-34
2.72108e-35
6.33428e-36
1.43687e-36
3.17796e-37
6.85639e-38
1.44358e-38
2.96727e-39
5.95667e-40
1.16825e-40
-6.37487e-23
-5.92836e-23
-5.80705e-23
-6.11825e-23
-3.92429e-23
2.55059e-23
1.01508e-22
1.35834e-22
1.06275e-22
4.39166e-23
4.89291e-24
1.42309e-23
4.64232e-23
6.20137e-23
4.94229e-23
2.45007e-23
4.75498e-24
-4.30428e-24
-5.75882e-24
-4.181e-24
-2.31638e-24
-1.06519e-24
-4.18676e-25
-1.40903e-25
-3.93126e-26
-7.96495e-27
-3.05673e-28
7.77693e-28
5.4288e-28
2.60477e-28
1.05723e-28
3.86605e-29
1.31073e-29
4.18635e-30
1.2723e-30
3.70435e-31
1.03822e-31
2.8108e-32
7.36976e-33
1.87494e-33
4.63502e-34
1.1146e-34
2.60942e-35
5.95135e-36
1.32301e-36
2.86803e-37
6.06538e-38
1.25185e-38
2.5225e-39
4.96422e-40
-3.7763e-22
-3.43258e-22
-3.11661e-22
-3.1046e-22
-2.12079e-22
8.1155e-23
4.42767e-22
6.2382e-22
4.9826e-22
1.92837e-22
-2.1535e-23
-5.19548e-26
1.52934e-22
2.42479e-22
1.98727e-22
9.24582e-23
8.00492e-24
-2.81202e-23
-3.07414e-23
-2.11099e-23
-1.14013e-23
-5.18459e-24
-2.0392e-24
-6.97517e-25
-2.0384e-25
-4.74288e-26
-6.27427e-27
1.50795e-27
1.67264e-27
8.89655e-28
3.7747e-28
1.41454e-28
4.87207e-29
1.57405e-29
4.82804e-30
1.41699e-30
4.00065e-31
1.09069e-31
2.87909e-32
7.37292e-33
1.83432e-33
4.43827e-34
1.0452e-34
2.39718e-35
5.35711e-36
1.16703e-36
2.47928e-37
5.13841e-38
1.03933e-38
2.05242e-39
-2.20746e-21
-1.97228e-21
-1.67021e-21
-1.54931e-21
-1.10165e-21
1.73674e-22
1.82607e-21
2.74289e-21
2.24681e-21
8.11187e-22
-3.08815e-22
-3.1575e-22
3.99693e-22
8.9911e-22
7.76331e-22
3.37307e-22
-1.56127e-23
-1.55339e-22
-1.51224e-22
-9.95023e-23
-5.24835e-23
-2.35391e-23
-9.20704e-24
-3.16334e-24
-9.44396e-25
-2.33972e-25
-4.03097e-26
7.95559e-28
4.90103e-27
2.95799e-27
1.31378e-27
5.03958e-28
1.76111e-28
5.74941e-29
1.77851e-29
5.25932e-30
1.4955e-30
4.10552e-31
1.09117e-31
2.81323e-32
7.04543e-33
1.71564e-33
4.06516e-34
9.37784e-35
2.10718e-35
4.61371e-36
9.8473e-37
2.04959e-37
4.16166e-38
8.24683e-39
-1.24263e-20
-1.09653e-20
-8.74978e-21
-7.50441e-21
-5.43023e-21
-1.34041e-22
7.08124e-21
1.15334e-20
9.76049e-21
3.30499e-21
-2.28258e-21
-2.80983e-21
4.64011e-22
3.15387e-21
2.97576e-21
1.20676e-21
-2.44482e-22
-7.72209e-22
-6.9568e-22
-4.41393e-22
-2.27347e-22
-1.00288e-22
-3.88162e-23
-1.32886e-23
-3.99425e-24
-1.01817e-24
-1.94967e-25
-1.0834e-26
1.39607e-26
9.67529e-27
4.47742e-27
1.75105e-27
6.19086e-28
2.03834e-28
6.35095e-29
1.89083e-29
5.4129e-30
1.49616e-30
4.00417e-31
1.03956e-31
2.6215e-32
6.42676e-33
1.53267e-33
3.55738e-34
8.03917e-35
1.76952e-35
3.7951e-36
7.93375e-37
1.61732e-37
3.21627e-38
-6.61577e-20
-5.79013e-20
-4.39586e-20
-3.48012e-20
-2.51195e-20
-4.33681e-21
2.5556e-20
4.62582e-20
4.09161e-20
1.32963e-20
-1.33363e-20
-1.79795e-20
-3.43812e-21
1.05028e-20
1.13955e-20
4.35657e-21
-1.57744e-21
-3.5458e-21
-3.01683e-21
-1.85057e-21
-9.29343e-22
-4.01888e-22
-1.53212e-22
-5.19215e-23
-1.55493e-23
-3.99488e-24
-7.97251e-25
-6.83763e-26
4.06148e-26
3.15542e-26
1.50086e-26
5.93932e-27
2.11469e-27
7.00144e-28
2.1932e-28
6.56701e-29
1.89168e-29
5.26402e-30
1.41886e-30
3.71075e-31
9.42663e-32
2.32773e-32
5.58992e-33
1.30598e-33
2.9694e-34
6.57281e-35
1.41689e-35
2.97572e-36
6.09111e-37
1.21574e-37
-3.2852e-19
-2.86599e-19
-2.08491e-19
-1.52423e-19
-1.07855e-19
-3.24144e-20
8.38789e-20
1.75898e-19
1.65671e-19
5.41766e-20
-6.6746e-20
-9.76347e-20
-3.56095e-20
3.37438e-20
4.46759e-20
1.65154e-20
-7.9045e-21
-1.52536e-20
-1.23928e-20
-7.34824e-21
-3.58744e-21
-1.51471e-21
-5.65971e-22
-1.88659e-22
-5.57763e-23
-1.4211e-23
-2.83874e-24
-2.61048e-25
1.29474e-25
1.03891e-25
4.96255e-26
1.96529e-26
7.00216e-27
2.32213e-27
7.2958e-28
2.19418e-28
6.35667e-29
1.7809e-29
4.83656e-30
1.27504e-30
3.26546e-31
8.12828e-32
1.96703e-32
4.62898e-33
1.05957e-33
2.35974e-34
5.115e-35
1.07955e-35
2.21945e-36
4.44696e-37
-1.50291e-18
-1.31752e-18
-9.21697e-19
-6.21887e-19
-4.24426e-19
-1.83505e-19
2.34658e-19
6.25365e-19
6.47353e-19
2.28279e-19
-2.91224e-19
-4.72728e-19
-2.22248e-19
1.0813e-19
1.83083e-19
6.76882e-20
-3.44274e-20
-6.21169e-20
-4.83962e-20
-2.76548e-20
-1.30646e-20
-5.35795e-21
-1.95079e-21
-6.35087e-22
-1.83526e-22
-4.56008e-23
-8.7676e-24
-6.71962e-25
4.6986e-25
3.47083e-25
1.61726e-25
6.32254e-26
2.23647e-26
7.39311e-27
2.32312e-27
7.00764e-28
2.04109e-28
5.75975e-29
1.57753e-29
4.19717e-30
1.08511e-30
2.72626e-31
6.65641e-32
1.57949e-32
3.64299e-33
8.16912e-34
1.78163e-34
3.78064e-35
7.8097e-36
1.57128e-36
-6.25471e-18
-5.59022e-18
-3.75497e-18
-2.32845e-18
-1.50548e-18
-9.27136e-19
4.249e-19
2.01563e-18
2.43054e-18
9.98111e-19
-1.09305e-18
-2.08297e-18
-1.14495e-18
3.56642e-19
7.86164e-19
2.97568e-19
-1.37576e-19
-2.41969e-19
-1.80226e-19
-9.85959e-20
-4.47647e-20
-1.77099e-20
-6.23657e-21
-1.96496e-21
-5.47817e-22
-1.29698e-22
-2.25934e-23
-5.97456e-25
1.86447e-24
1.16823e-24
5.16243e-25
1.96275e-25
6.82941e-26
2.23731e-26
7.00797e-27
2.11748e-27
6.20206e-28
1.76511e-28
4.88515e-29
1.31471e-29
3.43909e-30
8.73997e-31
2.15712e-31
5.16973e-32
1.20311e-32
2.71951e-33
5.97286e-34
1.27524e-34
2.64831e-35
5.35273e-36
-2.33476e-17
-2.1826e-17
-1.39077e-17
-7.84776e-18
-4.69497e-18
-4.4984e-18
-8.15008e-19
5.48003e-18
8.66967e-18
4.47205e-18
-3.35055e-18
-8.42518e-18
-5.30561e-18
1.17072e-18
3.47116e-18
1.35094e-18
-5.32296e-19
-9.12895e-19
-6.41702e-19
-3.32279e-19
-1.43573e-19
-5.42882e-20
-1.83035e-20
-5.50756e-21
-1.45056e-21
-3.13408e-22
-4.23397e-23
5.68212e-24
7.48416e-24
3.88806e-24
1.59343e-24
5.80026e-25
1.96327e-25
6.3269e-26
1.96767e-26
5.94985e-27
1.75511e-27
5.05374e-28
1.4191e-28
3.87978e-29
1.0311e-29
2.66036e-30
6.65827e-31
1.61584e-31
3.80227e-32
8.67793e-33
1.92188e-33
4.13275e-34
8.63499e-35
1.75435e-35
-7.68555e-17
-7.84889e-17
-4.56028e-17
-2.30792e-17
-1.23071e-17
-2.1043e-17
-1.48678e-17
9.95478e-18
2.86873e-17
2.04665e-17
-7.12764e-18
-3.09557e-17
-2.32972e-17
3.16759e-18
1.54087e-17
6.12619e-18
-2.13845e-18
-3.38349e-18
-2.18635e-18
-1.05265e-18
-4.26982e-19
-1.52346e-19
-4.84345e-20
-1.36067e-20
-3.24361e-21
-5.68892e-22
-1.62358e-23
4.59558e-23
2.8619e-23
1.24687e-23
4.65756e-24
1.59351e-24
5.16439e-25
1.61877e-25
4.97056e-26
1.50436e-26
4.49079e-27
1.31841e-27
3.78953e-28
1.06168e-28
2.88892e-29
7.61688e-30
1.94333e-30
4.79547e-31
1.14468e-31
2.64436e-32
5.91653e-33
1.28323e-33
2.70049e-34
5.51949e-35
-2.17478e-16
-2.60082e-16
-1.23588e-16
-5.59348e-17
-2.43714e-17
-8.49382e-17
-1.09831e-16
-7.65896e-18
9.76139e-17
1.02608e-16
-2.01361e-18
-9.49274e-17
-1.0449e-16
2.72906e-18
6.90204e-17
2.76255e-17
-9.59295e-18
-1.24868e-17
-7.09472e-18
-3.09423e-18
-1.15655e-18
-3.82228e-19
-1.11619e-19
-2.78734e-20
-5.29683e-21
-3.37333e-22
3.28419e-22
2.26192e-22
1.00709e-22
3.7378e-23
1.24648e-23
3.88714e-24
1.16853e-24
3.47471e-25
1.0412e-25
3.1658e-26
9.71562e-27
2.97205e-27
8.94172e-28
2.61833e-28
7.41292e-29
2.02222e-29
5.30878e-30
1.3413e-30
3.26425e-31
7.66112e-32
1.73641e-32
3.80605e-33
8.07909e-34
1.66299e-34
-4.99784e-16
-7.35504e-16
-5.28886e-16
-1.10545e-16
-2.98332e-17
-9.71624e-16
-7.26365e-16
-2.03032e-16
1.6804e-15
7.49701e-16
6.34607e-17
-7.92652e-16
-5.99851e-16
-2.97071e-17
3.75688e-16
1.27471e-16
-5.04596e-17
-4.63562e-17
-2.15078e-17
-8.18811e-18
-2.75142e-18
-8.16866e-19
-2.06357e-19
-3.8806e-20
-1.66443e-21
3.07938e-21
2.01644e-21
8.82825e-22
3.18672e-22
1.00632e-22
2.85834e-23
7.47456e-24
1.86347e-24
4.70521e-25
1.3003e-25
4.08919e-26
1.40726e-26
4.94079e-27
1.68553e-27
5.46767e-28
1.67628e-28
4.86008e-29
1.33663e-29
3.49975e-30
8.75507e-31
2.09935e-31
4.83896e-32
1.07485e-32
2.30584e-33
4.78657e-34
-8.09052e-16
-1.03909e-15
-1.37133e-14
-1.14007e-15
-1.93098e-14
-2.27186e-14
-3.34019e-15
-4.95713e-16
1.49337e-14
4.30847e-15
-2.1203e-14
-2.32812e-14
-3.28428e-15
5.51408e-15
4.21596e-15
5.36478e-16
-3.73495e-16
-1.73619e-16
-5.71002e-17
-1.80876e-17
-5.28949e-18
-1.31156e-18
-2.22684e-19
1.05722e-20
3.23371e-20
1.90536e-20
8.17426e-21
2.9071e-21
8.81853e-22
2.25659e-22
4.57601e-23
5.6279e-24
-6.07609e-25
-6.72006e-25
-2.59961e-25
-6.77148e-26
-1.05481e-26
9.00346e-28
1.54247e-27
7.88188e-28
3.03675e-28
1.00757e-28
3.02191e-29
8.39185e-30
2.18839e-30
5.40843e-31
1.27497e-31
2.88068e-32
6.26118e-33
1.31301e-33
1.21477e-13
1.09779e-14
-5.12615e-14
-4.36236e-13
-6.38186e-13
-1.21329e-13
6.16303e-13
1.3292e-12
-5.2089e-13
-1.38401e-12
-8.58995e-13
-1.26117e-13
2.4945e-13
1.74236e-13
2.22265e-14
-1.02525e-14
-4.47177e-15
-5.37598e-16
-9.9877e-17
-2.63088e-17
-6.3471e-18
-8.00691e-19
3.19525e-19
3.21715e-19
1.73891e-19
7.41943e-20
2.67483e-20
8.16442e-21
2.0105e-21
3.25945e-22
-1.70677e-23
-4.25706e-23
-2.26434e-23
-8.77359e-24
-2.8373e-24
-7.95846e-25
-1.94293e-25
-4.00516e-26
-6.18749e-27
-2.78986e-28
2.84446e-28
1.57838e-28
5.81989e-29
1.80506e-29
5.03526e-30
1.30086e-30
3.16227e-31
7.30404e-32
1.61353e-32
3.42522e-33
2.2865e-11
3.84923e-12
3.35697e-13
-7.80502e-12
-3.12853e-12
3.08438e-11
2.97632e-11
7.63912e-12
-4.88921e-11
-2.38716e-11
-3.82542e-12
1.0273e-11
6.12274e-12
7.99194e-13
-3.79802e-13
-1.82222e-13
-1.88329e-14
3.54006e-16
4.43355e-17
1.09155e-19
2.04498e-18
3.91447e-18
2.82442e-18
1.45573e-18
6.2495e-19
2.32531e-19
7.41088e-20
1.89985e-20
3.05453e-21
-3.46556e-22
-5.71838e-22
-3.14219e-22
-1.29883e-22
-4.56309e-23
-1.42111e-23
-3.99223e-24
-1.01669e-24
-2.33375e-25
-4.72234e-26
-7.90099e-27
-8.46749e-28
7.31861e-29
8.22563e-29
3.32781e-29
1.04818e-29
2.89917e-30
7.35498e-31
1.74802e-31
3.93944e-32
8.48425e-33
1.10058e-10
6.31076e-11
9.11752e-12
-3.66655e-11
5.20273e-10
4.25185e-10
1.14921e-10
-7.41582e-10
-2.13418e-10
-5.85121e-11
3.32824e-10
1.81368e-10
2.48568e-11
-1.30689e-11
-6.14592e-12
-6.5931e-13
1.99079e-14
4.19162e-15
3.33832e-16
4.73033e-17
2.23693e-17
1.90428e-17
1.0775e-17
4.79241e-18
1.85014e-18
6.2429e-19
1.73443e-19
3.21241e-20
-1.74871e-21
-5.32598e-21
-3.25256e-21
-1.45299e-21
-5.48383e-22
-1.83628e-22
-5.57838e-23
-1.55448e-23
-3.99117e-24
-9.43089e-25
-2.0338e-25
-3.91679e-26
-6.36695e-27
-7.14371e-28
2.24609e-29
4.69573e-29
1.92419e-29
5.94593e-30
1.60128e-30
3.94677e-31
9.10976e-32
1.99452e-32
1.46534e-10
5.36523e-10
6.67661e-10
6.22897e-09
7.18478e-09
7.98957e-10
-1.24489e-08
-1.0266e-08
5.15001e-09
9.97484e-09
4.31658e-09
6.34402e-10
-4.70331e-10
-2.15903e-10
-2.22643e-11
5.39387e-13
1.35156e-13
6.78223e-15
-2.2777e-16
-5.84208e-17
3.03978e-17
6.31844e-17
3.39389e-17
1.35712e-17
4.78779e-18
1.45247e-18
3.20097e-19
9.90383e-21
-3.90493e-20
-2.79531e-20
-1.36303e-20
-5.51384e-21
-1.96642e-21
-6.35357e-22
-1.88686e-22
-5.19139e-23
-1.32824e-23
-3.1606e-24
-6.96538e-25
-1.40593e-25
-2.53335e-26
-3.81465e-27
-3.72145e-28
2.85271e-29
2.99421e-29
1.12027e-29
3.27431e-30
8.43482e-31
1.99985e-31
4.45594e-32
-4.59061e-10
1.21708e-09
1.31167e-08
3.65325e-08
2.22536e-08
-8.14612e-08
-6.46337e-08
-3.14102e-08
1.09815e-07
5.33553e-08
1.21471e-08
-1.41514e-08
-7.11834e-09
-7.85527e-10
1.15796e-11
3.08764e-12
1.8381e-13
-5.77876e-15
-1.94928e-15
-3.57055e-16
2.31889e-17
2.67704e-16
1.03633e-16
3.39099e-17
1.07535e-17
2.81338e-18
3.14807e-19
-2.24462e-19
-2.06963e-19
-1.11807e-19
-4.84882e-20
-1.83173e-20
-6.23972e-21
-1.95136e-21
-5.66028e-22
-1.53197e-22
-3.88034e-23
-9.20144e-24
-2.03721e-24
-4.18047e-25
-7.82464e-26
-1.28788e-26
-1.68058e-27
-9.6986e-29
3.7285e-29
1.97053e-29
6.37899e-30
1.72294e-30
4.19393e-31
9.49698e-32
-3.28554e-08
-2.68811e-09
4.05398e-08
8.28036e-08
-2.97457e-07
-4.04992e-07
5.69239e-08
1.12949e-06
3.70139e-07
-4.12367e-08
-4.74096e-07
-2.10982e-07
-2.47171e-08
1.99276e-10
5.64034e-11
3.89883e-12
-7.59845e-14
-3.2646e-14
-5.35375e-15
8.85381e-17
7.23466e-15
1.9348e-15
2.67547e-16
6.30603e-17
1.89757e-17
3.88476e-18
-8.12207e-19
-1.31559e-18
-8.18159e-19
-3.82611e-19
-1.5245e-19
-5.4314e-20
-1.77155e-20
-5.3589e-21
-1.51477e-21
-4.01847e-22
-1.00261e-22
-2.35279e-23
-5.1807e-24
-1.06397e-24
-2.01245e-25
-3.41162e-26
-4.83859e-27
-4.38806e-28
3.72262e-29
3.43785e-29
1.2226e-29
3.4258e-30
8.49447e-31
1.94384e-31
-2.43507e-06
-1.65309e-06
-4.34197e-07
-4.00873e-06
-5.41376e-06
-9.54954e-07
9.49031e-06
8.92157e-06
-3.58514e-06
-9.16069e-06
-4.66881e-06
-7.75363e-07
2.2871e-09
6.46974e-10
6.4859e-11
-4.18435e-13
-3.92351e-13
-4.21394e-14
6.25436e-13
4.96922e-13
1.3811e-13
7.23511e-15
2.25946e-17
3.00379e-17
2.2205e-17
1.97951e-18
-6.37049e-18
-5.29715e-18
-2.75373e-18
-1.15719e-18
-4.27148e-19
-1.43612e-19
-4.47723e-20
-1.30656e-20
-3.58738e-21
-9.29228e-22
-2.27289e-22
-5.24616e-23
-1.1394e-23
-2.31416e-24
-4.34106e-25
-7.32698e-26
-1.04285e-26
-9.82717e-28
6.04125e-29
6.68538e-29
2.41551e-29
6.79258e-30
1.68484e-30
3.85258e-31
-1.12017e-05
-1.49507e-05
-2.28683e-05
-3.25877e-05
-2.34369e-05
1.72599e-05
3.87787e-05
2.2149e-05
-6.13882e-05
-4.26706e-05
-1.14839e-05
-8.79025e-07
4.1216e-10
8.52591e-10
8.41653e-11
6.01646e-13
-1.03499e-12
4.88461e-12
5.67053e-12
2.73567e-12
4.96952e-13
8.75403e-17
-3.58924e-16
-5.92774e-17
4.69813e-17
-5.34445e-21
-2.63465e-17
-1.80992e-17
-8.19139e-18
-3.09509e-18
-1.05286e-18
-3.32321e-19
-9.8602e-20
-2.76547e-20
-7.34771e-21
-1.85028e-21
-4.41276e-22
-9.94614e-23
-2.10969e-23
-4.17716e-24
-7.59882e-25
-1.22715e-25
-1.60307e-26
-1.06785e-27
2.71778e-28
1.55759e-28
5.0779e-29
1.36674e-29
3.30694e-30
7.44058e-31
-2.03685e-05
-4.12922e-05
-9.47457e-05
-7.93869e-05
-3.83223e-05
8.53824e-05
5.52749e-05
-0.000473635
-0.000212948
-7.45148e-05
0.000280027
0.000429166
0.000224014
7.618e-06
7.44771e-10
2.82973e-11
3.3036e-11
2.56104e-11
1.64417e-11
5.6708e-12
6.25506e-13
-5.36806e-15
-1.95624e-15
-2.29383e-16
3.33396e-16
4.42008e-17
-9.99183e-17
-5.71123e-17
-2.15111e-17
-7.09552e-18
-2.18652e-18
-6.41725e-19
-1.80225e-19
-4.83933e-20
-1.23913e-20
-3.01621e-21
-6.9546e-22
-1.51152e-22
-3.07195e-23
-5.7525e-24
-9.62268e-25
-1.32687e-25
-1.06303e-26
1.66045e-27
1.15914e-27
3.99341e-28
1.11387e-28
2.77515e-29
6.41122e-30
1.399e-30
-1.02913e-05
-5.09544e-05
-0.000178105
-4.90202e-05
0.000616757
0.00024271
-0.00188519
-0.0028688
-0.000249982
0.0106499
0.0263506
0.0360424
0.0343238
0.023798
0.0115149
0.00339271
0.000282308
8.84153e-11
2.56129e-11
4.88544e-12
-4.21833e-14
-3.27038e-14
-5.79373e-15
6.78199e-15
4.19173e-15
3.53963e-16
-5.37598e-16
-1.73624e-16
-4.63581e-17
-1.24873e-17
-3.38357e-18
-9.12888e-19
-2.41956e-19
-6.21098e-20
-1.52506e-20
-3.54469e-21
-7.71833e-22
-1.5522e-22
-2.80848e-23
-4.29422e-24
-4.4175e-25
2.35299e-26
3.17165e-26
1.23524e-26
3.71511e-27
9.8363e-28
2.39942e-28
5.50962e-29
1.20522e-29
2.53016e-30
0.000738392
0.000430816
-7.56233e-05
0.00188905
0.00354347
-0.00123679
-0.00932426
-0.00857507
0.0142505
0.0641194
0.127748
0.172839
0.173907
0.137769
0.0826735
0.0352506
0.00849833
0.000282309
3.30387e-11
-1.03538e-12
-3.92625e-13
-7.6088e-14
1.83799e-13
1.35155e-13
1.99088e-14
-1.8831e-14
-4.47151e-15
-3.73498e-16
-5.04628e-17
-9.59392e-18
-2.13863e-18
-5.32299e-19
-1.37559e-19
-3.44164e-20
-7.8997e-21
-1.57563e-21
-2.43867e-22
-1.54186e-23
8.06252e-24
4.77117e-24
1.75743e-24
5.39527e-25
1.48971e-25
3.82102e-26
9.26136e-27
2.14318e-27
4.76693e-28
1.02378e-28
2.12998e-29
4.30302e-30
0.00352272
0.0027069
0.00266487
0.00770738
0.00986107
-0.00520904
-0.0254147
-0.0142679
0.0539372
0.175506
0.32021
0.429724
0.444137
0.371414
0.241186
0.115533
0.0352506
0.00339272
2.82941e-11
6.00997e-13
-4.18716e-13
3.89856e-12
3.08748e-12
5.3937e-13
-6.59244e-13
-1.82206e-13
-1.0252e-14
5.36434e-16
1.27458e-16
2.76224e-17
6.12559e-18
1.35088e-18
2.97588e-19
6.77053e-20
1.65235e-20
4.3597e-21
1.20783e-21
3.37647e-22
9.25585e-23
2.45286e-23
6.2539e-24
1.53417e-24
3.62881e-25
8.2993e-26
1.84044e-26
3.96722e-27
8.32995e-28
1.70649e-28
3.41516e-29
6.68273e-30
0.00804533
0.00686552
0.00786763
0.0172842
0.0186617
-0.0122604
-0.0473434
-0.0165389
0.116594
0.32595
0.559683
0.744135
0.78794
0.684667
0.469167
0.241186
0.0826735
0.0115149
7.44755e-10
8.41883e-11
6.4852e-11
5.64003e-11
1.15791e-11
-2.22626e-11
-6.14548e-12
-3.79776e-13
2.22251e-14
4.21565e-15
3.75669e-16
6.90179e-17
1.54084e-17
3.47124e-18
7.86247e-19
1.83127e-19
4.46937e-20
1.1402e-20
2.9779e-21
7.76988e-22
1.98916e-22
4.94745e-23
1.19083e-23
2.77278e-24
6.25456e-25
1.36982e-25
2.9199e-26
6.07183e-27
1.23422e-27
2.45638e-28
4.79243e-29
9.17337e-30
0.0114746
0.00995364
0.0119562
0.0250553
0.0257283
-0.0190582
-0.0664168
-0.0159312
0.1756
0.452765
0.744524
0.982584
1.06422
0.956187
0.684667
0.371414
0.137769
0.023798
7.61803e-06
8.52553e-10
6.46958e-10
1.99268e-10
-7.85473e-10
-2.1589e-10
-1.30683e-11
7.99142e-13
1.74223e-13
5.51358e-15
-2.96958e-17
2.73359e-18
3.1694e-18
1.17147e-18
3.56944e-19
1.08245e-19
3.3785e-20
1.05166e-20
3.1582e-21
9.00394e-22
2.4284e-22
6.21097e-23
1.51345e-23
3.53168e-24
7.93175e-25
1.72234e-25
3.63079e-26
7.45668e-27
1.49636e-27
2.94099e-28
5.6714e-29
1.07436e-29
0.0102163
0.00835903
0.0100264
0.0244081
0.0265035
-0.0202188
-0.0727634
-0.0187943
0.189617
0.484487
0.785916
1.04014
1.15139
1.06422
0.78794
0.444137
0.173907
0.0343238
0.000224013
4.12217e-10
2.287e-09
-2.47154e-08
-7.1179e-09
-4.70309e-10
2.48553e-11
6.12232e-12
2.49428e-13
-3.28397e-15
-5.99787e-16
-1.04477e-16
-2.32926e-17
-5.30385e-18
-1.1443e-18
-2.22014e-19
-3.55299e-20
-3.41238e-21
4.71904e-22
4.01988e-22
1.53567e-22
4.65893e-23
1.24944e-23
3.08741e-24
7.18228e-25
1.59395e-25
3.40562e-26
7.05238e-27
1.42264e-27
2.80626e-28
5.42794e-29
1.03137e-29
0.00239724
0.000669214
2.14129e-05
0.0112083
0.0192533
-0.0120168
-0.0605951
-0.0318382
0.132399
0.38879
0.66732
0.915008
1.04014
0.982584
0.744135
0.429724
0.172839
0.0360424
0.000429163
-8.78965e-07
-7.75321e-07
-2.10971e-07
-1.41506e-08
6.34364e-10
1.81357e-10
1.02723e-11
-1.26106e-13
-2.32791e-14
-7.92585e-16
-9.49196e-17
-3.09503e-17
-8.42273e-18
-2.082e-18
-4.72369e-19
-9.75108e-20
-1.79393e-20
-2.79751e-21
-3.12183e-22
9.2716e-25
1.44864e-23
5.82687e-24
1.7178e-24
4.39995e-25
1.03565e-25
2.30101e-26
4.90168e-27
1.01128e-27
2.03444e-28
4.00875e-29
7.75806e-30
-0.00436267
-0.00534522
-0.00818346
-0.00403418
0.00763079
0.00207328
-0.03113
-0.0439913
0.0247546
0.195267
0.43412
0.66732
0.785916
0.744524
0.559683
0.32021
0.127748
0.0263505
0.000280025
-1.14836e-05
-4.66866e-06
-4.74078e-07
1.21464e-08
4.31634e-09
3.32804e-10
-3.82512e-12
-8.58928e-13
-2.12009e-14
6.34651e-17
-2.00571e-18
-7.12232e-18
-3.34784e-18
-1.09188e-18
-2.90768e-19
-6.65839e-20
-1.32829e-20
-2.2661e-21
-3.0403e-22
-2.02215e-23
5.23524e-24
2.92542e-24
9.29212e-25
2.4349e-25
5.75615e-26
1.27612e-26
2.71191e-27
5.60254e-28
1.13555e-28
2.27034e-29
4.48813e-30
-0.00401096
-0.00393618
-0.00642813
-0.00850258
-0.000858459
0.0103493
-0.00085639
-0.0385752
-0.051388
0.0225179
0.195267
0.38879
0.484487
0.452765
0.32595
0.175506
0.0641194
0.0106499
-7.45126e-05
-4.26696e-05
-9.16049e-06
-4.12415e-08
5.33522e-08
9.97437e-09
-5.85051e-11
-2.38697e-11
-1.38392e-12
4.30803e-15
7.49655e-16
1.02614e-16
2.04719e-17
4.47495e-18
9.9941e-19
2.28794e-19
5.4362e-20
1.33579e-20
3.32404e-21
8.16721e-22
1.94355e-22
4.43119e-23
9.63731e-24
1.99907e-24
3.96469e-25
7.55172e-26
1.39036e-26
2.49574e-27
4.41584e-28
7.79914e-29
1.392e-29
2.53288e-30
0.00069873
0.00144361
0.00131292
-0.0029358
-0.00327478
0.00797738
0.0129242
-0.0134062
-0.0544588
-0.051388
0.0247546
0.132399
0.189617
0.1756
0.116594
0.0539373
0.0142506
-0.000249958
-0.000212942
-6.13872e-05
-3.58521e-06
3.70121e-07
1.0981e-07
5.14982e-09
-2.13401e-10
-4.88883e-11
-5.20878e-13
1.49317e-14
1.6803e-15
9.76334e-17
2.8694e-17
8.67275e-18
2.43187e-18
6.47872e-19
1.65856e-19
4.09773e-20
9.77931e-21
2.25226e-21
4.99748e-22
1.06661e-22
2.18712e-23
4.30604e-24
8.1392e-25
1.47765e-25
2.57918e-26
4.33608e-27
7.04255e-28
1.11058e-28
1.71404e-29
2.62033e-30
0.00199263
0.00238298
0.00361439
0.00212497
-0.00170608
0.00017905
0.0086795
0.00772976
-0.0134062
-0.0385752
-0.0439912
-0.0318382
-0.0187943
-0.0159312
-0.0165389
-0.0142678
-0.00857505
-0.00286879
-0.000473629
2.21489e-05
8.9214e-06
1.12945e-06
-3.14088e-08
-1.02655e-08
-7.4154e-10
7.63862e-12
1.3291e-12
-4.95748e-16
-2.0299e-16
-7.64426e-18
9.9611e-18
5.48279e-18
2.01677e-18
6.25798e-19
1.7605e-19
4.6308e-20
1.15486e-20
2.74726e-21
6.2501e-22
1.36141e-22
2.84116e-23
5.68375e-24
1.0905e-24
2.00763e-25
3.54827e-26
6.02323e-27
9.82573e-28
1.54159e-28
2.32932e-29
3.39818e-30
-0.000271141
-0.000450869
0.00016003
0.0014326
0.000195716
-0.00308615
-0.000922731
0.0086795
0.0129242
-0.000856384
-0.03113
-0.0605951
-0.0727634
-0.0664168
-0.0473434
-0.0254148
-0.00932427
-0.00188519
5.52732e-05
3.87779e-05
9.49012e-06
5.69199e-08
-6.46319e-08
-1.24484e-08
1.14922e-10
2.97616e-11
6.16232e-13
-3.34003e-15
-7.26315e-16
-1.09817e-16
-1.48629e-17
-8.1314e-19
4.25621e-19
2.34926e-19
8.39724e-20
2.55865e-20
7.09056e-21
1.82875e-21
4.43498e-22
1.01698e-22
2.21285e-23
4.58047e-24
9.03625e-25
1.70124e-25
3.05924e-26
5.25642e-27
8.62823e-28
1.35193e-28
2.01874e-29
2.86511e-30
-0.00108931
-0.0012947
-0.00153551
-0.000552214
0.000515832
-0.00107038
-0.00308615
0.000179051
0.00797738
0.0103493
0.00207327
-0.0120168
-0.0202188
-0.0190582
-0.0122604
-0.00520906
-0.00123681
0.000242704
8.538e-05
1.72593e-05
-9.54964e-07
-4.04986e-07
-8.14588e-08
7.99002e-10
4.25177e-10
3.08419e-11
-1.21323e-13
-2.27175e-14
-9.71579e-16
-8.49335e-17
-2.10405e-17
-4.49748e-18
-9.26805e-19
-1.83388e-19
-3.23743e-20
-4.32373e-21
-1.29989e-22
1.74864e-22
8.14869e-23
2.5594e-23
6.70654e-24
1.55959e-24
3.30364e-25
6.45332e-26
1.16816e-26
1.95778e-27
3.01455e-28
4.18148e-29
4.9747e-30
4.32138e-31
-0.000342915
-0.00033725
-0.000417308
-0.000516104
-0.00013689
0.000515828
0.000195716
-0.00170607
-0.00327478
-0.000858476
0.00763079
0.0192534
0.0265035
0.0257283
0.0186617
0.00986105
0.00354345
0.00061675
-3.83235e-05
-2.34374e-05
-5.41382e-06
-2.97444e-07
2.22532e-08
7.18462e-09
5.20259e-10
-3.1284e-12
-6.38166e-13
-1.93096e-14
-2.9821e-17
-2.43646e-17
-1.23039e-17
-4.69383e-18
-1.50514e-18
-4.24329e-19
-1.07828e-19
-2.51121e-20
-5.42817e-21
-1.10107e-21
-2.11919e-22
-3.91992e-23
-7.08119e-24
-1.2739e-24
-2.3291e-25
-4.39243e-26
-8.57043e-27
-1.71386e-27
-3.45643e-28
-6.91947e-29
-1.35877e-29
-2.59785e-30
-0.000579305
-0.000613353
-0.000267007
5.58979e-06
-0.000516101
-0.000552219
0.0014326
0.00212498
-0.0029358
-0.0085026
-0.00403418
0.0112083
0.0244082
0.0250554
0.0172842
0.00770734
0.00188902
-4.90299e-05
-7.93908e-05
-3.25888e-05
-4.00879e-06
8.28027e-08
3.65323e-08
6.22898e-09
-3.66641e-11
-7.80488e-12
-4.36244e-13
-1.1398e-15
-1.10494e-16
-5.59108e-17
-2.30693e-17
-7.84448e-18
-2.32752e-18
-6.21645e-19
-1.52364e-19
-3.47873e-20
-7.50113e-21
-1.54852e-21
-3.10266e-22
-6.11341e-23
-1.19807e-23
-2.35361e-24
-4.64948e-25
-9.22196e-26
-1.82757e-26
-3.59599e-27
-6.98216e-28
-1.33107e-28
-2.48228e-29
-4.51747e-30
-0.0014905
-0.00166292
-0.00127392
-0.000267005
-0.000417304
-0.00153552
0.000160028
0.0036144
0.00131292
-0.00642815
-0.00818347
2.14535e-05
0.0100265
0.0119562
0.0078676
0.00266481
-7.5653e-05
-0.000178119
-9.47511e-05
-2.28695e-05
-4.34182e-07
4.05431e-08
1.31174e-08
6.67645e-10
9.11668e-12
3.35587e-13
-5.12782e-14
-1.37138e-14
-5.2858e-16
-1.2353e-16
-4.55808e-17
-1.39008e-17
-3.75308e-18
-9.21225e-19
-2.08381e-19
-4.39337e-20
-8.74423e-21
-1.66896e-21
-3.11376e-22
-5.8004e-23
-1.09969e-23
-2.14533e-24
-4.30353e-25
-8.78627e-26
-1.80043e-26
-3.65655e-27
-7.29334e-28
-1.42058e-28
-2.69364e-29
-4.9651e-30
-0.00168006
-0.00187764
-0.00166292
-0.000613353
-0.000337248
-0.0012947
-0.000450871
0.00238299
0.00144361
-0.0039362
-0.00534523
0.000669251
0.00835908
0.00995366
0.00686548