/*--------------------------------*- C++ -*----------------------------------*\
| =========                 |                                                 |
| \\      /  F ield         | OpenFOAM: The Open Source CFD Toolbox           |
|  \\    /   O peration     | Version:  v2006                                 |
|   \\  /    A nd           | Website:  www.openfoam.com                      |
|    \\/     M anipulation  |                                                 |
\*---------------------------------------------------------------------------*/
FoamFile
{
    version     2.0;
    format      ascii;
    class       surfaceScalarField;
    location    "15";
    object      phi;
}
// * * * * * * * * * * * * * * * * * * * * * * * * * * * * * * * * * * * * * //

dimensions      [0 3 -1 0 0 0 0];
oriented        oriented;


internalField   nonuniform List<scalar> 
99450
(
-1.97225e-05
1.97225e-05
-2.46731e-05
4.95058e-06
-2.96911e-05
5.01806e-06
-3.79945e-05
8.30333e-06
-4.86186e-05
1.06241e-05
-6.02106e-05
1.1592e-05
-7.22052e-05
1.19947e-05
-8.4435e-05
1.22298e-05
-9.68823e-05
1.24474e-05
-0.000109575
1.26923e-05
-0.000122508
1.29336e-05
-0.000135661
1.31523e-05
-0.000148999
1.33382e-05
-0.000162485
1.34861e-05
-0.000176076
1.3591e-05
-0.000189736
1.366e-05
-0.000203413
1.36773e-05
-0.000217058
1.36451e-05
-0.00023064
1.3582e-05
-0.000244104
1.34641e-05
-0.000257419
1.33149e-05
-0.000270547
1.31277e-05
-0.000283443
1.28964e-05
-0.000296071
1.26273e-05
-0.00030841
1.23397e-05
-0.000320445
1.20349e-05
-0.000332156
1.17106e-05
-0.000343533
1.13767e-05
-0.000354578
1.10453e-05
-0.000365312
1.07339e-05
-0.000375767
1.04557e-05
-0.000385996
1.02283e-05
-0.000396086
1.00899e-05
-0.000406136
1.00501e-05
-0.000416253
1.01168e-05
-0.000426506
1.02538e-05
-0.000436915
1.04082e-05
-0.000447452
1.05378e-05
-0.000458086
1.06336e-05
-0.000468799
1.07131e-05
-0.000479587
1.07873e-05
-0.000490416
1.08297e-05
-0.00050118
1.07638e-05
-0.000511691
1.05113e-05
-0.000521738
1.00468e-05
-0.000531123
9.38446e-06
-0.000539669
8.54682e-06
-0.000547162
7.49224e-06
-0.00055337
6.2088e-06
-0.000558046
4.67507e-06
-0.00056101
2.96437e-06
-0.000562179
1.16903e-06
-0.000561599
-5.79646e-07
-0.000559358
-2.24142e-06
-0.000555603
-3.75503e-06
-0.000550481
-5.12175e-06
-0.000544099
-6.38165e-06
-0.000536548
-7.55113e-06
-0.000527885
-8.66367e-06
-0.000518165
-9.71922e-06
-0.000507443
-1.07228e-05
-0.000495775
-1.16676e-05
-0.000483216
-1.25591e-05
-0.000469823
-1.33925e-05
-0.000455649
-1.41748e-05
-0.000440744
-1.49048e-05
-0.000425161
-1.55825e-05
-0.000408948
-1.6213e-05
-0.00039216
-1.67882e-05
-0.000374843
-1.73174e-05
-0.000357044
-1.77987e-05
-0.000338816
-1.82282e-05
-0.000320206
-1.86097e-05
-0.00030126
-1.89463e-05
-0.000282022
-1.92383e-05
-0.000262537
-1.94842e-05
-0.000242855
-1.96819e-05
-0.000223026
-1.98296e-05
-0.000203102
-1.99239e-05
-0.000183131
-1.99707e-05
-0.000163175
-1.99562e-05
-0.000143308
-1.98675e-05
-0.000123582
-1.97252e-05
-0.000104074
-1.95087e-05
-8.48528e-05
-1.92209e-05
-6.59937e-05
-1.88591e-05
-4.75803e-05
-1.84134e-05
-2.97082e-05
-1.78722e-05
-1.24643e-05
-1.72438e-05
4.04023e-06
-1.65046e-05
1.96853e-05
-1.56451e-05
3.43321e-05
-1.46468e-05
4.78142e-05
-1.3482e-05
5.99223e-05
-1.21082e-05
7.03642e-05
-1.04419e-05
7.8744e-05
-8.37979e-06
8.46234e-05
-5.87936e-06
8.77297e-05
-3.1063e-06
8.80043e-05
-2.74665e-07
8.5822e-05
2.18237e-06
8.15469e-05
4.27508e-06
7.5664e-05
5.8829e-06
6.86658e-05
6.99822e-06
6.11041e-05
7.56166e-06
5.33802e-05
7.72389e-06
4.58113e-05
7.56895e-06
3.86812e-05
7.13012e-06
3.23253e-05
6.35581e-06
2.71293e-05
5.19607e-06
2.34936e-05
3.63569e-06
2.17762e-05
1.71737e-06
2.22627e-05
-4.8646e-07
2.46571e-05
-2.39442e-06
2.83696e-05
-3.71249e-06
3.28016e-05
-4.43205e-06
3.74471e-05
-4.64543e-06
4.19917e-05
-4.5446e-06
4.62777e-05
-4.28601e-06
5.01654e-05
-3.88771e-06
5.36054e-05
-3.43997e-06
5.65795e-05
-2.97418e-06
5.90524e-05
-2.47283e-06
6.10499e-05
-1.99754e-06
6.25352e-05
-1.48534e-06
6.3524e-05
-9.88797e-07
6.40394e-05
-5.15419e-07
6.41079e-05
-6.84614e-08
6.38026e-05
3.05266e-07
6.30682e-05
7.34464e-07
6.19349e-05
1.13324e-06
6.04285e-05
1.50647e-06
5.85678e-05
1.8607e-06
5.63953e-05
2.17251e-06
5.39195e-05
2.47572e-06
5.11758e-05
2.74375e-06
4.82053e-05
2.97044e-06
4.50324e-05
3.17291e-06
4.17039e-05
3.32855e-06
3.82564e-05
3.44752e-06
3.47347e-05
3.52166e-06
3.11689e-05
3.56577e-06
2.7598e-05
3.57088e-06
2.40681e-05
3.52998e-06
2.06734e-05
3.39467e-06
1.7481e-05
3.1924e-06
1.45735e-05
2.90753e-06
1.18584e-05
2.71505e-06
9.65778e-06
2.20063e-06
7.34397e-06
2.31381e-06
7.34397e-06
-2.30622e-05
4.27847e-05
-3.41212e-05
1.60095e-05
-4.59884e-05
1.68854e-05
-6.17304e-05
2.40453e-05
-7.99752e-05
2.88689e-05
-9.91501e-05
3.07669e-05
-0.000118565
3.14092e-05
-0.000138188
3.18532e-05
-0.000158122
3.2381e-05
-0.000178419
3.29894e-05
-0.000199053
3.35677e-05
-0.000219971
3.407e-05
-0.000241131
3.44989e-05
-0.000262453
3.4808e-05
-0.000283889
3.50273e-05
-0.000305348
3.51184e-05
-0.000326766
3.50958e-05
-0.00034807
3.49489e-05
-0.00036916
3.46715e-05
-0.000389968
3.42722e-05
-0.000410403
3.37503e-05
-0.000430372
3.3097e-05
-0.000449814
3.2338e-05
-0.000468647
3.14602e-05
-0.000486793
3.04854e-05
-0.000504174
2.94164e-05
-0.000520722
2.82588e-05
-0.000536365
2.70196e-05
-0.000551025
2.57048e-05
-0.000564616
2.43253e-05
-0.000577054
2.28933e-05
-0.000588253
2.1428e-05
-0.000598117
1.99539e-05
-0.000606561
1.84936e-05
-0.000613538
1.70943e-05
-0.000619067
1.57829e-05
-0.000623223
1.45634e-05
-0.000626107
1.34225e-05
-0.000627816
1.23427e-05
-0.000628413
1.13098e-05
-0.000627948
1.03222e-05
-0.000626493
9.37424e-06
-0.000624161
8.43257e-06
-0.000621098
7.44795e-06
-0.000617438
6.3873e-06
-0.000613304
5.24994e-06
-0.000608793
4.03589e-06
-0.000603965
2.66458e-06
-0.000598845
1.08865e-06
-0.000593411
-7.59071e-07
-0.000587745
-2.70185e-06
-0.000581778
-4.79777e-06
-0.000575439
-6.91841e-06
-0.000568668
-9.01267e-06
-0.000561399
-1.10238e-05
-0.000553564
-1.29575e-05
-0.000545165
-1.47804e-05
-0.000536189
-1.65272e-05
-0.000526666
-1.81859e-05
-0.000516614
-1.97715e-05
-0.000506053
-2.12834e-05
-0.000494998
-2.27229e-05
-0.000483468
-2.40889e-05
-0.000471478
-2.53826e-05
-0.000459031
-2.66224e-05
-0.000446156
-2.77798e-05
-0.000432867
-2.88706e-05
-0.000419175
-2.99059e-05
-0.000405091
-3.08722e-05
-0.000390639
-3.17685e-05
-0.000375839
-3.25992e-05
-0.000360702
-3.33651e-05
-0.000345245
-3.40664e-05
-0.000329489
-3.47031e-05
-0.000313451
-3.5276e-05
-0.000297151
-3.57845e-05
-0.000280606
-3.62265e-05
-0.000263828
-3.66075e-05
-0.000246831
-3.69208e-05
-0.000229639
-3.71631e-05
-0.00021227
-3.73245e-05
-0.000194736
-3.74022e-05
-0.000177072
-3.73893e-05
-0.000159316
-3.72641e-05
-0.000141509
-3.70284e-05
-0.000123673
-3.66952e-05
-0.000105848
-3.62378e-05
-8.80892e-05
-3.56312e-05
-7.0439e-05
-3.4894e-05
-5.29384e-05
-3.40051e-05
-3.5643e-05
-3.29404e-05
-1.86074e-05
-3.16824e-05
-1.85959e-06
-3.02299e-05
1.45544e-05
-2.85222e-05
3.06557e-05
-2.65432e-05
4.65189e-05
-2.4243e-05
6.22693e-05
-2.16297e-05
7.78913e-05
-1.87283e-05
9.33272e-05
-1.57106e-05
0.000108357
-1.28477e-05
0.000123077
-1.04444e-05
0.000137571
-8.61185e-06
0.000152126
-7.55651e-06
0.000166926
-7.23764e-06
0.000182217
-7.56762e-06
0.000198181
-8.39519e-06
0.000214893
-9.58153e-06
0.000232275
-1.10264e-05
0.000250067
-1.25955e-05
0.000267853
-1.41508e-05
0.000285077
-1.55062e-05
0.000301058
-1.64677e-05
0.000315521
-1.68576e-05
0.000328472
-1.66636e-05
0.000339991
-1.59503e-05
0.000350189
-1.4844e-05
0.000359116
-1.34719e-05
0.000366777
-1.19468e-05
0.00037322
-1.03304e-05
0.000378446
-8.6661e-06
0.000382436
-6.9642e-06
0.000385185
-5.22196e-06
0.000386645
-3.45699e-06
0.000386836
-1.67636e-06
0.00038568
1.66949e-07
0.000383226
1.93881e-06
0.000379505
3.65181e-06
0.000374472
5.33835e-06
0.000368177
7.02996e-06
0.000360624
8.68653e-06
0.000351818
1.03119e-05
0.000341751
1.19282e-05
0.00033044
1.34828e-05
0.000317911
1.50056e-05
0.00030418
1.64745e-05
0.0002893
1.785e-05
0.000273301
1.91717e-05
0.00025625
2.03798e-05
0.000238206
2.14912e-05
0.000219228
2.25003e-05
0.000199419
2.33743e-05
0.000178877
2.41133e-05
0.000157638
2.47692e-05
0.00013576
2.52722e-05
0.000113258
2.56944e-05
9.00963e-05
2.60693e-05
6.64476e-05
2.63637e-05
4.34934e-05
2.51548e-05
2.30676e-05
2.27396e-05
3.04115e-05
-2.28414e-05
6.56261e-05
-3.09685e-05
2.41366e-05
-3.84798e-05
2.43966e-05
-5.03316e-05
3.58971e-05
-6.58257e-05
4.4363e-05
-8.30281e-05
4.79693e-05
-0.000100647
4.9028e-05
-0.000118378
4.95842e-05
-0.000136367
5.03705e-05
-0.000154751
5.13726e-05
-0.000173585
5.2402e-05
-0.000192841
5.3326e-05
-0.000212448
5.41058e-05
-0.000232351
5.47106e-05
-0.000252464
5.51407e-05
-0.000272729
5.53832e-05
-0.000293061
5.5428e-05
-0.000313377
5.5265e-05
-0.0003336
5.4894e-05
-0.000353646
5.43184e-05
-0.000373437
5.3541e-05
-0.000392893
5.2553e-05
-0.000411951
5.13964e-05
-0.000430543
5.00526e-05
-0.000448595
4.85367e-05
-0.000466053
4.68749e-05
-0.00048286
4.50661e-05
-0.00049898
4.31394e-05
-0.00051437
4.10944e-05
-0.000528994
3.89499e-05
-0.000542825
3.67238e-05
-0.000555828
3.44314e-05
-0.000567968
3.20934e-05
-0.000579209
2.97351e-05
-0.000589498
2.73832e-05
-0.000598795
2.50802e-05
-0.000607068
2.28358e-05
-0.000614289
2.06435e-05
-0.00062043
1.84839e-05
-0.000625444
1.63243e-05
-0.00062929
1.41682e-05
-0.000631955
1.20391e-05
-0.000633463
9.94057e-06
-0.000633856
7.84115e-06
-0.000633176
5.7069e-06
-0.000631462
3.53548e-06
-0.000628752
1.32618e-06
-0.000625185
-9.02448e-07
-0.000620886
-3.21048e-06
-0.000616052
-5.59227e-06
-0.000610673
-8.08181e-06
-0.0006048
-1.06706e-05
-0.000598424
-1.32939e-05
-0.000591492
-1.59444e-05
-0.000583985
-1.85315e-05
-0.000575881
-2.10611e-05
-0.000567149
-2.35128e-05
-0.000557827
-2.58491e-05
-0.000547917
-2.8096e-05
-0.00053742
-3.02682e-05
-0.000526363
-3.23407e-05
-0.00051476
-3.43255e-05
-0.000502627
-3.62217e-05
-0.000489976
-3.80341e-05
-0.000476837
-3.97618e-05
-0.000463216
-4.14006e-05
-0.00044914
-4.29463e-05
-0.000434622
-4.44237e-05
-0.000419684
-4.58106e-05
-0.000404342
-4.71106e-05
-0.000388617
-4.83244e-05
-0.00037253
-4.94518e-05
-0.000356104
-5.04927e-05
-0.000339359
-5.14475e-05
-0.000322323
-5.23121e-05
-0.000305004
-5.31036e-05
-0.000287427
-5.38034e-05
-0.00026962
-5.44142e-05
-0.000251607
-5.49344e-05
-0.000233411
-5.53593e-05
-0.000215048
-5.56876e-05
-0.000196548
-5.59018e-05
-0.00017794
-5.59975e-05
-0.000159246
-5.5958e-05
-0.000140485
-5.57887e-05
-0.000121703
-5.54776e-05
-0.00010293
-5.50104e-05
-8.4181e-05
-5.43806e-05
-6.54915e-05
-5.35836e-05
-4.68954e-05
-5.26012e-05
-2.84059e-05
-5.14299e-05
-1.00308e-05
-5.00576e-05
8.21387e-06
-4.84745e-05
2.63132e-05
-4.66215e-05
4.43658e-05
-4.45958e-05
6.24738e-05
-4.23509e-05
8.07596e-05
-3.99155e-05
9.93267e-05
-3.72954e-05
0.000118199
-3.45826e-05
0.000137305
-3.1954e-05
0.000156423
-2.95627e-05
0.000175376
-2.75644e-05
0.000193856
-2.60362e-05
0.000211623
-2.50054e-05
0.000228446
-2.43905e-05
0.000244146
-2.40952e-05
0.00025857
-2.40057e-05
0.000271583
-2.40385e-05
0.000283098
-2.41105e-05
0.000293061
-2.41143e-05
0.000301478
-2.39229e-05
0.000308426
-2.34162e-05
0.000314052
-2.24839e-05
0.000318623
-2.12341e-05
0.000322366
-1.96937e-05
0.000325472
-1.79495e-05
0.000328055
-1.60555e-05
0.000330182
-1.40733e-05
0.000331891
-1.20396e-05
0.000333186
-9.96116e-06
0.000334073
-7.85121e-06
0.000334521
-5.67012e-06
0.000334485
-3.42065e-06
0.000333903
-1.09427e-06
0.000332851
1.21922e-06
0.000331135
3.65414e-06
0.000328706
6.08121e-06
0.000325513
8.53144e-06
0.000321534
1.10088e-05
0.00031671
1.35103e-05
0.000310976
1.60459e-05
0.000304299
1.86055e-05
0.000296584
2.11971e-05
0.000287797
2.37929e-05
0.000277884
2.63881e-05
0.000266773
2.89606e-05
0.000254441
3.15033e-05
0.000240843
3.39777e-05
0.000225995
3.63401e-05
0.000209879
3.86162e-05
0.000192528
4.07247e-05
0.000173961
4.268e-05
0.000154295
4.44357e-05
0.000133526
4.6041e-05
0.000111664
4.75568e-05
8.87045e-05
4.90285e-05
6.53657e-05
4.97025e-05
4.36563e-05
4.68642e-05
2.5121e-05
4.1275e-05
5.55325e-05
-2.22112e-05
8.78373e-05
-2.84322e-05
3.03576e-05
-3.33758e-05
2.93402e-05
-4.23274e-05
4.48487e-05
-5.51372e-05
5.71729e-05
-7.00564e-05
6.28885e-05
-8.57086e-05
6.46803e-05
-0.000101607
6.54825e-05
-0.000117774
6.65381e-05
-0.000134362
6.79603e-05
-0.000151438
6.94781e-05
-0.000169006
7.08933e-05
-0.000187022
7.21218e-05
-0.000205407
7.30959e-05
-0.000224109
7.38424e-05
-0.00024306
7.43345e-05
-0.000262194
7.45617e-05
-0.000281434
7.45056e-05
-0.000300703
7.41634e-05
-0.00031992
7.35345e-05
-0.000339002
7.26233e-05
-0.000357889
7.14399e-05
-0.000376489
6.99965e-05
-0.000394741
6.83043e-05
-0.000412579
6.63752e-05
-0.000429937
6.42327e-05
-0.000446763
6.18921e-05
-0.000462997
5.93736e-05
-0.000478607
5.67039e-05
-0.000493546
5.38894e-05
-0.000507788
5.09658e-05
-0.000521312
4.79551e-05
-0.0005341
4.48815e-05
-0.000546128
4.17636e-05
-0.000557369
3.86233e-05
-0.000567768
3.54792e-05
-0.000577269
3.23371e-05
-0.000585822
2.91966e-05
-0.000593403
2.6065e-05
-0.000600009
2.29302e-05
-0.000605638
1.97973e-05
-0.00061027
1.66708e-05
-0.000613878
1.35485e-05
-0.000616453
1.04164e-05
-0.000618014
7.26785e-06
-0.000618568
4.08897e-06
-0.00061812
8.78636e-07
-0.000616667
-2.35521e-06
-0.000614253
-5.62518e-06
-0.000610923
-8.92164e-06
-0.00060676
-1.22448e-05
-0.000601834
-1.55967e-05
-0.000596182
-1.89458e-05
-0.00058984
-2.22861e-05
-0.000582804
-2.55678e-05
-0.000575097
-2.87681e-05
-0.000566702
-3.19078e-05
-0.000557619
-3.49318e-05
-0.000547853
-3.78626e-05
-0.000537418
-4.07035e-05
-0.000526342
-4.34161e-05
-0.000514633
-4.60348e-05
-0.000502304
-4.85509e-05
-0.000489389
-5.0949e-05
-0.000475907
-5.32432e-05
-0.00046188
-5.54279e-05
-0.000447313
-5.75132e-05
-0.000432269
-5.94681e-05
-0.000416757
-6.1323e-05
-0.000400801
-6.30665e-05
-0.000384428
-6.46968e-05
-0.000367667
-6.6213e-05
-0.000350544
-6.76155e-05
-0.00033309
-6.89021e-05
-0.000315324
-7.00782e-05
-0.000297296
-7.11316e-05
-0.000279042
-7.2057e-05
-0.000260586
-7.28699e-05
-0.000241959
-7.35613e-05
-0.000223197
-7.41213e-05
-0.000204342
-7.45428e-05
-0.000185418
-7.48257e-05
-0.000166461
-7.4955e-05
-0.000147491
-7.49278e-05
-0.000128546
-7.47335e-05
-0.000109665
-7.43592e-05
-9.08624e-05
-7.38126e-05
-7.21682e-05
-7.30748e-05
-5.36088e-05
-7.2143e-05
-3.51953e-05
-7.10147e-05
-1.6949e-05
-6.96762e-05
1.11224e-06
-6.81188e-05
1.89758e-05
-6.63381e-05
3.67361e-05
-6.43817e-05
5.43216e-05
-6.21814e-05
7.17577e-05
-5.97869e-05
8.90584e-05
-5.72163e-05
0.000106282
-5.45195e-05
0.00012349
-5.17907e-05
0.000140604
-4.90674e-05
0.000157498
-4.64572e-05
0.000173957
-4.40232e-05
0.000189739
-4.18183e-05
0.000204575
-3.98411e-05
0.000218245
-3.80606e-05
0.000230594
-3.64439e-05
0.000241546
-3.49576e-05
0.000251028
-3.35209e-05
0.000259028
-3.21107e-05
0.000265602
-3.06874e-05
0.000270823
-2.91444e-05
0.000274896
-2.74892e-05
0.000278084
-2.56714e-05
0.000280463
-2.36136e-05
0.00028216
-2.13908e-05
0.00028322
-1.90089e-05
0.000283668
-1.65039e-05
0.000283525
-1.39298e-05
0.000282795
-1.13105e-05
0.000281489
-8.65421e-06
0.000279609
-5.97205e-06
0.000277216
-3.27654e-06
0.000274338
-5.42374e-07
0.000270974
2.26968e-06
0.000267154
5.03916e-06
0.000262956
7.85191e-06
0.000258323
1.07145e-05
0.000253251
1.36029e-05
0.000247763
1.64971e-05
0.000241839
1.94346e-05
0.000235475
2.24093e-05
0.000228639
2.5442e-05
0.000221315
2.85206e-05
0.000213464
3.16442e-05
0.000205049
3.4803e-05
0.000196022
3.79878e-05
0.000186339
4.11864e-05
0.000175921
4.43949e-05
0.000164766
4.74956e-05
0.000152837
5.05455e-05
0.000140051
5.35107e-05
0.000126503
5.62278e-05
0.000112131
5.88072e-05
9.68087e-05
6.13636e-05
8.04316e-05
6.39339e-05
6.30538e-05
6.64063e-05
4.63057e-05
6.64507e-05
3.25838e-05
6.05861e-05
2.13107e-05
5.25481e-05
7.68432e-05
-2.22371e-05
0.000110074
-2.7774e-05
3.58945e-05
-3.16127e-05
3.31789e-05
-3.93457e-05
5.25818e-05
-5.10884e-05
6.89156e-05
-6.51733e-05
7.69733e-05
-8.02732e-05
7.97802e-05
-9.57749e-05
8.09842e-05
-0.000111632
8.23951e-05
-0.000127948
8.42762e-05
-0.000144801
8.63315e-05
-0.000162193
8.82852e-05
-0.000180066
8.9995e-05
-0.000198389
9.14183e-05
-0.000217084
9.25374e-05
-0.000236084
9.33344e-05
-0.000255316
9.37941e-05
-0.000274706
9.38956e-05
-0.000294172
9.36291e-05
-0.000313634
9.29962e-05
-0.00033301
9.20002e-05
-0.000352224
9.06534e-05
-0.000371193
8.89657e-05
-0.000389845
8.69557e-05
-0.000408105
8.46355e-05
-0.000425914
8.20423e-05
-0.000443213
7.91905e-05
-0.000459944
7.61051e-05
-0.00047605
7.28091e-05
-0.000491495
6.93346e-05
-0.000506229
6.57004e-05
-0.000520203
6.19285e-05
-0.000533371
5.80497e-05
-0.000545696
5.40888e-05
-0.000557138
5.00652e-05
-0.000567656
4.5997e-05
-0.00057722
4.19018e-05
-0.000585806
3.77823e-05
-0.000593392
3.36504e-05
-0.000599968
2.95067e-05
-0.000605526
2.53556e-05
-0.000610063
2.12077e-05
-0.000613573
1.70585e-05
-0.000616068
1.29116e-05
-0.000617563
8.76263e-06
-0.000618083
4.6088e-06
-0.000617648
4.43877e-07
-0.00061624
-3.76392e-06
-0.000613956
-7.90829e-06
-0.000610767
-1.21114e-05
-0.00060674
-1.62719e-05
-0.000601889
-2.04476e-05
-0.000596253
-2.45816e-05
-0.000589863
-2.86762e-05
-0.000582731
-3.26996e-05
-0.000574859
-3.66405e-05
-0.000566281
-4.04852e-05
-0.000556988
-4.42252e-05
-0.000546999
-4.78514e-05
-0.000536342
-5.13604e-05
-0.000525005
-5.47533e-05
-0.000513034
-5.80056e-05
-0.000500439
-6.11456e-05
-0.000487243
-6.4145e-05
-0.000473468
-6.70184e-05
-0.000459143
-6.97527e-05
-0.000444301
-7.23552e-05
-0.000428951
-7.48181e-05
-0.000413133
-7.71417e-05
-0.000396874
-7.93251e-05
-0.000380204
-8.13668e-05
-0.000363152
-8.32646e-05
-0.000345751
-8.50165e-05
-0.000328032
-8.6621e-05
-0.000310037
-8.80738e-05
-0.000291786
-8.93818e-05
-0.000273313
-9.053e-05
-0.000254658
-9.15258e-05
-0.000235861
-9.23584e-05
-0.000216958
-9.30238e-05
-0.000197982
-9.35185e-05
-0.000178962
-9.38464e-05
-0.000159933
-9.39841e-05
-0.000140925
-9.39351e-05
-0.000121971
-9.36881e-05
-0.00010309
-9.324e-05
-8.43146e-05
-9.25878e-05
-6.56667e-05
-9.17227e-05
-4.71711e-05
-9.06387e-05
-2.885e-05
-8.93358e-05
-1.07213e-05
-8.78049e-05
7.21068e-06
-8.60508e-05
2.49406e-05
-8.4068e-05
4.24371e-05
-8.18782e-05
5.97029e-05
-7.94473e-05
7.67592e-05
-7.68432e-05
9.36127e-05
-7.40697e-05
0.00011024
-7.11473e-05
0.000126579
-6.81293e-05
0.000142586
-6.50743e-05
0.000158156
-6.20275e-05
0.000173182
-5.90494e-05
0.000187509
-5.61444e-05
0.000201036
-5.33683e-05
0.000213639
-5.06639e-05
0.000225283
-4.80877e-05
0.00023588
-4.55547e-05
0.000245414
-4.30552e-05
0.000253854
-4.05508e-05
0.000261152
-3.79852e-05
0.000267374
-3.53666e-05
0.000272466
-3.2581e-05
0.000276446
-2.96514e-05
0.000279418
-2.65855e-05
0.00028138
-2.33528e-05
0.00028241
-2.00386e-05
0.000282536
-1.66302e-05
0.000281779
-1.31733e-05
0.000280159
-9.68992e-06
0.000277709
-6.20431e-06
0.000274413
-2.67648e-06
0.00027035
7.86794e-07
0.000265552
4.25575e-06
0.000260109
7.71248e-06
0.000254031
1.11171e-05
0.000247363
1.45204e-05
0.000240179
1.78979e-05
0.000232534
2.12479e-05
0.000224443
2.45881e-05
0.000215959
2.79186e-05
0.000207131
3.12378e-05
0.000198003
3.45697e-05
0.000188612
3.79117e-05
0.000178974
4.1282e-05
0.000169114
4.46635e-05
0.000159039
4.80627e-05
0.00014876
5.14649e-05
0.000138298
5.4857e-05
0.000127583
5.82104e-05
0.000116641
6.1488e-05
0.0001055
6.46515e-05
9.40845e-05
6.76433e-05
8.23837e-05
7.05081e-05
7.02741e-05
7.34732e-05
5.75086e-05
7.66993e-05
4.45575e-05
7.93575e-05
3.30408e-05
7.79673e-05
2.49211e-05
6.87059e-05
1.80922e-05
5.9377e-05
9.49354e-05
-2.24229e-05
0.000132497
-2.74565e-05
4.09281e-05
-3.01588e-05
3.58812e-05
-3.67822e-05
5.92052e-05
-4.78577e-05
7.99911e-05
-6.17302e-05
9.08457e-05
-7.68743e-05
9.49243e-05
-9.2582e-05
9.6692e-05
-0.000108723
9.85364e-05
-0.000125386
0.000100938
-0.000142652
0.000103598
-0.000160528
0.000106161
-0.000178969
0.000108436
-0.000197908
0.000110357
-0.00021727
0.000111899
-0.000236976
0.000113041
-0.000256933
0.00011375
-0.000277061
0.000114024
-0.000297271
0.00011384
-0.000317466
0.000113191
-0.00033756
0.000112094
-0.000357459
0.000110552
-0.000377076
0.000108583
-0.000396335
0.000106214
-0.000415168
0.000103468
-0.000433493
0.000100367
-0.000451252
9.69495e-05
-0.00046838
9.32331e-05
-0.000484827
8.92558e-05
-0.000500541
8.50488e-05
-0.000515482
8.06415e-05
-0.000529613
7.60593e-05
-0.000542895
7.13317e-05
-0.000555294
6.64885e-05
-0.00056678
6.15507e-05
-0.000577317
5.65345e-05
-0.000586877
5.14613e-05
-0.000595447
4.63519e-05
-0.000603002
4.12058e-05
-0.000609534
3.60391e-05
-0.000615046
3.08669e-05
-0.000619524
2.56855e-05
-0.000622966
2.05013e-05
-0.000625377
1.53219e-05
-0.000626766
1.01522e-05
-0.000627147
4.98997e-06
-0.00062654
-1.63266e-07
-0.000625001
-5.30299e-06
-0.0006225
-1.04096e-05
-0.000619113
-1.54977e-05
-0.000614843
-2.05423e-05
-0.000609746
-2.55445e-05
-0.000603838
-3.04895e-05
-0.000597149
-3.53653e-05
-0.0005897
-4.01489e-05
-0.000581509
-4.48316e-05
-0.000572586
-4.9408e-05
-0.000562948
-5.38637e-05
-0.00055262
-5.81793e-05
-0.000541614
-6.23664e-05
-0.000529955
-6.64119e-05
-0.000517647
-7.03137e-05
-0.000504728
-7.40645e-05
-0.000491215
-7.76584e-05
-0.000477134
-8.10987e-05
-0.000462506
-8.43807e-05
-0.000447367
-8.74947e-05
-0.000431739
-9.04465e-05
-0.00041565
-9.32306e-05
-0.00039913
-9.58449e-05
-0.000382209
-9.8288e-05
-0.000364916
-0.000100557
-0.000347282
-0.00010265
-0.000329339
-0.000104565
-0.000311116
-0.000106296
-0.000292647
-0.000107851
-0.000273968
-0.000109209
-0.000255113
-0.000110381
-0.000236109
-0.000111362
-0.000216989
-0.000112145
-0.000197783
-0.000112724
-0.000178536
-0.000113093
-0.000159265
-0.000113255
-0.000140001
-0.000113199
-0.00012077
-0.000112919
-0.000101601
-0.000112409
-8.25187e-05
-0.00011167
-6.35483e-05
-0.000110693
-4.47145e-05
-0.000109472
-2.60332e-05
-0.000108017
-7.52442e-06
-0.000106314
1.07978e-05
-0.000104373
2.89078e-05
-0.000102178
4.67692e-05
-9.97395e-05
6.44264e-05
-9.71045e-05
8.18208e-05
-9.42377e-05
9.89288e-05
-9.11776e-05
0.000115745
-8.79634e-05
0.000132238
-8.4622e-05
0.000148341
-8.11777e-05
0.000163991
-7.76777e-05
0.000179052
-7.41098e-05
0.000193498
-7.05909e-05
0.000207179
-6.7049e-05
0.000220064
-6.35494e-05
0.000232001
-6.00241e-05
0.000242899
-5.64529e-05
0.000252733
-5.28896e-05
0.000261451
-4.92687e-05
0.000269044
-4.5578e-05
0.000275482
-4.18045e-05
0.000280831
-3.793e-05
0.000285135
-3.39555e-05
0.000288381
-2.98316e-05
0.000290693
-2.56643e-05
0.000292028
-2.1374e-05
0.00029243
-1.7032e-05
0.0002919
-1.26435e-05
0.000290454
-8.24373e-06
0.000288098
-3.8483e-06
0.000284857
5.64045e-07
0.000280738
4.90645e-06
0.000275754
9.23932e-06
0.000269973
1.34931e-05
0.000263426
1.76643e-05
0.000256131
2.18159e-05
0.000248168
2.58604e-05
0.000239564
2.98519e-05
0.000230391
3.37613e-05
0.000220688
3.76217e-05
0.000210529
4.1397e-05
0.000199943
4.51555e-05
0.00018905
4.88046e-05
0.000177893
5.24394e-05
0.000166525
5.60305e-05
0.000155013
5.95754e-05
0.000143409
6.30685e-05
0.000131761
6.65054e-05
0.000120098
6.98733e-05
0.000108451
7.31343e-05
9.68516e-05
7.62514e-05
8.53145e-05
7.91804e-05
7.38166e-05
8.2006e-05
6.22672e-05
8.50226e-05
5.05997e-05
8.83669e-05
3.9173e-05
9.07842e-05
2.92965e-05
8.78438e-05
2.23774e-05
7.56249e-05
1.63801e-05
6.53743e-05
0.000111315
-2.28848e-05
0.000155382
-2.72221e-05
4.52654e-05
-2.82957e-05
3.69549e-05
-3.31302e-05
6.40397e-05
-4.30212e-05
8.98821e-05
-5.65038e-05
0.000104328
-7.17545e-05
0.000110175
-8.77444e-05
0.000112682
-0.000104231
0.000115023
-0.000121304
0.000118011
-0.000139072
0.000121366
-0.000157548
0.000124636
-0.000176688
0.000127576
-0.000196412
0.000130082
-0.000216649
0.000132136
-0.00023725
0.000133642
-0.000258149
0.000134649
-0.000279225
0.0001351
-0.000300373
0.000134988
-0.000321491
0.000134309
-0.00034247
0.000133074
-0.000363213
0.000131295
-0.000383625
0.000128995
-0.000403619
0.000126208
-0.000423116
0.000122965
-0.000442044
0.000119295
-0.000460334
0.000115239
-0.000477935
0.000110834
-0.000494791
0.000106112
-0.000510856
0.000101114
-0.00052609
9.5875e-05
-0.000540454
9.04239e-05
-0.000553918
8.47955e-05
-0.000566443
7.90133e-05
-0.000578007
7.31147e-05
-0.000588587
6.71149e-05
-0.000598166
6.10396e-05
-0.000606723
5.49094e-05
-0.000614252
4.87341e-05
-0.000620745
4.25329e-05
-0.000626197
3.63185e-05
-0.00063061
3.00986e-05
-0.000633991
2.38822e-05
-0.000636344
1.76748e-05
-0.000637678
1.14864e-05
-0.000638014
5.32642e-06
-0.000637353
-8.24393e-07
-0.000635724
-6.93179e-06
-0.000633177
-1.29572e-05
-0.000629708
-1.89662e-05
-0.000625359
-2.48916e-05
-0.000620147
-3.0757e-05
-0.000614094
-3.65424e-05
-0.000607226
-4.22332e-05
-0.000599587
-4.77879e-05
-0.000591172
-5.32465e-05
-0.000582013
-5.85667e-05
-0.000572129
-6.3748e-05
-0.000561526
-6.87819e-05
-0.000550237
-7.36555e-05
-0.000538284
-7.83648e-05
-0.000525673
-8.29253e-05
-0.000512457
-8.72798e-05
-0.000498643
-9.14727e-05
-0.000484247
-9.54944e-05
-0.000469322
-9.93065e-05
-0.000453875
-0.000102941
-0.000437939
-0.000106383
-0.00042154
-0.00010963
-0.000404707
-0.000112678
-0.000387471
-0.000115524
-0.000369861
-0.000118167
-0.000351908
-0.000120603
-0.000333642
-0.000122831
-0.000315091
-0.000124847
-0.000296294
-0.000126648
-0.000277274
-0.000128229
-0.000258062
-0.000129592
-0.000238693
-0.000130731
-0.000219195
-0.000131643
-0.0001996
-0.000132319
-0.000179937
-0.000132756
-0.000160231
-0.000132961
-0.000140516
-0.000132914
-0.000120817
-0.000132619
-0.00010116
-0.000132067
-8.15746e-05
-0.000131255
-6.20858e-05
-0.000130182
-4.27119e-05
-0.000128846
-2.34931e-05
-0.000127236
-4.4395e-06
-0.000125367
1.44132e-05
-0.000123226
3.30454e-05
-0.00012081
5.14701e-05
-0.000118164
6.96023e-05
-0.000115237
8.74551e-05
-0.00011209
0.000104988
-0.000108711
0.000122156
-0.000105131
0.000138909
-0.000101374
0.000155199
-9.74681e-05
0.000170928
-9.34065e-05
0.000186121
-8.93031e-05
0.000200597
-8.50672e-05
0.000214323
-8.07747e-05
0.000227174
-7.64001e-05
0.0002391
-7.19505e-05
0.000250131
-6.74836e-05
0.000260142
-6.29007e-05
0.00026912
-5.82466e-05
0.000277046
-5.35044e-05
0.000283908
-4.86661e-05
0.000289687
-4.37088e-05
0.000294389
-3.86576e-05
0.000298105
-3.35473e-05
0.000300758
-2.8318e-05
0.000302443
-2.30584e-05
0.000303119
-1.77085e-05
0.000302855
-1.23795e-05
0.000301658
-7.04641e-06
0.000299522
-1.71294e-06
0.000296498
3.58801e-06
0.000292613
8.79182e-06
0.00028789
1.39622e-05
0.000282319
1.90639e-05
0.000275925
2.40591e-05
0.000268793
2.89471e-05
0.000260889
3.37651e-05
0.000252291
3.84493e-05
0.000243058
4.29943e-05
0.000233215
4.74647e-05
0.000222817
5.17957e-05
0.000211944
5.60278e-05
0.000200615
6.01338e-05
0.000188919
6.41354e-05
0.000176924
6.80255e-05
0.0001647
7.17996e-05
0.000152313
7.54556e-05
0.000139812
7.90064e-05
0.00012727
8.2415e-05
0.000114746
8.56583e-05
0.000102267
8.87309e-05
8.99037e-05
9.15436e-05
7.76599e-05
9.42498e-05
6.55288e-05
9.71536e-05
5.34469e-05
0.000100449
4.16535e-05
0.000102578
3.09637e-05
9.85336e-05
2.27507e-05
8.38379e-05
1.58915e-05
7.22336e-05
0.000127207
-2.3589e-05
0.000178971
-2.73267e-05
4.90031e-05
-2.62438e-05
3.58719e-05
-2.85931e-05
6.63891e-05
-3.6672e-05
9.79609e-05
-4.93369e-05
0.000116993
-6.45071e-05
0.000125345
-8.07509e-05
0.000128926
-9.75847e-05
0.000131857
-0.000115079
0.000135505
-0.000133355
0.000139643
-0.00015245
0.000143731
-0.000172345
0.00014747
-0.000192964
0.000150701
-0.00021413
0.000153302
-0.000235774
0.000155287
-0.000257744
0.000156619
-0.000279918
0.000157274
-0.000302167
0.000157237
-0.000324361
0.000156503
-0.000346379
0.000155092
-0.000368109
0.000153025
-0.000389463
0.000150349
-0.000410318
0.000147063
-0.000430616
0.000143264
-0.000450267
0.000138947
-0.000469213
0.000134185
-0.000487392
0.000129013
-0.000504757
0.000123478
-0.000521259
0.000117615
-0.000536864
0.00011148
-0.000551538
0.000105098
-0.000565249
9.8507e-05
-0.000577981
9.17452e-05
-0.000589708
8.48419e-05
-0.000600417
7.78238e-05
-0.000610091
7.07138e-05
-0.000618718
6.35362e-05
-0.000626295
5.63105e-05
-0.000632817
4.90556e-05
-0.000638281
4.17824e-05
-0.000642691
3.45088e-05
-0.000646054
2.72452e-05
-0.000648384
2.00042e-05
-0.000649686
1.27885e-05
-0.000649971
5.61164e-06
-0.000649267
-1.52864e-06
-0.000647601
-8.59811e-06
-0.000644959
-1.55983e-05
-0.000641403
-2.25222e-05
-0.000636931
-2.93645e-05
-0.000631567
-3.61207e-05
-0.000625372
-4.27373e-05
-0.00061835
-4.92555e-05
-0.000610495
-5.56427e-05
-0.000601863
-6.18785e-05
-0.00059246
-6.79691e-05
-0.000582313
-7.38949e-05
-0.000571446
-7.96497e-05
-0.000559866
-8.5235e-05
-0.000547612
-9.06193e-05
-0.000534716
-9.58215e-05
-0.000521176
-0.00010082
-0.000507028
-0.000105621
-0.000492312
-0.000110211
-0.000477034
-0.000114584
-0.000461233
-0.000118742
-0.000444935
-0.000122682
-0.000428167
-0.000126397
-0.00041096
-0.000129885
-0.000393342
-0.000133142
-0.000375343
-0.000136166
-0.000356992
-0.000138954
-0.000338319
-0.000141504
-0.000319352
-0.000143814
-0.000300129
-0.000145872
-0.000280673
-0.000147685
-0.000261016
-0.000149249
-0.000241188
-0.000150559
-0.000221223
-0.000151609
-0.000201145
-0.000152397
-0.000180984
-0.000152917
-0.000160779
-0.000153166
-0.000140545
-0.000153148
-0.000120322
-0.000152841
-0.000100131
-0.000152257
-8.00009e-05
-0.000151385
-5.99593e-05
-0.000150224
-4.00365e-05
-0.000148769
-2.02487e-05
-0.000147024
-6.46009e-07
-0.00014497
1.875e-05
-0.000142622
3.79417e-05
-0.000140002
5.6855e-05
-0.000137078
7.54802e-05
-0.000133862
9.37764e-05
-0.000130387
0.000111724
-0.000126658
0.000129272
-0.000122679
0.000146334
-0.000118436
0.000162889
-0.000114023
0.000178916
-0.000109434
0.000194269
-0.000104656
0.000208922
-9.97198e-05
0.000222782
-9.46348e-05
0.000235814
-8.9432e-05
0.000247935
-8.4072e-05
0.000259082
-7.863e-05
0.000269228
-7.30464e-05
0.000278328
-6.73471e-05
0.000286363
-6.15393e-05
0.000293315
-5.56179e-05
0.000299222
-4.96157e-05
0.000304089
-4.35249e-05
0.000307867
-3.73258e-05
0.000310654
-3.11043e-05
0.000312396
-2.48005e-05
0.000313223
-1.85359e-05
0.000313063
-1.22194e-05
0.000311947
-5.93037e-06
0.000309918
3.16249e-07
0.000306984
6.5222e-06