/*--------------------------------*- C++ -*----------------------------------*\
| =========                 |                                                 |
| \\      /  F ield         | OpenFOAM: The Open Source CFD Toolbox           |
|  \\    /   O peration     | Version:  v2006                                 |
|   \\  /    A nd           | Website:  www.openfoam.com                      |
|    \\/     M anipulation  |                                                 |
\*---------------------------------------------------------------------------*/
FoamFile
{
    version     2.0;
    format      ascii;
    class       volScalarField;
    location    "3.5";
    object      r;
}
// * * * * * * * * * * * * * * * * * * * * * * * * * * * * * * * * * * * * * //

dimensions      [1 2 0 0 0 0 0];


internalField   nonuniform List<scalar> 
350
(
1.57876e-137
2.26864e-134
3.15097e-131
4.21875e-128
5.43215e-125
6.70925e-122
7.92533e-119
8.92406e-116
9.54261e-113
9.64808e-110
9.17663e-107
8.16203e-104
6.74028e-101
5.12299e-98
3.54472e-95
2.20146e-92
1.20399e-89
5.64193e-87
2.16964e-84
6.32192e-82
1.13681e-79
8.95036e-79
-4.95032e-75
-5.3081e-73
2.13375e-70
8.95207e-69
-1.0935e-65
2.30947e-63
-3.00973e-61
2.9026e-59
-2.23253e-57
1.42739e-55
-7.79e-54
3.69688e-52
-1.54664e-50
5.76479e-49
-1.9304e-47
5.84671e-46
-1.61061e-44
4.05398e-43
-9.35971e-42
1.98857e-40
-3.89854e-39
7.06868e-38
-1.18762e-36
1.85184e-35
-2.68321e-34
3.61623e-33
-4.53633e-32
5.29889e-31
-5.7645e-30
5.83955e-29
-5.50617e-28
4.82883e-27
-3.93423e-26
2.97315e-25
-2.07963e-24
1.3426e-23
-7.97034e-23
4.32926e-22
-2.13696e-21
9.49342e-21
-3.74093e-20
1.27677e-19
-3.60777e-19
7.5541e-19
-6.83531e-19
-2.79945e-18
1.67117e-17
-4.46598e-17
4.48407e-17
1.53296e-16
-7.87121e-16
1.34506e-15
1.23567e-15
-1.13765e-14
1.95577e-14
2.30816e-14
-1.55781e-13
1.57584e-13
5.66919e-13
-1.65749e-12
-6.49105e-13
8.8841e-12
-6.029e-12
-3.60034e-11
5.41373e-11
1.263e-10
-2.93985e-10
-4.29001e-10
1.30619e-09
1.58399e-09
-5.10835e-09
-6.70829e-09
1.75725e-08
3.0613e-08
-4.93024e-08
-1.3455e-07
8.18548e-08
5.13801e-07
1.63543e-07
-1.50613e-06
-2.06567e-06
2.37063e-06
9.15152e-06
4.71044e-06
-2.04371e-05
-4.33794e-05
-8.5773e-06
0.00010753
0.000205861
7.24854e-05
-0.000417849
-0.000994361
-0.000890242
0.000731396
0.00383996
0.00661749
0.00540395
-0.00384468
-0.0226513
-0.0465951
-0.0628186
-0.0497634
0.0203225
0.176584
0.44375
0.836924
1.35828
1.99638
2.72797
3.52168
4.34253
5.15632
5.9332
6.64997
7.29104
7.84832
8.32021
8.71021
9.02534
9.27465
9.46806
9.61534
9.72557
9.80673
9.86556
9.90759
9.9372
9.95778
9.97192
9.9815
9.98794
9.99223
9.99506
9.99684
9.9979
9.99855
9.99916
9.99994
10.0007
10.0007
9.99916
9.9961
9.99334
9.99457
10.0038
10.0226
10.0466
10.0628
10.0498
9.97968
9.82342
9.55625
9.16308
8.64172
8.00362
7.27203
6.47832
5.65747
4.84368
4.0668
3.35003
2.70896
2.15168
1.67979
1.28979
0.974664
0.725346
0.53194
0.384656
0.274427
0.193273
0.134442
0.0924141
0.0628044
0.0422171
0.0280816
0.0184913
0.0120585
0.00779036
0.00498785
0.00316594
0.00199279
0.00124428
0.000770894
0.000474031
0.000289376
0.000175416
0.000105614
6.31714e-05
3.75448e-05
2.21768e-05
1.3021e-05
7.601e-06
4.41212e-06
2.5471e-06
1.46263e-06
8.3556e-07
4.74937e-07
2.68641e-07
1.5123e-07
8.47411e-08
4.72696e-08
2.62523e-08
1.45171e-08
7.9944e-09
4.3843e-09
2.39503e-09
1.30314e-09
7.06448e-10
3.81487e-10
2.05297e-10
1.10076e-10
5.88112e-11
3.13299e-11
1.6616e-11
8.80235e-12
4.63122e-12
2.44465e-12
1.27143e-12
6.74368e-13
3.41238e-13
1.87147e-13
8.77393e-14
5.35601e-14
2.04626e-14
1.65978e-14
3.31259e-15
6.17818e-15
-7.73104e-16
3.06059e-15
-1.4777e-15
1.88196e-15
-1.29914e-15
1.24428e-15
-9.63517e-16
8.42596e-16
-6.86475e-16
5.86563e-16
-4.88718e-16
4.12433e-16
-3.42754e-16
2.84217e-16
-2.3322e-16
1.90766e-16
-1.55456e-16
1.26699e-16
-1.03214e-16
8.40174e-17
-6.81746e-17
5.50414e-17
-4.41457e-17
3.51669e-17
-2.78454e-17
2.19477e-17
-1.72446e-17
1.35162e-17
-1.05639e-17
8.22087e-18
-6.35638e-18
4.87234e-18
-3.69604e-18
2.77188e-18
-2.05461e-18
1.50537e-18
-1.09003e-18
7.79031e-19
-5.47687e-19
3.76327e-19
-2.49933e-19
1.57392e-19
-9.0566e-20
4.34085e-20
-1.12722e-20
-9.54121e-21
2.20308e-20
-2.86154e-20
3.11937e-20
-3.11944e-20
2.96407e-20
-2.72282e-20
2.44077e-20
-2.14614e-20
1.85624e-20
-1.58171e-20
1.32906e-20
-1.1021e-20
9.02595e-21
-7.30695e-21
5.85235e-21
-4.64094e-21
3.64566e-21
-2.8371e-21
2.18632e-21
-1.66676e-21
1.25515e-21
-9.3175e-22
6.80074e-22
-4.86415e-22
3.39355e-22
-2.29362e-22
1.48482e-22
-9.01362e-23
4.89548e-23
-2.06368e-23
1.80635e-24
1.01349e-23
-1.7154e-23
2.07216e-23
-2.19276e-23
2.15752e-23
-2.02512e-23
1.83792e-23
-1.62584e-23
1.40924e-23
-1.20122e-23
1.00955e-23
-8.38132e-24
6.88248e-24
-5.59523e-24
4.50598e-24
-3.59607e-24
2.84479e-24
-2.23124e-24
1.73537e-24
-1.33862e-24
1.02419e-24
-7.77359e-25
5.97145e-25
)
;

boundaryField
{
    right
    {
        type            zeroGradient;
    }
    left
    {
        type            inletOutlet;
        inletValue      uniform 0;
        value           uniform 0;
    }
    top
    {
        type            zeroGradient;
    }
    bottom
    {
        type            zeroGradient;
    }
    empty
    {
        type            empty;
    }
}


// ************************************************************************* //
