/*--------------------------------*- C++ -*----------------------------------*\
| =========                 |                                                 |
| \\      /  F ield         | OpenFOAM: The Open Source CFD Toolbox           |
|  \\    /   O peration     | Version:  v2006                                 |
|   \\  /    A nd           | Website:  www.openfoam.com                      |
|    \\/     M anipulation  |                                                 |
\*---------------------------------------------------------------------------*/
FoamFile
{
    version     2.0;
    format      ascii;
    class       volScalarField;
    location    "0";
    object      f;
}
// * * * * * * * * * * * * * * * * * * * * * * * * * * * * * * * * * * * * * //

dimensions      [0 0 0 0 0 0 0];


internalField   nonuniform List<scalar> 
2500
(
1.8004e-12
3.5688e-12
-1.81186e-11
-4.31484e-13
6.00534e-11
2.11734e-11
-2.0032e-10
-7.4662e-11
5.83026e-10
3.47173e-10
-1.74011e-09
-8.1471e-10
3.58332e-09
3.28526e-09
-6.32041e-09
-1.32336e-08
1.03763e-08
3.28762e-08
6.10362e-09
-7.37212e-08
-7.84247e-08
1.14588e-07
2.26184e-07
2.71106e-08
-4.08048e-07
-5.2488e-07
-9.47509e-08
1.69942e-06
1.90306e-06
1.95952e-07
-4.23083e-06
-8.98551e-06
-4.30377e-06
1.74819e-05
3.40677e-05
2.59007e-05
-3.4614e-05
-0.000124308
-0.000149639
-2.38798e-05
0.000246783
0.000599419
0.000481289
0.000458169
-0.00146157
0.000517513
-0.00680143
0.0116523
-0.026008
0.0664767
-1.27523e-12
1.90793e-12
9.66118e-12
-1.96662e-11
-2.72012e-11
5.31619e-11
8.89408e-11
-1.46211e-10
-2.60416e-10
2.88023e-10
8.56323e-10
-7.26441e-10
-1.98355e-09
9.94539e-10
4.17532e-09
1.20817e-09
-8.54323e-09
-6.79821e-09
7.59675e-09
1.87981e-08
9.78644e-09
-1.43724e-08
-4.78538e-08
-7.17251e-08
-1.23278e-09
2.96926e-07
6.46787e-07
-2.45649e-07
-2.18452e-06
-2.59028e-06
1.26306e-06
1.04353e-05
1.14751e-05
-5.5788e-06
-3.63275e-05
-4.57866e-05
-5.67071e-06
8.64566e-05
0.000161481
0.000124487
-4.97256e-05
-0.000297394
-0.000268303
-0.000173828
0.000868284
6.24632e-05
0.0035248
-0.00563078
0.0127387
-0.0344021
1.79914e-12
-1.01146e-12
-1.32635e-11
1.28566e-11
4.53039e-11
-3.87436e-11
-1.41908e-10
1.06383e-10
4.07639e-10
-2.31086e-10
-1.12741e-09
4.84353e-10
2.71381e-09
-4.48608e-10
-5.74299e-09
-2.12362e-09
1.18745e-08
8.90204e-09
-1.68906e-08
-2.62134e-08
1.94122e-08
4.1926e-08
-1.11026e-08
-5.8017e-08
3.95509e-08
1.05362e-07
-2.03103e-07
-4.88528e-07
1.70005e-07
2.0737e-06
2.40463e-06
-2.4341e-06
-9.83709e-06
-8.83151e-06
8.68143e-06
3.33902e-05
3.48497e-05
-5.65199e-06
-7.49234e-05
-0.000104616
-4.85487e-05
8.86177e-05
8.68666e-05
6.30818e-05
-0.000710088
-0.000119197
-0.00295365
0.00424547
-0.0105193
0.0273537
-8.23537e-13
-1.09717e-12
7.46012e-12
6.55787e-13
-2.63932e-11
-7.55407e-12
8.80256e-11
2.0462e-11
-2.43023e-10
-1.01025e-10
6.76387e-10
3.17263e-10
-1.55351e-09
-1.149e-09
3.05419e-09
4.3291e-09
-5.47389e-09
-1.13883e-08
4.01599e-09
2.8642e-08
5.21112e-09
-4.74897e-08
-4.95371e-08
6.82711e-08
1.22738e-07
-2.0137e-08
-2.33484e-07
-1.80934e-07
2.69861e-07
4.03038e-07
-2.13084e-07
-6.84418e-07
5.96156e-08
6.37005e-07
7.18566e-07
-4.17411e-07
-3.82406e-07
3.14761e-06
6.69009e-06
-5.77605e-06
-3.80367e-05
-8.89388e-05
-5.37039e-05
-6.87214e-05
0.00039992
-0.000125102
0.0018157
-0.00298921
0.00691908
-0.0173469
5.37434e-13
3.59376e-13
-4.80955e-12
1.72985e-12
1.60552e-11
-4.22604e-12
-5.05885e-11
1.31381e-11
1.38024e-10
-4.73184e-12
-3.825e-10
-3.71561e-11
9.03e-10
3.52804e-10
-1.90463e-09
-1.58566e-09
3.18471e-09
5.35425e-09
-3.17893e-09
-1.25547e-08
-3.24221e-09
1.85298e-08
2.63077e-08
-1.27922e-08
-5.18437e-08
-5.41999e-08
2.88311e-08
1.3818e-07
1.88667e-07
1.18493e-07
-3.00874e-07
-1.05938e-06
-1.17492e-06
4.54908e-07
4.35051e-06
6.42548e-06
8.10068e-07
-1.25291e-05
-2.34443e-05
-1.24607e-05
2.24111e-05
7.00379e-05
5.71734e-05
4.43456e-05
-0.000218403
1.42558e-05
-0.000944424
0.00150784
-0.00347498
0.00910148
-3.37268e-13
-7.53483e-13
3.41556e-12
1.82985e-12
-1.30975e-11
-6.11138e-12
4.18843e-11
1.77539e-11
-1.18069e-10
-5.5592e-11
3.07445e-10
1.73261e-10
-7.05118e-10
-5.92877e-10
1.44854e-09
1.80709e-09
-2.26992e-09
-4.8924e-09
1.84552e-09
1.07391e-08
2.48595e-09
-1.79929e-08
-1.29436e-08
1.88539e-08
3.90094e-08
-3.7618e-08
-3.80023e-08
2.83824e-08
1.35355e-07
-6.05889e-08
-3.45798e-07
-2.81961e-07
7.33431e-07
1.58768e-06
4.89298e-07
-2.50467e-06
-4.979e-06
-1.8899e-06
5.3378e-06
8.15011e-06
-3.51812e-08
-2.79708e-05
-2.75787e-05
-4.09116e-05
0.000148376
-3.55509e-05
0.000758465
-0.00112678
0.00282728
-0.00688985
3.95169e-14
6.34555e-13
-8.61529e-13
-2.47354e-12
3.82991e-12
8.78343e-12
-1.32526e-11
-2.65006e-11
3.75019e-11
7.80439e-11
-9.96956e-11
-2.11568e-10
2.08512e-10
5.67428e-10
-2.8515e-10
-1.49567e-09
1.3789e-10
3.43788e-09
1.53153e-09
-7.30963e-09
-6.7966e-09
1.08247e-08
2.3019e-08
-9.44743e-09
-5.55019e-08
-2.71488e-08
1.06464e-07
1.52911e-07
-6.6857e-08
-4.03698e-07
-4.0568e-07
3.38049e-07
1.31823e-06
1.5187e-06
-6.75723e-07
-3.81042e-06
-5.4729e-06
-2.63152e-06
4.83305e-06
1.50263e-05
2.15413e-05
2.71566e-05
1.50305e-05
2.83301e-05
-5.8753e-05
7.81522e-05
-0.000341839
0.000646086
-0.00142183
0.00334
-7.47079e-14
-7.40838e-14
6.20916e-13
-7.79874e-14
-1.93878e-12
1.65742e-13
5.84602e-12
-3.34812e-13
-1.45652e-11
-4.47297e-12
3.89633e-11
1.91318e-11
-8.99752e-11
-7.0316e-11
1.66638e-10
2.43811e-10
-1.5862e-10
-7.49434e-10
-2.20085e-10
1.40687e-09
2.30207e-09
-1.37998e-09
-6.79375e-09
-5.93869e-09
1.10887e-08
3.23708e-08
6.86552e-09
-6.41918e-08
-1.37444e-07
1.10455e-08
2.874e-07
5.02332e-07
5.98033e-08
-9.34911e-07
-1.80622e-06
-1.19175e-06
1.57103e-06
5.71392e-06
7.53198e-06
1.41032e-06
-9.73756e-06
-2.20627e-05
-2.00157e-05
-1.63194e-05
2.46451e-05
-1.01033e-05
0.000126529
-0.000221373
0.000473769
-0.00125663
2.79568e-14
1.87334e-13
-3.50393e-13
-7.1199e-13
1.53461e-12
2.11586e-12
-5.22466e-12
-5.379e-12
1.40909e-11
1.54296e-11
-3.72731e-11
-3.71583e-11
7.41335e-11
1.08071e-10
-1.27779e-10
-2.71352e-10
1.02591e-10
6.11789e-10
7.91139e-11
-9.76249e-10
-5.47951e-10
5.57571e-10
1.45799e-09
2.01077e-10
-7.10035e-11
2.45225e-09
-1.06963e-08
-2.30576e-08
-9.64633e-09
1.063e-07
1.36306e-07
-4.98635e-08
-3.76577e-07
-5.16799e-07
6.3774e-08
1.16739e-06
1.89521e-06
3.51032e-07
-2.66486e-06
-4.859e-06
-2.99202e-06
3.56701e-06
7.75579e-06
1.19025e-05
-2.02954e-05
5.34647e-06
-0.000128806
0.000171305
-0.000466549
0.00109508
2.8132e-14
-9.76145e-14
-1.0508e-13
4.58939e-13
2.15425e-13
-1.69117e-12
-3.37427e-13
5.03522e-12
1.00892e-12
-1.45223e-11
-1.06042e-12
3.50891e-11
1.0153e-11
-8.6195e-11
-5.80125e-11
1.98888e-10
2.00449e-10
-3.8888e-10
-6.21763e-10
7.03724e-10
1.39963e-09
-5.34438e-10
-4.04032e-09
5.48812e-10
7.53829e-09
5.49665e-09
-1.54638e-08
-2.1519e-08
6.76263e-09
7.07871e-08
5.94528e-08
-7.26108e-08
-2.75998e-07
-2.41583e-07
2.63578e-07
8.58511e-07
1.19211e-06
2.36176e-07
-1.60963e-06
-3.79289e-06
-3.63838e-06
-2.68963e-06
7.43528e-07
-1.94355e-06
7.50515e-06
-1.60367e-05
4.07474e-05
-9.34986e-05
0.000187963
-0.000425862
1.33122e-14
-4.39451e-14
-8.40129e-14
2.49017e-13
1.98332e-13
-8.22277e-13
-3.50493e-13
2.06648e-12
8.6927e-13
-4.79561e-12
-2.90892e-12
1.31694e-11
8.61806e-12
-3.39349e-11
-1.91105e-11
6.80017e-11
5.17587e-11
-1.24952e-10
-9.84084e-11
2.34188e-10
1.38755e-10
-5.47717e-10
-3.02454e-10
2.02348e-09
7.95151e-10
-5.01488e-09
-7.46299e-09
7.49125e-09
3.2557e-08
2.02732e-08
-5.77202e-08
-1.50445e-07
-5.61949e-08
2.01976e-07
5.30112e-07
4.62606e-07
-4.88097e-07
-1.8359e-06
-2.29387e-06
-3.55193e-07
2.5584e-06
5.24972e-06
4.42668e-06
1.2072e-06
-4.68685e-06
-3.5878e-06
-8.63861e-06
1.9823e-05
-2.36634e-05
0.000125046
-5.37397e-15
-3.45781e-14
7.77272e-14
1.17032e-13
-3.2002e-13
-3.00302e-13
9.55965e-13
7.61319e-13
-2.65434e-12
-1.8328e-12
6.40086e-12
4.7344e-12
-1.56572e-11
-1.1681e-11
3.11223e-11
3.29433e-11
-4.55343e-11
-6.13816e-11
6.77808e-11
3.19215e-11
-1.07956e-10
1.82958e-10
7.69516e-10
-5.68943e-10
-3.27766e-09
-1.56402e-09
6.92074e-09
1.44929e-08
1.18327e-09
-4.36882e-08
-5.7922e-08
1.10336e-08
1.9612e-07
2.28002e-07
-5.19132e-08
-5.57475e-07
-7.773e-07
-1.33929e-07
1.12875e-06
1.99834e-06
1.5434e-06
-3.10956e-07
-1.69737e-06
-2.15695e-06
5.17952e-06
1.94649e-06
3.12248e-05
-3.53571e-05
0.000105348
-0.000260852
-6.2901e-15
2.62188e-14
2.33788e-14
-1.35165e-13
-6.31959e-14
4.73352e-13
1.24312e-13
-1.3921e-12
-2.95005e-13
3.98953e-12
1.36528e-12
-1.12481e-11
-5.56102e-12
2.82967e-11
2.25629e-11
-6.76591e-11
-7.34064e-11
1.26131e-10
2.05988e-10
-1.57092e-10
-4.62906e-10
6.50296e-11
9.53896e-10
-2.63589e-10
-1.07569e-09
-3.99553e-10
3.54912e-09
9.47023e-10
-5.2429e-09
-1.50412e-08
3.43195e-09
3.12956e-08
6.26787e-08
-7.6922e-09
-1.28861e-07
-2.79954e-07
-1.91076e-07
3.06885e-07
9.4146e-07
1.19309e-06
7.09839e-07
1.78503e-08
-1.30477e-06
-7.52619e-07
-2.9484e-06
3.81379e-06
-1.12198e-05
2.52081e-05
-5.09801e-05
0.000116959
-2.572e-15
1.1673e-14
1.15185e-14
-5.56591e-14
-4.01527e-14
1.91986e-13
7.36374e-14
-5.36334e-13
-2.12682e-13
1.65518e-12
2.19562e-13
-4.35805e-12
-1.00073e-13
8.84888e-12
3.20076e-12
-1.86834e-11
-1.4555e-11
3.58803e-11
3.63643e-11
-1.80723e-11
-9.45866e-11
-3.88826e-11
-1.75043e-11
1.97002e-10
3.36541e-10
6.14046e-10
-4.66142e-10
-3.57532e-09
-4.53202e-09
2.21097e-09
2.16143e-08
2.52771e-08
-6.82548e-09
-1.03744e-07
-1.26132e-07
4.13592e-08
3.18488e-07
5.27474e-07
2.40358e-07
-5.64482e-07
-1.46777e-06
-1.93977e-06
-1.35931e-06
1.20273e-07
1.58813e-06
1.24497e-06
3.97641e-07
-5.11915e-06
-1.49264e-07
-2.79611e-05
1.41674e-15
7.62054e-15
-1.92518e-14
-1.81886e-14
7.15338e-14
4.9091e-14
-2.23557e-13
-1.22458e-13
6.8336e-13
1.12481e-13
-2.00205e-12
1.22651e-13
5.14011e-12
-1.60416e-13
-1.24908e-11
-1.72824e-12
2.54671e-11
4.84589e-12
-4.15764e-11
-2.52429e-11
5.23549e-11
1.62211e-11
-1.49783e-10
1.78543e-10
5.06464e-10
7.72708e-12
-1.82438e-09
-1.7777e-09
1.9326e-09
1.02884e-08
5.88653e-09
-1.53661e-08
-4.26343e-08
-2.1707e-08
4.52274e-08
1.73e-07
1.61501e-07
-1.00886e-07
-5.16055e-07
-6.48377e-07
-2.32783e-07
5.60791e-07
1.06753e-06
1.00606e-06
-1.45338e-06
-8.36843e-07
-9.4568e-06
1.05307e-05
-3.14559e-05
8.13139e-05
1.02794e-15
-8.33342e-15
-2.63514e-15
5.20885e-14
4.15967e-15
-1.99414e-13
-1.01031e-14
6.63595e-13
-1.53277e-14
-1.99147e-12
-3.64582e-14
5.24202e-12
1.08273e-12
-1.27612e-11
-6.42079e-12
2.76914e-11
2.7779e-11
-4.72947e-11
-8.56436e-11
5.16555e-11
2.18052e-10
1.99726e-11
-3.27158e-10
-3.03428e-10
2.50491e-10
6.23953e-10
5.55044e-11
-1.00067e-09
1.96684e-10
3.092e-09
-2.28316e-11
-8.56474e-09
-1.50902e-08
6.44455e-09
4.10752e-08
6.86521e-08
-7.66968e-09
-1.40163e-07
-2.51902e-07
-1.91462e-07
2.4073e-08
2.43567e-07
5.5837e-07
7.03971e-08
8.89365e-07
-1.52989e-06
4.78068e-06
-8.6926e-06
2.0545e-05
-4.28861e-05
-1.87882e-16
-8.4962e-16
8.32487e-16
2.69702e-15
-3.7899e-15
-1.10513e-14
2.64947e-14
2.58122e-14
-1.73593e-13
1.36105e-14
6.46388e-13
2.51713e-15
-1.87006e-12
-5.3402e-14
3.59681e-12
1.07879e-12
-5.65224e-12
-1.66179e-12
4.75525e-12
-4.81356e-12
7.21882e-12
2.35798e-11
3.2835e-11
-9.23891e-11
-2.50505e-10
-8.05911e-11
7.48145e-10
1.28948e-09
9.6974e-11
-3.84335e-09
-7.30008e-09
3.02027e-10
1.846e-08
2.94298e-08
1.48154e-08
-5.5999e-08
-1.40238e-07
-1.35666e-07
7.91784e-08
3.52208e-07
6.12954e-07
5.59073e-07
2.23687e-07
-1.36864e-07
-2.71401e-07
5.01582e-08
6.41349e-07
1.23221e-06
1.89705e-06
2.0899e-06
-1.39178e-16
-9.7226e-18
2.83449e-16
-3.18231e-15
1.53759e-15
2.01873e-14
9.92287e-15
-1.18253e-13
-4.1721e-14
4.57474e-13
1.85523e-13
-1.37468e-12
-5.78622e-13
3.08019e-12
2.53701e-12
-4.73753e-12
-1.01794e-11
3.92978e-12
2.55175e-11
8.06869e-12
-5.22092e-11
-4.35212e-11
4.83898e-11
8.89964e-11
-2.54402e-11
6.4707e-12
1.1904e-10
1.43577e-10
-9.76892e-10
-1.38845e-09
4.13863e-10
6.71156e-09
9.08958e-09
-3.49367e-09
-3.10134e-08
-4.30096e-08
-6.27871e-09
8.70665e-08
1.85334e-07
1.64919e-07
-5.38977e-08
-3.8544e-07
-5.8019e-07
-4.63995e-07
2.25186e-07
4.06681e-07
1.81701e-06
-1.77076e-06
5.46957e-06
-1.60577e-05
-8.20702e-18
9.21977e-16
-1.16847e-15
-9.29039e-15
7.6044e-15
4.51559e-14
-3.47721e-14
-1.57694e-13
1.22724e-13
4.85592e-13
-3.43899e-13
-1.33061e-12
4.99672e-13
3.22666e-12
5.59461e-13
-8.09837e-12
-5.9213e-12
1.4842e-11
2.62262e-11
-1.28725e-11
-6.93279e-11
-2.76339e-11
1.1827e-10
1.65299e-10
-1.93293e-11
-3.77957e-10
-3.75776e-10
7.96187e-11
6.80105e-10
1.02235e-09
7.4176e-10
-4.64645e-10
-3.4624e-09
-7.14189e-09
-5.17128e-09
6.08268e-09
2.95369e-08
5.20172e-08
3.0747e-08
-5.358e-08
-1.46215e-07
-1.66288e-07
-1.39784e-07
8.34595e-08
-1.86332e-07
3.27547e-07
-1.53403e-06
2.0409e-06
-6.02294e-06
1.10122e-05
3.04401e-19
-9.93016e-17
2.95337e-16
3.6885e-15
-2.60734e-15
-2.40994e-14
5.74898e-15
9.83179e-14
6.2522e-15
-2.99342e-13
-7.03576e-14
7.47973e-13
3.74017e-13
-1.54559e-12
-1.67999e-12
2.59425e-12
5.25359e-12
-1.72474e-12
-1.12471e-11
-4.79095e-12
2.08188e-11
1.72021e-11
-1.97496e-11
-3.47342e-11
2.35831e-11
4.91883e-12
-6.86863e-11
-1.9173e-10
2.40149e-10
1.06899e-09
9.56523e-10
-1.87789e-09
-5.41889e-09
-4.98653e-09
5.57871e-09
2.26184e-08
3.48501e-08
6.75587e-09
-6.74529e-08
-1.39014e-07
-1.43787e-07
-3.87018e-08
8.51197e-08
1.26953e-07
5.86306e-08
-1.11616e-07
-4.42886e-07
-6.18926e-08
-1.22058e-06
2.09351e-06
5.71938e-18
3.81866e-17
4.7333e-16
8.94839e-16
-6.78904e-15
-1.0523e-14
3.23226e-14
5.18348e-14
-1.00242e-13
-1.76464e-13
2.22714e-13
5.4789e-13
-2.98686e-13
-1.44644e-12
-2.84624e-13
3.45569e-12
3.12422e-12
-5.36511e-12
-1.22778e-11
3.72298e-12
2.82212e-11
2.03666e-11
-3.71465e-11
-8.08024e-11
-1.56563e-11
1.19608e-10
1.84265e-10
5.31822e-11
-1.63022e-10
-4.07806e-10
-5.90549e-10
-6.96913e-10
5.99196e-10
3.64639e-09
7.35088e-09
5.393e-09
-1.30356e-08
-4.02566e-08
-4.6066e-08
-4.56914e-09
7.75343e-08
1.64007e-07
1.9466e-07
1.12351e-07
-1.2324e-08
-1.60179e-07
-6.94622e-08
3.74739e-08
3.12961e-08
1.86352e-06
5.38492e-18
3.5385e-17
1.56182e-16
-2.4742e-16
-8.31343e-16
3.94994e-15
9.74982e-16
-1.67556e-14
-1.54602e-14
4.22282e-14
5.85281e-14
-3.20512e-14
-2.68119e-13
-1.13972e-13
5.86659e-13
8.94338e-13
-1.36827e-13
-3.75856e-12
-1.72716e-12
6.15991e-12
1.15998e-11
-1.39237e-12
-3.39718e-11
-3.18509e-11
3.60029e-11
1.12301e-10
7.90996e-11
-4.7146e-11
-3.46823e-10
-4.58824e-10
-8.91084e-11
9.63306e-10
2.48206e-09
1.88087e-09
-2.00456e-09
-9.3482e-09
-1.48632e-08
-6.6892e-09
2.29124e-08
5.66005e-08
7.29734e-08
3.40072e-08
-1.8712e-08
-7.42458e-08
3.39555e-08
-5.02371e-08
5.35048e-07
-5.43846e-07
1.95848e-06
-3.81952e-06
2.93552e-18
4.41514e-18
-1.90946e-16
-9.20624e-16
3.9406e-15
8.41574e-15
-1.93009e-14
-3.84976e-14
5.37125e-14
1.23348e-13
-9.49554e-14
-3.36378e-13
2.4986e-14
8.99406e-13
3.9326e-13
-1.71097e-12
-2.30879e-12
2.38746e-12
7.12119e-12
2.34916e-13
-1.59208e-11
-1.45747e-11
1.7805e-11
4.31027e-11
1.44181e-11
-5.49148e-11
-7.93518e-11
-2.59283e-11
4.69858e-11
8.40895e-11
2.20168e-10
3.85182e-10
4.46465e-10
-7.84824e-10
-3.19292e-09
-5.35774e-09
-9.95708e-10
1.17027e-08
2.5727e-08
2.2176e-08
-7.64282e-09
-4.31862e-08
-7.33487e-08
-5.00907e-08
-2.7703e-08
8.11441e-08
2.41199e-08
9.51379e-08
-7.78376e-08
-3.51936e-07
-9.25832e-19
-1.56781e-17
-1.04223e-16
1.57704e-16
1.19914e-15
-1.91169e-15
-5.4911e-15
7.30451e-15
2.32196e-14
-9.27287e-15
-6.93004e-14
-3.79069e-14
2.02369e-13
2.1709e-13
-2.07012e-13
-1.04201e-12
-1.74208e-13
2.51875e-12
2.15949e-12
-3.60524e-12
-8.50923e-12
-1.21801e-12
2.07804e-11
2.18374e-11
-1.15519e-11
-6.56234e-11
-7.28916e-11
3.33566e-11
1.95182e-10
2.23152e-10
4.73146e-11
-3.99747e-10
-8.52335e-10
-1.2792e-09
-5.37342e-10
3.19926e-09
7.79539e-09
9.26759e-09
2.98795e-10
-1.87607e-08
-3.9306e-08
-4.51397e-08
-3.13644e-08
2.64246e-09
-7.685e-09
3.24433e-08
-1.18411e-07
1.12642e-07
-4.85818e-07
6.8474e-07
-8.5942e-19
-4.0586e-18
3.50177e-17
1.78234e-16
-1.35644e-15
-2.1067e-15
9.03984e-15
1.15941e-14
-2.30323e-14
-4.32823e-14
2.73926e-14
1.42228e-13
-1.5505e-14
-2.65272e-13
-2.22271e-13
4.32955e-13
1.01709e-12
-3.38478e-13
-2.37984e-12
-1.1503e-12
3.16113e-12
7.03518e-12
3.16606e-13
-9.60916e-12
-1.89542e-11
-3.19569e-12
2.39682e-11
5.22449e-11
4.62037e-11
-1.47845e-11
-1.13349e-10
-3.4226e-10
-4.90324e-10
1.48695e-10
1.80285e-09
3.41443e-09
1.86445e-09
-4.64483e-09
-1.33996e-08
-1.81843e-08
-7.49385e-09
1.36484e-08
3.20461e-08
3.39508e-08
7.69071e-10
-1.37627e-08
-1.15331e-07
9.04747e-08
-3.68816e-07
8.75125e-07
2.6221e-19
4.338e-18
2.59948e-17
-5.68778e-17
-8.26836e-16
8.45395e-19
5.19113e-15
1.82175e-16
-1.51557e-14
-1.14541e-14
4.95622e-14
4.72476e-14
-8.3019e-14
-2.3764e-13
3.68857e-14
7.0551e-13
2.85686e-13
-1.41269e-12
-1.78267e-12
1.21236e-12
5.93532e-12
2.10693e-12
-1.05484e-11
-1.67773e-11
1.88921e-12
4.09801e-11
4.37638e-11
-2.13283e-11
-1.03025e-10
-1.13021e-10
-2.02303e-11
1.20165e-10
3.43239e-10
6.32667e-10
4.79739e-10
-7.66821e-10
-3.03524e-09
-4.89384e-09
-2.716e-09
5.18609e-09
1.57593e-08
2.23433e-08
2.15363e-08
5.37918e-09
7.4453e-09
-2.37672e-08
4.87392e-08
-6.51783e-08
2.15941e-07
-2.57406e-07
3.39353e-19
1.64619e-18
-3.35675e-18
-4.92784e-17
5.9085e-17
3.147e-16
-1.81192e-15
-2.99232e-15
4.69609e-15
1.91842e-14
-7.13867e-15
-4.57229e-14
-2.2605e-14
7.44708e-14
1.61629e-13
-5.16692e-14
-4.47687e-13
-1.46239e-13
6.59476e-13
1.36819e-12
-1.8491e-13
-2.54999e-12
-3.51171e-12
1.33505e-12
1.0034e-11
1.00707e-11
-4.01411e-12
-3.12529e-11
-3.74256e-11
-1.82009e-11
4.88447e-11
2.1227e-10
2.95024e-10
4.91069e-11
-7.22751e-10
-1.79225e-09
-1.58518e-09
8.11098e-10
5.488e-09
9.15917e-09
8.17595e-09
7.54483e-10
-7.16952e-09
-1.15615e-08
-1.90258e-10
9.56886e-10
5.22789e-08
-4.01321e-08
1.77098e-07
-3.66969e-07
-7.70324e-21
-4.15122e-19
-2.91283e-18
1.08992e-17
9.31573e-17
-3.63834e-16
-1.34614e-15
-6.81072e-16
8.50371e-15
5.52567e-15
-2.3258e-14
-3.46869e-14
4.01555e-14
1.33684e-13
-1.33495e-14
-3.44918e-13
-1.82518e-13
5.58306e-13
9.7887e-13
-4.65531e-13
-2.60321e-12
-1.72598e-12
3.60581e-12
8.54475e-12
1.44048e-12
-1.61791e-11
-1.96884e-11
5.40722e-13
3.47473e-11
4.89584e-11
3.94092e-11
-2.16158e-11
-1.28837e-10
-2.81268e-10
-3.88495e-10
1.59238e-11
1.0396e-09
2.41652e-09
2.41746e-09
-3.57656e-10
-5.45607e-09
-1.06424e-08
-1.2576e-08
-7.08791e-09
-2.75069e-09
8.92253e-09
-3.2038e-09
9.13655e-09
-2.56313e-08
-3.72107e-08
-5.42013e-20
-2.08433e-19
9.29993e-19
7.61748e-18
-2.17563e-17
-1.42657e-16
-3.13472e-16
9.56891e-16
-1.66821e-16
-4.6519e-15
-2.55056e-15
1.13673e-14
2.2773e-14
-9.15925e-15
-8.63387e-14
-2.45122e-14
1.19597e-13
2.89346e-13
-8.5912e-14
-7.69017e-13
-5.89862e-13
8.34902e-13
3.25895e-12
8.52486e-13
-5.00588e-12
-9.06631e-12
-2.42465e-12
1.46756e-11
3.01551e-11
2.34061e-11
-2.8814e-11
-1.00295e-10
-1.45175e-10
-6.44733e-11
3.0028e-10
7.19249e-10
1.0381e-09
1.45769e-10
-1.87006e-09
-4.07936e-09
-5.00829e-09
-2.66332e-09
4.91675e-10
3.77213e-09
-8.79198e-10
2.38337e-09
-2.52586e-08
2.34964e-08
-9.32092e-08
1.7221e-07
-6.20891e-21
4.56758e-20
4.20944e-19
-1.17408e-18
-1.15206e-17
-2.09239e-17
8.61097e-17
-6.50193e-17
-2.17964e-15
-2.01888e-15
9.30328e-15
1.6149e-14
-1.18384e-14
-6.28707e-14
-4.61874e-16
1.36777e-13
1.14901e-13
-1.86856e-13
-4.99042e-13
6.41237e-14
1.0897e-12
1.08049e-12
-1.31118e-12
-3.64693e-12
-1.26264e-12
5.09965e-12
8.67661e-12
4.03697e-12
-1.07615e-11
-1.91897e-11
-2.91791e-11
-1.38921e-11
3.71163e-11
1.2065e-10
2.25897e-10
1.52378e-10
-3.54406e-10
-1.06686e-09
-1.52402e-09
-7.91047e-10
1.68017e-09
4.12319e-09
5.53012e-09
3.97202e-09
1.35508e-09
-3.27175e-09
-3.87453e-09
8.49086e-10
-7.43228e-09
5.11374e-08
2.25562e-21
1.31215e-20
-8.43587e-20
-7.60074e-19
-1.35939e-18
2.27194e-18
-7.79359e-18
-2.1932e-16
-5.4571e-16
4.82702e-16
2.89956e-15
7.83284e-16
-1.69068e-14
-4.15057e-15
3.8793e-14
4.26078e-14
-3.8873e-14
-1.98183e-13
-2.77874e-14
3.79956e-13
5.21677e-13
-3.43473e-13
-1.67861e-12
-9.42429e-13
1.93977e-12
5.25533e-12
2.55673e-12
-6.42188e-12
-1.57147e-11
-1.38528e-11
1.11681e-11
4.34773e-11
7.25809e-11
4.5933e-11
-8.78198e-11
-3.18255e-10
-4.67792e-10
-2.37684e-10
5.89091e-10
1.63789e-09
2.46029e-09
2.07243e-09
1.0132e-09
-8.34797e-10
6.98054e-10
-1.62195e-09
9.53544e-09
-9.44629e-09
3.65212e-08
-5.91422e-08
-7.20732e-22
-7.67265e-21
-4.85988e-20
-7.22744e-20
-4.26485e-20
-2.18467e-18
-2.07692e-17
-3.22225e-17
1.40028e-16
1.61657e-17
-1.51234e-15
-6.22896e-15
4.22072e-15
2.55504e-14
-9.22763e-17
-4.58347e-14
-6.52444e-14
7.28476e-14
2.07979e-13
8.22495e-15
-3.73725e-13
-5.37569e-13
3.42711e-13
1.41456e-12
1.02913e-12
-1.30702e-12
-3.67211e-12
-2.63889e-12
1.22129e-12
7.46451e-12
1.2753e-11
1.30813e-11
7.66577e-13
-4.89787e-11
-1.1758e-10
-1.04575e-10
7.115e-11
4.30645e-10
7.43502e-10
6.12803e-10
-2.84874e-10
-1.39811e-09
-2.2217e-09
-1.87228e-09
-5.2182e-10
8.78496e-10
3.78e-09
-2.59851e-09
1.10953e-08
-3.64358e-08
-4.37646e-22
-2.25058e-21
-2.50363e-21
2.23233e-20
-1.4762e-19
-1.53189e-18
-2.76777e-18
1.55032e-17
4.68324e-17
-1.06003e-16
-1.58216e-15
-7.43894e-16
6.85537e-15
4.03251e-15
-1.18251e-14
-3.26516e-14
1.38454e-14
9.35929e-14
3.61844e-14
-1.57386e-13
-3.19092e-13
1.07628e-13
7.32198e-13
6.64698e-13
-7.91088e-13
-2.49905e-12
-1.61573e-12
2.22837e-12
7.55536e-12
6.77366e-12
-1.91356e-12
-1.70813e-11
-3.60302e-11
-2.5862e-11
2.02709e-11
1.18821e-10
2.19178e-10
1.59824e-10
-1.18957e-10
-6.393e-10
-1.07996e-09
-1.16849e-09
-8.39702e-10
1.58631e-11
-4.25303e-10
8.99333e-10
-3.41953e-09
3.56071e-09
-1.36962e-08
1.92737e-08
1.11179e-23
3.38882e-22
3.83521e-21
1.1261e-20
-2.78881e-20
-1.77208e-20
1.72371e-18
6.43001e-18
-1.98524e-18
-1.18323e-16
-8.71362e-17
1.02256e-15
-9.50523e-16
-7.23968e-15
-2.02309e-15
1.61135e-14
3.13871e-14
-1.90129e-14
-8.49872e-14
-2.74569e-14
1.34098e-13
2.46863e-13
-3.29484e-14
-4.82177e-13
-5.65904e-13
2.14145e-13
1.35426e-12
1.60266e-12
5.76198e-13
-2.04472e-12
-6.39466e-12
-9.46979e-12
-3.46967e-12
1.96649e-11
5.08056e-11
7.00514e-11
3.41455e-13
-1.65726e-10
-3.35449e-10
-3.51864e-10
-5.68181e-11
4.30915e-10
8.53702e-10
8.16431e-10
1.49539e-10
-2.27713e-10
-2.08866e-09
1.75546e-09
-6.67939e-09
1.80756e-08
6.36721e-23
4.50067e-22
2.55895e-21
1.12287e-20
5.56786e-20
2.8276e-19
9.51029e-19
1.14508e-18
-1.58459e-18
7.37111e-18
1.78161e-16
-2.15157e-17
-2.02017e-15
-2.23111e-15
4.35208e-15
1.49304e-14
-5.43311e-15
-4.08072e-14
-2.23126e-14
7.24283e-14
1.45467e-13
-3.51469e-14
-3.24356e-13
-3.41633e-13
2.46043e-13
1.01571e-12
9.1319e-13
-7.74323e-13
-2.91723e-12
-3.37783e-12
-3.73496e-13
6.71259e-12
1.38513e-11
1.4618e-11
-1.10054e-12
-4.66786e-11
-9.42713e-11
-8.95044e-11
1.10798e-11
2.17943e-10
4.57408e-10
5.37043e-10
4.72598e-10
1.06094e-10
1.87817e-10
-4.00718e-10
1.1001e-09
-1.17007e-09
4.59138e-09
-5.46e-09
5.13595e-23
3.13961e-22
1.84195e-21
1.01162e-20
4.91342e-20
1.57235e-19
3.98907e-19
1.20591e-18
4.8454e-18
2.32087e-17
3.55432e-17
-1.97377e-16
-7.17192e-17
1.16381e-15
6.79557e-16
-5.42939e-15
-9.83628e-15
5.8726e-15
2.97537e-14
1.4669e-14
-5.03009e-14
-9.07535e-14
-9.83277e-15
1.37822e-13
3.05912e-13
6.61209e-14
-3.76424e-13
-9.15604e-13
-6.66802e-13
7.14069e-13
2.64176e-12
4.73825e-12
3.82196e-12
-6.40782e-12
-2.3099e-11
-3.40398e-11
-6.65144e-12
5.97785e-11
1.41666e-10
1.7818e-10
6.7862e-11
-1.23824e-10
-2.84445e-10
-3.35706e-10
-3.7201e-11
3.88119e-11
9.85562e-10
-9.07248e-10
3.36302e-09
-7.87839e-09
2.98087e-23
1.82327e-22
1.09444e-21
5.73103e-21
2.30533e-20
7.07541e-20
2.52713e-19
1.07091e-18
3.48488e-18
7.29946e-18
-6.927e-19
2.82522e-17
2.52779e-16
4.55565e-16
-1.68129e-15
-4.63038e-15
1.30648e-15
1.43702e-14
1.11835e-14
-2.87415e-14
-5.32546e-14
5.42438e-15
1.21472e-13
1.68223e-13
-8.63841e-14
-4.22114e-13
-4.67621e-13
2.2642e-13
1.27377e-12
1.32309e-12
5.49277e-13
-2.4547e-12
-5.75561e-12
-8.0014e-12
-1.45638e-12
1.72354e-11
3.64892e-11
4.77798e-11
7.19177e-12
-7.72053e-11
-1.79491e-10
-2.32063e-10
-2.25638e-10
-8.07793e-11
-6.86457e-11
1.5991e-10
-3.61252e-10
3.73921e-10
-1.49522e-09
1.33098e-09
1.25546e-23
7.67741e-23
4.41685e-22
2.1433e-21
8.77937e-21
3.52779e-20
1.46617e-19
5.12827e-19
1.39043e-18
2.57519e-18
9.43254e-18
4.45678e-17
6.7248e-17
-1.56231e-16
-3.62505e-16
7.47791e-16
2.11128e-15
-1.1461e-15
-8.04878e-15
-4.3628e-15
1.27134e-14
3.13674e-14
1.2317e-14
-4.85861e-14
-1.16591e-13
-6.01723e-14
1.24712e-13
3.89901e-13
3.83278e-13
-6.39201e-14
-1.11861e-12
-2.39368e-12
-1.74862e-12
2.71747e-12
9.38189e-12
1.47505e-11
5.68122e-12
-2.17236e-11
-5.7022e-11
-7.58331e-11
-4.09736e-11
3.3772e-11
9.69234e-11
1.28103e-10
8.79288e-12
3.36266e-12
-4.08065e-10
3.91913e-10
-1.47152e-09
3.2765e-09
2.72228e-24
1.67362e-23
9.92586e-23
5.63241e-22
3.10659e-21
1.52686e-20
5.78692e-20
1.79452e-19
5.16445e-19
1.84116e-18
6.70368e-18
1.51446e-17
4.9378e-18
1.51185e-17
3.10117e-16
5.27736e-16
-9.77027e-16
-3.44882e-15
-3.20292e-15
9.74898e-15
1.7851e-14
1.02579e-15
-4.38243e-14
-6.38382e-14
2.90076e-14
1.37135e-13
2.02597e-13
-4.1678e-14
-4.6518e-13
-6.48504e-13
-3.30007e-13
9.62319e-13
2.40944e-12
3.21143e-12
9.83442e-13
-6.15328e-12
-1.44627e-11
-2.03973e-11
-5.55501e-12
2.80668e-11
6.91241e-11
9.45087e-11
9.34585e-11
4.03319e-11
2.95703e-11
-5.82355e-11
1.13869e-10
-1.19308e-10
4.94144e-10
-3.16084e-10
-4.31764e-25
-1.99447e-24
1.02856e-25
9.7481e-23
8.77751e-22
4.55849e-21
1.70233e-20
5.81022e-20
2.25713e-19
8.47728e-19
2.3351e-18
4.4973e-18
1.31935e-17
4.27895e-17
7.34457e-17
-5.9793e-17
-3.9648e-16
-3.1564e-16
1.64773e-15
1.28941e-15
-2.39651e-15
-8.58226e-15
-7.02767e-15
1.04153e-14
4.62966e-14
4.18826e-14
-4.35491e-14
-1.71686e-13
-1.97632e-13
2.73396e-14
4.78691e-13
9.99978e-13
6.71141e-13
-1.01462e-12
-3.83005e-12
-6.22141e-12
-3.05242e-12
7.79238e-12
2.20336e-11
2.93427e-11
1.84107e-11
-8.8557e-12
-3.29837e-11
-4.69071e-11
-3.48877e-12
-5.16325e-12
1.58887e-10
-1.54926e-10
5.70831e-10
-1.26144e-09
-6.07896e-25
-3.15898e-24
-1.06045e-23
-1.01794e-23
1.03164e-22
8.16915e-22
4.34772e-21
1.94041e-20
7.51776e-20
2.36308e-19
7.01501e-19
2.53124e-18
7.68907e-18
1.30387e-17
2.11873e-18
-8.34878e-18
9.98524e-17
2.43605e-16
-5.17826e-17
-2.05033e-15
-3.24333e-15
2.50978e-16
1.25172e-14
2.27194e-14
-7.22989e-15
-5.22075e-14
-8.11219e-14
1.48916e-14
1.82904e-13
2.49897e-13
1.4531e-13
-3.5755e-13
-8.95567e-13
-1.28656e-12
-4.40026e-13
2.49887e-12
6.01916e-12
8.08903e-12
2.69539e-12
-9.78649e-12
-2.56849e-11
-3.62683e-11
-3.55249e-11
-1.685e-11
-1.2186e-11
2.0157e-11
-3.64427e-11
4.10566e-11
-1.63171e-10
7.65358e-11
-3.25421e-25
-1.75007e-24
-7.46758e-24
-2.50978e-23
-5.90812e-23
-7.64878e-25
8.70261e-22
4.72652e-21
1.58771e-20
5.77732e-20
2.69516e-19
9.77077e-19
2.14269e-18
2.94671e-18
5.39397e-18
1.84621e-17
3.59986e-17
-4.13895e-18
-2.22667e-16
-5.27876e-16
-9.93919e-17
1.7785e-15
3.74135e-15
-1.67334e-15
-1.7192e-14
-1.63931e-14
1.48365e-14
6.88731e-14
7.25057e-14
-6.84696e-15
-1.88247e-13
-3.78129e-13
-2.86919e-13
4.03675e-13
1.47678e-12
2.25828e-12
8.19787e-13
-3.08469e-12
-8.24431e-12
-1.08935e-11
-7.08072e-12
2.95491e-12
1.11757e-11
1.65457e-11
1.78271e-12
3.02533e-12
-5.89838e-11
5.62847e-11
-2.12258e-10
4.60094e-10
-1.63304e-25
-9.14336e-25
-4.37222e-24
-1.70657e-23
-4.94791e-23
-8.58789e-23
-8.11558e-24
4.8299e-22
3.15145e-21
1.9429e-20
8.00092e-20
2.1044e-19
4.72681e-19
1.25676e-18
3.33222e-18
5.76867e-18
1.25248e-18
-1.57663e-17
-1.27496e-17
1.04678e-16
1.81499e-16
-2.00665e-16
-2.87014e-15
-5.55476e-15
3.51278e-15
1.7561e-14
2.68701e-14
-8.37045e-15
-6.53363e-14
-9.12426e-14
-4.9573e-14
1.35742e-13
3.48445e-13
4.74662e-13
1.21258e-13
-9.51004e-13
-2.07e-12
-2.78539e-12
-8.32196e-13
3.5627e-12
9.15286e-12
1.28034e-11
1.26066e-11
6.17497e-12
4.01212e-12
-7.32834e-12
1.30366e-11
-1.28647e-11
5.67889e-11
-2.20772e-11
-7.67852e-26
-4.33264e-25
-2.07377e-24
-8.0073e-24
-2.38925e-23
-5.49353e-23
-1.00039e-22
-5.24314e-23
9.33589e-22
5.12685e-21
1.39329e-20
3.54801e-20
1.37464e-19
4.43693e-19
9.10323e-19
9.59623e-19
-1.01065e-19
3.01861e-19
8.12142e-18
1.71206e-17
-5.68595e-17
-3.90784e-16
-8.03914e-16
3.61098e-16
4.37394e-15
4.70628e-15
-4.13877e-15
-2.30869e-14
-2.0777e-14
9.04907e-15
7.16612e-14
1.29502e-13
8.8468e-14
-1.61247e-13
-5.11814e-13
-7.19923e-13
-2.19272e-13
1.16413e-12
2.83365e-12
3.7025e-12
2.28468e-12
-1.12483e-12
-3.93987e-12
-5.78587e-12
-4.17361e-13
-7.83979e-13
2.00548e-11
-1.93487e-11
7.22823e-11
-1.58529e-10
-2.99639e-26
-1.68008e-25
-7.90669e-25
-3.02011e-24
-9.28908e-24
-2.3456e-23
-4.59549e-23
-3.31243e-23
1.76971e-22
7.26857e-22
2.06896e-21
9.10414e-21
3.53008e-20
8.75185e-20
1.36337e-19
1.72226e-19
3.31705e-19
7.81696e-19
8.31742e-19
-5.72655e-18
-3.03723e-17
-1.85213e-17
2.56368e-16
4.9077e-16
-1.07597e-15
-3.98379e-15
-6.02835e-15
4.03417e-15
2.02532e-14
2.55585e-14
8.08154e-15
-5.3134e-14
-1.15913e-13
-1.44246e-13
-2.54527e-14
3.14859e-13
6.56018e-13
8.271e-13
1.81525e-13
-1.25477e-12
-3.04772e-12
-4.17969e-12
-4.14325e-12
-1.95579e-12
-1.26194e-12
2.42404e-12
-4.75755e-12
4.122e-12
-2.03349e-11
9.91869e-12
-9.79492e-27
-5.47186e-26
-2.56076e-25
-9.79492e-25
-3.05108e-24
-7.7061e-24
-1.47484e-23
-1.69642e-23
-3.08321e-25
6.92712e-23
4.51445e-22
1.93684e-21
5.29388e-21
1.06056e-20
2.14609e-20
5.28089e-20
1.09395e-19
6.46324e-20
-5.68248e-19
-1.54096e-18
2.85647e-18
1.76097e-17
2.68582e-17
-1.5037e-16
-6.49967e-16
-6.78711e-16
1.50648e-15
4.97265e-15
4.47238e-15
-3.54565e-15
-2.08902e-14
-3.25727e-14
-1.85362e-14
5.81697e-14
1.60225e-13
2.11515e-13
5.40482e-14
-3.91071e-13
-8.80376e-13
-1.12101e-12
-6.03722e-13
4.8101e-13
1.40817e-12
1.90498e-12
1.07744e-13
1.12123e-13
-6.05816e-12
6.12524e-12
-2.16967e-11
4.94843e-11
-2.77469e-27
-1.54794e-26
-7.223e-26
-2.74898e-25
-8.48531e-25
-2.12828e-24
-4.3197e-24
-6.85046e-24
-6.32764e-24
9.43322e-24
6.12147e-23
1.48326e-22
3.24776e-22
1.26279e-21
4.62955e-21
9.64589e-21
4.20801e-21
-4.72499e-20
-1.13241e-19
2.16067e-19
1.09124e-18
-1.0489e-18
-1.84531e-17
-3.11132e-17
1.10717e-16
3.77729e-16
4.9453e-16
-1.27188e-15
-4.06043e-15
-5.20398e-15
-8.23968e-16
1.50609e-14
3.39959e-14
3.20332e-14
-4.23729e-15
-1.03309e-13
-1.97234e-13
-2.13024e-13
-1.00166e-14
4.20495e-13
9.11693e-13
1.158e-12
1.12387e-12
4.44255e-13
3.65888e-13
-6.83643e-13
1.62216e-12
-1.51625e-12
6.77968e-12
-5.36278e-12
-6.77716e-28
-3.77378e-27
-1.75025e-26
-6.58833e-26
-2.01036e-25
-5.07869e-25
-1.07928e-24
-1.80742e-24
-1.8928e-24
-1.22261e-24