/*--------------------------------*- C++ -*----------------------------------*\
| =========                 |                                                 |
| \\      /  F ield         | OpenFOAM: The Open Source CFD Toolbox           |
|  \\    /   O peration     | Version:  v2006                                 |
|   \\  /    A nd           | Website:  www.openfoam.com                      |
|    \\/     M anipulation  |                                                 |
\*---------------------------------------------------------------------------*/
FoamFile
{
    version     2.0;
    format      ascii;
    class       volScalarField;
    location    "0";
    object      p;
}
// * * * * * * * * * * * * * * * * * * * * * * * * * * * * * * * * * * * * * //

dimensions      [1 -1 -2 0 0 0 0];


internalField   nonuniform List<scalar> 
67500
(
60.0995
59.6843
60.4468
59.3084
53.7921
45.4142
36.9399
30.0777
25.1332
21.7566
19.5562
18.258
17.6748
17.678
18.175
19.0912
20.3612
21.9224
23.7109
25.6585
27.6925
29.7359
31.7098
33.5388
35.161
36.54
37.6662
38.5452
39.1883
39.6137
39.8478
39.9197
39.8552
39.6761
39.3989
39.0353
38.594
38.0817
37.5048
36.8696
36.1823
35.4491
34.6753
33.8662
33.0261
32.1596
31.2707
30.3635
29.4422
28.5108
27.5736
26.6346
25.6977
24.7669
23.8456
22.9369
22.0439
21.1689
20.314
19.4809
18.6709
17.885
17.1239
16.3881
15.6778
14.9929
14.3334
13.6989
13.0891
12.5034
11.9414
11.4024
10.8857
10.3908
9.91691
9.46338
9.02952
8.61466
8.21815
7.83932
7.47752
7.13214
6.80254
6.48812
6.18829
5.90245
5.63005
5.37053
5.12335
4.88798
4.66392
4.45067
4.24777
4.05475
3.87117
3.69662
3.53069
3.373
3.22318
3.08088
2.94577
2.81752
2.69584
2.58043
2.47101
2.36731
2.26909
2.17608
2.08806
2.00479
1.92605
1.85163
1.7813
1.71488
1.65216
1.59294
1.53704
1.48427
1.43446
1.38742
1.34299
1.30101
1.2613
1.22371
1.1881
1.1543
1.12218
1.09159
1.0624
1.03449
1.00772
0.98199
0.957175
0.933176
0.909895
0.887243
0.865138
0.843506
0.822282
0.801409
0.78084
0.760535
0.740461
0.720597
0.700925
0.681437
0.662131
0.64301
0.624083
0.605361
0.58686
0.5686
0.550599
0.53288
0.515463
0.49837
0.481622
0.465236
0.449231
0.433621
0.418419
0.403637
0.389281
0.375359
0.361872
0.348822
0.336207
0.324024
0.312267
0.300931
0.290006
0.279484
0.269352
0.259601
0.250218
0.24119
0.232505
0.224149
0.21611
0.208375
0.200929
0.193762
0.18686
0.180211
0.173804
0.167627
0.16167
0.155922
0.150373
0.145014
0.139836
0.13483
0.129988
0.125302
0.120766
0.116372
0.112114
0.107986
0.103982
0.100097
0.0963256
0.0926629
0.0891046
0.0856465
0.0822846
0.0790151
0.0758347
0.07274
0.069728
0.0667957
0.0639404
0.0611596
0.0584509
0.055812
0.0532408
0.0507352
0.0482935
0.0459139
0.0435947
0.0413343
0.0391314
0.0369846
0.0348926
0.0328543
0.0308685
0.0289342
0.0270506
0.0252168
0.0234321
0.0216956
0.0200069
0.0183654
0.0167706
0.015222
0.0137194
0.0122623
0.0108506
0.00948396
0.00816224
0.00688528
0.00565293
0.00446507
0.00332158
0.00222236
0.00116729
0.000156238
-0.000810919
-0.00173434
-0.00261419
-0.00345069
-0.00424405
-0.00499454
-0.00570248
-0.00636823
-0.00699219
-0.00757484
-0.0081167
-0.00861839
-0.00908061
-0.00950413
-0.00988982
-0.0102386
-0.0105517
-0.01083
-0.0110749
-0.0112876
-0.0114694
-0.0116218
-0.0117459
-0.0118431
-0.0119147
-0.0119619
-0.0119859
-0.0119877
-0.0119684
-0.011929
-0.0118706
-0.0117941
-0.0117005
-0.011591
-0.0114666
-0.0113286
-0.0111782
-0.0110167
-0.0108454
-0.0106657
-0.010479
-0.0102865
-0.0100895
-0.00988927
-0.009687
-0.00948374
-0.00928048
-0.00907811
-0.00887741
-0.00867909
-0.00848375
-0.00829187
-0.0081039
-0.00792016
-0.00774091
-0.00756636
-0.00739665
-0.00723186
-0.00707202
-0.00691715
-0.00676721
-0.00662214
-0.00648184
-0.00634623
-0.00621518
-0.00608855
-0.00596622
-0.00584803
-0.00573382
-0.00562346
-0.00551678
-0.00541363
-0.00531386
-0.00521732
-0.00512387
-0.00503336
-0.00494565
-0.00486062
-0.00477813
-0.00469806
-0.0046203
-0.00454472
-0.00447123
-0.00439971
-0.00433007
-0.00426221
-0.00419605
-0.0041315
-0.00406848
-0.00400691
-0.00394673
-0.00388786
-0.00383024
-0.00377381
-0.00371852
-0.00366429
-0.00361109
-0.00355887
-0.00350757
-0.00345716
-0.00340759
-0.00335883
-0.00331083
-0.00326357
-0.00321701
-0.00317111
-0.00312585
-0.00308121
-0.00303716
-0.00299367
-0.00295072
-0.00290829
-0.00286635
-0.0028249
-0.0027839
-0.00274335
-0.00270322
-0.00266351
-0.0026242
-0.00258527
-0.00254671
-0.00250851
-0.00247066
-0.00243314
-0.00239595
-0.00235907
-0.0023225
-0.00228622
-0.00225023
-0.00221453
-0.00217909
-0.00214393
-0.00210902
-0.00207436
-0.00203994
-0.00200577
-0.00197183
-0.00193811
-0.00190461
-0.00187133
-0.00183826
-0.00180539
-0.00177272
-0.00174025
-0.00170798
-0.00167589
-0.00164399
-0.00161226
-0.00158071
-0.00154933
-0.00151812
-0.00148707
-0.00145618
-0.00142545
-0.00139487
-0.00136445
-0.00133416
-0.00130402
-0.00127402
-0.00124415
-0.00121442
-0.00118481
-0.00115534
-0.00112598
-0.00109675
-0.00106764
-0.00103864
-0.00100975
-0.00098097
-0.000952297
-0.000923727
-0.000895254
-0.000866876
-0.00083859
-0.000810392
-0.000782282
-0.000754256
-0.000726312
-0.000698447
-0.000670659
-0.000642946
-0.000615303
-0.000587727
-0.000560216
-0.000532765
-0.000505372
-0.000478033
-0.000450747
-0.000423512
-0.000396324
-0.000369182
-0.000342083
-0.000315021
-0.000287995
-0.000261001
-0.000234035
-0.000207096
-0.000180175
-0.000153289
-0.000126369
-9.962e-05
-7.22529e-05
-4.64939e-05
-1.19303e-05
59.6782
59.0404
59.8069
58.3475
51.9825
42.8391
34.3452
27.9337
23.489
20.4932
18.5582
17.4294
16.9373
16.9784
17.4832
18.3927
19.6506
21.2004
22.9823
24.9312
26.9765
29.0419
31.0458
32.9048
34.5474
35.935
37.0665
37.9535
38.6056
39.0383
39.2805
39.3644
39.3163
39.1577
38.9048
38.5677
38.1533
37.6676
37.1163
36.5057
35.8422
35.1319
34.3803
33.5924
32.7725
31.9247
31.0531
30.1618
29.2549
28.3365
27.4111
26.4827
25.5556
24.6336
23.7204
22.8193
21.9333
21.0648
20.2161
19.3889
18.5844
17.8038
17.0477
16.3166
15.6107
14.93
14.2744
13.6436
13.0373
12.4549
11.8959
11.3598
10.8458
10.3533
9.88175
9.43037
8.99851
8.58552
8.19074
7.81353
7.45325
7.10927
6.781
6.46781
6.16914
5.88439
5.61301
5.35445
5.10817
4.87365
4.65039
4.43789
4.23568
4.04332
3.86036
3.68639
3.52101
3.36383
3.2145
3.07265
2.93796
2.81012
2.68881
2.57375
2.46467
2.36129
2.26337
2.17065
2.08291
1.9999
1.92142
1.84723
1.77714
1.71095
1.64844
1.58943
1.53374
1.48116
1.43154
1.38469
1.34044
1.29863
1.25909
1.22166
1.1862
1.15256
1.12058
1.09013
1.06108
1.03329
1.00665
0.981031
0.956325
0.932426
0.909237
0.886669
0.86464
0.843075
0.82191
0.801087
0.780559
0.760286
0.740238
0.72039
0.700728
0.681244
0.661936
0.642808
0.623868
0.605131
0.586613
0.568333
0.550312
0.532572
0.515134
0.498022
0.481254
0.464852
0.448832
0.433209
0.417998
0.403207
0.388847
0.374921
0.361433
0.348385
0.335773
0.323596
0.311846
0.300518
0.289603
0.279091
0.268971
0.259232
0.249862
0.240847
0.232175
0.223832
0.215806
0.208084
0.200651
0.193496
0.186606
0.179969
0.173573
0.167407
0.161461
0.155722
0.150183
0.144833
0.139663
0.134665
0.129831
0.125153
0.120624
0.116236
0.111984
0.107862
0.103864
0.0999834
0.0962166
0.0925584
0.0890043
0.0855501
0.0821919
0.078926
0.0757489
0.0726573
0.0696481
0.0667186
0.0638659
0.0610875
0.058381
0.0557442
0.053175
0.0506713
0.0482314
0.0458534
0.0435357
0.0412768
0.0390753
0.0369297
0.0348389
0.0328016
0.0308168
0.0288835
0.0270008
0.0251677
0.0233837
0.0216479
0.0199597
0.0183187
0.0167243
0.0151761
0.0136738
0.012217
0.0108055
0.00943904
0.00811749
0.00684067
0.00560845
0.00442071
0.00327734
0.00217823
0.00112328
0.000112364
-0.000854641
-0.00177789
-0.00265754
-0.0034938
-0.0042869
-0.00503708
-0.00574467
-0.00641001
-0.0070335
-0.00761561
-0.00815686
-0.00865786
-0.00911929
-0.00954194
-0.00992667
-0.0102744
-0.0105863
-0.0108635
-0.0111071
-0.0113185
-0.011499
-0.01165
-0.0117728
-0.0118688
-0.0119391
-0.0119852
-0.012008
-0.0120088
-0.0119885
-0.0119481
-0.0118886
-0.0118111
-0.0117164
-0.0116058
-0.0114802
-0.011341
-0.0111893
-0.0110265
-0.0108539
-0.0106728
-0.0104847
-0.0102909
-0.0100927
-0.00989136
-0.00968802
-0.00948377
-0.00927962
-0.00907646
-0.00887507
-0.00867616
-0.0084803
-0.00828801
-0.0080997
-0.00791569
-0.00773624
-0.00756155
-0.00739175
-0.00722691
-0.00706708
-0.00691224
-0.00676235
-0.00661736
-0.00647717
-0.00634168
-0.00621076
-0.00608427
-0.00596208
-0.00584404
-0.00572999
-0.00561978
-0.00551325
-0.00541025
-0.00531063
-0.00521424
-0.00512093
-0.00503055
-0.00494298
-0.00485808
-0.00477571
-0.00469576
-0.00461811
-0.00454264
-0.00446925
-0.00439783
-0.00432828
-0.00426051
-0.00419443
-0.00412996
-0.00406702
-0.00400553
-0.00394541
-0.00388661
-0.00382906
-0.00377268
-0.00371744
-0.00366327
-0.00361012
-0.00355794
-0.00350668
-0.00345631
-0.00340679
-0.00335806
-0.0033101
-0.00326287
-0.00321634
-0.00317047
-0.00312524
-0.00308062
-0.00303659
-0.00299313
-0.0029502
-0.00290779
-0.00286587
-0.00282444
-0.00278346
-0.00274292
-0.00270281
-0.00266311
-0.00262382
-0.0025849
-0.00254636
-0.00250817
-0.00247033
-0.00243282
-0.00239564
-0.00235877
-0.0023222
-0.00228593
-0.00224995
-0.00221426
-0.00217883
-0.00214367
-0.00210877
-0.00207411
-0.00203971
-0.00200554
-0.0019716
-0.00193789
-0.00190439
-0.00187112
-0.00183805
-0.00180519
-0.00177253
-0.00174006
-0.00170779
-0.00167571
-0.00164381
-0.00161209
-0.00158054
-0.00154917
-0.00151796
-0.00148691
-0.00145603
-0.0014253
-0.00139472
-0.0013643
-0.00133402
-0.00130388
-0.00127388
-0.00124402
-0.00121429
-0.00118469
-0.00115521
-0.00112586
-0.00109664
-0.00106752
-0.00103853
-0.00100964
-0.000980866
-0.000952196
-0.000923628
-0.000895159
-0.000866783
-0.000838499
-0.000810305
-0.000782197
-0.000754174
-0.000726233
-0.000698371
-0.000670587
-0.000642876
-0.000615236
-0.000587664
-0.000560156
-0.000532707
-0.000505317
-0.000477981
-0.000450698
-0.000423465
-0.000396281
-0.000369142
-0.000342045
-0.000314987
-0.000287964
-0.000260973
-0.00023401
-0.000207074
-0.000180156
-0.000153272
-0.000126355
-9.96091e-05
-7.2245e-05
-4.64888e-05
-1.19292e-05
58.8733
57.8696
58.3998
56.1893
48.7103
37.758
29.0353
23.6604
20.3104
18.0638
16.6384
15.8297
15.4965
15.5938
16.1018
16.9897
18.2177
19.7397
21.5037
23.4506
25.5157
27.6264
29.6979
31.6289
33.3188
34.7203
35.8592
36.7638
37.4357
37.8815
38.1384
38.2471
38.2327
38.1165
37.9141
37.6313
37.272
36.84
36.34
35.7785
35.1625
34.4985
33.7916
33.0464
32.2669
31.4568
30.6199
29.7603
28.8822
27.9898
27.0878
26.1806
25.2726
24.3682
23.4711
22.5849
21.7129
20.8576
20.0212
19.2056
18.4122
17.642
16.8958
16.174
15.477
14.8046
14.1569
13.5335
12.9341
12.3582
11.8053
11.2749
10.7662
10.2787
9.81169
9.36459
8.93672
8.52744
8.13611
7.76212
7.40485
7.06368
6.73803
6.42731
6.13094
5.84836
5.57902
5.32237
5.07789
4.84506
4.62338
4.41237
4.21157
4.02053
3.8388
3.66599
3.5017
3.34554
3.19717
3.05622
2.92238
2.79533
2.67478
2.56043
2.45202
2.34928
2.25196
2.15982
2.07262
1.99014
1.91216
1.83846
1.76884
1.70309
1.64102
1.58243
1.52714
1.47496
1.42571
1.37923
1.33534
1.29387
1.25467
1.21757
1.18242
1.14908
1.11739
1.08722
1.05844
1.03091
1.00451
0.979122
0.954631
0.930933
0.907929
0.88553
0.863652
0.842222
0.821174
0.800451
0.780005
0.759798
0.739798
0.719984
0.700342
0.680864
0.66155
0.642406
0.623443
0.604675
0.58612
0.567801
0.549738
0.531955
0.514476
0.497323
0.480518
0.464082
0.448032
0.432384
0.417152
0.402346
0.387975
0.374043
0.360554
0.347509
0.334905
0.322738
0.311003
0.299692
0.288796
0.278306
0.268209
0.258494
0.249149
0.24016
0.231515
0.223199
0.215199
0.207502
0.200095
0.192965
0.186099
0.179486
0.173112
0.166968
0.161042
0.155324
0.149803
0.144471
0.139319
0.134337
0.129518
0.124855
0.120339
0.115964
0.111725
0.107614
0.103626
0.0997562
0.0959989
0.0923496
0.0888039
0.0853577
0.0820069
0.078748
0.0755774
0.072492
0.0694886
0.0665645
0.0637169
0.0609433
0.0582413
0.0556087
0.0530435
0.0505436
0.0481072
0.0457325
0.0434179
0.0411619
0.0389631
0.03682
0.0347315
0.0326965
0.0307137
0.0287822
0.0269011
0.0250697
0.023287
0.0215524
0.0198654
0.0182253
0.0166318
0.0150843
0.0135826
0.0121263
0.0107153
0.00934924
0.00802801
0.00675148
0.0055195
0.00433199
0.00318884
0.00208996
0.00103525
2.46002e-05
-0.000942106
-0.00186501
-0.00274427
-0.00358007
-0.00437264
-0.00512221
-0.0058291
-0.00649363
-0.00711619
-0.00769723
-0.00823726
-0.00873688
-0.00919676
-0.00961766
-0.0100005
-0.0103461
-0.0106557
-0.0109304
-0.0111715
-0.0113803
-0.0115581
-0.0117064
-0.0118266
-0.01192
-0.011988
-0.0120317
-0.0120524
-0.012051
-0.0120287
-0.0119863
-0.0119248
-0.0118452
-0.0117484
-0.0116354
-0.0115075
-0.0113658
-0.0112115
-0.011046
-0.0108707
-0.0106869
-0.0104962
-0.0102998
-0.0100991
-0.00989546
-0.00968996
-0.00948375
-0.00927782
-0.00907307
-0.0088703
-0.00867019
-0.00847333
-0.00828021
-0.00809122
-0.00790668
-0.00772684
-0.00755188
-0.0073819
-0.00721699
-0.00705715
-0.00690238
-0.00675262
-0.0066078
-0.00646782
-0.00633256
-0.0062019
-0.0060757
-0.0059538
-0.00583606
-0.00572232
-0.00561241
-0.00550619
-0.00540349
-0.00530417
-0.00520807
-0.00511504
-0.00502494
-0.00493764
-0.00485299
-0.00477087
-0.00469116
-0.00461373
-0.00453848
-0.0044653
-0.00439407
-0.00432471
-0.00425712
-0.00419121
-0.0041269
-0.00406411
-0.00400277
-0.00394279
-0.00388412
-0.00382668
-0.00377043
-0.00371529
-0.00366122
-0.00360817
-0.00355608
-0.00350492
-0.00345463
-0.00340518
-0.00335653
-0.00330863
-0.00326147
-0.00321499
-0.00316919
-0.00312401
-0.00307945
-0.00303547
-0.00299205
-0.00294916
-0.00290679
-0.00286492
-0.00282351
-0.00278257
-0.00274207
-0.00270199
-0.00266232
-0.00262305
-0.00258416
-0.00254564
-0.00250748
-0.00246966
-0.00243217
-0.00239501
-0.00235816
-0.00232161
-0.00228536
-0.0022494
-0.00221371
-0.0021783
-0.00214315
-0.00210826
-0.00207362
-0.00203923
-0.00200507
-0.00197115
-0.00193744
-0.00190396
-0.00187069
-0.00183764
-0.00180478
-0.00177213
-0.00173968
-0.00170742
-0.00167534
-0.00164345
-0.00161174
-0.0015802
-0.00154883
-0.00151763
-0.00148659
-0.00145571
-0.00142499
-0.00139443
-0.00136401
-0.00133374
-0.0013036
-0.00127361
-0.00124375
-0.00121403
-0.00118443
-0.00115497
-0.00112562
-0.0010964
-0.00106729
-0.0010383
-0.00100943
-0.000980656
-0.000951992
-0.00092343
-0.000894966
-0.000866596
-0.000838319
-0.00081013
-0.000782029
-0.000754011
-0.000726076
-0.00069822
-0.000670442
-0.000642737
-0.000615104
-0.000587537
-0.000560035
-0.000532592
-0.000505207
-0.000477877
-0.0004506
-0.000423373
-0.000396195
-0.000369062
-0.000341972
-0.00031492
-0.000287903
-0.000260917
-0.00023396
-0.00020703
-0.000180118
-0.000153239
-0.000126329
-9.95878e-05
-7.22295e-05
-4.64785e-05
-1.1927e-05
58.1348
57.1763
55.8783
51.1095
40.7414
27.8951
20.3731
17.384
15.9206
14.7701
14.0107
13.5907
13.4309
13.5745
14.0666
14.9105
16.0846
17.5552
19.2794
21.2083
23.2885
25.4589
27.6373
29.6951
31.4618
32.8634
34.0051
34.9529
35.6728
36.1363
36.4096
36.5561
36.5926
36.542
36.4196
36.2223
35.9482
35.5979
35.1747
34.6866
34.1421
33.5478
32.9087
32.2285
31.5103
30.7572
29.9727
29.1608
28.3257
27.4722
26.605
25.7293
24.8498
23.9714
23.0982
22.2343
21.3831
20.5473
19.7294
18.9313
18.1544
17.3999
16.6685
15.9608
15.2769
14.6171
13.9811
13.3688
12.7798
12.2137
11.6699
11.1479
10.6472
10.167
9.70694
9.26625
8.84434
8.4406
8.05444
7.68526
7.33248
6.99551
6.67378
6.36674
6.07382
5.79448
5.52818
5.27439
5.03259
4.80229
4.58299
4.37421
4.17551
3.98643
3.80656
3.63548
3.47281
3.31818
3.17124
3.03164
2.89906
2.77321
2.65377
2.54049
2.43308
2.33129
2.23487
2.14359
2.05721
1.97552
1.89829
1.82532
1.7564
1.69132
1.6299
1.57194
1.51725
1.46566
1.41699
1.37106
1.3277
1.28675
1.24805
1.21143
1.17676
1.14387
1.11262
1.08288
1.0545
1.02735
1.00132
0.976276
0.952109
0.928713
0.905988
0.883842
0.862193
0.840965
0.820092
0.799518
0.779195
0.759085
0.739158
0.719393
0.699778
0.680308
0.660984
0.641814
0.622813
0.603997
0.585386
0.567005
0.548877
0.531029
0.513486
0.496272
0.47941
0.462922
0.446827
0.43114
0.415877
0.401048
0.38666
0.37272
0.35923
0.34619
0.333597
0.321447
0.309734
0.298449
0.287583
0.277125
0.267064
0.257386
0.24808
0.23913
0.230524
0.222248
0.214288
0.20663
0.199262
0.192169
0.18534
0.178761
0.172422
0.166311
0.160416
0.154727
0.149235
0.14393
0.138803
0.133846
0.12905
0.124408
0.119913
0.115558
0.111336
0.107242
0.103271
0.099416
0.095673
0.0920371
0.088504
0.0850696
0.0817299
0.0784814
0.0753207
0.0722444
0.0692497
0.0663337
0.0634937
0.0607273
0.0580321
0.0554059
0.0528466
0.0503523
0.0479211
0.0455514
0.0432414
0.0409898
0.038795
0.0366557
0.0345707
0.0325389
0.0305591
0.0286304
0.0267519
0.0249227
0.0231421
0.0214094
0.019724
0.0180854
0.0164931
0.0149467
0.0134459
0.0119905
0.0105801
0.0092146
0.00789385
0.00661772
0.0053861
0.00419892
0.00305609
0.00195754
0.000903175
-0.000107087
-0.00107336
-0.00199575
-0.00287443
-0.00370957
-0.00450135
-0.00525003
-0.00595588
-0.00661921
-0.00724039
-0.00781985
-0.00835807
-0.00885563
-0.00931318
-0.00973147
-0.0101114
-0.0104538
-0.01076
-0.011031
-0.0112682
-0.011473
-0.0116468
-0.011791
-0.0119072
-0.0119968
-0.0120611
-0.0121014
-0.0121188
-0.0121143
-0.0120889
-0.0120436
-0.0119791
-0.0118964
-0.0117964
-0.0116801
-0.0115486
-0.0114031
-0.0112448
-0.0110753
-0.0108959
-0.0107081
-0.0105133
-0.010313
-0.0101086
-0.00990141
-0.00969266
-0.00948347
-0.00927487
-0.00906775
-0.00886291
-0.00866102
-0.00846266
-0.0082683
-0.00807831
-0.007893
-0.00771259
-0.00753723
-0.00736702
-0.007202
-0.00704218
-0.00688752
-0.00673796
-0.0065934
-0.00645375
-0.00631886
-0.0061886
-0.00606282
-0.00594137
-0.00582409
-0.0057108
-0.00560136
-0.0054956
-0.00539336
-0.00529449
-0.00519883
-0.00510622
-0.00501654
-0.00492963
-0.00484537
-0.00476362
-0.00468427
-0.00460718
-0.00453225
-0.00445938
-0.00438845
-0.00431937
-0.00425205
-0.00418639
-0.00412232
-0.00405976
-0.00399863
-0.00393886
-0.00388038
-0.00382313
-0.00376705
-0.00371208
-0.00365816
-0.00360526
-0.00355331
-0.00350227
-0.00345211
-0.00340277
-0.00335423
-0.00330644
-0.00325937
-0.00321299
-0.00316727
-0.00312218
-0.00307769
-0.00303378
-0.00299043
-0.00294761
-0.0029053
-0.00286348
-0.00282213
-0.00278124
-0.00274079
-0.00270076
-0.00266113
-0.0026219
-0.00258305
-0.00254457
-0.00250644
-0.00246866
-0.0024312
-0.00239407
-0.00235724
-0.00232072
-0.0022845
-0.00224856
-0.0022129
-0.00217751
-0.00214238
-0.00210751
-0.00207289
-0.00203852
-0.00200438
-0.00197047
-0.00193678
-0.00190331
-0.00187006
-0.00183702
-0.00180418
-0.00177155
-0.00173911
-0.00170686
-0.0016748
-0.00164292
-0.00161121
-0.00157969
-0.00154833
-0.00151714
-0.00148611
-0.00145525
-0.00142454
-0.00139398
-0.00136357
-0.00133331
-0.00130319
-0.0012732
-0.00124335
-0.00121364
-0.00118406
-0.0011546
-0.00112526
-0.00109605
-0.00106695
-0.00103797
-0.0010091
-0.000980341
-0.000951686
-0.000923133
-0.000894677
-0.000866317
-0.000838048
-0.000809868
-0.000781775
-0.000753767
-0.00072584
-0.000697994
-0.000670224
-0.000642529
-0.000614905
-0.000587347
-0.000559853
-0.000532419
-0.000505043
-0.000477722
-0.000450454
-0.000423236
-0.000396067
-0.000368943
-0.000341861
-0.000314818
-0.00028781
-0.000260834
-0.000233886
-0.000206964
-0.00018006
-0.00015319
-0.000126288
-9.95558e-05
-7.22062e-05
-4.6463e-05
-1.19235e-05
57.6439
61.0527
57.5559
45.2646
21.1992
4.55868
5.40849
9.07593
10.6763
10.8561
10.8138
10.7164
10.6324
10.7555
11.1904
11.9586
13.0482
14.4345
16.0879
17.9788
20.0801
22.3601
24.7557
27.0888
28.998
30.3251
31.423
32.4507
33.2769
33.7626
34.0576
34.2708
34.3796
34.4205
34.4145
34.3382
34.1827
33.9429
33.6204
33.229
32.7798
32.2798
31.7329
31.141
30.5059
29.8297
29.1156
28.3673
27.5895
26.7872
25.9661
25.1317
24.2896
23.4453
22.6036
21.769
20.9452
20.1353
19.3419
18.5669
17.812
17.0783
16.3667
15.6776
15.0114
14.3682
13.7479
13.1503
12.5751
12.0219
11.4902
10.9795
10.4893
10.019
9.56805
9.13584
8.72182
8.32543
7.94611
7.5833
7.23645
6.90504
6.58851
6.28634
5.998
5.72295
5.46068
5.21069
4.97246
4.74551
4.52936
4.32355
4.12762
3.94116
3.76374
3.59496
3.43446
3.28185
3.13681
2.99899
2.8681
2.74382
2.62587
2.51399
2.40791
2.30737
2.21216
2.12202
2.03673
1.95608
1.87986
1.80785
1.73985
1.67567
1.61511
1.55798
1.50411
1.4533
1.40538
1.36019
1.31754
1.27728
1.23925
1.20328
1.16923
1.13695
1.10629
1.07711
1.04927
1.02264
0.997095
0.972514
0.948782
0.92579
0.903438
0.881632
0.860288
0.839329
0.818691
0.798316
0.778155
0.758173
0.738341
0.718639
0.699057
0.679593
0.660252
0.641046
0.621989
0.603104
0.584415
0.565948
0.547732
0.529794
0.512162
0.494864
0.477924
0.461366
0.445209
0.429471
0.414166
0.399305
0.384897
0.370946
0.357455
0.344422
0.331845
0.319719
0.308036
0.296786
0.285961
0.275548
0.265534
0.255907
0.246652
0.237756
0.229203
0.220981
0.213074
0.205469
0.198152
0.19111
0.184329
0.177798
0.171504
0.165436
0.159583
0.153934
0.14848
0.143211
0.138118
0.133193
0.128428
0.123814
0.119346
0.115017
0.11082
0.106749
0.102799
0.0989639
0.0952398
0.0916217
0.0881053
0.0846866
0.0813617
0.078127
0.0749793
0.0719153
0.068932
0.0660268
0.063197
0.0604401
0.0577538
0.055136
0.0525847
0.0500978
0.0476736
0.0453104
0.0430066
0.0407607
0.0385713
0.036437
0.0343567
0.0323292
0.0303534
0.0284284
0.0265532
0.0247271
0.0229492
0.021219
0.0195358
0.0178991
0.0163085
0.0147635
0.013264
0.0118095
0.0104
0.00903523
0.00771508
0.00643946
0.00520829
0.00402152
0.00287909
0.00178094
0.000727023
-0.000282746
-0.00124845
-0.0021702
-0.00304813
-0.00388239
-0.00467317
-0.00542068
-0.00612517
-0.00678694
-0.00740631
-0.00798369
-0.00851953
-0.00901437
-0.00946883
-0.00988365
-0.0102597
-0.0105979
-0.0108994
-0.0111654
-0.0113974
-0.0115967
-0.011765
-0.0119037
-0.0120146
-0.012099
-0.0121583
-0.012194
-0.012207
-0.0121985
-0.0121692
-0.01212
-0.0120517
-0.0119649
-0.0118607
-0.0117399
-0.0116036
-0.011453
-0.0112895
-0.0111145
-0.0109295
-0.0107361
-0.0105359
-0.0103303
-0.0101209
-0.00990894
-0.00969582
-0.00948265
-0.00927047
-0.00906019
-0.0088526
-0.00864836
-0.00844803
-0.00825205
-0.00806077
-0.00787446
-0.00769332
-0.00751746
-0.00734696
-0.00718183
-0.00702206
-0.00686758
-0.0067183
-0.00657412
-0.00643492
-0.00630053
-0.00617082
-0.00604563
-0.00592478
-0.00580811
-0.00569545
-0.00558664
-0.0054815
-0.00537987
-0.0052816
-0.00518652
-0.00509449
-0.00500536
-0.00491899
-0.00483524
-0.00475398
-0.0046751
-0.00459847
-0.00452397
-0.00445151
-0.00438097
-0.00431227
-0.0042453
-0.00417999
-0.00411624
-0.00405398
-0.00399314
-0.00393364
-0.00387542
-0.00381841
-0.00376256
-0.0037078
-0.0036541
-0.00360138
-0.00354962
-0.00349876
-0.00344875
-0.00339957
-0.00335117
-0.00330352
-0.00325658
-0.00321032
-0.00316472
-0.00311973
-0.00307535
-0.00303154
-0.00298828
-0.00294555
-0.00290332
-0.00286158
-0.0028203
-0.00277948
-0.00273909
-0.00269912
-0.00265955
-0.00262038
-0.00258158
-0.00254315
-0.00250506
-0.00246732
-0.00242991
-0.00239281
-0.00235603
-0.00231955
-0.00228335
-0.00224745
-0.00221182
-0.00217645
-0.00214136
-0.00210651
-0.00207192
-0.00203756
-0.00200345
-0.00196956
-0.0019359
-0.00190245
-0.00186922
-0.0018362
-0.00180338
-0.00177077
-0.00173834
-0.00170611
-0.00167407
-0.0016422
-0.00161052
-0.001579
-0.00154766
-0.00151649
-0.00148547
-0.00145462
-0.00142392
-0.00139338
-0.00136299
-0.00133274
-0.00130263
-0.00127266
-0.00124282
-0.00121312
-0.00118355
-0.0011541
-0.00112478
-0.00109558
-0.0010665
-0.00103753
-0.00100867
-0.000979921
-0.000951278
-0.000922736
-0.000894292
-0.000865944
-0.000837687
-0.000809519
-0.000781438
-0.000753441
-0.000725527
-0.000697692
-0.000669935
-0.000642252
-0.00061464
-0.000587094
-0.000559611
-0.000532189
-0.000504825
-0.000477515
-0.000450259
-0.000423053
-0.000395896
-0.000368784
-0.000341714
-0.000314683
-0.000287687
-0.000260722
-0.000233786
-0.000206875
-0.000179983
-0.000153125
-0.000126234
-9.9513e-05
-7.21751e-05
-4.64424e-05
-1.1919e-05
54.9738
65.6949
58.5955
30.0718
-0.884682
-26.9252
-14.6376
0.596363
5.95324
6.76122
7.18435
7.31699
7.19706
7.19115
7.47465
8.08279
9.00551
10.2204
11.7062
13.4471
15.4417
17.735
20.418
23.4192
25.8123
26.9471
27.9811
29.2489
30.3003
30.7054
30.9872
31.3317
31.5452
31.7178
31.8869
31.9781
31.9806
31.8794
31.6768
31.4028
31.0727
30.6926
30.2643
29.7861
29.2572
28.6788
28.0533
27.3847
26.6781
25.9392
25.1746
24.3908
23.5945
22.7919
21.9888
21.1903
20.4003
19.6225
18.8595
18.1135
17.386
16.6783
15.9912
15.3254
14.6812
14.0587
13.458
12.8787
12.3208
11.7837
11.2671
10.7704
10.2933
9.83522
9.39559
8.97391
8.56968
8.18239
7.81154
7.45662
7.11715
6.79262
6.48254
6.18641
5.90374
5.63402
5.37677
5.13148
4.89769
4.67491
4.46268
4.26055
4.06809
3.88487
3.7105
3.54458
3.38676
3.23667
3.09398
2.95839
2.82957
2.70725
2.59115
2.48101
2.37657
2.2776
2.18387
2.09515
2.01121
1.93186
1.85688
1.78607
1.71923
1.65616
1.59668
1.5406
1.48773
1.43789
1.39092
1.34664
1.30489
1.26549
1.22829
1.19313
1.15987
1.12835
1.09842
1.06994
1.04278
1.01679
0.991865
0.967866
0.94468
0.922196
0.900312
0.878932
0.857971
0.837352
0.817007
0.796878
0.77692
0.757095
0.737378
0.71775
0.698206
0.678745
0.659377
0.640116
0.620985
0.602008
0.583215
0.564635
0.546302
0.528246
0.5105
0.493093
0.476053
0.459404
0.443169
0.427365
0.412007
0.397108
0.382674
0.36871
0.355218
0.342197
0.329641
0.317546
0.305902
0.294699
0.283926
0.27357
0.263617
0.254054
0.244865
0.236036
0.227552
0.219397
0.211558
0.204019
0.196767
0.189788
0.183069
0.176597
0.17036
0.164346
0.158545
0.152946
0.147539
0.142315
0.137265
0.13238
0.127653
0.123076
0.118642
0.114344
0.110177
0.106134
0.102211
0.098401
0.0947004
0.0911045
0.0876089
0.0842096
0.0809031
0.0776856
0.074554
0.0715052
0.0685362
0.0656444
0.0628272
0.0600821
0.057407
0.0547996
0.0522581
0.0497805
0.047365
0.0450099
0.0427138
0.040475
0.0382923
0.0361643
0.0340898
0.0320677
0.0300969
0.0281765
0.0263055
0.0244832
0.0227087
0.0209815
0.019301
0.0176667
0.0160781
0.0145349
0.0130369
0.0115837
0.0101752
0.00881123
0.00749178
0.00621675
0.0049861
0.0037998
0.00265782
0.00156015
0.000506744
-0.000502445
-0.00146748
-0.00238846
-0.00326548
-0.00409869
-0.00488825
-0.00563434
-0.00633718
-0.00699705
-0.00761423
-0.00818907
-0.00872199
-0.00921348
-0.00966412
-0.0100746
-0.0104458
-0.0107786
-0.0110742
-0.0113339
-0.0115592
-0.0117515
-0.0119127
-0.0120444
-0.0121484
-0.0122262
-0.0122794
-0.0123093
-0.012317
-0.0123035
-0.0122694
-0.0122156
-0.0121426
-0.0120509
-0.0119415
-0.0118151
-0.0116728
-0.0115158
-0.0113456
-0.0111636
-0.0109715
-0.010771
-0.0105638
-0.0103515
-0.0101356
-0.00991773
-0.00969908
-0.00948089
-0.00926422
-0.00905
-0.00883899
-0.00863184
-0.00842908
-0.00823112
-0.00803828
-0.00785078
-0.00766878
-0.00749236
-0.00732155
-0.00715633
-0.00699666
-0.00684244
-0.00669356
-0.00654988
-0.00641126
-0.00627753
-0.00614853
-0.00602408
-0.005904
-0.00578812
-0.00567626
-0.00556823
-0.00546388
-0.00536302
-0.00526551
-0.00517117
-0.00507985
-0.00499141
-0.00490571
-0.0048226
-0.00474197
-0.00466368
-0.00458761
-0.00451366
-0.00444171
-0.00437167
-0.00430343
-0.0042369
-0.00417201
-0.00410866
-0.00404678
-0.0039863
-0.00392714
-0.00386924
-0.00381253
-0.00375697
-0.00370249
-0.00364903
-0.00359656
-0.00354503
-0.00349438
-0.00344458
-0.00339559
-0.00334737
-0.00329989
-0.00325311
-0.003207
-0.00316154
-0.00311669
-0.00307244
-0.00302875
-0.0029856
-0.00294297
-0.00290085
-0.0028592
-0.00281802
-0.00277728
-0.00273697
-0.00269707
-0.00265758
-0.00261848
-0.00257974
-0.00254137
-0.00250334
-0.00246566
-0.00242829
-0.00239125
-0.00235451
-0.00231808
-0.00228193
-0.00224606
-0.00221046
-0.00217514
-0.00214007
-0.00210526
-0.0020707
-0.00203638
-0.00200229
-0.00196843
-0.00193479
-0.00190138
-0.00186817
-0.00183518
-0.00180238
-0.00176979
-0.00173739
-0.00170518
-0.00167316
-0.00164131
-0.00160965
-0.00157815
-0.00154683
-0.00151567
-0.00148468
-0.00145384
-0.00142316
-0.00139263
-0.00136226
-0.00133202
-0.00130193
-0.00127198
-0.00124216
-0.00121247
-0.00118292
-0.00115349
-0.00112418
-0.00109499
-0.00106593
-0.00103697
-0.00100813
-0.000979396
-0.000950767
-0.00092224
-0.000893811
-0.000865477
-0.000837235
-0.000809082
-0.000781016
-0.000753034
-0.000725135
-0.000697316
-0.000669574
-0.000641906
-0.000614308
-0.000586777
-0.000559309
-0.000531901
-0.000504552
-0.000477257
-0.000450015
-0.000422825
-0.000395682
-0.000368584
-0.000341529
-0.000314513
-0.000287532
-0.000260582
-0.00023366
-0.000206764
-0.000179886
-0.000153042
-0.000126166
-9.94592e-05
-7.21358e-05
-4.64163e-05
-1.19132e-05
45.7025
56.94
21.7728
5.81614
2.51052
-24.6216
-39.7061
-7.74348
8.00164
8.18306
6.71998
5.48651
4.7635
4.58595
4.8568
5.45895
6.30198
7.31823
8.50962
9.9365
11.6159
13.5725
16.1488
19.9086
22.9286
22.8121
23.2519
25.0004
26.8638
26.9691
27.1471
27.7478
28.0236
28.3555
28.8004
29.1291
29.3506
29.4157
29.3399
29.201
29.0153
28.7845
28.505
28.1681
27.7703
27.3113
26.793
26.2201
25.5981
24.9341
24.2357
23.511
22.7679
22.0141
21.2562
20.5
19.7502
19.0105
18.2838
17.5722
16.8775
16.201
15.5434
14.9055
14.2876
13.69
13.1126
12.5553
12.0179
11.5
11.0014
10.5216
10.0601
9.61651
9.19036
8.78121
8.38861
8.01212
7.65132
7.30577
6.97504
6.65868
6.35626
6.06731
5.79139
5.52802
5.27673
5.03707
4.80856
4.59075
4.38319
4.18546
3.99712
3.81777
3.64703
3.48452
3.32989
3.18279
3.04292
2.90995
2.78361
2.66362
2.54971
2.44164
2.33916
2.24205
2.15008
2.06304
1.98072
1.90291
1.82942
1.76004
1.69457
1.63284
1.57464
1.5198
1.46814
1.41947
1.37363
1.33045
1.28976
1.25139
1.2152
1.18101
1.14869
1.11808
1.08903
1.0614
1.03505
1.00985
0.985664
0.962367
0.93984
0.917971
0.896652
0.875788
0.855289
0.835077
0.815084
0.795252
0.775534
0.755895
0.73631
0.716765
0.697258
0.677792
0.658382
0.639049
0.619818
0.600721
0.581793
0.563069
0.544587
0.526384
0.508494
0.490951
0.473786
0.457026
0.440694
0.42481
0.409389
0.394442
0.379978
0.366001
0.35251
0.339504
0.326976
0.31492
0.303326
0.292181
0.281473
0.271188
0.261311
0.251826
0.242718
0.233972
0.22557
0.217499
0.209741
0.202283
0.195109
0.188206
0.181561
0.17516
0.168991
0.163043
0.157305
0.151766
0.146416
0.141245
0.136246
0.131409
0.126728
0.122193
0.1178
0.11354
0.109409
0.1054
0.101509
0.0977288
0.0940563
0.0904867
0.0870159
0.0836399
0.0803552
0.0771582
0.0740459
0.0710151
0.0680632
0.0651873
0.0623851
0.0596541
0.0569922
0.0543974
0.0518675
0.0494009
0.0469958
0.0446505
0.0423634
0.0401333