/*--------------------------------*- C++ -*----------------------------------*\
| =========                 |                                                 |
| \\      /  F ield         | OpenFOAM: The Open Source CFD Toolbox           |
|  \\    /   O peration     | Version:  v2006                                 |
|   \\  /    A nd           | Website:  www.openfoam.com                      |
|    \\/     M anipulation  |                                                 |
\*---------------------------------------------------------------------------*/
FoamFile
{
    version     2.0;
    format      ascii;
    class       volVectorField;
    location    "16.9";
    object      U;
}
// * * * * * * * * * * * * * * * * * * * * * * * * * * * * * * * * * * * * * //

dimensions      [0 1 -1 0 0 0 0];


internalField   nonuniform List<vector> 
50000
(
(-0.0015916 0.00105518 0)
(-0.00205402 -0.000539468 0)
(-0.00149904 -0.00079872 0)
(-0.00147615 -0.000590777 0)
(-0.00176904 -0.000317277 0)
(-0.00240763 -0.000122632 0)
(-0.00319424 -1.51806e-05 0)
(-0.00404904 3.59074e-05 0)
(-0.00495088 6.06627e-05 0)
(-0.0058998 7.9847e-05 0)
(-0.00689737 0.000102298 0)
(-0.00794603 0.000128828 0)
(-0.0090466 0.00015753 0)
(-0.0101968 0.00018649 0)
(-0.011393 0.000214403 0)
(-0.0126301 0.000240099 0)
(-0.0139021 0.000263629 0)
(-0.0152036 0.000284281 0)
(-0.0165274 0.000303 0)
(-0.0178657 0.000319381 0)
(-0.0192118 0.000333073 0)
(-0.0205571 0.000344198 0)
(-0.0218949 0.000352913 0)
(-0.0232179 0.000360832 0)
(-0.024516 0.000367789 0)
(-0.0257848 0.000372645 0)
(-0.0270216 0.000377097 0)
(-0.0282179 0.000383178 0)
(-0.0293687 0.000391013 0)
(-0.030475 0.000401682 0)
(-0.0315302 0.000418191 0)
(-0.0325352 0.000441483 0)
(-0.0334908 0.000476292 0)
(-0.0344003 0.000524713 0)
(-0.0352748 0.000594728 0)
(-0.0361256 0.000691911 0)
(-0.0369714 0.000820588 0)
(-0.0378325 0.000981756 0)
(-0.0387219 0.00117679 0)
(-0.0396849 0.00139345 0)
(-0.0407209 0.00159121 0)
(-0.0418017 0.00172618 0)
(-0.0429071 0.00180186 0)
(-0.0440152 0.00183226 0)
(-0.0451042 0.00182253 0)
(-0.0461504 0.00176854 0)
(-0.047127 0.00167097 0)
(-0.0480078 0.00154123 0)
(-0.0487695 0.00138199 0)
(-0.0493895 0.00119469 0)
(-0.0498228 0.000976262 0)
(-0.0500512 0.000712693 0)
(-0.0500607 0.000439064 0)
(-0.049835 0.00017245 0)
(-0.0494002 -5.78864e-05 0)
(-0.0487772 -0.000251492 0)
(-0.0479955 -0.000411967 0)
(-0.0470601 -0.000548981 0)
(-0.045986 -0.000676856 0)
(-0.0447917 -0.000796811 0)
(-0.0434778 -0.000911539 0)
(-0.0420549 -0.00102292 0)
(-0.0405195 -0.00112229 0)
(-0.0388846 -0.00121878 0)
(-0.0371554 -0.00130759 0)
(-0.0353352 -0.00138979 0)
(-0.0334397 -0.00146583 0)
(-0.0314712 -0.00153559 0)
(-0.0294358 -0.00159733 0)
(-0.0273332 -0.00165462 0)
(-0.0251731 -0.00170535 0)
(-0.0229659 -0.00175 0)
(-0.0207158 -0.00178894 0)
(-0.0184242 -0.00182095 0)
(-0.0160976 -0.00184874 0)
(-0.0137456 -0.00187066 0)
(-0.0113711 -0.00188687 0)
(-0.00897966 -0.00189731 0)
(-0.00657694 -0.00190177 0)
(-0.00416844 -0.0018998 0)
(-0.00176027 -0.00189101 0)
(0.00064135 -0.00187481 0)
(0.00303007 -0.00185114 0)
(0.00539803 -0.0018197 0)
(0.00773836 -0.00178022 0)
(0.0100439 -0.00173297 0)
(0.0123052 -0.00167785 0)
(0.0145139 -0.00161354 0)
(0.0166619 -0.00153989 0)
(0.0187383 -0.0014565 0)
(0.0207314 -0.00136172 0)
(0.0226292 -0.00125319 0)
(0.0244165 -0.0011287 0)
(0.0260745 -0.000984937 0)
(0.0275818 -0.000815155 0)
(0.0289127 -0.000608601 0)
(0.0300304 -0.000348663 0)
(0.0308845 -2.50875e-05 0)
(0.031422 0.000347555 0)
(0.0316067 0.000726645 0)
(0.0314392 0.00105798 0)
(0.0309678 0.00131447 0)
(0.0302675 0.00149156 0)
(0.0294091 0.00161037 0)
(0.0284494 0.00170298 0)
(0.027436 0.00178763 0)
(0.026407 0.00186814 0)
(0.0253972 0.00192745 0)
(0.0244491 0.00193461 0)
(0.0236175 0.00186213 0)
(0.0229568 0.00169001 0)
(0.0225113 0.00142225 0)
(0.0223098 0.00111782 0)
(0.0223273 0.000853896 0)
(0.0224908 0.000669876 0)
(0.0227211 0.000556626 0)
(0.0229615 0.000483881 0)
(0.0231677 0.000423997 0)
(0.0233142 0.000363196 0)
(0.0233978 0.000292503 0)
(0.0234164 0.000217383 0)
(0.0233599 0.000148637 0)
(0.0232246 8.89724e-05 0)
(0.0230101 3.71515e-05 0)
(0.0227192 -9.74231e-06 0)
(0.0223526 -5.23581e-05 0)
(0.021914 -9.15385e-05 0)
(0.0214038 -0.000129079 0)
(0.0208243 -0.000163718 0)
(0.0201829 -0.000196297 0)
(0.0194813 -0.000226552 0)
(0.0187211 -0.000255102 0)
(0.0179055 -0.000283169 0)
(0.0170393 -0.000310964 0)
(0.0161277 -0.000338668 0)
(0.0151754 -0.000365647 0)
(0.0141878 -0.000391706 0)
(0.0131712 -0.000418258 0)
(0.0121325 -0.000444823 0)
(0.0110781 -0.000470689 0)
(0.0100138 -0.000495173 0)
(0.00894556 -0.000519779 0)
(0.00787941 -0.000548491 0)
(0.0068227 -0.000589908 0)
(0.00578585 -0.000647979 0)
(0.00478851 -0.000718127 0)
(0.0037906 -0.000771033 0)
(0.0028652 -0.000776807 0)
(0.00190732 -0.000601161 0)
(0.000943594 5.86e-05 0)
(-0.00165007 0.00400213 0)
(-0.00250596 0.000267261 0)
(-0.00235813 3.45626e-05 0)
(-0.00283091 0.000867553 0)
(-0.00370497 0.00163301 0)
(-0.00499711 0.00206494 0)
(-0.0064451 0.00226766 0)
(-0.00795524 0.00238417 0)
(-0.00951582 0.00248784 0)
(-0.0111364 0.00259958 0)
(-0.012829 0.00271718 0)
(-0.0146002 0.00283394 0)
(-0.0164484 0.00294516 0)
(-0.0183678 0.00304892 0)
(-0.0203525 0.00314226 0)
(-0.022394 0.00322243 0)
(-0.0244828 0.00328919 0)
(-0.026609 0.00334006 0)
(-0.0287606 0.00337301 0)
(-0.0309263 0.0033878 0)
(-0.033093 0.00338334 0)
(-0.0352473 0.00336035 0)
(-0.0373755 0.00331831 0)
(-0.0394651 0.0032574 0)
(-0.041504 0.00318003 0)
(-0.0434809 0.00308618 0)
(-0.0453842 0.00297814 0)
(-0.0472014 0.00285678 0)
(-0.0489232 0.0027214 0)
(-0.0505414 0.0025747 0)
(-0.0520435 0.00241935 0)
(-0.0534201 0.00225549 0)
(-0.0546612 0.00208758 0)
(-0.0557549 0.00192363 0)
(-0.0566916 0.00176751 0)
(-0.0574607 0.0016272 0)
(-0.0580528 0.00150539 0)
(-0.0584638 0.00140991 0)
(-0.0586944 0.00134553 0)
(-0.05871 0.00131013 0)
(-0.0585306 0.00128318 0)
(-0.0581964 0.00125223 0)
(-0.057739 0.00120856 0)
(-0.0571799 0.00115053 0)
(-0.05654 0.00107441 0)
(-0.0558428 0.000975521 0)
(-0.0550972 0.000847859 0)
(-0.0543161 0.00068672 0)
(-0.0535105 0.000487086 0)
(-0.0526843 0.000242529 0)
(-0.0518497 -4.86688e-05 0)
(-0.0509894 -0.000377239 0)
(-0.0501059 -0.000724676 0)
(-0.049203 -0.00106602 0)
(-0.0482527 -0.00139023 0)
(-0.0472412 -0.00168358 0)
(-0.0461565 -0.00195385 0)
(-0.0449934 -0.00219919 0)
(-0.043752 -0.00243338 0)
(-0.0424404 -0.00265654 0)
(-0.0410651 -0.00286472 0)
(-0.0396233 -0.00306159 0)
(-0.0381185 -0.00324346 0)
(-0.0365655 -0.00341699 0)
(-0.0349539 -0.00357621 0)
(-0.0332895 -0.00372777 0)
(-0.0315837 -0.00386776 0)
(-0.0298325 -0.00399699 0)
(-0.0280436 -0.00411412 0)
(-0.0262133 -0.00422008 0)
(-0.0243438 -0.00431967 0)
(-0.022446 -0.00440656 0)
(-0.0205189 -0.00448384 0)
(-0.0185643 -0.0045492 0)
(-0.0165855 -0.00460657 0)
(-0.0145858 -0.00465394 0)
(-0.0125674 -0.00469188 0)
(-0.010533 -0.00472049 0)
(-0.00848487 -0.00473968 0)
(-0.00642514 -0.00474909 0)
(-0.00435601 -0.00474846 0)
(-0.00228001 -0.00473691 0)
(-0.000199596 -0.00471383 0)
(0.00188221 -0.00467847 0)
(0.00396256 -0.00462954 0)
(0.00603804 -0.00456741 0)
(0.008105 -0.00449049 0)
(0.0101592 -0.00439712 0)
(0.0121955 -0.00428643 0)
(0.0142092 -0.00415665 0)
(0.016196 -0.00400517 0)
(0.0181503 -0.00382869 0)
(0.0200666 -0.00362388 0)
(0.0219414 -0.00338593 0)
(0.023771 -0.00310669 0)
(0.0255517 -0.00277454 0)
(0.0272853 -0.00237479 0)
(0.0289783 -0.00189798 0)
(0.0306326 -0.00135183 0)
(0.0322409 -0.0007688 0)
(0.0337808 -0.000202323 0)
(0.0352183 0.000297434 0)
(0.0365443 0.000687122 0)
(0.0377833 0.0009418 0)
(0.0389747 0.00105931 0)
(0.0401706 0.00105251 0)
(0.0414277 0.000942388 0)
(0.042782 0.000746511 0)
(0.0442466 0.000478941 0)
(0.0458149 0.000156013 0)
(0.0474519 -0.000197856 0)
(0.0491138 -0.000552398 0)
(0.0507375 -0.000871519 0)
(0.0522567 -0.00110935 0)
(0.0536337 -0.00123069 0)
(0.0548517 -0.00122853 0)
(0.0558995 -0.00111914 0)
(0.0567755 -0.000932196 0)
(0.0574806 -0.000698398 0)
(0.0580097 -0.000441674 0)
(0.0583541 -0.000172551 0)
(0.0585205 0.000101712 0)
(0.0585175 0.000374475 0)
(0.0583461 0.000641252 0)
(0.0580049 0.000899907 0)
(0.057494 0.00114971 0)
(0.0568134 0.00138995 0)
(0.0559643 0.00161985 0)
(0.0549479 0.00183772 0)
(0.0537649 0.00204448 0)
(0.0524164 0.00224319 0)
(0.050904 0.0024322 0)
(0.0492277 0.0026107 0)
(0.0473874 0.00277734 0)
(0.045385 0.00292989 0)
(0.0432245 0.00306672 0)
(0.0409112 0.0031859 0)
(0.0384519 0.00328679 0)
(0.0358542 0.00336946 0)
(0.0331276 0.00343324 0)
(0.0302842 0.0034789 0)
(0.0273367 0.00350768 0)
(0.0242956 0.00352183 0)
(0.02118 0.0035214 0)
(0.0179756 0.00351302 0)
(0.0147352 0.0034966 0)
(0.0113542 0.00348966 0)
(0.00804397 0.00341069 0)
(0.00463614 0.00331606 0)
(0.00187262 0.00392491 0)
(-0.00174915 0.00689825 0)
(-0.00250091 0.000451395 0)
(-0.00200646 -0.000178678 0)
(-0.00196182 0.0012629 0)
(-0.0023835 0.00277141 0)
(-0.00335128 0.00370186 0)
(-0.00458653 0.00413162 0)
(-0.00592019 0.00433433 0)
(-0.00729864 0.004504 0)
(-0.00872563 0.00470642 0)
(-0.0102218 0.00493821 0)
(-0.011805 0.00517874 0)
(-0.0134803 0.00541126 0)
(-0.0152449 0.00562711 0)
(-0.0170939 0.00582114 0)
(-0.0190148 0.00598883 0)
(-0.0209975 0.00612873 0)
(-0.023035 0.00623571 0)
(-0.0251131 0.00630565 0)
(-0.027218 0.00633844 0)
(-0.0293354 0.00633249 0)
(-0.03145 0.00628836 0)
(-0.0335512 0.00620659 0)
(-0.0356244 0.00608863 0)
(-0.0376555 0.0059351 0)
(-0.0396354 0.00575052 0)
(-0.041555 0.00553507 0)
(-0.0434057 0.00529237 0)
(-0.0451771 0.0050235 0)
(-0.0468633 0.00473096 0)
(-0.0484612 0.00441728 0)
(-0.0499696 0.00408311 0)
(-0.0513767 0.00373156 0)
(-0.0526827 0.00336678 0)
(-0.0538879 0.00299418 0)
(-0.0549862 0.00262375 0)
(-0.0559709 0.00226443 0)
(-0.0568343 0.00192003 0)
(-0.0575747 0.00158642 0)
(-0.0581842 0.00126575 0)
(-0.0586407 0.000969779 0)
(-0.0589457 0.00070827 0)
(-0.0591136 0.000472428 0)
(-0.0591366 0.00025734 0)
(-0.0590127 5.2097e-05 0)
(-0.0587526 -0.000154463 0)
(-0.0583664 -0.000369344 0)
(-0.0578591 -0.000598077 0)
(-0.0572425 -0.000840176 0)
(-0.0565346 -0.00110232 0)
(-0.0557341 -0.00139035 0)
(-0.0548618 -0.00170375 0)
(-0.0539346 -0.0020516 0)
(-0.0529546 -0.00242157 0)
(-0.0519152 -0.00280601 0)
(-0.0508097 -0.00318714 0)
(-0.0496423 -0.00355628 0)
(-0.0484032 -0.0039048 0)
(-0.0470995 -0.00423457 0)
(-0.0457229 -0.00454568 0)
(-0.0442775 -0.00483855 0)
(-0.0427723 -0.00511249 0)
(-0.0412041 -0.00537359 0)
(-0.0395789 -0.00561896 0)
(-0.0378972 -0.00584629 0)
(-0.0361611 -0.00606228 0)
(-0.0343753 -0.00626315 0)
(-0.0325422 -0.00644953 0)
(-0.0306651 -0.00662212 0)
(-0.0287486 -0.00677817 0)
(-0.0267897 -0.00692322 0)
(-0.0247934 -0.00705407 0)
(-0.0227666 -0.00717086 0)
(-0.0207092 -0.00727405 0)
(-0.0186253 -0.00736405 0)
(-0.0165174 -0.00744097 0)
(-0.014389 -0.00750513 0)
(-0.0122429 -0.00755673 0)
(-0.0100821 -0.00759598 0)
(-0.00790985 -0.00762253 0)
(-0.00572864 -0.00763594 0)
(-0.00354102 -0.0076355 0)
(-0.0013502 -0.00762017 0)
(0.0008406 -0.007589 0)
(0.00302745 -0.00754058 0)
(0.00520766 -0.00747398 0)
(0.00737843 -0.00738789 0)
(0.00953556 -0.00728081 0)
(0.0116759 -0.00715157 0)
(0.0137959 -0.00699823 0)
(0.0158924 -0.00681871 0)
(0.0179629 -0.00661098 0)
(0.0200041 -0.00637244 0)
(0.0220148 -0.00609935 0)
(0.0239952 -0.00578951 0)
(0.0259469 -0.00544032 0)
(0.0278769 -0.00504791 0)
(0.029801 -0.00460722 0)
(0.0317383 -0.00411527 0)
(0.0337038 -0.00358091 0)
(0.0357053 -0.00303325 0)
(0.0377334 -0.00252272 0)
(0.0397645 -0.0020993 0)
(0.0417691 -0.00180331 0)
(0.0437164 -0.00165176 0)
(0.0455782 -0.00163719 0)
(0.0473274 -0.00173914 0)
(0.0489365 -0.00193235 0)
(0.0503813 -0.00219043 0)
(0.0516409 -0.00248175 0)
(0.0526964 -0.00276836 0)
(0.0535344 -0.00299931 0)
(0.0541567 -0.00311259 0)
(0.0545839 -0.00305909 0)
(0.0548454 -0.00284013 0)
(0.0549756 -0.00250653 0)
(0.0550096 -0.00211359 0)
(0.0549716 -0.00169877 0)
(0.0548696 -0.00128178 0)
(0.0547165 -0.000868377 0)
(0.0545184 -0.000458094 0)
(0.0542704 -5.13064e-05 0)
(0.0539678 0.000355195 0)
(0.0536068 0.000764932 0)
(0.0531843 0.00118125 0)
(0.0526899 0.00160264 0)
(0.0521109 0.00202681 0)
(0.0514378 0.00245084 0)
(0.0506636 0.00287356 0)
(0.0497824 0.00329385 0)
(0.0487839 0.003714 0)
(0.0476608 0.00413416 0)
(0.0464083 0.00455307 0)
(0.0450151 0.00496914 0)
(0.0434718 0.0053794 0)
(0.0417697 0.00577968 0)
(0.0399016 0.00616561 0)
(0.0378617 0.00653246 0)
(0.0356444 0.00687659 0)
(0.0332479 0.00719367 0)
(0.0306748 0.00747906 0)
(0.0279278 0.00772995 0)
(0.0250117 0.00794595 0)
(0.0219465 0.00812533 0)
(0.0187225 0.00827371 0)
(0.015397 0.0083922 0)
(0.0118662 0.00851608 0)
(0.00840978 0.0084407 0)
(0.00496452 0.00800282 0)
(0.00223972 0.00899454 0)
(-0.00181635 0.00987083 0)
(-0.00249542 0.000504546 0)
(-0.00184086 -0.000688557 0)
(-0.00150517 0.00125952 0)
(-0.00161529 0.00352128 0)
(-0.00228067 0.00502341 0)
(-0.00327131 0.00575529 0)
(-0.00441057 0.00607754 0)
(-0.00561049 0.00630394 0)
(-0.0068572 0.00657612 0)
(-0.00816483 0.0069098 0)
(-0.00955467 0.0072738 0)
(-0.0110391 0.00763602 0)
(-0.0126193 0.00797628 0)
(-0.0142928 0.00828495 0)
(-0.0160479 0.00855735 0)
(-0.0178764 0.00878581 0)
(-0.0197735 0.00896517 0)
(-0.0217228 0.00909302 0)
(-0.0237118 0.00916318 0)
(-0.025728 0.00917863 0)
(-0.027756 0.0091361 0)
(-0.0297825 0.00903492 0)
(-0.0317964 0.00888509 0)
(-0.0337822 0.0086842 0)
(-0.0357304 0.00843724 0)
(-0.0376326 0.00814815 0)
(-0.0394762 0.00782138 0)
(-0.0412542 0.00746235 0)
(-0.0429585 0.00707418 0)
(-0.0445843 0.00666207 0)
(-0.0461279 0.00623157 0)
(-0.047584 0.00579064 0)
(-0.0489509 0.00533864 0)
(-0.0502273 0.00488631 0)
(-0.0514096 0.00443518 0)
(-0.0524943 0.00399 0)
(-0.053475 0.00355115 0)
(-0.0543482 0.00311774 0)
(-0.0551143 0.00269015 0)
(-0.0557664 0.00226744 0)
(-0.0562969 0.00183665 0)
(-0.0567015 0.00139928 0)
(-0.0569781 0.00095705 0)
(-0.0571286 0.000503628 0)
(-0.0571475 4.02888e-05 0)
(-0.0570297 -0.000428421 0)
(-0.0567779 -0.000902374 0)
(-0.0564002 -0.00138216 0)
(-0.0559043 -0.00186453 0)
(-0.055298 -0.00234532 0)
(-0.0545886 -0.00283456 0)
(-0.0537843 -0.00332363 0)
(-0.0528924 -0.00381465 0)
(-0.0519186 -0.00429678 0)
(-0.0508675 -0.00477465 0)
(-0.0497404 -0.00523698 0)
(-0.0485364 -0.00568396 0)
(-0.0472565 -0.00611247 0)
(-0.0458988 -0.00651845 0)
(-0.044465 -0.00690881 0)
(-0.0429586 -0.00728131 0)
(-0.0413807 -0.00763134 0)
(-0.0397346 -0.00796299 0)
(-0.0380231 -0.00827563 0)
(-0.0362509 -0.00856987 0)
(-0.0344207 -0.00884494 0)
(-0.0325354 -0.0091016 0)
(-0.030599 -0.00933927 0)
(-0.0286151 -0.00955814 0)
(-0.0265866 -0.00975686 0)
(-0.0245172 -0.0099392 0)
(-0.022412 -0.0101024 0)
(-0.020274 -0.0102479 0)
(-0.0181067 -0.0103752 0)
(-0.0159146 -0.0104846 0)
(-0.0137014 -0.0105758 0)
(-0.0114712 -0.0106493 0)
(-0.00922806 -0.010705 0)
(-0.00697584 -0.010743 0)
(-0.0047192 -0.0107623 0)
(-0.00246249 -0.0107626 0)
(-0.000209827 -0.0107434 0)
(0.00203483 -0.0107034 0)
(0.00426785 -0.0106418 0)
(0.00648594 -0.0105567 0)
(0.00868648 -0.0104475 0)
(0.0108655 -0.0103126 0)
(0.0130193 -0.0101512 0)
(0.015146 -0.00996221 0)
(0.0172429 -0.00974368 0)
(0.0193077 -0.0094941 0)
(0.0213395 -0.00921185 0)
(0.0233379 -0.00889491 0)
(0.0253027 -0.00854179 0)
(0.0272368 -0.00815156 0)
(0.0291439 -0.00772435 0)
(0.0310282 -0.00726261 0)
(0.0328975 -0.00677347 0)
(0.0347599 -0.00626861 0)
(0.0366217 -0.00576565 0)
(0.0384805 -0.00528706 0)
(0.040318 -0.00485319 0)
(0.0421046 -0.00447787 0)
(0.0438045 -0.0041648 0)
(0.0453799 -0.00390647 0)
(0.0468015 -0.00369058 0)
(0.0480442 -0.00349951 0)
(0.0490903 -0.00331516 0)
(0.049928 -0.00312693 0)
(0.0505462 -0.00292559 0)
(0.050948 -0.00270818 0)
(0.0511525 -0.00246699 0)
(0.0511996 -0.00220037 0)
(0.0511322 -0.00190318 0)
(0.0509806 -0.00157305 0)
(0.0507612 -0.00121306 0)
(0.0504763 -0.000827993 0)
(0.0501212 -0.000422499 0)
(0.0496933 -6.68533e-06 0)
(0.0491951 0.000413155 0)
(0.0486285 0.000834947 0)
(0.0479893 0.0012652 0)
(0.047277 0.00170975 0)
(0.0464957 0.00216674 0)
(0.0456507 0.00263796 0)
(0.0447465 0.00312342 0)
(0.0437827 0.00362115 0)
(0.0427567 0.00412973 0)
(0.0416698 0.00464837 0)
(0.0405232 0.00517665 0)
(0.0393128 0.00571823 0)
(0.0380347 0.00626924 0)
(0.036684 0.00683115 0)
(0.0352558 0.00740219 0)
(0.0337436 0.00797946 0)
(0.0321392 0.00855762 0)
(0.0304339 0.00913139 0)
(0.0286176 0.00969436 0)
(0.0266815 0.0102409 0)
(0.0246205 0.0107615 0)
(0.0224303 0.0112485 0)
(0.0201069 0.0116952 0)
(0.0176592 0.0120989 0)
(0.0150531 0.0124694 0)
(0.0123414 0.0128161 0)
(0.00938992 0.0130679 0)
(0.00668549 0.0127595 0)
(0.00416107 0.0118253 0)
(0.00218296 0.0137412 0)
(-0.00188449 0.0129033 0)
(-0.00260714 0.000454267 0)
(-0.00188457 -0.00143471 0)
(-0.00136548 0.000922741 0)
(-0.00127935 0.00391264 0)
(-0.00177943 0.00602577 0)
(-0.00265386 0.00712034 0)
(-0.00372446 0.00761175 0)
(-0.0048816 0.00792001 0)
(-0.00609084 0.00826639 0)
(-0.0073598 0.00869913 0)
(-0.00871024 0.00918504 0)
(-0.0101594 0.00968025 0)
(-0.0117126 0.0101547 0)
(-0.0133664 0.0105906 0)
(-0.0151136 0.0109802 0)
(-0.0169462 0.0113122 0)
(-0.0188519 0.0115796 0)
(-0.020821 0.0117772 0)
(-0.022836 0.0119008 0)
(-0.0248825 0.0119491 0)
(-0.0269535 0.0119222 0)
(-0.0290232 0.0118174 0)
(-0.0310809 0.0116448 0)
(-0.0331201 0.0114048 0)
(-0.0351233 0.0111019 0)
(-0.0370825 0.0107427 0)
(-0.0389876 0.010332 0)
(-0.04083 0.00987565 0)
(-0.042603 0.0093787 0)
(-0.0442994 0.00884632 0)
(-0.0459131 0.00828343 0)
(-0.0474387 0.00769695 0)
(-0.0488694 0.00709128 0)
(-0.0502 0.00647199 0)
(-0.0514289 0.00584305 0)
(-0.0525463 0.0052108 0)
(-0.0535474 0.00457621 0)
(-0.0544284 0.00394426 0)
(-0.0551828 0.00331698 0)
(-0.05581 0.00269769 0)
(-0.0563118 0.00208926 0)
(-0.0566816 0.00149121 0)
(-0.0569189 0.000903652 0)
(-0.0570304 0.000324105 0)
(-0.0570182 -0.000252212 0)
(-0.0568928 -0.000830866 0)
(-0.0566574 -0.001415 0)
(-0.0563086 -0.00200647 0)
(-0.0558455 -0.00260538 0)
(-0.0552713 -0.00321053 0)
(-0.0545916 -0.00381937 0)
(-0.0538103 -0.00442947 0)
(-0.0529326 -0.00503745 0)
(-0.051965 -0.00563935 0)
(-0.0509091 -0.00623142 0)
(-0.0497685 -0.00680911 0)
(-0.0485457 -0.00736939 0)
(-0.0472408 -0.00790982 0)
(-0.0458571 -0.00842823 0)
(-0.0443997 -0.00892572 0)
(-0.0428614 -0.00939941 0)
(-0.0412476 -0.00985011 0)
(-0.0395704 -0.0102774 0)
(-0.037826 -0.0106815 0)
(-0.0360171 -0.0110632 0)
(-0.0341489 -0.0114194 0)
(-0.0322251 -0.011752 0)
(-0.0302489 -0.0120605 0)
(-0.028225 -0.0123451 0)
(-0.0261565 -0.0126053 0)
(-0.0240474 -0.0128417 0)
(-0.0219026 -0.0130539 0)
(-0.0197262 -0.013242 0)
(-0.0175216 -0.0134069 0)
(-0.0152927 -0.013547 0)
(-0.0130448 -0.0136632 0)
(-0.0107823 -0.0137555 0)
(-0.00850943 -0.0138239 0)
(-0.00623029 -0.0138681 0)
(-0.00394934 -0.0138876 0)
(-0.00167131 -0.0138825 0)
(0.000600026 -0.013852 0)
(0.00286061 -0.0137951 0)
(0.00510651 -0.0137108 0)
(0.00733456 -0.0135982 0)
(0.00954181 -0.0134568 0)
(0.0117245 -0.0132855 0)
(0.0138796 -0.0130834 0)
(0.0160052 -0.0128498 0)
(0.0180991 -0.0125843 0)
(0.0201594 -0.0122859 0)
(0.0221841 -0.0119535 0)
(0.0241726 -0.0115868 0)
(0.0261248 -0.0111854 0)
(0.0280413 -0.0107499 0)
(0.0299232 -0.0102826 0)
(0.0317717 -0.00978607 0)
(0.0335883 -0.00926551 0)
(0.0353737 -0.00872905 0)
(0.0371256 -0.00818727 0)
(0.0388361 -0.00765302 0)
(0.0404923 -0.00713905 0)
(0.0420757 -0.00665424 0)
(0.0435665 -0.00620396 0)
(0.0449442 -0.00578928 0)
(0.0461926 -0.00540764 0)
(0.047304 -0.00505391 0)
(0.0482694 -0.0047178 0)
(0.0490869 -0.00439287 0)
(0.0497558 -0.00406373 0)
(0.0502784 -0.0037148 0)
(0.0506576 -0.003329 0)
(0.0508955 -0.00289473 0)
(0.0509978 -0.00240941 0)
(0.0509652 -0.00187849 0)
(0.0508063 -0.00131406 0)
(0.0505308 -0.000730971 0)
(0.050133 -0.000135642 0)
(0.0496111 0.00046922 0)
(0.0489682 0.00108002 0)
(0.0482103 0.00168866 0)
(0.0473495 0.00228969 0)
(0.0463831 0.00288568 0)
(0.0453186 0.00347778 0)
(0.0441656 0.00406793 0)
(0.0429273 0.00465735 0)
(0.0416122 0.00524703 0)
(0.0402287 0.00583697 0)
(0.0387834 0.00643107 0)
(0.0372822 0.00702936 0)
(0.0357284 0.00763427 0)
(0.0341303 0.00824721 0)
(0.0324934 0.00887246 0)
(0.0308174 0.00950974 0)
(0.029105 0.0101581 0)
(0.0273582 0.0108151 0)
(0.0255757 0.0114769 0)
(0.023754 0.0121382 0)
(0.0218913 0.0127924 0)
(0.0199822 0.0134298 0)
(0.0180233 0.0140391 0)
(0.0160133 0.0146128 0)
(0.013948 0.0151626 0)
(0.0117866 0.0157144 0)
(0.00955959 0.0162433 0)
(0.0071877 0.0164297 0)
(0.00523043 0.0156525 0)
(0.00348841 0.014358 0)
(0.00201529 0.0177551 0)
(-0.00197004 0.0161041 0)
(-0.00280514 0.000444294 0)
(-0.00202346 -0.00232723 0)
(-0.00127439 0.0003601 0)
(-0.000936652 0.00410463 0)
(-0.00125126 0.00691722 0)
(-0.00203345 0.00845305 0)
(-0.003079 0.00915843 0)
(-0.00423849 0.009566 0)
(-0.0054556 0.00998967 0)
(-0.00673422 0.0105233 0)
(-0.00810175 0.01114 0)
(-0.0095796 0.0117819 0)
(-0.0111791 0.0124066 0)
(-0.0128985 0.0129877 0)
(-0.0147282 0.0135078 0)
(-0.016659 0.0139556 0)
(-0.0186761 0.014323 0)
(-0.0207592 0.0145992 0)
(-0.0228919 0.0147801 0)
(-0.0250576 0.0148618 0)
(-0.0272453 0.0148477 0)
(-0.0294292 0.014741 0)
(-0.0315949 0.0145435 0)
(-0.0337353 0.014263 0)
(-0.0358325 0.0139034 0)
(-0.0378774 0.013474 0)
(-0.0398579 0.0129805 0)
(-0.0417662 0.0124309 0)
(-0.0435946 0.0118325 0)
(-0.0453374 0.011192 0)
(-0.046987 0.0105171 0)
(-0.0485367 0.00981352 0)
(-0.0499843 0.00908787 0)
(-0.0513266 0.00834306 0)
(-0.0525565 0.00758696 0)
(-0.0536728 0.00682281 0)
(-0.0546708 0.00605299 0)
(-0.0555462 0.00527652 0)
(-0.0563028 0.00450151 0)
(-0.0569337 0.00372377 0)
(-0.0574371 0.00294416 0)
(-0.0578136 0.00216468 0)
(-0.058061 0.00138226 0)
(-0.0581819 0.000597134 0)
(-0.0581746 -0.000190165 0)
(-0.0580352 -0.000977172 0)
(-0.0577677 -0.00176161 0)
(-0.0573806 -0.00254267 0)
(-0.0568796 -0.00331707 0)
(-0.0562694 -0.00408587 0)
(-0.055554 -0.0048486 0)
(-0.0547385 -0.00560347 0)
(-0.0538259 -0.00634666 0)
(-0.0528202 -0.00707688 0)
(-0.0517249 -0.00779044 0)
(-0.0505423 -0.00848568 0)
(-0.0492751 -0.00915968 0)
(-0.0479257 -0.0098114 0)
(-0.0464968 -0.010439 0)
(-0.0449892 -0.0110404 0)
(-0.0434057 -0.0116132 0)
(-0.0417508 -0.0121628 0)
(-0.0400274 -0.0126839 0)
(-0.0382397 -0.0131761 0)
(-0.0363879 -0.0136397 0)
(-0.0344767 -0.0140748 0)
(-0.0325123 -0.0144804 0)
(-0.0304967 -0.0148572 0)
(-0.0284342 -0.0152044 0)
(-0.0263281 -0.0155217 0)
(-0.024183 -0.0158094 0)
(-0.0220033 -0.0160676 0)
(-0.0197941 -0.0162958 0)
(-0.0175573 -0.016494 0)
(-0.0152972 -0.0166624 0)
(-0.0130203 -0.0168012 0)
(-0.0107294 -0.01691 0)
(-0.00842864 -0.0169891 0)
(-0.00612182 -0.0170372 0)
(-0.00381418 -0.0170552 0)
(-0.00151001 -0.0170426 0)
(0.000787759 -0.0169987 0)
(0.00307548 -0.0169236 0)
(0.00534938 -0.0168164 0)
(0.00760609 -0.0166767 0)
(0.0098434 -0.0165039 0)
(0.0120583 -0.016298 0)
(0.0142471 -0.0160577 0)
(0.0164072 -0.0157828 0)
(0.018537 -0.0154729 0)
(0.0206352 -0.0151276 0)
(0.0227 -0.014747 0)
(0.0247298 -0.0143302 0)
(0.026723 -0.0138779 0)
(0.0286786 -0.0133911 0)
(0.0305969 -0.012872 0)
(0.0324775 -0.0123236 0)
(0.0343183 -0.0117497 0)
(0.036117 -0.0111561 0)
(0.0378701 -0.0105505 0)
(0.0395715 -0.0099402 0)
(0.0412122 -0.00933186 0)
(0.0427811 -0.00873145 0)
(0.0442648 -0.0081407 0)
(0.0456482 -0.00756124 0)
(0.0469209 -0.00698801 0)
(0.0480742 -0.00641578 0)
(0.0490939 -0.00584259 0)
(0.0499716 -0.00526015 0)
(0.0507006 -0.00466713 0)
(0.0512751 -0.00405648 0)
(0.0516953 -0.0034269 0)
(0.0519678 -0.00277675 0)
(0.0521012 -0.00210499 0)
(0.0520995 -0.00141189 0)
(0.0519638 -0.000700115 0)
(0.051703 2.96884e-05 0)
(0.0513277 0.000763092 0)
(0.0508362 0.00150019 0)
(0.05022 0.00223922 0)
(0.049473 0.00298115 0)
(0.0486006 0.00371877 0)
(0.0476062 0.00444953 0)
(0.0464916 0.00517565 0)
(0.0452638 0.00589344 0)
(0.0439303 0.0066034 0)
(0.0424953 0.00730434 0)
(0.0409669 0.00799791 0)
(0.0393539 0.00868297 0)
(0.0376626 0.00936217 0)
(0.0359005 0.0100373 0)
(0.0340801 0.0107115 0)
(0.0322115 0.0113851 0)
(0.030301 0.0120598 0)
(0.0283592 0.0127377 0)
(0.0263947 0.0134187 0)
(0.0244147 0.0140999 0)
(0.0224244 0.0147791 0)
(0.0204291 0.0154509 0)
(0.0184321 0.0161063 0)
(0.0164356 0.0167345 0)
(0.0144421 0.0173347 0)
(0.0124447 0.0179357 0)
(0.010415 0.0185729 0)
(0.00838242 0.0191389 0)
(0.00630648 0.0190998 0)
(0.00466004 0.0178121 0)
(0.00318639 0.0163519 0)
(0.00184957 0.0213205 0)
(-0.00208971 0.0195241 0)
(-0.00310929 0.000491675 0)
(-0.00228978 -0.00344189 0)
(-0.00127381 -0.000602608 0)
(-0.00058655 0.00391095 0)
(-0.000605192 0.0075447 0)
(-0.0012184 0.00966626 0)
(-0.00219263 0.0106748 0)
(-0.00333691 0.0112129 0)
(-0.00455422 0.0117166 0)
(-0.00583134 0.0123566 0)
(-0.00720568 0.0131203 0)
(-0.00871133 0.0139398 0)
(-0.0103639 0.0147485 0)
(-0.0121677 0.0155055 0)
(-0.0141111 0.0161853 0)
(-0.0161726 0.0167704 0)
(-0.0183349 0.0172478 0)
(-0.0205798 0.0176111 0)
(-0.022879 0.0178516 0)
(-0.025208 0.0179679 0)
(-0.0275504 0.0179608 0)
(-0.029883 0.0178391 0)
(-0.032189 0.0176035 0)
(-0.0344589 0.0172666 0)
(-0.0366733 0.01683 0)
(-0.0388215 0.016312 0)
(-0.0408954 0.0157164 0)
(-0.0428839 0.0150523 0)
(-0.0447815 0.0143285 0)
(-0.0465812 0.013553 0)
(-0.0482776 0.0127339 0)
(-0.0498668 0.0118759 0)
(-0.0513462 0.010988 0)
(-0.0527086 0.0100749 0)
(-0.0539522 0.00914279 0)
(-0.0550753 0.00819623 0)
(-0.0560791 0.00724029 0)
(-0.056952 0.00627701 0)
(-0.0576928 0.0053108 0)
(-0.0583106 0.00434591 0)
(-0.0587987 0.0033819 0)
(-0.0591547 0.00242234 0)
(-0.0593799 0.00146779 0)
(-0.0594766 0.000520178 0)
(-0.0594455 -0.00041945 0)
(-0.0592949 -0.00135205 0)
(-0.059029 -0.00227954 0)
(-0.058642 -0.00320206 0)
(-0.0581364 -0.0041196 0)
(-0.0575206 -0.00502888 0)
(-0.0567971 -0.0059297 0)
(-0.0559661 -0.00681754 0)
(-0.0550334 -0.00769141 0)
(-0.0540051 -0.00854859 0)
(-0.052882 -0.00938656 0)
(-0.0516684 -0.0102022 0)
(-0.0503674 -0.0109924 0)
(-0.048981 -0.0117567 0)
(-0.0475113 -0.0124963 0)
(-0.045963 -0.0132024 0)
(-0.0443389 -0.0138798 0)
(-0.0426413 -0.0145255 0)
(-0.0408738 -0.015139 0)
(-0.0390405 -0.0157198 0)
(-0.037145 -0.0162658 0)
(-0.0351908 -0.0167794 0)
(-0.033182 -0.0172577 0)
(-0.0311227 -0.0177012 0)
(-0.0290159 -0.0181114 0)
(-0.0268661 -0.0184845 0)
(-0.0246785 -0.0188227 0)
(-0.0224559 -0.0191252 0)
(-0.0202028 -0.0193928 0)
(-0.0179237 -0.0196238 0)
(-0.0156222 -0.0198199 0)
(-0.013303 -0.0199803 0)
(-0.0109701 -0.0201051 0)
(-0.00862649 -0.0201941 0)
(-0.00627688 -0.0202474 0)
(-0.0039265 -0.0202652 0)
(-0.00157756 -0.0202469 0)
(0.000765992 -0.0201923 0)
(0.00310044 -0.0201015 0)
(0.00542274 -0.0199742 0)
(0.00772968 -0.01981 0)
(0.0100179 -0.0196086 0)
(0.0122848 -0.0193705 0)
(0.0145281 -0.0190948 0)
(0.0167443 -0.0187811 0)
(0.0189317 -0.0184291 0)
(0.0210879 -0.0180389 0)
(0.0232113 -0.0176103 0)
(0.0253004 -0.0171447 0)
(0.0273523 -0.0166419 0)
(0.0293652 -0.016103 0)
(0.0313373 -0.0155294 0)
(0.0332673 -0.0149239 0)
(0.0351526 -0.01429 0)
(0.0369885 -0.0136317 0)
(0.0387707 -0.0129536 0)
(0.0404934 -0.0122611 0)
(0.0421468 -0.0115595 0)
(0.0437215 -0.0108527 0)
(0.045206 -0.0101439 0)
(0.0465903 -0.00943341 0)
(0.047868 -0.00871816 0)
(0.0490254 -0.00799685 0)
(0.0500552 -0.0072705 0)
(0.0509519 -0.00653011 0)
(0.0517108 -0.00577436 0)
(0.0523331 -0.00499636 0)
(0.0528137 -0.00419137 0)
(0.053155 -0.00335788 0)
(0.0533608 -0.00249565 0)
(0.053428 -0.00160774 0)
(0.0533647 -0.000697394 0)
(0.053164 0.000229015 0)
(0.0528208 0.0011704 0)
(0.0523497 0.00211662 0)
(0.0517537 0.00305783 0)
(0.05103 0.0039938 0)
(0.0501809 0.00492205 0)
(0.0492115 0.00583943 0)
(0.0481213 0.00674227 0)
(0.0469123 0.00763091 0)
(0.0455869 0.00850255 0)
(0.044151 0.00935536 0)
(0.0426103 0.0101905 0)
(0.040971 0.0110065 0)
(0.0392416 0.0118035 0)
(0.0374269 0.0125829 0)
(0.0355366 0.0133459 0)
(0.0335801 0.0140943 0)
(0.0315684 0.0148291 0)
(0.029513 0.0155516 0)
(0.0274224 0.0162619 0)
(0.0253077 0.0169586 0)
(0.0231801 0.0176423 0)
(0.021049 0.0183082 0)
(0.0189206 0.0189491 0)
(0.0168022 0.0195564 0)
(0.0147013 0.020135 0)
(0.0126187 0.0207248 0)
(0.0105417 0.0213638 0)
(0.00849577 0.0218856 0)
(0.00644269 0.0216283 0)
(0.00471717 0.0199326 0)
(0.00314051 0.0183375 0)
(0.00173822 0.0246818 0)
(-0.00224976 0.0232787 0)
(-0.00353406 0.000692335 0)
(-0.00275514 -0.00476083 0)
(-0.00150339 -0.00202891 0)
(-0.000400277 0.00320495 0)
(1.19032e-05 0.00778093 0)
(-0.000292338 0.0106587 0)
(-0.00111032 0.0121029 0)
(-0.00218831 0.0128271 0)
(-0.00336996 0.0134259 0)
(-0.00461703 0.0141771 0)
(-0.00597156 0.0151098 0)
(-0.00748292 0.0161456 0)
(-0.0091851 0.0171882 0)
(-0.0110798 0.0181685 0)
(-0.0131521 0.0190479 0)
(-0.0153789 0.0198011 0)
(-0.0177242 0.0204126 0)
(-0.0201567 0.0208709 0)
(-0.0226506 0.0211734 0)
(-0.0251759 0.021318 0)
(-0.0277076 0.0213091 0)
(-0.0302199 0.0211566 0)
(-0.0326927 0.0208673 0)
(-0.0351182 0.0204538 0)
(-0.0374697 0.0199282 0)
(-0.0397357 0.0193015 0)
(-0.0419168 0.0185865 0)
(-0.0439984 0.0177929 0)
(-0.045975 0.0169313 0)
(-0.0478414 0.0160111 0)
(-0.0495951 0.0150412 0)
(-0.0512285 0.0140298 0)
(-0.0527396 0.0129843 0)
(-0.0541296 0.0119122 0)
(-0.0553924 0.0108179 0)
(-0.0565283 0.00970805 0)
(-0.0575365 0.00858562 0)
(-0.058414 0.00745876 0)
(-0.0591616 0.00632401 0)
(-0.0597792 0.00518742 0)
(-0.0602659 0.00404792 0)
(-0.060622 0.00291431 0)
(-0.0608488 0.00178157 0)
(-0.060948 0.000651844 0)
(-0.0609201 -0.000474069 0)
(-0.0607636 -0.00159379 0)
(-0.0604817 -0.00270212 0)
(-0.0600805 -0.00379803 0)
(-0.0595611 -0.00488564 0)
(-0.0589278 -0.00595426 0)
(-0.0581833 -0.00700711 0)
(-0.0573313 -0.0080413 0)
(-0.0563773 -0.00905656 0)
(-0.0553232 -0.0100493 0)
(-0.0541714 -0.0110205 0)
(-0.0529236 -0.0119611 0)
(-0.0515861 -0.0128744 0)
(-0.0501669 -0.0137562 0)
(-0.0486576 -0.0146059 0)
(-0.0470641 -0.0154221 0)
(-0.0453973 -0.0162053 0)
(-0.0436544 -0.0169492 0)
(-0.0418416 -0.0176566 0)
(-0.0399612 -0.0183273 0)
(-0.0380176 -0.0189579 0)
(-0.0360143 -0.0195493 0)
(-0.033955 -0.0201018 0)
(-0.0318471 -0.0206132 0)
(-0.0296896 -0.0210841 0)
(-0.0274868 -0.0215142 0)
(-0.0252472 -0.0219031 0)
(-0.0229728 -0.0222507 0)
(-0.0206676 -0.0225573 0)
(-0.0183353 -0.0228224 0)
(-0.0159808 -0.0230463 0)