/*--------------------------------*- C++ -*----------------------------------*\
| =========                 |                                                 |
| \\      /  F ield         | OpenFOAM: The Open Source CFD Toolbox           |
|  \\    /   O peration     | Version:  v2006                                 |
|   \\  /    A nd           | Website:  www.openfoam.com                      |
|    \\/     M anipulation  |                                                 |
\*---------------------------------------------------------------------------*/
FoamFile
{
    version     2.0;
    format      ascii;
    class       volScalarField;
    location    "3";
    object      p;
}
// * * * * * * * * * * * * * * * * * * * * * * * * * * * * * * * * * * * * * //

dimensions      [1 -1 -2 0 0 0 0];


internalField   nonuniform List<scalar> 
50000
(
22409.8
22409.5
22408.6
22407.5
22405.8
22403.9
22401.5
22398.8
22395.6
22392.1
22388.2
22383.9
22379.3
22374.4
22369.1
22363.5
22357.5
22351.3
22344.8
22337.9
22330.9
22323.5
22315.9
22308.1
22300.1
22291.8
22283.4
22274.8
22266
22257.1
22248.1
22239
22229.8
22220.5
22211.1
22201.8
22192.4
22183
22173.6
22164.3
22155
22145.8
22136.6
22127.6
22118.7
22110
22101.4
22093
22084.8
22076.8
22069
22061.5
22054.2
22047.2
22040.5
22034.1
22028.1
22022.3
22017
22012
22007.3
22003.1
21999.2
21995.8
21992.7
21990.1
21988
21986.2
21985
21984.2
21983.8
21984
21984.5
21985.6
21987.2
21989.2
21991.7
21994.7
21998.2
22002.2
22006.6
22011.5
22016.9
22022.7
22029
22035.8
22043
22050.6
22058.6
22067.1
22076
22085.2
22094.9
22104.9
22115.2
22125.9
22137
22148.3
22159.9
22171.8
22183.9
22196.2
22208.8
22221.6
22234.5
22247.6
22260.8
22274.2
22287.6
22301.1
22314.7
22328.2
22341.8
22355.4
22368.9
22382.3
22395.7
22409
22422.1
22435.1
22447.9
22460.5
22472.9
22485
22496.9
22508.6
22519.9
22530.9
22541.6
22551.9
22561.9
22571.5
22580.6
22589.4
22597.7
22605.6
22613
22619.9
22626.3
22632.3
22637.7
22642.7
22647
22651.1
22653.9
22657.5
22658.7
22661.3
22661.8
22662.7
21959.2
21958.9
21958
21956.9
21955.2
21953.3
21950.9
21948.1
21944.9
21941.5
21937.5
21933.3
21928.6
21923.7
21918.4
21912.8
21906.8
21900.5
21894
21887.1
21880
21872.7
21865.1
21857.2
21849.1
21840.9
21832.4
21823.8
21815
21806.1
21797
21787.9
21778.6
21769.3
21759.9
21750.5
21741.1
21731.7
21722.3
21712.9
21703.6
21694.3
21685.2
21676.1
21667.2
21658.4
21649.8
21641.4
21633.1
21625.1
21617.3
21609.7
21602.4
21595.4
21588.7
21582.3
21576.2
21570.4
21565
21560
21555.3
21551
21547.2
21543.7
21540.6
21538
21535.8
21534.1
21532.8
21532
21531.7
21531.8
21532.4
21533.4
21535
21537
21539.5
21542.5
21546
21550
21554.4
21559.3
21564.7
21570.6
21576.9
21583.6
21590.8
21598.5
21606.6
21615
21623.9
21633.2
21642.9
21652.9
21663.3
21674
21685.1
21696.4
21708.1
21720
21732.1
21744.5
21757.2
21770
21782.9
21796.1
21809.3
21822.7
21836.2
21849.7
21863.3
21876.9
21890.6
21904.2
21917.7
21931.2
21944.6
21957.9
21971.1
21984.1
21997
22009.6
22022.1
22034.3
22046.2
22057.9
22069.3
22080.3
22091
22101.4
22111.4
22121
22130.2
22139
22147.3
22155.2
22162.7
22169.6
22176.1
22182.1
22187.5
22192.5
22196.9
22200.8
22204.1
22207.1
22209.1
22211
22211.9
22212.6
21509.3
21509
21508.1
21507
21505.3
21503.4
21500.9
21498.2
21495
21491.5
21487.5
21483.2
21478.6
21473.6
21468.2
21462.6
21456.6
21450.3
21443.7
21436.8
21429.7
21422.2
21414.6
21406.7
21398.6
21390.2
21381.7
21373
21364.2
21355.2
21346.1
21336.9
21327.6
21318.2
21308.8
21299.3
21289.8
21280.3
21270.8
21261.4
21252
21242.7
21233.5
21224.4
21215.4
21206.5
21197.8
21189.3
21181
21172.9
21165.1
21157.5
21150.1
21143
21136.2
21129.8
21123.6
21117.8
21112.4
21107.3
21102.6
21098.3
21094.3
21090.8
21087.8
21085.1
21082.9
21081.1
21079.8
21079
21078.6
21078.7
21079.3
21080.3
21081.9
21083.9
21086.4
21089.4
21092.9
21096.9
21101.3
21106.3
21111.7
21117.5
21123.9
21130.7
21137.9
21145.6
21153.7
21162.2
21171.2
21180.5
21190.2
21200.3
21210.7
21221.5
21232.6
21244
21255.7
21267.7
21280
21292.4
21305.1
21318
21331.1
21344.3
21357.6
21371.1
21384.6
21398.3
21411.9
21425.6
21439.4
21453
21466.7
21480.3
21493.8
21507.2
21520.4
21533.5
21546.4
21559.2
21571.7
21584
21596
21607.7
21619.2
21630.3
21641.1
21651.5
21661.6
21671.2
21680.5
21689.3
21697.7
21705.7
21713.2
21720.2
21726.7
21732.7
21738.2
21743.2
21747.6
21751.5
21754.8
21757.8
21759.8
21761.8
21762.6
21763.4
21060.1
21059.9
21058.9
21057.8
21056.1
21054.1
21051.6
21048.9
21045.6
21042.1
21038.1
21033.8
21029.1
21024.1
21018.7
21013
21006.9
21000.6
20993.9
20986.9
20979.7
20972.2
20964.5
20956.5
20948.3
20939.9
20931.3
20922.6
20913.6
20904.6
20895.4
20886.1
20876.7
20867.2
20857.7
20848.1
20838.5
20828.9
20819.3
20809.8
20800.3
20790.9
20781.6
20772.4
20763.3
20754.3
20745.5
20736.9
20728.5
20720.4
20712.4
20704.7
20697.3
20690.1
20683.2
20676.7
20670.5
20664.6
20659
20653.9
20649.1
20644.7
20640.7
20637.2
20634
20631.3
20629.1
20627.3
20625.9
20625
20624.6
20624.7
20625.3
20626.3
20627.8
20629.9
20632.4
20635.4
20638.9
20642.8
20647.3
20652.3
20657.7
20663.6
20670
20676.8
20684.1
20691.8
20700
20708.6
20717.6
20727
20736.8
20746.9
20757.5
20768.3
20779.5
20791.1
20802.9
20814.9
20827.3
20839.9
20852.7
20865.7
20878.8
20892.2
20905.7
20919.2
20932.9
20946.7
20960.5
20974.3
20988.2
21002
21015.8
21029.5
21043.1
21056.6
21070
21083.2
21096.3
21109.1
21121.8
21134.2
21146.3
21158.2
21169.7
21180.9
21191.8
21202.4
21212.5
21222.3
21231.6
21240.5
21249
21257
21264.6
21271.7
21278.2
21284.3
21289.8
21294.9
21299.4
21303.3
21306.6
21309.6
21311.7
21313.6
21314.6
21315.3
20611.7
20611.4
20610.4
20609.3
20607.5
20605.6
20603.1
20600.3
20597
20593.4
20589.3
20585
20580.2
20575.1
20569.7
20563.9
20557.8
20551.3
20544.6
20537.5
20530.2
20522.7
20514.8
20506.7
20498.4
20489.9
20481.2
20472.3
20463.3
20454.1
20444.8
20435.4
20425.8
20416.2
20406.6
20396.9
20387.2
20377.4
20367.7
20358.1
20348.5
20338.9
20329.4
20320.1
20310.9
20301.8
20292.9
20284.2
20275.6
20267.3
20259.2
20251.4
20243.9
20236.6
20229.6
20222.9
20216.6
20210.6
20205
20199.7
20194.9
20190.4
20186.3
20182.7
20179.5
20176.7
20174.4
20172.5
20171.1
20170.2
20169.8
20169.8
20170.3
20171.3
20172.8
20174.9
20177.4
20180.4
20183.9
20187.9
20192.4
20197.3
20202.8
20208.8
20215.2
20222.1
20229.4
20237.2
20245.5
20254.2
20263.2
20272.7
20282.6
20292.9
20303.6
20314.5
20325.9
20337.5
20349.4
20361.7
20374.2
20386.9
20399.8
20413
20426.3
20439.8
20453.5
20467.2
20481.1
20495
20509
20523
20537
20551
20564.9
20578.8
20592.6
20606.3
20619.9
20633.3
20646.5
20659.5
20672.3
20684.8
20697.1
20709.1
20720.8
20732.2
20743.2
20753.9
20764.2
20774.1
20783.5
20792.6
20801.2
20809.3
20816.9
20824.1
20830.7
20836.9
20842.5
20847.6
20852.1
20856.1
20859.5
20862.5
20864.6
20866.6
20867.5
20868.2
20163.9
20163.6
20162.6
20161.5
20159.7
20157.7
20155.1
20152.3
20149
20145.3
20141.2
20136.8
20132
20126.8
20121.2
20115.4
20109.2
20102.6
20095.8
20088.6
20081.2
20073.5
20065.5
20057.3
20048.9
20040.3
20031.4
20022.4
20013.2
20003.9
19994.4
19984.8
19975.1
19965.4
19955.6
19945.7
19935.8
19925.9
19916.1
19906.2
19896.4
19886.7
19877.1
19867.6
19858.2
19849
19839.9
19831
19822.3
19813.8
19805.6
19797.6
19789.9
19782.5
19775.4
19768.6
19762.1
19756
19750.3
19744.9
19739.9
19735.3
19731.1
19727.4
19724.1
19721.2
19718.8
19716.9
19715.4
19714.4
19713.9
19713.9
19714.4
19715.4
19716.9
19718.9
19721.4
19724.4
19727.9
19731.9
19736.5
19741.5
19747
19753
19759.5
19766.5
19773.9
19781.8
19790.1
19798.9
19808.1
19817.7
19827.7
19838.2
19848.9
19860.1
19871.6
19883.4
19895.5
19907.9
19920.5
19933.4
19946.6
19959.9
19973.5
19987.2
20001
20015
20029
20043.2
20057.4
20071.6
20085.8
20100
20114.2
20128.3
20142.3
20156.2
20170
20183.6
20197
20210.3
20223.3
20236
20248.5
20260.7
20272.6
20284.1
20295.3
20306.2
20316.6
20326.7
20336.3
20345.4
20354.2
20362.4
20370.2
20377.5
20384.2
20390.5
20396.2
20401.3
20405.9
20410
20413.4
20416.5
20418.6
20420.6
20421.6
20422.3
19716.8
19716.5
19715.5
19714.3
19712.6
19710.5
19707.9
19705
19701.6
19697.9
19693.7
19689.2
19684.3
19679
19673.4
19667.4
19661.1
19654.4
19647.5
19640.2
19632.6
19624.8
19616.7
19608.3
19599.7
19590.9
19581.9
19572.7
19563.3
19553.8
19544.2
19534.4
19524.5
19514.6
19504.6
19494.5
19484.4
19474.4
19464.3
19454.3
19444.3
19434.4
19424.5
19414.8
19405.2
19395.8
19386.5
19377.5
19368.6
19359.9
19351.5
19343.3
19335.4
19327.8
19320.6
19313.6
19307
19300.7
19294.8
19289.3
19284.1
19279.4
19275.1
19271.3
19267.8
19264.9
19262.4
19260.4
19258.8
19257.8
19257.2
19257.1
19257.6
19258.5
19260
19262
19264.5
19267.5
19271
19275.1
19279.6
19284.7
19290.3
19296.3
19302.9
19309.9
19317.5
19325.5
19333.9
19342.8
19352.2
19361.9
19372.1
19382.7
19393.6
19405
19416.6
19428.6
19440.9
19453.5
19466.4
19479.6
19492.9
19506.5
19520.3
19534.2
19548.3
19562.5
19576.9
19591.3
19605.7
19620.2
19634.7
19649.2
19663.6
19678
19692.2
19706.4
19720.4
19734.3
19748
19761.4
19774.7
19787.7
19800.4
19812.8
19824.9
19836.7
19848.1
19859.2
19869.8
19880
19889.8
19899.2
19908.1
19916.5
19924.4
19931.8
19938.7
19945
19950.8
19956.1
19960.8
19965
19968.5
19971.6
19973.7
19975.8
19976.7
19977.5
19270.5
19270.1
19269.2
19268
19266.1
19264
19261.4
19258.4
19255
19251.2
19246.9
19242.3
19237.3
19231.9
19226.2
19220.1
19213.6
19206.8
19199.7
19192.2
19184.5
19176.5
19168.2
19159.7
19150.9
19141.9
19132.7
19123.3
19113.7
19104
19094.1
19084.2
19074.1
19063.9
19053.7
19043.4
19033.1
19022.8
19012.4
19002.2
18992
18981.8
18971.8
18961.8
18952
18942.3
18932.8
18923.5
18914.4
18905.5
18896.9
18888.5
18880.4
18872.6
18865.1
18857.9
18851.1
18844.7
18838.6
18832.9
18827.6
18822.7
18818.3
18814.3
18810.7
18807.6
18805
18802.9
18801.3
18800.1
18799.5
18799.4
18799.7
18800.7
18802.1
18804.1
18806.5
18809.6
18813.1
18817.2
18821.8
18826.9
18832.5
18838.7
18845.3
18852.5
18860.1
18868.2
18876.8
18885.9
18895.4
18905.3
18915.7
18926.5
18937.6
18949.1
18961
18973.3
18985.8
18998.7
19011.8
19025.2
19038.9
19052.7
19066.8
19081
19095.4
19109.9
19124.5
19139.2
19154
19168.8
19183.6
19198.3
19213.1
19227.8
19242.3
19256.8
19271.1
19285.3
19299.3
19313
19326.6
19339.9
19352.8
19365.5
19377.9
19389.9
19401.6
19412.9
19423.8
19434.2
19444.2
19453.8
19462.9
19471.4
19479.5
19487.1
19494.1
19500.6
19506.6
19512
19516.7
19521
19524.6
19527.7
19530
19532
19533
19533.8
18824.9
18824.5
18823.5
18822.3
18820.4
18818.3
18815.6
18812.6
18809
18805.1
18800.8
18796.1
18790.9
18785.4
18779.5
18773.3
18766.7
18759.7
18752.4
18744.8
18736.9
18728.7
18720.2
18711.5
18702.5
18693.3
18683.8
18674.2
18664.4
18654.4
18644.3
18634.1
18623.7
18613.3
18602.8
18592.2
18581.7
18571.1
18560.5
18550
18539.5
18529.1
18518.7
18508.5
18498.4
18488.5
18478.7
18469.2
18459.8
18450.7
18441.8
18433.1
18424.8
18416.7
18409
18401.6
18394.6
18387.9
18381.6
18375.7
18370.3
18365.2
18360.6
18356.4
18352.7
18349.5
18346.7
18344.5
18342.7
18341.5
18340.8
18340.6
18340.9
18341.8
18343.2
18345.1
18347.6
18350.6
18354.2
18358.3
18362.9
18368.1
18373.8
18380.1
18386.8
18394.1
18401.8
18410.1
18418.9
18428.1
18437.8
18447.9
18458.5
18469.5
18480.9
18492.6
18504.8
18517.3
18530.1
18543.2
18556.7
18570.4
18584.3
18598.5
18612.9
18627.5
18642.2
18657
18672
18687.1
18702.2
18717.3
18732.5
18747.6
18762.7
18777.7
18792.6
18807.5
18822.1
18836.7
18851
18865.1
18878.9
18892.5
18905.9
18918.9
18931.5
18943.9
18955.8
18967.4
18978.5
18989.2
18999.5
19009.3
19018.6
19027.4
19035.7
19043.4
19050.6
19057.3
19063.4
19068.9
19073.8
19078.1
19081.8
19085
19087.3
19089.4
19090.5
19091.2
18380
18379.7
18378.7
18377.4
18375.5
18373.3
18370.5
18367.4
18363.8
18359.8
18355.3
18350.5
18345.2
18339.6
18333.5
18327.1
18320.3
18313.2
18305.7
18297.9
18289.8
18281.3
18272.6
18263.7
18254.4
18245
18235.3
18225.4
18215.3
18205.1
18194.7
18184.1
18173.5
18162.8
18152
18141.1
18130.3
18119.4
18108.5
18097.7
18086.9
18076.1
18065.5
18055
18044.6
18034.3
18024.3
18014.4
18004.7
17995.3
17986.1
17977.2
17968.6
17960.3
17952.3
17944.6
17937.4
17930.4
17923.9
17917.8
17912.1
17906.9
17902
17897.7
17893.8
17890.4
17887.5
17885.1
17883.3
17881.9
17881.1
17880.8
17881.1
17881.9
17883.2
17885.1
17887.6
17890.6
17894.2
17898.4
17903
17908.3
17914.1
17920.4
17927.3
17934.7
17942.6
17951
17960
17969.4
17979.3
17989.6
18000.4
18011.7
18023.3
18035.4
18047.8
18060.6
18073.8
18087.2
18101
18115.1
18129.4
18143.9
18158.7
18173.6
18188.7
18204
18219.3
18234.8
18250.3
18265.8
18281.4
18296.9
18312.4
18327.8
18343.2
18358.4
18373.5
18388.4
18403.1
18417.6
18431.8
18445.8
18459.4
18472.8
18485.8
18498.5
18510.8
18522.6
18534.1
18545.1
18555.6
18565.7
18575.2
18584.3
18592.8
18600.7
18608.1
18615
18621.2
18626.9
18631.9
18636.4
18640.2
18643.5
18645.9
18648
18649.1
18649.9
17936
17935.6
17934.6
17933.3
17931.3
17929.1
17926.2
17923
17919.3
17915.2
17910.6
17905.6
17900.2
17894.4
17888.2
17881.6
17874.6
17867.2
17859.5
17851.5
17843.2
17834.5
17825.5
17816.3
17806.8
17797
17787.1
17776.9
17766.5
17755.9
17745.2
17734.4
17723.4
17712.4
17701.3
17690.1
17678.9
17667.6
17656.4
17645.2
17634.1
17623
17612
17601.2
17590.4
17579.8
17569.4
17559.2
17549.2
17539.5
17530
17520.7
17511.8
17503.2
17494.9
17487
17479.4
17472.2
17465.4
17459.1
17453.1
17447.6
17442.6
17438
17434
17430.4
17427.3
17424.8
17422.8
17421.3
17420.3
17420
17420.1
17420.9
17422.2
17424.1
17426.5
17429.6
17433.2
17437.3
17442.1
17447.4
17453.3
17459.8
17466.8
17474.3
17482.4
17491
17500.1
17509.8
17519.9
17530.5
17541.6
17553.1
17565
17577.4
17590.2
17603.3
17616.8
17630.6
17644.8
17659.2
17673.9
17688.9
17704
17719.4
17734.9
17750.6
17766.4
17782.3
17798.3
17814.3
17830.3
17846.3
17862.2
17878.1
17893.9
17909.6
17925.1
17940.4
17955.6
17970.5
17985.2
17999.5
18013.6
18027.4
18040.8
18053.8
18066.5
18078.7
18090.5
18101.8
18112.6
18123
18132.8
18142.2
18150.9
18159.1
18166.8
18173.8
18180.2
18186.1
18191.3
18195.9
18199.7
18203.1
18205.6
18207.8
18208.9
18209.7
17492.8
17492.4
17491.3
17490
17487.9
17485.6
17482.7
17479.4
17475.5
17471.3
17466.6
17461.5
17455.9
17449.9
17443.5
17436.7
17429.5
17421.9
17414
17405.7
17397.1
17388.1
17378.9
17369.3
17359.5
17349.5
17339.2
17328.7
17318
17307.1
17296
17284.8
17273.5
17262.1
17250.6
17239
17227.4
17215.8
17204.2
17192.7
17181.1
17169.7
17158.3
17147.1
17135.9
17125
17114.2
17103.6
17093.3
17083.1
17073.3
17063.7
17054.4
17045.5
17036.9
17028.6
17020.7
17013.2
17006.1
16999.5
16993.3
16987.5
16982.3
16977.5
16973.2
16969.4
16966.1
16963.4
16961.2
16959.6
16958.5
16958.1
16958.1
16958.8
16960.1
16961.9
16964.3
16967.4
16971
16975.2
16980
16985.5
16991.4
16998
17005.2
17012.9
17021.1
17029.9
17039.3
17049.2
17059.6
17070.4
17081.8
17093.7
17105.9
17118.7
17131.8
17145.3
17159.2
17173.4
17188
17202.9
17218
17233.4
17249
17264.9
17280.9
17297.1
17313.4
17329.7
17346.2
17362.7
17379.2
17395.7
17412.2
17428.6
17444.9
17461
17477
17492.9
17508.5
17523.9
17539
17553.9
17568.4
17582.6
17596.4
17609.9
17622.9
17635.6
17647.7
17659.4
17670.6
17681.3
17691.5
17701.1
17710.1
17718.6
17726.5
17733.7
17740.4
17746.4
17751.8
17756.5
17760.5
17764
17766.6
17768.8
17770
17770.8
17050.3
17050
17048.8
17047.5
17045.4
17043
17039.9
17036.5
17032.6
17028.2
17023.3
17018
17012.3
17006.1
16999.4
16992.4
16985
16977.2
16969
16960.4
16951.5
16942.3
16932.7
16922.8
16912.7
16902.3
16891.7
16880.8
16869.7
16858.4
16847
16835.4
16823.7
16811.9
16800
16788
16776
16764
16752
16740
16728
16716.1
16704.4
16692.7
16681.1
16669.8
16658.6
16647.6
16636.8
16626.3
16616
16606.1
16596.4
16587.1
16578.1
16569.5
16561.2
16553.4
16546
16539.1
16532.6
16526.5
16521
16515.9
16511.4
16507.4
16503.9
16501
16498.6
16496.8
16495.6
16495
16495
16495.6
16496.8
16498.6
16501
16504.1
16507.7
16512
16516.9
16522.3
16528.4
16535.2
16542.5
16550.3
16558.8
16567.8
16577.4
16587.6
16598.3
16609.5
16621.2
16633.3
16646
16659.1
16672.6
16686.6
16700.9
16715.6
16730.6
16745.9
16761.6
16777.5
16793.6
16810
16826.5
16843.2
16860.1
16877
16894
16911.1
16928.2
16945.2
16962.2
16979.2
16996
17012.7
17029.3
17045.7
17061.9
17077.8
17093.4
17108.8
17123.8
17138.5
17152.8
17166.7
17180.2
17193.3
17205.9
17218
17229.6
17240.6
17251.1
17261.1
17270.4
17279.2
17287.3
17294.9
17301.7
17308
17313.5
17318.4
17322.6
17326.2
17328.8
17331.2
17332.4
17333.2
16608.8
16608.4
16607.2
16605.8
16603.6
16601.2
16598
16594.5
16590.4
16585.9
16580.8
16575.4
16569.4
16563
16556.1
16548.9
16541.2
16533.1
16524.6
16515.7
16506.5
16496.9
16487
16476.8
16466.3
16455.6
16444.5
16433.3
16421.8
16410.1
16398.2
16386.2
16374.1
16361.8
16349.5
16337
16324.6
16312.1
16299.6
16287.2
16274.7
16262.4
16250.2
16238
16226
16214.2
16202.5
16191.1
16179.9
16168.9
16158.2
16147.8
16137.8
16128
16118.6
16109.6
16101
16092.8
16085.1
16077.8
16070.9
16064.6
16058.7
16053.4
16048.6
16044.3
16040.6
16037.5
16034.9
16033
16031.6
16030.8
16030.7
16031.2
16032.3
16034.1
16036.5
16039.5
16043.2
16047.5
16052.5
16058.1
16064.3
16071.1
16078.6
16086.7
16095.4
16104.7
16114.5
16125
16136
16147.5
16159.5
16172.1
16185.2
16198.7
16212.7
16227.1
16241.9
16257
16272.6
16288.4
16304.6
16321.1
16337.8
16354.7
16371.9
16389.2
16406.6
16424.1
16441.7
16459.4
16477.1
16494.8
16512.4
16530
16547.4
16564.8
16581.9
16598.9
16615.7
16632.2
16648.4
16664.3
16679.9
16695.1
16709.9
16724.4
16738.4
16751.9
16764.9
16777.5
16789.5
16801
16811.8
16822.2
16831.9
16840.9
16849.4
16857.2
16864.3
16870.8
16876.5
16881.6
16885.9
16889.6
16892.4
16894.8
16896.1
16896.9
16168.1
16167.7
16166.5
16165
16162.8
16160.2
16157
16153.3
16149.1
16144.4
16139.1
16133.5
16127.3
16120.6
16113.5
16106
16098
16089.6
16080.8
16071.6
16062.1
16052.1
16041.9
16031.3
16020.4
16009.2
15997.8
15986.1
15974.1
15962
15949.7
15937.2
15924.6
15911.9
15899
15886.1
15873.2
15860.2
15847.2
15834.2
15821.3
15808.5
15795.7
15783.1
15770.6
15758.2
15746.1
15734.2
15722.5
15711
15699.9
15689
15678.5
15668.3
15658.4
15649
15640
15631.4
15623.2
15615.5
15608.3
15601.6
15595.5
15589.8
15584.7
15580.2
15576.2
15572.8
15570.1
15567.9
15566.4
15565.5
15565.2
15565.6
15566.7
15568.4
15570.7
15573.8
15577.5
15581.8
15586.9
15592.6
15598.9
15605.9
15613.6
15621.9
15630.8
15640.3
15650.5
15661.3
15672.6
15684.5
15696.9
15709.9
15723.4
15737.4
15751.8
15766.8
15782.1
15797.8
15813.9
15830.4
15847.1
15864.2
15881.5
15899.1
15916.8
15934.8
15952.9
15971.1
15989.4
16007.7
16026.1
16044.4
16062.7
16081
16099.1
16117.1
16134.9
16152.5
16169.9
16187.1
16203.9
16220.4
16236.6
16252.4
16267.8
16282.8
16297.4
16311.4
16325
16338
16350.5
16362.4
16373.7
16384.4
16394.5
16403.9
16412.7
16420.8
16428.2
16434.9
16440.8
16446.1
16450.6
16454.5
16457.4
16459.8
16461.2
16462.1
15728.3
15727.9
15726.7
15725.1
15722.8
15720.1
15716.8
15713
15708.6
15703.7
15698.3
15692.4
15686
15679.1
15671.7
15663.9
15655.6
15646.9
15637.7
15628.2
15618.3
15607.9
15597.3
15586.3
15574.9
15563.3
15551.4
15539.3
15526.9
15514.2
15501.4
15488.4
15475.3
15462
15448.7
15435.2
15421.7
15408.2
15394.7
15381.2
15367.7
15354.3
15341
15327.8
15314.8
15301.9
15289.2
15276.7
15264.5
15252.5
15240.9
15229.5
15218.5
15207.8
15197.5
15187.6
15178.1
15169.1
15160.5
15152.4
15144.8
15137.7
15131.2
15125.2
15119.7
15114.9
15110.7
15107
15104
15101.6
15099.9
15098.9
15098.5
15098.7
15099.7
15101.3
15103.7
15106.7
15110.4
15114.8
15120
15125.8
15132.3
15139.4
15147.3
15155.8
15165
15174.8
15185.3
15196.4
15208.1
15220.4
15233.3
15246.7
15260.7
15275.2
15290.2
15305.6
15321.5
15337.8
15354.5
15371.6
15389
15406.7
15424.7
15443
15461.5
15480.1
15498.9
15517.8
15536.9
15555.9
15575
15594.1
15613.1
15632.1
15651
15669.7
15688.2
15706.6
15724.7
15742.5
15760
15777.2
15794.1
15810.5
15826.5
15842.1
15857.3
15871.9
15886
15899.5
15912.5
15924.9
15936.7
15947.8
15958.3
15968.1
15977.2
15985.6
15993.3
16000.3
16006.5
16012
16016.7
16020.7
16023.7
16026.3
16027.7
16028.6
15289.5
15289.1
15287.8
15286.2
15283.8
15281
15277.5
15273.6
15269
15263.9
15258.3
15252.2
15245.5
15238.3
15230.7
15222.5
15213.9
15204.8
15195.3
15185.4
15175.1
15164.3
15153.2
15141.8
15130
15117.9
15105.5
15092.8
15079.9
15066.8
15053.4
15039.9
15026.2
15012.4
14998.4
14984.4
14970.3
14956.2
14942.1
14928
14913.9
14899.9
14886
14872.3
14858.6
14845.2
14831.9
14818.8
14806
14793.5
14781.3
14769.4
14757.8
14746.6
14735.8
14725.4
14715.4
14705.9
14696.8
14688.3
14680.2
14672.7
14665.8
14659.4
14653.7
14648.5
14643.9
14640
14636.7
14634.1
14632.2
14630.9
14630.4
14630.5
14631.4
14633
14635.3
14638.3
14642
14646.5
14651.7
14657.6
14664.3
14671.6
14679.7
14688.5
14697.9
14708.1
14718.9
14730.4
14742.5
14755.2
14768.6
14782.5
14797
14812
14827.6
14843.6
14860.1
14877.1
14894.5
14912.2
14930.3
14948.8
14967.5
14986.5
15005.7
15025.1
15044.7
15064.4
15084.2
15104.1
15124
15143.9
15163.7
15183.5
15203.1
15222.6
15241.9
15261
15279.9
15298.5
15316.8
15334.7
15352.2
15369.4
15386.1
15402.3
15418.1
15433.3
15448
15462.1
15475.7
15488.6
15500.8
15512.4
15523.4
15533.6
15543.1
15551.9
15559.9
15567.2
15573.7
15579.4
15584.3
15588.4
15591.6
15594.2
15595.7
15596.7
14851.7
14851.2
14849.9
14848.2
14845.7
14842.8
14839.2
14835.1
14830.3
14825.1
14819.2
14812.8
14805.9
14798.4
14790.4
14782
14773
14763.5
14753.6
14743.3
14732.5
14721.3
14709.8
14697.8
14685.5
14672.9
14660
14646.8
14633.3
14619.6
14605.7
14591.5
14577.3
14562.8
14548.3
14533.6
14518.9
14504.2
14489.4
14474.7
14460
14445.3
14430.8
14416.4
14402.1
14388
14374.1
14360.4
14347
14333.9
14321
14308.5
14296.4
14284.6
14273.2
14262.3
14251.7
14241.7
14232.2
14223.1
14214.6
14206.7
14199.3
14192.6
14186.4
14180.9
14176
14171.7
14168.2
14165.3
14163.1
14161.7
14161
14161
14161.7
14163.2
14165.5
14168.5
14172.2
14176.7
14182
14188.1
14194.9
14202.4
14210.7
14219.8
14229.5
14240
14251.2
14263.1
14275.6
14288.8
14302.7
14317.1
14332.2
14347.8
14364
14380.7
14397.9
14415.5
14433.6
14452.1
14471
14490.2
14509.7
14529.5
14549.6
14569.8
14590.2
14610.8
14631.5
14652.2
14672.9
14693.7
14714.4
14735
14755.5
14775.9
14796
14816
14835.7
14855.1
14874.1
14892.8
14911.2
14929.1
14946.5
14963.5
14979.9
14995.8
15011.1
15025.9
15040
15053.5
15066.3
15078.4
15089.8
15100.5
15110.4
15119.5
15127.9
15135.5
15142.3
15148.2
15153.3
15157.7
15161
15163.7
15165.3
15166.3
14414.9
14414.4
14413
14411.3
14408.7
14405.6
14401.9
14397.6
14392.6
14387.1
14381
14374.4
14367.1
14359.4
14351.1
14342.2
14332.9
14323
14312.7
14301.9
14290.7
14279
14266.9
14254.5
14241.6
14228.5
14215
14201.2
14187.1
14172.8
14158.2
14143.5
14128.5
14113.4
14098.2
14082.9
14067.5
14052.1
14036.7
14021.2
14005.8
13990.5
13975.3
13960.2
13945.2
13930.4
13915.9
13901.5
13887.4
13873.6
13860.1
13847
13834.2
13821.8
13809.8
13798.3
13787.2
13776.6
13766.5
13757
13748
13739.5
13731.7
13724.5
13717.9
13712
13706.7
13702.1
13698.3
13695.1
13692.7
13691
13690.1
13689.9
13690.6
13692
13694.2
13697.1
13700.9
13705.5
13710.9
13717.1
13724
13731.8
13740.3
13749.7
13759.8
13770.6
13782.2
13794.5
13807.5
13821.2
13835.6
13850.6
13866.3
13882.6
13899.4
13916.8
13934.7
13953.1
13972
13991.3
14011
14031
14051.4
14072.1
14093
14114.2
14135.5
14157
14178.6
14200.2
14221.9
14243.6
14265.2
14286.8
14308.2
14329.5
14350.6
14371.4
14392
14412.3
14432.2
14451.7
14470.9
14489.6
14507.8
14525.5
14542.7
14559.3
14575.4
14590.8
14605.5
14619.6
14633
14645.7
14657.6
14668.7
14679.1
14688.7
14697.4
14705.3
14712.4
14718.6
14724
14728.5
14732
14734.8
14736.5
14737.5
13979.2
13978.6
13977.2
13975.4
13972.7
13969.5
13965.6
13961.1
13955.9
13950.2
13943.8
13936.9
13929.4
13921.2
13912.6
13903.3
13893.6
13883.3
13872.5
13861.2
13849.5
13837.3
13824.7
13811.7
13798.3
13784.5
13770.4
13756
13741.3
13726.3
13711.1
13695.7
13680
13664.2
13648.3
13632.3
13616.2
13600
13583.8
13567.7
13551.5
13535.5
13519.5
13503.6
13487.9
13472.4
13457.1
13442
13427.2
13412.7
13398.5
13384.7
13371.2
13358.2
13345.5
13333.4
13321.7
13310.5
13299.8
13289.7
13280.1
13271.2
13262.9
13255.2
13248.1
13241.8
13236.1
13231.2
13227
13223.5
13220.8
13218.9
13217.7
13217.4
13217.9
13219.2
13221.3
13224.3
13228.1
13232.7
13238.2
13244.5
13251.6
13259.6
13268.4
13278.1
13288.5
13299.7
13311.7
13324.5
13338
13352.3
13367.2
13382.9
13399.2
13416.2
13433.7
13451.9
13470.6
13489.8
13509.5
13529.6
13550.2
13571.2
13592.5
13614.1
13636
13658.1
13680.4
13702.9
13725.5
13748.2
13770.9
13793.5
13816.2
13838.7
13861.2
13883.4
13905.5
13927.3
13948.9
13970.1
13990.9
14011.4
14031.4
14051
14070.1
14088.6
14106.6
14124
14140.8
14156.9
14172.4
14187.1
14201.1
14214.3
14226.8
14238.5
14249.3
14259.3
14268.5
14276.8
14284.2
14290.7
14296.3
14301
14304.7
14307.7
14309.4
14310.4
13544.5
13544
13542.5
13540.6
13537.8
13534.5
13530.4
13525.7
13520.3
13514.3
13507.7
13500.4
13492.5
13484.1
13475
13465.4
13455.2
13444.4
13433.2
13421.4
13409.1
13396.4
13383.2
13369.6
13355.6
13341.2
13326.4
13311.3
13295.9
13280.2
13264.3
13248.1
13231.7
13215.2
13198.5
13181.7
13164.8
13147.9
13130.9
13114
13097
13080.2
13063.4
13046.7
13030.3
13014
12997.9
12982
12966.5
12951.2
12936.3
12921.7
12907.5
12893.7
12880.4
12867.5
12855.1
12843.3
12832
12821.3
12811.1
12801.6
12792.8
12784.5
12777
12770.2
12764.1
12758.8
12754.2
12750.4
12747.4
12745.2
12743.8
12743.3
12743.6
12744.8
12746.9
12749.8
12753.6
12758.3
12763.8
12770.3
12777.6
12785.8
12794.9
12804.9
12815.7
12827.3
12839.8
12853
12867.1
12881.9
12897.5
12913.8
12930.9
12948.6
12966.9
12985.9
13005.4
13025.5
13046.1
13067.2
13088.7
13110.7
13133
13155.6
13178.5
13201.7
13225.1
13248.6
13272.3
13296
13319.8
13343.6
13367.3
13390.9
13414.5
13437.8
13460.9
13483.8
13506.3
13528.6
13550.4
13571.9
13592.9
13613.4
13633.4
13652.8
13671.7
13689.9
13707.4
13724.3
13740.5
13755.9
13770.6
13784.5
13797.6
13809.8
13821.2
13831.6
13841.2
13849.9
13857.7
13864.5
13870.4
13875.3
13879.1
13882.2
13884.1
13885.2
13111.1
13110.5
13109
13106.9
13104
13100.5
13096.3
13091.4
13085.8
13079.5
13072.6
13065
13056.7
13047.9
13038.4
13028.3
13017.7
13006.4
12994.6
12982.3
12969.5
12956.2
12942.4
12928.1
12913.4
12898.4
12882.9
12867.1
12851
12834.5
12817.8
12800.9
12783.7
12766.4
12748.9
12731.2
12713.5
12695.7
12677.9
12660.1
12642.3
12624.6
12607
12589.5
12572.2
12555
12538.1
12521.4
12505
12489
12473.2
12457.9
12442.9
12428.4
12414.3
12400.6
12387.6
12375.1
12363.1
12351.7
12340.9
12330.8
12321.4
12312.6
12304.5
12297.2
12290.6
12284.9
12279.9
12275.7
12272.4
12269.9
12268.3
12267.5
12267.7
12268.7
12270.7
12273.6
12277.4
12282.1
12287.8
12294.4
12301.9
12310.3
12319.7
12330
12341.2
12353.3
12366.2
12380
12394.7
12410.1
12426.4
12443.4
12461.2
12479.7
12498.9
12518.7
12539.1
12560.2
12581.8
12603.8
12626.4
12649.4
12672.8
12696.5
12720.6
12744.9
12769.4
12794.1
12818.9
12843.8
12868.7
12893.7
12918.6
12943.4
12968
12992.5
13016.8
13040.8
13064.4
13087.8
13110.7
13133.2
13155.2
13176.7
13197.7
13218.1
13237.9
13257
13275.4
13293.1
13310.1
13326.3
13341.6
13356.2
13369.9
13382.7
13394.6
13405.6
13415.7
13424.8
13432.9
13440.1
13446.2
13451.4
13455.5
13458.7
13460.6
13461.7
12678.8
12678.2
12676.6
12674.5
12671.4
12667.8
12663.3
12658.2
12652.3
12645.8
12638.5
12630.6
12622
12612.7
12602.8
12592.3
12581.1
12569.4
12557
12544.1
12530.7
12516.7
12502.3
12487.4
12472
12456.2
12440
12423.4
12406.5
12389.2
12371.7
12353.9
12335.9
12317.7
12299.3
12280.8
12262.2
12243.5
12224.8
12206.1
12187.4
12168.8
12150.3
12131.9
12113.6
12095.6
12077.8
12060.2
12043
12026
12009.4
11993.2
11977.4
11962.1
11947.2
11932.9
11919
11905.7
11893
11880.9
11869.4
11858.7
11848.6
11839.2
11830.6
11822.7
11815.6
11809.4
11804
11799.4
11795.7
11792.9
11791
11790
11789.9
11790.8
11792.7
11795.5
11799.3
11804.1
11809.9
11816.6
11824.3
11833.1
11842.7
11853.4
11865
11877.5
11891
11905.4
11920.6
11936.8
11953.7
11971.5
11990.1
12009.5
12029.5
12050.3
12071.7
12093.8
12116.4
12139.6
12163.2
12187.4
12211.9
12236.8
12262.1
12287.6
12313.3
12339.2
12365.3
12391.5
12417.7
12443.9
12470
12496.1
12522
12547.7
12573.2
12598.3
12623.2
12647.7
12671.8
12695.4
12718.5
12741.1
12763.1
12784.5
12805.3
12825.4
12844.7
12863.3
12881.1
12898.1
12914.2
12929.5
12943.9
12957.3
12969.9
12981.4
12992
13001.5
13010.1
13017.6
13024
13029.4
13033.7
13037.1
13039.1
13040.3
12247.8
12247.2
12245.5
12243.3
12240.1
12236.3
12231.6
12226.3
12220.1
12213.3
12205.7
12197.4
12188.4
12178.7
12168.3
12157.2
12145.6
12133.3
12120.3
12106.8
12092.7
12078.1
12063
12047.3
12031.2
12014.6
11997.6
11980.2
11962.5
11944.4
11926
11907.3
11888.4
11869.3
11850
11830.5
11811
11791.3
11771.7
11752
11732.3
11712.7
11693.2
11673.9
11654.7
11635.7
11616.9
11598.4
11580.2
11562.3
11544.8
11527.7
11511.1
11494.8
11479.1
11463.9
11449.2
11435.1
11421.7
11408.8
11396.6
11385.1
11374.4
11364.4
11355.1
11346.7
11339
11332.3
11326.4
11321.3
11317.2
11314.1
11311.9
11310.6
11310.3
11311.1
11312.8
11315.6
11319.4
11324.2
11330
11336.9
11344.9
11353.9
11363.9
11374.9
11386.9
11399.9
11414
11428.9
11444.9
11461.7
11479.5
11498.1
11517.6
11537.8
11558.9
11580.6
11603.1
11626.2
11650
11674.3
11699.2
11724.5
11750.3
11776.5
11803
11829.8
11856.9
11884.1
11911.5
11939
11966.6
11994.1
12021.6
12049
12076.2
12103.3
12130.1
12156.5
12182.7
12208.4
12233.7
12258.6
12282.9
12306.6
12329.7
12352.2
12374
12395.1
12415.4
12435
12453.7
12471.5
12488.5
12504.5
12519.6
12533.8
12546.9
12559
12570.1
12580.2
12589.1
12597
12603.8
12609.5
12614
12617.5
12619.6
12620.9
11818.1
11817.4
11815.8
11813.4
11810.1
11806.1
11801.2
11795.6
11789.2
11782
11774
11765.3
11755.9
11745.7
11734.9
11723.3
11711.1
11698.2
11684.6
11670.5
11655.7
11640.4
11624.5
11608.1
11591.1
11573.7
11555.9
11537.7
11519
11500
11480.7
11461.1
11441.2
11421.1
11400.8
11380.3
11359.8
11339.1
11318.4
11297.7
11277
11256.4
11235.9
11215.5
11195.2
11175.2
11155.5
11135.9
11116.8
11097.9
11079.4
11061.4
11043.7
11026.6
11009.9
10993.8
10978.3
10963.4
10949.1
10935.4
10922.4
10910.2
10898.7
10888
10878.1
10869
10860.8
10853.4
10847
10841.5
10837
10833.4
10830.8
10829.3
10828.8
10829.3
10830.9
10833.6
10837.4
10842.2
10848.2
10855.2
10863.4
10872.6
10883
10894.4
10906.9
10920.4
10935
10950.7
10967.3
10984.9
11003.5
11023
11043.4
11064.6
11086.7
11109.6
11133.2
11157.5
11182.4
11208
11234.2
11260.8
11287.9
11315.5
11343.4
11371.6
11400.1
11428.7
11457.6
11486.5
11515.5
11544.5
11573.4
11602.2
11630.9
11659.3
11687.5
11715.4
11742.9
11770
11796.6
11822.7
11848.3
11873.2
11897.6
11921.2
11944.1
11966.3
11987.7
12008.2
12027.9
12046.6
12064.5
12081.3