/*--------------------------------*- C++ -*----------------------------------*\
| =========                 |                                                 |
| \\      /  F ield         | OpenFOAM: The Open Source CFD Toolbox           |
|  \\    /   O peration     | Version:  v2006                                 |
|   \\  /    A nd           | Website:  www.openfoam.com                      |
|    \\/     M anipulation  |                                                 |
\*---------------------------------------------------------------------------*/
FoamFile
{
    version     2.0;
    format      ascii;
    class       volVectorField;
    location    "3";
    object      U;
}
// * * * * * * * * * * * * * * * * * * * * * * * * * * * * * * * * * * * * * //

dimensions      [0 1 -1 0 0 0 0];


internalField   nonuniform List<vector> 
50000
(
(0.007607 -0.00369075 0)
(0.00175954 -0.00480703 0)
(0.0178689 -0.00412121 0)
(0.0126685 -0.004425 0)
(0.026968 -0.00419696 0)
(0.0237754 -0.00425161 0)
(0.0358086 -0.00410131 0)
(0.0346897 -0.00416389 0)
(0.044595 -0.00389963 0)
(0.0451984 -0.00407393 0)
(0.0533684 -0.00369884 0)
(0.0552586 -0.003917 0)
(0.0620578 -0.00351424 0)
(0.0648678 -0.00369453 0)
(0.0705786 -0.00332561 0)
(0.0740092 -0.00342603 0)
(0.0788641 -0.00312639 0)
(0.0826554 -0.00313505 0)
(0.0868738 -0.00291784 0)
(0.0907699 -0.00284029 0)
(0.0945877 -0.00269851 0)
(0.0983383 -0.00257286 0)
(0.10195 -0.00245979 0)
(0.105456 -0.00234279 0)
(0.108854 -0.00223125 0)
(0.112143 -0.00212309 0)
(0.115322 -0.0020186 0)
(0.118391 -0.00191909 0)
(0.121353 -0.00182416 0)
(0.124208 -0.00173424 0)
(0.126958 -0.00164937 0)
(0.129605 -0.00157091 0)
(0.13215 -0.00149862 0)
(0.134597 -0.00143282 0)
(0.136947 -0.00137367 0)
(0.139202 -0.00132066 0)
(0.141366 -0.00127326 0)
(0.143439 -0.00123082 0)
(0.145424 -0.00119222 0)
(0.14732 -0.001156 0)
(0.149127 -0.0011208 0)
(0.150845 -0.00108559 0)
(0.152474 -0.00104959 0)
(0.154012 -0.00101228 0)
(0.155457 -0.000973123 0)
(0.15681 -0.000931658 0)
(0.158067 -0.000887448 0)
(0.159227 -0.000840401 0)
(0.16029 -0.00079055 0)
(0.161253 -0.00073792 0)
(0.162116 -0.000682685 0)
(0.162877 -0.000625041 0)
(0.163536 -0.000565092 0)
(0.164092 -0.000502995 0)
(0.164545 -0.000438959 0)
(0.164894 -0.000373128 0)
(0.16514 -0.000305607 0)
(0.165281 -0.000236539 0)
(0.165319 -0.000165853 0)
(0.165253 -9.3483e-05 0)
(0.165083 -1.97902e-05 0)
(0.16481 5.47411e-05 0)
(0.164434 0.000130168 0)
(0.163957 0.000206077 0)
(0.16338 0.000282614 0)
(0.162704 0.000359504 0)
(0.161931 0.000436822 0)
(0.161062 0.000514257 0)
(0.1601 0.00059187 0)
(0.159045 0.000669492 0)
(0.157899 0.000746952 0)
(0.156665 0.000824095 0)
(0.155344 0.000900729 0)
(0.153938 0.000976699 0)
(0.152451 0.00105215 0)
(0.150884 0.00112723 0)
(0.149239 0.0012027 0)
(0.147518 0.00128038 0)
(0.145722 0.00136215 0)
(0.14385 0.00144937 0)
(0.141901 0.00154317 0)
(0.139876 0.00164368 0)
(0.137771 0.00175028 0)
(0.135588 0.00186212 0)
(0.133326 0.00197815 0)
(0.130985 0.00209766 0)
(0.128564 0.00222046 0)
(0.126066 0.00234626 0)
(0.123489 0.00247474 0)
(0.120835 0.00260573 0)
(0.118103 0.00273889 0)
(0.115294 0.00287399 0)
(0.112409 0.0030111 0)
(0.109448 0.00315034 0)
(0.106411 0.00329172 0)
(0.103299 0.00343541 0)
(0.100111 0.00358173 0)
(0.096847 0.00373043 0)
(0.0935073 0.00388213 0)
(0.0900869 0.00403751 0)
(0.0865832 0.00418192 0)
(0.0830134 0.00427808 0)
(0.0794141 0.00429359 0)
(0.0758258 0.00422848 0)
(0.0722808 0.0041069 0)
(0.0687978 0.00395523 0)
(0.0653851 0.0037919 0)
(0.062046 0.00362685 0)
(0.0587826 0.00346455 0)
(0.0555957 0.00330694 0)
(0.0524855 0.00315434 0)
(0.0494523 0.00300569 0)
(0.0464974 0.00285934 0)
(0.0436223 0.00271381 0)
(0.0408294 0.00256801 0)
(0.0381219 0.00242115 0)
(0.035503 0.00227295 0)
(0.0329753 0.00212334 0)
(0.0305417 0.00197225 0)
(0.0282053 0.00181985 0)
(0.0259686 0.00166696 0)
(0.0238335 0.00151445 0)
(0.0218018 0.0013623 0)
(0.0198743 0.00121006 0)
(0.0180504 0.00105737 0)
(0.0163293 0.000904206 0)
(0.0147104 0.000751 0)
(0.0131929 0.000598616 0)
(0.0117757 0.000447695 0)
(0.0104577 0.000299012 0)
(0.0092373 0.000153383 0)
(0.00811202 1.112e-05 0)
(0.00707925 -0.000127656 0)
(0.00613681 -0.000262715 0)
(0.00528174 -0.000393771 0)
(0.00451257 -0.00052022 0)
(0.00382022 -0.000640089 0)
(0.00321377 -0.000751088 0)
(0.00263998 -0.000854715 0)
(0.00224301 -0.000942151 0)
(0.00161134 -0.00104303 0)
(0.00165058 -0.00111115 0)
(0.000623272 -0.00122807 0)
(0.00155526 -0.00128228 0)
(-0.000419401 -0.0014988 0)
(0.00199464 -0.00140362 0)
(-0.00140293 -0.00175514 0)
(0.00262718 -0.00185914 0)
(-0.0016912 -0.00109907 0)
(0.00287342 -0.00110136 0)
(0.00889786 -0.00893768 0)
(-0.000899668 -0.0103549 0)
(0.016408 -0.00962978 0)
(0.0080489 -0.00971536 0)
(0.0231852 -0.00952916 0)
(0.0168939 -0.00965812 0)
(0.0300628 -0.00933773 0)
(0.0256952 -0.00961148 0)
(0.0369723 -0.00908624 0)
(0.0344622 -0.00952521 0)
(0.0438887 -0.00884481 0)
(0.0431396 -0.00935134 0)
(0.0508487 -0.00863142 0)
(0.0516537 -0.00908952 0)
(0.0578951 -0.00843245 0)
(0.0599485 -0.00875773 0)
(0.065046 -0.00822784 0)
(0.0679869 -0.00837797 0)
(0.0722869 -0.00799647 0)
(0.075746 -0.00797322 0)
(0.0795755 -0.00772487 0)
(0.0832148 -0.00756868 0)
(0.0868369 -0.0073846 0)
(0.0904205 -0.00719318 0)
(0.0939397 -0.00700337 0)
(0.0974022 -0.00680575 0)
(0.100798 -0.00660733 0)
(0.104122 -0.00640657 0)
(0.107372 -0.00620446 0)
(0.110538 -0.0060011 0)
(0.113617 -0.00579644 0)
(0.116603 -0.00559219 0)
(0.119491 -0.00538726 0)
(0.122277 -0.00518268 0)
(0.124956 -0.00497825 0)
(0.127522 -0.00477378 0)
(0.129973 -0.0045693 0)
(0.132303 -0.00436436 0)
(0.134511 -0.00415853 0)
(0.136595 -0.00395126 0)
(0.138552 -0.0037423 0)
(0.140381 -0.00353159 0)
(0.142082 -0.0033191 0)
(0.143655 -0.00310474 0)
(0.145099 -0.00288844 0)
(0.146416 -0.00267032 0)
(0.147606 -0.00245045 0)
(0.148671 -0.00222917 0)
(0.149611 -0.00200685 0)
(0.150429 -0.00178371 0)
(0.151125 -0.00156011 0)
(0.151701 -0.00133642 0)
(0.15216 -0.00111296 0)
(0.152502 -0.000890028 0)
(0.152731 -0.000667928 0)
(0.152847 -0.000446907 0)
(0.152854 -0.000227098 0)
(0.152753 -8.40289e-06 0)
(0.152547 0.000207474 0)
(0.152239 0.000420815 0)
(0.151834 0.000631511 0)
(0.151333 0.000838907 0)
(0.15074 0.00104324 0)
(0.150057 0.00124374 0)
(0.149286 0.00144031 0)
(0.148432 0.00163292 0)
(0.147495 0.00182145 0)
(0.146481 0.00200552 0)
(0.145391 0.00218518 0)
(0.14423 0.00235985 0)
(0.143001 0.00252964 0)
(0.141706 0.0026943 0)
(0.14035 0.00285335 0)
(0.138935 0.00300666 0)
(0.137467 0.00315424 0)
(0.135946 0.00329576 0)
(0.134379 0.00343137 0)
(0.132769 0.00356171 0)
(0.131123 0.00368726 0)
(0.129445 0.00380813 0)
(0.127742 0.0039248 0)
(0.126022 0.00403737 0)
(0.12429 0.00414574 0)
(0.122552 0.00424991 0)
(0.120813 0.00434996 0)
(0.119078 0.00444591 0)
(0.117353 0.00453752 0)
(0.115641 0.00462501 0)
(0.113947 0.00470863 0)
(0.112277 0.00478848 0)
(0.110634 0.00486465 0)
(0.109022 0.00493739 0)
(0.107448 0.00500697 0)
(0.105913 0.00507358 0)
(0.104424 0.00513756 0)
(0.102985 0.00519944 0)
(0.1016 0.00525999 0)
(0.100274 0.00531988 0)
(0.0990129 0.00538057 0)
(0.0978243 0.00544436 0)
(0.0967151 0.00550755 0)
(0.0956737 0.00555611 0)
(0.0946699 0.00557701 0)
(0.093668 0.00557085 0)
(0.0926388 0.0055486 0)
(0.0915667 0.00551887 0)
(0.0904464 0.00548329 0)
(0.0892764 0.0054412 0)
(0.0880574 0.00539295 0)
(0.0867919 0.00533929 0)
(0.0854824 0.00528046 0)
(0.084131 0.00521617 0)
(0.0827393 0.00514597 0)
(0.0813081 0.00506961 0)
(0.0798377 0.00498681 0)
(0.0783278 0.00489731 0)
(0.0767773 0.00480121 0)
(0.0751851 0.00469927 0)
(0.0735505 0.00459249 0)
(0.0718734 0.0044817 0)
(0.0701532 0.00436756 0)
(0.0683887 0.00425068 0)
(0.0665784 0.00413154 0)
(0.0647217 0.00401061 0)
(0.0628181 0.00388852 0)
(0.0608674 0.00376585 0)
(0.0588697 0.00364299 0)
(0.0568245 0.00352027 0)
(0.0547316 0.00339822 0)
(0.0525907 0.00327753 0)
(0.0504022 0.00315878 0)
(0.0481661 0.00304251 0)
(0.0458829 0.00292921 0)
(0.0435536 0.00281895 0)
(0.0411781 0.0027123 0)
(0.0387582 0.00261048 0)
(0.0362924 0.00251365 0)
(0.0337944 0.00242303 0)
(0.0312279 0.00233677 0)
(0.0287127 0.00226099 0)
(0.0259499 0.00218178 0)
(0.0236032 0.00212078 0)
(0.0203975 0.00202915 0)
(0.0186071 0.00200736 0)
(0.014311 0.00181459 0)
(0.0139203 0.00193956 0)
(0.0076332 0.0016797 0)
(0.00924271 0.00154969 0)
(0.000920767 0.00136634 0)
(0.00583489 0.00261248 0)
(0.00863227 -0.0143892 0)
(-0.000105962 -0.0159497 0)
(0.0171101 -0.0153422 0)
(0.00946873 -0.0149701 0)
(0.0247246 -0.0150985 0)
(0.0190059 -0.0150079 0)
(0.0323042 -0.0149314 0)
(0.0285221 -0.0149449 0)
(0.0398346 -0.0147394 0)
(0.037949 -0.0147934 0)
(0.0473325 -0.0145259 0)
(0.0471974 -0.014573 0)
(0.0548321 -0.0142753 0)
(0.05618 -0.0142987 0)
(0.0623572 -0.013981 0)
(0.0648349 -0.0139706 0)
(0.0699068 -0.0136478 0)
(0.0731242 -0.0135852 0)
(0.0774508 -0.0132788 0)
(0.0810362 -0.0131433 0)
(0.0849267 -0.0128661 0)
(0.0885904 -0.0126536 0)
(0.0922491 -0.0123958 0)
(0.0958256 -0.0121328 0)
(0.0993264 -0.0118645 0)
(0.102759 -0.01158 0)
(0.106108 -0.0112858 0)
(0.109374 -0.0109816 0)
(0.112556 -0.0106684 0)
(0.115648 -0.0103465 0)
(0.118648 -0.0100161 0)
(0.121553 -0.00967767 0)
(0.12436 -0.00933175 0)
(0.127065 -0.00897884 0)
(0.129668 -0.00861927 0)
(0.132164 -0.00825362 0)
(0.134551 -0.00788253 0)
(0.136829 -0.00750641 0)
(0.138994 -0.00712599 0)
(0.141046 -0.00674218 0)
(0.142982 -0.00635554 0)
(0.144803 -0.0059663 0)
(0.146508 -0.0055752 0)
(0.148097 -0.00518283 0)
(0.149569 -0.00478962 0)
(0.150924 -0.00439606 0)
(0.152162 -0.00400291 0)
(0.153285 -0.00361042 0)
(0.154291 -0.00321874 0)
(0.155183 -0.0028286 0)
(0.15596 -0.00244056 0)
(0.156623 -0.00205493 0)
(0.157173 -0.00167215 0)
(0.157612 -0.0012927 0)
(0.157939 -0.000916994 0)
(0.158158 -0.000545566 0)
(0.158269 -0.000179046 0)
(0.158272 0.000181747 0)
(0.158168 0.000537868 0)
(0.157961 0.000888699 0)
(0.157653 0.00123302 0)
(0.157245 0.00157101 0)
(0.156739 0.0019018 0)
(0.156137 0.0022257 0)
(0.155443 0.00254203 0)
(0.154658 0.0028501 0)
(0.153784 0.0031495 0)
(0.152825 0.00344014 0)
(0.151781 0.00372163 0)
(0.150658 0.00399416 0)
(0.149457 0.00425719 0)
(0.148181 0.00451016 0)
(0.146833 0.00475349 0)
(0.145416 0.00498713 0)
(0.143933 0.00521068 0)
(0.142386 0.00542373 0)
(0.14078 0.00562548 0)
(0.139116 0.00581586 0)
(0.137398 0.00599494 0)
(0.135629 0.00616303 0)
(0.133813 0.00631976 0)
(0.131953 0.00646544 0)
(0.130054 0.0066007 0)
(0.128119 0.0067259 0)
(0.126151 0.0068411 0)
(0.124153 0.00694633 0)
(0.122129 0.00704227 0)
(0.120081 0.00712872 0)
(0.118013 0.0072054 0)
(0.115928 0.00727235 0)
(0.113828 0.00732969 0)
(0.111716 0.00737736 0)
(0.109595 0.00741508 0)
(0.107467 0.00744251 0)
(0.105337 0.00745938 0)
(0.103206 0.00746526 0)
(0.101078 0.00745935 0)
(0.0989578 0.00744082 0)
(0.0968492 0.00740803 0)
(0.0947581 0.00735837 0)
(0.0926918 0.0072945 0)
(0.0906567 0.00722852 0)
(0.0886538 0.00717325 0)
(0.0866819 0.00713262 0)
(0.0847416 0.00710236 0)
(0.082834 0.00707622 0)
(0.0809609 0.00704977 0)
(0.0791255 0.00702086 0)
(0.0773282 0.00698878 0)
(0.0755679 0.00695348 0)
(0.0738437 0.00691512 0)
(0.0721548 0.00687385 0)
(0.0704995 0.00682958 0)
(0.0688742 0.00678221 0)
(0.0672745 0.00673215 0)
(0.0656965 0.00668013 0)
(0.0641364 0.00662686 0)
(0.0625901 0.00657325 0)
(0.0610527 0.00652018 0)
(0.059519 0.0064682 0)
(0.0579843 0.0064175 0)
(0.0564438 0.00636828 0)
(0.0548934 0.00632107 0)
(0.0533294 0.00627647 0)
(0.0517481 0.00623486 0)
(0.050146 0.00619649 0)
(0.0485196 0.00616149 0)
(0.0468654 0.00612975 0)
(0.0451804 0.00610136 0)
(0.0434617 0.00607636 0)
(0.0417067 0.0060546 0)
(0.0399135 0.00603593 0)
(0.0380802 0.00602011 0)
(0.0362058 0.0060068 0)
(0.0342887 0.00599607 0)
(0.0323291 0.00598773 0)
(0.0303243 0.00598086 0)
(0.0282854 0.00597516 0)
(0.0261763 0.00597056 0)
(0.0241111 0.00596614 0)
(0.0217985 0.00596407 0)
(0.0198904 0.00596103 0)
(0.0171266 0.00596041 0)
(0.0157716 0.0059687 0)
(0.0119294 0.00598109 0)
(0.0119556 0.006042 0)
(0.00615844 0.00606219 0)
(0.00815006 0.00580953 0)
(0.000492028 0.00434389 0)
(0.00560633 0.00752943 0)
(0.00829273 -0.0203764 0)
(0.000335303 -0.0228309 0)
(0.0173273 -0.0217583 0)
(0.0102134 -0.0213881 0)
(0.0253849 -0.0214757 0)
(0.020162 -0.0213206 0)
(0.0332882 -0.0212835 0)
(0.0300561 -0.0211456 0)
(0.041108 -0.021007 0)
(0.0397685 -0.0208948 0)
(0.0488973 -0.0206679 0)
(0.0492124 -0.0205665 0)
(0.0566775 -0.0202684 0)
(0.0583276 -0.0201602 0)
(0.0644395 -0.019809 0)
(0.067068 -0.0196712 0)
(0.0721531 -0.0192917 0)
(0.075415 -0.0190958 0)
(0.0797813 -0.0187165 0)
(0.0833636 -0.0184446 0)
(0.0872793 -0.0180756 0)
(0.0909243 -0.017736 0)
(0.0945815 -0.017363 0)
(0.0981347 -0.0169809 0)
(0.101613 -0.0165875 0)
(0.105019 -0.0161786 0)
(0.108335 -0.0157583 0)
(0.111563 -0.0153262 0)
(0.114703 -0.0148829 0)
(0.117751 -0.014429 0)
(0.120704 -0.013965 0)
(0.123562 -0.0134917 0)
(0.126321 -0.0130097 0)
(0.12898 -0.0125196 0)
(0.131537 -0.0120219 0)
(0.133991 -0.0115173 0)
(0.13634 -0.0110064 0)
(0.138583 -0.0104902 0)
(0.140718 -0.00996886 0)
(0.142743 -0.00944311 0)
(0.144659 -0.0089135 0)
(0.146464 -0.00838039 0)
(0.148156 -0.00784442 0)
(0.149736 -0.00730595 0)
(0.151203 -0.00676555 0)
(0.152557 -0.00622391 0)
(0.153796 -0.00568161 0)
(0.154922 -0.0051391 0)
(0.155934 -0.00459702 0)
(0.156833 -0.00405612 0)
(0.157618 -0.00351693 0)
(0.158289 -0.00298009 0)
(0.158849 -0.00244633 0)
(0.159297 -0.00191634 0)
(0.159633 -0.00139075 0)
(0.15986 -0.000870161 0)
(0.159976 -0.000355161 0)
(0.159987 0.000153852 0)
(0.159893 0.000655588 0)
(0.159693 0.00114992 0)
(0.159389 0.00163663 0)
(0.158983 0.00211538 0)
(0.158479 0.00258443 0)
(0.157877 0.003044 0)
(0.15718 0.00349352 0)
(0.156388 0.00393257 0)
(0.155506 0.0043602 0)
(0.154535 0.00477589 0)
(0.153479 0.00517933 0)
(0.15234 0.0055708 0)
(0.151119 0.00594912 0)
(0.14982 0.00631419 0)
(0.148447 0.00666596 0)
(0.147002 0.00700396 0)
(0.145488 0.00732785 0)
(0.143907 0.00763781 0)
(0.142263 0.00793308 0)
(0.140561 0.00821331 0)
(0.138802 0.00847877 0)
(0.13699 0.00872982 0)
(0.135126 0.00896684 0)
(0.133216 0.00918975 0)
(0.131262 0.00939906 0)
(0.129268 0.00959522 0)
(0.127236 0.00977808 0)
(0.125171 0.00994773 0)
(0.123076 0.0101043 0)
(0.120955 0.0102483 0)
(0.118809 0.0103798 0)
(0.116644 0.0104988 0)
(0.114463 0.0106059 0)
(0.112268 0.0107012 0)
(0.110063 0.0107848 0)
(0.10785 0.0108572 0)
(0.105633 0.0109184 0)
(0.103413 0.0109685 0)
(0.101194 0.0110074 0)
(0.0989759 0.0110348 0)
(0.0967597 0.0110497 0)
(0.0945452 0.011051 0)
(0.0923306 0.0110366 0)
(0.0901148 0.0110033 0)
(0.087901 0.0109478 0)
(0.0856945 0.0108678 0)
(0.0835006 0.0107631 0)
(0.0813249 0.0106381 0)
(0.0791713 0.0105001 0)
(0.0770392 0.0103562 0)
(0.0749274 0.0102108 0)
(0.0728362 0.0100661 0)
(0.0707658 0.00992355 0)
(0.0687163 0.0097837 0)
(0.0666879 0.00964693 0)
(0.0646818 0.00951353 0)
(0.0626995 0.00938415 0)
(0.0607419 0.00925946 0)
(0.0588093 0.00914006 0)
(0.0569016 0.00902636 0)
(0.0550183 0.00891883 0)
(0.0531589 0.00881796 0)
(0.0513224 0.00872426 0)
(0.0495076 0.00863832 0)
(0.0477131 0.00856064 0)
(0.0459371 0.00849155 0)
(0.0441781 0.00843127 0)
(0.0424343 0.00837984 0)
(0.0407037 0.00833709 0)
(0.0389844 0.00830283 0)
(0.0372741 0.00827679 0)
(0.0355707 0.00825867 0)
(0.033872 0.00824814 0)
(0.0321761 0.00824465 0)
(0.0304811 0.00824759 0)
(0.0287851 0.00825624 0)
(0.0270858 0.00827019 0)
(0.0253829 0.00828895 0)
(0.023672 0.00831139 0)
(0.0219637 0.00833592 0)
(0.0202164 0.00836287 0)
(0.0185497 0.00838808 0)
(0.016653 0.00841718 0)
(0.0152049 0.00844327 0)
(0.0129005 0.0084686 0)
(0.0120637 0.00850957 0)
(0.00875093 0.00853886 0)
(0.00933908 0.0086461 0)
(0.00419048 0.00867934 0)
(0.00675808 0.00827227 0)
(2.07643e-05 0.00604196 0)
(0.00492257 0.0109274 0)
(0.00826931 -0.0260466 0)
(0.000470193 -0.0293104 0)
(0.0173432 -0.0279058 0)
(0.0104583 -0.0273952 0)
(0.02544 -0.0275599 0)
(0.0204619 -0.0272688 0)
(0.0334088 -0.0273251 0)
(0.0303838 -0.0270213 0)
(0.0413045 -0.0269808 0)
(0.0401167 -0.0266855 0)
(0.0491606 -0.026558 0)
(0.0495802 -0.0262585 0)
(0.0569913 -0.0260535 0)
(0.0587113 -0.0257452 0)
(0.0647994 -0.0254641 0)
(0.0674775 -0.0251428 0)
(0.0725684 -0.0247981 0)
(0.0758556 -0.0244495 0)
(0.0802528 -0.0240574 0)
(0.083843 -0.0236643 0)
(0.0877965 -0.0232382 0)
(0.0914521 -0.0227956 0)
(0.0951351 -0.0223339 0)
(0.0987043 -0.0218523 0)
(0.102199 -0.0213511 0)
(0.10562 -0.0208344 0)
(0.10895 -0.0203015 0)
(0.112192 -0.0197513 0)
(0.115346 -0.019186 0)
(0.118407 -0.0186062 0)
(0.121374 -0.0180127 0)
(0.124245 -0.017406 0)
(0.127016 -0.0167871 0)
(0.129687 -0.0161567 0)
(0.132256 -0.0155156 0)
(0.13472 -0.0148647 0)
(0.137079 -0.0142048 0)
(0.13933 -0.0135367 0)
(0.141473 -0.0128613 0)
(0.143505 -0.0121793 0)
(0.145426 -0.0114916 0)
(0.147235 -0.010799 0)
(0.148931 -0.0101025 0)
(0.150514 -0.00940265 0)
(0.151982 -0.00870011 0)
(0.153336 -0.00799591 0)
(0.154574 -0.0072909 0)
(0.155698 -0.00658592 0)
(0.156706 -0.0058821 0)
(0.1576 -0.0051802 0)
(0.158379 -0.00448079 0)
(0.159043 -0.00378476 0)
(0.159594 -0.00309304 0)
(0.160033 -0.00240639 0)
(0.160359 -0.00172563 0)
(0.160574 -0.00105161 0)
(0.160681 -0.000385087 0)
(0.160677 0.000273308 0)
(0.160564 0.000922669 0)
(0.160347 0.00156156 0)
(0.160027 0.00218955 0)
(0.159604 0.00280559 0)
(0.15908 0.00341028 0)
(0.158459 0.00400174 0)
(0.157742 0.00457981 0)
(0.15693 0.00514322 0)
(0.156026 0.00569241 0)
(0.155034 0.00622706 0)
(0.153955 0.00674541 0)
(0.152793 0.00724692 0)
(0.151549 0.00773103 0)
(0.150228 0.00819839 0)
(0.148831 0.00864794 0)
(0.147362 0.00907888 0)
(0.145824 0.00949092 0)
(0.144219 0.00988402 0)
(0.142551 0.0102586 0)
(0.140824 0.0106136 0)
(0.13904 0.0109485 0)
(0.137203 0.0112633 0)
(0.135316 0.0115584 0)
(0.133383 0.0118336 0)
(0.131406 0.012089 0)
(0.129391 0.0123248 0)
(0.127339 0.0125415 0)
(0.125253 0.0127389 0)
(0.123139 0.0129168 0)
(0.121 0.0130758 0)
(0.118838 0.0132166 0)
(0.116657 0.0133391 0)
(0.114461 0.0134434 0)
(0.112253 0.0135298 0)
(0.110036 0.0135985 0)
(0.107812 0.0136497 0)
(0.105586 0.0136835 0)
(0.103359 0.0137003 0)
(0.101134 0.0137006 0)
(0.0989137 0.0136849 0)
(0.0967009 0.0136538 0)
(0.0944976 0.0136084 0)
(0.0923053 0.0135505 0)
(0.0901247 0.0134835 0)
(0.0879558 0.0134107 0)
(0.0857982 0.0133343 0)
(0.0836505 0.0132556 0)
(0.0815079 0.0131747 0)
(0.0793671 0.0130895 0)
(0.0772303 0.0129978 0)
(0.0751015 0.0128979 0)
(0.0729838 0.0127896 0)
(0.070879 0.0126733 0)
(0.0687884 0.0125504 0)
(0.0667126 0.0124225 0)
(0.0646522 0.0122913 0)
(0.0626073 0.0121583 0)
(0.0605781 0.012025 0)
(0.058565 0.0118924 0)
(0.0565684 0.0117619 0)
(0.0545884 0.0116344 0)
(0.0526251 0.0115111 0)
(0.0506788 0.0113932 0)
(0.0487499 0.0112816 0)
(0.0468386 0.0111771 0)
(0.0449452 0.0110803 0)
(0.0430697 0.010992 0)
(0.041212 0.0109124 0)
(0.0393719 0.010842 0)
(0.0375494 0.0107809 0)
(0.0357441 0.0107292 0)
(0.0339557 0.0106868 0)
(0.0321837 0.0106537 0)
(0.0304276 0.0106293 0)
(0.0286867 0.0106133 0)
(0.0269604 0.0106051 0)
(0.0252475 0.0106041 0)
(0.0235487 0.0106098 0)
(0.0218588 0.0106212 0)
(0.0201903 0.010637 0)
(0.0184993 0.0106567 0)
(0.0169089 0.0106777 0)
(0.0151018 0.0107022 0)
(0.0137607 0.0107283 0)
(0.0115859 0.0107465 0)
(0.0108721 0.0107913 0)
(0.00774806 0.0107913 0)
(0.00845713 0.0109378 0)
(0.00358186 0.010902 0)
(0.00623844 0.0103435 0)
(-0.000138608 0.00762068 0)
(0.00460308 0.0139502 0)
(0.00819797 -0.0320891 0)
(0.000622377 -0.0361345 0)
(0.0172884 -0.0343851 0)
(0.0106411 -0.0337688 0)
(0.0254465 -0.033982 0)
(0.0206875 -0.0335696 0)
(0.0334889 -0.0337098 0)
(0.0306531 -0.0332238 0)
(0.0414648 -0.0332842 0)
(0.0404294 -0.0327826 0)
(0.0494053 -0.0327435 0)
(0.0499381 -0.032237 0)
(0.0573245 -0.032092 0)
(0.0591215 -0.0315869 0)
(0.065213 -0.0313316 0)
(0.0679331 -0.0308288 0)
(0.0730412 -0.0304727 0)
(0.0763587 -0.0299601 0)
(0.0807777 -0.0295207 0)
(0.0843965 -0.0289859 0)
(0.0883733 -0.0284784 0)
(0.0920576 -0.0279149 0)
(0.0957628 -0.0273481 0)
(0.0993628 -0.0267524 0)
(0.102883 -0.0261345 0)
(0.106329 -0.0255004 0)
(0.109687 -0.0248454 0)
(0.112956 -0.0241709 0)
(0.116134 -0.0234782 0)
(0.11922 -0.0227682 0)
(0.12221 -0.0220414 0)
(0.125102 -0.0212992 0)
(0.127895 -0.0205422 0)
(0.130586 -0.0197713 0)
(0.133172 -0.0189877 0)
(0.135654 -0.0181921 0)
(0.138028 -0.0173853 0)
(0.140294 -0.0165683 0)
(0.142449 -0.0157423 0)
(0.144492 -0.0149083 0)
(0.146423 -0.0140671 0)
(0.148241 -0.0132197 0)
(0.149943 -0.0123669 0)
(0.151531 -0.0115099 0)
(0.153003 -0.01065 0)
(0.154359 -0.00978801 0)
(0.155598 -0.00892496 0)
(0.156721 -0.0080618 0)
(0.157726 -0.00719975 0)
(0.158616 -0.00633983 0)
(0.15939 -0.0054829 0)
(0.160049 -0.00463005 0)
(0.160592 -0.00378239 0)
(0.161021 -0.00294089 0)
(0.161337 -0.00210652 0)
(0.161541 -0.00128034 0)
(0.161632 -0.000463506 0)
(0.161615 0.000342602 0)
(0.161491 0.00113876 0)
(0.161258 0.00192315 0)
(0.160919 0.00269444 0)
(0.160479 0.00345112 0)
(0.159937 0.00419363 0)
(0.159296 0.0049204 0)
(0.158557 0.00563054 0)
(0.157723 0.00632362 0)
(0.156798 0.00699898 0)
(0.155783 0.00765578 0)
(0.15468 0.00829365 0)
(0.153492 0.00891068 0)
(0.152223 0.00950747 0)
(0.150876 0.0100831 0)
(0.149453 0.0106366 0)
(0.147957 0.0111677 0)
(0.146392 0.011676 0)
(0.14476 0.0121609 0)
(0.143066 0.0126229 0)
(0.141311 0.013061 0)
(0.1395 0.0134752 0)
(0.137637 0.0138656 0)
(0.135724 0.0142318 0)
(0.133765 0.0145743 0)
(0.131764 0.0148932 0)
(0.129724 0.0151886 0)
(0.127648 0.0154605 0)
(0.125541 0.0157101 0)
(0.123406 0.0159372 0)
(0.121246 0.0161418 0)
(0.119064 0.0163241 0)
(0.116864 0.0164853 0)
(0.114648 0.0166255 0)
(0.112421 0.0167449 0)
(0.110185 0.016844 0)
(0.107941 0.0169231 0)
(0.105695 0.0169829 0)
(0.103447 0.0170237 0)
(0.101201 0.0170455 0)
(0.0989576 0.0170486 0)
(0.0967182 0.0170337 0)
(0.0944844 0.0170007 0)
(0.092258 0.0169496 0)
(0.0900402 0.0168807 0)
(0.0878328 0.016794 0)
(0.0856372 0.0166903 0)
(0.0834552 0.01657 0)
(0.0812911 0.0164343 0)
(0.0791479 0.0162861 0)
(0.0770252 0.0161294 0)
(0.0749209 0.0159678 0)
(0.0728337 0.0158033 0)
(0.0707628 0.0156375 0)
(0.0687078 0.0154711 0)
(0.0666686 0.0153047 0)
(0.0646451 0.0151391 0)
(0.0626373 0.014975 0)
(0.0606451 0.014813 0)
(0.0586683 0.0146538 0)
(0.0567064 0.0144983 0)
(0.0547592 0.0143471 0)
(0.0528265 0.0142011 0)
(0.0509081 0.014061 0)
(0.0490036 0.0139276 0)
(0.0471127 0.0138015 0)
(0.0452353 0.0136833 0)
(0.0433713 0.0135734 0)
(0.0415207 0.0134722 0)
(0.0396833 0.0133801 0)
(0.037859 0.0132973 0)
(0.036048 0.0132237 0)
(0.0342502 0.0131596 0)
(0.0324653 0.0131047 0)
(0.0306934 0.0130589 0)
(0.0289345 0.0130216 0)
(0.0271882 0.0129926 0)
(0.025454 0.0129713 0)
(0.0237332 0.0129569 0)
(0.0220212 0.012949 0)
(0.020331 0.0129466 0)
(0.0186189 0.0129485 0)
(0.0170081 0.0129546 0)
(0.0151884 0.0129618 0)
(0.0138217 0.0129781 0)
(0.0116551 0.0129761 0)
(0.010897 0.0130155 0)
(0.00781622 0.0129814 0)
(0.00843841 0.013155 0)
(0.00364922 0.0130574 0)
(0.00616176 0.0123506 0)
(-0.000117526 0.00911692 0)
(0.00454668 0.0168391 0)
(0.00813252 -0.0379659 0)
(0.000778409 -0.0427273 0)
(0.0172956 -0.0407006 0)
(0.0108857 -0.0399014 0)
(0.0255187 -0.0402375 0)
(0.0209935 -0.0396393 0)
(0.0336405 -0.0399286 0)
(0.0310162 -0.0392163 0)
(0.0416997 -0.0394335 0)
(0.0408499 -0.0386919 0)
(0.0497269 -0.0387959 0)
(0.0504146 -0.0380574 0)
(0.057731 -0.038022 0)
(0.0596519 -0.0373126 0)
(0.0657066 -0.0371174 0)
(0.068532 -0.0364465 0)
(0.0736352 -0.0360963 0)
(0.077032 -0.0354499 0)
(0.0814661 -0.0349678 0)
(0.085145 -0.0343213 0)
(0.0891452 -0.0337344 0)
(0.0928797 -0.0330678 0)
(0.0966127 -0.032399 0)
(0.100253 -0.0316958 0)
(0.103805 -0.0309664 0)
(0.107281 -0.0302153 0)
(0.11067 -0.0294392 0)
(0.113968 -0.0286416 0)
(0.117175 -0.0278221 0)
(0.120288 -0.0269811 0)
(0.123303 -0.0261204 0)
(0.126219 -0.025241 0)
(0.129035 -0.0243438 0)
(0.131746 -0.0234299 0)
(0.134353 -0.0225004 0)
(0.136852 -0.0215563 0)
(0.139243 -0.0205991 0)
(0.141524 -0.0196298 0)
(0.143692 -0.0186495 0)
(0.145748 -0.0176592 0)
(0.147689 -0.0166602 0)
(0.149516 -0.0156538 0)
(0.151226 -0.0146411 0)
(0.152819 -0.0136233 0)
(0.154295 -0.0126019 0)
(0.155653 -0.0115778 0)
(0.156894 -0.0105523 0)
(0.158016 -0.0095266 0)
(0.15902 -0.00850211 0)
(0.159906 -0.00748004 0)
(0.160675 -0.00646161 0)
(0.161326 -0.00544799 0)
(0.161861 -0.0044404 0)
(0.162281 -0.00344019 0)
(0.162585 -0.00244857 0)
(0.162776 -0.00146666 0)
(0.162855 -0.000495499 0)
(0.162822 0.000463984 0)
(0.162678 0.00140943 0)
(0.162426 0.00234053 0)
(0.162068 0.0032565 0)
(0.161605 0.00415691 0)
(0.16104 0.00503833 0)
(0.160373 0.00590147 0)
(0.15961 0.00674421 0)
(0.158751 0.00756746 0)
(0.157797 0.008369 0)
(0.156753 0.00914737 0)
(0.15562 0.00990351 0)
(0.154402 0.0106351 0)
(0.153102 0.0113424 0)
(0.151722 0.0120242 0)
(0.150265 0.0126795 0)
(0.148734 0.0133081 0)
(0.147134 0.0139094 0)
(0.145467 0.0144828 0)
(0.143737 0.0150281 0)
(0.141945 0.0155449 0)
(0.140097 0.0160329 0)
(0.138197 0.0164919 0)
(0.136246 0.0169214 0)
(0.13425 0.0173223 0)
(0.132211 0.0176943 0)
(0.130134 0.018037 0)
(0.128021 0.0183505 0)
(0.125877 0.0186355 0)
(0.123703 0.0188927 0)
(0.121505 0.019121 0)
(0.119286 0.0193213 0)
(0.11705 0.0194946 0)
(0.114799 0.019641 0)
(0.112536 0.0197612 0)
(0.110265 0.0198557 0)
(0.107989 0.0199256 0)
(0.105711 0.0199718 0)
(0.103433 0.0199948 0)
(0.101157 0.0199956 0)
(0.0988872 0.0199751 0)
(0.0966254 0.0199348 0)
(0.0943735 0.0198758 0)
(0.0921334 0.0197996 0)
(0.0899062 0.0197081 0)
(0.0876928 0.0196029 0)
(0.0854947 0.0194858 0)
(0.0833129 0.019359 0)
(0.0811464 0.019224 0)
(0.078994 0.0190813 0)
(0.0768569 0.0189303 0)
(0.0747374 0.0187708 0)
(0.0726373 0.0186035 0)
(0.0705575 0.0184299 0)
(0.0684982 0.0182516 0)
(0.0664594 0.0180703 0)
(0.0644411 0.0178874 0)
(0.0624427 0.0177045 0)
(0.0604639 0.0175228 0)
(0.0585042 0.0173435 0)
(0.0565632 0.0171678 0)
(0.05464 0.0169966 0)
(0.0527338 0.016831 0)
(0.0508442 0.0166717 0)
(0.0489702 0.0165194 0)
(0.0471113 0.016375 0)
(0.0452667 0.0162389 0)
(0.0434356 0.0161117 0)
(0.0416174 0.0159936 0)
(0.0398114 0.015885 0)
(0.0380172 0.015786 0)
(0.0362341 0.0156966 0)
(0.0344617 0.0156168 0)
(0.0326994 0.0155464 0)
(0.0309468 0.0154852 0)
(0.0292037 0.0154327 0)
(0.0274695 0.0153886 0)
(0.0257437 0.0153526 0)
(0.0240272 0.0153239 0)
(0.0223158 0.0153018 0)
(0.020622 0.0152855 0)
(0.0189035 0.0152738 0)
(0.0172791 0.015268 0)
(0.015453 0.0152605 0)
(0.0140566 0.0152685 0)
(0.0118935 0.0152491 0)
(0.0110763 0.0152832 0)
(0.00802589 0.0152258 0)
(0.00853747 0.0154186 0)
(0.00380781 0.0152893 0)
(0.00616068 0.0144299 0)
(-4.25394e-05 0.0106164 0)
(0.00454003 0.019752 0)
(0.0080343 -0.0440523 0)
(0.000968685 -0.0495482 0)
(0.0172899 -0.0472218 0)
(0.0111641 -0.0462736 0)
(0.0256188 -0.046694 0)
(0.0213604 -0.0459591 0)
(0.0338465 -0.0463411 0)
(0.0314708 -0.0454574 0)
(0.0420176 -0.0457648 0)
(0.0413882 -0.0448392 0)
(0.0501579 -0.0450141 0)
(0.0510358 -0.044096 0)
(0.0582781 -0.0440978 0)
(0.0603569 -0.0432232 0)
(0.0663669 -0.0430244 0)
(0.0693102 -0.0422092 0)
(0.0743893 -0.0418176 0)
(0.0778808 -0.0410478 0)
(0.0823115 -0.0404915 0)
(0.0860661 -0.0397377 0)
(0.09008 -0.0390517 0)
(0.0938723 -0.0382827 0)
(0.0976329 -0.0375024 0)
(0.101316 -0.03669 0)
(0.104904 -0.0358449 0)
(0.108415 -0.0349738 0)
(0.111837 -0.034075 0)
(0.115168 -0.0331504 0)
(0.118407 -0.0322012 0)
(0.12155 -0.0312276 0)
(0.124594 -0.0302311 0)
(0.127537 -0.0292124 0)
(0.130378 -0.028173 0)
(0.133114 -0.0271142 0)
(0.135743 -0.0260373 0)
(0.138263 -0.0249434 0)
(0.140673 -0.023834 0)
(0.14297 -0.0227103 0)
(0.145155 -0.0215735 0)
(0.147225 -0.0204252 0)
(0.149178 -0.0192667 0)
(0.151015 -0.0180996 0)
(0.152733 -0.0169251 0)
(0.154333 -0.0157447 0)
(0.155814 -0.0145597 0)
(0.157176 -0.0133716 0)
(0.158418 -0.0121821 0)
(0.159539 -0.0109923 0)
(0.16054 -0.00980373 0)
(0.161422 -0.0086178 0)
(0.162185 -0.0074363 0)
(0.162828 -0.00626057 0)
(0.163353 -0.00509175 0)
(0.163761 -0.00393132 0)
(0.164052 -0.00278079 0)
(0.164227 -0.00164156 0)
(0.164288 -0.000515018 0)
(0.164236 0.000597359 0)
(0.164073 0.00169451 0)
(0.163799 0.00277548 0)
(0.163418 0.00383754 0)
(0.16293 0.00487984 0)
(0.162337 0.00590272 0)
(0.161643 0.00690427 0)
(0.160848 0.00788429 0)
(0.159958 0.00883956 0)
(0.158972 0.00976942 0)
(0.157894 0.0106728 0)
(0.156726 0.0115486 0)
(0.155471 0.012398 0)
(0.154133 0.0132185 0)
(0.152715 0.014009 0)
(0.151218 0.0147688 0)
(0.149648 0.0154972 0)
(0.148006 0.0161938 0)
(0.146298 0.0168581 0)
(0.144525 0.0174895 0)
(0.142691 0.0180879 0)
(0.1408 0.0186529 0)
(0.138856 0.0191843 0)
(0.136862 0.0196814 0)
(0.134824 0.0201448 0)
(0.132742 0.0205744 0)
(0.130621 0.0209702 0)
(0.128466 0.0213324 0)
(0.12628 0.0216607 0)
(0.124066 0.0219565 0)
(0.121827 0.0222208 0)
(0.119569 0.0224539 0)
(0.117294 0.0226553 0)
(0.115005 0.0228253 0)
(0.112705 0.0229659 0)
(0.1104 0.0230778 0)
(0.108089 0.0231613 0)
(0.105778 0.0232174 0)
(0.103468 0.0232473 0)
(0.101162 0.0232522 0)
(0.0988618 0.023233 0)
(0.0965695 0.0231904 0)
(0.0942864 0.0231255 0)
(0.0920151 0.0230393 0)
(0.089757 0.0229325 0)
(0.0875139 0.0228068 0)
(0.0852869 0.0226635 0)
(0.0830774 0.0225037 0)
(0.0808875 0.0223288 0)
(0.0787191 0.0221411 0)
(0.0765726 0.0219437 0)
(0.0744478 0.0217392 0)
(0.0723444 0.0215296 0)
(0.0702625 0.0213165 0)
(0.0682019 0.0211009 0)
(0.066163 0.0208842 0)
(0.0641456 0.0206676 0)
(0.0621499 0.0204525 0)
(0.0601755 0.02024 0)
(0.058222 0.0200313 0)
(0.0562889 0.0198273 0)
(0.0543755 0.0196292 0)
(0.0524814 0.0194378 0)
(0.0506056 0.0192541 0)
(0.0487473 0.0190789 0)
(0.0469058 0.0189127 0)
(0.0450801 0.0187561 0)
(0.0432693 0.0186095 0)
(0.0414724 0.0184735 0)
(0.0396885 0.018348 0)
(0.0379169 0.0182333 0)
(0.0361566 0.0181292 0)
(0.0344067 0.0180357 0)
(0.0326664 0.0179525 0)
(0.0309349 0.0178793 0)
(0.0292116 0.0178155 0)
(0.0274958 0.0177609 0)
(0.0257865 0.0177151 0)
(0.0240843 0.0176772 0)
(0.0223849 0.0176465 0)
(0.0207005 0.017622 0)
(0.0189906 0.0176022 0)
(0.0173669 0.0175894 0)
(0.0155508 0.0175732 0)
(0.0141397 0.0175763 0)
(0.0119956 0.0175462 0)
(0.0111342 0.017579 0)
(0.00813238 0.0175081 0)
(0.00855188 0.0177229 0)
(0.00390571 0.017575 0)