/*--------------------------------*- C++ -*----------------------------------*\
| =========                 |                                                 |
| \\      /  F ield         | OpenFOAM: The Open Source CFD Toolbox           |
|  \\    /   O peration     | Version:  v2006                                 |
|   \\  /    A nd           | Website:  www.openfoam.com                      |
|    \\/     M anipulation  |                                                 |
\*---------------------------------------------------------------------------*/
FoamFile
{
    version     2.0;
    format      ascii;
    class       surfaceScalarField;
    location    "12.7";
    object      alphaPhi0.water;
}
// * * * * * * * * * * * * * * * * * * * * * * * * * * * * * * * * * * * * * //

dimensions      [0 3 -1 0 0 0 0];
oriented        oriented;


internalField   nonuniform List<scalar> 
299200
(
-0.00073839
0.00073839
-0.0012749
0.000536511
-0.00179181
0.000516905
-0.00233794
0.000546137
-0.00290735
0.000569407
-0.0034946
0.000587252
-0.00409567
0.000601065
-0.00470643
0.000610762
-0.00532304
0.000616615
-0.00594217
0.000619123
-0.00656146
0.000619289
-0.00717923
0.000617777
-0.00779414
0.000614908
-0.00840487
0.000610727
-0.00901002
0.000605154
-0.00960814
0.000598121
-0.0101977
0.000589593
-0.0107773
0.000579588
-0.0113456
0.000568231
-0.0119012
0.000555671
-0.0124433
0.000542053
-0.0129708
0.000527542
-0.0134831
0.000512291
-0.0139796
0.000496448
-0.0144597
0.000480175
-0.0149233
0.000463584
-0.0153701
0.000446747
-0.0157998
0.000429755
-0.0162126
0.000412742
-0.0166084
0.000395859
-0.0169876
0.000379223
-0.0173506
0.000362925
-0.0176976
0.000346986
-0.0180289
0.000331369
-0.018345
0.000316058
-0.0186461
0.00030107
-0.0189324
0.00028639
-0.0192043
0.000271873
-0.0194616
0.000257255
-0.0197038
0.000242234
-0.0199304
0.000226575
-0.0201405
0.000210145
-0.0203334
0.000192894
-0.0205083
0.00017487
-0.0206646
0.000156301
-0.0208022
0.00013763
-0.0209217
0.000119454
-0.0210241
0.000102404
-0.0211111
8.69932e-05
-0.0211845
7.34769e-05
-0.0212463
6.1735e-05
-0.0212977
5.13744e-05
-0.0213396
4.18997e-05
-0.0213718
3.22485e-05
-0.0213929
2.10861e-05
-0.0213995
6.59172e-06
-0.0213888
-1.06646e-05
-0.0213589
-2.99289e-05
-0.0213081
-5.08004e-05
-0.0212353
-7.27822e-05
-0.0211401
-9.52367e-05
-0.0210226
-0.000117485
-0.0208837
-0.000138887
-0.0207248
-0.000158914
-0.0205476
-0.000177178
-0.0203542
-0.000193445
-0.0201465
-0.000207624
-0.0199268
-0.000219746
-0.0196969
-0.000229925
-0.0194585
-0.000238332
-0.0192134
-0.000245171
-0.0189627
-0.000250648
-0.0187078
-0.000254956
-0.0184495
-0.000258261
-0.0181888
-0.0002607
-0.0179264
-0.000262382
-0.017663
-0.000263393
-0.0173992
-0.000263795
-0.0171356
-0.00026364
-0.0168726
-0.00026298
-0.0166107
-0.000261871
-0.0163504
-0.000260373
-0.0160918
-0.000258542
-0.0158354
-0.000256431
-0.0155813
-0.000254079
-0.0153298
-0.000251488
-0.0150812
-0.000248601
-0.0148359
-0.000245294
-0.0145946
-0.000241371
-0.014358
-0.000236589
-0.0141273
-0.000230692
-0.0139038
-0.000223471
-0.013689
-0.000214794
-0.0134843
-0.00020468
-0.013291
-0.000193339
-0.0131098
-0.000181169
-0.0129411
-0.000168717
-0.0127845
-0.000156588
-0.0126392
-0.000145325
-0.0125039
-0.000135291
-0.0123771
-0.000126777
-0.012257
-0.000120116
-0.0121414
-0.000115631
-0.0120275
-0.000113899
-0.0119118
-0.000115713
-0.0117899
-0.000121825
-0.0116574
-0.000132561
-0.0115101
-0.000147284
-0.0113459
-0.00016416
-0.0111657
-0.000180271
-0.0109736
-0.000192115
-0.0107771
-0.000196457
-0.0105861
-0.000190985
-0.0104113
-0.000174799
-0.0102623
-0.000149052
-0.0101457
-0.000116602
-0.0100645
-8.11497e-05
-0.0100183
-4.62275e-05
-0.0100039
-1.44282e-05
-0.010017
1.31736e-05
-0.010053
3.59552e-05
-0.0101083
5.53009e-05
-0.0101805
7.22181e-05
-0.0102678
8.72807e-05
-0.0103683
0.000100557
-0.0104805
0.000112161
-0.0106028
0.000122323
-0.010734
0.000131179
-0.0108728
0.0001388
-0.0110181
0.000145311
-0.011169
0.000150918
-0.0113248
0.000155792
-0.0114847
0.000159885
-0.0116477
0.000162982
-0.0118127
0.000165014
-0.0119793
0.000166598
-0.0121484
0.000169092
-0.0123224
0.000174043
-0.0125048
0.000182402
-0.0126989
0.000194012
-0.0129063
0.000207464
-0.0131265
0.000220234
-0.0133545
0.000227936
-0.0135796
0.000225115
-0.0137882
0.000208581
-0.0139686
0.000180371
-0.0141185
0.000149929
-0.0142503
0.000131784
-0.0143883
0.000138026
-0.0145637
0.000175447
-0.0148067
0.000242916
-0.0151419
0.000335219
-0.0155852
0.00044336
-0.0161372
0.000551937
-0.0167758
0.000638635
-0.0174565
0.000680666
-0.0181239
0.00066747
-0.0187346
0.00061066
-0.0192743
0.000539723
-0.0197575
0.000483204
-0.0202152
0.000457631
-0.0206744
0.000459196
-0.0211493
0.000474908
-0.0216445
0.000495249
-0.0221606
0.000516108
-0.0226979
0.000537265
-0.0232577
0.000559846
-0.0238422
0.000584469
-0.0244528
0.000610595
-0.0250893
0.000636544
-0.0257495
0.000660174
-0.0264293
0.000679777
-0.027124
0.000694699
-0.0278293
0.000705341
-0.028542
0.000712668
-0.0292597
0.000717663
-0.0299807
0.000721063
-0.0307041
0.000723349
-0.0314289
0.000724844
-0.0321547
0.000725788
-0.0328811
0.000726363
-0.0336078
0.000726696
-0.0343346
0.000726874
-0.0350616
0.000726947
-0.0357885
0.000726931
-0.0365153
0.000726821
-0.0372419
0.000726596
-0.0379682
0.000726234
-0.0386939
0.00072572
-0.0394189
0.000725045
-0.0401431
0.000724213
-0.0408664
0.000723255
-0.0415886
0.000722232
-0.0423099
0.000721234
-0.0430302
0.000720365
-0.04375
0.000719732
-0.0444694
0.00071942
-0.0451889
0.000719479
-0.0459088
0.000719904
-0.0466294
0.000720624
-0.0473509
0.0007215
-0.0480732
0.000722332
-0.0487961
0.000722872
-0.0495189
0.000722847
-0.0502409
0.000721991
-0.050961
0.000720088
-0.051678
0.000717012
-0.0523908
0.000712744
-0.0530981
0.000707366
-0.0537992
0.000701051
-0.0544932
0.000694037
-0.0551798
0.000686607
-0.0558589
0.000679053
-0.0565305
0.000671626
-0.057195
0.000664478
-0.0578526
0.000657636
-0.0585037
0.000651095
-0.0591489
0.000645181
-0.05979
0.000641061
-0.0604308
0.000640875
-0.0610773
0.00064647
-0.0617335
0.000656167
-0.062395
0.000661493
-0.0630416
0.000646591
-0.0636362
0.000594673
-0.0641399
0.000503639
-0.0645392
0.000399286
-0.0648668
0.000327604
-0.0652178
0.000351019
-0.0657089
0.000491132
-0.066428
0.00071912
-0.0673954
0.000967369
-0.0685581
0.00116265
-0.0698184
0.00126039
-0.0710784
0.00125995
-0.0722624
0.00118398
-0.0733287
0.00106633
-0.074275
0.000946283
-0.0751243
0.000849285
-0.0759093
0.000785004
-0.0766599
0.000750574
-0.0773957
0.000735819
-0.0781276
0.000731938
-0.0788579
0.00073025
-0.0795829
0.000725029
-0.0802976
0.000714683
-0.0809979
0.000700324
-0.0816829
0.000685014
-0.0823565
0.00067361
-0.0830287
0.000672209
-0.083713
0.000684261
-0.0844193
0.00070629
-0.085146
0.000726743
-0.0858764
0.000730383
-0.0865841
0.000707686
-0.0872442
0.00066011
-0.0878484
0.000604179
-0.0884126
0.000564183
-0.0889711
0.000558521
-0.0895651
0.000593966
-0.0902224
0.000657314
-0.09095
0.000727627
-0.0917364
0.000786365
-0.0925587
0.000822378
-0.0933911
0.000832334
-0.0942063
0.000815235
-0.0949811
0.000774807
-0.0957
0.00071893
-0.0963557
0.000655709
-0.0969476
0.000591806
-0.0974794
0.000531892
-0.0979582
0.000478703
-0.0983915
0.000433348
-0.0987873
0.000395775
-0.0991525
0.000365257
-0.0994933
0.000340771
-0.0998144
0.000321117
-0.100119
0.000305038
-0.100411
0.000291351
-0.10069
0.00027873
-0.100955
0.00026549
-0.101205
0.000250166
-0.101437
0.000231898
-0.101647
0.000209788
-0.101831
0.000183856
-0.101986
0.00015521
-0.102111
0.000124953
-0.1022
8.92206e-05
-0.102233
3.24507e-05
-0.102181
-5.1818e-05
-0.102035
-0.000145569
-0.101803
-0.000232467
-0.101496
-0.000307019
-0.101125
-0.000370942
-0.100698
-0.00042638
-0.100223
-0.000474975
-0.0997054
-0.000518039
-0.0991486
-0.000556748
-0.0985564
-0.000592176
-0.0979312
-0.00062525
-0.0972745
-0.000656697
-0.0965875
-0.000687016
-0.095871
-0.000716484
-0.0951258
-0.00074519
-0.0943527
-0.000773074
-0.0935527
-0.000799981
-0.092727
-0.000825712
-0.091877
-0.000850074
-0.091004
-0.000872925
-0.0901098
-0.000894205
-0.0891959
-0.000913944
-0.0882636
-0.000932249
-0.0873144
-0.000949274
-0.0863492
-0.000965183
-0.0853691
-0.000980118
-0.0843749
-0.000994175
-0.0833675
-0.0010074
-0.0823477
-0.00101981
-0.0813163
-0.00103139
-0.0802742
-0.00104213
-0.0792221
-0.00105202
-0.0781611
-0.00106108
-0.0770917
-0.00106934
-0.0760149
-0.00107682
-0.0749313
-0.00108356
-0.0738417
-0.00108959
-0.0727468
-0.00109492
-0.0716472
-0.00109958
-0.0705436
-0.00110359
-0.0694367
-0.00110696
-0.068327
-0.0011097
-0.0672152
-0.00111183
-0.0661018
-0.00111337
-0.0649875
-0.00111432
-0.0638728
-0.0011147
-0.0627583
-0.00111451
-0.0616445
-0.00111378
-0.060532
-0.0011125
-0.0594213
-0.00111071
-0.0583129
-0.0011084
-0.0572073
-0.0011056
-0.056105
-0.0011023
-0.0550065
-0.00109851
-0.0539122
-0.00109424
-0.0528227
-0.00108949
-0.0517385
-0.00108427
-0.0506599
-0.0010786
-0.0495874
-0.00107251
-0.0485213
-0.00106601
-0.0474622
-0.00105914
-0.0464103
-0.00105189
-0.045366
-0.00104431
-0.0443296
-0.00103642
-0.0433014
-0.00102824
-0.0422815
-0.00101982
-0.0412703
-0.00101121
-0.0402679
-0.00100245
-0.0392743
-0.000993595
-0.0382896
-0.000984697
-0.0373138
-0.000975815
-0.0363467
-0.000967005
-0.0353884
-0.000958312
-0.0344387
-0.000949763
-0.0334973
-0.000941361
-0.0325642
-0.000933079
-0.0316394
-0.000924858
-0.0307228
-0.000916608
-0.0298146
-0.000908211
-0.028915
-0.000899522
-0.0280247
-0.000890377
-0.0271441
-0.000880602
-0.026274
-0.000870033
-0.0254155
-0.000858544
-0.0245694
-0.000846061
-0.0237368
-0.000832584
-0.0229186
-0.000818186
-0.0221156
-0.000803
-0.0213284
-0.000787197
-0.0205575
-0.000770947
-0.0198031
-0.000754385
-0.0190655
-0.00073758
-0.018345
-0.00072052
-0.0176419
-0.000703119
-0.0169567
-0.000685238
-0.0162899
-0.000666728
-0.0156425
-0.00064747
-0.0150151
-0.00062741
-0.0144085
-0.00060658
-0.0138234
-0.000585085
-0.0132603
-0.000563071
-0.0127196
-0.000540681
-0.0122016
-0.000518017
-0.0117065
-0.000495113
-0.0112346
-0.000471951
-0.0107861
-0.00044848
-0.0103614
-0.000424649
-0.00996101
-0.000400421
-0.00958531
-0.000375699
-0.00923505
-0.000350256
-0.00891134
-0.000323713
-0.00861589
-0.000295444
-0.00835125
-0.000264646
-0.00812067
-0.000230574
-0.0079279
-0.000192769
-0.00777571
-0.000152195
-0.00766426
-0.000111445
-0.0075899
-7.4364e-05
-0.00754402
-4.58759e-05
-0.00751367
-3.03533e-05
-0.00748481
-2.88611e-05
-0.00744606
-3.87543e-05
-0.00739285
-5.32104e-05
-0.00732776
-6.50863e-05
-0.00725885
-6.89143e-05
-0.00719566
-6.31827e-05
-0.00714542
-5.02421e-05
-0.00711113
-3.42912e-05
-0.00709191
-1.922e-05
-0.00708401
-7.89447e-06
-0.00708357
-4.41696e-07
-0.00708659
3.01515e-06
-0.00709044
3.85344e-06
-0.00709394
3.49593e-06
-0.00709643
2.49053e-06
-0.00709777
1.34344e-06
-0.00709754
-2.35058e-07
-0.00709495
-2.59101e-06
-0.00708741
-7.54007e-06
-0.00706821
-1.91967e-05
-0.0070265
-4.17081e-05
-0.00694953
-7.6973e-05
-0.0068275
-0.00012203
-0.00665829
-0.000169209
-0.0064486
-0.000209693
-0.00621158
-0.000237018
-0.00596396
-0.000247621
-0.00572156
-0.000242395
-0.00549569
-0.000225869
-0.00529171
-0.000203982
-0.00511004
-0.000181669
-0.00494772
-0.000162318
-0.00480042
-0.000147301
-0.00466381
-0.000136616
-0.00453431
-0.000129494
-0.00440948
-0.000124828
-0.00428781
-0.000121671
-0.00416834
-0.000119468
-0.00405029
-0.000118053
-0.0039328
-0.000117493
-0.0038149
-0.000117895
-0.00369569
-0.000119211
-0.00357451
-0.000121178
-0.00345099
-0.000123526
-0.00332504
-0.000125947
-0.00319686
-0.000128185
-0.00306676
-0.000130099
-0.00293513
-0.00013163
-0.00280232
-0.00013281
-0.00266852
-0.000133799
-0.0025338
-0.000134717
-0.00239849
-0.000135307
-0.00226295
-0.000135538
-0.00212765
-0.00013531
-0.00199275
-0.000134891
-0.00185914
-0.000133619
-0.00172699
-0.000132147
-0.00159703
-0.000129955
-0.00146962
-0.000127409
-0.00134529
-0.000124335
-0.00122461
-0.000120684
-0.00110756
-0.000117045
-0.00099526
-0.0001123
-0.000887981
-0.000107278
-0.000786584
-0.000101397
-0.000691836
-9.47481e-05
-0.000604183
-8.76534e-05
-0.000523749
-8.04334e-05
-0.000450855
-7.28944e-05
-0.000385765
-6.50897e-05
-0.000329189
-5.6576e-05
-0.000282004
-4.71856e-05
-0.000244763
-3.72408e-05
-0.000218059
-2.67045e-05
-0.000201746
-1.63128e-05
-0.000195664
-6.08187e-06
-0.000198598
2.93399e-06
-0.000209519
1.09212e-05
-0.000227065
1.75455e-05
-0.00024923
2.21655e-05
-0.000274058
2.48276e-05
-0.000299132
2.50744e-05
-0.000321615
2.24832e-05
-0.000337493
1.5878e-05
-0.000340952
3.45869e-06
-0.000324299
-1.66526e-05
-0.000270923
-5.33758e-05
-0.000164365
-0.000106558
1.57227e-05
-0.000180088
0.000173669
-0.000157946
0.000173669
-0.000905595
0.00164399
-0.0016114
0.00124232
-0.00235756
0.00126306
-0.00318129
0.00136987
-0.00404968
0.00143779
-0.00493992
0.00147749
-0.00584246
0.00150361
-0.00675071
0.00151901
-0.0076587
0.00152461
-0.00856188
0.0015223
-0.00945679
0.0015142
-0.0103405
0.00150153
-0.0112104
0.0014848
-0.0120639
0.00146421
-0.0128988
0.00144
-0.0137131
0.00141251
-0.0145058
0.00138222
-0.0152758
0.00134966
-0.016023
0.00131536
-0.0167471
0.0012798
-0.0174484
0.00124338
-0.0181273
0.00120642
-0.0187842
0.00116914
-0.0194194
0.00113167
-0.0200333
0.0010941
-0.0206262
0.00105647
-0.0211982
0.00101875
-0.0217493
0.000980913
-0.0222796
0.000942976
-0.0227886
0.000904874
-0.0232757
0.000866377
-0.02374
0.00082715
-0.0241799
0.00078695
-0.0245944
0.000745818
-0.0249825
0.000704127
-0.0253438
0.000662401
-0.0256785
0.000621079
-0.025987
0.000580425
-0.0262704
0.000540647
-0.0265302
0.000501994
-0.0267683
0.000464709
-0.0269871
0.000428912
-0.0271887
0.000394499
-0.0273749
0.000361131
-0.0275469
0.000328289
-0.0277046
0.000295285
-0.0278464
0.000261254
-0.0279692
0.000225194
-0.0280683
0.000186137
-0.0281383
0.000143407
-0.0281731
9.66264e-05
-0.0281672
4.54369e-05
-0.0281161
-9.25022e-06
-0.0280195
-6.42954e-05
-0.0278819
-0.000116498
-0.0277109
-0.000164415
-0.0275142
-0.000207399
-0.0272984
-0.000245697
-0.0270695
-0.000279752
-0.0268322
-0.000310014
-0.0265905
-0.00033699
-0.0263469
-0.000361087
-0.0261032
-0.000382585
-0.0258605
-0.000401643
-0.0256193
-0.000418342
-0.02538
-0.000432724
-0.0251428
-0.00044482
-0.0249079
-0.000454654
-0.0246756
-0.000462254
-0.0244462
-0.000467664
-0.0242205
-0.000470959
-0.0239988
-0.000472259
-0.0237821
-0.000471725
-0.0235708
-0.000469556
-0.0233655
-0.000465984
-0.0231666
-0.000461257
-0.0229744
-0.000455633
-0.0227888
-0.000449365
-0.0226098
-0.000442688
-0.0224369
-0.000435816
-0.0222699
-0.000428931
-0.0221081
-0.00042217
-0.021951
-0.000415617
-0.0217981
-0.000409294
-0.0216491
-0.000403153
-0.0215035
-0.000397058
-0.0213613
-0.000390768
-0.0212227
-0.000383948
-0.0210878
-0.000376187
-0.0209574
-0.000367064
-0.0208318
-0.000356236
-0.0207118
-0.000343547
-0.0205974
-0.000329119
-0.0204887
-0.00031342
-0.0203848
-0.000297278
-0.0202841
-0.000281791
-0.0201847
-0.000268139
-0.020084
-0.000257294
-0.0199796
-0.000249715
-0.0198697
-0.000245165
-0.0197537
-0.000242844
-0.019632
-0.000241766
-0.0195065
-0.00024119
-0.0193793
-0.000241026
-0.0192531
-0.000241903
-0.0191301
-0.000244878
-0.0190117
-0.000250974
-0.018899
-0.000259944
-0.0187931
-0.000270048
-0.0186952
-0.000278202
-0.0186066
-0.000280706
-0.0185286
-0.00027448
-0.0184618
-0.000257785
-0.0184062
-0.000230374
-0.0183609
-0.000194371
-0.0183244
-0.000153044
-0.0182957
-0.000109912
-0.0182739
-6.79835e-05
-0.018259
-2.93236e-05
-0.018252
6.09979e-06
-0.0182514
3.53542e-05
-0.0182572
6.11546e-05
-0.018269
8.39922e-05
-0.0182865
0.000104816
-0.01831
0.000124035
-0.0183393
0.00014145
-0.0183738
0.000156818
-0.0184127
0.000170046
-0.0184551
0.000181198
-0.0185004
0.000190698
-0.018549
0.000199447
-0.0186018
0.000208657
-0.0186614
0.000219462
-0.018731
0.000232601
-0.0188144
0.000248412
-0.0189148
0.000266967
-0.0190336
0.000287916
-0.0191696
0.000310019
-0.019318
0.000330789
-0.0194705
0.000346576
-0.0196162
0.000353138
-0.0197424
0.000346401
-0.0198373
0.000322841
-0.0198931
0.000280971
-0.0199086
0.000224066
-0.0198906
0.000162343
-0.0198529
0.000112219
-0.0198128
9.17373e-05
-0.0197909
0.000116078
-0.0198083
0.000192816
-0.0198897
0.000324362
-0.0200612
0.000506745
-0.020346
0.000728131
-0.0207602
0.000966156
-0.0213119
0.00119026
-0.0220025
0.00137135
-0.0228275
0.00149242
-0.0237682
0.00155135
-0.0247835
0.00155504
-0.0258131
0.00151278
-0.026793
0.00143754
-0.0276805
0.00134672
-0.0284654
0.00125982
-0.0291631
0.00119294
-0.029801
0.001154
-0.030406
0.00114228
-0.0309977
0.00115153
-0.0315871
0.00117384
-0.0321787
0.00120217
-0.0327735
0.00123139
-0.0333717
0.00125839
-0.0339737
0.0012818
-0.0345805
0.00130151
-0.0351934
0.00131821
-0.0358135
0.00133276
-0.0364417
0.00134589
-0.0370788
0.00135809
-0.0377251
0.00136969
-0.0383811
0.00138089
-0.0390472
0.00139184
-0.0397235
0.00140263
-0.0404101
0.00141329
-0.041107
0.0014238
-0.0418141
0.0014341
-0.0425313
0.00144412
-0.0432583
0.0014538
-0.0439948
0.00146308
-0.0447405
0.00147195
-0.0454952
0.00148045
-0.0462589
0.00148866
-0.0470313
0.00149666
-0.0478126
0.00150458
-0.0486029
0.00151252
-0.0494022
0.00152049
-0.0502103
0.00152845
-0.0510267
0.00153619
-0.0518507
0.00154345
-0.0526811
0.00154983
-0.0535161
0.00155495
-0.0543539
0.00155843
-0.0551925
0.00156001
-0.0560297
0.00155957
-0.056864
0.00155717
-0.0576942
0.00155302
-0.0585197
0.00154749
-0.0593406
0.001541
-0.0601575
0.00153397
-0.0609715
0.00152675
-0.0617837
0.00151956
-0.0625951
0.00151247
-0.0634065
0.0015054
-0.064218
0.0014981
-0.0650292
0.0014902
-0.0658387
0.00148117
-0.0666447
0.00147046
-0.0674446
0.00145757
-0.0682356
0.00144205
-0.0690135
0.00142311
-0.069771
0.00139853
-0.0704935
0.00136337
-0.0711571
0.00131009
-0.0717331
0.00123218
-0.0722034
0.00113184
-0.0725846
0.00102771
-0.0729452
0.000955292
-0.0733945
0.000953002
-0.0740357
0.00104048
-0.0749103
0.00120221
-0.0759488
0.00138951
-0.0770059
0.00154818
-0.0779269
0.00164012
-0.0786106
0.0016511
-0.0790381
0.00159011
-0.0792612
0.00148354
-0.0793643
0.00136303
-0.0794396
0.00125933
-0.0795584
0.00118512
-0.0797512
0.00113907
-0.0800183
0.00111634
-0.0803449
0.00111165
-0.080715
0.00112064
-0.0811164
0.0011372
-0.0815435
0.00115912
-0.0819992
0.00118588
-0.0824946
0.00122043
-0.0830518
0.0012719
-0.0837051
0.00135368
-0.0844964
0.00147626
-0.0854603
0.00163755
-0.086605
0.00181685
-0.0878987
0.00197798
-0.0892756
0.00208318
-0.0906595
0.00211069
-0.0919937
0.00206452
-0.0932554
0.00196939
-0.0944496
0.00185432
-0.0955821
0.00173666
-0.0966377
0.00161979
-0.0975782
0.00149908
-0.0983579
0.00137366
-0.0989481
0.00124754
-0.0993468
0.00112627
-0.0995743
0.00101388
-0.0996646
0.000912654
-0.0996551
0.000822876
-0.0995856
0.000745706
-0.0994901
0.00067936
-0.0993919
0.000620704
-0.0993037
0.000567535
-0.0992303
0.000518348
-0.0991705
0.000472119
-0.0991199
0.000428062
-0.0990718
0.000385286
-0.0990186
0.000342546
-0.0989516
0.00029826
-0.0988616
0.000250806
-0.0987394
0.000198896
-0.0985763
0.000141911
-0.098366
8.11367e-05
-0.0981052
1.79178e-05
-0.0977916
-4.81174e-05
-0.0974239
-0.000117542
-0.0970061
-0.000185929
-0.0965424
-0.00025389
-0.0960366
-0.000321917
-0.0954905
-0.000390887
-0.0949032
-0.000462438
-0.0942752
-0.000538779
-0.0936224
-0.000620259
-0.0929716
-0.000702682
-0.0923329
-0.000784256
-0.0917005
-0.00086481
-0.0910653
-0.000942288
-0.0904207
-0.00101555
-0.0897629
-0.0010842
-0.0890895
-0.00114832
-0.0883991
-0.00120842
-0.0876906
-0.00126526
-0.0869631
-0.00131973
-0.0862157
-0.0013726
-0.0854479
-0.00142447
-0.0846593
-0.00147565
-0.0838496
-0.00152616
-0.083019
-0.0015758
-0.0821679
-0.00162417
-0.0812971
-0.00167076
-0.0804078
-0.001715
-0.0795015
-0.00175638
-0.0785799
-0.00179453
-0.0776449
-0.00182923
-0.0766984
-0.00186047
-0.0757422
-0.00188847
-0.0747778
-0.0019136
-0.0738067
-0.00193635
-0.0728296
-0.00195721
-0.0718471
-0.00197666
-0.0708594
-0.00199505
-0.0698666
-0.00201262
-0.0688685
-0.00202946
-0.0678651
-0.00204557
-0.0668562
-0.00206087
-0.0658421
-0.00207525
-0.0648228
-0.00208857
-0.0637989
-0.00210074
-0.0627708
-0.00211166
-0.0617391
-0.00212129
-0.0607045
-0.0021296
-0.0596675
-0.00213659
-0.0586288
-0.00214226
-0.0575891
-0.00214665
-0.056549
-0.00214978
-0.0555091
-0.00215169
-0.0544701
-0.00215241
-0.0534324
-0.00215197
-0.0523967
-0.00215041
-0.0513635
-0.00214775
-0.0503333
-0.00214402
-0.0493065
-0.00213926
-0.0482837
-0.00213352
-0.0472653
-0.00212681
-0.0462517
-0.00211919
-0.0452433
-0.00211068
-0.0442405
-0.00210129
-0.0432437
-0.00209104
-0.0422533
-0.00207994
-0.0412695
-0.00206802
-0.0402928
-0.00205531
-0.0393234
-0.00204186
-0.0383617
-0.00202771
-0.037408
-0.0020129
-0.0364624
-0.00199749
-0.0355252
-0.00198151
-0.0345966
-0.00196502
-0.0336767
-0.0019481
-0.0327657
-0.00193081
-0.0318637
-0.00191325
-0.0309706
-0.00189551
-0.0300866
-0.00187769
-0.0292114
-0.00185988
-0.028345
-0.00184216
-0.0274874
-0.00182461
-0.0266385
-0.00180724
-0.0257982
-0.00179006
-0.0249666
-0.00177298
-0.0241438
-0.00175587
-0.0233301
-0.00173856
-0.0225259
-0.0017208
-0.0217318
-0.00170233
-0.0209484
-0.00168289
-0.0201766
-0.00166219
-0.0194172
-0.00163999
-0.0186712
-0.00161608
-0.0179394
-0.00159035
-0.0172226
-0.00156279
-0.0165217
-0.00153355
-0.0158369
-0.00150293
-0.0151685
-0.00147139
-0.0145163
-0.00143948
-0.0138794
-0.00140779
-0.0132569
-0.00137686
-0.0126474
-0.00134707
-0.0120494
-0.00131852
-0.0114616
-0.00129099
-0.0108829
-0.00126393
-0.010313
-0.00123659
-0.00975237
-0.0012081
-0.00920208
-0.0011777
-0.00866383
-0.00114484
-0.00813963
-0.00110928
-0.00763162
-0.00107108
-0.0071418
-0.0010305
-0.0066719
-0.000987919
-0.00622336
-0.000943651
-0.00579739
-0.000897923
-0.00539503
-0.000850833
-0.0050173
-0.000802386
-0.00466515
-0.000752571
-0.00433942
-0.00070142
-0.00404059
-0.000649088
-0.00376833
-0.000595973
-0.00352091
-0.000542867
-0.00329436
-0.000491197
-0.00308162
-0.00044331
-0.00287304
-0.000401355
-0.0026557
-0.000369537
-0.00241552
-0.000351619
-0.00214048
-0.00034941
-0.00182303
-0.000363318
-0.00146192
-0.000391462
-0.00106262
-0.000428168
-0.000638126
-0.000463246
-0.000203014
-0.000488323
0.000229194
-0.000497294
0.000647255
-0.000486975
0.00104422
-0.000460152
0.00141868
-0.000424697
0.00177248
-0.000388094
0.00211029
-0.000357028
0.00243646
-0.000334061
0.00275577
-0.000319757
0.0030712
-0.000312417
0.00338412
-0.00030906
0.00369457
-0.000306955
0.0040015
-0.000304443
0.0043036
-0.000300752
0.00459999
-0.000296627
0.00489079
-0.000293388
0.00517664
-0.000293392
0.00545742
-0.000299976
0.00573129
-0.000315581
0.0059953
-0.000340977
0.00624795
-0.000374686
0.00648574
-0.000406994
0.00670876
-0.000432712
0.00691879
-0.00044705
0.00711871
-0.000447547
0.00731084
-0.000434517
0.00749515
-0.000410186
0.00767044
-0.000379268
0.007834
-0.000345234
0.00798319
-0.000311507
0.00811611
-0.000280217
0.00823134
-0.000251844
0.0083292
-0.000227357
0.0084106
-0.000206226
0.00847642
-0.00018749
0.00852707
-0.000170118
0.00856263
-0.000153618
0.00858318
-0.000138041
0.00858913
-0.000123844
0.00858148
-0.000111561
0.00856194
-0.000101639
0.00853285
-9.44379e-05
0.00849689
-8.99829e-05
0.00845658
-8.78754e-05
0.00841397
-8.74963e-05
0.00837046
-8.81218e-05
0.0083268
-8.91489e-05
0.00828317
-9.01671e-05
0.00823923
-9.07722e-05
0.00819463
-9.07071e-05
0.00814883
-8.97388e-05
0.00810125
-8.77326e-05
0.00805112
-8.47631e-05
0.00799789
-8.03868e-05
0.00794024
-7.44939e-05
0.00787715
-6.68713e-05
0.00780693
-5.71844e-05
0.00772783
-4.52324e-05
0.00763747
-3.03239e-05
0.0075323
-1.18807e-05
0.00741114
8.86609e-06
0.00727333
3.05234e-05
0.00711946
5.24812e-05
0.00694967
7.50394e-05
0.00676384
9.81718e-05
0.00656141
0.000122003
0.00634175
0.000146759
0.0061043
0.000172367
0.00584911
0.000198611
0.00557677
0.000225152
0.00528798
0.000251547
0.00498389
0.000277391
0.00466557
0.000302001
0.00433481
0.000324685
0.00399317
0.000344576
0.00364306
0.000361032
0.00328699
0.000373609
0.00292728
0.00038188
0.00256628
0.000385824
0.00220562
0.000385732
0.00184652
0.000381584
0.00149064
0.000371756
0.00114391
0.000350193
0.000823271
0.000303986
0.000559394
0.000210501
0.000405087
4.77487e-05
0.000378687
-0.000153688
0.000382457
-0.000161716
0.000556125
-0.000913727
0.00255771
-0.00158015
0.00190874
-0.00229026
0.00197317
-0.00313215
0.00221177
-0.00406071
0.00236635
-0.00501635
0.00243312
-0.00596908
0.00245635
-0.00690835
0.00245828
-0.00782994
0.00244619
-0.00873141
0.00242377
-0.00961056
0.00239336
-0.0104653
0.00235629
-0.0112939
0.00231335
-0.012095
0.00226531
-0.0128681
0.00221309
-0.0136133
0.0021577
-0.0143312
0.00210018
-0.015023
0.00204144
-0.0156898
0.00198219
-0.016333
0.00192295
-0.0169537
0.00186407
-0.0175529
0.00180569
-0.0181316
0.00174785
-0.0186904
0.00169045
-0.0192297
0.00163336
-0.0197496
0.00157638
-0.0202501
0.0015193
-0.0207311
0.00146188
-0.021192
0.0014039
-0.0216322
0.00134507
-0.0220509
0.00128502
-0.0224472
0.00122345
-0.0228206
0.00116033
-0.0231708
0.00109609
-0.0234982
0.00103146
-0.023803
0.000967219
-0.024086
0.00090407
-0.0243482
0.000842608
-0.0245909
0.000783397
-0.0248158
0.000726867
-0.0250242
0.000673099
-0.0252169
0.000621645
-0.0253939
0.000571485
-0.0255539
0.000521105
-0.0256942
0.00046865
-0.025811
0.000412116
-0.0258994
0.00034965
-0.0259542
0.000279929
-0.0259706
0.00020252
-0.0259453
0.000118113
-0.0258774
2.87737e-05
-0.0257694
-6.25355e-05
-0.0256288
-0.000149853
-0.025463
-0.000230164
-0.0252779
-0.000301582
-0.0250792
-0.000363115
-0.0248717
-0.000414914
-0.0246592
-0.000458186
-0.0244446
-0.00049436
-0.0242298
-0.000524746
-0.0240164
-0.00055047
-0.0238051
-0.000572386
-0.0235966
-0.000591077
-0.0233913
-0.000606898
-0.0231896
-0.000620054
-0.0229917
-0.000630661
-0.0227977
-0.000638782
-0.0226079
-0.000644442
-0.0224225
-0.000647648
-0.0222418
-0.000648417
-0.0220659
-0.000646806
-0.0218953
-0.000642929
-0.02173
-0.000636972
-0.0215704
-0.000629187
-0.0214165
-0.000619891
-0.0212683
-0.000609448
-0.0211257
-0.000598258
-0.0209883
-0.000586728
-0.0208557
-0.000575241
-0.0207274
-0.000564121
-0.0206028
-0.000553595
-0.0204812
-0.000543774
-0.0203621
-0.000534649
-0.0202453
-0.000526101
-0.0201306
-0.000517918
-0.0200178
-0.000509825
-0.0199071
-0.000501498
-0.0197984
-0.000492584
-0.0196919
-0.000482743
-0.0195872
-0.000471703
-0.0194841
-0.00045933
-0.019382
-0.000445712
-0.0192799
-0.000431226
-0.0191767
-0.000416552
-0.0190714
-0.000402586
-0.018963
-0.000390238
-0.018851
-0.000380118
-0.0187361
-0.000372217
-0.0186201
-0.000365737
-0.018506
-0.000359209
-0.0183979
-0.000350961
-0.0182999
-0.000339751
-0.0182158
-0.0003253
-0.0181483
-0.000308519
-0.0180989
-0.000291266
-0.0180681
-0.00027573
-0.0180554
-0.000263643
-0.0180599
-0.000255431
-0.01808
-0.000249937
-0.0181135
-0.000244709
-0.0181575
-0.000236729
-0.0182085
-0.000223487
-0.0182626
-0.000203734
-0.0183157
-0.000177234
-0.018365
-0.000145109
-0.0184087
-0.000109268
-0.0184469
-7.17891e-05
-0.0184803
-3.45168e-05
-0.0185104
7.3685e-07
-0.0185389
3.46297e-05
-0.018569
6.54246e-05
-0.0186015
9.36428e-05
-0.0186371
0.000119649
-0.0186761
0.000143774
-0.0187184
0.000166381
-0.0187647
0.00018771
-0.0188156
0.000207697
-0.0188718
0.000226276
-0.0189342
0.000243632
-0.0190038
0.000260282
-0.0190815
0.000277102
-0.0191679
0.00029509
-0.0192635
0.000315036
-0.0193682
0.000337331
-0.0194818
0.000361997
-0.0196036
0.000388768
-0.0197327
0.000416999
-0.0198681
0.000445463
-0.0200097
0.000472328
-0.0201585
0.00049544
-0.020318
0.000512649
-0.0204939
0.000522243
-0.0206939
0.000522821
-0.0209265
0.000513622
-0.021198
0.000495516
-0.0215079
0.000472317
-0.0218472
0.000451514
-0.0221981
0.000442582
-0.0225391
0.000457073
-0.0228518
0.000505553
-0.0231271
0.000599691
-0.0233728
0.00075244
-0.023615
0.000970294
-0.0238915
0.00124267
-0.0242392
0.00153795
-0.0246791
0.00181129
-0.0252059
0.00201923
-0.0257871
0.0021325
-0.0263754
0.0021433
-0.0269294
0.00206683
-0.027432
0.0019401
-0.0278915
0.00180621
-0.0283305
0.00169888
-0.0287716
0.00163402
-0.0292284
0.00161077
-0.0297048
0.00161873
-0.0301988
0.0016455
-0.0307061
0.00168119
-0.0312235
0.00171951
-0.0317492
0.00175711
-0.0322833
0.00179256
-0.0328271
0.00182555
-0.0333819
0.00185632
-0.0339489
0.00188522
-0.0345288
0.00191263
-0.0351217
0.00193882
-0.0357276
0.00196399
-0.0363463
0.00198832
-0.0369773
0.00201196
-0.0376205
0.00203502
-0.0382754
0.00205756
-0.0389418
0.00207961
-0.0396191
0.00210117
-0.0403072
0.0021222
-0.0410058
0.00214268
-0.0417146
0.00216259
-0.0424334
0.00218191
-0.0431621
0.00220065
-0.0439004
0.00221879
-0.0446481
0.00223633
-0.0454047
0.00225322
-0.0461694
0.00226935
-0.0469415
0.00228455
-0.0477196
0.0022986
-0.0485023
0.00231116
-0.049288
0.00232189
-0.050075
0.00233046
-0.0508618
0.00233661
-0.051647
0.00234019
-0.0524298
0.00234127
-0.0532099
0.00234011
-0.0539876
0.00233719
-0.0547635
0.00233313
-0.0555392
0.00232867
-0.0563162
0.00232448
-0.0570963
0.00232111
-0.0578812
0.00231889
-0.0586723
0.00231788
-0.0594706
0.00231784
-0.0602764
0.00231825
-0.0610894
0.00231841
-0.0619087
0.00231742
-0.0627328
0.00231432
-0.0635597
0.00230808
-0.0643871
0.00229779
-0.0652122
0.00228271
-0.0660324
0.00226227
-0.0668449
0.00223558
-0.0676469
0.00220057
-0.068437
0.00215346
-0.069217
0.00209005
-0.0699948
0.00200994
-0.070785
0.00192212
-0.0716053
0.00184796
-0.0724666
0.00181665
-0.0733651
0.00185143
-0.0742779
0.00195336
-0.0751694
0.00209363
-0.0760012
0.00222134
-0.0767425
0.00228944
-0.0773811
0.00227874
-0.0779312
0.00220123
-0.078427
0.00208593
-0.0789058
0.00196233
-0.0793916
0.00184882
-0.0798849
0.00175257
-0.0803758
0.00167603
-0.0808534
0.00161668
-0.0813078
0.0015707
-0.0817332
0.00153711
-0.0821297
0.00151711
-0.0825014
0.00150893
-0.0828514
0.00150915
-0.0831797
0.00151412
-0.083484
0.00152477
-0.0837642
0.0015521
-0.084029
0.0016185
-0.0843032
0.00175046
-0.0846291
0.00196343
-0.0850589
0.00224662
-0.0856397
0.00255874
-0.086397
0.00284057
-0.0873245
0.00303815
-0.0883813
0.0031213
-0.0894987
0.00308683
-0.0905939
0.00294952
-0.0915895
0.00273222
-0.0924322
0.00246253
-0.093104
0.00217089
-0.0936168
0.00188645
-0.0940004
0.00163116
-0.0942906
0.00141641
-0.0945202
0.00124347