/*--------------------------------*- C++ -*----------------------------------*\
| =========                 |                                                 |
| \\      /  F ield         | OpenFOAM: The Open Source CFD Toolbox           |
|  \\    /   O peration     | Version:  v2006                                 |
|   \\  /    A nd           | Website:  www.openfoam.com                      |
|    \\/     M anipulation  |                                                 |
\*---------------------------------------------------------------------------*/
FoamFile
{
    version     2.0;
    format      ascii;
    class       surfaceScalarField;
    location    "12.7";
    object      phi;
}
// * * * * * * * * * * * * * * * * * * * * * * * * * * * * * * * * * * * * * //

dimensions      [0 3 -1 0 0 0 0];
oriented        oriented;


internalField   nonuniform List<scalar> 
299200
(
-0.00073771
0.00073771
-0.00127378
0.000536073
-0.00179027
0.000516484
-0.00233589
0.000545624
-0.0029047
0.000568804
-0.00349129
0.000586597
-0.00409167
0.000600382
-0.00470174
0.000610068
-0.00531766
0.000615919
-0.00593609
0.000618431
-0.0065547
0.000618604
-0.0071718
0.0006171
-0.00778603
0.000614239
-0.0083961
0.000610066
-0.0090006
0.0006045
-0.00959807
0.000597471
-0.010187
0.000588947
-0.010766
0.000578944
-0.0113336
0.000567588
-0.0118886
0.000555029
-0.01243
0.000541412
-0.0129569
0.000526904
-0.0134686
0.000511654
-0.0139644
0.000495814
-0.0144439
0.000479545
-0.0149069
0.00046296
-0.015353
0.00044613
-0.0157821
0.000429147
-0.0161943
0.000412145
-0.0165896
0.000395276
-0.0169682
0.000378657
-0.0173306
0.000362377
-0.0176771
0.000346458
-0.0180079
0.000330862
-0.0183235
0.000315572
-0.0186241
0.000300608
-0.0189101
0.000285952
-0.0191815
0.000271458
-0.0194384
0.000256861
-0.0196802
0.000241859
-0.0199065
0.000226219
-0.0201163
0.000209809
-0.0203088
0.000192577
-0.0204834
0.000174575
-0.0206394
0.000156033
-0.0207768
0.000137395
-0.0208961
0.000119257
-0.0209984
0.000102252
-0.0210852
8.68899e-05
-0.0211587
7.34221e-05
-0.0212204
6.17245e-05
-0.0212718
5.14016e-05
-0.0213137
4.19564e-05
-0.0213461
3.23201e-05
-0.0213672
2.11516e-05
-0.0213738
6.62747e-06
-0.0213632
-1.06538e-05
-0.0213333
-2.99234e-05
-0.0212825
-5.0789e-05
-0.0212097
-7.2756e-05
-0.0211145
-9.5186e-05
-0.0209971
-0.000117401
-0.0208584
-0.000138762
-0.0206996
-0.000158741
-0.0205227
-0.000176955
-0.0203295
-0.000193169
-0.0201222
-0.000207296
-0.0199028
-0.000219367
-0.0196734
-0.000229496
-0.0194355
-0.000237857
-0.0191908
-0.000244651
-0.0189408
-0.000250086
-0.0186864
-0.000254354
-0.0184288
-0.000257622
-0.0181688
-0.000260025
-0.0179071
-0.000261673
-0.0176444
-0.000262651
-0.0173814
-0.000263022
-0.0171186
-0.000262837
-0.0168564
-0.000262148
-0.0165954
-0.000261013
-0.0163359
-0.00025949
-0.0160783
-0.000257637
-0.0158228
-0.000255504
-0.0155696
-0.000253133
-0.0153191
-0.000250524
-0.0150715
-0.000247621
-0.0148272
-0.000244296
-0.0145868
-0.000240357
-0.0143513
-0.000235558
-0.0141216
-0.000229646
-0.0138992
-0.000222409
-0.0136855
-0.000213718
-0.0134819
-0.000203591
-0.0132897
-0.000192242
-0.0131096
-0.000180068
-0.012942
-0.000167618
-0.0127865
-0.000155495
-0.0126423
-0.000144245
-0.012508
-0.000134225
-0.0123823
-0.000125728
-0.0122632
-0.000119087
-0.0121486
-0.000114625
-0.0120357
-0.00011292
-0.0119209
-0.000114767
-0.0118
-0.000120918
-0.0116683
-0.000131694
-0.0115218
-0.000146451
-0.0113585
-0.00016335
-0.011179
-0.000179467
-0.0109877
-0.000191299
-0.0107921
-0.000195618
-0.010602
-0.000190118
-0.0104281
-0.000173908
-0.0102799
-0.000148153
-0.0101642
-0.000115715
-0.0100839
-8.0294e-05
-0.0100385
-4.54202e-05
-0.0100248
-1.36731e-05
-0.0100387
1.38738e-05
-0.0100753
3.66256e-05
-0.0101313
5.59397e-05
-0.0102041
7.28305e-05
-0.010292
8.78691e-05
-0.0103931
0.000101122
-0.0105058
0.000112706
-0.0106286
0.000122851
-0.0107603
0.000131691
-0.0108996
0.000139297
-0.0110454
0.000145797
-0.0111968
0.000151396
-0.0113531
0.000156265
-0.0115134
0.000160352
-0.0116769
0.000163445
-0.0118424
0.000165475
-0.0120094
0.000167067
-0.012179
0.00016958
-0.0123536
0.000174562
-0.0125365
0.000182957
-0.0127311
0.000194603
-0.0129392
0.000208084
-0.0131601
0.000220864
-0.0133886
0.000228539
-0.0136143
0.000225655
-0.0138233
0.000209042
-0.0140041
0.000180792
-0.0141545
0.000150398
-0.0142869
0.000132406
-0.0144258
0.000138865
-0.0146023
0.000176547
-0.0148466
0.000244273
-0.0151834
0.000336807
-0.0156285
0.000445105
-0.0161822
0.000553681
-0.0168223
0.000640158
-0.0175041
0.000681782
-0.0181723
0.000668162
-0.0187834
0.000611123
-0.0193237
0.000540249
-0.0198077
0.000484031
-0.0202665
0.000458797
-0.0207271
0.000460593
-0.0212035
0.000476423
-0.0217003
0.000496821
-0.0222181
0.000517724
-0.022757
0.000538931
-0.0233186
0.000561572
-0.0239048
0.000586256
-0.0245172
0.000612433
-0.0251557
0.00063841
-0.0258177
0.000662046
-0.0264993
0.000681642
-0.0271959
0.000696555
-0.0279031
0.000707194
-0.0286176
0.000714524
-0.0293371
0.000719526
-0.0300601
0.000722934
-0.0307853
0.000725228
-0.031512
0.000726729
-0.0322397
0.000727677
-0.032968
0.000728252
-0.0336965
0.000728585
-0.0344253
0.000728758
-0.0351541
0.000728823
-0.0358829
0.000728796
-0.0366116
0.000728671
-0.03734
0.000728427
-0.0380681
0.000728043
-0.0387956
0.000727503
-0.0395224
0.000726798
-0.0402483
0.000725934
-0.0409732
0.00072494
-0.0416971
0.00072388
-0.04242
0.000722843
-0.0431419
0.000721935
-0.0438632
0.000721261
-0.0445841
0.000720907
-0.045305
0.000720923
-0.0460263
0.000721304
-0.0467483
0.000721975
-0.0474711
0.000722798
-0.0481946
0.000723571
-0.0489187
0.000724045
-0.0496426
0.000723946
-0.0503656
0.000723009
-0.0510867
0.000721018
-0.0518045
0.00071785
-0.052518
0.000713486
-0.053226
0.000708013
-0.0539276
0.000701604
-0.0546221
0.000694499
-0.0553091
0.000686983
-0.0559884
0.000679347
-0.0566603
0.000671842
-0.0573249
0.000664617
-0.0579826
0.000657694
-0.0586337
0.000651072
-0.0592788
0.000645096
-0.0599197
0.000640976
-0.0605606
0.000640882
-0.0612072
0.000646623
-0.0618636
0.000656344
-0.0625249
0.000661328
-0.0631704
0.000645499
-0.0637627
0.000592246
-0.0642628
0.00050014
-0.0646586
0.000395815
-0.0649843
0.000325715
-0.0653365
0.000352189
-0.0658317
0.000495161
-0.0665562
0.000724547
-0.0675283
0.000972114
-0.0686934
0.00116511
-0.0699535
0.00126007
-0.071211
0.00125748
-0.072391
0.00118005
-0.0734531
0.00106207
-0.0743956
0.000942513
-0.075242
0.000846376
-0.0760249
0.000782935
-0.076774
0.000749078
-0.0775086
0.000734591
-0.0782393
0.000730736
-0.0789682
0.000728895
-0.0796917
0.000723469
-0.0804047
0.000712951
-0.0811032
0.000698497
-0.0817864
0.00068321
-0.0824584
0.000672001
-0.0831293
0.000670955
-0.0838127
0.000683356
-0.0845181
0.000705445
-0.0852436
0.000725445
-0.0859717
0.000728169
-0.0866762
0.000704486
-0.0873325
0.000656298
-0.0879332
0.000600666
-0.0884949
0.000561745
-0.0890526
0.000557642
-0.089647
0.000594389
-0.0903053
0.000658308
-0.0910337
0.000728457
-0.0918203
0.000786545
-0.092642
0.00082172
-0.0934728
0.000830841
-0.0942858
0.000812934
-0.0950577
0.000771941
-0.0957735
0.000715771
-0.096426
0.000652492
-0.0970147
0.000588698
-0.0975437
0.000528994
-0.0980197
0.000476058
-0.0984507
0.000430958
-0.0988443
0.00039362
-0.0992076
0.000363307
-0.0995466
0.000338994
-0.0998661
0.000319475
-0.10017
0.000303503
-0.100459
0.00028987
-0.100737
0.000277335
-0.101001
0.00026395
-0.101249
0.000248592
-0.10148
0.000230218
-0.101688
0.000207982
-0.101869
0.000181968
-0.102023
0.00015334
-0.102146
0.000123079
-0.102233
8.66885e-05
-0.10226
2.77699e-05
-0.102203
-5.7655e-05
-0.102051
-0.000151811
-0.101813
-0.000238117
-0.101501
-0.000312009
-0.101125
-0.000375358
-0.100695
-0.000430314
-0.100217
-0.000478503
-0.0996954
-0.000521232
-0.0991357
-0.000559674
-0.0985408
-0.000594894
-0.097913
-0.000627809
-0.0972539
-0.000659134
-0.0965645
-0.000689354
-0.0958458
-0.000718735
-0.0950984
-0.000747356
-0.0943233
-0.00077515
-0.0935213
-0.000801958
-0.0926937
-0.00082758
-0.0918419
-0.000851825
-0.0909673
-0.000874557
-0.0900716
-0.00089572
-0.0891563
-0.000915346
-0.0882227
-0.000933548
-0.0872722
-0.00095048
-0.0863059
-0.000966306
-0.0853248
-0.000981167
-0.0843296
-0.000995155
-0.0833213
-0.00100832
-0.0823006
-0.00102066
-0.0812685
-0.00103218
-0.0802256
-0.00104286
-0.0791729
-0.0010527
-0.0781112
-0.00106171
-0.0770413
-0.00106992
-0.0759639
-0.00107736
-0.0748799
-0.00108406
-0.0737898
-0.00109004
-0.0726945
-0.00109534
-0.0715945
-0.00109996
-0.0704906
-0.00110393
-0.0693833
-0.00110726
-0.0682733
-0.00110997
-0.0671613
-0.00111207
-0.0660477
-0.00111358
-0.0649332
-0.0011145
-0.0638183
-0.00111485
-0.0627037
-0.00111464
-0.0615898
-0.00111387
-0.0604773
-0.00111257
-0.0593665
-0.00111075
-0.0582581
-0.00110842
-0.0571525
-0.00110559
-0.0560502
-0.00110227
-0.0549518
-0.00109846
-0.0538576
-0.00109416
-0.0527682
-0.00108939
-0.0516841
-0.00108414
-0.0506056
-0.00107846
-0.0495333
-0.00107234
-0.0484674
-0.00106583
-0.0474085
-0.00105893
-0.0463568
-0.00105167
-0.0453128
-0.00104407
-0.0442766
-0.00103616
-0.0432486
-0.00102797
-0.0422291
-0.00101954
-0.0412182
-0.00101091
-0.0402161
-0.00100214
-0.0392228
-0.000993272
-0.0382384
-0.000984364
-0.0372629
-0.000975474
-0.0362963
-0.000966656
-0.0353383
-0.000957955
-0.0343889
-0.000949397
-0.0334479
-0.000940987
-0.0325153
-0.000932694
-0.0315908
-0.00092446
-0.0306746
-0.000916195
-0.0297668
-0.000907781
-0.0288677
-0.000899073
-0.0279778
-0.000889905
-0.0270977
-0.000880105
-0.0262282
-0.000869512
-0.0253702
-0.000857997
-0.0245247
-0.00084549
-0.0236927
-0.00083199
-0.0228752
-0.000817573
-0.0220728
-0.000802372
-0.0212862
-0.000786557
-0.0205159
-0.000770299
-0.0197622
-0.000753732
-0.0190253
-0.000736923
-0.0183054
-0.000719861
-0.017603
-0.000702457
-0.0169184
-0.000684572
-0.0162523
-0.000666058
-0.0156055
-0.000646794
-0.0149788
-0.000626729
-0.0143729
-0.000605892
-0.0137885
-0.00058439
-0.0132262
-0.00056237
-0.0126862
-0.000539974
-0.0121689
-0.000517302
-0.0116745
-0.00049439
-0.0112033
-0.000471219
-0.0107555
-0.000447738
-0.0103316
-0.000423896
-0.00993199
-0.000399658
-0.00955707
-0.000374924
-0.0092076
-0.000349468
-0.00888469
-0.00032291
-0.00859006
-0.000294622
-0.00832626
-0.000263802
-0.00809656
-0.000229706
-0.00790468
-0.000191877
-0.00775339
-0.000151285
-0.00764287
-0.000110527
-0.00756941
-7.34528e-05
-0.00752442
-4.4991e-05
-0.00749491
-2.95086e-05
-0.00746686
-2.80578e-05
-0.00742888
-3.79763e-05
-0.00737645
-5.24284e-05
-0.00731218
-6.42712e-05
-0.00724413
-6.80502e-05
-0.00718186
-6.22688e-05
-0.00713257
-4.92877e-05
-0.00709926
-3.33113e-05
-0.00708103
-1.82342e-05
-0.00707411
-6.9161e-06
-0.00707485
7.38121e-07
-0.00707876
3.90586e-06
-0.00708357
4.81155e-06
-0.00708803
4.46386e-06
-0.00709148
3.44707e-06
-0.0070937
2.22036e-06
-0.00709457
8.73984e-07
-0.00709293
-1.64432e-06
-0.00708627
-6.65465e-06
-0.00706791
-1.83674e-05
-0.00702696
-4.09483e-05
-0.00695068
-7.6278e-05
-0.00682931
-0.000121367
-0.00666078
-0.000168532
-0.00645182
-0.000208963
-0.0062156
-0.000236221
-0.00596885
-0.00024675
-0.00572738
-0.00024147
-0.00550246
-0.000224921
-0.00529942
-0.000203041
-0.00511866
-0.000180755
-0.00495722
-0.000161445
-0.00481074
-0.000146471
-0.00467492
-0.000135827
-0.00454617
-0.000128743
-0.00442206
-0.000124117
-0.00430106
-0.000121
-0.00418222
-0.000118839
-0.00406476
-0.000117463
-0.00394781
-0.000116943
-0.00383043
-0.000117383
-0.00371169
-0.000118738
-0.00359095
-0.000120744
-0.00346782
-0.000123133
-0.00334222
-0.000125595
-0.00321435
-0.000127875
-0.00308451
-0.000129831
-0.00295311
-0.000131403
-0.00282049
-0.000132622
-0.00268684
-0.00013365
-0.00255223
-0.000134606
-0.002417
-0.000135235
-0.00228149
-0.000135505
-0.00214618
-0.000135315
-0.00201125
-0.000134933
-0.00187755
-0.000133699
-0.00174529
-0.000132262
-0.00161518
-0.000130105
-0.00148759
-0.000127592
-0.00136304
-0.000124552
-0.0012421
-0.000120937
-0.00112478
-0.00011732
-0.00101217
-0.00011261
-0.000904552
-0.000107616
-0.000802794
-0.000101758
-0.000707658
-9.5136e-05
-0.000619592
-8.80657e-05
-0.000538724
-8.08688e-05
-0.000465371
-7.33529e-05
-0.000399801
-6.55699e-05
-0.000342723
-5.70779e-05
-0.000295013
-4.77095e-05
-0.000257226
-3.77869e-05
-0.000229953
-2.72739e-05
-0.000213045
-1.69072e-05
-0.000206331
-6.71469e-06
-0.000208651
2.32005e-06
-0.000218914
1.02634e-05
-0.000235781
1.68671e-05
-0.000257254
2.14728e-05
-0.000281375
2.41213e-05
-0.000305732
2.4357e-05
-0.000327488
2.17555e-05
-0.000342628
1.51407e-05
-0.000345351
2.72238e-06
-0.00032794
-1.74109e-05
-0.000273827
-5.41133e-05
-0.000166543
-0.000107284
1.42437e-05
-0.000180787
0.000172883
-0.000158639
0.000172883
-0.000905199
0.00164291
-0.00161088
0.00124176
-0.00235698
0.00126259
-0.00318056
0.0013692
-0.00404867
0.00143692
-0.00493858
0.00147651
-0.00584078
0.00150258
-0.00674868
0.00151796
-0.0076563
0.00152355
-0.00855911
0.00152124
-0.00945364
0.00151313
-0.010337
0.00150046
-0.0112065
0.00148372
-0.0120595
0.00146312
-0.0128939
0.00143889
-0.0137078
0.00141139
-0.0145
0.00138108
-0.0152695
0.0013485
-0.0160161
0.00131418
-0.0167397
0.0012786
-0.0174404
0.00124216
-0.0181187
0.00120519
-0.018775
0.0011679
-0.0194096
0.00113042
-0.0200229
0.00109284
-0.0206151
0.00105521
-0.0211865
0.00101748
-0.021737
0.000979649
-0.0222666
0.000941716
-0.0227749
0.000903619
-0.0232614
0.000865126
-0.0237249
0.000825903
-0.0241641
0.000785707
-0.0245779
0.000744587
-0.0249652
0.000702916
-0.0253258
0.000661221
-0.0256598
0.000619935
-0.0259677
0.000579324
-0.0262504
0.000539597
-0.0265095
0.000501001
-0.0267471
0.00046378
-0.0269654
0.00042805
-0.0271665
0.000393704
-0.0273523
0.000360401
-0.0275239
0.000327617
-0.0276812
0.00029466
-0.0278226
0.000260664
-0.0279449
0.000224622
-0.0280436
0.000185568
-0.028113
0.000142834
-0.0281473
9.60391e-05
-0.0281408
4.48187e-05
-0.0280889
-9.87285e-06
-0.0279917
-6.4858e-05
-0.0278536
-0.00011695
-0.0276823
-0.000164737
-0.0274853
-0.000207587
-0.0272695
-0.000245753
-0.0270406
-0.000279685
-0.0268035
-0.000309835
-0.026562
-0.000336706
-0.0263187
-0.000360707
-0.0260754
-0.000382113
-0.025833
-0.000401082
-0.0255923
-0.000417694
-0.0253535
-0.00043199
-0.0251168
-0.000444
-0.0248824
-0.00045375
-0.0246506
-0.000461266
-0.0244219
-0.000466592
-0.0241967
-0.000469806
-0.0239758
-0.000471026
-0.0237597
-0.000470416
-0.0235492
-0.000468175
-0.0233446
-0.000464534
-0.0231466
-0.000459744
-0.0229552
-0.000454062
-0.0227705
-0.000447739
-0.0225923
-0.000441012
-0.0224203
-0.000434095
-0.0222542
-0.000427169
-0.0220933
-0.00042037
-0.0219371
-0.000413781
-0.0217852
-0.000407425
-0.0216371
-0.000401252
-0.0214925
-0.000395124
-0.0213513
-0.000388803
-0.0212137
-0.00038195
-0.0210799
-0.000374155
-0.0209504
-0.000364997
-0.0208259
-0.000354137
-0.0207069
-0.000341418
-0.0205937
-0.000326967
-0.020486
-0.000311256
-0.0203831
-0.000295115
-0.0202836
-0.000279643
-0.0201852
-0.00026602
-0.0200855
-0.000255211
-0.019982
-0.00024767
-0.0198731
-0.000243152
-0.019758
-0.000240851
-0.0196373
-0.000239784
-0.0195127
-0.000239214
-0.0193866
-0.00023906
-0.0192614
-0.000239957
-0.0191393
-0.000242967
-0.0190219
-0.000249108
-0.0189102
-0.000258123
-0.0188053
-0.000268259
-0.0187084
-0.000276426
-0.0186207
-0.000278925
-0.0185437
-0.000272686
-0.0184778
-0.000255981
-0.0184231
-0.000228576
-0.0183787
-0.000192603
-0.0183431
-0.000151328
-0.0183151
-0.000108269
-0.0182941
-6.64312e-05
-0.0182799
-2.78462e-05
-0.0182735
7.4779e-06
-0.0182736
3.6686e-05
-0.0182801
6.24262e-05
-0.0182924
8.52155e-05
-0.0183106
0.000106
-0.0183346
0.000125182
-0.0183645
0.00014256
-0.0183995
0.00015789
-0.0184389
0.000171083
-0.0184818
0.000182205
-0.0185277
0.000191684
-0.0185768
0.000200427
-0.0186301
0.000209647
-0.0186903
0.000220474
-0.0187605
0.000233646
-0.0188445
0.000249495
-0.0189455
0.00026809
-0.019065
0.000289074
-0.0192016
0.000311196
-0.0193506
0.00033196
-0.0195037
0.000347708
-0.0196498
0.000354197
-0.0197763
0.000347358
-0.0198715
0.000323672
-0.0199275
0.000281682
-0.0199432
0.000224719
-0.0199255
0.000163069
-0.0198882
0.00011319
-0.019849
9.31265e-05
-0.0198281
0.000118018
-0.019847
0.000195382
-0.0199303
0.0003276
-0.0201041
0.000510643
-0.0203916
0.00073256
-0.0208087
0.000970838
-0.0213634
0.00119483
-0.0220571
0.00137549
-0.0228849
0.00149597
-0.0238281
0.00155429
-0.0248453
0.00155742
-0.0258759
0.00151471
-0.0268563
0.00143918
-0.027744
0.00134833
-0.0285293
0.00126166
-0.0292277
0.00119519
-0.0298667
0.00115673
-0.0304732
0.00114543
-0.0310666
0.00115501
-0.0316579
0.00117754
-0.0322514
0.001206
-0.0328483
0.0012353
-0.0334486
0.00126235
-0.0340528
0.0012858
-0.0346618
0.00130555
-0.0352769
0.00132229
-0.0358992
0.00133688
-0.0365298
0.00135005
-0.0371691
0.00136229
-0.0378178
0.00137392
-0.0384762
0.00138515
-0.0391447
0.00139612
-0.0398233
0.00140692
-0.0405123
0.00141759
-0.0412117
0.0014281
-0.0419212
0.00143839
-0.0426408
0.00144839
-0.0433702
0.00145804
-0.0441091
0.00146728
-0.0448571
0.00147611
-0.0456142
0.00148456
-0.0463801
0.00149271
-0.0471548
0.00150066
-0.0479384
0.00150852
-0.0487309
0.00151639
-0.0495324
0.0015243
-0.0503426
0.00153217
-0.0511612
0.00153983
-0.0519872
0.00154697
-0.0528195
0.00155323
-0.0536565
0.00155821
-0.054496
0.00156154
-0.0553362
0.00156295
-0.0561749
0.00156233
-0.0570106
0.00155975
-0.0578421
0.00155543
-0.0586689
0.00154973
-0.0594909
0.00154308
-0.060309
0.00153589
-0.061124
0.00152852
-0.0619372
0.00152118
-0.0627495
0.00151393
-0.0635617
0.00150669
-0.0643739
0.00149921
-0.0651857
0.00149111
-0.0659957
0.00148186
-0.066802
0.0014709
-0.067602
0.00145775
-0.0683929
0.00144195
-0.0691705
0.00142268
-0.0699271
0.00139762
-0.070648
0.00136172
-0.0713087
0.00130735
-0.0718806
0.00122822
-0.0723464
0.00112713
-0.0727243
0.00102348
-0.0730853
0.000953193
-0.0735394
0.000954231
-0.0741885
0.00104497
-0.075071
0.00120823
-0.0761135
0.00139469
-0.077169
0.00155064
-0.0780836
0.00163914
-0.0787586
0.00164708
-0.0791777
0.00158418
-0.0793946
0.00147704
-0.0794942
0.00135703
-0.0795686
0.00125448
-0.0796879
0.00118134
-0.0798815
0.00113612
-0.0801491
0.00111399
-0.080476
0.00110977
-0.0808459
0.00111906
-0.0812472
0.00113581
-0.0816743
0.00115786
-0.0821302
0.00118482
-0.0826267
0.00121992
-0.0831863
0.00127259
-0.0838441
0.00135628
-0.0846419
0.00148104
-0.0856138
0.00164391
-0.086766
0.00182317
-0.0880649
0.00198219
-0.0894431
0.00208365
-0.0908246
0.002107
-0.092154
0.00205757
-0.0934103
0.00196072
-0.0945991
0.00184515
-0.0957259
0.00172744
-0.0967745
0.0016104
-0.0977063
0.00148938
-0.0984757
0.00136381
-0.0990553
0.00123789
-0.099444
0.00111715
-0.0996629
0.00100549
-0.0997463
0.000905058
-0.0997315
0.00081604
-0.0996581
0.000739572
-0.0995599
0.000673719
-0.0994595
0.000615382
-0.0993694
0.000562416
-0.0992941
0.00051336
-0.0992323
0.000467223
-0.0991795
0.000423228
-0.099129
0.000380468
-0.099073
0.000337677
-0.099003
0.000293257
-0.0989096
0.000245597
-0.0987836
0.000193438
-0.0986163
0.000136276
-0.0984018
7.52993e-05
-0.0981367
1.22815e-05
-0.0978184
-5.43933e-05
-0.0974462
-0.000123603
-0.097024
-0.000191904
-0.0965562
-0.00025981
-0.0960465
-0.000327822
-0.0954963
-0.000396854
-0.0949046
-0.000468609
-0.0942726
-0.000545295
-0.0936178
-0.000627026
-0.0929661
-0.000709331
-0.0923271
-0.000790863
-0.091694
-0.000871218
-0.0910576
-0.00094838
-0.0904117
-0.00102128
-0.0897524
-0.00108956
-0.0890776
-0.00115333
-0.0883857
-0.00121313
-0.0876756
-0.00126972
-0.0869466
-0.00132399
-0.0861977
-0.0013767
-0.0854284
-0.00142844
-0.0846382
-0.00147949
-0.0838271
-0.00152988
-0.082995
-0.00157939
-0.0821426
-0.0016276
-0.0812705
-0.001674
-0.0803801
-0.00171804
-0.0794727
-0.00175921
-0.0785501
-0.00179714
-0.0776142
-0.00183161
-0.0766669
-0.00186265
-0.07571
-0.00189046
-0.0747451
-0.00191543
-0.0737733
-0.00193804
-0.0727957
-0.0019588
-0.0718127
-0.00197816
-0.0708245
-0.00199648
-0.0698312
-0.00201398
-0.0688326
-0.00203077
-0.0678287
-0.00204682
-0.0668193
-0.00206206
-0.0658046
-0.00207637
-0.0647849
-0.00208963
-0.0637606
-0.00210173
-0.062732
-0.00211259
-0.0616999
-0.00212216
-0.0606648
-0.0021304
-0.0596275
-0.00213733
-0.0585884
-0.00214295
-0.0575484
-0.00214728
-0.056508
-0.00215036
-0.0554679
-0.00215222
-0.0544286
-0.00215289
-0.0533907
-0.0021524
-0.0523547
-0.00215079
-0.0513213
-0.00214808
-0.0502909
-0.00214431
-0.0492639
-0.00213952
-0.0482409
-0.00213373
-0.0472224
-0.00212698
-0.0462086
-0.00211932
-0.0452001
-0.00211077
-0.0441973
-0.00210135
-0.0432004
-0.00209106
-0.0422098
-0.00207993
-0.041226
-0.00206797
-0.0402492
-0.00205522
-0.0392798
-0.00204173
-0.0383181
-0.00202755
-0.0373643
-0.00201271
-0.0364187
-0.00199727
-0.0354815
-0.00198126
-0.034553
-0.00196474
-0.0336331
-0.00194779
-0.0327222
-0.00193047
-0.0318202
-0.00191288
-0.0309273
-0.00189512
-0.0300433
-0.00187728
-0.0291682
-0.00185944
-0.028302
-0.00184171
-0.0274445
-0.00182413
-0.0265957
-0.00180674
-0.0257556
-0.00178953
-0.0249241
-0.00177242
-0.0241015
-0.00175529
-0.0232881
-0.00173794
-0.0224841
-0.00172014
-0.0216903
-0.00170163
-0.0209072
-0.00168214
-0.0201357
-0.00166139
-0.0193767
-0.00163914
-0.018631
-0.00161519
-0.0178996
-0.00158941
-0.0171833
-0.00156181
-0.0164827
-0.00153253
-0.0157984
-0.00150189
-0.0151305
-0.00147033
-0.0144786
-0.00143841
-0.0138422
-0.00140671
-0.0132201
-0.00137579
-0.0126111
-0.00134599
-0.0120135
-0.00131744
-0.011426
-0.0012899
-0.0108478
-0.00126284
-0.0102784
-0.00123548
-0.00971817
-0.00120697
-0.00916835
-0.00117655
-0.00863059
-0.00114366
-0.0081069
-0.00110808
-0.00759942
-0.00106985
-0.00711014
-0.00102925
-0.00664079
-0.000986646
-0.00619283
-0.000942355
-0.00576744
-0.000896604
-0.00536569
-0.000849489
-0.00498857
-0.000801016
-0.00463705
-0.000751174
-0.00431198
-0.000699994
-0.00401382
-0.000647633
-0.00374224
-0.000594488
-0.00349551
-0.000541352
-0.00326966
-0.000489655
-0.00305763
-0.000441739
-0.00284973
-0.000399769
-0.00263308
-0.000367942
-0.00239359
-0.000350017
-0.00211924
-0.000347802
-0.00180252
-0.000361708
-0.00144219
-0.000389837
-0.00104372
-0.000426526
-0.000620138
-0.000461563
-0.000185981
-0.000486585
0.000245238
-0.000495491
0.000662281
-0.000485093
0.00105823
-0.000458218
0.00143167
-0.000422723
0.00178444
-0.00038609
0.00212121
-0.000355001
0.00244631
-0.000332014
0.0027647
-0.000317656
0.003079
-0.000310393
0.00339085
-0.000307035
0.00370025
-0.000304933
0.00400613
-0.000302436
0.00430712
-0.00029877
0.00460259
-0.000294597
0.00489237
-0.000291426
0.00517721
-0.000291498
0.005457
-0.00029815
0.00572987
-0.000313826
0.00599289
-0.000339291
0.00624455
-0.000373032
0.00648136
-0.000405336
0.00670342
-0.000431028
0.00691252
-0.000445322
0.00711154
-0.000445773
0.00730279
-0.000432714
0.00748625
-0.000408385
0.00766072
-0.000377506
0.0078235
-0.000343536
0.00797195
-0.000309896
0.00810416
-0.000278685
0.00821872
-0.000250383
0.00831593
-0.000225955
0.00839671
-0.000204895
0.00846195
-0.000186237
0.00851205
-0.000168944
0.00854711
-0.000152523
0.00856719
-0.000137021
0.0085727
-0.000122896
0.00856465
-0.000110683
0.00854473
-0.000100829
0.0085153
-9.36962e-05
0.00847901
-8.93111e-05
0.00843841
-8.72766e-05
0.00839556
-8.69754e-05
0.00835183
-8.76784e-05
0.00830799
-8.87829e-05
0.00826422
-8.98809e-05
0.00822019
-9.05675e-05
0.00817554
-9.05846e-05
0.00812973
-8.9699e-05
0.00808219
-8.77752e-05
0.00803214
-8.48868e-05
0.00797904
-8.05912e-05
0.00792155
-7.47772e-05
0.00785868
-6.72319e-05
0.00778871
-5.7621e-05
0.0077099
-4.5744e-05
0.00761988
-3.09231e-05
0.00751509
-1.25221e-05
0.00739432
8.15308e-06
0.00725693
2.9774e-05
0.00710349
5.16856e-05
0.00693416
7.41974e-05
0.0067488
9.72856e-05
0.00654686
0.000121074
0.00632772
0.000145789
0.00609079
0.000171359
0.00583615
0.000197568
0.00556436
0.000224074
0.00527614
0.000250435
0.00497262
0.000276244
0.0046549
0.000300819
0.00432471
0.000323469
0.00398369
0.000343343
0.00363419
0.000359764
0.00327875
0.000372306
0.00291967
0.000380549
0.00255933
0.000384467
0.00219933
0.000384351
0.00184091
0.00038018
0.00148572
0.000370332
0.00113968
0.000348758
0.000819727
0.000302543
0.000556532
0.000209082
0.00040288
4.63682e-05
0.000377169
-0.000155076
0.000381655
-0.000163125
0.000554538
-0.000913294
0.0025562
-0.00157966
0.00190812
-0.00228989
0.00197282
-0.00313185
0.00221116
-0.00406031
0.00236537
-0.00501571
0.00243191
-0.00596816
0.00245504
-0.00690714
0.00245694
-0.00782842
0.00244483
-0.00872957
0.00242238
-0.00960837
0.00239194
-0.0104628
0.00235484
-0.0112909
0.00231186
-0.0120916
0.00226378
-0.0128642
0.00221151
-0.0136089
0.00215608
-0.0143263
0.00209852
-0.0150175
0.00203973
-0.0156838
0.00198044
-0.0163264
0.00192116
-0.0169465
0.00186225
-0.0175451
0.00180385
-0.0181232
0.00174598
-0.0186813
0.00168856
-0.0192199
0.00163144
-0.0197392
0.00157445
-0.0202391
0.00151736
-0.0207193
0.00145992
-0.0211795
0.00140193
-0.021619
0.00134309
-0.0220369
0.00128303
-0.0224325
0.00122145
-0.0228051
0.00115833
-0.0231546
0.0010941
-0.0234812
0.00102949
-0.0237853
0.000965299
-0.0240675
0.000902207
-0.024329
0.000840817
-0.0245711
0.000781692
-0.0247954
0.000725258
-0.0250032
0.000671591
-0.0251954
0.000620233
-0.0253718
0.000570154
-0.0255312
0.000519836
-0.025671
0.000467414
-0.0257873
0.000410887
-0.025875
0.000348402
-0.025929
0.000278646
-0.0259447
0.000201201
-0.0259186
0.000116775
-0.02585
2.74621e-05
-0.0257414
-6.37641e-05
-0.0256004
-0.000150916
-0.0254343
-0.000231009
-0.025249
-0.000302188
-0.0250503
-0.000363473
-0.0248428
-0.000415037
-0.0246305
-0.000458096
-0.0244161
-0.000494083
-0.0242016
-0.000524302
-0.0239885
-0.000549879
-0.0237775
-0.000571661
-0.0235694
-0.000590226
-0.0233645
-0.000605928
-0.0231633
-0.000618968
-0.0229658
-0.00062946
-0.0227723
-0.000637466
-0.0225831
-0.000643012
-0.0223982
-0.000646103
-0.0222181
-0.000646759
-0.0220428
-0.000645035
-0.0218728
-0.000641049
-0.0217082
-0.000634985
-0.0215493
-0.0006271
-0.0213961
-0.000617708
-0.0212487
-0.000607177
-0.0211069
-0.000595905
-0.0209703
-0.000584301
-0.0208386
-0.000572746
-0.0207111
-0.000561564
-0.0205873
-0.000550981
-0.0204666
-0.000541106
-0.0203484
-0.00053193
-0.0202325
-0.00052333
-0.0201187
-0.000515097
-0.0200068
-0.000506954
-0.0198971
-0.000498576
-0.0197894
-0.000489612
-0.0196838
-0.000479722
-0.0195802
-0.000468636
-0.0194781
-0.000456221
-0.0193769
-0.00044257
-0.0192759
-0.000428062
-0.0191737
-0.000413379
-0.0190694
-0.00039942
-0.018962
-0.00038709
-0.018851
-0.000376994
-0.0187371
-0.000369117
-0.0186221
-0.00036265
-0.0185092
-0.000356118
-0.0184021
-0.000347854
-0.0183053
-0.000336622
-0.0182224
-0.000322156
-0.018156
-0.00030538
-0.0181078
-0.000288158
-0.0180781
-0.000272679
-0.0180666
-0.000260668
-0.0180722
-0.000252537
-0.0180933
-0.000247116
-0.0181278
-0.000241945
-0.0181727
-0.000234008
-0.0182246
-0.000220802
-0.0182795
-0.000201089
-0.0183334
-0.000174638
-0.0183834
-0.000142576
-0.018428
-0.000106809
-0.0184668
-6.94135e-05
-0.018501
-3.22646e-05
-0.0185316
2.80673e-06
-0.0185609
3.67576e-05
-0.0185917
6.7448e-05
-0.0186248
9.55806e-05
-0.0186611
0.000121512
-0.0187007
0.000145572
-0.0187436
0.000168123
-0.0187905
0.0001894
-0.0188419
0.000209338
-0.0188987
0.000227874
-0.0189617
0.000245194
-0.0190318
0.000261823
-0.0191101
0.000278637
-0.019197
0.000296636
-0.0192932
0.000316605
-0.0193985
0.000338933
-0.0195126
0.000363638
-0.019635
0.000390452
-0.0197646
0.000418721
-0.0199006
0.000447215
-0.0200428
0.000474095
-0.0201923
0.000497208
-0.0203525
0.000514408
-0.0205291
0.000523985
-0.02073
0.00052454
-0.0209636
0.000515319
-0.0212361
0.000497209
-0.0215471
0.000474054
-0.0218873
0.000453369
-0.0222388
0.000444641
-0.0225802
0.000459451
-0.0228932
0.000508393
-0.0231689
0.000603221
-0.0234151
0.000756908
-0.0236584
0.000975814
-0.0239366
0.00124907
-0.0242865
0.00154477
-0.024729
0.00181795
-0.0252582
0.00202518
-0.0258413
0.00213741
-0.026431
0.00214714
-0.0269862
0.00206986
-0.0274899
0.00194283
-0.0279507
0.00180914
-0.0283914
0.00170235
-0.0288343
0.00163815
-0.0292931
0.00161549
-0.0297715
0.0016239
-0.0302675
0.00165097
-0.0307768
0.00168686
-0.0312961
0.00172531
-0.0318238
0.00176301
-0.03236
0.00179855
-0.0329059
0.00183162
-0.0334628
0.00186247
-0.0340319
0.00189145
-0.034614
0.00191894
-0.0352091
0.00194518
-0.0358173
0.00197041
-0.0364381
0.00199479
-0.0370715
0.00201847
-0.0377169
0.00204157
-0.0383741
0.00206413
-0.0390427
0.00208619
-0.0397224
0.00210775
-0.0404128
0.00212877
-0.0411136
0.00214923
-0.0418247
0.00216911
-0.0425458
0.00218838
-0.0432767
0.00220707
-0.0440173
0.00222515
-0.0447672
0.00224261
-0.0455259
0.00225941
-0.0462929
0.00227544
-0.047067
0.00229053
-0.0478471
0.00230444
-0.0486318
0.00231685
-0.0494194
0.00232741
-0.0502082
0.00233579
-0.0509967
0.00234172
-0.0517836
0.00234509
-0.052568
0.00234594
-0.0533496
0.00234455
-0.0541286
0.0023414
-0.054906
0.00233713
-0.055683
0.00233247
-0.0564614
0.00232808
-0.0572428
0.00232453
-0.0580291
0.00232214
-0.0588215
0.00232094
-0.059621
0.00232069
-0.0604279
0.00232087
-0.061242
0.00232076
-0.0620623
0.00231947
-0.0628872
0.00231602
-0.0637147
0.0023094
-0.0645425
0.00229868
-0.0653679
0.00228315
-0.0661882
0.00226223
-0.0670005
0.00223499
-0.0678022
0.00219929
-0.0685917
0.00215128
-0.0693712
0.00208681
-0.0701487
0.00200577
-0.0709393
0.0019177
-0.0717603
0.00184449
-0.0726226
0.00181542
-0.0735214
0.00185303
-0.0744335
0.00195715
-0.075323
0.00209766
-0.0761516
0.00222329
-0.0768887
0.00228781
-0.0775231
0.00227351
-0.0780696
0.00219356
-0.0785627
0.00207728
-0.0790395
0.00195387
-0.0795235
0.00184104
-0.0800147
0.00174564
-0.0805032
0.00166984
-0.0809781
0.00161103
-0.0814296
0.00156548
-0.0818521
0.00153235
-0.0822459
0.00151281
-0.082615
0.00150497
-0.0829625
0.00150536
-0.0832881
0.00151042
-0.0835897
0.00152151
-0.0838674
0.00155028
-0.0841307
0.00161959
-0.0844054
0.00175574
-0.0847346
0.0019731
-0.0851706
0.00225919
-0.0857597
0.00257126
-0.0865258
0.00284975
-0.0874604
0.00304161
-0.0885211
0.0031182
-0.089638
0.00307763
-0.0907282
0.00293537
-0.0917153
0.00271453
-0.0925478
0.00244289
-0.0932093
0.0021509
-0.0937129
0.00186745
-0.0940891
0.00161404
-0.0943734
0.0014015
-0.0945986
0.00123067
-0.0947896