/*--------------------------------*- C++ -*----------------------------------*\
| =========                 |                                                 |
| \\      /  F ield         | OpenFOAM: The Open Source CFD Toolbox           |
|  \\    /   O peration     | Version:  v2006                                 |
|   \\  /    A nd           | Website:  www.openfoam.com                      |
|    \\/     M anipulation  |                                                 |
\*---------------------------------------------------------------------------*/
FoamFile
{
    version     2.0;
    format      ascii;
    class       surfaceScalarField;
    location    "7";
    object      alphaPhi0.water;
}
// * * * * * * * * * * * * * * * * * * * * * * * * * * * * * * * * * * * * * //

dimensions      [0 3 -1 0 0 0 0];
oriented        oriented;


internalField   nonuniform List<scalar> 
104500
(
4.12668e-05
-4.12668e-05
9.62047e-05
-5.49379e-05
0.000148643
-5.2438e-05
0.000197754
-4.91115e-05
0.000245757
-4.80033e-05
0.000293603
-4.7846e-05
0.000341362
-4.77583e-05
0.000388926
-4.75643e-05
0.000436221
-4.72954e-05
0.000483211
-4.69902e-05
0.000529873
-4.66616e-05
0.000576179
-4.63056e-05
0.000622106
-4.59274e-05
0.000667631
-4.55245e-05
0.00071273
-4.50998e-05
0.000757384
-4.46538e-05
0.000801571
-4.4187e-05
0.000845275
-4.37035e-05
0.000888477
-4.32023e-05
0.000931162
-4.26852e-05
0.000973317
-4.21552e-05
0.00101493
-4.16132e-05
0.00105599
-4.10597e-05
0.00109649
-4.04968e-05
0.00113641
-3.99241e-05
0.00117576
-3.93451e-05
0.00121452
-3.87613e-05
0.00125269
-3.8173e-05
0.00129027
-3.75806e-05
0.00132726
-3.69848e-05
0.00136364
-3.63872e-05
0.00139943
-3.57883e-05
0.00143462
-3.51872e-05
0.0014692
-3.45845e-05
0.00150318
-3.39813e-05
0.00153656
-3.33754e-05
0.00156932
-3.27633e-05
0.00160146
-3.21403e-05
0.00163297
-3.15039e-05
0.00166382
-3.08552e-05
0.00169402
-3.02024e-05
0.00172359
-2.95608e-05
0.00175253
-2.89478e-05
0.0017809
-2.83713e-05
0.00180873
-2.78291e-05
0.00183605
-2.7314e-05
0.00186287
-2.68194e-05
0.00188921
-2.63411e-05
0.00191509
-2.5877e-05
0.00194051
-2.54257e-05
0.0019655
-2.49852e-05
0.00199005
-2.45531e-05
0.00201418
-2.41303e-05
0.00203791
-2.37267e-05
0.00206127
-2.33661e-05
0.00208435
-2.3081e-05
0.00210725
-2.28973e-05
0.00213007
-2.28154e-05
0.00215287
-2.28027e-05
0.00217567
-2.28045e-05
0.00219844
-2.27674e-05
0.0022211
-2.26587e-05
0.00224357
-2.24739e-05
0.0022658
-2.2228e-05
0.00228774
-2.19418e-05
0.00230938
-2.16325e-05
0.00233069
-2.13097e-05
0.00235166
-2.09784e-05
0.0023723
-2.06409e-05
0.0023926
-2.02988e-05
0.00241256
-1.99535e-05
0.00243216
-1.9606e-05
0.00245142
-1.92573e-05
0.00247033
-1.89081e-05
0.00248889
-1.85591e-05
0.0025071
-1.82105e-05
0.00252496
-1.78628e-05
0.00254248
-1.75165e-05
0.00255965
-1.71724e-05
0.00257648
-1.68319e-05
0.00259298
-1.64971e-05
0.00260915
-1.61709e-05
0.002625
-1.5855e-05
0.00264055
-1.55484e-05
0.0026558
-1.52453e-05
0.00267073
-1.4934e-05
0.00268533
-1.45996e-05
0.00269956
-1.42286e-05
0.00271337
-1.3814e-05
0.00272673
-1.33586e-05
0.00273961
-1.28741e-05
0.00275198
-1.23772e-05
0.00276387
-1.18843e-05
0.00277528
-1.14078e-05
0.00278623
-1.09547e-05
0.00279676
-1.05277e-05
0.00280689
-1.01269e-05
0.00281664
-9.75088e-06
0.00282603
-9.3978e-06
0.0028351
-9.0655e-06
0.00284385
-8.75162e-06
0.00285231
-8.45374e-06
0.00286048
-8.16959e-06
0.00286837
-7.8973e-06
0.00287601
-7.63546e-06
0.00288339
-7.38316e-06
0.00289053
-7.13978e-06
0.00289744
-6.90494e-06
0.00290411
-6.67833e-06
0.00291057
-6.45967e-06
0.00291682
-6.24863e-06
0.00292287
-6.04482e-06
0.00292871
-5.84775e-06
0.00293437
-5.65693e-06
0.00293984
-5.47182e-06
0.00294514
-5.29188e-06
0.00295025
-5.11657e-06
0.0029552
-4.94539e-06
0.00295998
-4.77782e-06
0.00296459
-4.61332e-06
0.00296904
-4.45137e-06
0.00297333
-4.29159e-06
0.00297747
-4.13376e-06
0.00298144
-3.97778e-06
0.00298527
-3.82354e-06
0.00298894
-3.67095e-06
0.00299246
-3.51997e-06
0.00299583
-3.37066e-06
0.00299905
-3.2232e-06
0.00300213
-3.07778e-06
0.00300506
-2.93447e-06
0.00300786
-2.79317e-06
0.00301051
-2.65361e-06
0.00301303
-2.51523e-06
0.0030154
-2.37692e-06
0.00301764
-2.23645e-06
0.00301973
-2.08862e-06
0.00302165
-1.92631e-06
0.00302341
-1.75212e-06
0.00302496
-1.55315e-06
0.00302627
-1.3129e-06
0.00302726
-9.92476e-07
0.00302778
-5.11016e-07
0.00302757
2.0381e-07
0.00302647
1.10622e-06
0.0030246
1.86839e-06
0.00302221
2.38426e-06
0.00301951
2.70277e-06
0.0030166
2.91142e-06
0.00301353
3.06818e-06
0.00301033
3.19961e-06
0.00300702
3.31433e-06
0.0030036
3.41424e-06
0.0030001
3.50047e-06
0.00299653
3.57425e-06
0.00299289
3.63617e-06
0.00298921
3.68595e-06
0.00298548
3.7228e-06
0.00298174
3.74585e-06
0.00297798
3.75445e-06
0.00297423
3.74816e-06
0.00297051
3.72661e-06
0.00296682
3.6895e-06
0.00296318
3.63652e-06
0.00295961
3.56721e-06
0.00295613
3.48069e-06
0.00295276
3.37544e-06
0.00294951
3.24922e-06
0.00294641
3.0991e-06
0.00294349
2.92128e-06
0.00294078
2.71072e-06
0.00293832
2.46112e-06
0.00293615
2.16571e-06
0.00293433
1.81943e-06
0.00293291
1.42657e-06
0.0029319
1.00689e-06
0.00293132
5.8274e-07
0.00293113
1.81182e-07
0.0029313
-1.65676e-07
0.00293177
-4.70501e-07
0.00293247
-6.95055e-07
0.00293332
-8.57676e-07
0.00293429
-9.71159e-07
0.00293534
-1.04471e-06
0.00293644
-1.09703e-06
0.00293757
-1.13066e-06
0.00293872
-1.15605e-06
0.0029399
-1.17661e-06
0.0029411
-1.1979e-06
0.00294233
-1.22754e-06
0.00294359
-1.26279e-06
0.0029449
-1.31514e-06
0.0029463
-1.39327e-06
0.0029478
-1.50773e-06
0.00294947
-1.67081e-06
0.00295138
-1.90177e-06
0.0029536
-2.22475e-06
0.00295627
-2.66526e-06
0.00295951
-3.24265e-06
0.00296347
-3.95798e-06
0.00296825
-4.78279e-06
0.00297391
-5.656e-06
0.0029804
-6.49127e-06
0.00298759
-7.19504e-06
0.00299528
-7.69134e-06
0.00300323
-7.94196e-06
0.00301118
-7.95656e-06
0.00301897
-7.78797e-06
0.00302648
-7.51437e-06
0.0030337
-7.21593e-06
0.00304066
-6.95492e-06
0.00304742
-6.76551e-06
0.00305407
-6.65413e-06
0.00306068
-6.60801e-06
0.00306729
-6.60706e-06
0.00307392
-6.63295e-06
0.0030806
-6.67421e-06
0.00308732
-6.72623e-06
0.00309411
-6.78875e-06
0.00310097
-6.86269e-06
0.00310792
-6.94769e-06
0.00311496
-7.04142e-06
0.0031221
-7.1398e-06
0.00312934
-7.23821e-06
0.00313667
-7.33234e-06
0.00314409
-7.4187e-06
0.00315159
-7.49485e-06
0.00315915
-7.55909e-06
0.00316676
-7.61008e-06
0.0031744
-7.64673e-06
0.00318207
-7.66809e-06
0.00318974
-7.67309e-06
0.00319741
-7.66088e-06
0.00320504
-7.63067e-06
0.00321262
-7.58203e-06
0.00322013
-7.51428e-06
0.00322756
-7.42668e-06
0.00323488
-7.31867e-06
0.00324207
-7.18964e-06
0.00324911
-7.03935e-06
0.00325597
-6.8672e-06
0.00326265
-6.67294e-06
0.0032691
-6.45583e-06
0.00327532
-6.21593e-06
0.00328127
-5.95215e-06
0.00328694
-5.66475e-06
0.00329229
-5.35105e-06
0.0032973
-5.01078e-06
0.00330194
-4.64361e-06
0.00330619
-4.24947e-06
0.00331002
-3.82853e-06
0.0033134
-3.37926e-06
0.0033163
-2.89753e-06
0.00331868
-2.38193e-06
0.00332051
-1.83107e-06
0.00332175
-1.24466e-06
0.00332238
-6.26735e-07
0.00332238
-4.3981e-09
0.00332167
7.11079e-07
0.00332026
1.41181e-06
0.00331813
2.13443e-06
0.00331524
2.88735e-06
0.00331156
3.67602e-06
0.00330706
4.50517e-06
0.00330168
5.3795e-06
0.00329538
6.30427e-06
0.00328809
7.2854e-06
0.00327976
8.32966e-06
0.00327031
9.44528e-06
0.00325967
1.06416e-05
0.00324774
1.19286e-05
0.00323443
1.33165e-05
0.00321961
1.48148e-05
0.00320318
1.64313e-05
0.00318501
1.81696e-05
0.00316498
2.00282e-05
0.00314298
2.20001e-05
0.00311891
2.40741e-05
0.00309267
2.6237e-05
0.0030642
2.84758e-05
0.00303342
3.07766e-05
0.0030003
3.31203e-05
0.00296483
3.54738e-05
0.00292704
3.77824e-05
0.00288708
3.99659e-05
0.00284515
4.19288e-05
0.00280157
4.35812e-05
0.0027567
4.4868e-05
0.00271092
4.57801e-05
0.00266458
4.63386e-05
0.00261802
4.65585e-05
0.00257165
4.63696e-05
0.002526
4.56515e-05
0.00248165
4.43473e-05
0.00243905
4.26047e-05
0.00239826
4.0791e-05
0.00235893
3.93298e-05
0.00232043
3.8496e-05
0.0022821
3.83338e-05
0.00224339
3.87107e-05
0.00220397
3.94181e-05
0.00216372
4.02538e-05
0.00212265
4.10683e-05
0.00208087
4.17803e-05
0.0020385
4.23657e-05
0.00199567
4.28317e-05
0.00195248
4.31951e-05
0.001909
4.34718e-05
0.00186532
4.36802e-05
0.00182148
4.38395e-05
0.00177752
4.39692e-05
0.00173343
4.40855e-05
0.00168923
4.41993e-05
0.00164492
4.43133e-05
0.00160049
4.44261e-05
0.00155596
4.45349e-05
0.00151132
4.46378e-05
0.00146658
4.47339e-05
0.00142176
4.48243e-05
0.00137685
4.49113e-05
0.00133185
4.49972e-05
0.00128677
4.50833e-05
0.0012416
4.517e-05
0.00119634
4.52557e-05
0.001151
4.53393e-05
0.00110558
4.54208e-05
0.00106008
4.55019e-05
0.0010145
4.55849e-05
0.000968827
4.56691e-05
0.000923076
4.57509e-05
0.000877248
4.58273e-05
0.000831349
4.58992e-05
0.000785382
4.59674e-05
0.00073935
4.60318e-05
0.000693259
4.60909e-05
0.000647115
4.61443e-05
0.000600922
4.61925e-05
0.000554687
4.62354e-05
0.000508414
4.62728e-05
0.000462111
4.63027e-05
0.000415785
4.63259e-05
0.000369441
4.63446e-05
0.000323072
4.63686e-05
0.000276666
4.64066e-05
0.000230215
4.645e-05
0.000183804
4.64111e-05
0.000137711
4.60936e-05
9.34256e-05
4.42851e-05
5.11787e-05
4.2247e-05
5.11787e-05
3.4953e-05
-7.62197e-05
8.37026e-05
-0.000103688
0.000129198
-9.79331e-05
0.000171366
-9.12793e-05
0.000212585
-8.92226e-05
0.000253811
-8.90723e-05
0.000295065
-8.90124e-05
0.000336208
-8.8707e-05
0.000377176
-8.82635e-05
0.000417952
-8.77659e-05
0.000458526
-8.72352e-05
0.000498886
-8.66661e-05
0.00053902
-8.60609e-05
0.000578914
-8.54191e-05
0.000618559
-8.47442e-05
0.000657941
-8.40363e-05
0.000697054
-8.32996e-05
0.000735887
-8.25367e-05
0.000774434
-8.17494e-05
0.000812689
-8.09405e-05
0.000850647
-8.01127e-05
0.000888302
-7.92683e-05
0.000925652
-7.84094e-05
0.000962694
-7.7539e-05
0.000999428
-7.66577e-05
0.00103585
-7.57676e-05
0.00107196
-7.48725e-05
0.00110776
-7.39741e-05
0.00114325
-7.30728e-05
0.00117844
-7.21698e-05
0.00121332
-7.12679e-05
0.0012479
-7.03646e-05
0.00128217
-6.94642e-05
0.00131616
-6.85677e-05
0.00134985
-6.76773e-05
0.00138327
-6.67884e-05
0.00141641
-6.59031e-05
0.00144929
-6.502e-05
0.00148192
-6.41366e-05
0.00151431
-6.32521e-05
0.00154648
-6.23646e-05
0.00157839
-6.14735e-05
0.00161002
-6.05789e-05
0.00164133
-5.96832e-05
0.00167229
-5.87889e-05
0.00170288
-5.78989e-05
0.00173307
-5.70143e-05
0.00176287
-5.61347e-05
0.00179225
-5.52591e-05
0.00182121
-5.43868e-05
0.00184974
-5.35168e-05
0.00187784
-5.26481e-05
0.00190549
-5.17817e-05
0.00193268
-5.09204e-05
0.00195938
-5.00692e-05
0.00198554
-4.92348e-05
0.00201106
-4.84233e-05
0.00203588
-4.76361e-05
0.00205995
-4.6868e-05
0.00208326
-4.61101e-05
0.00210584
-4.53514e-05
0.00212776
-4.45837e-05
0.00214909
-4.3802e-05
0.00216987
-4.30052e-05
0.00219012
-4.21945e-05
0.00220986
-4.13723e-05
0.00222909
-4.05409e-05
0.00224782
-3.97024e-05
0.00226603
-3.88582e-05
0.00228375
-3.80097e-05
0.00230095
-3.7158e-05
0.00231765
-3.63043e-05
0.00233384
-3.54496e-05
0.00234953
-3.4595e-05
0.00236471
-3.37413e-05
0.00237939
-3.28895e-05
0.00239357
-3.20409e-05
0.00240725
-3.11966e-05
0.00242043
-3.03579e-05
0.00243313
-2.95267e-05
0.00244534
-2.87055e-05
0.00245706
-2.78972e-05
0.00246831
-2.71047e-05
0.00247909
-2.63299e-05
0.00248942
-2.55727e-05
0.00249932
-2.48298e-05
0.00250881
-2.40952e-05
0.00251794
-2.33609e-05
0.00252675
-2.26198e-05
0.00253526
-2.18672e-05
0.00254349
-2.11027e-05
0.00255144
-2.03296e-05
0.00255911
-1.95538e-05
0.00256648
-1.87821e-05
0.00257355
-1.80207e-05
0.0025803
-1.72745e-05
0.00258672
-1.65468e-05
0.0025928
-1.584e-05
0.00259856
-1.51555e-05
0.00260399
-1.44939e-05
0.00260909
-1.38555e-05
0.00261388
-1.32402e-05
0.00261836
-1.26475e-05
0.00262254
-1.2077e-05
0.00262643
-1.15284e-05
0.00263005
-1.10013e-05
0.00263341
-1.04955e-05
0.00263651
-1.00108e-05
0.00263938
-9.54713e-06
0.00264203
-9.1045e-06
0.00264446
-8.68284e-06
0.0026467
-8.28205e-06
0.00264875
-7.90191e-06
0.00265064
-7.54221e-06
0.00265237
-7.2027e-06
0.00265396
-6.88316e-06
0.00265543
-6.58328e-06
0.00265678
-6.30276e-06
0.00265805
-6.04119e-06
0.00265923
-5.79812e-06
0.00266035
-5.57308e-06
0.00266143
-5.36559e-06
0.00266247
-5.17524e-06
0.00266349
-5.00165e-06
0.00266451
-4.84442e-06
0.00266554
-4.70314e-06
0.0026666
-4.57742e-06
0.0026677
-4.46692e-06
0.00266885
-4.37135e-06
0.00267006
-4.29047e-06
0.00267135
-4.22404e-06
0.00267273
-4.17192e-06
0.00267421
-4.1341e-06
0.0026758
-4.11092e-06
0.00267753
-4.10361e-06
0.00267941
-4.11279e-06
0.00268146
-4.13812e-06
0.00268371
-4.18013e-06
0.0026862
-4.23927e-06
0.00268896
-4.31449e-06
0.00269205
-4.40494e-06
0.00269557
-4.50945e-06
0.00269968
-4.62553e-06
0.00270463
-4.747e-06
0.0027106
-4.85688e-06
0.00271741
-4.94753e-06
0.00272483
-5.02971e-06
0.00273264
-5.11547e-06
0.00274076
-5.2078e-06
0.00274914
-5.3051e-06
0.00275774
-5.40596e-06
0.00276657
-5.50991e-06
0.0027756
-5.61713e-06
0.00278483
-5.72794e-06
0.00279424
-5.84234e-06
0.00280384
-5.96005e-06
0.00281361
-6.08071e-06
0.00282353
-6.20409e-06
0.00283361
-6.33014e-06
0.00284382
-6.459e-06
0.00285416
-6.59085e-06
0.00286461
-6.72576e-06
0.00287517
-6.86369e-06
0.00288581
-7.00445e-06
0.00289652
-7.14783e-06
0.0029073
-7.29356e-06
0.00291811
-7.44139e-06
0.00292895
-7.59114e-06
0.0029398
-7.74256e-06
0.00295061
-7.89547e-06
0.00296137
-8.04972e-06
0.00297204
-8.20548e-06
0.00298257
-8.36371e-06
0.00299291
-8.52589e-06
0.00300303
-8.69334e-06
0.00301291
-8.86784e-06
0.00302254
-9.04757e-06
0.00303195
-9.23342e-06
0.0030412
-9.41504e-06
0.00305033
-9.59257e-06
0.00305938
-9.74923e-06
0.00306841
-9.88544e-06
0.00307743
-9.998e-06
0.00308648
-1.00867e-05
0.00309553
-1.01552e-05
0.00310461
-1.02047e-05
0.00311369
-1.02392e-05
0.00312277
-1.02571e-05
0.00313183
-1.0259e-05
0.00314086
-1.02557e-05
0.00314985
-1.02512e-05
0.00315878
-1.02502e-05
0.00316765
-1.02595e-05
0.00317643
-1.0289e-05
0.00318511
-1.03467e-05
0.00319365
-1.0446e-05
0.00320203
-1.06015e-05
0.00321019
-1.08269e-05
0.00321808
-1.11312e-05
0.00322563
-1.15132e-05
0.00323281
-1.19552e-05
0.00323957
-1.24223e-05
0.00324595
-1.28666e-05
0.00325199
-1.32379e-05
0.0032578
-1.34957e-05
0.00326347
-1.36196e-05
0.00326913
-1.36127e-05
0.00327484
-1.34995e-05
0.00328064
-1.33171e-05
0.00328653
-1.31062e-05
0.00329248
-1.2901e-05
0.00329844
-1.27241e-05
0.00330437
-1.25843e-05
0.00331024
-1.24809e-05
0.00331604
-1.24054e-05
0.00332175
-1.23475e-05
0.00332738
-1.22983e-05
0.0033329
-1.22518e-05
0.00333832
-1.22045e-05
0.00334361
-1.21539e-05
0.00334876
-1.20983e-05
0.00335376
-1.20351e-05
0.00335858
-1.19612e-05
0.00336321
-1.18731e-05
0.00336765
-1.17678e-05
0.00337187
-1.16427e-05
0.00337587
-1.14957e-05
0.00337964
-1.13257e-05
0.00338316
-1.11316e-05
0.00338643
-1.09124e-05
0.00338943
-1.06678e-05
0.00339215
-1.0397e-05
0.00339459
-1.00991e-05
0.00339673
-9.77436e-06
0.00339857
-9.4218e-06
0.0034001
-9.04084e-06
0.0034013
-8.63265e-06
0.00340218
-8.19582e-06
0.00340272
-7.72968e-06
0.00340292
-7.23757e-06
0.00340277
-6.71633e-06
0.00340226
-6.16695e-06
0.0034014
-5.59001e-06
0.00340017
-4.986e-06
0.00339857
-4.3531e-06
0.0033966
-3.69676e-06
0.00339426
-3.01595e-06
0.00339156
-2.30215e-06
0.00338847
-1.56185e-06
0.00338502
-7.92855e-07
0.00338119
-5.62596e-09
0.00337702
7.93203e-07
0.0033725
1.62702e-06
0.00336763
2.48468e-06
0.00336243
3.36476e-06
0.00335692
4.26594e-06
0.00335111
5.18617e-06
0.00334498
6.12554e-06
0.00333859
7.09955e-06
0.0033319
8.10125e-06
0.00332491
9.12905e-06
0.00331761
1.01833e-05
0.00331002
1.12652e-05
0.00330215
1.23768e-05
0.00329401
1.35206e-05
0.00328561
1.47003e-05
0.00327698
1.59203e-05
0.00326812
1.71863e-05
0.00325906
1.85055e-05
0.00324982
1.98871e-05
0.0032404
2.13418e-05
0.00323084
2.28829e-05
0.00322113
2.45261e-05
0.00321127
2.62887e-05
0.00320125
2.81878e-05
0.00319104
3.02392e-05
0.00318059
3.24541e-05
0.00316982
3.48381e-05
0.00315867
3.73904e-05
0.00314704
4.01025e-05
0.00313486
4.29578e-05
0.00312205
4.59285e-05
0.00310855
4.89718e-05
0.00309431
5.20252e-05
0.00307927
5.50045e-05
0.00306339
5.78078e-05
0.00304664
6.03313e-05
0.00302902
6.24918e-05
0.00301056
6.42423e-05
0.00299133
6.5568e-05
0.00297141
6.64754e-05
0.0029508
6.69776e-05
0.00292935
6.71041e-05
0.00290676
6.69387e-05
0.00288271
6.66518e-05
0.00285703
6.64774e-05
0.00282972
6.66328e-05
0.00280097
6.72448e-05
0.00277098
6.83275e-05
0.00273989
6.98011e-05
0.00270778
7.15306e-05
0.00267466
7.3369e-05
0.00264054
7.51931e-05
0.0026054
7.69224e-05
0.00256924
7.85199e-05
0.00253209
7.99803e-05
0.00249397
8.13155e-05
0.0024549
8.25436e-05
0.00241489
8.36873e-05
0.00237396
8.4773e-05
0.0023321
8.58264e-05
0.00228932
8.68677e-05
0.00224561
8.791e-05
0.00220097
8.89583e-05
0.00215538
9.00106e-05
0.00210885
9.1063e-05
0.00206138
9.21125e-05
0.00201295
9.31582e-05
0.00196358
9.42015e-05
0.00191324
9.52454e-05
0.00186195
9.62919e-05
0.00180969
9.73414e-05
0.00175647
9.83938e-05
0.00170227
9.94501e-05
0.0016471
0.00010051
0.00159095
0.000101574
0.00153381
0.000102642
0.00147568
0.00010371
0.00141658
0.000104775
0.0013565
0.000105828
0.00129546
0.000106862
0.00123349
0.000107873
0.0011706
0.000108861
0.00110681
0.000109823
0.00104214
0.000110754
0.000976637
0.00011165
0.000910321
0.000112508
0.000843233
0.000113323
0.000775416
0.00011409
0.000706915
0.000114804
0.00063778
0.00011546
0.000568068
0.000116057
0.000497858
0.000116579
0.000427243
0.000117021
0.000356285
0.000117408
0.000284863
0.000117833
0.000212868
0.000118088
0.000141566
0.000115588
7.36514e-05
0.000110161
0.00012483
3.65431e-05
-0.000112763
8.78705e-05
-0.000155015
0.000136332
-0.000146394
0.000181057
-0.000136004
0.00022451
-0.000132676
0.000267919
-0.000132481
0.000311389
-0.000132482
0.000354764
-0.000132082
0.000397947
-0.000131447
0.000440907
-0.000130726
0.000483628
-0.000129956
0.000526098
-0.000129135
0.000568296
-0.000128259
0.000610209
-0.000127332
0.000651817
-0.000126353
0.000693109
-0.000125328
0.000734074
-0.000124264
0.000774696
-0.000123159
0.000814969
-0.000122022
0.00085488
-0.000120852
0.000894422
-0.000119655
0.000933587
-0.000118434
0.00097237
-0.000117192
0.00101076
-0.000115931
0.00104876
-0.000114655
0.00108636
-0.000113368
0.00112356
-0.000112072
0.00116035
-0.000110768
0.00119674
-0.000109458
0.00123271
-0.000108145
0.00126828
-0.00010683
0.00130343
-0.000105516
0.00133816
-0.000104201
0.00137249
-0.000102892
0.00140639
-0.000101581
0.00143988
-0.000100277
0.00147296
-9.89781e-05
0.00150562
-9.7686e-05
0.00153788
-9.63987e-05
0.00156975
-9.51148e-05
0.00160121
-9.383e-05
0.00163228
-9.25398e-05
0.00166294
-9.12447e-05
0.00169321
-8.99482e-05
0.00172307
-8.86541e-05
0.00175254
-8.7365e-05
0.00178161
-8.60818e-05
0.00181028
-8.48033e-05
0.00183855
-8.35286e-05
0.00186642
-8.22567e-05
0.00189389
-8.09872e-05
0.00192096
-7.9719e-05
0.00194763
-7.84505e-05
0.00197388
-7.71775e-05
0.00199971
-7.58945e-05
0.00202507
-7.45962e-05
0.00204993
-7.32824e-05
0.00207425
-7.19605e-05
0.00209803
-7.06427e-05
0.00212126
-6.93409e-05
0.00214397
-6.80602e-05
0.00216618
-6.67978e-05
0.00218792
-6.55449e-05
0.00220921
-6.42923e-05
0.00223005
-6.30335e-05
0.00225044
-6.17657e-05
0.00227039
-6.04889e-05
0.00228989
-5.92042e-05
0.00230895
-5.7913e-05
0.00232756
-5.66166e-05
0.00234571
-5.53163e-05
0.00236342
-5.40132e-05
0.00238068
-5.27087e-05
0.00239749
-5.1404e-05
0.00241385
-5.01004e-05
0.00242976
-4.87994e-05
0.00244522
-4.75025e-05
0.00246024
-4.62113e-05
0.00247481
-4.49275e-05
0.00248893
-4.36527e-05
0.00250261
-4.23887e-05
0.00251586
-4.11376e-05
0.00252865
-3.99023e-05
0.00254101
-3.8686e-05
0.00255293
-3.7492e-05
0.00256442
-3.63218e-05
0.0025755
-3.51744e-05
0.00258618
-3.40452e-05
0.00259649
-3.29275e-05
0.00260644
-3.18149e-05
0.00261604
-3.07028e-05
0.0026253
-2.95906e-05
0.00263423
-2.84809e-05
0.00264282
-2.73784e-05
0.00265109
-2.62885e-05
0.00265903
-2.5216e-05
0.00266665
-2.41647e-05
0.00267395
-2.31376e-05
0.00268093
-2.2137e-05
0.0026876
-2.11647e-05
0.00269397
-2.02217e-05
0.00270004
-1.93088e-05
0.00270581
-1.84265e-05
0.00271131
-1.7575e-05
0.00271654
-1.67543e-05
0.0027215
-1.59644e-05
0.00272621
-1.52054e-05
0.00273068
-1.44773e-05
0.00273491
-1.37802e-05
0.00273892
-1.31143e-05
0.00274272
-1.24796e-05
0.00274631
-1.18762e-05
0.00274971
-1.1304e-05
0.00275293
-1.07631e-05
0.00275599
-1.02533e-05
0.00275888
-9.77445e-06
0.00276162
-9.32636e-06
0.00276423
-8.90866e-06
0.00276671
-8.52097e-06
0.00276907
-8.16288e-06
0.00277133
-7.83389e-06
0.0027735
-7.53347e-06
0.00277558
-7.26103e-06
0.0027776
-7.01597e-06
0.00277955
-6.79764e-06
0.00278145
-6.60539e-06
0.00278332
-6.4386e-06
0.00278515
-6.29662e-06
0.00278695
-6.17882e-06
0.00278875
-6.08455e-06
0.00279054
-6.0132e-06
0.00279233
-5.96415e-06
0.00279413
-5.93671e-06
0.00279595
-5.92992e-06
0.00279779
-5.94233e-06
0.00279965
-5.9722e-06
0.00280153
-6.01774e-06
0.00280343
-6.07787e-06
0.00280534
-6.15305e-06
0.00280727
-6.24438e-06
0.00280922
-6.35411e-06
0.0028112
-6.49247e-06
0.00281326
-6.68253e-06
0.00281545
-6.93741e-06
0.00281781
-7.2179e-06
0.00282032
-7.46204e-06
0.00282294
-7.6502e-06
0.00282563
-7.80602e-06
0.00282839
-7.95901e-06
0.00283121
-8.12535e-06
0.00283411
-8.30946e-06
0.00283711
-8.51027e-06
0.00284022
-8.72545e-06
0.00284344
-8.95309e-06
0.00284679
-9.19175e-06
0.00285027
-9.44016e-06
0.00285389
-9.69712e-06
0.00285765
-9.96156e-06
0.00286155
-1.02326e-05
0.0028656
-1.05096e-05
0.0028698
-1.0792e-05
0.00287415
-1.10793e-05
0.00287866
-1.13711e-05
0.00288332
-1.1667e-05
0.00288814
-1.19666e-05
0.00289312
-1.22695e-05
0.00289825
-1.25751e-05
0.00290354
-1.28826e-05
0.00290899
-1.31914e-05
0.0029146
-1.35003e-05
0.00292036
-1.38079e-05
0.00292626
-1.41121e-05
0.00293231
-1.44108e-05
0.00293849
-1.47016e-05
0.00294478
-1.49833e-05
0.00295116
-1.52566e-05
0.00295764
-1.55237e-05
0.00296419
-1.57866e-05
0.00297083
-1.605e-05
0.00297755
-1.63119e-05
0.00298437
-1.65731e-05
0.00299131
-1.68259e-05
0.00299839
-1.70709e-05
0.0030056
-1.72984e-05
0.00301295
-1.75123e-05
0.00302046
-1.77098e-05
0.00302811
-1.78937e-05
0.00303592
-1.80635e-05
0.00304389
-1.82252e-05
0.00305201
-1.83746e-05
0.00306027
-1.85179e-05
0.00306868
-1.866e-05
0.00307722
-1.88015e-05
0.00308588
-1.89484e-05
0.00309464
-1.91065e-05
0.00310348
-1.92814e-05
0.00311236
-1.94782e-05
0.00312123
-1.96997e-05
0.00313004
-1.99446e-05
0.00313873
-2.02029e-05
0.00314723
-2.04567e-05
0.00315549
-2.06791e-05
0.00316346
-2.08416e-05
0.00317115
-2.0921e-05
0.00317856
-2.09071e-05
0.00318575
-2.08085e-05
0.00319278
-2.06469e-05
0.00319974
-2.04534e-05
0.00320668
-2.0257e-05
0.00321364
-2.00754e-05
0.00322066
-1.99179e-05
0.00322772
-1.9783e-05
0.0032348
-1.96629e-05
0.00324187
-1.95479e-05
0.00324889
-1.94299e-05
0.00325585
-1.93028e-05
0.00326271
-1.91632e-05
0.00326947
-1.90073e-05
0.0032761
-1.88329e-05
0.00328258
-1.86373e-05
0.0032889
-1.84176e-05
0.00329503
-1.81714e-05
0.00330097
-1.7895e-05
0.00330668
-1.75885e-05
0.00331216
-1.72483e-05
0.0033174
-1.68742e-05
0.00332237
-1.64661e-05
0.00332706
-1.60219e-05
0.00333147
-1.55419e-05
0.00333559
-1.50263e-05
0.00333939
-1.44742e-05
0.00334288
-1.38852e-05
0.00334604
-1.32598e-05
0.00334887
-1.25982e-05
0.00335135
-1.19016e-05
0.00335347
-1.11661e-05
0.00335524
-1.04e-05
0.00335664
-9.59701e-06
0.00335767
-8.75631e-06
0.00335832
-7.88826e-06
0.00335858
-6.98334e-06
0.00335846
-6.04715e-06
0.00335795
-5.0768e-06
0.00335704
-4.0796e-06
0.00335574
-3.05227e-06
0.00335405
-1.99966e-06
0.00335196
-9.29243e-07
0.00334946
1.92246e-07
0.00334657
1.33198e-06
0.00334328
2.49364e-06
0.0033396
3.67847e-06
0.00333551
4.88514e-06
0.00333102
6.11602e-06
0.00332613
7.37015e-06
0.00332085
8.64687e-06
0.00331517
9.94584e-06
0.00330909
1.12674e-05
0.0033026
1.26139e-05
0.00329571
1.39889e-05
0.00328842
1.53923e-05
0.00328073
1.68241e-05
0.00327262
1.82854e-05
0.00326411
1.97777e-05
0.00325519
2.13034e-05
0.00324584
2.28651e-05
0.00323608
2.44657e-05
0.00322589
2.6109e-05
0.00321527
2.77993e-05
0.00320424
2.95414e-05
0.00319278
3.13413e-05
0.00318092
3.32058e-05
0.00316866
3.5143e-05
0.00315602
3.7163e-05
0.00314303
3.92776e-05
0.00312972
4.15005e-05
0.00311612
4.38443e-05
0.00310225
4.63199e-05
0.00308815
4.89341e-05
0.00307386
5.16876e-05
0.00305939
5.45744e-05
0.00304476
5.75806e-05
0.00303001
6.06831e-05
0.00301513
6.38488e-05
0.00300012
6.70354e-05
0.00298493
7.01908e-05
0.00296948
7.3259e-05
0.00295363
7.61853e-05
0.0029372
7.89229e-05
0.00292001
8.14355e-05
0.00290188
8.36966e-05
0.00288266
8.56879e-05
0.00286224
8.74062e-05
0.00284045
8.88853e-05
0.00281718
9.02176e-05
0.00279228
9.15478e-05
0.00276573
9.30265e-05
0.0027376
9.47611e-05
0.00270805
9.67991e-05
0.00267724
9.91371e-05
0.00264531
0.000101724
0.00261238
0.000104466
0.00257851
0.000107239
0.00254377
0.00010993
0.00250823
0.000112464
0.00247193
0.000114817
0.0024349
0.000117013
0.00239712
0.000119097
0.00235855
0.000121115
0.00231913
0.0001231
0.00227884
0.00012507
0.00223764
0.000127029
0.00219553
0.000128978
0.00215252
0.000130914
0.00210864
0.000132839
0.0020639
0.000134754
0.0020183
0.000136661
0.00197185
0.000138561
0.00192455
0.000140455
0.00187641
0.000142346
0.00182742
0.000144235
0.00177759
0.000146123
0.00172692
0.000148011
0.00167541
0.000149901
0.00162307
0.000151792
0.0015699
0.000153684
0.00151589
0.000155578
0.00146106
0.000157473
0.0014054
0.000159366
0.00134893
0.000161253
0.00129162
0.00016313
0.0012335
0.00016499
0.00117454
0.00016683
0.00111476
0.000168643
0.00105416
0.000170423
0.000992751
0.000172161
0.00093055
0.000173851
0.000867575
0.000175483
0.00080385
0.000177049
0.000739399
0.000178541
0.000674258
0.000179944
0.000608464
0.000181255
0.000542069
0.000182452
0.000475124
0.000183524
0.000407681
0.000184465
0.000339679
0.000185409
0.000271
0.000186513
0.00020233
0.000186758
0.000135883
0.000182035
7.28811e-05
0.000173163
0.000197711
3.79687e-05
-0.000150732
9.02611e-05
-0.000207307
0.000139979
-0.000196113
0.000186095
-0.00018212
0.000230935
-0.000177516
0.00027565
-0.000177196
0.000320367
-0.0001772
0.000364948
-0.000176662
0.000409302
-0.0001758
0.000453392
-0.000174817
0.000497198
-0.000173762
0.000540705
-0.000172642
0.000583893
-0.000171447
0.000626742
-0.000170181
0.000669235
-0.000168846
0.000711356
-0.000167449
0.00075309
-0.000165999
0.000794427
-0.000164495
0.000835352
-0.000162947
0.000875855
-0.000161355
0.000915928
-0.000159728
0.000955564
-0.000158069
0.000994753
-0.000156381
0.00103349
-0.000154672
0.00107178
-0.000152944
0.00110962
-0.000151201
0.00114699
-0.000149445
0.0011839
-0.000147682
0.00122036
-0.000145913
0.00125636
-0.000144142
0.00129189
-0.00014237
0.00132698
-0.000140599
0.00136161
-0.000138831
0.00139578
-0.000137068
0.00142951
-0.000135312
0.0014628
-0.00013356
0.00149564
-0.000131817
0.00152803
-0.000130078
0.00155998
-0.000128345
0.00159148
-0.000126617
0.00162254
-0.000124893
0.00165317
-0.000123172
0.00168339
-0.000121457
0.00171319
-0.000119748
0.00174258
-0.000118046
0.00177156
-0.000116352
0.00180015
-0.000114664
0.00182832
-0.00011298
0.00185609
-0.0001113
0.00188346
-0.000109623
0.00191042
-0.000107946
0.00193697
-0.000106269
0.00196311
-0.000104589
0.00198884
-0.000102906
0.00201416
-0.000101217
0.00203908
-9.95209e-05
0.00206362
-9.78181e-05
0.00208777
-9.61115e-05
0.00211153
-9.4405e-05
0.00213489
-9.27023e-05
0.00215784
-9.10049e-05
0.00218035
-8.9312e-05
0.00220243
-8.76203e-05
0.00222406
-8.59261e-05
0.00224526
-8.42264e-05
0.00226601
-8.25195e-05
0.00228633
-8.08054e-05
0.00230621
-7.90844e-05
0.00232565
-7.73575e-05
0.00234466
-7.56257e-05
0.00236323
-7.389e-05
0.00238137
-7.2152e-05
0.00239908
-7.04127e-05
0.00241635
-6.86738e-05
0.00243318
-6.69367e-05
0.00244959
-6.52029e-05
0.00246556
-6.34742e-05
0.0024811
-6.17525e-05
0.00249621
-6.00395e-05
0.00251089
-5.83372e-05
0.00252515
-5.66474e-05
0.00253899
-5.49722e-05
0.0025524
-5.33137e-05
0.00256539
-5.16739e-05
0.00257795
-5.00546e-05
0.00259009
-4.84568e-05
0.00260179
-4.68803e-05
0.00261307
-4.53237e-05
0.00262393
-4.37846e-05
0.00263437
-4.22609e-05
0.00264442
-4.07512e-05
0.00265409
-3.92559e-05
0.00266338
-3.77768e-05
0.00267232
-3.63169e-05
0.00268091
-3.48794e-05
0.00268916
-3.34678e-05
0.00269708
-3.20848e-05
0.00270468
-3.07331e-05
0.00271196
-2.94146e-05
0.00271892
-2.81311e-05
0.00272559
-2.6884e-05
0.00273195
-2.56742e-05
0.00273803
-2.45025e-05
0.00274382
-2.33696e-05
0.00274934
-2.22758e-05
0.0027546
-2.12214e-05
0.0027596
-2.02068e-05
0.00276436
-1.92323e-05
0.00276887
-1.8298e-05
0.00277316
-1.74042e-05
0.00277724
-1.6551e-05
0.0027811
-1.57386e-05
0.00278476
-1.49669e-05
0.00278823
-1.42358e-05
0.00279153
-1.35453e-05
0.00279465
-1.28952e-05
0.0027976
-1.22851e-05
0.00280041
-1.17149e-05
0.00280307
-1.11841e-05
0.0028056
-1.06922e-05
0.00280801
-1.02388e-05
0.0028103
-9.82314e-06
0.00281248
-9.44472e-06
0.00281457
-9.1028e-06
0.00281657
-8.79668e-06
0.00281849
-8.52563e-06
0.00282034
-8.28889e-06
0.00282213
-8.08572e-06
0.00282386
-7.91535e-06
0.00282556
-7.77702e-06
0.00282721
-7.67001e-06
0.00282884
-7.59356e-06
0.00283045
-7.54696e-06
0.00283205
-7.52961e-06
0.00283365
-7.54122e-06
0.00283526
-7.58181e-06
0.00283689
-7.65137e-06
0.00283857
-7.7498e-06
0.00284029
-7.87617e-06
0.00284207
-8.02857e-06
0.00284392
-8.20443e-06
0.00284583
-8.40086e-06
0.00284776
-8.61462e-06
0.00284967
-8.84137e-06
0.00285153
-9.07505e-06
0.00285337
-9.31096e-06
0.00285527
-9.5495e-06
0.00285726
-9.79504e-06
0.00285936
-1.00523e-05
0.00286156
-1.03247e-05
0.00286386
-1.06136e-05
0.00286627
-1.09187e-05
0.00286878
-1.12384e-05
0.0028714
-1.15714e-05
0.00287412
-1.19163e-05
0.00287696
-1.22722e-05
0.0028799
-1.26381e-05
0.00288295
-1.3013e-05
0.00288611
-1.3396e-05
0.00288939
-1.3786e-05
0.00289278
-1.41822e-05
0.00289628
-1.45839e-05
0.0028999
-1.49903e-05
0.00290364
-1.54007e-05
0.00290748
-1.58144e-05
0.00291144
-1.62307e-05
0.00291552
-1.66489e-05
0.0029197
-1.70681e-05
0.002924
-1.74876e-05
0.00292841
-1.79068e-05
0.00293292
-1.83248e-05
0.00293755
-1.87409e-05
0.0029423
-1.9154e-05
0.00294716
-1.95637e-05
0.00295214
-1.99691e-05
0.00295726
-2.03689e-05
0.0029625
-2.07637e-05
0.00296786
-2.11509e-05
0.00297334
-2.15327e-05
0.00297893
-2.19041e-05
0.00298463
-2.22688e-05
0.00299042
-2.26182e-05
0.00299631
-2.29591e-05
0.0030023