/*--------------------------------*- C++ -*----------------------------------*\
| =========                 |                                                 |
| \\      /  F ield         | OpenFOAM: The Open Source CFD Toolbox           |
|  \\    /   O peration     | Version:  v2006                                 |
|   \\  /    A nd           | Website:  www.openfoam.com                      |
|    \\/     M anipulation  |                                                 |
\*---------------------------------------------------------------------------*/
FoamFile
{
    version     2.0;
    format      ascii;
    class       surfaceScalarField;
    location    "7";
    object      phi;
}
// * * * * * * * * * * * * * * * * * * * * * * * * * * * * * * * * * * * * * //

dimensions      [0 3 -1 0 0 0 0];
oriented        oriented;


internalField   nonuniform List<scalar> 
104500
(
4.13665e-05
-4.13665e-05
9.64141e-05
-5.50476e-05
0.000148963
-5.25486e-05
0.000198182
-4.92192e-05
0.00024629
-4.81081e-05
0.000294239
-4.79495e-05
0.000342101
-4.7861e-05
0.000389767
-4.76661e-05
0.000437163
-4.7396e-05
0.000484252
-4.70894e-05
0.000531011
-4.67591e-05
0.000577412
-4.64015e-05
0.000623434
-4.60214e-05
0.000669051
-4.56166e-05
0.00071424
-4.51898e-05
0.000758982
-4.47416e-05
0.000803255
-4.42726e-05
0.000847041
-4.37867e-05
0.000890324
-4.32831e-05
0.000933088
-4.27634e-05
0.000975319
-4.22308e-05
0.001017
-4.16861e-05
0.00105813
-4.11298e-05
0.0010987
-4.05641e-05
0.00113869
-3.99886e-05
0.00117809
-3.94067e-05
0.00121691
-3.88199e-05
0.00125514
-3.82286e-05
0.00129278
-3.76332e-05
0.00132981
-3.70344e-05
0.00136624
-3.64337e-05
0.00140208
-3.58318e-05
0.0014373
-3.52276e-05
0.00147192
-3.46219e-05
0.00150594
-3.40157e-05
0.00153935
-3.34069e-05
0.00157214
-3.27918e-05
0.00160431
-3.21659e-05
0.00163583
-3.15268e-05
0.00166671
-3.08752e-05
0.00169693
-3.02196e-05
0.0017265
-2.95749e-05
0.00175546
-2.89589e-05
0.00178384
-2.83792e-05
0.00181167
-2.7834e-05
0.00183899
-2.7316e-05
0.00186581
-2.68186e-05
0.00189215
-2.63374e-05
0.00191802
-2.58705e-05
0.00194343
-2.54166e-05
0.00196841
-2.49735e-05
0.00199295
-2.45388e-05
0.00201706
-2.41133e-05
0.00204077
-2.37071e-05
0.00206411
-2.33436e-05
0.00208716
-2.30552e-05
0.00211003
-2.28682e-05
0.00213282
-2.27831e-05
0.00215558
-2.27676e-05
0.00217835
-2.27673e-05
0.00220108
-2.27286e-05
0.0022237
-2.26187e-05
0.00224613
-2.24326e-05
0.00226832
-2.21853e-05
0.00229021
-2.18977e-05
0.0023118
-2.15867e-05
0.00233306
-2.12623e-05
0.00235399
-2.09295e-05
0.00237458
-2.05904e-05
0.00239483
-2.02468e-05
0.00241473
-1.99001e-05
0.00243428
-1.95512e-05
0.00245348
-1.92011e-05
0.00247233
-1.88507e-05
0.00249083
-1.85003e-05
0.00250898
-1.81506e-05
0.00252678
-1.78018e-05
0.00254424
-1.74543e-05
0.00256135
-1.71092e-05
0.00257812
-1.67677e-05
0.00259455
-1.6432e-05
0.00261065
-1.61047e-05
0.00262644
-1.57879e-05
0.00264192
-1.54806e-05
0.0026571
-1.51768e-05
0.00267196
-1.48651e-05
0.00268649
-1.45306e-05
0.00270065
-1.41597e-05
0.0027144
-1.37453e-05
0.00272769
-1.32901e-05
0.00274049
-1.28057e-05
0.0027528
-1.23086e-05
0.00276462
-1.18155e-05
0.00277596
-1.13387e-05
0.00278684
-1.08853e-05
0.0027973
-1.04581e-05
0.00280736
-1.0057e-05
0.00281704
-9.68089e-06
0.00282637
-9.32777e-06
0.00283536
-8.99553e-06
0.00284404
-8.68179e-06
0.00285243
-8.38415e-06
0.00286053
-8.10032e-06
0.00286836
-7.82844e-06
0.00287592
-7.56708e-06
0.00288324
-7.31533e-06
0.00289031
-7.07258e-06
0.00289715
-6.83843e-06
0.00290376
-6.61256e-06
0.00291016
-6.39471e-06
0.00291634
-6.18454e-06
0.00292232
-5.98166e-06
0.00292811
-5.78559e-06
0.00293371
-5.59583e-06
0.00293912
-5.41184e-06
0.00294435
-5.23307e-06
0.00294941
-5.059e-06
0.0029543
-4.88911e-06
0.00295902
-4.7229e-06
0.00296358
-4.5598e-06
0.00296798
-4.39931e-06
0.00297222
-4.24104e-06
0.00297631
-4.08477e-06
0.00298024
-3.93038e-06
0.00298401
-3.77778e-06
0.00298764
-3.62687e-06
0.00299112
-3.47761e-06
0.00299445
-3.33005e-06
0.00299763
-3.18438e-06
0.00300067
-3.04077e-06
0.00300357
-2.8993e-06
0.00300633
-2.75988e-06
0.00300896
-2.62224e-06
0.00301144
-2.4858e-06
0.00301379
-2.34947e-06
0.003016
-2.21103e-06
0.00301807
-2.06529e-06
0.00301997
-1.90516e-06
0.00302171
-1.73328e-06
0.00302324
-1.53674e-06
0.00302454
-1.29919e-06
0.00302552
-9.82092e-07
0.00302603
-5.05013e-07
0.00302582
2.05836e-07
0.00302472
1.10622e-06
0.00302285
1.86895e-06
0.00302046
2.38555e-06
0.00301776
2.70358e-06
0.00301485
2.91069e-06
0.00301178
3.06543e-06
0.00300859
3.19474e-06
0.00300528
3.30735e-06
0.00300187
3.4052e-06
0.00299839
3.48938e-06
0.00299482
3.5611e-06
0.0029912
3.62099e-06
0.00298753
3.66875e-06
0.00298383
3.7036e-06
0.00298011
3.72468e-06
0.00297638
3.73134e-06
0.00297265
3.72312e-06
0.00296895
3.69966e-06
0.00296529
3.66067e-06
0.00296169
3.60582e-06
0.00295815
3.53467e-06
0.0029547
3.44635e-06
0.00295137
3.33934e-06
0.00294815
3.2114e-06
0.00294509
3.05962e-06
0.00294221
2.88021e-06
0.00293955
2.66816e-06
0.00293713
2.41715e-06
0.00293501
2.12041e-06
0.00293324
1.77278e-06
0.00293186
1.37883e-06
0.0029309
9.58154e-07
0.00293037
5.32944e-07
0.00293023
1.31274e-07
0.00293045
-2.19743e-07
0.00293098
-5.25854e-07
0.00293173
-7.52409e-07
0.00293265
-9.16934e-07
0.00293368
-1.03215e-06
0.00293479
-1.10731e-06
0.00293595
-1.16099e-06
0.00293715
-1.19593e-06
0.00293837
-1.22248e-06
0.00293961
-1.24409e-06
0.00294088
-1.26631e-06
0.00294218
-1.29675e-06
0.00294351
-1.33275e-06
0.00294489
-1.38569e-06
0.00294636
-1.46422e-06
0.00294794
-1.57886e-06
0.00294968
-1.74186e-06
0.00295165
-1.97239e-06
0.00295395
-2.29452e-06
0.00295668
-2.73375e-06
0.00295999
-3.3096e-06
0.00296401
-4.02346e-06
0.00296886
-4.8473e-06
0.00297458
-5.7205e-06
0.00298114
-6.55698e-06
0.0029884
-7.26317e-06
0.00299616
-7.76273e-06
0.00300418
-8.01685e-06
0.00301221
-8.03448e-06
0.00302008
-7.86794e-06
0.00302768
-7.59517e-06
0.00303497
-7.29644e-06
0.00304201
-7.03438e-06
0.00304885
-6.84356e-06
0.00305558
-6.73078e-06
0.00306227
-6.68348e-06
0.00306895
-6.68161e-06
0.00307565
-6.70674e-06
0.0030824
-6.74731e-06
0.0030892
-6.79862e-06
0.00309606
-6.86036e-06
0.00310299
-6.93346e-06
0.00311001
-7.01758e-06
0.00311712
-7.11041e-06
0.00312433
-7.20792e-06
0.00313164
-7.30548e-06
0.00313903
-7.39878e-06
0.00314652
-7.48429e-06
0.00315408
-7.55959e-06
0.0031617
-7.62295e-06
0.00316937
-7.67304e-06
0.00317708
-7.70878e-06
0.00318481
-7.72919e-06
0.00319255
-7.73321e-06
0.00320027
-7.72001e-06
0.00320795
-7.68879e-06
0.00321559
-7.6391e-06
0.00322316
-7.57028e-06
0.00323065
-7.4816e-06
0.00323802
-7.37248e-06
0.00324526
-7.24232e-06
0.00325235
-7.09088e-06
0.00325927
-6.91757e-06
0.00326599
-6.72211e-06
0.00327249
-6.5038e-06
0.00327876
-6.2627e-06
0.00328476
-5.99772e-06
0.00329046
-5.7091e-06
0.00329586
-5.39422e-06
0.00330091
-5.0528e-06
0.0033056
-4.68434e-06
0.00330988
-4.28861e-06
0.00331375
-3.86497e-06
0.00331716
-3.41557e-06
0.0033201
-2.9328e-06
0.00332251
-2.41582e-06
0.00332438
-1.86332e-06
0.00332565
-1.27487e-06
0.00332631
-6.54085e-07
0.00332634
-3.53538e-08
0.00332565
6.87711e-07
0.00332426
1.39073e-06
0.00332215
2.11523e-06
0.00331928
2.86989e-06
0.00331562
3.66022e-06
0.00331113
4.49096e-06
0.00330576
5.36686e-06
0.00329947
6.29315e-06
0.00329219
7.27575e-06
0.00328387
8.32143e-06
0.00327443
9.43841e-06
0.00326379
1.06361e-05
0.00325187
1.19243e-05
0.00323856
1.33132e-05
0.00322374
1.48126e-05
0.00320731
1.64301e-05
0.00318914
1.81694e-05
0.00316912
2.00291e-05
0.00314711
2.20022e-05
0.00312304
2.40774e-05
0.00309679
2.62416e-05
0.00306831
2.84818e-05
0.00303753
3.07842e-05
0.0030044
3.31293e-05
0.00296891
3.54847e-05
0.00293112
3.77956e-05
0.00289114
3.99823e-05
0.00284919
4.19492e-05
0.00280558
4.36061e-05
0.00276068
4.48975e-05
0.00271487
4.58139e-05
0.00266849
4.6376e-05
0.00262189
4.65997e-05
0.00257548
4.64156e-05
0.00252978
4.57037e-05
0.00248537
4.44057e-05
0.0024427
4.26671e-05
0.00240185
4.08532e-05
0.00236246
3.93881e-05
0.00232391
3.85491e-05
0.00228553
3.83826e-05
0.00224677
3.87572e-05
0.00220731
3.94644e-05
0.00216701
4.03013e-05
0.00212589
4.11179e-05
0.00208406
4.18321e-05
0.00204164
4.24196e-05
0.00199875
4.28874e-05
0.0019555
4.32524e-05
0.00191197
4.35305e-05
0.00186823
4.37402e-05
0.00182433
4.39006e-05
0.00178029
4.40312e-05
0.00173615
4.41482e-05
0.00169188
4.42627e-05
0.00164751
4.43774e-05
0.00160302
4.44909e-05
0.00155842
4.46004e-05
0.00151371
4.4704e-05
0.00146891
4.48008e-05
0.00142402
4.48918e-05
0.00137904
4.49794e-05
0.00133397
4.50658e-05
0.00128882
4.51525e-05
0.00124358
4.52396e-05
0.00119826
4.53257e-05
0.00115285
4.54098e-05
0.00110735
4.54918e-05
0.00106178
4.55733e-05
0.00101612
4.56567e-05
0.000970383
4.57412e-05
0.00092456
4.58233e-05
0.00087866
4.59e-05
0.000832687
4.59722e-05
0.000786647
4.60406e-05
0.000740541
4.61052e-05
0.000694377
4.61646e-05
0.000648159
4.62181e-05
0.000601892
4.62664e-05
0.000555583
4.63095e-05
0.000509236
4.6347e-05
0.000462859
4.6377e-05
0.000416459
4.64002e-05
0.00037004
4.6419e-05
0.000323597
4.6443e-05
0.000277115
4.64811e-05
0.000230591
4.65246e-05
0.000184105
4.64858e-05
0.000137936
4.61687e-05
9.35742e-05
4.43622e-05
5.12496e-05
4.23246e-05
5.12496e-05
3.50575e-05
-7.6424e-05
8.39218e-05
-0.000103912
0.000129533
-9.81599e-05
0.000171813
-9.14995e-05
0.000213142
-8.94369e-05
0.000254477
-8.92839e-05
0.000295838
-8.92224e-05
0.000337087
-8.8915e-05
0.00037816
-8.84688e-05
0.000419039
-8.79682e-05
0.000459714
-8.74341e-05
0.000500174
-8.68614e-05
0.000540404
-8.62523e-05
0.000580394
-8.56065e-05
0.000620132
-8.49272e-05
0.000659605
-8.42147e-05
0.000698805
-8.34731e-05
0.000737724
-8.27052e-05
0.000776353
-8.19127e-05
0.000814688
-8.10984e-05
0.000852723
-8.02651e-05
0.000890452
-7.9415e-05
0.000927872
-7.85503e-05
0.000964982
-7.7674e-05
0.00100178
-7.67866e-05
0.00103826
-7.58904e-05
0.00107443
-7.49892e-05
0.00111029
-7.40845e-05
0.00114583
-7.3177e-05
0.00118107
-7.22676e-05
0.00121599
-7.13594e-05
0.00125061
-7.04497e-05
0.00128493
-6.9543e-05
0.00131894
-6.86402e-05
0.00135267
-6.77435e-05
0.00138611
-6.68484e-05
0.00141928
-6.59568e-05
0.00145218
-6.50676e-05
0.00148483
-6.41781e-05
0.00151724
-6.32876e-05
0.00154942
-6.23942e-05
0.00158134
-6.14972e-05
0.00161298
-6.05968e-05
0.00164429
-5.96954e-05
0.00167526
-5.87954e-05
0.00170584
-5.78998e-05
0.00173603
-5.70098e-05
0.00176582
-5.61248e-05
0.00179519
-5.52439e-05
0.00182414
-5.43664e-05
0.00185266
-5.34913e-05
0.00188074
-5.26177e-05
0.00190837
-5.17464e-05
0.00193554
-5.08803e-05
0.00196222
-5.00242e-05
0.00198835
-4.91851e-05
0.00201386
-4.83689e-05
0.00203865
-4.7577e-05
0.00206269
-4.68045e-05
0.00208596
-4.60423e-05
0.00210851
-4.52797e-05
0.0021304
-4.45082e-05
0.00215169
-4.37228e-05
0.00217243
-4.29225e-05
0.00219264
-4.21083e-05
0.00221234
-4.12828e-05
0.00223152
-4.04481e-05
0.0022502
-3.96064e-05
0.00226837
-3.87591e-05
0.00228603
-3.79076e-05
0.00230318
-3.70531e-05
0.00231983
-3.61966e-05
0.00233596
-3.53392e-05
0.0023516
-3.44819e-05
0.00236672
-3.36257e-05
0.00238134
-3.27716e-05
0.00239546
-3.19207e-05
0.00240908
-3.10742e-05
0.0024222
-3.02334e-05
0.00243484
-2.94003e-05
0.00244698
-2.85771e-05
0.00245864
-2.7767e-05
0.00246983
-2.69727e-05
0.00248055
-2.61963e-05
0.00249081
-2.54377e-05
0.00250063
-2.46935e-05
0.00251006
-2.39577e-05
0.00251912
-2.32226e-05
0.00252786
-2.24808e-05
0.0025363
-2.17278e-05
0.00254446
-2.09629e-05
0.00255234
-2.01895e-05
0.00255993
-1.94134e-05
0.00256724
-1.86415e-05
0.00257423
-1.78799e-05
0.00258091
-1.71336e-05
0.00258726
-1.64059e-05
0.00259327
-1.56992e-05
0.00259896
-1.50148e-05
0.00260432
-1.43535e-05
0.00260935
-1.37156e-05
0.00261407
-1.31008e-05
0.00261848
-1.25088e-05
0.00262259
-1.19392e-05
0.00262641
-1.13915e-05
0.00262996
-1.08655e-05
0.00263325
-1.03609e-05
0.00263629
-9.87749e-06
0.00263909
-9.41526e-06
0.00264167
-8.97418e-06
0.00264404
-8.5542e-06
0.00264622
-8.15519e-06
0.00264821
-7.77695e-06
0.00265003
-7.41926e-06
0.0026517
-7.08189e-06
0.00265323
-6.76458e-06
0.00265464
-6.46705e-06
0.00265594
-6.18897e-06
0.00265715
-5.92996e-06
0.00265828
-5.68955e-06
0.00265934
-5.46725e-06
0.00266037
-5.26262e-06
0.00266136
-5.07521e-06
0.00266233
-4.90466e-06
0.0026633
-4.75055e-06
0.00266429
-4.61247e-06
0.0026653
-4.49004e-06
0.00266635
-4.38291e-06
0.00266746
-4.29077e-06
0.00266863
-4.21339e-06
0.00266989
-4.15053e-06
0.00267123
-4.10205e-06
0.00267267
-4.06793e-06
0.00267424
-4.0485e-06
0.00267593
-4.04498e-06
0.00267778
-4.05801e-06
0.0026798
-4.08722e-06
0.00268203
-4.13316e-06
0.00268449
-4.19626e-06
0.00268723
-4.27549e-06
0.0026903
-4.37001e-06
0.0026938
-4.47865e-06
0.00269789
-4.59895e-06
0.00270282
-4.7247e-06
0.00270877
-4.83898e-06
0.00271557
-4.93396e-06
0.00272298
-5.02027e-06
0.00273079
-5.11006e-06
0.00273891
-5.20644e-06
0.00274728
-5.30785e-06
0.00275589
-5.41285e-06
0.00276472
-5.52094e-06
0.00277375
-5.63231e-06
0.00278299
-5.74725e-06
0.00279242
-5.86577e-06
0.00280203
-5.98759e-06
0.00281181
-6.11235e-06
0.00282175
-6.2398e-06
0.00283184
-6.3699e-06
0.00284208
-6.50278e-06
0.00285244
-6.63861e-06
0.00286292
-6.77747e-06
0.0028735
-6.91931e-06
0.00288417
-7.06394e-06
0.00289491
-7.21116e-06
0.00290572
-7.36067e-06
0.00291657
-7.51224e-06
0.00292745
-7.66569e-06
0.00293833
-7.82075e-06
0.00294919
-7.97725e-06
0.00295999
-8.13502e-06
0.0029707
-8.29424e-06
0.00298128
-8.45583e-06
0.00299167
-8.62127e-06
0.00300184
-8.79181e-06
0.00301177
-8.96927e-06
0.00302145
-9.15194e-06
0.00303093
-9.34077e-06
0.00304023
-9.52589e-06
0.00304941
-9.70649e-06
0.00305853
-9.86612e-06
0.00306761
-1.00052e-05
0.0030767
-1.01205e-05
0.00308581
-1.02119e-05
0.00309493
-1.0283e-05
0.00310407
-1.0335e-05
0.00311322
-1.03719e-05
0.00312237
-1.0392e-05
0.0031315
-1.03961e-05
0.00314059
-1.03947e-05
0.00314965
-1.0392e-05
0.00315866
-1.03927e-05
0.0031676
-1.04034e-05
0.00317645
-1.04341e-05
0.00318521
-1.04928e-05
0.00319383
-1.05927e-05
0.00320228
-1.07484e-05
0.00321052
-1.09738e-05
0.00321849
-1.12779e-05
0.00322612
-1.16595e-05
0.00323338
-1.21015e-05
0.00324023
-1.2569e-05
0.00324668
-1.30143e-05
0.00325281
-1.33871e-05
0.00325869
-1.36469e-05
0.00326445
-1.37727e-05
0.00327018
-1.37674e-05
0.00327597
-1.36553e-05
0.00328185
-1.34734e-05
0.00328781
-1.32623e-05
0.00329383
-1.30564e-05
0.00329987
-1.28784e-05
0.00330588
-1.27375e-05
0.00331183
-1.26329e-05
0.0033177
-1.25562e-05
0.00332349
-1.24972e-05
0.00332919
-1.24469e-05
0.00333479
-1.23993e-05
0.00334028
-1.23508e-05
0.00334565
-1.22989e-05
0.00335087
-1.22419e-05
0.00335594
-1.21773e-05
0.00336083
-1.2102e-05
0.00336554
-1.20124e-05
0.00337005
-1.19056e-05
0.00337434
-1.17788e-05
0.00337841
-1.16302e-05
0.00338225
-1.14585e-05
0.00338584
-1.12626e-05
0.00338917
-1.10415e-05
0.00339223
-1.07949e-05
0.00339502
-1.05221e-05
0.00339753
-1.02222e-05
0.00339973
-9.89526e-06
0.00340163
-9.54049e-06
0.00340322
-9.15726e-06
0.00340449
-8.74672e-06
0.00340542
-8.30748e-06
0.00340602
-7.8389e-06
0.00340627
-7.34424e-06
0.00340617
-6.82041e-06
0.00340572
-6.26839e-06
0.0034049
-5.68875e-06
0.00340372
-5.08201e-06
0.00340217
-4.44637e-06
0.00340025
-3.78721e-06
0.00339796
-3.10361e-06
0.00339529
-2.38754e-06
0.00339226
-1.64466e-06
0.00338884
-8.74039e-07
0.00338505
-7.08984e-08
0.00338091
7.1947e-07
0.00337642
1.55732e-06
0.00337159
2.41865e-06
0.00336642
3.30228e-06
0.00336094
4.20694e-06
0.00335515
5.13055e-06
0.00334905
6.0726e-06
0.00334268
7.05004e-06
0.00333602
8.0551e-06
0.00332905
9.08626e-06
0.00332178
1.01439e-05
0.00331421
1.12291e-05
0.00330635
1.23441e-05
0.00329823
1.34912e-05
0.00328985
1.46741e-05
0.00328123
1.58973e-05
0.00327238
1.71664e-05
0.00326333
1.84887e-05
0.00325409
1.98732e-05
0.00324469
2.13307e-05
0.00323513
2.28745e-05
0.00322542
2.45201e-05
0.00321556
2.62849e-05
0.00320555
2.81862e-05
0.00319534
3.02394e-05
0.00318488
3.24562e-05
0.00317412
3.48423e-05
0.00316296
3.73967e-05
0.00315133
4.01112e-05
0.00313915
4.29691e-05
0.00312633
4.5943e-05
0.00311283
4.89902e-05
0.00309858
5.20485e-05
0.00308352
5.50339e-05
0.00306763
5.78447e-05
0.00305086
6.03767e-05
0.00303321
6.25464e-05
0.00301472
6.4306e-05
0.00299545
6.56403e-05
0.0029755
6.65559e-05
0.00295485
6.70657e-05
0.00293335
6.71987e-05
0.00291072
6.70379e-05
0.00288663
6.6753e-05
0.00286091
6.65777e-05
0.00283357
6.673e-05
0.00280478
6.73385e-05
0.00277474
6.84185e-05
0.00274361
6.98909e-05
0.00271145
7.16212e-05
0.00267829
7.3462e-05
0.00264412
7.52897e-05
0.00260893
7.7023e-05
0.00257272
7.86247e-05
0.00253552
8.0089e-05
0.00249735
8.14277e-05
0.00245822
8.26592e-05
0.00241815
8.38057e-05
0.00237716
8.48939e-05
0.00233524
8.59494e-05
0.0022924
8.69927e-05
0.00224862
8.80368e-05
0.00220391
8.90869e-05
0.00215826
9.0141e-05
0.00211167
9.11952e-05
0.00206412
9.22464e-05
0.00201563
9.32939e-05
0.00196618
9.43388e-05
0.00191578
9.53844e-05
0.00186441
9.64325e-05
0.00181208
9.74835e-05
0.00175878
9.85374e-05
0.00170451
9.95951e-05
0.00164927
0.000100657
0.00159304
0.000101722
0.00153582
0.000102791
0.00147762
0.000103861
0.00141843
0.000104927
0.00135827
0.000105981
0.00129716
0.000107016
0.0012351
0.000108029
0.00117212
0.000109018
0.00110825
0.000109981
0.0010435
0.000110913
0.000977907
0.00011181
0.000911505
0.000112669
0.000844329
0.000113485
0.000776423
0.000114253
0.000707833
0.000114967
0.000638609
0.000115624
0.000568807
0.000116221
0.000498505
0.000116745
0.000427799
0.000117187
0.00035675
0.000117574
0.000285236
0.000118
0.000213149
0.000118255
0.000141751
0.00011576
7.374e-05
0.000110336
0.00012499
3.6648e-05
-0.000113072
8.80902e-05
-0.000155354
0.000136668
-0.000146738
0.000181507
-0.000136338
0.00022507
-0.000133
0.000268588
-0.000132801
0.000312165
-0.0001328
0.000355647
-0.000132396
0.000398935
-0.000131757
0.000441999
-0.000131032
0.000484822
-0.000130257
0.000527391
-0.000129431
0.000569687
-0.000128549
0.000611695
-0.000127615
0.000653397
-0.000126629
0.00069478
-0.000125597
0.000735833
-0.000124526
0.000776541
-0.000123413
0.000816896
-0.000122268
0.000856887
-0.000121089
0.000896506
-0.000119884
0.000935746
-0.000118654
0.000974599
-0.000117404
0.00101306
-0.000116134
0.00105112
-0.000114849
0.00108878
-0.000113552
0.00112604
-0.000112247
0.00116289
-0.000110933
0.00119933
-0.000109614
0.00123535
-0.000108291
0.00127096
-0.000106967
0.00130615
-0.000105643
0.00134093
-0.000104319
0.00137529
-0.000103
0.00140922
-0.00010168
0.00144274
-0.000100366
0.00147584
-9.90578e-05
0.00150853
-9.77563e-05
0.00154081
-9.64598e-05
0.00157269
-9.51668e-05
0.00160417
-9.3873e-05
0.00163525
-9.2574e-05
0.00166592
-9.12702e-05
0.00169619
-8.99651e-05
0.00172606
-8.86624e-05
0.00175552
-8.7365e-05
0.00178459
-8.60735e-05
0.00181325
-8.4787e-05
0.00184151
-8.35044e-05
0.00186937
-8.22247e-05
0.00189682
-8.09476e-05
0.00192388
-7.96721e-05
0.00195053
-7.83962e-05
0.00197676
-7.71162e-05
0.00200257
-7.58263e-05
0.0020279
-7.45214e-05
0.00205273
-7.32011e-05
0.00207703
-7.18728e-05
0.00210077
-7.05486e-05
0.00212397
-6.92404e-05
0.00214665
-6.79536e-05
0.00216882
-6.66852e-05
0.00219053
-6.54265e-05
0.00221177
-6.41684e-05
0.00223257
-6.29044e-05
0.00225292
-6.16315e-05
0.00227282
-6.03497e-05
0.00229227
-5.90602e-05
0.00231128
-5.77644e-05
0.00232983
-5.64635e-05
0.00234794
-5.51589e-05
0.00236559
-5.38516e-05
0.0023828
-5.25431e-05
0.00239955
-5.12345e-05
0.00241585
-4.99271e-05
0.0024317
-4.86225e-05
0.00244711
-4.73222e-05
0.00246206
-4.60278e-05
0.00247657
-4.47408e-05
0.00249063
-4.34631e-05
0.00250425
-4.21963e-05
0.00251742
-4.09426e-05
0.00253016
-3.97047e-05
0.00254245
-3.84861e-05
0.0025543
-3.72899e-05
0.00256572
-3.61177e-05
0.00257673
-3.49684e-05
0.00258735
-3.38376e-05
0.00259759
-3.27187e-05
0.00260746
-3.1605e-05
0.00261699
-3.04921e-05
0.00262618
-2.93793e-05
0.00263504
-2.82691e-05
0.00264356
-2.71663e-05
0.00265176
-2.60761e-05
0.00265963
-2.50035e-05
0.00266717
-2.39522e-05
0.0026744
-2.29254e-05
0.00268131
-2.19251e-05
0.00268791
-2.09533e-05
0.00269421
-2.0011e-05
0.0027002
-1.90991e-05
0.00270591
-1.82179e-05
0.00271134
-1.73676e-05
0.0027165
-1.65484e-05
0.00272139
-1.57601e-05
0.00272604
-1.50029e-05
0.00273043
-1.42768e-05
0.0027346
-1.35819e-05
0.00273855
-1.29183e-05
0.00274228
-1.22862e-05
0.00274581
-1.16854e-05
0.00274915
-1.11161e-05
0.00275231
-1.05782e-05
0.0027553
-1.00716e-05
0.00275813
-9.59609e-06
0.00276081
-9.15151e-06
0.00276336
-8.73747e-06
0.00276578
-8.35359e-06
0.00276809
-7.99946e-06
0.0027703
-7.67458e-06
0.00277242
-7.37841e-06
0.00277445
-7.11037e-06
0.00277642
-6.86983e-06
0.00277832
-6.65616e-06
0.00278018
-6.4687e-06
0.002782
-6.30681e-06
0.00278378
-6.16986e-06
0.00278555
-6.0572e-06
0.0027873
-5.96818e-06
0.00278906
-5.90218e-06
0.00279081
-5.85857e-06
0.00279258
-5.83667e-06
0.00279437
-5.83551e-06
0.00279618
-5.85364e-06
0.00279801
-5.88931e-06
0.00279986
-5.94073e-06
0.00280173
-6.00682e-06
0.00280363
-6.08804e-06
0.00280554
-6.18546e-06
0.00280747
-6.30129e-06
0.00280943
-6.44561e-06
0.00281148
-6.6414e-06
0.00281365
-6.90214e-06
0.00281601
-7.18916e-06
0.00281851
-7.44034e-06
0.00282113
-7.63537e-06
0.00282381
-7.79763e-06
0.00282656
-7.95675e-06
0.00282939
-8.12913e-06
0.00283229
-8.31932e-06
0.0028353
-8.52625e-06
0.00283841
-8.74758e-06
0.00284165
-8.98138e-06
0.00284501
-9.22621e-06
0.0028485
-9.48077e-06
0.00285213
-9.74387e-06
0.00285591
-1.00144e-05
0.00285983
-1.02915e-05
0.0028639
-1.05746e-05
0.00286812
-1.08629e-05
0.0028725
-1.11562e-05
0.00287704
-1.14539e-05
0.00288173
-1.17556e-05
0.00288658
-1.2061e-05
0.00289159
-1.23695e-05
0.00289676
-1.26807e-05
0.00290208
-1.29938e-05
0.00290757
-1.3308e-05
0.00291322
-1.36223e-05
0.00291902
-1.39352e-05
0.00292497
-1.42447e-05
0.00293106
-1.45485e-05
0.00293728
-1.48443e-05
0.00294362
-1.5131e-05
0.00295006
-1.54091e-05
0.00295659
-1.56809e-05
0.0029632
-1.59483e-05
0.00296989
-1.62162e-05
0.00297667
-1.64824e-05
0.00298355
-1.67478e-05
0.00299055
-1.70047e-05
0.00299768
-1.72535e-05
0.00300495
-1.74849e-05
0.00301237
-1.77026e-05
0.00301994
-1.79037e-05
0.00302766
-1.8091e-05
0.00303553
-1.8264e-05
0.00304356
-1.84288e-05
0.00305175
-1.85811e-05
0.00306009
-1.87272e-05
0.00306857
-1.88717e-05
0.00307718
-1.90155e-05
0.00308591
-1.91645e-05
0.00309474
-1.93245e-05
0.00310365
-1.95009e-05
0.0031126
-1.9699e-05
0.00312155
-1.99216e-05
0.00313044
-2.01676e-05
0.0031392
-2.04269e-05
0.00314778
-2.0682e-05
0.00315612
-2.09059e-05
0.00316418
-2.107e-05
0.00317194
-2.11512e-05
0.00317943
-2.1139e-05
0.0031867
-2.10415e-05
0.00319381
-2.08806e-05
0.00320085
-2.06872e-05
0.00320786
-2.04902e-05
0.00321491
-2.03078e-05
0.003222
-2.01493e-05
0.00322914
-2.00133e-05
0.00323629
-1.98921e-05
0.00324343
-1.9776e-05
0.00325053
-1.96568e-05
0.00325757
-1.95285e-05
0.00326451
-1.93876e-05
0.00327134
-1.92302e-05
0.00327804
-1.90543e-05
0.0032846
-1.8857e-05
0.00329099
-1.86356e-05
0.0032972
-1.83875e-05
0.00330321
-1.81091e-05
0.003309
-1.78005e-05
0.00331455
-1.74581e-05
0.00331985
-1.70817e-05
0.00332489
-1.66711e-05
0.00332966
-1.62244e-05
0.00333414
-1.57417e-05
0.00333832
-1.52233e-05
0.00334219
-1.46683e-05
0.00334575
-1.40762e-05
0.00334897
-1.34476e-05
0.00335186
-1.27828e-05
0.0033544
-1.20827e-05
0.00335659
-1.13438e-05
0.00335842
-1.0574e-05
0.00335988
-9.76735e-06
0.00336096
-8.92288e-06
0.00336167
-8.05083e-06
0.00336199
-7.14189e-06
0.00336192
-6.20156e-06
0.00336146
-5.22701e-06
0.0033606
-4.22544e-06
0.00335935
-3.19366e-06
0.0033577
-2.13644e-06
0.00335566
-1.06079e-06
0.00335321
6.215e-08
0.00335035
1.20906e-06
0.0033471
2.37583e-06
0.00334347
3.56692e-06
0.00333941
4.7773e-06
0.00333495
6.01283e-06
0.0033301
7.27194e-06
0.00332485
8.55376e-06
0.0033192
9.85787e-06
0.00331314
1.11846e-05
0.00330668
1.2536e-05
0.00329981
1.39161e-05
0.00329254
1.53248e-05
0.00328487
1.67618e-05
0.00327678
1.82282e-05
0.00326829
1.97258e-05
0.00325938
2.12567e-05
0.00325004
2.28234e-05
0.00324029
2.44292e-05
0.00323011
2.60775e-05
0.0032195
2.77727e-05
0.00320847
2.95197e-05
0.00319702
3.13244e-05
0.00318516
3.31936e-05
0.0031729
3.51354e-05
0.00316026
3.71598e-05
0.00314726
3.92787e-05
0.00313394
4.15056e-05
0.00312033
4.38534e-05
0.00310645
4.63329e-05
0.00309234
4.89508e-05
0.00307803
5.17082e-05
0.00306354
5.45991e-05
0.0030489
5.76096e-05
0.00303413
6.07168e-05
0.00301923
6.38879e-05
0.0030042
6.70804e-05
0.00298899
7.02425e-05
0.00297352
7.33181e-05
0.00295764
7.62523e-05
0.00294119
7.89981e-05
0.00292398
8.1519e-05
0.00290583
8.37884e-05
0.0028866
8.57878e-05
0.00286615
8.75139e-05
0.00284435
8.89997e-05
0.00282105
9.03371e-05
0.00279613
9.16701e-05
0.00276956
9.31499e-05
0.00274141
9.48847e-05
0.00271182
9.69229e-05
0.00268098
9.92615e-05
0.00264902
0.000101851
0.00261604
0.000104595
0.00258213
0.000107373
0.00254735
0.00011007
0.00251177
0.00011261
0.00247542
0.00011497
0.00243834
0.000117171
0.00240051
0.000119259
0.00236189
0.000121281
0.00232242
0.00012327
0.00228207
0.000125244
0.00224081
0.000127207
0.00219865
0.000129159
0.00215559
0.000131099
0.00211165
0.000133027
0.00206684
0.000134945
0.00202118
0.000136855
0.00197467
0.000138758
0.00192731
0.000140656
0.0018791
0.00014255
0.00183004
0.000144442
0.00178014
0.000146332
0.0017294
0.000148224
0.00167782
0.000150116
0.00162541
0.00015201
0.00157216
0.000153905
0.00151808
0.000155802
0.00146317
0.0001577
0.00140743
0.000159595
0.00135088
0.000161485
0.00129349
0.000163364
0.00123528
0.000165227
0.00117624
0.000167069
0.00111637
0.000168885
0.00105569
0.000170667
0.000994193
0.000172407
0.000931903
0.0001741
0.000868837
0.000175734
0.00080502
0.000177302
0.000740477
0.000178796
0.000675242
0.000180202
0.000609353
0.000181514
0.000542862
0.000182713
0.00047582
0.000183786
0.000408279
0.000184728
0.00034018
0.000185673
0.000271403
0.000186777
0.000202632
0.000187026
0.000136081
0.000182312
7.29742e-05
0.000173442
0.000197964
3.80738e-05
-0.000151146
9.04817e-05
-0.000207762
0.000140317
-0.000196573
0.000186546
-0.000182567
0.000231497
-0.000177951
0.000276321
-0.000177625
0.000321146
-0.000177625
0.000365834
-0.000177084
0.000410293
-0.000176216
0.000454488
-0.000175227
0.000498396
-0.000174165
0.000542003
-0.000173038
0.000585289
-0.000171834
0.000628234
-0.00017056
0.000670821
-0.000169216
0.000713033
-0.000167809
0.000754856
-0.000166349
0.000796278
-0.000164835
0.000837286
-0.000163276
0.00087787
-0.000161673
0.00091802
-0.000160035
0.000957731
-0.000158364
0.000996991
-0.000156665
0.0010358
-0.000154944
0.00107415
-0.000153203
0.00111205
-0.000151447
0.00114948
-0.000149678
0.00118645
-0.000147903
0.00122296
-0.000146121
0.001259
-0.000144337
0.00129459
-0.000142552
0.00132971
-0.000140768
0.00136438
-0.000138988
0.0013986
-0.000137212
0.00143236
-0.000135443
0.00146567
-0.000133679
0.00149854
-0.000131922
0.00153095
-0.000130171
0.00156292
-0.000128426
0.00159444
-0.000126686
0.00162551
-0.00012495
0.00165616
-0.000123217
0.00168638
-0.00012149
0.00171618
-0.00011977
0.00174558
-0.000118057
0.00177456
-0.000116351
0.00180314
-0.000114652
0.00183131
-0.000112958
0.00185907
-0.000111267
0.00188643
-0.000109579
0.00191337
-0.000107892
0.00193991
-0.000106205
0.00196603
-0.000104516
0.00199173
-0.000102824
0.00201703
-0.000101125
0.00204193
-9.94201e-05
0.00206644
-9.77086e-05
0.00209056
-9.59934e-05
0.00211429
-9.42785e-05
0.00213762
-9.25675e-05
0.00216053
-9.08621e-05
0.002183
-8.91613e-05
0.00220504
-8.74621e-05
0.00222663
-8.57606e-05
0.00224778
-8.40538e-05
0.00226849
-8.23401e-05
0.00228876
-8.06193e-05
0.00230859
-7.88919e-05
0.00232798
-7.71588e-05
0.00234694
-7.54209e-05
0.00236546
-7.36795e-05
0.00238355
-7.19358e-05
0.00240119
-7.01912e-05
0.00241841
-6.84471e-05
0.00243518
-6.6705e-05
0.00245153
-6.49665e-05
0.00246744
-6.32332e-05
0.00248292
-6.15071e-05
0.00249797
-5.979e-05
0.00251259
-5.80837e-05
0.00252678
-5.63903e-05
0.00254055
-5.47116e-05
0.0025539
-5.30497e-05
0.00256682
-5.14069e-05
0.00257931
-4.97847e-05
0.00259138
-4.81843e-05
0.00260302
-4.66055e-05
0.00261422
-4.50468e-05
0.00262501
-4.3506e-05
0.00263539
-4.19807e-05
0.00264537
-4.04698e-05
0.00265496
-3.89734e-05
0.00266418
-3.74936e-05
0.00267305
-3.6033e-05
0.00268157
-3.45953e-05
0.00268975
-3.31835e-05
0.0026976
-3.18006e-05
0.00270512
-3.04491e-05
0.00271233
-2.91311e-05
0.00271922
-2.78484e-05
0.00272581
-2.66023e-05
0.00273211
-2.53937e-05
0.00273811
-2.42235e-05
0.00274384
-2.30923e-05
0.00274929
-2.20005e-05
0.00275448
-2.09483e-05
0.00275941
-1.99362e-05
0.0027641
-1.89643e-05
0.00276855
-1.80329e-05
0.00277277
-1.71423e-05
0.00277678
-1.62925e-05
0.00278058
-1.54837e-05
0.00278418
-1.47158e-05
0.00278759
-1.39888e-05
0.00279082
-1.33025e-05
0.00279388
-1.26568e-05
0.00279678
-1.20515e-05
0.00279953
-1.14862e-05
0.00280214
-1.09605e-05
0.00280461
-1.04739e-05
0.00280696
-1.00259e-05
0.0028092
-9.61601e-06
0.00281133
-9.24345e-06
0.00281337
-8.90758e-06
0.00281532
-8.60768e-06
0.0028172
-8.34302e-06
0.002819
-8.11283e-06
0.00282075
-7.91636e-06
0.00282245
-7.75285e-06
0.0028241
-7.62152e-06
0.00282572
-7.52164e-06
0.00282731
-7.45246e-06
0.00282889
-7.41325e-06
0.00283046
-7.4034e-06
0.00283203
-7.42262e-06
0.00283361
-7.47092e-06
0.00283521
-7.5483e-06
0.00283686
-7.65462e-06
0.00283856
-7.78896e-06
0.00284033
-7.94941e-06
0.00284216
-8.13339e-06
0.00284405
-8.33804e-06
0.00284597
-8.56009e-06
0.00284786
-8.79521e-06
0.00284971
-9.03737e-06
0.00285155
-9.28178e-06
0.00285345
-9.5288e-06
0.00285543
-9.78276e-06
0.00285752
-1.00484e-05
0.00285972
-1.03291e-05
0.00286203
-1.06264e-05
0.00286444
-1.09397e-05
0.00286696
-1.12678e-05
0.00286959
-1.1609e-05
0.00287233
-1.19622e-05
0.00287517
-1.23264e-05
0.00287813
-1.27005e-05
0.0028812
-1.30837e-05
0.00288438
-1.34748e-05
0.00288768
-1.38729e-05
0.0028911
-1.42771e-05
0.00289463
-1.46867e-05
0.00289827
-1.5101e-05
0.00290204
-1.55192e-05
0.00290592
-1.59406e-05
0.00290991
-1.63645e-05
0.00291402
-1.67902e-05
0.00291824
-1.72168e-05
0.00292258
-1.76437e-05
0.00292703
-1.807e-05
0.00293159
-1.84951e-05
0.00293626
-1.89181e-05
0.00294105
-1.9338e-05
0.00294596
-1.97544e-05
0.002951
-2.01664e-05
0.00295616
-2.05725e-05
0.00296145
-2.09736e-05
0.00296687
-2.13669e-05
0.00297241
-2.17545e-05
0.00297806
-2.21318e-05
0.00298381
-2.25021e-05
0.00298966
-2.28569e-05
0.00299561
-2.3203e-05