/*--------------------------------*- C++ -*----------------------------------*\
| =========                 |                                                 |
| \\      /  F ield         | OpenFOAM: The Open Source CFD Toolbox           |
|  \\    /   O peration     | Version:  v2006                                 |
|   \\  /    A nd           | Website:  www.openfoam.com                      |
|    \\/     M anipulation  |                                                 |
\*---------------------------------------------------------------------------*/
FoamFile
{
    version     2.0;
    format      ascii;
    class       volVectorField;
    location    "7";
    object      U;
}
// * * * * * * * * * * * * * * * * * * * * * * * * * * * * * * * * * * * * * //

dimensions      [0 1 -1 0 0 0 0];


internalField   nonuniform List<vector> 
52500
(
(0.00160038 -0.00417253 0)
(0.00734171 -0.00547012 0)
(0.0132746 -0.00533028 0)
(0.0186155 -0.00500923 0)
(0.0238246 -0.00487278 0)
(0.0289491 -0.0048421 0)
(0.034085 -0.0048295 0)
(0.0392062 -0.00480823 0)
(0.044299 -0.0047772 0)
(0.0493614 -0.00474044 0)
(0.0543883 -0.00470027 0)
(0.0593787 -0.00465627 0)
(0.0643308 -0.0046093 0)
(0.0692404 -0.00455925 0)
(0.0741053 -0.00450617 0)
(0.0789234 -0.00445021 0)
(0.0836922 -0.00439147 0)
(0.0884097 -0.00433053 0)
(0.0930743 -0.00426723 0)
(0.0976842 -0.00420161 0)
(0.102238 -0.00413401 0)
(0.106734 -0.00406465 0)
(0.111171 -0.00399357 0)
(0.115547 -0.00392107 0)
(0.119862 -0.00384706 0)
(0.124116 -0.00377184 0)
(0.128307 -0.00369565 0)
(0.132435 -0.0036185 0)
(0.136499 -0.00354043 0)
(0.1405 -0.00346158 0)
(0.144436 -0.00338203 0)
(0.148307 -0.00330182 0)
(0.152114 -0.00322081 0)
(0.155856 -0.00313874 0)
(0.159533 -0.00305549 0)
(0.163146 -0.00297075 0)
(0.166693 -0.00288386 0)
(0.170173 -0.00279363 0)
(0.173585 -0.00269899 0)
(0.176929 -0.0026001 0)
(0.180203 -0.00249942 0)
(0.183405 -0.00240156 0)
(0.18654 -0.00231152 0)
(0.189611 -0.00223215 0)
(0.192622 -0.00216324 0)
(0.195576 -0.00210277 0)
(0.198476 -0.00204848 0)
(0.201323 -0.00199887 0)
(0.20412 -0.00195325 0)
(0.206867 -0.00191129 0)
(0.209567 -0.00187256 0)
(0.212219 -0.00183643 0)
(0.214826 -0.00180263 0)
(0.217387 -0.00177272 0)
(0.219906 -0.00175146 0)
(0.22239 -0.00174665 0)
(0.224847 -0.00176568 0)
(0.22729 -0.00181043 0)
(0.229729 -0.00187433 0)
(0.232169 -0.00194428 0)
(0.234609 -0.00200628 0)
(0.23704 -0.00205109 0)
(0.239456 -0.00207653 0)
(0.241848 -0.00208596 0)
(0.24421 -0.00208476 0)
(0.24654 -0.00207758 0)
(0.248836 -0.00206723 0)
(0.251097 -0.00205506 0)
(0.253322 -0.00204166 0)
(0.25551 -0.00202739 0)
(0.257661 -0.00201251 0)
(0.259774 -0.00199723 0)
(0.26185 -0.0019817 0)
(0.263889 -0.00196603 0)
(0.26589 -0.00195028 0)
(0.267854 -0.00193448 0)
(0.26978 -0.00191861 0)
(0.271669 -0.00190269 0)
(0.273521 -0.00188675 0)
(0.275335 -0.0018709 0)
(0.277114 -0.00185536 0)
(0.278857 -0.00184046 0)
(0.280565 -0.00182645 0)
(0.28224 -0.00181306 0)
(0.283883 -0.00179896 0)
(0.285493 -0.00178147 0)
(0.287068 -0.00175704 0)
(0.288607 -0.00172231 0)
(0.290103 -0.00167558 0)
(0.291552 -0.00161763 0)
(0.292951 -0.00155171 0)
(0.294297 -0.00148243 0)
(0.295589 -0.00141433 0)
(0.296829 -0.00135071 0)
(0.298019 -0.00129331 0)
(0.299162 -0.00124253 0)
(0.30026 -0.001198 0)
(0.301317 -0.00115905 0)
(0.302335 -0.00112493 0)
(0.303316 -0.00109488 0)
(0.304263 -0.00106814 0)
(0.305177 -0.001044 0)
(0.30606 -0.00102178 0)
(0.306913 -0.00100092 0)
(0.307738 -0.000981019 0)
(0.308535 -0.000961793 0)
(0.309305 -0.000943082 0)
(0.310051 -0.000924794 0)
(0.310771 -0.000906852 0)
(0.311468 -0.000889176 0)
(0.312141 -0.00087167 0)
(0.312793 -0.000854226 0)
(0.313423 -0.000836727 0)
(0.314033 -0.000819045 0)
(0.314623 -0.000801052 0)
(0.315193 -0.00078262 0)
(0.315744 -0.000763626 0)
(0.316277 -0.00074396 0)
(0.316792 -0.000723516 0)
(0.317289 -0.000702206 0)
(0.317769 -0.000679953 0)
(0.318232 -0.000656701 0)
(0.318678 -0.000632413 0)
(0.319108 -0.000607075 0)
(0.319521 -0.000580698 0)
(0.319917 -0.000553308 0)
(0.320298 -0.000524937 0)
(0.320663 -0.000495643 0)
(0.321012 -0.000465512 0)
(0.321345 -0.000434647 0)
(0.321663 -0.000403125 0)
(0.321967 -0.000370972 0)
(0.322255 -0.000338164 0)
(0.322529 -0.000304633 0)
(0.322788 -0.000270233 0)
(0.323032 -0.000234614 0)
(0.323261 -0.000197069 0)
(0.323475 -0.000156293 0)
(0.32367 -0.000109653 0)
(0.323846 -5.37101e-05 0)
(0.323999 1.58288e-05 0)
(0.324123 0.000108137 0)
(0.324212 0.000243394 0)
(0.32424 0.000439081 0)
(0.324162 0.000669543 0)
(0.323995 0.000878998 0)
(0.323763 0.0010357 0)
(0.323487 0.00114493 0)
(0.323184 0.00122491 0)
(0.322863 0.00128924 0)
(0.322527 0.00134462 0)
(0.322178 0.00139359 0)
(0.321818 0.00143704 0)
(0.321449 0.00147554 0)
(0.321071 0.00150963 0)
(0.320686 0.00153961 0)
(0.320295 0.00156557 0)
(0.319899 0.00158744 0)
(0.319501 0.00160515 0)
(0.319101 0.00161866 0)
(0.318701 0.00162799 0)
(0.318303 0.00163318 0)
(0.317909 0.00163421 0)
(0.317519 0.00163106 0)
(0.317136 0.00162364 0)
(0.316761 0.00161176 0)
(0.316397 0.00159507 0)
(0.316046 0.00157308 0)
(0.315709 0.00154511 0)
(0.31539 0.00151028 0)
(0.315091 0.00146748 0)
(0.314818 0.00141534 0)
(0.314573 0.0013525 0)
(0.314363 0.0012781 0)
(0.314193 0.00119255 0)
(0.314068 0.00109818 0)
(0.313988 0.000999857 0)
(0.313954 0.000904184 0)
(0.31396 0.000818051 0)
(0.314002 0.000746605 0)
(0.314072 0.000690952 0)
(0.314162 0.000650115 0)
(0.314268 0.000621284 0)
(0.314383 0.000601034 0)
(0.314505 0.000586567 0)
(0.314632 0.000575719 0)
(0.314761 0.000567165 0)
(0.314894 0.000559954 0)
(0.315028 0.000553081 0)
(0.315165 0.000545302 0)
(0.315305 0.000535109 0)
(0.31545 0.000520942 0)
(0.315602 0.000501181 0)
(0.315764 0.000473959 0)
(0.31594 0.000436732 0)
(0.316136 0.00038576 0)
(0.316362 0.000315752 0)
(0.316628 0.000220564 0)
(0.316948 9.53243e-05 0)
(0.317337 -6.05687e-05 0)
(0.317811 -0.000240732 0)
(0.318377 -0.000430892 0)
(0.319036 -0.000610848 0)
(0.319781 -0.00075923 0)
(0.320592 -0.000859519 0)
(0.321444 -0.000904717 0)
(0.32231 -0.000899222 0)
(0.323165 -0.000857104 0)
(0.323995 -0.000797298 0)
(0.324792 -0.000737806 0)
(0.325558 -0.000691153 0)
(0.326299 -0.00066254 0)
(0.327025 -0.000650864 0)
(0.327742 -0.000651517 0)
(0.328457 -0.000659359 0)
(0.329173 -0.000670682 0)
(0.329894 -0.000683865 0)
(0.330619 -0.00069892 0)
(0.33135 -0.000716554 0)
(0.332089 -0.000737345 0)
(0.332836 -0.000761349 0)
(0.333592 -0.000788088 0)
(0.334359 -0.000816739 0)
(0.335137 -0.000846398 0)
(0.335925 -0.000876297 0)
(0.336722 -0.000905877 0)
(0.337528 -0.000934756 0)
(0.338342 -0.00096266 0)
(0.339161 -0.000989362 0)
(0.339986 -0.00101464 0)
(0.340813 -0.00103831 0)
(0.341642 -0.00106019 0)
(0.34247 -0.0010801 0)
(0.343296 -0.00109787 0)
(0.344117 -0.00111341 0)
(0.344933 -0.00112659 0)
(0.34574 -0.00113727 0)
(0.346536 -0.00114532 0)
(0.347319 -0.00115061 0)
(0.348088 -0.00115307 0)
(0.348838 -0.00115261 0)
(0.34957 -0.00114908 0)
(0.350279 -0.00114236 0)
(0.350963 -0.00113236 0)
(0.351621 -0.00111891 0)
(0.352248 -0.00110191 0)
(0.352844 -0.0010812 0)
(0.353404 -0.00105644 0)
(0.353926 -0.00102732 0)
(0.354408 -0.000993588 0)
(0.354845 -0.000955 0)
(0.355236 -0.000911534 0)
(0.355577 -0.000862193 0)
(0.355864 -0.000806596 0)
(0.356094 -0.000744282 0)
(0.356264 -0.00067485 0)
(0.356369 -0.000598353 0)
(0.356406 -0.000516689 0)
(0.35637 -0.000434831 0)
(0.35626 -0.000349925 0)
(0.356073 -0.000259676 0)
(0.355807 -0.000162874 0)
(0.355458 -5.86549e-05 0)
(0.355022 5.37819e-05 0)
(0.354495 0.000175265 0)
(0.353872 0.000306716 0)
(0.353147 0.000449146 0)
(0.352313 0.000603669 0)
(0.351364 0.000771575 0)
(0.35029 0.000954251 0)
(0.349084 0.00115305 0)
(0.347735 0.00136918 0)
(0.346232 0.00160355 0)
(0.344561 0.00185641 0)
(0.342711 0.00212706 0)
(0.340668 0.00241365 0)
(0.338419 0.00271328 0)
(0.335953 0.00302245 0)
(0.33326 0.00333787 0)
(0.33033 0.00365714 0)
(0.327157 0.00397884 0)
(0.323734 0.00430161 0)
(0.320058 0.00462223 0)
(0.316129 0.00493347 0)
(0.311957 0.00522305 0)
(0.307561 0.00547549 0)
(0.302968 0.00567738 0)
(0.298216 0.00582446 0)
(0.293347 0.00592356 0)
(0.288398 0.00598434 0)
(0.283406 0.00600341 0)
(0.278409 0.00595211 0)
(0.273457 0.00578337 0)
(0.268616 0.00546852 0)
(0.263947 0.00503744 0)
(0.259481 0.00457814 0)
(0.255198 0.00419185 0)
(0.25104 0.00394472 0)
(0.246934 0.00385024 0)
(0.242812 0.00387928 0)
(0.238626 0.00397979 0)
(0.234353 0.00409655 0)
(0.229989 0.00418755 0)
(0.225542 0.00423247 0)
(0.221025 0.00423122 0)
(0.216452 0.00419595 0)
(0.211835 0.00414196 0)
(0.207185 0.0040811 0)
(0.202508 0.00402049 0)
(0.197811 0.003963 0)
(0.1931 0.00390801 0)
(0.188377 0.00385333 0)
(0.18364 0.00379744 0)
(0.178891 0.00373968 0)
(0.17413 0.00367992 0)
(0.169357 0.00361845 0)
(0.164573 0.00355574 0)
(0.159777 0.00349226 0)
(0.154972 0.00342835 0)
(0.150158 0.00336442 0)
(0.145334 0.00330057 0)
(0.140501 0.00323705 0)
(0.135658 0.00317387 0)
(0.130807 0.00311064 0)
(0.125946 0.00304719 0)
(0.121076 0.00298361 0)
(0.116198 0.00292028 0)
(0.111311 0.00285796 0)
(0.106415 0.00279714 0)
(0.101509 0.00273793 0)
(0.0965958 0.00268045 0)
(0.0916742 0.00262503 0)
(0.0867451 0.00257187 0)
(0.0818089 0.00252096 0)
(0.076866 0.00247199 0)
(0.0719172 0.00242512 0)
(0.0669629 0.00238072 0)
(0.0620038 0.00233901 0)
(0.0570403 0.00230014 0)
(0.0520732 0.00226392 0)
(0.0471033 0.0022303 0)
(0.0421314 0.00220015 0)
(0.0371572 0.00217778 0)
(0.0321797 0.00216685 0)
(0.0271987 0.00216256 0)
(0.0222129 0.00212795 0)
(0.0172338 0.00198918 0)
(0.0122901 0.00166774 0)
(0.00777988 0.00158583 0)
(0.00323784 0.00293802 0)
(0.00115228 -0.0103616 0)
(0.00642368 -0.0138651 0)
(0.011553 -0.0131229 0)
(0.0161595 -0.012279 0)
(0.0206323 -0.012026 0)
(0.0250374 -0.0119999 0)
(0.029477 -0.0119805 0)
(0.0339038 -0.0119318 0)
(0.0383131 -0.0118668 0)
(0.0427036 -0.0117947 0)
(0.0470722 -0.0117177 0)
(0.0514183 -0.0116348 0)
(0.0557408 -0.0115468 0)
(0.060038 -0.0114534 0)
(0.064309 -0.0113553 0)
(0.0685525 -0.0112525 0)
(0.0727665 -0.0111451 0)
(0.0769509 -0.0110341 0)
(0.0811059 -0.0109194 0)
(0.0852294 -0.0108012 0)
(0.0893204 -0.0106803 0)
(0.093379 -0.0105571 0)
(0.0974048 -0.0104315 0)
(0.101398 -0.0103041 0)
(0.105357 -0.0101749 0)
(0.109283 -0.0100445 0)
(0.113175 -0.00991333 0)
(0.117034 -0.00978163 0)
(0.120859 -0.00964944 0)
(0.12465 -0.00951688 0)
(0.128409 -0.00938442 0)
(0.132135 -0.00925218 0)
(0.135828 -0.00912002 0)
(0.139489 -0.0089881 0)
(0.143118 -0.00885703 0)
(0.146716 -0.00872662 0)
(0.150284 -0.00859622 0)
(0.153823 -0.00846509 0)
(0.157335 -0.00833301 0)
(0.160821 -0.00820062 0)
(0.164281 -0.00806884 0)
(0.167716 -0.00793866 0)
(0.171122 -0.00781087 0)
(0.174496 -0.00768543 0)
(0.177833 -0.00756182 0)
(0.181131 -0.00743978 0)
(0.184388 -0.00731921 0)
(0.187601 -0.00719994 0)
(0.190771 -0.00708189 0)
(0.193896 -0.00696491 0)
(0.196975 -0.00684869 0)
(0.200007 -0.00673305 0)
(0.202993 -0.00661864 0)
(0.205929 -0.00650751 0)
(0.208816 -0.0064031 0)
(0.211647 -0.00630914 0)
(0.214415 -0.00622752 0)
(0.217112 -0.00615647 0)
(0.219729 -0.0060908 0)
(0.222263 -0.00602408 0)
(0.224717 -0.00595127 0)
(0.227096 -0.00587014 0)
(0.229408 -0.00578115 0)
(0.231659 -0.00568627 0)
(0.233852 -0.00558753 0)
(0.23599 -0.00548638 0)
(0.238073 -0.00538358 0)
(0.240101 -0.00527954 0)
(0.242075 -0.00517451 0)
(0.243995 -0.00506871 0)
(0.24586 -0.00496237 0)
(0.247671 -0.00485568 0)
(0.249427 -0.00474881 0)
(0.25113 -0.00464192 0)
(0.252777 -0.00453513 0)
(0.254371 -0.00442857 0)
(0.255911 -0.00432239 0)
(0.257397 -0.00421675 0)
(0.25883 -0.00411189 0)
(0.26021 -0.0040082 0)
(0.261537 -0.00390621 0)
(0.262812 -0.00380652 0)
(0.264036 -0.00370953 0)
(0.265209 -0.00361515 0)
(0.266333 -0.0035226 0)
(0.267408 -0.00343047 0)
(0.268439 -0.00333708 0)
(0.269429 -0.00324099 0)
(0.270382 -0.00314143 0)
(0.271301 -0.00303855 0)
(0.27219 -0.00293323 0)
(0.273049 -0.00282675 0)
(0.273879 -0.00272045 0)
(0.274678 -0.00261551 0)
(0.275444 -0.00251276 0)
(0.276177 -0.0024128 0)
(0.276875 -0.00231597 0)
(0.277538 -0.00222246 0)
(0.278165 -0.00213235 0)
(0.278757 -0.0020456 0)
(0.279313 -0.00196211 0)
(0.279836 -0.00188174 0)
(0.280324 -0.00180434 0)
(0.280781 -0.00172981 0)
(0.281206 -0.00165805 0)
(0.2816 -0.001589 0)
(0.281967 -0.0015226 0)
(0.282305 -0.0014588 0)
(0.282618 -0.00139758 0)
(0.282906 -0.00133891 0)
(0.283171 -0.00128279 0)
(0.283414 -0.00122917 0)
(0.283637 -0.00117801 0)
(0.283841 -0.00112925 0)
(0.284028 -0.00108283 0)
(0.284199 -0.00103869 0)
(0.284356 -0.000996766 0)
(0.284501 -0.000956999 0)
(0.284635 -0.000919307 0)
(0.28476 -0.00088359 0)
(0.284877 -0.000849745 0)
(0.284989 -0.000817696 0)
(0.285096 -0.000787401 0)
(0.285201 -0.000758831 0)
(0.285305 -0.000731943 0)
(0.28541 -0.000706684 0)
(0.285517 -0.000683001 0)
(0.285627 -0.000660862 0)
(0.285742 -0.000640244 0)
(0.285864 -0.000621119 0)
(0.285994 -0.000603444 0)
(0.286133 -0.000587175 0)
(0.286282 -0.000572267 0)
(0.286442 -0.000558648 0)
(0.286617 -0.000546208 0)
(0.286806 -0.00053485 0)
(0.287013 -0.000524571 0)
(0.287239 -0.000515323 0)
(0.28749 -0.000506597 0)
(0.287767 -0.0004977 0)
(0.288077 -0.000487206 0)
(0.288425 -0.0004703 0)
(0.288823 -0.00043674 0)
(0.289296 -0.000379635 0)
(0.289888 -0.000313842 0)
(0.290579 -0.000264925 0)
(0.291343 -0.000242771 0)
(0.292161 -0.000240064 0)
(0.293017 -0.000246337 0)
(0.293901 -0.000255247 0)
(0.294811 -0.000264278 0)
(0.295745 -0.000272925 0)
(0.296703 -0.000281352 0)
(0.297682 -0.000289721 0)
(0.298682 -0.000298103 0)
(0.299702 -0.000306581 0)
(0.300741 -0.000315297 0)
(0.301798 -0.000324433 0)
(0.302871 -0.000334178 0)
(0.303961 -0.000344712 0)
(0.305064 -0.000356198 0)
(0.306181 -0.000368765 0)
(0.307309 -0.0003825 0)
(0.308448 -0.000397455 0)
(0.309596 -0.000413669 0)
(0.310751 -0.000431213 0)
(0.311911 -0.000450229 0)
(0.313076 -0.000470934 0)
(0.314242 -0.000493611 0)
(0.315407 -0.000518632 0)
(0.316569 -0.000546523 0)
(0.317722 -0.000578016 0)
(0.318864 -0.000613937 0)
(0.319988 -0.000654878 0)
(0.321091 -0.000700766 0)
(0.322168 -0.000750399 0)
(0.323218 -0.000801243 0)
(0.324243 -0.000849816 0)
(0.325247 -0.000892665 0)
(0.326236 -0.000927302 0)
(0.327215 -0.000953435 0)
(0.328189 -0.000971705 0)
(0.329162 -0.000983577 0)
(0.330136 -0.000990829 0)
(0.331113 -0.000994899 0)
(0.332091 -0.000996934 0)
(0.333071 -0.000997665 0)
(0.334051 -0.000997684 0)
(0.335031 -0.000997624 0)
(0.336008 -0.000997894 0)
(0.336981 -0.000999078 0)
(0.337949 -0.00100224 0)
(0.33891 -0.00100874 0)
(0.339864 -0.00102018 0)
(0.340808 -0.00103862 0)
(0.341739 -0.00106668 0)
(0.342655 -0.00110735 0)
(0.343551 -0.00116361 0)
(0.34442 -0.00123761 0)
(0.345257 -0.00132943 0)
(0.346056 -0.0014359 0)
(0.346811 -0.00155017 0)
(0.347523 -0.00166231 0)
(0.348195 -0.00176101 0)
(0.348836 -0.00183614 0)
(0.349456 -0.00188112 0)
(0.350069 -0.00189447 0)
(0.350684 -0.00188009 0)
(0.351309 -0.00184599 0)
(0.351944 -0.00180212 0)
(0.352587 -0.00175781 0)
(0.353234 -0.00171998 0)
(0.35388 -0.00169212 0)
(0.354521 -0.00167458 0)
(0.355155 -0.00166557 0)
(0.35578 -0.00166248 0)
(0.356395 -0.00166291 0)
(0.357001 -0.00166525 0)
(0.357595 -0.00166868 0)
(0.358177 -0.00167294 0)
(0.358745 -0.00167789 0)
(0.359296 -0.0016832 0)
(0.35983 -0.00168832 0)
(0.360345 -0.00169254 0)
(0.360839 -0.00169514 0)
(0.36131 -0.00169547 0)
(0.361759 -0.00169306 0)
(0.362183 -0.00168757 0)
(0.362581 -0.00167875 0)
(0.362952 -0.00166643 0)
(0.363295 -0.00165047 0)
(0.363608 -0.00163066 0)
(0.363892 -0.00160686 0)
(0.364144 -0.00157897 0)
(0.364365 -0.00154689 0)
(0.364552 -0.00151052 0)
(0.364705 -0.00146978 0)
(0.364823 -0.00142454 0)
(0.364905 -0.00137469 0)
(0.36495 -0.00132027 0)
(0.364959 -0.00126119 0)
(0.364929 -0.00119741 0)
(0.364861 -0.00112892 0)
(0.364755 -0.00105577 0)
(0.364608 -0.000977984 0)
(0.364422 -0.000895497 0)
(0.364196 -0.000808236 0)
(0.363931 -0.000715908 0)
(0.363625 -0.000618639 0)
(0.363279 -0.000516423 0)
(0.362893 -0.000408914 0)
(0.362468 -0.000295523 0)
(0.362005 -0.000176865 0)
(0.361506 -5.2681e-05 0)
(0.360969 7.73148e-05 0)
(0.360398 0.000213321 0)
(0.359794 0.000355238 0)
(0.359156 0.000501844 0)
(0.35849 0.000650127 0)
(0.357792 0.0008015 0)
(0.357061 0.000957176 0)
(0.356298 0.00111783 0)
(0.355502 0.00128399 0)
(0.354676 0.00145622 0)
(0.353819 0.00163513 0)
(0.352935 0.00182151 0)
(0.352023 0.00201631 0)
(0.351087 0.0022207 0)
(0.350128 0.0024362 0)
(0.349148 0.00266468 0)
(0.348148 0.00290826 0)
(0.347132 0.00316934 0)
(0.346099 0.00345053 0)
(0.345052 0.00375442 0)
(0.343988 0.0040833 0)
(0.342905 0.00443884 0)
(0.3418 0.00482187 0)
(0.340665 0.00523226 0)
(0.339493 0.005669 0)
(0.338275 0.00613026 0)
(0.337002 0.00661311 0)
(0.335664 0.00711291 0)
(0.334256 0.0076224 0)
(0.332771 0.00813082 0)
(0.331202 0.00862344 0)
(0.329545 0.00908238 0)
(0.327795 0.00948879 0)
(0.32595 0.00982637 0)
(0.324012 0.0100847 0)
(0.321987 0.0102603 0)
(0.319884 0.0103549 0)
(0.31771 0.010372 0)
(0.315458 0.0103143 0)
(0.313104 0.0101873 0)
(0.31061 0.0100102 0)
(0.307945 0.00982318 0)
(0.305099 0.00967566 0)
(0.302086 0.00960281 0)
(0.29893 0.00961354 0)
(0.29565 0.0096966 0)
(0.292258 0.00983354 0)
(0.288758 0.0100072 0)
(0.285151 0.0102042 0)
(0.281435 0.0104139 0)
(0.27761 0.0106264 0)
(0.273677 0.0108315 0)
(0.269638 0.0110196 0)
(0.265497 0.0111839 0)
(0.261254 0.0113229 0)
(0.256911 0.0114407 0)
(0.25247 0.0115451 0)
(0.247929 0.0116437 0)
(0.243289 0.0117421 0)
(0.238549 0.0118424 0)
(0.233708 0.0119446 0)
(0.228766 0.0120473 0)
(0.223723 0.0121491 0)
(0.218579 0.0122496 0)
(0.213332 0.0123486 0)
(0.207983 0.0124467 0)
(0.202531 0.0125444 0)
(0.196976 0.0126419 0)
(0.191317 0.0127395 0)
(0.185555 0.0128369 0)
(0.179688 0.0129342 0)
(0.173716 0.013031 0)
(0.167639 0.0131276 0)
(0.161456 0.0132241 0)
(0.155167 0.0133196 0)
(0.148773 0.0134128 0)
(0.142276 0.0135026 0)
(0.135677 0.0135887 0)
(0.128978 0.0136713 0)
(0.122182 0.0137502 0)
(0.115291 0.0138253 0)
(0.108308 0.0138963 0)
(0.101236 0.0139628 0)
(0.0940789 0.0140248 0)
(0.0868414 0.0140817 0)
(0.0795283 0.0141332 0)
(0.0721438 0.0141795 0)
(0.0646939 0.0142205 0)
(0.0571872 0.0142553 0)
(0.0496318 0.0142833 0)
(0.0420311 0.0143061 0)
(0.0344175 0.0143295 0)
(0.0266844 0.0143581 0)
(0.0189671 0.0140443 0)
(0.0113834 0.01341 0)
(0.00449401 0.0152078 0)
(0.00121609 -0.0164169 0)
(0.00670412 -0.0225331 0)
(0.0121679 -0.0212575 0)
(0.0170716 -0.0197652 0)
(0.0217927 -0.0192963 0)
(0.0264329 -0.0192696 0)
(0.0311067 -0.0192668 0)
(0.0357732 -0.0192071 0)
(0.0404211 -0.019115 0)
(0.0450473 -0.0190109 0)
(0.0496482 -0.0188999 0)
(0.0542224 -0.0187816 0)
(0.058769 -0.0186555 0)
(0.0632847 -0.0185218 0)
(0.0677687 -0.018381 0)
(0.0722205 -0.0182337 0)
(0.0766366 -0.0180806 0)
(0.0810161 -0.0179218 0)
(0.0853594 -0.0177581 0)
(0.0896641 -0.0175902 0)
(0.0939289 -0.0174184 0)
(0.0981535 -0.0172432 0)
(0.102337 -0.0170652 0)
(0.106479 -0.0168848 0)
(0.110579 -0.0167022 0)
(0.114636 -0.016518 0)
(0.118649 -0.0163328 0)
(0.122619 -0.016147 0)
(0.126546 -0.0159604 0)
(0.130427 -0.0157735 0)
(0.134265 -0.0155867 0)
(0.138058 -0.0153999 0)
(0.141807 -0.0152134 0)
(0.145511 -0.0150278 0)
(0.149169 -0.0148431 0)
(0.152783 -0.0146593 0)
(0.156353 -0.0144767 0)
(0.159877 -0.0142958 0)
(0.163358 -0.0141163 0)
(0.166795 -0.0139373 0)
(0.17019 -0.013757 0)
(0.173541 -0.0135739 0)
(0.176849 -0.0133874 0)
(0.180114 -0.0131983 0)
(0.183336 -0.0130079 0)
(0.186515 -0.0128172 0)
(0.189651 -0.0126268 0)
(0.192743 -0.0124368 0)
(0.195793 -0.0122469 0)
(0.1988 -0.0120572 0)
(0.201763 -0.0118675 0)
(0.204684 -0.0116778 0)
(0.207561 -0.0114877 0)
(0.210395 -0.0112962 0)
(0.213184 -0.0111015 0)
(0.215924 -0.0109023 0)
(0.218613 -0.0106984 0)
(0.221246 -0.0104921 0)
(0.22382 -0.010287 0)
(0.226334 -0.0100864 0)
(0.228791 -0.00989179 0)
(0.231193 -0.00970248 0)
(0.233544 -0.00951629 0)
(0.235845 -0.00933092 0)
(0.238097 -0.00914474 0)
(0.240301 -0.00895707 0)
(0.242458 -0.00876789 0)
(0.244566 -0.00857747 0)
(0.246627 -0.00838608 0)
(0.248639 -0.00819394 0)
(0.250603 -0.00800125 0)
(0.252519 -0.00780821 0)
(0.254387 -0.00761502 0)
(0.256206 -0.00742187 0)
(0.257977 -0.00722899 0)
(0.2597 -0.00703659 0)
(0.261374 -0.00684494 0)
(0.263 -0.00665428 0)
(0.264579 -0.00646486 0)
(0.266109 -0.00627696 0)
(0.267593 -0.00609087 0)
(0.269028 -0.00590701 0)
(0.270416 -0.00572601 0)
(0.271757 -0.00554862 0)
(0.27305 -0.00537558 0)
(0.274297 -0.00520725 0)
(0.275498 -0.00504322 0)
(0.276657 -0.00488229 0)
(0.277773 -0.00472272 0)
(0.278851 -0.00456281 0)
(0.27989 -0.00440143 0)
(0.280893 -0.00423839 0)
(0.28186 -0.00407434 0)
(0.282791 -0.0039104 0)
(0.283687 -0.00374783 0)
(0.284548 -0.00358769 0)
(0.285373 -0.00343082 0)
(0.286165 -0.0032778 0)
(0.286922 -0.00312909 0)
(0.287646 -0.00298497 0)
(0.288337 -0.00284564 0)
(0.288995 -0.00271121 0)
(0.289622 -0.00258169 0)
(0.290219 -0.00245709 0)
(0.290786 -0.00233735 0)
(0.291324 -0.00222245 0)
(0.291835 -0.00211236 0)
(0.292319 -0.00200708 0)
(0.292778 -0.0019066 0)
(0.293212 -0.00181093 0)
(0.293623 -0.00172007 0)
(0.294012 -0.00163403 0)
(0.29438 -0.00155278 0)
(0.294728 -0.00147631 0)
(0.295057 -0.00140459 0)
(0.295369 -0.00133761 0)
(0.295664 -0.00127531 0)
(0.295944 -0.00121764 0)
(0.29621 -0.00116456 0)
(0.296464 -0.00111599 0)
(0.296705 -0.00107187 0)
(0.296937 -0.00103211 0)
(0.297159 -0.00099661 0)
(0.297373 -0.000965271 0)
(0.29758 -0.000937991 0)
(0.297782 -0.000914675 0)
(0.297978 -0.000895237 0)
(0.298171 -0.000879588 0)
(0.298361 -0.000867635 0)
(0.29855 -0.000859296 0)
(0.298737 -0.000854506 0)
(0.298925 -0.000853214 0)
(0.299114 -0.000855374 0)
(0.299304 -0.000860951 0)
(0.299497 -0.000869933 0)
(0.299692 -0.000882367 0)
(0.299889 -0.000898375 0)
(0.300089 -0.000918204 0)
(0.300291 -0.000942508 0)
(0.300495 -0.000972023 0)
(0.3007 -0.00100802 0)
(0.300909 -0.00105481 0)
(0.301122 -0.00112145 0)
(0.301347 -0.00121273 0)
(0.301589 -0.00131183 0)
(0.30185 -0.00139305 0)
(0.302125 -0.00144803 0)
(0.30241 -0.00148543 0)
(0.302701 -0.00151587 0)
(0.303 -0.00154511 0)
(0.303306 -0.00157513 0)
(0.303622 -0.00160629 0)
(0.30395 -0.00163855 0)
(0.30429 -0.0016719 0)
(0.304643 -0.00170629 0)
(0.30501 -0.00174159 0)
(0.305392 -0.00177756 0)
(0.305788 -0.00181399 0)
(0.3062 -0.0018507 0)
(0.306628 -0.0018876 0)
(0.307073 -0.00192461 0)
(0.307534 -0.00196165 0)
(0.308011 -0.00199866 0)
(0.308505 -0.00203555 0)
(0.309016 -0.00207225 0)
(0.309544 -0.00210864 0)
(0.310089 -0.00214455 0)
(0.310652 -0.00217975 0)
(0.311231 -0.00221398 0)
(0.311827 -0.00224685 0)
(0.31244 -0.00227789 0)
(0.31307 -0.0023065 0)
(0.313715 -0.00233207 0)
(0.314375 -0.00235431 0)
(0.315049 -0.00237345 0)
(0.315734 -0.00239036 0)
(0.316429 -0.00240666 0)
(0.317133 -0.00242423 0)
(0.317845 -0.00244462 0)
(0.318566 -0.00246842 0)
(0.319297 -0.0024946 0)
(0.32004 -0.00252165 0)
(0.320797 -0.00254786 0)
(0.321568 -0.00257179 0)
(0.322355 -0.00259251 0)
(0.323158 -0.00260963 0)
(0.323977 -0.00262326 0)
(0.324812 -0.00263372 0)
(0.325664 -0.00264151 0)
(0.326533 -0.00264713 0)
(0.327418 -0.00265112 0)
(0.328319 -0.00265409 0)
(0.329234 -0.00265685 0)
(0.330164 -0.00266044 0)
(0.331105 -0.00266615 0)
(0.332056 -0.00267571 0)
(0.333013 -0.0026911 0)
(0.333974 -0.00271423 0)
(0.334931 -0.00274639 0)
(0.335878 -0.0027873 0)
(0.33681 -0.00283439 0)
(0.337717 -0.00288257 0)
(0.338596 -0.00292525 0)
(0.339443 -0.00295603 0)
(0.340259 -0.00297065 0)
(0.341048 -0.00296825 0)
(0.341817 -0.0029514 0)
(0.342572 -0.00292483 0)
(0.343323 -0.00289375 0)
(0.344075 -0.00286255 0)
(0.344833 -0.002834 0)
(0.345595 -0.00280909 0)
(0.346361 -0.00278766 0)
(0.347128 -0.00276882 0)
(0.347892 -0.00275141 0)
(0.34865 -0.00273434 0)
(0.349398 -0.0027168 0)
(0.350137 -0.00269825 0)
(0.350862 -0.00267821 0)
(0.351573 -0.00265616 0)
(0.352267 -0.00263157 0)
(0.352943 -0.00260388 0)
(0.353598 -0.00257251 0)
(0.35423 -0.00253701 0)
(0.354838 -0.00249695 0)
(0.35542 -0.00245203 0)
(0.355974 -0.00240206 0)
(0.356499 -0.00234695 0)
(0.356995 -0.00228657 0)
(0.357459 -0.00222077 0)
(0.357891 -0.00214955 0)
(0.358289 -0.00207286 0)
(0.358652 -0.00199063 0)
(0.35898 -0.00190286 0)
(0.359271 -0.00180955 0)
(0.359524 -0.00171063 0)
(0.35974 -0.00160611 0)
(0.359916 -0.00149609 0)
(0.360052 -0.00138073 0)
(0.360148 -0.00126002 0)
(0.360203 -0.00113406 0)
(0.360217 -0.00100296 0)
(0.360189 -0.000866827 0)
(0.360118 -0.000725736 0)
(0.360005 -0.00057969 0)
(0.359849 -0.000428915 0)
(0.359651 -0.000273807 0)
(0.359411 -0.000115047 0)
(0.359126 4.77411e-05 0)
(0.358799 0.000214693 0)
(0.35843 0.000385705 0)
(0.358018 0.000560997 0)
(0.357562 0.000739595 0)
(0.357063 0.000921331 0)
(0.356522 0.00110603 0)
(0.355938 0.00129356 0)
(0.355311 0.00148396 0)
(0.35464 0.00167814 0)
(0.353926 0.00187849 0)
(0.353169 0.00208379 0)
(0.352368 0.00229332 0)
(0.351524 0.00250693 0)
(0.350635 0.00272477 0)
(0.349703 0.0029471 0)
(0.348725 0.00317426 0)
(0.347703 0.00340674 0)
(0.346635 0.0036452 0)
(0.345521 0.00389042 0)
(0.344362 0.0041434 0)
(0.343158 0.0044054 0)
(0.341908 0.00467798 0)
(0.340615 0.00496321 0)
(0.339281 0.00526376 0)
(0.337907 0.00558284 0)
(0.336496 0.00592389 0)
(0.335053 0.00629029 0)
(0.333579 0.00668484 0)
(0.332079 0.00710932 0)
(0.330556 0.00756403 0)
(0.329012 0.00804747 0)
(0.327451 0.00855609 0)
(0.325875 0.00908403 0)
(0.324286 0.00962269 0)
(0.322683 0.0101606 0)
(0.321065 0.0106841 0)
(0.319424 0.0111786 0)
(0.317749 0.0116312 0)
(0.316022 0.0120314 0)
(0.314223 0.0123727 0)
(0.312333 0.0126514 0)
(0.310334 0.0128659 0)
(0.308212 0.0130174 0)
(0.305952 0.0131159 0)
(0.30354 0.0131876 0)
(0.30096 0.0132729 0)
(0.298201 0.0134117 0)
(0.295266 0.0136281 0)
(0.292168 0.0139278 0)
(0.288926 0.0143037 0)
(0.285559 0.0147382 0)
(0.282078 0.0152047 0)
(0.278493 0.0156712 0)
(0.274811 0.01611 0)
(0.27104 0.0165044 0)
(0.267185 0.0168515 0)
(0.263252 0.017159 0)
(0.259239 0.0174401 0)
(0.255145 0.0177079 0)
(0.250963 0.0179716 0)
(0.246688 0.0182362 0)
(0.242316 0.0185029 0)
(0.237847 0.0187713 0)
(0.233281 0.0190402 0)
(0.22862 0.019309 0)
(0.223865 0.0195775 0)
(0.219019 0.0198456 0)
(0.214081 0.0201134 0)
(0.209052 0.0203814 0)
(0.203932 0.0206497 0)
(0.198721 0.0209189 0)
(0.19342 0.0211893 0)
(0.188028 0.0214609 0)
(0.182547 0.0217336 0)
(0.176976 0.0220074 0)
(0.171315 0.0222826 0)
(0.165565 0.0225593 0)
(0.159727 0.0228372 0)
(0.153799 0.0231159 0)
(0.147784 0.0233941 0)
(0.14168 0.0236702 0)
(0.135488 0.0239429 0)
(0.129206 0.0242116 0)
(0.122836 0.0244758 0)
(0.116378 0.0247344 0)
(0.109832 0.0249862 0)
(0.103201 0.02523 0)
(0.0964849 0.0254647 0)
(0.0896871 0.0256893 0)
(0.0828101 0.0259022 0)
(0.075857 0.0261019 0)
(0.0688316 0.0262869 0)
(0.0617383 0.0264562 0)
(0.0545838 0.0266065 0)
(0.0473734 0.0267356 0)
(0.0401049 0.0268517 0)
(0.0327949 0.0269832 0)
(0.0253488 0.0270525 0)
(0.0180639 0.0264936 0)
(0.0110574 0.0252217 0)
(0.00464207 0.0285294 0)
(0.00133412 -0.0231442 0)
(0.00689502 -0.0318129 0)
(0.0124866 -0.0300803 0)
(0.0175375 -0.027939 0)
(0.0224089 -0.0272399 0)
(0.027193 -0.0271954 0)
(0.0320025 -0.0271967 0)
(0.0368007 -0.0271151 0)
(0.0415766 -0.0269836 0)
(0.046326 -0.0268334 0)
(0.0510455 -0.0266729 0)
(0.0557339 -0.0265017 0)
(0.0603889 -0.0263194 0)
(0.0650084 -0.0261261 0)
(0.0695907 -0.0259219 0)
(0.0741335 -0.0257084 0)
(0.0786353 -0.0254865 0)
(0.0830949 -0.0252563 0)
(0.0875109 -0.0250189 0)
(0.091882 -0.0247752 0)
(0.0962072 -0.0245257 0)
(0.100485 -0.024271 0)
(0.104716 -0.0240118 0)
(0.108899 -0.0237487 0)
(0.113033 -0.0234825 0)
(0.117117 -0.0232136 0)
(0.121152 -0.0229426 0)
(0.125139 -0.02267 0)
(0.129075 -0.0223962 0)
(0.132962 -0.0221217 0)
(0.1368 -0.0218466 0)
(0.140588 -0.0215714 0)
(0.144327 -0.0212966 0)
(0.148017 -0.0210221 0)
(0.151659 -0.020748 0)
(0.155253 -0.0204744 0)
(0.158798 -0.0202014 0)
(0.162295 -0.0199289 0)
(0.165745 -0.0196567 0)
(0.169146 -0.0193849 0)
(0.172499 -0.0191137 0)
(0.175806 -0.0188431 0)
(0.179066 -0.0185739 0)
(0.182282 -0.0183064 0)
(0.185453 -0.018041 0)
(0.188581 -0.0177776 0)
(0.191665 -0.0175159 0)
(0.194705 -0.0172556 0)
(0.197702 -0.0169963 0)
(0.200655 -0.0167378 0)
(0.203564 -0.0164799 0)
(0.206429 -0.0162224 0)
(0.20925 -0.0159648 0)
(0.212027 -0.0157068 0)
(0.21476 -0.0154481 0)
(0.217449 -0.0151882 0)
(0.220095 -0.0149273 0)
(0.222701 -0.014666 0)
(0.225264 -0.0144051 0)
(0.227786 -0.0141456 0)
(0.230264 -0.0138879 0)
(0.232695 -0.0136316 0)
(0.23508 -0.013376 0)
(0.237418 -0.01312 0)
(0.239708 -0.0128628 0)
(0.24195 -0.0126041 0)
(0.244145 -0.0123438 0)
(0.246294 -0.0120822 0)
(0.248395 -0.0118195 0)
(0.25045 -0.0115558 0)
(0.252458 -0.0112914 0)
(0.254419 -0.0110265 0)
(0.256334 -0.0107613 0)
(0.258201 -0.0104961 0)
(0.260022 -0.0102312 0)
(0.261797 -0.00996673 0)
(0.263525 -0.00970305 0)
(0.265207 -0.00944046 0)
(0.266842 -0.00917927 0)
(0.268432 -0.00891981 0)
(0.269976 -0.00866238 0)
(0.271474 -0.00840734 0)
(0.272926 -0.00815507 0)
(0.274334 -0.007906 0)
(0.275695 -0.00766052 0)
(0.277011 -0.00741885 0)
(0.278281 -0.00718094 0)
(0.279505 -0.00694637 0)
(0.280684 -0.00671452 0)
(0.281817 -0.00648471 0)
(0.282907 -0.00625649 0)
(0.283956 -0.00602981 0)
(0.284964 -0.00580496 0)
(0.285933 -0.0055825 0)
(0.286864 -0.0053631 0)
(0.287758 -0.0051474 0)
(0.288617 -0.00493596 0)
(0.289441 -0.00472925 0)
(0.29023 -0.00452764 0)
(0.290985 -0.00433143 0)
(0.291707 -0.00414086 0)
(0.292398 -0.00395607 0)
(0.293056 -0.00377718 0)
(0.293685 -0.00360426 0)
(0.294283 -0.00343736 0)
(0.294853 -0.00327652 0)
(0.295395 -0.00312175 0)
(0.295911 -0.00297311 0)
(0.2964 -0.00283061 0)
(0.296865 -0.0026943 0)
(0.297306 -0.00256421 0)
(0.297723 -0.00244033 0)
(0.29812 -0.00232268 0)
(0.298495 -0.00221126 0)
(0.298851 -0.00210604 0)
(0.299188 -0.00200701 0)
(0.299507 -0.00191412 0)
(0.299809 -0.0018273 0)
(0.300096 -0.00174649 0)
(0.300368 -0.00167159 0)
(0.300626 -0.0016025 0)
(0.300872 -0.00153913 0)
(0.301106 -0.00148136 0)
(0.301329 -0.00142906 0)
(0.301543 -0.00138212 0)
(0.301748 -0.00134042 0)
(0.301945 -0.0013038 0)
(0.302135 -0.00127215 0)
(0.302319 -0.00124533 0)
(0.302498 -0.00122323 0)
(0.302673 -0.0012057 0)
(0.302845 -0.00119263 0)
(0.303015 -0.00118387 0)
(0.303183 -0.00117927 0)
(0.303351 -0.00117864 0)
(0.30352 -0.0011817 0)