/*--------------------------------*- C++ -*----------------------------------*\
| =========                 |                                                 |
| \\      /  F ield         | OpenFOAM: The Open Source CFD Toolbox           |
|  \\    /   O peration     | Version:  v2006                                 |
|   \\  /    A nd           | Website:  www.openfoam.com                      |
|    \\/     M anipulation  |                                                 |
\*---------------------------------------------------------------------------*/
FoamFile
{
    version     2.0;
    format      ascii;
    class       volVectorField;
    location    "0";
    object      U;
}
// * * * * * * * * * * * * * * * * * * * * * * * * * * * * * * * * * * * * * //

dimensions      [0 1 -1 0 0 0 0];


internalField   nonuniform List<vector> 
67500
(
(-0.0151508 0.0102708 0)
(-0.0282438 -0.00349513 0)
(0.00475109 -0.0198023 0)
(0.0499873 -0.0260436 0)
(0.10146 -0.0244509 0)
(0.145979 -0.0182873 0)
(0.177235 -0.0118167 0)
(0.195925 -0.00701691 0)
(0.206047 -0.0040257 0)
(0.211645 -0.0025111 0)
(0.215644 -0.00212209 0)
(0.219916 -0.00247811 0)
(0.225512 -0.00322533 0)
(0.232866 -0.00411215 0)
(0.242043 -0.00499796 0)
(0.25294 -0.00582168 0)
(0.265402 -0.0065677 0)
(0.279276 -0.00724044 0)
(0.294427 -0.00784826 0)
(0.310735 -0.00839555 0)
(0.328082 -0.00888114 0)
(0.346341 -0.00929987 0)
(0.36537 -0.00964461 0)
(0.385011 -0.00990788 0)
(0.405093 -0.0100835 0)
(0.425434 -0.0101692 0)
(0.445854 -0.0101691 0)
(0.466189 -0.010095 0)
(0.486305 -0.00996252 0)
(0.506098 -0.00978531 0)
(0.52549 -0.00957489 0)
(0.544428 -0.00934295 0)
(0.56288 -0.00909972 0)
(0.580835 -0.00885177 0)
(0.598288 -0.00860277 0)
(0.615243 -0.00835451 0)
(0.6317 -0.00810715 0)
(0.647663 -0.00786003 0)
(0.663132 -0.00761248 0)
(0.678105 -0.00736404 0)
(0.69258 -0.00711465 0)
(0.706555 -0.00686467 0)
(0.720029 -0.00661482 0)
(0.733005 -0.00636603 0)
(0.745483 -0.00611933 0)
(0.757471 -0.00587574 0)
(0.768975 -0.0056362 0)
(0.780004 -0.00540153 0)
(0.790569 -0.00517239 0)
(0.800682 -0.0049493 0)
(0.810354 -0.00473265 0)
(0.8196 -0.0045227 0)
(0.828433 -0.00431963 0)
(0.836867 -0.00412355 0)
(0.844916 -0.00393447 0)
(0.852595 -0.0037524 0)
(0.859916 -0.00357727 0)
(0.866894 -0.003409 0)
(0.873542 -0.00324747 0)
(0.879874 -0.00309257 0)
(0.885903 -0.00294412 0)
(0.891642 -0.00280198 0)
(0.897103 -0.00266597 0)
(0.902299 -0.00253591 0)
(0.90724 -0.00241162 0)
(0.911938 -0.00229289 0)
(0.916405 -0.00217954 0)
(0.92065 -0.00207138 0)
(0.924684 -0.0019682 0)
(0.928517 -0.00186983 0)
(0.932158 -0.00177607 0)
(0.935616 -0.00168674 0)
(0.9389 -0.00160165 0)
(0.942019 -0.00152063 0)
(0.944979 -0.0014435 0)
(0.947788 -0.00137011 0)
(0.950455 -0.00130029 0)
(0.952986 -0.00123388 0)
(0.955387 -0.00117074 0)
(0.957666 -0.00111072 0)
(0.959827 -0.00105368 0)
(0.961877 -0.000999488 0)
(0.963822 -0.000948017 0)
(0.965667 -0.000899141 0)
(0.967416 -0.00085274 0)
(0.969075 -0.000808698 0)
(0.970649 -0.000766902 0)
(0.972141 -0.000727246 0)
(0.973556 -0.000689625 0)
(0.974897 -0.000653939 0)
(0.976169 -0.000620091 0)
(0.977376 -0.00058799 0)
(0.97852 -0.000557547 0)
(0.979604 -0.000528676 0)
(0.980633 -0.000501295 0)
(0.981608 -0.000475326 0)
(0.982533 -0.000450694 0)
(0.98341 -0.000427327 0)
(0.984241 -0.000405158 0)
(0.985029 -0.000384122 0)
(0.985776 -0.000364159 0)
(0.986485 -0.000345211 0)
(0.987156 -0.000327226 0)
(0.987793 -0.000310155 0)
(0.988396 -0.000293951 0)
(0.988968 -0.000278573 0)
(0.989509 -0.000263979 0)
(0.990023 -0.000250135 0)
(0.990509 -0.000237004 0)
(0.99097 -0.000224555 0)
(0.991407 -0.000212756 0)
(0.991821 -0.000201578 0)
(0.992213 -0.000190992 0)
(0.992584 -0.000180971 0)
(0.992936 -0.000171489 0)
(0.993269 -0.00016252 0)
(0.993585 -0.000154039 0)
(0.993885 -0.000146022 0)
(0.994169 -0.000138447 0)
(0.994438 -0.000131291 0)
(0.994694 -0.000124532 0)
(0.994936 -0.000118152 0)
(0.995166 -0.000112129 0)
(0.995384 -0.000106445 0)
(0.995592 -0.000101082 0)
(0.995788 -9.60229e-05 0)
(0.995975 -9.125e-05 0)
(0.996153 -8.67474e-05 0)
(0.996322 -8.24996e-05 0)
(0.996483 -7.84914e-05 0)
(0.996636 -7.47084e-05 0)
(0.996781 -7.11366e-05 0)
(0.99692 -6.77627e-05 0)
(0.997052 -6.45739e-05 0)
(0.997178 -6.15581e-05 0)
(0.997298 -5.87038e-05 0)
(0.997413 -5.6e-05 0)
(0.997522 -5.34368e-05 0)
(0.997627 -5.10044e-05 0)
(0.997726 -4.86942e-05 0)
(0.997821 -4.64979e-05 0)
(0.997912 -4.4408e-05 0)
(0.997999 -4.24177e-05 0)
(0.998082 -4.05207e-05 0)
(0.998161 -3.87113e-05 0)
(0.998236 -3.69843e-05 0)
(0.998309 -3.53349e-05 0)
(0.998378 -3.3759e-05 0)
(0.998444 -3.22525e-05 0)
(0.998507 -3.08121e-05 0)
(0.998567 -2.94344e-05 0)
(0.998624 -2.81166e-05 0)
(0.998679 -2.68558e-05 0)
(0.998732 -2.56497e-05 0)
(0.998782 -2.44958e-05 0)
(0.99883 -2.33919e-05 0)
(0.998875 -2.23361e-05 0)
(0.998919 -2.13265e-05 0)
(0.998961 -2.0361e-05 0)
(0.999 -1.94381e-05 0)
(0.999038 -1.8556e-05 0)
(0.999074 -1.77132e-05 0)
(0.999109 -1.6908e-05 0)
(0.999142 -1.61389e-05 0)
(0.999174 -1.54046e-05 0)
(0.999204 -1.47036e-05 0)
(0.999232 -1.40346e-05 0)
(0.99926 -1.33961e-05 0)
(0.999286 -1.27871e-05 0)
(0.999311 -1.22061e-05 0)
(0.999335 -1.16521e-05 0)
(0.999357 -1.11239e-05 0)
(0.999379 -1.06203e-05 0)
(0.9994 -1.01404e-05 0)
(0.99942 -9.68309e-06 0)
(0.999439 -9.24739e-06 0)
(0.999457 -8.83235e-06 0)
(0.999474 -8.43708e-06 0)
(0.99949 -8.06071e-06 0)
(0.999506 -7.70241e-06 0)
(0.999521 -7.3614e-06 0)
(0.999536 -7.03691e-06 0)
(0.999549 -6.72822e-06 0)
(0.999562 -6.43465e-06 0)
(0.999575 -6.15552e-06 0)
(0.999587 -5.89021e-06 0)
(0.999599 -5.63812e-06 0)
(0.99961 -5.39867e-06 0)
(0.99962 -5.1713e-06 0)
(0.99963 -4.95549e-06 0)
(0.99964 -4.75074e-06 0)
(0.999649 -4.55654e-06 0)
(0.999658 -4.37244e-06 0)
(0.999667 -4.19799e-06 0)
(0.999675 -4.03275e-06 0)
(0.999683 -3.8763e-06 0)
(0.99969 -3.72825e-06 0)
(0.999698 -3.58821e-06 0)
(0.999705 -3.4558e-06 0)
(0.999712 -3.33066e-06 0)
(0.999718 -3.21244e-06 0)
(0.999724 -3.10079e-06 0)
(0.999731 -2.9954e-06 0)
(0.999736 -2.89593e-06 0)
(0.999742 -2.80208e-06 0)
(0.999748 -2.71355e-06 0)
(0.999753 -2.63004e-06 0)
(0.999758 -2.55128e-06 0)
(0.999763 -2.47698e-06 0)
(0.999768 -2.40688e-06 0)
(0.999773 -2.34071e-06 0)
(0.999777 -2.27823e-06 0)
(0.999782 -2.21919e-06 0)
(0.999786 -2.16335e-06 0)
(0.999791 -2.11049e-06 0)
(0.999795 -2.06037e-06 0)
(0.999799 -2.01278e-06 0)
(0.999803 -1.96752e-06 0)
(0.999807 -1.92438e-06 0)
(0.99981 -1.88318e-06 0)
(0.999814 -1.84372e-06 0)
(0.999818 -1.80583e-06 0)
(0.999821 -1.76935e-06 0)
(0.999825 -1.73411e-06 0)
(0.999828 -1.69996e-06 0)
(0.999832 -1.66677e-06 0)
(0.999835 -1.6344e-06 0)
(0.999838 -1.60273e-06 0)
(0.999841 -1.57165e-06 0)
(0.999845 -1.54106e-06 0)
(0.999848 -1.51087e-06 0)
(0.999851 -1.481e-06 0)
(0.999854 -1.45138e-06 0)
(0.999856 -1.42196e-06 0)
(0.999859 -1.3927e-06 0)
(0.999862 -1.36356e-06 0)
(0.999865 -1.33453e-06 0)
(0.999867 -1.30559e-06 0)
(0.99987 -1.27674e-06 0)
(0.999872 -1.248e-06 0)
(0.999875 -1.21938e-06 0)
(0.999877 -1.1909e-06 0)
(0.99988 -1.16258e-06 0)
(0.999882 -1.13445e-06 0)
(0.999884 -1.10653e-06 0)
(0.999886 -1.07885e-06 0)
(0.999888 -1.05142e-06 0)
(0.999891 -1.02426e-06 0)
(0.999893 -9.97388e-07 0)
(0.999895 -9.70823e-07 0)
(0.999896 -9.44585e-07 0)
(0.999898 -9.18701e-07 0)
(0.9999 -8.9321e-07 0)
(0.999902 -8.68162e-07 0)
(0.999904 -8.43625e-07 0)
(0.999905 -8.19684e-07 0)
(0.999907 -7.96436e-07 0)
(0.999908 -7.73996e-07 0)
(0.99991 -7.52481e-07 0)
(0.999911 -7.32007e-07 0)
(0.999913 -7.12677e-07 0)
(0.999914 -6.94566e-07 0)
(0.999916 -6.77709e-07 0)
(0.999917 -6.6209e-07 0)
(0.999918 -6.47633e-07 0)
(0.99992 -6.34198e-07 0)
(0.999921 -6.21588e-07 0)
(0.999922 -6.09558e-07 0)
(0.999923 -5.9784e-07 0)
(0.999924 -5.86164e-07 0)
(0.999926 -5.74294e-07 0)
(0.999927 -5.62054e-07 0)
(0.999928 -5.49357e-07 0)
(0.999929 -5.36218e-07 0)
(0.99993 -5.22763e-07 0)
(0.999931 -5.09219e-07 0)
(0.999932 -4.95894e-07 0)
(0.999933 -4.83146e-07 0)
(0.999934 -4.71346e-07 0)
(0.999935 -4.60839e-07 0)
(0.999936 -4.5191e-07 0)
(0.999937 -4.44758e-07 0)
(0.999938 -4.39479e-07 0)
(0.999939 -4.3606e-07 0)
(0.999939 -4.34386e-07 0)
(0.99994 -4.34257e-07 0)
(0.999941 -4.35402e-07 0)
(0.999942 -4.37509e-07 0)
(0.999943 -4.40246e-07 0)
(0.999944 -4.4328e-07 0)
(0.999945 -4.46301e-07 0)
(0.999946 -4.4903e-07 0)
(0.999946 -4.51231e-07 0)
(0.999947 -4.52718e-07 0)
(0.999948 -4.5335e-07 0)
(0.999949 -4.53038e-07 0)
(0.99995 -4.51733e-07 0)
(0.999951 -4.49424e-07 0)
(0.999952 -4.46134e-07 0)
(0.999953 -4.4191e-07 0)
(0.999954 -4.36818e-07 0)
(0.999954 -4.30938e-07 0)
(0.999955 -4.24359e-07 0)
(0.999956 -4.17174e-07 0)
(0.999957 -4.09476e-07 0)
(0.999958 -4.01357e-07 0)
(0.999959 -3.92904e-07 0)
(0.999959 -3.84201e-07 0)
(0.99996 -3.75322e-07 0)
(0.999961 -3.66335e-07 0)
(0.999962 -3.57303e-07 0)
(0.999962 -3.48277e-07 0)
(0.999963 -3.39306e-07 0)
(0.999964 -3.30429e-07 0)
(0.999964 -3.2168e-07 0)
(0.999965 -3.13086e-07 0)
(0.999966 -3.04671e-07 0)
(0.999966 -2.96452e-07 0)
(0.999967 -2.88443e-07 0)
(0.999967 -2.80655e-07 0)
(0.999968 -2.73095e-07 0)
(0.999968 -2.65767e-07 0)
(0.999969 -2.58674e-07 0)
(0.999969 -2.51814e-07 0)
(0.99997 -2.45188e-07 0)
(0.99997 -2.38792e-07 0)
(0.999971 -2.32621e-07 0)
(0.999971 -2.26672e-07 0)
(0.999972 -2.20938e-07 0)
(0.999972 -2.15414e-07 0)
(0.999973 -2.10093e-07 0)
(0.999973 -2.04967e-07 0)
(0.999974 -2.00032e-07 0)
(0.999974 -1.95278e-07 0)
(0.999974 -1.90699e-07 0)
(0.999975 -1.86289e-07 0)
(0.999975 -1.8204e-07 0)
(0.999975 -1.77945e-07 0)
(0.999976 -1.73998e-07 0)
(0.999976 -1.70192e-07 0)
(0.999976 -1.66521e-07 0)
(0.999977 -1.62979e-07 0)
(0.999977 -1.5956e-07 0)
(0.999977 -1.56259e-07 0)
(0.999978 -1.53069e-07 0)
(0.999978 -1.49986e-07 0)
(0.999978 -1.47004e-07 0)
(0.999979 -1.44119e-07 0)
(0.999979 -1.41327e-07 0)
(0.999979 -1.38623e-07 0)
(0.999979 -1.36003e-07 0)
(0.99998 -1.33462e-07 0)
(0.99998 -1.30998e-07 0)
(0.99998 -1.28607e-07 0)
(0.99998 -1.26285e-07 0)
(0.999981 -1.24028e-07 0)
(0.999981 -1.21835e-07 0)
(0.999981 -1.19702e-07 0)
(0.999981 -1.17626e-07 0)
(0.999982 -1.15605e-07 0)
(0.999982 -1.13636e-07 0)
(0.999982 -1.11717e-07 0)
(0.999982 -1.09846e-07 0)
(0.999983 -1.0802e-07 0)
(0.999983 -1.06238e-07 0)
(0.999983 -1.04498e-07 0)
(0.999983 -1.02797e-07 0)
(0.999983 -1.01134e-07 0)
(0.999984 -9.95085e-08 0)
(0.999984 -9.79176e-08 0)
(0.999984 -9.63603e-08 0)
(0.999984 -9.48352e-08 0)
(0.999984 -9.3341e-08 0)
(0.999985 -9.18764e-08 0)
(0.999985 -9.04404e-08 0)
(0.999985 -8.90317e-08 0)
(0.999985 -8.76494e-08 0)
(0.999985 -8.62924e-08 0)
(0.999985 -8.49597e-08 0)
(0.999986 -8.36506e-08 0)
(0.999986 -8.23641e-08 0)
(0.999986 -8.10994e-08 0)
(0.999986 -7.98557e-08 0)
(0.999986 -7.86323e-08 0)
(0.999986 -7.74286e-08 0)
(0.999987 -7.62438e-08 0)
(0.999987 -7.50773e-08 0)
(0.999987 -7.39285e-08 0)
(0.999987 -7.27969e-08 0)
(0.999987 -7.16818e-08 0)
(0.999987 -7.05829e-08 0)
(0.999987 -6.94994e-08 0)
(0.999988 -6.84311e-08 0)
(0.999988 -6.73775e-08 0)
(0.999988 -6.63381e-08 0)
(0.999988 -6.53125e-08 0)
(0.999988 -6.43004e-08 0)
(0.999988 -6.33012e-08 0)
(0.999988 -6.23148e-08 0)
(0.999989 -6.13407e-08 0)
(0.999989 -6.03785e-08 0)
(0.999989 -5.94281e-08 0)
(0.999989 -5.84891e-08 0)
(0.999989 -5.75611e-08 0)
(0.999989 -5.6644e-08 0)
(0.999989 -5.57374e-08 0)
(0.999989 -5.4841e-08 0)
(0.999989 -5.39547e-08 0)
(0.99999 -5.30782e-08 0)
(0.99999 -5.22112e-08 0)
(0.99999 -5.13535e-08 0)
(0.99999 -5.0505e-08 0)
(0.99999 -4.96653e-08 0)
(0.99999 -4.88343e-08 0)
(0.99999 -4.80119e-08 0)
(0.99999 -4.71977e-08 0)
(0.99999 -4.63917e-08 0)
(0.99999 -4.55936e-08 0)
(0.999991 -4.48033e-08 0)
(0.999991 -4.40205e-08 0)
(0.999991 -4.32452e-08 0)
(0.999991 -4.24772e-08 0)
(0.999991 -4.17163e-08 0)
(0.999991 -4.09623e-08 0)
(0.999991 -4.02151e-08 0)
(0.999991 -3.94747e-08 0)
(0.999991 -3.87407e-08 0)
(0.999991 -3.80131e-08 0)
(0.999991 -3.72918e-08 0)
(0.999991 -3.65766e-08 0)
(0.999991 -3.58673e-08 0)
(0.999992 -3.51639e-08 0)
(0.999992 -3.44662e-08 0)
(0.999992 -3.37742e-08 0)
(0.999992 -3.30876e-08 0)
(0.999992 -3.24064e-08 0)
(0.999992 -3.17305e-08 0)
(0.999992 -3.10597e-08 0)
(0.999992 -3.03939e-08 0)
(0.999992 -2.9733e-08 0)
(0.999992 -2.90769e-08 0)
(0.999992 -2.84256e-08 0)
(0.999992 -2.77788e-08 0)
(0.999992 -2.71365e-08 0)
(0.999992 -2.64989e-08 0)
(0.999992 -2.58641e-08 0)
(0.999992 -2.52396e-08 0)
(0.999993 -2.45935e-08 0)
(0.999993 -2.40605e-08 0)
(0.999993 -2.3066e-08 0)
(-0.0173173 0.0305649 0)
(-0.0263476 -0.0115077 0)
(0.00532463 -0.0580937 0)
(0.0558199 -0.0770363 0)
(0.108554 -0.073691 0)
(0.150241 -0.0555764 0)
(0.178013 -0.0353897 0)
(0.194581 -0.0205092 0)
(0.203843 -0.0116465 0)
(0.209207 -0.00736725 0)
(0.213281 -0.00640151 0)
(0.217821 -0.00757719 0)
(0.223755 -0.00984451 0)
(0.231406 -0.0124821 0)
(0.240789 -0.0151023 0)
(0.251808 -0.0175417 0)
(0.264335 -0.0197605 0)
(0.278249 -0.0217723 0)
(0.29344 -0.0235989 0)
(0.309808 -0.0252492 0)
(0.327243 -0.0267157 0)
(0.345617 -0.0279808 0)
(0.364786 -0.0290225 0)
(0.384586 -0.0298182 0)
(0.404837 -0.0303485 0)
(0.425346 -0.0306032 0)
(0.445917 -0.0305924 0)
(0.466376 -0.0303541 0)
(0.486587 -0.0299403 0)
(0.506452 -0.0293931 0)
(0.525894 -0.0287471 0)
(0.544863 -0.0280392 0)
(0.563332 -0.0273014 0)
(0.581294 -0.0265525 0)
(0.598749 -0.0258026 0)
(0.615703 -0.0250568 0)
(0.632161 -0.0243146 0)
(0.648126 -0.0235735 0)
(0.663598 -0.0228311 0)
(0.678574 -0.0220858 0)
(0.693051 -0.0213373 0)
(0.707027 -0.0205868 0)
(0.720502 -0.0198365 0)
(0.733474 -0.0190893 0)
(0.745949 -0.0183484 0)
(0.75793 -0.017617 0)
(0.769426 -0.0168979 0)
(0.780446 -0.0161935 0)
(0.791 -0.0155059 0)
(0.801101 -0.0148366 0)
(0.810761 -0.0141867 0)
(0.819994 -0.013557 0)
(0.828814 -0.012948 0)
(0.837235 -0.01236 0)
(0.84527 -0.0117931 0)
(0.852935 -0.0112472 0)
(0.860243 -0.0107222 0)
(0.867208 -0.0102178 0)
(0.873844 -0.00973359 0)
(0.880164 -0.00926924 0)
(0.886181 -0.00882429 0)
(0.891908 -0.00839824 0)
(0.897357 -0.00799057 0)
(0.902542 -0.00760075 0)
(0.907472 -0.00722819 0)
(0.91216 -0.00687234 0)
(0.916617 -0.00653261 0)
(0.920852 -0.00620842 0)
(0.924877 -0.00589919 0)
(0.928702 -0.00560435 0)
(0.932334 -0.00532333 0)
(0.935784 -0.00505558 0)
(0.93906 -0.00480055 0)
(0.942171 -0.00455772 0)
(0.945124 -0.00432656 0)
(0.947927 -0.00410658 0)
(0.950587 -0.0038973 0)
(0.953111 -0.00369826 0)
(0.955506 -0.003509 0)
(0.957779 -0.0033291 0)
(0.959935 -0.00315813 0)
(0.96198 -0.0029957 0)
(0.96392 -0.00284143 0)
(0.965759 -0.00269493 0)
(0.967504 -0.00255585 0)
(0.969159 -0.00242385 0)
(0.970728 -0.00229857 0)
(0.972216 -0.00217971 0)
(0.973627 -0.00206695 0)
(0.974965 -0.00195999 0)
(0.976234 -0.00185854 0)
(0.977437 -0.00176233 0)
(0.978578 -0.00167109 0)
(0.97966 -0.00158456 0)
(0.980685 -0.00150249 0)
(0.981658 -0.00142466 0)
(0.98258 -0.00135083 0)
(0.983454 -0.0012808 0)
(0.984283 -0.00121436 0)
(0.985069 -0.00115131 0)
(0.985815 -0.00109147 0)
(0.986521 -0.00103468 0)
(0.987191 -0.000980778 0)
(0.987826 -0.000929609 0)
(0.988427 -0.000881039 0)
(0.988997 -0.000834942 0)
(0.989538 -0.000791198 0)
(0.99005 -0.000749699 0)
(0.990535 -0.000710339 0)
(0.990994 -0.000673021 0)
(0.99143 -0.000637654 0)
(0.991842 -0.000604148 0)
(0.992233 -0.000572417 0)
(0.992603 -0.000542381 0)
(0.992954 -0.000513959 0)
(0.993287 -0.000487076 0)
(0.993602 -0.000461656 0)
(0.993901 -0.000437628 0)
(0.994184 -0.000414924 0)
(0.994452 -0.000393477 0)
(0.994707 -0.000373222 0)
(0.994949 -0.0003541 0)
(0.995178 -0.00033605 0)
(0.995395 -0.000319017 0)
(0.995602 -0.000302946 0)
(0.995798 -0.000287784 0)
(0.995985 -0.000273481 0)
(0.996162 -0.000259989 0)
(0.99633 -0.00024726 0)
(0.996491 -0.00023525 0)
(0.996643 -0.000223915 0)
(0.996788 -0.000213213 0)
(0.996927 -0.000203104 0)
(0.997059 -0.000193549 0)
(0.997184 -0.000184513 0)
(0.997304 -0.000175961 0)
(0.997418 -0.00016786 0)
(0.997527 -0.00016018 0)
(0.997631 -0.000152891 0)
(0.997731 -0.000145969 0)
(0.997826 -0.000139387 0)
(0.997916 -0.000133124 0)
(0.998003 -0.00012716 0)
(0.998085 -0.000121475 0)
(0.998164 -0.000116051 0)
(0.99824 -0.000110875 0)
(0.998312 -0.000105931 0)
(0.998381 -0.000101207 0)
(0.998447 -9.66916e-05 0)
(0.998509 -9.23735e-05 -3.07201e-42)
(0.998569 -8.82435e-05 -2.94497e-42)
(0.998627 -8.42926e-05 0)
(0.998682 -8.05129e-05 0)
(0.998734 -7.68967e-05 0)
(0.998784 -7.34372e-05 0)
(0.998832 -7.01278e-05 0)
(0.998877 -6.69623e-05 0)
(0.998921 -6.39351e-05 0)
(0.998962 -6.10406e-05 0)
(0.999002 -5.82735e-05 0)
(0.99904 -5.56289e-05 0)
(0.999076 -5.31018e-05 0)
(0.999111 -5.06878e-05 0)
(0.999144 -4.83821e-05 0)
(0.999175 -4.61806e-05 0)
(0.999205 -4.40789e-05 0)
(0.999234 -4.2073e-05 0)
(0.999261 -4.0159e-05 0)
(0.999287 -3.8333e-05 0)
(0.999312 -3.65914e-05 0)
(0.999336 -3.49305e-05 0)
(0.999358 -3.33469e-05 0)
(0.99938 -3.18374e-05 0)
(0.999401 -3.03986e-05 0)
(0.999421 -2.90277e-05 0)
(0.999439 -2.77215e-05 0)
(0.999457 -2.64773e-05 0)
(0.999475 -2.52923e-05 0)
(0.999491 -2.4164e-05 0)
(0.999507 -2.30899e-05 0)
(0.999522 -2.20677e-05 0)
(0.999536 -2.10949e-05 0)
(0.99955 -2.01695e-05 0)
(0.999563 -1.92895e-05 0)
(0.999576 -1.84527e-05 0)
(0.999588 -1.76574e-05 0)
(0.999599 -1.69017e-05 0)
(0.99961 -1.61839e-05 0)
(0.999621 -1.55023e-05 0)
(0.999631 -1.48554e-05 0)
(0.99964 -1.42416e-05 0)
(0.99965 -1.36595e-05 0)
(0.999659 -1.31077e-05 0)
(0.999667 -1.25847e-05 0)
(0.999675 -1.20894e-05 0)
(0.999683 -1.16205e-05 0)
(0.999691 -1.11768e-05 0)
(0.999698 -1.0757e-05 0)
(0.999705 -1.03601e-05 0)
(0.999712 -9.98506e-06 0)
(0.999718 -9.63074e-06 0)
(0.999725 -9.29613e-06 0)
(0.999731 -8.98026e-06 0)
(0.999737 -8.68217e-06 0)
(0.999742 -8.40092e-06 0)
(0.999748 -8.13562e-06 0)
(0.999753 -7.88539e-06 0)
(0.999758 -7.64937e-06 0)
(0.999763 -7.42674e-06 0)
(0.999768 -7.21669e-06 0)
(0.999773 -7.01845e-06 0)
(0.999778 -6.83125e-06 0)
(0.999782 -6.65437e-06 0)
(0.999786 -6.48709e-06 0)
(0.999791 -6.32871e-06 0)
(0.999795 -6.17857e-06 0)
(0.999799 -6.03602e-06 0)
(0.999803 -5.90044e-06 0)
(0.999807 -5.77122e-06 0)
(0.999811 -5.64779e-06 0)
(0.999814 -5.52959e-06 0)
(0.999818 -5.41609e-06 0)
(0.999821 -5.3068e-06 0)
(0.999825 -5.20123e-06 0)
(0.999828 -5.09893e-06 0)
(0.999832 -4.99949e-06 0)
(0.999835 -4.9025e-06 0)
(0.999838 -4.8076e-06 0)
(0.999841 -4.71446e-06 0)
(0.999845 -4.62277e-06 0)
(0.999848 -4.53228e-06 0)
(0.999851 -4.44273e-06 0)
(0.999854 -4.35393e-06 0)
(0.999856 -4.26572e-06 0)
(0.999859 -4.17797e-06 0)
(0.999862 -4.09057e-06 0)
(0.999865 -4.00348e-06 0)
(0.999867 -3.91666e-06 0)
(0.99987 -3.83012e-06 0)
(0.999872 -3.74389e-06 0)
(0.999875 -3.658e-06 0)
(0.999877 -3.57254e-06 0)
(0.99988 -3.48756e-06 0)
(0.999882 -3.40315e-06 0)
(0.999884 -3.31937e-06 0)
(0.999886 -3.2363e-06 0)
(0.999889 -3.15398e-06 0)
(0.999891 -3.07249e-06 0)
(0.999893 -2.99186e-06 0)
(0.999895 -2.91214e-06 0)
(0.999897 -2.8334e-06 0)
(0.999898 -2.7557e-06 0)
(0.9999 -2.67918e-06 0)
(0.999902 -2.60397e-06 0)
(0.999904 -2.53028e-06 0)
(0.999905 -2.45835e-06 0)
(0.999907 -2.3885e-06 0)
(0.999908 -2.32106e-06 0)
(0.99991 -2.25641e-06 0)
(0.999912 -2.19489e-06 0)
(0.999913 -2.13683e-06 0)
(0.999914 -2.08247e-06 0)
(0.999916 -2.03192e-06 0)
(0.999917 -1.98514e-06 0)
(0.999918 -1.9419e-06 0)
(0.99992 -1.90179e-06 0)
(0.999921 -1.8642e-06 0)
(0.999922 -1.82836e-06 0)
(0.999923 -1.79346e-06 0)
(0.999925 -1.75866e-06 0)
(0.999926 -1.72321e-06 0)
(0.999927 -1.68657e-06 0)
(0.999928 -1.64846e-06 0)
(0.999929 -1.60892e-06 0)
(0.99993 -1.56834e-06 0)
(0.999931 -1.52741e-06 0)
(0.999932 -1.4871e-06 0)
(0.999933 -1.4485e-06 0)
(0.999934 -1.41277e-06 0)
(0.999935 -1.38098e-06 0)
(0.999936 -1.354e-06 0)
(0.999937 -1.33245e-06 0)
(0.999938 -1.31662e-06 0)
(0.999939 -1.30648e-06 0)
(0.999939 -1.30165e-06 0)
(0.99994 -1.30152e-06 0)
(0.999941 -1.30526e-06 0)
(0.999942 -1.3119e-06 0)
(0.999943 -1.32043e-06 0)
(0.999944 -1.32984e-06 0)
(0.999945 -1.33918e-06 0)
(0.999946 -1.3476e-06 0)
(0.999946 -1.35439e-06 0)
(0.999947 -1.35899e-06 0)
(0.999948 -1.36098e-06 0)
(0.999949 -1.36009e-06 0)
(0.99995 -1.35619e-06 0)
(0.999951 -1.34924e-06 0)
(0.999952 -1.33933e-06 0)
(0.999953 -1.32659e-06 0)
(0.999954 -1.31124e-06 0)
(0.999954 -1.29351e-06 0)
(0.999955 -1.27368e-06 0)
(0.999956 -1.25203e-06 0)
(0.999957 -1.22885e-06 0)
(0.999958 -1.20441e-06 0)
(0.999959 -1.17897e-06 0)
(0.999959 -1.15278e-06 0)
(0.99996 -1.12608e-06 0)
(0.999961 -1.09906e-06 0)
(0.999962 -1.0719e-06 0)
(0.999962 -1.04478e-06 0)
(0.999963 -1.01783e-06 0)
(0.999964 -9.91162e-07 0)
(0.999964 -9.64886e-07 0)
(0.999965 -9.39082e-07 0)
(0.999966 -9.13817e-07 0)
(0.999966 -8.89147e-07 0)
(0.999967 -8.65111e-07 0)
(0.999967 -8.4174e-07 0)
(0.999968 -8.19055e-07 0)
(0.999968 -7.97069e-07 0)
(0.999969 -7.75787e-07 0)
(0.999969 -7.55211e-07 0)
(0.99997 -7.35335e-07 0)
(0.99997 -7.16149e-07 0)
(0.999971 -6.97643e-07 0)
(0.999971 -6.798e-07 0)
(0.999972 -6.62605e-07 0)
(0.999972 -6.46039e-07 0)
(0.999973 -6.30081e-07 0)
(0.999973 -6.14713e-07 0)
(0.999974 -5.99912e-07 0)
(0.999974 -5.85658e-07 0)
(0.999974 -5.7193e-07 0)
(0.999975 -5.58706e-07 0)
(0.999975 -5.45965e-07 0)
(0.999975 -5.33688e-07 0)
(0.999976 -5.21853e-07 0)
(0.999976 -5.10442e-07 0)
(0.999976 -4.99435e-07 0)
(0.999977 -4.88815e-07 0)
(0.999977 -4.78563e-07 0)
(0.999977 -4.68664e-07 0)
(0.999978 -4.59099e-07 0)
(0.999978 -4.49855e-07 0)
(0.999978 -4.40915e-07 0)
(0.999979 -4.32266e-07 0)
(0.999979 -4.23893e-07 0)
(0.999979 -4.15785e-07 0)
(0.999979 -4.07928e-07 0)
(0.99998 -4.00311e-07 0)
(0.99998 -3.92922e-07 0)
(0.99998 -3.85751e-07 0)
(0.99998 -3.78788e-07 0)
(0.999981 -3.72022e-07 0)
(0.999981 -3.65445e-07 0)
(0.999981 -3.59049e-07 0)
(0.999981 -3.52824e-07 0)
(0.999982 -3.46763e-07 0)
(0.999982 -3.40859e-07 0)
(0.999982 -3.35104e-07 0)
(0.999982 -3.29492e-07 0)
(0.999983 -3.24017e-07 0)
(0.999983 -3.18672e-07 0)
(0.999983 -3.13453e-07 0)
(0.999983 -3.08352e-07 0)
(0.999983 -3.03367e-07 0)
(0.999984 -2.9849e-07 0)
(0.999984 -2.93719e-07 0)
(0.999984 -2.89049e-07 0)
(0.999984 -2.84475e-07 0)
(0.999984 -2.79993e-07 0)
(0.999985 -2.75601e-07 0)
(0.999985 -2.71294e-07 0)
(0.999985 -2.67069e-07 0)
(0.999985 -2.62923e-07 0)
(0.999985 -2.58853e-07 0)
(0.999985 -2.54856e-07 0)
(0.999986 -2.50929e-07 0)
(0.999986 -2.4707e-07 0)
(0.999986 -2.43277e-07 0)
(0.999986 -2.39547e-07 0)
(0.999986 -2.35877e-07 0)
(0.999986 -2.32267e-07 0)
(0.999987 -2.28713e-07 0)
(0.999987 -2.25214e-07 0)
(0.999987 -2.21768e-07 0)
(0.999987 -2.18374e-07 0)
(0.999987 -2.15029e-07 0)
(0.999987 -2.11733e-07 0)
(0.999987 -2.08483e-07 0)
(0.999988 -2.05279e-07 0)
(0.999988 -2.02118e-07 0)
(0.999988 -1.99001e-07 0)
(0.999988 -1.95924e-07 0)
(0.999988 -1.92888e-07 0)
(0.999988 -1.89891e-07 0)
(0.999988 -1.86932e-07 0)
(0.999989 -1.8401e-07 0)
(0.999989 -1.81124e-07 0)
(0.999989 -1.78273e-07 0)
(0.999989 -1.75456e-07 0)
(0.999989 -1.72673e-07 0)
(0.999989 -1.69921e-07 0)
(0.999989 -1.67202e-07 0)
(0.999989 -1.64513e-07 0)
(0.999989 -1.61854e-07 0)
(0.99999 -1.59225e-07 0)
(0.99999 -1.56624e-07 0)
(0.99999 -1.54051e-07 0)
(0.99999 -1.51506e-07 0)
(0.99999 -1.48987e-07 0)
(0.99999 -1.46494e-07 0)
(0.99999 -1.44027e-07 0)
(0.99999 -1.41585e-07 0)
(0.99999 -1.39167e-07 0)
(0.99999 -1.36773e-07 0)
(0.999991 -1.34402e-07 0)
(0.999991 -1.32054e-07 0)
(0.999991 -1.29728e-07 0)
(0.999991 -1.27424e-07 0)
(0.999991 -1.25142e-07 0)
(0.999991 -1.2288e-07 0)
(0.999991 -1.20639e-07 0)
(0.999991 -1.18417e-07 0)
(0.999991 -1.16216e-07 0)
(0.999991 -1.14033e-07 0)
(0.999991 -1.11869e-07 0)
(0.999991 -1.09724e-07 0)
(0.999991 -1.07596e-07 0)
(0.999992 -1.05486e-07 0)
(0.999992 -1.03393e-07 0)
(0.999992 -1.01317e-07 0)
(0.999992 -9.92574e-08 0)
(0.999992 -9.7214e-08 0)
(0.999992 -9.51862e-08 0)
(0.999992 -9.31739e-08 0)
(0.999992 -9.11767e-08 0)
(0.999992 -8.91942e-08 0)
(0.999992 -8.72261e-08 0)
(0.999992 -8.52722e-08 0)
(0.999992 -8.3332e-08 0)
(0.999992 -8.14051e-08 0)
(0.999992 -7.94924e-08 0)
(0.999992 -7.75882e-08 0)
(0.999992 -7.57146e-08 0)
(0.999993 -7.37765e-08 0)
(0.999993 -7.21775e-08 0)
(0.999993 -6.91943e-08 0)
(-0.0147199 0.0494502 0)
(-0.0228297 -0.0215976 0)
(0.019959 -0.101448 0)
(0.0944883 -0.134595 0)
(0.151339 -0.116684 0)
(0.177275 -0.0821653 0)
(0.185652 -0.052902 0)
(0.190706 -0.0321658 0)
(0.196789 -0.0189801 0)
(0.202564 -0.0123864 0)
(0.207649 -0.0110787 0)
(0.213157 -0.0131854 0)
(0.219943 -0.0169499 0)
(0.228224 -0.0212318 0)
(0.237973 -0.0254619 0)
(0.249139 -0.0294174 0)
(0.261679 -0.0330509 0)
(0.275555 -0.0363843 0)
(0.290732 -0.0394427 0)
(0.307161 -0.0422266 0)
(0.324759 -0.0447109 0)
(0.343405 -0.0468567 0)
(0.362943 -0.0486209 0)
(0.383187 -0.0499616 0)
(0.403924 -0.050844 0)
(0.424921 -0.0512484 0)
(0.44593 -0.0511904 0)
(0.466736 -0.0507471 0)
(0.487199 -0.050024 0)
(0.507238 -0.0490861 0)
(0.526789 -0.0479799 0)
(0.54581 -0.0467719 0)
(0.564293 -0.0455233 0)
(0.582253 -0.0442638 0)
(0.5997 -0.0430082 0)
(0.616647 -0.0417644 0)
(0.633102 -0.0405289 0)
(0.649069 -0.0392955 0)
(0.664546 -0.0380592 0)
(0.679529 -0.036817 0)
(0.694013 -0.0355681 0)
(0.707993 -0.0343149 0)
(0.721467 -0.0330613 0)
(0.734436 -0.0318125 0)
(0.746902 -0.0305742 0)
(0.75887 -0.0293519 0)
(0.770349 -0.0281506 0)
(0.781349 -0.0269743 0)
(0.791881 -0.0258264 0)
(0.801957 -0.0247094 0)
(0.811592 -0.0236252 0)
(0.820799 -0.022575 0)
(0.829592 -0.0215596 0)
(0.837986 -0.0205794 0)
(0.845994 -0.0196345 0)
(0.853632 -0.0187247 0)
(0.860913 -0.0178499 0)
(0.867851 -0.0170094 0)
(0.874461 -0.0162027 0)
(0.880756 -0.0154292 0)
(0.886748 -0.0146881 0)
(0.892451 -0.0139785 0)
(0.897877 -0.0132995 0)
(0.903038 -0.0126503 0)
(0.907947 -0.01203 0)
(0.912614 -0.0114374 0)
(0.91705 -0.0108718 0)
(0.921266 -0.010332 0)
(0.925272 -0.00981719 0)
(0.929078 -0.00932635 0)
(0.932693 -0.00885853 0)
(0.936126 -0.00841281 0)
(0.939386 -0.00798829 0)
(0.942481 -0.00758407 0)
(0.945419 -0.0071993 0)
(0.948208 -0.00683315 0)
(0.950854 -0.00648481 0)
(0.953366 -0.00615352 0)
(0.955748 -0.00583852 0)
(0.958009 -0.0055391 0)
(0.960154 -0.00525457 0)
(0.962188 -0.00498425 0)
(0.964117 -0.0047275 0)
(0.965947 -0.00448371 0)
(0.967682 -0.00425226 0)
(0.969328 -0.00403259 0)
(0.970889 -0.00382414 0)
(0.972369 -0.00362635 0)
(0.973772 -0.00343873 0)
(0.975102 -0.00326076 0)
(0.976364 -0.00309197 0)
(0.977561 -0.00293189 0)
(0.978695 -0.00278009 0)
(0.979771 -0.00263613 0)
(0.980791 -0.0024996 0)
(0.981758 -0.00237012 0)
(0.982675 -0.0022473 0)
(0.983545 -0.00213079 0)
(0.984369 -0.00202026 0)
(0.985151 -0.00191537 0)
(0.985892 -0.00181582 0)
(0.986594 -0.00172134 0)
(0.98726 -0.00163166 0)
(0.987892 -0.00154652 0)
(0.98849 -0.00146571 0)
(0.989057 -0.00138901 0)
(0.989594 -0.00131622 0)
(0.990103 -0.00124716 0)
(0.990585 -0.00118167 0)
(0.991042 -0.00111957 0)
(0.991475 -0.00106072 0)
(0.991885 -0.00100497 0)
(0.992274 -0.000952173 0)
(0.992642 -0.000902198 0)
(0.992991 -0.000854912 0)
(0.993321 -0.000810186 0)
(0.993635 -0.000767897 0)
(0.993932 -0.000727926 0)
(0.994213 -0.000690157 0)
(0.99448 -0.000654481 0)
(0.994733 -0.000620791 0)
(0.994973 -0.000588984 0)
(0.995201 -0.000558963 0)
(0.995417 -0.000530634 0)
(0.995623 -0.000503906 0)
(0.995818 -0.000478691 0)
(0.996003 -0.000454907 0)
(0.996179 -0.000432471 0)
(0.996347 -0.000411307 0)
(0.996506 -0.000391338 0)
(0.996658 -0.000372492 0)
(0.996802 -0.000354699 0)
(0.99694 -0.000337892 0)
(0.997071 -0.000322009 0)
(0.997196 -0.000306987 0)
(0.997315 -0.000292769 0)
(0.997429 -0.0002793 0)
(0.997537 -0.000266531 0)
(0.997641 -0.000254413 0)
(0.99774 -0.000242903 0)
(0.997834 -0.000231958 0)
(0.997924 -0.000221543 0)
(0.99801 -0.000211623 0)
(0.998093 -0.000202166 0)
(0.998171 -0.000193145 0)
(0.998246 -0.000184534 0)
(0.998318 -0.000176308 0)
(0.998387 -0.000168448 0)
(0.998452 -0.000160933 0)
(0.998515 -0.000153747 0)
(0.998575 -0.000146874 0)
(0.998632 -0.000140298 0)
(0.998687 -0.000134007 0)
(0.998739 -0.000127987 0)
(0.998788 -0.000122229 0)
(0.998836 -0.00011672 0)
(0.998881 -0.00011145 0)
(0.998925 -0.000106411 0)
(0.998966 -0.000101593 0)
(0.999006 -9.69866e-05 0)
(0.999043 -9.25842e-05 0)
(0.999079 -8.83777e-05 0)
(0.999114 -8.43592e-05 0)
(0.999147 -8.05213e-05 0)
(0.999178 -7.68567e-05 0)
(0.999208 -7.33585e-05 0)
(0.999236 -7.00197e-05 0)
(0.999263 -6.68339e-05 0)
(0.999289 -6.37947e-05 0)
(0.999314 -6.08959e-05 0)
(0.999338 -5.81316e-05 0)
(0.999361 -5.5496e-05 0)
(0.999382 -5.29836e-05 0)
(0.999403 -5.05891e-05 0)
(0.999422 -4.83074e-05 0)
(0.999441 -4.61336e-05 0)
(0.999459 -4.40629e-05 0)
(0.999476 -4.20909e-05 0)
(0.999493 -4.02132e-05 0)
(0.999508 -3.84256e-05 0)
(0.999523 -3.67244e-05 0)
(0.999537 -3.51055e-05 0)
(0.999551 -3.35655e-05 0)
(0.999564 -3.2101e-05 0)
(0.999577 -3.07085e-05 0)
(0.999589 -2.9385e-05 0)
(0.9996 -2.81274e-05 0)
(0.999611 -2.69329e-05 0)
(0.999622 -2.57987e-05 0)
(0.999632 -2.47222e-05 0)
(0.999641 -2.37009e-05 0)
(0.99965 -2.27322e-05 0)
(0.999659 -2.1814e-05 0)
(0.999668 -2.09439e-05 0)
(0.999676 -2.01197e-05 0)
(0.999684 -1.93395e-05 0)
(0.999691 -1.86012e-05 0)
(0.999699 -1.79029e-05 0)
(0.999706 -1.72427e-05 0)
(0.999712 -1.66187e-05 0)
(0.999719 -1.60293e-05 0)
(0.999725 -1.54727e-05 0)
(0.999731 -1.49473e-05 0)
(0.999737 -1.44515e-05 0)
(0.999743 -1.39838e-05 0)
(0.999748 -1.35426e-05 0)
(0.999753 -1.31265e-05 0)
(0.999759 -1.27341e-05 0)
(0.999764 -1.23639e-05 0)
(0.999768 -1.20147e-05 0)
(0.999773 -1.16851e-05 0)
(0.999778 -1.1374e-05 0)
(0.999782 -1.10799e-05 0)
(0.999787 -1.08019e-05 0)
(0.999791 -1.05387e-05 0)
(0.999795 -1.02892e-05 0)
(0.999799 -1.00523e-05 0)
(0.999803 -9.82697e-06 0)
(0.999807 -9.61225e-06 0)
(0.999811 -9.40715e-06 0)
(0.999814 -9.21074e-06 0)
(0.999818 -9.02214e-06 0)
(0.999822 -8.84052e-06 0)
(0.999825 -8.66507e-06 0)
(0.999829 -8.49504e-06 0)
(0.999832 -8.32973e-06 0)
(0.999835 -8.16849e-06 0)
(0.999838 -8.01069e-06 0)
(0.999842 -7.85579e-06 0)
(0.999845 -7.70329e-06 0)
(0.999848 -7.55272e-06 0)
(0.999851 -7.4037e-06 0)
(0.999854 -7.25589e-06 0)
(0.999857 -7.10901e-06 0)
(0.999859 -6.96286e-06 0)
(0.999862 -6.81727e-06 0)
(0.999865 -6.67215e-06 0)
(0.999867 -6.52745e-06 0)
(0.99987 -6.38319e-06 0)
(0.999873 -6.23941e-06 0)
(0.999875 -6.09621e-06 0)
(0.999877 -5.95369e-06 0)
(0.99988 -5.81198e-06 0)
(0.999882 -5.67121e-06 0)
(0.999884 -5.5315e-06 0)