/*--------------------------------*- C++ -*----------------------------------*\
| =========                 |                                                 |
| \\      /  F ield         | OpenFOAM: The Open Source CFD Toolbox           |
|  \\    /   O peration     | Version:  v2006                                 |
|   \\  /    A nd           | Website:  www.openfoam.com                      |
|    \\/     M anipulation  |                                                 |
\*---------------------------------------------------------------------------*/
FoamFile
{
    version     2.0;
    format      ascii;
    class       surfaceScalarField;
    location    "0.4";
    object      phi;
}
// * * * * * * * * * * * * * * * * * * * * * * * * * * * * * * * * * * * * * //

dimensions      [0 3 -1 0 0 0 0];
oriented        oriented;


internalField   nonuniform List<scalar> 
99450
(
-3.68443e-05
3.68443e-05
-6.54548e-05
2.86105e-05
-9.68381e-05
3.13833e-05
-0.00012889
3.20515e-05
-0.000159805
3.09156e-05
-0.00019079
3.09844e-05
-0.000220341
2.95516e-05
-0.000249644
2.93027e-05
-0.000277532
2.78883e-05
-0.000304672
2.71395e-05
-0.000330438
2.57662e-05
-0.000355036
2.45985e-05
-0.000378235
2.31988e-05
-0.000399994
2.17587e-05
-0.000420204
2.02102e-05
-0.000438788
1.85835e-05
-0.000455689
1.69014e-05
-0.00047081
1.51204e-05
-0.000484117
1.33078e-05
-0.000495519
1.14018e-05
-0.000504993
9.47343e-06
-0.000512474
7.48098e-06
-0.000517927
5.4537e-06
-0.000521287
3.35972e-06
-0.000522659
1.37174e-06
-0.000521884
-7.74333e-07
-0.000518948
-2.93646e-06
-0.00051399
-4.9578e-06
-0.000506865
-7.12493e-06
-0.000497601
-9.26461e-06
-0.00048621
-1.13903e-05
-0.000472664
-1.35464e-05
-0.000457038
-1.56261e-05
-0.000439329
-1.77091e-05
-0.000419555
-1.97739e-05
-0.000397744
-2.18109e-05
-0.000373927
-2.38171e-05
-0.000348137
-2.57894e-05
-0.000320413
-2.7724e-05
-0.000290796
-2.96176e-05
-0.000259328
-3.14673e-05
-0.000226059
-3.32697e-05
-0.00019104
-3.50184e-05
-0.000154342
-3.66982e-05
-0.00011596
-3.83823e-05
-7.60017e-05
-3.99581e-05
-3.45184e-05
-4.14833e-05
8.42174e-06
-4.29401e-05
5.2765e-05
-4.43433e-05
9.8445e-05
-4.56799e-05
0.000145394
-4.69486e-05
0.000193542
-4.8148e-05
0.000242818
-4.92767e-05
0.000293151
-5.03332e-05
0.000344468
-5.13162e-05
0.000396692
-5.22246e-05
0.00044975
-5.30572e-05
0.000503562
-5.38129e-05
0.000558053
-5.44908e-05
0.000613143
-5.50899e-05
0.000668753
-5.56095e-05
0.000724801
-5.60487e-05
0.000781208
-5.64071e-05
0.000837892
-5.66839e-05
0.000894771
-5.68786e-05
0.000951762
-5.69909e-05
0.00100878
-5.70203e-05
0.00106575
-5.69666e-05
0.00112258
-5.68296e-05
0.00117919
-5.6609e-05
0.00123549
-5.63048e-05
0.00129141
-5.59169e-05
0.00134685
-5.54452e-05
0.00140174
-5.48895e-05
0.00145599
-5.42494e-05
0.00150952
-5.35238e-05
0.00156223
-5.27114e-05
0.00161404
-5.18092e-05
0.00166485
-5.08091e-05
0.00171454
-4.96971e-05
0.001763
-4.84574e-05
0.00181008
-4.70826e-05
0.00185566
-4.55781e-05
0.00189962
-4.39586e-05
0.00194186
-4.22397e-05
0.00198229
-4.0432e-05
0.00202083
-3.85401e-05
0.0020574
-3.65661e-05
0.00209191
-3.45131e-05
0.0021243
-3.23865e-05
0.00215449
-3.01917e-05
0.00218242
-2.79333e-05
0.00220804
-2.56147e-05
0.00223128
-2.3239e-05
0.00225209
-2.08105e-05
0.00227042
-1.83328e-05
0.00228623
-1.58116e-05
0.00229948
-1.32528e-05
0.00231015
-1.06628e-05
0.0023182
-8.05457e-06
0.00232365
-5.4462e-06
0.00232651
-2.86126e-06
0.00232693
-4.20867e-07
0.00232449
2.44303e-06
0.00231938
5.10255e-06
0.00231174
7.64436e-06
0.00230157
1.0165e-05
0.00228888
1.26918e-05
0.00227366
1.52222e-05
0.00225591
1.77496e-05
0.00223564
2.02669e-05
0.00221288
2.27685e-05
0.00218763
2.52494e-05
0.00215992
2.77052e-05
0.00212979
3.01315e-05
0.00209727
3.25243e-05
0.00206239
3.48796e-05
0.00202519
3.71935e-05
0.00198573
3.94621e-05
0.00194405
4.16814e-05
0.0019002
4.38469e-05
0.00185425
4.59527e-05
0.00180626
4.79922e-05
0.00175629
4.99657e-05
0.00170441
5.1883e-05
0.00165067
5.37387e-05
0.00159514
5.55275e-05
0.0015379
5.72463e-05
0.001479
5.88927e-05
0.00141854
6.04654e-05
0.00135657
6.19629e-05
0.00129319
6.33843e-05
0.00122846
6.47289e-05
0.00116247
6.59961e-05
0.00109528
6.71855e-05
0.00102698
6.82969e-05
0.000957653
6.93303e-05
0.00088737
7.02826e-05
0.000816203
7.11669e-05
0.000744288
7.19152e-05
0.000671553
7.27353e-05
0.000598056
7.34967e-05
0.000524799
7.32569e-05
0.000449795
7.50045e-05
0.000375661
7.41339e-05
0.000301516
7.41447e-05
0.000224672
7.68438e-05
0.000153567
7.11052e-05
7.29304e-05
8.06367e-05
7.29304e-05
-3.68928e-05
7.37371e-05
-6.59957e-05
5.77134e-05
-9.75776e-05
6.29651e-05
-0.000130093
6.45673e-05
-0.000161135
6.1957e-05
-0.000192556
6.24057e-05
-0.000222227
5.92223e-05
-0.000251893
5.8969e-05
-0.000279896
5.58912e-05
-0.000307308
5.4552e-05
-0.000333204
5.16622e-05
-0.000357989
4.93827e-05
-0.000381306
4.65159e-05
-0.000403181
4.36345e-05
-0.000423473
4.05016e-05
-0.000442119
3.72294e-05
-0.000459053
3.38361e-05
-0.000474223
3.02904e-05
-0.000487523
2.66077e-05
-0.000498985
2.28635e-05
-0.000508479
1.89673e-05
-0.00051599
1.49918e-05
-0.000521483
1.09469e-05
-0.000524917
6.79361e-06
-0.000526227
2.68187e-06
-0.000525458
-1.54325e-06
-0.000522598
-5.79606e-06
-0.000517537
-1.00195e-05
-0.000510351
-1.43106e-05
-0.00050103
-1.85857e-05
-0.000489519
-2.29015e-05
-0.000476002
-2.70633e-05
-0.000460337
-3.12913e-05
-0.000442571
-3.54749e-05
-0.000422723
-3.96216e-05
-0.000400833
-4.37013e-05
-0.00037693
-4.77194e-05
-0.00035105
-5.16699e-05
-0.000323229
-5.55449e-05
-0.000293509
-5.93371e-05
-0.000261934
-6.30429e-05
-0.000228545
-6.66584e-05
-0.000193391
-7.0172e-05
-0.000156503
-7.3587e-05
-0.000118058
-7.68271e-05
-7.79837e-05
-8.00322e-05
-3.63725e-05
-8.30946e-05
6.71066e-06
-8.60232e-05
5.11991e-05
-8.88317e-05
9.70266e-05
-9.15074e-05
0.000144125
-9.40475e-05
0.000192426
-9.64488e-05
0.000241858
-9.87086e-05
0.000292349
-0.000100824
0.000343825
-0.000102792
0.000396212
-0.000104611
0.000449432
-0.000106278
0.000503411
-0.000107791
0.000558068
-0.000109149
0.000613327
-0.000110348
0.000669106
-0.000111388
0.000725325
-0.000112268
0.000781904
-0.000112986
0.00083876
-0.00011354
0.000895811
-0.00011393
0.000952976
-0.000114155
0.00101017
-0.000114214
0.00106731
-0.000114107
0.00112431
-0.000113833
0.0011811
-0.000113392
0.00123758
-0.000112784
0.00129367
-0.000112008
0.00134929
-0.000111064
0.00140435
-0.000109954
0.00145878
-0.000108677
0.00151249
-0.000107234
0.0015654
-0.000105626
0.00161745
-0.000103855
0.00166856
-0.000101923
0.0017187
-9.98311e-05
0.00176782
-9.75799e-05
0.00181591
-9.51706e-05
0.00186293
-9.26044e-05
0.00190886
-8.98828e-05
0.00195362
-8.7007e-05
0.00199717
-8.39791e-05
0.00203943
-8.08012e-05
0.00208034
-7.74759e-05
0.00211984
-7.40061e-05
0.00215784
-7.03945e-05
0.0021943
-6.66444e-05
0.00222912
-6.27602e-05
0.00226225
-5.87442e-05
0.00229361
-5.46004e-05
0.00232314
-5.03323e-05
0.00235075
-4.59446e-05
0.00237638
-4.14415e-05
0.00239995
-3.68298e-05
0.00242141
-3.21156e-05
0.00244066
-2.73025e-05
0.00245761
-2.2397e-05
0.00247215
-1.741e-05
0.00248406
-1.23311e-05
0.00249356
-7.0475e-06
0.00250021
-1.55161e-06
0.00250452
3.33547e-06
0.00250605
8.63347e-06
0.00250471
1.40361e-05
0.00250045
1.94744e-05
0.00249327
2.49329e-05
0.00248313
3.04062e-05
0.00247001
3.58884e-05
0.00245389
4.13727e-05
0.00243474
4.68514e-05
0.00241256
5.23162e-05
0.00238732
5.77589e-05
0.00235903
6.31706e-05
0.00232768
6.85425e-05
0.00229328
7.38657e-05
0.00225583
7.91313e-05
0.00221534
8.43308e-05
0.00217184
8.94537e-05
0.00212535
9.44879e-05
0.00207589
9.94267e-05
0.00202351
0.000104264
0.00196825
0.000108991
0.00191018
0.000113599
0.00184935
0.00011808
0.00178582
0.000122425
0.00171966
0.000126627
0.00165094
0.000130679
0.00157975
0.000134572
0.00150618
0.000138301
0.00143032
0.000141858
0.00135227
0.000145237
0.00127213
0.000148433
0.00119002
0.00015144
0.00110605
0.000154251
0.00102035
0.000156869
0.000933004
0.000159261
0.000844188
0.000161552
0.000754375
0.000163309
0.000662288
0.000165343
0.000570626
0.000166667
0.000476534
0.000168226
0.00038155
0.000169129
0.000288011
0.000170384
0.000188643
0.000170473
9.78676e-05
0.000171412
0.000170798
-3.74901e-05
0.000111227
-6.68893e-05
8.71127e-05
-9.88966e-05
9.49724e-05
-0.000131794
9.74652e-05
-0.000163312
9.34744e-05
-0.000195103
9.41965e-05
-0.000225248
8.93674e-05
-0.000255289
8.90099e-05
-0.000283735
8.4337e-05
-0.000311509
8.23262e-05
-0.000337799
7.79521e-05
-0.000362936
7.452e-05
-0.00038662
7.02002e-05
-0.0004088
6.58141e-05
-0.000429424
6.11261e-05
-0.000448388
5.61928e-05
-0.00046565
5.10987e-05
-0.00048107
4.57095e-05
-0.000494646
4.01843e-05
-0.000506296
3.45138e-05
-0.000515977
2.86481e-05
-0.000523647
2.26611e-05
-0.000529223
1.65229e-05
-0.000532804
1.03751e-05
-0.000534234
4.11135e-06
-0.000533512
-2.26532e-06
-0.000530689
-8.61858e-06
-0.000525705
-1.50032e-05
-0.000518475
-2.15409e-05
-0.000509114
-2.79462e-05
-0.0004977
-3.43156e-05
-0.000484058
-4.07053e-05
-0.000468308
-4.70416e-05
-0.000450463
-5.33195e-05
-0.000430483
-5.96015e-05
-0.000408464
-6.57209e-05
-0.000384425
-7.17583e-05
-0.000358403
-7.76924e-05
-0.000330434
-8.35136e-05
-0.000300559
-8.92126e-05
-0.000268817
-9.47844e-05
-0.00023524
-0.000100236
-0.000199908
-0.000105504
-0.000162862
-0.000110633
-0.00012412
-0.000115568
-8.38167e-05
-0.000120336
-4.19675e-05
-0.000124944
1.36187e-06
-0.000129353
4.61024e-05
-0.000133572
9.21879e-05
-0.000137593
0.000139551
-0.00014141
0.000188121
-0.000145019
0.000237827
-0.000148415
0.000288598
-0.000151594
0.000340358
-0.000154553
0.000393033
-0.000157286
0.000446547
-0.000159792
0.000500821
-0.000162066
0.000555779
-0.000164106
0.00061134
-0.000165909
0.000667425
-0.000167473
0.000723952
-0.000168796
0.000780841
-0.000169875
0.00083801
-0.000170709
0.000895375
-0.000171296
0.000952855
-0.000171635
0.00101037
-0.000171725
0.00106782
-0.000171565
0.00112514
-0.000171155
0.00118225
-0.000170493
0.00123904
-0.000169581
0.00129545
-0.000168417
0.00135139
-0.000167002
0.00140677
-0.000165336
0.00146152
-0.00016342
0.00151554
-0.000161255
0.00156875
-0.000158841
0.00162107
-0.000156177
0.00167242
-0.000153267
0.0017227
-0.000150114
0.00177185
-0.000146725
0.00181978
-0.000143103
0.00186643
-0.000139252
0.00191172
-0.000135171
0.00195557
-0.000130861
0.00199791
-0.000126324
0.00203868
-0.000121564
0.00207779
-0.000116586
0.00211518
-0.000111396
0.00215078
-0.000105996
0.00218453
-0.000100393
0.00221636
-9.45895e-05
0.00224621
-8.85952e-05
0.00227402
-8.24148e-05
0.00229975
-7.60563e-05
0.00232333
-6.9526e-05
0.00234472
-6.28319e-05
0.00236386
-5.59763e-05
0.00238072
-4.89704e-05
0.00239524
-4.18281e-05
0.00240739
-3.45457e-05
0.00241713
-2.71434e-05
0.00242441
-1.96155e-05
0.00242934
-1.19814e-05
0.00243207
-4.27697e-06
0.00243162
3.7882e-06
0.00242857
1.16822e-05
0.00242297
1.96313e-05
0.00241478
2.76631e-05
0.00240396
3.57609e-05
0.00239046
4.39061e-05
0.00237426
5.20833e-05
0.00235536
6.02791e-05
0.00233373
6.84808e-05
0.00230937
7.66759e-05
0.00228227
8.48523e-05
0.00225245
9.29977e-05
0.00221989
0.000101099
0.00218461
0.000109143
0.00214663
0.000117117
0.00210595
0.000125008
0.0020626
0.000132801
0.00201661
0.000140483
0.00196799
0.000148041
0.00191679
0.000155462
0.00186305
0.000162734
0.0018068
0.000169843
0.00174811
0.000176776
0.00168701
0.000183519
0.00162358
0.00019006
0.00155787
0.000196386
0.00148996
0.000202483
0.00141992
0.000208341
0.00134783
0.000213947
0.00127378
0.000219288
0.00119786
0.000224355
0.00112016
0.000229137
0.00104079
0.000233622
0.000959855
0.000237807
0.000877463
0.000241653
0.000793707
0.000245308
0.000708815
0.000248201
0.000622672
0.000251487
0.000535659
0.000253679
0.000447868
0.000256017
0.0003589
0.000258096
0.000270357
0.000258927
0.000179658
0.000261172
9.07818e-05
0.000260288
0.00026158
-3.8278e-05
0.000149505
-6.83312e-05
0.000117166
-0.000101052
0.000127693
-0.000134659
0.000131072
-0.000166876
0.000125691
-0.00019932
0.000126641
-0.000230103
0.00012015
-0.000260825
0.000119732
-0.000289891
0.000113403
-0.000318298
0.000110733
-0.000345177
0.000104832
-0.000370834
0.000100177
-0.000395026
9.43923e-05
-0.000417682
8.84703e-05
-0.0004388
8.22436e-05
-0.000458183
7.55759e-05
-0.000475785
6.87003e-05
-0.000491572
6.14964e-05
-0.000505471
5.40841e-05
-0.000517421
4.64631e-05
-0.000527387
3.86148e-05
-0.000535239
3.05131e-05
-0.000541075
2.23589e-05
-0.000544747
1.40467e-05
-0.000546298
5.66253e-06
-0.000545688
-2.87541e-06
-0.000542849
-1.14578e-05
-0.000537764
-2.00878e-05
-0.000530697
-2.86085e-05
-0.000521391
-3.72522e-05
-0.00050987
-4.58364e-05
-0.000496117
-5.44583e-05
-0.000480216
-6.29428e-05
-0.000462165
-7.13703e-05
-0.000442123
-7.96431e-05
-0.000419962
-8.78823e-05
-0.000395741
-9.59794e-05
-0.0003695
-0.000103933
-0.000341279
-0.000111735
-0.000311114
-0.000119377
-0.000279074
-0.000126825
-0.000245258
-0.000134052
-0.000209667
-0.000141095
-0.000172274
-0.000148026
-0.000133222
-0.00015462
-9.25548e-05
-0.000161003
-5.03596e-05
-0.000167139
-6.66519e-06
-0.000173047
3.8453e-05
-0.00017869
8.49258e-05
-0.000184066
0.000132685
-0.000189169
0.00018166
-0.000193994
0.00023178
-0.000198535
0.00028297
-0.000202785
0.000335158
-0.000206741
0.000388268
-0.000210395
0.000442221
-0.000213745
0.000496942
-0.000216786
0.00055235
-0.000219514
0.000608366
-0.000221926
0.00066491
-0.000224017
0.000721901
-0.000225786
0.000779257
-0.00022723
0.000836894
-0.000228346
0.000894732
-0.000229133
0.000952685
-0.000229588
0.00101067
-0.000229711
0.00106861
-0.0002295
0.0011264
-0.000228954
0.00118398
-0.000228073
0.00124126
-0.000226856
0.00129815
-0.000225304
0.00135456
-0.000223416
0.00141042
-0.000221194
0.00146564
-0.000218637
0.00152013
-0.000215748
0.00157382
-0.000212528
0.00162662
-0.00020898
0.00167846
-0.000205105
0.00172925
-0.000200907
0.00177891
-0.00019639
0.00182737
-0.000191555
0.00187452
-0.000186407
0.0019203
-0.000180948
0.00196462
-0.000175183
0.00200741
-0.000169115
0.0020486
-0.00016275
0.00208811
-0.000156095
0.00212586
-0.000149151
0.0021618
-0.000141931
0.00219584
-0.000134437
0.00222793
-0.000126676
0.002258
-0.000118662
0.00228598
-0.000110396
0.00231181
-0.000101889
0.00233543
-9.31472e-05
0.00235678
-8.41858e-05
0.00237582
-7.50106e-05
0.00239248
-6.56329e-05
0.0024067
-5.60435e-05
0.00241846
-4.63113e-05
0.00242768
-3.63642e-05
0.00243432
-2.62563e-05
0.00243835
-1.60036e-05
0.00243969
-5.62645e-06
0.00243869
4.79495e-06
0.00243494
1.54298e-05
0.00242843
2.61422e-05
0.00241917
3.69261e-05
0.00240715
4.77739e-05
0.00239239
5.86734e-05
0.00237486
6.96104e-05
0.00235457
8.05691e-05
0.00233152
9.15338e-05
0.0023057
0.000102488
0.00227714
0.000113416
0.00224584
0.000124301
0.00221181
0.000135125
0.00217508
0.000145872
0.00213567
0.000156524
0.00209362
0.000167065
0.00204894
0.000177475
0.00200169
0.000187737
0.0019519
0.000197835
0.00189961
0.000207749
0.00184488
0.000217464
0.00178776
0.000226962
0.00172831
0.000236224
0.0016666
0.000245234
0.00160268
0.000253975
0.00153664
0.000262429
0.00146854
0.00027058
0.00139847
0.000278411
0.00132651
0.000285907
0.00125275
0.000293052
0.00117727
0.000299831
0.00110018
0.000306229
0.00102157
0.000312232
0.000941542
0.000317834
0.000860208
0.000322987
0.000777682
0.000327834
0.000693944
0.000331939
0.000609561
0.000335871
0.000523758
0.000339482
0.000437945
0.00034183
0.000350836
0.000345205
0.000263734
0.000346029
0.000176204
0.000348702
8.78597e-05
0.000348632
0.000349439
-3.93179e-05
0.000188823
-7.02874e-05
0.000148135
-0.00010396
0.000161365
-0.000138528
0.000165641
-0.00017169
0.000158853
-0.000205093
0.000160044
-0.000236754
0.000151811
-0.000268308
0.000151286
-0.000298229
0.000143324
-0.000327358
0.000139862
-0.000355007
0.000132481
-0.00038145
0.00012662
-0.000406353
0.000119295
-0.000429709
0.000111826
-0.000451347
0.000103881
-0.000471333
9.55625e-05
-0.000489463
8.68299e-05
-0.000505724
7.77576e-05
-0.000520107
6.84666e-05
-0.000532394
5.87505e-05
-0.000542626
4.88468e-05
-0.000550854
3.87405e-05
-0.000556896
2.84017e-05
-0.000560809
1.79592e-05
-0.000562496
7.34977e-06
-0.000561982
-3.38976e-06
-0.000559279
-1.41603e-05
-0.000554385
-2.49814e-05
-0.000547156
-3.58378e-05
-0.000537717
-4.66915e-05
-0.000526037
-5.75167e-05
-0.000512281
-6.82142e-05
-0.000496308
-7.8916e-05
-0.000478183
-8.94948e-05
-0.000457838
-9.99877e-05
-0.000435402
-0.000110319
-0.000410901
-0.00012048
-0.00038437
-0.000130464
-0.000355854
-0.000140251
-0.000325356
-0.000149875
-0.000292954
-0.000159227
-0.000258667
-0.000168339
-0.000222543
-0.000177219
-0.000184829
-0.00018574
-0.000145385
-0.000194064
-0.00010426
-0.000202129
-6.15701e-05
-0.000209829
-1.74034e-05
-0.000217214
2.82218e-05
-0.000224316
7.52125e-05
-0.000231056
0.000123501
-0.000237458
0.000173018
-0.000243511
0.00022369
-0.000249207
0.000275443
-0.000254539
0.000328203
-0.0002595
0.000381892
-0.000264085
0.000436434
-0.000268287
0.00049175
-0.000272102
0.000547761
-0.000275525
0.000604386
-0.000278551
0.000661544
-0.000281175
0.000719154
-0.000283396
0.000777133
-0.000285209
0.000835398
-0.000286611
0.000893865
-0.000287601
0.000952452
-0.000288175
0.00101107
-0.000288332
0.00106964
-0.000288071
0.00112808
-0.000287391
0.0011863
-0.000286291
0.00124421
-0.00028477
0.00130174
-0.000282829
0.00135879
-0.000280467
0.00141528
-0.000277687
0.00147113
-0.000274488
0.00152626
-0.000270873
0.00158057
-0.000266843
0.00163399
-0.000262401
0.00168644
-0.000257549
0.00173782
-0.000252291
0.00178806
-0.000246631
0.00183708
-0.000240574
0.0018848
-0.000234124
0.00193113
-0.000227285
0.00197601
-0.000220062
0.00201936
-0.000212462
0.0020611
-0.000204488
0.00210115
-0.000196149
0.00213945
-0.000187451
0.00217592
-0.000178403
0.0022105
-0.000169015
0.00224311
-0.000159288
0.00227369
-0.000149241
0.00230217
-0.000138877
0.0023285
-0.00012821
0.0023526
-0.00011725
0.00237442
-0.000106009
0.00239391
-9.44992e-05
0.00241101
-8.27337e-05
0.00242568
-7.07168e-05
0.00243785
-5.84728e-05
0.00244749
-4.60044e-05
0.00245456
-3.3334e-05
0.00245907
-2.05062e-05
0.00246089
-7.45443e-06
0.00245997
5.71472e-06
0.00245638
1.90283e-05
0.00245005
3.24642e-05
0.00244098
4.60034e-05
0.00242912
5.96277e-05
0.00241448
7.33185e-05
0.00239703
8.70568e-05
0.00237678
0.000100823
0.00235371
0.000114597
0.00232784
0.000128358
0.00229917
0.000142087
0.00226771
0.00015576
0.00223348
0.000169358
0.00219649
0.000182859
0.00215678
0.00019624
0.00211436
0.00020948
0.00206928
0.000222556
0.00202157
0.000235446
0.00197128
0.000248128
0.00191845
0.000260579
0.00186314
0.000272777
0.0018054
0.000284701
0.00174529
0.000296329
0.00168289
0.000307637
0.00161826
0.000318606
0.00155148
0.000329213
0.00148262
0.000339438
0.00141177
0.00034926
0.00133902
0.00035866
0.00126445
0.000367618
0.00118817
0.000376115
0.00111026
0.000384135
0.00103084
0.000391657
0.000949997
0.000398674
0.00086785
0.000405134
0.000784519
0.000411165
0.000700007
0.000416451
0.00061478
0.000421097
0.000528278
0.000425984
0.00044159
0.000428517
0.000353764
0.000433031
0.000265837
0.000433956
0.000177489
0.00043705
8.85397e-05
0.000437582
0.000437979
-4.06671e-05
0.00022949
-7.27828e-05
0.000180251
-0.00010765
0.000196233
-0.000143432
0.000201422
-0.000177723
0.000193144
-0.000212304
0.000194625
-0.000245112
0.000184619
-0.000277721
0.000183894
-0.000308709
0.000174312
-0.000338888
0.000170041
-0.000367522
0.000161116
-0.000394867
0.000153965
-0.000420649
0.000145078
-0.000444827
0.000136003
-0.000467231
0.000126285
-0.000487951
0.000116283
-0.000506721
0.0001056
-0.000523618
9.46546e-05
-0.00053843
8.32783e-05
-0.000551252
7.15728e-05
-0.00056193
5.95243e-05
-0.000570485
4.72961e-05
-0.000576841
3.4757e-05
-0.000581001
2.21199e-05
-0.000582895
9.2434e-06
-0.00058255
-3.73502e-06
-0.000579899
-1.68113e-05
-0.000574974
-2.99063e-05
-0.000567829
-4.2983e-05
-0.00055837
-5.61505e-05
-0.000546668
-6.92184e-05
-0.000532663
-8.22189e-05
-0.000516437
-9.51418e-05
-0.000497986
-0.000107946
-0.000477419
-0.000120554
-0.000454712
-0.000133026
-0.000429879
-0.000145313
-0.00040296
-0.000157384
-0.000373992
-0.000169219
-0.000343116
-0.00018075
-0.000310297
-0.000192045
-0.000275585
-0.000203051
-0.000239091
-0.000213714
-0.000200674
-0.000224157
-0.000160578
-0.00023416
-0.000118929
-0.000243778
-7.56641e-05
-0.000253094
-3.08524e-05
-0.000262025
1.53885e-05
-0.000270557
6.30251e-05
-0.000278693
0.000111978
-0.000286411
0.000162174
-0.000293707
0.000213539
-0.000300571
0.000265998
-0.000306997
0.000319474
-0.000312977
0.000373892
-0.000318502
0.000429172
-0.000323567
0.000485235
-0.000328165
0.000542001
-0.000332291
0.000599389
-0.000335938
0.000657317
-0.000339103
0.000715702
-0.000341782
0.000774462
-0.000343969
0.000833513
-0.000345662
0.000892771
-0.000346858
0.000952151
-0.000347555
0.00101157
-0.00034775
0.00107094
-0.000347441
0.00113017
-0.000346627
0.00118919
-0.000345308
0.00124791
-0.000343483
0.00130623
-0.000341153
0.00136408
-0.000338316
0.00142137
-0.000334975
0.00147801
-0.000331131
0.00153392
-0.000326785
0.00158902
-0.000321941
0.00164322
-0.0003166
0.00169644
-0.000310766
0.00174859
-0.000304444
0.0017996
-0.000297637
0.00184937
-0.000290351
0.00189784
-0.00028259
0.00194491
-0.00027436
0.00199052
-0.000265668
0.00203458
-0.000256519
0.00207701
-0.000246922
0.00211775
-0.000236884
0.00215671
-0.000226415
0.00219383
-0.000215522
0.00222903
-0.000204216
0.00226225
-0.000192507
0.00229341
-0.000180407
0.00232247
-0.000167928
0.00234934
-0.000155083
0.00237397
-0.000141883
0.00239631
-0.000128343
0.00241628
-0.000114477
0.00243385
-0.0001003
0.00244896
-8.58244e-05
0.00246155
-7.1069e-05
0.0024716
-5.60524e-05
0.00247906
-4.07892e-05
0.00248385
-2.53016e-05
0.002486
-9.5986e-06
0.00248543
6.28276e-06
0.00248212
2.23364e-05
0.00247605
3.8538e-05
0.00246718
5.48656e-05
0.00245551
7.12974e-05
0.00244102
8.7811e-05
0.00242369
0.000104383
0.00240353
0.000120991
0.00238051
0.00013761
0.00235466
0.000154215
0.00232596
0.000170781
0.00229444
0.000187284
0.0022601
0.000203696
0.00222297
0.000219992
0.00218306
0.000236145
0.00214042
0.000252129
0.00209506
0.000267916
0.00204702
0.000283481
0.00199635
0.000298794
0.0019431
0.00031383
0.00188732
0.000328562
0.00182906
0.000342962
0.00176838
0.000357004
0.00170536
0.000370661
0.00164006
0.000383908
0.00157255
0.000396718
0.00150292
0.000409066
0.00143126
0.000420928
0.00135764
0.000432279
0.00128216
0.000443096
0.00120492
0.000453356
0.00112601
0.000463039
0.00104555
0.000472121
0.000963632
0.000480591
0.000880371
0.000488395
0.000795891
0.000495645
0.000710229
0.000502114
0.000623748
0.000507578
0.000536084
0.000513648
0.000448079
0.000516522
0.000358995
0.000522116
0.000269804
0.000523147
0.00017999
0.000526863
8.9943e-05
0.000527629
0.000527922
-4.22732e-05
0.000271763
-7.57896e-05
0.000213768
-0.000112094
0.000232537
-0.000149368
0.000238696
-0.000185114
0.000228891
-0.00022113
0.000230641
-0.000255277
0.000218767
-0.000289171
0.000217788
-0.000321493
0.000206634
-0.000352962
0.000201509
-0.000382709
0.000190864
-0.000411141
0.000182396
-0.000437979
0.000171916
-0.000463127
0.000161151
-0.000486553
0.000149711
-0.000508016
0.000137745
-0.000527647
0.000125231
-0.000545233
0.000112241
-0.000560738
9.87832e-05
-0.00057414
8.49745e-05
-0.00058532
7.07041e-05
-0.000594269
5.6245e-05
-0.000601026
4.15139e-05
-0.000605438
2.65322e-05
-0.000607574
1.13797e-05
-0.000607432
-3.87726e-06
-0.000604867
-1.93763e-05
-0.000599984
-3.47886e-05
-0.000592723
-5.02442e-05
-0.000583249
-6.56251e-05
-0.000571431
-8.10361e-05
-0.000557285
-9.6365e-05
-0.000540858
-0.000111569
-0.000522189
-0.000126615
-0.000501269
-0.000141474
-0.00047816
-0.000156135
-0.000452907
-0.000170566
-0.000425552
-0.000184739
-0.000396144
-0.000198627
-0.000364681
-0.000212214
-0.00033127
-0.000225456
-0.00029589
-0.000238431
-0.000258619
-0.000250985
-0.000219732
-0.000263044
-0.00017906
-0.000274832
-0.000136656
-0.000286182
-9.2664e-05
-0.000297086
-4.71638e-05
-0.000307526
-1.0411e-07
-0.000317616
4.83288e-05
-0.000327126
9.80866e-05
-0.000336169
0.000149102
-0.000344722
0.000201303
-0.000352772
0.000254612
-0.000360307
0.000308953
-0.000367318
0.000364248
-0.000373797
0.000420417
-0.000379736
0.000477379
-0.000385128
0.000535055
-0.000389966
0.000593362
-0.000394245
0.000652216
-0.000397958
0.000711536
-0.000401101
0.000771237
-0.00040367
0.000831234
-0.000405659
0.000891443
-0.000407067
0.000951778
-0.00040789
0.00101215
-0.000408125
0.00107248
-0.000407771
0.00113268
-0.000406826
0.00119266
-0.000405289
0.00125234
-0.00040316
0.00131163
-0.000400438
0.00137043
-0.000397125
0.00142868
-0.000393221
0.00148628
-0.000388728
0.00154314
-0.000383647
0.00159918
-0.000377983
0.00165432
-0.000371737
0.00170846
-0.000364914
0.00176154
-0.000357518
0.00181346
-0.000349554
0.00186413
-0.000341027
0.00191349
-0.000331945
0.00196144
-0.000322313
0.00200791
-0.000312138
0.00205282
-0.000301429
0.00209609
-0.000290193
0.00213765
-0.000278441
0.00217741
-0.000266182
0.00221532
-0.000253426
0.00225129
-0.000240185
0.00228525
-0.000226472
0.00231714
-0.0002123
0.0023469
-0.000197681
0.00237445
-0.000182631
0.00239973
-0.000167165
0.00242268
-0.000151298
0.00244325
-0.000135047
0.00246138
-0.00011843
0.00247702
-0.000101463
0.00249012
-8.41681e-05
0.00250063
-6.65621e-05
0.00250851
-4.86669e-05
0.00251371
-3.05036e-05
0.00251621
-1.20942e-05
0.00251595
6.53607e-06
0.00251292
2.53666e-05
0.00250709
4.43727e-05
0.00249842
6.3529e-05
0.00248691
8.28099e-05
0.00247253
0.000102189
0.00245528
0.000121639
0.00243514
0.000141132
0.00241211
0.000160641
0.00238619
0.000180136
0.00235738
0.000199587
0.0023257
0.000218965
0.00229115
0.00023824
0.00225377
0.00025738
0.00221356
0.000276355
0.00217055
0.000295132
0.00212479
0.000313681
0.0020763
0.00033197
0.00202513
0.000349966
0.00197132
0.000367637
0.00191493
0.000384953
0.00185601
0.00040188
0.00179463
0.000418388
0.00173084
0.000434445
0.00166473
0.00045002
0.00159637
0.000465083
0.00152583
0.000479604
0.00145321
0.000493553
0.00137858
0.000506903
0.00130205
0.000519625
0.00122372
0.000531693
0.00114367
0.000543082
0.00106203
0.000553765
0.000978891
0.000563728
0.000894373
0.000572913
0.000808602
0.000581416
0.000721625
0.00058909
0.000633775
0.000595428
0.000544755
0.000602669
0.00045533
0.000605946
0.000364824
0.000612623
0.000274212
0.000613759
0.000182889
0.000618186
9.14631e-05
0.000619055
0.000619385
-4.42139e-05
0.000315977
-7.93448e-05
0.000248898
-0.000117379
0.00027057
-0.000156415
0.000277732
-0.00019391
0.000266386
-0.000231564
0.000268295
-0.000267363
0.000254566
-0.000302912
0.000253337
-0.000336636
0.000240358
-0.000369472
0.000234344
-0.00040067
0.000222063
-0.000430466
0.000212192
-0.000458493
0.000199943
-0.000484752
0.00018741
-0.00050934
0.0001743
-0.000531822
0.000160228
-0.00055243
0.000145838
-0.000570797
0.000130609
-0.000587038
0.000115024
-0.000601038
9.89747e-05
-0.000612875
8.25411e-05
-0.000622358
6.57278e-05
-0.000629539
4.86952e-05
-0.000634296
3.12891e-05
-0.000636666
1.37497e-05
-0.000636581
-3.96208e-06
-0.000634238
-2.17193e-05
-0.000629435
-3.95917e-05
-0.000622221
-5.7459e-05
-0.000612556
-7.52895e-05
-0.000600555
-9.30369e-05
-0.00058623
-0.00011069
-0.000569512
-0.000128287
-0.000550496
-0.000145631
-0.000529198
-0.000162772
-0.000505653
-0.00017968
-0.000479909
-0.00019631
-0.000452007
-0.000212641
-0.000422022
-0.000228612
-0.000389892
-0.000244344
-0.000355757
-0.000259591
-0.000319801
-0.000274386
-0.000281951
-0.000288835
-0.000242179
-0.000302815
-0.00020065
-0.000316361
-0.00015743
-0.000329402
-0.000112559
-0.000341957
-6.60483e-05
-0.000354036
-1.82127e-05
-0.000365452
3.11074e-05
-0.000376446
8.17978e-05
-0.000386859
0.000133773
-0.000396697
0.000186953
-0.000405952
0.00024126
-0.000414614
0.000296614
-0.000422673
0.000352937
-0.00043012
0.000410148
-0.000436947
0.000468165
-0.000443145
0.000526906
-0.000448708
0.000586289
-0.000453628
0.000646229
-0.000457899
0.000706643
-0.000461515
0.000767445
-0.000464472
0.00082855
-0.000466765
0.000889872
-0.000468389
0.000951325
-0.000469343
0.00101282
-0.000469623
0.00107428
-0.000469226
0.0011356
-0.000468151
0.00119671
-0.000466397
0.00125751
-0.000463964
0.00131793
-0.00046085
0.00137786
-0.000457058
0.00143723
-0.000452588
0.00149594
-0.000447441
0.00155391
-0.000441621
0.00161106
-0.00043513
0.0016673
-0.000427972
0.00172253
-0.000420151
0.00177669
-0.000411672
0.00182968
-0.00040254
0.00188141
-0.000392763
0.00193181
-0.000382346
0.0019808
-0.000371298
0.00202828
-0.000359625
0.00207419
-0.000347339
0.00211845
-0.000334447
0.00216097
-0.000320961
0.00220168
-0.000306891
0.0022405
-0.000292251
0.00227737
-0.000277053
0.00231221
-0.00026131
0.00234495
-0.000245038
0.00237552
-0.000228253
0.00240386
-0.00021097
0.0024299
-0.000193207
0.00245358
-0.000174983
0.00247485
-0.000156315
0.00249364
-0.000137224
0.00250991
-0.00011773
0.0025236
-9.7855e-05
0.00253466
-7.76219e-05
0.00254305
-5.7054e-05
0.00254871
-3.61727e-05
0.00255163
-1.501e-05
0.00255176
6.41071e-06
0.00254906
2.80649e-05
0.00254351
4.99236e-05
0.00253508
7.19579e-05
0.00252375
9.41383e-05
0.0025095
0.000116434
0.00249233
0.000138815
0.00247221
0.000161248
0.00244915
0.000183702
0.00242314
0.000206142
0.0023942
0.000228535
0.00236231
0.000250847
0.00232751
0.000273042
0.00228981
0.000295086
0.00224922
0.000316941
0.00220578
0.000338573
0.00215952
0.000359943
0.00211047
0.000381016
0.00205868
0.000401755
0.0020042
0.000422122
0.00194707
0.000442081
0.00188735
0.000461595
0.00182511
0.000480628
0.00176042
0.000499142
0.00169333
0.000517103
0.00162394
0.000534475
0.00155232
0.000551224
0.00147856
0.000567315
0.00140275
0.000582715
0.00132498
0.000597393
0.00124535
0.000611318
0.00116398
0.00062446
0.00108095
0.000636788
0.000996396
0.000648285
0.000910419
0.00065889
0.000823152
0.000668683
0.000734652
0.00067759
0.000645236
0.000684844
0.00055464
0.000693265
0.000463598
0.000696988
0.000371467
0.000704754
0.000279215
0.000706011
0.000186227
0.000711175
9.31525e-05
0.000712129
0.000712538
-4.64782e-05
0.000362455
-8.35287e-05
0.000285949
-0.00012358
0.000310622
-0.000164703
0.000318855
-0.000204053
0.000305737
-0.000243636
0.000307879
-0.000281405
0.000292335
-0.000318769
0.0002907
-0.000354276