/*--------------------------------*- C++ -*----------------------------------*\
| =========                 |                                                 |
| \\      /  F ield         | OpenFOAM: The Open Source CFD Toolbox           |
|  \\    /   O peration     | Version:  v2006                                 |
|   \\  /    A nd           | Website:  www.openfoam.com                      |
|    \\/     M anipulation  |                                                 |
\*---------------------------------------------------------------------------*/
FoamFile
{
    version     2.0;
    format      ascii;
    class       volScalarField;
    location    "0";
    object      p;
}
// * * * * * * * * * * * * * * * * * * * * * * * * * * * * * * * * * * * * * //

dimensions      [1 -1 -2 0 0 0 0];


internalField   nonuniform List<scalar> 
67500
(
4.71348
3.97313
3.04748
2.01674
0.875159
1.05158
9.50859
7.14706
-9.75227
-10.4402
-8.34082
-7.66666
-7.03667
-4.89277
-4.35864
-4.78637
-4.52657
-2.81288
-0.791166
0.54748
1.19574
1.62534
1.99687
2.22025
2.34787
2.43895
2.43589
2.2652
2.05686
1.96357
2.004
2.15748
2.37077
2.58301
2.7355
2.79254
2.75209
2.63772
2.48492
2.32342
2.17023
2.02988
1.89847
1.77077
1.64771
1.54013
1.46445
1.43474
1.45729
1.5297
1.6418
1.78002
1.93319
2.09546
2.26443
2.43535
2.58203
2.62998
2.5447
2.43217
2.36484
2.35228
2.39637
2.488
2.60236
2.70074
2.74654
2.75482
2.77608
2.83534
2.93654
3.07811
3.25026
3.43379
3.60334
3.74294
3.86524
3.992
4.12863
4.26921
4.40575
4.53593
4.66574
4.79758
4.92506
5.04216
5.14834
5.24488
5.33046
5.40261
5.46048
5.50393
5.53239
5.54574
5.54486
5.53083
5.50448
5.46659
5.41788
5.35891
5.29027
5.21264
5.12673
5.03333
4.93323
4.82722
4.71606
4.60051
4.48128
4.35908
4.23456
4.10837
3.98111
3.85333
3.72556
3.59826
3.47186
3.34676
3.22329
3.10178
2.98249
2.86564
2.75145
2.64007
2.53163
2.42625
2.324
2.22495
2.12914
2.03658
1.94729
1.86126
1.77845
1.69882
1.62232
1.54887
1.47838
1.41078
1.34597
1.28382
1.22426
1.16715
1.11241
1.05992
1.00958
0.961294
0.914971
0.870516
0.827844
0.786871
0.747516
0.709703
0.673358
0.63841
0.604793
0.572442
0.541296
0.511296
0.482388
0.454518
0.427638
0.401699
0.376657
0.35247
0.329096
0.306497
0.284634
0.263473
0.242979
0.223119
0.203862
0.185178
0.167039
0.149419
0.132294
0.115639
0.0994352
0.0836633
0.0683068
0.0533518
0.0387863
0.0246011
0.0107895
-0.00265299
-0.015728
-0.0284349
-0.0407707
-0.0527302
-0.0643062
-0.0754898
-0.0862707
-0.0966375
-0.106578
-0.116081
-0.125133
-0.133723
-0.14184
-0.149476
-0.156623
-0.163275
-0.16943
-0.175086
-0.180245
-0.184911
-0.189091
-0.192793
-0.19603
-0.198813
-0.201159
-0.203084
-0.204607
-0.205745
-0.206521
-0.206953
-0.207063
-0.206872
-0.2064
-0.20567
-0.2047
-0.20351
-0.20212
-0.200546
-0.198808
-0.196921
-0.1949
-0.192761
-0.190517
-0.18818
-0.185763
-0.183276
-0.180729
-0.178133
-0.175495
-0.172824
-0.170126
-0.167409
-0.164678
-0.161939
-0.159197
-0.156457
-0.153723
-0.150999
-0.148288
-0.145594
-0.142919
-0.140266
-0.137637
-0.135035
-0.132462
-0.12992
-0.12741
-0.124933
-0.122492
-0.120087
-0.11772
-0.115391
-0.113102
-0.110853
-0.108646
-0.10648
-0.104356
-0.102276
-0.100238
-0.0982442
-0.0962943
-0.0943885
-0.0925269
-0.0907097
-0.0889367
-0.0872081
-0.0855235
-0.0838828
-0.0822857
-0.0807319
-0.0792208
-0.0777521
-0.076325
-0.074939
-0.0735933
-0.0722871
-0.0710195
-0.0697895
-0.0685961
-0.0674382
-0.0663147
-0.0652243
-0.0641658
-0.0631378
-0.0621391
-0.0611683
-0.0602238
-0.0593045
-0.0584088
-0.0575354
-0.0566828
-0.0558499
-0.0550351
-0.0542372
-0.0534551
-0.0526875
-0.0519332
-0.0511913
-0.0504605
-0.0497401
-0.0490289
-0.0483262
-0.0476312
-0.046943
-0.046261
-0.0455844
-0.0449127
-0.0442454
-0.0435819
-0.0429219
-0.0422651
-0.0416111
-0.0409598
-0.0403112
-0.0396652
-0.0390219
-0.0383813
-0.0377436
-0.0371088
-0.0364772
-0.0358489
-0.0352238
-0.0346022
-0.0339839
-0.033369
-0.0327575
-0.0321492
-0.0315443
-0.0309428
-0.0303447
-0.0297504
-0.02916
-0.028574
-0.0279928
-0.0274169
-0.026847
-0.0262836
-0.0257274
-0.025179
-0.024639
-0.0241081
-0.0235867
-0.0230752
-0.0225742
-0.0220839
-0.0216046
-0.0211365
-0.0206797
-0.0202341
-0.0197999
-0.019377
-0.0189651
-0.0185642
-0.0181741
-0.0177944
-0.017425
-0.0170656
-0.0167158
-0.0163753
-0.0160439
-0.0157212
-0.0154068
-0.0151005
-0.0148019
-0.0145106
-0.0142264
-0.013949
-0.0136781
-0.0134133
-0.0131544
-0.0129012
-0.0126532
-0.0124104
-0.0121725
-0.0119391
-0.0117102
-0.0114854
-0.0112647
-0.0110477
-0.0108343
-0.0106244
-0.0104177
-0.0102142
-0.0100136
-0.00981576
-0.00962063
-0.00942804
-0.00923786
-0.00904999
-0.0088643
-0.0086807
-0.00849908
-0.00831935
-0.00814141
-0.00796518
-0.00779059
-0.00761754
-0.00744597
-0.00727581
-0.00710699
-0.00693944
-0.00677311
-0.00660794
-0.00644388
-0.00628087
-0.00611887
-0.00595782
-0.00579769
-0.00563843
-0.00548
-0.00532236
-0.00516547
-0.0050093
-0.00485381
-0.00469898
-0.00454477
-0.00439115
-0.00423809
-0.00408557
-0.00393355
-0.00378202
-0.00363095
-0.00348031
-0.00333008
-0.00318025
-0.00303078
-0.00288165
-0.00273286
-0.00258437
-0.00243617
-0.00228825
-0.00214057
-0.00199313
-0.00184591
-0.00169888
-0.00155204
-0.00140536
-0.00125884
-0.00111245
-0.000966166
-0.000820031
-0.000673824
-0.000528183
-0.000380614
-0.000238123
-6.81602e-05
3.86194
3.75346
1.55697
0.821389
0.84819
0.866411
0.780421
-2.50686
-16.1696
-8.8938
-7.84347
-7.43342
-7.00438
-6.58086
-5.209
-4.65122
-4.20876
-2.50563
-0.817381
0.394198
1.07097
1.61123
2.14182
2.52279
2.70481
2.81686
2.81054
2.49449
2.1242
1.90436
1.82779
1.89494
2.10254
2.37053
2.58621
2.67699
2.63228
2.48633
2.29073
2.09306
1.92122
1.77935
1.65508
1.53211
1.40306
1.27878
1.183
1.13836
1.15582
1.2334
1.35633
1.50518
1.66662
1.8377
2.02316
2.23228
2.45521
2.5481
2.39335
2.22549
2.13901
2.12004
2.17232
2.28738
2.43863
2.57265
2.61321
2.59061
2.59436
2.64766
2.74875
2.89739
3.0842
3.28782
3.47104
3.60327
3.71108
3.83344
3.97415
4.12214
4.2633
4.39335
4.52611
4.66635
4.8023
4.92468
5.03491
5.13695
5.22871
5.3062
5.36888
5.41711
5.44979
5.4666
5.46898
5.45831
5.43537
5.40095
5.35573
5.30016
5.23475
5.16019
5.07721
4.98659
4.88915
4.78568
4.67695
4.56371
4.44667
4.32652
4.20396
4.07961
3.95409
3.82796
3.70173
3.57589
3.45087
3.32706
3.20482
3.08445
2.96623
2.8504
2.73716
2.62667
2.51907
2.41446
2.31295
2.21458
2.1194
2.02745
1.93872
1.85321
1.7709
1.69174
1.61569
1.54266
1.47258
1.40535
1.34089
1.27908
1.21983
1.16302
1.10855
1.05631
1.00621
0.958147
0.912028
0.867763
0.825268
0.784458
0.745256
0.707586
0.671374
0.63655
0.603049
0.570806
0.53976
0.509854
0.481033
0.453245
0.42644
0.400572
0.375596
0.35147
0.328154
0.305609
0.283797
0.262684
0.242235
0.222417
0.203199
0.184553
0.166448
0.14886
0.131763
0.115135
0.0989552
0.0832043
0.0678661
0.0529265
0.0383737
0.0241983
0.0103936
-0.00304465
-0.0161181
-0.0288261
-0.0411652
-0.0531303
-0.0647137
-0.0759062
-0.0866973
-0.097075
-0.107027
-0.116541
-0.125603
-0.134203
-0.142329
-0.149972
-0.157123
-0.163778
-0.169933
-0.175587
-0.180741
-0.1854
-0.189571
-0.193262
-0.196485
-0.199253
-0.201582
-0.203489
-0.204992
-0.20611
-0.206865
-0.207276
-0.207365
-0.207153
-0.206661
-0.20591
-0.20492
-0.203711
-0.202303
-0.200712
-0.198958
-0.197055
-0.19502
-0.192867
-0.190609
-0.188261
-0.185832
-0.183335
-0.18078
-0.178175
-0.175529
-0.17285
-0.170146
-0.167422
-0.164686
-0.161942
-0.159196
-0.156452
-0.153714
-0.150986
-0.148272
-0.145574
-0.142897
-0.140241
-0.137611
-0.135007
-0.132432
-0.129888
-0.127376
-0.124898
-0.122456
-0.12005
-0.117682
-0.115352
-0.113062
-0.110812
-0.108604
-0.106438
-0.104313
-0.102232
-0.100195
-0.0982004
-0.0962502
-0.0943443
-0.0924827
-0.0906654
-0.0888926
-0.087164
-0.0854797
-0.0838393
-0.0822425
-0.0806891
-0.0791786
-0.0777104
-0.076284
-0.0748988
-0.0735539
-0.0722485
-0.0709819
-0.0697529
-0.0685606
-0.0674039
-0.0662816
-0.0651925
-0.0641353
-0.0631087
-0.0621113
-0.0611418
-0.0601988
-0.0592808
-0.0583865
-0.0575145
-0.0566633
-0.0558316
-0.0550181
-0.0542215
-0.0534406
-0.0526741
-0.0519209
-0.05118
-0.0504502
-0.0497307
-0.0490204
-0.0483186
-0.0476243
-0.0469369
-0.0462555
-0.0455795
-0.0449084
-0.0442415
-0.0435784
-0.0429187
-0.042262
-0.0416082
-0.040957
-0.0403084
-0.0396623
-0.0390188
-0.0383781
-0.0377403
-0.0371055
-0.0364739
-0.0358455
-0.0352206
-0.034599
-0.0339809
-0.0333662
-0.0327548
-0.0321467
-0.0315418
-0.0309402
-0.030342
-0.0297474
-0.0291567
-0.0285702
-0.0279884
-0.0274119
-0.0268413
-0.0262772
-0.0257203
-0.0251712
-0.0246305
-0.024099
-0.023577
-0.0230651
-0.0225637
-0.0220731
-0.0215936
-0.0211253
-0.0206684
-0.0202229
-0.0197887
-0.0193658
-0.0189542
-0.0185535
-0.0181635
-0.0177842
-0.017415
-0.0170559
-0.0167064
-0.0163663
-0.0160352
-0.0157128
-0.0153987
-0.0150927
-0.0147944
-0.0145035
-0.0142196
-0.0139425
-0.0136719
-0.0134074
-0.0131488
-0.0128958
-0.0126481
-0.0124055
-0.0121678
-0.0119347
-0.0117059
-0.0114814
-0.0112608
-0.0110441
-0.0108309
-0.0106211
-0.0104146
-0.0102112
-0.0100107
-0.00981305
-0.00961805
-0.00942559
-0.00923553
-0.00904777
-0.00886219
-0.00867869
-0.00849717
-0.00831753
-0.00813967
-0.00796353
-0.00778901
-0.00761604
-0.00744454
-0.00727444
-0.00710569
-0.0069382
-0.00677193
-0.00660682
-0.00644281
-0.00627985
-0.00611789
-0.00595689
-0.0057968
-0.00563758
-0.00547919
-0.00532158
-0.00516473
-0.0050086
-0.00485314
-0.00469834
-0.00454416
-0.00439057
-0.00423754
-0.00408504
-0.00393305
-0.00378155
-0.0036305
-0.00347988
-0.00332968
-0.00317986
-0.00303041
-0.00288131
-0.00273254
-0.00258407
-0.00243589
-0.00228798
-0.00214033
-0.0019929
-0.00184569
-0.00169868
-0.00155186
-0.0014052
-0.00125869
-0.00111232
-0.000966052
-0.000819932
-0.000673741
-0.000528115
-0.000380562
-0.000238086
-6.81463e-05
2.47067
2.30125
0.780893
0.864084
0.867357
0.85926
0.853148
0.379826
-16.9739
-8.67944
-8.50566
-7.7227
-7.50467
-8.57848
-8.14341
-4.75335
-1.9235
0.187096
1.12
1.1171
1.07997
1.42014
1.78222
1.9281
2.05462
2.3829
2.44631
1.67195
1.26518
1.48603
1.65156
1.76528
1.92212
2.08216
2.17529
2.18832
2.14126
2.05275
1.93952
1.81642
1.69177
1.56458
1.43013
1.28839
1.14741
1.02451
0.932477
0.878031
0.864469
0.89138
0.951794
1.0371
1.14134
1.26228
1.4025
1.59939
1.97457
2.2688
1.95985
1.69564
1.61575
1.63932
1.76159
1.96765
2.23132
2.46969
2.45995
2.31528
2.25272
2.27193
2.35538
2.50865
2.72298
2.97512
3.19868
3.31041
3.38175
3.497
3.65141
3.82319
3.97934
4.10727
4.24638
4.40712
4.56183
4.69278
4.80848
4.92123
5.02584
5.11375
5.18592
5.24409
5.28527
5.30866
5.31736
5.31341
5.29728
5.26983
5.23169
5.18297
5.12405
5.05565
4.9785
4.89343
4.8013
4.70293
4.59905
4.49043
4.37775
4.26173
4.14304
4.02237
3.90031
3.77746
3.65432
3.5314
3.40912
3.28788
3.16806
3.04997
2.9339
2.82008
2.70873
2.60001
2.49407
2.39102
2.29096
2.19394
2.10004
2.00927
1.92166
1.8372
1.75588
1.67766
1.60249
1.5303
1.46101
1.39454
1.33079
1.26965
1.21102
1.15479
1.10087
1.04914
0.999509
0.951882
0.906169
0.862281
0.820136
0.779653
0.740754
0.703367
0.667419
0.632843
0.599571
0.567543
0.536697
0.506977
0.478329
0.450703
0.424049
0.398322
0.373478
0.349476
0.326275
0.303839
0.282129
0.261112
0.240753
0.221019
0.201881
0.183308
0.165272
0.147747
0.130709
0.114133
0.0980006
0.0822916
0.0669897
0.0520808
0.037553
0.023397
0.00960603
-0.00382406
-0.0168948
-0.0296051
-0.0419514
-0.0539279
-0.0655266
-0.0767375
-0.0875492
-0.0979493
-0.107924
-0.117461
-0.126545
-0.135165
-0.143308
-0.150964
-0.158126
-0.164786
-0.170942
-0.176592
-0.181737
-0.186382
-0.190534
-0.194202
-0.197397
-0.200134
-0.202429
-0.204299
-0.205763
-0.206841
-0.207554
-0.207923
-0.207969
-0.207715
-0.207181
-0.20639
-0.20536
-0.204114
-0.202668
-0.201043
-0.199255
-0.197322
-0.195257
-0.193077
-0.190794
-0.188422
-0.185971
-0.183454
-0.180879
-0.178257
-0.175596
-0.172902
-0.170185
-0.167449
-0.164702
-0.161948
-0.159192
-0.15644
-0.153694
-0.150959
-0.148239
-0.145535
-0.142852
-0.140192
-0.137557
-0.134949
-0.132371
-0.129823
-0.127309
-0.124828
-0.122383
-0.119975
-0.117604
-0.115273
-0.112981
-0.11073
-0.108521
-0.106353
-0.104228
-0.102146
-0.100107
-0.0981127
-0.0961621
-0.0942559
-0.0923941
-0.0905769
-0.0888041
-0.0870759
-0.085392
-0.0837521
-0.0821561
-0.0806036
-0.0790941
-0.0776271
-0.076202
-0.0748182
-0.073475
-0.0721714
-0.0709067
-0.0696798
-0.0684896
-0.0673352
-0.0662154
-0.0651288
-0.0640742
-0.0630502
-0.0620556
-0.0610889
-0.0601487
-0.0592335
-0.058342
-0.0574727
-0.0566242
-0.0557952
-0.0549843
-0.0541901
-0.0534116
-0.0526474
-0.0518964
-0.0511575
-0.0504297
-0.049712
-0.0490035
-0.0483033
-0.0476106
-0.0469245
-0.0462445
-0.0455698
-0.0448997
-0.0442339
-0.0435717
-0.0429127
-0.0422566
-0.0416032
-0.0409523
-0.0403038
-0.0396577
-0.0390141
-0.0383732
-0.037735
-0.0370998
-0.0364678
-0.035839
-0.0352137
-0.0345918
-0.0339734
-0.0333584
-0.0327467
-0.0321383
-0.031533
-0.030931
-0.0303323
-0.0297371
-0.0291456
-0.0285582
-0.0279755
-0.027398
-0.0268263
-0.0262611
-0.0257031
-0.025153
-0.0246114
-0.024079
-0.0235563
-0.0230437
-0.0225418
-0.0220508
-0.021571
-0.0211026
-0.0206456
-0.0202002
-0.0197663
-0.0193437
-0.0189323
-0.0185321
-0.0181426
-0.0177638
-0.0173952
-0.0170367
-0.0166879
-0.0163484
-0.0160179
-0.0156962
-0.0153828
-0.0150774
-0.0147798
-0.0144895
-0.0142062
-0.0139297
-0.0136596
-0.0133957
-0.0131376
-0.0128852
-0.012638
-0.0123959
-0.0121586
-0.011926
-0.0116977
-0.0114735
-0.0112533
-0.0110369
-0.0108241
-0.0106146
-0.0104085
-0.0102053
-0.0100052
-0.00980778
-0.00961304
-0.00942082
-0.009231
-0.00904346
-0.00885809
-0.00867479
-0.00849345
-0.00831399
-0.00813631
-0.00796033
-0.00778596
-0.00761314
-0.00744178
-0.00727181
-0.00710318
-0.00693581
-0.00676966
-0.00660465
-0.00644074
-0.00627788
-0.00611602
-0.00595511
-0.0057951
-0.00563596
-0.00547765
-0.00532012
-0.00516334
-0.00500727
-0.00485188
-0.00469714
-0.00454302
-0.00438948
-0.00423651
-0.00408406
-0.00393212
-0.00378067
-0.00362966
-0.00347909
-0.00332893
-0.00317916
-0.00302975
-0.00288069
-0.00273195
-0.00258352
-0.00243538
-0.00228751
-0.00213989
-0.0019925
-0.00184532
-0.00169835
-0.00155155
-0.00140493
-0.00125845
-0.00111211
-0.000965872
-0.000819783
-0.000673623
-0.000528027
-0.000380505
-0.000238055
-6.81495e-05
1.76704
0.963249
0.857804
0.860644
0.876465
0.862291
0.874503
-4.49399
-11.926
-5.17999
-6.54003
-7.39663
-7.40814
-6.60352
-5.68154
-3.89563
-1.55825
-0.0262649
0.756079
1.37589
2.28309
3.03873
3.50541
3.06683
2.87735
4.27205
4.78505
1.59681
0.00086236
0.719543
1.28631
1.51603
1.67768
1.70065
1.5597
1.33667
1.12463
0.979072
0.906159
0.885453
0.875501
0.821126
0.678571
0.440551
0.153159
-0.0669605
-0.131036
-0.0346859
0.155908
0.366113
0.540281
0.655562
0.743607
0.876175
1.11701
1.53431
2.41214
3.01362
2.02554
1.58898
1.37003
1.23367
1.23599
1.35812
1.64799
2.10867
1.98403
1.6628
1.56647
1.59624
1.70066
1.89252
2.17152
2.53869
2.87737
2.9089
2.87688
2.97686
3.15304
3.36779
3.54669
3.65363
3.80084
4.00419
4.19807
4.34219
4.4631
4.59543
4.7235
4.82695
4.91267
4.98655
5.04008
5.07165
5.08905
5.09521
5.08935
5.0726
5.04544
5.00712
4.95793
4.89876
4.83034
4.75359
4.66946
4.57875
4.4822
4.38053
4.27441
4.16457
4.05172
3.93655
3.8197
3.70177
3.58328
3.46472
3.34655
3.22918
3.113
2.99833
2.88547
2.77468
2.66617
2.56011
2.45666
2.35594
2.25805
2.16306
2.07105
1.98206
1.89611
1.81323
1.73339
1.65657
1.58273
1.5118
1.44371
1.37837
1.31568
1.25554
1.19785
1.1425
1.08939
1.03842
0.989491
0.942518
0.897411
0.854087
0.812465
0.772469
0.734026
0.697062
0.66151
0.627303
0.594376
0.562668
0.532122
0.502681
0.474293
0.446907
0.420479
0.394961
0.370313
0.346494
0.323466
0.30119
0.279633
0.258758
0.238533
0.218926
0.199906
0.181443
0.16351
0.14608
0.129129
0.112633
0.0965716
0.0809258
0.0656788
0.0508164
0.0363265
0.0221998
0.00842959
-0.00498821
-0.0180549
-0.0307689
-0.0431264
-0.0551206
-0.0667428
-0.0779821
-0.0888259
-0.0992603
-0.109271
-0.118843
-0.127961
-0.136611
-0.144781
-0.152459
-0.159636
-0.166305
-0.172462
-0.178105
-0.183237
-0.187861
-0.191984
-0.195616
-0.19877
-0.20146
-0.203703
-0.205517
-0.206922
-0.207939
-0.208588
-0.208893
-0.208875
-0.208557
-0.207961
-0.207108
-0.206019
-0.204715
-0.203215
-0.201537
-0.1997
-0.197719
-0.195611
-0.19339
-0.191069
-0.188661
-0.186178
-0.18363
-0.181027
-0.178379
-0.175694
-0.172979
-0.170242
-0.167488
-0.164724
-0.161955
-0.159186
-0.156421
-0.153664
-0.150918
-0.148188
-0.145476
-0.142785
-0.140118
-0.137476
-0.134863
-0.132279
-0.129726
-0.127207
-0.124722
-0.122274
-0.119862
-0.117489
-0.115154
-0.11286
-0.110607
-0.108395
-0.106226
-0.104099
-0.102016
-0.0999764
-0.0979809
-0.0960297
-0.0941231
-0.0922611
-0.0904438
-0.0886713
-0.0869435
-0.0852602
-0.0836213
-0.0820263
-0.0804751
-0.0789671
-0.0775019
-0.0760788
-0.0746972
-0.0733564
-0.0720555
-0.0707936
-0.0695698
-0.068383
-0.0672321
-0.0661159
-0.0650331
-0.0639824
-0.0629626
-0.0619721
-0.0610095
-0.0600735
-0.0591626
-0.0582753
-0.0574101
-0.0565657
-0.0557406
-0.0549335
-0.0541431
-0.0533681
-0.0526073
-0.0518596
-0.0511238
-0.050399
-0.0496841
-0.0489783
-0.0482806
-0.0475902
-0.0469063
-0.0462282
-0.0455553
-0.0448868
-0.0442223
-0.0435611
-0.042903
-0.0422475
-0.0415944
-0.0409436
-0.040295
-0.0396486
-0.0390047
-0.0383634
-0.037725
-0.0370896
-0.0364576
-0.035829
-0.0352041
-0.0345828
-0.0339651
-0.0333508
-0.0327398
-0.0321319
-0.031527
-0.030925
-0.0303259
-0.0297298
-0.0291371
-0.0285482
-0.0279636
-0.027384
-0.02681
-0.0262425
-0.0256822
-0.0251298
-0.0245861
-0.0240517
-0.0235272
-0.0230132
-0.0225101
-0.0220181
-0.0215376
-0.0210687
-0.0206116
-0.0201661
-0.0197323
-0.0193101
-0.0188992
-0.0184996
-0.0181108
-0.0177328
-0.0173651
-0.0170075
-0.0166596
-0.0163211
-0.0159916
-0.0156709
-0.0153585
-0.0150541
-0.0147574
-0.0144681
-0.0141858
-0.0139102
-0.013641
-0.0133779
-0.0131207
-0.012869
-0.0126226
-0.0123812
-0.0121446
-0.0119126
-0.011685
-0.0114615
-0.0112419
-0.011026
-0.0108137
-0.0106048
-0.010399
-0.0101964
-0.00999665
-0.00979967
-0.00960532
-0.00941347
-0.00922401
-0.0090368
-0.00885175
-0.00866875
-0.00848771
-0.00830852
-0.0081311
-0.00795536
-0.00778123
-0.00760862
-0.00743748
-0.00726771
-0.00709927
-0.00693209
-0.0067661
-0.00660126
-0.00643751
-0.0062748
-0.00611308
-0.0059523
-0.00579242
-0.00563341
-0.00547521
-0.00531779
-0.00516111
-0.00500515
-0.00484986
-0.00469521
-0.00454118
-0.00438773
-0.00423484
-0.00408248
-0.00393062
-0.00377923
-0.0036283
-0.0034778
-0.00332771
-0.003178
-0.00302865
-0.00287965
-0.00273097
-0.0025826
-0.00243452
-0.0022867
-0.00213913
-0.00199179
-0.00184467
-0.00169775
-0.00155101
-0.00140443
-0.001258
-0.00111171
-0.000965517
-0.000819476
-0.000673362
-0.000527813
-0.000380337
-0.000237933
-6.81003e-05
1.57178
0.717964
0.857977
0.861967
0.891243
0.789611
0.272341
-2.43182
-1.84422
-6.13047
-8.37098
-12.0642
-14.3472
-11.2537
-0.765232
-0.344567
0.0515124
0.437921
0.960167
0.582562
0.623454
0.651161
2.05799
1.74444
1.04456
4.25777
10.3653
3.68337
0.46375
-0.101375
0.219876
0.29001
0.296908
0.298906
0.292486
0.282775
0.271526
0.260262
0.252469
0.250728
0.253314
0.255634
0.254371
0.250196
0.247419
0.250751
0.261027
0.274175
0.285551
0.293115
0.296494
0.295918
0.293999
0.302838
0.362302
0.547508
1.65032
3.66666
0.448175
-0.190602
-0.108085
0.0254296
0.366523
0.963495
1.92741
3.4121
2.4283
1.64325
1.40956
1.23786
1.16843
1.23797
1.41408
1.82219
2.45535
2.28807
2.05978
2.15862
2.40999
2.76701
3.02037
3.04279
3.19366
3.47578
3.73258
3.87284
3.98168
4.14571
4.31489
4.43961
4.54449
4.6452
4.71644
4.75578
4.78378
4.8037
4.81119
4.80901
4.79723
4.773
4.73679
4.68994
4.63305
4.56729
4.49384
4.41343
4.32673
4.23438
4.13702
4.03541
3.93031
3.82247
3.71256
3.60119
3.48889
3.37616
3.26346
3.15124
3.03988
2.92976
2.82119
2.71442
2.60969
2.50717
2.40704
2.30941
2.2144
2.1221
2.0326
1.94596
1.86222
1.78142
1.70354
1.62858
1.55651
1.48725
1.42075
1.35691
1.29564
1.23683
1.18039
1.1262
1.07418
1.02421
0.97622
0.930112
0.885807
0.843227
0.802297
0.762945
0.725101
0.688698
0.653669
0.619949
0.587478
0.556196
0.526046
0.496974
0.46893
0.441865
0.415735
0.390497
0.36611
0.342536
0.319737
0.297677
0.276322
0.255638
0.235593
0.216154
0.197292
0.178977
0.161181
0.143878
0.127043
0.110652
0.0946859
0.079124
0.0639499
0.0491489
0.0347091
0.0206209
0.00687761
-0.00652465
-0.0195869
-0.0323072
-0.0446809
-0.0567004
-0.0683558
-0.0796348
-0.0905233
-0.101006
-0.111066
-0.120687
-0.129852
-0.138545
-0.146752
-0.15446
-0.161658
-0.16834
-0.174499
-0.180135
-0.185248
-0.189843
-0.193927
-0.197512
-0.200609
-0.203236
-0.205408
-0.207147
-0.208471
-0.209405
-0.209969
-0.210187
-0.210083
-0.209679
-0.208998
-0.208062
-0.206894
-0.205513
-0.203939
-0.202192
-0.200288
-0.198245
-0.196078
-0.193802
-0.191431
-0.188976
-0.186449
-0.183861
-0.181221
-0.178539
-0.175823
-0.173079
-0.170316
-0.167538
-0.164752
-0.161963
-0.159175
-0.156394
-0.153621
-0.150862
-0.14812
-0.145397
-0.142695
-0.140018
-0.137368
-0.134746
-0.132155
-0.129596
-0.127071
-0.124581
-0.122127
-0.119711
-0.117333
-0.114996
-0.112698
-0.110442
-0.108228
-0.106056
-0.103927
-0.101842
-0.0998015
-0.0978049
-0.0958529
-0.0939457
-0.0920834
-0.0902662
-0.0884939
-0.0867667
-0.0850842
-0.0834464
-0.0818529
-0.0803034
-0.0787975
-0.0773346
-0.0759142
-0.0745355
-0.073198
-0.0719006
-0.0706426
-0.069423
-0.0682406
-0.0670943
-0.065983
-0.0649053
-0.0638599
-0.0628455
-0.0618606
-0.0609037
-0.0599733
-0.0590681
-0.0581864
-0.0573268
-0.0564878
-0.0556681
-0.0548662
-0.0540808
-0.0533105
-0.0525543
-0.051811
-0.0510793
-0.0503584
-0.0496472
-0.0489448
-0.0482504
-0.0475631
-0.0468821
-0.0462068
-0.0455364
-0.0448703
-0.0442079
-0.0435487
-0.0428922
-0.042238
-0.0415859
-0.0409356
-0.0402872
-0.0396407
-0.0389963
-0.0383542
-0.0377147
-0.0370782
-0.036445
-0.0358152
-0.0351892
-0.0345669
-0.0339483
-0.0333332
-0.0327215
-0.0321129
-0.0315073
-0.0309044
-0.0303043
-0.0297071
-0.029113
-0.0285225
-0.0279361
-0.0273545
-0.0267786
-0.026209
-0.0256466
-0.0250923
-0.0245467
-0.0240107
-0.0234848
-0.0229696
-0.0224655
-0.0219728
-0.0214919
-0.0210228
-0.0205657
-0.0201205
-0.0196871
-0.0192655
-0.0188554
-0.0184567
-0.018069
-0.017692
-0.0173255
-0.0169691
-0.0166225
-0.0162853
-0.0159572
-0.0156378
-0.0153267
-0.0150237
-0.0147283
-0.0144402
-0.0141591
-0.0138847
-0.0136167
-0.0133547
-0.0130986
-0.0128479
-0.0126025
-0.0123621
-0.0121265
-0.0118954
-0.0116685
-0.0114458
-0.011227
-0.0110119
-0.0108002
-0.010592
-0.0103869
-0.0101848
-0.00998567
-0.00978924
-0.0095954
-0.00940404
-0.00921504
-0.00902827
-0.00884364
-0.00866104
-0.00848037
-0.00830154
-0.00812446
-0.00794904
-0.00777521
-0.0076029
-0.00743203
-0.00726253
-0.00709433
-0.00692738
-0.00676162
-0.006597
-0.00643345
-0.00627093
-0.0061094
-0.00594879
-0.00578909
-0.00563023
-0.00547218
-0.00531491
-0.00515837
-0.00500254
-0.00484738
-0.00469286
-0.00453894
-0.00438561
-0.00423282
-0.00408056
-0.0039288
-0.00377751
-0.00362667
-0.00347626
-0.00332625
-0.00317663
-0.00302736
-0.00287844
-0.00272984
-0.00258155
-0.00243353
-0.00228579
-0.00213829
-0.00199102
-0.00184396
-0.0016971
-0.00155042
-0.00140391
-0.00125754
-0.00111131
-0.000965186
-0.000819206
-0.000673152
-0.000527662
-0.000380246
-0.000237894
-6.81228e-05
1.58805
0.784408
0.81656
0.830084
0.814004
0.824387
0.752211
0.795185
-0.836544
-4.09591
-9.54725
-9.79205
-0.126046
-0.263256
-0.29546
-0.271241
-0.285625
0.00533888
0.673985
0.704595
0.568734
0.473522
0.548326
0.576103
0.522858
0.499451
0.566513
0.465137
0.203943
0.14063
0.187576
0.243301
0.269178
0.276283
0.275084
0.271757
0.26842
0.265915
0.264964
0.265893
0.268314
0.271433
0.274517
0.277156
0.279377
0.281655
0.284579
0.288354
0.292795
0.297395
0.301432
0.304194
0.306041
0.314295
0.346277
0.408559
0.486129
0.37671
0.148299
0.237393
0.295601
0.340061
0.4045
0.546783
0.976398
4.11453
1.53807
0.0465233
0.000129792
0.0175803
0.0898511
0.422205
0.939686
1.88479
3.44953
2.1596
1.6202
1.661
1.72466
2.07013
2.40874
2.18652
2.31775
2.76398
3.20584
3.30017
3.34659
3.57696
3.81959
3.95562
4.07736
4.22154
4.31272
4.35231
4.39422
4.43532
4.46055
4.47854
4.48785
4.48107
4.46073
4.4292
4.38646
4.33435
4.27435
4.20693
4.13269
4.0521
3.96571
3.87434
3.7789
3.6802
3.57899
3.47584
3.3713
3.26585
3.15998
3.05416
2.94884
2.8444
2.74117
2.63943
2.53942
2.44134
2.34533
2.25156
2.16014
2.07118
1.9848
1.90107
1.82007
1.74184
1.6664
1.59376
1.52388
1.45672
1.3922
1.33024
1.27074
1.2136
1.15871
1.10598
1.0553
1.00659
0.959754
0.914719
0.871407
0.829749
0.789677
0.751124
0.714025
0.678318
0.64394
0.610828
0.578925
0.548171
0.518514
0.4899
0.462282
0.435614
0.409852
0.384958
0.360892
0.337617
0.3151
0.293305
0.2722
0.251751
0.231928
0.212698
0.194032
0.175901
0.158276
0.141132
0.124443
0.108186
0.0923388
0.076883
0.061801
0.0470781
0.0327018
0.0186626
0.00495349
-0.00842918
-0.0214862
-0.034215
-0.0466102
-0.058663
-0.0703621
-0.0816933
-0.0926407
-0.103186
-0.113312
-0.122997
-0.132224
-0.140973
-0.149229
-0.156977
-0.164205
-0.170903
-0.177066
-0.182692
-0.187781
-0.192339
-0.196374
-0.199897
-0.202922
-0.205467
-0.207549
-0.209191
-0.210413
-0.211241
-0.211696
-0.211805
-0.21159
-0.211078
-0.21029
-0.20925
-0.207981
-0.206504
-0.204838
-0.203003
-0.201016
-0.198895
-0.196656
-0.194311
-0.191876
-0.189363
-0.186781
-0.184143
-0.181458
-0.178733
-0.175978
-0.173199
-0.170403
-0.167596
-0.164783
-0.161969
-0.159159
-0.156357
-0.153566
-0.15079
-0.148032
-0.145295
-0.142581
-0.139892
-0.137231
-0.1346
-0.132
-0.129432
-0.1269
-0.124403
-0.121943
-0.119521
-0.117139
-0.114796
-0.112495
-0.110235
-0.108018
-0.105843
-0.103712
-0.101625
-0.0995824
-0.0975843
-0.0956313
-0.0937234
-0.0918608
-0.0900435
-0.0882717
-0.0865451
-0.0848637
-0.0832273
-0.0816356
-0.0800883
-0.0785849
-0.0771249
-0.0757078
-0.0743328
-0.0729994
-0.0717065
-0.0704534
-0.0692389
-0.0680621
-0.0669217
-0.0658165
-0.0647453
-0.0637066
-0.062699
-0.061721
-0.0607713
-0.0598481
-0.05895
-0.0580754
-0.0572228
-0.0563907
-0.0555776
-0.0547822
-0.054003
-0.0532388
-0.0524883
-0.0517504
-0.0510239
-0.0503079
-0.0496014
-0.0489035
-0.0482132
-0.0475298
-0.0468524
-0.0461803
-0.0455128
-0.0448492
-0.0441889
-0.0435313
-0.0428759
-0.0422225
-0.0415706
-0.0409204
-0.0402716
-0.0396246
-0.0389797
-0.0383371
-0.0376973
-0.0370609
-0.0364281
-0.0357993
-0.0351747
-0.0345542
-0.0339376
-0.0333247
-0.0327149
-0.0321079
-0.0315032
-0.0309006
-0.0302998
-0.0297011
-0.0291046
-0.0285109
-0.0279208
-0.0273349
-0.0267544
-0.0261802
-0.0256133
-0.0250546
-0.024505
-0.0239653
-0.0234362
-0.0229182
-0.0224119
-0.0219175
-0.0214353
-0.0209654
-0.0205079
-0.0200627
-0.0196297
-0.0192087
-0.0187995
-0.0184018
-0.0180154
-0.0176399
-0.0172749
-0.0169201
-0.0165751
-0.0162396
-0.0159132
-0.0155955
-0.0152861
-0.0149847
-0.0146909
-0.0144045
-0.014125
-0.0138521
-0.0135856
-0.013325
-0.0130703
-0.0128209
-0.0125768
-0.0123376
-0.0121032
-0.0118732
-0.0116474
-0.0114257
-0.0112078
-0.0109936
-0.0107829
-0.0105755
-0.0103712
-0.0101699
-0.00997146
-0.0097757
-0.00958252
-0.00939178
-0.00920336
-0.00901715
-0.00883305
-0.00865095
-0.00847076
-0.00829238
-0.00811573
-0.00794072
-0.00776728
-0.00759534
-0.00742482
-0.00725565
-0.00708777
-0.00692113
-0.00675565
-0.0065913
-0.00642801
-0.00626574
-0.00610444
-0.00594406
-0.00578457
-0.00562591
-0.00546806
-0.00531097
-0.00515462
-0.00499896
-0.00484396
-0.00468959
-0.00453583
-0.00438264
-0.00422999
-0.00407787
-0.00392623
-0.00377507
-0.00362435
-0.00347405
-0.00332416
-0.00317464
-0.00302548
-0.00287667
-0.00272816
-0.00257996
-0.00243205
-0.00228439
-0.00213698
-0.0019898
-0.00184283
-0.00169606
-0.00154946
-0.00140303
-0.00125675
-0.0011106
-0.000964551
-0.000818649
-0.000672673
-0.000527259
-0.000379922
-0.000237651
-6.80118e-05
1.67108
0.73644
0.747623
0.730008
0.65324
0.571438
0.557773
0.486515
0.130481
0.20477
-0.0683406
-0.51812
-0.453267
-0.433423
-0.409809
-0.2733
-0.0841883
0.173537
0.42658
0.55466
0.560521
0.552425
0.540252
0.525675
0.506243
0.473813
0.383495
0.198268
0.0841974
0.0794974
0.183065
0.241158
0.260895
0.268069
0.268578
0.266966
0.265142
0.263913
0.2638
0.264859
0.266823
0.269458
0.272691
0.276388
0.280292
0.284191
0.287825
0.291051
0.293987
0.296725
0.299208
0.301207
0.302932
0.307252
0.320683
0.349309
0.386123
0.406586
0.361575
0.354692
0.363821
0.38249
0.422864
0.514741
0.633677
0.436239
-0.274138
0.0744351
0.173598
0.214315
0.241322
0.289663
0.394278
0.5651
5.13312
0.585306
-0.701556
0.0473975
0.8706
2.12247
2.48266
1.52869
1.74175
2.19083
2.86438
2.67364
2.49808
2.83752
3.2543
3.37086
3.50087
3.73949
3.84783
3.85792
3.91579
3.98558
4.02908
4.07603
4.11645
4.13122
4.13033
4.11737
4.09066
4.05456
4.01095
3.9595
3.9006
3.83427
3.76096
3.68176
3.5978
3.51006
3.41931
3.32609
3.23088
3.13416
3.03645
2.93829
2.84018
2.74253
2.64571
2.55001
2.45567
2.36289
2.27183
2.18266
2.09551
2.01054
1.92785
1.84758
1.76982
1.69465
1.62212
1.55223
1.48498
1.42032
1.35818
1.29847
1.2411
1.18595
1.13293
1.08194
1.03287
0.985647
0.940188
0.896424
0.854288
0.813719
0.77466
0.73705
0.700833
0.665949
0.632341
0.599951
0.568721
0.538596
0.509525
0.481457
0.454347
0.428152
0.402832
0.37835
0.354669
0.331757
0.309579
0.288104
0.2673
0.247135
0.227579
0.208601
0.190171
0.17226
0.154841
0.137887
0.121373
0.105274
0.0895704
0.074241
0.0592688
0.0446384
0.0303371
0.0163551
0.00268542
-0.0106758
-0.0237289
-0.0364709
-0.0488953
-0.060992
-0.0727478
-0.0841466
-0.0951698
-0.105797
-0.116006
-0.125774
-0.13508
-0.143902
-0.152221
-0.16002
-0.167285
-0.174005
-0.180174
-0.185788
-0.190849
-0.195362
-0.199336
-0.202783
-0.205719
-0.208163
-0.210134
-0.211656
-0.212753
-0.21345
-0.213773
-0.213747
-0.213399
-0.212753
-0.211836
-0.21067
-0.209279
-0.207684
-0.205906
-0.203966
-0.201879
-0.199665
-0.197338
-0.194912
-0.192401
-0.189817
-0.187171
-0.184474
-0.181733
-0.178959
-0.176158
-0.173337
-0.170502
-0.16766
-0.164815
-0.161972
-0.159136
-0.156309
-0.153497
-0.1507
-0.147924
-0.14517
-0.142441
-0.139738
-0.137064
-0.134422
-0.131811
-0.129234
-0.126693
-0.124188
-0.121721
-0.119293
-0.116904
-0.114557
-0.11225
-0.109986
-0.107765
-0.105587
-0.103453
-0.101363
-0.0993186
-0.0973189
-0.0953646
-0.0934559
-0.0915929
-0.0897756
-0.0880042
-0.0862784
-0.0845983
-0.0829636
-0.081374
-0.0798292
-0.0783289