/*--------------------------------*- C++ -*----------------------------------*\
| =========                 |                                                 |
| \\      /  F ield         | OpenFOAM: The Open Source CFD Toolbox           |
|  \\    /   O peration     | Version:  v2006                                 |
|   \\  /    A nd           | Website:  www.openfoam.com                      |
|    \\/     M anipulation  |                                                 |
\*---------------------------------------------------------------------------*/
FoamFile
{
    version     2.0;
    format      ascii;
    class       surfaceScalarField;
    location    "20";
    object      phi;
}
// * * * * * * * * * * * * * * * * * * * * * * * * * * * * * * * * * * * * * //

dimensions      [0 3 -1 0 0 0 0];
oriented        oriented;


internalField   nonuniform List<scalar> 
99450
(
-3.13419e-06
3.13419e-06
1.41732e-05
-1.73074e-05
3.72847e-05
-2.31115e-05
5.86703e-05
-2.13856e-05
7.637e-05
-1.76997e-05
9.12112e-05
-1.48412e-05
0.000104734
-1.35233e-05
0.000118154
-1.34192e-05
0.0001321
-1.39462e-05
0.000146714
-1.4614e-05
0.000161829
-1.51148e-05
0.000177127
-1.52983e-05
0.000192241
-1.51142e-05
0.000206809
-1.45676e-05
0.000220504
-1.36949e-05
0.000233056
-1.25521e-05
0.00024426
-1.12047e-05
0.000253982
-9.72156e-06
0.00026215
-8.16807e-06
0.00026875
-6.60015e-06
0.00027381
-5.05943e-06
0.000277385
-3.57507e-06
0.000279577
-2.19242e-06
0.000280486
-9.08918e-07
0.00028022
2.65659e-07
0.000278872
1.34788e-06
0.00027653
2.34226e-06
0.000273277
3.25277e-06
0.000269186
4.09171e-06
0.000264309
4.87647e-06
0.000258687
5.62185e-06
0.00025234
6.34734e-06
0.000245267
7.07278e-06
0.000237466
7.8016e-06
0.000228908
8.55798e-06
0.000219522
9.38584e-06
0.000209179
1.03423e-05
0.000197703
1.14762e-05
0.000184864
1.28388e-05
0.000170426
1.4438e-05
0.0001542
1.62264e-05
0.000136152
1.80483e-05
0.000116458
1.96941e-05
9.54398e-05
2.10177e-05
7.34508e-05
2.1989e-05
5.08131e-05
2.26377e-05
2.7841e-05
2.29721e-05
4.84082e-06
2.30002e-05
-1.79102e-05
2.2751e-05
-4.01227e-05
2.22125e-05
-6.14915e-05
2.13688e-05
-8.17119e-05
2.02204e-05
-0.000100544
1.88323e-05
-0.000117899
1.73551e-05
-0.000133883
1.59835e-05
-0.00014873
1.48475e-05
-0.000162692
1.39615e-05
-0.00017595
1.32581e-05
-0.000188626
1.26765e-05
-0.000200781
1.21542e-05
-0.000212448
1.1667e-05
-0.000223662
1.12139e-05
-0.000234447
1.07857e-05
-0.000244836
1.03892e-05
-0.000254851
1.00144e-05
-0.000264509
9.65825e-06
-0.000273835
9.32597e-06
-0.000282843
9.00823e-06
-0.000291548
8.70509e-06
-0.000299961
8.41256e-06
-0.00030809
8.12888e-06
-0.000315941
7.85174e-06
-0.000323524
7.58225e-06
-0.00033084
7.31582e-06
-0.00033789
7.05075e-06
-0.00034468
6.78957e-06
-0.000351209
6.52866e-06
-0.000357476
6.26784e-06
-0.000363484
6.00728e-06
-0.000369231
5.7478e-06
-0.000374722
5.49087e-06
-0.000379963
5.24028e-06
-0.000384963
5.00081e-06
-0.000389742
4.77834e-06
-0.000394307
4.56547e-06
-0.000398677
4.3701e-06
-0.000402876
4.19911e-06
-0.000406935
4.05858e-06
-0.000410879
3.94445e-06
-0.000414763
3.88387e-06
-0.000418647
3.88366e-06
-0.00042261
3.96292e-06
-0.000426765
4.15466e-06
-0.000431264
4.49927e-06
-0.000436361
5.09705e-06
-0.000442468
6.10668e-06
-0.000450124
7.65606e-06
-0.000459818
9.69461e-06
-0.000471808
1.199e-05
-0.000486051
1.42422e-05
-0.000502206
1.61552e-05
-0.000519715
1.75093e-05
-0.000537924
1.82093e-05
-0.000556223
1.82984e-05
-0.000574126
1.79029e-05
-0.000591214
1.70885e-05
-0.000607008
1.57934e-05
-0.000620836
1.38283e-05
-0.00063179
1.09545e-05
-0.000638831
7.04081e-06
-0.000640974
2.14321e-06
-0.000638165
-2.80913e-06
-0.000631313
-6.85183e-06
-0.000621712
-9.60092e-06
-0.000610474
-1.12384e-05
-0.000598353
-1.21211e-05
-0.000585782
-1.25715e-05
-0.000572927
-1.28543e-05
-0.000559825
-1.31025e-05
-0.000546448
-1.33766e-05
-0.000532784
-1.36636e-05
-0.000518828
-1.39569e-05
-0.00050457
-1.42572e-05
-0.00049001
-1.45607e-05
-0.000475147
-1.4863e-05
-0.000459982
-1.51646e-05
-0.000444519
-1.54631e-05
-0.000428761
-1.57581e-05
-0.000412707
-1.60534e-05
-0.000396373
-1.63343e-05
-0.000379762
-1.66109e-05
-0.000362884
-1.68782e-05
-0.000345739
-1.71445e-05
-0.000328327
-1.74125e-05
-0.000310632
-1.76949e-05
-0.000292631
-1.80006e-05
-0.000274301
-1.83305e-05
-0.000255607
-1.86939e-05
-0.000236522
-1.90847e-05
-0.000217015
-1.95078e-05
-0.000197055
-1.99591e-05
-0.000176612
-2.0443e-05
-0.000155658
-2.09546e-05
-0.000134145
-2.1513e-05
-0.000112055
-2.20902e-05
-8.93889e-05
-2.26657e-05
-6.62957e-05
-2.30933e-05
-4.27842e-05
-2.35114e-05
-1.93836e-05
-2.34006e-05
-1.93836e-05
-5.26819e-06
8.40238e-06
9.7169e-06
-3.22925e-05
3.07976e-05
-4.41923e-05
4.9956e-05
-4.0544e-05
6.4624e-05
-3.23676e-05
7.55162e-05
-2.57335e-05
8.45626e-05
-2.25697e-05
9.34582e-05
-2.23147e-05
0.000103067
-2.35554e-05
0.000113493
-2.50393e-05
0.000124382
-2.60045e-05
0.000135208
-2.61241e-05
0.000145434
-2.53395e-05
0.000154587
-2.37212e-05
0.000162289
-2.13964e-05
0.000168258
-1.85217e-05
0.000172316
-1.52626e-05
0.000174377
-1.17819e-05
0.00017444
-8.2316e-06
0.000172584
-4.74411e-06
0.000168938
-1.41353e-06
0.000163622
1.74118e-06
0.000156933
4.4966e-06
0.000149071
6.95326e-06
0.000140244
9.09263e-06
0.000130669
1.09224e-05
0.000120553
1.24581e-05
0.000110085
1.37212e-05
9.94491e-05
1.47276e-05
8.88219e-05
1.55037e-05
7.83644e-05
1.60793e-05
6.82412e-05
1.64706e-05
5.86073e-05
1.67067e-05
4.9584e-05
1.68249e-05
4.12721e-05
1.68699e-05
3.37503e-05
1.69076e-05
2.70678e-05
1.70249e-05
2.12377e-05
1.73063e-05
1.62257e-05
1.78508e-05
1.19303e-05
1.87334e-05
8.15103e-06
2.00056e-05
4.56325e-06
2.16361e-05
7.54807e-07
2.35026e-05
-3.66533e-06
2.54379e-05
-8.98261e-06
2.73063e-05
-1.53614e-05
2.90164e-05
-2.28713e-05
3.04821e-05
-3.1439e-05
3.15679e-05
-4.09558e-05
3.22679e-05
-5.13057e-05
3.25623e-05
-6.23645e-05
3.24277e-05
-7.40258e-05
3.18817e-05
-8.61939e-05
3.10004e-05
-9.87596e-05
2.99208e-05
-0.000111573
2.87968e-05
-0.000124468
2.77429e-05
-0.00013733
2.68229e-05
-0.000150109
2.60373e-05
-0.000162789
2.53561e-05
-0.000175388
2.47534e-05
-0.000187926
2.42056e-05
-0.000200406
2.36938e-05
-0.000212837
2.32161e-05
-0.00022521
2.27622e-05
-0.00023752
2.23248e-05
-0.000249761
2.18994e-05
-0.000261907
2.14715e-05
-0.000273954
2.10551e-05
-0.000285876
2.06279e-05
-0.000297654
2.01897e-05
-0.000309274
1.97497e-05
-0.000320714
1.92915e-05
-0.00033195
1.88176e-05
-0.000342954
1.832e-05
-0.000353715
1.7812e-05
-0.0003642
1.7275e-05
-0.000374385
1.67136e-05
-0.000384244
1.61259e-05
-0.00039375
1.55138e-05
-0.000402878
1.4876e-05
-0.000411598
1.42101e-05
-0.000419888
1.35311e-05
-0.00042773
1.28421e-05
-0.0004351
1.21485e-05
-0.000441991
1.14563e-05
-0.000448394
1.07738e-05
-0.000454304
1.0109e-05
-0.000459721
9.4748e-06
-0.000464661
8.88507e-06
-0.000469123
8.34602e-06
-0.000473122
7.88192e-06
-0.000476669
7.51047e-06
-0.000479785
7.2702e-06
-0.000482487
7.20174e-06
-0.000484761
7.37114e-06
-0.000486528
7.87369e-06
-0.000487687
8.8153e-06
-0.00048825
1.02569e-05
-0.000488392
1.21323e-05
-0.000488351
1.42016e-05
-0.000488293
1.60962e-05
-0.000488179
1.73956e-05
-0.000487707
1.77373e-05
-0.000486345
1.69368e-05
-0.000483363
1.49207e-05
-0.00047803
1.17561e-05
-0.000469831
7.59345e-06
-0.000458633
2.63115e-06
-0.000444603
-3.07582e-06
-0.000428234
-9.32867e-06
-0.000410743
-1.53478e-05
-0.000393018
-2.05337e-05
-0.000375375
-2.44943e-05
-0.000357816
-2.71602e-05
-0.000340363
-2.86921e-05
-0.000323079
-2.9405e-05
-0.000306014
-2.9636e-05
-0.000289228
-2.96405e-05
-0.000272744
-2.95865e-05
-0.000256579
-2.95415e-05
-0.000240685
-2.95572e-05
-0.000225067
-2.95749e-05
-0.000209721
-2.96041e-05
-0.000194663
-2.96178e-05
-0.000179934
-2.95928e-05
-0.000165568
-2.95298e-05
-0.000151615
-2.94163e-05
-0.000138122
-2.92509e-05
-0.000125168
-2.90078e-05
-0.000112769
-2.87337e-05
-0.000100957
-2.84223e-05
-8.98088e-05
-2.80267e-05
-7.93913e-05
-2.7562e-05
-6.97375e-05
-2.70663e-05
-6.09012e-05
-2.65312e-05
-5.29407e-05
-2.59611e-05
-4.58364e-05
-2.54347e-05
-3.95785e-05
-2.49519e-05
-3.41351e-05
-2.45281e-05
-2.94263e-05
-2.42166e-05
-2.53431e-05
-2.40423e-05
-2.18e-05
-2.39861e-05
-1.87007e-05
-2.40539e-05
-1.59665e-05
-2.42472e-05
-1.35427e-05
-2.4514e-05
-1.1376e-05
-2.48325e-05
-9.44578e-06
-2.50235e-05
-7.32085e-06
-2.56364e-05
-3.6403e-06
-2.70812e-05
-2.30239e-05
-7.076e-06
1.54784e-05
7.58085e-06
-4.69493e-05
3.01396e-05
-6.67511e-05
5.21596e-05
-6.25639e-05
7.01257e-05
-5.03338e-05
8.39408e-05
-3.95485e-05
9.52613e-05
-3.38902e-05
0.000106051
-3.31047e-05
0.000117645
-3.51496e-05
0.000130459
-3.78529e-05
0.000144182
-3.97271e-05
0.000158122
-4.00649e-05
0.000171502
-3.87193e-05
0.000183624
-3.58431e-05
0.000193945
-3.17177e-05
0.000202084
-2.66607e-05
0.000207811
-2.09893e-05
0.000211036
-1.50071e-05
0.000211791
-8.9861e-06
0.000210194
-3.14738e-06
0.000206495
2.2853e-06
0.000200948
7.28798e-06
0.000193738
1.17074e-05
0.000185163
1.55281e-05
0.000175479
1.87764e-05
0.000164927
2.14747e-05
0.000153709
2.36761e-05
0.000141998
2.54316e-05
0.000129929
2.67967e-05
0.000117618
2.78153e-05
0.000105157
2.85401e-05
9.26177e-05
2.90098e-05
8.00528e-05
2.92716e-05
6.74967e-05
2.9381e-05
5.49768e-05
2.93898e-05
4.25166e-05
2.93678e-05
3.01568e-05
2.93846e-05
1.79554e-05
2.95078e-05
6.02085e-06
2.97853e-05
-5.51042e-06
3.02647e-05
-1.65008e-05
3.0996e-05
-2.68681e-05
3.20034e-05
-3.66058e-05
3.32403e-05
-4.57634e-05
3.45954e-05
-5.44176e-05
3.59605e-05
-6.26632e-05
3.7262e-05
-7.06119e-05
3.84308e-05
-7.84535e-05
3.94095e-05
-8.63445e-05
4.01588e-05
-9.44562e-05
4.0674e-05
-0.000102948
4.09194e-05
-0.000111953
4.08867e-05
-0.000121559
4.06063e-05
-0.000131741
4.01031e-05
-0.000142423
3.94792e-05
-0.000153453
3.87726e-05
-0.000164707
3.80769e-05
-0.000176096
3.74265e-05
-0.000187568
3.68276e-05
-0.000199083
3.62682e-05
-0.000210628
3.57512e-05
-0.000222205
3.52707e-05
-0.000233782
3.47926e-05
-0.000245338
3.43183e-05
-0.000256868
3.38545e-05
-0.000268341
3.33724e-05
-0.000279738
3.28689e-05
-0.000291036
3.23532e-05
-0.000302223
3.18145e-05
-0.000313266
3.12327e-05
-0.000324141
3.06256e-05
-0.000334831
2.99812e-05
-0.00034532
2.93066e-05
-0.000355576
2.85763e-05
-0.000365569
2.78046e-05
-0.000375284
2.69904e-05
-0.000384699
2.61286e-05
-0.000393791
2.52177e-05
-0.000402536
2.42589e-05
-0.000410913
2.32527e-05
-0.000418898
2.21957e-05
-0.000426464
2.10965e-05
-0.000433598
1.99763e-05
-0.000440282
1.88327e-05
-0.000446503
1.76775e-05
-0.00045225
1.65201e-05
-0.000457506
1.53656e-05
-0.000462268
1.42362e-05
-0.00046652
1.31378e-05
-0.000470261
1.20862e-05
-0.000473485
1.11058e-05
-0.000476176
1.02015e-05
-0.000478318
9.41284e-06
-0.000479885
8.76818e-06
-0.000480788
8.27467e-06
-0.000480878
7.96325e-06
-0.000479935
7.87216e-06
-0.000477724
8.04587e-06
-0.00047407
8.47867e-06
-0.000468907
9.0386e-06
-0.000462273
9.46198e-06
-0.000454323
9.44582e-06
-0.000445274
8.68891e-06
-0.00043533
6.9923e-06
-0.000424739
4.32995e-06
-0.00041375
7.67235e-07
-0.000402582
-3.57454e-06
-0.000391498
-8.45287e-06
-0.000380896
-1.36778e-05
-0.000371305
-1.89204e-05
-0.000362875
-2.37771e-05
-0.000355506
-2.79033e-05
-0.000348815
-3.11852e-05
-0.000342308
-3.36671e-05
-0.000335529
-3.54707e-05
-0.000328155
-3.67795e-05
-0.000320012
-3.77792e-05
-0.000311015
-3.86377e-05
-0.000301154
-3.9447e-05
-0.000290448
-4.02479e-05
-0.000278966
-4.10385e-05
-0.000266722
-4.18195e-05
-0.000253779
-4.25466e-05
-0.000240202
-4.31946e-05
-0.000226066
-4.37289e-05
-0.000211468
-4.41279e-05
-0.000196512
-4.43729e-05
-0.000181313
-4.445e-05
-0.000165956
-4.43645e-05
-0.000150576
-4.41131e-05
-0.000135297
-4.37014e-05
-0.000120215
-4.31087e-05
-0.000105459
-4.23186e-05
-9.11915e-05
-4.13335e-05
-7.7569e-05
-4.01537e-05
-6.47299e-05
-3.88002e-05
-5.28303e-05
-3.73344e-05
-4.20542e-05
-3.5728e-05
-3.24974e-05
-3.40849e-05
-2.42534e-05
-3.24605e-05
-1.73985e-05
-3.08973e-05
-1.19344e-05
-2.94502e-05
-7.81421e-06
-2.8174e-05
-4.9722e-06
-2.70892e-05
-3.30045e-06
-2.61858e-05
-2.68367e-06
-2.54492e-05
-2.79524e-06
-2.49119e-05
-2.42891e-06
-2.60027e-05
1.98863e-07
-2.97089e-05
-2.28251e-05
-9.39855e-06
2.48769e-05
3.61823e-06
-5.99661e-05
2.53408e-05
-8.84737e-05
4.74951e-05
-8.47181e-05
6.63968e-05
-6.92355e-05
8.16552e-05
-5.4807e-05
9.4726e-05
-4.6961e-05
0.000107517
-4.58955e-05
0.000121471
-4.91039e-05
0.000137166
-5.35479e-05
0.000154338
-5.68991e-05
0.000172185
-5.79119e-05
0.000189702
-5.62366e-05
0.000205936
-5.20763e-05
0.000220116
-4.58982e-05
0.000231733
-3.82776e-05
0.000240508
-2.97645e-05
0.000246361
-2.08593e-05
0.000249348
-1.1974e-05
0.000249658
-3.45734e-06
0.000247464
4.47943e-06
0.000243147
1.16052e-05
0.000236993
1.78612e-05
0.000229279
2.32422e-05
0.000220275
2.7781e-05
0.000210238
3.15114e-05
0.00019938
3.45335e-05
0.000187904
3.69082e-05
0.00017596
3.87402e-05
0.000163666
4.01101e-05
0.000151104
4.11019e-05
0.000138321
4.17925e-05
0.000125341
4.22521e-05
0.000112167
4.2555e-05
9.87886e-05
4.27677e-05
8.52082e-05
4.29483e-05
7.14421e-05
4.31506e-05
5.75187e-05
4.34312e-05
4.34951e-05
4.38089e-05
2.94543e-05
4.43056e-05
1.55205e-05
4.49298e-05
1.8533e-06
4.56706e-05
-1.14016e-05
4.64952e-05
-2.41741e-05
4.73679e-05
-3.64572e-05
4.82437e-05
-4.82648e-05
4.90696e-05
-5.96394e-05
4.98054e-05
-7.06492e-05
5.04193e-05
-8.13923e-05
5.09019e-05
-9.19545e-05
5.12362e-05
-0.000102444
5.14089e-05
-0.000112973
5.14152e-05
-0.000123622
5.12558e-05
-0.000134464
5.09455e-05
-0.000145512
5.05272e-05
-0.000156763
5.00232e-05
-0.00016817
4.94841e-05
-0.000179677
4.89336e-05
-0.000191234
4.83844e-05
-0.000202808
4.78421e-05
-0.000214365
4.73082e-05
-0.000225874
4.67796e-05
-0.000237319
4.62373e-05
-0.000248682
4.56821e-05
-0.000259931
4.51027e-05
-0.000271063
4.45045e-05
-0.000282064
4.387e-05
-0.00029291
4.31999e-05
-0.000303581
4.24847e-05
-0.000314074
4.17257e-05
-0.000324364
4.09161e-05
-0.00033444
4.00573e-05
-0.000344273
3.91391e-05
-0.000353861
3.81644e-05
-0.000363186
3.713e-05
-0.000372232
3.60361e-05
-0.000380983
3.48791e-05
-0.000389428
3.36628e-05
-0.000397555
3.23864e-05
-0.000405347
3.10447e-05
-0.0004128
2.96481e-05
-0.000419915
2.82118e-05
-0.000426665
2.67261e-05
-0.000433039
2.52073e-05
-0.000439025
2.3663e-05
-0.000444608
2.21031e-05
-0.000449786
2.05442e-05
-0.000454531
1.89813e-05
-0.00045883
1.74361e-05
-0.000462664
1.59205e-05
-0.000466
1.44418e-05
-0.000468821
1.30225e-05
-0.000471075
1.16672e-05
-0.000472711
1.0404e-05
-0.00047368
9.24352e-06
-0.000473911
8.19461e-06
-0.000473306
7.26665e-06
-0.000471698
6.43848e-06
-0.000468885
5.66499e-06
-0.000464696
4.84981e-06
-0.000459105
3.87095e-06
-0.00045223
2.57089e-06
-0.000444359
8.18242e-07
-0.000435885
-1.4824e-06
-0.000427198
-4.35651e-06
-0.000418679
-7.75186e-06
-0.000410689
-1.15651e-05
-0.000403502
-1.56392e-05
-0.00039735
-1.98302e-05
-0.000392278
-2.39923e-05
-0.000388111
-2.79444e-05
-0.000384452
-3.15616e-05
-0.000380855
-3.47823e-05
-0.000376925
-3.75973e-05
-0.000372364
-4.00318e-05
-0.000367012
-4.21311e-05
-0.000360827
-4.39645e-05
-0.000353867
-4.55977e-05
-0.000346226
-4.70886e-05
-0.000337994
-4.84798e-05
-0.000329225
-4.98076e-05
-0.000319944
-5.10997e-05
-0.000310168
-5.23226e-05
-0.000299891
-5.34719e-05
-0.000289108
-5.45122e-05
-0.000277797
-5.54383e-05
-0.000265948
-5.62226e-05
-0.000253564
-5.68336e-05
-0.000240664
-5.72644e-05
-0.000227283
-5.74941e-05
-0.000213484
-5.75009e-05
-0.000199281
-5.73118e-05
-0.000184771
-5.68282e-05
-0.000170038
-5.60666e-05
-0.000155211
-5.49805e-05
-0.000140395
-5.36159e-05
-0.000125792
-5.1938e-05
-0.00011152
-4.99998e-05
-9.77691e-05
-4.78358e-05
-8.47336e-05
-4.5496e-05
-7.2548e-05
-4.30828e-05
-6.13436e-05
-4.06546e-05
-5.12267e-05
-3.82909e-05
-4.23096e-05
-3.60063e-05
-3.47384e-05
-3.3757e-05
-2.85101e-05
-3.16775e-05
-2.25706e-05
-3.08514e-05
-1.44852e-05
-3.4088e-05
-3.82956e-06
-4.03646e-05
-2.66546e-05
-1.23651e-05
3.7242e-05
-2.29771e-06
-7.00335e-05
1.69462e-05
-0.000107718
3.75948e-05
-0.000105367
5.59057e-05
-8.75464e-05
7.11928e-05
-7.00941e-05
8.48622e-05
-6.06304e-05
9.89343e-05
-5.99675e-05
0.00011499
-6.51595e-05
0.000133631
-7.21891e-05
0.000154468
-7.77362e-05
0.000176417
-7.98603e-05
0.000198087
-7.7907e-05
0.000218148
-7.21372e-05
0.000235573
-6.3323e-05
0.000249707
-5.24115e-05
0.000260258
-4.03163e-05
0.00026722
-2.78214e-05
0.000270788
-1.55411e-05
0.000271259
-3.92928e-06
0.000269014
6.72489e-06
0.000264444
1.61748e-05
0.000257924
2.43812e-05
0.000249779
3.13878e-05
0.000240313
3.7247e-05
0.00022978
4.20442e-05
0.000218403
4.59102e-05
0.000206346
4.89658e-05
0.000193762
5.1324e-05
0.000180774
5.30983e-05
0.000167478
5.43977e-05
0.000153947
5.53235e-05
0.000140231
5.59679e-05
0.000126379
5.64072e-05
0.000112437
5.67098e-05
9.84477e-05
5.69373e-05
8.44544e-05
5.7144e-05
7.05085e-05
5.73771e-05
5.66571e-05
5.76604e-05
4.29445e-05
5.80181e-05
2.94157e-05
5.84586e-05
1.61077e-05
5.89786e-05
3.03818e-06
5.95647e-05
-9.77714e-06
6.01832e-05
-2.23428e-05
6.08093e-05
-3.46768e-05
6.14035e-05
-4.68005e-05
6.19292e-05
-5.87425e-05
6.23614e-05
-7.0521e-05
6.26804e-05
-8.21655e-05
6.28806e-05
-9.37091e-05
6.29526e-05
-0.000105193
6.28994e-05
-0.000116665
6.27271e-05
-0.000128168
6.24488e-05
-0.000139714
6.20729e-05
-0.000151326
6.16356e-05
-0.00016299
6.11485e-05
-0.000174684
6.06273e-05
-0.000186397
6.00974e-05
-0.000198081
5.95259e-05
-0.000209718
5.89457e-05
-0.000221286
5.83471e-05
-0.000232766
5.77174e-05
-0.00024414
5.70558e-05
-0.000255394
5.63572e-05
-0.000266511
5.56218e-05
-0.000277478
5.48366e-05
-0.000288282
5.40038e-05
-0.000298906
5.31092e-05
-0.00030934
5.21597e-05
-0.000319571
5.11471e-05
-0.000329594
5.00795e-05
-0.000339379
4.89249e-05
-0.000348925
4.77097e-05
-0.00035822
4.64248e-05
-0.000367252
4.50687e-05
-0.000376014
4.36408e-05
-0.000384497
4.21456e-05
-0.000392683
4.0573e-05
-0.000400571
3.89329e-05
-0.000408155
3.7232e-05
-0.000415417
3.54735e-05
-0.000422351
3.36596e-05
-0.000428944
3.18005e-05
-0.000435181
2.98997e-05
-0.000441045
2.79676e-05
-0.000446516
2.60153e-05
-0.000451583
2.40479e-05
-0.00045621
2.20634e-05
-0.000460381
2.00917e-05
-0.000464067
1.8128e-05
-0.000467233
1.61881e-05
-0.000469847
1.42815e-05
-0.000471859
1.24157e-05
-0.000473201
1.05852e-05
-0.000473818
8.81224e-06
-0.000473627
7.07495e-06
-0.000472556
5.36786e-06
-0.00047053
3.63927e-06
-0.000467533
1.8526e-06
-0.000463593
-6.93195e-08
-0.000458799
-2.22281e-06
-0.000453302
-4.67915e-06
-0.00044732
-7.46436e-06
-0.000441078
-1.05982e-05
-0.000434773
-1.40572e-05
-0.000428542
-1.77953e-05
-0.000422444
-2.17375e-05
-0.000416496
-2.57787e-05
-0.000410684
-2.98036e-05
-0.000404948
-3.36811e-05
-0.000399199
-3.73102e-05
-0.000393362
-4.06188e-05
-0.000387378
-4.3582e-05
-0.000381203
-4.62069e-05
-0.000374804
-4.85294e-05
-0.000368168
-5.06007e-05
-0.000361297
-5.24689e-05
-0.000354198
-5.41872e-05
-0.000346883
-5.57952e-05
-0.000339372
-5.73183e-05
-0.000331717
-5.87552e-05
-0.00032389
-6.0149e-05
-0.000315862
-6.15003e-05
-0.000307618
-6.27556e-05
-0.000299108
-6.39483e-05
-0.000290312
-6.50189e-05
-0.000281159
-6.59865e-05
-0.000271605
-6.68182e-05
-0.000261607
-6.74923e-05
-0.000251126
-6.79824e-05
-0.000240174
-6.82631e-05
-0.000228703
-6.82993e-05
-0.000216717
-6.8053e-05
-0.000204206
-6.74913e-05
-0.000191224
-6.65976e-05
-0.000177818
-6.53448e-05
-0.000164055
-6.37622e-05
-0.000150038
-6.18529e-05
-0.000135868
-5.96658e-05
-0.000121676
-5.72752e-05
-0.000107563
-5.47673e-05
-9.36935e-05
-5.21606e-05
-8.03508e-05
-4.93489e-05
-6.78632e-05
-4.62446e-05
-5.60218e-05
-4.35189e-05
-4.30255e-05
-4.38477e-05
-2.64912e-05
-5.06223e-05
-8.31174e-06
-5.85441e-05
-3.49664e-05
-1.61137e-05
5.33557e-05
-1.08422e-05
-7.5305e-05
3.6759e-06
-0.000122236
2.13862e-05
-0.000123077
3.82319e-05
-0.000104392
5.31017e-05
-8.4964e-05
6.74072e-05
-7.49359e-05
8.34178e-05
-7.59781e-05
0.00010277
-8.45119e-05
0.000125963
-9.53819e-05
0.0001523
-0.000104074
0.000180202
-0.000107762
0.000207646
-0.00010535
0.000232664
-9.71557e-05
0.000253767
-8.44262e-05
0.000270128
-6.87723e-05
0.000281542
-5.17302e-05
0.00028824
-3.4519e-05
0.000290711
-1.80122e-05
0.000289528
-2.74652e-06
0.000285306
1.09469e-05
0.000278694
2.27871e-05
0.000270131
3.29439e-05
0.000260073
4.14455e-05
0.000248845
4.84747e-05
0.000236726
5.4164e-05
0.000223958
5.86777e-05
0.000210715
6.22093e-05
0.000197132
6.49064e-05
0.000183319
6.69119e-05
0.000169345
6.83716e-05
0.000155265
6.94031e-05
0.000141135
7.00982e-05
0.000126988
7.05542e-05
0.000112851
7.08466e-05
9.87579e-05
7.10303e-05
8.47373e-05
7.11646e-05
7.08242e-05
7.12902e-05
5.70464e-05
7.14381e-05
4.34359e-05
7.16286e-05
3.00208e-05
7.18737e-05
1.683e-05
7.21694e-05
3.89053e-06
7.25042e-05
-8.7908e-06
7.28645e-05
-2.1217e-05
7.32355e-05
-3.34183e-05
7.36048e-05
-4.54081e-05
7.39189e-05
-5.7231e-05
7.41843e-05
-6.89288e-05
7.43781e-05
-8.05367e-05
7.44885e-05
-9.20884e-05
7.45043e-05
-0.000103613
7.44238e-05
-0.000115135
7.42488e-05
-0.00012668
7.3994e-05
-0.000138262
7.3655e-05
-0.000149882
7.32557e-05
-0.000161537
7.28039e-05
-0.000173214
7.23041e-05
-0.000184881
7.17644e-05
-0.000196542
7.11866e-05
-0.000208168
7.0572e-05
-0.000219727
6.99059e-05
-0.000231216
6.92067e-05
-0.000242622
6.84616e-05
-0.000253924
6.76595e-05
-0.000265098
6.67952e-05
-0.000276145
6.58835e-05
-0.000287041
6.48996e-05
-0.00029778
6.38486e-05
-0.000308345
6.27246e-05
-0.000318728
6.15302e-05
-0.000328902
6.02538e-05
-0.000338874
5.88961e-05
-0.000348618
5.74543e-05
-0.000358127
5.59333e-05
-0.000367387
5.43292e-05
-0.000376388
5.2642e-05
-0.000385122
5.0879e-05
-0.000393566
4.90175e-05
-0.000401718
4.7085e-05
-0.000409564
4.50779e-05
-0.00041709
4.29995e-05
-0.00042428
4.08498e-05
-0.000431119
3.86396e-05
-0.000437592
3.63725e-05
-0.000443672
3.40474e-05
-0.000449339
3.16818e-05
-0.000454566
2.92757e-05
-0.00045935
2.68474e-05
-0.000463644
2.4385e-05
-0.000467425
2.19089e-05
-0.000470653
1.94164e-05
-0.000473291
1.69196e-05
-0.000475298
1.44227e-05
-0.000476653
1.19399e-05
-0.000477289
9.4482e-06
-0.000477166
6.95202e-06
-0.000476227
4.42913e-06
-0.000474462
1.87427e-06
-0.000471843
-7.6612e-07
-0.000468379
-3.53304e-06
-0.000464134
-6.46805e-06
-0.000459213
-9.60053e-06
-0.000453717
-1.29599e-05
-0.00044777
-1.65453e-05
-0.000441502
-2.03258e-05
-0.000435043
-2.42538e-05
-0.000428523
-2.82574e-05
-0.000422023
-3.22786e-05
-0.000415589
-3.62378e-05
-0.000409217
-4.00537e-05
-0.000402865
-4.36622e-05
-0.000396466
-4.70178e-05
-0.000389946
-5.0102e-05
-0.000383248
-5.29049e-05
-0.000376334
-5.54434e-05
-0.0003692
-5.77341e-05
-0.00036185
-5.98188e-05
-0.000354322
-6.17156e-05
-0.000346658
-6.34589e-05
-0.000338888
-6.50888e-05
-0.000331031
-6.66124e-05
-0.000323134
-6.8046e-05
-0.000315234
-6.93997e-05
-0.000307298
-7.06914e-05
-0.000299336
-7.19105e-05
-0.000291296
-7.30589e-05
-0.000283156
-7.41267e-05
-0.000274873
-7.51009e-05
-0.000266402
-7.59637e-05
-0.000257686
-7.66982e-05
-0.000248668
-7.72812e-05
-0.000239288
-7.7679e-05
-0.000229483
-7.78587e-05
-0.000219188
-7.77862e-05
-0.000208358
-7.74271e-05
-0.000196932
-7.67707e-05
-0.000184903
-7.57911e-05
-0.00017225
-7.45067e-05
-0.000158985
-7.29305e-05
-0.000145142
-7.11179e-05
-0.000130762
-6.9148e-05
-0.000115985
-6.69379e-05
-0.00010106
-6.42737e-05
-8.62353e-05
-6.10691e-05
-7.10556e-05
-5.86987e-05
-5.37873e-05
-6.1116e-05
-3.28951e-05
-7.15146e-05
-1.12068e-05
-8.02324e-05
-4.61731e-05
-2.0934e-05
7.42897e-05
-2.33516e-05
-7.28873e-05
-1.58626e-05
-0.000129725
-2.63012e-06
-0.000136309
1.06442e-05
-0.000117666
2.35101e-05
-9.78299e-05
3.82824e-05
-8.97082e-05
5.77987e-05
-9.54943e-05
8.32633e-05
-0.000109976
0.000114465
-0.000126584
0.000149768
-0.000139377
0.000186746
-0.00014474
0.000222649
-0.000141253
0.000254817
-0.000129324
0.000281081
-0.00011069
0.00030022
-8.79109e-05
0.00031217
-6.36801e-05
0.000317662
-4.00118e-05
0.000317754
-1.81035e-05
0.000313446
1.561e-06
0.000305909
1.84839e-05
0.000295923
3.27739e-05
0.000284156
4.47102e-05
0.000271113
5.44887e-05
0.000257226
6.23618e-05
0.000242804
6.85856e-05
0.000228053
7.34294e-05
0.000213144
7.71184e-05
0.000198195
7.98552e-05
0.000183266
8.18406e-05
0.00016841
8.32273e-05
0.000153671
8.41422e-05
0.000139067
8.47025e-05
0.000124617
8.50038e-05
0.000110334
8.513e-05
9.6215e-05
8.51494e-05
8.22684e-05
8.51111e-05
6.8515e-05
8.50437e-05
5.49503e-05
8.50028e-05
4.15857e-05
8.49932e-05
2.8434e-05
8.50254e-05
1.5487e-05
8.51164e-05
2.74985e-06
8.52413e-05
-9.78789e-06
8.54023e-05
-2.21286e-05
8.55762e-05
-3.42766e-05
8.57528e-05
-4.62712e-05
8.59135e-05
-5.81341e-05
8.60473e-05
-6.98912e-05
8.61352e-05
-8.15704e-05
8.61677e-05
-9.31998e-05
8.61338e-05
-0.000104807
8.60308e-05
-0.000116412
8.58544e-05
-0.00012802
8.56019e-05
-0.000139657
8.52918e-05
-0.000151317
8.49156e-05
-0.000162996
8.44823e-05
-0.000174688
8.39968e-05
-0.000186381
8.34571e-05
-0.000198058
8.28641e-05
-0.000209709
8.2223e-05
-0.000221323
8.15198e-05
-0.000232877
8.07603e-05
-0.000244355
7.99401e-05
-0.000255744
7.90481e-05
-0.000267036
7.80875e-05
-0.000278208
7.70554e-05
-0.000289246
7.59378e-05
-0.000300138
7.47406e-05
-0.000310871
7.34572e-05
-0.000321438
7.20968e-05
-0.000331804
7.06201e-05
-0.000341968
6.90601e-05
-0.000351921
6.74072e-05
-0.000361643
6.56555e-05
-0.00037112
6.38057e-05
-0.000380335
6.18572e-05
-0.000389279
5.98234e-05
-0.000397937
5.76753e-05
-0.00040629
5.5438e-05
-0.000414323
5.31113e-05
-0.00042202
5.06961e-05
-0.000429366
4.81957e-05
-0.000436338
4.56113e-05
-0.000442913
4.29484e-05
-0.000449087
4.0221e-05
-0.000454824
3.74192e-05
-0.000460105
3.45563e-05
-0.000464894
3.16366e-05
-0.000469173
2.86642e-05
-0.000472909
2.56445e-05
-0.000476088
2.25956e-05
-0.000478667
1.94989e-05
-0.000480616
1.63709e-05
-0.000481886
1.32096e-05
-0.000482451
1.00139e-05
-0.000482283
6.78409e-06
-0.00048136
3.50611e-06
-0.000479654
1.6803e-07
-0.000477171
-3.24956e-06
-0.000473932
-6.77201e-06
-0.000469985
-1.04141e-05
-0.000465391
-1.41948e-05
-0.000460238
-1.81127e-05
-0.000454629
-2.21543e-05
-0.00044865
-2.6305e-05
-0.000442381
-3.05234e-05
-0.00043588
-3.47583e-05
-0.000429196
-3.8962e-05
-0.000422387
-4.30472e-05
-0.000415455
-4.69855e-05
-0.000408392
-5.07253e-05
-0.000401193
-5.42164e-05
-0.000393852
-5.74437e-05
-0.000386355
-6.04015e-05
-0.000378706
-6.30925e-05
-0.000370894
-6.55462e-05
-0.000362942
-6.77701e-05
-0.00035486
-6.97982e-05
-0.00034666
-7.1659e-05
-0.00033837
-7.33785e-05
-0.000330019
-7.49634e-05
-0.000321631
-7.64343e-05
-0.000313212
-7.78185e-05
-0.000304779
-7.91245e-05
-0.000296346
-8.03437e-05
-0.000287915
-8.14896e-05
-0.000279469
-8.2573e-05
-0.00027099
-8.35793e-05
-0.000262444
-8.45099e-05
-0.000253813
-8.53297e-05
-0.000245044
-8.60498e-05
-0.000236087
-8.66362e-05
-0.000226865
-8.70804e-05
-0.000217302
-8.73488e-05
-0.000207342
-8.73874e-05
-0.000196905
-8.72083e-05
-0.00018589
-8.68052e-05
-0.000174276
-8.61213e-05
-0.000161991
-8.52153e-05
-0.000148984
-8.41246e-05
-0.000135252
-8.28799e-05
-0.000120829
-8.13613e-05
-0.000105852
-7.92504e-05
-9.04048e-05
-7.65164e-05
-7.41361e-05
-7.49674e-05
-5.59414e-05
-7.93106e-05
-3.47946e-05
-9.26614e-05
-1.27982e-05
-0.000102229
-5.89713e-05
-2.67973e-05
0.000101087
-3.74461e-05
-6.22385e-05
-3.54987e-05
-0.000131672
-3.01797e-05
-0.000141628
-2.70315e-05
-0.000120815
-2.12012e-05
-0.00010366
-7.72906e-06
-0.00010318
1.66723e-05
-0.000119896
5.29723e-05
-0.000146277
9.90755e-05
-0.000172687
0.000150368
-0.00019067
0.000201815
-0.000196187
0.000249144
-0.000188582
0.000289587
-0.000169767
0.000321388
-0.000142491
0.00034331
-0.000109834
0.000355136
-7.55056e-05
0.000358072
-4.2948e-05
0.000354088
-1.41191e-05
0.000345066
1.05827e-05
0.000332735
3.08152e-05
0.00031813
4.7379e-05
0.000302116
6.07239e-05
0.000285298
7.13067e-05
0.000268143
7.95165e-05
0.000250941
8.57877e-05
0.000233884
9.0486e-05
0.000217102
9.39006e-05
0.000200641
9.6316e-05
0.00018454
9.79417e-05
0.000168809
9.89581e-05
0.000153431
9.95208e-05
0.000138394
9.97388e-05
0.000123667
9.97316e-05
0.000109227
9.95695e-05
9.50596e-05
9.93168e-05
8.11456e-05
9.90252e-05
6.7455e-05
9.87343e-05
5.39956e-05
9.84622e-05
4.07442e-05
9.82445e-05
2.76993e-05
9.80703e-05
1.4851e-05
9.79648e-05
2.18745e-06
9.79049e-05
-1.02943e-05
9.78841e-05
-2.26183e-05
9.79002e-05
-3.4795e-05
9.79295e-05
-4.68447e-05
9.79631e-05
-5.87836e-05
9.79862e-05
-7.0638e-05
9.79897e-05
-8.2438e-05
9.79676e-05
-9.41967e-05
9.78925e-05
-0.000105938
9.77726e-05
-0.00011767
9.75856e-05
-0.000129415
9.73475e-05
-0.000141172
9.7049e-05
-0.000152948
9.6691e-05
-0.000164741
9.62751e-05
-0.000176538
9.57945e-05
-0.000188344
9.52624e-05
-0.000200136
9.46562e-05
-0.0002119
9.39874e-05
-0.000223628
9.32478e-05
-0.000235308
9.24402e-05
-0.000246918
9.15504e-05
-0.000258456
9.05858e-05
-0.000269902
8.95338e-05
-0.000281233
8.83856e-05
-0.000292442
8.71471e-05
-0.000303512
8.58108e-05
-0.000314432
8.43768e-05
-0.000325169
8.28338e-05
-0.00033573
8.11819e-05
-0.000346092
7.94218e-05
-0.000356235
7.75504e-05
-0.000366147
7.55672e-05
-0.000375811
7.347e-05
-0.000385216
7.12619e-05
-0.000394335
6.89429e-05
-0.000403159
6.64984e-05
-0.00041167
6.39492e-05
-0.000419852
6.1294e-05
-0.000427688
5.85318e-05
-0.000435157
5.5665e-05
-0.000442243
5.26969e-05
-0.000448921
4.96259e-05
-0.000455168
4.64683e-05
-0.000460968
4.32192e-05
-0.000466299
3.98871e-05
-0.000471132
3.64699e-05
-0.000475444
3.29762e-05
-0.000479212
2.94125e-05
-0.000482395
2.57782e-05
-0.000484974
2.20785e-05
-0.000486922
1.83188e-05
-0.000488204
1.44911e-05
-0.000488798
1.06085e-05
-0.000488679
6.66486e-06
-0.000487826
2.65357e-06
-0.000486228
-1.43036e-06
-0.000483893
-5.58426e-06
-0.00048083
-9.83515e-06
-0.000477079
-1.41651e-05
-0.000472682
-1.85918e-05
-0.000467705
-2.309e-05
-0.000462216
-2.7643e-05
-0.00045628
-3.22411e-05
-0.000449982
-3.68214e-05
-0.000443383
-4.1357e-05
-0.000436536
-4.5809e-05
-0.000429467
-5.01163e-05
-0.000422209
-5.4244e-05
-0.000414802
-5.81319e-05
-0.000407232
-6.17868e-05
-0.000399486
-6.5189e-05
-0.000391568
-6.832e-05
-0.000383479
-7.11812e-05
-0.000375236
-7.37899e-05
-0.000366844
-7.61614e-05
-0.00035831
-7.83325e-05
-0.000349659
-8.03099e-05
-0.000340914
-8.21236e-05
-0.000332085