/*--------------------------------*- C++ -*----------------------------------*\
| =========                 |                                                 |
| \\      /  F ield         | OpenFOAM: The Open Source CFD Toolbox           |
|  \\    /   O peration     | Version:  v2006                                 |
|   \\  /    A nd           | Website:  www.openfoam.com                      |
|    \\/     M anipulation  |                                                 |
\*---------------------------------------------------------------------------*/
FoamFile
{
    version     2.0;
    format      ascii;
    class       volScalarField;
    location    "0";
    object      f;
}
// * * * * * * * * * * * * * * * * * * * * * * * * * * * * * * * * * * * * * //

dimensions      [0 0 0 0 0 0 0];


internalField   nonuniform List<scalar> 
2500
(
-1.5061e-20
-1.506e-20
-1.50538e-20
-1.5053e-20
-1.50581e-20
-1.48841e-20
-1.41059e-20
-1.25068e-20
-1.04449e-20
-8.59e-21
-7.23688e-21
-6.02117e-21
-4.39694e-21
-2.26739e-21
-1.86168e-22
1.07376e-21
1.1985e-21
5.61161e-22
-1.51174e-22
-4.72678e-22
-3.88156e-22
-1.58105e-22
-1.22434e-23
-5.60262e-24
-7.25065e-23
-1.34716e-22
-1.56451e-22
-1.41095e-22
-1.07429e-22
-7.20791e-23
-4.37155e-23
-2.43664e-23
-1.26248e-23
-6.13007e-24
-2.80589e-24
-1.21593e-24
-5.00391e-25
-1.95955e-25
-7.31019e-26
-2.5983e-26
-8.79043e-27
-2.8236e-27
-8.56944e-28
-2.43524e-28
-6.36763e-29
-1.47446e-29
-2.71316e-30
-2.08953e-31
1.35919e-31
1.02302e-31
-4.25176e-20
-4.25148e-20
-4.24928e-20
-4.25161e-20
-4.27002e-20
-4.25123e-20
-4.03888e-20
-3.54681e-20
-2.90827e-20
-2.38305e-20
-2.0881e-20
-1.86926e-20
-1.48096e-20
-8.38066e-21
-1.20787e-21
3.63585e-21
4.51525e-21
2.42594e-21
-2.09211e-22
-1.5519e-21
-1.37797e-21
-5.77702e-22
-2.12747e-23
4.51118e-23
-1.6417e-22
-3.73783e-22
-4.54945e-22
-4.15568e-22
-3.16472e-22
-2.11162e-22
-1.26993e-22
-7.00804e-23
-3.59171e-23
-1.72409e-23
-7.79804e-24
-3.33776e-24
-1.35607e-24
-5.23984e-25
-1.92761e-25
-6.75208e-26
-2.24997e-26
-7.11655e-27
-2.12767e-27
-5.96854e-28
-1.5498e-28
-3.62406e-29
-7.13133e-30
-9.09964e-31
9.97318e-32
1.35805e-31
-1.15135e-19
-1.15128e-19
-1.15042e-19
-1.15155e-19
-1.16226e-19
-1.16857e-19
-1.11351e-19
-9.6298e-20
-7.6544e-20
-6.19638e-20
-5.72277e-20
-5.6237e-20
-4.87283e-20
-3.0001e-20
-5.65863e-21
1.2525e-20
1.70404e-20
1.02517e-20
5.77668e-22
-4.89954e-21
-4.77285e-21
-2.03872e-21
3.30446e-23
3.89872e-22
-2.69784e-22
-9.78453e-22
-1.2788e-21
-1.18913e-21
-9.06294e-22
-6.00877e-22
-3.57843e-22
-1.95199e-22
-9.87882e-23
-4.67929e-23
-2.08719e-23
-8.80469e-24
-3.52295e-24
-1.33952e-24
-4.84459e-25
-1.66683e-25
-5.45211e-26
-1.69289e-26
-4.97784e-27
-1.38151e-27
-3.60378e-28
-8.79816e-29
-2.0068e-29
-4.31573e-30
-9.11995e-31
-2.09958e-31
-2.98401e-19
-2.98386e-19
-2.9804e-19
-2.98332e-19
-3.029e-19
-3.08737e-19
-2.95331e-19
-2.49244e-19
-1.8775e-19
-1.47523e-19
-1.47091e-19
-1.6363e-19
-1.56585e-19
-1.04264e-19
-2.31089e-20
4.3478e-20
6.36284e-20
4.17721e-20
6.69308e-21
-1.50279e-20
-1.63143e-20
-7.07003e-21
5.24738e-22
2.12281e-21
1.88617e-23
-2.38052e-21
-3.47232e-21
-3.30644e-21
-2.52247e-21
-1.65947e-21
-9.76758e-22
-5.25556e-22
-2.62054e-22
-1.22191e-22
-5.36088e-23
-2.22225e-23
-8.72768e-24
-3.25297e-24
-1.15161e-24
-3.87334e-25
-1.23771e-25
-3.75877e-26
-1.08694e-26
-3.01157e-27
-8.12047e-28
-2.20093e-28
-6.31041e-29
-2.00928e-29
-7.14551e-30
-2.71877e-30
-7.38309e-19
-7.38295e-19
-7.36933e-19
-7.36932e-19
-7.53337e-19
-7.83112e-19
-7.53371e-19
-6.11407e-19
-4.17802e-19
-3.05246e-19
-3.45969e-19
-4.58826e-19
-4.90757e-19
-3.52146e-19
-8.7602e-20
1.4977e-19
2.32341e-19
1.62847e-19
3.79428e-20
-4.54688e-20
-5.56039e-20
-2.44227e-20
3.17727e-21
9.71624e-21
2.89154e-21
-5.23111e-21
-9.10801e-21
-8.94047e-21
-6.82293e-21
-4.44381e-21
-2.57818e-21
-1.36445e-21
-6.6831e-22
-3.05775e-22
-1.31477e-22
-5.33343e-23
-2.046e-23
-7.43221e-24
-2.55821e-24
-8.34874e-25
-2.58747e-25
-7.65272e-26
-2.18732e-26
-6.21121e-27
-1.83882e-27
-5.99861e-28
-2.20347e-28
-8.81386e-29
-3.63095e-29
-1.47698e-29
-1.73879e-18
-1.73889e-18
-1.73383e-18
-1.72858e-18
-1.77966e-18
-1.90586e-18
-1.85134e-18
-1.41019e-18
-7.92409e-19
-4.65349e-19
-7.03148e-19
-1.23203e-18
-1.496e-18
-1.15564e-18
-3.18873e-19
5.02319e-19
8.2115e-19
6.04336e-19
1.70454e-19
-1.38697e-19
-1.90596e-19
-8.4924e-20
1.50377e-20
4.03662e-20
1.77283e-20
-9.73034e-21
-2.31241e-20
-2.35493e-20
-1.79381e-20
-1.15252e-20
-6.56591e-21
-3.40464e-21
-1.63146e-21
-7.29171e-22
-3.05684e-22
-1.20591e-22
-4.48392e-23
-1.57233e-23
-5.20103e-24
-1.62518e-24
-4.82494e-25
-1.38454e-25
-3.99831e-26
-1.24573e-26
-4.47026e-27
-1.84113e-27
-8.13557e-28
-3.61085e-28
-1.55261e-28
-6.37749e-29
-3.88451e-18
-3.88528e-18
-3.868e-18
-3.82849e-18
-3.96492e-18
-4.45509e-18
-4.40824e-18
-3.02678e-18
-1.02933e-18
-2.36725e-20
-1.01577e-18
-3.13178e-18
-4.41573e-18
-3.67958e-18
-1.13877e-18
1.60538e-18
2.78585e-18
2.12771e-18
6.66524e-19
-4.36808e-19
-6.60152e-19
-2.99141e-19
6.29683e-20
1.57468e-19
8.02618e-20
-1.2338e-20
-5.71831e-20
-6.06227e-20
-4.58616e-20
-2.89062e-20
-1.60839e-20
-8.12778e-21
-3.78863e-21
-1.64329e-21
-6.66287e-22
-2.52991e-22
-8.99411e-23
-2.98934e-23
-9.27631e-24
-2.69487e-24
-7.46038e-25
-2.08427e-25
-6.60841e-26
-2.62882e-26
-1.24765e-26
-6.2243e-27
-3.01801e-27
-1.38421e-27
-5.9787e-28
-2.43872e-28
-8.19793e-18
-8.20174e-18
-8.14899e-18
-7.93905e-18
-8.23431e-18
-1.00586e-17
-1.03173e-17
-5.98812e-18
5.53064e-19
3.8412e-18
3.12861e-19
-7.37231e-18
-1.25433e-17
-1.13358e-17
-4.03115e-18
4.76134e-18
9.02793e-18
7.09926e-18
2.34966e-18
-1.43917e-18
-2.30789e-18
-1.06844e-18
2.45513e-19
5.88499e-19
3.1637e-19
5.03072e-21
-1.39747e-19
-1.53343e-19
-1.14101e-19
-6.99565e-20
-3.77273e-20
-1.8439e-20
-8.29055e-21
-3.45372e-21
-1.3358e-21
-4.78752e-22
-1.58101e-22
-4.76511e-23
-1.29497e-23
-3.16063e-24
-7.35924e-25
-2.152e-25
-1.05466e-25
-6.6231e-26
-4.00873e-26
-2.19267e-26
-1.08928e-26
-4.9871e-27
-2.13103e-27
-8.58079e-28
-1.62595e-17
-1.62745e-17
-1.61407e-17
-1.52039e-17
-1.56217e-17
-2.22722e-17
-2.44058e-17
-1.1045e-17
1.07158e-17
2.20237e-17
1.06665e-17
-1.53122e-17
-3.4071e-17
-3.36618e-17
-1.41187e-17
1.25729e-17
2.79783e-17
2.25339e-17
7.61328e-18
-4.92207e-18
-8.0908e-18
-3.85417e-18
9.19069e-19
2.14e-18
1.14369e-18
1.00089e-19
-3.46831e-19
-3.83971e-19
-2.76358e-19
-1.62764e-19
-8.41502e-20
-3.93327e-20
-1.683e-20
-6.61101e-21
-2.37215e-21
-7.66399e-22
-2.16146e-22
-4.95168e-23
-7.27397e-24
3.56459e-25
5.44505e-25
1.69252e-27
-2.16244e-25
-2.09194e-25
-1.38862e-25
-7.67133e-26
-3.76643e-26
-1.6958e-26
-7.1269e-27
-2.82704e-27
-3.01028e-17
-3.01527e-17
-2.99501e-17
-2.6257e-17
-2.60464e-17
-4.9794e-17
-6.07622e-17
-2.12227e-17
5.30189e-17
9.32946e-17
5.86871e-17
-2.44071e-17
-8.84445e-17
-9.59042e-17
-4.8515e-17
2.71343e-17
8.40058e-17
6.91243e-17
2.29849e-17
-1.70706e-17
-2.82257e-17
-1.39528e-17
3.36369e-18
7.68757e-18
3.8788e-18
3.89378e-19
-9.08592e-19
-9.59398e-19
-6.5078e-19
-3.61608e-19
-1.76389e-19
-7.74571e-20
-3.07815e-20
-1.0961e-20
-3.38826e-21
-8.32238e-22
-1.08596e-22
3.61356e-23
3.61249e-23
1.72635e-23
5.37739e-24
5.376e-25
-7.4118e-25
-7.48932e-25
-4.83861e-25
-2.59331e-25
-1.24002e-25
-5.46067e-26
-2.25296e-26
-8.80027e-27
-5.15409e-17
-5.16791e-17
-5.225e-17
-3.91957e-17
-3.49836e-17
-1.15298e-16
-1.65774e-16
-5.59707e-17
2.08976e-16
3.60498e-16
2.51223e-16
-1.2358e-17
-2.24045e-16
-2.5968e-16
-1.64707e-16
3.81928e-17
2.58771e-16
2.15444e-16
6.46301e-17
-5.86291e-17
-9.81143e-17
-5.04957e-17
1.19586e-17
2.7774e-17
1.24676e-17
8.1964e-19
-2.59532e-18
-2.40183e-18
-1.48093e-18
-7.5696e-19
-3.39964e-19
-1.35817e-19
-4.74448e-20
-1.35788e-20
-2.44763e-21
3.69072e-22
6.55039e-22
4.12069e-22
1.89841e-22
6.85007e-23
1.72209e-23
3.22917e-25
-3.17973e-24
-2.7042e-24
-1.6293e-24
-8.36561e-25
-3.87982e-25
-1.66918e-25
-6.76018e-26
-2.60094e-26
-8.05027e-17
-8.07986e-17
-8.84519e-17
-4.72901e-17
-2.96792e-17
-2.65609e-16
-5.34864e-16
-1.94185e-16
8.54064e-16
1.47627e-15
9.98316e-16
7.86686e-17
-5.80353e-16
-6.36803e-16
-6.06452e-16
8.59332e-18
1.54243e-15
7.77387e-16
1.54827e-16
-2.16632e-16
-3.61412e-16
-1.84786e-16
3.8665e-17
1.0402e-16
3.79856e-17
-8.37452e-19
-8.0716e-18
-5.97845e-18
-3.2007e-18
-1.45173e-18
-5.75208e-19
-1.93825e-19
-4.8839e-20
-3.0666e-21
6.61067e-21
5.79693e-21
3.34786e-21
1.5624e-21
6.09144e-22
1.89596e-22
3.59253e-23
-7.39141e-24
-1.3009e-23
-9.30336e-24
-5.21247e-24
-2.56275e-24
-1.15332e-24
-4.8507e-25
-1.92969e-25
-7.3169e-26
-1.12257e-16
-1.12591e-16
-1.58015e-16
-4.48924e-17
-4.76793e-17
-1.36524e-15
-2.64584e-15
1.94882e-17
4.52158e-15
5.13628e-15
2.66373e-15
-1.19296e-15
-2.30874e-15
-1.15505e-15
-2.32033e-15
2.45245e-14
1.50851e-14
2.48507e-15
-1.91974e-15
-3.06485e-15
-1.92088e-15
-7.02193e-16
1.23449e-16
4.59814e-16
1.07587e-16
-2.11906e-17
-2.61852e-17
-1.4329e-17
-6.28993e-18
-2.38713e-18
-7.51881e-19
-1.52451e-19
2.51996e-20
5.30356e-20
3.97165e-20
2.25632e-20
1.08188e-20
4.47511e-21
1.56109e-21
4.10963e-22
3.54628e-23
-4.98675e-23
-4.78163e-23
-2.99656e-23
-1.57529e-23
-7.44371e-24
-3.25722e-24
-1.34102e-24
-5.24487e-25
-1.96116e-25
-1.34654e-16
-1.34117e-16
-2.95242e-16
9.6878e-16
-1.14711e-14
-2.20176e-14
-1.07732e-14
6.29507e-14
2.09988e-14
4.18935e-15
-7.35574e-14
-1.31447e-13
-1.86136e-14
2.58563e-13
3.57188e-13
2.37821e-13
5.07256e-14
-1.01007e-13
-6.53351e-14
-2.694e-14
-9.58572e-15
-2.0348e-15
6.41882e-15
2.92655e-15
2.28881e-16
-1.64521e-16
-8.2096e-17
-3.02958e-17
-9.97571e-18
-2.71274e-18
-3.3673e-19
2.84321e-19
3.29733e-19
2.31513e-19
1.32281e-19
6.55511e-20
2.8578e-20
1.08123e-20
3.34216e-21
6.51454e-22
-1.10527e-22
-2.17086e-22
-1.58524e-22
-9.01204e-23
-4.49111e-23
-2.04874e-23
-8.73764e-24
-3.52642e-24
-1.35722e-24
-5.00758e-25
7.78464e-14
4.69139e-14
4.35068e-14
5.73769e-14
-6.94895e-14
-1.26214e-13
2.22683e-13
2.68702e-13
3.74161e-14
-1.68732e-12
-2.09231e-12
-9.21628e-13
1.28601e-12
2.61848e-12
2.13709e-12
6.73034e-13
-1.62979e-12
-1.08649e-12
-2.90504e-13
-6.11543e-14
-2.02543e-14
1.04691e-13
5.67046e-14
9.3206e-15
-3.10218e-15
-1.09388e-15
-1.99447e-16
-4.13278e-17
-7.20773e-18
7.17781e-19
2.09854e-18
1.79613e-18
1.19406e-18
6.87872e-19
3.52885e-19
1.61802e-19
6.55211e-20
2.2536e-20
5.77919e-21
3.59197e-22
-8.37201e-22
-7.68708e-22
-4.79759e-22
-2.53408e-22
-1.20755e-22
-5.33957e-23
-2.22445e-23
-8.81227e-24
-3.34026e-24
-1.21672e-24
1.7454e-12
1.40419e-12
1.49316e-12
8.23269e-13
-1.38315e-13
-2.88447e-13
1.61889e-12
-3.12272e-13
-5.77751e-12
-8.90314e-12
-6.70624e-12
-2.15124e-12
8.86174e-12
5.91925e-12
4.79988e-12
-1.8376e-11
-1.2158e-11
-2.8337e-12
-4.01866e-13
3.83258e-13
1.40358e-12
6.70106e-13
1.40469e-13
-7.45103e-14
-3.05956e-14
-3.10549e-15
4.09763e-17
4.23429e-17
2.44102e-17
1.47685e-17
9.20691e-18
5.58555e-18
3.19642e-18
1.69312e-18
8.16969e-19
3.52758e-19
1.32161e-19
3.96354e-20
6.56391e-21
-2.47192e-21
-3.39993e-21
-2.37741e-21
-1.33803e-21
-6.67193e-22
-3.06035e-22
-1.31607e-22
-5.36549e-23
-2.08876e-23
-7.80316e-24
-2.80749e-24
6.53552e-12
5.9006e-12
6.14123e-12
2.89948e-12
2.52042e-13
8.35832e-12
5.37759e-12
-1.39874e-11
-2.66567e-11
-1.62758e-11
7.37983e-12
1.63676e-10
3.58771e-11
-2.51682e-11
-2.0305e-10
-1.39002e-10
-3.0599e-11
1.9454e-11
4.17392e-11
2.69268e-11
8.31977e-12
1.18479e-12
-1.43164e-12
-6.01432e-13
-7.1058e-14
5.90431e-15
1.70898e-15
3.19855e-16
9.84112e-17
4.40803e-17
2.36442e-17
1.31944e-17
7.17695e-18
3.65906e-18
1.69262e-18
6.87385e-19
2.31171e-19
5.28315e-20
-3.17627e-21
-1.36332e-20
-1.09863e-20
-6.62212e-21
-3.45836e-21
-1.64514e-21
-7.29876e-22
-3.06033e-22
-1.22282e-22
-4.68234e-23
-1.72507e-23
-6.13312e-24
1.23837e-11
1.42228e-11
1.35114e-11
5.4456e-12
4.77793e-11
5.622e-11
1.42002e-12
-3.05577e-11
-2.04426e-11
6.76476e-10
1.89666e-09
1.2395e-09
3.21773e-11
-1.61904e-09
-1.27475e-09
-3.50662e-10
4.57041e-10
7.13871e-10
3.96999e-10
1.27104e-10
1.53043e-11
-2.16889e-11
-9.60643e-12
-1.24358e-12
1.08039e-13
3.66411e-14
3.59577e-15
2.0764e-16
1.1659e-16
7.56325e-17
4.59782e-17
2.62468e-17
1.42598e-17
7.17518e-18
3.1946e-18
1.19273e-18
3.28915e-19
2.47448e-20
-4.90723e-20
-4.75567e-20
-3.08323e-20
-1.68518e-20
-8.29952e-21
-3.79216e-21
-1.63279e-21
-6.68791e-22
-2.62221e-22
-9.8844e-23
-3.5935e-23
-1.26303e-23
1.38787e-11
2.39979e-11
2.30579e-11
2.09252e-11
2.20443e-10
1.82051e-10
-3.17654e-10
2.92911e-10
4.71299e-09
9.44565e-09
9.64487e-09
2.51816e-09
-8.87904e-09
-8.03959e-09
-2.93704e-09
5.19855e-09
5.56509e-09
3.08448e-09
1.00377e-09
2.25567e-10
-2.60212e-10
-1.21418e-10
-1.78733e-11
1.47887e-12
5.51348e-13
6.13742e-14
-1.58248e-15
-4.12245e-16
5.84281e-17
1.20771e-16
8.38226e-17
4.79877e-17
2.62411e-17
1.31883e-17
5.5809e-18
1.79313e-18
2.82599e-19
-1.53365e-19
-1.94278e-19
-1.36029e-19
-7.75513e-20
-3.93726e-20
-1.84552e-20
-8.13407e-21
-3.40698e-21
-1.36529e-21
-5.25845e-22
-1.95295e-22
-7.01106e-23
-2.43756e-23
7.75731e-12
2.66176e-11
3.99351e-11
1.15552e-10
4.0836e-10
3.20707e-10
-1.6336e-09
5.29473e-09
2.20281e-08
3.3529e-08
2.12343e-08
-5.12618e-08
-4.92411e-08
-1.82546e-08
3.28846e-08
4.27847e-08
1.98515e-08
5.38456e-09
-1.67739e-11
-3.99524e-09
-1.50921e-09
-2.10318e-10
1.65773e-11
6.67989e-12
8.53465e-13
-2.34867e-14
-8.36393e-15
-1.18614e-15
2.46822e-16
3.19165e-16
1.69236e-16
8.38065e-17
4.59599e-17
2.36295e-17
9.19699e-18
2.09262e-18
-3.39973e-19
-7.53542e-19
-5.76011e-19
-3.40333e-19
-1.76551e-19
-8.42177e-20
-3.77544e-20
-1.60943e-20
-6.56975e-21
-2.57955e-21
-9.77223e-22
-3.57995e-22
-1.27041e-22
-4.37297e-23
-2.60991e-11
7.71609e-12
3.84946e-11
7.23937e-10
-1.77013e-08
-1.76244e-08
-5.82581e-09
1.63563e-08
3.72149e-08
6.32747e-08
-2.18171e-07
-2.914e-07
-1.15116e-07
3.18142e-07
4.34652e-07
1.17876e-07
2.54826e-08
-1.17129e-07
-8.9939e-08
-2.55118e-08
-2.42242e-09
1.50941e-10
6.60802e-11
1.04879e-11
-1.78502e-13
-7.75562e-14
-1.42632e-14
6.24859e-16
2.66656e-15
1.11544e-15
3.19125e-16
1.20723e-16
7.55917e-17
4.40508e-17
1.47501e-17
7.07417e-19
-2.7182e-18
-2.38985e-18
-1.45302e-18
-7.57545e-19
-3.61862e-19
-1.62869e-19
-6.99982e-20
-2.89222e-20
-1.1531e-20
-4.44587e-21
-1.66016e-21
-6.01101e-22
-2.11231e-22
-7.20992e-23
-5.06966e-07
-5.00175e-07
-4.59822e-07
-4.73286e-07
-7.10656e-07
-6.6463e-07
-1.60082e-07
3.03533e-08
-3.20985e-07
-2.23492e-06
-2.99697e-06
-7.99479e-07
3.3458e-06
5.03213e-06
1.5647e-06
-6.92404e-07
-2.18768e-06
-1.40949e-06
-4.48007e-07
-4.65833e-08
9.56233e-10
4.65859e-10
1.05066e-10
2.9114e-12
-1.78062e-13
-9.42321e-14
1.74601e-14
4.1459e-14
1.72548e-14
2.66653e-15
2.4672e-16
5.83308e-17
1.16517e-16
9.83599e-17
2.43801e-17
-7.22373e-18
-9.98387e-18
-6.29392e-18
-3.20257e-18
-1.48177e-18
-6.51142e-19
-2.76507e-19
-1.1416e-19
-4.5884e-20
-1.79463e-20
-6.82577e-21
-2.52342e-21
-9.06595e-22
-3.16562e-22
-1.07454e-22
-3.29004e-06
-3.30157e-06
-3.31417e-06
-3.3319e-06
-3.13752e-06
-2.7089e-06
-1.65945e-06
-2.99808e-06
-8.70217e-06
-1.3279e-05
-1.13317e-05
3.29905e-06
1.88645e-05
1.85438e-05
1.27044e-06
-1.58598e-05
-1.21754e-05
-4.62333e-06
-8.8796e-07
-5.41354e-09
1.35481e-09
5.89296e-10
9.61912e-11
-3.41789e-13
-2.26113e-13
3.07795e-13
4.76445e-13
2.22908e-13
4.14598e-14
6.2478e-16
-1.1864e-15
-4.12423e-16
2.07532e-16
3.19769e-16
4.22984e-17
-4.13489e-17
-3.03062e-17
-1.43341e-17
-5.98085e-18
-2.40292e-18
-9.59867e-19
-3.84165e-19
-1.53419e-19
-6.06516e-20
-2.35597e-20
-8.94405e-21
-3.30761e-21
-1.18949e-21
-4.15671e-22
-1.41122e-22
-8.58718e-06
-8.678e-06
-8.9665e-06
-8.96345e-06
-6.97447e-06
-5.01572e-06
-7.09237e-06
-1.68227e-05
-3.2347e-05
-3.55815e-05
-1.90773e-05
1.83014e-05
3.84107e-05
3.14258e-05
-7.94938e-05
-6.63437e-05
-2.54307e-05
-6.82384e-06
-7.3171e-07
1.48962e-09
9.62659e-10
3.96541e-10
8.91837e-11
1.74146e-12
1.20937e-14
2.40961e-12
1.70812e-12
4.76453e-13
1.74617e-14
-1.42642e-14
-8.36453e-15
-1.58273e-15
3.59538e-15
1.70877e-15
4.09123e-17
-1.99466e-16
-8.21062e-17
-2.61907e-17
-8.07434e-18
-2.59659e-18
-9.09144e-19
-3.47059e-19
-1.39836e-19
-5.72166e-20
-2.31361e-20
-9.11201e-21
-3.47358e-21
-1.27917e-21
-4.55041e-22
-1.56471e-22
-1.1862e-05
-1.20414e-05
-1.27011e-05
-1.2672e-05
-8.84276e-06
-5.02611e-06
-1.48242e-05
-4.04522e-05
-5.96025e-05
-5.48196e-05
6.501e-05
4.34443e-05
-6.18739e-06
-0.000522552
-0.000422379
-0.000119958
0.000217926
0.000408084
0.000344899
0.00016359
2.35718e-05
2.5581e-10
5.51082e-11
1.09075e-11
1.01562e-11
7.33876e-12
2.40966e-12
3.07807e-13
-9.42382e-14
-7.75586e-14
-2.34872e-14
6.13706e-14
3.66389e-14
5.90383e-15
-3.10538e-15
-1.09385e-15
-1.64527e-16
-2.11962e-17
-8.4047e-19
8.18238e-19
3.88774e-19
9.98433e-20
4.93601e-21
-1.23726e-20
-9.74222e-21
-5.2349e-21
-2.38162e-21
-9.78722e-22
-3.73828e-22
-1.34713e-22
3.32755e-05
3.23065e-05
2.53045e-05
2.7675e-05
5.90208e-05
7.29432e-05
1.90853e-06
-5.4654e-05
-3.84423e-05
0.000390824
0.000646563
4.84663e-05
-0.00198839
-0.00306385
-0.00106839
0.00593639
0.0158946
0.0234717
0.0245997
0.0207226
0.0137878
0.00701107
0.00248304
0.000415336
8.03078e-11
1.01566e-11
1.21222e-14
-2.26132e-13
-1.78077e-13
-1.78503e-13
8.53428e-13
5.51324e-13
1.08034e-13
-7.10551e-14
-3.05942e-14
-3.10203e-15
2.28852e-16
1.07576e-16
3.79815e-17
1.2466e-17
3.87818e-18
1.14345e-18
3.16284e-19
8.02323e-20
1.7719e-20
2.88906e-21
1.8378e-23
-2.69779e-22
-1.64098e-22
-7.2455e-23
0.000701168
0.000693624
0.00065103
0.000689544
0.000867436
0.000827604
0.000330813
1.46595e-05
0.00111577
0.0027422
0.00241833
-0.00204821
-0.00845025
-0.00956375
0.00285335
0.0335659
0.0746501
0.107865
0.116705
0.103999
0.0759115
0.0444032
0.0196954
0.00556421
0.000415336
1.0909e-11
1.74112e-12
-3.41802e-13
2.9111e-12
1.04875e-11
6.67964e-12
1.47881e-12
-1.24353e-12
-6.01407e-13
-7.4507e-14
9.32004e-15
2.92636e-15
4.59792e-16
1.04016e-16
2.77726e-17
7.68709e-18
2.13984e-18
5.88446e-19
1.57454e-19
4.03637e-20
9.71669e-21
2.12359e-21
3.90409e-22
4.5403e-23
-5.46362e-24
0.00255307
0.00252988
0.00242746
0.00256221
0.00300904
0.00272815
0.00124239
0.00114131
0.00455673
0.00826853
0.00534007
-0.00715366
-0.0210704
-0.0196237
0.015587
0.0917283
0.190849
0.273257
0.300052
0.273797
0.207115
0.127212
0.0606254
0.0196954
0.00248304
5.51129e-11
8.91853e-11
9.61872e-11
1.05063e-10
6.60783e-11
1.65767e-11
-1.78726e-11
-9.60606e-12
-1.43158e-12
1.40461e-13
5.67014e-14
6.41844e-15
1.23461e-16
3.86675e-17
1.1959e-17
3.36379e-18
9.19106e-19
2.45536e-19
6.29837e-20
1.50474e-20
3.18281e-21
5.27637e-22
3.44542e-23
-2.06314e-23
-1.19657e-23
0.00552064
0.0054739
0.00529629
0.00558789
0.00639153
0.00562309
0.00287089
0.00319291
0.0104247
0.016791
0.00893742
-0.0160582
-0.0389253
-0.0299601
0.0395828
0.177814
0.355014
0.506036
0.562158
0.521767
0.4042
0.256011
0.127212
0.0444032
0.00701107
2.55821e-10
3.96555e-10
5.89295e-10
4.65852e-10
1.50937e-10
-2.1031e-10
-1.21413e-10
-2.16881e-11
1.18473e-12
6.70072e-13
1.04685e-13
-2.03468e-15
-7.02152e-16
-1.84776e-16
-5.04928e-17
-1.39519e-17
-3.85385e-18
-1.06831e-18
-2.99084e-19
-8.48974e-20
-2.44101e-20
-7.06416e-21
-2.03608e-21
-5.7656e-22
-1.5763e-22
0.00849503
0.00842391
0.00817777
0.00863832
0.00976955
0.00848365
0.00438294
0.00531884
0.0168123
0.0258404
0.0118106
-0.026889
-0.0572843
-0.0372782
0.0688145
0.268407
0.522354
0.744563
0.836918
0.788623
0.623024
0.4042
0.207115
0.0759115
0.0137878
2.35719e-05
9.62677e-10
1.35488e-09
9.56227e-10
-2.42232e-09
-1.50915e-09
-2.60203e-10
1.53035e-11
8.31937e-12
1.4035e-12
-2.02539e-14
-9.58533e-15
-1.92078e-15
-3.61399e-16
-9.81109e-17
-2.82245e-17
-8.09033e-18
-2.30769e-18
-6.60061e-19
-1.90553e-19
-5.55836e-20
-1.6305e-20
-4.76872e-21
-1.3762e-21
-3.87432e-22
0.00965131
0.00956741
0.00928008
0.00982577
0.0111758
0.00961904
0.0046343
0.00584825
0.0201274
0.0309181
0.0128056
-0.0347548
-0.0692142
-0.0408533
0.0882873
0.32482
0.627153
0.900477
1.02646
0.981433
0.788623
0.521767
0.273797
0.103999
0.0207226
0.00016359
1.48946e-09
-5.41133e-09
-4.65811e-08
-2.5511e-08
-3.99513e-09
2.25557e-10
1.27098e-10
2.69256e-11
3.83217e-13
-6.11534e-14
-2.69389e-14
-3.06464e-15
-2.16628e-16
-5.86281e-17
-1.70701e-17
-4.92174e-18
-1.43898e-18
-4.36705e-19
-1.38643e-19
-4.54421e-20
-1.50153e-20
-4.89387e-21
-1.54947e-21
-4.71676e-22
0.00758628
0.00751241
0.0072104
0.00769521
0.00911703
0.00777535
0.00262196
0.00332376
0.0174642
0.02905
0.0117711
-0.0352977
-0.0699843
-0.0424927
0.0855379
0.321682
0.628567
0.914819
1.05892
1.02646
0.836918
0.562158
0.300052
0.116705
0.0245997
0.000344898
-7.31668e-07
-8.8793e-07
-4.47993e-07
-8.99363e-08
-1.6816e-11
1.00373e-09
3.96983e-10
4.17369e-11
-4.01862e-13
-2.90493e-13
-6.53312e-14
-1.91945e-15
1.5482e-16
6.46282e-17
2.29846e-17
7.61336e-18
2.34978e-18
6.66618e-19
1.70511e-19
3.79736e-20
6.70835e-21
5.84723e-22
-2.06134e-22
-1.49897e-22
0.00228131
0.00224408
0.00198216
0.00222153
0.00341074
0.00290522
-0.00105481
-0.00187454
0.00756199
0.0181469
0.00903951
-0.0250673
-0.0565496
-0.0444672
0.0477038
0.237954
0.503671
0.767185
0.914819
0.900477
0.744563
0.506036
0.273257
0.107865
0.0234717
0.000408083
-6.8237e-06
-4.62324e-06
-1.40945e-06
-1.17126e-07
5.38449e-09
3.08441e-09
7.13836e-10
1.94507e-11
-2.83354e-12
-1.08643e-12
-1.00999e-13
2.48489e-15
7.77348e-16
2.15439e-16
6.91235e-17
2.25339e-17
7.09936e-18
2.1278e-18
6.04397e-19
1.62882e-19
4.17896e-20
1.02599e-20
2.42959e-21
5.62683e-22
-0.00258952
-0.00258224
-0.0027436
-0.00280697
-0.00211775
-0.00165985
-0.00343778
-0.00581235
-0.00328591
0.00437828
0.00663481
-0.00689056
-0.0324017
-0.0444317
-0.00795928
0.108384
0.299123
0.503671
0.628567
0.627153
0.522354
0.355014
0.190849
0.07465
0.0158946
0.000217925
-2.54303e-05
-1.21752e-05
-2.18763e-06
2.54842e-08
1.98515e-08
5.56493e-09
4.56993e-10
-3.05964e-11
-1.2157e-11
-1.62968e-12
5.07219e-14
1.5084e-14
1.54235e-15
2.58771e-16
8.40062e-17
2.79786e-17
9.02812e-18
2.78597e-18
8.21224e-19
2.32381e-19
6.36486e-20
1.70498e-20
4.51939e-21
1.20022e-21
-0.00377574
-0.00373907
-0.00377769
-0.00402572
-0.00390203
-0.00297003
-0.00293082
-0.00547009
-0.00801494
-0.00462542
0.00504947
0.00836342
-0.00795576
-0.0378579
-0.0466192
-0.000417091
0.108384
0.237954
0.321682
0.32482
0.268407
0.177814
0.0917283
0.0335659
0.00593639
-0.000119957
-6.6343e-05
-1.58596e-05
-6.92372e-07
1.17876e-07
4.27842e-08
5.19821e-09
-3.50638e-10
-1.38991e-10
-1.83744e-11
6.72989e-13
2.37805e-13
2.45229e-14
8.61849e-18
3.82011e-17
2.71375e-17
1.25741e-17
4.7618e-18
1.60559e-18
5.02421e-19
1.4982e-19
4.35017e-20
1.25357e-20
3.64045e-21
1.07564e-21
-0.00152206
-0.00148779
-0.00143002
-0.00165063
-0.00195202
-0.0012865
-4.23263e-05
-0.0012362
-0.00538477
-0.00571621
0.00311405
0.0130608
0.00696993
-0.0208824
-0.0486138
-0.0466192
-0.00795928
0.0477038
0.0855379
0.0882873
0.0688145
0.0395828
0.0155871
0.00285337
-0.00106838
-0.000422376
-7.9493e-05
1.27049e-06
1.56469e-06
4.34648e-07
3.28833e-08
-2.93692e-09
-1.2747e-09
-2.03036e-10
4.7996e-12
2.13696e-12
3.57161e-13
-2.32017e-15
-6.06398e-16
-1.64691e-16
-4.85097e-17
-1.41167e-17
-4.03039e-18
-1.13845e-18
-3.18731e-19
-8.75378e-20
-2.30805e-20
-5.64641e-21
-1.2028e-21
-1.84143e-22
0.00105463
0.00106374
0.0011449
0.00109858
0.000719291
0.000758327
0.00184346
0.00227923
0.000144808
-0.00219774
0.000548381
0.00779744
0.00980729
-0.000874269
-0.0208824
-0.0378579
-0.0444317
-0.0444672
-0.0424927
-0.0408533
-0.0372782
-0.0299601
-0.0196236
-0.00956373
-0.00306384
-0.000522549
3.14258e-05
1.85436e-05
5.03208e-06
3.18136e-07
-1.82541e-08
-8.03938e-09
-1.619e-09
-2.51653e-11
5.91912e-12
2.61835e-12
2.58532e-13
-1.155e-15
-6.36766e-16
-2.59665e-16
-9.5898e-17
-3.36594e-17
-1.13348e-17
-3.67916e-18
-1.15546e-18
-3.52067e-19
-1.0423e-19
-2.9987e-20
-8.37504e-21
-2.26521e-21
0.00121567
0.00120633
0.00124913
0.00131551
0.0011656
0.000835372
0.00107086
0.00212891
0.00243487
0.000689467
-0.001529
-0.000443128
0.00495166
0.00980729
0.00696993
-0.00795576
-0.0324017
-0.0565496
-0.0699843
-0.0692142
-0.0572842
-0.0389253
-0.0210704
-0.00845024
-0.00198839
-6.18771e-06
3.84103e-05
1.88643e-05
3.34575e-06
-1.15115e-07
-4.92401e-08
-8.8788e-09
3.21916e-11
3.5876e-11
8.86117e-12
1.28592e-12
-1.86132e-14
-2.30879e-15
-5.80347e-16
-2.24037e-16
-8.84398e-17
-3.40687e-17
-1.25422e-17
-4.41525e-18
-1.49579e-18
-4.90662e-19
-1.56544e-19
-4.87119e-20
-1.48032e-20
-4.39452e-21
-0.000343692
-0.000357957
-0.000377307
-0.000280433
-0.000185819
-0.000487923
-0.00089727
-0.000367115
0.000925744
0.00076316
-0.00187965
-0.00375488
-0.000443124
0.00779745
0.0130608
0.00836341
-0.00689055
-0.0250672
-0.0352977
-0.0347548
-0.026889
-0.0160582
-0.00715368
-0.00204822
4.84586e-05
4.34426e-05
1.8301e-05
3.29896e-06
-7.9947e-07
-2.91395e-07
-5.12607e-08
2.51814e-09
1.23948e-09
1.63673e-10
-2.15122e-12
-9.21602e-13
-1.3144e-13
-1.19293e-15
7.86657e-17
-1.23565e-17
-2.44047e-17
-1.53104e-17
-7.37126e-18
-3.13124e-18
-1.23177e-18
-4.58709e-19
-1.6358e-19
-5.6217e-20
-1.86848e-20
-6.01831e-21
-0.00133543
-0.00134366
-0.00137076
-0.00132571
-0.00120473
-0.001291
-0.00166504
-0.00170891
-0.00105455
-0.000500772
-0.000984546
-0.00187965
-0.001529
0.000548382
0.00311404
0.00504946
0.00663482
0.00903954
0.0117711
0.0128056
0.0118106
0.00893739
0.00534004
0.00241831
0.000646554
6.50068e-05
-1.90773e-05
-1.13317e-05
-2.99696e-06
-2.18165e-07
2.12338e-08
9.64465e-09
1.8966e-09
7.37747e-12
-6.70624e-12
-2.09222e-12
-7.3547e-14
2.6637e-15
9.98286e-16
2.51217e-16
5.86881e-17
1.06682e-17
3.14078e-19
-1.01509e-18
-7.02808e-19
-3.45814e-19
-1.47026e-19
-5.72015e-20
-2.0871e-20
-7.23326e-21
-0.00117436
-0.0011773
-0.0011818
-0.00116212
-0.00113908
-0.00119506
-0.00126632
-0.00126866
-0.00128771
-0.00122025
-0.000500774
0.000763162
0.000689474
-0.00219774
-0.00571622
-0.00462543
0.00437829
0.018147
0.02905
0.0309181
0.0258404
0.016791
0.0082685
0.00274218
0.000390815
-5.48203e-05
-3.5582e-05
-1.32792e-05
-2.23492e-06
6.32745e-08
3.35286e-08
9.44548e-09
6.76449e-10
-1.62755e-11
-8.90298e-12
-1.68726e-12
4.19057e-15
5.13607e-15
1.4762e-15
3.60493e-16
9.32975e-17
2.20266e-17
3.84305e-18
-2.2671e-20
-4.64864e-19
-3.05029e-19
-1.47433e-19
-6.19282e-20
-2.38172e-20
-8.58522e-21
-0.00103522
-0.00104251
-0.00103526
-0.000985452
-0.00101053
-0.00117964
-0.00118423
-0.000849024
-0.000800744
-0.00128772
-0.00105455
0.000925746
0.00243487
0.000144809
-0.00538479
-0.00801496
-0.0032859
0.00756203
0.0174642
0.0201274
0.0168123
0.0104246
0.0045567
0.00111575
-3.84487e-05
-5.96059e-05
-3.23486e-05
-8.7025e-06
-3.20979e-07
3.7216e-08
2.20284e-08
4.71292e-09
-2.04517e-11
-2.66566e-11
-5.77717e-12
3.74339e-14
2.0999e-14
4.52116e-15
8.5405e-16
2.08984e-16
5.30268e-17
1.0721e-17
5.56005e-19
-1.02784e-18
-7.91715e-19
-4.17501e-19
-1.87627e-19
-7.6496e-20
-2.9065e-20
-1.04386e-20
-0.0014051
-0.00141771
-0.00141967
-0.00133648
-0.00131922
-0.00158355
-0.00174533
-0.00130037
-0.000849023
-0.00126866
-0.00170891
-0.000367113
0.00212892
0.00227923
-0.00123621
-0.0054701
-0.00581235
-0.00187451
0.0033238
0.00584826
0.00531883
0.00319286
0.00114126
1.46352e-05
-5.46619e-05
-4.04569e-05
-1.68245e-05
-2.99839e-06
3.03553e-08
1.63569e-08
5.29491e-09
2.92923e-10
-3.05599e-11
-1.39878e-11
-3.12202e-13
2.68718e-13
6.29506e-14
1.82988e-17
-1.93191e-16
-5.59289e-17
-2.1208e-17
-1.10368e-17
-5.98386e-18
-3.02471e-18
-1.40925e-18
-6.11009e-19
-2.49083e-19
-9.62364e-20
-3.54455e-20
-1.2499e-20
-0.00166226
-0.0016746
-0.00168737
-0.00160821
-0.00154588
-0.00177622
-0.00204183
-0.00174533
-0.00118422
-0.00126632
-0.00166504
-0.000897268
0.00107087
0.00184347
-4.23397e-05
-0.00293083
-0.00343777
-0.00105478
0.002622
0.00463431
0.00438292
0.00287084
0.00124234
0.000330784
1.89874e-06
-1.48283e-05
-7.09398e-06
-1.65977e-06
-1.60074e-07
-5.82429e-09
-1.63354e-09
-3.17671e-10
1.41182e-12
5.37706e-12
1.61896e-12
2.22711e-13
-1.07732e-14
-2.64586e-15
-5.34824e-16
-1.6574e-16
-6.07418e-17
-2.43948e-17
-1.03118e-17
-4.40562e-18
-1.85017e-18
-7.52879e-19
-2.95135e-19
-1.11277e-19
-4.03618e-20
-1.40965e-20
-0.00148142
-0.00149085
-0.0015021
-0.00144127
-0.00138743
-0.00156032
-0.00177622
-0.00158355
-0.00117964
-0.00119505
-0.001291
-0.000487921
0.000835378
0.000758329
-0.00128651
-0.00297005
-0.00165984
0.00290525
0.00777539
0.00961905
0.00848363
0.00562305
0.00272811
0.000827575
7.2934e-05
-5.02784e-06
-5.0171e-06
-2.7094e-06
-6.64666e-07
-1.7614e-08
3.20707e-10
1.82053e-10
5.62197e-11
8.35757e-12
-2.88419e-13
-1.26203e-13
-2.2017e-14
-1.36564e-15
-2.65584e-16
-1.15259e-16
-4.9769e-17
-2.22588e-17
-1.00519e-17
-4.45199e-18
-1.90449e-18
-7.82542e-19
-3.08511e-19
-1.16771e-19
-4.24815e-20
-1.48735e-20
-0.00129001
-0.00129896
-0.00130498
-0.00124666
-0.00121465
-0.00138743
-0.00154587
-0.00131921
-0.00101052
-0.00113908
-0.00120473
-0.000185816
0.0011656
0.000719291
-0.00195204
-0.00390205
-0.00211775
0.00341078
0.00911707
0.0111758
0.00976953
0.00639149
0.00300899
0.000867407
5.90124e-05
-8.84401e-06
-6.97545e-06
-3.13794e-06
-7.10714e-07
-1.76949e-08
4.08474e-10
2.2048e-10
4.77825e-11
2.51588e-13
-1.38387e-13
-6.95044e-14
-1.14715e-14
-4.74054e-17
-2.95801e-17
-3.49281e-17
-2.60162e-17
-1.56061e-17
-8.22677e-18
-3.96145e-18
-1.77815e-18
-7.52712e-19
-3.02654e-19
-1.16133e-19
-4.2667e-20
-1.50467e-20
-0.0013274
-0.00133731
-0.00134295
-0.00127809
-0.00124665
-0.00144127
-0.0016082
-0.00133648
-0.000985447
-0.00116211
-0.00132571
-0.00028043
0.00131552
0.00109858
-0.00165065
-0.00402573
-0.00280696
0.00222156
0.00769525
0.00982579
0.0086383
0.00558784
0.00256217
0.000689513
2.76672e-05
-1.26732e-05
-8.9643e-06
-3.33226e-06
-4.73342e-07
7.23591e-10
1.1556e-10
2.09457e-11
5.44635e-12
2.89938e-12
8.2325e-13
5.73832e-14
9.69009e-16
-4.47578e-17
-4.71928e-17
-3.91368e-17
-2.62247e-17
-1.51873e-17
-7.93105e-18
-3.82483e-18
-1.72699e-18
-7.36276e-19
-2.98075e-19
-1.15059e-19
-4.24815e-20
-1.50411e-20
-0.00139182
-0.001402
-0.00140925
-0.00134295
-0.00130498
-0.0015021
-0.00168736
-0.00141966
-0.00103526
-0.0011818
-0.00137076
-0.000377304
0.00124913
0.0011449
-0.00143003
-0.0037777
-0.0027436
0.00198219
0.00721044
0.00928009
0.00817775
0.00529625
0.00242742
0.000651001
2.52965e-05
-1.27029e-05
-8.96767e-06
-3.31458e-06
-4.59858e-07
3.84903e-11
3.99222e-11
2.30546e-11
1.35121e-11
6.14167e-12
1.49319e-12
4.34954e-14
-2.95155e-16
-1.57906e-16
-8.83673e-17
-5.21959e-17
-2.99191e-17
-1.61243e-17
-8.14092e-18
-3.86428e-18
-1.73221e-18
-7.36266e-19