/*--------------------------------*- C++ -*----------------------------------*\
| =========                 |                                                 |
| \\      /  F ield         | OpenFOAM: The Open Source CFD Toolbox           |
|  \\    /   O peration     | Version:  v2006                                 |
|   \\  /    A nd           | Website:  www.openfoam.com                      |
|    \\/     M anipulation  |                                                 |
\*---------------------------------------------------------------------------*/
FoamFile
{
    version     2.0;
    format      ascii;
    class       surfaceScalarField;
    location    "16.4";
    object      alphaPhi0.water;
}
// * * * * * * * * * * * * * * * * * * * * * * * * * * * * * * * * * * * * * //

dimensions      [0 3 -1 0 0 0 0];
oriented        oriented;


internalField   nonuniform List<scalar> 
299200
(
0.00053499
-0.00053499
0.00160681
-0.00107182
0.00268516
-0.00107835
0.00368546
-0.0010003
0.0046291
-0.00094364
0.00553376
-0.000904666
0.00640586
-0.0008721
0.00724913
-0.000843266
0.00806853
-0.000819405
0.00887008
-0.000801548
0.00965959
-0.000789504
0.0104419
-0.000782327
0.0112208
-0.000778918
0.0119992
-0.000778328
0.012779
-0.000779801
0.0135617
-0.000782708
0.0143482
-0.000786483
0.0151388
-0.000790601
0.0159333
-0.000794594
0.0167314
-0.000798066
0.0175321
-0.000800718
0.0183345
-0.000802359
0.0191374
-0.000802907
0.0199398
-0.000802384
0.0207407
-0.000800909
0.0215394
-0.000798684
0.0223353
-0.000795969
0.0231284
-0.000793057
0.0239186
-0.000790229
0.0247063
-0.00078772
0.025492
-0.000785678
0.0262762
-0.000784127
0.0270591
-0.000782925
0.0278408
-0.000781753
0.0286209
-0.000780109
0.0293983
-0.00077736
0.0301711
-0.000772828
0.030937
-0.000765916
0.0316933
-0.000756262
0.0324372
-0.000743861
0.0331663
-0.00072916
0.0338794
-0.000713056
0.0345762
-0.000696794
0.0352579
-0.000681743
0.035927
-0.000669069
0.0365864
-0.000659447
0.0372393
-0.000652884
0.0378881
-0.000648755
0.0385341
-0.000645995
0.0391775
-0.000643397
0.0398174
-0.000639889
0.0404521
-0.000634723
0.0410796
-0.000627549
0.041698
-0.000618363
0.0423054
-0.000607395
0.0429003
-0.000594953
0.0434816
-0.0005813
0.0440482
-0.000566576
0.044599
-0.000550796
0.0451329
-0.000533903
0.0456488
-0.000515853
0.0461455
-0.000496709
0.0466222
-0.000476689
0.0470783
-0.000456175
0.047514
-0.000435675
0.0479298
-0.000415751
0.0483267
-0.00039694
0.0487064
-0.000379698
0.0490708
-0.000364373
0.049422
-0.000351197
0.0497623
-0.000340325
0.0500942
-0.000331883
0.0504202
-0.000325975
0.0507427
-0.000322583
0.0510641
-0.000321351
0.0513855
-0.000321383
0.0517068
-0.000321308
0.0520264
-0.000319651
0.0523417
-0.000315302
0.0526496
-0.000307868
0.0529473
-0.00029774
0.0532333
-0.000285908
0.0535069
-0.000273626
0.0537689
-0.000262041
0.0540208
-0.000251897
0.0542643
-0.000243436
0.0545008
-0.000236511
0.0547316
-0.00023081
0.0549576
-0.00022605
0.0551796
-0.000222018
0.0553982
-0.000218513
0.0556134
-0.000215217
0.0558249
-0.000211528
0.0560313
-0.000206422
0.0562297
-0.000198397
0.0564152
-0.000185517
0.0565809
-0.000165695
0.0567183
-0.000137346
0.0568189
-0.000100625
0.0568775
-5.85731e-05
0.0568962
-1.8744e-05
0.0568812
1.50342e-05
0.0568471
3.4119e-05
0.0568108
3.62872e-05
0.0567839
2.68666e-05
0.0567723
1.15606e-05
0.0567777
-5.34381e-06
0.0568004
-2.2664e-05
0.0568324
-3.20213e-05
0.0568649
-3.25011e-05
0.0568899
-2.50194e-05
0.0569027
-1.27674e-05
0.056903
-3.2729e-07
0.0568941
8.88404e-06
0.05688
1.40895e-05
0.0568646
1.53998e-05
0.056851
1.36436e-05
0.0568371
1.38694e-05
0.0568177
1.94467e-05
0.0567873
3.03742e-05
0.0567394
4.78808e-05
0.0566562
8.32489e-05
0.0564907
0.000165448
0.0561523
0.000338387
0.0555344
0.000617925
0.0546073
0.000927145
0.0535153
0.00109197
0.0525084
0.00100686
0.0518384
0.000670009
0.0515993
0.000239083
0.0516907
-9.13264e-05
0.0519114
-0.000220727
0.0520531
-0.000141765
0.0520089
4.42406e-05
0.051777
0.000231923
0.0514163
0.000360695
0.0509717
0.000444618
0.0504671
0.000504537
0.0499222
0.00054493
0.0493644
0.000557783
0.0488261
0.000538309
0.0483281
0.000497964
0.0478811
0.00044702
0.0474793
0.00040182
0.0471056
0.000373655
0.0467406
0.000365011
0.0463688
0.000371873
0.0459819
0.000386905
0.0455783
0.000403552
0.0451592
0.000419113
0.0447284
0.000430763
0.0442924
0.000436043
0.0438579
0.000434527
0.0434315
0.000426335
0.0430196
0.000411895
0.042627
0.000392637
0.0422569
0.000370129
0.0419112
0.000345711
0.0415907
0.000320492
0.0412952
0.000295459
0.0410237
0.000271539
0.0407742
0.000249484
0.0405445
0.000229669
0.0403326
0.000211916
0.0401371
0.000195471
0.039958
0.00017917
0.0397962
0.000161795
0.0396537
0.000142481
0.0395327
0.000120986
0.039435
9.77018e-05
0.0393616
7.34228e-05
0.0393126
4.89842e-05
0.0392875
2.51155e-05
0.0392836
3.90245e-06
0.0393024
-1.87959e-05
0.0393414
-3.90319e-05
0.0393993
-5.78651e-05
0.0394751
-7.58744e-05
0.039566
-9.08724e-05
0.0396654
-9.93546e-05
0.0397619
-9.65626e-05
0.0398397
-7.78128e-05
0.0398836
-4.39067e-05
0.0398891
-5.50696e-06
0.0398634
2.57368e-05
0.0398312
3.22163e-05
0.0398119
1.92751e-05
0.0398241
-1.2147e-05
0.0398819
-5.78625e-05
0.0399887
-0.000106788
0.0401437
-0.000154978
0.0403385
-0.000194821
0.04056
-0.000221478
0.0407938
-0.000233841
0.041037
-0.000243195
0.0413054
-0.000268367
0.0416265
-0.000321063
0.0420178
-0.00039136
0.0424646
-0.000446825
0.0429126
-0.000447998
0.0432803
-0.000367654
0.0434946
-0.000214302
0.0435313
-3.67079e-05
0.0434206
0.00011075
0.0432288
0.000191724
0.0429787
0.00025017
0.042672
0.000306705
0.0423182
0.000353775
0.0419355
0.00038272
0.0415407
0.000394797
0.0411444
0.000396223
0.0407505
0.000393926
0.0403623
0.000388228
0.0399838
0.000378535
0.0396196
0.000364141
0.0392744
0.000345204
0.0389512
0.000323254
0.03865
0.000301168
0.0383676
0.000282354
0.0380982
0.000269388
0.0378353
0.000262931
0.0375733
0.000262012
0.0373074
0.000265897
0.0370305
0.000276862
0.0367329
0.00029767
0.0364026
0.000330258
0.0360224
0.000380174
0.0355739
0.000448549
0.0350423
0.000531576
0.0344195
0.000622788
0.0337016
0.000717911
0.0328839
0.000817764
0.0319584
0.000925474
0.0309225
0.00103589
0.0298
0.00112252
0.0286415
0.00115844
0.0275245
0.00111701
0.02653
0.000994491
0.0257115
0.000818488
0.0250846
0.00062697
0.024632
0.000452531
0.024317
0.000315005
0.0241029
0.000214086
0.0239627
0.000140291
0.0238791
8.35062e-05
0.0238385
4.06079e-05
0.0238256
1.28925e-05
0.023827
-1.35116e-06
0.0238335
-6.49104e-06
0.023841
-7.52006e-06
0.023848
-6.94433e-06
0.0238538
-5.8311e-06
0.0238583
-4.49813e-06
0.0238613
-2.97709e-06
0.0238624
-1.16006e-06
0.0238617
7.50404e-07
0.0238583
3.36063e-06
0.0238519
6.38664e-06
0.0238422
9.67895e-06
0.0238292
1.30544e-05
0.0238128
1.6388e-05
0.023793
1.97997e-05
0.0237697
2.32582e-05
0.0237431
2.6651e-05
0.0237131
3.00141e-05
0.0236797
3.33603e-05
0.023643
3.67001e-05
0.0236029
4.00907e-05
0.0235593
4.35967e-05
0.023512
4.72796e-05
0.0234609
5.11924e-05
0.0234055
5.53455e-05
0.0233458
5.97134e-05
0.0232814
6.43597e-05
0.0232122
6.91972e-05
0.0231381
7.41329e-05
0.0230589
7.91622e-05
0.0229747
8.42778e-05
0.0228852
8.94208e-05
0.0227907
9.45558e-05
0.022691
9.96797e-05
0.0225863
0.000104669
0.0224767
0.000109597
0.0223623
0.00011449
0.0222431
0.000119204
0.0221193
0.000123757
0.0219911
0.000128179
0.0218587
0.000132464
0.0217221
0.000136536
0.0215817
0.000140445
0.0214374
0.000144238
0.0212896
0.000147877
0.0211383
0.000151267
0.0209838
0.000154447
0.0208263
0.000157497
0.020666
0.000160386
0.0205029
0.000163074
0.0203373
0.000165586
0.0201693
0.000167986
0.0199991
0.000170247
0.0198267
0.000172366
0.0196523
0.00017438
0.019476
0.000176292
0.0192979
0.000178135
0.019118
0.000179929
0.0189363
0.000181695
0.0187528
0.000183455
0.0185676
0.00018521
0.0183806
0.000186994
0.0181918
0.000188827
0.018001
0.000190746
0.0178083
0.000192732
0.0176135
0.000194817
0.0174165
0.000197027
0.0172171
0.000199346
0.0170153
0.000201772
0.0168111
0.000204292
0.0166042
0.000206893
0.0163946
0.000209558
0.0161824
0.000212229
0.0159675
0.000214868
0.0157501
0.000217417
0.0155302
0.00021987
0.0153081
0.000222141
0.0150839
0.000224166
0.0148579
0.000225984
0.0146306
0.000227289
0.0144022
0.000228474
0.014173
0.000229146
0.0139437
0.000229306
0.0137147
0.000229054
0.0134863
0.000228348
0.0132593
0.000227005
0.0130339
0.000225382
0.0128107
0.000223217
0.0125899
0.00022082
0.012372
0.000217913
0.0121576
0.000214332
0.0119467
0.000210965
0.0117401
0.000206603
0.0115384
0.000201637
0.0113418
0.000196657
0.0111517
0.000190079
0.01097
0.000181721
0.0107999
0.000170127
0.0106444
0.000155476
0.0105055
0.000138922
0.0103827
0.000122732
0.0102733
0.000109448
0.0101736
9.96436e-05
0.0100814
9.21795e-05
0.00999517
8.62842e-05
0.00991446
8.07066e-05
0.00984142
7.30362e-05
0.00978035
6.10772e-05
0.00973669
4.36589e-05
0.00971377
2.29188e-05
0.00971153
2.23718e-06
0.0097249
-1.33719e-05
0.00974983
-2.49239e-05
0.00978238
-3.25505e-05
0.00981987
-3.74914e-05
0.00986154
-4.1676e-05
0.00990754
-4.59954e-05
0.00995877
-5.12297e-05
0.0100162
-5.74426e-05
0.0100809
-6.46653e-05
0.0101533
-7.24106e-05
0.0102323
-7.90382e-05
0.0103145
-8.21957e-05
0.0103931
-7.85877e-05
0.0104581
-6.49513e-05
0.0104979
-3.98802e-05
0.0105034
-5.43214e-06
0.0104752
2.81521e-05
0.01043
4.52323e-05
0.0103946
3.54113e-05
0.0103959
-1.33673e-06
0.0104521
-5.62012e-05
0.0105693
-0.000117149
0.0107364
-0.000167089
0.0109317
-0.000195316
0.0111356
-0.000203915
0.0113358
-0.000200238
0.0115275
-0.000191699
0.0117111
-0.000183591
0.0118904
-0.000179265
0.0120711
-0.000180707
0.01226
-0.000188903
0.0124641
-0.000204133
0.0126906
-0.000226486
0.012947
-0.000256435
0.0132417
-0.000294623
0.0135821
-0.000340427
0.0139695
-0.000387458
0.0143936
-0.000424058
0.0148349
-0.000441339
0.0152743
-0.000439347
0.0157002
-0.000425926
0.0161101
-0.000409882
0.0165058
-0.000395733
0.0168895
-0.000383707
0.017262
-0.000372444
0.0176231
-0.000361106
0.017973
-0.000349885
0.0183125
-0.00033948
0.018643
-0.000330499
0.0189661
-0.000323184
0.0192835
-0.000317394
0.0195962
-0.000312665
0.0199046
-0.00030838
0.0202086
-0.000304028
0.0205077
-0.000299091
0.0208009
-0.000293234
0.0210872
-0.000286272
0.0213653
-0.00027813
0.0216341
-0.000268811
0.0218925
-0.000258376
0.0221394
-0.000246928
0.022374
-0.000234588
0.0225955
-0.000221466
0.0228032
-0.00020765
0.0229964
-0.00019322
0.0231746
-0.000178254
0.0233375
-0.00016283
0.0234846
-0.000147135
0.023616
-0.000131416
0.0237321
-0.00011607
0.0238341
-0.00010199
0.0239243
-9.02781e-05
0.0240054
-8.10523e-05
0.0240787
-7.3295e-05
0.0241441
-6.53678e-05
0.0241998
-5.57573e-05
0.0242449
-4.5103e-05
0.0242797
-3.47636e-05
0.0243054
-2.57012e-05
0.0243239
-1.84957e-05
0.0243373
-1.34088e-05
0.0243482
-1.08878e-05
0.0243595
-1.13574e-05
0.0243747
-1.51908e-05
0.0243975
-2.27533e-05
0.0244319
-3.43759e-05
0.0244821
-5.02671e-05
0.0245526
-7.04438e-05
0.024647
-9.44645e-05
0.0247683
-0.000121286
0.0249183
-0.000149973
0.0250973
-0.000178968
0.0253036
-0.000206366
0.0255336
-0.000230004
0.0257814
-0.000247774
0.0260393
-0.000257913
0.0262983
-0.000258964
0.0265483
-0.00025002
0.0267792
-0.000230886
0.0269812
-0.000202033
0.0271457
-0.000164452
0.0272649
-0.000119248
0.0273326
-6.76553e-05
0.0273425
-9.93979e-06
0.027284
5.84662e-05
0.0271573
0.000126709
0.0269663
0.000191048
0.0267161
0.00025018
0.0264116
0.000304539
0.0260562
0.000355387
0.0256522
0.000403999
0.0252007
0.000451506
0.0247019
0.000498802
0.0241554
0.000546474
0.0235606
0.000594768
0.0229171
0.000643554
0.0222248
0.000692314
0.0214845
0.000740247
0.0206981
0.000786416
0.0198683
0.000829775
0.018999
0.000869296
0.0180948
0.000904256
0.0171607
0.000934102
0.0162024
0.000958231
0.0152256
0.000976832
0.0142356
0.000990024
0.013238
0.000997541
0.0122388
0.000999253
0.0112437
0.000995088
0.0102587
0.000984981
0.00928981
0.000968911
0.00834285
0.000946959
0.0074237
0.000919155
0.00653793
0.000885774
0.00568992
0.000848007
0.00488051
0.000809404
0.0041031
0.00077741
0.00333991
0.000763199
0.00256754
0.000772362
0.00178342
0.000784126
0.000961915
0.000821502
0.000961915
0.000387223
-0.000922213
0.00126916
-0.00195376
0.00212693
-0.00193611
0.00287837
-0.00175174
0.00355115
-0.00161642
0.00416696
-0.00152048
0.00473576
-0.00144089
0.00526608
-0.00137359
0.00576845
-0.00132177
0.00625401
-0.00128712
0.00673295
-0.00126844
0.00721371
-0.00126308
0.00770294
-0.00126815
0.00820561
-0.001281
0.00872509
-0.00129928
0.00926322
-0.00132083
0.0098204
-0.00134366
0.0103958
-0.00136603
0.0109877
-0.0013865
0.0115937
-0.00140406
0.0122111
-0.00141809
0.0128372
-0.00142842
0.0134695
-0.00143525
0.0141062
-0.00143912
0.0147461
-0.00144077
0.0153885
-0.00144105
0.0160333
-0.00144077
0.0166808
-0.00144059
0.0173314
-0.00144086
0.0179853
-0.0014416
0.0186421
-0.00144244
0.0193006
-0.00144266
0.0199589
-0.00144121
0.020614
-0.00143685
0.0212622
-0.00142829
0.0218993
-0.00141449
0.0225214
-0.00139491
0.0231253
-0.0013698
0.0237095
-0.00134048
0.0242749
-0.00130925
0.0248249
-0.00127921
0.0253655
-0.00125358
0.0259036
-0.00123497
0.0264465
-0.00122459
0.0269993
-0.00122184
0.0275642
-0.00122442
0.0281402
-0.0012289
0.0287231
-0.00123166
0.0293069
-0.00122978
0.0298852
-0.00122165
0.0304524
-0.00120708
0.0310047
-0.00118707
0.0315405
-0.00116333
0.0320598
-0.00113767
0.032564
-0.00111161
0.0330552
-0.00108612
0.0335354
-0.00106154
0.0340066
-0.00103774
0.03447
-0.00101425
0.0349266
-0.000990449
0.0353765
-0.000965784
0.0358196
-0.000939811
0.0362552
-0.000912266
0.0366821
-0.000883053
0.0370986
-0.000852231
0.0375029
-0.000819999
0.0378926
-0.000786701
0.0382658
-0.000752858
0.0386206
-0.000719164
0.0389558
-0.000686442
0.0392711
-0.000655607
0.0395668
-0.00062757
0.0398439
-0.000603106
0.040104
-0.000582659
0.0403488
-0.000566156
0.0405803
-0.000552865
0.0408005
-0.000541471
0.0410113
-0.00053045
0.0412145
-0.000518515
0.0414116
-0.000504995
0.0416038
-0.000489944
0.0417919
-0.000473996
0.0419763
-0.000458068
0.0421573
-0.000443042
0.042335
-0.000429518
0.0425092
-0.000417719
0.0426803
-0.000407579
0.0428484
-0.00039894
0.0430141
-0.000391725
0.0431781
-0.000385986
0.0433413
-0.000381773
0.0435052
-0.00037909
0.0436714
-0.000377738
0.0438423
-0.000377264
0.0440208
-0.000376946
0.044211
-0.000375726
0.0444175
-0.000372208
0.0446444
-0.000364248
0.0448929
-0.000349066
0.045156
-0.000321717
0.045415
-0.000277685
0.0456422
-0.000212218
0.0458003
-0.000123924
0.045861
-2.43966e-05
0.0458085
7.93017e-05
0.0456465
0.000173625
0.0453929
0.000248212
0.0450731
0.000297117
0.0447187
0.000322439
0.0443576
0.000328583
0.0440115
0.000321026
0.0436953
0.000303452
0.0434195
0.000275474
0.0431958
0.000232618
0.0430405
0.00016937
0.0429706
8.52672e-05
0.0429914
-7.12983e-06
0.0431198
-0.000114568
0.0433472
-0.000207936
0.0436639
-0.00028626
0.0440788
-0.000367063
0.0446408
-0.000478791
0.0454399
-0.000633595
0.0465331
-0.000754834
0.0478284
-0.000677422
0.0490157
-0.000260116
0.0496552
0.00045246
0.0494263
0.00123576
0.0482644
0.00183195
0.0463973
0.00210616
0.0442321
0.00207393
0.042189
0.00182234
0.0405912
0.00145599
0.0395387
0.00109673
0.0389765
0.000794195
0.0387698
0.000567391
0.0387933
0.000421114
0.0389338
0.000363999
0.0390817
0.000397064
0.0391359
0.000503535
0.0390366
0.000637643
0.0387831
0.000751437
0.0384089
0.000821285
0.0379692
0.000841487
0.0375206
0.000822222
0.0371066
0.000779062
0.0367518
0.000726689
0.0364599
0.000678738
0.0362205
0.000642935
0.0360161
0.000623573
0.0358246
0.00062221
0.0356246
0.00063603
0.0354004
0.000658767
0.0351427
0.00068401
0.0348487
0.000705957
0.0345206
0.0007207
0.0341646
0.00072612
0.0337889
0.000721413
0.0334027
0.000706668
0.0330156
0.00068263
0.0326365
0.000650564
0.032274
0.000612056
0.0319349
0.0005687
0.0316251
0.000521744
0.0313488
0.000471832
0.031109
0.000418939
0.0309081
0.000362661
0.0307477
0.00030293
0.0306278
0.000240879
0.0305462
0.000179309
0.0304972
0.000122364
0.030472
7.41906e-05
0.0304599
3.72826e-05
0.0304501
1.36641e-05
0.0304272
4.1369e-06
0.0303814
6.7401e-06
0.0303117
1.18424e-05
0.0302279
7.93868e-06
0.0301512
-1.41622e-05
0.0301077
-5.58726e-05
0.0301263
-0.000115166
0.0302215
-0.000173066
0.0303823
-0.000204644
0.030573
-0.000196286
0.0307469
-0.00014812
0.0308617
-8.25932e-05
0.0309126
-3.16321e-05
0.0309156
-1.51035e-05
0.0308984
-4.06904e-05
0.0308982
-0.000106594
0.0309356
-0.000192327
0.0310034
-0.000262691
0.0310666
-0.000284616
0.031078
-0.000245308
0.0310056
-0.000170751
0.0308536
-0.000116405
0.0306552
-0.000122649
0.0304361
-0.000172229
0.0301885
-0.000199271
0.0298901
-0.000149546
0.0295416
-1.91412e-05
0.0292065
0.000120771
0.0289326
0.000237166
0.0287426
0.000300723
0.0286094
0.000325006
0.0285164
0.000343096
0.0284405
0.000382611
0.0283499
0.000444404
0.0282197
0.000512923
0.0280397
0.000574783
0.0278154
0.000620506
0.0275573
0.000652074
0.0272708
0.000674661
0.0269597
0.000689655
0.0266283
0.000695589
0.0262835
0.000690027
0.0259349
0.000671761
0.0255937
0.000642412
0.0252694
0.000606651
0.024968
0.000570834
0.0246904
0.000540488
0.0244344
0.000517987
0.0241982
0.000502112
0.0239855
0.000489618
0.023806
0.000477109
0.02366
0.000476263
0.0235493
0.000490933
0.0234748
0.000522996
0.0234417
0.000564641
0.0234648
0.000599773
0.0235679
0.000614729
0.0237737
0.00061199
0.0240871
0.000612081
0.0244833
0.000639712
0.0249097
0.000696129
0.0253375
0.000730605
0.0257562
0.000698304
0.0261689
0.000581857
0.0265852
0.0004021
0.0270059
0.000206291
0.0274225
3.59651e-05
0.0278076
-7.00626e-05
0.028157
-0.000135374
0.0284671
-0.000169808
0.0287329
-0.000182314
0.0289534
-0.000179895
0.0291328
-0.000166457
0.0292785
-0.000147094
0.029399
-0.00012697
0.0295009
-0.000109395
0.0295889
-9.49937e-05
0.0296659
-8.27717e-05
0.0297331
-7.16876e-05
0.0297912
-6.10826e-05
0.0298406
-5.06094e-05
0.0298809
-3.95763e-05
0.0299123
-2.8012e-05
0.0299346
-1.59081e-05
0.0299473
-3.00513e-06
0.0299498
1.05225e-05
0.0299424
2.38181e-05
0.0299243
3.78771e-05
0.0298951
5.24452e-05
0.0298542
6.76191e-05
0.0298009
8.33104e-05
0.0297347
9.95319e-05
0.0296552
0.000116229
0.029562
0.000133299
0.0294549
0.00015069
0.0293339
0.000168287
0.0291991
0.000185986
0.0290508
0.000203596
0.0288896
0.000220977
0.0287159
0.00023802
0.0285305
0.000254575
0.0283341
0.000270525
0.0281275
0.000285823
0.0279113
0.000300393
0.0276866
0.000314196
0.0274539
0.0003272
0.0272142
0.000339416
0.0269681
0.0003508
0.0267163
0.00036136
0.0264597
0.000371125
0.0261988
0.000380089
0.0259343
0.000388247
0.0256668
0.000395654
0.0253969
0.000402331
0.0251252
0.000408235
0.0248523
0.000413398
0.0245786
0.000417912
0.0243048
0.0004217
0.0240312
0.000424849
0.0237583
0.000427369
0.0234865
0.00042927
0.0232163
0.000430653
0.0229479
0.000431468
0.0226817
0.000431765
0.022418
0.000431644
0.0221571
0.000431169
0.0218991
0.000430374
0.0216442
0.000429318
0.0213924
0.000428052
0.0211439
0.000426651
0.0208986
0.000425199
0.0206566
0.000423739
0.0204177
0.00042234
0.0201818
0.000421079
0.0199488
0.00041999
0.0197185
0.000419108
0.0194908
0.000418492
0.0192654
0.000418122
0.0190422
0.000418006
0.0188211
0.000418123
0.018602
0.00041847
0.0183848
0.000418972
0.0181695
0.000419576
0.0179562
0.000420222
0.0177449
0.000420836
0.0175358
0.000421328
0.017329
0.000421637
0.0171247
0.000421703
0.0169232
0.000421424
0.0167246
0.000420751
0.0165291
0.000419617
0.0163371
0.000418004
0.0161485
0.000415938
0.0159637
0.000413247
0.0157829
0.000409972
0.0156061
0.000406032
0.0154336
0.000401544
0.0152656
0.000396386
0.0151019
0.000390729
0.014943
0.0003843
0.0147892
0.000377026
0.0146407
0.000369312
0.0144978
0.000360732
0.014361
0.000351136
0.0142318
0.000340239
0.0141104
0.000328009
0.013998
0.000313997
0.0138966
0.0002981
0.0138069
0.000279695
0.01373
0.000258705
0.0136646
0.000235522
0.0136091
0.000210896
0.0135614
0.000186661
0.0135198
0.000164341
0.0134849
0.000144298
0.0134592
0.000125343
0.0134447
0.000106716
0.0134433
8.76614e-05
0.0134568
6.72776e-05
0.0134855
4.42701e-05
0.0135269
1.96732e-05
0.0135747
-4.09355e-06
0.01362
-2.23785e-05
0.0136533
-3.10625e-05
0.0136701
-3.01486e-05
0.0136689
-2.37479e-05
0.0136528
-1.65209e-05
0.0136265
-1.11314e-05
0.013593
-8.16807e-06
0.0135538
-6.85679e-06
0.0135087
-6.06194e-06
0.0134562
-4.95173e-06
0.0133946
-3.06464e-06
0.0133234
-1.25801e-06
0.0132449
-5.40061e-07
0.0131653
-2.56202e-06
0.0130968
-1.01161e-05
0.0130584
-2.65269e-05
0.0130737
-5.51311e-05
0.0131674
-9.9189e-05
0.0133575
-0.000161966
0.013648
-0.000245218
0.0140271
-0.000343722
0.0144739
-0.000448155
0.0149595
-0.000541761
0.01545
-0.000607631
0.015918
-0.000635112
0.0163478
-0.000625168
0.0167353
-0.000591366
0.0170855
-0.000550471
0.0174103
-0.000516484
0.0177249
-0.000498211
0.0180448
-0.000499126
0.0183828
-0.00051873
0.0187477
-0.000553767
0.0191433
-0.000599797
0.0195694
-0.000652544
0.0200217
-0.000708774
0.020493
-0.000765857
0.0209723
-0.000819741
0.0214476
-0.00086281
0.0219086
-0.000885055
0.0223475
-0.000880153
0.0227598
-0.000851671
0.0231459
-0.000812038
0.0235098
-0.000773768
0.0238561
-0.00074209
0.0241879
-0.000715456
0.0245058
-0.000690378
0.02481
-0.000665317
0.0251012
-0.000641098
0.0253812
-0.000619399
0.025652
-0.000601376
0.025916
-0.000587182
0.0261747
-0.000576073
0.0264288
-0.000566749
0.0266782
-0.000557738
0.0269219
-0.000547735
0.0271586
-0.000535793
0.0273867
-0.000521408
0.0276049
-0.000504476
0.027812
-0.000485161
0.0280069
-0.000463753
0.0281891
-0.00044056
0.028358
-0.000415847
0.0285132
-0.000389803
0.0286543
-0.000362548
0.0287808
-0.000334157
0.0288923
-0.000304685
0.0289882
-0.000274185
0.0290681
-0.000242711
0.0291313
-0.000210382
0.0291773
-0.000177394
0.0292052
-0.00014396
0.0292135
-0.000110286
0.0291996
-7.63711e-05
0.0291598
-4.12105e-05
0.0290896
-3.12408e-06
0.028988
3.61769e-05
0.0288555
7.67754e-05
0.0286952
0.000115186
0.0285103
0.000150207
0.0283036
0.000180992
0.0280795
0.000205571
0.0278442
0.000221927
0.0276044
0.00022891
0.0273668
0.000226178
0.0271381
0.000213545
0.0269247
0.000190688
0.026733
0.000157275
0.0265696
0.000113182
0.0264405
5.86171e-05
0.0263511
-5.06148e-06
0.0263061
-7.62757e-05
0.0263091
-0.000152993
0.0263611
-0.000230923
0.0264604
-0.000305698
0.026603
-0.000372652
0.0267824
-0.000427179
0.0269897
-0.000465164
0.0272142
-0.000483437
0.0274443
-0.000480131
0.0276683
-0.000454897
0.0278751
-0.00040884
0.0280549
-0.000344308
0.0282003
-0.00026459
0.028306
-0.000173385
0.0283699
-7.37773e-05
0.0283964
3.19094e-05
0.0283868
0.000136335
0.0283359
0.000241942
0.0282413
0.000344791
0.0281021
0.00044372
0.027919
0.000538441
0.0276939
0.000629185
0.0274287
0.000716714
0.0271253
0.000802115
0.0267852
0.000886586
0.0264087
0.00097128
0.0259951
0.00105713
0.0255428
0.00114467
0.025049
0.00123402
0.0245105
0.00132496
0.0239234
0.00141681
0.0232846
0.00150817
0.0225909
0.00159796
0.02184
0.001685
0.0210301
0.00176812
0.0201605
0.0018464
0.0192316
0.00191897
0.0182441
0.00198495
0.0171999
0.00204353
0.016101
0.00209392
0.0149508
0.00213521
0.013753
0.0021667
0.0125119
0.00218804
0.0112328
0.00219826
0.00992389
0.00219473
0.00859761
0.00217429
0.0072708
0.00213622
0.00595934
0.00208887
0.00467247
0.00205007
0.00343151
0.00201331
0.00229405
0.00192159
0.00123382
0.00188174
0.00219573
0.000363972
-0.00128618
0.001272
-0.00286179
0.00215345
-0.00281757
0.00287962
-0.00247791
0.00348055
-0.00221735
0.00400421
-0.00204414
0.004484
-0.00192068
0.00494215
-0.00183175
0.00539576
-0.00177538
0.00585881
-0.00175016
0.00634199
-0.00175163
0.0068524
-0.0017735
0.00739369
-0.00180943
0.00796656
-0.00185388
0.00856945
-0.00190217
0.0091991
-0.00195048
0.00985124
-0.0019958
0.0105211
-0.00203592
0.0112041
-0.00206947
0.0118959
-0.00209583
0.0125929
-0.00211511
0.0132925
-0.00212799
0.0139927
-0.00213555
0.0146927
-0.00213912
0.0153921
-0.00214009
0.0160907
-0.00213968
0.0167887
-0.00213879
0.017486
-0.00213786
0.0181819
-0.00213679
0.0188753
-0.00213495
0.0195642
-0.00213132
0.0202461
-0.00212458
0.0209182
-0.00211334
0.0215778
-0.00209644
0.0222227
-0.00207321
0.022852
-0.0020438
0.0234666
-0.00200944
0.0240693
-0.0019725
0.0246652
-0.0019364
0.025261
-0.00190507
0.025864
-0.00188217
0.0264805
-0.00187015
0.0271149
-0.00186939
0.0277681
-0.00187781
0.0284374
-0.00189111
0.0291166
-0.00190364
0.0297974
-0.00190971
0.0304707
-0.00190492
0.0311279
-0.001887
0.0317624
-0.00185617
0.0323701
-0.0018147
0.0329491
-0.00176608
0.0334998
-0.00171409
0.0340241
-0.00166195
0.0345243
-0.00161181
0.0350028
-0.00156462
0.0354616
-0.00152033
0.035902
-0.00147819
0.036325
-0.00143717
0.0367307
-0.00139621
0.0371194
-0.00135447
0.037491
-0.00131139
0.0378454
-0.00126671
0.0381829
-0.00122048
0.0385036
-0.00117295
0.0388082
-0.00112459
0.0390975
-0.00107605
0.0393727
-0.00102808
0.0396351
-0.000981528
0.0398859
-0.000937239
0.0401262
-0.000895949
0.0403568
-0.00085814
0.0405776
-0.000823889
0.0407878
-0.000792875
0.0409862
-0.0007645
0.0411714
-0.000738092
0.041343
-0.000713088
0.0415017
-0.000689141
0.0416494
-0.000666185
0.0417888
-0.000644436
0.0419231
-0.000624187
0.0420546
-0.000605513
0.0421845
-0.000588043
0.0423125
-0.000571012
0.0424365
-0.000553494
0.0425535
-0.000534719
0.0426602
-0.000514328
0.0427537
-0.00049244
0.0428315
-0.000469529
0.0428916
-0.000446061
0.0429321
-0.000422254
0.0429509
-0.000397896
0.0429457
-0.000372548
0.0429142
-0.000345697
0.0428543
-0.00031709
0.0427652
-0.000286632
0.0426478
-0.000254855
0.0425051
-0.000221536
0.0423436
-0.000187577
0.0421694
-0.000147517
0.0419889
-9.71692e-05
0.0418096
-3.29249e-05
0.0416307
5.50467e-05
0.0414583
0.000147995
0.0412888
0.000248737
0.0411148
0.000347616
0.0409297
0.000433331
0.0407301
0.000496761
0.0405188
0.000533765
0.0403036
0.000543786
0.0400969
0.000527712
0.0399143
0.000485976
0.0397712
0.000418576
0.0396768
0.000327098
0.0396298
0.000216383
0.0396196
9.54539e-05
0.0396371
-2.46262e-05
0.0396269
-0.000104452
0.0395485
-0.000129512
0.0393484
-8.61757e-05
0.0389782
3.1665e-06
0.0384112
8.81697e-05
0.0377
7.76367e-05
0.0369764
-3.12022e-05
0.0363951
-9.60935e-05
0.0360771
5.78442e-05
0.0359437
0.000585841
0.0357302
0.00144923
0.0351854
0.00237679
0.03427
0.00302154
0.0331562
0.00318776
0.0320723
0.00290628
0.0311784
0.00234987
0.03052
0.0017551
0.0300506
0.00126363
0.0297061
0.000911853
0.0294433
0.000683899
0.0292423
0.000564981
0.0290944
0.000544984
0.0289926
0.000605343
0.0289063
0.000723931
0.0288049
0.000852839
0.0286735
0.000952674
0.0285129
0.0010021
0.0283334
0.0010017
0.0281481
0.000964361
0.0279684
0.000906405
0.027803
0.000844124
0.0276573
0.000788666
0.0275339
0.000746979
0.0274339
0.000722197
0.0273561
0.000713816
0.0272963
0.000718623
0.0272494
0.000730894
0.0272108
0.000744524
0.027177
0.00075455
0.0271453
0.000757748
0.0271144
0.000752365
0.0270835
0.000737603
0.0270529
0.000713199
0.0270243
0.000679166
0.0270008
0.000635588
0.026987
0.000582503
0.0269887
0.00051999
0.027012
0.000448541
0.0270613
0.000369596
0.027138
0.000286031
0.0272385
0.000202416
0.0273545
0.000124893
0.0274733
6.05014e-05
0.0275796
1.60813e-05
0.0276576
-3.81223e-06
0.027698
-3.13048e-06
0.0276971
1.45203e-05
0.0276563
4.4973e-05
0.0275865
7.65493e-05
0.027505
9.33571e-05
0.027433
7.98646e-05
0.0273911
2.77519e-05
0.0274006
-6.53993e-05
0.0274635
-0.000178
0.0275742
-0.000283816
0.0277261
-0.000356494
0.0279111
-0.000381301
0.0281272
-0.000364253
0.02837
-0.000325404
0.0286299
-0.000291516
0.0289025
-0.000287683
0.029189
-0.000327219
0.0294854
-0.00040296
0.0297733
-0.000480225
0.0300122
-0.000501618
0.0301329
-0.000405252
0.0300511
-0.00016353
0.0296893
0.000191076
0.0290272
0.000545628
0.0281109
0.000793626
0.0270377
0.000901001
0.0259277
0.0009107
0.0249057
0.000872545
0.0240923
0.00079419
0.0235547
0.00065841
0.0233065
0.000485391
0.0232859
0.000321251
0.0234026
0.000208382
0.0235736
0.000172006
0.0237478
0.000208474
0.0239065
0.000285658
0.0240477
0.000371746
0.0241721
0.000450343
0.024278
0.000514678
0.0243654
0.000564615
0.0244364
0.00060368
0.0244926
0.000633503
0.0245352
0.000652996
0.0245658
0.000659433
0.0245865
0.000650995
0.0245999
0.000629029
0.0246079
0.000598624
0.0246119
0.000566851
0.0246129
0.000539464
0.0246128
0.00051817
0.0246144
0.000500489
0.024621
0.000482981
0.0246342
0.000463908
0.0246674
0.000443039
0.0247375
0.000420912
0.0248661
0.000394366
0.0250777
0.000352992
0.0253932
0.000284279
0.0258216
0.000186342
0.0263557
7.79382e-05
0.0269724
-4.67545e-06
0.027638
-2.58903e-05
0.0283345
-3.17932e-07
0.0290187
4.64204e-05
0.0296414
7.55745e-05
0.0301535
6.97389e-05
0.0305212
3.44012e-05
0.0307435
-1.59706e-05
0.0308456
-6.61516e-05
0.0308741
-9.857e-05
0.0308578
-0.000119106
0.0308203
-0.000132299
0.0307745
-0.000136491
0.0307266
-0.000131987
0.0306796
-0.000119475
0.0306348
-0.000102257
0.0305919
-8.4135e-05
0.0305496
-6.70789e-05
0.0305066
-5.19923e-05
0.0304614
-3.75389e-05
0.0304128
-2.30883e-05
0.0303602
-8.50712e-06
0.0303041
5.51307e-06
0.0302437
2.08154e-05
0.0301795
3.61784e-05
0.030112
5.1616e-05
0.0300415
6.74883e-05
0.0299685
8.35483e-05
0.0298925
9.98176e-05
0.0298137
0.000116685
0.0297318
0.000134341
0.0296465
0.00015289
0.0295573
0.000172494
0.0294637
0.000193142
0.0293651
0.000214861
0.0292608
0.000237577
0.0291504
0.000261108
0.0290334
0.000285265
0.0289096
0.000309752
0.0287789
0.000334339
0.0286411
0.000358783
0.0284963
0.000382766
0.0283448
0.000406107
0.0281866
0.000428687
0.0280221
0.000450358
0.0278515
0.000471022
0.027675
0.000490659
0.027493
0.000509256
0.0273056
0.000526808
0.0271131
0.000543273
0.0269158
0.000558658
0.0267139
0.000573052
0.0265075
0.000586405
0.0262971
0.000598715
0.0260828
0.000609974
0.0258648
0.000620268
0.0256435
0.000629509
0.0254192
0.000637737
0.0251921
0.000645013
0.0249625
0.00065131
0.0247307
0.000656623
0.0244971
0.000661007
0.0242619
0.000664472
0.0240256
0.000666967
0.0237884
0.00066864
0.0235507
0.000669507
0.0233127
0.000669591
0.0230749
0.000668936
0.0228377
0.000667664
0.0226012
0.000665781
0.0223659
0.000663389
0.0221319
0.000660628
0.0218995
0.000657553
0.021669
0.000654257
0.0214405
0.000650844
0.0212142
0.000647411
0.0209901
0.000644067
0.0207683
0.000640879
0.0205489
0.00063794
0.0203317
0.000635254
0.0201169
0.000632891