/*--------------------------------*- C++ -*----------------------------------*\
| =========                 |                                                 |
| \\      /  F ield         | OpenFOAM: The Open Source CFD Toolbox           |
|  \\    /   O peration     | Version:  v2006                                 |
|   \\  /    A nd           | Website:  www.openfoam.com                      |
|    \\/     M anipulation  |                                                 |
\*---------------------------------------------------------------------------*/
FoamFile
{
    version     2.0;
    format      ascii;
    class       volVectorField;
    location    "16.4";
    object      U;
}
// * * * * * * * * * * * * * * * * * * * * * * * * * * * * * * * * * * * * * //

dimensions      [0 1 -1 0 0 0 0];


internalField   nonuniform List<vector> 
150000
(
(0.0018711 -0.00435268 0)
(0.0146787 -0.00836071 0)
(0.0321663 -0.00854691 0)
(0.0476126 -0.00803646 0)
(0.0619392 -0.00766853 0)
(0.0756593 -0.00746988 0)
(0.0888983 -0.00735132 0)
(0.101675 -0.00726563 0)
(0.114037 -0.00720302 0)
(0.126076 -0.00716472 0)
(0.13789 -0.00714922 0)
(0.149562 -0.00715022 0)
(0.161157 -0.00715912 0)
(0.172726 -0.00716764 0)
(0.184306 -0.00716924 0)
(0.195923 -0.00715967 0)
(0.207593 -0.00713694 0)
(0.219327 -0.00710089 0)
(0.231126 -0.00705283 0)
(0.242986 -0.00699504 0)
(0.254895 -0.00693036 0)
(0.266839 -0.00686175 0)
(0.278804 -0.00679181 0)
(0.290771 -0.00672237 0)
(0.302725 -0.00665432 0)
(0.314654 -0.00658769 0)
(0.326548 -0.00652194 0)
(0.338401 -0.00645628 0)
(0.350213 -0.00638994 0)
(0.361986 -0.00632243 0)
(0.373727 -0.00625379 0)
(0.385444 -0.00618477 0)
(0.397143 -0.00611691 0)
(0.408828 -0.00605247 0)
(0.420496 -0.00599406 0)
(0.432137 -0.00594425 0)
(0.443729 -0.00590511 0)
(0.45524 -0.00587775 0)
(0.466632 -0.00586198 0)
(0.477861 -0.00585589 0)
(0.488888 -0.00585543 0)
(0.499684 -0.00585414 0)
(0.510234 -0.00584363 0)
(0.520547 -0.00581532 0)
(0.530648 -0.00576328 0)
(0.540582 -0.00568661 0)
(0.550395 -0.00559006 0)
(0.560133 -0.00548215 0)
(0.569825 -0.00537196 0)
(0.579484 -0.00526601 0)
(0.589104 -0.00516654 0)
(0.598664 -0.00507163 0)
(0.608135 -0.00497642 0)
(0.617487 -0.00487487 0)
(0.626689 -0.00476116 0)
(0.635717 -0.00463043 0)
(0.644551 -0.00447888 0)
(0.653175 -0.00430354 0)
(0.661573 -0.00410226 0)
(0.669729 -0.00387401 0)
(0.677627 -0.0036197 0)
(0.685247 -0.00334313 0)
(0.692576 -0.00305164 0)
(0.699601 -0.00275609 0)
(0.706319 -0.00246995 0)
(0.712734 -0.00220772 0)
(0.718857 -0.00198305 0)
(0.724709 -0.00180705 0)
(0.730317 -0.00168701 0)
(0.73571 -0.00162541 0)
(0.740923 -0.00161955 0)
(0.74599 -0.00166207 0)
(0.750949 -0.00174286 0)
(0.755838 -0.0018511 0)
(0.760695 -0.00197545 0)
(0.765547 -0.00210203 0)
(0.770405 -0.00221362 0)
(0.775259 -0.00229342 0)
(0.780073 -0.00233149 0)
(0.784803 -0.00232862 0)
(0.789401 -0.002295 0)
(0.793832 -0.00224544 0)
(0.798079 -0.00219398 0)
(0.802143 -0.00214979 0)
(0.806043 -0.00211527 0)
(0.809802 -0.00208706 0)
(0.813446 -0.00205902 0)
(0.816997 -0.00202529 0)
(0.820471 -0.00198156 0)
(0.82388 -0.00192434 0)
(0.827233 -0.00184883 0)
(0.830536 -0.00174748 0)
(0.833791 -0.00160929 0)
(0.836986 -0.00141944 0)
(0.840091 -0.00115946 0)
(0.843052 -0.000808482 0)
(0.845781 -0.000347244 0)
(0.848162 0.0002312 0)
(0.850057 0.000901054 0)
(0.851349 0.00158172 0)
(0.851988 0.00212864 0)
(0.852027 0.00236197 0)
(0.851663 0.00222096 0)
(0.851136 0.00176302 0)
(0.850672 0.0010628 0)
(0.85041 0.000187619 0)
(0.850412 -0.000718566 0)
(0.850676 -0.00149141 0)
(0.851153 -0.00204972 0)
(0.851719 -0.00236499 0)
(0.852233 -0.00247115 0)
(0.852588 -0.00244896 0)
(0.852735 -0.00238847 0)
(0.852706 -0.00233684 0)
(0.852569 -0.00228961 0)
(0.852385 -0.00215795 0)
(0.852214 -0.0017907 0)
(0.852068 -0.00112675 0)
(0.851887 -0.00011601 0)
(0.851588 0.00120553 0)
(0.851097 0.00280635 0)
(0.850289 0.0048117 0)
(0.848757 0.00753988 0)
(0.845475 0.0113184 0)
(0.838737 0.0158359 0)
(0.827102 0.0196247 0)
(0.811279 0.0206875 0)
(0.794506 0.0172907 0)
(0.781183 0.00929346 0)
(0.774435 -0.00073897 0)
(0.773672 -0.00916255 0)
(0.776505 -0.0137203 0)
(0.78017 -0.0141173 0)
(0.781362 -0.0110154 0)
(0.779153 -0.00636511 0)
(0.77459 -0.00189066 0)
(0.768509 0.00171725 0)
(0.761378 0.00432624 0)
(0.75347 0.00593454 0)
(0.74512 0.00659339 0)
(0.736813 0.00640535 0)
(0.728991 0.00548674 0)
(0.721914 0.00418045 0)
(0.715606 0.0029336 0)
(0.709881 0.00207143 0)
(0.704438 0.00170522 0)
(0.698991 0.00176033 0)
(0.693356 0.00208229 0)
(0.687465 0.00252586 0)
(0.681321 0.00296711 0)
(0.674962 0.00331788 0)
(0.668467 0.00352815 0)
(0.661939 0.00356612 0)
(0.655485 0.00342365 0)
(0.649203 0.00313337 0)
(0.643176 0.00275298 0)
(0.637468 0.00234031 0)
(0.632115 0.00193908 0)
(0.627139 0.00157666 0)
(0.622544 0.00126825 0)
(0.61832 0.00102116 0)
(0.614443 0.000835706 0)
(0.610882 0.000704298 0)
(0.607602 0.000611944 0)
(0.604574 0.000539975 0)
(0.601788 0.00047234 0)
(0.59925 0.00040207 0)
(0.596984 0.000334493 0)
(0.595023 0.000284167 0)
(0.593399 0.000265886 0)
(0.592135 0.000284545 0)
(0.591238 0.000329295 0)
(0.590706 0.000378718 0)
(0.590518 0.000410601 0)
(0.59066 0.000428509 0)
(0.591114 0.000360999 0)
(0.591862 0.000153806 0)
(0.592888 -0.000205278 0)
(0.594171 -0.000652245 0)
(0.595653 -0.00105141 0)
(0.597206 -0.00126433 0)
(0.598619 -0.00117498 0)
(0.599639 -0.0007758 0)
(0.600048 -0.000278484 0)
(0.59985 -2.11918e-06 0)
(0.599358 -4.12749e-05 0)
(0.598909 -0.000421064 0)
(0.598873 -0.00100465 0)
(0.599348 -0.00157332 0)
(0.600542 -0.00201889 0)
(0.602514 -0.00229168 0)
(0.605191 -0.0023861 0)
(0.608399 -0.00232245 0)
(0.6119 -0.0021475 0)
(0.61551 -0.00196469 0)
(0.619282 -0.00192226 0)
(0.623565 -0.00213246 0)
(0.628806 -0.00260162 0)
(0.635153 -0.00323881 0)
(0.642142 -0.00387707 0)
(0.648708 -0.0042361 0)
(0.653554 -0.00399133 0)
(0.6556 -0.00309687 0)
(0.654699 -0.00226928 0)
(0.652305 -0.0017094 0)
(0.649026 -0.000978058 0)
(0.644879 2.44362e-05 0)
(0.639904 0.00101431 0)
(0.634336 0.00174818 0)
(0.628473 0.00220464 0)
(0.622536 0.00246194 0)
(0.61662 0.00256147 0)
(0.610762 0.00254795 0)
(0.60501 0.0024682 0)
(0.599434 0.00234394 0)
(0.594109 0.00217451 0)
(0.589098 0.00196111 0)
(0.58443 0.00172984 0)
(0.580083 0.00153079 0)
(0.575982 0.00141127 0)
(0.572025 0.00138617 0)
(0.568116 0.00143045 0)
(0.564182 0.00149913 0)
(0.560147 0.0015592 0)
(0.555891 0.00162201 0)
(0.551254 0.00177695 0)
(0.54601 0.00212733 0)
(0.53988 0.00271924 0)
(0.532594 0.00352216 0)
(0.523976 0.00446268 0)
(0.513957 0.00548984 0)
(0.502501 0.00663539 0)
(0.489501 0.00799574 0)
(0.474792 0.00963294 0)
(0.458449 0.0114486 0)
(0.441017 0.0128928 0)
(0.423566 0.0133923 0)
(0.407426 0.0129118 0)
(0.393683 0.0117673 0)
(0.382843 0.0102872 0)
(0.374837 0.0086921 0)
(0.369191 0.00717549 0)
(0.365314 0.00579259 0)
(0.362693 0.00455238 0)
(0.361049 0.00342327 0)
(0.360171 0.00244453 0)
(0.3598 0.0017183 0)
(0.359724 0.00126036 0)
(0.359787 0.000993025 0)
(0.359885 0.000839136 0)
(0.359978 0.000740368 0)
(0.360056 0.000668768 0)
(0.360115 0.000609868 0)
(0.360151 0.000556151 0)
(0.360164 0.000506499 0)
(0.36015 0.000457069 0)
(0.360097 0.00040647 0)
(0.360001 0.000355627 0)
(0.359859 0.000304288 0)
(0.359667 0.000250404 0)
(0.359424 0.000192588 0)
(0.35913 0.000131544 0)
(0.358785 6.69775e-05 0)
(0.358388 -3.30174e-07 0)
(0.357941 -6.89085e-05 0)
(0.357443 -0.00013729 0)
(0.356896 -0.000204083 0)
(0.356298 -0.000268009 0)
(0.35565 -0.000327152 0)
(0.354948 -0.000380084 0)
(0.354189 -0.000425944 0)
(0.353371 -0.000464476 0)
(0.352489 -0.000495529 0)
(0.35154 -0.000517511 0)
(0.35052 -0.000531571 0)
(0.349426 -0.00053939 0)
(0.348259 -0.000540659 0)
(0.347016 -0.000535249 0)
(0.345696 -0.000523938 0)
(0.3443 -0.000507318 0)
(0.342827 -0.000485102 0)
(0.341281 -0.000459154 0)
(0.339658 -0.000429353 0)
(0.337962 -0.000394883 0)
(0.336195 -0.000357335 0)
(0.334361 -0.00031703 0)
(0.332459 -0.000274037 0)
(0.330492 -0.000228178 0)
(0.328464 -0.000181081 0)
(0.326376 -0.000132421 0)
(0.324229 -8.18652e-05 0)
(0.322029 -2.90974e-05 0)
(0.319777 2.47048e-05 0)
(0.317476 7.79355e-05 0)
(0.315129 0.00013199 0)
(0.312739 0.000187176 0)
(0.310307 0.00024137 0)
(0.307836 0.000294351 0)
(0.305329 0.000347849 0)
(0.302787 0.000401432 0)
(0.300214 0.000453738 0)
(0.29761 0.000504695 0)
(0.294978 0.000554505 0)
(0.292317 0.000603083 0)
(0.28963 0.000650104 0)
(0.286917 0.000695589 0)
(0.284177 0.00073985 0)
(0.281412 0.000783089 0)
(0.278621 0.00082504 0)
(0.275802 0.00086591 0)
(0.272956 0.000906561 0)
(0.270082 0.000947101 0)
(0.267176 0.00098806 0)
(0.264239 0.00102998 0)
(0.261268 0.0010731 0)
(0.258262 0.00111771 0)
(0.255218 0.00116414 0)
(0.252137 0.00121253 0)
(0.249015 0.00126309 0)
(0.245853 0.00131568 0)
(0.242651 0.00137019 0)
(0.23941 0.00142565 0)
(0.236131 0.00148172 0)
(0.232816 0.00153737 0)
(0.229467 0.00159125 0)
(0.226089 0.00164446 0)
(0.222688 0.00169118 0)
(0.219266 0.00173565 0)
(0.215833 0.00177481 0)
(0.212391 0.00180662 0)
(0.208949 0.00183151 0)
(0.205513 0.00185027 0)
(0.202091 0.00185855 0)
(0.198691 0.00186073 0)
(0.195317 0.00185819 0)
(0.191976 0.00185376 0)
(0.18868 0.00184597 0)
(0.185427 0.0018333 0)
(0.182222 0.00183115 0)
(0.179084 0.00183087 0)
(0.176006 0.00183395 0)
(0.172997 0.00184936 0)
(0.170079 0.0018558 0)
(0.167267 0.00184445 0)
(0.164605 0.00178875 0)
(0.162137 0.00167881 0)
(0.159908 0.00153193 0)
(0.15794 0.00138537 0)
(0.156195 0.00127478 0)
(0.154616 0.00121326 0)
(0.153166 0.00118843 0)
(0.151811 0.00118839 0)
(0.150535 0.00117602 0)
(0.149345 0.00109824 0)
(0.148294 0.000906851 0)
(0.147475 0.00058618 0)
(0.146952 0.000182151 0)
(0.146753 -0.000235558 0)
(0.146832 -0.000609804 0)
(0.147115 -0.000900526 0)
(0.147533 -0.00111886 0)
(0.14804 -0.00128916 0)
(0.148616 -0.00144612 0)
(0.149252 -0.00160858 0)
(0.149957 -0.0017884 0)
(0.150747 -0.00198173 0)
(0.151643 -0.00217518 0)
(0.152653 -0.00233667 0)
(0.153778 -0.00240919 0)
(0.154991 -0.00231919 0)
(0.156211 -0.00197904 0)
(0.157313 -0.00131719 0)
(0.158128 -0.000324411 0)
(0.15849 0.000914301 0)
(0.158274 0.00217099 0)
(0.157608 0.00312153 0)
(0.156898 0.00356349 0)
(0.156557 0.00344638 0)
(0.156931 0.00281853 0)
(0.15825 0.0019162 0)
(0.160443 0.00103814 0)
(0.163224 0.000373793 0)
(0.166263 -2.5639e-05 0)
(0.169316 -0.000198784 0)
(0.172262 -0.000203511 0)
(0.17507 -9.11322e-05 0)
(0.177776 8.94337e-05 0)
(0.180455 0.000291969 0)
(0.183204 0.000474142 0)
(0.186128 0.00059778 0)
(0.189328 0.00062237 0)
(0.192916 0.000493797 0)
(0.197016 0.000149941 0)
(0.201772 -0.000422431 0)
(0.207275 -0.00112037 0)
(0.213435 -0.00173761 0)
(0.219991 -0.00210779 0)
(0.226636 -0.00221818 0)
(0.233145 -0.00218058 0)
(0.239425 -0.00211598 0)
(0.245473 -0.00207729 0)
(0.251323 -0.0020586 0)
(0.257 -0.00203866 0)
(0.262509 -0.00200612 0)
(0.267846 -0.00196109 0)
(0.273019 -0.00190863 0)
(0.278044 -0.00185427 0)
(0.282946 -0.00180261 0)
(0.287751 -0.00175726 0)
(0.292478 -0.00172054 0)
(0.297139 -0.00169313 0)
(0.301737 -0.00167298 0)
(0.306266 -0.00165653 0)
(0.310715 -0.00164069 0)
(0.315068 -0.00162336 0)
(0.319308 -0.00160325 0)
(0.323416 -0.00157942 0)
(0.327375 -0.00155129 0)
(0.331169 -0.00151861 0)
(0.334785 -0.0014815 0)
(0.338208 -0.00143995 0)
(0.341429 -0.00139373 0)
(0.344438 -0.00134293 0)
(0.347225 -0.00128791 0)
(0.349783 -0.00122865 0)
(0.352108 -0.00116718 0)
(0.354194 -0.00110671 0)
(0.356043 -0.0010528 0)
(0.357668 -0.00102208 0)
(0.359095 -0.0010387 0)
(0.360367 -0.00111191 0)
(0.361516 -0.00122179 0)
(0.362553 -0.0013364 0)
(0.363458 -0.00142637 0)
(0.364208 -0.00149291 0)
(0.364795 -0.00155546 0)
(0.365233 -0.00162397 0)
(0.365547 -0.00169055 0)
(0.365766 -0.00174456 0)
(0.365925 -0.00178326 0)
(0.366066 -0.00181187 0)
(0.366237 -0.00183785 0)
(0.366491 -0.00186683 0)
(0.366887 -0.0019023 0)
(0.367487 -0.00194595 0)
(0.368356 -0.00199773 0)
(0.369559 -0.00205439 0)
(0.371144 -0.0021143 0)
(0.37315 -0.00217868 0)
(0.375595 -0.00224169 0)
(0.378469 -0.00229463 0)
(0.381735 -0.00232726 0)
(0.385321 -0.00232817 0)
(0.389125 -0.00228447 0)
(0.39302 -0.00218598 0)
(0.396863 -0.00202845 0)
(0.400498 -0.00181208 0)
(0.403774 -0.00154043 0)
(0.40655 -0.00121963 0)
(0.408704 -0.000854531 0)
(0.410121 -0.000445951 0)
(0.410778 4.71947e-05 0)
(0.410419 0.000597297 0)
(0.409006 0.00113414 0)
(0.406596 0.00161956 0)
(0.403261 0.0020444 0)
(0.399077 0.00241924 0)
(0.394106 0.00276176 0)
(0.388391 0.00308851 0)
(0.381959 0.00341264 0)
(0.374818 0.00374279 0)
(0.366966 0.00408234 0)
(0.358395 0.00442972 0)
(0.349094 0.00477883 0)
(0.339059 0.00511948 0)
(0.328295 0.00543915 0)
(0.316822 0.00572536 0)
(0.304673 0.00596658 0)
(0.291898 0.00615248 0)
(0.278562 0.00627715 0)
(0.264737 0.00634 0)
(0.250508 0.00634344 0)
(0.235957 0.00628698 0)
(0.221168 0.00617031 0)
(0.206225 0.00599594 0)
(0.191213 0.0057679 0)
(0.17622 0.00549096 0)
(0.161335 0.00517063 0)
(0.146648 0.00481201 0)
(0.132249 0.00441935 0)
(0.118223 0.00399756 0)
(0.104656 0.00356046 0)
(0.0916323 0.00313525 0)
(0.0791873 0.00277769 0)
(0.0672939 0.00257861 0)
(0.055778 0.00260333 0)
(0.0442527 0.00283757 0)
(0.032567 0.00323563 0)
(0.020829 0.00396089 0)
(0.00836946 0.00505259 0)
(0.000741365 -0.00912097 0)
(0.0112595 -0.0187218 0)
(0.0256142 -0.0187163 0)
(0.0374509 -0.0172549 0)
(0.0478879 -0.0161886 0)
(0.057417 -0.0153979 0)
(0.0662021 -0.0146897 0)
(0.0743391 -0.014044 0)
(0.0819617 -0.0135008 0)
(0.0892413 -0.0130837 0)
(0.0963464 -0.0127895 0)
(0.10342 -0.0126009 0)
(0.110576 -0.0124992 0)
(0.117903 -0.0124691 0)
(0.125464 -0.0124982 0)
(0.133298 -0.0125748 0)
(0.141423 -0.0126865 0)
(0.149833 -0.0128199 0)
(0.15851 -0.0129618 0)
(0.16742 -0.0130998 0)
(0.176524 -0.0132236 0)
(0.185782 -0.0133254 0)
(0.195153 -0.0134008 0)
(0.204604 -0.0134489 0)
(0.214113 -0.013472 0)
(0.223664 -0.0134757 0)
(0.233252 -0.0134672 0)
(0.242881 -0.013455 0)
(0.252556 -0.013447 0)
(0.262282 -0.0134494 0)
(0.272059 -0.0134656 0)
(0.281877 -0.0134949 0)
(0.291712 -0.0135315 0)
(0.301527 -0.0135644 0)
(0.311273 -0.0135779 0)
(0.320887 -0.0135528 0)
(0.330308 -0.0134699 0)
(0.339478 -0.0133132 0)
(0.34836 -0.0130748 0)
(0.356947 -0.0127588 0)
(0.365269 -0.0123835 0)
(0.373399 -0.0119809 0)
(0.381437 -0.0115917 0)
(0.389496 -0.0112572 0)
(0.397674 -0.0110091 0)
(0.406032 -0.0108609 0)
(0.414579 -0.010805 0)
(0.423272 -0.0108154 0)
(0.432033 -0.0108568 0)
(0.440761 -0.0108938 0)
(0.449364 -0.0108992 0)
(0.457768 -0.0108585 0)
(0.465932 -0.0107691 0)
(0.473844 -0.0106377 0)
(0.481518 -0.0104758 0)
(0.48898 -0.0102956 0)
(0.496263 -0.0101068 0)
(0.5034 -0.00991503 0)
(0.510414 -0.00972242 0)
(0.517322 -0.00952808 0)
(0.524132 -0.00932974 0)
(0.530845 -0.00912494 0)
(0.537455 -0.00891179 0)
(0.543947 -0.00868918 0)
(0.5503 -0.00845665 0)
(0.556488 -0.00821412 0)
(0.562478 -0.00796187 0)
(0.568236 -0.00770076 0)
(0.573734 -0.00743289 0)
(0.578947 -0.00716244 0)
(0.583863 -0.00689661 0)
(0.588481 -0.00664599 0)
(0.592811 -0.00642314 0)
(0.596874 -0.00623827 0)
(0.600694 -0.00609378 0)
(0.6043 -0.00598107 0)
(0.607721 -0.00588212 0)
(0.610988 -0.00577508 0)
(0.614129 -0.00564089 0)
(0.617169 -0.00546828 0)
(0.620129 -0.00525665 0)
(0.623023 -0.00501625 0)
(0.62586 -0.00476505 0)
(0.628646 -0.00452332 0)
(0.631381 -0.00430793 0)
(0.634066 -0.00412853 0)
(0.636703 -0.00398754 0)
(0.639293 -0.00388295 0)
(0.641843 -0.00381186 0)
(0.644361 -0.00377295 0)
(0.646859 -0.00376664 0)
(0.649355 -0.00379328 0)
(0.651871 -0.00384963 0)
(0.654435 -0.0039259 0)
(0.657086 -0.00400366 0)
(0.659878 -0.00405466 0)
(0.662876 -0.0040431 0)
(0.666153 -0.00393122 0)
(0.669762 -0.00369041 0)
(0.673683 -0.00330598 0)
(0.677747 -0.00279726 0)
(0.681608 -0.00222097 0)
(0.684716 -0.00159495 0)
(0.686551 -0.000964349 0)
(0.686758 -0.000379223 0)
(0.685215 0.000125458 0)
(0.682095 0.000557604 0)
(0.677767 0.00093312 0)
(0.672668 0.00124865 0)
(0.667261 0.00152426 0)
(0.661933 0.00178795 0)
(0.656958 0.00205306 0)
(0.652513 0.00230371 0)
(0.648743 0.00249937 0)
(0.645846 0.0025636 0)
(0.64409 0.00240891 0)
(0.643677 0.00196263 0)
(0.644794 0.00128609 0)
(0.647507 0.000369721 0)
(0.651635 -0.000747487 0)
(0.657044 -0.00202302 0)
(0.664037 -0.00331373 0)
(0.673741 -0.0043361 0)
(0.687706 -0.00434303 0)
(0.706335 -0.00241124 0)
(0.726878 0.00155982 0)
(0.742732 0.0062591 0)
(0.747342 0.00936141 0)
(0.737102 0.00958724 0)
(0.712998 0.00826356 0)
(0.680991 0.00776396 0)
(0.647984 0.00892315 0)
(0.619552 0.0106458 0)
(0.599595 0.0115685 0)
(0.587941 0.0111197 0)
(0.58249 0.00975493 0)
(0.581443 0.00829564 0)
(0.583086 0.00730828 0)
(0.585718 0.00692721 0)
(0.587658 0.00695795 0)
(0.587549 0.00717101 0)
(0.584906 0.00737877 0)
(0.580056 0.0075082 0)
(0.573765 0.00758438 0)
(0.566935 0.00762879 0)
(0.560353 0.00762814 0)
(0.554544 0.00756641 0)
(0.549716 0.00745946 0)
(0.545799 0.00735349 0)
(0.542567 0.00728566 0)
(0.539711 0.00726797 0)
(0.536882 0.00729565 0)
(0.533787 0.00734916 0)
(0.530232 0.00739404 0)
(0.52613 0.00740165 0)
(0.521481 0.00735238 0)
(0.516354 0.00723321 0)
(0.510859 0.00703881 0)
(0.505132 0.00677295 0)
(0.499314 0.00644771 0)
(0.493549 0.00608141 0)
(0.48797 0.00569555 0)
(0.482695 0.00531053 0)
(0.47782 0.00494031 0)
(0.47342 0.00458707 0)
(0.469548 0.00423821 0)
(0.466242 0.00386853 0)
(0.463533 0.00344811 0)
(0.461437 0.00295389 0)
(0.459943 0.00238014 0)
(0.458996 0.0017423 0)
(0.458489 0.00106583 0)
(0.458274 0.000380685 0)
(0.458178 -0.000270223 0)
(0.458006 -0.000815343 0)
(0.457557 -0.00123034 0)
(0.456721 -0.00148122 0)
(0.455547 -0.0015573 0)
(0.454259 -0.00149573 0)
(0.453241 -0.00135672 0)
(0.452973 -0.00114422 0)
(0.453821 -0.000853479 0)
(0.455832 -0.000450986 0)
(0.458683 4.24479e-05 0)
(0.461675 0.000509251 0)
(0.463999 0.000852033 0)
(0.465278 0.000952086 0)
(0.46553 0.000740267 0)
(0.465298 0.000225355 0)
(0.465096 -0.000562375 0)
(0.465377 -0.00154052 0)
(0.466264 -0.00252792 0)
(0.467453 -0.0033209 0)
(0.468271 -0.00386558 0)
(0.467983 -0.00431905 0)
(0.466273 -0.00500649 0)
(0.463482 -0.00612085 0)
(0.46024 -0.00741979 0)
(0.456804 -0.00819415 0)
(0.452852 -0.00763581 0)
(0.44802 -0.00539005 0)
(0.442708 -0.00183957 0)
(0.438017 0.00183641 0)
(0.434685 0.00445536 0)
(0.432242 0.00583639 0)
(0.43065 0.00650874 0)
(0.429574 0.0069075 0)
(0.42848 0.00717685 0)
(0.426909 0.0073332 0)
(0.424611 0.00739538 0)
(0.42158 0.00741452 0)
(0.417969 0.00740808 0)
(0.413904 0.00736845 0)
(0.409439 0.00727048 0)
(0.404616 0.00708685 0)
(0.399517 0.00681832 0)
(0.394274 0.00649457 0)
(0.389057 0.00615793 0)
(0.384037 0.00584648 0)
(0.379341 0.00558597 0)
(0.375017 0.0053899 0)
(0.371033 0.00526788 0)
(0.367334 0.00523962 0)
(0.363932 0.0053406 0)
(0.360949 0.00562313 0)
(0.358493 0.00611878 0)
(0.3566 0.00685624 0)
(0.355248 0.00783809 0)
(0.354426 0.0090135 0)
(0.354259 0.0102897 0)
(0.355085 0.011588 0)
(0.357347 0.0128863 0)
(0.361319 0.0142013 0)
(0.366815 0.0154961 0)
(0.373122 0.0164614 0)
(0.379529 0.0166353 0)
(0.385766 0.0155664 0)
(0.391882 0.0131876 0)
(0.398045 0.00991068 0)
(0.404346 0.00642407 0)
(0.410687 0.00340649 0)
(0.416754 0.00121893 0)
(0.422261 -0.000115172 0)
(0.4272 -0.000841006 0)
(0.431528 -0.00121651 0)
(0.435161 -0.00137185 0)
(0.438125 -0.0013714 0)
(0.440522 -0.00127954 0)
(0.442476 -0.00115499 0)
(0.444108 -0.00102553 0)
(0.445504 -0.000908708 0)
(0.446719 -0.000804826 0)
(0.44778 -0.00070875 0)
(0.448701 -0.000614315 0)
(0.449488 -0.000515763 0)
(0.450143 -0.000409216 0)
(0.450663 -0.000295629 0)
(0.451047 -0.000175021 0)
(0.45129 -4.804e-05 0)
(0.451386 8.83314e-05 0)
(0.451333 0.000232977 0)
(0.451125 0.000382396 0)
(0.450753 0.000534282 0)
(0.45021 0.000686881 0)
(0.449487 0.000839148 0)
(0.448575 0.000990589 0)
(0.447466 0.00114053 0)
(0.446154 0.00128844 0)
(0.444635 0.00143452 0)
(0.442907 0.00157875 0)
(0.44097 0.00172164 0)
(0.43883 0.00186316 0)
(0.43649 0.00200222 0)
(0.43396 0.00213902 0)
(0.431249 0.00227329 0)
(0.428366 0.00240379 0)
(0.425325 0.00252998 0)
(0.422136 0.00265169 0)
(0.418811 0.00276841 0)
(0.415363 0.00287951 0)
(0.411803 0.00298492 0)
(0.408142 0.00308358 0)
(0.404392 0.00317607 0)
(0.400563 0.00326319 0)
(0.396666 0.00334344 0)
(0.392711 0.00341663 0)
(0.388707 0.00348349 0)
(0.384663 0.00354449 0)
(0.380589 0.00359889 0)
(0.376491 0.00364694 0)
(0.37238 0.00368986 0)
(0.368263 0.00372741 0)
(0.364146 0.0037588 0)
(0.360037 0.00378484 0)
(0.355942 0.00380585 0)
(0.351869 0.00382272 0)
(0.34782 0.00383569 0)
(0.343803 0.00384433 0)
(0.339823 0.00384958 0)
(0.335882 0.00385235 0)
(0.331985 0.00385306 0)
(0.328133 0.00385202 0)
(0.324328 0.00384969 0)
(0.320573 0.00384706 0)
(0.316867 0.00384474 0)
(0.31321 0.00384309 0)
(0.309601 0.00384258 0)
(0.30604 0.00384367 0)
(0.302522 0.00384677 0)
(0.299047 0.00385216 0)
(0.295612 0.00386022 0)
(0.292214 0.00387058 0)
(0.28885 0.00388315 0)
(0.285518 0.00389813 0)
(0.282218 0.00391493 0)
(0.278946 0.00393282 0)
(0.275703 0.0039513 0)
(0.272489 0.00396983 0)
(0.269304 0.00398774 0)
(0.266152 0.00400392 0)
(0.263032 0.00401767 0)
(0.259949 0.00402841 0)
(0.256904 0.0040359 0)
(0.253902 0.00403958 0)
(0.250945 0.0040386 0)
(0.248036 0.00403358 0)
(0.245177 0.00402274 0)
(0.242375 0.00400825 0)
(0.23963 0.0039885 0)
(0.236944 0.00396283 0)
(0.234321 0.00393279 0)
(0.23176 0.00389767 0)
(0.229263 0.00385748 0)
(0.226839 0.00381349 0)
(0.224487 0.00376111 0)
(0.22221 0.00370547 0)
(0.220013 0.00364239 0)
(0.217902 0.00356605 0)
(0.215893 0.00348079 0)
(0.213994 0.00337662 0)
(0.212224 0.00324953 0)
(0.210605 0.00310502 0)
(0.209152 0.00293435 0)
(0.207883 0.00273211 0)
(0.206798 0.00249987 0)
(0.205884 0.00224371 0)
(0.205107 0.00197705 0)
(0.204422 0.00172025 0)
(0.203822 0.00149912 0)
(0.203341 0.00131391 0)
(0.203014 0.00115029 0)
(0.202864 0.000999484 0)
(0.20292 0.000865747 0)
(0.203213 0.000741565 0)
(0.203733 0.000622808 0)
(0.204413 0.000509587 0)
(0.20513 0.000404442 0)
(0.205734 0.000322543 0)
(0.206105 0.000277622 0)
(0.206195 0.00028099 0)
(0.206027 0.000316281 0)
(0.205672 0.000369097 0)
(0.205195 0.000426089 0)
(0.204629 0.000482287 0)
(0.203981 0.000536147 0)
(0.203238 0.000583234 0)
(0.202372 0.000608695 0)
(0.201363 0.00059387 0)
(0.200214 0.000519743 0)
(0.19898 0.000363257 0)
(0.197794 0.00011474 0)
(0.196887 -0.00021688 0)
(0.196591 -0.000606558 0)
(0.19728 -0.00102302 0)
(0.199339 -0.00146964 0)
(0.202948 -0.00200504 0)
(0.208006 -0.00268588 0)
(0.214284 -0.00347152 0)
(0.221417 -0.004253 0)
(0.228858 -0.00487176 0)
(0.236122 -0.00519325 0)
(0.242885 -0.00520373 0)
(0.249003 -0.00500076 0)
(0.254498 -0.0047268 0)
(0.259507 -0.00450743 0)
(0.264243 -0.00441966 0)
(0.268948 -0.00449522 0)
(0.273841 -0.00473596 0)
(0.279087 -0.0051235 0)
(0.284781 -0.00562777 0)
(0.290947 -0.00621405 0)
(0.297549 -0.00684887 0)
(0.304507 -0.00749962 0)
(0.31169 -0.00811907 0)
(0.318914 -0.00863192 0)
(0.325986 -0.00894971 0)
(0.332758 -0.0090174 0)
(0.339144 -0.0088562 0)
(0.345126 -0.00855486 0)
(0.350746 -0.00821388 0)
(0.356072 -0.00789307 0)
(0.361163 -0.00760291 0)
(0.366044 -0.00733072 0)
(0.370717 -0.00706791 0)
(0.375187 -0.00681964 0)
(0.379472 -0.00659932 0)
(0.383602 -0.00641861 0)
(0.387613 -0.00628069 0)
(0.391535 -0.00617916 0)
(0.395385 -0.00610079 0)
(0.399168 -0.00602968 0)
(0.402875 -0.005951 0)
(0.406488 -0.00585374 0)
(0.409985 -0.00573144 0)
(0.413343 -0.00558132 0)
(0.41654 -0.0054031 0)
(0.419562 -0.0051981 0)
(0.422397 -0.00496869 0)
(0.425035 -0.00471782 0)
(0.427471 -0.00444855 0)
(0.429698 -0.00416376 0)
(0.431709 -0.00386586 0)
(0.433498 -0.00355679 0)
(0.435057 -0.00323827 0)
(0.436379 -0.0029121 0)
(0.437456 -0.00258095 0)
(0.438279 -0.00224826 0)
(0.438837 -0.00191826 0)
(0.439115 -0.00159668 0)
(0.439086 -0.00128677 0)
(0.438699 -0.000979747 0)
(0.437898 -0.00066857 0)
(0.43661 -0.000339266 0)
(0.43484 3.35658e-06 0)
(0.432631 0.000345366 0)
(0.430029 0.000676085 0)
(0.427074 0.000983934 0)
(0.423816 0.00124709 0)
(0.420335 0.0014404 0)
(0.416733 0.00155013 0)
(0.413113 0.00157422 0)
(0.409574 0.00151277 0)
(0.406213 0.00136287 0)
(0.403128 0.00111993 0)
(0.400418 0.000781019 0)
(0.398176 0.000346973 0)
(0.396489 -0.000180182 0)
(0.395434 -0.000787789 0)
(0.395079 -0.00144397 0)
(0.39546 -0.00211559 0)
(0.396573 -0.00276451 0)
(0.398376 -0.00334883 0)
(0.400791 -0.00382623 0)
(0.403702 -0.00415714 0)
(0.40696 -0.00431054 0)
(0.410397 -0.00426815 0)
(0.413834 -0.00402509 0)
(0.417098 -0.00358954 0)
(0.420029 -0.0029806 0)
(0.422493 -0.00222319 0)
(0.424402 -0.00134471 0)
(0.425631 -0.000354081 0)
(0.426332 0.00071235 0)
(0.426481 0.00181903 0)
(0.426041 0.00291015 0)
(0.424962 0.00394827 0)
(0.423212 0.0049269 0)
(0.420791 0.00585467 0)
(0.417721 0.00674348 0)
(0.414032 0.00760673 0)
(0.409757 0.00845786 0)
(0.404922 0.00930874 0)
(0.399541 0.0101684 0)
(0.393612 0.0110417 0)
(0.387118 0.0119276 0)
(0.380024 0.0128203 0)
(0.372286 0.0137099 0)
(0.363849 0.0145844 0)
(0.354657 0.0154315 0)
(0.344662 0.0162393 0)
(0.333822 0.0169955 0)
(0.322108 0.0176883 0)
(0.3095 0.0183042 0)
(0.295994 0.0188316 0)
(0.2816 0.0192625 0)
(0.266339 0.0195913 0)
(0.250238 0.0198128 0)
(0.233339 0.0199209 0)
(0.215697 0.0199107 0)
(0.197373 0.0197802 0)
(0.178433 0.0195249 0)
(0.158969 0.019136 0)
(0.139131 0.0186144 0)
(0.119137 0.0179934 0)
(0.0992589 0.0173723 0)
(0.0796648 0.0169691 0)
(0.0604306 0.0169399 0)
(0.0423427 0.0168076 0)
(0.0263173 0.0170116 0)
(0.0111822 0.0195084 0)
(0.00024728 -0.0135151 0)
(0.0110377 -0.0295428 0)
(0.0259791 -0.029143 0)
(0.0378497 -0.0260407 0)
(0.0474971 -0.0237274 0)
(0.0557147 -0.022094 0)
(0.0630782 -0.0207798 0)
(0.0699703 -0.0197157 0)
(0.0766684 -0.0189441 0)
(0.0834063 -0.0184831 0)
(0.0903751 -0.0183048 0)
(0.0977107 -0.0183576 0)
(0.105494 -0.0185865 0)
(0.113756 -0.01894 0)
(0.122489 -0.0193716 0)
(0.131655 -0.0198393 0)
(0.141195 -0.020306 0)
(0.151041 -0.0207419 0)
(0.161119 -0.0211247 0)
(0.171362 -0.0214409 0)
(0.181709 -0.0216855 0)
(0.192115 -0.0218612 0)
(0.202545 -0.021977 0)
(0.212978 -0.0220464 0)
(0.223405 -0.0220851 0)
(0.233822 -0.0221082 0)
(0.244233 -0.0221284 0)
(0.254637 -0.0221531 0)
(0.26503 -0.0221836 0)
(0.275399 -0.0222143 0)
(0.28572 -0.0222334 0)
(0.29596 -0.022224 0)
(0.306078 -0.0221665 0)
(0.316031 -0.0220413 0)
(0.325779 -0.0218328 0)
(0.335297 -0.0215337 0)
(0.344582 -0.0211497 0)
(0.35366 -0.0207023 0)
(0.362594 -0.0202299 0)
(0.371471 -0.0197839 0)
(0.380402 -0.0194199 0)
(0.389495 -0.0191845 0)
(0.398834 -0.0191015 0)
(0.408464 -0.0191622 0)
(0.418371 -0.0193248 0)
(0.428488 -0.0195234 0)
(0.438701 -0.0196845 0)
(0.448874 -0.0197456 0)
(0.458871 -0.0196687 0)
(0.468573 -0.0194463 0)
(0.477898 -0.0190978 0)
(0.4868 -0.0186602 0)
(0.495272 -0.0181759 0)
(0.503332 -0.0176829 0)
(0.511013 -0.0172074 0)
(0.518352 -0.016762 0)
(0.525385 -0.0163468 0)
(0.532136 -0.0159534 0)
(0.538621 -0.0155689 0)
(0.54485 -0.0151798 0)
(0.550825 -0.0147748 0)
(0.556545 -0.0143459 0)
(0.562011 -0.0138885 0)
(0.567221 -0.0134015 0)
(0.57218 -0.0128868 0)
(0.576893 -0.0123486 0)
(0.58137 -0.0117944 0)
(0.585629 -0.0112341 0)
(0.589685 -0.0106805 0)
(0.59356 -0.0101485 0)
(0.597273 -0.00965306 0)
(0.600836 -0.00920665 0)
(0.604258 -0.00881644 0)
(0.607532 -0.00848369 0)
(0.610641 -0.00820449 0)
(0.613563 -0.00797052 0)
(0.616282 -0.00776947 0)
(0.618798 -0.00758717 0)
(0.621131 -0.00741208 0)
(0.623316 -0.0072392 0)
(0.625401 -0.00707011 0)
(0.62743 -0.00690954 0)
(0.629433 -0.00676132 0)
(0.631417 -0.0066262 0)
(0.633362 -0.00650171 0)
(0.63523 -0.00638384 0)
(0.63697 -0.00626884 0)
(0.638535 -0.00615478 0)
(0.639882 -0.0060425 0)
(0.640979 -0.00593343 0)
(0.641798 -0.00582755 0)
(0.64231 -0.00572333 0)
(0.642482 -0.0056175 0)
(0.642277 -0.00550779 0)
(0.64166 -0.00539468 0)
(0.640607 -0.00528022 0)
(0.639116 -0.00516607 0)
(0.637214 -0.00503993 0)
(0.634968 -0.00486829 0)
(0.632478 -0.00454764 0)
(0.629845 -0.00395034 0)
(0.627176 -0.00296171 0)
(0.624526 -0.00158004 0)
(0.621939 0.000124532 0)
(0.619447 0.00194444 0)
(0.61696 0.00365259 0)
(0.614344 0.00502615 0)
(0.611513 0.00591758 0)
(0.608465 0.00631766 0)
(0.605277 0.00629635 0)
(0.602101 0.00594256 0)
(0.599157 0.0053117 0)
(0.596693 0.00440545 0)
(0.594915 0.00318702 0)
(0.593902 0.00163856 0)
(0.59357 -0.000197122 0)
(0.593762 -0.00216625 0)
(0.594023 -0.00394965 0)
(0.593645 -0.00522469 0)
(0.591878 -0.00589284 0)
(0.587915 -0.0063729 0)
(0.581033 -0.00759426 0)
(0.571209 -0.0100529 0)
(0.559767 -0.0128589 0)
(0.549162 -0.013242 0)
(0.542137 -0.00798338 0)
(0.539802 0.00353881 0)
(0.538848 0.0185205 0)
(0.534109 0.0323028 0)
(0.522844 0.0405122 0)
(0.506581 0.0411385 0)
(0.489154 0.0354025 0)
(0.473891 0.0265371 0)
(0.46228 0.0175421 0)
(0.454044 0.0105147 0)
(0.448133 0.00590875 0)
(0.443673 0.00335207 0)
(0.440241 0.00260645 0)
(0.437677 0.0035244 0)
(0.435916 0.00565052 0)
(0.434676 0.00823264 0)
(0.433415 0.0105769 0)
(0.431731 0.0121149 0)
(0.429543 0.0126366 0)
(0.426972 0.012307 0)
(0.424216 0.0114763 0)
(0.421467 0.0104856 0)
(0.418878 0.00955827 0)
(0.416552 0.00883036 0)
(0.41455 0.00839302 0)
(0.412899 0.00827719 0)
(0.4116 0.0084477 0)
(0.410612 0.0088219 0)
(0.409858 0.00928998 0)
(0.409259 0.00974318 0)
(0.408753 0.0101014 0)
(0.408295 0.0103196 0)
(0.407855 0.0103782 0)
(0.407416 0.0102725 0)
(0.406976 0.010007 0)
(0.406547 0.00959252 0)
(0.406165 0.00904395 0)
(0.405887 0.00837651 0)
(0.405795 0.00760308 0)
(0.405982 0.00673422 0)
(0.406534 0.00578075 0)
(0.407501 0.00475895 0)
(0.408872 0.0036991 0)
(0.410559 0.00265323 0)
(0.412401 0.00169604 0)
(0.414176 0.000915797 0)
(0.415645 0.000403135 0)
(0.416607 0.000220061 0)
(0.416948 0.000365932 0)
(0.416649 0.000742494 0)
(0.415803 0.00120868 0)
(0.414623 0.00156819 0)
(0.413408 0.00157367 0)
(0.412503 0.000996625 0)
(0.412243 -0.000211055 0)
(0.412792 -0.00184563 0)
(0.414124 -0.00346588 0)
(0.416147 -0.00458874 0)
(0.418718 -0.00485609 0)
(0.421748 -0.00423475 0)
(0.425219 -0.00309511 0)
(0.42904 -0.0019331 0)
(0.433075 -0.00126411 0)
(0.437305 -0.00141158 0)
(0.441717 -0.00228873 0)
(0.446196 -0.00344341 0)
(0.450384 -0.00417691 0)
(0.453484 -0.00384813 0)
(0.454258 -0.00225704 0)
(0.451318 7.97718e-05 0)
(0.443739 0.00215603 0)
(0.431657 0.00318378 0)