/*--------------------------------*- C++ -*----------------------------------*\
| =========                 |                                                 |
| \\      /  F ield         | OpenFOAM: The Open Source CFD Toolbox           |
|  \\    /   O peration     | Version:  v2006                                 |
|   \\  /    A nd           | Website:  www.openfoam.com                      |
|    \\/     M anipulation  |                                                 |
\*---------------------------------------------------------------------------*/
FoamFile
{
    version     2.0;
    format      ascii;
    class       volScalarField;
    location    "13.8";
    object      p;
}
// * * * * * * * * * * * * * * * * * * * * * * * * * * * * * * * * * * * * * //

dimensions      [1 -1 -2 0 0 0 0];


internalField   nonuniform List<scalar> 
52500
(
31998.8
31998.7
31998.6
31998.3
31998
31997.6
31997.2
31996.6
31996
31995.3
31994.5
31993.6
31992.6
31991.6
31990.4
31989.2
31987.9
31986.5
31985.1
31983.5
31981.9
31980.1
31978.3
31976.4
31974.4
31972.3
31970.1
31967.9
31965.5
31963
31960.4
31957.8
31955
31952.1
31949.1
31946
31942.8
31939.5
31936.1
31932.6
31929
31925.2
31921.3
31917.4
31913.3
31909
31904.7
31900.3
31895.7
31891
31886.1
31881.2
31876.1
31870.9
31865.5
31860
31854.4
31848.6
31842.7
31836.7
31830.6
31824.3
31817.8
31811.3
31804.5
31797.7
31790.7
31783.6
31776.4
31769
31761.4
31753.8
31746
31738
31730
31721.8
31713.4
31705
31696.4
31687.6
31678.7
31669.7
31660.6
31651.4
31642
31632.4
31622.8
31613
31603.1
31593.1
31583
31572.7
31562.3
31551.8
31541.2
31530.5
31519.6
31508.7
31497.6
31486.4
31475.1
31463.7
31452.2
31440.6
31428.9
31417.1
31405.2
31393.2
31381
31368.8
31356.6
31344.2
31331.7
31319.2
31306.5
31293.8
31281
31268.1
31255.2
31242.1
31229.1
31215.9
31202.7
31189.4
31176
31162.6
31149.2
31135.7
31122.1
31108.5
31094.8
31081.1
31067.4
31053.6
31039.8
31026
31012.2
30998.3
30984.4
30970.5
30956.5
30942.6
30928.6
30914.7
30900.7
30886.7
30872.8
30858.8
30844.9
30831
30817.1
30803.2
30789.3
30775.5
30761.7
30747.9
30734.2
30720.5
30706.8
30693.2
30679.7
30666.2
30652.7
30639.3
30626
30612.7
30599.5
30586.4
30573.3
30560.3
30547.3
30534.5
30521.7
30509
30496.5
30484
30471.6
30459.3
30447.1
30435
30423.1
30411.2
30399.5
30387.9
30376.3
30364.9
30353.7
30342.6
30331.6
30320.7
30310
30299.4
30289
30278.7
30268.5
30258.5
30248.6
30238.9
30229.3
30219.9
30210.7
30201.6
30192.7
30183.9
30175.3
30166.8
30158.5
30150.4
30142.4
30134.7
30127
30119.6
30112.3
30105.2
30098.3
30091.5
30084.9
30078.5
30072.3
30066.2
30060.3
30054.6
30049
30043.7
30038.5
30033.5
30028.6
30023.9
30019.4
30015.1
30011
30007
30003.2
29999.5
29996
29992.7
29989.6
29986.6
29983.8
29981.2
29978.7
29976.4
29974.3
29972.3
29970.5
29968.9
29967.4
29966
29964.9
29963.8
29963
29962.3
29961.7
29961.3
29961
29960.9
29961
29961.1
29961.5
29961.9
29962.6
29963.3
29964.2
29965.2
29966.4
29967.6
29969
29970.6
29972.2
29974
29975.9
29977.9
29980
29982.2
29984.5
29987
29989.5
29992.1
29994.8
29997.6
30000.5
30003.4
30006.4
30009.5
30012.7
30015.9
30019.2
30022.6
30026
30029.5
30033
30036.6
30040.3
30044
30047.7
30051.5
30055.2
30059
30062.8
30066.6
30070.4
30074.1
30077.9
30081.7
30085.5
30089.2
30092.9
30096.7
30100.3
30104
30107.6
30111.2
30114.7
30118.2
30121.6
30125
30128.4
30131.6
30134.9
30138
30141.1
30144.1
30147
30149.9
30152.6
30155.3
30157.9
30160.4
30162.8
30165.2
30167.4
30169.5
30171.6
30173.5
30175.3
30177.1
30178.7
30180.2
30181.6
30182.9
30184.1
30185.2
30186.1
30186.9
30187.7
30188.3
30188.7
30189.1
30189.4
30189.5
31541.2
31541.2
31541
31540.8
31540.5
31540.1
31539.6
31539
31538.4
31537.7
31536.9
31536
31535.1
31534
31532.9
31531.7
31530.4
31529
31527.5
31526
31524.3
31522.6
31520.8
31518.9
31516.9
31514.8
31512.6
31510.3
31508
31505.5
31502.9
31500.2
31497.5
31494.6
31491.6
31488.5
31485.3
31482
31478.6
31475.1
31471.5
31467.7
31463.9
31459.9
31455.8
31451.6
31447.2
31442.8
31438.2
31433.5
31428.7
31423.7
31418.6
31413.4
31408
31402.5
31396.9
31391.2
31385.3
31379.2
31373.1
31366.8
31360.3
31353.8
31347.1
31340.2
31333.2
31326.1
31318.9
31311.5
31304
31296.3
31288.5
31280.6
31272.5
31264.3
31255.9
31247.5
31238.9
31230.1
31221.3
31212.3
31203.1
31193.9
31184.5
31175
31165.3
31155.5
31145.6
31135.6
31125.5
31115.2
31104.8
31094.3
31083.7
31073
31062.1
31051.2
31040.1
31028.9
31017.6
31006.2
30994.7
30983.1
30971.3
30959.5
30947.6
30935.6
30923.5
30911.3
30899
30886.6
30874.1
30861.5
30848.9
30836.2
30823.4
30810.5
30797.5
30784.5
30771.4
30758.2
30745
30731.7
30718.3
30704.9
30691.5
30677.9
30664.4
30650.8
30637.1
30623.4
30609.7
30595.9
30582.1
30568.2
30554.4
30540.5
30526.6
30512.7
30498.7
30484.8
30470.8
30456.9
30442.9
30428.9
30415
30401
30387.1
30373.1
30359.2
30345.3
30331.5
30317.6
30303.8
30290
30276.3
30262.6
30248.9
30235.2
30221.6
30208.1
30194.6
30181.2
30167.8
30154.5
30141.2
30128.1
30115
30102
30089.1
30076.2
30063.5
30050.8
30038.2
30025.8
30013.4
30001.1
29988.9
29976.8
29964.9
29953
29941.3
29929.7
29918.2
29906.8
29895.5
29884.4
29873.4
29862.6
29851.8
29841.2
29830.8
29820.5
29810.3
29800.3
29790.4
29780.7
29771.1
29761.7
29752.5
29743.4
29734.4
29725.6
29717
29708.6
29700.3
29692.1
29684.2
29676.4
29668.8
29661.3
29654
29646.9
29640
29633.2
29626.6
29620.2
29614
29607.9
29602
29596.3
29590.7
29585.4
29580.2
29575.1
29570.3
29565.6
29561.1
29556.8
29552.6
29548.6
29544.8
29541.2
29537.7
29534.4
29531.3
29528.3
29525.5
29522.9
29520.4
29518.1
29516
29514
29512.2
29510.5
29509
29507.7
29506.5
29505.5
29504.7
29504
29503.4
29503
29502.8
29502.7
29502.7
29502.9
29503.2
29503.7
29504.3
29505.1
29506
29507
29508.1
29509.4
29510.8
29512.4
29514.1
29515.8
29517.7
29519.7
29521.9
29524.1
29526.4
29528.9
29531.4
29534
29536.7
29539.6
29542.4
29545.4
29548.5
29551.6
29554.7
29558
29561.3
29564.7
29568.1
29571.6
29575.1
29578.7
29582.4
29586.1
29589.8
29593.6
29597.3
29601.1
29604.9
29608.7
29612.5
29616.3
29620.1
29623.9
29627.6
29631.4
29635.1
29638.9
29642.6
29646.2
29649.8
29653.4
29657
29660.5
29663.9
29667.3
29670.7
29673.9
29677.2
29680.3
29683.4
29686.4
29689.4
29692.2
29695
29697.7
29700.3
29702.8
29705.2
29707.6
29709.8
29712
29714
29715.9
29717.8
29719.5
29721.1
29722.7
29724.1
29725.4
29726.6
29727.6
29728.6
29729.4
29730.1
29730.7
29731.2
29731.6
29731.8
29732
31083.8
31083.7
31083.6
31083.3
31083
31082.6
31082.2
31081.6
31081
31080.3
31079.5
31078.6
31077.6
31076.6
31075.5
31074.3
31073
31071.6
31070.2
31068.6
31067
31065.3
31063.5
31061.6
31059.6
31057.5
31055.3
31053
31050.7
31048.2
31045.6
31043
31040.2
31037.3
31034.4
31031.3
31028.1
31024.8
31021.4
31017.9
31014.3
31010.5
31006.7
31002.7
30998.6
30994.4
30990
30985.6
30981
30976.3
30971.4
30966.5
30961.4
30956.2
30950.8
30945.3
30939.7
30934
30928.1
30922
30915.9
30909.6
30903.2
30896.6
30889.9
30883
30876.1
30868.9
30861.7
30854.3
30846.8
30839.1
30831.3
30823.4
30815.3
30807.1
30798.8
30790.3
30781.7
30772.9
30764.1
30755.1
30745.9
30736.7
30727.3
30717.7
30708.1
30698.3
30688.4
30678.4
30668.2
30658
30647.6
30637.1
30626.4
30615.7
30604.8
30593.9
30582.8
30571.6
30560.3
30548.9
30537.3
30525.7
30514
30502.1
30490.2
30478.2
30466.1
30453.9
30441.5
30429.1
30416.7
30404.1
30391.4
30378.7
30365.9
30353
30340
30327
30313.9
30300.7
30287.4
30274.1
30260.8
30247.3
30233.9
30220.3
30206.7
30193.1
30179.4
30165.7
30152
30138.2
30124.4
30110.5
30096.6
30082.7
30068.8
30054.9
30040.9
30027
30013
29999
29985
29971
29957.1
29943.1
29929.1
29915.2
29901.2
29887.3
29873.5
29859.6
29845.8
29832
29818.2
29804.5
29790.8
29777.2
29763.6
29750
29736.6
29723.1
29709.8
29696.4
29683.2
29670
29656.9
29643.9
29631
29618.1
29605.3
29592.6
29580
29567.5
29555.1
29542.8
29530.6
29518.5
29506.5
29494.7
29482.9
29471.3
29459.7
29448.3
29437.1
29425.9
29414.9
29404
29393.3
29382.7
29372.2
29361.9
29351.7
29341.7
29331.8
29322.1
29312.5
29303.1
29293.8
29284.7
29275.7
29266.9
29258.3
29249.8
29241.5
29233.4
29225.4
29217.6
29210
29202.5
29195.3
29188.1
29181.2
29174.4
29167.8
29161.4
29155.1
29149.1
29143.2
29137.4
29131.9
29126.5
29121.3
29116.3
29111.4
29106.8
29102.3
29097.9
29093.8
29089.8
29086
29082.3
29078.9
29075.6
29072.4
29069.5
29066.7
29064
29061.6
29059.3
29057.1
29055.2
29053.4
29051.7
29050.2
29048.9
29047.7
29046.7
29045.9
29045.2
29044.6
29044.2
29044
29043.9
29044
29044.2
29044.5
29045
29045.6
29046.4
29047.3
29048.3
29049.5
29050.8
29052.2
29053.8
29055.5
29057.3
29059.2
29061.2
29063.4
29065.6
29068
29070.4
29073
29075.6
29078.4
29081.2
29084.1
29087.1
29090.2
29093.3
29096.6
29099.8
29103.2
29106.6
29110
29113.5
29117.1
29120.7
29124.4
29128.1
29131.8
29135.6
29139.4
29143.2
29147
29150.8
29154.6
29158.4
29162.2
29166
29169.8
29173.6
29177.4
29181.1
29184.8
29188.5
29192.2
29195.8
29199.3
29202.9
29206.3
29209.7
29213.1
29216.4
29219.7
29222.8
29225.9
29229
29231.9
29234.8
29237.6
29240.3
29242.9
29245.5
29247.9
29250.2
29252.5
29254.7
29256.7
29258.7
29260.5
29262.3
29263.9
29265.4
29266.8
29268.2
29269.3
29270.4
29271.4
29272.2
29273
29273.6
29274.1
29274.4
29274.7
29274.8
30626.6
30626.5
30626.3
30626.1
30625.8
30625.4
30624.9
30624.4
30623.8
30623.1
30622.3
30621.4
30620.5
30619.4
30618.3
30617.1
30615.8
30614.5
30613
30611.5
30609.9
30608.2
30606.4
30604.5
30602.5
30600.4
30598.2
30596
30593.6
30591.2
30588.6
30586
30583.2
30580.3
30577.4
30574.3
30571.1
30567.8
30564.5
30560.9
30557.3
30553.6
30549.7
30545.8
30541.7
30537.5
30533.1
30528.7
30524.1
30519.4
30514.6
30509.6
30504.5
30499.3
30493.9
30488.5
30482.8
30477.1
30471.2
30465.2
30459
30452.7
30446.3
30439.7
30433
30426.2
30419.2
30412.1
30404.8
30397.5
30389.9
30382.3
30374.5
30366.5
30358.4
30350.2
30341.9
30333.4
30324.8
30316
30307.2
30298.2
30289
30279.7
30270.3
30260.8
30251.1
30241.4
30231.5
30221.4
30211.3
30201
30190.6
30180.1
30169.4
30158.7
30147.8
30136.8
30125.7
30114.5
30103.2
30091.8
30080.2
30068.6
30056.8
30045
30033.1
30021
30008.9
29996.6
29984.3
29971.9
29959.4
29946.8
29934.1
29921.4
29908.6
29895.6
29882.7
29869.6
29856.5
29843.3
29830
29816.7
29803.3
29789.8
29776.3
29762.8
29749.2
29735.5
29721.8
29708.1
29694.3
29680.5
29666.7
29652.8
29638.9
29625
29611.1
29597.1
29583.1
29569.1
29555.1
29541.1
29527.1
29513.1
29499.1
29485.1
29471.1
29457.2
29443.2
29429.3
29415.4
29401.5
29387.6
29373.8
29360
29346.3
29332.6
29318.9
29305.3
29291.7
29278.2
29264.7
29251.3
29238
29224.7
29211.5
29198.4
29185.4
29172.4
29159.5
29146.7
29134
29121.4
29108.9
29096.5
29084.2
29071.9
29059.8
29047.8
29035.9
29024.2
29012.5
29001
28989.5
28978.3
28967.1
28956.1
28945.2
28934.4
28923.8
28913.3
28902.9
28892.7
28882.7
28872.8
28863
28853.4
28844
28834.7
28825.6
28816.6
28807.8
28799.1
28790.7
28782.3
28774.2
28766.2
28758.4
28750.8
28743.3
28736
28728.8
28721.9
28715.1
28708.5
28702.1
28695.8
28689.7
28683.8
28678.1
28672.5
28667.2
28661.9
28656.9
28652.1
28647.4
28642.9
28638.5
28634.4
28630.4
28626.6
28622.9
28619.5
28616.2
28613
28610.1
28607.3
28604.7
28602.2
28599.9
28597.8
28595.8
28594
28592.4
28590.9
28589.6
28588.4
28587.4
28586.6
28585.9
28585.4
28585
28584.8
28584.7
28584.8
28585
28585.3
28585.8
28586.5
28587.3
28588.2
28589.3
28590.5
28591.8
28593.2
28594.8
28596.5
28598.3
28600.3
28602.3
28604.5
28606.8
28609.2
28611.7
28614.3
28616.9
28619.7
28622.6
28625.5
28628.6
28631.7
28634.8
28638.1
28641.4
28644.8
28648.2
28651.7
28655.2
28658.8
28662.5
28666.2
28669.9
28673.7
28677.5
28681.3
28685.1
28688.9
28692.8
28696.6
28700.5
28704.4
28708.2
28712
28715.9
28719.6
28723.4
28727.2
28730.9
28734.6
28738.2
28741.8
28745.4
28748.9
28752.3
28755.7
28759
28762.3
28765.5
28768.6
28771.7
28774.7
28777.6
28780.4
28783.1
28785.8
28788.3
28790.8
28793.2
28795.4
28797.6
28799.7
28801.7
28803.5
28805.3
28806.9
28808.5
28809.9
28811.2
28812.4
28813.5
28814.5
28815.4
28816.1
28816.7
28817.2
28817.6
28817.8
28817.9
30169.5
30169.4
30169.3
30169
30168.7
30168.3
30167.9
30167.3
30166.7
30166
30165.2
30164.4
30163.4
30162.4
30161.3
30160.1
30158.9
30157.5
30156.1
30154.6
30152.9
30151.2
30149.5
30147.6
30145.6
30143.6
30141.4
30139.2
30136.8
30134.4
30131.8
30129.2
30126.4
30123.6
30120.6
30117.6
30114.4
30111.1
30107.8
30104.3
30100.7
30096.9
30093.1
30089.1
30085
30080.8
30076.5
30072.1
30067.5
30062.8
30058
30053
30048
30042.7
30037.4
30031.9
30026.3
30020.6
30014.7
30008.7
30002.5
29996.2
29989.8
29983.2
29976.5
29969.7
29962.7
29955.6
29948.3
29940.9
29933.4
29925.7
29917.9
29910
29901.9
29893.7
29885.3
29876.9
29868.2
29859.5
29850.6
29841.6
29832.4
29823.1
29813.7
29804.2
29794.5
29784.7
29774.8
29764.7
29754.6
29744.3
29733.9
29723.3
29712.7
29701.9
29691
29680
29668.9
29657.7
29646.3
29634.9
29623.4
29611.7
29599.9
29588.1
29576.1
29564
29551.9
29539.6
29527.3
29514.9
29502.3
29489.7
29477
29464.3
29451.4
29438.5
29425.5
29412.4
29399.2
29386
29372.7
29359.4
29345.9
29332.5
29318.9
29305.4
29291.7
29278.1
29264.3
29250.6
29236.8
29222.9
29209.1
29195.2
29181.2
29167.3
29153.3
29139.3
29125.3
29111.3
29097.3
29083.2
29069.2
29055.2
29041.1
29027.1
29013.1
28999.1
28985.1
28971.2
28957.2
28943.3
28929.4
28915.6
28901.7
28888
28874.2
28860.5
28846.9
28833.3
28819.7
28806.3
28792.8
28779.5
28766.2
28753
28739.8
28726.7
28713.7
28700.8
28688
28675.3
28662.6
28650.1
28637.6
28625.3
28613
28600.9
28588.8
28576.9
28565.1
28553.4
28541.8
28530.4
28519.1
28507.9
28496.8
28485.9
28475.1
28464.5
28453.9
28443.6
28433.4
28423.3
28413.3
28403.6
28393.9
28384.5
28375.2
28366
28357
28348.2
28339.5
28331
28322.7
28314.5
28306.5
28298.7
28291
28283.5
28276.2
28269.1
28262.1
28255.3
28248.7
28242.2
28236
28229.9
28224
28218.2
28212.6
28207.3
28202.1
28197
28192.2
28187.5
28183
28178.6
28174.5
28170.5
28166.7
28163
28159.6
28156.3
28153.1
28150.2
28147.4
28144.8
28142.3
28140
28137.9
28136
28134.2
28132.5
28131.1
28129.8
28128.6
28127.6
28126.8
28126.1
28125.6
28125.3
28125.1
28125
28125.1
28125.3
28125.7
28126.2
28126.9
28127.7
28128.7
28129.7
28131
28132.3
28133.8
28135.4
28137.2
28139
28141
28143.1
28145.3
28147.6
28150
28152.5
28155.2
28157.9
28160.7
28163.6
28166.6
28169.7
28172.8
28176.1
28179.4
28182.7
28186.2
28189.6
28193.2
28196.8
28200.4
28204.1
28207.9
28211.6
28215.4
28219.3
28223.1
28227
28230.9
28234.8
28238.7
28242.6
28246.5
28250.4
28254.3
28258.1
28262
28265.8
28269.6
28273.3
28277.1
28280.7
28284.4
28288
28291.5
28295
28298.4
28301.8
28305.1
28308.4
28311.5
28314.6
28317.6
28320.6
28323.4
28326.2
28328.9
28331.5
28334
28336.4
28338.7
28340.9
28343
28345
28346.8
28348.6
28350.3
28351.9
28353.3
28354.6
28355.9
28357
28357.9
28358.8
28359.5
28360.2
28360.7
28361
28361.3
28361.4
29712.6
29712.5
29712.4
29712.1
29711.8
29711.5
29711
29710.5
29709.9
29709.2
29708.4
29707.6
29706.6
29705.6
29704.5
29703.4
29702.1
29700.8
29699.3
29697.8
29696.2
29694.6
29692.8
29690.9
29689
29686.9
29684.8
29682.6
29680.2
29677.8
29675.3
29672.7
29669.9
29667.1
29664.2
29661.1
29658
29654.7
29651.3
29647.9
29644.3
29640.6
29636.7
29632.8
29628.7
29624.5
29620.2
29615.8
29611.2
29606.5
29601.7
29596.8
29591.7
29586.5
29581.2
29575.7
29570.1
29564.4
29558.5
29552.5
29546.3
29540
29533.6
29527
29520.3
29513.5
29506.5
29499.4
29492.1
29484.7
29477.2
29469.5
29461.7
29453.8
29445.7
29437.5
29429.1
29420.6
29412
29403.2
29394.3
29385.3
29376.1
29366.8
29357.4
29347.8
29338.2
29328.3
29318.4
29308.3
29298.2
29287.9
29277.4
29266.9
29256.2
29245.4
29234.5
29223.5
29212.4
29201.1
29189.7
29178.3
29166.7
29155
29143.2
29131.4
29119.4
29107.3
29095.1
29082.8
29070.5
29058
29045.4
29032.8
29020.1
29007.3
28994.4
28981.4
28968.4
28955.3
28942.1
28928.8
28915.5
28902.1
28888.7
28875.2
28861.6
28848
28834.3
28820.6
28806.9
28793.1
28779.3
28765.4
28751.5
28737.5
28723.6
28709.6
28695.6
28681.6
28667.5
28653.5
28639.4
28625.3
28611.3
28597.2
28583.1
28569.1
28555
28541
28526.9
28512.9
28499
28485
28471.1
28457.2
28443.3
28429.5
28415.7
28402
28388.3
28374.7
28361.1
28347.6
28334.1
28320.7
28307.4
28294.1
28280.9
28267.8
28254.8
28241.9
28229
28216.2
28203.5
28190.9
28178.5
28166.1
28153.8
28141.6
28129.5
28117.6
28105.7
28094
28082.4
28070.9
28059.6
28048.3
28037.3
28026.3
28015.5
28004.8
27994.2
27983.8
27973.6
27963.5
27953.5
27943.7
27934
27924.5
27915.2
27906
27897
27888.1
27879.4
27870.9
27862.5
27854.3
27846.3
27838.5
27830.8
27823.3
27815.9
27808.8
27801.8
27795
27788.3
27781.9
27775.6
27769.5
27763.6
27757.8
27752.2
27746.8
27741.6
27736.6
27731.7
27727
27722.5
27718.2
27714
27710
27706.2
27702.6
27699.1
27695.8
27692.7
27689.7
27687
27684.3
27681.9
27679.6
27677.5
27675.6
27673.8
27672.2
27670.7
27669.4
27668.3
27667.3
27666.5
27665.9
27665.4
27665
27664.9
27664.8
27664.9
27665.2
27665.6
27666.2
27666.9
27667.7
27668.7
27669.8
27671.1
27672.4
27674
27675.6
27677.4
27679.3
27681.3
27683.4
27685.7
27688.1
27690.5
27693.1
27695.8
27698.6
27701.4
27704.4
27707.4
27710.6
27713.8
27717.1
27720.4
27723.8
27727.3
27730.9
27734.5
27738.1
27741.8
27745.6
27749.4
27753.2
27757.1
27761
27764.9
27768.8
27772.8
27776.7
27780.7
27784.6
27788.6
27792.5
27796.5
27800.4
27804.3
27808.2
27812
27815.8
27819.6
27823.4
27827.1
27830.7
27834.3
27837.9
27841.3
27844.8
27848.1
27851.4
27854.6
27857.8
27860.8
27863.8
27866.7
27869.5
27872.2
27874.8
27877.4
27879.8
27882.1
27884.4
27886.5
27888.5
27890.4
27892.3
27893.9
27895.5
27897
27898.3
27899.6
27900.7
27901.7
27902.6
27903.3
27903.9
27904.4
27904.8
27905.1
27905.2
29255.9
29255.8
29255.7
29255.5
29255.2
29254.8
29254.3
29253.8
29253.2
29252.5
29251.8
29250.9
29250
29249
29247.9
29246.8
29245.5
29244.2
29242.8
29241.3
29239.7
29238.1
29236.3
29234.5
29232.6
29230.5
29228.4
29226.2
29223.9
29221.5
29219
29216.4
29213.7
29210.9
29207.9
29204.9
29201.8
29198.5
29195.2
29191.7
29188.2
29184.5
29180.7
29176.7
29172.7
29168.5
29164.2
29159.8
29155.3
29150.6
29145.8
29140.8
29135.8
29130.6
29125.3
29119.8
29114.2
29108.5
29102.6
29096.6
29090.5
29084.2
29077.7
29071.2
29064.5
29057.6
29050.7
29043.5
29036.3
29028.9
29021.3
29013.7
29005.8
28997.9
28989.8
28981.6
28973.2
28964.7
28956
28947.3
28938.4
28929.3
28920.1
28910.8
28901.4
28891.8
28882.1
28872.3
28862.3
28852.2
28842
28831.7
28821.3
28810.7
28800
28789.2
28778.2
28767.2
28756
28744.8
28733.4
28721.9
28710.3
28698.6
28686.8
28674.9
28662.8
28650.7
28638.5
28626.2
28613.8
28601.3
28588.7
28576.1
28563.3
28550.5
28537.5
28524.5
28511.5
28498.3
28485.1
28471.8
28458.4
28445
28431.5
28418
28404.4
28390.8
28377.1
28363.3
28349.5
28335.7
28321.8
28307.9
28293.9
28280
28265.9
28251.9
28237.9
28223.8
28209.7
28195.6
28181.5
28167.4
28153.3
28139.2
28125
28110.9
28096.8
28082.8
28068.7
28054.6
28040.6
28026.6
28012.7
27998.7
27984.8
27970.9
27957.1
27943.3
27929.6
27915.9
27902.3
27888.7
27875.2
27861.8
27848.4
27835.1
27821.9
27808.7
27795.6
27782.7
27769.7
27756.9
27744.2
27731.6
27719
27706.6
27694.3
27682
27669.9
27657.9
27646
27634.3
27622.6
27611.1
27599.7
27588.4
27577.3
27566.3
27555.4
27544.7
27534.1
27523.7
27513.4
27503.2
27493.2
27483.4
27473.7
27464.2
27454.8
27445.6
27436.5
27427.6
27418.9
27410.3
27401.9
27393.7
27385.6
27377.8
27370.1
27362.5
27355.2
27348
27341
27334.1
27327.5
27321
27314.7
27308.6
27302.6
27296.9
27291.3
27285.9
27280.7
27275.6
27270.7
27266
27261.5
27257.2
27253
27249
27245.2
27241.6
27238.1
27234.8
27231.7
27228.8
27226
27223.4
27221
27218.7
27216.6
27214.7
27212.9
27211.3
27209.9
27208.6
27207.5
27206.5
27205.7
27205.1
27204.6
27204.3
27204.2
27204.1
27204.3
27204.6
27205
27205.6
27206.4
27207.2
27208.3
27209.4
27210.7
27212.1
27213.7
27215.4
27217.2
27219.2
27221.2
27223.4
27225.7
27228.2
27230.7
27233.3
27236.1
27238.9
27241.8
27244.8
27248
27251.2
27254.4
27257.8
27261.2
27264.7
27268.3
27271.9
27275.6
27279.3
27283.1
27286.9
27290.8
27294.7
27298.6
27302.6
27306.6
27310.6
27314.6
27318.6
27322.6
27326.7
27330.7
27334.7
27338.7
27342.7
27346.7
27350.6
27354.6
27358.4
27362.3
27366.1
27369.9
27373.6
27377.2
27380.8
27384.4
27387.9
27391.3
27394.6
27397.9
27401.1
27404.2
27407.2
27410.2
27413
27415.8
27418.5
27421
27423.5
27425.9
27428.2
27430.3
27432.4
27434.3
27436.2
27437.9
27439.5
27441
27442.4
27443.6
27444.8
27445.8
27446.7
27447.4
27448.1
27448.6
27448.9
27449.2
27449.3
28799.4
28799.3
28799.2
28799
28798.7
28798.3
28797.9
28797.3
28796.7
28796.1
28795.3
28794.5
28793.6
28792.6
28791.6
28790.4
28789.2
28787.9
28786.5
28785
28783.5
28781.8
28780.1
28778.3
28776.4
28774.3
28772.3
28770.1
28767.8
28765.4
28762.9
28760.3
28757.6
28754.9
28752
28749
28745.9
28742.6
28739.3
28735.9
28732.3
28728.7
28724.9
28721
28716.9
28712.8
28708.5
28704.1
28699.6
28694.9
28690.1
28685.2
28680.2
28675
28669.7
28664.2
28658.6
28652.9
28647.1
28641.1
28634.9
28628.6
28622.2
28615.7
28609
28602.1
28595.1
28588
28580.7
28573.3
28565.8
28558.1
28550.3
28542.3
28534.2
28526
28517.6
28509.1
28500.4
28491.6
28482.7
28473.6
28464.4
28455.1
28445.7
28436.1
28426.3
28416.5
28406.5
28396.4
28386.2
28375.8
28365.4
28354.8
28344
28333.2
28322.3
28311.2
28300
28288.7
28277.3
28265.8
28254.1
28242.4
28230.5
28218.6
28206.5
28194.4
28182.1
28169.8
28157.4
28144.8
28132.2
28119.5
28106.7
28093.8
28080.9
28067.8
28054.7
28041.5
28028.2
28014.9
28001.5
27988
27974.5
27960.9
27947.3
27933.6
27919.8
27906
27892.2
27878.3
27864.4
27850.4
27836.4
27822.4
27808.3
27794.3
27780.1
27766
27751.9
27737.7
27723.6
27709.4
27695.2
27681.1
27666.9
27652.8
27638.6
27624.5
27610.4
27596.3
27582.2
27568.1
27554.1
27540.1
27526.2
27512.2
27498.4
27484.5
27470.8
27457
27443.3
27429.7
27416.2
27402.7
27389.2
27375.9
27362.6
27349.4
27336.3
27323.2
27310.3
27297.4
27284.6
27271.9
27259.3
27246.9
27234.5
27222.2
27210
27198
27186
27174.2
27162.5
27151
27139.5
27128.2
27117
27105.9
27095
27084.3
27073.6
27063.1
27052.8
27042.6
27032.5
27022.7
27012.9
27003.3
26993.9
26984.7
26975.6
26966.6
26957.9
26949.3
26940.8
26932.6
26924.5
26916.6
26908.8
26901.3
26893.9
26886.7
26879.6
26872.8
26866.1
26859.6
26853.3
26847.2
26841.2
26835.4
26829.8
26824.4
26819.2
26814.1
26809.2
26804.5
26800
26795.7
26791.5
26787.5
26783.7
26780.1
26776.6
26773.3
26770.2
26767.3
26764.5
26761.9
26759.5
26757.2
26755.1
26753.2
26751.5
26749.9
26748.5
26747.2
26746.1
26745.2
26744.4
26743.8
26743.4
26743.1
26743
26743
26743.2
26743.5
26744
26744.6
26745.4
26746.3
26747.4
26748.6
26749.9
26751.4
26753
26754.8
26756.7
26758.7
26760.8
26763
26765.4
26767.9
26770.5
26773.2
26776
26778.9
26781.9
26785
26788.2
26791.5
26794.8
26798.3
26801.8
26805.3
26809
26812.7
26816.5
26820.3
26824.1
26828.1
26832
26836
26840
26844.1
26848.1
26852.2
26856.3
26860.4
26864.6
26868.7
26872.8
26876.9
26881
26885.1
26889.1
26893.2
26897.2
26901.1
26905
26908.9
26912.8
26916.5
26920.3
26924
26927.6
26931.1
26934.6
26938
26941.4
26944.6
26947.8
26950.9
26953.9
26956.8
26959.6
26962.3
26965
26967.5
26969.9
26972.2
26974.4
26976.5
26978.5
26980.4
26982.1
26983.8
26985.3
26986.7
26988
26989.1
26990.2
26991.1
26991.8
26992.5
26993
26993.4
26993.7
26993.8
28343.1
28343
28342.9
28342.6
28342.4
28342
28341.6
28341.1
28340.5
28339.8
28339.1
28338.3
28337.4
28336.4
28335.4
28334.2
28333
28331.7
28330.4
28328.9
28327.4
28325.8
28324.1
28322.3
28320.4
28318.4
28316.3
28314.2
28311.9
28309.5
28307.1
28304.5
28301.9
28299.1
28296.3
28293.3
28290.2
28287
28283.7
28280.3
28276.8
28273.1
28269.4
28265.5
28261.5
28257.3
28253.1
28248.7
28244.2
28239.6
28234.8
28229.9
28224.9
28219.7
28214.4
28209
28203.4
28197.7
28191.8
28185.8
28179.7
28173.4
28167
28160.5
28153.8
28146.9
28139.9
28132.8
28125.5
28118.1
28110.6
28102.9
28095.1
28087.1
28079
28070.7
28062.3
28053.8
28045.1
28036.3
28027.4
28018.3
28009.1
27999.7
27990.2
27980.6
27970.9
27961
27951
27940.9
27930.6
27920.3
27909.8
27899.1
27888.4
27877.5
27866.5
27855.4
27844.2
27832.9
27821.4
27809.9
27798.2
27786.4
27774.5
27762.5
27750.5
27738.3
27726
27713.6
27701.1
27688.5
27675.9
27663.1
27650.3
27637.3
27624.3
27611.2
27598.1
27584.8
27571.5
27558.1
27544.7
27531.2
27517.6
27503.9
27490.2
27476.5
27462.7
27448.8
27434.9
27421
27407
27393
27378.9
27364.9
27350.7
27336.6
27322.5
27308.3
27294.1
27279.9
27265.7
27251.4
27237.2
27223
27208.7
27194.5
27180.3
27166.1
27151.9
27137.8
27123.6
27109.5
27095.5
27081.4
27067.4
27053.4
27039.5
27025.6
27011.7
26998
26984.2
26970.5
26956.9
26943.4
26929.9
26916.5
26903.1
26889.8
26876.7
26863.6
26850.5
26837.6
26824.8
26812
26799.4
26786.8
26774.4
26762.1
26749.8
26737.7
26725.7
26713.8
26702.1
26690.5
26679
26667.6
26656.3
26645.2
26634.2
26623.4
26612.7
26602.2
26591.8
26581.5
26571.4
26561.5
26551.7
26542.1
26532.6
26523.3
26514.2
26505.2
26496.4
26487.7
26479.3
26471
26462.8
26454.9
26447.1
26439.5
26432.1
26424.9
26417.8
26410.9
26404.2
26397.7
26391.3
26385.2
26379.2
26373.4
26367.8
26362.4
26357.1
26352.1
26347.2
26342.5
26337.9
26333.6
26329.4
26325.4
26321.6
26318
26314.5
26311.2
26308.1
26305.2
26302.4
26299.9
26297.4
26295.2
26293.1
26291.2
26289.5
26287.9
26286.5
26285.3
26284.2
26283.3
26282.6
26282
26281.6
26281.4
26281.3
26281.3
26281.5
26281.9
26282.4
26283.1
26283.9
26284.9
26286
26287.3
26288.7
26290.2
26291.9
26293.7
26295.7
26297.7
26299.9
26302.3
26304.7
26307.3
26309.9
26312.7
26315.6
26318.6
26321.7
26324.9
26328.1
26331.5
26335
26338.5
26342.1
26345.8
26349.5
26353.3
26357.2
26361.1
26365
26369.1
26373.1
26377.2
26381.3
26385.5
26389.6
26393.8
26398
26402.2
26406.5
26410.7
26414.9
26419.1
26423.3
26427.5
26431.6
26435.7
26439.8
26443.9
26447.9
26451.9
26455.8
26459.7
26463.5
26467.2
26470.9
26474.6
26478.1
26481.6
26485
26488.3
26491.6
26494.7
26497.8
26500.8
26503.7
26506.5
26509.1
26511.7
26514.2
26516.6
26518.8
26521
26523
26524.9
26526.7
26528.4
26529.9
26531.4
26532.7
26533.8
26534.9
26535.8
26536.6
26537.3
26537.8
26538.2
26538.5
26538.6
27886.9
27886.9
27886.7
27886.5
27886.2
27885.9
27885.5
27885
27884.4
27883.7
27883
27882.2
27881.3
27880.4
27879.4
27878.3
27877.1
27875.8
27874.5
27873
27871.5
27869.9
27868.2
27866.5
27864.6
27862.7
27860.6
27858.5
27856.3
27853.9
27851.5
27849
27846.4
27843.6
27840.8
27837.9
27834.8
27831.6
27828.4
27825
27821.5
27817.9
27814.1
27810.3
27806.3
27802.2
27798
27793.6
27789.2
27784.5
27779.8
27774.9
27769.9
27764.8
27759.5
27754.1
27748.5
27742.8
27737
27731
27724.8
27718.6
27712.2
27705.6
27698.9
27692.1
27685.1
27678
27670.7
27663.3
27655.7
27648
27640.2
27632.2
27624
27615.8
27607.4
27598.8
27590.1
27581.3
27572.3
27563.2
27554
27544.6
27535.1
27525.5
27515.7
27505.8
27495.8
27485.6
27475.4
27465
27454.4
27443.8
27433
27422.1
27411.1
27399.9
27388.7
27377.3
27365.8
27354.2
27342.5
27330.7
27318.7
27306.7
27294.6
27282.3
27270
27257.6
27245
27232.4
27219.7
27206.9
27194
27181
27168
27154.8
27141.6
27128.3
27114.9
27101.5
27088
27074.4
27060.8
27047.1
27033.3
27019.5
27005.6
26991.7
26977.8
26963.8
26949.7
26935.6
26921.5
26907.4
26893.2
26879
26864.8
26850.5
26836.3
26822
26807.7
26793.4
26779.1
26764.8
26750.5
26736.2
26722
26707.7
26693.5
26679.2
26665
26650.8
26636.7
26622.6
26608.5
26594.4
26580.4
26566.5
26552.6
26538.7
26524.9
26511.2
26497.5
26483.9
26470.3
26456.8
26443.4
26430.1
26416.8
26403.6
26390.6
26377.6
26364.7
26351.8
26339.1
26326.5
26314
26301.6
26289.3
26277.1
26265.1
26253.1
26241.3
26229.6
26218
26206.6
26195.3
26184.1
26173.1
26162.2
26151.4
26140.8
26130.4
26120.1
26109.9
26099.9
26090.1
26080.4
26070.9
26061.5
26052.3
26043.3
26034.4
26025.7
26017.2
26008.9
26000.7
25992.7
25984.9
25977.3
25969.8
25962.5
25955.4
25948.5
25941.8
25935.2
25928.9
25922.7
25916.7
25910.9
25905.2
25899.8
25894.5
25889.4
25884.6
25879.8
25875.3
25870.9
25866.8
25862.8
25859
25855.3
25851.9
25848.6
25845.5
25842.6
25839.8
25837.3
25834.9
25832.6
25830.6
25828.7
25827
25825.4
25824.1
25822.9
25821.8
25821
25820.3
25819.7
25819.3
25819.1
25819.1
25819.2
25819.4
25819.8
25820.4
25821.1
25822
25823
25824.2
25825.5
25827
25828.6
25830.4
25832.2
25834.3
25836.4
25838.7
25841.1
25843.6
25846.3
25849
25851.9
25854.9
25857.9
25861.1
25864.4
25867.8
25871.3
25874.8
25878.4
25882.2
25885.9
25889.8
25893.7
25897.7
25901.7
25905.8
25909.9
25914.1
25918.3
25922.5
25926.8
25931
25935.4
25939.7
25944
25948.3
25952.6
25957
25961.3
25965.6
25969.9
25974.1
25978.3
25982.5
25986.7
25990.8
25994.9
25998.9
26002.9
26006.8
26010.6
26014.4
26018.2
26021.8
26025.4
26028.9
26032.3
26035.6
26038.8
26042
26045
26048
26050.9
26053.6
26056.2
26058.8
26061.2
26063.5
26065.7
26067.8
26069.7
26071.6
26073.3
26074.9
26076.3
26077.7
26078.9
26079.9
26080.9
26081.7
26082.4
26082.9
26083.3
26083.6
26083.7
27431
27430.9
27430.8
27430.6
27430.3
27429.9
27429.5
27429
27428.5
27427.8
27427.1
27426.4
27425.5
27424.6
27423.6
27422.5
27421.3
27420.1
27418.8
27417.4
27415.9
27414.3
27412.6
27410.9
27409.1
27407.2
27405.1
27403
27400.8
27398.6
27396.2
27393.7
27391.1
27388.4
27385.6
27382.7
27379.7
27376.5
27373.3
27370
27366.5
27362.9
27359.2
27355.4
27351.5
27347.4
27343.2
27338.9
27334.4
27329.8
27325.1
27320.3
27315.3
27310.1
27304.9
27299.5
27293.9
27288.2
27282.4
27276.4
27270.3
27264.1
27257.7
27251.1
27244.4
27237.6
27230.6
27223.4
27216.2
27208.7
27201.2
27193.5
27185.6
27177.6
27169.5
27161.2
27152.8
27144.2
27135.5
27126.6
27117.6
27108.5
27099.3
27089.9
27080.3
27070.7
27060.9
27050.9
27040.9
27030.7
27020.4
27009.9
26999.4
26988.7
26977.9
26966.9
26955.9
26944.7
26933.4
26922
26910.4
26898.8
26887
26875.2
26863.2
26851.1
26838.9
26826.6
26814.3
26801.8
26789.2
26776.5
26763.7
26750.9
26737.9
26724.9
26711.8
26698.6
26685.3
26671.9
26658.5
26645
26631.4
26617.8
26604.1
26590.3
26576.5
26562.6
26548.7
26534.7
26520.7
26506.6
26492.5
26478.3
26464.1
26449.9
26435.7
26421.4
26407.1
26392.8
26378.4
26364.1
26349.7
26335.4
26321
26306.6
26292.3
26277.9
26263.5
26249.2
26234.9
26220.6
26206.3
26192
26177.8
26163.6
26149.5
26135.4
26121.3
26107.2
26093.3
26079.3
26065.4
26051.6
26037.9
26024.2
26010.5
25997
25983.5
25970.1
25956.7
25943.5
25930.3
25917.3
25904.3
25891.4
25878.6
25865.9
25853.3
25840.9
25828.5
25816.2
25804.1
25792.1
25780.2
25768.4
25756.8
25745.3
25733.9
25722.6
25711.5
25700.6
25689.7
25679.1
25668.5
25658.2
25647.9
25637.9
25628
25618.2
25608.6
25599.2
25590
25580.9
25572
25563.2
25554.6
25546.3
25538
25530
25522.1
25514.5
25507
25499.6
25492.5
25485.6
25478.8
25472.2
25465.8
25459.6
25453.6
25447.8
25442.1
25436.7
25431.4
25426.3
25421.4
25416.7
25412.1
25407.8
25403.6
25399.6
25395.8
25392.1
25388.7