/*--------------------------------*- C++ -*----------------------------------*\
| =========                 |                                                 |
| \\      /  F ield         | OpenFOAM: The Open Source CFD Toolbox           |
|  \\    /   O peration     | Version:  v2006                                 |
|   \\  /    A nd           | Website:  www.openfoam.com                      |
|    \\/     M anipulation  |                                                 |
\*---------------------------------------------------------------------------*/
FoamFile
{
    version     2.0;
    format      ascii;
    class       volScalarField;
    location    "0";
    object      f;
}
// * * * * * * * * * * * * * * * * * * * * * * * * * * * * * * * * * * * * * //

dimensions      [0 0 0 0 0 0 0];


internalField   nonuniform List<scalar> 
2500
(
-5.71598e-32
-5.67165e-32
-5.24997e-32
-3.8603e-32
-1.65468e-32
2.18321e-33
1.04581e-32
1.68602e-32
3.90633e-32
8.46899e-32
1.39295e-31
1.76972e-31
1.82088e-31
1.58318e-31
1.20456e-31
8.24377e-32
5.17737e-32
3.02225e-32
1.65104e-32
8.46572e-33
4.07858e-33
1.8475e-33
7.87639e-34
3.16535e-34
1.20161e-34
4.31921e-35
1.47388e-35
4.78722e-36
1.48386e-36
4.40016e-37
1.25123e-37
3.4194e-38
8.999e-39
2.285e-39
5.60752e-40
1.33208e-40
3.06753e-41
6.85653e-42
1.48932e-42
3.14698e-43
6.475e-44
1.29836e-44
2.5392e-45
4.84668e-46
9.03462e-47
1.64567e-47
2.93065e-48
5.10485e-49
8.70139e-50
1.45197e-50
-3.62649e-31
-3.62333e-31
-3.40406e-31
-2.49835e-31
-9.55446e-32
3.61613e-32
8.10078e-32
8.89254e-32
1.86843e-31
4.44249e-31
7.78622e-31
1.0193e-30
1.05822e-30
9.165e-31
6.89565e-31
4.65409e-31
2.88554e-31
1.66872e-31
9.07114e-32
4.64673e-32
2.24296e-32
1.01967e-32
4.36606e-33
1.76248e-33
6.71915e-34
2.42458e-34
8.30238e-35
2.70501e-35
8.408e-36
2.49969e-36
7.12532e-37
1.95179e-37
5.14854e-38
1.31036e-38
3.22342e-39
7.67632e-40
1.77226e-40
3.97192e-41
8.65132e-42
1.83326e-42
3.78299e-43
7.60809e-44
1.49236e-44
2.85705e-45
5.34163e-46
9.75839e-47
1.7428e-47
3.04423e-48
5.20299e-49
8.70453e-50
-2.22782e-30
-2.24349e-30
-2.14291e-30
-1.56613e-30
-5.05737e-31
4.13582e-31
6.61876e-31
5.14499e-31
8.54218e-31
2.25214e-30
4.25656e-30
5.76272e-30
6.0372e-30
5.19824e-30
3.85432e-30
2.55435e-30
1.55669e-30
8.88896e-31
4.79974e-31
2.45574e-31
1.18865e-31
5.43077e-32
2.33914e-32
9.49905e-33
3.64156e-33
1.32063e-33
4.54215e-34
1.48565e-34
4.63383e-35
1.38196e-35
3.95077e-36
1.08523e-36
2.87049e-37
7.3257e-38
1.80708e-38
4.31567e-39
9.99291e-40
2.24633e-40
4.90794e-41
1.04332e-41
2.15984e-42
4.35786e-43
8.57596e-44
1.64715e-44
3.08941e-45
5.66158e-46
1.01421e-46
1.77679e-47
3.04535e-48
5.10856e-49
-1.32296e-29
-1.34429e-29
-1.30838e-29
-9.50232e-30
-2.36048e-30
3.97895e-30
5.41906e-30
3.37254e-30
3.78735e-30
1.10379e-29
2.27858e-29
3.20153e-29
3.38414e-29
2.89036e-29
2.10334e-29
1.36119e-29
8.10654e-30
4.54927e-30
2.43399e-30
1.24355e-30
6.0439e-31
2.78108e-31
1.20769e-31
4.94397e-32
1.90932e-32
6.9692e-33
2.41046e-33
7.92253e-34
2.48164e-34
7.4293e-35
2.13134e-35
5.87389e-36
1.55866e-36
3.99041e-37
9.87486e-38
2.36596e-38
5.49653e-39
1.23977e-39
2.71809e-40
5.79831e-41
1.2046e-41
2.43911e-42
4.81696e-43
9.28398e-44
1.74726e-44
3.21264e-45
5.77359e-46
1.01459e-46
1.74409e-47
2.93385e-48
-7.58028e-29
-7.78193e-29
-7.74082e-29
-5.57916e-29
-8.77647e-30
3.4222e-29
4.31238e-29
2.44166e-29
1.69219e-29
5.23697e-29
1.19587e-28
1.74941e-28
1.86531e-28
1.5764e-28
1.12052e-28
7.03194e-29
4.0597e-29
2.22376e-29
1.17456e-29
5.9913e-30
2.93048e-30
1.36259e-30
5.98594e-31
2.47773e-31
9.6633e-32
3.5571e-32
1.23914e-32
4.09754e-33
1.29024e-33
3.88044e-34
1.11789e-34
3.09286e-35
8.23764e-36
2.11669e-36
5.25719e-37
1.26423e-37
2.94798e-38
6.67448e-39
1.46894e-39
3.14569e-40
6.56048e-41
1.3335e-41
2.64353e-42
5.11402e-43
9.65964e-44
1.78232e-44
3.21388e-45
5.66587e-46
9.76928e-47
1.64807e-47
-4.18253e-28
-4.34431e-28
-4.43452e-28
-3.17208e-28
-1.54782e-29
2.70319e-28
3.28862e-28
1.84219e-28
8.16831e-29
2.41131e-28
6.15869e-28
9.40702e-28
1.01146e-27
8.43694e-28
5.82647e-28
3.51449e-28
1.94469e-28
1.02886e-28
5.3334e-29
2.71607e-29
1.34236e-29
6.34196e-30
2.83359e-30
1.19125e-30
4.70832e-31
1.7525e-31
6.16116e-32
2.05291e-32
6.50588e-33
1.96757e-33
5.69636e-34
1.58321e-34
4.23503e-35
1.09278e-35
2.72538e-36
6.58112e-37
1.54102e-37
3.5037e-38
7.74364e-39
1.6653e-39
3.48768e-40
7.11864e-41
1.41695e-41
2.75202e-42
5.21809e-43
9.66343e-44
1.74861e-44
3.09293e-45
5.34958e-46
9.05105e-47
-2.21777e-27
-2.33436e-27
-2.45895e-27
-1.75019e-27
1.32784e-28
1.98868e-27
2.39039e-27
1.37972e-27
4.5551e-28
1.08087e-27
3.11178e-27
4.97645e-27
5.39545e-27
4.43178e-27
2.95605e-27
1.69464e-27
8.83809e-28
4.43765e-28
2.23433e-28
1.13648e-28
5.72005e-29
2.77334e-29
1.27157e-29
5.46739e-30
2.20119e-30
8.31516e-31
2.95804e-31
9.95074e-32
3.17839e-32
9.67674e-33
2.81797e-33
7.87377e-34
2.1167e-34
5.48795e-35
1.37512e-35
3.33605e-36
7.84798e-37
1.79263e-37
3.98034e-38
8.59931e-39
1.80917e-39
3.70913e-40
7.41496e-41
1.44618e-41
2.75312e-42
5.11806e-43
9.29477e-44
1.64965e-44
2.86235e-45
4.85718e-46
-1.12798e-26
-1.20511e-26
-1.32006e-26
-9.41117e-27
1.9869e-27
1.37333e-26
1.65354e-26
9.98354e-27
2.92091e-27
4.72566e-27
1.5394e-26
2.58645e-26
2.82921e-26
2.28413e-26
1.46236e-26
7.85252e-27
3.7597e-27
1.73338e-27
8.29357e-28
4.22109e-28
2.20229e-28
1.11819e-28
5.34762e-29
2.37892e-29
9.83224e-30
3.78923e-30
1.36883e-30
4.66023e-31
1.50292e-31
4.61237e-32
1.35243e-32
3.80214e-33
1.02795e-33
2.67963e-34
6.74978e-35
1.64601e-35
3.89212e-36
8.93577e-37
1.99413e-37
4.3297e-38
9.15353e-39
1.88556e-39
3.78674e-40
7.418e-41
1.41809e-41
2.64667e-42
4.82442e-43
8.59217e-44
1.49565e-44
2.54556e-45
-5.49693e-26
-5.96888e-26
-6.86871e-26
-4.96644e-26
1.70941e-26
8.94181e-26
1.08848e-25
6.89603e-26
2.00305e-26
2.00692e-26
7.41854e-26
1.31704e-25
1.45598e-25
1.15407e-25
7.04602e-26
3.47608e-26
1.45987e-26
5.72679e-27
2.44461e-27
1.25459e-27
7.15729e-28
4.00378e-28
2.06668e-28
9.71223e-29
4.17261e-29
1.65309e-29
6.09304e-30
2.10596e-30
6.87191e-31
2.12905e-31
6.29298e-32
1.78169e-32
4.84817e-33
1.27151e-33
3.22166e-34
7.9015e-35
1.87894e-35
4.33783e-36
9.73345e-37
2.12467e-37
4.51523e-38
9.34781e-39
1.88635e-39
3.71219e-40
7.12728e-41
1.33561e-41
2.44381e-42
4.36766e-43
7.62747e-44
1.30203e-44
-2.57009e-25
-2.83648e-25
-3.47297e-25
-2.59703e-25
1.17693e-25
5.50173e-25
6.8205e-25
4.52722e-25
1.3687e-25
8.114e-26
3.44918e-25
6.54153e-25
7.33475e-25
5.70749e-25
3.30084e-25
1.4563e-25
4.88983e-26
1.24521e-26
3.0657e-27
1.72037e-27
1.53396e-27
1.15556e-27
7.05765e-28
3.65803e-28
1.66925e-28
6.87719e-29
2.60339e-29
9.17136e-30
3.03568e-30
9.51115e-31
2.83741e-31
8.09801e-32
2.21957e-32
5.86069e-33
1.49459e-33
3.68877e-34
8.82582e-35
2.04987e-35
4.62669e-36
1.01571e-36
2.17044e-37
4.51717e-38
9.16126e-39
1.81141e-39
3.49331e-40
6.57337e-41
1.20736e-41
2.16544e-42
3.79383e-43
6.4952e-44
-1.16161e-24
-1.29816e-24
-1.71402e-24
-1.36023e-24
6.93732e-25
3.20128e-24
4.06906e-24
2.82155e-24
8.95961e-25
2.93934e-25
1.521e-24
3.14905e-24
3.60451e-24
2.75679e-24
1.4997e-24
5.68212e-25
1.17556e-25
-1.94828e-26
-2.97511e-26
-1.34881e-26
-2.20475e-27
1.67424e-27
1.92232e-27
1.23135e-27
6.22207e-28
2.71533e-28
1.06544e-28
3.84485e-29
1.29474e-29
4.11006e-30
1.23915e-30
3.56851e-31
9.85978e-32
2.6229e-32
6.73642e-33
1.67401e-33
4.03194e-34
9.42518e-35
2.14068e-35
4.72798e-36
1.01616e-36
2.12651e-37
4.33519e-38
8.6135e-39
1.66864e-39
3.15303e-40
5.8136e-41
1.04636e-41
1.83906e-42
3.15765e-43
-5.1853e-24
-5.79333e-24
-8.31429e-24
-7.19624e-24
3.53641e-24
1.76072e-23
2.31113e-23
1.66947e-23
5.52657e-24
7.71192e-25
6.16406e-24
1.45639e-23
1.72056e-23
1.29698e-23
6.58604e-24
2.0014e-24
-2.94938e-26
-4.75723e-25
-3.50564e-25
-1.64416e-25
-5.40903e-26
-9.62218e-27
2.4607e-27
3.43817e-27
2.12033e-27
1.01152e-27
4.16805e-28
1.55046e-28
5.32969e-29
1.71757e-29
5.24009e-30
1.52411e-30
4.24826e-31
1.1393e-31
2.94854e-32
7.3812e-33
1.79048e-33
4.21436e-34
9.63542e-35
2.14165e-35
4.63078e-36
9.74608e-37
1.99749e-37
3.98848e-38
7.76206e-39
1.47288e-39
2.72613e-40
4.92368e-41
8.681e-42
1.49472e-42
-2.39295e-23
-2.59515e-23
-4.00166e-23
-3.85288e-23
1.51554e-23
9.13878e-23
1.24921e-22
9.38103e-23
3.19432e-23
-6.09634e-25
2.14108e-23
6.39129e-23
7.9376e-23
5.92624e-23
2.78404e-23
5.90499e-24
-2.9054e-24
-3.95999e-24
-2.55639e-24
-1.1971e-24
-4.35621e-25
-1.17897e-25
-1.61547e-26
6.00039e-27
6.37457e-27
3.5293e-27
1.55634e-27
6.01345e-28
2.11767e-28
6.94139e-29
2.14545e-29
6.30754e-30
1.77478e-30
4.8009e-31
1.25266e-31
3.16044e-32
7.72436e-33
1.83136e-33
4.21631e-34
9.43373e-35
2.05259e-35
4.34531e-36
8.95443e-37
1.79697e-37
3.51326e-38
6.69453e-39
1.2438e-39
2.25413e-40
3.98649e-41
6.88286e-42
-1.21943e-22
-1.22709e-22
-1.93227e-22
-2.07382e-22
4.88188e-23
4.46313e-22
6.42156e-22
5.0081e-22
1.72865e-22
-3.06885e-23
5.01756e-23
2.61156e-22
3.51954e-22
2.62316e-22
1.12754e-22
1.09235e-23
-2.56573e-23
-2.55519e-23
-1.54649e-23
-7.1725e-24
-2.69572e-24
-8.15026e-25
-1.78051e-25
-1.07625e-26
1.55298e-26
1.14311e-26
5.54567e-27
2.24526e-27
8.12784e-28
2.71398e-28
8.5052e-29
2.52885e-29
7.18607e-30
1.96156e-30
5.16214e-31
1.31314e-31
3.23489e-32
7.72803e-33
1.79215e-33
4.03742e-34
8.84137e-35
1.88295e-35
3.90174e-36
7.86977e-37
1.54573e-37
2.95769e-38
5.51583e-39
1.00299e-39
1.77911e-40
3.07984e-41
-7.14543e-22
-6.45322e-22
-9.454e-22
-1.10718e-21
5.51454e-23
2.04133e-21
3.13665e-21
2.54146e-21
8.77731e-22
-3.12129e-22
-6.60976e-23
9.60869e-22
1.49092e-21
1.12332e-21
4.35638e-22
-2.27954e-23
-1.67184e-22
-1.44093e-22
-8.34096e-23
-3.81376e-23
-1.44595e-23
-4.56555e-24
-1.14382e-24
-1.78066e-25
2.16719e-26
3.40247e-26
1.89024e-26
8.09019e-27
3.01798e-27
1.02732e-27
3.26505e-28
9.81938e-29
2.81842e-29
7.76509e-30
2.06165e-30
5.28931e-31
1.31378e-31
3.16345e-32
7.39149e-33
1.67703e-33
3.69681e-34
7.92142e-35
1.65066e-35
3.34639e-36
6.60311e-37
1.26872e-37
2.3748e-38
4.33248e-39
7.70727e-40
1.33761e-40
-4.66105e-21
-3.80095e-21
-4.70682e-21
-5.76717e-21
-7.74819e-22
8.68057e-21
1.45454e-20
1.22727e-20
4.20551e-21
-2.37496e-21
-1.9432e-21
2.94991e-21
5.99677e-21
4.6609e-21
1.60302e-21
-4.02149e-22
-9.39808e-22
-7.39677e-22
-4.12351e-22
-1.85127e-22
-6.99436e-23
-2.24389e-23
-5.9501e-24
-1.15314e-24
-5.28488e-26
9.23474e-26
6.20715e-26
2.82598e-26
1.08667e-26
3.76836e-27
1.21381e-27
3.69069e-28
1.06978e-28
2.97485e-29
7.96966e-30
2.06268e-30
5.16719e-31
1.25445e-31
2.95399e-32
6.75144e-33
1.49843e-33
3.23094e-34
6.77105e-35
1.37978e-35
2.73517e-36
5.277e-37
9.91358e-38
1.8144e-38
3.23682e-39
5.63134e-40
-3.1371e-20
-2.37814e-20
-2.37027e-20
-2.88244e-20
-8.62691e-21
3.39234e-20
6.39796e-20
5.6514e-20
1.92308e-20
-1.5415e-20
-1.70702e-20
5.67783e-21
2.27761e-20
1.88698e-20
5.65465e-21
-2.9147e-21
-4.78722e-21
-3.51872e-21
-1.89183e-21
-8.30383e-22
-3.09991e-22
-9.94985e-23
-2.69787e-23
-5.6967e-24
-5.96769e-25
2.30668e-25
1.99237e-25
9.63444e-26
3.80514e-26
1.3406e-26
4.36819e-27
1.34127e-27
3.92368e-28
1.10101e-28
2.97637e-29
7.77286e-30
1.96443e-30
4.80999e-31
1.1419e-31
2.6298e-32
5.87792e-33
1.27559e-33
2.68884e-34
5.5079e-35
1.09693e-35
2.12505e-36
4.00664e-37
7.3562e-38
1.31592e-38
2.29484e-39
-2.04149e-19
-1.47214e-19
-1.18547e-19
-1.35957e-19
-5.9616e-20
1.19481e-19
2.66579e-19
2.49096e-19
8.54848e-20
-8.83568e-20
-1.14284e-19
-1.1521e-20
8.14878e-20
7.57553e-20
1.96353e-20
-1.6543e-20
-2.25799e-20
-1.56489e-20
-8.09879e-21
-3.45758e-21
-1.26594e-21
-4.02024e-22
-1.09212e-22
-2.37768e-23
-3.04913e-24
5.71066e-25
6.39477e-25
3.23184e-25
1.29929e-25
4.62572e-26
1.5197e-26
4.70296e-27
1.38701e-27
3.9257e-28
1.07087e-28
2.82265e-29
7.20003e-30
1.77894e-30
4.25972e-31
9.88942e-32
2.22683e-32
4.86512e-33
1.03174e-33
2.12484e-34
4.25187e-35
8.27128e-36
1.56516e-36
2.88266e-37
5.17064e-38
9.038e-39
-1.23388e-18
-8.52199e-19
-5.7183e-19
-5.9398e-19
-3.28941e-19
3.65909e-19
1.04785e-18
1.05697e-18
3.77686e-19
-4.4881e-19
-6.60177e-19
-2.10728e-19
2.76428e-19
3.10023e-19
7.13916e-20
-8.20939e-20
-9.98071e-20
-6.53556e-20
-3.23985e-20
-1.3365e-20
-4.76213e-21
-1.48118e-21
-3.96679e-22
-8.59599e-23
-1.13769e-23
1.71195e-24
2.10519e-24
1.07422e-24
4.33109e-25
1.54561e-25
5.09539e-26
1.58482e-26
4.70538e-27
1.34265e-27
3.69633e-28
9.83893e-29
2.53494e-29
6.32502e-30
1.52881e-30
3.58046e-31
8.12692e-32
1.78837e-32
3.81696e-33
7.90537e-34
1.58971e-34
3.10578e-35
5.89876e-36
1.08987e-36
1.96019e-37
3.43418e-38
-6.76007e-18
-4.42784e-18
-2.55972e-18
-2.34408e-18
-1.53132e-18
9.00088e-19
3.83443e-18
4.35038e-18
1.68329e-18
-1.98232e-18
-3.42864e-18
-1.5257e-18
9.09938e-19
1.33656e-18
2.95606e-19
-3.7238e-19
-4.17112e-19
-2.56875e-19
-1.20942e-19
-4.77815e-20
-1.64142e-20
-4.94374e-21
-1.28308e-21
-2.6719e-22
-3.17013e-23
7.15891e-24
7.20691e-24
3.54567e-24
1.40632e-24
4.97792e-25
1.63654e-25
5.09788e-26
1.52124e-26
4.3749e-27
1.21628e-27
3.27314e-28
8.52954e-29
2.15229e-29
5.25818e-30
1.24369e-30
2.84829e-31
6.31795e-32
1.35793e-32
2.82965e-33
5.72027e-34
1.12262e-34
2.14042e-35
3.96766e-36
7.15582e-37
1.25658e-37
-3.30609e-17
-1.99684e-17
-1.01256e-17
-8.03614e-18
-6.02384e-18
1.33569e-18
1.26007e-17
1.75372e-17
7.54029e-18
-7.24134e-18
-1.63395e-17
-8.47547e-18
2.98343e-18
6.1884e-18
1.4344e-18
-1.59781e-18
-1.66342e-18
-9.50596e-19
-4.19348e-19
-1.56722e-19
-5.12602e-20
-1.47205e-20
-3.6119e-21
-6.82802e-22
-5.11403e-23
3.52258e-23
2.53914e-23
1.15512e-23
4.41456e-24
1.53073e-24
4.98e-25
1.54705e-25
4.63265e-26
1.34334e-26
3.77796e-27
1.03038e-27
2.723e-28
6.96638e-29
1.72411e-29
4.12635e-30
9.54992e-31
2.1379e-31
4.63176e-32
9.71772e-33
1.97593e-33
3.89696e-34
7.46088e-35
1.38782e-35
2.51024e-36
4.41865e-37
-1.43533e-16
-7.75324e-17
-3.31394e-17
-2.23419e-17
-1.90764e-17
-2.35381e-18
3.41619e-17
7.03093e-17
3.34684e-17
-1.95382e-17
-7.29733e-17
-4.05772e-17
9.16988e-18
3.06333e-17
7.5921e-18
-6.8088e-18
-6.40683e-18
-3.30458e-18
-1.33728e-18
-4.64489e-19
-1.41996e-19
-3.78875e-20
-8.3631e-21
-1.22423e-21
8.75019e-23
1.67223e-22
8.92653e-23
3.65732e-23
1.31963e-23
4.41568e-24
1.40735e-24
4.33691e-25
1.30188e-25
3.81505e-26
1.09006e-26
3.02863e-27
8.15899e-28
2.12623e-28
5.35195e-29
1.30025e-29
3.04874e-30
6.90157e-31
1.5094e-31
3.19205e-32
6.53367e-33
1.29571e-33
2.49208e-34
4.65317e-35
8.44277e-36
1.48993e-36
-5.44876e-16
-3.65069e-16
-8.35242e-17
-4.39953e-17
-4.21963e-17
-4.35236e-17
6.42063e-17
3.2657e-16
1.49793e-16
-3.02813e-17
-3.71346e-16
-1.82902e-16
1.99966e-17
1.67343e-16
3.93902e-17
-3.12018e-17
-2.42039e-17
-1.06838e-17
-3.83903e-18
-1.20752e-18
-3.34278e-19
-7.82701e-20
-1.32655e-20
-1.50193e-22
1.19473e-21
7.11324e-22
3.01744e-22
1.09812e-22
3.65708e-23
1.15543e-23
3.54893e-24
1.0761e-24
3.24027e-25
9.66666e-26
2.83699e-26
8.12464e-27
2.25529e-27
6.04092e-28
1.55758e-28
3.86244e-29
9.21289e-30
2.11537e-30
4.68074e-31
9.99385e-32
2.06167e-32
4.11475e-33
7.95531e-34
1.49171e-34
2.71589e-35
4.80621e-36
-1.42927e-15
-4.5409e-15
-6.81528e-16
-1.42812e-16
-1.22315e-15
-1.1716e-15
6.01458e-16
4.23856e-15
6.53746e-16
-1.44862e-15
-4.92349e-15
-7.72844e-16
1.37622e-15
1.30639e-15
1.69138e-16
-1.75952e-16
-9.06437e-17
-3.09424e-17
-9.41983e-18
-2.57692e-18
-6.0053e-19
-9.93263e-20
1.53286e-21
1.09879e-20
6.36798e-21
2.66788e-21
9.47326e-22
3.01578e-22
8.92094e-23
2.5388e-23
7.21373e-24
2.11023e-24
6.41896e-25
2.00187e-25
6.24003e-26
1.90059e-26
5.57586e-27
1.56461e-27
4.18947e-28
1.07072e-28
2.61584e-29
6.1212e-30
1.37496e-30
2.97091e-31
6.18725e-32
1.24426e-32
2.42019e-33
4.56012e-34
8.3346e-35
1.4795e-35
-1.08201e-15
-1.67824e-14
-1.2934e-13
-9.80055e-14
-8.65596e-14
-1.49186e-14
1.86431e-13
2.95646e-14
-9.7926e-14
-2.13099e-13
-3.13912e-14
4.65654e-14
5.22848e-14
7.19563e-15
-1.38718e-15
-1.74311e-15
-3.07422e-16
-6.84999e-17
-1.69525e-17
-3.70991e-18
-4.96392e-19
9.76031e-20
1.16172e-19
6.1565e-20
2.52557e-20
8.78907e-21
2.66515e-21
7.09993e-22
1.66819e-22
3.51515e-23
7.16253e-24
1.72271e-24
5.77189e-25
2.3322e-25
9.32535e-26
3.43136e-26
1.15159e-26
3.5526e-27
1.01756e-27
2.73024e-28
6.91233e-29
1.66103e-29
3.8065e-30
8.35135e-31
1.75983e-31
3.57147e-32
6.9965e-33
1.32566e-33
2.4336e-34
4.33492e-35
5.75853e-12
4.41469e-13
-1.59219e-12
-2.74983e-12
-2.54709e-13
6.29664e-12
1.22051e-12
-6.12908e-12
-7.79565e-12
-1.22214e-12
2.64501e-12
2.03165e-12
2.69859e-13
-8.60667e-14
-8.7885e-14
-1.1122e-14
-1.18569e-16
-3.84866e-17
-1.0259e-17
-1.85784e-19
1.61895e-18
1.15256e-18
5.69439e-19
2.34068e-19
8.29738e-20
2.52241e-20
6.35015e-21
1.18798e-21
8.55268e-23
-5.15714e-23
-3.17481e-23
-1.13611e-23
-3.03556e-24
-5.90522e-25
-5.05404e-26
2.2422e-26
1.57523e-26
6.43602e-27
2.13632e-27
6.26154e-28
1.67855e-28
4.19364e-29
9.87794e-30
2.21076e-30
4.7277e-31
9.70125e-32
1.91652e-32
3.65483e-33
6.7429e-34
1.20575e-34
1.0258e-10
2.01351e-11
-3.19703e-12
-1.2799e-11
1.6049e-10
3.89376e-11
-2.25307e-10
-2.27103e-10
-3.98136e-11
1.09615e-10
7.20337e-11
9.56538e-12
-3.80692e-12
-3.27836e-12
-4.49148e-13
7.28605e-15
1.23631e-15
1.30779e-16
2.73839e-17
1.46021e-17
9.48916e-18
4.67276e-18
1.95452e-18
7.25413e-19
2.33768e-19
6.13811e-20
1.09102e-20
-1.76724e-22
-1.23178e-21
-6.84544e-22
-2.67466e-22
-8.59563e-23
-2.37506e-23
-5.68267e-24
-1.14769e-24
-1.76251e-25
-1.02176e-26
6.15184e-27
3.4777e-27
1.24113e-27
3.68111e-28
9.76439e-29
2.39026e-29
5.49112e-30
1.19605e-30
2.48713e-31
4.96179e-32
9.53187e-33
1.76835e-33
3.17556e-34
2.56559e-10
4.34236e-10
2.59484e-09
3.75697e-09
8.9969e-10
-4.09334e-09
-4.72907e-09
-1.03332e-09
3.51512e-09
2.19261e-09
3.05284e-10
-1.58058e-10
-1.1095e-10
-1.51259e-11
2.51005e-13
5.27434e-14
1.84713e-15
-4.77736e-18
2.20669e-17
3.55475e-17
3.24813e-17
1.48525e-17
5.66334e-18
1.95203e-18
5.67834e-19
1.15449e-19
1.26465e-21
-1.33513e-20
-8.38686e-21
-3.61746e-21
-1.28407e-21
-3.96747e-22
-1.09167e-22
-2.69493e-23
-5.93802e-24
-1.13971e-24
-1.76804e-25
-1.58063e-26
2.55195e-27
1.94494e-27
7.11105e-28
2.07875e-28
5.37385e-29
1.27706e-29
2.84469e-30
6.00767e-31
1.21181e-31
2.34672e-32
4.37961e-33
7.89995e-34
-8.76858e-10
9.80432e-09
2.28095e-08
2.91211e-08
-2.67999e-08
-5.9909e-08
-1.88579e-08
7.78826e-08
5.06331e-08
8.31175e-09
-8.06301e-09
-4.40787e-09
-5.09346e-10
6.12314e-12
1.46532e-12
5.77548e-14
-2.18841e-15
-6.79603e-16
-9.27564e-17
5.6483e-17
1.25995e-16
4.54514e-17
1.48337e-17
4.6602e-18
1.14672e-18
9.53425e-20
-1.00094e-19
-7.85021e-20
-3.79498e-20
-1.47349e-20
-4.9464e-21
-1.48143e-21
-4.01947e-22
-9.94389e-23
-2.24136e-23
-4.55682e-24
-8.12359e-25
-1.17149e-25
-9.42601e-27
1.72289e-27
1.16705e-27
4.02976e-28
1.12383e-28
2.78515e-29
6.36583e-30
1.36726e-30
2.78993e-31
5.44705e-32
1.02258e-32
1.85255e-33
-1.49967e-08
2.80662e-08
4.49041e-08
5.44924e-08
-5.07998e-07
-2.19497e-07
8.67229e-07
6.12685e-07
1.62302e-07
-3.47203e-07
-1.68461e-07
-1.89665e-08
1.09837e-10
2.85537e-11
1.61164e-12
-4.66942e-14
-2.48065e-14
-2.87022e-15
-2.95998e-16
2.80981e-15
7.60842e-16
1.25865e-16
3.23911e-17
9.44616e-18
1.60203e-18
-5.02247e-19
-6.02363e-19
-3.34799e-19
-1.4213e-19
-5.12903e-20
-1.64196e-20
-4.76261e-21
-1.26578e-21
-3.09869e-22
-6.98924e-23
-1.44419e-23
-2.69037e-24
-4.34125e-25
-5.36984e-26
-2.10766e-27
1.55687e-27
7.20905e-28
2.21353e-28
5.74355e-29
1.34711e-29
2.93976e-30
6.06148e-31
1.19188e-31
2.24874e-32
4.08861e-33
-1.51884e-06
-4.16693e-07
-1.39367e-06
-4.99028e-06
-1.97313e-06
5.40154e-06
7.46821e-06
1.07913e-06
-7.38681e-06
-4.15922e-06
-6.69652e-07
1.46595e-09
3.18083e-10
2.42075e-11
4.66036e-14
-1.04018e-13
-7.66203e-14
5.84587e-13
4.32141e-13
9.34953e-14
2.80965e-15
5.59363e-17
3.52626e-17
1.44863e-17
-2.25904e-19
-3.72243e-18
-2.5805e-18
-1.20846e-18
-4.64715e-19
-1.56769e-19
-4.77889e-20
-1.33652e-20
-3.45713e-21
-8.30126e-22
-1.85026e-22
-3.81041e-23
-7.16246e-24
-1.19431e-24
-1.6369e-25
-1.3309e-26
1.76253e-27
1.2641e-27
4.24171e-28
1.14079e-28
2.72476e-29
6.00827e-30
1.24677e-30
2.46165e-31
4.65727e-32
8.48402e-33
-1.40752e-05
-2.0027e-05
-2.89892e-05
-2.72217e-05
6.11022e-06
3.76667e-05
2.1185e-05
-7.00277e-05
-5.00771e-05
-1.15755e-05
-6.12132e-07
5.38973e-11
5.21421e-11
1.98589e-11
1.84315e-11
3.97651e-12
8.81271e-12
8.63795e-12
3.77275e-12
4.3216e-13
-2.98443e-16
-9.45281e-17
2.13369e-17
2.71342e-17
-1.03347e-17
-1.69735e-17
-9.42518e-18
-3.84027e-18
-1.33754e-18
-4.19392e-19
-1.20945e-19
-3.23966e-20
-8.09752e-21
-1.89129e-21
-4.1216e-22
-8.33493e-23
-1.54473e-23
-2.55158e-24
-3.49323e-25
-2.94465e-26
3.1371e-27
2.46066e-27
8.32828e-28
2.24157e-28
5.34798e-29
1.1774e-29
2.43936e-30
4.80961e-31
9.08874e-32
1.6541e-32
-3.58542e-05
-8.63507e-05
-0.000109405
-5.65102e-05
0.000104203
9.9183e-05
-0.000434346
-0.000364178
-0.000111484
0.000249736
0.000500135
0.000303388
1.76306e-05
1.08318e-09
1.85212e-09
6.50248e-10
7.56004e-11
2.7026e-11
8.63824e-12
5.84621e-13
-2.88373e-15
-6.84905e-16
-6.14892e-18
1.30416e-16
-3.85847e-17
-6.85229e-17
-3.09473e-17
-1.06847e-17
-3.30467e-18
-9.50582e-19
-2.56859e-19
-6.53481e-20
-1.5646e-20
-3.51769e-21
-7.39342e-22
-1.43992e-22
-2.55232e-23
-3.95228e-24
-4.73757e-25
-1.90043e-26
1.25636e-26
5.75171e-27
1.73875e-27
4.4488e-28
1.0311e-28
2.22811e-29
4.55747e-30
8.90398e-31
1.6714e-31
3.02688e-32
-3.98204e-05
-0.000151098
-0.000201038
0.000530348
0.000437804
-0.00149782
-0.00290306
-0.000800721
0.00942133
0.0265494
0.0392219
0.0387312
0.0275923
0.0134317
0.00389009
0.000295585
1.90658e-10
7.5607e-11
8.81355e-12
-7.67683e-14
-2.48818e-14
-2.19957e-15
1.8476e-15
1.23654e-15
-1.18578e-16
-3.0742e-16
-9.06429e-17
-2.42034e-17
-6.40656e-18
-1.6633e-18
-4.17067e-19
-9.97913e-20
-2.25745e-20
-4.78548e-21
-9.39272e-22
-1.67027e-22
-2.56136e-23
-2.89382e-24
-2.6572e-26
1.18261e-25
4.90609e-26
1.46347e-26
3.76741e-27
8.85398e-28
1.94786e-28
4.06582e-29
8.118e-30
1.55878e-30
2.88924e-31
5.18375e-32
0.0005963
8.0051e-05
0.000891376
0.0035316
0.000863128
-0.00851006
-0.0100484
0.0110553
0.0614858
0.130295
0.185818
0.193342
0.157241
0.0958121
0.0409477
0.00973224
0.000295586
6.5034e-10
3.97619e-12
-1.04335e-13
-4.68364e-14
5.77624e-14
5.27541e-14
7.28811e-15
-1.11209e-14
-1.74304e-15
-1.75952e-16
-3.12018e-17
-6.80864e-18
-1.59769e-18
-3.72326e-19
-8.20726e-20
-1.65353e-20
-2.91215e-21
-4.01351e-22
-2.25608e-23
1.09886e-23
5.92211e-24
2.00567e-24
5.6923e-25
1.45862e-25
3.48114e-26
7.86317e-27
1.6968e-27
3.51873e-28
7.04003e-29
1.36269e-29
2.55704e-30
4.6588e-31
8.25181e-32
0.00351195
0.00286399
0.00587717
0.0108024
0.000423752
-0.0236102
-0.0205061
0.0458744
0.171899
0.326178
0.45417
0.486699
0.418086
0.277168
0.134172
0.0409477
0.0038901
1.85234e-09
1.84301e-11
4.64779e-14
1.61151e-12
1.46531e-12
2.51024e-13
-4.49093e-13
-8.78768e-14
-1.38757e-15
1.69114e-16
3.93835e-17
7.59088e-18
1.43427e-18
2.9563e-19
7.14145e-20
1.96458e-20
5.65854e-21
1.60429e-21
4.36019e-22
1.12859e-22
2.78678e-23
6.59276e-24
1.50127e-24
3.30432e-25
7.05343e-26
1.46388e-26
2.95905e-27
5.83221e-28
1.12159e-28
2.10526e-29
3.85769e-30
6.90141e-31
1.20552e-31
0.00848958
0.00830686
0.0146589
0.0211205
-0.00155739
-0.0443402
-0.0295301
0.101646
0.320229
0.563541
0.767743
0.841606
0.75376
0.530037
0.277168
0.0958121
0.0134317
1.08319e-09
1.98537e-11
2.42053e-11
2.85523e-11
6.12294e-12
-1.51242e-11
-3.27802e-12
-8.60658e-14
7.1951e-15
1.30626e-15
1.67329e-16
3.06316e-17
6.18832e-18
1.33664e-18
3.10076e-19
7.57777e-20
1.88778e-20
4.66344e-21
1.12405e-21
2.62515e-22
5.93127e-23
1.29818e-23
2.7595e-24
5.71333e-25
1.15528e-25
2.28652e-26
4.43634e-27
8.44536e-28
1.5779e-28
2.89298e-29
5.20267e-30
9.17229e-31
1.58435e-31
0.0119899
0.011953
0.021014
0.0287741
-0.00377292
-0.0613562
-0.0353351
0.15058
0.439095
0.734098
0.981933
1.09815
1.02081
0.75376
0.418086
0.157241
0.0275923
1.76306e-05
5.21365e-11
3.18067e-10
1.09832e-10
-5.09301e-10
-1.10942e-10
-3.80679e-12
2.69844e-13
5.22816e-14
1.37613e-15
2.00058e-17
9.17345e-18
2.98472e-18
9.10414e-19
2.76601e-19
8.15469e-20
2.2795e-20
6.00236e-21
1.49247e-21
3.52355e-22
7.94742e-23
1.72284e-23
3.60952e-24
7.34527e-25
1.45809e-25
2.83328e-26
5.40301e-27
1.01281e-27
1.86765e-28
3.38808e-29
6.04362e-30
1.05923e-30
1.82245e-31
0.00918421
0.00860333
0.0179124
0.0280551
-0.00326676
-0.0642723
-0.0410843
0.154233
0.456086
0.754494
1.00578
1.14562
1.09815
0.841606
0.486699
0.193342
0.0387311
0.000303386
5.38795e-11
1.46583e-09
-1.89649e-08
-4.40757e-09
-1.58061e-10
9.56476e-12
2.03149e-12
4.65612e-14
-7.72746e-16
-1.8287e-16
-4.05675e-17
-8.47219e-18
-1.52456e-18
-2.10339e-19
-1.13951e-20
5.71626e-21
2.96092e-21
9.63835e-22
2.61909e-22
6.40937e-23
1.46051e-23
3.15797e-24
6.55998e-25
1.32069e-25
2.59338e-26
4.98911e-27
9.42929e-28
1.7532e-28
3.20774e-29
5.77263e-30
1.02083e-30
1.77202e-31
-6.81163e-05
-0.00191331
0.00323883
0.0162929
0.00221778
-0.0475863
-0.0478491
0.0885543
0.339201
0.613645
0.858571
1.00578
0.981933
0.767743
0.45417
0.185818
0.0392218
0.000500131
-6.12062e-07
-6.69605e-07
-1.6845e-07
-8.06265e-09
3.05266e-10
7.20287e-11
2.64472e-12
-3.13887e-14
-4.92297e-15
-3.713e-16
-7.29601e-17
-1.63345e-17
-3.42681e-18
-6.59539e-19
-1.14075e-19
-1.70065e-20
-1.92503e-21
-6.12348e-23
5.14016e-23
2.1703e-23
6.23014e-24
1.53522e-24
3.47839e-25
7.47595e-26
1.55022e-26
3.13139e-27
6.19293e-28
1.20164e-28
2.28797e-29
4.27136e-30
7.80885e-31
1.39631e-31
-0.00588107
-0.00802651
-0.00839841
0.00206488
0.00796492
-0.0161342
-0.0456897
-0.00825115
0.139233
0.371795
0.613645
0.754494
0.734098
0.563541
0.326178
0.130295
0.0265494
0.000249734
-1.15752e-05
-4.15907e-06
-3.47186e-07
8.31128e-09
2.19247e-09
1.09606e-10
-1.22204e-12
-2.13081e-13
-1.44843e-15
-3.02666e-17
-1.95282e-17
-7.2361e-18
-1.98007e-18
-4.47968e-19
-8.80728e-20
-1.53272e-20
-2.34978e-21
-3.05381e-22
-2.89887e-23
-2.05198e-25
8.62435e-25
3.13518e-25
8.51508e-26
2.0855e-26
4.87332e-27
1.10754e-27
2.45769e-28
5.31481e-29
1.11642e-29
2.27197e-30
4.47267e-31
8.51358e-32
-0.00295783
-0.00363966
-0.00702867
-0.00486066
0.0080038
0.00851114
-0.025386
-0.0579564
-0.0149196
0.139233
0.339201
0.456086
0.439095
0.320229
0.171899
0.0614858
0.00942134
-0.000111481
-5.00759e-05
-7.38662e-06
1.62294e-07
5.06304e-08
3.51489e-09
-3.98106e-11
-7.79502e-12
-9.79124e-14
6.53743e-16
1.49809e-16
3.34804e-17
7.54643e-18
1.68592e-18
3.78675e-19
8.58189e-20
1.93341e-20
4.23506e-21
8.85628e-22
1.74849e-22
3.24141e-23
5.63256e-24
9.1866e-25
1.4151e-25
2.09377e-26
3.09106e-27
4.86186e-28
8.70095e-29
1.78143e-29
3.93189e-30
8.76881e-31
1.90289e-31
3.95719e-32
0.00211848
0.00294305
0.000945869
-0.00350826
0.00212579
0.0130388
0.000701347
-0.0400921
-0.0579563
-0.00825113
0.0885543
0.154233
0.15058
0.101646
0.0458744
0.0110553
-0.0008007
-0.000364169
-7.00261e-05
1.07904e-06
6.12651e-07
7.7879e-08
-1.03325e-09
-2.27088e-10
-6.12848e-12
2.95624e-14
4.23832e-15
3.26593e-16
7.03227e-17
1.75437e-17
4.35311e-18
1.05797e-18
2.49428e-19
5.66151e-20
1.23013e-20
2.54904e-21
5.02703e-22
9.42571e-23
1.67949e-23
2.84295e-24
4.5709e-25
6.98133e-26
1.01434e-26
1.40853e-27
1.8922e-28
2.52544e-29
3.50827e-30
5.35791e-31
9.21649e-32
1.73389e-32
0.00159014
0.00232512
0.00293405
-1.98036e-05
-0.00225018
0.00346492
0.0103128
0.000701344
-0.025386
-0.0456896
-0.0478492
-0.0410843
-0.0353351
-0.0295301
-0.0205061
-0.0100484
-0.00290305
-0.000434342
2.11846e-05
7.46802e-06
8.67197e-07
-1.8857e-08
-4.72881e-09
-2.2529e-10
1.22042e-12
1.86417e-13
6.0162e-16
6.42248e-17
3.41728e-17
1.2606e-17
3.83657e-18
1.04862e-18
2.66832e-19
6.40557e-20
1.45667e-20
3.14225e-21
6.43544e-22
1.25248e-22
2.31844e-23
4.08467e-24
6.85236e-25
1.09471e-25
1.66524e-26
2.41154e-27
3.32546e-28
4.37432e-29
5.51981e-30
6.77747e-31
8.34335e-32
1.08183e-32
-0.000984052
-0.00107623
4.09327e-05
0.000961099
-0.00162094
-0.00342628
0.00346491
0.0130388
0.00851114
-0.0161342
-0.0475863
-0.0642723
-0.0613562
-0.0443402
-0.0236102
-0.00851007
-0.00149782
9.91814e-05
3.7666e-05
5.40141e-06
-2.19491e-07
-5.99067e-08
-4.09308e-09
3.89353e-11
6.29621e-12
-1.49158e-14
-1.17124e-15
-4.35116e-17
-2.34968e-18
1.33785e-18
9.01048e-19
3.66272e-19
1.19603e-19
3.39607e-20
8.69114e-21
2.04414e-21
4.47019e-22
9.1556e-23
1.76453e-23
3.20952e-24
5.51877e-25
8.97556e-26
1.37975e-26
2.00044e-27
2.72395e-28
3.4576e-29
4.03732e-30
4.22911e-31
3.76079e-32
2.40117e-33
-0.000787526
-0.00101796
-0.000986296
0.000106002
0.000353874
-0.00162094
-0.00225017
0.00212579
0.00800379
0.00796491
0.00221779
-0.00326674
-0.00377291
-0.0015574
0.000423734
0.000863115
0.0004378
0.000104201
6.10988e-06
-1.97312e-06
-5.07992e-07
-2.67988e-08
8.99658e-10
1.60484e-10
-2.54733e-13
-8.6556e-14
-1.22285e-15
-4.22008e-17
-1.90777e-17
-6.02403e-18
-1.53128e-18
-3.28898e-19
-5.95943e-20
-8.61848e-21
-7.71992e-22
5.5998e-23
4.90549e-23
1.52163e-23
3.55114e-24
6.97101e-25
1.18425e-25
1.72458e-26
2.01697e-27
1.38508e-28
-1.44297e-29
-8.59125e-30
-2.32886e-30
-5.00513e-31
-9.47079e-32
-1.64167e-32
-0.00011223
-5.41959e-05
-8.91158e-05
-0.000310033
0.000106001
0.000961093
-1.97955e-05
-0.00350825
-0.00486067
0.00206487
0.0162929
0.0280552
0.0287741
0.0211205
0.0108023
0.00353157
0.000530341
-5.65111e-05
-2.72222e-05
-4.99036e-06
5.44926e-08
2.91209e-08
3.7569e-09
-1.27986e-11
-2.74975e-12
-9.80036e-14
-1.42781e-16
-4.39872e-17
-2.2339e-17
-8.03543e-18
-2.34393e-18
-5.93946e-19
-1.35946e-19
-2.88205e-20
-5.76578e-21
-1.10672e-21
-2.07243e-22
-3.84905e-23
-7.18647e-24
-1.3579e-24
-2.59177e-25
-4.95515e-26
-9.38808e-27
-1.74567e-27
-3.16357e-28
-5.56374e-29
-9.47535e-30
-1.56157e-30
-2.49088e-31
-3.84844e-32
-0.000859428
-0.000739049
-2.88174e-05
-8.91111e-05
-0.000986295
4.09256e-05
0.00293406
0.000945877
-0.00702869
-0.00839843
0.00323886
0.0179125
0.021014
0.0146589
0.00587712
0.000891342
-0.000201045
-0.000109409
-2.89902e-05
-1.39371e-06
4.49054e-08
2.28098e-08
2.59481e-09
-3.19754e-12
-1.59232e-12
-1.29342e-13
-6.81376e-16
-8.34715e-17
-3.31221e-17
-1.0121e-17
-2.55859e-18
-5.71575e-19
-1.18489e-19
-2.36889e-20
-4.70339e-21
-9.44522e-22
-1.93003e-22
-3.9961e-23
-8.301e-24
-1.71098e-24
-3.46629e-25
-6.85464e-26
-1.31721e-26
-2.45343e-27
-4.42418e-28
-7.72215e-29
-1.30512e-29
-2.1374e-30
-3.39505e-31
-5.23566e-32
-0.00166205
-0.00167712
-0.000739053
-5.41937e-05
-0.00101796
-0.00107623
0.00232512
0.00294306
-0.00363968
-0.00802653
-0.00191328
0.00860339
0.011953
0.00830683
0.00286393
8.00175e-05
-0.000151111
-8.63568e-05
-2.00281e-05
-4.1666e-07
2.80687e-08
9.80477e-09