/*--------------------------------*- C++ -*----------------------------------*\
| =========                 |                                                 |
| \\      /  F ield         | OpenFOAM: The Open Source CFD Toolbox           |
|  \\    /   O peration     | Version:  v2006                                 |
|   \\  /    A nd           | Website:  www.openfoam.com                      |
|    \\/     M anipulation  |                                                 |
\*---------------------------------------------------------------------------*/
FoamFile
{
    version     2.0;
    format      ascii;
    class       volScalarField;
    location    "9.8";
    object      p;
}
// * * * * * * * * * * * * * * * * * * * * * * * * * * * * * * * * * * * * * //

dimensions      [1 -1 -2 0 0 0 0];


internalField   nonuniform List<scalar> 
50000
(
22723
22722.9
22722.5
22722
22721.4
22720.6
22719.6
22718.5
22717.2
22715.7
22714.1
22712.3
22710.4
22708.4
22706.2
22703.8
22701.3
22698.7
22696
22693.1
22690.1
22687
22683.7
22680.4
22676.9
22673.3
22669.6
22665.9
22662
22658
22654
22649.9
22645.6
22641.4
22637
22632.6
22628.1
22623.6
22619
22614.4
22609.7
22605
22600.2
22595.4
22590.5
22585.7
22580.8
22575.8
22570.9
22565.9
22560.9
22555.9
22550.9
22545.9
22540.8
22535.8
22530.8
22525.7
22520.7
22515.7
22510.6
22505.6
22500.6
22495.6
22490.7
22485.7
22480.8
22475.9
22471
22466.1
22461.3
22456.5
22451.7
22447
22442.3
22437.6
22433
22428.5
22423.9
22419.5
22415.1
22410.7
22406.4
22402.1
22398
22393.8
22389.8
22385.8
22381.9
22378
22374.2
22370.5
22366.9
22363.3
22359.8
22356.4
22353.1
22349.8
22346.6
22343.5
22340.5
22337.6
22334.7
22332
22329.3
22326.6
22324.1
22321.6
22319.2
22316.9
22314.7
22312.6
22310.5
22308.5
22306.6
22304.7
22303
22301.3
22299.6
22298.1
22296.6
22295.1
22293.8
22292.5
22291.2
22290
22288.9
22287.9
22286.8
22285.9
22285
22284.2
22283.4
22282.6
22282
22281.3
22280.7
22280.2
22279.7
22279.2
22278.8
22278.5
22278.2
22277.9
22277.6
22277.4
22277.3
22277.2
22277.1
22277.1
22272.1
22271.9
22271.6
22271.1
22270.4
22269.6
22268.6
22267.5
22266.2
22264.7
22263.1
22261.4
22259.4
22257.4
22255.2
22252.8
22250.3
22247.7
22244.9
22242.1
22239
22235.9
22232.7
22229.3
22225.8
22222.2
22218.5
22214.8
22210.9
22206.9
22202.9
22198.7
22194.5
22190.2
22185.9
22181.5
22177
22172.4
22167.8
22163.2
22158.5
22153.8
22149
22144.2
22139.3
22134.4
22129.5
22124.6
22119.6
22114.7
22109.7
22104.7
22099.6
22094.6
22089.6
22084.5
22079.5
22074.5
22069.4
22064.4
22059.3
22054.3
22049.3
22044.3
22039.3
22034.4
22029.4
22024.5
22019.6
22014.8
22009.9
22005.1
22000.3
21995.6
21990.9
21986.2
21981.6
21977.1
21972.5
21968.1
21963.7
21959.3
21955
21950.7
21946.5
21942.4
21938.4
21934.4
21930.4
21926.6
21922.8
21919.1
21915.4
21911.9
21908.4
21905
21901.7
21898.4
21895.2
21892.1
21889.1
21886.2
21883.3
21880.5
21877.8
21875.2
21872.7
21870.2
21867.8
21865.5
21863.3
21861.2
21859.1
21857.1
21855.2
21853.3
21851.5
21849.8
21848.2
21846.7
21845.2
21843.7
21842.4
21841.1
21839.8
21838.6
21837.5
21836.5
21835.5
21834.5
21833.6
21832.8
21832
21831.3
21830.6
21830
21829.4
21828.8
21828.3
21827.9
21827.5
21827.1
21826.8
21826.5
21826.3
21826.1
21825.9
21825.8
21825.7
21825.7
21821.4
21821.2
21820.9
21820.4
21819.7
21818.9
21817.9
21816.8
21815.5
21814
21812.4
21810.6
21808.7
21806.6
21804.4
21802
21799.5
21796.9
21794.1
21791.2
21788.2
21785.1
21781.8
21778.4
21774.9
21771.3
21767.6
21763.8
21759.9
21756
21751.9
21747.8
21743.5
21739.2
21734.9
21730.4
21725.9
21721.4
21716.8
21712.1
21707.4
21702.7
21697.9
21693
21688.2
21683.3
21678.4
21673.4
21668.4
21663.5
21658.5
21653.4
21648.4
21643.4
21638.3
21633.3
21628.2
21623.1
21618.1
21613
21608
21603
21598
21592.9
21588
21583
21578
21573.1
21568.2
21563.3
21558.5
21553.7
21548.9
21544.1
21539.4
21534.8
21530.1
21525.6
21521
21516.5
21512.1
21507.8
21503.4
21499.2
21495
21490.9
21486.8
21482.8
21478.9
21475
21471.2
21467.5
21463.9
21460.3
21456.8
21453.4
21450.1
21446.8
21443.6
21440.5
21437.5
21434.6
21431.7
21429
21426.3
21423.6
21421.1
21418.7
21416.3
21414
21411.8
21409.6
21407.5
21405.6
21403.6
21401.8
21400
21398.3
21396.7
21395.1
21393.6
21392.2
21390.8
21389.5
21388.3
21387.1
21386
21385
21384
21383
21382.1
21381.3
21380.5
21379.8
21379.1
21378.5
21377.9
21377.3
21376.9
21376.4
21376
21375.6
21375.3
21375
21374.8
21374.6
21374.5
21374.3
21374.3
21374.2
21370.9
21370.8
21370.4
21369.9
21369.3
21368.4
21367.5
21366.3
21365
21363.5
21361.9
21360.1
21358.2
21356.1
21353.9
21351.5
21349
21346.3
21343.6
21340.6
21337.6
21334.4
21331.2
21327.8
21324.2
21320.6
21316.9
21313.1
21309.2
21305.2
21301.1
21296.9
21292.7
21288.4
21284
21279.5
21275
21270.4
21265.8
21261.1
21256.4
21251.6
21246.8
21242
21237.1
21232.2
21227.2
21222.3
21217.3
21212.3
21207.3
21202.2
21197.2
21192.1
21187
21182
21176.9
21171.8
21166.8
21161.7
21156.6
21151.6
21146.6
21141.5
21136.5
21131.5
21126.6
21121.6
21116.7
21111.8
21106.9
21102.1
21097.3
21092.5
21087.8
21083.1
21078.5
21073.9
21069.4
21064.9
21060.5
21056.1
21051.7
21047.5
21043.3
21039.1
21035.1
21031.1
21027.1
21023.3
21019.5
21015.8
21012.1
21008.5
21005.1
21001.6
20998.3
20995.1
20991.9
20988.8
20985.8
20982.8
20980
20977.2
20974.5
20971.9
20969.4
20966.9
20964.5
20962.3
20960
20957.9
20955.8
20953.9
20951.9
20950.1
20948.3
20946.7
20945
20943.5
20942
20940.6
20939.2
20937.9
20936.7
20935.5
20934.4
20933.4
20932.4
20931.4
20930.5
20929.7
20928.9
20928.2
20927.5
20926.9
20926.3
20925.7
20925.2
20924.8
20924.4
20924
20923.7
20923.4
20923.2
20923
20922.8
20922.7
20922.6
20922.6
20920.8
20920.6
20920.3
20919.8
20919.1
20918.3
20917.3
20916.1
20914.8
20913.3
20911.7
20909.9
20907.9
20905.9
20903.6
20901.2
20898.7
20896
20893.2
20890.3
20887.2
20884
20880.7
20877.3
20873.8
20870.1
20866.4
20862.5
20858.6
20854.6
20850.4
20846.2
20842
20837.6
20833.2
20828.7
20824.2
20819.6
20814.9
20810.2
20805.5
20800.7
20795.8
20791
20786.1
20781.1
20776.2
20771.2
20766.2
20761.1
20756.1
20751
20745.9
20740.9
20735.8
20730.7
20725.6
20720.5
20715.4
20710.3
20705.2
20700.2
20695.1
20690.1
20685
20680
20675
20670.1
20665.1
20660.2
20655.3
20650.5
20645.6
20640.9
20636.1
20631.4
20626.8
20622.2
20617.6
20613.1
20608.6
20604.2
20599.9
20595.6
20591.4
20587.3
20583.2
20579.2
20575.2
20571.4
20567.6
20563.8
20560.2
20556.6
20553.1
20549.7
20546.4
20543.1
20539.9
20536.9
20533.8
20530.9
20528.1
20525.3
20522.6
20520
20517.5
20515
20512.7
20510.4
20508.2
20506.1
20504
20502
20500.1
20498.3
20496.6
20494.9
20493.3
20491.7
20490.2
20488.8
20487.5
20486.2
20485
20483.8
20482.7
20481.6
20480.6
20479.7
20478.8
20478
20477.2
20476.5
20475.8
20475.2
20474.6
20474
20473.5
20473.1
20472.7
20472.3
20472
20471.7
20471.5
20471.3
20471.1
20471
20470.9
20470.9
20470.9
20470.8
20470.4
20469.9
20469.2
20468.4
20467.4
20466.2
20464.9
20463.4
20461.7
20459.9
20458
20455.9
20453.6
20451.2
20448.6
20445.9
20443.1
20440.1
20437
20433.8
20430.5
20427
20423.4
20419.8
20416
20412.1
20408.1
20404.1
20399.9
20395.7
20391.4
20387
20382.6
20378
20373.5
20368.8
20364.1
20359.4
20354.6
20349.8
20344.9
20340
20335.1
20330.1
20325.1
20320.1
20315
20310
20304.9
20299.8
20294.7
20289.6
20284.5
20279.4
20274.2
20269.1
20264
20258.9
20253.8
20248.7
20243.6
20238.5
20233.5
20228.4
20223.4
20218.4
20213.4
20208.5
20203.6
20198.7
20193.9
20189.1
20184.3
20179.6
20174.9
20170.3
20165.7
20161.2
20156.7
20152.3
20147.9
20143.6
20139.4
20135.2
20131.1
20127.1
20123.2
20119.3
20115.5
20111.7
20108.1
20104.5
20101
20097.6
20094.3
20091
20087.8
20084.7
20081.7
20078.8
20076
20073.2
20070.5
20067.9
20065.4
20063
20060.6
20058.4
20056.2
20054.1
20052
20050.1
20048.2
20046.3
20044.6
20042.9
20041.3
20039.8
20038.3
20036.9
20035.6
20034.3
20033.1
20032
20030.9
20029.8
20028.8
20027.9
20027
20026.2
20025.4
20024.7
20024
20023.4
20022.8
20022.2
20021.7
20021.3
20020.9
20020.5
20020.2
20019.9
20019.6
20019.4
20019.3
20019.1
20019.1
20019
20021.4
20021.2
20020.8
20020.3
20019.6
20018.8
20017.8
20016.6
20015.2
20013.7
20012.1
20010.2
20008.2
20006.1
20003.8
20001.4
19998.8
19996.1
19993.2
19990.2
19987.1
19983.8
19980.4
19976.9
19973.3
19969.6
19965.8
19961.9
19957.9
19953.8
19949.6
19945.3
19940.9
19936.5
19932
19927.5
19922.9
19918.2
19913.4
19908.7
19903.8
19899
19894.1
19889.1
19884.1
19879.1
19874.1
19869.1
19864
19858.9
19853.8
19848.6
19843.5
19838.4
19833.2
19828.1
19822.9
19817.7
19812.6
19807.4
19802.3
19797.2
19792
19786.9
19781.8
19776.8
19771.7
19766.7
19761.7
19756.7
19751.8
19746.9
19742
19737.2
19732.4
19727.6
19722.9
19718.3
19713.6
19709.1
19704.6
19700.2
19695.8
19691.5
19687.2
19683
19678.9
19674.9
19670.9
19667
19663.2
19659.5
19655.8
19652.2
19648.7
19645.3
19642
19638.7
19635.6
19632.5
19629.5
19626.6
19623.7
19621
19618.3
19615.7
19613.2
19610.8
19608.5
19606.2
19604
19601.9
19599.9
19597.9
19596.1
19594.3
19592.5
19590.9
19589.3
19587.8
19586.3
19584.9
19583.6
19582.3
19581.1
19580
19578.9
19577.9
19576.9
19575.9
19575.1
19574.2
19573.5
19572.7
19572.1
19571.4
19570.8
19570.3
19569.8
19569.3
19568.9
19568.6
19568.2
19567.9
19567.7
19567.5
19567.3
19567.2
19567.1
19567.1
19572.1
19571.9
19571.5
19571
19570.3
19569.5
19568.4
19567.3
19565.9
19564.4
19562.7
19560.8
19558.8
19556.6
19554.3
19551.8
19549.2
19546.4
19543.5
19540.5
19537.3
19534
19530.6
19527.1
19523.4
19519.6
19515.8
19511.8
19507.8
19503.6
19499.4
19495
19490.6
19486.2
19481.6
19477
19472.3
19467.6
19462.8
19458
19453.1
19448.2
19443.3
19438.3
19433.3
19428.2
19423.1
19418
19412.9
19407.8
19402.6
19397.5
19392.3
19387.1
19381.9
19376.7
19371.5
19366.3
19361.1
19355.9
19350.8
19345.6
19340.4
19335.3
19330.2
19325
19320
19314.9
19309.8
19304.8
19299.9
19294.9
19290
19285.1
19280.3
19275.5
19270.8
19266.1
19261.5
19256.9
19252.4
19247.9
19243.5
19239.2
19234.9
19230.7
19226.6
19222.5
19218.5
19214.6
19210.8
19207
19203.4
19199.8
19196.3
19192.8
19189.5
19186.3
19183.1
19180
19177
19174.1
19171.3
19168.5
19165.9
19163.3
19160.8
19158.4
19156.1
19153.9
19151.7
19149.6
19147.6
19145.7
19143.8
19142
19140.3
19138.7
19137.1
19135.6
19134.2
19132.8
19131.5
19130.2
19129
19127.9
19126.8
19125.8
19124.8
19123.9
19123
19122.2
19121.4
19120.7
19120
19119.4
19118.8
19118.2
19117.7
19117.3
19116.9
19116.5
19116.2
19115.9
19115.6
19115.4
19115.3
19115.1
19115
19115
19123.1
19122.9
19122.5
19122
19121.3
19120.5
19119.4
19118.2
19116.8
19115.2
19113.5
19111.6
19109.6
19107.4
19105
19102.5
19099.8
19097
19094.1
19091
19087.8
19084.4
19081
19077.4
19073.7
19069.9
19065.9
19061.9
19057.8
19053.6
19049.3
19044.9
19040.5
19035.9
19031.3
19026.7
19021.9
19017.2
19012.3
19007.5
19002.5
18997.6
18992.6
18987.5
18982.4
18977.3
18972.2
18967.1
18961.9
18956.7
18951.5
18946.3
18941.1
18935.8
18930.6
18925.4
18920.1
18914.9
18909.6
18904.4
18899.2
18894
18888.8
18883.6
18878.4
18873.2
18868.1
18863
18857.9
18852.9
18847.8
18842.9
18837.9
18833
18828.1
18823.3
18818.5
18813.8
18809.1
18804.5
18800
18795.5
18791
18786.7
18782.4
18778.1
18774
18769.9
18765.9
18762
18758.2
18754.4
18750.7
18747.1
18743.6
18740.2
18736.9
18733.6
18730.5
18727.4
18724.4
18721.5
18718.7
18715.9
18713.3
18710.8
18708.3
18705.9
18703.6
18701.4
18699.2
18697.2
18695.2
18693.3
18691.4
18689.7
18688
18686.4
18684.8
18683.3
18681.9
18680.5
18679.2
18678
18676.8
18675.7
18674.6
18673.6
18672.6
18671.7
18670.8
18670
18669.2
18668.5
18667.8
18667.2
18666.6
18666.1
18665.6
18665.1
18664.7
18664.3
18664
18663.7
18663.4
18663.2
18663.1
18662.9
18662.9
18662.8
18674.4
18674.2
18673.8
18673.3
18672.6
18671.7
18670.6
18669.4
18668
18666.4
18664.7
18662.7
18660.7
18658.4
18656
18653.4
18650.7
18647.9
18644.9
18641.7
18638.5
18635.1
18631.5
18627.9
18624.1
18620.2
18616.3
18612.2
18608
18603.7
18599.4
18594.9
18590.4
18585.8
18581.1
18576.4
18571.6
18566.8
18561.9
18557
18552
18546.9
18541.9
18536.8
18531.7
18526.5
18521.3
18516.1
18510.9
18505.7
18500.4
18495.1
18489.9
18484.6
18479.3
18474
18468.7
18463.4
18458.1
18452.8
18447.6
18442.3
18437
18431.8
18426.6
18421.4
18416.2
18411
18405.9
18400.8
18395.7
18390.7
18385.7
18380.7
18375.8
18370.9
18366.1
18361.4
18356.6
18352
18347.4
18342.9
18338.4
18334
18329.7
18325.4
18321.3
18317.2
18313.1
18309.2
18305.3
18301.6
18297.9
18294.3
18290.8
18287.4
18284
18280.8
18277.6
18274.5
18271.6
18268.7
18265.9
18263.2
18260.5
18258
18255.6
18253.2
18250.9
18248.7
18246.6
18244.5
18242.6
18240.7
18238.9
18237.1
18235.5
18233.9
18232.3
18230.9
18229.5
18228.1
18226.8
18225.6
18224.5
18223.3
18222.3
18221.3
18220.3
18219.4
18218.5
18217.7
18217
18216.2
18215.6
18214.9
18214.3
18213.8
18213.3
18212.8
18212.4
18212
18211.7
18211.4
18211.1
18210.9
18210.8
18210.6
18210.6
18210.5
18226
18225.8
18225.4
18224.9
18224.2
18223.3
18222.2
18220.9
18219.5
18217.9
18216.1
18214.1
18212
18209.7
18207.3
18204.6
18201.9
18199
18195.9
18192.7
18189.4
18185.9
18182.3
18178.6
18174.8
18170.8
18166.8
18162.6
18158.4
18154
18149.6
18145.1
18140.5
18135.8
18131.1
18126.3
18121.4
18116.5
18111.5
18106.5
18101.5
18096.4
18091.3
18086.1
18080.9
18075.7
18070.5
18065.2
18059.9
18054.6
18049.3
18044
18038.6
18033.3
18028
18022.6
18017.3
18011.9
18006.6
18001.2
17995.9
17990.6
17985.3
17980
17974.7
17969.4
17964.2
17959
17953.8
17948.6
17943.5
17938.4
17933.3
17928.3
17923.4
17918.5
17913.6
17908.8
17904
17899.3
17894.7
17890.1
17885.6
17881.2
17876.8
17872.5
17868.3
17864.2
17860.2
17856.2
17852.3
17848.6
17844.9
17841.3
17837.7
17834.3
17831
17827.7
17824.6
17821.5
17818.6
17815.7
17812.9
17810.2
17807.6
17805.1
17802.7
17800.3
17798.1
17795.9
17793.8
17791.8
17789.8
17788
17786.2
17784.5
17782.8
17781.3
17779.8
17778.3
17776.9
17775.6
17774.3
17773.1
17772
17770.9
17769.8
17768.8
17767.9
17767
17766.1
17765.3
17764.6
17763.8
17763.2
17762.5
17761.9
17761.4
17760.9
17760.4
17760
17759.6
17759.3
17759
17758.7
17758.5
17758.3
17758.2
17758.1
17758.1
17777.9
17777.7
17777.3
17776.8
17776
17775.1
17774
17772.7
17771.3
17769.6
17767.8
17765.8
17763.6
17761.3
17758.8
17756.1
17753.3
17750.3
17747.2
17743.9
17740.5
17737
17733.3
17729.5
17725.6
17721.6
17717.4
17713.2
17708.9
17704.4
17699.9
17695.3
17690.7
17685.9
17681.1
17676.2
17671.3
17666.3
17661.3
17656.2
17651.1
17645.9
17640.7
17635.5
17630.2
17624.9
17619.6
17614.3
17608.9
17603.6
17598.2
17592.8
17587.4
17582
17576.6
17571.2
17565.8
17560.4
17555
17549.6
17544.2
17538.8
17533.4
17528
17522.7
17517.4
17512.1
17506.8
17501.6
17496.3
17491.1
17486
17480.9
17475.8
17470.8
17465.8
17460.9
17456
17451.2
17446.5
17441.8
17437.2
17432.6
17428.2
17423.8
17419.5
17415.2
17411.1
17407
17403
17399.1
17395.3
17391.6
17388
17384.5
17381.1
17377.7
17374.5
17371.3
17368.3
17365.3
17362.5
17359.7
17357
17354.5
17352
17349.6
17347.3
17345
17342.9
17340.8
17338.8
17336.9
17335.1
17333.4
17331.7
17330.1
17328.5
17327
17325.6
17324.3
17323
17321.7
17320.5
17319.4
17318.3
17317.3
17316.3
17315.3
17314.5
17313.6
17312.8
17312
17311.3
17310.6
17310
17309.4
17308.9
17308.4
17307.9
17307.5
17307.1
17306.7
17306.4
17306.2
17305.9
17305.8
17305.6
17305.6
17305.5
17330.1
17329.9
17329.6
17329
17328.2
17327.3
17326.2
17324.8
17323.3
17321.6
17319.8
17317.7
17315.5
17313.1
17310.5
17307.8
17304.9
17301.9
17298.7
17295.3
17291.9
17288.2
17284.5
17280.6
17276.6
17272.5
17268.3
17263.9
17259.5
17255
17250.4
17245.7
17241
17236.1
17231.2
17226.3
17221.3
17216.2
17211.1
17205.9
17200.7
17195.5
17190.2
17184.9
17179.5
17174.2
17168.8
17163.4
17158
17152.5
17147.1
17141.6
17136.2
17130.7
17125.2
17119.7
17114.3
17108.8
17103.3
17097.8
17092.4
17086.9
17081.5
17076.1
17070.7
17065.3
17059.9
17054.5
17049.2
17043.9
17038.7
17033.5
17028.3
17023.2
17018.1
17013
17008.1
17003.1
16998.3
16993.5
16988.7
16984.1
16979.5
16975
16970.5
16966.2
16961.9
16957.7
16953.6
16949.6
16945.7
16941.9
16938.2
16934.6
16931
16927.6
16924.3
16921
16917.9
16914.9
16911.9
16909.1
16906.3
16903.7
16901.1
16898.7
16896.3
16894
16891.8
16889.7
16887.7
16885.7
16883.9
16882.1
16880.4
16878.7
16877.1
16875.6
16874.2
16872.8
16871.4
16870.2
16869
16867.8
16866.7
16865.6
16864.6
16863.6
16862.7
16861.8
16861
16860.2
16859.4
16858.7
16858
16857.4
16856.8
16856.2
16855.7
16855.2
16854.8
16854.4
16854
16853.7
16853.5
16853.3
16853.1
16852.9
16852.8
16852.8
16882.7
16882.5
16882.1
16881.5
16880.7
16879.8
16878.6
16877.2
16875.7
16874
16872.1
16870
16867.7
16865.2
16862.6
16859.8
16856.8
16853.7
16850.4
16847
16843.4
16839.7
16835.9
16831.9
16827.8
16823.6
16819.3
16814.9
16810.3
16805.7
16801
16796.2
16791.4
16786.5
16781.5
16776.4
16771.3
16766.1
16760.9
16755.7
16750.4
16745
16739.7
16734.3
16728.9
16723.4
16718
16712.5
16707
16701.5
16696
16690.5
16684.9
16679.4
16673.8
16668.3
16662.7
16657.2
16651.6
16646.1
16640.5
16635
16629.5
16624
16618.5
16613.1
16607.6
16602.2
16596.8
16591.4
16586.1
16580.8
16575.6
16570.4
16565.2
16560.1
16555.1
16550.1
16545.1
16540.3
16535.5
16530.8
16526.1
16521.6
16517.1
16512.7
16508.4
16504.2
16500
16496
16492.1
16488.2
16484.5
16480.9
16477.3
16473.9
16470.6
16467.4
16464.2
16461.2
16458.3
16455.5
16452.7
16450.1
16447.6
16445.2
16442.8
16440.6
16438.4
16436.4
16434.4
16432.5
16430.6
16428.9
16427.2
16425.6
16424
16422.6
16421.2
16419.8
16418.5
16417.3
16416.1
16414.9
16413.8
16412.8
16411.8
16410.8
16409.9
16409
16408.2
16407.4
16406.6
16405.9
16405.2
16404.6
16404
16403.4
16402.9
16402.4
16402
16401.6
16401.2
16400.9
16400.6
16400.4
16400.2
16400.1
16400
16400
16435.6
16435.3
16434.9
16434.3
16433.5
16432.5
16431.4
16430
16428.4
16426.6
16424.6
16422.5
16420.1
16417.6
16414.9
16412
16409
16405.8
16402.4
16398.9
16395.2
16391.4
16387.5
16383.4
16379.2
16374.9
16370.4
16365.9
16361.3
16356.6
16351.8
16346.9
16341.9
16336.9
16331.8
16326.6
16321.4
16316.1
16310.8
16305.5
16300.1
16294.7
16289.2
16283.8
16278.3
16272.7
16267.2
16261.6
16256
16250.5
16244.9
16239.2
16233.6
16228
16222.4
16216.8
16211.1
16205.5
16199.9
16194.3
16188.6
16183
16177.4
16171.9
16166.3
16160.8
16155.2
16149.7
16144.3
16138.8
16133.4
16128
16122.7
16117.4
16112.2
16107
16101.9
16096.8
16091.8
16086.9
16082
16077.3
16072.6
16067.9
16063.4
16059
16054.6
16050.4
16046.2
16042.1
16038.2
16034.3
16030.6
16026.9
16023.4
16020
16016.7
16013.4
16010.3
16007.3
16004.4
16001.6
15998.9
15996.3
15993.9
15991.5
15989.2
15987
15984.8
15982.8
15980.9
15979
15977.2
15975.5
15973.9
15972.3
15970.8
15969.4
15968
15966.7
15965.4
15964.2
15963
15961.9
15960.9
15959.8
15958.8
15957.9
15957
15956.1
15955.3
15954.5
15953.7
15953
15952.3
15951.7
15951.1
15950.5
15950
15949.5
15949
15948.6
15948.3
15947.9
15947.7
15947.4
15947.2
15947.1
15947
15947
15988.8
15988.5
15988.1
15987.5
15986.7
15985.7
15984.4
15983
15981.4
15979.5
15977.5
15975.3
15972.9
15970.3
15967.5
15964.5
15961.4
15958.1
15954.6
15951
15947.2
15943.3
15939.2
15935.1
15930.7
15926.3
15921.8
15917.1
15912.4
15907.5
15902.6
15897.6
15892.5
15887.4
15882.2
15876.9
15871.6
15866.2
15860.8
15855.3
15849.9
15844.3
15838.8
15833.2
15827.6
15822
15816.4
15810.7
15805.1
15799.4
15793.7
15788
15782.3
15776.6
15770.9
15765.2
15759.5
15753.8
15748.1
15742.4
15736.7
15731
15725.3
15719.6
15714
15708.4
15702.8
15697.2
15691.6
15686.1
15680.6
15675.1
15669.7
15664.3
15659
15653.7
15648.5
15643.4
15638.3
15633.3
15628.4
15623.5
15618.8
15614.1
15609.5
15605
15600.6
15596.3
15592.1
15588
15584.1
15580.2
15576.4
15572.8
15569.2
15565.8
15562.5
15559.3
15556.2
15553.2
15550.3
15547.6
15544.9
15542.3
15539.9
15537.5
15535.3
15533.1
15531
15529.1
15527.2
15525.4
15523.6
15522
15520.4
15518.9
15517.4
15516
15514.7
15513.4
15512.2
15511
15509.9
15508.8
15507.8
15506.8
15505.8
15504.9
15504
15503.1
15502.3
15501.5
15500.7
15500
15499.3
15498.6
15498
15497.5
15496.9
15496.4
15495.9
15495.5
15495.1
15494.8
15494.5
15494.3
15494.1
15493.9
15493.8
15493.8
15542.3
15542.1
15541.6
15541
15540.2
15539.1
15537.9
15536.4
15534.7
15532.8
15530.7
15528.4
15525.9
15523.2
15520.4
15517.3
15514.1
15510.7
15507.1
15503.3
15499.4
15495.4
15491.2
15486.9
15482.5
15477.9
15473.2
15468.5
15463.6
15458.6
15453.6
15448.4
15443.2
15438
15432.6
15427.2
15421.8
15416.3
15410.8
15405.2
15399.6
15394
15388.4
15382.7
15377
15371.3
15365.6
15359.8
15354.1
15348.3
15342.5
15336.8
15331
15325.2
15319.4
15313.6
15307.8
15302
15296.2
15290.4
15284.6
15278.9
15273.1
15267.3
15261.6
15255.9
15250.2
15244.5
15238.8
15233.2
15227.6
15222.1
15216.5
15211.1
15205.7
15200.3
15195
15189.8
15184.6
15179.5
15174.5
15169.6
15164.8
15160
15155.4
15150.8
15146.4
15142
15137.8
15133.7
15129.7
15125.8
15122
15118.3
15114.8
15111.4
15108.1
15104.9
15101.8
15098.8
15096
15093.2
15090.6
15088.1
15085.7
15083.4
15081.2
15079.1
15077.1
15075.1
15073.3
15071.5
15069.9
15068.3
15066.7
15065.3
15063.9
15062.6
15061.3
15060
15058.9
15057.7
15056.6
15055.6
15054.6
15053.6
15052.6
15051.7
15050.8
15050
15049.1
15048.3
15047.6
15046.8
15046.1
15045.5
15044.8
15044.2
15043.7
15043.2
15042.7
15042.3
15041.9
15041.5
15041.2
15041
15040.7
15040.6
15040.5
15040.5
15096.2
15096
15095.5
15094.9
15094
15092.9
15091.6
15090.1
15088.3
15086.4
15084.2
15081.8
15079.3
15076.5
15073.5
15070.4
15067
15063.5
15059.8
15055.9
15051.9
15047.7
15043.4
15039
15034.4
15029.7
15024.9
15020
15014.9
15009.8
15004.6
14999.4
14994
14988.6
14983.2
14977.6
14972.1
14966.5
14960.8
14955.2
14949.4
14943.7
14937.9
14932.2
14926.4
14920.6
14914.7
14908.9
14903.1
14897.2
14891.3
14885.5
14879.6
14873.7
14867.8
14861.9
14856.1
14850.2
14844.3
14838.4
14832.5
14826.7
14820.8
14814.9
14809.1
14803.3
14797.5
14791.7
14785.9
14780.2
14774.5
14768.8
14763.2
14757.6
14752.1
14746.7
14741.3
14736
14730.7
14725.5
14720.4
14715.4
14710.5
14705.7
14701
14696.4
14691.9
14687.5
14683.2
14679.1
14675
14671.1
14667.3
14663.6
14660.1
14656.6
14653.3
14650.2
14647.1
14644.2
14641.4
14638.7
14636.1
14633.6
14631.2
14629
14626.8
14624.8
14622.8
14621
14619.2
14617.5
14615.9
14614.4
14612.9
14611.5
14610.2
14608.9
14607.7
14606.5
14605.4
14604.3
14603.2
14602.2
14601.2
14600.3
14599.3
14598.4
14597.5
14596.7
14595.9
14595.1
14594.3
14593.5
14592.8
14592.2
14591.5
14590.9
14590.3
14589.8
14589.3
14588.8
14588.4
14588
14587.7
14587.5
14587.2
14587.1
14587
14586.9
14650.5
14650.2
14649.7
14649.1
14648.2
14647
14645.7
14644.1
14642.3
14640.3
14638.1
14635.6
14632.9
14630
14627
14623.7
14620.2
14616.6
14612.7
14608.7
14604.6
14600.2
14595.8
14591.2
14586.5
14581.6
14576.6
14571.6
14566.4
14561.1
14555.8
14550.4
14544.9
14539.3
14533.7
14528.1
14522.4
14516.6
14510.9
14505.1
14499.2
14493.4
14487.5
14481.6
14475.7
14469.8
14463.9
14457.9
14452
14446
14440.1
14434.1
14428.2
14422.2
14416.2
14410.2
14404.3
14398.3
14392.3
14386.3
14380.3
14374.4
14368.4
14362.5
14356.5
14350.6
14344.7
14338.8
14332.9
14327
14321.2
14315.5
14309.7
14304
14298.4
14292.9
14287.3
14281.9
14276.6
14271.3
14266.1
14261
14256
14251.1
14246.3
14241.6
14237.1
14232.6
14228.3
14224.1
14220
14216.1
14212.3
14208.6
14205.1
14201.6
14198.3
14195.2
14192.1
14189.2
14186.5
14183.8
14181.3
14178.9
14176.5
14174.4
14172.3
14170.3
14168.4
14166.6
14164.9
14163.3
14161.8
14160.3
14158.9
14157.6
14156.3
14155.1
14154
14152.8
14151.8
14150.7
14149.7
14148.7
14147.8
14146.8
14145.9
14145
14144.1
14143.3
14142.5
14141.7
14140.9
14140.1
14139.4
14138.7
14138
14137.4
14136.8
14136.2
14135.7
14135.2
14134.8
14134.4
14134
14133.8
14133.5
14133.3
14133.2
14133.2
14205.1
14204.9
14204.3
14203.6
14202.7
14201.6
14200.2
14198.5
14196.7
14194.6
14192.2
14189.7
14186.9
14183.9
14180.7
14177.3
14173.7
14169.9
14165.9
14161.8
14157.5
14153
14148.3
14143.6
14138.7
14133.7
14128.5
14123.3
14118
14112.5
14107
14101.5
14095.8
14090.1
14084.4
14078.6
14072.7
14066.8
14060.9
14055
14049
14043
14037.1
14031
14025
14019
14013
14006.9
14000.9
13994.8
13988.8
13982.7
13976.7
13970.6
13964.5
13958.5
13952.4
13946.3
13940.2
13934.2
13928.1
13922
13915.9
13909.9
13903.8
13897.8
13891.7
13885.7
13879.7
13873.7
13867.8
13861.9
13856.1
13850.3
13844.5
13838.8
13833.2
13827.6
13822.2
13816.8
13811.5
13806.3
13801.2
13796.2
13791.4
13786.6
13782
13777.5
13773.1
13768.9
13764.8
13760.8
13757
13753.3
13749.7
13746.3
13743
13739.9
13736.9
13734
13731.3
13728.7
13726.2
13723.8
13721.6
13719.5
13717.4
13715.5
13713.7
13712
13710.4
13708.9
13707.4
13706
13704.7
13703.5
13702.3
13701.2
13700.1
13699
13698
13697
13696
13695.1
13694.2
13693.3
13692.4
13691.5
13690.6
13689.8
13688.9
13688.1
13687.3
13686.5
13685.8
13685
13684.3
13683.7
13683
13682.4
13681.9
13681.4
13680.9
13680.5
13680.1
13679.8
13679.6
13679.4
13679.3
13679.2
13760.2
13759.9
13759.3
13758.6
13757.6
13756.4
13755
13753.3
13751.3
13749.2
13746.7
13744.1
13741.2
13738.1
13734.7
13731.2
13727.4
13723.5
13719.4
13715
13710.5
13705.9
13701.1
13696.1
13691.1
13685.9
13680.6
13675.1
13669.6
13664
13658.3
13652.6
13646.8
13640.9
13635
13629
13623
13617
13610.9
13604.9
13598.8
13592.7
13586.6
13580.4
13574.3
13568.2
13562
13555.9
13549.7
13543.6
13537.4
13531.3
13525.1
13518.9
13512.8
13506.6
13500.4
13494.3
13488.1
13481.9
13475.7
13469.5
13463.4
13457.2
13451
13444.8
13438.7
13432.5
13426.4
13420.3
13414.2
13408.2
13402.2
13396.3
13390.4
13384.6
13378.8
13373.1
13367.5
13362
13356.6
13351.3
13346.1
13341.1
13336.1
13331.3
13326.6
13322
13317.6
13313.3
13309.2
13305.2
13301.3
13297.6
13294
13290.6
13287.4
13284.3
13281.3
13278.5
13275.8
13273.2
13270.8
13268.5
13266.3
13264.3
13262.3
13260.5
13258.8
13257.2
13255.7
13254.2
13252.9
13251.6
13250.4
13249.2
13248.1
13247
13246
13245.1
13244.1
13243.2
13242.2
13241.3
13240.5
13239.6
13238.7
13237.8
13237
13236.1
13235.3
13234.4
13233.6
13232.8
13232
13231.2
13230.5
13229.8
13229.1
13228.5
13227.9
13227.3
13226.8
13226.4
13226
13225.7
13225.4
13225.2
13225.1
13225
13315.6
13315.3
13314.7
13313.9
13312.9
13311.7
13310.2
13308.4
13306.4
13304.1
13301.6
13298.8
13295.8
13292.6
13289.1
13285.4
13281.5
13277.3
13273
13268.5
13263.9
13259
13254
13248.9
13243.6
13238.2
13232.7
13227.1
13221.3
13215.6
13209.7
13203.7
13197.8
13191.7
13185.6
13179.5
13173.3
13167.1
13160.9
13154.7
13148.5
13142.2
13136
13129.7
13123.5
13117.2
13111
13104.7
13098.5
13092.2
13086
13079.7
13073.5
13067.2
13060.9
13054.7
13048.4
13042.1
13035.9
13029.6
13023.3
13017
13010.7
13004.4
12998.1
12991.8
12985.5
12979.2
12972.9
12966.7
12960.5
12954.3
12948.2
12942.1
12936.1
12930.1
12924.2
12918.4
12912.6
12907
12901.5
12896.1
12890.7
12885.6
12880.5
12875.6
12870.8
12866.2
12861.7
12857.4
12853.2
12849.2
12845.3
12841.6
12838
12834.6
12831.4
12828.3
12825.4
12822.6
12819.9
12817.4
12815.1
12812.9
12810.8
12808.8
12807
12805.2
12803.6
12802.1
12800.7
12799.3
12798.1
12796.9
12795.8
12794.7
12793.7
12792.8
12791.8
12790.9
12790.1
12789.2
12788.3
12787.5
12786.6
12785.8
12784.9
12784.1
12783.2
12782.3
12781.5
12780.6
12779.7
12778.9
12778.1
12777.2
12776.5
12775.7
12775
12774.3
12773.7
12773.1
12772.5
12772.1
12771.6
12771.3
12771
12770.8
12770.6
12770.6
12871.5
12871.1
12870.5
12869.7
12868.6
12867.3
12865.8
12863.9
12861.8
12859.4
12856.8
12853.9
12850.8
12847.4
12843.7
12839.9
12835.8
12831.5
12826.9
12822.2
12817.4
12812.3
12807.1
12801.7
12796.2
12790.6
12784.9
12779.1
12773.1
12767.1
12761.1
12754.9
12748.7
12742.5
12736.2
12729.9
12723.6
12717.2
12710.9
12704.5
12698.1
12691.7
12685.3
12679
12672.6
12666.2
12659.8
12653.5
12647.1
12640.8
12634.4
12628.1
12621.7
12615.4
12609
12602.7
12596.3
12589.9
12583.5
12577.1
12570.7
12564.3
12557.9
12551.5
12545
12538.6
12532.2
12525.7
12519.3
12512.9
12506.6
12500.2
12493.9
12487.7
12481.5
12475.4
12469.3
12463.3
12457.5
12451.7
12446
12440.4
12435
12429.7
12424.6
12419.5
12414.7
12410
12405.4
12401
12396.8
12392.8
12388.9
12385.1
12381.6
12378.2
12375
12371.9
12369.1
12366.3
12363.7
12361.3
12359
12356.9
12354.9
12353
12351.3
12349.7
12348.1
12346.7
12345.4
12344.2
12343.1
12342
12341
12340.1
12339.2
12338.3
12337.5
12336.7
12335.9
12335.1
12334.3
12333.5
12332.7
12331.8
12331
12330.1
12329.3
12328.4
12327.5
12326.6
12325.7
12324.8
12323.9
12323
12322.2
12321.4
12320.6
12319.9
12319.2
12318.5
12317.9
12317.4
12317
12316.6
12316.3
12316
12315.9
12315.8
12427.8
12427.4
12426.8
12425.9
12424.7
12423.4
12421.7
12419.8
12417.6
12415.1
12412.4
12409.3
12406
12402.5
12398.7
12394.6
12390.3
12385.8
12381.1
12376.2
12371.1
12365.8
12360.3
12354.7
12349
12343.2
12337.2
12331.1
12325
12318.8
12312.5
12306.1
12299.7
12293.3
12286.8
12280.3
12273.8
12267.3
12260.7
12254.2
12247.6
12241.1
12234.6
12228.1
12221.6
12215.1
12208.6
12202.1
12195.7
12189.2
12182.8
12176.3
12169.9
12163.4
12157
12150.5
12144.1
12137.6
12131.1
12124.6
12118.1
12111.6
12105
12098.4
12091.9
12085.3
12078.7
12072.1
12065.5
12059
12052.4
12045.9
12039.5
12033
12026.7
12020.4
12014.1
12008
12002
11996
11990.2
11984.5
11978.9
11973.5
11968.2
11963.1
11958.1
11953.4
11948.7
11944.3
11940
11935.9
11932
11928.3
11924.8
11921.4
11918.2
11915.2
11912.4
11909.7
11907.2
11904.8
11902.6
11900.6
11898.7
11896.9
11895.3
11893.8
11892.4
11891.1
11889.9
11888.8
11887.8
11886.9
11886
11885.2
11884.5
11883.7
11883
11882.3
11881.6
11880.9
11880.1
11879.4
11878.6
11877.8
11877
11876.1
11875.2
11874.3
11873.4
11872.4
11871.5
11870.5
11869.6
11868.6
11867.7
11866.8
11866
11865.2
11864.4
11863.7
11863.1
11862.5
11862
11861.6
11861.2
11861
11860.8
11860.7
11984.6
11984.2
11983.5
11982.5
11981.3
11979.8
11978.1
11976.1
11973.8
11971.2
11968.3
11965.1
11961.7
11957.9
11953.9
11949.7
11945.2
11940.4
11935.5
11930.3
11924.9
11919.4
11913.7
11907.9
11901.9
11895.8
11889.5
11883.2
11876.8
11870.4
11863.8
11857.2
11850.6
11844
11837.3
11830.6
11823.9
11817.2
11810.5
11803.7
11797.1
11790.4
11783.7
11777.1
11770.4
11763.8
11757.2
11750.6
11744.1
11737.5
11731
11724.5
11717.9
11711.4
11704.9
11698.3
11691.8
11685.2
11678.6
11672
11665.3
11658.7
11652
11645.3
11638.6
11631.9
11625.1
11618.4
11611.6
11604.9
11598.1
11591.4
11584.8
11578.2
11571.6
11565.1
11558.7
11552.4
11546.1
11540
11534
11528.2
11522.4
11516.9
11511.5
11506.2
11501.2
11496.3
11491.6
11487.1
11482.8
11478.7
11474.7
11471
11467.5
11464.1
11461
11458
11455.2
11452.6
11450.2
11447.9
11445.8
11443.9
11442.1
11440.5
11438.9
11437.6
11436.3
11435.2
11434.1
11433.2
11432.3
11431.6
11430.8
11430.2
11429.5
11428.9
11428.3
11427.7
11427.1
11426.5
11425.8
11425.1
11424.4
11423.6
11422.8
11421.9
11421
11420.1
11419.1
11418.1
11417.1
11416
11415
11414
11413
11412
11411.1
11410.2
11409.3
11408.6
11407.9