/*--------------------------------*- C++ -*----------------------------------*\
| =========                 |                                                 |
| \\      /  F ield         | OpenFOAM: The Open Source CFD Toolbox           |
|  \\    /   O peration     | Version:  v2006                                 |
|   \\  /    A nd           | Website:  www.openfoam.com                      |
|    \\/     M anipulation  |                                                 |
\*---------------------------------------------------------------------------*/
FoamFile
{
    version     2.0;
    format      ascii;
    class       volVectorField;
    location    "0";
    object      U;
}
// * * * * * * * * * * * * * * * * * * * * * * * * * * * * * * * * * * * * * //

dimensions      [0 1 -1 0 0 0 0];


internalField   nonuniform List<vector> 
20000
(
(1 -4.95168e-10 0)
(1 -1.67161e-09 0)
(1 -3.0703e-09 0)
(1 -5.04883e-09 0)
(1 -7.89864e-09 0)
(1 -1.15021e-08 0)
(1 -1.54497e-08 0)
(1 -1.9331e-08 0)
(1 -2.29499e-08 0)
(1 -2.63359e-08 0)
(1 -2.96213e-08 0)
(1 -3.29057e-08 0)
(1 -3.6184e-08 0)
(1 -3.93275e-08 0)
(1 -4.20395e-08 0)
(1 -4.37414e-08 0)
(1 -4.35151e-08 0)
(1 -4.03396e-08 0)
(1 -3.37387e-08 0)
(1 -2.40233e-08 0)
(1 -1.2441e-08 0)
(1 -3.03528e-09 0)
(1 -7.37053e-10 0)
(1 -8.03956e-09 0)
(1 -2.69129e-08 0)
(1 -5.395e-08 0)
(1 -8.0017e-08 0)
(1 -9.50679e-08 0)
(1.00001 -9.3904e-08 0)
(1.00001 -7.87368e-08 0)
(1.00001 -5.63095e-08 0)
(1.00001 -3.00906e-08 0)
(1.00001 -5.22877e-09 0)
(1.00001 1.26372e-08 0)
(1.00001 2.46056e-08 0)
(1.00001 3.41417e-08 0)
(1.00001 4.27363e-08 0)
(1.00001 4.93728e-08 0)
(1.00001 5.17263e-08 0)
(1.00001 4.77364e-08 0)
(1.00001 3.71134e-08 0)
(1 2.16205e-08 0)
(1 3.54156e-09 0)
(1 -1.50263e-08 0)
(1 -3.12708e-08 0)
(1.00001 -4.40337e-08 0)
(1.00001 -6.01199e-08 0)
(1.00001 -7.91398e-08 0)
(1.00001 -9.85778e-08 0)
(1.00001 -1.16617e-07 0)
(1.00001 -1.31698e-07 0)
(1.00001 -1.43736e-07 0)
(1.00001 -1.55085e-07 0)
(1.00001 -1.62996e-07 0)
(1.00001 -1.52386e-07 0)
(1.00001 -1.05024e-07 0)
(1.00001 -1.91325e-08 0)
(1.00001 8.96781e-08 0)
(1.00001 1.78308e-07 0)
(1.00001 2.50754e-07 0)
(1.00001 3.16117e-07 0)
(1.00001 3.72654e-07 0)
(1.00001 4.19891e-07 0)
(1.00001 4.58474e-07 0)
(1.00001 4.8664e-07 0)
(1 5.01387e-07 0)
(1 5.00031e-07 0)
(0.999998 4.80041e-07 0)
(0.999995 4.40698e-07 0)
(0.999992 3.83514e-07 0)
(0.99999 3.11846e-07 0)
(0.999987 2.30488e-07 0)
(0.999985 1.47489e-07 0)
(0.999983 7.63675e-08 0)
(0.999981 2.91335e-08 0)
(0.99998 5.14926e-09 0)
(0.999979 -9.08541e-09 0)
(0.999978 -2.78067e-08 0)
(0.999978 -5.43719e-08 0)
(0.999978 -8.08549e-08 0)
(0.999978 -1.01218e-07 0)
(0.999979 -1.23158e-07 0)
(0.999979 -1.44312e-07 0)
(0.99998 -1.6131e-07 0)
(0.999982 -1.7456e-07 0)
(0.999983 -1.87041e-07 0)
(0.999984 -2.01367e-07 0)
(0.999985 -2.16646e-07 0)
(0.999987 -2.27436e-07 0)
(0.999988 -2.26353e-07 0)
(0.99999 -2.08825e-07 0)
(0.999991 -1.76697e-07 0)
(0.999992 -1.38043e-07 0)
(0.999993 -1.0294e-07 0)
(0.999994 -7.81702e-08 0)
(0.999994 -6.49331e-08 0)
(0.999994 -6.0487e-08 0)
(0.999995 -6.09895e-08 0)
(0.999995 -6.31877e-08 0)
(0.999996 -6.49201e-08 0)
(0.999996 -6.5103e-08 0)
(0.999997 -6.34769e-08 0)
(0.999997 -6.02661e-08 0)
(0.999997 -5.59025e-08 0)
(0.999998 -5.0852e-08 0)
(0.999998 -4.5521e-08 0)
(0.999998 -4.0221e-08 0)
(0.999999 -3.51661e-08 0)
(0.999999 -3.04867e-08 0)
(0.999999 -2.62494e-08 0)
(0.999999 -2.24751e-08 0)
(0.999999 -1.91548e-08 0)
(0.999999 -1.62615e-08 0)
(1 -1.37584e-08 0)
(1 -1.16052e-08 0)
(1 -9.76109e-09 0)
(1 -8.18753e-09 0)
(1 -6.84879e-09 0)
(1 -5.71266e-09 0)
(1 -4.75062e-09 0)
(1 -3.93757e-09 0)
(1 -3.25164e-09 0)
(1 -2.67399e-09 0)
(1 -2.18835e-09 0)
(1 -1.78082e-09 0)
(1 -1.43956e-09 0)
(1 -1.1544e-09 0)
(1 -9.16468e-10 0)
(1 -7.18204e-10 0)
(1 -5.53577e-10 0)
(1 -4.17743e-10 0)
(1 -3.05759e-10 0)
(1 -2.0784e-10 0)
(1 -1.19823e-10 0)
(1 -3.96155e-11 0)
(1 2.59715e-11 0)
(1 7.43922e-11 0)
(1 1.04989e-10 0)
(1 1.21256e-10 0)
(1 1.28085e-10 0)
(1 1.2937e-10 0)
(1 1.27596e-10 0)
(1 1.24171e-10 0)
(1 1.19829e-10 0)
(1 1.1497e-10 0)
(1 1.09832e-10 0)
(1 1.04538e-10 0)
(1 9.92057e-11 0)
(1 9.38903e-11 0)
(1 8.86575e-11 0)
(1 8.35503e-11 0)
(1 7.85932e-11 0)
(1 7.38216e-11 0)
(1 6.9231e-11 0)
(1 6.48508e-11 0)
(1 6.06764e-11 0)
(1 5.67038e-11 0)
(1 5.29425e-11 0)
(1 4.93918e-11 0)
(1 4.60457e-11 0)
(1 4.28923e-11 0)
(1 3.99254e-11 0)
(1 3.71386e-11 0)
(1 3.45272e-11 0)
(1 3.20855e-11 0)
(1 2.98034e-11 0)
(1 2.76677e-11 0)
(1 2.5671e-11 0)
(1 2.38051e-11 0)
(1 2.20633e-11 0)
(1 2.044e-11 0)
(1 1.89239e-11 0)
(1 1.75083e-11 0)
(1 1.61929e-11 0)
(1 1.4974e-11 0)
(1 1.38358e-11 0)
(1 1.27717e-11 0)
(1 1.17817e-11 0)
(1 1.08563e-11 0)
(1 9.99079e-12 0)
(1 9.18543e-12 0)
(1 8.43387e-12 0)
(1 7.72852e-12 0)
(1 7.06722e-12 0)
(1 6.44894e-12 0)
(1 5.8681e-12 0)
(1 5.32115e-12 0)
(1 4.80804e-12 0)
(1 4.32325e-12 0)
(1 3.86114e-12 0)
(1 3.42057e-12 0)
(1 3.00184e-12 0)
(1 2.60236e-12 0)
(1 2.21869e-12 0)
(1 1.84705e-12 0)
(1 1.48465e-12 0)
(1 1.12605e-12 0)
(1 7.9086e-13 0)
(1 3.46489e-13 0)
(1 1.57585e-13 0)
(1 -1.48381e-09 0)
(1 -5.00998e-09 0)
(1 -9.20275e-09 0)
(1 -1.51341e-08 0)
(1 -2.36777e-08 0)
(1 -3.44814e-08 0)
(1 -4.6317e-08 0)
(1 -5.79554e-08 0)
(1 -6.88099e-08 0)
(1 -7.89678e-08 0)
(1 -8.88277e-08 0)
(1 -9.87064e-08 0)
(1 -1.08594e-07 0)
(1 -1.18028e-07 0)
(1 -1.26012e-07 0)
(1 -1.30934e-07 0)
(1 -1.30624e-07 0)
(1 -1.22722e-07 0)
(1 -1.05522e-07 0)
(1 -7.8888e-08 0)
(1 -4.58021e-08 0)
(1 -1.5536e-08 0)
(1 -2.33032e-09 0)
(1 -1.96702e-08 0)
(1 -7.45852e-08 0)
(1 -1.56379e-07 0)
(1 -2.37235e-07 0)
(1 -2.8627e-07 0)
(1.00001 -2.86756e-07 0)
(1.00001 -2.43721e-07 0)
(1.00001 -1.76863e-07 0)
(1.00001 -1.04922e-07 0)
(1.00001 -4.29142e-08 0)
(1.00001 3.8223e-09 0)
(1.00001 3.84827e-08 0)
(1.00001 6.78785e-08 0)
(1.00001 9.54894e-08 0)
(1.00001 1.20618e-07 0)
(1.00001 1.38907e-07 0)
(1.00001 1.43986e-07 0)
(1.00001 1.3152e-07 0)
(1.00001 1.01938e-07 0)
(1.00001 5.8857e-08 0)
(1.00001 6.71629e-09 0)
(1.00001 -4.95536e-08 0)
(1.00001 -1.07329e-07 0)
(1.00001 -1.69755e-07 0)
(1.00001 -2.33561e-07 0)
(1.00001 -2.94436e-07 0)
(1.00001 -3.49286e-07 -8.78899e-40)
(1.00001 -3.95716e-07 -9.3579e-40)
(1.00001 -4.32401e-07 0)
(1.00001 -4.58611e-07 0)
(1.00001 -4.69738e-07 0)
(1.00001 -4.55382e-07 0)
(1.00001 -4.05622e-07 0)
(1.00001 -3.20219e-07 0)
(1.00002 -2.06129e-07 0)
(1.00002 -9.05541e-08 0)
(1.00002 3.37904e-08 0)
(1.00002 1.65993e-07 0)
(1.00002 3.28439e-07 0)
(1.00002 5.02971e-07 0)
(1.00002 6.76907e-07 0)
(1.00002 8.46475e-07 0)
(1.00002 1.00581e-06 0)
(1.00002 1.14699e-06 0)
(1.00001 1.26152e-06 0)
(1.00001 1.34179e-06 0)
(1.00001 1.38132e-06 0)
(1 1.37542e-06 0)
(1 1.3225e-06 0)
(0.999996 1.22675e-06 0)
(0.999992 1.09861e-06 0)
(0.999988 9.47718e-07 0)
(0.999985 7.76756e-07 0)
(0.999982 5.85365e-07 0)
(0.99998 3.78119e-07 0)
(0.999979 1.69006e-07 0)
(0.999978 -2.14917e-08 0)
(0.999978 -1.79852e-07 0)
(0.999979 -3.07821e-07 0)
(0.999979 -4.03373e-07 0)
(0.99998 -4.69385e-07 0)
(0.999982 -5.15873e-07 0)
(0.999983 -5.56388e-07 0)
(0.999984 -6.01096e-07 0)
(0.999985 -6.48338e-07 0)
(0.999987 -6.81984e-07 0)
(0.999988 -6.79673e-07 0)
(0.99999 -6.27425e-07 0)
(0.999991 -5.3072e-07 0)
(0.999992 -4.14048e-07 0)
(0.999993 -3.08069e-07 0)
(0.999994 -2.33414e-07 0)
(0.999994 -1.93702e-07 0)
(0.999994 -1.80574e-07 0)
(0.999995 -1.8237e-07 0)
(0.999995 -1.89236e-07 0)
(0.999996 -1.94634e-07 0)
(0.999996 -1.95302e-07 0)
(0.999997 -1.90474e-07 0)
(0.999997 -1.80849e-07 0)
(0.999997 -1.67743e-07 0)
(0.999998 -1.52569e-07 0)
(0.999998 -1.36556e-07 0)
(0.999998 -1.2064e-07 0)
(0.999999 -1.05464e-07 0)
(0.999999 -9.14209e-08 0)
(0.999999 -7.87071e-08 0)
(0.999999 -6.73848e-08 0)
(0.999999 -5.74261e-08 0)
(0.999999 -4.87492e-08 0)
(1 -4.12439e-08 0)
(1 -3.47886e-08 0)
(1 -2.9261e-08 0)
(1 -2.45445e-08 0)
(1 -2.05321e-08 0)
(1 -1.71267e-08 0)
(1 -1.42428e-08 0)
(1 -1.18052e-08 0)
(1 -9.74849e-09 0)
(1 -8.01626e-09 0)
(1 -6.55989e-09 0)
(1 -5.33774e-09 0)
(1 -4.31418e-09 0)
(1 -3.45874e-09 0)
(1 -2.74537e-09 0)
(1 -2.1519e-09 0)
(1 -1.65972e-09 0)
(1 -1.25305e-09 0)
(1 -9.17631e-10 0)
(1 -6.37165e-10 0)
(1 -4.02349e-10 0)
(1 -2.06746e-10 0)
(1 -5.1357e-11 0)
(1 6.83926e-11 0)
(1 1.56921e-10 0)
(1 2.20491e-10 0)
(1 2.65573e-10 0)
(1 2.97022e-10 0)
(1 3.18134e-10 0)
(1 3.31176e-10 0)
(1 3.37789e-10 0)
(1 3.3928e-10 0)
(1 3.36746e-10 0)
(1 3.31025e-10 0)
(1 3.22867e-10 0)
(1 3.12858e-10 0)
(1 3.01511e-10 0)
(1 2.89238e-10 0)
(1 2.76351e-10 0)
(1 2.63148e-10 0)
(1 2.49809e-10 0)
(1 2.36531e-10 0)
(1 2.23438e-10 0)
(1 2.10626e-10 0)
(1 1.98196e-10 0)
(1 1.86206e-10 0)
(1 1.74687e-10 0)
(1 1.63655e-10 0)
(1 1.53134e-10 0)
(1 1.43135e-10 0)
(1 1.33658e-10 0)
(1 1.24698e-10 0)
(1 1.16245e-10 0)
(1 1.08276e-10 0)
(1 1.0078e-10 0)
(1 9.37392e-11 0)
(1 8.71351e-11 0)
(1 8.09484e-11 0)
(1 7.5151e-11 0)
(1 6.97216e-11 0)
(1 6.46508e-11 0)
(1 5.99244e-11 0)
(1 5.55062e-11 0)
(1 5.13724e-11 0)
(1 4.75172e-11 0)
(1 4.39175e-11 0)
(1 4.05533e-11 0)
(1 3.74166e-11 0)
(1 3.44897e-11 0)
(1 3.17512e-11 0)
(1 2.91895e-11 0)
(1 2.67965e-11 0)
(1 2.45563e-11 0)
(1 2.24557e-11 0)
(1 2.04879e-11 0)
(1 1.86384e-11 0)
(1 1.68922e-11 0)
(1 1.52425e-11 0)
(1 1.36848e-11 0)
(1 1.22092e-11 0)
(1 1.08049e-11 0)
(1 9.46239e-12 0)
(1 8.17321e-12 0)
(1 6.93228e-12 0)
(1 5.72584e-12 0)
(1 4.56549e-12 0)
(1 3.21525e-12 0)
(1 -2.46741e-09 0)
(1 -8.33386e-09 0)
(1 -1.53108e-08 0)
(1 -2.51822e-08 0)
(1 -3.94024e-08 0)
(1 -5.73852e-08 0)
(1 -7.70879e-08 0)
(1 -9.64668e-08 0)
(1 -1.14549e-07 0)
(1 -1.31482e-07 0)
(1 -1.47938e-07 0)
(1 -1.64456e-07 0)
(1 -1.81021e-07 0)
(1 -1.96834e-07 0)
(1 -2.10216e-07 0)
(1 -2.18593e-07 0)
(1 -2.18611e-07 0)
(1 -2.06493e-07 0)
(1 -1.78934e-07 0)
(1 -1.35084e-07 0)
(1 -7.97863e-08 0)
(1 -2.68143e-08 0)
(1 -1.2643e-10 0)
(1 -2.69151e-08 0)
(1 -1.19311e-07 0)
(1 -2.58657e-07 0)
(1 -3.9732e-07 0)
(1 -4.8218e-07 0)
(1.00001 -4.84271e-07 0)
(1.00001 -4.1171e-07 0)
(1.00001 -2.98546e-07 0)
(1.00001 -1.82992e-07 0)
(1.00001 -8.82031e-08 0)
(1.00001 -1.60138e-08 0)
(1.00001 4.02846e-08 0)
(1.00001 8.93319e-08 0)
(1.00001 1.36505e-07 0)
(1.00001 1.82678e-07 0)
(1.00001 2.221e-07 0)
(1.00001 2.43218e-07 0)
(1.00001 2.35796e-07 0)
(1.00001 1.97285e-07 0)
(1.00001 1.32033e-07 0)
(1 4.64858e-08 0)
(1 -5.37809e-08 0)
(1.00001 -1.64052e-07 0)
(1.00001 -2.77193e-07 0)
(1.00001 -3.87524e-07 0)
(1.00001 -4.90526e-07 0)
(1.00001 -5.82545e-07 0)
(1.00001 -6.60676e-07 0)
(1.00001 -7.21744e-07 0)
(1.00001 -7.6143e-07 0)
(1.00001 -7.76995e-07 0)
(1.00001 -7.70004e-07 0)
(1.00001 -7.43011e-07 0)
(1.00001 -6.92021e-07 0)
(1.00001 -6.08742e-07 0)
(1.00002 -4.7996e-07 0)
(1.00002 -3.05352e-07 0)
(1.00002 -8.96319e-08 0)
(1.00002 1.71905e-07 0)
(1.00002 4.68047e-07 0)
(1.00001 7.86289e-07 0)
(1.00001 1.11777e-06 0)
(1.00001 1.45055e-06 0)
(1.00001 1.76983e-06 0)
(1.00001 2.05943e-06 0)
(1 2.30169e-06 0)
(1 2.47846e-06 0)
(0.999997 2.57341e-06 0)
(0.999994 2.57489e-06 0)
(0.99999 2.47748e-06 0)
(0.999987 2.28202e-06 0)
(0.999984 1.99738e-06 0)
(0.999982 1.64281e-06 0)
(0.99998 1.24514e-06 0)
(0.999979 8.32239e-07 0)
(0.999978 4.29895e-07 0)
(0.999978 6.2226e-08 0)
(0.999978 -2.50102e-07 0)
(0.999979 -4.92232e-07 0)
(0.999979 -6.64316e-07 0)
(0.99998 -7.79085e-07 0)
(0.999981 -8.57823e-07 0)
(0.999983 -9.2561e-07 0)
(0.999984 -1.00091e-06 0)
(0.999985 -1.08143e-06 0)
(0.999987 -1.13967e-06 0)
(0.999988 -1.13716e-06 0)
(0.99999 -1.04969e-06 0)
(0.999991 -8.86421e-07 0)
(0.999992 -6.89259e-07 0)
(0.999993 -5.10683e-07 0)
(0.999994 -3.85737e-07 0)
(0.999994 -3.20131e-07 0)
(0.999994 -2.9926e-07 0)
(0.999995 -3.03209e-07 0)
(0.999995 -3.15342e-07 0)
(0.999996 -3.24721e-07 0)
(0.999996 -3.25965e-07 0)
(0.999997 -3.17892e-07 0)
(0.999997 -3.01745e-07 0)
(0.999997 -2.79776e-07 0)
(0.999998 -2.5437e-07 0)
(0.999998 -2.27589e-07 0)
(0.999998 -2.00998e-07 0)
(0.999999 -1.75666e-07 0)
(0.999999 -1.52239e-07 0)
(0.999999 -1.31042e-07 0)
(0.999999 -1.12173e-07 0)
(0.999999 -9.55827e-08 0)
(0.999999 -8.11318e-08 0)
(1 -6.86351e-08 0)
(1 -5.78887e-08 0)
(1 -4.8688e-08 0)
(1 -4.08385e-08 0)
(1 -3.41608e-08 0)
(1 -2.84939e-08 0)
(1 -2.36948e-08 0)
(1 -1.96385e-08 0)
(1 -1.6216e-08 0)
(1 -1.33336e-08 0)
(1 -1.09102e-08 0)
(1 -8.8766e-09 0)
(1 -7.17346e-09 0)
(1 -5.7501e-09 0)
(1 -4.56343e-09 0)
(1 -3.5767e-09 0)
(1 -2.75853e-09 0)
(1 -2.08215e-09 0)
(1 -1.52489e-09 0)
(1 -1.06905e-09 0)
(1 -6.99373e-10 0)
(1 -4.02968e-10 0)
(1 -1.66463e-10 0)
(1 2.2354e-11 0)
(1 1.72768e-10 0)
(1 2.91318e-10 0)
(1 3.83093e-10 0)
(1 4.52196e-10 0)
(1 5.02188e-10 0)
(1 5.36289e-10 0)
(1 5.57335e-10 0)
(1 5.67804e-10 0)
(1 5.6983e-10 0)
(1 5.65134e-10 0)
(1 5.55186e-10 0)
(1 5.41211e-10 0)
(1 5.24216e-10 0)
(1 5.05035e-10 0)
(1 4.84312e-10 0)
(1 4.62624e-10 0)
(1 4.40396e-10 0)
(1 4.17985e-10 0)
(1 3.95687e-10 0)
(1 3.73714e-10 0)
(1 3.52259e-10 0)
(1 3.31447e-10 0)
(1 3.11356e-10 0)
(1 2.92046e-10 0)
(1 2.73573e-10 0)
(1 2.55972e-10 0)
(1 2.39244e-10 0)
(1 2.23389e-10 0)
(1 2.08396e-10 0)
(1 1.94247e-10 0)
(1 1.80921e-10 0)
(1 1.68393e-10 0)
(1 1.56625e-10 0)
(1 1.45585e-10 0)
(1 1.35236e-10 0)
(1 1.25541e-10 0)
(1 1.16476e-10 0)
(1 1.08011e-10 0)
(1 1.00101e-10 0)
(1 9.27007e-11 0)
(1 8.57931e-11 0)
(1 7.93473e-11 0)
(1 7.33256e-11 0)
(1 6.77049e-11 0)
(1 6.24601e-11 0)
(1 5.75592e-11 0)
(1 5.29782e-11 0)
(1 4.86988e-11 0)
(1 4.46976e-11 0)
(1 4.09506e-11 0)
(1 3.74394e-11 0)
(1 3.41435e-11 0)
(1 3.10415e-11 0)
(1 2.81181e-11 0)
(1 2.5361e-11 0)
(1 2.27531e-11 0)
(1 2.02768e-11 0)
(1 1.79187e-11 0)
(1 1.56651e-11 0)
(1 1.35131e-11 0)
(1 1.13972e-11 0)
(1 9.60553e-12 0)
(1 6.73608e-12 0)
(1 -3.4426e-09 0)
(1 -1.16337e-08 0)
(1 -2.13783e-08 0)
(1 -3.51686e-08 0)
(1 -5.50364e-08 0)
(1 -8.01635e-08 0)
(1 -1.07698e-07 0)
(1 -1.34789e-07 0)
(1 -1.60085e-07 0)
(1 -1.83801e-07 0)
(1 -2.06888e-07 0)
(1 -2.30109e-07 0)
(1 -2.53457e-07 0)
(1 -2.75856e-07 0)
(1 -2.94998e-07 0)
(1 -3.07247e-07 0)
(1 -3.07692e-07 0)
(1 -2.90703e-07 0)
(1 -2.51445e-07 0)
(1 -1.88706e-07 0)
(1 -1.09164e-07 0)
(1 -3.25158e-08 0)
(1 6.53272e-09 0)
(1 -3.11168e-08 0)
(1 -1.63394e-07 0)
(1 -3.63841e-07 0)
(1 -5.6332e-07 0)
(1 -6.84446e-07 0)
(1.00001 -6.85565e-07 0)
(1.00001 -5.79642e-07 0)
(1.00001 -4.17177e-07 0)
(1.00001 -2.52584e-07 0)
(1.00001 -1.17516e-07 0)
(1.00001 -1.66809e-08 0)
(1.00001 6.13726e-08 0)
(1.00001 1.29393e-07 0)
(1.00001 1.95413e-07 0)
(1.00001 2.60706e-07 0)
(1.00001 3.16433e-07 0)
(1.00001 3.45315e-07 0)
(1.00001 3.32656e-07 0)
(1.00001 2.75693e-07 0)
(1.00001 1.8163e-07 0)
(1 6.00904e-08 0)
(1 -8.08207e-08 0)
(1.00001 -2.33623e-07 0)
(1.00001 -3.90387e-07 0)
(1.00001 -5.44141e-07 0)
(1.00001 -6.88351e-07 0)
(1.00001 -8.1748e-07 0)
(1.00001 -9.26947e-07 0)
(1.00001 -1.01261e-06 0)
(1.00001 -1.07078e-06 0)
(1.00001 -1.09753e-06 0)
(1.00001 -1.08692e-06 0)
(1.00001 -1.03128e-06 0)
(1.00001 -9.24205e-07 0)
(1.00001 -7.63915e-07 0)
(1.00002 -5.48623e-07 0)
(1.00002 -2.79731e-07 0)
(1.00002 4.60261e-08 0)
(1.00002 4.08682e-07 0)
(1.00002 8.10541e-07 0)
(1.00001 1.24443e-06 0)
(1.00001 1.69437e-06 0)
(1.00001 2.14139e-06 0)
(1.00001 2.5642e-06 0)
(1.00001 2.9393e-06 0)
(1 3.24194e-06 0)
(1 3.4483e-06 0)
(0.999997 3.53814e-06 0)
(0.999994 3.49761e-06 0)
(0.99999 3.32231e-06 0)
(0.999987 3.02077e-06 0)
(0.999984 2.61562e-06 0)
(0.999982 2.13724e-06 0)
(0.99998 1.61398e-06 0)
(0.999979 1.07051e-06 0)
(0.999978 5.34274e-07 0)
(0.999978 3.88396e-08 0)
(0.999978 -3.82629e-07 0)
(0.999979 -7.09776e-07 0)
(0.999979 -9.42791e-07 0)
(0.99998 -1.098e-06 0)
(0.999981 -1.20407e-06 0)
(0.999983 -1.29645e-06 0)
(0.999984 -1.402e-06 0)
(0.999985 -1.51763e-06 0)
(0.999987 -1.60309e-06 0)
(0.999988 -1.60187e-06 0)
(0.99999 -1.47811e-06 0)
(0.999991 -1.24481e-06 0)
(0.999992 -9.62991e-07 0)
(0.999993 -7.09047e-07 0)
(0.999994 -5.33291e-07 0)
(0.999994 -4.42887e-07 0)
(0.999994 -4.15878e-07 0)
(0.999995 -4.23381e-07 0)
(0.999995 -4.41719e-07 0)
(0.999996 -4.55544e-07 0)
(0.999996 -4.57469e-07 0)
(0.999997 -4.46044e-07 0)
(0.999997 -4.23177e-07 0)
(0.999997 -3.92133e-07 0)
(0.999998 -3.5631e-07 0)
(0.999998 -3.18618e-07 0)
(0.999998 -2.81253e-07 0)
(0.999999 -2.45703e-07 0)
(0.999999 -2.12861e-07 0)
(0.999999 -1.83171e-07 0)
(0.999999 -1.56759e-07 0)
(0.999999 -1.33548e-07 0)
(0.999999 -1.13339e-07 0)
(1 -9.58688e-08 0)
(1 -8.0849e-08 0)
(1 -6.79921e-08 0)
(1 -5.70249e-08 0)
(1 -4.76964e-08 0)
(1 -3.97805e-08 0)
(1 -3.30776e-08 0)
(1 -2.74126e-08 0)
(1 -2.26332e-08 0)
(1 -1.86082e-08 0)
(1 -1.52244e-08 0)
(1 -1.2385e-08 0)
(1 -1.00072e-08 0)
(1 -8.02021e-09 0)
(1 -6.36358e-09 0)
(1 -4.98595e-09 0)
(1 -3.84358e-09 0)
(1 -2.89948e-09 0)
(1 -2.12228e-09 0)
(1 -1.48576e-09 0)
(1 -9.66996e-10 0)
(1 -5.46659e-10 0)
(1 -2.07744e-10 0)
(1 6.24528e-11 0)
(1 2.74974e-10 0)
(1 4.39276e-10 0)
(1 5.63576e-10 0)
(1 6.54976e-10 0)
(1 7.19521e-10 0)
(1 7.62316e-10 0)
(1 7.87571e-10 0)
(1 7.98756e-10 0)
(1 7.98768e-10 0)
(1 7.89946e-10 0)
(1 7.74251e-10 0)
(1 7.5333e-10 0)
(1 7.28511e-10 0)
(1 7.00901e-10 0)
(1 6.71363e-10 0)
(1 6.40649e-10 0)
(1 6.09336e-10 0)
(1 5.77882e-10 0)
(1 5.46686e-10 0)
(1 5.16031e-10 0)
(1 4.86151e-10 0)
(1 4.57207e-10 0)
(1 4.29307e-10 0)
(1 4.02531e-10 0)
(1 3.76942e-10 0)
(1 3.5258e-10 0)
(1 3.29447e-10 0)
(1 3.07535e-10 0)
(1 2.86828e-10 0)
(1 2.67299e-10 0)
(1 2.48916e-10 0)
(1 2.31638e-10 0)
(1 2.15412e-10 0)
(1 2.00188e-10 0)
(1 1.85926e-10 0)
(1 1.72576e-10 0)
(1 1.60094e-10 0)
(1 1.48436e-10 0)
(1 1.37544e-10 0)
(1 1.2736e-10 0)
(1 1.17852e-10 0)
(1 1.08979e-10 0)
(1 1.00693e-10 0)
(1 9.29562e-11 0)
(1 8.57353e-11 0)
(1 7.89901e-11 0)
(1 7.2686e-11 0)
(1 6.67951e-11 0)
(1 6.12872e-11 0)
(1 5.61292e-11 0)
(1 5.12927e-11 0)
(1 4.67508e-11 0)
(1 4.24768e-11 0)
(1 3.84482e-11 0)
(1 3.46454e-11 0)
(1 3.1046e-11 0)
(1 2.76264e-11 0)
(1 2.43685e-11 0)
(1 2.12536e-11 0)
(1 1.82742e-11 0)
(1 1.53533e-11 0)
(1 1.28199e-11 0)
(1 8.83368e-12 0)
(1 -4.40606e-09 0)
(1 -1.48998e-08 0)
(1 -2.7389e-08 0)
(1 -4.50684e-08 0)
(1 -7.05435e-08 0)
(1 -1.02766e-07 0)
(1 -1.38082e-07 0)
(1 -1.72846e-07 0)
(1 -2.05335e-07 0)
(1 -2.35843e-07 0)
(1 -2.65605e-07 0)
(1 -2.95629e-07 0)
(1 -3.25937e-07 0)
(1 -3.5517e-07 0)
(1 -3.80362e-07 0)
(1 -3.96805e-07 0)
(1 -3.98137e-07 0)
(1 -3.76991e-07 0)
(1 -3.26796e-07 0)
(1 -2.45266e-07 0)
(1 -1.40101e-07 0)
(1 -3.66241e-08 0)
(1 1.88461e-08 0)
(1 -2.71943e-08 0)
(1 -2.0085e-07 0)
(1 -4.67728e-07 0)
(1 -7.34464e-07 0)
(1 -8.96012e-07 0)
(1.00001 -8.964e-07 0)
(1.00001 -7.54268e-07 0)
(1.00001 -5.38532e-07 0)
(1.00001 -3.22162e-07 0)
(1.00001 -1.4725e-07 0)
(1.00001 -1.87026e-08 0)
(1.00001 8.0076e-08 0)
(1.00001 1.66614e-07 0)
(1.00001 2.51592e-07 0)
(1.00001 3.36859e-07 0)
(1.00001 4.10712e-07 0)
(1.00001 4.49736e-07 0)
(1.00001 4.34086e-07 0)
(1.00001 3.60355e-07 0)
(1.00001 2.38453e-07 0)
(1 8.11382e-08 0)
(1 -1.01051e-07 0)
(1.00001 -2.9865e-07 0)
(1.00001 -5.01721e-07 0)
(1.00001 -7.00767e-07 0)
(1.00001 -8.87202e-07 0)
(1.00001 -1.05397e-06 0)
(1.00001 -1.19545e-06 0)
(1.00001 -1.30655e-06 0)
(1.00001 -1.38182e-06 0)
(1.00001 -1.41512e-06 0)
(1.00001 -1.40045e-06 0)
(1.00001 -1.33239e-06 0)
(1.00001 -1.20594e-06 0)
(1.00001 -1.01521e-06 0)
(1.00002 -7.53237e-07 0)
(1.00002 -4.18651e-07 0)
(1.00002 -1.47223e-08 0)
(1.00002 4.54605e-07 0)
(1.00002 9.79539e-07 0)
(1.00001 1.54449e-06 0)
(1.00001 2.12996e-06 0)
(1.00001 2.71319e-06 0)
(1.00001 3.26729e-06 0)
(1.00001 3.76213e-06 0)
(1 4.16592e-06 0)
(1 4.44755e-06 0)
(0.999997 4.5798e-06 0)
(0.999993 4.54347e-06 0)
(0.99999 4.3323e-06 0)
(0.999987 3.95663e-06 0)
(0.999984 3.44245e-06 0)
(0.999982 2.82446e-06 0)
(0.99998 2.13844e-06 0)
(0.999979 1.42026e-06 0)
(0.999978 7.10992e-07 0)
(0.999978 5.82793e-08 0)
(0.999978 -4.93746e-07 0)
(0.999978 -9.19627e-07 0)
(0.999979 -1.22005e-06 0)
(0.99998 -1.41717e-06 0)
(0.999981 -1.54957e-06 0)
(0.999983 -1.66542e-06 0)
(0.999984 -1.80213e-06 0)
(0.999985 -1.95637e-06 0)
(0.999987 -2.07358e-06 0)
(0.999988 -2.0764e-06 0)
(0.99999 -1.91529e-06 0)
(0.999991 -1.60717e-06 0)
(0.999992 -1.2347e-06 0)
(0.999993 -9.01269e-07 0)
(0.999994 -6.73818e-07 0)
(0.999994 -5.60086e-07 0)
(0.999994 -5.29196e-07 0)
(0.999995 -5.42283e-07 0)
(0.999995 -5.6823e-07 0)
(0.999996 -5.87232e-07 0)
(0.999996 -5.90047e-07 0)
(0.999997 -5.75163e-07 0)
(0.999997 -5.45325e-07 0)
(0.999997 -5.04921e-07 0)
(0.999998 -4.58429e-07 0)
(0.999998 -4.09632e-07 0)
(0.999998 -3.61358e-07 0)
(0.999999 -3.15507e-07 0)
(0.999999 -2.73208e-07 0)
(0.999999 -2.35009e-07 0)
(0.999999 -2.01059e-07 0)
(0.999999 -1.71245e-07 0)
(0.999999 -1.45301e-07 0)
(1 -1.22882e-07 0)
(1 -1.03615e-07 0)
(1 -8.71261e-08 0)
(1 -7.30642e-08 0)
(1 -6.11052e-08 0)
(1 -5.09587e-08 0)
(1 -4.23678e-08 0)
(1 -3.51077e-08 0)
(1 -2.89831e-08 0)
(1 -2.38255e-08 0)
(1 -1.94899e-08 0)
(1 -1.58521e-08 0)
(1 -1.28058e-08 0)
(1 -1.02603e-08 0)
(1 -8.13827e-09 0)
(1 -6.37382e-09 0)
(1 -4.91098e-09 0)
(1 -3.7022e-09 0)
(1 -2.70718e-09 0)
(1 -1.89212e-09 0)
(1 -1.22822e-09 0)
(1 -6.91043e-10 0)
(1 -2.59486e-10 0)
(1 8.36908e-11 0)
(1 3.53559e-10 0)
(1 5.62677e-10 0)
(1 7.21548e-10 0)
(1 8.39041e-10 0)
(1 9.2257e-10 0)
(1 9.78376e-10 0)
(1 1.01167e-09 0)
(1 1.02679e-09 0)
(1 1.02742e-09 0)
(1 1.01657e-09 0)
(1 9.96789e-10 0)
(1 9.70195e-10 0)
(1 9.38504e-10 0)
(1 9.03155e-10 0)
(1 8.6528e-10 0)
(1 8.25844e-10 0)
(1 7.85604e-10 0)
(1 7.45157e-10 0)
(1 7.05018e-10 0)
(1 6.65564e-10 0)
(1 6.27088e-10 0)
(1 5.89799e-10 0)
(1 5.53848e-10 0)
(1 5.19342e-10 0)
(1 4.86361e-10 0)
(1 4.54954e-10 0)
(1 4.25127e-10 0)
(1 3.9687e-10 0)
(1 3.70165e-10 0)
(1 3.44977e-10 0)
(1 3.21263e-10 0)
(1 2.98973e-10 0)
(1 2.78037e-10 0)
(1 2.58395e-10 0)
(1 2.39993e-10 0)
(1 2.22772e-10 0)
(1 2.06668e-10 0)
(1 1.91622e-10 0)
(1 1.77564e-10 0)
(1 1.64423e-10 0)
(1 1.52152e-10 0)
(1 1.407e-10 0)
(1 1.30008e-10 0)
(1 1.20023e-10 0)
(1 1.10704e-10 0)
(1 1.01999e-10 0)
(1 9.38659e-11 0)
(1 8.62647e-11 0)
(1 7.91574e-11 0)
(1 7.25025e-11 0)
(1 6.62615e-11 0)
(1 6.04004e-11 0)
(1 5.48871e-11 0)
(1 4.96916e-11 0)
(1 4.47869e-11 0)
(1 4.01442e-11 0)
(1 3.57345e-11 0)
(1 3.15341e-11 0)
(1 2.75192e-11 0)
(1 2.36796e-11 0)
(1 1.99145e-11 0)
(1 1.66369e-11 0)
(1 1.15226e-11 0)
(1 -5.35447e-09 0)
(1 -1.81227e-08 0)
(1 -3.33269e-08 0)
(1 -5.48572e-08 0)
(1 -8.58873e-08 0)
(1 -1.25141e-07 0)
(1 -1.68175e-07 0)
(1 -2.1056e-07 0)
(1 -2.50215e-07 0)
(1 -2.87523e-07 0)
(1 -3.24019e-07 0)
(1 -3.60967e-07 0)
(1 -3.98437e-07 0)
(1 -4.34815e-07 0)
(1 -4.6652e-07 0)
(1 -4.87797e-07 0)
(1 -4.90728e-07 0)
(1 -4.65912e-07 0)
(1 -4.04594e-07 0)
(1 -3.02961e-07 0)
(1 -1.69444e-07 0)
(1 -3.51926e-08 0)
(1 4.0461e-08 0)
(1 -1.29111e-08 0)
(1 -2.31607e-07 0)
(1 -5.72757e-07 0)
(1 -9.15008e-07 0)
(1 -1.12107e-06 0)
(1.00001 -1.11887e-06 0)
(1.00001 -9.34689e-07 0)
(1.00001 -6.59484e-07 0)
(1.00001 -3.87677e-07 0)
(1.00001 -1.72362e-07 0)
(1.00001 -1.73528e-08 0)
(1.00001 1.00596e-07 0)
(1.00001 2.04587e-07 0)
(1.00001 3.08217e-07 0)
(1.00001 4.14331e-07 0)
(1.00001 5.08113e-07 0)
(1.00001 5.58768e-07 0)
(1.00001 5.40303e-07 0)
(1.00001 4.48829e-07 0)
(1.00001 2.97757e-07 0)
(1 1.03516e-07 0)
(1 -1.20888e-07 0)
(1 -3.64048e-07 0)
(1.00001 -6.13946e-07 0)
(1.00001 -8.58734e-07 0)
(1.00001 -1.08786e-06 0)
(1.00001 -1.29278e-06 0)
(1.00001 -1.4667e-06 0)
(1.00001 -1.60339e-06 0)
(1.00001 -1.69635e-06 0)
(1.00001 -1.73875e-06 0)
(1.00001 -1.72326e-06 0)
(1.00001 -1.64191e-06 0)
(1.00001 -1.4862e-06 0)
(1.00002 -1.24864e-06 0)
(1.00002 -9.23763e-07 0)
(1.00002 -5.10762e-07 0)
(1.00002 -1.2013e-08 0)
(1.00002 5.65179e-07 0)
(1.00002 1.20861e-06 0)
(1.00001 1.90132e-06 0)
(1.00001 2.62024e-06 0)
(1.00001 3.33693e-06 0)
(1.00001 4.01809e-06 0)
(1.00001 4.62652e-06 0)
(1 5.12284e-06 0)
(1 5.46831e-06 0)
(0.999997 5.62896e-06 0)
(0.999993 5.58085e-06 0)
(0.99999 5.31606e-06 0)
(0.999987 4.84726e-06 0)
(0.999984 4.20747e-06 0)
(0.999982 3.44194e-06 0)
(0.99998 2.59658e-06 0)
(0.999978 1.71463e-06 0)
(0.999978 8.44576e-07 0)
(0.999977 4.44696e-08 0)
(0.999978 -6.30536e-07 0)
(0.999978 -1.14866e-06 0)
(0.999979 -1.51069e-06 0)
(0.99998 -1.74429e-06 0)
(0.999981 -1.89802e-06 0)
(0.999983 -2.03405e-06 0)
(0.999984 -2.20222e-06 0)
(0.999985 -2.39934e-06 0)
(0.999987 -2.55411e-06 0)
(0.999988 -2.56448e-06 0)
(0.99999 -2.36436e-06 0)
(0.999992 -1.97478e-06 0)
(0.999993 -1.50346e-06 0)
(0.999993 -1.0851e-06 0)
(0.999994 -8.05018e-07 0)
(0.999994 -6.7015e-07 0)
(0.999994 -6.38492e-07 0)
(0.999995 -6.59848e-07 0)
(0.999995 -6.95188e-07 0)
(0.999996 -7.20242e-07 0)
(0.999996 -7.24143e-07 0)
(0.999997 -7.05601e-07 0)
(0.999997 -6.68428e-07 0)
(0.999997 -6.18277e-07 0)
(0.999998 -5.60779e-07 0)
(0.999998 -5.00621e-07 0)
(0.999998 -4.41264e-07 0)
(0.999999 -3.85006e-07 0)
(0.999999 -3.33195e-07 0)
(0.999999 -2.86472e-07 0)
(0.999999 -2.44991e-07 0)
(0.999999 -2.08595e-07 0)
(0.999999 -1.76946e-07 0)
(1 -1.49612e-07 0)
(1 -1.2613e-07 0)
(1 -1.06041e-07 0)
(1 -8.89132e-08 0)
(1 -7.43498e-08 0)
(1 -6.19956e-08 0)
(1 -5.15369e-08 0)
(1 -4.26994e-08 0)
(1 -3.52449e-08 0)
(1 -2.89679e-08 0)
(1 -2.36919e-08 0)
(1 -1.92653e-08 0)
(1 -1.55589e-08 0)
(1 -1.24621e-08 0)
(1 -9.88066e-09 0)
(1 -7.73449e-09 0)
(1 -5.95533e-09 0)
(1 -4.48534e-09 0)
(1 -3.27556e-09 0)
(1 -2.28473e-09 0)
(1 -1.47775e-09 0)
(1 -8.24712e-10 0)
(1 -3.00167e-10 0)
(1 1.17104e-10 0)
(1 4.45163e-10 0)
(1 6.99154e-10 0)
(1 8.91836e-10 0)
(1 1.034e-09 0)
(1 1.13469e-09 0)
(1 1.20157e-09 0)
(1 1.24107e-09 0)
(1 1.25851e-09 0)
(1 1.25837e-09 0)
(1 1.24437e-09 0)
(1 1.21958e-09 0)
(1 1.18658e-09 0)
(1 1.14744e-09 0)
(1 1.1039e-09 0)
(1 1.05736e-09 0)
(1 1.00895e-09 0)
(1 9.59612e-10 0)
(1 9.10064e-10 0)
(1 8.60923e-10 0)
(1 8.12649e-10 0)
(1 7.65586e-10 0)
(1 7.19986e-10 0)
(1 6.76037e-10 0)
(1 6.33871e-10 0)
(1 5.93576e-10 0)
(1 5.55211e-10 0)
(1 5.18781e-10 0)
(1 4.84273e-10 0)
(1 4.51666e-10 0)
(1 4.20916e-10 0)
(1 3.91967e-10 0)
(1 3.64757e-10 0)
(1 3.39203e-10 0)
(1 3.15229e-10 0)
(1 2.92771e-10 0)
(1 2.71759e-10 0)
(1 2.5211e-10 0)
(1 2.33747e-10 0)
(1 2.16591e-10 0)
(1 2.00559e-10 0)
(1 1.85588e-10 0)
(1 1.71616e-10 0)
(1 1.58572e-10 0)
(1 1.46391e-10 0)
(1 1.3502e-10 0)
(1 1.24402e-10 0)
(1 1.1448e-10 0)
(1 1.05208e-10 0)
(1 9.65377e-11 0)
(1 8.84192e-11 0)
(1 8.08051e-11 0)
(1 7.36547e-11 0)
(1 6.69293e-11 0)
(1 6.05919e-11 0)
(1 5.46083e-11 0)
(1 4.89434e-11 0)
(1 4.35632e-11 0)
(1 3.84388e-11 0)
(1 3.35407e-11 0)
(1 2.88558e-11 0)
(1 2.42604e-11 0)
(1 2.02552e-11 0)
(1 1.40186e-11 0)
(1 -6.28455e-09 0)
(1 -2.1293e-08 0)
(1 -3.91761e-08 0)
(1 -6.45105e-08 0)
(1 -1.01032e-07 0)
(1 -1.4724e-07 0)
(1 -1.97912e-07 0)
(1 -2.47852e-07 0)
(1 -2.94637e-07 0)
(1 -3.38754e-07 0)
(1 -3.8205e-07 0)
(1 -4.26066e-07 0)
(1 -4.70949e-07 0)
(1 -5.14867e-07 0)
(1 -5.53644e-07 0)
(1 -5.80458e-07 0)
(1 -5.85756e-07 0)
(1 -5.5793e-07 0)
(1 -4.85718e-07 0)
(1 -3.63146e-07 0)
(1 -1.98568e-07 0)
(1 -2.86732e-08 0)
(1 7.26033e-08 0)
(1 1.44075e-08 0)
(1 -2.52961e-07 0)
(1 -6.77921e-07 0)
(1 -1.10631e-06 0)
(1 -1.36253e-06 0)
(1.00001 -1.35602e-06 0)
(1.00001 -1.12311e-06 0)
(1.00001 -7.81215e-07 0)
(1.00001 -4.49597e-07 0)
(1.00001 -1.93158e-07 0)
(1.00001 -1.31679e-08 0)
(1.00001 1.22297e-07 0)
(1.00001 2.42757e-07 0)
(1.00001 3.65021e-07 0)
(1.00001 4.93376e-07 0)
(1.00001 6.09542e-07 0)
(1.00001 6.73807e-07 0)
(1.00001 6.52888e-07 0)
(1.00001 5.42708e-07 0)
(1 3.61139e-07 0)
(1 1.2881e-07 0)
(1 -1.38869e-07 0)
(1 -4.28701e-07 0)
(1.00001 -7.26523e-07 0)
(1.00001 -1.01804e-06 0)
(1.00001 -1.29065e-06 0)
(1.00001 -1.53436e-06 4.38996e-40)
(1.00001 -1.74127e-06 4.68373e-40)
(1.00001 -1.90423e-06 0)
(1.00001 -2.01572e-06 0)
(1.00001 -2.06759e-06 0)
(1.00001 -2.05085e-06 0)
(1.00001 -1.95585e-06 0)
(1.00001 -1.77294e-06 0)
(1.00002 -1.49365e-06 0)
(1.00002 -1.11144e-06 0)
(1.00002 -6.24111e-07 0)
(1.00002 -3.42394e-08 0)
(1.00002 6.49811e-07 0)
(1.00002 1.41383e-06 0)
(1.00002 2.23741e-06 0)
(1.00001 3.0931e-06 0)
(1.00001 3.9472e-06 0)
(1.00001 4.7602e-06 0)
(1.00001 5.48778e-06 0)
(1 6.08282e-06 0)
(1 6.49868e-06 0)
(0.999997 6.69411e-06 0)
(0.999993 6.63966e-06 0)
(0.99999 6.32505e-06 0)
(0.999987 5.76562e-06 0)
(0.999984 5.0022e-06 0)
(0.999981 4.0899e-06 0)
(0.999979 3.08257e-06 0)
(0.999978 2.02968e-06 0)
(0.999977 9.88666e-07 0)
(0.999977 3.12638e-08 0)
(0.999977 -7.7362e-07 0)
(0.999978 -1.38689e-06 0)
(0.999979 -1.81e-06 0)
(0.99998 -2.077e-06 0)
(0.999981 -2.24759e-06 0)
(0.999983 -2.40041e-06 0)
(0.999984 -2.60086e-06 0)
(0.999985 -2.8467e-06 0)
(0.999987 -3.04689e-06 0)
(0.999989 -3.06965e-06 0)
(0.99999 -2.82859e-06 0)
(0.999992 -2.349e-06 0)
(0.999993 -1.76827e-06 0)
(0.999993 -1.25808e-06 0)
(0.999994 -9.24334e-07 0)
(0.999994 -7.71259e-07 0)
(0.999994 -7.42816e-07 0)
(0.999995 -7.7581e-07 0)
(0.999995 -8.22748e-07 0)
(0.999996 -8.54912e-07 0)
(0.999996 -8.60114e-07 0)
(0.999997 -8.37655e-07 0)
(0.999997 -7.92687e-07 0)
(0.999997 -7.32308e-07 0)
(0.999998 -6.63392e-07 0)
(0.999998 -5.91563e-07 0)
(0.999998 -5.20912e-07 0)
(0.999999 -4.5412e-07 0)
(0.999999 -3.92735e-07 0)
(0.999999 -3.3747e-07 0)
(0.999999 -2.8847e-07 0)
(0.999999 -2.45521e-07 0)
(0.999999 -2.08204e-07 0)
(1 -1.75995e-07 0)
(1 -1.48339e-07 0)
(1 -1.24689e-07 0)
(1 -1.04531e-07 0)
(1 -8.73948e-08 0)
(1 -7.28613e-08 0)
(1 -6.05597e-08 0)
(1 -5.01662e-08 0)
(1 -4.14004e-08 0)
(1 -3.402e-08 0)
(1 -2.78171e-08 0)
(1 -2.26134e-08 0)
(1 -1.82568e-08 0)
(1 -1.46171e-08 0)
(1 -1.15836e-08 0)
(1 -9.06184e-09 0)
(1 -6.97163e-09 0)
(1 -5.24493e-09 0)
(1 -3.82419e-09 0)
(1 -2.66074e-09 0)
(1 -1.71333e-09 0)
(1 -9.46884e-10 0)
(1 -3.31606e-10 0)
(1 1.57563e-10 0)
(1 5.41837e-10 0)
(1 8.39087e-10 0)
(1 1.06436e-09 0)
(1 1.23034e-09 0)
(1 1.3477e-09 0)
(1 1.42542e-09 0)
(1 1.47103e-09 0)
(1 1.49079e-09 0)
(1 1.48992e-09 0)
(1 1.4728e-09 0)
(1 1.44304e-09 0)
(1 1.40364e-09 0)
(1 1.35706e-09 0)
(1 1.30535e-09 0)
(1 1.25013e-09 0)
(1 1.19274e-09 0)
(1 1.13429e-09 0)
(1 1.07562e-09 0)
(1 1.01746e-09 0)
(1 9.60333e-10 0)
(1 9.04656e-10 0)
(1 8.50718e-10 0)
(1 7.98744e-10 0)
(1 7.4889e-10 0)
(1 7.01257e-10 0)
(1 6.55906e-10 0)
(1 6.12848e-10 0)
(1 5.72065e-10 0)
(1 5.33532e-10 0)
(1 4.97198e-10 0)
(1 4.62993e-10 0)
(1 4.30841e-10 0)
(1 4.00647e-10 0)
(1 3.72324e-10 0)
(1 3.45794e-10 0)
(1 3.20974e-10 0)
(1 2.97764e-10 0)
(1 2.7607e-10 0)
(1 2.55803e-10 0)
(1 2.36867e-10 0)
(1 2.19184e-10 0)
(1 2.02681e-10 0)
(1 1.87274e-10 0)