/*--------------------------------*- C++ -*----------------------------------*\
| =========                 |                                                 |
| \\      /  F ield         | OpenFOAM: The Open Source CFD Toolbox           |
|  \\    /   O peration     | Version:  v2006                                 |
|   \\  /    A nd           | Website:  www.openfoam.com                      |
|    \\/     M anipulation  |                                                 |
\*---------------------------------------------------------------------------*/
FoamFile
{
    version     2.0;
    format      ascii;
    class       surfaceScalarField;
    location    "5.9";
    object      phi;
}
// * * * * * * * * * * * * * * * * * * * * * * * * * * * * * * * * * * * * * //

dimensions      [0 3 -1 0 0 0 0];
oriented        oriented;


internalField   nonuniform List<scalar> 
99450
(
-2.5389e-05
2.5389e-05
-3.54612e-05
1.00721e-05
-4.95055e-05
1.40444e-05
-6.53731e-05
1.58676e-05
-8.14649e-05
1.60917e-05
-9.73823e-05
1.59174e-05
-0.000113027
1.56452e-05
-0.000128431
1.54037e-05
-0.000143587
1.51554e-05
-0.000158434
1.48472e-05
-0.000172918
1.44842e-05
-0.000187014
1.40964e-05
-0.000200706
1.36914e-05
-0.000213937
1.32317e-05
-0.00022668
1.27425e-05
-0.000238925
1.22455e-05
-0.00025064
1.1715e-05
-0.000261812
1.11713e-05
-0.00027242
1.06085e-05
-0.00028244
1.00201e-05
-0.000291846
9.40599e-06
-0.000300674
8.82738e-06
-0.000308865
8.19162e-06
-0.000316408
7.54245e-06
-0.000323259
6.85123e-06
-0.00032943
6.17071e-06
-0.00033489
5.46045e-06
-0.000339634
4.74364e-06
-0.000343637
4.00304e-06
-0.000346875
3.23858e-06
-0.000349333
2.45735e-06
-0.000351048
1.7152e-06
-0.000351948
8.99684e-07
-0.000352014
6.64231e-08
-0.000351227
-7.86698e-07
-0.000349572
-1.65498e-06
-0.000347026
-2.54691e-06
-0.000343553
-3.47293e-06
-0.000339219
-4.33373e-06
-0.000333934
-5.28458e-06
-0.000327733
-6.20097e-06
-0.000320651
-7.08197e-06
-0.000312698
-7.95291e-06
-0.00030398
-8.71847e-06
-0.000294558
-9.42233e-06
-0.000284539
-1.00183e-05
-0.000273792
-1.07475e-05
-0.000262189
-1.16027e-05
-0.000249529
-1.26605e-05
-0.000235711
-1.38176e-05
-0.000220534
-1.51772e-05
-0.000204047
-1.64868e-05
-0.000186349
-1.7698e-05
-0.000167556
-1.87929e-05
-0.000147696
-1.98599e-05
-0.000126974
-2.07224e-05
-0.000105342
-2.16321e-05
-8.28573e-05
-2.24846e-05
-5.95598e-05
-2.32975e-05
-3.55214e-05
-2.40384e-05
-1.07612e-05
-2.47602e-05
1.46666e-05
-2.54278e-05
4.073e-05
-2.60634e-05
6.73605e-05
-2.66305e-05
9.45094e-05
-2.71489e-05
0.000122125
-2.76159e-05
0.000150154
-2.8029e-05
0.00017854
-2.83857e-05
0.000207225
-2.86855e-05
0.000236154
-2.89281e-05
0.000265264
-2.91105e-05
0.000294499
-2.92346e-05
0.0003238
-2.9301e-05
0.000353104
-2.93039e-05
0.000382356
-2.92526e-05
0.000411487
-2.91312e-05
0.000440431
-2.89438e-05
0.000469109
-2.86779e-05
0.000497438
-2.83286e-05
0.000525329
-2.78915e-05
0.00055269
-2.73606e-05
0.00057942
-2.67307e-05
0.000605428
-2.60074e-05
0.000630622
-2.51945e-05
0.000654915
-2.42924e-05
0.00067822
-2.33056e-05
0.000700453
-2.22331e-05
0.000721531
-2.10775e-05
0.00074137
-1.98392e-05
0.000759888
-1.85177e-05
0.000777006
-1.71182e-05
0.00079264
-1.56344e-05
0.000806716
-1.40758e-05
0.000819153
-1.24374e-05
0.000829881
-1.07276e-05
0.00083882
-8.93903e-06
0.000845886
-7.06606e-06
0.000851
-5.11337e-06
0.00085412
-3.1203e-06
0.00085532
-1.2e-06
0.000854861
4.58994e-07
0.00085307
1.79086e-06
0.000850274
2.79591e-06
0.000846705
3.56957e-06
0.000842468
4.23617e-06
0.000837589
4.87887e-06
0.000832049
5.54017e-06
0.000825837
6.21189e-06
0.000818958
6.87984e-06
0.000811412
7.54576e-06
0.000803232
8.17972e-06
0.000794434
8.79789e-06
0.000785051
9.38354e-06
0.000775123
9.92808e-06
0.000764687
1.04352e-05
0.000753782
1.09058e-05
0.000742428
1.13532e-05
0.000730633
1.17951e-05
0.000718381
1.22525e-05
0.000705631
1.27494e-05
0.000692332
1.32994e-05
0.000678415
1.39173e-05
0.000663815
1.45995e-05
0.000648488
1.53278e-05
0.000632395
1.60922e-05
0.000615508
1.68877e-05
0.000597803
1.77046e-05
0.00057926
1.85428e-05
0.00055987
1.93901e-05
0.000539637
2.02335e-05
0.000518569
2.10677e-05
0.000496672
2.1897e-05
0.000473966
2.2706e-05
0.000450475
2.34907e-05
0.000426221
2.42538e-05
0.000401226
2.49953e-05
0.000375516
2.57103e-05
0.000349136
2.63793e-05
0.000322096
2.70403e-05
0.000294538
2.75578e-05
0.000266343
2.81953e-05
0.000237887
2.84562e-05
0.000208939
2.89476e-05
0.000179881
2.90587e-05
0.000150529
2.93516e-05
0.00012123
2.92986e-05
9.22996e-05
2.89308e-05
6.42373e-05
2.80623e-05
3.47685e-05
2.94687e-05
3.47685e-05
-3.11653e-05
5.65543e-05
-5.32273e-05
3.21342e-05
-7.75621e-05
3.83792e-05
-0.000103611
4.19164e-05
-0.000130095
4.25756e-05
-0.000155691
4.15135e-05
-0.000181022
4.09761e-05
-0.000205781
4.01631e-05
-0.000230012
3.93857e-05
-0.000253691
3.85269e-05
-0.000276743
3.75356e-05
-0.000299106
3.64597e-05
-0.000320712
3.52972e-05
-0.000341522
3.40417e-05
-0.00036149
3.27103e-05
-0.000380528
3.12839e-05
-0.000398645
2.98325e-05
-0.000415753
2.82792e-05
-0.000431812
2.66672e-05
-0.000446796
2.50046e-05
-0.000460673
2.32825e-05
-0.000473356
2.15105e-05
-0.00048487
1.97056e-05
-0.000495158
1.783e-05
-0.000504259
1.59528e-05
-0.000512117
1.4029e-05
-0.000518712
1.20549e-05
-0.00052401
1.00421e-05
-0.00052802
8.01298e-06
-0.000530763
5.98076e-06
-0.000532187
3.88171e-06
-0.000532252
1.78041e-06
-0.000530997
-3.55849e-07
-0.000528418
-2.51176e-06
-0.0005246
-4.60558e-06
-0.000519464
-6.79079e-06
-0.000513046
-8.9648e-06
-0.000505349
-1.117e-05
-0.000496332
-1.33504e-05
-0.000486091
-1.55255e-05
-0.000474566
-1.77261e-05
-0.000461731
-1.99171e-05
-0.000447651
-2.20327e-05
-0.000432155
-2.42148e-05
-0.000415284
-2.62928e-05
-0.000396965
-2.83375e-05
-0.000377379
-3.03331e-05
-0.000356704
-3.22776e-05
-0.000335198
-3.41673e-05
-0.000312952
-3.60634e-05
-0.000290271
-3.78575e-05
-0.000267141
-3.96173e-05
-0.000243505
-4.13341e-05
-0.000219328
-4.29699e-05
-0.000194741
-4.44469e-05
-0.000169531
-4.59323e-05
-0.000143844
-4.73192e-05
-0.000117703
-4.86255e-05
-9.1163e-05
-4.98374e-05
-6.42373e-05
-5.0964e-05
-3.69755e-05
-5.2022e-05
-9.4074e-06
-5.2996e-05
1.84011e-05
-5.38719e-05
4.64381e-05
-5.46675e-05
7.46609e-05
-5.53717e-05
0.000103031
-5.59858e-05
0.000131513
-5.65114e-05
0.000160074
-5.69468e-05
0.000188683
-5.72937e-05
0.000217302
-5.7548e-05
0.000245898
-5.77064e-05
0.000274434
-5.77706e-05
0.000302875
-5.77416e-05
0.000331196
-5.76248e-05
0.000359354
-5.74108e-05
0.000387336
-5.71132e-05
0.000415115
-5.67229e-05
0.000442681
-5.62436e-05
0.000470012
-5.56598e-05
0.000497104
-5.49834e-05
0.000523938
-5.41939e-05
0.000550508
-5.33009e-05
0.00057679
-5.22897e-05
0.000602759
-5.11632e-05
0.000628393
-4.99268e-05
0.000653661
-4.85734e-05
0.000678535
-4.71066e-05
0.000702985
-4.55278e-05
0.000726982
-4.38363e-05
0.000750504
-4.20399e-05
0.000773525
-4.01389e-05
0.000796021
-3.81307e-05
0.000817972
-3.60267e-05
0.000839366
-3.38312e-05
0.000860184
-3.15452e-05
0.000880427
-2.91821e-05
0.000900116
-2.67553e-05
0.000919281
-2.42789e-05
0.00093795
-2.17891e-05
0.000956112
-1.93615e-05
0.000973648
-1.70775e-05
0.000990417
-1.49774e-05
0.00100628
-1.30637e-05
0.00102111
-1.12686e-05
0.00103486
-9.50982e-06
0.00104748
-7.7404e-06
0.00105895
-5.93319e-06
0.00106924
-4.07759e-06
0.00107828
-2.15928e-06
0.00108599
-1.67161e-07
0.00109245
1.72794e-06
0.00109748
3.76041e-06
0.00110105
5.82133e-06
0.00110305
7.92302e-06
0.00110341
1.00729e-05
0.00110203
1.22914e-05
0.00109879
1.45958e-05
0.00109359
1.69909e-05
0.00108636
1.94808e-05
0.00107704
2.20669e-05
0.00106561
2.47322e-05
0.00105206
2.74653e-05
0.00103642
3.02446e-05
0.0010187
3.30488e-05
0.000998922
3.58668e-05
0.000977119
3.86907e-05
0.000953312
4.15113e-05
0.000927535
4.43201e-05
0.00089983
4.7095e-05
0.000870253
4.9811e-05
0.000838857
5.24632e-05
0.000805715
5.50386e-05
0.000770888
5.75333e-05
0.000734436
5.9943e-05
0.000696433
6.22573e-05
0.000656953
6.44753e-05
0.000616088
6.65751e-05
0.000573906
6.85609e-05
0.000530537
7.04098e-05
0.000485989
7.21052e-05
0.000440472
7.37129e-05
0.000393907
7.50214e-05
0.000346425
7.64293e-05
0.000298131
7.73523e-05
0.000248877
7.86053e-05
0.00019875
7.94262e-05
0.000147569
8.01121e-05
9.77986e-05
7.78323e-05
5.38024e-05
7.34649e-05
8.8571e-05
-2.95586e-05
8.61129e-05
-4.79066e-05
5.04822e-05
-6.84478e-05
5.89204e-05
-9.16645e-05
6.51331e-05
-0.000115019
6.593e-05
-0.000137994
6.4489e-05
-0.000160426
6.34078e-05
-0.000182473
6.22096e-05
-0.000204041
6.09545e-05
-0.000225105
5.95909e-05
-0.00024563
5.80599e-05
-0.000265551
5.63809e-05
-0.000284827
5.45733e-05
-0.000303451
5.26658e-05
-0.000321303
5.05625e-05
-0.000338412
4.83929e-05
-0.000354663
4.60831e-05
-0.000370053
4.36692e-05
-0.000384553
4.1167e-05
-0.000398098
3.85498e-05
-0.000410704
3.58888e-05
-0.000422286
3.30927e-05
-0.000432836
3.02555e-05
-0.000442347
2.73403e-05
-0.000450769
2.43751e-05
-0.000458059
2.13191e-05
-0.000464236
1.82321e-05
-0.000469254
1.50602e-05
-0.000473129
1.18881e-05
-0.00047583
8.68153e-06
-0.000477391
5.44295e-06
-0.000477781
2.17014e-06
-0.00047701
-1.12737e-06
-0.000475081
-4.43997e-06
-0.000471943
-7.74394e-06
-0.000467663
-1.1071e-05
-0.000462234
-1.43938e-05
-0.000455733
-1.76712e-05
-0.000448126
-2.09575e-05
-0.000439415
-2.4236e-05
-0.000429665
-2.74762e-05
-0.000418897
-3.06851e-05
-0.000407061
-3.38686e-05
-0.0003943
-3.69757e-05
-0.000380505
-4.00877e-05
-0.000365728
-4.31152e-05
-0.000349972
-4.6089e-05
-0.000333275
-4.89745e-05
-0.000315707
-5.1735e-05
-0.0002974
-5.43705e-05
-0.000278303
-5.6955e-05
-0.000258457
-5.9463e-05
-0.000237898
-6.18934e-05
-0.000216615
-6.42521e-05
-0.00019457
-6.64921e-05
-0.000171791
-6.87116e-05
-0.000148377
-7.07328e-05
-0.000124329
-7.26738e-05
-9.96814e-05
-7.44849e-05
-7.44732e-05
-7.61723e-05
-4.87653e-05
-7.77299e-05
-2.25959e-05
-7.91654e-05
4.01538e-06
-8.04832e-05
3.10168e-05
-8.16689e-05
5.83739e-05
-8.27288e-05
8.60451e-05
-8.3657e-05
0.000113987
-8.4453e-05
0.000142151
-8.51113e-05
0.000170499
-8.56416e-05
0.000198992
-8.60406e-05
0.000227601
-8.6316e-05
0.000256273
-8.64424e-05
0.000284977
-8.64451e-05
0.00031367
-8.63178e-05
0.000342313
-8.60544e-05
0.000370863
-8.56628e-05
0.00039927
-8.513e-05
0.000427508
-8.44819e-05
0.000455551
-8.37023e-05
0.000483357
-8.27899e-05
0.000510899
-8.17357e-05
0.000538151
-8.05528e-05
0.000565092
-7.92311e-05
0.000591682
-7.77531e-05
0.00061789
-7.61345e-05
0.000643687
-7.43705e-05
0.000669035
-7.2455e-05
0.000693899
-7.0392e-05
0.000718258
-6.81954e-05
0.000742062
-6.58434e-05
0.00076528
-6.3357e-05
0.000787886
-6.07364e-05
0.000809847
-5.79876e-05
0.000831133
-5.51173e-05
0.000851725
-5.21376e-05
0.000871589
-4.90454e-05
0.000890716
-4.58828e-05
0.000909092
-4.26546e-05
0.00092671
-3.94076e-05
0.000943533
-3.6184e-05
0.000959455
-3.30003e-05
0.000974342
-2.98638e-05
0.000988028
-2.67499e-05
0.00100042
-2.36584e-05
0.00101142
-2.05083e-05
0.00102101
-1.73347e-05
0.00102918
-1.4103e-05
0.00103592
-1.0815e-05
0.00104123
-7.4682e-06
0.00104513
-4.07464e-06
0.00104754
-6.75013e-07
0.00104836
2.93523e-06
0.0010477
6.48782e-06
0.00104551
1.01043e-05
0.00104179
1.37948e-05
0.00103652
1.75649e-05
0.00102969
2.14253e-05
0.0010213
2.53835e-05
0.00101134
2.94402e-05
0.000999818
3.3586e-05
0.00098674
3.7811e-05
0.00097211
4.2095e-05
0.000955933
4.64216e-05
0.000938207
5.07748e-05
0.000918934
5.51396e-05
0.000898116
5.95089e-05
0.00087576
6.38672e-05
0.000851877
6.82036e-05
0.000826468
7.25032e-05
0.000799529
7.67501e-05
0.000771055
8.09373e-05
0.000741055
8.50392e-05
0.000709547
8.90407e-05
0.000676569
9.2921e-05
0.000642137
9.66894e-05
0.000606304
0.000100309
0.000569129
0.00010375
0.000530645
0.000107045
0.000490958
0.000110096
0.000450062
0.000113002
0.000408152
0.000115623
0.000365139
0.000118034
0.000321318
0.000120251
0.00027649
0.000122181
0.000230881
0.000124214
0.000184232
0.000126075
0.000137247
0.000127097
9.2082e-05
0.000122997
5.23597e-05
0.000113187
0.000140931
-2.92726e-05
0.000115385
-4.55429e-05
6.67526e-05
-6.44802e-05
7.78576e-05
-8.61563e-05
8.68092e-05
-0.000107706
8.74797e-05
-0.000129328
8.61108e-05
-0.000150336
8.44164e-05
-0.000171103
8.29761e-05
-0.0001915
8.13512e-05
-0.000211471
7.95622e-05
-0.000231006
7.75952e-05
-0.000250039
7.54137e-05
-0.000268498
7.3032e-05
-0.000286332
7.05002e-05
-0.000303609
6.78398e-05
-0.00032014
6.49239e-05
-0.00033597
6.19129e-05
-0.000351043
5.87418e-05
-0.000365297
5.54212e-05
-0.000378754
5.20068e-05
-0.000391275
4.84095e-05
-0.000402947
4.47648e-05
-0.000413642
4.09511e-05
-0.00042336
3.70582e-05
-0.000432074
3.30891e-05
-0.000439717
2.89621e-05
-0.000446293
2.48082e-05
-0.000451862
2.06292e-05
-0.000456318
1.63435e-05
-0.00045963
1.19936e-05
-0.000461802
7.61571e-06
-0.000462827
3.19436e-06
-0.000462689
-1.26517e-06
-0.0004614
-5.7291e-06
-0.000458943
-1.02003e-05
-0.000455331
-1.46836e-05
-0.000450581
-1.91434e-05
-0.000444614
-2.36386e-05
-0.000437513
-2.80586e-05
-0.000429309
-3.24397e-05
-0.000419988
-3.67969e-05
-0.000409535
-4.11379e-05
-0.000398027
-4.53767e-05
-0.000385441
-4.95623e-05
-0.000371857
-5.36714e-05
-0.000357287
-5.76858e-05
-0.000341792
-6.15836e-05
-0.000325297
-6.54698e-05
-0.000307852
-6.91796e-05
-0.00028948
-7.27422e-05
-0.0002702
-7.62352e-05
-0.000250044
-7.96195e-05
-0.000229077
-8.28601e-05
-0.000207292
-8.60375e-05
-0.000184737
-8.90467e-05
-0.000161591
-9.18571e-05
-0.000137735
-9.45894e-05
-0.000113263
-9.71453e-05
-8.82026e-05
-9.95456e-05
-6.25878e-05
-0.000101787
-3.64563e-05
-0.000103861
-9.84163e-06
-0.00010578
1.71984e-05
-0.000107523
4.46331e-05
-0.000109104
7.2414e-05
-0.00011051
0.0001005
-0.000111743
0.000128849
-0.000112802
0.000157424
-0.000113687
0.000186184
-0.000114401
0.000215083
-0.00011494
0.000244069
-0.000115303
0.000273124
-0.000115497
0.000302178
-0.000115499
0.000331198
-0.000115338
0.000360137
-0.000114993
0.00038895
-0.000114476
0.00041761
-0.00011379
0.000446046
-0.000112918
0.000474223
-0.000111879
0.000502098
-0.000110665
0.000529642
-0.000109279
0.000556791
-0.000107701
0.000583509
-0.00010595
0.000609774
-0.000104017
0.000635542
-0.000101903
0.000660765
-9.95938e-05
0.000685431
-9.7121e-05
0.000709482
-9.44429e-05
0.000732897
-9.16107e-05
0.00075563
-8.85767e-05
0.000777663
-8.53895e-05
0.000798961
-8.20346e-05
0.000819486
-7.85124e-05
0.00083921
-7.48411e-05
0.000858101
-7.10286e-05
0.00087615
-6.70948e-05
0.000893297
-6.30294e-05
0.000909521
-5.88791e-05
0.000924766
-5.46526e-05
0.00093896
-5.03783e-05
0.000952023
-4.60627e-05
0.000963884
-4.17247e-05
0.000974491
-3.73569e-05
0.000983796
-3.29634e-05
0.000991796
-2.85084e-05
0.000998491
-2.40302e-05
0.00100384
-1.94516e-05
0.00100784
-1.48159e-05
0.00101045
-1.00801e-05
0.00101165
-5.27328e-06
0.00101131
-3.298e-07
0.00100976
4.48346e-06
0.00100672
9.52621e-06
0.0010022
1.4624e-05
0.000996203
1.97916e-05
0.000988736
2.50321e-05
0.000979815
3.03463e-05
0.000969461
3.57369e-05
0.000957694
4.12073e-05
0.000944533
4.67468e-05
0.00092999
5.23546e-05
0.000914066
5.80191e-05
0.000896768
6.37198e-05
0.000878099
6.94432e-05
0.000858066
7.51731e-05
0.000836683
8.08915e-05
0.000813959
8.65914e-05
0.000789926
9.2237e-05
0.000764602
9.78266e-05
0.000737996
0.000103356
0.000710131
0.000108802
0.000681026
0.000114144
0.000650714
0.000119352
0.000619203
0.000124432
0.000586554
0.000129339
0.000552807
0.000134055
0.000517977
0.000138581
0.000482147
0.000142874
0.000445345
0.000146898
0.000407619
0.000150728
0.000369108
0.000154134
0.000329739
0.000157403
0.000289778
0.000160212
0.000249058
0.0001629
0.00020787
0.000165402
0.000165811
0.000168134
0.000124265
0.000168644
8.4854e-05
0.000162408
4.83843e-05
0.000149657
0.000189315
-2.97117e-05
0.000145097
-4.60318e-05
8.30727e-05
-6.51746e-05
9.70004e-05
-8.69663e-05
0.000108601
-0.000108826
0.00010934
-0.000130584
0.000107868
-0.00015189
0.000105723
-0.000172917
0.000104003
-0.000193579
0.000102013
-0.000213847
9.98302e-05
-0.000233665
9.74128e-05
-0.000252995
9.47438e-05
-0.000271773
9.18105e-05
-0.000289959
8.86857e-05
-0.000307521
8.54022e-05
-0.000324408
8.1811e-05
-0.000340603
7.81076e-05
-0.000356003
7.4142e-05
-0.0003706
7.00176e-05
-0.000384334
6.5741e-05
-0.00039723
6.13058e-05
-0.00040915
5.66848e-05
-0.000420147
5.19476e-05
-0.000430122
4.70338e-05
-0.00043907
4.20373e-05
-0.000447024
3.69161e-05
-0.000453885
3.16687e-05
-0.00045961
2.6354e-05
-0.000464218
2.09521e-05
-0.000467729
1.55039e-05
-0.000470075
9.96249e-06
-0.000471247
4.36628e-06
-0.00047124
-1.27225e-06
-0.000470054
-6.91508e-06
-0.000467688
-1.25661e-05
-0.000464098
-1.82736e-05
-0.000459324
-2.39181e-05
-0.000453476
-2.94867e-05
-0.000446434
-3.51006e-05
-0.000438214
-4.06595e-05
-0.000428813
-4.6198e-05
-0.000418344
-5.16067e-05
-0.000406748
-5.69726e-05
-0.000394012
-6.22983e-05
-0.000380216
-6.74671e-05
-0.000365318
-7.25838e-05
-0.000349336
-7.75662e-05
-0.000332469
-8.23363e-05
-0.000314585
-8.70641e-05
-0.000295715
-9.16118e-05
-0.000275953
-9.59978e-05
-0.000255345
-0.000100227
-0.000233843
-0.000104362
-0.000211645
-0.000108236
-0.000188715
-0.000111976
-0.000164982
-0.00011559
-0.000140616
-0.000118955
-0.000115629
-0.000122132
-9.00224e-05
-0.000125153
-6.38698e-05
-0.00012794
-3.71999e-05
-0.000130531
-1.0055e-05
-0.000132925
1.75306e-05
-0.000135109
4.54955e-05
-0.000137068
7.38005e-05
-0.000138815
0.000102408
-0.00014035
0.000131272
-0.000141666
0.000160351
-0.000142766
0.000189596
-0.000143646
0.000218958
-0.000144302
0.000248396
-0.00014474
0.000277867
-0.000144969
0.000307321
-0.000144953
0.000336724
-0.00014474
0.000366017
-0.000144286
0.000395168
-0.000143628
0.000424115
-0.000142737
0.000452828
-0.000141631
0.000481259
-0.000140309
0.000509367
-0.000138774
0.000537087
-0.000136999
0.000564399
-0.000135013
0.000591257
-0.000132808
0.000617635
-0.000130395
0.000643467
-0.000127735
0.000668742
-0.000124869
0.000693417
-0.000121795
0.000717459
-0.000118485
0.000740841
-0.000114993
0.000763525
-0.00011126
0.000785495
-0.00010736
0.000806691
-0.00010323
0.000827107
-9.89281e-05
0.000846718
-9.44519e-05
0.000865497
-8.9808e-05
0.000883393
-8.4991e-05
0.000900385
-8.00212e-05
0.000916436
-7.49298e-05
0.000931508
-6.97244e-05
0.000945553
-6.44237e-05
0.000958505
-5.90145e-05
0.000970331
-5.35512e-05
0.000980945
-4.79707e-05
0.000990304
-4.23218e-05
0.000998401
-3.66058e-05
0.00100515
-3.07792e-05
0.00101054
-2.4843e-05
0.00101456
-1.88381e-05
0.0010172
-1.2714e-05
0.00101844
-6.5115e-06
0.00101829
-1.85856e-07
0.00101652
6.25801e-06
0.00101331
1.2737e-05
0.00100862
1.93113e-05
0.00100243
2.59769e-05
0.000994743
3.2723e-05
0.000985536
3.95528e-05
0.000974814
4.64594e-05
0.00096259
5.34309e-05
0.000948874
6.04629e-05
0.000933677
6.75515e-05
0.000917025
7.46709e-05
0.000898935
8.18103e-05
0.000879429
8.89492e-05
0.000858523
9.60792e-05
0.000836239
0.000103175
0.00081261
0.000110221
0.000787651
0.000117196
0.000761391
0.000124087
0.000733879
0.000130868
0.000705151
0.00013753
0.000675251
0.000144044
0.000644215
0.000150389
0.000612103
0.000156544
0.000578952
0.000162489
0.000544808
0.000168199
0.000509739
0.000173651
0.000473795
0.000178818
0.000437014
0.000183679
0.000399494
0.000188248
0.00036124
0.000192388
0.000322336
0.000196307
0.000282947
0.000199601
0.000242949
0.000202899
0.000202671
0.00020568
0.000161745
0.000209061
0.000121463
0.000208926
8.30927e-05
0.000200778
4.69167e-05
0.000185833
0.000236232
-3.03154e-05
0.000175413
-4.72144e-05
9.99717e-05
-6.69651e-05
0.000116751
-8.92319e-05
0.000130868
-0.000111807
0.000131915
-0.000134124
0.000130184
-0.00015607
0.000127669
-0.000177621
0.000125555
-0.000198841
0.000123233
-0.000219655
0.000120644
-0.000240025
0.000117783
-0.000259879
0.000114598
-0.000279178
0.00011111
-0.000297862
0.00010737
-0.000315842
0.000103381
-0.000333203
9.91725e-05
-0.000349745
9.4649e-05
-0.000365533
8.99307e-05
-0.000380503
8.49875e-05
-0.000394588
7.98262e-05
-0.000407746
7.44636e-05
-0.000419977
6.89154e-05
-0.000431205
6.31759e-05
-0.000441426
5.72542e-05
-0.000450587
5.11987e-05
-0.000458691
4.50196e-05
-0.000465655
3.86333e-05
-0.000471525
3.22233e-05
-0.000476235
2.56627e-05
-0.000479751
1.90198e-05
-0.000482113
1.23243e-05
-0.000483335
5.58785e-06
-0.000483316
-1.29035e-06
-0.000482075
-8.15646e-06
-0.000479612
-1.50291e-05
-0.000476033
-2.18525e-05
-0.000471236
-2.87157e-05
-0.000465188
-3.55342e-05
-0.000457961
-4.23272e-05
-0.000449527
-4.90934e-05
-0.000439989
-5.57363e-05
-0.000429272
-6.23239e-05
-0.000417394
-6.88509e-05
-0.0004045
-7.51916e-05
-0.000390464
-8.1503e-05
-0.000375448
-8.76002e-05
-0.000359374
-9.36401e-05
-0.000342242
-9.94683e-05
-0.000324173
-0.000105133
-0.000305153
-0.000110632
-0.000285182
-0.00011597
-0.000264284
-0.000121125
-0.00024263
-0.000126016
-0.000220102
-0.000130764
-0.000196754
-0.000135324
-0.000172779
-0.000139566
-0.000148055
-0.000143679
-0.000122664
-0.000147523
-9.67053e-05
-0.000151111
-7.01593e-05
-0.000154486
-4.30788e-05
-0.000157612
-1.55306e-05
-0.000160473
1.24468e-05
-0.000163086
4.08319e-05
-0.000165454
6.95622e-05
-0.000167545
9.85951e-05
-0.000169383
0.000127887
-0.000170958
0.000157393
-0.000172272
0.000187073
-0.000173325
0.000216869
-0.000174099
0.000246741
-0.000174611
0.000276635
-0.000174863
0.000306524
-0.000174842
0.00033635
-0.000174566
0.000366071
-0.000174007
0.000395648
-0.000173206
0.000425025
-0.000172113
0.000454165
-0.000170771
0.000483037
-0.000169181
0.000511561
-0.000167299
0.000539728
-0.000165166
0.000567489
-0.000162774
0.000594807
-0.000160126
0.000621628
-0.000157216
0.000647933
-0.00015404
0.000673681
-0.000150617
0.000698837
-0.000146951
0.000723367
-0.000143015
0.000747225
-0.000138852
0.000770405
-0.000134439
0.000792842
-0.000129797
0.000814536
-0.000124924
0.00083544
-0.000119832
0.000855517
-0.000114529
0.000874734
-0.000109024
0.000893064
-0.000103322
0.000910479
-9.74361e-05
0.000926931
-9.13816e-05
0.000942377
-8.51703e-05
0.000956763
-7.88104e-05
0.000970059
-7.23098e-05
0.00098218
-6.56721e-05
0.000993124
-5.89153e-05
0.00100283
-5.20296e-05
0.00101123
-4.50084e-05
0.00101832
-3.78645e-05
0.00102409
-3.06132e-05
0.00102847
-2.32182e-05
0.00103145
-1.56936e-05
0.00103299
-8.04986e-06
0.0010331
-2.99649e-07
0.00103178
7.5778e-06
0.00102896
1.55625e-05
0.00102462
2.36527e-05
0.00101875
3.18394e-05
0.00101136
4.01182e-05
0.00100243
4.8482e-05
0.000991968
5.692e-05
0.000979969
6.54299e-05
0.000966431
7.40011e-05
0.000951378
8.26046e-05
0.000934813
9.12356e-05
0.000916748
9.98749e-05
0.000897191
0.000108506
0.000876171
0.0001171
0.000853704
0.000125643
0.000829823
0.000134102
0.000804543
0.000142475
0.000777899
0.000150731
0.000749929
0.000158838
0.000720683
0.000166776
0.000690202
0.000174524
0.000658529
0.000182061
0.000625714
0.00018936
0.000591821
0.000196382
0.0005569
0.00020312
0.00052101
0.000209541
0.000484216
0.000215612
0.000446581
0.000221314
0.000408169
0.000226659
0.000369047
0.000231511
0.000329284
0.00023607
0.000288998
0.000239887
0.000248185
0.000243712
0.000206992
0.000246872
0.000165259
0.000250794
0.000123862
0.000250322
8.43238e-05
0.000240317
4.73028e-05
0.000222854
0.000283534
-3.10793e-05
0.000206492
-4.84538e-05
0.000117346
-6.87361e-05
0.000137033
-9.1584e-05
0.000153716
-0.000114822
0.000155153
-0.00013777
0.000153133
-0.000160339
0.000150237
-0.0001825
0.000147716
-0.000204315
0.000145048
-0.000225751
0.00014208
-0.000246637
0.000138668
-0.000266991
0.000134952
-0.000286796
0.000130915
-0.000306029
0.000126603
-0.000324539
0.000121892
-0.000342295
0.000116928
-0.000359314
0.000111668
-0.000375559
0.000106175
-0.000390914
0.000100343
-0.0004054
9.43125e-05
-0.00041892
8.79837e-05
-0.000431439
8.1434e-05
-0.000442976
7.47127e-05
-0.000453487
6.77659e-05
-0.00046293
6.06409e-05
-0.000471218
5.33076e-05
-0.000478422
4.58374e-05
-0.000484441
3.82431e-05
-0.000489291
3.05126e-05
-0.000492986
2.27148e-05
-0.00049547
1.48083e-05
-0.000496679
6.79689e-06
-0.000496701
-1.26889e-06
-0.00049551
-9.34731e-06
-0.000493099
-1.74406e-05
-0.000489423
-2.55284e-05
-0.00048453
-3.36078e-05
-0.000478411
-4.16533e-05
-0.000471075
-4.96638e-05
-0.000462564
-5.76045e-05
-0.000452856
-6.54441e-05
-0.000441978
-7.32023e-05
-0.00042997
-8.08584e-05
-0.000416817
-8.83448e-05
-0.000402531
-9.5789e-05
-0.000387141
-0.00010299
-0.000370763
-0.000110018
-0.000353315
-0.000116916
-0.000334863
-0.000123585
-0.000315446
-0.000130049
-0.000295117
-0.000136298
-0.00027392
-0.000142322
-0.000251829
-0.000148107
-0.000228935
-0.000153657
-0.000205283
-0.000158977
-0.000180852
-0.000163997
-0.00015574
-0.000168791
-0.000129966
-0.000173297
-0.000103558
-0.000177518
-7.65909e-05
-0.000181453
-4.91065e-05
-0.000185096
-2.11215e-05
-0.000188458
7.31384e-06
-0.000191522
3.61419e-05
-0.000194282
6.53343e-05
-0.000196737
9.48288e-05
-0.000198878
0.00012459
-0.000200719
0.00015457
-0.000202252
0.000184711
-0.000203466
0.000214996
-0.000204384
0.000245351
-0.000204966
0.000275739
-0.000205252
0.000306123
-0.000205226
0.000336442
-0.000204885
0.000366669
-0.000204234
0.000396738
-0.000203275
0.000426626
-0.000202001
0.000456282
-0.000200427
0.000485654
-0.000198554
0.000514706
-0.00019635
0.000543397
-0.000193857
0.000571685
-0.000191062
0.000599534
-0.000187976
0.000626894
-0.000184576
0.000653733
-0.000180879
0.000680012
-0.000176895
0.000705706
-0.000172645
0.000730759
-0.000168068
0.000755141
-0.000163234
0.000778831
-0.000158129
0.000801771
-0.000152738
0.000823961
-0.000147114
0.000845325
-0.000141196
0.00086585
-0.000135055
0.000885507
-0.000128681
0.000904246
-0.000122061
0.000922044
-0.000115234
0.000938851
-0.000108188
0.000954617
-0.000100936
0.000969314
-9.35078e-05
0.000982913
-8.59087e-05
0.000995349
-7.81087e-05
0.00100658
-7.01443e-05
0.00101657
-6.20165e-05
0.00102528
-5.37259e-05
0.00103269
-4.52744e-05
0.00103876
-3.6678e-05
0.00104344
-2.78979e-05
0.00104672
-1.89797e-05
0.00104859
-9.91269e-06
0.00104902
-7.36167e-07
0.00104794
8.65798e-06
0.00104538
1.81278e-05
0.00104131
2.77192e-05
0.00103572
3.74278e-05
0.0010286
4.72405e-05
0.00101994
5.71468e-05
0.00100971
6.71457e-05
0.000997936
7.72038e-05
0.000984617
8.73197e-05
0.000969743
9.74785e-05
0.000953326
0.000107652
0.000935377
0.000117825
0.000915907
0.000127976
0.000894924
0.000138083
0.000872453
0.000148113
0.000848495
0.000158059
0.000823092
0.000167878
0.000796276
0.000177548
0.00076807
0.000187043
0.000738518
0.000196329
0.000707652
0.00020539
0.000675528
0.000214185
0.000642204
0.000222684
0.000607714
0.000230871
0.000572124
0.00023871
0.000535501
0.000246164
0.000497894
0.000253219
0.000459374
0.000259835
0.000420022
0.000266011
0.0003799
0.000271632
0.000339092
0.000276878
0.000297683
0.000281296
0.000255722
0.000285673
0.000213274
0.00028932
0.000170258
0.000293809
0.000127387
0.000293193
8.64722e-05
0.000281231
4.84408e-05
0.000260885
0.000331975
-3.2007e-05
0.000238499
-4.98502e-05
0.000135189
-7.05981e-05
0.000157781
-9.41012e-05
0.000177219
-0.00011807
0.000179122
-0.000141695
0.000176758
-0.000164867
0.000173409
-0.000187734
0.000170583
-0.000210216
0.00016753
-0.000232203
0.000164067
-0.000253749
0.000160214
-0.000274758
0.000155961
-0.00029519
0.000151347
-0.000314912
0.000146325
-0.000334005
0.000140985
-0.00035236
0.000135284
-0.000369941
0.000129249
-0.000386638
0.000122872
-0.000402485
0.00011619
-0.000417385
0.000109213
-0.000431334
0.000101933
-0.000444317
9.44168e-05
-0.000456212
8.66073e-05
-0.000467056
7.86101e-05
-0.000476776
7.03605e-05
-0.000485385
6.19169e-05
-0.000492889
5.33409e-05
-0.000499161
4.45155e-05
-0.000504248
3.55993e-05
-0.00050808
2.6547e-05
-0.00051067
1.73989e-05
-0.000512031
8.15717e-06
-0.000512131
-1.16857e-06
-0.000510964
-1.05146e-05
-0.00050853
-1.98745e-05
-0.000504825
-2.92329e-05
-0.000499861
-3.85723e-05
-0.000493641
-4.78735e-05
-0.000486179
-5.71257e-05
-0.000477503
-6.62802e-05
-0.000467592
-7.53552e-05
-0.000456472
-8.43224e-05
-0.000444198
-9.31319e-05
-0.000430714
-0.000101829
-0.000416207
-0.000110296
-0.00040056
-0.000118637
-0.000383832
-0.000126746
-0.000366036
-0.000134712
-0.000347228
-0.000142393
-0.000327432
-0.000149845
-0.000306684
-0.000157046
-0.000285021
-0.000163985
-0.000262475
-0.000170653
-0.000239079
-0.000177054
-0.000214928
-0.000183127
-0.00018999
-0.000188935
-0.000164381
-0.0001944
-0.000138073
-0.000199606
-0.000111141
-0.00020445
-8.36188e-05
-0.000208975
-5.55618e-05
-0.000213153
-2.70099e-05
-0.00021701
1.99168e-06
-0.000220523
3.13956e-05
-0.000223686
6.11573e-05
-0.000226499
9.12331e-05
-0.000228954
0.000121579
-0.000231065
0.000152135
-0.000232807
0.000182868
-0.000234199
0.000213721
-0.000235236
0.000244667
-0.000235913
0.00027564
-0.000236224
0.000306618
-0.000236205
0.000337526
-0.000235792
0.000368341
-0.000235049
0.000399
-0.000233934
0.000429472
-0.000232474
0.000459719
-0.000230674
0.000489667
-0.000228501
0.000519303
-0.000225986
0.000548574
-0.000223128
0.00057744
-0.000219928
0.000605867
-0.000216403
0.000633798
-0.000212506
0.000661204
-0.000208285
0.000688046
-0.000203738
0.000714278
-0.000198877
0.000739878
-0.000193668
0.000764797
-0.000188152
0.000789003
-0.000182336
0.000812465
-0.0001762
0.000835121
-0.00016977
0.000856974
-0.000163049
0.000877964
-0.000156045
0.00089805
-0.000148768
0.000917213
-0.000141224
0.000935399
-0.000133419
0.000952576
-0.000125366
0.000968724
-0.000117084
0.000983772
-0.000108556
0.000997677
-9.98133e-05
0.00101042
-9.08487e-05
0.00102196
-8.16882e-05
0.00103226
-7.23164e-05
0.00104127
-6.2734e-05
0.00104896
-5.29671e-05
0.00105529
-4.30089e-05
0.00106026
-3.28643e-05
0.00106382
-2.2542e-05
0.00106596
-1.20466e-05
0.00106659
-1.37543e-06
0.00106579
9.46234e-06
0.00106348
2.04385e-05
0.00105964
3.15547e-05
0.00105427
4.28019e-05
0.00104734
5.41691e-05
0.00103885
6.56418e-05
0.00102879
7.72012e-05
0.00101716
8.8838e-05
0.00100394
0.000100538
0.000989142
0.000112275
0.000972768
0.000124027
0.00095482
0.000135772
0.000935312
0.000147484
0.000914254
0.000159141
0.000891655
0.000170712
0.000867544
0.000182171
0.000841935
0.000193487
0.000814858
0.000204624
0.000786343
0.000215558
0.000756422
0.000226251
0.000725137
0.000236675
0.000692531
0.000246791
0.000658643
0.000256572
0.000623538
0.000265977
0.000587267