/*--------------------------------*- C++ -*----------------------------------*\
| =========                 |                                                 |
| \\      /  F ield         | OpenFOAM: The Open Source CFD Toolbox           |
|  \\    /   O peration     | Version:  v2006                                 |
|   \\  /    A nd           | Website:  www.openfoam.com                      |
|    \\/     M anipulation  |                                                 |
\*---------------------------------------------------------------------------*/
FoamFile
{
    version     2.0;
    format      ascii;
    class       volScalarField;
    location    "0";
    object      f;
}
// * * * * * * * * * * * * * * * * * * * * * * * * * * * * * * * * * * * * * //

dimensions      [0 0 0 0 0 0 0];


internalField   nonuniform List<scalar> 
2500
(
-1.56694e-31
3.08672e-26
-7.99347e-24
-1.73573e-20
5.19291e-19
1.49627e-20
-4.993e-17
1.81344e-15
-6.30952e-14
1.83503e-12
-4.26902e-11
6.33222e-10
-5.718e-09
1.91464e-08
1.89206e-07
-4.62372e-06
2.6378e-05
4.49965e-05
-0.000887684
-0.000585318
0.0128628
0.0442637
0.0730365
0.0761855
0.0541069
0.0242963
0.00493598
-0.000415957
-0.000324607
1.78455e-05
7.39141e-05
2.83187e-05
1.34832e-06
-8.28601e-07
-2.54948e-07
-1.40218e-08
-8.10953e-09
-4.49727e-09
-6.08709e-10
6.05264e-11
2.44634e-11
5.35974e-13
-3.26447e-13
3.51536e-14
2.17629e-14
1.57151e-15
-1.08925e-16
-9.40409e-17
-6.1099e-17
-6.10002e-18
-1.60296e-29
8.43455e-25
7.31679e-23
-1.83113e-19
2.60644e-18
1.18838e-18
-1.75047e-16
6.75382e-15
-2.1879e-13
7.30057e-12
-2.11134e-10
4.20741e-09
-5.10328e-08
3.28928e-07
-3.70437e-07
-8.77202e-06
8.16714e-05
-5.12995e-05
-0.00140315
0.000440821
0.0133713
0.029669
0.0328746
0.0206501
0.00483934
-0.00317214
-0.00285315
-0.000394552
2.13386e-05
0.000128183
5.26305e-05
7.87521e-06
-1.43295e-06
-2.50878e-08
1.27333e-07
2.92846e-08
-2.97848e-09
-1.76894e-09
-2.34092e-10
-1.96827e-11
-7.28586e-12
-3.88062e-13
2.40493e-13
9.46352e-14
7.52813e-15
-2.44293e-16
-7.26152e-17
-4.25451e-17
-2.63687e-17
-3.59366e-18
-1.26378e-27
1.74763e-23
3.72115e-21
-1.50578e-18
8.81275e-18
1.04965e-18
1.32561e-15
-6.76764e-14
8.75434e-13
7.56598e-12
-3.74558e-10
1.06305e-08
-1.57721e-07
1.29101e-06
-4.3444e-06
-1.03072e-05
0.000167356
-0.000268984
-0.00213454
0.00129923
0.0178353
0.0377672
0.0409419
0.0269552
0.00839245
-0.00206163
-0.00272695
-0.000470772
1.83359e-05
0.000150999
7.6071e-05
1.2883e-05
-1.03209e-06
-1.75233e-07
7.47028e-08
2.2274e-08
-5.48767e-09
-3.06693e-09
-3.71213e-10
1.23146e-11
4.16061e-12
5.31089e-14
9.98739e-14
8.05475e-14
1.08653e-14
3.15707e-17
-9.71413e-17
-5.54934e-17
-3.29863e-17
-4.7577e-18
-9.3441e-26
3.39062e-22
7.41559e-20
-1.24761e-17
2.91369e-16
-8.24732e-15
2.03444e-13
-3.68392e-12
4.78963e-11
-3.89995e-10
7.92153e-10
1.44838e-08
-2.95236e-07
3.10293e-06
-1.52002e-05
2.34444e-06
0.000282339
-0.000678836
-0.0027986
0.00260347
0.0190693
0.0300822
0.0187325
-0.00256288
-0.0173877
-0.0161101
-0.00627243
-0.000442234
0.0002377
0.000247299
7.9133e-05
5.11209e-06
-1.96465e-06
1.51766e-07
2.37113e-07
4.02947e-08
-5.5692e-09
-2.88582e-09
-2.93392e-10
-4.85004e-12
-4.81749e-12
-3.18939e-13
2.78176e-13
1.0662e-13
5.22945e-15
-7.60944e-16
-1.42317e-16
-6.86825e-17
-3.88866e-17
-6.01956e-18
-6.47697e-24
6.06732e-21
1.04317e-18
-9.78645e-17
2.86799e-15
-6.48478e-14
1.19087e-12
-1.83539e-11
2.36027e-10
-2.45759e-09
1.7267e-08
-4.78071e-08
-2.89709e-07
5.14006e-06
-3.52488e-05
5.7088e-05
0.000389428
-0.00122283
-0.00313035
0.00359253
0.0161342
0.0143237
-0.00989769
-0.0339535
-0.0407056
-0.0263715
-0.00774353
-0.000269314
0.000437436
0.000286957
7.09737e-05
-1.7218e-06
-1.859e-06
4.22048e-07
3.11045e-07
3.9403e-08
-6.27493e-09
-2.68635e-09
-2.00304e-10
1.33956e-12
-5.53776e-12
-4.4265e-13
2.90451e-13
8.42213e-14
-9.46442e-16
-1.40204e-15
-1.84589e-16
-8.13475e-17
-4.42096e-17
-7.27913e-18
-4.19102e-22
9.9203e-20
7.34146e-18
-3.86857e-16
8.80321e-15
-1.57273e-13
2.50063e-12
-3.6765e-11
5.15412e-10
-6.66169e-09
6.69495e-08
-4.26502e-07
1.03516e-06
5.29132e-06
-6.2389e-05
0.000163918
0.0004272
-0.00175806
-0.00284608
0.00362369
0.00634295
-0.015356
-0.0556375
-0.0803114
-0.0713177
-0.0380811
-0.00889885
8.88811e-05
0.000662708
0.000312918
4.60966e-05
-1.06935e-05
-1.69443e-06
7.89008e-07
4.00399e-07
3.73511e-08
-6.42327e-09
-2.05958e-09
-8.42347e-11
-3.95124e-12
-1.16289e-11
-8.13748e-13
3.67212e-13
7.10548e-14
-7.14902e-15
-2.04123e-15
-2.19475e-16
-9.10924e-17
-4.80279e-17
-8.37965e-18
-2.52011e-20
1.56784e-18
1.78184e-17
-5.48858e-16
3.77413e-16
2.33201e-13
-4.57504e-12
2.76861e-11
3.42574e-10
-9.26468e-09
1.45153e-07
-1.29742e-06
5.8073e-06
-2.79466e-06
-8.61123e-05
0.000308064
0.000335837
-0.00201016
-0.00172952
0.00153916
-0.0129
-0.0609515
-0.116051
-0.133768
-0.101751
-0.0470292
-0.00883341
0.000645637
0.000831421
0.000286303
6.14055e-06
-1.77925e-05
-1.11979e-06
1.14599e-06
4.36589e-07
2.56514e-08
-6.04304e-09
-1.02758e-09
3.16136e-11
-1.66462e-11
-1.6004e-11
-8.05576e-13
4.59044e-13
5.4342e-14
-1.12373e-14
-2.28215e-15
-2.39743e-16
-9.49265e-17
-4.9375e-17
-9.13776e-18
-1.48411e-18
7.92741e-17
-2.60471e-15
6.6156e-14
-1.26321e-12
1.85687e-11
-2.11502e-10
1.79993e-09
-1.0077e-08
1.96068e-08
1.72315e-07
-2.46297e-06
1.46085e-05
-2.89278e-05
-8.79117e-05
0.000442325
0.000111664
-0.00157414
0.000257764
-0.00422422
-0.0441785
-0.124624
-0.190182
-0.192654
-0.130774
-0.0530376
-0.00790709
0.00123708
0.00090794
0.000200595
-4.1826e-05
-2.20597e-05
-2.3906e-07
1.44866e-06
4.22075e-07
1.37185e-08
-4.53478e-09
1.40665e-10
1.1044e-10
-4.67472e-11
-1.99945e-11
1.52765e-14
6.57423e-13
5.46441e-14
-1.18495e-14
-2.05759e-15
-2.3351e-16
-8.87331e-17
-4.74169e-17
-9.37924e-18
-5.35931e-17
1.20152e-15
-2.63538e-14
4.66665e-13
-6.92941e-12
8.68166e-11
-9.07961e-10
7.78199e-09
-5.03114e-08
2.16064e-07
-2.70182e-07
-2.91958e-06
2.49309e-05
-6.95056e-05
-5.02084e-05
0.000475551
-0.000211065
3.39121e-05
0.00285542
-0.0156304
-0.090382
-0.205918
-0.27495
-0.252152
-0.154946
-0.0553643
-0.00606012
0.0017192
0.000848219
6.22265e-05
-8.7547e-05
-2.32703e-05
9.47288e-07
1.64077e-06
3.50761e-07
4.18176e-09
-1.16817e-09
1.27817e-09
1.30234e-10
-8.17493e-11
-2.10213e-11
1.77669e-12
9.28876e-13
5.21738e-14
-1.01778e-14
-1.49743e-15
-1.5888e-16
-6.66864e-17
-4.18226e-17
-8.98886e-18
-3.58733e-16
4.36099e-15
-7.11829e-14
1.02908e-12
-1.36163e-11
1.63731e-10
-1.75799e-09
1.64459e-08
-1.20567e-07
6.66491e-07
-2.12934e-06
-6.27661e-07
3.04493e-05
-0.000108444
3.51802e-05
0.000287614
-0.000338485
0.00329615
0.00539132
-0.0351035
-0.154091
-0.303107
-0.366334
-0.308022
-0.172312
-0.0543835
-0.0036736
0.00198162
0.000650089
-0.000100062
-0.00012038
-2.15996e-05
2.06532e-06
1.62163e-06
2.46934e-07
4.52643e-10
3.85453e-09
2.11897e-09
1.73688e-11
-1.11813e-10
-1.55931e-11
4.02488e-12
1.14166e-12
2.89833e-14
-7.94894e-15
-7.19363e-16
6.86258e-17
-2.43908e-17
-3.32964e-17
-7.95993e-18
-7.05323e-16
3.81417e-15
2.0743e-14
-1.07724e-12
1.1752e-11
-2.1292e-11
-1.07366e-09
1.73276e-08
-1.72247e-07
1.28813e-06
-5.40212e-06
8.80292e-06
2.37381e-05
-0.000113494
0.000117862
-0.000220497
0.000115001
0.0085507
0.00689516
-0.065841
-0.237179
-0.413775
-0.459389
-0.356271
-0.181835
-0.0504125
-0.00119961
0.00197864
0.000337409
-0.000254442
-0.000136819
-1.67777e-05
2.81912e-06
1.32808e-06
1.40156e-07
2.26808e-09
9.14306e-09
2.46291e-09
-1.83169e-10
-1.27936e-10
-3.11728e-12
6.11256e-12
9.87532e-13
-3.05112e-14
-6.62208e-15
5.87136e-16
5.34046e-16
3.27352e-17
-2.36359e-17
-6.4147e-18
2.69885e-14
-3.14336e-13
4.49085e-12
-5.00767e-11
4.4559e-10
-3.10364e-09
1.5913e-08
-4.44441e-08
-1.03706e-07
1.65103e-06
-8.91356e-06
2.07393e-05
2.25819e-06
-5.18313e-05
7.47754e-05
-0.00109744
0.00170137
0.0160089
0.00493593
-0.111826
-0.340816
-0.534251
-0.54919
-0.393931
-0.183645
-0.043973
0.000971023
0.00171895
-2.73501e-05
-0.000372719
-0.000136179
-1.09104e-05
2.94674e-06
8.6319e-07
6.11555e-08
1.27732e-08
1.32114e-08
1.96542e-09
-3.73618e-10
-1.15372e-10
1.18051e-11
6.98779e-12
3.53389e-13
-1.14967e-13
-3.45846e-15
2.87446e-15
1.19561e-15
8.56772e-17
-1.46963e-17
-4.54e-18
2.95259e-13
-1.72614e-12
1.91135e-11
-1.81923e-10
1.51364e-09
-1.06092e-08
6.22702e-08
-2.56299e-07
5.21291e-07
1.18084e-06
-9.78967e-06
2.56437e-05
-2.77107e-05
0.000102002
-0.000252325
-0.00223458
0.00517744
0.0256072
-0.00329874
-0.177301
-0.464688
-0.660427
-0.63131
-0.419218
-0.178278
-0.0358763
0.00256607
0.00127865
-0.000370068
-0.000441498
-0.000120408
-6.22233e-06
2.26001e-06
3.92277e-07
2.06465e-08
2.98732e-08
1.52282e-08
7.58643e-10
-4.7906e-10
-6.28093e-11
2.41216e-11
4.92027e-12
-5.49556e-13
-1.89364e-13
7.36743e-15
6.20306e-15
1.80326e-15
1.06093e-16
-7.29943e-18
-2.44542e-18
9.54444e-13
-3.20622e-12
2.99471e-11
-2.62033e-10
2.19209e-09
-1.71794e-08
1.18681e-07
-5.47733e-07
1.52983e-06
-1.40522e-06
-5.519e-06
8.18574e-06
-8.33083e-06
0.000331849
-0.00108413
-0.00332411
0.0114285
0.0364746
-0.0223296
-0.26654
-0.607183
-0.788173
-0.701949
-0.431364
-0.166444
-0.0269825
0.00346396
0.000738127
-0.00064607
-0.00045817
-9.76065e-05
-3.52095e-06
1.01267e-06
4.18612e-08
3.57989e-08
4.52401e-08
1.36755e-08
-5.57647e-10
-4.60525e-10
6.48724e-12
2.86869e-11
3.63049e-13
-1.40735e-12
-1.66363e-13
2.31701e-14
9.50873e-15
2.00806e-15
7.19695e-17
-2.02837e-18
-5.83666e-20
8.01285e-13
6.87833e-12
-9.71386e-11
6.97577e-10
-1.92741e-09
-1.00047e-08
1.24741e-07
-7.10329e-07
2.14007e-06
-3.26638e-06
2.42487e-06
-4.28428e-05
0.000123001
0.000542412
-0.00263526
-0.0038368
0.021373
0.0466661
-0.0580016
-0.38351
-0.766429
-0.913046
-0.757604
-0.430223
-0.149248
-0.0180606
0.00363435
0.000198952
-0.000830578
-0.000433051
-7.54941e-05
-2.63805e-06
-1.539e-07
-9.11471e-08
8.85369e-08
5.3756e-08
8.32687e-09
-1.5293e-09
-3.0337e-10
6.01526e-11
1.82525e-11
-4.5695e-12
-1.77216e-12
-2.50006e-14
3.97433e-14
1.00916e-14
1.47773e-15
3.11211e-18
1.89003e-18
2.88369e-18
-3.90529e-11
1.82262e-10
-1.33568e-09
7.1847e-09
-2.80691e-08
6.99871e-08
-2.69773e-08
-5.00088e-07
1.3205e-06
1.34923e-07
5.5686e-06
-0.000118522
0.000432992
0.00054865
-0.00500527
-0.00247487
0.0356844
0.0526168
-0.117594
-0.531722
-0.939356
-1.03067
-0.795053
-0.416061
-0.127999
-0.00978478
0.00322792
-0.000277546
-0.000915316
-0.000383327
-5.72167e-05
-3.22553e-06
-8.54548e-07
2.10149e-08
1.34979e-07
4.96518e-08
1.86147e-09
-1.91865e-09
-5.9372e-11
7.77507e-11
-2.63408e-12
-8.05791e-12
-1.14367e-12
1.48344e-13
5.00847e-14
6.36748e-15
4.64964e-16
-6.83507e-17
1.02099e-17
6.80093e-18
-2.73239e-10
6.23595e-10
-3.7905e-09
1.74389e-08
-6.31247e-08
1.62802e-07
-2.52001e-07
1.31494e-07
-1.05716e-06
1.49381e-05
-3.10746e-05
-0.000178311
0.000971003
-4.98061e-05
-0.00799202
0.00203819
0.0542352
0.0490271
-0.209558
-0.713433
-1.12076
-1.13534
-0.81276
-0.389643
-0.104001
-0.0027958
0.00249216
-0.000671881
-0.000930953
-0.000326372
-4.3067e-05
-4.05348e-06
-8.89706e-07
2.32619e-07
1.50883e-07
3.14842e-08
-3.20197e-09
-1.40297e-09
1.28218e-10
4.32864e-11
-2.17693e-11
-7.63622e-12
4.66541e-14
2.74503e-13
3.21573e-14
6.8596e-16
-4.50644e-16
-8.6773e-17
2.69609e-17
1.19693e-17
-7.92692e-10
1.01037e-09
-5.44607e-09
2.15415e-08
-6.83251e-08
1.1315e-07
7.73683e-08
-9.03867e-07
-2.69056e-06
4.0241e-05
-0.000131015
-0.000138439
0.00167723
-0.00167728
-0.0110779
0.0116431
0.0750897
0.0255605
-0.343192
-0.928737
-1.30277
-1.22303
-0.808814
-0.352002
-0.0786553
0.00228303
0.00177014
-0.000974726
-0.000907624
-0.00027005
-3.27334e-05
-4.12313e-06
-3.19211e-07
3.88532e-07
1.26311e-07
9.92787e-09
-5.32737e-09
-3.83644e-10
1.93203e-10
-2.50928e-11
-3.06389e-11
-2.8175e-12
1.06664e-12
2.43085e-13
-5.47818e-15
-4.34912e-15
-6.81795e-16
-1.1922e-17
5.12758e-17
1.81658e-17
-1.11395e-09
5.91693e-10
-2.86635e-09
7.99595e-09
-4.50783e-09
-2.03759e-07
1.52486e-06
-6.16207e-06
6.59356e-06
6.05195e-05
-0.000310346
0.000214076
0.00235141
-0.00470998
-0.0129898
0.0281494
0.0943242
-0.028581
-0.526888
-1.17459
-1.47771
-1.28694
-0.78123
-0.304758
-0.053613
0.00534162
0.00106058
-0.00122666
-0.00086216
-0.000217058
-2.43213e-05
-3.18847e-06
3.884e-07
4.12234e-07
7.11699e-08
-4.36193e-09
-3.37382e-09
5.06248e-10
1.03206e-10
-7.57614e-11
-2.20222e-11
2.74217e-12
1.41234e-12
1.98927e-14
-3.86546e-14
-5.28541e-15
-2.20616e-16
1.22806e-16
7.90198e-17
2.44783e-17
1.33181e-09
-3.68519e-09
1.6064e-08
-4.56631e-08
1.18176e-07
-5.36391e-07
3.76349e-06
-1.7575e-05
4.14189e-05
4.0134e-05
-0.000517478
0.000948598
0.00257527
-0.00934196
-0.0118688
0.0525841
0.103711
-0.128335
-0.76759
-1.44337
-1.64065
-1.31476
-0.729214
-0.250375
-0.0306175
0.00633252
0.000308113
-0.00144662
-0.000796425
-0.000166896
-1.65166e-05
-1.35992e-06
8.33292e-07
2.98552e-07
2.12386e-08
-7.26924e-09
1.29637e-10
8.73005e-10
-1.08063e-10
-8.67784e-11
-1.02567e-12
5.99376e-12
6.0618e-13
-2.1533e-13
-5.02071e-14
-1.46777e-15
4.49382e-16
2.45166e-16
1.02038e-16
2.95829e-17
1.35444e-08
-7.5497e-09
3.06735e-08
-3.68895e-08
-5.06014e-08
-9.42441e-08
4.59057e-06
-3.05763e-05
0.00010823
-0.000106706
-0.000629669
0.00214535
0.00141152
-0.0149608
-0.00305918
0.0837205
0.0921296
-0.289914
-1.06757
-1.72166
-1.77395
-1.3046
-0.654868
-0.192106
-0.0114786
0.00565256
-0.00052739
-0.00160791
-0.000704444
-0.000118956
-9.68898e-06
2.67118e-07
8.7904e-07
1.35457e-07
-4.41789e-09
-2.2745e-10
2.36127e-09
3.45807e-10
-2.75255e-10
-5.3698e-11
1.56125e-11
4.73845e-12
-6.44338e-13
-3.35916e-13
-2.10556e-14
2.32277e-15
8.64635e-16
3.06702e-16
1.15038e-16
3.24432e-17
3.1249e-08
-1.54386e-09
5.86129e-09
1.50008e-07
-1.01665e-06
3.62615e-06
-3.73175e-06
-3.36169e-05
0.000188104
-0.000399108
-0.000409926
0.00351456
-0.00180355
-0.0200214
0.0156217
0.115522
0.0358068
-0.52973
-1.42183
-1.98758
-1.86722
-1.2522
-0.560829
-0.134068
0.00210537
0.00391383
-0.00142625
-0.00168979
-0.000582511
-7.46585e-05
-4.04601e-06
1.13629e-06
6.01264e-07
2.6176e-08
3.33029e-09
7.75062e-09
2.34587e-09
-5.26761e-10
-3.03138e-10
8.43442e-12
1.98798e-11
-3.78249e-14
-1.44203e-12
-2.09946e-13
1.49199e-14
4.05076e-15
5.94576e-16
3.12982e-16
1.16974e-16
3.2632e-17
3.24715e-08
8.66116e-09
-4.0677e-08
3.85334e-07
-2.43327e-06
1.10372e-05
-2.92568e-05
1.24888e-05
0.000228345
-0.000819977
0.00046054
0.00443169
-0.0077314
-0.0216211
0.0474282
0.136897
-0.0853666
-0.858992
-1.8151
-2.21713
-1.91114
-1.15547
-0.453071
-0.0810391
0.00908883
0.00202958
-0.00221746
-0.00165697
-0.000436978
-3.9603e-05
-7.71442e-07
1.07744e-06
2.64419e-07
7.02006e-09
2.76626e-08
1.04039e-08
8.8247e-11
-1.01989e-09
-1.64046e-10
5.08515e-11
1.10488e-11
-3.96509e-12
-1.245e-12
3.83304e-14
3.23934e-14
-2.60011e-16
1.76804e-16
2.93051e-16
1.08775e-16
3.04182e-17
-3.74936e-08
-2.09266e-08
1.83703e-08
1.15238e-07
-2.63171e-06
1.70004e-05
-6.67832e-05
0.000125754
0.000101266
-0.00118663
0.00209011
0.00364484
-0.0158211
-0.0113617
0.0908612
0.129894
-0.300688
-1.28078
-2.22043
-2.4089
-1.87446
-1.01635
-0.339981
-0.0374384
0.0104375
-6.08396e-05
-0.00282689
-0.00148277
-0.000288544
-1.71839e-05
1.69788e-07
5.56071e-07
9.05163e-08
6.83369e-08
4.18461e-08
5.6297e-09
-2.24797e-09
-9.43168e-10
4.26361e-11
5.85638e-11
-3.57256e-12
-4.69094e-12
-2.03656e-13
1.85727e-13
9.65956e-15
-5.87931e-15
-4.56775e-17
2.84222e-16
9.51983e-17
2.67723e-17
-1.7343e-07
-1.7789e-07
5.56277e-07
-2.16702e-06
3.41839e-06
1.11911e-05
-9.23807e-05
0.000289252
-0.000297525
-0.00114247
0.00416628
-0.000570728
-0.0229488
0.0133618
0.135535
0.0507951
-0.636282
-1.7834
-2.60001
-2.51774
-1.77073
-0.848121
-0.230906
-0.00641975
0.00762146
-0.00209988
-0.00307339
-0.00118743
-0.000165497
-7.77884e-06
-7.84368e-07
2.01118e-07
1.36782e-07
1.28128e-07
3.35762e-08
-2.60907e-09
-3.04791e-09
-3.36541e-10
1.67356e-10
2.84974e-11
-1.16758e-11
-2.23497e-12
6.26155e-13
1.32944e-13
-3.40644e-14
-8.25147e-15
6.09721e-16
2.60994e-16
7.93836e-17
2.27811e-17
-2.70792e-07
-3.00884e-07
1.32021e-06
-5.8971e-06
1.74249e-05
-2.47531e-05
-5.55951e-05
0.000409326
-0.000944662
5.1718e-05
0.00556248
-0.00887805
-0.0247454
0.0575468
0.161003
-0.130505
-1.10615
-2.33634
-2.89423
-2.55318
-1.59561
-0.660362
-0.134868
0.0103846
0.00319699
-0.00377349
-0.00295203
-0.000847004
-8.29397e-05
-6.82647e-06
-1.34778e-06
3.25607e-07
2.9371e-07
1.32312e-07
1.03282e-08
-7.59532e-09
-2.08058e-09
2.396e-10
1.61548e-10
-1.32971e-11
-1.13832e-11
9.66662e-13
7.39142e-13
-7.13594e-14
-5.54967e-14
-2.69539e-15
1.33924e-15
2.30511e-16
6.29754e-17
1.92019e-17
-5.18994e-07
1.99444e-07
8.73245e-07
-7.26794e-06
3.24228e-05
-8.52828e-05
9.37918e-05
0.000267141
-0.00148217
0.00237344
0.00369781
-0.0199106
-0.00547528
0.115226
0.126335
-0.463085
-1.70945
-2.88577
-3.12441
-2.44945
-1.35488
-0.472093
-0.0600498
0.0140095
-0.000607959
-0.00470946
-0.00253464
-0.000533499
-4.1938e-05
-8.27053e-06
-9.37775e-07
6.57303e-07
3.76521e-07
8.46585e-08
-1.10047e-08
-7.24221e-09
-2.4375e-10
4.4715e-10
4.4681e-11
-3.4167e-11
-3.20702e-12
2.33927e-12
1.76036e-13
-2.04424e-13
-3.50199e-14
5.8686e-15
1.57139e-15
1.30839e-16
4.91673e-17
1.64865e-17
-1.29987e-06
1.90262e-06
-3.53131e-06
1.99039e-06
2.64054e-05
-0.000126873
0.000314831
-0.000281613
-0.00114835
0.00501726
-0.0035222
-0.02667
0.0350677
0.160986
-0.0320591
-0.979845
-2.41019
-3.36413
-3.2062
-2.24293
-1.08054
-0.29984
-0.010137
0.00998851
-0.00397413
-0.00500719
-0.00193272
-0.000297722
-2.99349e-05
-7.68827e-06
3.41117e-07
9.17028e-07
3.1541e-07
1.31913e-08
-1.8101e-08
-2.79076e-09
8.96145e-10
2.71433e-10
-5.92936e-11
-2.81686e-11
4.68993e-12
1.84846e-12
-3.86535e-13
-1.75655e-13
1.0201e-14
9.6558e-15
6.93914e-16
4.61761e-17
3.93601e-17
1.47266e-17
-1.35489e-06
5.00812e-06
-1.0535e-05
2.51398e-05
-2.63463e-05
-5.92773e-05
0.000409214
-0.00109193
0.000746823
0.00554587
-0.0157785
-0.014655
0.0984755
0.152895
-0.373308
-1.68675
-3.14073
-3.68531
-3.15518
-1.9359
-0.789878
-0.157385
0.0141622
0.00244186
-0.00647259
-0.004563
-0.0012976
-0.000152698
-2.74342e-05
-5.0811e-06
1.54285e-06
8.58587e-07
1.55522e-07
-2.74028e-08
-1.05406e-08
9.24899e-10
8.23791e-10
-5.49081e-11
-9.14735e-11
-2.42077e-12
7.31318e-12
1.5633e-13
-5.29505e-13
-3.11013e-14
3.50786e-14
5.37683e-15
-4.97719e-16
1.62648e-18
3.74554e-17
1.38022e-17
6.82933e-06
8.66114e-06
-1.12781e-05
4.5519e-05
-0.000106367
0.000159574
3.86916e-05
-0.00137161
0.00391296
-0.00044695
-0.0260939
0.0254911
0.156622
-0.00982699
-0.957653
-2.54557
-3.79282
-3.86472
-2.90429
-1.55001
-0.516703
-0.0560599
0.016547
-0.00349834
-0.00756266
-0.00372067
-0.000773856
-8.63426e-05
-2.26139e-05
-9.64602e-07
2.0405e-06
6.01686e-07
3.06278e-08
-2.71837e-08
-3.98148e-10
1.84534e-09
2.91779e-11
-2.10705e-10
-4.2472e-11
1.75015e-11
4.60223e-12
-9.45222e-13
-3.00646e-13
7.46962e-14
2.4799e-14
-2.35345e-15
-9.90825e-16
5.53154e-17
3.90779e-17
1.30225e-17
2.55278e-05
7.2674e-06
7.29873e-06
1.53347e-05
-0.000112242
0.00037177
-0.000789222
0.000199282
0.00532963
-0.0129342
-0.0157224
0.0953011
0.143542
-0.400092
-1.79101
-3.45733
-4.25705
-3.80869
-2.51131
-1.14114
-0.286259
0.00229349
0.00827599
-0.00827694
-0.0076211
-0.00265696
-0.000400035
-6.37757e-05
-1.42691e-05
2.01472e-06
1.68311e-06
2.91559e-07
-2.78187e-08
-7.80121e-09
3.78262e-09
3.87449e-10
-4.57012e-10
-1.40645e-10
1.95497e-11
1.89187e-11
-5.42792e-13
-1.09183e-12
3.32466e-14
7.89687e-14
-3.18361e-15
-5.74263e-15
-3.75501e-16
1.26656e-16
3.99281e-17
1.16283e-17
2.53854e-05
-1.46754e-05
2.48453e-05
-8.42903e-05
7.29184e-05
0.000135179
-0.00120587
0.00330106
-0.00054727
-0.0241916
0.0291117
0.158008
-0.0673264
-1.1031
-2.82338
-4.27394
-4.46949
-3.5131
-2.00411
-0.745404
-0.11563
0.021591
-0.0030073
-0.0112906
-0.00651971
-0.00162299
-0.000200994
-5.20817e-05
-6.67694e-06
3.16404e-06
1.11763e-06
1.10186e-07
-1.23177e-08
7.76036e-09
1.69144e-09
-1.03412e-09
-3.78078e-10
9.57639e-12
4.4263e-11
5.95682e-12
-2.95567e-12
-4.34178e-13
1.52686e-13
1.47417e-14
-1.73457e-14
-2.95957e-15
5.38509e-16
1.53828e-16
3.36714e-17
9.15538e-18
-6.98151e-05
-7.18089e-05
-2.04728e-05
-0.000145386
0.000334601
-0.000658336
0.000276578
0.00396222
-0.0135756
-0.00678964
0.106356
0.0914155
-0.589074
-2.11196
-3.90404
-4.8298
-4.37739
-3.00139
-1.45148
-0.410665
-0.0136868
0.0139833
-0.0107402
-0.0117419
-0.00486672
-0.000852057
-0.000130411
-3.62646e-05
-1.28212e-07
2.9007e-06
6.45221e-07
5.06953e-08
7.27442e-09
4.87654e-09
-2.298e-09
-1.14186e-09
-2.25778e-11
7.43502e-11
2.31228e-11
-5.62851e-12
-2.05778e-12
2.57255e-13
1.09542e-13
-3.19236e-14
-1.13686e-14
1.65999e-15
8.66981e-16
1.03983e-16
2.18113e-17
6.04454e-18
-0.000196922
-9.3257e-05
-0.000122325
6.57799e-05
0.00014561
-0.000916417
0.00321642
-0.00335615
-0.0169656
0.0515619
0.144466
-0.25333
-1.49619
-3.32303
-4.82155
-4.99514
-3.98514
-2.34871
-0.923015
-0.164155
0.0265215
-0.0012115
-0.0157077
-0.0104721
-0.0030725
-0.000394253
-0.00010732
-2.11461e-05
3.57132e-06
2.14078e-06
3.71181e-07
3.97696e-08
1.08399e-08
-2.99198e-09
-3.06116e-09
-2.09524e-10
1.61858e-10
4.32222e-11
-3.73538e-12
-6.42282e-12
3.01424e-13
3.67626e-13
-3.60126e-14
-3.15468e-14
2.91666e-15
3.35497e-15
4.60137e-16
3.10297e-17
9.13866e-18
3.25762e-18
-2.6147e-05
5.81374e-05
-3.33399e-05
0.000427144
-0.000652815
0.000892969
0.00137668
-0.0149143
0.0170743
0.128806
-0.0742778
-1.03183
-2.73173
-4.50349
-5.35326
-4.78995
-3.30986
-1.63699
-0.481112
-0.0179926
0.0213991
-0.0132528
-0.0166741
-0.00778476
-0.00157863
-0.000239862
-8.13351e-05
-7.18113e-06
4.78922e-06
1.50524e-06
2.23616e-07
2.15442e-08
-4.35551e-09
-6.91734e-09
-1.13696e-09
3.91296e-10
8.75528e-11
-6.27657e-12
-1.29437e-11
-4.0564e-13
1.24904e-12
5.5165e-14
-7.47235e-14
-7.21432e-16
8.7181e-15
1.59213e-15
-6.78627e-17
-1.48349e-17
1.73625e-18
1.67869e-18
0.000382668
0.000253185
0.000364119
5.65332e-05
-0.000602107
0.00194109
-0.00845973
0.00282643
0.0943784
0.00319048
-0.716697
-2.22793
-4.06612
-5.36637
-5.35314
-4.21159
-2.48318
-0.981429
-0.169903
0.0375118
0.00148422
-0.0197257
-0.0144543
-0.00484885
-0.000701046
-0.000201327
-4.81053e-05
3.25569e-06
4.08091e-06
8.50817e-07
8.36637e-08
-5.02223e-09
-1.08727e-08
-3.09715e-09
6.86745e-10
2.88489e-10
-4.56306e-11
-1.77447e-11
-1.49627e-12
3.40417e-12
4.77821e-13
-2.4014e-13
-3.91994e-14
1.66223e-14
4.6339e-15
-5.75419e-16
-2.60372e-16
-1.63814e-17
7.32131e-19
1.3607e-18
0.000450784
0.000260196
9.23161e-05
-0.00110404
0.000268831
-0.0027799
0.000762454
0.0676153
0.0206277
-0.535262
-1.85596
-3.64224
-5.16495
-5.67048
-4.91106
-3.32821
-1.62194
-0.45774
0.00246175
0.0305946
-0.0142774
-0.0203527
-0.0102446
-0.00243138
-0.000380783
-0.000149377
-1.93654e-05
7.61609e-06
2.77018e-06
3.63821e-07
3.7545e-09
-1.6492e-08
-7.78703e-09
6.94129e-10
8.28843e-10
-9.26696e-11
-5.78007e-11
-1.4393e-12
6.29379e-12
1.65733e-12
-6.51456e-13
-2.06607e-13
2.97565e-14
1.3929e-14
-1.3507e-15
-1.11114e-15
-1.11084e-16
2.4731e-18
3.37286e-18
1.67023e-18
-0.00116647
-0.00168642
-0.00198323
-0.00157567
0.0012872
0.00702195
0.0523058
0.00214406
-0.464674
-1.62324
-3.29584
-4.87425
-5.6994
-5.35527
-4.05833
-2.32645
-0.876826
-0.119214
0.0546439
0.00310647
-0.0220573
-0.0165364
-0.00589357
-0.00100187
-0.000345791
-9.03582e-05
3.63576e-06
6.98323e-06
1.36488e-06
3.441e-08
-2.71735e-08
-1.1643e-08
7.91654e-10
1.81424e-09
-1.4964e-10
-2.38005e-10
-9.59001e-12
1.4621e-11
6.25465e-12
-8.28073e-13
-6.90685e-13
2.2385e-14
4.09223e-14
-7.66627e-16
-2.93551e-15
-3.30036e-16
5.78803e-17
1.82949e-17
5.59057e-18
1.79967e-18
-0.00765842
-0.00423232
-0.000417849
0.00825489
0.0198269
0.0405133
-0.0435829
-0.48525
-1.51965
-3.04741
-4.56613
-5.52282
-5.53362
-4.56166
-2.97075
-1.37257
-0.331801
0.0400977
0.0323631
-0.016371
-0.0215176
-0.0105557
-0.00268624
-0.000573608
-0.000235069
-2.9478e-05
1.19065e-05
3.70724e-06
2.10365e-07
-4.37277e-08
-4.22275e-09
-7.42563e-10
2.3963e-09
-1.34858e-10
-6.00185e-10
-3.64863e-11
4.18211e-11
1.63185e-11
-7.4995e-13
-2.00291e-12
-1.79471e-13
1.16061e-13
9.50312e-15
-6.60755e-15
-7.68839e-16
3.5656e-16
1.06354e-16
2.01276e-17
5.18853e-18
1.37459e-18
0.0269166
0.0311662
0.030874
0.0401305
0.019844
-0.124948
-0.582067
-1.52297
-2.87567
-4.25125
-5.19495
-5.4176
-4.78437
-3.44961
-1.85891
-0.617741
-0.0278286
0.0588416
-0.00507116
-0.0251073
-0.015998
-0.00526218
-0.00101878
-0.000514857
-0.000127029
7.20524e-06
9.49741e-06
1.49717e-06
-4.39463e-08
1.20602e-08
4.37348e-09
2.50606e-09
4.25545e-10
-1.04297e-09
-2.24923e-10
8.2209e-11
3.15674e-11
4.11933e-12
-3.20367e-12
-5.84501e-13
2.83784e-13
6.07476e-14
-1.60113e-14
-3.15543e-15
1.09958e-15
3.94528e-16
5.76323e-17
1.14176e-17
2.6808e-18
5.70469e-19
0.0727359
0.0485941
0.0362219
-0.0263995
-0.249986
-0.721531
-1.56171
-2.70962
-3.87344
-4.71499
-5.02987
-4.70135
-3.68119
-2.24157
-0.911366
-0.142821
0.065972
0.0112072
-0.0267109
-0.0222688
-0.00861584
-0.00192542
-0.000781731
-0.000303416
-2.83016e-05
1.67927e-05
3.60472e-06
-2.48537e-07
-4.57054e-08
4.27132e-08
4.63406e-09
-2.81195e-10
-1.92253e-09
-7.12087e-10
1.33529e-10
7.23024e-11
1.56618e-11
-3.2081e-12
-2.24158e-12
1.82169e-13
1.57377e-13
-3.76194e-14
-1.16933e-14
2.76285e-15
1.12059e-15
9.97865e-17
6.75648e-18
1.08711e-18
-6.13707e-20
-1.76999e-19
-0.134038
-0.138334
-0.155424
-0.294329
-0.654626
-1.33608
-2.24807
-3.24873
-4.02678
-4.39281
-4.31402
-3.63783
-2.43782
-1.1468
-0.262543
0.0531918
0.0274984
-0.0297249
-0.0319586
-0.0145855
-0.00354748
-0.000799515
-0.000708818
-0.000152445
1.59945e-05
9.38798e-06
7.77159e-07
2.61812e-08
1.62017e-07
2.62509e-08
-4.41385e-09
-3.04334e-09
-1.09256e-09
2.05549e-10
1.33484e-10
2.26041e-11
1.46414e-12
-3.78847e-12
-1.4008e-13
4.30464e-13
-1.43477e-14
-3.19685e-14
5.18499e-15
3.069e-15
6.17781e-17
-6.75182e-17
-1.63496e-17
-4.64147e-18
-1.57623e-18
-5.60361e-19
-0.181428
-0.161003
-0.17144
-0.354853
-0.778708
-1.45727
-2.21339
-2.93013
-3.47495
-3.66793
-3.32071
-2.40884
-1.25847
-0.354119
0.0420431
0.047618
-0.0322205
-0.0455735
-0.024448
-0.00704075
-0.000803423
-0.00114144
-0.000369354
-4.17491e-06
2.09387e-05
1.97931e-06
-6.81227e-07
5.84977e-08
6.15266e-08
-1.06644e-08
-6.69097e-09
-2.0384e-09
1.07112e-13
4.85059e-11
-4.17727e-11
1.08873e-11
-1.45082e-12
-1.23466e-12
4.29316e-13
2.22552e-14
-9.80088e-14
4.66509e-16
7.21448e-15
5.46205e-17
-3.71477e-16
-7.3184e-17
-1.65166e-17
-5.17724e-18
-1.71644e-18
-5.72918e-19
-0.0668184
-0.0525818
-0.0484279
-0.238601
-0.679887
-1.24476
-1.7852
-2.29679
-2.7392
-2.76909
-2.16239
-1.21242
-0.373603
0.0439908
0.0778197
-0.0236312
-0.0561205
-0.0369415
-0.0137702
-0.00287628
-0.000916877
-0.000843034
-0.000126119
2.2834e-05
9.46627e-07
-2.06153e-06
2.72872e-07
3.32793e-07
4.00783e-08
-1.18326e-08
-4.26575e-09
2.6878e-10
4.2037e-10
-7.05993e-11
3.60279e-11
3.02723e-11
9.19801e-13
1.67074e-13
2.02099e-13
-1.62108e-13
-1.1381e-14
1.76409e-14
1.10679e-15
-1.28109e-15
-2.06863e-16
-2.70689e-17
-8.79257e-18
-3.28168e-18
-1.16183e-18
-3.9669e-19
0.0303942
0.026297
0.0362509
-0.0934251
-0.441969
-0.854726
-1.26398
-1.697
-1.95229
-1.72503
-1.02446
-0.316156
0.0663128
0.115271
0.000730681
-0.0564645
-0.0482017
-0.0229032
-0.00794457
-0.00157052
-0.00121003
-0.000339651
1.14716e-05
4.50323e-06
-1.07426e-06
4.35549e-07
6.32028e-07
1.58619e-08
-4.87289e-08
-1.27083e-08
6.14052e-10
1.14868e-09
-3.9341e-10
-1.71214e-10
6.20077e-11
8.6823e-12
-3.89257e-12
-4.43745e-13
-1.66539e-13
-7.24707e-14
2.95029e-14
3.71844e-15
-2.86095e-15
-4.65713e-16
2.14681e-17
1.0854e-18
-2.33664e-18
-1.36651e-18
-5.67004e-19
-2.08517e-19
0.0189687
0.0136107
0.0148484
-0.00769414
-0.180512
-0.459688
-0.788351
-1.01603
-1.04772
-0.733824
-0.234206
0.0822502
0.135819
0.0357847
-0.0355061
-0.0456322
-0.0282863
-0.013113
-0.00497159
-0.00128045
-0.000762595
-6.69873e-05
7.89586e-06
-1.06237e-06
-1.84977e-06
3.35759e-07
1.7615e-07
-2.08115e-09
5.49534e-09
3.52757e-09
1.60994e-09
-8.38565e-10
-5.70696e-10
1.28924e-10
8.3406e-11
9.12821e-13
-1.51835e-12
4.70331e-14
-2.05316e-13
4.03457e-14
2.10366e-14
-2.2713e-15
-7.3407e-16
2.54638e-16
5.1881e-17
5.35266e-18
-7.92523e-20
-4.23142e-19
-2.21193e-19
-8.92369e-20
-0.0142451
-0.0110793
-0.0156628
-0.00629622
-0.0231011
-0.14516
-0.292605
-0.367051
-0.362273
-0.16723
0.0325264
0.0959133
0.0517679
-0.000525851
-0.0202197
-0.0218431
-0.0152317
-0.00875629
-0.00396075
-0.000797982
-0.000129843
3.0502e-05
-2.88792e-06
-6.57894e-06
2.21313e-07
9.42137e-07
1.68269e-07
-5.10054e-08
-2.16785e-08
-3.32016e-09
-7.64481e-10
-7.21779e-10
8.0518e-11
1.6874e-10
1.07645e-11
-1.04924e-11
-1.96654e-12
-3.2769e-13
5.06346e-14
5.42068e-14
-3.89298e-16
-2.55407e-15
4.22518e-16
1.21465e-16
1.06021e-17
9.92438e-19
-1.50369e-19
-1.73952e-19
-8.55252e-20
-3.44413e-20
0.00577372
0.0040003
0.00928404
0.00348263
0.00379179
0.0143515
0.0366169
-0.00302708
-0.0964565
-0.0717933
-0.0315688
-0.00125407
0.0130435
0.0137722
-0.00140182
-0.0106668
-0.0101967
-0.00693171
-0.00195629
-0.000180391
-3.2797e-06
-3.1449e-05
-1.58414e-05
8.79397e-07
2.0566e-06
1.51005e-07
-2.34686e-07
-5.48055e-08
1.32023e-08
6.64369e-09
-4.28389e-10
-3.18293e-10
1.27028e-10
6.56074e-11
-5.03264e-12
-1.68985e-12
7.02078e-13
1.08072e-13
6.79931e-14
-2.36241e-16
-4.65882e-15
4.32944e-16
1.86864e-16
-2.61135e-17
-8.07939e-18
-1.94373e-18
-4.96525e-19
-1.39613e-19
-4.23058e-20
-1.37276e-20
-0.00781991
0.00501552
0.018455
-0.0116885
-0.0589716
0.0356343
0.190356
0.0628679
-0.091158
-0.17314
-0.131514
-0.0377535
0.018948
0.0193884
0.00243721
-0.00716283
-0.00755502
-0.00380375
-0.000636984
-1.18028e-05
-5.13189e-05
-1.82989e-05
2.72784e-06
2.72062e-06
-3.85457e-08
-3.60555e-07
-1.13496e-08
4.89852e-08
1.04073e-08
-5.10286e-09
-2.37376e-09
3.90462e-11
1.66689e-10
4.22572e-11
-1.462e-12
-1.51611e-12
-8.86934e-13
-7.34894e-14
2.89662e-14
4.86337e-15
1.43041e-15
1.26916e-16
-1.53288e-16
-3.85347e-17
-8.74182e-18
-1.97459e-18
-4.3179e-19
-9.43823e-20
-2.15214e-20
-5.47623e-21
-0.0342319
0.0727345
0.114872
0.0171439
-0.245291
0.15184
0.292807
0.127334
-0.129943
-0.221371
-0.137116
-0.0245399
0.022706
0.0176919
0.00201637
-0.00485414
-0.00401175
-0.00184397
4.10373e-06
-9.73193e-05
-4.01768e-05
-6.13547e-06
1.65142e-07
-2.08809e-07
-2.29414e-07
6.72003e-08
6.19731e-08
1.54459e-09
-1.01058e-08
-3.11626e-09
5.67511e-10
5.04932e-10
9.44248e-11
2.41261e-12
-5.2841e-12
-7.23651e-13
2.47947e-13
1.81351e-13
3.55159e-14
9.86517e-16
-8.40046e-16