/*--------------------------------*- C++ -*----------------------------------*\
| =========                 |                                                 |
| \\      /  F ield         | OpenFOAM: The Open Source CFD Toolbox           |
|  \\    /   O peration     | Version:  v2006                                 |
|   \\  /    A nd           | Website:  www.openfoam.com                      |
|    \\/     M anipulation  |                                                 |
\*---------------------------------------------------------------------------*/
FoamFile
{
    version     2.0;
    format      ascii;
    class       volVectorField;
    location    "0";
    object      U_new;
}
// * * * * * * * * * * * * * * * * * * * * * * * * * * * * * * * * * * * * * //

dimensions      [0 1 -1 0 0 0 0];


internalField   nonuniform List<vector> 
2500
(
(0.000752 -0.070688 0)
(0.000752 -0.212064 0)
(0.000752 -0.35344 0)
(0.000752 -0.494816 0)
(0.000752 -0.636192 0)
(0.000752 -0.777568 0)
(0.000752 -0.918944 0)
(0.000752 -1.06032 0)
(0.000752 -1.2017 0)
(0.000752 -1.34307 0)
(0.000752 -1.48445 0)
(0.000752 -1.62582 0)
(0.000752 -1.7672 0)
(0.000752 -1.90858 0)
(0.000752 -2.04995 0)
(0.000752 -2.19133 0)
(0.000752 -2.3327 0)
(0.000752 -2.47408 0)
(0.000752 -2.61546 0)
(0.000752 -2.75683 0)
(0.000752 -2.89821 0)
(0.000752 -3.03958 0)
(0.000752 -3.18096 0)
(0.000752 -3.32234 0)
(0.000752 -3.46371 0)
(0.000752 -3.60509 0)
(0.000752 -3.74646 0)
(0.000752 -3.88784 0)
(0.000752 -4.02922 0)
(0.000752 -4.17059 0)
(0.000752 -4.31197 0)
(0.000752 -4.45334 0)
(0.000752 -4.59472 0)
(0.000752 -4.7361 0)
(0.000752 -4.87747 0)
(0.000752 -5.01885 0)
(0.000752 -5.16022 0)
(0.000752 -5.3016 0)
(0.000752 -5.44298 0)
(0.000752 -5.58435 0)
(0.000752 -5.72573 0)
(0.000752 -5.8671 0)
(0.000752 -6.00848 0)
(0.000752 -6.14986 0)
(0.000752 -6.29123 0)
(0.000752 -6.43261 0)
(0.000752 -6.57398 0)
(0.000752 -6.71536 0)
(0.000752 -6.85674 0)
(0.000752 -6.99811 0)
(0.006768 -0.070688 0)
(0.006768 -0.212064 0)
(0.006768 -0.35344 0)
(0.006768 -0.494816 0)
(0.006768 -0.636192 0)
(0.006768 -0.777568 0)
(0.006768 -0.918944 0)
(0.006768 -1.06032 0)
(0.006768 -1.2017 0)
(0.006768 -1.34307 0)
(0.006768 -1.48445 0)
(0.006768 -1.62582 0)
(0.006768 -1.7672 0)
(0.006768 -1.90858 0)
(0.006768 -2.04995 0)
(0.006768 -2.19133 0)
(0.006768 -2.3327 0)
(0.006768 -2.47408 0)
(0.006768 -2.61546 0)
(0.006768 -2.75683 0)
(0.006768 -2.89821 0)
(0.006768 -3.03958 0)
(0.006768 -3.18096 0)
(0.006768 -3.32234 0)
(0.006768 -3.46371 0)
(0.006768 -3.60509 0)
(0.006768 -3.74646 0)
(0.006768 -3.88784 0)
(0.006768 -4.02922 0)
(0.006768 -4.17059 0)
(0.006768 -4.31197 0)
(0.006768 -4.45334 0)
(0.006768 -4.59472 0)
(0.006768 -4.7361 0)
(0.006768 -4.87747 0)
(0.006768 -5.01885 0)
(0.006768 -5.16022 0)
(0.006768 -5.3016 0)
(0.006768 -5.44298 0)
(0.006768 -5.58435 0)
(0.006768 -5.72573 0)
(0.006768 -5.8671 0)
(0.006768 -6.00848 0)
(0.006768 -6.14986 0)
(0.006768 -6.29123 0)
(0.006768 -6.43261 0)
(0.006768 -6.57398 0)
(0.006768 -6.71536 0)
(0.006768 -6.85674 0)
(0.006768 -6.99811 0)
(0.0188 -0.070688 0)
(0.0188 -0.212064 0)
(0.0188 -0.35344 0)
(0.0188 -0.494816 0)
(0.0188 -0.636192 0)
(0.0188 -0.777568 0)
(0.0188 -0.918944 0)
(0.0188 -1.06032 0)
(0.0188 -1.2017 0)
(0.0188 -1.34307 0)
(0.0188 -1.48445 0)
(0.0188 -1.62582 0)
(0.0188 -1.7672 0)
(0.0188 -1.90858 0)
(0.0188 -2.04995 0)
(0.0188 -2.19133 0)
(0.0188 -2.3327 0)
(0.0188 -2.47408 0)
(0.0188 -2.61546 0)
(0.0188 -2.75683 0)
(0.0188 -2.89821 0)
(0.0188 -3.03958 0)
(0.0188 -3.18096 0)
(0.0188 -3.32234 0)
(0.0188 -3.46371 0)
(0.0188 -3.60509 0)
(0.0188 -3.74646 0)
(0.0188 -3.88784 0)
(0.0188 -4.02922 0)
(0.0188 -4.17059 0)
(0.0188 -4.31197 0)
(0.0188 -4.45334 0)
(0.0188 -4.59472 0)
(0.0188 -4.7361 0)
(0.0188 -4.87747 0)
(0.0188 -5.01885 0)
(0.0188 -5.16022 0)
(0.0188 -5.3016 0)
(0.0188 -5.44298 0)
(0.0188 -5.58435 0)
(0.0188 -5.72573 0)
(0.0188 -5.8671 0)
(0.0188 -6.00848 0)
(0.0188 -6.14986 0)
(0.0188 -6.29123 0)
(0.0188 -6.43261 0)
(0.0188 -6.57398 0)
(0.0188 -6.71536 0)
(0.0188 -6.85674 0)
(0.0188 -6.99811 0)
(0.036848 -0.070688 0)
(0.036848 -0.212064 0)
(0.036848 -0.35344 0)
(0.036848 -0.494816 0)
(0.036848 -0.636192 0)
(0.036848 -0.777568 0)
(0.036848 -0.918944 0)
(0.036848 -1.06032 0)
(0.036848 -1.2017 0)
(0.036848 -1.34307 0)
(0.036848 -1.48445 0)
(0.036848 -1.62582 0)
(0.036848 -1.7672 0)
(0.036848 -1.90858 0)
(0.036848 -2.04995 0)
(0.036848 -2.19133 0)
(0.036848 -2.3327 0)
(0.036848 -2.47408 0)
(0.036848 -2.61546 0)
(0.036848 -2.75683 0)
(0.036848 -2.89821 0)
(0.036848 -3.03958 0)
(0.036848 -3.18096 0)
(0.036848 -3.32234 0)
(0.036848 -3.46371 0)
(0.036848 -3.60509 0)
(0.036848 -3.74646 0)
(0.036848 -3.88784 0)
(0.036848 -4.02922 0)
(0.036848 -4.17059 0)
(0.036848 -4.31197 0)
(0.036848 -4.45334 0)
(0.036848 -4.59472 0)
(0.036848 -4.7361 0)
(0.036848 -4.87747 0)
(0.036848 -5.01885 0)
(0.036848 -5.16022 0)
(0.036848 -5.3016 0)
(0.036848 -5.44298 0)
(0.036848 -5.58435 0)
(0.036848 -5.72573 0)
(0.036848 -5.8671 0)
(0.036848 -6.00848 0)
(0.036848 -6.14986 0)
(0.036848 -6.29123 0)
(0.036848 -6.43261 0)
(0.036848 -6.57398 0)
(0.036848 -6.71536 0)
(0.036848 -6.85674 0)
(0.036848 -6.99811 0)
(0.060912 -0.070688 0)
(0.060912 -0.212064 0)
(0.060912 -0.35344 0)
(0.060912 -0.494816 0)
(0.060912 -0.636192 0)
(0.060912 -0.777568 0)
(0.060912 -0.918944 0)
(0.060912 -1.06032 0)
(0.060912 -1.2017 0)
(0.060912 -1.34307 0)
(0.060912 -1.48445 0)
(0.060912 -1.62582 0)
(0.060912 -1.7672 0)
(0.060912 -1.90858 0)
(0.060912 -2.04995 0)
(0.060912 -2.19133 0)
(0.060912 -2.3327 0)
(0.060912 -2.47408 0)
(0.060912 -2.61546 0)
(0.060912 -2.75683 0)
(0.060912 -2.89821 0)
(0.060912 -3.03958 0)
(0.060912 -3.18096 0)
(0.060912 -3.32234 0)
(0.060912 -3.46371 0)
(0.060912 -3.60509 0)
(0.060912 -3.74646 0)
(0.060912 -3.88784 0)
(0.060912 -4.02922 0)
(0.060912 -4.17059 0)
(0.060912 -4.31197 0)
(0.060912 -4.45334 0)
(0.060912 -4.59472 0)
(0.060912 -4.7361 0)
(0.060912 -4.87747 0)
(0.060912 -5.01885 0)
(0.060912 -5.16022 0)
(0.060912 -5.3016 0)
(0.060912 -5.44298 0)
(0.060912 -5.58435 0)
(0.060912 -5.72573 0)
(0.060912 -5.8671 0)
(0.060912 -6.00848 0)
(0.060912 -6.14986 0)
(0.060912 -6.29123 0)
(0.060912 -6.43261 0)
(0.060912 -6.57398 0)
(0.060912 -6.71536 0)
(0.060912 -6.85674 0)
(0.060912 -6.99811 0)
(0.090992 -0.070688 0)
(0.090992 -0.212064 0)
(0.090992 -0.35344 0)
(0.090992 -0.494816 0)
(0.090992 -0.636192 0)
(0.090992 -0.777568 0)
(0.090992 -0.918944 0)
(0.090992 -1.06032 0)
(0.090992 -1.2017 0)
(0.090992 -1.34307 0)
(0.090992 -1.48445 0)
(0.090992 -1.62582 0)
(0.090992 -1.7672 0)
(0.090992 -1.90858 0)
(0.090992 -2.04995 0)
(0.090992 -2.19133 0)
(0.090992 -2.3327 0)
(0.090992 -2.47408 0)
(0.090992 -2.61546 0)
(0.090992 -2.75683 0)
(0.090992 -2.89821 0)
(0.090992 -3.03958 0)
(0.090992 -3.18096 0)
(0.090992 -3.32234 0)
(0.090992 -3.46371 0)
(0.090992 -3.60509 0)
(0.090992 -3.74646 0)
(0.090992 -3.88784 0)
(0.090992 -4.02922 0)
(0.090992 -4.17059 0)
(0.090992 -4.31197 0)
(0.090992 -4.45334 0)
(0.090992 -4.59472 0)
(0.090992 -4.7361 0)
(0.090992 -4.87747 0)
(0.090992 -5.01885 0)
(0.090992 -5.16022 0)
(0.090992 -5.3016 0)
(0.090992 -5.44298 0)
(0.090992 -5.58435 0)
(0.090992 -5.72573 0)
(0.090992 -5.8671 0)
(0.090992 -6.00848 0)
(0.090992 -6.14986 0)
(0.090992 -6.29123 0)
(0.090992 -6.43261 0)
(0.090992 -6.57398 0)
(0.090992 -6.71536 0)
(0.090992 -6.85674 0)
(0.090992 -6.99811 0)
(0.127088 -0.070688 0)
(0.127088 -0.212064 0)
(0.127088 -0.35344 0)
(0.127088 -0.494816 0)
(0.127088 -0.636192 0)
(0.127088 -0.777568 0)
(0.127088 -0.918944 0)
(0.127088 -1.06032 0)
(0.127088 -1.2017 0)
(0.127088 -1.34307 0)
(0.127088 -1.48445 0)
(0.127088 -1.62582 0)
(0.127088 -1.7672 0)
(0.127088 -1.90858 0)
(0.127088 -2.04995 0)
(0.127088 -2.19133 0)
(0.127088 -2.3327 0)
(0.127088 -2.47408 0)
(0.127088 -2.61546 0)
(0.127088 -2.75683 0)
(0.127088 -2.89821 0)
(0.127088 -3.03958 0)
(0.127088 -3.18096 0)
(0.127088 -3.32234 0)
(0.127088 -3.46371 0)
(0.127088 -3.60509 0)
(0.127088 -3.74646 0)
(0.127088 -3.88784 0)
(0.127088 -4.02922 0)
(0.127088 -4.17059 0)
(0.127088 -4.31197 0)
(0.127088 -4.45334 0)
(0.127088 -4.59472 0)
(0.127088 -4.7361 0)
(0.127088 -4.87747 0)
(0.127088 -5.01885 0)
(0.127088 -5.16022 0)
(0.127088 -5.3016 0)
(0.127088 -5.44298 0)
(0.127088 -5.58435 0)
(0.127088 -5.72573 0)
(0.127088 -5.8671 0)
(0.127088 -6.00848 0)
(0.127088 -6.14986 0)
(0.127088 -6.29123 0)
(0.127088 -6.43261 0)
(0.127088 -6.57398 0)
(0.127088 -6.71536 0)
(0.127088 -6.85674 0)
(0.127088 -6.99811 0)
(0.1692 -0.070688 0)
(0.1692 -0.212064 0)
(0.1692 -0.35344 0)
(0.1692 -0.494816 0)
(0.1692 -0.636192 0)
(0.1692 -0.777568 0)
(0.1692 -0.918944 0)
(0.1692 -1.06032 0)
(0.1692 -1.2017 0)
(0.1692 -1.34307 0)
(0.1692 -1.48445 0)
(0.1692 -1.62582 0)
(0.1692 -1.7672 0)
(0.1692 -1.90858 0)
(0.1692 -2.04995 0)
(0.1692 -2.19133 0)
(0.1692 -2.3327 0)
(0.1692 -2.47408 0)
(0.1692 -2.61546 0)
(0.1692 -2.75683 0)
(0.1692 -2.89821 0)
(0.1692 -3.03958 0)
(0.1692 -3.18096 0)
(0.1692 -3.32234 0)
(0.1692 -3.46371 0)
(0.1692 -3.60509 0)
(0.1692 -3.74646 0)
(0.1692 -3.88784 0)
(0.1692 -4.02922 0)
(0.1692 -4.17059 0)
(0.1692 -4.31197 0)
(0.1692 -4.45334 0)
(0.1692 -4.59472 0)
(0.1692 -4.7361 0)
(0.1692 -4.87747 0)
(0.1692 -5.01885 0)
(0.1692 -5.16022 0)
(0.1692 -5.3016 0)
(0.1692 -5.44298 0)
(0.1692 -5.58435 0)
(0.1692 -5.72573 0)
(0.1692 -5.8671 0)
(0.1692 -6.00848 0)
(0.1692 -6.14986 0)
(0.1692 -6.29123 0)
(0.1692 -6.43261 0)
(0.1692 -6.57398 0)
(0.1692 -6.71536 0)
(0.1692 -6.85674 0)
(0.1692 -6.99811 0)
(0.217328 -0.070688 0)
(0.217328 -0.212064 0)
(0.217328 -0.35344 0)
(0.217328 -0.494816 0)
(0.217328 -0.636192 0)
(0.217328 -0.777568 0)
(0.217328 -0.918944 0)
(0.217328 -1.06032 0)
(0.217328 -1.2017 0)
(0.217328 -1.34307 0)
(0.217328 -1.48445 0)
(0.217328 -1.62582 0)
(0.217328 -1.7672 0)
(0.217328 -1.90858 0)
(0.217328 -2.04995 0)
(0.217328 -2.19133 0)
(0.217328 -2.3327 0)
(0.217328 -2.47408 0)
(0.217328 -2.61546 0)
(0.217328 -2.75683 0)
(0.217328 -2.89821 0)
(0.217328 -3.03958 0)
(0.217328 -3.18096 0)
(0.217328 -3.32234 0)
(0.217328 -3.46371 0)
(0.217328 -3.60509 0)
(0.217328 -3.74646 0)
(0.217328 -3.88784 0)
(0.217328 -4.02922 0)
(0.217328 -4.17059 0)
(0.217328 -4.31197 0)
(0.217328 -4.45334 0)
(0.217328 -4.59472 0)
(0.217328 -4.7361 0)
(0.217328 -4.87747 0)
(0.217328 -5.01885 0)
(0.217328 -5.16022 0)
(0.217328 -5.3016 0)
(0.217328 -5.44298 0)
(0.217328 -5.58435 0)
(0.217328 -5.72573 0)
(0.217328 -5.8671 0)
(0.217328 -6.00848 0)
(0.217328 -6.14986 0)
(0.217328 -6.29123 0)
(0.217328 -6.43261 0)
(0.217328 -6.57398 0)
(0.217328 -6.71536 0)
(0.217328 -6.85674 0)
(0.217328 -6.99811 0)
(0.271472 -0.070688 0)
(0.271472 -0.212064 0)
(0.271472 -0.35344 0)
(0.271472 -0.494816 0)
(0.271472 -0.636192 0)
(0.271472 -0.777568 0)
(0.271472 -0.918944 0)
(0.271472 -1.06032 0)
(0.271472 -1.2017 0)
(0.271472 -1.34307 0)
(0.271472 -1.48445 0)
(0.271472 -1.62582 0)
(0.271472 -1.7672 0)
(0.271472 -1.90858 0)
(0.271472 -2.04995 0)
(0.271472 -2.19133 0)
(0.271472 -2.3327 0)
(0.271472 -2.47408 0)
(0.271472 -2.61546 0)
(0.271472 -2.75683 0)
(0.271472 -2.89821 0)
(0.271472 -3.03958 0)
(0.271472 -3.18096 0)
(0.271472 -3.32234 0)
(0.271472 -3.46371 0)
(0.271472 -3.60509 0)
(0.271472 -3.74646 0)
(0.271472 -3.88784 0)
(0.271472 -4.02922 0)
(0.271472 -4.17059 0)
(0.271472 -4.31197 0)
(0.271472 -4.45334 0)
(0.271472 -4.59472 0)
(0.271472 -4.7361 0)
(0.271472 -4.87747 0)
(0.271472 -5.01885 0)
(0.271472 -5.16022 0)
(0.271472 -5.3016 0)
(0.271472 -5.44298 0)
(0.271472 -5.58435 0)
(0.271472 -5.72573 0)
(0.271472 -5.8671 0)
(0.271472 -6.00848 0)
(0.271472 -6.14986 0)
(0.271472 -6.29123 0)
(0.271472 -6.43261 0)
(0.271472 -6.57398 0)
(0.271472 -6.71536 0)
(0.271472 -6.85674 0)
(0.271472 -6.99811 0)
(0.331632 -0.070688 0)
(0.331632 -0.212064 0)
(0.331632 -0.35344 0)
(0.331632 -0.494816 0)
(0.331632 -0.636192 0)
(0.331632 -0.777568 0)
(0.331632 -0.918944 0)
(0.331632 -1.06032 0)
(0.331632 -1.2017 0)
(0.331632 -1.34307 0)
(0.331632 -1.48445 0)
(0.331632 -1.62582 0)
(0.331632 -1.7672 0)
(0.331632 -1.90858 0)
(0.331632 -2.04995 0)
(0.331632 -2.19133 0)
(0.331632 -2.3327 0)
(0.331632 -2.47408 0)
(0.331632 -2.61546 0)
(0.331632 -2.75683 0)
(0.331632 -2.89821 0)
(0.331632 -3.03958 0)
(0.331632 -3.18096 0)
(0.331632 -3.32234 0)
(0.331632 -3.46371 0)
(0.331632 -3.60509 0)
(0.331632 -3.74646 0)
(0.331632 -3.88784 0)
(0.331632 -4.02922 0)
(0.331632 -4.17059 0)
(0.331632 -4.31197 0)
(0.331632 -4.45334 0)
(0.331632 -4.59472 0)
(0.331632 -4.7361 0)
(0.331632 -4.87747 0)
(0.331632 -5.01885 0)
(0.331632 -5.16022 0)
(0.331632 -5.3016 0)
(0.331632 -5.44298 0)
(0.331632 -5.58435 0)
(0.331632 -5.72573 0)
(0.331632 -5.8671 0)
(0.331632 -6.00848 0)
(0.331632 -6.14986 0)
(0.331632 -6.29123 0)
(0.331632 -6.43261 0)
(0.331632 -6.57398 0)
(0.331632 -6.71536 0)
(0.331632 -6.85674 0)
(0.331632 -6.99811 0)
(0.397808 -0.070688 0)
(0.397808 -0.212064 0)
(0.397808 -0.35344 0)
(0.397808 -0.494816 0)
(0.397808 -0.636192 0)
(0.397808 -0.777568 0)
(0.397808 -0.918944 0)
(0.397808 -1.06032 0)
(0.397808 -1.2017 0)
(0.397808 -1.34307 0)
(0.397808 -1.48445 0)
(0.397808 -1.62582 0)
(0.397808 -1.7672 0)
(0.397808 -1.90858 0)
(0.397808 -2.04995 0)
(0.397808 -2.19133 0)
(0.397808 -2.3327 0)
(0.397808 -2.47408 0)
(0.397808 -2.61546 0)
(0.397808 -2.75683 0)
(0.397808 -2.89821 0)
(0.397808 -3.03958 0)
(0.397808 -3.18096 0)
(0.397808 -3.32234 0)
(0.397808 -3.46371 0)
(0.397808 -3.60509 0)
(0.397808 -3.74646 0)
(0.397808 -3.88784 0)
(0.397808 -4.02922 0)
(0.397808 -4.17059 0)
(0.397808 -4.31197 0)
(0.397808 -4.45334 0)
(0.397808 -4.59472 0)
(0.397808 -4.7361 0)
(0.397808 -4.87747 0)
(0.397808 -5.01885 0)
(0.397808 -5.16022 0)
(0.397808 -5.3016 0)
(0.397808 -5.44298 0)
(0.397808 -5.58435 0)
(0.397808 -5.72573 0)
(0.397808 -5.8671 0)
(0.397808 -6.00848 0)
(0.397808 -6.14986 0)
(0.397808 -6.29123 0)
(0.397808 -6.43261 0)
(0.397808 -6.57398 0)
(0.397808 -6.71536 0)
(0.397808 -6.85674 0)
(0.397808 -6.99811 0)
(0.47 -0.070688 0)
(0.47 -0.212064 0)
(0.47 -0.35344 0)
(0.47 -0.494816 0)
(0.47 -0.636192 0)
(0.47 -0.777568 0)
(0.47 -0.918944 0)
(0.47 -1.06032 0)
(0.47 -1.2017 0)
(0.47 -1.34307 0)
(0.47 -1.48445 0)
(0.47 -1.62582 0)
(0.47 -1.7672 0)
(0.47 -1.90858 0)
(0.47 -2.04995 0)
(0.47 -2.19133 0)
(0.47 -2.3327 0)
(0.47 -2.47408 0)
(0.47 -2.61546 0)
(0.47 -2.75683 0)
(0.47 -2.89821 0)
(0.47 -3.03958 0)
(0.47 -3.18096 0)
(0.47 -3.32234 0)
(0.47 -3.46371 0)
(0.47 -3.60509 0)
(0.47 -3.74646 0)
(0.47 -3.88784 0)
(0.47 -4.02922 0)
(0.47 -4.17059 0)
(0.47 -4.31197 0)
(0.47 -4.45334 0)
(0.47 -4.59472 0)
(0.47 -4.7361 0)
(0.47 -4.87747 0)
(0.47 -5.01885 0)
(0.47 -5.16022 0)
(0.47 -5.3016 0)
(0.47 -5.44298 0)
(0.47 -5.58435 0)
(0.47 -5.72573 0)
(0.47 -5.8671 0)
(0.47 -6.00848 0)
(0.47 -6.14986 0)
(0.47 -6.29123 0)
(0.47 -6.43261 0)
(0.47 -6.57398 0)
(0.47 -6.71536 0)
(0.47 -6.85674 0)
(0.47 -6.99811 0)
(0.548208 -0.070688 0)
(0.548208 -0.212064 0)
(0.548208 -0.35344 0)
(0.548208 -0.494816 0)
(0.548208 -0.636192 0)
(0.548208 -0.777568 0)
(0.548208 -0.918944 0)
(0.548208 -1.06032 0)
(0.548208 -1.2017 0)
(0.548208 -1.34307 0)
(0.548208 -1.48445 0)
(0.548208 -1.62582 0)
(0.548208 -1.7672 0)
(0.548208 -1.90858 0)
(0.548208 -2.04995 0)
(0.548208 -2.19133 0)
(0.548208 -2.3327 0)
(0.548208 -2.47408 0)
(0.548208 -2.61546 0)
(0.548208 -2.75683 0)
(0.548208 -2.89821 0)
(0.548208 -3.03958 0)
(0.548208 -3.18096 0)
(0.548208 -3.32234 0)
(0.548208 -3.46371 0)
(0.548208 -3.60509 0)
(0.548208 -3.74646 0)
(0.548208 -3.88784 0)
(0.548208 -4.02922 0)
(0.548208 -4.17059 0)
(0.548208 -4.31197 0)
(0.548208 -4.45334 0)
(0.548208 -4.59472 0)
(0.548208 -4.7361 0)
(0.548208 -4.87747 0)
(0.548208 -5.01885 0)
(0.548208 -5.16022 0)
(0.548208 -5.3016 0)
(0.548208 -5.44298 0)
(0.548208 -5.58435 0)
(0.548208 -5.72573 0)
(0.548208 -5.8671 0)
(0.548208 -6.00848 0)
(0.548208 -6.14986 0)
(0.548208 -6.29123 0)
(0.548208 -6.43261 0)
(0.548208 -6.57398 0)
(0.548208 -6.71536 0)
(0.548208 -6.85674 0)
(0.548208 -6.99811 0)
(0.632432 -0.070688 0)
(0.632432 -0.212064 0)
(0.632432 -0.35344 0)
(0.632432 -0.494816 0)
(0.632432 -0.636192 0)
(0.632432 -0.777568 0)
(0.632432 -0.918944 0)
(0.632432 -1.06032 0)
(0.632432 -1.2017 0)
(0.632432 -1.34307 0)
(0.632432 -1.48445 0)
(0.632432 -1.62582 0)
(0.632432 -1.7672 0)
(0.632432 -1.90858 0)
(0.632432 -2.04995 0)
(0.632432 -2.19133 0)
(0.632432 -2.3327 0)
(0.632432 -2.47408 0)
(0.632432 -2.61546 0)
(0.632432 -2.75683 0)
(0.632432 -2.89821 0)
(0.632432 -3.03958 0)
(0.632432 -3.18096 0)
(0.632432 -3.32234 0)
(0.632432 -3.46371 0)
(0.632432 -3.60509 0)
(0.632432 -3.74646 0)
(0.632432 -3.88784 0)
(0.632432 -4.02922 0)
(0.632432 -4.17059 0)
(0.632432 -4.31197 0)
(0.632432 -4.45334 0)
(0.632432 -4.59472 0)
(0.632432 -4.7361 0)
(0.632432 -4.87747 0)
(0.632432 -5.01885 0)
(0.632432 -5.16022 0)
(0.632432 -5.3016 0)
(0.632432 -5.44298 0)
(0.632432 -5.58435 0)
(0.632432 -5.72573 0)
(0.632432 -5.8671 0)
(0.632432 -6.00848 0)
(0.632432 -6.14986 0)
(0.632432 -6.29123 0)
(0.632432 -6.43261 0)
(0.632432 -6.57398 0)
(0.632432 -6.71536 0)
(0.632432 -6.85674 0)
(0.632432 -6.99811 0)
(0.722672 -0.070688 0)
(0.722672 -0.212064 0)
(0.722672 -0.35344 0)
(0.722672 -0.494816 0)
(0.722672 -0.636192 0)
(0.722672 -0.777568 0)
(0.722672 -0.918944 0)
(0.722672 -1.06032 0)
(0.722672 -1.2017 0)
(0.722672 -1.34307 0)
(0.722672 -1.48445 0)
(0.722672 -1.62582 0)
(0.722672 -1.7672 0)
(0.722672 -1.90858 0)
(0.722672 -2.04995 0)
(0.722672 -2.19133 0)
(0.722672 -2.3327 0)
(0.722672 -2.47408 0)
(0.722672 -2.61546 0)
(0.722672 -2.75683 0)
(0.722672 -2.89821 0)
(0.722672 -3.03958 0)
(0.722672 -3.18096 0)
(0.722672 -3.32234 0)
(0.722672 -3.46371 0)
(0.722672 -3.60509 0)
(0.722672 -3.74646 0)
(0.722672 -3.88784 0)
(0.722672 -4.02922 0)
(0.722672 -4.17059 0)
(0.722672 -4.31197 0)
(0.722672 -4.45334 0)
(0.722672 -4.59472 0)
(0.722672 -4.7361 0)
(0.722672 -4.87747 0)
(0.722672 -5.01885 0)
(0.722672 -5.16022 0)
(0.722672 -5.3016 0)
(0.722672 -5.44298 0)
(0.722672 -5.58435 0)
(0.722672 -5.72573 0)
(0.722672 -5.8671 0)
(0.722672 -6.00848 0)
(0.722672 -6.14986 0)
(0.722672 -6.29123 0)
(0.722672 -6.43261 0)
(0.722672 -6.57398 0)
(0.722672 -6.71536 0)
(0.722672 -6.85674 0)
(0.722672 -6.99811 0)
(0.818928 -0.070688 0)
(0.818928 -0.212064 0)
(0.818928 -0.35344 0)
(0.818928 -0.494816 0)
(0.818928 -0.636192 0)
(0.818928 -0.777568 0)
(0.818928 -0.918944 0)
(0.818928 -1.06032 0)
(0.818928 -1.2017 0)
(0.818928 -1.34307 0)
(0.818928 -1.48445 0)
(0.818928 -1.62582 0)
(0.818928 -1.7672 0)
(0.818928 -1.90858 0)
(0.818928 -2.04995 0)
(0.818928 -2.19133 0)
(0.818928 -2.3327 0)
(0.818928 -2.47408 0)
(0.818928 -2.61546 0)
(0.818928 -2.75683 0)
(0.818928 -2.89821 0)
(0.818928 -3.03958 0)
(0.818928 -3.18096 0)
(0.818928 -3.32234 0)
(0.818928 -3.46371 0)
(0.818928 -3.60509 0)
(0.818928 -3.74646 0)
(0.818928 -3.88784 0)
(0.818928 -4.02922 0)
(0.818928 -4.17059 0)
(0.818928 -4.31197 0)
(0.818928 -4.45334 0)
(0.818928 -4.59472 0)
(0.818928 -4.7361 0)
(0.818928 -4.87747 0)
(0.818928 -5.01885 0)
(0.818928 -5.16022 0)
(0.818928 -5.3016 0)
(0.818928 -5.44298 0)
(0.818928 -5.58435 0)
(0.818928 -5.72573 0)
(0.818928 -5.8671 0)
(0.818928 -6.00848 0)
(0.818928 -6.14986 0)
(0.818928 -6.29123 0)
(0.818928 -6.43261 0)
(0.818928 -6.57398 0)
(0.818928 -6.71536 0)
(0.818928 -6.85674 0)
(0.818928 -6.99811 0)
(0.9212 -0.070688 0)
(0.9212 -0.212064 0)
(0.9212 -0.35344 0)
(0.9212 -0.494816 0)
(0.9212 -0.636192 0)
(0.9212 -0.777568 0)
(0.9212 -0.918944 0)
(0.9212 -1.06032 0)
(0.9212 -1.2017 0)
(0.9212 -1.34307 0)
(0.9212 -1.48445 0)
(0.9212 -1.62582 0)
(0.9212 -1.7672 0)
(0.9212 -1.90858 0)
(0.9212 -2.04995 0)
(0.9212 -2.19133 0)
(0.9212 -2.3327 0)
(0.9212 -2.47408 0)
(0.9212 -2.61546 0)
(0.9212 -2.75683 0)
(0.9212 -2.89821 0)
(0.9212 -3.03958 0)
(0.9212 -3.18096 0)
(0.9212 -3.32234 0)
(0.9212 -3.46371 0)
(0.9212 -3.60509 0)
(0.9212 -3.74646 0)
(0.9212 -3.88784 0)
(0.9212 -4.02922 0)
(0.9212 -4.17059 0)
(0.9212 -4.31197 0)
(0.9212 -4.45334 0)
(0.9212 -4.59472 0)
(0.9212 -4.7361 0)
(0.9212 -4.87747 0)
(0.9212 -5.01885 0)
(0.9212 -5.16022 0)
(0.9212 -5.3016 0)
(0.9212 -5.44298 0)
(0.9212 -5.58435 0)
(0.9212 -5.72573 0)
(0.9212 -5.8671 0)
(0.9212 -6.00848 0)
(0.9212 -6.14986 0)
(0.9212 -6.29123 0)
(0.9212 -6.43261 0)
(0.9212 -6.57398 0)
(0.9212 -6.71536 0)
(0.9212 -6.85674 0)
(0.9212 -6.99811 0)
(1.02949 -0.070688 0)
(1.02949 -0.212064 0)
(1.02949 -0.35344 0)
(1.02949 -0.494816 0)
(1.02949 -0.636192 0)
(1.02949 -0.777568 0)
(1.02949 -0.918944 0)
(1.02949 -1.06032 0)
(1.02949 -1.2017 0)
(1.02949 -1.34307 0)
(1.02949 -1.48445 0)
(1.02949 -1.62582 0)
(1.02949 -1.7672 0)
(1.02949 -1.90858 0)
(1.02949 -2.04995 0)
(1.02949 -2.19133 0)
(1.02949 -2.3327 0)
(1.02949 -2.47408 0)
(1.02949 -2.61546 0)
(1.02949 -2.75683 0)
(1.02949 -2.89821 0)
(1.02949 -3.03958 0)
(1.02949 -3.18096 0)
(1.02949 -3.32234 0)
(1.02949 -3.46371 0)
(1.02949 -3.60509 0)
(1.02949 -3.74646 0)
(1.02949 -3.88784 0)
(1.02949 -4.02922 0)
(1.02949 -4.17059 0)
(1.02949 -4.31197 0)
(1.02949 -4.45334 0)
(1.02949 -4.59472 0)
(1.02949 -4.7361 0)
(1.02949 -4.87747 0)
(1.02949 -5.01885 0)
(1.02949 -5.16022 0)
(1.02949 -5.3016 0)
(1.02949 -5.44298 0)
(1.02949 -5.58435 0)
(1.02949 -5.72573 0)
(1.02949 -5.8671 0)
(1.02949 -6.00848 0)
(1.02949 -6.14986 0)
(1.02949 -6.29123 0)
(1.02949 -6.43261 0)
(1.02949 -6.57398 0)
(1.02949 -6.71536 0)
(1.02949 -6.85674 0)
(1.02949 -6.99811 0)
(1.14379 -0.070688 0)
(1.14379 -0.212064 0)
(1.14379 -0.35344 0)
(1.14379 -0.494816 0)
(1.14379 -0.636192 0)
(1.14379 -0.777568 0)
(1.14379 -0.918944 0)
(1.14379 -1.06032 0)
(1.14379 -1.2017 0)
(1.14379 -1.34307 0)
(1.14379 -1.48445 0)
(1.14379 -1.62582 0)
(1.14379 -1.7672 0)
(1.14379 -1.90858 0)
(1.14379 -2.04995 0)
(1.14379 -2.19133 0)
(1.14379 -2.3327 0)
(1.14379 -2.47408 0)
(1.14379 -2.61546 0)
(1.14379 -2.75683 0)
(1.14379 -2.89821 0)
(1.14379 -3.03958 0)
(1.14379 -3.18096 0)
(1.14379 -3.32234 0)
(1.14379 -3.46371 0)
(1.14379 -3.60509 0)
(1.14379 -3.74646 0)
(1.14379 -3.88784 0)
(1.14379 -4.02922 0)
(1.14379 -4.17059 0)
(1.14379 -4.31197 0)
(1.14379 -4.45334 0)
(1.14379 -4.59472 0)
(1.14379 -4.7361 0)
(1.14379 -4.87747 0)
(1.14379 -5.01885 0)
(1.14379 -5.16022 0)
(1.14379 -5.3016 0)
(1.14379 -5.44298 0)
(1.14379 -5.58435 0)
(1.14379 -5.72573 0)
(1.14379 -5.8671 0)
(1.14379 -6.00848 0)
(1.14379 -6.14986 0)
(1.14379 -6.29123 0)
(1.14379 -6.43261 0)
(1.14379 -6.57398 0)
(1.14379 -6.71536 0)
(1.14379 -6.85674 0)
(1.14379 -6.99811 0)
(1.26411 -0.070688 0)
(1.26411 -0.212064 0)
(1.26411 -0.35344 0)
(1.26411 -0.494816 0)
(1.26411 -0.636192 0)
(1.26411 -0.777568 0)
(1.26411 -0.918944 0)
(1.26411 -1.06032 0)
(1.26411 -1.2017 0)
(1.26411 -1.34307 0)
(1.26411 -1.48445 0)
(1.26411 -1.62582 0)
(1.26411 -1.7672 0)
(1.26411 -1.90858 0)
(1.26411 -2.04995 0)
(1.26411 -2.19133 0)
(1.26411 -2.3327 0)
(1.26411 -2.47408 0)
(1.26411 -2.61546 0)
(1.26411 -2.75683 0)
(1.26411 -2.89821 0)
(1.26411 -3.03958 0)
(1.26411 -3.18096 0)
(1.26411 -3.32234 0)
(1.26411 -3.46371 0)
(1.26411 -3.60509 0)
(1.26411 -3.74646 0)
(1.26411 -3.88784 0)
(1.26411 -4.02922 0)
(1.26411 -4.17059 0)
(1.26411 -4.31197 0)
(1.26411 -4.45334 0)
(1.26411 -4.59472 0)
(1.26411 -4.7361 0)
(1.26411 -4.87747 0)
(1.26411 -5.01885 0)
(1.26411 -5.16022 0)
(1.26411 -5.3016 0)
(1.26411 -5.44298 0)
(1.26411 -5.58435 0)
(1.26411 -5.72573 0)
(1.26411 -5.8671 0)
(1.26411 -6.00848 0)
(1.26411 -6.14986 0)
(1.26411 -6.29123 0)
(1.26411 -6.43261 0)
(1.26411 -6.57398 0)
(1.26411 -6.71536 0)
(1.26411 -6.85674 0)
(1.26411 -6.99811 0)
(1.39045 -0.070688 0)
(1.39045 -0.212064 0)
(1.39045 -0.35344 0)
(1.39045 -0.494816 0)
(1.39045 -0.636192 0)
(1.39045 -0.777568 0)
(1.39045 -0.918944 0)
(1.39045 -1.06032 0)
(1.39045 -1.2017 0)
(1.39045 -1.34307 0)
(1.39045 -1.48445 0)
(1.39045 -1.62582 0)
(1.39045 -1.7672 0)
(1.39045 -1.90858 0)
(1.39045 -2.04995 0)
(1.39045 -2.19133 0)
(1.39045 -2.3327 0)
(1.39045 -2.47408 0)
(1.39045 -2.61546 0)
(1.39045 -2.75683 0)
(1.39045 -2.89821 0)
(1.39045 -3.03958 0)
(1.39045 -3.18096 0)
(1.39045 -3.32234 0)
(1.39045 -3.46371 0)
(1.39045 -3.60509 0)
(1.39045 -3.74646 0)
(1.39045 -3.88784 0)
(1.39045 -4.02922 0)
(1.39045 -4.17059 0)
(1.39045 -4.31197 0)
(1.39045 -4.45334 0)
(1.39045 -4.59472 0)
(1.39045 -4.7361 0)
(1.39045 -4.87747 0)
(1.39045 -5.01885 0)
(1.39045 -5.16022 0)
(1.39045 -5.3016 0)
(1.39045 -5.44298 0)
(1.39045 -5.58435 0)
(1.39045 -5.72573 0)
(1.39045 -5.8671 0)
(1.39045 -6.00848 0)
(1.39045 -6.14986 0)
(1.39045 -6.29123 0)
(1.39045 -6.43261 0)
(1.39045 -6.57398 0)
(1.39045 -6.71536 0)
(1.39045 -6.85674 0)
(1.39045 -6.99811 0)
(1.5228 -0.070688 0)
(1.5228 -0.212064 0)
(1.5228 -0.35344 0)
(1.5228 -0.494816 0)
(1.5228 -0.636192 0)
(1.5228 -0.777568 0)
(1.5228 -0.918944 0)
(1.5228 -1.06032 0)
(1.5228 -1.2017 0)
(1.5228 -1.34307 0)
(1.5228 -1.48445 0)
(1.5228 -1.62582 0)
(1.5228 -1.7672 0)
(1.5228 -1.90858 0)
(1.5228 -2.04995 0)
(1.5228 -2.19133 0)
(1.5228 -2.3327 0)
(1.5228 -2.47408 0)
(1.5228 -2.61546 0)
(1.5228 -2.75683 0)
(1.5228 -2.89821 0)
(1.5228 -3.03958 0)
(1.5228 -3.18096 0)
(1.5228 -3.32234 0)
(1.5228 -3.46371 0)
(1.5228 -3.60509 0)
(1.5228 -3.74646 0)
(1.5228 -3.88784 0)
(1.5228 -4.02922 0)
(1.5228 -4.17059 0)
(1.5228 -4.31197 0)
(1.5228 -4.45334 0)
(1.5228 -4.59472 0)
(1.5228 -4.7361 0)
(1.5228 -4.87747 0)
(1.5228 -5.01885 0)
(1.5228 -5.16022 0)
(1.5228 -5.3016 0)
(1.5228 -5.44298 0)
(1.5228 -5.58435 0)
(1.5228 -5.72573 0)
(1.5228 -5.8671 0)
(1.5228 -6.00848 0)
(1.5228 -6.14986 0)
(1.5228 -6.29123 0)
(1.5228 -6.43261 0)
(1.5228 -6.57398 0)
(1.5228 -6.71536 0)
(1.5228 -6.85674 0)
(1.5228 -6.99811 0)
(1.66117 -0.070688 0)
(1.66117 -0.212064 0)
(1.66117 -0.35344 0)
(1.66117 -0.494816 0)
(1.66117 -0.636192 0)
(1.66117 -0.777568 0)
(1.66117 -0.918944 0)
(1.66117 -1.06032 0)
(1.66117 -1.2017 0)
(1.66117 -1.34307 0)
(1.66117 -1.48445 0)
(1.66117 -1.62582 0)
(1.66117 -1.7672 0)
(1.66117 -1.90858 0)
(1.66117 -2.04995 0)
(1.66117 -2.19133 0)
(1.66117 -2.3327 0)
(1.66117 -2.47408 0)
(1.66117 -2.61546 0)
(1.66117 -2.75683 0)
(1.66117 -2.89821 0)
(1.66117 -3.03958 0)
(1.66117 -3.18096 0)
(1.66117 -3.32234 0)
(1.66117 -3.46371 0)
(1.66117 -3.60509 0)
(1.66117 -3.74646 0)
(1.66117 -3.88784 0)
(1.66117 -4.02922 0)
(1.66117 -4.17059 0)
(1.66117 -4.31197 0)
(1.66117 -4.45334 0)
(1.66117 -4.59472 0)
(1.66117 -4.7361 0)
(1.66117 -4.87747 0)
(1.66117 -5.01885 0)
(1.66117 -5.16022 0)
(1.66117 -5.3016 0)
(1.66117 -5.44298 0)
(1.66117 -5.58435 0)
(1.66117 -5.72573 0)
(1.66117 -5.8671 0)
(1.66117 -6.00848 0)
(1.66117 -6.14986 0)
(1.66117 -6.29123 0)
(1.66117 -6.43261 0)
(1.66117 -6.57398 0)
(1.66117 -6.71536 0)
(1.66117 -6.85674 0)
(1.66117 -6.99811 0)
(1.80555 -0.070688 0)
(1.80555 -0.212064 0)
(1.80555 -0.35344 0)
(1.80555 -0.494816 0)
(1.80555 -0.636192 0)
(1.80555 -0.777568 0)
(1.80555 -0.918944 0)
(1.80555 -1.06032 0)
(1.80555 -1.2017 0)
(1.80555 -1.34307 0)
(1.80555 -1.48445 0)
(1.80555 -1.62582 0)
(1.80555 -1.7672 0)
(1.80555 -1.90858 0)
(1.80555 -2.04995 0)
(1.80555 -2.19133 0)
(1.80555 -2.3327 0)
(1.80555 -2.47408 0)
(1.80555 -2.61546 0)
(1.80555 -2.75683 0)
(1.80555 -2.89821 0)
(1.80555 -3.03958 0)
(1.80555 -3.18096 0)
(1.80555 -3.32234 0)
(1.80555 -3.46371 0)
(1.80555 -3.60509 0)
(1.80555 -3.74646 0)
(1.80555 -3.88784 0)
(1.80555 -4.02922 0)
(1.80555 -4.17059 0)
(1.80555 -4.31197 0)
(1.80555 -4.45334 0)
(1.80555 -4.59472 0)
(1.80555 -4.7361 0)
(1.80555 -4.87747 0)
(1.80555 -5.01885 0)
(1.80555 -5.16022 0)
(1.80555 -5.3016 0)
(1.80555 -5.44298 0)
(1.80555 -5.58435 0)
(1.80555 -5.72573 0)
(1.80555 -5.8671 0)
(1.80555 -6.00848 0)
(1.80555 -6.14986 0)
(1.80555 -6.29123 0)
(1.80555 -6.43261 0)
(1.80555 -6.57398 0)
(1.80555 -6.71536 0)
(1.80555 -6.85674 0)
(1.80555 -6.99811 0)
(1.95595 -0.070688 0)
(1.95595 -0.212064 0)
(1.95595 -0.35344 0)
(1.95595 -0.494816 0)
(1.95595 -0.636192 0)
(1.95595 -0.777568 0)
(1.95595 -0.918944 0)
(1.95595 -1.06032 0)
(1.95595 -1.2017 0)
(1.95595 -1.34307 0)
(1.95595 -1.48445 0)
(1.95595 -1.62582 0)
(1.95595 -1.7672 0)
(1.95595 -1.90858 0)
(1.95595 -2.04995 0)
(1.95595 -2.19133 0)
(1.95595 -2.3327 0)
(1.95595 -2.47408 0)
(1.95595 -2.61546 0)
(1.95595 -2.75683 0)
(1.95595 -2.89821 0)
(1.95595 -3.03958 0)
(1.95595 -3.18096 0)
(1.95595 -3.32234 0)
(1.95595 -3.46371 0)
(1.95595 -3.60509 0)
(1.95595 -3.74646 0)
(1.95595 -3.88784 0)
(1.95595 -4.02922 0)
(1.95595 -4.17059 0)
(1.95595 -4.31197 0)
(1.95595 -4.45334 0)
(1.95595 -4.59472 0)
(1.95595 -4.7361 0)
(1.95595 -4.87747 0)
(1.95595 -5.01885 0)
(1.95595 -5.16022 0)
(1.95595 -5.3016 0)
(1.95595 -5.44298 0)
(1.95595 -5.58435 0)
(1.95595 -5.72573 0)
(1.95595 -5.8671 0)
(1.95595 -6.00848 0)
(1.95595 -6.14986 0)
(1.95595 -6.29123 0)
(1.95595 -6.43261 0)
(1.95595 -6.57398 0)
(1.95595 -6.71536 0)
(1.95595 -6.85674 0)
(1.95595 -6.99811 0)
(2.11237 -0.070688 0)
(2.11237 -0.212064 0)
(2.11237 -0.35344 0)
(2.11237 -0.494816 0)
(2.11237 -0.636192 0)
(2.11237 -0.777568 0)
(2.11237 -0.918944 0)
(2.11237 -1.06032 0)
(2.11237 -1.2017 0)
(2.11237 -1.34307 0)
(2.11237 -1.48445 0)
(2.11237 -1.62582 0)
(2.11237 -1.7672 0)
(2.11237 -1.90858 0)
(2.11237 -2.04995 0)
(2.11237 -2.19133 0)
(2.11237 -2.3327 0)
(2.11237 -2.47408 0)
(2.11237 -2.61546 0)
(2.11237 -2.75683 0)
(2.11237 -2.89821 0)
(2.11237 -3.03958 0)
(2.11237 -3.18096 0)
(2.11237 -3.32234 0)
(2.11237 -3.46371 0)
(2.11237 -3.60509 0)
(2.11237 -3.74646 0)
(2.11237 -3.88784 0)
(2.11237 -4.02922 0)
(2.11237 -4.17059 0)
(2.11237 -4.31197 0)
(2.11237 -4.45334 0)
(2.11237 -4.59472 0)
(2.11237 -4.7361 0)
(2.11237 -4.87747 0)
(2.11237 -5.01885 0)
(2.11237 -5.16022 0)
(2.11237 -5.3016 0)
(2.11237 -5.44298 0)
(2.11237 -5.58435 0)
(2.11237 -5.72573 0)
(2.11237 -5.8671 0)
(2.11237 -6.00848 0)
(2.11237 -6.14986 0)
(2.11237 -6.29123 0)
(2.11237 -6.43261 0)
(2.11237 -6.57398 0)
(2.11237 -6.71536 0)
(2.11237 -6.85674 0)
(2.11237 -6.99811 0)
(2.2748 -0.070688 0)
(2.2748 -0.212064 0)
(2.2748 -0.35344 0)
(2.2748 -0.494816 0)
(2.2748 -0.636192 0)
(2.2748 -0.777568 0)
(2.2748 -0.918944 0)
(2.2748 -1.06032 0)
(2.2748 -1.2017 0)
(2.2748 -1.34307 0)
(2.2748 -1.48445 0)
(2.2748 -1.62582 0)
(2.2748 -1.7672 0)
(2.2748 -1.90858 0)
(2.2748 -2.04995 0)
(2.2748 -2.19133 0)
(2.2748 -2.3327 0)
(2.2748 -2.47408 0)
(2.2748 -2.61546 0)
(2.2748 -2.75683 0)
(2.2748 -2.89821 0)