/*--------------------------------*- C++ -*----------------------------------*\
| =========                 |                                                 |
| \\      /  F ield         | OpenFOAM: The Open Source CFD Toolbox           |
|  \\    /   O peration     | Version:  v2006                                 |
|   \\  /    A nd           | Website:  www.openfoam.com                      |
|    \\/     M anipulation  |                                                 |
\*---------------------------------------------------------------------------*/
FoamFile
{
    version     2.0;
    format      ascii;
    class       volScalarField;
    location    "0";
    object      f;
}
// * * * * * * * * * * * * * * * * * * * * * * * * * * * * * * * * * * * * * //

dimensions      [0 0 0 0 0 0 0];


internalField   nonuniform List<scalar> 
2500
(
-6.61909e-10
4.52104e-10
4.48873e-09
-2.82984e-09
-1.70906e-08
1.08998e-08
5.52639e-08
-3.45924e-08
-1.52262e-07
5.89219e-08
4.059e-07
2.85069e-08
-1.00879e-06
-4.92978e-07
1.80429e-06
2.01698e-06
-1.85765e-06
-6.20341e-06
-2.3352e-06
1.39162e-05
1.52485e-05
-3.86286e-06
-4.24768e-05
-5.59068e-05
1.14165e-05
0.000163702
0.000229279
2.7836e-05
-0.000606057
-0.00115891
-0.000594526
0.00194532
0.00577081
0.00787008
0.0051084
-0.00365533
-0.0147317
-0.0191833
-0.00891171
0.0216293
0.069564
0.123711
0.168371
0.187574
0.181942
0.157595
0.121614
0.0832698
0.047686
0.0337867
-6.21601e-11
2.78812e-10
3.83242e-10
-1.84457e-09
-1.06116e-09
6.31784e-09
3.0152e-09
-1.57387e-08
-1.37121e-08
4.51955e-08
5.18947e-08
-1.39667e-07
-1.87027e-07
3.12114e-07
7.18033e-07
-2.23941e-07
-2.55795e-06
-5.46007e-07
5.96268e-06
5.87227e-06
-8.26608e-06
-2.69315e-05
-6.92775e-06
6.67054e-05
9.1378e-05
-3.99534e-05
-0.000274391
-0.00030031
0.000148353
0.000918138
0.001093
-7.40099e-05
-0.0023214
-0.00362344
-0.00178202
0.00373108
0.0101417
0.0117798
0.00456641
-0.0138047
-0.0403876
-0.0679184
-0.0872937
-0.0917728
-0.0850327
-0.0698279
-0.0507023
-0.0324101
-0.017308
-0.00997636
-2.35097e-10
4.40248e-10
1.52128e-09
-2.44524e-09
-5.06797e-09
8.24656e-09
1.51783e-08
-2.26658e-08
-4.23005e-08
4.97505e-08
1.14919e-07
-6.76353e-08
-2.92242e-07
2.65814e-08
5.13063e-07
2.42281e-07
-4.41611e-07
-7.57154e-07
-4.18934e-07
7.77983e-08
8.67617e-07
6.56743e-06
6.88022e-06
-1.31079e-05
-4.00367e-05
-2.14305e-05
6.35099e-05
0.000137825
4.3695e-05
-0.000208397
-0.000234778
0.000345619
0.00143516
0.00188736
0.000220869
-0.00427532
-0.00958811
-0.0107775
-0.00410207
0.0130667
0.0386023
0.0659651
0.0864136
0.0926767
0.087154
0.0726027
0.053284
0.0340889
0.018446
0.00932372
1.46426e-10
3.19692e-10
-1.20655e-09
-1.23859e-09
4.62339e-09
3.42185e-09
-1.38986e-08
-9.41938e-09
3.64421e-08
2.84422e-08
-8.47882e-08
-1.00274e-07
1.70114e-07
2.82574e-07
-2.07988e-07
-7.04421e-07
1.0083e-08
1.51788e-06
9.44144e-07
-2.70262e-06
-3.55709e-06
1.94821e-06
1.05578e-05
5.93986e-06
-1.93408e-05
-4.27934e-05
-5.75757e-06
0.000108196
0.000217045
0.000131095
-0.000364102
-0.00123256
-0.00205305
-0.00207716
-0.000837339
0.00170734
0.00421799
0.00434586
0.000556163
-0.00844202
-0.0214827
-0.035403
-0.0461742
-0.0501354
-0.0479196
-0.0409696
-0.0311962
-0.0210816
-0.0119646
-0.00791786
-1.37065e-11
3.92958e-11
1.24164e-10
-2.36823e-10
-2.76241e-10
5.47834e-10
6.56822e-10
-1.63326e-09
-1.70181e-09
2.91436e-09
6.20971e-09
1.42279e-09
-1.38897e-08
-2.54623e-08
-2.4121e-08
6.16366e-08
2.66649e-07
-9.54439e-08
-8.84698e-07
-8.70236e-07
2.01114e-06
4.84968e-06
8.63074e-07
-1.45959e-05
-1.81468e-05
6.99021e-06
6.38953e-05
6.19805e-05
-4.83443e-05
-0.000209362
-0.000199497
0.000162128
0.000777952
0.00103021
0.000278567
-0.00163513
-0.00377137
-0.0041059
-0.00131934
0.00541978
0.0150581
0.0250151
0.0320972
0.0336155
0.0311545
0.0255322
0.018384
0.0115284
0.00609848
0.00298244
1.35217e-10
-4.27433e-12
-9.35298e-10
2.08981e-10
3.43953e-09
-9.489e-10
-1.05196e-08
2.51873e-09
2.87321e-08
-2.64364e-09
-7.23359e-08
-1.4586e-08
1.67564e-07
9.46704e-08
-3.2305e-07
-3.46415e-07
4.69502e-07
9.18903e-07
-3.06635e-07
-1.98826e-06
-4.7335e-07
3.72616e-06
3.22314e-06
-5.74347e-06
-1.39455e-05
-3.07036e-06
3.24913e-05
6.19469e-05
3.54561e-05
-5.90294e-05
-0.000257577
-0.000532811
-0.000762498
-0.000722361
-0.000197705
0.000911847
0.00217672
0.00241156
0.000715392
-0.00377884
-0.0107137
-0.018532
-0.0249165
-0.0277031
-0.0269038
-0.023281
-0.0178689
-0.0120507
-0.00688083
-0.00424637
-2.22089e-11
-1.54498e-10
2.43344e-10
6.57943e-10
-1.03573e-09
-1.99153e-09
3.1488e-09
5.3764e-09
-7.99515e-09
-1.4673e-08
1.72994e-08
4.10634e-08
-3.13058e-08
-1.04008e-07
3.16413e-08
2.5455e-07
1.74444e-08
-5.94206e-07
-3.58515e-07
1.40344e-06
1.61528e-06
-1.72729e-06
-6.45634e-06
-2.31614e-06
1.33472e-05
2.62341e-05
4.09202e-06
-6.06442e-05
-0.000116359
-7.5277e-05
0.000145793
0.000480403
0.000746514
0.000730677
0.000374696
-0.000226815
-0.000688259
-0.000596124
0.000299188
0.00212428
0.00460672
0.0072298
0.00925647
0.0101071
0.00979834
0.0086014
0.00680776
0.00486179
0.0028778
0.00233594
1.63201e-11
-3.73465e-11
-7.43609e-11
1.78234e-10
2.40115e-10
-5.54104e-10
-7.32131e-10
1.69483e-09
2.07341e-09
-3.89083e-09
-6.17158e-09
5.17091e-09
1.61739e-08
5.07318e-11
-2.0814e-08
-2.12664e-08
-1.72365e-08
5.90436e-08
2.23953e-07
1.69049e-07
-6.4848e-07
-1.37612e-06
-1.24826e-07
4.4528e-06
5.98082e-06
-2.53076e-06
-1.75173e-05
-2.55912e-05
3.96367e-06
6.25843e-05
8.85239e-05
1.7814e-05
-0.000143678
-0.000265729
-0.000159687
0.000275912
0.000843624
0.00108351
0.000589285
-0.000896506
-0.00319848
-0.00564534
-0.00751586
-0.00804137
-0.00753234
-0.00623412
-0.00453386
-0.00287179
-0.00154745
-0.000804856
-3.31817e-11
-3.87167e-11
2.34636e-10
1.34046e-10
-8.70548e-10
-4.1253e-10
2.75294e-09
1.27981e-09
-7.5567e-09
-4.07418e-09
1.83995e-08
1.36693e-08
-4.02774e-08
-4.29225e-08
6.88932e-08
1.20891e-07
-8.8152e-08
-2.95223e-07
7.98246e-08
6.20382e-07
1.09284e-07
-1.44735e-06
-1.24042e-06
2.64973e-06
6.61559e-06
6.26838e-07
-1.33145e-05
-2.88627e-05
-1.50953e-05
3.21316e-05
0.000105913
0.000173927
0.000188387
0.000154875
6.94208e-05
-7.10884e-05
-0.000217364
-0.000253718
-4.19671e-05
0.000605163
0.0016767
0.00305982
0.00436899
0.00517539
0.00525018
0.00478061
0.0038534
0.00273646
0.00162878
0.00118507
-4.90688e-12
2.40865e-11
1.11263e-11
-1.02098e-10
-2.54241e-11
3.39947e-10
1.08506e-10
-9.95927e-10
-3.55541e-10
2.6757e-09
7.90757e-10
-6.63247e-09
-1.33964e-09
1.4827e-08
3.38494e-09
-3.47604e-08
-1.06264e-08
9.61986e-08
8.27782e-08
-2.68638e-07
-4.9453e-07
3.51427e-07
1.81958e-06
1.68167e-06
-3.20082e-06
-9.12423e-06
-5.22826e-06
1.19241e-05
3.55464e-05
3.22428e-05
-1.76441e-05
-9.32282e-05
-0.000160934
-0.000159013
-9.63483e-05
-1.43179e-05
2.43093e-05
-1.89418e-05
-0.000153483
-0.000322695
-0.000489006
-0.000603383
-0.000629281
-0.00063204
-0.00060351
-0.000567038
-0.000508901
-0.000435956
-0.000283791
-0.000355126
-2.19421e-12
1.0822e-11
2.41571e-11
-5.57551e-11
-8.39795e-11
2.12476e-10
2.22926e-10
-6.49218e-10
-5.94262e-10
1.55969e-09
1.34747e-09
-2.88358e-09
-1.92353e-09
3.15913e-09
-2.72471e-10
-3.89783e-09
1.83144e-08
2.28687e-08
-7.20473e-08
-1.56354e-07
1.02238e-07
5.75421e-07
4.77309e-07
-1.06896e-06
-2.80345e-06
-1.45069e-06
4.64191e-06
1.21811e-05
7.68376e-06
-1.18175e-05
-4.04805e-05
-4.27294e-05
-1.41313e-05
3.15541e-05
3.74618e-05
-2.7529e-05
-0.000162234
-0.000276533
-0.000232499
8.10806e-06
0.000425121
0.000869578
0.00120731
0.0013096
0.00120776
0.000971415
0.000676068
0.000397259
0.000201392
4.78063e-05
6.04605e-12
2.03586e-11
-4.84468e-11
-8.2008e-11
1.91081e-10
2.57568e-10
-6.62561e-10
-7.37121e-10
1.87531e-09
1.9752e-09
-4.31051e-09
-5.47227e-09
8.08409e-09
1.51056e-08
-1.21699e-08
-3.4952e-08
1.15709e-08
7.57132e-08
-1.73405e-08
-1.53342e-07
2.09398e-08
3.94464e-07
2.20354e-07
-1.19509e-06
-1.59536e-06
7.95503e-07
4.92481e-06
7.87963e-06
2.42786e-06
-1.2383e-05
-3.32928e-05
-4.06189e-05
-2.42227e-05
-3.33941e-06
8.28803e-06
2.03316e-06
-7.59997e-06
-1.16343e-05
-2.10679e-05
-6.42897e-05
-0.000147507
-0.000281789
-0.000468659
-0.000625792
-0.000713605
-0.000699439
-0.000606704
-0.000462395
-0.0002921
-0.000247287
2.2821e-12
9.8936e-13
-1.62429e-11
-5.31078e-12
5.76737e-11
4.42036e-12
-1.92956e-10
2.71336e-11
5.16013e-10
4.46728e-12
-1.04883e-09
-3.01593e-10
1.50697e-09
1.3576e-09
-4.7272e-10
-4.09954e-09
-1.40246e-09
-8.29913e-09
2.07395e-10
5.68405e-08
9.28665e-08
-7.46346e-08
-5.43911e-07
-3.90356e-07
7.56378e-07
2.44698e-06
1.75712e-06
-3.25617e-06
-8.78171e-06
-9.34704e-06
2.25703e-06
2.15968e-05
3.8548e-05
3.47403e-05
2.00006e-05
4.83833e-06
1.06268e-05
3.91402e-05
6.66503e-05
5.9038e-05
1.88772e-05
-5.17859e-05
-0.000147137
-0.000210325
-0.000224606
-0.000196199
-0.000141414
-8.2164e-05
-4.74795e-05
1.22771e-05
9.91225e-13
-3.08126e-12
-4.55461e-12
1.58448e-11
1.17241e-11
-6.23307e-11
-5.51538e-12
2.02536e-10
-4.11935e-11
-4.87408e-10
1.40225e-10
1.11243e-09
-5.02765e-10
-2.47582e-09
1.82456e-09
6.67997e-09
-7.59891e-09
-2.09727e-08
2.1527e-08
7.25016e-08
8.34519e-10
-2.28168e-07
-1.92345e-07
2.8848e-07
1.07555e-06
6.97272e-07
-1.6995e-06
-4.24868e-06
-3.5505e-06
3.96607e-06
1.45611e-05
2.01729e-05
1.09775e-05
-6.51946e-06
-1.64127e-05
-9.88511e-08
4.14834e-05
8.03284e-05
7.95562e-05
3.32191e-05
-6.99794e-05
-0.000193113
-0.000286477
-0.000298703
-0.000270303
-0.000210573
-0.000139796
-6.81968e-05
-2.31965e-05
2.60579e-05
-6.73992e-13
-6.58919e-12
9.16712e-12
2.84741e-11
-4.26669e-11
-8.95676e-11
1.69145e-10
2.47611e-10
-4.77816e-10
-6.90017e-10
1.05416e-09
1.92398e-09
-1.68588e-09
-5.41158e-09
1.8826e-09
1.24151e-08
1.85446e-10
-2.13833e-08
-7.50017e-09
3.96663e-08
-8.42668e-09
-7.56939e-08
-2.71823e-08
3.34785e-07
3.67465e-07
-3.24484e-07
-1.80134e-06
-1.7107e-06
7.10608e-07
5.10303e-06
9.11789e-06
6.41845e-06
-2.89082e-06
-1.13949e-05
-1.13697e-05
-2.30118e-06
9.65222e-06
1.36986e-05
8.15883e-06
-9.08831e-07
5.9789e-06
3.06345e-05
7.50917e-05
0.000116289
0.000146081
0.000156605
0.000144234
0.00011502
7.31678e-05
6.32637e-05
-4.92501e-13
-2.50489e-12
5.34417e-12
1.00592e-11
-2.27736e-11
-2.45816e-11
6.63577e-11
6.29995e-11
-1.76441e-10
-1.91324e-10
3.62202e-10
5.86084e-10
-5.62849e-10
-1.42703e-09
1.34017e-10
2.25557e-09
3.95467e-09
-1.24112e-10
-9.43726e-09
-2.36861e-08
3.27055e-09
4.74076e-08
1.25545e-07
3.08492e-09
-2.38015e-07
-5.8638e-07
-2.3952e-07
1.13583e-06
2.54553e-06
1.66992e-06
-2.5274e-06
-7.41335e-06
-1.04823e-05
-8.44203e-06
-2.82852e-06
-6.25698e-07
-7.9418e-06
-2.13472e-05
-2.94192e-05
-2.12037e-05
6.23583e-06
4.80787e-05
9.25774e-05
0.000119915
0.000124743
0.000109449
8.1969e-05
4.9868e-05
2.75125e-05
3.46384e-06
-1.03116e-13
1.19989e-12
-1.71012e-13
-5.94148e-12
3.93759e-12
2.0611e-11
-2.54822e-11
-6.41653e-11
8.11351e-11
1.92293e-10
-1.9351e-10
-5.69647e-10
4.30289e-10
1.62054e-09
-9.02537e-10
-4.02306e-09
1.33778e-09
1.06114e-08
-4.18973e-09
-2.31627e-08
-7.49223e-09
7.05629e-08
5.91338e-08
-1.0069e-07
-3.27552e-07
-1.3287e-07
5.97127e-07
1.40716e-06
9.29445e-07
-1.67243e-06
-5.18097e-06
-6.52261e-06
-2.30447e-06
4.96747e-06
8.17717e-06
2.20609e-06
-1.14709e-05
-2.43839e-05
-2.52267e-05
-1.03353e-05
1.6853e-05
4.76437e-05
7.11404e-05
6.96838e-05
5.71725e-05
3.72871e-05
1.69872e-05
9.30236e-07
-3.85497e-06
-1.65068e-05
3.42291e-13
1.92334e-12
-3.27294e-12
-8.62514e-12
1.51926e-11
2.67349e-11
-5.15962e-11
-7.95966e-11
1.43732e-10
2.44131e-10
-3.34663e-10
-7.24126e-10
6.08432e-10
1.9264e-09
-4.29658e-10
-4.49872e-09
-1.26484e-09
5.95906e-09
9.1911e-09
-7.12449e-09
-9.70161e-09
-3.17014e-09
6.03949e-09
-3.41285e-08
-2.13485e-08
7.78536e-08
2.84112e-07
2.18722e-07
-5.58577e-07
-1.79423e-06
-1.5295e-06
4.77432e-07
3.36729e-06
5.76613e-06
5.10146e-06
1.45105e-06
-2.77471e-06
-2.21126e-06
1.27351e-06
5.86617e-06
4.84028e-06
-3.18913e-06
-1.86714e-05
-3.40376e-05
-4.39119e-05
-4.67565e-05
-4.2876e-05
-3.33104e-05
-2.13063e-05
-1.70328e-05
1.7407e-13
6.2293e-13
-9.543e-13
-2.67405e-12
2.83703e-12
8.02825e-12
-1.0095e-11
-1.94036e-11
3.1362e-11
4.31209e-11
-5.84323e-11
-9.66779e-11
3.99746e-11
2.22533e-10
2.10953e-10
-1.60584e-10
-2.03489e-09
-1.72959e-11
4.00955e-09
9.28046e-09
-7.1454e-09
-2.6669e-08
-2.78531e-08
4.09549e-08
1.25818e-07
1.18784e-07
-1.51725e-07
-5.24935e-07
-6.78778e-07
1.20871e-07
1.68987e-06
3.15456e-06
3.39133e-06
1.24414e-06
-1.03454e-06
-6.76776e-07
3.61895e-06
9.36827e-06
1.2542e-05
8.32298e-06
-4.14305e-06
-2.15808e-05
-3.75214e-05
-4.73543e-05
-4.68004e-05
-4.00325e-05
-2.85062e-05
-1.63528e-05
-8.53266e-06
2.55691e-07
-1.49791e-13
-4.13355e-13
1.53208e-12
1.94784e-12
-6.79978e-12
-6.24055e-12
2.26309e-11
2.54003e-11
-6.65468e-11
-8.99385e-11
1.61763e-10
2.93877e-10
-3.42738e-10
-8.68423e-10
5.80035e-10
1.72718e-09
4.08476e-10
-3.9823e-09
-2.13939e-09
4.87846e-09
8.03179e-09
-1.00315e-08
-1.56225e-08
1.19689e-08
6.21617e-08
1.6078e-08
-1.46584e-07
-3.20338e-07
-2.13299e-08
7.41787e-07
1.49612e-06
1.11173e-06
-7.17311e-07
-2.90188e-06
-3.53044e-06
-1.2308e-06
2.9515e-06
6.49774e-06
6.24182e-06
1.45679e-06
-6.16616e-06
-1.27859e-05
-1.56149e-05
-1.33299e-05
-8.15946e-06
-2.15228e-06
2.65689e-06
5.38961e-06
4.54148e-06
7.27516e-06
-1.06852e-13
-4.3216e-13
9.56511e-13
1.86915e-12
-4.14402e-12
-6.42892e-12
1.48366e-11
2.01492e-11
-4.33757e-11
-6.51101e-11
1.02193e-10
1.97816e-10
-1.91287e-10
-4.98667e-10
-3.65682e-11
1.42492e-09
9.38198e-10
-1.95269e-09
-4.64807e-09
5.79178e-10
8.0297e-09
9.27353e-09
-2.98577e-10
-1.4668e-08
-3.39858e-08
-3.46464e-08
1.11098e-08
1.44754e-07
2.40227e-07
1.85281e-07
-2.34862e-07
-1.02643e-06
-1.89379e-06
-2.09888e-06
-1.2446e-06
-3.04363e-07
-2.24375e-07
-1.48061e-06
-2.89779e-06
-3.54082e-06
-1.52476e-06
3.75204e-06
1.04799e-05
1.57969e-05
1.89233e-05
1.84003e-05
1.55078e-05
1.105e-05
6.76167e-06
4.07786e-06
9.93413e-14
-8.09501e-14
-7.68419e-13
4.7469e-13
2.65133e-12
-9.87055e-13
-7.52037e-12
-1.43604e-12
2.20041e-11
1.0833e-11
-5.39059e-11
-4.85655e-11
1.4023e-10
1.06272e-10
-1.72748e-10
-3.78871e-10
3.56936e-10
6.39847e-10
-1.78229e-10
-2.23782e-09
2.51953e-10
6.30077e-09
6.25242e-09
-1.42301e-08
-3.31759e-08
-1.35378e-08
7.43386e-08
1.62427e-07
9.93779e-08
-2.03866e-07
-7.17061e-07
-9.9639e-07
-4.34651e-07
6.46058e-07
1.25668e-06
6.00834e-07
-1.41841e-06
-3.68754e-06
-4.18365e-06
-2.14566e-06
2.39221e-06
8.22064e-06
1.2625e-05
1.46185e-05
1.34611e-05
1.03502e-05
6.54262e-06
3.0198e-06
1.21899e-06
-1.49405e-06
9.46412e-14
4.01299e-14
-7.58156e-13
-1.5929e-13
3.00556e-12
1.38565e-12
-1.06572e-11
-6.72303e-12
3.20711e-11
2.78458e-11
-8.16754e-11
-9.0294e-11
1.30708e-10
3.43543e-10
-1.52462e-10
-8.27258e-10
-4.56143e-10
1.69099e-09
2.06779e-09
-1.16436e-09
-4.94335e-09
-2.37941e-09
3.6593e-09
6.56301e-09
4.26925e-09
5.36992e-09
1.14827e-08
1.19331e-09
-7.40246e-08
-2.11001e-07
-1.81875e-07
1.64233e-07
7.57796e-07
1.30549e-06
1.25519e-06
4.91787e-07
-5.28955e-07
-9.7327e-07
-4.68708e-07
6.8865e-07
2.16696e-06
2.50302e-06
1.40163e-06
-4.96272e-07
-2.39823e-06
-3.69161e-06
-4.08072e-06
-3.61518e-06
-2.51699e-06
-2.55816e-06
-4.91942e-14
5.75842e-14
2.24378e-13
-2.45231e-13
-6.4253e-13
7.96039e-13
8.99762e-13
-1.69311e-12
-5.57901e-13
4.92771e-12
3.75107e-12
-2.76176e-11
3.07979e-12
6.02391e-11
4.81094e-11
-2.28106e-10
-2.13408e-10
3.64531e-10
1.0714e-09
1.06979e-10
-2.49985e-09
-3.78321e-09
9.59099e-10
1.0668e-08
1.44741e-08
1.67349e-09
-3.5055e-08
-7.19351e-08
-6.50242e-08
4.71157e-08
2.91798e-07
5.12998e-07
5.46798e-07
2.42946e-07
-1.00443e-07
-1.0712e-07
4.10355e-07
1.23899e-06
1.75104e-06
1.33645e-06
-3.85849e-07
-2.84535e-06
-5.41005e-06
-6.97509e-06
-7.27505e-06
-6.45071e-06
-4.92114e-06
-3.17089e-06
-1.78158e-06
-4.94228e-07
-7.98176e-14
7.01973e-14
4.81648e-13
-2.64439e-13
-1.8649e-12
3.6397e-13
6.25427e-12
6.4954e-13
-1.82703e-11
-4.62749e-12
3.88625e-11
3.57878e-11
-8.1612e-11
-1.21777e-10
7.65299e-11
3.5915e-10
9.72716e-11
-6.44557e-10
-7.65502e-10
6.48692e-10
1.58033e-09
3.62369e-10
-1.27524e-09
-1.0064e-09
1.65089e-09
-1.78019e-09
-1.67134e-08
-2.0859e-08
1.68339e-08
1.12087e-07
1.94281e-07
9.7835e-08
-2.19721e-07
-5.802e-07
-6.47814e-07
-2.89085e-07
3.87564e-07
9.48724e-07
9.15574e-07
1.60882e-07
-1.12914e-06
-2.40589e-06
-3.07985e-06
-2.81755e-06
-2.04749e-06
-1.09275e-06
-2.3528e-07
3.66455e-07
4.38139e-07
9.46075e-07
2.54869e-15
3.77583e-14
1.06832e-15
-1.28305e-13
-1.81985e-13
3.07816e-13
1.38787e-12
-4.75576e-13
-4.80694e-12
-4.34677e-12
1.59846e-11
1.89143e-11
-2.8126e-11
-8.33228e-11
3.30306e-11
2.377e-10
1.29007e-10
-5.22821e-10
-7.4417e-10
2.84554e-10
2.04885e-09
1.92042e-09
-1.92903e-09
-6.05709e-09
-5.82588e-09
6.54265e-10
1.41307e-08
2.71792e-08
3.58227e-08
4.57618e-09
-8.77548e-08
-2.23539e-07
-3.34791e-07
-3.30534e-07
-2.07205e-07
-6.63421e-08
-5.49335e-08
-2.30327e-07
-4.73183e-07
-5.83918e-07
-3.06916e-07
4.0445e-07
1.33165e-06
2.0564e-06
2.46787e-06
2.48138e-06
2.14263e-06
1.56056e-06
9.6929e-07
6.19044e-07
4.33531e-14
-3.37439e-14
-2.61964e-13
1.26883e-13
9.88576e-13
-3.60366e-13
-3.06113e-12
8.17208e-13
6.98853e-12
7.94373e-13
-1.59036e-11
-6.60937e-12
2.57817e-11
3.64691e-11
-2.86748e-11
-9.08139e-11
-2.89346e-11
1.54681e-10
1.22845e-10
-1.09288e-10
-3.76837e-11
8.4e-11
-1.80485e-10
-1.52398e-09
-1.8396e-09
2.77437e-09
1.14054e-08
1.85365e-08
-6.4169e-10
-5.57328e-08
-1.11072e-07
-1.15582e-07
-5.0243e-09
1.6308e-07
2.42599e-07
1.21164e-07
-1.86063e-07
-5.07153e-07
-5.41963e-07
-2.29258e-07
4.15846e-07
1.22562e-06
1.83404e-06
2.09651e-06
1.9535e-06
1.49312e-06
9.4563e-07
4.42162e-07
1.77354e-07
-1.91567e-07
9.10212e-15
-4.60747e-14
-6.21223e-14
1.93514e-13
3.14301e-13
-5.50011e-13
-1.31172e-12
7.47758e-13
4.89125e-12
5.36485e-13
-1.25714e-11
-1.13629e-11
2.76257e-11
4.66402e-11
-3.27092e-11
-1.46703e-10
-4.02379e-11
3.04224e-10
3.82134e-10
-1.96152e-10
-1.08686e-09
-8.55474e-10
1.03359e-09
2.74596e-09
2.34557e-09
-3.41027e-10
-3.941e-09
-9.97882e-09
-1.672e-08
-1.52057e-08
1.03684e-08
7.70694e-08
1.63437e-07
2.10109e-07
1.84104e-07
7.65423e-08
-3.10623e-08
-5.54041e-08
3.16023e-08
1.82638e-07
3.25638e-07
2.84533e-07
7.97345e-08
-2.146e-07
-4.71761e-07
-6.25403e-07
-6.34756e-07
-5.45144e-07
-3.67356e-07
-3.43205e-07
-1.46577e-14
8.94166e-15
1.14353e-13
-4.50632e-14
-4.1884e-13
1.63365e-13
9.99437e-13
-1.21274e-13
-2.19616e-12
1.27169e-13
3.1286e-12
1.4588e-12
-3.69232e-12
-3.9788e-12
-1.54922e-12
1.14304e-12
8.11446e-12
3.55078e-11
4.92044e-11
-9.87608e-11
-3.10424e-10
-1.71926e-10
5.70777e-10
1.54991e-09
1.14928e-09
-1.86605e-09
-6.89507e-09
-1.01271e-08
-1.82174e-09
2.21462e-08
5.55967e-08
7.52347e-08
4.64175e-08
-1.30784e-08
-5.71996e-08
-3.44718e-08
7.28994e-08
2.00824e-07
2.47527e-07
1.56668e-07
-1.1295e-07
-4.73813e-07
-8.03267e-07
-1.00847e-06
-9.97973e-07
-8.57509e-07
-6.37598e-07
-3.84501e-07
-2.05613e-07
-3.3762e-08
-7.2792e-15
2.24035e-14
4.88364e-14
-1.15415e-13
-2.19049e-13
3.10403e-13
9.21782e-13
-6.37338e-13
-2.66001e-12
-1.20648e-13
7.20539e-12
5.03031e-12
-1.52374e-11
-2.27866e-11
1.99073e-11
6.8503e-11
1.43389e-11
-1.30336e-10
-1.7445e-10
7.65941e-11
4.46546e-10
3.51078e-10
-3.30432e-10
-9.59844e-10
-9.17761e-10
-2.03879e-10
3.36454e-10
2.47986e-09
7.14662e-09
1.35003e-08
7.77611e-09
-1.94119e-08
-6.27894e-08
-1.01544e-07
-9.86295e-08
-4.69564e-08
3.03585e-08
7.76132e-08
5.54718e-08
-3.91947e-08
-1.69239e-07
-2.75566e-07
-2.83703e-07
-2.11453e-07
-9.73367e-08
1.58248e-08
9.36867e-08
1.28024e-07
1.0106e-07
1.39389e-07
4.57819e-15
-1.30441e-15
-3.69687e-14
1.53408e-14
1.16859e-13
-1.23426e-14
-2.70556e-13
-3.08567e-14
2.25823e-13
2.44676e-13
5.0597e-13
-1.22853e-13
-2.87355e-12
-2.50137e-12
7.21326e-12
1.70987e-11
-2.50884e-12
-6.2289e-11
-5.60778e-11
9.61597e-11
2.52394e-10
1.39727e-10
-4.07967e-10
-9.63786e-10
-6.43237e-10
8.48257e-10
3.61733e-09
4.99444e-09
1.97915e-09
-7.63687e-09
-2.41093e-08
-3.71689e-08
-3.77387e-08
-2.08165e-08
-1.12987e-09
1.62097e-09
-2.43925e-08
-6.63316e-08
-9.1143e-08
-8.19034e-08
-1.29073e-09
1.36488e-07
2.82983e-07
3.79856e-07
4.1027e-07
3.76503e-07
2.98481e-07
2.00207e-07
1.17474e-07
5.63021e-08
3.42304e-15
-9.06405e-15
-2.41361e-14
4.83904e-14
1.24606e-13
-1.6286e-13
-4.25505e-13
2.8251e-13
1.30347e-12
2.03525e-14
-3.31854e-12
-2.1137e-12
7.02295e-12
9.27126e-12
-8.01484e-12
-2.69127e-11
-7.43685e-12
4.706e-11
6.72418e-11
-2.03966e-11
-1.42523e-10
-1.33925e-10
3.75309e-11
2.47824e-10
2.7788e-10
4.70767e-10
5.01905e-10
-1.87393e-10
-3.01009e-09
-7.72056e-09
-8.39459e-09
5.90724e-10
2.08315e-08
4.17468e-08
4.37886e-08
2.19599e-08
-1.69033e-08
-4.71853e-08
-4.67777e-08
1.2386e-09
7.96319e-08
1.51398e-07
2.00656e-07
1.88519e-07
1.48732e-07
9.28336e-08
3.85934e-08
-2.10663e-09
-1.30258e-08
-4.51346e-08
-8.47529e-16
1.55117e-16
3.59263e-15
5.09142e-15
-1.49099e-14
-2.86455e-14
6.00901e-16
1.34939e-13
1.96216e-13
-3.05335e-13
-1.02811e-12
1.32675e-15
2.93707e-12
2.44713e-12
-6.56422e-12
-1.33075e-11
2.76276e-12
3.98912e-11
3.27798e-11
-5.11203e-11
-1.43344e-10
-8.08953e-11
2.01332e-10
4.70852e-10
3.70391e-10
-3.41348e-10
-1.53534e-09
-2.21078e-09
-1.59602e-09
2.08724e-09
9.09785e-09
1.66351e-08
2.20053e-08
1.796e-08
1.03986e-08
4.71949e-09
7.37142e-09
1.70943e-08
3.14026e-08
3.3798e-08
1.58406e-08
-2.47724e-08
-7.78211e-08
-1.17336e-07
-1.40828e-07
-1.39229e-07
-1.18836e-07
-8.60755e-08
-5.30141e-08
-3.55619e-08
-2.30016e-16
1.21443e-15
7.86739e-15
-1.47787e-14
-4.88678e-14
5.38827e-14
1.76451e-13
-7.42263e-14
-5.54607e-13
-6.26929e-14
1.37732e-12
9.12936e-13
-2.56089e-12
-3.87039e-12
2.93467e-12
9.64342e-12
3.74628e-12
-1.55611e-11
-2.2223e-11
1.70306e-13
3.56283e-11
4.25266e-11
3.21546e-11
-8.75908e-12
-8.41377e-11
-3.22719e-10
-5.49392e-10
-3.20211e-10
1.27295e-09
3.78842e-09
5.47276e-09
2.71933e-09
-5.66052e-09
-1.45462e-08
-1.71821e-08
-9.08531e-09
8.20888e-09
2.30068e-08
2.35349e-08
4.2907e-09
-3.07865e-08
-7.09857e-08
-9.83115e-08
-1.06902e-07
-9.43523e-08
-6.95234e-08
-4.21931e-08
-1.79706e-08
-6.22386e-09
1.18443e-08
-9.30375e-17
4.50004e-16
2.40853e-15
-5.32364e-15
-1.05011e-14
2.56162e-14
4.60389e-14
-9.40445e-14
-1.92851e-13
1.55584e-13
7.17201e-13
-2.57596e-15
-1.97537e-12
-1.25621e-12
3.81482e-12
7.24947e-12
-2.2743e-12
-1.90104e-11
-1.65439e-11
2.26784e-11
6.65551e-11
4.47074e-11
-8.5135e-11
-1.98542e-10
-1.88802e-10
9.8282e-11
5.89016e-10
9.48826e-10
9.68241e-10
-3.51292e-10
-3.06967e-09
-7.03395e-09
-1.01013e-08
-1.06155e-08
-7.67332e-09
-3.74892e-09
-1.58232e-09
-3.77804e-09
-8.44833e-09
-1.27577e-08
-1.17693e-08
-2.13428e-09
1.39704e-08
3.06737e-08
4.1735e-08
4.49526e-08
4.14546e-08
3.25063e-08
2.10686e-08
1.64908e-08
1.00251e-17
5.50968e-17
-1.26204e-15
2.31115e-15
1.29856e-14
-8.90515e-15
-6.73085e-14
1.41384e-14
2.03952e-13
4.54315e-14
-4.70293e-13
-4.68955e-13
8.06334e-13
1.70522e-12
-7.04422e-13
-3.35627e-12
-1.92401e-12
4.11564e-12
6.61222e-12
4.7369e-12
-5.10935e-12
-1.29988e-11
-2.63528e-11
-4.25722e-11
2.10808e-11
1.62485e-10
3.3833e-10
2.46603e-10
-4.57565e-10
-1.73818e-09
-2.81336e-09
-2.05815e-09
9.8968e-10
4.63753e-09
6.16736e-09
3.19196e-09
-3.46613e-09
-9.978e-09
-1.05793e-08
-3.32296e-09
1.1176e-08
2.92162e-08
4.2862e-08
4.8128e-08
4.54391e-08
3.66417e-08
2.46046e-08
1.29848e-08
6.17265e-09
-1.87767e-09
9.12226e-18
-1.17974e-16
-1.08573e-15
2.05514e-15
9.2057e-15
-1.31571e-14
-3.13036e-14
3.75713e-14
1.11913e-13
-5.05948e-14
-3.8566e-13
-1.54617e-14
1.01098e-12
5.74231e-13
-1.94782e-12
-3.20152e-12
1.16511e-12
8.26117e-12
7.5528e-12
-9.00134e-12
-2.80359e-11
-1.95611e-11
2.73045e-11
8.45263e-11
9.02066e-11
-1.86692e-11
-2.08979e-10
-3.88559e-10
-5.25552e-10
-3.1295e-11
1.01997e-09
2.77667e-09
4.38749e-09
4.94459e-09
3.92855e-09
2.09173e-09
-2.9957e-11
4.6169e-10
2.22555e-09
4.66366e-09
6.63033e-09
4.82675e-09
8.99798e-11
-5.76503e-09
-1.05503e-08
-1.32282e-08
-1.31073e-08
-1.12181e-08
-7.50175e-09
-6.98199e-09
-7.18762e-18
-7.40045e-17
7.12116e-18
3.38158e-16
-2.99266e-15
1.31594e-15
1.98072e-14
-9.37991e-16
-6.47976e-14
-3.1811e-14
1.27289e-13
2.58946e-13
-2.50275e-13
-6.71658e-13
1.89454e-13
1.15538e-12
7.29812e-13
-6.64121e-13
-1.84322e-12
-3.43852e-12
-2.00732e-12
3.54199e-12
1.7772e-11
2.79362e-11
-4.18346e-12
-7.82455e-11
-1.72986e-10
-1.30941e-10
1.79978e-10
7.36101e-10
1.22517e-09
1.09836e-09
1.67437e-11
-1.40633e-09
-2.01737e-09
-1.07551e-09
1.41286e-09
3.93777e-09
4.25233e-09
1.80238e-09
-3.80328e-09
-1.11158e-08
-1.69629e-08
-1.99414e-08
-1.92168e-08
-1.59766e-08
-1.15548e-08
-6.65248e-09
-3.447e-09
-2.0166e-10
-1.17939e-18
2.06674e-17
2.27193e-16
-8.78465e-16
-3.23061e-15
5.0039e-15
1.56846e-14
-1.15065e-14
-5.7266e-14
1.52814e-14
1.86291e-13
-4.86367e-15
-4.49438e-13
-2.23253e-13
8.27365e-13
1.26215e-12
-4.31718e-13
-3.35063e-12
-3.23358e-12
3.35054e-12
1.11129e-11
9.38835e-12
-9.14152e-12
-3.39034e-11
-3.77613e-11
2.53261e-12
7.46847e-11
1.57592e-10
2.12731e-10
5.73207e-11
-3.32904e-10
-1.04215e-09
-1.74924e-09
-2.05358e-09
-1.77805e-09
-9.10364e-10
-1.71334e-12
2.06925e-10
-4.2536e-10
-1.66496e-09
-3.02296e-09
-3.0864e-09
-1.82305e-09
2.72482e-10
2.19838e-09
3.56405e-09
4.0331e-09
3.65558e-09
2.56056e-09
2.6726e-09
3.00559e-18
2.07752e-17
-1.59968e-18
-3.4338e-16
3.35827e-16
2.50012e-16
-4.08487e-15
-2.23548e-15
1.91217e-14
1.94001e-14
-4.1325e-14
-1.05872e-13
8.4457e-14
2.43731e-13
-6.11131e-14
-3.57142e-13
-2.53597e-13
-1.00504e-13
5.06105e-13
1.56246e-12
2.15433e-12
-1.28395e-12
-9.39865e-12
-1.34621e-11
4.31124e-13
3.43588e-11
7.56138e-11
5.77898e-11
-6.57391e-11
-2.91321e-10
-4.97199e-10
-4.94675e-10
-1.33111e-10
3.90237e-10
6.6137e-10
3.47693e-10
-5.19424e-10
-1.43336e-09
-1.67198e-09
-8.27314e-10
1.24172e-09
4.10515e-09
6.44345e-09
7.72055e-09
7.51538e-09
6.36963e-09
4.68528e-09
2.89427e-09
1.55753e-09
3.33558e-10
7.58847e-19
-2.58536e-19
-1.76149e-17
1.42313e-16
4.24338e-16
-1.43985e-15
-5.38733e-15
4.45693e-15
2.52835e-14
-8.47017e-15
-7.7533e-14
8.91052e-15
1.76208e-13
7.25122e-14
-3.02325e-13
-4.5302e-13
1.20758e-13
1.30065e-12
1.31585e-12
-1.11319e-12
-4.49233e-12
-3.96599e-12
3.42722e-12
1.35834e-11
1.52715e-11
-4.04598e-13
-2.77938e-11
-6.06903e-11
-8.13143e-11
-3.34291e-11
1.0863e-10
3.81592e-10
6.64484e-10
8.044e-10
7.06319e-10
3.66809e-10
-2.19889e-11
-1.62235e-10
8.22436e-11
6.24189e-10
1.25284e-09
1.41584e-09
1.05381e-09
3.53922e-10
-3.515e-10
-9.23822e-10
-1.21219e-09
-1.17508e-09
-8.53829e-10
-9.7191e-10
-2.30431e-19
-9.688e-19
9.47184e-18
4.71892e-17
-8.47148e-18
-4.46138e-16
2.79311e-16
1.75994e-15
-5.18132e-15
-7.32565e-15
1.75969e-14
2.89934e-14
-3.70509e-14
-6.5869e-14
2.32866e-14
8.66972e-14
8.21622e-14
1.07798e-13
-1.41836e-13
-7.62495e-13
-9.8125e-13
6.19741e-13
3.98734e-12
5.2841e-12
-2.41434e-13
-1.34557e-11
-2.90806e-11
-2.29244e-11
2.27543e-11
1.09051e-10
1.90529e-10
1.95077e-10
7.04321e-11
-1.17276e-10
-2.18118e-10
-1.1582e-10
1.92949e-10
5.30619e-10
6.07238e-10
2.90371e-10
-4.56262e-10
-1.47912e-09
-2.32553e-09
-2.81536e-09
-2.76547e-09
-2.37732e-09
-1.76567e-09
-1.11859e-09
-6.14091e-10
-1.7291e-10
-1.89789e-20
3.69924e-19
2.51937e-18
-1.62731e-18
-2.40529e-17
2.19975e-16
9.77693e-16
-2.05794e-15
-8.03666e-15
5.86938e-15
2.68946e-14
-7.0659e-15
-5.9485e-14
-2.29248e-14
1.02853e-13
1.59234e-13
-3.35168e-14
-4.71717e-13
-4.78391e-13
4.17065e-13
1.69142e-12
1.42803e-12
-1.23754e-12
-4.93017e-12
-5.87453e-12
-2.89306e-13
1.00375e-11
2.32379e-11
3.0774e-11
1.37955e-11
-3.87809e-11
-1.35978e-10
-2.40601e-10
-2.93377e-10
-2.58011e-10
-1.34276e-10
7.54167e-12
5.61525e-11
-2.40664e-11
-2.12549e-10
-4.43975e-10
-5.24577e-10
-4.22869e-10
-1.94511e-10
5.4206e-11
2.69026e-10
3.85804e-10
3.89895e-10
2.85666e-10
3.38804e-10
1.05009e-20
4.35655e-20
-3.00146e-19
-1.30553e-18
1.18969e-17
9.13773e-17
-6.58878e-17
-7.52995e-16
1.26091e-15
1.6106e-15
-6.00588e-15
-4.15899e-15
1.3464e-14
1.1978e-14
-9.69909e-15
-2.28152e-14
-2.81916e-14
-3.2494e-14
4.55552e-14
3.25499e-13
2.64983e-13
-2.58674e-13
-1.47186e-12
-1.86275e-12
3.48893e-13
5.08985e-12
1.04158e-11
7.47929e-12
-8.87858e-12
-3.90886e-11
-6.65298e-11
-6.77558e-11
-2.40921e-11
4.00362e-11
7.37119e-11
3.8632e-11
-6.61964e-11
-1.77573e-10
-2.02644e-10
-9.93686e-11
1.52809e-10
5.03678e-10
7.97088e-10
9.6882e-10
9.52806e-10
8.20089e-10
6.09936e-10
3.86585e-10
2.15201e-10
6.46502e-11
-7.32958e-21
-4.44215e-20
-1.6194e-19
3.15665e-19
2.91552e-18
-9.79291e-18
-5.98736e-17
4.46079e-16
1.06391e-15
-2.32296e-15
-5.51497e-15
2.77297e-15
1.54552e-14
6.95621e-15
-3.06375e-14
-4.84484e-14
1.49696e-14
1.53488e-13
1.5454e-13
-1.70904e-13
-5.75852e-13
-4.48637e-13
5.16332e-13
1.71204e-12
1.95612e-12
-4.46006e-14
-3.7545e-12
-7.90496e-12
-1.04657e-11
-3.73275e-12
1.41326e-11
4.68665e-11
8.01653e-11
9.67589e-11
8.59903e-11
4.66528e-11
1.97257e-12
-1.45958e-11
1.07378e-11
7.25789e-11
1.47105e-10
1.69698e-10
1.32256e-10
5.38148e-11
-2.71948e-11
-9.4989e-11
-1.30481e-10
-1.29103e-10
-9.50156e-11
-1.11962e-10
-5.03182e-21
-2.06571e-20
-4.03867e-20
-6.5798e-21
-2.94324e-19
-2.45715e-18
2.01128e-17
7.32011e-17
-1.72576e-16
-1.95314e-16
7.71228e-16
4.23481e-16
-2.27251e-15
-1.6325e-15
2.15613e-15
4.0025e-15
8.40457e-15
8.20399e-15
-2.08048e-14
-9.15117e-14
-4.73549e-14
1.03321e-13
4.91251e-13
4.39844e-13
-2.84705e-13
-1.63595e-12
-3.09129e-12
-2.03182e-12
3.13478e-12
1.22706e-11
2.05376e-11
1.95221e-11
5.47412e-12
-1.45873e-11
-2.4734e-11
-1.32675e-11
1.99717e-11
5.5047e-11
6.36521e-11
2.92384e-11
-5.21562e-11
-1.62363e-10
-2.52561e-10
-3.02874e-10
-2.9579e-10
-2.52583e-10
-1.87116e-10
-1.18563e-10
-6.48553e-11
-1.75173e-11
-1.8869e-21
-7.63925e-21
-2.20921e-20
-4.96338e-20
-4.22737e-20
7.63019e-19
2.14551e-18
-1.24276e-17
-8.64435e-18
2.32968e-16
3.35353e-16
-8.47848e-16
-1.94284e-15
-4.0886e-16
5.90163e-15
1.10591e-14
-4.16365e-15
-4.15609e-14
-4.27417e-14
5.67935e-14
1.70657e-13
1.19664e-13
-2.13097e-13
-5.06662e-13
-5.17899e-13
1.08234e-13
1.23484e-12
2.2534e-12
2.90643e-12
5.41494e-13
-4.73171e-12
-1.418e-11
-2.32999e-11
-2.71193e-11
-2.38252e-11
-1.27958e-11
-9.78144e-13
1.63594e-12
-6.69938e-12
-2.3209e-11
-4.14767e-11
-4.29703e-11
-2.83151e-11
-3.19847e-12
1.98198e-11
3.72188e-11
4.43651e-11
4.20979e-11
2.98163e-11
3.30459e-11
-7.61149e-22
-3.149e-21
-8.79089e-21
-1.30871e-20
4.15567e-21
4.10138e-20
-2.70516e-19
6.54276e-19
9.64777e-18
-1.65563e-18
-5.83163e-17
-1.80526e-17
1.27967e-16
1.099e-16
6.43411e-17
-2.27358e-16
-2.85565e-15
-6.57932e-16