/*--------------------------------*- C++ -*----------------------------------*\
| =========                 |                                                 |
| \\      /  F ield         | OpenFOAM: The Open Source CFD Toolbox           |
|  \\    /   O peration     | Version:  v2006                                 |
|   \\  /    A nd           | Website:  www.openfoam.com                      |
|    \\/     M anipulation  |                                                 |
\*---------------------------------------------------------------------------*/
FoamFile
{
    version     2.0;
    format      ascii;
    class       volVectorField;
    location    "0";
    object      U;
}
// * * * * * * * * * * * * * * * * * * * * * * * * * * * * * * * * * * * * * //

dimensions      [0 1 -1 0 0 0 0];


internalField   nonuniform List<vector> 
67500
(
(0.123354 0.000810937 0)
(0.118066 -0.00209042 0)
(0.125221 -0.00606836 0)
(0.13145 0.012841 0)
(0.120652 0.0215535 0)
(0.121724 0.0197614 0)
(0.124318 0.0214413 0)
(0.111426 0.0168409 0)
(0.0930509 0.0118793 0)
(0.0740855 0.00950276 0)
(0.0590228 0.00691889 0)
(0.0484388 0.0047535 0)
(0.0434907 0.00261357 0)
(0.0439753 0.000922051 0)
(0.0489401 2.99063e-05 0)
(0.0563713 -0.000276582 0)
(0.0644774 9.61653e-05 0)
(0.0713955 0.00145851 0)
(0.0747647 0.00377006 0)
(0.0725768 0.00626039 0)
(0.0653208 0.00780505 0)
(0.0541843 0.00741206 0)
(0.043026 0.00503082 0)
(0.034752 0.00208712 0)
(0.0296177 0.000100022 0)
(0.0265962 -0.000531107 0)
(0.0248813 -0.000443086 0)
(0.0239164 -0.000239606 0)
(0.0233383 -8.15727e-05 0)
(0.0229956 -4.56229e-05 0)
(0.0228898 -1.47947e-05 0)
(0.0228395 0.000113134 0)
(0.0224884 0.000265152 0)
(0.0216793 0.000385683 0)
(0.0204918 0.000470409 0)
(0.0190824 0.000539567 0)
(0.0175892 0.000595348 0)
(0.0161237 0.000629142 0)
(0.0147783 0.000639801 0)
(0.0136173 0.000633073 0)
(0.0126731 0.000607841 0)
(0.0119588 0.000553861 0)
(0.0114787 0.000464297 0)
(0.0112245 0.000344825 0)
(0.0111684 0.000212665 0)
(0.011261 8.94742e-05 0)
(0.0114394 -8.7053e-06 0)
(0.0116395 -7.57965e-05 0)
(0.0118092 -0.000115527 0)
(0.0119155 -0.00013609 0)
(0.0119464 -0.000146675 0)
(0.0119063 -0.000154054 0)
(0.0118114 -0.000162783 0)
(0.011684 -0.000174307 0)
(0.0115478 -0.000186819 0)
(0.0114232 -0.000197957 0)
(0.0113256 -0.000205207 0)
(0.0112633 -0.00020733 0)
(0.0112385 -0.000204975 0)
(0.011248 -0.000199173 0)
(0.0112855 -0.00019173 0)
(0.0113431 -0.000183836 0)
(0.0114131 -0.000175808 0)
(0.0114882 -0.000167801 0)
(0.0115635 -0.00016027 0)
(0.0116367 -0.000154286 0)
(0.0117089 -0.000150948 0)
(0.0117837 -0.000150436 0)
(0.0118659 -0.00015253 0)
(0.0119595 -0.000156019 0)
(0.0120657 -0.000159509 0)
(0.0121822 -0.000161983 0)
(0.0123032 -0.000162333 0)
(0.0124196 -0.000159075 0)
(0.0125207 -0.000151617 0)
(0.0125953 -0.000138507 0)
(0.0126331 -0.000119775 0)
(0.0126254 -9.54873e-05 0)
(0.0125666 -6.66683e-05 0)
(0.0124541 -3.37928e-05 0)
(0.0122876 2.53927e-06 0)
(0.012068 4.14606e-05 0)
(0.011798 8.16931e-05 0)
(0.0114813 0.000121565 0)
(0.0111222 0.000159608 0)
(0.0107245 0.000194699 0)
(0.0102913 0.000225775 0)
(0.00982601 0.000251929 0)
(0.00933219 0.000272956 0)
(0.0088131 0.000289049 0)
(0.00827219 0.00030033 0)
(0.00771362 0.00030705 0)
(0.00714193 0.000309859 0)
(0.00656154 0.000309288 0)
(0.00597669 0.000305904 0)
(0.00539164 0.000300078 0)
(0.004811 0.000292055 0)
(0.00423921 0.000282524 0)
(0.00368002 0.000272059 0)
(0.00313672 0.000261058 0)
(0.00261241 0.000249714 0)
(0.00210958 0.000238373 0)
(0.00162972 0.000227247 0)
(0.00117345 0.00021644 0)
(0.000740819 0.000205916 0)
(0.000331684 0.000195507 0)
(-5.40796e-05 0.000185153 0)
(-0.00041666 0.000174828 0)
(-0.000756371 0.000164543 0)
(-0.00107353 0.000154263 0)
(-0.00136829 0.000143922 0)
(-0.00164077 0.000133616 0)
(-0.00189132 0.000123481 0)
(-0.0021205 0.000113558 0)
(-0.00232873 0.00010376 0)
(-0.0025162 9.39788e-05 0)
(-0.00268296 8.40994e-05 0)
(-0.0028288 7.38352e-05 0)
(-0.00295287 6.28649e-05 0)
(-0.00305401 5.12161e-05 0)
(-0.00313147 3.91545e-05 0)
(-0.00318518 2.69268e-05 0)
(-0.00321551 1.47082e-05 0)
(-0.00322303 2.62083e-06 0)
(-0.00320836 -9.25491e-06 0)
(-0.00317215 -2.08454e-05 0)
(-0.00311496 -3.2139e-05 0)
(-0.00303712 -4.32257e-05 0)
(-0.00293863 -5.41532e-05 0)
(-0.00281951 -6.47917e-05 0)
(-0.0026802 -7.49434e-05 0)
(-0.00252157 -8.44847e-05 0)
(-0.00234466 -9.33814e-05 0)
(-0.00215055 -0.000101663 0)
(-0.00194027 -0.000109408 0)
(-0.00171469 -0.0001167 0)
(-0.00147466 -0.000123558 0)
(-0.00122108 -0.000129939 0)
(-0.000955012 -0.000135798 0)
(-0.000677617 -0.000141113 0)
(-0.000390062 -0.00014589 0)
(-9.34663e-05 -0.000150144 0)
(0.000211109 -0.000153884 0)
(0.000522611 -0.000157097 0)
(0.000839966 -0.000159775 0)
(0.0011621 -0.000161922 0)
(0.00148798 -0.000163559 0)
(0.00181662 -0.000164709 0)
(0.00214707 -0.000165392 0)
(0.00247843 -0.000165629 0)
(0.00280982 -0.000165444 0)
(0.00314043 -0.000164863 0)
(0.00346949 -0.00016391 0)
(0.00379627 -0.000162607 0)
(0.0041201 -0.000160978 0)
(0.00444034 -0.000159046 0)
(0.00475641 -0.000156833 0)
(0.00506778 -0.00015436 0)
(0.00537394 -0.000151651 0)
(0.00567445 -0.000148725 0)
(0.00596889 -0.000145605 0)
(0.0062569 -0.00014231 0)
(0.00653815 -0.000138859 0)
(0.00681235 -0.000135272 0)
(0.00707923 -0.000131567 0)
(0.0073386 -0.000127762 0)
(0.00759025 -0.000123876 0)
(0.00783406 -0.000119928 0)
(0.00806991 -0.000115936 0)
(0.00829774 -0.000111922 0)
(0.00851752 -0.000107903 0)
(0.00872925 -0.000103899 0)
(0.00893301 -9.99287e-05 0)
(0.00912885 -9.60093e-05 0)
(0.00931692 -9.21559e-05 0)
(0.00949734 -8.83818e-05 0)
(0.00967031 -8.4698e-05 0)
(0.00983599 -8.11132e-05 0)
(0.00999461 -7.76341e-05 0)
(0.0101464 -7.42652e-05 0)
(0.0102915 -7.10094e-05 0)
(0.0104303 -6.78683e-05 0)
(0.0105629 -6.4842e-05 0)
(0.0106895 -6.19297e-05 0)
(0.0108104 -5.913e-05 0)
(0.0109259 -5.64408e-05 0)
(0.0110361 -5.38595e-05 0)
(0.0111412 -5.13835e-05 0)
(0.0112415 -4.90095e-05 0)
(0.0113371 -4.67345e-05 0)
(0.0114283 -4.45553e-05 0)
(0.0115152 -4.24685e-05 0)
(0.0115981 -4.04709e-05 0)
(0.011677 -3.85592e-05 0)
(0.0117522 -3.67303e-05 0)
(0.0118238 -3.4981e-05 0)
(0.011892 -3.33081e-05 0)
(0.011957 -3.17086e-05 0)
(0.0120188 -3.01797e-05 0)
(0.0120776 -2.87183e-05 0)
(0.0121336 -2.73218e-05 0)
(0.0121868 -2.59875e-05 0)
(0.0122374 -2.47129e-05 0)
(0.0122856 -2.34953e-05 0)
(0.0123314 -2.23326e-05 0)
(0.0123749 -2.12224e-05 0)
(0.0124162 -2.01627e-05 0)
(0.0124555 -1.91514e-05 0)
(0.0124927 -1.81866e-05 0)
(0.0125282 -1.72666e-05 0)
(0.0125618 -1.63898e-05 0)
(0.0125937 -1.55546e-05 0)
(0.012624 -1.47596e-05 0)
(0.0126527 -1.40035e-05 0)
(0.01268 -1.3285e-05 0)
(0.0127058 -1.2603e-05 0)
(0.0127304 -1.19561e-05 0)
(0.0127537 -1.13434e-05 0)
(0.0127758 -1.07636e-05 0)
(0.0127968 -1.02157e-05 0)
(0.0128167 -9.69832e-06 0)
(0.0128356 -9.21036e-06 0)
(0.0128535 -8.75056e-06 0)
(0.0128706 -8.31764e-06 0)
(0.0128868 -7.91028e-06 0)
(0.0129023 -7.52715e-06 0)
(0.012917 -7.16691e-06 0)
(0.012931 -6.82818e-06 0)
(0.0129443 -6.50962e-06 0)
(0.012957 -6.20988e-06 0)
(0.0129692 -5.92765e-06 0)
(0.0129808 -5.66163e-06 0)
(0.0129919 -5.41058e-06 0)
(0.0130024 -5.17329e-06 0)
(0.0130126 -4.9486e-06 0)
(0.0130223 -4.73543e-06 0)
(0.0130315 -4.53275e-06 0)
(0.0130404 -4.33958e-06 0)
(0.0130489 -4.15502e-06 0)
(0.013057 -3.97825e-06 0)
(0.0130648 -3.8085e-06 0)
(0.0130723 -3.64508e-06 0)
(0.0130794 -3.48736e-06 0)
(0.0130862 -3.3348e-06 0)
(0.0130928 -3.1869e-06 0)
(0.013099 -3.04324e-06 0)
(0.0131049 -2.90347e-06 0)
(0.0131106 -2.76727e-06 0)
(0.013116 -2.63441e-06 0)
(0.0131212 -2.5047e-06 0)
(0.013126 -2.37797e-06 0)
(0.0131307 -2.25413e-06 0)
(0.0131351 -2.13312e-06 0)
(0.0131392 -2.01489e-06 0)
(0.0131431 -1.89944e-06 0)
(0.0131468 -1.7868e-06 0)
(0.0131503 -1.67698e-06 0)
(0.0131535 -1.57005e-06 0)
(0.0131565 -1.46607e-06 0)
(0.0131594 -1.36511e-06 0)
(0.013162 -1.26724e-06 0)
(0.0131644 -1.17253e-06 0)
(0.0131667 -1.08105e-06 0)
(0.0131687 -9.92878e-07 0)
(0.0131706 -9.08071e-07 0)
(0.0131724 -8.26686e-07 0)
(0.0131739 -7.48772e-07 0)
(0.0131754 -6.74369e-07 0)
(0.0131766 -6.03509e-07 0)
(0.0131778 -5.36213e-07 0)
(0.0131788 -4.72494e-07 0)
(0.0131796 -4.12357e-07 0)
(0.0131804 -3.55794e-07 0)
(0.0131811 -3.02791e-07 0)
(0.0131816 -2.53326e-07 0)
(0.0131821 -2.07365e-07 0)
(0.0131824 -1.64868e-07 0)
(0.0131827 -1.25788e-07 0)
(0.0131829 -9.00664e-08 0)
(0.0131831 -5.7641e-08 0)
(0.0131832 -2.84405e-08 0)
(0.0131832 -2.387e-09 0)
(0.0131832 2.06042e-08 0)
(0.0131831 4.06238e-08 0)
(0.013183 5.77687e-08 0)
(0.0131829 7.21415e-08 0)
(0.0131827 8.38496e-08 0)
(0.0131825 9.30056e-08 0)
(0.0131823 9.97263e-08 0)
(0.0131821 1.04133e-07 0)
(0.0131819 1.06349e-07 0)
(0.0131817 1.06504e-07 0)
(0.0131815 1.04727e-07 0)
(0.0131813 1.01151e-07 0)
(0.0131811 9.59122e-08 0)
(0.0131809 8.91468e-08 0)
(0.0131807 8.09929e-08 0)
(0.0131806 7.15893e-08 0)
(0.0131804 6.10753e-08 0)
(0.0131803 4.95898e-08 0)
(0.0131802 3.72714e-08 0)
(0.0131802 2.42569e-08 0)
(0.0131802 1.06818e-08 0)
(0.0131801 -3.32139e-09 0)
(0.0131802 -1.76228e-08 0)
(0.0131802 -3.20962e-08 0)
(0.0131803 -4.66196e-08 0)
(0.0131804 -6.10754e-08 0)
(0.0131805 -7.53508e-08 0)
(0.0131807 -8.93385e-08 0)
(0.0131809 -1.02937e-07 0)
(0.0131811 -1.16049e-07 0)
(0.0131814 -1.28587e-07 0)
(0.0131816 -1.40465e-07 0)
(0.0131819 -1.51609e-07 0)
(0.0131822 -1.61948e-07 0)
(0.0131826 -1.71421e-07 0)
(0.0131829 -1.79972e-07 0)
(0.0131833 -1.87555e-07 0)
(0.0131837 -1.9413e-07 0)
(0.0131841 -1.99668e-07 0)
(0.0131845 -2.04145e-07 0)
(0.0131849 -2.07546e-07 0)
(0.0131853 -2.09865e-07 0)
(0.0131857 -2.11102e-07 0)
(0.0131862 -2.11266e-07 0)
(0.0131866 -2.10371e-07 0)
(0.013187 -2.0844e-07 0)
(0.0131874 -2.05502e-07 0)
(0.0131878 -2.01591e-07 0)
(0.0131882 -1.9675e-07 0)
(0.0131886 -1.91024e-07 0)
(0.013189 -1.84467e-07 0)
(0.0131894 -1.77135e-07 0)
(0.0131897 -1.69093e-07 0)
(0.01319 -1.60406e-07 0)
(0.0131903 -1.51148e-07 0)
(0.0131906 -1.41394e-07 0)
(0.0131909 -1.31222e-07 0)
(0.0131912 -1.20715e-07 0)
(0.0131914 -1.09954e-07 0)
(0.0131916 -9.90254e-08 0)
(0.0131918 -8.80118e-08 0)
(0.0131919 -7.69964e-08 0)
(0.0131921 -6.606e-08 0)
(0.0131922 -5.52799e-08 0)
(0.0131923 -4.47297e-08 0)
(0.0131924 -3.44777e-08 0)
(0.0131924 -2.45863e-08 0)
(0.0131925 -1.51117e-08 0)
(0.0131925 -6.10299e-09 0)
(0.0131925 2.39804e-09 0)
(0.0131924 1.03572e-08 0)
(0.0131924 1.77478e-08 0)
(0.0131924 2.45509e-08 0)
(0.0131923 3.07548e-08 0)
(0.0131922 3.63549e-08 0)
(0.0131921 4.13534e-08 0)
(0.013192 4.57586e-08 0)
(0.0131919 4.95844e-08 0)
(0.0131918 5.285e-08 0)
(0.0131917 5.55791e-08 0)
(0.0131916 5.77991e-08 0)
(0.0131915 5.9541e-08 0)
(0.0131913 6.08382e-08 0)
(0.0131912 6.1726e-08 0)
(0.0131911 6.22409e-08 0)
(0.0131909 6.24196e-08 0)
(0.0131908 6.22984e-08 0)
(0.0131907 6.19121e-08 0)
(0.0131906 6.1293e-08 0)
(0.0131904 6.04701e-08 0)
(0.0131903 5.94676e-08 0)
(0.0131902 5.83048e-08 0)
(0.0131901 5.69944e-08 0)
(0.01319 5.55424e-08 0)
(0.0131899 5.39475e-08 0)
(0.0131898 5.22012e-08 0)
(0.0131897 5.02879e-08 0)
(0.0131896 4.81869e-08 0)
(0.0131896 4.58728e-08 0)
(0.0131895 4.33187e-08 0)
(0.0131894 4.04979e-08 0)
(0.0131894 3.73873e-08 0)
(0.0131893 3.39696e-08 0)
(0.0131893 3.02363e-08 0)
(0.0131892 2.61894e-08 0)
(0.0131892 2.18431e-08 0)
(0.0131892 1.72244e-08 0)
(0.0131892 1.23725e-08 0)
(0.0131892 7.33799e-09 0)
(0.0131892 2.1807e-09 0)
(0.0131892 -3.03285e-09 0)
(0.0131892 -8.23229e-09 0)
(0.0131893 -1.33464e-08 0)
(0.0131893 -1.83063e-08 0)
(0.0131894 -2.30476e-08 0)
(0.0131894 -2.7513e-08 0)
(0.0131895 -3.16537e-08 0)
(0.0131896 -3.54308e-08 0)
(0.0131896 -3.88154e-08 0)
(0.0131897 -4.17889e-08 0)
(0.0131898 -4.43425e-08 0)
(0.0131899 -4.64762e-08 0)
(0.01319 -4.81985e-08 0)
(0.0131901 -4.95242e-08 0)
(0.0131902 -5.04738e-08 0)
(0.0131903 -5.10723e-08 0)
(0.0131904 -5.13476e-08 0)
(0.0131905 -5.13295e-08 0)
(0.0131906 -5.10488e-08 0)
(0.0131907 -5.05366e-08 0)
(0.0131908 -4.98231e-08 0)
(0.0131909 -4.89376e-08 0)
(0.013191 -4.79077e-08 0)
(0.0131911 -4.67592e-08 0)
(0.0131912 -4.55157e-08 0)
(0.0131913 -4.41987e-08 0)
(0.0131914 -4.28276e-08 0)
(0.0131915 -4.14195e-08 0)
(0.0131915 -3.99894e-08 0)
(0.0131916 -3.85505e-08 0)
(0.0131917 -3.7114e-08 0)
(0.0131918 -3.56895e-08 0)
(0.0131918 -3.42848e-08 0)
(0.0131919 -3.29066e-08 0)
(0.013192 -3.15603e-08 0)
(0.013192 -3.02501e-08 0)
(0.0131921 -2.89793e-08 0)
(0.0131921 -2.77503e-08 0)
(0.0131922 -2.6565e-08 0)
(0.0131922 -2.54244e-08 0)
(0.0131923 -2.4329e-08 0)
(0.0131923 -2.32791e-08 0)
(0.0131924 -2.22744e-08 0)
(0.0131924 -2.13144e-08 0)
(0.0131925 -2.03983e-08 0)
(0.0131925 -1.95252e-08 0)
(0.0131925 -1.86938e-08 0)
(0.0131926 -1.7903e-08 0)
(0.0131926 -1.71514e-08 0)
(0.0131926 -1.64376e-08 0)
(0.0131927 -1.57602e-08 0)
(0.0131927 -1.51175e-08 0)
(0.0131927 -1.45084e-08 0)
(0.0131928 -1.39303e-08 0)
(0.0131928 -1.33861e-08 0)
(0.0131928 -1.28552e-08 0)
(0.0131928 -1.24223e-08 0)
(0.0131929 -1.16938e-08 0)
(0.126246 0.000122007 0)
(0.121856 0.000869572 0)
(0.136299 -0.011166 0)
(0.125544 0.00710966 0)
(0.105156 -0.0132445 0)
(0.131711 -0.0258525 0)
(0.163598 -0.0121139 0)
(0.199107 0.0220643 0)
(0.187889 0.0314037 0)
(0.170211 0.0315136 0)
(0.143859 0.0227648 0)
(0.113879 0.0134416 0)
(0.0913855 0.00536993 0)
(0.0654978 -0.00353215 0)
(0.0512567 -0.00904455 0)
(0.0440211 -0.0128578 0)
(0.0399825 -0.0141932 0)
(0.0391662 -0.0118919 0)
(0.0420758 -0.00642265 0)
(0.0475314 0.00178438 0)
(0.0522251 0.00937926 0)
(0.0543655 0.0139137 0)
(0.0525136 0.0141318 0)
(0.0485157 0.0114021 0)
(0.0437365 0.00777969 0)
(0.0386684 0.00475046 0)
(0.0337124 0.00277235 0)
(0.0290988 0.00139818 0)
(0.0246719 0.000674205 0)
(0.0208104 0.000247063 0)
(0.0181808 0.000100626 0)
(0.0164011 0.00055253 0)
(0.0144997 0.00121563 0)
(0.0125079 0.00183552 0)
(0.0105726 0.00227058 0)
(0.00896362 0.00246813 0)
(0.00773398 0.00245374 0)
(0.00688146 0.00226705 0)
(0.00639261 0.00194301 0)
(0.00622588 0.00153964 0)
(0.00631545 0.00111476 0)
(0.00658792 0.000706107 0)
(0.00697408 0.000339638 0)
(0.00741067 3.67633e-05 0)
(0.00784716 -0.000183167 0)
(0.00825353 -0.000302248 0)
(0.00862757 -0.000318022 0)
(0.00899636 -0.000243118 0)
(0.00939857 -0.0001077 0)
(0.00986699 5.44256e-05 0)
(0.0104146 0.000210572 0)
(0.0110332 0.000341722 0)
(0.0116977 0.00043486 0)
(0.0123805 0.000484095 0)
(0.0130586 0.000492421 0)
(0.0137156 0.000463455 0)
(0.0143445 0.000407285 0)
(0.0149428 0.000336897 0)
(0.0155112 0.000262439 0)
(0.0160545 0.00019516 0)
(0.0165784 0.000140679 0)
(0.0170909 0.000101369 0)
(0.0176018 7.72632e-05 0)
(0.0181208 6.49419e-05 0)
(0.018654 6.0547e-05 0)
(0.0192015 5.79533e-05 0)
(0.0197547 5.10239e-05 0)
(0.0202954 3.84328e-05 0)
(0.0207987 1.88098e-05 0)
(0.021242 -4.92698e-06 0)
(0.0216053 -2.74967e-05 0)
(0.0218748 -4.31105e-05 0)
(0.0220405 -4.68343e-05 0)
(0.022097 -3.33324e-05 0)
(0.0220414 -4.47223e-06 0)
(0.0218761 4.17939e-05 0)
(0.0216034 0.000100552 0)
(0.0212292 0.000169679 0)
(0.0207586 0.000242034 0)
(0.0202003 0.000313311 0)
(0.0195632 0.000380548 0)
(0.0188565 0.00044166 0)
(0.0180898 0.000495138 0)
(0.0172738 0.000540438 0)
(0.0164193 0.000579481 0)
(0.015536 0.000615417 0)
(0.0146324 0.000649603 0)
(0.0137166 0.000682041 0)
(0.0127965 0.000713627 0)
(0.0118784 0.000744764 0)
(0.010968 0.000773513 0)
(0.0100714 0.000797918 0)
(0.00919371 0.000818026 0)
(0.00833909 0.000833092 0)
(0.00751082 0.000843007 0)
(0.00671145 0.000847054 0)
(0.00594362 0.000844033 0)
(0.00520925 0.000834916 0)
(0.00450858 0.000819829 0)
(0.00384125 0.000798695 0)
(0.00320708 0.00077156 0)
(0.00260577 0.000740254 0)
(0.00203641 0.000706269 0)
(0.00149782 0.000671165 0)
(0.000988739 0.000635784 0)
(0.000508565 0.000600172 0)
(5.72748e-05 0.000564774 0)
(-0.000365053 0.000529723 0)
(-0.00075844 0.000495272 0)
(-0.00112303 0.00046135 0)
(-0.00145865 0.000427494 0)
(-0.00176512 0.000393908 0)
(-0.00204283 0.000360877 0)
(-0.00229261 0.000328369 0)
(-0.00251526 0.000296083 0)
(-0.00271139 0.00026374 0)
(-0.00288174 0.000231334 0)
(-0.00302698 0.000198396 0)
(-0.00314676 0.00016397 0)
(-0.00324018 0.000128237 0)
(-0.00330708 9.2205e-05 0)
(-0.0033482 5.6776e-05 0)
(-0.00336467 2.24582e-05 0)
(-0.00335773 -1.06095e-05 0)
(-0.00332854 -4.25279e-05 0)
(-0.0032782 -7.33618e-05 0)
(-0.00320776 -0.000103399 0)
(-0.00311782 -0.000133313 0)
(-0.00300832 -0.00016351 0)
(-0.00287909 -0.000193575 0)
(-0.00273059 -0.000222817 0)
(-0.00256384 -0.000250803 0)
(-0.00237996 -0.000277356 0)
(-0.00218007 -0.000302439 0)
(-0.00196514 -0.000326166 0)
(-0.00173586 -0.000348682 0)
(-0.00149281 -0.000369923 0)
(-0.00123672 -0.000389651 0)
(-0.000968542 -0.000407662 0)
(-0.000689396 -0.000423863 0)
(-0.000400394 -0.00043829 0)
(-0.000102579 -0.000451054 0)
(0.000203081 -0.000462223 0)
(0.000515602 -0.000471788 0)
(0.000833933 -0.000479736 0)
(0.001157 -0.000486103 0)
(0.00148377 -0.000490962 0)
(0.00181327 -0.000494385 0)
(0.00214456 -0.000496424 0)
(0.00247673 -0.000497129 4.57665e-42)
(0.00280891 -0.000496568 4.26703e-42)
(0.00314028 -0.000494814 0)
(0.00347007 -0.000491938 0)
(0.00379754 -0.00048801 0)
(0.00412202 -0.0004831 0)
(0.00444289 -0.00047728 0)
(0.00475954 -0.000470618 0)
(0.00507145 -0.00046318 0)
(0.00537811 -0.000455033 0)
(0.00567908 -0.00044624 0)
(0.00597395 -0.000436864 0)
(0.00626234 -0.000426963 0)
(0.00654393 -0.000416597 0)
(0.00681843 -0.000405822 0)
(0.00708558 -0.000394694 0)
(0.00734517 -0.000383267 0)
(0.00759702 -0.000371596 0)
(0.00784098 -0.000359738 0)
(0.00807695 -0.00034775 0)
(0.00830485 -0.000335691 0)
(0.00852466 -0.000323621 0)
(0.00873639 -0.000311597 0)
(0.00894011 -0.000299675 0)
(0.00913588 -0.000287906 0)
(0.00932384 -0.000276338 0)
(0.00950414 -0.000265009 0)
(0.00967695 -0.000253953 0)
(0.00984246 -0.000243195 0)
(0.0100009 -0.000232757 0)
(0.0101525 -0.00022265 0)
(0.0102974 -0.000212884 0)
(0.010436 -0.000203463 0)
(0.0105684 -0.000194386 0)
(0.0106948 -0.000185653 0)
(0.0108156 -0.000177257 0)
(0.0109308 -0.000169193 0)
(0.0110408 -0.000161453 0)
(0.0111457 -0.000154028 0)
(0.0112458 -0.00014691 0)
(0.0113413 -0.000140088 0)
(0.0114323 -0.000133554 0)
(0.0115191 -0.000127297 0)
(0.0116018 -0.000121307 0)
(0.0116806 -0.000115576 0)
(0.0117556 -0.000110092 0)
(0.0118271 -0.000104847 0)
(0.0118952 -9.98318e-05 0)
(0.01196 -9.50367e-05 0)
(0.0120216 -9.04532e-05 0)
(0.0120803 -8.60727e-05 0)
(0.0121362 -8.1887e-05 0)
(0.0121893 -7.78881e-05 0)
(0.0122398 -7.40683e-05 0)
(0.0122879 -7.04202e-05 0)
(0.0123336 -6.69368e-05 0)
(0.012377 -6.36114e-05 0)
(0.0124182 -6.04376e-05 0)
(0.0124574 -5.74094e-05 0)
(0.0124946 -5.45212e-05 0)
(0.0125299 -5.17675e-05 0)
(0.0125634 -4.91435e-05 0)
(0.0125953 -4.66445e-05 0)
(0.0126255 -4.42662e-05 0)
(0.0126542 -4.20043e-05 0)
(0.0126813 -3.98552e-05 0)
(0.0127071 -3.78149e-05 0)
(0.0127316 -3.588e-05 0)
(0.0127548 -3.40469e-05 0)
(0.0127769 -3.23122e-05 0)
(0.0127978 -3.06722e-05 0)
(0.0128177 -2.91234e-05 0)
(0.0128365 -2.76621e-05 0)
(0.0128544 -2.62847e-05 0)
(0.0128714 -2.49873e-05 0)
(0.0128876 -2.3766e-05 0)
(0.012903 -2.26168e-05 0)
(0.0129177 -2.15358e-05 0)
(0.0129316 -2.05189e-05 0)
(0.0129449 -1.95621e-05 0)
(0.0129576 -1.86616e-05 0)
(0.0129697 -1.78132e-05 0)
(0.0129813 -1.70134e-05 0)
(0.0129923 -1.62583e-05 0)
(0.0130029 -1.55444e-05 0)
(0.013013 -1.48683e-05 0)
(0.0130227 -1.42267e-05 0)
(0.0130319 -1.36167e-05 0)
(0.0130408 -1.30353e-05 0)
(0.0130493 -1.24797e-05 0)
(0.0130574 -1.19477e-05 0)
(0.0130652 -1.14368e-05 0)
(0.0130726 -1.0945e-05 0)
(0.0130797 -1.04704e-05 0)
(0.0130865 -1.00114e-05 0)
(0.0130931 -9.56645e-06 0)
(0.0130993 -9.13435e-06 0)
(0.0131052 -8.71397e-06 0)
(0.0131109 -8.30441e-06 0)
(0.0131163 -7.90493e-06 0)
(0.0131214 -7.51493e-06 0)
(0.0131263 -7.13396e-06 0)
(0.0131309 -6.76172e-06 0)
(0.0131353 -6.39799e-06 0)
(0.0131394 -6.04267e-06 0)
(0.0131433 -5.69574e-06 0)
(0.013147 -5.35725e-06 0)
(0.0131505 -5.02733e-06 0)
(0.0131537 -4.70611e-06 0)
(0.0131567 -4.3938e-06 0)
(0.0131596 -4.09058e-06 0)
(0.0131622 -3.79669e-06 0)
(0.0131646 -3.51235e-06 0)
(0.0131668 -3.23776e-06 0)
(0.0131689 -2.97313e-06 0)
(0.0131708 -2.71864e-06 0)
(0.0131725 -2.47447e-06 0)
(0.0131741 -2.24075e-06 0)
(0.0131755 -2.01759e-06 0)
(0.0131768 -1.80509e-06 0)
(0.0131779 -1.60331e-06 0)
(0.0131789 -1.41228e-06 0)
(0.0131798 -1.23201e-06 0)
(0.0131805 -1.06248e-06 0)
(0.0131812 -9.03633e-07 0)
(0.0131817 -7.55403e-07 0)
(0.0131822 -6.17689e-07 0)
(0.0131825 -4.90368e-07 0)
(0.0131828 -3.73294e-07 0)
(0.013183 -2.66296e-07 0)
(0.0131832 -1.69183e-07 0)
(0.0131832 -8.17421e-08 0)
(0.0131832 -3.73834e-09 0)
(0.0131832 6.50813e-08 0)
(0.0131832 1.24989e-07 0)
(0.013183 1.76276e-07 0)
(0.0131829 2.19247e-07 0)
(0.0131827 2.54227e-07 0)
(0.0131826 2.81551e-07 0)
(0.0131824 3.01571e-07 0)
(0.0131821 3.14649e-07 0)
(0.0131819 3.21158e-07 0)
(0.0131817 3.21481e-07 0)
(0.0131815 3.1601e-07 0)
(0.0131813 3.05144e-07 0)
(0.0131811 2.89289e-07 0)
(0.0131809 2.68854e-07 0)
(0.0131807 2.44254e-07 0)
(0.0131806 2.15905e-07 0)
(0.0131804 1.84226e-07 0)
(0.0131803 1.49632e-07 0)
(0.0131802 1.1254e-07 0)
(0.0131802 7.33603e-08 0)
(0.0131801 3.24984e-08 0)
(0.0131801 -9.64736e-09 0)
(0.0131801 -5.26881e-08 0)
(0.0131802 -9.62456e-08 0)
(0.0131803 -1.39954e-07 0)
(0.0131804 -1.8346e-07 0)
(0.0131805 -2.26428e-07 0)
(0.0131807 -2.68534e-07 0)
(0.0131809 -3.09473e-07 0)
(0.0131811 -3.48959e-07 0)
(0.0131813 -3.8672e-07 0)
(0.0131816 -4.22508e-07 0)
(0.0131819 -4.56092e-07 0)
(0.0131822 -4.87261e-07 0)
(0.0131826 -5.15829e-07 0)
(0.0131829 -5.41628e-07 0)
(0.0131833 -5.64516e-07 0)
(0.0131837 -5.84374e-07 0)
(0.0131841 -6.01104e-07 0)
(0.0131845 -6.14635e-07 0)
(0.0131849 -6.24919e-07 0)
(0.0131853 -6.31929e-07 0)
(0.0131857 -6.35663e-07 0)
(0.0131862 -6.36143e-07 0)
(0.0131866 -6.33408e-07 0)
(0.013187 -6.27521e-07 0)
(0.0131874 -6.18566e-07 0)
(0.0131878 -6.06643e-07 0)
(0.0131882 -5.91873e-07 0)
(0.0131886 -5.74395e-07 0)
(0.013189 -5.54364e-07 0)
(0.0131894 -5.31953e-07 0)
(0.0131897 -5.07349e-07 0)
(0.01319 -4.80754e-07 0)
(0.0131904 -4.52386e-07 0)
(0.0131907 -4.22471e-07 0)
(0.0131909 -3.9125e-07 0)
(0.0131912 -3.58968e-07 0)
(0.0131914 -3.25879e-07 0)
(0.0131916 -2.92238e-07 0)
(0.0131918 -2.58303e-07 0)
(0.013192 -2.24328e-07 0)
(0.0131921 -1.90562e-07 0)
(0.0131922 -1.57244e-07 0)
(0.0131923 -1.24604e-07 0)
(0.0131924 -9.28561e-08 0)
(0.0131924 -6.21985e-08 0)
(0.0131925 -3.28108e-08 0)
(0.0131925 -4.85266e-09 0)
(0.0131925 2.15375e-08 0)
(0.0131925 4.62434e-08 0)
(0.0131924 6.91707e-08 0)
(0.0131924 9.02472e-08 0)
(0.0131923 1.09422e-07 0)
(0.0131922 1.26663e-07 0)
(0.0131921 1.4196e-07 0)
(0.013192 1.55317e-07 0)
(0.0131919 1.66756e-07 0)
(0.0131918 1.76311e-07 0)
(0.0131917 1.8403e-07 0)
(0.0131916 1.89971e-07 0)
(0.0131915 1.94204e-07 0)
(0.0131913 1.96806e-07 0)
(0.0131912 1.97865e-07 0)
(0.0131911 1.97474e-07 0)
(0.0131909 1.95734e-07 0)
(0.0131908 1.92754e-07 0)
(0.0131907 1.88647e-07 0)
(0.0131906 1.83529e-07 0)
(0.0131904 1.77517e-07 0)
(0.0131903 1.70731e-07 0)
(0.0131902 1.63281e-07 0)
(0.0131901 1.55274e-07 0)
(0.01319 1.46803e-07 0)
(0.0131899 1.3795e-07 0)
(0.0131898 1.28777e-07 0)
(0.0131897 1.19328e-07 0)
(0.0131896 1.09629e-07 0)
(0.0131895 9.96867e-08 0)
(0.0131895 8.94918e-08 0)
(0.0131894 7.90239e-08 0)
(0.0131894 6.82565e-08 0)
(0.0131893 5.71632e-08 0)
(0.0131893 4.57245e-08 0)
(0.0131892 3.39339e-08 0)
(0.0131892 2.1803e-08 0)
(0.0131892 9.36547e-09 0)
(0.0131892 -3.32146e-09 0)
(0.0131892 -1.61771e-08 0)
(0.0131892 -2.90996e-08 0)
(0.0131892 -4.19696e-08 0)
(0.0131892 -5.46555e-08 0)
(0.0131893 -6.70194e-08 0)
(0.0131893 -7.8923e-08 0)
(0.0131894 -9.02338e-08 0)
(0.0131894 -1.00831e-07 0)
(0.0131895 -1.10607e-07 0)
(0.0131896 -1.19476e-07 0)
(0.0131896 -1.27371e-07 0)
(0.0131897 -1.34248e-07 0)
(0.0131898 -1.40083e-07 0)
(0.0131899 -1.44874e-07 0)
(0.01319 -1.48637e-07 0)
(0.0131901 -1.51406e-07 0)
(0.0131902 -1.53227e-07 0)
(0.0131903 -1.5416e-07 0)
(0.0131904 -1.54269e-07 0)
(0.0131905 -1.53628e-07 0)
(0.0131906 -1.52313e-07 0)
(0.0131907 -1.504e-07 0)
(0.0131908 -1.47967e-07 0)
(0.0131909 -1.45087e-07 0)
(0.013191 -1.41832e-07 0)
(0.0131911 -1.38268e-07 0)
(0.0131912 -1.34458e-07 0)
(0.0131913 -1.30459e-07 0)
(0.0131914 -1.26322e-07 0)
(0.0131915 -1.22093e-07 0)
(0.0131915 -1.17813e-07 0)
(0.0131916 -1.13518e-07 0)
(0.0131917 -1.09238e-07 0)
(0.0131918 -1.05e-07 0)
(0.0131918 -1.00825e-07 0)
(0.0131919 -9.67326e-08 0)
(0.013192 -9.27373e-08 0)
(0.013192 -8.8851e-08 0)
(0.0131921 -8.5083e-08 0)
(0.0131921 -8.14402e-08 0)
(0.0131922 -7.79275e-08 0)
(0.0131922 -7.45479e-08 0)
(0.0131923 -7.13031e-08 0)
(0.0131923 -6.81934e-08 0)
(0.0131924 -6.52181e-08 0)
(0.0131924 -6.23755e-08 0)
(0.0131925 -5.96635e-08 0)
(0.0131925 -5.7079e-08 0)
(0.0131925 -5.46186e-08 0)
(0.0131926 -5.22787e-08 0)
(0.0131926 -5.00553e-08 0)
(0.0131927 -4.79441e-08 0)
(0.0131927 -4.59408e-08 0)
(0.0131927 -4.40409e-08 0)
(0.0131927 -4.22406e-08 0)
(0.0131928 -4.05326e-08 0)
(0.0131928 -3.89252e-08 0)
(0.0131928 -3.73576e-08 0)
(0.0131928 -3.60786e-08 0)
(0.0131929 -3.39429e-08 0)
(0.125126 -0.00283311 0)
(0.119677 -0.00635569 0)
(0.121876 -0.00770356 0)
(0.12314 0.0158161 0)
(0.121562 -0.0158045 0)
(0.167146 -0.0295683 0)
(0.187416 -0.0265893 0)
(0.237662 -0.000800986 0)
(0.241118 0.019796 0)
(0.221427 0.0421815 0)
(0.191064 0.0527851 0)
(0.168828 0.0508492 0)
(0.135705 0.0429105 0)
(0.111451 0.0302322 0)
(0.0984264 0.0163835 0)
(0.0837782 0.00712133 0)
(0.0710126 0.00226266 0)
(0.0578742 -0.00165461 0)
(0.0486754 -0.00136556 0)
(0.0400656 0.00045411 0)
(0.0365461 0.00373541 0)
(0.0362172 0.00798019 0)
(0.0360606 0.0110129 0)
(0.0337288 0.0118299 0)
(0.0284522 0.0111652 0)
(0.021849 0.0102623 0)
(0.0146078 0.0100101 0)
(0.00716516 0.00972011 0)
(0.000690099 0.00864769 0)
(-0.00438848 0.00606651 0)
(-0.00877533 0.00345818 0)
(-0.0132239 0.00310492 0)
(-0.0171792 0.00340287 0)
(-0.020314 0.00354375 0)
(-0.0223909 0.00335545 0)
(-0.0238799 0.00284977 0)
(-0.0252628 0.0021962 0)
(-0.0265504 0.00152968 0)
(-0.0277426 0.000928198 0)
(-0.0289405 0.000420815 0)
(-0.0302417 1.26863e-05 0)
(-0.0316888 -0.00031317 0)
(-0.033276 -0.000559156 0)
(-0.0349706 -0.000724355 0)
(-0.0366925 -0.000827084 0)
(-0.038314 -0.000889626 0)
(-0.0396323 -0.000964099 0)
(-0.0404036 -0.00107502 0)
(-0.0404817 -0.00122517 0)
(-0.0398324 -0.00138082 0)
(-0.0385587 -0.00151584 0)
(-0.0368315 -0.00160156 0)
(-0.0348355 -0.00163387 0)
(-0.0327157 -0.00162769 0)
(-0.030547 -0.00158905 0)
(-0.0284113 -0.00153593 0)
(-0.0263148 -0.00147892 0)
(-0.024232 -0.00142047 0)
(-0.0221698 -0.00136847 0)
(-0.0200746 -0.00132536 0)
(-0.0179273 -0.00129883 0)
(-0.0157266 -0.00128895 0)
(-0.013457 -0.00129801 0)
(-0.0110601 -0.00132644 0)
(-0.00853586 -0.00135657 0)
(-0.00592022 -0.00137291 0)
(-0.00328657 -0.00135845 0)
(-0.000671151 -0.00129915 0)
(0.00179979 -0.00119297 0)
(0.00405947 -0.0010445 0)
(0.00611441 -0.000863135 0)
(0.00799229 -0.000659561 0)
(0.00967903 -0.000437113 0)
(0.0112463 -0.000203773 0)
(0.0126539 3.35496e-05 0)
(0.0139902 0.000272112 0)
(0.0152309 0.000505352 0)
(0.0163786 0.000730777 0)
(0.0173573 0.000947397 0)
(0.0181604 0.00115182 0)
(0.0187858 0.00134331 0)
(0.0192294 0.00152086 0)
(0.0194928 0.00168124 0)
(0.0195864 0.00181866 0)
(0.0195262 0.00193245 0)
(0.0193287 0.00202525 0)
(0.0190105 0.00209696 0)
(0.0185889 0.00214431 0)
(0.0180824 0.00216971 0)
(0.0175042 0.00217705 0)
(0.0168652 0.00216683 0)
(0.0161761 0.00213836 0)
(0.0154482 0.00209754 0)
(0.0146855 0.00204369 0)
(0.013898 0.0019801 0)
(0.0130899 0.00190907 0)
(0.0122654 0.00182853 0)
(0.011432 0.00174443 0)
(0.010591 0.00165941 0)
(0.00974667 0.0015757 0)
(0.00890237 0.0014919 0)
(0.00806307 0.00141084 0)
(0.00723171 0.00133261 0)
(0.00641051 0.00125843 0)
(0.0056011 0.0011872 0)
(0.00480625 0.0011163 0)
(0.00402986 0.00104616 0)
(0.00327599 0.000975876 0)
(0.00254879 0.000906043 0)
(0.0018518 0.000836489 0)
(0.00118906 0.000766255 0)
(0.00056493 0.000696985 0)
(-1.76402e-05 0.000630153 0)
(-0.000556441 0.000565826 0)
(-0.00104941 0.000503917 0)
(-0.00149465 0.000444357 0)
(-0.00189114 0.000386831 0)
(-0.00223921 0.000329503 0)
(-0.00253847 0.000269417 0)
(-0.0027878 0.0002076 0)
(-0.0029877 0.000145919 0)
(-0.0031404 8.53847e-05 0)
(-0.00324883 2.66384e-05 0)
(-0.00331605 -3.01671e-05 0)
(-0.00334491 -8.52781e-05 0)
(-0.00333834 -0.0001384 0)
(-0.00329968 -0.000189709 0)
(-0.00323155 -0.00024044 0)
(-0.00313499 -0.000291532 0)
(-0.00301089 -0.000342016 0)
(-0.00286136 -0.000390351 0)
(-0.00268919 -0.000435724 0)
(-0.002497 -0.000477975 0)
(-0.00228709 -0.000517278 0)
(-0.00206138 -0.000554209 0)
(-0.00182114 -0.000589431 0)
(-0.00156716 -0.000622936 0)
(-0.00130043 -0.000654258 0)
(-0.00102228 -0.000683034 0)
(-0.000734119 -0.000709095 0)
(-0.000437253 -0.00073249 0)
(-0.000132724 -0.000753407 0)
(0.000178669 -0.000771901 0)
(0.000496111 -0.000787844 0)
(0.000818645 -0.000801114 0)
(0.00114526 -0.000811726 0)
(0.00147501 -0.00081981 0)
(0.00180706 -0.000825494 0)
(0.00214059 -0.000828855 0)
(0.00247474 -0.000829976 0)
(0.00280869 -0.000828979 0)
(0.00314166 -0.000825998 0)
(0.00347291 -0.00082115 0)
(0.00380175 -0.000814547 0)
(0.0041275 -0.000806306 0)
(0.00444954 -0.000796546 0)
(0.00476729 -0.000785379 0)
(0.00508022 -0.000772916 0)
(0.00538783 -0.000759268 0)
(0.00568967 -0.000744544 0)
(0.00598533 -0.000728847 0)
(0.00627444 -0.000712278 0)
(0.00655667 -0.000694935 0)
(0.00683174 -0.000676912 0)
(0.00709939 -0.000658299 0)
(0.00735941 -0.000639189 0)
(0.0076116 -0.000619671 0)
(0.00785583 -0.00059984 0)
(0.00809199 -0.000579791 0)
(0.00832 -0.000559624 0)
(0.00853984 -0.000539438 0)
(0.00875153 -0.000519332 0)
(0.00895511 -0.000499401 0)
(0.0091507 -0.000479731 0)
(0.00933841 -0.000460402 0)
(0.0095184 -0.000441479 0)
(0.00969087 -0.000423018 0)
(0.00985602 -0.000405063 0)
(0.0100141 -0.000387646 0)
(0.0101652 -0.000370787 0)
(0.0103097 -0.000354502 0)
(0.0104479 -0.000338795 0)
(0.0105798 -0.000323667 0)
(0.0107058 -0.000309113 0)
(0.0108262 -0.000295124 0)
(0.010941 -0.000281689 0)
(0.0110506 -0.000268796 0)
(0.0111552 -0.000256429 0)
(0.0112549 -0.000244573 0)
(0.01135 -0.000233213 0)
(0.0114406 -0.000222331 0)
(0.011527 -0.000211911 0)