/*--------------------------------*- C++ -*----------------------------------*\
| =========                 |                                                 |
| \\      /  F ield         | OpenFOAM: The Open Source CFD Toolbox           |
|  \\    /   O peration     | Version:  v2006                                 |
|   \\  /    A nd           | Website:  www.openfoam.com                      |
|    \\/     M anipulation  |                                                 |
\*---------------------------------------------------------------------------*/
FoamFile
{
    version     2.0;
    format      ascii;
    class       volScalarField;
    location    "17";
    object      p;
}
// * * * * * * * * * * * * * * * * * * * * * * * * * * * * * * * * * * * * * //

dimensions      [1 -1 -2 0 0 0 0];


internalField   nonuniform List<scalar> 
50000
(
21992.1
21992.2
21992.3
21992.6
21993
21993.4
21994
21994.6
21995.3
21996.1
21997
21998
21999
22000.1
22001.3
22002.6
22004
22005.4
22006.9
22008.4
22010
22011.7
22013.5
22015.3
22017.1
22019.1
22021
22023.1
22025.1
22027.3
22029.5
22031.7
22034
22036.4
22038.8
22041.2
22043.8
22046.3
22048.9
22051.6
22054.3
22057.1
22059.9
22062.7
22065.6
22068.6
22071.6
22074.6
22077.7
22080.8
22084
22087.2
22090.5
22093.7
22097.1
22100.5
22103.9
22107.3
22110.8
22114.3
22117.9
22121.5
22125.1
22128.7
22132.4
22136.1
22139.8
22143.6
22147.4
22151.2
22155
22158.8
22162.6
22166.5
22170.3
22174.2
22178.1
22182
22185.8
22189.7
22193.6
22197.5
22201.3
22205.2
22209.1
22212.9
22216.7
22220.6
22224.4
22228.1
22231.9
22235.6
22239.4
22243.1
22246.7
22250.4
22254
22257.6
22261.1
22264.6
22268.1
22271.5
22274.9
22278.3
22281.6
22284.8
22288
22291.2
22294.3
22297.3
22300.3
22303.3
22306.2
22309
22311.8
22314.6
22317.2
22319.8
22322.4
22324.8
22327.3
22329.6
22331.9
22334.1
22336.2
22338.2
22340.2
22342.1
22344
22345.7
22347.4
22349
22350.5
22352
22353.3
22354.6
22355.8
22357
22358
22359
22359.8
22360.6
22361.3
22361.9
22362.5
22362.9
22363.3
22363.5
22363.7
22363.8
21540.7
21540.7
21540.9
21541.2
21541.5
21542
21542.5
21543.2
21543.9
21544.7
21545.6
21546.6
21547.6
21548.7
21549.9
21551.2
21552.6
21554
21555.5
21557
21558.7
21560.3
21562.1
21563.9
21565.7
21567.7
21569.6
21571.7
21573.8
21575.9
21578.1
21580.4
21582.7
21585
21587.4
21589.9
21592.4
21595
21597.6
21600.2
21602.9
21605.7
21608.5
21611.4
21614.3
21617.2
21620.2
21623.3
21626.3
21629.5
21632.6
21635.9
21639.1
21642.4
21645.7
21649.1
21652.5
21656
21659.5
21663
21666.6
21670.1
21673.8
21677.4
21681.1
21684.8
21688.5
21692.3
21696.1
21699.8
21703.7
21707.5
21711.3
21715.2
21719
21722.9
21726.8
21730.7
21734.5
21738.4
21742.3
21746.2
21750.1
21753.9
21757.8
21761.7
21765.5
21769.3
21773.1
21776.9
21780.7
21784.4
21788.1
21791.8
21795.5
21799.2
21802.8
21806.4
21809.9
21813.4
21816.9
21820.3
21823.7
21827.1
21830.4
21833.6
21836.8
21840
21843.1
21846.2
21849.2
21852.1
21855
21857.9
21860.7
21863.4
21866.1
21868.7
21871.2
21873.7
21876.1
21878.4
21880.7
21882.9
21885
21887.1
21889.1
21891
21892.8
21894.6
21896.3
21897.9
21899.4
21900.9
21902.2
21903.5
21904.7
21905.8
21906.9
21907.8
21908.7
21909.5
21910.2
21910.8
21911.4
21911.8
21912.2
21912.4
21912.6
21912.7
21089
21089.1
21089.3
21089.6
21089.9
21090.4
21090.9
21091.6
21092.3
21093.1
21094
21095
21096
21097.2
21098.4
21099.7
21101
21102.4
21103.9
21105.5
21107.1
21108.8
21110.6
21112.4
21114.2
21116.2
21118.1
21120.2
21122.3
21124.4
21126.6
21128.9
21131.2
21133.5
21136
21138.4
21140.9
21143.5
21146.1
21148.8
21151.5
21154.3
21157.1
21159.9
21162.8
21165.8
21168.8
21171.8
21174.9
21178
21181.2
21184.4
21187.7
21191
21194.3
21197.7
21201.1
21204.6
21208.1
21211.6
21215.2
21218.8
21222.4
21226
21229.7
21233.4
21237.2
21240.9
21244.7
21248.5
21252.3
21256.1
21260
21263.8
21267.7
21271.6
21275.5
21279.4
21283.2
21287.1
21291
21294.9
21298.8
21302.7
21306.5
21310.4
21314.2
21318.1
21321.9
21325.7
21329.5
21333.2
21336.9
21340.7
21344.3
21348
21351.6
21355.2
21358.8
21362.3
21365.8
21369.2
21372.6
21376
21379.3
21382.6
21385.8
21388.9
21392.1
21395.1
21398.1
21401.1
21404
21406.9
21409.7
21412.4
21415.1
21417.7
21420.2
21422.7
21425.1
21427.4
21429.7
21431.9
21434.1
21436.1
21438.1
21440
21441.8
21443.6
21445.3
21446.9
21448.4
21449.9
21451.2
21452.5
21453.7
21454.9
21455.9
21456.9
21457.8
21458.6
21459.3
21459.9
21460.4
21460.9
21461.2
21461.5
21461.7
21461.7
20637.2
20637.3
20637.5
20637.8
20638.1
20638.6
20639.1
20639.8
20640.5
20641.3
20642.2
20643.2
20644.3
20645.4
20646.6
20647.9
20649.3
20650.7
20652.2
20653.8
20655.4
20657.1
20658.9
20660.7
20662.6
20664.5
20666.5
20668.6
20670.7
20672.8
20675
20677.3
20679.6
20682
20684.4
20686.9
20689.4
20691.9
20694.6
20697.2
20699.9
20702.7
20705.5
20708.4
20711.3
20714.2
20717.2
20720.3
20723.4
20726.5
20729.7
20732.9
20736.2
20739.5
20742.8
20746.2
20749.6
20753.1
20756.6
20760.1
20763.7
20767.3
20770.9
20774.6
20778.3
20782
20785.7
20789.5
20793.3
20797.1
20800.9
20804.7
20808.6
20812.5
20816.3
20820.2
20824.1
20828
20831.9
20835.8
20839.7
20843.6
20847.5
20851.4
20855.3
20859.1
20863
20866.8
20870.7
20874.5
20878.3
20882
20885.8
20889.5
20893.2
20896.9
20900.5
20904.1
20907.7
20911.2
20914.7
20918.2
20921.6
20924.9
20928.3
20931.5
20934.8
20937.9
20941.1
20944.2
20947.2
20950.2
20953.1
20955.9
20958.7
20961.5
20964.2
20966.8
20969.3
20971.8
20974.2
20976.6
20978.9
20981.1
20983.2
20985.3
20987.3
20989.2
20991
20992.8
20994.5
20996.1
20997.6
20999.1
21000.4
21001.7
21002.9
21004
21005.1
21006.1
21006.9
21007.7
21008.4
21009
21009.6
21010
21010.4
21010.6
21010.8
21010.9
20185.3
20185.3
20185.5
20185.8
20186.1
20186.6
20187.2
20187.8
20188.5
20189.4
20190.3
20191.3
20192.3
20193.5
20194.7
20196
20197.4
20198.9
20200.4
20202
20203.6
20205.3
20207.1
20209
20210.8
20212.8
20214.8
20216.8
20219
20221.1
20223.3
20225.6
20227.9
20230.3
20232.7
20235.2
20237.7
20240.3
20242.9
20245.6
20248.3
20251.1
20253.9
20256.8
20259.7
20262.6
20265.6
20268.7
20271.8
20274.9
20278.1
20281.3
20284.6
20287.9
20291.3
20294.6
20298.1
20301.5
20305
20308.6
20312.1
20315.8
20319.4
20323.1
20326.8
20330.5
20334.2
20338
20341.8
20345.6
20349.4
20353.3
20357.2
20361
20364.9
20368.8
20372.7
20376.6
20380.6
20384.5
20388.4
20392.3
20396.2
20400.1
20404
20407.9
20411.8
20415.6
20419.5
20423.3
20427.1
20430.9
20434.6
20438.4
20442.1
20445.8
20449.4
20453
20456.6
20460.2
20463.7
20467.2
20470.6
20474
20477.3
20480.6
20483.9
20487.1
20490.2
20493.3
20496.3
20499.3
20502.2
20505.1
20507.9
20510.7
20513.4
20516
20518.6
20521.1
20523.5
20525.9
20528.1
20530.4
20532.5
20534.6
20536.6
20538.5
20540.3
20542.1
20543.8
20545.4
20546.9
20548.4
20549.8
20551
20552.3
20553.4
20554.4
20555.4
20556.3
20557
20557.7
20558.4
20558.9
20559.3
20559.7
20560
20560.1
20560.2
19733.1
19733.2
19733.3
19733.6
19734
19734.4
19735
19735.7
19736.4
19737.2
19738.2
19739.2
19740.3
19741.4
19742.7
19744
19745.4
19746.9
19748.4
19750
19751.7
19753.4
19755.2
19757
19758.9
19760.9
19762.9
19765
19767.1
19769.3
19771.5
19773.8
19776.1
19778.5
19780.9
19783.4
19786
19788.5
19791.2
19793.9
19796.6
19799.4
19802.2
19805
19808
19810.9
19813.9
19817
19820.1
19823.2
19826.4
19829.7
19832.9
19836.2
19839.6
19843
19846.4
19849.9
19853.4
19857
19860.5
19864.1
19867.8
19871.5
19875.2
19878.9
19882.7
19886.5
19890.3
19894.1
19897.9
19901.8
19905.7
19909.6
19913.5
19917.4
19921.3
19925.3
19929.2
19933.1
19937.1
19941
19944.9
19948.8
19952.8
19956.7
19960.5
19964.4
19968.3
19972.1
19976
19979.8
19983.5
19987.3
19991
19994.7
19998.4
20002
20005.6
20009.2
20012.7
20016.2
20019.7
20023.1
20026.4
20029.8
20033
20036.2
20039.4
20042.5
20045.6
20048.6
20051.5
20054.4
20057.2
20060
20062.7
20065.4
20067.9
20070.4
20072.9
20075.2
20077.5
20079.8
20081.9
20084
20086
20087.9
20089.8
20091.6
20093.3
20094.9
20096.4
20097.9
20099.2
20100.5
20101.7
20102.9
20103.9
20104.9
20105.7
20106.5
20107.2
20107.8
20108.4
20108.8
20109.1
20109.4
20109.6
20109.7
19280.7
19280.8
19281
19281.3
19281.6
19282.1
19282.7
19283.3
19284.1
19284.9
19285.9
19286.9
19288
19289.2
19290.5
19291.8
19293.2
19294.7
19296.3
19297.9
19299.6
19301.3
19303.1
19305
19306.9
19308.9
19310.9
19313
19315.2
19317.4
19319.6
19321.9
19324.2
19326.6
19329.1
19331.6
19334.1
19336.7
19339.3
19342
19344.8
19347.5
19350.4
19353.2
19356.2
19359.1
19362.2
19365.2
19368.3
19371.5
19374.7
19377.9
19381.2
19384.5
19387.9
19391.3
19394.7
19398.2
19401.7
19405.2
19408.8
19412.5
19416.1
19419.8
19423.5
19427.3
19431.1
19434.9
19438.7
19442.5
19446.4
19450.3
19454.2
19458.1
19462
19465.9
19469.9
19473.8
19477.8
19481.7
19485.7
19489.7
19493.6
19497.5
19501.5
19505.4
19509.3
19513.2
19517.1
19521
19524.8
19528.7
19532.5
19536.2
19540
19543.7
19547.4
19551.1
19554.7
19558.3
19561.9
19565.4
19568.8
19572.3
19575.7
19579
19582.3
19585.5
19588.7
19591.8
19594.9
19597.9
19600.9
19603.8
19606.7
19609.5
19612.2
19614.8
19617.4
19620
19622.4
19624.8
19627.1
19629.3
19631.5
19633.6
19635.6
19637.5
19639.4
19641.2
19642.9
19644.5
19646
19647.5
19648.9
19650.2
19651.4
19652.5
19653.5
19654.5
19655.4
19656.1
19656.8
19657.5
19658
19658.4
19658.8
19659
19659.2
19659.3
18828.2
18828.3
18828.4
18828.7
18829.1
18829.6
18830.1
18830.8
18831.6
18832.4
18833.4
18834.4
18835.6
18836.8
18838.1
18839.5
18840.9
18842.4
18844
18845.6
18847.4
18849.1
18851
18852.8
18854.8
18856.8
18858.8
18860.9
18863.1
18865.3
18867.6
18869.9
18872.2
18874.6
18877.1
18879.6
18882.1
18884.7
18887.4
18890.1
18892.8
18895.6
18898.5
18901.3
18904.3
18907.2
18910.3
18913.3
18916.4
18919.6
18922.8
18926
18929.3
18932.7
18936
18939.4
18942.9
18946.4
18949.9
18953.5
18957.1
18960.7
18964.4
18968.1
18971.8
18975.6
18979.4
18983.2
18987
18990.9
18994.8
18998.7
19002.6
19006.5
19010.5
19014.4
19018.4
19022.4
19026.4
19030.3
19034.3
19038.3
19042.3
19046.2
19050.2
19054.2
19058.1
19062
19065.9
19069.8
19073.7
19077.6
19081.4
19085.2
19089
19092.7
19096.5
19100.2
19103.8
19107.4
19111
19114.6
19118.1
19121.5
19124.9
19128.3
19131.6
19134.9
19138.1
19141.3
19144.4
19147.4
19150.4
19153.3
19156.2
19159
19161.8
19164.4
19167
19169.6
19172
19174.4
19176.8
19179
19181.2
19183.3
19185.3
19187.3
19189.1
19190.9
19192.6
19194.3
19195.8
19197.3
19198.6
19199.9
19201.1
19202.3
19203.3
19204.3
19205.1
19205.9
19206.6
19207.2
19207.7
19208.2
19208.5
19208.8
19209
19209.1
18375.5
18375.6
18375.7
18376
18376.3
18376.8
18377.4
18378.1
18378.9
18379.8
18380.7
18381.8
18383
18384.2
18385.5
18386.9
18388.4
18389.9
18391.6
18393.2
18395
18396.8
18398.6
18400.5
18402.5
18404.5
18406.6
18408.7
18410.9
18413.1
18415.4
18417.7
18420.1
18422.5
18425
18427.5
18430.1
18432.7
18435.4
18438.1
18440.8
18443.6
18446.5
18449.4
18452.3
18455.3
18458.3
18461.4
18464.5
18467.7
18470.9
18474.1
18477.4
18480.7
18484.1
18487.5
18491
18494.5
18498
18501.6
18505.2
18508.9
18512.6
18516.3
18520
18523.8
18527.6
18531.5
18535.3
18539.2
18543.1
18547
18551
18554.9
18558.9
18562.9
18566.9
18570.9
18574.9
18578.9
18582.9
18586.9
18590.9
18594.9
18598.9
18602.9
18606.9
18610.8
18614.8
18618.7
18622.6
18626.5
18630.4
18634.2
18638
18641.8
18645.6
18649.3
18653
18656.6
18660.3
18663.8
18667.4
18670.9
18674.3
18677.7
18681.1
18684.4
18687.6
18690.8
18693.9
18697
18700
18703
18705.9
18708.7
18711.5
18714.1
18716.8
18719.3
18721.8
18724.2
18726.6
18728.8
18731
18733.1
18735.2
18737.1
18739
18740.8
18742.5
18744.2
18745.7
18747.2
18748.6
18749.9
18751.1
18752.2
18753.2
18754.2
18755.1
18755.8
18756.5
18757.1
18757.7
18758.1
18758.4
18758.7
18758.9
18759
17922.6
17922.6
17922.8
17923
17923.4
17923.9
17924.5
17925.2
17926
17926.9
17927.9
17929
17930.2
17931.5
17932.8
17934.2
17935.7
17937.3
17939
17940.7
17942.4
17944.3
17946.1
17948.1
17950.1
17952.1
17954.2
17956.4
17958.6
17960.8
17963.1
17965.5
17967.9
17970.3
17972.8
17975.3
17977.9
17980.5
17983.2
17985.9
17988.7
17991.5
17994.4
17997.3
18000.2
18003.2
18006.2
18009.3
18012.4
18015.6
18018.8
18022.1
18025.4
18028.7
18032.1
18035.5
18039
18042.5
18046.1
18049.7
18053.3
18057
18060.7
18064.4
18068.2
18072
18075.8
18079.7
18083.5
18087.5
18091.4
18095.3
18099.3
18103.3
18107.3
18111.3
18115.3
18119.4
18123.4
18127.5
18131.5
18135.5
18139.6
18143.6
18147.6
18151.7
18155.7
18159.7
18163.6
18167.6
18171.5
18175.5
18179.4
18183.2
18187.1
18190.9
18194.7
18198.5
18202.2
18205.9
18209.6
18213.2
18216.7
18220.3
18223.7
18227.2
18230.6
18233.9
18237.2
18240.4
18243.6
18246.7
18249.7
18252.7
18255.6
18258.5
18261.3
18264
18266.6
18269.2
18271.7
18274.2
18276.5
18278.8
18281
18283.1
18285.2
18287.1
18289
18290.8
18292.6
18294.2
18295.7
18297.2
18298.6
18299.9
18301.1
18302.3
18303.3
18304.3
18305.1
18305.9
18306.6
18307.2
18307.7
18308.2
18308.5
18308.8
18309
18309
17469.5
17469.5
17469.7
17469.9
17470.2
17470.7
17471.3
17472.1
17472.9
17473.8
17474.9
17476
17477.2
17478.5
17479.9
17481.4
17482.9
17484.5
17486.2
17487.9
17489.8
17491.6
17493.5
17495.5
17497.5
17499.6
17501.7
17503.9
17506.1
17508.4
17510.7
17513.1
17515.5
17518
17520.5
17523
17525.6
17528.3
17531
17533.7
17536.5
17539.3
17542.2
17545.1
17548
17551
17554.1
17557.2
17560.3
17563.5
17566.7
17570
17573.3
17576.6
17580
17583.5
17586.9
17590.5
17594
17597.6
17601.3
17605
17608.7
17612.4
17616.2
17620
17623.9
17627.8
17631.7
17635.6
17639.6
17643.6
17647.6
17651.6
17655.6
17659.7
17663.7
17667.8
17671.9
17676
17680
17684.1
17688.2
17692.3
17696.3
17700.4
17704.4
17708.5
17712.5
17716.5
17720.5
17724.4
17728.4
17732.3
17736.2
17740.1
17743.9
17747.7
17751.5
17755.2
17758.9
17762.6
17766.2
17769.7
17773.3
17776.7
17780.2
17783.5
17786.9
17790.1
17793.3
17796.5
17799.5
17802.6
17805.5
17808.4
17811.2
17814
17816.6
17819.2
17821.8
17824.2
17826.6
17828.9
17831.1
17833.2
17835.3
17837.3
17839.2
17841
17842.7
17844.4
17845.9
17847.4
17848.8
17850.1
17851.3
17852.5
17853.5
17854.5
17855.3
17856.1
17856.8
17857.4
17858
17858.4
17858.7
17859
17859.2
17859.3
17016.2
17016.2
17016.3
17016.5
17016.8
17017.3
17018
17018.7
17019.6
17020.6
17021.6
17022.8
17024
17025.4
17026.8
17028.3
17029.9
17031.6
17033.3
17035.1
17036.9
17038.8
17040.8
17042.8
17044.8
17046.9
17049.1
17051.3
17053.6
17055.9
17058.2
17060.6
17063
17065.5
17068.1
17070.6
17073.3
17075.9
17078.6
17081.4
17084.2
17087
17089.9
17092.8
17095.8
17098.8
17101.8
17104.9
17108.1
17111.2
17114.5
17117.7
17121.1
17124.4
17127.8
17131.3
17134.8
17138.3
17141.9
17145.5
17149.2
17152.9
17156.6
17160.4
17164.2
17168
17171.9
17175.8
17179.8
17183.7
17187.7
17191.8
17195.8
17199.8
17203.9
17208
17212.1
17216.2
17220.3
17224.4
17228.6
17232.7
17236.8
17240.9
17245
17249.1
17253.2
17257.3
17261.3
17265.4
17269.4
17273.4
17277.4
17281.4
17285.3
17289.2
17293.1
17297
17300.8
17304.6
17308.3
17312
17315.7
17319.3
17322.9
17326.4
17329.8
17333.3
17336.6
17339.9
17343.2
17346.4
17349.5
17352.5
17355.5
17358.4
17361.3
17364.1
17366.8
17369.4
17371.9
17374.4
17376.8
17379.1
17381.4
17383.5
17385.6
17387.6
17389.5
17391.3
17393
17394.7
17396.3
17397.8
17399.1
17400.5
17401.7
17402.8
17403.9
17404.8
17405.7
17406.5
17407.2
17407.8
17408.3
17408.7
17409.1
17409.4
17409.5
17409.6
16562.6
16562.7
16562.7
16562.9
16563.2
16563.7
16564.4
16565.2
16566.2
16567.1
16568.2
16569.4
16570.7
16572
16573.4
16575
16576.7
16578.4
16580.2
16582
16583.9
16585.8
16587.8
16589.9
16592
16594.1
16596.3
16598.6
16600.9
16603.2
16605.6
16608
16610.5
16613
16615.5
16618.1
16620.8
16623.5
16626.2
16628.9
16631.7
16634.6
16637.5
16640.4
16643.4
16646.4
16649.5
16652.6
16655.7
16658.9
16662.1
16665.4
16668.7
16672.1
16675.5
16679
16682.5
16686
16689.6
16693.3
16697
16700.7
16704.4
16708.2
16712.1
16715.9
16719.9
16723.8
16727.8
16731.8
16735.8
16739.9
16743.9
16748
16752.1
16756.3
16760.4
16764.6
16768.7
16772.9
16777.1
16781.2
16785.4
16789.5
16793.7
16797.8
16802
16806.1
16810.2
16814.3
16818.4
16822.4
16826.5
16830.5
16834.5
16838.4
16842.4
16846.3
16850.1
16854
16857.7
16861.5
16865.2
16868.9
16872.5
16876.1
16879.6
16883.1
16886.5
16889.8
16893.1
16896.4
16899.5
16902.6
16905.6
16908.6
16911.5
16914.3
16917
16919.7
16922.2
16924.7
16927.2
16929.5
16931.7
16933.9
16936
16938
16939.9
16941.8
16943.5
16945.2
16946.7
16948.2
16949.6
16950.9
16952.2
16953.3
16954.4
16955.3
16956.2
16957
16957.7
16958.3
16958.8
16959.2
16959.6
16959.9
16960
16960.1
16108.8
16108.9
16109
16109
16109.2
16109.8
16110.5
16111.4
16112.4
16113.5
16114.5
16115.6
16116.9
16118.3
16119.9
16121.5
16123.2
16125
16126.8
16128.7
16130.7
16132.7
16134.7
16136.8
16139
16141.2
16143.4
16145.7
16148
16150.4
16152.8
16155.3
16157.8
16160.3
16162.9
16165.5
16168.2
16170.9
16173.6
16176.4
16179.2
16182.1
16185
16187.9
16190.9
16193.9
16197
16200.1
16203.3
16206.5
16209.7
16213
16216.3
16219.7
16223.1
16226.6
16230.1
16233.7
16237.3
16240.9
16244.6
16248.4
16252.2
16256
16259.9
16263.8
16267.7
16271.7
16275.7
16279.7
16283.8
16287.9
16292
16296.2
16300.3
16304.5
16308.7
16312.9
16317.1
16321.3
16325.5
16329.7
16333.9
16338.2
16342.4
16346.6
16350.7
16354.9
16359.1
16363.2
16367.3
16371.4
16375.5
16379.6
16383.6
16387.6
16391.6
16395.6
16399.5
16403.4
16407.2
16411.1
16414.8
16418.6
16422.2
16425.9
16429.5
16433
16436.4
16439.8
16443.2
16446.5
16449.7
16452.8
16455.9
16458.9
16461.8
16464.6
16467.4
16470.1
16472.7
16475.2
16477.6
16480
16482.3
16484.5
16486.6
16488.6
16490.5
16492.3
16494.1
16495.8
16497.4
16498.9
16500.3
16501.6
16502.8
16503.9
16505
16506
16506.8
16507.6
16508.3
16508.9
16509.5
16509.9
16510.2
16510.5
16510.7
16510.8
15654.7
15654.8
15654.8
15654.6
15654.7
15655.2
15656.3
15657.4
15658.6
15659.5
15660.4
15661.5
15662.7
15664.2
15665.9
15667.6
15669.5
15671.3
15673.3
15675.2
15677.3
15679.3
15681.5
15683.6
15685.8
15688.1
15690.4
15692.7
15695.1
15697.5
15699.9
15702.4
15705
15707.5
15710.2
15712.8
15715.5
15718.2
15721
15723.8
15726.6
15729.5
15732.4
15735.4
15738.4
15741.4
15744.5
15747.6
15750.7
15753.9
15757.2
15760.5
15763.8
15767.2
15770.6
15774.1
15777.6
15781.2
15784.8
15788.5
15792.2
15796
15799.8
15803.6
15807.5
15811.5
15815.4
15819.5
15823.5
15827.6
15831.7
15835.8
15840
15844.2
15848.4
15852.6
15856.9
15861.1
15865.4
15869.7
15873.9
15878.2
15882.5
15886.7
15891
15895.3
15899.5
15903.7
15907.9
15912.1
15916.3
15920.5
15924.6
15928.7
15932.8
15936.9
15940.9
15944.9
15948.9
15952.9
15956.8
15960.7
15964.5
15968.3
15972
15975.7
15979.4
15983
15986.5
15989.9
15993.3
15996.7
15999.9
16003.1
16006.2
16009.3
16012.2
16015.1
16017.9
16020.6
16023.2
16025.8
16028.3
16030.6
16032.9
16035.1
16037.2
16039.3
16041.2
16043.1
16044.8
16046.5
16048.1
16049.6
16051
16052.3
16053.6
16054.7
16055.8
16056.7
16057.6
16058.4
16059.1
16059.7
16060.2
16060.7
16061
16061.3
16061.5
16061.5
15199.4
15199.4
15198.9
15197.9
15197.4
15197.8
15199.2
15201.1
15203.1
15204.5
15205.5
15206.4
15207.7
15209.4
15211.4
15213.4
15215.4
15217.4
15219.4
15221.5
15223.6
15225.8
15228
15230.2
15232.5
15234.8
15237.1
15239.5
15242
15244.4
15246.9
15249.5
15252
15254.6
15257.3
15260
15262.7
15265.4
15268.2
15271
15273.9
15276.8
15279.7
15282.7
15285.7
15288.7
15291.8
15294.9
15298.1
15301.3
15304.5
15307.8
15311.2
15314.6
15318
15321.5
15325
15328.6
15332.3
15335.9
15339.7
15343.5
15347.3
15351.2
15355.1
15359.1
15363.1
15367.1
15371.2
15375.4
15379.5
15383.7
15387.9
15392.2
15396.4
15400.7
15405
15409.3
15413.7
15418
15422.3
15426.7
15431
15435.3
15439.6
15443.9
15448.2
15452.5
15456.8
15461
15465.3
15469.5
15473.7
15477.9
15482
15486.1
15490.3
15494.3
15498.4
15502.4
15506.4
15510.3
15514.2
15518.1
15521.9
15525.7
15529.4
15533
15536.6
15540.1
15543.6
15547
15550.3
15553.5
15556.7
15559.8
15562.8
15565.7
15568.5
15571.3
15573.9
15576.5
15579
15581.4
15583.7
15585.9
15588.1
15590.1
15592.1
15594
15595.7
15597.4
15599
15600.5
15601.9
15603.3
15604.5
15605.6
15606.7
15607.7
15608.5
15609.3
15610
15610.6
15611.2
15611.6
15611.9
15612.2
15612.4
15612.5
14742
14741.6
14739.9
14737.4
14735.6
14735.7
14737.8
14741.3
14745
14747.8
14749.5
14750.5
14751.7
14753.7
14756.1
14758.5
14760.9
14763.1
14765.3
14767.5
14769.8
14772
14774.3
14776.6
14779
14781.4
14783.8
14786.2
14788.7
14791.2
14793.8
14796.4
14799
14801.6
14804.3
14807
14809.8
14812.6
14815.4
14818.2
14821.1
14824
14826.9
14829.9
14832.9
14835.9
14839
14842.1
14845.3
14848.5
14851.8
14855.1
14858.4
14861.8
14865.3
14868.8
14872.3
14875.9
14879.5
14883.3
14887
14890.8
14894.7
14898.6
14902.5
14906.6
14910.6
14914.7
14918.8
14923
14927.2
14931.5
14935.8
14940.1
14944.4
14948.7
14953.1
14957.5
14961.9
14966.3
14970.7
14975.1
14979.4
14983.8
14988.2
14992.6
14996.9
15001.3
15005.6
15009.9
15014.2
15018.5
15022.8
15027
15031.2
15035.4
15039.6
15043.7
15047.9
15051.9
15056
15060
15064
15067.9
15071.8
15075.7
15079.5
15083.2
15086.8
15090.4
15093.9
15097.4
15100.8
15104
15107.3
15110.4
15113.4
15116.4
15119.3
15122.1
15124.8
15127.4
15129.9
15132.3
15134.7
15136.9
15139.1
15141.1
15143.1
15145
15146.7
15148.4
15150
15151.6
15153
15154.3
15155.5
15156.7
15157.7
15158.7
15159.6
15160.4
15161.1
15161.7
15162.2
15162.6
15163
15163.2
15163.4
15163.5
14282.6
14281.4
14278.1
14273.9
14271
14271
14273.9
14279.2
14284.9
14289.4
14292.3
14293.6
14294.8
14296.9
14299.9
14303.1
14305.9
14308.4
14310.9
14313.3
14315.7
14318
14320.4
14322.8
14325.3
14327.7
14330.2
14332.8
14335.3
14337.9
14340.5
14343.2
14345.8
14348.5
14351.2
14354
14356.8
14359.6
14362.4
14365.3
14368.2
14371.1
14374
14377
14380
14383.1
14386.1
14389.3
14392.4
14395.6
14398.9
14402.2
14405.5
14408.9
14412.4
14415.9
14419.4
14423
14426.7
14430.4
14434.2
14438
14441.9
14445.9
14449.9
14453.9
14458
14462.2
14466.3
14470.6
14474.9
14479.2
14483.5
14487.9
14492.3
14496.7
14501.1
14505.6
14510
14514.5
14519
14523.4
14527.9
14532.3
14536.8
14541.2
14545.7
14550.1
14554.5
14558.8
14563.2
14567.5
14571.9
14576.2
14580.4
14584.7
14588.9
14593.2
14597.4
14601.5
14605.7
14609.8
14613.8
14617.8
14621.8
14625.7
14629.6
14633.4
14637.1
14640.8
14644.4
14647.9
14651.3
14654.7
14658
14661.1
14664.2
14667.2
14670.2
14673
14675.7
14678.4
14680.9
14683.4
14685.7
14688
14690.2
14692.2
14694.2
14696.1
14697.9
14699.6
14701.2
14702.7
14704.1
14705.5
14706.7
14707.9
14708.9
14709.9
14710.8
14711.6
14712.3
14712.9
14713.4
14713.8
14714.2
14714.4
14714.6
14714.7
13823.1
13821.3
13817.1
13812.1
13808.9
13809
13812.7
13818.9
13825.7
13831.1
13834.2
13835.9
13837.2
13839.5
13843
13847
13850.4
13853.4
13856.1
13858.7
13861.3
13863.8
13866.3
13868.9
13871.4
13874
13876.5
13879.1
13881.8
13884.4
13887.1
13889.8
13892.5
13895.3
13898
13900.8
13903.6
13906.5
13909.3
13912.2
13915.1
13918.1
13921
13924
13927
13930.1
13933.2
13936.3
13939.4
13942.6
13945.9
13949.2
13952.5
13955.9
13959.4
13962.9
13966.4
13970
13973.7
13977.4
13981.2
13985.1
13989
13993
13997
14001.1
14005.3
14009.5
14013.7
14018
14022.4
14026.7
14031.1
14035.6
14040.1
14044.5
14049.1
14053.6
14058.1
14062.7
14067.2
14071.7
14076.3
14080.8
14085.3
14089.8
14094.3
14098.8
14103.3
14107.7
14112.1
14116.6
14120.9
14125.3
14129.7
14134
14138.3
14142.6
14146.9
14151.1
14155.3
14159.5
14163.7
14167.8
14171.9
14175.9
14179.8
14183.7
14187.5
14191.3
14194.9
14198.5
14202
14205.4
14208.8
14212
14215.1
14218.2
14221.2
14224
14226.8
14229.5
14232.1
14234.5
14236.9
14239.2
14241.4
14243.5
14245.5
14247.4
14249.2
14250.9
14252.5
14254
14255.5
14256.8
14258
14259.2
14260.2
14261.2
14262.1
14262.9
14263.6
14264.2
14264.7
14265.1
14265.5
14265.7
14265.9
14266
13366.7
13364.3
13360.4
13355.8
13353.2
13353.7
13357.4
13363.2
13369.3
13373.9
13376.5
13377.9
13379.3
13381.9
13386
13390.6
13394.6
13398
13401.1
13403.9
13406.7
13409.4
13412
13414.7
13417.3
13420
13422.7
13425.4
13428.1
13430.8
13433.6
13436.3
13439.1
13441.9
13444.7
13447.6
13450.4
13453.3
13456.2
13459.1
13462
13464.9
13467.9
13470.9
13473.9
13477
13480
13483.2
13486.3
13489.5
13492.7
13496
13499.4
13502.7
13506.2
13509.7
13513.2
13516.9
13520.6
13524.3
13528.1
13532
13536
13540
13544.1
13548.2
13552.4
13556.6
13561
13565.3
13569.7
13574.2
13578.7
13583.2
13587.7
13592.3
13596.9
13601.5
13606.1
13610.8
13615.4
13620
13624.7
13629.3
13633.9
13638.4
13643
13647.6
13652.1
13656.6
13661.1
13665.6
13670
13674.4
13678.9
13683.3
13687.6
13692
13696.4
13700.7
13705
13709.3
13713.6
13717.8
13721.9
13726.1
13730.1
13734.1
13738
13741.8
13745.5
13749.2
13752.8
13756.3
13759.7
13763
13766.2
13769.3
13772.3
13775.2
13778
13780.7
13783.3
13785.8
13788.2
13790.5
13792.8
13794.9
13796.9
13798.8
13800.6
13802.3
13803.9
13805.5
13806.9
13808.2
13809.5
13810.6
13811.7
13812.6
13813.5
13814.3
13815
13815.6
13816.1
13816.5
13816.9
13817.1
13817.3
13817.4
12913.7
12911.7
12908.9
12905.7
12904.1
12904.9
12907.8
12911.9
12915.8
12918.4
12919.6
12920.4
12921.9
12924.8
12929.3
12934.4
12938.8
12942.6
12945.9
12949
12951.9
12954.7
12957.5
12960.3
12963.1
12965.9
12968.7
12971.5
12974.3
12977.1
12979.9
12982.8
12985.6
12988.5
12991.3
12994.2
12997.1
13000
13002.9
13005.8
13008.8
13011.7
13014.7
13017.7
13020.7
13023.7
13026.8
13029.9
13033
13036.2
13039.4
13042.7
13046
13049.4
13052.8
13056.3
13059.9
13063.5
13067.2
13071
13074.8
13078.7
13082.7
13086.8
13090.9
13095.1
13099.3
13103.7
13108
13112.5
13117
13121.5
13126.1
13130.7
13135.3
13140
13144.7
13149.4
13154.1
13158.8
13163.5
13168.3
13173
13177.7
13182.4
13187
13191.7
13196.3
13200.9
13205.5
13210
13214.6
13219.1
13223.6
13228.1
13232.5
13237
13241.4
13245.9
13250.3
13254.7
13259.1
13263.5
13267.8
13272.1
13276.3
13280.4
13284.5
13288.5
13292.4
13296.2
13300
13303.6
13307.2
13310.6
13314
13317.3
13320.5
13323.5
13326.5
13329.3
13332.1
13334.7
13337.3
13339.7
13342
13344.2
13346.4
13348.4
13350.3
13352.1
13353.9
13355.5
13357
13358.5
13359.8
13361
13362.2
13363.2
13364.2
13365.1
13365.9
13366.5
13367.1
13367.7
13368.1
13368.4
13368.7
13368.8
13368.9
12462.7
12462.4
12461.1
12459.4
12458.7
12459.3
12460.9
12462.7
12463.9
12464.3
12464
12464.2
12465.7
12468.9
12473.6
12478.8
12483.3
12487.2
12490.7
12493.9
12496.9
12499.9
12502.9
12505.8
12508.7
12511.6
12514.5
12517.4
12520.3
12523.2
12526.1
12529.1
12532
12534.9
12537.8
12540.8
12543.7
12546.6
12549.6
12552.5
12555.4
12558.4
12561.4
12564.4
12567.4
12570.4
12573.4
12576.5
12579.6
12582.8
12586
12589.3
12592.6
12595.9
12599.3
12602.8
12606.4
12610
12613.7
12617.5
12621.3
12625.3
12629.3
12633.4
12637.5
12641.8
12646.1
12650.5
12654.9
12659.5
12664
12668.7
12673.3
12678
12682.8
12687.6
12692.4
12697.2
12702
12706.8
12711.6
12716.5
12721.3
12726.1
12730.8
12735.6
12740.3
12745
12749.7
12754.3
12759
12763.6
12768.1
12772.7
12777.2
12781.8
12786.3
12790.8
12795.3
12799.8
12804.4
12808.9
12813.4
12817.8
12822.2
12826.6
12830.8
12835
12839.1
12843.1
12847
12850.8
12854.5
12858.2
12861.7
12865.2
12868.5
12871.8
12874.9
12877.9
12880.8
12883.6
12886.2
12888.8
12891.3
12893.6
12895.8
12898
12900
12902
12903.8
12905.5
12907.2
12908.7
12910.1
12911.5
12912.7
12913.9
12914.9
12915.9
12916.7
12917.5
12918.2
12918.8
12919.3
12919.7
12920.1
12920.3
12920.5
12920.6
12011.1
12012.2
12011.9
12011.3
12011.3
12011.8
12012.2
12012.2
12011.7
12010.7
12009.7
12009.7
12011.3
12014.5
12019.1
12023.9
12028.2
12032
12035.4
12038.7
12041.9
12045
12048.1
12051.1
12054.1
12057.2
12060.2
12063.2
12066.2
12069.2
12072.2
12075.2
12078.2
12081.2
12084.2
12087.2
12090.2
12093.1
12096.1
12099.1
12102
12105
12108
12110.9
12113.9
12116.9
12120
12123
12126.1
12129.2
12132.4
12135.6
12138.9
12142.2
12145.6
12149.1
12152.6
12156.3
12160
12163.8
12167.6
12171.6
12175.6
12179.8
12184
12188.3
12192.7
12197.1
12201.7
12206.3
12210.9
12215.7
12220.4
12225.3
12230.1
12235
12239.9
12244.9
12249.8
12254.7
12259.7
12264.6
12269.5
12274.4
12279.3
12284.1
12288.9
12293.7
12298.5
12303.2
12307.9
12312.5
12317.2
12321.8
12326.4
12331
12335.6
12340.1
12344.8
12349.4
12354
12358.6
12363.3
12367.9
12372.4
12376.9
12381.3
12385.6
12389.8
12393.8
12397.8
12401.7
12405.5
12409.2
12412.8
12416.4
12419.8
12423.1
12426.3
12429.4
12432.3
12435.2
12437.9
12440.5
12442.9
12445.3
12447.6
12449.7
12451.8
12453.7
12455.6
12457.3
12459
12460.5
12461.9
12463.3
12464.5
12465.7
12466.7
12467.7
12468.5
12469.3
12470
12470.6
12471.1
12471.5
12471.8
12472.1
12472.2
12472.3
11557.7
11559.1
11559.2
11559.5
11559.9
11560.2
11560.2
11559.7
11558.8
11557.6
11556.9
11556.9
11558.4
11561.4
11565.4
11569.5
11573.3
11576.9
11580.2
11583.5
11586.7
11590
11593.1
11596.3
11599.4
11602.6
11605.7
11608.9
11612
11615.1
11618.2
11621.3
11624.4
11627.5
11630.5
11633.6
11636.6
11639.6
11642.6
11645.5
11648.5
11651.5
11654.4
11657.4
11660.4
11663.3
11666.3
11669.4
11672.4
11675.5
11678.6
11681.8
11685.1
11688.4
11691.7
11695.2
11698.7
11702.3
11706
11709.8
11713.7
11717.7
11721.7
11725.9
11730.2
11734.5
11739
11743.6
11748.2
11752.9
11757.7
11762.5
11767.4
11772.3
11777.3
11782.3
11787.4
11792.5
11797.5
11802.6
11807.7
11812.7
11817.7
11822.8
11827.7
11832.7
11837.6
11842.4
11847.3
11852
11856.8
11861.5
11866.2
11870.9
11875.5
11880.1
11884.8
11889.4
11894.1
11898.8
11903.6
11908.3
11913.1
11917.9
11922.6
11927.3
11931.8
11936.2
11940.4
11944.6
11948.6
11952.5
11956.4
11960.2
11964
11967.6
11971.2
11974.6
11977.8
11981
11984
11986.8
11989.6
11992.2
11994.7
11997.1
11999.4
12001.6
12003.6
12005.6
12007.5
12009.2
12010.9
12012.4
12013.8
12015.2
12016.4
12017.6
12018.6
12019.6
12020.4
12021.2
12021.9
12022.4
12022.9
12023.3
12023.7
12023.9
12024.1
12024.2
11102.6
11103.7
11103.8
11104.5
11105.1
11105.6
11105.7
11105.5
11105.1
11104.5
11104.1
11104.5
11106.1
11108.6
11111.8
11115.1
11118.4
11121.7
11125
11128.2
11131.5
11134.8
11138.1
11141.3
11144.6
11147.9
11151.2
11154.4
11157.7
11160.9
11164.1
11167.3
11170.5
11173.6
11176.7
11179.8
11182.9
11185.9
11189
11191.9
11194.9
11197.9
11200.8
11203.8
11206.7
11209.6
11212.6
11215.6
11218.6
11221.6
11224.7
11227.8
11231
11234.3
11237.6
11241
11244.5
11248.1
11251.8
11255.5
11259.4
11263.4
11267.6
11271.8
11276.1
11280.5
11285.1
11289.7
11294.5
11299.3
11304.2
11309.1
11314.2
11319.3
11324.4
11329.6
11334.7
11340
11345.2
11350.4
11355.6
11360.8
11365.9
11371.1
11376.2
11381.2
11386.2
11391.2
11396.1
11400.9
11405.7
11410.5
11415.2
11419.9
11424.6
11429.3
11433.9
11438.6
11443.4
11448.2
11453
11457.9
11462.9
11467.9
11472.9
11477.7
11482.4
11486.9
11491.2
11495.3
11499.3
11503.3
11507.2
11511.1
11515
11518.9
11522.5
11526.1
11529.4
11532.6
11535.7
11538.6
11541.4
11544
11546.6
11549
11551.3
11553.5
11555.6
11557.6
11559.4
11561.2
11562.9
11564.4
11565.9