/*--------------------------------*- C++ -*----------------------------------*\
| =========                 |                                                 |
| \\      /  F ield         | OpenFOAM: The Open Source CFD Toolbox           |
|  \\    /   O peration     | Version:  v2006                                 |
|   \\  /    A nd           | Website:  www.openfoam.com                      |
|    \\/     M anipulation  |                                                 |
\*---------------------------------------------------------------------------*/
FoamFile
{
    version     2.0;
    format      ascii;
    class       volScalarField;
    location    "17";
    object      p_rgh;
}
// * * * * * * * * * * * * * * * * * * * * * * * * * * * * * * * * * * * * * //

dimensions      [1 -1 -2 0 0 0 0];


internalField   nonuniform List<scalar> 
50000
(
2597.72
2597.8
2597.98
2598.25
2598.61
2599.06
2599.6
2600.23
2600.95
2601.75
2602.63
2603.6
2604.65
2605.77
2606.98
2608.25
2609.6
2611.02
2612.5
2614.06
2615.67
2617.36
2619.1
2620.9
2622.76
2624.68
2626.66
2628.69
2630.78
2632.92
2635.11
2637.36
2639.66
2642.02
2644.42
2646.88
2649.39
2651.95
2654.56
2657.22
2659.93
2662.69
2665.5
2668.36
2671.26
2674.21
2677.2
2680.24
2683.33
2686.45
2689.62
2692.83
2696.08
2699.38
2702.71
2706.09
2709.5
2712.95
2716.44
2719.96
2723.52
2727.1
2730.72
2734.37
2738.05
2741.75
2745.48
2749.22
2752.99
2756.79
2760.59
2764.42
2768.25
2772.1
2775.96
2779.83
2783.7
2787.58
2791.46
2795.35
2799.23
2803.1
2806.97
2810.84
2814.7
2818.54
2822.37
2826.19
2829.99
2833.77
2837.54
2841.28
2845
2848.69
2852.36
2856
2859.61
2863.18
2866.73
2870.24
2873.71
2877.15
2880.54
2883.88
2887.18
2890.44
2893.64
2896.8
2899.91
2902.97
2905.97
2908.92
2911.82
2914.67
2917.46
2920.19
2922.86
2925.47
2928.01
2930.48
2932.89
2935.22
2937.5
2939.69
2941.82
2943.87
2945.85
2947.76
2949.59
2951.35
2953.03
2954.63
2956.16
2957.6
2958.97
2960.25
2961.46
2962.58
2963.62
2964.58
2965.46
2966.25
2966.95
2967.57
2968.1
2968.54
2968.89
2969.16
2969.34
2969.43
2597.54
2597.62
2597.8
2598.07
2598.43
2598.89
2599.43
2600.06
2600.78
2601.58
2602.47
2603.44
2604.49
2605.62
2606.83
2608.1
2609.46
2610.88
2612.37
2613.92
2615.54
2617.23
2618.97
2620.78
2622.64
2624.56
2626.54
2628.57
2630.66
2632.8
2635
2637.25
2639.55
2641.91
2644.32
2646.77
2649.28
2651.84
2654.46
2657.12
2659.83
2662.59
2665.4
2668.26
2671.16
2674.11
2677.11
2680.15
2683.23
2686.36
2689.53
2692.74
2696
2699.3
2702.64
2706.01
2709.43
2712.88
2716.37
2719.89
2723.45
2727.04
2730.66
2734.31
2737.98
2741.69
2745.42
2749.17
2752.94
2756.73
2760.54
2764.37
2768.21
2772.06
2775.92
2779.8
2783.67
2787.55
2791.44
2795.32
2799.21
2803.09
2806.96
2810.83
2814.69
2818.54
2822.38
2826.2
2830.01
2833.79
2837.56
2841.31
2845.03
2848.73
2852.4
2856.05
2859.66
2863.24
2866.79
2870.31
2873.78
2877.22
2880.61
2883.97
2887.27
2890.53
2893.74
2896.9
2900.01
2903.07
2906.08
2909.03
2911.93
2914.78
2917.57
2920.3
2922.97
2925.58
2928.12
2930.59
2933
2935.34
2937.61
2939.81
2941.94
2944
2945.98
2947.89
2949.72
2951.48
2953.17
2954.77
2956.3
2957.75
2959.11
2960.4
2961.61
2962.74
2963.78
2964.74
2965.62
2966.41
2967.11
2967.73
2968.26
2968.71
2969.06
2969.33
2969.51
2969.6
2597.18
2597.27
2597.44
2597.72
2598.08
2598.54
2599.08
2599.71
2600.44
2601.25
2602.14
2603.11
2604.17
2605.3
2606.52
2607.8
2609.16
2610.59
2612.08
2613.65
2615.27
2616.96
2618.71
2620.52
2622.39
2624.32
2626.3
2628.34
2630.43
2632.58
2634.78
2637.03
2639.34
2641.7
2644.11
2646.57
2649.09
2651.65
2654.26
2656.93
2659.64
2662.41
2665.22
2668.08
2670.98
2673.93
2676.93
2679.97
2683.06
2686.19
2689.36
2692.58
2695.84
2699.14
2702.48
2705.86
2709.27
2712.73
2716.22
2719.75
2723.31
2726.9
2730.52
2734.18
2737.86
2741.57
2745.3
2749.06
2752.83
2756.63
2760.45
2764.28
2768.12
2771.98
2775.85
2779.73
2783.61
2787.5
2791.39
2795.29
2799.18
2803.06
2806.95
2810.82
2814.69
2818.55
2822.39
2826.22
2830.04
2833.83
2837.61
2841.37
2845.1
2848.81
2852.49
2856.14
2859.76
2863.36
2866.91
2870.43
2873.92
2877.36
2880.76
2884.12
2887.43
2890.7
2893.92
2897.09
2900.21
2903.27
2906.29
2909.25
2912.16
2915.01
2917.81
2920.54
2923.21
2925.82
2928.36
2930.84
2933.25
2935.59
2937.87
2940.07
2942.2
2944.26
2946.25
2948.16
2950
2951.76
2953.44
2955.05
2956.58
2958.03
2959.4
2960.69
2961.9
2963.02
2964.07
2965.03
2965.91
2966.7
2967.41
2968.03
2968.56
2969.01
2969.36
2969.63
2969.81
2969.9
2596.64
2596.73
2596.9
2597.17
2597.54
2598
2598.55
2599.19
2599.91
2600.73
2601.63
2602.61
2603.68
2604.82
2606.04
2607.34
2608.71
2610.14
2611.65
2613.22
2614.86
2616.56
2618.32
2620.14
2622.01
2623.95
2625.94
2627.98
2630.08
2632.24
2634.45
2636.71
2639.02
2641.38
2643.8
2646.27
2648.78
2651.35
2653.97
2656.64
2659.36
2662.12
2664.93
2667.8
2670.7
2673.66
2676.66
2679.7
2682.8
2685.93
2689.11
2692.33
2695.59
2698.9
2702.24
2705.62
2709.05
2712.5
2716
2719.53
2723.1
2726.7
2730.33
2733.98
2737.67
2741.39
2745.13
2748.89
2752.68
2756.48
2760.3
2764.14
2768
2771.87
2775.74
2779.63
2783.53
2787.42
2791.33
2795.23
2799.13
2803.03
2806.92
2810.81
2814.69
2818.56
2822.42
2826.26
2830.08
2833.89
2837.68
2841.45
2845.19
2848.92
2852.61
2856.27
2859.91
2863.51
2867.08
2870.61
2874.11
2877.57
2880.98
2884.35
2887.67
2890.95
2894.18
2897.36
2900.49
2903.57
2906.59
2909.56
2912.48
2915.34
2918.14
2920.88
2923.56
2926.18
2928.73
2931.22
2933.63
2935.98
2938.26
2940.47
2942.61
2944.68
2946.67
2948.58
2950.42
2952.19
2953.87
2955.48
2957.01
2958.46
2959.83
2961.12
2962.33
2963.46
2964.5
2965.46
2966.34
2967.13
2967.84
2968.46
2968.99
2969.43
2969.79
2970.05
2970.23
2970.32
2595.92
2596
2596.18
2596.45
2596.82
2597.28
2597.83
2598.48
2599.21
2600.03
2600.94
2601.94
2603.02
2604.17
2605.41
2606.72
2608.1
2609.55
2611.07
2612.66
2614.3
2616.02
2617.79
2619.62
2621.51
2623.46
2625.46
2627.52
2629.63
2631.79
2634.01
2636.28
2638.6
2640.97
2643.4
2645.87
2648.39
2650.97
2653.59
2656.26
2658.99
2661.75
2664.57
2667.44
2670.35
2673.31
2676.31
2679.36
2682.45
2685.59
2688.77
2692
2695.26
2698.57
2701.92
2705.31
2708.74
2712.2
2715.71
2719.24
2722.81
2726.42
2730.06
2733.72
2737.42
2741.14
2744.89
2748.67
2752.46
2756.28
2760.11
2763.96
2767.83
2771.71
2775.6
2779.5
2783.41
2787.32
2791.23
2795.15
2799.07
2802.98
2806.89
2810.79
2814.69
2818.57
2822.44
2826.3
2830.14
2833.97
2837.77
2841.56
2845.32
2849.05
2852.76
2856.45
2860.1
2863.72
2867.3
2870.85
2874.36
2877.83
2881.26
2884.65
2887.99
2891.28
2894.53
2897.72
2900.87
2903.96
2907
2909.99
2912.92
2915.79
2918.6
2921.36
2924.05
2926.67
2929.24
2931.73
2934.16
2936.52
2938.81
2941.03
2943.17
2945.24
2947.24
2949.16
2951
2952.77
2954.46
2956.07
2957.61
2959.06
2960.43
2961.72
2962.92
2964.05
2965.09
2966.05
2966.92
2967.71
2968.41
2969.03
2969.56
2970
2970.36
2970.62
2970.8
2970.89
2595.02
2595.1
2595.27
2595.54
2595.91
2596.38
2596.94
2597.59
2598.33
2599.17
2600.09
2601.1
2602.19
2603.36
2604.61
2605.94
2607.34
2608.81
2610.34
2611.95
2613.61
2615.34
2617.13
2618.98
2620.88
2622.84
2624.86
2626.93
2629.05
2631.22
2633.45
2635.73
2638.06
2640.45
2642.88
2645.36
2647.89
2650.47
2653.1
2655.78
2658.51
2661.29
2664.11
2666.98
2669.9
2672.86
2675.87
2678.92
2682.02
2685.17
2688.35
2691.58
2694.86
2698.17
2701.52
2704.92
2708.35
2711.83
2715.33
2718.88
2722.46
2726.07
2729.72
2733.4
2737.1
2740.84
2744.6
2748.39
2752.19
2756.02
2759.87
2763.74
2767.62
2771.51
2775.42
2779.33
2783.26
2787.19
2791.12
2795.05
2798.99
2802.92
2806.85
2810.77
2814.68
2818.58
2822.48
2826.35
2830.21
2834.06
2837.88
2841.69
2845.47
2849.23
2852.96
2856.66
2860.33
2863.97
2867.57
2871.14
2874.67
2878.17
2881.61
2885.02
2888.38
2891.69
2894.96
2898.17
2901.34
2904.45
2907.5
2910.51
2913.45
2916.34
2919.17
2921.94
2924.64
2927.28
2929.85
2932.36
2934.8
2937.17
2939.48
2941.7
2943.86
2945.94
2947.94
2949.87
2951.73
2953.5
2955.19
2956.81
2958.35
2959.8
2961.17
2962.46
2963.67
2964.8
2965.84
2966.79
2967.66
2968.45
2969.15
2969.76
2970.29
2970.73
2971.08
2971.34
2971.52
2971.61
2593.94
2594.01
2594.18
2594.45
2594.82
2595.29
2595.85
2596.52
2597.27
2598.12
2599.06
2600.08
2601.19
2602.39
2603.66
2605
2606.42
2607.91
2609.47
2611.09
2612.78
2614.53
2616.33
2618.2
2620.12
2622.1
2624.13
2626.21
2628.35
2630.54
2632.78
2635.08
2637.42
2639.82
2642.26
2644.75
2647.29
2649.88
2652.52
2655.21
2657.95
2660.73
2663.56
2666.43
2669.36
2672.33
2675.34
2678.4
2681.51
2684.65
2687.85
2691.08
2694.36
2697.68
2701.04
2704.45
2707.89
2711.37
2714.89
2718.44
2722.03
2725.65
2729.31
2733
2736.72
2740.47
2744.24
2748.04
2751.87
2755.71
2759.58
2763.46
2767.36
2771.27
2775.2
2779.13
2783.08
2787.02
2790.98
2794.93
2798.89
2802.84
2806.79
2810.74
2814.67
2818.6
2822.51
2826.41
2830.3
2834.17
2838.01
2841.84
2845.65
2849.43
2853.18
2856.91
2860.61
2864.27
2867.9
2871.49
2875.05
2878.56
2882.04
2885.47
2888.85
2892.19
2895.47
2898.71
2901.9
2905.03
2908.11
2911.14
2914.1
2917.01
2919.86
2922.64
2925.36
2928.02
2930.61
2933.14
2935.59
2937.97
2940.28
2942.52
2944.68
2946.77
2948.79
2950.73
2952.58
2954.37
2956.07
2957.69
2959.23
2960.69
2962.06
2963.35
2964.56
2965.69
2966.73
2967.68
2968.55
2969.34
2970.03
2970.64
2971.17
2971.6
2971.95
2972.21
2972.39
2972.48
2592.67
2592.74
2592.9
2593.16
2593.53
2594
2594.58
2595.25
2596.03
2596.89
2597.85
2598.89
2600.03
2601.24
2602.54
2603.91
2605.35
2606.86
2608.45
2610.09
2611.8
2613.57
2615.4
2617.29
2619.23
2621.23
2623.28
2625.38
2627.54
2629.74
2632
2634.31
2636.67
2639.07
2641.53
2644.04
2646.59
2649.19
2651.84
2654.54
2657.28
2660.07
2662.91
2665.79
2668.72
2671.7
2674.72
2677.79
2680.9
2684.05
2687.25
2690.49
2693.78
2697.11
2700.48
2703.89
2707.34
2710.83
2714.36
2717.92
2721.52
2725.16
2728.83
2732.53
2736.27
2740.03
2743.82
2747.64
2751.48
2755.34
2759.23
2763.13
2767.05
2770.99
2774.93
2778.89
2782.86
2786.83
2790.81
2794.79
2798.77
2802.75
2806.73
2810.69
2814.66
2818.61
2822.55
2826.48
2830.39
2834.29
2838.16
2842.02
2845.85
2849.66
2853.45
2857.2
2860.92
2864.62
2868.27
2871.9
2875.48
2879.02
2882.53
2885.98
2889.4
2892.76
2896.08
2899.34
2902.56
2905.72
2908.82
2911.87
2914.86
2917.79
2920.65
2923.46
2926.2
2928.88
2931.48
2934.02
2936.49
2938.89
2941.21
2943.47
2945.64
2947.74
2949.77
2951.71
2953.58
2955.37
2957.08
2958.7
2960.25
2961.71
2963.09
2964.39
2965.6
2966.72
2967.77
2968.72
2969.59
2970.37
2971.07
2971.68
2972.2
2972.63
2972.98
2973.24
2973.42
2973.51
2591.21
2591.28
2591.42
2591.68
2592.05
2592.52
2593.11
2593.8
2594.59
2595.47
2596.45
2597.52
2598.68
2599.92
2601.24
2602.64
2604.12
2605.66
2607.27
2608.94
2610.68
2612.48
2614.33
2616.24
2618.21
2620.23
2622.3
2624.42
2626.6
2628.82
2631.1
2633.43
2635.8
2638.23
2640.7
2643.22
2645.78
2648.4
2651.06
2653.77
2656.52
2659.32
2662.17
2665.06
2668
2670.98
2674.01
2677.08
2680.2
2683.36
2686.57
2689.82
2693.11
2696.45
2699.82
2703.24
2706.7
2710.2
2713.74
2717.32
2720.93
2724.58
2728.27
2731.99
2735.74
2739.52
2743.33
2747.17
2751.03
2754.91
2758.82
2762.75
2766.69
2770.65
2774.63
2778.61
2782.6
2786.61
2790.61
2794.62
2798.63
2802.64
2806.64
2810.64
2814.64
2818.62
2822.59
2826.55
2830.49
2834.42
2838.33
2842.22
2846.08
2849.92
2853.74
2857.53
2861.28
2865.01
2868.7
2872.35
2875.97
2879.55
2883.08
2886.57
2890.02
2893.42
2896.77
2900.06
2903.31
2906.5
2909.63
2912.7
2915.72
2918.68
2921.57
2924.4
2927.16
2929.86
2932.49
2935.04
2937.53
2939.94
2942.28
2944.55
2946.74
2948.85
2950.89
2952.84
2954.72
2956.51
2958.23
2959.86
2961.41
2962.88
2964.26
2965.56
2966.78
2967.9
2968.95
2969.9
2970.77
2971.56
2972.25
2972.86
2973.38
2973.81
2974.16
2974.42
2974.59
2974.69
2589.56
2589.62
2589.75
2589.99
2590.36
2590.84
2591.44
2592.14
2592.96
2593.87
2594.87
2595.97
2597.16
2598.43
2599.78
2601.21
2602.72
2604.29
2605.94
2607.64
2609.41
2611.23
2613.12
2615.06
2617.05
2619.09
2621.19
2623.34
2625.54
2627.79
2630.09
2632.43
2634.83
2637.27
2639.76
2642.29
2644.88
2647.5
2650.18
2652.9
2655.66
2658.47
2661.33
2664.23
2667.18
2670.17
2673.21
2676.29
2679.41
2682.58
2685.79
2689.05
2692.35
2695.7
2699.08
2702.51
2705.98
2709.49
2713.04
2716.63
2720.26
2723.93
2727.63
2731.36
2735.13
2738.93
2742.77
2746.62
2750.51
2754.42
2758.35
2762.31
2766.28
2770.27
2774.27
2778.29
2782.31
2786.34
2790.38
2794.42
2798.47
2802.51
2806.55
2810.58
2814.61
2818.63
2822.63
2826.63
2830.6
2834.57
2838.51
2842.44
2846.34
2850.21
2854.07
2857.89
2861.68
2865.45
2869.17
2872.87
2876.52
2880.14
2883.71
2887.24
2890.72
2894.15
2897.54
2900.87
2904.15
2907.37
2910.54
2913.65
2916.69
2919.68
2922.6
2925.45
2928.24
2930.96
2933.61
2936.19
2938.7
2941.13
2943.48
2945.77
2947.97
2950.1
2952.14
2954.11
2956
2957.8
2959.52
2961.16
2962.72
2964.19
2965.58
2966.88
2968.1
2969.23
2970.27
2971.23
2972.1
2972.88
2973.58
2974.19
2974.71
2975.14
2975.49
2975.75
2975.92
2976.01
2587.72
2587.76
2587.89
2588.11
2588.46
2588.94
2589.55
2590.29
2591.13
2592.07
2593.1
2594.23
2595.44
2596.74
2598.13
2599.6
2601.14
2602.76
2604.44
2606.18
2607.98
2609.84
2611.76
2613.73
2615.75
2617.83
2619.95
2622.13
2624.36
2626.63
2628.95
2631.32
2633.74
2636.2
2638.71
2641.26
2643.86
2646.51
2649.2
2651.93
2654.71
2657.53
2660.4
2663.31
2666.26
2669.26
2672.31
2675.39
2678.53
2681.7
2684.92
2688.19
2691.5
2694.85
2698.25
2701.69
2705.17
2708.69
2712.25
2715.86
2719.5
2723.18
2726.9
2730.66
2734.45
2738.27
2742.13
2746.01
2749.92
2753.86
2757.82
2761.81
2765.81
2769.83
2773.87
2777.92
2781.98
2786.04
2790.12
2794.2
2798.28
2802.36
2806.43
2810.5
2814.57
2818.62
2822.67
2826.7
2830.72
2834.72
2838.71
2842.67
2846.61
2850.53
2854.42
2858.29
2862.12
2865.92
2869.7
2873.43
2877.13
2880.78
2884.4
2887.97
2891.49
2894.97
2898.4
2901.77
2905.09
2908.35
2911.55
2914.69
2917.77
2920.79
2923.74
2926.63
2929.44
2932.19
2934.86
2937.47
2939.99
2942.45
2944.82
2947.12
2949.34
2951.48
2953.54
2955.52
2957.41
2959.23
2960.96
2962.6
2964.17
2965.64
2967.04
2968.34
2969.56
2970.7
2971.74
2972.7
2973.57
2974.36
2975.05
2975.66
2976.18
2976.62
2976.96
2977.22
2977.4
2977.49
2585.65
2585.68
2585.79
2585.99
2586.32
2586.8
2587.45
2588.23
2589.11
2590.08
2591.13
2592.28
2593.53
2594.85
2596.28
2597.79
2599.38
2601.04
2602.76
2604.55
2606.39
2608.29
2610.25
2612.26
2614.32
2616.42
2618.58
2620.79
2623.05
2625.35
2627.7
2630.1
2632.54
2635.02
2637.55
2640.13
2642.75
2645.41
2648.11
2650.86
2653.65
2656.49
2659.37
2662.29
2665.25
2668.26
2671.31
2674.41
2677.55
2680.73
2683.96
2687.23
2690.55
2693.91
2697.32
2700.76
2704.26
2707.79
2711.37
2714.99
2718.65
2722.35
2726.09
2729.87
2733.68
2737.53
2741.41
2745.32
2749.26
2753.23
2757.22
2761.24
2765.28
2769.34
2773.41
2777.5
2781.6
2785.7
2789.82
2793.94
2798.06
2802.18
2806.3
2810.41
2814.52
2818.62
2822.7
2826.78
2830.84
2834.88
2838.91
2842.92
2846.9
2850.87
2854.8
2858.71
2862.59
2866.44
2870.26
2874.04
2877.79
2881.49
2885.15
2888.77
2892.34
2895.86
2899.34
2902.75
2906.12
2909.42
2912.66
2915.85
2918.96
2922.02
2925
2927.92
2930.77
2933.54
2936.25
2938.87
2941.42
2943.9
2946.29
2948.61
2950.85
2953
2955.07
2957.07
2958.97
2960.8
2962.54
2964.19
2965.76
2967.24
2968.64
2969.95
2971.17
2972.31
2973.36
2974.32
2975.19
2975.97
2976.67
2977.28
2977.8
2978.24
2978.58
2978.84
2979.02
2979.11
2583.36
2583.4
2583.48
2583.64
2583.93
2584.43
2585.12
2585.97
2586.9
2587.89
2588.95
2590.12
2591.41
2592.7
2594.2
2595.77
2597.41
2599.13
2600.91
2602.74
2604.63
2606.58
2608.58
2610.63
2612.73
2614.88
2617.08
2619.32
2621.61
2623.95
2626.33
2628.75
2631.22
2633.73
2636.29
2638.88
2641.52
2644.21
2646.93
2649.69
2652.5
2655.35
2658.24
2661.17
2664.14
2667.16
2670.22
2673.32
2676.47
2679.66
2682.89
2686.17
2689.5
2692.87
2696.28
2699.74
2703.25
2706.79
2710.39
2714.02
2717.7
2721.42
2725.18
2728.98
2732.82
2736.69
2740.6
2744.55
2748.52
2752.52
2756.55
2760.61
2764.69
2768.78
2772.9
2777.03
2781.17
2785.32
2789.48
2793.64
2797.81
2801.97
2806.14
2810.3
2814.45
2818.6
2822.73
2826.85
2830.96
2835.05
2839.13
2843.18
2847.21
2851.22
2855.21
2859.17
2863.1
2867
2870.87
2874.7
2878.5
2882.26
2885.97
2889.64
2893.26
2896.84
2900.36
2903.83
2907.24
2910.59
2913.88
2917.1
2920.26
2923.36
2926.38
2929.33
2932.22
2935.02
2937.75
2940.41
2942.99
2945.48
2947.9
2950.24
2952.49
2954.66
2956.75
2958.75
2960.67
2962.51
2964.26
2965.92
2967.49
2968.98
2970.38
2971.7
2972.92
2974.06
2975.11
2976.07
2976.95
2977.73
2978.43
2979.04
2979.57
2980
2980.34
2980.6
2980.78
2980.87
2580.83
2580.94
2580.96
2581.04
2581.26
2581.77
2582.49
2583.43
2584.44
2585.49
2586.52
2587.65
2588.92
2590.33
2591.86
2593.5
2595.22
2597
2598.84
2600.74
2602.69
2604.69
2606.74
2608.84
2610.99
2613.18
2615.42
2617.71
2620.04
2622.41
2624.83
2627.29
2629.79
2632.33
2634.91
2637.53
2640.2
2642.9
2645.64
2648.42
2651.24
2654.1
2657.01
2659.95
2662.93
2665.96
2669.02
2672.13
2675.29
2678.49
2681.73
2685.01
2688.35
2691.72
2695.15
2698.62
2702.13
2705.69
2709.3
2712.95
2716.65
2720.39
2724.17
2728
2731.86
2735.77
2739.71
2743.69
2747.7
2751.74
2755.81
2759.9
2764.02
2768.16
2772.32
2776.5
2780.69
2784.89
2789.1
2793.31
2797.53
2801.74
2805.96
2810.17
2814.37
2818.57
2822.75
2826.92
2831.08
2835.22
2839.35
2843.45
2847.54
2851.6
2855.64
2859.65
2863.64
2867.59
2871.52
2875.41
2879.26
2883.07
2886.85
2890.57
2894.25
2897.89
2901.46
2904.99
2908.45
2911.85
2915.19
2918.47
2921.67
2924.81
2927.88
2930.87
2933.79
2936.63
2939.39
2942.08
2944.68
2947.2
2949.64
2952
2954.27
2956.46
2958.57
2960.58
2962.51
2964.36
2966.12
2967.79
2969.37
2970.86
2972.27
2973.59
2974.82
2975.96
2977.01
2977.97
2978.85
2979.64
2980.34
2980.95
2981.47
2981.9
2982.25
2982.5
2982.68
2982.77
2577.96
2578.08
2578.05
2577.89
2577.95
2578.5
2579.54
2580.73
2581.86
2582.77
2583.67
2584.72
2586.01
2587.5
2589.15
2590.92
2592.73
2594.61
2596.54
2598.52
2600.54
2602.61
2604.73
2606.88
2609.09
2611.33
2613.62
2615.96
2618.33
2620.75
2623.21
2625.7
2628.24
2630.81
2633.42
2636.07
2638.76
2641.49
2644.25
2647.05
2649.89
2652.76
2655.68
2658.63
2661.62
2664.65
2667.73
2670.84
2674
2677.21
2680.45
2683.74
2687.08
2690.47
2693.9
2697.38
2700.9
2704.48
2708.1
2711.77
2715.49
2719.25
2723.06
2726.91
2730.8
2734.74
2738.72
2742.73
2746.78
2750.86
2754.97
2759.12
2763.28
2767.47
2771.68
2775.91
2780.15
2784.41
2788.67
2792.94
2797.21
2801.48
2805.75
2810.01
2814.27
2818.52
2822.76
2826.99
2831.2
2835.39
2839.57
2843.73
2847.87
2851.99
2856.09
2860.16
2864.2
2868.21
2872.2
2876.15
2880.06
2883.94
2887.78
2891.57
2895.31
2899.01
2902.65
2906.23
2909.75
2913.21
2916.61
2919.93
2923.19
2926.37
2929.49
2932.52
2935.48
2938.36
2941.16
2943.87
2946.51
2949.06
2951.52
2953.9
2956.19
2958.4
2960.52
2962.55
2964.49
2966.35
2968.12
2969.79
2971.38
2972.88
2974.3
2975.62
2976.85
2977.99
2979.05
2980.01
2980.89
2981.68
2982.38
2982.99
2983.51
2983.94
2984.29
2984.54
2984.72
2984.81
2573.95
2573.91
2573.41
2572.45
2571.9
2572.37
2573.72
2575.68
2577.75
2579.73
2580.76
2580.99
2582.28
2583.96
2585.9
2587.9
2589.9
2591.92
2593.97
2596.05
2598.17
2600.33
2602.52
2604.75
2607.02
2609.32
2611.67
2614.06
2616.49
2618.95
2621.45
2623.99
2626.57
2629.18
2631.83
2634.51
2637.22
2639.97
2642.76
2645.57
2648.43
2651.32
2654.24
2657.21
2660.21
2663.25
2666.33
2669.45
2672.61
2675.82
2679.07
2682.36
2685.71
2689.1
2692.53
2696.02
2699.56
2703.15
2706.78
2710.47
2714.21
2717.99
2721.82
2725.7
2729.63
2733.6
2737.62
2741.67
2745.76
2749.89
2754.05
2758.24
2762.46
2766.71
2770.97
2775.26
2779.56
2783.87
2788.19
2792.52
2796.85
2801.18
2805.51
2809.83
2814.15
2818.46
2822.76
2827.04
2831.31
2835.56
2839.8
2844.02
2848.21
2852.39
2856.55
2860.68
2864.78
2868.86
2872.91
2876.93
2880.91
2884.86
2888.76
2892.63
2896.44
2900.2
2903.91
2907.56
2911.14
2914.66
2918.12
2921.5
2924.81
2928.05
2931.21
2934.29
2937.29
2940.21
2943.05
2945.8
2948.46
2951.04
2953.53
2955.94
2958.25
2960.48
2962.61
2964.66
2966.61
2968.48
2970.26
2971.94
2973.54
2975.04
2976.46
2977.79
2979.02
2980.17
2981.22
2982.19
2983.07
2983.85
2984.55
2985.16
2985.68
2986.12
2986.46
2986.72
2986.9
2986.99
2567.81
2567.37
2565.68
2563.16
2561.67
2562.68
2563.95
2567.1
2570.81
2574.72
2578.05
2578.62
2577.57
2579.45
2581.85
2584.32
2586.64
2588.88
2591.1
2593.33
2595.56
2597.82
2600.1
2602.42
2604.76
2607.15
2609.56
2612.01
2614.5
2617.02
2619.57
2622.16
2624.78
2627.43
2630.11
2632.83
2635.57
2638.35
2641.16
2644
2646.87
2649.77
2652.71
2655.68
2658.69
2661.73
2664.82
2667.94
2671.1
2674.31
2677.56
2680.86
2684.21
2687.6
2691.05
2694.54
2698.09
2701.69
2705.34
2709.04
2712.8
2716.61
2720.47
2724.38
2728.34
2732.35
2736.4
2740.5
2744.64
2748.82
2753.03
2757.28
2761.56
2765.86
2770.19
2774.54
2778.9
2783.28
2787.66
2792.05
2796.45
2800.85
2805.24
2809.63
2814.01
2818.38
2822.74
2827.08
2831.41
2835.73
2840.02
2844.3
2848.56
2852.8
2857.02
2861.21
2865.38
2869.53
2873.65
2877.74
2881.79
2885.82
2889.8
2893.73
2897.62
2901.46
2905.24
2908.96
2912.62
2916.21
2919.73
2923.17
2926.55
2929.84
2933.05
2936.18
2939.23
2942.19
2945.07
2947.86
2950.55
2953.16
2955.68
2958.11
2960.44
2962.69
2964.84
2966.9
2968.87
2970.75
2972.53
2974.23
2975.83
2977.34
2978.76
2980.09
2981.33
2982.48
2983.53
2984.5
2985.38
2986.17
2986.86
2987.47
2987.99
2988.43
2988.77
2989.03
2989.2
2989.3
2559.61
2558.48
2555.18
2551.22
2552.01
2552.86
2555.84
2557.12
2561.96
2566.48
2571.05
2574.65
2574.38
2573.98
2576.93
2580.11
2582.91
2585.47
2587.92
2590.32
2592.7
2595.08
2597.48
2599.89
2602.33
2604.8
2607.29
2609.81
2612.37
2614.95
2617.56
2620.2
2622.87
2625.57
2628.29
2631.04
2633.82
2636.62
2639.46
2642.32
2645.2
2648.12
2651.07
2654.05
2657.06
2660.11
2663.2
2666.32
2669.48
2672.69
2675.94
2679.24
2682.58
2685.98
2689.43
2692.93
2696.48
2700.09
2703.75
2707.47
2711.25
2715.09
2718.97
2722.92
2726.91
2730.96
2735.06
2739.21
2743.4
2747.63
2751.91
2756.21
2760.56
2764.92
2769.32
2773.74
2778.17
2782.62
2787.07
2791.54
2796.01
2800.47
2804.94
2809.39
2813.84
2818.28
2822.7
2827.11
2831.51
2835.88
2840.24
2844.58
2848.91
2853.21
2857.49
2861.75
2865.99
2870.21
2874.4
2878.57
2882.71
2886.81
2890.87
2894.9
2898.87
2902.79
2906.65
2910.45
2914.18
2917.85
2921.43
2924.95
2928.38
2931.73
2935
2938.19
2941.29
2944.29
2947.21
2950.04
2952.77
2955.41
2957.96
2960.41
2962.77
2965.03
2967.2
2969.28
2971.26
2973.15
2974.95
2976.65
2978.26
2979.77
2981.2
2982.53
2983.77
2984.92
2985.98
2986.94
2987.82
2988.61
2989.31
2989.91
2990.43
2990.86
2991.21
2991.46
2991.64
2991.73
2551.45
2549.6
2545.39
2540.64
2541.15
2542.01
2545.69
2551.89
2554.09
2559.37
2562.55
2567.04
2569.97
2568.87
2571.33
2575.33
2578.71
2581.68
2584.41
2587.03
2589.59
2592.12
2594.64
2597.17
2599.71
2602.27
2604.85
2607.46
2610.09
2612.74
2615.42
2618.12
2620.84
2623.59
2626.36
2629.15
2631.96
2634.79
2637.65
2640.53
2643.44
2646.37
2649.33
2652.31
2655.33
2658.38
2661.46
2664.58
2667.74
2670.94
2674.19
2677.48
2680.82
2684.22
2687.66
2691.17
2694.73
2698.34
2702.02
2705.76
2709.56
2713.42
2717.33
2721.31
2725.35
2729.44
2733.59
2737.78
2742.03
2746.33
2750.66
2755.04
2759.45
2763.89
2768.36
2772.85
2777.37
2781.89
2786.43
2790.97
2795.51
2800.06
2804.6
2809.13
2813.65
2818.16
2822.65
2827.13
2831.59
2836.03
2840.46
2844.86
2849.25
2853.62
2857.96
2862.29
2866.61
2870.9
2875.17
2879.42
2883.64
2887.83
2891.99
2896.1
2900.17
2904.18
2908.13
2912.01
2915.83
2919.57
2923.23
2926.81
2930.31
2933.73
2937.06
2940.31
2943.46
2946.52
2949.48
2952.35
2955.12
2957.79
2960.37
2962.85
2965.23
2967.51
2969.7
2971.79
2973.79
2975.69
2977.49
2979.2
2980.82
2982.34
2983.77
2985.1
2986.34
2987.49
2988.55
2989.52
2990.39
2991.18
2991.87
2992.48
2993
2993.43
2993.77
2994.02
2994.2
2994.29
2546.3
2543.83
2539.96
2535.4
2533.11
2537.71
2541.44
2544.85
2549.05
2553.48
2556.07
2557.56
2563.15
2563.77
2565.64
2570.15
2574.19
2577.61
2580.65
2583.5
2586.24
2588.93
2591.6
2594.25
2596.91
2599.57
2602.25
2604.95
2607.66
2610.4
2613.14
2615.91
2618.7
2621.5
2624.31
2627.15
2630
2632.86
2635.75
2638.65
2641.57
2644.51
2647.48
2650.47
2653.49
2656.53
2659.61
2662.72
2665.87
2669.06
2672.3
2675.59
2678.92
2682.31
2685.75
2689.25
2692.82
2696.44
2700.13
2703.88
2707.7
2711.58
2715.53
2719.55
2723.62
2727.76
2731.96
2736.22
2740.53
2744.89
2749.29
2753.74
2758.23
2762.76
2767.31
2771.88
2776.48
2781.09
2785.72
2790.34
2794.97
2799.6
2804.22
2808.83
2813.43
2818.02
2822.58
2827.13
2831.66
2836.17
2840.66
2845.13
2849.58
2854.02
2858.43
2862.83
2867.21
2871.58
2875.94
2880.27
2884.58
2888.87
2893.13
2897.34
2901.51
2905.62
2909.67
2913.65
2917.55
2921.37
2925.11
2928.77
2932.34
2935.83
2939.23
2942.53
2945.74
2948.85
2951.87
2954.78
2957.59
2960.3
2962.9
2965.41
2967.81
2970.12
2972.32
2974.43
2976.44
2978.35
2980.16
2981.88
2983.5
2985.03
2986.46
2987.8
2989.04
2990.19
2991.25
2992.21
2993.09
2993.87
2994.57
2995.17
2995.68
2996.11
2996.45
2996.7
2996.88
2996.98
2544.52
2542.5
2539.74
2536.57
2534.95
2537.71
2542.9
2542.98
2546.68
2549.28
2550.48
2551.83
2556.79
2559.31
2560.15
2565.2
2569.68
2573.44
2576.73
2579.78
2582.71
2585.56
2588.36
2591.15
2593.93
2596.71
2599.5
2602.29
2605.1
2607.92
2610.74
2613.58
2616.43
2619.29
2622.16
2625.04
2627.93
2630.83
2633.74
2636.66
2639.6
2642.55
2645.52
2648.51
2651.52
2654.56
2657.63
2660.73
2663.87
2667.05
2670.27
2673.54
2676.87
2680.24
2683.68
2687.17
2690.73
2694.36
2698.06
2701.82
2705.66
2709.57
2713.55
2717.6
2721.72
2725.91
2730.17
2734.49
2738.87
2743.3
2747.78
2752.32
2756.89
2761.5
2766.15
2770.82
2775.51
2780.22
2784.93
2789.66
2794.38
2799.1
2803.81
2808.51
2813.19
2817.86
2822.5
2827.12
2831.73
2836.3
2840.86
2845.39
2849.91
2854.4
2858.88
2863.35
2867.81
2872.25
2876.69
2881.12
2885.53
2889.92
2894.29
2898.61
2902.9
2907.12
2911.27
2915.35
2919.34
2923.25
2927.07
2930.8
2934.45
2938.01
2941.48
2944.85
2948.13
2951.3
2954.37
2957.33
2960.18
2962.92
2965.56
2968.1
2970.52
2972.85
2975.07
2977.19
2979.22
2981.14
2982.96
2984.69
2986.32
2987.85
2989.28
2990.62
2991.87
2993.01
2994.07
2995.03
2995.91
2996.69
2997.38
2997.98
2998.49
2998.91
2999.25
2999.5
2999.67
2999.77
2544.74
2544.51
2543.17
2541.53
2540.79
2542.52
2543.4
2544.77
2546.01
2546.38
2546.14
2548.12
2551.72
2553.12
2555.69
2560.85
2565.44
2569.32
2572.76
2575.96
2579.03
2582.02
2584.96
2587.88
2590.79
2593.69
2596.59
2599.49
2602.4
2605.31
2608.22
2611.14
2614.06
2616.99
2619.91
2622.84
2625.77
2628.71
2631.64
2634.58
2637.53
2640.49
2643.46
2646.45
2649.45
2652.48
2655.54
2658.62
2661.74
2664.89
2668.1
2671.34
2674.65
2678.01
2681.43
2684.91
2688.47
2692.09
2695.79
2699.57
2703.43
2707.36
2711.37
2715.47
2719.63
2723.88
2728.2
2732.58
2737.03
2741.55
2746.12
2750.75
2755.42
2760.13
2764.87
2769.65
2774.44
2779.26
2784.08
2788.91
2793.73
2798.55
2803.36
2808.15
2812.93
2817.68
2822.4
2827.1
2831.78
2836.43
2841.05
2845.64
2850.22
2854.78
2859.32
2863.85
2868.38
2872.9
2877.42
2881.94
2886.45
2890.96
2895.45
2899.91
2904.32
2908.66
2912.93
2917.11
2921.19
2925.18
2929.08
2932.89
2936.62
2940.26
2943.81
2947.26
2950.61
2953.85
2956.97
2959.98
2962.88
2965.66
2968.34
2970.9
2973.35
2975.7
2977.94
2980.08
2982.11
2984.05
2985.88
2987.62
2989.25
2990.79
2992.22
2993.56
2994.81
2995.96
2997.01
2997.97
2998.84
2999.61
3000.3
3000.9
3001.4
3001.82
3002.15
3002.4
3002.58
3002.67
2544.43
2545.6
2545.21
2544.7
2544.95
2545.16
2545.51
2545.55
2545.08
2544.11
2543.08
2544.84
2548.04
2547.88
2552.41
2557.23
2561.56
2565.34
2568.79
2572.06
2575.24
2578.35
2581.42
2584.46
2587.49
2590.52
2593.54
2596.55
2599.57
2602.58
2605.58
2608.59
2611.59
2614.58
2617.57
2620.55
2623.52
2626.49
2629.45
2632.41
2635.37
2638.34
2641.31
2644.28
2647.27
2650.28
2653.31
2656.37
2659.46
2662.59
2665.76
2668.98
2672.25
2675.58
2678.98
2682.45
2685.99
2689.61
2693.32
2697.1
2700.97
2704.93
2708.98
2713.11
2717.33
2721.63
2726.02
2730.48
2735.02
2739.62
2744.29
2749.02
2753.79
2758.61
2763.47
2768.36
2773.28
2778.21
2783.15
2788.09
2793.03
2797.96
2802.87
2807.77
2812.64
2817.48
2822.3
2827.08
2831.83
2836.54
2841.23
2845.88
2850.52
2855.13
2859.73
2864.32
2868.9
2873.5
2878.1
2882.72
2887.34
2891.98
2896.6
2901.21
2905.76
2910.25
2914.64
2918.93
2923.1
2927.17
2931.13
2935.02
2938.82
2942.55
2946.19
2949.73
2953.16
2956.48
2959.67
2962.74
2965.68
2968.51
2971.22
2973.81
2976.29
2978.66
2980.92
2983.07
2985.12
2987.07
2988.92
2990.66
2992.3
2993.84
2995.28
2996.62
2997.87
2999.02
3000.07
3001.02
3001.88
3002.65
3003.33
3003.92
3004.42
3004.84
3005.16
3005.41
3005.58
3005.68
2542.31
2543.76
2543.79
2544.09
2544.55
2544.83
2544.78
2544.31
2543.4
2542.26
2541.47
2541.64
2543.29
2546.05
2549.99
2554.1
2557.93
2561.46
2564.84
2568.12
2571.36
2574.56
2577.74
2580.91
2584.06
2587.21
2590.35
2593.48
2596.61
2599.73
2602.83
2605.93
2609.01
2612.08
2615.13
2618.16
2621.18
2624.19
2627.18
2630.15
2633.12
2636.09
2639.05
2642.01
2644.98
2647.96
2650.96
2653.98
2657.03
2660.12
2663.25
2666.43
2669.67
2672.96
2676.33
2679.77
2683.3
2686.91
2690.6
2694.39
2698.28
2702.26
2706.34
2710.52
2714.79
2719.16
2723.61
2728.16
2732.79
2737.49
2742.27
2747.11
2752.01
2756.95
2761.94
2766.96
2772.01
2777.07
2782.14
2787.21
2792.27
2797.32
2802.36
2807.36
2812.34
2817.28
2822.18
2827.05
2831.87
2836.66
2841.41
2846.12
2850.8
2855.46
2860.11
2864.74
2869.38
2874.04
2878.72
2883.42
2888.17
2892.94
2897.73
2902.5
2907.24
2911.88
2916.41
2920.8
2925.05
2929.17
2933.18
2937.12
2941
2944.83
2948.58
2952.23
2955.77
2959.18
2962.45
2965.58
2968.58
2971.45
2974.19
2976.81
2979.32
2981.71
2984
2986.17
2988.24
2990.2
2992.06
2993.81
2995.46
2997.01
2998.46
2999.8
3001.04
3002.19
3003.23
3004.18
3005.04
3005.8
3006.47
3007.05
3007.54
3007.95
3008.27
3008.51
3008.68
3008.78
2538.48
2539.58
2539.68
2540.36
2541.03
2541.47
2541.61
2541.41
2540.97
2540.39
2539.97
2540.41
2541.95
2544.48
2547.63
2550.98
2554.29
2557.57
2560.83
2564.1
2567.37
2570.65
2573.93
2577.21
2580.49
2583.76
2587.03
2590.29
2593.54
2596.77
2599.98
2603.18
2606.35
2609.49
2612.61
2615.7
2618.77
2621.81
2624.82
2627.81
2630.79
2633.75
2636.69
2639.63
2642.57
2645.51
2648.47
2651.45
2654.45
2657.48
2660.56
2663.69
2666.87
2670.13
2673.45
2676.86
2680.35
2683.94
2687.63
2691.42
2695.31
2699.32
2703.43
2707.65
2711.98
2716.42
2720.96
2725.6
2730.33
2735.14
2740.04
2745.01
2750.04
2755.12
2760.25
2765.42
2770.61
2775.82
2781.04
2786.25
2791.46
2796.65
2801.81
2806.93
2812.02
2817.07
2822.07
2827.03
2831.93
2836.78
2841.59
2846.35
2851.08
2855.78
2860.45
2865.12