/*--------------------------------*- C++ -*----------------------------------*\
| =========                 |                                                 |
| \\      /  F ield         | OpenFOAM: The Open Source CFD Toolbox           |
|  \\    /   O peration     | Version:  v2006                                 |
|   \\  /    A nd           | Website:  www.openfoam.com                      |
|    \\/     M anipulation  |                                                 |
\*---------------------------------------------------------------------------*/
FoamFile
{
    version     2.0;
    format      ascii;
    class       volVectorField;
    location    "0";
    object      U;
}
// * * * * * * * * * * * * * * * * * * * * * * * * * * * * * * * * * * * * * //

dimensions      [0 1 -1 0 0 0 0];


internalField   nonuniform List<vector> 
67500
(
(0.0762167 -0.0167074 0)
(0.0170105 -0.019059 0)
(0.0876378 -0.0174201 0)
(0.124032 -0.0169164 0)
(0.157955 -0.0167276 0)
(0.190356 -0.016499 0)
(0.222908 -0.0162094 0)
(0.255078 -0.0158789 0)
(0.2865 -0.0155156 0)
(0.317151 -0.0151237 0)
(0.346999 -0.0147077 0)
(0.375994 -0.0142722 0)
(0.404101 -0.0138217 0)
(0.431294 -0.0133603 0)
(0.457555 -0.0128919 0)
(0.482873 -0.0124198 0)
(0.507246 -0.0119474 0)
(0.530673 -0.0114773 0)
(0.553164 -0.011012 0)
(0.57473 -0.0105536 0)
(0.595386 -0.0101039 0)
(0.615151 -0.00966435 0)
(0.634048 -0.00923607 0)
(0.652099 -0.00882001 0)
(0.66933 -0.0084169 0)
(0.685768 -0.00802722 0)
(0.70144 -0.00765131 0)
(0.716373 -0.00728936 0)
(0.730596 -0.00694142 0)
(0.744137 -0.00660744 0)
(0.757024 -0.00628728 0)
(0.769284 -0.00598073 0)
(0.780944 -0.00568751 0)
(0.792031 -0.00540731 0)
(0.80257 -0.00513976 0)
(0.812586 -0.00488449 0)
(0.822104 -0.00464109 0)
(0.831147 -0.00440914 0)
(0.839737 -0.00418821 0)
(0.847896 -0.00397788 0)
(0.855644 -0.00377772 0)
(0.863003 -0.0035873 0)
(0.86999 -0.00340621 0)
(0.876624 -0.00323404 0)
(0.882922 -0.00307037 0)
(0.888901 -0.00291483 0)
(0.894578 -0.00276704 0)
(0.899966 -0.00262663 0)
(0.905081 -0.00249324 0)
(0.909936 -0.00236653 0)
(0.914544 -0.00224618 0)
(0.918917 -0.00213188 0)
(0.923068 -0.00202331 0)
(0.927008 -0.00192021 0)
(0.930746 -0.00182228 0)
(0.934294 -0.00172927 0)
(0.937661 -0.00164092 0)
(0.940855 -0.00155701 0)
(0.943887 -0.00147731 0)
(0.946762 -0.0014016 0)
(0.949491 -0.00132968 0)
(0.952079 -0.00126136 0)
(0.954534 -0.00119647 0)
(0.956863 -0.00113483 0)
(0.959072 -0.00107628 0)
(0.961167 -0.00102068 0)
(0.963153 -0.000967872 0)
(0.965036 -0.000917729 0)
(0.966822 -0.000870121 0)
(0.968516 -0.000824926 0)
(0.970121 -0.000782026 0)
(0.971642 -0.00074131 0)
(0.973085 -0.000702671 0)
(0.974452 -0.000666008 0)
(0.975748 -0.000631224 0)
(0.976976 -0.000598223 0)
(0.97814 -0.000566918 0)
(0.979242 -0.000537224 0)
(0.980287 -0.000509058 0)
(0.981278 -0.000482345 0)
(0.982216 -0.00045701 0)
(0.983105 -0.000432984 0)
(0.983947 -0.000410201 0)
(0.984745 -0.000388599 0)
(0.985501 -0.000368118 0)
(0.986217 -0.000348702 0)
(0.986895 -0.000330297 0)
(0.987538 -0.000312853 0)
(0.988146 -0.000296322 0)
(0.988722 -0.000280658 0)
(0.989268 -0.000265817 0)
(0.989785 -0.000251759 0)
(0.990275 -0.000238443 0)
(0.990738 -0.000225833 0)
(0.991178 -0.000213893 0)
(0.991594 -0.000202589 0)
(0.991988 -0.000191888 0)
(0.992361 -0.000181759 0)
(0.992714 -0.000172174 0)
(0.993049 -0.000163103 0)
(0.993366 -0.000154521 0)
(0.993667 -0.000146402 0)
(0.993952 -0.000138721 0)
(0.994222 -0.000131456 0)
(0.994477 -0.000124585 0)
(0.99472 -0.000118087 0)
(0.994949 -0.000111943 0)
(0.995167 -0.000106133 0)
(0.995374 -0.00010064 0)
(0.99557 -9.5446e-05 0)
(0.995755 -9.05362e-05 0)
(0.995932 -8.58948e-05 0)
(0.996099 -8.15073e-05 0)
(0.996257 -7.736e-05 0)
(0.996408 -7.34398e-05 0)
(0.996551 -6.97343e-05 0)
(0.996687 -6.62319e-05 0)
(0.996816 -6.29214e-05 0)
(0.996938 -5.97921e-05 0)
(0.997055 -5.68342e-05 0)
(0.997166 -5.40382e-05 0)
(0.997271 -5.1395e-05 0)
(0.997371 -4.88962e-05 0)
(0.997467 -4.65337e-05 0)
(0.997557 -4.42999e-05 0)
(0.997644 -4.21877e-05 0)
(0.997726 -4.01901e-05 0)
(0.997804 -3.83009e-05 0)
(0.997879 -3.65139e-05 0)
(0.99795 -3.48233e-05 0)
(0.998018 -3.32238e-05 0)
(0.998083 -3.17103e-05 0)
(0.998145 -3.0278e-05 0)
(0.998204 -2.89222e-05 0)
(0.998261 -2.76387e-05 0)
(0.998315 -2.64235e-05 0)
(0.998366 -2.52728e-05 0)
(0.998416 -2.4183e-05 0)
(0.998463 -2.31508e-05 0)
(0.998508 -2.21728e-05 0)
(0.998552 -2.12463e-05 0)
(0.998593 -2.03682e-05 0)
(0.998633 -1.95361e-05 0)
(0.998671 -1.87474e-05 0)
(0.998708 -1.79998e-05 0)
(0.998743 -1.72911e-05 0)
(0.998777 -1.66191e-05 0)
(0.99881 -1.59819e-05 0)
(0.998841 -1.53778e-05 0)
(0.998871 -1.48049e-05 0)
(0.9989 -1.42615e-05 0)
(0.998928 -1.37463e-05 0)
(0.998955 -1.32577e-05 0)
(0.998981 -1.27942e-05 0)
(0.999007 -1.23547e-05 0)
(0.999031 -1.19379e-05 0)
(0.999054 -1.15427e-05 0)
(0.999077 -1.11678e-05 0)
(0.999099 -1.08123e-05 0)
(0.99912 -1.04752e-05 0)
(0.999141 -1.01555e-05 0)
(0.999161 -9.85227e-06 0)
(0.99918 -9.56476e-06 0)
(0.999199 -9.29209e-06 0)
(0.999217 -9.0335e-06 0)
(0.999235 -8.78823e-06 0)
(0.999253 -8.55558e-06 0)
(0.999269 -8.33486e-06 0)
(0.999286 -8.12543e-06 0)
(0.999302 -7.92665e-06 0)
(0.999318 -7.73794e-06 0)
(0.999333 -7.55871e-06 0)
(0.999348 -7.38842e-06 0)
(0.999362 -7.22653e-06 0)
(0.999377 -7.07253e-06 0)
(0.999391 -6.92593e-06 0)
(0.999404 -6.78625e-06 0)
(0.999418 -6.65304e-06 0)
(0.999431 -6.52586e-06 0)
(0.999444 -6.40428e-06 0)
(0.999457 -6.28788e-06 0)
(0.999469 -6.17628e-06 0)
(0.999481 -6.06908e-06 0)
(0.999493 -5.96592e-06 0)
(0.999505 -5.86644e-06 0)
(0.999517 -5.77029e-06 0)
(0.999528 -5.67714e-06 0)
(0.99954 -5.58667e-06 0)
(0.999551 -5.49857e-06 0)
(0.999562 -5.41255e-06 0)
(0.999572 -5.32832e-06 0)
(0.999583 -5.24562e-06 0)
(0.999593 -5.16417e-06 0)
(0.999603 -5.08376e-06 0)
(0.999614 -5.00413e-06 0)
(0.999623 -4.9251e-06 0)
(0.999633 -4.84644e-06 0)
(0.999643 -4.76799e-06 0)
(0.999652 -4.68958e-06 0)
(0.999662 -4.61106e-06 0)
(0.999671 -4.53231e-06 0)
(0.99968 -4.45321e-06 0)
(0.999689 -4.37368e-06 0)
(0.999697 -4.29363e-06 0)
(0.999706 -4.21303e-06 0)
(0.999714 -4.13183e-06 0)
(0.999722 -4.05003e-06 0)
(0.99973 -3.96763e-06 0)
(0.999738 -3.88465e-06 0)
(0.999746 -3.80111e-06 0)
(0.999753 -3.71707e-06 0)
(0.999761 -3.63261e-06 0)
(0.999768 -3.54779e-06 0)
(0.999775 -3.46271e-06 0)
(0.999782 -3.37747e-06 0)
(0.999788 -3.29216e-06 0)
(0.999795 -3.2069e-06 0)
(0.999801 -3.1218e-06 0)
(0.999807 -3.03699e-06 0)
(0.999813 -2.95257e-06 0)
(0.999819 -2.86868e-06 0)
(0.999825 -2.78542e-06 0)
(0.99983 -2.70291e-06 0)
(0.999836 -2.62126e-06 0)
(0.999841 -2.54058e-06 0)
(0.999846 -2.46096e-06 0)
(0.999851 -2.38249e-06 0)
(0.999855 -2.30526e-06 0)
(0.99986 -2.22935e-06 0)
(0.999864 -2.15484e-06 0)
(0.999869 -2.08178e-06 0)
(0.999873 -2.01024e-06 0)
(0.999877 -1.94027e-06 0)
(0.99988 -1.87193e-06 0)
(0.999884 -1.80527e-06 0)
(0.999888 -1.74033e-06 0)
(0.999891 -1.67715e-06 0)
(0.999894 -1.61577e-06 0)
(0.999897 -1.5562e-06 0)
(0.999901 -1.49847e-06 0)
(0.999903 -1.44257e-06 0)
(0.999906 -1.38852e-06 0)
(0.999909 -1.3363e-06 0)
(0.999912 -1.28589e-06 0)
(0.999914 -1.23727e-06 0)
(0.999917 -1.19039e-06 0)
(0.999919 -1.14522e-06 0)
(0.999921 -1.10171e-06 0)
(0.999923 -1.05981e-06 0)
(0.999925 -1.01949e-06 0)
(0.999927 -9.80694e-07 0)
(0.999929 -9.43374e-07 0)
(0.999931 -9.07487e-07 0)
(0.999933 -8.7299e-07 0)
(0.999935 -8.39844e-07 0)
(0.999936 -8.08011e-07 0)
(0.999938 -7.77453e-07 0)
(0.999939 -7.4813e-07 0)
(0.999941 -7.20005e-07 0)
(0.999942 -6.93041e-07 0)
(0.999944 -6.67204e-07 0)
(0.999945 -6.42458e-07 0)
(0.999946 -6.18767e-07 0)
(0.999947 -5.96096e-07 0)
(0.999949 -5.74409e-07 0)
(0.99995 -5.53671e-07 0)
(0.999951 -5.33847e-07 0)
(0.999952 -5.14903e-07 0)
(0.999953 -4.96804e-07 0)
(0.999954 -4.79516e-07 0)
(0.999955 -4.63005e-07 0)
(0.999956 -4.47238e-07 0)
(0.999957 -4.32182e-07 0)
(0.999957 -4.17807e-07 0)
(0.999958 -4.04081e-07 0)
(0.999959 -3.90976e-07 0)
(0.99996 -3.78461e-07 0)
(0.999961 -3.66508e-07 0)
(0.999961 -3.5509e-07 0)
(0.999962 -3.44181e-07 0)
(0.999963 -3.33758e-07 0)
(0.999963 -3.23798e-07 0)
(0.999964 -3.14278e-07 0)
(0.999965 -3.05176e-07 0)
(0.999965 -2.9647e-07 0)
(0.999966 -2.88141e-07 0)
(0.999966 -2.80168e-07 0)
(0.999967 -2.72534e-07 0)
(0.999967 -2.65223e-07 0)
(0.999968 -2.58217e-07 0)
(0.999968 -2.51503e-07 0)
(0.999969 -2.45065e-07 0)
(0.999969 -2.38888e-07 0)
(0.99997 -2.3296e-07 0)
(0.99997 -2.27268e-07 0)
(0.999971 -2.21799e-07 0)
(0.999971 -2.16541e-07 0)
(0.999972 -2.11486e-07 0)
(0.999972 -2.06621e-07 0)
(0.999973 -2.01939e-07 0)
(0.999973 -1.97429e-07 0)
(0.999973 -1.93084e-07 0)
(0.999974 -1.88893e-07 0)
(0.999974 -1.8485e-07 0)
(0.999974 -1.80948e-07 0)
(0.999975 -1.77181e-07 0)
(0.999975 -1.73542e-07 0)
(0.999975 -1.70024e-07 0)
(0.999976 -1.66623e-07 0)
(0.999976 -1.63331e-07 0)
(0.999976 -1.60142e-07 0)
(0.999977 -1.57051e-07 0)
(0.999977 -1.54054e-07 0)
(0.999977 -1.51146e-07 0)
(0.999978 -1.48324e-07 0)
(0.999978 -1.45585e-07 0)
(0.999978 -1.42925e-07 0)
(0.999979 -1.40339e-07 0)
(0.999979 -1.37824e-07 0)
(0.999979 -1.35377e-07 0)
(0.999979 -1.32995e-07 0)
(0.99998 -1.30674e-07 0)
(0.99998 -1.28414e-07 0)
(0.99998 -1.26211e-07 0)
(0.99998 -1.24062e-07 0)
(0.999981 -1.21964e-07 0)
(0.999981 -1.19916e-07 0)
(0.999981 -1.17915e-07 0)
(0.999981 -1.15958e-07 0)
(0.999982 -1.14044e-07 0)
(0.999982 -1.12171e-07 0)
(0.999982 -1.1034e-07 0)
(0.999982 -1.08547e-07 0)
(0.999982 -1.06793e-07 0)
(0.999983 -1.05074e-07 0)
(0.999983 -1.03391e-07 0)
(0.999983 -1.0174e-07 0)
(0.999983 -1.0012e-07 0)
(0.999984 -9.8531e-08 0)
(0.999984 -9.69704e-08 0)
(0.999984 -9.54379e-08 0)
(0.999984 -9.39324e-08 0)
(0.999984 -9.24535e-08 0)
(0.999984 -9.10002e-08 0)
(0.999985 -8.95718e-08 0)
(0.999985 -8.81674e-08 0)
(0.999985 -8.67859e-08 0)
(0.999985 -8.54265e-08 0)
(0.999985 -8.40885e-08 0)
(0.999986 -8.27711e-08 0)
(0.999986 -8.14739e-08 0)
(0.999986 -8.01963e-08 0)
(0.999986 -7.89378e-08 0)
(0.999986 -7.76978e-08 0)
(0.999986 -7.64754e-08 0)
(0.999986 -7.52701e-08 0)
(0.999987 -7.40813e-08 0)
(0.999987 -7.29085e-08 0)
(0.999987 -7.17517e-08 0)
(0.999987 -7.06105e-08 0)
(0.999987 -6.94846e-08 0)
(0.999987 -6.83735e-08 0)
(0.999987 -6.72766e-08 0)
(0.999988 -6.61932e-08 0)
(0.999988 -6.51231e-08 0)
(0.999988 -6.40659e-08 0)
(0.999988 -6.30217e-08 0)
(0.999988 -6.19904e-08 0)
(0.999988 -6.09721e-08 0)
(0.999988 -5.99662e-08 0)
(0.999988 -5.89719e-08 0)
(0.999989 -5.79886e-08 0)
(0.999989 -5.70155e-08 0)
(0.999989 -5.60523e-08 0)
(0.999989 -5.50989e-08 0)
(0.999989 -5.41558e-08 0)
(0.999989 -5.32232e-08 0)
(0.999989 -5.23014e-08 0)
(0.999989 -5.13898e-08 0)
(0.999989 -5.04879e-08 0)
(0.99999 -4.95949e-08 0)
(0.99999 -4.87101e-08 0)
(0.99999 -4.78331e-08 0)
(0.99999 -4.69642e-08 0)
(0.99999 -4.61037e-08 0)
(0.99999 -4.5252e-08 0)
(0.99999 -4.4409e-08 0)
(0.99999 -4.35743e-08 0)
(0.99999 -4.27474e-08 0)
(0.99999 -4.19274e-08 0)
(0.99999 -4.11139e-08 0)
(0.999991 -4.03066e-08 0)
(0.999991 -3.9506e-08 0)
(0.999991 -3.87123e-08 0)
(0.999991 -3.7926e-08 0)
(0.999991 -3.7147e-08 0)
(0.999991 -3.63753e-08 0)
(0.999991 -3.56102e-08 0)
(0.999991 -3.48512e-08 0)
(0.999991 -3.40975e-08 0)
(0.999991 -3.33491e-08 0)
(0.999991 -3.26058e-08 0)
(0.999991 -3.18678e-08 0)
(0.999991 -3.1135e-08 0)
(0.999991 -3.04074e-08 0)
(0.999992 -2.96849e-08 0)
(0.999992 -2.89672e-08 0)
(0.999992 -2.82542e-08 0)
(0.999992 -2.75457e-08 0)
(0.999992 -2.68419e-08 0)
(0.999992 -2.61431e-08 0)
(0.999992 -2.54492e-08 0)
(0.999992 -2.47603e-08 0)
(0.999992 -2.40761e-08 0)
(0.999992 -2.33959e-08 0)
(0.999992 -2.27193e-08 0)
(0.999992 -2.20457e-08 0)
(0.999992 -2.13749e-08 0)
(0.999992 -2.07071e-08 0)
(0.999992 -2.00424e-08 0)
(0.999992 -1.93813e-08 0)
(0.999992 -1.87239e-08 0)
(0.999992 -1.80702e-08 0)
(0.999992 -1.742e-08 0)
(0.999992 -1.67728e-08 0)
(0.999992 -1.61284e-08 0)
(0.999992 -1.54865e-08 0)
(0.999992 -1.48471e-08 0)
(0.999993 -1.42103e-08 0)
(0.999993 -1.35761e-08 0)
(0.999993 -1.29445e-08 0)
(0.999993 -1.2315e-08 0)
(0.999993 -1.16874e-08 0)
(0.999993 -1.10611e-08 0)
(0.999993 -1.04359e-08 0)
(0.999993 -9.8118e-09 0)
(0.999993 -9.18893e-09 0)
(0.999993 -8.56775e-09 0)
(0.999993 -7.94862e-09 0)
(0.999993 -7.33169e-09 0)
(0.999993 -6.71684e-09 0)
(0.999993 -6.10376e-09 0)
(0.999993 -5.49197e-09 0)
(0.999993 -4.88083e-09 0)
(0.999993 -4.26978e-09 0)
(0.999993 -3.65878e-09 0)
(0.999993 -3.04803e-09 0)
(0.999993 -2.43553e-09 0)
(0.999993 -1.85147e-09 0)
(0.999993 -9.90715e-10 0)
(0.0761365 -0.0501753 0)
(0.017193 -0.0571619 0)
(0.0880057 -0.0523131 0)
(0.124409 -0.0508213 0)
(0.158384 -0.0502372 0)
(0.190878 -0.049536 0)
(0.223519 -0.0486622 0)
(0.25576 -0.0476667 0)
(0.287241 -0.0465724 0)
(0.317944 -0.0453923 0)
(0.347833 -0.0441402 0)
(0.376861 -0.0428299 0)
(0.404993 -0.0414748 0)
(0.432204 -0.0400871 0)
(0.458475 -0.0386785 0)
(0.483798 -0.0372595 0)
(0.508168 -0.0358396 0)
(0.531589 -0.0344271 0)
(0.554068 -0.0330294 0)
(0.575619 -0.0316527 0)
(0.596257 -0.0303022 0)
(0.616002 -0.0289824 0)
(0.634875 -0.0276966 0)
(0.652902 -0.0264478 0)
(0.670108 -0.025238 0)
(0.686519 -0.0240686 0)
(0.702164 -0.0229407 0)
(0.71707 -0.0218548 0)
(0.731266 -0.020811 0)
(0.74478 -0.0198092 0)
(0.75764 -0.0188489 0)
(0.769874 -0.0179295 0)
(0.781509 -0.0170501 0)
(0.79257 -0.0162098 0)
(0.803085 -0.0154075 0)
(0.813078 -0.0146421 0)
(0.822573 -0.0139123 0)
(0.831594 -0.0132168 0)
(0.840163 -0.0125544 0)
(0.848301 -0.0119238 0)
(0.85603 -0.0113237 0)
(0.86337 -0.0107529 0)
(0.870339 -0.01021 0)
(0.876956 -0.00969385 0)
(0.883238 -0.00920323 0)
(0.889202 -0.00873697 0)
(0.894863 -0.00829393 0)
(0.900237 -0.00787302 0)
(0.905339 -0.00747318 0)
(0.910181 -0.00709338 0)
(0.914777 -0.00673263 0)
(0.919138 -0.00639001 0)
(0.923278 -0.00606459 0)
(0.927207 -0.00575553 0)
(0.930936 -0.005462 0)
(0.934474 -0.00518321 0)
(0.937832 -0.00491841 0)
(0.941018 -0.00466689 0)
(0.944041 -0.00442798 0)
(0.946909 -0.00420105 0)
(0.94963 -0.00398548 0)
(0.952212 -0.00378071 0)
(0.95466 -0.00358619 0)
(0.956983 -0.00340143 0)
(0.959186 -0.00322594 0)
(0.961275 -0.00305926 0)
(0.963256 -0.00290098 0)
(0.965134 -0.00275067 0)
(0.966915 -0.00260797 0)
(0.968603 -0.0024725 0)
(0.970204 -0.00234391 0)
(0.971721 -0.00222186 0)
(0.97316 -0.00210605 0)
(0.974523 -0.00199616 0)
(0.975815 -0.0018919 0)
(0.97704 -0.00179298 0)
(0.9782 -0.00169915 0)
(0.9793 -0.00161015 0)
(0.980342 -0.00152573 0)
(0.98133 -0.00144566 0)
(0.982265 -0.00136972 0)
(0.983152 -0.00129771 0)
(0.983992 -0.00122943 0)
(0.984787 -0.00116468 0)
(0.985541 -0.00110329 0)
(0.986255 -0.0010451 0)
(0.986931 -0.000989932 0)
(0.987571 -0.000937648 0)
(0.988178 -0.0008881 0)
(0.988753 -0.00084115 0)
(0.989297 -0.00079667 0)
(0.989812 -0.000754534 0)
(0.990301 -0.000714625 0)
(0.990763 -0.000676831 0)
(0.991201 -0.000641045 0)
(0.991616 -0.000607164 0)
(0.992008 -0.000575091 0)
(0.99238 -0.000544735 0)
(0.992733 -0.000516006 0)
(0.993067 -0.000488821 0)
(0.993383 -0.0004631 0)
(0.993683 -0.000438766 0)
(0.993967 -0.000415747 0)
(0.994236 -0.000393975 0)
(0.994491 -0.000373383 0)
(0.994732 -0.000353909 0)
(0.994961 -0.000335494 0)
(0.995179 -0.000318082 0)
(0.995384 -0.000301619 0)
(0.99558 -0.000286054 0)
(0.995765 -0.00027134 0)
(0.995941 -0.00025743 0)
(0.996107 -0.000244281 0)
(0.996266 -0.000231853 0)
(0.996416 -0.000220104 0)
(0.996558 -0.000209 0)
(0.996694 -0.000198504 0)
(0.996822 -0.000188583 0)
(0.996945 -0.000179205 0)
(0.997061 -0.000170341 0)
(0.997171 -0.000161962 0)
(0.997276 -0.00015404 0)
(0.997376 -0.000146552 0)
(0.997471 -0.000139472 0)
(0.997562 -0.000132778 0)
(0.997648 -0.000126448 0)
(0.99773 -0.000120462 0)
(0.997808 -0.0001148 0)
(0.997883 -0.000109445 0)
(0.997954 -0.000104379 0)
(0.998021 -9.95855e-05 0)
(0.998086 -9.50498e-05 0)
(0.998148 -9.07572e-05 0)
(0.998207 -8.66942e-05 0)
(0.998263 -8.28478e-05 0)
(0.998317 -7.92061e-05 0)
(0.998369 -7.57575e-05 0)
(0.998418 -7.24915e-05 0)
(0.998465 -6.93978e-05 0)
(0.99851 -6.64671e-05 0)
(0.998554 -6.36902e-05 0)
(0.998595 -6.10588e-05 0)
(0.998635 -5.8565e-05 0)
(0.998673 -5.62012e-05 0)
(0.99871 -5.39606e-05 0)
(0.998745 -5.18364e-05 0)
(0.998779 -4.98224e-05 0)
(0.998811 -4.79128e-05 0)
(0.998842 -4.6102e-05 0)
(0.998872 -4.43849e-05 -1.55742e-41)
(0.998901 -4.27565e-05 -1.51629e-41)
(0.998929 -4.12123e-05 0)
(0.998956 -3.97477e-05 0)
(0.998982 -3.83588e-05 0)
(0.999007 -3.70415e-05 0)
(0.999032 -3.57923e-05 0)
(0.999055 -3.46075e-05 0)
(0.999078 -3.3484e-05 0)
(0.9991 -3.24185e-05 0)
(0.999121 -3.1408e-05 0)
(0.999141 -3.04498e-05 0)
(0.999161 -2.95411e-05 0)
(0.999181 -2.86794e-05 0)
(0.9992 -2.78622e-05 0)
(0.999218 -2.70872e-05 0)
(0.999236 -2.63521e-05 0)
(0.999253 -2.56548e-05 0)
(0.99927 -2.49933e-05 0)
(0.999286 -2.43656e-05 0)
(0.999302 -2.37699e-05 0)
(0.999318 -2.32043e-05 0)
(0.999333 -2.26672e-05 0)
(0.999348 -2.21569e-05 0)
(0.999363 -2.16717e-05 0)
(0.999377 -2.12102e-05 0)
(0.999391 -2.07709e-05 0)
(0.999405 -2.03523e-05 0)
(0.999418 -1.99531e-05 0)
(0.999431 -1.9572e-05 0)
(0.999444 -1.92076e-05 0)
(0.999457 -1.88589e-05 0)
(0.999469 -1.85244e-05 0)
(0.999482 -1.82032e-05 0)
(0.999494 -1.78941e-05 0)
(0.999505 -1.7596e-05 0)
(0.999517 -1.73079e-05 0)
(0.999528 -1.70287e-05 0)
(0.99954 -1.67576e-05 0)
(0.999551 -1.64936e-05 0)
(0.999562 -1.62358e-05 0)
(0.999572 -1.59834e-05 0)
(0.999583 -1.57356e-05 0)
(0.999593 -1.54915e-05 0)
(0.999604 -1.52505e-05 0)
(0.999614 -1.50118e-05 0)
(0.999624 -1.47749e-05 0)
(0.999633 -1.45391e-05 0)
(0.999643 -1.43039e-05 0)
(0.999652 -1.40688e-05 0)
(0.999662 -1.38334e-05 0)
(0.999671 -1.35973e-05 0)
(0.99968 -1.33601e-05 0)
(0.999689 -1.31215e-05 0)
(0.999697 -1.28814e-05 0)
(0.999706 -1.26397e-05 0)
(0.999714 -1.23961e-05 0)
(0.999722 -1.21507e-05 0)
(0.99973 -1.19035e-05 0)
(0.999738 -1.16545e-05 0)
(0.999746 -1.14038e-05 0)
(0.999754 -1.11516e-05 0)
(0.999761 -1.08982e-05 0)
(0.999768 -1.06436e-05 0)
(0.999775 -1.03883e-05 0)
(0.999782 -1.01325e-05 0)
(0.999789 -9.87643e-06 0)
(0.999795 -9.62054e-06 0)
(0.999801 -9.36513e-06 0)
(0.999808 -9.11057e-06 0)
(0.999814 -8.85721e-06 0)
(0.999819 -8.6054e-06 0)
(0.999825 -8.35551e-06 0)
(0.999831 -8.10788e-06 0)
(0.999836 -7.86284e-06 0)
(0.999841 -7.62069e-06 0)
(0.999846 -7.38173e-06 0)
(0.999851 -7.14624e-06 0)
(0.999856 -6.91448e-06 0)
(0.99986 -6.68668e-06 0)
(0.999864 -6.46306e-06 0)
(0.999869 -6.24382e-06 0)
(0.999873 -6.02913e-06 0)
(0.999877 -5.81918e-06 0)
(0.999881 -5.61411e-06 0)
(0.999884 -5.41409e-06 0)
(0.999888 -5.21923e-06 0)
(0.999891 -5.02966e-06 0)
(0.999894 -4.84548e-06 0)
(0.999898 -4.66675e-06 0)
(0.999901 -4.49354e-06 0)
(0.999904 -4.32586e-06 0)
(0.999906 -4.16372e-06 0)
(0.999909 -4.00709e-06 0)
(0.999912 -3.8559e-06 0)
(0.999914 -3.71006e-06 0)
(0.999917 -3.56946e-06 0)
(0.999919 -3.43399e-06 0)
(0.999921 -3.30351e-06 0)
(0.999923 -3.17788e-06 0)
(0.999925 -3.05696e-06 0)
(0.999927 -2.94061e-06 0)
(0.999929 -2.82869e-06 0)
(0.999931 -2.72107e-06 0)
(0.999933 -2.61762e-06 0)
(0.999935 -2.51823e-06 0)
(0.999936 -2.42277e-06 0)
(0.999938 -2.33113e-06 0)
(0.999939 -2.24319e-06 0)
(0.999941 -2.15885e-06 0)
(0.999942 -2.07799e-06 0)
(0.999944 -2.00052e-06 0)
(0.999945 -1.92632e-06 0)
(0.999946 -1.85528e-06 0)
(0.999947 -1.7873e-06 0)
(0.999949 -1.72228e-06 0)
(0.99995 -1.6601e-06 0)
(0.999951 -1.60067e-06 0)
(0.999952 -1.54387e-06 0)
(0.999953 -1.48961e-06 0)
(0.999954 -1.43778e-06 0)
(0.999955 -1.38828e-06 0)
(0.999956 -1.34101e-06 0)
(0.999957 -1.29587e-06 0)
(0.999957 -1.25277e-06 0)
(0.999958 -1.21162e-06 0)
(0.999959 -1.17233e-06 0)
(0.99996 -1.13481e-06 0)
(0.999961 -1.09898e-06 0)
(0.999961 -1.06475e-06 0)
(0.999962 -1.03206e-06 0)
(0.999963 -1.00081e-06 0)
(0.999963 -9.7096e-07 0)
(0.999964 -9.42422e-07 0)
(0.999965 -9.15136e-07 0)
(0.999965 -8.89037e-07 0)
(0.999966 -8.64065e-07 0)
(0.999966 -8.40164e-07 0)
(0.999967 -8.1728e-07 0)
(0.999967 -7.95362e-07 0)
(0.999968 -7.74362e-07 0)
(0.999968 -7.54234e-07 0)
(0.999969 -7.34933e-07 0)
(0.999969 -7.16417e-07 0)
(0.99997 -6.98644e-07 0)
(0.99997 -6.81578e-07 0)
(0.999971 -6.65181e-07 0)
(0.999971 -6.49419e-07 0)
(0.999972 -6.34262e-07 0)
(0.999972 -6.19679e-07 0)
(0.999973 -6.05641e-07 0)
(0.999973 -5.92122e-07 0)
(0.999973 -5.79094e-07 0)
(0.999974 -5.66532e-07 0)
(0.999974 -5.54414e-07 0)
(0.999974 -5.42718e-07 0)
(0.999975 -5.31423e-07 0)
(0.999975 -5.20511e-07 0)
(0.999975 -5.09963e-07 0)
(0.999976 -4.99761e-07 0)
(0.999976 -4.89886e-07 0)
(0.999976 -4.80321e-07 0)
(0.999977 -4.71053e-07 0)
(0.999977 -4.62067e-07 0)
(0.999977 -4.5335e-07 0)
(0.999978 -4.44892e-07 0)
(0.999978 -4.3668e-07 0)
(0.999978 -4.28702e-07 0)
(0.999979 -4.20948e-07 0)
(0.999979 -4.13406e-07 0)
(0.999979 -4.06067e-07 0)
(0.999979 -3.98923e-07 0)
(0.99998 -3.91965e-07 0)
(0.99998 -3.85185e-07 0)
(0.99998 -3.78576e-07 0)
(0.99998 -3.7213e-07 0)
(0.999981 -3.65838e-07 0)
(0.999981 -3.59694e-07 0)
(0.999981 -3.53691e-07 0)
(0.999981 -3.47824e-07 0)
(0.999982 -3.42087e-07 0)
(0.999982 -3.36476e-07 0)
(0.999982 -3.30986e-07 0)
(0.999982 -3.25613e-07 0)
(0.999982 -3.20352e-07 0)
(0.999983 -3.15198e-07 0)
(0.999983 -3.10145e-07 0)
(0.999983 -3.05191e-07 0)
(0.999983 -3.0033e-07 0)
(0.999984 -2.95559e-07 0)
(0.999984 -2.90877e-07 0)
(0.999984 -2.8628e-07 0)
(0.999984 -2.81766e-07 0)
(0.999984 -2.77332e-07 0)
(0.999984 -2.72976e-07 0)
(0.999985 -2.68694e-07 0)
(0.999985 -2.64483e-07 0)
(0.999985 -2.6034e-07 0)
(0.999985 -2.56263e-07 0)
(0.999985 -2.5225e-07 0)
(0.999986 -2.48299e-07 0)
(0.999986 -2.44408e-07 0)
(0.999986 -2.40575e-07 0)
(0.999986 -2.36799e-07 0)
(0.999986 -2.33078e-07 0)
(0.999986 -2.29411e-07 0)
(0.999986 -2.25795e-07 0)
(0.999987 -2.22229e-07 0)
(0.999987 -2.18712e-07 0)
(0.999987 -2.15243e-07 0)
(0.999987 -2.1182e-07 0)
(0.999987 -2.08442e-07 0)
(0.999987 -2.05108e-07 0)
(0.999987 -2.01816e-07 0)
(0.999988 -1.98566e-07 0)
(0.999988 -1.95356e-07 0)
(0.999988 -1.92186e-07 0)
(0.999988 -1.89055e-07 0)
(0.999988 -1.85962e-07 0)
(0.999988 -1.82907e-07 0)
(0.999988 -1.79887e-07 0)
(0.999988 -1.76902e-07 0)
(0.999989 -1.73949e-07 0)
(0.999989 -1.71029e-07 0)
(0.999989 -1.68141e-07 0)
(0.999989 -1.65284e-07 0)
(0.999989 -1.62458e-07 0)
(0.999989 -1.59662e-07 0)
(0.999989 -1.56897e-07 0)
(0.999989 -1.5416e-07 0)
(0.999989 -1.51452e-07 0)
(0.99999 -1.48771e-07 0)
(0.99999 -1.46116e-07 0)
(0.99999 -1.43486e-07 0)
(0.99999 -1.40882e-07 0)
(0.99999 -1.38304e-07 0)
(0.99999 -1.3575e-07 0)
(0.99999 -1.3322e-07 0)
(0.99999 -1.30714e-07 0)
(0.99999 -1.2823e-07 0)
(0.99999 -1.25768e-07 0)
(0.99999 -1.23328e-07 0)
(0.999991 -1.20908e-07 0)
(0.999991 -1.1851e-07 0)
(0.999991 -1.16133e-07 0)
(0.999991 -1.13776e-07 0)
(0.999991 -1.1144e-07 0)
(0.999991 -1.09123e-07 0)
(0.999991 -1.06825e-07 0)
(0.999991 -1.04545e-07 0)
(0.999991 -1.02282e-07 0)
(0.999991 -1.00037e-07 0)
(0.999991 -9.7808e-08 0)
(0.999991 -9.55954e-08 0)
(0.999991 -9.33988e-08 0)
(0.999991 -9.12175e-08 0)
(0.999992 -8.90511e-08 0)
(0.999992 -8.68993e-08 0)
(0.999992 -8.47617e-08 0)
(0.999992 -8.26382e-08 0)
(0.999992 -8.05287e-08 0)
(0.999992 -7.84333e-08 0)
(0.999992 -7.63515e-08 0)
(0.999992 -7.4283e-08 0)
(0.999992 -7.2227e-08 0)
(0.999992 -7.01829e-08 0)
(0.999992 -6.815e-08 0)
(0.999992 -6.61279e-08 0)
(0.999992 -6.41163e-08 0)
(0.999992 -6.21152e-08 0)
(0.999992 -6.01247e-08 0)
(0.999992 -5.81446e-08 0)
(0.999992 -5.61747e-08 0)
(0.999992 -5.42147e-08 0)
(0.999992 -5.22638e-08 0)
(0.999992 -5.03216e-08 0)
(0.999992 -4.83876e-08 0)
(0.999992 -4.64615e-08 0)
(0.999992 -4.45432e-08 0)
(0.999993 -4.26323e-08 0)
(0.999993 -4.07287e-08 0)
(0.999993 -3.8832e-08 0)
(0.999993 -3.69416e-08 0)
(0.999993 -3.5057e-08 0)
(0.999993 -3.31777e-08 0)
(0.999993 -3.13033e-08 0)
(0.999993 -2.94336e-08 0)
(0.999993 -2.75688e-08 0)
(0.999993 -2.57089e-08 0)
(0.999993 -2.38539e-08 0)
(0.999993 -2.20037e-08 0)
(0.999993 -2.01578e-08 0)
(0.999993 -1.83157e-08 0)
(0.999993 -1.64768e-08 0)
(0.999993 -1.46404e-08 0)
(0.999993 -1.28058e-08 0)
(0.999993 -1.09729e-08 0)
(0.999993 -9.14169e-09 0)
(0.999993 -7.30595e-09 0)
(0.999993 -5.55548e-09 0)
(0.999993 -2.97769e-09 0)
(0.076075 -0.083792 0)
(0.0175409 -0.0953602 0)
(0.0886479 -0.0873763 0)
(0.125156 -0.0849056 0)
(0.159274 -0.0838984 0)
(0.191946 -0.0826994 0)
(0.224756 -0.0812268 0)
(0.257139 -0.079553 0)
(0.288742 -0.0777138 0)
(0.319548 -0.0757317 0)
(0.349523 -0.0736301 0)
(0.378619 -0.0714322 0)
(0.406802 -0.0691602 0)
(0.434048 -0.066835 0)
(0.46034 -0.0644761 0)
(0.48567 -0.0621009 0)
(0.510036 -0.0597253 0)
(0.533442 -0.0573633 0)
(0.555898 -0.055027 0)
(0.577417 -0.0527267 0)
(0.598018 -0.0504712 0)
(0.61772 -0.0482676 0)
(0.636547 -0.0461217 0)
(0.654525 -0.044038 0)
(0.671678 -0.0420199 0)
(0.688036 -0.0400699 0)
(0.703626 -0.0381894 0)
(0.718477 -0.0363793 0)
(0.732618 -0.0346398 0)
(0.746077 -0.0329705 0)
(0.758883 -0.0313706 0)
(0.771063 -0.0298391 0)
(0.782646 -0.0283745 0)
(0.793657 -0.0269752 0)
(0.804122 -0.0256393 0)
(0.814067 -0.0243648 0)
(0.823516 -0.0231497 0)
(0.832493 -0.021992 0)
(0.841019 -0.0208894 0)
(0.849116 -0.0198398 0)
(0.856806 -0.018841 0)
(0.864108 -0.0178909 0)
(0.871041 -0.0169874 0)
(0.877623 -0.0161285 0)
(0.883872 -0.0153121 0)
(0.889805 -0.0145362 0)
(0.895436 -0.013799 0)
(0.900782 -0.0130986 0)
(0.905856 -0.0124333 0)
(0.910672 -0.0118014 0)
(0.915243 -0.0112012 0)
(0.919582 -0.0106311 0)
(0.9237 -0.0100897 0)
(0.927608 -0.00957547 0)
(0.931316 -0.0090871 0)
(0.934836 -0.00862327 0)
(0.938175 -0.00818271 0)
(0.941344 -0.00776425 0)
(0.944351 -0.00736677 0)
(0.947203 -0.00698921 0)
(0.94991 -0.00663055 0)
(0.952477 -0.00628985 0)
(0.954912 -0.00596622 0)
(0.957222 -0.00565881 0)
(0.959413 -0.00536681 0)
(0.961491 -0.00508949 0)
(0.963461 -0.00482613 0)
(0.965329 -0.00457605 0)
(0.9671 -0.00433862 0)
(0.968779 -0.00411321 0)
(0.970371 -0.00389926 0)
(0.97188 -0.00369621 0)
(0.97331 -0.00350353 0)
(0.974666 -0.00332069 0)
(0.97595 -0.00314723 0)
(0.977168 -0.00298267 0)
(0.978322 -0.00282657 0)
(0.979416 -0.0026785 0)
(0.980452 -0.00253805 0)
(0.981434 -0.00240485 0)
(0.982364 -0.00227852 0)
(0.983245 -0.00215872 0)
(0.98408 -0.00204512 0)
(0.984871 -0.0019374 0)
(0.98562 -0.00183528 0)
(0.98633 -0.00173846 0)
(0.987002 -0.00164669 0)
(0.987639 -0.00155971 0)
(0.988242 -0.00147728 0)
(0.988814 -0.00139918 0)
(0.989355 -0.00132518 0)
(0.989867 -0.00125508 0)
(0.990352 -0.00118869 0)
(0.990812 -0.00112582 0)
(0.991247 -0.00106629 0)
(0.991659 -0.00100993 0)
(0.99205 -0.000956579 0)
(0.99242 -0.000906083 0)
(0.99277 -0.000858295 0)
(0.993102 -0.000813075 0)
(0.993416 -0.000770291 0)
(0.993714 -0.000729815 0)
(0.993996 -0.000691527 0)
(0.994264 -0.000655312 0)
(0.994517 -0.000621061 0)
(0.994758 -0.000588671 0)
(0.994985 -0.000558042 0)
(0.995201 -0.000529081 0)
(0.995406 -0.000501699 0)
(0.9956 -0.000475812 0)
(0.995784 -0.000451339 0)
(0.995959 -0.000428204 0)
(0.996124 -0.000406335 0)
(0.996282 -0.000385664 0)
(0.996431 -0.000366125 0)
(0.996573 -0.000347656 0)
(0.996707 -0.0003302 0)
(0.996835 -0.0003137 0)
(0.996957 -0.000298104 0)
(0.997072 -0.000283362 0)
(0.997182 -0.000269426 0)
(0.997286 -0.000256253 0)
(0.997386 -0.000243799 0)
(0.99748 -0.000232025 0)
(0.99757 -0.000220892 0)
(0.997656 -0.000210365 0)
(0.997738 -0.000200409 0)
(0.997815 -0.000190993 0)
(0.997889 -0.000182087 0)
(0.99796 -0.000173661 0)
(0.998028 -0.000165689 0)
(0.998092 -0.000158146 0)
(0.998153 -0.000151007 0)
(0.998212 -0.000144249 0)
(0.998268 -0.000137852 0)
(0.998322 -0.000131795 0)
(0.998373 -0.00012606 0)
(0.998422 -0.000120627 0)
(0.998469 -0.000115482 0)
(0.998514 -0.000110607 0)
(0.998557 -0.000105988 0)
(0.998598 -0.000101612 0)
(0.998638 -9.74635e-05 0)
(0.998676 -9.35318e-05 0)
(0.998713 -8.98047e-05 0)
(0.998748 -8.62713e-05 0)
(0.998781 -8.29212e-05 0)
(0.998814 -7.97447e-05 0)
(0.998845 -7.67326e-05 0)
(0.998875 -7.38762e-05 0)
(0.998904 -7.11673e-05 0)
(0.998931 -6.85984e-05 0)
(0.998958 -6.61621e-05 0)
(0.998984 -6.38515e-05 0)
(0.999009 -6.16602e-05 0)
(0.999033 -5.9582e-05 0)
(0.999057 -5.76112e-05 0)
(0.999079 -5.57421e-05 0)
(0.999101 -5.39695e-05 0)
(0.999122 -5.22886e-05 0)
(0.999143 -5.06946e-05 0)
(0.999163 -4.9183e-05 0)
(0.999182 -4.77495e-05 0)
(0.999201 -4.63901e-05 0)
(0.999219 -4.51008e-05 0)
(0.999237 -4.3878e-05 0)
(0.999254 -4.27182e-05 0)
(0.999271 -4.16179e-05 0)
(0.999287 -4.05738e-05 0)
(0.999303 -3.95829e-05 0)
(0.999319 -3.86422e-05 0)
(0.999334 -3.77489e-05 0)
(0.999349 -3.69001e-05 0)
(0.999363 -3.60932e-05 0)
(0.999378 -3.53256e-05 0)
(0.999392 -3.4595e-05 0)
(0.999405 -3.38989e-05 0)
(0.999419 -3.32351e-05 0)
(0.999432 -3.26013e-05 0)
(0.999445 -3.19954e-05 0)
(0.999457 -3.14154e-05 0)
(0.99947 -3.08593e-05 0)
(0.999482 -3.03252e-05 0)
(0.999494 -2.98112e-05 0)
(0.999506 -2.93155e-05 0)
(0.999517 -2.88364e-05 0)
(0.999529 -2.83723e-05 0)
(0.99954 -2.79215e-05 0)
(0.999551 -2.74825e-05 0)
(0.999562 -2.70538e-05 0)
(0.999573 -2.6634e-05 0)
(0.999583 -2.62217e-05 0)
(0.999594 -2.58157e-05 0)
(0.999604 -2.54148e-05 0)
(0.999614 -2.50178e-05 0)
(0.999624 -2.46235e-05 0)
(0.999634 -2.42312e-05 0)
(0.999643 -2.38397e-05 0)
(0.999653 -2.34484e-05 0)
(0.999662 -2.30565e-05 0)
(0.999671 -2.26632e-05 0)
(0.99968 -2.22682e-05 0)
(0.999689 -2.18709e-05 0)
(0.999698 -2.14709e-05 0)
(0.999706 -2.10681e-05 0)
(0.999715 -2.06622e-05 0)
(0.999723 -2.02532e-05 0)
(0.999731 -1.98411e-05 0)
(0.999739 -1.94259e-05 0)
(0.999746 -1.9008e-05 0)
(0.999754 -1.85875e-05 0)
(0.999761 -1.81648e-05 0)
(0.999768 -1.77403e-05 0)
(0.999775 -1.73144e-05 0)
(0.999782 -1.68877e-05 0)
(0.999789 -1.64606e-05 0)
(0.999795 -1.60337e-05 0)
(0.999802 -1.56076e-05 0)
(0.999808 -1.51829e-05 0)
(0.999814 -1.47603e-05 0)
(0.99982 -1.43402e-05 0)
(0.999825 -1.39234e-05 0)
(0.999831 -1.35103e-05 0)
(0.999836 -1.31015e-05 0)
(0.999841 -1.26976e-05 0)
(0.999846 -1.2299e-05 0)
(0.999851 -1.19063e-05 0)
(0.999856 -1.15197e-05 0)
(0.99986 -1.11398e-05 0)
(0.999865 -1.07669e-05 0)
(0.999869 -1.04013e-05 0)
(0.999873 -1.00433e-05 0)
(0.999877 -9.69321e-06 0)
(0.999881 -9.35127e-06 0)
(0.999884 -9.01775e-06 0)
(0.999888 -8.69286e-06 0)
(0.999891 -8.3768e-06 0)
(0.999895 -8.06973e-06 0)
(0.999898 -7.77179e-06 0)
(0.999901 -7.48307e-06 0)
(0.999904 -7.20362e-06 0)
(0.999907 -6.93344e-06 0)
(0.999909 -6.67245e-06 0)