/*--------------------------------*- C++ -*----------------------------------*\
| =========                 |                                                 |
| \\      /  F ield         | OpenFOAM: The Open Source CFD Toolbox           |
|  \\    /   O peration     | Version:  v2006                                 |
|   \\  /    A nd           | Website:  www.openfoam.com                      |
|    \\/     M anipulation  |                                                 |
\*---------------------------------------------------------------------------*/
FoamFile
{
    version     2.0;
    format      ascii;
    class       volScalarField;
    location    "8.4";
    object      p_rgh;
}
// * * * * * * * * * * * * * * * * * * * * * * * * * * * * * * * * * * * * * //

dimensions      [1 -1 -2 0 0 0 0];


internalField   nonuniform List<scalar> 
50000
(
2757.47
2757.21
2756.68
2755.88
2754.82
2753.5
2751.92
2750.09
2748.01
2745.68
2743.11
2740.31
2737.28
2734.02
2730.55
2726.87
2722.99
2718.92
2714.66
2710.23
2705.64
2700.89
2695.99
2690.96
2685.81
2680.55
2675.18
2669.73
2664.2
2658.61
2652.97
2647.29
2641.59
2635.87
2630.15
2624.45
2618.77
2613.14
2607.56
2602.04
2596.61
2591.27
2586.04
2580.94
2575.96
2571.14
2566.47
2561.98
2557.67
2553.55
2549.65
2545.96
2542.51
2539.31
2536.36
2533.68
2531.26
2529.14
2527.3
2525.77
2524.54
2523.64
2523.05
2522.8
2522.89
2523.31
2524.09
2525.21
2526.7
2528.54
2530.74
2533.31
2536.25
2539.56
2543.24
2547.29
2551.7
2556.48
2561.61
2567.1
2572.95
2579.15
2585.7
2592.58
2599.79
2607.34
2615.2
2623.38
2631.85
2640.63
2649.69
2659.03
2668.63
2678.49
2688.59
2698.93
2709.48
2720.24
2731.19
2742.32
2753.61
2765.05
2776.63
2788.32
2800.11
2812
2823.95
2835.97
2848.02
2860.09
2872.17
2884.24
2896.28
2908.28
2920.21
2932.06
2943.82
2955.46
2966.97
2978.32
2989.52
3000.52
3011.33
3021.91
3032.27
3042.37
3052.2
3061.76
3071.01
3079.96
3088.58
3096.86
3104.79
3112.35
3119.53
3126.33
3132.72
3138.71
3144.27
3149.4
3154.09
3158.34
3162.13
3165.46
3168.32
3170.72
3172.62
3174.06
3175.03
3175.55
2757.97
2757.71
2757.17
2756.37
2755.3
2753.98
2752.39
2750.56
2748.47
2746.13
2743.55
2740.74
2737.69
2734.43
2730.94
2727.25
2723.35
2719.26
2714.99
2710.54
2705.93
2701.16
2696.24
2691.19
2686.02
2680.74
2675.35
2669.88
2664.33
2658.71
2653.04
2647.34
2641.61
2635.87
2630.12
2624.4
2618.69
2613.03
2607.43
2601.89
2596.43
2591.07
2585.82
2580.68
2575.68
2570.83
2566.14
2561.63
2557.3
2553.16
2549.24
2545.54
2542.07
2538.84
2535.87
2533.17
2530.73
2528.59
2526.74
2525.19
2523.95
2523.02
2522.43
2522.16
2522.24
2522.65
2523.42
2524.54
2526.01
2527.85
2530.05
2532.61
2535.55
2538.85
2542.53
2546.59
2551.01
2555.8
2560.94
2566.44
2572.3
2578.5
2585.05
2591.94
2599.17
2606.73
2614.6
2622.79
2631.29
2640.08
2649.16
2658.52
2668.14
2678.02
2688.14
2698.5
2709.08
2719.86
2730.83
2741.99
2753.31
2764.78
2776.39
2788.11
2799.94
2811.86
2823.84
2835.89
2847.97
2860.08
2872.19
2884.29
2896.37
2908.4
2920.36
2932.25
2944.04
2955.71
2967.25
2978.64
2989.86
3000.9
3011.74
3022.36
3032.74
3042.87
3052.74
3062.32
3071.61
3080.59
3089.24
3097.55
3105.5
3113.09
3120.3
3127.12
3133.54
3139.55
3145.13
3150.29
3155
3159.26
3163.07
3166.42
3169.3
3171.71
3173.65
3175.12
3176.07
3176.55
2758.97
2758.7
2758.16
2757.36
2756.28
2754.95
2753.35
2751.5
2749.39
2747.04
2744.44
2741.6
2738.53
2735.24
2731.73
2728
2724.08
2719.96
2715.65
2711.16
2706.51
2701.71
2696.75
2691.66
2686.45
2681.12
2675.69
2670.17
2664.57
2658.91
2653.19
2647.44
2641.66
2635.87
2630.07
2624.29
2618.54
2612.83
2607.17
2601.58
2596.07
2590.66
2585.35
2580.17
2575.12
2570.22
2565.48
2560.92
2556.54
2552.36
2548.39
2544.65
2541.14
2537.87
2534.86
2532.12
2529.65
2527.47
2525.58
2524
2522.73
2521.79
2521.16
2520.88
2520.93
2521.33
2522.08
2523.18
2524.64
2526.47
2528.66
2531.21
2534.13
2537.42
2541.13
2545.2
2549.63
2554.42
2559.58
2565.09
2570.97
2577.19
2583.76
2590.67
2597.93
2605.51
2613.41
2621.63
2630.16
2638.99
2648.11
2657.5
2667.17
2677.09
2687.26
2697.66
2708.29
2719.12
2730.15
2741.36
2752.74
2764.26
2775.93
2787.71
2799.6
2811.58
2823.63
2835.74
2847.89
2860.06
2872.24
2884.41
2896.55
2908.65
2920.68
2932.63
2944.48
2956.22
2967.83
2979.28
2990.57
3001.67
3012.56
3023.24
3033.69
3043.88
3053.8
3063.44
3072.78
3081.81
3090.51
3098.87
3106.87
3114.51
3121.76
3128.62
3135.08
3141.12
3146.74
3151.92
3156.67
3160.96
3164.79
3168.16
3171.06
3173.49
3175.43
3176.9
3177.85
3178.35
2760.48
2760.21
2759.66
2758.85
2757.76
2756.41
2754.79
2752.92
2750.79
2748.4
2745.78
2742.9
2739.8
2736.47
2732.91
2729.14
2725.17
2721
2716.64
2712.1
2707.39
2702.53
2697.51
2692.36
2687.08
2681.69
2676.19
2670.6
2664.93
2659.2
2653.41
2647.58
2641.73
2635.86
2629.99
2624.13
2618.3
2612.51
2606.78
2601.11
2595.52
2590.03
2584.65
2579.39
2574.27
2569.3
2564.49
2559.85
2555.4
2551.16
2547.12
2543.31
2539.74
2536.41
2533.34
2530.54
2528.02
2525.79
2523.86
2522.23
2520.92
2519.93
2519.27
2518.95
2518.97
2519.34
2520.07
2521.15
2522.6
2524.41
2526.59
2529.15
2532.09
2535.43
2539.1
2543.15
2547.57
2552.37
2557.54
2563.07
2568.97
2575.22
2581.82
2588.76
2596.05
2603.67
2611.62
2619.89
2628.47
2637.35
2646.52
2655.98
2665.71
2675.69
2685.93
2696.4
2707.1
2718.01
2729.11
2740.4
2751.86
2763.47
2775.22
2787.1
2799.08
2811.15
2823.3
2835.5
2847.75
2860.02
2872.3
2884.57
2896.81
2909.01
2921.14
2933.2
2945.15
2956.99
2968.69
2980.25
2991.63
3002.83
3013.82
3024.59
3035.13
3045.41
3055.42
3065.14
3074.57
3083.67
3092.45
3100.88
3108.96
3116.66
3123.98
3130.9
3137.41
3143.51
3149.18
3154.41
3159.19
3163.52
3167.38
3170.78
3173.71
3176.15
3178.11
3179.59
3180.56
3181.07
2762.5
2762.23
2761.67
2760.84
2759.74
2758.37
2756.73
2754.82
2752.66
2750.24
2747.57
2744.65
2741.5
2738.11
2734.5
2730.67
2726.63
2722.4
2717.97
2713.36
2708.58
2703.63
2698.53
2693.3
2687.93
2682.45
2676.86
2671.18
2665.42
2659.59
2653.7
2647.78
2641.82
2635.85
2629.88
2623.92
2617.99
2612.1
2606.26
2600.49
2594.8
2589.21
2583.72
2578.36
2573.14
2568.07
2563.16
2558.43
2553.89
2549.55
2545.42
2541.53
2537.87
2534.46
2531.31
2528.44
2525.85
2523.54
2521.55
2519.86
2518.49
2517.44
2516.73
2516.36
2516.34
2516.68
2517.37
2518.42
2519.84
2521.63
2523.79
2526.33
2529.24
2532.58
2536.28
2540.35
2544.8
2549.61
2554.8
2560.36
2566.28
2572.57
2579.21
2586.2
2593.54
2601.21
2609.22
2617.55
2626.2
2635.15
2644.4
2653.93
2663.74
2673.82
2684.15
2694.72
2705.51
2716.52
2727.73
2739.13
2750.7
2762.43
2774.29
2786.29
2798.39
2810.59
2822.86
2835.2
2847.57
2859.98
2872.39
2884.79
2897.17
2909.5
2921.77
2933.95
2946.04
2958.02
2969.85
2981.54
2993.05
3004.38
3015.5
3026.39
3037.05
3047.45
3057.58
3067.42
3076.96
3086.17
3095.05
3103.58
3111.75
3119.55
3126.95
3133.95
3140.54
3146.71
3152.45
3157.74
3162.58
3166.96
3170.87
3174.3
3177.26
3179.74
3181.72
3183.21
3184.19
3184.71
2765.04
2764.76
2764.2
2763.35
2762.23
2760.83
2759.16
2757.21
2755.01
2752.54
2749.82
2746.85
2743.63
2740.18
2736.5
2732.59
2728.48
2724.16
2719.64
2714.94
2710.06
2705.02
2699.82
2694.48
2689
2683.41
2677.71
2671.91
2666.03
2660.08
2654.07
2648.02
2641.94
2635.84
2629.74
2623.66
2617.59
2611.57
2605.6
2599.7
2593.89
2588.16
2582.55
2577.07
2571.72
2566.52
2561.49
2556.64
2551.98
2547.53
2543.29
2539.29
2535.52
2532.01
2528.77
2525.79
2523.11
2520.72
2518.64
2516.87
2515.43
2514.32
2513.55
2513.12
2513.04
2513.33
2513.98
2515
2516.39
2518.15
2520.3
2522.83
2525.75
2529.08
2532.78
2536.85
2541.31
2546.15
2551.37
2556.96
2562.92
2569.25
2575.94
2582.99
2590.39
2598.13
2606.21
2614.62
2623.35
2632.39
2641.73
2651.37
2661.28
2671.47
2681.91
2692.59
2703.51
2714.65
2725.99
2737.53
2749.24
2761.1
2773.12
2785.26
2797.52
2809.87
2822.3
2834.8
2847.34
2859.91
2872.48
2885.05
2897.6
2910.1
2922.54
2934.89
2947.15
2959.29
2971.29
2983.14
2994.82
3006.31
3017.59
3028.65
3039.46
3050.01
3060.29
3070.27
3079.95
3089.3
3098.31
3106.97
3115.26
3123.17
3130.68
3137.79
3144.48
3150.74
3156.55
3161.92
3166.83
3171.28
3175.25
3178.73
3181.73
3184.24
3186.25
3187.77
3188.77
3189.29
2768.12
2767.83
2767.25
2766.39
2765.24
2763.81
2762.09
2760.11
2757.85
2755.32
2752.54
2749.5
2746.21
2742.68
2738.91
2734.92
2730.71
2726.28
2721.66
2716.85
2711.86
2706.7
2701.37
2695.91
2690.3
2684.57
2678.74
2672.8
2666.77
2660.68
2654.52
2648.32
2642.09
2635.84
2629.59
2623.34
2617.12
2610.95
2604.82
2598.76
2592.79
2586.91
2581.15
2575.51
2570.01
2564.66
2559.49
2554.49
2549.69
2545.1
2540.72
2536.59
2532.69
2529.06
2525.69
2522.61
2519.81
2517.32
2515.14
2513.28
2511.74
2510.55
2509.7
2509.2
2509.06
2509.29
2509.89
2510.86
2512.22
2513.95
2516.08
2518.6
2521.55
2524.85
2528.55
2532.63
2537.1
2541.97
2547.21
2552.84
2558.85
2565.23
2571.98
2579.1
2586.57
2594.4
2602.57
2611.07
2619.9
2629.05
2638.51
2648.26
2658.31
2668.62
2679.2
2690.03
2701.1
2712.39
2723.89
2735.59
2747.47
2759.51
2771.7
2784.03
2796.47
2809.01
2821.63
2834.32
2847.06
2859.82
2872.6
2885.37
2898.12
2910.82
2923.46
2936.02
2948.48
2960.82
2973.03
2985.08
2996.95
3008.64
3020.11
3031.36
3042.36
3053.09
3063.55
3073.7
3083.55
3093.06
3102.23
3111.04
3119.48
3127.53
3135.18
3142.41
3149.22
3155.59
3161.51
3166.97
3171.97
3176.49
3180.53
3184.08
3187.14
3189.69
3191.73
3193.27
3194.29
3194.82
2771.73
2771.44
2770.85
2769.96
2768.78
2767.31
2765.55
2763.51
2761.19
2758.6
2755.74
2752.62
2749.24
2745.62
2741.75
2737.65
2733.33
2728.79
2724.04
2719.1
2713.98
2708.67
2703.21
2697.59
2691.83
2685.95
2679.95
2673.85
2667.65
2661.39
2655.06
2648.68
2642.27
2635.84
2629.4
2622.98
2616.58
2610.21
2603.9
2597.66
2591.51
2585.45
2579.5
2573.68
2568
2562.48
2557.13
2551.96
2547
2542.24
2537.71
2533.42
2529.37
2525.59
2522.09
2518.86
2515.94
2513.32
2511.02
2509.05
2507.42
2506.12
2505.18
2504.6
2504.39
2504.55
2505.09
2506.01
2507.32
2509.02
2511.11
2513.59
2516.55
2519.86
2523.56
2527.66
2532.16
2537.05
2542.33
2548.01
2554.07
2560.52
2567.34
2574.53
2582.1
2590.02
2598.29
2606.9
2615.85
2625.13
2634.72
2644.62
2654.81
2665.28
2676.02
2687.02
2698.26
2709.73
2721.42
2733.31
2745.39
2757.63
2770.03
2782.57
2795.22
2807.99
2820.83
2833.75
2846.72
2859.71
2872.73
2885.73
2898.72
2911.66
2924.54
2937.34
2950.04
2962.62
2975.06
2987.34
2999.45
3011.36
3023.06
3034.53
3045.75
3056.7
3067.36
3077.73
3087.77
3097.48
3106.84
3115.83
3124.43
3132.65
3140.45
3147.83
3154.78
3161.28
3167.33
3172.91
3178.01
3182.62
3186.74
3190.37
3193.48
3196.09
3198.18
3199.75
3200.79
3201.33
2775.91
2775.6
2774.99
2774.08
2772.86
2771.35
2769.54
2767.44
2765.05
2762.39
2759.44
2756.23
2752.75
2749.02
2745.03
2740.81
2736.36
2731.68
2726.79
2721.7
2716.42
2710.96
2705.33
2699.54
2693.6
2687.54
2681.35
2675.06
2668.67
2662.21
2655.68
2649.1
2642.49
2635.85
2629.2
2622.57
2615.95
2609.38
2602.86
2596.4
2590.03
2583.76
2577.61
2571.58
2565.7
2559.97
2554.42
2549.06
2543.9
2538.96
2534.24
2529.77
2525.55
2521.6
2517.93
2514.56
2511.48
2508.72
2506.29
2504.19
2502.43
2501.03
2499.98
2499.31
2499.01
2499.09
2499.56
2500.42
2501.68
2503.34
2505.42
2507.95
2510.83
2514.13
2517.83
2521.94
2526.46
2531.38
2536.71
2542.44
2548.56
2555.08
2561.99
2569.27
2576.93
2584.96
2593.35
2602.1
2611.18
2620.61
2630.35
2640.41
2650.77
2661.42
2672.35
2683.54
2694.98
2706.66
2718.57
2730.68
2742.98
2755.46
2768.1
2780.88
2793.78
2806.8
2819.9
2833.08
2846.31
2859.58
2872.86
2886.14
2899.4
2912.61
2925.77
2938.84
2951.82
2964.67
2977.38
2989.94
3002.31
3014.49
3026.45
3038.18
3049.65
3060.85
3071.75
3082.35
3092.63
3102.56
3112.13
3121.33
3130.13
3138.54
3146.52
3154.08
3161.19
3167.84
3174.03
3179.73
3184.95
3189.68
3193.9
3197.6
3200.79
3203.46
3205.59
3207.2
3208.27
3208.82
2780.65
2780.34
2779.71
2778.77
2777.51
2775.95
2774.08
2771.91
2769.44
2766.69
2763.65
2760.33
2756.74
2752.88
2748.77
2744.41
2739.81
2734.97
2729.93
2724.67
2719.21
2713.56
2707.74
2701.76
2695.63
2689.35
2682.96
2676.45
2669.84
2663.16
2656.4
2649.59
2642.74
2635.87
2628.98
2622.11
2615.25
2608.44
2601.68
2594.98
2588.37
2581.86
2575.47
2569.21
2563.09
2557.14
2551.36
2545.77
2540.39
2535.23
2530.31
2525.63
2521.22
2517.08
2513.23
2509.67
2506.43
2503.51
2500.92
2498.67
2496.78
2495.24
2494.08
2493.3
2492.9
2492.89
2493.28
2494.07
2495.28
2496.89
2498.92
2501.44
2504.32
2507.6
2511.31
2515.44
2519.98
2524.95
2530.32
2536.11
2542.31
2548.91
2555.91
2563.3
2571.07
2579.23
2587.75
2596.64
2605.88
2615.47
2625.39
2635.63
2646.18
2657.03
2668.17
2679.58
2691.25
2703.17
2715.32
2727.68
2740.24
2752.98
2765.89
2778.95
2792.14
2805.44
2818.84
2832.31
2845.84
2859.41
2873
2886.59
2900.16
2913.69
2927.15
2940.54
2953.82
2966.99
2980.01
2992.87
3005.55
3018.03
3030.29
3042.31
3054.07
3065.54
3076.73
3087.59
3098.13
3108.31
3118.13
3127.56
3136.6
3145.22
3153.41
3161.16
3168.45
3175.28
3181.62
3187.48
3192.83
3197.68
3202.01
3205.81
3209.09
3211.82
3214.02
3215.66
3216.76
3217.33
2785.99
2785.67
2785.02
2784.04
2782.74
2781.12
2779.18
2776.94
2774.38
2771.53
2768.38
2764.94
2761.22
2757.23
2752.97
2748.45
2743.69
2738.68
2733.45
2728
2722.35
2716.5
2710.47
2704.26
2697.9
2691.4
2684.77
2678.02
2671.17
2664.23
2657.22
2650.15
2643.04
2635.9
2628.75
2621.61
2614.48
2607.4
2600.36
2593.4
2586.52
2579.74
2573.08
2566.55
2560.17
2553.96
2547.93
2542.09
2536.47
2531.07
2525.91
2521
2516.36
2512.01
2507.95
2504.19
2500.76
2497.65
2494.89
2492.48
2490.44
2488.76
2487.46
2486.56
2486.04
2485.93
2486.24
2486.95
2488.09
2489.66
2491.68
2494.14
2497
2500.28
2503.99
2508.14
2512.72
2517.72
2523.16
2529.01
2535.29
2541.98
2549.08
2556.58
2564.49
2572.78
2581.46
2590.51
2599.92
2609.69
2619.81
2630.25
2641.02
2652.1
2663.47
2675.13
2687.06
2699.24
2711.66
2724.3
2737.15
2750.19
2763.4
2776.77
2790.28
2803.9
2817.63
2831.43
2845.3
2859.21
2873.14
2887.08
2900.99
2914.87
2928.69
2942.43
2956.06
2969.57
2982.94
2996.15
3009.17
3021.99
3034.58
3046.93
3059.01
3070.8
3082.29
3093.46
3104.29
3114.76
3124.85
3134.55
3143.84
3152.7
3161.13
3169.09
3176.6
3183.62
3190.14
3196.17
3201.67
3206.66
3211.11
3215.03
3218.39
3221.21
3223.46
3225.16
3226.28
3226.87
2791.95
2791.61
2790.93
2789.92
2788.56
2786.88
2784.87
2782.54
2779.89
2776.93
2773.66
2770.09
2766.23
2762.08
2757.66
2752.97
2748.02
2742.82
2737.39
2731.73
2725.85
2719.78
2713.51
2707.06
2700.45
2693.7
2686.8
2679.78
2672.66
2665.44
2658.14
2650.79
2643.38
2635.95
2628.51
2621.06
2613.64
2606.25
2598.92
2591.65
2584.47
2577.39
2570.43
2563.61
2556.94
2550.44
2544.12
2538.01
2532.11
2526.44
2521.02
2515.86
2510.97
2506.38
2502.08
2498.11
2494.46
2491.15
2488.2
2485.6
2483.39
2481.55
2480.1
2479.06
2478.42
2478.2
2478.4
2479.03
2480.1
2481.61
2483.64
2486.03
2488.86
2492.13
2495.86
2500.02
2504.63
2509.69
2515.18
2521.11
2527.48
2534.27
2541.48
2549.12
2557.16
2565.61
2574.45
2583.68
2593.29
2603.26
2613.59
2624.27
2635.28
2646.6
2658.24
2670.17
2682.38
2694.85
2707.57
2720.53
2733.7
2747.07
2760.62
2774.33
2788.19
2802.17
2816.26
2830.44
2844.68
2858.97
2873.28
2887.6
2901.9
2916.17
2930.38
2944.5
2958.53
2972.43
2986.19
2999.78
3013.18
3026.37
3039.34
3052.05
3064.49
3076.64
3088.47
3099.98
3111.13
3121.92
3132.32
3142.31
3151.88
3161.02
3169.7
3177.91
3185.64
3192.88
3199.61
3205.82
3211.5
3216.64
3221.23
3225.27
3228.74
3231.64
3233.96
3235.71
3236.87
3237.47
2798.54
2798.19
2797.48
2796.43
2795.02
2793.27
2791.17
2788.75
2785.99
2782.9
2779.5
2775.79
2771.77
2767.45
2762.85
2757.97
2752.81
2747.41
2741.75
2735.86
2729.74
2723.41
2716.89
2710.17
2703.29
2696.25
2689.06
2681.75
2674.32
2666.79
2659.18
2651.51
2643.78
2636.03
2628.25
2620.48
2612.72
2605
2597.34
2589.74
2582.22
2574.82
2567.53
2560.38
2553.39
2546.57
2539.94
2533.51
2527.31
2521.34
2515.63
2510.19
2505.03
2500.17
2495.62
2491.4
2487.51
2483.98
2480.81
2478.02
2475.61
2473.59
2471.98
2470.79
2470.02
2469.67
2469.76
2470.29
2471.28
2472.78
2474.71
2477.07
2479.87
2483.14
2486.87
2491.06
2495.71
2500.81
2506.37
2512.39
2518.85
2525.75
2533.09
2540.87
2549.07
2557.69
2566.71
2576.14
2585.96
2596.15
2606.72
2617.65
2628.92
2640.52
2652.45
2664.68
2677.2
2689.99
2703.05
2716.34
2729.87
2743.6
2757.52
2771.61
2785.86
2800.24
2814.73
2829.31
2843.97
2858.67
2873.41
2888.15
2902.89
2917.58
2932.22
2946.77
2961.23
2975.56
2989.74
3003.76
3017.58
3031.19
3044.56
3057.68
3070.52
3083.06
3095.27
3107.15
3118.67
3129.8
3140.54
3150.86
3160.75
3170.18
3179.15
3187.64
3195.63
3203.1
3210.05
3216.47
3222.34
3227.65
3232.39
3236.56
3240.15
3243.15
3245.55
3247.36
3248.56
3249.18
2805.79
2805.42
2804.69
2803.59
2802.12
2800.29
2798.11
2795.57
2792.7
2789.48
2785.93
2782.06
2777.87
2773.37
2768.56
2763.47
2758.1
2752.46
2746.56
2740.41
2734.03
2727.43
2720.61
2713.61
2706.42
2699.07
2691.56
2683.92
2676.16
2668.3
2660.35
2652.32
2644.25
2636.13
2628
2619.86
2611.74
2603.66
2595.62
2587.66
2579.78
2572.01
2564.36
2556.85
2549.5
2542.33
2535.35
2528.59
2522.05
2515.76
2509.73
2503.97
2498.51
2493.36
2488.53
2484.04
2479.9
2476.12
2472.71
2469.7
2467.08
2464.87
2463.08
2461.72
2460.79
2460.31
2460.28
2460.7
2461.56
2463.05
2464.92
2467.22
2470.01
2473.27
2477.01
2481.22
2485.91
2491.07
2496.7
2502.81
2509.37
2516.4
2523.88
2531.81
2540.18
2548.98
2558.21
2567.85
2577.9
2588.35
2599.17
2610.37
2621.93
2633.84
2646.07
2658.63
2671.49
2684.64
2698.06
2711.73
2725.64
2739.77
2754.1
2768.61
2783.28
2798.09
2813.02
2828.05
2843.16
2858.32
2873.52
2888.73
2903.93
2919.1
2934.21
2949.24
2964.17
2978.97
2993.62
3008.1
3022.39
3036.45
3050.28
3063.84
3077.11
3090.08
3102.72
3115
3126.92
3138.44
3149.55
3160.23
3170.47
3180.23
3189.51
3198.3
3206.57
3214.31
3221.51
3228.15
3234.23
3239.73
3244.64
3248.96
3252.67
3255.77
3258.26
3260.13
3261.38
3262.02
2813.73
2813.35
2812.58
2811.43
2809.89
2807.98
2805.7
2803.05
2800.05
2796.69
2792.98
2788.93
2784.55
2779.85
2774.83
2769.51
2763.89
2758
2751.83
2745.41
2738.73
2731.83
2724.71
2717.38
2709.86
2702.17
2694.32
2686.32
2678.2
2669.97
2661.64
2653.24
2644.77
2636.27
2627.74
2619.21
2610.69
2602.21
2593.77
2585.41
2577.13
2568.96
2560.92
2553.02
2545.28
2537.72
2530.37
2523.23
2516.33
2509.68
2503.3
2497.2
2491.41
2485.94
2480.8
2476.01
2471.59
2467.54
2463.87
2460.61
2457.77
2455.35
2453.36
2451.82
2450.73
2450.1
2449.95
2450.29
2451.21
2452.47
2454.23
2456.49
2459.25
2462.49
2466.24
2470.48
2475.21
2480.43
2486.14
2492.35
2499.03
2506.19
2513.82
2521.92
2530.47
2539.48
2548.92
2558.8
2569.1
2579.81
2590.92
2602.41
2614.28
2626.51
2639.09
2652.01
2665.24
2678.77
2692.58
2706.67
2721
2735.56
2750.33
2765.3
2780.43
2795.71
2811.12
2826.64
2842.24
2857.91
2873.61
2889.33
2905.04
2920.72
2936.35
2951.9
2967.34
2982.66
2997.82
3012.81
3027.6
3042.17
3056.49
3070.54
3084.29
3097.73
3110.82
3123.56
3135.91
3147.85
3159.37
3170.45
3181.06
3191.19
3200.81
3209.92
3218.5
3226.53
3234
3240.89
3247.19
3252.9
3258
3262.48
3266.33
3269.55
3272.13
3274.08
3275.37
3276.04
2822.39
2822
2821.19
2819.98
2818.37
2816.37
2813.98
2811.21
2808.06
2804.55
2800.66
2796.43
2791.84
2786.92
2781.67
2776.1
2770.22
2764.05
2757.59
2750.86
2743.88
2736.65
2729.19
2721.51
2713.64
2705.58
2697.35
2688.97
2680.45
2671.81
2663.08
2654.26
2645.38
2636.45
2627.5
2618.53
2609.58
2600.66
2591.79
2582.99
2574.27
2565.67
2557.2
2548.87
2540.71
2532.74
2524.97
2517.42
2510.12
2503.08
2496.32
2489.86
2483.71
2477.89
2472.41
2467.3
2462.56
2458.21
2454.27
2450.75
2447.65
2445
2442.79
2441.05
2439.79
2439
2438.69
2438.85
2439.68
2440.9
2442.6
2444.81
2447.53
2450.77
2454.52
2458.79
2463.57
2468.86
2474.66
2480.97
2487.78
2495.08
2502.87
2511.15
2519.91
2529.13
2538.81
2548.94
2559.51
2570.51
2581.92
2593.74
2605.94
2618.53
2631.48
2644.78
2658.41
2672.36
2686.6
2701.13
2715.92
2730.95
2746.21
2761.66
2777.3
2793.09
2809.02
2825.07
2841.21
2857.42
2873.67
2889.94
2906.21
2922.45
2938.64
2954.75
2970.75
2986.63
3002.36
3017.9
3033.24
3048.36
3063.21
3077.79
3092.07
3106.02
3119.61
3132.83
3145.66
3158.06
3170.03
3181.53
3192.56
3203.08
3213.08
3222.55
3231.46
3239.81
3247.57
3254.73
3261.29
3267.22
3272.52
3277.17
3281.18
3284.53
3287.21
3289.23
3290.57
3291.27
2831.81
2831.39
2830.55
2829.28
2827.59
2825.49
2822.99
2820.08
2816.78
2813.09
2809.02
2804.58
2799.77
2794.61
2789.11
2783.27
2777.11
2770.63
2763.86
2756.81
2749.48
2741.9
2734.08
2726.02
2717.76
2709.3
2700.66
2691.86
2682.92
2673.85
2664.67
2655.4
2646.07
2636.68
2627.26
2617.83
2608.41
2599.01
2589.67
2580.4
2571.21
2562.14
2553.19
2544.4
2535.78
2527.35
2519.14
2511.15
2503.42
2495.95
2488.78
2481.91
2475.37
2469.17
2463.33
2457.86
2452.79
2448.12
2443.87
2440.06
2436.69
2433.79
2431.35
2429.4
2427.94
2426.99
2426.56
2426.77
2427.3
2428.38
2430
2432.15
2434.84
2438.07
2441.83
2446.12
2450.95
2456.32
2462.21
2468.63
2475.57
2483.03
2491
2499.48
2508.45
2517.9
2527.84
2538.24
2549.1
2560.41
2572.15
2584.32
2596.89
2609.86
2623.21
2636.92
2650.98
2665.38
2680.09
2695.1
2710.38
2725.92
2741.69
2757.68
2773.86
2790.21
2806.71
2823.33
2840.05
2856.84
2873.68
2890.56
2907.43
2924.28
2941.07
2957.79
2974.41
2990.9
3007.23
3023.38
3039.32
3055.02
3070.46
3085.62
3100.46
3114.96
3129.1
3142.86
3156.2
3169.1
3181.55
3193.52
3205
3215.95
3226.36
3236.21
3245.49
3254.18
3262.26
3269.72
3276.54
3282.72
3288.23
3293.08
3297.26
3300.74
3303.54
3305.64
3307.04
3307.76
2842.02
2841.58
2840.7
2839.36
2837.59
2835.38
2832.75
2829.69
2826.23
2822.35
2818.08
2813.42
2808.37
2802.95
2797.17
2791.04
2784.58
2777.78
2770.68
2763.27
2755.58
2747.61
2739.39
2730.93
2722.25
2713.36
2704.28
2695.03
2685.63
2676.09
2666.43
2656.68
2646.85
2636.96
2627.04
2617.11
2607.18
2597.27
2587.42
2577.63
2567.93
2558.35
2548.9
2539.6
2530.49
2521.56
2512.86
2504.4
2496.2
2488.27
2480.65
2473.35
2466.38
2459.77
2453.53
2447.68
2442.25
2437.23
2432.65
2428.52
2424.86
2421.68
2418.99
2416.8
2415.13
2413.99
2413.42
2413.4
2413.85
2414.84
2416.38
2418.48
2421.13
2424.34
2428.11
2432.44
2437.33
2442.77
2448.76
2455.3
2462.39
2470.01
2478.17
2486.86
2496.06
2505.77
2515.98
2526.67
2537.85
2549.49
2561.58
2574.12
2587.09
2600.46
2614.24
2628.39
2642.92
2657.8
2673.02
2688.55
2704.37
2720.45
2736.78
2753.33
2770.1
2787.05
2804.15
2821.39
2838.74
2856.16
2873.65
2891.17
2908.69
2926.2
2943.65
2961.03
2978.31
2995.46
3012.44
3029.24
3045.83
3062.18
3078.25
3094.03
3109.49
3124.59
3139.32
3153.65
3167.55
3181
3193.97
3206.45
3218.41
3229.82
3240.68
3250.95
3260.63
3269.69
3278.11
3285.89
3293.01
3299.45
3305.2
3310.26
3314.61
3318.25
3321.16
3323.35
3324.81
3325.57
2853.05
2852.59
2851.67
2850.26
2848.39
2846.07
2843.3
2840.09
2836.44
2832.37
2827.88
2822.97
2817.67
2811.98
2805.9
2799.46
2792.66
2785.52
2778.05
2770.27
2762.18
2753.81
2745.16
2736.27
2727.13
2717.78
2708.22
2698.49
2688.59
2678.54
2668.37
2658.1
2647.74
2637.32
2626.85
2616.37
2605.89
2595.44
2585.03
2574.69
2564.44
2554.31
2544.31
2534.47
2524.81
2515.36
2506.13
2497.15
2488.44
2480.02
2471.91
2464.13
2456.71
2449.65
2442.99
2436.73
2430.9
2425.5
2420.57
2416.1
2412.12
2408.64
2405.67
2403.23
2401.33
2399.97
2399.29
2399.05
2399.37
2400.25
2401.7
2403.74
2406.35
2409.55
2413.33
2417.69
2422.64
2428.16
2434.26
2440.94
2448.18
2455.98
2464.34
2473.25
2482.7
2492.68
2503.18
2514.19
2525.71
2537.7
2550.18
2563.12
2576.49
2590.31
2604.54
2619.17
2634.2
2649.59
2665.38
2681.47
2697.86
2714.52
2731.43
2748.56
2766
2783.59
2801.35
2819.25
2837.27
2855.38
2873.55
2891.77
2910
2928.21
2946.37
2964.46
2982.45
3000.31
3018.01
3035.51
3052.8
3069.84
3086.6
3103.05
3119.17
3134.93
3150.29
3165.24
3179.75
3193.78
3207.33
3220.35
3232.83
3244.75
3256.09
3266.81
3276.92
3286.38
3295.18
3303.3
3310.73
3317.46
3323.47
3328.75
3333.3
3337.1
3340.14
3342.43
3343.96
3344.75
2864.96
2864.48
2863.5
2862.02
2860.05
2857.6
2854.68
2851.3
2847.46
2843.18
2838.45
2833.29
2827.71
2821.72
2815.33
2808.55
2801.4
2793.89
2786.03
2777.83
2769.32
2760.51
2751.41
2742.05
2732.43
2722.58
2712.51
2702.25
2691.82
2681.23
2670.51
2659.67
2648.74
2637.74
2626.7
2615.63
2604.56
2593.51
2582.51
2571.57
2560.73
2550
2539.41
2528.99
2518.75
2508.72
2498.92
2489.39
2480.13
2471.17
2462.54
2454.25
2446.33
2438.8
2431.67
2424.96
2418.7
2412.9
2407.58
2402.75
2398.43
2394.63
2391.36
2388.65
2386.5
2385.03
2384.05
2383.63
2383.8
2384.56
2385.93
2387.89
2390.47
2393.65
2397.44
2401.84
2406.85
2412.46
2418.68
2425.49
2432.9
2440.89
2449.47
2458.62
2468.33
2478.6
2489.42
2500.76
2512.64
2525.02
2537.9
2551.26
2565.09
2579.37
2594.09
2609.24
2624.89
2640.9
2657.21
2673.86
2690.85
2708.14
2725.72
2743.58
2761.59
2779.84
2798.27
2816.88
2835.62
2854.46
2873.38
2892.35
2911.33
2930.3
2949.23
2968.09
2986.84
3005.47
3023.93
3042.2
3060.24
3078.02
3095.52
3112.7
3129.54
3146
3162.05
3177.67
3192.83
3207.49
3221.65
3235.26
3248.31
3260.77
3272.62
3283.84
3294.4
3304.3
3313.5
3322
3329.77
3336.81
3343.1
3348.62
3353.38
3357.35
3360.54
3362.93
3364.53
3365.35
2877.78
2877.27
2876.24
2874.69
2872.6
2870.02
2866.94
2863.38
2859.33
2854.81
2849.83
2844.4
2838.52
2832.21
2825.49
2818.35
2810.82
2802.91
2794.63
2786
2777.04
2767.75
2758.17
2748.3
2738.16
2727.78
2717.17
2706.35
2695.34
2684.17
2672.85
2661.41
2649.87
2638.26
2626.59
2614.89
2603.18
2591.5
2579.85
2568.27
2556.79
2545.42
2534.2
2523.14
2512.28
2501.63
2491.23
2481.09
2471.24
2461.7
2452.51
2443.67
2435.21
2427.16
2419.54
2412.35
2405.63
2399.4
2393.66
2388.44
2383.75
2379.6
2376.01
2372.98
2370.49
2368.86
2367.68
2367.09
2367.11
2367.74
2369
2370.9
2373.42
2376.59
2380.39
2384.83
2389.9
2395.61
2401.95
2408.91
2416.49
2424.69
2433.5
2442.91
2452.9
2463.48
2474.63
2486.34
2498.6
2511.38
2524.7
2538.51
2552.82
2567.6
2582.89
2598.7
2614.83
2631.38
2648.3
2665.59
2683.23
2701.18
2719.44
2737.97
2756.74
2775.73
2794.92
2814.27
2833.77
2853.4
2873.12
2892.89
2912.68
2932.47
2952.22
2971.9
2991.48
3010.93
3030.21
3049.3
3068.15
3086.74
3105.03
3123
3140.61
3157.82
3174.61
3190.95
3206.81
3222.16
3236.98
3251.23
3264.89
3277.93
3290.34
3302.08
3313.14
3323.5
3333.14
3342.04
3350.18
3357.55
3364.13
3369.92
3374.9
3379.07
3382.4
3384.91
3386.58
3387.45
2891.56
2891.03
2889.95
2888.3
2886.1
2883.37
2880.12
2876.35
2872.09
2867.32
2862.07
2856.34
2850.15
2843.5
2836.41
2828.89
2820.96
2812.62
2803.9
2794.8
2785.36
2775.57
2765.46
2755.06
2744.37
2733.41
2722.22
2710.8
2699.18
2687.38
2675.43
2663.35
2651.15
2638.87
2626.53
2614.15
2601.77
2589.4
2577.06
2564.8
2552.63
2540.57
2528.67
2516.93
2505.39
2494.08
2483.02
2472.23
2461.75
2451.59
2441.79
2432.36
2423.33
2414.72
2406.56
2398.86
2391.65
2384.94
2378.75
2373.11
2368.02
2363.51
2359.59
2356.31
2353.81
2351.66
2350.2
2349.39
2349.23
2349.72
2350.87
2352.69
2355.17
2358.31
2362.12
2366.6
2371.75
2377.56
2384.03
2391.15
2398.92
2407.34
2416.39
2426.07
2436.37
2447.28
2458.78
2470.87
2483.54
2496.76
2510.53
2524.83
2539.64
2554.92
2570.88
2587.21
2603.96
2621.12
2638.7
2656.66
2674.98
2693.65
2712.63
2731.9
2751.44
2771.22
2791.22
2811.4
2831.74
2852.19
2872.75
2893.38
2914.04
2934.7
2955.33
2975.9
2996.37
3016.7
3036.87
3056.83
3076.56
3096.01
3115.16
3133.97
3152.4
3170.43
3188.02
3205.14
3221.75
3237.84
3253.36
3268.29
3282.6
3296.28
3309.28
3321.59
3333.19
3344.05
3354.15
3363.48
3372.02
3379.75
3386.65
3392.72
3397.94
3402.31
3405.81
3408.44
3410.19
3411.1
2906.35
2905.79
2904.65
2902.91
2900.58
2897.69
2894.26
2890.28
2885.78
2880.75
2875.21
2869.17
2862.64
2855.63
2848.15
2840.22
2831.86
2823.07
2813.87
2804.28
2794.31
2783.99
2773.33
2762.35
2751.07
2739.51
2727.69
2715.63
2703.36
2690.89
2678.26
2665.48
2652.59
2639.6
2626.54
2613.44
2600.32
2587.21
2574.15
2561.14
2548.23
2535.44
2522.8
2510.34
2498.08
2486.05
2474.28
2462.8
2451.63
2440.8
2430.35
2420.28
2410.63
2401.43
2392.69
2384.43
2376.69
2369.48
2362.82
2356.72
2351.21
2346.3
2341.98
2338.24
2335.46
2333.14
2331.46
2330.44
2330.1
2330.44
2331.48
2333.21
2335.63
2338.76
2342.59
2347.11
2352.33
2358.25
2364.86
2372.15
2380.12
2388.77
2398.08
2408.05
2418.67
2429.93
2441.81
2454.31
2467.41
2481.1
2495.36
2510.19
2525.57
2541.61
2557.99
2574.89
2592.26
2610.09
2628.35
2647.02
2666.08
2685.5
2705.26
2725.33
2745.69
2766.3
2787.15
2808.2
2829.42
2850.78
2872.25
2893.8
2915.39
2936.99
2958.56
2980.08
3001.5
3022.78
3043.9
3064.81
3085.47
3105.85
3125.92
3145.64
3164.96
3183.86
3202.3
3220.26
3237.68
3254.55
3270.83
3286.5
3301.51
3315.86
3329.5
3342.42
3354.59
3365.99
3376.6
3386.39
3395.35
3403.46
3410.71
3417.09
3422.57
3427.15
3430.83
3433.59
3435.43
3436.38
2922.2
2921.61
2920.42
2918.58
2916.11
2913.05
2909.41
2905.21
2900.45
2895.14
2889.29
2882.92
2876.02
2868.63
2860.74
2852.38
2843.55
2834.28
2824.58
2814.46
2803.95
2793.06
2781.8
2770.21
2758.3
2746.09
2733.6
2720.86
2707.89
2694.72
2681.36
2667.85
2654.2
2640.45
2626.62
2612.75
2598.85
2584.96
2571.1
2557.31
2543.6
2530.02
2516.6
2503.35
2490.31
2477.52
2464.99
2452.76
2440.86
2429.31
2418.15
2407.4
2397.09
2387.24
2377.88
2369.04
2360.73
2352.97
2345.8
2339.22
2333.26
2327.94
2323.31
2319.54
2316.09
2313.41
2311.45
2310.2
2309.66
2309.85
2310.76
2312.4
2314.77
2317.88
2321.72
2326.29
2331.59
2337.63
2344.38
2351.86
2360.04
2368.93
2378.53
2388.81
2399.76
2411.39
2423.67
2436.6
2450.16
2464.34
2479.12
2494.48
2510.39
2527.01
2544.08
2561.64
2579.7
2598.24
2617.23
2636.65
2656.49
2676.71
2697.29
2718.21
2739.43
2760.94
2782.69
2804.67
2826.83
2849.15
2871.59
2894.13
2916.71
2939.32
2961.91
2984.44
3006.87
3029.18
3051.31
3073.23
3094.9
3116.28
3137.34
3158.02
3178.3
3198.14
3217.5
3236.34
3254.64
3272.35
3289.45
3305.9
3321.67
3336.74
3351.07
3364.64
3377.43
3389.4
3400.54
3410.83
3420.25
3428.77
3436.39
3443.09
3448.85
3453.67
3457.53
3460.43
3462.37
3463.37
2939.17
2938.55
2937.29
2935.35
2932.73
2929.49
2925.64
2921.19
2916.16
2910.55
2904.37
2897.64
2890.36
2882.56
2874.24
2865.41
2856.1
2846.32
2836.08
2825.4
2814.3
2802.8
2790.92
2778.68
2766.1
2753.2
2740
2726.54
2712.82
2698.89
2684.75
2670.45
2656.01
2641.45
2626.8
2612.1
2597.36
2582.63
2567.93
2553.29
2538.74
2524.31
2510.04
2495.96
2482.09
2468.46
2455.12
2442.09
2429.4
2417.09
2405.17
2393.69
2382.66
2372.12
2362.1
2352.62
2343.7
2335.36
2327.64
2320.55
2314.09
2308.29
2303.07
2298.92
2295.28
2292.32
2290.08
2288.59
2287.85
2287.86
2288.65
2290.19
2292.51
2295.59
2299.45
2304.07
2309.46
2315.62
2322.53
2330.2
2338.61
2347.77
2357.65
2368.26
2379.58
2391.6
2404.31
2417.69
2431.74
2446.44
2461.78
2477.76
2494.43
2511.52
2529.21
2547.45
2566.23
2585.51
2605.27
2625.49