/*--------------------------------*- C++ -*----------------------------------*\
| =========                 |                                                 |
| \\      /  F ield         | OpenFOAM: The Open Source CFD Toolbox           |
|  \\    /   O peration     | Version:  v2006                                 |
|   \\  /    A nd           | Website:  www.openfoam.com                      |
|    \\/     M anipulation  |                                                 |
\*---------------------------------------------------------------------------*/
FoamFile
{
    version     2.0;
    format      ascii;
    class       volScalarField;
    location    "9.3";
    object      p;
}
// * * * * * * * * * * * * * * * * * * * * * * * * * * * * * * * * * * * * * //

dimensions      [1 -1 -2 0 0 0 0];


internalField   nonuniform List<scalar> 
52500
(
31586.3
31586.3
31586.4
31586.5
31586.7
31587
31587.2
31587.6
31588
31588.4
31588.8
31589.4
31589.9
31590.5
31591.2
31591.8
31592.6
31593.3
31594.1
31595
31595.9
31596.8
31597.7
31598.7
31599.7
31600.8
31601.9
31602.9
31604.1
31605.2
31606.4
31607.6
31608.8
31610
31611.3
31612.5
31613.8
31615.1
31616.4
31617.7
31619.1
31620.4
31621.8
31623.2
31624.5
31625.9
31627.3
31628.7
31630.2
31631.6
31633
31634.5
31635.9
31637.3
31638.8
31640.2
31641.7
31643.1
31644.6
31646
31647.5
31648.9
31650.3
31651.8
31653.2
31654.6
31656
31657.3
31658.7
31660
31661.4
31662.7
31664
31665.2
31666.4
31667.6
31668.8
31669.9
31671
31672.1
31673.1
31674.1
31675
31675.9
31676.8
31677.6
31678.3
31679
31679.6
31680.2
31680.7
31681.1
31681.5
31681.9
31682.1
31682.3
31682.4
31682.5
31682.4
31682.3
31682.2
31681.9
31681.6
31681.2
31680.7
31680.2
31679.5
31678.8
31678
31677.2
31676.2
31675.2
31674.1
31673
31671.7
31670.4
31669
31667.6
31666
31664.4
31662.8
31661
31659.2
31657.4
31655.4
31653.4
31651.4
31649.3
31647.1
31644.9
31642.6
31640.3
31637.9
31635.5
31633
31630.5
31627.9
31625.3
31622.7
31620
31617.3
31614.5
31611.7
31608.9
31606
31603.1
31600.2
31597.2
31594.2
31591.2
31588.2
31585.2
31582.1
31579
31575.8
31572.7
31569.5
31566.3
31563
31559.8
31556.5
31553.1
31549.8
31546.4
31543
31539.6
31536.1
31532.6
31529.1
31525.5
31521.9
31518.3
31514.6
31510.9
31507.1
31503.3
31499.4
31495.5
31491.6
31487.6
31483.5
31479.4
31475.2
31471
31466.7
31462.4
31458
31453.5
31449
31444.4
31439.7
31435
31430.2
31425.3
31420.3
31415.3
31410.1
31404.9
31399.6
31394.2
31388.8
31383.2
31377.6
31371.8
31366
31360.1
31354.1
31348
31341.8
31335.5
31329.1
31322.6
31316
31309.4
31302.6
31295.7
31288.7
31281.7
31274.5
31267.3
31259.9
31252.5
31244.9
31237.3
31229.6
31221.8
31213.9
31205.9
31197.8
31189.7
31181.4
31173.1
31164.7
31156.2
31147.6
31139
31130.3
31121.5
31112.7
31103.8
31094.8
31085.8
31076.7
31067.5
31058.3
31049.1
31039.7
31030.4
31021
31011.6
31002.1
30992.6
30983.1
30973.5
30963.9
30954.3
30944.7
30935
30925.4
30915.7
30906
30896.4
30886.7
30877
30867.3
30857.7
30848
30838.4
30828.8
30819.2
30809.7
30800.1
30790.7
30781.2
30771.8
30762.4
30753.1
30743.8
30734.6
30725.4
30716.3
30707.2
30698.2
30689.3
30680.4
30671.6
30662.8
30654.2
30645.6
30637.1
30628.7
30620.4
30612.2
30604
30596
30588.1
30580.4
30572.7
30565.1
30557.7
30550.4
30543.1
30536
30529
30522.1
30515.4
30508.7
30502.2
30495.8
30489.6
30483.5
30477.5
30471.6
30465.9
30460.3
30454.9
30449.6
30444.5
30439.5
30434.6
30429.9
30425.3
30420.9
30416.6
30412.5
30408.5
30404.7
30401
30397.5
30394.1
30390.9
30387.8
30384.9
30382.2
30379.6
30377.2
30374.9
30372.8
30370.9
30369.1
30367.5
30366
30364.7
30363.6
30362.6
30361.8
30361.2
30360.7
30360.4
30360.2
31128.4
31128.4
31128.5
31128.6
31128.8
31129.1
31129.3
31129.7
31130
31130.5
31130.9
31131.4
31132
31132.6
31133.3
31133.9
31134.7
31135.4
31136.3
31137.1
31138
31138.9
31139.9
31140.9
31141.9
31142.9
31144
31145.1
31146.2
31147.4
31148.5
31149.7
31150.9
31152.2
31153.4
31154.7
31156
31157.3
31158.6
31159.9
31161.2
31162.6
31163.9
31165.3
31166.7
31168.1
31169.5
31170.9
31172.3
31173.7
31175.2
31176.6
31178.1
31179.5
31181
31182.4
31183.9
31185.3
31186.8
31188.2
31189.6
31191.1
31192.5
31193.9
31195.4
31196.8
31198.2
31199.5
31200.9
31202.3
31203.6
31204.9
31206.2
31207.5
31208.7
31209.9
31211.1
31212.2
31213.3
31214.4
31215.4
31216.4
31217.3
31218.2
31219.1
31219.9
31220.6
31221.3
31222
31222.5
31223
31223.5
31223.9
31224.2
31224.5
31224.7
31224.8
31224.8
31224.8
31224.7
31224.5
31224.3
31224
31223.6
31223.1
31222.5
31221.9
31221.2
31220.4
31219.5
31218.6
31217.6
31216.5
31215.3
31214.1
31212.7
31211.3
31209.9
31208.3
31206.7
31205.1
31203.3
31201.5
31199.6
31197.7
31195.7
31193.6
31191.5
31189.4
31187.1
31184.8
31182.5
31180.1
31177.7
31175.2
31172.7
31170.1
31167.5
31164.9
31162.2
31159.4
31156.7
31153.9
31151.1
31148.2
31145.3
31142.4
31139.4
31136.5
31133.5
31130.4
31127.4
31124.3
31121.1
31118
31114.8
31111.7
31108.4
31105.2
31101.9
31098.6
31095.3
31092
31088.6
31085.2
31081.7
31078.3
31074.8
31071.2
31067.7
31064.1
31060.4
31056.8
31053
31049.3
31045.5
31041.6
31037.8
31033.8
31029.9
31025.8
31021.7
31017.6
31013.4
31009.1
31004.8
31000.4
30995.9
30991.4
30986.8
30982.1
30977.4
30972.6
30967.7
30962.7
30957.7
30952.6
30947.3
30942
30936.7
30931.2
30925.6
30920
30914.3
30908.4
30902.5
30896.5
30890.4
30884.2
30877.9
30871.5
30865
30858.5
30851.8
30845
30838.1
30831.1
30824.1
30816.9
30809.7
30802.3
30794.9
30787.3
30779.7
30772
30764.1
30756.2
30748.2
30740.2
30732
30723.7
30715.4
30707
30698.5
30690
30681.3
30672.6
30663.8
30655
30646
30637.1
30628
30618.9
30609.8
30600.5
30591.3
30582
30572.6
30563.2
30553.8
30544.3
30534.8
30525.2
30515.7
30506.1
30496.5
30486.8
30477.2
30467.5
30457.8
30448.2
30438.5
30428.8
30419.1
30409.5
30399.8
30390.1
30380.5
30370.9
30361.3
30351.8
30342.2
30332.7
30323.3
30313.8
30304.4
30295.1
30285.8
30276.6
30267.4
30258.3
30249.2
30240.2
30231.2
30222.4
30213.6
30204.8
30196.2
30187.6
30179.1
30170.7
30162.4
30154.1
30146
30138
30130.1
30122.3
30114.6
30107.1
30099.6
30092.3
30085
30077.9
30070.9
30064
30057.2
30050.6
30044.1
30037.7
30031.4
30025.3
30019.3
30013.4
30007.7
30002.1
29996.7
29991.4
29986.2
29981.2
29976.4
29971.6
29967.1
29962.6
29958.3
29954.2
29950.2
29946.4
29942.7
29939.2
29935.8
29932.6
29929.5
29926.6
29923.9
29921.3
29918.9
29916.6
29914.5
29912.6
29910.8
29909.2
29907.7
29906.4
29905.3
29904.3
29903.5
29902.8
29902.4
29902
29901.9
30670.2
30670.3
30670.4
30670.5
30670.7
30671
30671.2
30671.6
30671.9
30672.4
30672.8
30673.4
30673.9
30674.5
30675.2
30675.9
30676.6
30677.4
30678.2
30679.1
30680
30680.9
30681.9
30682.9
30683.9
30684.9
30686
30687.1
30688.3
30689.4
30690.6
30691.8
30693
30694.2
30695.5
30696.8
30698.1
30699.4
30700.7
30702
30703.3
30704.7
30706
30707.4
30708.8
30710.2
30711.6
30713
30714.4
30715.8
30717.3
30718.7
30720.2
30721.6
30723
30724.5
30726
30727.4
30728.9
30730.3
30731.8
30733.2
30734.6
30736.1
30737.5
30738.9
30740.3
30741.7
30743.1
30744.4
30745.8
30747.1
30748.4
30749.7
30750.9
30752.1
30753.3
30754.4
30755.6
30756.6
30757.7
30758.7
30759.6
30760.5
30761.4
30762.2
30762.9
30763.6
30764.3
30764.9
30765.4
30765.8
30766.2
30766.6
30766.8
30767
30767.1
30767.2
30767.2
30767.1
30766.9
30766.7
30766.4
30766
30765.5
30764.9
30764.3
30763.6
30762.8
30761.9
30761
30760
30758.9
30757.7
30756.5
30755.1
30753.8
30752.3
30750.7
30749.1
30747.5
30745.7
30743.9
30742
30740.1
30738.1
30736
30733.9
30731.7
30729.5
30727.2
30724.9
30722.5
30720
30717.6
30715
30712.5
30709.8
30707.2
30704.5
30701.8
30699
30696.2
30693.4
30690.5
30687.6
30684.7
30681.7
30678.8
30675.8
30672.7
30669.7
30666.6
30663.5
30660.3
30657.2
30654
30650.8
30647.5
30644.3
30641
30637.7
30634.3
30631
30627.6
30624.2
30620.7
30617.2
30613.7
30610.1
30606.5
30602.9
30599.2
30595.5
30591.8
30588
30584.2
30580.3
30576.3
30572.4
30568.3
30564.2
30560.1
30555.9
30551.6
30547.3
30542.9
30538.5
30533.9
30529.3
30524.7
30520
30515.1
30510.3
30505.3
30500.3
30495.1
30489.9
30484.6
30479.3
30473.8
30468.3
30462.6
30456.9
30451.1
30445.1
30439.1
30433
30426.8
30420.5
30414.1
30407.6
30401
30394.4
30387.6
30380.7
30373.7
30366.7
30359.5
30352.2
30344.9
30337.4
30329.9
30322.2
30314.5
30306.7
30298.8
30290.8
30282.7
30274.5
30266.2
30257.9
30249.5
30241
30232.4
30223.7
30215
30206.2
30197.4
30188.4
30179.4
30170.4
30161.3
30152.1
30142.9
30133.6
30124.3
30114.9
30105.5
30096
30086.5
30077
30067.4
30057.9
30048.3
30038.6
30029
30019.3
30009.6
29999.9
29990.2
29980.6
29970.9
29961.2
29951.5
29941.8
29932.1
29922.5
29912.9
29903.3
29893.7
29884.1
29874.6
29865.1
29855.7
29846.3
29836.9
29827.6
29818.4
29809.2
29800
29791
29781.9
29773
29764.1
29755.3
29746.6
29737.9
29729.3
29720.8
29712.4
29704.1
29695.9
29687.7
29679.7
29671.8
29664
29656.3
29648.7
29641.2
29633.8
29626.6
29619.4
29612.4
29605.5
29598.7
29592.1
29585.6
29579.2
29572.9
29566.8
29560.8
29554.9
29549.2
29543.6
29538.1
29532.8
29527.7
29522.6
29517.7
29513
29508.4
29504
29499.7
29495.6
29491.6
29487.7
29484
29480.5
29477.1
29473.9
29470.9
29468
29465.2
29462.6
29460.2
29457.9
29455.8
29453.9
29452.1
29450.5
29449
29447.7
29446.6
29445.6
29444.8
29444.1
29443.6
29443.3
29443.1
30212
30212.1
30212.2
30212.3
30212.5
30212.7
30213
30213.3
30213.7
30214.2
30214.6
30215.2
30215.7
30216.3
30217
30217.7
30218.5
30219.2
30220.1
30220.9
30221.8
30222.8
30223.8
30224.8
30225.8
30226.9
30228
30229.1
30230.2
30231.4
30232.6
30233.8
30235
30236.3
30237.5
30238.8
30240.1
30241.4
30242.7
30244
30245.4
30246.7
30248.1
30249.4
30250.8
30252.2
30253.6
30255
30256.4
30257.9
30259.3
30260.7
30262.2
30263.6
30265.1
30266.5
30268
30269.5
30270.9
30272.4
30273.8
30275.3
30276.7
30278.2
30279.6
30281
30282.4
30283.8
30285.2
30286.6
30287.9
30289.3
30290.6
30291.9
30293.1
30294.3
30295.5
30296.7
30297.8
30298.9
30300
30301
30301.9
30302.9
30303.7
30304.5
30305.3
30306
30306.7
30307.3
30307.8
30308.3
30308.7
30309
30309.3
30309.5
30309.6
30309.7
30309.7
30309.6
30309.4
30309.2
30308.9
30308.5
30308
30307.5
30306.8
30306.1
30305.3
30304.5
30303.5
30302.5
30301.4
30300.2
30299
30297.7
30296.3
30294.8
30293.3
30291.6
30290
30288.2
30286.4
30284.5
30282.6
30280.6
30278.5
30276.4
30274.2
30271.9
30269.6
30267.3
30264.9
30262.5
30260
30257.4
30254.9
30252.2
30249.6
30246.9
30244.2
30241.4
30238.6
30235.8
30232.9
30230
30227.1
30224.1
30221.1
30218.1
30215.1
30212
30209
30205.8
30202.7
30199.6
30196.4
30193.2
30189.9
30186.7
30183.4
30180.1
30176.7
30173.4
30170
30166.6
30163.1
30159.6
30156.1
30152.6
30149
30145.4
30141.7
30138
30134.3
30130.5
30126.7
30122.8
30118.9
30114.9
30110.9
30106.8
30102.7
30098.5
30094.3
30089.9
30085.6
30081.1
30076.6
30072.1
30067.4
30062.7
30057.9
30053
30048.1
30043
30037.9
30032.7
30027.4
30022.1
30016.6
30011
30005.4
29999.7
29993.9
29987.9
29981.9
29975.8
29969.6
29963.3
29956.9
29950.4
29943.8
29937.2
29930.4
29923.5
29916.5
29909.4
29902.3
29895
29887.6
29880.2
29872.6
29864.9
29857.2
29849.4
29841.4
29833.4
29825.3
29817.1
29808.9
29800.5
29792.1
29783.5
29774.9
29766.3
29757.5
29748.7
29739.8
29730.9
29721.9
29712.8
29703.7
29694.5
29685.2
29675.9
29666.6
29657.2
29647.8
29638.3
29628.8
29619.2
29609.6
29600
29590.4
29580.8
29571.1
29561.4
29551.7
29542
29532.3
29522.6
29512.8
29503.1
29493.4
29483.7
29474
29464.4
29454.7
29445.1
29435.5
29425.9
29416.4
29406.9
29397.4
29388
29378.6
29369.3
29360
29350.8
29341.6
29332.5
29323.5
29314.5
29305.6
29296.8
29288
29279.3
29270.7
29262.2
29253.8
29245.5
29237.2
29229.1
29221
29213.1
29205.3
29197.5
29189.9
29182.4
29175
29167.8
29160.6
29153.6
29146.7
29139.9
29133.2
29126.7
29120.3
29114
29107.8
29101.8
29095.9
29090.2
29084.6
29079.1
29073.8
29068.6
29063.6
29058.7
29054
29049.4
29044.9
29040.6
29036.5
29032.5
29028.6
29025
29021.4
29018
29014.8
29011.7
29008.8
29006.1
29003.5
29001.1
28998.8
28996.7
28994.7
28992.9
28991.3
28989.8
28988.5
28987.4
28986.4
28985.6
28985
28984.5
28984.2
28984
29753.6
29753.7
29753.8
29753.9
29754.1
29754.4
29754.6
29755
29755.4
29755.8
29756.3
29756.8
29757.4
29758
29758.7
29759.4
29760.2
29761
29761.8
29762.7
29763.6
29764.6
29765.6
29766.6
29767.6
29768.7
29769.8
29771
29772.1
29773.3
29774.5
29775.7
29777
29778.2
29779.5
29780.7
29782
29783.3
29784.7
29786
29787.3
29788.7
29790
29791.4
29792.8
29794.2
29795.6
29797
29798.4
29799.9
29801.3
29802.7
29804.2
29805.6
29807.1
29808.5
29810
29811.5
29812.9
29814.4
29815.9
29817.3
29818.8
29820.2
29821.7
29823.1
29824.5
29825.9
29827.3
29828.7
29830.1
29831.4
29832.8
29834.1
29835.3
29836.6
29837.8
29839
29840.1
29841.2
29842.3
29843.3
29844.3
29845.2
29846.1
29847
29847.7
29848.5
29849.1
29849.7
29850.3
29850.8
29851.2
29851.6
29851.8
29852.1
29852.2
29852.3
29852.3
29852.2
29852
29851.8
29851.5
29851.1
29850.6
29850.1
29849.5
29848.8
29848
29847.1
29846.2
29845.1
29844
29842.9
29841.6
29840.3
29838.9
29837.4
29835.9
29834.2
29832.6
29830.8
29829
29827.1
29825.1
29823.1
29821
29818.9
29816.7
29814.5
29812.2
29809.8
29807.4
29805
29802.5
29799.9
29797.3
29794.7
29792.1
29789.4
29786.6
29783.8
29781
29778.2
29775.3
29772.4
29769.5
29766.6
29763.6
29760.6
29757.5
29754.5
29751.4
29748.3
29745.1
29742
29738.8
29735.6
29732.4
29729.1
29725.9
29722.6
29719.2
29715.9
29712.5
29709.1
29705.7
29702.2
29698.7
29695.2
29691.6
29688
29684.3
29680.7
29676.9
29673.2
29669.4
29665.5
29661.6
29657.7
29653.6
29649.6
29645.5
29641.3
29637.1
29632.8
29628.4
29624
29619.5
29614.9
29610.3
29605.6
29600.8
29595.9
29591
29586
29580.9
29575.7
29570.4
29565
29559.6
29554
29548.4
29542.7
29536.9
29530.9
29524.9
29518.8
29512.6
29506.3
29499.9
29493.4
29486.8
29480.1
29473.4
29466.5
29459.5
29452.4
29445.2
29437.9
29430.5
29423.1
29415.5
29407.8
29400.1
29392.2
29384.3
29376.2
29368.1
29359.9
29351.6
29343.2
29334.8
29326.2
29317.6
29308.9
29300.2
29291.3
29282.4
29273.4
29264.4
29255.3
29246.1
29236.9
29227.7
29218.3
29209
29199.5
29190.1
29180.6
29171
29161.5
29151.9
29142.2
29132.6
29122.9
29113.2
29103.5
29093.7
29084
29074.2
29064.5
29054.7
29045
29035.3
29025.5
29015.8
29006.1
28996.4
28986.8
28977.1
28967.5
28958
28948.4
28938.9
28929.5
28920.1
28910.7
28901.4
28892.2
28883
28873.9
28864.8
28855.8
28846.9
28838
28829.2
28820.5
28811.9
28803.4
28794.9
28786.6
28778.3
28770.1
28762.1
28754.1
28746.3
28738.5
28730.9
28723.3
28715.9
28708.6
28701.5
28694.4
28687.5
28680.7
28674
28667.4
28661
28654.7
28648.5
28642.5
28636.6
28630.9
28625.2
28619.8
28614.4
28609.2
28604.2
28599.3
28594.5
28589.9
28585.5
28581.2
28577
28573
28569.1
28565.4
28561.9
28558.5
28555.3
28552.2
28549.3
28546.5
28543.9
28541.5
28539.2
28537.1
28535.1
28533.4
28531.7
28530.3
28529
28527.8
28526.8
28526
28525.4
28524.9
28524.6
28524.4
29295.1
29295.2
29295.2
29295.4
29295.6
29295.8
29296.1
29296.5
29296.8
29297.3
29297.8
29298.3
29298.9
29299.5
29300.2
29301
29301.7
29302.6
29303.4
29304.3
29305.3
29306.3
29307.3
29308.3
29309.4
29310.5
29311.6
29312.8
29314
29315.1
29316.4
29317.6
29318.8
29320.1
29321.4
29322.6
29323.9
29325.2
29326.6
29327.9
29329.2
29330.6
29332
29333.3
29334.7
29336.1
29337.5
29338.9
29340.3
29341.8
29343.2
29344.7
29346.1
29347.6
29349
29350.5
29352
29353.4
29354.9
29356.4
29357.9
29359.3
29360.8
29362.3
29363.7
29365.2
29366.6
29368
29369.4
29370.9
29372.2
29373.6
29374.9
29376.3
29377.6
29378.8
29380.1
29381.3
29382.4
29383.6
29384.6
29385.7
29386.7
29387.7
29388.6
29389.4
29390.2
29391
29391.7
29392.3
29392.9
29393.4
29393.8
29394.2
29394.5
29394.7
29394.9
29394.9
29395
29394.9
29394.7
29394.5
29394.2
29393.8
29393.4
29392.8
29392.2
29391.5
29390.7
29389.9
29388.9
29387.9
29386.8
29385.6
29384.4
29383
29381.6
29380.1
29378.6
29376.9
29375.2
29373.5
29371.6
29369.7
29367.8
29365.8
29363.7
29361.5
29359.3
29357.1
29354.8
29352.4
29350
29347.5
29345
29342.5
29339.9
29337.2
29334.6
29331.9
29329.1
29326.3
29323.5
29320.7
29317.8
29314.9
29312
29309
29306
29303
29300
29296.9
29293.9
29290.8
29287.6
29284.5
29281.3
29278.1
29274.9
29271.7
29268.4
29265.1
29261.8
29258.4
29255.1
29251.7
29248.3
29244.8
29241.3
29237.8
29234.3
29230.7
29227.1
29223.4
29219.7
29215.9
29212.2
29208.3
29204.4
29200.5
29196.5
29192.5
29188.4
29184.2
29180
29175.7
29171.4
29167
29162.5
29158
29153.3
29148.7
29143.9
29139
29134.1
29129.1
29124
29118.8
29113.6
29108.2
29102.8
29097.2
29091.6
29085.9
29080.1
29074.2
29068.2
29062
29055.8
29049.5
29043.1
29036.6
29030
29023.3
29016.5
29009.6
29002.6
28995.5
28988.3
28981.1
28973.7
28966.2
28958.6
28950.9
28943.1
28935.2
28927.3
28919.2
28911.1
28902.8
28894.5
28886.1
28877.6
28869.1
28860.4
28851.7
28842.9
28834
28825.1
28816.1
28807
28797.9
28788.7
28779.5
28770.1
28760.8
28751.4
28741.9
28732.4
28722.9
28713.3
28703.7
28694.1
28684.4
28674.7
28665
28655.2
28645.5
28635.7
28625.9
28616.2
28606.4
28596.6
28586.8
28577
28567.2
28557.5
28547.8
28538
28528.3
28518.7
28509
28499.4
28489.9
28480.3
28470.8
28461.4
28452
28442.7
28433.4
28424.2
28415
28405.9
28396.8
28387.9
28379
28370.2
28361.4
28352.8
28344.2
28335.8
28327.4
28319.1
28310.9
28302.8
28294.8
28286.9
28279.1
28271.5
28263.9
28256.5
28249.2
28242
28234.9
28227.9
28221.1
28214.4
28207.8
28201.4
28195
28188.9
28182.8
28176.9
28171.1
28165.5
28160
28154.6
28149.4
28144.4
28139.5
28134.7
28130.1
28125.6
28121.3
28117.1
28113.1
28109.2
28105.5
28102
28098.6
28095.3
28092.2
28089.3
28086.5
28083.9
28081.5
28079.2
28077.1
28075.1
28073.3
28071.7
28070.2
28068.9
28067.8
28066.8
28066
28065.3
28064.8
28064.5
28064.3
28836.4
28836.5
28836.6
28836.7
28836.9
28837.2
28837.4
28837.8
28838.2
28838.6
28839.1
28839.7
28840.3
28840.9
28841.6
28842.4
28843.2
28844
28844.9
28845.9
28846.8
28847.8
28848.9
28850
28851.1
28852.2
28853.3
28854.5
28855.7
28856.9
28858.1
28859.4
28860.6
28861.9
28863.2
28864.5
28865.8
28867.1
28868.4
28869.8
28871.1
28872.5
28873.8
28875.2
28876.6
28878
28879.4
28880.8
28882.2
28883.6
28885.1
28886.5
28888
28889.4
28890.9
28892.4
28893.9
28895.3
28896.8
28898.3
28899.8
28901.3
28902.8
28904.2
28905.7
28907.2
28908.6
28910.1
28911.5
28913
28914.4
28915.7
28917.1
28918.5
28919.8
28921.1
28922.3
28923.6
28924.8
28925.9
28927
28928.1
28929.1
28930.1
28931.1
28932
28932.8
28933.6
28934.3
28934.9
28935.5
28936
28936.5
28936.9
28937.2
28937.5
28937.6
28937.7
28937.7
28937.7
28937.6
28937.3
28937
28936.7
28936.2
28935.7
28935.1
28934.4
28933.6
28932.7
28931.8
28930.7
28929.6
28928.5
28927.2
28925.9
28924.4
28922.9
28921.4
28919.7
28918
28916.3
28914.4
28912.5
28910.5
28908.5
28906.4
28904.2
28902
28899.7
28897.4
28895
28892.6
28890.1
28887.6
28885.1
28882.5
28879.8
28877.1
28874.4
28871.7
28868.9
28866.1
28863.2
28860.3
28857.4
28854.5
28851.5
28848.6
28845.5
28842.5
28839.5
28836.4
28833.3
28830.2
28827
28823.9
28820.7
28817.5
28814.2
28811
28807.7
28804.4
28801.1
28797.7
28794.4
28791
28787.5
28784.1
28780.6
28777
28773.5
28769.9
28766.2
28762.5
28758.8
28755.1
28751.3
28747.4
28743.5
28739.5
28735.5
28731.4
28727.3
28723.1
28718.9
28714.5
28710.2
28705.7
28701.2
28696.6
28691.9
28687.2
28682.3
28677.4
28672.4
28667.3
28662.2
28656.9
28651.6
28646.2
28640.6
28635
28629.3
28623.5
28617.6
28611.6
28605.5
28599.3
28593
28586.6
28580.1
28573.4
28566.7
28559.9
28553
28546
28538.9
28531.7
28524.4
28517
28509.4
28501.8
28494.1
28486.3
28478.4
28470.4
28462.4
28454.2
28445.9
28437.6
28429.1
28420.6
28412
28403.4
28394.6
28385.8
28376.9
28367.9
28358.8
28349.7
28340.6
28331.3
28322
28312.7
28303.3
28293.8
28284.3
28274.8
28265.2
28255.6
28246
28236.3
28226.6
28216.8
28207.1
28197.3
28187.5
28177.7
28167.8
28158
28148.2
28138.3
28128.5
28118.7
28108.9
28099.1
28089.3
28079.5
28069.8
28060.1
28050.4
28040.7
28031.1
28021.5
28012
28002.5
27993.1
27983.7
27974.4
27965.1
27955.9
27946.8
27937.7
27928.7
27919.7
27910.9
27902.1
27893.4
27884.8
27876.3
27867.9
27859.6
27851.3
27843.2
27835.2
27827.3
27819.5
27811.8
27804.2
27796.7
27789.4
27782.1
27775
27768
27761.2
27754.4
27747.8
27741.4
27735
27728.8
27722.7
27716.8
27711
27705.4
27699.8
27694.5
27689.2
27684.2
27679.2
27674.4
27669.8
27665.3
27661
27656.8
27652.7
27648.9
27645.1
27641.6
27638.2
27634.9
27631.8
27628.9
27626.1
27623.5
27621
27618.7
27616.6
27614.7
27612.9
27611.2
27609.7
27608.4
27607.3
27606.3
27605.5
27604.8
27604.3
27604
27603.8
28377.6
28377.7
28377.8
28377.9
28378.1
28378.3
28378.6
28379
28379.4
28379.8
28380.3
28380.9
28381.5
28382.2
28382.9
28383.7
28384.5
28385.4
28386.3
28387.3
28388.3
28389.3
28390.4
28391.5
28392.6
28393.8
28395
28396.2
28397.4
28398.6
28399.9
28401.1
28402.4
28403.7
28405
28406.3
28407.6
28408.9
28410.2
28411.6
28412.9
28414.3
28415.6
28417
28418.4
28419.8
28421.2
28422.6
28424
28425.4
28426.9
28428.3
28429.8
28431.3
28432.7
28434.2
28435.7
28437.2
28438.7
28440.2
28441.7
28443.2
28444.7
28446.2
28447.7
28449.2
28450.7
28452.1
28453.6
28455
28456.5
28457.9
28459.3
28460.7
28462
28463.3
28464.6
28465.9
28467.1
28468.3
28469.5
28470.6
28471.6
28472.6
28473.6
28474.5
28475.4
28476.2
28476.9
28477.6
28478.2
28478.8
28479.3
28479.7
28480
28480.3
28480.5
28480.6
28480.6
28480.6
28480.5
28480.3
28480
28479.6
28479.2
28478.7
28478
28477.3
28476.6
28475.7
28474.7
28473.7
28472.6
28471.4
28470.1
28468.8
28467.4
28465.9
28464.3
28462.6
28460.9
28459.1
28457.3
28455.3
28453.4
28451.3
28449.2
28447
28444.8
28442.5
28440.1
28437.8
28435.3
28432.8
28430.3
28427.7
28425.1
28422.4
28419.8
28417
28414.3
28411.5
28408.6
28405.8
28402.9
28400
28397.1
28394.1
28391.1
28388.1
28385.1
28382
28378.9
28375.8
28372.7
28369.6
28366.4
28363.3
28360.1
28356.9
28353.6
28350.4
28347.1
28343.8
28340.4
28337.1
28333.7
28330.3
28326.9
28323.4
28319.9
28316.3
28312.8
28309.2
28305.5
28301.8
28298.1
28294.3
28290.5
28286.6
28282.7
28278.7
28274.6
28270.5
28266.4
28262.1
28257.8
28253.5
28249.1
28244.6
28240
28235.3
28230.6
28225.8
28220.9
28215.9
28210.9
28205.7
28200.5
28195.2
28189.7
28184.2
28178.6
28172.9
28167.1
28161.2
28155.2
28149.1
28142.9
28136.6
28130.2
28123.7
28117.1
28110.3
28103.5
28096.6
28089.6
28082.4
28075.2
28067.9
28060.5
28052.9
28045.3
28037.6
28029.7
28021.8
28013.8
28005.7
27997.5
27989.2
27980.8
27972.3
27963.8
27955.1
27946.4
27937.6
27928.7
27919.8
27910.8
27901.7
27892.5
27883.3
27874
27864.7
27855.3
27845.8
27836.3
27826.8
27817.2
27807.6
27797.9
27788.2
27778.5
27768.7
27758.9
27749.1
27739.3
27729.4
27719.5
27709.7
27699.8
27689.9
27680
27670.1
27660.3
27650.4
27640.5
27630.7
27620.9
27611.1
27601.3
27591.6
27581.9
27572.2
27562.6
27553
27543.5
27534
27524.5
27515.2
27505.8
27496.6
27487.4
27478.3
27469.2
27460.3
27451.4
27442.5
27433.8
27425.2
27416.6
27408.1
27399.8
27391.5
27383.3
27375.3
27367.3
27359.5
27351.7
27344.1
27336.6
27329.2
27322
27314.8
27307.8
27300.9
27294.1
27287.5
27281
27274.6
27268.4
27262.3
27256.3
27250.5
27244.8
27239.3
27233.9
27228.6
27223.5
27218.6
27213.8
27209.1
27204.6
27200.2
27196
27192
27188.1
27184.3
27180.8
27177.3
27174.1
27171
27168
27165.2
27162.6
27160.1
27157.8
27155.7
27153.7
27151.9
27150.3
27148.8
27147.5
27146.3
27145.3
27144.5
27143.8
27143.4
27143
27142.9
27918.7
27918.7
27918.8
27918.9
27919.1
27919.4
27919.6
27920
27920.4
27920.8
27921.4
27921.9
27922.6
27923.2
27924
27924.8
27925.7
27926.6
27927.5
27928.6
27929.6
27930.7
27931.8
27933
27934.1
27935.3
27936.6
27937.8
27939
27940.3
27941.6
27942.8
27944.1
27945.4
27946.7
27948
27949.3
27950.6
27952
27953.3
27954.7
27956
27957.4
27958.7
27960.1
27961.5
27962.9
27964.3
27965.7
27967.2
27968.6
27970.1
27971.5
27973
27974.5
27976
27977.5
27979
27980.5
27982
27983.5
27985
27986.6
27988.1
27989.6
27991.1
27992.6
27994.1
27995.6
27997.1
27998.6
28000
28001.4
28002.8
28004.2
28005.6
28006.9
28008.2
28009.5
28010.7
28011.9
28013.1
28014.2
28015.2
28016.2
28017.2
28018.1
28018.9
28019.7
28020.4
28021
28021.6
28022.1
28022.6
28022.9
28023.2
28023.4
28023.6
28023.6
28023.6
28023.5
28023.3
28023.1
28022.7
28022.3
28021.7
28021.1
28020.4
28019.6
28018.8
28017.8
28016.8
28015.7
28014.5
28013.2
28011.8
28010.4
28008.9
28007.3
28005.6
28003.9
28002.1
28000.2
27998.3
27996.3
27994.2
27992.1
27989.9
27987.6
27985.3
27982.9
27980.5
27978.1
27975.6
27973
27970.4
27967.8
27965.1
27962.4
27959.7
27956.9
27954.1
27951.3
27948.4
27945.5
27942.6
27939.6
27936.7
27933.7
27930.7
27927.7
27924.6
27921.5
27918.5
27915.4
27912.2
27909.1
27905.9
27902.7
27899.5
27896.3
27893.1
27889.8
27886.5
27883.2
27879.9
27876.5
27873.2
27869.7
27866.3
27862.8
27859.3
27855.8
27852.2
27848.6
27844.9
27841.2
27837.5
27833.7
27829.8
27825.9
27822
27818
27813.9
27809.8
27805.6
27801.3
27797
27792.6
27788.1
27783.6
27778.9
27774.2
27769.5
27764.6
27759.6
27754.6
27749.5
27744.3
27738.9
27733.5
27728
27722.4
27716.7
27710.9
27705
27699
27692.9
27686.7
27680.4
27674
27667.5
27660.9
27654.2
27647.3
27640.4
27633.3
27626.2
27618.9
27611.6
27604.1
27596.6
27588.9
27581.2
27573.3
27565.3
27557.3
27549.1
27540.9
27532.6
27524.1
27515.6
27507
27498.3
27489.6
27480.7
27471.8
27462.8
27453.7
27444.6
27435.4
27426.1
27416.8
27407.4
27398
27388.5
27378.9
27369.3
27359.7
27350
27340.2
27330.5
27320.7
27310.8
27301
27291.1
27281.2
27271.3
27261.4
27251.5
27241.5
27231.6
27221.6
27211.7
27201.7
27191.8
27181.9
27172
27162.1
27152.3
27142.4
27132.6
27122.9
27113.2
27103.5
27093.8
27084.2
27074.7
27065.2
27055.8
27046.4
27037.1
27027.8
27018.6
27009.5
27000.5
26991.6
26982.7
26973.9
26965.2
26956.6
26948.1
26939.7
26931.4
26923.2
26915
26907
26899.2
26891.4
26883.7
26876.2
26868.7
26861.4
26854.3
26847.2
26840.3
26833.5
26826.8
26820.3
26813.8
26807.6
26801.4
26795.5
26789.6
26783.9
26778.3
26772.9
26767.6
26762.5
26757.5
26752.7
26748
26743.5
26739.1
26734.9
26730.8
26726.9
26723.1
26719.5
26716.1
26712.8
26709.7
26706.7
26703.9
26701.3
26698.8
26696.5
26694.3
26692.4
26690.5
26688.9
26687.4
26686.1
26684.9
26683.9
26683.1
26682.4
26681.9
26681.6
26681.4
27459.6
27459.6
27459.7
27459.8
27460
27460.2
27460.5
27460.8
27461.2
27461.7
27462.2
27462.8
27463.4
27464.2
27464.9
27465.8
27466.7
27467.7
27468.7
27469.7
27470.8
27472
27473.2
27474.4
27475.6
27476.8
27478.1
27479.3
27480.6
27481.9
27483.2
27484.5
27485.8
27487.1
27488.4
27489.7
27491
27492.3
27493.7
27495
27496.3
27497.7
27499.1
27500.4
27501.8
27503.2
27504.6
27506
27507.4
27508.8
27510.3
27511.7
27513.2
27514.7
27516.2
27517.7
27519.2
27520.7
27522.2
27523.8
27525.3
27526.8
27528.4
27529.9
27531.5
27533
27534.5
27536.1
27537.6
27539.1
27540.6
27542.1
27543.6
27545
27546.5
27547.9
27549.2
27550.6
27551.9
27553.2
27554.4
27555.6
27556.7
27557.8
27558.9
27559.9
27560.8
27561.7
27562.5
27563.2
27563.9
27564.5
27565.1
27565.6
27566
27566.3
27566.5
27566.7
27566.8
27566.8
27566.7
27566.5
27566.2
27565.9
27565.5
27564.9
27564.3
27563.6
27562.9
27562
27561
27560
27558.9
27557.7
27556.4
27555
27553.6
27552
27550.4
27548.7
27547
27545.2
27543.3
27541.3
27539.3
27537.2
27535
27532.8
27530.5
27528.2
27525.8
27523.4
27520.9
27518.4
27515.8
27513.2
27510.5
27507.9
27505.1
27502.4
27499.6
27496.8
27493.9
27491
27488.1
27485.2
27482.3
27479.3
27476.3
27473.3
27470.3
27467.2
27464.2
27461.1
27458
27454.9
27451.7
27448.6
27445.4
27442.3
27439.1
27435.8
27432.6
27429.3
27426.1
27422.7
27419.4
27416.1
27412.7
27409.3
27405.8
27402.4
27398.9
27395.3
27391.7
27388.1
27384.4
27380.7
27377
27373.2
27369.3
27365.4
27361.4
27357.4
27353.3
27349.1
27344.9
27340.6
27336.3
27331.8
27327.3
27322.7
27318.1
27313.3
27308.5
27303.5
27298.5
27293.4
27288.2
27282.9
27277.5
27272.1
27266.5
27260.8
27255
27249.1
27243.1
27237
27230.8
27224.5
27218.1
27211.6
27204.9
27198.2
27191.3
27184.4
27177.3
27170.2
27162.9
27155.5
27148
27140.4
27132.7
27124.9
27117
27109.1
27101
27092.8
27084.5
27076.1
27067.6
27059.1
27050.4
27041.7
27032.9
27024
27015
27006
26996.8
26987.6
26978.4
26969
26959.6
26950.2
26940.7
26931.1
26921.5
26911.8
26902.1
26892.4
26882.6
26872.7
26862.9
26853
26843.1
26833.1
26823.2
26813.2
26803.2
26793.2
26783.2
26773.2
26763.1
26753.1
26743.1
26733.1
26723.2
26713.2
26703.2
26693.3
26683.4
26673.6
26663.7
26653.9
26644.2
26634.5
26624.8
26615.2
26605.6
26596.1
26586.7
26577.3
26568
26558.8
26549.6
26540.5
26531.5
26522.6
26513.7
26505
26496.3
26487.8
26479.3
26470.9
26462.7
26454.5
26446.5
26438.5
26430.7
26423
26415.4
26407.9
26400.6
26393.3
26386.2
26379.3
26372.4
26365.7
26359.1
26352.7
26346.4
26340.2
26334.2
26328.3
26322.6
26317
26311.5
26306.2
26301
26296
26291.2
26286.5
26281.9
26277.5
26273.3
26269.2
26265.2
26261.5
26257.8
26254.4
26251.1
26247.9
26245
26242.1
26239.5
26237
26234.7
26232.5
26230.5
26228.7
26227
26225.5
26224.2
26223
26222
26221.2
26220.5
26220
26219.7
26219.5
27000.3
27000.3
27000.4
27000.5
27000.7
27000.9
27001.2
27001.5
27001.9
27002.4
27002.9
27003.5
27004.1
27004.9
27005.7
27006.6
27007.6
27008.6
27009.7
27010.8
27012
27013.2
27014.4
27015.7
27017
27018.3
27019.6
27020.9
27022.2
27023.5
27024.8
27026.1
27027.4
27028.7
27030.1
27031.4
27032.7
27034
27035.3
27036.7
27038
27039.3
27040.7
27042
27043.4
27044.8
27046.2
27047.6
27049
27050.4
27051.9
27053.3
27054.8
27056.3
27057.8
27059.3
27060.8
27062.3
27063.9
27065.4
27067
27068.6
27070.1
27071.7
27073.3
27074.9
27076.4
27078
27079.6
27081.1
27082.7
27084.2
27085.7
27087.2
27088.7
27090.1
27091.5
27092.9
27094.3
27095.6
27096.9
27098.1
27099.3
27100.5
27101.6
27102.6
27103.6
27104.5
27105.4
27106.2
27106.9
27107.5
27108.1
27108.6
27109.1
27109.4
27109.7
27109.9
27110
27110
27109.9
27109.8
27109.5
27109.2
27108.8
27108.3
27107.7
27107
27106.2
27105.3
27104.4
27103.3
27102.2
27101
27099.7
27098.3
27096.8
27095.3
27093.6
27091.9
27090.2
27088.3
27086.4
27084.4
27082.3
27080.2
27078
27075.8
27073.5
27071.1
27068.7
27066.3
27063.8
27061.2
27058.6
27056
27053.3
27050.6
27047.9
27045.1
27042.3
27039.5
27036.6
27033.7
27030.8
27027.9
27024.9
27021.9
27019
27015.9
27012.9
27009.9
27006.8
27003.7
27000.7
26997.6
26994.4
26991.3
26988.2
26985
26981.8
26978.6
26975.4
26972.2
26968.9
26965.7
26962.4
26959
26955.7
26952.3
26948.9
26945.5
26942
26938.5
26935
26931.4
26927.8
26924.1
26920.4
26916.6
26912.8
26909
26905
26901
26897
26892.9
26888.7
26884.5
26880.1
26875.7
26871.3
26866.7
26862.1
26857.3
26852.5
26847.6
26842.7
26837.6
26832.4
26827.1
26821.8
26816.3
26810.7
26805
26799.3
26793.4
26787.4
26781.3
26775.1
26768.8
26762.4
26755.8
26749.2
26742.4
26735.6
26728.6
26721.5
26714.3
26707
26699.6
26692.1
26684.5
26676.8
26668.9
26661
26652.9
26644.8
26636.6
26628.2
26619.8
26611.3
26602.7
26594
26585.2
26576.3
26567.4
26558.3
26549.2