/*--------------------------------*- C++ -*----------------------------------*\
| =========                 |                                                 |
| \\      /  F ield         | OpenFOAM: The Open Source CFD Toolbox           |
|  \\    /   O peration     | Version:  v2006                                 |
|   \\  /    A nd           | Website:  www.openfoam.com                      |
|    \\/     M anipulation  |                                                 |
\*---------------------------------------------------------------------------*/
FoamFile
{
    version     2.0;
    format      ascii;
    class       volVectorField;
    location    "9.3";
    object      U;
}
// * * * * * * * * * * * * * * * * * * * * * * * * * * * * * * * * * * * * * //

dimensions      [0 1 -1 0 0 0 0];


internalField   nonuniform List<vector> 
52500
(
(-0.00173303 0.000892279 0)
(-0.00207666 -0.000557491 0)
(-0.00225097 -0.000461118 0)
(-0.00312814 -0.000132492 0)
(-0.00412138 3.51836e-05 0)
(-0.00525496 8.25892e-05 0)
(-0.00633294 7.6795e-05 0)
(-0.00739475 6.39406e-05 0)
(-0.00843889 5.70443e-05 0)
(-0.00947382 5.5368e-05 0)
(-0.0104995 5.58286e-05 0)
(-0.0115152 5.7092e-05 0)
(-0.012521 5.93234e-05 0)
(-0.0135179 6.32115e-05 0)
(-0.0145071 6.93988e-05 0)
(-0.015491 7.84326e-05 0)
(-0.0164729 9.09798e-05 0)
(-0.0174558 0.000107832 0)
(-0.0184434 0.000129492 0)
(-0.0194403 0.000156444 0)
(-0.0204519 0.000189328 0)
(-0.0214834 0.000228658 0)
(-0.0225403 0.000274834 0)
(-0.0236287 0.000328165 0)
(-0.0247546 0.000388749 0)
(-0.0259241 0.000456491 0)
(-0.0271429 0.000531406 0)
(-0.0284169 0.000613522 0)
(-0.0297518 0.000702571 0)
(-0.0311528 0.000798116 0)
(-0.0326247 0.000899716 0)
(-0.034172 0.00100686 0)
(-0.0357986 0.00111901 0)
(-0.0375079 0.0012356 0)
(-0.0393028 0.00135612 0)
(-0.0411859 0.00148026 0)
(-0.0431597 0.00160834 0)
(-0.0452268 0.00174113 0)
(-0.0473902 0.00187923 0)
(-0.0496524 0.00202207 0)
(-0.0520155 0.0021674 0)
(-0.0544803 0.0023118 0)
(-0.0570458 0.00245174 0)
(-0.0597093 0.0025846 0)
(-0.0624673 0.00270914 0)
(-0.0653154 0.00282532 0)
(-0.0682492 0.00293386 0)
(-0.0712645 0.00303603 0)
(-0.0743579 0.00313354 0)
(-0.0775269 0.00322822 0)
(-0.0807695 0.00332084 0)
(-0.0840835 0.00340928 0)
(-0.0874646 0.0034869 0)
(-0.0909045 0.00354285 0)
(-0.0943894 0.00356477 0)
(-0.0979006 0.00354324 0)
(-0.101416 0.00347603 0)
(-0.104916 0.00337014 0)
(-0.108384 0.00324047 0)
(-0.111813 0.0031051 0)
(-0.115204 0.00297969 0)
(-0.118562 0.00287367 0)
(-0.121896 0.00278985 0)
(-0.125217 0.00272648 0)
(-0.128531 0.00267981 0)
(-0.131847 0.00264593 0)
(-0.135169 0.00262169 0)
(-0.138503 0.0026048 0)
(-0.14185 0.00259364 0)
(-0.145215 0.00258695 0)
(-0.148599 0.00258374 0)
(-0.152004 0.0025832 0)
(-0.155431 0.00258485 0)
(-0.158881 0.0025886 0)
(-0.162355 0.00259474 0)
(-0.165854 0.00260361 0)
(-0.169379 0.00261525 0)
(-0.172931 0.00262909 0)
(-0.176511 0.00264401 0)
(-0.180118 0.00265869 0)
(-0.183751 0.00267212 0)
(-0.187409 0.00268389 0)
(-0.191089 0.00269432 0)
(-0.194792 0.00270443 0)
(-0.198515 0.00271584 0)
(-0.202259 0.0027304 0)
(-0.206024 0.00274978 0)
(-0.209811 0.00277492 0)
(-0.213623 0.00280568 0)
(-0.217462 0.00284074 0)
(-0.221329 0.00287791 0)
(-0.225224 0.00291462 0)
(-0.229148 0.00294859 0)
(-0.233099 0.00297813 0)
(-0.237074 0.00300234 0)
(-0.241072 0.00302096 0)
(-0.245088 0.00303431 0)
(-0.249121 0.00304305 0)
(-0.253167 0.00304788 0)
(-0.257223 0.00304944 0)
(-0.261287 0.00304825 0)
(-0.265356 0.00304468 0)
(-0.269428 0.00303909 0)
(-0.2735 0.00303173 0)
(-0.27757 0.00302283 0)
(-0.281637 0.00301254 0)
(-0.285696 0.00300095 0)
(-0.289748 0.00298811 0)
(-0.293789 0.00297406 0)
(-0.297817 0.00295879 0)
(-0.30183 0.0029423 0)
(-0.305826 0.00292457 0)
(-0.309803 0.00290563 0)
(-0.313759 0.00288555 0)
(-0.31769 0.0028644 0)
(-0.321596 0.00284225 0)
(-0.325474 0.0028191 0)
(-0.329322 0.00279502 0)
(-0.333137 0.00277008 0)
(-0.336917 0.0027444 0)
(-0.340662 0.00271807 0)
(-0.344367 0.00269119 0)
(-0.348032 0.00266383 0)
(-0.351655 0.00263602 0)
(-0.355233 0.0026078 0)
(-0.358765 0.00257923 0)
(-0.362249 0.00255035 0)
(-0.365683 0.00252117 0)
(-0.369065 0.0024917 0)
(-0.372394 0.00246202 0)
(-0.375667 0.00243225 0)
(-0.378884 0.00240257 0)
(-0.382041 0.00237318 0)
(-0.385139 0.00234431 0)
(-0.388175 0.00231626 0)
(-0.391148 0.00228941 0)
(-0.394057 0.0022642 0)
(-0.396899 0.00224086 0)
(-0.399673 0.00221913 0)
(-0.402378 0.00219815 0)
(-0.405009 0.00217712 0)
(-0.407566 0.00215671 0)
(-0.410045 0.00214068 0)
(-0.41245 0.0021363 0)
(-0.414786 0.00215241 0)
(-0.417062 0.00219532 0)
(-0.419291 0.00226452 0)
(-0.421485 0.00235098 0)
(-0.42365 0.0024395 0)
(-0.425787 0.00251431 0)
(-0.427892 0.00256477 0)
(-0.429956 0.00258821 0)
(-0.431969 0.00258881 0)
(-0.433924 0.00257405 0)
(-0.435812 0.00255096 0)
(-0.437632 0.0025241 0)
(-0.439381 0.00249548 0)
(-0.441057 0.0024658 0)
(-0.44266 0.00243575 0)
(-0.444189 0.00240661 0)
(-0.445645 0.00237997 0)
(-0.447031 0.00235674 0)
(-0.448347 0.00233638 0)
(-0.449597 0.00231685 0)
(-0.450779 0.00229547 0)
(-0.451894 0.00226986 0)
(-0.452939 0.00223851 0)
(-0.453912 0.00220072 0)
(-0.45481 0.00215537 0)
(-0.45563 0.00209884 0)
(-0.456367 0.00203273 0)
(-0.45702 0.00195823 0)
(-0.457585 0.0018756 0)
(-0.458058 0.00178427 0)
(-0.458435 0.00168247 0)
(-0.458708 0.00156568 0)
(-0.458869 0.00142269 0)
(-0.458903 0.00123891 0)
(-0.458783 0.00101969 0)
(-0.458509 0.000791904 0)
(-0.458083 0.000573224 0)
(-0.45751 0.000372329 0)
(-0.456801 0.000193559 0)
(-0.455965 3.81088e-05 0)
(-0.455015 -9.54001e-05 0)
(-0.453962 -0.00021 0)
(-0.452814 -0.000309529 0)
(-0.451578 -0.000397902 0)
(-0.45026 -0.000478566 0)
(-0.448863 -0.000554259 0)
(-0.447391 -0.000627022 0)
(-0.445843 -0.000698373 0)
(-0.444223 -0.000769514 0)
(-0.442528 -0.000841538 0)
(-0.44076 -0.000915621 0)
(-0.438917 -0.000993265 0)
(-0.436996 -0.00107661 0)
(-0.434995 -0.00116871 0)
(-0.432907 -0.00127363 0)
(-0.430727 -0.00139594 0)
(-0.428444 -0.00153966 0)
(-0.426049 -0.00170659 0)
(-0.423533 -0.00189465 0)
(-0.420886 -0.00209687 0)
(-0.418107 -0.00230169 0)
(-0.415197 -0.00249475 0)
(-0.412166 -0.00266175 0)
(-0.40903 -0.00279161 0)
(-0.405808 -0.00287897 0)
(-0.402522 -0.00292526 0)
(-0.39919 -0.00293801 0)
(-0.39583 -0.00292891 0)
(-0.392449 -0.00291088 0)
(-0.389054 -0.00289531 0)
(-0.385641 -0.00288996 0)
(-0.382207 -0.00289821 0)
(-0.378747 -0.00291958 0)
(-0.375254 -0.00295118 0)
(-0.371723 -0.0029893 0)
(-0.368153 -0.00303076 0)
(-0.364541 -0.00307353 0)
(-0.360888 -0.00311677 0)
(-0.357194 -0.00316043 0)
(-0.353459 -0.00320478 0)
(-0.349684 -0.00324999 0)
(-0.34587 -0.00329595 0)
(-0.342018 -0.00334225 0)
(-0.338129 -0.00338831 0)
(-0.334203 -0.00343357 0)
(-0.330244 -0.00347753 0)
(-0.326253 -0.00351985 0)
(-0.322232 -0.00356028 0)
(-0.318183 -0.00359868 0)
(-0.314108 -0.00363492 0)
(-0.31001 -0.00366886 0)
(-0.305892 -0.00370031 0)
(-0.301755 -0.00372912 0)
(-0.297603 -0.00375509 0)
(-0.293437 -0.00377805 0)
(-0.28926 -0.00379774 0)
(-0.285075 -0.00381393 0)
(-0.280885 -0.00382632 0)
(-0.276692 -0.00383463 0)
(-0.2725 -0.00383856 0)
(-0.268311 -0.00383781 0)
(-0.264127 -0.00383203 0)
(-0.259953 -0.00382086 0)
(-0.255792 -0.00380384 0)
(-0.251646 -0.00378045 0)
(-0.24752 -0.00374998 0)
(-0.243417 -0.00371158 0)
(-0.239341 -0.00366428 0)
(-0.235297 -0.00360702 0)
(-0.23129 -0.00353881 0)
(-0.227324 -0.00345874 0)
(-0.223405 -0.00336594 0)
(-0.21954 -0.00325967 0)
(-0.215734 -0.00313941 0)
(-0.211993 -0.00300547 0)
(-0.208325 -0.00285974 0)
(-0.204733 -0.00270621 0)
(-0.201221 -0.00255084 0)
(-0.197791 -0.00240013 0)
(-0.19444 -0.0022589 0)
(-0.191165 -0.00212828 0)
(-0.187964 -0.0020051 0)
(-0.184837 -0.00188302 0)
(-0.181786 -0.00175491 0)
(-0.178819 -0.00161508 0)
(-0.175944 -0.00146029 0)
(-0.17317 -0.00128945 0)
(-0.170509 -0.00110268 0)
(-0.16797 -0.000900426 0)
(-0.165565 -0.000683137 0)
(-0.163305 -0.000451512 0)
(-0.161202 -0.000206947 0)
(-0.159269 4.80773e-05 0)
(-0.157516 0.000309794 0)
(-0.155955 0.000573161 0)
(-0.154592 0.000832115 0)
(-0.153434 0.00108014 0)
(-0.152482 0.00131099 0)
(-0.151734 0.00151898 0)
(-0.151183 0.00169833 0)
(-0.150817 0.00184194 0)
(-0.150617 0.00194054 0)
(-0.150556 0.00198404 0)
(-0.150598 0.00196556 0)
(-0.150696 0.00187885 0)
(-0.150805 0.00171352 0)
(-0.150861 0.00145476 0)
(-0.15079 0.00108891 0)
(-0.150522 0.000611978 0)
(-0.14999 4.27523e-05 0)
(-0.149144 -0.000567559 0)
(-0.147968 -0.00114086 0)
(-0.146481 -0.00159531 0)
(-0.144742 -0.00187541 0)
(-0.142825 -0.00197191 0)
(-0.140812 -0.00192196 0)
(-0.138767 -0.00179215 0)
(-0.136733 -0.00165419 0)
(-0.134726 -0.00156384 0)
(-0.132743 -0.00154954 0)
(-0.130769 -0.00161231 0)
(-0.128782 -0.00173427 0)
(-0.12676 -0.0018902 0)
(-0.124686 -0.00205709 0)
(-0.122549 -0.00221924 0)
(-0.120345 -0.00236892 0)
(-0.118075 -0.00250448 0)
(-0.11574 -0.00262741 0)
(-0.113344 -0.00274012 0)
(-0.110889 -0.00284486 0)
(-0.108377 -0.00294341 0)
(-0.105811 -0.00303725 0)
(-0.103194 -0.00312763 0)
(-0.100529 -0.00321553 0)
(-0.0978209 -0.0033016 0)
(-0.0950731 -0.00338622 0)
(-0.0922886 -0.00346953 0)
(-0.0894694 -0.00355165 0)
(-0.0866175 -0.00363278 0)
(-0.0837344 -0.00371318 0)
(-0.080822 -0.00379297 0)
(-0.0778818 -0.00387206 0)
(-0.0749159 -0.00395032 0)
(-0.0719261 -0.00402787 0)
(-0.068914 -0.00410471 0)
(-0.065881 -0.00418061 0)
(-0.0628284 -0.0042553 0)
(-0.0597574 -0.00432852 0)
(-0.0566688 -0.00440004 0)
(-0.0535627 -0.00446963 0)
(-0.0504393 -0.00453709 0)
(-0.0472988 -0.00460211 0)
(-0.0441411 -0.00466424 0)
(-0.0409663 -0.0047232 0)
(-0.0377747 -0.00477893 0)
(-0.0345662 -0.00483111 0)
(-0.0313409 -0.00487853 0)
(-0.0280997 -0.00491825 0)
(-0.0248454 -0.00494624 0)
(-0.0215814 -0.00496249 0)
(-0.0183079 -0.00498138 0)
(-0.0150205 -0.00504507 0)
(-0.011709 -0.00521664 0)
(-0.00829934 -0.00551371 0)
(-0.00464324 -0.00561308 0)
(-0.00111865 -0.00407934 0)
(-0.00252429 0.00535604 0)
(-0.00364472 0.00152885 0)
(-0.00514025 0.00226872 0)
(-0.00726506 0.00320597 0)
(-0.00959033 0.00353936 0)
(-0.0119967 0.00355296 0)
(-0.0143201 0.00349211 0)
(-0.0166107 0.00344393 0)
(-0.0188747 0.00340968 0)
(-0.021118 0.00337778 0)
(-0.0233373 0.00334384 0)
(-0.0255303 0.00330869 0)
(-0.0276961 0.00327429 0)
(-0.0298352 0.00324238 0)
(-0.0319482 0.00321445 0)
(-0.0340365 0.00319187 0)
(-0.0361019 0.00317606 0)
(-0.0381463 0.00316832 0)
(-0.0401719 0.00316979 0)
(-0.0421812 0.00318149 0)
(-0.0441773 0.00320428 0)
(-0.0461627 0.00323888 0)
(-0.0481401 0.00328586 0)
(-0.0501124 0.00334548 0)
(-0.0520823 0.00341767 0)
(-0.0540523 0.00350218 0)
(-0.0560248 0.00359871 0)
(-0.058002 0.00370683 0)
(-0.059986 0.00382591 0)
(-0.0619786 0.00395513 0)
(-0.0639813 0.00409348 0)
(-0.0659955 0.00423975 0)
(-0.0680224 0.0043928 0)
(-0.0700631 0.00455167 0)
(-0.0721183 0.0047156 0)
(-0.0741885 0.00488405 0)
(-0.0762741 0.00505667 0)
(-0.0783751 0.00523328 0)
(-0.0804913 0.00541356 0)
(-0.0826222 0.00559677 0)
(-0.084768 0.0057816 0)
(-0.0869292 0.0059663 0)
(-0.0891069 0.00614891 0)
(-0.0913027 0.00632767 0)
(-0.0935184 0.00650115 0)
(-0.0957556 0.00666851 0)
(-0.0980158 0.0068296 0)
(-0.1003 0.00698488 0)
(-0.10261 0.00713516 0)
(-0.104944 0.00728098 0)
(-0.107303 0.00742176 0)
(-0.109686 0.00755514 0)
(-0.112094 0.007677 0)
(-0.114532 0.00778223 0)
(-0.117006 0.00786632 0)
(-0.119529 0.00792708 0)
(-0.122115 0.00796581 0)
(-0.12478 0.00798746 0)
(-0.127535 0.00799942 0)
(-0.130385 0.00800954 0)
(-0.133331 0.00802412 0)
(-0.136368 0.00804688 0)
(-0.139491 0.00807913 0)
(-0.142691 0.00812057 0)
(-0.145964 0.00817005 0)
(-0.149304 0.0082262 0)
(-0.152706 0.00828772 0)
(-0.156167 0.0083535 0)
(-0.159685 0.00842262 0)
(-0.163257 0.00849429 0)
(-0.16688 0.00856782 0)
(-0.170554 0.00864265 0)
(-0.174276 0.00871837 0)
(-0.178046 0.00879479 0)
(-0.181862 0.00887178 0)
(-0.185723 0.00894925 0)
(-0.189626 0.00902688 0)
(-0.193571 0.00910411 0)
(-0.197555 0.00918008 0)
(-0.201577 0.00925385 0)
(-0.205636 0.00932457 0)
(-0.209731 0.00939166 0)
(-0.213861 0.00945491 0)
(-0.218025 0.00951462 0)
(-0.222221 0.00957146 0)
(-0.226447 0.00962643 0)
(-0.2307 0.00968065 0)
(-0.234978 0.00973512 0)
(-0.239279 0.00979051 0)
(-0.2436 0.00984697 0)
(-0.247942 0.00990419 0)
(-0.252302 0.00996145 0)
(-0.25668 0.0100177 0)
(-0.261077 0.0100719 0)
(-0.265491 0.0101229 0)
(-0.269922 0.0101698 0)
(-0.274369 0.0102118 0)
(-0.278831 0.0102487 0)
(-0.283307 0.0102799 0)
(-0.287795 0.0103054 0)
(-0.292292 0.010325 0)
(-0.296796 0.0103387 0)
(-0.301305 0.0103464 0)
(-0.305817 0.0103482 0)
(-0.310328 0.0103441 0)
(-0.314835 0.0103341 0)
(-0.319336 0.0103183 0)
(-0.323829 0.0102965 0)
(-0.328309 0.0102687 0)
(-0.332774 0.0102349 0)
(-0.33722 0.0101951 0)
(-0.341646 0.010149 0)
(-0.346047 0.0100969 0)
(-0.35042 0.0100385 0)
(-0.354763 0.00997383 0)
(-0.359071 0.00990294 0)
(-0.363343 0.00982578 0)
(-0.367575 0.00974238 0)
(-0.371763 0.00965279 0)
(-0.375904 0.00955708 0)
(-0.379996 0.00945533 0)
(-0.384035 0.00934763 0)
(-0.388018 0.00923406 0)
(-0.391942 0.0091147 0)
(-0.395804 0.00898963 0)
(-0.399601 0.00885895 0)
(-0.403331 0.00872275 0)
(-0.40699 0.00858107 0)
(-0.410575 0.00843395 0)
(-0.414084 0.00828145 0)
(-0.417514 0.00812361 0)
(-0.420862 0.00796044 0)
(-0.424126 0.00779195 0)
(-0.427303 0.00761805 0)
(-0.43039 0.00743861 0)
(-0.433383 0.00725334 0)
(-0.436281 0.00706173 0)
(-0.439079 0.00686302 0)
(-0.441775 0.00665639 0)
(-0.444365 0.00644143 0)
(-0.446847 0.00621879 0)
(-0.449219 0.00599072 0)
(-0.451477 0.0057611 0)
(-0.45362 0.00553479 0)
(-0.455643 0.00531647 0)
(-0.45754 0.00510938 0)
(-0.459308 0.00491446 0)
(-0.460942 0.00473008 0)
(-0.462441 0.00455254 0)
(-0.463806 0.00437717 0)
(-0.465041 0.00419959 0)
(-0.466151 0.00401673 0)
(-0.467141 0.00382723 0)
(-0.468014 0.00363124 0)
(-0.468775 0.0034298 0)
(-0.469425 0.00322427 0)
(-0.469964 0.00301596 0)
(-0.470393 0.00280605 0)
(-0.470713 0.00259579 0)
(-0.470922 0.0023865 0)
(-0.471019 0.00217932 0)
(-0.471004 0.00197489 0)
(-0.470874 0.00177301 0)
(-0.470628 0.00157267 0)
(-0.470265 0.00137245 0)
(-0.469786 0.00117101 0)
(-0.469193 0.000967245 0)
(-0.46849 0.000760442 0)
(-0.467687 0.000553319 0)
(-0.466781 0.000349968 0)
(-0.465766 0.000146681 0)
(-0.464649 -5.8338e-05 0)
(-0.463434 -0.000266002 0)
(-0.462126 -0.000477286 0)
(-0.460728 -0.000693501 0)
(-0.459247 -0.000917072 0)
(-0.457693 -0.00115357 0)
(-0.456079 -0.00141002 0)
(-0.454439 -0.00168276 0)
(-0.452772 -0.00195764 0)
(-0.451079 -0.00222584 0)
(-0.449355 -0.00248314 0)
(-0.447596 -0.00272731 0)
(-0.445792 -0.00295761 0)
(-0.443937 -0.00317449 0)
(-0.442025 -0.00337927 0)
(-0.440051 -0.0035738 0)
(-0.438011 -0.00376009 0)
(-0.435904 -0.00394004 0)
(-0.433728 -0.00411527 0)
(-0.431484 -0.00428713 0)
(-0.429171 -0.00445673 0)
(-0.426792 -0.0046251 0)
(-0.424346 -0.0047933 0)
(-0.421835 -0.00496252 0)
(-0.41926 -0.00513411 0)
(-0.416621 -0.0053096 0)
(-0.413922 -0.00549074 0)
(-0.411164 -0.0056793 0)
(-0.408351 -0.0058769 0)
(-0.405488 -0.00608452 0)
(-0.402581 -0.00630198 0)
(-0.399638 -0.00652743 0)
(-0.396666 -0.00675703 0)
(-0.393672 -0.00698512 0)
(-0.390661 -0.00720489 0)
(-0.387632 -0.00740941 0)
(-0.384584 -0.0075928 0)
(-0.381512 -0.00775127 0)
(-0.37841 -0.00788372 0)
(-0.375272 -0.00799195 0)
(-0.372093 -0.0080803 0)
(-0.368868 -0.00815483 0)
(-0.365596 -0.00822225 0)
(-0.362278 -0.00828869 0)
(-0.358915 -0.00835879 0)
(-0.35551 -0.00843509 0)
(-0.352065 -0.0085181 0)
(-0.348584 -0.00860675 0)
(-0.345069 -0.00869904 0)
(-0.341522 -0.00879275 0)
(-0.337944 -0.00888596 0)
(-0.334338 -0.00897727 0)
(-0.330706 -0.00906584 0)
(-0.327051 -0.00915122 0)
(-0.323375 -0.00923318 0)
(-0.319681 -0.00931151 0)
(-0.315971 -0.00938593 0)
(-0.312248 -0.00945609 0)
(-0.308513 -0.00952161 0)
(-0.304771 -0.00958218 0)
(-0.301022 -0.00963755 0)
(-0.297268 -0.0096876 0)
(-0.293513 -0.00973224 0)
(-0.289757 -0.00977146 0)
(-0.286003 -0.00980526 0)
(-0.282253 -0.00983367 0)
(-0.278507 -0.00985672 0)
(-0.274769 -0.00987445 0)
(-0.271038 -0.0098869 0)
(-0.267317 -0.00989409 0)
(-0.263607 -0.00989602 0)
(-0.259909 -0.00989272 0)
(-0.256223 -0.00988425 0)
(-0.25255 -0.00987064 0)
(-0.248891 -0.00985193 0)
(-0.245245 -0.00982816 0)
(-0.241614 -0.00979936 0)
(-0.237996 -0.00976553 0)
(-0.234392 -0.00972666 0)
(-0.2308 -0.00968264 0)
(-0.227219 -0.00963329 0)
(-0.223649 -0.0095784 0)
(-0.220086 -0.00951769 0)
(-0.216528 -0.00945091 0)
(-0.212973 -0.00937774 0)
(-0.209416 -0.00929788 0)
(-0.205855 -0.009211 0)
(-0.202286 -0.00911689 0)
(-0.198704 -0.00901571 0)
(-0.195107 -0.00890818 0)
(-0.191494 -0.00879564 0)
(-0.187867 -0.00867981 0)
(-0.184229 -0.00856207 0)
(-0.180588 -0.00844271 0)
(-0.176948 -0.00832039 0)
(-0.173315 -0.00819233 0)
(-0.169688 -0.00805501 0)
(-0.166069 -0.00790505 0)
(-0.162455 -0.00773983 0)
(-0.158841 -0.00755754 0)
(-0.155227 -0.00735678 0)
(-0.15161 -0.00713613 0)
(-0.147988 -0.0068939 0)
(-0.144361 -0.00662816 0)
(-0.140728 -0.00633701 0)
(-0.137089 -0.00601889 0)
(-0.133448 -0.00567301 0)
(-0.129807 -0.00529979 0)
(-0.126173 -0.00490124 0)
(-0.122554 -0.00448128 0)
(-0.118958 -0.00404594 0)
(-0.115396 -0.00360346 0)
(-0.111879 -0.00316443 0)
(-0.108416 -0.00274172 0)
(-0.105015 -0.00235031 0)
(-0.101681 -0.00200686 0)
(-0.0984209 -0.0017285 0)
(-0.0952379 -0.00153479 0)
(-0.0921296 -0.00144634 0)
(-0.0891063 -0.00147837 0)
(-0.0861853 -0.00163526 0)
(-0.083378 -0.00190971 0)
(-0.080701 -0.00228198 0)
(-0.0781648 -0.00272144 0)
(-0.075767 -0.00319074 0)
(-0.0734877 -0.00365111 0)
(-0.0712897 -0.00406751 0)
(-0.0691278 -0.00441283 0)
(-0.0669598 -0.00467055 0)
(-0.0647579 -0.00483588 0)
(-0.0625131 -0.00491561 0)
(-0.0602357 -0.00492699 0)
(-0.0579489 -0.00489515 0)
(-0.0556808 -0.00484848 0)
(-0.0534572 -0.0048126 0)
(-0.0512958 -0.00480475 0)
(-0.0492036 -0.00483056 0)
(-0.0471789 -0.00488525 0)
(-0.0452136 -0.00495893 0)
(-0.0432966 -0.00504245 0)
(-0.0414167 -0.00513002 0)
(-0.0395646 -0.00521901 0)
(-0.0377346 -0.00530829 0)
(-0.0359238 -0.00539638 0)
(-0.0341315 -0.00548071 0)
(-0.0323584 -0.00555778 0)
(-0.0306066 -0.00562476 0)
(-0.0288788 -0.0056809 0)
(-0.0271783 -0.00572707 0)
(-0.0255079 -0.00576529 0)
(-0.02387 -0.00579785 0)
(-0.0222675 -0.00582581 0)
(-0.0207036 -0.0058489 0)
(-0.0191813 -0.00586691 0)
(-0.0177038 -0.00587951 0)
(-0.0162762 -0.00588618 0)
(-0.0149017 -0.00588789 0)
(-0.0135822 -0.00588555 0)
(-0.0123233 -0.0058791 0)
(-0.011129 -0.0058698 0)
(-0.0100018 -0.00585872 0)
(-0.0089446 -0.00584728 0)
(-0.0079585 -0.00583692 0)
(-0.0070443 -0.00582842 0)
(-0.00620257 -0.00582227 0)
(-0.00543248 -0.00581898 0)
(-0.00473289 -0.00581825 0)
(-0.00410086 -0.00582009 0)
(-0.00353373 -0.00582512 0)
(-0.00302886 -0.00583279 0)
(-0.00257985 -0.00584385 0)
(-0.0021804 -0.00585774 0)
(-0.00182227 -0.00587458 0)
(-0.00149602 -0.00589364 0)
(-0.00118942 -0.0059096 0)
(-0.000972316 -0.00591102 0)
(-0.000735135 -0.00609095 0)
(-0.00064443 -0.00654156 0)
(8.53706e-05 -0.00536119 0)
(-0.00245815 0.0105749 0)
(-0.00337074 0.00385099 0)
(-0.00453976 0.00523386 0)
(-0.00636423 0.00694118 0)
(-0.00844031 0.00757313 0)
(-0.0106183 0.00757486 0)
(-0.0127121 0.00743084 0)
(-0.0147615 0.00731655 0)
(-0.0167773 0.00723569 0)
(-0.0187698 0.00716141 0)
(-0.0207374 0.00708239 0)
(-0.0226785 0.00699962 0)
(-0.0245926 0.00691701 0)
(-0.0264803 0.00683771 0)
(-0.0283428 0.00676407 0)
(-0.0301817 0.00669811 0)
(-0.0319994 0.00664166 0)
(-0.0337982 0.00659633 0)
(-0.0355806 0.00656357 0)
(-0.0373497 0.00654459 0)
(-0.0391089 0.00654036 0)
(-0.040861 0.00655153 0)
(-0.042609 0.00657847 0)
(-0.0443563 0.00662129 0)
(-0.0461057 0.00667979 0)
(-0.0478602 0.00675365 0)
(-0.0496224 0.00684227 0)
(-0.051395 0.00694482 0)
(-0.0531803 0.00706045 0)
(-0.0549806 0.0071882 0)
(-0.0567978 0.00732702 0)
(-0.0586341 0.00747576 0)
(-0.0604912 0.00763315 0)
(-0.062371 0.00779798 0)
(-0.0642749 0.00796917 0)
(-0.0662045 0.00814583 0)
(-0.0681609 0.00832737 0)
(-0.0701453 0.00851357 0)
(-0.0721584 0.00870433 0)
(-0.0742012 0.00889949 0)
(-0.0762745 0.00909842 0)
(-0.0783794 0.0092999 0)
(-0.0805174 0.00950235 0)
(-0.0826899 0.00970415 0)
(-0.0848987 0.00990403 0)
(-0.0871455 0.0101012 0)
(-0.0894319 0.010295 0)
(-0.0917592 0.0104853 0)
(-0.0941283 0.0106718 0)
(-0.0965399 0.0108549 0)
(-0.0989945 0.0110351 0)
(-0.101493 0.0112133 0)
(-0.104039 0.011391 0)
(-0.106634 0.0115691 0)
(-0.109285 0.0117484 0)
(-0.111998 0.0119288 0)
(-0.114776 0.0121099 0)
(-0.117624 0.0122905 0)
(-0.120542 0.0124694 0)
(-0.123528 0.0126453 0)
(-0.126578 0.0128177 0)
(-0.129687 0.0129866 0)
(-0.13285 0.0131525 0)
(-0.136063 0.013316 0)
(-0.139324 0.0134776 0)
(-0.142631 0.0136377 0)
(-0.145981 0.0137964 0)
(-0.149375 0.0139539 0)
(-0.152812 0.0141102 0)
(-0.15629 0.0142656 0)
(-0.15981 0.0144198 0)
(-0.163372 0.014573 0)
(-0.166973 0.0147248 0)
(-0.170616 0.014875 0)
(-0.174298 0.0150233 0)
(-0.178019 0.0151693 0)
(-0.181778 0.015313 0)
(-0.185575 0.0154542 0)
(-0.18941 0.0155927 0)
(-0.193281 0.0157282 0)
(-0.197188 0.0158599 0)
(-0.201132 0.0159868 0)
(-0.205111 0.0161083 0)
(-0.209125 0.0162237 0)
(-0.213173 0.0163334 0)
(-0.217253 0.0164379 0)
(-0.221364 0.0165385 0)
(-0.225504 0.0166366 0)
(-0.229672 0.0167336 0)
(-0.233864 0.01683 0)
(-0.23808 0.0169259 0)
(-0.242317 0.0170204 0)
(-0.246574 0.0171124 0)
(-0.25085 0.0172002 0)
(-0.255143 0.0172823 0)
(-0.259451 0.0173577 0)
(-0.263773 0.0174252 0)
(-0.268107 0.0174841 0)
(-0.272452 0.0175338 0)
(-0.276805 0.017574 0)
(-0.281165 0.0176045 0)
(-0.285529 0.017625 0)
(-0.289896 0.0176353 0)
(-0.294264 0.0176354 0)
(-0.298629 0.0176251 0)
(-0.302989 0.0176044 0)
(-0.307342 0.0175732 0)
(-0.311686 0.0175312 0)
(-0.316017 0.0174786 0)
(-0.320334 0.017415 0)
(-0.324632 0.0173405 0)
(-0.328911 0.0172549 0)
(-0.333166 0.0171581 0)
(-0.337395 0.0170502 0)
(-0.341595 0.0169311 0)
(-0.345764 0.0168008 0)
(-0.349899 0.0166592 0)
(-0.353997 0.0165065 0)
(-0.358054 0.0163428 0)
(-0.362069 0.0161681 0)
(-0.366039 0.0159825 0)
(-0.369961 0.0157862 0)
(-0.373832 0.0155793 0)
(-0.377649 0.015362 0)
(-0.381411 0.0151345 0)
(-0.385114 0.014897 0)
(-0.388756 0.0146496 0)
(-0.392335 0.0143925 0)
(-0.395847 0.014126 0)
(-0.399292 0.0138502 0)
(-0.402667 0.0135652 0)
(-0.40597 0.0132713 0)
(-0.409198 0.0129684 0)
(-0.412351 0.0126566 0)
(-0.415426 0.0123361 0)
(-0.418421 0.0120069 0)
(-0.421336 0.011669 0)
(-0.42417 0.0113224 0)
(-0.426921 0.0109669 0)
(-0.42959 0.0106022 0)
(-0.432176 0.0102274 0)
(-0.434679 0.00984221 0)
(-0.437099 0.00944789 0)
(-0.439433 0.00904805 0)
(-0.441677 0.00864874 0)
(-0.443829 0.00825686 0)
(-0.445885 0.00787753 0)
(-0.447842 0.00751193 0)
(-0.449699 0.00715689 0)
(-0.451456 0.0068064 0)
(-0.453113 0.00645423 0)
(-0.454672 0.00609611 0)
(-0.456132 0.00573052 0)
(-0.457495 0.00535814 0)
(-0.45876 0.00498062 0)
(-0.459925 0.00459955 0)
(-0.460992 0.00421595 0)
(-0.461958 0.00383018 0)
(-0.462824 0.00344222 0)
(-0.463589 0.00305181 0)
(-0.464252 0.00265886 0)
(-0.464813 0.00226354 0)
(-0.465271 0.00186646 0)
(-0.465625 0.0014685 0)
(-0.465876 0.00107057 0)
(-0.466025 0.000673339 0)
(-0.466071 0.000277608 0)
(-0.46601 -0.000116378 0)
(-0.465833 -0.000511266 0)
(-0.465553 -0.000904152 0)
(-0.465179 -0.0012946 0)
(-0.464706 -0.00168327 0)
(-0.464133 -0.00207046 0)
(-0.463461 -0.00245615 0)
(-0.462691 -0.00283977 0)
(-0.461823 -0.00321938 0)
(-0.460861 -0.00358954 0)
(-0.459807 -0.00394252 0)
(-0.458663 -0.00427893 0)
(-0.457431 -0.00460842 0)
(-0.456113 -0.00493597 0)
(-0.45471 -0.00526275 0)
(-0.453222 -0.00558876 0)
(-0.451648 -0.00591355 0)
(-0.449988 -0.00623637 0)
(-0.44824 -0.00655645 0)
(-0.446405 -0.006873 0)
(-0.444482 -0.00718537 0)
(-0.442474 -0.00749313 0)
(-0.44038 -0.00779608 0)
(-0.438203 -0.00809431 0)
(-0.435944 -0.00838818 0)
(-0.433605 -0.00867827 0)
(-0.43119 -0.00896533 0)
(-0.428699 -0.00925029 0)
(-0.426136 -0.00953417 0)
(-0.423503 -0.00981814 0)
(-0.420805 -0.0101034 0)
(-0.418044 -0.0103908 0)
(-0.415225 -0.0106808 0)
(-0.412353 -0.0109728 0)
(-0.409431 -0.0112648 0)
(-0.406467 -0.0115535 0)
(-0.403462 -0.0118339 0)
(-0.400422 -0.0121007 0)
(-0.397348 -0.0123484 0)
(-0.394243 -0.0125732 0)
(-0.391105 -0.0127735 0)
(-0.387933 -0.0129505 0)
(-0.384726 -0.0131081 0)
(-0.381481 -0.0132522 0)
(-0.378194 -0.0133895 0)
(-0.374864 -0.0135259 0)
(-0.371489 -0.0136654 0)
(-0.368071 -0.01381 0)
(-0.36461 -0.0139594 0)
(-0.361109 -0.0141118 0)
(-0.357572 -0.0142648 0)
(-0.354002 -0.0144158 0)
(-0.350401 -0.014563 0)
(-0.346774 -0.0147049 0)
(-0.343123 -0.0148408 0)
(-0.339449 -0.0149702 0)
(-0.335756 -0.0150927 0)
(-0.332045 -0.0152081 0)
(-0.328318 -0.015316 0)
(-0.324577 -0.0154158 0)
(-0.320824 -0.0155072 0)
(-0.317063 -0.0155899 0)
(-0.313294 -0.0156637 0)
(-0.309519 -0.0157286 0)
(-0.305742 -0.0157846 0)
(-0.301963 -0.0158317 0)
(-0.298184 -0.0158701 0)
(-0.294407 -0.0158998 0)
(-0.290635 -0.0159211 0)
(-0.286868 -0.0159342 0)
(-0.283108 -0.0159391 0)
(-0.279357 -0.0159362 0)
(-0.275617 -0.0159255 0)
(-0.271889 -0.0159073 0)
(-0.268174 -0.0158819 0)
(-0.264475 -0.0158495 0)
(-0.260792 -0.0158104 0)
(-0.257126 -0.0157649 0)
(-0.253479 -0.0157134 0)
(-0.249852 -0.015656 0)
(-0.246246 -0.0155932 0)
(-0.242661 -0.0155251 0)
(-0.239099 -0.0154522 0)
(-0.23556 -0.015375 0)
(-0.232045 -0.0152937 0)
(-0.228554 -0.015209 0)
(-0.225087 -0.0151214 0)
(-0.221644 -0.0150314 0)
(-0.218224 -0.0149395 0)
(-0.214828 -0.0148461 0)
(-0.211454 -0.0147519 0)
(-0.208102 -0.0146571 0)
(-0.20477 -0.0145618 0)
(-0.201458 -0.0144653 0)
(-0.198165 -0.014366 0)
(-0.19489 -0.0142616 0)
(-0.191635 -0.0141498 0)
(-0.188398 -0.014029 0)
(-0.185182 -0.0138988 0)
(-0.181986 -0.0137601 0)
(-0.178808 -0.0136143 0)
(-0.175646 -0.0134623 0)
(-0.172498 -0.0133044 0)
(-0.169359 -0.0131401 0)
(-0.166226 -0.012968 0)
(-0.163093 -0.0127867 0)
(-0.159957 -0.0125945 0)
(-0.15681 -0.0123896 0)
(-0.153647 -0.0121702 0)
(-0.150461 -0.0119345 0)
(-0.147244 -0.0116807 0)
(-0.143989 -0.0114072 0)
(-0.140689 -0.0111134 0)
(-0.137337 -0.0107996 0)
(-0.133929 -0.0104679 0)
(-0.130464 -0.0101228 0)
(-0.126943 -0.0097715 0)
(-0.123369 -0.00942424 0)
(-0.119753 -0.00909392 0)
(-0.116107 -0.00879487 0)
(-0.112453 -0.0085418 0)
(-0.108815 -0.00834667 0)
(-0.10522 -0.00821631 0)
(-0.101694 -0.00815265 0)
(-0.0982623 -0.00815376 0)
(-0.0949511 -0.00821397 0)
(-0.0917802 -0.00832294 0)
(-0.0887604 -0.00846433 0)
(-0.0858918 -0.00861678 0)
(-0.0831634 -0.0087587 0)
(-0.0805544 -0.00887416 0)
(-0.0780377 -0.0089564 0)
(-0.0755841 -0.00900683 0)
(-0.0731662 -0.00903057 0)
(-0.0707628 -0.0090318 0)
(-0.0683613 -0.00901202 0)
(-0.0659583 -0.00897162 0)
(-0.0635589 -0.0089127 0)
(-0.0611753 -0.00884078 0)
(-0.0588222 -0.00876441 0)
(-0.0565111 -0.00869382 0)
(-0.054248 -0.00863881 0)
(-0.0520336 -0.00860618 0)
(-0.049864 -0.0085977 0)
(-0.0477335 -0.00861003 0)
(-0.0456373 -0.00863655 0)
(-0.0435728 -0.00866933 0)
(-0.0415393 -0.00870128 0)
(-0.0395366 -0.00872713 0)
(-0.0375646 -0.0087437 0)
(-0.0356221 -0.00874966 0)
(-0.0337081 -0.00874485 0)
(-0.0318218 -0.00872962 0)
(-0.0299634 -0.00870451 0)
(-0.0281343 -0.00866972 0)
(-0.0263358 -0.00862467 0)
(-0.0245702 -0.00856861 0)
(-0.0228405 -0.00850096 0)
(-0.0211497 -0.00842129 0)
(-0.0195014 -0.00832929 0)
(-0.0178983 -0.0082241 0)
(-0.0163429 -0.00810592 0)
(-0.0148407 -0.00797549 0)
(-0.0133968 -0.00783288 0)
(-0.0120153 -0.00767953 0)
(-0.0107017 -0.00751803 0)
(-0.00946031 -0.0073508 0)
(-0.00829533 -0.00717932 0)
(-0.00721191 -0.00700661 0)
(-0.00621413 -0.00683444 0)
(-0.00530417 -0.00666455 0)
(-0.00448279 -0.00649901 0)
(-0.00375088 -0.00634054 0)
(-0.00310827 -0.00619152 0)
(-0.00255168 -0.00605427 0)
(-0.00207746 -0.0059308 0)
(-0.00167989 -0.00582603 0)
(-0.00135393 -0.00574441 0)
(-0.0010863 -0.00567358 0)
(-0.000945357 -0.00560581 0)
(-0.000676717 -0.0058096 0)
(-0.000395426 -0.00663186 0)
(0.000463832 -0.004797 0)
(-0.00234648 0.0150049 0)
(-0.00313761 0.00531866 0)
(-0.0040554 0.0072332 0)
(-0.00562498 0.00971681 0)
(-0.00744513 0.0106763 0)
(-0.00939256 0.0106857 0)
(-0.0112636 0.0104589 0)
(-0.0130917 0.0102733 0)
(-0.0148839 0.0101439 0)
(-0.0166517 0.0100294 0)
(-0.0183945 0.00990973 0)
(-0.0201109 0.00978458 0)
(-0.0218004 0.00965963 0)
(-0.023464 0.00953981 0)
(-0.0251031 0.00942873 0)
(-0.0267198 0.0093291 0)
(-0.0283174 0.00924349 0)
(-0.0298989 0.00917426 0)
(-0.0314678 0.00912336 0)
(-0.0330284 0.00909236 0)
(-0.034585 0.00908256 0)
(-0.0361419 0.00909477 0)
(-0.0377036 0.00912935 0)
(-0.0392748 0.00918641 0)
(-0.0408596 0.00926567 0)
(-0.0424622 0.00936652 0)
(-0.0440866 0.00948805 0)
(-0.0457367 0.00962923 0)
(-0.0474159 0.00978887 0)
(-0.0491273 0.00996563 0)
(-0.0508738 0.010158 0)
(-0.0526579 0.0103646 0)
(-0.054482 0.010584 0)
(-0.056348 0.0108146 0)
(-0.0582579 0.0110551 0)
(-0.0602132 0.0113044 0)
(-0.0622152 0.0115615 0)
(-0.0642647 0.0118256 0)
(-0.0663624 0.0120962 0)
(-0.0685085 0.0123725 0)
(-0.0707026 0.0126537 0)
(-0.0729445 0.0129383 0)
(-0.0752336 0.0132248 0)
(-0.0775697 0.0135119 0)
(-0.0799525 0.0137985 0)
(-0.082382 0.0140839 0)
(-0.0848581 0.0143678 0)
(-0.0873809 0.0146497 0)
(-0.0899504 0.0149296 0)
(-0.0925665 0.0152073 0)
(-0.0952293 0.0154828 0)
(-0.0979383 0.0157559 0)
(-0.100693 0.0160266 0)
(-0.103492 0.016294 0)
(-0.106335 0.0165572 0)
(-0.10922 0.0168146 0)
(-0.112146 0.0170649 0)
(-0.115112 0.0173073 0)
(-0.118118 0.0175418 0)
(-0.121164 0.0177692 0)
(-0.124251 0.017991 0)
(-0.127379 0.0182092 0)
(-0.130548 0.0184253 0)
(-0.133759 0.0186406 0)
(-0.13701 0.0188558 0)
(-0.140302 0.0190713 0)
(-0.143634 0.0192869 0)
(-0.147005 0.0195025 0)
(-0.150415 0.0197179 0)
(-0.153863 0.0199329 0)
(-0.15735 0.0201472 0)
(-0.160874 0.0203606 0)
(-0.164436 0.0205727 0)
(-0.168035 0.0207834 0)
(-0.171671 0.0209923 0)
(-0.175344 0.0211989 0)
(-0.179053 0.0214031 0)
(-0.182798 0.0216042 0)
(-0.186579 0.021802 0)
(-0.190395 0.0219958 0)
(-0.194245 0.0221852 0)
(-0.19813 0.0223695 0)
(-0.202049 0.0225482 0)
(-0.206002 0.022721 0)
(-0.209989 0.0228878 0)
(-0.21401 0.0230486 0)
(-0.218064 0.0232037 0)
(-0.22215 0.0233533 0)
(-0.226266 0.0234978 0)
(-0.23041 0.023637 0)
(-0.234581 0.0237708 0)
(-0.238775 0.0238985 0)
(-0.24299 0.0240194 0)
(-0.247225 0.0241324 0)
(-0.251478 0.0242367 0)
(-0.255746 0.0243314 0)