/*--------------------------------*- C++ -*----------------------------------*\
| =========                 |                                                 |
| \\      /  F ield         | OpenFOAM: The Open Source CFD Toolbox           |
|  \\    /   O peration     | Version:  v2006                                 |
|   \\  /    A nd           | Website:  www.openfoam.com                      |
|    \\/     M anipulation  |                                                 |
\*---------------------------------------------------------------------------*/
FoamFile
{
    version     2.0;
    format      ascii;
    class       volScalarField;
    location    "0";
    object      p;
}
// * * * * * * * * * * * * * * * * * * * * * * * * * * * * * * * * * * * * * //

dimensions      [1 -1 -2 0 0 0 0];


internalField   nonuniform List<scalar> 
20000
(
0.000137586
0.000138016
0.000138866
0.000140041
0.000141579
0.000143438
0.000145575
0.000147924
0.000150401
0.000152912
0.00015534
0.00015754
0.000159339
0.000160524
0.000160841
0.000159986
0.000157592
0.000153225
0.000146364
0.000136395
0.000122593
0.000104101
7.99177e-05
4.88791e-05
9.64059e-06
-3.93334e-05
-9.97697e-05
-0.000173569
-0.000262759
-0.00036941
-0.000495482
-0.000642587
-0.000811622
-0.00100229
-0.00121254
-0.001438
-0.00167159
-0.00190363
-0.00212309
-0.00232062
-0.00249399
-0.00265429
-0.00282759
-0.00304414
-0.00330276
-0.00364637
-0.00403349
-0.00443414
-0.00479519
-0.00511125
-0.00536419
-0.00554896
-0.00566108
-0.00569744
-0.00565846
-0.00554746
-0.00537247
-0.00514983
-0.00490395
-0.00466265
-0.0044529
-0.00429708
-0.00421788
-0.00423755
-0.00437133
-0.00462645
-0.00500868
-0.00551928
-0.00615514
-0.00690863
-0.00776734
-0.00871384
-0.00972562
-0.0107757
-0.0118329
-0.0128633
-0.0138256
-0.0146882
-0.0154471
-0.0160732
-0.0165558
-0.0168941
-0.0171011
-0.0172
-0.0172063
-0.0171407
-0.0170183
-0.0168447
-0.0166157
-0.0163197
-0.0159414
-0.0154658
-0.0148824
-0.0141874
-0.013385
-0.0124897
-0.0115253
-0.0105048
-0.0094741
-0.00845217
-0.00744789
-0.00647305
-0.00553957
-0.00466322
-0.00386804
-0.0031816
-0.00262263
-0.0021897
-0.00185791
-0.00158735
-0.00134042
-0.00109604
-0.00085041
-0.000608762
-0.000378559
-0.000166774
2.14564e-05
0.000183493
0.000318874
0.000428655
0.000514855
0.000580018
0.000626873
0.000658109
0.000676249
0.000683581
0.000682128
0.000673647
0.000659645
0.000641396
0.000619969
0.000596256
0.000570989
0.000544769
0.000518081
0.000491316
0.000464785
0.000438728
0.000413333
0.00038874
0.00036505
0.000342333
0.000320635
0.000299979
0.000280373
0.000261811
0.000244279
0.000227753
0.000212203
0.000197598
0.000183931
0.000171073
0.000159042
0.000147797
0.000137297
0.000127499
0.000118363
0.000109849
0.00010192
9.45404e-05
8.76747e-05
8.12905e-05
7.53567e-05
6.98435e-05
6.47232e-05
5.99695e-05
5.55573e-05
5.14634e-05
4.76659e-05
4.41439e-05
4.08782e-05
3.78509e-05
3.50449e-05
3.24448e-05
3.00359e-05
2.78043e-05
2.57374e-05
2.38233e-05
2.20508e-05
2.04097e-05
1.88903e-05
1.74837e-05
1.61818e-05
1.49767e-05
1.38616e-05
1.28297e-05
1.18751e-05
1.0992e-05
1.01753e-05
9.42004e-06
8.72182e-06
8.07634e-06
7.47966e-06
6.9282e-06
6.41868e-06
5.94806e-06
5.51393e-06
5.11242e-06
4.74451e-06
4.39746e-06
0.000137549
0.000137981
0.000138833
0.00014001
0.00014155
0.000143414
0.000145557
0.000147912
0.000150399
0.00015292
0.000155361
0.000157578
0.000159395
0.000160603
0.000160949
0.000160126
0.000157772
0.000153451
0.000146646
0.000136744
0.000123019
0.000104617
8.05395e-05
4.9622e-05
1.05217e-05
-3.82972e-05
-9.85638e-05
-0.000172183
-0.000261191
-0.000367672
-0.00049361
-0.000640649
-0.000809729
-0.0010006
-0.00121125
-0.00143733
-0.00167175
-0.00190472
-0.00212491
-0.00232253
-0.00249478
-0.00265259
-0.00282291
-0.00304085
-0.00334052
-0.00369564
-0.00408254
-0.00447517
-0.00482546
-0.00513295
-0.00537959
-0.00555847
-0.00566419
-0.00569374
-0.00564789
-0.00553047
-0.00534999
-0.00512319
-0.00487469
-0.00463243
-0.00442304
-0.00427151
-0.00419973
-0.00422441
-0.00435904
-0.00461447
-0.00499692
-0.00550798
-0.00614468
-0.00689952
-0.0077601
-0.00870904
-0.00972395
-0.0107776
-0.0118388
-0.012875
-0.0138565
-0.0147515
-0.0155212
-0.0161507
-0.0166337
-0.0169691
-0.0171672
-0.0172534
-0.0172451
-0.017163
-0.0170232
-0.0168321
-0.0165875
-0.0162789
-0.0158917
-0.0154113
-0.0148268
-0.0141337
-0.0133356
-0.0124457
-0.0114852
-0.0104868
-0.0094679
-0.00844807
-0.00744391
-0.00646866
-0.00553401
-0.00465572
-0.00385837
-0.00317051
-0.00261177
-0.00218091
-0.00185237
-0.00158489
-0.0013398
-0.00109591
-0.000849974
-0.000607734
-0.000376937
-0.000164708
2.3762e-05
0.000185853
0.000321153
0.000430763
0.000516743
0.000581667
0.000628283
0.000659294
0.000677229
0.000684379
0.000682768
0.000674151
0.000660033
0.000641687
0.00062018
0.0005964
0.000571079
0.000544814
0.000518091
0.000491298
0.000464744
0.00043867
0.000413262
0.00038866
0.000364963
0.000342242
0.000320542
0.000299885
0.000280279
0.000261719
0.000244189
0.000227664
0.000212114
0.000197502
0.00018378
0.000170949
0.000158939
0.000147711
0.000137223
0.000127434
0.000118305
0.000109797
0.000101873
9.44982e-05
8.76367e-05
8.12562e-05
7.53257e-05
6.98155e-05
6.46979e-05
5.99464e-05
5.55364e-05
5.14444e-05
4.76486e-05
4.41282e-05
4.08639e-05
3.78378e-05
3.5033e-05
3.2434e-05
3.0026e-05
2.77953e-05
2.57291e-05
2.38157e-05
2.20439e-05
2.04034e-05
1.88846e-05
1.74785e-05
1.61769e-05
1.49723e-05
1.38576e-05
1.28261e-05
1.18718e-05
1.0989e-05
1.01726e-05
9.41759e-06
8.71963e-06
8.07439e-06
7.47793e-06
6.92669e-06
6.41738e-06
5.94699e-06
5.51313e-06
5.11212e-06
4.74629e-06
4.39281e-06
0.000137477
0.00013791
0.000138764
0.000139946
0.000141493
0.000143366
0.00014552
0.00014789
0.000150393
0.000152937
0.000155404
0.000157652
0.000159508
0.000160762
0.000161163
0.000160407
0.000158132
0.000153905
0.000147211
0.00013744
0.000123869
0.000105649
8.17816e-05
5.11066e-05
1.22825e-05
-3.62267e-05
-9.61535e-05
-0.000169411
-0.000258054
-0.000364192
-0.000489853
-0.000636746
-0.000805895
-0.00099715
-0.0012086
-0.00143595
-0.00167207
-0.0019069
-0.00212855
-0.00232634
-0.00249671
-0.00265084
-0.00281722
-0.00303058
-0.00331701
-0.00366413
-0.00405461
-0.00443616
-0.00481669
-0.00513017
-0.00538201
-0.00556582
-0.00567614
-0.00571
-0.00566787
-0.00555286
-0.0053726
-0.00514353
-0.00489096
-0.00464359
-0.00442842
-0.00427042
-0.00419117
-0.00420913
-0.00433938
-0.00459282
-0.00497455
-0.00548587
-0.00612371
-0.00688043
-0.00774366
-0.00869596
-0.00971475
-0.0107727
-0.0118384
-0.0128775
-0.0138563
-0.0147434
-0.0155095
-0.0161386
-0.0166186
-0.016954
-0.0171591
-0.0172432
-0.017236
-0.0171587
-0.0170267
-0.0168463
-0.016614
-0.0163175
-0.0159407
-0.0154675
-0.0148862
-0.0141919
-0.0133885
-0.0124896
-0.0115185
-0.0105077
-0.00947772
-0.00844943
-0.00744052
-0.00646204
-0.00552392
-0.0046412
-0.00383919
-0.00314833
-0.00258993
-0.00216326
-0.00184131
-0.00158008
-0.00133868
-0.00109574
-0.000849135
-0.000605683
-0.000373684
-0.000160559
2.83881e-05
0.000190585
0.000325718
0.000434983
0.00052052
0.000584963
0.000631102
0.000661662
0.000679187
0.000685973
0.000684045
0.000675156
0.000660807
0.000642268
0.0006206
0.000596687
0.000571256
0.000544903
0.000518109
0.000491259
0.000464661
0.000438554
0.00041312
0.000388499
0.00036479
0.00034206
0.000320355
0.000299696
0.000280091
0.000261534
0.000244008
0.00022749
0.00021195
0.000197353
0.000183654
0.000170827
0.00015882
0.000147593
0.000137106
0.00012732
0.000118195
0.000109693
0.000101774
9.44034e-05
8.75469e-05
8.11712e-05
7.52456e-05
6.97401e-05
6.46269e-05
5.98798e-05
5.5474e-05
5.1386e-05
4.75939e-05
4.40771e-05
4.08162e-05
3.77933e-05
3.49915e-05
3.23953e-05
2.99899e-05
2.77617e-05
2.5698e-05
2.37868e-05
2.2017e-05
2.03784e-05
1.88613e-05
1.74568e-05
1.61568e-05
1.49536e-05
1.38402e-05
1.281e-05
1.18568e-05
1.09751e-05
1.01596e-05
9.40561e-06
8.70848e-06
8.06401e-06
7.46827e-06
6.91767e-06
6.40897e-06
5.93914e-06
5.50579e-06
5.10528e-06
4.73905e-06
4.38672e-06
0.000137368
0.000137802
0.000138661
0.00013985
0.000141408
0.000143294
0.000145465
0.000147855
0.000150385
0.00015296
0.000155467
0.000157762
0.000159676
0.000160999
0.000161482
0.000160826
0.000158669
0.000154582
0.000148056
0.000138482
0.000125143
0.000107193
8.36411e-05
5.33296e-05
1.492e-05
-3.31236e-05
-9.25392e-05
-0.000165253
-0.000253344
-0.000358963
-0.000484206
-0.000630883
-0.000800144
-0.000991987
-0.00120464
-0.00143389
-0.00167255
-0.00191024
-0.00213422
-0.00233243
-0.00249968
-0.0026466
-0.00280412
-0.00301319
-0.00330326
-0.00366428
-0.00406797
-0.004475
-0.00484126
-0.00515629
-0.00540798
-0.00559092
-0.00569957
-0.00573063
-0.00568471
-0.00556463
-0.00537754
-0.00514035
-0.00487958
-0.00462494
-0.00440395
-0.00424143
-0.0041591
-0.00417534
-0.00430486
-0.00455767
-0.0049395
-0.0054519
-0.00609203
-0.00685249
-0.00772101
-0.00868021
-0.0097075
-0.0107753
-0.0118519
-0.0129027
-0.0138938
-0.0147923
-0.0155675
-0.0162005
-0.016682
-0.0170142
-0.0172071
-0.017282
-0.0172658
-0.0171804
-0.017042
-0.0168574
-0.0166228
-0.0163257
-0.0159488
-0.0154756
-0.0148938
-0.0141983
-0.0133923
-0.0124897
-0.0115154
-0.0105012
-0.00946973
-0.00844083
-0.00743041
-0.00644966
-0.00550765
-0.00461882
-0.00380995
-0.00311455
-0.00255673
-0.00213651
-0.00182473
-0.00157309
-0.00133727
-0.00109564
-0.000847948
-0.000602613
-0.000368774
-0.000154293
3.53679e-05
0.000197714
0.000332586
0.000441325
0.00052619
0.000589908
0.000635327
0.00066521
0.000682119
0.00068836
0.000685956
0.00067666
0.000661965
0.000643135
0.000621226
0.000597114
0.00057152
0.000545035
0.000518134
0.000491201
0.000464536
0.000438378
0.000412907
0.000388257
0.000364528
0.000341787
0.000320075
0.000299414
0.000279811
0.000261258
0.000243738
0.000227226
0.000211692
0.000197101
0.000183409
0.000170589
0.000158594
0.000147382
0.00013691
0.000127138
0.000118025
0.000109534
0.000101626
9.42654e-05
8.74184e-05
8.10517e-05
7.51344e-05
6.96368e-05
6.4531e-05
5.97907e-05
5.53913e-05
5.13092e-05
4.75227e-05
4.4011e-05
4.07549e-05
3.77364e-05
3.49388e-05
3.23464e-05
2.99447e-05
2.77198e-05
2.56591e-05
2.37508e-05
2.19836e-05
2.03475e-05
1.88326e-05
1.74303e-05
1.61322e-05
1.49308e-05
1.38191e-05
1.27904e-05
1.18387e-05
1.09584e-05
1.01442e-05
9.39131e-06
8.69524e-06
8.05174e-06
7.45689e-06
6.90713e-06
6.39921e-06
5.93009e-06
5.49742e-06
5.09746e-06
4.73167e-06
4.38035e-06
0.000137223
0.000137659
0.000138524
0.000139722
0.000141293
0.000143197
0.00014539
0.000147808
0.000150373
0.000152991
0.000155549
0.000157908
0.000159898
0.000161313
0.000161906
0.000161381
0.000159382
0.000155483
0.000149177
0.000139865
0.000126835
0.000109246
8.61139e-05
5.62867e-05
1.84299e-05
-2.89925e-05
-8.77253e-05
-0.000159711
-0.000247059
-0.000351977
-0.000476647
-0.000623008
-0.000792383
-0.00098497
-0.0011992
-0.00143101
-0.00167315
-0.00191477
-0.00214199
-0.00234083
-0.00250397
-0.00264184
-0.00278883
-0.00299141
-0.00328084
-0.00364801
-0.00405992
-0.00447195
-0.00485114
-0.00517201
-0.00542725
-0.0056132
-0.005724
-0.00575612
-0.0057103
-0.00558853
-0.00539679
-0.00515203
-0.00488217
-0.00461833
-0.0043886
-0.00421771
-0.00412782
-0.00413796
-0.00426286
-0.00451299
-0.00489397
-0.00540725
-0.00604993
-0.00681459
-0.00768899
-0.00865571
-0.009692
-0.01077
-0.0118574
-0.0129191
-0.0139196
-0.0148253
-0.0156056
-0.0162407
-0.0167207
-0.0170483
-0.0172365
-0.0173059
-0.0172838
-0.0171949
-0.0170568
-0.0168764
-0.0166492
-0.016361
-0.0159927
-0.015526
-0.0149475
-0.014251
-0.0134393
-0.0125271
-0.0115414
-0.0105153
-0.00947437
-0.00843795
-0.00742153
-0.00643569
-0.00548739
-0.00458964
-0.00377094
-0.00306904
-0.00251182
-0.00210043
-0.00180271
-0.00156424
-0.0013359
-0.00109585
-0.000846505
-0.000598533
-0.000362172
-0.000145859
4.47475e-05
0.000207275
0.000341782
0.000449802
0.000533759
0.000596502
0.000640956
0.000669932
0.000686019
0.000691531
0.000688495
0.000678655
0.000663501
0.000644286
0.000622055
0.000597678
0.000571868
0.000545207
0.000518166
0.00049112
0.000464368
0.000438142
0.00041262
0.000387934
0.000364179
0.000341421
0.0003197
0.000299037
0.000279435
0.000260887
0.000243376
0.000226876
0.000211355
0.000196779
0.000183106
0.000170302
0.000158322
0.000147122
0.000136663
0.000126903
0.000117803
0.000109325
0.000101429
9.40803e-05
8.72446e-05
8.08887e-05
7.49818e-05
6.9494e-05
6.43975e-05
5.96661e-05
5.5275e-05
5.12009e-05
4.74217e-05
4.39169e-05
4.06673e-05
3.7655e-05
3.48631e-05
3.22761e-05
2.98793e-05
2.76591e-05
2.56028e-05
2.36985e-05
2.19351e-05
2.03024e-05
1.87909e-05
1.73915e-05
1.60963e-05
1.48975e-05
1.37882e-05
1.27618e-05
1.18122e-05
1.09338e-05
1.01214e-05
9.37017e-06
8.67563e-06
8.03354e-06
7.44e-06
6.89144e-06
6.38464e-06
5.91657e-06
5.48485e-06
5.08574e-06
4.72071e-06
4.37033e-06
0.00013704
0.000137479
0.000138351
0.000139561
0.000141149
0.000143075
0.000145296
0.000147749
0.000150357
0.000153028
0.000155651
0.000158088
0.000160173
0.000161702
0.000162433
0.000162072
0.000160268
0.000156602
0.000150573
0.000141587
0.000128941
0.000111802
8.9194e-05
5.99716e-05
2.28058e-05
-2.38386e-05
-8.17137e-05
-0.000152783
-0.000239193
-0.000343218
-0.000467152
-0.000613095
-0.000782592
-0.000976099
-0.0011923
-0.00142732
-0.00167387
-0.00192059
-0.00215216
-0.00235214
-0.00251021
-0.00263587
-0.00276781
-0.00296084
-0.00325159
-0.0036314
-0.00406091
-0.00449029
-0.0048781
-0.0052033
-0.00546105
-0.00564886
-0.00576027
-0.0057914
-0.00574321
-0.00561679
-0.00541661
-0.00516
-0.00487705
-0.00460086
-0.0043602
-0.00417973
-0.00408189
-0.00408612
-0.00420714
-0.00445509
-0.00483565
-0.00535037
-0.00599654
-0.00676694
-0.00764953
-0.00862696
-0.00967635
-0.0107694
-0.0118732
-0.0129516
-0.0139678
-0.0148864
-0.0156761
-0.0163157
-0.0167949
-0.0171162
-0.0172936
-0.0173506
-0.0173167
-0.017219
-0.0170765
-0.0168965
-0.0166737
-0.0163922
-0.0160306
-0.0155689
-0.0149923
-0.0142938
-0.0134758
-0.0125534
-0.011556
-0.0105191
-0.00947019
-0.00842796
-0.00740685
-0.0064165
-0.00546136
-0.00455265
-0.00372136
-0.00301092
-0.0024544
-0.00205454
-0.00177527
-0.00155394
-0.00133503
-0.00109664
-0.000844911
-0.000593445
-0.000353822
-0.000135182
5.65944e-05
0.000219319
0.000353337
0.000460432
0.000543235
0.000604744
0.000647984
0.000675822
0.000690879
0.00069548
0.000691653
0.000681137
0.000665409
0.000645712
0.000623082
0.000598376
0.000572296
0.000545417
0.000518199
0.000491015
0.000464154
0.000437844
0.000412259
0.000387528
0.000363741
0.000340963
0.000319231
0.000298564
0.000278965
0.000260425
0.000242924
0.000226437
0.000210932
0.000196371
0.000182715
0.000169928
0.000157965
0.000146785
0.000136345
0.000126604
0.000117522
0.000109061
0.000101181
9.38488e-05
8.70282e-05
8.06867e-05
7.47932e-05
6.93181e-05
6.42337e-05
5.95136e-05
5.5133e-05
5.10687e-05
4.72988e-05
4.38027e-05
4.05612e-05
3.75564e-05
3.47716e-05
3.21912e-05
2.98005e-05
2.7586e-05
2.5535e-05
2.36356e-05
2.18768e-05
2.02484e-05
1.87407e-05
1.7345e-05
1.60532e-05
1.48576e-05
1.37512e-05
1.27275e-05
1.17804e-05
1.09044e-05
1.00942e-05
9.34494e-06
8.65224e-06
8.01184e-06
7.41986e-06
6.87276e-06
6.36731e-06
5.90049e-06
5.46992e-06
5.07186e-06
4.70776e-06
4.35841e-06
0.00013682
0.000137263
0.000138143
0.000139367
0.000140975
0.000142927
0.000145181
0.000147676
0.000150336
0.00015307
0.00015577
0.000158301
0.000160499
0.000162165
0.000163059
0.000162894
0.000161324
0.000157936
0.000152238
0.000143642
0.000131455
0.000114855
9.28743e-05
6.43769e-05
2.80406e-05
-1.76682e-05
-7.45104e-05
-0.000144472
-0.000229744
-0.000332676
-0.000455692
-0.00060109
-0.000770679
-0.000965231
-0.00118376
-0.00142266
-0.00167464
-0.00192778
-0.00216501
-0.00236674
-0.00251867
-0.00262896
-0.00274197
-0.00292327
-0.00321607
-0.0036103
-0.00405868
-0.00450476
-0.00490415
-0.00523528
-0.00549652
-0.00568737
-0.00580046
-0.00583146
-0.00578181
-0.0056513
-0.00544226
-0.00517232
-0.00487434
-0.00458384
-0.00433021
-0.00413798
-0.00403002
-0.00402634
-0.00414179
-0.00438645
-0.0047661
-0.00528233
-0.00593251
-0.00670953
-0.00760146
-0.00859094
-0.00965493
-0.0107647
-0.0118866
-0.0129832
-0.0140164
-0.0149491
-0.0157489
-0.016393
-0.0168708
-0.017185
-0.0173512
-0.0173956
-0.0173498
-0.0172438
-0.0170986
-0.016922
-0.0167075
-0.0164367
-0.0160857
-0.0156319
-0.0150589
-0.0143586
-0.0135325
-0.0125966
-0.0115831
-0.0105313
-0.00947088
-0.00841975
-0.00739169
-0.0063953
-0.00543151
-0.00450885
-0.00366132
-0.00293971
-0.00238374
-0.00199838
-0.00174254
-0.00154279
-0.00133529
-0.00109839
-0.000843306
-0.00058735
-0.000343652
-0.000122169
7.09899e-05
0.000233906
0.000367291
0.000473237
0.000554624
0.000614634
0.000656404
0.00068287
0.000696688
0.000700196
0.00069542
0.000684093
0.00066768
0.000647409
0.000624301
0.000599201
0.000572799
0.000545659
0.000518233
0.000490882
0.000463892
0.000437483
0.000411823
0.000387037
0.000363214
0.000340412
0.000318667
0.000297996
0.0002784
0.000259868
0.000242381
0.00022591
0.000210423
0.000195883
0.00018225
0.000169486
0.000157546
0.000146387
0.000135969
0.000126249
0.000117188
0.000108746
0.000100886
9.35718e-05
8.67687e-05
8.04438e-05
7.45661e-05
6.91061e-05
6.40358e-05
5.93291e-05
5.49611e-05
5.09086e-05
4.71498e-05
4.3664e-05
4.04323e-05
3.74366e-05
3.46603e-05
3.20878e-05
2.97045e-05
2.74969e-05
2.54523e-05
2.35589e-05
2.18057e-05
2.01824e-05
1.86795e-05
1.72882e-05
1.60005e-05
1.48087e-05
1.37059e-05
1.26855e-05
1.17415e-05
1.08684e-05
1.00608e-05
9.31405e-06
8.62359e-06
7.98526e-06
7.3952e-06
6.84986e-06
6.34607e-06
5.88078e-06
5.45161e-06
5.05485e-06
4.69191e-06
4.34376e-06
0.000136563
0.000137009
0.000137898
0.00013914
0.000140771
0.000142753
0.000145046
0.000147589
0.000150308
0.000153116
0.000155906
0.000158545
0.000160874
0.000162698
0.000163782
0.000163844
0.000162546
0.000159481
0.000154166
0.000146024
0.000134371
0.000118397
9.71461e-05
6.94932e-05
3.41246e-05
-1.04904e-05
-6.61214e-05
-0.000134779
-0.000218702
-0.000320328
-0.000442229
-0.000586934
-0.000756568
-0.000952282
-0.0011735
-0.00141695
-0.00167543
-0.00193644
-0.00218089
-0.00238534
-0.00253021
-0.00262148
-0.00271037
-0.00287638
-0.00317175
-0.00358419
-0.00405707
-0.00452522
-0.00493857
-0.00527602
-0.00554082
-0.00573504
-0.0058498
-0.00588023
-0.0058286
-0.00569301
-0.00547289
-0.00518631
-0.00486981
-0.004562
-0.00429293
-0.00408692
-0.00396728
-0.00395465
-0.00406397
-0.00430515
-0.00468392
-0.00520197
-0.00585681
-0.00664161
-0.00754465
-0.00854868
-0.0096305
-0.0107609
-0.0119051
-0.0130247
-0.0140792
-0.0150299
-0.0158424
-0.0164924
-0.0169686
-0.0172738
-0.0174256
-0.0174529
-0.0173911
-0.0172734
-0.0171233
-0.0169493
-0.0167435
-0.0164847
-0.0161455
-0.0157005
-0.0151316
-0.0144291
-0.0135935
-0.0126413
-0.011609
-0.0105406
-0.00946777
-0.00840732
-0.00737229
-0.00637009
-0.00539694
-0.00445762
-0.00358997
-0.00285423
-0.00229862
-0.00193118
-0.00170463
-0.00153154
-0.00133744
-0.00110151
-0.000841834
-0.000580231
-0.000331562
-0.000106699
8.80383e-05
0.000251113
0.000383694
0.000488242
0.000567938
0.00062617
0.000666209
0.000691065
0.000703433
0.000705665
0.000699785
0.000687515
0.000670304
0.000649365
0.000625703
0.000600147
0.000573372
0.00054593
0.000518262
0.00049072
0.00046358
0.000437055
0.000411309
0.000386461
0.000362595
0.000339766
0.000318007
0.000297332
0.00027774
0.000259219
0.000241747
0.000225295
0.00020983
0.000195314
0.000181706
0.000168967
0.000157052
0.00014592
0.000135527
0.000125833
0.000116796
0.000108378
0.000100541
9.32482e-05
8.64659e-05
8.01607e-05
7.43017e-05
6.88593e-05
6.38058e-05
5.91147e-05
5.47615e-05
5.07228e-05
4.69769e-05
4.35032e-05
4.02828e-05
3.72978e-05
3.45314e-05
3.19681e-05
2.95934e-05
2.73939e-05
2.53567e-05
2.34702e-05
2.17234e-05
2.01061e-05
1.86087e-05
1.72226e-05
1.59397e-05
1.47523e-05
1.36536e-05
1.26371e-05
1.16967e-05
1.08268e-05
1.00223e-05
9.27838e-06
8.59052e-06
7.95458e-06
7.36673e-06
6.82345e-06
6.32156e-06
5.85804e-06
5.4305e-06
5.03523e-06
4.67365e-06
4.32683e-06
0.000136267
0.000136718
0.000137618
0.000138878
0.000140536
0.000142552
0.000144888
0.000147486
0.000150273
0.000153164
0.000156055
0.000158818
0.000161296
0.000163299
0.000164599
0.000164919
0.000163929
0.000161231
0.000156352
0.000148725
0.000137679
0.000122418
0.000101999
7.53095e-05
4.1047e-05
-2.31475e-06
-5.65537e-05
-0.000123707
-0.000206065
-0.00030616
-0.000426728
-0.000570562
-0.000740155
-0.000937105
-0.00116132
-0.00141
-0.00167612
-0.00194646
-0.00220022
-0.00240875
-0.00254568
-0.00261362
-0.00267226
-0.00281919
-0.00311819
-0.00355322
-0.00405566
-0.0045496
-0.00497847
-0.00532221
-0.00559063
-0.00578887
-0.00590569
-0.00593557
-0.00588223
-0.00574152
-0.00550885
-0.00520286
-0.00486486
-0.00453725
-0.00425066
-0.00402887
-0.00389575
-0.00387276
-0.00397492
-0.00421193
-0.00458956
-0.0051096
-0.00576974
-0.00656339
-0.00747905
-0.00849957
-0.00960156
-0.0107552
-0.0119249
-0.0130702
-0.014149
-0.0151201
-0.015947
-0.0166037
-0.0170777
-0.0173724
-0.0175074
-0.0175151
-0.0174349
-0.0173042
-0.0171493
-0.0169794
-0.0167851
-0.0165416
-0.0162173
-0.0157834
-0.0152196
-0.0145148
-0.0136679
-0.0126962
-0.0116409
-0.0105528
-0.00946545
-0.00839399
-0.00735096
-0.00634267
-0.00535908
-0.00439967
-0.00350708
-0.00275347
-0.00219773
-0.00185211
-0.00166174
-0.00152118
-0.00134246
-0.00110655
-0.000840654
-0.000572055
-0.000317425
-8.8624e-05
0.000107861
0.000271025
0.000402598
0.000505476
0.000583184
0.00063935
0.000677388
0.000700394
0.0007111
0.000711874
0.000704733
0.000691388
0.00067327
0.000651572
0.000627281
0.000601206
0.000574009
0.000546224
0.000518282
0.000490523
0.000463213
0.000436559
0.000410716
0.000385798
0.000361883
0.000339024
0.000317249
0.00029657
0.000276984
0.000258475
0.000241021
0.000224591
0.000209151
0.000194663
0.000181084
0.000168374
0.00015649
0.000145388
0.000135024
0.000125358
0.00011635
0.000107958
0.000100147
9.28791e-05
8.61203e-05
7.98375e-05
7.39998e-05
6.85775e-05
6.35429e-05
5.88697e-05
5.45332e-05
5.05103e-05
4.67791e-05
4.33193e-05
4.01119e-05
3.71389e-05
3.43838e-05
3.18311e-05
2.94663e-05
2.72759e-05
2.52472e-05
2.33687e-05
2.16292e-05
2.00186e-05
1.85277e-05
1.71474e-05
1.587e-05
1.46877e-05
1.35937e-05
1.25816e-05
1.16453e-05
1.07792e-05
9.97822e-06
9.2375e-06
8.55261e-06
7.91941e-06
7.3341e-06
6.79318e-06
6.29347e-06
5.83197e-06
5.4063e-06
5.01274e-06
4.65272e-06
4.30741e-06
0.000135933
0.000136388
0.0001373
0.000138582
0.000140269
0.000142323
0.000144708
0.000147366
0.000150229
0.000153213
0.000156218
0.000159118
0.000161762
0.000163965
0.000165505
0.000166113
0.000165468
0.00016318
0.000158788
0.000151737
0.000141371
0.000126908
0.000107421
8.18132e-05
4.87948e-05
6.84644e-06
-4.58175e-05
-0.000111261
-0.000191827
-0.000290147
-0.000409139
-0.000551894
-0.000721323
-0.000919546
-0.00114706
-0.00140164
-0.00167661
-0.0019583
-0.00222349
-0.00243793
-0.00256626
-0.00260589
-0.00262681
-0.00274989
-0.00305362
-0.00351634
-0.00405451
-0.00457916
-0.00502563
-0.00537549
-0.00564745
-0.00585048
-0.00596968
-0.00599884
-0.00594402
-0.00579809
-0.00555099
-0.00522211
-0.00485897
-0.0045087
-0.00420226
-0.00396254
-0.00381412
-0.00377947
-0.00387363
-0.00410601
-0.00448238
-0.00500463
-0.00567064
-0.00647414
-0.00740398
-0.00844317
-0.00956819
-0.0107486
-0.0119475
-0.0131229
-0.01423
-0.015225
-0.016069
-0.0167335
-0.017205
-0.0174874
-0.0176023
-0.0175865
-0.017484
-0.0173375
-0.0171765
-0.0170112
-0.0168303
-0.0166047
-0.0162977
-0.0158768
-0.0153192
-0.0146119
-0.013752
-0.0127571
-0.0116748
-0.0105641
-0.00946091
-0.0083775
-0.00732617
-0.00631248
-0.00531804
-0.00433494
-0.00341183
-0.00263586
-0.00207926
-0.00176004
-0.00161414
-0.00151298
-0.00135154
-0.00111408
-0.000839917
-0.000562758
-0.000301071
-6.77636e-05
0.000130603
0.000293744
0.000424066
0.00052497
0.000600373
0.000654169
0.00068993
0.000710839
0.000719671
0.000718803
0.000710247
0.000695697
0.000676564
0.000654017
0.000629023
0.00060237
0.000574701
0.000546536
0.000518288
0.000490287
0.000462789
0.000435991
0.000410041
0.000385045
0.000361077
0.000338185
0.000316394
0.000295711
0.000276131
0.000257636
0.000240203
0.000223798
0.000208387
0.00019393
0.000180384
0.000167708
0.000155857
0.000144788
0.000134458
0.000124824
0.000115847
0.000107486
9.97039e-05
9.24639e-05
8.57317e-05
7.94742e-05
7.36604e-05
6.82608e-05
6.32475e-05
5.85944e-05
5.42768e-05
5.02716e-05
4.6557e-05
4.31128e-05
3.99199e-05
3.69606e-05
3.42182e-05
3.16773e-05
2.93235e-05
2.71434e-05
2.51244e-05
2.32547e-05
2.15235e-05
1.99206e-05
1.84367e-05
1.70631e-05
1.57918e-05
1.46153e-05
1.35266e-05
1.25194e-05
1.15876e-05
1.07258e-05
9.92875e-06
9.19165e-06
8.5101e-06
7.87998e-06
7.29752e-06
6.75924e-06
6.26198e-06
5.80276e-06
5.37918e-06
4.98754e-06
4.62927e-06
4.28564e-06
0.00013556
0.00013602
0.000136945
0.00013825
0.000139969
0.000142065
0.000144503
0.000147229
0.000150175
0.000153261
0.00015639
0.000159441
0.000162268
0.000164692
0.000166497
0.000167423
0.000167156
0.000165321
0.000161465
0.000155051
0.000145435
0.000131855
0.0001134
8.89898e-05
5.73531e-05
1.69793e-05
-3.39237e-05
-9.74467e-05
-0.000175985
-0.000272271
-0.000389419
-0.000530848
-0.000699945
-0.000899424
-0.00113047
-0.0013916
-0.00167671
-0.00197181
-0.00225123
-0.00247411
-0.00259344
-0.00259888
-0.00257284
-0.00266628
-0.00297625
-0.00347298
-0.00405412
-0.00461491
-0.00508075
-0.00543573
-0.0057108
-0.00591952
-0.00604144
-0.00606962
-0.00601387
-0.00586307
-0.00559971
-0.00524415
-0.00485205
-0.00447633
-0.00414786
-0.00388809
-0.00372251
-0.00367488
-0.00376015
-0.00398735
-0.00436225
-0.00488685
-0.00555929
-0.00637369
-0.00731927
-0.00837929
-0.00953006
-0.0107405
-0.0119724
-0.0131816
-0.0143208
-0.015343
-0.0162064
-0.0168799
-0.0173484
-0.0176162
-0.0177078
-0.0176643
-0.0175359
-0.0173709
-0.0172031
-0.0170438
-0.0168792
-0.0166751
-0.016389
-0.0159835
-0.0154334
-0.0147238
-0.0138489
-0.0128266
-0.0117122
-0.0105758
-0.00945522
-0.00835861
-0.00729856
-0.00628054
-0.00527509
-0.00426405
-0.00330361
-0.00249973
-0.0019411
-0.00165362
-0.00156223
-0.00150858
-0.00136614
-0.00112477
-0.000839765
-0.000552239
-0.00028229
-4.39013e-05
0.000156432
0.000319382
0.000448166
0.000546756
0.000619513
0.000670621
0.00070382
0.000722382
0.000729125
0.000726433
0.000716309
0.000700426
0.000680171
0.000656688
0.000630919
0.000603629
0.000575442
0.000546857
0.000518274
0.000490008
0.000462304
0.000435349
0.000409281
0.0003842
0.000360176
0.000337248
0.000315439
0.000294753
0.000275181
0.000256703
0.000239292
0.000222917
0.000207538
0.000193115
0.000179606
0.000166967
0.000155154
0.000144122
0.000133829
0.000124232
0.000115289
0.000106962
9.92122e-05
9.20032e-05
8.53004e-05
7.9071e-05
7.32838e-05
6.79093e-05
6.29197e-05
5.82889e-05
5.39923e-05
5.00067e-05
4.63106e-05
4.28836e-05
3.97069e-05
3.67626e-05
3.40344e-05
3.15067e-05
2.91651e-05
2.69964e-05
2.4988e-05
2.31282e-05
2.14061e-05
1.98117e-05
1.83358e-05
1.69695e-05
1.5705e-05
1.45348e-05
1.3452e-05
1.24503e-05
1.15236e-05
1.06665e-05
9.87384e-06
9.14076e-06
8.4629e-06
7.83621e-06
7.25691e-06
6.72156e-06
6.22703e-06
5.77033e-06
5.34907e-06
4.95956e-06
4.60323e-06
4.26145e-06
0.000135146
0.000135611
0.000136552
0.000137881
0.000139635
0.000141777
0.000144274
0.000147072
0.000150108
0.000153305
0.00015657
0.000159786
0.000162812
0.000165476
0.000167569
0.000168841
0.000168988
0.000167646
0.000164376
0.000158656
0.00014986
0.000137245
0.000119919
9.6823e-05
6.6705e-05
2.80677e-05
-2.0886e-05
-8.22726e-05
-0.000158537
-0.000252512
-0.000367516
-0.00050733
-0.000675875
-0.000876535
-0.00111129
-0.00137961
-0.00167619
-0.00198703
-0.00228404
-0.00251873
-0.00262913
-0.00259343
-0.00250897
-0.00256565
-0.0028839
-0.00342228
-0.00405486
-0.00465808
-0.00514493
-0.00550329
-0.00578076
-0.00599645
-0.00612142
-0.00614822
-0.00609243
-0.00593754
-0.00565591
-0.00526928
-0.00484389
-0.00443984
-0.00408717
-0.00380511
-0.00362042
-0.00355847
-0.003634
-0.0038555
-0.00422873
-0.00475584
-0.00543523
-0.0062615
-0.00722435
-0.00830732
-0.00948669
-0.0107307
-0.0119995
-0.013247
-0.0144226
-0.0154759
-0.0163615
-0.0170452
-0.0175103
-0.0177614
-0.0178257
-0.0177498
-0.017591
-0.0174043
-0.0172285
-0.0170764
-0.0169313
-0.0167526
-0.0164908
-0.0161034
-0.0155623
-0.0148504
-0.0139585
-0.0129038
-0.0117517
-0.0105863
-0.00944724
-0.00833636
-0.00726744
-0.00624715
-0.00523125
-0.00418746
-0.00318153
-0.00234292
-0.00178053
-0.0015311
-0.00150653
-0.00151006
-0.00138805
-0.00113935
-0.000840298
-0.000540342
-0.000260812
-1.67794e-05
0.000185537
0.000348067
0.000474971
0.000570867
0.000640611
0.000688698
0.000719039
0.000735001
0.000739439
0.000734742
0.000722898
0.000705556
0.000684075
0.00065957
0.000632956
0.000604973
0.000576221
0.000547181
0.000518234
0.000489681
0.000461753
0.000434627
0.000408433
0.000383262
0.000359176
0.000336211
0.000314384
0.000293695
0.000274132
0.000255673
0.000238289
0.000221945
0.000206602
0.000192218
0.000178749
0.000166152
0.00015438
0.00014339
0.000133137
0.00012358
0.000114676
0.000106386
9.86717e-05
9.14968e-05
8.48265e-05
7.86279e-05
7.287e-05
6.75231e-05
6.25596e-05
5.79534e-05
5.36797e-05
4.97158e-05
4.60399e-05
4.26319e-05
3.9473e-05
3.65453e-05
3.38325e-05
3.13193e-05
2.89912e-05
2.68351e-05
2.48383e-05
2.29893e-05
2.12773e-05
1.96923e-05
1.8225e-05
1.68668e-05
1.56098e-05
1.44465e-05
1.33702e-05
1.23745e-05
1.14534e-05
1.06015e-05
9.81356e-06
9.08488e-06
8.4111e-06
7.78816e-06
7.21234e-06
6.68022e-06
6.18868e-06
5.73474e-06
5.31602e-06
4.92886e-06
4.57466e-06
4.23491e-06
0.000134692
0.000135163
0.000136119
0.000137475
0.000139267
0.000141459
0.000144017
0.000146894
0.000150028
0.000153344
0.000156755
0.000160149
0.000163389
0.000166312
0.000168717
0.000170362
0.000170956
0.000170147
0.000167511
0.000162541
0.000154633
0.000143064
0.000126963
0.000105294
7.68314e-05
4.0093e-05
-6.72062e-06
-6.57497e-05
-0.000139483
-0.00023085
-0.000343378
-0.000481242
-0.000648953
-0.000850651
-0.00108923
-0.00136529
-0.00167471
-0.00200388
-0.00232255
-0.00257354
-0.00267574
-0.00259067
-0.00243343
-0.0024446
-0.00277393
-0.00336328
-0.00405738
-0.00471032
-0.00521956
-0.00557835
-0.00585717
-0.00608153
-0.00620984
-0.0062346
-0.0061801
-0.00602252
-0.00572048
-0.00529765
-0.00483416
-0.00439888
-0.00401997
-0.00371333