/*--------------------------------*- C++ -*----------------------------------*\
| =========                 |                                                 |
| \\      /  F ield         | OpenFOAM: The Open Source CFD Toolbox           |
|  \\    /   O peration     | Version:  v2006                                 |
|   \\  /    A nd           | Website:  www.openfoam.com                      |
|    \\/     M anipulation  |                                                 |
\*---------------------------------------------------------------------------*/
FoamFile
{
    version     2.0;
    format      ascii;
    class       volScalarField;
    location    "0";
    object      f;
}
// * * * * * * * * * * * * * * * * * * * * * * * * * * * * * * * * * * * * * //

dimensions      [0 0 0 0 0 0 0];


internalField   nonuniform List<scalar> 
2500
(
1.78928e-16
1.71884e-16
-1.85406e-16
-2.05886e-16
-3.2444e-17
-2.29014e-16
-5.08685e-16
-4.13438e-16
-4.24349e-16
-9.83151e-16
-9.80258e-16
-2.43389e-16
9.48553e-16
9.59086e-16
2.36448e-16
-3.79627e-16
-5.87872e-16
-2.58314e-16
7.25093e-17
1.37867e-16
2.83347e-17
-3.54206e-17
-3.83387e-17
-2.32587e-17
-1.01806e-17
-2.80104e-18
3.25121e-19
1.16761e-18
1.06976e-18
7.27787e-19
4.20205e-19
2.1519e-19
9.95554e-20
4.18959e-20
1.60186e-20
5.50391e-21
1.6491e-21
3.95058e-22
4.95038e-23
-1.93737e-23
-2.01994e-23
-1.14625e-23
-5.29108e-24
-2.17239e-24
-8.22076e-25
-2.91995e-25
-9.84043e-26
-3.16884e-26
-9.79935e-27
-3.46172e-27
3.70579e-16
4.70606e-16
-2.38031e-16
-4.08939e-16
5.25856e-16
-8.0513e-17
-9.70817e-16
-3.83507e-16
-2.03171e-16
-3.40195e-15
-2.71371e-15
-6.20882e-16
5.32494e-15
2.47573e-15
4.25242e-16
-1.1141e-15
-1.49678e-15
-4.94173e-16
1.57796e-16
3.548e-16
6.18499e-17
-7.08806e-17
-6.01171e-17
-2.91668e-17
-9.63017e-18
-8.1646e-19
2.03154e-18
2.26909e-18
1.67679e-18
1.02285e-18
5.46472e-19
2.61227e-19
1.12396e-19
4.33103e-20
1.46439e-20
4.09798e-21
7.59948e-22
-6.78008e-23
-1.64355e-22
-1.09966e-22
-5.60066e-23
-2.48135e-23
-1.00222e-23
-3.77448e-24
-1.34264e-24
-4.54832e-25
-1.4757e-25
-4.60489e-26
-1.38644e-26
-4.76836e-27
8.08429e-16
1.30388e-15
-3.88059e-16
-2.04227e-15
4.73902e-15
3.64879e-15
-2.10561e-15
-4.17183e-15
-2.21702e-14
-2.56833e-14
-8.90181e-15
5.93634e-14
3.37033e-14
6.03441e-15
-1.00922e-14
-1.73269e-14
-6.65884e-15
-1.07745e-15
1.35232e-15
1.52385e-15
1.4976e-16
-2.32197e-16
-1.3927e-16
-5.15631e-17
-1.15357e-17
2.89477e-18
6.14057e-18
5.29787e-18
3.53444e-18
2.02395e-18
1.02735e-18
4.66347e-19
1.88467e-19
6.64121e-20
1.92089e-20
3.59996e-21
-4.17896e-22
-8.96492e-22
-6.08292e-22
-3.16348e-22
-1.43255e-22
-5.91288e-23
-2.27458e-23
-8.26014e-24
-2.85523e-24
-9.44818e-25
-3.00564e-25
-9.22171e-26
-2.7358e-26
-9.26851e-27
1.05474e-15
2.42087e-15
-2.59177e-16
-8.1919e-15
1.41894e-14
4.95911e-14
1.91332e-14
-1.40574e-13
-2.35399e-13
-8.17328e-14
5.68262e-13
3.94042e-13
8.23142e-14
-2.1595e-13
-2.27504e-13
-9.01876e-14
-1.4446e-14
1.37849e-14
2.48381e-14
7.47076e-15
-5.12144e-17
-9.87446e-16
-3.09977e-16
-7.27036e-17
-3.13381e-18
1.50389e-17
1.57889e-17
1.15492e-17
7.08742e-18
3.82965e-18
1.84451e-18
7.88274e-19
2.92687e-19
8.90238e-20
1.77194e-20
-1.78151e-21
-4.43669e-21
-3.13184e-21
-1.67882e-21
-7.80602e-22
-3.30071e-22
-1.29874e-22
-4.81873e-23
-1.70038e-23
-5.74026e-24
-1.86197e-24
-5.82246e-25
-1.75983e-25
-5.15222e-26
-1.72186e-26
-7.07714e-15
-1.07422e-14
4.02531e-15
-1.28699e-14
-8.30685e-15
1.63307e-13
1.20549e-13
-5.39745e-13
-7.9606e-13
2.72791e-12
3.47615e-12
1.00755e-12
-3.11818e-12
-2.74347e-12
-1.01505e-12
-1.76045e-13
2.97516e-13
3.96575e-13
1.32632e-13
1.56167e-14
-1.81679e-14
-4.87241e-15
-4.65337e-16
-2.99092e-17
3.9166e-17
4.62991e-17
3.62526e-17
2.3565e-17
1.34826e-17
6.90212e-18
3.14392e-18
1.2456e-18
4.0613e-19
8.99898e-20
-4.04597e-21
-1.97734e-20
-1.49731e-20
-8.36253e-21
-4.01241e-21
-1.74235e-21
-7.02044e-22
-2.66255e-22
-9.59192e-23
-3.30313e-23
-1.09231e-23
-3.48079e-24
-1.07176e-24
-3.19558e-25
-9.24314e-26
-3.05069e-26
-3.98112e-14
-1.77625e-13
1.1264e-13
3.15186e-13
-1.12807e-13
1.89589e-13
3.89232e-13
-7.92282e-13
1.24936e-12
1.6501e-11
7.34236e-12
-1.14426e-11
-2.20329e-11
-7.69193e-12
-1.90902e-12
6.45076e-12
5.58918e-12
1.85777e-12
2.54871e-13
-3.31816e-13
-1.10676e-13
-8.88074e-15
4.34268e-16
2.31458e-16
1.55134e-16
1.12925e-16
7.53146e-17
4.4905e-17
2.4226e-17
1.17925e-17
5.04718e-18
1.7991e-18
4.58744e-19
1.52654e-20
-7.77589e-20
-6.61653e-20
-3.90512e-20
-1.94523e-20
-8.69753e-21
-3.59196e-21
-1.39245e-21
-5.11882e-22
-1.79691e-22
-6.05367e-23
-1.96457e-23
-6.15909e-24
-1.8696e-24
-5.50501e-25
-1.57472e-25
-5.13826e-26
-5.99322e-14
-4.29731e-13
4.40239e-13
3.87329e-12
1.31691e-12
-1.33175e-11
1.23531e-11
1.14315e-10
1.92109e-10
4.74419e-11
-1.0719e-10
-1.9878e-10
-5.42806e-11
2.61991e-11
1.0576e-10
7.05982e-11
2.32442e-11
3.44964e-12
-5.10983e-12
-1.98492e-12
-1.99692e-13
6.76908e-15
2.54322e-15
6.94807e-16
3.50387e-16
2.29152e-16
1.42136e-16
7.96188e-17
4.0902e-17
1.90105e-17
7.5536e-18
2.26563e-18
2.69066e-19
-2.55295e-19
-2.67572e-19
-1.70593e-19
-8.89674e-20
-4.10918e-20
-1.74059e-20
-6.89252e-21
-2.58215e-21
-9.22551e-22
-3.16131e-22
-1.0433e-22
-3.32641e-23
-1.02706e-23
-3.07668e-24
-8.95542e-25
-2.53594e-25
-8.19028e-26
6.24548e-13
1.27968e-12
1.72227e-12
1.2483e-11
1.15015e-11
-7.30096e-11
6.19647e-11
9.25667e-10
9.22894e-10
-7.46911e-10
-1.77458e-09
-8.42619e-10
3.44036e-10
1.2623e-09
7.27812e-10
2.42398e-10
4.12164e-11
-7.15054e-11
-3.12081e-11
-3.93195e-12
8.12368e-14
3.99817e-14
6.8843e-15
8.97609e-16
5.51468e-16
4.06732e-16
2.47284e-16
1.30966e-16
6.45166e-17
2.8853e-17
1.0409e-17
2.16615e-18
-5.68051e-19
-9.66375e-19
-6.93579e-19
-3.84022e-19
-1.84103e-19
-8.00346e-20
-3.23258e-20
-1.23104e-20
-4.46338e-21
-1.55113e-21
-5.19181e-22
-1.67958e-22
-5.2653e-23
-1.6026e-23
-4.74286e-24
-1.36636e-24
-3.8352e-25
-1.22791e-25
8.96453e-12
1.59249e-11
4.96728e-12
1.92902e-11
2.5983e-11
-1.76084e-10
1.0026e-10
2.55363e-09
1.88212e-09
-7.67599e-09
-7.01493e-09
-1.4302e-09
8.33542e-09
5.43584e-09
1.82566e-09
4.05231e-10
-9.41973e-10
-4.51742e-10
-6.66456e-11
6.02308e-13
4.65431e-13
1.15247e-13
8.15869e-15
3.76996e-16
7.31895e-16
7.091e-16
4.09179e-16
1.98198e-16
9.42647e-17
4.15232e-17
1.30739e-17
4.65162e-19
-2.89356e-18
-2.58677e-18
-1.56364e-18
-7.84919e-19
-3.50546e-19
-1.44031e-19
-5.55138e-20
-2.03226e-20
-7.12616e-21
-2.40763e-21
-7.8705e-22
-2.49676e-22
-7.70223e-23
-2.31389e-23
-6.77614e-24
-1.93565e-24
-5.39613e-25
-1.71677e-25
4.43765e-11
3.69966e-11
-3.29836e-10
-1.00813e-09
-7.54652e-10
-4.50662e-10
-3.38407e-12
2.143e-09
-2.72927e-08
-2.511e-08
-1.41692e-08
5.8251e-08
3.85597e-08
9.56178e-09
1.89872e-10
-1.43909e-08
-6.9285e-09
-1.0534e-09
-1.86836e-12
5.54503e-12
1.71808e-12
1.30699e-13
-3.78241e-15
-6.04939e-16
1.34233e-15
1.48961e-15
6.53742e-16
2.63608e-16
1.25169e-16
5.87621e-17
1.52402e-17
-4.94374e-18
-8.42345e-18
-5.97503e-18
-3.20343e-18
-1.47347e-18
-6.13093e-19
-2.37358e-19
-8.69721e-20
-3.05004e-20
-1.03157e-20
-3.38269e-21
-1.07939e-21
-3.35955e-22
-1.02141e-22
-3.03574e-23
-8.82262e-24
-2.50725e-24
-6.96634e-25
-2.2113e-25
1.37042e-10
-1.83927e-09
-2.49944e-08
-4.52591e-08
-5.03723e-08
-9.20837e-08
-2.25465e-07
-4.00385e-07
-2.74015e-07
-3.61132e-08
3.68693e-07
3.28535e-07
8.29289e-08
-1.92237e-07
-2.43106e-07
-1.08958e-07
-1.90842e-08
-2.3856e-10
5.51131e-11
1.96722e-11
1.88062e-12
-4.18067e-14
-1.49553e-14
-1.87424e-15
1.09438e-14
4.31807e-15
8.74749e-16
2.52562e-16
1.4476e-16
9.10236e-17
1.91877e-17
-1.86573e-17
-2.07968e-17
-1.26376e-17
-6.03818e-18
-2.52387e-18
-9.67748e-19
-3.49255e-19
-1.20518e-19
-4.01817e-20
-1.30379e-20
-4.13738e-21
-1.28808e-21
-3.94073e-22
-1.18533e-22
-3.50393e-23
-1.01701e-23
-2.89492e-24
-8.07183e-25
-2.57587e-25
-3.79705e-09
-3.05252e-08
-1.17623e-07
-1.97054e-07
-2.29436e-07
-5.20349e-07
-1.40953e-06
-2.02436e-06
-1.07368e-06
1.05958e-06
2.58322e-06
8.33636e-07
-1.60142e-06
-2.40508e-06
-1.2225e-06
-3.09978e-07
-1.93998e-08
3.67254e-10
1.42176e-10
2.70848e-11
-3.7642e-14
-1.07156e-13
-2.89788e-14
1.78309e-13
6.60598e-14
8.31072e-15
1.3421e-16
-2.94377e-17
1.33517e-16
1.83773e-16
3.76954e-17
-5.29995e-17
-4.84146e-17
-2.5012e-17
-1.03587e-17
-3.82115e-18
-1.31329e-18
-4.30811e-19
-1.36971e-19
-4.26658e-20
-1.31244e-20
-4.00846e-21
-1.21905e-21
-3.69292e-22
-1.11235e-22
-3.32071e-23
-9.78735e-24
-2.83731e-24
-8.06404e-25
-2.62886e-25
-2.10308e-08
-9.82806e-08
-2.84469e-07
-4.56756e-07
-5.53369e-07
-1.37008e-06
-3.72466e-06
-5.14893e-06
-2.41982e-06
5.18626e-06
8.11297e-06
-2.74951e-08
-1.25763e-05
-8.4595e-06
-2.84489e-06
-4.6513e-07
2.66756e-09
7.13624e-10
-2.12239e-10
1.84246e-09
1.34948e-10
-2.08888e-13
3.95492e-12
1.57865e-12
1.46249e-13
-1.96122e-15
-2.71285e-15
-8.67632e-16
9.07078e-17
5.48133e-16
1.18453e-16
-1.50584e-16
-1.12776e-16
-4.6004e-17
-1.53377e-17
-4.63175e-18
-1.31712e-18
-3.60763e-19
-9.69925e-20
-2.61149e-20
-7.19705e-21
-2.06912e-21
-6.2555e-22
-1.97408e-22
-6.38391e-23
-2.07249e-23
-6.64343e-24
-2.07988e-24
-6.31982e-25
-2.19608e-25
-4.41168e-08
-1.79245e-07
-4.42042e-07
-6.86882e-07
-8.85014e-07
-2.30738e-06
-6.12011e-06
-7.9207e-06
-3.49027e-06
1.7092e-05
1.52375e-05
-7.38975e-05
-4.89561e-05
-1.40855e-05
-3.37846e-06
-3.19943e-07
1.83083e-10
2.52833e-10
-2.54129e-09
6.56245e-08
5.14626e-09
2.68637e-11
3.15298e-11
4.50929e-12
-3.88299e-14
-2.8958e-14
-1.1376e-14
-1.9396e-15
2.0941e-15
2.89947e-15
3.72476e-16
-5.26843e-16
-2.74372e-16
-7.30812e-17
-1.58505e-17
-2.71383e-18
-2.36355e-19
7.5479e-20
5.60814e-20
2.34515e-20
8.00714e-21
2.40805e-21
6.49111e-22
1.54776e-22
3.07719e-23
4.00742e-24
-3.50071e-25
-5.20645e-25
-2.55644e-25
-1.18305e-25
-5.20558e-08
-2.01612e-07
-3.75615e-07
-2.75172e-07
-9.44538e-07
-2.52166e-06
-7.04695e-06
1.95747e-05
0.000108204
3.65423e-05
-0.000311213
-0.000395884
-8.90398e-05
0.000538032
0.00129227
0.00154015
0.00126987
0.000747838
0.00029702
6.07642e-05
6.39678e-08
1.11109e-09
7.53307e-11
2.89323e-15
-2.11481e-13
-1.02879e-13
-2.10496e-14
2.46327e-14
5.11157e-14
1.3548e-14
-1.1662e-15
-3.50319e-15
-6.76392e-16
-6.3459e-17
5.6381e-18
6.78716e-18
3.06022e-18
1.10398e-18
3.58381e-19
1.09081e-19
3.17002e-20
8.86698e-21
2.39282e-21
6.22075e-22
1.55101e-22
3.67987e-23
8.20287e-24
1.68003e-24
3.01788e-25
4.19309e-26
3.57889e-06
1.26088e-05
7.76402e-05
0.000165619
0.000219241
0.000404489
0.000890169
0.00134761
0.000946156
-0.000551859
-0.0019369
-0.00100914
0.00374411
0.0127906
0.0218033
0.025489
0.0232971
0.0170054
0.00971605
0.00408673
0.00101652
4.14281e-05
2.1851e-12
-1.70019e-12
-6.53919e-13
-1.62556e-13
4.69376e-13
7.09244e-13
2.66082e-13
1.83611e-14
-7.51287e-14
-1.92089e-14
-7.91228e-16
2.15698e-16
8.94369e-17
2.95504e-17
8.97247e-18
2.58501e-18
7.19136e-19
1.95702e-19
5.26044e-20
1.4054e-20
3.74152e-21
9.91674e-22
2.60725e-22
6.76398e-23
1.72166e-23
4.27701e-24
1.03273e-24
2.75861e-25
3.45227e-05
0.000114516
0.000427524
0.000880262
0.00144507
0.00285524
0.00514624
0.00599971
0.0031053
-0.00274302
-0.00596831
-0.000462406
0.0198164
0.0514729
0.0819627
0.0954377
0.0892532
0.0680103
0.0413787
0.0191318
0.00579455
0.000562356
2.45234e-10
-5.19433e-13
-8.78592e-13
7.96338e-12
8.65832e-12
3.44786e-12
5.03497e-13
-1.23376e-12
-3.97755e-13
-3.09962e-14
4.31379e-15
1.21921e-15
2.34858e-16
5.51208e-17
1.34456e-17
3.23805e-18
7.69706e-19
1.83915e-19
4.5428e-20
1.19067e-20
3.34016e-21
9.87961e-22
2.99567e-22
9.06733e-23
2.69017e-23
7.74525e-24
2.15468e-24
6.7399e-25
0.00011127
0.000356701
0.00117588
0.0023924
0.00421621
0.00842466
0.0143456
0.0153122
0.00663569
-0.00761901
-0.0126924
0.00540539
0.0545874
0.126786
0.195919
0.228138
0.215965
0.167978
0.105086
0.0504869
0.0163682
0.00200815
8.76299e-10
9.12422e-11
8.79083e-11
8.03791e-11
3.71541e-11
7.13638e-12
-1.78611e-11
-6.74762e-12
-6.69267e-13
6.52479e-14
2.36905e-14
2.16559e-15
1.6011e-16
3.01756e-17
4.78496e-18
4.02256e-19
-8.78559e-20
-5.51889e-20
-1.5617e-20
-2.05795e-21
6.44419e-22
6.3681e-22
3.21528e-22
1.29441e-22
4.58073e-23
1.48215e-23
4.47593e-24
1.49898e-24
0.000238681
0.000752725
0.00234097
0.00474561
0.00864906
0.0173311
0.0286009
0.0292354
0.0109728
-0.0156664
-0.0207304
0.0174599
0.1095
0.23928
0.363511
0.424268
0.405553
0.320115
0.204039
0.100424
0.033867
0.00470087
1.32208e-09
5.79673e-10
4.93977e-10
2.97007e-10
7.57035e-11
-2.28607e-10
-1.04069e-10
-1.25671e-11
7.79999e-13
3.74645e-13
5.41415e-14
-5.31417e-16
-2.4735e-16
-7.9456e-17
-2.42416e-17
-7.14064e-18
-1.98346e-18
-5.05558e-19
-1.1332e-19
-2.00162e-20
-1.47298e-21
8.87568e-22
6.19843e-22
2.70063e-22
9.81956e-23
3.20969e-23
9.7287e-24
3.26097e-24
0.000394986
0.00123297
0.00371947
0.00752351
0.013919
0.0279134
0.0452311
0.0449917
0.0146462
-0.025617
-0.0288021
0.0350084
0.176797
0.371472
0.558882
0.655216
0.631981
0.505107
0.326742
0.163741
0.0567725
0.00855673
2.11163e-09
1.43058e-09
1.48409e-09
6.23603e-10
-2.77012e-09
-1.45122e-09
-2.24445e-10
7.04043e-12
4.90742e-12
1.06822e-12
3.69452e-14
-3.37681e-15
-9.51762e-16
-2.11231e-16
-5.44884e-17
-1.41932e-17
-3.49711e-18
-7.73779e-19
-1.38127e-19
-1.15584e-20
5.35156e-21
4.00983e-21
1.80038e-21
6.71305e-22
2.2485e-22
6.98313e-23
2.04395e-23
6.65874e-24
0.000526985
0.00163804
0.00487685
0.00982731
0.0182257
0.0365563
0.0586992
0.0573041
0.0162169
-0.0350132
-0.0352947
0.0524967
0.237496
0.487854
0.731678
0.86392
0.840641
0.679522
0.444998
0.226173
0.0800437
0.0127876
6.71119e-09
1.85427e-09
7.09003e-10
-3.95936e-08
-2.19311e-08
-3.70509e-09
1.37952e-11
5.41757e-11
1.69706e-11
1.39173e-12
-5.01977e-14
-1.53547e-14
-1.4096e-15
-1.81804e-16
-4.44082e-17
-1.02862e-17
-1.94137e-18
-1.70239e-19
8.64651e-20
6.83206e-20
3.25229e-20
1.28667e-20
4.57286e-21
1.50642e-21
4.67338e-22
1.37817e-22
3.8872e-23
1.22771e-23
0.000573551
0.00179004
0.00533333
0.0106767
0.0195986
0.0392762
0.0631038
0.0609839
0.0146963
-0.0410121
-0.0389197
0.0618818
0.268709
0.548341
0.825578
0.984988
0.967159
0.790124
0.522716
0.268528
0.0964055
0.0160053
-7.102e-08
-5.4598e-07
-6.47581e-07
-3.33384e-07
-6.82252e-08
-1.64338e-09
5.51148e-10
2.28457e-10
2.37081e-11
-5.75529e-13
-2.20548e-13
-2.47247e-14
1.60208e-16
6.82105e-17
2.57611e-17
1.02332e-17
4.19761e-18
1.69566e-18
6.57817e-19
2.43067e-19
8.54808e-20
2.86655e-20
9.19048e-21
2.82451e-21
8.34098e-22
2.37197e-22
6.50866e-23
2.00706e-23
0.000490804
0.00156001
0.00475657
0.00939168
0.0166056
0.0331294
0.0542364
0.0524778
0.0103021
-0.0415361
-0.0392849
0.0574372
0.257954
0.534186
0.815591
0.984985
0.97384
0.801609
0.533723
0.275829
0.0997302
0.0168525
-4.42143e-06
-5.40788e-06
-3.43939e-06
-1.0712e-06
-8.9346e-08
4.2995e-09
2.38202e-09
4.42023e-10
-1.99645e-12
-2.02416e-12
-4.83629e-13
-1.49131e-14
9.9782e-16
3.76697e-16
1.19393e-16
3.87315e-17
1.28126e-17
4.28478e-18
1.43308e-18
4.73964e-19
1.53593e-19
4.84734e-20
1.48474e-20
4.40657e-21
1.26661e-21
3.52663e-22
9.51754e-23
2.89208e-23
0.000270098
0.000902921
0.00298306
0.00573987
0.00908406
0.0178545
0.0314661
0.0317039
0.00424794
-0.0341367
-0.035941
0.0323224
0.188118
0.418306
0.665889
0.827087
0.827222
0.687461
0.4599
0.238029
0.0859015
0.0143632
-1.94629e-05
-1.92336e-05
-9.45477e-06
-1.98789e-06
-8.30015e-09
1.65622e-08
5.91024e-09
4.87491e-10
-1.53817e-11
-6.51984e-12
-7.21145e-13
1.04081e-14
3.96291e-15
7.52516e-16
1.91121e-16
5.88895e-17
1.90003e-17
6.21775e-18
2.03504e-18
6.59178e-19
2.09591e-19
6.50503e-20
1.96416e-20
5.75978e-21
1.63929e-21
4.52824e-22
1.21458e-22
3.67237e-23
2.42259e-05
0.000140196
0.000837065
0.00147326
0.000821486
0.00113255
0.00561496
0.00875111
2.73405e-05
-0.0195905
-0.0295822
-0.00224518
0.0882414
0.245826
0.429779
0.557125
0.56345
0.469431
0.312295
0.159567
0.0561174
0.00863831
-6.2485e-05
-4.83191e-05
-1.68625e-05
-2.09488e-06
9.17467e-08
5.09682e-08
9.46877e-09
-9.42533e-11
-7.30538e-11
-1.38693e-11
1.9365e-14
4.44902e-14
8.40779e-15
6.4603e-16
1.50269e-16
5.09088e-17
1.76284e-17
6.08518e-18
2.07188e-18
6.90318e-19
2.23846e-19
7.04237e-20
2.14676e-20
6.33958e-21
1.8144e-21
5.03656e-22
1.35733e-22
4.12771e-23
-0.000126845
-0.000366669
-0.000727214
-0.00148571
-0.00422943
-0.00917624
-0.0114164
-0.00696076
-0.000542937
-0.0041484
-0.020322
-0.0290957
0.000440921
0.0833255
0.193958
0.274366
0.281233
0.23161
0.14941
0.0724469
0.0230515
0.00241604
-0.000201072
-8.7216e-05
-1.74977e-05
3.5807e-08
3.20692e-07
9.91171e-08
5.72441e-09
-6.36662e-10
-1.87994e-10
-1.39988e-11
6.00513e-13
1.53341e-13
8.71215e-15
-7.80792e-17
6.03128e-18
1.38628e-17
8.06285e-18
3.62845e-18
1.44834e-18
5.34787e-19
1.85949e-19
6.14742e-20
1.9442e-20
5.90787e-21
1.73061e-21
4.89999e-22
1.34398e-22
4.16446e-23
-0.000138239
-0.000458133
-0.00121084
-0.002241
-0.00467546
-0.0100854
-0.0148077
-0.0111165
0.00107215
0.00614976
-0.00926506
-0.0363206
-0.0449736
-0.0202431
0.0254857
0.0601813
0.063603
0.0474357
0.0240269
0.00638048
-0.0012787
-0.00165689
-0.000532373
-7.44124e-05
3.19008e-06
2.20909e-06
7.81678e-07
9.18078e-08
-6.92352e-09
-2.21788e-09
-1.874e-10
8.66269e-12
2.37745e-12
1.48076e-13
-3.44169e-15
-7.57679e-16
-1.38062e-16
-2.65404e-17
-3.61968e-18
3.00439e-19
5.1567e-19
2.7786e-19
1.16659e-19
4.32733e-20
1.48089e-20
4.77094e-21
1.46338e-21
4.30394e-22
1.21976e-22
3.90797e-23
-5.25096e-05
-0.000233046
-0.000799901
-0.00133488
-0.00194565
-0.00439342
-0.00792564
-0.00674975
0.00214599
0.00907275
0.000692441
-0.023397
-0.0464388
-0.0546321
-0.0532801
-0.0512417
-0.0510617
-0.0478367
-0.0382462
-0.0242614
-0.011233
-0.00330773
-0.000381453
2.51592e-05
1.36458e-05
4.64621e-06
6.79173e-07
-4.67627e-08
-1.80491e-08
-2.1406e-09
7.3944e-11
2.6088e-11
2.30442e-12
-4.74642e-14
-1.28476e-14
-1.03718e-15
-1.58044e-16
-3.99618e-17
-9.17031e-18
-1.67678e-18
-1.33534e-19
7.72536e-20
5.78521e-20
2.68655e-20
1.04485e-20
3.6687e-21
1.19943e-21
3.71025e-22
1.09643e-22
3.66036e-23
3.27459e-05
5.17379e-05
-9.35339e-05
-3.71611e-05
0.000829827
0.00168795
0.000847124
-0.000378852
0.00162824
0.0061234
0.00637248
-0.00280906
-0.0207803
-0.0423237
-0.0614761
-0.0735823
-0.0741137
-0.0637969
-0.0449988
-0.0250051
-0.0101019
-0.00241372
-4.3509e-05
3.0668e-05
1.67399e-05
3.46919e-06
-8.87512e-08
-5.68115e-08
-1.39199e-08
-4.03216e-11
1.36569e-10
3.44973e-11
2.93256e-13
-1.36538e-13
-2.33237e-14
-1.09078e-16
-3.58119e-17
-1.62095e-17
-4.90805e-18
-1.07184e-18
-1.06233e-19
5.29725e-20
4.474e-20
2.22188e-20
9.08923e-21
3.32424e-21
1.12442e-21
3.5808e-22
1.08527e-22
3.71715e-23
5.07088e-05
0.000160081
0.000292822
0.000472127
0.00143345
0.00343811
0.00434758
0.00236453
-0.000326012
0.000998249
0.00665823
0.00947986
0.00299372
-0.0137303
-0.0329006
-0.0441207
-0.0435679
-0.0345827
-0.0217203
-0.0103858
-0.00342791
-0.000394656
7.74794e-05
3.47419e-05
6.65489e-06
-7.11326e-07
-1.88498e-07
-2.69238e-08
-1.99446e-09
7.11664e-10
2.49539e-10
2.53237e-11
-1.37962e-12
-3.69915e-13
-2.11662e-14
4.37551e-16
1.13905e-16
2.55119e-17
5.8708e-18
1.57388e-18
5.27372e-19
2.0407e-19
8.1225e-20
3.12638e-20
1.14121e-20
3.943e-21
1.29421e-21
4.05502e-22
1.2183e-22
4.15244e-23
1.31817e-05
9.3655e-05
0.000231299
0.000164606
0.000261525
0.00135915
0.00243931
0.00125837
-0.001652
-0.00177945
0.00316312
0.00919608
0.00962291
0.00473113
-0.000464227
-0.00152486
0.000698862
0.00348721
0.00455967
0.00362123
0.00201315
0.000658567
0.000104208
-9.30159e-06
-7.98853e-06
-2.41685e-06
-2.23118e-07
1.81823e-08
7.84944e-09
1.45114e-09
9.3362e-11
-1.55152e-11
-4.32951e-12
-2.68773e-13
1.02581e-14
1.99651e-15
2.63334e-16
5.6791e-17
1.43234e-17
3.97062e-18
1.20875e-18
3.96238e-19
1.34899e-19
4.61044e-20
1.54714e-20
5.04016e-21
1.58685e-21
4.8239e-22
1.4169e-22
4.73407e-23
-2.46233e-05
-1.89017e-05
-2.39515e-05
-0.000335645
-0.000953444
-0.00116333
-0.000868943
-0.000945158
-0.00159585
-0.0015263
-0.000241291
0.00136074
0.00336912
0.00772014
0.0154544
0.0233512
0.0262722
0.0233714
0.0163774
0.00877625
0.00329467
0.00064977
-4.93812e-05
-4.01774e-05
-1.42664e-05
-1.82639e-06
1.15985e-07
6.0595e-08
1.28871e-08
-6.61959e-11
-1.40495e-10
-3.40236e-11
-1.39205e-12
1.4312e-13
3.35598e-14
1.74269e-15
8.79606e-17
3.38212e-17
1.14838e-17
3.87464e-18
1.33615e-18
4.65767e-19
1.61299e-19
5.47455e-20
1.80618e-20
5.76953e-21
1.78199e-21
5.32237e-22
1.53849e-22
5.05408e-23
-2.74385e-05
-5.65724e-05
-0.000152223
-0.000467901
-0.00105084
-0.00165242
-0.00195248
-0.00161353
-0.000525257
0.000220646
-0.00111305
-0.00400397
-0.00416411
0.00239532
0.0142439
0.0243799
0.0264567
0.0220031
0.0137941
0.00626734
0.00174561
3.83494e-05
-7.96712e-05
-4.42401e-05
-1.07249e-05
-3.276e-07
1.5433e-07
6.5934e-08
6.06219e-09
-8.2066e-10
-2.88025e-10
-2.48905e-11
1.41433e-12
3.8583e-13
2.25104e-14
-3.67994e-16
-7.81984e-17
-1.03877e-17
9.79457e-19
1.54882e-18
8.42859e-19
3.64259e-19
1.40715e-19
5.05055e-20
1.71292e-20
5.53862e-21
1.71669e-21
5.11932e-22
1.47281e-22
4.79816e-23
-9.08857e-06
-2.31786e-05
-0.000106655
-0.000267784
-0.000425988
-0.000633366
-0.00095247
-0.000892957
0.000112065
0.00110633
-9.25186e-05
-0.00356188
-0.00539855
-0.00249067
0.00432905
0.0101617
0.0109993
0.00834117
0.00429553
0.00123002
-0.000136668
-0.000221101
-0.000115205
-2.63709e-05
5.02747e-07
6.93097e-07
2.67909e-07
3.07835e-08
-6.26593e-09
-2.19055e-09
-2.02371e-10
1.39158e-11
3.84051e-12
2.34737e-13
-7.08961e-15
-1.36808e-15
-2.04552e-16
-4.04886e-17
-7.41275e-18
-8.20621e-19
1.82071e-19
1.81424e-19
9.00542e-20
3.63641e-20
1.31472e-20
4.41e-21
1.39602e-21
4.2102e-22
1.21676e-22
3.95927e-23
3.18771e-06
1.07432e-05
-1.19631e-05
-5.27255e-05
1.45049e-05
0.000179419
0.000151508
-9.13588e-05
4.3794e-05
0.000659273
0.000800861
-0.000256794
-0.00192122
-0.00297259
-0.00300679
-0.00280514
-0.00278893
-0.00271398
-0.00229329
-0.00151293
-0.000716529
-0.000237807
-3.45137e-05
1.04612e-05
4.5324e-06
1.08233e-06
9.37266e-08
-3.31439e-08
-1.2622e-08
-1.42778e-09
1.07701e-10
3.11767e-11
2.1294e-12
-8.31741e-14
-1.82668e-14
-1.0911e-15
-1.27781e-16
-3.45046e-17
-8.29759e-18
-1.6345e-18
-1.82916e-19
4.53445e-20
4.3591e-20
2.13178e-20
8.45134e-21
2.98611e-21
9.74736e-22
2.99133e-22
8.71571e-23
2.83643e-23
1.24236e-06
1.0152e-05
2.08901e-05
3.11375e-06
1.12453e-05
0.000146204
0.00026662
0.000109704
-0.000233063
-0.000195401
0.000564222
0.00139233
0.0011283
-0.000735432
-0.00356137
-0.00566384
-0.00588542
-0.00476571
-0.00294186
-0.00133889
-0.000381882
-3.09383e-05
3.23264e-05
1.45153e-05
3.33933e-06
2.29546e-07
-1.22948e-07
-5.04334e-08
-6.10859e-09
6.6986e-10
2.01625e-10
1.39384e-11
-7.36803e-13
-1.77746e-13
-8.01207e-15
6.31998e-17
-1.7003e-18
-6.26527e-18
-2.68454e-18
-7.1692e-19
-1.02775e-19
2.08297e-20
2.44493e-20
1.28188e-20
5.29419e-21
1.91803e-21
6.3486e-22
1.95827e-22
5.69171e-23
1.82972e-23
-3.3935e-06
-4.4153e-06
4.35437e-06
-1.14621e-05
-8.5382e-05
-0.000130278
-6.13348e-05
-1.52377e-06
-0.000188819
-0.000421934
-0.000159081
0.000712275
0.00134863
0.00088853
-0.000467514
-0.00167584
-0.00185278
-0.00132919
-0.000564108
-4.57899e-05
0.000121857
7.74028e-05
2.75791e-05
4.65373e-06
-4.63168e-07
-3.60046e-07
-1.37849e-07
-1.82655e-08
2.89985e-09
9.63231e-10
7.73337e-11
-5.28709e-12
-1.38057e-12
-6.42692e-14
1.86265e-15
3.84421e-16
7.33343e-17
1.47979e-17
3.01826e-18
6.9373e-19
2.08345e-19
7.84985e-20
3.14479e-20
1.21417e-20
4.38735e-21
1.47944e-21
4.67346e-22
1.38925e-22
3.89974e-23
1.19946e-23
-1.78287e-06
-6.61018e-06
-7.97567e-06
-2.83751e-06
-3.31282e-05
-0.00011833
-0.000132524
-2.05063e-05
5.91791e-05
-0.000103335
-0.000368141
-0.000338487
0.000122405
0.000813163
0.00138891
0.00167048
0.00164914
0.00140277
0.000985607
0.000539722
0.000213446
5.57113e-05
3.94267e-06
-4.21253e-06
-1.9253e-06
-3.73512e-07
3.36829e-10
9.49353e-09
3.11656e-09
2.87809e-10
-3.01264e-11
-9.1267e-12
-5.87268e-13
2.24081e-14
4.61935e-15
4.66465e-16
9.36874e-17
2.32305e-17
6.00013e-18
1.63351e-18
4.76748e-19
1.48314e-19
4.7856e-20
1.55118e-20
4.92885e-21
1.51243e-21
4.445e-22
1.24552e-22
3.31719e-23
9.61184e-24
1.69271e-06
7.88093e-07
-1.94651e-06
1.77112e-05
5.61201e-05
5.86808e-05
1.95096e-05
3.18578e-05
0.00013526
0.00015482
-7.23714e-05
-0.000429526
-0.000491228
-3.13518e-05
0.000781944
0.00142378
0.00149317
0.00117274
0.000669468
0.000261617
5.19818e-05
-1.21861e-05
-1.10641e-05
-4.92456e-06
-1.00852e-06
1.186e-07
5.54208e-08
9.25152e-09
-5.15301e-10
-1.70682e-10
-3.39126e-11
-2.89837e-12
1.97494e-13
4.96805e-14
3.03801e-15
8.25071e-17
3.99261e-17
1.49689e-17
5.03172e-18
1.64672e-18
5.38473e-19
1.76133e-19
5.71045e-20
1.81442e-20
5.59601e-21
1.6637e-21
4.74528e-22
1.29406e-22
3.36392e-23
9.51155e-24
1.61183e-06
3.66184e-06
4.50269e-06
1.16833e-05
4.45893e-05
8.46821e-05
7.8478e-05
3.04901e-05
2.41348e-05
0.00010727
0.000147639
1.55077e-05
-0.000223222
-0.000360015
-0.000323981
-0.000213067
-0.000160382
-0.000165584
-0.000164383
-0.000128083
-7.47967e-05
-2.9585e-05
-6.59803e-06
-1.95705e-08
6.39744e-07
2.53313e-07
3.48163e-08
-4.14248e-09
-1.3924e-09
-1.50938e-10
8.64154e-12
2.30654e-12
2.61019e-13
4.63412e-15
-4.90513e-16
-7.49513e-17
-6.57005e-18
2.43972e-18
2.02482e-18
9.823e-19
4.01784e-19
1.50043e-19
5.25526e-20
1.74416e-20
5.50797e-21
1.65797e-21
4.76073e-22
1.30421e-22
3.40727e-23
9.72688e-24
-4.54711e-07
8.06313e-07
1.57561e-06
-7.20148e-06
-1.75671e-05
-6.97592e-06
7.50182e-06
-1.66908e-05
-5.83454e-05
-3.41693e-05
8.10112e-05
0.000178119
0.00012245
-0.000113559
-0.000417277
-0.000617027
-0.000626296
-0.00050286
-0.000315957
-0.000152083
-5.08044e-05
-7.4768e-06
2.93283e-06
1.57748e-06
4.42051e-07
5.85022e-08
-1.47232e-08
-5.45357e-09
-7.3087e-10
7.34942e-11
2.45794e-11
2.44355e-12
-1.06835e-13
-2.6454e-14
-1.37658e-15
-6.5922e-17
-1.69903e-17
-2.69694e-18
1.7853e-19
4.02195e-19
2.33461e-19
1.03543e-19
4.00839e-20
1.41608e-20
4.65806e-21
1.44195e-21
4.22699e-22
1.17787e-22
3.12697e-23
9.11206e-24
-8.11032e-07
-1.56243e-06
-2.02893e-06
-8.25688e-06
-2.61048e-05
-4.18897e-05
-3.59237e-05
-1.97883e-05
-2.61299e-05
-5.1725e-05
-4.05382e-05
3.48695e-05
0.000115175
0.000112382
2.92052e-05
-6.46332e-05
-8.93014e-05
-6.21369e-05
-1.90016e-05
9.1218e-06
1.49186e-05
8.67649e-06
2.69494e-06
2.93879e-07
-1.52406e-07
-6.87424e-08
-1.38155e-08
-9.36734e-10
3.21393e-10
1.01576e-10
1.03685e-11
-7.86218e-13
-1.96347e-13
-1.21889e-14
1.45234e-16
2.65294e-17
3.3185e-18
5.04212e-19
3.58827e-19
2.71214e-19
1.5295e-19
7.07467e-20
2.85999e-20
1.04661e-20
3.53863e-21
1.11945e-21
3.34091e-22
9.45834e-23
2.54963e-23
7.57141e-24
-1.54862e-08
-6.62463e-07
-1.07024e-06
1.42941e-06
2.24037e-06
-4.98558e-06
-9.46932e-06
3.45202e-06
1.77907e-05
2.33781e-06
-4.17309e-05
-6.17898e-05
-2.07367e-05
7.1044e-05
0.000163936
0.000217417
0.000215442
0.000176252
0.000117171
6.11602e-05
2.33671e-05
5.29358e-06
-3.7034e-08
-4.25703e-07
-2.16386e-07
-4.82117e-08
1.87353e-09
1.32611e-09
3.12295e-10
1.84152e-12
-4.45926e-12
-1.09251e-12
-1.76432e-14
2.90793e-15
5.0526e-16
8.21362e-17
1.60675e-17
3.45803e-18
9.09824e-19
3.1609e-19
1.28551e-19
5.27529e-20
2.04773e-20
7.41163e-21
2.50663e-21
7.96756e-22
2.3939e-22
6.83103e-23
1.85807e-23
5.58617e-24
3.33454e-07
5.34906e-07
7.25322e-07
3.74703e-06
1.11417e-05
1.59745e-05
1.29726e-05
8.95782e-06
1.39124e-05
1.93481e-05
7.88515e-06
-2.19484e-05
-4.29441e-05
-2.94076e-05
1.39084e-05
5.48489e-05
6.44895e-05
5.0197e-05
2.6504e-05
8.14186e-06
-3.54922e-07
-1.94703e-06
-8.40472e-07
-2.14723e-07
-2.15117e-08
1.56864e-08
4.87626e-09
7.22497e-10
-9.52392e-11
-3.56035e-11
-5.47407e-12
2.80044e-13
7.20634e-14
4.70027e-15
3.95993e-17
2.19839e-17
7.93916e-18
2.36892e-18
7.18321e-19
2.47074e-19
9.41759e-20
3.66516e-20
1.37803e-20
4.9008e-21
1.64227e-21
5.19777e-22
1.5599e-22
4.45612e-23
1.21568e-23
3.67588e-24
4.68715e-08
3.17401e-07
5.00756e-07
-8.02305e-08
3.84986e-07
3.53073e-06
4.70923e-06
-3.07709e-07
-4.86563e-06
1.51538e-06
1.56387e-05
1.88138e-05
1.67868e-06
-2.87023e-05
-5.54913e-05
-6.84047e-05
-6.64108e-05
-5.4553e-05
-3.7254e-05
-2.0626e-05
-8.72874e-06
-2.39159e-06
-2.2943e-07
1.73702e-07
9.22512e-08
1.89108e-08
-8.53105e-10
-5.28323e-10
-1.09711e-10
1.12127e-12
1.49908e-12
3.09165e-13
2.23772e-15
-6.65406e-16
-1.22983e-16
-2.25794e-17
-4.09492e-18
-6.39557e-19
-2.75936e-20
4.88199e-20
3.52848e-20
1.74892e-20
7.3026e-21
2.72572e-21
9.34753e-22
2.9923e-22
9.03314e-23
2.58953e-23
7.08406e-24
2.14956e-24
-1.15591e-07
-1.66119e-07
-2.30231e-07
-1.33653e-06
-3.81114e-06
-5.1879e-06
-4.0778e-06
-3.22526e-06
-5.10245e-06
-6.10533e-06
-1.15481e-06
8.59751e-06
1.35888e-05
7.06342e-06
-8.32305e-06
-2.19456e-05
-2.49235e-05
-2.01505e-05
-1.19711e-05
-4.92514e-06
-9.29205e-07
3.66951e-07
2.59062e-07
9.10327e-08
1.19153e-08
-5.74789e-09
-2.18558e-09
-4.05832e-10
2.95507e-11
1.23313e-11
1.59983e-12
-8.46312e-14
-2.00776e-14
-1.20478e-15
-1.12334e-16
-3.09671e-17
-8.40959e-18
-2.2254e-18
-5.49546e-19
-1.16532e-19
-1.69598e-20
8.32375e-22
1.97168e-21
1.03438e-21
4.09289e-22
1.40771e-22
4.41898e-23
1.29547e-23
3.59195e-24
1.10039e-24
-1.85e-08
-1.01453e-07
-1.60538e-07
-3.63461e-08
-2.57694e-07
-1.25449e-06
-1.54047e-06
-2.76978e-08
1.19062e-06
-7.54848e-07
-4.67577e-06
-5.14078e-06
2.16862e-07
8.87055e-06
1.62155e-05
1.9402e-05
1.85042e-05
1.51009e-05
1.04382e-05
5.93163e-06
2.60131e-06
7.50425e-07
7.87399e-08
-4.5637e-08
-2.22006e-08
-3.81506e-09
3.53962e-10
1.6599e-10
3.37251e-11
1.12655e-12
-4.30717e-13
-1.21444e-13
-7.41707e-15
1.11569e-16
1.28913e-17
-4.18505e-18
-3.44544e-18
-1.49382e-18
-5.05798e-19
-1.44014e-19
-3.47338e-20
-6.75455e-21
-8.25861e-22
8.37565e-23
1.04609e-22
4.77521e-23
1.70083e-23
5.33187e-24
1.5367e-24
4.8308e-25
2.93089e-08
4.30948e-08
5.95532e-08
3.69427e-07
1.01822e-06
1.36793e-06
1.08636e-06
9.05465e-07
1.40326e-06
1.55887e-06
2.006e-07
-2.22304e-06
-3.44577e-06
-1.76904e-06
2.17328e-06
5.69747e-06
6.5882e-06
5.44509e-06
3.32981e-06
1.46091e-06
3.72147e-07
-1.84128e-08
-5.24254e-08
-1.83012e-08
-1.30573e-09
1.22367e-09
4.00083e-10
4.1071e-11
-5.41692e-12
-1.74385e-12
-3.45613e-13
-3.75223e-14
2.07826e-15
5.17399e-16
1.06978e-16
2.0598e-17
2.935e-18
5.43364e-20
-1.5716e-19
-7.36404e-20
-2.32463e-20
-5.88275e-21
-1.21214e-21
-1.82831e-22
-6.77131e-24
8.90898e-24
4.78791e-24
1.75423e-24
5.46903e-25
1.80525e-25
3.65328e-09
1.92573e-08
3.26582e-08
4.0115e-09
5.87457e-08
2.55236e-07
2.99548e-07
-5.63696e-09
-2.58496e-07
1.50145e-07
9.63737e-07
1.04664e-06
-5.13344e-08
-1.84513e-06
-3.35031e-06