/*--------------------------------*- C++ -*----------------------------------*\
| =========                 |                                                 |
| \\      /  F ield         | OpenFOAM: The Open Source CFD Toolbox           |
|  \\    /   O peration     | Version:  v2006                                 |
|   \\  /    A nd           | Website:  www.openfoam.com                      |
|    \\/     M anipulation  |                                                 |
\*---------------------------------------------------------------------------*/
FoamFile
{
    version     2.0;
    format      ascii;
    class       volScalarField;
    location    "0";
    object      f;
}
// * * * * * * * * * * * * * * * * * * * * * * * * * * * * * * * * * * * * * //

dimensions      [0 0 0 0 0 0 0];


internalField   nonuniform List<scalar> 
2500
(
-1.71858e-85
1.36643e-68
-4.26335e-60
2.51657e-53
4.8971e-49
9.63237e-46
4.09101e-43
4.15923e-41
1.11303e-39
1.81795e-38
1.72104e-37
9.88296e-37
3.82237e-36
1.09973e-35
2.54894e-35
5.02644e-35
8.74875e-35
1.37038e-34
1.93819e-34
2.4598e-34
2.7779e-34
2.77532e-34
2.4484e-34
1.91062e-34
1.32444e-34
8.2021e-35
4.56692e-35
2.30118e-35
1.05598e-35
4.4396e-36
1.71959e-36
6.16766e-37
2.05806e-37
6.41623e-38
1.87611e-38
5.16312e-39
1.34158e-39
3.3008e-40
7.71003e-41
1.7138e-41
3.63311e-42
7.35991e-43
1.42737e-43
2.65459e-44
4.7417e-45
8.1465e-46
1.348e-46
2.15098e-47
3.31371e-48
2.94969e-49
-3.23026e-83
7.99553e-67
-1.47273e-58
6.46709e-52
9.42511e-48
1.50291e-44
5.35667e-42
4.70364e-40
1.12165e-38
1.66076e-37
1.44713e-36
7.71966e-36
2.79003e-35
7.53305e-35
1.64452e-34
3.06683e-34
5.0775e-34
7.61281e-34
1.03533e-33
1.26669e-33
1.38133e-33
1.3347e-33
1.14078e-33
8.64037e-34
5.82361e-34
3.5124e-34
1.90751e-34
9.38735e-35
4.21239e-35
1.73372e-35
6.58061e-36
2.31516e-36
7.58438e-37
2.32328e-37
6.67996e-38
1.80898e-38
4.62848e-39
1.12206e-39
2.58395e-40
5.6658e-41
1.18543e-41
2.37123e-42
4.54293e-43
8.34991e-44
1.47459e-44
2.50565e-45
4.10205e-46
6.47807e-47
9.87994e-48
9.20986e-49
-5.26678e-81
3.93919e-65
-4.45782e-57
1.50441e-50
1.65578e-46
2.16515e-43
6.55288e-41
5.02972e-39
1.08224e-37
1.47001e-36
1.19299e-35
5.9796e-35
2.04166e-34
5.22751e-34
1.08573e-33
1.93341e-33
3.07404e-33
4.45354e-33
5.87664e-33
6.98953e-33
7.41736e-33
6.9824e-33
5.82251e-33
4.3094e-33
2.84274e-33
1.6805e-33
8.95694e-34
4.33109e-34
1.91159e-34
7.74566e-35
2.89688e-35
1.00499e-35
3.24887e-36
9.82724e-37
2.79184e-37
7.47455e-38
1.89172e-38
4.53854e-39
1.03483e-39
2.24759e-40
4.65988e-41
9.24014e-42
1.75548e-42
3.20063e-43
5.6085e-44
9.4588e-45
1.53733e-45
2.41083e-46
3.65196e-47
3.51901e-48
-8.14846e-79
1.71058e-63
-1.27823e-55
3.40469e-49
2.82731e-45
3.03207e-42
7.79457e-40
5.2312e-38
1.01623e-36
1.26671e-35
9.58127e-35
4.51591e-34
1.4577e-33
3.54146e-33
7.001e-33
1.19086e-32
1.81955e-32
2.54999e-32
3.26825e-32
3.78127e-32
3.90575e-32
3.58179e-32
2.9136e-32
2.10697e-32
1.36022e-32
7.88127e-33
4.12276e-33
1.95891e-33
8.50463e-34
3.39289e-34
1.25043e-34
4.27805e-35
1.36482e-35
4.07682e-36
1.14444e-36
3.02933e-37
7.58416e-38
1.80083e-38
4.06564e-39
8.74713e-40
1.79715e-40
3.53272e-41
6.65572e-42
1.20376e-42
2.09307e-43
3.50367e-44
5.65346e-45
8.80389e-46
1.32462e-46
1.31387e-47
-1.16304e-76
5.58066e-62
-3.41861e-54
7.48925e-48
4.6879e-44
4.12355e-41
9.0071e-39
5.28713e-37
9.2786e-36
1.06165e-34
7.48969e-34
3.32226e-33
1.0146e-32
2.34032e-32
4.40557e-32
7.16063e-32
1.05223e-31
1.42834e-31
1.78033e-31
2.00507e-31
2.01619e-31
1.80097e-31
1.42875e-31
1.00929e-31
6.37589e-32
3.62073e-32
1.85895e-32
8.67975e-33
3.70703e-33
1.45623e-33
5.28901e-34
1.78464e-34
5.61924e-35
1.65769e-35
4.59851e-36
1.20354e-36
2.98082e-37
7.00533e-38
1.56607e-38
3.33778e-39
6.79604e-40
1.3244e-40
2.47451e-41
4.4397e-42
7.66024e-43
1.27275e-43
2.03894e-44
3.15308e-45
4.7121e-46
4.79383e-47
-1.4244e-74
1.37055e-61
-8.2803e-53
1.59968e-46
7.53984e-43
5.44064e-40
1.0102e-37
5.18795e-36
8.22964e-35
8.64558e-34
5.6929e-33
2.37864e-32
6.87809e-32
1.50726e-31
2.70315e-31
4.19972e-31
5.94063e-31
7.82317e-31
9.49657e-31
1.04191e-30
1.02004e-30
8.87278e-31
6.86241e-31
4.73411e-31
2.92586e-31
1.62832e-31
8.20523e-32
3.76502e-32
1.58198e-32
6.11978e-33
2.19069e-33
7.29106e-34
2.26597e-34
6.6023e-35
1.81003e-35
4.68433e-36
1.14781e-36
2.67004e-37
5.91086e-38
1.24805e-38
2.51844e-39
4.86577e-40
9.01623e-41
1.60481e-41
2.74773e-42
4.53159e-43
7.20764e-44
1.10689e-44
1.64306e-45
1.70914e-46
-1.11478e-72
-2.03906e-58
-1.69469e-51
3.31479e-45
1.17501e-41
6.95679e-39
1.09858e-36
4.93754e-35
7.08373e-34
6.8337e-33
4.20313e-32
1.65574e-31
4.53695e-31
9.45182e-31
1.61569e-30
2.40031e-30
3.27195e-30
4.18797e-30
4.95935e-30
5.3049e-30
5.05666e-30
4.2816e-30
3.22681e-30
2.17297e-30
1.31354e-30
7.16313e-31
3.54264e-31
1.59758e-31
6.60469e-32
2.51633e-32
8.87897e-33
2.9151e-33
8.94333e-34
2.57395e-34
6.97441e-35
1.78494e-35
4.32737e-36
9.96458e-37
2.1846e-37
4.56995e-38
9.13982e-39
1.75081e-39
3.21762e-40
5.68185e-41
9.65419e-42
1.58046e-42
2.49585e-43
3.80645e-44
5.61244e-45
5.95339e-46
1.10861e-70
-2.57691e-56
-2.27115e-50
6.65761e-44
1.77209e-40
8.61087e-38
1.15723e-35
4.55339e-34
5.91122e-33
5.23683e-32
3.01082e-31
1.11929e-30
2.90892e-30
5.76519e-30
9.39799e-30
1.33554e-29
1.7567e-29
2.19041e-29
2.53523e-29
2.64622e-29
2.45577e-29
2.02298e-29
1.48464e-29
9.75386e-30
5.7647e-30
3.07988e-30
1.4949e-30
6.62572e-31
2.69541e-31
1.01152e-31
3.51869e-32
1.13975e-32
3.45218e-33
9.8153e-34
2.62889e-34
6.65404e-35
1.59625e-35
3.6388e-36
7.90102e-37
1.63761e-37
3.24632e-38
6.16591e-39
1.12393e-39
1.96911e-40
3.32041e-41
5.39591e-42
8.46078e-43
1.28149e-43
1.8769e-44
2.02544e-45
8.663e-68
-2.37935e-54
2.29428e-49
1.2951e-42
2.58302e-39
1.03044e-36
1.17955e-34
4.06469e-33
4.7771e-32
3.88595e-31
2.08991e-30
7.33957e-30
1.81083e-29
3.41672e-29
5.31412e-29
7.22648e-29
9.18673e-29
1.11895e-28
1.26859e-28
1.2932e-28
1.16821e-28
9.35546e-29
6.68002e-29
4.27851e-29
2.47113e-29
1.29313e-29
6.15961e-30
2.68339e-30
1.07432e-30
3.97181e-31
1.3623e-31
4.35423e-32
1.30225e-32
3.65822e-33
9.68618e-34
2.425e-34
5.75688e-35
1.29928e-35
2.79433e-36
5.73889e-37
1.12769e-37
2.12389e-38
3.84012e-39
6.67537e-40
1.11716e-40
1.80224e-41
2.80597e-42
4.22093e-43
6.14098e-44
6.72801e-45
2.97701e-65
-1.91989e-52
3.36883e-47
2.43897e-41
3.63359e-38
1.19049e-35
1.16209e-33
3.50874e-32
3.73463e-31
2.78846e-30
1.40381e-29
4.6624e-29
1.09313e-28
1.96513e-28
2.9177e-28
3.7981e-28
4.67579e-28
5.58162e-28
6.21376e-28
6.19161e-28
5.44255e-28
4.23321e-28
2.93756e-28
1.83255e-28
1.03369e-28
5.29658e-29
2.47572e-29
1.06017e-29
4.17785e-30
1.52194e-30
5.14813e-31
1.62397e-31
4.7966e-32
1.33152e-32
3.48581e-33
8.633e-34
2.02837e-34
4.53283e-35
9.65678e-36
1.96536e-36
3.82847e-37
7.1504e-38
1.28246e-38
2.21207e-39
3.67433e-40
5.88469e-41
9.09786e-42
1.35925e-42
1.96448e-43
2.18111e-44
8.33491e-63
-1.4281e-50
1.71564e-45
4.4469e-40
4.92505e-37
1.32577e-34
1.10533e-32
2.92599e-31
2.82131e-30
1.93216e-29
9.11112e-29
2.8651e-28
6.39051e-28
1.09548e-27
1.55351e-27
1.93653e-27
2.31441e-27
2.71847e-27
2.97971e-27
2.90447e-27
2.483e-27
1.87343e-27
1.2617e-27
7.65723e-28
4.21505e-28
2.11394e-28
9.69525e-29
4.08153e-29
1.58349e-29
5.68532e-30
1.89707e-30
5.90746e-31
1.72355e-31
4.72883e-32
1.22422e-32
2.99971e-33
6.9764e-34
1.54387e-34
3.25844e-35
6.57237e-36
1.26929e-36
2.35107e-37
4.18324e-38
7.16014e-39
1.1805e-39
1.87707e-40
2.88179e-41
4.27637e-42
6.13987e-43
6.89715e-44
2.112e-60
-1.00107e-48
6.72062e-44
7.85678e-39
6.42041e-36
1.42041e-33
1.01378e-31
2.35499e-30
2.05737e-29
1.29079e-28
5.70411e-28
1.70048e-27
3.61266e-27
5.91068e-27
8.01031e-27
9.56515e-27
1.11324e-26
1.29274e-26
1.39915e-26
1.335e-26
1.10909e-26
8.10521e-27
5.28872e-27
3.11805e-27
1.67335e-27
8.21029e-28
3.69443e-28
1.52921e-28
5.84248e-29
2.06809e-29
6.80941e-30
2.09385e-30
6.03598e-31
1.63716e-31
4.19206e-32
1.01645e-32
2.34029e-33
5.12939e-34
1.07263e-34
2.14444e-35
4.10631e-36
7.5439e-37
1.33171e-37
2.26206e-38
3.70206e-39
5.84458e-40
8.9109e-41
1.31343e-41
1.87346e-42
2.12625e-43
5.02029e-58
-6.68001e-47
2.26501e-42
1.34813e-37
8.03343e-35
1.46048e-32
8.95393e-31
1.82783e-29
1.44678e-28
8.29981e-28
3.43821e-27
9.73037e-27
1.97168e-26
3.08193e-26
3.99374e-26
4.56976e-26
5.20003e-26
6.00345e-26
6.43485e-26
6.01251e-26
4.84917e-26
3.42615e-26
2.16154e-26
1.23578e-26
6.45803e-27
3.0982e-27
1.3677e-27
5.56765e-28
2.09557e-28
7.31631e-29
2.37804e-29
7.22324e-30
2.05803e-30
5.51985e-31
1.39829e-31
3.35569e-32
7.65019e-33
1.66092e-33
3.44177e-34
6.82096e-35
1.29518e-35
2.36024e-36
4.13405e-37
6.96931e-38
1.13228e-38
1.77496e-39
2.68762e-40
3.93505e-41
5.57645e-42
6.38611e-43
1.13632e-55
-4.26203e-45
6.7532e-41
2.25574e-36
9.62534e-34
1.43629e-31
7.60378e-30
1.36715e-28
9.80308e-28
5.12723e-27
1.99095e-26
5.35698e-26
1.03696e-25
1.55028e-25
1.92203e-25
2.10799e-25
2.35738e-25
2.7236e-25
2.89932e-25
2.65307e-25
2.07445e-25
1.41398e-25
8.60393e-26
4.75956e-26
2.41852e-26
1.13375e-26
4.91002e-27
1.96645e-27
7.29539e-28
2.51364e-28
8.06959e-29
2.42238e-29
6.82419e-30
1.81052e-30
4.53867e-31
1.0783e-31
2.43458e-32
5.2367e-33
1.07548e-33
2.11314e-34
3.97935e-35
7.19392e-36
1.25035e-36
2.09221e-37
3.37467e-38
5.2531e-39
7.90016e-40
1.14904e-40
1.61784e-41
1.86736e-42
2.46507e-53
-2.60342e-43
1.76683e-39
3.70388e-35
1.10154e-32
1.34418e-30
6.19682e-29
9.8495e-28
6.39663e-27
3.03705e-26
1.1048e-25
2.83079e-25
5.24424e-25
7.50847e-25
8.91129e-25
9.3701e-25
1.03673e-24
1.20768e-24
1.27999e-24
1.14666e-24
8.67782e-25
5.69184e-25
3.33051e-25
1.77792e-25
8.76875e-26
4.01364e-26
1.70543e-26
6.72362e-27
2.46059e-27
8.37335e-28
2.6569e-28
7.8869e-29
2.19797e-29
5.77068e-30
1.43203e-30
3.36905e-31
7.53508e-32
1.60607e-32
3.26962e-33
6.37011e-34
1.18984e-34
2.13413e-35
3.68114e-36
6.11441e-37
9.79211e-38
1.51372e-38
2.26117e-39
3.26721e-40
4.5708e-41
5.31196e-42
5.1377e-51
-1.52153e-41
3.83794e-38
6.01749e-34
1.20098e-31
1.18742e-29
4.83416e-28
6.83308e-27
4.01884e-26
1.72142e-25
5.85766e-25
1.43171e-24
2.54398e-24
3.49348e-24
3.97121e-24
4.00392e-24
4.42167e-24
5.23704e-24
5.53677e-24
4.8514e-24
3.5465e-24
2.23184e-24
1.25135e-24
6.42485e-25
3.06879e-25
1.37039e-25
5.71473e-26
2.2199e-26
8.02285e-27
2.6994e-27
8.47392e-28
2.48942e-28
6.86739e-29
1.78513e-29
4.387e-30
1.02238e-30
2.2657e-31
4.78651e-32
9.66099e-33
1.86668e-33
3.45884e-34
6.15601e-35
1.05391e-35
1.73788e-36
2.76361e-37
4.24295e-38
6.29584e-39
9.03791e-40
1.25638e-40
1.46878e-41
1.02901e-48
-8.49088e-40
5.48141e-37
9.75554e-33
1.24507e-30
9.76098e-29
3.59625e-27
4.56428e-26
2.43209e-25
9.31748e-25
2.95719e-24
6.90654e-24
1.18015e-23
1.5572e-23
1.69628e-23
1.63992e-23
1.82873e-23
2.22231e-23
2.34588e-23
2.00747e-23
1.41423e-23
8.5099e-24
4.55212e-24
2.23842e-24
1.03251e-24
4.49427e-25
1.84055e-25
7.05487e-26
2.52214e-26
8.40349e-27
2.61324e-27
7.60541e-28
2.07848e-28
5.3526e-29
1.30331e-29
3.00984e-30
6.61118e-31
1.38467e-31
2.77147e-32
5.31172e-33
9.7653e-34
1.72485e-34
2.93125e-35
4.79909e-36
7.57868e-37
1.15569e-37
1.70357e-38
2.42981e-39
3.35651e-40
3.94406e-41
1.97828e-46
-4.51059e-38
-4.73495e-36
1.58673e-31
1.22811e-29
7.26217e-28
2.53589e-26
2.93496e-25
1.41916e-24
4.80712e-24
1.41573e-23
3.16405e-23
5.21546e-23
6.62722e-23
6.92007e-23
6.41371e-23
7.33457e-23
9.23201e-23
9.72834e-23
8.11318e-23
5.49326e-23
3.14809e-23
1.59791e-23
7.4835e-24
3.32099e-24
1.40768e-24
5.66885e-25
2.14918e-25
7.61971e-26
2.51968e-26
7.77579e-27
2.24498e-27
6.08429e-28
1.55348e-28
3.74994e-29
8.58555e-30
1.86983e-30
3.88366e-31
7.71029e-32
1.46608e-32
2.67469e-33
4.68921e-34
7.91145e-35
1.28619e-35
2.01726e-36
3.05567e-37
4.47497e-38
6.34211e-39
8.70637e-40
1.02752e-40
3.64277e-44
-2.27186e-36
-8.01566e-34
2.58536e-30
1.16132e-28
4.5846e-27
1.67735e-25
1.81543e-24
7.99717e-24
2.36084e-23
6.39747e-23
1.36905e-22
2.18455e-22
2.68072e-22
2.68322e-22
2.38272e-22
2.85274e-22
3.75476e-22
3.94385e-22
3.1967e-22
2.07388e-22
1.12655e-22
5.38782e-23
2.38457e-23
1.01267e-23
4.17579e-24
1.65774e-24
6.24099e-25
2.20301e-25
7.25374e-26
2.22702e-26
6.39014e-27
1.71972e-27
4.35758e-28
1.04353e-28
2.36985e-29
5.11948e-30
1.05481e-30
2.0777e-31
3.92038e-32
7.09883e-33
1.23551e-33
2.06974e-34
3.34164e-35
5.20578e-36
7.83376e-37
1.13987e-37
1.60532e-38
2.19019e-39
2.59443e-40
6.40463e-42
-1.07952e-34
-4.2345e-32
4.17698e-29
1.07815e-27
1.96795e-26
1.02044e-24
1.07774e-23
4.35919e-23
1.10337e-22
2.7152e-22
5.5554e-22
8.60971e-22
1.02401e-21
9.81816e-22
8.34269e-22
1.07558e-21
1.49422e-21
1.56017e-21
1.22512e-21
7.5895e-22
3.88498e-22
1.73381e-22
7.16758e-23
2.88877e-23
1.15766e-23
4.55262e-24
1.71384e-24
6.06169e-25
1.99721e-25
6.12193e-26
1.75011e-26
4.68492e-27
1.17949e-27
2.80448e-28
6.32132e-29
1.35512e-29
2.77071e-30
5.41623e-31
1.01438e-31
1.82343e-32
3.15102e-33
5.24207e-34
8.40616e-35
1.3009e-35
1.94495e-36
2.81213e-37
3.93582e-38
5.33704e-39
6.34175e-40
1.07071e-39
-4.80965e-33
-1.71081e-30
6.57335e-28
1.03555e-26
-3.33186e-26
5.47374e-24
6.1079e-23
2.29993e-22
4.91437e-22
1.07786e-21
2.09513e-21
3.15706e-21
3.65689e-21
3.35126e-21
2.71754e-21
3.92539e-21
5.81001e-21
6.00865e-21
4.55434e-21
2.68363e-21
1.28482e-21
5.27505e-22
1.99775e-22
7.52858e-23
2.92927e-23
1.15293e-23
4.39675e-24
1.57519e-24
5.23354e-25
1.6099e-25
4.6007e-26
1.22772e-26
3.07557e-27
7.26797e-28
1.62705e-28
3.46303e-29
7.02905e-30
1.36405e-30
2.53629e-31
4.52696e-32
7.76876e-33
1.28366e-33
2.04482e-34
3.14393e-35
4.67053e-36
6.71076e-37
9.33469e-38
1.25817e-38
1.49886e-39
1.69279e-37
-1.99385e-31
-5.96803e-29
9.84872e-27
1.1085e-25
-2.07889e-24
2.30195e-23
3.26914e-22
1.17203e-21
2.09337e-21
4.00154e-21
7.26553e-21
1.05634e-20
1.19954e-20
1.04475e-20
8.03684e-21
1.38167e-20
2.20209e-20
2.24643e-20
1.63703e-20
9.13471e-21
4.049e-21
1.49491e-21
4.99747e-22
1.70453e-22
6.43491e-23
2.5993e-23
1.03231e-23
3.82212e-24
1.29686e-24
4.03414e-25
1.15777e-25
3.08859e-26
7.71232e-27
1.81341e-27
4.03507e-28
8.53149e-29
1.71976e-29
3.31411e-30
6.11944e-31
1.08476e-31
1.84901e-32
3.03498e-33
4.80323e-34
7.33794e-35
1.08328e-35
1.54692e-36
2.13876e-37
2.86555e-38
3.42077e-39
2.51323e-35
-7.613e-30
-1.86423e-27
1.36734e-25
1.37459e-24
-3.09127e-23
3.70238e-23
1.61929e-21
5.728e-21
8.56995e-21
1.40563e-20
2.29655e-20
3.10272e-20
3.48591e-20
2.84127e-20
2.04115e-20
4.65612e-20
8.10916e-20
8.12693e-20
5.6695e-20
2.9806e-20
1.20561e-20
3.84302e-21
1.0379e-21
2.88835e-22
1.05905e-22
4.78501e-23
2.13014e-23
8.50277e-24
3.01254e-24
9.58808e-25
2.78107e-25
7.4433e-26
1.85652e-26
4.34901e-27
9.62661e-28
2.02308e-28
4.0517e-29
7.75609e-30
1.42259e-30
2.50501e-31
4.24194e-32
6.91784e-33
1.08789e-33
1.6516e-34
2.42324e-35
3.43943e-36
4.72695e-37
6.29599e-38
7.52808e-39
3.47192e-33
-2.63737e-28
-5.26417e-26
1.69655e-24
1.88407e-23
-3.31396e-22
-6.36407e-22
7.13729e-21
2.64679e-20
3.38092e-20
4.84575e-20
6.68754e-20
7.26395e-20
8.15627e-20
5.88392e-20
3.70641e-20
1.48238e-19
2.89035e-19
2.83547e-19
1.88474e-19
9.27956e-20
3.35106e-20
8.46528e-21
1.31515e-21
8.33645e-23
3.18716e-23
4.96285e-23
3.4785e-23
1.67662e-23
6.47847e-24
2.14958e-24
6.35747e-25
1.71475e-25
4.28249e-26
1.00086e-26
2.20574e-27
4.61008e-28
9.17689e-29
1.74561e-29
3.18121e-30
5.56588e-31
9.36531e-32
1.51774e-32
2.37199e-33
3.57911e-34
5.21964e-35
7.3644e-36
1.00617e-36
1.33236e-37
1.59504e-38
4.40907e-31
-8.06479e-27
-1.33754e-24
1.75964e-23
2.60869e-22
-2.85823e-21
-1.00384e-20
2.55484e-20
1.12923e-19
1.27691e-19
1.74499e-19
1.96747e-19
8.94418e-20
9.55149e-20
3.01858e-20
-7.22451e-21
4.35619e-19
9.9344e-19
9.51091e-19
5.99047e-19
2.74264e-19
8.53452e-20
1.33642e-20
-2.22474e-21
-2.20305e-21
-7.38313e-22
-1.11232e-22
2.615e-23
2.70992e-23
1.26495e-23
4.51681e-24
1.37901e-24
3.76893e-25
9.44985e-26
2.20646e-26
4.84547e-27
1.00772e-27
1.99464e-28
3.7714e-29
6.83084e-30
1.18777e-30
1.98631e-31
3.19942e-32
4.97009e-33
7.45468e-34
1.08075e-34
1.51592e-35
2.05915e-36
2.71109e-37
3.24836e-38
5.06305e-29
-2.02823e-25
-3.00858e-23
1.2281e-22
3.37247e-21
-1.99699e-20
-9.75974e-20
5.06927e-20
4.28365e-19
4.50487e-19
6.7783e-19
7.51363e-19
-2.68836e-19
-4.54546e-19
-5.76319e-19
-5.20404e-19
1.13223e-18
3.28268e-18
3.05914e-18
1.81301e-18
7.65428e-19
1.92708e-19
-9.76263e-22
-2.54766e-20
-1.33994e-20
-4.33917e-21
-9.58412e-22
-1.04768e-22
2.66845e-23
2.1675e-23
8.83179e-24
2.83135e-24
7.89033e-25
1.99143e-25
4.65138e-26
1.01856e-26
2.10886e-27
4.15211e-28
7.80611e-29
1.40559e-29
2.42967e-30
4.0392e-31
6.46788e-32
9.98879e-33
1.48954e-33
2.14702e-34
2.99429e-35
4.04416e-36
5.29447e-37
6.34703e-38
5.13345e-27
-3.01507e-24
-5.81096e-22
-3.3871e-22
3.81088e-20
-1.08084e-19
-7.4924e-19
-2.41135e-19
1.3506e-18
1.41126e-18
2.62763e-18
4.2582e-18
-2.21563e-18
-4.58482e-18
-4.3874e-18
-3.42844e-18
2.36609e-18
1.0401e-17
9.42054e-18
5.20192e-18
2.00607e-18
3.58766e-19
-1.26228e-19
-1.26701e-19
-5.62372e-20
-1.74681e-20
-4.08391e-21
-6.6588e-22
-2.9787e-23
3.03001e-23
1.59554e-23
5.49512e-24
1.57151e-24
4.00127e-25
9.35737e-26
2.04428e-26
4.21523e-27
8.25837e-28
1.54432e-28
2.76544e-29
4.75357e-30
7.85823e-31
1.25125e-31
1.92154e-32
2.84935e-33
4.08403e-34
5.66384e-35
7.60703e-36
9.90347e-37
1.18751e-37
4.41208e-25
8.88101e-23
-9.12148e-21
-3.41655e-20
3.48549e-19
-3.97499e-19
-4.7029e-18
-4.33605e-18
2.9548e-18
3.58938e-18
8.55298e-18
2.82292e-17
-6.73034e-18
-2.67664e-17
-2.24421e-17
-1.64399e-17
2.75314e-18
3.1416e-17
2.77736e-17
1.40738e-17
4.91121e-18
4.28616e-19
-7.00394e-19
-4.93016e-19
-1.97679e-19
-5.85364e-20
-1.36373e-20
-2.43592e-21
-2.594e-22
2.719e-23
2.65133e-23
1.0088e-23
2.97542e-24
7.65047e-25
1.79184e-25
3.90627e-26
8.02419e-27
1.56495e-27
2.91215e-28
5.1884e-29
8.87239e-30
1.45904e-30
2.31093e-31
3.52996e-32
5.20622e-33
7.42182e-34
1.02368e-34
1.36739e-35
1.77046e-36
2.12286e-37
2.89601e-23
1.25579e-20
-1.03447e-19
-7.7549e-19
2.27482e-18
-5.25623e-19
-2.33399e-17
-4.73254e-17
-7.64438e-20
6.26318e-18
1.8389e-17
2.01796e-16
1.84774e-19
-1.32148e-16
-9.39165e-17
-6.63199e-17
-5.71666e-18
8.83597e-17
7.86829e-17
3.56016e-17
1.11843e-17
-3.11461e-19
-2.80005e-18
-1.66408e-18
-6.13516e-19
-1.7179e-19
-3.88331e-20
-7.03461e-21
-8.95808e-22
-1.11509e-23
4.0726e-23
1.75748e-23
5.35009e-24
1.38783e-24
3.25365e-25
7.07822e-26
1.44909e-26
2.81505e-27
5.2164e-28
9.25297e-29
1.57512e-29
2.5781e-30
4.06367e-31
6.17653e-32
9.06339e-33
1.28537e-33
1.76359e-34
2.34324e-35
3.01775e-36
3.61749e-37
6.86011e-22
9.10859e-19
-5.07386e-19
-1.01615e-17
7.98224e-18
3.78363e-18
-7.79247e-17
-7.55076e-16
-4.51701e-17
8.10701e-18
9.94514e-17
3.44617e-15
1.22603e-16
-1.11754e-15
-3.34368e-16
-2.35592e-16
-4.78376e-17
2.13238e-16
2.18613e-16
8.27248e-17
2.37031e-17
-3.92557e-18
-9.51482e-18
-5.05377e-18
-1.71092e-18
-4.47457e-19
-9.62509e-20
-1.70404e-20
-2.268e-21
-1.13239e-22
5.94279e-23
2.91836e-23
9.10532e-24
2.37476e-24
5.56706e-25
1.20889e-25
2.46888e-26
4.78306e-27
8.83688e-28
1.56242e-28
2.65026e-29
4.32116e-30
6.78285e-31
1.02639e-31
1.49912e-32
2.11574e-33
2.88838e-34
3.81807e-35
4.89149e-36
5.861e-37
-2.51491e-19
6.90967e-17
1.40793e-17
-1.69285e-15
-8.08058e-18
2.6626e-17
-1.80214e-17
-8.17401e-15
1.69602e-13
3.56307e-14
2.22925e-13
2.57759e-14
-1.73407e-13
-1.48207e-14
-1.80317e-15
-7.92979e-16
-1.50952e-16
9.60279e-16
6.50755e-16
1.67423e-16
4.76493e-17
-1.4291e-17
-2.91768e-17
-1.40602e-17
-4.2926e-18
-1.02761e-18
-2.06002e-19
-3.46803e-20
-4.53492e-21
-2.74728e-22
8.70936e-23
4.61004e-23
1.45081e-23
3.78657e-24
8.87451e-25
1.92697e-25
3.93559e-26
7.6234e-27
1.40759e-27
2.48566e-28
4.20829e-29
6.84397e-30
1.07091e-30
1.61461e-31
2.34863e-32
3.30003e-33
4.48403e-34
5.89829e-35
7.51841e-36
9.00316e-37
-7.04644e-17
4.08196e-15
-1.0755e-13
-3.98796e-14
6.94006e-13
-2.10741e-12
9.0425e-13
7.32859e-13
5.15866e-12
9.6186e-12
1.48708e-12
-1.48537e-11
-1.31273e-12
-4.41737e-14
-2.18555e-14
-2.47546e-15
1.65164e-14
2.13999e-14
1.95598e-15
2.28871e-16
9.88694e-17
-3.30843e-17
-8.43892e-17
-3.62995e-17
-9.55252e-18
-2.01904e-18
-3.6609e-19
-5.68642e-20
-6.96334e-21
-3.87376e-22
1.32019e-22
6.73613e-23
2.10002e-23
5.48069e-24
1.2903e-24
2.81938e-25
5.79472e-26
1.12849e-26
2.0918e-27
3.70254e-28
6.2737e-29
1.01978e-29
1.59309e-30
2.39575e-31
3.47342e-32
4.86163e-33
6.57754e-34
8.61212e-35
1.09243e-35
1.30721e-36
2.45692e-14
-1.35293e-14
-2.89941e-12
5.73812e-11
7.97869e-12
-1.72138e-11
2.76821e-10
2.32947e-10
2.5422e-11
6.49357e-11
-1.5029e-09
-1.36764e-10
2.11519e-13
-1.35438e-13
-8.85932e-14
1.05604e-12
8.31846e-13
1.27644e-13
2.20341e-16
1.86224e-16
2.69755e-16
-4.12184e-17
-2.43677e-16
-8.81921e-17
-1.79845e-17
-3.11001e-18
-4.8054e-19
-6.53712e-20
-7.03612e-21
-2.43958e-22
1.80011e-22
8.18642e-23
2.54361e-23
6.7771e-24
1.6387e-24
3.67387e-25
7.71771e-26
1.52896e-26
2.87003e-27
5.12387e-28
8.72802e-29
1.42245e-29
2.22336e-30
3.3401e-31
4.83167e-32
6.74142e-33
9.08598e-34
1.18452e-34
1.49555e-35
1.78809e-36
1.01547e-12
-1.55034e-11
1.88239e-10
9.09045e-10
-1.34613e-08
4.11084e-08
2.27935e-10
1.44893e-09
-3.82566e-08
-6.15362e-08
-9.26069e-09
-5.31966e-11
2.11408e-10
3.21666e-11
1.1656e-12
9.85787e-12
3.76655e-12
2.3212e-13
-4.9993e-16
1.866e-16
1.59443e-15
2.89935e-17
-9.1371e-16
-2.0579e-16
-2.38975e-17
-2.5626e-18
-2.47676e-19
-2.11936e-20
-1.57292e-21
2.80722e-24
8.81461e-23
4.83296e-23
1.87307e-23
5.94303e-24
1.63243e-24
4.00593e-25
8.96316e-26
1.8546e-26
3.58545e-27
6.52714e-28
1.12566e-28
1.84786e-29
2.8986e-30
4.35848e-31
6.29864e-32
8.76767e-33
1.17779e-33
1.52933e-34
1.92224e-35
2.29604e-36
-1.87012e-10
-2.19315e-10
4.56043e-09
-6.29686e-08
-9.07191e-08
6.21366e-07
-8.01703e-07
-6.02943e-06
-5.59817e-06
-1.32036e-06
1.29466e-08
1.92866e-09
2.72123e-08
4.27567e-09
3.49343e-11
3.0492e-11
6.57803e-12
7.79612e-14
-2.10866e-15
4.53615e-14
1.38734e-14
-1.06276e-15
-7.56426e-15
-4.23925e-16
5.87207e-18
4.21738e-18
7.93338e-19
9.82485e-20
4.72052e-21
-1.66227e-21
-6.43109e-22
-1.35364e-22
-1.77731e-23
-1.68501e-25
7.72045e-25
3.05857e-25
8.41968e-26
1.94508e-26
4.00799e-27
7.58088e-28
1.33786e-28
2.22603e-29
3.51727e-30
5.30529e-31
7.66941e-32
1.06588e-32
1.42769e-33
1.8468e-34
2.31108e-35
2.7573e-36
-1.16838e-08
1.12043e-07
-6.73127e-07
-8.34346e-07
7.43446e-06
1.93166e-06
-3.61989e-06
-0.00012803
-2.78209e-05
6.76217e-06
0.00097678
0.00164895
0.00113615
0.000270083
1.27761e-06
3.77695e-11
1.84e-12
2.8495e-13
1.34085e-12
4.71478e-13
4.46946e-14
-3.51505e-13
-3.76014e-14
7.9905e-16
1.72088e-16
2.14421e-17
2.31217e-18
1.47275e-19
-2.06852e-20
-1.13447e-20
-3.06222e-21
-6.38024e-22
-1.09791e-22
-1.5289e-23
-1.46332e-24
1.21125e-26
5.11783e-26
1.66486e-26
3.94001e-27
7.98491e-28
1.46268e-28
2.48401e-29
3.9673e-30
6.01304e-31
8.70209e-32
1.20782e-32
1.61316e-33
2.07859e-34
2.58925e-35
3.08443e-36
1.41475e-07
1.01102e-06
-8.09318e-06
5.26112e-05
5.15286e-05
-0.000210952
-3.38407e-05
-0.000347394
0.0136692
0.0417864
0.0614183
0.0573626
0.0348021
0.0119942
0.00117892
-1.47507e-12
1.1592e-13
2.15967e-11
1.05349e-11
1.405e-12
-9.81964e-12
-2.00852e-12
-2.01348e-14
5.28116e-15
4.41653e-16
2.3934e-17
5.14514e-19
-3.99917e-19
-1.47819e-19
-3.8048e-20
-8.27035e-21
-1.58327e-21
-2.69153e-22
-4.01924e-23
-5.05892e-24
-4.64561e-25
-6.09398e-27
1.0592e-26
3.41877e-27
7.72589e-28
1.4865e-28
2.58525e-29
4.17511e-30
6.35424e-31
9.19665e-32
1.27348e-32
1.69438e-33
2.17297e-34
2.69263e-35
3.20029e-36
9.39056e-06
-2.6363e-05
1.55762e-05
0.000327379
-0.0011454
-0.0017013
0.00119535
0.0414077
0.131991
0.236919
0.282605
0.241756
0.143825
0.0531284
0.00751803
1.69221e-11
1.39325e-10
1.20734e-10
2.70613e-11
-1.89773e-10
-6.65032e-11
-3.67202e-12
1.92862e-13
2.35426e-14
-2.10028e-16
-5.37688e-17
-1.04187e-17
-2.01743e-18
-4.0227e-19
-8.01305e-20
-1.53298e-20
-2.73971e-21
-4.49365e-22
-6.65163e-23
-8.63388e-24
-9.13279e-25
-5.78057e-26
5.1722e-27
2.90949e-27
7.30479e-28
1.45599e-28
2.56312e-29
4.14868e-30
6.29829e-31
9.07146e-32
1.2486e-32
1.65039e-33
2.10229e-34
2.58745e-35
3.06431e-36
2.99967e-05
-0.000421057
0.00119036
0.000226113
-0.00892703
-0.00706903
0.0547477
0.197564
0.404704
0.598716
0.656668
0.545854
0.326122
0.126272
0.0215033
2.79822e-06
1.90897e-09
3.34962e-10
-3.62969e-09
-2.08777e-09
-1.70295e-10
4.56455e-12
9.61151e-13
8.54782e-15
-1.02241e-15
-1.63828e-16
-2.23345e-17
-3.33563e-18
-5.57057e-19
-1.01058e-19
-1.84791e-20
-3.20897e-21
-5.12063e-22
-7.34101e-23
-9.15026e-24
-9.10459e-25
-4.7855e-26
7.41178e-27
3.23994e-27
7.63731e-28
1.46589e-28
2.5089e-29
3.96957e-30
5.91289e-31
8.37984e-32
1.13748e-32
1.48548e-33
1.87225e-34
2.28264e-35
2.68829e-36
-0.00177747
-0.00160108
0.00458905
-0.00405152
-0.029026
0.0111769
0.185972
0.453285
0.736755
0.963495
1.01078
0.836583
0.507851
0.204945
0.0396959
0.00019579
9.23416e-09
-6.90758e-08
-5.92913e-08
-7.60005e-09
6.28411e-11
2.79437e-11
1.61864e-12
-2.30564e-14
-4.61906e-15
-1.96979e-16
-1.23959e-17
-8.95509e-19
-1.25701e-19
-3.48756e-20
-8.8097e-21
-1.77213e-21
-2.88602e-22
-3.76337e-23
-3.47831e-24
-5.0756e-26
7.36988e-26
2.31297e-26
5.05059e-27
9.39294e-28
1.58374e-28
2.49072e-29
3.71052e-30
5.28474e-31
7.23786e-32
9.56804e-33
1.22388e-33
1.51737e-34
1.82562e-35
2.13267e-36
-0.00572199
0.000578252
0.00785833
-0.0180296
-0.0456677
0.057542
0.343431
0.674934
0.933121
1.11542
1.14476
0.953552
0.588575
0.244237
0.0508896
0.000560821
-1.15041e-06
-1.138e-06
-2.5377e-07
-5.34482e-09
4.9631e-10
8.98895e-11
-1.65031e-13
-1.53698e-13
-9.37683e-15
1.78402e-16
4.47736e-17
7.87864e-18
1.13841e-18
1.40402e-19
1.54688e-20
1.69884e-21
2.26969e-22
4.02073e-23
8.08103e-24
1.59026e-24
2.91728e-25
4.97229e-26
7.94724e-27
1.20435e-27
1.74767e-28
2.448e-29
3.32959e-30
4.415e-31
5.72008e-32
7.24745e-33
8.97941e-34
1.08726e-34
1.2856e-35
1.48663e-36
0.0121036
0.0200261
0.0128853
-0.0337252
-0.0533157
0.0939428
0.419242
0.738848
0.940093
1.06145
1.06843
0.882529
0.540964
0.22303
0.0464379
0.000541579
-1.28757e-05
-5.1292e-06
-4.1366e-07
8.3948e-09
2.46383e-09
8.9417e-11
-2.87136e-12
-5.50374e-13
-9.38872e-17
5.95759e-16
1.14757e-16
1.78448e-17
2.48094e-18
3.14528e-19
3.85485e-20
4.97716e-21
7.23179e-22
1.16551e-22
1.9453e-23
3.17702e-24
4.94434e-25
7.28295e-26
1.01791e-26
1.3587e-27
1.7462e-28
2.17983e-29
2.66563e-30
3.21666e-31
3.85029e-32
4.58272e-33
5.42196e-34
6.36119e-35
7.37448e-36
8.45496e-37
0.0188538
0.0275683
0.0212121
-0.0336889
-0.0651136
0.062479
0.348676
0.632644
0.83074
0.935395
0.906922
0.699182
0.39532
0.147539
0.025304
-9.72435e-05
-5.56391e-05
-1.06848e-05
-3.87354e-09
3.76958e-08
4.89467e-09
-3.52142e-11
-1.24508e-11
-6.87547e-13
5.65461e-15
1.40166e-15
1.61706e-16
2.09541e-17
2.60865e-18
3.03289e-19
3.56377e-20
4.76217e-21
7.54284e-22
1.30254e-22
2.22514e-23
3.58324e-24
5.36375e-25
7.46445e-26
9.7041e-27
1.18596e-27
1.37227e-28
1.51611e-29
1.61661e-30
1.68696e-31
1.75248e-32
1.84513e-33
1.99602e-34
2.22761e-35
2.54765e-36
2.96643e-37
0.0072962
0.0142717
0.0206296
-0.0126478
-0.0556465
-0.0118462
0.144348
0.368119
0.59525
0.710951
0.654587
0.449834
0.215555
0.0620075
0.00468358
-0.000375587
-0.00012837
-1.11148e-05
4.77598e-07
1.09613e-07
2.64694e-09
-1.13941e-10
-2.15372e-11
-1.18715e-13
1.35589e-14
2.19943e-15
1.1944e-16
1.11366e-17
9.66353e-19
6.14e-20
3.18949e-21
6.85011e-22
2.58221e-22
6.93325e-23
1.43867e-23
2.49614e-24
3.7781e-25
5.10157e-26
6.20964e-27
6.81918e-28
6.68501e-29
5.66463e-30
3.7658e-31
1.163e-32
-1.82313e-33
-4.77938e-34
-7.27429e-35
-8.93578e-36
-9.51495e-37
-9.00372e-38
-0.00510798
-0.00354153
0.0071931
0.00720995
-0.0174562
-0.0452886
-0.0256455
0.0884397
0.257268
0.339547
0.290315
0.163434
0.0503987
-0.000284887
-0.00298805
-0.000987709
-9.70502e-05
5.99284e-06
1.58411e-06
7.19408e-08
-1.89408e-09
-3.32548e-10
-5.86112e-13
6.97355e-14
1.91481e-14
1.12845e-15
1.43468e-17
-1.46807e-18
-7.61653e-19
-1.64689e-19
-2.53385e-20
-2.9482e-21
-2.29399e-22
-4.15731e-25
4.01052e-24
9.47602e-25
1.52201e-25
1.93798e-26
1.9602e-27
1.34755e-28
-9.31537e-31
-2.45554e-30
-5.6974e-31
-9.63002e-32
-1.39369e-32
-1.82185e-33
-2.20538e-34
-2.5065e-35
-2.69731e-36
-2.7933e-37
-0.00300673
-0.00517138
-0.0034021
0.00711286
0.00924395
-0.017573
-0.0459365
-0.0368976
0.00481209
0.0225666
0.00358746
-0.0229501
-0.0296451
-0.0157266
-0.00410945
-0.000262524
3.88988e-05
1.13148e-05
7.59809e-07
-2.80442e-08
-5.03488e-09
7.36934e-11
8.65411e-12
2.89741e-14
-3.70412e-15
-2.55456e-16
-2.22741e-17
-4.34894e-18
-8.5576e-19
-1.4123e-19
-1.9382e-20
-2.18254e-21
-1.87069e-22
-8.22155e-24
8.95497e-25
2.82198e-25
4.02458e-26
3.13067e-27
-1.50548e-28
-1.15158e-28
-2.81627e-29
-5.19923e-30
-8.2583e-31
-1.18458e-31
-1.57197e-32
-1.95733e-33
-2.30774e-34
-2.5928e-35
-2.78875e-36
-2.91831e-37
0.00274322
0.00256279
-0.00145015
-0.00148663
0.00516329
0.00878745
0.000638623
-0.0188284
-0.0416811
-0.0588104
-0.0589728
-0.0424163
-0.0185297
-0.00421786
0.00049153
0.000221683
4.34073e-05
-1.31162e-06
-4.19646e-07
-5.07438e-08
2.02617e-09
3.37397e-10
-8.34791e-13
-2.1622e-13
-1.32748e-14
7.51368e-17
1.26805e-17
1.58534e-18
2.06068e-19
3.37379e-20
6.39265e-21
1.20475e-21
2.1147e-22
3.39688e-23
4.95816e-24
6.50522e-25
7.48378e-26
7.07061e-27
4.2435e-28
-2.06542e-29
-1.27539e-29
-2.83155e-30
-4.86455e-31
-7.294e-32
-9.97247e-33
-1.27015e-33
-1.52584e-34
-1.74273e-35
-1.90299e-36
-2.02434e-37
-0.00107384
-0.000329691
0.000644635
-0.00078758
-0.00241345
0.000528828
0.00675558
0.0086278
0.00151161
-0.00531052
-0.00264706
0.00573764
0.00876551
0.00530849
0.00153073
0.000218986
-3.75909e-05
-1.17247e-05
-8.43443e-07
2.65291e-08
6.24363e-09
1.17467e-10
-1.91509e-12
-3.84771e-13
7.63816e-16
3.76243e-16
5.84181e-17
8.57724e-18
1.23133e-18
1.73568e-19
2.41755e-20
3.34222e-21
4.59163e-22
6.24374e-23
8.32578e-24
1.07482e-24
1.32406e-25
1.53178e-26
1.63032e-27
1.54173e-28
1.19232e-29
5.29705e-31
-4.61898e-32
-1.75229e-32
-3.26463e-33
-4.88418e-34
-6.47455e-35
-7.898e-36
-9.03549e-37
-9.96902e-38
0.000214651
-8.85679e-06
-0.000128837
0.000385804
0.000416689
-0.000774669
-0.00223374
-0.00256678
0.00303811
0.0168063
0.0277154
0.0252286
0.0136829
0.00379746
-9.20953e-05
-0.000195914
-6.96415e-05
-5.6842e-06
1.48423e-07
4.3504e-08
2.69729e-09
-8.38281e-12
-3.4025e-12
-1.92955e-13
1.11024e-15
2.30511e-16
2.94405e-17
3.87102e-18
5.46077e-19
8.08742e-20
1.22514e-20
1.87018e-21
2.84389e-22
4.25193e-23
6.16591e-24
8.57207e-25
1.13246e-25
1.41233e-26
1.65301e-27
1.80289e-28
1.81192e-29