/*--------------------------------*- C++ -*----------------------------------*\
| =========                 |                                                 |
| \\      /  F ield         | OpenFOAM: The Open Source CFD Toolbox           |
|  \\    /   O peration     | Version:  v2006                                 |
|   \\  /    A nd           | Website:  www.openfoam.com                      |
|    \\/     M anipulation  |                                                 |
\*---------------------------------------------------------------------------*/
FoamFile
{
    version     2.0;
    format      ascii;
    class       volScalarField;
    location    "0";
    object      shifted_f;
}
// * * * * * * * * * * * * * * * * * * * * * * * * * * * * * * * * * * * * * //

dimensions      [0 0 0 0 0 0 0];


internalField   nonuniform List<scalar> 
2500
(
0.000210792
0.000210773
0.000210818
0.000210825
0.000210743
0.000210728
0.000210747
0.000210762
0.000210747
0.000210736
0.000210751
0.000210721
0.000210728
0.000210728
0.000210676
0.000210609
0.000210647
0.000210714
0.000210669
0.00021065
0.000210665
0.000210661
0.000207916
0.00020792
0.000207897
0.000207931
0.000207968
0.000207949
0.000207901
0.00020786
0.000207849
0.000207901
0.00020789
0.000207886
0.00020783
0.0002078
0.000207853
0.000207823
0.000207841
0.000207778
0.000207819
0.000207793
0.000207778
0.000207771
0.000207797
0.000207756
0.000207778
0.000207778
0.000207722
0.000207745
0.000207704
0.000207696
0.000207711
0.000207733
0.000207689
0.000207674
0.000207692
0.000207666
0.000207625
0.000207648
0.000207659
0.000207696
0.00020761
0.000207663
0.000207584
0.000207618
0.000207622
0.000207625
0.000207637
0.000207637
0.000207569
0.000207584
0.000207528
0.000207532
0.000207506
0.000207562
0.000207521
0.000207521
0.000207517
0.000207532
0.000207491
0.00020748
0.00020751
0.000207487
0.000207487
0.000207499
0.000207458
0.000207458
0.000207432
0.000207417
0.00020748
0.000207402
0.00020742
0.000207406
0.000207413
0.000207398
0.000207394
0.000207413
0.00020742
0.000207331
0.000207338
0.000207338
0.000207376
0.000207394
0.000207398
0.000207361
0.000207353
0.000207365
0.000207368
0.00020735
0.000207346
0.000207331
0.000207316
0.000207324
0.000207324
0.000207249
0.00020726
0.000207249
0.000207283
0.000207227
0.00020726
0.000207257
0.000207264
0.000204392
0.000204392
0.000204396
0.000204414
0.000204332
0.000204381
0.000204355
0.000204366
0.000204366
0.000204299
0.000204347
0.000204336
0.000204317
0.000204377
0.00020431
0.000204299
0.000204276
0.000204314
0.000204269
0.000204246
0.000204306
0.000204269
0.000204217
0.000204202
0.000204232
0.000204265
0.000204206
0.000204153
0.000204179
0.000204194
0.000204194
0.000204172
0.000204116
0.000204165
0.000204183
0.000204168
0.000204146
0.000204105
0.000204124
0.000204097
0.000204101
0.000204105
0.000204116
0.000204053
0.000204083
0.00020403
0.000204049
0.000204019
0.000204071
0.000204045
0.000204016
0.000204016
0.000204027
0.00020406
0.000204038
0.000204016
0.000204034
0.000204001
0.000204019
0.000203971
0.000203948
0.000203911
0.000203941
0.000203934
0.000203934
0.000203971
0.000203941
0.000203889
0.000203919
0.000203926
0.000203926
0.000203904
0.000203885
0.000203956
0.000203863
0.000203907
0.000203859
0.000203867
0.000203874
0.000203818
0.000203818
0.00020384
0.000203811
0.000203829
0.000203822
0.000203852
0.000203807
0.000203859
0.000203807
0.000203799
0.00020374
0.000203758
0.000203811
0.00020377
0.000203785
0.000203758
0.000203673
0.000203677
0.00020371
0.000203714
0.00020371
0.000200875
0.000200886
0.000200931
0.000200879
0.000200886
0.000200801
0.000200853
0.000200838
0.000200875
0.000200786
0.000200838
0.000200775
0.000200748
0.000200845
0.000200786
0.000200756
0.00020073
0.000200763
0.000200696
0.000200715
0.0002007
0.000200719
0.0002007
0.000200763
0.000200722
0.000200741
0.000200681
0.000200666
0.000200681
0.000200674
0.000200696
0.000200663
0.000200644
0.000200596
0.000200663
0.00020064
0.000200655
0.000200607
0.000200659
0.000200592
0.000200607
0.000200577
0.000200581
0.00020064
0.000200622
0.000200547
0.000200585
0.000200551
0.000200618
0.000200577
0.000200521
0.000200544
0.000200521
0.000200525
0.000200551
0.000200588
0.000200506
0.000200521
0.000200499
0.000200532
0.000200503
0.000200454
0.000200439
0.000200476
0.000200476
0.000200454
0.000200383
0.00020038
0.000200402
0.000200395
0.000200383
0.000200417
0.000200395
0.000200361
0.000200395
0.000200413
0.000200439
0.000200391
0.000200324
0.000200402
0.000200264
0.000200342
0.000200316
0.00020032
0.000200357
0.000200305
0.000200279
0.000200249
0.000200216
0.000200283
0.000200272
0.000200275
0.000200205
0.000200242
0.000200242
0.000200253
0.000200242
0.000200231
0.000200208
0.000200216
0.000200242
0.000197418
0.000197399
0.000197366
0.000197381
0.000197355
0.000197362
0.000197303
0.000197351
0.00019731
0.000197303
0.000197358
0.000197351
0.000197317
0.000197295
0.000197288
0.000197344
0.00019731
0.000197381
0.000197325
0.000197306
0.000197306
0.000197265
0.000197258
0.000197221
0.000197303
0.000197254
0.000197191
0.000197213
0.000197209
0.000197243
0.000197228
0.000197221
0.000197191
0.000197176
0.000197161
0.000197195
0.000197191
0.000197183
0.000197183
0.000197142
0.000197135
0.000197183
0.00019715
0.000197113
0.000197101
0.000197131
0.000197135
0.000197131
0.000197098
0.000197101
0.000197075
0.000197109
0.000197079
0.000197072
0.000197072
0.000197101
0.000197072
0.000197019
0.000196975
0.000197023
0.000197019
0.000196982
0.000196952
0.000196949
0.000196975
0.000197012
0.000196923
0.00019699
0.000196982
0.000196923
0.000196937
0.000196964
0.000196997
0.000196941
0.000196919
0.000196852
0.00019687
0.000196937
0.000196911
0.000196923
0.000196923
0.000196923
0.000196848
0.000196863
0.00019687
0.000196904
0.000196856
0.00019687
0.000196833
0.000196841
0.000196848
0.000196807
0.000196826
0.000196796
0.000196833
0.000196856
0.000196815
0.000196815
0.000196725
0.000196807
0.000196766
0.000194114
0.000194114
0.000194088
0.000194095
0.000194099
0.000194054
0.000194021
0.000194069
0.000194043
0.000194017
0.000193994
0.000194024
0.000193968
0.000194013
0.00019398
0.000193991
0.00019395
0.000194002
0.000193939
0.00019392
0.000193942
0.00019398
0.000193965
0.000193898
0.000193931
0.00019395
0.000193935
0.000193935
0.00019392
0.000193954
0.000193957
0.000193927
0.000194017
0.00019389
0.000193905
0.000193927
0.000193898
0.000193879
0.000193853
0.00019386
0.000193801
0.000193838
0.000193834
0.000193864
0.000193819
0.000193868
0.000193797
0.00019379
0.000193775
0.000193786
0.000193764
0.000193764
0.000193778
0.000193786
0.000193764
0.000193752
0.000193767
0.000193778
0.000193752
0.000193782
0.00019376
0.000193689
0.000193741
0.000193719
0.000193801
0.000193745
0.000193752
0.000193771
0.000193778
0.000193678
0.000193693
0.000193696
0.00019367
0.000193734
0.000193696
0.000193704
0.000193693
0.000193696
0.000193659
0.000193674
0.000193626
0.000193689
0.000193685
0.000193696
0.000193655
0.000193667
0.000193592
0.000193655
0.000193626
0.0001936
0.000193529
0.000193596
0.000193626
0.000193615
0.000193525
0.000193581
0.00019357
0.00019357
0.000193533
0.000193581
0.000193503
0.000191066
0.000191033
0.000191111
0.000191029
0.000190973
0.000191092
0.000191052
0.000191037
0.000191007
0.000191037
0.000191052
0.000191011
0.000190962
0.000191055
0.000190988
0.000190955
0.000191048
0.000191018
0.000190992
0.00019097
0.000190921
0.00019097
0.000190988
0.00019097
0.000190996
0.000191007
0.000190921
0.00019094
0.000190947
0.000190921
0.000190914
0.000190936
0.000190895
0.000190917
0.000190865
0.000190903
0.000190955
0.000190899
0.000190899
0.000190895
0.00019088
0.000190917
0.000190832
0.000190858
0.000190869
0.000190895
0.000190895
0.00019085
0.000190824
0.00019088
0.00019088
0.000190869
0.000190835
0.000190813
0.000190843
0.000190821
0.000190798
0.000190813
0.000190787
0.000190821
0.000190768
0.000190753
0.000190809
0.000190731
0.000190709
0.000190742
0.000190716
0.000190742
0.000190761
0.000190679
0.000190709
0.000190746
0.000190783
0.00019075
0.000190735
0.000190724
0.000190701
0.00019066
0.000190739
0.000190668
0.000190701
0.000190686
0.000190701
0.000190672
0.000190701
0.000190716
0.000190612
0.000190642
0.000190597
0.000190694
0.000190597
0.000190586
0.000190653
0.00019069
0.000190623
0.00019059
0.00019066
0.000190631
0.000190578
0.000190549
0.000190549
0.000188433
0.000188433
0.000188414
0.00018844
0.000188451
0.000188373
0.000188414
0.00018844
0.000188448
0.000188421
0.000188429
0.000188403
0.000188421
0.000188433
0.00018841
0.000188399
0.000188362
0.000188399
0.000188373
0.000188347
0.000188414
0.000188354
0.000188366
0.000188377
0.000188317
0.000188295
0.000188369
0.000188377
0.000188395
0.000188325
0.000188325
0.000188325
0.000188313
0.000188295
0.000188302
0.000188321
0.000188325
0.000188287
0.00018828
0.000188351
0.000188261
0.000188235
0.000188299
0.000188302
0.000188258
0.000188261
0.000188254
0.000188272
0.000188291
0.00018822
0.000188194
0.000188228
0.000188243
0.000188295
0.000188217
0.00018819
0.000188235
0.000188213
0.000188209
0.000188287
0.000188194
0.000188202
0.000188235
0.000188217
0.000188138
0.000188202
0.000188168
0.000188146
0.000188172
0.000188097
0.000188135
0.000188153
0.000188097
0.000188082
0.000188157
0.000188161
0.000188142
0.000188179
0.000188146
0.000188131
0.000188194
0.000188138
0.000188116
0.000188138
0.000188086
0.00018809
0.000188109
0.000188161
0.000188071
0.000188012
0.000188094
0.000188101
0.000188075
0.000188112
0.000188116
0.000188038
0.000188041
0.000188079
0.000188045
0.000188038
0.000188086
0.000186391
0.00018641
0.000186361
0.000186391
0.000186387
0.000186406
0.000186387
0.000186406
0.000186402
0.000186354
0.00018641
0.000186417
0.000186425
0.000186332
0.00018638
0.000186328
0.000186328
0.000186339
0.000186261
0.00018632
0.000186335
0.000186291
0.000186309
0.000186287
0.000186287
0.000186298
0.000186335
0.000186317
0.000186317
0.000186291
0.000186287
0.000186339
0.000186313
0.00018632
0.000186302
0.000186305
0.000186276
0.000186246
0.000186283
0.000186287
0.000186294
0.000186276
0.000186261
0.000186227
0.000186261
0.000186209
0.000186276
0.000186227
0.000186261
0.000186231
0.000186235
0.000186216
0.000186235
0.000186261
0.000186209
0.000186209
0.000186186
0.000186194
0.00018622
0.000186175
0.000186194
0.000186197
0.000186153
0.000186171
0.000186186
0.000186175
0.000186194
0.000186171
0.000186164
0.000186171
0.00018619
0.000186123
0.000186175
0.00018619
0.000186101
0.000186183
0.000186142
0.000186183
0.000186101
0.00018613
0.000186186
0.000186201
0.000186164
0.000186149
0.000186116
0.00018616
0.000186156
0.000186093
0.000186145
0.000186149
0.000186183
0.000186138
0.000186179
0.000186089
0.00018613
0.000186112
0.000186145
0.000186142
0.000186093
0.000186119
0.000186119
0.000184976
0.000184976
0.000184964
0.000184953
0.000184935
0.000184901
0.000184882
0.000184868
0.000184879
0.000184916
0.000184912
0.000184856
0.00018486
0.000184927
0.000184935
0.000184916
0.000184923
0.000184957
0.000184897
0.00018489
0.00018486
0.000184923
0.000184853
0.00018483
0.000184875
0.00018486
0.000184894
0.000184868
0.00018489
0.00018486
0.000184897
0.000184931
0.00018492
0.000184912
0.000184871
0.000184864
0.000184868
0.00018486
0.000184853
0.00018489
0.000184849
0.000184841
0.000184871
0.00018489
0.00018483
0.00018489
0.000184931
0.000184823
0.000184827
0.000184827
0.000184815
0.000184786
0.0001848
0.00018489
0.000184864
0.000184808
0.000184841
0.000184875
0.000184823
0.000184823
0.000184823
0.000184778
0.000184812
0.000184786
0.000184827
0.000184808
0.000184767
0.000184815
0.000184845
0.000184834
0.000184767
0.000184786
0.000184812
0.000184786
0.000184819
0.000184763
0.000184741
0.000184782
0.000184793
0.000184763
0.000184752
0.000184704
0.000184741
0.000184704
0.000184778
0.000184786
0.000184726
0.000184726
0.000184767
0.000184853
0.000184763
0.000184789
0.000184804
0.000184782
0.000184752
0.000184771
0.000184778
0.000184704
0.000184763
0.000184771
0.000184715
0.000184134
0.000184186
0.000184119
0.000184104
0.00018413
0.000184175
0.000184085
0.000184115
0.00018416
0.000184145
0.000184115
0.000184104
0.000184055
0.000184126
0.000184108
0.000184078
0.000184115
0.000184044
0.000184096
0.000184137
0.00018413
0.000184085
0.000184122
0.000184141
0.0001841
0.000184134
0.000184078
0.000184122
0.00018413
0.000184074
0.000184149
0.000184111
0.000184134
0.000184111
0.000184085
0.000184122
0.000184156
0.00018407
0.000184108
0.000184122
0.000184126
0.000184096
0.000184096
0.00018413
0.000184137
0.000184085
0.000184122
0.000184081
0.000184048
0.000184081
0.000184093
0.000184078
0.000184085
0.000184033
0.000184078
0.000184052
0.000184041
0.000184104
0.000184137
0.0001841
0.000184104
0.000184108
0.000184096
0.000184067
0.000184137
0.000184126
0.00018413
0.000184126
0.000184122
0.000184141
0.000184152
0.000184108
0.000184134
0.000184108
0.000184126
0.00018416
0.000184178
0.000184171
0.000184149
0.000184104
0.000184108
0.000184115
0.000184137
0.000184119
0.000184104
0.000184137
0.000184156
0.000184104
0.000184137
0.000184152
0.000184152
0.000184156
0.00018416
0.000184122
0.000184096
0.000184115
0.000184115
0.000184141
0.000184085
0.000184111
0.000184063
0.000184149
0.0001841
0.000184186
0.000184145
0.000184149
0.000184115
0.000184137
0.000184111
0.000184126
0.000184108
0.000184055
0.000184108
0.0001841
0.00018413
0.00018413
0.000184074
0.0001841
0.00018416
0.000184134
0.000184104
0.000184089
0.000184119
0.0001841
0.00018416
0.000184115
0.00018413
0.00018413
0.000184104
0.000184093
0.00018413
0.000184048
0.000184085
0.000184111
0.000184104
0.000184134
0.000184115
0.000184055
0.000184063
0.000184152
0.000184186
0.000184171
0.00018419
0.000184152
0.000184175
0.00018426
0.00018419
0.000184223
0.000184152
0.000184141
0.000184137
0.000184137
0.000184145
0.000184163
0.000184122
0.000184216
0.000184186
0.000184163
0.000184108
0.000184152
0.000184175
0.000184204
0.000184104
0.000184156
0.000184171
0.000184175
0.000184122
0.000184137
0.000184167
0.000184115
0.000184167
0.000184126
0.00018419
0.00018416
0.000184234
0.00018416
0.000184145
0.000184115
0.000184145
0.000184167
0.000184175
0.0001841
0.000184137
0.000184156
0.000184145
0.000184163
0.000184204
0.00018416
0.00018419
0.000184156
0.000184093
0.000184167
0.000184081
0.00018413
0.000184119
0.00018413
0.000184163
0.000184145
0.000184149
0.000184149
0.000184137
0.000184137
0.000184827
0.000184793
0.000184804
0.0001848
0.000184767
0.000184841
0.00018486
0.000184808
0.000184853
0.000184815
0.000184853
0.000184771
0.000184868
0.000184845
0.000184815
0.000184901
0.000184864
0.000184853
0.000184845
0.000184845
0.000184823
0.00018483
0.000184838
0.0001848
0.000184827
0.00018483
0.000184868
0.000184886
0.00018486
0.000184789
0.000184845
0.000184894
0.000184815
0.000184819
0.000184853
0.00018486
0.000184808
0.000184834
0.000184808
0.000184815
0.000184834
0.000184815
0.000184882
0.000184823
0.000184853
0.000184927
0.00018489
0.000184897
0.000184841
0.000184923
0.000184931
0.000184942
0.000184875
0.000184909
0.00018486
0.000184927
0.000184912
0.000184882
0.00018489
0.000184912
0.000184845
0.000184875
0.000184875
0.00018492
0.000184912
0.000184886
0.000184927
0.000184923
0.000184923
0.000184912
0.00018492
0.000184964
0.000184935
0.000184912
0.000184942
0.000184901
0.000184953
0.000184987
0.000184931
0.00018486
0.000184897
0.000184938
0.000184964
0.000184938
0.000184961
0.000184912
0.000184964
0.000184957
0.000184979
0.000184972
0.000185005
0.000184916
0.000184957
0.000184946
0.000185009
0.000184897
0.000184998
0.000184964
0.000184968
0.000184886
0.000184953
0.000186246
0.000186298
0.000186253
0.000186294
0.000186283
0.000186246
0.000186242
0.000186276
0.000186257
0.000186205
0.00018632
0.000186294
0.000186224
0.000186276
0.000186309
0.000186294
0.000186268
0.000186302
0.00018635
0.000186235
0.000186305
0.000186291
0.000186261
0.000186253
0.000186309
0.00018632
0.000186283
0.000186279
0.000186287
0.000186283
0.000186335
0.000186265
0.000186332
0.000186335
0.000186313
0.000186298
0.000186335
0.000186373
0.000186402
0.000186425
0.000186358
0.000186373
0.000186361
0.000186346
0.00018641
0.000186414
0.000186346
0.000186425
0.000186399
0.000186369
0.00018638
0.000186354
0.00018641
0.000186443
0.000186455
0.00018641
0.000186447
0.000186365
0.000186425
0.000186406
0.00018641
0.000186384
0.000186365
0.00018638
0.000186387
0.000186417
0.000186387
0.000186451
0.000186455
0.000186406
0.000186361
0.000186406
0.000186428
0.000186395
0.000186414
0.000186447
0.000186443
0.000186421
0.000186428
0.000186462
0.000186466
0.000186428
0.000186484
0.00018641
0.000186495
0.000186417
0.000186455
0.000186436
0.000186417
0.000186455
0.000186425
0.000186469
0.00018644
0.000186507
0.000186481
0.000186484
0.000186432
0.000186432
0.000186432
0.000186455
0.000186477
0.00018841
0.000188407
0.000188433
0.000188451
0.000188444
0.000188466
0.000188496
0.000188451
0.000188459
0.000188511
0.000188481
0.000188518
0.000188462
0.000188522
0.000188436
0.000188507
0.000188574
0.000188489
0.000188537
0.000188548
0.000188563
0.000188541
0.000188503
0.000188552
0.000188522
0.000188515
0.000188556
0.000188511
0.000188537
0.00018847
0.000188507
0.000188604
0.000188522
0.000188526
0.000188503
0.000188496
0.0001885
0.000188511
0.000188507
0.000188529
0.000188503
0.000188548
0.000188526
0.000188541
0.000188503
0.000188574
0.000188548
0.000188507
0.000188518
0.000188548
0.000188556
0.000188541
0.000188619
0.000188563
0.000188556
0.000188507
0.00018857
0.000188638
0.000188567
0.000188638
0.000188604
0.000188679
0.000188679
0.000188645
0.000188645
0.00018869
0.000188649
0.00018863
0.000188615
0.000188693
0.00018869
0.000188664
0.000188664
0.000188671
0.000188705
0.000188675
0.000188712
0.00018866
0.00018866
0.000188716
0.000188664
0.000188619
0.000188727
0.000188701
0.000188697
0.000188697
0.000188682
0.000188742
0.000188746
0.000188693
0.000188731
0.000188697
0.000188738
0.00018876
0.00018869
0.000188775
0.000188708
0.000188727
0.000188682
0.000188809
0.000188764
0.000191294
0.000191391
0.000191394
0.000191368
0.000191413
0.000191312
0.000191394
0.000191394
0.000191331
0.000191413
0.000191327
0.000191379
0.000191312
0.000191286
0.00019135
0.00019132
0.000191394
0.000191417
0.000191394
0.000191379
0.000191361
0.000191327
0.000191361
0.000191342
0.000191465
0.000191327
0.000191428
0.000191402
0.000191499
0.000191446
0.000191431
0.000191461
0.000191454
0.000191499
0.000191469
0.000191484
0.000191491
0.000191439
0.000191499
0.00019145
0.000191506
0.000191543
0.000191513
0.000191469
0.000191495
0.000191517
0.000191536
0.000191581
0.000191513
0.000191476
0.000191536
0.000191566
0.000191543
0.000191543
0.000191472
0.000191536
0.000191502
0.000191543
0.000191566
0.000191536
0.000191584
0.000191558
0.000191573
0.000191551
0.000191592
0.000191577
0.00019151
0.000191573
0.000191577
0.000191603
0.000191607
0.00019161
0.000191666
0.000191707
0.00019164
0.000191659
0.000191648
0.000191662
0.000191685
0.000191685
0.000191651
0.000191685
0.00019161
0.000191636
0.00019164
0.000191651
0.000191715
0.000191685
0.000191692
0.000191733
0.00019167
0.000191707
0.000191778
0.000191655
0.0001917
0.000191707
0.000191737
0.00019167
0.000191767
0.000191722
0.00019173
0.000194918
0.0001949
0.000194937
0.000194903
0.000194948
0.000194922
0.000194915
0.000194922
0.000194937
0.000194933
0.000194881
0.000194974
0.000194937
0.000195019
0.000194948
0.000194974
0.000195
0.000194974
0.000195011
0.000194956
0.000194993
0.000195
0.000195093
0.000195026
0.000195015
0.000195019
0.000195034
0.000195071
0.000195105
0.000195026
0.000195131
0.000195142
0.00019503
0.000195075
0.000195075
0.000195064
0.000195112
0.000195041
0.000195023
0.000195056
0.000195116
0.000195045
0.000195082
0.000195086
0.000195134
0.000195105
0.000195101
0.000195116
0.000195064
0.000195071
0.000195071
0.000195142
0.000195161
0.000195134
0.000195172
0.000195198
0.000195168
0.00019519
0.000195183
0.000195187
0.000195179
0.00019519
0.000195231
0.000195239
0.000195231
0.000195205
0.000195242
0.000195201
0.000195224
0.000195183
0.000195265
0.000195257
0.000195295
0.000195235
0.000195209
0.000195239
0.000195272
0.000195269
0.000195261
0.000195265
0.000195224
0.000195298
0.000195373
0.00019531
0.000195328
0.000195358
0.000195377
0.000195388
0.000195343
0.000195358
0.000195336
0.000195328
0.000195365
0.000195384
0.000195403
0.00019541
0.000195358
0.000195403
0.000195403
0.000195444
0.000195391
0.000199221
0.000199206
0.000199176
0.000199169
0.00019918
0.000199221
0.000199225
0.000199225
0.000199266
0.000199296
0.000199225
0.000199299
0.000199284
0.000199329
0.000199281
0.000199232
0.000199266
0.000199288
0.000199236
0.000199292
0.000199277
0.000199281
0.00019924
0.000199277
0.000199307
0.000199318
0.000199303
0.000199314
0.000199359
0.000199355
0.000199407
0.00019937
0.000199411
0.000199366
0.000199378
0.0001994
0.000199456
0.000199392
0.000199437
0.000199404
0.000199422
0.000199478
0.000199493
0.000199497
0.000199445
0.000199411
0.000199456
0.000199433
0.000199452
0.000199441
0.000199474
0.000199459
0.000199474
0.000199482
0.000199541
0.000199486
0.000199515
0.00019956
0.000199486
0.0001995
0.000199538
0.000199515
0.000199553
0.000199519
0.000199515
0.000199519
0.000199571
0.000199594
0.000199549
0.000199508
0.000199541
0.000199575
0.000199597
0.000199545
0.000199638
0.000199616
0.000199564
0.000199653
0.000199594
0.000199642
0.000199653
0.000199649
0.000199664
0.000199627
0.000199601
0.000199653
0.000199683
0.000199638
0.000199661
0.000199668
0.000199657
0.00019972
0.000199683
0.000199702
0.000199687
0.000199679
0.000199676
0.000199668
0.000199702
0.000199798
0.000199791
0.000204157
0.000204112
0.000204138
0.000204157
0.000204105
0.000204172
0.000204194
0.000204187
0.000204172
0.00020422
0.000204232
0.000204142
0.000204209
0.000204209
0.000204213
0.000204243
0.000204228
0.000204235
0.000204246
0.000204254
0.000204261
0.000204358
0.000204306
0.000204314
0.000204306
0.000204369
0.000204336
0.000204269
0.000204291
0.000204246
0.000204381
0.000204355
0.000204328
0.000204321
0.000204328
0.000204366
0.000204343
0.000204314
0.000204418
0.000204429
0.000204369
0.000204381
0.000204358
0.000204358
0.000204362
0.000204373
0.000204399
0.000204433
0.000204418
0.000204448
0.000204429
0.000204459
0.000204466
0.00020444
0.000204418
0.000204511
0.000204515
0.000204548
0.000204559
0.000204515
0.000204507
0.000204537
0.000204563
0.000204526
0.000204574
0.000204518
0.000204597
0.000204552
0.000204574
0.000204578
0.000204597
0.000204597
0.000204563
0.000204638
0.000204675
0.000204694
0.000204664
0.000204626
0.00020466
0.000204664
0.000204638
0.000204679
0.000204638
0.000204679
0.000204649
0.000204731
0.000204682
0.000204708
0.000204671
0.000204679
0.000204731
0.000204761
0.000204772
0.000204761
0.000204828
0.000204802
0.000204757
0.000204783
0.00020482
0.000204798
0.000204779
0.000209723
0.000209775
0.000209797
0.000209801
0.000209775
0.000209816
0.000209857
0.000209831
0.000209875
0.000209883
0.000209872
0.000209879
0.000209909
0.000209883
0.000209831
0.000209894
0.000209898
0.000209879
0.000209972
0.000209946
0.000209939
0.000209928
0.000209972
0.000209969
0.000209946
0.000210006
0.000210006
0.000209972
0.00020998
0.000210043
0.000210017
0.000210084
0.000210058
0.000210058
0.000210091
0.000210069
0.00021008
0.000210073
0.000210077
0.000210088
0.000210077
0.000210151
0.000210118
0.000210136
0.00021014
0.000210173
0.000210132
0.000210155
0.000210181
0.0002102
0.000210177
0.000210155
0.000210155
0.000210155
0.000210162
0.000210159
0.000210185
0.000210211
0.000210188
0.000210222
0.000210285
0.000210237
0.000210233
0.000210207
0.000210226
0.000210274
0.000210285
0.00021024
0.000210233
0.000210222
0.000210326
0.000210322
0.000210375
0.000210349
0.0002103
0.000210378
0.00021033
0.000210289
0.000210337
0.000210334
0.00021036
0.000210371
0.000210393
0.000210427
0.000210401
0.00021043
0.000210389
0.000210449
0.000210475
0.000210434
0.000210464
0.000210445
0.000210501
0.000210416
0.00021046
0.000210434
0.000210531
0.000210557
0.000210535
0.000210535
0.00021052
0.000216167
0.00021619
0.000216182
0.000216175
0.000216179
0.000216186
0.000216201
0.000216145
0.000216153
0.000216246
0.000216242
0.000216212
0.000216179
0.000216223
0.000216231
0.000216227
0.000216257
0.000216167
0.000216331
0.000216294
0.000216324
0.000216294
0.000216249
0.000216324
0.000216354
0.000216346
0.000216331
0.000216309
0.000216369
0.000216424
0.000216346
0.000216343
0.00021635
0.000216369
0.000216361
0.000216398
0.000216376
0.000216372
0.000216465
0.000216391
0.00021654
0.000216473
0.000216462
0.000216406
0.000216454
0.000216413
0.00021648
0.000216562
0.00021654
0.000216551
0.000216562
0.000216536
0.000216562
0.000216577
0.000216581
0.00021654
0.000216611
0.000216518
0.000216689
0.000216607
0.000216581
0.000216622
0.000216622
0.000216685
0.000216626
0.000216685
0.000216667
0.00021667
0.000216704
0.00021673
0.000216734
0.000216737
0.000216741
0.000216726
0.000216786
0.000216763
0.000216722
0.000216719
0.000216819
0.000216793
0.000216782
0.000216819
0.000216786
0.000216831
0.000216793
0.000216797
0.000216842
0.000216883
0.000216868
0.000216849
0.000216823
0.000216872
0.00021689
0.000216883
0.000216901
0.000216886
0.00021686
0.00021686
0.000216898
0.000216942
0.000216965
0.000223175
0.000223193
0.000223219
0.000223242
0.00022326
0.000223231
0.000223275
0.000223298
0.000223268
0.000223275
0.000223286
0.000223301
0.000223361
0.000223298
0.000223372
0.000223342
0.000223335
0.000223346
0.000223357
0.000223394
0.000223394
0.000223454
0.000223473
0.000223409
0.000223447
0.000223499
0.000223454
0.000223458
0.000223465
0.000223432
0.000223473
0.000223473
0.000223443
0.000223491
0.000223536
0.000223503
0.000223532
0.000223499
0.00022354
0.000223603
0.000223614
0.000223596
0.000223603
0.000223659
0.000223599
0.000223599
0.000223655
0.000223625
0.000223681
0.000223674
0.000223625
0.00022367
0.000223681
0.00022364
0.000223681
0.00022376
0.000223763
0.000223685
0.000223793
0.000223681
0.00022383
0.000223737
0.000223786
0.000223834
0.000223834
0.00022386
0.000223864
0.000223849
0.000223808
0.00022383
0.000223845
0.000223901
0.00022395
0.00022386
0.000223897
0.000223916
0.00022392
0.000223834
0.000223953
0.000223987
0.000223931
0.000223968
0.000223879
0.000223968
0.000223953
0.000223979
0.000224009
0.000224043
0.000224058
0.000224035
0.000224102
0.000224058
0.000224065
0.000224005
0.000224054
0.000224106
0.000224184
0.000224154
0.000224158
0.000224151
0.000224117
0.000231016
0.000231098
0.000231136
0.000231083
0.000231087
0.000231087
0.000231158
0.000231136
0.000231139
0.000231136
0.000231124
0.000231117
0.000231225
0.000231251
0.000231232
0.000231199
0.00023121
0.000231195
0.00023127
0.000231255
0.000231292
0.000231259
0.000231281
0.000231378
0.000231318
0.000231367
0.000231389
0.000231367
0.000231277
0.000231385
0.000231344
0.000231352
0.000231389
0.000231367
0.000231426
0.000231456
0.000231456
0.000231374
0.000231411
0.000231426
0.000231393
0.000231422
0.000231486
0.000231501
0.000231501
0.000231504
0.000231549
0.000231523
0.000231568
0.00023162
0.00023159
0.000231579
0.000231642
0.000231683
0.000231687
0.000231646
0.00023159
0.000231598
0.000231579
0.000231661
0.000231713
0.000231646
0.000231661
0.000231747
0.000231758
0.000231724
0.000231761
0.000231739
0.000231761
0.000231773
0.000231847
0.000231814
0.000231754
0.000231769
0.000231799
0.000231821
0.000231843
0.000231858
0.000231914
0.000231933
0.000231903
0.000231881
0.000231944
0.000231899
0.000231944
0.000231944
0.000231951
0.000231933
0.000231937
0.000232052
0.000232
0.000232011
0.000232041
0.000232127
0.000232089
0.000232089
0.000232041
0.000232052
0.00023206
0.000232082
0.000232119
0.000239696
0.000239767
0.000239745
0.000239741
0.000239778
0.000239816
0.000239808
0.000239793
0.000239745
0.00023983
0.000239838
0.000239898
0.000239905
0.000239838
0.00023986
0.00023989
0.000239946
0.000239857
0.000239886
0.000239942
0.000239924
0.000239957
0.000239931
0.000240024
0.000240047
0.000240006
0.000240013
0.000240013
0.000240073
0.000240076
0.000240039
0.000240076
0.000240102
0.000240166
0.000240121
0.000240076
0.000240177
0.000240143
0.000240128
0.000240147
0.000240117
0.000240218
0.000240225
0.000240166
0.000240229
0.000240285
0.000240322
0.000240315
0.000240352
0.000240345
0.000240337
0.000240359
0.000240337
0.000240341
0.000240404
0.000240374
0.000240404
0.000240404
0.000240397
0.000240479
0.000240456
0.000240505
0.000240479
0.000240482
0.000240475
0.000240456
0.000240449
0.000240479
0.000240538
0.000240557
0.000240508
0.000240561
0.00024059
0.000240564
0.00024062
0.000240561
0.000240602
0.000240654
0.000240665
0.000240631
0.000240654
0.000240605
0.000240635
0.000240684
0.000240713
0.000240747
0.00024078
0.000240788
0.000240773
0.000240792
0.000240766
0.000240855
0.000240851
0.000240859
0.000240806
0.000240933
0.0002409
0.000240956
0.000240952
0.000240911
0.000241004
0.000249259
0.000249326
0.000249211
0.00024927
0.000249315
0.000249345
0.000249319
0.000249412
0.000249371
0.000249378
0.000249382
0.000249453
0.000249412
0.000249397
0.000249512
0.000249445
0.000249457
0.000249494
0.000249486
0.000249472
0.00024952
0.000249512
0.000249553
0.000249561
0.000249565
0.000249624
0.000249524
0.000249609
0.000249669
0.000249639
0.000249658
0.000249635
0.000249691
0.000249665
0.000249662
0.000249751
0.000249796
0.000249743
0.000249814
0.000249822
0.000249796
0.000249758
0.000249863
0.000249814
0.000249788
0.00024987
0.000249874
0.000249863
0.000249889
0.000249889
0.000249907
0.000249941
0.00024996
0.00024996
0.000249911
0.00024993
0.000250041
0.000250015
0.000249989
0.000250071
0.000250045
0.000250109
0.000250094
0.000250131
0.000250164
0.000250135
0.000250168
0.000250142
0.000250172
0.000250172
0.000250269
0.000250161
0.000250138
0.000250239
0.000250239
0.000250291
0.000250187
0.000250317
0.000250291
0.000250384
0.00025038
0.000250358
0.000250351
0.000250328
0.00025038
0.000250425
0.000250377
0.000250399
0.000250395
0.000250436
0.000250451
0.000250544
0.000250511
0.000250541
0.000250556
0.000250507
0.000250544
0.000250574
0.000250574
0.000250582
0.000250548
0.000259742
0.000259772
0.000259753
0.000259854
0.000259832