/*--------------------------------*- C++ -*----------------------------------*\
| =========                 |                                                 |
| \\      /  F ield         | OpenFOAM: The Open Source CFD Toolbox           |
|  \\    /   O peration     | Version:  v2006                                 |
|   \\  /    A nd           | Website:  www.openfoam.com                      |
|    \\/     M anipulation  |                                                 |
\*---------------------------------------------------------------------------*/
FoamFile
{
    version     2.0;
    format      ascii;
    class       volScalarField;
    location    "0.5";
    object      r;
}
// * * * * * * * * * * * * * * * * * * * * * * * * * * * * * * * * * * * * * //

dimensions      [1 2 0 0 0 0 0];


internalField   nonuniform List<scalar> 
500
(
2.16513e-107
2.38172e-106
2.32131e-105
2.24849e-104
2.17059e-103
2.08842e-102
2.00264e-101
1.91391e-100
1.82291e-99
1.73032e-98
1.63678e-97
1.54295e-96
1.44942e-95
1.35679e-94
1.26559e-93
1.17632e-92
1.08942e-91
1.0053e-90
9.24291e-90
8.46692e-89
7.72738e-88
7.02613e-87
6.36448e-86
5.74328e-85
5.16287e-84
4.62322e-83
4.12385e-82
3.66397e-81
3.24247e-80
2.85798e-79
2.5089e-78
2.19348e-77
1.90982e-76
1.65593e-75
1.42975e-74
1.22923e-73
1.0523e-72
8.96931e-72
7.61153e-71
6.43067e-70
5.40869e-69
4.52851e-68
3.7742e-67
3.13095e-66
2.58514e-65
2.12435e-64
1.7373e-63
1.41385e-62
1.14496e-61
9.22567e-61
7.39613e-60
5.89899e-59
4.68045e-58
3.69405e-57
2.89995e-56
2.26421e-55
1.75811e-54
1.35752e-53
1.04226e-52
7.95602e-52
6.03769e-51
4.55468e-50
3.41519e-49
2.54506e-48
1.88478e-47
1.38694e-46
1.014e-45
7.36472e-45
5.31318e-44
3.80698e-43
2.7088e-42
1.91376e-41
1.3423e-40
9.34542e-40
6.45762e-39
4.42792e-38
3.01239e-37
2.03297e-36
1.36077e-35
9.03208e-35
5.94373e-34
3.87712e-33
2.50639e-32
1.60538e-31
1.0186e-30
6.40048e-30
3.982e-29
2.45218e-28
1.49433e-27
9.00859e-27
5.37096e-26
3.16585e-25
1.84429e-24
1.06148e-23
6.03361e-23
3.38576e-22
1.87485e-21
1.02405e-20
5.51468e-20
2.92652e-19
1.52965e-18
7.8706e-18
3.98425e-17
1.98311e-16
9.69899e-16
4.6579e-15
2.19494e-14
1.01412e-13
4.59026e-13
2.0337e-12
8.81128e-12
3.72964e-11
1.5407e-10
6.20459e-10
2.43297e-09
9.27783e-09
3.43608e-08
1.23417e-07
4.29273e-07
1.44361e-06
4.68602e-06
1.46567e-05
4.40915e-05
0.000127333
0.000352335
0.000932281
0.00235434
0.0056637
0.0129559
0.0281373
0.0579382
0.113003
0.208655
0.364725
0.603854
0.948012
1.41365
2.00667
2.71881
3.52676
4.39471
5.27964
6.13795
6.93181
7.63359
8.22789
8.71104
9.08891
9.37376
9.58111
9.72712
9.82672
9.89266
9.93508
9.96163
9.97782
9.98745
9.99305
9.99622
9.99799
9.99895
9.99946
9.99973
9.99986
9.99993
9.99997
9.99998
9.99999
10
10
10
10
10
10
10
10
10
10
10
10
10
10
10
10
10
10
10
10
9.99999
9.99996
9.99987
9.99965
9.99907
9.99765
9.99434
9.98704
9.97186
9.94206
9.887
9.79134
9.63528
9.39615
9.05199
8.58635
7.99333
7.28119
6.47324
5.60529
4.72036
3.86205
3.06819
2.36641
1.77211
1.28896
0.911088
0.626238
0.418887
0.272885
0.173279
0.10734
0.0649222
0.0383709
0.022179
0.0125474
0.00695307
0.00377682
0.0020124
0.00105252
0.000540711
0.000273012
0.000135563
6.62347e-05
3.18604e-05
1.50959e-05
7.04891e-06
3.2452e-06
1.4737e-06
6.60402e-07
2.92155e-07
1.27641e-07
5.5093e-08
2.35009e-08
9.91049e-09
4.13303e-09
1.70504e-09
6.96011e-10
2.81213e-10
1.12488e-10
4.45592e-11
1.74836e-11
6.7966e-12
2.61825e-12
9.99727e-13
3.78436e-13
1.42045e-13
5.28768e-14
1.95248e-14
7.15259e-15
2.59997e-15
9.37932e-16
3.35844e-16
1.1938e-16
4.21319e-17
1.47652e-17
5.13893e-18
1.77649e-18
6.10052e-19
2.08129e-19
7.05522e-20
2.37655e-20
7.95591e-21
2.64717e-21
8.75521e-22
2.87862e-22
9.40972e-23
3.05831e-23
9.88407e-24
3.17671e-24
1.01541e-24
3.22818e-25
1.02086e-25
3.21138e-26
1.00501e-26
3.12918e-27
9.69399e-28
2.98822e-28
9.16622e-29
2.79809e-29
8.50063e-30
2.57031e-30
7.73552e-31
2.31732e-31
6.91032e-32
2.05139e-32
6.06261e-33
1.78383e-33
5.22574e-34
1.52428e-34
4.42715e-35
1.2804e-35
3.68761e-36
1.05765e-36
3.02104e-37
8.59416e-38
2.435e-38
6.87165e-39
1.93154e-39
5.40809e-40
1.50833e-40
4.1906e-41
1.15984e-41
3.19797e-42
8.78454e-43
2.40407e-43
6.55496e-44
1.78074e-44
4.82007e-45
1.29998e-45
3.49354e-46
9.35515e-47
2.49633e-47
6.63792e-48
1.75894e-48
4.64482e-49
1.22235e-49
3.20585e-50
8.37951e-51
2.1829e-51
5.66756e-52
1.46661e-52
3.78269e-53
9.72436e-54
2.49174e-54
6.36411e-55
1.62021e-55
4.1116e-56
1.04008e-56
2.62266e-57
6.59247e-58
1.65193e-58
4.12646e-59
1.02758e-59
2.55098e-60
6.31342e-61
1.55773e-61
3.83172e-62
9.39676e-63
2.29747e-63
5.60036e-64
1.36107e-64
3.29798e-65
7.96759e-66
1.9192e-66
4.60928e-67
1.10375e-67
2.63534e-68
6.27391e-69
1.48928e-69
3.52501e-70
8.31935e-71
1.95781e-71
4.59416e-72
1.07498e-72
2.50819e-73
5.83559e-74
1.35388e-74
3.13219e-75
7.22594e-76
1.66234e-76
3.81355e-77
8.72419e-78
1.99026e-78
4.5278e-79
1.02721e-79
2.32396e-80
5.24321e-81
1.17969e-81
2.64695e-82
5.92282e-83
1.32166e-83
2.9412e-84
6.5274e-85
1.44468e-85
3.18874e-86
7.01916e-87
1.54089e-87
3.37348e-88
7.36559e-89
1.60384e-89
3.48289e-90
7.54301e-91
1.62921e-91
3.50943e-92
7.53922e-93
1.61527e-93
3.4514e-94
7.35489e-95
1.56311e-95
3.31309e-96
7.0034e-97
1.47645e-97
3.10427e-98
6.50929e-99
1.36126e-99
2.83909e-100
5.90542e-101
1.22505e-101
2.53448e-102
5.22945e-103
1.0761e-103
2.20841e-104
4.51996e-105
9.2261e-106
1.87815e-106
3.813e-107
7.72023e-108
1.55889e-108
3.13925e-109
6.30459e-110
1.26272e-110
2.52218e-111
5.02414e-112
9.98073e-113
1.97731e-113
3.9066e-114
7.69719e-115
1.51242e-115
2.96358e-116
5.79111e-117
1.12852e-117
2.19306e-118
4.24999e-119
8.21327e-120
1.58283e-120
3.04184e-121
5.82936e-122
1.114e-122
2.12288e-123
4.03403e-124
7.64399e-125
1.44433e-125
2.72129e-126
5.11258e-127
9.57765e-128
1.78907e-128
3.33226e-129
6.18858e-130
1.14599e-130
2.11592e-131
3.89532e-132
7.15006e-133
1.30855e-133
2.38772e-134
4.34392e-135
7.87913e-136
1.42485e-136
2.5689e-137
4.6175e-138
8.2745e-139
1.47824e-139
2.63276e-140
4.67448e-141
8.27376e-142
1.45987e-142
2.56779e-143
4.50227e-144
7.86903e-145
1.37095e-145
2.38081e-146
4.12119e-147
7.11059e-148
1.22283e-148
2.096e-149
3.58077e-150
6.09692e-151
1.03462e-151
1.74978e-152
2.94919e-153
4.95369e-154
8.29187e-155
1.38313e-155
2.29903e-156
3.80793e-157
6.28469e-158
1.03351e-158
1.69345e-159
2.76465e-160
4.49682e-161
7.28709e-162
1.17645e-162
1.89211e-163
3.0315e-164
4.83831e-165
7.69197e-166
1.21807e-166
1.92124e-167
3.01819e-168
4.72229e-169
7.36217e-170
1.20546e-170
)
;

boundaryField
{
    right
    {
        type            zeroGradient;
    }
    left
    {
        type            inletOutlet;
        inletValue      uniform 0;
        value           uniform 0;
    }
    top
    {
        type            zeroGradient;
    }
    bottom
    {
        type            zeroGradient;
    }
    empty
    {
        type            empty;
    }
}


// ************************************************************************* //
