/*--------------------------------*- C++ -*----------------------------------*\
| =========                 |                                                 |
| \\      /  F ield         | OpenFOAM: The Open Source CFD Toolbox           |
|  \\    /   O peration     | Version:  v2006                                 |
|   \\  /    A nd           | Website:  www.openfoam.com                      |
|    \\/     M anipulation  |                                                 |
\*---------------------------------------------------------------------------*/
FoamFile
{
    version     2.0;
    format      ascii;
    class       surfaceScalarField;
    location    "5";
    object      alphaPhi0.water;
}
// * * * * * * * * * * * * * * * * * * * * * * * * * * * * * * * * * * * * * //

dimensions      [0 3 -1 0 0 0 0];
oriented        oriented;


internalField   nonuniform List<scalar> 
299200
(
-0.000732408
0.000732408
-0.00131539
0.000582983
-0.00191735
0.00060196
-0.0025427
0.000625353
-0.00317746
0.000634751
-0.00381561
0.000638157
-0.00445648
0.000640867
-0.00510024
0.000643757
-0.00574805
0.000647815
-0.00640112
0.000653068
-0.00706064
0.000659521
-0.00772767
0.000667028
-0.00840323
0.000675558
-0.00908828
0.000685056
-0.00978374
0.000695458
-0.0104904
0.00070669
-0.0112091
0.000718682
-0.0119405
0.000731365
-0.0126851
0.000744653
-0.0134436
0.000758454
-0.0142163
0.000772679
-0.0150035
0.000787247
-0.0158056
0.000802082
-0.0166227
0.000817116
-0.017455
0.000832293
-0.0183026
0.000847561
-0.0191654
0.000862863
-0.0200436
0.00087814
-0.0209369
0.000893342
-0.0218454
0.000908448
-0.0227688
0.000923462
-0.0237072
0.00093837
-0.0246603
0.000953066
-0.0256276
0.000967308
-0.0266084
0.000980815
-0.0276019
0.000993536
-0.0286078
0.00100593
-0.0296268
0.00101898
-0.0306605
0.00103369
-0.0317108
0.00105029
-0.0327785
0.00106771
-0.0338623
0.00108375
-0.0349584
0.00109609
-0.0360617
0.00110337
-0.0371672
0.00110546
-0.0382699
0.00110266
-0.0393644
0.00109457
-0.0404443
0.00107985
-0.0415018
0.00105753
-0.0425309
0.00102914
-0.0435309
0.000999911
-0.0445086
0.000977706
-0.0454785
0.00096993
-0.0464586
0.000980141
-0.0474652
0.00100659
-0.0485087
0.00104344
-0.0495922
0.00108348
-0.0507128
0.00112065
-0.0518639
0.0011511
-0.053037
0.00117312
-0.0542235
0.00118651
-0.0554155
0.00119193
-0.056606
0.00119052
-0.0577896
0.00118358
-0.058962
0.00117243
-0.0601202
0.00115825
-0.0612623
0.00114206
-0.062387
0.00112468
-0.0634937
0.00110671
-0.0645823
0.00108863
-0.0656531
0.00107073
-0.0667063
0.0010532
-0.0677424
0.00103615
-0.068762
0.00101963
-0.0697657
0.00100364
-0.0707538
0.000988146
-0.0717269
0.000973101
-0.0726854
0.000958453
-0.0736295
0.00094415
-0.0745597
0.00093014
-0.075476
0.000916379
-0.0763789
0.000902833
-0.0772684
0.000889472
-0.0781446
0.000876279
-0.0790079
0.000863244
-0.0798582
0.000850366
-0.0806959
0.000837652
-0.081521
0.000825113
-0.0823338
0.000812765
-0.0831344
0.000800627
-0.0839231
0.000788717
-0.0847002
0.000777051
-0.0854658
0.000765645
-0.0862203
0.000754508
-0.086964
0.000743646
-0.087697
0.000733059
-0.0884198
0.000722743
-0.0891324
0.00071268
-0.0898353
0.000702846
-0.0905285
0.000693209
-0.0912122
0.000683744
-0.0918867
0.000674449
-0.092552
0.00066535
-0.0932085
0.000656473
-0.0938563
0.000647761
-0.0944953
0.000638976
-0.0951249
0.000629664
-0.0957442
0.000619314
-0.096352
0.000607754
-0.0969476
0.000595634
-0.0975323
0.000584651
-0.0981094
0.000577133
-0.0986843
0.000574879
-0.0992619
0.000577657
-0.0998441
0.00058214
-0.100426
0.000581996
-0.100996
0.000569524
-0.101534
0.000538484
-0.102021
0.000486724
-0.102438
0.000417086
-0.102774
0.000336277
-0.103027
0.000252442
-0.103199
0.00017268
-0.103301
0.000101726
-0.103343
4.23506e-05
-0.10334
-3.64732e-06
-0.103307
-3.22755e-05
-0.103251
-5.62751e-05
-0.103173
-7.8283e-05
-0.103074
-9.89747e-05
-0.102955
-0.000119367
-0.102815
-0.000139628
-0.102655
-0.000159848
-0.102475
-0.000180055
-0.102275
-0.000200248
-0.102054
-0.000220422
-0.101814
-0.000240559
-0.101553
-0.00026064
-0.101273
-0.000280645
-0.100972
-0.000300561
-0.100652
-0.000320373
-0.100311
-0.000340074
-0.0999518
-0.000359655
-0.0995727
-0.000379102
-0.0991743
-0.000398397
-0.0987568
-0.00041751
-0.0983204
-0.000436397
-0.0978654
-0.000455002
-0.0973922
-0.000473265
-0.096901
-0.000491126
-0.0963925
-0.000508537
-0.095867
-0.000525474
-0.0953251
-0.000541937
-0.0947671
-0.000557952
-0.0941936
-0.000573564
-0.0936048
-0.000588824
-0.093001
-0.000603778
-0.0923825
-0.000618456
-0.0917497
-0.000632866
-0.0911027
-0.000646993
-0.0904419
-0.000660806
-0.0897676
-0.00067426
-0.0890803
-0.000687307
-0.0883804
-0.0006999
-0.0876684
-0.000711997
-0.0869448
-0.000723559
-0.0862103
-0.000734552
-0.0854653
-0.000744947
-0.0847106
-0.000754716
-0.0839468
-0.000763833
-0.0831745
-0.000772278
-0.0823945
-0.000780031
-0.0816074
-0.000787082
-0.080814
-0.000793422
-0.0800149
-0.00079905
-0.079211
-0.000803965
-0.0784028
-0.000808157
-0.0775912
-0.000811603
-0.0767769
-0.000814253
-0.0759609
-0.000816031
-0.0751441
-0.00081684
-0.0743275
-0.000816583
-0.0735123
-0.000815188
-0.0726996
-0.000812656
-0.0718906
-0.000809081
-0.0710859
-0.000804669
-0.0702862
-0.000799715
-0.0694916
-0.000794549
-0.0687022
-0.000789452
-0.0679176
-0.000784571
-0.0671378
-0.000779846
-0.0663628
-0.000774981
-0.0655933
-0.000769465
-0.0648307
-0.000762651
-0.0640768
-0.000753855
-0.0633343
-0.000742477
-0.0626062
-0.000728097
-0.0618957
-0.000710537
-0.0612058
-0.00068988
-0.0605394
-0.000666433
-0.0598987
-0.000640676
-0.0592855
-0.000613196
-0.0587009
-0.000584613
-0.0581454
-0.000555515
-0.057619
-0.000526413
-0.0571212
-0.000497724
-0.0566515
-0.000469758
-0.0562088
-0.000442729
-0.055792
-0.000416761
-0.0554001
-0.000391898
-0.055032
-0.000368121
-0.0546866
-0.000345356
-0.0543631
-0.000323489
-0.0540607
-0.000302388
-0.0537788
-0.000281913
-0.0535169
-0.000261936
-0.0532746
-0.000242341
-0.0530515
-0.000223033
-0.0528476
-0.000203932
-0.0526626
-0.000184979
-0.0524965
-0.00016613
-0.0523491
-0.000147352
-0.0522205
-0.000128615
-0.0521106
-0.000109874
-0.0520195
-9.11247e-05
-0.0519469
-7.25837e-05
-0.051892
-5.49131e-05
-0.0518528
-3.92626e-05
-0.051826
-2.67886e-05
-0.0518086
-1.74142e-05
-0.0517996
-8.98144e-06
-0.0518008
1.2722e-06
-0.0518127
1.18649e-05
-0.051837
2.42551e-05
-0.0518743
3.7291e-05
-0.0519251
5.08243e-05
-0.0519896
6.45541e-05
-0.0520681
7.84443e-05
-0.0521604
9.23e-05
-0.0522664
0.000106042
-0.052386
0.000119619
-0.052519
0.00013299
-0.0526652
0.00014612
-0.0528241
0.00015898
-0.0529957
0.000171541
-0.0531795
0.00018378
-0.0533751
0.000195677
-0.0535823
0.000207212
-0.0538007
0.00021837
-0.0540298
0.000229131
-0.0542693
0.000239475
-0.0545187
0.00024938
-0.0547775
0.000258831
-0.0550454
0.000267825
-0.0553217
0.000276376
-0.0556062
0.000284509
-0.0558985
0.000292235
-0.056198
0.000299517
-0.0565042
0.000306242
-0.0568165
0.000312242
-0.0571339
0.000317394
-0.0574556
0.00032176
-0.0577813
0.00032566
-0.0581108
0.000329526
-0.0584443
0.000333497
-0.0587814
0.000337042
-0.0591204
0.000339062
-0.0594592
0.000338766
-0.0597961
0.000336906
-0.0601324
0.000336299
-0.0604731
0.000340718
-0.0608255
0.0003524
-0.0611955
0.000369985
-0.061584
0.000388489
-0.0619849
0.000400967
-0.0623874
0.000402471
-0.0627742
0.000386776
-0.0631286
0.000354359
-0.0634387
0.000310164
-0.0636996
0.000260852
-0.0639119
0.000212333
-0.0640802
0.000168315
-0.0642106
0.000130345
-0.0643091
9.85612e-05
-0.0643815
7.2392e-05
-0.0644325
5.09497e-05
-0.0644657
3.32195e-05
-0.0644838
1.81475e-05
-0.0644882
4.38255e-06
-0.0644797
-8.48623e-06
-0.0644595
-2.02464e-05
-0.0644275
-3.19839e-05
-0.064384
-4.35098e-05
-0.0643292
-5.48253e-05
-0.0642633
-6.58594e-05
-0.0641863
-7.69816e-05
-0.0640984
-8.79303e-05
-0.0639998
-9.85789e-05
-0.0638909
-0.000108926
-0.063772
-0.00011893
-0.0636434
-0.000128536
-0.0635057
-0.000137703
-0.0633593
-0.000146374
-0.0632048
-0.000154504
-0.0630428
-0.000162068
-0.0628737
-0.000169029
-0.0626984
-0.000175356
-0.0625173
-0.000181044
-0.0623313
-0.000186092
-0.0621408
-0.000190491
-0.0619465
-0.000194232
-0.0617492
-0.000197316
-0.0615495
-0.000199753
-0.0613479
-0.00020155
-0.0611452
-0.000202715
-0.0609419
-0.000203261
-0.0607387
-0.000203198
-0.0605362
-0.000202546
-0.0603349
-0.000201316
-0.0601353
-0.000199527
-0.0599381
-0.0001972
-0.0597438
-0.00019435
-0.0595528
-0.000191
-0.0593656
-0.000187174
-0.0591827
-0.000182896
-0.0590045
-0.000178193
-0.0588314
-0.000173094
-0.0586638
-0.000167628
-0.058502
-0.000161821
-0.0583463
-0.000155701
-0.058197
-0.000149289
-0.0580544
-0.00014261
-0.0579187
-0.00013569
-0.0577901
-0.000128555
-0.0576689
-0.000121233
-0.0575552
-0.000113755
-0.057449
-0.000106147
-0.0573506
-9.84323e-05
-0.0572599
-9.0632e-05
-0.0571772
-8.27653e-05
-0.0571023
-7.48497e-05
-0.0570354
-6.6899e-05
-0.0569765
-5.89245e-05
-0.0569256
-5.09374e-05
-0.0568826
-4.29544e-05
-0.0568476
-3.50004e-05
-0.0568205
-2.71122e-05
-0.0568012
-1.93299e-05
-0.0567895
-1.16657e-05
-0.0567856
-3.86317e-06
-0.0567889
3.28934e-06
-0.0567995
1.05677e-05
-0.0568177
1.82073e-05
-0.0568439
2.61919e-05
-0.0568785
3.46252e-05
-0.0569219
4.33754e-05
-0.0569738
5.19052e-05
-0.0570333
5.95225e-05
-0.0570983
6.49835e-05
-0.0571647
6.64223e-05
-0.057228
6.32155e-05
-0.0572833
5.53176e-05
-0.0573267
4.3396e-05
-0.0573553
2.86222e-05
-0.0573673
1.19917e-05
-0.0573612
-6.11538e-06
-0.0573392
-2.19968e-05
-0.0573031
-3.60205e-05
-0.0572564
-4.67381e-05
-0.0572019
-5.45324e-05
-0.0571413
-6.05534e-05
-0.0570752
-6.60807e-05
-0.0570034
-7.18174e-05
-0.056926
-7.74292e-05
-0.0568441
-8.18536e-05
-0.0567599
-8.42904e-05
-0.0566749
-8.49298e-05
-0.0565902
-8.46917e-05
-0.0565058
-8.44057e-05
-0.0564214
-8.43842e-05
-0.0563368
-8.46174e-05
-0.0562518
-8.50733e-05
-0.056166
-8.57649e-05
-0.0560793
-8.67053e-05
-0.0559914
-8.78954e-05
-0.055902
-8.93361e-05
-0.055811
-9.10299e-05
-0.055718
-9.29798e-05
-0.0556229
-9.51893e-05
-0.0555252
-9.76621e-05
-0.0554248
-0.000100403
-0.0553214
-0.000103416
-0.0552147
-0.000106706
-0.0551044
-0.000110279
-0.0549902
-0.000114137
-0.054872
-0.000118286
-0.0547492
-0.000122724
-0.0546218
-0.000127452
-0.0544893
-0.000132467
-0.0543516
-0.000137761
-0.0542082
-0.000143329
-0.0540591
-0.00014916
-0.0539038
-0.000155247
-0.0537422
-0.000161579
-0.0535741
-0.000168148
-0.0533991
-0.000174944
-0.0532172
-0.000181961
-0.053028
-0.00018919
-0.0528314
-0.000196623
-0.0526271
-0.000204252
-0.0524151
-0.000212068
-0.052195
-0.000220064
-0.0519668
-0.00022823
-0.0517302
-0.000236558
-0.0514852
-0.000245039
-0.0512315
-0.000253666
-0.0509691
-0.000262429
-0.0506977
-0.00027132
-0.0504174
-0.00028033
-0.050128
-0.000289451
-0.0498293
-0.000298674
-0.0495213
-0.00030799
-0.0492039
-0.000317392
-0.048877
-0.000326871
-0.0485406
-0.000336421
-0.0481946
-0.000346032
-0.0478389
-0.000355698
-0.0474735
-0.000365412
-0.0470983
-0.000375166
-0.0467134
-0.000384954
-0.0463186
-0.000394768
-0.045914
-0.000404603
-0.0454995
-0.000414456
-0.0450752
-0.000424323
-0.044641
-0.000434203
-0.0441969
-0.000444094
-0.0437429
-0.000453994
-0.043279
-0.000463896
-0.0428052
-0.000473789
-0.0423216
-0.000483659
-0.0418281
-0.000493486
-0.0413248
-0.000503248
-0.0408119
-0.000512922
-0.0402894
-0.000522489
-0.0397575
-0.000531933
-0.0392162
-0.000541245
-0.0386658
-0.000550421
-0.0381064
-0.000559463
-0.037538
-0.000568376
-0.0369608
-0.000577165
-0.036375
-0.000585835
-0.0357806
-0.000594386
-0.0351778
-0.000602819
-0.0345667
-0.000611128
-0.0339473
-0.000619308
-0.03332
-0.000627354
-0.0326847
-0.000635263
-0.0320417
-0.000643033
-0.031391
-0.000650662
-0.0307329
-0.00065815
-0.0300674
-0.000665495
-0.0293947
-0.000672696
-0.0287149
-0.000679748
-0.0280283
-0.000686649
-0.0273349
-0.000693395
-0.0266349
-0.000699984
-0.0259285
-0.000706415
-0.0252158
-0.00071269
-0.024497
-0.000718809
-0.0237722
-0.000724775
-0.0230416
-0.000730587
-0.0223054
-0.000736247
-0.0215636
-0.000741757
-0.0208165
-0.000747122
-0.0200642
-0.00075235
-0.0193067
-0.000757448
-0.0185443
-0.00076242
-0.017777
-0.00076726
-0.0170051
-0.000771952
-0.0162286
-0.000776468
-0.0154478
-0.000780771
-0.014663
-0.000784816
-0.0138745
-0.000788561
-0.0130825
-0.000791983
-0.0122874
-0.000795103
-0.0114894
-0.000798004
-0.0106885
-0.000800857
-0.00988464
-0.000803883
-0.0090774
-0.000807235
-0.00826653
-0.000810868
-0.00745202
-0.000814515
-0.00663413
-0.000817883
-0.00581206
-0.00082207
-0.00498058
-0.000831489
-0.00413229
-0.000848288
-0.0032678
-0.000864491
-0.00238538
-0.000882417
-0.00146117
-0.000924212
-0.000547319
-0.000913849
-0.000547319
-0.00111617
0.00184857
-0.00209443
0.00156125
-0.00314478
0.00165231
-0.00422969
0.00171027
-0.00531826
0.00172331
-0.00640675
0.00172665
-0.00749667
0.0017308
-0.00858899
0.00173607
-0.00968372
0.00174255
-0.0107809
0.0017502
-0.0118804
0.00175908
-0.0129825
0.00176913
-0.0140873
0.0017803
-0.0151947
0.00179254
-0.0163051
0.00180578
-0.0174183
0.00181996
-0.0185347
0.001835
-0.0196541
0.00185086
-0.0207769
0.00186744
-0.0219031
0.00188467
-0.023033
0.00190249
-0.0241665
0.00192081
-0.025304
0.00193958
-0.0264456
0.00195871
-0.0275915
0.00197814
-0.0287417
0.00199779
-0.0298964
0.00201758
-0.0310557
0.00203743
-0.0322196
0.00205725
-0.0333881
0.00207696
-0.0345611
0.00209647
-0.0357384
0.00211565
-0.0369197
0.00213431
-0.0381046
0.00215221
-0.0392929
0.00216919
-0.0404847
0.0021853
-0.0416796
0.00220084
-0.0428769
0.00221629
-0.0440751
0.00223192
-0.0452723
0.00224743
-0.0464664
0.0022618
-0.0476563
0.00227365
-0.048842
0.0022818
-0.0500244
0.00228583
-0.0512051
0.00228608
-0.0523856
0.00228325
-0.0535689
0.0022778
-0.0547589
0.00226987
-0.0559611
0.00225975
-0.0571805
0.00224854
-0.058419
0.00223841
-0.0596734
0.00223206
-0.0609351
0.00223169
-0.0621928
0.00223783
-0.0634352
0.00224899
-0.0646539
0.00226211
-0.0658441
0.00227373
-0.0670045
0.002281
-0.0681356
0.00228223
-0.0692394
0.00227689
-0.0703181
0.00226523
-0.0713742
0.00224801
-0.0724099
0.00222621
-0.0734272
0.00220089
-0.0744278
0.00217301
-0.0754129
0.00214341
-0.0763836
0.00211277
-0.0773405
0.0020816
-0.0782841
0.00205027
-0.0792145
0.00201901
-0.0801317
0.00198798
-0.0810358
0.00195723
-0.0819264
0.00192679
-0.0828034
0.00189663
-0.0836665
0.00186669
-0.0845152
0.00183692
-0.0853494
0.00180723
-0.0861685
0.00177757
-0.0869722
0.00174786
-0.0877601
0.00171806
-0.0885318
0.00168812
-0.089287
0.001658
-0.0900252
0.00162768
-0.0907461
0.00159713
-0.0914492
0.00156636
-0.0921342
0.00153535
-0.0928006
0.00150413
-0.0934482
0.00147271
-0.0940766
0.00144111
-0.0946853
0.00140935
-0.095274
0.00137746
-0.0958425
0.00134547
-0.0963902
0.00131339
-0.096917
0.00128126
-0.0974224
0.00124908
-0.0979062
0.00121687
-0.0983681
0.00118465
-0.0988078
0.00115239
-0.0992251
0.00112011
-0.0996197
0.00108779
-0.0999914
0.00105544
-0.10034
0.00102305
-0.100665
0.000990569
-0.100967
0.000957935
-0.101244
0.00092499
-0.101496
0.000891502
-0.101724
0.000857212
-0.101927
0.000821921
-0.102104
0.000785605
-0.102257
0.000748451
-0.102383
0.000710779
-0.102479
0.000672823
-0.102539
0.000634498
-0.102556
0.000595336
-0.102529
0.000554752
-0.102459
0.000512524
-0.102359
0.000469083
-0.102246
0.000425365
-0.102142
0.000382437
-0.102066
0.000341127
-0.102031
0.000301747
-0.102043
0.000264055
-0.102098
0.000227457
-0.102187
0.000191309
-0.1023
0.000155127
-0.102422
0.000118567
-0.102536
8.11841e-05
-0.102634
4.216e-05
-0.102715
2.8618e-06
-0.102778
-3.6609e-05
-0.102821
-7.6001e-05
-0.102845
-0.000115491
-0.10285
-0.000155145
-0.102835
-0.00019498
-0.1028
-0.000234985
-0.102745
-0.000275142
-0.10267
-0.000315431
-0.102575
-0.000355827
-0.10246
-0.000396309
-0.102323
-0.00043685
-0.102166
-0.000477419
-0.101988
-0.000517983
-0.10179
-0.000558504
-0.10157
-0.000598944
-0.101329
-0.000639267
-0.101067
-0.00067944
-0.100784
-0.00071943
-0.10048
-0.000759198
-0.100154
-0.000798697
-0.0998075
-0.000837861
-0.0994394
-0.000876606
-0.0990501
-0.000914832
-0.0986396
-0.00095243
-0.0982082
-0.000989301
-0.0977564
-0.00102536
-0.0972847
-0.00106054
-0.0967937
-0.00109482
-0.096284
-0.00112816
-0.0957563
-0.00116057
-0.0952112
-0.00119202
-0.0946495
-0.0012225
-0.0940718
-0.00125198
-0.0934787
-0.00128041
-0.0928709
-0.00130774
-0.0922489
-0.00133393
-0.0916136
-0.00135893
-0.0909654
-0.00138267
-0.0903053
-0.00140512
-0.0896338
-0.00142623
-0.0889516
-0.00144596
-0.0882596
-0.00146427
-0.0875585
-0.00148114
-0.0868491
-0.00149654
-0.086132
-0.00151046
-0.0854082
-0.00152288
-0.0846784
-0.00153378
-0.0839435
-0.00154308
-0.0832044
-0.00155066
-0.0824623
-0.00155633
-0.0817185
-0.00155985
-0.0809744
-0.00156091
-0.0802318
-0.00155925
-0.0794923
-0.00155469
-0.0787577
-0.00154723
-0.0780296
-0.00153715
-0.0773093
-0.00152499
-0.0765975
-0.00151153
-0.0758943
-0.00149772
-0.0751994
-0.00148443
-0.0745116
-0.00147233
-0.0738297
-0.00146172
-0.0731523
-0.00145241
-0.072478
-0.00144377
-0.0718058
-0.00143484
-0.0711351
-0.00142454
-0.0704657
-0.00141184
-0.0697979
-0.00139595
-0.069132
-0.0013764
-0.0684688
-0.00135306
-0.0678092
-0.00132608
-0.067154
-0.00129586
-0.0665043
-0.00126288
-0.0658612
-0.00122769
-0.0652259
-0.00119082
-0.0645996
-0.00115274
-0.0639835
-0.00111384
-0.0633788
-0.00107446
-0.0627867
-0.00103484
-0.0622083
-0.000995157
-0.0616446
-0.000955533
-0.0610967
-0.000916037
-0.0605654
-0.000876692
-0.0600514
-0.000837491
-0.0595554
-0.000798402
-0.0590779
-0.000759388
-0.0586194
-0.000720411
-0.0581803
-0.000681441
-0.0577609
-0.00064246
-0.0573614
-0.000603459
-0.0569819
-0.000564442
-0.0566226
-0.000525424
-0.0562835
-0.000486427
-0.0559647
-0.000447478
-0.0556659
-0.000408605
-0.0553872
-0.000369829
-0.0551287
-0.000331169
-0.0548909
-0.000292638
-0.0546759
-0.000254297
-0.0544864
-0.000216308
-0.054325
-0.000178777
-0.0541922
-0.00014181
-0.0540852
-0.000105742
-0.054002
-7.12799e-05
-0.0539397
-3.80871e-05
-0.0538954
-6.95017e-06
-0.053871
2.63821e-05
-0.0538656
5.91508e-05
-0.0538782
9.10503e-05
-0.0539082
0.00012232
-0.0539551
0.000152954
-0.0540184
0.00018287
-0.0540974
0.000212009
-0.0541916
0.000240328
-0.0543004
0.000267794
-0.0544233
0.000294387
-0.0545596
0.000320087
-0.0547088
0.000344878
-0.0548703
0.000368734
-0.0550436
0.000391625
-0.0552279
0.00041351
-0.0554228
0.000434331
-0.0556274
0.000454021
-0.0558411
0.000472496
-0.0560629
0.000489663
-0.056292
0.000505425
-0.0565272
0.000519678
-0.0567672
0.00053231
-0.0570109
0.000543198
-0.0572569
0.0005522
-0.0575038
0.000559183
-0.0577505
0.000564093
-0.0579958
0.000567067
-0.0582387
0.000568508
-0.0584781
0.000568975
-0.0587133
0.000568725
-0.0589432
0.0005669
-0.0591648
0.000560666
-0.059371
0.000544949
-0.0595476
0.00051348
-0.0596727
0.000461404
-0.0597207
0.00038871
-0.0596709
0.0003026
-0.0595176
0.000216761
-0.0592765
0.000147343
-0.0589802
0.000104636
-0.0586708
9.3109e-05
-0.0583887
0.000104701
-0.0581599
0.00012549
-0.0579945
0.000144847
-0.0578909
0.000157221
-0.0578406
0.00016198
-0.0578334
0.000161115
-0.0578598
0.000156804
-0.0579115
0.000150239
-0.0579808
0.000141746
-0.0580613
0.000131384
-0.0581474
0.000119321
-0.0582351
0.000105859
-0.0583221
9.1345e-05
-0.0584069
7.64084e-05
-0.0584884
6.12359e-05
-0.0585661
4.5672e-05
-0.0586395
2.99556e-05
-0.0587086
1.4266e-05
-0.0587739
-6.39157e-07
-0.0588347
-1.61689e-05
-0.0588912
-3.14531e-05
-0.0589435
-4.61896e-05
-0.0589919
-6.05491e-05
-0.0590363
-7.45251e-05
-0.0590768
-8.80561e-05
-0.0591133
-0.000101184
-0.0591458
-0.00011388
-0.0591742
-0.000126097
-0.0591984
-0.000137854
-0.0592183
-0.000149128
-0.0592338
-0.000159905
-0.0592446
-0.000170197
-0.0592507
-0.000179991
-0.059252
-0.000189261
-0.0592482
-0.000198003
-0.0592393
-0.000206215
-0.0592251
-0.00021391
-0.0592056
-0.000221076
-0.0591806
-0.000227687
-0.0591501
-0.000233759
-0.0591141
-0.000239274
-0.0590724
-0.000244242
-0.059025
-0.000248647
-0.0589721
-0.000252499
-0.0589135
-0.000255799
-0.0588493
-0.000258552
-0.0587795
-0.000260763
-0.0587042
-0.000262441
-0.0586235
-0.0002636
-0.0585375
-0.00026425
-0.0584462
-0.000264406
-0.0583497
-0.000264083
-0.0582482
-0.000263302
-0.0581418
-0.000262084
-0.0580307
-0.000260457
-0.0579148
-0.000258445
-0.0577945
-0.000256074
-0.0576696
-0.00025337
-0.0575405
-0.000250363
-0.0574072
-0.00024708
-0.0572698
-0.000243555
-0.0571284
-0.000239828
-0.0569831
-0.000235937
-0.0568339
-0.000231921
-0.056681
-0.00022782
-0.0565242
-0.000223677
-0.0563636
-0.000219539
-0.056199
-0.000215454
-0.0560305
-0.000211474
-0.0558579
-0.00020765
-0.0556809
-0.000204037
-0.0554996
-0.000200679
-0.0553137
-0.000197592
-0.0551227
-0.000194788
-0.0549268
-0.000192614
-0.0547254
-0.000190925
-0.0545177
-0.000189493
-0.0543032
-0.000188292
-0.0540812
-0.000187327
-0.0538512
-0.000186632
-0.0536131
-0.000186189
-0.0533679
-0.00018568
-0.0531181
-0.00018486
-0.0528681
-0.000183527
-0.0526236
-0.000181327
-0.0523902
-0.000178032
-0.0521732
-0.000173591
-0.0519765
-0.000168156
-0.0518025
-0.000162006
-0.0516533
-0.000155253
-0.0515273
-0.000148057
-0.0514218
-0.000141526
-0.0513327
-0.000135784
-0.0512563
-0.000130917
-0.0511899
-0.000126956
-0.0511323
-0.000123757
-0.0510831
-0.000121008
-0.0510421
-0.000118389
-0.0510081
-0.000115814
-0.0509789
-0.0001135
-0.0509521
-0.000111783
-0.0509259
-0.000110852
-0.0508996
-0.000110704
-0.0508727
-0.00011127
-0.0508448
-0.000112516
-0.0508155
-0.000114409
-0.0507844
-0.000116888
-0.0507512
-0.000119889
-0.0507157
-0.000123384
-0.0506777
-0.00012737
-0.0506368
-0.000131853
-0.050593
-0.000136836
-0.0505459
-0.000142324
-0.0504952
-0.000148323
-0.0504408
-0.000154836
-0.0503823
-0.000161869
-0.0503196
-0.000169428
-0.0502524
-0.000177515
-0.0501804
-0.000186135
-0.0501034
-0.000195288
-0.0500211
-0.000204971
-0.0499334
-0.000215182
-0.0498399
-0.00022591
-0.0497405
-0.000237147
-0.049635
-0.000248878
-0.0495231
-0.000261088
-0.0494046
-0.000273761
-0.0492793
-0.000286882
-0.049147
-0.000300433
-0.0490075
-0.000314401
-0.0488607
-0.000328772
-0.0487064
-0.000343531
-0.0485443
-0.000358666
-0.0483744
-0.000374163
-0.0481965
-0.000390008
-0.0480103
-0.000406185
-0.0478159
-0.000422677
-0.047613
-0.000439469
-0.0474015
-0.000456544
-0.0471813
-0.000473883
-0.0469522
-0.000491469
-0.0467143
-0.000509287
-0.0464673
-0.000527318
-0.0462112
-0.000545547
-0.0459459
-0.000563956
-0.0456713
-0.00058253
-0.0453875
-0.000601253
-0.0450943
-0.000620109
-0.0447916
-0.000639083
-0.0444795
-0.000658158
-0.0441578
-0.000677322
-0.0438267
-0.000696558
-0.043486
-0.000715855
-0.0431358
-0.000735197
-0.042776
-0.000754573
-0.0424066
-0.00077397
-0.0420277
-0.000793377
-0.0416392
-0.000812786
-0.0412412
-0.000832185
-0.0408338
-0.000851565
-0.0404168
-0.000870915
-0.0399905
-0.000890222
-0.0395548
-0.000909471
-0.0391098
-0.000928642
-0.0386556
-0.000947715
-0.0381922
-0.000966666
-0.0377197
-0.000985469
-0.037238
-0.0010041
-0.0367474
-0.00102253
-0.036248
-0.00104074
-0.0357397
-0.0010587
-0.0352227
-0.00107642
-0.0346972
-0.00109388
-0.0341633
-0.00111107
-0.0336211
-0.00112801
-0.0330708
-0.0011447
-0.0325125
-0.00116113
-0.0319463
-0.00117732
-0.0313724
-0.00119325
-0.0307908
-0.00120891
-0.0302018
-0.0012243
-0.0296054
-0.00123941
-0.0290018
-0.00125423
-0.0283912
-0.00126877
-0.0277737
-0.001283
-0.0271495
-0.00129694
-0.0265187
-0.00131057
-0.0258814
-0.00132389
-0.0252379
-0.00133689
-0.0245883
-0.00134958
-0.0239328
-0.00136195
-0.0232715
-0.00137399
-0.0226046
-0.00138571
-0.0219322
-0.00139711
-0.0212546
-0.00140819
-0.0205719
-0.00141895
-0.0198843
-0.0014294
-0.0191919
-0.00143954
-0.0184949
-0.00144938
-0.0177934
-0.00145893
-0.0170876
-0.00146819
-0.0163777
-0.00147715
-0.0156638
-0.00148582
-0.0149462
-0.00149415
-0.0142248
-0.00150212
-0.0134999
-0.0015097
-0.0127716
-0.00151687
-0.01204
-0.00152364
-0.011305
-0.00153007
-0.0105667
-0.0015363
-0.00982505
-0.0015425
-0.00908004
-0.0015489
-0.00833162
-0.00155565
-0.00757983
-0.00156267
-0.00682516
-0.00156918
-0.00606962
-0.00157342
-0.00531812
-0.00157358
-0.00458015
-0.00156946
-0.00386336
-0.00156507
-0.00314582
-0.00158204
-0.00235467
-0.00167357
-0.0014245
-0.00185438
-0.000467858
-0.00187049
-0.00101518
-0.00112538
0.00297396
-0.0021183
0.00255417
-0.00320552
0.00273953
-0.00433584
0.00284059
-0.00546621
0.00285368
-0.00659196
0.00285239
-0.0077171
0.00285594
-0.00884308
0.00286206
-0.00996941
0.00286888
-0.0110952
0.00287601
-0.0122198
0.0028837
-0.0133427
0.00289203
-0.0144635
0.00290104
-0.0155817
0.00291073
-0.016697
0.00292112
-0.0178093
0.00293223
-0.0189184
0.00294408
-0.0200242
0.00295667
-0.0211268
0.00297002
-0.0222262
0.00298413
-0.0233227
0.00299898
-0.0244165
0.00301457
-0.0255077
0.00303085
-0.0265968
0.00304779
-0.027684
0.00306533
-0.0287696
0.00308339
-0.0298539
0.00310188
-0.0309372
0.00312072
-0.0320197
0.00313977
-0.0331017
0.00315892
-0.0341832
0.00317802
-0.0352645
0.00319695
-0.0363457
0.00321554
-0.0374271
0.00323356
-0.0385086
0.00325067
-0.0395898
0.00326657
-0.0406701
0.00328112
-0.0417483
0.00329451
-0.0428235
0.00330711
-0.0438953
0.00331926
-0.0449644
0.0033309
-0.0460324
0.0033416
-0.0471015
0.00335087
-0.0481743
0.00335862
-0.0492536
0.00336538
-0.0503422
0.0033719
-0.0514427
0.00337833
-0.0525564
0.00338354
-0.0536819
0.00338531
-0.0548148
0.00338141
-0.0559474
0.00337099
-0.0570706
0.00335524
-0.0581756
0.00333674
-0.0592559
0.00331814
-0.0603078
0.00330085
-0.0613305
0.00328477
-0.0623255
0.00326879
-0.0632961
0.00325158
-0.064246
0.00323216
-0.0651792
0.00321003
-0.066099
0.00318505
-0.0670084
0.00315738
-0.0679095
0.00312735
-0.068804
0.00309534
-0.0696927
0.00306178
-0.0705764
0.00302705
-0.0714551
0.00299146
-0.0723287
0.00295528
-0.0731971
0.00291868
-0.0740599
0.0028818
-0.0749167
0.00284471
-0.0757669
0.00280744
-0.07661
0.00276997
-0.0774457
0.00273227
-0.0782733
0.00269429
-0.0790923
0.00265597
-0.0799023
0.00261723
-0.0807028
0.00257801
-0.0814932
0.00253826
-0.082273
0.00249792
-0.0830419
0.00245695
-0.0837992
0.00241532
-0.0845445
0.00237301
-0.0852774
0.00233001
-0.0859974
0.00228632
-0.086704
0.00224196
-0.0873968
0.00219697
-0.0880755
0.00215139
-0.0887396
0.00210526
-0.0893889
0.00205865
-0.0900231
0.0020116
-0.0906418
0.00196418
-0.0912449
0.00191645
-0.0918321
0.00186845
-0.0924032
0.00182024
-0.0929582
0.00177185
-0.0934968
0.0017233
-0.0940191
0.00167462
-0.0945248
0.00162582
-0.0950139
0.00157689
-0.0954862
0.00152782
-0.0959418
0.00147858
-0.0963804
0.00142915
-0.0968019
0.00137948
-0.0972065
0.00132955
-0.0975943
0.00127931
-0.0979658
0.0012287
-0.0983215
0.00117764
-0.0986619
0.00112603
-0.0989872
0.00107377
-0.0992972
0.00102073
-0.0995913
0.000966908
-0.0998692
0.00091239
-0.100131
0.000857409
-0.100379
0.000802265
-0.100614
0.000747295
-0.100837
0.000692858
-0.101051
0.000639286
-0.101256
0.000586733
-0.101449
0.000535025
-0.101631
0.000483624
-0.101799
0.000431793
-0.10195
0.000378909
-0.102084
0.000324675
-0.102198
0.000269078
-0.102292
0.000212306
-0.102365
0.000154842
-0.10242
9.73211e-05
-0.102457
3.96019e-05
-0.102475
-1.86616e-05
-0.102474
-7.72767e-05
-0.102453
-0.000136308
-0.102412
-0.000195735
-0.102352
-0.000255542
-0.102271
-0.000315712
-0.10217
-0.000376221
-0.102048
-0.000437044
-0.101906
-0.000498149
-0.101743
-0.000559502
-0.101559
-0.000621059
-0.101353
-0.000682773
-0.101127
-0.000744592
-0.100879
-0.000806463
-0.100609
-0.000868335
-0.100318
-0.000930153
-0.100006
-0.00099186
-0.0996721
-0.00105338
-0.0993166
-0.00111464
-0.0989398
-0.00117549
-0.0985419
-0.0012358
-0.0981231
-0.0012954
-0.0976838
-0.0013541
-0.0972246
-0.00141172
-0.0967457
-0.00146812
-0.0962479
-0.00152319
-0.0957316
-0.00157685
-0.0951974
-0.00162906
-0.0946457
-0.00167981
-0.0940772
-0.00172907
-0.0934924
-0.00177684
-0.0928918
-0.00182306
-0.0922761
-0.00186769
-0.0916459
-0.00191067
-0.0910017
-0.00195194
-0.0903442
-0.00199142
-0.0896741
-0.00202904
-0.088992
-0.00206475
-0.0882986
-0.00209847
-0.0875947
-0.00213014
-0.086881
-0.00215972
-0.0861581
-0.00218715
-0.0854268
-0.00221239
-0.084688
-0.0022354
-0.0839423
-0.00225615
-0.0831906
-0.00227457
-0.0824338
-0.00229061
-0.0816727
-0.00230413
-0.0809084
-0.00231499
-0.0801418
-0.00232297
-0.0793737
-0.00232786
-0.0786052
-0.00232942
-0.0778369
-0.00232754
-0.0770694
-0.00232224
-0.0763028
-0.00231376
-0.0755374
-0.00230258
-0.074773
-0.00228941
-0.0740094
-0.00227511
-0.0732466
-0.00226053
-0.0724847
-0.00224634
-0.0717241
-0.00223291
-0.0709656
-0.00222019
-0.0702104
-0.00220765
-0.0694597
-0.00219446
-0.068715
-0.00217957
-0.0679776
-0.00216192
-0.0672488
-0.00214066
-0.0665296
-0.00211518
-0.0658207
-0.00208524
-0.0651229
-0.00205087
-0.0644366
-0.00201235
-0.0637624
-0.00197008
-0.0631007
-0.00192456
-0.0624522
-0.00187627
-0.0618173
-0.00182568
-0.0611968
-0.0017732
-0.0605915
-0.00171919
-0.060002
-0.00166396
-0.0594291
-0.00160777
-0.0588734
-0.00155082
-0.0583356
-0.00149329
-0.0578164
-0.00143529
-0.0573162
-0.00137692
-0.0568354
-0.00131823
-0.0563746
-0.00125927
-0.0559339
-0.00120008
-0.0555136
-0.00114067
-0.055114
-0.00108107
-0.0547351
-0.00102134
-0.0543771
-0.000961498
-0.0540399
-0.00090161
-0.0537236
-0.000841729
-0.0534281
-0.00078192
-0.0531533
-0.000722257
-0.0528991
-0.000662822
-0.0526652
-0.00060371
-0.0524514
-0.000544983
-0.0522574
-0.00048665
-0.052083
-0.000428705
-0.0519281
-0.000371228
-0.0517924
-0.000314409
-0.0516757
-0.000258527
-0.0515778
-0.000203699
-0.0514994
-0.000149698
-0.0514412
-9.62573e-05
-0.0514046
-4.34925e-05
-0.0513875
9.25344e-06
-0.051387
5.86604e-05
-0.0514034
0.000107448
-0.051436
0.000154872
-0.0514838
0.000200806
-0.0515462
0.000245256
-0.0516224
0.000288211
-0.0517117
0.000329653
-0.0518135
0.000369562
-0.051927
0.000407916
-0.0520516
0.000444696
-0.0521866
0.000479879
-0.0523313
0.000513441
-0.0524851
0.000545352
-0.0526471
0.000575571
-0.0528169
0.000604047
-0.0529935
0.000630717
-0.0531766
0.0006555
-0.0533652
0.000678303
-0.0535588
0.000699031
-0.0537567
0.000717601
-0.0539584
0.000733949
-0.0541632
0.000748015
-0.0543707
0.000759699
-0.0545803
0.000768804
-0.0547912
0.000775021
-0.0550022
0.000778049
-0.0552116
0.000777849
-0.0554174
0.000774871
-0.0556186
0.000769878
-0.0558147
0.000763026
-0.0560064
0.000752339
-0.056194
0.000732557