/*--------------------------------*- C++ -*----------------------------------*\
| =========                 |                                                 |
| \\      /  F ield         | OpenFOAM: The Open Source CFD Toolbox           |
|  \\    /   O peration     | Version:  v2006                                 |
|   \\  /    A nd           | Website:  www.openfoam.com                      |
|    \\/     M anipulation  |                                                 |
\*---------------------------------------------------------------------------*/
FoamFile
{
    version     2.0;
    format      ascii;
    class       volScalarField;
    location    "5";
    object      p;
}
// * * * * * * * * * * * * * * * * * * * * * * * * * * * * * * * * * * * * * //

dimensions      [1 -1 -2 0 0 0 0];


internalField   nonuniform List<scalar> 
150000
(
21987.6
21987.8
21988.3
21989.1
21990.1
21991.4
21992.8
21994.5
21996.4
21998.5
22000.7
22003.1
22005.7
22008.5
22011.4
22014.4
22017.5
22020.7
22024
22027.3
22030.7
22034.1
22037.5
22040.9
22044.2
22047.5
22050.6
22053.7
22056.6
22059.4
22062
22064.4
22066.5
22068.4
22070
22071.3
22072.3
22072.9
22073.1
22072.9
22072.4
22071.3
22069.9
22067.9
22065.4
22062.4
22058.9
22054.7
22049.9
22044.5
22038.3
22031.5
22024
22015.8
22007
21997.6
21987.7
21977.1
21966
21954.2
21941.7
21928.5
21914.7
21900.2
21885
21869.1
21852.6
21835.4
21817.5
21799
21780
21760.3
21740
21719.2
21697.8
21675.9
21653.5
21630.6
21607.3
21583.4
21559.2
21534.5
21509.4
21484
21458.2
21432.1
21405.7
21378.9
21352
21324.7
21297.3
21269.6
21241.8
21213.8
21185.7
21157.5
21129.1
21100.7
21072.3
21043.8
21015.2
20986.7
20958.3
20929.8
20901.5
20873.2
20845.1
20817
20789.1
20761.4
20733.9
20706.5
20679.4
20652.6
20626.1
20599.9
20574.2
20548.7
20523.6
20498.9
20474.4
20450.4
20426.7
20403.5
20380.7
20358.4
20336.8
20315.8
20295.4
20275.7
20256.6
20238.2
20220.4
20203.4
20187
20171.4
20156.5
20142.4
20129.1
20116.6
20104.9
20094
20083.9
20074.7
20066.3
20058.8
20052.2
20046.5
20041.6
20037.6
20034.5
20032.3
20031
20030.6
20031.1
20032.4
20034.7
20037.8
20041.8
20046.6
20052.3
20058.9
20066.3
20074.5
20083.5
20093.4
20104
20115.4
20127.6
20140.5
20154.2
20168.5
20183.6
20199.3
20215.8
20232.8
20250.5
20268.8
20287.7
20307.1
20327.1
20347.7
20368.7
20390.3
20412.3
20434.8
20457.7
20481
20504.7
20528.8
20553.3
20578.1
20603.2
20628.7
20654.4
20680.3
20706.6
20733
20759.7
20786.5
20813.6
20840.8
20868.2
20895.7
20923.4
20951.2
20979
21007
21035
21063.1
21091.2
21119.4
21147.6
21175.8
21204
21232.3
21260.4
21288.6
21316.7
21344.8
21372.8
21400.7
21428.6
21456.3
21484
21511.6
21539
21566.3
21593.5
21620.6
21647.4
21674.1
21700.6
21727
21753.1
21779.1
21804.8
21830.3
21855.6
21880.6
21905.4
21929.9
21954.1
21978
22001.6
22024.9
22047.9
22070.5
22092.8
22114.7
22136.2
22157.3
22178
22198.4
22218.3
22237.7
22256.7
22275.2
22293.3
22310.9
22328
22344.5
22360.6
22376.1
22391.1
22405.5
22419.4
22432.7
22445.5
22457.6
22469.1
22480.1
22490.5
22500.4
22509.7
22518.3
22526.3
22533.6
22540.3
22546.3
22551.7
22556.5
22560.6
22564.1
22567.1
22569.3
22571
22572.1
22572.5
22572.3
22571.5
22570.1
22568.1
22565.5
22562.3
22558.6
22554.3
22549.4
22543.9
22537.9
22531.4
22524.3
22516.7
22508.6
22500
22490.9
22481.3
22471.2
22460.7
22449.7
22438.2
22426.3
22414
22401.2
22388
22374.4
22360.5
22346.1
22331.3
22316.2
22300.6
22284.8
22268.5
22251.9
22234.9
22217.6
22199.9
22181.9
22163.5
22144.8
22125.8
22106.4
22086.6
22066.6
22046.2
22025.4
22004.3
21982.9
21961.1
21938.9
21916.4
21893.6
21870.4
21846.8
21822.9
21798.6
21773.9
21748.9
21723.5
21697.7
21671.5
21645
21618
21590.7
21563
21534.9
21506.5
21477.6
21448.4
21418.7
21388.7
21358.3
21327.5
21296.3
21264.7
21232.7
21200.3
21167.6
21134.6
21101.2
21067.5
21033.5
20999.1
20964.4
20929.3
20894
20858.4
20822.4
20786.2
20749.8
20713.1
20676.1
20639
20601.6
20564
20526.2
20488.3
20450.2
20411.9
20373.6
20335.1
20296.5
20257.9
20219.2
20180.4
20141.6
20102.8
20064
20025.2
19986.5
19947.8
19909.1
19870.6
19832.1
19793.8
19755.5
19717.5
19679.5
19641.8
19604.2
19566.8
19529.7
19492.8
19456.1
19419.6
19383.4
19347.5
19311.9
19276.6
19241.6
19206.9
19172.5
19138.5
19104.8
19071.5
19038.5
19005.9
18973.7
18941.9
18910.5
18879.5
18848.9
18818.7
18789
18759.7
18730.8
18702.3
18674.4
18646.8
18619.7
18593.1
18566.9
18541.2
18516
18491.2
18467
18443.1
18419.8
18397
18374.6
18352.8
18331.4
18310.5
18290.1
18270.1
18250.7
18231.8
18213.3
18195.4
18177.9
18160.9
18144.4
18128.4
18112.9
18097.9
18083.3
18069.3
18055.7
18042.6
18030
18017.8
18006.1
17994.9
17984.2
17973.9
17964.1
17954.7
17945.8
17937.3
17929.3
17921.7
17914.6
17907.8
17901.5
17895.7
17890.2
17885.1
17880.4
17876.2
17872.3
17868.8
17865.7
17862.9
17860.5
17858.5
17856.8
17855.5
17854.6
17853.7
17853.2
21660.4
21660.6
21661.1
21661.9
21662.9
21664.2
21665.7
21667.3
21669.2
21671.3
21673.6
21676
21678.6
21681.4
21684.3
21687.3
21690.4
21693.6
21696.9
21700.3
21703.7
21707.1
21710.5
21713.9
21717.2
21720.5
21723.7
21726.8
21729.8
21732.5
21735.2
21737.6
21739.7
21741.6
21743.3
21744.6
21745.5
21746.2
21746.4
21746.3
21745.7
21744.7
21743.2
21741.2
21738.7
21735.7
21732.1
21727.9
21723.1
21717.7
21711.6
21704.9
21697.5
21689.4
21680.7
21671.4
21661.4
21650.8
21639.5
21627.6
21615.1
21601.9
21588
21573.4
21558.1
21542.2
21525.6
21508.4
21490.6
21472.1
21453
21433.3
21413
21392.2
21370.8
21348.9
21326.5
21303.6
21280.2
21256.4
21232.1
21207.4
21182.3
21156.9
21131.1
21105
21078.5
21051.8
21024.8
20997.6
20970.1
20942.4
20914.6
20886.6
20858.5
20830.2
20801.9
20773.5
20745
20716.5
20687.9
20659.4
20630.9
20602.5
20574.1
20545.8
20517.6
20489.6
20461.7
20434
20406.4
20379.1
20352
20325.2
20298.6
20272.2
20246.1
20220.3
20194.9
20169.9
20145.4
20121.4
20097.9
20075
20052.6
20030.7
20009.3
19988.4
19968
19948.3
19929.1
19910.7
19892.9
19875.8
19859.5
19843.8
19829
19814.8
19801.5
19789
19777.2
19766.3
19756.2
19747
19738.6
19731.1
19724.5
19718.7
19713.9
19709.9
19706.8
19704.6
19703.3
19702.8
19703.3
19704.7
19706.9
19710
19714
19718.9
19724.6
19731.1
19738.5
19746.7
19755.8
19765.6
19776.3
19787.7
19799.9
19812.8
19826.4
19840.8
19855.9
19871.7
19888.1
19905.1
19922.8
19941.1
19960
19979.5
19999.5
20020.1
20041.2
20062.7
20084.8
20107.3
20130.2
20153.5
20177.3
20201.4
20225.9
20250.7
20275.8
20301.3
20327
20353
20379.3
20405.7
20432.4
20459.3
20486.4
20513.7
20541.1
20568.6
20596.3
20624.1
20652
20680
20708
20736.1
20764.3
20792.4
20820.7
20848.9
20877.1
20905.3
20933.5
20961.7
20989.8
21017.9
21045.9
21073.8
21101.7
21129.5
21157.1
21184.7
21212.2
21239.5
21266.7
21293.7
21320.6
21347.4
21373.9
21400.3
21426.5
21452.4
21478.2
21503.7
21528.9
21554
21578.7
21603.2
21627.5
21651.4
21675
21698.3
21721.3
21743.9
21766.2
21788.1
21809.6
21830.7
21851.5
21871.8
21891.7
21911.1
21930.1
21948.7
21966.8
21984.3
22001.4
22018
22034
22049.6
22064.6
22079
22092.9
22106.2
22118.9
22131.1
22142.7
22153.7
22164.1
22173.9
22183
22191.4
22199.2
22206.4
22212.9
22218.9
22224.4
22229.2
22233.5
22237.1
22240.1
22242.4
22244.2
22245.2
22245.7
22245.6
22244.8
22243.5
22241.5
22238.9
22235.7
22232
22227.7
22222.8
22217.3
22211.3
22204.8
22197.7
22190.1
22182
22173.3
22164.2
22154.6
22144.5
22134
22123
22111.5
22099.6
22087.2
22074.5
22061.3
22047.7
22033.7
22019.3
22004.6
21989.4
21973.9
21958
21941.7
21925.1
21908.1
21890.8
21873.1
21855.1
21836.8
21818
21799
21779.6
21759.9
21739.8
21719.4
21698.6
21677.5
21656.1
21634.3
21612.2
21589.7
21566.8
21543.6
21520.1
21496.2
21471.9
21447.2
21422.2
21396.8
21371
21344.9
21318.3
21291.4
21264.1
21236.4
21208.3
21179.8
21150.9
21121.6
21091.9
21061.8
21031.4
21000.5
20969.3
20937.7
20905.8
20873.5
20840.9
20807.8
20774.5
20740.7
20706.7
20672.3
20637.6
20602.5
20567.2
20531.6
20495.6
20459.4
20423
20386.2
20349.3
20312.1
20274.7
20237.1
20199.3
20161.4
20123.3
20085
20046.6
20008.2
19969.6
19930.9
19892.2
19853.4
19814.6
19775.8
19737
19698.2
19659.4
19620.7
19582.1
19543.5
19505
19466.7
19428.4
19390.4
19352.4
19314.7
19277.1
19239.7
19202.5
19165.6
19128.9
19092.4
19056.2
19020.3
18984.7
18949.4
18914.3
18879.6
18845.3
18811.2
18777.5
18744.2
18711.2
18678.6
18646.4
18614.6
18583.2
18552.2
18521.6
18491.4
18461.6
18432.3
18403.4
18375
18347
18319.4
18292.3
18265.7
18239.5
18213.8
18188.6
18163.8
18139.5
18115.7
18092.4
18069.5
18047.2
18025.3
18003.9
17983
17962.6
17942.7
17923.2
17904.3
17885.9
17867.9
17850.4
17833.4
17816.9
17800.9
17785.4
17770.4
17755.8
17741.8
17728.2
17715.1
17702.5
17690.3
17678.6
17667.4
17656.7
17646.4
17636.6
17627.2
17618.3
17609.8
17601.8
17594.2
17587.1
17580.3
17574
17568.2
17562.7
17557.6
17553
17548.7
17544.8
17541.3
17538.2
17535.4
17533
17531
17529.3
17528.1
17527.2
17526.3
17525.7
21332.5
21332.7
21333.3
21334.1
21335.1
21336.4
21337.8
21339.5
21341.4
21343.5
21345.8
21348.3
21350.9
21353.7
21356.6
21359.6
21362.7
21366
21369.3
21372.7
21376.1
21379.5
21382.9
21386.3
21389.7
21393
21396.2
21399.3
21402.3
21405.1
21407.7
21410.1
21412.3
21414.2
21415.9
21417.2
21418.2
21418.8
21419.1
21419
21418.4
21417.4
21415.9
21414
21411.5
21408.5
21404.9
21400.7
21396
21390.5
21384.5
21377.7
21370.4
21362.3
21353.6
21344.3
21334.4
21323.8
21312.5
21300.6
21288.1
21274.8
21260.9
21246.4
21231.1
21215.2
21198.7
21181.5
21163.6
21145.1
21126.1
21106.4
21086.1
21065.3
21043.9
21022
20999.6
20976.7
20953.3
20929.5
20905.2
20880.5
20855.4
20829.9
20804.1
20778
20751.6
20724.8
20697.8
20670.6
20643.1
20615.4
20587.6
20559.6
20531.4
20503.2
20474.8
20446.4
20417.9
20389.4
20360.8
20332.3
20303.8
20275.3
20247
20218.7
20190.5
20162.4
20134.5
20106.7
20079.2
20051.8
20024.7
19997.9
19971.4
19945.1
19919.2
19893.6
19868.4
19843.4
19818.9
19794.7
19771
19747.8
19725.1
19703
19681.5
19660.5
19640.1
19620.4
19601.2
19582.8
19565
19547.9
19531.5
19515.8
19500.9
19486.7
19473.4
19460.8
19449.1
19438.1
19428
19418.8
19410.4
19402.9
19396.2
19390.4
19385.5
19381.5
19378.4
19376.2
19374.9
19374.5
19374.9
19376.3
19378.5
19381.6
19385.6
19390.5
19396.2
19402.7
19410.1
19418.4
19427.4
19437.3
19447.9
19459.3
19471.5
19484.5
19498.1
19512.5
19527.6
19543.4
19559.8
19576.9
19594.6
19613
19631.9
19651.4
19671.4
19692
19713.1
19734.7
19756.8
19779.3
19802.3
19825.6
19849.4
19873.6
19898.1
19922.9
19948.1
19973.6
19999.4
20025.4
20051.7
20078.2
20104.9
20131.8
20159
20186.2
20213.7
20241.3
20269
20296.8
20324.7
20352.7
20380.8
20408.9
20437.1
20465.3
20493.5
20521.8
20550
20578.2
20606.5
20634.6
20662.8
20690.9
20718.9
20746.9
20774.7
20802.5
20830.2
20857.8
20885.3
20912.6
20939.8
20966.9
20993.8
21020.5
21047.1
21073.4
21099.6
21125.6
21151.3
21176.9
21202.2
21227.2
21252
21276.5
21300.8
21324.7
21348.3
21371.6
21394.6
21417.3
21439.5
21461.5
21483
21504.2
21524.9
21545.2
21565.1
21584.6
21603.6
21622.2
21640.3
21657.9
21675
21691.5
21707.6
21723.2
21738.2
21752.6
21766.5
21779.8
21792.6
21804.7
21816.3
21827.4
21837.8
21847.7
21857
21865.6
21873.6
21880.9
21887.6
21893.6
21899
21903.7
21907.9
21911.4
21914.3
21916.6
21918.3
21919.3
21919.8
21919.6
21918.8
21917.4
21915.4
21912.8
21909.7
21905.9
21901.5
21896.6
21891.1
21885.1
21878.5
21871.4
21863.8
21855.7
21847
21837.9
21828.3
21818.2
21807.6
21796.6
21785.1
21773.2
21760.8
21748
21734.9
21721.3
21707.3
21692.9
21678.1
21662.9
21647.4
21631.5
21615.2
21598.6
21581.6
21564.3
21546.6
21528.6
21510.2
21491.5
21472.5
21453.1
21433.3
21413.3
21392.8
21372.1
21351
21329.6
21307.8
21285.6
21263.1
21240.3
21217.1
21193.5
21169.6
21145.3
21120.7
21095.7
21070.3
21044.5
21018.3
20991.8
20964.9
20937.6
20909.9
20881.8
20853.3
20824.4
20795.2
20765.5
20735.5
20705
20674.2
20643
20611.4
20579.5
20547.1
20514.4
20481.4
20448
20414.3
20380.2
20345.8
20311
20276
20240.6
20205
20169
20132.8
20096.3
20059.6
20022.6
19985.4
19948
19910.4
19872.6
19834.6
19796.5
19758.2
19719.8
19681.3
19642.7
19604
19565.3
19526.5
19487.6
19448.8
19410
19371.2
19332.4
19293.6
19255
19216.4
19177.9
19139.5
19101.2
19063.1
19025.2
18987.4
18949.8
18912.4
18875.2
18838.2
18801.5
18765
18728.8
18692.9
18657.2
18621.9
18586.9
18552.1
18517.7
18483.7
18450
18416.6
18383.7
18351
18318.8
18287
18255.6
18224.5
18193.9
18163.7
18134
18104.6
18075.7
18047.3
18019.2
17991.7
17964.6
17937.9
17911.7
17886
17860.8
17836
17811.7
17787.9
17764.6
17741.7
17719.3
17697.4
17676
17655.1
17634.7
17614.8
17595.3
17576.4
17557.9
17540
17522.5
17505.5
17489
17473
17457.5
17442.5
17427.9
17413.8
17400.3
17387.1
17374.5
17362.4
17350.7
17339.5
17328.7
17318.4
17308.6
17299.3
17290.4
17281.9
17273.9
17266.3
17259.1
17252.4
17246.1
17240.2
17234.8
17229.7
17225
17220.8
17216.9
17213.4
17210.3
17207.5
17205.2
17203.2
17201.5
17200.2
17199.3
17198.4
17197.9
21004.1
21004.3
21004.9
21005.7
21006.8
21008
21009.5
21011.2
21013.1
21015.3
21017.6
21020
21022.7
21025.5
21028.4
21031.5
21034.7
21037.9
21041.3
21044.7
21048.1
21051.6
21055
21058.5
21061.9
21065.2
21068.5
21071.6
21074.6
21077.5
21080.2
21082.6
21084.8
21086.8
21088.5
21089.9
21090.9
21091.6
21091.9
21091.8
21091.3
21090.3
21088.9
21086.9
21084.5
21081.5
21077.9
21073.8
21069.1
21063.7
21057.7
21051
21043.7
21035.7
21027
21017.8
21007.8
20997.2
20986
20974.1
20961.5
20948.3
20934.4
20919.8
20904.6
20888.7
20872.1
20854.9
20837
20818.6
20799.5
20779.8
20759.5
20738.7
20717.3
20695.4
20672.9
20650
20626.6
20602.7
20578.4
20553.7
20528.6
20503.1
20477.3
20451.1
20424.7
20397.9
20370.9
20343.6
20316.1
20288.4
20260.5
20232.5
20204.3
20176
20147.6
20119.2
20090.7
20062.1
20033.5
20005
19976.4
19947.9
19919.5
19891.2
19862.9
19834.8
19806.9
19779.1
19751.5
19724.1
19696.9
19670
19643.3
19616.9
19590.9
19565.2
19539.8
19514.9
19490.4
19466.3
19442.7
19419.6
19397
19374.9
19353.3
19332.3
19311.9
19292.1
19272.9
19254.4
19236.5
19219.4
19202.9
19187.2
19172.3
19158.1
19144.7
19132.1
19120.3
19109.3
19099.2
19089.9
19081.5
19073.9
19067.3
19061.5
19056.6
19052.5
19049.4
19047.2
19045.8
19045.4
19045.8
19047.2
19049.4
19052.5
19056.5
19061.3
19067
19073.6
19081
19089.3
19098.3
19108.2
19118.8
19130.3
19142.5
19155.4
19169.1
19183.5
19198.7
19214.5
19230.9
19248.1
19265.8
19284.2
19303.1
19322.7
19342.8
19363.4
19384.5
19406.2
19428.3
19450.8
19473.9
19497.3
19521.1
19545.3
19569.9
19594.8
19620
19645.5
19671.3
19697.4
19723.7
19750.3
19777.1
19804
19831.2
19858.5
19886
19913.7
19941.4
19969.3
19997.2
20025.3
20053.4
20081.6
20109.8
20138
20166.3
20194.6
20222.9
20251.1
20279.4
20307.6
20335.8
20363.9
20391.9
20419.9
20447.8
20475.7
20503.4
20531
20558.5
20585.9
20613.1
20640.2
20667.1
20693.9
20720.5
20746.9
20773.1
20799.1
20824.8
20850.4
20875.7
20900.8
20925.6
20950.1
20974.4
20998.3
21022
21045.3
21068.3
21091
21113.3
21135.2
21156.8
21178
21198.8
21219.1
21239.1
21258.5
21277.6
21296.2
21314.3
21331.9
21349
21365.6
21381.7
21397.3
21412.3
21426.8
21440.7
21454.1
21466.9
21479.1
21490.7
21501.7
21512.1
21521.9
21531.1
21539.5
21547.4
21554.7
21561.3
21567.4
21572.9
21577.8
21582
21585.6
21588.5
21590.8
21592.5
21593.6
21594
21593.8
21593.1
21591.6
21589.6
21587
21583.8
21580
21575.7
21570.7
21565.3
21559.2
21552.6
21545.5
21537.9
21529.7
21521.1
21511.9
21502.3
21492.2
21481.6
21470.5
21459
21447.1
21434.7
21421.9
21408.7
21395.1
21381.1
21366.7
21351.9
21336.7
21321.1
21305.2
21289
21272.3
21255.3
21238
21220.3
21202.3
21183.9
21165.2
21146.2
21126.8
21107
21087
21066.6
21045.8
21024.7
21003.3
20981.5
20959.4
20936.9
20914
20890.9
20867.3
20843.4
20819.1
20794.5
20769.4
20744
20718.3
20692.1
20665.6
20638.7
20611.4
20583.6
20555.6
20527.1
20498.2
20468.9
20439.2
20409.2
20378.7
20347.9
20316.7
20285.1
20253.2
20220.8
20188.1
20155.1
20121.7
20087.9
20053.9
20019.4
19984.7
19949.6
19914.2
19878.5
19842.6
19806.3
19769.8
19733.1
19696.1
19658.8
19621.4
19583.7
19545.9
19507.9
19469.8
19431.4
19393
19354.5
19315.8
19277.1
19238.3
19199.5
19160.7
19121.8
19082.9
19044.1
19005.2
18966.5
18927.8
18889.1
18850.6
18812.2
18773.9
18735.8
18697.8
18660
18622.3
18584.9
18547.7
18510.7
18473.9
18437.4
18401.2
18365.2
18329.6
18294.2
18259.1
18224.4
18190
18155.9
18122.1
18088.8
18055.8
18023.1
17990.9
17959
17927.6
17896.5
17865.9
17835.7
17805.9
17776.5
17747.6
17719.1
17691.1
17663.5
17636.4
17609.7
17583.5
17557.8
17532.6
17507.8
17483.5
17459.6
17436.3
17413.4
17391
17369.1
17347.7
17326.8
17306.4
17286.4
17267
17248
17229.6
17211.6
17194.1
17177.1
17160.6
17144.6
17129.1
17114
17099.5
17085.4
17071.8
17058.7
17046.1
17033.9
17022.2
17011
17000.3
16990
16980.2
16970.8
16961.9
16953.4
16945.4
16937.8
16930.7
16924
16917.7
16911.8
16906.4
16901.3
16896.7
16892.4
16888.5
16885
16881.9
16879.2
16876.8
16874.8
16873.2
16871.9
16871
16870.1
16869.5
20675.2
20675.4
20676
20676.8
20677.9
20679.2
20680.7
20682.4
20684.4
20686.5
20688.8
20691.3
20694
20696.9
20699.8
20702.9
20706.1
20709.5
20712.8
20716.3
20719.8
20723.3
20726.8
20730.3
20733.8
20737.2
20740.5
20743.7
20746.7
20749.6
20752.4
20754.9
20757.2
20759.2
20760.9
20762.4
20763.5
20764.2
20764.6
20764.5
20764
20763.1
20761.7
20759.8
20757.4
20754.5
20751
20746.8
20742.1
20736.8
20730.8
20724.2
20717
20709
20700.5
20691.2
20681.4
20670.8
20659.6
20647.7
20635.1
20621.9
20608
20593.4
20578.2
20562.3
20545.7
20528.5
20510.6
20492.1
20473
20453.3
20433
20412.2
20390.8
20368.8
20346.4
20323.4
20300
20276.1
20251.8
20227
20201.9
20176.4
20150.5
20124.3
20097.8
20071
20044
20016.7
19989.1
19961.4
19933.5
19905.4
19877.2
19848.9
19820.5
19792
19763.4
19734.8
19706.2
19677.6
19649.1
19620.5
19592.1
19563.7
19535.4
19507.3
19479.3
19451.5
19423.9
19396.4
19369.2
19342.3
19315.6
19289.3
19263.2
19237.4
19212
19187
19162.4
19138.2
19114.4
19091.2
19068.5
19046.3
19024.7
19003.6
18983.1
18963.3
18944
18925.5
18907.6
18890.4
18873.9
18858.1
18843.1
18828.9
18815.4
18802.8
18790.9
18779.9
18769.8
18760.4
18752
18744.4
18737.7
18731.8
18726.9
18722.8
18719.7
18717.4
18716.1
18715.6
18716
18717.4
18719.6
18722.7
18726.7
18731.5
18737.2
18743.8
18751.2
18759.5
18768.5
18778.4
18789.1
18800.5
18812.8
18825.8
18839.5
18853.9
18869.1
18884.9
18901.4
18918.6
18936.4
18954.8
18973.8
18993.4
19013.5
19034.2
19055.4
19077.1
19099.3
19121.9
19145
19168.4
19192.3
19216.6
19241.2
19266.2
19291.5
19317.1
19342.9
19369.1
19395.5
19422.1
19448.9
19476
19503.2
19530.6
19558.2
19585.9
19613.7
19641.6
19669.6
19697.7
19725.9
19754.1
19782.4
19810.7
19839
19867.4
19895.7
19924
19952.3
19980.6
20008.8
20036.9
20065
20093.1
20121
20148.9
20176.6
20204.3
20231.8
20259.2
20286.5
20313.6
20340.6
20367.3
20394
20420.4
20446.6
20472.7
20498.5
20524
20549.4
20574.5
20599.3
20623.9
20648.2
20672.2
20695.8
20719.2
20742.2
20764.9
20787.3
20809.2
20830.8
20852
20872.8
20893.2
20913.2
20932.7
20951.8
20970.4
20988.5
21006.2
21023.3
21040
21056.1
21071.7
21086.7
21101.2
21115.2
21128.6
21141.4
21153.6
21165.3
21176.3
21186.8
21196.7
21205.9
21214.5
21222.5
21229.8
21236.4
21242.5
21247.9
21252.6
21256.8
21260.4
21263.3
21265.6
21267.3
21268.3
21268.7
21268.5
21267.7
21266.3
21264.3
21261.7
21258.4
21254.6
21250.3
21245.3
21239.8
21233.7
21227.1
21220
21212.3
21204.1
21195.4
21186.3
21176.6
21166.4
21155.8
21144.7
21133.2
21121.3
21108.9
21096
21082.8
21069.2
21055.1
21040.7
21025.9
21010.7
20995.1
20979.2
20962.9
20946.3
20929.3
20911.9
20894.2
20876.2
20857.8
20839.1
20820.1
20800.7
20781
20760.9
20740.5
20719.7
20698.6
20677.2
20655.4
20633.3
20610.8
20588
20564.8
20541.3
20517.4
20493.1
20468.5
20443.5
20418.1
20392.3
20366.2
20339.7
20312.7
20285.4
20257.7
20229.7
20201.2
20172.3
20143
20113.4
20083.3
20052.9
20022
19990.8
19959.2
19927.3
19894.9
19862.2
19829.1
19795.7
19761.9
19727.8
19693.3
19658.6
19623.5
19588.1
19552.3
19516.3
19480.1
19443.5
19406.7
19369.7
19332.4
19294.9
19257.3
19219.4
19181.3
19143.1
19104.8
19066.3
19027.7
18989.1
18950.3
18911.5
18872.6
18833.7
18794.8
18755.9
18717
18678.1
18639.3
18600.5
18561.9
18523.3
18484.8
18446.5
18408.3
18370.3
18332.4
18294.7
18257.3
18220
18183
18146.2
18109.6
18073.4
18037.4
18001.7
17966.2
17931.1
17896.4
17861.9
17827.8
17794
17760.6
17727.6
17694.9
17662.7
17630.8
17599.3
17568.2
17537.6
17507.3
17477.5
17448.1
17419.2
17390.7
17362.6
17335
17307.9
17281.2
17255
17229.2
17203.9
17179.1
17154.8
17131
17107.6
17084.7
17062.3
17040.4
17019
16998
16977.6
16957.6
16938.2
16919.2
16900.7
16882.7
16865.2
16848.2
16831.7
16815.7
16800.2
16785.1
16770.6
16756.5
16742.9
16729.8
16717.1
16705
16693.3
16682.1
16671.3
16661.1
16651.2
16641.9
16633
16624.5
16616.5
16608.9
16601.8
16595.1
16588.8
16582.9
16577.5
16572.4
16567.8
16563.6
16559.7
16556.2
16553.1
16550.4
16548
16546
16544.4
16543.1
16542.2
16541.3
16540.8
20345.9
20346.1
20346.7
20347.5
20348.6
20349.9
20351.4
20353.2
20355.1
20357.3
20359.7
20362.2
20364.9
20367.8
20370.8
20374
20377.3
20380.6
20384.1
20387.6
20391.1
20394.7
20398.3
20401.8
20405.4
20408.8
20412.2
20415.5
20418.6
20421.6
20424.4
20427
20429.3
20431.4
20433.2
20434.7
20435.9
20436.7
20437.1
20437.2
20436.8
20435.9
20434.6
20432.7
20430.4
20427.5
20424
20420
20415.3
20410
20404.1
20397.6
20390.4
20382.5
20374
20364.8
20355
20344.5
20333.3
20321.4
20308.9
20295.6
20281.7
20267.2
20251.9
20236
20219.4
20202.2
20184.3
20165.8
20146.7
20127
20106.6
20085.8
20064.3
20042.4
20019.9
19996.9
19973.4
19949.5
19925.1
19900.4
19875.2
19849.6
19823.7
19797.5
19770.9
19744.1
19717
19689.7
19662.1
19634.3
19606.4
19578.3
19550
19521.6
19493.2
19464.6
19436
19407.4
19378.8
19350.1
19321.5
19292.9
19264.4
19236
19207.7
19179.5
19151.4
19123.5
19095.8
19068.3
19041
19014
18987.3
18960.8
18934.7
18908.9
18883.4
18858.4
18833.7
18809.5
18785.8
18762.5
18739.7
18717.4
18695.7
18674.6
18654
18634.1
18614.8
18596.1
18578.1
18560.9
18544.3
18528.5
18513.4
18499.1
18485.6
18472.9
18461
18449.9
18439.7
18430.3
18421.8
18414.2
18407.4
18401.5
18396.6
18392.5
18389.3
18387
18385.6
18385.1
18385.6
18386.9
18389.1
18392.2
18396.1
18401
18406.7
18413.3
18420.7
18429
18438
18447.9
18458.6
18470.1
18482.4
18495.4
18509.2
18523.6
18538.8
18554.7
18571.3
18588.5
18606.3
18624.8
18643.9
18663.5
18683.7
18704.5
18725.7
18747.5
18769.7
18792.4
18815.6
18839.2
18863.1
18887.5
18912.2
18937.2
18962.6
18988.3
19014.2
19040.4
19066.9
19093.6
19120.6
19147.7
19175
19202.5
19230.1
19257.9
19285.8
19313.8
19341.9
19370
19398.3
19426.6
19454.9
19483.3
19511.7
19540.1
19568.5
19596.8
19625.2
19653.5
19681.8
19710
19738.1
19766.2
19794.2
19822.1
19849.9
19877.6
19905.2
19932.6
19960
19987.1
20014.1
20040.9
20067.6
20094.1
20120.3
20146.4
20172.2
20197.9
20223.2
20248.4
20273.3
20297.9
20322.2
20346.2
20369.9
20393.3
20416.4
20439.1
20461.5
20483.5
20505.1
20526.4
20547.2
20567.6
20587.6
20607.2
20626.3
20645
20663.1
20680.8
20698
20714.7
20730.8
20746.5
20761.6
20776.1
20790.1
20803.5
20816.3
20828.6
20840.3
20851.3
20861.8
20871.6
20880.8
20889.4
20897.4
20904.8
20911.5
20917.6
20923
20927.8
20932
20935.6
20938.5
20940.8
20942.5
20943.5
20943.9
20943.7
20942.9
20941.4
20939.4
20936.7
20933.5
20929.7
20925.2
20920.3
20914.7
20908.6
20902
20894.8
20887.1
20878.9
20870.2
20860.9
20851.2
20841.1
20830.4
20819.3
20807.7
20795.7
20783.3
20770.5
20757.2
20743.5
20729.5
20715
20700.2
20685
20669.4
20653.5
20637.1
20620.5
20603.5
20586.1
20568.4
20550.4
20532
20513.3
20494.2
20474.8
20455.1
20435
20414.6
20393.9
20372.8
20351.4
20329.6
20307.5
20285
20262.2
20239.1
20215.5
20191.6
20167.4
20142.7
20117.7
20092.4
20066.6
20040.5
20013.9
19987
19959.7
19932
19903.9
19875.5
19846.6
19817.3
19787.7
19757.6
19727.1
19696.3
19665.1
19633.5
19601.5
19569.2
19536.4
19503.3
19469.9
19436.1
19402
19367.5
19332.7
19297.5
19262.1
19226.3
19190.3
19154
19117.4
19080.6
19043.5
19006.2
18968.6
18930.9
18893
18854.9
18816.6
18778.2
18739.7
18701.1
18662.3
18623.5
18584.6
18545.7
18506.7
18467.8
18428.8
18389.8
18350.9
18312
18273.2
18234.5
18195.9
18157.4
18119
18080.7
18042.6
18004.7
17967
17929.5
17892.2
17855.1
17818.2
17781.7
17745.3
17709.3
17673.5
17638.1
17602.9
17568.1
17533.6
17499.4
17465.6
17432.2
17399.1
17366.4
17334.1
17302.2
17270.7
17239.6
17208.9
17178.6
17148.8
17119.3
17090.4
17061.8
17033.8
17006.1
16978.9
16952.2
16926
16900.2
16874.9
16850.1
16825.7
16801.9
16778.5
16755.6
16733.1
16711.2
16689.8
16668.8
16648.4
16628.4
16608.9
16589.9
16571.4
16553.4
16535.9
16518.9
16502.4
16486.3
16470.8
16455.7
16441.2
16427.1
16413.5
16400.4
16387.7
16375.6
16363.9
16352.7
16341.9
16331.6
16321.8
16312.5
16303.6
16295.1
16287.1
16279.5
16272.4
16265.7
16259.4
16253.6
16248.1
16243.1
16238.5
16234.2
16230.4
16226.9
16223.8
16221.1
16218.8
16216.8
16215.2
16213.9
16213
16212.1
16211.6
20016.1
20016.3
20016.9
20017.7
20018.8
20020.1
20021.7
20023.5
20025.5
20027.7
20030.1
20032.7
20035.4
20038.4
20041.5
20044.7
20048
20051.4
20054.9
20058.5
20062.1
20065.8
20069.4
20073.1
20076.7
20080.2
20083.7
20087
20090.2
20093.3
20096.2
20098.8
20101.3
20103.5
20105.4
20107
20108.2
20109.1
20109.6
20109.7
20109.4
20108.6
20107.4
20105.6
20103.3
20100.5
20097.1
20093.1
20088.5
20083.3
20077.5
20071
20063.9
20056.1
20047.6
20038.5
20028.7
20018.2
20007.1
19995.2
19982.7
19969.5
19955.6
19941
19925.8
19909.8
19893.2
19876
19858.1
19839.6
19820.5
19800.7
19780.4
19759.5
19738
19716
19693.5
19670.4
19646.9
19623
19598.6
19573.8
19548.5
19522.9
19497
19470.7
19444.1
19417.2
19390.1
19362.7
19335.1
19307.3
19279.3
19251.1
19222.8
19194.4
19165.9
19137.3
19108.6
19080
19051.3
19022.6
18993.9
18965.3
18936.7
18908.2
18879.8
18851.6
18823.5
18795.5
18767.8
18740.2
18712.9
18685.8
18659
18632.4
18606.2
18580.3
18554.8
18529.6
18504.9
18480.6
18456.7
18433.3
18410.5
18388.1
18366.3
18345.1
18324.4
18304.4
18285
18266.3
18248.2
18230.8
18214.2
18198.3
18183.1
18168.8
18155.2
18142.4
18130.4
18119.3
18109
18099.6
18091
18083.3
18076.5
18070.6
18065.6
18061.4
18058.2
18055.9
18054.5
18054
18054.4
18055.6
18057.8
18060.9
18064.9
18069.7
18075.5
18082
18089.5
18097.7
18106.8
18116.8
18127.5
18139
18151.3
18164.4
18178.2
18192.7
18207.9
18223.9
18240.5
18257.8
18275.7
18294.2
18313.3
18333.1
18353.3
18374.2
18395.5
18417.4
18439.7
18462.5
18485.7
18509.4
18533.4
18557.9
18582.7
18607.8
18633.3
18659.1
18685.1
18711.5
18738
18764.9
18791.9
18819.1
18846.5
18874.1
18901.8
18929.7
18957.7
18985.8
19014
19042.2
19070.5
19098.9
19127.3
19155.8
19184.3
19212.7
19241.2
19269.6
19298.1
19326.4
19354.8
19383.1
19411.3
19439.4
19467.5
19495.4
19523.3
19551.1
19578.7
19606.2
19633.5
19660.7
19687.8
19714.7
19741.4
19767.9
19794.2
19820.3
19846.2
19871.9
19897.3
19922.5
19947.4
19972
19996.4
20020.4
20044.2
20067.6
20090.8
20113.5
20136
20158
20179.7
20201
20221.9
20242.3
20262.4
20282
20301.1
20319.8
20338
20355.8
20373
20389.7
20405.9
20421.6
20436.7
20451.3
20465.4
20478.8
20491.7
20504
20515.7
20526.8
20537.3
20547.2
20556.5
20565.1
20573.1
20580.4
20587.1
20593.2
20598.6
20603.5
20607.7
20611.2
20614.1
20616.4
20618.1
20619.1
20619.5
20619.2
20618.4
20616.9
20614.8
20612.2
20608.9
20605
20600.6
20595.6
20590
20583.9
20577.2
20570
20562.2
20554
20545.2
20535.9
20526.2
20516
20505.3
20494.1
20482.5
20470.5
20458
20445.2
20431.9
20418.2
20404.1
20389.6
20374.7
20359.5
20343.9
20327.9
20311.6
20294.9
20277.9
20260.5
20242.8
20224.8
20206.4
20187.7
20168.6
20149.2
20129.5
20109.4
20089
20068.3
20047.2
20025.8
20004.1
19982
19959.5
19936.7
19913.5
19890
19866.1
19841.9
19817.3
19792.3
19766.9
19741.2
19715.1
19688.6
19661.7
19634.4
19606.7
19578.6
19550.1
19521.3
19492
19462.3
19432.3
19401.8
19370.9
19339.7
19308.1
19276.1
19243.7
19211
19177.8
19144.4
19110.5
19076.4
19041.8
19007
18971.8
18936.3
18900.5
18864.5
18828.1
18791.5
18754.6
18717.4
18680
18642.5
18604.7
18566.7
18528.5
18490.2
18451.7
18413.1
18374.4
18335.6
18296.7
18257.8
18218.8
18179.8
18140.7
18101.7
18062.7
18023.7
17984.7
17945.8
17907.1
17868.4
17829.8
17791.3
17753
17714.9
17676.9
17639.1
17601.5
17564.2
17527
17490.1
17453.5
17417.1
17381
17345.2
17309.7
17274.5
17239.6
17205
17170.8
17137
17103.5
17070.4
17037.6
17005.3
16973.3
16941.7
16910.6
16879.9
16849.5
16819.7
16790.2
16761.2
16732.6
16704.5
16676.8
16649.6
16622.9
16596.6
16570.8
16545.5
16520.6
16496.2
16472.3
16448.9
16426
16403.6
16381.6
16360.1
16339.2
16318.7
16298.7
16279.2
16260.2
16241.7
16223.7
16206.1
16189.1
16172.6
16156.5
16141
16125.9
16111.3
16097.2
16083.6
16070.5
16057.8
16045.7
16034
16022.8
16012
16001.7
15991.9
15982.6
15973.7
15965.2
15957.2
15949.7
15942.6
15935.9
15929.6
15923.8
15918.3
15913.3
15908.7
15904.5
15900.6
15897.2
15894.1
15891.4
15889.1
15887.1
15885.5
15884.2
15883.3
15882.5
15881.9
19685.8
19686
19686.6
19687.5
19688.6
19689.9
19691.5
19693.3
19695.4
19697.6
19700.1
19702.7
19705.6
19708.5
19711.7
19715
19718.4
19721.9
19725.4
19729.1
19732.8
19736.5
19740.3
19744
19747.7
19751.3
19754.9
19758.3
19761.6
19764.8
19767.7
19770.5
19773.1
19775.3
19777.3
19779
19780.4
19781.4
19782
19782.2
19782
19781.3
19780.1
19778.5
19776.3
19773.5
19770.2
19766.3
19761.8
19756.7
19751
19744.5
19737.5
19729.8
19721.4
19712.3
19702.5
19692.1
19681
19669.2
19656.6
19643.4
19629.6
19615
19599.7
19583.8
19567.2
19550
19532.1
19513.5
19494.3
19474.6
19454.2
19433.3
19411.8
19389.7
19367.2
19344.1
19320.6
19296.5
19272.1
19247.2
19221.9
19196.3
19170.3
19144
19117.3
19090.4
19063.2
19035.7
19008.1
18980.2
18952.1
18923.9
18895.6
18867.1
18838.5
18809.9
18781.1
18752.4
18723.6
18694.9
18666.1
18637.5
18608.8
18580.3
18551.8
18523.5
18495.3
18467.3
18439.4
18411.8
18384.4
18357.2
18330.3
18303.7
18277.4
18251.4
18225.8
18200.5
18175.7
18151.3
18127.3
18103.9
18080.9
18058.4
18036.5
18015.2
17994.4
17974.3
17954.8
17936
17917.8
17900.3
17883.6
17867.6
17852.4
17837.9
17824.2
17811.3
17799.3
17788.1
17777.7
17768.2
17759.6
17751.8
17744.9
17739
17733.9
17729.7
17726.4
17724.1
17722.6
17722.1
17722.5
17723.7
17725.9
17729
17732.9
17737.8
17743.5
17750.1
17757.5
17765.8
17774.9
17784.9
17795.7
17807.2
17819.5
17832.6
17846.5
17861.1
17876.4
17892.4
17909.1
17926.4
17944.4
17963
17982.2
18002
18022.4
18043.3
18064.8
18086.7
18109.2
18132.1
18155.4
18179.2
18203.3
18227.9
18252.8
18278.1
18303.6
18329.5
18355.7
18382.2
18408.9
18435.8
18462.9
18490.3
18517.8
18545.5
18573.3
18601.3
18629.4
18657.6
18685.9
18714.2
18742.7
18771.2
18799.7
18828.2
18856.8
18885.3
18913.9
18942.4
18970.9
18999.4
19027.8
19056.1
19084.4
19112.6
19140.8
19168.8
19196.7
19224.5
19252.2
19279.8
19307.2