/*--------------------------------*- C++ -*----------------------------------*\
| =========                 |                                                 |
| \\      /  F ield         | OpenFOAM: The Open Source CFD Toolbox           |
|  \\    /   O peration     | Version:  v2006                                 |
|   \\  /    A nd           | Website:  www.openfoam.com                      |
|    \\/     M anipulation  |                                                 |
\*---------------------------------------------------------------------------*/
FoamFile
{
    version     2.0;
    format      ascii;
    class       volScalarField;
    location    "12.5";
    object      p_rgh;
}
// * * * * * * * * * * * * * * * * * * * * * * * * * * * * * * * * * * * * * //

dimensions      [1 -1 -2 0 0 0 0];


internalField   nonuniform List<scalar> 
50000
(
3166.37
3166.28
3166.09
3165.8
3165.42
3164.94
3164.38
3163.72
3162.97
3162.14
3161.22
3160.21
3159.11
3157.93
3156.67
3155.33
3153.91
3152.4
3150.82
3149.16
3147.42
3145.6
3143.71
3141.74
3139.69
3137.57
3135.37
3133.1
3130.75
3128.33
3125.84
3123.27
3120.61
3117.88
3115.07
3112.18
3109.22
3106.17
3103.05
3099.84
3096.56
3093.19
3089.74
3086.2
3082.58
3078.88
3075.08
3071.2
3067.24
3063.19
3059.05
3054.82
3050.5
3046.1
3041.61
3037.03
3032.36
3027.61
3022.77
3017.85
3012.85
3007.76
3002.58
2997.33
2992
2986.59
2981.1
2975.55
2969.92
2964.22
2958.46
2952.64
2946.75
2940.81
2934.82
2928.78
2922.69
2916.56
2910.39
2904.19
2897.96
2891.71
2885.44
2879.15
2872.85
2866.55
2860.25
2853.95
2847.67
2841.4
2835.15
2828.93
2822.73
2816.58
2810.47
2804.4
2798.38
2792.43
2786.53
2780.7
2774.94
2769.26
2763.66
2758.14
2752.7
2747.36
2742.12
2736.97
2731.93
2727
2722.18
2717.48
2712.89
2708.43
2704.1
2699.89
2695.81
2691.86
2688.03
2684.33
2680.76
2677.32
2674.02
2670.84
2667.79
2664.88
2662.09
2659.43
2656.9
2654.5
2652.22
2650.07
2648.05
2646.14
2644.36
2642.7
2641.16
2639.74
2638.43
2637.23
2636.15
2635.19
2634.33
2633.59
2632.95
2632.42
2632
2631.69
2631.47
2631.36
3166.51
3166.42
3166.23
3165.95
3165.56
3165.09
3164.52
3163.86
3163.12
3162.28
3161.36
3160.35
3159.25
3158.08
3156.81
3155.47
3154.05
3152.55
3150.96
3149.3
3147.56
3145.75
3143.86
3141.89
3139.84
3137.72
3135.52
3133.25
3130.9
3128.48
3125.97
3123.38
3120.73
3118
3115.2
3112.31
3109.35
3106.31
3103.19
3099.98
3096.7
3093.33
3089.88
3086.35
3082.73
3079.03
3075.24
3071.36
3067.39
3063.34
3059.2
3054.97
3050.65
3046.25
3041.76
3037.18
3032.51
3027.76
3022.92
3018
3012.99
3007.89
3002.72
2997.46
2992.13
2986.71
2981.23
2975.66
2970.03
2964.33
2958.56
2952.73
2946.84
2940.89
2934.89
2928.84
2922.75
2916.61
2910.44
2904.23
2897.99
2891.73
2885.45
2879.15
2872.85
2866.54
2860.23
2853.92
2847.63
2841.35
2835.09
2828.86
2822.66
2816.49
2810.37
2804.3
2798.28
2792.31
2786.41
2780.56
2774.79
2769.09
2763.47
2757.94
2752.49
2747.14
2741.88
2736.72
2731.65
2726.74
2721.93
2717.24
2712.67
2708.21
2703.88
2699.67
2695.58
2691.62
2687.79
2684.09
2680.51
2677.07
2673.76
2670.58
2667.53
2664.62
2661.83
2659.17
2656.64
2654.24
2651.96
2649.81
2647.78
2645.88
2644.1
2642.44
2640.89
2639.47
2638.16
2636.97
2635.89
2634.92
2634.06
2633.32
2632.68
2632.15
2631.73
2631.42
2631.21
2631.1
3166.82
3166.73
3166.54
3166.25
3165.87
3165.39
3164.82
3164.16
3163.41
3162.57
3161.65
3160.64
3159.54
3158.36
3157.1
3155.76
3154.33
3152.83
3151.25
3149.59
3147.85
3146.04
3144.14
3142.18
3140.13
3138.02
3135.82
3133.55
3131.2
3128.78
3126.28
3123.71
3121.06
3118.33
3115.53
3112.64
3109.68
3106.63
3103.51
3100.3
3097.02
3093.65
3090.2
3086.66
3083.04
3079.33
3075.54
3071.66
3067.7
3063.64
3059.5
3055.27
3050.95
3046.55
3042.05
3037.47
3032.8
3028.04
3023.2
3018.27
3013.26
3008.16
3002.98
2997.71
2992.37
2986.95
2981.45
2975.88
2970.24
2964.53
2958.75
2952.91
2947
2941.04
2935.03
2928.97
2922.86
2916.71
2910.52
2904.29
2898.04
2891.76
2885.46
2879.15
2872.83
2866.5
2860.17
2853.85
2847.54
2841.24
2834.96
2828.71
2822.49
2816.31
2810.17
2804.07
2798.03
2792.05
2786.13
2780.27
2774.49
2768.78
2763.15
2757.61
2752.15
2746.8
2741.54
2736.4
2731.37
2726.4
2721.56
2716.84
2712.25
2707.77
2703.42
2699.2
2695.11
2691.14
2687.3
2683.59
2680.01
2676.57
2673.25
2670.07
2667.02
2664.1
2661.31
2658.65
2656.12
2653.72
2651.45
2649.3
2647.27
2645.37
2643.59
2641.93
2640.39
2638.97
2637.66
2636.47
2635.39
2634.43
2633.58
2632.83
2632.2
2631.67
2631.25
2630.94
2630.73
2630.62
3167.28
3167.19
3167
3166.71
3166.32
3165.84
3165.27
3164.61
3163.86
3163.02
3162.09
3161.07
3159.98
3158.79
3157.53
3156.19
3154.76
3153.26
3151.67
3150.01
3148.27
3146.46
3144.57
3142.6
3140.56
3138.44
3136.25
3133.98
3131.64
3129.22
3126.72
3124.15
3121.5
3118.78
3115.98
3113.09
3110.13
3107.09
3103.97
3100.76
3097.48
3094.11
3090.66
3087.12
3083.5
3079.8
3076
3072.12
3068.15
3064.1
3059.96
3055.72
3051.4
3046.99
3042.49
3037.91
3033.23
3028.47
3023.62
3018.68
3013.66
3008.55
3003.36
2998.09
2992.73
2987.3
2981.79
2976.2
2970.55
2964.82
2959.02
2953.17
2947.25
2941.27
2935.23
2929.15
2923.02
2916.85
2910.64
2904.39
2898.11
2891.81
2885.49
2879.15
2872.8
2866.45
2860.09
2853.74
2847.41
2841.08
2834.78
2828.5
2822.25
2816.04
2809.87
2803.75
2797.69
2791.67
2785.73
2779.84
2774.04
2768.3
2762.65
2757.09
2751.61
2746.24
2740.96
2735.78
2730.7
2725.74
2720.9
2716.17
2711.56
2707.07
2702.71
2698.47
2694.36
2690.39
2686.54
2682.82
2679.24
2675.79
2672.47
2669.28
2666.23
2663.31
2660.52
2657.86
2655.34
2652.94
2650.66
2648.52
2646.5
2644.6
2642.83
2641.18
2639.64
2638.22
2636.92
2635.74
2634.67
2633.71
2632.86
2632.12
2631.49
2630.96
2630.55
2630.24
2630.03
2629.91
3167.89
3167.8
3167.61
3167.32
3166.93
3166.45
3165.87
3165.2
3164.45
3163.6
3162.67
3161.65
3160.55
3159.37
3158.1
3156.75
3155.32
3153.82
3152.23
3150.57
3148.84
3147.02
3145.13
3143.17
3141.13
3139.01
3136.82
3134.56
3132.22
3129.8
3127.31
3124.75
3122.1
3119.38
3116.57
3113.69
3110.74
3107.7
3104.58
3101.38
3098.09
3094.73
3091.28
3087.74
3084.12
3080.41
3076.62
3072.74
3068.77
3064.71
3060.57
3056.33
3052.01
3047.59
3043.09
3038.49
3033.81
3029.04
3024.18
3019.23
3014.2
3009.08
3003.88
2998.59
2993.22
2987.77
2982.24
2976.64
2970.96
2965.21
2959.4
2953.51
2947.57
2941.57
2935.51
2929.4
2923.24
2917.04
2910.8
2904.52
2898.21
2891.88
2885.52
2879.15
2872.77
2866.38
2859.99
2853.61
2847.23
2840.87
2834.53
2828.22
2821.93
2815.69
2809.48
2803.33
2797.22
2791.18
2785.19
2779.28
2773.44
2767.67
2761.99
2756.39
2750.89
2745.49
2740.19
2735.01
2729.89
2724.9
2720.03
2715.27
2710.64
2706.14
2701.75
2697.5
2693.38
2689.39
2685.53
2681.8
2678.21
2674.75
2671.42
2668.23
2665.18
2662.25
2659.46
2656.81
2654.28
2651.88
2649.62
2647.48
2645.46
2643.57
2641.81
2640.16
2638.64
2637.23
2635.94
2634.76
2633.7
2632.74
2631.9
2631.17
2630.54
2630.03
2629.61
2629.31
2629.1
2628.98
3168.65
3168.57
3168.38
3168.08
3167.69
3167.2
3166.62
3165.94
3165.18
3164.33
3163.4
3162.37
3161.27
3160.08
3158.81
3157.46
3156.03
3154.52
3152.93
3151.27
3149.54
3147.72
3145.83
3143.87
3141.83
3139.72
3137.54
3135.27
3132.94
3130.53
3128.04
3125.47
3122.83
3120.11
3117.32
3114.44
3111.49
3108.45
3105.34
3102.14
3098.86
3095.49
3092.04
3088.51
3084.89
3081.18
3077.39
3073.51
3069.54
3065.48
3061.33
3057.09
3052.76
3048.34
3043.83
3039.23
3034.54
3029.76
3024.89
3019.93
3014.88
3009.74
3004.52
2999.22
2993.83
2988.36
2982.81
2977.18
2971.48
2965.71
2959.86
2953.95
2947.98
2941.94
2935.85
2929.71
2923.51
2917.28
2911
2904.68
2898.34
2891.96
2885.57
2879.16
2872.73
2866.3
2859.87
2853.44
2847.02
2840.61
2834.23
2827.87
2821.54
2815.25
2809
2802.79
2796.64
2790.55
2784.53
2778.57
2772.68
2766.88
2761.16
2755.52
2749.98
2744.53
2739.18
2733.92
2728.82
2723.81
2718.91
2714.14
2709.48
2704.95
2700.55
2696.28
2692.13
2688.12
2684.25
2680.51
2676.91
2673.44
2670.11
2666.91
2663.85
2660.93
2658.14
2655.48
2652.96
2650.57
2648.31
2646.17
2644.17
2642.29
2640.53
2638.89
2637.38
2635.98
2634.7
2633.53
2632.48
2631.53
2630.7
2629.97
2629.36
2628.85
2628.44
2628.14
2627.93
2627.81
3169.57
3169.48
3169.29
3168.99
3168.59
3168.1
3167.51
3166.83
3166.06
3165.21
3164.26
3163.23
3162.12
3160.93
3159.65
3158.3
3156.87
3155.36
3153.77
3152.11
3150.37
3148.56
3146.67
3144.71
3142.68
3140.57
3138.39
3136.13
3133.8
3131.39
3128.91
3126.35
3123.72
3121
3118.21
3115.34
3112.39
3109.36
3106.25
3103.05
3099.78
3096.41
3092.97
3089.44
3085.82
3082.11
3078.32
3074.44
3070.46
3066.4
3062.25
3058
3053.67
3049.24
3044.72
3040.11
3035.41
3030.62
3025.74
3020.76
3015.7
3010.54
3005.3
2999.98
2994.56
2989.07
2983.49
2977.84
2972.11
2966.3
2960.42
2954.48
2948.47
2942.4
2936.27
2930.08
2923.85
2917.57
2911.24
2904.88
2898.49
2892.07
2885.62
2879.16
2872.68
2866.2
2859.71
2853.23
2846.76
2840.3
2833.86
2827.44
2821.06
2814.71
2808.41
2802.15
2795.95
2789.8
2783.73
2777.72
2771.78
2765.92
2760.15
2754.47
2748.88
2743.39
2738.01
2732.73
2727.56
2722.51
2717.58
2712.77
2708.08
2703.53
2699.1
2694.8
2690.63
2686.61
2682.71
2678.96
2675.34
2671.86
2668.52
2665.32
2662.26
2659.33
2656.55
2653.89
2651.37
2648.99
2646.73
2644.61
2642.61
2640.74
2638.99
2637.37
2635.86
2634.48
2633.21
2632.05
2631.01
2630.08
2629.25
2628.54
2627.93
2627.42
2627.02
2626.72
2626.52
2626.41
3170.63
3170.55
3170.35
3170.05
3169.65
3169.14
3168.55
3167.86
3167.08
3166.22
3165.27
3164.23
3163.11
3161.91
3160.63
3159.28
3157.84
3156.33
3154.74
3153.08
3151.34
3149.53
3147.65
3145.69
3143.66
3141.55
3139.38
3137.12
3134.8
3132.4
3129.92
3127.37
3124.74
3122.03
3119.25
3116.38
3113.44
3110.42
3107.31
3104.12
3100.85
3097.49
3094.05
3090.52
3086.9
3083.2
3079.4
3075.52
3071.55
3067.48
3063.32
3059.08
3054.73
3050.3
3045.77
3041.15
3036.44
3031.63
3026.73
3021.74
3016.66
3011.48
3006.22
3000.87
2995.43
2989.9
2984.3
2978.61
2972.84
2967
2961.09
2955.1
2949.05
2942.93
2936.76
2930.52
2924.24
2917.91
2911.53
2905.12
2898.67
2892.19
2885.69
2879.16
2872.63
2866.08
2859.54
2852.99
2846.45
2839.93
2833.43
2826.95
2820.5
2814.09
2807.72
2801.4
2795.13
2788.93
2782.78
2776.71
2770.72
2764.8
2758.97
2753.24
2747.6
2742.05
2736.62
2731.29
2726.08
2720.98
2716.01
2711.16
2706.44
2701.84
2697.38
2693.06
2688.87
2684.82
2680.91
2677.13
2673.5
2670.01
2666.67
2663.46
2660.39
2657.47
2654.68
2652.03
2649.52
2647.14
2644.89
2642.78
2640.79
2638.93
2637.2
2635.59
2634.1
2632.72
2631.47
2630.33
2629.3
2628.38
2627.56
2626.86
2626.26
2625.76
2625.36
2625.07
2624.87
2624.76
3171.84
3171.76
3171.56
3171.26
3170.84
3170.33
3169.73
3169.03
3168.24
3167.37
3166.41
3165.37
3164.24
3163.03
3161.75
3160.38
3158.94
3157.43
3155.84
3154.18
3152.44
3150.63
3148.75
3146.8
3144.77
3142.67
3140.5
3138.25
3135.94
3133.54
3131.07
3128.53
3125.91
3123.21
3120.43
3117.57
3114.64
3111.62
3108.52
3105.34
3102.07
3098.72
3095.28
3091.75
3088.14
3084.44
3080.64
3076.76
3072.79
3068.72
3064.56
3060.3
3055.96
3051.51
3046.98
3042.34
3037.61
3032.79
3027.88
3022.86
3017.76
3012.56
3007.27
3001.89
2996.42
2990.86
2985.22
2979.5
2973.69
2967.81
2961.85
2955.82
2949.72
2943.55
2937.32
2931.03
2924.69
2918.3
2911.86
2905.39
2898.87
2892.33
2885.76
2879.17
2872.57
2865.95
2859.33
2852.71
2846.1
2839.51
2832.93
2826.38
2819.86
2813.37
2806.93
2800.53
2794.2
2787.92
2781.7
2775.56
2769.5
2763.51
2757.62
2751.82
2746.11
2740.51
2735.02
2729.63
2724.37
2719.22
2714.2
2709.3
2704.54
2699.91
2695.41
2691.05
2686.83
2682.76
2678.82
2675.03
2671.39
2667.88
2664.53
2661.32
2658.25
2655.32
2652.54
2649.89
2647.38
2645.01
2642.78
2640.68
2638.71
2636.86
2635.14
2633.55
2632.07
2630.72
2629.48
2628.35
2627.34
2626.43
2625.63
2624.94
2624.35
2623.86
2623.47
2623.18
2622.99
2622.88
3173.19
3173.11
3172.92
3172.61
3172.19
3171.66
3171.05
3170.34
3169.54
3168.65
3167.68
3166.63
3165.49
3164.28
3162.99
3161.62
3160.17
3158.65
3157.06
3155.4
3153.67
3151.86
3149.98
3148.03
3146.01
3143.92
3141.76
3139.52
3137.21
3134.82
3132.36
3129.83
3127.22
3124.53
3121.76
3118.91
3115.98
3112.97
3109.88
3106.7
3103.44
3100.1
3096.67
3093.14
3089.53
3085.83
3082.04
3078.16
3074.18
3070.11
3065.95
3061.69
3057.34
3052.88
3048.33
3043.69
3038.95
3034.11
3029.17
3024.14
3019.01
3013.78
3008.46
3003.05
2997.55
2991.95
2986.27
2980.51
2974.66
2968.72
2962.71
2956.63
2950.47
2944.25
2937.96
2931.61
2925.21
2918.75
2912.24
2905.7
2899.11
2892.49
2885.85
2879.18
2872.5
2865.8
2859.1
2852.4
2845.71
2839.03
2832.37
2825.73
2819.13
2812.56
2806.03
2799.55
2793.13
2786.77
2780.47
2774.25
2768.11
2762.05
2756.08
2750.2
2744.42
2738.75
2733.19
2727.74
2722.42
2717.21
2712.14
2707.19
2702.38
2697.7
2693.16
2688.77
2684.52
2680.41
2676.45
2672.64
2668.98
2665.47
2662.1
2658.88
2655.81
2652.89
2650.1
2647.47
2644.97
2642.61
2640.39
2638.3
2636.35
2634.52
2632.82
2631.25
2629.79
2628.46
2627.24
2626.13
2625.13
2624.24
2623.46
2622.78
2622.2
2621.72
2621.34
2621.06
2620.87
2620.76
3174.69
3174.61
3174.42
3174.1
3173.67
3173.13
3172.5
3171.78
3170.97
3170.07
3169.09
3168.02
3166.87
3165.65
3164.35
3162.97
3161.52
3160
3158.41
3156.75
3155.01
3153.21
3151.34
3149.4
3147.38
3145.3
3143.14
3140.91
3138.61
3136.24
3133.79
3131.26
3128.66
3125.98
3123.23
3120.39
3117.47
3114.47
3111.39
3108.22
3104.97
3101.63
3098.21
3094.69
3091.08
3087.39
3083.6
3079.72
3075.74
3071.67
3067.5
3063.24
3058.87
3054.41
3049.85
3045.19
3040.43
3035.58
3030.62
3025.56
3020.41
3015.15
3009.8
3004.36
2998.81
2993.17
2987.45
2981.64
2975.74
2969.75
2963.69
2957.54
2951.33
2945.04
2938.68
2932.26
2925.78
2919.25
2912.67
2906.05
2899.38
2892.68
2885.95
2879.19
2872.42
2865.64
2858.85
2852.06
2845.27
2838.5
2831.75
2825.01
2818.31
2811.65
2805.03
2798.46
2791.94
2785.49
2779.1
2772.78
2766.55
2760.4
2754.35
2748.39
2742.53
2736.78
2731.14
2725.62
2720.23
2714.96
2709.82
2704.81
2699.94
2695.22
2690.64
2686.2
2681.91
2677.78
2673.79
2669.96
2666.28
2662.75
2659.37
2656.15
2653.08
2650.16
2647.38
2644.75
2642.27
2639.92
2637.72
2635.65
2633.72
2631.91
2630.24
2628.68
2627.25
2625.94
2624.74
2623.66
2622.68
2621.81
2621.04
2620.38
2619.82
2619.35
2618.98
2618.71
2618.52
2618.42
3176.32
3176.24
3176.05
3175.74
3175.29
3174.74
3174.09
3173.35
3172.52
3171.61
3170.61
3169.53
3168.37
3167.14
3165.83
3164.44
3162.99
3161.47
3159.87
3158.21
3156.48
3154.68
3152.81
3150.88
3148.87
3146.8
3144.65
3142.44
3140.15
3137.79
3135.35
3132.84
3130.25
3127.58
3124.84
3122.01
3119.11
3116.12
3113.05
3109.89
3106.65
3103.32
3099.9
3096.39
3092.79
3089.1
3085.32
3081.44
3077.46
3073.39
3069.21
3064.94
3060.57
3056.1
3051.53
3046.86
3042.08
3037.2
3032.22
3027.14
3021.95
3016.67
3011.28
3005.8
3000.21
2994.53
2988.76
2982.89
2976.94
2970.89
2964.77
2958.56
2952.27
2945.91
2939.48
2932.99
2926.43
2919.82
2913.15
2906.44
2899.68
2892.89
2886.06
2879.21
2872.34
2865.46
2858.57
2851.68
2844.79
2837.91
2831.05
2824.22
2817.41
2810.64
2803.91
2797.24
2790.62
2784.06
2777.57
2771.15
2764.82
2758.57
2752.42
2746.37
2740.42
2734.58
2728.86
2723.26
2717.78
2712.44
2707.23
2702.16
2697.23
2692.45
2687.82
2683.34
2679.01
2674.84
2670.83
2666.97
2663.27
2659.73
2656.34
2653.11
2650.04
2647.12
2644.36
2641.74
2639.27
2636.94
2634.76
2632.71
2630.8
2629.03
2627.38
2625.85
2624.45
2623.16
2621.99
2620.93
2619.98
2619.13
2618.39
2617.75
2617.2
2616.75
2616.39
2616.13
2615.95
2615.84
3178.07
3178
3177.82
3177.5
3177.05
3176.48
3175.81
3175.05
3174.2
3173.27
3172.25
3171.16
3169.98
3168.74
3167.42
3166.03
3164.57
3163.04
3161.44
3159.78
3158.06
3156.27
3154.41
3152.48
3150.48
3148.42
3146.29
3144.08
3141.81
3139.46
3137.04
3134.54
3131.97
3129.32
3126.59
3123.77
3120.88
3117.91
3114.85
3111.71
3108.47
3105.16
3101.75
3098.25
3094.66
3090.97
3087.19
3083.31
3079.34
3075.26
3071.09
3066.82
3062.44
3057.96
3053.37
3048.68
3043.89
3038.99
3033.98
3028.87
3023.66
3018.34
3012.91
3007.39
3001.76
2996.03
2990.2
2984.28
2978.26
2972.16
2965.96
2959.68
2953.32
2946.88
2940.37
2933.79
2927.14
2920.44
2913.68
2906.87
2900.01
2893.12
2886.19
2879.24
2872.26
2865.27
2858.26
2851.26
2844.26
2837.27
2830.29
2823.34
2816.42
2809.53
2802.69
2795.89
2789.16
2782.48
2775.88
2769.35
2762.91
2756.55
2750.29
2744.13
2738.08
2732.15
2726.33
2720.64
2715.08
2709.65
2704.37
2699.22
2694.23
2689.39
2684.7
2680.17
2675.8
2671.59
2667.54
2663.66
2659.94
2656.38
2652.99
2649.76
2646.69
2643.78
2641.02
2638.42
2635.97
2633.66
2631.51
2629.49
2627.61
2625.86
2624.24
2622.75
2621.38
2620.13
2618.99
2617.96
2617.04
2616.22
2615.5
2614.88
2614.35
2613.92
2613.58
2613.32
2613.15
2613.04
3179.95
3179.89
3179.71
3179.39
3178.93
3178.34
3177.65
3176.87
3176
3175.04
3174.01
3172.89
3171.7
3170.44
3169.11
3167.71
3166.24
3164.71
3163.12
3161.46
3159.74
3157.96
3156.11
3154.19
3152.21
3150.16
3148.04
3145.85
3143.6
3141.26
3138.86
3136.38
3133.82
3131.19
3128.47
3125.68
3122.8
3119.84
3116.8
3113.67
3110.45
3107.15
3103.75
3100.26
3096.68
3093
3089.22
3085.35
3081.38
3077.31
3073.13
3068.85
3064.47
3059.98
3055.38
3050.68
3045.86
3040.94
3035.91
3030.77
3025.52
3020.16
3014.7
3009.13
3003.45
2997.67
2991.78
2985.8
2979.72
2973.54
2967.27
2960.91
2954.47
2947.95
2941.35
2934.67
2927.93
2921.12
2914.26
2907.35
2900.38
2893.38
2886.34
2879.26
2872.17
2865.06
2857.93
2850.8
2843.68
2836.56
2829.46
2822.38
2815.33
2808.31
2801.34
2794.42
2787.56
2780.76
2774.03
2767.37
2760.81
2754.33
2747.95
2741.68
2735.52
2729.47
2723.55
2717.76
2712.1
2706.59
2701.21
2695.99
2690.93
2686.02
2681.27
2676.68
2672.26
2668.01
2663.93
2660.02
2656.28
2652.71
2649.31
2646.08
2643.01
2640.11
2637.36
2634.78
2632.35
2630.08
2627.95
2625.97
2624.12
2622.41
2620.83
2619.38
2618.04
2616.83
2615.73
2614.73
2613.84
2613.06
2612.37
2611.77
2611.27
2610.86
2610.53
2610.29
2610.12
2610.02
3181.93
3181.87
3181.71
3181.4
3180.93
3180.32
3179.6
3178.79
3177.9
3176.92
3175.86
3174.72
3173.51
3172.24
3170.89
3169.48
3168.01
3166.48
3164.89
3163.24
3161.52
3159.75
3157.91
3156.01
3154.04
3152.01
3149.91
3147.74
3145.5
3143.19
3140.8
3138.34
3135.8
3133.19
3130.49
3127.72
3124.86
3121.92
3118.89
3115.78
3112.58
3109.28
3105.9
3102.42
3098.85
3095.18
3091.42
3087.55
3083.58
3079.51
3075.34
3071.05
3066.66
3062.17
3057.56
3052.84
3048
3043.06
3038
3032.83
3027.55
3022.15
3016.64
3011.02
3005.29
2999.45
2993.51
2987.45
2981.3
2975.05
2968.7
2962.26
2955.73
2949.11
2942.41
2935.64
2928.79
2921.88
2914.9
2907.87
2900.79
2893.66
2886.49
2879.3
2872.07
2864.83
2857.57
2850.31
2843.05
2835.79
2828.55
2821.34
2814.14
2806.99
2799.88
2792.82
2785.81
2778.87
2772
2765.22
2758.51
2751.91
2745.4
2739
2732.71
2726.55
2720.51
2714.61
2708.84
2703.23
2697.76
2692.45
2687.3
2682.32
2677.5
2672.86
2668.39
2664.09
2659.97
2656.04
2652.27
2648.69
2645.28
2642.05
2638.99
2636.1
2633.38
2630.82
2628.42
2626.18
2624.08
2622.14
2620.33
2618.67
2617.13
2615.72
2614.44
2613.27
2612.21
2611.26
2610.41
2609.66
2609
2608.44
2607.96
2607.58
2607.27
2607.04
2606.88
2606.79
3183.98
3183.94
3183.8
3183.51
3183.04
3182.41
3181.67
3180.83
3179.9
3178.89
3177.8
3176.64
3175.41
3174.11
3172.76
3171.34
3169.86
3168.33
3166.74
3165.1
3163.4
3161.63
3159.81
3157.93
3155.98
3153.97
3151.89
3149.74
3147.52
3145.23
3142.87
3140.43
3137.92
3135.32
3132.65
3129.9
3127.06
3124.14
3121.13
3118.03
3114.85
3111.57
3108.21
3104.74
3101.19
3097.53
3093.77
3089.91
3085.95
3081.88
3077.71
3073.43
3069.03
3064.52
3059.9
3055.17
3050.32
3045.35
3040.27
3035.06
3029.74
3024.31
3018.75
3013.08
3007.29
3001.39
2995.38
2989.25
2983.02
2976.69
2970.25
2963.72
2957.09
2950.37
2943.57
2936.69
2929.73
2922.69
2915.6
2908.44
2901.23
2893.97
2886.67
2879.34
2871.97
2864.59
2857.19
2849.78
2842.37
2834.96
2827.57
2820.2
2812.86
2805.55
2798.29
2791.07
2783.92
2776.83
2769.81
2762.87
2756.02
2749.27
2742.61
2736.07
2729.65
2723.35
2717.19
2711.17
2705.29
2699.56
2693.99
2688.58
2683.34
2678.28
2673.39
2668.68
2664.15
2659.81
2655.66
2651.69
2647.9
2644.31
2640.89
2637.66
2634.61
2631.74
2629.04
2626.51
2624.15
2621.95
2619.9
2618
2616.24
2614.63
2613.15
2611.79
2610.56
2609.44
2608.43
2607.53
2606.73
2606.02
2605.41
2604.88
2604.43
2604.07
2603.79
2603.58
2603.43
2603.33
3186.09
3186.07
3185.96
3185.7
3185.24
3184.61
3183.83
3182.95
3181.99
3180.95
3179.83
3178.64
3177.38
3176.06
3174.69
3173.26
3171.78
3170.25
3168.67
3167.04
3165.35
3163.61
3161.81
3159.94
3158.02
3156.03
3153.98
3151.85
3149.66
3147.4
3145.06
3142.65
3140.16
3137.59
3134.94
3132.21
3129.39
3126.49
3123.51
3120.43
3117.27
3114.01
3110.66
3107.22
3103.67
3100.03
3096.29
3092.44
3088.49
3084.42
3080.25
3075.97
3071.57
3067.06
3062.43
3057.68
3052.81
3047.82
3042.7
3037.47
3032.11
3026.63
3021.03
3015.3
3009.45
3003.48
2997.4
2991.2
2984.89
2978.47
2971.94
2965.3
2958.57
2951.75
2944.83
2937.82
2930.74
2923.58
2916.35
2909.06
2901.71
2894.31
2886.87
2879.38
2871.87
2864.33
2856.77
2849.2
2841.63
2834.07
2826.52
2818.98
2811.47
2804
2796.57
2789.19
2781.87
2774.61
2767.43
2760.33
2753.32
2746.4
2739.6
2732.9
2726.33
2719.89
2713.58
2707.42
2701.42
2695.57
2689.88
2684.37
2679.04
2673.88
2668.91
2664.13
2659.55
2655.15
2650.96
2646.95
2643.15
2639.54
2636.13
2632.9
2629.87
2627.02
2624.35
2621.86
2619.54
2617.38
2615.38
2613.54
2611.84
2610.29
2608.87
2607.57
2606.4
2605.34
2604.4
2603.55
2602.8
2602.15
2601.58
2601.09
2600.69
2600.35
2600.1
2599.91
2599.77
2599.68
3188.23
3188.22
3188.15
3187.94
3187.51
3186.88
3186.08
3185.17
3184.16
3183.07
3181.92
3180.69
3179.4
3178.06
3176.67
3175.24
3173.76
3172.24
3170.67
3169.05
3167.38
3165.66
3163.88
3162.05
3160.15
3158.19
3156.17
3154.07
3151.91
3149.68
3147.37
3144.98
3142.52
3139.98
3137.35
3134.65
3131.86
3128.98
3126.02
3122.97
3119.83
3116.6
3113.27
3109.84
3106.32
3102.69
3098.96
3095.13
3091.19
3087.13
3082.96
3078.68
3074.28
3069.77
3065.13
3060.36
3055.48
3050.46
3045.32
3040.05
3034.65
3029.13
3023.47
3017.69
3011.78
3005.74
2999.58
2993.3
2986.9
2980.38
2973.75
2967.02
2960.17
2953.23
2946.19
2939.05
2931.84
2924.54
2917.17
2909.73
2902.23
2894.68
2887.08
2879.43
2871.75
2864.05
2856.32
2848.59
2840.85
2833.11
2825.38
2817.67
2809.98
2802.33
2794.72
2787.16
2779.66
2772.22
2764.86
2757.58
2750.4
2743.31
2736.33
2729.47
2722.74
2716.13
2709.68
2703.37
2697.22
2691.24
2685.43
2679.8
2674.36
2669.1
2664.05
2659.19
2654.54
2650.09
2645.85
2641.82
2637.99
2634.38
2630.96
2627.75
2624.73
2621.91
2619.28
2616.83
2614.56
2612.46
2610.53
2608.75
2607.12
2605.64
2604.29
2603.07
2601.97
2600.98
2600.1
2599.32
2598.64
2598.04
2597.52
2597.09
2596.72
2596.43
2596.2
2596.03
2595.91
2595.82
3190.33
3190.35
3190.35
3190.21
3189.84
3189.22
3188.41
3187.45
3186.4
3185.26
3184.05
3182.78
3181.46
3180.1
3178.69
3177.25
3175.77
3174.26
3172.71
3171.11
3169.47
3167.78
3166.04
3164.24
3162.37
3160.45
3158.46
3156.4
3154.27
3152.07
3149.79
3147.43
3145
3142.49
3139.9
3137.22
3134.46
3131.61
3128.68
3125.65
3122.54
3119.33
3116.02
3112.62
3109.12
3105.51
3101.8
3097.98
3094.05
3090.01
3085.85
3081.57
3077.17
3072.65
3068.01
3063.23
3058.33
3053.29
3048.12
3042.82
3037.38
3031.81
3026.1
3020.26
3014.28
3008.17
3001.93
2995.56
2989.07
2982.45
2975.71
2968.86
2961.89
2954.82
2947.65
2940.38
2933.02
2925.57
2918.05
2910.45
2902.79
2895.07
2887.3
2879.49
2871.63
2863.75
2855.84
2847.92
2840
2832.07
2824.15
2816.25
2808.38
2800.53
2792.73
2784.98
2777.28
2769.65
2762.1
2754.63
2747.25
2739.97
2732.81
2725.77
2718.85
2712.08
2705.45
2698.98
2692.68
2686.55
2680.6
2674.84
2669.28
2663.92
2658.77
2653.83
2649.11
2644.61
2640.32
2636.26
2632.41
2628.78
2625.37
2622.18
2619.19
2616.4
2613.82
2611.42
2609.21
2607.18
2605.32
2603.61
2602.07
2600.66
2599.4
2598.26
2597.25
2596.34
2595.54
2594.84
2594.23
2593.7
2593.25
2592.86
2592.55
2592.3
2592.1
2591.96
2591.85
2591.77
3192.3
3192.37
3192.47
3192.43
3192.13
3191.58
3190.78
3189.8
3188.69
3187.48
3186.21
3184.89
3183.53
3182.14
3180.72
3179.28
3177.81
3176.32
3174.79
3173.23
3171.62
3169.97
3168.27
3166.51
3164.68
3162.8
3160.85
3158.83
3156.73
3154.57
3152.32
3150
3147.6
3145.12
3142.56
3139.92
3137.19
3134.37
3131.46
3128.47
3125.38
3122.2
3118.92
3115.54
3112.06
3108.48
3104.79
3100.99
3097.08
3093.05
3088.91
3084.64
3080.24
3075.72
3071.07
3066.29
3061.37
3056.31
3051.12
3045.78
3040.3
3034.68
3028.92
3023.01
3016.96
3010.77
3004.45
2997.98
2991.39
2984.66
2977.81
2970.83
2963.74
2956.53
2949.22
2941.8
2934.28
2926.68
2918.99
2911.23
2903.39
2895.5
2887.54
2879.54
2871.5
2863.43
2855.33
2847.21
2839.09
2830.96
2822.84
2814.74
2806.66
2798.61
2790.6
2782.63
2774.73
2766.89
2759.13
2751.45
2743.87
2736.39
2729.02
2721.78
2714.67
2707.7
2700.89
2694.24
2687.77
2681.48
2675.38
2669.48
2663.79
2658.32
2653.06
2648.03
2643.23
2638.67
2634.33
2630.24
2626.37
2622.74
2619.34
2616.17
2613.21
2610.47
2607.94
2605.61
2603.47
2601.51
2599.74
2598.12
2596.67
2595.37
2594.2
2593.16
2592.24
2591.43
2590.73
2590.11
2589.58
2589.13
2588.75
2588.43
2588.17
2587.97
2587.81
2587.7
2587.61
2587.54
3194.04
3194.22
3194.33
3194.39
3194.24
3193.85
3193.17
3192.2
3191.03
3189.73
3188.37
3186.98
3185.57
3184.15
3182.72
3181.29
3179.85
3178.39
3176.9
3175.38
3173.82
3172.22
3170.57
3168.85
3167.08
3165.24
3163.33
3161.35
3159.3
3157.17
3154.97
3152.69
3150.32
3147.88
3145.35
3142.74
3140.04
3137.25
3134.38
3131.41
3128.36
3125.21
3121.96
3118.61
3115.16
3111.6
3107.94
3104.17
3100.28
3096.27
3092.14
3087.88
3083.49
3078.98
3074.33
3069.53
3064.6
3059.52
3054.3
3048.93
3043.41
3037.74
3031.92
3025.95
3019.83
3013.56
3007.14
3000.58
2993.88
2987.03
2980.06
2972.95
2965.72
2958.36
2950.9
2943.32
2935.64
2927.86
2920
2912.05
2904.03
2895.95
2887.8
2879.6
2871.36
2863.08
2854.78
2846.45
2838.11
2829.77
2821.44
2813.11
2804.81
2796.54
2788.31
2780.13
2772
2763.94
2755.95
2748.05
2740.25
2732.54
2724.96
2717.5
2710.17
2703
2695.98
2689.14
2682.48
2676.01
2669.75
2663.69
2657.86
2652.26
2646.89
2641.76
2636.88
2632.24
2627.86
2623.73
2619.85
2616.22
2612.83
2609.68
2606.77
2604.09
2601.62
2599.36
2597.31
2595.45
2593.77
2592.27
2590.92
2589.73
2588.67
2587.75
2586.94
2586.24
2585.65
2585.13
2584.7
2584.34
2584.04
2583.8
2583.6
2583.45
2583.34
2583.26
2583.2
2583.13
3195.66
3195.93
3195.97
3196.06
3196.16
3196.08
3195.61
3194.68
3193.42
3191.98
3190.49
3189
3187.54
3186.1
3184.67
3183.27
3181.86
3180.45
3179.02
3177.57
3176.07
3174.53
3172.93
3171.28
3169.56
3167.77
3165.91
3163.98
3161.98
3159.89
3157.73
3155.48
3153.16
3150.75
3148.25
3145.68
3143.01
3140.26
3137.42
3134.49
3131.47
3128.35
3125.13
3121.82
3118.4
3114.88
3111.24
3107.5
3103.63
3099.65
3095.54
3091.3
3086.93
3082.42
3077.77
3072.97
3068.03
3062.94
3057.69
3052.29
3046.73
3041.01
3035.13
3029.09
3022.89
3016.53
3010.02
3003.35
2996.53
2989.57
2982.46
2975.21
2967.83
2960.32
2952.69
2944.94
2937.08
2929.12
2921.07
2912.93
2904.71
2896.42
2888.06
2879.65
2871.2
2862.7
2854.18
2845.63
2837.06
2828.5
2819.93
2811.38
2802.84
2794.34
2785.87
2777.45
2769.08
2760.78
2752.56
2744.41
2736.37
2728.43
2720.6
2712.91
2705.35
2697.94
2690.68
2683.65
2676.79
2670.12
2663.67
2657.45
2651.45
2645.71
2640.21
2634.98
2630
2625.3
2620.87
2616.7
2612.81
2609.18
2605.81
2602.7
2599.84
2597.22
2594.84
2592.67
2590.72
2588.97
2587.41
2586.02
2584.81
2583.74
2582.82
2582.02
2581.35
2580.78
2580.3
2579.91
2579.59
2579.33
2579.13
2578.97
2578.85
2578.76
2578.7
2578.66
2578.62
2578.56
3197.31
3197.48
3197.57
3197.83
3198.33
3198.66
3198.36
3197.37
3195.88
3194.18
3192.5
3190.89
3189.37
3187.92
3186.53
3185.17
3183.84
3182.5
3181.16
3179.78
3178.36
3176.89
3175.37
3173.78
3172.13
3170.4
3168.6
3166.71
3164.75
3162.71
3160.59
3158.39
3156.1
3153.73
3151.27
3148.73
3146.1
3143.39
3140.58
3137.69
3134.7
3131.62
3128.44
3125.17
3121.78
3118.3
3114.7
3110.99
3107.15
3103.2
3099.11
3094.9
3090.54
3086.05
3081.41
3076.61
3071.66
3066.55
3061.29
3055.85
3050.25
3044.48
3038.54
3032.43
3026.15
3019.71
3013.09
3006.31
2999.37
2992.27
2985.02
2977.62
2970.08
2962.4
2954.59
2946.66
2938.62
2930.46
2922.2
2913.85
2905.42
2896.91
2888.33
2879.7
2871.01
2862.29
2853.52
2844.74
2835.94
2827.13
2818.32
2809.52
2800.74
2791.98
2783.27
2774.59
2765.97
2757.41
2748.93
2740.53
2732.23
2724.03
2715.95
2708
2700.2
2692.55
2685.1
2677.78
2670.68
2663.79
2657.13
2650.71
2644.54
2638.64
2633.01
2627.65
2622.58
2617.8
2613.31
2609.12
2605.21
2601.59
2598.25
2595.19
2592.4
2589.86
2587.56
2585.51
2583.67
2582.05
2580.62
2579.38
2578.31
2577.39
2576.62
2575.98
2575.45
2575.03
2574.69
2574.43
2574.24
2574.11
2574.01
2573.95
2573.92
2573.91
2573.91
2573.91
2573.9
2573.85
3198.56
3198.58
3199.01
3199.84
3200.83
3201.54
3201.36
3200.16
3198.26
3196.18
3194.23
3192.5
3190.95
3189.55
3188.23
3186.98
3185.76
3184.53
3183.29
3182.02
3180.7
3179.33
3177.89
3176.37
3174.79
3173.12
3171.38
3169.55
3167.64
3165.65
3163.57
3161.4
3159.15
3156.82
3154.4
3151.89
3149.3
3146.62
3143.86
3141
3138.05
3135.01
3131.88
3128.64
3125.3
3121.85
3118.3
3114.62
3110.83
3106.91
3102.86
3098.67
3094.34
3089.87
3085.24
3080.45
3075.5
3070.38
3065.09
3059.63
3053.99
3048.17
3042.17
3035.99
3029.63
3023.08
3016.36
3009.46
3002.39
2995.15
2987.75
2980.19
2972.48
2964.62
2956.62
2948.49
2940.24
2931.87
2923.39
2914.82
2906.16
2897.42
2888.6
2879.73
2870.8
2861.82
2852.81
2843.78
2834.72
2825.66
2816.59
2807.53
2798.49
2789.47
2780.49
2771.55
2762.66
2753.83
2745.07
2736.4
2727.82
2719.34
2710.98
2702.75
2694.67
2686.75
2679.01
2671.45
2664.1
2656.97
2650.09
2643.46
2637.09
2631.01
2625.23
2619.74
2614.56
2609.7
2605.16
2600.93
2597.02
2593.41
2590.11
2587.11
2584.39
2581.94
2579.76
2577.83
2576.13
2574.66
2573.39
2572.31
2571.41
2570.67
2570.07
2569.6
2569.24
2568.99
2568.82
2568.72
2568.67
2568.67
2568.71
2568.76
2568.83
2568.9
2568.97
2569.02
2569.05
2569.01
3198.06
3198.22
3199.15
3200.59
3201.79
3203.18
3203.53
3202.31
3199.86
3197.38
3195.3
3193.59
3192.15
3190.9
3189.75
3188.67
3187.61
3186.55
3185.45
3184.31
3183.11
3181.84
3180.49
3179.06
3177.55
3175.96
3174.27
3172.5
3170.64
3168.69
3166.65
3164.52
3162.31
3160.01
3157.63
3155.16
3152.6
3149.96
3147.24
3144.42
3141.52
3138.52
3135.42
3132.23
3128.94
3125.54
3122.03
3118.41
3114.66
3110.78
3106.77
3102.62
3098.33
3093.88
3089.27
3084.5
3079.55
3074.43
3069.13
3063.64
3057.96
3052.09
3046.03
3039.77
3033.32
3026.68
3019.84
3012.82
3005.61
2998.22
2990.65
2982.91
2975.02
2966.96
2958.76
2950.42
2941.95
2933.35
2924.64
2915.83
2906.92
2897.93
2888.87
2879.73
2870.54
2861.31
2852.03
2842.73
2833.41
2824.07
2814.73
2805.4
2796.08