/*--------------------------------*- C++ -*----------------------------------*\
| =========                 |                                                 |
| \\      /  F ield         | OpenFOAM: The Open Source CFD Toolbox           |
|  \\    /   O peration     | Version:  v2006                                 |
|   \\  /    A nd           | Website:  www.openfoam.com                      |
|    \\/     M anipulation  |                                                 |
\*---------------------------------------------------------------------------*/
FoamFile
{
    version     2.0;
    format      ascii;
    class       volScalarField;
    location    "0";
    object      f;
}
// * * * * * * * * * * * * * * * * * * * * * * * * * * * * * * * * * * * * * //

dimensions      [0 0 0 0 0 0 0];


internalField   nonuniform List<scalar> 
2500
(
-2.15824e-16
-2.15936e-16
-2.15832e-16
-2.18477e-16
-2.20617e-16
-2.38673e-16
-2.81738e-16
-3.71663e-16
-4.36352e-16
-7.34409e-15
-7.70481e-15
2.75768e-14
5.28938e-14
-1.40618e-14
-1.04512e-13
-6.16785e-14
1.29652e-13
2.93831e-13
2.5655e-13
-3.70573e-13
-2.37826e-12
-3.71163e-12
-3.24083e-12
1.22065e-13
3.80385e-12
3.27893e-12
1.00061e-12
-4.95412e-13
-1.88166e-12
-1.56344e-12
-8.39967e-13
-3.22884e-13
-7.26089e-14
7.39989e-14
1.18543e-13
6.0743e-14
1.16331e-14
5.66679e-16
1.35695e-16
2.68244e-16
2.47075e-16
1.67575e-16
9.96193e-17
5.62919e-17
3.15754e-17
1.80175e-17
1.05293e-17
6.24127e-18
3.68506e-18
2.12906e-18
5.34897e-14
5.20853e-14
5.58985e-14
5.50785e-14
4.34379e-14
4.72541e-14
6.66767e-14
6.90773e-14
4.63926e-14
-1.07824e-14
7.95862e-14
2.91785e-13
1.38722e-13
-2.20374e-13
-3.66617e-13
-7.67914e-15
8.44e-13
7.42086e-13
-2.26272e-13
-1.02271e-11
-1.64288e-11
-1.84092e-11
-8.52934e-12
2.57114e-11
2.63691e-11
9.45316e-12
-3.71501e-12
-2.03308e-11
-1.59195e-11
-7.46331e-12
-2.39093e-12
-6.55849e-13
1.06391e-12
1.43554e-12
7.26577e-13
1.57077e-13
-5.60935e-15
-5.85788e-15
-7.56908e-16
5.84677e-16
5.75786e-16
3.45115e-16
1.8564e-16
9.8315e-17
5.31926e-17
3.00105e-17
1.76522e-17
1.06086e-17
6.33976e-18
3.68483e-18
7.33686e-13
7.31051e-13
7.4637e-13
7.26511e-13
6.86075e-13
7.47258e-13
8.23004e-13
7.53475e-13
5.81924e-13
5.07982e-13
1.13779e-12
9.74257e-13
-3.20866e-13
-7.56108e-13
-1.04783e-13
3.36291e-12
2.67987e-12
-8.52584e-12
-5.01976e-11
-5.09243e-11
-3.84648e-11
-3.28501e-11
1.28583e-10
1.29547e-10
5.77969e-11
-3.10335e-11
-1.36204e-10
-9.89111e-11
-3.92249e-11
-1.2034e-11
4.39321e-12
1.47547e-11
1.25054e-11
5.81592e-12
1.35466e-12
-1.68348e-13
-1.22789e-13
-2.45819e-14
1.25575e-15
3.39741e-15
1.63864e-15
6.68841e-16
3.06993e-16
1.51501e-16
8.00658e-17
4.57437e-17
2.78208e-17
1.73161e-17
1.06081e-17
6.24056e-18
3.3791e-12
3.39526e-12
3.3856e-12
3.32086e-12
3.3839e-12
3.54921e-12
3.56234e-12
3.13349e-12
2.84404e-12
4.01778e-12
4.58138e-12
1.4136e-12
-2.78244e-12
-1.04808e-12
2.11273e-11
3.57641e-11
-1.37593e-11
-1.75188e-10
-2.52275e-10
-1.12191e-10
3.2971e-10
9.00334e-10
7.95215e-10
2.70761e-10
-4.64852e-10
-9.74499e-10
-6.5923e-10
-2.04326e-10
-8.39873e-13
1.93861e-10
1.89722e-10
1.10589e-10
4.50303e-11
1.00808e-11
-3.09012e-12
-1.92949e-12
-4.02383e-13
8.62993e-15
3.93029e-14
1.67864e-14
3.49921e-15
9.09453e-16
3.90844e-16
1.91202e-16
1.04203e-16
6.38014e-17
4.20278e-17
2.78195e-17
1.76505e-17
1.05277e-17
9.75875e-12
9.85029e-12
9.66292e-12
9.66511e-12
1.01905e-11
1.02283e-11
9.74918e-12
8.65724e-12
9.43431e-12
1.36929e-11
1.09825e-11
-5.20246e-12
-7.21003e-12
4.12191e-11
1.25582e-10
1.18704e-10
-2.11005e-10
-7.042e-10
-5.58207e-10
1.83503e-09
5.39319e-09
5.65322e-09
1.97468e-09
-3.16548e-09
-5.77351e-09
-4.18024e-09
-1.33417e-09
7.81565e-10
2.36827e-09
1.73767e-09
8.48487e-10
3.16684e-10
7.41771e-11
-4.15826e-11
-2.5028e-11
-5.49981e-12
-6.18685e-15
3.90886e-13
1.88411e-13
3.72103e-14
2.7702e-15
6.28033e-16
3.29179e-16
1.83288e-16
1.16032e-16
8.4338e-17
6.37987e-17
4.574e-17
3.00069e-17
1.80145e-17
2.09372e-11
2.11749e-11
2.05451e-11
2.11029e-11
2.23685e-11
2.1494e-11
2.00286e-11
1.87902e-11
2.28975e-11
3.216e-11
1.55303e-11
-2.34242e-11
3.4688e-11
2.09094e-10
3.62477e-10
1.65716e-10
-7.9057e-10
-1.36456e-09
4.74438e-09
1.46834e-08
2.14701e-08
1.63275e-08
-5.00527e-09
-2.26297e-08
-2.01108e-08
-7.888e-09
6.3381e-09
1.79359e-08
1.25301e-08
5.26284e-09
1.66429e-09
4.52145e-10
-4.8762e-10
-2.84977e-10
-6.22102e-11
-1.31854e-12
2.98602e-12
1.62603e-12
3.83793e-13
2.47554e-14
-3.60166e-16
6.89628e-17
1.52818e-16
1.30176e-16
1.18452e-16
1.16027e-16
1.04195e-16
8.0058e-17
5.31859e-17
3.15702e-17
3.49612e-11
3.53351e-11
3.41278e-11
3.61023e-11
3.7503e-11
3.46075e-11
3.27994e-11
3.31129e-11
4.29041e-11
5.32434e-11
1.59561e-13
-3.84579e-11
2.15829e-10
5.34254e-10
6.0477e-10
-7.36541e-11
-2.36619e-09
9.46826e-09
3.33e-08
4.77992e-08
4.4893e-08
2.08976e-08
-5.35735e-08
-6.32622e-08
-3.52943e-08
3.80275e-08
1.15474e-07
7.92588e-08
2.74652e-08
7.66932e-09
-1.19039e-09
-6.38018e-09
-3.24396e-09
-6.42855e-10
-1.27354e-11
1.99075e-11
1.14606e-11
3.0627e-12
2.64637e-13
-1.47376e-14
-4.72758e-15
-4.78305e-16
2.16492e-17
7.57818e-17
1.30168e-16
1.83275e-16
1.91187e-16
1.51487e-16
9.83036e-17
5.62835e-17
-1.29656e-08
-1.2969e-08
-1.2944e-08
-1.2928e-08
-1.29926e-08
-1.30777e-08
-1.29307e-08
-1.26017e-08
-1.27746e-08
-1.40497e-08
-1.42769e-08
-1.11069e-08
-8.588e-09
-9.94648e-09
-2.53588e-08
-5.17347e-08
-1.63662e-08
6.61884e-08
9.42906e-08
8.42462e-08
-9.62539e-08
-3.94044e-07
-2.3919e-07
-6.466e-08
2.94343e-07
7.17872e-07
4.77507e-07
1.51476e-07
-3.11872e-08
-1.13016e-07
-9.50767e-08
-3.99459e-08
-7.48236e-09
-7.43987e-11
1.19476e-10
7.21903e-11
2.14245e-11
2.32409e-12
-1.40075e-13
-5.72348e-14
-7.71543e-15
2.5293e-16
1.33622e-16
2.16427e-17
1.52803e-16
3.29157e-16
3.90818e-16
3.06969e-16
1.85622e-16
9.96067e-17
-3.53112e-07
-3.53127e-07
-3.52911e-07
-3.52961e-07
-3.53594e-07
-3.53602e-07
-3.51745e-07
-3.51049e-07
-3.55689e-07
-3.61238e-07
-3.52813e-07
-3.27699e-07
-3.33197e-07
-3.96281e-07
-4.89497e-07
-4.33526e-07
-5.86083e-08
1.88449e-07
9.45666e-08
-1.17431e-06
-2.90308e-06
-2.65296e-06
-5.03303e-07
2.42477e-06
4.04628e-06
3.02687e-06
8.23992e-07
-1.05218e-06
-1.53354e-06
-1.04511e-06
-4.38965e-07
-9.88265e-08
-3.9778e-09
6.11537e-10
3.92142e-10
1.35737e-10
2.1326e-11
-6.35443e-13
-3.48425e-13
-7.45236e-14
8.99742e-16
1.85353e-15
2.52927e-16
-4.78299e-16
6.89474e-17
6.28e-16
9.09407e-16
6.68799e-16
3.45087e-16
1.67557e-16
-1.98943e-06
-1.98944e-06
-1.9892e-06
-1.98985e-06
-1.99071e-06
-1.98756e-06
-1.98413e-06
-1.99439e-06
-2.00852e-06
-1.9871e-06
-1.94069e-06
-1.93304e-06
-2.09615e-06
-2.33064e-06
-2.243e-06
-1.38039e-06
-1.18484e-07
2.43225e-07
-3.78371e-06
-9.8915e-06
-1.26826e-05
-7.83368e-06
5.01615e-06
1.59988e-05
1.50999e-05
5.95052e-06
-6.1185e-06
-9.8568e-06
-7.12866e-06
-3.34925e-06
-1.00047e-06
-1.18993e-07
2.5359e-09
1.68624e-09
6.9596e-10
1.6376e-10
7.16622e-12
-8.85956e-13
-2.93398e-13
1.20975e-14
1.10701e-14
8.99943e-16
-7.71512e-15
-4.7274e-15
-3.60161e-16
2.77007e-15
3.49905e-15
1.63855e-15
5.75747e-16
2.47052e-16
-6.15127e-06
-6.15146e-06
-6.15235e-06
-6.15351e-06
-6.15079e-06
-6.13963e-06
-6.14816e-06
-6.19368e-06
-6.18747e-06
-6.04673e-06
-5.9894e-06
-6.25324e-06
-6.82297e-06
-7.03098e-06
-5.70498e-06
-2.54425e-06
-3.29489e-07
-6.7622e-06
-2.13994e-05
-3.29536e-05
-3.11471e-05
-7.61639e-06
3.11222e-05
4.54091e-05
3.03466e-05
-7.77026e-06
-3.81808e-05
-3.13147e-05
-1.6735e-05
-6.25543e-06
-1.40002e-06
-7.20672e-08
4.31282e-09
2.45888e-09
8.7046e-10
1.52065e-10
3.9741e-12
2.60103e-13
4.29745e-13
2.30701e-13
1.20991e-14
-7.45213e-14
-5.72329e-14
-1.4737e-14
2.47544e-14
3.72087e-14
1.67856e-14
3.39724e-15
5.84637e-16
2.6822e-16
-1.29226e-05
-1.29238e-05
-1.29271e-05
-1.29256e-05
-1.29128e-05
-1.28977e-05
-1.29499e-05
-1.30319e-05
-1.29077e-05
-1.25779e-05
-1.27592e-05
-1.3695e-05
-1.45906e-05
-1.39034e-05
-9.37816e-06
-2.93021e-06
-7.65134e-06
-3.30403e-05
-5.99117e-05
-6.6957e-05
-4.27266e-05
4.74566e-05
9.22566e-05
7.61661e-05
7.61798e-06
-0.000145268
-9.9236e-05
-5.35153e-05
-2.3168e-05
-7.39601e-06
-1.33535e-06
-3.27134e-08
5.2684e-09
2.70677e-09
8.96392e-10
2.18381e-10
5.55989e-11
6.37792e-12
1.88118e-12
4.29747e-13
-2.93393e-13
-3.48417e-13
-1.40071e-13
2.64628e-13
3.8378e-13
1.88405e-13
3.93013e-14
1.25565e-15
-7.56909e-16
1.35679e-16
-1.53372e-05
-1.5339e-05
-1.53474e-05
-1.53457e-05
-1.53078e-05
-1.52776e-05
-1.54283e-05
-1.56021e-05
-1.52145e-05
-1.45032e-05
-1.51559e-05
-1.74627e-05
-1.91308e-05
-1.54331e-05
-2.64108e-06
7.4898e-06
-2.45895e-05
-8.4386e-05
-0.000104837
-7.10325e-05
0.000155627
0.000322281
0.000158213
-0.000347961
-0.00105056
-0.000764305
-6.46394e-05
0.000966877
0.00195026
0.00244597
0.0023872
0.00194812
0.0013227
0.000736083
0.000320383
9.50713e-05
1.131e-05
7.8361e-12
6.37789e-12
2.601e-13
-8.85945e-13
-6.35436e-13
2.32401e-12
3.0626e-12
1.62598e-12
3.90872e-13
8.62925e-15
-2.45815e-14
-5.85779e-15
5.66659e-16
0.000155613
0.000155619
0.000155487
0.000155453
0.000156017
0.000156254
0.000154499
0.000153015
0.000157269
0.000163561
0.000157365
0.000137123
0.00013034
0.00017463
0.000246718
0.000219565
2.40404e-05
-0.000133606
-5.42379e-05
0.000718613
0.00152205
0.00109556
-0.00118896
-0.00460214
-0.00528063
-0.00209176
0.00604386
0.0171178
0.0269008
0.0315586
0.0305266
0.0253953
0.0180235
0.0107637
0.00521705
0.00186935
0.000372018
1.131e-05
5.55979e-11
3.97357e-12
7.16572e-12
2.13252e-11
2.14239e-11
1.14602e-11
2.98593e-12
-6.19114e-15
-4.02378e-13
-1.22788e-13
-5.60943e-15
1.16328e-14
0.00108319
0.00108313
0.00108247
0.0010829
0.00108576
0.00108469
0.00107519
0.00107476
0.0011009
0.00111659
0.00106271
0.000981671
0.00103369
0.00128098
0.00141675
0.00103992
0.000281301
-5.57441e-05
0.00159862
0.00444623
0.00529777
0.00106469
-0.00893432
-0.0171334
-0.0151071
0.00454804
0.0426505
0.0888102
0.126349
0.14196
0.134659
0.11087
0.0785152
0.0471126
0.0231255
0.00853236
0.00186935
9.50713e-05
2.18374e-10
1.52059e-10
1.63755e-10
1.35733e-10
7.21882e-11
1.99069e-11
-1.31851e-12
-5.49973e-12
-1.92947e-12
-1.68348e-13
1.57073e-13
6.07412e-14
0.00367224
0.00367183
0.00367024
0.00367307
0.00368005
0.00367086
0.00364593
0.00366446
0.003742
0.0037363
0.00353741
0.00339935
0.00374683
0.00440233
0.00431202
0.0027995
0.000908262
0.00217808
0.00770147
0.0132769
0.0112324
-0.00485896
-0.028833
-0.0427526
-0.0234367
0.0450216
0.157207
0.281495
0.374825
0.407003
0.378271
0.306765
0.214927
0.127997
0.0625422
0.0231255
0.00521705
0.000320383
8.96378e-10
8.70441e-10
6.95943e-10
3.92132e-10
1.19472e-10
-1.27347e-11
-6.22091e-11
-2.50277e-11
-3.0901e-12
1.35462e-12
7.26556e-13
1.18539e-13
0.00879009
0.00878887
0.00878672
0.00879498
0.00880466
0.00877587
0.00873731
0.0088106
0.00895112
0.00883236
0.00839702
0.00836169
0.00936363
0.0104114
0.00927937
0.00550136
0.00363738
0.00903402
0.0206578
0.0278753
0.0149894
-0.022382
-0.0664889
-0.0766463
-0.00781268
0.162091
0.409936
0.665032
0.842583
0.889332
0.810937
0.647631
0.448199
0.264189
0.127997
0.0471126
0.0107637
0.000736083
2.70675e-09
2.45884e-09
1.6862e-09
6.1152e-10
-7.43888e-11
-6.4284e-10
-2.84973e-10
-4.15821e-11
1.00805e-11
5.81577e-12
1.4355e-12
7.39964e-14
0.0165531
0.0165508
0.0165495
0.0165654
0.0165714
0.016514
0.0164808
0.0166434
0.0168087
0.0164586
0.015805
0.0161863
0.0180881
0.0190459
0.0156312
0.00973346
0.00969745
0.0221656
0.0409275
0.0444376
0.0112393
-0.0567777
-0.118755
-0.101589
0.0626709
0.395568
0.840719
1.27106
1.54872
1.59579
1.42994
1.12526
0.768996
0.448199
0.214927
0.0785152
0.0180235
0.0013227
5.26839e-09
4.31279e-09
2.53585e-09
-3.97757e-09
-7.48217e-09
-3.2439e-09
-4.87614e-10
7.41753e-11
4.50293e-11
1.25051e-11
1.06388e-12
-7.26057e-14
0.0255822
0.0255788
0.0255806
0.0256038
0.0255964
0.0255098
0.0255142
0.0257792
0.0258834
0.0252172
0.0245067
0.0256562
0.0283841
0.0282779
0.0219981
0.0146465
0.0191908
0.0410596
0.0651018
0.057805
-0.0054956
-0.107525
-0.175822
-0.102156
0.201458
0.745001
1.42433
2.04581
2.4167
2.43937
2.15095
1.66838
1.12526
0.647631
0.306765
0.11087
0.0253953
0.00194812
-3.27103e-08
-7.2063e-08
-1.18988e-07
-9.8824e-08
-3.99451e-08
-6.38008e-09
4.52136e-10
3.16679e-10
1.10587e-10
1.47544e-11
-6.55826e-13
-3.22871e-13
0.0329038
0.0328998
0.0329078
0.0329351
0.0329005
0.0327945
0.0328824
0.033237
0.0331503
0.0321232
0.0316652
0.0339033
0.0369901
0.0348902
0.0250753
0.0182043
0.0303276
0.0633818
0.0890467
0.0620699
-0.0384504
-0.175394
-0.240697
-0.0924196
0.370521
1.13513
2.04142
2.83109
3.26623
3.23987
2.81405
2.15095
1.42994
0.810937
0.378271
0.134659
0.0305266
0.0023872
-1.33531e-06
-1.39999e-06
-1.00045e-06
-4.38957e-07
-9.5075e-08
-1.19036e-09
1.66426e-09
8.48475e-10
1.89718e-10
4.3931e-12
-2.39085e-12
-8.39935e-13
0.0342484
0.0342455
0.0342636
0.0342842
0.0342037
0.0341136
0.0343532
0.0347268
0.0342255
0.0328955
0.0332333
0.0368506
0.0396221
0.0335132
0.0202976
0.0169419
0.0419333
0.0871232
0.107851
0.0516293
-0.0997652
-0.282259
-0.352983
-0.139732
0.463441
1.41298
2.49553
3.40149
3.86513
3.78199
3.23987
2.43937
1.59579
0.889332
0.407003
0.14196
0.0315586
0.00244597
-7.39589e-06
-6.25533e-06
-3.34919e-06
-1.04509e-06
-1.13014e-07
7.66925e-09
5.26278e-09
1.73765e-09
1.93858e-10
-1.20336e-11
-7.46308e-12
-1.56339e-12
0.0259837
0.0259856
0.026015
0.0260036
0.0258694
0.025884
0.0263336
0.0264929
0.0252928
0.024043
0.0261197
0.0313661
0.0311819
0.0188175
0.00386347
0.0113583
0.0556591
0.111103
0.116544
0.0059401
-0.224481
-0.483697
-0.592386
-0.354627
0.332816
1.3937
2.57164
3.52708
3.98826
3.86513
3.26623
2.4167
1.54872
0.842583
0.374825
0.126349
0.0269008
0.00195026
-2.31677e-05
-1.67348e-05
-7.12857e-06
-1.53352e-06
-3.11859e-08
2.74649e-08
1.25299e-08
2.36823e-09
-8.40383e-13
-3.92239e-11
-1.5919e-11
-1.88159e-12
0.0080205
0.00803171
0.00806198
0.00798633
0.0078404
0.0080895
0.0086632
0.00818779
0.00625476
0.00608242
0.0110981
0.01604
0.00930987
-0.0101934
-0.020737
0.00770615
0.0760378
0.135088
0.0954836
-0.109071
-0.467
-0.852097
-1.04967
-0.84519
-0.144582
0.944874
2.1367
3.08305
3.52708
3.40149
2.83109
2.04581
1.27106
0.665032
0.281495
0.0888101
0.0171178
0.000966877
-5.35148e-05
-3.13144e-05
-9.85669e-06
-1.05216e-06
1.51475e-07
7.92579e-08
1.79356e-08
7.81549e-10
-2.04322e-10
-9.89086e-11
-2.03301e-11
-4.95377e-13
-0.015091
-0.0150691
-0.0150618
-0.0152119
-0.0152634
-0.0147142
-0.0143279
-0.0158064
-0.0178971
-0.0154313
-0.00799294
-0.00666878
-0.0229414
-0.0466667
-0.0429347
0.0158599
0.107496
0.145785
0.0228577
-0.32821
-0.868595
-1.43197
-1.76641
-1.64328
-0.983885
0.0754236
1.2286
2.1367
2.57164
2.49553
2.04142
1.42433
0.840719
0.409936
0.157207
0.0426505
0.00604386
-6.4638e-05
-9.92352e-05
-3.81804e-05
-6.11843e-06
8.23986e-07
4.77502e-07
1.15472e-07
6.33794e-09
-1.33414e-09
-6.59216e-10
-1.362e-10
-3.71468e-12
1.00057e-12
-0.0356397
-0.0356117
-0.0356532
-0.0358476
-0.0356845
-0.0349086
-0.0351399
-0.0376453
-0.0386404
-0.0327867
-0.0247338
-0.0308629
-0.0572027
-0.0788916
-0.050153
0.0435453
0.145922
0.137942
-0.107334
-0.6473
-1.40955
-2.17998
-2.66863
-2.63895
-2.03525
-1.02476
0.0754235
0.944874
1.3937
1.41298
1.13513
0.745001
0.395568
0.162091
0.0450216
0.00454805
-0.00209175
-0.000764302
-0.000145267
-7.7701e-06
5.95048e-06
3.02685e-06
7.17862e-07
3.80263e-08
-7.88787e-09
-4.18017e-09
-9.74479e-10
-3.10314e-11
9.45298e-12
3.27883e-12
-0.0458378
-0.0458124
-0.0459262
-0.0461087
-0.0456176
-0.0448027
-0.0460789
-0.049217
-0.0479611
-0.0383051
-0.0324557
-0.0491454
-0.0854609
-0.096635
-0.0345445
0.0953476
0.202159
0.134771
-0.246476
-0.985064
-1.96729
-2.92724
-3.54105
-3.57518
-3.00634
-2.03525
-0.983885
-0.144582
0.332816
0.463441
0.370521
0.201458
0.0626709
-0.00781265
-0.0234366
-0.0151071
-0.00528062
-0.00105056
7.61832e-06
3.03465e-05
1.50998e-05
4.04624e-06
2.94336e-07
-3.52938e-08
-2.01105e-08
-5.77341e-09
-4.64839e-10
5.77957e-11
2.63685e-11
3.80373e-12
-0.0416103
-0.0416054
-0.0418216
-0.0418737
-0.0409131
-0.0404295
-0.043241
-0.0465614
-0.0409465
-0.027549
-0.0276473
-0.0610958
-0.104878
-0.0964157
0.0126376
0.194305
0.322538
0.216652
-0.273239
-1.17217
-2.32185
-3.40795
-4.08398
-4.13367
-3.57518
-2.63895
-1.64328
-0.84519
-0.354627
-0.139732
-0.0924196
-0.102156
-0.101589
-0.0766463
-0.0427526
-0.0171334
-0.00460213
-0.00034796
7.61655e-05
4.54087e-05
1.59987e-05
2.42474e-06
-6.46588e-08
-6.32612e-08
-2.26293e-08
-3.16541e-09
2.70756e-10
1.29544e-10
2.57105e-11
1.21992e-13
-0.0242755
-0.0243328
-0.0246416
-0.0242913
-0.0228505
-0.0235151
-0.0285781
-0.0297793
-0.0168491
-0.00173949
-0.0172092
-0.072815
-0.118816
-0.0705397
0.120666
0.398326
0.599078
0.51292
-0.0193262
-1.00263
-2.23661
-3.36884
-4.04642
-4.08398
-3.54105
-2.66863
-1.76641
-1.04967
-0.592386
-0.352983
-0.240697
-0.175822
-0.118755
-0.0664889
-0.028833
-0.00893433
-0.00118897
0.000158211
9.22552e-05
3.11217e-05
5.01605e-06
-5.03305e-07
-2.39187e-07
-5.35722e-08
-5.00498e-09
1.97467e-09
7.95202e-10
1.2858e-10
-8.52943e-12
-3.24082e-12
0.000223143
5.70835e-05
-0.000183871
0.00088517
0.00231409
-0.000973259
-0.00735226
-0.00196672
0.0194148
0.0279346
-0.0144691
-0.0943112
-0.123655
0.0100761
0.343553
0.785299
1.1323
1.14178
0.644024
-0.346536
-1.59216
-2.71421
-3.36884
-3.40795
-2.92724
-2.17998
-1.43197
-0.852096
-0.483697
-0.282259
-0.175394
-0.107525
-0.0567777
-0.0223821
-0.004859
0.00106466
0.00109555
0.000322276
4.74552e-05
-7.61655e-06
-7.83372e-06
-2.65296e-06
-3.94038e-07
2.08978e-08
1.63274e-08
5.65316e-09
9.00311e-10
-3.28498e-11
-1.84089e-11
-3.71154e-12
0.0238679
0.0236047
0.0237216
0.0255685
0.0256622
0.0189697
0.0150349
0.0308485
0.0568586
0.0458359
-0.0333261
-0.126627
-0.0961018
0.181877
0.722153
1.39439
1.94986
2.10866
1.69027
0.730912
-0.495104
-1.59216
-2.23661
-2.32185
-1.96729
-1.40955
-0.868595
-0.467
-0.224481
-0.0997651
-0.0384505
-0.00549565
0.0112392
0.0149893
0.0112323
0.00529774
0.00152204
0.000155621
-4.27267e-05
-3.11473e-05
-1.26827e-05
-2.90309e-06
-9.62516e-08
4.48928e-08
2.14699e-08
5.39311e-09
3.29701e-10
-3.84644e-11
-1.64286e-11
-2.37824e-12
0.0391529
0.0388633
0.0396196
0.0417479
0.0391053
0.0304946
0.0329935
0.0604788
0.0828789
0.038345
-0.0775751
-0.156914
-0.0272959
0.434719
1.21668
2.14417
2.91884
3.22377
2.87431
1.93881
0.730912
-0.346536
-1.00263
-1.17217
-0.985064
-0.6473
-0.32821
-0.109071
0.00594017
0.0516293
0.0620699
0.0578049
0.0444375
0.0278752
0.0132768
0.0044462
0.000718592
-7.10349e-05
-6.69574e-05
-3.29539e-05
-9.89162e-06
-1.17433e-06
8.42437e-08
4.77986e-08
1.46833e-08
1.83501e-09
-1.1219e-10
-5.09242e-11
-1.02272e-11
-3.70583e-13
0.0408625
0.0406498
0.0422317
0.0439355
0.0380278
0.0286115
0.0415295
0.0815309
0.0888881
0.00204071
-0.150102
-0.209495
0.0203504
0.654624
1.65068
2.79108
3.73131
4.12591
3.80225
2.87431
1.69027
0.644024
-0.0193262
-0.273239
-0.246476
-0.107334
0.0228578
0.0954837
0.116544
0.107851
0.0890467
0.0651016
0.0409273
0.0206577
0.00770139
0.00159858
-5.42588e-05
-0.000104838
-5.99124e-05
-2.13999e-05
-3.78387e-06
9.45325e-08
9.42866e-08
3.33e-08
4.7446e-09
-5.58168e-10
-2.52267e-10
-5.01974e-11
-2.26436e-13
2.56534e-13
0.0275947
0.0276589
0.0303759
0.0310577
0.0190603
0.0119902
0.0442914
0.0941749
0.0746624
-0.0820907
-0.301682
-0.381889
-0.110882
0.617362
1.73816
3.00105
4.02384
4.44645
4.12591
3.22377
2.10866
1.14178
0.51292
0.216652
0.134771
0.137942
0.145785
0.135088
0.111103
0.0871232
0.0633817
0.0410595
0.0221654
0.00903391
0.00217801
-5.57822e-05
-0.000133616
-8.43925e-05
-3.30434e-05
-6.76317e-06
2.4309e-07
1.88426e-07
6.6187e-08
9.46951e-09
-1.36436e-09
-7.04164e-10
-1.75194e-10
-8.52823e-12
7.42076e-13
2.93822e-13
0.00286278
0.00369967
0.00810408
0.00304382
-0.0154506
-0.00978746
0.0505656
0.103809
0.0135761
-0.275295
-0.63685
-0.82853
-0.62392
0.0860821
1.23243
2.53983
3.59158
4.02384
3.73131
2.91884
1.94986
1.1323
0.599077
0.322538
0.202159
0.145922
0.107496
0.0760379
0.0556592
0.0419333
0.0303276
0.0191907
0.00969731
0.00363726
0.000908191
0.000281265
2.4023e-05
-2.45957e-05
-7.65338e-06
-3.30145e-07
-1.18663e-07
-5.8632e-08
-1.63599e-08
-2.36507e-09
-7.90428e-10
-2.11017e-10
-1.37746e-11
2.67949e-12
8.44044e-13
1.29655e-13
-0.0251998
-0.0226567
-0.0196686
-0.0342199
-0.0539161
-0.0192843
0.0742461
0.0897989
-0.148921
-0.66008
-1.2571
-1.65876
-1.61676
-0.998579
0.13178
1.46373
2.53983
3.00105
2.79108
2.14417
1.39439
0.785298
0.398326
0.194304
0.0953476
0.0435453
0.01586
0.00770633
0.0113584
0.016942
0.0182042
0.0146464
0.00973332
0.00550124
0.00279943
0.00103988
0.000219547
7.48541e-06
-2.93155e-06
-2.54492e-06
-1.3806e-06
-4.33553e-07
-5.17289e-08
-7.36879e-11
1.65628e-10
1.18677e-10
3.5762e-11
3.36312e-12
-7.63447e-15
-6.16625e-14
-0.0462573
-0.0426969
-0.0450057
-0.0697883
-0.0766587
0.00251278
0.107303
0.016095
-0.450883
-1.24754
-2.12611
-2.77483
-2.91314
-2.37454
-1.23576
0.13178
1.23243
1.73816
1.65068
1.21668
0.722153
0.343553
0.120666
0.0126376
-0.0345445
-0.0501529
-0.0429346
-0.0207368
0.00386361
0.0202976
0.0250752
0.021998
0.015631
0.00927925
0.00431194
0.00141671
0.000246703
-2.64416e-06
-9.37956e-06
-5.70566e-06
-2.24322e-06
-4.89537e-07
-2.5361e-08
6.04655e-10
3.62438e-10
1.25578e-10
2.11292e-11
-1.04294e-13
-3.66549e-13
-1.04502e-13
-0.0523551
-0.049564
-0.0589929
-0.0895312
-0.0675607
0.0583366
0.141408
-0.0971799
-0.799964
-1.8464
-2.95401
-3.79646
-4.05479
-3.53993
-2.37454
-0.998579
0.086082
0.617362
0.654624
0.434719
0.181877
0.0100761
-0.0705397
-0.0964157
-0.096635
-0.0788915
-0.0466665
-0.0101932
0.0188177
0.0335133
0.0348902
0.0282778
0.0190458
0.0104113
0.00440226
0.00128095
0.000174617
-1.54364e-05
-1.39052e-05
-7.03181e-06
-2.33089e-06
-3.96318e-07
-9.94641e-09
5.3427e-10
2.09102e-10
4.12205e-11
-1.04879e-12
-7.56229e-13
-2.20362e-13
-1.40543e-14
-0.0399951
-0.0370681
-0.0542292
-0.0884127
-0.0241793
0.169902
0.254021
-0.0737733
-0.896161
-2.05164
-3.27307
-4.22935
-4.55496
-4.05479
-2.91314
-1.61676
-0.62392
-0.110881
0.0203505
-0.0272958
-0.0961018
-0.123655
-0.118816
-0.104878
-0.0854609
-0.0572026
-0.0229412
0.00931009
0.0311821
0.0396221
0.03699
0.028384
0.0180879
0.00936352
0.00374676
0.00103366
0.000130327
-1.91348e-05
-1.45928e-05
-6.82391e-06
-2.09641e-06
-3.33228e-07
-8.58747e-09
2.15834e-10
3.4688e-11
-7.21012e-12
-2.78236e-12
-3.20727e-13
1.38729e-13
5.28952e-14
-0.00957408
-0.00642194
-0.0431872
-0.076641
0.101386
0.459856
0.662991
0.40615
-0.354572
-1.48222
-2.75914
-3.82069
-4.22936
-3.79646
-2.77483
-1.65876
-0.82853
-0.381889
-0.209494
-0.156914
-0.126627
-0.0943113
-0.0728151
-0.0610959
-0.0491454
-0.0308627
-0.00666856
0.0160403
0.0313663
0.0368506
0.0339033
0.0256561
0.0161862
0.00836158
0.00339928
0.000981635
0.000137109
-1.74671e-05
-1.36972e-05
-6.25418e-06
-1.9333e-06
-3.27731e-07
-1.11065e-08
-3.84568e-11
-2.34231e-11
-5.20158e-12
1.41384e-12
9.74324e-13
2.91798e-13
2.75775e-14
0.0286597
0.0254184
-0.0496518
-0.00587306
0.449738
1.13707
1.60633
1.55594
0.944868
-0.156586
-1.54837
-2.75914
-3.27307
-2.95401
-2.12611
-1.2571
-0.63685
-0.301682
-0.150102
-0.077575
-0.0333262
-0.0144693
-0.0172094
-0.0276474
-0.0324557
-0.0247336
-0.00799271
0.0110983
0.0261199
0.0332333
0.0316651
0.0245066
0.0158049
0.00839691
0.00353733
0.00106267
0.00015735
-1.51603e-05
-1.27614e-05
-5.99032e-06
-1.94095e-06
-3.52846e-07
-1.42765e-08
1.64943e-13
1.55324e-11
1.09829e-11
4.58131e-12
1.1377e-12
7.95605e-14
-7.70648e-15
0.0551348
0.0197571
-0.0702199
0.249751
1.16535
2.25967
2.98859
3.11668
2.58778
1.40426
-0.156586
-1.48222
-2.05164
-1.8464
-1.24754
-0.66008
-0.275295
-0.0820906
0.00204077
0.0383449
0.0458358
0.0279344
-0.00173968
-0.0275491
-0.0383051
-0.0327866
-0.0154311
0.00608267
0.0240432
0.0328955
0.0321232
0.0252171
0.0164585
0.00883224
0.00373623
0.00111655
0.000163547
-1.45073e-05
-1.25798e-05
-6.04757e-06
-1.98734e-06
-3.61269e-07
-1.40496e-08
5.32507e-11
3.21638e-11
1.36941e-11
4.01792e-12
5.0788e-13
-1.08006e-14
-7.34709e-15
0.0466647
-0.0278166
0.0269444
0.631017
1.81179
3.12053
3.89053
4.21538
3.85927
2.58778
0.944868
-0.354572
-0.896161
-0.799964
-0.450883
-0.148921
0.0135761
0.0746625
0.0888882
0.0828789
0.0568584
0.0194146
-0.0168493
-0.0409466
-0.0479611
-0.0386402
-0.0178968
0.00625502
0.0252929
0.0342256
0.0331503
0.0258832
0.0168085
0.008951
0.00374192
0.00110087
0.000157255
-1.52183e-05
-1.29094e-05
-6.18823e-06
-2.00873e-06
-3.55718e-07
-1.27747e-08
4.29162e-11
2.29028e-11
9.43573e-12
2.84412e-12
5.81863e-13
4.63766e-14
-4.36504e-16
0.00904023
-0.0432906
0.0844707
0.811723
2.01417
3.15911
3.8174
4.27992
4.21538
3.11668
1.55594
0.40615
-0.0737735
-0.09718
0.0160949
0.0897988
0.103809
0.094175
0.081531
0.0604788
0.0308483
-0.00196692
-0.0297795
-0.0465615
-0.0492171
-0.0376451
-0.0158062
0.00818806
0.0264931
0.0347269
0.033237
0.025779
0.0166433
0.00881049
0.00366439
0.00107473
0.000153001
-1.56057e-05
-1.30336e-05
-6.19441e-06
-1.9946e-06
-3.51078e-07
-1.26017e-08
3.31209e-11
1.87929e-11
8.65776e-12
3.13355e-12
7.53479e-13
6.90762e-14
-3.71639e-16
-0.0108941
-0.0226423
0.0652482
0.702206
1.74856
2.6099
3.27725
3.8174
3.89053
2.98859
1.60633
0.662991
0.254021
0.141408
0.107303
0.0742461
0.0505658
0.0442916
0.0415296
0.0329934
0.0150347
-0.00735245
-0.0285784
-0.0432412
-0.0460789
-0.0351397
-0.0143276
0.00866347
0.0263338
0.0343533
0.0328823
0.0255141
0.0164807
0.0087372
0.00364585
0.00107515
0.000154486
-1.54319e-05
-1.29516e-05
-6.14891e-06
-1.98435e-06
-3.51776e-07
-1.29307e-08
3.28042e-11
2.00306e-11
9.74988e-12
3.56255e-12
8.2304e-13
6.66754e-14
-2.81623e-16
-0.0088853
-0.00173004
0.00823109
0.356824
1.09991
1.87836
2.6099
3.15911
3.12053
2.25967
1.13707
0.459856
0.169902
0.0583365
0.00251276
-0.0192842
-0.00978726
0.0119904
0.0286116
0.0304945
0.0189694
-0.000973431
-0.0235155
-0.0404297
-0.0448027
-0.0349084
-0.0147139
0.00808974
0.0258842
0.0341137
0.0327945
0.0255097
0.0165138
0.00877575
0.00367079
0.00108465
0.00015624
-1.52812e-05
-1.28994e-05
-6.1404e-06
-1.98778e-06
-3.53633e-07
-1.30777e-08
3.46152e-11
2.14979e-11
1.02296e-11
3.54945e-12
7.47232e-13
4.72356e-14
-2.38514e-16
-0.00293909
-0.00218556
-0.014273
0.0362298
0.434005
1.09991
1.74856
2.01417
1.81179
1.16535
0.449738
0.101386
-0.0241795
-0.0675608
-0.0766587
-0.0539159
-0.0154504
0.0190604
0.0380279
0.0391053
0.025662
0.00231387
-0.022851
-0.0409132
-0.0456175
-0.0356844
-0.0152631
0.00784062
0.0258695
0.0342037
0.0329004
0.0255963
0.0165712
0.00880455
0.00367998
0.00108572
0.000156004
-1.53115e-05
-1.29146e-05
-6.15156e-06
-1.99094e-06
-3.53624e-07
-1.29926e-08
3.75125e-11
2.23728e-11
1.01917e-11
3.38405e-12
6.86025e-13
4.34217e-14
-2.20432e-16
-0.00257813
-0.00581358
0.00406235
-0.0215933
0.0362298
0.356824
0.702207
0.811723
0.631017
0.249751
-0.00587253
-0.076641
-0.0884128
-0.0895313
-0.0697882
-0.0342197
0.00304407
0.0310579
0.0439356
0.0417478
0.0255683
0.000884879
-0.0242915
-0.0418738
-0.0461087
-0.0358475
-0.0152116
0.00798656
0.0260037
0.0342843
0.0329351
0.0256037
0.0165652
0.00879486
0.00367299
0.00108286
0.00015544
-1.53493e-05
-1.29274e-05
-6.15427e-06
-1.99007e-06
-3.52991e-07
-1.2928e-08
3.61107e-11
2.11065e-11
9.66612e-12
3.32101e-12
7.26495e-13
5.50678e-14
-2.18286e-16
-0.00249691
0.000498728
-0.00641259
0.00406234
-0.014273
0.00823105
0.0652483
0.0844704
0.0269443
-0.0702197
-0.0496519
-0.0431874
-0.0542295
-0.058993
-0.0450056
-0.0196683
0.00810435
0.0303761
0.0422318
0.0396195
0.0237214
-0.000184115
-0.0246418
-0.0418217
-0.0459262
-0.0356531
-0.0150616
0.00806222
0.0260151
0.0342637
0.0329077
0.0255805
0.0165494
0.0087866
0.00367017
0.00108243
0.000155473
-1.5351e-05
-1.29288e-05
-6.15311e-06
-1.98942e-06
-3.52941e-07
-1.2944e-08
3.41353e-11
2.05485e-11
9.66396e-12
3.3858e-12
7.46367e-13
5.58888e-14
-2.15639e-16
0.000971512
-8.78062e-05
0.000498737
-0.00581358
-0.00218557
-0.00173003
-0.0226422
-0.043291
-0.0278164
0.0197573
0.0254184
-0.00642209
-0.0370683
-0.049564
-0.0426968
-0.0226564
0.00369996
0.0276592
0.0406499
0.0388632
0.0236045
5.68236e-05
-0.0243331
-0.0416055
-0.0458124
-0.0356116
-0.0150689
0.00803194
0.0259857
0.0342455
0.0328998
0.0255787
0.0165506
0.00878875
0.00367176
0.0010831
0.000155606
-1.53426e-05
-1.29255e-05
-6.15223e-06
-1.98966e-06
-3.53157e-07
-1.2969e-08
3.53428e-11
2.11784e-11
9.8514e-12
3.39546e-12
7.31043e-13
5.20746e-14
-2.15744e-16
-0.000321554
0.000971502
-0.00249692
-0.00257814
-0.00293912
-0.0088852
-0.0108943
0.00904039
0.0466649
0.0551349
0.0286596
-0.00957433
-0.0399953
-0.0523552
-0.0462572
-0.0251995
0.00286308
0.0275949
0.0408626
0.0391528
0.0238677
0.00022289
-0.0242757
-0.0416104
-0.0458378
-0.0356395
-0.0150907
0.00802074
0.0259839
0.0342485
0.0329038
0.0255821
0.016553
0.00878997
0.00367217
0.00108315
0.0001556
-1.53408e-05
-1.29244e-05
-6.15203e-06
-1.98965e-06
-3.53142e-07
-1.29655e-08
3.49691e-11
2.09408e-11
9.75986e-12
3.3793e-12
7.33677e-13
5.34789e-14
-2.15632e-16
)
;

boundaryField
{
    movingWall
    {
        type            zeroGradient;
    }
    fixedWalls
    {
        type            zeroGradient;
    }
    frontAndBack
    {
        type            empty;
    }
}

