/*--------------------------------*- C++ -*----------------------------------*\
| =========                 |                                                 |
| \\      /  F ield         | OpenFOAM: The Open Source CFD Toolbox           |
|  \\    /   O peration     | Version:  v2006                                 |
|   \\  /    A nd           | Website:  www.openfoam.com                      |
|    \\/     M anipulation  |                                                 |
\*---------------------------------------------------------------------------*/
FoamFile
{
    version     2.0;
    format      ascii;
    class       volVectorField;
    location    "0";
    object      U_new;
}
// * * * * * * * * * * * * * * * * * * * * * * * * * * * * * * * * * * * * * //

dimensions      [0 1 -1 0 0 0 0];


internalField   nonuniform List<vector> 
2500
(
(0.000232 -0.006728 0)
(0.000232 -0.020184 0)
(0.000232 -0.03364 0)
(0.000232 -0.047096 0)
(0.000232 -0.060552 0)
(0.000232 -0.074008 0)
(0.000232 -0.087464 0)
(0.000232 -0.10092 0)
(0.000232 -0.114376 0)
(0.000232 -0.127832 0)
(0.000232 -0.141288 0)
(0.000232 -0.154744 0)
(0.000232 -0.1682 0)
(0.000232 -0.181656 0)
(0.000232 -0.195112 0)
(0.000232 -0.208568 0)
(0.000232 -0.222024 0)
(0.000232 -0.23548 0)
(0.000232 -0.248936 0)
(0.000232 -0.262392 0)
(0.000232 -0.275848 0)
(0.000232 -0.289304 0)
(0.000232 -0.30276 0)
(0.000232 -0.316216 0)
(0.000232 -0.329672 0)
(0.000232 -0.343128 0)
(0.000232 -0.356584 0)
(0.000232 -0.37004 0)
(0.000232 -0.383496 0)
(0.000232 -0.396952 0)
(0.000232 -0.410408 0)
(0.000232 -0.423864 0)
(0.000232 -0.43732 0)
(0.000232 -0.450776 0)
(0.000232 -0.464232 0)
(0.000232 -0.477688 0)
(0.000232 -0.491144 0)
(0.000232 -0.5046 0)
(0.000232 -0.518056 0)
(0.000232 -0.531512 0)
(0.000232 -0.544968 0)
(0.000232 -0.558424 0)
(0.000232 -0.57188 0)
(0.000232 -0.585336 0)
(0.000232 -0.598792 0)
(0.000232 -0.612248 0)
(0.000232 -0.625704 0)
(0.000232 -0.63916 0)
(0.000232 -0.652616 0)
(0.000232 -0.666072 0)
(0.002088 -0.006728 0)
(0.002088 -0.020184 0)
(0.002088 -0.03364 0)
(0.002088 -0.047096 0)
(0.002088 -0.060552 0)
(0.002088 -0.074008 0)
(0.002088 -0.087464 0)
(0.002088 -0.10092 0)
(0.002088 -0.114376 0)
(0.002088 -0.127832 0)
(0.002088 -0.141288 0)
(0.002088 -0.154744 0)
(0.002088 -0.1682 0)
(0.002088 -0.181656 0)
(0.002088 -0.195112 0)
(0.002088 -0.208568 0)
(0.002088 -0.222024 0)
(0.002088 -0.23548 0)
(0.002088 -0.248936 0)
(0.002088 -0.262392 0)
(0.002088 -0.275848 0)
(0.002088 -0.289304 0)
(0.002088 -0.30276 0)
(0.002088 -0.316216 0)
(0.002088 -0.329672 0)
(0.002088 -0.343128 0)
(0.002088 -0.356584 0)
(0.002088 -0.37004 0)
(0.002088 -0.383496 0)
(0.002088 -0.396952 0)
(0.002088 -0.410408 0)
(0.002088 -0.423864 0)
(0.002088 -0.43732 0)
(0.002088 -0.450776 0)
(0.002088 -0.464232 0)
(0.002088 -0.477688 0)
(0.002088 -0.491144 0)
(0.002088 -0.5046 0)
(0.002088 -0.518056 0)
(0.002088 -0.531512 0)
(0.002088 -0.544968 0)
(0.002088 -0.558424 0)
(0.002088 -0.57188 0)
(0.002088 -0.585336 0)
(0.002088 -0.598792 0)
(0.002088 -0.612248 0)
(0.002088 -0.625704 0)
(0.002088 -0.63916 0)
(0.002088 -0.652616 0)
(0.002088 -0.666072 0)
(0.0058 -0.006728 0)
(0.0058 -0.020184 0)
(0.0058 -0.03364 0)
(0.0058 -0.047096 0)
(0.0058 -0.060552 0)
(0.0058 -0.074008 0)
(0.0058 -0.087464 0)
(0.0058 -0.10092 0)
(0.0058 -0.114376 0)
(0.0058 -0.127832 0)
(0.0058 -0.141288 0)
(0.0058 -0.154744 0)
(0.0058 -0.1682 0)
(0.0058 -0.181656 0)
(0.0058 -0.195112 0)
(0.0058 -0.208568 0)
(0.0058 -0.222024 0)
(0.0058 -0.23548 0)
(0.0058 -0.248936 0)
(0.0058 -0.262392 0)
(0.0058 -0.275848 0)
(0.0058 -0.289304 0)
(0.0058 -0.30276 0)
(0.0058 -0.316216 0)
(0.0058 -0.329672 0)
(0.0058 -0.343128 0)
(0.0058 -0.356584 0)
(0.0058 -0.37004 0)
(0.0058 -0.383496 0)
(0.0058 -0.396952 0)
(0.0058 -0.410408 0)
(0.0058 -0.423864 0)
(0.0058 -0.43732 0)
(0.0058 -0.450776 0)
(0.0058 -0.464232 0)
(0.0058 -0.477688 0)
(0.0058 -0.491144 0)
(0.0058 -0.5046 0)
(0.0058 -0.518056 0)
(0.0058 -0.531512 0)
(0.0058 -0.544968 0)
(0.0058 -0.558424 0)
(0.0058 -0.57188 0)
(0.0058 -0.585336 0)
(0.0058 -0.598792 0)
(0.0058 -0.612248 0)
(0.0058 -0.625704 0)
(0.0058 -0.63916 0)
(0.0058 -0.652616 0)
(0.0058 -0.666072 0)
(0.011368 -0.006728 0)
(0.011368 -0.020184 0)
(0.011368 -0.03364 0)
(0.011368 -0.047096 0)
(0.011368 -0.060552 0)
(0.011368 -0.074008 0)
(0.011368 -0.087464 0)
(0.011368 -0.10092 0)
(0.011368 -0.114376 0)
(0.011368 -0.127832 0)
(0.011368 -0.141288 0)
(0.011368 -0.154744 0)
(0.011368 -0.1682 0)
(0.011368 -0.181656 0)
(0.011368 -0.195112 0)
(0.011368 -0.208568 0)
(0.011368 -0.222024 0)
(0.011368 -0.23548 0)
(0.011368 -0.248936 0)
(0.011368 -0.262392 0)
(0.011368 -0.275848 0)
(0.011368 -0.289304 0)
(0.011368 -0.30276 0)
(0.011368 -0.316216 0)
(0.011368 -0.329672 0)
(0.011368 -0.343128 0)
(0.011368 -0.356584 0)
(0.011368 -0.37004 0)
(0.011368 -0.383496 0)
(0.011368 -0.396952 0)
(0.011368 -0.410408 0)
(0.011368 -0.423864 0)
(0.011368 -0.43732 0)
(0.011368 -0.450776 0)
(0.011368 -0.464232 0)
(0.011368 -0.477688 0)
(0.011368 -0.491144 0)
(0.011368 -0.5046 0)
(0.011368 -0.518056 0)
(0.011368 -0.531512 0)
(0.011368 -0.544968 0)
(0.011368 -0.558424 0)
(0.011368 -0.57188 0)
(0.011368 -0.585336 0)
(0.011368 -0.598792 0)
(0.011368 -0.612248 0)
(0.011368 -0.625704 0)
(0.011368 -0.63916 0)
(0.011368 -0.652616 0)
(0.011368 -0.666072 0)
(0.018792 -0.006728 0)
(0.018792 -0.020184 0)
(0.018792 -0.03364 0)
(0.018792 -0.047096 0)
(0.018792 -0.060552 0)
(0.018792 -0.074008 0)
(0.018792 -0.087464 0)
(0.018792 -0.10092 0)
(0.018792 -0.114376 0)
(0.018792 -0.127832 0)
(0.018792 -0.141288 0)
(0.018792 -0.154744 0)
(0.018792 -0.1682 0)
(0.018792 -0.181656 0)
(0.018792 -0.195112 0)
(0.018792 -0.208568 0)
(0.018792 -0.222024 0)
(0.018792 -0.23548 0)
(0.018792 -0.248936 0)
(0.018792 -0.262392 0)
(0.018792 -0.275848 0)
(0.018792 -0.289304 0)
(0.018792 -0.30276 0)
(0.018792 -0.316216 0)
(0.018792 -0.329672 0)
(0.018792 -0.343128 0)
(0.018792 -0.356584 0)
(0.018792 -0.37004 0)
(0.018792 -0.383496 0)
(0.018792 -0.396952 0)
(0.018792 -0.410408 0)
(0.018792 -0.423864 0)
(0.018792 -0.43732 0)
(0.018792 -0.450776 0)
(0.018792 -0.464232 0)
(0.018792 -0.477688 0)
(0.018792 -0.491144 0)
(0.018792 -0.5046 0)
(0.018792 -0.518056 0)
(0.018792 -0.531512 0)
(0.018792 -0.544968 0)
(0.018792 -0.558424 0)
(0.018792 -0.57188 0)
(0.018792 -0.585336 0)
(0.018792 -0.598792 0)
(0.018792 -0.612248 0)
(0.018792 -0.625704 0)
(0.018792 -0.63916 0)
(0.018792 -0.652616 0)
(0.018792 -0.666072 0)
(0.028072 -0.006728 0)
(0.028072 -0.020184 0)
(0.028072 -0.03364 0)
(0.028072 -0.047096 0)
(0.028072 -0.060552 0)
(0.028072 -0.074008 0)
(0.028072 -0.087464 0)
(0.028072 -0.10092 0)
(0.028072 -0.114376 0)
(0.028072 -0.127832 0)
(0.028072 -0.141288 0)
(0.028072 -0.154744 0)
(0.028072 -0.1682 0)
(0.028072 -0.181656 0)
(0.028072 -0.195112 0)
(0.028072 -0.208568 0)
(0.028072 -0.222024 0)
(0.028072 -0.23548 0)
(0.028072 -0.248936 0)
(0.028072 -0.262392 0)
(0.028072 -0.275848 0)
(0.028072 -0.289304 0)
(0.028072 -0.30276 0)
(0.028072 -0.316216 0)
(0.028072 -0.329672 0)
(0.028072 -0.343128 0)
(0.028072 -0.356584 0)
(0.028072 -0.37004 0)
(0.028072 -0.383496 0)
(0.028072 -0.396952 0)
(0.028072 -0.410408 0)
(0.028072 -0.423864 0)
(0.028072 -0.43732 0)
(0.028072 -0.450776 0)
(0.028072 -0.464232 0)
(0.028072 -0.477688 0)
(0.028072 -0.491144 0)
(0.028072 -0.5046 0)
(0.028072 -0.518056 0)
(0.028072 -0.531512 0)
(0.028072 -0.544968 0)
(0.028072 -0.558424 0)
(0.028072 -0.57188 0)
(0.028072 -0.585336 0)
(0.028072 -0.598792 0)
(0.028072 -0.612248 0)
(0.028072 -0.625704 0)
(0.028072 -0.63916 0)
(0.028072 -0.652616 0)
(0.028072 -0.666072 0)
(0.039208 -0.006728 0)
(0.039208 -0.020184 0)
(0.039208 -0.03364 0)
(0.039208 -0.047096 0)
(0.039208 -0.060552 0)
(0.039208 -0.074008 0)
(0.039208 -0.087464 0)
(0.039208 -0.10092 0)
(0.039208 -0.114376 0)
(0.039208 -0.127832 0)
(0.039208 -0.141288 0)
(0.039208 -0.154744 0)
(0.039208 -0.1682 0)
(0.039208 -0.181656 0)
(0.039208 -0.195112 0)
(0.039208 -0.208568 0)
(0.039208 -0.222024 0)
(0.039208 -0.23548 0)
(0.039208 -0.248936 0)
(0.039208 -0.262392 0)
(0.039208 -0.275848 0)
(0.039208 -0.289304 0)
(0.039208 -0.30276 0)
(0.039208 -0.316216 0)
(0.039208 -0.329672 0)
(0.039208 -0.343128 0)
(0.039208 -0.356584 0)
(0.039208 -0.37004 0)
(0.039208 -0.383496 0)
(0.039208 -0.396952 0)
(0.039208 -0.410408 0)
(0.039208 -0.423864 0)
(0.039208 -0.43732 0)
(0.039208 -0.450776 0)
(0.039208 -0.464232 0)
(0.039208 -0.477688 0)
(0.039208 -0.491144 0)
(0.039208 -0.5046 0)
(0.039208 -0.518056 0)
(0.039208 -0.531512 0)
(0.039208 -0.544968 0)
(0.039208 -0.558424 0)
(0.039208 -0.57188 0)
(0.039208 -0.585336 0)
(0.039208 -0.598792 0)
(0.039208 -0.612248 0)
(0.039208 -0.625704 0)
(0.039208 -0.63916 0)
(0.039208 -0.652616 0)
(0.039208 -0.666072 0)
(0.0522 -0.006728 0)
(0.0522 -0.020184 0)
(0.0522 -0.03364 0)
(0.0522 -0.047096 0)
(0.0522 -0.060552 0)
(0.0522 -0.074008 0)
(0.0522 -0.087464 0)
(0.0522 -0.10092 0)
(0.0522 -0.114376 0)
(0.0522 -0.127832 0)
(0.0522 -0.141288 0)
(0.0522 -0.154744 0)
(0.0522 -0.1682 0)
(0.0522 -0.181656 0)
(0.0522 -0.195112 0)
(0.0522 -0.208568 0)
(0.0522 -0.222024 0)
(0.0522 -0.23548 0)
(0.0522 -0.248936 0)
(0.0522 -0.262392 0)
(0.0522 -0.275848 0)
(0.0522 -0.289304 0)
(0.0522 -0.30276 0)
(0.0522 -0.316216 0)
(0.0522 -0.329672 0)
(0.0522 -0.343128 0)
(0.0522 -0.356584 0)
(0.0522 -0.37004 0)
(0.0522 -0.383496 0)
(0.0522 -0.396952 0)
(0.0522 -0.410408 0)
(0.0522 -0.423864 0)
(0.0522 -0.43732 0)
(0.0522 -0.450776 0)
(0.0522 -0.464232 0)
(0.0522 -0.477688 0)
(0.0522 -0.491144 0)
(0.0522 -0.5046 0)
(0.0522 -0.518056 0)
(0.0522 -0.531512 0)
(0.0522 -0.544968 0)
(0.0522 -0.558424 0)
(0.0522 -0.57188 0)
(0.0522 -0.585336 0)
(0.0522 -0.598792 0)
(0.0522 -0.612248 0)
(0.0522 -0.625704 0)
(0.0522 -0.63916 0)
(0.0522 -0.652616 0)
(0.0522 -0.666072 0)
(0.067048 -0.006728 0)
(0.067048 -0.020184 0)
(0.067048 -0.03364 0)
(0.067048 -0.047096 0)
(0.067048 -0.060552 0)
(0.067048 -0.074008 0)
(0.067048 -0.087464 0)
(0.067048 -0.10092 0)
(0.067048 -0.114376 0)
(0.067048 -0.127832 0)
(0.067048 -0.141288 0)
(0.067048 -0.154744 0)
(0.067048 -0.1682 0)
(0.067048 -0.181656 0)
(0.067048 -0.195112 0)
(0.067048 -0.208568 0)
(0.067048 -0.222024 0)
(0.067048 -0.23548 0)
(0.067048 -0.248936 0)
(0.067048 -0.262392 0)
(0.067048 -0.275848 0)
(0.067048 -0.289304 0)
(0.067048 -0.30276 0)
(0.067048 -0.316216 0)
(0.067048 -0.329672 0)
(0.067048 -0.343128 0)
(0.067048 -0.356584 0)
(0.067048 -0.37004 0)
(0.067048 -0.383496 0)
(0.067048 -0.396952 0)
(0.067048 -0.410408 0)
(0.067048 -0.423864 0)
(0.067048 -0.43732 0)
(0.067048 -0.450776 0)
(0.067048 -0.464232 0)
(0.067048 -0.477688 0)
(0.067048 -0.491144 0)
(0.067048 -0.5046 0)
(0.067048 -0.518056 0)
(0.067048 -0.531512 0)
(0.067048 -0.544968 0)
(0.067048 -0.558424 0)
(0.067048 -0.57188 0)
(0.067048 -0.585336 0)
(0.067048 -0.598792 0)
(0.067048 -0.612248 0)
(0.067048 -0.625704 0)
(0.067048 -0.63916 0)
(0.067048 -0.652616 0)
(0.067048 -0.666072 0)
(0.083752 -0.006728 0)
(0.083752 -0.020184 0)
(0.083752 -0.03364 0)
(0.083752 -0.047096 0)
(0.083752 -0.060552 0)
(0.083752 -0.074008 0)
(0.083752 -0.087464 0)
(0.083752 -0.10092 0)
(0.083752 -0.114376 0)
(0.083752 -0.127832 0)
(0.083752 -0.141288 0)
(0.083752 -0.154744 0)
(0.083752 -0.1682 0)
(0.083752 -0.181656 0)
(0.083752 -0.195112 0)
(0.083752 -0.208568 0)
(0.083752 -0.222024 0)
(0.083752 -0.23548 0)
(0.083752 -0.248936 0)
(0.083752 -0.262392 0)
(0.083752 -0.275848 0)
(0.083752 -0.289304 0)
(0.083752 -0.30276 0)
(0.083752 -0.316216 0)
(0.083752 -0.329672 0)
(0.083752 -0.343128 0)
(0.083752 -0.356584 0)
(0.083752 -0.37004 0)
(0.083752 -0.383496 0)
(0.083752 -0.396952 0)
(0.083752 -0.410408 0)
(0.083752 -0.423864 0)
(0.083752 -0.43732 0)
(0.083752 -0.450776 0)
(0.083752 -0.464232 0)
(0.083752 -0.477688 0)
(0.083752 -0.491144 0)
(0.083752 -0.5046 0)
(0.083752 -0.518056 0)
(0.083752 -0.531512 0)
(0.083752 -0.544968 0)
(0.083752 -0.558424 0)
(0.083752 -0.57188 0)
(0.083752 -0.585336 0)
(0.083752 -0.598792 0)
(0.083752 -0.612248 0)
(0.083752 -0.625704 0)
(0.083752 -0.63916 0)
(0.083752 -0.652616 0)
(0.083752 -0.666072 0)
(0.102312 -0.006728 0)
(0.102312 -0.020184 0)
(0.102312 -0.03364 0)
(0.102312 -0.047096 0)
(0.102312 -0.060552 0)
(0.102312 -0.074008 0)
(0.102312 -0.087464 0)
(0.102312 -0.10092 0)
(0.102312 -0.114376 0)
(0.102312 -0.127832 0)
(0.102312 -0.141288 0)
(0.102312 -0.154744 0)
(0.102312 -0.1682 0)
(0.102312 -0.181656 0)
(0.102312 -0.195112 0)
(0.102312 -0.208568 0)
(0.102312 -0.222024 0)
(0.102312 -0.23548 0)
(0.102312 -0.248936 0)
(0.102312 -0.262392 0)
(0.102312 -0.275848 0)
(0.102312 -0.289304 0)
(0.102312 -0.30276 0)
(0.102312 -0.316216 0)
(0.102312 -0.329672 0)
(0.102312 -0.343128 0)
(0.102312 -0.356584 0)
(0.102312 -0.37004 0)
(0.102312 -0.383496 0)
(0.102312 -0.396952 0)
(0.102312 -0.410408 0)
(0.102312 -0.423864 0)
(0.102312 -0.43732 0)
(0.102312 -0.450776 0)
(0.102312 -0.464232 0)
(0.102312 -0.477688 0)
(0.102312 -0.491144 0)
(0.102312 -0.5046 0)
(0.102312 -0.518056 0)
(0.102312 -0.531512 0)
(0.102312 -0.544968 0)
(0.102312 -0.558424 0)
(0.102312 -0.57188 0)
(0.102312 -0.585336 0)
(0.102312 -0.598792 0)
(0.102312 -0.612248 0)
(0.102312 -0.625704 0)
(0.102312 -0.63916 0)
(0.102312 -0.652616 0)
(0.102312 -0.666072 0)
(0.122728 -0.006728 0)
(0.122728 -0.020184 0)
(0.122728 -0.03364 0)
(0.122728 -0.047096 0)
(0.122728 -0.060552 0)
(0.122728 -0.074008 0)
(0.122728 -0.087464 0)
(0.122728 -0.10092 0)
(0.122728 -0.114376 0)
(0.122728 -0.127832 0)
(0.122728 -0.141288 0)
(0.122728 -0.154744 0)
(0.122728 -0.1682 0)
(0.122728 -0.181656 0)
(0.122728 -0.195112 0)
(0.122728 -0.208568 0)
(0.122728 -0.222024 0)
(0.122728 -0.23548 0)
(0.122728 -0.248936 0)
(0.122728 -0.262392 0)
(0.122728 -0.275848 0)
(0.122728 -0.289304 0)
(0.122728 -0.30276 0)
(0.122728 -0.316216 0)
(0.122728 -0.329672 0)
(0.122728 -0.343128 0)
(0.122728 -0.356584 0)
(0.122728 -0.37004 0)
(0.122728 -0.383496 0)
(0.122728 -0.396952 0)
(0.122728 -0.410408 0)
(0.122728 -0.423864 0)
(0.122728 -0.43732 0)
(0.122728 -0.450776 0)
(0.122728 -0.464232 0)
(0.122728 -0.477688 0)
(0.122728 -0.491144 0)
(0.122728 -0.5046 0)
(0.122728 -0.518056 0)
(0.122728 -0.531512 0)
(0.122728 -0.544968 0)
(0.122728 -0.558424 0)
(0.122728 -0.57188 0)
(0.122728 -0.585336 0)
(0.122728 -0.598792 0)
(0.122728 -0.612248 0)
(0.122728 -0.625704 0)
(0.122728 -0.63916 0)
(0.122728 -0.652616 0)
(0.122728 -0.666072 0)
(0.145 -0.006728 0)
(0.145 -0.020184 0)
(0.145 -0.03364 0)
(0.145 -0.047096 0)
(0.145 -0.060552 0)
(0.145 -0.074008 0)
(0.145 -0.087464 0)
(0.145 -0.10092 0)
(0.145 -0.114376 0)
(0.145 -0.127832 0)
(0.145 -0.141288 0)
(0.145 -0.154744 0)
(0.145 -0.1682 0)
(0.145 -0.181656 0)
(0.145 -0.195112 0)
(0.145 -0.208568 0)
(0.145 -0.222024 0)
(0.145 -0.23548 0)
(0.145 -0.248936 0)
(0.145 -0.262392 0)
(0.145 -0.275848 0)
(0.145 -0.289304 0)
(0.145 -0.30276 0)
(0.145 -0.316216 0)
(0.145 -0.329672 0)
(0.145 -0.343128 0)
(0.145 -0.356584 0)
(0.145 -0.37004 0)
(0.145 -0.383496 0)
(0.145 -0.396952 0)
(0.145 -0.410408 0)
(0.145 -0.423864 0)
(0.145 -0.43732 0)
(0.145 -0.450776 0)
(0.145 -0.464232 0)
(0.145 -0.477688 0)
(0.145 -0.491144 0)
(0.145 -0.5046 0)
(0.145 -0.518056 0)
(0.145 -0.531512 0)
(0.145 -0.544968 0)
(0.145 -0.558424 0)
(0.145 -0.57188 0)
(0.145 -0.585336 0)
(0.145 -0.598792 0)
(0.145 -0.612248 0)
(0.145 -0.625704 0)
(0.145 -0.63916 0)
(0.145 -0.652616 0)
(0.145 -0.666072 0)
(0.169128 -0.006728 0)
(0.169128 -0.020184 0)
(0.169128 -0.03364 0)
(0.169128 -0.047096 0)
(0.169128 -0.060552 0)
(0.169128 -0.074008 0)
(0.169128 -0.087464 0)
(0.169128 -0.10092 0)
(0.169128 -0.114376 0)
(0.169128 -0.127832 0)
(0.169128 -0.141288 0)
(0.169128 -0.154744 0)
(0.169128 -0.1682 0)
(0.169128 -0.181656 0)
(0.169128 -0.195112 0)
(0.169128 -0.208568 0)
(0.169128 -0.222024 0)
(0.169128 -0.23548 0)
(0.169128 -0.248936 0)
(0.169128 -0.262392 0)
(0.169128 -0.275848 0)
(0.169128 -0.289304 0)
(0.169128 -0.30276 0)
(0.169128 -0.316216 0)
(0.169128 -0.329672 0)
(0.169128 -0.343128 0)
(0.169128 -0.356584 0)
(0.169128 -0.37004 0)
(0.169128 -0.383496 0)
(0.169128 -0.396952 0)
(0.169128 -0.410408 0)
(0.169128 -0.423864 0)
(0.169128 -0.43732 0)
(0.169128 -0.450776 0)
(0.169128 -0.464232 0)
(0.169128 -0.477688 0)
(0.169128 -0.491144 0)
(0.169128 -0.5046 0)
(0.169128 -0.518056 0)
(0.169128 -0.531512 0)
(0.169128 -0.544968 0)
(0.169128 -0.558424 0)
(0.169128 -0.57188 0)
(0.169128 -0.585336 0)
(0.169128 -0.598792 0)
(0.169128 -0.612248 0)
(0.169128 -0.625704 0)
(0.169128 -0.63916 0)
(0.169128 -0.652616 0)
(0.169128 -0.666072 0)
(0.195112 -0.006728 0)
(0.195112 -0.020184 0)
(0.195112 -0.03364 0)
(0.195112 -0.047096 0)
(0.195112 -0.060552 0)
(0.195112 -0.074008 0)
(0.195112 -0.087464 0)
(0.195112 -0.10092 0)
(0.195112 -0.114376 0)
(0.195112 -0.127832 0)
(0.195112 -0.141288 0)
(0.195112 -0.154744 0)
(0.195112 -0.1682 0)
(0.195112 -0.181656 0)
(0.195112 -0.195112 0)
(0.195112 -0.208568 0)
(0.195112 -0.222024 0)
(0.195112 -0.23548 0)
(0.195112 -0.248936 0)
(0.195112 -0.262392 0)
(0.195112 -0.275848 0)
(0.195112 -0.289304 0)
(0.195112 -0.30276 0)
(0.195112 -0.316216 0)
(0.195112 -0.329672 0)
(0.195112 -0.343128 0)
(0.195112 -0.356584 0)
(0.195112 -0.37004 0)
(0.195112 -0.383496 0)
(0.195112 -0.396952 0)
(0.195112 -0.410408 0)
(0.195112 -0.423864 0)
(0.195112 -0.43732 0)
(0.195112 -0.450776 0)
(0.195112 -0.464232 0)
(0.195112 -0.477688 0)
(0.195112 -0.491144 0)
(0.195112 -0.5046 0)
(0.195112 -0.518056 0)
(0.195112 -0.531512 0)
(0.195112 -0.544968 0)
(0.195112 -0.558424 0)
(0.195112 -0.57188 0)
(0.195112 -0.585336 0)
(0.195112 -0.598792 0)
(0.195112 -0.612248 0)
(0.195112 -0.625704 0)
(0.195112 -0.63916 0)
(0.195112 -0.652616 0)
(0.195112 -0.666072 0)
(0.222952 -0.006728 0)
(0.222952 -0.020184 0)
(0.222952 -0.03364 0)
(0.222952 -0.047096 0)
(0.222952 -0.060552 0)
(0.222952 -0.074008 0)
(0.222952 -0.087464 0)
(0.222952 -0.10092 0)
(0.222952 -0.114376 0)
(0.222952 -0.127832 0)
(0.222952 -0.141288 0)
(0.222952 -0.154744 0)
(0.222952 -0.1682 0)
(0.222952 -0.181656 0)
(0.222952 -0.195112 0)
(0.222952 -0.208568 0)
(0.222952 -0.222024 0)
(0.222952 -0.23548 0)
(0.222952 -0.248936 0)
(0.222952 -0.262392 0)
(0.222952 -0.275848 0)
(0.222952 -0.289304 0)
(0.222952 -0.30276 0)
(0.222952 -0.316216 0)
(0.222952 -0.329672 0)
(0.222952 -0.343128 0)
(0.222952 -0.356584 0)
(0.222952 -0.37004 0)
(0.222952 -0.383496 0)
(0.222952 -0.396952 0)
(0.222952 -0.410408 0)
(0.222952 -0.423864 0)
(0.222952 -0.43732 0)
(0.222952 -0.450776 0)
(0.222952 -0.464232 0)
(0.222952 -0.477688 0)
(0.222952 -0.491144 0)
(0.222952 -0.5046 0)
(0.222952 -0.518056 0)
(0.222952 -0.531512 0)
(0.222952 -0.544968 0)
(0.222952 -0.558424 0)
(0.222952 -0.57188 0)
(0.222952 -0.585336 0)
(0.222952 -0.598792 0)
(0.222952 -0.612248 0)
(0.222952 -0.625704 0)
(0.222952 -0.63916 0)
(0.222952 -0.652616 0)
(0.222952 -0.666072 0)
(0.252648 -0.006728 0)
(0.252648 -0.020184 0)
(0.252648 -0.03364 0)
(0.252648 -0.047096 0)
(0.252648 -0.060552 0)
(0.252648 -0.074008 0)
(0.252648 -0.087464 0)
(0.252648 -0.10092 0)
(0.252648 -0.114376 0)
(0.252648 -0.127832 0)
(0.252648 -0.141288 0)
(0.252648 -0.154744 0)
(0.252648 -0.1682 0)
(0.252648 -0.181656 0)
(0.252648 -0.195112 0)
(0.252648 -0.208568 0)
(0.252648 -0.222024 0)
(0.252648 -0.23548 0)
(0.252648 -0.248936 0)
(0.252648 -0.262392 0)
(0.252648 -0.275848 0)
(0.252648 -0.289304 0)
(0.252648 -0.30276 0)
(0.252648 -0.316216 0)
(0.252648 -0.329672 0)
(0.252648 -0.343128 0)
(0.252648 -0.356584 0)
(0.252648 -0.37004 0)
(0.252648 -0.383496 0)
(0.252648 -0.396952 0)
(0.252648 -0.410408 0)
(0.252648 -0.423864 0)
(0.252648 -0.43732 0)
(0.252648 -0.450776 0)
(0.252648 -0.464232 0)
(0.252648 -0.477688 0)
(0.252648 -0.491144 0)
(0.252648 -0.5046 0)
(0.252648 -0.518056 0)
(0.252648 -0.531512 0)
(0.252648 -0.544968 0)
(0.252648 -0.558424 0)
(0.252648 -0.57188 0)
(0.252648 -0.585336 0)
(0.252648 -0.598792 0)
(0.252648 -0.612248 0)
(0.252648 -0.625704 0)
(0.252648 -0.63916 0)
(0.252648 -0.652616 0)
(0.252648 -0.666072 0)
(0.2842 -0.006728 0)
(0.2842 -0.020184 0)
(0.2842 -0.03364 0)
(0.2842 -0.047096 0)
(0.2842 -0.060552 0)
(0.2842 -0.074008 0)
(0.2842 -0.087464 0)
(0.2842 -0.10092 0)
(0.2842 -0.114376 0)
(0.2842 -0.127832 0)
(0.2842 -0.141288 0)
(0.2842 -0.154744 0)
(0.2842 -0.1682 0)
(0.2842 -0.181656 0)
(0.2842 -0.195112 0)
(0.2842 -0.208568 0)
(0.2842 -0.222024 0)
(0.2842 -0.23548 0)
(0.2842 -0.248936 0)
(0.2842 -0.262392 0)
(0.2842 -0.275848 0)
(0.2842 -0.289304 0)
(0.2842 -0.30276 0)
(0.2842 -0.316216 0)
(0.2842 -0.329672 0)
(0.2842 -0.343128 0)
(0.2842 -0.356584 0)
(0.2842 -0.37004 0)
(0.2842 -0.383496 0)
(0.2842 -0.396952 0)
(0.2842 -0.410408 0)
(0.2842 -0.423864 0)
(0.2842 -0.43732 0)
(0.2842 -0.450776 0)
(0.2842 -0.464232 0)
(0.2842 -0.477688 0)
(0.2842 -0.491144 0)
(0.2842 -0.5046 0)
(0.2842 -0.518056 0)
(0.2842 -0.531512 0)
(0.2842 -0.544968 0)
(0.2842 -0.558424 0)
(0.2842 -0.57188 0)
(0.2842 -0.585336 0)
(0.2842 -0.598792 0)
(0.2842 -0.612248 0)
(0.2842 -0.625704 0)
(0.2842 -0.63916 0)
(0.2842 -0.652616 0)
(0.2842 -0.666072 0)
(0.317608 -0.006728 0)
(0.317608 -0.020184 0)
(0.317608 -0.03364 0)
(0.317608 -0.047096 0)
(0.317608 -0.060552 0)
(0.317608 -0.074008 0)
(0.317608 -0.087464 0)
(0.317608 -0.10092 0)
(0.317608 -0.114376 0)
(0.317608 -0.127832 0)
(0.317608 -0.141288 0)
(0.317608 -0.154744 0)
(0.317608 -0.1682 0)
(0.317608 -0.181656 0)
(0.317608 -0.195112 0)
(0.317608 -0.208568 0)
(0.317608 -0.222024 0)
(0.317608 -0.23548 0)
(0.317608 -0.248936 0)
(0.317608 -0.262392 0)
(0.317608 -0.275848 0)
(0.317608 -0.289304 0)
(0.317608 -0.30276 0)
(0.317608 -0.316216 0)
(0.317608 -0.329672 0)
(0.317608 -0.343128 0)
(0.317608 -0.356584 0)
(0.317608 -0.37004 0)
(0.317608 -0.383496 0)
(0.317608 -0.396952 0)
(0.317608 -0.410408 0)
(0.317608 -0.423864 0)
(0.317608 -0.43732 0)
(0.317608 -0.450776 0)
(0.317608 -0.464232 0)
(0.317608 -0.477688 0)
(0.317608 -0.491144 0)
(0.317608 -0.5046 0)
(0.317608 -0.518056 0)
(0.317608 -0.531512 0)
(0.317608 -0.544968 0)
(0.317608 -0.558424 0)
(0.317608 -0.57188 0)
(0.317608 -0.585336 0)
(0.317608 -0.598792 0)
(0.317608 -0.612248 0)
(0.317608 -0.625704 0)
(0.317608 -0.63916 0)
(0.317608 -0.652616 0)
(0.317608 -0.666072 0)
(0.352872 -0.006728 0)
(0.352872 -0.020184 0)
(0.352872 -0.03364 0)
(0.352872 -0.047096 0)
(0.352872 -0.060552 0)
(0.352872 -0.074008 0)
(0.352872 -0.087464 0)
(0.352872 -0.10092 0)
(0.352872 -0.114376 0)
(0.352872 -0.127832 0)
(0.352872 -0.141288 0)
(0.352872 -0.154744 0)
(0.352872 -0.1682 0)
(0.352872 -0.181656 0)
(0.352872 -0.195112 0)
(0.352872 -0.208568 0)
(0.352872 -0.222024 0)
(0.352872 -0.23548 0)
(0.352872 -0.248936 0)
(0.352872 -0.262392 0)
(0.352872 -0.275848 0)
(0.352872 -0.289304 0)
(0.352872 -0.30276 0)
(0.352872 -0.316216 0)
(0.352872 -0.329672 0)
(0.352872 -0.343128 0)
(0.352872 -0.356584 0)
(0.352872 -0.37004 0)
(0.352872 -0.383496 0)
(0.352872 -0.396952 0)
(0.352872 -0.410408 0)
(0.352872 -0.423864 0)
(0.352872 -0.43732 0)
(0.352872 -0.450776 0)
(0.352872 -0.464232 0)
(0.352872 -0.477688 0)
(0.352872 -0.491144 0)
(0.352872 -0.5046 0)
(0.352872 -0.518056 0)
(0.352872 -0.531512 0)
(0.352872 -0.544968 0)
(0.352872 -0.558424 0)
(0.352872 -0.57188 0)
(0.352872 -0.585336 0)
(0.352872 -0.598792 0)
(0.352872 -0.612248 0)
(0.352872 -0.625704 0)
(0.352872 -0.63916 0)
(0.352872 -0.652616 0)
(0.352872 -0.666072 0)
(0.389992 -0.006728 0)
(0.389992 -0.020184 0)
(0.389992 -0.03364 0)
(0.389992 -0.047096 0)
(0.389992 -0.060552 0)
(0.389992 -0.074008 0)
(0.389992 -0.087464 0)
(0.389992 -0.10092 0)
(0.389992 -0.114376 0)
(0.389992 -0.127832 0)
(0.389992 -0.141288 0)
(0.389992 -0.154744 0)
(0.389992 -0.1682 0)
(0.389992 -0.181656 0)
(0.389992 -0.195112 0)
(0.389992 -0.208568 0)
(0.389992 -0.222024 0)
(0.389992 -0.23548 0)
(0.389992 -0.248936 0)
(0.389992 -0.262392 0)
(0.389992 -0.275848 0)
(0.389992 -0.289304 0)
(0.389992 -0.30276 0)
(0.389992 -0.316216 0)
(0.389992 -0.329672 0)
(0.389992 -0.343128 0)
(0.389992 -0.356584 0)
(0.389992 -0.37004 0)
(0.389992 -0.383496 0)
(0.389992 -0.396952 0)
(0.389992 -0.410408 0)
(0.389992 -0.423864 0)
(0.389992 -0.43732 0)
(0.389992 -0.450776 0)
(0.389992 -0.464232 0)
(0.389992 -0.477688 0)
(0.389992 -0.491144 0)
(0.389992 -0.5046 0)
(0.389992 -0.518056 0)
(0.389992 -0.531512 0)
(0.389992 -0.544968 0)
(0.389992 -0.558424 0)
(0.389992 -0.57188 0)
(0.389992 -0.585336 0)
(0.389992 -0.598792 0)
(0.389992 -0.612248 0)
(0.389992 -0.625704 0)
(0.389992 -0.63916 0)
(0.389992 -0.652616 0)
(0.389992 -0.666072 0)
(0.428968 -0.006728 0)
(0.428968 -0.020184 0)
(0.428968 -0.03364 0)
(0.428968 -0.047096 0)
(0.428968 -0.060552 0)
(0.428968 -0.074008 0)
(0.428968 -0.087464 0)
(0.428968 -0.10092 0)
(0.428968 -0.114376 0)
(0.428968 -0.127832 0)
(0.428968 -0.141288 0)
(0.428968 -0.154744 0)
(0.428968 -0.1682 0)
(0.428968 -0.181656 0)
(0.428968 -0.195112 0)
(0.428968 -0.208568 0)
(0.428968 -0.222024 0)
(0.428968 -0.23548 0)
(0.428968 -0.248936 0)
(0.428968 -0.262392 0)
(0.428968 -0.275848 0)
(0.428968 -0.289304 0)
(0.428968 -0.30276 0)
(0.428968 -0.316216 0)
(0.428968 -0.329672 0)
(0.428968 -0.343128 0)
(0.428968 -0.356584 0)
(0.428968 -0.37004 0)
(0.428968 -0.383496 0)
(0.428968 -0.396952 0)
(0.428968 -0.410408 0)
(0.428968 -0.423864 0)
(0.428968 -0.43732 0)
(0.428968 -0.450776 0)
(0.428968 -0.464232 0)
(0.428968 -0.477688 0)
(0.428968 -0.491144 0)
(0.428968 -0.5046 0)
(0.428968 -0.518056 0)
(0.428968 -0.531512 0)
(0.428968 -0.544968 0)
(0.428968 -0.558424 0)
(0.428968 -0.57188 0)
(0.428968 -0.585336 0)
(0.428968 -0.598792 0)
(0.428968 -0.612248 0)
(0.428968 -0.625704 0)
(0.428968 -0.63916 0)
(0.428968 -0.652616 0)
(0.428968 -0.666072 0)
(0.4698 -0.006728 0)
(0.4698 -0.020184 0)
(0.4698 -0.03364 0)
(0.4698 -0.047096 0)
(0.4698 -0.060552 0)
(0.4698 -0.074008 0)
(0.4698 -0.087464 0)
(0.4698 -0.10092 0)
(0.4698 -0.114376 0)
(0.4698 -0.127832 0)
(0.4698 -0.141288 0)
(0.4698 -0.154744 0)
(0.4698 -0.1682 0)
(0.4698 -0.181656 0)
(0.4698 -0.195112 0)
(0.4698 -0.208568 0)
(0.4698 -0.222024 0)
(0.4698 -0.23548 0)
(0.4698 -0.248936 0)
(0.4698 -0.262392 0)
(0.4698 -0.275848 0)
(0.4698 -0.289304 0)
(0.4698 -0.30276 0)
(0.4698 -0.316216 0)
(0.4698 -0.329672 0)
(0.4698 -0.343128 0)
(0.4698 -0.356584 0)
(0.4698 -0.37004 0)
(0.4698 -0.383496 0)
(0.4698 -0.396952 0)
(0.4698 -0.410408 0)
(0.4698 -0.423864 0)
(0.4698 -0.43732 0)
(0.4698 -0.450776 0)
(0.4698 -0.464232 0)
(0.4698 -0.477688 0)
(0.4698 -0.491144 0)
(0.4698 -0.5046 0)
(0.4698 -0.518056 0)
(0.4698 -0.531512 0)
(0.4698 -0.544968 0)
(0.4698 -0.558424 0)
(0.4698 -0.57188 0)
(0.4698 -0.585336 0)
(0.4698 -0.598792 0)
(0.4698 -0.612248 0)
(0.4698 -0.625704 0)
(0.4698 -0.63916 0)
(0.4698 -0.652616 0)
(0.4698 -0.666072 0)
(0.512488 -0.006728 0)
(0.512488 -0.020184 0)
(0.512488 -0.03364 0)
(0.512488 -0.047096 0)
(0.512488 -0.060552 0)
(0.512488 -0.074008 0)
(0.512488 -0.087464 0)
(0.512488 -0.10092 0)
(0.512488 -0.114376 0)
(0.512488 -0.127832 0)
(0.512488 -0.141288 0)
(0.512488 -0.154744 0)
(0.512488 -0.1682 0)
(0.512488 -0.181656 0)
(0.512488 -0.195112 0)
(0.512488 -0.208568 0)
(0.512488 -0.222024 0)
(0.512488 -0.23548 0)
(0.512488 -0.248936 0)
(0.512488 -0.262392 0)
(0.512488 -0.275848 0)
(0.512488 -0.289304 0)
(0.512488 -0.30276 0)
(0.512488 -0.316216 0)
(0.512488 -0.329672 0)
(0.512488 -0.343128 0)
(0.512488 -0.356584 0)
(0.512488 -0.37004 0)
(0.512488 -0.383496 0)
(0.512488 -0.396952 0)
(0.512488 -0.410408 0)
(0.512488 -0.423864 0)
(0.512488 -0.43732 0)
(0.512488 -0.450776 0)
(0.512488 -0.464232 0)
(0.512488 -0.477688 0)
(0.512488 -0.491144 0)
(0.512488 -0.5046 0)
(0.512488 -0.518056 0)
(0.512488 -0.531512 0)
(0.512488 -0.544968 0)
(0.512488 -0.558424 0)
(0.512488 -0.57188 0)
(0.512488 -0.585336 0)
(0.512488 -0.598792 0)
(0.512488 -0.612248 0)
(0.512488 -0.625704 0)
(0.512488 -0.63916 0)
(0.512488 -0.652616 0)
(0.512488 -0.666072 0)
(0.557032 -0.006728 0)
(0.557032 -0.020184 0)
(0.557032 -0.03364 0)
(0.557032 -0.047096 0)
(0.557032 -0.060552 0)
(0.557032 -0.074008 0)
(0.557032 -0.087464 0)
(0.557032 -0.10092 0)
(0.557032 -0.114376 0)
(0.557032 -0.127832 0)
(0.557032 -0.141288 0)
(0.557032 -0.154744 0)
(0.557032 -0.1682 0)
(0.557032 -0.181656 0)
(0.557032 -0.195112 0)
(0.557032 -0.208568 0)
(0.557032 -0.222024 0)
(0.557032 -0.23548 0)
(0.557032 -0.248936 0)
(0.557032 -0.262392 0)
(0.557032 -0.275848 0)
(0.557032 -0.289304 0)
(0.557032 -0.30276 0)
(0.557032 -0.316216 0)
(0.557032 -0.329672 0)
(0.557032 -0.343128 0)
(0.557032 -0.356584 0)
(0.557032 -0.37004 0)
(0.557032 -0.383496 0)
(0.557032 -0.396952 0)
(0.557032 -0.410408 0)
(0.557032 -0.423864 0)
(0.557032 -0.43732 0)
(0.557032 -0.450776 0)
(0.557032 -0.464232 0)
(0.557032 -0.477688 0)
(0.557032 -0.491144 0)
(0.557032 -0.5046 0)
(0.557032 -0.518056 0)
(0.557032 -0.531512 0)
(0.557032 -0.544968 0)
(0.557032 -0.558424 0)
(0.557032 -0.57188 0)
(0.557032 -0.585336 0)
(0.557032 -0.598792 0)
(0.557032 -0.612248 0)
(0.557032 -0.625704 0)
(0.557032 -0.63916 0)
(0.557032 -0.652616 0)
(0.557032 -0.666072 0)
(0.603432 -0.006728 0)
(0.603432 -0.020184 0)
(0.603432 -0.03364 0)
(0.603432 -0.047096 0)
(0.603432 -0.060552 0)
(0.603432 -0.074008 0)
(0.603432 -0.087464 0)
(0.603432 -0.10092 0)
(0.603432 -0.114376 0)
(0.603432 -0.127832 0)
(0.603432 -0.141288 0)
(0.603432 -0.154744 0)
(0.603432 -0.1682 0)
(0.603432 -0.181656 0)
(0.603432 -0.195112 0)
(0.603432 -0.208568 0)
(0.603432 -0.222024 0)
(0.603432 -0.23548 0)
(0.603432 -0.248936 0)
(0.603432 -0.262392 0)
(0.603432 -0.275848 0)
(0.603432 -0.289304 0)
(0.603432 -0.30276 0)
(0.603432 -0.316216 0)
(0.603432 -0.329672 0)
(0.603432 -0.343128 0)
(0.603432 -0.356584 0)
(0.603432 -0.37004 0)
(0.603432 -0.383496 0)
(0.603432 -0.396952 0)
(0.603432 -0.410408 0)
(0.603432 -0.423864 0)
(0.603432 -0.43732 0)
(0.603432 -0.450776 0)
(0.603432 -0.464232 0)
(0.603432 -0.477688 0)
(0.603432 -0.491144 0)
(0.603432 -0.5046 0)
(0.603432 -0.518056 0)
(0.603432 -0.531512 0)
(0.603432 -0.544968 0)
(0.603432 -0.558424 0)
(0.603432 -0.57188 0)
(0.603432 -0.585336 0)
(0.603432 -0.598792 0)
(0.603432 -0.612248 0)
(0.603432 -0.625704 0)
(0.603432 -0.63916 0)
(0.603432 -0.652616 0)
(0.603432 -0.666072 0)
(0.651688 -0.006728 0)
(0.651688 -0.020184 0)
(0.651688 -0.03364 0)
(0.651688 -0.047096 0)