/*--------------------------------*- C++ -*----------------------------------*\
| =========                 |                                                 |
| \\      /  F ield         | OpenFOAM: The Open Source CFD Toolbox           |
|  \\    /   O peration     | Version:  v2006                                 |
|   \\  /    A nd           | Website:  www.openfoam.com                      |
|    \\/     M anipulation  |                                                 |
\*---------------------------------------------------------------------------*/
FoamFile
{
    version     2.0;
    format      ascii;
    class       surfaceScalarField;
    location    "18.2";
    object      phi;
}
// * * * * * * * * * * * * * * * * * * * * * * * * * * * * * * * * * * * * * //

dimensions      [0 3 -1 0 0 0 0];
oriented        oriented;


internalField   nonuniform List<scalar> 
299200
(
0.000393934
-0.000393934
0.00103901
-0.000645072
0.00170353
-0.000664521
0.00234723
-0.000643705
0.00299295
-0.000645721
0.0036325
-0.000639546
0.00425427
-0.000621765
0.00484739
-0.000593128
0.00540414
-0.000556746
0.00592238
-0.000518241
0.00640222
-0.000479842
0.00684792
-0.000445692
0.00726479
-0.000416875
0.00765934
-0.000394547
0.00803805
-0.000378715
0.00840664
-0.000368593
0.00876926
-0.000362611
0.00912863
-0.000359375
0.00948549
-0.000356857
0.00983954
-0.000354048
0.0101891
-0.000349558
0.0105324
-0.000343268
0.0108675
-0.000335134
0.0111929
-0.000325384
0.0115079
-0.000315027
0.0118122
-0.000304337
0.0121067
-0.000294466
0.0123926
-0.00028593
0.0126715
-0.000278871
0.0129443
-0.000272815
0.0132112
-0.000266825
0.0134711
-0.000259996
0.0137222
-0.000251033
0.0139605
-0.000238309
0.0141818
-0.00022131
0.0143817
-0.000199925
0.014557
-0.000175253
0.014706
-0.000149026
0.0148286
-0.000122573
0.0149262
-9.7628e-05
0.015002
-7.57864e-05
0.0150598
-5.78508e-05
0.015104
-4.41191e-05
0.015138
-3.40251e-05
0.0151639
-2.59002e-05
0.0151831
-1.91721e-05
0.0151949
-1.1798e-05
0.0151991
-4.24637e-06
0.0151938
5.3223e-06
0.0151783
1.54309e-05
0.0151523
2.6e-05
0.015116
3.63729e-05
0.0150695
4.64606e-05
0.0150136
5.59152e-05
0.0149494
6.41717e-05
0.0148781
7.13026e-05
0.0148003
7.78084e-05
0.0147163
8.40254e-05
0.0146264
8.98829e-05
0.0145305
9.58815e-05
0.0144281
0.000102394
0.0143187
0.000109424
0.0142016
0.000117113
0.014076
0.000125614
0.0139418
0.000134165
0.0137991
0.000142709
0.0136479
0.000151187
0.0134887
0.000159185
0.0133224
0.000166383
0.0131499
0.00017246
0.0129726
0.000177253
0.0127921
0.000180497
0.0126097
0.000182455
0.0124268
0.000182918
0.0122446
0.000182166
0.0120638
0.000180762
0.0118848
0.000179062
0.0117078
0.000177021
0.011533
0.000174756
0.0113601
0.000172926
0.0111888
0.00017126
0.0110192
0.000169574
0.0108513
0.000167918
0.0106852
0.000166143
0.0105209
0.000164331
0.0103584
0.000162504
0.010198
0.000160383
0.0100397
0.0001583
0.00988371
0.000155958
0.00973078
0.000152932
0.00958065
0.000150123
0.00943349
0.000147163
0.0092899
0.000143588
0.00915039
0.000139509
0.00901559
0.000134809
0.00888609
0.000129491
0.00876356
0.000122539
0.00864837
0.000115183
0.00854229
0.000106083
0.00844678
9.55132e-05
0.0083631
8.36791e-05
0.00829212
7.09754e-05
0.00823297
5.91507e-05
0.00818485
4.81249e-05
0.00814502
3.98292e-05
0.00810925
3.57634e-05
0.0080729
3.63509e-05
0.00803081
4.20954e-05
0.00797812
5.26915e-05
0.00791176
6.63559e-05
0.00783083
8.09322e-05
0.00773638
9.44503e-05
0.00763154
0.000104835
0.00752077
0.000110772
0.00740896
0.000111811
0.00730109
0.000107867
0.00720158
9.95116e-05
0.00711374
8.78435e-05
0.00704064
7.31014e-05
0.00698471
5.59242e-05
0.00694712
3.75879e-05
0.00693029
1.68364e-05
0.00693471
-4.42133e-06
0.0069616
-2.68912e-05
0.00701267
-5.10682e-05
0.00708953
-7.68665e-05
0.00719171
-0.000102177
0.0073157
-0.000123987
0.00745344
-0.000137741
0.00759375
-0.000140308
0.00771984
-0.000126093
0.00781814
-9.83031e-05
0.0078805
-6.23619e-05
0.00791368
-3.31776e-05
0.00794593
-3.22527e-05
0.00804166
-9.57267e-05
0.00829056
-0.000248901
0.00878488
-0.00049432
0.00957672
-0.000791838
0.0106325
-0.00105578
0.011808
-0.0011755
0.0128369
-0.00102892
0.0132649
-0.000427942
0.0127589
0.000505928
0.0116534
0.00110558
0.010639
0.00101441
0.0100327
0.000606245
0.00981351
0.000219192
0.00983567
-2.21566e-05
0.0100082
-0.000172492
0.0102638
-0.000255686
0.0105788
-0.000314964
0.0109405
-0.000361664
0.0113619
-0.00042146
0.0118463
-0.000484399
0.0123949
-0.000548558
0.0130022
-0.000607326
0.013656
-0.000653812
0.0143385
-0.000682421
0.0150275
-0.00068901
0.0156992
-0.000671704
0.0163317
-0.000632511
0.0169079
-0.000576255
0.0174169
-0.000508984
0.0178597
-0.000442775
0.0182485
-0.000388786
0.0186035
-0.000355033
0.0189477
-0.000344166
0.0193013
-0.000353668
0.0196792
-0.000377896
0.0200897
-0.000410473
0.0205356
-0.000445867
0.0210158
-0.000480267
0.0215275
-0.00051167
0.0220658
-0.000538285
0.022625
-0.00055915
0.0231989
-0.000573903
0.0237816
-0.000582704
0.0243677
-0.00058617
0.0249529
-0.000585168
0.0255338
-0.000580939
0.0261088
-0.000574935
0.0266773
-0.000568564
0.0272404
-0.000563034
0.0277996
-0.000559228
0.0283572
-0.000557652
0.0289157
-0.000558458
0.0294772
-0.000561523
0.0300438
-0.000566548
0.0306169
-0.000573158
0.0311979
-0.000580985
0.0317876
-0.000589673
0.0323865
-0.000598912
0.032995
-0.000608461
0.0336131
-0.000618148
0.034241
-0.000627864
0.0348785
-0.000637548
0.0355257
-0.000647184
0.0361825
-0.000656784
0.0368489
-0.000666381
0.0375249
-0.000676002
0.0382105
-0.000685662
0.0389059
-0.000695339
0.0396108
-0.000704964
0.0403252
-0.000714407
0.0410487
-0.000723479
0.0417807
-0.000731929
0.0425201
-0.000739455
0.0432658
-0.000745727
0.0440163
-0.000750433
0.0447696
-0.000753329
0.0455239
-0.000754325
0.0462775
-0.00075355
0.0470289
-0.000751421
0.0477776
-0.000748659
0.0485238
-0.000746248
0.0492691
-0.000745315
0.0500161
-0.000746939
0.050768
-0.000751913
0.0515285
-0.000760491
0.0523007
-0.0007722
0.0530864
-0.000785782
0.0538858
-0.000799324
0.0546963
-0.000810577
0.0555138
-0.000817426
0.0563322
-0.000818399
0.0571452
-0.00081307
0.0579474
-0.000802199
0.058735
-0.000787528
0.0595062
-0.000771219
0.0602613
-0.000755106
0.0610014
-0.000740088
0.0617274
-0.000726032
0.0624398
-0.000712425
0.0631394
-0.000699544
0.0638288
-0.000689418
0.0645144
-0.00068561
0.0652057
-0.000691298
0.0659121
-0.000706346
0.0666375
-0.000725461
0.0673773
-0.000739749
0.0681193
-0.000742027
0.0688517
-0.0007324
0.0695732
-0.000721551
0.0703007
-0.000727415
0.0710626
-0.000761915
0.0718758
-0.000813235
0.0727124
-0.000836626
0.0734811
-0.000768667
0.0740535
-0.000572413
0.0743402
-0.00028669
0.07437
-2.98423e-05
0.0742432
0.000126807
0.0740587
0.00018457
0.0738143
0.000244316
0.0734716
0.000342794
0.0730096
0.000461965
0.0724378
0.000571766
0.0717858
0.000652038
0.0710925
0.000693277
0.0704011
0.000691457
0.0697501
0.000650985
0.0691833
0.000566762
0.0687414
0.000441896
0.0684551
0.000286319
0.0683338
0.000121264
0.0683607
-2.69169e-05
0.0685127
-0.000151947
0.0687614
-0.000248721
0.0690906
-0.000329187
0.069482
-0.000391416
0.069919
-0.000436943
0.0703882
-0.000469265
0.0708789
-0.000490705
0.0713826
-0.00050365
0.0718928
-0.000510194
0.0724046
-0.000511855
0.072914
-0.000509348
0.0734165
-0.000502516
0.073907
-0.000490484
0.0743795
-0.000472513
0.0748286
-0.000449105
0.075251
-0.000422382
0.0756472
-0.000396183
0.0760222
-0.000375082
0.0763849
-0.00036271
0.0767451
-0.000360142
0.0771105
-0.000365364
0.0774847
-0.000374195
0.0778668
-0.000382122
0.0782527
-0.000385972
0.0786374
-0.000384669
0.0790164
-0.000378958
0.0793869
-0.000370548
0.0797481
-0.000361219
0.0801004
-0.00035225
0.0804446
-0.000344259
0.080782
-0.000337325
0.0811132
-0.00033123
0.0814389
-0.000325668
0.0817592
-0.000320378
0.0820744
-0.000315184
0.0823844
-0.000309988
0.0826892
-0.000304743
0.0829886
-0.000299424
0.0832826
-0.000294016
0.0835711
-0.000288504
0.083854
-0.000282873
0.0841311
-0.000277109
0.0844023
-0.000271205
0.0846675
-0.000265157
0.0849264
-0.000258973
0.0851791
-0.000252667
0.0854254
-0.000246262
0.0856651
-0.000239787
0.0858984
-0.000233273
0.0861252
-0.000226751
0.0863454
-0.000220244
0.0865592
-0.000213768
0.0867665
-0.000207325
0.0869674
-0.000200905
0.0871619
-0.000194487
0.0873499
-0.000188036
0.0875314
-0.000181508
0.0877063
-0.000174849
0.0878743
-0.000167994
0.0880351
-0.000160866
0.0881885
-0.000153374
0.0883339
-0.000145399
0.0884707
-0.000136767
0.0885978
-0.000127105
0.0887134
-0.000115593
0.0888149
-0.000101537
0.0888983
-8.33872e-05
0.0889456
-4.72933e-05
0.0889211
2.44515e-05
0.0887992
0.000121991
0.0886
0.000199138
0.0883575
0.000242526
0.0880992
0.000258276
0.0878378
0.000261409
0.0875723
0.000265493
0.0872958
0.00027651
0.0870023
0.000293503
0.0866894
0.000312858
0.0863577
0.000331717
0.0860087
0.000349038
0.0856436
0.000365059
0.0852632
0.000380379
0.0848679
0.000395389
0.0844577
0.000410182
0.084033
0.000424699
0.0835941
0.000438876
0.0831414
0.000452691
0.0826753
0.000466158
0.082196
0.000479298
0.0817038
0.000492118
0.0811992
0.000504607
0.0806825
0.000516736
0.080154
0.000528454
0.0796144
0.000539687
0.079064
0.000550344
0.0785037
0.000560312
0.0779342
0.000569476
0.0773565
0.000577727
0.0767715
0.000584989
0.0761803
0.000591241
0.0755837
0.000596561
0.0749826
0.000601139
0.0743773
0.000605277
0.0737679
0.000609375
0.073154
0.000613872
0.0725349
0.000619182
0.0719093
0.000625598
0.0712761
0.000633204
0.0706343
0.000641804
0.0699833
0.000650947
0.0693232
0.000660057
0.0686546
0.000668677
0.0679778
0.000676739
0.0672931
0.000684717
0.0665995
0.00069359
0.065895
0.000704555
0.0651764
0.000718588
0.0644404
0.000735971
0.0636844
0.000756028
0.0629071
0.000777261
0.0621093
0.000797864
0.0612929
0.000816381
0.0604608
0.000832108
0.0596158
0.000844937
0.0587611
0.000854734
0.0579003
0.000860759
0.0570394
0.000860919
0.0561877
0.000851769
0.0553583
0.000829385
0.0545673
0.000790993
0.0538303
0.000737007
0.0531577
0.00067259
0.0525501
0.000607592
0.051996
0.000554058
0.0514743
0.000521693
0.0509611
0.000513196
0.050439
0.00052215
0.0499038
0.000535137
0.0493665
0.000537332
0.0488479
0.000518633
0.0483706
0.000477278
0.0479511
0.000419507
0.0475951
0.000356046
0.0472974
0.000297679
0.0470452
0.000252133
0.046822
0.000223213
0.0466104
0.000211594
0.0463945
0.000215915
0.0461613
0.000233201
0.0459026
0.000258721
0.0456164
0.000286199
0.045307
0.000309353
0.0449829
0.000324158
0.0446532
0.000329732
0.0443251
0.000328026
0.0440026
0.000322498
0.0436862
0.000316477
0.0433742
0.000311945
0.0430648
0.000309367
0.0427564
0.000308405
0.0424476
0.000308822
0.0421367
0.000310901
0.0418215
0.000315242
0.0414992
0.00032228
0.0411672
0.00033198
0.0408233
0.000343879
0.040466
0.000357343
0.0400942
0.000371821
0.0397072
0.000386948
0.0393047
0.000402507
0.0388864
0.000418348
0.0384521
0.000434304
0.0380019
0.000450148
0.0375363
0.000465595
0.037056
0.000480327
0.0365619
0.000494089
0.0360551
0.000506834
0.0355362
0.000518845
0.0350055
0.000530684
0.0344627
0.000542877
0.0339072
0.000555417
0.0333398
0.000567432
0.0327625
0.000577355
0.0321789
0.000583601
0.0315935
0.000585369
0.0310105
0.000583038
0.0304325
0.000577936
0.0298608
0.000571756
0.0292947
0.000566055
0.0287326
0.000562121
0.0281715
0.000561101
0.0276074
0.000564094
0.0270353
0.000572044
0.0264499
0.000585443
0.0258459
0.000604012
0.0252194
0.000626521
0.0245685
0.000650897
0.0238937
0.000674746
0.0231977
0.000696033
0.0224842
0.00071354
0.0217553
0.000728844
0.0210052
0.000750085
0.020216
0.000789203
0.0193699
0.000846155
0.0184627
0.000907141
0.0175119
0.000950825
0.0165439
0.000968006
0.0155789
0.000964952
0.0146239
0.000955085
0.0136756
0.000948305
0.0127287
0.000946878
0.0117799
0.000948768
0.0108287
0.000951172
0.0098769
0.000951832
0.00892808
0.000948826
0.00798781
0.000940268
0.00706331
0.000924498
0.00616285
0.00090046
0.00529507
0.000867782
0.00446868
0.000826392
0.00369251
0.00077617
0.00297587
0.000716636
0.00232858
0.000647295
0.00176235
0.000566229
0.00129155
0.000470796
0.000933357
0.000358196
0.000702804
0.000230553
0.000590384
0.00011242
0.000554908
3.54761e-05
0.000543682
1.1226e-05
0.000478456
6.52261e-05
0.000294286
0.00018417
0.000294286
0.000144043
-0.000537977
0.00052083
-0.00102186
0.000839524
-0.000983215
0.00111179
-0.000915972
0.00135118
-0.000885111
0.00154356
-0.000831925
0.00167757
-0.000755777
0.00175246
-0.000668016
0.00177844
-0.000582726
0.00177005
-0.000509848
0.00174611
-0.000455903
0.00172434
-0.000423921
0.0017188
-0.000411335
0.00173939
-0.000415145
0.00178932
-0.000428644
0.00186789
-0.000447156
0.00197147
-0.000466193
0.00209433
-0.000482234
0.00223208
-0.000494614
0.00237987
-0.000501829
0.00253534
-0.000505029
0.00269738
-0.000505309
0.00286592
-0.000503676
0.00304126
-0.000500723
0.0032231
-0.000496869
0.0034103
-0.000491533
0.00359961
-0.000483778
0.0037861
-0.000472426
0.00396332
-0.000456088
0.00412411
-0.000433608
0.00426249
-0.000405199
0.0043748
-0.000372313
0.00446166
-0.00033789
0.00452913
-0.000305782
0.00458678
-0.000278958
0.00464685
-0.000259996
0.00472006
-0.000248465
0.00481317
-0.000242133
0.00492758
-0.000236983
0.00505933
-0.000229379
0.00520038
-0.000216835
0.00534158
-0.000199053
0.00547438
-0.000176919
0.00559286
-0.000152499
0.00569408
-0.000127126
0.00577801
-0.000103096
0.00584728
-8.10747e-05
0.00590381
-6.07757e-05
0.00595194
-4.28059e-05
0.00599326
-2.58845e-05
0.00602913
-9.8774e-06
0.00606113
4.37253e-06
0.00608901
1.85865e-05
0.0061119
3.30229e-05
0.0061288
4.72761e-05
0.00613857
6.15326e-05
0.00614026
7.6111e-05
0.00613292
9.13683e-05
0.00611566
0.000107142
0.00608777
0.000123777
0.00604868
0.000141479
0.00599825
0.000159854
0.00593672
0.000178642
0.00586395
0.000198382
0.00578092
0.000217199
0.00568821
0.000235419
0.00558671
0.000252684
0.00547744
0.000268458
0.00536131
0.000282514
0.00523869
0.000295082
0.00511058
0.000305357
0.00497766
0.000313424
0.00484156
0.000318554
0.00470256
0.000321909
0.00456225
0.000322483
0.00442207
0.000320937
0.00428349
0.000317642
0.0041475
0.000313015
0.00401469
0.000307567
0.00388523
0.00030238
0.00375913
0.000297365
0.00363565
0.000293057
0.00351377
0.00028979
0.00339265
0.000287262
0.00327145
0.000285534
0.0031495
0.000284455
0.00302633
0.000283556
0.00290172
0.000282902
0.00277557
0.000282109
0.00264757
0.000280938
0.00251841
0.000279283
0.00238854
0.000277031
0.00225823
0.0002739
0.00212772
0.000270017
0.00199783
0.000264694
0.00186955
0.000257779
0.00174391
0.000248179
0.00162242
0.000236669
0.00150618
0.000222328
0.001396
0.000205694
0.0012921
0.000187571
0.00119415
0.000168934
0.00110256
0.000150736
0.00101433
0.00013636
0.00092748
0.000126675
0.000839711
0.000123533
0.00074796
0.000128102
0.000649646
0.000140409
0.000542647
0.00015969
0.000426053
0.00018295
0.00029976
0.000207225
0.00016531
0.0002289
2.62623e-05
0.000243883
-0.000112106
0.00024914
-0.000243394
0.000243099
-0.00036094
0.000225412
-0.000458441
0.000197013
-0.00053024
0.000159642
-0.000571545
0.000114407
-0.000581427
6.5806e-05
-0.000561246
1.74071e-05
-0.000509826
-3.45843e-05
-0.000430473
-8.37743e-05
-0.000327504
-0.00012986
-0.000206698
-0.000171874
-7.60456e-05
-0.000207519
5.3573e-05
-0.000231795
0.000167624
-0.000238038
0.00024963
-0.000219747
0.000283995
-0.000174673
0.00026382
-0.000105918
0.000188957
-2.34403e-05
7.70305e-05
4.9565e-05
-3.94399e-05
8.32928e-05
-0.00010808
3.63878e-05
-8.2899e-05
-0.000120908
8.39918e-05
-0.000415791
0.000422389
-0.000832717
0.00094869
-0.00131814
0.00167195
-0.00177904
0.00260873
-0.00211229
0.00371243
-0.00213262
0.00502009
-0.0017356
0.00643908
-0.000913066
0.00761584
-7.11804e-05
0.00824955
0.0003807
0.00829377
0.000562029
0.00781458
0.000698379
0.00697267
0.00081975
0.00597713
0.000823054
0.00506561
0.000655825
0.00441258
0.000338075
0.00408773
-3.68172e-05
0.00405724
-0.000390975
0.00424915
-0.000676305
0.00458907
-0.000888475
0.00502177
-0.00104003
0.00551279
-0.00114483
0.00604247
-0.00121211
0.00659968
-0.00124622
0.00717687
-0.00124889
0.00776641
-0.00122204
0.0083594
-0.00116925
0.00894895
-0.00109853
0.00952734
-0.00102117
0.0100871
-0.000948547
0.0106233
-0.000891264
0.0111357
-0.000856557
0.0116293
-0.000847199
0.0121131
-0.000861773
0.0125985
-0.000895834
0.0130959
-0.000943247
0.013613
-0.000997378
0.0141538
-0.00105248
0.0147198
-0.00110427
0.0153104
-0.0011498
0.0159237
-0.00118716
0.0165564
-0.00121546
0.0172049
-0.00123466
0.0178651
-0.00124536
0.0185329
-0.00124872
0.0192042
-0.0012462
0.0198751
-0.00123947
0.0205422
-0.00123018
0.0212029
-0.00121986
0.0218551
-0.00120987
0.0224979
-0.00120127
0.0231313
-0.00119491
0.0237561
-0.00119139
0.0243741
-0.00119113
0.0249875
-0.00119437
0.025599
-0.00120121
0.0262117
-0.00121159
0.0268286
-0.00122535
0.0274526
-0.00124219
0.0280865
-0.00126173
0.0287324
-0.0012835
0.0293922
-0.00130695
0.0300669
-0.00133147
0.0307569
-0.0013564
0.0314619
-0.00138103
0.0321809
-0.00140462
0.032912
-0.00142643
0.0336528
-0.00144574
0.0344003
-0.0014619
0.0351511
-0.00147435
0.0359019
-0.00148269
0.0366491
-0.00148667
0.0373897
-0.0014863
0.0381211
-0.00148187
0.0388418
-0.00147405
0.0395515
-0.001464
0.0402513
-0.00145332
0.0409439
-0.00144403
0.0416336
-0.00143836
0.0423258
-0.00143842
0.0430262
-0.00144577
0.0437403
-0.00146103
0.044472
-0.00148358
0.045223
-0.00151155
0.0459928
-0.00154195
0.0467781
-0.00157115
0.0475742
-0.00159542
0.0483753
-0.00161164
0.0491758
-0.00161792
0.0499715
-0.0016141
0.0507603
-0.00160187
0.0515425
-0.00158437
0.0523201
-0.00156514
0.0530954
-0.00154657
0.0538688
-0.00152846
0.054636
-0.0015073
0.0553873
-0.0014773
0.056108
-0.00143321
0.0567825
-0.00137396
0.057398
-0.00130498
0.0579493
-0.00123684
0.0584376
-0.00117962
0.0588671
-0.00113584
0.0592393
-0.00109763
0.0595518
-0.00105234
0.0598057
-0.000995884
0.060018
-0.000944667
0.0602317
-0.000935271
0.0605148
-0.00101049
0.0609479
-0.00119503
0.0616052
-0.00147051
0.0625342
-0.00176565
0.0637483
-0.00198274
0.0652185
-0.00204265
0.0668624
-0.00193055
0.0685353
-0.00170275
0.0701004
-0.00143836
0.0714922
-0.00120724
0.0727585
-0.00102193
0.0739649
-0.000863615
0.0751435
-0.000716598
0.0762928
-0.000577591
0.0773959
-0.000451038
0.0784327
-0.00034357
0.0793849
-0.000260736
0.0802408
-0.000204866
0.0809932
-0.000185697
0.0816354
-0.000200242
0.0821649
-0.000243238
0.0825921
-0.000305885
0.0829439
-0.000378693
0.0832448
-0.000452842
0.083512
-0.000515929
0.0837486
-0.000565798
0.083957
-0.000599883
0.0841354
-0.000615285
0.0842768
-0.000610728
0.0843718
-0.000585624
0.0844082
-0.000540051
0.0843732
-0.000475236
0.0842556
-0.000394283
0.0840496
-0.000303268
0.0837592
-0.000212207
0.0834036
-0.000134794
0.0830161
-8.50766e-05
0.082641
-7.39945e-05
0.0823264
-0.000107727
0.0821168
-0.00018661
0.0820449
-0.000303174
0.0821244
-0.000442259
0.0823487
-0.000584435
0.0826945
-0.000711133
0.0831293
-0.00080905
0.0836195
-0.000872264
0.0841354
-0.000901894
0.0846548
-0.000904026
0.0851628
-0.000887032
0.0856515
-0.000859203
0.0861175
-0.000827229
0.0865609
-0.000795599
0.0869833
-0.000766707
0.0873873
-0.000741359
0.0877755
-0.000719369
0.0881499
-0.000700077
0.0885122
-0.000682702
0.0888636
-0.000666536
0.0892046
-0.000651016
0.0895356
-0.000635745
0.0898566
-0.000620462
0.0901676
-0.000605016
0.0904685
-0.000589328
0.0907589
-0.000573364
0.0910389
-0.000557106
0.0913083
-0.000540535
0.0915667
-0.000523626
0.0918141
-0.000506347
0.0920501
-0.000488669
0.0922744
-0.000470571
0.0924867
-0.000452054
0.0926866
-0.000433143
0.0928737
-0.000413892
0.0930478
-0.000394373
0.0932087
-0.000374677
0.0933563
-0.000354904
0.0934906
-0.000335149
0.0936116
-0.000315497
0.0937195
-0.000296012
0.0938148
-0.000276732
0.0938976
-0.000257666
0.0939684
-0.000238787
0.0940276
-0.000220036
0.0940755
-0.00020131
0.0941126
-0.000182461
0.0941391
-0.000163277
0.0941554
-0.000143485
0.0941627
-0.000122895
0.0941627
-0.000101489
0.0941579
-7.86384e-05
0.0941641
-5.3477e-05
0.0942131
-2.45581e-05
0.0943281
7.01803e-06
0.0944972
3.00684e-05
0.0946876
5.20698e-05
0.094876
6.99246e-05
0.0950518
8.56146e-05
0.0952146
0.000102628
0.0953683
0.000122869
0.0955152
0.000146632
0.0956547
0.00017329
0.0957846
0.000201897
0.0959019
0.000231694
0.0960046
0.000262311
0.0960914
0.000293661
0.096161
0.000325752
0.0962126
0.000358572
0.0962452
0.000392064
0.096258
0.000426137
0.09625
0.00046069
0.0962205
0.000495613
0.096169
0.000530788
0.0960951
0.000566088
0.0959983
0.000601371
0.0958786
0.000636487
0.0957357
0.000671277
0.0955698
0.000705583
0.0953809
0.000739247
0.0951691
0.000772124
0.0949345
0.000804089
0.0946772
0.000835051
0.0943972
0.000864962
0.0940946
0.000893813
0.0937695
0.000921672
0.093422
0.000948674
0.0930522
0.00097502
0.0926607
0.00100096
0.0922478
0.00102675
0.0918143
0.00105265
0.0913611
0.00107881
0.090889
0.00110527
0.090399
0.00113186
0.0898917
0.00115822
0.089368
0.00118378
0.0888287
0.00120794
0.0882753
0.00123018
0.0877097
0.00125033
0.0871346
0.00126866
0.0865532
0.00128596
0.0859684
0.00130335
0.0853824
0.00132199
0.0847958
0.00134261
0.0842078
0.00136524
0.0836164
0.0013893
0.0830188
0.001414
0.0824119
0.001439
0.0817921
0.00146471
0.0811547
0.00149215
0.0804933
0.00152217
0.0797999
0.0015543
0.0790656
0.00158611
0.0782815
0.00161344
0.0774406
0.00163194
0.0765386
0.001639
0.0755759
0.00163527
0.0745591
0.00162439
0.0735022
0.00161091
0.0724269
0.00159704
0.0713598
0.00158025
0.0703288
0.00155318
0.0693577
0.00150629
0.0684628
0.00143224
0.0676511
0.00133027
0.0669197
0.00120866
0.0662555
0.00108375
0.0656364
0.000975163
0.0650353
0.000898781
0.0644268
0.000860599
0.0637955
0.000854509
0.0631419
0.000865223
0.062483
0.000874794
0.0618468
0.000869395
0.0612622
0.000843321
0.0607492
0.000799225
0.0603128
0.000745692
0.0599432
0.000693784
0.0596192
0.000653746
0.0593145
0.000632783
0.0590033
0.000633615
0.0586657
0.000654131
0.0582895
0.000688142
0.0578713
0.000727513
0.0574148
0.000764971
0.0569273
0.000796286
0.0564175
0.000820755
0.0558927
0.000840012
0.0553588
0.000856209
0.05482
0.000870784
0.0542795
0.000884344
0.0537396
0.000897274
0.0532011
0.000910302
0.0526635
0.000924545
0.0521249
0.0009411
0.0515826
0.000960585
0.051034
0.000982956
0.0504765
0.00100765
0.0499082
0.00103388
0.0493276
0.00106098
0.0487331
0.0010885
0.0481236
0.00111636
0.0474977
0.00114481
0.0468538
0.00117451
0.0461903
0.00120643
0.045504
0.00124173
0.0447899
0.00128145
0.0440413
0.001326
0.04325
0.00137491
0.0424087
0.0014267
0.0415124
0.00147934
0.0405596
0.00153069
0.0395523
0.00157904
0.038495
0.00162338
0.0373935
0.00166357
0.0362543
0.00170039
0.0350833
0.00173505
0.0338868
0.00176857
0.0326713
0.00180094
0.0314446
0.00183069
0.0302164
0.00185477
0.0289982
0.00186902
0.027804
0.00186897
0.026649
0.00185109
0.0255488
0.00181372
0.0245195
0.00175814
0.0235798
0.00168978
0.0227515
0.00161748
0.0220484
0.00154927
0.0214668
0.00148877
0.0209837
0.00143387
0.0205698
0.00138188
0.0201974
0.0013374
0.0198426
0.00130986
0.0194859
0.00130506
0.0191103
0.00132249
0.0187013
0.00135769
0.0182473
0.00140523
0.0177393
0.00145979
0.0171721
0.00151609
0.0165432
0.00156909
0.015853
0.00161477
0.0151025
0.00165088
0.0142933
0.00167707
0.0134257
0.00169397
0.0124998
0.00170202
0.0115175
0.00169899
0.0104803
0.00168449
0.00939526
0.00165125
0.00827545
0.0015906
0.00713705
0.0014966
0.00599705
0.00137055
0.00488401
0.00122547
0.00383525
0.00108423
0.00286678
0.000979693
0.00194825
0.000983759
0.00100679
0.00112563
0.00130108
0.000103717
-0.000641694
0.000444854
-0.001363
0.000674097
-0.00121246
0.000785864
-0.00102774
0.000820679
-0.000919926
0.000796402
-0.000807648
0.00072194
-0.000681316
0.000615625
-0.000561701
0.000504505
-0.000471606
0.000413656
-0.000418999
0.000364751
-0.000406997
0.000368701
-0.000427871
0.000429499
-0.000472133
0.000542882
-0.000528529
0.000700367
-0.000586129
0.000891347
-0.000638136
0.00110551
-0.00068036
0.00133465
-0.000711366
0.00157252
-0.000732484
0.00181593
-0.000745239
0.00206324
-0.000752341
0.00231354
-0.00075561
0.00256576
-0.000755898
0.00281836
-0.000753322
0.00306794
-0.000746452
0.00331031
-0.000733893
0.00354036
-0.000713828
0.00375305
-0.000685119
0.00394481
-0.000647852
0.00411492
-0.000603712
0.00426645
-0.000556731
0.00440628
-0.000512141
0.00454464
-0.000476254
0.00469283
-0.000453968
0.00486129
-0.000447424
0.00505624
-0.000454942
0.00527813
-0.00047036
0.00552119
-0.000485189
0.0057757
-0.000491493
0.0060296
-0.000483275
0.00627173
-0.000458971
0.00649338
-0.000420699
0.00668912
-0.00037266
0.00685673
-0.000320113
0.00699769
-0.000268079
0.00711411
-0.000219519
0.00721032
-0.000177284
0.00728899
-0.00013945
0.00735384
-0.000107655
0.0074067
-7.87456e-05
0.00744894
-5.21169e-05
0.00748081
-2.74949e-05
0.00750171
-2.31059e-06
0.00751112
2.36128e-05
0.00750894
4.94491e-05
0.00749467
7.58106e-05
0.00746771
0.000103062
0.00742913
0.000129956
0.00737918
0.000157085
0.00731886
0.000184098
0.00724953
0.000210813
0.00717277
0.000236611
0.00708974
0.000261672
0.00700314
0.000284983
0.00691291
0.000307427
0.00681998
0.000328354
0.00672503
0.000347629
0.00662791
0.000365583
0.0065284
0.000382023
0.00642719
0.000396288
0.00632364
0.000408914
0.00621824
0.000418818
0.00611124
0.000425557
0.00600319
0.000429961
0.00589515
0.000430517
0.00578766
0.000428434
0.00568076
0.000424533
0.00557466
0.000419123
0.00546874
0.000413484
0.00536151
0.000409611
0.00525217
0.000406708
0.00513908
0.000406138
0.00502044
0.000408438
0.00489514
0.000412555
0.00476207
0.000418611
0.00462042
0.000426107
0.00446993
0.000434045
0.00431035
0.00044248
0.00414229
0.000450165
0.00396601
0.000457221
0.003782
0.000463288
0.00359139
0.000467647
0.00339463
0.000470656
0.00319307
0.000471576
0.00298764
0.000470129
0.00277938
0.000466039
0.00256902
0.000458536
0.00235832
0.000447369
0.00214746
0.000433187
0.00193759
0.000415567
0.00172973
0.000395429
0.001525
0.000373667
0.00132425
0.000351479
0.00112946
0.000331152
0.000942221
0.000313915
0.000764642
0.000301111
0.000598726
0.000294018
0.00044673
0.000292405
0.000311182
0.000295239
0.000193812
0.000300319
9.65008e-05
0.000304536
2.09519e-05
0.000304449
-3.26451e-05
0.00029748
-6.43675e-05
0.000280863
-7.51216e-05
0.000253854
-6.65876e-05
0.000216878
-4.08936e-05
0.000171319
-1.80684e-06
0.000120556
4.70346e-05
6.55657e-05
0.000103415
9.42541e-06
0.00016041
-3.95881e-05
0.000212596
-8.67703e-05
0.000256187
-0.000127365
0.000286448
-0.000160122
0.000298449
-0.000183874
0.000287183
-0.000196253
0.000246967
-0.00019158
0.000170109
-0.000161179
4.51845e-05
-9.48229e-05
-0.000137419
7.93072e-06
-0.000391893
0.000148556
-0.000712289
0.000296956
-0.00107446
0.000411733
-0.00143253
0.000441366
-0.00173849
0.000342346
-0.00195559
9.61963e-05
-0.0020709
-0.000300489
-0.00211257
-0.000791046
-0.00211963
-0.00131107
-0.00211997
-0.0017787
-0.00213929
-0.00209297
-0.00213463
-0.00213728
-0.00204609
-0.00182414
-0.0017735
-0.00118565
-0.00137274
-0.000471947
-0.00101596
2.39286e-05
-0.000678214
0.000224279
-0.00026526
0.000285426
0.000299495
0.000254994
0.000995805
0.000126745
0.00177504
-0.000123408
0.0025324
-0.00041929
0.00321389
-0.000718303
0.00379849
-0.000975571
0.00429411
-0.00117193
0.00471861
-0.00131297
0.00509147
-0.00141289
0.00543056
-0.00148392
0.00575149
-0.00153303
0.00606809
-0.00156282
0.00639322
-0.00157402
0.00673871
-0.00156754
0.00711405
-0.00154459
0.00752531
-0.00150979
0.0079751
-0.00147096
0.00846307
-0.00143652
0.00898565
-0.00141384
0.00953671
-0.00140761
0.0101088
-0.00141926
0.0106942
-0.00144722
0.0112864
-0.00148803
0.0118806
-0.00153743
0.012474
-0.00159079
0.0130655
-0.00164401
0.0136553
-0.00169405
0.0142444
-0.00173889
0.0148346
-0.00177738
0.0154282
-0.00180908
0.0160276
-0.00183405
0.016635
-0.00185274
0.0172522
-0.0018659
0.0178805
-0.00187452
0.0185207
-0.00187969
0.0191731
-0.00188257
0.0198375
-0.00188429
0.0205135
-0.00188586
0.0212005
-0.0018882
0.0218976
-0.00189207
0.0226043
-0.00189809
0.0233199
-0.00190675
0.024044
-0.0019184
0.024776
-0.00193324
0.0255157
-0.00195131
0.0262628
-0.00197246
0.027017
-0.00199636
0.0277778
-0.0020225
0.0285445
-0.00205019
0.0293161
-0.00207857
0.0300913
-0.00210664
0.0308682
-0.00213333
0.0316447
-0.00215751
0.0324181
-0.00217809
0.0331858
-0.00219408
0.0339447
-0.00220468
0.0346922
-0.00220935
0.0354257
-0.00220793
0.0361437
-0.0022007
0.0368455
-0.00218842
0.0375316
-0.00217239
0.0382041
-0.00215439
0.0388666
-0.00213657
0.039524
-0.00212134
0.0401817
-0.00211106
0.0408455
-0.00210778
0.04152
-0.0021129
0.0422085
-0.0021269
0.0429119
-0.00214916
0.0436288
-0.00217795
0.0443559
-0.00221065
0.0450884
-0.00224412
0.0458216
-0.00227511
0.0465512
-0.00230077
0.0472749
-0.00231905
0.0479922
-0.00232897
0.0487052
-0.0023309
0.0494177
-0.00232665
0.0501351
-0.00231929
0.0508633
-0.00231255
0.0516077
-0.00230947
0.0523716
-0.00231054
0.0531548
-0.00231162
0.0539501
-0.00230266
0.0547412
-0.00226837
0.0554997
-0.00219173
0.0561859
-0.00206011
0.056753
-0.0018721
0.0571574
-0.00164128
0.0573719
-0.00139409
0.0573984
-0.00116234
0.057276
-0.000975196
0.0570795
-0.000855859
0.056907
-0.000823402
0.0568566
-0.000894246
0.0569988
-0.00107754
0.0573544
-0.00136602
0.0578871
-0.00172775
0.0585213
-0.00210469
0.0591782
-0.00242256
0.0598081
-0.00261267
0.0604019
-0.00263645
0.0609745
-0.00250314
0.0615383
-0.00226655
0.0620989
-0.00199895
0.0626543
-0.00176263
0.0632118
-0.00157943
0.0637837
-0.00143555
0.0643765
-0.00130942
0.0649887
-0.00118972
0.0656147
-0.00107708
0.0662497
-0.000978597
0.066891
-0.00090202
0.0675379
-0.000851712
0.0681824
-0.000830253
0.0688166
-0.000834465
0.0694349
-0.000861451
0.0700352
-0.000906183
0.0706205
-0.000963988
0.0711973
-0.00102969
0.0717764
-0.00109506
0.0723652
-0.00115454
0.0729695
-0.00120424
0.0735946
-0.00124039
0.074244
-0.00126008
0.0749193
-0.00126093
0.07562
-0.00124079
0.0763432
-0.0011984
0.0770832
-0.00113432
0.0778322
-0.00105225
0.0785803
-0.000960293
0.0793167
-0.000871223
0.0800323
-0.000800684
0.0807217
-0.000763341
0.0813824
-0.000768411
0.0820121
-0.000816329
0.0826069
-0.000897992
0.0831619
-0.000997223
0.0836729
-0.0010955
0.0841388
-0.00117697
0.0845616
-0.00123191
0.084947
-0.00125762
0.0853023
-0.00125725
0.0856357
-0.00123741
0.0859543