/*--------------------------------*- C++ -*----------------------------------*\
| =========                 |                                                 |
| \\      /  F ield         | OpenFOAM: The Open Source CFD Toolbox           |
|  \\    /   O peration     | Version:  v2006                                 |
|   \\  /    A nd           | Website:  www.openfoam.com                      |
|    \\/     M anipulation  |                                                 |
\*---------------------------------------------------------------------------*/
FoamFile
{
    version     2.0;
    format      ascii;
    class       volVectorField;
    location    "18.2";
    object      U;
}
// * * * * * * * * * * * * * * * * * * * * * * * * * * * * * * * * * * * * * //

dimensions      [0 1 -1 0 0 0 0];


internalField   nonuniform List<vector> 
150000
(
(0.00129767 -0.00362206 0)
(0.0105584 -0.00550856 0)
(0.0206959 -0.00591262 0)
(0.0303391 -0.00577181 0)
(0.0400764 -0.00583474 0)
(0.0496934 -0.00594712 0)
(0.0592053 -0.0060405 0)
(0.0683484 -0.00606461 0)
(0.0769962 -0.00599636 0)
(0.085069 -0.005857 0)
(0.0925519 -0.00564342 0)
(0.0994829 -0.00538137 0)
(0.105938 -0.00508694 0)
(0.112003 -0.0047852 0)
(0.117776 -0.00449903 0)
(0.12336 -0.00424709 0)
(0.128829 -0.0040404 0)
(0.134236 -0.00388071 0)
(0.139608 -0.00376019 0)
(0.144939 -0.00366862 0)
(0.150217 -0.00358456 0)
(0.155423 -0.00349267 0)
(0.160518 -0.00338281 0)
(0.165481 -0.00324367 0)
(0.170287 -0.00307952 0)
(0.174929 -0.00289369 0)
(0.179416 -0.00270102 0)
(0.183765 -0.00252392 0)
(0.187994 -0.00238686 0)
(0.192124 -0.00230932 0)
(0.196169 -0.00230401 0)
(0.200126 -0.0023724 0)
(0.203969 -0.00249578 0)
(0.20765 -0.00262726 0)
(0.21111 -0.00270992 0)
(0.214288 -0.0026931 0)
(0.217119 -0.00254076 0)
(0.21956 -0.00224593 0)
(0.221596 -0.00184468 0)
(0.223239 -0.00140014 0)
(0.224524 -0.000978567 0)
(0.225507 -0.000625458 0)
(0.226253 -0.000368248 0)
(0.226825 -0.000208952 0)
(0.227264 -0.000127811 0)
(0.227598 -9.35972e-05 0)
(0.227833 -6.84463e-05 0)
(0.227958 -3.80853e-05 0)
(0.227953 1.94036e-05 0)
(0.2278 0.000104327 0)
(0.227496 0.000217322 0)
(0.22703 0.000344989 0)
(0.226401 0.00048686 0)
(0.225628 0.000631228 0)
(0.224726 0.000765114 0)
(0.223708 0.000883242 0)
(0.222586 0.000985882 0)
(0.221367 0.0010742 0)
(0.220062 0.00114725 0)
(0.21867 0.00120679 0)
(0.217186 0.0012551 0)
(0.215601 0.00129328 0)
(0.213903 0.00132423 0)
(0.212083 0.00135178 0)
(0.210137 0.001376 0)
(0.208062 0.00139805 0)
(0.205855 0.00142131 0)
(0.203524 0.00144621 0)
(0.20108 0.00147086 0)
(0.198535 0.0014905 0)
(0.195904 0.00150262 0)
(0.193216 0.00150248 0)
(0.190488 0.00148968 0)
(0.187742 0.00146141 0)
(0.185 0.0014213 0)
(0.182274 0.00137666 0)
(0.179575 0.00133437 0)
(0.176909 0.00129729 0)
(0.174273 0.0012674 0)
(0.171661 0.0012495 0)
(0.169077 0.00124173 0)
(0.166521 0.00124004 0)
(0.16399 0.00124202 0)
(0.161485 0.00124481 0)
(0.159005 0.00124743 0)
(0.156554 0.00125009 0)
(0.154132 0.00125121 0)
(0.151739 0.00125374 0)
(0.149385 0.00125754 0)
(0.147068 0.00125963 0)
(0.14479 0.00126663 0)
(0.142559 0.00127748 0)
(0.140377 0.00128893 0)
(0.138252 0.00130162 0)
(0.136192 0.00131528 0)
(0.134214 0.00133049 0)
(0.132321 0.00133878 0)
(0.130526 0.0013467 0)
(0.128862 0.00134305 0)
(0.127346 0.00132214 0)
(0.125999 0.00127941 0)
(0.124838 0.0012129 0)
(0.123864 0.00113257 0)
(0.123067 0.00103537 0)
(0.122419 0.000935084 0)
(0.121866 0.000844787 0)
(0.121344 0.000768914 0)
(0.120775 0.000711017 0)
(0.120081 0.000668513 0)
(0.119201 0.000628733 0)
(0.1181 0.000577985 0)
(0.116779 0.00050982 0)
(0.115277 0.000415882 0)
(0.113646 0.000296848 0)
(0.11196 0.000163113 0)
(0.110295 2.06175e-05 0)
(0.108727 -0.000121106 0)
(0.107308 -0.000248806 0)
(0.106092 -0.000351666 0)
(0.105119 -0.000418717 0)
(0.104414 -0.000451017 0)
(0.104002 -0.000465765 0)
(0.103906 -0.000468278 0)
(0.10413 -0.000473763 0)
(0.10471 -0.000473891 0)
(0.105671 -0.000501198 0)
(0.107015 -0.000560798 0)
(0.108713 -0.00064822 0)
(0.110696 -0.000726046 0)
(0.112822 -0.000752009 0)
(0.114859 -0.000638608 0)
(0.116593 -0.000329366 0)
(0.117859 0.000182635 0)
(0.118585 0.000814135 0)
(0.118964 0.00132957 0)
(0.1197 0.00142859 0)
(0.121992 0.000794938 0)
(0.127293 -0.000667042 0)
(0.136709 -0.00265853 0)
(0.150546 -0.00454587 0)
(0.167697 -0.00526724 0)
(0.185042 -0.00272322 0)
(0.19928 0.00666023 0)
(0.199576 0.0202936 0)
(0.184235 0.0281924 0)
(0.165702 0.025653 0)
(0.153293 0.0154241 0)
(0.14779 0.00327018 0)
(0.146762 -0.00702211 0)
(0.148456 -0.0138893 0)
(0.151784 -0.0171582 0)
(0.156106 -0.0172593 0)
(0.1612 -0.0154025 0)
(0.167038 -0.0128058 0)
(0.173809 -0.0103967 0)
(0.181573 -0.00856996 0)
(0.190278 -0.00729502 0)
(0.199787 -0.00637603 0)
(0.209878 -0.0056075 0)
(0.220249 -0.00483051 0)
(0.230547 -0.00394972 0)
(0.24041 -0.00293701 0)
(0.249538 -0.00184915 0)
(0.257711 -0.000845771 0)
(0.264835 -0.000101334 0)
(0.27101 0.000256545 0)
(0.276502 0.000182975 0)
(0.281656 -0.00026745 0)
(0.286818 -0.000963523 0)
(0.292258 -0.0017486 0)
(0.298149 -0.00248913 0)
(0.304569 -0.00309857 0)
(0.311523 -0.00353387 0)
(0.318978 -0.00378451 0)
(0.326872 -0.00387181 0)
(0.335126 -0.0038322 0)
(0.343647 -0.00370225 0)
(0.352344 -0.00351479 0)
(0.361129 -0.00329986 0)
(0.36993 -0.00308668 0)
(0.378686 -0.00290228 0)
(0.387359 -0.00276885 0)
(0.395935 -0.00270257 0)
(0.404417 -0.00271236 0)
(0.412826 -0.00279895 0)
(0.421193 -0.00295522 0)
(0.429555 -0.00316781 0)
(0.437947 -0.00341935 0)
(0.4464 -0.00369108 0)
(0.454943 -0.00396499 0)
(0.463595 -0.00422567 0)
(0.472372 -0.00446169 0)
(0.481284 -0.00466586 0)
(0.490339 -0.00483467 0)
(0.499538 -0.00496748 0)
(0.508883 -0.0050657 0)
(0.518373 -0.00513208 0)
(0.528009 -0.00517005 0)
(0.537788 -0.00518328 0)
(0.547712 -0.00517547 0)
(0.557779 -0.00515027 0)
(0.567991 -0.0051113 0)
(0.578348 -0.00506219 0)
(0.58885 -0.00500662 0)
(0.599496 -0.00494829 0)
(0.610281 -0.00489077 0)
(0.621199 -0.00483739 0)
(0.632238 -0.00479107 0)
(0.643381 -0.00475424 0)
(0.654609 -0.00472876 0)
(0.665894 -0.00471601 0)
(0.677208 -0.0047169 0)
(0.688523 -0.00473169 0)
(0.699814 -0.00475963 0)
(0.711066 -0.00479866 0)
(0.722275 -0.00484553 0)
(0.733454 -0.00489649 0)
(0.744635 -0.00494858 0)
(0.755863 -0.0050009 0)
(0.767192 -0.00505534 0)
(0.778676 -0.00511564 0)
(0.790356 -0.0051852 0)
(0.802247 -0.00526425 0)
(0.814334 -0.00534783 0)
(0.826563 -0.00542571 0)
(0.838856 -0.00548445 0)
(0.851116 -0.00551093 0)
(0.863249 -0.00549631 0)
(0.875183 -0.00543904 0)
(0.886876 -0.00534576 0)
(0.898319 -0.00522915 0)
(0.909527 -0.00510267 0)
(0.920519 -0.00497368 0)
(0.931306 -0.00483875 0)
(0.941892 -0.00468534 0)
(0.952295 -0.00450169 0)
(0.962579 -0.00429011 0)
(0.972866 -0.00407377 0)
(0.983315 -0.00388967 0)
(0.994046 -0.00377351 0)
(1.00507 -0.00375378 0)
(1.01623 -0.00386664 0)
(1.02734 -0.00417414 0)
(1.03823 -0.00473448 0)
(1.04901 -0.00552617 0)
(1.06006 -0.00636458 0)
(1.07184 -0.00680351 0)
(1.08441 -0.0060927 0)
(1.09691 -0.00344706 0)
(1.10749 0.00130679 0)
(1.11416 0.00709866 0)
(1.11616 0.0117608 0)
(1.11485 0.0135436 0)
(1.11244 0.0131697 0)
(1.10938 0.0124102 0)
(1.10509 0.012238 0)
(1.09906 0.0126397 0)
(1.09122 0.0132335 0)
(1.0819 0.0136944 0)
(1.07165 0.0138554 0)
(1.06111 0.0136367 0)
(1.05087 0.0128759 0)
(1.04157 0.0114228 0)
(1.03387 0.00927898 0)
(1.02832 0.00657471 0)
(1.02536 0.00361843 0)
(1.02478 0.000920626 0)
(1.02612 -0.00120874 0)
(1.02919 -0.00297679 0)
(1.03363 -0.00452678 0)
(1.0391 -0.00588595 0)
(1.04536 -0.00707568 0)
(1.0522 -0.0081325 0)
(1.05944 -0.00910422 0)
(1.06692 -0.010031 0)
(1.07455 -0.0109286 0)
(1.08223 -0.011776 0)
(1.0899 -0.012509 0)
(1.09751 -0.0130264 0)
(1.10498 -0.0132138 0)
(1.11222 -0.0129727 0)
(1.11915 -0.012247 0)
(1.12569 -0.0110509 0)
(1.13182 -0.0094801 0)
(1.13758 -0.00769951 0)
(1.14308 -0.00590924 0)
(1.14846 -0.00429646 0)
(1.15388 -0.0029897 0)
(1.15943 -0.00203699 0)
(1.16511 -0.00141526 0)
(1.17089 -0.00105977 0)
(1.17669 -0.000894871 0)
(1.18243 -0.000854037 0)
(1.18805 -0.000887055 0)
(1.19354 -0.000959007 0)
(1.19889 -0.0010465 0)
(1.20411 -0.00113439 0)
(1.20922 -0.00121378 0)
(1.21423 -0.00128076 0)
(1.21916 -0.00133517 0)
(1.224 -0.00137931 0)
(1.22877 -0.0014165 0)
(1.23346 -0.00144998 0)
(1.23807 -0.00148223 0)
(1.2426 -0.00151477 0)
(1.24705 -0.00154822 0)
(1.25142 -0.00158257 0)
(1.25571 -0.00161743 0)
(1.25991 -0.00165227 0)
(1.26402 -0.00168657 0)
(1.26804 -0.00171988 0)
(1.27198 -0.00175186 0)
(1.27581 -0.00178232 0)
(1.27956 -0.00181112 0)
(1.2832 -0.00183818 0)
(1.28675 -0.00186342 0)
(1.2902 -0.00188669 0)
(1.29355 -0.00190777 0)
(1.29681 -0.00192633 0)
(1.29997 -0.00194193 0)
(1.30303 -0.00195404 0)
(1.30599 -0.0019621 0)
(1.30886 -0.00196547 0)
(1.31164 -0.00196352 0)
(1.31431 -0.0019556 0)
(1.31688 -0.00194099 0)
(1.31935 -0.00191894 0)
(1.32171 -0.00188853 0)
(1.32395 -0.00184871 0)
(1.32607 -0.00179799 0)
(1.32805 -0.001733 0)
(1.32988 -0.00164702 0)
(1.33152 -0.00153878 0)
(1.33292 -0.00137671 0)
(1.33407 -0.000887139 0)
(1.33439 0.000269848 0)
(1.33323 0.00182625 0)
(1.3307 0.00319027 0)
(1.32727 0.00402041 0)
(1.32345 0.004338 0)
(1.31954 0.00436422 0)
(1.31561 0.00433224 0)
(1.31157 0.00436992 0)
(1.30731 0.00448731 0)
(1.30276 0.0046359 0)
(1.29792 0.0047699 0)
(1.29281 0.00487129 0)
(1.28745 0.00494427 0)
(1.28186 0.00500012 0)
(1.27604 0.00504686 0)
(1.27 0.0050871 0)
(1.26374 0.00512041 0)
(1.25726 0.00514605 0)
(1.25057 0.00516416 0)
(1.24368 0.00517566 0)
(1.23659 0.00518179 0)
(1.2293 0.00518373 0)
(1.22182 0.00518246 0)
(1.21416 0.00517864 0)
(1.20632 0.0051726 0)
(1.19831 0.00516422 0)
(1.19013 0.00515292 0)
(1.1818 0.0051376 0)
(1.17332 0.00511675 0)
(1.16471 0.0050886 0)
(1.15599 0.00505143 0)
(1.14716 0.00500392 0)
(1.13825 0.00494563 0)
(1.12927 0.00487755 0)
(1.12022 0.00480236 0)
(1.11111 0.00472459 0)
(1.10194 0.00465029 0)
(1.09269 0.00458633 0)
(1.08336 0.0045392 0)
(1.07392 0.00451344 0)
(1.06436 0.00451016 0)
(1.05467 0.00452644 0)
(1.04483 0.00455635 0)
(1.03487 0.00459366 0)
(1.02477 0.00463546 0)
(1.01457 0.00468526 0)
(1.00424 0.00475358 0)
(0.993761 0.00485495 0)
(0.9831 0.00500144 0)
(0.972202 0.00519523 0)
(0.961018 0.00542429 0)
(0.949518 0.00566361 0)
(0.937699 0.00588206 0)
(0.925583 0.00605165 0)
(0.91321 0.00615477 0)
(0.900622 0.00618544 0)
(0.887862 0.00614449 0)
(0.874975 0.00602844 0)
(0.86203 0.00581897 0)
(0.849137 0.00548001 0)
(0.836468 0.00496558 0)
(0.824254 0.00423995 0)
(0.812749 0.00330869 0)
(0.802168 0.00224994 0)
(0.792601 0.00122528 0)
(0.783961 0.000448769 0)
(0.77598 0.000111906 0)
(0.768288 0.000294067 0)
(0.760547 0.000908401 0)
(0.752588 0.00171975 0)
(0.744473 0.00243037 0)
(0.73647 0.00279033 0)
(0.728935 0.00267807 0)
(0.722179 0.00212048 0)
(0.716372 0.00126048 0)
(0.711508 0.000301853 0)
(0.707442 -0.000543279 0)
(0.703941 -0.00109534 0)
(0.700741 -0.00123858 0)
(0.697587 -0.000944252 0)
(0.694255 -0.000279677 0)
(0.69058 0.000607375 0)
(0.686484 0.00153168 0)
(0.681989 0.00231999 0)
(0.677204 0.00284565 0)
(0.672269 0.00305297 0)
(0.667318 0.00296742 0)
(0.662433 0.00267903 0)
(0.657644 0.00230341 0)
(0.652937 0.00193969 0)
(0.648284 0.0016456 0)
(0.643656 0.00143724 0)
(0.639032 0.00130654 0)
(0.634392 0.00124116 0)
(0.629705 0.00123504 0)
(0.624933 0.00128726 0)
(0.620035 0.00139507 0)
(0.614972 0.00154847 0)
(0.609717 0.00173051 0)
(0.604251 0.00192208 0)
(0.598562 0.00210746 0)
(0.592642 0.00227756 0)
(0.586486 0.00242968 0)
(0.58009 0.00256487 0)
(0.573455 0.00268472 0)
(0.566585 0.00278905 0)
(0.559486 0.00287541 0)
(0.552174 0.00294047 0)
(0.544664 0.00298294 0)
(0.53697 0.00300622 0)
(0.5291 0.00301763 0)
(0.52105 0.00302243 0)
(0.512811 0.00301522 0)
(0.504384 0.00297596 0)
(0.495786 0.00287674 0)
(0.487063 0.00269747 0)
(0.478281 0.0024399 0)
(0.469507 0.00212954 0)
(0.460795 0.0018048 0)
(0.452172 0.00150202 0)
(0.443643 0.00124607 0)
(0.43519 0.00104969 0)
(0.426777 0.000918339 0)
(0.418351 0.000855518 0)
(0.409845 0.00086525 0)
(0.401177 0.000951087 0)
(0.392266 0.00111314 0)
(0.383039 0.00134572 0)
(0.373453 0.00163758 0)
(0.363498 0.00197631 0)
(0.3532 0.00235227 0)
(0.342614 0.00275628 0)
(0.33181 0.00320534 0)
(0.320783 0.00380667 0)
(0.30933 0.00473065 0)
(0.297118 0.00603182 0)
(0.283936 0.00744874 0)
(0.269914 0.00855089 0)
(0.255443 0.00907514 0)
(0.240915 0.00907475 0)
(0.226528 0.00878074 0)
(0.212279 0.00839946 0)
(0.198085 0.00803181 0)
(0.183875 0.00769847 0)
(0.16962 0.00738372 0)
(0.155332 0.00706196 0)
(0.14105 0.00670737 0)
(0.126845 0.0062964 0)
(0.112816 0.00581061 0)
(0.0990832 0.00523922 0)
(0.085778 0.00457881 0)
(0.0730319 0.00383175 0)
(0.0609756 0.00300516 0)
(0.0497446 0.00210611 0)
(0.0394751 0.00116223 0)
(0.0303348 0.000191808 0)
(0.0225197 -0.000817251 0)
(0.0162461 -0.00187878 0)
(0.011823 -0.0029626 0)
(0.00936862 -0.00374881 0)
(0.00845249 -0.00389696 0)
(0.0082684 -0.00353588 0)
(0.00813669 -0.00264925 0)
(0.00613731 -0.0015987 0)
(0.00267914 -0.000803344 0)
(-0.000972064 -0.00625467 0)
(0.0053164 -0.0107542 0)
(0.0103755 -0.0108465 0)
(0.0147358 -0.0104885 0)
(0.0186371 -0.0104762 0)
(0.0218856 -0.010208 0)
(0.0243708 -0.00966425 0)
(0.0259108 -0.00890696 0)
(0.0266238 -0.00804372 0)
(0.0266912 -0.00718439 0)
(0.0263821 -0.00640368 0)
(0.0259737 -0.00578019 0)
(0.0257326 -0.00533664 0)
(0.0258239 -0.0050792 0)
(0.0263476 -0.0049699 0)
(0.0273242 -0.00497163 0)
(0.0287065 -0.005033 0)
(0.0304269 -0.00510898 0)
(0.0323961 -0.0051695 0)
(0.0345418 -0.00518677 0)
(0.0368222 -0.00515612 0)
(0.0392047 -0.00508901 0)
(0.0416827 -0.00499647 0)
(0.0442627 -0.00489627 0)
(0.0469436 -0.00480859 0)
(0.0497219 -0.00473486 0)
(0.0525624 -0.00468442 0)
(0.0554034 -0.00464598 0)
(0.0581549 -0.00459744 0)
(0.0607149 -0.00450607 0)
(0.0629764 -0.00434178 0)
(0.0648574 -0.00408413 0)
(0.0663384 -0.00372295 0)
(0.0674632 -0.00326995 0)
(0.0683544 -0.00276878 0)
(0.0691911 -0.00228075 0)
(0.0701588 -0.00184846 0)
(0.0713955 -0.00150307 0)
(0.0729627 -0.00124889 0)
(0.0748379 -0.00107216 0)
(0.0769221 -0.000945398 0)
(0.0790714 -0.0008444 0)
(0.0811465 -0.000751423 0)
(0.083041 -0.00065312 0)
(0.0846899 -0.000528519 0)
(0.086078 -0.000393253 0)
(0.0872179 -0.000234632 0)
(0.0881448 -7.6209e-05 0)
(0.0889221 8.24068e-05 0)
(0.089578 0.000232998 0)
(0.0901556 0.000369328 0)
(0.090662 0.000502486 0)
(0.091115 0.000617334 0)
(0.0915001 0.000713813 0)
(0.0918004 0.000793418 0)
(0.0920042 0.000861217 0)
(0.0920947 0.000927447 0)
(0.0920555 0.00100128 0)
(0.0918721 0.00108368 0)
(0.0915354 0.00118378 0)
(0.0910353 0.00130655 0)
(0.0903639 0.00145038 0)
(0.089523 0.00161507 0)
(0.0885157 0.00180427 0)
(0.0873444 0.00199676 0)
(0.0860229 0.00219105 0)
(0.0845643 0.00238177 0)
(0.0829819 0.00255836 0)
(0.081288 0.00271505 0)
(0.0794928 0.00285187 0)
(0.0776095 0.00296294 0)
(0.0756544 0.00304948 0)
(0.0736325 0.00311141 0)
(0.0715585 0.00315534 0)
(0.0694571 0.00317826 0)
(0.06735 0.00318637 0)
(0.0652558 0.003181 0)
(0.0631915 0.00316186 0)
(0.0611719 0.00313043 0)
(0.0592055 0.00309502 0)
(0.057291 0.00305337 0)
(0.0554222 0.00300737 0)
(0.0535859 0.00296018 0)
(0.0517666 0.00291098 0)
(0.0499518 0.00286187 0)
(0.0481306 0.00281268 0)
(0.0462929 0.00275941 0)
(0.0444358 0.00270451 0)
(0.0425571 0.00264331 0)
(0.0406552 0.00257143 0)
(0.0387373 0.00249363 0)
(0.0367986 0.00240671 0)
(0.0348411 0.00230592 0)
(0.0328763 0.00219392 0)
(0.0309153 0.00206598 0)
(0.0289734 0.00192118 0)
(0.0270604 0.00174729 0)
(0.0252027 0.00155874 0)
(0.0234154 0.00134078 0)
(0.0217152 0.00110179 0)
(0.0201097 0.000851481 0)
(0.0186072 0.000602703 0)
(0.0171902 0.000377008 0)
(0.0158386 0.000197542 0)
(0.014537 8.61598e-05 0)
(0.0132373 6.79246e-05 0)
(0.0118977 0.000155517 0)
(0.0104811 0.00035624 0)
(0.00894949 0.000664969 0)
(0.00727742 0.00104942 0)
(0.00545485 0.00147074 0)
(0.00349228 0.00188639 0)
(0.00142638 0.00224888 0)
(-0.000676224 0.00252188 0)
(-0.00272571 0.00268257 0)
(-0.00461861 0.0027217 0)
(-0.00625385 0.00264446 0)
(-0.0075404 0.00245729 0)
(-0.00839836 0.00216538 0)
(-0.00878487 0.00178279 0)
(-0.00870349 0.00134273 0)
(-0.00815538 0.000855746 0)
(-0.00715742 0.000314491 0)
(-0.00576828 -0.000279021 0)
(-0.00406063 -0.000898225 0)
(-0.00213821 -0.00152178 0)
(-0.000142384 -0.00209356 0)
(0.00173302 -0.00254307 0)
(0.00325021 -0.00279825 0)
(0.0041826 -0.00282574 0)
(0.00430662 -0.0026076 0)
(0.0035425 -0.00221558 0)
(0.0020613 -0.00179321 0)
(0.000235926 -0.00158972 0)
(-0.00128585 -0.00203297 0)
(-0.00175752 -0.00361996 0)
(-0.000489094 -0.00669744 0)
(0.00316203 -0.0112175 0)
(0.00956808 -0.0165925 0)
(0.0189086 -0.0216219 0)
(0.0311774 -0.024613 0)
(0.0464828 -0.0239306 0)
(0.0633711 -0.0183596 0)
(0.0870378 -0.00891429 0)
(0.108332 -0.00178305 0)
(0.121091 0.000338541 0)
(0.125794 0.000611254 0)
(0.122599 0.0027747 0)
(0.112143 0.00668644 0)
(0.0972159 0.0100627 0)
(0.0818994 0.0112354 0)
(0.0696757 0.00967696 0)
(0.0624349 0.00607039 0)
(0.0601771 0.00178647 0)
(0.0617187 -0.00226892 0)
(0.0659114 -0.00570022 0)
(0.0718334 -0.00840663 0)
(0.0788348 -0.0104309 0)
(0.0865314 -0.0118478 0)
(0.0947125 -0.0127153 0)
(0.103252 -0.0130772 0)
(0.112043 -0.0129841 0)
(0.120958 -0.0125075 0)
(0.12987 -0.011736 0)
(0.138666 -0.0107712 0)
(0.147228 -0.00975176 0)
(0.155454 -0.00882395 0)
(0.163303 -0.00810438 0)
(0.170812 -0.00766128 0)
(0.178099 -0.00751264 0)
(0.185325 -0.0076353 0)
(0.192661 -0.00797873 0)
(0.200248 -0.00847616 0)
(0.208173 -0.00905577 0)
(0.216473 -0.00965394 0)
(0.225154 -0.0102172 0)
(0.234193 -0.0107043 0)
(0.243552 -0.0110891 0)
(0.253176 -0.0113602 0)
(0.263007 -0.0115186 0)
(0.272983 -0.0115736 0)
(0.283041 -0.0115399 0)
(0.293121 -0.0114363 0)
(0.303168 -0.0112837 0)
(0.313135 -0.0111033 0)
(0.322987 -0.0109144 0)
(0.332701 -0.0107337 0)
(0.342271 -0.0105746 0)
(0.351702 -0.010447 0)
(0.361016 -0.0103579 0)
(0.370241 -0.0103109 0)
(0.379417 -0.0103076 0)
(0.388586 -0.0103474 0)
(0.397796 -0.0104279 0)
(0.407093 -0.0105457 0)
(0.416517 -0.010697 0)
(0.426108 -0.0108779 0)
(0.435895 -0.0110847 0)
(0.4459 -0.0113142 0)
(0.456135 -0.0115637 0)
(0.4666 -0.0118301 0)
(0.477285 -0.0121102 0)
(0.488168 -0.0123998 0)
(0.499216 -0.0126934 0)
(0.510389 -0.0129841 0)
(0.52164 -0.0132636 0)
(0.532914 -0.0135224 0)
(0.544161 -0.0137501 0)
(0.55533 -0.013936 0)
(0.566377 -0.0140703 0)
(0.577272 -0.0141459 0)
(0.587998 -0.0141599 0)
(0.598562 -0.0141163 0)
(0.608991 -0.0140276 0)
(0.61934 -0.0139151 0)
(0.629683 -0.0138076 0)
(0.640106 -0.0137372 0)
(0.650697 -0.0137328 0)
(0.661528 -0.0138134 0)
(0.672646 -0.0139817 0)
(0.684059 -0.0142204 0)
(0.695737 -0.0144937 0)
(0.707618 -0.0147536 0)
(0.719618 -0.014949 0)
(0.731649 -0.0150383 0)
(0.743633 -0.0149992 0)
(0.75552 -0.0148349 0)
(0.767298 -0.0145744 0)
(0.778987 -0.0142633 0)
(0.790627 -0.0139493 0)
(0.802247 -0.0136658 0)
(0.813826 -0.0134225 0)
(0.82526 -0.0132098 0)
(0.836361 -0.01302 0)
(0.846883 -0.0128735 0)
(0.856595 -0.0128321 0)
(0.865354 -0.0129791 0)
(0.873135 -0.0133651 0)
(0.880001 -0.0139427 0)
(0.886009 -0.0145342 0)
(0.891153 -0.0148733 0)
(0.895385 -0.0147265 0)
(0.898789 -0.0140525 0)
(0.901783 -0.0131096 0)
(0.905215 -0.0124091 0)
(0.910264 -0.0124713 0)
(0.918179 -0.013463 0)
(0.929938 -0.0149554 0)
(0.946036 -0.0160602 0)
(0.966393 -0.0159907 0)
(0.99017 -0.0146364 0)
(1.01569 -0.0126427 0)
(1.04048 -0.010805 0)
(1.06253 -0.00901864 0)
(1.08218 -0.00688437 0)
(1.10055 -0.00441901 0)
(1.11841 -0.001949 0)
(1.13592 0.00021199 0)
(1.15288 0.00189482 0)
(1.169 0.00305843 0)
(1.18397 0.00371767 0)
(1.19757 0.00383787 0)
(1.20965 0.00342174 0)
(1.22013 0.00252951 0)
(1.22893 0.00127589 0)
(1.23601 -0.000122955 0)
(1.2417 -0.0013737 0)
(1.24658 -0.00230122 0)
(1.25081 -0.00300083 0)
(1.25456 -0.0035178 0)
(1.25789 -0.00382107 0)
(1.26081 -0.00389124 0)
(1.26324 -0.00373173 0)
(1.26506 -0.00335678 0)
(1.26609 -0.00278836 0)
(1.26615 -0.00206138 0)
(1.26504 -0.00123001 0)
(1.26263 -0.000372875 0)
(1.25886 0.000405854 0)
(1.25392 0.000989521 0)
(1.24819 0.00127307 0)
(1.24229 0.00118069 0)
(1.23693 0.000673136 0)
(1.23284 -0.000244457 0)
(1.23064 -0.00151381 0)
(1.23069 -0.00301683 0)
(1.23303 -0.0045861 0)
(1.23742 -0.00603976 0)
(1.24341 -0.00722649 0)
(1.25047 -0.00805912 0)
(1.25811 -0.00852477 0)
(1.26594 -0.00867197 0)
(1.27369 -0.00858448 0)
(1.28119 -0.00835369 0)
(1.28835 -0.00805806 0)
(1.29517 -0.00775289 0)
(1.30165 -0.00746932 0)
(1.30784 -0.00721906 0)
(1.31377 -0.00700134 0)
(1.31948 -0.00680924 0)
(1.325 -0.00663427 0)
(1.33035 -0.00646885 0)
(1.33555 -0.00630731 0)
(1.34059 -0.0061459 0)
(1.34548 -0.00598242 0)
(1.35022 -0.00581576 0)
(1.35481 -0.00564549 0)
(1.35924 -0.00547157 0)
(1.36352 -0.00529417 0)
(1.36764 -0.00511361 0)
(1.3716 -0.00493024 0)
(1.3754 -0.00474455 0)
(1.37902 -0.00455711 0)
(1.38248 -0.0043686 0)
(1.38575 -0.00417985 0)
(1.38885 -0.00399171 0)
(1.39175 -0.00380508 0)
(1.39446 -0.00362081 0)
(1.39697 -0.00343962 0)
(1.39929 -0.00326203 0)
(1.4014 -0.00308835 0)
(1.40332 -0.00291863 0)
(1.40503 -0.00275267 0)
(1.40655 -0.00259002 0)
(1.40789 -0.00243001 0)
(1.40904 -0.00227172 0)
(1.41001 -0.00211404 0)
(1.41081 -0.00195557 0)
(1.41145 -0.00179451 0)
(1.41193 -0.00162835 0)
(1.41225 -0.00145269 0)
(1.41242 -0.00125912 0)
(1.41247 -0.00104061 0)
(1.41243 -0.000791393 0)
(1.41229 -0.000425962 0)
(1.41256 0.000154677 0)
(1.41384 0.000811078 0)
(1.41607 0.00135903 0)
(1.41886 0.00171328 0)
(1.42177 0.00188858 0)
(1.42451 0.00198788 0)
(1.42704 0.00211969 0)
(1.4294 0.00233303 0)
(1.43165 0.00261858 0)
(1.43381 0.00294384 0)
(1.43584 0.00328107 0)
(1.4377 0.00361689 0)
(1.43936 0.0039493 0)
(1.44078 0.00428079 0)
(1.44196 0.00461344 0)
(1.44287 0.00494756 0)
(1.44351 0.00528231 0)
(1.44385 0.00561671 0)
(1.44389 0.00594994 0)
(1.44361 0.00628133 0)
(1.44301 0.00661012 0)
(1.44207 0.00693542 0)
(1.44079 0.00725611 0)
(1.43916 0.00757093 0)
(1.4372 0.00787847 0)
(1.43488 0.00817724 0)
(1.43222 0.00846568 0)
(1.42921 0.00874228 0)
(1.42586 0.0090057 0)
(1.42217 0.00925492 0)
(1.41814 0.00948943 0)
(1.41378 0.00970959 0)
(1.40907 0.00991672 0)
(1.40402 0.0101132 0)
(1.39864 0.0103026 0)
(1.39293 0.0104893 0)
(1.38689 0.0106778 0)
(1.38054 0.0108725 0)
(1.37389 0.011076 0)
(1.36695 0.0112884 0)
(1.35973 0.0115063 0)
(1.35225 0.011723 0)
(1.34451 0.01193 0)
(1.33653 0.0121194 0)
(1.32833 0.0122877 0)
(1.31993 0.0124381 0)
(1.31136 0.0125818 0)
(1.30268 0.0127358 0)
(1.29392 0.0129174 0)
(1.28514 0.0131378 0)
(1.27634 0.0133976 0)
(1.26754 0.0136867 0)
(1.2587 0.0139901 0)
(1.24979 0.0142958 0)
(1.24077 0.0146012 0)
(1.23159 0.0149119 0)
(1.22218 0.0152327 0)
(1.21246 0.0155538 0)
(1.20233 0.015841 0)
(1.19166 0.0160375 0)
(1.1803 0.0160794 0)
(1.16814 0.0159197 0)
(1.15508 0.0155517 0)
(1.14109 0.0150204 0)
(1.12621 0.0144119 0)
(1.11059 0.0138213 0)
(1.0945 0.013311 0)
(1.07832 0.0128812 0)
(1.06248 0.0124688 0)
(1.04737 0.0119787 0)
(1.03333 0.0113324 0)
(1.02052 0.0105143 0)
(1.00899 0.00959015 0)
(0.998596 0.00868569 0)
(0.989074 0.00793147 0)
(0.980032 0.00740188 0)
(0.971046 0.0070838 0)
(0.961778 0.00689322 0)
(0.952102 0.00672709 0)
(0.942162 0.00651573 0)
(0.932328 0.00624457 0)
(0.92307 0.00594108 0)
(0.914787 0.00564859 0)
(0.907678 0.00540823 0)
(0.901698 0.00525176 0)
(0.896592 0.00520128 0)
(0.891979 0.00526661 0)
(0.887451 0.0054381 0)
(0.882647 0.00568217 0)
(0.877321 0.00594907 0)
(0.871361 0.00619163 0)
(0.864776 0.00638368 0)
(0.857663 0.00652651 0)
(0.850152 0.00664025 0)
(0.842367 0.00674783 0)
(0.834408 0.00686312 0)
(0.826349 0.00698937 0)
(0.818243 0.0071254 0)
(0.810134 0.00727244 0)
(0.802044 0.00743607 0)
(0.793978 0.00762341 0)
(0.785916 0.00783883 0)
(0.77782 0.00808168 0)
(0.769648 0.00834689 0)
(0.76136 0.00862718 0)
(0.752923 0.00891521 0)
(0.744311 0.00920492 0)
(0.735503 0.00949231 0)
(0.726478 0.00977626 0)
(0.717217 0.0100595 0)
(0.707699 0.0103489 0)
(0.697902 0.0106542 0)
(0.687791 0.0109839 0)
(0.677311 0.011339 0)
(0.66637 0.0117091 0)
(0.654852 0.0120724 0)
(0.642633 0.0124036 0)
(0.629616 0.012683 0)
(0.615748 0.012903 0)
(0.601036 0.0130684 0)
(0.585531 0.0131931 0)
(0.569315 0.013297 0)
(0.552485 0.0134038 0)
(0.535132 0.0135382 0)
(0.517349 0.013721 0)
(0.499226 0.0139625 0)
(0.480871 0.0142575 0)
(0.462411 0.0145829 0)
(0.444009 0.0148991 0)
(0.425855 0.0151577 0)
(0.408174 0.0153138 0)
(0.3912 0.0153387 0)
(0.375166 0.0152398 0)
(0.360323 0.0150853 0)
(0.346996 0.0149863 0)
(0.335502 0.0150236 0)
(0.325935 0.0151483 0)
(0.318062 0.0152305 0)
(0.311452 0.0152099 0)
(0.305659 0.0151569 0)
(0.300295 0.0151983 0)
(0.295036 0.0154018 0)
(0.289604 0.01574 0)
(0.28377 0.0161412 0)
(0.277335 0.0165445 0)
(0.270142 0.016912 0)
(0.262085 0.0172159 0)
(0.253109 0.0174285 0)
(0.243203 0.0175252 0)
(0.232384 0.0174915 0)
(0.220676 0.0173245 0)
(0.208094 0.0170233 0)
(0.19464 0.0165824 0)
(0.180322 0.0159851 0)
(0.16516 0.0151757 0)
(0.149213 0.0140831 0)
(0.132629 0.0126511 0)
(0.115656 0.0108716 0)
(0.0985898 0.00880155 0)
(0.0815919 0.00664349 0)
(0.0651925 0.00484224 0)
(0.0499986 0.00385107 0)
(0.0361527 0.00437896 0)
(0.0220855 0.00637931 0)
(0.00817804 0.00839094 0)
(-0.0014116 -0.00724284 0)
(0.0045444 -0.0147961 0)
(0.00887526 -0.0137186 0)
(0.0112776 -0.0123846 0)
(0.012285 -0.0116004 0)
(0.0123235 -0.0105228 0)
(0.0115425 -0.00915087 0)
(0.0100792 -0.0077053 0)
(0.00834914 -0.00643679 0)
(0.00675222 -0.0054834 0)
(0.00564349 -0.00493449 0)
(0.00527427 -0.00477326 0)
(0.00576718 -0.004921 0)
(0.00710218 -0.00528645 0)
(0.00917552 -0.0057494 0)
(0.0118309 -0.00622051 0)
(0.0149036 -0.00663834 0)
(0.0182519 -0.00696707 0)
(0.0217683 -0.00720927 0)
(0.0253834 -0.00736787 0)
(0.0290655 -0.00747033 0)
(0.0327995 -0.00753402 0)
(0.0365733 -0.00757265 0)
(0.0403694 -0.00758895 0)
(0.0441513 -0.00757103 0)
(0.0478607 -0.0075012 0)
(0.0514248 -0.007355 0)
(0.0547626 -0.00711104 0)
(0.0578033 -0.00675843 0)
(0.0605119 -0.00630071 0)
(0.0629008 -0.00577019 0)
(0.0650457 -0.00522105 0)
(0.0670864 -0.00472732 0)
(0.0691906 -0.00437151 0)
(0.0715332 -0.00418688 0)
(0.0742515 -0.00418411 0)
(0.0773929 -0.00430891 0)
(0.0809153 -0.00447632 0)
(0.0846939 -0.00458748 0)
(0.088552 -0.00456357 0)
(0.0923086 -0.00437387 0)
(0.0958103 -0.00403494 0)
(0.0989492 -0.00358586 0)
(0.101681 -0.00308834 0)
(0.103986 -0.00259263 0)
(0.105902 -0.00213614 0)
(0.107482 -0.0017468 0)
(0.108771 -0.00139859 0)
(0.109839 -0.00111298 0)
(0.110713 -0.000848478 0)
(0.111436 -0.00059856 0)
(0.111993 -0.000350678 0)
(0.11238 -9.85479e-05 0)
(0.112608 0.000165661 0)
(0.112665 0.000435463 0)
(0.112543 0.000714588 0)
(0.112237 0.00100675 0)
(0.111743 0.00130492 0)
(0.111072 0.00161145 0)
(0.110241 0.00192345 0)
(0.109264 0.0022396 0)
(0.108161 0.00255063 0)
(0.106966 0.00285465 0)
(0.105689 0.00314669 0)
(0.104351 0.00342157 0)
(0.102977 0.00367688 0)
(0.101567 0.00391028 0)
(0.100125 0.00412208 0)
(0.098656 0.00431077 0)
(0.0971511 0.00447471 0)
(0.0956093 0.00461196 0)
(0.0940398 0.00471571 0)
(0.0924452 0.00477643 0)
(0.0908289 0.00480901 0)
(0.0892054 0.00479461 0)
(0.0875872 0.00474585 0)
(0.0859786 0.00467124 0)
(0.084382 0.0045772 0)
(0.0827953 0.00447631 0)
(0.081201 0.00439 0)
(0.0795822 0.0043124 0)
(0.0779202 0.0042571 0)
(0.0761876 0.00422933 0)
(0.0743626 0.00422039 0)
(0.0724281 0.00423094 0)
(0.0703693 0.00425689 0)
(0.0681791 0.00428966 0)
(0.0658542 0.00433077 0)
(0.0633961 0.00437113 0)
(0.0608105 0.00441116 0)
(0.0581083 0.00444824 0)
(0.0552957 0.00447819 0)
(0.0523853 0.00450105 0)
(0.0493943 0.00451201 0)
(0.046338 0.00450332 0)
(0.0432316 0.00447029 0)
(0.0400916 0.00440036 0)
(0.0369306 0.00429455 0)
(0.0337625 0.00415098 0)
(0.0306056 0.00397088 0)
(0.0274689 0.00376546 0)
(0.0243695 0.00354651 0)
(0.0213238 0.00332795 0)
(0.0183505 0.00314872 0)
(0.0154794 0.00302138 0)
(0.0127351 0.00296568 0)
(0.0101488 0.00299559 0)
(0.00775937 0.00310566 0)
(0.00559513 0.00327914 0)
(0.00368902 0.00347647 0)
(0.00207496 0.00365468 0)
(0.000776033 0.00376525 0)
(-0.000193077 0.00376383 0)
(-0.000830273 0.00361235 0)
(-0.00114421 0.00329745 0)
(-0.00115271 0.00282232 0)
(-0.000883088 0.00220718 0)
(-0.000383298 0.00149178 0)
(0.000292027 0.000721888 0)
(0.00110081 -7.50219e-05 0)
(0.00197185 -0.00087753 0)
(0.00280896 -0.00161134 0)
(0.00354748 -0.00225931 0)
(0.00412123 -0.00280911 0)
(0.00445718 -0.00324148 0)
(0.00448248 -0.00352053 0)
(0.004119 -0.00357404 0)
(0.00327019 -0.00330081 0)
(0.00179672 -0.00259437 0)
(-0.000462637 -0.00142046 0)
(-0.00371265 8.27889e-05 0)
(-0.00806086 0.0017027 0)
(-0.0133081 0.00304418 0)
(-0.0189013 0.00362699 0)
(-0.0240543 0.00288569 0)
(-0.0280381 0.000279919 0)
(-0.030421 -0.00430631 0)
(-0.031435 -0.010504 0)
(-0.0316917 -0.0174459 0)
(-0.0317898 -0.0237905 0)
(-0.0321901 -0.0278359 0)
(-0.0326761 -0.0280205 0)
(-0.0320656 -0.0230038 0)
(-0.028942 -0.0122331 0)
(-0.023428 0.000341632 0)
(-0.0177741 0.0085743 0)
(-0.0129713 0.0124375 0)
(-0.00754188 0.0135197 0)
(-0.00027118 0.0125938 0)
(0.00926626 0.00947738 0)
(0.0206255 0.00446854 0)
(0.0323886 -0.00144527 0)
(0.0434056 -0.00684601 0)
(0.0529472 -0.011074 0)
(0.0610097 -0.0140021 0)
(0.0678412 -0.0158647 0)
(0.0737448 -0.0170113 0)
(0.0790155 -0.0176983 0)
(0.0839073 -0.0180533 0)
(0.0886389 -0.0181152 0)
(0.0934086 -0.0178885 0)
(0.0984025 -0.017393 0)
(0.103785 -0.0166798 0)
(0.109675 -0.0158252 0)
(0.116134 -0.0149581 0)
(0.123177 -0.0142295 0)
(0.130774 -0.0137613 0)
(0.13885 -0.0136194 0)
(0.147299 -0.0138065 0)
(0.156005 -0.0142712 0)
(0.164857 -0.0149289 0)
(0.173769 -0.0156873 0)
(0.182683 -0.0164688 0)
(0.191572 -0.0172158 0)
(0.200429 -0.0178848 0)
(0.209265 -0.0184489 0)
(0.218102 -0.0188966 0)
(0.226972 -0.0192274 0)
(0.235911 -0.0194488 0)
(0.244954 -0.0195732 0)
(0.254133 -0.0196171 0)
(0.26347 -0.0196 0)
(0.272983 -0.0195422 0)
(0.282677 -0.0194635 0)
(0.292554 -0.0193815 0)
(0.302609 -0.0193111 0)
(0.312833 -0.0192642 0)
(0.323217 -0.0192498 0)
(0.333748 -0.0192746 0)
(0.344417 -0.0193431 0)
(0.355215 -0.0194581 0)
(0.366137 -0.019621 0)
(0.377176 -0.0198312 0)
(0.388328 -0.0200867 0)
(0.399588 -0.0203835 0)
(0.410952 -0.0207158 0)
(0.422411 -0.0210754 0)
(0.433952 -0.0214524 0)
(0.445559 -0.0218348 0)