/*--------------------------------*- C++ -*----------------------------------*\
| =========                 |                                                 |
| \\      /  F ield         | OpenFOAM: The Open Source CFD Toolbox           |
|  \\    /   O peration     | Version:  v2006                                 |
|   \\  /    A nd           | Website:  www.openfoam.com                      |
|    \\/     M anipulation  |                                                 |
\*---------------------------------------------------------------------------*/
FoamFile
{
    version     2.0;
    format      ascii;
    class       volVectorField;
    location    "0";
    object      U;
}
// * * * * * * * * * * * * * * * * * * * * * * * * * * * * * * * * * * * * * //

dimensions      [0 1 -1 0 0 0 0];


internalField   nonuniform List<vector> 
67500
(
(0.025465 -0.00594913 0)
(0.0280267 -0.005653 0)
(0.0331454 -0.00763537 0)
(0.0368481 -0.00113567 0)
(0.0170246 -0.00372161 0)
(-0.00750654 0.00644947 0)
(-0.0307933 0.0151991 0)
(-0.0442452 0.0106241 0)
(-0.0411067 0.000289236 0)
(-0.0313328 -0.00443986 0)
(-0.016289 -0.00774478 0)
(0.000252174 -0.00932282 0)
(0.01746 -0.00936719 0)
(0.0336429 -0.00811574 0)
(0.0478397 -0.00626233 0)
(0.0593389 -0.00460076 0)
(0.0679771 -0.00324574 0)
(0.07389 -0.00180824 0)
(0.0768036 -0.000331113 0)
(0.07643 0.000868481 0)
(0.0736383 0.00136502 0)
(0.0689725 0.000749775 0)
(0.0648572 -0.000927802 0)
(0.0629177 -0.00266264 0)
(0.0627916 -0.00344315 0)
(0.0633412 -0.00311544 0)
(0.0638719 -0.00228943 0)
(0.0640606 -0.0014731 0)
(0.0638112 -0.000789476 0)
(0.0631857 -0.000291738 0)
(0.0622722 0.000145853 0)
(0.0609389 0.000605283 0)
(0.0589678 0.00102284 0)
(0.0563772 0.00136298 0)
(0.0533645 0.00161752 0)
(0.0501394 0.00178489 0)
(0.0468687 0.00185622 0)
(0.0436789 0.00184094 0)
(0.0406524 0.00176875 0)
(0.0378198 0.00167156 0)
(0.035171 0.00156764 0)
(0.0326786 0.00146096 0)
(0.0303156 0.00135088 0)
(0.0280568 0.00124145 0)
(0.0258725 0.00114216 0)
(0.0237278 0.00106309 0)
(0.0215852 0.00101012 0)
(0.0194114 0.00098225 0)
(0.0171848 0.000972546 0)
(0.0148995 0.000972357 0)
(0.0125638 0.000974071 0)
(0.0101961 0.000972265 0)
(0.00781982 0.000964179 0)
(0.0054589 0.000949635 0)
(0.00313499 0.000930717 0)
(0.000865449 0.000909944 0)
(-0.00133743 0.000889586 0)
(-0.0034669 0.000870616 0)
(-0.00552094 0.000852453 0)
(-0.00750139 0.000834374 0)
(-0.00941271 0.000815137 0)
(-0.01126 0.000793935 0)
(-0.0130482 0.00077098 0)
(-0.0147815 0.000746784 0)
(-0.0164627 0.000721165 0)
(-0.0180917 0.000693691 0)
(-0.0196657 0.000663763 0)
(-0.0211795 0.000631219 0)
(-0.0226264 0.00059619 0)
(-0.0240004 0.000559663 0)
(-0.0252978 0.000522702 0)
(-0.026518 0.000486206 0)
(-0.0276634 0.000450615 0)
(-0.0287383 0.000416974 0)
(-0.0297483 0.000385633 0)
(-0.0306998 0.000357744 0)
(-0.031599 0.000333396 0)
(-0.032451 0.000312781 0)
(-0.0332591 0.000295042 0)
(-0.0340238 0.000279802 0)
(-0.0347444 0.00026687 0)
(-0.0354196 0.00025601 0)
(-0.0360479 0.000246469 0)
(-0.0366268 0.000236925 0)
(-0.037154 0.000226448 0)
(-0.0376283 0.000214383 0)
(-0.0380491 0.000199972 0)
(-0.038416 0.000182506 0)
(-0.0387284 0.000162016 0)
(-0.0389866 0.000138896 0)
(-0.0391911 0.000113381 0)
(-0.0393417 8.57526e-05 0)
(-0.0394383 5.6571e-05 0)
(-0.0394808 2.63653e-05 0)
(-0.0394695 -4.3371e-06 0)
(-0.0394046 -3.52524e-05 0)
(-0.039286 -6.61733e-05 0)
(-0.0391136 -9.65698e-05 0)
(-0.0388878 -0.000126038 0)
(-0.0386092 -0.000154292 0)
(-0.0382785 -0.000181224 0)
(-0.0378969 -0.000206579 0)
(-0.0374662 -0.000230198 0)
(-0.036989 -0.000252009 0)
(-0.0364683 -0.000272116 0)
(-0.035907 -0.000290796 0)
(-0.0353078 -0.000308178 0)
(-0.0346734 -0.000324299 0)
(-0.0340065 -0.000339156 0)
(-0.0333097 -0.000352816 0)
(-0.0325856 -0.000365397 0)
(-0.0318364 -0.000376873 0)
(-0.0310645 -0.000387167 0)
(-0.0302723 -0.000396285 0)
(-0.0294621 -0.000404343 0)
(-0.028636 -0.000411477 0)
(-0.0277958 -0.000417831 0)
(-0.0269428 -0.000423699 0)
(-0.0260779 -0.000429412 0)
(-0.0252016 -0.000434995 0)
(-0.0243146 -0.000440257 0)
(-0.0234181 -0.000445023 0)
(-0.0225138 -0.000449187 0)
(-0.0216031 -0.000452694 0)
(-0.0206877 -0.00045552 0)
(-0.019769 -0.000457643 0)
(-0.0188485 -0.000459095 0)
(-0.0179272 -0.000460001 0)
(-0.0170057 -0.000460449 0)
(-0.0160847 -0.000460368 0)
(-0.0151651 -0.000459623 0)
(-0.014248 -0.000458144 0)
(-0.0133348 -0.000455939 0)
(-0.0124267 -0.000453071 0)
(-0.0115248 -0.000449645 0)
(-0.0106299 -0.000445764 0)
(-0.00974301 -0.000441476 0)
(-0.00886483 -0.000436774 0)
(-0.00799629 -0.000431644 0)
(-0.00713831 -0.000426094 0)
(-0.00629178 -0.00042015 0)
(-0.00545751 -0.00041385 0)
(-0.00463618 -0.000407219 0)
(-0.00382848 -0.000400264 0)
(-0.00303505 -0.000392994 0)
(-0.0022565 -0.000385427 0)
(-0.00149339 -0.000377594 0)
(-0.000746206 -0.000369527 0)
(-1.53908e-05 -0.000361251 0)
(0.000698677 -0.000352795 0)
(0.00139566 -0.000344186 0)
(0.00207529 -0.000335453 0)
(0.00273733 -0.000326621 0)
(0.00338162 -0.000317714 0)
(0.00400803 -0.000308756 0)
(0.00461647 -0.000299768 0)
(0.0052069 -0.00029077 0)
(0.00577934 -0.000281783 0)
(0.00633381 -0.000272825 0)
(0.00687041 -0.000263913 0)
(0.00738923 -0.000255063 0)
(0.00789041 -0.00024629 0)
(0.00837414 -0.000237609 0)
(0.00884059 -0.000229032 0)
(0.00929001 -0.000220571 0)
(0.00972262 -0.000212238 0)
(0.0101387 -0.000204045 0)
(0.0105385 -0.000196003 0)
(0.0109224 -0.000188122 0)
(0.0112907 -0.000180416 0)
(0.0116438 -0.000172894 0)
(0.011982 -0.000165568 0)
(0.0123058 -0.000158448 0)
(0.0126155 -0.000151543 0)
(0.0129117 -0.000144859 0)
(0.0131947 -0.000138403 0)
(0.013465 -0.000132177 0)
(0.0137231 -0.000126184 0)
(0.0139695 -0.000120422 0)
(0.0142045 -0.000114891 0)
(0.0144288 -0.000109585 0)
(0.0146426 -0.000104502 0)
(0.0148465 -9.96361e-05 0)
(0.0150409 -9.49806e-05 0)
(0.0152262 -9.05294e-05 0)
(0.0154028 -8.62755e-05 0)
(0.0155711 -8.2212e-05 0)
(0.0157314 -7.83317e-05 0)
(0.0158842 -7.46276e-05 0)
(0.0160298 -7.10926e-05 0)
(0.0161684 -6.77197e-05 0)
(0.0163005 -6.45022e-05 0)
(0.0164263 -6.14334e-05 0)
(0.016546 -5.8507e-05 0)
(0.0166601 -5.57166e-05 0)
(0.0167688 -5.30562e-05 0)
(0.0168722 -5.052e-05 0)
(0.0169707 -4.81023e-05 0)
(0.0170645 -4.57976e-05 0)
(0.0171538 -4.36007e-05 0)
(0.0172388 -4.15066e-05 0)
(0.0173197 -3.95104e-05 0)
(0.0173967 -3.76075e-05 0)
(0.0174701 -3.57934e-05 0)
(0.0175398 -3.4064e-05 0)
(0.0176062 -3.24152e-05 0)
(0.0176694 -3.08433e-05 0)
(0.0177295 -2.93445e-05 0)
(0.0177867 -2.79155e-05 0)
(0.0178412 -2.6553e-05 0)
(0.0178929 -2.52542e-05 0)
(0.0179421 -2.4016e-05 0)
(0.0179889 -2.28359e-05 0)
(0.0180335 -2.17114e-05 0)
(0.0180758 -2.06402e-05 0)
(0.018116 -1.962e-05 0)
(0.0181542 -1.86487e-05 0)
(0.0181906 -1.77243e-05 0)
(0.0182252 -1.68449e-05 0)
(0.018258 -1.60086e-05 0)
(0.0182892 -1.52135e-05 0)
(0.0183189 -1.44579e-05 0)
(0.018347 -1.37399e-05 0)
(0.0183738 -1.30579e-05 0)
(0.0183993 -1.24101e-05 0)
(0.0184235 -1.17949e-05 0)
(0.0184465 -1.12107e-05 0)
(0.0184684 -1.06557e-05 0)
(0.0184891 -1.01284e-05 0)
(0.0185089 -9.62739e-06 0)
(0.0185277 -9.15111e-06 0)
(0.0185455 -8.69819e-06 0)
(0.0185625 -8.26726e-06 0)
(0.0185786 -7.85706e-06 0)
(0.0185939 -7.46635e-06 0)
(0.0186085 -7.09399e-06 0)
(0.0186223 -6.73889e-06 0)
(0.0186354 -6.40004e-06 0)
(0.0186479 -6.0765e-06 0)
(0.0186598 -5.76737e-06 0)
(0.018671 -5.47185e-06 0)
(0.0186816 -5.18918e-06 0)
(0.0186917 -4.91867e-06 0)
(0.0187013 -4.6597e-06 0)
(0.0187104 -4.41169e-06 0)
(0.018719 -4.17412e-06 0)
(0.0187271 -3.94652e-06 0)
(0.0187347 -3.72848e-06 0)
(0.018742 -3.51962e-06 0)
(0.0187488 -3.3196e-06 0)
(0.0187553 -3.12813e-06 0)
(0.0187613 -2.94492e-06 0)
(0.018767 -2.76975e-06 0)
(0.0187724 -2.6024e-06 0)
(0.0187774 -2.44266e-06 0)
(0.0187822 -2.29034e-06 0)
(0.0187866 -2.14529e-06 0)
(0.0187907 -2.00733e-06 0)
(0.0187946 -1.87631e-06 0)
(0.0187982 -1.75206e-06 0)
(0.0188016 -1.63445e-06 0)
(0.0188048 -1.5233e-06 0)
(0.0188077 -1.41847e-06 0)
(0.0188104 -1.3198e-06 0)
(0.018813 -1.22711e-06 0)
(0.0188153 -1.14025e-06 0)
(0.0188175 -1.05902e-06 0)
(0.0188196 -9.83269e-07 0)
(0.0188214 -9.12797e-07 0)
(0.0188232 -8.47418e-07 0)
(0.0188248 -7.86941e-07 0)
(0.0188263 -7.3117e-07 0)
(0.0188277 -6.79907e-07 0)
(0.0188291 -6.32949e-07 0)
(0.0188303 -5.90095e-07 0)
(0.0188314 -5.51142e-07 0)
(0.0188325 -5.15887e-07 0)
(0.0188335 -4.84126e-07 0)
(0.0188344 -4.55659e-07 0)
(0.0188353 -4.30287e-07 0)
(0.0188361 -4.07812e-07 0)
(0.0188369 -3.88041e-07 0)
(0.0188377 -3.70784e-07 0)
(0.0188384 -3.55854e-07 0)
(0.0188391 -3.43071e-07 0)
(0.0188398 -3.32258e-07 0)
(0.0188404 -3.23243e-07 0)
(0.0188411 -3.15859e-07 0)
(0.0188417 -3.09946e-07 0)
(0.0188423 -3.05349e-07 0)
(0.0188429 -3.01919e-07 0)
(0.0188435 -2.99512e-07 0)
(0.0188441 -2.97993e-07 0)
(0.0188447 -2.97229e-07 0)
(0.0188453 -2.97098e-07 0)
(0.0188459 -2.97483e-07 0)
(0.0188465 -2.98272e-07 0)
(0.0188471 -2.99364e-07 0)
(0.0188477 -3.0066e-07 0)
(0.0188483 -3.02072e-07 0)
(0.0188489 -3.03516e-07 0)
(0.0188495 -3.04917e-07 0)
(0.0188501 -3.06205e-07 0)
(0.0188507 -3.07317e-07 0)
(0.0188513 -3.08195e-07 0)
(0.018852 -3.08789e-07 0)
(0.0188526 -3.09052e-07 0)
(0.0188532 -3.08945e-07 0)
(0.0188538 -3.08431e-07 0)
(0.0188544 -3.07482e-07 0)
(0.018855 -3.0607e-07 0)
(0.0188556 -3.04176e-07 0)
(0.0188563 -3.01784e-07 0)
(0.0188569 -2.98882e-07 0)
(0.0188574 -2.95464e-07 0)
(0.018858 -2.91526e-07 0)
(0.0188586 -2.8707e-07 0)
(0.0188592 -2.82103e-07 0)
(0.0188597 -2.76633e-07 0)
(0.0188603 -2.70674e-07 0)
(0.0188608 -2.64244e-07 0)
(0.0188614 -2.57363e-07 0)
(0.0188619 -2.50056e-07 0)
(0.0188624 -2.42348e-07 0)
(0.0188628 -2.34271e-07 0)
(0.0188633 -2.25856e-07 0)
(0.0188637 -2.17137e-07 0)
(0.0188642 -2.08152e-07 0)
(0.0188646 -1.98938e-07 0)
(0.018865 -1.89534e-07 0)
(0.0188653 -1.79982e-07 0)
(0.0188657 -1.70324e-07 0)
(0.018866 -1.60602e-07 0)
(0.0188663 -1.5086e-07 0)
(0.0188666 -1.41143e-07 0)
(0.0188669 -1.31494e-07 0)
(0.0188671 -1.21958e-07 0)
(0.0188674 -1.12579e-07 0)
(0.0188676 -1.03402e-07 0)
(0.0188678 -9.44685e-08 0)
(0.0188679 -8.58211e-08 0)
(0.0188681 -7.74997e-08 0)
(0.0188683 -6.95423e-08 0)
(0.0188684 -6.19844e-08 0)
(0.0188685 -5.48588e-08 0)
(0.0188686 -4.81947e-08 0)
(0.0188687 -4.20177e-08 0)
(0.0188688 -3.63495e-08 0)
(0.0188688 -3.12075e-08 0)
(0.0188689 -2.66046e-08 0)
(0.0188689 -2.2549e-08 0)
(0.018869 -1.90444e-08 0)
(0.018869 -1.60899e-08 0)
(0.018869 -1.36798e-08 0)
(0.0188691 -1.18043e-08 0)
(0.0188691 -1.04489e-08 0)
(0.0188691 -9.59527e-09 0)
(0.0188691 -9.2211e-09 0)
(0.0188691 -9.30047e-09 0)
(0.0188691 -9.80411e-09 0)
(0.0188692 -1.06997e-08 0)
(0.0188692 -1.19523e-08 0)
(0.0188692 -1.35246e-08 0)
(0.0188692 -1.53774e-08 0)
(0.0188693 -1.74701e-08 0)
(0.0188693 -1.97614e-08 0)
(0.0188694 -2.22096e-08 0)
(0.0188694 -2.47738e-08 0)
(0.0188695 -2.74139e-08 0)
(0.0188695 -3.00922e-08 0)
(0.0188696 -3.27738e-08 0)
(0.0188697 -3.54278e-08 0)
(0.0188698 -3.80278e-08 0)
(0.0188698 -4.05532e-08 0)
(0.0188699 -4.29899e-08 0)
(0.01887 -4.53306e-08 0)
(0.0188701 -4.75755e-08 0)
(0.0188703 -4.97322e-08 0)
(0.0188704 -5.18153e-08 0)
(0.0188705 -5.38458e-08 0)
(0.0188706 -5.5849e-08 0)
(0.0188708 -5.78536e-08 0)
(0.0188709 -5.98887e-08 0)
(0.018871 -6.19818e-08 0)
(0.0188712 -6.41563e-08 0)
(0.0188713 -6.64291e-08 0)
(0.0188715 -6.88089e-08 0)
(0.0188717 -7.12946e-08 0)
(0.0188718 -7.38749e-08 0)
(0.018872 -7.6528e-08 0)
(0.0188722 -7.92232e-08 0)
(0.0188723 -8.19218e-08 0)
(0.0188725 -8.45793e-08 0)
(0.0188727 -8.7148e-08 0)
(0.0188729 -8.95791e-08 0)
(0.0188731 -9.18256e-08 0)
(0.0188733 -9.3844e-08 0)
(0.0188735 -9.55963e-08 0)
(0.0188737 -9.70515e-08 0)
(0.0188739 -9.81859e-08 0)
(0.0188741 -9.89842e-08 0)
(0.0188743 -9.94389e-08 0)
(0.0188745 -9.95505e-08 0)
(0.0188747 -9.93261e-08 0)
(0.0188749 -9.8779e-08 0)
(0.0188751 -9.79277e-08 0)
(0.0188753 -9.67947e-08 0)
(0.0188755 -9.54052e-08 0)
(0.0188757 -9.37866e-08 0)
(0.0188759 -9.19672e-08 0)
(0.018876 -8.99758e-08 0)
(0.0188762 -8.78403e-08 0)
(0.0188764 -8.55878e-08 0)
(0.0188765 -8.32441e-08 0)
(0.0188767 -8.08331e-08 0)
(0.0188769 -7.83765e-08 0)
(0.018877 -7.58943e-08 0)
(0.0188772 -7.34041e-08 0)
(0.0188773 -7.09216e-08 0)
(0.0188775 -6.84602e-08 0)
(0.0188776 -6.60315e-08 0)
(0.0188777 -6.36454e-08 0)
(0.0188778 -6.13098e-08 0)
(0.018878 -5.90314e-08 0)
(0.0188781 -5.68153e-08 0)
(0.0188782 -5.46654e-08 0)
(0.0188783 -5.25847e-08 0)
(0.0188784 -5.05749e-08 0)
(0.0188785 -4.86374e-08 0)
(0.0188786 -4.67723e-08 0)
(0.0188787 -4.49797e-08 0)
(0.0188788 -4.32587e-08 0)
(0.0188788 -4.16084e-08 0)
(0.0188789 -4.00272e-08 0)
(0.018879 -3.85135e-08 0)
(0.0188791 -3.70655e-08 0)
(0.0188791 -3.56809e-08 0)
(0.0188792 -3.43577e-08 0)
(0.0188793 -3.30937e-08 0)
(0.0188793 -3.18864e-08 0)
(0.0188794 -3.07336e-08 0)
(0.0188795 -2.96329e-08 0)
(0.0188795 -2.8582e-08 0)
(0.0188796 -2.75786e-08 0)
(0.0188796 -2.66206e-08 0)
(0.0188797 -2.57042e-08 0)
(0.0188797 -2.48348e-08 0)
(0.0188798 -2.39766e-08 0)
(0.0188798 -2.32766e-08 0)
(0.0188799 -2.20675e-08 0)
(0.0272198 -0.0192985 0)
(0.0253313 -0.00841112 0)
(0.0316048 0.00229673 0)
(0.0311765 0.0135996 0)
(0.0194483 0.049266 0)
(-0.0345463 0.0557105 0)
(-0.0769084 0.0261004 0)
(-0.088502 -0.00888252 0)
(-0.0505775 -0.0190539 0)
(-0.0116687 -0.0203475 0)
(0.000607359 -0.0233736 0)
(0.00584285 -0.0240016 0)
(0.00735777 -0.0236669 0)
(0.00908422 -0.0230108 0)
(0.0183833 -0.0202882 0)
(0.0316251 -0.0171815 0)
(0.0453963 -0.0134114 0)
(0.0577249 -0.00901629 0)
(0.0684668 -0.00457412 0)
(0.0779251 0.000728746 0)
(0.0849171 0.00509539 0)
(0.0889994 0.00723772 0)
(0.089208 0.00690239 0)
(0.0872069 0.00502391 0)
(0.0842183 0.0030042 0)
(0.0807518 0.00170453 0)
(0.0772556 0.00124072 0)
(0.0740191 0.00106851 0)
(0.0710197 0.00117674 0)
(0.068597 0.00140734 0)
(0.0671128 0.0019296 0)
(0.066049 0.00282925 0)
(0.0646192 0.00365018 0)
(0.0630048 0.00424707 0)
(0.061371 0.00459848 0)
(0.059893 0.00471079 0)
(0.0584642 0.00463757 0)
(0.0570053 0.00444539 0)
(0.055482 0.00418974 0)
(0.0538525 0.00392807 0)
(0.0520845 0.00369918 0)
(0.0501611 0.0035193 0)
(0.0480804 0.00338809 0)
(0.0458482 0.00330464 0)
(0.0434775 0.0032708 0)
(0.0409933 0.00328779 0)
(0.0384363 0.00335273 0)
(0.0358606 0.00345365 0)
(0.0333177 0.00356762 0)
(0.0308443 0.00367116 0)
(0.0284551 0.00374644 0)
(0.0261446 0.00378447 0)
(0.0238936 0.00378351 0)
(0.0216799 0.00374458 0)
(0.0194863 0.00367311 0)
(0.017301 0.00357445 0)
(0.01512 0.00345663 0)
(0.0129432 0.00332969 0)
(0.010773 0.00320069 0)
(0.00861544 0.00307828 0)
(0.0064767 0.00296669 0)
(0.00436516 0.00286646 0)
(0.00229229 0.002777 0)
(0.00026962 0.00269606 0)
(-0.0016935 0.00261826 0)
(-0.00359105 0.00253854 0)
(-0.00542456 0.00245158 0)
(-0.00720222 0.00235528 0)
(-0.00893729 0.00224823 0)
(-0.0106404 0.00213306 0)
(-0.0123202 0.00201388 0)
(-0.0139809 0.0018965 0)
(-0.0156244 0.00178335 0)
(-0.0172486 0.00167962 0)
(-0.0188509 0.00158393 0)
(-0.0204252 0.00149814 0)
(-0.0219667 0.00141929 0)
(-0.0234692 0.00134717 0)
(-0.0249284 0.00127565 0)
(-0.0263371 0.00120115 0)
(-0.0276886 0.00112217 0)
(-0.0289771 0.00103853 0)
(-0.0301979 0.000949824 0)
(-0.0313456 0.000855656 0)
(-0.0324146 0.000758737 0)
(-0.0334013 0.000662355 0)
(-0.0343035 0.000567954 0)
(-0.0351186 0.000475582 0)
(-0.0358446 0.000386672 0)
(-0.0364811 0.000302219 0)
(-0.0370287 0.000220809 0)
(-0.0374874 0.000141134 0)
(-0.0378578 6.31926e-05 0)
(-0.0381414 -1.33545e-05 0)
(-0.0383405 -8.84838e-05 0)
(-0.0384577 -0.000162985 0)
(-0.0384953 -0.000237742 0)
(-0.0384562 -0.000312131 0)
(-0.0383443 -0.000386343 0)
(-0.0381636 -0.000460635 0)
(-0.0379181 -0.000535148 0)
(-0.0376113 -0.000608445 0)
(-0.0372475 -0.000679335 0)
(-0.036831 -0.000746488 0)
(-0.0363661 -0.000809382 0)
(-0.0358562 -0.000868473 0)
(-0.035304 -0.000923648 0)
(-0.0347118 -0.00097483 0)
(-0.0340822 -0.00102179 0)
(-0.0334177 -0.00106469 0)
(-0.0327207 -0.00110419 0)
(-0.0319932 -0.00114028 0)
(-0.0312375 -0.00117286 0)
(-0.0304564 -0.00120206 0)
(-0.0296526 -0.00122827 0)
(-0.0288282 -0.00125187 0)
(-0.0279858 -0.00127298 0)
(-0.0271276 -0.00129214 0)
(-0.0262548 -0.00131034 0)
(-0.025368 -0.00132756 0)
(-0.0244685 -0.00134305 0)
(-0.0235581 -0.00135612 0)
(-0.0226391 -0.00136648 0)
(-0.0217136 -0.00137414 0)
(-0.0207836 -0.00137933 0)
(-0.019851 -0.00138224 0)
(-0.0189175 -0.00138322 0)
(-0.0179844 -0.001383 0)
(-0.0170523 -0.00138208 0)
(-0.0161216 -0.00138022 0)
(-0.0151932 -0.00137692 0)
(-0.0142685 -0.00137192 0)
(-0.0133487 -0.00136517 0)
(-0.0124352 -0.00135677 0)
(-0.0115289 -0.00134691 0)
(-0.0106306 -0.00133581 0)
(-0.0097409 -0.00132352 0)
(-0.00886045 -0.00130991 0)
(-0.00799005 -0.00129489 0)
(-0.00713057 -0.00127845 0)
(-0.00628286 -0.0012607 0)
(-0.00544764 -0.00124179 0)
(-0.00462553 -0.00122185 0)
(-0.00381713 -0.00120091 0)
(-0.00302307 -0.00117902 0)
(-0.00224396 -0.00115626 0)
(-0.00148036 -0.00113271 0)
(-0.000732735 -0.00110848 0)
(-1.513e-06 -0.00108365 0)
(0.000712923 -0.00105827 -1.82708e-43)
(0.00141024 -0.00103244 -4.5339e-43)
(0.00209015 -0.00100624 0)
(0.00275245 -0.00097973 0)
(0.00339694 -0.000952996 0)
(0.00402352 -0.000926105 0)
(0.00463209 -0.000899125 0)
(0.00522263 -0.000872119 0)
(0.00579512 -0.000845146 0)
(0.00634962 -0.000818261 0)
(0.0068862 -0.000791515 0)
(0.00740497 -0.000764958 0)
(0.00790608 -0.000738635 0)
(0.00838969 -0.000712586 0)
(0.00885601 -0.00068685 0)
(0.00930526 -0.000661464 0)
(0.00973768 -0.000636462 0)
(0.0101535 -0.000611878 0)
(0.0105531 -0.000587746 0)
(0.0109368 -0.0005641 0)
(0.0113048 -0.000540975 0)
(0.0116576 -0.000518405 0)
(0.0119954 -0.000496424 0)
(0.0123189 -0.000475061 0)
(0.0126282 -0.000454343 0)
(0.012924 -0.000434293 0)
(0.0132066 -0.000414925 0)
(0.0134765 -0.000396252 0)
(0.0137342 -0.000378276 0)
(0.0139801 -0.000360996 0)
(0.0142147 -0.000344408 0)
(0.0144386 -0.0003285 0)
(0.014652 -0.000313259 0)
(0.0148555 -0.000298669 0)
(0.0150496 -0.000284711 0)
(0.0152345 -0.000271366 0)
(0.0154107 -0.000258613 0)
(0.0155787 -0.000246432 0)
(0.0157387 -0.000234799 0)
(0.0158911 -0.000223695 0)
(0.0160364 -0.000213098 0)
(0.0161747 -0.000202988 0)
(0.0163065 -0.000193343 0)
(0.016432 -0.000184144 0)
(0.0165516 -0.000175372 0)
(0.0166654 -0.000167008 0)
(0.0167738 -0.000159034 0)
(0.016877 -0.000151432 0)
(0.0169753 -0.000144186 0)
(0.0170689 -0.000137278 0)
(0.017158 -0.000130694 0)
(0.0172428 -0.000124418 0)
(0.0173235 -0.000118436 0)
(0.0174004 -0.000112734 0)
(0.0174735 -0.000107299 0)
(0.0175431 -0.000102117 0)
(0.0176094 -9.71777e-05 0)
(0.0176724 -9.24686e-05 0)
(0.0177324 -8.79792e-05 0)
(0.0177895 -8.36992e-05 0)
(0.0178438 -7.96189e-05 0)
(0.0178954 -7.57292e-05 0)
(0.0179445 -7.20216e-05 0)
(0.0179912 -6.84881e-05 0)
(0.0180356 -6.51211e-05 0)
(0.0180778 -6.19136e-05 0)
(0.018118 -5.88587e-05 0)
(0.0181561 -5.59501e-05 0)
(0.0181924 -5.31817e-05 0)
(0.0182268 -5.05477e-05 0)
(0.0182596 -4.80422e-05 0)
(0.0182907 -4.56599e-05 0)
(0.0183203 -4.33954e-05 0)
(0.0183484 -4.12432e-05 0)
(0.0183752 -3.91984e-05 0)
(0.0184006 -3.72556e-05 0)
(0.0184247 -3.54101e-05 0)
(0.0184476 -3.36569e-05 0)
(0.0184694 -3.19911e-05 0)
(0.0184902 -3.04083e-05 0)
(0.0185099 -2.89039e-05 0)
(0.0185286 -2.74735e-05 0)
(0.0185464 -2.6113e-05 0)
(0.0185633 -2.48184e-05 0)
(0.0185794 -2.35859e-05 0)
(0.0185947 -2.24119e-05 0)
(0.0186092 -2.12929e-05 0)
(0.018623 -2.02258e-05 0)
(0.0186361 -1.92076e-05 0)
(0.0186485 -1.82353e-05 0)
(0.0186604 -1.73063e-05 0)
(0.0186716 -1.64183e-05 0)
(0.0186822 -1.5569e-05 0)
(0.0186923 -1.47563e-05 0)
(0.0187018 -1.39782e-05 0)
(0.0187109 -1.32332e-05 0)
(0.0187194 -1.25196e-05 0)
(0.0187275 -1.1836e-05 0)
(0.0187352 -1.11811e-05 0)
(0.0187424 -1.05539e-05 0)
(0.0187492 -9.95325e-06 0)
(0.0187556 -9.3783e-06 0)
(0.0187617 -8.82823e-06 0)
(0.0187674 -8.30231e-06 0)
(0.0187727 -7.79988e-06 0)
(0.0187777 -7.32035e-06 0)
(0.0187825 -6.86317e-06 0)
(0.0187869 -6.4278e-06 0)
(0.018791 -6.01378e-06 0)
(0.0187949 -5.62061e-06 0)
(0.0187985 -5.24784e-06 0)
(0.0188018 -4.895e-06 0)
(0.018805 -4.56162e-06 0)
(0.0188079 -4.24723e-06 0)
(0.0188106 -3.95135e-06 0)
(0.0188131 -3.67347e-06 0)
(0.0188155 -3.41309e-06 0)
(0.0188177 -3.16967e-06 0)
(0.0188197 -2.94268e-06 0)
(0.0188216 -2.73156e-06 0)
(0.0188233 -2.53574e-06 0)
(0.0188249 -2.35463e-06 0)
(0.0188264 -2.18764e-06 0)
(0.0188278 -2.03419e-06 0)
(0.0188291 -1.89364e-06 0)
(0.0188304 -1.76541e-06 0)
(0.0188315 -1.64887e-06 0)
(0.0188325 -1.54342e-06 0)
(0.0188335 -1.44844e-06 0)
(0.0188345 -1.36333e-06 0)
(0.0188353 -1.2875e-06 0)
(0.0188362 -1.22034e-06 0)
(0.018837 -1.16128e-06 0)
(0.0188377 -1.10975e-06 0)
(0.0188384 -1.06519e-06 0)
(0.0188391 -1.02706e-06 0)
(0.0188398 -9.94831e-07 0)
(0.0188404 -9.6798e-07 0)
(0.0188411 -9.46015e-07 0)
(0.0188417 -9.28452e-07 0)
(0.0188423 -9.14826e-07 0)
(0.0188429 -9.04692e-07 0)
(0.0188435 -8.9762e-07 0)
(0.0188441 -8.93201e-07 0)
(0.0188447 -8.91042e-07 0)
(0.0188453 -8.90773e-07 0)
(0.0188459 -8.92043e-07 0)
(0.0188465 -8.94521e-07 0)
(0.0188471 -8.97897e-07 0)
(0.0188477 -9.0188e-07 0)
(0.0188483 -9.06203e-07 0)
(0.0188489 -9.10617e-07 0)
(0.0188495 -9.14895e-07 0)
(0.0188501 -9.18827e-07 0)
(0.0188507 -9.22224e-07 0)
(0.0188513 -9.24915e-07 0)
(0.018852 -9.26745e-07 0)
(0.0188526 -9.27577e-07 0)
(0.0188532 -9.27289e-07 0)
(0.0188538 -9.25777e-07 0)
(0.0188544 -9.22948e-07 0)
(0.018855 -9.18726e-07 0)
(0.0188557 -9.13049e-07 0)
(0.0188563 -9.0587e-07 0)
(0.0188569 -8.97152e-07 0)
(0.0188575 -8.86876e-07 0)
(0.018858 -8.75033e-07 0)
(0.0188586 -8.61628e-07 0)
(0.0188592 -8.46676e-07 0)
(0.0188598 -8.30209e-07 0)
(0.0188603 -8.12264e-07 0)
(0.0188608 -7.92895e-07 0)
(0.0188614 -7.72163e-07 0)
(0.0188619 -7.5014e-07 0)
(0.0188624 -7.26905e-07 0)
(0.0188628 -7.02549e-07 0)
(0.0188633 -6.77168e-07 0)
(0.0188637 -6.50864e-07 0)
(0.0188642 -6.23748e-07 0)
(0.0188646 -5.95933e-07 0)
(0.018865 -5.6754e-07 0)
(0.0188653 -5.3869e-07 0)
(0.0188657 -5.09511e-07 0)
(0.018866 -4.80131e-07 0)
(0.0188663 -4.50684e-07 0)
(0.0188666 -4.21303e-07 0)
(0.0188669 -3.92123e-07 0)
(0.0188671 -3.63279e-07 0)
(0.0188674 -3.34906e-07 0)
(0.0188676 -3.07138e-07 0)
(0.0188678 -2.80108e-07 0)
(0.018868 -2.53943e-07 0)
(0.0188681 -2.28767e-07 0)
(0.0188683 -2.04698e-07 0)
(0.0188684 -1.81846e-07 0)
(0.0188685 -1.60313e-07 0)
(0.0188686 -1.40191e-07 0)
(0.0188687 -1.2156e-07 0)
(0.0188688 -1.0449e-07 0)
(0.0188688 -8.9036e-08 0)
(0.0188689 -7.52409e-08 0)
(0.0188689 -6.31326e-08 0)
(0.018869 -5.27252e-08 0)
(0.018869 -4.40189e-08 0)
(0.018869 -3.69997e-08 0)
(0.0188691 -3.1641e-08 0)
(0.0188691 -2.79033e-08 0)
(0.0188691 -2.57361e-08 0)
(0.0188691 -2.5078e-08 0)
(0.0188691 -2.58587e-08 0)
(0.0188691 -2.79994e-08 0)
(0.0188692 -3.14145e-08 0)
(0.0188692 -3.60119e-08 0)
(0.0188692 -4.16947e-08 0)
(0.0188692 -4.83611e-08 0)
(0.0188693 -5.59057e-08 0)
(0.0188693 -6.42194e-08 0)
(0.0188694 -7.31906e-08 0)
(0.0188694 -8.2705e-08 0)
(0.0188695 -9.26467e-08 0)
(0.0188695 -1.02899e-07 0)
(0.0188696 -1.13346e-07 0)
(0.0188697 -1.23875e-07 0)
(0.0188698 -1.34376e-07 0)
(0.0188698 -1.44748e-07 0)
(0.0188699 -1.549e-07 0)
(0.01887 -1.64753e-07 0)
(0.0188701 -1.74246e-07 0)
(0.0188703 -1.83335e-07 0)
(0.0188704 -1.91994e-07 0)
(0.0188705 -2.0022e-07 0)
(0.0188706 -2.08027e-07 0)
(0.0188708 -2.15447e-07 0)
(0.0188709 -2.22522e-07 0)
(0.018871 -2.29305e-07 0)
(0.0188712 -2.3585e-07 0)
(0.0188713 -2.42207e-07 0)
(0.0188715 -2.48416e-07 0)
(0.0188717 -2.54504e-07 0)
(0.0188718 -2.60479e-07 0)
(0.018872 -2.66329e-07 0)
(0.0188722 -2.72023e-07 0)
(0.0188723 -2.77511e-07 0)
(0.0188725 -2.82729e-07 0)
(0.0188727 -2.876e-07 0)
(0.0188729 -2.92041e-07 0)
(0.0188731 -2.95968e-07 0)
(0.0188733 -2.99299e-07 0)
(0.0188735 -3.01962e-07 0)
(0.0188737 -3.03895e-07 0)
(0.0188739 -3.0505e-07 0)
(0.0188741 -3.05396e-07 0)
(0.0188743 -3.04917e-07 0)
(0.0188745 -3.03614e-07 0)
(0.0188747 -3.01505e-07 0)
(0.0188749 -2.98621e-07 0)
(0.0188751 -2.95003e-07 0)
(0.0188753 -2.90705e-07 0)
(0.0188755 -2.85787e-07 0)
(0.0188757 -2.80315e-07 0)
(0.0188759 -2.74358e-07 0)
(0.018876 -2.67987e-07 0)
(0.0188762 -2.61271e-07 0)
(0.0188764 -2.54278e-07 0)
(0.0188766 -2.47073e-07 0)
(0.0188767 -2.39717e-07 0)
(0.0188769 -2.32266e-07 0)
(0.018877 -2.24773e-07 0)
(0.0188772 -2.17282e-07 0)
(0.0188773 -2.09836e-07 0)
(0.0188775 -2.0247e-07 0)
(0.0188776 -1.95214e-07 0)
(0.0188777 -1.88095e-07 0)
(0.0188778 -1.81135e-07 0)
(0.018878 -1.74351e-07 0)
(0.0188781 -1.67756e-07 0)
(0.0188782 -1.61362e-07 0)
(0.0188783 -1.55176e-07 0)
(0.0188784 -1.49203e-07 0)
(0.0188785 -1.43446e-07 0)
(0.0188786 -1.37906e-07 0)
(0.0188787 -1.32582e-07 0)
(0.0188788 -1.27472e-07 0)
(0.0188788 -1.22572e-07 0)
(0.0188789 -1.17878e-07 0)
(0.018879 -1.13385e-07 0)
(0.0188791 -1.09088e-07 0)
(0.0188791 -1.04979e-07 0)
(0.0188792 -1.01053e-07 0)
(0.0188793 -9.73034e-08 0)
(0.0188793 -9.37224e-08 0)
(0.0188794 -9.03034e-08 0)
(0.0188795 -8.70395e-08 0)
(0.0188795 -8.39237e-08 0)
(0.0188796 -8.09488e-08 0)
(0.0188796 -7.81094e-08 0)
(0.0188797 -7.53936e-08 0)
(0.0188797 -7.28175e-08 0)
(0.0188798 -7.02756e-08 0)
(0.0188798 -6.82006e-08 0)
(0.0188799 -6.46426e-08 0)
(0.023764 -0.0297939 0)
(0.0169567 -0.0148411 0)
(0.0147301 -0.00305505 0)
(0.0132687 0.0148435 0)
(0.0169121 0.0778415 0)
(-0.0146665 0.0790153 0)
(0.00032789 0.0384883 0)
(0.0104388 -0.0220907 0)
(0.0216037 -0.0514819 0)
(0.0476266 -0.0447603 0)
(0.0651934 -0.0249699 0)
(0.0758204 -0.0154503 0)
(0.0628041 -0.0145547 0)
(0.0540186 -0.0194049 0)
(0.0559474 -0.0254716 0)
(0.0566216 -0.0282351 0)
(0.0591197 -0.0260561 0)
(0.0587421 -0.022087 0)
(0.0600099 -0.0166537 0)
(0.0606553 -0.0123236 0)
(0.0642472 -0.00799557 0)
(0.0690649 -0.00345506 0)
(0.0732107 0.00029694 0)
(0.0747847 0.00250681 0)
(0.0734522 0.00354496 0)
(0.0704294 0.00431522 0)
(0.0663875 0.00535483 0)
(0.0615688 0.0060363 0)
(0.056783 0.00562375 0)
(0.0525639 0.00373057 0)
(0.0486653 0.00229273 0)
(0.0443679 0.002903 0)
(0.0401795 0.00382346 0)
(0.036388 0.00429849 0)
(0.0331682 0.00447553 0)
(0.0301896 0.00450087 0)
(0.0268816 0.00450377 0)
(0.0235773 0.00453219 0)
(0.0204416 0.00462086 0)
(0.0174104 0.00477134 0)
(0.0144226 0.00496228 0)
(0.0114595 0.00517306 0)
(0.00852612 0.00538221 0)
(0.00562736 0.00558301 0)
(0.00281479 0.00576013 0)
(0.000158415 0.00588495 0)
(-0.00220332 0.0059328 0)
(-0.00409553 0.00589891 0)
(-0.00544365 0.00580105 0)
(-0.00625205 0.00567142 0)
(-0.0066311 0.0055425 0)
(-0.0067476 0.00543419 0)
(-0.00676763 0.00535715 0)
(-0.00681856 0.00530353 0)
(-0.00695585 0.00526625 0)
(-0.00725959 0.00523553 0)
(-0.00772776 0.00520359 0)
(-0.00832289 0.00516688 0)
(-0.00904801 0.00512143 0)
(-0.0098372 0.00506327 0)
(-0.0106606 0.00498827 0)
(-0.0115066 0.00489206 0)
(-0.0123402 0.00477095 0)
(-0.0130872 0.00462799 0)
(-0.0137314 0.00447134 0)
(-0.0142798 0.00431514 0)
(-0.0147761 0.0041728 0)
(-0.0152297 0.004052 0)
(-0.0157309 0.00395312 0)
(-0.0163209 0.0038729 0)
(-0.0169831 0.00380309 0)
(-0.0176834 0.00373934 0)
(-0.018428 0.00367541 0)
(-0.0191479 0.00360854 0)
(-0.0198757 0.00353497 0)
(-0.0205312 0.0034529 0)
(-0.0211316 0.00336042 0)
(-0.0216751 0.00325964 0)
(-0.0222294 0.00315059 0)
(-0.0228 0.00303103 0)
(-0.0233881 0.00290227 0)
(-0.0239988 0.00276679 0)
(-0.0246347 0.0026243 0)
(-0.0252907 0.00246948 0)
(-0.0259562 0.00230516 0)
(-0.0266225 0.00213312 0)
(-0.0272805 0.00195356 0)
(-0.0279206 0.00176324 0)
(-0.0285307 0.0015655 0)
(-0.0291051 0.0013648 0)
(-0.0296399 0.00116085 0)
(-0.0301311 0.000954172 0)
(-0.0305739 0.000748712 0)
(-0.0309696 0.000544677 0)
(-0.0313144 0.000344409 0)
(-0.0316091 0.000148352 0)
(-0.0318545 -4.46655e-05 0)
(-0.0320486 -0.000230421 0)
(-0.0321942 -0.000407191 0)
(-0.0322913 -0.000573729 0)
(-0.0323408 -0.000731754 0)
(-0.0323419 -0.000879068 0)
(-0.0322956 -0.00101586 0)
(-0.0322039 -0.00114097 0)
(-0.0320693 -0.00125579 0)
(-0.0318932 -0.0013637 0)
(-0.0316749 -0.00146478 0)
(-0.0314139 -0.00155988 0)
(-0.0311099 -0.00164828 0)
(-0.0307633 -0.00173034 0)
(-0.0303738 -0.00180742 0)
(-0.0299403 -0.00187832 0)
(-0.0294632 -0.00194204 0)
(-0.028943 -0.00199874 0)
(-0.0283806 -0.00204864 0)
(-0.0277766 -0.00209206 0)
(-0.0271324 -0.00212948 0)
(-0.0264504 -0.00216272 0)
(-0.0257322 -0.00219465 0)
(-0.0249787 -0.0022246 0)
(-0.0241917 -0.00225113 0)
(-0.0233749 -0.00227355 0)
(-0.0225322 -0.00229153 0)
(-0.0216674 -0.00230521 0)
(-0.0207842 -0.00231502 0)
(-0.0198861 -0.0023209 0)
(-0.018977 -0.00232319 0)
(-0.0180598 -0.0023232 0)
(-0.0171363 -0.00232199 0)
(-0.0162077 -0.00231892 0)
(-0.0152763 -0.00231281 0)
(-0.0143451 -0.00230313 0)
(-0.0134166 -0.00228994 0)
(-0.0124931 -0.00227357 0)
(-0.0115765 -0.00225469 0)
(-0.0106679 -0.00223405 0)
(-0.00976821 -0.00221179 0)
(-0.00887819 -0.00218763 0)
(-0.00799896 -0.00216141 0)
(-0.00713163 -0.00213311 0)
(-0.00627721 -0.00210287 0)
(-0.00543639 -0.00207097 0)
(-0.00460964 -0.00203755 0)
(-0.00379739 -0.0020026 0)
(-0.00300018 -0.00196609 0)
(-0.00221856 -0.00192809 0)
(-0.00145299 -0.00188879 0)
(-0.000703828 -0.00184835 0)
(2.86139e-05 -0.00180689 0)
(0.000744012 -0.00176452 0)
(0.00144208 -0.00172139 0)
(0.00212257 -0.00167763 0)
(0.00278531 -0.00163338 0)
(0.00343014 -0.00158876 0)
(0.00405695 -0.00154388 0)
(0.00466567 -0.00149885 0)
(0.00525628 -0.00145377 0)
(0.00582878 -0.00140875 0)
(0.00638321 -0.00136388 0)
(0.00691967 -0.00131924 0)
(0.00743826 -0.00127492 0)
(0.00793913 -0.00123099 0)
(0.00842245 -0.00118753 0)
(0.00888842 -0.00114459 0)
(0.00933727 -0.00110223 0)
(0.00976925 -0.00106051 0)
(0.0101846 -0.00101949 0)
(0.0105837 -0.000979224 0)
(0.0109667 -0.000939768 0)
(0.0113341 -0.000901181 0)
(0.0116862 -0.000863521 0)
(0.0120233 -0.000826844 0)
(0.0123459 -0.000791202 0)
(0.0126545 -0.000756642 0)
(0.0129494 -0.000723199 0)
(0.0132311 -0.000690902 0)
(0.0135002 -0.000659767 0)
(0.013757 -0.000629801 0)
(0.014002 -0.000601003 0)
(0.0142358 -0.00057336 0)
(0.0144588 -0.000546855 0)
(0.0146714 -0.000521466 0)
(0.0148741 -0.000497164 0)
(0.0150673 -0.000473918 0)
(0.0152515 -0.000451694 0)
(0.015427 -0.000430458 0)
(0.0155942 -0.000410175 0)
(0.0157535 -0.000390807 0)
(0.0159053 -0.00037232 0)
(0.0160499 -0.000354677 0)
(0.0161876 -0.000337845 0)
(0.0163188 -0.000321789 0)