/*--------------------------------*- C++ -*----------------------------------*\
| =========                 |                                                 |
| \\      /  F ield         | OpenFOAM: The Open Source CFD Toolbox           |
|  \\    /   O peration     | Version:  v2006                                 |
|   \\  /    A nd           | Website:  www.openfoam.com                      |
|    \\/     M anipulation  |                                                 |
\*---------------------------------------------------------------------------*/
FoamFile
{
    version     2.0;
    format      ascii;
    class       volVectorField;
    location    "0";
    object      U;
}
// * * * * * * * * * * * * * * * * * * * * * * * * * * * * * * * * * * * * * //

dimensions      [0 1 -1 0 0 0 0];


internalField   nonuniform List<vector> 
20000
(
(1 -1.24272e-10 0)
(1 -6.07777e-10 0)
(1 -1.12285e-09 0)
(1 -1.72672e-09 0)
(1 -2.53229e-09 0)
(1 -3.56538e-09 0)
(1 -4.84921e-09 0)
(1 -6.49015e-09 0)
(1 -8.66669e-09 0)
(1 -1.15333e-08 0)
(1 -1.51257e-08 0)
(1 -1.93414e-08 0)
(1 -2.40016e-08 0)
(1 -2.89389e-08 0)
(1 -3.4053e-08 0)
(1 -3.93114e-08 0)
(1 -4.47111e-08 0)
(1 -5.02299e-08 0)
(1 -5.57434e-08 0)
(1 -6.09e-08 0)
(1 -6.50663e-08 0)
(1 -6.73156e-08 0)
(1 -6.64044e-08 0)
(1 -6.11659e-08 0)
(1 -5.10423e-08 0)
(1 -3.60687e-08 0)
(1.00001 -1.90064e-08 0)
(1.00001 -5.92389e-09 0)
(1.00001 -2.23959e-09 0)
(1.00001 -1.20976e-08 0)
(1.00001 -3.71375e-08 0)
(1.00001 -7.25965e-08 0)
(1.00001 -1.06824e-07 0)
(1.00001 -1.28882e-07 0)
(1.00001 -1.32058e-07 0)
(1.00001 -1.008e-07 0)
(1.00001 -2.09333e-08 0)
(1.00001 7.0815e-08 0)
(1.00001 1.35165e-07 0)
(1.00001 1.71783e-07 0)
(1.00001 1.91874e-07 0)
(1.00001 2.01963e-07 0)
(1.00001 2.02376e-07 0)
(1 1.91305e-07 0)
(1 1.67897e-07 0)
(1 1.34676e-07 0)
(1 9.68359e-08 0)
(1 5.95209e-08 0)
(1 2.53704e-08 0)
(1 -5.95005e-09 0)
(1 -3.10329e-08 0)
(0.999999 -4.28988e-08 0)
(1 -5.18996e-08 0)
(1 -6.76988e-08 0)
(1 -9.1545e-08 0)
(1 -1.2192e-07 0)
(1 -1.56633e-07 0)
(1 -1.92714e-07 0)
(1 -2.25039e-07 0)
(1.00001 -2.4498e-07 0)
(1.00001 -2.39178e-07 0)
(1.00001 -1.92532e-07 0)
(1.00001 -9.89459e-08 0)
(1.00001 3.32362e-08 0)
(1.00001 1.9504e-07 0)
(1.00001 3.4221e-07 0)
(1.00001 4.45923e-07 0)
(1.00001 5.14032e-07 0)
(1.00001 5.58537e-07 0)
(1.00001 5.81987e-07 0)
(1.00001 5.85671e-07 0)
(1.00001 5.72071e-07 0)
(1 5.42432e-07 0)
(1 4.96642e-07 0)
(0.999999 4.35478e-07 0)
(0.999996 3.62898e-07 0)
(0.999993 2.85638e-07 0)
(0.99999 2.10451e-07 0)
(0.999987 1.40838e-07 0)
(0.999984 7.62957e-08 0)
(0.999982 1.63696e-08 0)
(0.999979 -3.53351e-08 0)
(0.999977 -7.42819e-08 0)
(0.999976 -1.00941e-07 0)
(0.999975 -1.20192e-07 0)
(0.999974 -1.32774e-07 0)
(0.999974 -1.2697e-07 0)
(0.999974 -1.24048e-07 0)
(0.999975 -1.2755e-07 0)
(0.999975 -1.3908e-07 0)
(0.999976 -1.59135e-07 0)
(0.999977 -1.86427e-07 0)
(0.999978 -2.19259e-07 0)
(0.99998 -2.53294e-07 0)
(0.999982 -2.80065e-07 0)
(0.999984 -2.89545e-07 0)
(0.999986 -2.75413e-07 0)
(0.999987 -2.39284e-07 0)
(0.999989 -1.90882e-07 0)
(0.99999 -1.43512e-07 0)
(0.999991 -1.07555e-07 0)
(0.999991 -8.66605e-08 0)
(0.999992 -7.8714e-08 0)
(0.999992 -7.91167e-08 0)
(0.999993 -8.32937e-08 0)
(0.999994 -8.77758e-08 0)
(0.999994 -9.0486e-08 0)
(0.999995 -9.05828e-08 0)
(0.999995 -8.80706e-08 0)
(0.999996 -8.34112e-08 0)
(0.999996 -7.72414e-08 0)
(0.999997 -7.01945e-08 0)
(0.999997 -6.28069e-08 0)
(0.999998 -5.54852e-08 0)
(0.999998 -4.85092e-08 0)
(0.999998 -4.20506e-08 0)
(0.999999 -3.61976e-08 0)
(0.999999 -3.0979e-08 0)
(0.999999 -2.63836e-08 0)
(0.999999 -2.23756e-08 0)
(0.999999 -1.89062e-08 0)
(0.999999 -1.59207e-08 0)
(1 -1.33638e-08 0)
(1 -1.11823e-08 0)
(1 -9.32718e-09 0)
(1 -7.75376e-09 0)
(1 -6.42249e-09 0)
(1 -5.29854e-09 0)
(1 -4.35156e-09 0)
(1 -3.55532e-09 0)
(1 -2.88721e-09 0)
(1 -2.32767e-09 0)
(1 -1.85998e-09 0)
(1 -1.47024e-09 0)
(1 -1.14685e-09 0)
(1 -8.79707e-10 0)
(1 -6.6142e-10 0)
(1 -4.73095e-10 0)
(1 -2.75197e-10 0)
(1 -5.19343e-11 0)
(1 1.50646e-10 0)
(1 2.56592e-10 0)
(1 2.96576e-10 0)
(1 3.00482e-10 0)
(1 2.8841e-10 0)
(1 2.70763e-10 0)
(1 2.51749e-10 0)
(1 2.33078e-10 0)
(1 2.15368e-10 0)
(1 1.98822e-10 0)
(1 1.83478e-10 0)
(1 1.69292e-10 0)
(1 1.56201e-10 0)
(1 1.44127e-10 0)
(1 1.32993e-10 0)
(1 1.22734e-10 0)
(1 1.13282e-10 0)
(1 1.04563e-10 0)
(1 9.65207e-11 0)
(1 8.90971e-11 0)
(1 8.22482e-11 0)
(1 7.59327e-11 0)
(1 7.00988e-11 0)
(1 6.47109e-11 0)
(1 5.97332e-11 0)
(1 5.51368e-11 0)
(1 5.08884e-11 0)
(1 4.69622e-11 0)
(1 4.3328e-11 0)
(1 3.9963e-11 0)
(1 3.68527e-11 0)
(1 3.39702e-11 0)
(1 3.1299e-11 0)
(1 2.88199e-11 0)
(1 2.65189e-11 0)
(1 2.4386e-11 0)
(1 2.24049e-11 0)
(1 2.05615e-11 0)
(1 1.88442e-11 0)
(1 1.72434e-11 0)
(1 1.57496e-11 0)
(1 1.4352e-11 0)
(1 1.30403e-11 0)
(1 1.18113e-11 0)
(1 1.06584e-11 0)
(1 9.56714e-12 0)
(1 8.53206e-12 0)
(1 7.55159e-12 0)
(1 6.61626e-12 0)
(1 5.72115e-12 0)
(1 4.86275e-12 0)
(1 4.03428e-12 0)
(1 3.22882e-12 0)
(1 2.44125e-12 0)
(1 1.6652e-12 0)
(1 8.98214e-13 0)
(1 1.05265e-13 0)
(1 -6.05187e-13 0)
(1 -2.03397e-12 0)
(1 -1.77913e-12 0)
(1 -3.72356e-10 0)
(1 -1.82158e-09 0)
(1 -3.36539e-09 0)
(1 -5.17536e-09 0)
(1 -7.58993e-09 0)
(1 -1.06866e-08 0)
(1 -1.45348e-08 0)
(1 -1.94538e-08 0)
(1 -2.59787e-08 0)
(1 -3.45727e-08 0)
(1 -4.5343e-08 0)
(1 -5.79833e-08 0)
(1 -7.19571e-08 0)
(1 -8.67612e-08 0)
(1 -1.02099e-07 0)
(1 -1.17887e-07 0)
(1 -1.34127e-07 0)
(1 -1.50708e-07 0)
(1 -1.67176e-07 0)
(1 -1.82518e-07 0)
(1 -1.95007e-07 0)
(1 -2.0212e-07 0)
(1 -2.00572e-07 0)
(1 -1.86925e-07 0)
(1 -1.58741e-07 0)
(1.00001 -1.16253e-07 0)
(1.00001 -6.6198e-08 0)
(1.00001 -2.32003e-08 0)
(1.00001 -5.6976e-09 0)
(1.00001 -3.08912e-08 0)
(1.00001 -1.05134e-07 0)
(1.00001 -2.13525e-07 0)
(1.00001 -3.20555e-07 0)
(1.00001 -3.86883e-07 0)
(1.00001 -3.87207e-07 0)
(1.00001 -3.127e-07 0)
(1.00001 -1.74462e-07 0)
(1.00001 -2.73059e-08 0)
(1.00001 9.71772e-08 0)
(1.00001 1.9659e-07 0)
(1.00001 2.74761e-07 0)
(1.00001 3.40144e-07 0)
(1.00001 3.95342e-07 0)
(1.00001 4.38673e-07 0)
(1.00001 4.66416e-07 0)
(1.00001 4.73972e-07 0)
(1.00001 4.57774e-07 0)
(1 4.17344e-07 0)
(1 3.55087e-07 0)
(1 2.74664e-07 3.3803e-40)
(1 1.84223e-07 3.64978e-40)
(1 9.31657e-08 0)
(1 -6.26547e-09 0)
(1 -1.15674e-07 0)
(1 -2.30441e-07 0)
(1 -3.45995e-07 0)
(1 -4.57831e-07 0)
(1 -5.61402e-07 0)
(1 -6.51868e-07 0)
(1.00001 -7.23182e-07 0)
(1.00001 -7.66865e-07 0)
(1.00001 -7.74153e-07 0)
(1.00001 -7.41765e-07 0)
(1.00001 -6.71177e-07 0)
(1.00002 -5.58696e-07 0)
(1.00002 -4.29873e-07 0)
(1.00002 -2.97872e-07 0)
(1.00003 -1.55621e-07 0)
(1.00003 -1.13008e-09 0)
(1.00003 1.89608e-07 0)
(1.00003 3.94771e-07 0)
(1.00003 6.07543e-07 0)
(1.00003 8.23902e-07 0)
(1.00003 1.03707e-06 0)
(1.00003 1.23806e-06 0)
(1.00003 1.41628e-06 0)
(1.00002 1.55977e-06 0)
(1.00002 1.65544e-06 0)
(1.00001 1.69057e-06 0)
(1.00001 1.65665e-06 0)
(0.999999 1.55423e-06 0)
(0.999994 1.39302e-06 0)
(0.999989 1.18573e-06 0)
(0.999984 9.44191e-07 0)
(0.999981 6.82984e-07 0)
(0.999978 4.25157e-07 0)
(0.999976 2.05366e-07 0)
(0.999975 7.68395e-09 0)
(0.999975 -1.58873e-07 0)
(0.999975 -2.96423e-07 0)
(0.999976 -4.15595e-07 0)
(0.999977 -5.28326e-07 0)
(0.999978 -6.42451e-07 0)
(0.99998 -7.52747e-07 0)
(0.999982 -8.37622e-07 0)
(0.999984 -8.68524e-07 0)
(0.999986 -8.27057e-07 0)
(0.999987 -7.18444e-07 0)
(0.999989 -5.72401e-07 0)
(0.99999 -4.29471e-07 0)
(0.999991 -3.21191e-07 0)
(0.999991 -2.58548e-07 0)
(0.999992 -2.35013e-07 0)
(0.999992 -2.36604e-07 0)
(0.999993 -2.49482e-07 0)
(0.999994 -2.63183e-07 0)
(0.999994 -2.71468e-07 0)
(0.999995 -2.71829e-07 0)
(0.999995 -2.64306e-07 0)
(0.999996 -2.50311e-07 0)
(0.999996 -2.3177e-07 0)
(0.999997 -2.10597e-07 0)
(0.999997 -1.88406e-07 0)
(0.999998 -1.66421e-07 0)
(0.999998 -1.4548e-07 0)
(0.999998 -1.26097e-07 0)
(0.999999 -1.08536e-07 0)
(0.999999 -9.2881e-08 0)
(0.999999 -7.9098e-08 0)
(0.999999 -6.7079e-08 0)
(0.999999 -5.66764e-08 0)
(0.999999 -4.77259e-08 0)
(1 -4.00609e-08 0)
(1 -3.35217e-08 0)
(1 -2.79606e-08 0)
(1 -2.32439e-08 0)
(1 -1.92529e-08 0)
(1 -1.58833e-08 0)
(1 -1.30441e-08 0)
(1 -1.06566e-08 0)
(1 -8.65314e-09 0)
(1 -6.97542e-09 0)
(1 -5.57373e-09 0)
(1 -4.40576e-09 0)
(1 -3.43533e-09 0)
(1 -2.63135e-09 0)
(1 -1.96774e-09 0)
(1 -1.41388e-09 0)
(1 -9.34914e-10 0)
(1 -5.1095e-10 0)
(1 -1.64764e-10 0)
(1 7.27242e-11 0)
(1 2.35965e-10 0)
(1 3.54431e-10 0)
(1 4.38107e-10 0)
(1 4.97574e-10 0)
(1 5.38878e-10 0)
(1 5.65659e-10 0)
(1 5.80699e-10 0)
(1 5.86257e-10 0)
(1 5.8424e-10 0)
(1 5.76231e-10 0)
(1 5.6357e-10 0)
(1 5.47369e-10 0)
(1 5.28548e-10 0)
(1 5.07869e-10 0)
(1 4.85952e-10 0)
(1 4.63282e-10 0)
(1 4.40268e-10 0)
(1 4.17232e-10 0)
(1 3.94435e-10 0)
(1 3.72087e-10 0)
(1 3.50327e-10 0)
(1 3.29271e-10 0)
(1 3.08997e-10 0)
(1 2.89567e-10 0)
(1 2.71009e-10 0)
(1 2.53344e-10 0)
(1 2.3657e-10 0)
(1 2.2068e-10 0)
(1 2.05672e-10 0)
(1 1.91511e-10 0)
(1 1.78174e-10 0)
(1 1.65626e-10 0)
(1 1.53836e-10 0)
(1 1.42776e-10 0)
(1 1.32403e-10 0)
(1 1.22677e-10 0)
(1 1.13564e-10 0)
(1 1.05031e-10 0)
(1 9.7044e-11 0)
(1 8.95646e-11 0)
(1 8.25563e-11 0)
(1 7.59942e-11 0)
(1 6.98488e-11 0)
(1 6.40771e-11 0)
(1 5.86537e-11 0)
(1 5.35615e-11 0)
(1 4.8768e-11 0)
(1 4.42478e-11 0)
(1 3.99808e-11 0)
(1 3.59416e-11 0)
(1 3.21044e-11 0)
(1 2.84477e-11 0)
(1 2.49507e-11 0)
(1 2.1592e-11 0)
(1 1.83486e-11 0)
(1 1.5192e-11 0)
(1 1.18995e-11 0)
(1 8.90253e-12 0)
(1 -6.19078e-10 0)
(1 -3.03012e-09 0)
(1 -5.59843e-09 0)
(1 -8.60953e-09 0)
(1 -1.26267e-08 0)
(1 -1.7779e-08 0)
(1 -2.41822e-08 0)
(1 -3.23677e-08 0)
(1 -4.32268e-08 0)
(1 -5.75304e-08 0)
(1 -7.54578e-08 0)
(1 -9.65007e-08 0)
(1 -1.19767e-07 0)
(1 -1.44423e-07 0)
(1 -1.69981e-07 0)
(1 -1.96312e-07 0)
(1 -2.23425e-07 0)
(1 -2.51124e-07 0)
(1 -2.78654e-07 0)
(1 -3.0438e-07 0)
(1 -3.25496e-07 0)
(1 -3.37855e-07 0)
(1 -3.36098e-07 0)
(1 -3.14286e-07 0)
(1 -2.67821e-07 0)
(1.00001 -1.97401e-07 0)
(1.00001 -1.13279e-07 0)
(1.00001 -3.79375e-08 0)
(1.00001 -4.41446e-09 0)
(1.00001 -4.47306e-08 0)
(1.00001 -1.70136e-07 0)
(1.00001 -3.54876e-07 0)
(1.00001 -5.3819e-07 0)
(1.00001 -6.49774e-07 0)
(1.00001 -6.46568e-07 0)
(1.00001 -5.37481e-07 0)
(1.00001 -3.69187e-07 0)
(1.00001 -1.8479e-07 0)
(1.00001 -4.95413e-09 0)
(1.00001 1.58373e-07 0)
(1.00001 3.02628e-07 0)
(1.00001 4.35696e-07 0)
(1.00001 5.62316e-07 0)
(1.00001 6.81034e-07 0)
(1.00001 7.82846e-07 0)
(1.00001 8.51372e-07 0)
(1 8.70536e-07 0)
(1 8.33849e-07 0)
(1 7.45822e-07 0)
(1 6.16468e-07 0)
(1 4.54677e-07 0)
(1 2.65914e-07 0)
(1 5.8605e-08 0)
(1 -1.55247e-07 0)
(1 -3.66613e-07 0)
(1 -5.69362e-07 0)
(1 -7.5864e-07 0)
(1 -9.30605e-07 0)
(1 -1.0823e-06 0)
(1.00001 -1.21148e-06 0)
(1.00001 -1.31705e-06 0)
(1.00001 -1.39817e-06 0)
(1.00001 -1.45056e-06 0)
(1.00001 -1.46503e-06 0)
(1.00001 -1.43293e-06 0)
(1.00002 -1.34012e-06 0)
(1.00002 -1.1772e-06 0)
(1.00002 -9.45917e-07 0)
(1.00002 -6.50653e-07 0)
(1.00002 -2.85344e-07 0)
(1.00002 1.33564e-07 0)
(1.00002 5.95934e-07 0)
(1.00002 1.09047e-06 0)
(1.00002 1.59984e-06 0)
(1.00001 2.09988e-06 0)
(1.00001 2.5598e-06 0)
(1.00001 2.94486e-06 0)
(1 3.2219e-06 0)
(0.999999 3.3663e-06 0)
(0.999995 3.36668e-06 0)
(0.99999 3.22467e-06 0)
(0.999986 2.95138e-06 0)
(0.999983 2.56556e-06 0)
(0.99998 2.09507e-06 0)
(0.999978 1.57796e-06 0)
(0.999976 1.05814e-06 0)
(0.999975 5.7417e-07 0)
(0.999975 1.54697e-07 0)
(0.999975 -1.86113e-07 0)
(0.999975 -4.54949e-07 0)
(0.999976 -6.74176e-07 0)
(0.999977 -8.71809e-07 0)
(0.999978 -1.06736e-06 0)
(0.99998 -1.25531e-06 0)
(0.999982 -1.40025e-06 0)
(0.999984 -1.45377e-06 0)
(0.999986 -1.38436e-06 0)
(0.999987 -1.20078e-06 0)
(0.999989 -9.53809e-07 0)
(0.99999 -7.12725e-07 0)
(0.999991 -5.3111e-07 0)
(0.999991 -4.27112e-07 0)
(0.999992 -3.89075e-07 0)
(0.999992 -3.93021e-07 0)
(0.999993 -4.1552e-07 0)
(0.999994 -4.39011e-07 0)
(0.999994 -4.53118e-07 0)
(0.999995 -4.53763e-07 0)
(0.999995 -4.41121e-07 0)
(0.999996 -4.17625e-07 0)
(0.999996 -3.86546e-07 0)
(0.999997 -3.51102e-07 0)
(0.999997 -3.13998e-07 0)
(0.999998 -2.77272e-07 0)
(0.999998 -2.42317e-07 0)
(0.999998 -2.09984e-07 0)
(0.999999 -1.80705e-07 0)
(0.999999 -1.54616e-07 0)
(0.999999 -1.31655e-07 0)
(0.999999 -1.11637e-07 0)
(0.999999 -9.43162e-08 0)
(0.999999 -7.94154e-08 0)
(1 -6.66565e-08 0)
(1 -5.57727e-08 0)
(1 -4.65175e-08 0)
(1 -3.86683e-08 0)
(1 -3.2027e-08 0)
(1 -2.64198e-08 0)
(1 -2.16955e-08 0)
(1 -1.77229e-08 0)
(1 -1.43894e-08 0)
(1 -1.15981e-08 0)
(1 -9.26636e-09 0)
(1 -7.32325e-09 0)
(1 -5.70824e-09 0)
(1 -4.36986e-09 0)
(1 -3.26383e-09 0)
(1 -2.35623e-09 0)
(1 -1.62827e-09 0)
(1 -1.05381e-09 0)
(1 -5.9854e-10 0)
(1 -2.17426e-10 0)
(1 9.76171e-11 0)
(1 3.54864e-10 0)
(1 5.56535e-10 0)
(1 7.10503e-10 0)
(1 8.24578e-10 0)
(1 9.05614e-10 0)
(1 9.5961e-10 0)
(1 9.91632e-10 0)
(1 1.00596e-09 0)
(1 1.00616e-09 0)
(1 9.95217e-10 0)
(1 9.75608e-10 0)
(1 9.49377e-10 0)
(1 9.18207e-10 0)
(1 8.83479e-10 0)
(1 8.46308e-10 0)
(1 8.0762e-10 0)
(1 7.68162e-10 0)
(1 7.28529e-10 0)
(1 6.89204e-10 0)
(1 6.50545e-10 0)
(1 6.12833e-10 0)
(1 5.76277e-10 0)
(1 5.41035e-10 0)
(1 5.07209e-10 0)
(1 4.74871e-10 0)
(1 4.44061e-10 0)
(1 4.14787e-10 0)
(1 3.87053e-10 0)
(1 3.60828e-10 0)
(1 3.36075e-10 0)
(1 3.12752e-10 0)
(1 2.90804e-10 0)
(1 2.70182e-10 0)
(1 2.50819e-10 0)
(1 2.32652e-10 0)
(1 2.15623e-10 0)
(1 1.99673e-10 0)
(1 1.84738e-10 0)
(1 1.70756e-10 0)
(1 1.57661e-10 0)
(1 1.454e-10 0)
(1 1.33918e-10 0)
(1 1.23153e-10 0)
(1 1.13054e-10 0)
(1 1.03584e-10 0)
(1 9.46903e-11 0)
(1 8.6325e-11 0)
(1 7.84473e-11 0)
(1 7.10134e-11 0)
(1 6.39796e-11 0)
(1 5.73064e-11 0)
(1 5.09598e-11 0)
(1 4.48998e-11 0)
(1 3.91356e-11 0)
(1 3.34302e-11 0)
(1 2.88398e-11 0)
(1 2.09683e-11 0)
(1 -8.63544e-10 0)
(1 -4.22992e-09 0)
(1 -7.81565e-09 0)
(1 -1.20196e-08 0)
(1 -1.76289e-08 0)
(1 -2.48235e-08 0)
(1 -3.37658e-08 0)
(1 -4.51988e-08 0)
(1 -6.03681e-08 0)
(1 -8.0352e-08 0)
(1 -1.05402e-07 0)
(1 -1.3481e-07 0)
(1 -1.67335e-07 0)
(1 -2.01818e-07 0)
(1 -2.37588e-07 0)
(1 -2.74474e-07 0)
(1 -3.12507e-07 0)
(1 -3.51451e-07 0)
(1 -3.90295e-07 0)
(1 -4.26762e-07 0)
(1 -4.56885e-07 0)
(1 -4.74783e-07 0)
(1 -4.72752e-07 0)
(1 -4.42192e-07 0)
(1 -3.76444e-07 0)
(1.00001 -2.7605e-07 0)
(1.00001 -1.55239e-07 0)
(1.00001 -4.65618e-08 0)
(1.00001 2.44898e-09 0)
(1.00001 -5.41208e-08 0)
(1.00001 -2.33136e-07 0)
(1.00001 -4.98269e-07 0)
(1.00001 -7.61692e-07 0)
(1.00001 -9.22768e-07 0)
(1.00001 -9.21399e-07 0)
(1.00001 -7.63551e-07 0)
(1.00001 -5.05187e-07 0)
(1.00001 -2.12585e-07 0)
(1.00001 5.74769e-08 0)
(1.00001 2.86769e-07 0)
(1.00001 4.85264e-07 0)
(1.00001 6.65956e-07 0)
(1.00001 8.34872e-07 0)
(1.00001 9.88804e-07 0)
(1.00001 1.11424e-06 0)
(1.00001 1.18964e-06 0)
(1 1.19633e-06 0)
(1 1.12954e-06 0)
(1 9.97686e-07 0)
(1 8.13559e-07 0)
(1 5.87636e-07 0)
(1 3.29178e-07 0)
(1 5.11804e-08 0)
(1 -2.36007e-07 0)
(1 -5.23357e-07 0)
(1 -8.02706e-07 0)
(1 -1.06707e-06 0)
(1 -1.30997e-06 0)
(1 -1.52461e-06 0)
(1.00001 -1.70347e-06 0)
(1.00001 -1.83819e-06 0)
(1.00001 -1.91941e-06 0)
(1.00001 -1.93814e-06 0)
(1.00001 -1.88859e-06 0)
(1.00001 -1.76924e-06 0)
(1.00002 -1.57692e-06 0)
(1.00002 -1.31149e-06 0)
(1.00002 -9.71687e-07 0)
(1.00002 -5.55121e-07 0)
(1.00002 -7.77643e-08 0)
(1.00002 4.62665e-07 0)
(1.00002 1.05665e-06 0)
(1.00002 1.687e-06 0)
(1.00002 2.32901e-06 0)
(1.00001 2.95043e-06 0)
(1.00001 3.51294e-06 0)
(1.00001 3.97551e-06 0)
(1 4.30015e-06 0)
(0.999999 4.45785e-06 0)
(0.999995 4.43236e-06 0)
(0.99999 4.22223e-06 0)
(0.999986 3.84172e-06 0)
(0.999983 3.31902e-06 0)
(0.99998 2.69236e-06 0)
(0.999977 2.0082e-06 0)
(0.999976 1.32004e-06 0)
(0.999975 6.7775e-07 0)
(0.999975 1.2995e-07 0)
(0.999975 -3.13938e-07 0)
(0.999975 -6.66772e-07 0)
(0.999976 -9.58649e-07 0)
(0.999977 -1.22727e-06 0)
(0.999978 -1.49896e-06 0)
(0.99998 -1.76467e-06 0)
(0.999982 -1.97208e-06 0)
(0.999984 -2.04987e-06 0)
(0.999986 -1.9513e-06 0)
(0.999988 -1.68849e-06 0)
(0.999989 -1.335e-06 0)
(0.99999 -9.91418e-07 0)
(0.999991 -7.34832e-07 0)
(0.999991 -5.90216e-07 0)
(0.999992 -5.3954e-07 0)
(0.999992 -5.47796e-07 0)
(0.999993 -5.81435e-07 0)
(0.999994 -6.15635e-07 0)
(0.999994 -6.35946e-07 0)
(0.999995 -6.36883e-07 0)
(0.999995 -6.18919e-07 0)
(0.999996 -5.85638e-07 0)
(0.999996 -5.41736e-07 0)
(0.999997 -4.91778e-07 0)
(0.999997 -4.39573e-07 0)
(0.999998 -3.87977e-07 0)
(0.999998 -3.38928e-07 0)
(0.999998 -2.93603e-07 0)
(0.999999 -2.52593e-07 0)
(0.999999 -2.16073e-07 0)
(0.999999 -1.83948e-07 0)
(0.999999 -1.55954e-07 0)
(0.999999 -1.31738e-07 0)
(1 -1.10911e-07 0)
(1 -9.30814e-08 0)
(1 -7.78748e-08 0)
(1 -6.49456e-08 0)
(1 -5.39816e-08 0)
(1 -4.47058e-08 0)
(1 -3.68751e-08 0)
(1 -3.02777e-08 0)
(1 -2.47306e-08 0)
(1 -2.00761e-08 0)
(1 -1.61789e-08 0)
(1 -1.29234e-08 0)
(1 -1.02106e-08 0)
(1 -7.95648e-09 0)
(1 -6.08959e-09 0)
(1 -4.5491e-09 0)
(1 -3.28317e-09 0)
(1 -2.24452e-09 0)
(1 -1.39413e-09 0)
(1 -7.02106e-10 0)
(1 -1.48422e-10 0)
(1 2.86125e-10 0)
(1 6.2083e-10 0)
(1 8.7639e-10 0)
(1 1.06724e-09 0)
(1 1.20536e-09 0)
(1 1.30073e-09 0)
(1 1.36149e-09 0)
(1 1.39435e-09 0)
(1 1.40486e-09 0)
(1 1.39765e-09 0)
(1 1.37653e-09 0)
(1 1.34469e-09 0)
(1 1.30474e-09 0)
(1 1.25881e-09 0)
(1 1.20867e-09 0)
(1 1.15575e-09 0)
(1 1.1012e-09 0)
(1 1.04598e-09 0)
(1 9.90843e-10 0)
(1 9.36376e-10 0)
(1 8.83031e-10 0)
(1 8.31149e-10 0)
(1 7.80987e-10 0)
(1 7.32732e-10 0)
(1 6.86504e-10 0)
(1 6.42379e-10 0)
(1 6.00399e-10 0)
(1 5.60563e-10 0)
(1 5.22857e-10 0)
(1 4.87233e-10 0)
(1 4.53633e-10 0)
(1 4.21998e-10 0)
(1 3.92245e-10 0)
(1 3.64299e-10 0)
(1 3.38074e-10 0)
(1 3.13481e-10 0)
(1 2.90437e-10 0)
(1 2.68857e-10 0)
(1 2.48651e-10 0)
(1 2.29735e-10 0)
(1 2.12024e-10 0)
(1 1.95435e-10 0)
(1 1.79896e-10 0)
(1 1.65328e-10 0)
(1 1.5166e-10 0)
(1 1.38836e-10 0)
(1 1.26788e-10 0)
(1 1.15451e-10 0)
(1 1.04765e-10 0)
(1 9.46731e-11 0)
(1 8.51148e-11 0)
(1 7.60365e-11 0)
(1 6.73926e-11 0)
(1 5.91315e-11 0)
(1 5.12503e-11 0)
(1 4.35016e-11 0)
(1 3.6964e-11 0)
(1 2.60989e-11 0)
(1 -1.10486e-09 0)
(1 -5.41751e-09 0)
(1 -1.00108e-08 0)
(1 -1.53961e-08 0)
(1 -2.25826e-08 0)
(1 -3.18011e-08 0)
(1 -4.32603e-08 0)
(1 -5.79139e-08 0)
(1 -7.73603e-08 0)
(1 -1.02983e-07 0)
(1 -1.35107e-07 0)
(1 -1.72829e-07 0)
(1 -2.14563e-07 0)
(1 -2.58836e-07 0)
(1 -3.04803e-07 0)
(1 -3.52272e-07 0)
(1 -4.01316e-07 0)
(1 -4.51663e-07 0)
(1 -5.02048e-07 0)
(1 -5.49584e-07 0)
(1 -5.89231e-07 0)
(1 -6.13434e-07 0)
(1 -6.12152e-07 0)
(1 -5.73929e-07 0)
(1 -4.89386e-07 0)
(1.00001 -3.58166e-07 0)
(1.00001 -1.98049e-07 0)
(1.00001 -5.15453e-08 0)
(1.00001 1.78774e-08 0)
(1.00001 -5.26027e-08 0)
(1.00001 -2.87909e-07 0)
(1.00001 -6.40845e-07 0)
(1.00001 -9.93389e-07 0)
(1.00001 -1.20914e-06 0)
(1.00001 -1.20635e-06 0)
(1.00001 -9.95088e-07 0)
(1.00001 -6.55124e-07 0)
(1.00001 -2.80814e-07 0)
(1.00001 6.22304e-08 0)
(1.00001 3.54022e-07 0)
(1.00001 6.07071e-07 0)
(1.00001 8.38874e-07 0)
(1.00001 1.05784e-06 0)
(1.00001 1.26043e-06 0)
(1.00001 1.42953e-06 0)
(1.00001 1.5362e-06 0)
(1 1.55395e-06 0)
(1 1.47445e-06 0)
(1 1.30773e-06 0)
(1 1.07046e-06 0)
(1 7.77452e-07 0)
(1 4.42255e-07 0)
(1 8.00522e-08 0)
(1 -2.94836e-07 0)
(1 -6.69369e-07 0)
(1 -1.0323e-06 0)
(1 -1.37409e-06 0)
(1 -1.68634e-06 0)
(1 -1.96152e-06 0)
(1.00001 -2.19237e-06 0)
(1.00001 -2.37115e-06 0)
(1.00001 -2.48983e-06 0)
(1.00001 -2.53997e-06 0)
(1.00001 -2.51194e-06 0)
(1.00001 -2.39614e-06 0)
(1.00002 -2.18221e-06 0)
(1.00002 -1.86325e-06 0)
(1.00002 -1.43779e-06 0)
(1.00002 -9.09328e-07 0)
(1.00002 -2.81842e-07 0)
(1.00002 4.36422e-07 0)
(1.00002 1.2288e-06 0)
(1.00002 2.07216e-06 0)
(1.00002 2.93552e-06 0)
(1.00001 3.77803e-06 0)
(1.00001 4.54909e-06 0)
(1.00001 5.19223e-06 0)
(1 5.65288e-06 0)
(0.999999 5.88757e-06 0)
(0.999995 5.87194e-06 0)
(0.99999 5.60526e-06 0)
(0.999986 5.1094e-06 0)
(0.999983 4.42227e-06 0)
(0.99998 3.59284e-06 0)
(0.999977 2.68264e-06 0)
(0.999976 1.7658e-06 0)
(0.999975 9.17253e-07 0)
(0.999974 1.92152e-07 0)
(0.999975 -3.92258e-07 0)
(0.999975 -8.52302e-07 0)
(0.999976 -1.22909e-06 0)
(0.999977 -1.57499e-06 0)
(0.999978 -1.92791e-06 0)
(0.99998 -2.27763e-06 0)
(0.999982 -2.55403e-06 0)
(0.999984 -2.66007e-06 0)
(0.999986 -2.53146e-06 0)
(0.999988 -2.18362e-06 0)
(0.999989 -1.71565e-06 0)
(0.99999 -1.26329e-06 0)
(0.999991 -9.2939e-07 0)
(0.999991 -7.45238e-07 0)
(0.999992 -6.84616e-07 0)
(0.999992 -6.99999e-07 0)
(0.999993 -7.46975e-07 0)
(0.999993 -7.93227e-07 0)
(0.999994 -8.20318e-07 0)
(0.999995 -8.21587e-07 0)
(0.999995 -7.9804e-07 0)
(0.999996 -7.54593e-07 0)
(0.999996 -6.97478e-07 0)
(0.999997 -6.32672e-07 0)
(0.999997 -5.65113e-07 0)
(0.999998 -4.98469e-07 0)
(0.999998 -4.35218e-07 0)
(0.999998 -3.76844e-07 0)
(0.999999 -3.24083e-07 0)
(0.999999 -2.77139e-07 0)
(0.999999 -2.35872e-07 0)
(0.999999 -1.99931e-07 0)
(0.999999 -1.68855e-07 0)
(1 -1.42137e-07 0)
(1 -1.1927e-07 0)
(1 -9.97725e-08 0)
(1 -8.31972e-08 0)
(1 -6.91435e-08 0)
(1 -5.72551e-08 0)
(1 -4.72197e-08 0)
(1 -3.87657e-08 0)
(1 -3.1658e-08 0)
(1 -2.56945e-08 0)
(1 -2.07018e-08 0)
(1 -1.65314e-08 0)
(1 -1.30567e-08 0)
(1 -1.01698e-08 0)
(1 -7.77859e-09 0)
(1 -5.80467e-09 0)
(1 -4.18201e-09 0)
(1 -2.85598e-09 0)
(1 -1.7826e-09 0)
(1 -9.18846e-10 0)
(1 -2.25874e-10 0)
(1 3.25441e-10 0)
(1 7.58241e-10 0)
(1 1.09261e-09 0)
(1 1.34503e-09 0)
(1 1.52981e-09 0)
(1 1.65899e-09 0)
(1 1.74278e-09 0)
(1 1.78974e-09 0)
(1 1.80709e-09 0)
(1 1.80088e-09 0)
(1 1.77612e-09 0)
(1 1.73701e-09 0)
(1 1.68699e-09 0)
(1 1.62891e-09 0)
(1 1.5651e-09 0)
(1 1.49745e-09 0)
(1 1.4275e-09 0)
(1 1.35653e-09 0)
(1 1.28552e-09 0)
(1 1.21528e-09 0)
(1 1.14639e-09 0)
(1 1.07933e-09 0)
(1 1.01444e-09 0)
(1 9.51974e-10 0)
(1 8.92095e-10 0)
(1 8.34909e-10 0)
(1 7.80478e-10 0)
(1 7.28807e-10 0)
(1 6.79879e-10 0)
(1 6.33639e-10 0)
(1 5.90017e-10 0)
(1 5.48935e-10 0)
(1 5.10293e-10 0)
(1 4.7399e-10 0)
(1 4.39917e-10 0)
(1 4.07963e-10 0)
(1 3.78018e-10 0)
(1 3.49971e-10 0)
(1 3.23708e-10 0)
(1 2.99122e-10 0)
(1 2.76102e-10 0)
(1 2.5454e-10 0)
(1 2.34341e-10 0)
(1 2.15408e-10 0)
(1 1.97649e-10 0)
(1 1.80985e-10 0)
(1 1.65333e-10 0)
(1 1.50607e-10 0)
(1 1.3673e-10 0)
(1 1.23625e-10 0)
(1 1.11216e-10 0)
(1 9.94368e-11 0)
(1 8.82267e-11 0)
(1 7.75178e-11 0)
(1 6.7309e-11 0)
(1 5.72683e-11 0)
(1 4.87286e-11 0)
(1 3.47688e-11 0)
(1 -1.34214e-09 0)
(1 -6.58945e-09 0)
(1 -1.21776e-08 0)
(1 -1.87294e-08 0)
(1 -2.74742e-08 0)
(1 -3.8693e-08 0)
(1 -5.26406e-08 0)
(1 -7.04804e-08 0)
(1 -9.4161e-08 0)
(1 -1.2537e-07 0)
(1 -1.64505e-07 0)
(1 -2.10472e-07 0)
(1 -2.61352e-07 0)
(1 -3.15368e-07 0)
(1 -3.71514e-07 0)
(1 -4.29593e-07 0)
(1 -4.89738e-07 0)
(1 -5.51679e-07 0)
(1 -6.13955e-07 0)
(1 -6.73129e-07 0)
(1 -7.23078e-07 0)
(1 -7.54498e-07 0)
(1 -7.5481e-07 0)
(1 -7.09299e-07 0)
(1 -6.05331e-07 0)
(1.00001 -4.41158e-07 0)
(1.00001 -2.37871e-07 0)
(1.00001 -4.85544e-08 0)
(1.00001 4.55545e-08 0)
(1.00001 -3.8053e-08 0)
(1.00001 -3.3441e-07 0)
(1.00001 -7.84833e-07 0)
(1.00001 -1.23682e-06 0)
(1.00001 -1.51308e-06 0)
(1.00001 -1.50881e-06 0)
(1.00001 -1.23943e-06 0)
(1.00001 -8.0879e-07 0)
(1.00001 -3.38602e-07 0)
(1.00001 8.72563e-08 0)
(1.00001 4.44604e-07 0)
(1.00001 7.52205e-07 0)
(1.00001 1.03468e-06 0)
(1.00001 1.30307e-06 0)
(1.00001 1.5533e-06 0)
(1.00001 1.76363e-06 0)
(1.00001 1.89617e-06 0)
(1 1.91646e-06 0)
(1 1.81489e-06 0)
(1 1.60604e-06 0)
(1 1.31207e-06 0)
(1 9.51448e-07 0)
(1 5.40146e-07 0)
(0.999999 9.5884e-08 0)
(0.999999 -3.63478e-07 0)
(1 -8.21993e-07 0)
(1 -1.26619e-06 0)
(1 -1.68491e-06 0)
(1 -2.06853e-06 0)
(1 -2.40785e-06 0)
(1.00001 -2.69296e-06 0)
(1.00001 -2.91295e-06 0)
(1.00001 -3.05601e-06 0)
(1.00001 -3.10945e-06 0)
(1.00001 -3.06127e-06 0)
(1.00001 -2.902e-06 0)
(1.00002 -2.62361e-06 0)
(1.00002 -2.22162e-06 0)
(1.00002 -1.695e-06 0)
(1.00002 -1.04471e-06 0)
(1.00002 -2.77994e-07 0)
(1.00002 5.95355e-07 0)
(1.00002 1.55758e-06 0)
(1.00002 2.58208e-06 0)
(1.00002 3.63125e-06 0)
(1.00001 4.65445e-06 0)
(1.00001 5.58879e-06 0)
(1.00001 6.36438e-06 0)
(1 6.91455e-06 0)
(0.999999 7.18764e-06 0)
(0.999995 7.15621e-06 0)
(0.99999 6.821e-06 0)
(0.999986 6.2085e-06 0)
(0.999982 5.36372e-06 0)
(0.999979 4.34563e-06 0)
(0.999977 3.22971e-06 0)
(0.999975 2.1079e-06 0)
(0.999974 1.07276e-06 0)
(0.999974 1.91973e-07 0)
(0.999974 -5.1282e-07 0)
(0.999975 -1.06348e-06 0)
(0.999976 -1.51277e-06 0)
(0.999977 -1.92845e-06 0)
(0.999978 -2.36121e-06 0)
(0.99998 -2.7993e-06 0)
(0.999982 -3.15148e-06 0)
(0.999984 -3.29014e-06 0)
(0.999986 -3.12976e-06 0)
(0.999988 -2.68876e-06 0)
(0.999989 -2.09546e-06 0)
(0.99999 -1.52598e-06 0)
(0.999991 -1.11182e-06 0)
(0.999991 -8.89795e-07 0)
(0.999992 -8.2292e-07 0)
(0.999992 -8.49175e-07 0)
(0.999993 -9.12335e-07 0)
(0.999993 -9.72324e-07 0)
(0.999994 -1.00687e-06 0)
(0.999995 -1.00845e-06 0)
(0.999995 -9.78934e-07 0)
(0.999996 -9.2479e-07 0)
(0.999996 -8.53941e-07 0)
(0.999997 -7.73847e-07 0)
(0.999997 -6.90599e-07 0)
(0.999998 -6.08681e-07 0)
(0.999998 -5.31087e-07 0)
(0.999998 -4.59593e-07 0)
(0.999999 -3.95057e-07 0)
(0.999999 -3.37699e-07 0)
(0.999999 -2.87319e-07 0)
(0.999999 -2.43472e-07 0)
(0.999999 -2.05579e-07 0)
(1 -1.73015e-07 0)
(1 -1.45155e-07 0)
(1 -1.21405e-07 0)
(1 -1.0122e-07 0)
(1 -8.41086e-08 0)
(1 -6.96359e-08 0)
(1 -5.74205e-08 0)
(1 -4.71311e-08 0)
(1 -3.84814e-08 0)
(1 -3.12248e-08 0)
(1 -2.515e-08 0)
(1 -2.00763e-08 0)
(1 -1.58494e-08 0)
(1 -1.23378e-08 0)
(1 -9.42973e-09 0)
(1 -7.0301e-09 0)
(1 -5.05869e-09 0)
(1 -3.44762e-09 0)
(1 -2.13862e-09 0)
(1 -1.08071e-09 0)
(1 -2.32088e-10 0)
(1 4.40564e-10 0)
(1 9.65952e-10 0)
(1 1.3696e-09 0)
(1 1.67269e-09 0)
(1 1.89313e-09 0)
(1 2.046e-09 0)
(1 2.14395e-09 0)
(1 2.19752e-09 0)
(1 2.21552e-09 0)
(1 2.20527e-09 0)
(1 2.17285e-09 0)
(1 2.12331e-09 0)
(1 2.0608e-09 0)
(1 1.98872e-09 0)
(1 1.90989e-09 0)
(1 1.82657e-09 0)
(1 1.74063e-09 0)
(1 1.65357e-09 0)
(1 1.56659e-09 0)
(1 1.48063e-09 0)
(1 1.3964e-09 0)
(1 1.31447e-09 0)
(1 1.23523e-09 0)
(1 1.15898e-09 0)
(1 1.08593e-09 0)
(1 1.0162e-09 0)
(1 9.49839e-10 0)
(1 8.86865e-10 0)
(1 8.27247e-10 0)
(1 7.70917e-10 0)
(1 7.17787e-10 0)
(1 6.67759e-10 0)
(1 6.2071e-10 0)
(1 5.76513e-10 0)
(1 5.35036e-10 0)
(1 4.96142e-10 0)
(1 4.59699e-10 0)
(1 4.25567e-10 0)
(1 3.93608e-10 0)
(1 3.63691e-10 0)
(1 3.35681e-10 0)
(1 3.09446e-10 0)
(1 2.84869e-10 0)
(1 2.61834e-10 0)
(1 2.40229e-10 0)
(1 2.19955e-10 0)
(1 2.0091e-10 0)
(1 1.82993e-10 0)
(1 1.66107e-10 0)
(1 1.50158e-10 0)
(1 1.35057e-10 0)
(1 1.20721e-10 0)
(1 1.07077e-10 0)
(1 9.40419e-11 0)
(1 8.16122e-11 0)
(1 6.93808e-11 0)
(1 5.89526e-11 0)
(1 4.197e-11 0)
(1 -1.5745e-09 0)
(1 -7.74233e-09 0)
(1 -1.43099e-08 0)
(1 -2.20101e-08 0)
(1 -3.22902e-08 0)
(1 -4.54804e-08 0)
(1 -6.18817e-08 0)
(1 -8.28656e-08 0)
(1 -1.10728e-07 0)
(1 -1.47457e-07 0)
(1 -1.93527e-07 0)
(1 -2.47656e-07 0)
(1 -3.07603e-07 0)
(1 -3.71299e-07 0)
(1 -4.37598e-07 0)
(1 -5.06317e-07 0)
(1 -5.7768e-07 0)
(1 -6.5146e-07 0)
(1 -7.26038e-07 0)
(1 -7.97451e-07 0)
(1 -8.58538e-07 0)
(1 -8.98272e-07 0)
(1 -9.01447e-07 0)
(1 -8.49726e-07 0)
(1 -7.26465e-07 0)
(1.00001 -5.2751e-07 0)
(1.00001 -2.7653e-07 0)
(1.00001 -3.76374e-08 0)
(1.00001 8.77875e-08 0)
(1.00001 -6.38172e-09 0)
(1.00001 -3.68714e-07 0)
(1.00001 -9.2879e-07 0)
(1.00001 -1.49428e-06 0)
(1.00001 -1.83969e-06 0)
(1.00001 -1.83323e-06 0)
(1.00001 -1.49745e-06 0)
(1.00001 -9.66233e-07 0)
(1.00001 -3.94464e-07 0)
(1.00001 1.14191e-07 0)
(1.00001 5.34257e-07 0)
(1.00001 8.93755e-07 0)
(1.00001 1.22551e-06 0)
(1.00001 1.54353e-06 0)
(1.00001 1.84346e-06 0)
(1.00001 2.09883e-06 0)
(1.00001 2.26163e-06 0)
(1 2.28806e-06 0)
(1 2.16674e-06 0)
(1 1.91699e-06 0)
(1 1.56644e-06 -1.70852e-40)
(1 1.137e-06 -1.84639e-40)
(0.999999 6.473e-07 0)
(0.999999 1.18328e-07 0)
(0.999999 -4.28238e-07 0)
(1 -9.73365e-07 0)
(1 -1.50126e-06 0)
(1 -1.99873e-06 0)
(1 -2.45425e-06 0)
(1 -2.85685e-06 0)
(1.00001 -3.19521e-06 0)
(1.00001 -3.45711e-06 0)
(1.00001 -3.6291e-06 0)
(1.00001 -3.69721e-06 0)
(1.00001 -3.64783e-06 0)
(1.00002 -3.46861e-06 0)
(1.00002 -3.14866e-06 0)
(1.00002 -2.68059e-06 0)
(1.00002 -2.06167e-06 0)
(1.00002 -1.29383e-06 0)
(1.00002 -3.84787e-07 0)
(1.00002 6.53081e-07 0)
(1.00002 1.79914e-06 0)
(1.00002 3.02206e-06 0)
(1.00002 4.27732e-06 0)
(1.00002 5.50488e-06 0)
(1.00001 6.62955e-06 0)
(1.00001 7.56701e-06 0)
(1 8.23619e-06 0)
(0.999999 8.57351e-06 0)
(0.999994 8.54413e-06 0)
(0.99999 8.14774e-06 0)
(0.999986 7.41627e-06 0)
(0.999982 6.40424e-06 0)
(0.999979 5.18231e-06 0)
(0.999977 3.84113e-06 0)
(0.999975 2.49289e-06 0)
(0.999974 1.2524e-06 0)
(0.999974 2.0279e-07 0)
(0.999974 -6.2983e-07 0)
(0.999975 -1.27339e-06 0)
(0.999976 -1.79405e-06 0)
(0.999977 -2.27841e-06 0)
(0.999978 -2.7939e-06 0)
(0.99998 -3.32855e-06 0)
(0.999982 -3.76679e-06 0)
(0.999984 -3.94466e-06 0)
(0.999986 -3.75081e-06 0)
(0.999988 -3.2064e-06 0)
(0.999989 -2.47384e-06 0)
(0.99999 -1.77659e-06 0)
(0.999991 -1.27866e-06 0)
(0.999992 -1.02109e-06 0)
(0.999992 -9.52771e-07 0)
(0.999992 -9.94648e-07 0)
(0.999993 -1.07754e-06 0)
(0.999993 -1.15333e-06 0)
(0.999994 -1.19613e-06 0)
(0.999995 -1.19798e-06 0)
(0.999995 -1.16199e-06 0)
(0.999996 -1.09649e-06 0)
(0.999997 -1.01126e-06 0)
(0.999997 -9.15339e-07 0)
(0.999997 -8.15999e-07 0)
(0.999998 -7.18531e-07 0)
(0.999998 -6.26429e-07 0)
(0.999998 -5.41731e-07 0)
(0.999999 -4.65396e-07 0)
(0.999999 -3.97637e-07 0)
(0.999999 -3.38182e-07 0)
(0.999999 -2.86478e-07 0)
(0.999999 -2.41824e-07 0)
(1 -2.0347e-07 0)
(1 -1.70669e-07 0)
(1 -1.42716e-07 0)
(1 -1.18966e-07 0)
(1 -9.88356e-08 0)
(1 -8.18128e-08 0)
(1 -6.74473e-08 0)
(1 -5.53485e-08 0)
(1 -4.51788e-08 0)
(1 -3.66481e-08 0)
(1 -2.95076e-08 0)
(1 -2.35445e-08 0)
(1 -1.85773e-08 0)
(1 -1.44513e-08 0)
(1 -1.1035e-08 0)
(1 -8.21657e-09 0)
(1 -5.9012e-09 0)
(1 -4.00891e-09 0)
(1 -2.47198e-09 0)
(1 -1.23217e-09 0)
(1 -2.39718e-10 0)
(1 5.46431e-10 0)
(1 1.16085e-09 0)
(1 1.6331e-09 0)
(1 1.98788e-09 0)
(1 2.24603e-09 0)
(1 2.42504e-09 0)
(1 2.53963e-09 0)
(1 2.60208e-09 0)
(1 2.62268e-09 0)
(1 2.61004e-09 0)
(1 2.57128e-09 0)
(1 2.51236e-09 0)
(1 2.43815e-09 0)
(1 2.35269e-09 0)
(1 2.25927e-09 0)
(1 2.16059e-09 0)
(1 2.05883e-09 0)
(1 1.95578e-09 0)
(1 1.85284e-09 0)
(1 1.75111e-09 0)
(1 1.65145e-09 0)
(1 1.5545e-09 0)
(1 1.46076e-09 0)
(1 1.37057e-09 0)
(1 1.28416e-09 0)
(1 1.20168e-09 0)
(1 1.12319e-09 0)
(1 1.04871e-09 0)
(1 9.78204e-10 0)
(1 9.11587e-10 0)
(1 8.48755e-10 0)