/*--------------------------------*- C++ -*----------------------------------*\
| =========                 |                                                 |
| \\      /  F ield         | OpenFOAM: The Open Source CFD Toolbox           |
|  \\    /   O peration     | Version:  v2006                                 |
|   \\  /    A nd           | Website:  www.openfoam.com                      |
|    \\/     M anipulation  |                                                 |
\*---------------------------------------------------------------------------*/
FoamFile
{
    version     2.0;
    format      ascii;
    class       surfaceScalarField;
    location    "18.8";
    object      phi;
}
// * * * * * * * * * * * * * * * * * * * * * * * * * * * * * * * * * * * * * //

dimensions      [0 3 -1 0 0 0 0];
oriented        oriented;


internalField   nonuniform List<scalar> 
99450
(
-6.36373e-06
6.36373e-06
6.36264e-06
-1.27264e-05
2.28169e-05
-1.64542e-05
3.65034e-05
-1.36866e-05
4.64076e-05
-9.90412e-06
5.36915e-05
-7.28397e-06
5.96976e-05
-6.00607e-06
6.52676e-05
-5.57002e-06
7.07568e-05
-5.48918e-06
7.62222e-05
-5.46535e-06
8.15917e-05
-5.36955e-06
8.67608e-05
-5.16913e-06
9.16319e-05
-4.87107e-06
9.61246e-05
-4.49265e-06
0.00010018
-4.05539e-06
0.000103765
-3.58489e-06
0.000106882
-3.11717e-06
0.000109546
-2.66433e-06
0.000111791
-2.24511e-06
0.000113667
-1.87561e-06
0.00011524
-1.57313e-06
0.000116597
-1.35633e-06
0.000117802
-1.20596e-06
0.000118934
-1.13158e-06
0.000120068
-1.13412e-06
0.000121275
-1.20666e-06
0.000122629
-1.35387e-06
0.000124184
-1.55579e-06
0.000125977
-1.79243e-06
0.00012804
-2.06325e-06
0.000130396
-2.35612e-06
0.000133051
-2.65509e-06
0.000135972
-2.92075e-06
0.000139122
-3.14981e-06
0.000142382
-3.25964e-06
0.000145617
-3.2351e-06
0.000148656
-3.03906e-06
0.000151288
-2.63262e-06
0.00015326
-1.97152e-06
0.000154393
-1.13346e-06
0.000154603
-2.09728e-07
0.000154001
6.01856e-07
0.000152842
1.15954e-06
0.000151408
1.43377e-06
0.000149958
1.44984e-06
0.000148749
1.20868e-06
0.000148044
7.0534e-07
0.000148062
-1.79551e-08
0.000149102
-1.0397e-06
0.000151416
-2.31384e-06
0.000155289
-3.8737e-06
0.000160979
-5.68936e-06
0.000168622
-7.6432e-06
0.000178171
-9.54889e-06
0.000189414
-1.12432e-05
0.000202085
-1.26711e-05
0.000215937
-1.38524e-05
0.000230787
-1.48495e-05
0.000246519
-1.57323e-05
0.000263054
-1.6535e-05
0.000280316
-1.72622e-05
0.000298235
-1.79189e-05
0.000316735
-1.84993e-05
0.00033575
-1.90154e-05
0.000355216
-1.94658e-05
0.000375065
-1.98491e-05
0.000395239
-2.01738e-05
0.000415675
-2.04363e-05
0.000436317
-2.06425e-05
0.00045711
-2.07929e-05
0.000478
-2.08895e-05
0.000498935
-2.09349e-05
0.000519865
-2.09298e-05
0.000540739
-2.08745e-05
0.000561509
-2.07701e-05
0.00058213
-2.06209e-05
0.000602558
-2.04283e-05
0.000622747
-2.01888e-05
0.000642652
-1.99048e-05
0.000662228
-1.95762e-05
0.000681428
-1.92004e-05
0.0007002
-1.87712e-05
0.000718491
-1.82917e-05
0.00073625
-1.77582e-05
0.000753413
-1.71637e-05
0.000769927
-1.65135e-05
0.000785722
-1.57956e-05
0.000800729
-1.50068e-05
0.000814877
-1.41481e-05
0.00082808
-1.32024e-05
0.000840238
-1.21581e-05
0.000851233
-1.09952e-05
0.00086092
-9.68679e-06
0.000869114
-8.19428e-06
0.000875569
-6.45437e-06
0.00087993
-4.36162e-06
0.000881741
-1.81094e-06
0.000880488
1.25309e-06
0.00087575
4.73768e-06
0.000867504
8.2468e-06
0.000856018
1.14855e-05
0.000841819
1.41995e-05
0.000825537
1.62817e-05
0.000807764
1.77728e-05
0.000789003
1.87612e-05
0.000769672
1.93314e-05
0.000750179
1.94929e-05
0.000731023
1.91559e-05
0.000712848
1.81743e-05
0.000696416
1.64325e-05
0.000682426
1.39904e-05
0.000671192
1.12337e-05
0.000662385
8.80734e-06
0.000655131
7.25309e-06
0.000648435
6.69613e-06
0.000641523
6.91195e-06
0.000633927
7.5966e-06
0.000625425
8.5015e-06
0.000615947
9.47794e-06
0.00060549
1.04577e-05
0.000594065
1.1425e-05
0.000581684
1.23804e-05
0.000568367
1.33168e-05
0.000554137
1.42303e-05
0.000539024
1.51131e-05
0.000523062
1.59617e-05
0.000506286
1.67762e-05
0.000488732
1.75544e-05
0.000470437
1.82952e-05
0.000451435
1.90013e-05
0.000431761
1.96741e-05
0.000411452
2.03096e-05
0.000390546
2.09058e-05
0.000369091
2.14548e-05
0.000347143
2.1948e-05
0.000324764
2.23787e-05
0.000302029
2.27355e-05
0.000279008
2.30206e-05
0.000255777
2.32312e-05
0.000232409
2.33681e-05
0.000208974
2.34353e-05
0.000185541
2.34327e-05
0.000162188
2.33527e-05
0.000139011
2.3177e-05
0.000116087
2.29242e-05
9.34635e-05
2.26234e-05
7.10492e-05
2.24143e-05
4.88915e-05
2.21577e-05
2.64779e-05
2.24137e-05
2.64779e-05
-8.51518e-06
1.48789e-05
1.45368e-06
-2.26952e-05
1.52061e-05
-3.02067e-05
2.56447e-05
-2.41251e-05
3.13502e-05
-1.56096e-05
3.36062e-05
-9.54003e-06
3.42245e-05
-6.62429e-06
3.43897e-05
-5.73529e-06
3.44992e-05
-5.59864e-06
3.44842e-05
-5.45038e-06
3.41254e-05
-5.01077e-06
3.32236e-05
-4.26729e-06
3.16455e-05
-3.29299e-06
2.93152e-05
-2.16231e-06
2.61864e-05
-9.26573e-07
2.22232e-05
3.78255e-07
1.75305e-05
1.57558e-06
1.2158e-05
2.70814e-06
6.20739e-06
3.70552e-06
-1.95267e-07
4.52704e-06
-6.91307e-06
5.14467e-06
-1.3826e-05
5.55659e-06
-2.0755e-05
5.72304e-06
-2.75395e-05
5.65296e-06
-3.40343e-05
5.36064e-06
-4.00696e-05
4.82863e-06
-4.55384e-05
4.11497e-06
-5.03219e-05
3.22772e-06
-5.4255e-05
2.14069e-06
-5.72425e-05
9.24241e-07
-5.91376e-05
-4.6101e-07
-5.98062e-05
-1.98657e-06
-5.9147e-05
-3.57991e-06
-5.70718e-05
-5.22496e-06
-5.34519e-05
-6.87956e-06
-4.8216e-05
-8.47098e-06
-4.13497e-05
-9.90543e-06
-3.28238e-05
-1.11585e-05
-2.2678e-05
-1.21173e-05
-1.10364e-05
-1.27751e-05
1.88922e-06
-1.31353e-05
1.57863e-05
-1.32952e-05
3.0301e-05
-1.33552e-05
4.51236e-05
-1.33888e-05
6.00562e-05
-1.34827e-05
7.49679e-05
-1.37031e-05
8.97668e-05
-1.40936e-05
0.000104485
-1.47356e-05
0.000119117
-1.56722e-05
0.000133696
-1.68933e-05
0.000148249
-1.84263e-05
0.000162778
-2.02183e-05
0.000177309
-2.21742e-05
0.000191928
-2.41676e-05
0.000206767
-2.60821e-05
0.000221945
-2.78491e-05
0.000237525
-2.94326e-05
0.000253515
-3.08393e-05
0.000269884
-3.21019e-05
0.000286575
-3.32259e-05
0.000303539
-3.42261e-05
0.000320735
-3.51153e-05
0.000338133
-3.58967e-05
0.00035569
-3.65731e-05
0.000373373
-3.71481e-05
0.000391154
-3.76303e-05
0.000409002
-3.80217e-05
0.000426892
-3.83268e-05
0.000444795
-3.85451e-05
0.000462683
-3.86805e-05
0.000480527
-3.8734e-05
0.000498301
-3.87092e-05
0.000515983
-3.86118e-05
0.000533553
-3.84442e-05
0.000550983
-3.82e-05
0.00056825
-3.78884e-05
0.000585339
-3.75169e-05
0.000602231
-3.70811e-05
0.000618902
-3.65759e-05
0.00063534
-3.60142e-05
0.00065153
-3.53905e-05
0.000667449
-3.46894e-05
0.000683084
-3.39266e-05
0.0006984
-3.30749e-05
0.000713381
-3.21447e-05
0.000727995
-3.11276e-05
0.00074221
-3.00103e-05
0.000755988
-2.87849e-05
0.000769289
-2.74492e-05
0.000782071
-2.59843e-05
0.000794295
-2.4382e-05
0.000805913
-2.26134e-05
0.000816886
-2.06592e-05
0.000827183
-1.84914e-05
0.000836794
-1.60654e-05
0.000845758
-1.33265e-05
0.000854136
-1.01887e-05
0.000861941
-6.55178e-06
0.000869052
-2.37358e-06
0.000875269
2.02979e-06
0.000880332
6.42285e-06
0.000884047
1.04841e-05
0.000886549
1.37797e-05
0.000888257
1.60647e-05
0.000889756
1.7263e-05
0.000891624
1.74631e-05
0.000894343
1.6774e-05
0.000898167
1.53315e-05
0.000903063
1.32784e-05
0.000908681
1.08149e-05
0.000914405
8.26594e-06
0.000919543
6.0964e-06
0.000923568
4.78227e-06
0.000926234
4.58655e-06
0.000927448
5.48263e-06
0.000927111
7.24814e-06
0.000925125
9.5834e-06
0.000921424
1.2202e-05
0.000915996
1.49062e-05
0.000908852
1.76016e-05
0.000900019
2.02581e-05
0.000889528
2.2871e-05
0.000877408
2.54376e-05
0.000863674
2.79641e-05
0.000848328
3.0459e-05
0.00083136
3.293e-05
0.000812764
3.53714e-05
0.00079254
3.77787e-05
0.000770687
4.01478e-05
0.000747214
4.2475e-05
0.000722124
4.47635e-05
0.000695416
4.70181e-05
0.000667085
4.92362e-05
0.000637134
5.14063e-05
0.000605574
5.35077e-05
0.000572434
5.55185e-05
0.000537758
5.74122e-05
0.000501619
5.91592e-05
0.000464118
6.07327e-05
0.000425356
6.21301e-05
0.000385475
6.33157e-05
0.000344613
6.42954e-05
0.000302901
6.50638e-05
0.000260447
6.56312e-05
0.000217332
6.60397e-05
0.000173652
6.63032e-05
0.000129463
6.66035e-05
8.53437e-05
6.62767e-05
4.28817e-05
6.48757e-05
6.93596e-05
-9.70021e-06
2.45791e-05
1.07433e-06
-3.34698e-05
1.77131e-05
-4.68455e-05
3.21396e-05
-3.85516e-05
4.16383e-05
-2.51083e-05
4.67709e-05
-1.46727e-05
4.93755e-05
-9.22892e-06
5.11091e-05
-7.46886e-06
5.28296e-05
-7.31914e-06
5.46333e-05
-7.25411e-06
5.62466e-05
-6.62407e-06
5.73129e-05
-5.33355e-06
5.75594e-05
-3.53949e-06
5.68223e-05
-1.42519e-06
5.50725e-05
8.23188e-07
5.22688e-05
3.18193e-06
4.84068e-05
5.43757e-06
4.35962e-05
7.51879e-06
3.79595e-05
9.34216e-06
3.166e-05
1.08265e-05
2.488e-05
1.19247e-05
1.78064e-05
1.26303e-05
1.06179e-05
1.29115e-05
3.49201e-06
1.27788e-05
-3.41101e-06
1.22637e-05
-9.98544e-06
1.14031e-05
-1.60831e-05
1.02126e-05
-2.15777e-05
8.72231e-06
-2.64215e-05
6.98447e-06
-3.05023e-05
5.00506e-06
-3.37923e-05
2.829e-06
-3.62292e-05
4.50364e-07
-3.78832e-05
-1.92588e-06
-3.86804e-05
-4.42781e-06
-3.85552e-05
-7.00473e-06
-3.75091e-05
-9.51716e-06
-3.54851e-05
-1.19294e-05
-3.24346e-05
-1.4209e-05
-2.82311e-05
-1.63207e-05
-2.28099e-05
-1.81963e-05
-1.60722e-05
-1.98731e-05
-8.03302e-06
-2.13344e-05
1.25778e-06
-2.2646e-05
1.17701e-05
-2.39011e-05
2.34337e-05
-2.51463e-05
3.61508e-05
-2.64201e-05
4.98293e-05
-2.77722e-05
6.4315e-05
-2.92213e-05
7.942e-05
-3.07772e-05
9.49621e-05
-3.24354e-05
0.000110779
-3.42427e-05
0.000126731
-3.61707e-05
0.000142756
-3.81995e-05
0.000158865
-4.0276e-05
0.000175115
-4.23326e-05
0.000191585
-4.43195e-05
0.000208335
-4.61817e-05
0.000225381
-4.78859e-05
0.000242701
-4.94218e-05
0.000260289
-5.08136e-05
0.000278119
-5.20564e-05
0.000296157
-5.31532e-05
0.00031438
-5.41201e-05
0.000332761
-5.49533e-05
0.000351279
-5.56668e-05
0.000369905
-5.62559e-05
0.000388611
-5.67276e-05
0.000407367
-5.70831e-05
0.000426141
-5.73189e-05
0.000444921
-5.74608e-05
0.000463677
-5.74895e-05
0.000482385
-5.74172e-05
0.000501014
-5.7241e-05
0.00051954
-5.69706e-05
0.000537942
-5.66013e-05
0.000556192
-5.61392e-05
0.000574268
-5.55925e-05
0.000592143
-5.49556e-05
0.0006098
-5.42333e-05
0.000627212
-5.34257e-05
0.000644354
-5.25333e-05
0.000661214
-5.15486e-05
0.000677756
-5.04686e-05
0.000693967
-4.92858e-05
0.000709818
-4.79959e-05
0.000725278
-4.65881e-05
0.000740327
-4.50594e-05
0.000754939
-4.33967e-05
0.000769083
-4.1593e-05
0.00078274
-3.96415e-05
0.000795882
-3.75233e-05
0.000808493
-3.5225e-05
0.000820563
-3.27293e-05
0.000832088
-3.0016e-05
0.000843086
-2.70637e-05
0.000853608
-2.38487e-05
0.00086376
-2.03398e-05
0.000873739
-1.65311e-05
0.000883786
-1.24207e-05
0.000893948
-8.13232e-06
0.000904209
-3.83835e-06
0.000914507
1.86692e-07
0.000924611
3.67532e-06
0.000934223
6.45255e-06
0.000943047
8.43972e-06
0.000950819
9.69034e-06
0.000957322
1.02712e-05
0.000962302
1.03518e-05
0.000965469
1.01113e-05
0.000966525
9.75871e-06
0.00096523
9.56098e-06
0.000961507
9.81893e-06
0.000955527
1.07624e-05
0.000947662
1.24515e-05
0.000938349
1.47958e-05
0.00092797
1.76272e-05
0.000916798
2.07553e-05
0.000904987
2.40133e-05
0.000892601
2.72917e-05
0.000879662
3.05407e-05
0.000866172
3.37481e-05
0.00085212
3.69229e-05
0.000837482
4.00763e-05
0.000822216
4.32297e-05
0.000806261
4.6414e-05
0.000789554
4.96371e-05
0.000772007
5.2918e-05
0.000753552
5.62338e-05
0.000734102
5.95979e-05
0.00071359
6.29874e-05
0.00069194
6.64129e-05
0.000669076
6.98824e-05
0.000644914
7.33979e-05
0.000619371
7.69492e-05
0.000592336
8.05434e-05
0.000563716
8.41381e-05
0.000533418
8.77107e-05
0.000501362
9.12147e-05
0.000467491
9.46034e-05
0.000431791
9.78307e-05
0.000394262
0.000100845
0.000354955
0.000103603
0.00031396
0.000106058
0.000271399
0.000108192
0.000227411
0.000110028
0.000182109
0.000111606
0.00013586
0.000112852
9.00706e-05
0.000112066
4.66976e-05
0.000108249
0.000116057
-1.1102e-05
3.56811e-05
-6.76664e-07
-4.38951e-05
1.67635e-05
-6.42856e-05
3.30976e-05
-5.48857e-05
4.50516e-05
-3.70623e-05
5.26139e-05
-2.2235e-05
5.73402e-05
-1.39553e-05
6.09603e-05
-1.10889e-05
6.45505e-05
-1.09093e-05
6.84229e-05
-1.11266e-05
7.23545e-05
-1.05556e-05
7.59282e-05
-8.90728e-06
7.87477e-05
-6.35898e-06
8.05396e-05
-3.2171e-06
8.10769e-05
2.85904e-07
8.03937e-05
3.86508e-06
7.84926e-05
7.33876e-06
7.54525e-05
1.05589e-05
7.14e-05
1.33946e-05
6.64942e-05
1.57324e-05
6.09153e-05
1.75036e-05
5.48672e-05
1.86784e-05
4.8533e-05
1.92457e-05
4.2089e-05
1.92229e-05
3.57053e-05
1.86473e-05
2.95404e-05
1.75679e-05
2.37262e-05
1.60268e-05
1.83657e-05
1.40829e-05
1.35604e-05
1.17897e-05
9.36336e-06
9.20215e-06
5.8175e-06
6.37485e-06
2.8989e-06
3.36897e-06
6.8132e-07
2.91696e-07
-7.26138e-07
-3.02035e-06
-1.4768e-06
-6.25407e-06
-1.52292e-06
-9.47104e-06
-8.28789e-07
-1.26235e-05
6.04241e-07
-1.56421e-05
2.87561e-06
-1.85921e-05
6.08074e-06
-2.14014e-05
1.02904e-05
-2.40827e-05
1.56019e-05
-2.66459e-05
2.20751e-05
-2.91192e-05
2.97034e-05
-3.15294e-05
3.8465e-05
-3.39079e-05
4.83225e-05
-3.62777e-05
5.92063e-05
-3.8656e-05
7.10415e-05
-4.10564e-05
8.37531e-05
-4.34889e-05
9.72522e-05
-4.59344e-05
0.000111426
-4.84164e-05
0.000126162
-5.09071e-05
0.000141365
-5.3402e-05
0.000156976
-5.58865e-05
0.000172942
-5.82991e-05
0.000189242
-6.06194e-05
0.000205874
-6.28142e-05
0.000222849
-6.48605e-05
0.000240175
-6.67477e-05
0.000257828
-6.84667e-05
0.000275789
-7.00175e-05
0.000294046
-7.14102e-05
0.000312565
-7.26387e-05
0.000331322
-7.37108e-05
0.000350281
-7.46256e-05
0.00036941
-7.53847e-05
0.000388678
-7.59953e-05
0.000408054
-7.64591e-05
0.000427521
-7.67857e-05
0.000447019
-7.6959e-05
0.000466529
-7.7e-05
0.000486017
-7.69049e-05
0.000505459
-7.66833e-05
0.000524806
-7.63178e-05
0.000544036
-7.58311e-05
0.000563116
-7.5219e-05
0.000582015
-7.44913e-05
0.000600689
-7.36296e-05
0.000619111
-7.26552e-05
0.000637247
-7.15619e-05
0.000655066
-7.03523e-05
0.00067253
-6.90123e-05
0.000689611
-6.75501e-05
0.000706283
-6.5958e-05
0.000722514
-6.42265e-05
0.000738288
-6.23623e-05
0.000753568
-6.03394e-05
0.00076834
-5.8169e-05
0.000782585
-5.58379e-05
0.000796283
-5.33393e-05
0.000809424
-5.06638e-05
0.000822002
-4.78039e-05
0.00083402
-4.47473e-05
0.000845487
-4.14826e-05
0.000856425
-3.80015e-05
0.000866874
-3.42976e-05
0.000876905
-3.03715e-05
0.000886609
-2.62342e-05
0.000896118
-2.19304e-05
0.00090552
-1.75344e-05
0.00091484
-1.31577e-05
0.000923969
-8.94268e-06
0.000932661
-5.01714e-06
0.000940591
-1.47666e-06
0.000947369
1.66102e-06
0.00095269
4.37001e-06
0.000956202
6.75903e-06
0.000957619
8.93471e-06
0.000956723
1.10075e-05
0.000953398
1.30834e-05
0.000947693
1.52661e-05
0.000939858
1.76537e-05
0.000930294
2.03263e-05
0.000919422
2.33238e-05
0.000907577
2.66408e-05
0.000894965
3.02392e-05
0.000881663
3.40577e-05
0.000867655
3.80214e-05
0.000852887
4.20592e-05
0.000837317
4.61104e-05
0.000820926
5.01395e-05
0.000803723
5.41257e-05
0.000785731
5.80687e-05
0.000766978
6.19827e-05
0.000747519
6.58728e-05
0.000727386
6.97699e-05
0.000706629
7.3675e-05
0.00068526
7.76033e-05
0.000663298
8.15594e-05
0.000640739
8.55467e-05
0.000617579
8.95728e-05
0.0005938
9.3661e-05
0.000569375
9.78229e-05
0.000544246
0.000102079
0.000518359
0.00010643
0.000491626
0.000110871
0.000463938
0.000115398
0.0004352
0.000119953
0.000405305
0.000124499
0.000374142
0.000128994
0.00034163
0.000133357
0.00030772
0.000137512
0.00027239
0.000141389
0.000235591
0.000144991
0.000197212
0.000148406
0.000157304
0.000151514
0.000116912
0.000153244
7.8578e-05
0.0001504
4.28641e-05
0.000143963
0.000158921
-1.31925e-05
4.88736e-05
-4.27067e-06
-5.28169e-05
1.29655e-05
-8.15218e-05
3.0172e-05
-7.20922e-05
4.34577e-05
-5.0348e-05
5.23106e-05
-3.10878e-05
5.81054e-05
-1.97501e-05
6.2634e-05
-1.56175e-05
6.71767e-05
-1.5452e-05
7.22069e-05
-1.61568e-05
7.75171e-05
-1.58658e-05
8.25791e-05
-1.39693e-05
8.68435e-05
-1.06233e-05
8.98977e-05
-6.2713e-06
9.15394e-05
-1.35581e-06
9.16626e-05
3.74192e-06
9.03006e-05
8.7007e-06
8.7585e-05
1.32745e-05
8.36696e-05
1.731e-05
7.87694e-05
2.06326e-05
7.30848e-05
2.31881e-05
6.6815e-05
2.49482e-05
6.01853e-05
2.58754e-05
5.3379e-05
2.60292e-05
4.65661e-05
2.54601e-05
3.99016e-05
2.42324e-05
3.3516e-05
2.24125e-05
2.75215e-05
2.00773e-05
2.20177e-05
1.72935e-05
1.70878e-05
1.4132e-05
1.27978e-05
1.06648e-05
9.21044e-06
6.95636e-06
6.43047e-06
3.07166e-06
4.35134e-06
-9.4122e-07
3.09189e-06
-4.99462e-06
2.7226e-06
-9.10175e-06
3.27325e-06
-1.31741e-05
4.80132e-06
-1.71701e-05
7.32299e-06
-2.11138e-05
1.08863e-05
-2.49648e-05
1.54863e-05
-2.86827e-05
2.11389e-05
-3.22985e-05
2.78335e-05
-3.58138e-05
3.55426e-05
-3.92385e-05
4.42346e-05
-4.25999e-05
5.38701e-05
-4.59132e-05
6.44041e-05
-4.919e-05
7.5793e-05
-5.24453e-05
8.79954e-05
-5.56913e-05
0.000100953
-5.88922e-05
0.000114614
-6.20768e-05
0.000128927
-6.522e-05
0.000143829
-6.83042e-05
0.000159249
-7.1307e-05
0.00017515
-7.42001e-05
0.000191495
-7.69642e-05
0.000208262
-7.95808e-05
0.000225429
-8.20277e-05
0.00024297
-8.42892e-05
0.000260869
-8.63654e-05
0.000279108
-8.82568e-05
0.000297656
-8.99585e-05
0.000316487
-9.14694e-05
0.000335566
-9.27899e-05
0.000354861
-9.39201e-05
0.000374345
-9.48695e-05
0.000393979
-9.56286e-05
0.00041373
-9.62107e-05
0.000433556
-9.66112e-05
0.00045343
-9.68329e-05
0.000473314
-9.6884e-05
0.000493171
-9.67623e-05
0.00051296
-9.64723e-05
0.000532653
-9.60111e-05
0.000552211
-9.53886e-05
0.000571598
-9.46059e-05
0.000590772
-9.36651e-05
0.000609706
-9.25639e-05
0.000628359
-9.13081e-05
0.000646696
-8.98988e-05
0.000664676
-8.83333e-05
0.000682278
-8.66142e-05
0.000699467
-8.47386e-05
0.000716211
-8.27019e-05
0.000732488
-8.05037e-05
0.000748269
-7.81429e-05
0.000763539
-7.56101e-05
0.00077828
-7.29096e-05
0.000792475
-7.00326e-05
0.000806112
-6.69766e-05
0.000819181
-6.37331e-05
0.000831676
-6.02983e-05
0.0008436
-5.66711e-05
0.00085496
-5.28433e-05
0.000865775
-4.88159e-05
0.000876064
-4.45873e-05
0.00088586
-4.01674e-05
0.000895206
-3.55796e-05
0.000904126
-3.08509e-05
0.000912623
-2.6031e-05
0.000920662
-2.11965e-05
0.000928139
-1.642e-05
0.000934892
-1.17705e-05
0.000940724
-7.30872e-06
0.00094543
-3.04466e-06
0.000948777
1.02341e-06
0.000950623
4.91236e-06
0.000950891
8.66644e-06
0.000949553
1.23463e-05
0.00094661
1.60258e-05
0.000942087
1.9789e-05
0.000936019
2.37217e-05
0.000928456
2.78903e-05
0.000919452
3.23271e-05
0.000909066
3.70266e-05
0.000897354
4.19512e-05
0.000884366
4.70466e-05
0.000870134
5.2253e-05
0.000854679
5.75145e-05
0.00083801
6.27786e-05
0.000820144
6.80057e-05
0.00080109
7.31801e-05
0.000780888
7.82704e-05
0.0007596
8.32708e-05
0.000737287
8.81858e-05
0.000714035
9.30222e-05
0.000689925
9.77849e-05
0.00066504
0.000102488
0.000639466
0.000107134
0.000613273
0.00011174
0.000586529
0.000116317
0.000559299
0.00012089
0.000531638
0.000125485
0.000503594
0.000130123
0.000475199
0.000134826
0.000446465
0.000139605
0.000417403
0.00014446
0.000387979
0.000149377
0.000358146
0.000154332
0.000327859
0.000159281
0.000297064
0.000164152
0.000265715
0.000168861
0.000233732
0.000173371
0.000200931
0.000177793
0.000167057
0.00018228
0.000132289
0.000186282
9.83649e-05
0.000187169
6.77075e-05
0.000181057
3.87865e-05
0.000172883
0.000197708
-1.60221e-05
6.48957e-05
-9.45929e-06
-5.93797e-05
6.83217e-06
-9.78132e-05
2.46144e-05
-8.98744e-05
3.93353e-05
-6.50689e-05
4.96638e-05
-4.14163e-05
5.6647e-05
-2.67334e-05
6.21897e-05
-2.11602e-05
6.78383e-05
-2.11005e-05
7.4216e-05
-2.25345e-05
8.10707e-05
-2.27205e-05
8.76803e-05
-2.0579e-05
9.32572e-05
-1.62002e-05
9.72065e-05
-1.02206e-05
9.91986e-05
-3.34795e-06
9.91171e-05
3.82346e-06
9.71409e-05
1.06769e-05
9.34539e-05
1.69615e-05
8.83723e-05
2.23916e-05
8.21386e-05
2.68663e-05
7.50513e-05
3.02755e-05
6.74115e-05
3.2588e-05
5.94407e-05
3.38461e-05
5.13614e-05
3.41085e-05
4.33718e-05
3.34497e-05
3.56427e-05
3.19616e-05
2.83202e-05
2.9735e-05
2.15195e-05
2.6878e-05
1.53308e-05
2.34822e-05
9.82537e-06
1.96375e-05
5.09585e-06
1.53943e-05
1.19866e-06
1.08535e-05
-1.8554e-06
6.12571e-06
-4.08733e-06
1.29071e-06
-5.36286e-06
-3.71909e-06
-5.7171e-06
-8.74751e-06
-5.09876e-06
-1.37925e-05
-3.4723e-06
-1.87966e-05
-8.55483e-07
-2.37306e-05
2.77087e-06
-2.85911e-05
7.46706e-06
-3.33789e-05
1.32481e-05
-3.80795e-05
2.00918e-05
-4.26575e-05
2.7997e-05
-4.71436e-05
3.69313e-05
-5.15343e-05
4.68446e-05
-5.58265e-05
5.77015e-05
-6.00469e-05
6.94418e-05
-6.41856e-05
8.19924e-05
-6.8242e-05
9.53126e-05
-7.22123e-05
0.000109332
-7.60958e-05
0.000123993
-7.98815e-05
0.000139245
-8.35559e-05
0.000155035
-8.70972e-05
0.000171335
-9.04998e-05
0.000188095
-9.37241e-05
0.000205286
-9.67728e-05
0.000222886
-9.96274e-05
0.000240874
-0.000102277
0.000259221
-0.000104712
0.000277899
-0.000106935
0.000296878
-0.000108937
0.000316125
-0.000110717
0.00033561
-0.000112275
0.000355303
-0.000113613
0.000375169
-0.000114735
0.000395169
-0.000115629
0.000415269
-0.00011631
0.000435433
-0.000116775
0.000455634
-0.000117034
0.000475819
-0.000117069
0.000495959
-0.000116902
0.000516017
-0.00011653
0.000535964
-0.000115958
0.000555757
-0.000115181
0.00057536
-0.000114209
0.000594743
-0.000113048
0.000613866
-0.000111688
0.000632698
-0.00011014
0.000651206
-0.000108407
0.000669358
-0.000106485
0.000687119
-0.000104376
0.000704474
-0.000102093
0.000721383
-9.96117e-05
0.000737833
-9.69531e-05
0.000753798
-9.41085e-05
0.000769267
-9.10784e-05
0.000784216
-8.78591e-05
0.000798636
-8.44523e-05
0.000812518
-8.08587e-05
0.000825854
-7.70691e-05
0.000838634
-7.30785e-05
0.000850858
-6.88953e-05
0.000862531
-6.45162e-05
0.00087366
-5.99445e-05
0.000884244
-5.51718e-05
0.000894307
-5.02304e-05
0.00090384
-4.5112e-05
0.000912847
-3.98587e-05
0.000921319
-3.4502e-05
0.000929203
-2.90811e-05
0.00093643
-2.3647e-05
0.000942898
-1.82387e-05
0.000948478
-1.28885e-05
0.00095304
-7.60654e-06
0.000956436
-2.37287e-06
0.00095857
2.77834e-06
0.000959303
7.93363e-06
0.000958532
1.31179e-05
0.00095618
1.8377e-05
0.000952213
2.3756e-05
0.000946642
2.92928e-05
0.000939516
3.5016e-05
0.000930909
4.09348e-05
0.000920892
4.7043e-05
0.000909522
5.33216e-05
0.000896834
5.97348e-05
0.00088285
6.62364e-05
0.000867576
7.27886e-05
0.000851002
7.93523e-05
0.000833133
8.58753e-05
0.000813973
9.23399e-05
0.000793527
9.87162e-05
0.000771809
0.000104989
0.000748862
0.000111132
0.000724742
0.000117142
0.000699518
0.000123009
0.000673264
0.000128742
0.000646057
0.000134341
0.000617989
0.000139808
0.00058915
0.000145157
0.000559637
0.000150403
0.000529554
0.000155567
0.000499003
0.000160673
0.000468089
0.00016574
0.000436908
0.000170786
0.000405545
0.000175823
0.000374069
0.000180853
0.000342534
0.000185867
0.00031098
0.000190835
0.000279437
0.000195695
0.000247917
0.000200381
0.000216365
0.000204922
0.000184623
0.000209535
0.000152502
0.000214401
0.00012037
0.000218414
8.99046e-05
0.000217634
6.27126e-05
0.000208249
3.64102e-05
0.000199186
0.000234118
-1.96526e-05
8.45483e-05
-1.70437e-05
-6.19886e-05
-3.71955e-06
-0.000111137
1.37275e-05
-0.000107322
3.00667e-05
-8.1408e-05
4.27475e-05
-5.40971e-05
5.21298e-05
-3.61158e-05
6e-05
-2.90304e-05
6.80594e-05
-2.91599e-05
7.70382e-05
-3.15133e-05
8.66116e-05
-3.2294e-05
9.57802e-05
-2.97475e-05
0.000103407
-2.38271e-05
0.000108621
-1.54347e-05
0.000110971
-5.69803e-06
0.000110432
4.36266e-06
0.000107278
1.38306e-05
0.000101954
2.22862e-05
9.48741e-05
2.94711e-05
8.65207e-05
3.52197e-05
7.72803e-05
3.95158e-05
6.7505e-05
4.23633e-05
5.75183e-05
4.38328e-05
4.76051e-05
4.40217e-05
3.79737e-05
4.30812e-05
2.87943e-05
4.11409e-05
2.02081e-05
3.83212e-05
1.23404e-05
3.47458e-05
5.27079e-06
3.05517e-05
-8.72346e-07
2.57806e-05
-6.16241e-06
2.06844e-05
-1.05279e-05
1.52191e-05
-1.39008e-05
9.49861e-06
-1.62072e-05
3.59704e-06
-1.75152e-05
-2.41105e-06
-1.77947e-05
-8.46801e-06
-1.70515e-05
-1.45357e-05
-1.51991e-05
-2.0649e-05
-1.22833e-05
-2.66464e-05
-8.26466e-06
-3.26098e-05
-3.19833e-06
-3.84452e-05
2.89918e-06
-4.4177e-05
1.0058e-05
-4.98163e-05
1.82596e-05
-5.53452e-05
2.74492e-05
-6.07238e-05
3.76022e-05
-6.59796e-05
4.86694e-05
-7.11141e-05
6.05961e-05
-7.61123e-05
7.3348e-05
-8.09939e-05
8.68741e-05
-8.57384e-05
0.000101122
-9.03437e-05
0.00011604
-9.47993e-05
0.000131578
-9.90943e-05
0.000147695
-0.000103214
0.000164338
-0.000107143
0.000181481
-0.000110867
0.000199085
-0.000114376
0.000217117
-0.000117659
0.000235542
-0.000120702
0.000254336
-0.000123507
0.000273461
-0.00012606
0.000292887
-0.000128363
0.000312579
-0.000130408
0.000332504
-0.0001322
0.000352629
-0.000133738
0.000372912
-0.000135019
0.000393327
-0.000136043
0.000413831
-0.000136815
0.000434391
-0.000137336
0.000454966
-0.000137609
0.000475526
-0.000137629
0.000496031
-0.000137408
0.000516446
-0.000136945
0.000536736
-0.000136247
0.000556865
-0.000135311
0.000576798
-0.000134142
0.000596509
-0.000132758
0.000615952
-0.000131132
0.000635104
-0.000129291
0.000653934
-0.000127237
0.000672408
-0.000124959
0.000690504
-0.000122472
0.000708191
-0.00011978
0.00072545
-0.00011687
0.000742257
-0.00011376
0.000758593
-0.000110444
0.00077444
-0.000106926
0.000789783
-0.000103203
0.000804619
-9.92883e-05
0.000818917
-9.51562e-05
0.000832677
-9.08297e-05
0.000845899
-8.63004e-05
0.000858574
-8.15697e-05
0.000870698
-7.66401e-05
0.000882264
-7.15104e-05
0.00089328
-6.6188e-05
0.00090373
-6.06808e-05
0.000913616
-5.4998e-05
0.000922917
-4.91596e-05
0.000931601
-4.31861e-05
0.00093962
-3.70997e-05
0.000946901
-3.0928e-05
0.000953357
-2.46946e-05
0.000958889
-1.84209e-05
0.000963387
-1.21046e-05
0.000966758
-5.74353e-06
0.000968864
6.71577e-07
0.000969633
7.16508e-06
0.000969006
1.37454e-05
0.000966937
2.04457e-05
0.000963398
2.72947e-05
0.000958377
3.43143e-05
0.00095188
4.15125e-05
0.00094392
4.8895e-05
0.000934515
5.64479e-05
0.000923688
6.41487e-05
0.000911468
7.19553e-05
0.00089786
7.98439e-05
0.000882886
8.77625e-05
0.00086657
9.56684e-05
0.000848905
0.000103541
0.000829912
0.000111333
0.000809609
0.000119019
0.000788022
0.000126576
0.000765177
0.000133977
0.000741104
0.000141216
0.000715843
0.000148271
0.000689448
0.000155136
0.000661984
0.000161805
0.000633515
0.000168276
0.000604122
0.00017455
0.00057389
0.000180635
0.000542916
0.000186541
0.000511308
0.000192281
0.000479179
0.000197868
0.00044665
0.000203315
0.000413836
0.000208637
0.000380853
0.000213836
0.000347808
0.000218912
0.000314796
0.000223847
0.000281902
0.00022859
0.000249193
0.00023309
0.000216694
0.000237421
0.000184356
0.000241873
0.000152131
0.000246626
0.000120325
0.00025022
8.99915e-05
0.000247967
6.23085e-05
0.000235932
3.55379e-05
0.000225956
0.000269656
-2.46175e-05
0.000109166
-2.89112e-05
-5.76948e-05
-2.08899e-05
-0.000119159
-4.67628e-06
-0.000123535
1.25323e-05
-9.86166e-05
2.75817e-05
-6.91465e-05
4.05684e-05
-4.91025e-05
5.2959e-05
-4.14209e-05
6.59626e-05
-4.21636e-05
7.9991e-05
-4.55417e-05
9.4424e-05
-4.6727e-05
0.000107875
-4.31981e-05
0.000118779
-3.47315e-05
0.000125921
-2.25768e-05
0.000128774
-8.55135e-06
0.000127454
5.68289e-06
0.00012264
1.86449e-05
0.000114971
2.99556e-05
0.000105224
3.92178e-05
9.4001e-05
4.64425e-05
8.19173e-05
5.15995e-05
6.94687e-05
5.4812e-05
5.7017e-05
5.62845e-05
4.48512e-05
5.61875e-05
3.32441e-05
5.46883e-05
2.23686e-05
5.20164e-05
1.23463e-05
4.83434e-05
3.28781e-06
4.38043e-05
-4.70911e-06
3.85486e-05
-1.17056e-05
3.27772e-05
-1.75698e-05
2.65486e-05
-2.23509e-05
2.00002e-05
-2.59829e-05
1.31306e-05
-2.85145e-05
6.12873e-06
-2.99016e-05
-1.02397e-06
-3.01482e-05
-8.22144e-06
-2.92437e-05
-1.54402e-05
-2.72655e-05
-2.26273e-05
-2.415e-05
-2.97618e-05
-1.99826e-05
-3.67772e-05
-1.47082e-05
-4.37196e-05
-8.35185e-06
-5.05333e-05
-9.5463e-07
-5.72136e-05
7.423e-06
-6.37228e-05
1.68286e-05
-7.01294e-05
2.71995e-05
-7.63505e-05
3.84927e-05
-8.24072e-05
5.06737e-05
-8.82933e-05
6.36839e-05
-9.40042e-05
7.74768e-05
-9.95313e-05
9.20049e-05
-0.000104872
0.000107225
-0.00011002
0.000123092
-0.000114961
0.000139551
-0.000119673
0.000156569
-0.000124161
0.000174108
-0.000128406
0.000192123
-0.000132391
0.000210582
-0.000136119
0.000229457
-0.000139577
0.000248704
-0.000142753
0.000268291
-0.000145647
0.000288184
-0.000148256
0.000308352
-0.000150576
0.000328752
-0.0001526
0.000349348
-0.000154334
0.000370107
-0.000155777
0.000390992
-0.000156928
0.000411964
-0.000157787
0.000432986
-0.000158358
0.000454024
-0.000158647
0.000475042
-0.000158647
0.000496
-0.000158365
0.000516864
-0.000157809
0.000537598
-0.000156982
0.000558168
-0.00015588
0.00057854
-0.000154515
0.000598684
-0.000152902
0.000618559
-0.000151006
0.000638139
-0.000148871
0.0006574
-0.000146499
0.000676301
-0.00014386
0.000694823
-0.000140993
0.000712937
-0.000137894
0.000730624
-0.000134557
0.000747861
-0.000130998
0.00076463
-0.000127213
0.000780912
-0.000123208
0.000796693
-0.000118983
0.000811949
-0.000114545
0.000826684
-0.000109891
0.000840881
-0.000105027
0.000854541
-9.99602e-05
0.00086765
-9.46788e-05
0.000880193
-8.91838e-05
0.000892171
-8.34879e-05
0.000903577
-7.75942e-05
0.000914403
-7.15062e-05
0.000924623
-6.52181e-05
0.000934219
-5.87559e-05
0.000943149
-5.21164e-05
0.000951373
-4.53238e-05
0.00095882
-3.83744e-05
0.000965419
-3.12937e-05
0.000971076
-2.40783e-05
0.000975703
-1.67314e-05
0.000979207
-9.24795e-06
0.000981495
-1.61584e-06
0.000982498
6.16226e-06
0.000982129
1.41136e-05
0.000980332
2.22434e-05
0.000977068
3.05582e-05
0.000972318
3.90648e-05
0.00096607
4.77605e-05
0.000958339
5.66257e-05
0.000949139
6.56475e-05
0.000938495
7.47935e-05
0.000926412
8.40381e-05
0.00091293
9.33263e-05
0.000898059
0.000102633
0.000881807
0.00011192
0.000864216
0.000121132
0.000845294
0.000130254
0.000825063
0.00013925
0.000803558
0.00014808
0.000780802
0.000156734
0.000756826
0.000165192
0.000731679
0.000173417
0.000705401
0.000181414
0.000678041
0.000189166
0.000649652
0.000196665
0.000620297
0.000203906
0.000590044
0.000210888
0.000558973
0.000217612
0.000527171
0.000224083
0.000494735
0.000230304
0.000461768
0.000236282
0.000428384
0.000242021
0.000394693
0.000247527
0.000360808
0.000252797
0.000326839
0.000257816
0.000292884
0.000262544
0.000259034
0.00026694
0.000225374
0.000271081
0.000191946
0.000275301
0.000158753
0.000279819
0.000125893
0.00028308