/*--------------------------------*- C++ -*----------------------------------*\
| =========                 |                                                 |
| \\      /  F ield         | OpenFOAM: The Open Source CFD Toolbox           |
|  \\    /   O peration     | Version:  v2006                                 |
|   \\  /    A nd           | Website:  www.openfoam.com                      |
|    \\/     M anipulation  |                                                 |
\*---------------------------------------------------------------------------*/
FoamFile
{
    version     2.0;
    format      ascii;
    class       volVectorField;
    location    "0";
    object      U_new;
}
// * * * * * * * * * * * * * * * * * * * * * * * * * * * * * * * * * * * * * //

dimensions      [0 1 -1 0 0 0 0];


internalField   nonuniform List<vector> 
2500
(
(0.000176 -0.003872 0)
(0.000176 -0.011616 0)
(0.000176 -0.01936 0)
(0.000176 -0.027104 0)
(0.000176 -0.034848 0)
(0.000176 -0.042592 0)
(0.000176 -0.050336 0)
(0.000176 -0.05808 0)
(0.000176 -0.065824 0)
(0.000176 -0.073568 0)
(0.000176 -0.081312 0)
(0.000176 -0.089056 0)
(0.000176 -0.0968 0)
(0.000176 -0.104544 0)
(0.000176 -0.112288 0)
(0.000176 -0.120032 0)
(0.000176 -0.127776 0)
(0.000176 -0.13552 0)
(0.000176 -0.143264 0)
(0.000176 -0.151008 0)
(0.000176 -0.158752 0)
(0.000176 -0.166496 0)
(0.000176 -0.17424 0)
(0.000176 -0.181984 0)
(0.000176 -0.189728 0)
(0.000176 -0.197472 0)
(0.000176 -0.205216 0)
(0.000176 -0.21296 0)
(0.000176 -0.220704 0)
(0.000176 -0.228448 0)
(0.000176 -0.236192 0)
(0.000176 -0.243936 0)
(0.000176 -0.25168 0)
(0.000176 -0.259424 0)
(0.000176 -0.267168 0)
(0.000176 -0.274912 0)
(0.000176 -0.282656 0)
(0.000176 -0.2904 0)
(0.000176 -0.298144 0)
(0.000176 -0.305888 0)
(0.000176 -0.313632 0)
(0.000176 -0.321376 0)
(0.000176 -0.32912 0)
(0.000176 -0.336864 0)
(0.000176 -0.344608 0)
(0.000176 -0.352352 0)
(0.000176 -0.360096 0)
(0.000176 -0.36784 0)
(0.000176 -0.375584 0)
(0.000176 -0.383328 0)
(0.001584 -0.003872 0)
(0.001584 -0.011616 0)
(0.001584 -0.01936 0)
(0.001584 -0.027104 0)
(0.001584 -0.034848 0)
(0.001584 -0.042592 0)
(0.001584 -0.050336 0)
(0.001584 -0.05808 0)
(0.001584 -0.065824 0)
(0.001584 -0.073568 0)
(0.001584 -0.081312 0)
(0.001584 -0.089056 0)
(0.001584 -0.0968 0)
(0.001584 -0.104544 0)
(0.001584 -0.112288 0)
(0.001584 -0.120032 0)
(0.001584 -0.127776 0)
(0.001584 -0.13552 0)
(0.001584 -0.143264 0)
(0.001584 -0.151008 0)
(0.001584 -0.158752 0)
(0.001584 -0.166496 0)
(0.001584 -0.17424 0)
(0.001584 -0.181984 0)
(0.001584 -0.189728 0)
(0.001584 -0.197472 0)
(0.001584 -0.205216 0)
(0.001584 -0.21296 0)
(0.001584 -0.220704 0)
(0.001584 -0.228448 0)
(0.001584 -0.236192 0)
(0.001584 -0.243936 0)
(0.001584 -0.25168 0)
(0.001584 -0.259424 0)
(0.001584 -0.267168 0)
(0.001584 -0.274912 0)
(0.001584 -0.282656 0)
(0.001584 -0.2904 0)
(0.001584 -0.298144 0)
(0.001584 -0.305888 0)
(0.001584 -0.313632 0)
(0.001584 -0.321376 0)
(0.001584 -0.32912 0)
(0.001584 -0.336864 0)
(0.001584 -0.344608 0)
(0.001584 -0.352352 0)
(0.001584 -0.360096 0)
(0.001584 -0.36784 0)
(0.001584 -0.375584 0)
(0.001584 -0.383328 0)
(0.0044 -0.003872 0)
(0.0044 -0.011616 0)
(0.0044 -0.01936 0)
(0.0044 -0.027104 0)
(0.0044 -0.034848 0)
(0.0044 -0.042592 0)
(0.0044 -0.050336 0)
(0.0044 -0.05808 0)
(0.0044 -0.065824 0)
(0.0044 -0.073568 0)
(0.0044 -0.081312 0)
(0.0044 -0.089056 0)
(0.0044 -0.0968 0)
(0.0044 -0.104544 0)
(0.0044 -0.112288 0)
(0.0044 -0.120032 0)
(0.0044 -0.127776 0)
(0.0044 -0.13552 0)
(0.0044 -0.143264 0)
(0.0044 -0.151008 0)
(0.0044 -0.158752 0)
(0.0044 -0.166496 0)
(0.0044 -0.17424 0)
(0.0044 -0.181984 0)
(0.0044 -0.189728 0)
(0.0044 -0.197472 0)
(0.0044 -0.205216 0)
(0.0044 -0.21296 0)
(0.0044 -0.220704 0)
(0.0044 -0.228448 0)
(0.0044 -0.236192 0)
(0.0044 -0.243936 0)
(0.0044 -0.25168 0)
(0.0044 -0.259424 0)
(0.0044 -0.267168 0)
(0.0044 -0.274912 0)
(0.0044 -0.282656 0)
(0.0044 -0.2904 0)
(0.0044 -0.298144 0)
(0.0044 -0.305888 0)
(0.0044 -0.313632 0)
(0.0044 -0.321376 0)
(0.0044 -0.32912 0)
(0.0044 -0.336864 0)
(0.0044 -0.344608 0)
(0.0044 -0.352352 0)
(0.0044 -0.360096 0)
(0.0044 -0.36784 0)
(0.0044 -0.375584 0)
(0.0044 -0.383328 0)
(0.008624 -0.003872 0)
(0.008624 -0.011616 0)
(0.008624 -0.01936 0)
(0.008624 -0.027104 0)
(0.008624 -0.034848 0)
(0.008624 -0.042592 0)
(0.008624 -0.050336 0)
(0.008624 -0.05808 0)
(0.008624 -0.065824 0)
(0.008624 -0.073568 0)
(0.008624 -0.081312 0)
(0.008624 -0.089056 0)
(0.008624 -0.0968 0)
(0.008624 -0.104544 0)
(0.008624 -0.112288 0)
(0.008624 -0.120032 0)
(0.008624 -0.127776 0)
(0.008624 -0.13552 0)
(0.008624 -0.143264 0)
(0.008624 -0.151008 0)
(0.008624 -0.158752 0)
(0.008624 -0.166496 0)
(0.008624 -0.17424 0)
(0.008624 -0.181984 0)
(0.008624 -0.189728 0)
(0.008624 -0.197472 0)
(0.008624 -0.205216 0)
(0.008624 -0.21296 0)
(0.008624 -0.220704 0)
(0.008624 -0.228448 0)
(0.008624 -0.236192 0)
(0.008624 -0.243936 0)
(0.008624 -0.25168 0)
(0.008624 -0.259424 0)
(0.008624 -0.267168 0)
(0.008624 -0.274912 0)
(0.008624 -0.282656 0)
(0.008624 -0.2904 0)
(0.008624 -0.298144 0)
(0.008624 -0.305888 0)
(0.008624 -0.313632 0)
(0.008624 -0.321376 0)
(0.008624 -0.32912 0)
(0.008624 -0.336864 0)
(0.008624 -0.344608 0)
(0.008624 -0.352352 0)
(0.008624 -0.360096 0)
(0.008624 -0.36784 0)
(0.008624 -0.375584 0)
(0.008624 -0.383328 0)
(0.014256 -0.003872 0)
(0.014256 -0.011616 0)
(0.014256 -0.01936 0)
(0.014256 -0.027104 0)
(0.014256 -0.034848 0)
(0.014256 -0.042592 0)
(0.014256 -0.050336 0)
(0.014256 -0.05808 0)
(0.014256 -0.065824 0)
(0.014256 -0.073568 0)
(0.014256 -0.081312 0)
(0.014256 -0.089056 0)
(0.014256 -0.0968 0)
(0.014256 -0.104544 0)
(0.014256 -0.112288 0)
(0.014256 -0.120032 0)
(0.014256 -0.127776 0)
(0.014256 -0.13552 0)
(0.014256 -0.143264 0)
(0.014256 -0.151008 0)
(0.014256 -0.158752 0)
(0.014256 -0.166496 0)
(0.014256 -0.17424 0)
(0.014256 -0.181984 0)
(0.014256 -0.189728 0)
(0.014256 -0.197472 0)
(0.014256 -0.205216 0)
(0.014256 -0.21296 0)
(0.014256 -0.220704 0)
(0.014256 -0.228448 0)
(0.014256 -0.236192 0)
(0.014256 -0.243936 0)
(0.014256 -0.25168 0)
(0.014256 -0.259424 0)
(0.014256 -0.267168 0)
(0.014256 -0.274912 0)
(0.014256 -0.282656 0)
(0.014256 -0.2904 0)
(0.014256 -0.298144 0)
(0.014256 -0.305888 0)
(0.014256 -0.313632 0)
(0.014256 -0.321376 0)
(0.014256 -0.32912 0)
(0.014256 -0.336864 0)
(0.014256 -0.344608 0)
(0.014256 -0.352352 0)
(0.014256 -0.360096 0)
(0.014256 -0.36784 0)
(0.014256 -0.375584 0)
(0.014256 -0.383328 0)
(0.021296 -0.003872 0)
(0.021296 -0.011616 0)
(0.021296 -0.01936 0)
(0.021296 -0.027104 0)
(0.021296 -0.034848 0)
(0.021296 -0.042592 0)
(0.021296 -0.050336 0)
(0.021296 -0.05808 0)
(0.021296 -0.065824 0)
(0.021296 -0.073568 0)
(0.021296 -0.081312 0)
(0.021296 -0.089056 0)
(0.021296 -0.0968 0)
(0.021296 -0.104544 0)
(0.021296 -0.112288 0)
(0.021296 -0.120032 0)
(0.021296 -0.127776 0)
(0.021296 -0.13552 0)
(0.021296 -0.143264 0)
(0.021296 -0.151008 0)
(0.021296 -0.158752 0)
(0.021296 -0.166496 0)
(0.021296 -0.17424 0)
(0.021296 -0.181984 0)
(0.021296 -0.189728 0)
(0.021296 -0.197472 0)
(0.021296 -0.205216 0)
(0.021296 -0.21296 0)
(0.021296 -0.220704 0)
(0.021296 -0.228448 0)
(0.021296 -0.236192 0)
(0.021296 -0.243936 0)
(0.021296 -0.25168 0)
(0.021296 -0.259424 0)
(0.021296 -0.267168 0)
(0.021296 -0.274912 0)
(0.021296 -0.282656 0)
(0.021296 -0.2904 0)
(0.021296 -0.298144 0)
(0.021296 -0.305888 0)
(0.021296 -0.313632 0)
(0.021296 -0.321376 0)
(0.021296 -0.32912 0)
(0.021296 -0.336864 0)
(0.021296 -0.344608 0)
(0.021296 -0.352352 0)
(0.021296 -0.360096 0)
(0.021296 -0.36784 0)
(0.021296 -0.375584 0)
(0.021296 -0.383328 0)
(0.029744 -0.003872 0)
(0.029744 -0.011616 0)
(0.029744 -0.01936 0)
(0.029744 -0.027104 0)
(0.029744 -0.034848 0)
(0.029744 -0.042592 0)
(0.029744 -0.050336 0)
(0.029744 -0.05808 0)
(0.029744 -0.065824 0)
(0.029744 -0.073568 0)
(0.029744 -0.081312 0)
(0.029744 -0.089056 0)
(0.029744 -0.0968 0)
(0.029744 -0.104544 0)
(0.029744 -0.112288 0)
(0.029744 -0.120032 0)
(0.029744 -0.127776 0)
(0.029744 -0.13552 0)
(0.029744 -0.143264 0)
(0.029744 -0.151008 0)
(0.029744 -0.158752 0)
(0.029744 -0.166496 0)
(0.029744 -0.17424 0)
(0.029744 -0.181984 0)
(0.029744 -0.189728 0)
(0.029744 -0.197472 0)
(0.029744 -0.205216 0)
(0.029744 -0.21296 0)
(0.029744 -0.220704 0)
(0.029744 -0.228448 0)
(0.029744 -0.236192 0)
(0.029744 -0.243936 0)
(0.029744 -0.25168 0)
(0.029744 -0.259424 0)
(0.029744 -0.267168 0)
(0.029744 -0.274912 0)
(0.029744 -0.282656 0)
(0.029744 -0.2904 0)
(0.029744 -0.298144 0)
(0.029744 -0.305888 0)
(0.029744 -0.313632 0)
(0.029744 -0.321376 0)
(0.029744 -0.32912 0)
(0.029744 -0.336864 0)
(0.029744 -0.344608 0)
(0.029744 -0.352352 0)
(0.029744 -0.360096 0)
(0.029744 -0.36784 0)
(0.029744 -0.375584 0)
(0.029744 -0.383328 0)
(0.0396 -0.003872 0)
(0.0396 -0.011616 0)
(0.0396 -0.01936 0)
(0.0396 -0.027104 0)
(0.0396 -0.034848 0)
(0.0396 -0.042592 0)
(0.0396 -0.050336 0)
(0.0396 -0.05808 0)
(0.0396 -0.065824 0)
(0.0396 -0.073568 0)
(0.0396 -0.081312 0)
(0.0396 -0.089056 0)
(0.0396 -0.0968 0)
(0.0396 -0.104544 0)
(0.0396 -0.112288 0)
(0.0396 -0.120032 0)
(0.0396 -0.127776 0)
(0.0396 -0.13552 0)
(0.0396 -0.143264 0)
(0.0396 -0.151008 0)
(0.0396 -0.158752 0)
(0.0396 -0.166496 0)
(0.0396 -0.17424 0)
(0.0396 -0.181984 0)
(0.0396 -0.189728 0)
(0.0396 -0.197472 0)
(0.0396 -0.205216 0)
(0.0396 -0.21296 0)
(0.0396 -0.220704 0)
(0.0396 -0.228448 0)
(0.0396 -0.236192 0)
(0.0396 -0.243936 0)
(0.0396 -0.25168 0)
(0.0396 -0.259424 0)
(0.0396 -0.267168 0)
(0.0396 -0.274912 0)
(0.0396 -0.282656 0)
(0.0396 -0.2904 0)
(0.0396 -0.298144 0)
(0.0396 -0.305888 0)
(0.0396 -0.313632 0)
(0.0396 -0.321376 0)
(0.0396 -0.32912 0)
(0.0396 -0.336864 0)
(0.0396 -0.344608 0)
(0.0396 -0.352352 0)
(0.0396 -0.360096 0)
(0.0396 -0.36784 0)
(0.0396 -0.375584 0)
(0.0396 -0.383328 0)
(0.050864 -0.003872 0)
(0.050864 -0.011616 0)
(0.050864 -0.01936 0)
(0.050864 -0.027104 0)
(0.050864 -0.034848 0)
(0.050864 -0.042592 0)
(0.050864 -0.050336 0)
(0.050864 -0.05808 0)
(0.050864 -0.065824 0)
(0.050864 -0.073568 0)
(0.050864 -0.081312 0)
(0.050864 -0.089056 0)
(0.050864 -0.0968 0)
(0.050864 -0.104544 0)
(0.050864 -0.112288 0)
(0.050864 -0.120032 0)
(0.050864 -0.127776 0)
(0.050864 -0.13552 0)
(0.050864 -0.143264 0)
(0.050864 -0.151008 0)
(0.050864 -0.158752 0)
(0.050864 -0.166496 0)
(0.050864 -0.17424 0)
(0.050864 -0.181984 0)
(0.050864 -0.189728 0)
(0.050864 -0.197472 0)
(0.050864 -0.205216 0)
(0.050864 -0.21296 0)
(0.050864 -0.220704 0)
(0.050864 -0.228448 0)
(0.050864 -0.236192 0)
(0.050864 -0.243936 0)
(0.050864 -0.25168 0)
(0.050864 -0.259424 0)
(0.050864 -0.267168 0)
(0.050864 -0.274912 0)
(0.050864 -0.282656 0)
(0.050864 -0.2904 0)
(0.050864 -0.298144 0)
(0.050864 -0.305888 0)
(0.050864 -0.313632 0)
(0.050864 -0.321376 0)
(0.050864 -0.32912 0)
(0.050864 -0.336864 0)
(0.050864 -0.344608 0)
(0.050864 -0.352352 0)
(0.050864 -0.360096 0)
(0.050864 -0.36784 0)
(0.050864 -0.375584 0)
(0.050864 -0.383328 0)
(0.063536 -0.003872 0)
(0.063536 -0.011616 0)
(0.063536 -0.01936 0)
(0.063536 -0.027104 0)
(0.063536 -0.034848 0)
(0.063536 -0.042592 0)
(0.063536 -0.050336 0)
(0.063536 -0.05808 0)
(0.063536 -0.065824 0)
(0.063536 -0.073568 0)
(0.063536 -0.081312 0)
(0.063536 -0.089056 0)
(0.063536 -0.0968 0)
(0.063536 -0.104544 0)
(0.063536 -0.112288 0)
(0.063536 -0.120032 0)
(0.063536 -0.127776 0)
(0.063536 -0.13552 0)
(0.063536 -0.143264 0)
(0.063536 -0.151008 0)
(0.063536 -0.158752 0)
(0.063536 -0.166496 0)
(0.063536 -0.17424 0)
(0.063536 -0.181984 0)
(0.063536 -0.189728 0)
(0.063536 -0.197472 0)
(0.063536 -0.205216 0)
(0.063536 -0.21296 0)
(0.063536 -0.220704 0)
(0.063536 -0.228448 0)
(0.063536 -0.236192 0)
(0.063536 -0.243936 0)
(0.063536 -0.25168 0)
(0.063536 -0.259424 0)
(0.063536 -0.267168 0)
(0.063536 -0.274912 0)
(0.063536 -0.282656 0)
(0.063536 -0.2904 0)
(0.063536 -0.298144 0)
(0.063536 -0.305888 0)
(0.063536 -0.313632 0)
(0.063536 -0.321376 0)
(0.063536 -0.32912 0)
(0.063536 -0.336864 0)
(0.063536 -0.344608 0)
(0.063536 -0.352352 0)
(0.063536 -0.360096 0)
(0.063536 -0.36784 0)
(0.063536 -0.375584 0)
(0.063536 -0.383328 0)
(0.077616 -0.003872 0)
(0.077616 -0.011616 0)
(0.077616 -0.01936 0)
(0.077616 -0.027104 0)
(0.077616 -0.034848 0)
(0.077616 -0.042592 0)
(0.077616 -0.050336 0)
(0.077616 -0.05808 0)
(0.077616 -0.065824 0)
(0.077616 -0.073568 0)
(0.077616 -0.081312 0)
(0.077616 -0.089056 0)
(0.077616 -0.0968 0)
(0.077616 -0.104544 0)
(0.077616 -0.112288 0)
(0.077616 -0.120032 0)
(0.077616 -0.127776 0)
(0.077616 -0.13552 0)
(0.077616 -0.143264 0)
(0.077616 -0.151008 0)
(0.077616 -0.158752 0)
(0.077616 -0.166496 0)
(0.077616 -0.17424 0)
(0.077616 -0.181984 0)
(0.077616 -0.189728 0)
(0.077616 -0.197472 0)
(0.077616 -0.205216 0)
(0.077616 -0.21296 0)
(0.077616 -0.220704 0)
(0.077616 -0.228448 0)
(0.077616 -0.236192 0)
(0.077616 -0.243936 0)
(0.077616 -0.25168 0)
(0.077616 -0.259424 0)
(0.077616 -0.267168 0)
(0.077616 -0.274912 0)
(0.077616 -0.282656 0)
(0.077616 -0.2904 0)
(0.077616 -0.298144 0)
(0.077616 -0.305888 0)
(0.077616 -0.313632 0)
(0.077616 -0.321376 0)
(0.077616 -0.32912 0)
(0.077616 -0.336864 0)
(0.077616 -0.344608 0)
(0.077616 -0.352352 0)
(0.077616 -0.360096 0)
(0.077616 -0.36784 0)
(0.077616 -0.375584 0)
(0.077616 -0.383328 0)
(0.093104 -0.003872 0)
(0.093104 -0.011616 0)
(0.093104 -0.01936 0)
(0.093104 -0.027104 0)
(0.093104 -0.034848 0)
(0.093104 -0.042592 0)
(0.093104 -0.050336 0)
(0.093104 -0.05808 0)
(0.093104 -0.065824 0)
(0.093104 -0.073568 0)
(0.093104 -0.081312 0)
(0.093104 -0.089056 0)
(0.093104 -0.0968 0)
(0.093104 -0.104544 0)
(0.093104 -0.112288 0)
(0.093104 -0.120032 0)
(0.093104 -0.127776 0)
(0.093104 -0.13552 0)
(0.093104 -0.143264 0)
(0.093104 -0.151008 0)
(0.093104 -0.158752 0)
(0.093104 -0.166496 0)
(0.093104 -0.17424 0)
(0.093104 -0.181984 0)
(0.093104 -0.189728 0)
(0.093104 -0.197472 0)
(0.093104 -0.205216 0)
(0.093104 -0.21296 0)
(0.093104 -0.220704 0)
(0.093104 -0.228448 0)
(0.093104 -0.236192 0)
(0.093104 -0.243936 0)
(0.093104 -0.25168 0)
(0.093104 -0.259424 0)
(0.093104 -0.267168 0)
(0.093104 -0.274912 0)
(0.093104 -0.282656 0)
(0.093104 -0.2904 0)
(0.093104 -0.298144 0)
(0.093104 -0.305888 0)
(0.093104 -0.313632 0)
(0.093104 -0.321376 0)
(0.093104 -0.32912 0)
(0.093104 -0.336864 0)
(0.093104 -0.344608 0)
(0.093104 -0.352352 0)
(0.093104 -0.360096 0)
(0.093104 -0.36784 0)
(0.093104 -0.375584 0)
(0.093104 -0.383328 0)
(0.11 -0.003872 0)
(0.11 -0.011616 0)
(0.11 -0.01936 0)
(0.11 -0.027104 0)
(0.11 -0.034848 0)
(0.11 -0.042592 0)
(0.11 -0.050336 0)
(0.11 -0.05808 0)
(0.11 -0.065824 0)
(0.11 -0.073568 0)
(0.11 -0.081312 0)
(0.11 -0.089056 0)
(0.11 -0.0968 0)
(0.11 -0.104544 0)
(0.11 -0.112288 0)
(0.11 -0.120032 0)
(0.11 -0.127776 0)
(0.11 -0.13552 0)
(0.11 -0.143264 0)
(0.11 -0.151008 0)
(0.11 -0.158752 0)
(0.11 -0.166496 0)
(0.11 -0.17424 0)
(0.11 -0.181984 0)
(0.11 -0.189728 0)
(0.11 -0.197472 0)
(0.11 -0.205216 0)
(0.11 -0.21296 0)
(0.11 -0.220704 0)
(0.11 -0.228448 0)
(0.11 -0.236192 0)
(0.11 -0.243936 0)
(0.11 -0.25168 0)
(0.11 -0.259424 0)
(0.11 -0.267168 0)
(0.11 -0.274912 0)
(0.11 -0.282656 0)
(0.11 -0.2904 0)
(0.11 -0.298144 0)
(0.11 -0.305888 0)
(0.11 -0.313632 0)
(0.11 -0.321376 0)
(0.11 -0.32912 0)
(0.11 -0.336864 0)
(0.11 -0.344608 0)
(0.11 -0.352352 0)
(0.11 -0.360096 0)
(0.11 -0.36784 0)
(0.11 -0.375584 0)
(0.11 -0.383328 0)
(0.128304 -0.003872 0)
(0.128304 -0.011616 0)
(0.128304 -0.01936 0)
(0.128304 -0.027104 0)
(0.128304 -0.034848 0)
(0.128304 -0.042592 0)
(0.128304 -0.050336 0)
(0.128304 -0.05808 0)
(0.128304 -0.065824 0)
(0.128304 -0.073568 0)
(0.128304 -0.081312 0)
(0.128304 -0.089056 0)
(0.128304 -0.0968 0)
(0.128304 -0.104544 0)
(0.128304 -0.112288 0)
(0.128304 -0.120032 0)
(0.128304 -0.127776 0)
(0.128304 -0.13552 0)
(0.128304 -0.143264 0)
(0.128304 -0.151008 0)
(0.128304 -0.158752 0)
(0.128304 -0.166496 0)
(0.128304 -0.17424 0)
(0.128304 -0.181984 0)
(0.128304 -0.189728 0)
(0.128304 -0.197472 0)
(0.128304 -0.205216 0)
(0.128304 -0.21296 0)
(0.128304 -0.220704 0)
(0.128304 -0.228448 0)
(0.128304 -0.236192 0)
(0.128304 -0.243936 0)
(0.128304 -0.25168 0)
(0.128304 -0.259424 0)
(0.128304 -0.267168 0)
(0.128304 -0.274912 0)
(0.128304 -0.282656 0)
(0.128304 -0.2904 0)
(0.128304 -0.298144 0)
(0.128304 -0.305888 0)
(0.128304 -0.313632 0)
(0.128304 -0.321376 0)
(0.128304 -0.32912 0)
(0.128304 -0.336864 0)
(0.128304 -0.344608 0)
(0.128304 -0.352352 0)
(0.128304 -0.360096 0)
(0.128304 -0.36784 0)
(0.128304 -0.375584 0)
(0.128304 -0.383328 0)
(0.148016 -0.003872 0)
(0.148016 -0.011616 0)
(0.148016 -0.01936 0)
(0.148016 -0.027104 0)
(0.148016 -0.034848 0)
(0.148016 -0.042592 0)
(0.148016 -0.050336 0)
(0.148016 -0.05808 0)
(0.148016 -0.065824 0)
(0.148016 -0.073568 0)
(0.148016 -0.081312 0)
(0.148016 -0.089056 0)
(0.148016 -0.0968 0)
(0.148016 -0.104544 0)
(0.148016 -0.112288 0)
(0.148016 -0.120032 0)
(0.148016 -0.127776 0)
(0.148016 -0.13552 0)
(0.148016 -0.143264 0)
(0.148016 -0.151008 0)
(0.148016 -0.158752 0)
(0.148016 -0.166496 0)
(0.148016 -0.17424 0)
(0.148016 -0.181984 0)
(0.148016 -0.189728 0)
(0.148016 -0.197472 0)
(0.148016 -0.205216 0)
(0.148016 -0.21296 0)
(0.148016 -0.220704 0)
(0.148016 -0.228448 0)
(0.148016 -0.236192 0)
(0.148016 -0.243936 0)
(0.148016 -0.25168 0)
(0.148016 -0.259424 0)
(0.148016 -0.267168 0)
(0.148016 -0.274912 0)
(0.148016 -0.282656 0)
(0.148016 -0.2904 0)
(0.148016 -0.298144 0)
(0.148016 -0.305888 0)
(0.148016 -0.313632 0)
(0.148016 -0.321376 0)
(0.148016 -0.32912 0)
(0.148016 -0.336864 0)
(0.148016 -0.344608 0)
(0.148016 -0.352352 0)
(0.148016 -0.360096 0)
(0.148016 -0.36784 0)
(0.148016 -0.375584 0)
(0.148016 -0.383328 0)
(0.169136 -0.003872 0)
(0.169136 -0.011616 0)
(0.169136 -0.01936 0)
(0.169136 -0.027104 0)
(0.169136 -0.034848 0)
(0.169136 -0.042592 0)
(0.169136 -0.050336 0)
(0.169136 -0.05808 0)
(0.169136 -0.065824 0)
(0.169136 -0.073568 0)
(0.169136 -0.081312 0)
(0.169136 -0.089056 0)
(0.169136 -0.0968 0)
(0.169136 -0.104544 0)
(0.169136 -0.112288 0)
(0.169136 -0.120032 0)
(0.169136 -0.127776 0)
(0.169136 -0.13552 0)
(0.169136 -0.143264 0)
(0.169136 -0.151008 0)
(0.169136 -0.158752 0)
(0.169136 -0.166496 0)
(0.169136 -0.17424 0)
(0.169136 -0.181984 0)
(0.169136 -0.189728 0)
(0.169136 -0.197472 0)
(0.169136 -0.205216 0)
(0.169136 -0.21296 0)
(0.169136 -0.220704 0)
(0.169136 -0.228448 0)
(0.169136 -0.236192 0)
(0.169136 -0.243936 0)
(0.169136 -0.25168 0)
(0.169136 -0.259424 0)
(0.169136 -0.267168 0)
(0.169136 -0.274912 0)
(0.169136 -0.282656 0)
(0.169136 -0.2904 0)
(0.169136 -0.298144 0)
(0.169136 -0.305888 0)
(0.169136 -0.313632 0)
(0.169136 -0.321376 0)
(0.169136 -0.32912 0)
(0.169136 -0.336864 0)
(0.169136 -0.344608 0)
(0.169136 -0.352352 0)
(0.169136 -0.360096 0)
(0.169136 -0.36784 0)
(0.169136 -0.375584 0)
(0.169136 -0.383328 0)
(0.191664 -0.003872 0)
(0.191664 -0.011616 0)
(0.191664 -0.01936 0)
(0.191664 -0.027104 0)
(0.191664 -0.034848 0)
(0.191664 -0.042592 0)
(0.191664 -0.050336 0)
(0.191664 -0.05808 0)
(0.191664 -0.065824 0)
(0.191664 -0.073568 0)
(0.191664 -0.081312 0)
(0.191664 -0.089056 0)
(0.191664 -0.0968 0)
(0.191664 -0.104544 0)
(0.191664 -0.112288 0)
(0.191664 -0.120032 0)
(0.191664 -0.127776 0)
(0.191664 -0.13552 0)
(0.191664 -0.143264 0)
(0.191664 -0.151008 0)
(0.191664 -0.158752 0)
(0.191664 -0.166496 0)
(0.191664 -0.17424 0)
(0.191664 -0.181984 0)
(0.191664 -0.189728 0)
(0.191664 -0.197472 0)
(0.191664 -0.205216 0)
(0.191664 -0.21296 0)
(0.191664 -0.220704 0)
(0.191664 -0.228448 0)
(0.191664 -0.236192 0)
(0.191664 -0.243936 0)
(0.191664 -0.25168 0)
(0.191664 -0.259424 0)
(0.191664 -0.267168 0)
(0.191664 -0.274912 0)
(0.191664 -0.282656 0)
(0.191664 -0.2904 0)
(0.191664 -0.298144 0)
(0.191664 -0.305888 0)
(0.191664 -0.313632 0)
(0.191664 -0.321376 0)
(0.191664 -0.32912 0)
(0.191664 -0.336864 0)
(0.191664 -0.344608 0)
(0.191664 -0.352352 0)
(0.191664 -0.360096 0)
(0.191664 -0.36784 0)
(0.191664 -0.375584 0)
(0.191664 -0.383328 0)
(0.2156 -0.003872 0)
(0.2156 -0.011616 0)
(0.2156 -0.01936 0)
(0.2156 -0.027104 0)
(0.2156 -0.034848 0)
(0.2156 -0.042592 0)
(0.2156 -0.050336 0)
(0.2156 -0.05808 0)
(0.2156 -0.065824 0)
(0.2156 -0.073568 0)
(0.2156 -0.081312 0)
(0.2156 -0.089056 0)
(0.2156 -0.0968 0)
(0.2156 -0.104544 0)
(0.2156 -0.112288 0)
(0.2156 -0.120032 0)
(0.2156 -0.127776 0)
(0.2156 -0.13552 0)
(0.2156 -0.143264 0)
(0.2156 -0.151008 0)
(0.2156 -0.158752 0)
(0.2156 -0.166496 0)
(0.2156 -0.17424 0)
(0.2156 -0.181984 0)
(0.2156 -0.189728 0)
(0.2156 -0.197472 0)
(0.2156 -0.205216 0)
(0.2156 -0.21296 0)
(0.2156 -0.220704 0)
(0.2156 -0.228448 0)
(0.2156 -0.236192 0)
(0.2156 -0.243936 0)
(0.2156 -0.25168 0)
(0.2156 -0.259424 0)
(0.2156 -0.267168 0)
(0.2156 -0.274912 0)
(0.2156 -0.282656 0)
(0.2156 -0.2904 0)
(0.2156 -0.298144 0)
(0.2156 -0.305888 0)
(0.2156 -0.313632 0)
(0.2156 -0.321376 0)
(0.2156 -0.32912 0)
(0.2156 -0.336864 0)
(0.2156 -0.344608 0)
(0.2156 -0.352352 0)
(0.2156 -0.360096 0)
(0.2156 -0.36784 0)
(0.2156 -0.375584 0)
(0.2156 -0.383328 0)
(0.240944 -0.003872 0)
(0.240944 -0.011616 0)
(0.240944 -0.01936 0)
(0.240944 -0.027104 0)
(0.240944 -0.034848 0)
(0.240944 -0.042592 0)
(0.240944 -0.050336 0)
(0.240944 -0.05808 0)
(0.240944 -0.065824 0)
(0.240944 -0.073568 0)
(0.240944 -0.081312 0)
(0.240944 -0.089056 0)
(0.240944 -0.0968 0)
(0.240944 -0.104544 0)
(0.240944 -0.112288 0)
(0.240944 -0.120032 0)
(0.240944 -0.127776 0)
(0.240944 -0.13552 0)
(0.240944 -0.143264 0)
(0.240944 -0.151008 0)
(0.240944 -0.158752 0)
(0.240944 -0.166496 0)
(0.240944 -0.17424 0)
(0.240944 -0.181984 0)
(0.240944 -0.189728 0)
(0.240944 -0.197472 0)
(0.240944 -0.205216 0)
(0.240944 -0.21296 0)
(0.240944 -0.220704 0)
(0.240944 -0.228448 0)
(0.240944 -0.236192 0)
(0.240944 -0.243936 0)
(0.240944 -0.25168 0)
(0.240944 -0.259424 0)
(0.240944 -0.267168 0)
(0.240944 -0.274912 0)
(0.240944 -0.282656 0)
(0.240944 -0.2904 0)
(0.240944 -0.298144 0)
(0.240944 -0.305888 0)
(0.240944 -0.313632 0)
(0.240944 -0.321376 0)
(0.240944 -0.32912 0)
(0.240944 -0.336864 0)
(0.240944 -0.344608 0)
(0.240944 -0.352352 0)
(0.240944 -0.360096 0)
(0.240944 -0.36784 0)
(0.240944 -0.375584 0)
(0.240944 -0.383328 0)
(0.267696 -0.003872 0)
(0.267696 -0.011616 0)
(0.267696 -0.01936 0)
(0.267696 -0.027104 0)
(0.267696 -0.034848 0)
(0.267696 -0.042592 0)
(0.267696 -0.050336 0)
(0.267696 -0.05808 0)
(0.267696 -0.065824 0)
(0.267696 -0.073568 0)
(0.267696 -0.081312 0)
(0.267696 -0.089056 0)
(0.267696 -0.0968 0)
(0.267696 -0.104544 0)
(0.267696 -0.112288 0)
(0.267696 -0.120032 0)
(0.267696 -0.127776 0)
(0.267696 -0.13552 0)
(0.267696 -0.143264 0)
(0.267696 -0.151008 0)
(0.267696 -0.158752 0)
(0.267696 -0.166496 0)
(0.267696 -0.17424 0)
(0.267696 -0.181984 0)
(0.267696 -0.189728 0)
(0.267696 -0.197472 0)
(0.267696 -0.205216 0)
(0.267696 -0.21296 0)
(0.267696 -0.220704 0)
(0.267696 -0.228448 0)
(0.267696 -0.236192 0)
(0.267696 -0.243936 0)
(0.267696 -0.25168 0)
(0.267696 -0.259424 0)
(0.267696 -0.267168 0)
(0.267696 -0.274912 0)
(0.267696 -0.282656 0)
(0.267696 -0.2904 0)
(0.267696 -0.298144 0)
(0.267696 -0.305888 0)
(0.267696 -0.313632 0)
(0.267696 -0.321376 0)
(0.267696 -0.32912 0)
(0.267696 -0.336864 0)
(0.267696 -0.344608 0)
(0.267696 -0.352352 0)
(0.267696 -0.360096 0)
(0.267696 -0.36784 0)
(0.267696 -0.375584 0)
(0.267696 -0.383328 0)
(0.295856 -0.003872 0)
(0.295856 -0.011616 0)
(0.295856 -0.01936 0)
(0.295856 -0.027104 0)
(0.295856 -0.034848 0)
(0.295856 -0.042592 0)
(0.295856 -0.050336 0)
(0.295856 -0.05808 0)
(0.295856 -0.065824 0)
(0.295856 -0.073568 0)
(0.295856 -0.081312 0)
(0.295856 -0.089056 0)
(0.295856 -0.0968 0)
(0.295856 -0.104544 0)
(0.295856 -0.112288 0)
(0.295856 -0.120032 0)
(0.295856 -0.127776 0)
(0.295856 -0.13552 0)
(0.295856 -0.143264 0)
(0.295856 -0.151008 0)
(0.295856 -0.158752 0)
(0.295856 -0.166496 0)
(0.295856 -0.17424 0)
(0.295856 -0.181984 0)
(0.295856 -0.189728 0)
(0.295856 -0.197472 0)
(0.295856 -0.205216 0)
(0.295856 -0.21296 0)
(0.295856 -0.220704 0)
(0.295856 -0.228448 0)
(0.295856 -0.236192 0)
(0.295856 -0.243936 0)
(0.295856 -0.25168 0)
(0.295856 -0.259424 0)
(0.295856 -0.267168 0)
(0.295856 -0.274912 0)
(0.295856 -0.282656 0)
(0.295856 -0.2904 0)
(0.295856 -0.298144 0)
(0.295856 -0.305888 0)
(0.295856 -0.313632 0)
(0.295856 -0.321376 0)
(0.295856 -0.32912 0)
(0.295856 -0.336864 0)
(0.295856 -0.344608 0)
(0.295856 -0.352352 0)
(0.295856 -0.360096 0)
(0.295856 -0.36784 0)
(0.295856 -0.375584 0)
(0.295856 -0.383328 0)
(0.325424 -0.003872 0)
(0.325424 -0.011616 0)
(0.325424 -0.01936 0)
(0.325424 -0.027104 0)
(0.325424 -0.034848 0)
(0.325424 -0.042592 0)
(0.325424 -0.050336 0)
(0.325424 -0.05808 0)
(0.325424 -0.065824 0)
(0.325424 -0.073568 0)
(0.325424 -0.081312 0)
(0.325424 -0.089056 0)
(0.325424 -0.0968 0)
(0.325424 -0.104544 0)
(0.325424 -0.112288 0)
(0.325424 -0.120032 0)
(0.325424 -0.127776 0)
(0.325424 -0.13552 0)
(0.325424 -0.143264 0)
(0.325424 -0.151008 0)
(0.325424 -0.158752 0)
(0.325424 -0.166496 0)
(0.325424 -0.17424 0)
(0.325424 -0.181984 0)
(0.325424 -0.189728 0)
(0.325424 -0.197472 0)
(0.325424 -0.205216 0)
(0.325424 -0.21296 0)
(0.325424 -0.220704 0)
(0.325424 -0.228448 0)
(0.325424 -0.236192 0)
(0.325424 -0.243936 0)
(0.325424 -0.25168 0)
(0.325424 -0.259424 0)
(0.325424 -0.267168 0)
(0.325424 -0.274912 0)
(0.325424 -0.282656 0)
(0.325424 -0.2904 0)
(0.325424 -0.298144 0)
(0.325424 -0.305888 0)
(0.325424 -0.313632 0)
(0.325424 -0.321376 0)
(0.325424 -0.32912 0)
(0.325424 -0.336864 0)
(0.325424 -0.344608 0)
(0.325424 -0.352352 0)
(0.325424 -0.360096 0)
(0.325424 -0.36784 0)
(0.325424 -0.375584 0)
(0.325424 -0.383328 0)
(0.3564 -0.003872 0)
(0.3564 -0.011616 0)
(0.3564 -0.01936 0)
(0.3564 -0.027104 0)
(0.3564 -0.034848 0)
(0.3564 -0.042592 0)
(0.3564 -0.050336 0)
(0.3564 -0.05808 0)
(0.3564 -0.065824 0)
(0.3564 -0.073568 0)
(0.3564 -0.081312 0)
(0.3564 -0.089056 0)
(0.3564 -0.0968 0)
(0.3564 -0.104544 0)
(0.3564 -0.112288 0)
(0.3564 -0.120032 0)
(0.3564 -0.127776 0)
(0.3564 -0.13552 0)
(0.3564 -0.143264 0)
(0.3564 -0.151008 0)
(0.3564 -0.158752 0)
(0.3564 -0.166496 0)
(0.3564 -0.17424 0)
(0.3564 -0.181984 0)
(0.3564 -0.189728 0)
(0.3564 -0.197472 0)
(0.3564 -0.205216 0)
(0.3564 -0.21296 0)
(0.3564 -0.220704 0)
(0.3564 -0.228448 0)
(0.3564 -0.236192 0)
(0.3564 -0.243936 0)
(0.3564 -0.25168 0)
(0.3564 -0.259424 0)
(0.3564 -0.267168 0)
(0.3564 -0.274912 0)
(0.3564 -0.282656 0)
(0.3564 -0.2904 0)
(0.3564 -0.298144 0)
(0.3564 -0.305888 0)
(0.3564 -0.313632 0)
(0.3564 -0.321376 0)
(0.3564 -0.32912 0)
(0.3564 -0.336864 0)
(0.3564 -0.344608 0)
(0.3564 -0.352352 0)
(0.3564 -0.360096 0)
(0.3564 -0.36784 0)
(0.3564 -0.375584 0)
(0.3564 -0.383328 0)
(0.388784 -0.003872 0)
(0.388784 -0.011616 0)
(0.388784 -0.01936 0)
(0.388784 -0.027104 0)
(0.388784 -0.034848 0)
(0.388784 -0.042592 0)
(0.388784 -0.050336 0)
(0.388784 -0.05808 0)
(0.388784 -0.065824 0)
(0.388784 -0.073568 0)
(0.388784 -0.081312 0)
(0.388784 -0.089056 0)
(0.388784 -0.0968 0)
(0.388784 -0.104544 0)
(0.388784 -0.112288 0)
(0.388784 -0.120032 0)
(0.388784 -0.127776 0)
(0.388784 -0.13552 0)
(0.388784 -0.143264 0)
(0.388784 -0.151008 0)
(0.388784 -0.158752 0)
(0.388784 -0.166496 0)
(0.388784 -0.17424 0)
(0.388784 -0.181984 0)
(0.388784 -0.189728 0)
(0.388784 -0.197472 0)
(0.388784 -0.205216 0)
(0.388784 -0.21296 0)
(0.388784 -0.220704 0)
(0.388784 -0.228448 0)
(0.388784 -0.236192 0)
(0.388784 -0.243936 0)
(0.388784 -0.25168 0)
(0.388784 -0.259424 0)
(0.388784 -0.267168 0)
(0.388784 -0.274912 0)
(0.388784 -0.282656 0)
(0.388784 -0.2904 0)
(0.388784 -0.298144 0)
(0.388784 -0.305888 0)
(0.388784 -0.313632 0)
(0.388784 -0.321376 0)
(0.388784 -0.32912 0)
(0.388784 -0.336864 0)
(0.388784 -0.344608 0)
(0.388784 -0.352352 0)
(0.388784 -0.360096 0)
(0.388784 -0.36784 0)
(0.388784 -0.375584 0)
(0.388784 -0.383328 0)
(0.422576 -0.003872 0)
(0.422576 -0.011616 0)
(0.422576 -0.01936 0)
(0.422576 -0.027104 0)
(0.422576 -0.034848 0)
(0.422576 -0.042592 0)
(0.422576 -0.050336 0)
(0.422576 -0.05808 0)
(0.422576 -0.065824 0)
(0.422576 -0.073568 0)
(0.422576 -0.081312 0)
(0.422576 -0.089056 0)
(0.422576 -0.0968 0)
(0.422576 -0.104544 0)
(0.422576 -0.112288 0)
(0.422576 -0.120032 0)
(0.422576 -0.127776 0)
(0.422576 -0.13552 0)
(0.422576 -0.143264 0)
(0.422576 -0.151008 0)
(0.422576 -0.158752 0)
(0.422576 -0.166496 0)
(0.422576 -0.17424 0)
(0.422576 -0.181984 0)
(0.422576 -0.189728 0)
(0.422576 -0.197472 0)
(0.422576 -0.205216 0)
(0.422576 -0.21296 0)
(0.422576 -0.220704 0)
(0.422576 -0.228448 0)
(0.422576 -0.236192 0)
(0.422576 -0.243936 0)
(0.422576 -0.25168 0)
(0.422576 -0.259424 0)
(0.422576 -0.267168 0)
(0.422576 -0.274912 0)
(0.422576 -0.282656 0)
(0.422576 -0.2904 0)
(0.422576 -0.298144 0)
(0.422576 -0.305888 0)
(0.422576 -0.313632 0)
(0.422576 -0.321376 0)
(0.422576 -0.32912 0)
(0.422576 -0.336864 0)
(0.422576 -0.344608 0)
(0.422576 -0.352352 0)
(0.422576 -0.360096 0)
(0.422576 -0.36784 0)
(0.422576 -0.375584 0)
(0.422576 -0.383328 0)
(0.457776 -0.003872 0)
(0.457776 -0.011616 0)
(0.457776 -0.01936 0)
(0.457776 -0.027104 0)
(0.457776 -0.034848 0)
(0.457776 -0.042592 0)
(0.457776 -0.050336 0)
(0.457776 -0.05808 0)
(0.457776 -0.065824 0)
(0.457776 -0.073568 0)
(0.457776 -0.081312 0)
(0.457776 -0.089056 0)
(0.457776 -0.0968 0)
(0.457776 -0.104544 0)
(0.457776 -0.112288 0)
(0.457776 -0.120032 0)
(0.457776 -0.127776 0)
(0.457776 -0.13552 0)
(0.457776 -0.143264 0)
(0.457776 -0.151008 0)
(0.457776 -0.158752 0)
(0.457776 -0.166496 0)
(0.457776 -0.17424 0)
(0.457776 -0.181984 0)
(0.457776 -0.189728 0)
(0.457776 -0.197472 0)
(0.457776 -0.205216 0)
(0.457776 -0.21296 0)
(0.457776 -0.220704 0)
(0.457776 -0.228448 0)
(0.457776 -0.236192 0)
(0.457776 -0.243936 0)
(0.457776 -0.25168 0)
(0.457776 -0.259424 0)
(0.457776 -0.267168 0)
(0.457776 -0.274912 0)
(0.457776 -0.282656 0)
(0.457776 -0.2904 0)
(0.457776 -0.298144 0)
(0.457776 -0.305888 0)
(0.457776 -0.313632 0)
(0.457776 -0.321376 0)
(0.457776 -0.32912 0)
(0.457776 -0.336864 0)
(0.457776 -0.344608 0)
(0.457776 -0.352352 0)
(0.457776 -0.360096 0)
(0.457776 -0.36784 0)
(0.457776 -0.375584 0)
(0.457776 -0.383328 0)
(0.494384 -0.003872 0)
(0.494384 -0.011616 0)
(0.494384 -0.01936 0)
(0.494384 -0.027104 0)
(0.494384 -0.034848 0)
(0.494384 -0.042592 0)