/*--------------------------------*- C++ -*----------------------------------*\
| =========                 |                                                 |
| \\      /  F ield         | OpenFOAM: The Open Source CFD Toolbox           |
|  \\    /   O peration     | Version:  v2006                                 |
|   \\  /    A nd           | Website:  www.openfoam.com                      |
|    \\/     M anipulation  |                                                 |
\*---------------------------------------------------------------------------*/
FoamFile
{
    version     2.0;
    format      ascii;
    class       volScalarField;
    location    "0";
    object      alpha.water;
}
// * * * * * * * * * * * * * * * * * * * * * * * * * * * * * * * * * * * * * //

dimensions      [0 0 0 0 0 0 0];


internalField   nonuniform List<scalar> 
67500
(
0.996865
0.996865
0.820062
0.167941
0.154032
0.249049
0.239961
0.254507
0.602077
0.805531
0.805531
0.805531
0.805531
0.73773
0.734771
0.732514
0.409103
0.729433
0.999983
0.999983
0.999983
0.988284
0.990212
0.998474
1
1
1
1
1
1
1
1
1
1
1
1
1
1
1
1
1
1
1
1
1
1
1
1
1
1
1
1
1
1
1
1
1
1
1
1
1
1
1
1
1
1
1
1
1
1
1
1
1
1
1
1
1
1
1
1
1
1
1
1
1
1
1
1
1
1
1
1
1
1
1
1
1
1
1
1
1
1
1
1
1
1
1
1
1
1
1
1
1
1
1
1
1
1
1
1
1
1
1
1
1
1
1
1
1
1
1
1
1
1
1
1
1
1
1
1
1
1
1
1
1
1
1
1
1
1
1
1
1
1
1
1
1
1
1
1
1
1
1
1
1
1
1
1
1
1
1
1
1
1
1
1
1
1
1
1
1
1
1
1
1
1
1
1
1
1
1
1
1
1
1
1
1
1
1
1
1
1
1
1
1
1
1
1
1
1
1
1
1
1
1
1
1
1
1
1
1
1
1
1
1
1
1
1
1
1
1
1
1
1
1
1
1
1
1
1
1
1
1
1
1
1
1
1
1
1
1
1
1
1
1
1
1
1
1
1
1
1
1
1
1
1
1
1
1
1
1
1
1
1
1
1
1
1
1
1
1
1
1
1
1
1
1
1
1
1
1
1
1
1
1
1
1
1
1
1
1
1
1
1
1
1
1
1
1
1
1
1
1
1
1
1
1
1
1
1
1
1
1
1
1
1
1
1
1
1
1
1
1
1
1
1
1
1
1
1
1
1
1
1
1
1
1
1
1
1
1
1
1
1
1
1
1
1
1
1
1
1
1
1
1
1
1
1
1
1
1
1
1
1
1
1
1
1
1
1
1
1
1
1
1
1
1
1
1
1
1
1
1
1
1
1
1
1
1
1
1
1
1
1
1
1
1
1
1
1
1
1
1
1
1
1
1
1
1
1
1
1
1
1
1
1
1
1
1
1
1
1
1
1
1
1
1
1
1
1
1
1
1
1
1
1
1
1
1
1
0.996865
0.895797
0.129188
0.0103373
0.0164642
0.0720985
0.27543
0.482238
0.40354
0.452333
0.713734
0.805531
0.569561
0.211667
0.129517
0.090335
0.0894746
0.102689
0.263408
0.266586
0.171978
0.171468
0.504624
0.980872
1
1
1
1
1
1
1
1
1
1
1
1
1
1
1
1
1
1
1
1
1
1
1
1
1
1
1
1
1
1
1
1
1
1
1
1
1
1
1
1
1
1
1
1
1
1
1
1
1
1
1
1
1
1
1
1
1
1
1
1
1
1
1
1
1
1
1
1
1
1
1
1
1
1
1
1
1
1
1
1
1
1
1
1
1
1
1
1
1
1
1
1
1
1
1
1
1
1
1
1
1
1
1
1
1
1
1
1
1
1
1
1
1
1
1
1
1
1
1
1
1
1
1
1
1
1
1
1
1
1
1
1
1
1
1
1
1
1
1
1
1
1
1
1
1
1
1
1
1
1
1
1
1
1
1
1
1
1
1
1
1
1
1
1
1
1
1
1
1
1
1
1
1
1
1
1
1
1
1
1
1
1
1
1
1
1
1
1
1
1
1
1
1
1
1
1
1
1
1
1
1
1
1
1
1
1
1
1
1
1
1
1
1
1
1
1
1
1
1
1
1
1
1
1
1
1
1
1
1
1
1
1
1
1
1
1
1
1
1
1
1
1
1
1
1
1
1
1
1
1
1
1
1
1
1
1
1
1
1
1
1
1
1
1
1
1
1
1
1
1
1
1
1
1
1
1
1
1
1
1
1
1
1
1
1
1
1
1
1
1
1
1
1
1
1
1
1
1
1
1
1
1
1
1
1
1
1
1
1
1
1
1
1
1
1
1
1
1
1
1
1
1
1
1
1
1
1
1
1
1
1
1
1
1
1
1
1
1
1
1
1
1
1
1
1
1
1
1
1
1
1
1
1
1
1
1
1
1
1
1
1
1
1
1
1
1
1
1
1
1
1
1
1
1
1
1
1
1
1
1
1
1
1
1
1
1
1
1
1
1
1
1
1
1
1
1
1
1
1
1
1
1
1
1
1
1
1
1
1
1
1
1
1
1
1
1
1
1
1
1
1
1
1
1
1
1
0.996865
0.765739
0.094548
0.236783
0.420394
0.287469
0.000748127
0.0108277
-1.51107e-29
-1.86904e-19
0.00722671
0.185647
0.315485
0.411334
0.413527
0.267306
0.197311
0.151834
0.151621
0.179134
0.594677
0.924341
1
1
1
1
1
1
1
1
0.992517
0.978678
0.975164
0.980812
0.983525
0.977712
0.966352
0.95301
0.937802
0.920656
0.902289
0.884022
0.868914
0.861934
0.863137
0.870904
0.883052
0.896207
0.907428
0.915149
0.919578
0.920336
0.919986
0.92035
0.923155
0.929203
0.937961
0.948016
0.957807
0.966143
0.972404
0.976567
0.979155
0.981064
0.983217
0.986157
0.989832
0.993695
0.997032
0.999244
1
1
1
1
1
1
1
1
1
1
1
1
1
1
1
1
1
1
1
1
1
1
1
1
1
1
1
1
1
1
1
1
1
1
1
1
1
1
1
1
1
1
1
1
1
1
1
1
1
1
1
1
1
1
1
1
1
1
1
1
1
1
1
1
1
1
1
1
1
1
1
1
1
1
1
1
1
1
1
1
1
1
1
1
1
1
1
1
1
1
1
1
1
1
1
1
1
1
1
1
1
1
1
1
1
1
1
1
1
1
1
1
1
1
1
1
1
1
1
1
1
1
1
1
1
1
1
1
1
1
1
1
1
1
1
1
1
1
1
1
1
1
1
1
1
1
1
1
1
1
1
1
1
1
1
1
1
1
1
1
1
1
1
1
1
1
1
1
1
1
1
1
1
1
1
1
1
1
1
1
1
1
1
1
1
1
1
1
1
1
1
1
1
1
1
1
1
1
1
1
1
1
1
1
1
1
1
1
1
1
1
1
1
1
1
1
1
1
1
1
1
1
1
1
1
1
1
1
1
1
1
1
1
1
1
1
1
1
1
1
1
1
1
1
1
1
1
1
1
1
1
1
1
1
1
1
1
1
1
1
1
1
1
1
1
1
1
1
1
1
1
1
1
1
1
1
1
1
1
1
1
1
1
1
1
1
1
1
1
1
1
1
1
1
1
1
1
1
1
1
1
1
1
1
1
1
1
1
1
1
1
1
1
1
1
1
1
1
1
1
1
1
1
1
1
1
1
1
1
1
1
1
1
1
1
1
1
1
1
1
1
1
1
1
1
1
1
1
1
1
1
1
1
1
1
1
1
1
1
1
1
1
1
1
1
1
1
1
1
1
1
1
1
1
1
1
1
1
1
1
0.996865
0.730464
0.132743
0.222705
0.149767
1.83259e-05
0.000715268
-3.43175e-20
7.77509e-08
8.66373e-06
-1.53134e-21
-7.67722e-22
-5.59332e-21
0.0536611
0.0690299
0.287257
0.670405
0.932931
0.931418
0.964953
0.995175
1
1
0.973845
0.96654
0.951392
0.885423
0.882366
0.938026
0.7509
0.449127
0.383623
0.510887
0.582192
0.443286
0.233663
0.129596
0.10333
0.0879446
0.077745
0.0735517
0.0755671
0.0833389
0.09739
0.117341
0.140504
0.161681
0.174487
0.177607
0.174696
0.170748
0.169882
0.174047
0.184169
0.200721
0.224129
0.254218
0.289278
0.325486
0.357488
0.380602
0.393958
0.401679
0.410417
0.425657
0.450171
0.484433
0.527386
0.577691
0.634249
0.697865
0.758581
0.801978
0.841836
0.878114
0.909577
0.935915
0.956944
0.972781
0.984002
0.991486
0.996156
0.998782
0.999892
1
1
1
1
1
1
1
1
1
1
1
1
1
1
1
1
1
1
1
1
1
1
1
1
1
1
1
1
1
1
1
1
1
1
1
1
1
1
1
1
1
1
1
1
1
1
1
1
1
1
1
1
1
1
1
1
1
1
1
1
1
1
1
1
1
1
1
1
1
1
1
1
1
1
1
1
1
1
1
1
1
1
1
1
1
1
1
1
1
1
1
1
1
1
1
1
1
1
1
1
1
1
1
1
1
1
1
1
1
1
1
1
1
1
1
1
1
1
1
1
1
1
1
1
1
1
1
1
1
1
1
1
1
1
1
1
1
1
1
1
1
1
1
1
1
1
1
1
1
1
1
1
1
1
1
1
1
1
1
1
1
1
1
1
1
1
1
1
1
1
1
1
1
1
1
1
1
1
1
1
1
1
1
1
1
1
1
1
1
1
1
1
1
1
1
1
1
1
1
1
1
1
1
1
1
1
1
1
1
1
1
1
1
1
1
1
1
1
1
1
1
1
1
1
1
1
1
1
1
1
1
1
1
1
1
1
1
1
1
1
1
1
1
1
1
1
1
1
1
1
1
1
1
1
1
1
1
1
1
1
1
1
1
1
1
1
1
1
1
1
1
1
1
1
1
1
1
1
1
1
1
1
1
1
1
1
1
1
1
1
1
1
1
1
1
1
1
1
1
1
1
1
1
1
1
1
1
1
1
1
1
1
1
1
1
1
1
1
1
1
1
1
1
1
1
1
1
1
1
1
1
1
1
1
1
1
1
1
1
1
1
1
1
1
1
1
1
1
1
1
1
1
1
1
1
1
1
1
1
1
1
1
1
1
1
1
0.953141
0.669775
0.0227464
0.0678316
-6.85749e-20
2.03668e-05
5.5723e-05
-3.91355e-22
5.23835e-05
0.000457571
0.000518153
0.000176421
-6.92279e-24
7.13742e-22
2.96368e-22
-6.80682e-22
-1.47987e-30
0.118454
0.844377
1
1
1
0.0229507
7.07546e-22
0.000506451
0.0103559
0.0250682
0.0505798
0.0681755
0.0292412
-1.18707e-19
3.59833e-21
-2.8431e-21
0.00577752
0.0061528
8.31305e-20
-1.00275e-20
6.71696e-36
5.05236e-36
5.70189e-36
-7.47462e-37
6.32153e-37
-8.30475e-37
-3.85067e-36
-3.83628e-37
-1.52729e-36
2.32196e-37
-1.35852e-38
2.34722e-40
2.41273e-37
2.15452e-37
6.53769e-39
1.92522e-38
-8.26211e-38
4.49235e-38
0
-1.90247e-21
-2.70309e-21
-2.91157e-21
-3.08399e-21
-3.69434e-21
-4.74695e-21
-5.47242e-21
-4.73382e-21
-2.62768e-21
-1.13829e-21
-1.23035e-21
-1.39138e-21
-1.63929e-21
-1.38299e-22
-1.16805e-21
0.0125195
0.0469524
0.0885616
0.136429
0.19078
0.251246
0.315372
0.379713
0.441994
0.501611
0.558771
0.614008
0.66912
0.725491
0.774969
0.808712
0.841819
0.874465
0.905111
0.932495
0.955694
0.974343
0.988197
0.996828
0.999946
1
1
1
1
1
1
1
1
1
1
1
1
1
1
1
1
1
1
1
1
1
1
1
1
1
1
1
1
1
1
1
1
1
1
1
1
1
1
1
1
1
1
1
1
1
1
1
1
1
1
1
1
1
1
1
1
1
1
1
1
1
1
1
1
1
1
1
1
1
1
1
1
1
1
1
1
1
1
1
1
1
1
1
1
1
1
1
1
1
1
1
1
1
1
1
1
1
1
1
1
1
1
1
1
1
1
1
1
1
1
1
1
1
1
1
1
1
1
1
1
1
1
1
1
1
1
1
1
1
1
1
1
1
1
1
1
1
1
1
1
1
1
1
1
1
1
1
1
1
1
1
1
1
1
1
1
1
1
1
1
1
1
1
1
1
1
1
1
1
1
1
1
1
1
1
1
1
1
1
1
1
1
1
1
1
1
1
1
1
1
1
1
1
1
1
1
1
1
1
1
1
1
1
1
1
1
1
1
1
1
1
1
1
1
1
1
1
1
1
1
1
1
1
1
1
1
1
1
1
1
1
1
1
1
1
1
1
1
1
1
1
1
1
1
1
1
1
1
1
1
1
1
1
1
1
1
1
1
1
1
1
1
1
1
1
1
1
1
1
1
1
1
1
1
1
1
1
1
1
1
1
1
1
1
1
1
1
1
1
1
1
1
1
1
1
1
1
1
1
1
1
1
1
1
1
1
1
1
1
1
1
1
1
1
1
1
1
1
1
1
1
1
1
1
1
1
1
1
1
1
1
1
1
1
1
1
1
1
1
1
1
1
1
1
1
1
1
1
1
1
1
1
1
1
0.864137
0.450614
-8.7505e-20
0.00085161
5.75082e-24
7.98079e-07
5.69717e-07
4.76649e-06
0.000383625
0.000704723
0.000660886
1.58736e-05
-4.09869e-22
0.000280645
0.00543878
4.33142e-23
0.00248949
0.41518
0.857726
0.709013
0.100884
0.0960314
1.78455e-20
-8.28216e-24
1.53915e-30
-6.6995e-22
-3.46147e-22
2.28212e-20
4.5114e-20
7.27211e-20
3.70873e-17
1.32421e-16
9.22869e-17
5.70284e-18
5.62439e-18
5.55278e-18
1.09892e-17
1.61242e-17
1.42704e-17
1.07706e-17
7.61586e-18
5.21671e-18
3.51203e-18
2.34482e-18
1.56669e-18
1.06086e-18
7.34735e-19
5.20522e-19
3.74867e-19
2.71792e-19
1.9624e-19
1.39821e-19
9.75771e-20
6.62125e-20
4.34119e-20
2.72274e-20
1.60053e-20
8.31856e-21
3.00859e-21
-8.3779e-22
-3.53603e-21
-5.04166e-21
-5.49806e-21
-5.5617e-21
-5.67986e-21
-5.794e-21
-6.06186e-21
-6.81935e-21
-7.82206e-21
-8.53384e-21
-9.04727e-21
-9.59514e-21
-9.92426e-21
-1.0299e-20
-1.11028e-20
-1.22707e-20
-1.26295e-20
-1.11838e-20
-9.18221e-21
-8.63728e-21
-8.31319e-21
-4.28758e-21
-5.33761e-21
-4.65269e-21
-1.65814e-20
0.0102234
0.0380015
0.0724724
0.114434
0.164889
0.223604
0.290907
0.370295
0.465009
0.572097
0.683902
0.796515
0.864976
0.914471
0.953119
0.979724
0.994772
0.999883
1
1
1
1
1
1
1
1
1
1
1
1
1
1
1
1
1
1
1
1
1
1
1
1
1
1
1
1
1
1
1
1
1
1
1
1
1
1
1
1
1
1
1
1
1
1
1
1
1
1
1
1
1
1
1
1
1
1
1
1
1
1
1
1
1
1
1
1
1
1
1
1
1
1
1
1
1
1
1
1
1
1
1
1
1
1
1
1
1
1
1
1
1
1
1
1
1
1
1
1
1
1
1
1
1
1
1
1
1
1
1
1
1
1
1
1
1
1
1
1
1
1
1
1
1
1
1
1
1
1
1
1
1
1
1
1
1
1
1
1
1
1
1
1
1
1
1
1
1
1
1
1
1
1
1
1
1
1
1
1
1
1
1
1
1
1
1
1
1
1
1
1
1
1
1
1
1
1
1
1
1
1
1
1
1
1
1
1
1
1
1
1
1
1
1
1
1
1
1
1
1
1
1
1
1
1
1
1
1
1
1
1
1
1
1
1
1
1
1
1
1
1
1
1
1
1
1
1
1
1
1
1
1
1
1
1
1
1
1
1
1
1
1
1
1
1
1
1
1
1
1
1
1
1
1
1
1
1
1
1
1
1
1
1
1
1
1
1
1
1
1
1
1
1
1
1
1
1
1
1
1
1
1
1
1
1
1
1
1
1
1
1
1
1
1
1
1
1
1
1
1
1
1
1
1
1
1
1
1
1
1
1
1
1
1
1
1
1
1
1
1
1
1
1
1
1
1
1
1
1
1
1
1
1
1
1
1
1
1
1
1
1
1
1
1
1
1
0.791679
0.332842
-1.54046e-20
8.68846e-22
-3.01738e-27
8.96707e-24
4.89312e-07
3.37979e-07
8.53098e-05
0.000228708
-3.67291e-21
8.11798e-24
-5.62549e-20
0.000386364
0.130941
0.341684
0.341631
0.330015
0.0857163
5.13954e-20
-1.86711e-20
-6.82165e-19
1.18616e-12
2.20145e-12
1.12487e-12
-2.0811e-32
7.73707e-17
3.06239e-16
2.71426e-16
1.80654e-16
3.30485e-16
3.7026e-16
3.37506e-16
2.16602e-16
1.39419e-16
1.03855e-16
8.68356e-17
7.01139e-17
5.29695e-17
3.79926e-17
2.65261e-17
1.83386e-17
1.26712e-17
8.79417e-18
6.14779e-18
4.33661e-18
3.08857e-18
2.2193e-18
1.60576e-18
1.16652e-18
8.47807e-19
6.14192e-19
4.4215e-19
3.1557e-19
2.22989e-19
1.55863e-19
1.07645e-19
7.33022e-20
4.90239e-20
3.19678e-20
2.0032e-20
1.16906e-20
5.86687e-21
1.81775e-21
-9.69196e-22
-2.86353e-21
-4.15408e-21
-5.0964e-21
-5.94548e-21
-6.98542e-21
-8.50515e-21
-1.04887e-20
-1.23375e-20
-1.38945e-20
-1.63251e-20
-2.03893e-20
-2.46441e-20
-2.72615e-20
-2.87468e-20
-3.0243e-20
-3.07835e-20
-2.89061e-20
-2.52305e-20
-2.10733e-20
-1.57439e-20
-9.1724e-21
-3.70763e-21
-3.05218e-22
1.22188e-38
2.03326e-37
3.56643e-37
1.07219e-36
3.49524e-37
3.41428e-37
3.25235e-37
-2.85066e-19
0.00155287
0.0586875
0.147556
0.261593
0.393848
0.534259
0.673528
0.807708
0.898031
0.949528
0.981608
0.997236
1
1
1
1
1
1
1
1
1
1
1
1
1
1
1
1
1
1
1
1
1
1
1
1
1
1
1
1
1
1
1
1
1
1
1
1
1
1
1
1
1
1
1
1
1
1
1
1
1
1
1
1
1
1
1
1
1
1
1
1
1
1
1
1
1
1
1
1
1
1
1
1
1
1
1
1
1
1
1
1
1
1
1
1
1
1
1
1
1
1
1
1
1
1
1
1
1
1
1
1
1
1
1
1
1
1
1
1
1
1
1
1
1
1
1
1
1
1
1
1
1
1
1
1
1
1
1
1
1
1
1
1
1
1
1
1
1
1
1
1
1
1
1
1
1
1
1
1
1
1
1
1
1
1
1
1
1
1
1
1
1
1
1
1
1
1
1
1
1
1
1
1
1
1
1
1
1
1
1
1
1
1
1
1
1
1
1
1
1
1
1
1
1
1
1
1
1
1
1
1
1
1
1
1
1
1
1
1
1
1
1
1
1
1
1
1
1
1
1
1
1
1
1
1
1
1
1
1
1
1
1
1
1
1
1
1
1
1
1
1
1
1
1
1
1
1
1
1
1
1
1
1
1
1
1
1
1
1
1
1
1
1
1
1
1
1
1
1
1
1
1
1
1
1
1
1
1
1
1
1
1
1
1
1
1
1
1
1
1
1
1
1
1
1
1
1
1
1
1
1
1
1
1
1
1
1
1
1
1
1
1
1
1
1
1
1
1
1
1
1
1
1
1
1
1
1
1
1
1
1
1
1
1
1
1
1
1
1
1
1
1
1
0.704191
0.247403
-1.03285e-20
1.38625e-23
1.50353e-06
1.59642e-05
1.56739e-24
-1.66153e-23
-5.27952e-26
-7.94835e-25
-6.2692e-23
1.1667e-06
-9.63593e-20
0.00406367
0.0397286
0.0835255
0.0792459
0.00360532
8.40813e-20
5.67476e-14
8.02395e-13
2.9206e-12
7.05277e-12
8.85007e-12
5.28462e-12
6.87543e-14
7.1327e-17
1.48715e-14
3.35485e-16
4.79943e-16
4.60655e-16
6.37594e-16
8.36979e-16
5.96731e-16
4.07288e-16
2.8729e-16
2.07798e-16
1.48575e-16
1.02727e-16
6.90277e-17
4.58755e-17
3.06116e-17
2.06988e-17
1.42447e-17
9.98559e-18
7.12143e-18
5.15414e-18
3.77244e-18
2.78111e-18
2.05677e-18
1.52006e-18
1.11894e-18
8.18295e-19
5.934e-19
4.26148e-19
3.02827e-19
2.12823e-19
1.47863e-19
1.0152e-19
6.88378e-20
4.60264e-20
3.02385e-20
1.93818e-20
1.19489e-20
6.86951e-21
3.39315e-21
1.00138e-21
-6.62496e-22
-1.84684e-21
-2.7279e-21
-3.43424e-21
-4.05608e-21
-4.6497e-21
-5.26179e-21
-5.96205e-21
-6.86341e-21
-8.14764e-21
-1.00735e-20
-1.29129e-20
-1.67703e-20
-2.13726e-20
-2.60921e-20
-3.00987e-20
-3.26126e-20
-3.28209e-20
-2.96991e-20
-2.18024e-20
-7.25074e-21
1.66674e-20
6.17876e-20
1.41935e-19
2.70851e-19
4.75041e-19
7.29011e-19
9.42451e-19
9.48425e-19
-6.55003e-38
-1.96577e-35
-6.4631e-37
-5.62656e-35
-3.97171e-35
-5.14273e-17
-6.56324e-17
-8.84797e-18
0.0670522
0.218553
0.40016
0.575157
0.733225
0.873977
0.949267
0.985676
0.999067
1
1
1
1
1
1
1
1
1
1
1
1
1
1
1
1
1
1
1
1
1
1
1
1
1
1
1
1
1
1
1
1
1
1
1
1
1
1
1
1
1
1
1
1
1
1
1
1
1
1
1
1
1
1
1
1
1
1
1
1
1
1
1
1
1
1
1
1
1
1
1
1
1
1
1
1
1
1
1
1
1
1
1
1
1
1
1
1
1
1
1
1
1
1
1
1
1
1
1
1
1
1
1
1
1
1
1
1
1
1
1
1
1
1
1
1
1
1
1
1
1
1
1
1
1
1
1
1
1
1
1
1
1
1
1
1
1
1
1
1
1
1
1
1
1
1
1
1
1
1
1
1
1
1
1
1
1
1
1
1
1
1
1
1
1
1
1
1
1
1
1
1
1
1
1
1
1
1
1
1
1
1
1
1
1
1
1
1
1
1
1
1
1
1
1
1
1
1
1
1
1
1
1
1
1
1
1
1
1
1
1
1
1
1
1
1
1
1
1
1
1
1
1
1
1
1
1
1
1
1
1
1
1
1
1
1
1
1
1
1
1
1
1
1
1
1
1
1
1
1
1
1
1
1
1
1
1
1
1
1
1
1
1
1
1
1
1
1
1
1
1
1
1
1
1
1
1
1
1
1
1
1
1
1
1
1
1
1
1
1
1
1
1
1
1
1
1
1
1
1
1
1
1
1
1
1
1
1
1
1
1
1
1
1
1
1
1
1
1
1
1
1
1
1
1
1
1
1
1
1
1
1
1
1
1
1
1
0.504948
0.140673
1.12331e-25
2.77435e-06
4.27139e-05
4.28727e-05
6.02627e-06
-1.40623e-24
8.60189e-25
6.4617e-07
4.15143e-06
4.18766e-06
9.37875e-07
3.42869e-21
-8.79194e-21
-3.11987e-22
-1.91112e-20
-4.12867e-21
3.51172e-33
9.03025e-15
5.72935e-13
2.56525e-12
7.14315e-12
9.44763e-12
7.17985e-12
6.36736e-13
4.08372e-13
5.78086e-13
2.16931e-13
6.16719e-14
1.31684e-14
2.6777e-15
2.35581e-15
1.43633e-15
9.60091e-16
6.714e-16
4.69789e-16
3.22589e-16
2.16132e-16
1.42367e-16
9.35727e-17
6.22239e-17
4.22376e-17
2.93598e-17
2.08688e-17
1.5109e-17
1.10915e-17
8.2203e-18
6.12737e-18
4.57831e-18
3.4189e-18
2.54463e-18
1.88294e-18
1.38211e-18
1.00441e-18
7.21585e-19
5.11918e-19
3.58396e-19
2.47548e-19
1.68699e-19
1.13444e-19
7.52718e-20
4.92444e-20
3.17082e-20
2.00151e-20
1.22838e-20
7.20354e-21
3.87601e-21
1.69228e-21
2.44475e-22
-7.36738e-22
-1.42631e-21
-1.93751e-21
-2.34627e-21
-2.70578e-21
-3.05372e-21
-3.42027e-21
-3.83882e-21
-4.35943e-21
-5.06209e-21
-6.06461e-21
-7.52351e-21
-9.61688e-21
-1.24983e-20
-1.61768e-20
-2.02012e-20
-2.29018e-20
-1.98173e-20
-2.94882e-22
5.90548e-20
2.04468e-19
5.20011e-19
1.15517e-18
2.34421e-18
4.3763e-18
7.46768e-18
1.07847e-17
1.5347e-17
1.9646e-17
2.27252e-17
2.38926e-17
-1.1367e-16
-2.73555e-16
-2.73973e-16
-1.61489e-16
-6.54208e-17
-2.11658e-17
-6.13985e-18
8.72005e-30
0.00795078
0.171172
0.410793
0.619213
0.7851
0.917456
0.979159
0.998748
1
1
1
1
1
1
1
1
1
1
1
1
1
1
1
1
1
1
1
1
1
1
1
1
1
1
1
1
1
1
1
1
1
1
1
1
1
1
1
1
1
1
1
1
1
1
1
1
1
1
1
1
1
1
1
1
1
1
1
1
1
1
1
1
1
1
1
1
1
1
1
1
1
1
1
1
1
1
1
1
1
1
1
1
1
1
1
1
1
1
1
1
1
1
1
1
1
1
1
1
1
1
1
1
1
1
1
1
1
1
1
1
1
1
1
1
1
1
1
1
1
1
1
1
1
1
1
1
1
1
1
1
1
1
1
1
1
1
1
1
1
1
1
1
1
1
1
1
1
1
1
1
1
1
1
1
1
1
1
1
1
1
1
1
1
1
1
1
1
1
1
1
1
1
1
1
1
1
1
1
1
1
1
1
1
1
1
1
1
1
1
1
1
1
1
1
1
1
1
1
1
1
1
1
1
1
1
1
1
1
1
1
1
1
1
1
1
1
1
1
1
1
1
1
1
1
1
1
1
1
1
1
1
1
1
1
1
1
1
1
1
1
1
1
1
1
1
1
1
1
1
1
1
1
1
1
1
1
1
1
1
1
1
1
1
1
1
1
1
1
1
1
1
1
1
1
1
1
1
1
1
1
1
1
1
1
1
1
1
1
1
1
1
1
1
1
1
1
1
1
1
1
1
1
1
1
1
1
1
1
1
1
1
1
1
1
1
1
1
1
1
1
1
1
1
1
1
1
1
1
1
1
1
0.472669
0.0562538
3.05029e-24
2.1906e-06
4.22027e-05
4.28727e-05
3.53144e-05
-1.99527e-25
4.68046e-26
5.40932e-29
3.60539e-29
1.57235e-26
2.62168e-21
0.000216506
0.00094467
0.00100164
0.00067771
6.99215e-06
4.87346e-05
-7.85228e-23
1.99258e-23
5.88589e-25
2.64542e-12
7.30516e-12
2.27011e-12
1.07371e-12
1.94093e-12
1.94562e-12
1.49222e-12
8.11033e-13
3.18648e-13
6.55386e-14
6.23478e-15
2.12455e-15
1.6708e-15
1.26881e-15
9.03914e-16
6.13223e-16
4.03017e-16
2.61423e-16
1.7054e-16
1.13594e-16
7.78979e-17
5.5029e-17
3.98517e-17
2.93886e-17
2.19385e-17
1.65059e-17
1.24784e-17
9.4577e-18
7.1726e-18
5.43139e-18
4.09625e-18
3.06799e-18
2.27538e-18
1.66681e-18
1.20368e-18
8.5583e-19
5.98779e-19
4.12229e-19
2.79359e-19
1.86455e-19
1.22634e-19
7.95116e-20
5.08158e-20
3.19825e-20
1.97751e-20
1.19496e-20
6.98044e-21
3.84805e-21
1.88223e-21
6.47567e-22
-1.3752e-22
-6.54603e-22
-1.01889e-21
-1.30149e-21
-1.54597e-21
-1.78042e-21
-2.02633e-21
-2.30549e-21
-2.64618e-21
-3.08993e-21
-3.69773e-21
-4.54718e-21
-5.68844e-21
-6.94979e-21
-7.30808e-21
-3.18863e-21
1.56059e-20
7.44958e-20
2.30464e-19
6.02019e-19
1.42423e-18
3.14657e-18
6.58665e-18
1.30315e-17
2.38677e-17
3.94092e-17
5.80388e-17
7.70171e-17
9.3826e-17
6.77312e-17
-3.19467e-17
-1.37151e-16
-1.53707e-16
-9.51529e-17
-3.83052e-17
-1.28104e-17
5.5999e-12
2.66295e-20
-1.37823e-28
4.83525e-26
-1.79067e-26
-5.46522e-28
0.0430874
0.309843
0.585279
0.77288
0.917267
0.985099
0.999936
1
1
1
1
1
1
1
1
1
1
1
1
1
1
1
1
1
1
1
1
1
1
1
1
1
1
1
1
1
1
1
1
1
1
1
1
1
1
1
1
1
1
1
1
1
1
1
1
1
1
1
1
1
1
1
1
1
1
1
1
1
1
1
1
1
1
1
1
1
1
1
1
1
1
1
1
1
1
1
1
1
1
1
1
1
1
1
1
1
1
1
1
1
1
1
1
1
1
1
1
1
1
1
1
1
1
1
1
1
1
1
1
1
1
1
1
1
1
1
1
1
1
1
1
1
1
1
1
1
1
1
1
1
1
1
1
1
1
1
1
1
1
1
1
1
1
1
1
1
1
1
1
1
1
1
1
1
1
1
1
1
1
1
1
1
1
1
1
1
1
1
1
1
1
1
1
1
1
1
1
1
1
1
1
1
1
1
1
1
1
1
1
1
1
1
1
1
1
1
1
1
1
1
1
1
1
1
1
1
1
1
1
1
1
1
1
1
1
1
1
1
1
1
1
1
1
1
1
1
1
1
1
1
1
1
1
1
1
1
1
1
1
1
1
1
1
1
1
1
1
1
1
1
1
1
1
1
1
1
1
1
1
1
1
1
1
1
1
1
1
1
1
1
1
1
1
1
1
1
1
1
1
1
1
1
1
1
1
1
1
1
1
1
1
1
1
1
1
1
1
1
1
1
1
1
1
1
1
1
1
1
1
1
1
1
1
1
1
1
1
1
1
1
1
1
1
1
1
1
0.609913
0.0126153
2.06875e-25
1.82011e-07
7.99114e-06
3.49164e-05
1.3532e-05
3.62077e-27
9.39491e-09
1.46111e-10
6.80487e-11
2.06604e-09
1.49882e-08
3.40532e-09
4.08413e-09
0.00110226
0.00319687
0.00321828
0.00320951
0.00046999
6.31179e-05
4.4438e-06
4.51188e-14
4.51188e-14
4.51188e-14
6.58656e-13
1.25964e-12
1.58085e-12
2.00135e-12
1.9958e-12
1.19211e-12
4.35825e-13
4.56057e-14
2.34993e-15
2.12487e-15
1.92031e-15
1.47484e-15
1.01641e-15
6.62873e-16
4.25321e-16
2.76254e-16
1.85124e-16
1.28943e-16
9.30019e-17
6.87923e-17
5.16857e-17
3.91947e-17
2.99068e-17
2.29349e-17
1.76727e-17
1.36796e-17
1.06201e-17
8.24055e-18
6.35974e-18
4.85697e-18
3.65472e-18
2.70125e-18
1.9575e-18
1.38972e-18
9.66596e-19
6.5902e-19
4.40822e-19
2.89586e-19
1.87018e-19
1.18844e-19
7.43622e-20
4.58275e-20
2.78067e-20
1.65895e-20
9.70058e-21
5.52276e-21
3.01678e-21
1.52369e-21
6.31405e-22
8.72428e-23
-2.60003e-22
-4.99244e-22
-6.82754e-22
-8.4237e-22
-9.99677e-22
-1.17279e-21
-1.38146e-21
-1.6508e-21
-2.0081e-21
-2.44435e-21
-2.73154e-21
-1.77124e-21
4.30908e-21
2.69384e-20
9.55222e-20
2.77326e-19
7.12733e-19
1.67744e-18
3.69085e-18
7.68792e-18
1.52195e-17
2.84773e-17
4.977e-17
8.03686e-17
1.19319e-16
1.62813e-16
2.04307e-16
2.34493e-16
2.45511e-16
2.29913e-16
1.85663e-16
1.17227e-16
3.15613e-17
6.64247e-18
4.98806e-09
1.5418e-08
1.62728e-08
6.92631e-25
1.65044e-27
-9.44802e-25
-2.9083e-32
3.77905e-31
1.63541e-32
0.0233616
0.335888
0.651538
0.836809
0.956905
0.997953
1
1
1
1
1
1
1
1
1
1
1
1
1
1
1
1
1
1
1
1
1
1
1
1
1
1
1
1
1
1
1
1
1
1
1
1
1
1
1
1
1
1
1
1
1
1
1
1
1
1
1
1
1
1
1
1
1
1
1
1
1
1
1
1
1
1
1
1
1
1
1
1
1
1
1
1
1
1
1
1
1
1
1
1
1
1
1
1
1
1
1
1
1
1
1
1
1
1
1
1
1
1
1
1
1
1
1
1
1
1
1
1
1
1
1
1
1
1
1
1
1
1
1
1
1
1
1
1
1
1
1
1
1
1
1
1
1
1
1
1
1
1
1
1
1
1
1
1
1
1
1
1
1
1
1
1
1
1
1
1
1
1
1
1
1
1
1
1
1
1
1
1
1
1
1
1
1
1
1
1
1
1
1
1
1
1
1
1
1
1
1
1
1
1
1
1
1
1
1
1
1
1
1
1
1
1
1
1
1
1
1
1
1
1
1
1
1
1
1
1
1
1
1
1
1
1
1
1
1
1
1
1
1
1
1
1
1
1
1
1
1
1
1
1
1
1
1
1
1
1
1
1
1
1
1
1
1
1
1
1
1
1
1
1
1
1
1
1
1
1
1
1
1
1
1
1
1
1
1
1
1
1
1
1
1
1
1
1
1
1
1
1
1
1
1
1
1
1
1
1
1
1
1
1
1
1
1
1
1
1
1
1
1
1
1
1
1
1
1
1
1
1
1
1
1
1
0.627063
0.000284914
-8.55917e-44
-3.95037e-26
3.02125e-23
1.59028e-06
1.3375e-07
1.46672e-08
7.37223e-13
1.20349e-12
1.12995e-24
-5.41729e-25
3.46968e-08
6.23042e-08
3.53051e-08
2.17513e-11
1.03693e-10
7.74612e-05
0.00175147
0.00431181
0.00433642
0.00172413
7.81629e-05
2.91317e-06
4.51188e-14
4.51188e-14
4.51188e-14
4.51188e-14
4.51188e-14
1.02872e-12
1.6432e-12
1.28497e-12
5.41766e-13
8.4381e-14
2.76852e-15
2.40783e-15
2.03027e-15
1.47391e-15
9.77324e-16
6.30207e-16
4.12245e-16
2.8027e-16
1.99224e-16
1.46781e-16
1.10527e-16
8.41617e-17
6.45154e-17
4.97884e-17
3.87521e-17
3.05087e-17
2.43536e-17
1.96722e-17
1.59622e-17
1.28819e-17
1.02477e-17
7.98515e-18
6.07268e-18
4.50023e-18
3.249e-18
2.28659e-18
1.57039e-18
1.05382e-18
6.91908e-19
4.45078e-19
2.80851e-19
1.74044e-19
1.06024e-19
6.35419e-20
3.74867e-20
2.17776e-20
1.24585e-20
7.01272e-21
3.87137e-21
2.07524e-21
1.05029e-21
4.60434e-22
1.12495e-22
-1.03228e-22
-2.48955e-22
-3.60631e-22
-4.6036e-22
-5.63854e-22
-6.84811e-22
-8.34364e-22
-9.98161e-22
-1.01279e-21
-7.40578e-23
4.85658e-21
2.34261e-20
8.21662e-20
2.45306e-19
6.52395e-19
1.5818e-18
3.55126e-18
7.45869e-18
1.47328e-17
2.73905e-17
4.78112e-17
7.80553e-17
1.18778e-16
1.68088e-16
2.20915e-16
2.69406e-16
3.04217e-16
3.17004e-16
3.01672e-16
2.55033e-16
1.79777e-16
7.52425e-17
4.56907e-17
4.00838e-15
1.74112e-07
3.47963e-07
1.25269e-07
-1.25273e-24
7.07069e-15
4.22649e-13
1.54622e-13
9.43564e-29
9.59365e-29
-6.14889e-29
-1.92412e-28
0.112931
0.529206
0.798956
0.942053
0.995871
1
1
1
1
1
1
1
1
1
1
1
1
1
1
1
1
1
1
1
1
1
1
1
1
1
1
1
1
1
1
1
1
1
1
1
1
1
1
1
1
1
1
1
1
1
1
1
1
1
1
1
1
1
1
1
1
1
1
1
1
1
1
1
1
1
1
1
1
1
1
1
1
1
1
1
1
1
1
1
1
1
1
1
1
1
1
1
1
1
1
1
1
1
1
1
1
1
1
1
1
1
1
1
1
1
1
1
1
1
1
1
1
1
1
1
1
1
1
1
1
1
1
1
1
1
1
1
1
1
1
1
1
1
1
1
1
1
1
1
1
1
1
1
1
1
1
1
1
1
1
1
1
1
1
1
1
1
1
1
1
1
1
1
1
1
1
1
1
1
1
1
1
1
1
1
1
1
1
1
1
1
1
1
1
1
1
1
1
1
1
1
1
1
1
1
1
1
1
1
1
1
1
1
1
1
1
1
1
1
1
1
1
1
1
1
1
1
1
1
1
1
1
1
1
1
1
1
1
1
1
1
1
1
1
1
1
1
1
1
1
1
1
1
1
1
1
1
1
1
1
1
1
1
1
1
1
1
1
1
1
1
1
1
1
1
1
1
1
1
1
1
1
1
1
1
1
1
1
1
1
1
1
1
1
1
1
1
1
1
1
1
1
1
1
1
1
1
1
1
1
1
1
1
1
1
1
1
1
1
1
1
1
1
1
1
1
1
1
1
1
1
1
1
0.627047
-3.30653e-22
-1.62435e-23
-2.5422e-24
-1.66948e-24
1.68122e-24
1.39214e-24
7.91494e-24
3.72299e-06
1.08288e-05
9.9939e-06
4.24094e-07
3.53123e-08
5.90049e-08
1.16476e-07
8.7654e-08
4.15628e-08
1.16562e-20
2.81373e-21
0.000470929
0.00499674
0.0050267
0.00384361
0.0020018
0.000796842
0.000368984
0.000153879
6.94939e-05
3.09298e-06
9.71808e-13
9.26655e-13
1.55492e-12
1.71162e-12
1.09177e-12
2.76585e-13
8.08897e-15
2.22711e-15
1.74034e-15
1.23701e-15
8.31459e-16
5.59919e-16
3.90619e-16
2.84142e-16
2.13058e-16
1.62002e-16
1.23929e-16
9.54512e-17
7.44148e-17
5.90549e-17
4.81185e-17
4.05557e-17
3.50835e-17
3.05229e-17
2.61824e-17
2.18672e-17
1.76802e-17
1.38179e-17
1.04456e-17
7.64933e-18
5.43644e-18
3.75686e-18
2.52894e-18
1.66105e-18
1.06615e-18
6.69658e-19
4.12124e-19
2.48792e-19
1.4748e-19
8.59344e-20
4.92717e-20
2.78322e-20
1.55097e-20
8.53674e-21
4.64235e-21
2.48828e-21
1.30298e-21
6.50173e-22
2.86894e-22
7.92741e-23
-4.61461e-23
-1.29969e-22
-1.95374e-22
-2.56685e-22
-3.22992e-22
-3.90612e-22
-3.85278e-22
1.02641e-22
2.78202e-21
1.35882e-20
5.02407e-20
1.59021e-19
4.47222e-19
1.13834e-18
2.65363e-18
5.71166e-18
1.14133e-17
2.1246e-17
3.69149e-17
5.99432e-17
9.10846e-17
1.29685e-16
1.7319e-16
2.17055e-16
2.55259e-16
2.81313e-16
2.89535e-16
2.75741e-16
2.37206e-16
1.7356e-16
8.09246e-17
4.03576e-17
4.01723e-17
2.01905e-06
3.28065e-06
1.22913e-06
6.74838e-08
3.64568e-13
3.53241e-13
9.30661e-29
6.43208e-11
3.28471e-11
1.50278e-10
-3.16986e-26
8.49656e-27
8.49656e-27
0.0321058
0.464285
0.801446
0.95259
0.998076
1
1
1
1
1
1
1
1
1
1
1
1
1
1
1
1
1
1
1
1
1
1
1
1
1
1
1
1
1
1
1
1
1
1
1
1
1
1
1
1
1
1
1
1
1
1
1
1
1
1
1
1
1
1
1
1
1
1
1
1
1
1
1
1
1
1
1
1
1
1
1
1
1
1
1
1
1
1
1
1
1
1
1
1
1
1
1
1
1
1
1
1
1
1
1
1
1
1
1
1
1
1
1
1
1
1
1
1
1
1
1
1
1
1
1
1
1
1
1
1
1
1
1
1
1
1
1
1
1
1
1
1
1
1
1
1
1
1
1
1
1
1
1
1
1
1
1
1
1
1
1
1
1
1
1
1
1
1
1
1
1
1
1
1
1
1
1
1
1
1
1
1
1
1
1
1
1
1
1
1
1
1
1
1
1
1
1
1
1
1
1
1
1
1
1
1
1
1
1
1
1
1
1
1
1
1
1
1
1
1
1
1
1
1
1
1
1
1
1
1
1
1
1
1
1
1
1
1
1
1
1
1
1
1
1
1
1
1
1
1
1
1
1
1
1
1
1
1
1
1
1
1
1
1
1
1
1
1
1
1
1
1
1
1
1
1
1
1
1
1
1
1
1
1
1
1
1
1
1
1
1
1
1
1
1
1
1
1
1
1
1
1
1
1
1
1
1
1
1
1
1
1
1
1
1
1
1
1
1
1
1
1
1
1
1
1
1
1
1
1
0.270527
0.00206128
0.000403089
0.000415093
0.000316745
2.69086e-05
2.39574e-22
1.6805e-24
1.28537e-07
1.20094e-07
3.68162e-05
7.07154e-05
5.21463e-05
8.86944e-06
2.19571e-10
5.59351e-08
1.27886e-07
9.91074e-08
7.2278e-09
4.56908e-10
4.53091e-10
0.00260634
0.00529418
0.00534646
0.00511588
0.00302407
0.00184891
0.0015519
0.000963983
0.000185226
9.71808e-13
1.01726e-12
2.02526e-12
2.66345e-12
1.98728e-12
5.60272e-13
2.18331e-14
1.50046e-15
1.22946e-15
9.37734e-16
6.78452e-16
4.93446e-16
3.66915e-16
2.77764e-16
2.09257e-16
1.58554e-16
1.21993e-16
9.67818e-17
7.98605e-17
6.99625e-17
6.56394e-17
6.37285e-17
6.08689e-17
5.56765e-17
4.84402e-17
4.01682e-17
3.1889e-17
2.43451e-17
1.79406e-17
1.28017e-17
8.86768e-18
5.9756e-18
3.92426e-18
2.51537e-18
1.57576e-18
9.65911e-19
5.79969e-19
3.41455e-19
1.97317e-19
1.12039e-19
6.25891e-20
3.44506e-20
1.87151e-20
1.00511e-20
5.34338e-21
2.8123e-21
1.46168e-21
7.43715e-22
3.61425e-22
1.5558e-22
4.13679e-23
-2.63814e-23
-7.20294e-23
-1.08981e-22
-1.42108e-22
-1.49452e-22
2.67217e-23
1.13174e-21
6.01359e-21
2.38838e-20
8.05574e-20
2.39671e-19
6.40524e-19
1.55517e-18
3.45783e-18
7.08352e-18
1.34354e-17
2.36933e-17
3.89911e-17
6.00789e-17
8.69366e-17
1.18455e-16
1.52308e-16
1.85097e-16
2.12754e-16
2.30995e-16
2.35631e-16
2.22493e-16
1.87069e-16
1.2408e-16
4.96057e-17
4.03576e-17
9.88273e-07
4.49527e-06
4.5103e-06
3.26796e-06
2.60297e-07
3.64568e-13
1.01893e-12
7.61976e-11
2.58933e-12
3.7085e-09
1.25323e-08
2.56191e-09
1.43892e-24
-7.75163e-26
-9.98984e-18
-2.27741e-17
0.0286013
0.500471
0.846888
0.977666
0.999929
1
1
1
1
1
1
1
1
1
1
1
1
1
1
1
1
1
1
1
1
1
1
1
1
1
1
1
1
1
1
1
1
1
1
1
1
1
1
1
1
1
1
1
1
1
1
1
1
1
1
1
1
1
1
1
1
1
1
1
1
1
1
1
1
1
1
1
1
1
1
1
1
1
1
1
1
1
1
1
1
1
1
1
1
1
1
1
1
1
1
1
1
1
1
1
1
1
1
1
1
1
1
1
1
1
1
1
1
1
1
1
1
1
1
1
1
1
1
1
1
1
1
1
1
1
1
1
1
1
1
1
1
1
1
1
1
1
1
1
1
1
1
1
1
1
1
1
1
1
1
1
1
1
1
1
1
1
1
1
1
1
1
1
1
1
1
1
1
1
1
1
1
1
1
1
1
1
1
1
1
1
1
1
1
1
1
1
1
1
1
1
1
1
1
1
1
1
1
1
1
1
1
1
1
1
1
1
1
1
1
1
1
1
1
1
1
1
1
1
1
1
1
1
1
1
1
1
1
1
1
1
1
1
1
1
1
1
1
1
1
1
1
1
1
1
1
1
1
1
1
1
1
1
1
1
1
1
1
1
1
1
1
1
1
1
1
1
1
1
1
1
1
1
1
1
1
1
1
1
1
1
1
1
1
1
1
1
1
1
1
1
1
1
1
1
1
1
1
1
1
1
1
1
1
1
1
1
1
1
1
1
1
1
1
1
1
1
0.313438
9.88355e-05
0.000112327
0.000513482
0.000507728
4.90345e-05
2.74282e-20
2.19813e-20
0.000122186
7.70284e-05
0.000546571
0.00115398
0.000832573
8.04909e-05
-4.76583e-22
1.63182e-09
1.28879e-09
9.78219e-09
5.57991e-08
4.53091e-10
6.42541e-07
6.71629e-07
0.000496611
0.000461645
0.00041018
0.00143861
0.00209113
0.00231145
0.00235226
0.00157524
0.00038392
2.00709e-06
1.39661e-12
2.315e-12
3.66929e-12
2.64264e-12
6.4784e-13
1.26157e-14
9.75873e-16
8.71993e-16
7.14168e-16
5.51301e-16
4.1533e-16
3.15341e-16
2.41888e-16
1.84953e-16
1.42167e-16
1.11909e-16
9.72662e-17
1.05675e-16
1.17536e-16
1.31101e-16
1.35137e-16
1.27717e-16
1.12218e-16
9.30306e-17
7.35716e-17
5.59157e-17
4.10446e-17
2.91993e-17
2.01826e-17
1.35801e-17
8.90861e-18
5.70489e-18
3.5701e-18
2.18535e-18
1.30961e-18
7.68962e-19
4.42765e-19
2.50231e-19
1.38951e-19
7.59038e-20
4.08461e-20
2.16867e-20
1.1378e-20
5.90716e-21
3.03762e-21
1.54685e-21
7.77867e-22
3.82733e-22
1.79375e-22
7.33693e-23
1.59955e-23
-1.78999e-23
-4.0797e-23
-5.22347e-23
-3.65561e-24
3.75285e-22
2.2156e-21
9.43569e-21
3.36449e-20
1.04823e-19
2.91308e-19
7.31664e-19
1.67668e-18
3.53124e-18
6.87477e-18
1.24315e-17
2.09665e-17
3.31083e-17
4.91402e-17
6.88392e-17
9.14408e-17
1.15767e-16
1.40436e-16
1.63935e-16
1.84344e-16
1.98275e-16
1.9896e-16
1.75567e-16
1.15168e-16
5.06059e-17
4.74275e-17
1.81113e-06
4.49527e-06
4.5103e-06
2.3665e-06
2.52837e-08
1.06561e-12
2.0049e-11
1.2257e-12
4.01645e-09
1.88741e-08
1.14021e-08
4.01838e-07
1.34085e-07
1.30689e-23
-1.0219e-16
-1.46408e-16
-1.05974e-17
-5.48169e-29
0.0997065
0.630974
0.920703
0.996138
1
1
1
1
1
1
1
1
1
1
1
1
1
1
1
1
1
1
1
1
1
1
1
1
1
1
1
1
1
1
1
1
1
1
1
1
1
1
1
1
1
1
1
1
1
1
1
1
1
1
1
1
1
1
1
1
1
1
1
1
1
1
1
1
1
1
1
1
1
1
1
1
1
1
1
1
1
1
1
1
1
1
1
1
1
1
1
1
1
1
1
1
1
1
1
1
1
1
1
1
1
1
1
1
1
1
1
1
1
1
1
1
1
1
1
1
1
1
1
1
1
1
1
1
1
1
1
1
1
1
1
1
1
1
1
1
1
1
1
1
1
1
1
1
1
1
1
1
1
1
1
1
1
1
1
1
1
1
1
1
1
1
1
1
1
1
1
1
1
1
1
1
1
1
1
1
1
1
1
1
1
1
1
1
1
1
1
1
1
1
1
1
1
1
1
1
1
1
1
1
1
1
1
1
1
1
1
1
1
1
1
1
1
1
1
1
1
1
1
1
1
1
1
1
1
1
1
1
1
1
1
1
1
1
1
1
1
1
1
1
1
1
1
1
1
1
1
1
1
1
1
1
1
1
1
1
1
1
1
1
1
1
1
1
1
1
1
1
1
1
1
1
1
1
1
1
1
1
1
1
1
1
1
1
1
1
1
1
1
1
1
1
1
1
1
1
1
1
1
1
1
1
1
1
1
1
1
1
1
1
1
1
1
1
1
0.74525
0.127459
-1.47035e-19
0.000103505
1.06381e-05
8.1452e-06
0.0265126
0.0428777
0.0518177
0.090934
0.110304
0.0378567
2.03098e-05
-1.66654e-21
3.57094e-23
-3.50689e-27
-1.63946e-28
-2.61267e-28
1.42137e-07
3.89777e-08
1.72239e-08
1.71266e-05
9.1199e-23
0.000304835
0.000361712
6.18702e-06
5.18e-12
5.18e-12
0.000139323
0.00131827
0.00135327
0.000356318
1.34265e-12
1.39661e-12
3.10113e-12
4.13134e-12
2.54908e-12
4.53882e-13
8.3695e-16
7.44946e-16
6.79932e-16
5.55211e-16
3.90686e-16
3.12329e-16
1.55853e-14
3.13637e-14
2.64715e-14
1.09501e-14
1.86957e-15
3.34273e-16
2.97757e-16
3.36342e-16
3.4205e-16
3.13065e-16
2.6556e-16
2.13468e-16
1.64762e-16
1.22982e-16
8.91261e-17
6.28587e-17
4.32109e-17
2.89846e-17
1.89874e-17
1.21563e-17
7.61114e-18
4.6631e-18
2.79721e-18
1.64381e-18
9.46944e-19
5.35103e-19
2.96843e-19
1.61803e-19
8.67489e-20
4.57993e-20
2.38402e-20
1.22507e-20
6.22222e-21
3.12687e-21
1.55566e-21
7.6586e-22
3.71901e-22
1.76267e-22
7.89221e-23
2.96496e-23
3.52554e-24
-1.00007e-23
-2.01803e-24
1.09354e-22
6.97017e-22
3.11812e-21
1.15489e-20
3.71092e-20
1.05788e-19
2.71408e-19
6.3324e-19
1.35462e-18
2.67473e-18
4.9033e-18
8.39188e-18
1.34901e-17
2.05204e-17
2.9825e-17
4.19316e-17
5.78278e-17
7.92194e-17
1.08542e-16
1.48415e-16
1.99446e-16
2.54628e-16
2.91381e-16
2.74004e-16
1.77129e-16
7.16385e-17
2.76803e-17
2.7151e-06
2.28464e-06
1.42577e-07
6.9517e-12
3.38616e-11
7.5165e-11
6.2482e-11
1.35141e-27
-8.12687e-29
1.43473e-23
2.7766e-05
3.07487e-05
5.85341e-06
1.47084e-23
-7.11755e-17
-6.26695e-18