/*--------------------------------*- C++ -*----------------------------------*\
| =========                 |                                                 |
| \\      /  F ield         | OpenFOAM: The Open Source CFD Toolbox           |
|  \\    /   O peration     | Version:  v2006                                 |
|   \\  /    A nd           | Website:  www.openfoam.com                      |
|    \\/     M anipulation  |                                                 |
\*---------------------------------------------------------------------------*/
FoamFile
{
    version     2.0;
    format      ascii;
    class       volVectorField;
    location    "17.6";
    object      U;
}
// * * * * * * * * * * * * * * * * * * * * * * * * * * * * * * * * * * * * * //

dimensions      [0 1 -1 0 0 0 0];


internalField   nonuniform List<vector> 
150000
(
(-0.00588922 0.00222511 0)
(-0.00961072 9.28468e-06 0)
(-0.0120983 -0.000236768 0)
(-0.0159032 -8.34131e-05 0)
(-0.0194579 -0.000115853 0)
(-0.0232543 -0.000208855 0)
(-0.0271024 -0.000276184 0)
(-0.0312813 -0.000261371 0)
(-0.0358772 -0.000171112 0)
(-0.0409526 -1.85089e-05 0)
(-0.0464972 0.000176853 0)
(-0.0524627 0.00039597 0)
(-0.0587794 0.000623354 0)
(-0.0653562 0.000844265 0)
(-0.0720999 0.00104301 0)
(-0.0789265 0.00120958 0)
(-0.0857686 0.00133901 0)
(-0.0925798 0.0014326 0)
(-0.0993361 0.00149689 0)
(-0.106033 0.00154149 0)
(-0.11268 0.00157781 0)
(-0.119299 0.00161818 0)
(-0.125912 0.00167164 0)
(-0.132539 0.00174227 0)
(-0.139193 0.00183056 0)
(-0.145878 0.001932 0)
(-0.152585 0.00203651 0)
(-0.159294 0.00212981 0)
(-0.165977 0.00219623 0)
(-0.172602 0.00222131 0)
(-0.179141 0.00219405 0)
(-0.185574 0.0021105 0)
(-0.1919 0.00197808 0)
(-0.198136 0.00181715 0)
(-0.204323 0.00165907 0)
(-0.210518 0.00154114 0)
(-0.21678 0.00149744 0)
(-0.22316 0.00154741 0)
(-0.229688 0.00168763 0)
(-0.236367 0.00189217 0)
(-0.243165 0.00212194 0)
(-0.25003 0.0023367 0)
(-0.256887 0.00250075 0)
(-0.263657 0.00259068 0)
(-0.270274 0.0026028 0)
(-0.27669 0.0025503 0)
(-0.282877 0.00245629 0)
(-0.288828 0.00234609 0)
(-0.294549 0.00224115 0)
(-0.300053 0.00215501 0)
(-0.305355 0.00209248 0)
(-0.310464 0.00205172 0)
(-0.315384 0.00202713 0)
(-0.32011 0.00201126 0)
(-0.324632 0.0019963 0)
(-0.328937 0.00197623 0)
(-0.333011 0.00194807 0)
(-0.336842 0.00191146 0)
(-0.340426 0.00186717 0)
(-0.343759 0.00181612 0)
(-0.346846 0.00175892 0)
(-0.349694 0.0016958 0)
(-0.352316 0.00162674 0)
(-0.354725 0.00155141 0)
(-0.356933 0.00146916 0)
(-0.35895 0.00137937 0)
(-0.360784 0.001282 0)
(-0.362437 0.00117771 0)
(-0.363907 0.00106753 0)
(-0.365188 0.00095177 0)
(-0.366269 0.000829528 0)
(-0.367134 0.000699514 0)
(-0.367765 0.000560484 0)
(-0.368137 0.000409791 0)
(-0.36823 0.00024883 0)
(-0.368036 7.62806e-05 0)
(-0.367537 -0.000102787 0)
(-0.366725 -0.000284096 0)
(-0.365592 -0.000462775 0)
(-0.364138 -0.000634569 0)
(-0.362365 -0.000796253 0)
(-0.360276 -0.000946269 0)
(-0.357874 -0.00108533 0)
(-0.355162 -0.00121594 0)
(-0.35214 -0.00134107 0)
(-0.348807 -0.00146345 0)
(-0.345158 -0.0015853 0)
(-0.341192 -0.00170797 0)
(-0.336903 -0.00183166 0)
(-0.332289 -0.00195582 0)
(-0.327346 -0.00207937 0)
(-0.322069 -0.00220092 0)
(-0.316453 -0.00231963 0)
(-0.310495 -0.00243565 0)
(-0.304189 -0.00254904 0)
(-0.29753 -0.00265954 0)
(-0.290509 -0.00276698 0)
(-0.283119 -0.00287108 0)
(-0.275348 -0.00297236 0)
(-0.267183 -0.00307226 0)
(-0.258609 -0.00317336 0)
(-0.24961 -0.00327917 0)
(-0.24017 -0.00339065 0)
(-0.230283 -0.00350577 0)
(-0.219956 -0.00361663 0)
(-0.209223 -0.00371748 0)
(-0.198141 -0.00379964 0)
(-0.186788 -0.00385529 0)
(-0.175249 -0.00388653 0)
(-0.163625 -0.00391378 0)
(-0.152008 -0.0039598 0)
(-0.140454 -0.00405137 0)
(-0.12896 -0.00420846 0)
(-0.117513 -0.00445706 0)
(-0.106055 -0.00478566 0)
(-0.0944965 -0.00518258 0)
(-0.0827443 -0.00561882 0)
(-0.0707324 -0.00606843 0)
(-0.0583827 -0.00648047 0)
(-0.0456521 -0.00683695 0)
(-0.0325168 -0.0071252 0)
(-0.0189732 -0.00733886 0)
(-0.00501242 -0.00747377 0)
(0.00936131 -0.00754154 0)
(0.024141 -0.00754756 0)
(0.0393411 -0.00750844 0)
(0.0549723 -0.00744088 0)
(0.0710253 -0.00735602 0)
(0.0874473 -0.00724211 0)
(0.10412 -0.00706477 0)
(0.120874 -0.00677499 0)
(0.137558 -0.00635007 0)
(0.154179 -0.00585407 0)
(0.171092 -0.00548882 0)
(0.189163 -0.00558454 0)
(0.209645 -0.00644341 0)
(0.233744 -0.00789353 0)
(0.261788 -0.00889254 0)
(0.292082 -0.00723266 0)
(0.319959 -0.000166409 0)
(0.338014 0.0122515 0)
(0.340451 0.0230652 0)
(0.334403 0.0244152 0)
(0.330735 0.0166392 0)
(0.333393 0.00490202 0)
(0.343279 -0.0066972 0)
(0.358523 -0.0160252 0)
(0.376948 -0.0221719 0)
(0.397128 -0.0250762 0)
(0.418354 -0.0253713 0)
(0.440396 -0.0238637 0)
(0.463254 -0.0212829 0)
(0.486752 -0.0182451 0)
(0.510386 -0.0150582 0)
(0.533448 -0.0118097 0)
(0.5552 -0.00858112 0)
(0.575064 -0.00558209 0)
(0.592809 -0.00314809 0)
(0.608627 -0.00163354 0)
(0.623047 -0.00123027 0)
(0.636757 -0.00183614 0)
(0.650396 -0.00310981 0)
(0.664403 -0.00462612 0)
(0.678974 -0.0060202 0)
(0.694118 -0.00706102 0)
(0.709718 -0.0076532 0)
(0.725594 -0.007803 0)
(0.741546 -0.00758262 0)
(0.757374 -0.00709879 0)
(0.772901 -0.00646919 0)
(0.787992 -0.00580788 0)
(0.802572 -0.00521425 0)
(0.816623 -0.00476301 0)
(0.830179 -0.00449697 0)
(0.84331 -0.00442521 0)
(0.856102 -0.00452735 0)
(0.86864 -0.00476255 0)
(0.880995 -0.00508037 0)
(0.89322 -0.00543048 0)
(0.905349 -0.00576962 0)
(0.917397 -0.00606543 0)
(0.929366 -0.00629757 0)
(0.94125 -0.00645683 0)
(0.953036 -0.00654308 0)
(0.964706 -0.00656259 0)
(0.976246 -0.00652515 0)
(0.987642 -0.00644143 0)
(0.998886 -0.00632101 0)
(1.00997 -0.00617122 0)
(1.02091 -0.00599697 0)
(1.03171 -0.00580144 0)
(1.04239 -0.00558716 0)
(1.05296 -0.00535714 0)
(1.06343 -0.0051156 0)
(1.07381 -0.00486835 0)
(1.0841 -0.00462271 0)
(1.09428 -0.00438753 0)
(1.10433 -0.00417315 0)
(1.1142 -0.00399131 0)
(1.12387 -0.00385422 0)
(1.13331 -0.00377214 0)
(1.1425 -0.00374964 0)
(1.15145 -0.00378271 0)
(1.16021 -0.00385847 0)
(1.16886 -0.00395758 0)
(1.17746 -0.00405816 0)
(1.18609 -0.00413911 0)
(1.19477 -0.00418193 0)
(1.20348 -0.00417155 0)
(1.21211 -0.00409759 0)
(1.2205 -0.00395744 0)
(1.2285 -0.00375955 0)
(1.23595 -0.00352439 0)
(1.2428 -0.00328104 0)
(1.24907 -0.0030601 0)
(1.25486 -0.00288469 0)
(1.26032 -0.00276166 0)
(1.26559 -0.00267619 0)
(1.27075 -0.00259422 0)
(1.27584 -0.00247627 0)
(1.28091 -0.00229874 0)
(1.28604 -0.00207066 0)
(1.29136 -0.00183488 0)
(1.297 -0.00165157 0)
(1.30302 -0.00159266 0)
(1.30933 -0.00173032 0)
(1.31576 -0.00214092 0)
(1.32217 -0.0028893 0)
(1.3286 -0.00395529 0)
(1.33522 -0.00498587 0)
(1.34203 -0.00484631 0)
(1.34784 -0.00191443 0)
(1.34947 0.00349391 0)
(1.34593 0.00818943 0)
(1.33986 0.0100916 0)
(1.33373 0.00937651 0)
(1.3286 0.00727296 0)
(1.32437 0.00507729 0)
(1.32043 0.00349956 0)
(1.31622 0.00273895 0)
(1.31137 0.00268325 0)
(1.30565 0.00316409 0)
(1.2989 0.0040828 0)
(1.29094 0.00539051 0)
(1.28159 0.00704147 0)
(1.27068 0.00896227 0)
(1.25807 0.0110378 0)
(1.24375 0.013107 0)
(1.22781 0.0149629 0)
(1.21055 0.0163728 0)
(1.1925 0.0171292 0)
(1.17438 0.0169968 0)
(1.157 0.0157338 0)
(1.14126 0.0132834 0)
(1.12797 0.00979453 0)
(1.11777 0.00558534 0)
(1.11092 0.00108741 0)
(1.10734 -0.00318579 0)
(1.10635 -0.00667724 0)
(1.107 -0.00901038 0)
(1.10889 -0.0105158 0)
(1.11149 -0.0113847 0)
(1.11442 -0.0115798 0)
(1.11745 -0.0110597 0)
(1.12038 -0.0098657 0)
(1.12309 -0.00814392 0)
(1.12555 -0.00613204 0)
(1.12783 -0.00409975 0)
(1.13005 -0.00230629 0)
(1.13231 -0.000928894 0)
(1.13471 -1.93425e-05 0)
(1.13727 0.000469288 0)
(1.13997 0.000635139 0)
(1.1428 0.000586332 0)
(1.14575 0.000415969 0)
(1.14881 0.000192571 0)
(1.15198 -3.97143e-05 0)
(1.15527 -0.000256603 0)
(1.15868 -0.000448405 0)
(1.16221 -0.000615104 0)
(1.16585 -0.000761913 0)
(1.1696 -0.000895659 0)
(1.17345 -0.00102238 0)
(1.17739 -0.0011462 0)
(1.18142 -0.0012692 0)
(1.18553 -0.00139183 0)
(1.1897 -0.00151349 0)
(1.19394 -0.00163299 0)
(1.19823 -0.00174889 0)
(1.20255 -0.00185976 0)
(1.2069 -0.00196427 0)
(1.21126 -0.00206133 0)
(1.21562 -0.00215005 0)
(1.21996 -0.00222982 0)
(1.22428 -0.00230028 0)
(1.22856 -0.00236124 0)
(1.23279 -0.00241266 0)
(1.23696 -0.00245454 0)
(1.24106 -0.00248686 0)
(1.24508 -0.0025096 0)
(1.24902 -0.00252269 0)
(1.25285 -0.00252605 0)
(1.25659 -0.00251959 0)
(1.26021 -0.00250323 0)
(1.26371 -0.00247691 0)
(1.26708 -0.00244054 0)
(1.2703 -0.00239398 0)
(1.27339 -0.00233696 0)
(1.27631 -0.00226916 0)
(1.27907 -0.00219006 0)
(1.28165 -0.00209894 0)
(1.28405 -0.00199457 0)
(1.28625 -0.00187474 0)
(1.28823 -0.00173532 0)
(1.28998 -0.00156841 0)
(1.29146 -0.00135862 0)
(1.29263 -0.00107868 0)
(1.29343 -0.000698526 0)
(1.29374 -0.000254562 0)
(1.29354 9.41668e-05 0)
(1.29296 0.000324753 0)
(1.2921 0.000496189 0)
(1.29098 0.000657434 0)
(1.2896 0.000823789 0)
(1.28795 0.000993036 0)
(1.28604 0.00116051 0)
(1.28387 0.00132352 0)
(1.28143 0.00148079 0)
(1.27873 0.00163148 0)
(1.27579 0.00177484 0)
(1.2726 0.00191024 0)
(1.26917 0.00203726 0)
(1.26552 0.00215568 0)
(1.26164 0.00226549 0)
(1.25754 0.0023669 0)
(1.25324 0.00246031 0)
(1.24874 0.00254628 0)
(1.24405 0.00262554 0)
(1.23918 0.0026989 0)
(1.23414 0.00276724 0)
(1.22893 0.00283145 0)
(1.22356 0.00289238 0)
(1.21804 0.00295077 0)
(1.21238 0.00300725 0)
(1.20658 0.00306224 0)
(1.20064 0.00311601 0)
(1.19456 0.00316855 0)
(1.18837 0.00321965 0)
(1.18204 0.00326878 0)
(1.1756 0.00331505 0)
(1.16904 0.00335715 0)
(1.16237 0.00339334 0)
(1.15559 0.00342141 0)
(1.14873 0.00343888 0)
(1.14178 0.00344317 0)
(1.13476 0.00343178 0)
(1.1277 0.00340306 0)
(1.12059 0.00335764 0)
(1.11346 0.00330006 0)
(1.10631 0.00324004 0)
(1.09913 0.00319241 0)
(1.09191 0.00317439 0)
(1.0846 0.00320047 0)
(1.07719 0.00327619 0)
(1.06963 0.00339271 0)
(1.06193 0.00352688 0)
(1.05408 0.00364805 0)
(1.04611 0.0037293 0)
(1.03806 0.00375906 0)
(1.02995 0.00374725 0)
(1.02176 0.00372213 0)
(1.01345 0.00371769 0)
(1.00498 0.00375645 0)
(0.99627 0.00383696 0)
(0.987268 0.00393411 0)
(0.97795 0.0040125 0)
(0.968316 0.00404517 0)
(0.958385 0.00402734 0)
(0.948168 0.00397909 0)
(0.937659 0.00393757 0)
(0.92682 0.00394447 0)
(0.915585 0.00403453 0)
(0.903875 0.00422687 0)
(0.891618 0.00451761 0)
(0.878788 0.00487536 0)
(0.86545 0.00524466 0)
(0.851776 0.00554158 0)
(0.838032 0.00565873 0)
(0.824529 0.00554448 0)
(0.811548 0.00526009 0)
(0.799241 0.00496369 0)
(0.787567 0.00483329 0)
(0.776304 0.00497002 0)
(0.76515 0.0053449 0)
(0.753835 0.00582487 0)
(0.742215 0.00624128 0)
(0.730292 0.00645101 0)
(0.718186 0.00637995 0)
(0.706082 0.00604265 0)
(0.694181 0.00552989 0)
(0.682656 0.00496484 0)
(0.671628 0.00445228 0)
(0.661165 0.00404974 0)
(0.651282 0.00377113 0)
(0.64195 0.00361147 0)
(0.633085 0.00356961 0)
(0.62454 0.00365096 0)
(0.616113 0.00385193 0)
(0.60759 0.00414469 0)
(0.598796 0.0044723 0)
(0.589649 0.00475213 0)
(0.580163 0.00490834 0)
(0.570427 0.00491236 0)
(0.560555 0.00479308 0)
(0.550642 0.00461519 0)
(0.540744 0.00443935 0)
(0.530884 0.00429406 0)
(0.521068 0.00417577 0)
(0.51131 0.00406857 0)
(0.501626 0.00396369 0)
(0.492036 0.00386608 0)
(0.48255 0.00378842 0)
(0.473169 0.00374111 0)
(0.463882 0.00372623 0)
(0.454672 0.0037375 0)
(0.445522 0.00376426 0)
(0.436419 0.00379586 0)
(0.427352 0.00382459 0)
(0.418313 0.00384651 0)
(0.409299 0.00386089 0)
(0.400304 0.00386897 0)
(0.391328 0.00387265 0)
(0.382366 0.00387337 0)
(0.373417 0.00387138 0)
(0.364482 0.00386511 0)
(0.355564 0.00385071 0)
(0.346673 0.00382185 0)
(0.337825 0.00377073 0)
(0.32904 0.00369129 0)
(0.320339 0.00358326 0)
(0.311731 0.00345384 0)
(0.303209 0.00331372 0)
(0.294756 0.00316918 0)
(0.286349 0.00301645 0)
(0.277982 0.00284349 0)
(0.269669 0.0026388 0)
(0.26144 0.00240028 0)
(0.253324 0.00213774 0)
(0.245349 0.00186824 0)
(0.237527 0.00160818 0)
(0.229869 0.00136737 0)
(0.222378 0.00114808 0)
(0.21506 0.000948465 0)
(0.207919 0.000767415 0)
(0.200959 0.00060754 0)
(0.194185 0.00047477 0)
(0.187608 0.000375531 0)
(0.181243 0.000313656 0)
(0.175122 0.000288676 0)
(0.169291 0.000295866 0)
(0.163814 0.000326997 0)
(0.158768 0.000371549 0)
(0.154233 0.000420352 0)
(0.150276 0.000467492 0)
(0.14695 0.000508264 0)
(0.144273 0.000572995 0)
(0.142198 0.000857985 0)
(0.140293 0.00167053 0)
(0.137902 0.00296681 0)
(0.1347 0.00424076 0)
(0.13078 0.00505811 0)
(0.126376 0.00536663 0)
(0.121636 0.00534059 0)
(0.116575 0.00517972 0)
(0.111125 0.00502915 0)
(0.10521 0.00493921 0)
(0.0987852 0.00489863 0)
(0.0918421 0.0048824 0)
(0.0843989 0.00486235 0)
(0.0764996 0.00480625 0)
(0.0682181 0.00468153 0)
(0.0596647 0.00446013 0)
(0.0509785 0.00412605 0)
(0.0423176 0.00367534 0)
(0.0338478 0.00311418 0)
(0.0257316 0.00245605 0)
(0.0181229 0.00171751 0)
(0.0111677 0.000914517 0)
(0.00500908 6.13565e-05 0)
(-0.000221318 -0.000830506 0)
(-0.00436288 -0.0017379 0)
(-0.00726409 -0.00265888 0)
(-0.00880636 -0.003555 0)
(-0.00889142 -0.00435335 0)
(-0.00748929 -0.00485777 0)
(-0.00494678 -0.00491438 0)
(-0.00195054 -0.00450552 0)
(0.000758298 -0.00367171 0)
(0.00157694 -0.00265837 0)
(0.00123682 -0.00182698 0)
(-0.0083762 0.0107465 0)
(-0.0150887 0.00568242 0)
(-0.0225932 0.00584619 0)
(-0.0318193 0.00633181 0)
(-0.0412848 0.00647634 0)
(-0.0514837 0.00672174 0)
(-0.0622979 0.00718602 0)
(-0.0738776 0.00781567 0)
(-0.0860998 0.00850664 0)
(-0.0987924 0.00917192 0)
(-0.111724 0.00974508 0)
(-0.124655 0.0101811 0)
(-0.137373 0.0104593 0)
(-0.149716 0.0105832 0)
(-0.161592 0.0105744 0)
(-0.17297 0.0104676 0)
(-0.183871 0.0103026 0)
(-0.194348 0.0101168 0)
(-0.204468 0.00993997 0)
(-0.214294 0.00979107 0)
(-0.223879 0.00967777 0)
(-0.233254 0.00959817 0)
(-0.24243 0.00954261 0)
(-0.251401 0.0094963 0)
(-0.260154 0.00944322 0)
(-0.268676 0.00936957 0)
(-0.276965 0.00926682 0)
(-0.28504 0.00913421 0)
(-0.292942 0.00898024 0)
(-0.300736 0.00882278 0)
(-0.308505 0.00868684 0)
(-0.316339 0.00859969 0)
(-0.324312 0.00858427 0)
(-0.33246 0.00865157 0)
(-0.340762 0.00879458 0)
(-0.349134 0.00898677 0)
(-0.357434 0.00918649 0)
(-0.365495 0.0093465 0)
(-0.373159 0.00942601 0)
(-0.380313 0.00940113 0)
(-0.386914 0.00927012 0)
(-0.392991 0.00905096 0)
(-0.398631 0.00877136 0)
(-0.403949 0.00845998 0)
(-0.409058 0.00814133 0)
(-0.414049 0.00783197 0)
(-0.418975 0.00753986 0)
(-0.423854 0.00726531 0)
(-0.428665 0.00700285 0)
(-0.433371 0.00674377 0)
(-0.437922 0.00647873 0)
(-0.442273 0.0062 0)
(-0.446385 0.00590266 0)
(-0.450233 0.00558469 0)
(-0.453804 0.00524677 0)
(-0.457098 0.00489213 0)
(-0.460123 0.00452636 0)
(-0.462893 0.00415652 0)
(-0.465424 0.00379022 0)
(-0.467737 0.00343477 0)
(-0.469851 0.00309679 0)
(-0.471784 0.00278188 0)
(-0.473551 0.00249378 0)
(-0.475164 0.00223361 0)
(-0.476631 0.00199963 0)
(-0.477954 0.00178734 0)
(-0.479135 0.00158988 0)
(-0.480166 0.00139904 0)
(-0.481042 0.00120637 0)
(-0.481751 0.00100345 0)
(-0.482283 0.000782962 0)
(-0.482626 0.000540257 0)
(-0.482773 0.000272528 0)
(-0.482709 -2.42448e-05 0)
(-0.482435 -0.000346665 0)
(-0.481934 -0.000680994 0)
(-0.481185 -0.00102655 0)
(-0.480171 -0.00138147 0)
(-0.478874 -0.0017436 0)
(-0.477275 -0.00211168 0)
(-0.475356 -0.00248526 0)
(-0.473105 -0.00286425 0)
(-0.470512 -0.00324892 0)
(-0.467577 -0.00363973 0)
(-0.464303 -0.00403684 0)
(-0.460701 -0.00443984 0)
(-0.456782 -0.0048482 0)
(-0.452557 -0.00526155 0)
(-0.448037 -0.00568007 0)
(-0.443229 -0.00610476 0)
(-0.438139 -0.00653705 0)
(-0.432769 -0.00697792 0)
(-0.427119 -0.00742818 0)
(-0.421188 -0.00788929 0)
(-0.414974 -0.00836312 0)
(-0.408475 -0.00885136 0)
(-0.401688 -0.00935581 0)
(-0.394605 -0.00987885 0)
(-0.387215 -0.0104232 0)
(-0.379504 -0.010991 0)
(-0.371454 -0.0115831 0)
(-0.36305 -0.0121962 0)
(-0.35428 -0.0128206 0)
(-0.345141 -0.0134376 0)
(-0.335639 -0.0140196 0)
(-0.325795 -0.0145346 0)
(-0.315642 -0.0149497 0)
(-0.305229 -0.0152357 0)
(-0.29462 -0.0153761 0)
(-0.283889 -0.0153717 0)
(-0.273112 -0.0152382 0)
(-0.262355 -0.0150089 0)
(-0.251667 -0.0147334 0)
(-0.241073 -0.0144705 0)
(-0.230552 -0.0142658 0)
(-0.220043 -0.0141612 0)
(-0.209445 -0.0141783 0)
(-0.198635 -0.0143199 0)
(-0.187496 -0.0145728 0)
(-0.175915 -0.0149214 0)
(-0.163787 -0.0153515 0)
(-0.151033 -0.0158518 0)
(-0.137593 -0.0164158 0)
(-0.12344 -0.0170528 0)
(-0.108582 -0.0177607 0)
(-0.0930617 -0.0185317 0)
(-0.0769749 -0.0193298 0)
(-0.0604813 -0.0200874 0)
(-0.0438141 -0.0207195 0)
(-0.027265 -0.0211622 0)
(-0.0111196 -0.0214278 0)
(0.0044583 -0.0216827 0)
(0.0195669 -0.0222828 0)
(0.0346286 -0.0236949 0)
(0.0503462 -0.0263659 0)
(0.0676461 -0.0305047 0)
(0.0875839 -0.0355733 0)
(0.111244 -0.0400256 0)
(0.139647 -0.0415094 0)
(0.173364 -0.0379966 0)
(0.211687 -0.0298189 0)
(0.251938 -0.0210319 0)
(0.285919 -0.0163637 0)
(0.309078 -0.0154529 0)
(0.321882 -0.015026 0)
(0.324569 -0.0135007 0)
(0.319987 -0.0109631 0)
(0.312604 -0.00879285 0)
(0.306765 -0.00849321 0)
(0.305646 -0.0105234 0)
(0.310646 -0.0141857 0)
(0.321307 -0.0183651 0)
(0.33634 -0.0221064 0)
(0.354513 -0.0248328 0)
(0.374812 -0.0263372 0)
(0.396419 -0.0266831 0)
(0.418643 -0.0261018 0)
(0.440842 -0.0249084 0)
(0.462415 -0.0234319 0)
(0.482893 -0.0219427 0)
(0.502006 -0.0206252 0)
(0.519721 -0.0195912 0)
(0.53624 -0.0188907 0)
(0.55194 -0.0185209 0)
(0.567259 -0.0184352 0)
(0.582585 -0.0185538 0)
(0.598184 -0.0187761 0)
(0.614188 -0.0190011 0)
(0.63061 -0.019146 0)
(0.647371 -0.0191563 0)
(0.664329 -0.0190091 0)
(0.681303 -0.0187094 0)
(0.698103 -0.0182815 0)
(0.714546 -0.01776 0)
(0.730477 -0.0171813 0)
(0.74578 -0.0165788 0)
(0.760384 -0.0159805 0)
(0.774263 -0.0154084 0)
(0.787433 -0.0148783 0)
(0.799945 -0.0144007 0)
(0.811876 -0.0139807 0)
(0.823319 -0.0136183 0)
(0.834375 -0.0133093 0)
(0.845145 -0.0130469 0)
(0.855725 -0.0128234 0)
(0.866203 -0.0126321 0)
(0.876655 -0.0124697 0)
(0.887142 -0.0123366 0)
(0.897712 -0.0122368 0)
(0.908393 -0.012176 0)
(0.919194 -0.0121588 0)
(0.930101 -0.0121856 0)
(0.941077 -0.0122505 0)
(0.952061 -0.0123399 0)
(0.962974 -0.0124332 0)
(0.973719 -0.0125044 0)
(0.984196 -0.0125253 0)
(0.994304 -0.0124696 0)
(1.00396 -0.0123185 0)
(1.01312 -0.0120664 0)
(1.02179 -0.0117267 0)
(1.03002 -0.011334 0)
(1.03796 -0.0109414 0)
(1.04577 -0.0106094 0)
(1.05363 -0.0103871 0)
(1.06169 -0.0102922 0)
(1.07002 -0.0102976 0)
(1.07861 -0.0103326 0)
(1.08736 -0.0103011 0)
(1.09609 -0.0101129 0)
(1.10462 -0.00971592 0)
(1.11278 -0.00911838 0)
(1.12051 -0.00839064 0)
(1.12779 -0.00764403 0)
(1.1347 -0.00699202 0)
(1.14134 -0.00650914 0)
(1.14774 -0.00620885 0)
(1.1538 -0.00605629 0)
(1.15929 -0.00601246 0)
(1.16395 -0.00608093 0)
(1.16758 -0.00631894 0)
(1.17015 -0.00679152 0)
(1.17178 -0.00748698 0)
(1.17255 -0.00824345 0)
(1.17248 -0.00881609 0)
(1.17147 -0.00893691 0)
(1.16954 -0.0084983 0)
(1.167 -0.00766544 0)
(1.16465 -0.00681903 0)
(1.1637 -0.00628911 0)
(1.16563 -0.00586873 0)
(1.17221 -0.00478357 0)
(1.1853 -0.00291796 0)
(1.20276 -0.00134159 0)
(1.21938 -0.000480856 0)
(1.23181 6.10501e-05 0)
(1.23926 0.000807395 0)
(1.24261 0.00188289 0)
(1.24335 0.00313573 0)
(1.24283 0.00441124 0)
(1.24185 0.00554274 0)
(1.24094 0.00647219 0)
(1.24051 0.00724373 0)
(1.24099 0.0079296 0)
(1.24275 0.00859204 0)
(1.24608 0.00927294 0)
(1.25114 0.00999528 0)
(1.25789 0.0107619 0)
(1.26609 0.011543 0)
(1.27529 0.0122668 0)
(1.28481 0.0128232 0)
(1.29383 0.0130595 0)
(1.30156 0.0128729 0)
(1.30735 0.0122577 0)
(1.31065 0.0112694 0)
(1.31112 0.0100472 0)
(1.30864 0.00879931 0)
(1.30331 0.00776705 0)
(1.29565 0.00716126 0)
(1.28649 0.00704325 0)
(1.27613 0.00709899 0)
(1.26498 0.0070768 0)
(1.25355 0.00685008 0)
(1.24246 0.00630934 0)
(1.23251 0.00537057 0)
(1.22451 0.00401144 0)
(1.21909 0.00233677 0)
(1.21651 0.000494589 0)
(1.21665 -0.00130656 0)
(1.21908 -0.00285447 0)
(1.22322 -0.00402439 0)
(1.22841 -0.00479111 0)
(1.23412 -0.00521029 0)
(1.23997 -0.00538265 0)
(1.24573 -0.00541361 0)
(1.25128 -0.00538633 0)
(1.25662 -0.00535274 0)
(1.26176 -0.00533697 0)
(1.26675 -0.00534427 0)
(1.27164 -0.00536997 0)
(1.27647 -0.00540609 0)
(1.28126 -0.00544483 0)
(1.28603 -0.00547997 0)
(1.29076 -0.005507 0)
(1.29547 -0.00552285 0)
(1.30012 -0.0055255 0)
(1.30471 -0.00551368 0)
(1.30923 -0.00548668 0)
(1.31365 -0.00544422 0)
(1.31798 -0.00538633 0)
(1.32218 -0.00531334 0)
(1.32626 -0.00522586 0)
(1.33019 -0.00512482 0)
(1.33396 -0.00501133 0)
(1.33755 -0.0048867 0)
(1.34096 -0.00475224 0)
(1.34417 -0.00460925 0)
(1.34718 -0.00445889 0)
(1.34996 -0.00430213 0)
(1.35253 -0.0041397 0)
(1.35488 -0.00397216 0)
(1.357 -0.00379986 0)
(1.3589 -0.00362304 0)
(1.36058 -0.00344188 0)
(1.36206 -0.00325648 0)
(1.36333 -0.00306692 0)
(1.3644 -0.00287325 0)
(1.36528 -0.00267547 0)
(1.36597 -0.00247346 0)
(1.36649 -0.00226701 0)
(1.36683 -0.00205569 0)
(1.36702 -0.0018388 0)
(1.36706 -0.00161531 0)
(1.36696 -0.0013836 0)
(1.36675 -0.00114103 0)
(1.36644 -0.000882835 0)
(1.36608 -0.000599313 0)
(1.36573 -0.000274551 0)
(1.36551 9.71217e-05 0)
(1.36547 0.000438475 0)
(1.36547 0.000723364 0)
(1.3654 0.00098214 0)
(1.36522 0.00123987 0)
(1.36492 0.00150326 0)
(1.36452 0.00177091 0)
(1.364 0.00204059 0)
(1.36335 0.00231109 0)
(1.36258 0.00258185 0)
(1.36167 0.00285245 0)
(1.36061 0.00312233 0)
(1.3594 0.00339083 0)
(1.35802 0.00365722 0)
(1.35647 0.00392072 0)
(1.35475 0.00418052 0)
(1.35284 0.00443581 0)
(1.35075 0.00468578 0)
(1.34846 0.00492967 0)
(1.34598 0.00516679 0)
(1.34331 0.00539657 0)
(1.34044 0.00561855 0)
(1.33739 0.00583247 0)
(1.33415 0.00603823 0)
(1.33074 0.00623596 0)
(1.32715 0.006426 0)
(1.32339 0.00660889 0)
(1.31948 0.00678533 0)
(1.31541 0.00695611 0)
(1.31119 0.00712205 0)
(1.30683 0.00728387 0)
(1.30233 0.00744209 0)
(1.29768 0.00759696 0)
(1.29289 0.00774835 0)
(1.28795 0.00789575 0)
(1.28286 0.00803828 0)
(1.27759 0.0081749 0)
(1.27214 0.00830446 0)
(1.2665 0.00842596 0)
(1.26065 0.00853915 0)
(1.25458 0.008645 0)
(1.24829 0.00874598 0)
(1.24181 0.00884572 0)
(1.23516 0.00894799 0)
(1.22839 0.00905529 0)
(1.22155 0.00916777 0)
(1.21469 0.00928279 0)
(1.20782 0.00939632 0)
(1.20093 0.0095056 0)
(1.19398 0.00961146 0)
(1.18692 0.00971966 0)
(1.17969 0.00984111 0)
(1.17228 0.00999087 0)
(1.16471 0.0101855 0)
(1.15701 0.0104387 0)
(1.14924 0.0107575 0)
(1.14139 0.0111406 0)
(1.13342 0.011579 0)
(1.1252 0.0120588 0)
(1.1166 0.0125659 0)
(1.1075 0.0130912 0)
(1.0978 0.0136333 0)
(1.08753 0.0141982 0)
(1.07672 0.0147932 0)
(1.06549 0.0154177 0)
(1.05392 0.0160504 0)
(1.04206 0.016641 0)
(1.02991 0.0171122 0)
(1.01738 0.0173748 0)
(1.00438 0.0173489 0)
(0.99086 0.0170056 0)
(0.976886 0.0163877 0)
(0.962685 0.0156013 0)
(0.948656 0.014787 0)
(0.935295 0.0140809 0)
(0.923047 0.0135827 0)
(0.912139 0.0133429 0)
(0.902462 0.0133602 0)
(0.89359 0.0135775 0)
(0.884909 0.0138903 0)
(0.875803 0.0141725 0)
(0.865837 0.0143099 0)
(0.854846 0.0142289 0)
(0.842944 0.0139097 0)
(0.830435 0.0133825 0)
(0.817702 0.012714 0)
(0.805107 0.0119921 0)
(0.792934 0.0113137 0)
(0.781381 0.0107703 0)
(0.770551 0.0104301 0)
(0.760452 0.0103233 0)
(0.75097 0.0104373 0)
(0.741874 0.0107194 0)
(0.732864 0.0110902 0)
(0.723647 0.0114677 0)
(0.714016 0.0117904 0)
(0.703891 0.012031 0)
(0.693316 0.0121912 0)
(0.682398 0.0122877 0)
(0.671254 0.0123375 0)
(0.659966 0.0123496 0)
(0.648581 0.0123256 0)
(0.637134 0.012265 0)
(0.625666 0.0121702 0)
(0.614231 0.0120493 0)
(0.602888 0.0119144 0)
(0.591687 0.0117785 0)
(0.580657 0.0116519 0)
(0.569807 0.0115413 0)
(0.55913 0.0114489 0)
(0.548608 0.0113739 0)
(0.538226 0.011314 0)
(0.527968 0.0112663 0)
(0.517827 0.0112281 0)
(0.507797 0.0111972 0)
(0.497875 0.0111713 0)
(0.488058 0.011148 0)
(0.478339 0.0111241 0)
(0.468705 0.0110965 0)
(0.459136 0.0110622 0)
(0.449608 0.0110216 0)
(0.44009 0.0109813 0)
(0.430547 0.0109548 0)
(0.420938 0.0109587 0)
(0.411211 0.0110041 0)
(0.401296 0.0110888 0)
(0.391113 0.0111969 0)
(0.380584 0.011307 0)
(0.369645 0.0114012 0)
(0.358257 0.0114702 0)
(0.34641 0.0115107 0)
(0.334122 0.0115204 0)
(0.321433 0.011498 0)
(0.308399 0.0114436 0)
(0.295083 0.0113597 0)
(0.281556 0.0112477 0)
(0.267901 0.0111047 0)
(0.254227 0.0109211 0)
(0.240675 0.0106809 0)
(0.227419 0.0103629 0)
(0.214664 0.00994252 0)
(0.202636 0.00939598 0)
(0.191565 0.00870554 0)
(0.181669 0.0078661 0)
(0.173129 0.00689073 0)
(0.166074 0.0058116 0)
(0.160565 0.00467522 0)
(0.156598 0.00354321 0)
(0.154122 0.00253286 0)
(0.153329 0.00182568 0)
(0.154527 0.00151023 0)
(0.157624 0.00152602 0)
(0.162099 0.00172398 0)
(0.167263 0.00208824 0)
(0.172515 0.00265719 0)
(0.17734 0.00342373 0)
(0.18139 0.00432689 0)
(0.184511 0.00529033 0)
(0.186595 0.00624141 0)
(0.187565 0.00716364 0)
(0.187392 0.00804502 0)
(0.186084 0.00885511 0)
(0.183668 0.00956401 0)
(0.180184 0.0101454 0)
(0.175671 0.0105783 0)
(0.170165 0.0108491 0)
(0.16369 0.010952 0)
(0.156262 0.0108863 0)
(0.147891 0.0106513 0)
(0.138598 0.0102382 0)
(0.128424 0.00963165 0)
(0.11745 0.0088126 0)
(0.105812 0.00777708 0)
(0.0937082 0.00649996 0)
(0.0813745 0.0049993 0)
(0.0690663 0.00333721 0)
(0.0569982 0.00169524 0)
(0.0456199 0.00038913 0)
(0.0351919 -0.000109473 0)
(0.0255446 0.000724167 0)
(0.0154992 0.00247074 0)
(0.00625248 0.00425268 0)
(-0.00859195 0.0208077 0)
(-0.0155542 0.0123527 0)
(-0.023682 0.0136707 0)
(-0.0346123 0.0153201 0)
(-0.0466682 0.016235 0)
(-0.0597249 0.0171543 0)
(-0.0733421 0.0182635 0)
(-0.087409 0.019387 0)
(-0.101584 0.0203368 0)
(-0.115533 0.0209932 0)
(-0.128963 0.021308 0)
(-0.141676 0.02129 0)
(-0.153577 0.0209937 0)
(-0.164662 0.0205012 0)
(-0.175001 0.0199009 0)
(-0.184707 0.0192722 0)
(-0.193909 0.0186751 0)
(-0.202726 0.0181451 0)
(-0.211253 0.0176953 0)
(-0.219555 0.0173205 0)
(-0.227664 0.0170036 0)
(-0.235593 0.0167232 0)
(-0.24334 0.0164595 0)
(-0.250905 0.0161987 0)
(-0.258297 0.0159369 0)
(-0.265543 0.01568 0)
(-0.272687 0.0154424 0)
(-0.27979 0.0152438 0)
(-0.286919 0.0151045 0)
(-0.294133 0.0150396 0)
(-0.301467 0.0150519 0)
(-0.308914 0.0151267 0)
(-0.316417 0.0152289 0)
(-0.323868 0.0153059 0)
(-0.331118 0.0152975 0)
(-0.338007 0.0151519 0)
(-0.344396 0.0148424 0)
(-0.350198 0.0143779 0)
(-0.355402 0.0138027 0)
(-0.360072 0.0131832 0)
(-0.36433 0.0125884 0)
(-0.368331 0.0120709 0)
(-0.37223 0.0116573 0)
(-0.376154 0.011347 0)
(-0.380185 0.0111163 0)
(-0.384359 0.010929 0)
(-0.388665 0.0107475 0)
(-0.393063 0.0105405 0)
(-0.397498 0.0102877 0)
(-0.401909 0.00998025 0)
(-0.406244 0.00961934 0)
(-0.410464 0.00921298 0)
(-0.41454 0.00877291 0)
(-0.41846 0.00831159 0)
(-0.422216 0.00784032 0)
(-0.425809 0.00736869 0)
(-0.42924 0.00690467 0)
(-0.43251 0.00645457 0)
(-0.43562 0.00602281 0)
(-0.438565 0.00561187 0)
(-0.441339 0.00522207 0)
(-0.443932 0.00485161 0)
(-0.446334 0.00449696 0)
(-0.448532 0.00415329 0)
(-0.450512 0.00381419 0)
(-0.452262 0.00347167 0)
(-0.453772 0.0031183 0)
(-0.455034 0.00274933 0)
(-0.456046 0.00236217 0)
(-0.456808 0.00195479 0)
(-0.457327 0.00152612 0)
(-0.457609 0.00107567 0)
(-0.457666 0.000600774 0)
(-0.457499 0.000104732 0)
(-0.457098 -0.000429663 0)
(-0.456461 -0.00099422 0)
(-0.455584 -0.00159081 0)
(-0.454451 -0.00221869 0)
(-0.453044 -0.00287493 0)
(-0.451347 -0.00355414 0)
(-0.449349 -0.00424881 0)
(-0.447045 -0.00495011 0)
(-0.444438 -0.00564915 0)
(-0.441538 -0.00633816 0)
(-0.438363 -0.00701152 0)
(-0.434934 -0.00766636 0)
(-0.431273 -0.00830267 0)
(-0.427402 -0.00892267 0)
(-0.423338 -0.00953 0)
(-0.419095 -0.0101288 0)
(-0.414682 -0.0107226 0)
(-0.410103 -0.0113139 0)
(-0.405358 -0.0119044 0)
(-0.400445 -0.0124953 0)
(-0.39536 -0.0130879 0)
(-0.390098 -0.0136847 0)
(-0.384653 -0.0142898 0)
(-0.379019 -0.0149095 0)
(-0.373188 -0.0155507 0)
(-0.367153 -0.01622 0)
(-0.360908 -0.0169218 0)
(-0.354446 -0.0176548 0)
(-0.347759 -0.0184104 0)
(-0.340835 -0.0191709 0)
(-0.333655 -0.0199096 0)
(-0.326195 -0.0205935 0)
(-0.318424 -0.0211876 0)
(-0.310302 -0.021661 0)
(-0.301793 -0.0219967 0)
(-0.292862 -0.0221968 0)
(-0.283478 -0.0222854 0)
(-0.273619 -0.0223096 0)
(-0.263275 -0.0223341 0)
(-0.252448 -0.0224292 0)
(-0.241149 -0.0226532 0)
(-0.229393 -0.0230481 0)
(-0.217193 -0.023632 0)
(-0.204557 -0.0244053 0)
(-0.1915 -0.0253509 0)
(-0.17804 -0.0264312 0)
(-0.164209 -0.0276054 0)
(-0.150055 -0.0288303 0)
(-0.135647 -0.0300652 0)
(-0.121081 -0.0312705 0)
(-0.106468 -0.0324023 0)
(-0.0919225 -0.0334037 0)
(-0.0775661 -0.0341925 0)
(-0.0635298 -0.0346506 0)
(-0.049967 -0.0346499 0)
(-0.0370732 -0.0341101 0)
(-0.0251296 -0.0330834 0)
(-0.0144844 -0.0319089 0)
(-0.00536597 -0.0312233 0)
(0.00232962 -0.0318532 0)
(0.00904726 -0.0345755 0)
(0.0155143 -0.0397381 0)
(0.0225329 -0.046801 0)
(0.0307786 -0.053979 0)
(0.0410462 -0.0584629 0)
(0.0545605 -0.057441 0)
(0.0721525 -0.0497334 0)
(0.0928275 -0.0372097 0)
(0.113427 -0.0242948 0)
(0.130699 -0.0146326 0)
(0.144257 -0.00900152 0)
(0.156652 -0.00696934 0)
(0.17083 -0.00869082 0)
(0.188204 -0.0139143 0)
(0.208268 -0.021324 0)
(0.229366 -0.0290469 0)
(0.249931 -0.0356924 0)
(0.269225 -0.0406175 0)
(0.287196 -0.0436413 0)
(0.304122 -0.044937 0)
(0.320439 -0.0448121 0)
(0.336593 -0.0435844 0)
(0.352937 -0.0415918 0)
(0.369678 -0.0392113 0)
(0.386868 -0.0368203 0)
(0.404437 -0.0347464 0)
(0.422256 -0.0332252 0)
(0.440198 -0.0323517 0)
(0.458156 -0.0320838 0)
(0.476045 -0.0322862 0)
(0.493797 -0.0327787 0)
(0.511366 -0.0333762 0)
(0.528733 -0.0339158 0)
(0.545899 -0.0342735 0)
(0.562885 -0.0343747 0)
(0.579723 -0.0341942 0)
(0.596446 -0.0337475 0)
(0.61308 -0.0330784 0)
(0.62964 -0.032245 0)
(0.646123 -0.0313091 0)
(0.662512 -0.0303271 0)
(0.678783 -0.029346 0)
(0.694907 -0.0284021 0)
(0.710856 -0.0275215 0)
(0.726609 -0.0267223 0)
(0.742147 -0.0260156 0)
(0.757465 -0.0254075 0)
(0.772565 -0.0249002 0)
(0.787456 -0.0244921 0)
(0.802157 -0.0241788 0)
(0.816689 -0.0239537 0)
(0.83107 -0.0238075 0)
(0.845311 -0.023728 0)
(0.85941 -0.0236994 0)
(0.873343 -0.0237013 0)
(0.887063 -0.0237079 0)
(0.900502 -0.023689 0)
(0.913574 -0.0236117 0)
(0.926184 -0.0234432 0)
(0.938237 -0.0231541 0)
(0.949654 -0.0227224 0)
(0.960384 -0.0221374 0)
(0.970415 -0.0214041 0)
(0.979788 -0.0205492 0)
(0.988595 -0.019625 0)
(0.996974 -0.0187108 0)
(1.00509 -0.017905 0)
(1.01312 -0.0173085 0)
(1.0212 -0.0169987 0)
(1.02941 -0.0170035 0)
(1.03777 -0.017285 0)
(1.04621 -0.0177407 0)
(1.05463 -0.0182232 0)
(1.06293 -0.0185727 0)