/*--------------------------------*- C++ -*----------------------------------*\
| =========                 |                                                 |
| \\      /  F ield         | OpenFOAM: The Open Source CFD Toolbox           |
|  \\    /   O peration     | Version:  v2006                                 |
|   \\  /    A nd           | Website:  www.openfoam.com                      |
|    \\/     M anipulation  |                                                 |
\*---------------------------------------------------------------------------*/
FoamFile
{
    version     2.0;
    format      ascii;
    class       volScalarField;
    location    "0";
    object      f;
}
// * * * * * * * * * * * * * * * * * * * * * * * * * * * * * * * * * * * * * //

dimensions      [0 0 0 0 0 0 0];


internalField   nonuniform List<scalar> 
2500
(
-1.02758e-24
-1.02259e-24
-9.97516e-25
-9.37772e-25
-8.39195e-25
-6.96798e-25
-4.9302e-25
-2.17429e-25
9.34748e-26
3.48266e-25
4.55179e-25
3.98244e-25
2.56312e-25
1.39835e-25
1.05832e-25
1.31102e-25
1.56576e-25
1.45188e-25
1.00502e-25
4.74277e-26
7.00501e-27
-1.39402e-26
-1.9352e-26
-1.65357e-26
-1.12976e-26
-6.64942e-27
-3.48501e-27
-1.65547e-27
-7.19795e-28
-2.8777e-28
-1.05756e-28
-3.54907e-29
-1.06813e-29
-2.75308e-30
-5.23016e-31
-1.23274e-32
5.48809e-32
3.77381e-32
1.84064e-32
7.70729e-33
2.93776e-33
1.04658e-33
3.53551e-34
1.14276e-34
3.55556e-35
1.0695e-35
3.1201e-36
8.84992e-37
2.44526e-37
6.59153e-38
-4.84337e-24
-4.81991e-24
-4.69753e-24
-4.39764e-24
-3.90131e-24
-3.21284e-24
-2.29123e-24
-1.09962e-24
2.32842e-25
1.343e-24
1.83296e-24
1.60381e-24
9.74758e-25
4.35111e-25
2.63297e-25
3.78552e-25
5.20007e-25
5.10605e-25
3.53671e-25
1.52865e-25
-8.5504e-28
-7.70445e-26
-9.1582e-26
-7.46148e-26
-4.97668e-26
-2.88565e-26
-1.49716e-26
-7.06362e-27
-3.05911e-27
-1.22189e-27
-4.50373e-28
-1.52469e-28
-4.67736e-29
-1.25793e-29
-2.6984e-30
-2.81987e-31
1.31703e-31
1.18569e-31
6.20136e-32
2.6791e-32
1.0391e-32
3.74283e-33
1.27417e-33
4.14256e-34
1.29507e-34
3.91178e-35
1.14556e-35
3.26111e-36
9.04244e-37
2.44603e-37
-2.20721e-23
-2.1968e-23
-2.14015e-23
-1.99699e-23
-1.75804e-23
-1.43625e-23
-1.03089e-23
-5.31e-24
2.27971e-25
4.93794e-24
7.14599e-24
6.2911e-24
3.60324e-24
1.18651e-24
3.59579e-25
8.75222e-25
1.608e-24
1.73267e-24
1.21107e-24
4.68589e-25
-1.05787e-25
-3.7752e-25
-4.08786e-25
-3.21627e-25
-2.10333e-25
-1.20334e-25
-6.18171e-26
-2.89495e-26
-1.24717e-26
-4.96679e-27
-1.83046e-27
-6.22115e-28
-1.92906e-28
-5.318e-29
-1.21705e-29
-1.75766e-30
2.54964e-31
3.63411e-31
2.0519e-31
9.1388e-32
3.6015e-32
1.30997e-32
4.48941e-33
1.46702e-33
4.60563e-34
1.39639e-34
4.10391e-35
1.17236e-35
3.26215e-36
8.8555e-37
-9.69389e-23
-9.65046e-23
-9.40265e-23
-8.7536e-23
-7.65476e-23
-6.20512e-23
-4.47761e-23
-2.45106e-23
-2.26398e-24
1.71636e-23
2.69451e-23
2.40851e-23
1.30317e-23
2.54916e-24
-1.29434e-24
9.37821e-25
4.5158e-24
5.68499e-24
4.06226e-24
1.36987e-24
-7.47713e-25
-1.70353e-24
-1.73559e-24
-1.32949e-24
-8.54906e-25
-4.83004e-25
-2.45649e-25
-1.14104e-25
-4.8839e-26
-1.93577e-26
-7.11516e-27
-2.41873e-27
-7.53583e-28
-2.10572e-28
-4.99517e-29
-8.30274e-30
2.76552e-31
1.09811e-30
6.69528e-31
3.06341e-31
1.22331e-31
4.48416e-32
1.54486e-32
5.06858e-33
1.59681e-33
4.8573e-34
1.43222e-34
4.10524e-35
1.1463e-35
3.12307e-36
-4.09056e-22
-4.07363e-22
-3.97179e-22
-3.69296e-22
-3.21102e-22
-2.58319e-22
-1.87241e-22
-1.08225e-22
-2.22053e-23
5.55737e-23
9.81511e-23
9.02687e-23
4.6638e-23
2.5322e-24
-1.48912e-23
-5.67008e-24
1.08985e-23
1.81306e-23
1.34975e-23
3.87563e-24
-3.86568e-24
-7.20697e-24
-7.04496e-24
-5.28317e-24
-3.34653e-24
-1.8678e-24
-9.40083e-25
-4.32737e-25
-1.83786e-25
-7.23772e-26
-2.64727e-26
-8.97287e-27
-2.79577e-27
-7.85469e-28
-1.89729e-28
-3.37542e-29
-5.67676e-31
3.32318e-30
2.16355e-30
1.01001e-30
4.06996e-31
1.49942e-31
5.18324e-32
1.70527e-32
5.38634e-33
1.64295e-33
4.85889e-34
1.39729e-34
3.91557e-35
1.07086e-35
-1.65346e-21
-1.64735e-21
-1.60839e-21
-1.49531e-21
-1.29406e-21
-1.03318e-21
-7.51782e-22
-4.57229e-22
-1.38791e-22
1.62881e-22
3.44858e-22
3.32515e-22
1.67872e-22
-1.23594e-23
-8.99495e-23
-5.41827e-23
1.88722e-23
5.67505e-23
4.51215e-23
1.10362e-23
-1.71659e-23
-2.88701e-23
-2.74313e-23
-2.02151e-23
-1.26268e-23
-6.96128e-24
-3.46495e-24
-1.57893e-24
-6.64469e-25
-2.59544e-25
-9.42585e-26
-3.17631e-26
-9.85648e-27
-2.76587e-27
-6.7148e-28
-1.22745e-28
-4.66986e-30
1.02588e-29
6.94634e-30
3.27481e-30
1.32435e-30
4.88708e-31
1.6913e-31
5.57122e-32
1.76264e-32
5.38811e-33
1.59786e-33
4.61016e-34
1.29676e-34
3.56128e-35
-6.38269e-21
-6.36246e-21
-6.22579e-21
-5.79539e-21
-4.99699e-21
-3.95834e-21
-2.88938e-21
-1.84787e-21
-7.27707e-22
4.03227e-22
1.1659e-21
1.2091e-21
6.18811e-22
-9.69999e-23
-4.37965e-22
-3.10782e-22
-3.2136e-24
1.76839e-22
1.54338e-22
3.39542e-23
-6.88341e-23
-1.10192e-22
-1.02704e-22
-7.45591e-23
-4.59395e-23
-2.50037e-23
-1.22956e-23
-5.53928e-24
-2.30624e-24
-8.91807e-25
-3.20842e-25
-1.07171e-25
-3.29871e-26
-9.1885e-27
-2.21673e-27
-4.03778e-28
-1.61523e-29
3.27513e-29
2.21747e-29
1.04228e-29
4.20253e-30
1.54718e-30
5.34664e-31
1.76042e-31
5.57303e-32
1.70639e-32
5.07363e-33
1.46897e-33
4.1494e-34
1.145e-34
-2.34543e-20
-2.33937e-20
-2.29662e-20
-2.14418e-20
-1.84397e-20
-1.44792e-20
-1.05907e-20
-7.13842e-21
-3.43785e-21
6.47682e-22
3.77529e-21
4.35526e-21
2.36487e-21
-3.98333e-22
-1.87916e-21
-1.48334e-21
-2.44316e-22
5.57311e-22
5.46513e-22
1.20759e-22
-2.54746e-22
-4.02547e-22
-3.70446e-22
-2.6527e-22
-1.61172e-22
-8.65134e-23
-4.19725e-23
-1.86642e-23
-7.67351e-24
-2.93124e-24
-1.04196e-24
-3.43874e-25
-1.04522e-25
-2.87086e-26
-6.80122e-27
-1.19666e-27
-2.7824e-29
1.08168e-28
7.0166e-29
3.24249e-29
1.29409e-29
4.73196e-30
1.62811e-30
5.34832e-31
1.6924e-31
5.18842e-32
1.54695e-32
4.49702e-33
1.27674e-33
3.54376e-34
-8.17626e-20
-8.15987e-20
-8.04777e-20
-7.55258e-20
-6.4859e-20
-5.03771e-20
-3.68349e-20
-2.63232e-20
-1.50831e-20
-9.21186e-22
1.15924e-20
1.55536e-20
9.35819e-21
-9.97595e-22
-7.34353e-21
-6.39653e-21
-1.61268e-21
1.79485e-21
2.00502e-21
4.94289e-22
-8.80102e-22
-1.4129e-21
-1.28938e-21
-9.10867e-22
-5.45106e-22
-2.88109e-22
-1.37652e-22
-6.02961e-23
-2.44248e-23
-9.19289e-24
-3.21867e-24
-1.04535e-24
-3.1208e-25
-8.38366e-26
-1.92132e-26
-3.12804e-27
6.46719e-29
3.63845e-28
2.18369e-28
9.78649e-29
3.83633e-29
1.38632e-29
4.73332e-30
1.54815e-30
4.89189e-31
1.50146e-31
4.49197e-32
1.31272e-32
3.75198e-33
1.04946e-33
-2.69376e-19
-2.68966e-19
-2.66938e-19
-2.52598e-19
-2.16925e-19
-1.65943e-19
-1.20662e-19
-9.24815e-20
-6.25284e-20
-1.57134e-20
3.29743e-20
5.48618e-20
3.7768e-20
1.92787e-22
-2.65253e-20
-2.58564e-20
-8.13722e-21
5.89149e-21
7.54807e-21
2.1718e-21
-2.8583e-21
-4.78251e-21
-4.33757e-21
-3.01936e-21
-1.77616e-21
-9.22248e-22
-4.32889e-22
-1.86311e-22
-7.41496e-23
-2.74075e-23
-9.41402e-24
-2.99321e-24
-8.71323e-25
-2.26317e-25
-4.90414e-26
-6.8069e-27
8.48594e-28
1.21471e-27
6.59887e-28
2.83152e-28
1.08096e-28
3.83723e-29
1.2948e-29
4.20645e-30
1.32614e-30
4.07722e-31
1.22601e-31
3.61089e-32
1.04218e-32
2.94737e-33
-8.35241e-19
-8.34165e-19
-8.34699e-19
-8.00253e-19
-6.88675e-19
-5.1443e-19
-3.67808e-19
-3.0877e-19
-2.48136e-19
-1.01938e-19
8.17488e-20
1.89278e-19
1.52151e-19
2.07757e-20
-8.90429e-20
-1.00146e-19
-3.72236e-20
1.93703e-20
2.8772e-20
9.60313e-21
-8.77154e-21
-1.5675e-20
-1.41257e-20
-9.66184e-21
-5.56923e-21
-2.83199e-21
-1.30186e-21
-5.48729e-22
-2.1378e-22
-7.72628e-23
-2.58914e-23
-7.99918e-24
-2.24562e-24
-5.53472e-25
-1.08634e-25
-1.00759e-26
4.78947e-27
3.9105e-27
1.89979e-27
7.70106e-28
2.83186e-28
9.79042e-29
3.24509e-29
1.04362e-29
3.28076e-30
1.01239e-30
3.07216e-31
9.16899e-32
2.68895e-32
7.7379e-33
-2.42585e-18
-2.42214e-18
-2.44841e-18
-2.39803e-18
-2.07573e-18
-1.48896e-18
-1.0207e-18
-9.75398e-19
-9.53295e-19
-5.29005e-19
1.41999e-19
6.28198e-19
6.00383e-19
1.60562e-19
-2.76771e-19
-3.77005e-19
-1.63664e-19
6.20232e-20
1.09991e-19
4.14367e-20
-2.55699e-20
-4.99835e-20
-4.4602e-20
-2.9833e-20
-1.67734e-20
-8.31797e-21
-3.72954e-21
-1.53285e-21
-5.81673e-22
-2.0428e-22
-6.62337e-23
-1.96468e-23
-5.21785e-24
-1.17591e-24
-1.87255e-25
3.68474e-27
2.03997e-26
1.17765e-26
5.05848e-27
1.89959e-27
6.59937e-28
2.18474e-28
7.02421e-29
2.2215e-29
6.96439e-30
2.17079e-30
6.72198e-31
2.06111e-31
6.23138e-32
1.84996e-32
-6.56433e-18
-6.54772e-18
-6.69295e-18
-6.80469e-18
-5.97056e-18
-3.97819e-18
-2.45639e-18
-2.88404e-18
-3.57349e-18
-2.47024e-18
-9.44642e-20
1.95405e-18
2.29566e-18
8.9375e-19
-7.8017e-19
-1.39058e-18
-7.07606e-19
1.86014e-19
4.20775e-19
1.73377e-19
-7.14336e-20
-1.55983e-19
-1.36757e-19
-8.87848e-20
-4.8382e-20
-2.32667e-20
-1.01196e-20
-4.0315e-21
-1.47934e-21
-4.99983e-22
-1.54664e-22
-4.30773e-23
-1.03898e-23
-1.93757e-24
-1.37553e-25
1.02823e-25
7.19911e-26
3.18931e-26
1.17702e-26
3.90794e-27
1.21426e-27
3.63987e-28
1.08346e-28
3.28581e-29
1.0309e-29
3.34378e-30
1.1058e-30
3.6608e-31
1.19442e-31
3.80096e-32
-1.64473e-17
-1.63716e-17
-1.6881e-17
-1.84172e-17
-1.66543e-17
-9.60292e-18
-4.36962e-18
-7.73584e-18
-1.30609e-17
-1.0775e-17
-2.58649e-18
5.44917e-18
8.513e-18
4.25115e-18
-1.86877e-18
-5.03504e-18
-3.02445e-18
4.83873e-19
1.61867e-18
7.07315e-19
-1.95561e-19
-4.80187e-19
-4.0777e-19
-2.54107e-19
-1.33034e-19
-6.15695e-20
-2.57812e-20
-9.86875e-21
-3.4613e-21
-1.10671e-21
-3.17629e-22
-7.88425e-23
-1.52396e-23
-1.28234e-24
6.86743e-25
4.98572e-25
2.12743e-25
7.19006e-26
2.03518e-26
4.7728e-27
8.4452e-28
6.42774e-29
-2.75361e-29
-1.59068e-29
-4.542e-30
-5.12859e-31
2.9748e-31
2.62322e-31
1.34128e-31
5.56384e-32
-3.78664e-17
-3.75672e-17
-3.85911e-17
-4.84396e-17
-4.6693e-17
-1.94198e-17
3.03993e-20
-1.71616e-17
-4.58056e-17
-4.44465e-17
-1.67291e-17
1.24402e-17
3.10927e-17
1.8462e-17
-2.98902e-18
-1.78054e-17
-1.27648e-17
8.09471e-19
6.32254e-18
2.84377e-18
-5.57145e-19
-1.47478e-18
-1.18366e-18
-6.96496e-19
-3.46072e-19
-1.52531e-19
-6.08109e-20
-2.20484e-20
-7.23401e-21
-2.10902e-21
-5.21718e-22
-9.49459e-23
-3.46005e-24
7.20034e-24
4.32814e-24
1.68485e-24
4.97567e-25
1.0223e-25
3.44135e-27
-1.01563e-26
-6.82837e-27
-3.13205e-27
-1.19667e-27
-4.03318e-28
-1.2245e-28
-3.36178e-29
-8.24882e-30
-1.73834e-30
-2.75548e-31
-1.03025e-32
-7.92459e-17
-7.83096e-17
-7.69552e-17
-1.27832e-16
-1.40114e-16
-1.77923e-17
6.00055e-17
-2.21288e-17
-1.47733e-16
-1.75969e-16
-8.16661e-17
1.80866e-17
1.16206e-16
7.74265e-17
2.18454e-18
-5.99575e-17
-5.3499e-17
-1.67253e-18
2.54428e-17
1.14602e-17
-1.86659e-18
-4.58903e-18
-3.34418e-18
-1.8138e-18
-8.40803e-19
-3.47562e-19
-1.29546e-19
-4.32736e-20
-1.26274e-20
-2.99834e-21
-4.37368e-22
6.42373e-23
8.54869e-23
4.31546e-23
1.57576e-23
4.31861e-24
6.80697e-25
-1.40262e-25
-1.88264e-25
-1.08958e-25
-4.91309e-26
-1.92331e-26
-6.80378e-27
-2.21619e-27
-6.70872e-28
-1.89412e-28
-4.98201e-29
-1.21221e-29
-2.68205e-30
-5.17828e-31
-1.48005e-16
-1.46018e-16
-1.20906e-16
-3.47853e-16
-4.92664e-16
2.00636e-16
5.23064e-16
2.89089e-17
-6.85866e-16
-7.14199e-16
-3.7086e-16
-2.23515e-18
7.78458e-16
3.48812e-16
3.72992e-17
-1.86504e-16
-2.36588e-16
-2.57847e-17
1.09162e-16
4.78275e-17
-8.29155e-18
-1.47226e-17
-9.15043e-18
-4.4152e-18
-1.86292e-18
-7.04685e-19
-2.3677e-19
-6.78202e-20
-1.45633e-20
-9.00307e-22
1.25815e-21
9.19903e-22
4.27192e-22
1.54392e-22
4.30744e-23
7.14654e-24
-1.30799e-24
-1.94786e-24
-1.17955e-24
-5.54619e-25
-2.26638e-25
-8.39132e-26
-2.87222e-26
-9.18897e-27
-2.7648e-27
-7.84784e-28
-2.10268e-28
-5.30643e-29
-1.25395e-29
-2.74033e-30
-2.37961e-16
-2.36934e-16
-9.84714e-17
-1.11114e-15
-1.63963e-15
3.36321e-15
2.48681e-15
-6.72461e-15
-1.36744e-14
-2.50062e-15
-1.66513e-15
2.48908e-14
1.14644e-14
1.39369e-15
-1.8404e-16
-3.00802e-15
-1.35183e-15
-1.38198e-16
7.01948e-16
2.18965e-16
-4.90405e-17
-4.9311e-17
-2.37381e-17
-9.67597e-18
-3.57951e-18
-1.1795e-18
-3.21136e-19
-5.4722e-20
8.70617e-21
1.41568e-20
8.59081e-21
3.89048e-21
1.43805e-21
4.26583e-22
8.50581e-23
-3.67517e-24
-1.53307e-23
-1.04241e-23
-5.22958e-24
-2.24927e-24
-8.72348e-25
-3.12334e-25
-1.04572e-25
-3.29928e-26
-9.85503e-27
-2.79438e-27
-7.5291e-28
-1.92641e-28
-4.66807e-29
-1.06512e-29
-3.07374e-16
-3.15946e-16
2.7338e-16
-8.55876e-15
9.25407e-15
1.54405e-14
-1.73645e-13
-2.87884e-13
-7.9893e-14
5.10543e-13
4.53096e-13
1.73083e-13
4.56832e-14
-1.84468e-13
-1.08487e-13
-3.46566e-14
-5.10451e-15
1.63137e-14
7.7585e-15
8.68082e-16
-4.2061e-16
-1.70187e-16
-5.38356e-17
-1.72124e-17
-5.20953e-18
-1.25953e-18
-9.71692e-20
1.40303e-19
1.23587e-19
6.98086e-20
3.17819e-20
1.22014e-20
3.88627e-21
9.16805e-22
6.26116e-23
-9.56678e-23
-7.91285e-23
-4.31806e-23
-1.96812e-23
-8.00974e-24
-2.99617e-24
-1.04609e-24
-3.44033e-25
-1.07195e-25
-3.17622e-26
-8.97024e-27
-2.4173e-27
-6.21531e-28
-1.5226e-28
-3.54225e-29
7.59805e-13
7.40549e-14
5.74634e-15
-4.77675e-14
6.89274e-13
-6.65186e-13
-4.18773e-12
-1.42297e-12
4.29275e-12
5.67975e-12
3.93771e-12
-6.56733e-13
-4.06242e-12
-2.10031e-12
-5.74193e-13
-1.02672e-13
3.97298e-13
2.07714e-13
2.90823e-14
-1.32856e-14
-4.1553e-15
-4.41148e-16
-7.0888e-17
-1.59494e-17
-2.63604e-18
8.35289e-19
1.26994e-18
9.02445e-19
4.96159e-19
2.30889e-19
9.28316e-20
3.17553e-20
8.57041e-21
1.24698e-21
-4.42538e-22
-5.23858e-22
-3.18439e-22
-1.54948e-22
-6.63262e-23
-2.59194e-23
-9.42185e-24
-3.22065e-24
-1.0424e-24
-3.20914e-25
-9.42612e-26
-2.64679e-26
-7.11223e-27
-1.82921e-27
-4.4992e-28
-1.05607e-28
8.8125e-12
5.72949e-12
5.29719e-12
4.17986e-12
2.65371e-12
-1.1755e-11
-1.2084e-11
-1.37576e-12
2.89849e-11
1.37289e-11
9.91541e-12
-6.56391e-11
-3.00262e-11
-5.66415e-12
-5.5715e-13
7.83342e-12
3.95659e-12
6.40985e-13
-3.58775e-13
-1.33206e-13
-1.18303e-14
4.90994e-16
1.20603e-16
2.94727e-17
1.35347e-17
8.9782e-18
5.62542e-18
3.07687e-18
1.47995e-18
6.27531e-19
2.30736e-19
6.96861e-20
1.4087e-20
-9.33971e-22
-3.01284e-21
-2.11474e-21
-1.1088e-21
-5.00698e-22
-2.04509e-22
-7.73311e-23
-2.74264e-23
-9.19766e-24
-2.9323e-24
-8.91991e-25
-2.59557e-25
-7.23684e-26
-1.93518e-26
-4.9642e-27
-1.22094e-27
-2.87455e-28
2.47727e-11
3.38001e-11
3.28722e-11
3.00524e-11
-9.205e-12
-3.23307e-11
1.36921e-10
5.3658e-10
8.55816e-11
-9.36591e-10
-9.75872e-10
-2.71486e-10
-2.97552e-11
2.82225e-10
1.9124e-10
6.74016e-11
1.0518e-11
-8.49662e-12
-3.35821e-12
-3.31082e-13
1.62218e-14
4.18148e-15
4.59747e-16
9.57269e-17
4.52437e-17
2.83899e-17
1.63073e-17
8.25775e-18
3.72467e-18
1.47915e-18
4.9549e-19
1.23189e-19
8.5069e-21
-1.46525e-20
-1.2664e-20
-7.24791e-21
-3.46624e-21
-1.48099e-21
-5.82191e-22
-2.13932e-22
-7.41913e-23
-2.44352e-23
-7.67581e-24
-2.30664e-24
-6.64499e-25
-1.83769e-25
-4.88268e-26
-1.24664e-26
-3.05716e-27
-7.19152e-28
3.63323e-11
9.61623e-11
1.03378e-10
7.25563e-11
-5.14983e-11
2.9337e-10
5.66062e-09
3.8757e-09
-3.97697e-09
-7.87955e-09
-5.60375e-09
3.46933e-10
4.74672e-09
3.20279e-09
1.03176e-09
1.60727e-10
-1.68635e-10
-7.22645e-11
-8.01944e-12
3.48376e-13
1.04288e-13
7.7836e-15
-1.13767e-16
1.11429e-17
7.90135e-17
6.8963e-17
3.96877e-17
1.91826e-17
8.25398e-18
3.07356e-18
9.00396e-19
1.39235e-19
-5.52185e-20
-6.80312e-20
-4.33569e-20
-2.20791e-20
-9.87942e-21
-4.03499e-21
-1.53392e-21
-5.4904e-22
-1.86395e-22
-6.03168e-23
-1.86686e-23
-5.54003e-24
-1.57897e-24
-4.32698e-25
-1.14079e-25
-2.89388e-26
-7.05975e-27
-1.6542e-27
5.47128e-11
1.70822e-10
3.15788e-10
1.12932e-11
1.30812e-09
1.9043e-08
2.64189e-08
9.12144e-09
-2.22891e-08
-1.58304e-08
-1.15379e-08
3.58559e-08
2.45369e-08
7.74734e-09
1.82486e-09
-2.62986e-09
-1.2491e-09
-1.64113e-10
5.87057e-12
1.91904e-12
1.65612e-13
-4.61968e-15
-1.28757e-15
-1.91809e-16
1.93749e-16
1.78699e-16
8.97614e-17
3.96716e-17
1.62925e-17
5.61589e-18
1.26478e-18
-9.96584e-20
-3.22233e-19
-2.37219e-19
-1.29717e-19
-6.08726e-20
-2.58021e-20
-1.01263e-20
-3.73158e-21
-1.30244e-21
-4.33041e-22
-1.37689e-22
-4.19801e-23
-1.22967e-23
-3.46496e-24
-9.3999e-25
-2.45597e-25
-6.17957e-26
-1.4964e-26
-3.48256e-27
9.0275e-11
1.76908e-10
4.15833e-10
-5.56724e-09
1.44639e-08
7.32522e-08
5.73243e-08
-1.80386e-07
-6.67197e-08
1.81515e-07
4.69276e-07
1.6049e-07
4.38465e-08
-4.03348e-08
-5.9432e-08
-2.19287e-08
-2.73412e-09
8.24461e-11
2.88686e-11
2.91654e-12
-6.37622e-14
-1.79772e-14
-2.37365e-15
-2.85714e-16
1.19345e-15
5.29872e-16
1.78636e-16
6.89038e-17
2.83503e-17
8.95585e-18
8.24139e-19
-1.26462e-18
-1.18165e-18
-7.05536e-19
-3.47879e-19
-1.52643e-19
-6.16067e-20
-2.32784e-20
-8.32145e-21
-2.83296e-21
-9.22496e-22
-2.88166e-22
-8.65243e-23
-2.5005e-23
-6.96107e-24
-1.86757e-24
-4.82895e-25
-1.20292e-25
-2.88421e-26
-6.64486e-27
-3.37382e-07
-5.31901e-07
-6.53746e-07
-1.8667e-07
1.97769e-08
5.04557e-08
-1.61636e-06
-1.84158e-06
5.10392e-07
3.53569e-06
3.01132e-06
2.06376e-07
-2.116e-06
-1.59321e-06
-5.41638e-07
-6.06262e-08
7.11337e-10
3.14439e-10
4.98062e-11
-4.70341e-13
-1.59108e-13
2.29892e-14
6.78931e-14
4.37238e-14
1.19715e-14
1.19331e-15
1.93547e-16
7.88684e-17
4.5158e-17
1.34902e-17
-2.65684e-18
-5.21858e-18
-3.5832e-18
-1.86434e-18
-8.41324e-19
-3.46252e-19
-1.33093e-19
-4.84003e-20
-1.67787e-20
-5.57066e-21
-1.77651e-21
-5.45182e-22
-1.61184e-22
-4.59397e-23
-1.26259e-23
-3.346e-24
-8.54683e-25
-2.10252e-25
-4.974e-26
-1.12893e-26
-3.65991e-06
-3.57848e-06
-3.65007e-06
-2.92323e-06
-2.69772e-06
-8.72129e-06
-1.32463e-05
-5.87942e-06
7.08044e-06
1.34331e-05
6.9555e-06
-1.4616e-05
-1.44547e-05
-6.57712e-06
-1.49771e-06
-4.5695e-08
8.83936e-10
4.36911e-10
5.42681e-11
-2.86047e-13
2.15152e-13
8.41229e-13
6.88941e-13
2.77309e-13
4.37266e-14
-2.86335e-16
-1.92329e-16
1.08483e-17
9.55708e-17
2.93965e-17
-1.59824e-17
-1.72261e-17
-9.68139e-18
-4.41726e-18
-1.81455e-18
-6.96752e-19
-2.5419e-19
-8.881e-20
-2.98401e-20
-9.66369e-21
-3.01978e-21
-9.10943e-22
-2.65276e-22
-7.45555e-23
-2.02126e-23
-5.28201e-24
-1.32905e-24
-3.21475e-25
-7.45662e-26
-1.6521e-26
-1.12104e-05
-9.59849e-06
-7.69994e-06
-1.18795e-05
-2.37177e-05
-4.00027e-05
-4.04917e-05
-8.15258e-06
2.97226e-05
2.46611e-05
-3.10883e-05
-7.36686e-05
-3.25931e-05
-1.04866e-05
-1.82337e-06
5.8235e-09
1.37475e-09
3.39426e-10
4.73598e-11
1.69067e-13
1.7637e-12
3.08551e-12
2.0624e-12
6.88966e-13
6.79003e-14
-2.37575e-15
-1.28891e-15
-1.14254e-16
4.59487e-16
1.20489e-16
-7.09301e-17
-5.38519e-17
-2.37445e-17
-9.1529e-18
-3.34508e-18
-1.18397e-18
-4.07871e-19
-1.36787e-19
-4.46103e-20
-1.41277e-20
-4.33795e-21
-1.28941e-21
-3.7043e-22
-1.02691e-22
-2.74252e-23
-7.04257e-24
-1.73474e-24
-4.08508e-25
-9.14956e-26
-1.93264e-26
-1.67216e-05
-1.33445e-05
-8.13184e-06
-2.36625e-05
-6.58372e-05
-7.86145e-05
-6.14762e-05
9.1959e-05
7.40467e-05
-0.000284776
-0.000577436
-0.000188759
0.000340874
0.00117638
0.00138095
0.000972791
0.000374462
3.68213e-05
1.87004e-11
3.1586e-12
5.15502e-12
5.54115e-12
3.08561e-12
8.4128e-13
2.29887e-14
-1.79844e-14
-4.62223e-15
7.78223e-15
4.18082e-15
4.90833e-16
-4.41168e-16
-1.70196e-16
-4.93162e-17
-1.47249e-17
-4.58995e-18
-1.4751e-18
-4.80293e-19
-1.56014e-19
-4.99913e-20
-1.56766e-20
-4.78264e-21
-1.41282e-21
-4.02482e-22
-1.1016e-22
-2.88574e-23
-7.20233e-24
-1.70196e-24
-3.7702e-25
-7.68927e-26
-1.3896e-26
3.89985e-05
5.91015e-05
9.20545e-05
4.4868e-06
-9.65808e-05
-4.13384e-05
0.000648973
0.000675163
-0.000822331
-0.00327062
-0.00298158
0.00280703
0.0168059
0.0325865
0.0402953
0.0375221
0.0270277
0.0146562
0.0054584
0.00100444
2.13047e-06
5.1554e-12
1.76384e-12
2.15151e-13
-1.59137e-13
-6.37758e-14
1.65598e-13
1.0428e-13
1.62203e-14
-1.18295e-14
-4.15501e-15
-4.20595e-16
-4.90442e-17
-8.2938e-18
-1.86752e-18
-5.57472e-19
-1.95663e-19
-7.14603e-20
-2.55751e-20
-8.77177e-21
-2.85782e-21
-8.79766e-22
-2.54583e-22
-6.87667e-23
-1.71408e-23
-3.85697e-24
-7.44863e-25
-1.04899e-25
-5.90219e-28
7.08099e-27
0.000954559
0.00105448
0.00114718
0.000608403
2.31293e-05
0.00158982
0.00377201
0.00217378
-0.00514601
-0.0116416
-0.0070573
0.0220523
0.0753819
0.133961
0.167234
0.163077
0.128125
0.0793764
0.0368986
0.0110336
0.00100444
3.15906e-12
1.69002e-13
-2.86142e-13
-4.70383e-13
2.91637e-12
1.91894e-12
3.48355e-13
-3.31063e-13
-1.33198e-13
-1.32847e-14
8.68012e-16
2.18946e-16
4.78231e-17
1.1459e-17
2.84343e-18
7.07231e-19
1.73363e-19
4.14379e-20
9.60587e-21
2.17353e-21
4.95123e-22
1.21108e-22
3.40876e-23
1.10838e-23
3.8916e-24
1.37498e-24
4.70152e-25
1.53324e-25
4.75579e-26
0.00350078
0.00372458
0.00381995
0.00234421
0.00172515
0.00615656
0.0108744
0.00396135
-0.0152427
-0.0271252
-0.0058359
0.0670138
0.187104
0.318082
0.399595
0.397805
0.325532
0.213026
0.107055
0.0368986
0.0054584
1.87025e-11
4.73618e-11
5.42656e-11
4.9804e-11
2.88673e-11
5.87029e-12
-8.01904e-12
-3.35804e-12
-3.58755e-13
2.90804e-14
7.75795e-15
7.01909e-16
1.09159e-16
2.5442e-17
6.32237e-18
1.61867e-18
4.20796e-19
1.10008e-19
2.87811e-20
7.55229e-21
2.0068e-21
5.47205e-22
1.5459e-22
4.52085e-23
1.3526e-23
4.07124e-24
1.21378e-24
3.54459e-25
1.00723e-25
0.00731563
0.0076912
0.0076499
0.00511891
0.00465527
0.0133242
0.0209511
0.0057416
-0.030473
-0.0457156
0.00151948
0.132683
0.333432
0.550509
0.696139
0.704218
0.593804
0.403582
0.213026
0.0793765
0.0146562
3.68216e-05
3.39445e-10
4.36922e-10
3.14434e-10
8.2443e-11
-1.64106e-10
-7.22612e-11
-8.4962e-12
6.40946e-13
2.07701e-13
1.63126e-14
-1.3818e-16
-2.57791e-17
-1.67089e-18
8.10023e-19
4.84101e-19
1.86118e-19
6.20711e-20
1.93913e-20
5.90025e-21
1.79828e-21
5.58589e-22
1.77291e-22
5.69028e-23
1.81798e-23
5.70023e-24
1.73722e-24
5.11914e-25
1.45552e-25
0.0103379
0.0108236
0.0106621
0.00721364
0.00696459
0.0195548
0.0299382
0.00651689
-0.0450899
-0.0617904
0.0118424
0.194945
0.460613
0.746563
0.951504
0.979164
0.846706
0.593804
0.325532
0.128125
0.0270277
0.000374463
1.37471e-09
8.83981e-10
7.1133e-10
-2.73398e-09
-1.24905e-09
-1.68628e-10
1.05175e-11
3.95636e-12
3.97273e-13
-5.10415e-15
-1.35173e-15
-2.36574e-16
-5.34952e-17
-1.27634e-17
-3.02392e-18
-7.07381e-19
-1.63569e-19
-3.71842e-20
-8.12155e-21
-1.60672e-21
-2.42156e-22
-2.46402e-24
1.91215e-23
1.09781e-23
4.54023e-24
1.61523e-24
5.22071e-25
1.57146e-25
0.0101752
0.0107042
0.0105753
0.00676174
0.00623468
0.0201032
0.0321327
0.006444
-0.0516195
-0.069169
0.015837
0.219382
0.507953
0.820974
1.0588
1.10979
0.979164
0.704218
0.397805
0.163077
0.0375221
0.000972789
5.8237e-09
-4.56892e-08
-6.06225e-08
-2.19277e-08
-2.62977e-09
1.60719e-10
6.7398e-11
7.83296e-12
-1.02666e-13
-3.46542e-14
-3.00781e-15
-1.86506e-16
-5.99554e-17
-1.78041e-17
-5.03435e-18
-1.39025e-18
-3.76861e-19
-1.00085e-19
-2.58323e-20
-6.38743e-21
-1.48006e-21
-3.0965e-22
-5.38087e-23
-5.55139e-24
9.74067e-25
8.85891e-25
3.81584e-25
1.31935e-25
0.00498059
0.00548036
0.00565053
0.00230738
0.000556177
0.0116226
0.0245155
0.00620012
-0.0444614
-0.0655541
0.00350218
0.182027
0.445449
0.74364
0.985959
1.0588
0.951504
0.696139
0.399595
0.167234
0.0402953
0.00138095
-1.82329e-06
-1.49765e-06
-5.41618e-07
-5.94299e-08
1.82478e-09
1.03171e-09
1.9123e-10
-5.57154e-13
-5.7416e-13
-1.08479e-13
-1.83977e-16
3.72965e-17
2.18468e-18
-2.98819e-18
-1.86812e-18
-7.79802e-19
-2.76592e-19
-8.89642e-20
-2.64932e-20
-7.33124e-21
-1.8747e-21
-4.36425e-22
-8.94408e-23
-1.47299e-23
-1.24519e-24
3.74015e-25
2.67389e-25
1.06954e-25
-0.00183418
-0.00154361
-0.000985846
-0.00277267
-0.00575341
-0.00139159
0.00957451
0.00668782
-0.0219596
-0.0483212
-0.0250179
0.0819902
0.277805
0.527086
0.74364
0.820974
0.746563
0.550509
0.318082
0.133961
0.0325865
0.00117638
-1.04864e-05
-6.57694e-06
-1.59317e-06
-4.03335e-08
7.74701e-09
3.20264e-09
2.8221e-10
-5.66394e-12
-2.10019e-12
-1.84454e-13
1.39362e-15
3.48793e-16
7.74243e-17
1.84624e-17
4.25172e-18
8.94134e-19
1.60762e-19
2.08674e-20
2.3105e-22
-9.82738e-22
-3.929e-22
-9.51137e-23
-1.17346e-23
2.73047e-24
2.6096e-24
1.20425e-24
4.40135e-25
1.4121e-25
-0.00458398
-0.00455133
-0.00389918
-0.00391585
-0.00670772
-0.00848413
-0.00253547
0.00679647
0.00212937
-0.0239715
-0.045853
-0.0174758
0.0966536
0.277805
0.445449
0.507953
0.460613
0.333432
0.187104
0.0753819
0.0168059
0.000340874
-3.25925e-05
-1.44544e-05
-2.11595e-06
4.38454e-08
2.4536e-08
4.74649e-09
-2.97627e-11
-3.00258e-11
-4.06209e-12
4.56819e-14
1.14635e-14
7.78404e-16
1.16205e-16
3.10933e-17
8.51364e-18
2.29608e-18
6.006e-19
1.52251e-19
3.781e-20
9.37454e-21
2.37087e-21
6.209e-22
1.68565e-22
4.6858e-23
1.30988e-23
3.62292e-24
9.80327e-25
2.57834e-25
-0.00211704
-0.00227509
-0.00198741
-0.00089855
-0.00185113
-0.0060524
-0.00586487
0.00495378
0.0137455
-0.00190803
-0.0409042
-0.0590889
-0.0174758
0.0819902
0.182027
0.219382
0.194945
0.132683
0.0670138
0.0220524
0.00280705
-0.000188758
-7.36676e-05
-1.46157e-05
2.06383e-07
1.60489e-07
3.58548e-08
3.4679e-10
-2.71486e-10
-6.56354e-11
-6.56332e-13
1.73088e-13
2.48875e-14
-2.22629e-18
1.80904e-17
1.2442e-17
5.45013e-18
1.95454e-18
6.28434e-19
1.89383e-19
5.49047e-20
1.55702e-20
4.3613e-21
1.21119e-21
3.33208e-22
9.04882e-23
2.41519e-23
6.31067e-24
1.60935e-24
3.99755e-25
0.00131141
0.00114253
0.000991441
0.00193032
0.00278933
0.000456239
-0.00276479
0.00108267
0.0105414
0.00911544
-0.013255
-0.0409042
-0.045853
-0.0250179
0.00350216
0.015837
0.0118424
0.00151951
-0.00583587
-0.00705727
-0.00298156
-0.000577431
-3.10878e-05
6.95539e-06
3.01127e-06
4.69266e-07
-1.15376e-08
-5.60359e-09
-9.75837e-10
9.91518e-12
3.93752e-12
4.53067e-13
-1.66494e-15
-3.70831e-16
-8.1659e-17
-1.67262e-17
-2.58523e-18
-9.38946e-20
1.42248e-19
8.18528e-20
3.30155e-20
1.16079e-20
3.78085e-21
1.1678e-21
3.45482e-22
9.83475e-23
2.70045e-23
7.16335e-24
1.83785e-24
4.56512e-25
0.00144725
0.00139825
0.00113368
0.0012822
0.00241118
0.00277397
0.000488461
-0.00184728
0.000928194
0.00769883
0.00911545
-0.00190802
-0.0239715
-0.0483212
-0.0655541
-0.069169
-0.0617904
-0.0457156
-0.0271252
-0.0116416
-0.00327061
-0.000284773
2.46607e-05
1.34329e-05
3.53564e-06
1.8151e-07
-1.583e-08
-7.87929e-09
-9.36541e-10
1.37286e-11
5.67959e-12
5.10515e-13
-2.50052e-15
-7.14173e-16
-1.75961e-16
-4.44431e-17
-1.07736e-17
-2.46963e-18
-5.28753e-19
-1.01839e-19
-1.56758e-20
-9.07552e-22
6.52425e-22
4.04812e-22
1.63391e-22
5.5732e-23
1.7211e-23
4.95166e-24
1.34684e-24
3.49308e-25
-0.00046767
-0.000403898
-0.000491916
-0.00092123
-0.000716821
0.000661434
0.000858013
-0.00187625
-0.00375235
0.000928195
0.0105414
0.0137455
0.00212937
-0.0219596
-0.0444614
-0.0516194
-0.0450899
-0.030473
-0.0152427
-0.00514603
-0.000822339
7.4045e-05
2.9722e-05
7.08034e-06
5.10398e-07
-6.67171e-08
-2.22883e-08
-3.97684e-09
8.5577e-11
2.89839e-11
4.29264e-12
-7.98886e-14
-1.36735e-14
-6.85845e-16
-1.47728e-16
-4.58025e-17
-1.30594e-17
-3.57284e-18
-9.53036e-19
-2.48038e-19
-6.2493e-20
-1.5071e-20
-3.43381e-21
-7.26412e-22
-1.38389e-22
-2.20846e-23
-2.22872e-24
2.37972e-25
2.35599e-25
9.42142e-26
-0.00118945
-0.00114099
-0.00109802
-0.00137399
-0.00166629
-0.00111303
-0.000134294
-0.000416947
-0.00187625
-0.00184728
0.00108267
0.00495377
0.00679646
0.00668783
0.00620015
0.00644402
0.00651689
0.00574158
0.00396132
0.00217376
0.000675153
9.19568e-05
-8.15289e-06
-5.87948e-06
-1.84157e-06
-1.8038e-07
9.12124e-09
3.87561e-09
5.36566e-10
-1.37584e-12
-1.42293e-12
-2.87872e-13
-6.72405e-15
2.8912e-17
-2.21236e-17
-1.7158e-17
-7.734e-18
-2.88323e-18
-9.75077e-19
-3.08652e-19
-9.24413e-20
-2.63101e-20
-7.13434e-21
-1.84664e-21
-4.56873e-22
-1.08124e-22
-2.44826e-23
-5.30241e-24
-1.0976e-24
-2.16904e-25
-0.000727786
-0.00072712
-0.000740844
-0.000764496
-0.000748302
-0.000737633
-0.000681042
-0.000134298
0.000858012
0.000488469
-0.00276478
-0.00586488
-0.00253549
0.00957453
0.0245156
0.0321328
0.0299382
0.0209511
0.0108743
0.00377199
0.000648964
-6.14776e-05
-4.04924e-05
-1.32465e-05
-1.61637e-06
5.73229e-08
2.64183e-08
5.66052e-09
1.36923e-10
-1.20837e-11
-4.18765e-12
-1.73646e-13
2.48657e-15
5.23048e-16
6.00153e-17
3.66923e-20
-4.36657e-18
-2.4551e-18
-1.02021e-18
-3.67634e-19
-1.20605e-19
-3.68171e-20
-1.05854e-20
-2.88789e-21
-7.51372e-22
-1.87132e-22
-4.47478e-23
-1.03017e-23
-2.28942e-24
-4.9257e-25
-0.000841152
-0.000834933
-0.000954314
-0.00106635
-0.00073085
-0.000307348
-0.000737634
-0.00111304
0.000661433
0.00277398
0.000456242
-0.00605242
-0.00848415
-0.00139157
0.0116227
0.0201033
0.0195548
0.0133241
0.00615652
0.0015898
-4.13469e-05
-7.86185e-05
-4.00041e-05
-8.72154e-06
5.04577e-08
7.32518e-08
1.90428e-08
2.93422e-10
-3.23277e-11
-1.17546e-11
-6.65332e-13
1.54378e-14
3.36263e-15
2.00676e-16
-1.77665e-17
-1.94078e-17
-9.59768e-18
-3.97608e-18
-1.48818e-18
-5.14161e-19
-1.65856e-19
-5.03509e-20
-1.44717e-20
-3.95626e-21
-1.03263e-21
-2.58177e-22
-6.20159e-23
-1.43538e-23
-3.21077e-24
-6.96305e-25
-0.00152943
-0.00149109
-0.00160954
-0.00192239
-0.00166202
-0.000730847
-0.0007483
-0.00166629
-0.000716822
0.00241119
0.00278933
-0.00185115
-0.00670774
-0.0057534
0.000556224
0.00623472
0.00696459
0.00465523
0.0017251
2.30966e-05
-9.65929e-05
-6.58437e-05
-2.37199e-05
-2.69798e-06
1.97798e-08
1.44644e-08
1.30842e-09
-5.14801e-11
-9.19871e-12
2.65372e-12
6.89235e-13
9.25237e-15
-1.63948e-15
-4.9259e-16
-1.40076e-16
-4.66747e-17
-1.66463e-17
-5.96741e-18
-2.07458e-18
-6.88289e-19
-2.16803e-19
-6.48226e-20
-1.84294e-20
-4.99418e-21
-1.29333e-21
-3.20917e-22
-7.65025e-23
-1.75696e-23
-3.89878e-24
-8.38607e-25
-0.00165307
-0.00160988
-0.00168112
-0.00200262
-0.00192239
-0.00106635
-0.000764494
-0.00137399
-0.00092123
0.00128221
0.00193032
-0.000898564
-0.00391587
-0.00277266
0.00230742
0.00676178
0.00721364
0.00511887
0.00234416
0.000608363
4.47154e-06
-2.36688e-05
-1.18815e-05
-2.92343e-06
-1.86631e-07
-5.56709e-09
1.12441e-11
7.25508e-11
3.00531e-11
4.1802e-12
-4.77639e-14
-8.55828e-15
-1.11103e-15
-3.47757e-16
-1.27778e-16
-4.84136e-17
-1.84062e-17
-6.80045e-18
-2.39652e-18
-7.99752e-19
-2.52442e-19
-7.54797e-20
-2.14289e-20
-5.79193e-21
-1.49442e-21
-3.69074e-22
-8.74823e-23
-1.99572e-23
-4.39469e-24
-9.37098e-25
-0.00139705
-0.00136368
-0.00142709
-0.00168112
-0.00160954
-0.000954311
-0.000740841
-0.00109802
-0.000491916
0.00113369
0.000991443
-0.00198743
-0.00389919
-0.000985833
0.00565058
0.0105753
0.0106621
0.00764986
0.00381989
0.00114714
9.20435e-05
-8.1342e-06
-7.70174e-06
-3.65061e-06
-6.53729e-07
4.18276e-10
3.15842e-10
1.03381e-10
3.28744e-11
5.2976e-12
5.74672e-15
2.73742e-16
-9.82204e-17
-1.20758e-16
-7.68809e-17
-3.85578e-17
-1.68674e-17
-6.6878e-18