/*--------------------------------*- C++ -*----------------------------------*\
| =========                 |                                                 |
| \\      /  F ield         | OpenFOAM: The Open Source CFD Toolbox           |
|  \\    /   O peration     | Version:  v2006                                 |
|   \\  /    A nd           | Website:  www.openfoam.com                      |
|    \\/     M anipulation  |                                                 |
\*---------------------------------------------------------------------------*/
FoamFile
{
    version     2.0;
    format      ascii;
    class       volScalarField;
    location    "7.75";
    object      r;
}
// * * * * * * * * * * * * * * * * * * * * * * * * * * * * * * * * * * * * * //

dimensions      [1 2 0 0 0 0 0];


internalField   nonuniform List<scalar> 
350
(
-1.5085e-179
-3.0402e-176
-6.04103e-173
-1.18424e-169
-2.28938e-166
-4.36273e-163
-8.19168e-160
-1.51481e-156
-2.75743e-153
-4.93838e-150
-8.69687e-147
-1.50519e-143
-2.5586e-140
-4.26891e-137
-6.98615e-134
-1.12059e-130
-1.76039e-127
-2.70622e-124
-4.06746e-121
-5.97146e-118
-8.55443e-115
-1.19448e-111
-1.62381e-108
-2.14637e-105
-2.75477e-102
-3.42788e-99
-4.12871e-96
-4.80478e-93
-5.39196e-90
-5.82224e-87
-6.03475e-84
-5.9881e-81
-5.67117e-78
-5.10905e-75
-4.36134e-72
-3.51236e-69
-2.65502e-66
-1.87258e-63
-1.22366e-60
-7.34607e-58
-4.00982e-55
-1.9644e-52
-8.49356e-50
-3.16896e-47
-9.88102e-45
-2.45043e-42
-4.42524e-40
-4.71634e-38
-5.68728e-37
4.0216e-34
7.32151e-33
6.49838e-32
3.46318e-31
9.86038e-31
-1.46479e-30
-3.86956e-29
-2.92466e-28
-1.58746e-27
-7.06556e-27
-2.66357e-26
-8.42339e-26
-2.13411e-25
-3.74666e-25
-1.05741e-25
2.4794e-24
1.29009e-23
4.42003e-23
1.2214e-22
2.89217e-22
6.02107e-22
1.11503e-21
1.85187e-21
2.81637e-21
4.13268e-21
6.33256e-21
1.05413e-20
1.79988e-20
2.83573e-20
3.7117e-20
3.47447e-20
1.12668e-20
-2.96346e-20
-5.30071e-20
2.29603e-20
3.70572e-19
1.33893e-18
3.48317e-18
7.39982e-18
1.35824e-17
2.24891e-17
3.5e-17
5.37185e-17
7.84957e-17
1.06201e-16
1.28682e-16
1.36041e-16
3.5667e-16
3.79798e-18
6.34683e-16
1.53462e-16
-7.7882e-16
2.97063e-15
5.919e-16
-1.03084e-14
2.012e-14
-2.67359e-14
-4.71246e-14
3.9959e-14
-1.10957e-13
1.89709e-14
2.68702e-14
-2.6763e-13
5.45326e-13
-5.3616e-13
2.32917e-13
-1.53006e-13
1.72297e-12
3.04942e-14
2.02752e-13
-3.40397e-13
2.80306e-12
-6.16074e-12
1.15428e-11
-6.14928e-12
8.42443e-12
-4.02637e-12
8.55496e-11
1.05639e-11
1.26024e-10
-9.70404e-11
1.02205e-10
-5.37504e-10
-6.37305e-10
-7.6333e-10
-3.72032e-09
-2.63098e-09
-8.98126e-09
-7.05586e-09
-1.96788e-08
-2.02499e-08
-2.82141e-08
-7.07153e-08
-5.61831e-08
-6.4271e-08
-1.81423e-07
-1.38157e-08
-2.46067e-07
9.90038e-08
-1.98223e-07
-2.3425e-07
-3.22554e-07
-2.61512e-06
-2.69382e-06
-4.71961e-06
-8.4945e-07
7.97444e-08
-8.6473e-06
-4.15957e-05
-4.79783e-05
1.22353e-05
0.000278795
0.00103086
0.0027767
0.00636527
0.0131165
0.0249564
0.0445378
0.075322
0.121595
0.188391
0.281316
0.406256
0.568985
0.774711
1.02759
1.33025
1.68343
2.08569
2.53334
3.0205
3.53938
4.08069
4.63416
5.18915
5.73523
6.26275
6.76328
7.22997
7.65774
8.04335
8.38531
8.68376
8.94015
9.15705
9.33778
9.48614
9.60614
9.70182
9.77702
9.83529
9.87982
9.91338
9.93832
9.95659
9.96977
9.97898
9.98551
9.98957
9.99423
9.99378
9.99132
9.98542
9.97421
9.95511
9.9247
9.87875
9.81222
9.71954
9.5948
9.43224
9.22661
8.97377
8.67107
8.31776
7.9153
7.46737
6.97988
6.46064
5.91896
5.36514
4.80985
4.26352
3.73584
3.23523
2.76853
2.34082
1.95533
1.61353
1.31528
1.05908
0.842372
0.661821
0.513619
0.39374
0.298162
0.223036
0.164811
0.120306
0.0867533
0.0617991
0.0434885
0.0302312
0.0207593
0.0140809
0.00943373
0.00624215
0.00407886
0.00263171
0.00167632
0.00105391
0.000653821
0.000400107
0.000241419
0.000143553
8.40636e-05
4.84374e-05
2.74308e-05
1.52453e-05
8.29833e-06
4.41345e-06
2.28243e-06
1.14442e-06
5.4147e-07
2.47033e-07
8.67938e-08
3.1977e-08
1.04792e-10
4.3103e-11
4.0487e-12
3.08706e-12
2.17552e-12
1.44348e-12
8.62293e-13
4.58071e-13
2.04932e-13
7.47366e-14
-3.54396e-14
-3.81594e-14
-3.82996e-14
-3.65143e-14
-3.33491e-14
-2.96891e-14
-2.61648e-14
-2.30799e-14
-2.05031e-14
-1.83979e-14
-1.66649e-14
-1.52001e-14
-1.39037e-14
-1.26864e-14
-1.14703e-14
-1.01905e-14
-8.79818e-15
-7.26664e-15
-5.59598e-15
-3.81483e-15
-1.97671e-15
-1.50924e-16
1.58968e-15
3.1808e-15
4.57534e-15
5.74688e-15
6.68844e-15
7.4078e-15
7.9222e-15
8.25341e-15
8.42424e-15
8.45628e-15
8.36018e-15
8.13973e-15
7.80295e-15
7.3571e-15
6.81205e-15
6.17715e-15
5.46252e-15
4.67949e-15
3.84162e-15
2.96448e-15
2.06639e-15
1.16728e-15
2.87785e-16
-5.52302e-16
-1.33545e-15
-2.04757e-15
-2.6786e-15
-3.22271e-15
-3.67789e-15
-4.0454e-15
-4.32892e-15
-4.53389e-15
-4.6668e-15
-4.73454e-15
-4.74419e-15
-4.70102e-15
-4.60932e-15
-4.47489e-15
-4.30284e-15
-4.09922e-15
-3.87188e-15
-3.6041e-15
)
;

boundaryField
{
    right
    {
        type            zeroGradient;
    }
    left
    {
        type            inletOutlet;
        inletValue      uniform 0;
        value           uniform 0;
    }
    top
    {
        type            zeroGradient;
    }
    bottom
    {
        type            zeroGradient;
    }
    empty
    {
        type            empty;
    }
}


// ************************************************************************* //
