/*--------------------------------*- C++ -*----------------------------------*\
| =========                 |                                                 |
| \\      /  F ield         | OpenFOAM: The Open Source CFD Toolbox           |
|  \\    /   O peration     | Version:  v2006                                 |
|   \\  /    A nd           | Website:  www.openfoam.com                      |
|    \\/     M anipulation  |                                                 |
\*---------------------------------------------------------------------------*/
FoamFile
{
    version     2.0;
    format      ascii;
    class       volScalarField;
    location    "2.75";
    object      r;
}
// * * * * * * * * * * * * * * * * * * * * * * * * * * * * * * * * * * * * * //

dimensions      [1 2 0 0 0 0 0];


internalField   nonuniform List<scalar> 
350
(
-1.90853e-16
5.44549e-16
-1.19342e-15
2.72495e-15
-6.1372e-15
1.37767e-14
-3.07595e-14
6.83268e-14
-1.50976e-13
3.31808e-13
-7.25239e-13
1.57631e-12
-3.40656e-12
7.31903e-12
-1.56314e-11
3.31811e-11
-6.9996e-11
1.46718e-10
-3.05534e-10
6.32019e-10
-1.29846e-09
2.64898e-09
-5.36547e-09
1.07879e-08
-2.15267e-08
4.26235e-08
-8.37256e-08
1.63121e-07
-3.15141e-07
6.03584e-07
-1.14577e-06
2.15513e-06
-4.01551e-06
7.40919e-06
-1.35341e-05
2.44667e-05
-4.37577e-05
7.73946e-05
-0.000135323
0.000233809
-0.00039901
0.000672262
-0.00111765
0.00183253
-0.00296161
0.0047148
-0.00738871
0.0113901
-0.0172585
0.0256816
-0.0374953
0.0536566
-0.0751741
0.102983
-0.137755
0.17964
-0.227971
0.280959
-0.33548
0.387026
-0.42996
0.458126
-0.465851
0.449203
-0.407278
0.343112
-0.263826
0.179687
-0.102085
0.0408268
-0.00156331
-0.0156867
0.0161789
-0.00819769
-0.000250514
0.00434542
-0.00356815
0.000534449
0.00161287
-0.00150507
5.24491e-05
0.000941392
-0.000636055
-0.000248876
0.000517516
6.76469e-05
-0.000666815
0.000620268
-0.000383113
0.00084373
-0.00203181
0.00325263
-0.00455313
0.00708598
-0.0115635
0.0175755
-0.0254393
0.0371745
-0.0540453
0.0754397
-0.102352
0.137723
-0.180559
0.22737
-0.28002
0.337287
-0.386788
0.427074
-0.462094
0.465984
-0.441157
0.419919
-0.338418
0.244143
-0.231236
0.036413
-0.0641086
0.121193
0.417089
0.828736
1.46005
2.20249
3.05438
3.97734
4.89722
5.78422
6.60433
7.32527
7.94084
8.45131
8.8586
9.17511
9.41651
9.59503
9.72321
9.81429
9.87803
9.9209
9.94906
9.96797
9.98053
9.98808
9.99238
9.99541
9.99776
9.9989
9.99888
9.99888
9.99976
10.0008
10.0005
9.99902
9.99817
9.99975
10.0029
10.004
9.99986
9.99195
9.98736
9.99531
10.0197
10.0515
10.0657
10.0233
9.88037
9.5986
9.15508
8.54815
7.79776
6.94128
6.02622
5.10225
4.21416
3.39717
2.67467
2.05823
1.5493
1.14169
0.824295
0.583557
0.4054
0.276569
0.185417
0.122241
0.0793005
0.0506518
0.031873
0.0197694
0.012093
0.0072989
0.00434872
0.00255881
0.00148753
0.000854715
0.000485583
0.000272865
0.000151713
8.34882e-05
4.54874e-05
2.45441e-05
1.31194e-05
6.94876e-06
3.64785e-06
1.89849e-06
9.79769e-07
5.01507e-07
2.54661e-07
1.28312e-07
6.41617e-08
3.18471e-08
1.56938e-08
7.67932e-09
3.73188e-09
1.80141e-09
8.63855e-10
4.11603e-10
1.94889e-10
9.17114e-11
4.2899e-11
1.99485e-11
9.22294e-12
4.24007e-12
1.93852e-12
8.81475e-13
3.98692e-13
1.79389e-13
8.03027e-14
3.57669e-14
1.58521e-14
6.99181e-15
3.0692e-15
1.341e-15
5.83227e-16
2.52514e-16
1.08844e-16
4.67117e-17
1.9961e-17
8.49386e-18
3.59933e-18
1.51901e-18
6.38484e-19
2.67311e-19
1.11477e-19
4.63111e-20
1.91662e-20
7.90252e-21
3.24634e-21
1.32876e-21
5.41931e-22
2.20246e-22
8.9199e-23
3.60014e-23
1.44813e-23
5.80552e-24
2.31975e-24
9.23902e-25
3.66786e-25
1.45151e-25
5.72614e-26
2.25195e-26
8.82925e-27
3.45124e-27
1.34502e-27
5.22631e-28
2.02485e-28
7.82235e-29
3.01328e-29
1.15749e-29
4.43381e-30
1.69371e-30
6.45226e-31
2.45138e-31
9.28851e-32
3.51019e-32
1.32305e-32
4.97386e-33
1.86507e-33
6.97576e-34
2.60251e-34
9.68525e-35
3.59546e-35
1.33148e-35
4.91883e-36
1.81278e-36
6.6649e-37
2.44465e-37
8.94592e-38
3.26607e-38
1.18968e-38
4.32356e-39
1.56774e-39
5.67197e-40
2.04752e-40
7.37509e-41
2.65068e-41
9.50616e-42
3.40189e-42
1.21481e-42
4.32891e-43
1.53935e-43
5.46249e-44
1.9344e-44
6.83612e-45
2.41096e-45
8.48577e-46
2.98072e-46
1.04493e-46
3.65588e-47
1.27657e-47
4.44886e-48
1.54744e-48
5.37206e-49
1.8614e-49
6.43744e-50
2.22212e-50
7.65614e-51
2.63295e-51
9.03802e-52
3.09674e-52
1.05912e-52
3.61573e-53
1.23215e-53
4.19135e-54
1.42321e-54
4.8241e-55
1.6323e-55
5.51342e-56
1.85904e-56
6.25754e-57
2.10267e-57
7.05338e-58
2.36202e-58
7.89653e-59
2.63547e-59
8.78117e-60
2.92095e-60
9.70012e-61
3.21599e-61
1.06449e-61
3.5177e-62
1.16057e-62
3.82283e-63
1.25719e-63
4.12783e-64
1.35317e-64
4.42881e-65
1.44757e-65
4.71337e-66
1.56519e-66
4.17446e-67
)
;

boundaryField
{
    right
    {
        type            zeroGradient;
    }
    left
    {
        type            inletOutlet;
        inletValue      uniform 0;
        value           uniform 0;
    }
    top
    {
        type            zeroGradient;
    }
    bottom
    {
        type            zeroGradient;
    }
    empty
    {
        type            empty;
    }
}


// ************************************************************************* //
