/*--------------------------------*- C++ -*----------------------------------*\
| =========                 |                                                 |
| \\      /  F ield         | OpenFOAM: The Open Source CFD Toolbox           |
|  \\    /   O peration     | Version:  v2006                                 |
|   \\  /    A nd           | Website:  www.openfoam.com                      |
|    \\/     M anipulation  |                                                 |
\*---------------------------------------------------------------------------*/
FoamFile
{
    version     2.0;
    format      ascii;
    class       surfaceScalarField;
    location    "18.6";
    object      phi;
}
// * * * * * * * * * * * * * * * * * * * * * * * * * * * * * * * * * * * * * //

dimensions      [0 3 -1 0 0 0 0];
oriented        oriented;


internalField   nonuniform List<scalar> 
299200
(
0.000661506
-0.000661506
0.00162116
-0.00095965
0.00260804
-0.000986882
0.00355795
-0.000949909
0.00448438
-0.00092643
0.00539082
-0.000906438
0.00627148
-0.000880668
0.00712082
-0.000849337
0.00793554
-0.000814717
0.00871558
-0.000780046
0.00946325
-0.000747665
0.0101828
-0.000719556
0.0108795
-0.000696652
0.0115589
-0.000679423
0.0122265
-0.00066759
0.012887
-0.000660567
0.0135446
-0.000657537
0.014202
-0.000657405
0.014861
-0.000659064
0.0155225
-0.000661437
0.016186
-0.000663525
0.0168508
-0.000664811
0.0175159
-0.000665038
0.0181799
-0.000664053
0.0188419
-0.000661987
0.0195009
-0.000659029
0.0201564
-0.00065548
0.0208081
-0.000651712
0.0214562
-0.000648043
0.0221008
-0.000644608
0.0227421
-0.000641345
0.0233802
-0.000638102
0.0240148
-0.000634546
0.0246449
-0.000630158
0.0252693
-0.000624428
0.0258865
-0.000617125
0.0264947
-0.000608269
0.0270926
-0.000597899
0.0276788
-0.000586203
0.0282522
-0.000573389
0.0288116
-0.000559324
0.0293556
-0.000544037
0.0298834
-0.000527816
0.0303947
-0.000511337
0.0308902
-0.00049549
0.0313713
-0.000481101
0.0318399
-0.000468602
0.032298
-0.000458079
0.0327472
-0.000449175
0.0331884
-0.000441251
0.033622
-0.000433582
0.0340476
-0.000425565
0.0344645
-0.000416881
0.0348719
-0.000407476
0.0352694
-0.000397497
0.0356567
-0.00038726
0.0360339
-0.000377175
0.0364015
-0.000367587
0.0367601
-0.00035867
0.0371105
-0.000350397
0.0374531
-0.000342549
0.0377879
-0.000334807
0.0381147
-0.000326815
0.0384329
-0.00031818
0.0387414
-0.000308531
0.0390391
-0.000297654
0.0393246
-0.0002855
0.0395967
-0.000272153
0.0398545
-0.000257816
0.0400973
-0.000242761
0.0403246
-0.000227312
0.0405364
-0.000211817
0.0407331
-0.000196633
0.0409152
-0.000182107
0.0410837
-0.000168497
0.0412396
-0.00015593
0.041384
-0.000144393
0.0415177
-0.000133727
0.0416414
-0.000123702
0.0417554
-0.000114025
0.0418598
-0.000104343
0.0419542
-9.4376e-05
0.0420381
-8.39672e-05
0.0421112
-7.30733e-05
0.0421729
-6.16741e-05
0.0422226
-4.97475e-05
0.0422599
-3.72753e-05
0.0422842
-2.43236e-05
0.0422954
-1.11915e-05
0.0422936
1.82849e-06
0.0422786
1.49608e-05
0.0422509
2.77411e-05
0.0422111
3.97626e-05
0.0421593
5.17951e-05
0.0420956
6.37364e-05
0.0420201
7.55221e-05
0.0419331
8.6989e-05
0.0418351
9.79482e-05
0.0417269
0.000108241
0.0416093
0.000117626
0.0414834
0.00012586
0.0413505
0.000132899
0.0412115
0.000138995
0.0410668
0.000144679
0.040916
0.000150877
0.040757
0.000158995
0.0405867
0.000170246
0.0404011
0.000185615
0.040195
0.000206111
0.0399629
0.000232047
0.0397002
0.000262784
0.0394034
0.000296758
0.0390717
0.000331731
0.0387064
0.000365219
0.0383113
0.000395108
0.0378913
0.000420072
0.0374516
0.00043966
0.0369974
0.000454175
0.0365331
0.000464353
0.0360623
0.000470733
0.0355885
0.000473848
0.0351142
0.00047429
0.0346417
0.000472551
0.0341728
0.00046887
0.0337095
0.000463265
0.033254
0.000455559
0.0328082
0.000445791
0.0323733
0.000434886
0.031948
0.000425246
0.0315269
0.000421095
0.0311017
0.000425267
0.0306597
0.000441944
0.0301852
0.000474533
0.0296631
0.000522095
0.0290884
0.000574751
0.0284782
0.000610185
0.0278692
0.000609019
0.0273245
0.000544699
0.0269129
0.000411593
0.0266886
0.000224301
0.0266826
5.95497e-06
0.0269349
-0.000252267
0.0273953
-0.000460451
0.0277394
-0.000344124
0.027294
0.000445491
0.0257378
0.00155616
0.0236539
0.00208385
0.0218213
0.00183266
0.0205906
0.0012307
0.0198768
0.000713769
0.0194288
0.000448013
0.0190667
0.000362123
0.0187131
0.00035361
0.0183481
0.000364963
0.0179863
0.000361828
0.0176516
0.000334651
0.0173626
0.000288977
0.0171291
0.000233587
0.0169507
0.000178359
0.0168197
0.000130968
0.0167228
9.69048e-05
0.0166419
8.09381e-05
0.0165548
8.70601e-05
0.0164374
0.000117435
0.0162675
0.000169903
0.0160313
0.000236154
0.0157292
0.000302122
0.0153768
0.000352464
0.0149982
0.000378589
0.0146167
0.000381494
0.0142518
0.000364882
0.0139161
0.000335706
0.0136158
0.000300312
0.0133526
0.000263149
0.0131257
0.000226907
0.0129327
0.000192995
0.0127704
0.000162342
0.0126348
0.000135574
0.0125218
0.000113046
0.0124268
9.4912e-05
0.0123458
8.10273e-05
0.012275
7.08288e-05
0.0122112
6.38191e-05
0.0121523
5.8843e-05
0.0120976
5.47211e-05
0.0120471
5.048e-05
0.0120015
4.56267e-05
0.0119626
3.88545e-05
0.0119326
3.00399e-05
0.0119135
1.90699e-05
0.0119073
6.19404e-06
0.011917
-9.68177e-06
0.0119435
-2.65081e-05
0.0119881
-4.45397e-05
0.0120518
-6.37352e-05
0.0121357
-8.38782e-05
0.0122404
-0.000104679
0.0123664
-0.000125994
0.0125141
-0.000147729
0.0126839
-0.000169822
0.0128761
-0.00019223
0.0130911
-0.000214918
0.0133289
-0.000237848
0.0135899
-0.000260976
0.0138741
-0.000284238
0.0141817
-0.000307549
0.0145125
-0.0003308
0.0148663
-0.000353855
0.0152429
-0.000376556
0.0156416
-0.000398727
0.0160618
-0.000420177
0.0165025
-0.000440708
0.0169626
-0.000460136
0.0174409
-0.0004783
0.017936
-0.000495086
0.0184465
-0.000510472
0.0189711
-0.00052457
0.0195087
-0.000537651
0.0200589
-0.000550157
0.0206215
-0.000562683
0.0211975
-0.000575929
0.0217881
-0.000590609
0.0223954
-0.000607341
0.0230219
-0.000626518
0.0236701
-0.000648207
0.0243422
-0.000672079
0.0250396
-0.000697398
0.0257627
-0.000723086
0.0265106
-0.00074786
0.027281
-0.00077044
0.0280708
-0.000789779
0.0288761
-0.00080528
0.029693
-0.000816937
0.0305183
-0.000825335
0.0313498
-0.000831488
0.0321863
-0.000836491
0.0330274
-0.000841084
0.0338727
-0.000845267
0.0347209
-0.000848202
0.0355695
-0.000848587
0.036415
-0.000845507
0.0372544
-0.000839454
0.0380873
-0.000832902
0.0389171
-0.000829775
0.0397507
-0.000833568
0.0405955
-0.0008448
0.0414549
-0.000859467
0.0423252
-0.000870311
0.043196
-0.000870765
0.0440545
-0.000858524
0.0448939
-0.000839401
0.0457209
-0.000826935
0.0465579
-0.000837006
0.0474386
-0.000880703
0.0483961
-0.000957472
0.0494454
-0.00104937
0.0505666
-0.00112115
0.0516976
-0.00113102
0.052742
-0.00104443
0.0535879
-0.000845834
0.054131
-0.000543106
0.0543152
-0.000184278
0.0541896
0.000125596
0.0538986
0.000291031
0.0535581
0.000340525
0.0532143
0.000343805
0.0528882
0.000326129
0.0526093
0.000278832
0.0524114
0.000197968
0.0523158
9.55292e-05
0.0523206
-4.74488e-06
0.0524236
-0.00010306
0.0526156
-0.00019194
0.0528956
-0.000280057
0.0532583
-0.000362667
0.0536944
-0.000436103
0.0541925
-0.000498095
0.0547396
-0.000547103
0.0553226
-0.000583021
0.0559294
-0.0006068
0.0565492
-0.000619791
0.0571729
-0.000623713
0.0577933
-0.000620336
0.0584046
-0.000611353
0.0590029
-0.000598292
0.0595854
-0.000582478
0.0601504
-0.000565036
0.0606973
-0.000546869
0.0612259
-0.000528566
0.0617361
-0.000510293
0.0622279
-0.000491755
0.0627002
-0.000472272
0.0631512
-0.000451017
0.0635795
-0.000428341
0.0639861
-0.00040659
0.0643752
-0.000389064
0.0647539
-0.00037869
0.0651304
-0.000376551
0.0655116
-0.000381199
0.0659007
-0.000389105
0.0662967
-0.000396
0.0666951
-0.000398413
0.0670898
-0.000394643
0.0674747
-0.000384893
0.0678454
-0.000370716
0.0681996
-0.000354189
0.0685368
-0.000337199
0.0688578
-0.000321023
0.0691641
-0.000306252
0.069457
-0.000292926
0.0697377
-0.000280766
0.0700071
-0.00026939
0.0702656
-0.000258451
0.0705133
-0.000247702
0.0707503
-0.000236999
0.0709766
-0.000226273
0.0711921
-0.000215504
0.0713968
-0.00020469
0.0715906
-0.000193836
0.0717735
-0.000182949
0.0719456
-0.000172033
0.0721067
-0.000161093
0.0722568
-0.000150141
0.072396
-0.00013919
0.0725243
-0.000128263
0.0726417
-0.000117389
0.0727483
-0.000106604
0.0728442
-9.59442e-05
0.0729297
-8.54495e-05
0.0730048
-7.51526e-05
0.0730699
-6.50761e-05
0.0731251
-5.52264e-05
0.0731707
-4.55855e-05
0.0732068
-3.61124e-05
0.0732334
-2.6632e-05
0.0732502
-1.67759e-05
0.0732559
-5.70254e-06
0.0732474
8.52458e-06
0.0732202
2.71528e-05
0.0731698
5.04802e-05
0.0730889
8.08766e-05
0.0729673
0.000121621
0.0727917
0.000175605
0.0725488
0.000242813
0.0722311
0.000317737
0.0718418
0.000389265
0.0713973
0.000444571
0.0709219
0.000475393
0.0704393
0.000482585
0.0699639
0.000475427
0.069498
0.000465875
0.0690353
0.000462724
0.0685663
0.000468981
0.0680839
0.000482366
0.0675858
0.000498138
0.0670736
0.000512221
0.0665507
0.000522835
0.0660204
0.000530297
0.0654846
0.000535855
0.064944
0.0005406
0.064399
0.000545005
0.0638499
0.000549031
0.0632975
0.000552443
0.0627424
0.000555051
0.0621857
0.000556782
0.061628
0.000557635
0.0610704
0.000557615
0.0605137
0.0005567
0.0599589
0.000554846
0.0594069
0.000551997
0.0588587
0.000548131
0.0583155
0.000543263
0.057778
0.000537455
0.0572472
0.000530842
0.0567235
0.000523644
0.0562074
0.000516165
0.0556986
0.000508782
0.0551967
0.000501914
0.0547007
0.000495973
0.0542094
0.000491295
0.0537213
0.000488085
0.053235
0.000486362
0.052749
0.000485958
0.0522624
0.000486563
0.0517746
0.000487833
0.0512851
0.00048954
0.0507933
0.000491721
0.0502986
0.000494751
0.0497993
0.000499273
0.0492934
0.000505958
0.0487782
0.000515152
0.0482517
0.000526542
0.0477127
0.000539011
0.0471619
0.000550772
0.0466021
0.000559763
0.046038
0.000564126
0.0454755
0.000562528
0.0449213
0.000554141
0.044383
0.000538307
0.0438689
0.000514123
0.0433886
0.000480315
0.0429529
0.000435673
0.0425729
0.000380052
0.0422572
0.000315614
0.0420096
0.00024764
0.0418254
0.000184203
0.0416912
0.000134221
0.041587
0.000104204
0.041492
9.49902e-05
0.0413917
0.000100294
0.0412834
0.000108246
0.0411776
0.000105831
0.0410931
8.45355e-05
0.0410488
4.42844e-05
0.0410548
-6.01232e-06
0.0411143
-5.95365e-05
0.0412144
-0.000100097
0.0413422
-0.000127763
0.0414801
-0.000137918
0.0416084
-0.000128277
0.0417085
-0.00010014
0.0417667
-5.81169e-05
0.0417782
-1.15697e-05
0.0417532
2.50493e-05
0.041706
4.71975e-05
0.0416506
5.53294e-05
0.0415969
5.37677e-05
0.0415491
4.78273e-05
0.0415069
4.21382e-05
0.0414659
4.09936e-05
0.0414198
4.60921e-05
0.0413632
5.66456e-05
0.0412926
7.05755e-05
0.0412065
8.60999e-05
0.0411039
0.000102577
0.0409837
0.000120269
0.0408439
0.000139751
0.0406826
0.00016136
0.0404976
0.000184906
0.0402879
0.00020979
0.0400525
0.000235345
0.0397914
0.000261098
0.0395046
0.000286819
0.0391922
0.000312385
0.0388546
0.000337622
0.0384923
0.000362249
0.0381064
0.000385948
0.0376979
0.000408513
0.0372679
0.000429968
0.0368174
0.000450546
0.0363469
0.000470487
0.0358572
0.000489711
0.0353497
0.000507489
0.0348272
0.00052243
0.0342943
0.000532903
0.0337566
0.000537722
0.0332199
0.000536738
0.0326889
0.000530989
0.0321665
0.0005224
0.0316532
0.000513328
0.0311469
0.000506241
0.0306433
0.000503618
0.0301354
0.000507892
0.0296142
0.000521232
0.029069
0.000545145
0.0284891
0.000579988
0.0278641
0.000624915
0.0271859
0.000678271
0.0264476
0.000738236
0.0256434
0.000804226
0.0247645
0.000878858
0.0237987
0.000965843
0.0227305
0.00106816
0.0215523
0.00117824
0.0202774
0.00127487
0.0189381
0.0013393
0.0175732
0.00136492
0.0162106
0.00136258
0.0148614
0.00134923
0.0135267
0.00133473
0.0122073
0.00131936
0.0109082
0.00129907
0.00963765
0.00127059
0.00840489
0.00123276
0.00721917
0.00118572
0.00608918
0.00112999
0.00502319
0.00106599
0.00402926
0.00099393
0.00311583
0.000913424
0.00229247
0.000823362
0.00157062
0.000721849
0.000966713
0.00060391
0.000503114
0.000463599
0.000204142
0.000298973
7.52134e-05
0.000128928
8.02223e-05
-5.00886e-06
0.000160014
-7.97921e-05
0.000217958
-5.79437e-05
0.000166476
5.14824e-05
0.000166476
0.000469424
-0.00113093
0.00122546
-0.00171569
0.00194236
-0.00170378
0.00258461
-0.00159216
0.00317186
-0.00151368
0.00370341
-0.00143799
0.00417137
-0.00134862
0.00457446
-0.00125243
0.00492153
-0.00116179
0.00522767
-0.00108619
0.00551168
-0.00103167
0.00579277
-0.00100064
0.00608762
-0.000991507
0.0064089
-0.0010007
0.00676342
-0.00102211
0.00715284
-0.00104999
0.00757477
-0.00107946
0.0080241
-0.00110674
0.00849513
-0.00113009
0.00898227
-0.00114858
0.00948136
-0.00116262
0.00998973
-0.00117318
0.0105061
-0.0011814
0.0110303
-0.00118821
0.0115624
-0.00119417
0.0121027
-0.0011993
0.0126503
-0.00120307
0.0132032
-0.00120458
0.0137579
-0.00120274
0.0143096
-0.00119637
0.0148529
-0.00118459
0.0153819
-0.00116717
0.0158923
-0.00114492
0.0163821
-0.00111998
0.0168532
-0.00109549
0.0173113
-0.0010752
0.0177654
-0.00106237
0.018226
-0.00105849
0.0187023
-0.00106252
0.0191999
-0.00107104
0.0197199
-0.00107926
0.0202584
-0.00108254
0.0208083
-0.00107778
0.0213612
-0.00106415
0.0219086
-0.00104295
0.0224444
-0.00101685
0.0229646
-0.00098888
0.0234682
-0.000961598
0.0239558
-0.000936769
0.0244297
-0.000915183
0.0248928
-0.000896731
0.025348
-0.00088073
0.0257975
-0.000866333
0.0262426
-0.00085267
0.0266841
-0.000838977
0.0271217
-0.000824805
0.0275545
-0.000810023
0.0279816
-0.000794652
0.0284017
-0.000778736
0.0288135
-0.000762237
0.0292159
-0.000745001
0.0296079
-0.000726806
0.0299886
-0.000707426
0.030357
-0.00068665
0.0307128
-0.000664319
0.0310555
-0.000640354
0.0313848
-0.000614801
0.0317005
-0.00058787
0.0320026
-0.000559843
0.0322908
-0.000531004
0.0325652
-0.000501667
0.0328255
-0.000472124
0.0330715
-0.000442677
0.0333031
-0.000413674
0.0335201
-0.000385527
0.0337228
-0.000358675
0.033912
-0.000333534
0.0340885
-0.000310264
0.0342537
-0.000288861
0.0344088
-0.00026912
0.034555
-0.000250608
0.0346934
-0.000232712
0.0348242
-0.00021474
0.0349471
-0.000196057
0.0350617
-0.000176219
0.0351669
-0.000154937
0.0352617
-0.000132123
0.0353453
-0.00010786
0.0354164
-8.2375e-05
0.035474
-5.575e-05
0.0355168
-2.77804e-05
0.0355432
1.30948e-06
0.0355542
2.8751e-05
0.0355482
5.77991e-05
0.0355248
8.71508e-05
0.0354838
0.000116546
0.035425
0.000145737
0.0353486
0.000174391
0.0352547
0.000202099
0.0351439
0.000228442
0.0350168
0.000252969
0.0348744
0.000275266
0.0347182
0.00029517
0.0345499
0.000313028
0.0343711
0.000329704
0.0341836
0.000346493
0.0339887
0.000365151
0.0337859
0.00038837
0.0335735
0.000418551
0.033348
0.000457562
0.0331044
0.000506354
0.0328367
0.000564472
0.0325386
0.000629772
0.0322053
0.000698521
0.0318345
0.000765969
0.0314273
0.000827217
0.0309889
0.000878078
0.0305272
0.000915845
0.0300517
0.000939889
0.0295712
0.000951214
0.0290932
0.000951842
0.0286231
0.000944385
0.028164
0.000931657
0.0277167
0.000916199
0.02728
0.000899982
0.0268512
0.000884321
0.0264267
0.000870259
0.0260022
0.000859451
0.025572
0.000855381
0.0251284
0.000864752
0.0246594
0.000894296
0.0241521
0.000949208
0.0235957
0.00103095
0.0229807
0.00113706
0.022296
0.0012595
0.0215291
0.00137702
0.0207084
0.0014297
0.0198965
0.00135665
0.0191901
0.00111796
0.0186988
0.00071567
0.0185093
0.000195422
0.018602
-0.000345025
0.0189697
-0.000828114
0.0197022
-0.00107663
0.0207981
-0.000650408
0.0218702
0.000484058
0.0223074
0.00164671
0.0219536
0.00218642
0.0209155
0.00226882
0.0193294
0.00229983
0.0174013
0.00237617
0.0154092
0.00235418
0.0136331
0.00212971
0.0122277
0.00177041
0.0111984
0.00139106
0.0104679
0.00106516
0.00994041
0.000816478
0.00954054
0.000633457
0.00922111
0.000497785
0.0089552
0.000396878
0.00872737
0.000324737
0.00852849
0.000279823
0.00835317
0.000262379
0.00819838
0.000272226
0.00806043
0.000307846
0.00793088
0.00036571
0.00779516
0.000437838
0.00763497
0.000512656
0.00743986
0.000573701
0.00721243
0.000608925
0.00696243
0.000614879
0.00670473
0.00059341
0.00645487
0.00055017
0.00622557
0.000492445
0.00602536
0.000427114
0.00585853
0.000359829
0.00572606
0.000294812
0.00562653
0.000235099
0.00555715
0.000182427
0.00551422
0.000137843
0.00549409
0.000101157
0.00549313
7.17916e-05
0.00550802
4.8933e-05
0.00553549
3.13733e-05
0.00557288
1.73239e-05
0.00561797
5.39367e-06
0.00566769
-4.09139e-06
0.00572153
-1.49878e-05
0.00577909
-2.75238e-05
0.00584066
-4.25005e-05
0.00590747
-6.06156e-05
0.00598044
-8.26465e-05
0.00606225
-0.000108323
0.00615547
-0.000137761
0.00626268
-0.000170941
0.00638646
-0.000207654
0.00652938
-0.000247601
0.00669379
-0.000290408
0.00688168
-0.000335615
0.00709456
-0.0003827
0.00733342
-0.000431094
0.0075987
-0.0004802
0.00789025
-0.000529401
0.00820736
-0.000578081
0.00854876
-0.000625644
0.00891274
-0.00067153
0.00929719
-0.000715244
0.00969971
-0.000756373
0.0101178
-0.000794612
0.0105488
-0.000829778
0.0109905
-0.000861831
0.0114406
-0.000890879
0.0118977
-0.000917238
0.0123608
-0.000941397
0.0128298
-0.000964014
0.0133053
-0.00098597
0.013789
-0.00100833
0.0142837
-0.0010323
0.0147926
-0.00105908
0.0153196
-0.00108971
0.0158686
-0.00112492
0.016443
-0.00116496
0.0170451
-0.00120946
0.0176761
-0.00125751
0.0183356
-0.00130768
0.0190217
-0.00135824
0.0197316
-0.00140732
0.0204617
-0.00145319
0.0212083
-0.00149445
0.0219681
-0.00153025
0.0227388
-0.00156047
0.0235194
-0.00158585
0.0243103
-0.00160783
0.0251133
-0.00162831
0.0259308
-0.001649
0.0267649
-0.0016706
0.0276158
-0.00169202
0.0284804
-0.00170981
0.0293507
-0.00171854
0.0302143
-0.00171213
0.0310551
-0.0016863
0.0318567
-0.00164107
0.0326059
-0.00158214
0.0332956
-0.00151946
0.0339248
-0.0014628
0.0344965
-0.00141649
0.0350141
-0.00137704
0.0354809
-0.00133715
0.0359046
-0.00129443
0.0363046
-0.00125851
0.0367171
-0.00125189
0.0371921
-0.00130195
0.0377832
-0.00142812
0.0385332
-0.00163069
0.0394616
-0.00188586
0.0405615
-0.00214935
0.0418097
-0.00236934
0.0431799
-0.0025012
0.0446536
-0.00251812
0.0462264
-0.00241862
0.0479105
-0.00222724
0.0497129
-0.00198661
0.0515737
-0.00173523
0.0533747
-0.00151001
0.0550498
-0.00133452
0.056595
-0.00120139
0.0580151
-0.00109405
0.0593047
-0.00101072
0.0604555
-0.000952807
0.0614703
-0.00091936
0.0623734
-0.000907848
0.0631846
-0.000914225
0.0639213
-0.00092863
0.064592
-0.000950767
0.0652073
-0.000977975
0.0657778
-0.00100653
0.0663131
-0.00103342
0.0668222
-0.00105622
0.0673123
-0.00107314
0.0677885
-0.00108299
0.0682535
-0.0010848
0.0687075
-0.00107769
0.0691477
-0.00106052
0.0695681
-0.00103175
0.0699591
-0.000989367
0.0703078
-0.000931134
0.070598
-0.000855268
0.0708127
-0.000761564
0.070937
-0.000652838
0.0709628
-0.00053614
0.0708941
-0.000422983
0.0707499
-0.000328049
0.0705655
-0.000266696
0.0703877
-0.000250525
0.070264
-0.000282867
0.0702332
-0.000358292
0.0703181
-0.000463612
0.0705228
-0.000581183
0.0708348
-0.000693249
0.0712314
-0.000785682
0.0716855
-0.000850118
0.0721714
-0.00088427
0.0726676
-0.000890822
0.0731582
-0.00087558
0.0736331
-0.000845529
0.0740861
-0.000807273
0.074515
-0.000766069
0.0749195
-0.000725464
0.0753006
-0.000687392
0.0756602
-0.00065253
0.0760002
-0.000620744
0.0763223
-0.000591488
0.0766279
-0.000564092
0.0769181
-0.000537935
0.0771937
-0.00051252
0.0774549
-0.000487487
0.077702
-0.000462597
0.077935
-0.000437701
0.0781539
-0.000412717
0.0783585
-0.000387606
0.0785488
-0.000362351
0.0787247
-0.000336947
0.0788859
-0.000311387
0.0790324
-0.000285663
0.0791639
-0.000259765
0.0792802
-0.000233683
0.079381
-0.00020742
0.0794661
-0.000180993
0.0795351
-0.000154441
0.0795877
-0.00012782
0.0796239
-0.000101208
0.0796433
-7.46797e-05
0.079646
-4.83056e-05
0.079632
-2.21004e-05
0.0796014
4.02213e-06
0.0795545
3.00534e-05
0.0794935
5.53632e-05
0.0794218
8.01602e-05
0.079344
0.000105004
0.0792644
0.000130051
0.0791897
0.00015558
0.0791293
0.000182071
0.0790947
0.000210123
0.0790974
0.000240173
0.0791431
0.000272015
0.079228
0.000304345
0.0793378
0.000334775
0.0794526
0.000360634
0.079555
0.000380179
0.079637
0.000393395
0.0797009
0.000402035
0.0797546
0.00040895
0.0798069
0.000416739
0.0798625
0.000426701
0.0799218
0.000438845
0.0799815
0.000452513
0.0800374
0.000467016
0.0800857
0.000481937
0.0801245
0.000497107
0.0801526
0.000512448
0.0801698
0.000527863
0.0801756
0.000543218
0.0801696
0.000558386
0.0801514
0.000573283
0.0801203
0.000587867
0.0800758
0.000602107
0.0800175
0.000615946
0.0799449
0.000629299
0.0798577
0.000642065
0.0797556
0.000654129
0.0796383
0.000665386
0.0795058
0.000675756
0.0793581
0.000685196
0.0791952
0.000693726
0.0790174
0.000701439
0.0788251
0.000708509
0.0786186
0.00071519
0.0783988
0.000721795
0.0781661
0.000728661
0.0779213
0.000736109
0.077665
0.000744391
0.0773977
0.000753662
0.0771197
0.000763954
0.076831
0.000775198
0.0765316
0.000787265
0.0762211
0.00080003
0.0758994
0.000813423
0.0755667
0.000827437
0.0752239
0.000842064
0.0748727
0.000857164
0.0745155
0.000872337
0.0741552
0.000886852
0.0737945
0.000899716
0.0734354
0.00090987
0.0730788
0.000916425
0.0727241
0.000918827
0.0723697
0.000916854
0.0720134
0.000910459
0.0716521
0.000899588
0.0712821
0.00088417
0.070898
0.000864386
0.0704925
0.000841169
0.0700559
0.000816711
0.0695768
0.000794637
0.0690449
0.00077955
0.0684533
0.000775834
0.0678016
0.000785961
0.0670969
0.000808851
0.066353
0.000838948
0.0655867
0.000866586
0.064815
0.00087987
0.0640531
0.000867721
0.0633145
0.000823159
0.0626131
0.000745668
0.0619662
0.000640964
0.061386
0.000520592
0.0608819
0.000404006
0.0604488
0.00030541
0.0600727
0.000238153
0.0597343
0.000210156
0.0594153
0.000218769
0.0591055
0.000251696
0.0588042
0.000289757
0.0585152
0.000314079
0.0582493
0.000313049
0.0580213
0.000283329
0.0578433
0.000231743
0.0577186
0.000172596
0.0576388
0.000121909
0.0575869
9.28753e-05
0.0575405
9.25181e-05
0.0574765
0.000120664
0.0573764
0.00017062
0.0572299
0.000232662
0.0570353
0.000297203
0.0567983
0.000357254
0.0565284
0.000409583
0.0562355
0.000454252
0.0559273
0.000493147
0.0556086
0.000528498
0.0552818
0.000562093
0.0549477
0.00059526
0.0546053
0.000629153
0.0542528
0.00066489
0.0538871
0.000703379
0.0535043
0.000745015
0.0531007
0.000789566
0.0526729
0.000836344
0.0522183
0.000884576
0.0517351
0.000933721
0.051222
0.000983593
0.0506774
0.00103429
0.0500988
0.00108611
0.0494817
0.00113948
0.0488196
0.00119506
0.0481037
0.00125357
0.0473251
0.00131536
0.0464763
0.00137983
0.0455536
0.00144506
0.0445588
0.00150819
0.0434985
0.00156645
0.0423837
0.00161847
0.0412265
0.00166512
0.0400382
0.00170952
0.0388271
0.00175621
0.037598
0.00180914
0.0363527
0.0018702
0.0350926
0.00193832
0.0338215
0.0020094
0.0325481
0.00207758
0.0312891
0.00213788
0.030066
0.00218887
0.0289003
0.00223396
0.0278019
0.00227661
0.0267651
0.00231168
0.0257749
0.00232945
0.0248152
0.00232463
0.023874
0.00230384
0.0229417
0.00228147
0.022008
0.00226846
0.021061
0.00226636
0.02009
0.00227003
0.0190875
0.00227313
0.0180493
0.00227092
0.0169746
0.00226048
0.0158643
0.00224024
0.0147204
0.00220993
0.0135438
0.00217052
0.0123348
0.00212243
0.0110961
0.00206208
0.00983162
0.00198629
0.00855204
0.00188349
0.00727622
0.00173942
0.00602775
0.00154744
0.00483653
0.00132015
0.00373911
0.00109241
0.00275207
0.000907254
0.00185694
0.00083718
0.00096363
0.000944796
0.00113011
0.000444427
-0.00157536
0.00120104
-0.0024723
0.00189163
-0.00239437
0.00243294
-0.00213347
0.00285807
-0.00193881
0.00320261
-0.00178253
0.00348366
-0.00162967
0.00371908
-0.00148785
0.00393521
-0.00137793
0.00416052
-0.00131149
0.00442054
-0.00129169
0.00473216
-0.00131227
0.00510349
-0.00136283
0.00553371
-0.00143092
0.00601588
-0.00150427
0.00653961
-0.00157372
0.00709376
-0.00163362
0.00766845
-0.00168143
0.00825573
-0.00171737
0.00885033
-0.00174318
0.00944916
-0.00176145
0.0100507
-0.00177473
0.0106543
-0.00178497
0.0112593
-0.00179325
0.0118647
-0.00179957
0.0124685
-0.0018031
0.0130679
-0.00180242
0.0136591
-0.00179586
0.0142386
-0.00178219
0.0148032
-0.00176092
0.0153513
-0.0017327
0.0158839
-0.00169975
0.0164048
-0.00166585
0.0169207
-0.00163594
0.0174405
-0.00161525
0.0179732
-0.00160788
0.0185262
-0.00161542
0.0191036
-0.00163588
0.0197047
-0.00166366
0.0203246
-0.00169092
0.020955
-0.00170964
0.0215863
-0.00171381
0.0222093
-0.0017008
0.0228166
-0.0016715
0.0234033
-0.0016296
0.0239667
-0.00158023
0.0245065
-0.00152871
0.0250243
-0.00147936
0.0255225
-0.00143503
0.0260042
-0.00139691
0.0264722
-0.00136472
0.0269287
-0.0013372
0.027375
-0.00131266
0.0278119
-0.0012895
0.0282394
-0.00126647
0.0286573
-0.00124274
0.0290651
-0.00121787
0.0294622
-0.00119176
0.029848
-0.00116447
0.0302219
-0.00113616
0.0305838
-0.0011069
0.0309337
-0.00107674
0.031272
-0.00104571
0.0315992
-0.00101385
0.0319161
-0.000981153
0.0322233
-0.000947586
0.0325217
-0.000913212
0.0328119
-0.000878031
0.033094
-0.000842005
0.0333681
-0.000805132
0.0336339
-0.000767428
0.0338908
-0.000729021
0.0341383
-0.000690203
0.0343761
-0.000651465
0.0346039
-0.000613351
0.0348217
-0.000576463
0.0350296
-0.00054136
0.0352276
-0.000508316
0.035416
-0.000477269
0.0355947
-0.000447754
0.035763
-0.000418946
0.0359201
-0.000389853
0.0360647
-0.000359305
0.036195
-0.000326342
0.0363091
-0.000290347
0.0364051
-0.000250966
0.0364813
-0.00020831
0.0365362
-0.000162782
0.0365687
-0.000114868
0.0365782
-6.52551e-05
0.0365651
-1.45871e-05
0.0365277
3.87102e-05
0.036466
9.03905e-05
0.0363816
0.000142201
0.036275
0.000193804
0.0361467
0.000244842
0.0359975
0.000294937
0.0358282
0.000343648
0.0356398
0.000390524
0.0354331
0.000435129
0.035209
0.000477104
0.034968
0.000516224
0.0347107
0.000552482
0.0344375
0.000586229
0.0341489
0.000618301
0.0338454
0.000649971
0.0335276
0.00068296
0.0331966
0.000719369
0.032854
0.000761104
0.0325021
0.000809556
0.0321431
0.000865276
0.03178
0.000927599
0.0314153
0.000994463
0.0310514
0.00106243
0.0306901
0.00112724
0.0303327
0.00118461
0.0299797
0.00123115
0.0296304
0.00126516
0.0292835
0.00128678
0.0289367
0.00129801
0.0285866
0.00130188
0.0282289
0.00130207
0.0278584
0.00130223
0.0274691
0.0013055
0.027055
0.00131401
0.0266103
0.00132904
0.0261288
0.00135173
0.0256038
0.00138449
0.0250265
0.00143266
0.0243858
0.00150552
0.0236671
0.00161294
0.0228566
0.00175976
0.021949
0.00193855
0.0209597
0.00212629
0.0199324
0.0022868
0.018933
0.00237644
0.0180165
0.00234626
0.0172126
0.00216053
0.0165176
0.00181291
0.0158947
0.00133864
0.015284
0.000806127
0.014643
0.000295978
0.0139338
-0.000119006
0.0132072
-0.000349995
0.0127232
-0.00016644
0.0126363
0.000571034
0.0127706
0.00151236
0.0127374
0.00221968
0.0124266
0.00257958
0.0119847
0.00274175
0.0115679
0.00279294
0.0112272
0.00269488
0.0109686
0.00238831
0.0107591
0.00197998
0.010554
0.00159607
0.0103142
0.00130498
0.0100223
0.00110841
0.00967858
0.000977159
0.00929316
0.00088321
0.00887969
0.000810341
0.0084522
0.000752228
0.00802389
0.00070814
0.0076068
0.000679468
0.00721168
0.000667344
0.00684831
0.000671211
0.0065237
0.000690326
0.00624384
0.000717696
0.00601175
0.000744743
0.00582315
0.000762305
0.00566949
0.000762585
0.00554203
0.000742336
0.00543285
0.000702588
0.00533556
0.000647466
0.00524552
0.000582481
0.00515942
0.000513215
0.00507677
0.000442482
0.00499762
0.000373961
0.00492304
0.000309673
0.00485502
0.000250451
0.00479613
0.000196736
0.00474902
0.00014826
0.00471598
0.000104838
0.00469928
6.56349e-05
0.00470054
3.01049e-05
0.00472141
-3.54364e-06
0.00476241
-3.56028e-05
0.00482478
-6.64594e-05
0.00490792
-9.81339e-05
0.00501176
-0.000131361
0.00513606
-0.0001668
0.00528049
-0.00020505
0.00544448
-0.00024663
0.0056278
-0.000291649
0.00583021
-0.000340168
0.00605141
-0.000392144
0.00629113
-0.000447374
0.00654905
-0.000505514
0.00682473
-0.000566092
0.00711763
-0.000628518
0.00742704
-0.000692107
0.00775204
-0.0007561
0.00809154
-0.000819697
0.00844423
-0.00088209
0.00880865
-0.000942497
0.0091832
-0.0010002
0.00956625
-0.00105458
0.00995617
-0.00110516
0.0103515
-0.00115166
0.0107509
-0.00119401
0.0111535
-0.00123242
0.0115591
-0.00126739
0.0119679
-0.00129974
0.0123813
-0.00133058
0.0128011
-0.00136126
0.0132304
-0.00139326
0.0136724
-0.00142805
0.0141311
-0.00146698
0.0146099
-0.00151108
0.0151117
-0.00156088
0.0156383
-0.00161633
0.0161901
-0.00167676
0.0167661
-0.00174096
0.017364
-0.00180732
0.0179805
-0.00187402
0.0186121
-0.00193927
0.0192554
-0.00200153
0.0199077
-0.00205965
0.0205675
-0.00211298
0.0212345
-0.00216142
0.0219097
-0.00220543
0.0225953
-0.00224609
0.0232945
-0.00228505
0.024011
-0.0023244
0.024749
-0.00236626
0.0255121
-0.00241211
0.0263033
-0.00246176
0.0271235
-0.00251228
0.0279708
-0.00255706
0.0288379
-0.0025857
0.029711
-0.0025852
0.0305675
-0.00254283
0.0313767
-0.00245024
0.0321025
-0.0023079
0.0327106
-0.00212756
0.0331791
-0.00193128
0.0335094
-0.00174681
0.0337338
-0.00160149
0.0339144
-0.00151774
0.0341313
-0.00151136
0.0344638
-0.00159096
0.0349684
-0.00175648
0.035663
-0.00199656
0.036522
-0.00228711
0.0374852
-0.00259385
0.038477
-0.00287768
0.0394293
-0.00310163
0.0402986
-0.00323869
0.0410737
-0.0032763
0.0417729
-0.00321729
0.0424332
-0.00307899
0.0430962
-0.00289022
0.0437932
-0.00268357
0.0445407
-0.00248268
0.0453349
-0.00230427
0.0461601
-0.00215969
0.0470047
-0.00204603
0.0478639
-0.00195323
0.0487297
-0.00187648
0.049592
-0.00181512
0.0504412
-0.00176857
0.0512717
-0.00173837
0.0520821
-0.00172459
0.0528765
-0.00172301
0.0536565
-0.00173082
0.054424
-0.00174547
0.0551813
-0.00176385
0.0559312
-0.00178335
0.0566769
-0.00180185
0.0574213
-0.00181758
0.0581674
-0.00182908
0.0589176
-0.00183503
0.0596739
-0.00183394
0.0604374
-0.00182405
0.0612088
-0.00180309
0.0619877
-0.00176835
0.0627735
-0.00171692
0.0635646
-0.00164633
0.0643586
-0.0015556
0.0651525
-0.00144669
0.065942
-0.00132567
0.0667221
-0.00120311
0.0674871
-0.00109299
0.0682303
-0.00100995
0.068945
-0.000965159
0.0696247
-0.000962579
0.070264
-0.0009976
0.0708586
-0.00105825
0.0714061
-0.00112872
0.0719065
-0.00119361
0.0723621
-0.00124131
0.0727777
-0.00126565
0.0731591
-0.00126572
0.073513
-0.00124468
0.0738453
-0.00120787
0.074161
-0.00116123
0.0744636
-0.00110996
0.0747555
-0.00105792
0.0750375
-0.00100748
0.0753098
-0.000959682
0.0755719
-0.000914647
0.0758232
-0.000872005
0.0760629
-0.000831211
0.0762906
-0.000791761
0.0765059
-0.000753282