/*--------------------------------*- C++ -*----------------------------------*\
| =========                 |                                                 |
| \\      /  F ield         | OpenFOAM: The Open Source CFD Toolbox           |
|  \\    /   O peration     | Version:  v2006                                 |
|   \\  /    A nd           | Website:  www.openfoam.com                      |
|    \\/     M anipulation  |                                                 |
\*---------------------------------------------------------------------------*/
FoamFile
{
    version     2.0;
    format      ascii;
    class       volVectorField;
    location    "0";
    object      U;
}
// * * * * * * * * * * * * * * * * * * * * * * * * * * * * * * * * * * * * * //

dimensions      [0 1 -1 0 0 0 0];


internalField   nonuniform List<vector> 
20000
(
(1 1.25534e-11 0)
(1 3.29874e-11 0)
(1 5.42617e-11 0)
(1 7.51129e-11 0)
(1 9.18017e-11 0)
(1 1.01356e-10 0)
(1 1.01938e-10 0)
(1 9.22318e-11 0)
(1 7.2467e-11 0)
(1 4.55728e-11 0)
(1 1.64582e-11 0)
(1 -9.53232e-12 0)
(1 -2.52254e-11 0)
(1 -3.8614e-11 0)
(1 -6.09758e-11 0)
(1 -1.00194e-10 0)
(1 -1.6072e-10 0)
(1 -2.46779e-10 0)
(1 -3.63593e-10 0)
(1 -5.1771e-10 0)
(1 -7.17405e-10 0)
(1 -9.73161e-10 0)
(1 -1.29817e-09 0)
(1 -1.70869e-09 0)
(1 -2.22427e-09 0)
(1 -2.86793e-09 0)
(1 -3.66662e-09 0)
(1 -4.65258e-09 0)
(1 -5.86587e-09 0)
(1 -7.35755e-09 0)
(1 -9.19251e-09 0)
(1 -1.14503e-08 0)
(1 -1.42235e-08 0)
(1 -1.76126e-08 0)
(1 -2.17202e-08 0)
(1 -2.66437e-08 0)
(1 -3.24708e-08 0)
(1 -3.92783e-08 0)
(1 -4.71331e-08 0)
(1 -5.60917e-08 0)
(1 -6.61927e-08 0)
(1 -7.74376e-08 0)
(1 -8.97566e-08 0)
(1 -1.02952e-07 0)
(1 -1.16613e-07 0)
(1.00001 -1.3003e-07 0)
(1.00001 -1.42142e-07 0)
(1.00001 -1.51594e-07 0)
(1.00001 -1.56908e-07 0)
(1.00001 -1.56589e-07 0)
(1.00001 -1.49e-07 0)
(1.00001 -1.32387e-07 0)
(1.00001 -1.07246e-07 0)
(1.00001 -8.40678e-08 0)
(1.00001 -8.66848e-08 0)
(1.00001 -1.14239e-07 0)
(1.00001 -7.6216e-08 0)
(1.00001 1.03181e-07 0)
(1.00001 3.70667e-07 0)
(1.00001 6.57831e-07 0)
(1.00001 9.13282e-07 0)
(1.00001 1.1098e-06 0)
(1.00001 1.23466e-06 0)
(1.00001 1.28246e-06 0)
(1 1.25501e-06 0)
(1 1.16154e-06 0)
(0.999999 1.01948e-06 0)
(0.999996 8.47286e-07 0)
(0.999993 6.57664e-07 0)
(0.999991 4.58334e-07 0)
(0.999988 2.55629e-07 0)
(0.999986 5.62605e-08 0)
(0.999984 -1.31896e-07 0)
(0.999982 -3.00184e-07 0)
(0.99998 -4.39938e-07 0)
(0.999979 -5.43566e-07 0)
(0.999978 -6.05753e-07 0)
(0.999977 -6.23839e-07 0)
(0.999976 -5.98182e-07 0)
(0.999976 -5.34407e-07 0)
(0.999976 -4.4673e-07 0)
(0.999976 -3.70366e-07 0)
(0.999976 -3.39831e-07 0)
(0.999977 -3.51299e-07 0)
(0.999979 -3.90198e-07 0)
(0.999981 -4.41517e-07 0)
(0.999984 -4.92317e-07 0)
(0.999988 -5.33541e-07 0)
(0.999992 -5.59249e-07 0)
(0.999997 -5.58063e-07 0)
(1 -4.95788e-07 0)
(1.00001 -2.96531e-07 0)
(1.00001 1.48273e-07 0)
(1.00001 8.77532e-07 0)
(1.00002 1.64725e-06 0)
(1.00001 2.18117e-06 0)
(1.00001 2.47238e-06 0)
(1.00001 2.58207e-06 0)
(1.00001 2.55903e-06 0)
(1 2.42568e-06 0)
(0.999998 2.19242e-06 0)
(0.999993 1.87211e-06 0)
(0.999989 1.48417e-06 0)
(0.999984 1.04667e-06 0)
(0.999979 5.79308e-07 0)
(0.999974 1.07045e-07 0)
(0.99997 -3.42724e-07 0)
(0.999966 -7.4362e-07 0)
(0.999962 -1.0731e-06 0)
(0.999958 -1.31473e-06 0)
(0.999955 -1.45976e-06 0)
(0.999953 -1.50754e-06 0)
(0.999951 -1.46506e-06 0)
(0.999949 -1.34529e-06 0)
(0.999948 -1.16545e-06 0)
(0.999948 -9.49997e-07 0)
(0.999947 -7.3777e-07 0)
(0.999948 -5.76863e-07 0)
(0.999948 -4.91467e-07 0)
(0.999949 -4.68547e-07 0)
(0.999951 -4.87041e-07 0)
(0.999954 -5.24695e-07 0)
(0.999957 -5.58839e-07 0)
(0.999961 -5.70149e-07 0)
(0.999964 -5.48002e-07 0)
(0.999968 -4.94021e-07 0)
(0.999971 -4.20991e-07 0)
(0.999973 -3.46708e-07 0)
(0.999975 -2.85866e-07 0)
(0.999977 -2.45056e-07 0)
(0.999979 -2.23271e-07 0)
(0.99998 -2.15454e-07 0)
(0.999981 -2.1562e-07 0)
(0.999983 -2.1854e-07 0)
(0.999984 -2.2048e-07 0)
(0.999986 -2.19318e-07 0)
(0.999987 -2.14262e-07 0)
(0.999989 -2.05425e-07 0)
(0.99999 -1.93453e-07 0)
(0.999991 -1.79222e-07 0)
(0.999992 -1.63639e-07 0)
(0.999993 -1.47515e-07 0)
(0.999994 -1.31513e-07 0)
(0.999995 -1.16127e-07 0)
(0.999996 -1.01697e-07 0)
(0.999997 -8.84279e-08 0)
(0.999997 -7.64194e-08 0)
(0.999998 -6.56911e-08 0)
(0.999998 -5.62074e-08 0)
(0.999998 -4.78961e-08 0)
(0.999999 -4.06643e-08 0)
(0.999999 -3.44087e-08 0)
(0.999999 -2.90242e-08 0)
(0.999999 -2.44084e-08 0)
(0.999999 -2.04652e-08 0)
(1 -1.71067e-08 0)
(1 -1.42546e-08 0)
(1 -1.18393e-08 0)
(1 -9.79947e-09 0)
(1 -8.07975e-09 0)
(1 -6.62851e-09 0)
(1 -5.39568e-09 0)
(1 -4.33244e-09 0)
(1 -3.39387e-09 0)
(1 -2.54344e-09 0)
(1 -1.75648e-09 0)
(1 -1.0212e-09 0)
(1 -3.3994e-10 0)
(1 2.61196e-10 0)
(1 7.26526e-10 0)
(1 9.62609e-10 0)
(1 9.67784e-10 0)
(1 8.50983e-10 0)
(1 6.97333e-10 0)
(1 5.47409e-10 0)
(1 4.15298e-10 0)
(1 3.03272e-10 0)
(1 2.09717e-10 0)
(1 1.32281e-10 0)
(1 6.86211e-11 0)
(1 1.65853e-11 0)
(1 -2.57097e-11 0)
(1 -5.98884e-11 0)
(1 -8.73488e-11 0)
(1 -1.09274e-10 0)
(1 -1.26684e-10 0)
(1 -1.40437e-10 0)
(1 -1.51256e-10 0)
(1 -1.59765e-10 0)
(1 -1.66493e-10 0)
(1 -1.71897e-10 0)
(1 -1.76372e-10 0)
(1 -1.80286e-10 0)
(1 -1.8399e-10 0)
(1 -1.87958e-10 0)
(1 -1.92339e-10 0)
(1 -1.96862e-10 0)
(1 -1.88334e-10 0)
(1 -2.07207e-10 0)
(1 -1.67331e-10 0)
(1 2.24114e-11 0)
(1 5.68469e-11 0)
(1 9.1228e-11 0)
(1 1.23325e-10 0)
(1 1.50396e-10 0)
(1 1.70566e-10 0)
(1 1.81785e-10 0)
(1 1.82598e-10 0)
(1 1.73122e-10 0)
(1 1.54602e-10 0)
(1 1.28488e-10 0)
(1 9.508e-11 0)
(1 5.39546e-11 0)
(1 -7.68437e-12 0)
(1 -1.02513e-10 0)
(1 -2.42699e-10 0)
(1 -4.40319e-10 0)
(1 -7.09673e-10 0)
(1 -1.0679e-09 0)
(1 -1.53564e-09 0)
(1 -2.13829e-09 0)
(1 -2.90767e-09 0)
(1 -3.8836e-09 0)
(1 -5.11513e-09 0)
(1 -6.66112e-09 0)
(1 -8.59076e-09 0)
(1 -1.0985e-08 0)
(1 -1.39406e-08 0)
(1 -1.75776e-08 0)
(1 -2.20493e-08 0)
(1 -2.755e-08 0)
(1 -3.43185e-08 0)
(1 -4.26316e-08 0)
(1 -5.27912e-08 0)
(1 -6.51047e-08 0)
(1 -7.98652e-08 0)
(1 -9.73371e-08 0)
(1 -1.17752e-07 0)
(1 -1.41311e-07 0)
(1 -1.68179e-07 0)
(1 -1.98466e-07 0)
(1 -2.32168e-07 0)
(1 -2.69079e-07 0)
(1 -3.08637e-07 0)
(1 -3.49701e-07 0)
(1.00001 -3.9028e-07 0)
(1.00001 -4.27303e-07 0)
(1.00001 -4.56607e-07 0)
(1.00001 -4.73268e-07 0)
(1.00001 -4.72352e-07 -1.5777e-41)
(1.00001 -4.50016e-07 -1.76482e-41)
(1.00001 -4.05022e-07 0)
(1.00001 -3.41138e-07 0)
(1.00001 -2.71042e-07 0)
(1.00001 -2.16671e-07 0)
(1.00001 -1.88746e-07 0)
(1.00001 -1.54465e-07 0)
(1.00001 -1.03475e-07 0)
(1.00002 -8.96432e-08 0)
(1.00002 -1.22628e-07 0)
(1.00002 -1.70979e-07 0)
(1.00003 -1.86956e-07 0)
(1.00003 -1.38498e-07 0)
(1.00004 -2.04972e-08 0)
(1.00004 1.47205e-07 0)
(1.00005 3.51471e-07 0)
(1.00005 5.55963e-07 0)
(1.00005 7.4769e-07 0)
(1.00005 9.26216e-07 0)
(1.00005 1.09078e-06 0)
(1.00004 1.2373e-06 0)
(1.00004 1.35897e-06 0)
(1.00003 1.44694e-06 0)
(1.00003 1.49144e-06 0)
(1.00002 1.485e-06 0)
(1.00001 1.42563e-06 0)
(1 1.31666e-06 0)
(0.999998 1.1642e-06 0)
(0.999992 9.75267e-07 0)
(0.999987 7.5663e-07 0)
(0.999983 5.12948e-07 0)
(0.999981 2.35927e-07 0)
(0.999979 -8.36342e-08 0)
(0.999979 -4.29181e-07 0)
(0.99998 -7.8493e-07 0)
(0.999982 -1.13866e-06 0)
(0.999985 -1.48018e-06 0)
(0.999989 -1.80078e-06 0)
(0.999993 -2.09183e-06 0)
(0.999999 -2.34045e-06 0)
(1.00001 -2.52263e-06 0)
(1.00001 -2.59462e-06 0)
(1.00002 -2.49433e-06 0)
(1.00003 -2.19276e-06 0)
(1.00004 -1.83411e-06 0)
(1.00006 -1.55355e-06 0)
(1.00007 -1.29656e-06 0)
(1.00008 -1.0079e-06 0)
(1.0001 -6.592e-07 0)
(1.00011 -2.40251e-07 0)
(1.00011 2.44384e-07 0)
(1.00012 7.87838e-07 0)
(1.00012 1.34537e-06 0)
(1.00012 1.89446e-06 0)
(1.00011 2.40874e-06 0)
(1.0001 2.85764e-06 0)
(1.00009 3.21188e-06 0)
(1.00008 3.44718e-06 0)
(1.00006 3.54756e-06 0)
(1.00005 3.50764e-06 0)
(1.00003 3.33311e-06 0)
(1.00001 3.04024e-06 0)
(0.999997 2.65442e-06 0)
(0.999984 2.20839e-06 0)
(0.999973 1.73784e-06 0)
(0.999964 1.27187e-06 0)
(0.999958 8.21372e-07 0)
(0.999954 3.78551e-07 0)
(0.999953 -6.02902e-08 0)
(0.999952 -4.81784e-07 0)
(0.999953 -8.70966e-07 0)
(0.999955 -1.20494e-06 0)
(0.999958 -1.45038e-06 0)
(0.999961 -1.57462e-06 0)
(0.999965 -1.56359e-06 0)
(0.999968 -1.43454e-06 0)
(0.999971 -1.23441e-06 0)
(0.999973 -1.02243e-06 0)
(0.999975 -8.46363e-07 0)
(0.999977 -7.28021e-07 0)
(0.999979 -6.6537e-07 0)
(0.99998 -6.43734e-07 0)
(0.999981 -6.45433e-07 0)
(0.999983 -6.54953e-07 0)
(0.999984 -6.61219e-07 0)
(0.999986 -6.57968e-07 0)
(0.999987 -6.42895e-07 0)
(0.999989 -6.16398e-07 0)
(0.99999 -5.80451e-07 0)
(0.999991 -5.37713e-07 0)
(0.999992 -4.90914e-07 0)
(0.999993 -4.425e-07 0)
(0.999994 -3.9446e-07 0)
(0.999995 -3.4828e-07 0)
(0.999996 -3.04977e-07 0)
(0.999997 -2.65165e-07 0)
(0.999997 -2.29141e-07 0)
(0.999998 -1.96961e-07 0)
(0.999998 -1.68518e-07 0)
(0.999998 -1.43593e-07 0)
(0.999999 -1.21908e-07 0)
(0.999999 -1.03151e-07 0)
(0.999999 -8.70067e-08 0)
(0.999999 -7.31683e-08 0)
(0.999999 -6.13474e-08 0)
(1 -5.12801e-08 0)
(1 -4.27289e-08 0)
(1 -3.54827e-08 0)
(1 -2.93557e-08 0)
(1 -2.41852e-08 0)
(1 -1.9829e-08 0)
(1 -1.61627e-08 0)
(1 -1.3078e-08 0)
(1 -1.04812e-08 0)
(1 -8.2926e-09 0)
(1 -6.44556e-09 0)
(1 -4.88433e-09 0)
(1 -3.56336e-09 0)
(1 -2.45316e-09 0)
(1 -1.54621e-09 0)
(1 -8.74337e-10 0)
(1 -4.17016e-10 0)
(1 -9.07236e-11 0)
(1 1.5795e-10 0)
(1 3.52528e-10 0)
(1 5.01949e-10 0)
(1 6.14057e-10 0)
(1 6.95098e-10 0)
(1 7.50278e-10 0)
(1 7.8415e-10 0)
(1 8.00593e-10 0)
(1 8.02903e-10 0)
(1 7.93864e-10 0)
(1 7.75784e-10 0)
(1 7.50594e-10 0)
(1 7.19869e-10 0)
(1 6.84912e-10 0)
(1 6.46795e-10 0)
(1 6.06364e-10 0)
(1 5.64301e-10 0)
(1 5.21131e-10 0)
(1 4.77257e-10 0)
(1 4.32962e-10 0)
(1 3.88412e-10 0)
(1 3.43634e-10 0)
(1 2.98773e-10 0)
(1 2.55562e-10 0)
(1 2.2161e-10 0)
(1 1.7211e-10 0)
(1 1.51043e-10 0)
(1 2.42881e-11 0)
(1 6.31717e-11 0)
(1 1.03542e-10 0)
(1 1.41783e-10 0)
(1 1.78576e-10 0)
(1 2.14334e-10 0)
(1 2.46521e-10 0)
(1 2.72652e-10 0)
(1 2.89856e-10 0)
(1 2.93673e-10 0)
(1 2.78354e-10 0)
(1 2.36993e-10 0)
(1 1.60374e-10 0)
(1 3.99626e-11 0)
(1 -1.34524e-10 0)
(1 -3.79128e-10 0)
(1 -7.15017e-10 0)
(1 -1.16754e-09 0)
(1 -1.76621e-09 0)
(1 -2.54599e-09 0)
(1 -3.54953e-09 0)
(1 -4.82998e-09 0)
(1 -6.45377e-09 0)
(1 -8.50259e-09 0)
(1 -1.10745e-08 0)
(1 -1.42847e-08 0)
(1 -1.82679e-08 0)
(1 -2.31852e-08 0)
(1 -2.92365e-08 0)
(1 -3.66766e-08 0)
(1 -4.58295e-08 0)
(1 -5.70921e-08 0)
(1 -7.09257e-08 0)
(1 -8.78328e-08 0)
(1 -1.08326e-07 0)
(1 -1.32893e-07 0)
(1 -1.61977e-07 0)
(1 -1.95964e-07 0)
(1 -2.35192e-07 0)
(1 -2.79943e-07 0)
(1 -3.30403e-07 0)
(1 -3.86576e-07 0)
(1 -4.48137e-07 0)
(1 -5.1418e-07 0)
(1 -5.82846e-07 0)
(1.00001 -6.5086e-07 0)
(1.00001 -7.13119e-07 0)
(1.00001 -7.62608e-07 0)
(1.00001 -7.90931e-07 0)
(1.00001 -7.89675e-07 0)
(1.00001 -7.52666e-07 0)
(1.00001 -6.78795e-07 0)
(1.00001 -5.74334e-07 0)
(1.00001 -4.52944e-07 0)
(1.00001 -3.35387e-07 0)
(1.00001 -2.5954e-07 0)
(1.00001 -2.93255e-07 0)
(1.00001 -4.84391e-07 0)
(1.00002 -8.04826e-07 0)
(1.00002 -1.17098e-06 0)
(1.00002 -1.47179e-06 0)
(1.00002 -1.60527e-06 0)
(1.00002 -1.51534e-06 0)
(1.00002 -1.21045e-06 0)
(1.00002 -7.4619e-07 0)
(1.00002 -2.00093e-07 0)
(1.00002 3.69437e-07 0)
(1.00002 9.30864e-07 0)
(1.00002 1.47093e-06 0)
(1.00002 1.98137e-06 0)
(1.00002 2.45028e-06 0)
(1.00001 2.85974e-06 0)
(1.00001 3.18625e-06 0)
(1 3.40331e-06 0)
(1 3.48912e-06 0)
(0.999995 3.43451e-06 0)
(0.999991 3.24334e-06 0)
(0.999987 2.9266e-06 0)
(0.999984 2.49796e-06 0)
(0.999981 1.9743e-06 0)
(0.999979 1.3774e-06 0)
(0.999978 7.3568e-07 0)
(0.999978 7.65444e-08 0)
(0.999978 -5.84404e-07 0)
(0.999979 -1.23757e-06 0)
(0.999981 -1.87471e-06 0)
(0.999984 -2.48732e-06 0)
(0.999988 -3.06548e-06 0)
(0.999993 -3.59728e-06 0)
(0.999998 -4.07104e-06 0)
(1 -4.48058e-06 0)
(1.00001 -4.83109e-06 0)
(1.00002 -5.13674e-06 0)
(1.00002 -5.39047e-06 0)
(1.00003 -5.50634e-06 0)
(1.00004 -5.38669e-06 0)
(1.00004 -5.01128e-06 0)
(1.00005 -4.39446e-06 0)
(1.00005 -3.55409e-06 0)
(1.00005 -2.50742e-06 0)
(1.00006 -1.27766e-06 0)
(1.00006 1.03245e-07 0)
(1.00005 1.57786e-06 0)
(1.00005 3.08187e-06 0)
(1.00005 4.5355e-06 0)
(1.00004 5.85123e-06 0)
(1.00003 6.94455e-06 0)
(1.00002 7.74374e-06 0)
(1.00001 8.19877e-06 0)
(1 8.28739e-06 0)
(0.999992 8.01722e-06 0)
(0.999982 7.42419e-06 0)
(0.999974 6.56858e-06 0)
(0.999966 5.52921e-06 0)
(0.99996 4.39286e-06 0)
(0.999956 3.23996e-06 0)
(0.999953 2.13355e-06 0)
(0.999951 1.11403e-06 0)
(0.99995 1.95803e-07 0)
(0.999951 -6.25216e-07 0)
(0.999952 -1.3489e-06 0)
(0.999954 -1.95303e-06 0)
(0.999957 -2.39166e-06 0)
(0.999961 -2.61567e-06 0)
(0.999964 -2.60486e-06 0)
(0.999968 -2.39084e-06 0)
(0.999971 -2.05496e-06 0)
(0.999973 -1.69896e-06 0)
(0.999975 -1.40428e-06 0)
(0.999977 -1.20752e-06 0)
(0.999979 -1.10459e-06 0)
(0.99998 -1.0703e-06 0)
(0.999981 -1.0747e-06 0)
(0.999983 -1.09171e-06 0)
(0.999984 -1.10282e-06 0)
(0.999986 -1.09768e-06 0)
(0.999987 -1.07256e-06 0)
(0.999989 -1.02824e-06 0)
(0.99999 -9.6808e-07 0)
(0.999991 -8.96591e-07 0)
(0.999992 -8.18356e-07 0)
(0.999993 -7.37472e-07 0)
(0.999994 -6.57257e-07 0)
(0.999995 -5.80189e-07 0)
(0.999996 -5.07954e-07 0)
(0.999997 -4.4157e-07 0)
(0.999997 -3.81521e-07 0)
(0.999998 -3.27898e-07 0)
(0.999998 -2.80513e-07 0)
(0.999998 -2.39e-07 0)
(0.999999 -2.02887e-07 0)
(0.999999 -1.71657e-07 0)
(0.999999 -1.44781e-07 0)
(0.999999 -1.21745e-07 0)
(0.999999 -1.0207e-07 0)
(1 -8.53154e-08 0)
(1 -7.10841e-08 0)
(1 -5.90242e-08 0)
(1 -4.88263e-08 0)
(1 -4.02208e-08 0)
(1 -3.29749e-08 0)
(1 -2.68888e-08 0)
(1 -2.17921e-08 0)
(1 -1.75395e-08 0)
(1 -1.40059e-08 0)
(1 -1.10833e-08 0)
(1 -8.67737e-09 0)
(1 -6.70518e-09 0)
(1 -5.08981e-09 0)
(1 -3.75646e-09 0)
(1 -2.63037e-09 0)
(1 -1.66847e-09 0)
(1 -8.63535e-10 0)
(1 -2.08854e-10 0)
(1 3.11092e-10 0)
(1 7.15968e-10 0)
(1 1.02535e-09 0)
(1 1.25593e-09 0)
(1 1.4217e-09 0)
(1 1.53444e-09 0)
(1 1.60394e-09 0)
(1 1.63837e-09 0)
(1 1.64455e-09 0)
(1 1.62814e-09 0)
(1 1.59384e-09 0)
(1 1.54554e-09 0)
(1 1.48643e-09 0)
(1 1.41917e-09 0)
(1 1.34588e-09 0)
(1 1.26831e-09 0)
(1 1.18783e-09 0)
(1 1.10557e-09 0)
(1 1.02239e-09 0)
(1 9.39006e-10 0)
(1 8.56043e-10 0)
(1 7.73902e-10 0)
(1 6.94079e-10 0)
(1 6.09107e-10 0)
(1 5.44763e-10 0)
(1 4.19885e-10 0)
(1 3.39563e-11 0)
(1 9.24174e-11 0)
(1 1.55363e-10 0)
(1 2.16189e-10 0)
(1 2.74454e-10 0)
(1 3.29114e-10 0)
(1 3.75389e-10 0)
(1 4.08571e-10 0)
(1 4.23596e-10 0)
(1 4.15429e-10 0)
(1 3.79298e-10 0)
(1 3.09974e-10 0)
(1 1.99648e-10 0)
(1 3.60502e-11 0)
(1 -2.00683e-10 0)
(1 -5.36023e-10 0)
(1 -1.0003e-09 0)
(1 -1.62858e-09 0)
(1 -2.46172e-09 0)
(1 -3.54827e-09 0)
(1 -4.94764e-09 0)
(1 -6.73395e-09 0)
(1 -8.99988e-09 0)
(1 -1.18595e-08 0)
(1 -1.54496e-08 0)
(1 -1.99312e-08 0)
(1 -2.54924e-08 0)
(1 -3.23581e-08 0)
(1 -4.08077e-08 0)
(1 -5.11971e-08 0)
(1 -6.39792e-08 0)
(1 -7.97086e-08 0)
(1 -9.90301e-08 0)
(1 -1.22646e-07 0)
(1 -1.51275e-07 0)
(1 -1.85599e-07 0)
(1 -2.26239e-07 0)
(1 -2.7374e-07 0)
(1 -3.28581e-07 0)
(1 -3.91168e-07 0)
(1 -4.61781e-07 0)
(1 -5.40451e-07 0)
(1 -6.26755e-07 0)
(1 -7.19464e-07 0)
(1 -8.16014e-07 0)
(1.00001 -9.11836e-07 0)
(1.00001 -9.99769e-07 0)
(1.00001 -1.06994e-06 0)
(1.00001 -1.11052e-06 0)
(1.00001 -1.10953e-06 0)
(1.00001 -1.05771e-06 0)
(1.00001 -9.52339e-07 0)
(1.00001 -8.01656e-07 0)
(1.00001 -6.2942e-07 0)
(1.00001 -4.76695e-07 0)
(1.00001 -3.94611e-07 0)
(1.00001 -4.26603e-07 0)
(1.00001 -5.88651e-07 0)
(1.00002 -8.61211e-07 0)
(1.00002 -1.18289e-06 0)
(1.00002 -1.4444e-06 0)
(1.00002 -1.52705e-06 0)
(1.00002 -1.35978e-06 0)
(1.00002 -9.50966e-07 0)
(1.00002 -3.72074e-07 0)
(1.00002 2.86202e-07 0)
(1.00002 9.56077e-07 0)
(1.00002 1.60067e-06 0)
(1.00002 2.20865e-06 0)
(1.00002 2.77537e-06 0)
(1.00002 3.28928e-06 0)
(1.00001 3.73037e-06 0)
(1.00001 4.07129e-06 0)
(1 4.28045e-06 0)
(1 4.33223e-06 0)
(0.999995 4.21765e-06 0)
(0.999991 3.94419e-06 0)
(0.999987 3.5273e-06 0)
(0.999984 2.98429e-06 0)
(0.999981 2.33398e-06 0)
(0.999979 1.59713e-06 0)
(0.999978 7.95645e-07 0)
(0.999977 -4.90547e-08 0)
(0.999978 -9.17959e-07 0)
(0.999979 -1.79104e-06 0)
(0.999981 -2.64959e-06 0)
(0.999984 -3.47635e-06 0)
(0.999988 -4.25453e-06 0)
(0.999992 -4.96652e-06 0)
(0.999997 -5.59208e-06 0)
(1 -6.1055e-06 0)
(1.00001 -6.47463e-06 0)
(1.00002 -6.66551e-06 0)
(1.00002 -6.65455e-06 0)
(1.00003 -6.42942e-06 0)
(1.00004 -5.99481e-06 0)
(1.00004 -5.3587e-06 0)
(1.00005 -4.50905e-06 0)
(1.00005 -3.43638e-06 0)
(1.00005 -2.14579e-06 0)
(1.00006 -6.58524e-07 0)
(1.00006 9.8177e-07 0)
(1.00006 2.72424e-06 0)
(1.00005 4.48555e-06 0)
(1.00005 6.16836e-06 0)
(1.00004 7.67056e-06 0)
(1.00003 8.89442e-06 0)
(1.00002 9.75796e-06 0)
(1.00001 1.02055e-05 0)
(1 1.02149e-05 0)
(0.999992 9.79953e-06 0)
(0.999982 9.00611e-06 0)
(0.999973 7.90982e-06 0)
(0.999966 6.60782e-06 0)
(0.99996 5.20642e-06 0)
(0.999955 3.80042e-06 0)
(0.999952 2.45418e-06 0)
(0.999951 1.19788e-06 0)
(0.99995 3.78467e-08 0)
(0.99995 -1.02812e-06 0)
(0.999952 -1.98994e-06 0)
(0.999954 -2.80677e-06 0)
(0.999957 -3.40501e-06 0)
(0.999961 -3.70772e-06 0)
(0.999965 -3.6811e-06 0)
(0.999968 -3.36768e-06 0)
(0.999971 -2.88333e-06 0)
(0.999974 -2.37405e-06 0)
(0.999976 -1.95608e-06 0)
(0.999977 -1.68009e-06 0)
(0.999979 -1.53835e-06 0)
(0.99998 -1.49364e-06 0)
(0.999981 -1.50286e-06 0)
(0.999983 -1.52892e-06 0)
(0.999984 -1.54581e-06 0)
(0.999986 -1.53914e-06 0)
(0.999987 -1.50393e-06 0)
(0.999989 -1.4415e-06 0)
(0.99999 -1.35675e-06 0)
(0.999991 -1.2561e-06 0)
(0.999992 -1.14607e-06 0)
(0.999993 -1.03241e-06 0)
(0.999994 -9.19794e-07 0)
(0.999995 -8.11681e-07 0)
(0.999996 -7.10419e-07 0)
(0.999997 -6.17414e-07 0)
(0.999997 -5.3333e-07 0)
(0.999998 -4.58278e-07 0)
(0.999998 -3.91982e-07 0)
(0.999998 -3.3392e-07 0)
(0.999999 -2.83427e-07 0)
(0.999999 -2.39771e-07 0)
(0.999999 -2.02208e-07 0)
(0.999999 -1.70018e-07 0)
(0.999999 -1.42528e-07 0)
(1 -1.19121e-07 0)
(1 -9.92421e-08 0)
(1 -8.23987e-08 0)
(1 -6.8158e-08 0)
(1 -5.61422e-08 0)
(1 -4.60233e-08 0)
(1 -3.7517e-08 0)
(1 -3.03782e-08 0)
(1 -2.43964e-08 0)
(1 -1.93922e-08 0)
(1 -1.52137e-08 0)
(1 -1.17337e-08 0)
(1 -8.84686e-09 0)
(1 -6.46724e-09 0)
(1 -4.52475e-09 0)
(1 -2.95614e-09 0)
(1 -1.70496e-09 0)
(1 -7.18393e-10 0)
(1 5.4991e-11 0)
(1 6.57207e-10 0)
(1 1.12131e-09 0)
(1 1.47212e-09 0)
(1 1.72973e-09 0)
(1 1.91082e-09 0)
(1 2.02932e-09 0)
(1 2.09682e-09 0)
(1 2.12304e-09 0)
(1 2.11606e-09 0)
(1 2.08261e-09 0)
(1 2.02828e-09 0)
(1 1.95768e-09 0)
(1 1.87459e-09 0)
(1 1.78214e-09 0)
(1 1.68284e-09 0)
(1 1.57871e-09 0)
(1 1.47137e-09 0)
(1 1.3621e-09 0)
(1 1.25191e-09 0)
(1 1.14157e-09 0)
(1 1.03173e-09 0)
(1 9.22723e-10 0)
(1 8.15316e-10 0)
(1 7.05177e-10 0)
(1 6.15254e-10 0)
(1 4.50989e-10 0)
(1 4.40839e-11 0)
(1 1.19467e-10 0)
(1 1.99611e-10 0)
(1 2.75895e-10 0)
(1 3.48218e-10 0)
(1 4.1583e-10 0)
(1 4.73137e-10 0)
(1 5.14718e-10 0)
(1 5.35087e-10 0)
(1 5.28472e-10 0)
(1 4.88536e-10 0)
(1 4.07163e-10 0)
(1 2.71618e-10 0)
(1 6.42686e-11 0)
(1 -2.38946e-10 0)
(1 -6.69085e-10 0)
(1 -1.26421e-09 0)
(1 -2.06907e-09 0)
(1 -3.136e-09 0)
(1 -4.52727e-09 0)
(1 -6.31903e-09 0)
(1 -8.60634e-09 0)
(1 -1.1508e-08 0)
(1 -1.51702e-08 0)
(1 -1.97684e-08 0)
(1 -2.55089e-08 0)
(1 -3.2633e-08 0)
(1 -4.1429e-08 0)
(1 -5.22547e-08 0)
(1 -6.55671e-08 0)
(1 -8.19466e-08 0)
(1 -1.02105e-07 0)
(1 -1.26869e-07 0)
(1 -1.57141e-07 0)
(1 -1.93842e-07 0)
(1 -2.37853e-07 0)
(1 -2.89972e-07 0)
(1 -3.50907e-07 0)
(1 -4.21282e-07 0)
(1 -5.0164e-07 0)
(1 -5.92366e-07 0)
(1 -6.93541e-07 0)
(1 -8.04678e-07 0)
(1 -9.24282e-07 0)
(1 -1.04916e-06 0)
(1.00001 -1.17352e-06 0)
(1.00001 -1.28817e-06 0)
(1.00001 -1.38026e-06 0)
(1.00001 -1.43423e-06 0)
(1.00001 -1.4342e-06 0)
(1.00001 -1.36787e-06 0)
(1.00001 -1.23166e-06 0)
(1.00001 -1.03597e-06 0)
(1.00001 -8.09194e-07 0)
(1.00001 -5.98994e-07 0)
(1.00001 -4.705e-07 0)
(1.00001 -4.98046e-07 0)
(1.00001 -7.36949e-07 0)
(1.00002 -1.17894e-06 0)
(1.00002 -1.72469e-06 0)
(1.00002 -2.19651e-06 0)
(1.00002 -2.40856e-06 0)
(1.00002 -2.25212e-06 0)
(1.00002 -1.73489e-06 0)
(1.00002 -9.55991e-07 0)
(1.00002 -4.18232e-08 0)
(1.00002 9.01081e-07 0)
(1.00002 1.81712e-06 0)
(1.00002 2.69096e-06 0)
(1.00002 3.51542e-06 0)
(1.00002 4.27254e-06 0)
(1.00001 4.93269e-06 0)
(1.00001 5.45602e-06 0)
(1 5.79619e-06 0)
(1 5.91517e-06 0)
(0.999995 5.79854e-06 0)
(0.999991 5.45547e-06 0)
(0.999987 4.90666e-06 0)
(0.999984 4.17616e-06 0)
(0.999981 3.2918e-06 0)
(0.999979 2.28663e-06 0)
(0.999978 1.19708e-06 0)
(0.999977 5.77396e-08 0)
(0.999978 -1.10221e-06 0)
(0.999979 -2.25852e-06 0)
(0.999981 -3.39101e-06 0)
(0.999984 -4.48116e-06 0)
(0.999988 -5.50981e-06 0)
(0.999992 -6.45544e-06 0)
(0.999997 -7.29392e-06 0)
(1 -8.0001e-06 0)
(1.00001 -8.55024e-06 0)
(1.00002 -8.92192e-06 0)
(1.00002 -9.08837e-06 0)
(1.00003 -9.00599e-06 0)
(1.00004 -8.62703e-06 0)
(1.00004 -7.91842e-06 0)
(1.00005 -6.86133e-06 0)
(1.00005 -5.45275e-06 0)
(1.00006 -3.70436e-06 0)
(1.00006 -1.64925e-06 0)
(1.00006 6.51782e-07 0)
(1.00006 3.10714e-06 0)
(1.00005 5.60264e-06 0)
(1.00005 8.00535e-06 0)
(1.00004 1.01707e-05 0)
(1.00003 1.19579e-05 0)
(1.00002 1.32477e-05 0)
(1.00001 1.39573e-05 0)
(1 1.40515e-05 0)
(0.999991 1.35449e-05 0)
(0.999982 1.24998e-05 0)
(0.999973 1.10195e-05 0)
(0.999965 9.23935e-06 0)
(0.999959 7.30978e-06 0)
(0.999955 5.36748e-06 0)
(0.999952 3.50901e-06 0)
(0.99995 1.78418e-06 0)
(0.999949 2.06774e-07 0)
(0.99995 -1.22723e-06 0)
(0.999951 -2.51154e-06 0)
(0.999954 -3.59892e-06 0)
(0.999957 -4.39523e-06 0)
(0.999961 -4.79892e-06 0)
(0.999965 -4.76473e-06 0)
(0.999968 -4.34951e-06 0)
(0.999971 -3.70898e-06 0)
(0.999974 -3.0392e-06 0)
(0.999976 -2.49469e-06 0)
(0.999977 -2.14037e-06 0)
(0.999979 -1.96301e-06 0)
(0.99998 -1.91168e-06 0)
(0.999981 -1.92906e-06 0)
(0.999983 -1.96657e-06 0)
(0.999984 -1.9906e-06 0)
(0.999986 -1.98295e-06 0)
(0.999987 -1.93762e-06 0)
(0.999989 -1.8567e-06 0)
(0.99999 -1.74682e-06 0)
(0.999991 -1.61646e-06 0)
(0.999992 -1.47412e-06 0)
(0.999994 -1.32728e-06 0)
(0.999994 -1.18195e-06 0)
(0.999995 -1.04258e-06 0)
(0.999996 -9.12157e-07 0)
(0.999997 -7.92469e-07 0)
(0.999997 -6.84336e-07 0)
(0.999998 -5.87876e-07 0)
(0.999998 -5.02714e-07 0)
(0.999998 -4.28162e-07 0)
(0.999999 -3.63353e-07 0)
(0.999999 -3.07336e-07 0)
(0.999999 -2.5915e-07 0)
(0.999999 -2.17868e-07 0)
(0.999999 -1.82619e-07 0)
(1 -1.52609e-07 0)
(1 -1.27126e-07 0)
(1 -1.05536e-07 0)
(1 -8.72836e-08 0)
(1 -7.18835e-08 0)
(1 -5.89167e-08 0)
(1 -4.8022e-08 0)
(1 -3.88897e-08 0)
(1 -3.12547e-08 0)
(1 -2.48901e-08 0)
(1 -1.9601e-08 0)
(1 -1.52205e-08 0)
(1 -1.16046e-08 0)
(1 -8.62835e-09 0)
(1 -6.18407e-09 0)
(1 -4.17862e-09 0)
(1 -2.538e-09 0)
(1 -1.20637e-09 0)
(1 -1.37028e-10 0)
(1 7.09446e-10 0)
(1 1.36795e-09 0)
(1 1.86969e-09 0)
(1 2.24164e-09 0)
(1 2.50661e-09 0)
(1 2.68386e-09 0)
(1 2.78954e-09 0)
(1 2.83718e-09 0)
(1 2.8381e-09 0)
(1 2.8017e-09 0)
(1 2.73578e-09 0)
(1 2.64681e-09 0)
(1 2.5401e-09 0)
(1 2.42002e-09 0)
(1 2.2901e-09 0)
(1 2.1532e-09 0)
(1 2.0116e-09 0)
(1 1.86714e-09 0)
(1 1.72125e-09 0)
(1 1.57503e-09 0)
(1 1.42941e-09 0)
(1 1.28475e-09 0)
(1 1.14257e-09 0)
(1 9.9751e-10 0)
(1 8.76351e-10 0)
(1 6.61158e-10 0)
(1 5.40979e-11 0)
(1 1.46058e-10 0)
(1 2.44018e-10 0)
(1 3.37675e-10 0)
(1 4.26954e-10 0)
(1 5.10929e-10 0)
(1 5.82658e-10 0)
(1 6.35377e-10 0)
(1 6.62076e-10 0)
(1 6.55199e-10 0)
(1 6.06665e-10 0)
(1 5.06511e-10 0)
(1 3.40566e-10 0)
(1 8.83678e-11 0)
(1 -2.79274e-10 0)
(1 -8.00596e-10 0)
(1 -1.52227e-09 0)
(1 -2.49897e-09 0)
(1 -3.79446e-09 0)
(1 -5.48456e-09 0)
(1 -7.66199e-09 0)
(1 -1.04424e-08 0)
(1 -1.39705e-08 0)
(1 -1.84242e-08 0)
(1 -2.40171e-08 0)
(1 -3.10004e-08 0)
(1 -3.96678e-08 0)
(1 -5.03704e-08 0)
(1 -6.3544e-08 0)
(1 -7.97451e-08 0)
(1 -9.9681e-08 0)
(1 -1.24219e-07 0)
(1 -1.54367e-07 0)
(1 -1.91226e-07 0)
(1 -2.3592e-07 0)
(1 -2.89528e-07 0)
(1 -3.53027e-07 0)
(1 -4.27288e-07 0)
(1 -5.13094e-07 0)
(1 -6.11135e-07 0)
(1 -7.21927e-07 0)
(1 -8.45633e-07 0)
(1 -9.81744e-07 0)
(1 -1.12855e-06 0)
(1 -1.28229e-06 0)
(1.00001 -1.43599e-06 0)
(1.00001 -1.57838e-06 0)
(1.00001 -1.6936e-06 0)
(1.00001 -1.76222e-06 0)
(1.00001 -1.76418e-06 0)
(1.00001 -1.68351e-06 0)
(1.00001 -1.51451e-06 0)
(1.00001 -1.2688e-06 0)
(1.00001 -9.81861e-07 0)
(1.00001 -7.16516e-07 0)
(1.00001 -5.58394e-07 0)
(1.00001 -5.97616e-07 0)
(1.00001 -8.91465e-07 0)
(1.00002 -1.41936e-06 0)
(1.00002 -2.05643e-06 0)
(1.00002 -2.5889e-06 0)
(1.00002 -2.79439e-06 0)
(1.00002 -2.54666e-06 0)
(1.00002 -1.86768e-06 0)
(1.00002 -8.88484e-07 0)
(1.00002 2.20241e-07 0)
(1.00002 1.34049e-06 0)
(1.00002 2.41559e-06 0)
(1.00002 3.43298e-06 0)
(1.00002 4.38755e-06 0)
(1.00002 5.25999e-06 0)
(1.00001 6.01652e-06 0)
(1.00001 6.61032e-06 0)
(1 6.9855e-06 0)
(1 7.09624e-06 0)
(0.999995 6.92712e-06 0)
(0.999991 6.49214e-06 0)
(0.999987 5.81805e-06 0)
(0.999983 4.93345e-06 0)
(0.999981 3.8701e-06 0)
(0.999979 2.66553e-06 0)
(0.999977 1.36017e-06 0)
(0.999977 -7.54093e-09 0)
(0.999977 -1.40436e-06 0)
(0.999978 -2.80079e-06 0)
(0.999981 -4.17058e-06 0)
(0.999984 -5.48924e-06 0)
(0.999987 -6.73208e-06 0)
(0.999992 -7.87241e-06 0)
(0.999997 -8.88034e-06 0)
(1 -9.72225e-06 0)
(1.00001 -1.03609e-05 0)
(1.00002 -1.07568e-05 0)
(1.00002 -1.08706e-05 0)
(1.00003 -1.06617e-05 0)
(1.00004 -1.00969e-05 0)
(1.00004 -9.15555e-06 0)
(1.00005 -7.8234e-06 0)
(1.00005 -6.09638e-06 0)
(1.00006 -3.98927e-06 0)
(1.00006 -1.54088e-06 0)
(1.00006 1.1807e-06 0)
(1.00006 4.07939e-06 0)
(1.00005 7.02156e-06 0)
(1.00005 9.84627e-06 0)
(1.00004 1.23804e-05 0)
(1.00003 1.44571e-05 0)
(1.00002 1.59358e-05 0)
(1.00001 1.67205e-05 0)
(1 1.6772e-05 0)
(0.999991 1.61114e-05 0)
(0.999981 1.48155e-05 0)
(0.999972 1.30096e-05 0)
(0.999965 1.08576e-05 0)
(0.999959 8.54139e-06 0)
(0.999954 6.22448e-06 0)
(0.999951 4.018e-06 0)
(0.99995 1.97388e-06 0)
(0.999949 1.00655e-07 0)
(0.99995 -1.61275e-06 0)
(0.999951 -3.16178e-06 0)
(0.999954 -4.4861e-06 0)
(0.999957 -5.46166e-06 0)
(0.999961 -5.95264e-06 0)
(0.999965 -5.8955e-06 0)
(0.999968 -5.35943e-06 0)
(0.999971 -4.54307e-06 0)
(0.999974 -3.69784e-06 0)
(0.999976 -3.01964e-06 0)
(0.999977 -2.58665e-06 0)
(0.999979 -2.37711e-06 0)
(0.99998 -2.32368e-06 0)
(0.999981 -2.3533e-06 0)
(0.999983 -2.40519e-06 0)
(0.999984 -2.43803e-06 0)
(0.999986 -2.43001e-06 0)
(0.999987 -2.37443e-06 0)
(0.999989 -2.27448e-06 0)
(0.99999 -2.13874e-06 0)
(0.999991 -1.97793e-06 0)
(0.999993 -1.80261e-06 0)
(0.999994 -1.62205e-06 0)
(0.999995 -1.44361e-06 0)
(0.999995 -1.2727e-06 0)
(0.999996 -1.11295e-06 0)
(0.999997 -9.66501e-07 0)
(0.999997 -8.34304e-07 0)
(0.999998 -7.16465e-07 0)
(0.999998 -6.12495e-07 0)
(0.999998 -5.21529e-07 0)
(0.999999 -4.42487e-07 0)
(0.999999 -3.74195e-07 0)
(0.999999 -3.1547e-07 0)
(0.999999 -2.65171e-07 0)
(0.999999 -2.22234e-07 0)
(1 -1.85687e-07 0)
(1 -1.54657e-07 0)
(1 -1.28373e-07 0)
(1 -1.06154e-07 0)
(1 -8.74115e-08 0)
(1 -7.16315e-08 0)
(1 -5.83721e-08 0)
(1 -4.72527e-08 0)
(1 -3.79469e-08 0)
(1 -3.0176e-08 0)
(1 -2.3703e-08 0)
(1 -1.83271e-08 0)
(1 -1.38786e-08 0)
(1 -1.02144e-08 0)
(1 -7.2132e-09 0)
(1 -4.77017e-09 0)
(1 -2.79621e-09 0)
(1 -1.21651e-09 0)
(1 3.52829e-11 0)
(1 1.01585e-09 0)
(1 1.77288e-09 0)
(1 2.34578e-09 0)
(1 2.76718e-09 0)
(1 3.06419e-09 0)
(1 3.25947e-09 0)
(1 3.37193e-09 0)
(1 3.41734e-09 0)
(1 3.40886e-09 0)
(1 3.35741e-09 0)
(1 3.27205e-09 0)
(1 3.16027e-09 0)
(1 3.02825e-09 0)
(1 2.881e-09 0)
(1 2.72264e-09 0)
(1 2.55643e-09 0)
(1 2.38503e-09 0)
(1 2.21052e-09 0)
(1 2.03455e-09 0)
(1 1.85838e-09 0)
(1 1.68303e-09 0)
(1 1.50888e-09 0)
(1 1.33779e-09 0)
(1 1.16331e-09 0)
(1 1.01654e-09 0)
(1 7.57964e-10 0)
(1 6.40579e-11 0)
(1 1.72808e-10 0)
(1 2.88873e-10 0)
(1 4.00014e-10 0)
(1 5.05983e-10 0)
(1 6.05662e-10 0)
(1 6.90862e-10 0)
(1 7.53609e-10 0)
(1 7.85712e-10 0)
(1 7.78497e-10 0)
(1 7.22804e-10 0)
(1 6.07227e-10 0)
(1 4.15147e-10 0)
(1 1.21953e-10 0)
(1 -3.07042e-10 0)
(1 -9.16824e-10 0)
(1 -1.76215e-09 0)
(1 -2.90724e-09 0)
(1 -4.42697e-09 0)
(1 -6.41046e-09 0)
(1 -8.96669e-09 0)
(1 -1.22317e-08 0)
(1 -1.63756e-08 0)
(1 -2.16076e-08 0)
(1 -2.81791e-08 0)
(1 -3.63856e-08 0)
(1 -4.65726e-08 0)
(1 -5.91532e-08 0)
(1 -7.46401e-08 0)
(1 -9.36884e-08 0)
(1 -1.17131e-07 0)
(1 -1.4599e-07 0)
(1 -1.81451e-07 0)
(1 -2.24812e-07 0)
(1 -2.77401e-07 0)
(1 -3.40494e-07 0)
(1 -4.15251e-07 0)
(1 -5.0271e-07 0)
(1 -6.03819e-07 0)
(1 -7.19433e-07 0)
(1 -8.50224e-07 0)
(1 -9.96466e-07 0)
(1 -1.15769e-06 0)
(1 -1.33204e-06 0)
(1 -1.5153e-06 0)
(1.00001 -1.69939e-06 0)
(1.00001 -1.87104e-06 0)
(1.00001 -2.01121e-06 0)
(1.00001 -2.09629e-06 0)
(1.00001 -2.10154e-06 7.97177e-42)
(1.00001 -2.00687e-06 9.07072e-42)
(1.00001 -1.8044e-06 0)
(1.00001 -1.50701e-06 0)
(1.00001 -1.1562e-06 0)
(1.00001 -8.26185e-07 0)
(1.00001 -6.19713e-07 0)
(1.00001 -6.49159e-07 0)
(1.00001 -9.95272e-07 0)
(1.00001 -1.64867e-06 0)
(1.00002 -2.46379e-06 0)
(1.00002 -3.17112e-06 0)
(1.00002 -3.48162e-06 0)
(1.00002 -3.22849e-06 0)
(1.00002 -2.43457e-06 0)
(1.00002 -1.26696e-06 0)
(1.00002 7.53657e-08 0)
(1.00002 1.43332e-06 0)
(1.00002 2.73456e-06 0)
(1.00002 3.9687e-06 0)
(1.00002 5.13337e-06 0)
(1.00002 6.20553e-06 0)
(1.00001 7.14374e-06 0)
(1.00001 7.88972e-06 0)
(1 8.37208e-06 0)
(1 8.53168e-06 0)
(0.999995 8.34874e-06 0)
(0.999991 7.84112e-06 0)
(0.999987 7.04177e-06 0)
(0.999983 5.98511e-06 0)
(0.99998 4.70992e-06 0)
(0.999978 3.26309e-06 0)
(0.999977 1.69536e-06 0)
(0.999976 5.43984e-08 0)
(0.999977 -1.61841e-06 0)
(0.999978 -3.28786e-06 0)
(0.99998 -4.92404e-06 0)
(0.999983 -6.49971e-06 0)
(0.999987 -7.98716e-06 0)
(0.999991 -9.35568e-06 0)
(0.999997 -1.05703e-05 0)
(1 -1.15922e-05 0)
(1.00001 -1.23794e-05 0)
(1.00002 -1.2889e-05 0)
(1.00002 -1.30764e-05 0)
(1.00003 -1.28926e-05 0)
(1.00004 -1.22903e-05 0)
(1.00004 -1.12321e-05 0)
(1.00005 -9.69182e-06 0)
(1.00005 -7.65971e-06 0)
(1.00006 -5.14911e-06 0)
(1.00006 -2.20412e-06 0)
(1.00006 1.09282e-06 0)
(1.00006 4.61677e-06 0)
(1.00005 8.20347e-06 0)
(1.00005 1.16577e-05 0)
(1.00004 1.47681e-05 0)
(1.00003 1.73291e-05 0)
(1.00002 1.91664e-05 0)
(1.00001 2.01598e-05 0)
(1 2.02587e-05 0)
(0.999991 1.94868e-05 0)
(0.999981 1.79362e-05 0)
(0.999972 1.57583e-05 0)
(0.999964 1.3154e-05 0)
(0.999958 1.03488e-05 0)
(0.999954 7.54627e-06 0)
(0.999951 4.88358e-06 0)
(0.999949 2.42337e-06 0)
(0.999948 1.73817e-07 0)
(0.999949 -1.88278e-06 0)