/*--------------------------------*- C++ -*----------------------------------*\
| =========                 |                                                 |
| \\      /  F ield         | OpenFOAM: The Open Source CFD Toolbox           |
|  \\    /   O peration     | Version:  v2006                                 |
|   \\  /    A nd           | Website:  www.openfoam.com                      |
|    \\/     M anipulation  |                                                 |
\*---------------------------------------------------------------------------*/
FoamFile
{
    version     2.0;
    format      ascii;
    class       volScalarField;
    location    "3";
    object      r;
}
// * * * * * * * * * * * * * * * * * * * * * * * * * * * * * * * * * * * * * //

dimensions      [1 2 0 0 0 0 0];


internalField   nonuniform List<scalar> 
350
(
-1.52963e-145
1.17815e-143
-5.69448e-142
2.75192e-140
-1.32424e-138
6.34259e-137
-3.02423e-135
1.43517e-133
-6.77854e-132
3.18606e-130
-1.49014e-128
6.93447e-127
-3.21046e-125
1.4786e-123
-6.77355e-122
3.08618e-120
-1.39834e-118
6.30009e-117
-2.82209e-115
1.2567e-113
-5.56262e-112
2.44712e-110
-1.0698e-108
4.64685e-107
-2.00524e-105
8.59525e-104
-3.65906e-102
1.54679e-100
-6.49192e-99
2.7047e-97
-1.11839e-95
4.58899e-94
-1.86813e-92
7.54355e-91
-3.02089e-89
1.19948e-87
-4.72115e-86
1.84163e-84
-7.11788e-83
2.7251e-81
-1.0332e-79
3.87821e-78
-1.44079e-76
5.29621e-75
-1.92567e-73
6.92323e-72
-2.46033e-70
8.63931e-69
-2.99638e-67
1.02606e-65
-3.46753e-64
1.15597e-62
-3.79963e-61
1.23081e-59
-3.92703e-58
1.23343e-56
-3.81142e-55
1.15798e-53
-3.45673e-52
1.01313e-50
-2.91319e-49
8.21134e-48
-2.26682e-46
6.12299e-45
-1.61661e-43
4.16737e-42
-1.04763e-40
2.56491e-39
-6.10704e-38
1.4119e-36
-3.164e-35
6.85961e-34
-1.43571e-32
2.89407e-31
-5.60347e-30
1.03894e-28
-1.83823e-27
3.09125e-26
-4.91749e-25
7.35857e-24
-1.02881e-22
1.33269e-21
-1.58241e-20
1.69808e-19
-1.61455e-18
1.32014e-17
-8.81933e-17
4.31246e-16
-1.0233e-15
-4.31223e-15
4.65089e-14
-5.24115e-14
-1.18182e-12
3.02157e-12
3.57743e-11
-4.74177e-11
-1.28689e-09
-3.61309e-09
2.62213e-08
3.35196e-07
2.08424e-06
9.49588e-06
3.53819e-05
0.000113479
0.0003228
0.000830725
0.00196186
0.00429778
0.00880792
0.0170037
0.031098
0.0541426
0.0901083
0.143873
0.221087
0.327903
0.470579
0.654972
0.885992
1.16706
1.49963
1.88293
2.31375
2.78656
3.2938
3.82626
4.37372
4.9255
5.47114
6.00092
6.50633
6.98041
7.41792
7.8154
8.17109
8.48478
8.75755
8.99154
9.18962
9.35519
9.49189
9.6034
9.69332
9.76502
9.82157
9.8657
9.89979
9.92586
9.94559
9.96037
9.9713
9.97919
9.98461
9.98776
9.9885
9.98619
9.97954
9.96653
9.94424
9.9088
9.85539
9.77842
9.67177
9.52921
9.34489
9.11392
8.83288
8.50033
8.11704
7.68624
7.21343
6.7062
6.17373
5.62628
5.0745
4.52886
3.99908
3.49367
3.01959
2.58208
2.1846
1.82891
1.51522
1.24245
1.00846
0.810378
0.644808
0.508113
0.396599
0.306677
0.234977
0.178426
0.134295
0.100209
0.0741429
0.0544035
0.0395959
0.0285899
0.0204826
0.0145625
0.0102762
0.00719856
0.00500651
0.00345753
0.00237137
0.00161546
0.00109324
0.000735046
0.000491076
0.00032604
0.000215147
0.000141122
9.20228e-05
5.96609e-05
3.84611e-05
2.4657e-05
1.57213e-05
9.97038e-06
6.28997e-06
3.94772e-06
2.46512e-06
1.53169e-06
9.47058e-07
5.82764e-07
3.56914e-07
2.17572e-07
1.32034e-07
7.97587e-08
4.79755e-08
2.87261e-08
1.71325e-08
1.01706e-08
6.01635e-09
3.54184e-09
2.07864e-09
1.21386e-09
7.06886e-10
4.09659e-10
2.36693e-10
1.36235e-10
7.80496e-11
4.46779e-11
2.53482e-11
1.44597e-11
8.10958e-12
4.62019e-12
2.55784e-12
1.45649e-12
7.9723e-13
4.51776e-13
2.46766e-13
1.37093e-13
7.64411e-14
4.03566e-14
2.38689e-14
1.14442e-14
7.49655e-15
3.15152e-15
2.31202e-15
8.88852e-16
6.60114e-16
2.88186e-16
1.53548e-16
1.15118e-16
1.77542e-17
5.10645e-17
-7.10863e-18
2.1556e-17
-5.97301e-18
7.98995e-18
-2.61375e-18
2.69067e-18
-1.05643e-18
1.04921e-18
-6.05599e-19
5.83515e-19
-4.13175e-19
3.33144e-19
-2.05228e-19
1.06728e-19
-1.03469e-20
-5.91378e-20
1.08805e-19
-1.34888e-19
1.43354e-19
-1.37601e-19
1.23067e-19
-1.03664e-19
8.28825e-20
-6.29635e-20
4.53584e-20
-3.07192e-20
1.91966e-20
-1.05825e-20
4.48832e-21
-4.46339e-22
-2.00889e-21
3.29936e-21
-3.78088e-21
3.73778e-21
-3.38604e-21
2.88176e-21
-2.33149e-21
1.80284e-21
-1.33413e-21
9.4279e-22
-6.32205e-22
3.97046e-22
-2.27263e-22
1.10915e-22
-3.60377e-23
-8.23034e-24
3.10752e-23
-3.98239e-23
4.00131e-23
-3.56016e-23
2.92506e-23
-2.26153e-23
1.6615e-23
-1.16641e-23
7.85486e-24
-5.09599e-24
3.20867e-24
-1.98974e-24
1.24873e-24
-8.26258e-25
6.00014e-25
-4.83255e-25
4.19344e-25
-3.74878e-25
3.32916e-25
-2.8715e-25
2.37366e-25
-1.86192e-25
1.37011e-25
-9.27692e-26
5.54416e-26
-2.59309e-26
4.20632e-27
1.04449e-26
-1.91461e-26
2.3191e-26
-2.38605e-26
2.23007e-26
-1.94571e-26
1.60528e-26
-1.25977e-26
9.41713e-27
-6.68517e-27
4.62908e-27
)
;

boundaryField
{
    right
    {
        type            zeroGradient;
    }
    left
    {
        type            inletOutlet;
        inletValue      uniform 0;
        value           uniform 0;
    }
    top
    {
        type            zeroGradient;
    }
    bottom
    {
        type            zeroGradient;
    }
    empty
    {
        type            empty;
    }
}


// ************************************************************************* //
