/*--------------------------------*- C++ -*----------------------------------*\
| =========                 |                                                 |
| \\      /  F ield         | OpenFOAM: The Open Source CFD Toolbox           |
|  \\    /   O peration     | Version:  v2006                                 |
|   \\  /    A nd           | Website:  www.openfoam.com                      |
|    \\/     M anipulation  |                                                 |
\*---------------------------------------------------------------------------*/
FoamFile
{
    version     2.0;
    format      ascii;
    class       volScalarField;
    location    "7";
    object      r;
}
// * * * * * * * * * * * * * * * * * * * * * * * * * * * * * * * * * * * * * //

dimensions      [1 2 0 0 0 0 0];


internalField   nonuniform List<scalar> 
350
(
-1.03702e-137
6.18593e-136
-1.91875e-134
5.99404e-133
-1.8588e-131
5.72383e-130
-1.74996e-128
5.31135e-127
-1.60016e-125
4.78465e-124
-1.41974e-122
4.18003e-121
-1.22097e-119
3.53773e-118
-1.01665e-116
2.89726e-115
-8.18656e-114
2.29322e-112
-6.36719e-111
1.75201e-109
-4.77677e-108
1.29022e-106
-3.45181e-105
9.1453e-104
-2.39901e-102
6.22956e-101
-1.60098e-99
4.07115e-98
-1.02413e-96
2.548e-95
-6.26814e-94
1.52428e-92
-3.66322e-91
8.69787e-90
-2.03981e-88
4.72353e-87
-1.07971e-85
2.43538e-84
-5.41881e-83
1.18895e-81
-2.57147e-80
5.48017e-79
-1.15033e-77
2.37728e-76
-4.83476e-75
9.67165e-74
-1.90214e-72
3.67595e-71
-6.9766e-70
1.2996e-68
-2.37463e-67
4.25318e-66
-7.46205e-65
1.28145e-63
-2.15226e-62
3.5323e-61
-5.65965e-60
8.84406e-59
-1.34638e-57
1.99446e-56
-2.87117e-55
4.01093e-54
-5.42878e-53
7.10666e-52
-8.98013e-51
1.09292e-49
-1.27785e-48
1.43116e-47
-1.53012e-46
1.55534e-45
-1.49567e-44
1.35234e-43
-1.14058e-42
8.87812e-42
-6.28131e-41
3.9444e-40
-2.10687e-39
8.68966e-39
-1.88049e-38
-7.97374e-38
1.12466e-36
-5.99689e-36
1.00663e-35
9.9168e-35
-8.35086e-34
1.60269e-33
1.54196e-32
-1.06502e-31
-5.51417e-32
3.13963e-30
-5.84396e-30
-7.92751e-29
2.63196e-28
2.16101e-27
-7.77063e-27
-6.95261e-26
1.49574e-25
2.40918e-24
1.35572e-24
-7.11659e-23
-3.09507e-22
9.09981e-22
1.44633e-20
5.1949e-20
-1.4403e-19
-2.66374e-18
-1.50216e-17
-3.31526e-17
2.04103e-16
2.9059e-15
2.10582e-14
1.1729e-13
5.54841e-13
2.3281e-12
8.87663e-12
3.12328e-11
1.02511e-10
3.16371e-10
9.23817e-10
2.56508e-09
6.80021e-09
1.72721e-08
4.2155e-08
9.91157e-08
2.25007e-07
4.94165e-07
1.05181e-06
2.17313e-06
4.36456e-06
8.53248e-06
1.62559e-05
3.02153e-05
5.48492e-05
9.7331e-05
0.000168987
0.000287297
0.000478657
0.000782067
0.00125397
0.0019744
0.00305455
0.00464599
0.00695127
0.010236
0.0148421
0.0212013
0.0298491
0.0414372
0.0567441
0.0766827
0.102303
0.13479
0.175454
0.225712
0.287067
0.361069
0.449279
0.553219
0.674322
0.813874
0.972959
1.1524
1.35273
1.57412
1.81636
2.07884
2.36057
2.66014
2.97576
3.30531
3.64639
3.99634
4.35236
4.71153
5.07091
5.42762
5.77889
6.1221
6.45487
6.77512
7.08101
7.37107
7.64412
7.89933
8.13617
8.35438
8.55397
8.73516
8.89836
9.04408
9.17292
9.28552
9.3825
9.46442
9.53173
9.58475
9.62364
9.64839
9.65879
9.65444
9.63476
9.59901
9.54635
9.47582
9.38645
9.27731
9.14751
8.99635
8.82331
8.62814
8.41087
8.17192
7.91203
7.63236
7.33441
7.02005
6.69148
6.35117
6.0018
5.64624
5.28742
4.92829
4.57178
4.22066
3.87756
3.54485
3.22465
2.91876
2.62867
2.35552
2.10014
1.86301
1.64434
1.44404
1.26177
1.09699
0.948965
0.816838
0.69963
0.596291
0.50573
0.426836
0.358509
0.299675
0.249302
0.206416
0.170105
0.139529
0.11392
0.0925858
0.0749052
0.0603281
0.0483711
0.0386124
0.0306875
0.0242832
0.0191328
0.0150105
0.0117267
0.009123
0.00706798
0.0054534
0.00419056
0.00320719
0.0024448
0.00185628
0.00140392
0.00105769
0.000793786
0.000593469
0.000442034
0.000328015
0.000242508
0.000178636
0.000131111
9.58851e-05
6.98745e-05
5.07407e-05
3.67182e-05
2.64792e-05
1.90302e-05
1.36305e-05
9.73017e-06
6.92287e-06
4.90932e-06
3.47008e-06
2.44486e-06
1.71703e-06
1.20206e-06
8.38893e-07
5.83627e-07
4.04785e-07
2.79889e-07
1.92944e-07
1.32609e-07
9.08701e-08
6.20853e-08
4.22951e-08
2.87295e-08
1.94593e-08
1.31426e-08
8.85152e-09
5.94488e-09
3.98145e-09
2.65948e-09
1.7713e-09
1.17679e-09
7.79655e-10
5.15067e-10
3.39631e-10
2.23036e-10
1.46398e-10
9.56503e-11
6.23624e-11
4.07062e-11
2.62221e-11
1.71792e-11
1.09434e-11
7.10534e-12
4.62088e-12
2.81607e-12
1.99507e-12
1.08873e-12
8.14978e-13
4.91027e-13
2.38083e-13
2.98549e-13
1.04951e-14
1.62397e-13
1.12891e-14
1.02788e-14
8.69752e-14
-8.27478e-14
1.00248e-13
-6.09383e-14
2.44162e-14
2.70649e-14
-6.08403e-14
7.93913e-14
-7.218e-14
4.72692e-14
-1.05507e-14
-2.53236e-14
5.14739e-14
-6.10508e-14
5.33398e-14
-3.19234e-14
4.13166e-15
2.18383e-14
-4.21636e-14
)
;

boundaryField
{
    right
    {
        type            zeroGradient;
    }
    left
    {
        type            inletOutlet;
        inletValue      uniform 0;
        value           uniform 0;
    }
    top
    {
        type            zeroGradient;
    }
    bottom
    {
        type            zeroGradient;
    }
    empty
    {
        type            empty;
    }
}


// ************************************************************************* //
