/*--------------------------------*- C++ -*----------------------------------*\
| =========                 |                                                 |
| \\      /  F ield         | OpenFOAM: The Open Source CFD Toolbox           |
|  \\    /   O peration     | Version:  v2006                                 |
|   \\  /    A nd           | Website:  www.openfoam.com                      |
|    \\/     M anipulation  |                                                 |
\*---------------------------------------------------------------------------*/
FoamFile
{
    version     2.0;
    format      ascii;
    class       volScalarField;
    location    "0";
    object      shifted_f;
}
// * * * * * * * * * * * * * * * * * * * * * * * * * * * * * * * * * * * * * //

dimensions      [0 0 0 0 0 0 0];


internalField   nonuniform List<scalar> 
2500
(
-5.28746e-16
7.01025e-23
-5.28746e-16
7.93119e-16
1.4017e-22
6.98498e-23
0
-2.85549e-22
-5.25901e-16
-2.98809e-22
0
-3.36611e-37
0
-2.56396e-15
-4.04327e-15
0
5.21044e-23
-3.01538e-15
1.23683e-23
1.69636e-38
6.5862e-14
0
-1.04912e-23
5.27427e-25
4.81691e-24
3.59865e-24
-6.30135e-13
-6.3195e-25
-6.57226e-25
-3.70361e-26
0
2.26123e-14
6.63475e-25
5.00015e-25
3.27605e-25
1.93305e-25
1.04823e-25
5.29067e-26
0
0
4.74905e-27
1.91267e-27
0
2.69077e-28
9.4634e-29
3.21572e-29
-7.18404e-20
3.55291e-30
1.21438e-30
4.3945e-31
0
-4.23435e-37
7.7098e-23
-8.27492e-16
-5.00838e-15
3.30189e-15
0
3.38294e-15
0
-6.91171e-22
-6.3763e-15
0
0
3.95212e-36
0
2.16551e-36
-7.27596e-16
0
5.59083e-14
1.22827e-14
0
-3.27254e-13
-1.2558e-13
-3.23387e-24
1.47207e-12
1.1973e-12
-1.1791e-12
-9.22798e-13
0
-9.54612e-13
-2.64378e-13
7.89099e-14
3.93374e-13
3.29357e-13
-4.7976e-45
6.60654e-14
1.43782e-14
-5.88308e-15
0
0
3.29811e-49
0
2.91439e-17
5.05509e-18
0
3.17317e-19
8.69216e-54
1.381e-54
4.7686e-20
3.36211e-20
6.47223e-22
6.47223e-22
6.98365e-15
-1.74591e-15
-1.06494e-14
0
0
-1.33096e-21
7.38339e-15
-1.56933e-21
-1.28173e-14
2.01185e-22
-1.78942e-22
-2.28919e-14
1.92686e-35
2.91801e-14
-2.84507e-21
1.04261e-13
2.31343e-22
0
1.22281e-36
0
-1.71669e-11
-5.2816e-11
0
0
5.25743e-11
0
-5.63321e-12
-8.17675e-24
0
0
0
0
-3.03116e-44
0
0
0
0
0
3.92966e-26
-6.23042e-48
-4.09825e-26
-1.22227e-50
0
0
0
0
-7.72632e-29
0
1.29174e-21
1.29174e-21
3.22936e-22
8.23758e-15
5.61479e-15
0
1.26998e-21
-2.6878e-21
0
0
-1.95451e-14
7.93653e-23
-7.68188e-14
-3.83229e-14
-4.6193e-22
8.53963e-22
-6.99971e-21
1.68377e-21
7.17966e-22
-5.87927e-22
0
0
2.16034e-21
1.73927e-22
4.29663e-22
0
8.73834e-11
-7.37967e-23
0
-3.16055e-23
3.16045e-24
0
1.81289e-23
1.34591e-23
0
4.62516e-24
-4.77334e-13
0
4.14146e-14
1.85407e-25
0
2.3622e-26
0
0
4.78267e-18
0
6.21935e-29
3.43568e-29
0
1.287e-29
0
6.10484e-22
1.83145e-21
-3.07632e-15
6.30381e-15
1.22301e-14
0
0
0
0
-2.17577e-14
-7.40078e-22
-9.28723e-14
-4.47842e-14
0
0
-1.65263e-20
-1.16437e-12
0
0
0
0
-1.24704e-10
0
0
0
1.75711e-10
0
0
0
0
-2.65491e-10
0
0
-3.64163e-23
0
4.63998e-24
1.29132e-13
-2.17869e-13
0
0
-2.40466e-46
-4.98101e-26
0
0
0
0
0
0
0
0
-2.80013e-33
3.26306e-21
-2.75656e-11
4.41017e-21
0
0
-3.68196e-11
-3.70307e-11
0
0
0
0
0
0
0
0
0
0
1.07951e-10
-4.66277e-34
0
1.62087e-20
0
0
0
-1.8883e-10
0
0
-1.23348e-09
0
2.44333e-10
0
0
0
0
0
0
0
0
0
4.41426e-16
0
0
-8.91008e-19
0
0
0
0
0
0
-5.86232e-33
1.17401e-32
-4.49857e-10
-2.99935e-10
0
0
0
-6.00297e-10
0
0
0
0
0
0
0
0
-5.54105e-20
0
0
0
0
0
1.5128e-08
0
0
-1.39839e-08
0
0
0
0
0
0
0
0
0
0
0
0
0
0
0
5.73774e-25
0
0
0
0
0
0
0
-2.24772e-20
-1.06222e-31
-2.24772e-20
-1.63671e-09
-2.39271e-20
-2.18262e-09
0
0
-2.18057e-09
0
0
0
0
0
0
0
0
0
0
0
-1.26277e-32
0
0
4.99813e-08
0
0
0
0
0
0
0
0
0
0
0
0
0
0
0
0
0
0
0
0
0
0
0
0
0
0
0
9.23726e-09
3.98544e-21
-3.46397e-09
9.2375e-09
0
9.24102e-09
0
-4.61088e-09
-4.17869e-19
9.28822e-09
0
0
0
0
0
0
1.96438e-08
0
0
7.89746e-09
0
0
2.08479e-07
0
0
-1.19665e-07
0
-1.12311e-08
0
0
0
0
0
0
0
0
-1.96729e-12
0
0
0
0
0
0
0
0
5.59916e-17
0
0
-5.82854e-17
2.42871e-08
-3.40788e-30
2.42871e-08
-4.55382e-09
-3.03587e-09
6.07414e-09
0
-6.07193e-09
-6.05668e-09
0
0
0
0
2.32761e-08
-1.3627e-29
2.70087e-08
0
2.51384e-08
0
0
4.81232e-08
0
1.25457e-07
0
0
0
-1.62752e-07
0
0
0
0
7.90096e-08
0
0
4.34433e-10
0
0
0
-1.52239e-12
0
0
-8.04844e-15
1.23889e-23
0
0
8.82828e-16
0
0
0
0
0
-4.55926e-20
-4.55926e-20
-2.06038e-09
-3.29839e-08
0
0
0
8.36889e-09
-3.30312e-08
-1.56431e-08
0
0
0
0
-2.08456e-16
0
-6.40031e-08
0
0
-1.13977e-30
0
0
-1.94363e-06
0
0
0
0
0
-1.36765e-19
0
0
-5.43263e-21
0
0
5.1479e-22
0
0
0
0
0
0
6.30312e-24
0
0
0
0
0
0
0
0
-3.00156e-29
-3.80725e-17
2.31357e-07
4.62759e-07
0
0
0
3.09611e-07
0
0
0
0
0
0
0
0
-2.85394e-29
0
0
-4.174e-30
0
-4.26992e-16
0
0
0
1.69966e-05
0
0
0
0
-3.99804e-35
0
0
0
0
0
0
0
0
0
0
0
0
0
0
0
0
0
0
0
-1.41952e-28
3.41578e-28
9.24794e-07
-4.93249e-06
0
0
5.48703e-17
1.23649e-06
0
0
0
0
0
0
0
0
-6.17299e-06
0
0
-5.44885e-07
0
0
-2.03036e-05
0
1.17936e-05
4.90152e-05
0
0
0
0
0
0
0
0
-0.000380925
0
0
0
-3.14063e-05
0
0
-1.04969e-12
0
0
0
0
1.03533e-14
3.88817e-14
1.42127e-14
5.09728e-15
-6.31016e-28
3.1858e-16
2.2032e-06
1.46885e-06
0
0
2.94192e-06
2.94475e-06
6.24485e-15
0
0
0
0
0
0
0
-2.90075e-05
-3.22096e-13
0
-3.22497e-06
0
0
-4.30561e-05
0
0
0.000103438
0
0
0
0
0
0
0
3.70727e-20
0
0
0
0
-7.88679e-05
0
0
0
0
0
0
0
0
0
0
8.79659e-15
-2.62903e-27
5.49787e-16
3.92218e-06
-2.61486e-06
2.32697e-15
0
1.63515e-14
0
0
-1.29725e-26
-8.59007e-14
-2.14772e-05
-1.04148e-05
0
0
-1.8098e-12
0
-1.95901e-12
1.21202e-27
-7.08653e-06
-2.37023e-05
4.16598e-13
-0.000145187
3.11095e-15
0
0
0
2.13317e-16
0
0
0
0
8.32351e-20
0
0
4.2374e-20
0
0
0
0
0
-1.61206e-11
-1.36007e-11
0
0
-1.85814e-23
0
0
0
0
-1.03457e-26
6.42849e-16
5.56286e-06
3.70867e-06
7.41366e-06
0
7.42893e-06
7.4339e-06
3.6595e-14
0
0
0
0
0
0
0
0
0
0
-2.13876e-05
0
0
-0.000101615
0
0
0.000249749
0
0
0
0
0
0
0
0
0
0
0
0
-0.000236769
0
0
0
0
0
0
0
0
0
0
0
-4.03445e-26
5.63127e-16
6.40058e-06
-4.26717e-06
8.52988e-06
0
0
8.55419e-06
0
0
0
0
0
0
0
0
0
0
0
-1.17955e-05
0
0
-0.000119752
0
0
0.000304493
0
0
0
0
0
0
0
0
0
0
0
0
-0.000314374
0
0
0
0
0
0
0
0
0
0
2.89323e-24
0
-3.23416e-13
5.96369e-06
-3.97594e-06
0
0
-7.48646e-12
0
-1.10459e-11
0
0
0
-1.57509e-05
0
0
3.25688e-10
1.67377e-24
0
0
-8.26333e-06
-4.32418e-05
-1.01581e-10
-0.000240549
-7.1428e-28
0
-1.65604e-28
-6.01627e-29
0
0
0
-0.00601656
-0.00776035
0
0
0
1.66409e-19
-0.0024009
0
0
0
0
-3.99327e-21
1.18987e-08
5.53186e-09
0
0
0
0
0
0
-1.12736e-24
2.47716e-06
3.71581e-06
-2.47733e-06
0
0
0
4.97457e-06
0
0
0
-2.07187e-05
-9.83233e-06
0
0
4.91458e-09
0
-1.86036e-05
0
9.89077e-07
0
-4.15646e-10
0
0
0
0.000290787
0
0
0
0
0
0
0
0
0
0
0
0
0
0
0
-8.50239e-21
0
1.30068e-08
0
0
-5.64237e-41
-1.06162e-11
-1.57347e-12
0
-2.86887e-09
-1.79304e-10
6.33642e-07
4.22387e-07
0
-2.97118e-09
0
8.59478e-07
-8.79217e-10
0
0
-3.96545e-06
0
0
0
-5.4346e-06
1.04258e-08
-4.36374e-06
0
1.15506e-05
0
-3.49998e-05
0
0
0.000129485
0.000209641
0
0
0
6.11805e-16
0
0
0
0
-0.00228203
0
0
0
0
0
-1.86892e-20
0
7.26972e-08
1.97107e-08
0
0
-7.1241e-11
-1.57738e-11
0
-6.68386e-09
-6.68386e-09
-4.17741e-10
5.78695e-07
1.15722e-06
0
0
-3.31089e-09
0
0
1.77872e-21
0
0
4.46746e-06
0
0
9.60753e-06
1.07559e-08
-5.39936e-08
-3.83744e-08
1.7323e-05
1.9052e-05
-7.86585e-10
-4.11457e-05
0
0
0
0
0.000336753
0
0
0
0
0
0
0
1.82636e-17
0
0
-3.08005e-19
0
0
-1.29711e-20
9.68224e-08
0
0
0
0
0
2.11497e-12
0
-6.26217e-22
-5.38443e-10
-2.39083e-06
1.59449e-06
0
0
0
-3.18791e-06
0
0
0
0
0
0
0
0
-4.71326e-07
0
0
1.52286e-05
0
0
1.82864e-07
0
0
2.18923e-05
0
0
0
0
0
0
0
0
-0.000515795
0
0
0
-4.23766e-05
0
0
0
0
0
0
0
0
0
0
0
-4.36248e-21
2.49668e-09
-1.49988e-06
9.96501e-07
0
0
-1.99748e-06
-1.99664e-06
2.7567e-08
0
0
0
0
0
0
0
-5.0751e-06
0
0
4.03962e-05
0
0
2.87182e-05
0
0
-2.76647e-05
0
0
0
0
0
0
0
0
0
0
0
0
3.02232e-05
0
0
0
0
0
0
0
0
0
0
4.57551e-19
-2.8597e-20
3.68924e-08
-1.36116e-07
-4.11333e-08
0
0
-8.4408e-08
-8.73319e-08
0
0
0
0
0
0
0
0
-5.44264e-06
0
0
0
0
0
0
-1.09556e-24
0
-3.88817e-05
0
-2.65772e-26
0
0
0
0
-6.03641e-29
0.000685188
0
0
0
0
-1.30932e-32
0
0
3.9845e-19
0
-4.21861e-08
0
0
1.76765e-10
5.93646e-11
-5.81992e-40
0
-3.46389e-19
1.26781e-07
3.47685e-07
4.02029e-07
0
0
0
8.00548e-07
0
0
0
0
0
0
0
0
0
0
0
-5.77634e-06
0
0
0.000212623
0
0
-2.61919e-05
0
0
0
0
0
0
0
0
0
0
0
0
3.39931e-05
0
0
0
0
0
0
0
0
0
0
0
-8.96223e-19
2.69378e-07
-3.54844e-07
-1.24926e-07
0
0
0
2.49033e-07
0
0
0
9.69508e-06
0
0
0
-3.56996e-05
-4.07853e-05
4.44423e-05
0.000322164
-1.9878e-06
0
0.000439814
0
0
0.000403194
-7.23838e-06
0
0
0
1.64463e-12
0
0
0
0
0.00017941
0
0
2.35874e-05
0
0
0
0
-6.73549e-09
0
0
0
-4.60013e-37
-2.416e-11
-9.57831e-12
8.27012e-06
2.98552e-05
4.16092e-07
-1.61271e-06
-5.16912e-07
1.03441e-06
8.27163e-06
-1.03145e-06
0
0
8.31332e-06
8.12892e-06
2.12125e-05
8.51848e-06
0
8.1455e-06
-4.56168e-05
7.327e-06
7.75679e-05
0.000491953
4.37723e-06
0
0.000664241
0.00061672
0
0.000632349
3.51193e-06
7.9749e-05
0
-5.31152e-05
2.2942e-12
0
-8.66666e-05
0
0
-0.000197987
-0.00015838
0
-2.95983e-05
-2.45914e-05
0
-2.32406e-07
1.29541e-07
8.69447e-08
0
5.36963e-09
0
-1.37079e-36
-1.23247e-10
-2.35528e-11
0
3.01973e-05
4.85418e-07
-2.35181e-06
1.46643e-05
0
0
0
-1.83236e-06
0
0
0
0
0
0
0
0
-5.17903e-05
0.000100454
0
7.76046e-06
0
0.00168012
0.000783358
0
0
3.55044e-06
0
5.74365e-05
0
0
0
0
0
0
-0.00020323
0
0
0
0
0
0
0
9.99634e-08
0
0
-2.01953e-10
-3.85441e-36
0
0
0
3.78234e-14
-4.13766e-07
2.80651e-05
2.58495e-06
0
0
0
0
2.28817e-06
0
0
0
6.09179e-05
0
0
0
-1.97968e-05
0
0
-5.50555e-20
9.09376e-06
0
0
0
0
0
0
0
0
0
0
0
-0.000199719
0
0
-0.00011156
0
0
0
0
0
0
0
0
0
0
0
0
0
0
-1.71102e-14
1.75095e-07
-1.51907e-06
7.75988e-07
0
0
-1.5506e-06
-1.55317e-06
0
0
3.86486e-06
0
0
6.23857e-06
0
0
0
0
0
5.74597e-06
0
0
0.000764364
0
0
-5.74044e-06
0
0
0
0
0
0
0
0
0
0
0
0
-3.53223e-07
0
0
0
0
0
0
0
0
0
0
0
0
-8.16873e-08
-9.3412e-07
-7.30185e-07
0
0
-1.45827e-06
-1.461e-06
0
0
0
0
0
0
0
0
0
0
0
0.000631869
0
0
0
0
0.000596635
-5.77635e-06
0
0
0
0
0
0
0
0
0
0
0
0
3.34531e-08
0
0
3.1599e-08
0
0
0
0
6.37872e-12
4.78619e-12
1.48368e-12
0
6.3039e-06
-1.91554e-07
-7.82999e-07
7.76893e-07
0
0
-1.55187e-06
-1.55416e-06
-1.09072e-06
0
0
0
0
0
0
0
-7.28804e-05
0
0
5.99982e-06
0
0
0.000307367
0
0
-3.62597e-06
0
0
0
0
0
0
0
0
0
0
0
0
0
0
0
0
0
0
0
0
0
0
0
0
1.27191e-05
1.18907e-07
1.29657e-05
7.95087e-07
0
0
-1.58842e-06
-1.59036e-06
-4.94314e-07
0
0
0
0
0
0
0
-2.03531e-05
1.34024e-05
0
0
0
0
0.000107902
0
0
-2.11344e-06
-4.45238e-07
0
0
0
-8.72769e-06
0
0
-6.41257e-05
0
-4.12924e-05
0
0
-3.1776e-06
0
4.47104e-08
2.15392e-08
0
0
0
-4.29862e-12
-2.95214e-12
-1.45922e-12
-4.47261e-13
0
1.25443e-05
1.51459e-08
-1.17042e-06
-7.28451e-07
1.58754e-06
0
1.20567e-05
0
0
1.48717e-05
0
0
0
0
0
0
-2.65819e-06
0
0
5.93638e-06
0
0
-5.17903e-05
0
-4.30293e-05
-2.38649e-06
-1.08852e-05
1.42441e-05
0
0
0
0
0
-8.4371e-05
-7.2719e-05
-5.12934e-05
0
0
-3.22346e-06
0
0
3.92919e-08
0
0
0
-2.32862e-12
-1.87648e-12
-8.34038e-13
-2.0191e-13
0
-5.18731e-09
-1.01176e-07
-3.09289e-07
-4.15557e-07
0
5.69955e-06
-1.44235e-06
-1.44449e-06
0
0
0
0
0
5.85753e-06
0
0
0
0
0
5.55077e-06
0
-6.10437e-05
-5.2212e-05
0
-7.13992e-05
0
0
0
0
0
0
0
0
0
-6.72728e-05
-4.68612e-05
0
0
0
0
-1.65948e-29
0
0
0
0
0
0
-1.96085e-13
0
0
5.97591e-08
1.1823e-05
-6.86643e-07
7.38048e-07
-1.52762e-06
0
0
0
0
0
0
-0.000253861
0
0
0
0
0
2.0724e-05
0
5.65249e-06
6.0471e-06
0
-3.06711e-05
-2.54665e-05
0
-3.66386e-06
-6.08267e-06
0
0
0
0
0
0
0
0
-3.98749e-05
0
0
0
0
0
0
0
0
0
0
3.74055e-14
5.83598e-14
2.11109e-14
0
-9.74324e-08
-5.88917e-08
0
1.70841e-06
0.955819
2.96807
4.12512
4.22573
3.26991
1.25766
0.100613
0
0
0
0
-1.51011e-05
1.94352e-05
1.27828e-05
1.26876e-05
5.93112e-06
0
1.56837e-05
8.84717e-06
0
0
-3.32565e-06
2.50718e-06
0
0
0
0
0
0
0
-5.50564e-05
-3.89573e-05
0
0
0
0
0
3.6932e-08
1.72486e-08
0
0
2.15557e-13
-1.87406e-33
2.1274e-14
-1.15925e-14
0
7.33748e-07
-7.56232e-08
0
2.22784
4.91556
5.30895
7.04212
7.67343
7.09857
6.90652
3.26035
0.201225
0
0
0
0
0
0
0
0
0
0
0
0
0
-3.05684e-06
0
0
0
0
0
0
0
0
0
0
0
0
-2.52215e-06
0
0
0
0
0
0
0
0
0
0
1.20189e-05
8.76529e-07
1.42893e-05
0.120955
2.6437
5.14785
2.49531
1.46415
2.30989
0.937981
4.7512
7.68546
3.26083
0.100613
6.10493e-06
0
1.10542e-06
-7.95192e-06
-1.24121e-05
0
0
0
2.03344e-05
3.57188e-05
0
0
-3.12787e-06
1.08418e-06
3.30156e-05
2.57145e-05
1.81502e-05
-7.93115e-06
-4.14351e-05
-6.56912e-05
-0.000140446
-1.71599e-24
-4.29541e-05
-2.41402e-05
-1.015e-05
0
-1.46806e-07
-9.3972e-29
0
1.73748e-08
0
0
-3.71589e-13
-1.53674e-13
-8.18832e-14
-3.16289e-14
9.89874e-06
5.80722e-06
-1.37063
-0.404814
1.17901
-0.790711
-2.07775
-2.68873
0.264405
-2.11624
-4.88899
4.75143
6.90786
1.25788
0
1.36536e-05
1.55037e-05
0
2.70704e-06
1.10019e-06
0
0
2.84237e-05
0
1.37713e-05
0
-3.26065e-06
1.20854e-06
1.61267e-05
2.5754e-05
1.86901e-05
0
-4.0161e-05
-6.4323e-05
-6.89527e-05
0
-4.21801e-05
-2.36666e-05
0
0
-6.3331e-08
0
7.46258e-08
0
0
0
0
-7.59283e-14
-4.87315e-14
-2.31401e-14
3.71676e-05
-0.219658
-3.00858
-1.53345
3.09529
-2.16902
-5.48673
-0.691842
5.22714
5.22219
-2.11065
0.934217
7.09811
3.26991
0
0
-0.000116911
-3.33258e-06
-1.82198e-06
0
6.29112e-10
0
1.72532e-05
5.35847e-06
5.1016e-06
0
-3.25852e-06
7.35184e-07
0
2.54715e-05
1.87248e-05
-6.3556e-06
0
0
-6.76684e-05
-5.88336e-05
-4.14809e-05
0
-9.76632e-06
-2.43627e-06
0
-3.60906e-29
0
0
4.78668e-09
0
0
0
-5.12737e-14
0
0
-0.659015
-2.611
-2.33124
4.36699
2.17596
-7.09204
-0.57237
7.77691
5.23034
0.259386
2.3116
7.67479
4.22584
0
0
0
0
0
0
9.17989e-06
0
0
0
0
0
-3.2076e-06
0
0
0
0
-6.63222e-06
0
0
0
0
0
0
0
0
0
0
0
0
0
0
0
0
0
0
0
-0.878682
-1.23498
-1.82422
2.08835
6.03963
-3.2239
-6.8205
-0.577503
-0.701309
-2.69204
1.46837
7.0443
4.12526
-0.000352428
0
8.29645e-07
5.1871e-07
4.33682e-06
0
5.844e-06
0
1.53444e-05
0
0
0
-3.20221e-06
0
0
0
-9.30917e-09
0
0
0
0
0
0
0
0
-2.47679e-06
0
0
0
1.74467e-08
4.80286e-09
0
0
0
0
0
0
-0.658949
-0.476826
0.857115
-0.628532
1.76675
3.68428
-3.22881
-7.09649
-5.49095
-2.0826
2.49571
5.31063
2.96817
0
0
0
1.63185e-06
0
0
5.83308e-06
0
0
1.60626e-05
0
0
-3.21886e-06
0
1.60744e-05
0
0
0
0
0
0
0
0
0
0
-2.47112e-06
0
0
3.69581e-08
0
0
0
-1.05803e-13
0
0
0
0
-0.219671
-0.8741
1.36524
1.28128
-2.64707
1.76451
6.03772
2.17111
-2.17718
-0.794418
5.15038
4.91819
0.955852
0
0
1.15484e-05
1.20669e-05
-3.99344e-06
1.24276e-05
5.83832e-06
0
0
1.48482e-05
0
-2.00259e-06
-3.22136e-06
6.45474e-07
0
2.5518e-05
1.85641e-05
-6.72059e-06
-3.95897e-05
-6.35653e-05
0
-5.9301e-05
-4.18106e-05
-2.3485e-05
0
-2.46514e-06
-1.3122e-07
4.86133e-08
7.39381e-08
0
4.79722e-09
2.93312e-10
-1.92611e-13
-8.60548e-14
-5.4986e-14
-2.62611e-14
0
0
-0.659369
-0.870499
1.76168
1.28375
-0.638068
2.08195
4.35514
3.08891
1.17503
2.64399
2.22836
3.25629e-05
0
0
0
6.28726e-07
0
0
5.84159e-06
0
0
1.47951e-05
0
0
-3.21679e-06
0
1.60058e-05
0
0
0
0
0
-0.000136478
0
0
0
0
0
0
4.86006e-08
0
0
0
0
-1.9575e-13
0
0
0
0
-3.01708e-08
2.07998e-08
-0.879532
-0.870827
1.36168
0.852249
-1.82964
-2.33793
-1.53799
-0.407438
0.12105
0
0
0
0
2.25482e-05
6.26442e-06
0
0
-6.1587e-11
6.20789e-06
6.659e-06
2.24601e-05
2.16351e-05
0
-3.21625e-06
0
0
0
0
0
0
0
0
0
-4.18375e-05
0
0
0
0
4.85814e-08
3.6955e-08
0
4.79944e-09
2.94124e-10
0
-8.98619e-14
-5.17566e-21
0
0
-1.32575e-08
-7.20147e-08
-9.63459e-07
-0.65892
-0.877065
-0.477402
-1.23856
-2.61372
-3.00969
-1.37096
0
0
0
0
0
0
0
0
0
5.83988e-06
0
0
1.51485e-05
0
0
-3.21693e-06
0
0
0
0
-6.76098e-06
0
0
0
0
0
0
0
0
0
0
0
0
0
0
-1.9519e-20
0
0
0
0
-1.79258e-07
-7.22014e-08
-9.8065e-07
-8.57313e-07
-0.220048
-0.660157
-0.879447
-0.658911
-0.220058
1.61312e-05
0
-1.26483e-05
0
0
0
7.13935e-06
6.23866e-07
4.41632e-06
8.61669e-08
-3.70606e-10
0
6.62028e-06
0
0
6.62019e-06
-3.21693e-06
2.88789e-19
0
0
-1.33695e-08
0
0
0
0
0
0
0
-9.86427e-06
0
0
0
0
1.74604e-08
0
0
4.42956e-33
6.4797e-34
0
1.26469e-35
0
-2.12025e-07
-7.22014e-08
-1.01305e-06
-8.14095e-07
0
0
-1.50585e-06
0
0
0
0
-9.00364e-06
0
0
0
6.96764e-06
6.27656e-06
4.3995e-06
8.70636e-08
0
0
6.62028e-06
2.24306e-05
0
6.62019e-06
-3.21693e-06
0
0
0
-1.33695e-08
0
0
0
0
0
0
0
-9.86427e-06
0
0
0
0
1.74604e-08
0
0
0
6.77424e-34
0
0
)
;

boundaryField
{
    movingWall
    {
        type            zeroGradient;
    }
    fixedWalls
    {
        type            zeroGradient;
    }
    frontAndBack
    {
        type            empty;
    }
}

