/*--------------------------------*- C++ -*----------------------------------*\
| =========                 |                                                 |
| \\      /  F ield         | OpenFOAM: The Open Source CFD Toolbox           |
|  \\    /   O peration     | Version:  v2006                                 |
|   \\  /    A nd           | Website:  www.openfoam.com                      |
|    \\/     M anipulation  |                                                 |
\*---------------------------------------------------------------------------*/
FoamFile
{
    version     2.0;
    format      ascii;
    class       volVectorField;
    location    "6.6";
    object      U;
}
// * * * * * * * * * * * * * * * * * * * * * * * * * * * * * * * * * * * * * //

dimensions      [0 1 -1 0 0 0 0];


internalField   nonuniform List<vector> 
150000
(
(0.00541155 -0.00709968 0)
(0.0188046 -0.00836601 0)
(0.0323779 -0.00841283 0)
(0.0458257 -0.00830169 0)
(0.0591877 -0.00824689 0)
(0.0724682 -0.0082192 0)
(0.0857019 -0.00820164 0)
(0.0988896 -0.00818963 0)
(0.112012 -0.00817418 0)
(0.12505 -0.00815023 0)
(0.13799 -0.0081177 0)
(0.150817 -0.00807786 0)
(0.163518 -0.00803195 0)
(0.176082 -0.00797962 0)
(0.188497 -0.00792066 0)
(0.200753 -0.00785618 0)
(0.212841 -0.00778577 0)
(0.224752 -0.00770945 0)
(0.236477 -0.00762749 0)
(0.248006 -0.00754044 0)
(0.25933 -0.00744895 0)
(0.270442 -0.00735358 0)
(0.281334 -0.00725445 0)
(0.291997 -0.00715211 0)
(0.302424 -0.00704679 0)
(0.312607 -0.00693911 0)
(0.322538 -0.00682793 0)
(0.332204 -0.00671287 0)
(0.341596 -0.00659347 0)
(0.350705 -0.00646811 0)
(0.359525 -0.00633476 0)
(0.368056 -0.00619255 0)
(0.376302 -0.00604227 0)
(0.384282 -0.00588439 0)
(0.392017 -0.0057209 0)
(0.39953 -0.00555332 0)
(0.406832 -0.00538148 0)
(0.413902 -0.00520486 0)
(0.42068 -0.00502224 0)
(0.427052 -0.0048259 0)
(0.432897 -0.00460612 0)
(0.438109 -0.00438159 0)
(0.442607 -0.00418704 0)
(0.44638 -0.00405347 0)
(0.449512 -0.00396746 0)
(0.452172 -0.00389268 0)
(0.454582 -0.00377523 0)
(0.457001 -0.00361338 0)
(0.459611 -0.00345983 0)
(0.462538 -0.00337039 0)
(0.46585 -0.00334402 0)
(0.469542 -0.00332402 0)
(0.473475 -0.00316863 0)
(0.47732 -0.0025427 0)
(0.480371 -0.00102949 0)
(0.4814 0.00104574 0)
(0.480162 0.00237671 0)
(0.477825 0.00261857 0)
(0.474972 0.00234928 0)
(0.471747 0.00210909 0)
(0.468169 0.00200818 0)
(0.464271 0.00198759 0)
(0.460111 0.00199882 0)
(0.45574 0.00202747 0)
(0.451195 0.00207096 0)
(0.446499 0.00212515 0)
(0.441669 0.00218511 0)
(0.436717 0.00224833 0)
(0.43165 0.00231528 0)
(0.426465 0.00238714 0)
(0.421159 0.00246434 0)
(0.415724 0.00254682 0)
(0.410155 0.00263393 0)
(0.404446 0.00272497 0)
(0.398591 0.00281997 0)
(0.392579 0.00291848 0)
(0.386401 0.00301989 0)
(0.380049 0.00312378 0)
(0.373518 0.00322899 0)
(0.366798 0.00333493 0)
(0.35988 0.00344098 0)
(0.352754 0.0035471 0)
(0.345414 0.00365425 0)
(0.337853 0.0037646 0)
(0.330067 0.00388239 0)
(0.322046 0.00401262 0)
(0.313765 0.00415782 0)
(0.305197 0.00431466 0)
(0.296323 0.00448208 0)
(0.287137 0.0046588 0)
(0.277665 0.00484453 0)
(0.267961 0.00504032 0)
(0.258082 0.00521868 0)
(0.248048 0.0053491 0)
(0.237804 0.00545153 0)
(0.227214 0.00559427 0)
(0.216076 0.0058511 0)
(0.20417 0.00626072 0)
(0.191347 0.00680679 0)
(0.177636 0.00742002 0)
(0.16325 0.00790457 0)
(0.148575 0.00809785 0)
(0.134093 0.00791551 0)
(0.120247 0.00738793 0)
(0.107423 0.00659258 0)
(0.095856 0.00562947 0)
(0.0856322 0.00460424 0)
(0.0767248 0.00360455 0)
(0.0690292 0.00268966 0)
(0.0623983 0.00189007 0)
(0.0566722 0.00121348 0)
(0.0516948 0.00065423 0)
(0.0473241 0.000201302 0)
(0.0434358 -0.000158479 0)
(0.0399242 -0.0004388 0)
(0.0367041 -0.000652119 0)
(0.0337058 -0.000811794 0)
(0.0308716 -0.000928047 0)
(0.0281571 -0.00100969 0)
(0.0255263 -0.00106429 0)
(0.0229493 -0.00109751 0)
(0.0204001 -0.00111317 0)
(0.0178548 -0.00111306 0)
(0.0152915 -0.0010978 0)
(0.0126883 -0.00106768 0)
(0.0100231 -0.00102239 0)
(0.0072751 -0.000962184 0)
(0.00442415 -0.000887822 0)
(0.0014513 -0.000800477 0)
(-0.00166095 -0.000701484 0)
(-0.00492851 -0.000591997 0)
(-0.00836575 -0.000472746 0)
(-0.0119856 -0.000343972 0)
(-0.0157994 -0.000205605 0)
(-0.0198172 -5.76914e-05 0)
(-0.0240478 9.9062e-05 0)
(-0.0284996 0.000262818 0)
(-0.0331817 0.000430463 0)
(-0.0381044 0.000597992 0)
(-0.0432805 0.000761466 0)
(-0.0487247 0.000918354 0)
(-0.0544531 0.00106886 0)
(-0.0604813 0.00121675 0)
(-0.066823 0.00136931 0)
(-0.0734889 0.00153627 0)
(-0.0804871 0.00172808 0)
(-0.0878248 0.00195386 0)
(-0.095511 0.00221982 0)
(-0.103558 0.00252833 0)
(-0.111985 0.00287772 0)
(-0.120813 0.00326245 0)
(-0.130064 0.00367354 0)
(-0.13976 0.00409912 0)
(-0.149911 0.00452539 0)
(-0.160517 0.00493815 0)
(-0.171565 0.00532476 0)
(-0.183028 0.00567614 0)
(-0.194872 0.00598831 0)
(-0.207057 0.00626299 0)
(-0.219547 0.00650716 0)
(-0.23231 0.00673172 0)
(-0.245327 0.00694954 0)
(-0.258588 0.00717362 0)
(-0.272097 0.00741537 0)
(-0.285867 0.00768347 0)
(-0.299916 0.00798323 0)
(-0.314268 0.0083164 0)
(-0.328947 0.00868123 0)
(-0.343972 0.0090729 0)
(-0.359357 0.00948419 0)
(-0.375106 0.00990651 0)
(-0.391218 0.0103311 0)
(-0.407679 0.0107503 0)
(-0.424475 0.0111587 0)
(-0.441586 0.0115531 0)
(-0.458994 0.0119311 0)
(-0.476682 0.0122864 0)
(-0.494629 0.0126032 0)
(-0.512798 0.0128502 0)
(-0.531116 0.0129796 0)
(-0.549461 0.0129343 0)
(-0.567649 0.0126633 0)
(-0.585453 0.0121436 0)
(-0.602632 0.0113951 0)
(-0.618979 0.0104818 0)
(-0.634362 0.00949481 0)
(-0.648736 0.00852626 0)
(-0.662144 0.00764668 0)
(-0.674683 0.00689472 0)
(-0.68648 0.00627951 0)
(-0.697661 0.00579001 0)
(-0.708343 0.00540526 0)
(-0.71862 0.00510235 0)
(-0.728566 0.00486087 0)
(-0.738238 0.0046644 0)
(-0.747675 0.00450041 0)
(-0.756906 0.00435958 0)
(-0.76595 0.00423523 0)
(-0.774819 0.0041226 0)
(-0.783519 0.0040183 0)
(-0.792055 0.00391979 0)
(-0.800427 0.00382514 0)
(-0.808632 0.00373295 0)
(-0.816668 0.00364228 0)
(-0.824531 0.00355248 0)
(-0.832214 0.00346299 0)
(-0.839712 0.0033734 0)
(-0.847016 0.00328349 0)
(-0.854119 0.00319339 0)
(-0.861014 0.00310335 0)
(-0.867691 0.00301366 0)
(-0.874141 0.00292431 0)
(-0.880356 0.00283484 0)
(-0.886326 0.00274418 0)
(-0.892042 0.00265067 0)
(-0.897493 0.00255241 0)
(-0.902668 0.00244776 0)
(-0.907557 0.00233624 0)
(-0.912149 0.00221941 0)
(-0.916436 0.00210115 0)
(-0.920412 0.00198761 0)
(-0.924071 0.00188652 0)
(-0.927411 0.00180543 0)
(-0.930428 0.00174958 0)
(-0.933111 0.0017197 0)
(-0.935444 0.00171093 0)
(-0.937402 0.00171403 0)
(-0.93895 0.00171705 0)
(-0.940046 0.00170995 0)
(-0.940653 0.00169907 0)
(-0.940747 0.00169309 0)
(-0.940386 0.00169905 0)
(-0.939611 0.00171005 0)
(-0.938462 0.00172358 0)
(-0.936984 0.00173565 0)
(-0.935216 0.00173537 0)
(-0.933182 0.00170422 0)
(-0.930881 0.00161892 0)
(-0.928283 0.00145714 0)
(-0.925337 0.00120413 0)
(-0.921981 0.000857852 0)
(-0.918156 0.000430779 0)
(-0.91382 -5.25143e-05 0)
(-0.908959 -0.000560952 0)
(-0.903588 -0.0010637 0)
(-0.897744 -0.00153584 0)
(-0.891481 -0.00196144 0)
(-0.884854 -0.00233385 0)
(-0.877915 -0.00265392 0)
(-0.870705 -0.00292718 0)
(-0.863254 -0.00316121 0)
(-0.85558 -0.00336364 0)
(-0.847694 -0.0035411 0)
(-0.839603 -0.00369888 0)
(-0.831309 -0.00384104 0)
(-0.822818 -0.00397064 0)
(-0.814132 -0.00409002 0)
(-0.805258 -0.00420104 0)
(-0.796202 -0.00430514 0)
(-0.78697 -0.00440343 0)
(-0.777569 -0.0044967 0)
(-0.768008 -0.00458551 0)
(-0.758294 -0.0046702 0)
(-0.748436 -0.00475094 0)
(-0.738441 -0.00482779 0)
(-0.728318 -0.00490076 0)
(-0.718075 -0.00496976 0)
(-0.707721 -0.0050347 0)
(-0.697265 -0.00509547 0)
(-0.686714 -0.00515196 0)
(-0.676078 -0.00520403 0)
(-0.665364 -0.0052516 0)
(-0.65458 -0.00529456 0)
(-0.643735 -0.00533284 0)
(-0.632836 -0.0053664 0)
(-0.621891 -0.0053952 0)
(-0.610907 -0.00541922 0)
(-0.599892 -0.00543848 0)
(-0.588852 -0.00545302 0)
(-0.577795 -0.00546286 0)
(-0.566726 -0.00546809 0)
(-0.555652 -0.00546877 0)
(-0.54458 -0.00546498 0)
(-0.533514 -0.00545684 0)
(-0.52246 -0.00544445 0)
(-0.511424 -0.00542793 0)
(-0.500411 -0.00540741 0)
(-0.489425 -0.00538301 0)
(-0.478471 -0.00535488 0)
(-0.467554 -0.00532315 0)
(-0.456677 -0.00528796 0)
(-0.445845 -0.00524946 0)
(-0.435061 -0.00520777 0)
(-0.424329 -0.00516305 0)
(-0.413652 -0.00511541 0)
(-0.403033 -0.00506499 0)
(-0.392476 -0.00501193 0)
(-0.381983 -0.00495634 0)
(-0.371558 -0.00489834 0)
(-0.361201 -0.00483807 0)
(-0.350916 -0.00477562 0)
(-0.340705 -0.00471112 0)
(-0.330571 -0.00464466 0)
(-0.320514 -0.00457636 0)
(-0.310537 -0.0045063 0)
(-0.300641 -0.00443457 0)
(-0.290829 -0.00436122 0)
(-0.281101 -0.00428632 0)
(-0.271459 -0.00420992 0)
(-0.261904 -0.00413204 0)
(-0.252437 -0.00405273 0)
(-0.24306 -0.003972 0)
(-0.233773 -0.0038899 0)
(-0.224578 -0.00380646 0)
(-0.215475 -0.00372177 0)
(-0.206466 -0.00363596 0)
(-0.197551 -0.00354912 0)
(-0.188731 -0.0034613 0)
(-0.180007 -0.00337255 0)
(-0.171379 -0.00328288 0)
(-0.162849 -0.00319227 0)
(-0.154417 -0.00310069 0)
(-0.146085 -0.00300807 0)
(-0.137852 -0.00291432 0)
(-0.12972 -0.00281937 0)
(-0.12169 -0.00272315 0)
(-0.113764 -0.00262569 0)
(-0.105941 -0.0025271 0)
(-0.0982227 -0.00242764 0)
(-0.0906099 -0.00232768 0)
(-0.0831026 -0.00222769 0)
(-0.075701 -0.00212809 0)
(-0.0684048 -0.00202917 0)
(-0.061214 -0.00193088 0)
(-0.0541287 -0.00183271 0)
(-0.0471497 -0.00173372 0)
(-0.0402786 -0.00163263 0)
(-0.0335179 -0.00152819 0)
(-0.0268708 -0.00141969 0)
(-0.0203413 -0.00130609 0)
(-0.0139334 -0.00119027 0)
(-0.00764766 -0.00107476 0)
(-0.00147897 -0.000967412 0)
(0.00457872 -0.00087355 0)
(0.0105392 -0.000807237 0)
(0.0164254 -0.000774251 0)
(0.0222647 -0.000784095 0)
(0.0280835 -0.000838007 0)
(0.0339089 -0.000937595 0)
(0.039761 -0.00107304 0)
(0.0456472 -0.0012318 0)
(0.0515654 -0.0013994 0)
(0.057499 -0.00156366 0)
(0.0634247 -0.00171202 0)
(0.0693233 -0.00183895 0)
(0.0751671 -0.00194547 0)
(0.080936 -0.00202939 0)
(0.0866274 -0.00209455 0)
(0.0922376 -0.00214576 0)
(0.0977666 -0.0021874 0)
(0.103217 -0.00222205 0)
(0.108591 -0.00224984 0)
(0.113888 -0.00226938 0)
(0.119104 -0.00227895 0)
(0.124236 -0.00227733 0)
(0.129279 -0.00226563 0)
(0.13423 -0.00224556 0)
(0.13909 -0.00221952 0)
(0.14386 -0.00219035 0)
(0.148546 -0.0021598 0)
(0.153153 -0.00212894 0)
(0.157686 -0.00209826 0)
(0.162148 -0.00206762 0)
(0.166543 -0.00203691 0)
(0.170873 -0.0020063 0)
(0.175142 -0.00197608 0)
(0.179352 -0.0019465 0)
(0.183505 -0.00191766 0)
(0.187604 -0.00188965 0)
(0.191651 -0.00186255 0)
(0.195648 -0.00183636 0)
(0.199598 -0.00181104 0)
(0.203502 -0.00178658 0)
(0.207362 -0.00176297 0)
(0.211181 -0.00174017 0)
(0.214959 -0.00171816 0)
(0.218699 -0.00169691 0)
(0.222401 -0.00167641 0)
(0.226068 -0.00165661 0)
(0.2297 -0.00163753 0)
(0.233298 -0.00161908 0)
(0.236864 -0.00160109 0)
(0.240398 -0.00158356 0)
(0.243901 -0.00156652 0)
(0.247373 -0.00154988 0)
(0.250814 -0.00153352 0)
(0.254224 -0.00151736 0)
(0.257603 -0.00150122 0)
(0.260951 -0.00148499 0)
(0.264266 -0.0014687 0)
(0.267549 -0.0014523 0)
(0.270798 -0.00143564 0)
(0.274012 -0.00141856 0)
(0.27719 -0.00140105 0)
(0.28033 -0.00138305 0)
(0.28343 -0.00136446 0)
(0.286489 -0.00134518 0)
(0.289504 -0.00132518 0)
(0.292473 -0.00130438 0)
(0.295394 -0.00128268 0)
(0.298264 -0.00126004 0)
(0.301081 -0.00123646 0)
(0.303842 -0.00121185 0)
(0.306543 -0.00118607 0)
(0.309183 -0.00115911 0)
(0.311756 -0.00113095 0)
(0.314261 -0.00110157 0)
(0.316693 -0.00107086 0)
(0.31905 -0.00103873 0)
(0.321326 -0.00100518 0)
(0.323519 -0.000970139 0)
(0.325624 -0.000933561 0)
(0.327638 -0.00089542 0)
(0.329556 -0.000855731 0)
(0.331374 -0.000814506 0)
(0.333088 -0.000771707 0)
(0.334693 -0.00072725 0)
(0.336186 -0.000681076 0)
(0.337561 -0.000633169 0)
(0.338815 -0.000583518 0)
(0.339942 -0.000532087 0)
(0.340939 -0.000478809 0)
(0.3418 -0.000423605 0)
(0.34252 -0.00036619 0)
(0.343095 -0.000305685 0)
(0.343516 -0.000239814 0)
(0.343771 -0.000165993 0)
(0.343864 -6.68537e-05 0)
(0.343733 7.83617e-05 0)
(0.343281 0.000282909 0)
(0.342491 0.000487016 0)
(0.341412 0.00063224 0)
(0.340108 0.000717899 0)
(0.33862 0.000776332 0)
(0.33696 0.000833073 0)
(0.335119 0.000896041 0)
(0.333091 0.000963436 0)
(0.33087 0.00103201 0)
(0.328455 0.0011001 0)
(0.325846 0.00116732 0)
(0.323041 0.00123361 0)
(0.320042 0.00129889 0)
(0.316848 0.00136309 0)
(0.313459 0.00142621 0)
(0.309876 0.00148832 0)
(0.3061 0.00154943 0)
(0.302132 0.00160945 0)
(0.297974 0.0016683 0)
(0.293628 0.00172593 0)
(0.289095 0.00178231 0)
(0.284379 0.00183737 0)
(0.279481 0.00189103 0)
(0.274406 0.00194329 0)
(0.269156 0.00199413 0)
(0.263734 0.0020436 0)
(0.258146 0.00209178 0)
(0.252394 0.00213866 0)
(0.246483 0.00218421 0)
(0.240418 0.00222851 0)
(0.234204 0.002271 0)
(0.227844 0.00231106 0)
(0.221344 0.00234843 0)
(0.214709 0.00238316 0)
(0.207944 0.00241533 0)
(0.201055 0.00244513 0)
(0.194045 0.00247272 0)
(0.186922 0.00249825 0)
(0.17969 0.00252195 0)
(0.172354 0.00254415 0)
(0.164918 0.00256531 0)
(0.157387 0.00258606 0)
(0.149763 0.00260716 0)
(0.14205 0.00262931 0)
(0.13425 0.00265296 0)
(0.126366 0.00267812 0)
(0.118402 0.00270411 0)
(0.110363 0.00272935 0)
(0.102257 0.00275195 0)
(0.0940949 0.00277171 0)
(0.0858856 0.00279037 0)
(0.0776343 0.0028062 0)
(0.0693432 0.00280037 0)
(0.0610325 0.0027233 0)
(0.052787 0.00251924 0)
(0.0446018 0.00222128 0)
(0.0366978 0.00204922 0)
(0.028649 0.0022164 0)
(0.0216262 0.00255749 0)
(0.0142977 0.00308369 0)
(0.00758665 0.00400535 0)
(0.00188555 -0.013246 0)
(0.00863478 -0.014702 0)
(0.0138183 -0.0145975 0)
(0.0193455 -0.0143741 0)
(0.0246698 -0.0143497 0)
(0.0299938 -0.0142866 0)
(0.035293 -0.0142072 0)
(0.0405239 -0.0141147 0)
(0.0456925 -0.0139983 0)
(0.0507931 -0.0138638 0)
(0.0558198 -0.0137102 0)
(0.0607661 -0.0135422 0)
(0.0656324 -0.0133581 0)
(0.0704067 -0.0131642 0)
(0.0750855 -0.0129548 0)
(0.0796681 -0.0127378 0)
(0.084143 -0.0125108 0)
(0.0884973 -0.012276 0)
(0.0927285 -0.0120276 0)
(0.0968216 -0.0117713 0)
(0.100765 -0.0115056 0)
(0.104546 -0.0112302 0)
(0.10815 -0.0109449 0)
(0.111572 -0.0106496 0)
(0.114792 -0.0103457 0)
(0.117796 -0.0100262 0)
(0.120577 -0.00969431 0)
(0.123125 -0.00934531 0)
(0.125432 -0.00898413 0)
(0.127509 -0.00861467 0)
(0.129387 -0.00824912 0)
(0.131108 -0.00790543 0)
(0.132733 -0.00760296 0)
(0.134315 -0.00735558 0)
(0.135867 -0.00715585 0)
(0.137341 -0.00698428 0)
(0.138634 -0.00679861 0)
(0.139594 -0.00652418 0)
(0.140032 -0.00607974 0)
(0.139751 -0.0054133 0)
(0.138598 -0.00455501 0)
(0.136557 -0.00357048 0)
(0.133792 -0.00251725 0)
(0.13062 -0.00149318 0)
(0.127349 -0.00066402 0)
(0.124296 -0.000182924 0)
(0.121636 -0.000199715 0)
(0.119972 -0.000673867 0)
(0.119206 -0.00132716 0)
(0.119169 -0.00204405 0)
(0.119768 -0.00275515 0)
(0.120913 -0.00334588 0)
(0.122526 -0.00363453 0)
(0.124663 -0.00338071 0)
(0.127414 -0.00245842 0)
(0.130786 -0.00111983 0)
(0.133977 0.000117103 0)
(0.136268 0.0012788 0)
(0.13761 0.00232049 0)
(0.138002 0.00319057 0)
(0.137562 0.00388468 0)
(0.136449 0.00442397 0)
(0.134796 0.00484001 0)
(0.132724 0.00516315 0)
(0.130329 0.00541618 0)
(0.127695 0.0056167 0)
(0.124892 0.00577923 0)
(0.121968 0.0059158 0)
(0.11897 0.00603836 0)
(0.115932 0.00615772 0)
(0.112858 0.00627864 0)
(0.109754 0.00640372 0)
(0.106616 0.00653435 0)
(0.103435 0.00667203 0)
(0.100208 0.00681959 0)
(0.0969367 0.00698073 0)
(0.0935966 0.00715339 0)
(0.0901774 0.00733684 0)
(0.0866708 0.00753405 0)
(0.0830625 0.00774558 0)
(0.0793385 0.0079751 0)
(0.0754842 0.00822052 0)
(0.0714876 0.00847692 0)
(0.0673472 0.00873917 0)
(0.063077 0.00899853 0)
(0.058704 0.0092759 0)
(0.0542321 0.00957934 0)
(0.0496361 0.00991983 0)
(0.0448625 0.0102807 0)
(0.0398303 0.0106446 0)
(0.0344948 0.0109554 0)
(0.0288758 0.011185 0)
(0.0230721 0.0113411 0)
(0.0172538 0.0115001 0)
(0.0115806 0.0117703 0)
(0.00606007 0.0122607 0)
(0.000529229 0.0130279 0)
(-0.00526581 0.0140167 0)
(-0.0116114 0.0150674 0)
(-0.0187513 0.0159691 0)
(-0.0267963 0.0165389 0)
(-0.0356087 0.0166509 0)
(-0.0450358 0.0162646 0)
(-0.0548775 0.0154697 0)
(-0.0649873 0.0143903 0)
(-0.0752595 0.013171 0)
(-0.0856283 0.0119374 0)
(-0.0960538 0.0107761 0)
(-0.106509 0.00973615 0)
(-0.116974 0.00883947 0)
(-0.127431 0.00808964 0)
(-0.137871 0.00747817 0)
(-0.148283 0.00698962 0)
(-0.15866 0.00660535 0)
(-0.168997 0.00630697 0)
(-0.179288 0.00607809 0)
(-0.189531 0.00590315 0)
(-0.199724 0.0057715 0)
(-0.209869 0.00567539 0)
(-0.219967 0.00560936 0)
(-0.230021 0.00557006 0)
(-0.240034 0.0055554 0)
(-0.250008 0.00556435 0)
(-0.259942 0.005596 0)
(-0.269838 0.00564919 0)
(-0.279694 0.00572328 0)
(-0.28951 0.00581725 0)
(-0.299287 0.00593004 0)
(-0.309025 0.00606055 0)
(-0.318726 0.00620756 0)
(-0.328391 0.00636962 0)
(-0.338019 0.00654479 0)
(-0.34761 0.00673058 0)
(-0.357161 0.00692422 0)
(-0.36667 0.00712346 0)
(-0.376138 0.00732779 0)
(-0.385574 0.0075396 0)
(-0.394991 0.0077646 0)
(-0.40441 0.00801099 0)
(-0.413858 0.0082871 0)
(-0.423356 0.00859831 0)
(-0.432916 0.00894415 0)
(-0.44253 0.00931693 0)
(-0.45217 0.00970285 0)
(-0.461783 0.0100853 0)
(-0.471304 0.0104497 0)
(-0.480667 0.0107873 0)
(-0.48981 0.0110979 0)
(-0.498693 0.0113889 0)
(-0.507298 0.0116727 0)
(-0.515633 0.0119621 0)
(-0.523726 0.0122662 0)
(-0.531617 0.0125881 0)
(-0.539353 0.0129246 0)
(-0.54698 0.0132669 0)
(-0.554537 0.0136039 0)
(-0.562052 0.0139249 0)
(-0.569543 0.0142214 0)
(-0.577017 0.0144892 0)
(-0.584469 0.0147284 0)
(-0.591889 0.0149426 0)
(-0.599259 0.0151382 0)
(-0.606559 0.0153226 0)
(-0.613768 0.015503 0)
(-0.620864 0.0156852 0)
(-0.627825 0.0158727 0)
(-0.634632 0.0160665 0)
(-0.641269 0.0162647 0)
(-0.647718 0.0164632 0)
(-0.653967 0.0166559 0)
(-0.660004 0.0168365 0)
(-0.665819 0.0169994 0)
(-0.671405 0.017141 0)
(-0.676753 0.0172605 0)
(-0.681859 0.0173597 0)
(-0.686712 0.0174412 0)
(-0.691303 0.0175048 0)
(-0.695618 0.0175432 0)
(-0.69965 0.0175394 0)
(-0.703405 0.0174664 0)
(-0.706924 0.0172916 0)
(-0.710291 0.0169888 0)
(-0.713642 0.0165497 0)
(-0.717142 0.0159902 0)
(-0.72096 0.0153488 0)
(-0.725232 0.0146757 0)
(-0.730038 0.0140191 0)
(-0.735392 0.0134153 0)
(-0.741257 0.0128846 0)
(-0.74756 0.0124325 0)
(-0.754215 0.0120543 0)
(-0.761137 0.0117394 0)
(-0.76825 0.011475 0)
(-0.77549 0.0112483 0)
(-0.782805 0.0110485 0)
(-0.790153 0.0108662 0)
(-0.797501 0.0106944 0)
(-0.804822 0.0105277 0)
(-0.812092 0.0103618 0)
(-0.819291 0.0101938 0)
(-0.826401 0.0100213 0)
(-0.833407 0.00984241 0)
(-0.840292 0.00965577 0)
(-0.847041 0.00946018 0)
(-0.853642 0.00925459 0)
(-0.860078 0.00903806 0)
(-0.866337 0.00880974 0)
(-0.872406 0.00856885 0)
(-0.87827 0.00831464 0)
(-0.883915 0.00804635 0)
(-0.889329 0.00776334 0)
(-0.894496 0.00746518 0)
(-0.899404 0.00715186 0)
(-0.904039 0.0068238 0)
(-0.908388 0.00648189 0)
(-0.912441 0.00612738 0)
(-0.91619 0.00576187 0)
(-0.919629 0.00538687 0)
(-0.922754 0.00500309 0)
(-0.925558 0.00460971 0)
(-0.928037 0.00420372 0)
(-0.930176 0.00377961 0)
(-0.931956 0.00332923 0)
(-0.933349 0.00284215 0)
(-0.934318 0.00230737 0)
(-0.934825 0.00171622 0)
(-0.934836 0.00106425 0)
(-0.934329 0.000356596 0)
(-0.933282 -0.000390493 0)
(-0.931701 -0.00115914 0)
(-0.929605 -0.00191482 0)
(-0.926942 -0.00262651 0)
(-0.923703 -0.00328019 0)
(-0.919906 -0.0038663 0)
(-0.915577 -0.00438243 0)
(-0.910747 -0.00483567 0)
(-0.905454 -0.0052415 0)
(-0.899743 -0.00562001 0)
(-0.893665 -0.00599066 0)
(-0.887279 -0.0063672 0)
(-0.880644 -0.0067542 0)
(-0.873816 -0.00714645 0)
(-0.866845 -0.00753142 0)
(-0.859772 -0.00789369 0)
(-0.852622 -0.0082199 0)
(-0.845413 -0.00850258 0)
(-0.838148 -0.0087417 0)
(-0.830827 -0.00894395 0)
(-0.823441 -0.00912035 0)
(-0.81598 -0.00928328 0)
(-0.808431 -0.00944372 0)
(-0.800781 -0.00960946 0)
(-0.79302 -0.00978459 0)
(-0.785135 -0.00996985 0)
(-0.77712 -0.0101636 0)
(-0.768968 -0.0103629 0)
(-0.760675 -0.0105643 0)
(-0.752242 -0.0107646 0)
(-0.743668 -0.0109612 0)
(-0.734957 -0.0111519 0)
(-0.726115 -0.0113352 0)
(-0.717146 -0.0115101 0)
(-0.708058 -0.0116758 0)
(-0.698858 -0.0118318 0)
(-0.689554 -0.0119778 0)
(-0.680154 -0.0121137 0)
(-0.670665 -0.0122394 0)
(-0.661095 -0.0123551 0)
(-0.651453 -0.0124608 0)
(-0.641747 -0.0125567 0)
(-0.631983 -0.0126432 0)
(-0.622169 -0.0127204 0)
(-0.612312 -0.0127887 0)
(-0.602419 -0.0128484 0)
(-0.592495 -0.0128998 0)
(-0.582546 -0.0129433 0)
(-0.572578 -0.0129793 0)
(-0.562596 -0.013008 0)
(-0.552605 -0.0130299 0)
(-0.542609 -0.0130453 0)
(-0.532612 -0.0130545 0)
(-0.522617 -0.0130579 0)
(-0.512628 -0.0130557 0)
(-0.502648 -0.0130483 0)
(-0.492679 -0.013036 0)
(-0.482725 -0.013019 0)
(-0.472787 -0.0129976 0)
(-0.462867 -0.0129721 0)
(-0.452968 -0.0129426 0)
(-0.44309 -0.0129095 0)
(-0.433235 -0.0128729 0)
(-0.423404 -0.012833 0)
(-0.413599 -0.0127901 0)
(-0.403821 -0.0127442 0)
(-0.39407 -0.0126957 0)
(-0.384347 -0.0126446 0)
(-0.374653 -0.0125911 0)
(-0.364989 -0.0125353 0)
(-0.355355 -0.0124775 0)
(-0.345751 -0.0124177 0)
(-0.336179 -0.0123561 0)
(-0.326638 -0.0122927 0)
(-0.31713 -0.0122278 0)
(-0.307654 -0.0121614 0)
(-0.29821 -0.0120937 0)
(-0.2888 -0.0120248 0)
(-0.279423 -0.0119547 0)
(-0.27008 -0.0118835 0)
(-0.260771 -0.0118114 0)
(-0.251496 -0.0117385 0)
(-0.242256 -0.0116647 0)
(-0.23305 -0.0115902 0)
(-0.22388 -0.011515 0)
(-0.214745 -0.0114392 0)
(-0.205646 -0.0113628 0)
(-0.196583 -0.011286 0)
(-0.187557 -0.0112087 0)
(-0.178567 -0.0111311 0)
(-0.169615 -0.0110531 0)
(-0.160701 -0.0109749 0)
(-0.151824 -0.0108963 0)
(-0.142987 -0.0108174 0)
(-0.134189 -0.0107383 0)
(-0.125431 -0.0106588 0)
(-0.116713 -0.0105792 0)
(-0.108036 -0.0104992 0)
(-0.0994008 -0.0104191 0)
(-0.0908072 -0.0103388 0)
(-0.0822559 -0.0102584 0)
(-0.0737476 -0.010178 0)
(-0.0652829 -0.0100975 0)
(-0.0568629 -0.010017 0)
(-0.0484886 -0.00993623 0)
(-0.0401612 -0.00985505 0)
(-0.0318818 -0.0097731 0)
(-0.0236513 -0.00969002 0)
(-0.0154698 -0.00960549 0)
(-0.00733694 -0.00951943 0)
(0.000750284 -0.00943226 0)
(0.00879268 -0.00934302 0)
(0.0167926 -0.00925193 0)
(0.0247519 -0.00916369 0)
(0.0326765 -0.00907707 0)
(0.0405624 -0.00899692 0)
(0.0484055 -0.00892298 0)
(0.0562019 -0.00885479 0)
(0.0639398 -0.00879226 0)
(0.0715992 -0.00873239 0)
(0.0791585 -0.00866821 0)
(0.0865989 -0.00859386 0)
(0.0938973 -0.00850332 0)
(0.101035 -0.00838986 0)
(0.107995 -0.00825329 0)
(0.11477 -0.00809341 0)
(0.121353 -0.00791512 0)
(0.127745 -0.0077291 0)
(0.133947 -0.00753951 0)
(0.139967 -0.00735261 0)
(0.145813 -0.00717353 0)
(0.151494 -0.00700413 0)
(0.157018 -0.00684414 0)
(0.162394 -0.00669174 0)
(0.167631 -0.00654443 0)
(0.172733 -0.00640023 0)
(0.177708 -0.00625819 0)
(0.182561 -0.00611934 0)
(0.187298 -0.00598552 0)
(0.191927 -0.00585892 0)
(0.196456 -0.00574106 0)
(0.200894 -0.00563241 0)
(0.205248 -0.0055326 0)
(0.209526 -0.00544058 0)
(0.213733 -0.005355 0)
(0.217874 -0.00527466 0)
(0.221954 -0.00519878 0)
(0.225976 -0.0051269 0)
(0.229944 -0.0050587 0)
(0.233861 -0.00499386 0)
(0.23773 -0.00493213 0)
(0.241553 -0.00487335 0)
(0.245334 -0.00481736 0)
(0.249075 -0.00476397 0)
(0.252777 -0.00471305 0)
(0.256442 -0.00466446 0)
(0.260074 -0.00461802 0)
(0.263672 -0.00457357 0)
(0.26724 -0.00453093 0)
(0.270778 -0.00448993 0)
(0.274287 -0.00445039 0)
(0.277768 -0.00441213 0)
(0.281223 -0.00437492 0)
(0.284652 -0.00433855 0)
(0.288056 -0.00430286 0)
(0.291435 -0.00426764 0)
(0.294788 -0.00423258 0)
(0.298117 -0.00419745 0)
(0.301421 -0.00416202 0)
(0.304699 -0.00412603 0)
(0.307951 -0.00408925 0)
(0.311176 -0.00405146 0)
(0.314374 -0.0040124 0)
(0.317542 -0.0039718 0)
(0.32068 -0.00392943 0)
(0.323785 -0.00388507 0)
(0.326856 -0.00383853 0)
(0.329891 -0.00378959 0)
(0.332888 -0.00373807 0)
(0.335844 -0.00368376 0)
(0.338757 -0.00362644 0)
(0.341624 -0.00356592 0)
(0.344442 -0.00350201 0)
(0.347208 -0.00343452 0)
(0.34992 -0.00336322 0)
(0.352573 -0.00328796 0)
(0.355164 -0.0032086 0)
(0.35769 -0.003125 0)
(0.360148 -0.0030369 0)
(0.362532 -0.0029441 0)
(0.36484 -0.00284651 0)
(0.367067 -0.00274408 0)
(0.369209 -0.00263665 0)
(0.371261 -0.00252408 0)
(0.373221 -0.00240622 0)
(0.375082 -0.00228298 0)
(0.37684 -0.00215429 0)
(0.378492 -0.00202009 0)
(0.380031 -0.00188025 0)
(0.381454 -0.00173463 0)
(0.382755 -0.00158317 0)
(0.38393 -0.0014259 0)
(0.384975 -0.00126277 0)
(0.385883 -0.00109364 0)
(0.38665 -0.000918266 0)
(0.387271 -0.000736243 0)
(0.387741 -0.000546811 0)
(0.388057 -0.00034803 0)
(0.388221 -0.000136961 0)
(0.388215 9.60384e-05 0)
(0.388077 0.000366665 0)
(0.387877 0.000677678 0)
(0.387633 0.00099508 0)
(0.387301 0.00128078 0)
(0.386819 0.00153055 0)
(0.386147 0.00176347 0)
(0.385271 0.00199655 0)
(0.384189 0.00223636 0)
(0.382899 0.0024827 0)
(0.381398 0.00273343 0)
(0.379681 0.00298707 0)
(0.377742 0.00324293 0)
(0.375577 0.00350068 0)
(0.373179 0.00375999 0)
(0.370545 0.00402052 0)
(0.367671 0.0042819 0)
(0.364554 0.00454368 0)
(0.361191 0.00480531 0)
(0.357578 0.00506628 0)
(0.353715 0.00532624 0)
(0.349599 0.00558485 0)
(0.345229 0.00584171 0)
(0.340605 0.00609632 0)
(0.335725 0.00634829 0)
(0.330591 0.0065973 0)
(0.325203 0.00684303 0)
(0.319561 0.00708513 0)
(0.313668 0.00732335 0)
(0.307526 0.00755737 0)
(0.301136 0.00778689 0)
(0.294501 0.00801167 0)
(0.287626 0.008231 0)
(0.280513 0.00844419 0)
(0.273168 0.00865091 0)
(0.265595 0.00885097 0)
(0.2578 0.00904419 0)
(0.249788 0.00923037 0)
(0.241565 0.0094094 0)
(0.233138 0.00958125 0)
(0.224514 0.00974608 0)
(0.215701 0.00990411 0)
(0.206706 0.0100556 0)
(0.197539 0.0102009 0)
(0.188206 0.0103404 0)
(0.178718 0.0104741 0)
(0.169083 0.0106016 0)
(0.159311 0.010722 0)
(0.14941 0.0108337 0)
(0.139391 0.0109347 0)
(0.129266 0.0110229 0)
(0.119049 0.0110975 0)
(0.108756 0.01116 0)
(0.0984061 0.0112153 0)
(0.0880045 0.0112712 0)
(0.0775187 0.0113344 0)
(0.0668833 0.0114034 0)
(0.0558703 0.011451 0)
(0.0446893 0.0113411 0)
(0.03347 0.010743 0)
(0.0245658 0.00945076 0)
(0.0165309 0.00932236 0)
(0.0100642 0.0142416 0)
(0.000832958 -0.0156849 0)
(0.00580955 -0.0177155 0)
(0.00857842 -0.0170284 0)
(0.011688 -0.0167582 0)
(0.0145008 -0.0167078 0)
(0.0174373 -0.0166218 0)
(0.0203686 -0.0165239 0)
(0.0233228 -0.0164147 0)
(0.0263183 -0.016286 0)
(0.0293659 -0.016145 0)
(0.0324748 -0.0159826 0)
(0.0356533 -0.0158109 0)
(0.0389039 -0.0156245 0)
(0.042226 -0.0154265 0)
(0.0456112 -0.0152056 0)
(0.0490497 -0.0149727 0)
(0.0525293 -0.0147202 0)
(0.0560345 -0.0144458 0)
(0.0595417 -0.0141459 0)
(0.0630256 -0.013824 0)
(0.0664726 -0.013474 0)
(0.0698583 -0.0131018 0)
(0.0731638 -0.0127072 0)
(0.0763687 -0.0122854 0)
(0.0794588 -0.0118467 0)
(0.0824185 -0.0113826 0)
(0.0852463 -0.0108961 0)
(0.0879464 -0.0103965 0)
(0.0905232 -0.00990612 0)
(0.0929901 -0.00944627 0)
(0.0953407 -0.00903438 0)
(0.0975576 -0.00869402 0)
(0.0995926 -0.00841011 0)
(0.101369 -0.00815369 0)
(0.10279 -0.00785397 0)
(0.103777 -0.00743588 0)
(0.104301 -0.00680578 0)
(0.104387 -0.00590502 0)
(0.104144 -0.004715 0)
(0.103751 -0.0032919 0)
(0.103414 -0.00177734 0)
(0.103334 -0.000402604 0)
(0.103698 0.000593959 0)
(0.104635 0.00109 0)
(0.106189 0.00105683 0)
(0.108222 0.000566777 0)
(0.110623 -0.000320056 0)
(0.112667 -0.0014431 0)
(0.114229 -0.002539 0)
(0.115243 -0.00351643 0)
(0.115668 -0.00436596 0)
(0.115473 -0.00507951 0)
(0.114687 -0.00556689 0)
(0.113412 -0.00557459 0)
(0.111893 -0.00491096 0)
(0.110402 -0.00347933 0)
(0.109161 -0.00157896 0)
(0.108024 0.000208418 0)
(0.106835 0.00173474 0)
(0.105628 0.00301767 0)
(0.104388 0.00410929 0)
(0.103078 0.00502256 0)
(0.101664 0.0057611 0)
(0.100105 0.00634335 0)
(0.0983706 0.00679604 0)
(0.0964433 0.00714986 0)
(0.0943156 0.00742843 0)
(0.0919832 0.00764845 0)
(0.0894442 0.00782692 0)
(0.0866996 0.00798512 0)
(0.0837559 0.00814114 0)
(0.0806245 0.00830516 0)
(0.0773164 0.00848071 0)
(0.0738406 0.00866704 0)
(0.0702064 0.00886626 0)
(0.0664227 0.00908479 0)
(0.0624976 0.00932414 0)
(0.0584419 0.00958251 0)
(0.0542617 0.00986063 0)
(0.049969 0.0101589 0)
(0.0455777 0.0104784 0)
(0.0411009 0.0108126 0)
(0.0365572 0.0111508 0)
(0.0319536 0.0114798 0)
(0.0273061 0.0117921 0)
(0.0226088 0.0121037 0)
(0.0178495 0.0124523 0)
(0.0130342 0.0128784 0)
(0.0081929 0.0133825 0)
(0.00334897 0.0139254 0)
(-0.00148667 0.0144119 0)
(-0.00631956 0.0147502 0)
(-0.0112003 0.0149198 0)
(-0.0162003 0.0149887 0)
(-0.0213873 0.0151033 0)
(-0.0267537 0.0154478 0)
(-0.032211 0.0161748 0)
(-0.0376401 0.017303 0)
(-0.042937 0.0186926 0)
(-0.0480466 0.020096 0)
(-0.0530281 0.021297 0)
(-0.0580681 0.0221108 0)
(-0.0633824 0.0224474 0)
(-0.069168 0.0223358 0)
(-0.0755716 0.0218811 0)
(-0.0826713 0.0212128 0)
(-0.0904751 0.0204484 0)
(-0.0989354 0.0196746 0)
(-0.10797 0.0189456 0)
(-0.117484 0.0182898 0)
(-0.127378 0.0177174 0)
(-0.137562 0.0172278 0)
(-0.147956 0.0168143 0)
(-0.158491 0.0164678 0)
(-0.169112 0.0161785 0)
(-0.179777 0.0159377 0)
(-0.190452 0.0157377 0)
(-0.201117 0.0155725 0)
(-0.211753 0.0154374 0)
(-0.222351 0.0153281 0)
(-0.232899 0.0152406 0)
(-0.243388 0.0151717 0)
(-0.253808 0.0151188 0)
(-0.26415 0.0150804 0)
(-0.274403 0.0150557 0)
(-0.284559 0.0150448 0)
(-0.294609 0.0150477 0)
(-0.304543 0.0150645 0)
(-0.314356 0.0150945 0)
(-0.32404 0.0151364 0)
(-0.333587 0.0151883 0)
(-0.342992 0.0152479 0)
(-0.352251 0.0153141 0)
(-0.361365 0.0153872 0)
(-0.370339 0.0154708 0)
(-0.379185 0.0155711 0)
(-0.38792 0.0156964 0)
(-0.39656 0.0158539 0)
(-0.405111 0.0160462 0)
(-0.413566 0.0162677 0)
(-0.421894 0.0165031 0)
(-0.430044 0.0167287 0)
(-0.437949 0.0169174 0)
(-0.445541 0.0170448 0)
(-0.452762 0.0170968 0)
(-0.459576 0.017074 0)
(-0.465981 0.0169924 0)
(-0.472005 0.0168804 0)
(-0.477696 0.0167724 0)
(-0.483118 0.0167008 0)
(-0.488333 0.0166901 0)
(-0.493394 0.0167528 0)
(-0.498342 0.0168884 0)
(-0.503204 0.0170857 0)
(-0.507996 0.0173258 0)
(-0.512729 0.0175868 0)
(-0.51741 0.0178473 0)
(-0.522046 0.01809 0)
(-0.526646 0.018303 0)
(-0.531219 0.0184808 0)
(-0.535775 0.0186231 0)
(-0.540326 0.0187343 0)
(-0.54488 0.0188212 0)
(-0.549447 0.0188918 0)
(-0.554034 0.0189536 0)
(-0.558651 0.0190129 0)
(-0.563304 0.0190736 0)
(-0.568002 0.0191375 0)
(-0.572756 0.019204 0)
(-0.577578 0.0192705 0)
(-0.582482 0.0193335 0)
(-0.587485 0.0193888 0)
(-0.592604 0.0194327 0)
(-0.597853 0.0194617 0)
(-0.603246 0.0194727 0)
(-0.608787 0.019463 0)
(-0.614478 0.0194293 0)