/*--------------------------------*- C++ -*----------------------------------*\
| =========                 |                                                 |
| \\      /  F ield         | OpenFOAM: The Open Source CFD Toolbox           |
|  \\    /   O peration     | Version:  v2006                                 |
|   \\  /    A nd           | Website:  www.openfoam.com                      |
|    \\/     M anipulation  |                                                 |
\*---------------------------------------------------------------------------*/
FoamFile
{
    version     2.0;
    format      ascii;
    class       volScalarField;
    location    "0";
    object      p;
}
// * * * * * * * * * * * * * * * * * * * * * * * * * * * * * * * * * * * * * //

dimensions      [1 -1 -2 0 0 0 0];


internalField   nonuniform List<scalar> 
67500
(
16.5666
16.5302
21.5414
28.067
36.5477
39.7519
13.3044
-3.00588
-3.84171
-1.85526
-1.22662
-0.882698
-0.205222
0.571131
1.23475
1.79033
2.33581
2.91368
3.52605
4.17646
4.86697
5.59202
6.34123
7.10499
7.87876
8.66437
9.46779
10.2943
11.1432
12.0024
12.8445
13.623
14.2738
14.7327
14.9833
15.0915
15.1433
15.1846
15.2252
15.2634
15.3118
15.3953
15.5207
15.6773
15.8591
16.0648
16.2854
16.5048
16.7095
16.8897
17.0359
17.1401
17.1978
17.2074
17.1684
17.082
16.9507
16.7779
16.5674
16.3232
16.0495
15.7502
15.429
15.0895
14.735
14.3688
13.9935
13.6116
13.2252
12.836
12.4454
12.0547
11.6652
11.2777
10.8933
10.513
10.1375
9.76771
9.4043
9.04794
8.69917
8.35846
8.02622
7.70275
7.38828
7.08297
6.78694
6.5002
6.22276
5.95455
5.69548
5.44542
5.20424
4.97177
4.74783
4.53222
4.32477
4.12528
3.93354
3.74936
3.57254
3.40287
3.24016
3.0842
2.93478
2.7917
2.65476
2.52373
2.39843
2.27863
2.16413
2.05472
1.95021
1.85039
1.75507
1.66405
1.57714
1.49417
1.41495
1.3393
1.26707
1.19807
1.13215
1.06914
1.00891
0.951294
0.896151
0.843343
0.792735
0.744197
0.697608
0.652851
0.609814
0.568395
0.528497
0.49003
0.452913
0.417069
0.382432
0.34894
0.316539
0.285182
0.254827
0.22544
0.196989
0.169452
0.142808
0.117041
0.0921404
0.0680967
0.044905
0.0225622
0.00106751
-0.0195785
-0.0393739
-0.058316
-0.0764018
-0.0936281
-0.109992
-0.125491
-0.140125
-0.153892
-0.166795
-0.178835
-0.190017
-0.200348
-0.209836
-0.218492
-0.226327
-0.233355
-0.239595
-0.245063
-0.249781
-0.25377
-0.257055
-0.259661
-0.261615
-0.262945
-0.263681
-0.263853
-0.263492
-0.262629
-0.261298
-0.259529
-0.257356
-0.25481
-0.251922
-0.248725
-0.245247
-0.241519
-0.23757
-0.233426
-0.229115
-0.22466
-0.220087
-0.215417
-0.210672
-0.205871
-0.201032
-0.196172
-0.191307
-0.186451
-0.181617
-0.176815
-0.172058
-0.167354
-0.162711
-0.158136
-0.153636
-0.149215
-0.14488
-0.140633
-0.136477
-0.132416
-0.12845
-0.124582
-0.120812
-0.117142
-0.113571
-0.110099
-0.106727
-0.103452
-0.100276
-0.0971959
-0.0942118
-0.0913221
-0.0885256
-0.0858209
-0.0832065
-0.0806811
-0.0782429
-0.0758906
-0.0736224
-0.0714369
-0.0693323
-0.0673071
-0.0653596
-0.0634881
-0.0616911
-0.0599669
-0.0583137
-0.05673
-0.0552139
-0.0537639
-0.052378
-0.0510546
-0.0497919
-0.0485879
-0.0474408
-0.0463487
-0.0453095
-0.0443214
-0.0433821
-0.0424896
-0.0416418
-0.0408365
-0.0400714
-0.0393444
-0.0386531
-0.0379953
-0.0373688
-0.0367713
-0.0362005
-0.0356543
-0.0351306
-0.0346272
-0.0341421
-0.0336735
-0.0332193
-0.0327779
-0.0323477
-0.031927
-0.0315144
-0.0311088
-0.0307088
-0.0303137
-0.0299224
-0.0295344
-0.0291491
-0.0287662
-0.0283853
-0.0280065
-0.0276296
-0.0272547
-0.026882
-0.0265115
-0.0261434
-0.0257777
-0.0254145
-0.0250536
-0.024695
-0.0243385
-0.0239839
-0.023631
-0.0232794
-0.0229291
-0.0225797
-0.0222313
-0.0218837
-0.0215371
-0.0211915
-0.0208472
-0.0205044
-0.0201634
-0.0198247
-0.0194887
-0.0191556
-0.018826
-0.0185002
-0.0181785
-0.0178614
-0.0175492
-0.017242
-0.0169401
-0.0166437
-0.016353
-0.0160679
-0.0157887
-0.0155153
-0.0152478
-0.014986
-0.01473
-0.0144797
-0.0142349
-0.0139957
-0.0137618
-0.0135332
-0.0133097
-0.0130911
-0.0128774
-0.0126684
-0.0124639
-0.0122638
-0.012068
-0.0118762
-0.0116885
-0.0115045
-0.0113243
-0.0111475
-0.0109742
-0.0108043
-0.0106375
-0.0104737
-0.0103129
-0.010155
-0.00999975
-0.00984718
-0.00969715
-0.00954957
-0.00940435
-0.00926141
-0.00912066
-0.00898204
-0.00884546
-0.00871085
-0.00857815
-0.00844729
-0.0083182
-0.00819084
-0.00806514
-0.00794105
-0.00781851
-0.00769748
-0.00757791
-0.00745975
-0.00734296
-0.00722749
-0.00711331
-0.00700037
-0.00688865
-0.00677811
-0.00666871
-0.00656041
-0.0064532
-0.00634704
-0.0062419
-0.00613774
-0.00603456
-0.00593231
-0.00583098
-0.00573053
-0.00563096
-0.00553223
-0.00543432
-0.00533721
-0.00524088
-0.00514532
-0.0050505
-0.0049564
-0.004863
-0.0047703
-0.00467827
-0.00458689
-0.00449616
-0.00440605
-0.00431654
-0.00422763
-0.0041393
-0.00405152
-0.0039643
-0.00387762
-0.00379145
-0.0037058
-0.00362064
-0.00353597
-0.00345177
-0.00336803
-0.00328473
-0.00320187
-0.00311943
-0.0030374
-0.00295577
-0.00287452
-0.00279366
-0.00271316
-0.00263301
-0.0025532
-0.00247373
-0.00239458
-0.00231574
-0.0022372
-0.00215896
-0.00208099
-0.00200329
-0.00192585
-0.00184866
-0.00177171
-0.00169499
-0.0016185
-0.00154221
-0.00146612
-0.00139022
-0.0013145
-0.00123895
-0.00116356
-0.00108832
-0.00101322
-0.000938252
-0.000863404
-0.000788668
-0.000714036
-0.000639496
-0.00056504
-0.000490651
-0.000416346
-0.000342018
-0.000267969
-0.000193011
-0.000120471
-3.48271e-05
13.9032
12.3019
16.3048
21.5831
20.4262
29.068
-4.59653
-15.0725
-6.53546
-1.26339
-0.736214
-0.463962
0.317667
0.979331
1.36364
1.79772
2.28811
2.81295
3.37769
3.98826
4.64357
5.33478
6.04803
6.77118
7.4998
8.23849
8.99752
9.78753
10.6136
11.4697
12.3332
13.1584
13.8664
14.3509
14.5613
14.6128
14.6391
14.6868
14.7471
14.7959
14.8452
14.9401
15.0868
15.2621
15.4593
15.685
15.9301
16.1732
16.3998
16.6016
16.7683
16.8904
16.9643
16.9889
16.9635
16.8894
16.7694
16.6071
16.4063
16.1714
15.9065
15.6155
15.3022
14.9702
14.6229
14.2635
13.8948
13.5193
13.1391
12.7557
12.3707
11.9852
11.6004
11.2174
10.8371
10.4605
10.0885
9.72184
9.36137
9.00772
8.66147
8.32312
7.99306
7.67164
7.35909
7.05558
6.76123
6.47608
6.20011
5.93329
5.67552
5.42667
5.18662
4.9552
4.73223
4.51753
4.31092
4.11221
3.9212
3.73769
3.5615
3.39242
3.23026
3.07481
2.92588
2.78327
2.64676
2.51615
2.39124
2.27181
2.15767
2.0486
1.94442
1.8449
1.74987
1.65913
1.57249
1.48977
1.41079
1.33537
1.26335
1.19456
1.12884
1.06603
1.00598
0.948544
0.893569
0.84092
0.790462
0.742068
0.695614
0.650983
0.608064
0.566755
0.526958
0.488584
0.451551
0.415783
0.381215
0.347783
0.315436
0.284125
0.253811
0.224457
0.196036
0.168522
0.141897
0.116145
0.0912548
0.067219
0.0440324
0.0216925
0.000198938
-0.0204473
-0.0402438
-0.0591877
-0.0772753
-0.0945032
-0.110868
-0.126368
-0.141001
-0.154766
-0.167665
-0.1797
-0.190875
-0.201198
-0.210675
-0.219317
-0.227137
-0.234149
-0.24037
-0.245817
-0.250512
-0.254478
-0.257737
-0.260315
-0.262241
-0.263541
-0.264247
-0.264387
-0.263994
-0.2631
-0.261736
-0.259935
-0.25773
-0.255152
-0.252233
-0.249005
-0.245498
-0.241742
-0.237765
-0.233595
-0.229258
-0.22478
-0.220184
-0.215493
-0.210728
-0.205909
-0.201053
-0.196178
-0.191299
-0.18643
-0.181584
-0.176772
-0.172005
-0.167293
-0.162642
-0.158061
-0.153556
-0.149131
-0.144792
-0.140541
-0.136383
-0.13232
-0.128353
-0.124484
-0.120713
-0.117043
-0.113472
-0.11
-0.106628
-0.103355
-0.100179
-0.0971003
-0.0941174
-0.091229
-0.0884338
-0.0857306
-0.0831177
-0.0805938
-0.0781572
-0.0758065
-0.0735399
-0.071356
-0.069253
-0.0672294
-0.0652835
-0.0634138
-0.0616184
-0.0598958
-0.0582444
-0.0566623
-0.055148
-0.0536997
-0.0523156
-0.050994
-0.0497331
-0.048531
-0.0473859
-0.0462957
-0.0452586
-0.0442725
-0.0433353
-0.042445
-0.0415994
-0.0407963
-0.0400334
-0.0393086
-0.0386196
-0.0379641
-0.0373398
-0.0367445
-0.0361759
-0.0356318
-0.0351102
-0.0346088
-0.0341257
-0.0336589
-0.0332065
-0.0327668
-0.0323381
-0.0319188
-0.0315075
-0.031103
-0.0307041
-0.0303097
-0.0299192
-0.0295317
-0.0291468
-0.0287641
-0.0283833
-0.0280045
-0.0276276
-0.0272526
-0.0268798
-0.0265092
-0.026141
-0.0257753
-0.0254121
-0.0250513
-0.0246929
-0.0243367
-0.0239823
-0.0236296
-0.0232782
-0.022928
-0.0225788
-0.0222304
-0.0218828
-0.021536
-0.0211902
-0.0208456
-0.0205025
-0.0201612
-0.0198221
-0.0194857
-0.0191522
-0.0188222
-0.018496
-0.018174
-0.0178566
-0.0175441
-0.0172367
-0.0169346
-0.0166381
-0.0163472
-0.0160622
-0.0157829
-0.0155095
-0.015242
-0.0149803
-0.0147243
-0.0144741
-0.0142294
-0.0139903
-0.0137566
-0.0135281
-0.0133047
-0.0130863
-0.0128727
-0.0126638
-0.0124595
-0.0122596
-0.0120639
-0.0118723
-0.0116846
-0.0115008
-0.0113207
-0.0111441
-0.0109709
-0.0108011
-0.0106344
-0.0104708
-0.0103101
-0.0101522
-0.00999711
-0.00984464
-0.0096947
-0.0095472
-0.00940207
-0.00925921
-0.00911854
-0.00897999
-0.00884348
-0.00870894
-0.00857631
-0.00844551
-0.00831648
-0.00818918
-0.00806353
-0.00793949
-0.00781701
-0.00769602
-0.0075765
-0.00745838
-0.00734163
-0.0072262
-0.00711206
-0.00699916
-0.00688747
-0.00677696
-0.00666759
-0.00655933
-0.00645215
-0.00634602
-0.0062409
-0.00613678
-0.00603362
-0.0059314
-0.00583009
-0.00572967
-0.00563011
-0.0055314
-0.00543352
-0.00533643
-0.00524012
-0.00514458
-0.00504977
-0.00495569
-0.00486231
-0.00476963
-0.00467761
-0.00458625
-0.00449554
-0.00440544
-0.00431595
-0.00422705
-0.00413873
-0.00405097
-0.00396377
-0.00387709
-0.00379095
-0.0037053
-0.00362016
-0.0035355
-0.00345131
-0.00336758
-0.0032843
-0.00320145
-0.00311902
-0.003037
-0.00295538
-0.00287415
-0.00279329
-0.0027128
-0.00263266
-0.00255287
-0.00247341
-0.00239427
-0.00231544
-0.00223691
-0.00215868
-0.00208072
-0.00200303
-0.0019256
-0.00184842
-0.00177148
-0.00169477
-0.00161829
-0.00154201
-0.00146593
-0.00139004
-0.00131433
-0.00123879
-0.00116341
-0.00108818
-0.00101309
-0.000938129
-0.000863292
-0.000788566
-0.000713943
-0.000639413
-0.000564967
-0.000490587
-0.000416291
-0.000341974
-0.000267934
-0.000192985
-0.000120455
-3.48226e-05
9.40836
8.41903
7.97253
1.41868
2.61619
3.0955
-36.276
-33.6601
-12.644
-3.1523
-1.86392
-1.2058
-0.16835
0.6953
1.26153
1.69273
2.13537
2.59921
3.09489
3.63761
4.22873
4.85424
5.49089
6.11993
6.7392
7.36376
8.01705
8.72244
9.49736
10.3476
11.2617
12.1993
13.0567
13.613
13.6971
13.5944
13.5632
13.6387
13.767
13.8544
13.9039
14.0267
14.2264
14.4398
14.6616
14.925
15.2203
15.5108
15.7801
16.0256
16.2341
16.3919
16.4979
16.5527
16.5546
16.5051
16.4078
16.2662
16.0849
15.8686
15.6213
15.3471
15.0496
14.7324
14.3993
14.0535
13.6981
13.3354
12.9674
12.5958
12.2219
11.8468
11.4716
11.0974
10.7252
10.3561
9.99089
9.63057
9.27592
8.92767
8.58643
8.25274
7.92705
7.6097
7.30096
7.00103
6.71004
6.42803
6.15502
5.89095
5.63576
5.38933
5.15152
4.92219
4.70116
4.48827
4.28333
4.08617
3.89659
3.71443
3.53949
3.37158
3.21051
3.0561
2.90814
2.76644
2.63081
2.50102
2.3769
2.25822
2.14478
2.03639
1.93285
1.83394
1.73949
1.64931
1.5632
1.48098
1.40248
1.32752
1.25594
1.18757
1.12225
1.05983
1.00014
0.943053
0.888413
0.836083
0.785928
0.73782
0.691635
0.647257
0.604575
0.563484
0.523889
0.4857
0.448836
0.413221
0.378788
0.345478
0.313238
0.28202
0.251785
0.222499
0.194134
0.166667
0.140079
0.114355
0.089487
0.0654664
0.0422896
0.0199551
-0.00153672
-0.0221838
-0.0419831
-0.0609306
-0.0790223
-0.0962539
-0.112622
-0.128122
-0.142754
-0.156515
-0.169407
-0.181432
-0.192593
-0.202898
-0.212353
-0.22097
-0.22876
-0.235738
-0.241921
-0.247327
-0.251977
-0.255894
-0.259101
-0.261625
-0.263493
-0.264734
-0.265379
-0.265457
-0.265
-0.264041
-0.262612
-0.260747
-0.258477
-0.255836
-0.252855
-0.249565
-0.245999
-0.242185
-0.238153
-0.23393
-0.229543
-0.225017
-0.220377
-0.215644
-0.210839
-0.205983
-0.201094
-0.196188
-0.19128
-0.186385
-0.181516
-0.176684
-0.171899
-0.16717
-0.162505
-0.157912
-0.153395
-0.148961
-0.144614
-0.140358
-0.136195
-0.132127
-0.128157
-0.124286
-0.120515
-0.116844
-0.113273
-0.109802
-0.106431
-0.103159
-0.0999856
-0.096909
-0.0939285
-0.0910427
-0.0882503
-0.0855499
-0.08294
-0.0804192
-0.0779857
-0.0756382
-0.0733748
-0.0711941
-0.0690944
-0.0670741
-0.0651315
-0.063265
-0.061473
-0.0597537
-0.0581056
-0.056527
-0.0550161
-0.0535713
-0.0521908
-0.0508728
-0.0496156
-0.0484172
-0.0472759
-0.0461897
-0.0451566
-0.0441746
-0.0432417
-0.0423557
-0.0415144
-0.0407157
-0.0399573
-0.0392371
-0.0385526
-0.0379016
-0.0372818
-0.0366909
-0.0361267
-0.035587
-0.0350695
-0.0345722
-0.034093
-0.0336299
-0.033181
-0.0327446
-0.032319
-0.0319025
-0.0314938
-0.0310916
-0.0306946
-0.030302
-0.0299128
-0.0295263
-0.0291422
-0.0287599
-0.0283794
-0.0280006
-0.0276236
-0.0272484
-0.0268753
-0.0265045
-0.0261362
-0.0257705
-0.0254073
-0.0250468
-0.0246887
-0.0243329
-0.023979
-0.0236268
-0.0232759
-0.022926
-0.022577
-0.0222286
-0.0218809
-0.0215339
-0.0211877
-0.0208426
-0.0204988
-0.0201568
-0.0198169
-0.0194796
-0.0191454
-0.0188146
-0.0184877
-0.018165
-0.017847
-0.0175339
-0.0172261
-0.0169237
-0.0166269
-0.0163358
-0.0160506
-0.0157713
-0.0154979
-0.0152304
-0.0149688
-0.014713
-0.0144629
-0.0142185
-0.0139796
-0.0137461
-0.0135178
-0.0132947
-0.0130766
-0.0128634
-0.0126548
-0.0124507
-0.0122511
-0.0120557
-0.0118644
-0.011677
-0.0114935
-0.0113136
-0.0111373
-0.0109644
-0.0107947
-0.0106283
-0.0104649
-0.0103044
-0.0101467
-0.00999184
-0.00983955
-0.0096898
-0.00954248
-0.00939752
-0.00925482
-0.00911431
-0.0089759
-0.00883954
-0.00870513
-0.00857263
-0.00844195
-0.00831305
-0.00818585
-0.00806032
-0.00793638
-0.00781399
-0.00769311
-0.00757367
-0.00745564
-0.00733897
-0.00722362
-0.00710956
-0.00699674
-0.00688512
-0.00677468
-0.00666537
-0.00655718
-0.00645005
-0.00634398
-0.00623892
-0.00613485
-0.00603174
-0.00592957
-0.00582831
-0.00572793
-0.00562842
-0.00552976
-0.00543191
-0.00533487
-0.0052386
-0.00514309
-0.00504832
-0.00495428
-0.00486094
-0.00476828
-0.0046763
-0.00458498
-0.00449429
-0.00440422
-0.00431476
-0.00422589
-0.0041376
-0.00404987
-0.00396269
-0.00387605
-0.00378993
-0.00370431
-0.00361919
-0.00353456
-0.00345039
-0.00336669
-0.00328343
-0.0032006
-0.0031182
-0.0030362
-0.0029546
-0.00287339
-0.00279256
-0.00271209
-0.00263198
-0.0025522
-0.00247276
-0.00239365
-0.00231484
-0.00223633
-0.00215811
-0.00208018
-0.00200251
-0.0019251
-0.00184794
-0.00177102
-0.00169434
-0.00161787
-0.00154161
-0.00146555
-0.00138968
-0.00131399
-0.00123847
-0.00116311
-0.0010879
-0.00101283
-0.000937887
-0.000863068
-0.000788362
-0.000713759
-0.000639248
-0.000564821
-0.00049046
-0.000416183
-0.000341884
-0.000267864
-0.000192935
-0.000120423
-3.48138e-05
5.43949
5.64498
1.68527
1.68941
1.91166
1.1319
-41.0045
-51.5581
-15.758
-4.19487
-1.98762
-0.296481
0.670487
1.07061
1.30369
1.52875
1.81419
2.15433
2.53948
2.96985
3.44536
3.95294
4.4674
4.96388
5.43342
5.89369
6.38209
6.94134
7.60839
8.41222
9.37723
10.518
11.7612
12.6169
12.3915
11.9633
11.8667
12.0325
12.3107
12.4466
12.4449
12.6107
12.9173
13.1985
13.4492
13.7736
14.1579
14.5226
14.8518
15.1638
15.4365
15.6457
15.7985
15.8992
15.9419
15.929
15.8657
15.755
15.6026
15.4142
15.1937
14.9447
14.6708
14.3759
14.0639
13.7385
13.4029
13.0595
12.7102
12.3564
11.9993
11.6398
11.2791
10.9181
10.558
10.2
9.84501
9.49409
9.14813
8.80793
8.47417
8.14745
7.82827
7.51701
7.21399
6.91941
6.63344
6.35615
6.08755
5.82763
5.5763
5.33348
5.09903
4.87282
4.6547
4.4445
4.24206
4.04722
3.8598
3.67964
3.50656
3.34039
3.18097
3.02809
2.88159
2.74126
2.60693
2.47838
2.35543
2.23786
2.12549
2.01811
1.91553
1.81754
1.72396
1.6346
1.54928
1.46782
1.39004
1.31577
1.24484
1.1771
1.11238
1.05053
0.991401
0.934838
0.8807
0.828847
0.779147
0.731468
0.685688
0.641689
0.599361
0.558599
0.519307
0.481395
0.444783
0.409396
0.375168
0.342039
0.309957
0.278877
0.248761
0.219576
0.191295
0.163896
0.137362
0.111681
0.0868432
0.0628441
0.0396809
0.0173533
-0.0041369
-0.0247863
-0.0445907
-0.0635448
-0.0816434
-0.0988813
-0.115254
-0.130756
-0.145387
-0.159143
-0.172025
-0.184034
-0.195175
-0.205453
-0.214876
-0.223454
-0.2312
-0.238127
-0.244253
-0.249596
-0.254178
-0.258022
-0.261151
-0.263593
-0.265375
-0.266527
-0.267079
-0.267062
-0.266509
-0.265453
-0.263927
-0.261964
-0.259597
-0.25686
-0.253785
-0.250404
-0.246748
-0.242848
-0.238733
-0.23443
-0.229968
-0.22537
-0.220662
-0.215866
-0.211002
-0.206092
-0.201152
-0.196199
-0.191249
-0.186316
-0.181412
-0.176549
-0.171736
-0.166983
-0.162297
-0.157685
-0.153153
-0.148705
-0.144347
-0.140081
-0.135911
-0.131838
-0.127864
-0.12399
-0.120217
-0.116545
-0.112974
-0.109505
-0.106136
-0.102866
-0.0996951
-0.0966218
-0.0936449
-0.090763
-0.0879748
-0.0852788
-0.0826734
-0.0801572
-0.0777285
-0.0753857
-0.0731271
-0.0709513
-0.0688565
-0.066841
-0.0649034
-0.0630418
-0.0612547
-0.0595405
-0.0578975
-0.0563239
-0.0548182
-0.0533786
-0.0520034
-0.0506909
-0.0494392
-0.0482465
-0.0471109
-0.0460306
-0.0450036
-0.0440278
-0.0431011
-0.0422216
-0.0413869
-0.0405948
-0.0398432
-0.0391297
-0.038452
-0.0378078
-0.0371948
-0.0366106
-0.0360531
-0.0355198
-0.0350086
-0.0345174
-0.0340441
-0.0335866
-0.0331431
-0.0327117
-0.0322907
-0.0318785
-0.0314737
-0.0310749
-0.0306809
-0.0302907
-0.0299036
-0.0295187
-0.0291356
-0.028754
-0.0283738
-0.027995
-0.0276177
-0.0272421
-0.0268686
-0.0264974
-0.0261288
-0.025763
-0.0254
-0.0250398
-0.0246823
-0.0243272
-0.0239741
-0.0236226
-0.0232724
-0.0229232
-0.0225745
-0.0222263
-0.0218785
-0.0215311
-0.0211842
-0.0208382
-0.0204935
-0.0201503
-0.0198092
-0.0194707
-0.0191351
-0.0188031
-0.0184751
-0.0181514
-0.0178325
-0.0175186
-0.0172101
-0.0169071
-0.0166099
-0.0163185
-0.0160331
-0.0157537
-0.0154803
-0.0152129
-0.0149515
-0.0146959
-0.0144461
-0.014202
-0.0139634
-0.0137303
-0.0135025
-0.0132798
-0.0130621
-0.0128493
-0.0126412
-0.0124376
-0.0122383
-0.0120434
-0.0118525
-0.0116656
-0.0114824
-0.0113029
-0.011127
-0.0109545
-0.0107852
-0.0106191
-0.010456
-0.0102959
-0.0101385
-0.00998393
-0.00983193
-0.00968245
-0.0095354
-0.00939069
-0.00924823
-0.00910795
-0.00896977
-0.00883362
-0.00869942
-0.00856711
-0.00843662
-0.00830789
-0.00818087
-0.0080555
-0.00793172
-0.00780948
-0.00768873
-0.00756943
-0.00745153
-0.00733499
-0.00721976
-0.00710581
-0.0069931
-0.00688159
-0.00677125
-0.00666204
-0.00655394
-0.00644691
-0.00634092
-0.00623594
-0.00613195
-0.00602892
-0.00592682
-0.00582563
-0.00572533
-0.00562589
-0.00552729
-0.00542951
-0.00533252
-0.00523631
-0.00514086
-0.00504615
-0.00495216
-0.00485887
-0.00476627
-0.00467434
-0.00458306
-0.00449242
-0.0044024
-0.00431298
-0.00422416
-0.00413591
-0.00404822
-0.00396109
-0.00387448
-0.0037884
-0.00370282
-0.00361774
-0.00353314
-0.00344902
-0.00336535
-0.00328212
-0.00319933
-0.00311696
-0.003035
-0.00295344
-0.00287226
-0.00279146
-0.00271102
-0.00263094
-0.0025512
-0.0024718
-0.00239271
-0.00231393
-0.00223546
-0.00215727
-0.00207936
-0.00200173
-0.00192435
-0.00184722
-0.00177033
-0.00169368
-0.00161724
-0.00154101
-0.00146498
-0.00138914
-0.00131348
-0.00123799
-0.00116266
-0.00108747
-0.00101243
-0.000937522
-0.000862733
-0.000788056
-0.000713481
-0.000638998
-0.0005646
-0.000490267
-0.000416019
-0.00034175
-0.000267758
-0.000192858
-0.000120375
-3.47998e-05
3.3876
1.64688
1.79272
1.74568
1.87411
1.51554
-17.331
-63.3304
-9.95952
-4.3932
-3.25492
-2.26674
-0.518694
0.60671
1.03405
1.21533
1.37585
1.56298
1.80653
2.14513
2.582
3.05639
3.48665
3.82972
4.10139
4.35491
4.64985
5.04178
5.57017
6.2518
7.11739
8.31761
10.1256
11.8137
10.6913
9.58545
9.35827
9.71266
10.4186
10.6913
10.4554
10.6889
11.2127
11.5652
11.7826
12.181
12.7135
13.192
13.6013
14.0153
14.3833
14.6548
14.8668
15.0311
15.1279
15.1632
15.1448
15.074
14.9596
14.809
14.6246
14.4095
14.1671
13.9014
13.6172
13.3188
13.0097
12.6923
12.3683
12.0386
11.704
11.3655
11.024
10.6806
10.3366
9.99319
9.65169
9.31318
8.9787
8.64913
8.32527
8.00778
7.69722
7.39403
7.09857
6.81111
6.53181
6.26077
5.99805
5.74362
5.49743
5.2594
5.02942
4.80736
4.59309
4.38647
4.18734
3.99556
3.81099
3.63347
3.46286
3.299
3.14173
2.9909
2.84631
2.70781
2.5752
2.44829
2.32689
2.21081
2.09985
1.99382
1.89251
1.79574
1.70332
1.61506
1.53079
1.45033
1.3735
1.30015
1.2301
1.16319
1.09927
1.03818
0.979785
0.923922
0.870453
0.819239
0.770144
0.723039
0.677799
0.634306
0.59245
0.552126
0.513237
0.475695
0.439419
0.404334
0.370377
0.337487
0.305616
0.274719
0.244759
0.215705
0.187533
0.160223
0.133759
0.108131
0.0833331
0.0593605
0.0362131
0.0138926
-0.00759751
-0.028252
-0.048065
-0.0670296
-0.0851392
-0.102387
-0.118767
-0.134274
-0.148903
-0.162653
-0.175523
-0.187513
-0.198627
-0.20887
-0.21825
-0.226776
-0.234462
-0.241321
-0.247371
-0.252631
-0.257121
-0.260866
-0.263891
-0.266222
-0.267889
-0.268921
-0.269349
-0.269205
-0.268523
-0.267337
-0.265679
-0.263585
-0.261089
-0.258223
-0.255022
-0.251518
-0.247742
-0.243727
-0.2395
-0.235092
-0.230528
-0.225835
-0.221036
-0.216156
-0.211214
-0.20623
-0.201222
-0.196208
-0.191202
-0.186218
-0.181268
-0.176364
-0.171515
-0.166729
-0.162015
-0.157378
-0.152825
-0.14836
-0.143987
-0.13971
-0.135529
-0.131449
-0.12747
-0.123592
-0.119817
-0.116145
-0.112575
-0.109107
-0.10574
-0.102474
-0.099307
-0.0962382
-0.0932663
-0.0903898
-0.0876072
-0.0849171
-0.0823178
-0.0798078
-0.0773854
-0.075049
-0.0727969
-0.0706275
-0.0685392
-0.0665303
-0.0645992
-0.0627442
-0.0609637
-0.0592562
-0.0576198
-0.0560531
-0.0545542
-0.0531216
-0.0517535
-0.0504481
-0.0492038
-0.0480186
-0.0468908
-0.0458183
-0.0447993
-0.0438318
-0.0429136
-0.0420426
-0.0412167
-0.0404335
-0.0396909
-0.0389865
-0.0383179
-0.0376829
-0.037079
-0.0365038
-0.0359551
-0.0354305
-0.0349278
-0.0344448
-0.0339793
-0.0335294
-0.033093
-0.0326683
-0.0322535
-0.0318471
-0.0314474
-0.0310532
-0.0306633
-0.0302765
-0.029892
-0.0295091
-0.0291275
-0.0287467
-0.0283668
-0.0279879
-0.0276101
-0.0272339
-0.0268597
-0.0264879
-0.0261188
-0.0257529
-0.02539
-0.0250304
-0.0246736
-0.0243195
-0.0239675
-0.0236171
-0.0232679
-0.0229194
-0.0225713
-0.0222232
-0.0218752
-0.0215272
-0.0211795
-0.0208324
-0.0204862
-0.0201415
-0.0197988
-0.0194585
-0.0191213
-0.0187877
-0.0184581
-0.0181331
-0.0178129
-0.017498
-0.0171886
-0.0168849
-0.0165871
-0.0162954
-0.0160097
-0.0157302
-0.0154568
-0.0151896
-0.0149283
-0.0146731
-0.0144236
-0.01418
-0.0139419
-0.0137093
-0.013482
-0.0132599
-0.0130428
-0.0128306
-0.012623
-0.01242
-0.0122214
-0.012027
-0.0118367
-0.0116503
-0.0114677
-0.0112888
-0.0111133
-0.0109413
-0.0107725
-0.0106069
-0.0104443
-0.0102845
-0.0101276
-0.00997342
-0.0098218
-0.00967269
-0.00952599
-0.00938162
-0.00923948
-0.00909951
-0.00896163
-0.00882576
-0.00869183
-0.00855977
-0.00842953
-0.00830104
-0.00817425
-0.00804909
-0.00792552
-0.00780348
-0.00768292
-0.0075638
-0.00744608
-0.0073297
-0.00721463
-0.00710083
-0.00698827
-0.0068769
-0.00676669
-0.00665762
-0.00654964
-0.00644273
-0.00633685
-0.00623199
-0.0061281
-0.00602518
-0.00592318
-0.00582208
-0.00572187
-0.00562252
-0.00552401
-0.00542631
-0.0053294
-0.00523327
-0.0051379
-0.00504326
-0.00494934
-0.00485612
-0.00476359
-0.00467172
-0.00458051
-0.00448993
-0.00439997
-0.00431061
-0.00422185
-0.00413366
-0.00404603
-0.00395895
-0.0038724
-0.00378637
-0.00370084
-0.00361581
-0.00353126
-0.00344719
-0.00336356
-0.00328039
-0.00319764
-0.00311532
-0.0030334
-0.00295188
-0.00287075
-0.00279
-0.00270961
-0.00262957
-0.00254987
-0.00247051
-0.00239146
-0.00231273
-0.0022343
-0.00215615
-0.00207828
-0.00200069
-0.00192335
-0.00184627
-0.00176942
-0.0016928
-0.0016164
-0.00154021
-0.00146422
-0.00138842
-0.0013128
-0.00123735
-0.00116206
-0.00108691
-0.00101191
-0.000937038
-0.000862288
-0.00078765
-0.000713113
-0.000638668
-0.000564307
-0.000490013
-0.000415803
-0.000341572
-0.000267619
-0.000192758
-0.000120312
-3.47828e-05
2.77687
1.60404
1.76973
1.77306
1.79422
1.6893
-16.5919
-54.1047
1.42866
-1.76366
1.52713
2.73216
1.22198
0.33916
0.399388
0.841796
1.45635
2.19448
2.93775
3.58773
4.05294
4.18206
3.91383
3.37256
2.78572
2.35557
2.19472
2.36059
2.90693
3.87807
5.39854
7.79127
12.1937
15.8278
9.87866
7.40474
6.78102
6.85733
8.06802
8.60812
7.80103
8.09226
9.10087
9.64193
9.64761
10.135
10.9237
11.5247
11.9825
12.5491
13.0644
13.4053
13.6932
13.9491
14.1134
14.2092
14.2478
14.2234
14.1554
14.053
13.9147
13.7426
13.5393
13.3093
13.0591
12.7941
12.5182
12.2339
11.942
11.643
11.3372
11.025
10.7076
10.386
10.0618
9.73658
9.41171
9.08853
8.76823
8.45183
8.14022
7.83416
7.53429
7.24112
6.95507
6.67644
6.40544
6.14221
5.8868
5.63922
5.39944
5.16738
4.94296
4.72606
4.51658
4.31439
4.11936
3.93138
3.75033
3.57609
3.40852
3.24752
3.09293
2.94461
2.80241
2.66617
2.5357
2.41083
2.29137
2.17713
2.06793
1.96356
1.86385
1.76859
1.67762
1.59073
1.50777
1.42855
1.35292
1.28069
1.21173
1.14586
1.08294
1.02281
0.965324
0.910337
0.857706
0.807289
0.758952
0.712564
0.668
0.625141
0.583876
0.544099
0.505714
0.468633
0.432774
0.398066
0.364445
0.331853
0.300241
0.269569
0.239801
0.210909
0.18287
0.155666
0.129287
0.103722
0.0789691
0.0550261
0.0318949
0.0095798
-0.0119134
-0.0325775
-0.0524042
-0.0713848
-0.0895107
-0.106773
-0.123165
-0.138679
-0.153309
-0.167053
-0.179908
-0.191875
-0.202956
-0.213156
-0.222482
-0.230944
-0.238555
-0.245329
-0.251283
-0.256437
-0.260813
-0.264434
-0.267327
-0.269519
-0.27104
-0.27192
-0.272192
-0.271888
-0.271044
-0.269693
-0.26787
-0.265611
-0.26295
-0.259923
-0.256563
-0.252903
-0.248978
-0.244816
-0.24045
-0.235908
-0.231218
-0.226405
-0.221494
-0.216507
-0.211467
-0.206392
-0.201301
-0.196209
-0.191133
-0.186086
-0.181079
-0.176124
-0.171229
-0.166404
-0.161655
-0.156989
-0.15241
-0.147923
-0.143533
-0.13924
-0.135049
-0.13096
-0.126974
-0.123092
-0.119315
-0.115642
-0.112073
-0.108608
-0.105244
-0.101983
-0.0988208
-0.0957579
-0.0927923
-0.0899226
-0.0871473
-0.0844646
-0.081873
-0.0793708
-0.0769563
-0.0746279
-0.0723839
-0.0702227
-0.0681425
-0.0661418
-0.0642189
-0.0623721
-0.0605999
-0.0589006
-0.0572727
-0.0557143
-0.054224
-0.0528001
-0.0514408
-0.0501444
-0.0489092
-0.0477334
-0.0466152
-0.0455526
-0.0445437
-0.0435864
-0.0426788
-0.0418186
-0.0410037
-0.0402317
-0.0395004
-0.0388074
-0.0381504
-0.0375268
-0.0369343
-0.0363705
-0.0358329
-0.0353193
-0.0348272
-0.0343545
-0.033899
-0.0334585
-0.0330311
-0.0326149
-0.032208
-0.0318088
-0.0314158
-0.0310274
-0.0306424
-0.0302599
-0.0298788
-0.0294984
-0.0291185
-0.0287386
-0.0283589
-0.0279795
-0.0276009
-0.0272236
-0.0268482
-0.0264754
-0.0261056
-0.0257394
-0.0253768
-0.0250178
-0.0246622
-0.0243096
-0.0239594
-0.0236108
-0.0232631
-0.0229159
-0.0225686
-0.0222209
-0.0218726
-0.0215239
-0.021175
-0.0208262
-0.0204781
-0.0201313
-0.0197862
-0.0194437
-0.0191042
-0.0187684
-0.0184369
-0.01811
-0.0177882
-0.0174719
-0.0171614
-0.0168568
-0.0165583
-0.0162661
-0.0159802
-0.0157005
-0.0154272
-0.0151601
-0.0148992
-0.0146443
-0.0143954
-0.0141523
-0.0139148
-0.0136829
-0.0134563
-0.0132349
-0.0130186
-0.0128071
-0.0126003
-0.012398
-0.0122002
-0.0120065
-0.0118169
-0.0116312
-0.0114493
-0.0112711
-0.0110963
-0.0109249
-0.0107567
-0.0105916
-0.0104296
-0.0102704
-0.010114
-0.00996028
-0.00980915
-0.00966049
-0.00951423
-0.00937028
-0.00922855
-0.00908896
-0.00895145
-0.00881593
-0.00868234
-0.00855061
-0.00842068
-0.00829248
-0.00816597
-0.00804108
-0.00791777
-0.00779597
-0.00767565
-0.00755676
-0.00743925
-0.00732308
-0.00720821
-0.0070946
-0.00698222
-0.00687103
-0.00676099
-0.00665208
-0.00654425
-0.00643749
-0.00633176
-0.00622704
-0.00612329
-0.00602049
-0.00591861
-0.00581764
-0.00571754
-0.0056183
-0.00551989
-0.0054223
-0.0053255
-0.00522947
-0.00513419
-0.00503964
-0.00494581
-0.00485268
-0.00476023
-0.00466845
-0.00457731
-0.00448681
-0.00439693
-0.00430765
-0.00421896
-0.00413084
-0.00404328
-0.00395626
-0.00386978
-0.00378382
-0.00369836
-0.00361339
-0.00352891
-0.00344489
-0.00336133
-0.00327821
-0.00319553
-0.00311326
-0.0030314
-0.00294994
-0.00286886
-0.00278816
-0.00270783
-0.00262784
-0.0025482
-0.00246889
-0.0023899
-0.00231122
-0.00223284
-0.00215474
-0.00207693
-0.00199939
-0.0019221
-0.00184506
-0.00176827
-0.0016917
-0.00161535
-0.00153921
-0.00146327
-0.00138752
-0.00131195
-0.00123654
-0.0011613
-0.00108621
-0.00101125
-0.000936429
-0.000861727
-0.000787137
-0.000712648
-0.00063825
-0.000563937
-0.000489691
-0.000415529
-0.000341346
-0.000267441
-0.000192628
-0.000120229
-3.47585e-05
2.90303
1.74768
1.73676
1.71226
1.72867
1.3913
0.0171315
-2.91119
-1.80925
1.24103
0.941326
0.553647
0.282938
0.138958
0.0490216
0.0495482
0.136137
0.250003
0.3605
0.469839
0.564396
0.611779
0.615362
0.604463
0.59444
0.587949
0.588346
0.599484
0.636627
0.764708
1.08435
2.13567
6.87728
16.6501
2.86466
0.885255
2.50432
5.3232
9.87536
9.09844
5.5977
5.83885
7.03086
7.57902
6.91952
7.4368
8.76873
9.63002
10.0107
10.8028
11.5161
11.8584
12.2369
12.6437
12.8917
13.0657
13.1756
13.1985
13.1872
13.1476
13.0669
12.9473
12.7895
12.6002
12.3892
12.1636
11.9282
11.6846
11.4327
11.1716
10.9008
10.6205
10.3318
10.0361
9.7354
9.43153
9.12628
8.82121
8.5177
8.21689
7.91981
7.62731
7.34014
7.05888
6.78403
6.51594
6.25486
6.00094
5.75428
5.51489
5.28276
5.05784
4.84005
4.62931
4.42553
4.2286
4.03845
3.85498
3.67809
3.50772
3.34377
3.18614
3.03472
2.88939
2.75002
2.61646
2.48854
2.3661
2.24895
2.13692
2.02981
1.92744
1.82963
1.73618
1.64692
1.56168
1.48028
1.40255
1.32833
1.25746
1.18979
1.12516
1.06343
1.00445
0.948058
0.894122
0.842495
0.793037
0.745612
0.700087
0.656336
0.614239
0.573683
0.534563
0.496783
0.460253
0.424895
0.390636
0.357414
0.325174
0.29387
0.263463
0.23392
0.205216
0.177331
0.15025
0.123966
0.0984718
0.0737673
0.0498543
0.0267374
0.00442374
-0.0170782
-0.0377583
-0.057606
-0.07661
-0.0947593
-0.112043
-0.128452
-0.143977
-0.158612
-0.17235
-0.18519
-0.19713
-0.208173
-0.218321
-0.227583
-0.235969
-0.243489
-0.25016
-0.255999
-0.261025
-0.265262
-0.268733
-0.271466
-0.27349
-0.274833
-0.27553
-0.275612
-0.275114
-0.274072
-0.272521
-0.270498
-0.268038
-0.265179
-0.261956
-0.258403
-0.254557
-0.250449
-0.246112
-0.241577
-0.236874
-0.232031
-0.227073
-0.222026
-0.216913
-0.211755
-0.206571
-0.201379
-0.196196
-0.191036
-0.185914
-0.180839
-0.175823
-0.170875
-0.166003
-0.161213
-0.156511
-0.151903
-0.147391
-0.142979
-0.13867
-0.134466
-0.130367
-0.126374
-0.122488
-0.118709
-0.115036
-0.111469
-0.108006