/*--------------------------------*- C++ -*----------------------------------*\
| =========                 |                                                 |
| \\      /  F ield         | OpenFOAM: The Open Source CFD Toolbox           |
|  \\    /   O peration     | Version:  v2006                                 |
|   \\  /    A nd           | Website:  www.openfoam.com                      |
|    \\/     M anipulation  |                                                 |
\*---------------------------------------------------------------------------*/
FoamFile
{
    version     2.0;
    format      ascii;
    class       volVectorField;
    location    "17.2";
    object      U;
}
// * * * * * * * * * * * * * * * * * * * * * * * * * * * * * * * * * * * * * //

dimensions      [0 1 -1 0 0 0 0];


internalField   nonuniform List<vector> 
50000
(
(-0.00170019 0.00121011 0)
(-0.00240536 -0.000333805 0)
(-0.00213672 -0.000576113 0)
(-0.00241454 -0.000375335 0)
(-0.00300448 -0.00011087 0)
(-0.00392803 7.60206e-05 0)
(-0.00498594 0.000177484 0)
(-0.00610544 0.000223822 0)
(-0.00726724 0.000244655 0)
(-0.00847114 0.000260205 0)
(-0.0097181 0.000278807 0)
(-0.0110098 0.000301164 0)
(-0.0123464 0.000325437 0)
(-0.0137256 0.000350028 0)
(-0.0151439 0.000373758 0)
(-0.0165968 0.000395915 0)
(-0.0180791 0.00041651 0)
(-0.0195862 0.000435276 0)
(-0.021112 0.000453009 0)
(-0.0226503 0.000469426 0)
(-0.0241953 0.000484325 0)
(-0.0257405 0.000497747 0)
(-0.0272804 0.00051023 0)
(-0.0288087 0.000522877 0)
(-0.0303176 0.000535238 0)
(-0.0318046 0.000546782 0)
(-0.0332669 0.000559253 0)
(-0.0346975 0.000574102 0)
(-0.036094 0.000591571 0)
(-0.037456 0.000613244 0)
(-0.0387795 0.000641588 0)
(-0.0400662 0.000678444 0)
(-0.0413176 0.000727772 0)
(-0.0425399 0.000793522 0)
(-0.0437445 0.000883375 0)
(-0.0449455 0.0010021 0)
(-0.0461632 0.00115338 0)
(-0.0474167 0.00134048 0)
(-0.0487311 0.00155883 0)
(-0.0501375 0.00178064 0)
(-0.051624 0.00196276 0)
(-0.0531634 0.00208185 0)
(-0.0547345 0.00214862 0)
(-0.0563152 0.00217269 0)
(-0.0578827 0.00215429 0)
(-0.0594114 0.00209109 0)
(-0.0608736 0.00198826 0)
(-0.062243 0.00185396 0)
(-0.0634966 0.00168888 0)
(-0.0646037 0.00149064 0)
(-0.0655252 0.00125203 0)
(-0.0662394 0.00097591 0)
(-0.0667221 0.00069629 0)
(-0.0669688 0.00044129 0)
(-0.0670165 0.000231256 0)
(-0.0668941 5.97236e-05 0)
(-0.0666244 -8.27256e-05 0)
(-0.0662154 -0.000208507 0)
(-0.0656811 -0.000326953 0)
(-0.0650319 -0.000439449 0)
(-0.0642717 -0.000548383 0)
(-0.0634065 -0.000651938 0)
(-0.0624376 -0.000747066 0)
(-0.0613741 -0.000838569 0)
(-0.0602192 -0.000923361 0)
(-0.0589783 -0.00100265 0)
(-0.0576612 -0.00107675 0)
(-0.0562709 -0.00114515 0)
(-0.0548111 -0.00120758 0)
(-0.0532828 -0.00126586 0)
(-0.0516939 -0.00131868 0)
(-0.0500516 -0.00136667 0)
(-0.0483586 -0.00140969 0)
(-0.0466165 -0.00144739 0)
(-0.0448308 -0.00148146 0)
(-0.0430081 -0.00151063 0)
(-0.0411507 -0.00153509 0)
(-0.039263 -0.00155473 0)
(-0.0373493 -0.0015693 0)
(-0.0354139 -0.00157836 0)
(-0.0334617 -0.00158153 0)
(-0.0314975 -0.00157835 0)
(-0.0295264 -0.00156878 0)
(-0.027555 -0.00155221 0)
(-0.0255892 -0.00152816 0)
(-0.0236353 -0.00149794 0)
(-0.0217008 -0.00146055 0)
(-0.0197927 -0.00141487 0)
(-0.0179181 -0.00136076 0)
(-0.016087 -0.00129796 0)
(-0.0143101 -0.00122455 0)
(-0.0125979 -0.00113833 0)
(-0.0109643 -0.00103712 0)
(-0.00942375 -0.000917425 0)
(-0.00800142 -0.000774932 0)
(-0.00672146 -0.000596144 0)
(-0.00561355 -0.000366835 0)
(-0.00472865 -7.4564e-05 0)
(-0.00412045 0.000271345 0)
(-0.0038288 0.000633621 0)
(-0.00386467 0.00095759 0)
(-0.00418738 0.00120258 0)
(-0.00472064 0.00136315 0)
(-0.00539332 0.00146129 0)
(-0.00614741 0.0015311 0)
(-0.00693176 0.00159518 0)
(-0.0077038 0.00165826 0)
(-0.00843031 0.00170305 0)
(-0.00906664 0.00169994 0)
(-0.00956885 0.00161682 0)
(-0.00987569 0.00143838 0)
(-0.0099399 0.0011568 0)
(-0.00973219 0.000831046 0)
(-0.00927041 0.000542107 0)
(-0.00862471 0.000336138 0)
(-0.00787632 0.000206583 0)
(-0.00708747 0.000122308 0)
(-0.00630555 5.34201e-05 0)
(-0.00555911 -1.64404e-05 0)
(-0.00485497 -9.73848e-05 0)
(-0.00419352 -0.000184872 0)
(-0.00358315 -0.00026926 0)
(-0.00302775 -0.000346136 0)
(-0.00252689 -0.000416347 0)
(-0.00207899 -0.000482061 0)
(-0.00168488 -0.000544139 0)
(-0.00134034 -0.00060165 0)
(-0.00104487 -0.000657126 0)
(-0.000798214 -0.000708803 0)
(-0.000591425 -0.000757601 0)
(-0.000427017 -0.000805011 0)
(-0.000303449 -0.000849286 0)
(-0.000214464 -0.000893022 0)
(-0.000159188 -0.000936873 0)
(-0.000133147 -0.000979713 0)
(-0.000130365 -0.00102068 0)
(-0.000145769 -0.00106081 0)
(-0.000174628 -0.0011012 0)
(-0.000210585 -0.00114155 0)
(-0.000247388 -0.00118097 0)
(-0.000279862 -0.00121869 0)
(-0.000302649 -0.001256 0)
(-0.000310803 -0.0012969 0)
(-0.000300166 -0.00134974 0)
(-0.000261381 -0.00141622 0)
(-0.000170602 -0.00149258 0)
(-7.32252e-05 -0.00155162 0)
(9.72175e-05 -0.00155991 0)
(0.000236886 -0.00138523 0)
(0.000378056 -0.000729567 0)
(-0.00178115 0.00444834 0)
(-0.0028564 0.000855024 0)
(-0.0030292 0.000672421 0)
(-0.00382957 0.00150022 0)
(-0.00501989 0.00223652 0)
(-0.00662218 0.00264215 0)
(-0.00836864 0.00282954 0)
(-0.010173 0.00293759 0)
(-0.0120261 0.00303393 0)
(-0.0139381 0.00313641 0)
(-0.01592 0.00324231 0)
(-0.0179766 0.0033457 0)
(-0.0201048 0.00344301 0)
(-0.0222984 0.00353266 0)
(-0.024551 0.00361222 0)
(-0.0268541 0.00367979 0)
(-0.0291983 0.00373509 0)
(-0.0315737 0.003776 0)
(-0.0339687 0.00380134 0)
(-0.0363721 0.00381089 0)
(-0.0387716 0.00380404 0)
(-0.0411542 0.00378109 0)
(-0.0435076 0.0037417 0)
(-0.0458201 0.0036867 0)
(-0.0480805 0.00361761 0)
(-0.0502781 0.0035349 0)
(-0.0524019 0.00344023 0)
(-0.0544413 0.0033337 0)
(-0.0563881 0.00321546 0)
(-0.0582329 0.00308798 0)
(-0.0599651 0.00295306 0)
(-0.061576 0.00281252 0)
(-0.0630557 0.00267204 0)
(-0.064394 0.00253836 0)
(-0.0655824 0.00241706 0)
(-0.0666123 0.00231427 0)
(-0.0674785 0.00223533 0)
(-0.0681787 0.00218888 0)
(-0.0687008 0.00217592 0)
(-0.0690341 0.00218322 0)
(-0.0692084 0.00219117 0)
(-0.0692593 0.00218995 0)
(-0.069213 0.00217404 0)
(-0.0690892 0.00213987 0)
(-0.0689068 0.00208229 0)
(-0.0686808 0.00199608 0)
(-0.0684186 0.00187601 0)
(-0.0681292 0.00171732 0)
(-0.0678192 0.00151386 0)
(-0.0674946 0.00126201 0)
(-0.0671596 0.000964971 0)
(-0.0668091 0.000636056 0)
(-0.066456 0.000298252 0)
(-0.0660986 -2.55202e-05 0)
(-0.0657033 -0.000323558 0)
(-0.0652519 -0.000592262 0)
(-0.0647324 -0.000838275 0)
(-0.0641409 -0.00106522 0)
(-0.0634791 -0.00128239 0)
(-0.0627532 -0.00148902 0)
(-0.0619659 -0.0016843 0)
(-0.0611149 -0.00186951 0)
(-0.0602067 -0.00204408 0)
(-0.0592469 -0.00221064 0)
(-0.0582287 -0.00236707 0)
(-0.0571586 -0.00251705 0)
(-0.0560412 -0.00265828 0)
(-0.0548755 -0.0027913 0)
(-0.0536654 -0.00291505 0)
(-0.0524078 -0.00303131 0)
(-0.0511059 -0.00314209 0)
(-0.0497657 -0.00324371 0)
(-0.0483864 -0.00333795 0)
(-0.046969 -0.00342374 0)
(-0.0455159 -0.00350358 0)
(-0.0440291 -0.00357602 0)
(-0.0425099 -0.00364161 0)
(-0.0409599 -0.00370031 0)
(-0.0393805 -0.00375196 0)
(-0.0377731 -0.00379621 0)
(-0.036139 -0.00383271 0)
(-0.0344798 -0.0038606 0)
(-0.0327966 -0.00387931 0)
(-0.0310915 -0.00388802 0)
(-0.0293685 -0.00388551 0)
(-0.0276297 -0.00387154 0)
(-0.0258763 -0.00384527 0)
(-0.0241126 -0.00380472 0)
(-0.0223431 -0.00374901 0)
(-0.0205714 -0.00367668 0)
(-0.0188015 -0.0035845 0)
(-0.0170378 -0.00346983 0)
(-0.0152849 -0.00332903 0)
(-0.0135457 -0.00315723 0)
(-0.0118243 -0.00294884 0)
(-0.0101238 -0.00268876 0)
(-0.00844218 -0.00236518 0)
(-0.00677273 -0.00196634 0)
(-0.00511149 -0.00149568 0)
(-0.00346313 -0.000979824 0)
(-0.00184159 -0.000468227 0)
(-0.00028015 -1.65026e-05 0)
(0.00119957 0.000330328 0)
(0.00261371 0.000545834 0)
(0.00399728 0.000625469 0)
(0.00539959 0.000580776 0)
(0.00687587 0.000430059 0)
(0.00846749 0.000188964 0)
(0.0101947 -0.000128261 0)
(0.0120541 -0.000509937 0)
(0.0140172 -0.000926258 0)
(0.0160431 -0.00135501 0)
(0.0180664 -0.00175149 0)
(0.0200356 -0.00206966 0)
(0.0219107 -0.00227313 0)
(0.0236695 -0.0023505 0)
(0.0252983 -0.00231474 0)
(0.0267906 -0.00219341 0)
(0.0281445 -0.00201768 0)
(0.0293556 -0.00181321 0)
(0.0304146 -0.00159328 0)
(0.03132 -0.00136701 0)
(0.0320767 -0.00113826 0)
(0.0326862 -0.000912686 0)
(0.0331466 -0.00069415 0)
(0.0334568 -0.000484294 0)
(0.0336167 -0.000283929 0)
(0.0336258 -9.47555e-05 0)
(0.0334842 8.28045e-05 0)
(0.033192 0.000249098 0)
(0.0327492 0.000406616 0)
(0.0321571 0.000557776 0)
(0.0314158 0.000700031 0)
(0.0305249 0.000831676 0)
(0.0294849 0.00095124 0)
(0.0282972 0.00105699 0)
(0.0269659 0.00114617 0)
(0.025498 0.00121773 0)
(0.0239003 0.00127165 0)
(0.022182 0.00130757 0)
(0.020354 0.00132597 0)
(0.018429 0.00132812 0)
(0.0164175 0.00131633 0)
(0.0143396 0.0012915 0)
(0.0121825 0.00126172 0)
(0.00999139 0.00122837 0)
(0.00767217 0.0012079 0)
(0.00541009 0.00113209 0)
(0.00305448 0.00104223 0)
(0.001324 0.00161714 0)
(-0.001867 0.00764381 0)
(-0.00285542 0.00142423 0)
(-0.00266354 0.000891618 0)
(-0.00294804 0.00235493 0)
(-0.00371181 0.00383446 0)
(-0.00501615 0.00472251 0)
(-0.0065717 0.0051218 0)
(-0.00821616 0.00530979 0)
(-0.00990165 0.00547138 0)
(-0.011635 0.00566417 0)
(-0.0134374 0.00588157 0)
(-0.0153245 0.00610325 0)
(-0.0172996 0.00631434 0)
(-0.0193585 0.00650766 0)
(-0.0214951 0.00667893 0)
(-0.0236967 0.0068247 0)
(-0.025954 0.00694343 0)
(-0.0282581 0.00703059 0)
(-0.0305949 0.00708351 0)
(-0.0329512 0.00710209 0)
(-0.0353127 0.00708536 0)
(-0.0376657 0.00703409 0)
(-0.0399992 0.00694903 0)
(-0.0422993 0.0068314 0)
(-0.0445544 0.00668292 0)
(-0.0467558 0.00650666 0)
(-0.0488955 0.00630381 0)
(-0.0509656 0.00607706 0)
(-0.052958 0.0058275 0)
(-0.0548688 0.00555733 0)
(-0.0566966 0.0052682 0)
(-0.0584381 0.00496149 0)
(-0.0600871 0.00464078 0)
(-0.0616446 0.00431128 0)
(-0.0631095 0.00398116 0)
(-0.0644766 0.0036608 0)
(-0.0657393 0.00335573 0)
(-0.0668917 0.00306512 0)
(-0.0679286 0.00278965 0)
(-0.0688373 0.00253815 0)
(-0.0696071 0.00231849 0)
(-0.0702452 0.00212845 0)
(-0.0707576 0.00195865 0)
(-0.0711403 0.00180144 0)
(-0.0713978 0.00164533 0)
(-0.0715399 0.00148108 0)
(-0.0715738 0.00130265 0)
(-0.0715083 0.00110532 0)
(-0.0713579 0.000886053 0)
(-0.0711352 0.000639628 0)
(-0.0708481 0.000365046 0)
(-0.0705126 6.391e-05 0)
(-0.0701351 -0.000264357 0)
(-0.0697105 -0.000611447 0)
(-0.0692307 -0.00096761 0)
(-0.0686922 -0.00131836 0)
(-0.068094 -0.00165561 0)
(-0.0674321 -0.00197518 0)
(-0.0667082 -0.00227892 0)
(-0.0659175 -0.0025677 0)
(-0.0650644 -0.00284192 0)
(-0.0641522 -0.00310312 0)
(-0.0631797 -0.00335444 0)
(-0.0621499 -0.00359315 0)
(-0.0610629 -0.00381989 0)
(-0.0599205 -0.00403788 0)
(-0.0587249 -0.00424502 0)
(-0.0574779 -0.00444227 0)
(-0.0561821 -0.00462912 0)
(-0.0548393 -0.00480502 0)
(-0.0534475 -0.00497298 0)
(-0.0520111 -0.00513087 0)
(-0.0505337 -0.00527894 0)
(-0.0490154 -0.00541751 0)
(-0.0474591 -0.00554681 0)
(-0.0458665 -0.00566696 0)
(-0.0442399 -0.00577819 0)
(-0.0425814 -0.00588062 0)
(-0.0408931 -0.00597426 0)
(-0.0391772 -0.00605873 0)
(-0.0374356 -0.00613347 0)
(-0.0356701 -0.00619765 0)
(-0.0338829 -0.00625024 0)
(-0.0320764 -0.00629064 0)
(-0.0302535 -0.00631758 0)
(-0.0284173 -0.00632783 0)
(-0.0265696 -0.00632322 0)
(-0.0247125 -0.00630071 0)
(-0.0228495 -0.00625935 0)
(-0.0209828 -0.00619714 0)
(-0.0191154 -0.00611179 0)
(-0.0172492 -0.00600161 0)
(-0.0153858 -0.00586385 0)
(-0.0135267 -0.00569501 0)
(-0.0116712 -0.00549261 0)
(-0.00981777 -0.00525158 0)
(-0.0079597 -0.00497142 0)
(-0.00608088 -0.00464494 0)
(-0.00416276 -0.0042685 0)
(-0.00218921 -0.00384935 0)
(-0.00015119 -0.00341197 0)
(0.00194589 -0.00299903 0)
(0.00408265 -0.00266066 0)
(0.00623151 -0.00244002 0)
(0.00836173 -0.00235924 0)
(0.0104444 -0.0024163 0)
(0.0124522 -0.00259407 0)
(0.0143579 -0.00286818 0)
(0.0161375 -0.00321357 0)
(0.0177687 -0.00360139 0)
(0.0192311 -0.00399543 0)
(0.0205098 -0.0043492 0)
(0.0216034 -0.00460214 0)
(0.0225288 -0.00470008 0)
(0.0233137 -0.00462792 0)
(0.0239914 -0.00442176 0)
(0.0245962 -0.00413762 0)
(0.0251545 -0.00382048 0)
(0.0256778 -0.00349617 0)
(0.0261756 -0.00317223 0)
(0.026653 -0.00284917 0)
(0.02711 -0.0025266 0)
(0.0275451 -0.00220323 0)
(0.0279519 -0.00187541 0)
(0.0283255 -0.00153897 0)
(0.0286553 -0.00119298 0)
(0.0289272 -0.000840412 0)
(0.0291301 -0.000485365 0)
(0.0292548 -0.000130185 0)
(0.0292939 0.000225529 0)
(0.029235 0.000584189 0)
(0.0290667 0.000946612 0)
(0.0287821 0.00131156 0)
(0.02837 0.0016775 0)
(0.0278186 0.00204109 0)
(0.0271173 0.00239808 0)
(0.0262565 0.00274424 0)
(0.0252287 0.00307438 0)
(0.024027 0.00338426 0)
(0.0226475 0.00366948 0)
(0.0210912 0.00392539 0)
(0.0193606 0.00414863 0)
(0.0174597 0.00433872 0)
(0.0154076 0.00449445 0)
(0.0131979 0.00461999 0)
(0.0108836 0.00471715 0)
(0.00837258 0.00482438 0)
(0.00590656 0.0047677 0)
(0.00344263 0.00435698 0)
(0.00169911 0.00524369 0)
(-0.00192618 0.0109038 0)
(-0.00282576 0.00187385 0)
(-0.00247125 0.000827058 0)
(-0.00245848 0.00281309 0)
(-0.00289264 0.00504498 0)
(-0.00388389 0.00649244 0)
(-0.005189 0.00717807 0)
(-0.00663228 0.00747422 0)
(-0.00812956 0.00768797 0)
(-0.00967003 0.00794929 0)
(-0.0112697 0.00826669 0)
(-0.0129491 0.00860751 0)
(-0.0147187 0.0089414 0)
(-0.0165785 0.00925082 0)
(-0.0185248 0.00952798 0)
(-0.020546 0.00976863 0)
(-0.0226349 0.00996631 0)
(-0.0247848 0.010117 0)
(-0.0269802 0.0102179 0)
(-0.0292097 0.0102652 0)
(-0.0314606 0.0102612 0)
(-0.0337186 0.0102034 0)
(-0.0359721 0.0100941 0)
(-0.0382096 0.00994 0)
(-0.040418 0.00974077 0)
(-0.0425889 0.00950137 0)
(-0.0447138 0.00922556 0)
(-0.0467829 0.00891805 0)
(-0.04879 0.00858355 0)
(-0.050729 0.00822571 0)
(-0.0525966 0.00784973 0)
(-0.0543901 0.00746181 0)
(-0.0561064 0.00706721 0)
(-0.0577449 0.00666926 0)
(-0.0593041 0.00627573 0)
(-0.0607804 0.00588925 0)
(-0.0621691 0.00551288 0)
(-0.063465 0.00514558 0)
(-0.0646664 0.00478596 0)
(-0.0657707 0.00443307 0)
(-0.0667693 0.00408134 0)
(-0.0676557 0.0037226 0)
(-0.0684268 0.00335667 0)
(-0.0690815 0.00298105 0)
(-0.0696194 0.00259221 0)
(-0.0700382 0.0021926 0)
(-0.0703399 0.00178519 0)
(-0.0705286 0.00137014 0)
(-0.0706085 0.00094827 0)
(-0.0705858 0.000520596 0)
(-0.0704679 8.67185e-05 0)
(-0.0702638 -0.000355819 0)
(-0.0699821 -0.000800664 0)
(-0.0696281 -0.00124547 0)
(-0.0692049 -0.00168516 0)
(-0.0687138 -0.0021194 0)
(-0.0681534 -0.00254164 0)
(-0.0675226 -0.00295179 0)
(-0.0668208 -0.00334669 0)
(-0.0660466 -0.00372627 0)
(-0.0652014 -0.00409432 0)
(-0.0642864 -0.00444824 0)
(-0.0633028 -0.00478676 0)
(-0.0622523 -0.00511222 0)
(-0.0611372 -0.0054243 0)
(-0.0599603 -0.00572333 0)
(-0.0587232 -0.00600909 0)
(-0.0574282 -0.00628207 0)
(-0.0560777 -0.00654196 0)
(-0.0546743 -0.00678847 0)
(-0.0532201 -0.00702144 0)
(-0.0517178 -0.00724276 0)
(-0.0501706 -0.00745069 0)
(-0.0485807 -0.00764618 0)
(-0.0469509 -0.00782893 0)
(-0.0452844 -0.00799889 0)
(-0.0435839 -0.00815593 0)
(-0.0418526 -0.00830026 0)
(-0.0400935 -0.00843171 0)
(-0.0383096 -0.00855004 0)
(-0.0365046 -0.00865442 0)
(-0.0346818 -0.0087444 0)
(-0.0328443 -0.00881924 0)
(-0.0309951 -0.00887776 0)
(-0.0291355 -0.00891895 0)
(-0.0272712 -0.00894138 0)
(-0.0254037 -0.00894379 0)
(-0.0235331 -0.00892512 0)
(-0.0216641 -0.00888447 0)
(-0.0197974 -0.00882044 0)
(-0.0179357 -0.00872985 0)
(-0.0160809 -0.00861333 0)
(-0.0142324 -0.00846824 0)
(-0.0123903 -0.00829247 0)
(-0.0105518 -0.00808384 0)
(-0.00871851 -0.00784081 0)
(-0.00688613 -0.00756338 0)
(-0.00504499 -0.00725288 0)
(-0.00319103 -0.00691583 0)
(-0.00131515 -0.00656253 0)
(0.000590279 -0.00620904 0)
(0.00252471 -0.00587586 0)
(0.00447434 -0.00558336 0)
(0.00641301 -0.00534671 0)
(0.0083071 -0.00517207 0)
(0.0101194 -0.00505449 0)
(0.0118192 -0.00498287 0)
(0.0133803 -0.0049406 0)
(0.0147825 -0.00490927 0)
(0.0160123 -0.00487605 0)
(0.0170579 -0.00482994 0)
(0.0179182 -0.00476523 0)
(0.0186064 -0.00467476 0)
(0.0191548 -0.00455601 0)
(0.0196054 -0.0044057 0)
(0.0199932 -0.00422115 0)
(0.0203395 -0.00400433 0)
(0.0206499 -0.00375999 0)
(0.0209227 -0.00349452 0)
(0.0211519 -0.00321603 0)
(0.0213347 -0.00292829 0)
(0.0214724 -0.00263235 0)
(0.0215641 -0.00232674 0)
(0.0216111 -0.00200631 0)
(0.0216157 -0.00166862 0)
(0.021581 -0.00131344 0)
(0.0215091 -0.000937872 0)
(0.0214006 -0.000542026 0)
(0.0212558 -0.000127802 0)
(0.0210746 0.00030188 0)
(0.0208539 0.000745738 0)
(0.0205885 0.00120735 0)
(0.0202735 0.00168507 0)
(0.0199025 0.00217917 0)
(0.0194687 0.00268858 0)
(0.0189635 0.00321033 0)
(0.0183765 0.0037393 0)
(0.0176967 0.0042696 0)
(0.0169117 0.00479429 0)
(0.0160102 0.00530701 0)
(0.0149843 0.00579833 0)
(0.0138278 0.00625963 0)
(0.0125348 0.00668377 0)
(0.0111136 0.00706613 0)
(0.00953389 0.00741404 0)
(0.00784239 0.00773811 0)
(0.00591222 0.00799242 0)
(0.0041774 0.00774588 0)
(0.00261992 0.00684687 0)
(0.00164391 0.00856184 0)
(-0.00198555 0.0142016 0)
(-0.00291649 0.00219789 0)
(-0.00248627 0.000503983 0)
(-0.00228816 0.00292413 0)
(-0.0025295 0.0058869 0)
(-0.00335563 0.0079361 0)
(-0.00454452 0.0089704 0)
(-0.00591733 0.00942285 0)
(-0.00736693 0.00970981 0)
(-0.00886248 0.0100399 0)
(-0.0104136 0.0104513 0)
(-0.0120419 0.0109076 0)
(-0.0137628 0.0113664 0)
(-0.0155802 0.0118004 0)
(-0.0174905 0.0121947 0)
(-0.0194865 0.0125425 0)
(-0.02156 0.0128341 0)
(-0.0237005 0.0130636 0)
(-0.0258977 0.0132267 0)
(-0.0281357 0.0133201 0)
(-0.0304028 0.0133436 0)
(-0.0326889 0.0132969 0)
(-0.0349734 0.0131805 0)
(-0.0372477 0.0130027 0)
(-0.0395028 0.0127646 0)
(-0.041725 0.0124718 0)
(-0.0439067 0.0121299 0)
(-0.0460391 0.011744 0)
(-0.0481149 0.0113197 0)
(-0.050128 0.010862 0)
(-0.0520725 0.0103758 0)
(-0.0539434 0.00986656 0)
(-0.0557354 0.00934023 0)
(-0.0574426 0.00880135 0)
(-0.0590611 0.00825498 0)
(-0.0605866 0.00770539 0)
(-0.0620111 0.00715654 0)
(-0.0633302 0.00661009 0)
(-0.0645391 0.00606936 0)
(-0.0656337 0.00553643 0)
(-0.0666144 0.00501386 0)
(-0.0674801 0.0045023 0)
(-0.0682272 0.00400059 0)
(-0.0688589 0.00350666 0)
(-0.0693803 0.00301606 0)
(-0.0697949 0.00252318 0)
(-0.0701085 0.00202327 0)
(-0.0703227 0.00151453 0)
(-0.0704387 0.000995616 0)
(-0.0704583 0.000467087 0)
(-0.0703834 -7.03218e-05 0)
(-0.0702171 -0.000614687 0)
(-0.0699627 -0.00116338 0)
(-0.0696254 -0.00171246 0)
(-0.0692091 -0.00225801 0)
(-0.0687151 -0.00279613 0)
(-0.0681454 -0.00332345 0)
(-0.0675006 -0.00383783 0)
(-0.0667806 -0.00433747 0)
(-0.0659886 -0.00482153 0)
(-0.0651248 -0.00529008 0)
(-0.0641856 -0.00574198 0)
(-0.0631768 -0.00617782 0)
(-0.0621035 -0.00659721 0)
(-0.0609636 -0.00700075 0)
(-0.0597596 -0.00738815 0)
(-0.0584947 -0.00775815 0)
(-0.0571713 -0.00811181 0)
(-0.0557919 -0.00844876 0)
(-0.0543595 -0.00876902 0)
(-0.0528762 -0.00907234 0)
(-0.0513452 -0.00935885 0)
(-0.0497698 -0.00962831 0)
(-0.0481529 -0.00988076 0)
(-0.046497 -0.0101165 0)
(-0.0448051 -0.0103345 0)
(-0.0430811 -0.0105352 0)
(-0.0413283 -0.0107183 0)
(-0.03955 -0.0108839 0)
(-0.0377491 -0.0110314 0)
(-0.0359293 -0.0111603 0)
(-0.034094 -0.0112703 0)
(-0.0322459 -0.0113607 0)
(-0.0303882 -0.0114303 0)
(-0.0285238 -0.0114779 0)
(-0.0266557 -0.0115044 0)
(-0.0247858 -0.0115061 0)
(-0.0229165 -0.0114839 0)
(-0.0210503 -0.0114361 0)
(-0.019186 -0.0113623 0)
(-0.0173291 -0.0112617 0)
(-0.0154816 -0.0111331 0)
(-0.0136404 -0.0109752 0)
(-0.0118074 -0.0107873 0)
(-0.00998143 -0.0105687 0)
(-0.00816315 -0.0103212 0)
(-0.00635056 -0.0100431 0)
(-0.0045408 -0.00973841 0)
(-0.00273248 -0.00941158 0)
(-0.000923566 -0.00906907 0)
(0.000884346 -0.00872111 0)
(0.0026852 -0.00837941 0)
(0.00446771 -0.00805637 0)
(0.00621503 -0.00776155 0)
(0.00790813 -0.0075008 0)
(0.00952656 -0.00727583 0)
(0.0110528 -0.00708431 0)
(0.0124764 -0.00692141 0)
(0.0137879 -0.00677782 0)
(0.0149832 -0.00664586 0)
(0.0160611 -0.00651211 0)
(0.0170231 -0.00636097 0)
(0.017872 -0.00617564 0)
(0.0186099 -0.0059425 0)
(0.0192411 -0.00565563 0)
(0.0197672 -0.00531767 0)
(0.0201932 -0.00493842 0)
(0.0205259 -0.00453099 0)
(0.0207644 -0.00410389 0)
(0.0209124 -0.00366758 0)
(0.0209706 -0.0032256 0)
(0.0209362 -0.00278193 0)
(0.0208155 -0.00234013 0)
(0.0206119 -0.00189861 0)
(0.0203301 -0.00145726 0)
(0.0199791 -0.00101313 0)
(0.0195669 -0.00056334 0)
(0.0190988 -0.000105948 0)
(0.0185801 0.000360205 0)
(0.0180184 0.000836104 0)
(0.0174213 0.00132241 0)
(0.0167921 0.00182188 0)
(0.0161368 0.00233682 0)
(0.0154602 0.00287135 0)
(0.014762 0.00342642 0)
(0.014043 0.00400129 0)
(0.0133038 0.00459375 0)
(0.0125415 0.00520007 0)
(0.0117508 0.00581454 0)
(0.0109273 0.00643027 0)
(0.0100639 0.00703709 0)
(0.00915461 0.00762275 0)
(0.00819558 0.0081775 0)
(0.0071833 0.00870826 0)
(0.00607623 0.00923873 0)
(0.00490033 0.00975649 0)
(0.00356618 0.00998531 0)
(0.00260766 0.00930099 0)
(0.00188184 0.00801011 0)
(0.00147096 0.01112 0)
(-0.00205605 0.017635 0)
(-0.00307961 0.00254954 0)
(-0.00258672 3.78268e-05 0)
(-0.00216957 0.00281475 0)
(-0.00217552 0.00653727 0)
(-0.00283295 0.00927321 0)
(-0.00394474 0.0107299 0)
(-0.00530364 0.01138 0)
(-0.00676302 0.0117548 0)
(-0.00827138 0.0121544 0)
(-0.00983567 0.0126594 0)
(-0.011483 0.0132374 0)
(-0.0132334 0.0138319 0)
(-0.0150961 0.0144039 0)
(-0.0170681 0.0149303 0)
(-0.0191405 0.0153966 0)
(-0.0213042 0.0157932 0)
(-0.0235445 0.0161126 0)
(-0.025844 0.016346 0)
(-0.0281872 0.0164901 0)
(-0.0305605 0.0165429 0)
(-0.0329511 0.0165079 0)
(-0.035337 0.0163879 0)
(-0.0377073 0.0161871 0)
(-0.0400527 0.0159118 0)
(-0.0423585 0.0155675 0)
(-0.0446161 0.0151623 0)
(-0.0468154 0.0147023 0)
(-0.0489493 0.0141951 0)
(-0.0510113 0.0136476 0)
(-0.0529957 0.0130666 0)
(-0.0548958 0.0124587 0)
(-0.0567069 0.0118299 0)
(-0.0584265 0.0111854 0)
(-0.0600501 0.0105292 0)
(-0.0615732 0.00986735 0)
(-0.0629934 0.00920211 0)
(-0.064307 0.0085343 0)
(-0.0655128 0.00786548 0)
(-0.0666102 0.00719834 0)
(-0.0675943 0.00653 0)
(-0.0684651 0.00586119 0)
(-0.0692219 0.00519096 0)
(-0.0698638 0.00451678 0)
(-0.0703917 0.00383868 0)
(-0.0708053 0.00315756 0)
(-0.0711052 0.00247511 0)
(-0.0712963 0.00179163 0)
(-0.0713834 0.00110825 0)
(-0.0713712 0.000426879 0)
(-0.0712649 -0.000252751 0)
(-0.0710691 -0.000929561 0)
(-0.0707877 -0.00160177 0)
(-0.0704228 -0.00226691 0)
(-0.069977 -0.00292326 0)
(-0.0694522 -0.00356826 0)
(-0.0688499 -0.00420031 0)
(-0.0681716 -0.00481744 0)
(-0.0674184 -0.00541895 0)
(-0.0665915 -0.00600359 0)
(-0.0656919 -0.00656944 0)
(-0.0647213 -0.00711669 0)
(-0.0636821 -0.00764717 0)
(-0.0625764 -0.00815784 0)
(-0.0614063 -0.00864872 0)
(-0.0601725 -0.00912001 0)
(-0.0588785 -0.00957165 0)
(-0.0575278 -0.0100029 0)
(-0.0561219 -0.0104142 0)
(-0.0546637 -0.0108049 0)
(-0.0531558 -0.0111747 0)
(-0.0516012 -0.0115238 0)
(-0.0500032 -0.011852 0)
(-0.048365 -0.0121589 0)
(-0.0466882 -0.0124442 0)
(-0.0449762 -0.0127081 0)
(-0.0432335 -0.0129503 0)
(-0.0414623 -0.0131706 0)
(-0.0396655 -0.0133688 0)
(-0.0378461 -0.0135438 0)
(-0.0360081 -0.0136961 0)
(-0.0341546 -0.0138251 0)
(-0.0322876 -0.01393 0)
(-0.0304094 -0.0140106 0)
(-0.0285241 -0.0140661 0)
(-0.0266337 -0.0140959 0)
(-0.0247393 -0.0140993 0)
(-0.0228434 -0.014076 0)
(-0.0209485 -0.0140247 0)
(-0.0190565 -0.0139449 0)
(-0.0171686 -0.0138376 0)
(-0.0152858 -0.0136995 0)
(-0.0134086 -0.0135315 0)
(-0.0115381 -0.0133329 0)
(-0.00967511 -0.0131036 0)
(-0.00781997 -0.012845 0)
(-0.00597223 -0.0125573 0)
(-0.00413144 -0.0122437 0)
(-0.00229853 -0.0119072 0)
(-0.000475266 -0.011553 0)
(0.00133556 -0.0111879 0)
(0.00312906 -0.0108189 0)
(0.0048969 -0.0104523 0)
(0.00662875 -0.010094 0)
(0.00831186 -0.00974604 0)
(0.0099318 -0.00940963 0)
(0.0114769 -0.00908072 0)
(0.0129376 -0.00875355 0)
(0.0143007 -0.00842489 0)
(0.0155565 -0.00808686 0)
(0.0166979 -0.00773563 0)
(0.0177185 -0.00736502 0)
(0.0186166 -0.00697188 0)
(0.019396 -0.00655449 0)
(0.0200644 -0.00611162 0)
(0.0206271 -0.00564339 0)
(0.0210876 -0.00515256 0)
(0.0214519 -0.00464194 0)
(0.0217203 -0.00411697 0)
(0.0218908 -0.00357951 0)
(0.0219659 -0.00303559 0)
(0.0219411 -0.00248693 0)
(0.021817 -0.00193749 0)
(0.0215935 -0.00139016 0)
(0.0212713 -0.000843775 0)
(0.0208576 -0.000298005 0)
(0.0203566 0.000244919 0)
(0.0197726 0.000784393 0)
(0.0191121 0.00132251 0)
(0.018383 0.00186046 0)
(0.0175928 0.00240013 0)
(0.0167489 0.00294355 0)
(0.0158625 0.00349401 0)
(0.0149439 0.0040531 0)
(0.0139996 0.00462278 0)
(0.013039 0.00520535 0)
(0.0120706 0.00580145 0)
(0.0111008 0.00640875 0)
(0.0101343 0.00702487 0)
(0.00917487 0.00764464 0)
(0.00822467 0.00825884 0)
(0.0072845 0.00885555 0)
(0.00635531 0.00943045 0)
(0.00543058 0.0100071 0)
(0.00447823 0.0106224 0)
(0.00352312 0.0111925 0)
(0.0025151 0.0112204 0)
(0.00192581 0.0100274 0)
(0.00152791 0.00853516 0)
(0.00129746 0.0131743 0)
(-0.00215407 0.0212491 0)
(-0.00333671 0.00293792 0)
(-0.00279865 -0.000655969 0)
(-0.00212056 0.002321 0)
(-0.00179608 0.00683289 0)
(-0.00218617 0.0103833 0)
(-0.00315689 0.0124014 0)
(-0.00446715 0.0133295 0)
(-0.00592671 0.0138171 0)
(-0.00744532 0.0142864 0)
(-0.00901679 0.0148895 0)
(-0.0106794 0.0156046 0)
(-0.0124648 0.016363 0)
(-0.0143867 0.0171031 0)
(-0.0164468 0.0177891 0)
(-0.0186322 0.018399 0)
(-0.0209237 0.0189179 0)
(-0.0233052 0.0193354 0)
(-0.0257579 0.0196451 0)
(-0.0282564 0.0198407 0)
(-0.0307801 0.0199215 0)
(-0.0333129 0.0198906 0)
(-0.035834 0.0197546 0)
(-0.0383299 0.0195176 0)
(-0.0407895 0.019189 0)
(-0.0431972 0.0187746 0)
(-0.0455442 0.0182882 0)
(-0.0478217 0.0177347 0)
(-0.0500214 0.0171233 0)
(-0.0521381 0.0164619 0)
(-0.0541657 0.0157584 0)
(-0.0561001 0.0150194 0)
(-0.057938 0.0142507 0)
(-0.0596758 0.0134595 0)
(-0.0613089 0.0126503 0)
(-0.0628354 0.0118284 0)
(-0.0642549 0.0109979 0)
(-0.0655646 0.0101622 0)
(-0.0667576 0.00932367 0)
(-0.0678364 0.00848616 0)
(-0.0688035 0.00765121 0)
(-0.0696546 0.00681917 0)
(-0.0703898 0.00599187 0)
(-0.0710108 0.00516973 0)
(-0.0715195 0.00435328 0)
(-0.071918 0.00354174 0)
(-0.0722128 0.00273358 0)
(-0.0724052 0.00192779 0)
(-0.0724942 0.00112352 0)
(-0.0724842 0.000321296 0)
(-0.0723797 -0.000477754 0)
(-0.0721815 -0.00127249 0)
(-0.0718912 -0.0020598 0)
(-0.0715139 -0.00283835 0)
(-0.0710527 -0.003606 0)
(-0.0705089 -0.00436076 0)
(-0.069885 -0.00509995 0)
(-0.0691827 -0.00582198 0)
(-0.0684035 -0.00652706 0)
(-0.0675489 -0.00721365 0)
(-0.0666213 -0.00787828 0)
(-0.0656225 -0.00852318 0)
(-0.064554 -0.00914625 0)
(-0.0634182 -0.00974763 0)
(-0.0622175 -0.0103263 0)
(-0.0609544 -0.0108817 0)
(-0.0596311 -0.0114146 0)
(-0.0582502 -0.0119232 0)
(-0.0568147 -0.0124082 0)
(-0.0553265 -0.0128695 0)
(-0.0537887 -0.0133052 0)
(-0.0522048 -0.0137164 0)
(-0.0505768 -0.0141025 0)
(-0.048908 -0.0144636 0)
(-0.0472014 -0.0147986 0)
(-0.0454598 -0.0151083 0)
(-0.0436864 -0.015392 0)
(-0.0418843 -0.0156495 0)
(-0.0400557 -0.0158806 0)
(-0.0382042 -0.016085 0)
(-0.0363334 -0.0162626 0)
(-0.034445 -0.0164128 0)
(-0.0325421 -0.0165351 0)
(-0.0306271 -0.0166295 0)
(-0.0287025 -0.0166959 0)
(-0.0267712 -0.0167324 0)
(-0.0248352 -0.0167403 0)
(-0.0228962 -0.0167186 0)
(-0.020956 -0.016667 0)
(-0.0190168 -0.0165846 0)
(-0.0170802 -0.0164713 0)
(-0.0151478 -0.0163263 0)
(-0.0132202 -0.0161496 0)
(-0.0112984 -0.0159421 0)
(-0.00938419 -0.0157031 0)
(-0.0074788 -0.0154336 0)
(-0.00558311 -0.0151342 0)
(-0.00369803 -0.0148074 0)
(-0.00182525 -0.0144556 0)
(3.16668e-05 -0.0140826 0)
(0.00186898 -0.0136921 0)
(0.00368154 -0.0132889 0)
(0.00546088 -0.0128775 0)
(0.00719786 -0.0124616 0)
(0.00888166 -0.0120439 0)
(0.0105019 -0.0116245 0)
(0.0120509 -0.011201 0)
(0.0135163 -0.0107709 0)
(0.0148895 -0.0103341 0)
(0.0161646 -0.00988315 0)
(0.0173359 -0.00941438 0)
(0.0184028 -0.00892213 0)
(0.0193615 -0.00840074 0)
(0.0202118 -0.00784736 0)
(0.0209565 -0.00726086 0)
(0.0215929 -0.00664287 0)
(0.0221228 -0.00599619 0)
(0.0225486 -0.00532548 0)
(0.0228708 -0.00463787 0)
(0.0230905 -0.00393643 0)
(0.0232069 -0.00322867 0)
(0.0232186 -0.0025185 0)
(0.0231261 -0.00180834 0)
(0.0229344 -0.00110216 0)
(0.0226457 -0.000402047 0)
(0.022258 0.00028949 0)
(0.0217725 0.000970808 0)
(0.021196 0.00164017 0)
(0.0205326 0.00229814 0)
(0.0197868 0.00294479 0)
(0.0189661 0.00358051 0)
(0.018076 0.00420691 0)
(0.0171249 0.0048256 0)
(0.0161219 0.00543875 0)
(0.0150773 0.00604798 0)
(0.0140028 0.00665517 0)
(0.0129073 0.00726098 0)
(0.0118013 0.00786467 0)
(0.0106957 0.00846668 0)
(0.00959958 0.00906299 0)
(0.00851931 0.00964638 0)
(0.00746133 0.0102073 0)
(0.00643209 0.010747 0)
(0.00543252 0.0113012 0)
(0.00444642 0.0119122 0)
(0.00349793 0.0124395 0)
(0.0025435 0.0122489 0)
(0.00192013 0.0106387 0)
(0.00145199 0.00899677 0)
(0.0011749 0.0149891 0)
(-0.00228527 0.0251379 0)
(-0.00369581 0.00344942 0)
(-0.00318287 -0.00155257 0)
(-0.00227345 0.00138393 0)
(-0.00155566 0.00665104 0)
(-0.0015497 0.0111423 0)
(-0.00225084 0.0138906 0)
(-0.00343576 0.0152186 0)
(-0.00484957 0.0158655 0)
(-0.00634571 0.0164135 0)
(-0.00789662 0.0171181 0)
(-0.00954814 0.0179919 0)
(-0.0113484 0.018952 0)
(-0.0133262 0.0199067 0)
(-0.0154806 0.020795 0)
(-0.0177959 0.0215836 0)
(-0.0202474 0.0222514 0)
(-0.0228026 0.0227852 0)
(-0.0254338 0.0231766 0)
(-0.0281154 0.0234232 0)
(-0.0308207 0.0235247 0)
(-0.0335267 0.0234869 0)
(-0.0362102 0.0233189 0)
(-0.0388558 0.0230286 0)
(-0.041452 0.0226283 0)
(-0.0439782 0.0221287 0)
(-0.0464273 0.0215417 0)
(-0.0487953 0.0208781 0)
(-0.0510714 0.0201479 0)
(-0.0532511 0.0193608 0)
(-0.0553308 0.0185257 0)
(-0.0573069 0.017651 0)
(-0.0591746 0.016744 0)
(-0.0609335 0.0158118 0)
(-0.0625821 0.0148603 0)
(-0.0641174 0.0138943 0)
(-0.0655398 0.0129185 0)
(-0.0668483 0.0119371 0)
(-0.0680413 0.0109534 0)
(-0.0691195 0.00996715 0)
(-0.0700832 0.00898097 0)
(-0.0709324 0.00799616 0)
(-0.0716676 0.00701548 0)
(-0.0722902 0.00603623 0)
(-0.0728018 0.00505952 0)
(-0.073203 0.00408564 0)
(-0.0734937 0.00311673 0)
(-0.0736781 0.00215516 0)
(-0.0737594 0.0011997 0)
(-0.0737395 0.000251771 0)
(-0.0736226 -0.000684223 0)
(-0.0734109 -0.00160967 0)
(-0.0731078 -0.00252295 0)
(-0.0727166 -0.00342327 0)
(-0.0722389 -0.00430931 0)
(-0.0716757 -0.00517937 0)
(-0.071029 -0.0060297 0)
(-0.0703041 -0.0068614 0)
(-0.0695022 -0.00767174 0)
(-0.06862 -0.00846033 0)
(-0.0676632 -0.00922697 0)
(-0.0666358 -0.00997022 0)