/*--------------------------------*- C++ -*----------------------------------*\
| =========                 |                                                 |
| \\      /  F ield         | OpenFOAM: The Open Source CFD Toolbox           |
|  \\    /   O peration     | Version:  v2006                                 |
|   \\  /    A nd           | Website:  www.openfoam.com                      |
|    \\/     M anipulation  |                                                 |
\*---------------------------------------------------------------------------*/
FoamFile
{
    version     2.0;
    format      ascii;
    class       volScalarField;
    location    "0";
    object      shifted_f;
}
// * * * * * * * * * * * * * * * * * * * * * * * * * * * * * * * * * * * * * //

dimensions      [0 0 0 0 0 0 0];


internalField   nonuniform List<scalar> 
2500
(
3.09592e-27
3.03237e-33
3.09592e-27
-4.64387e-27
6.06321e-33
3.02143e-33
0
-1.23518e-32
3.07926e-27
-1.29253e-32
0
3.71988e-48
0
1.50125e-26
2.36742e-26
0
2.25384e-33
1.76557e-26
5.35004e-34
-1.87464e-49
-3.85636e-25
0
-4.53809e-34
2.28145e-35
2.08361e-34
1.55664e-34
3.68957e-24
-2.73357e-35
-2.84291e-35
-1.60204e-36
0
-1.324e-25
2.86994e-35
2.16287e-35
1.4171e-35
8.36164e-36
4.53425e-36
2.28854e-36
0
0
2.05426e-37
8.27347e-38
0
1.16392e-38
4.09351e-39
1.391e-39
4.2064e-31
1.53685e-40
5.25293e-41
1.90089e-41
0
4.67937e-48
3.33496e-33
4.84513e-27
2.93251e-26
-1.93333e-26
0
-1.98078e-26
0
-2.98974e-32
3.73345e-26
0
0
-4.36748e-47
0
-2.3931e-47
4.26023e-27
0
-3.27355e-25
-7.19177e-26
0
1.91614e-24
7.35298e-25
-1.39885e-34
-8.6193e-24
-7.01046e-24
6.90385e-24
5.40318e-24
0
5.58945e-24
1.54799e-24
-4.62034e-25
-2.30328e-24
-1.92846e-24
5.30182e-56
-3.86827e-25
-8.41872e-26
3.44467e-26
0
0
-3.64473e-60
0
-1.70644e-28
-2.95986e-29
0
-1.85796e-30
-9.60569e-65
-1.52614e-65
-2.79212e-31
-1.96859e-31
2.79964e-32
2.79964e-32
-4.08907e-26
1.02227e-26
6.23541e-26
0
0
-5.75722e-32
-4.32312e-26
-6.78831e-32
7.50478e-26
8.70248e-33
-7.74033e-33
1.34037e-25
-2.12937e-46
-1.70855e-25
-1.23067e-31
-6.10468e-25
1.0007e-32
0
-1.35132e-47
0
1.00516e-22
3.09249e-22
0
0
-3.07833e-22
0
3.29836e-23
-3.53695e-34
0
0
0
0
3.34972e-55
0
0
0
0
0
1.69982e-36
6.88522e-59
-1.77275e-36
1.35073e-61
0
0
0
0
-3.34211e-39
0
5.58759e-32
5.58759e-32
1.3969e-32
-4.82327e-26
-3.28758e-26
0
5.49343e-32
-1.16264e-31
0
0
1.14441e-25
3.43304e-33
4.4979e-25
2.24388e-25
-1.99813e-32
3.69392e-32
-3.02781e-31
7.28335e-32
3.10565e-32
-2.54315e-32
0
0
9.34482e-32
7.52342e-33
1.85856e-32
0
-5.11648e-22
-3.19216e-33
0
-1.36713e-33
1.36709e-34
0
7.84185e-34
5.82191e-34
0
2.00067e-34
2.79489e-24
0
-2.42491e-25
8.02e-36
0
1.0218e-36
0
0
-2.80035e-29
0
2.69025e-39
1.48615e-39
0
5.56705e-40
0
2.64072e-32
7.92216e-32
1.80124e-26
-3.69101e-26
-7.16099e-26
0
0
0
0
1.27395e-25
-3.20129e-32
5.43788e-25
2.62221e-25
0
0
-7.14863e-31
6.81762e-24
0
0
0
0
7.3017e-22
0
0
0
-1.02882e-21
0
0
0
0
1.55451e-21
0
0
-1.57523e-33
0
2.00708e-34
-7.56096e-25
1.27567e-24
0
0
2.65739e-57
-2.15459e-36
0
0
0
0
0
0
0
0
3.09441e-44
1.41148e-31
1.61402e-22
1.90767e-31
0
0
2.15586e-22
2.16823e-22
0
0
0
0
0
0
0
0
0
0
-6.32074e-22
5.15281e-45
0
7.01127e-31
0
0
0
1.10564e-21
0
0
7.22227e-21
0
-1.43062e-21
0
0
0
0
0
0
0
0
0
-2.58464e-27
0
0
5.21704e-30
0
0
0
0
0
0
6.47843e-44
-1.29739e-43
2.63401e-21
1.75618e-21
0
0
0
3.51486e-21
0
0
0
0
0
0
0
0
-2.39685e-30
0
0
0
0
0
-8.85776e-20
0
0
8.18788e-20
0
0
0
0
0
0
0
0
0
0
0
0
0
0
0
2.48193e-35
0
0
0
0
0
0
0
-9.72277e-31
1.17385e-42
-9.72277e-31
9.5833e-21
-1.035e-30
1.27797e-20
0
0
1.27677e-20
0
0
0
0
0
0
0
0
0
0
0
1.39549e-43
0
0
-2.92651e-19
0
0
0
0
0
0
0
0
0
0
0
0
0
0
0
0
0
0
0
0
0
0
0
0
0
0
0
-5.40861e-20
1.72395e-31
2.02823e-20
-5.40875e-20
0
-5.41081e-20
0
2.69977e-20
-1.80754e-29
-5.43845e-20
0
0
0
0
0
0
-1.15018e-19
0
0
-4.62413e-20
0
0
-1.22069e-18
0
0
7.00664e-19
0
6.57607e-20
0
0
0
0
0
0
0
0
1.15189e-23
0
0
0
0
0
0
0
0
-3.27843e-28
0
0
3.41273e-28
-1.42206e-19
3.76604e-41
-1.42206e-19
2.66636e-20
1.77757e-20
-3.55654e-20
0
3.55524e-20
3.54632e-20
0
0
0
0
-1.36286e-19
1.50591e-40
-1.58142e-19
0
-1.4719e-19
0
0
-2.81771e-19
0
-7.34579e-19
0
0
0
9.52947e-19
0
0
0
0
-4.62618e-19
0
0
-2.5437e-21
0
0
0
8.9139e-24
0
0
4.71253e-26
5.35897e-34
0
0
-5.16914e-27
0
0
0
0
0
-1.97216e-30
-1.97216e-30
1.20639e-20
1.93128e-19
0
0
0
-4.90016e-20
1.93404e-19
9.15934e-20
0
0
0
0
-9.01703e-27
0
3.74752e-19
0
0
1.25956e-41
0
0
1.13804e-17
0
0
0
0
0
-5.91595e-30
0
0
-2.34995e-31
0
0
2.22679e-32
0
0
0
0
0
0
2.72649e-34
0
0
0
0
0
0
0
0
3.31702e-40
-1.64687e-27
-1.35465e-18
-2.70955e-18
0
0
0
-1.81284e-18
0
0
0
0
0
0
0
0
3.15389e-40
0
0
4.61268e-41
0
-1.84701e-26
0
0
0
-9.95183e-17
0
0
0
0
4.41822e-46
0
0
0
0
0
0
0
0
0
0
0
0
0
0
0
0
0
0
0
1.56871e-39
-3.77477e-39
-5.41486e-18
2.88808e-17
0
0
2.37348e-27
-7.23989e-18
0
0
0
0
0
0
0
0
3.61442e-17
0
0
3.19042e-18
0
0
1.18882e-16
0
-6.90542e-17
-2.86994e-16
0
0
0
0
0
0
0
0
2.23039e-15
0
0
0
1.83891e-16
0
0
6.14615e-24
0
0
0
0
-6.0621e-26
-2.27661e-25
-8.32184e-26
2.20489e-25
6.97334e-39
1.37805e-26
-1.29002e-17
-8.60042e-18
0
0
-1.72256e-17
-1.72421e-17
2.70128e-25
0
0
0
0
0
0
0
1.69845e-16
-1.39327e-23
0
1.88829e-17
0
0
2.52103e-16
0
0
-6.05649e-16
0
0
0
0
0
0
0
1.60362e-30
0
0
0
0
4.61788e-16
0
0
0
0
0
0
0
0
0
0
3.80507e-25
2.90534e-38
2.37817e-26
-2.29652e-17
1.53106e-17
1.00656e-25
0
7.07302e-25
0
0
1.43358e-37
-3.71574e-24
1.25753e-16
6.09809e-17
0
0
-7.82851e-23
0
-8.47394e-23
-1.33941e-38
4.14931e-17
1.38782e-16
1.80205e-23
8.50101e-16
1.34568e-25
0
0
0
9.22728e-27
0
0
0
0
3.60043e-30
0
0
1.83294e-30
0
0
0
0
0
9.43895e-23
7.96351e-23
0
0
-8.03763e-34
0
0
0
0
1.1433e-37
2.78072e-26
-3.25717e-17
-2.1715e-17
-4.34085e-17
0
-4.34979e-17
-4.3527e-17
1.58296e-24
0
0
0
0
0
0
0
0
0
0
1.2523e-16
0
0
5.94977e-16
0
0
-1.46233e-15
0
0
0
0
0
0
0
0
0
0
0
0
1.38633e-15
0
0
0
0
0
0
0
0
0
0
0
4.45846e-37
2.43587e-26
-3.74767e-17
2.49851e-17
-4.99442e-17
0
0
-5.00866e-17
0
0
0
0
0
0
0
0
0
0
0
6.90653e-17
0
0
7.01175e-16
0
0
-1.78287e-15
0
0
0
0
0
0
0
0
0
0
0
0
1.84072e-15
0
0
0
0
0
0
0
0
0
0
-3.1973e-35
0
-1.39897e-23
-3.49186e-17
2.32799e-17
0
0
-3.23836e-22
0
-4.77805e-22
0
0
0
9.22238e-17
0
0
1.4088e-20
-1.84968e-35
0
0
4.83835e-17
2.5319e-16
-4.39401e-21
1.40846e-15
7.89349e-39
0
1.83008e-39
6.64857e-40
0
0
0
3.52282e-14
4.54385e-14
0
0
0
7.19823e-30
1.40578e-14
0
0
0
0
-1.72734e-31
-6.96692e-20
-3.23902e-20
0
0
0
0
0
0
1.24584e-35
-1.45043e-17
-2.17532e-17
1.45053e-17
0
0
0
-2.91272e-17
0
0
0
1.21249e-16
5.74939e-17
0
0
2.12586e-19
0
1.08986e-16
0
-5.79125e-18
0
-1.79792e-20
0
0
0
-1.70262e-15
0
0
0
0
0
0
0
0
0
0
0
0
0
0
0
-3.67781e-31
0
-7.61574e-20
0
0
6.23537e-52
6.21603e-23
9.21297e-24
0
-1.24096e-19
-7.75601e-21
-3.69248e-18
-2.47316e-18
0
-1.28522e-19
0
-5.03242e-18
-3.80316e-20
0
0
2.27227e-17
0
0
0
3.25707e-17
4.50982e-19
2.51206e-17
0
-6.76313e-17
0
2.04892e-16
0
0
-7.58164e-16
-1.22749e-15
0
0
0
2.64643e-26
0
0
0
0
1.33618e-14
0
0
0
0
0
-8.08423e-31
0
-4.25657e-19
-1.1541e-19
0
0
4.17131e-22
9.2359e-23
0
-2.89118e-19
-2.89118e-19
-1.80699e-20
-3.42936e-18
-6.8572e-18
0
0
-1.43216e-19
0
0
-1.96566e-32
0
0
-2.6837e-17
0
0
-5.51912e-17
4.65258e-19
-2.33556e-18
-1.65993e-18
-1.0143e-16
-1.11553e-16
-3.40247e-20
2.40917e-16
0
0
0
0
-1.97176e-15
0
0
0
0
0
0
0
7.90014e-28
0
0
-1.33231e-29
0
0
-5.61082e-31
-5.66915e-19
0
0
0
0
0
-1.23836e-23
0
6.92031e-33
-2.3291e-20
1.40515e-17
-9.33607e-18
0
0
0
1.86659e-17
0
0
0
0
0
0
0
0
-2.03878e-17
0
0
-8.91665e-17
0
0
7.91001e-18
0
0
-1.28184e-16
0
0
0
0
0
0
0
0
3.02009e-15
0
0
0
2.48124e-16
0
0
0
0
0
0
0
0
0
0
0
4.82096e-32
1.07997e-19
8.53118e-18
-5.83472e-18
0
0
1.16957e-17
1.16907e-17
1.19244e-18
0
0
0
0
0
0
0
-2.1953e-16
0
0
1.14218e-15
0
0
6.39141e-16
0
0
1.61983e-16
0
0
0
0
0
0
0
0
0
0
0
0
-1.76963e-16
0
0
0
0
0
0
0
0
0
0
-5.05639e-30
3.16024e-31
1.59582e-18
-2.86276e-18
2.40844e-19
0
0
4.94227e-19
5.11347e-19
0
0
0
0
0
0
0
0
-3.31233e-16
0
0
0
0
0
0
1.2107e-35
0
2.27661e-16
0
2.93704e-37
0
0
0
0
6.67082e-40
-4.01192e-15
0
0
0
0
1.44692e-43
0
0
1.72354e-29
0
2.47009e-19
0
0
-1.035e-21
-3.47592e-22
6.43158e-51
0
3.82794e-30
5.48406e-18
-1.45831e-17
-2.35397e-18
0
0
0
-4.68737e-18
0
0
0
0
0
0
0
0
0
0
0
3.38217e-17
0
0
9.02287e-15
0
0
1.53359e-16
0
0
0
0
0
0
0
0
0
0
0
0
-1.99037e-16
0
0
0
0
0
0
0
0
0
0
0
9.90414e-30
1.16523e-17
-2.45565e-17
7.3147e-19
0
0
0
-1.45814e-18
0
0
0
4.7046e-16
0
0
0
-1.45722e-15
-1.76422e-15
1.8914e-15
1.38914e-14
1.1639e-17
0
1.90247e-14
0
0
1.65239e-14
4.23822e-17
0
0
0
7.11405e-23
0
0
0
0
-1.05048e-15
0
0
-1.38109e-16
0
0
0
0
3.94377e-20
0
0
0
5.08359e-48
1.41462e-22
5.6083e-23
-4.84233e-17
4.79107e-16
1.79986e-17
-3.16826e-17
3.02663e-18
-6.05667e-18
-4.84321e-17
6.03937e-18
0
0
-4.86762e-17
-4.75965e-17
7.18916e-16
-4.98775e-17
0
-4.76936e-17
-2.14207e-15
-4.29011e-17
3.10646e-15
2.099e-14
-2.56296e-17
0
2.87325e-14
2.64458e-14
0
2.63065e-14
-2.05631e-17
5.22641e-15
0
3.11001e-16
9.92383e-23
0
5.07451e-16
0
0
1.15925e-15
9.27346e-16
0
1.73304e-16
1.43988e-16
0
1.36079e-18
-7.58491e-19
-5.09079e-19
0
-3.14403e-20
0
1.51485e-47
7.21637e-22
1.37906e-22
0
5.86054e-16
2.09973e-17
-3.42145e-17
-8.58625e-17
0
0
0
1.07289e-17
0
0
0
0
0
0
0
0
-2.24025e-15
3.9795e-15
0
-4.54391e-17
0
7.18981e-14
3.35335e-14
0
0
-2.07886e-17
0
1.27828e-15
0
0
0
0
0
0
1.18995e-15
0
0
0
0
0
0
0
-5.85307e-19
0
0
1.18248e-21
4.2595e-47
0
0
0
-4.17986e-25
-1.78979e-17
4.9093e-16
6.66224e-17
0
0
0
0
9.89776e-17
0
0
0
1.90646e-15
0
0
0
-1.22005e-15
0
0
6.08417e-31
-5.32458e-17
0
0
0
0
0
0
0
0
0
0
0
1.16939e-15
0
0
6.53208e-16
0
0
0
0
0
0
0
0
0
0
0
0
0
0
1.89085e-25
7.57392e-18
-8.54873e-18
-4.54357e-18
0
0
9.07908e-18
9.09411e-18
0
0
1.67178e-16
0
0
-3.65281e-17
0
0
0
0
0
-3.36438e-17
0
0
3.26808e-14
0
0
3.36115e-17
0
0
0
0
0
0
0
0
0
0
0
0
2.06819e-18
0
0
0
0
0
0
0
0
0
0
0
0
-3.53348e-18
1.33688e-17
4.2761e-18
0
0
8.53849e-18
8.55447e-18
0
0
0
0
0
0
0
0
0
0
0
2.68048e-14
0
0
0
0
2.60034e-14
3.38218e-17
0
0
0
0
0
0
0
0
0
0
0
0
-1.95875e-19
0
0
-1.85019e-19
0
0
0
0
-3.73487e-23
-2.80241e-23
-8.68727e-24
0
-3.37972e-16
-8.2859e-18
2.34009e-17
-4.54887e-18
0
0
9.08654e-18
9.09994e-18
-4.73785e-17
0
0
0
0
0
0
0
-3.15253e-15
0
0
-3.51302e-17
0
0
1.29136e-14
0
0
2.12308e-17
0
0
0
0
0
0
0
0
0
0
0
0
0
0
0
0
0
0
0
0
0
0
0
0
-7.44652e-17
5.4252e-18
-6.36303e-17
-4.6554e-18
0
0
9.30056e-18
9.3119e-18
-2.19311e-17
0
0
0
0
0
0
0
-1.18915e-15
-7.84738e-17
0
0
0
0
3.9359e-15
0
0
1.23746e-17
2.60696e-18
0
0
0
5.02425e-17
0
0
3.75469e-16
0
2.41775e-16
0
0
1.86055e-17
0
-2.61789e-19
-1.26116e-19
0
0
0
2.51693e-23
1.72854e-23
8.54402e-24
2.61881e-24
0
-4.96002e-17
6.55156e-19
5.49426e-18
4.13081e-18
-5.43564e-18
0
-7.05945e-17
0
0
5.05159e-17
0
0
0
0
0
0
-4.10635e-16
0
0
-3.47587e-17
0
0
-2.24025e-15
0
-1.75108e-15
1.39734e-17
-6.62465e-16
-3.32647e-16
0
0
0
0
0
4.94008e-16
4.25784e-16
3.00333e-16
0
0
1.8874e-17
0
0
-2.30062e-19
0
0
0
1.36345e-23
1.09872e-23
4.88347e-24
1.18222e-24
0
5.73248e-20
-2.64746e-18
-1.9077e-17
8.41234e-19
0
-1.54205e-17
8.44526e-18
8.45779e-18
0
0
0
0
0
-3.4297e-17
0
0
0
0
0
-3.25009e-17
0
-2.64052e-15
-2.60507e-15
0
-2.91444e-15
0
0
0
0
0
0
0
0
0
3.93895e-16
2.74382e-16
0
0
0
0
1.83389e-40
0
0
0
0
0
0
1.14812e-24
0
0
-6.60396e-19
-6.849e-17
1.87342e-19
-4.32143e-18
6.42937e-18
0
0
0
0
0
0
2.91546e-15
0
0
0
0
0
8.96439e-16
0
-3.30965e-17
-3.5407e-17
0
-1.68669e-15
-1.3016e-15
0
2.14527e-17
-2.58315e-16
0
0
0
0
0
0
0
0
2.33476e-16
0
0
0
0
0
0
0
0
0
0
-2.19017e-25
-3.41709e-25
-1.23609e-25
0
-3.76015e-17
-2.54743e-18
0
-2.2859e-17
-0.00138826
-0.00431091
-0.00599143
-0.00613756
-0.0047493
-0.00182666
-0.000146132
0
0
0
0
1.9059e-16
2.38986e-16
2.34637e-16
-7.42885e-17
-3.4728e-17
0
-4.90292e-17
1.49189e-17
0
0
1.94724e-17
1.29043e-16
0
0
0
0
0
0
0
3.22368e-16
2.28103e-16
0
0
0
0
0
-2.16244e-19
-1.00994e-19
0
0
-1.26213e-24
2.07102e-44
-1.24564e-25
6.78767e-26
0
-8.10863e-18
-3.27117e-18
0
1.56734
3.84465
3.58685
2.50855
0.829129
-1.45125
-1.19374
-0.112658
-0.000292265
0
0
0
0
0
0
0
0
0
0
0
0
0
1.78984e-17
0
0
0
0
0
0
0
0
0
0
0
0
1.47677e-17
0
0
0
0
0
0
0
0
0
0
-7.03733e-17
-9.6865e-18
-9.21083e-17
2.84527
7.10472
7.99975
7.31763
4.80148
1.74258
-0.981913
-3.65848
-2.27066
-0.112658
-0.000146132
-3.57456e-17
0
4.78161e-17
-1.73527e-16
-5.36901e-16
0
0
0
8.7959e-16
8.30136e-16
0
0
1.83144e-17
-6.34809e-18
-1.85659e-16
-1.50564e-16
-1.06273e-16
4.54468e-17
2.42611e-16
3.84636e-16
8.22345e-16
1.89634e-35
2.51505e-16
1.41346e-16
5.94306e-17
0
8.59577e-19
1.03848e-39
0
-1.01733e-19
0
0
2.17573e-24
8.99792e-25
4.79443e-25
1.85194e-25
-1.59299e-16
-1.63992e-16
1.27311
6.67618
10.4559
6.61454
2.59054
-0.054469
-1.93579
-1.50797
-3.12208
-3.65848
-1.19374
-0.00182666
0
1.55444e-17
1.0787e-16
0
-1.92826e-16
-5.57229e-16
0
0
5.09609e-16
0
5.95693e-16
0
1.90918e-17
1.5347e-17
-9.96042e-17
-1.54595e-16
-1.09434e-16
0
2.35145e-16
3.76627e-16
4.03733e-16
0
2.46973e-16
1.38573e-16
0
0
3.70816e-19
0
-4.3695e-19
0
0
0
0
4.44576e-25
2.85333e-25
1.3549e-25
-5.69212e-16
-0.00343016
3.11999
6.88714
6.66195
2.57356
-3.21179
-3.37192
-4.54744
-6.0352
-1.50797
-0.981913
-1.45125
-0.0047493
0
0
1.52323e-15
1.88978e-16
-7.88119e-17
0
-6.9523e-21
0
2.32493e-17
2.31787e-16
2.20676e-16
0
1.90793e-17
6.47127e-18
0
-1.5068e-16
-1.09638e-16
3.70587e-17
0
0
3.96213e-16
3.44483e-16
2.42879e-16
0
5.71839e-17
1.42649e-17
0
3.98836e-40
0
0
-2.8027e-20
0
0
0
3.00218e-25
0
0
-0.0102905
2.98754
4.92249
0.931404
-1.86895
-1.35317
1.21565
-0.0112142
-4.54744
-1.93579
1.74258
0.829129
-0.00613756
0
0
0
0
0
0
-1.78645e-16
0
0
0
0
0
1.87812e-17
0
0
0
0
3.86602e-17
0
0
0
0
0
0
0
0
0
0
0
0
0
0
0
0
0
0
0
-0.0137206
0.997933
2.611
-2.19075
-5.04902
3.01507
6.52015
1.21565
-3.37192
-0.054469
4.80148
2.50855
-0.00599143
3.89468e-15
0
3.58873e-17
-3.47259e-17
-1.29868e-16
0
-3.42179e-17
0
3.02122e-16
0
0
0
1.87496e-17
0
0
0
-4.02679e-19
0
0
0
0
0
0
0
0
1.45021e-17
0
0
0
-1.02154e-19
-2.81217e-20
0
0
0
0
0
0
-0.0102905
-0.862664
0.274559
-0.323728
-4.10956
-0.366512
3.01507
-1.35317
-3.21179
2.59054
7.31763
3.58685
-0.00431091
0
0
0
-1.44871e-17
0
0
-3.41539e-17
0
0
3.35029e-16
0
0
1.88471e-17
0
-8.94789e-17
0
0
0
0
0
0
0
0
0
0
1.44689e-17
0
0
-2.16398e-19
0
0
0
6.195e-25
0
0
0
0
-0.00343016
-0.73022
-1.90319
0.455832
0.590009
-4.10956
-5.04902
-1.86895
2.57356
6.61454
7.99975
3.84465
-0.00138826
0
0
-6.76181e-17
-7.0654e-17
-1.72741e-16
-7.27661e-17
-3.41846e-17
0
0
2.82165e-16
0
1.17256e-17
1.88617e-17
-3.77938e-18
0
-1.49413e-16
-1.08697e-16
3.93504e-17
2.31806e-16
3.72188e-16
0
3.4722e-16
2.4481e-16
1.37509e-16
0
1.44339e-17
7.68321e-19
-2.84641e-19
-4.32923e-19
0
-2.80888e-20
-1.7174e-21
1.12778e-24
5.03869e-25
3.21954e-25
1.53764e-25
0
0
-0.0102905
-1.44672
-2.03563
0.455832
-0.323728
-2.19075
0.931404
6.66195
10.4559
7.10472
1.56734
-1.90662e-16
0
0
0
2.71963e-17
0
0
-3.42037e-17
0
0
2.79806e-16
0
0
1.8835e-17
0
-9.02238e-17
0
0
0
0
0
7.99107e-16
0
0
0
0
0
0
-2.84567e-19
0
0
0
0
1.14616e-24
0
0
0
0
3.33417e-19
3.71175e-18
-0.0137206
-1.44672
-1.90319
0.274559
2.611
4.92249
6.88714
6.67618
2.84527
0
0
0
0
1.06987e-16
-2.53918e-17
0
0
6.80596e-22
-3.63484e-17
2.88043e-16
2.51355e-16
5.29674e-16
0
1.88318e-17
0
0
0
0
0
0
0
0
0
2.44967e-16
0
0
0
0
-2.84454e-19
-2.16379e-19
0
-2.81017e-20
-1.72216e-21
0
5.26159e-25
-2.23879e-31
0
0
1.46508e-19
-3.11508e-18
1.25747e-17
-0.0102905
-0.73022
-0.862664
0.997933
2.98754
3.11999
1.27311
0
0
0
0
0
0
0
0
0
-3.41937e-17
0
0
2.95181e-16
0
0
1.88358e-17
0
0
0
0
3.93049e-17
0
0
0
0
0
0
0
0
0
0
0
0
0
0
-8.44316e-31
0
0
0
0
1.98098e-18
-3.12316e-18
1.27848e-17
5.55782e-18
-0.00343016
-0.0102905
-0.0137206
-0.0102905
-0.00343016
-1.78266e-16
0
1.17313e-16
0
0
0
1.1359e-17
-6.89433e-18
-1.23586e-16
-3.01551e-16
4.09556e-21
0
2.86368e-16
0
0
3.84579e-16
1.88358e-17
-3.1914e-30
0
0
-5.78315e-19
0
0
0
0
0
0
0
5.77573e-17
0
0
0
0
-1.02234e-19
0
0
-4.89509e-44
-7.16071e-45
0
-1.3976e-46
0
2.34308e-18
-3.12316e-18
1.31428e-17
5.08021e-18
0
0
8.81707e-18
0
0
0
0
7.70361e-17
0
0
0
1.32565e-17
-2.48494e-17
-1.234e-16
-3.01561e-16
0
0
2.86368e-16
2.50097e-16
0
3.84579e-16
1.88358e-17
0
0
0
-5.78315e-19
0
0
0
0
0
0
0
5.77573e-17
0
0
0
0
-1.02234e-19
0
0
0
-7.4862e-45
0
0
)
;

boundaryField
{
    movingWall
    {
        type            zeroGradient;
    }
    fixedWalls
    {
        type            zeroGradient;
    }
    frontAndBack
    {
        type            empty;
    }
}

