/*--------------------------------*- C++ -*----------------------------------*\
| =========                 |                                                 |
| \\      /  F ield         | OpenFOAM: The Open Source CFD Toolbox           |
|  \\    /   O peration     | Version:  v2006                                 |
|   \\  /    A nd           | Website:  www.openfoam.com                      |
|    \\/     M anipulation  |                                                 |
\*---------------------------------------------------------------------------*/
FoamFile
{
    version     2.0;
    format      ascii;
    class       volVectorField;
    location    "0";
    object      U;
}
// * * * * * * * * * * * * * * * * * * * * * * * * * * * * * * * * * * * * * //

dimensions      [0 1 -1 0 0 0 0];


internalField   nonuniform List<vector> 
67500
(
(-0.0114447 0.0126347 0)
(-0.0268285 -0.00540267 0)
(-0.0058025 -0.0204324 0)
(-0.0265438 0.0147585 0)
(-0.0717772 -0.00322015 0)
(-0.068831 -0.00290418 0)
(-0.0543228 0.0137914 0)
(-0.0273485 -0.00622083 0)
(-0.00291166 -0.0296943 0)
(0.00948882 -0.0318809 0)
(0.0267293 -0.03475 0)
(0.0425407 -0.0365723 0)
(0.0609536 -0.0358116 0)
(0.0759036 -0.0312484 0)
(0.0972054 -0.0255731 0)
(0.121067 -0.0215409 0)
(0.14048 -0.0192311 0)
(0.158483 -0.0185505 0)
(0.186659 -0.0168825 0)
(0.21518 -0.0121169 0)
(0.24773 0.00281085 0)
(0.242982 0.021178 0)
(0.202763 0.0225433 0)
(0.163666 0.00585913 0)
(0.147543 -0.0139514 0)
(0.144987 -0.0209923 0)
(0.148224 -0.0177047 0)
(0.155446 -0.0146997 0)
(0.164838 -0.0113413 0)
(0.174857 -0.00996875 0)
(0.186708 -0.00955785 0)
(0.199556 -0.00788762 0)
(0.21006 -0.00534086 0)
(0.216809 -0.002869 0)
(0.220639 -0.00111263 0)
(0.222907 -0.000171734 0)
(0.224498 9.51811e-05 0)
(0.226013 -0.000141258 0)
(0.228086 -0.000738442 0)
(0.231208 -0.00144022 0)
(0.235406 -0.0019508 0)
(0.240357 -0.00217301 0)
(0.245782 -0.00224001 0)
(0.251649 -0.00234032 0)
(0.258069 -0.00257079 0)
(0.26512 -0.0029099 0)
(0.272745 -0.00326196 0)
(0.280738 -0.00352959 0)
(0.288816 -0.00366361 0)
(0.296706 -0.00366371 0)
(0.304209 -0.00356182 0)
(0.311209 -0.00341909 0)
(0.31767 -0.00331488 0)
(0.323629 -0.00331309 0)
(0.329189 -0.00342577 0)
(0.334488 -0.0036099 0)
(0.339674 -0.00379816 0)
(0.344885 -0.00393613 0)
(0.350232 -0.00400347 0)
(0.35579 -0.00401278 0)
(0.361595 -0.00399309 0)
(0.36764 -0.00397098 0)
(0.373875 -0.00395761 0)
(0.380215 -0.00394518 0)
(0.386552 -0.00391504 0)
(0.392769 -0.00385809 0)
(0.398767 -0.00379024 0)
(0.404497 -0.00374049 0)
(0.40999 -0.00372156 0)
(0.415344 -0.00372372 0)
(0.420684 -0.00373435 0)
(0.426128 -0.00375258 0)
(0.431767 -0.0037879 0)
(0.437664 -0.00384444 0)
(0.443827 -0.00390154 0)
(0.450176 -0.00392882 0)
(0.45662 -0.00399454 0)
(0.463125 -0.00409166 0)
(0.469646 -0.00418966 0)
(0.476122 -0.00426872 0)
(0.482502 -0.00431154 0)
(0.488769 -0.00430185 0)
(0.494927 -0.00422875 0)
(0.501001 -0.00409109 0)
(0.507021 -0.00389905 0)
(0.513016 -0.00367194 0)
(0.519003 -0.00343247 0)
(0.524989 -0.00320047 0)
(0.530969 -0.0029895 0)
(0.536935 -0.00280739 0)
(0.542875 -0.00265825 0)
(0.548782 -0.00254326 0)
(0.554649 -0.00246141 0)
(0.560467 -0.00241077 0)
(0.56623 -0.00239024 0)
(0.571922 -0.00239767 0)
(0.577517 -0.00242088 0)
(0.58299 -0.00245156 0)
(0.588366 -0.00251206 0)
(0.593717 -0.00259507 0)
(0.599097 -0.00268026 0)
(0.604531 -0.00275822 0)
(0.610037 -0.0028265 0)
(0.615626 -0.00288401 0)
(0.621299 -0.00293073 0)
(0.627048 -0.00296862 0)
(0.632866 -0.00300132 0)
(0.638747 -0.00303245 0)
(0.644691 -0.00306396 0)
(0.650698 -0.00309553 0)
(0.656768 -0.00312523 0)
(0.662896 -0.00314944 0)
(0.669072 -0.00316269 0)
(0.675274 -0.00315743 0)
(0.681467 -0.00312252 0)
(0.687584 -0.00305123 0)
(0.693574 -0.00296785 0)
(0.699452 -0.00290429 0)
(0.705275 -0.00286386 0)
(0.711087 -0.00283803 0)
(0.716903 -0.00282201 0)
(0.722727 -0.00281258 0)
(0.728554 -0.00280603 0)
(0.734369 -0.00279741 0)
(0.740143 -0.00278039 0)
(0.745839 -0.00275362 0)
(0.751439 -0.00272908 0)
(0.756963 -0.00271865 0)
(0.762449 -0.00272063 0)
(0.767919 -0.00272661 0)
(0.773376 -0.00272855 0)
(0.778812 -0.00272036 0)
(0.784209 -0.00270011 0)
(0.78955 -0.00267276 0)
(0.794835 -0.00264627 0)
(0.800077 -0.00262373 0)
(0.805285 -0.00260303 0)
(0.810459 -0.00258123 0)
(0.815595 -0.00255688 0)
(0.820683 -0.00253084 0)
(0.825721 -0.00250516 0)
(0.830709 -0.00248051 0)
(0.835649 -0.00245573 0)
(0.840537 -0.00242943 0)
(0.845369 -0.00240117 0)
(0.850143 -0.00237124 0)
(0.854854 -0.00233985 0)
(0.8595 -0.00230684 0)
(0.864079 -0.00227212 0)
(0.868588 -0.00223582 0)
(0.873022 -0.00219818 0)
(0.87738 -0.00215929 0)
(0.881659 -0.00211924 0)
(0.885857 -0.00207812 0)
(0.889972 -0.00203605 0)
(0.894001 -0.00199309 0)
(0.897944 -0.00194933 0)
(0.901798 -0.00190485 0)
(0.905563 -0.00185977 0)
(0.909236 -0.00181418 0)
(0.912819 -0.00176817 0)
(0.916308 -0.00172183 0)
(0.919705 -0.0016752 0)
(0.923008 -0.00162833 0)
(0.926217 -0.00158123 0)
(0.929332 -0.00153389 0)
(0.932352 -0.00148632 0)
(0.935277 -0.00143853 0)
(0.938106 -0.00139057 0)
(0.940838 -0.0013425 0)
(0.943475 -0.00129443 0)
(0.946015 -0.00124653 0)
(0.94846 -0.00119895 0)
(0.950809 -0.00115187 0)
(0.953066 -0.00110547 0)
(0.95523 -0.00105993 0)
(0.957304 -0.0010154 0)
(0.95929 -0.000971992 0)
(0.96119 -0.000929822 0)
(0.963007 -0.000888962 0)
(0.964744 -0.000849465 0)
(0.966403 -0.000811365 0)
(0.967988 -0.000774675 0)
(0.9695 -0.000739397 0)
(0.970944 -0.000705518 0)
(0.972321 -0.000673019 0)
(0.973634 -0.000641874 0)
(0.974887 -0.000612051 0)
(0.976081 -0.000583515 0)
(0.97722 -0.000556228 0)
(0.978305 -0.000530152 0)
(0.979339 -0.000505246 0)
(0.980324 -0.000481469 0)
(0.981264 -0.000458779 0)
(0.982158 -0.000437135 0)
(0.983011 -0.000416494 0)
(0.983823 -0.000396816 0)
(0.984597 -0.000378059 0)
(0.985335 -0.000360185 0)
(0.986037 -0.000343153 0)
(0.986706 -0.000326926 0)
(0.987344 -0.000311466 0)
(0.987951 -0.000296735 0)
(0.98853 -0.000282698 0)
(0.989081 -0.00026932 0)
(0.989607 -0.000256564 0)
(0.990107 -0.000244397 0)
(0.990584 -0.000232787 0)
(0.991038 -0.000221701 0)
(0.99147 -0.00021111 0)
(0.991882 -0.000200986 0)
(0.992273 -0.000191304 0)
(0.992646 -0.000182039 0)
(0.993001 -0.000173173 0)
(0.993339 -0.000164686 0)
(0.99366 -0.000156564 0)
(0.993965 -0.000148794 0)
(0.994255 -0.000141362 0)
(0.99453 -0.000134261 0)
(0.994792 -0.000127481 0)
(0.99504 -0.000121013 0)
(0.995276 -0.00011485 0)
(0.9955 -0.000108985 0)
(0.995712 -0.000103408 0)
(0.995914 -9.81132e-05 0)
(0.996105 -9.30903e-05 0)
(0.996286 -8.83305e-05 0)
(0.996459 -8.38244e-05 0)
(0.996622 -7.95619e-05 0)
(0.996777 -7.55328e-05 0)
(0.996924 -7.17264e-05 0)
(0.997064 -6.81322e-05 0)
(0.997197 -6.47395e-05 0)
(0.997324 -6.15376e-05 0)
(0.997444 -5.85159e-05 0)
(0.997558 -5.5664e-05 0)
(0.997667 -5.29717e-05 0)
(0.99777 -5.0429e-05 0)
(0.997868 -4.80262e-05 0)
(0.997962 -4.57541e-05 0)
(0.998052 -4.36035e-05 0)
(0.998137 -4.15659e-05 0)
(0.998218 -3.9633e-05 0)
(0.998295 -3.7797e-05 0)
(0.998369 -3.60506e-05 0)
(0.99844 -3.43869e-05 0)
(0.998507 -3.27995e-05 0)
(0.998571 -3.12828e-05 0)
(0.998632 -2.98312e-05 0)
(0.99869 -2.84401e-05 0)
(0.998746 -2.71051e-05 0)
(0.998799 -2.58225e-05 0)
(0.998849 -2.4589e-05 0)
(0.998897 -2.34017e-05 0)
(0.998943 -2.22583e-05 0)
(0.998986 -2.11567e-05 0)
(0.999027 -2.00952e-05 0)
(0.999066 -1.90723e-05 0)
(0.999104 -1.8087e-05 0)
(0.999139 -1.71383e-05 0)
(0.999172 -1.62254e-05 0)
(0.999204 -1.53477e-05 0)
(0.999233 -1.45047e-05 0)
(0.999262 -1.36958e-05 0)
(0.999288 -1.29207e-05 0)
(0.999313 -1.21789e-05 0)
(0.999337 -1.14701e-05 0)
(0.999359 -1.07938e-05 0)
(0.99938 -1.01496e-05 0)
(0.9994 -9.53694e-06 0)
(0.999418 -8.9554e-06 0)
(0.999435 -8.40438e-06 0)
(0.999452 -7.88326e-06 0)
(0.999467 -7.39139e-06 0)
(0.999481 -6.92807e-06 0)
(0.999495 -6.49255e-06 0)
(0.999507 -6.08405e-06 0)
(0.999519 -5.70177e-06 0)
(0.99953 -5.34485e-06 0)
(0.99954 -5.01244e-06 0)
(0.99955 -4.70364e-06 0)
(0.999559 -4.41755e-06 0)
(0.999567 -4.15326e-06 0)
(0.999576 -3.90984e-06 0)
(0.999583 -3.68637e-06 0)
(0.99959 -3.48192e-06 0)
(0.999597 -3.29556e-06 0)
(0.999603 -3.12638e-06 0)
(0.999609 -2.97345e-06 0)
(0.999615 -2.83588e-06 0)
(0.999621 -2.71278e-06 0)
(0.999626 -2.60325e-06 0)
(0.999631 -2.50644e-06 0)
(0.999636 -2.4215e-06 0)
(0.999641 -2.34759e-06 0)
(0.999646 -2.28391e-06 0)
(0.99965 -2.22967e-06 0)
(0.999654 -2.18409e-06 0)
(0.999659 -2.14644e-06 0)
(0.999663 -2.116e-06 0)
(0.999667 -2.09207e-06 0)
(0.999671 -2.07398e-06 0)
(0.999675 -2.06111e-06 0)
(0.99968 -2.05283e-06 0)
(0.999684 -2.04856e-06 0)
(0.999688 -2.04776e-06 0)
(0.999692 -2.0499e-06 0)
(0.999696 -2.05448e-06 0)
(0.9997 -2.06103e-06 0)
(0.999704 -2.06911e-06 0)
(0.999708 -2.07831e-06 0)
(0.999713 -2.08824e-06 0)
(0.999717 -2.09853e-06 0)
(0.999721 -2.10886e-06 0)
(0.999725 -2.11888e-06 0)
(0.999729 -2.12832e-06 0)
(0.999734 -2.13689e-06 0)
(0.999738 -2.14432e-06 0)
(0.999742 -2.15037e-06 0)
(0.999747 -2.15482e-06 0)
(0.999751 -2.15744e-06 0)
(0.999755 -2.15803e-06 0)
(0.99976 -2.15641e-06 0)
(0.999764 -2.15238e-06 0)
(0.999768 -2.14578e-06 0)
(0.999772 -2.13646e-06 0)
(0.999777 -2.12426e-06 0)
(0.999781 -2.10907e-06 0)
(0.999785 -2.09075e-06 0)
(0.999789 -2.06921e-06 0)
(0.999793 -2.04436e-06 0)
(0.999797 -2.01613e-06 0)
(0.999801 -1.98449e-06 0)
(0.999805 -1.94941e-06 0)
(0.999809 -1.9109e-06 0)
(0.999813 -1.86901e-06 0)
(0.999817 -1.8238e-06 0)
(0.99982 -1.77539e-06 0)
(0.999824 -1.72393e-06 0)
(0.999827 -1.66959e-06 0)
(0.999831 -1.61263e-06 0)
(0.999834 -1.5533e-06 0)
(0.999837 -1.49193e-06 0)
(0.99984 -1.42885e-06 0)
(0.999842 -1.36447e-06 0)
(0.999845 -1.29919e-06 0)
(0.999848 -1.23345e-06 0)
(0.99985 -1.1677e-06 0)
(0.999852 -1.10241e-06 0)
(0.999854 -1.03803e-06 0)
(0.999856 -9.75027e-07 0)
(0.999858 -9.13827e-07 0)
(0.99986 -8.54847e-07 0)
(0.999862 -7.98475e-07 0)
(0.999863 -7.45065e-07 0)
(0.999865 -6.94937e-07 0)
(0.999866 -6.48374e-07 0)
(0.999867 -6.05623e-07 0)
(0.999868 -5.6689e-07 0)
(0.99987 -5.32343e-07 0)
(0.999871 -5.02111e-07 0)
(0.999872 -4.76278e-07 0)
(0.999872 -4.54883e-07 0)
(0.999873 -4.37912e-07 0)
(0.999874 -4.2529e-07 0)
(0.999875 -4.16877e-07 0)
(0.999876 -4.12454e-07 0)
(0.999877 -4.1172e-07 0)
(0.999877 -4.1428e-07 0)
(0.999878 -4.19641e-07 0)
(0.999879 -4.27214e-07 0)
(0.99988 -4.36318e-07 0)
(0.999881 -4.4619e-07 0)
(0.999881 -4.56012e-07 0)
(0.999882 -4.64946e-07 0)
(0.999883 -4.7217e-07 0)
(0.999884 -4.76945e-07 0)
(0.999885 -4.78666e-07 0)
(0.999886 -4.76922e-07 0)
(0.999887 -4.71538e-07 0)
(0.999888 -4.62612e-07 0)
(0.999889 -4.50524e-07 0)
(0.99989 -4.35925e-07 0)
(0.999891 -4.197e-07 0)
(0.999892 -4.02912e-07 0)
(0.999893 -3.86722e-07 0)
(0.999894 -3.72305e-07 0)
(0.999895 -3.60764e-07 0)
(0.999896 -3.53044e-07 0)
(0.999897 -3.49873e-07 0)
(0.999897 -3.51711e-07 0)
(0.999898 -3.58738e-07 0)
(0.999899 -3.70851e-07 0)
(0.9999 -3.87691e-07 0)
(0.999901 -4.08681e-07 0)
(0.999902 -4.33078e-07 0)
(0.999903 -4.60027e-07 0)
(0.999904 -4.88618e-07 0)
(0.999906 -5.17935e-07 0)
(0.999907 -5.47103e-07 0)
(0.999908 -5.7532e-07 0)
(0.999909 -6.01886e-07 0)
(0.99991 -6.26217e-07 0)
(0.999912 -6.47855e-07 0)
(0.999913 -6.66469e-07 0)
(0.999915 -6.81847e-07 0)
(0.999916 -6.93886e-07 0)
(0.999917 -7.02581e-07 0)
(0.999919 -7.0801e-07 0)
(0.99992 -7.10316e-07 0)
(0.999922 -7.09693e-07 0)
(0.999923 -7.06372e-07 0)
(0.999924 -7.00609e-07 0)
(0.999926 -6.92674e-07 0)
(0.999927 -6.82837e-07 0)
(0.999929 -6.71366e-07 0)
(0.99993 -6.58521e-07 0)
(0.999931 -6.44545e-07 0)
(0.999932 -6.29665e-07 0)
(0.999934 -6.14088e-07 0)
(0.999935 -5.98001e-07 0)
(0.999936 -5.81572e-07 0)
(0.999937 -5.64948e-07 0)
(0.999938 -5.48257e-07 0)
(0.999939 -5.3161e-07 0)
(0.99994 -5.15099e-07 0)
(0.999941 -4.98805e-07 0)
(0.999942 -4.82791e-07 0)
(0.999943 -4.67111e-07 0)
(0.999944 -4.51805e-07 0)
(0.999945 -4.36906e-07 0)
(0.999946 -4.22439e-07 0)
(0.999947 -4.08419e-07 0)
(0.999948 -3.94858e-07 0)
(0.999948 -3.81761e-07 0)
(0.999949 -3.69129e-07 0)
(0.99995 -3.56959e-07 0)
(0.99995 -3.45245e-07 0)
(0.999951 -3.3398e-07 0)
(0.999952 -3.23154e-07 0)
(0.999952 -3.12754e-07 0)
(0.999953 -3.02768e-07 0)
(0.999954 -2.93183e-07 0)
(0.999954 -2.83982e-07 0)
(0.999955 -2.75156e-07 0)
(0.999955 -2.66672e-07 0)
(0.999956 -2.58588e-07 0)
(0.999956 -2.50566e-07 0)
(0.999957 -2.44017e-07 0)
(0.999957 -2.32608e-07 0)
(-0.000198613 0.0207425 0)
(-0.000734895 0.00143603 0)
(-0.00994512 0.0158471 0)
(-0.0831121 0.0584603 0)
(-0.103285 0.0301839 0)
(-0.0868092 -0.0172362 0)
(0.0126497 -0.0602611 0)
(0.149693 -0.0671626 0)
(0.223432 -0.00546183 0)
(0.256451 0.010093 0)
(0.2594 0.00994839 0)
(0.225368 0.0100784 0)
(0.226165 0.0128757 0)
(0.121636 -0.0125902 0)
(0.107005 -0.0225042 0)
(0.1314 -0.0247266 0)
(0.160662 -0.0224993 0)
(0.168502 -0.0248362 0)
(0.155443 -0.050293 0)
(0.173329 -0.0589974 0)
(0.205815 -0.031484 0)
(0.267187 0.0145336 0)
(0.29117 0.0456077 0)
(0.286176 0.0517679 0)
(0.270846 0.0375512 0)
(0.250632 0.0185014 0)
(0.231015 0.00625026 0)
(0.222054 -0.00348568 0)
(0.216451 -0.0102056 0)
(0.211036 -0.0138816 0)
(0.212935 -0.0165406 0)
(0.223047 -0.013751 0)
(0.23285 -0.0102279 0)
(0.243265 -0.00731111 0)
(0.251928 -0.00500242 0)
(0.259982 -0.00348293 0)
(0.268218 -0.00271639 0)
(0.276829 -0.00278679 0)
(0.285671 -0.00376783 0)
(0.294469 -0.00524104 0)
(0.302912 -0.00660975 0)
(0.310864 -0.00764804 0)
(0.318412 -0.00852927 0)
(0.325673 -0.0094702 0)
(0.332612 -0.0105121 0)
(0.339058 -0.0115236 0)
(0.344851 -0.012278 0)
(0.350001 -0.0125803 0)
(0.354752 -0.0123938 0)
(0.359534 -0.0118382 0)
(0.364802 -0.0110748 0)
(0.370838 -0.0102134 0)
(0.377639 -0.00931367 0)
(0.384977 -0.00843596 0)
(0.392538 -0.0076617 0)
(0.400049 -0.00708181 0)
(0.407337 -0.00677161 0)
(0.414314 -0.00675971 0)
(0.420944 -0.00701168 0)
(0.427204 -0.00744068 0)
(0.433078 -0.00793343 0)
(0.438561 -0.00837315 0)
(0.443686 -0.00866534 0)
(0.448567 -0.0087621 0)
(0.453411 -0.00865624 0)
(0.458459 -0.00836083 0)
(0.463864 -0.00791822 0)
(0.469617 -0.00742555 0)
(0.475581 -0.00702173 0)
(0.481613 -0.00681673 0)
(0.487597 -0.00684619 0)
(0.493466 -0.00708261 0)
(0.4992 -0.00746512 0)
(0.504799 -0.00793638 0)
(0.510276 -0.00842745 0)
(0.515638 -0.00865714 0)
(0.520771 -0.00878249 0)
(0.525694 -0.00879602 0)
(0.530397 -0.00866356 0)
(0.534841 -0.00842102 0)
(0.539009 -0.00814261 0)
(0.542903 -0.00790868 0)
(0.546546 -0.00778276 0)
(0.549974 -0.00779471 0)
(0.55323 -0.00793601 0)
(0.556359 -0.00816943 0)
(0.559406 -0.00844524 0)
(0.562412 -0.00871653 0)
(0.565408 -0.00895016 0)
(0.568417 -0.00913088 0)
(0.571463 -0.00925815 0)
(0.574569 -0.00933736 0)
(0.577758 -0.00937631 0)
(0.581049 -0.00936957 0)
(0.584463 -0.00930685 0)
(0.588028 -0.0091765 0)
(0.591754 -0.00894245 0)
(0.595604 -0.00863009 0)
(0.599584 -0.00842307 0)
(0.603759 -0.00832474 0)
(0.608146 -0.00829583 0)
(0.612717 -0.0083225 0)
(0.617445 -0.00839202 0)
(0.622305 -0.00848576 0)
(0.627268 -0.00858611 0)
(0.632307 -0.00868196 0)
(0.637409 -0.00876929 0)
(0.642574 -0.00884989 0)
(0.647808 -0.00892627 0)
(0.653124 -0.00899819 0)
(0.658532 -0.00906278 0)
(0.664038 -0.00911542 0)
(0.669647 -0.00915199 0)
(0.675357 -0.00916506 0)
(0.68114 -0.00912447 0)
(0.68691 -0.00898382 0)
(0.692581 -0.00881296 0)
(0.698186 -0.00872 0)
(0.703816 -0.00871076 0)
(0.709513 -0.00874508 0)
(0.715279 -0.00879238 0)
(0.72111 -0.0088314 0)
(0.726995 -0.00884491 0)
(0.732911 -0.00881535 0)
(0.738817 -0.00872252 0)
(0.744651 -0.00856717 0)
(0.750372 -0.00841003 0)
(0.75601 -0.0083041 0)
(0.761617 -0.00824401 0)
(0.767217 -0.00820474 0)
(0.772811 -0.00816633 0)
(0.77838 -0.0081119 0)
(0.783893 -0.00803334 0)
(0.789324 -0.0079449 0)
(0.794674 -0.00787147 0)
(0.799966 -0.00781915 0)
(0.805218 -0.00777598 0)
(0.81043 -0.00772789 0)
(0.815595 -0.00766682 0)
(0.820703 -0.00759514 0)
(0.825751 -0.00752126 0)
(0.830746 -0.00744847 0)
(0.835691 -0.00737337 0)
(0.840583 -0.00729225 0)
(0.845419 -0.00720477 0)
(0.850194 -0.00711297 0)
(0.854907 -0.00701793 0)
(0.859555 -0.00691887 0)
(0.864136 -0.00681505 0)
(0.868646 -0.00670672 1.46959e-41)
(0.873082 -0.00659433 1.37223e-41)
(0.877442 -0.00647802 0)
(0.881723 -0.00635794 0)
(0.885923 -0.0062345 0)
(0.89004 -0.00610811 0)
(0.894072 -0.00597905 0)
(0.898016 -0.00584759 0)
(0.901872 -0.00571405 0)
(0.905638 -0.00557872 0)
(0.909314 -0.00544188 0)
(0.912897 -0.0053038 0)
(0.916388 -0.00516472 0)
(0.919786 -0.00502483 0)
(0.92309 -0.00488423 0)
(0.9263 -0.00474294 0)
(0.929416 -0.00460096 0)
(0.932437 -0.00445827 0)
(0.935362 -0.0043149 0)
(0.938192 -0.00417096 0)
(0.940925 -0.00402667 0)
(0.943562 -0.00388239 0)
(0.946102 -0.00373855 0)
(0.948546 -0.00359567 0)
(0.950895 -0.0034543 0)
(0.95315 -0.00331499 0)
(0.955313 -0.00317826 0)
(0.957385 -0.00304456 0)
(0.959369 -0.00291429 0)
(0.961267 -0.00278774 0)
(0.963082 -0.00266514 0)
(0.964817 -0.00254665 0)
(0.966474 -0.00243237 0)
(0.968055 -0.00232233 0)
(0.969565 -0.00221653 0)
(0.971006 -0.00211494 0)
(0.972381 -0.0020175 0)
(0.973692 -0.00192411 0)
(0.974942 -0.0018347 0)
(0.976134 -0.00174915 0)
(0.97727 -0.00166734 0)
(0.978353 -0.00158917 0)
(0.979385 -0.00151451 0)
(0.980369 -0.00144323 0)
(0.981306 -0.00137521 0)
(0.982199 -0.00131033 0)
(0.98305 -0.00124845 0)
(0.98386 -0.00118946 0)
(0.984632 -0.00113324 0)
(0.985368 -0.00107966 0)
(0.986069 -0.0010286 0)
(0.986737 -0.00097996 0)
(0.987373 -0.000933613 0)
(0.987979 -0.000889455 0)
(0.988557 -0.000847375 0)
(0.989107 -0.000807269 0)
(0.989631 -0.000769033 0)
(0.99013 -0.000732565 0)
(0.990606 -0.000697769 0)
(0.991059 -0.000664551 0)
(0.99149 -0.000632821 0)
(0.991901 -0.000602497 0)
(0.992292 -0.000573503 0)
(0.992664 -0.000545769 0)
(0.993018 -0.000519233 0)
(0.993355 -0.00049384 0)
(0.993675 -0.000469542 0)
(0.99398 -0.000446299 0)
(0.994269 -0.000424074 0)
(0.994544 -0.000402836 0)
(0.994805 -0.000382556 0)
(0.995053 -0.00036321 0)
(0.995288 -0.000344772 0)
(0.995511 -0.000327219 0)
(0.995723 -0.000310527 0)
(0.995924 -0.00029467 0)
(0.996115 -0.000279622 0)
(0.996295 -0.000265356 0)
(0.996467 -0.000251845 0)
(0.99663 -0.000239058 0)
(0.996785 -0.000226965 0)
(0.996932 -0.000215535 0)
(0.997071 -0.000204738 0)
(0.997204 -0.000194542 0)
(0.99733 -0.000184916 0)
(0.99745 -0.000175829 0)
(0.997563 -0.000167249 0)
(0.997672 -0.000159148 0)
(0.997775 -0.000151496 0)
(0.997873 -0.000144264 0)
(0.997967 -0.000137425 0)
(0.998056 -0.000130952 0)
(0.998141 -0.000124819 0)
(0.998222 -0.000119002 0)
(0.998299 -0.000113477 0)
(0.998373 -0.000108223 0)
(0.998443 -0.000103219 0)
(0.99851 -9.84446e-05 0)
(0.998574 -9.38835e-05 0)
(0.998635 -8.95191e-05 0)
(0.998693 -8.53369e-05 0)
(0.998748 -8.13239e-05 0)
(0.998801 -7.74687e-05 0)
(0.998852 -7.37613e-05 0)
(0.998899 -7.01931e-05 0)
(0.998945 -6.67568e-05 0)
(0.998988 -6.34462e-05 0)
(0.999029 -6.02562e-05 0)
(0.999068 -5.71827e-05 0)
(0.999106 -5.42222e-05 0)
(0.999141 -5.13719e-05 0)
(0.999174 -4.86296e-05 0)
(0.999205 -4.59935e-05 0)
(0.999235 -4.34618e-05 0)
(0.999263 -4.10333e-05 0)
(0.99929 -3.87066e-05 0)
(0.999315 -3.64806e-05 0)
(0.999338 -3.4354e-05 0)
(0.99936 -3.23255e-05 0)
(0.999381 -3.03936e-05 0)
(0.999401 -2.8557e-05 0)
(0.999419 -2.6814e-05 0)
(0.999436 -2.51628e-05 0)
(0.999453 -2.36015e-05 0)
(0.999468 -2.21282e-05 0)
(0.999482 -2.07405e-05 0)
(0.999495 -1.94364e-05 0)
(0.999508 -1.82133e-05 0)
(0.99952 -1.70688e-05 0)
(0.999531 -1.60004e-05 0)
(0.999541 -1.50053e-05 0)
(0.99955 -1.40811e-05 0)
(0.999559 -1.32248e-05 0)
(0.999568 -1.24338e-05 0)
(0.999576 -1.17054e-05 0)
(0.999584 -1.10366e-05 0)
(0.999591 -1.04249e-05 0)
(0.999597 -9.86724e-06 0)
(0.999604 -9.36106e-06 0)
(0.99961 -8.90358e-06 0)
(0.999616 -8.49207e-06 0)
(0.999621 -8.12388e-06 0)
(0.999626 -7.79637e-06 0)
(0.999631 -7.50695e-06 0)
(0.999636 -7.25308e-06 0)
(0.999641 -7.03227e-06 0)
(0.999646 -6.8421e-06 0)
(0.99965 -6.68019e-06 0)
(0.999655 -6.54425e-06 0)
(0.999659 -6.43205e-06 0)
(0.999663 -6.34144e-06 0)
(0.999667 -6.27032e-06 0)
(0.999671 -6.21672e-06 0)
(0.999676 -6.17871e-06 0)
(0.99968 -6.15446e-06 0)
(0.999684 -6.14223e-06 0)
(0.999688 -6.14035e-06 0)
(0.999692 -6.14725e-06 0)
(0.999696 -6.16145e-06 0)
(0.9997 -6.18154e-06 0)
(0.999704 -6.2062e-06 0)
(0.999708 -6.23419e-06 0)
(0.999713 -6.26435e-06 0)
(0.999717 -6.29558e-06 0)
(0.999721 -6.32686e-06 0)
(0.999725 -6.35724e-06 0)
(0.999729 -6.38583e-06 0)
(0.999734 -6.41178e-06 0)
(0.999738 -6.43433e-06 0)
(0.999742 -6.45272e-06 0)
(0.999747 -6.46628e-06 0)
(0.999751 -6.47435e-06 0)
(0.999755 -6.47633e-06 0)
(0.99976 -6.47163e-06 0)
(0.999764 -6.45972e-06 0)
(0.999768 -6.44009e-06 0)
(0.999772 -6.41227e-06 0)
(0.999777 -6.37582e-06 0)
(0.999781 -6.33033e-06 0)
(0.999785 -6.27546e-06 0)
(0.999789 -6.21088e-06 0)
(0.999793 -6.13634e-06 0)
(0.999798 -6.05163e-06 0)
(0.999802 -5.95662e-06 0)
(0.999805 -5.85124e-06 0)
(0.999809 -5.73552e-06 0)
(0.999813 -5.60957e-06 0)
(0.999817 -5.47362e-06 0)
(0.99982 -5.32798e-06 0)
(0.999824 -5.17311e-06 0)
(0.999827 -5.00956e-06 0)
(0.999831 -4.83804e-06 0)
(0.999834 -4.65936e-06 0)
(0.999837 -4.47447e-06 0)
(0.99984 -4.28442e-06 0)
(0.999843 -4.0904e-06 0)
(0.999845 -3.89365e-06 0)
(0.999848 -3.69551e-06 0)
(0.99985 -3.49737e-06 0)
(0.999852 -3.30063e-06 0)
(0.999855 -3.10669e-06 0)
(0.999857 -2.91693e-06 0)
(0.999858 -2.73263e-06 0)
(0.99986 -2.55501e-06 0)
(0.999862 -2.38516e-06 0)
(0.999863 -2.22404e-06 0)
(0.999865 -2.07247e-06 0)
(0.999866 -1.93111e-06 0)
(0.999867 -1.80051e-06 0)
(0.999869 -1.68107e-06 0)
(0.99987 -1.5731e-06 0)
(0.999871 -1.47681e-06 0)
(0.999872 -1.39236e-06 0)
(0.999872 -1.31987e-06 0)
(0.999873 -1.25942e-06 0)
(0.999874 -1.21107e-06 0)
(0.999875 -1.17482e-06 0)
(0.999876 -1.15059e-06 0)
(0.999877 -1.13819e-06 0)
(0.999877 -1.13728e-06 0)
(0.999878 -1.14726e-06 0)
(0.999879 -1.16727e-06 0)
(0.99988 -1.19613e-06 0)
(0.99988 -1.23233e-06 0)
(0.999881 -1.27402e-06 0)
(0.999882 -1.31909e-06 0)
(0.999883 -1.36523e-06 0)
(0.999884 -1.41007e-06 0)
(0.999885 -1.45132e-06 0)
(0.999886 -1.48694e-06 0)
(0.999887 -1.51532e-06 0)
(0.999888 -1.53539e-06 0)
(0.999889 -1.54679e-06 0)
(0.99989 -1.54984e-06 0)
(0.999891 -1.54557e-06 0)
(0.999892 -1.53565e-06 0)
(0.999893 -1.52219e-06 0)
(0.999894 -1.50761e-06 0)
(0.999895 -1.49439e-06 0)
(0.999896 -1.48492e-06 0)
(0.999897 -1.48126e-06 0)
(0.999897 -1.48503e-06 0)
(0.999898 -1.49729e-06 0)
(0.999899 -1.51851e-06 0)
(0.9999 -1.54857e-06 0)
(0.999901 -1.58681e-06 0)
(0.999902 -1.63211e-06 0)
(0.999903 -1.68297e-06 0)
(0.999904 -1.73769e-06 0)
(0.999905 -1.79442e-06 0)
(0.999907 -1.85131e-06 0)
(0.999908 -1.90659e-06 0)
(0.999909 -1.95864e-06 0)
(0.99991 -2.00605e-06 0)
(0.999912 -2.04768e-06 0)
(0.999913 -2.08263e-06 0)
(0.999915 -2.11028e-06 0)
(0.999916 -2.13028e-06 0)
(0.999917 -2.14248e-06 0)
(0.999919 -2.14696e-06 0)
(0.99992 -2.14396e-06 0)
(0.999922 -2.13388e-06 0)
(0.999923 -2.11721e-06 0)
(0.999924 -2.09452e-06 0)
(0.999926 -2.06643e-06 0)
(0.999927 -2.0336e-06 0)
(0.999929 -1.99665e-06 0)
(0.99993 -1.95624e-06 0)
(0.999931 -1.91298e-06 0)
(0.999932 -1.86744e-06 0)
(0.999934 -1.82015e-06 0)
(0.999935 -1.77161e-06 0)
(0.999936 -1.72225e-06 0)
(0.999937 -1.67247e-06 0)
(0.999938 -1.62262e-06 0)
(0.999939 -1.57298e-06 0)
(0.99994 -1.52381e-06 0)
(0.999941 -1.47534e-06 0)
(0.999942 -1.42773e-06 0)
(0.999943 -1.38114e-06 0)
(0.999944 -1.33568e-06 0)
(0.999945 -1.29145e-06 0)
(0.999946 -1.2485e-06 0)
(0.999947 -1.20689e-06 0)
(0.999948 -1.16664e-06 0)
(0.999948 -1.12777e-06 0)
(0.999949 -1.09029e-06 0)
(0.99995 -1.05418e-06 0)
(0.999951 -1.01942e-06 0)
(0.999951 -9.85998e-07 0)
(0.999952 -9.53878e-07 0)
(0.999952 -9.23026e-07 0)
(0.999953 -8.93402e-07 0)
(0.999954 -8.64968e-07 0)
(0.999954 -8.37678e-07 0)
(0.999955 -8.11499e-07 0)
(0.999955 -7.86336e-07 0)
(0.999956 -7.62364e-07 0)
(0.999956 -7.38575e-07 0)
(0.999957 -7.19146e-07 0)
(0.999957 -6.85476e-07 0)
(-0.00637268 0.0192391 0)
(-0.0255655 0.00403167 0)
(-0.0866417 0.0839485 0)
(-0.09188 0.0828561 0)
(-0.0462799 0.0131053 0)
(0.128546 -0.122375 0)
(0.262921 -0.206777 0)
(0.289007 -0.172889 0)
(0.279228 -0.122392 0)
(0.283827 -0.0905646 0)
(0.285803 -0.0488815 0)
(0.307487 0.00294827 0)
(0.302188 0.0622433 0)
(0.233402 0.0660056 0)
(0.302779 -0.0146403 0)
(0.299074 -0.0753448 0)
(0.250195 -0.0604219 0)
(0.213209 -0.0305498 0)
(0.220583 -0.0281249 0)
(0.16288 -0.0535335 0)
(0.132373 -0.0573593 0)
(0.130744 -0.0380242 0)
(0.156221 -0.00274027 0)
(0.200242 0.0231771 0)
(0.217367 0.0282928 0)
(0.221208 0.0189005 0)
(0.223457 0.00890642 0)
(0.218373 0.00685594 0)
(0.20978 0.00449867 0)
(0.205328 -0.0063847 0)
(0.204283 -0.0291677 0)
(0.199783 -0.0314324 0)
(0.194439 -0.0276549 0)
(0.186378 -0.0231113 0)
(0.18208 -0.0197011 0)
(0.180545 -0.0184491 0)
(0.179194 -0.0188117 0)
(0.177695 -0.0197415 0)
(0.177324 -0.0205678 0)
(0.177823 -0.0207045 0)
(0.178195 -0.020123 0)
(0.178283 -0.019283 0)
(0.178434 -0.0185495 0)
(0.178493 -0.017887 0)
(0.177785 -0.0170646 0)
(0.175499 -0.0159919 0)
(0.171407 -0.0148407 0)
(0.166548 -0.0140011 0)
(0.163107 -0.0138473 0)
(0.163259 -0.014464 0)
(0.168068 -0.0155908 0)
(0.177304 -0.0168124 0)
(0.189819 -0.017776 0)
(0.204219 -0.0183251 0)
(0.219162 -0.0184744 0)
(0.233613 -0.0183191 0)
(0.246892 -0.0179579 0)
(0.258626 -0.0174526 0)
(0.268686 -0.0168334 0)
(0.277135 -0.0161263 0)
(0.284113 -0.0153785 0)
(0.289736 -0.0146735 0)
(0.294163 -0.0141381 0)
(0.297971 -0.013923 0)
(0.302444 -0.0141165 0)
(0.309153 -0.014649 0)
(0.318921 -0.0153067 0)
(0.331297 -0.0158575 0)
(0.344945 -0.0161712 0)
(0.358455 -0.0162493 0)
(0.371015 -0.0161486 0)
(0.38233 -0.0159261 0)
(0.392382 -0.0156267 0)
(0.401401 -0.0152767 0)
(0.41082 -0.0149002 0)
(0.426106 -0.0145372 0)
(0.441633 -0.0142875 0)
(0.456545 -0.0140167 0)
(0.471255 -0.0137066 0)
(0.485847 -0.0133554 0)
(0.50016 -0.0129541 0)
(0.513934 -0.012496 0)
(0.52692 -0.0119841 0)
(0.538957 -0.011434 0)
(0.549984 -0.0108739 0)
(0.560033 -0.0103396 0)
(0.569202 -0.00986452 0)
(0.577621 -0.00946855 0)
(0.58542 -0.00915691 0)
(0.592696 -0.00892723 0)
(0.599518 -0.00877332 0)
(0.605923 -0.00868476 0)
(0.611983 -0.00864293 0)
(0.617687 -0.00866677 0)
(0.623172 -0.00877318 0)
(0.628481 -0.00901098 0)
(0.633628 -0.00936759 0)
(0.638601 -0.00960343 0)
(0.643258 -0.0100702 0)
(0.647783 -0.0106648 0)
(0.652249 -0.0112226 0)
(0.656658 -0.0117028 0)
(0.66101 -0.0121072 0)
(0.665282 -0.0124323 0)
(0.669436 -0.0126825 0)
(0.67343 -0.0128828 0)
(0.677244 -0.0130666 0)
(0.68088 -0.0132667 0)
(0.684356 -0.0135013 0)
(0.687696 -0.0137753 0)
(0.690923 -0.0140844 0)
(0.694063 -0.0144082 0)
(0.697149 -0.0147198 0)
(0.700239 -0.0149749 0)
(0.703402 -0.0150612 0)
(0.706585 -0.0148214 0)
(0.709691 -0.0145361 0)
(0.712811 -0.0144355 0)
(0.716126 -0.0144459 0)
(0.719701 -0.0144877 0)
(0.723537 -0.0145348 0)
(0.727633 -0.0145724 0)
(0.731987 -0.0145888 0)
(0.736592 -0.0145666 0)
(0.741403 -0.0144598 0)
(0.7463 -0.0142244 0)
(0.751198 -0.0139928 0)
(0.75616 -0.0138835 0)
(0.761269 -0.0138724 0)
(0.766537 -0.0138915 0)
(0.771935 -0.0138876 0)
(0.777418 -0.0138192 0)
(0.782918 -0.0136661 0)
(0.788366 -0.0134714 0)
(0.793754 -0.0133062 0)
(0.799118 -0.013184 0)
(0.804478 -0.0130785 0)
(0.809822 -0.012965 0)
(0.81512 -0.0128299 0)
(0.820346 -0.0126818 0)
(0.825492 -0.0125416 0)
(0.830571 -0.0124146 0)
(0.835591 -0.0122897 0)
(0.840548 -0.0121557 0)
(0.845434 -0.0120103 0)
(0.850246 -0.0118581 0)
(0.854986 -0.011701 0)
(0.859656 -0.0115366 0)
(0.864253 -0.0113632 0)
(0.868774 -0.011182 0)
(0.873219 -0.0109943 0)
(0.877585 -0.0108003 0)
(0.881872 -0.0106001 0)
(0.886075 -0.0103945 0)
(0.890195 -0.0101841 0)
(0.89423 -0.00996902 0)
(0.898177 -0.00974981 0)
(0.902035 -0.00952704 0)
(0.905804 -0.0093012 0)
(0.909481 -0.0090728 0)
(0.913067 -0.00884238 0)
(0.91656 -0.00861037 0)
(0.919959 -0.00837707 0)
(0.923265 -0.00814264 0)
(0.926476 -0.00790712 0)
(0.929594 -0.00767044 0)
(0.932616 -0.00743252 0)
(0.935543 -0.00719339 0)
(0.938374 -0.00695319 0)
(0.941108 -0.00671231 0)
(0.943745 -0.00647132 0)
(0.946285 -0.00623099 0)
(0.948728 -0.00599222 0)
(0.951075 -0.00575597 0)
(0.953327 -0.00552318 0)
(0.955487 -0.00529476 0)
(0.957555 -0.00507147 0)
(0.959535 -0.00485396 0)
(0.961428 -0.00464274 0)
(0.963238 -0.00443819 0)
(0.964967 -0.00424056 0)
(0.966618 -0.00404999 0)
(0.968195 -0.00386655 0)
(0.9697 -0.00369021 0)
(0.971135 -0.00352092 0)
(0.972505 -0.00335857 0)
(0.97381 -0.003203 0)
(0.975056 -0.00305406 0)
(0.976243 -0.00291156 0)
(0.977374 -0.00277532 0)
(0.978452 -0.00264514 0)
(0.97948 -0.00252081 0)
(0.980459 -0.00240212 0)
(0.981392 -0.00228887 0)
(0.982281 -0.00218085 0)
(0.983128 -0.00207784 0)
(0.983935 -0.00197964 0)
(0.984704 -0.00188605 0)
(0.985437 -0.00179686 0)
(0.986134 -0.00171188 0)
(0.986799 -0.00163092 0)
(0.987432 -0.00155379 0)
(0.988036 -0.0014803 0)
(0.988611 -0.00141027 0)
(0.989158 -0.00134353 0)
(0.98968 -0.00127991 0)
(0.990177 -0.00121922 0)
(0.99065 -0.00116132 0)
(0.991101 -0.00110603 0)
(0.991531 -0.00105321 0)
(0.99194 -0.00100272 0)
(0.992329 -0.000954439 0)
(0.9927 -0.000908241 0)
(0.993052 -0.000864027 0)
(0.993388 -0.000821706 0)
(0.993707 -0.000781203 0)
(0.99401 -0.00074245 0)
(0.994298 -0.00070539 0)
(0.994571 -0.000669974 0)
(0.994831 -0.000636157 0)
(0.995078 -0.0006039 0)
(0.995312 -0.000573163 0)
(0.995534 -0.000543907 0)
(0.995744 -0.000516093 0)
(0.995944 -0.00048968 0)
(0.996134 -0.000464624 0)
(0.996314 -0.00044088 0)
(0.996485 -0.0004184 0)
(0.996647 -0.000397133 0)
(0.9968 -0.000377029 0)
(0.996947 -0.000358035 0)
(0.997085 -0.000340099 0)
(0.997217 -0.000323167 0)
(0.997342 -0.000307185 0)
(0.997461 -0.000292103 0)
(0.997575 -0.000277867 0)
(0.997682 -0.000264428 0)
(0.997785 -0.000251735 0)
(0.997882 -0.000239741 0)
(0.997976 -0.000228399 0)
(0.998064 -0.000217665 0)
(0.998149 -0.000207495 0)
(0.998229 -0.000197847 0)
(0.998306 -0.000188684 0)
(0.99838 -0.000179968 0)
(0.998449 -0.000171665 0)
(0.998516 -0.000163743 0)
(0.99858 -0.000156173 0)
(0.998641 -0.000148927 0)
(0.998698 -0.000141982 0)
(0.998754 -0.000135316 0)
(0.998806 -0.000128911 0)
(0.998856 -0.00012275 0)
(0.998904 -0.000116819 0)
(0.998949 -0.000111105 0)
(0.998993 -0.000105599 0)
(0.999034 -0.000100293 0)
(0.999072 -9.51798e-05 0)
(0.999109 -9.02534e-05 0)