/*--------------------------------*- C++ -*----------------------------------*\
| =========                 |                                                 |
| \\      /  F ield         | OpenFOAM: The Open Source CFD Toolbox           |
|  \\    /   O peration     | Version:  v2006                                 |
|   \\  /    A nd           | Website:  www.openfoam.com                      |
|    \\/     M anipulation  |                                                 |
\*---------------------------------------------------------------------------*/
FoamFile
{
    version     2.0;
    format      ascii;
    class       volScalarField;
    location    "0.75";
    object      r;
}
// * * * * * * * * * * * * * * * * * * * * * * * * * * * * * * * * * * * * * //

dimensions      [1 2 0 0 0 0 0];


internalField   nonuniform List<scalar> 
350
(
8.87303e-58
5.05384e-57
3.26357e-56
2.09638e-55
1.33536e-54
8.43538e-54
5.2849e-53
3.2843e-52
2.02472e-51
1.23836e-50
7.51492e-50
4.52513e-49
2.70395e-48
1.60346e-47
9.43698e-47
5.51251e-46
3.19616e-45
1.83946e-44
1.05087e-43
5.95969e-43
3.35524e-42
1.87526e-41
1.04051e-40
5.73173e-40
3.1346e-39
1.70193e-38
9.17406e-38
4.90957e-37
2.60846e-36
1.37588e-35
7.20482e-35
3.74546e-34
1.93293e-33
9.90244e-33
5.03582e-32
2.54205e-31
1.27369e-30
6.33412e-30
3.12631e-29
1.53135e-28
7.44362e-28
3.59031e-27
1.71824e-26
8.15835e-26
3.84282e-25
1.7955e-24
8.32073e-24
3.82411e-23
1.74276e-22
7.87465e-22
3.52734e-21
1.56611e-20
6.89103e-20
3.00442e-19
1.29769e-18
5.55174e-18
2.35203e-17
9.86532e-17
4.0957e-16
1.68259e-15
6.83814e-15
2.74834e-14
1.09203e-13
4.28812e-13
1.66342e-12
6.37163e-12
2.40887e-11
8.98391e-11
3.30345e-10
1.19689e-09
4.27002e-09
1.4989e-08
5.17279e-08
1.75343e-07
5.83197e-07
1.90112e-06
6.06608e-06
1.89181e-05
5.75697e-05
0.000170622
0.000491425
0.00137206
0.00370276
0.00962662
0.0240186
0.0572572
0.129756
0.277943
0.559162
1.04922
1.82331
2.91542
4.27049
5.72951
7.08458
8.17669
8.95078
9.44084
9.72206
9.87024
9.94274
9.97598
9.99037
9.9963
9.99863
9.99951
9.99983
9.99994
9.99998
9.99999
10
10
10
10
10
10
10
10
10
10
10
10
10
9.99999
9.99998
9.99994
9.99983
9.99951
9.99863
9.9963
9.99037
9.97598
9.94274
9.87024
9.72206
9.44084
8.95078
8.17669
7.08458
5.72951
4.27049
2.91542
1.82331
1.04922
0.559162
0.277943
0.129756
0.0572572
0.0240186
0.00962662
0.00370276
0.00137206
0.000491425
0.000170622
5.75697e-05
1.89181e-05
6.06608e-06
1.90112e-06
5.83197e-07
1.75343e-07
5.17279e-08
1.4989e-08
4.27002e-09
1.19689e-09
3.30345e-10
8.98391e-11
2.40887e-11
6.37163e-12
1.66342e-12
4.28812e-13
1.09203e-13
2.74834e-14
6.83814e-15
1.68259e-15
4.0957e-16
9.86532e-17
2.35203e-17
5.55174e-18
1.29769e-18
3.00442e-19
6.89103e-20
1.56611e-20
3.52734e-21
7.87465e-22
1.74276e-22
3.82411e-23
8.32073e-24
1.7955e-24
3.84282e-25
8.15835e-26
1.71824e-26
3.59031e-27
7.44362e-28
1.53135e-28
3.12631e-29
6.33412e-30
1.27369e-30
2.54205e-31
5.03582e-32
9.90244e-33
1.93293e-33
3.74546e-34
7.20482e-35
1.37588e-35
2.60846e-36
4.90957e-37
9.17406e-38
1.70193e-38
3.1346e-39
5.73173e-40
1.04051e-40
1.87526e-41
3.35524e-42
5.95969e-43
1.05087e-43
1.83946e-44
3.19616e-45
5.51251e-46
9.43698e-47
1.60346e-47
2.70395e-48
4.52513e-49
7.51492e-50
1.23836e-50
2.02472e-51
3.2843e-52
5.2849e-53
8.43538e-54
1.33536e-54
2.09637e-55
3.26331e-56
5.03629e-57
7.70477e-58
1.16826e-58
1.75539e-59
2.61327e-60
3.85377e-61
5.62842e-62
8.13928e-63
1.16514e-63
1.65061e-64
2.31345e-65
3.20693e-66
4.39524e-67
5.95359e-68
7.96712e-69
1.05283e-69
1.37319e-70
1.76683e-71
2.24122e-72
2.80102e-73
3.44643e-74
4.17147e-75
4.96217e-76
5.79512e-77
6.63656e-78
7.44248e-79
8.16017e-80
8.73139e-81
9.09756e-82
9.20646e-83
9.02023e-84
8.52332e-85
7.72931e-86
6.68454e-87
5.46742e-88
4.18118e-89
2.94213e-90
1.85893e-91
1.01577e-92
4.41615e-94
1.34392e-95
0
0
0
0
0
0
0
0
0
0
0
0
0
0
0
0
0
0
0
0
0
0
0
0
0
0
0
0
0
0
0
0
0
0
0
0
0
0
0
0
0
0
0
0
0
0
0
0
0
0
0
0
0
0
0
0
0
0
0
0
0
0
0
0
0
0
0
0
0
0
0
0
0
0
0
0
0
0
)
;

boundaryField
{
    right
    {
        type            zeroGradient;
    }
    left
    {
        type            inletOutlet;
        inletValue      uniform 0;
        value           uniform 8.87303e-58;
    }
    top
    {
        type            zeroGradient;
    }
    bottom
    {
        type            zeroGradient;
    }
    empty
    {
        type            empty;
    }
}


// ************************************************************************* //
