/*--------------------------------*- C++ -*----------------------------------*\
| =========                 |                                                 |
| \\      /  F ield         | OpenFOAM: The Open Source CFD Toolbox           |
|  \\    /   O peration     | Version:  v2006                                 |
|   \\  /    A nd           | Website:  www.openfoam.com                      |
|    \\/     M anipulation  |                                                 |
\*---------------------------------------------------------------------------*/
FoamFile
{
    version     2.0;
    format      ascii;
    class       surfaceScalarField;
    location    "20";
    object      phi;
}
// * * * * * * * * * * * * * * * * * * * * * * * * * * * * * * * * * * * * * //

dimensions      [0 3 -1 0 0 0 0];
oriented        oriented;


internalField   nonuniform List<scalar> 
104500
(
5.18333e-05
-5.18333e-05
0.000116524
-6.46909e-05
0.0001787
-6.21763e-05
0.000238906
-6.02053e-05
0.000298346
-5.94401e-05
0.000357432
-5.90857e-05
0.00041626
-5.88284e-05
0.000474868
-5.86078e-05
0.00053327
-5.84018e-05
0.000591458
-5.81886e-05
0.000649413
-5.79545e-05
0.000707109
-5.76962e-05
0.000764526
-5.74167e-05
0.000821647
-5.71212e-05
0.000878462
-5.68148e-05
0.000934962
-5.65009e-05
0.000991144
-5.61816e-05
0.001047
-5.58574e-05
0.00110253
-5.5528e-05
0.00115772
-5.51927e-05
0.00121257
-5.48507e-05
0.00126707
-5.45008e-05
0.00132122
-5.41415e-05
0.00137499
-5.37706e-05
0.00142837
-5.33854e-05
0.00148135
-5.2983e-05
0.00153391
-5.25601e-05
0.00158603
-5.21137e-05
0.00163767
-5.16414e-05
0.00168881
-5.11414e-05
0.00173942
-5.06125e-05
0.00178948
-5.00542e-05
0.00183894
-4.94664e-05
0.00188779
-4.885e-05
0.001936
-4.82067e-05
0.00198354
-4.75392e-05
0.00203039
-4.68508e-05
0.00207654
-4.61447e-05
0.00212196
-4.5423e-05
0.00216664
-4.4686e-05
0.00221058
-4.39318e-05
0.00225373
-4.31565e-05
0.00229609
-4.23546e-05
0.00233761
-4.15206e-05
0.00237826
-4.06493e-05
0.00241799
-3.97359e-05
0.00245677
-3.87763e-05
0.00249454
-3.77663e-05
0.00253124
-3.67005e-05
0.00256681
-3.55721e-05
0.00260118
-3.43729e-05
0.00263428
-3.30944e-05
0.002666
-3.17289e-05
0.00269628
-3.02723e-05
0.002725
-2.87265e-05
0.00275211
-2.71019e-05
0.00277752
-2.54186e-05
0.00280123
-2.37045e-05
0.00282322
-2.19923e-05
0.00284353
-2.0314e-05
0.00286223
-1.86966e-05
0.00287939
-1.7157e-05
0.00289509
-1.56999e-05
0.00290941
-1.43198e-05
0.00292241
-1.30039e-05
0.00293415
-1.17375e-05
0.00294466
-1.05076e-05
0.00295396
-9.30586e-06
0.00296209
-8.12892e-06
0.00296907
-6.97786e-06
0.00297493
-5.85629e-06
0.00297969
-4.7682e-06
0.00298341
-3.71615e-06
0.00298611
-2.6996e-06
0.00298782
-1.71337e-06
0.00298857
-7.45505e-07
0.00298834
2.28501e-07
0.00298714
1.19952e-06
0.002985
2.14435e-06
0.00298194
3.06034e-06
0.00297799
3.94172e-06
0.00297321
4.78567e-06
0.00296762
5.59097e-06
0.00296126
6.35764e-06
0.00295417
7.08831e-06
0.00294638
7.78692e-06
0.00293793
8.45802e-06
0.00292882
9.1063e-06
0.00291908
9.73615e-06
0.00290873
1.03509e-05
0.00289778
1.09525e-05
0.00288624
1.15421e-05
0.00287412
1.21202e-05
0.00286143
1.26865e-05
0.00284819
1.32405e-05
0.00283441
1.3781e-05
0.0028201
1.43067e-05
0.00280529
1.48156e-05
0.00278998
1.53052e-05
0.00277421
1.5773e-05
0.00275799
1.62169e-05
0.00274136
1.66357e-05
0.00272433
1.70298e-05
0.00270693
1.74018e-05
0.00268917
1.77562e-05
0.00267107
1.80989e-05
0.00265263
1.84359e-05
0.00263386
1.87719e-05
0.00261475
1.91094e-05
0.00259531
1.94478e-05
0.00257552
1.97842e-05
0.00255541
2.01138e-05
0.00253498
2.04312e-05
0.00251425
2.07316e-05
0.00249323
2.10116e-05
0.00247196
2.12691e-05
0.00245046
2.15032e-05
0.00242875
2.17138e-05
0.00240685
2.19011e-05
0.00238478
2.20659e-05
0.00236257
2.22092e-05
0.00234024
2.23322e-05
0.0023178
2.2436e-05
0.00229528
2.25217e-05
0.00227269
2.25902e-05
0.00225005
2.26428e-05
0.00222737
2.26805e-05
0.00220466
2.27045e-05
0.00218195
2.27157e-05
0.00215923
2.27152e-05
0.00213653
2.27036e-05
0.00211385
2.26818e-05
0.0020912
2.26499e-05
0.00206859
2.26072e-05
0.00204604
2.25517e-05
0.00202356
2.24799e-05
0.00200117
2.23867e-05
0.00197891
2.2266e-05
0.00195679
2.21116e-05
0.00193488
2.19185e-05
0.00191319
2.16847e-05
0.00189178
2.14123e-05
0.00187067
2.11088e-05
0.00184988
2.07863e-05
0.00182942
2.046e-05
0.00180928
2.01464e-05
0.00178942
1.98616e-05
0.0017698
1.96193e-05
0.00175037
1.94298e-05
0.00173107
1.93001e-05
0.00171183
1.92342e-05
0.0016926
1.92351e-05
0.00167329
1.93066e-05
0.00165383
1.94559e-05
0.00163414
1.96933e-05
0.00161411
2.00301e-05
0.00159364
2.04741e-05
0.00157261
2.10216e-05
0.00155096
2.16506e-05
0.00152865
2.2315e-05
0.0015057
2.29451e-05
0.00148225
2.34534e-05
0.00145851
2.37368e-05
0.00143485
2.36641e-05
0.00141157
2.32836e-05
0.00138902
2.25504e-05
0.0013676
2.14115e-05
0.00134778
1.98233e-05
0.00133003
1.77509e-05
0.00131482
1.52129e-05
0.00130249
1.23316e-05
0.00129315
9.33773e-06
0.00128664
6.5105e-06
0.00128256
4.07977e-06
0.00128041
2.14448e-06
0.00127972
6.93022e-07
0.00128018
-4.55037e-07
0.0012817
-1.52174e-06
0.00128416
-2.4644e-06
0.00128755
-3.38579e-06
0.00129187
-4.32281e-06
0.00129716
-5.28551e-06
0.00130343
-6.27262e-06
0.00131071
-7.27798e-06
0.001319
-8.29281e-06
0.00132831
-9.30669e-06
0.00133861
-1.03084e-05
0.0013499
-1.12865e-05
0.00136213
-1.223e-05
0.00137526
-1.31288e-05
0.00138923
-1.39737e-05
0.00140399
-1.47567e-05
0.00141946
-1.54722e-05
0.00143558
-1.61163e-05
0.00145227
-1.6688e-05
0.00146945
-1.71882e-05
0.00148707
-1.76205e-05
0.00150506
-1.79899e-05
0.00152337
-1.8303e-05
0.00154194
-1.85672e-05
0.00156072
-1.8789e-05
0.0015797
-1.89759e-05
0.00159883
-1.91342e-05
0.0016181
-1.92702e-05
0.00163749
-1.93896e-05
0.00165699
-1.94971e-05
0.00167659
-1.95961e-05
0.00169628
-1.96897e-05
0.00171605
-1.97783e-05
0.00173592
-1.98623e-05
0.00175586
-1.994e-05
0.00177587
-2.0008e-05
0.00179593
-2.00628e-05
0.00181603
-2.00997e-05
0.00183614
-2.01144e-05
0.00185625
-2.01033e-05
0.00187631
-2.00632e-05
0.0018963
-1.99928e-05
0.00191619
-1.98908e-05
0.00193595
-1.97577e-05
0.00195554
-1.95941e-05
0.00197494
-1.94008e-05
0.00199412
-1.9179e-05
0.00201305
-1.89297e-05
0.00203171
-1.86535e-05
0.00205006
-1.83514e-05
0.00206808
-1.8024e-05
0.00208575
-1.76719e-05
0.00210305
-1.72956e-05
0.00211995
-1.68957e-05
0.00213642
-1.64727e-05
0.00215245
-1.60272e-05
0.00216801
-1.55601e-05
0.00218308
-1.50722e-05
0.00219764
-1.45645e-05
0.00221168
-1.40376e-05
0.00222517
-1.34918e-05
0.0022381
-1.29274e-05
0.00225044
-1.23443e-05
0.00226219
-1.17426e-05
0.00227331
-1.11216e-05
0.00228379
-1.04805e-05
0.00229361
-9.81771e-06
0.00230274
-9.13115e-06
0.00231116
-8.4183e-06
0.00231883
-7.67518e-06
0.00232573
-6.89692e-06
0.0023318
-6.07591e-06
0.00233701
-5.20296e-06
0.00234127
-4.26514e-06
0.00234452
-3.24756e-06
0.00234665
-2.13471e-06
0.00234757
-9.18567e-07
0.00234716
4.10349e-07
0.00234529
1.87437e-06
0.00234192
3.36874e-06
0.00233696
4.95566e-06
0.0023303
6.66202e-06
0.00232182
8.48058e-06
0.00231144
1.03768e-05
0.00229915
1.22982e-05
0.00228495
1.4192e-05
0.00226893
1.60262e-05
0.00225113
1.78004e-05
0.00223159
1.95415e-05
0.0022103
2.12875e-05
0.00218723
2.30697e-05
0.00216233
2.49007e-05
0.00213555
2.67735e-05
0.00210689
2.86654e-05
0.00207635
3.05428e-05
0.00204398
3.23619e-05
0.00200992
3.40662e-05
0.00197432
3.55931e-05
0.00193742
3.69067e-05
0.00189935
3.80669e-05
0.00186007
3.92856e-05
0.00181923
4.08364e-05
0.00177649
4.27417e-05
0.0017321
4.439e-05
0.00168755
4.45456e-05
0.00164551
4.20373e-05
0.00160889
3.66246e-05
0.00157968
2.92135e-05
0.00155837
2.13075e-05
0.00154408
1.4287e-05
0.00153507
9.00863e-06
0.00152932
5.75038e-06
0.00152498
4.34083e-06
0.0015206
4.3836e-06
0.00151527
5.32543e-06
0.00150859
6.67868e-06
0.00150042
8.17037e-06
0.00149078
9.64706e-06
0.00147973
1.10499e-05
0.00146737
1.23596e-05
0.00145381
1.35607e-05
0.00143917
1.46337e-05
0.00142361
1.55633e-05
0.00140726
1.63481e-05
0.00139026
1.70034e-05
0.0013727
1.75571e-05
0.00135466
1.80418e-05
0.00133617
1.84912e-05
0.00131723
1.89379e-05
0.00129782
1.94078e-05
0.00127791
1.99162e-05
0.00125744
2.04679e-05
0.00123638
2.10576e-05
0.00121471
2.16721e-05
0.00119242
2.22924e-05
0.00116952
2.29011e-05
0.00114603
2.34867e-05
0.00112198
2.40457e-05
0.0010974
2.45799e-05
0.00107231
2.50958e-05
0.00104671
2.56006e-05
0.00102061
2.61005e-05
0.000994004
2.66015e-05
0.000966896
2.71088e-05
0.00093927
2.76258e-05
0.000911117
2.81531e-05
0.000882428
2.86885e-05
0.000853199
2.92289e-05
0.000823427
2.97724e-05
0.000793111
3.03165e-05
0.000762252
3.08582e-05
0.000730858
3.13945e-05
0.000698937
3.1921e-05
0.000666505
3.24323e-05
0.000633583
3.29217e-05
0.000600202
3.33807e-05
0.000566403
3.37987e-05
0.00053224
3.41631e-05
0.000497782
3.44581e-05
0.00046311
3.46717e-05
0.000428317
3.47934e-05
0.000393503
3.48137e-05
0.000358771
3.47324e-05
0.00032422
3.45513e-05
0.000289946
3.42735e-05
0.000256043
3.39033e-05
0.000222603
3.34402e-05
0.000189723
3.28799e-05
0.000157506
3.22172e-05
0.000126046
3.14601e-05
9.53756e-05
3.06699e-05
6.57064e-05
2.96692e-05
3.64614e-05
2.9245e-05
3.64614e-05
4.05797e-05
-9.2413e-05
8.62905e-05
-0.000110402
0.00012827
-0.000104156
0.000169112
-0.000101047
0.000210078
-0.000100406
0.000251159
-0.000100167
0.000292179
-9.98485e-05
0.000333076
-9.95041e-05
0.000373859
-9.91853e-05
0.000414564
-9.88928e-05
0.000455225
-9.86164e-05
0.00049588
-9.83506e-05
0.000536558
-9.80946e-05
0.000577286
-9.78499e-05
0.00061809
-9.76185e-05
0.000658991
-9.74016e-05
0.000700008
-9.71987e-05
0.000741158
-9.70071e-05
0.000782452
-9.68221e-05
0.000823896
-9.6637e-05
0.00086549
-9.64441e-05
0.000907223
-9.62339e-05
0.000949077
-9.59956e-05
0.000991024
-9.57179e-05
0.00103303
-9.53893e-05
0.00107504
-9.49998e-05
0.00111703
-9.45412e-05
0.00115892
-9.40077e-05
0.00120067
-9.3396e-05
0.00124224
-9.27043e-05
0.00128356
-9.19325e-05
0.00132458
-9.10816e-05
0.00136527
-9.01536e-05
0.00140557
-8.91522e-05
0.00144545
-8.80828e-05
0.00148486
-8.69526e-05
0.00152378
-8.57699e-05
0.00156218
-8.45425e-05
0.00160003
-8.3276e-05
0.00163732
-8.19718e-05
0.00167401
-8.06269e-05
0.00171009
-7.92337e-05
0.00174552
-7.77815e-05
0.00178026
-7.62581e-05
0.00181426
-7.46511e-05
0.00184747
-7.29492e-05
0.00187984
-7.11428e-05
0.0019113
-6.92244e-05
0.00194178
-6.71889e-05
0.00197125
-6.50344e-05
0.00199964
-6.27621e-05
0.00202692
-6.03777e-05
0.00205308
-5.78907e-05
0.00207812
-5.53153e-05
0.00210207
-5.26691e-05
0.00212494
-4.99729e-05
0.00214677
-4.72492e-05
0.00216758
-4.45204e-05
0.0021874
-4.18069e-05
0.00220621
-3.91264e-05
0.00222401
-3.64925e-05
0.00224076
-3.39142e-05
0.00225646
-3.13958e-05
0.00227108
-2.89378e-05
0.00228461
-2.65378e-05
0.00229707
-2.41918e-05
0.00230845
-2.18958e-05
0.00231879
-1.96464e-05
0.00232811
-1.74413e-05
0.00233641
-1.52791e-05
0.00234371
-1.3159e-05
0.00235002
-1.10805e-05
0.00235535
-9.04281e-06
0.0023597
-7.04514e-06
0.00236307
-5.08772e-06
0.0023655
-3.17359e-06
0.00236703
-1.30777e-06
0.00236767
5.68438e-07
0.0023675
2.30979e-06
0.00236652
4.03714e-06
0.00236473
5.73433e-06
0.00236212
7.39576e-06
0.00235869
9.01771e-06
0.00235445
1.05978e-05
0.00234941
1.2135e-05
0.00234356
1.36286e-05
0.00233694
1.50786e-05
0.00232957
1.64852e-05
0.00232145
1.78481e-05
0.00231264
1.91666e-05
0.00230315
2.04396e-05
0.00229303
2.16655e-05
0.00228231
2.28418e-05
0.00227103
2.39666e-05
0.00225923
2.50386e-05
0.00224695
2.60579e-05
0.00223423
2.70266e-05
0.0022211
2.79478e-05
0.00220758
2.88259e-05
0.00219369
2.96649e-05
0.00217943
3.04681e-05
0.00216483
3.12372e-05
0.00214989
3.19727e-05
0.00213462
3.26738e-05
0.00211903
3.33398e-05
0.00210316
3.39698e-05
0.00208704
3.4564e-05
0.00207068
3.51235e-05
0.00205414
3.56496e-05
0.00203745
3.61438e-05
0.00202063
3.6607e-05
0.0020037
3.70388e-05
0.00198669
3.7438e-05
0.00196962
3.78025e-05
0.0019525
3.81299e-05
0.00193536
3.84178e-05
0.00191819
3.86643e-05
0.00190104
3.88677e-05
0.00188391
3.90269e-05
0.00186684
3.91413e-05
0.00184984
3.92106e-05
0.00183293
3.92349e-05
0.00181616
3.92144e-05
0.00179953
3.91494e-05
0.00178308
3.904e-05
0.00176684
3.88864e-05
0.00175083
3.86889e-05
0.00173508
3.84477e-05
0.00171964
3.81634e-05
0.00170451
3.78368e-05
0.00168975
3.74696e-05
0.00167537
3.7064e-05
0.00166139
3.66232e-05
0.00164785
3.61514e-05
0.00163475
3.56531e-05
0.00162209
3.51328e-05
0.00160989
3.45944e-05
0.00159811
3.40405e-05
0.00158675
3.34722e-05
0.00157578
3.28886e-05
0.00156518
3.22871e-05
0.00155493
3.16641e-05
0.00154502
3.10159e-05
0.00153547
3.03401e-05
0.00152629
2.96371e-05
0.00151753
2.891e-05
0.00150922
2.81652e-05
0.00150143
2.74116e-05
0.0014942
2.66596e-05
0.00148758
2.59201e-05
0.00148161
2.52043e-05
0.00147632
2.4523e-05
0.00147174
2.38871e-05
0.00146789
2.33082e-05
0.00146478
2.2799e-05
0.00146244
2.23724e-05
0.00146088
2.204e-05
0.00146009
2.18084e-05
0.00146006
2.16755e-05
0.00146075
2.16251e-05
0.00146207
2.16246e-05
0.0014639
2.16241e-05
0.00146607
2.15654e-05
0.00146833
2.14137e-05
0.00147053
2.10807e-05
0.00147266
2.0414e-05
0.00147468
1.93986e-05
0.0014765
1.80035e-05
0.00147804
1.6209e-05
0.00147923
1.40241e-05
0.00148006
1.15019e-05
0.00148065
8.74192e-06
0.00148129
5.86972e-06
0.00148238
2.99556e-06
0.00148442
1.0405e-07
0.00148736
-2.24636e-06
0.00149137
-4.47015e-06
0.00149642
-6.56451e-06
0.00150248
-8.53238e-06
0.0015095
-1.04045e-05
0.00151739
-1.2211e-05
0.00152608
-1.39746e-05
0.00153552
-1.57098e-05
0.00154566
-1.74237e-05
0.00155649
-1.91174e-05
0.00156797
-2.07875e-05
0.00158009
-2.24271e-05
0.00159283
-2.40273e-05
0.00160618
-2.55783e-05
0.00162012
-2.70699e-05
0.00163464
-2.84924e-05
0.00164972
-2.98373e-05
0.00166534
-3.10975e-05
0.00168149
-3.22684e-05
0.00169815
-3.33472e-05
0.0017153
-3.43336e-05
0.00173291
-3.52304e-05
0.00175096
-3.60418e-05
0.00176943
-3.67753e-05
0.0017883
-3.74392e-05
0.00180756
-3.80427e-05
0.00182718
-3.85945e-05
0.00184715
-3.91022e-05
0.00186745
-3.95714e-05
0.00188806
-4.00051e-05
0.00190897
-4.04048e-05
0.00193014
-4.07692e-05
0.00195155
-4.1096e-05
0.00197315
-4.13812e-05
0.00199491
-4.16203e-05
0.00201678
-4.18083e-05
0.00203871
-4.19406e-05
0.00206066
-4.20131e-05
0.00208258
-4.20224e-05
0.00210444
-4.19669e-05
0.00212618
-4.18451e-05
0.00214777
-4.16576e-05
0.00216919
-4.14057e-05
0.00219039
-4.10917e-05
0.00221135
-4.0718e-05
0.00223204
-4.02873e-05
0.00225244
-3.98016e-05
0.00227252
-3.92625e-05
0.00229227
-3.86706e-05
0.00231164
-3.80266e-05
0.00233062
-3.73292e-05
0.00234917
-3.6578e-05
0.00236727
-3.57724e-05
0.00238489
-3.49118e-05
0.00240199
-3.3996e-05
0.00241854
-3.30257e-05
0.00243451
-3.20018e-05
0.00244988
-3.09257e-05
0.00246461
-2.97989e-05
0.00247867
-2.86237e-05
0.00249203
-2.74017e-05
0.00250467
-2.61351e-05
0.00251657
-2.48264e-05
0.00252771
-2.34772e-05
0.00253805
-2.20893e-05
0.00254759
-2.06645e-05
0.00255632
-1.92045e-05
0.00256421
-1.77104e-05
0.00257126
-1.61828e-05
0.00257747
-1.46223e-05
0.00258282
-1.30291e-05
0.00258733
-1.14022e-05
0.00259099
-9.74078e-06
0.00259383
-8.04385e-06
0.00259588
-6.31059e-06
0.00259717
-4.54001e-06
0.00259775
-2.71297e-06
0.00259763
-8.01588e-07
0.00259693
1.11648e-06
0.0025957
3.10362e-06
0.00259388
5.18833e-06
0.00259146
7.37365e-06
0.00258846
9.66431e-06
0.00258488
1.20604e-05
0.0025807
1.45544e-05
0.00257587
1.71305e-05
0.00257029
1.97686e-05
0.00256386
2.24527e-05
0.00255648
2.518e-05
0.00254806
2.79653e-05
0.00253851
3.08385e-05
0.00252774
3.38338e-05
0.00251567
3.69786e-05
0.00250216
4.02838e-05
0.00248708
4.37405e-05
0.00247031
4.73174e-05
0.00245171
5.09588e-05
0.00243119
5.4582e-05
0.00240871
5.80753e-05
0.00238431
6.13048e-05
0.00235825
6.4135e-05
0.00233107
6.64567e-05
0.00230372
6.81895e-05
0.00227725
6.92105e-05
0.00225244
6.9207e-05
0.00222941
6.75743e-05
0.00220789
6.35568e-05
0.00218785
5.66623e-05
0.00216994
4.71242e-05
0.00215514
3.61057e-05
0.00214398
2.54517e-05
0.00213597
1.70148e-05
0.00212983
1.18917e-05
0.0021241
1.00695e-05
0.00211784
1.06427e-05
0.00211073
1.2441e-05
0.00210283
1.45782e-05
0.00209435
1.66502e-05
0.00208536
1.86309e-05
0.00207575
2.06671e-05
0.00206521
2.28973e-05
0.00205341
2.53572e-05
0.00204007
2.79746e-05
0.00202501
3.0622e-05
0.00200818
3.3178e-05
0.00198962
3.5563e-05
0.00196944
3.77437e-05
0.00194776
3.97175e-05
0.00192475
4.14957e-05
0.0019006
4.30964e-05
0.00187546
4.45446e-05
0.0018495
4.58747e-05
0.00182284
4.71306e-05
0.00179554
4.83591e-05
0.00176761
4.95993e-05
0.00173903
5.08732e-05
0.00170975
5.21841e-05
0.00167971
5.35192e-05
0.0016489
5.48577e-05
0.0016173
5.6179e-05
0.00158493
5.7466e-05
0.00155183
5.87076e-05
0.00151802
5.99011e-05
0.00148357
6.10528e-05
0.0014485
6.21771e-05
0.00141284
6.32903e-05
0.00137659
6.44065e-05
0.00133974
6.55371e-05
0.00130228
6.66895e-05
0.00126418
6.78697e-05
0.00122541
6.90829e-05
0.00118594
7.03344e-05
0.0011457
7.16295e-05
0.00110465
7.29732e-05
0.00106271
7.43724e-05
0.0010198
7.58321e-05
0.000975827
7.7354e-05
0.00093069
7.89351e-05
0.000884292
8.05621e-05
0.000836535
8.22151e-05
0.000787348
8.38584e-05
0.000736693
8.54486e-05
0.000684571
8.69355e-05
0.000631043
8.82606e-05
0.000576229
8.93646e-05
0.000520306
9.01965e-05
0.000463489
9.07208e-05
0.000406007
9.09216e-05
0.000348079
9.08086e-05
0.000289883
9.0413e-05
0.000231496
8.98472e-05
0.000172754
8.94115e-05
0.000113596
8.88277e-05
5.60234e-05
8.68174e-05
9.24848e-05
3.67748e-05
-0.000129188
8.14238e-05
-0.000155051
0.000122467
-0.0001452
0.000161244
-0.000139824
0.000199553
-0.000138715
0.000238034
-0.000138647
0.000276754
-0.000138569
0.000315698
-0.000138448
0.000354886
-0.000138374
0.000394357
-0.000138363
0.00043415
-0.00013841
0.000474301
-0.000138501
0.000514835
-0.000138629
0.000555774
-0.000138788
0.000597128
-0.000138973
0.000638901
-0.000139175
0.000681088
-0.000139385
0.00072367
-0.000139589
0.00076662
-0.000139773
0.000809902
-0.000139919
0.000853468
-0.00014001
0.00089726
-0.000140026
0.000941213
-0.000139949
0.000985257
-0.000139761
0.00102931
-0.000139446
0.00107331
-0.000138993
0.00111716
-0.000138395
0.0011608
-0.000137651
0.00120417
-0.000136763
0.00124721
-0.000135738
0.00128986
-0.000134583
0.00133208
-0.000133306
0.00137384
-0.000131913
0.0014151
-0.000130412
0.00145583
-0.000128809
0.00149599
-0.000127112
0.00153554
-0.000125328
0.00157447
-0.000123466
0.00161272
-0.000121531
0.00165028
-0.000119528
0.00168711
-0.000117455
0.00172319
-0.000115312
0.00175849
-0.000113089
0.00179301
-0.000110779
0.00182673
-0.000108372
0.00185965
-0.00010586
0.00189174
-0.000103234
0.001923
-0.000100492
0.00195345
-9.76343e-05
0.00198308
-9.46637e-05
0.00201191
-9.15881e-05
0.00203995
-8.84173e-05
0.00206722
-8.51631e-05
0.00209374
-8.18378e-05
0.00211953
-7.84543e-05
0.00214458
-7.50254e-05
0.00216889
-7.15636e-05
0.00219245
-6.80814e-05
0.00221524
-6.45906e-05
0.00223721
-6.1102e-05
0.00225835
-5.76253e-05
0.0022786
-5.41687e-05
0.00229794
-5.07384e-05
0.00231634
-4.7339e-05
0.00233378
-4.39737e-05
0.00235023
-4.06441e-05
0.00236569
-3.73511e-05
0.00238014
-3.40943e-05
0.00239357
-3.08731e-05
0.00240597
-2.76862e-05
0.00241735
-2.45324e-05
0.00242768
-2.14107e-05
0.00243696
-1.83208e-05
0.00244517
-1.52631e-05
0.00245232
-1.22391e-05
0.0024584
-9.25091e-06
0.00246339
-6.3005e-06
0.00246735
-3.38822e-06
0.0024702
-5.35328e-07
0.00247197
2.26231e-06
0.00247268
5.02109e-06
0.00247235
7.72604e-06
0.002471
1.03754e-05
0.00246864
1.29587e-05
0.00246529
1.54802e-05
0.00246098
1.79353e-05
0.00245574
2.03219e-05
0.00244959
2.26394e-05
0.00244255
2.4885e-05
0.00243466
2.70557e-05
0.00242595
2.91491e-05
0.00241645
3.11631e-05
0.0024062
3.3095e-05
0.00239522
3.49435e-05
0.00238355
3.67091e-05
0.00237122
3.83934e-05
0.00235824
4.00001e-05
0.00234466
4.15338e-05
0.00233048
4.29995e-05
0.00231575
4.44018e-05
0.00230047
4.57436e-05
0.00228468
4.7026e-05
0.00226841
4.8248e-05
0.00225167
4.94067e-05
0.00223452
5.04987e-05
0.00221697
5.15205e-05
0.00219906
5.24695e-05
0.00218084
5.33449e-05
0.00216234
5.41469e-05
0.00214361
5.4877e-05
0.00212468
5.55373e-05
0.00210559
5.61294e-05
0.00208637
5.66546e-05
0.00206706
5.71133e-05
0.00204768
5.75057e-05
0.00202827
5.78315e-05
0.00200884
5.80903e-05
0.00198943
5.82822e-05
0.00197005
5.84071e-05
0.00195073
5.84652e-05
0.00193148
5.84569e-05
0.00191233
5.83827e-05
0.0018933
5.82434e-05
0.00187441
5.80396e-05
0.00185568
5.77722e-05
0.00183712
5.7442e-05
0.00181876
5.70503e-05
0.00180061
5.65989e-05
0.00178269
5.609e-05
0.001765
5.55267e-05
0.00174755
5.49125e-05
0.00173036
5.4252e-05
0.00171344
5.35501e-05
0.00169678
5.28121e-05
0.00168039
5.20436e-05
0.00166427
5.12495e-05
0.00164843
5.0434e-05
0.00163287
4.95999e-05
0.00161759
4.87485e-05
0.0016026
4.78789e-05
0.0015879
4.69885e-05
0.00157349
4.60734e-05
0.00155938
4.51288e-05
0.00154557
4.41503e-05
0.00153207
4.31348e-05
0.0015189
4.20814e-05
0.00150607
4.09917e-05
0.00149362
3.987e-05
0.00148155
3.87233e-05
0.00146991
3.75605e-05
0.00145873
3.63916e-05
0.00144802
3.52259e-05
0.00143784
3.40714e-05
0.00142821
3.29332e-05
0.0014192
3.18138e-05
0.00141086
3.07137e-05
0.00140327
2.96319e-05
0.00139651
2.85669e-05
0.00139067
2.75165e-05
0.00138582
2.64757e-05
0.00138201
2.5434e-05
0.00137926
2.43715e-05
0.00137757
2.32569e-05
0.00137693
2.20464e-05
0.00137733
2.06808e-05
0.00137867
1.90814e-05
0.00138076
1.73018e-05
0.00138342
1.53441e-05
0.00138644
1.31948e-05
0.0013896
1.08597e-05
0.00139275
8.34953e-06
0.00139581
5.68219e-06
0.00139878
2.90732e-06
0.00140159
1.81495e-07
0.00140457
-2.87711e-06
0.00140821
-5.88997e-06
0.00141256
-8.81094e-06
0.00141763
-1.16352e-05
0.00142345
-1.43581e-05
0.00143004
-1.69884e-05
0.00143737
-1.9543e-05
0.00144543
-2.20389e-05
0.00145421
-2.44883e-05
0.00146369
-2.68983e-05
0.00147384
-2.92704e-05
0.00148465
-3.16026e-05
0.00149612
-3.38896e-05
0.00150821
-3.61247e-05
0.00152093
-3.83e-05
0.00153427
-4.0407e-05
0.00154822
-4.2437e-05
0.00156276
-4.43814e-05
0.0015779
-4.62327e-05
0.00159361
-4.79854e-05
0.0016099
-4.96363e-05
0.00162675
-5.1182e-05
0.00164414
-5.26238e-05
0.00166207
-5.39632e-05
0.00168049
-5.52035e-05
0.00169941
-5.63514e-05
0.00171877
-5.74119e-05
0.00173857
-5.83918e-05
0.00175877
-5.92966e-05
0.00177933
-6.01309e-05
0.00180022
-6.08976e-05
0.00182141
-6.15971e-05
0.00184287
-6.22289e-05
0.00186456
-6.27899e-05
0.00188646
-6.32759e-05
0.00190852
-6.36822e-05
0.00193072
-6.40038e-05
0.00195301
-6.42356e-05
0.00197537
-6.43732e-05
0.00199776
-6.44135e-05
0.00202015
-6.43541e-05
0.0020425
-6.41945e-05
0.00206478
-6.39354e-05
0.00208695
-6.35784e-05
0.00210898
-6.31261e-05
0.00213085
-6.25814e-05
0.00215251
-6.1947e-05
0.00217393
-6.12256e-05
0.00219509
-6.04194e-05
0.00221595
-5.95287e-05
0.00223647
-5.85551e-05
0.00225664
-5.74975e-05
0.00227642
-5.63557e-05
0.00229578
-5.51291e-05
0.00231468
-5.38175e-05
0.00233311
-5.24207e-05
0.00235102
-5.0939e-05
0.00236839
-4.93735e-05
0.00238519
-4.77259e-05
0.00240139
-4.59985e-05
0.00241696
-4.41938e-05
0.00243188
-4.23145e-05
0.0024461
-4.03638e-05
0.00245962
-3.83452e-05
0.00247241
-3.62611e-05
0.00248443
-3.41148e-05
0.00249568
-3.19095e-05
0.00250612
-2.96483e-05
0.00251574
-2.7334e-05
0.00252453
-2.49699e-05
0.00253247
-2.25582e-05
0.00253954
-2.01025e-05
0.00254574
-1.76035e-05
0.00255106
-1.50631e-05
0.0025555
-1.24824e-05
0.00255906
-9.8629e-06
0.00256172
-7.20677e-06
0.00256353
-4.51651e-06
0.00256452
-1.79591e-06
0.00256467
9.62151e-07
0.002564
3.77326e-06
0.00256256
6.63806e-06
0.00256038
9.55013e-06
0.00255754
1.25004e-05
0.00255413
1.54778e-05
0.00255021
1.84684e-05
0.00254588
2.14593e-05
0.00254121
2.44455e-05
0.00253622
2.74349e-05
0.00253095
3.04502e-05
0.0025254
3.35235e-05
0.00251954
3.66886e-05
0.00251341
3.9972e-05
0.002507
4.33894e-05
0.00250034
4.69445e-05
0.00249345
5.06287e-05
0.00248635
5.4419e-05
0.00247903
5.82733e-05
0.00247149
6.2124e-05
0.00246369
6.58734e-05
0.0024556
6.93944e-05
0.0024472
7.25381e-05
0.00243851
7.5147e-05
0.00242964
7.70576e-05
0.00242077
7.80797e-05
0.00241203
7.79503e-05
0.00240331
7.62914e-05
0.0023942
7.26645e-05
0.00238405
6.68142e-05
0.00237213
5.90437e-05
0.00235779
5.04481e-05
0.00234056
4.26822e-05
0.0023203
3.72682e-05
0.00229731
3.48816e-05
0.00227225
3.51296e-05
0.00224596
3.6941e-05
0.00221918
3.92138e-05
0.00219249
4.12719e-05
0.00216619
4.29508e-05
0.0021404
4.44176e-05
0.00211514
4.5934e-05
0.00209034
4.76926e-05
0.00206594
4.97598e-05
0.00204181
5.20975e-05
0.00201782
5.46193e-05
0.00199376
5.72394e-05
0.00196942
5.98949e-05
0.00194463
6.25407e-05
0.00191921
6.51356e-05
0.00189307
6.76324e-05
0.00186619
6.9983e-05
0.00183858
7.21524e-05
0.00181032
7.41342e-05
0.00178149
7.59575e-05
0.00175217
7.76791e-05
0.00172241
7.93656e-05
0.0016922
8.10737e-05
0.00166155
8.28362e-05
0.00163041
8.46577e-05
0.00159875
8.65179e-05
0.00156655
8.83839e-05
0.00153379
9.02211e-05
0.0015005
9.20009e-05
0.00146669
9.37074e-05
0.00143241
9.53384e-05
0.00139768
9.69031e-05
0.00136255
9.84205e-05
0.00132705
9.99088e-05
0.0012912
0.000101391
0.001255
0.000102882
0.00121848
0.000104397
0.00118161
0.000105951
0.00114438
0.00010756
0.00110677
0.000109239
0.00106874
0.000111009
0.00103022
0.000112891
0.000991139
0.000114912
0.000951398
0.000117094
0.000910874
0.000119459
0.000869418
0.000122018
0.000826861
0.000124772
0.000783016
0.000127703
0.000737689
0.000130776
0.000690695
0.00013393
0.000641869
0.000137087
0.000591086
0.000140147
0.000538277
0.000143005
0.000483444
0.000145554
0.000426674
0.000147692
0.000368146
0.000149337
0.000308113
0.000150446
0.000246873
0.000151087
0.000184864
0.000151421
0.000122909
0.000150783
6.23473e-05
0.000147379
0.000154832
3.87602e-05
-0.000167948
9.02773e-05
-0.000206568
0.000138098
-0.00019302
0.000181976
-0.000183701
0.000224572
-0.000181311
0.000267416
-0.000181492
0.000310814
-0.000181967
0.000354642
-0.000182276
0.000398789
-0.000182521
0.00044324
-0.000182814
0.000488011
-0.000183181
0.000533116
-0.000183606
0.000578555
-0.000184069
0.000624318
-0.000184551
0.000670382
-0.000185037
0.000716717
-0.000185509
0.000763282
-0.00018595
0.000810031
-0.000186338
0.000856909
-0.000186651
0.000903856
-0.000186866
0.000950808
-0.000186961
0.000997697
-0.000186916
0.00104446
-0.000186712
0.00109103
-0.000186332
0.00113735
-0.000185764
0.00118336
-0.000185
0.001229
-0.000184038
0.00127423
-0.000182881
0.001319
-0.000181537
0.00136328
-0.000180016
0.00140703
-0.000178332
0.00145022
-0.000176497
0.00149283
-0.000174522
0.00153483
-0.000172417
0.00157621
-0.000170191
0.00161695
-0.000167848
0.00165702
-0.000165395
0.00169639
-0.000162837
0.00173504
-0.000160177
0.00177293
-0.00015742
0.00181004
-0.000154566
0.00184634
-0.000151617
0.00188183
-0.000148573
0.00191648
-0.000145433
0.0019503
-0.000142193
0.0019833
-0.000138852
0.00201547
-0.000135408
0.00204684
-0.000131861
0.00207741
-0.000128211
0.00210721
-0.000124462
0.00213624
-0.000120619
0.00216451
-0.000116689
0.00219203
-0.00011268
0.00221879
-0.000108599
0.00224479
-0.000104456
0.00227002
-0.000100257
0.00229447
-9.60109e-05
0.00231812
-9.1725e-05
0.00234093
-8.7407e-05
0.00236289
-8.30647e-05
0.00238398
-7.87058e-05
0.00240414
-7.43385e-05
0.00242338
-6.99704e-05
0.00244165
-6.56086e-05
0.00245893
-6.12596e-05
0.00247522
-5.69283e-05
0.00249048
-5.26186e-05
0.00250472
-4.83329e-05
0.00251792
-4.40725e-05
0.00253007
-3.98381e-05
0.00254117
-3.56303e-05
0.00255121
-3.14496e-05
0.00256019
-2.72977e-05
0.0025681
-2.31767e-05
0.00257495
-1.90899e-05
0.00258074
-1.50411e-05
0.00258548
-1.10348e-05
0.00258916
-7.07505e-06
0.0025918
-3.16894e-06
0.00259345
6.1416e-07
0.00259404
4.42582e-06
0.00259363
8.13976e-06
0.00259222
1.17796e-05
0.00258984
1.53413e-05
0.0025865
1.88175e-05
0.00258223
2.22106e-05
0.00257703
2.55152e-05
0.00257095
2.87271e-05
0.00256399
3.18441e-05
0.00255618
3.48612e-05
0.00254755
3.77777e-05
0.00253813
4.05908e-05
0.00252792
4.32998e-05
0.00251696
4.59039e-05
0.00250527
4.84038e-05
0.00249286
5.08017e-05
0.00247976
5.30993e-05
0.00246599
5.52998e-05
0.00245159
5.74052e-05
0.00243657
5.94176e-05
0.00242098
6.13367e-05
0.00240484
6.31616e-05
0.0023882
6.48905e-05
0.00237109
6.65209e-05
0.00235353
6.80502e-05
0.00233558
6.94765e-05
0.00231725
7.07988e-05
0.00229858
7.20169e-05
0.00227959
7.31318e-05
0.00226032
7.41451e-05
0.0022408
7.50587e-05
0.00222106
7.58747e-05
0.00220112
7.6595e-05
0.00218101
7.72212e-05
0.00216076
7.77545e-05
0.0021404
7.81962e-05
0.00211994
7.85472e-05
0.00209941
7.88086e-05
0.00207884
7.89815e-05
0.00205824
7.90669e-05
0.00203763
7.90661e-05
0.00201703
7.89803e-05
0.00199646
7.88109e-05
0.00197594
7.85594e-05
0.00195549
7.82273e-05
0.00193511
7.78165e-05
0.00191483
7.73292e-05
0.00189466
7.67679e-05
0.00187462
7.61358e-05
0.00185471
7.54367e-05
0.00183495
7.4675e-05
0.00181534
7.38553e-05
0.00179591
7.29826e-05
0.00177666
7.20618e-05
0.00175761
7.10971e-05
0.00173876
7.0092e-05
0.00172015
6.90485e-05
0.00170178
6.79673e-05
0.00168368
6.68476e-05
0.00166588
6.56872e-05
0.00164838
6.44828e-05
0.00163122
6.32309e-05
0.00161442
6.19282e-05
0.001598
6.05723e-05
0.00158197
5.91622e-05
0.00156636
5.76987e-05
0.00155116
5.61846e-05
0.00153641
5.46241e-05
0.00152211
5.30228e-05
0.00150828
5.13865e-05
0.00149495
4.97215e-05
0.00148215
4.80331e-05
0.00146989
4.63258e-05
0.00145822
4.4603e-05
0.00144717
4.28668e-05
0.00143677
4.11178e-05
0.00142704
3.93552e-05
0.00141803
3.7576e-05
0.00140978
3.57748e-05
0.00140231
3.39431e-05
0.00139567
3.2069e-05
0.00138991
3.0137e-05
0.00138504
2.81287e-05
0.00138106
2.60239e-05
0.00137794
2.38027e-05
0.00137557
2.14461e-05
0.00137392
1.89525e-05
0.00137294
1.63232e-05
0.00137262
1.35117e-05
0.00137296
1.0525e-05
0.00137393
7.38288e-06
0.00137551
4.09881e-06
0.0013778
6.13956e-07
0.00138086
-2.87543e-06
0.0013843
-6.31339e-06
0.00138819
-9.78746e-06
0.00139262
-1.32421e-05
0.00139765
-1.66581e-05
0.00140332
-2.00262e-05
0.00140967
-2.33411e-05
0.00141673
-2.66039e-05
0.0014245
-2.98137e-05
0.00143299
-3.29727e-05
0.00144217
-3.60783e-05
0.00145203
-3.91312e-05
0.00146255
-4.21261e-05
0.00147372
-4.50596e-05
0.00148552
-4.79249e-05
0.00149794
-5.07157e-05
0.00151096
-5.34243e-05
0.00152456
-5.60447e-05
0.00153875
-5.85694e-05
0.00155351
-6.09925e-05
0.00156883
-6.33087e-05
0.00158471
-6.55131e-05
0.00160113
-6.76024e-05
0.00161808
-6.95746e-05