/*--------------------------------*- C++ -*----------------------------------*\
| =========                 |                                                 |
| \\      /  F ield         | OpenFOAM: The Open Source CFD Toolbox           |
|  \\    /   O peration     | Version:  v2006                                 |
|   \\  /    A nd           | Website:  www.openfoam.com                      |
|    \\/     M anipulation  |                                                 |
\*---------------------------------------------------------------------------*/
FoamFile
{
    version     2.0;
    format      ascii;
    class       volVectorField;
    location    "20";
    object      U;
}
// * * * * * * * * * * * * * * * * * * * * * * * * * * * * * * * * * * * * * //

dimensions      [0 1 -1 0 0 0 0];


internalField   nonuniform List<vector> 
52500
(
(0.00243444 -0.00544903 0)
(0.0088976 -0.00738328 0)
(0.0158556 -0.00732547 0)
(0.0224048 -0.00706472 0)
(0.0287888 -0.0068825 0)
(0.0351328 -0.00678331 0)
(0.0414505 -0.00673644 0)
(0.0477413 -0.00671627 0)
(0.0540093 -0.00670551 0)
(0.0602556 -0.0066937 0)
(0.0664784 -0.00667584 0)
(0.0726747 -0.0066508 0)
(0.0788421 -0.00661943 0)
(0.0849785 -0.00658319 0)
(0.0910826 -0.00654331 0)
(0.0971534 -0.00650053 0)
(0.10319 -0.00645514 0)
(0.109192 -0.00640715 0)
(0.11516 -0.00635642 0)
(0.121091 -0.00630282 0)
(0.126987 -0.00624622 0)
(0.132845 -0.00618658 0)
(0.138666 -0.00612388 0)
(0.144447 -0.00605813 0)
(0.150188 -0.00598937 0)
(0.155887 -0.00591772 0)
(0.161541 -0.00584335 0)
(0.16715 -0.00576653 0)
(0.172709 -0.00568767 0)
(0.178216 -0.00560723 0)
(0.183668 -0.00552564 0)
(0.189061 -0.00544324 0)
(0.194394 -0.00536022 0)
(0.199661 -0.0052766 0)
(0.204862 -0.00519235 0)
(0.209992 -0.00510738 0)
(0.215049 -0.0050217 0)
(0.220031 -0.00493538 0)
(0.224937 -0.00484852 0)
(0.229765 -0.0047612 0)
(0.234513 -0.0046734 0)
(0.239179 -0.00458495 0)
(0.243761 -0.00449558 0)
(0.248255 -0.00440503 0)
(0.252658 -0.00431317 0)
(0.256966 -0.00422012 0)
(0.261173 -0.00412616 0)
(0.265275 -0.00403155 0)
(0.269266 -0.00393619 0)
(0.273139 -0.00383911 0)
(0.276888 -0.00373818 0)
(0.280505 -0.00362998 0)
(0.28398 -0.00351012 0)
(0.287304 -0.00337407 0)
(0.290467 -0.0032183 0)
(0.29346 -0.00304156 0)
(0.296275 -0.00284581 0)
(0.298907 -0.00263636 0)
(0.301355 -0.00242116 0)
(0.30362 -0.00220916 0)
(0.305708 -0.0020083 0)
(0.307627 -0.00182385 0)
(0.309385 -0.00165758 0)
(0.310991 -0.001508 0)
(0.312453 -0.00137141 0)
(0.313778 -0.00124337 0)
(0.314969 -0.00111992 0)
(0.316029 -0.000998459 0)
(0.316963 -0.000877931 0)
(0.317772 -0.000758651 0)
(0.318458 -0.000641822 0)
(0.319027 -0.000528982 0)
(0.31948 -0.000421482 0)
(0.319823 -0.000320087 0)
(0.320058 -0.000224694 0)
(0.320189 -0.000134081 0)
(0.320219 -4.54129e-05 0)
(0.320143 4.34773e-05 0)
(0.319962 0.00013011 0)
(0.319682 0.000213722 0)
(0.319306 0.000293155 0)
(0.318837 0.000367631 0)
(0.31828 0.000436676 0)
(0.317639 0.000500142 0)
(0.316918 0.000558334 0)
(0.316121 0.000611915 0)
(0.31525 0.000661781 0)
(0.314308 0.000708956 0)
(0.313299 0.000754508 0)
(0.312222 0.000799449 0)
(0.311081 0.000844672 0)
(0.309875 0.000890921 0)
(0.308607 0.000938823 0)
(0.307278 0.000988881 0)
(0.305889 0.0010414 0)
(0.304441 0.00109641 0)
(0.302936 0.00115362 0)
(0.301375 0.00121238 0)
(0.299761 0.00127173 0)
(0.298096 0.00133045 0)
(0.296382 0.00138728 0)
(0.294621 0.00144103 0)
(0.292817 0.00149091 0)
(0.290972 0.00153665 0)
(0.289088 0.0015787 0)
(0.287167 0.00161816 0)
(0.28521 0.00165657 0)
(0.283217 0.0016955 0)
(0.281187 0.00173619 0)
(0.279122 0.00177921 0)
(0.27702 0.00182445 0)
(0.274882 0.00187115 0)
(0.27271 0.00191827 0)
(0.270504 0.00196475 0)
(0.268268 0.00200975 0)
(0.266002 0.00205277 0)
(0.26371 0.00209357 0)
(0.261394 0.00213212 0)
(0.259057 0.00216851 0)
(0.256701 0.00220289 0)
(0.254329 0.00223546 0)
(0.251942 0.00226643 0)
(0.249543 0.00229602 0)
(0.247134 0.00232448 0)
(0.244717 0.00235207 0)
(0.242294 0.00237916 0)
(0.239865 0.00240614 0)
(0.237434 0.00243347 0)
(0.235 0.00246162 0)
(0.232566 0.00249106 0)
(0.230133 0.00252223 0)
(0.227701 0.00255553 0)
(0.225272 0.00259114 0)
(0.222847 0.00262897 0)
(0.220428 0.00266853 0)
(0.218015 0.00270884 0)
(0.215611 0.00274839 0)
(0.213218 0.00278528 0)
(0.210839 0.00281732 0)
(0.208479 0.00284237 0)
(0.206142 0.00285877 0)
(0.203833 0.00286568 0)
(0.201554 0.00286343 0)
(0.199309 0.00285362 0)
(0.1971 0.00283904 0)
(0.194925 0.00282328 0)
(0.192783 0.0028103 0)
(0.190669 0.00280383 0)
(0.188579 0.00280681 0)
(0.186505 0.00282101 0)
(0.184443 0.00284709 0)
(0.182384 0.00288485 0)
(0.180321 0.00293387 0)
(0.178247 0.00299418 0)
(0.176152 0.00306661 0)
(0.174027 0.00315284 0)
(0.17186 0.0032546 0)
(0.16964 0.00337248 0)
(0.167356 0.00350442 0)
(0.165001 0.00364461 0)
(0.162574 0.00378327 0)
(0.160083 0.00390785 0)
(0.157547 0.0040047 0)
(0.154998 0.00406227 0)
(0.152472 0.00406776 0)
(0.150007 0.00400777 0)
(0.14764 0.00387197 0)
(0.145417 0.00365109 0)
(0.143391 0.00333738 0)
(0.141615 0.00293315 0)
(0.140135 0.00246153 0)
(0.138977 0.00196832 0)
(0.138137 0.00150914 0)
(0.137582 0.0011286 0)
(0.13726 0.000845551 0)
(0.137118 0.000656233 0)
(0.137112 0.000531925 0)
(0.13722 0.000442612 0)
(0.137434 0.000360398 0)
(0.137747 0.000271676 0)
(0.138159 0.000172019 0)
(0.138673 6.15152e-05 0)
(0.139292 -5.8044e-05 0)
(0.140017 -0.000184382 0)
(0.140851 -0.000315143 0)
(0.141794 -0.000448047 0)
(0.142846 -0.000580957 0)
(0.144003 -0.000711919 0)
(0.145264 -0.000839164 0)
(0.146624 -0.000961059 0)
(0.148077 -0.0010761 0)
(0.149618 -0.00118292 0)
(0.151239 -0.00128039 0)
(0.152933 -0.00136759 0)
(0.154692 -0.00144392 0)
(0.156509 -0.00150904 0)
(0.158375 -0.00156295 0)
(0.160285 -0.00160587 0)
(0.16223 -0.00163831 0)
(0.164206 -0.00166105 0)
(0.166209 -0.00167512 0)
(0.168232 -0.00168175 0)
(0.170275 -0.00168232 0)
(0.172332 -0.00167832 0)
(0.174404 -0.0016714 0)
(0.176487 -0.0016632 0)
(0.178581 -0.00165531 0)
(0.180686 -0.00164917 0)
(0.182801 -0.00164595 0)
(0.184924 -0.00164635 0)
(0.187057 -0.00165057 0)
(0.189197 -0.00165831 0)
(0.191344 -0.00166886 0)
(0.193496 -0.00168114 0)
(0.195651 -0.00169389 0)
(0.197806 -0.0017058 0)
(0.199959 -0.00171576 0)
(0.202105 -0.00172286 0)
(0.204243 -0.00172652 0)
(0.206367 -0.00172645 0)
(0.208476 -0.00172255 0)
(0.210566 -0.00171496 0)
(0.212633 -0.00170392 0)
(0.214676 -0.00168978 0)
(0.21669 -0.00167287 0)
(0.218673 -0.0016535 0)
(0.220622 -0.00163198 0)
(0.222535 -0.00160854 0)
(0.224409 -0.0015834 0)
(0.226241 -0.00155674 0)
(0.228029 -0.00152872 0)
(0.229771 -0.00149942 0)
(0.231464 -0.00146892 0)
(0.233105 -0.00143722 0)
(0.234693 -0.00140428 0)
(0.236226 -0.00137003 0)
(0.237701 -0.00133446 0)
(0.239117 -0.00129748 0)
(0.240471 -0.00125897 0)
(0.241762 -0.00121869 0)
(0.242988 -0.00117639 0)
(0.244146 -0.00113177 0)
(0.245234 -0.00108445 0)
(0.246249 -0.00103391 0)
(0.24719 -0.00097952 0)
(0.248053 -0.000920509 0)
(0.248835 -0.000855869 0)
(0.249531 -0.00078417 0)
(0.250137 -0.000703511 0)
(0.250646 -0.000611348 0)
(0.251051 -0.000504285 0)
(0.251342 -0.000377852 0)
(0.251513 -0.000227465 0)
(0.251541 -5.90588e-05 0)
(0.251417 0.00011519 0)
(0.25114 0.000299237 0)
(0.250697 0.000503113 0)
(0.250078 0.000731518 0)
(0.249269 0.000981468 0)
(0.24826 0.00124298 0)
(0.247045 0.00150156 0)
(0.245625 0.00174325 0)
(0.244004 0.00196019 0)
(0.242191 0.00215311 0)
(0.240191 0.00232928 0)
(0.238005 0.0024975 0)
(0.23563 0.00266348 0)
(0.233061 0.00282808 0)
(0.230294 0.00298836 0)
(0.227324 0.00313992 0)
(0.224151 0.00327837 0)
(0.220779 0.00339897 0)
(0.217216 0.00349466 0)
(0.213479 0.00355658 0)
(0.209591 0.0035842 0)
(0.205576 0.0036089 0)
(0.201442 0.00371487 0)
(0.197159 0.00401326 0)
(0.192674 0.00453816 0)
(0.187966 0.00512742 0)
(0.18313 0.00544067 0)
(0.178412 0.00517531 0)
(0.174144 0.00430234 0)
(0.170604 0.00308779 0)
(0.167921 0.00190182 0)
(0.166059 0.00101695 0)
(0.164863 0.000534512 0)
(0.164119 0.000418967 0)
(0.163616 0.000563251 0)
(0.163172 0.000842611 0)
(0.162665 0.00115406 0)
(0.162027 0.00143077 0)
(0.161232 0.00163703 0)
(0.160277 0.00176231 0)
(0.159166 0.00181182 0)
(0.157909 0.00179838 0)
(0.156518 0.00173819 0)
(0.155004 0.00164842 0)
(0.153382 0.0015457 0)
(0.15167 0.00144434 0)
(0.149881 0.0013553 0)
(0.148027 0.00128609 0)
(0.146119 0.00124054 0)
(0.144162 0.00121921 0)
(0.142157 0.00122026 0)
(0.140104 0.00123995 0)
(0.137998 0.00127307 0)
(0.135836 0.00131373 0)
(0.133612 0.0013565 0)
(0.131323 0.00139736 0)
(0.128967 0.00143404 0)
(0.126545 0.00146608 0)
(0.12406 0.00149452 0)
(0.121513 0.00152137 0)
(0.118907 0.00154864 0)
(0.116246 0.00157758 0)
(0.11353 0.00160853 0)
(0.11076 0.00164117 0)
(0.107937 0.00167498 0)
(0.105059 0.00170945 0)
(0.102127 0.00174404 0)
(0.0991394 0.0017781 0)
(0.0960944 0.00181086 0)
(0.0929917 0.00184156 0)
(0.0898308 0.00186956 0)
(0.0866115 0.00189415 0)
(0.0833341 0.00191442 0)
(0.079999 0.00192941 0)
(0.0766068 0.00193785 0)
(0.0731587 0.00193833 0)
(0.0696569 0.00192945 0)
(0.0661041 0.0019098 0)
(0.0625042 0.00187819 0)
(0.0588619 0.00183376 0)
(0.055184 0.001776 0)
(0.0514787 0.00170659 0)
(0.0477551 0.00162862 0)
(0.0440239 0.0015453 0)
(0.0402963 0.00146166 0)
(0.0365829 0.00138246 0)
(0.032894 0.00131043 0)
(0.0292397 0.00124597 0)
(0.0256298 0.00118442 0)
(0.0220746 0.00111704 0)
(0.0185842 0.00103172 0)
(0.015167 0.000912558 0)
(0.0118557 0.000740887 0)
(0.00855716 0.000530765 0)
(0.00554746 0.000670977 0)
(0.00228454 0.00222023 0)
(0.001999 -0.0129677 0)
(0.00684681 -0.0155957 0)
(0.0115123 -0.0147651 0)
(0.0159361 -0.0143263 0)
(0.0203086 -0.0142317 0)
(0.0247044 -0.0141977 0)
(0.0291065 -0.0141463 0)
(0.033495 -0.0140819 0)
(0.0378695 -0.0140138 0)
(0.0422341 -0.0139443 0)
(0.0465923 -0.0138735 0)
(0.0509479 -0.0138012 0)
(0.0553043 -0.0137275 0)
(0.0596648 -0.0136529 0)
(0.0640321 -0.013578 0)
(0.0684087 -0.0135033 0)
(0.0727967 -0.0134293 0)
(0.0771981 -0.0133563 0)
(0.0816145 -0.0132843 0)
(0.0860469 -0.0132132 0)
(0.0904955 -0.013143 0)
(0.0949598 -0.0130732 0)
(0.0994383 -0.0130034 0)
(0.103928 -0.0129327 0)
(0.108427 -0.0128602 0)
(0.112929 -0.0127846 0)
(0.11743 -0.0127046 0)
(0.121925 -0.012619 0)
(0.126408 -0.0125263 0)
(0.130873 -0.0124256 0)
(0.135314 -0.0123161 0)
(0.139727 -0.0121971 0)
(0.144106 -0.0120687 0)
(0.148446 -0.0119311 0)
(0.152742 -0.0117849 0)
(0.156991 -0.0116312 0)
(0.161188 -0.0114712 0)
(0.165331 -0.0113058 0)
(0.169417 -0.0111356 0)
(0.173442 -0.0109607 0)
(0.177406 -0.0107803 0)
(0.181306 -0.0105932 0)
(0.185137 -0.0103977 0)
(0.188897 -0.0101922 0)
(0.192581 -0.00997486 0)
(0.196184 -0.00974396 0)
(0.199699 -0.0094978 0)
(0.203119 -0.00923461 0)
(0.20644 -0.00895268 0)
(0.209653 -0.00865062 0)
(0.212753 -0.00832776 0)
(0.215736 -0.00798446 0)
(0.2186 -0.00762238 0)
(0.221343 -0.00724445 0)
(0.223966 -0.00685473 0)
(0.226473 -0.00645799 0)
(0.228868 -0.0060592 0)
(0.231152 -0.00566293 0)
(0.233329 -0.00527298 0)
(0.235398 -0.00489209 0)
(0.23736 -0.00452196 0)
(0.239212 -0.00416338 0)
(0.240951 -0.00381635 0)
(0.242575 -0.00348033 0)
(0.244083 -0.00315451 0)
(0.245475 -0.00283802 0)
(0.246752 -0.00253015 0)
(0.247916 -0.00223044 0)
(0.248968 -0.00193873 0)
(0.249912 -0.00165505 0)
(0.250747 -0.00137946 0)
(0.251477 -0.00111193 0)
(0.2521 -0.000852211 0)
(0.252619 -0.000599807 0)
(0.253032 -0.000353947 0)
(0.253343 -0.000113565 0)
(0.253552 0.000122832 0)
(0.253666 0.000355693 0)
(0.253692 0.00058574 0)
(0.253631 0.000811075 0)
(0.253483 0.00103088 0)
(0.253247 0.00124447 0)
(0.252924 0.00145148 0)
(0.252513 0.00165178 0)
(0.252015 0.00184561 0)
(0.251432 0.0020334 0)
(0.250764 0.00221563 0)
(0.250013 0.00239276 0)
(0.249182 0.00256516 0)
(0.248275 0.00273298 0)
(0.247293 0.00289604 0)
(0.246242 0.00305399 0)
(0.245124 0.00320643 0)
(0.243945 0.00335286 0)
(0.242707 0.0034928 0)
(0.241417 0.00362592 0)
(0.240077 0.00375209 0)
(0.238691 0.00387133 0)
(0.237263 0.00398379 0)
(0.235794 0.00408977 0)
(0.234286 0.00418969 0)
(0.23274 0.00428415 0)
(0.231157 0.00437387 0)
(0.229538 0.00445972 0)
(0.227885 0.00454261 0)
(0.226199 0.00462336 0)
(0.224484 0.00470256 0)
(0.222743 0.00478048 0)
(0.22098 0.004857 0)
(0.219199 0.00493168 0)
(0.217403 0.00500385 0)
(0.215594 0.00507276 0)
(0.213776 0.00513764 0)
(0.21195 0.00519785 0)
(0.210118 0.00525291 0)
(0.208282 0.0053025 0)
(0.206443 0.0053464 0)
(0.204605 0.00538446 0)
(0.202768 0.00541664 0)
(0.200935 0.00544296 0)
(0.199109 0.00546353 0)
(0.197292 0.00547848 0)
(0.195487 0.00548794 0)
(0.193696 0.00549202 0)
(0.191924 0.00549078 0)
(0.190172 0.00548425 0)
(0.188443 0.00547241 0)
(0.186741 0.0054552 0)
(0.185069 0.00543251 0)
(0.183431 0.00540424 0)
(0.181829 0.00537032 0)
(0.180267 0.00533071 0)
(0.178747 0.00528546 0)
(0.177273 0.00523463 0)
(0.175845 0.00517828 0)
(0.174465 0.00511642 0)
(0.173134 0.00504898 0)
(0.171849 0.00497584 0)
(0.170611 0.00489691 0)
(0.169415 0.00481225 0)
(0.16826 0.00472216 0)
(0.167143 0.00462736 0)
(0.166063 0.00452903 0)
(0.16502 0.00442882 0)
(0.164015 0.00432873 0)
(0.163053 0.00423088 0)
(0.162137 0.00413731 0)
(0.161274 0.00404986 0)
(0.160468 0.00397002 0)
(0.159724 0.00389903 0)
(0.159049 0.00383804 0)
(0.158445 0.00378841 0)
(0.157916 0.003752 0)
(0.157463 0.00373136 0)
(0.15709 0.00372955 0)
(0.156797 0.00374953 0)
(0.156588 0.00379311 0)
(0.156462 0.00385971 0)
(0.15642 0.0039451 0)
(0.156457 0.00404074 0)
(0.156568 0.00413395 0)
(0.15674 0.0042091 0)
(0.15696 0.00424947 0)
(0.157202 0.0042397 0)
(0.157445 0.0041667 0)
(0.157678 0.0040217 0)
(0.157901 0.00379886 0)
(0.158107 0.00349235 0)
(0.15829 0.00309749 0)
(0.158437 0.00261807 0)
(0.158543 0.00207377 0)
(0.158613 0.00150118 0)
(0.158671 0.000944961 0)
(0.158753 0.00044263 0)
(0.158913 8.38281e-06 0)
(0.159175 -0.000360193 0)
(0.159546 -0.000670244 0)
(0.160033 -0.000938155 0)
(0.160631 -0.00118247 0)
(0.161334 -0.00141538 0)
(0.162135 -0.0016435 0)
(0.163024 -0.00186997 0)
(0.163996 -0.00209602 0)
(0.165046 -0.00232179 0)
(0.16617 -0.00254659 0)
(0.167366 -0.00276912 0)
(0.16863 -0.00298761 0)
(0.169962 -0.00320009 0)
(0.17136 -0.00340452 0)
(0.172823 -0.00359895 0)
(0.174348 -0.00378169 0)
(0.175934 -0.00395134 0)
(0.177579 -0.00410696 0)
(0.179282 -0.00424815 0)
(0.18104 -0.00437504 0)
(0.182851 -0.00448827 0)
(0.184714 -0.0045889 0)
(0.186625 -0.00467826 0)
(0.188582 -0.0047579 0)
(0.190583 -0.0048294 0)
(0.192626 -0.00489425 0)
(0.194708 -0.00495377 0)
(0.196829 -0.00500904 0)
(0.198987 -0.00506082 0)
(0.201179 -0.00510954 0)
(0.203405 -0.00515527 0)
(0.20566 -0.00519776 0)
(0.207941 -0.0052365 0)
(0.210246 -0.00527085 0)
(0.21257 -0.00530004 0)
(0.214909 -0.00532331 0)
(0.217256 -0.00533993 0)
(0.219608 -0.00534925 0)
(0.22196 -0.00535077 0)
(0.224306 -0.00534418 0)
(0.226642 -0.00532938 0)
(0.228965 -0.00530646 0)
(0.23127 -0.00527563 0)
(0.233553 -0.0052372 0)
(0.235813 -0.00519147 0)
(0.238045 -0.00513875 0)
(0.240247 -0.00507929 0)
(0.242416 -0.0050132 0)
(0.24455 -0.00494053 0)
(0.246646 -0.00486124 0)
(0.248702 -0.00477525 0)
(0.250713 -0.00468249 0)
(0.252677 -0.00458288 0)
(0.254592 -0.00447641 0)
(0.256452 -0.00436311 0)
(0.258256 -0.00424309 0)
(0.259999 -0.0041165 0)
(0.261679 -0.00398356 0)
(0.263292 -0.00384451 0)
(0.264835 -0.00369967 0)
(0.266304 -0.00354929 0)
(0.267698 -0.00339359 0)
(0.269014 -0.00323277 0)
(0.270248 -0.00306703 0)
(0.271399 -0.00289652 0)
(0.272465 -0.00272131 0)
(0.273444 -0.00254144 0)
(0.274335 -0.00235687 0)
(0.275136 -0.0021675 0)
(0.275846 -0.00197307 0)
(0.276465 -0.00177313 0)
(0.276993 -0.00156702 0)
(0.277431 -0.00135379 0)
(0.277779 -0.00113214 0)
(0.27804 -0.000900283 0)
(0.278218 -0.000656026 0)
(0.278317 -0.000396829 0)
(0.278336 -0.000119736 0)
(0.278291 0.000174807 0)
(0.278191 0.000480199 0)
(0.278028 0.000796646 0)
(0.2778 0.00112954 0)
(0.27751 0.00148237 0)
(0.277157 0.0018558 0)
(0.276743 0.0022483 0)
(0.276262 0.00265637 0)
(0.275707 0.0030753 0)
(0.275067 0.00350076 0)
(0.27433 0.00393055 0)
(0.273486 0.00436574 0)
(0.272525 0.00481043 0)
(0.271439 0.00527011 0)
(0.270219 0.00574933 0)
(0.268852 0.00624977 0)
(0.267324 0.00676922 0)
(0.265622 0.00730147 0)
(0.26373 0.00783674 0)
(0.261637 0.00836188 0)
(0.259334 0.00886077 0)
(0.25682 0.009316 0)
(0.254106 0.00971289 0)
(0.251233 0.0100438 0)
(0.248282 0.0103068 0)
(0.245369 0.0104892 0)
(0.242603 0.0105383 0)
(0.240039 0.0103453 0)
(0.237659 0.00978191 0)
(0.23543 0.00877971 0)
(0.233381 0.00738946 0)
(0.231613 0.00577588 0)
(0.230225 0.00416038 0)
(0.229224 0.00275081 0)
(0.228503 0.00168708 0)
(0.227897 0.00101742 0)
(0.227269 0.000708509 0)
(0.226552 0.000681668 0)
(0.225742 0.000851538 0)
(0.22486 0.00114879 0)
(0.223926 0.00152833 0)
(0.222935 0.00196327 0)
(0.221865 0.00243324 0)
(0.220677 0.00291616 0)
(0.219337 0.00338738 0)
(0.217819 0.0038243 0)
(0.216111 0.00421129 0)
(0.214213 0.0045417 0)
(0.212134 0.00481678 0)
(0.209887 0.00504333 0)
(0.207489 0.0052317 0)
(0.204958 0.00539426 0)
(0.202313 0.0055437 0)
(0.199572 0.00569135 0)
(0.19675 0.00584571 0)
(0.193858 0.00601134 0)
(0.1909 0.0061884 0)
(0.187874 0.00637319 0)
(0.184775 0.00655992 0)
(0.181599 0.00674282 0)
(0.17834 0.00691797 0)
(0.174996 0.00708393 0)
(0.171569 0.00724143 0)
(0.16806 0.00739243 0)
(0.164474 0.00753934 0)
(0.160817 0.00768482 0)
(0.157091 0.00783145 0)
(0.153302 0.00798122 0)
(0.149449 0.00813513 0)
(0.145533 0.00829333 0)
(0.141553 0.00845566 0)
(0.137506 0.00862196 0)
(0.133389 0.00879221 0)
(0.129198 0.00896641 0)
(0.124929 0.00914451 0)
(0.120576 0.00932632 0)
(0.116132 0.00951148 0)
(0.111589 0.00969923 0)
(0.106937 0.00988814 0)
(0.102166 0.0100758 0)
(0.0972653 0.0102587 0)
(0.0922235 0.0104316 0)
(0.0870322 0.0105882 0)
(0.0816847 0.0107217 0)
(0.0761782 0.0108251 0)
(0.0705165 0.0108926 0)
(0.0647094 0.0109198 0)
(0.058772 0.0109048 0)
(0.0527256 0.0108482 0)
(0.0465952 0.0107542 0)
(0.0404066 0.01063 0)
(0.0341828 0.0104859 0)
(0.0279336 0.0103414 0)
(0.0216747 0.0102371 0)
(0.0153229 0.0100961 0)
(0.00901154 0.0098079 0)
(0.00304507 0.0108161 0)
(0.00164961 -0.0193759 0)
(0.00637544 -0.0229658 0)
(0.0109618 -0.0215921 0)
(0.0152226 -0.0209422 0)
(0.0193256 -0.0208168 0)
(0.0234317 -0.0207733 0)
(0.0275686 -0.0207165 0)
(0.0317287 -0.0206605 0)
(0.0359131 -0.0206149 0)
(0.0401259 -0.0205787 0)
(0.0443713 -0.0205492 0)
(0.0486532 -0.0205253 0)
(0.0529751 -0.0205065 0)
(0.0573393 -0.0204931 0)
(0.0617477 -0.0204849 0)
(0.0662011 -0.0204817 0)
(0.0706993 -0.0204829 0)
(0.0752411 -0.0204872 0)
(0.0798241 -0.0204929 0)
(0.0844449 -0.0204978 0)
(0.0890988 -0.0204992 0)
(0.0937804 -0.0204942 0)
(0.0984829 -0.0204797 0)
(0.103199 -0.0204525 0)
(0.107921 -0.0204097 0)
(0.11264 -0.020349 0)
(0.117348 -0.0202689 0)
(0.122037 -0.0201687 0)
(0.1267 -0.0200483 0)
(0.13133 -0.0199083 0)
(0.135922 -0.0197492 0)
(0.14047 -0.0195719 0)
(0.14497 -0.0193771 0)
(0.149418 -0.0191658 0)
(0.153811 -0.0189391 0)
(0.158146 -0.0186986 0)
(0.162417 -0.0184461 0)
(0.166622 -0.0181831 0)
(0.170758 -0.017911 0)
(0.17482 -0.0176304 0)
(0.178806 -0.0173407 0)
(0.182712 -0.0170407 0)
(0.186537 -0.0167281 0)
(0.190278 -0.0164004 0)
(0.193934 -0.016055 0)
(0.197504 -0.0156897 0)
(0.200987 -0.0153028 0)
(0.204381 -0.0148935 0)
(0.207687 -0.0144617 0)
(0.210905 -0.0140081 0)
(0.214037 -0.013534 0)
(0.217083 -0.0130411 0)
(0.220045 -0.0125315 0)
(0.222927 -0.0120074 0)
(0.225729 -0.0114713 0)
(0.228452 -0.0109259 0)
(0.231098 -0.0103743 0)
(0.233663 -0.00981958 0)
(0.236147 -0.00926511 0)
(0.238545 -0.00871391 0)
(0.240856 -0.00816861 0)
(0.243074 -0.00763118 0)
(0.245196 -0.00710283 0)
(0.247219 -0.00658404 0)
(0.24914 -0.00607474 0)
(0.250955 -0.00557452 0)
(0.252665 -0.00508281 0)
(0.254267 -0.00459904 0)
(0.255761 -0.00412268 0)
(0.257146 -0.00365334 0)
(0.25842 -0.00319069 0)
(0.259583 -0.00273456 0)
(0.260634 -0.00228481 0)
(0.261572 -0.00184145 0)
(0.262395 -0.00140467 0)
(0.263104 -0.000975084 0)
(0.263697 -0.000554137 0)
(0.264177 -0.000143151 0)
(0.264541 0.000259809 0)
(0.264788 0.000653812 0)
(0.264921 0.00104021 0)
(0.264942 0.00141784 0)
(0.264851 0.00178645 0)
(0.264651 0.00214588 0)
(0.264345 0.00249576 0)
(0.263934 0.00283572 0)
(0.263422 0.00316558 0)
(0.262811 0.00348506 0)
(0.262103 0.00379379 0)
(0.261303 0.00409144 0)
(0.260413 0.00437773 0)
(0.259437 0.00465232 0)
(0.258378 0.00491478 0)
(0.25724 0.0051648 0)
(0.256026 0.00540237 0)
(0.254739 0.0056278 0)
(0.253383 0.00584183 0)
(0.251959 0.00604558 0)
(0.250472 0.00624033 0)
(0.248922 0.00642726 0)
(0.247314 0.00660717 0)
(0.245649 0.00678033 0)
(0.243931 0.00694647 0)
(0.242161 0.00710479 0)
(0.240345 0.00725431 0)
(0.238485 0.00739409 0)
(0.236584 0.00752355 0)
(0.234648 0.00764254 0)
(0.23268 0.00775137 0)
(0.230684 0.00785061 0)
(0.228666 0.00794091 0)
(0.226628 0.00802275 0)
(0.224575 0.00809636 0)
(0.22251 0.00816169 0)
(0.220437 0.0082185 0)
(0.218358 0.00826643 0)
(0.216277 0.00830517 0)
(0.214196 0.00833441 0)
(0.212117 0.00835396 0)
(0.210043 0.00836362 0)
(0.207976 0.0083633 0)
(0.205919 0.00835295 0)
(0.203873 0.00833256 0)
(0.201841 0.00830215 0)
(0.199825 0.00826175 0)
(0.197827 0.00821142 0)
(0.195849 0.00815126 0)
(0.193893 0.00808145 0)
(0.19196 0.00800228 0)
(0.190051 0.00791412 0)
(0.188169 0.00781752 0)
(0.186314 0.00771319 0)
(0.184486 0.00760207 0)
(0.182686 0.00748526 0)
(0.180916 0.00736402 0)
(0.179174 0.00723965 0)
(0.177462 0.00711339 0)
(0.17578 0.0069862 0)
(0.174128 0.00685867 0)
(0.172506 0.00673081 0)
(0.170916 0.00660204 0)
(0.169356 0.00647122 0)
(0.167828 0.00633685 0)
(0.166332 0.00619737 0)
(0.164868 0.00605141 0)
(0.163439 0.00589816 0)
(0.162046 0.00573746 0)
(0.160691 0.00556999 0)
(0.159376 0.00539717 0)
(0.158106 0.00522103 0)
(0.156882 0.00504384 0)
(0.155708 0.00486778 0)
(0.154588 0.00469464 0)
(0.153526 0.00452567 0)
(0.152526 0.00436176 0)
(0.151594 0.00420379 0)
(0.150739 0.00405299 0)
(0.149967 0.00391121 0)
(0.14929 0.00378062 0)
(0.148716 0.00366293 0)
(0.148251 0.00355808 0)
(0.147899 0.00346276 0)
(0.147662 0.00336996 0)
(0.147538 0.00326899 0)
(0.147526 0.0031501 0)
(0.147621 0.00300673 0)
(0.147809 0.00283142 0)
(0.14807 0.00261828 0)
(0.14838 0.00236472 0)
(0.148717 0.00206999 0)
(0.149059 0.00173258 0)
(0.149393 0.00135029 0)
(0.149713 0.000923781 0)
(0.150018 0.000463286 0)
(0.150324 -1.26558e-05 0)
(0.150673 -0.000498257 0)
(0.151097 -0.000977246 0)
(0.151598 -0.00143941 0)
(0.152182 -0.00187825 0)
(0.152846 -0.00229479 0)
(0.153592 -0.00269348 0)
(0.154418 -0.00307924 0)
(0.15532 -0.00345591 0)
(0.156299 -0.00382584 0)
(0.157351 -0.00419004 0)
(0.158474 -0.00454854 0)
(0.159668 -0.00490064 0)
(0.160931 -0.00524514 0)
(0.16226 -0.00558052 0)
(0.163656 -0.00590507 0)
(0.165118 -0.00621705 0)
(0.166644 -0.00651475 0)
(0.168235 -0.0067966 0)
(0.169888 -0.00706126 0)
(0.171602 -0.00730773 0)
(0.173378 -0.00753551 0)
(0.175213 -0.00774468 0)
(0.177105 -0.00793589 0)
(0.179053 -0.00811023 0)
(0.181054 -0.00826912 0)
(0.183105 -0.00841414 0)
(0.185204 -0.00854688 0)
(0.187347 -0.00866876 0)
(0.189531 -0.00878091 0)
(0.191752 -0.00888403 0)
(0.194008 -0.00897841 0)
(0.196294 -0.00906394 0)
(0.198606 -0.00914014 0)
(0.200942 -0.00920625 0)
(0.203298 -0.00926138 0)
(0.20567 -0.00930456 0)
(0.208054 -0.00933486 0)
(0.210447 -0.00935144 0)
(0.212845 -0.00935364 0)
(0.215245 -0.00934104 0)
(0.217642 -0.0093135 0)
(0.220034 -0.0092711 0)
(0.222416 -0.00921415 0)
(0.224785 -0.00914313 0)
(0.227138 -0.0090586 0)
(0.22947 -0.00896116 0)
(0.231779 -0.00885132 0)
(0.234061 -0.00872947 0)
(0.236312 -0.00859581 0)
(0.23853 -0.00845042 0)
(0.240711 -0.00829322 0)
(0.242852 -0.00812404 0)
(0.244949 -0.00794269 0)
(0.247 -0.00774903 0)
(0.249 -0.00754296 0)
(0.250948 -0.00732447 0)
(0.252839 -0.00709374 0)
(0.25467 -0.00685102 0)
(0.256439 -0.00659666 0)
(0.258142 -0.0063311 0)
(0.259775 -0.00605478 0)
(0.261337 -0.00576817 0)
(0.262824 -0.00547173 0)
(0.264234 -0.00516598 0)
(0.265564 -0.00485141 0)
(0.266811 -0.00452855 0)
(0.267973 -0.00419785 0)
(0.269049 -0.00385972 0)
(0.270036 -0.00351456 0)
(0.270932 -0.00316272 0)
(0.271736 -0.00280454 0)
(0.272448 -0.00244032 0)
(0.273065 -0.00207035 0)
(0.273588 -0.00169491 0)
(0.274016 -0.00131437 0)
(0.274349 -0.000929207 0)
(0.274588 -0.000540375 0)
(0.274737 -0.000148866 0)
(0.274799 0.000250278 0)
(0.274771 0.000664777 0)
(0.274656 0.00109537 0)
(0.27446 0.00154043 0)
(0.27419 0.00199884 0)
(0.273853 0.00246958 0)
(0.273457 0.00295082 0)
(0.273014 0.00343999 0)
(0.27253 0.00393502 0)
(0.272012 0.0044359 0)
(0.271462 0.00494566 0)
(0.270883 0.00547001 0)
(0.270272 0.00601591 0)
(0.269629 0.00658973 0)
(0.268957 0.00719589 0)
(0.268256 0.00783612 0)
(0.267529 0.0085091 0)
(0.26678 0.00920992 0)
(0.266008 0.00992927 0)
(0.265213 0.0106523 0)
(0.264392 0.0113576 0)
(0.263542 0.0120179 0)
(0.262658 0.012602 0)
(0.26174 0.0130785 0)
(0.260795 0.0134171 0)
(0.259838 0.0135818 0)
(0.25889 0.0135155 0)
(0.25796 0.0131231 0)
(0.25702 0.012279 0)
(0.25601 0.0108841 0)
(0.254852 0.00896457 0)
(0.253465 0.00675497 0)
(0.251785 0.00467518 0)
(0.249775 0.00316617 0)
(0.247443 0.00247307 0)
(0.244845 0.0025366 0)
(0.242069 0.00307119 0)
(0.239207 0.00374709 0)
(0.236331 0.00433979 0)
(0.233486 0.0047759 0)
(0.230695 0.00509175 0)
(0.22796 0.00536659 0)
(0.22528 0.00567033 0)
(0.222647 0.00603852 0)
(0.220052 0.00647169 0)
(0.217479 0.00694899 0)
(0.21491 0.00744462 0)
(0.212323 0.00793824 0)
(0.209696 0.00841737 0)
(0.20701 0.00887438 0)
(0.20425 0.00930289 0)
(0.201409 0.00969671 0)
(0.198488 0.0100515 0)
(0.195493 0.0103675 0)
(0.192432 0.0106509 0)
(0.189315 0.0109132 0)
(0.186149 0.0111677 0)
(0.182937 0.0114258 0)
(0.179678 0.0116945 0)
(0.176369 0.0119755 0)
(0.173005 0.0122656 0)
(0.169585 0.0125592 0)
(0.166104 0.0128494 0)
(0.162566 0.0131305 0)
(0.15897 0.0133991 0)
(0.155321 0.0136547 0)
(0.151623 0.0138995 0)
(0.14788 0.0141369 0)
(0.144095 0.014371 0)
(0.140272 0.0146054 0)
(0.136412 0.014843 0)
(0.132516 0.0150862 0)
(0.128584 0.0153366 0)
(0.124616 0.0155963 0)
(0.120607 0.0158673 0)
(0.116556 0.0161517 0)
(0.112457 0.0164522 0)
(0.108302 0.0167715 0)
(0.104082 0.0171119 0)
(0.0997859 0.0174747 0)
(0.0953985 0.0178597 0)
(0.0909028 0.0182648 0)
(0.0862797 0.0186849 0)
(0.0815083 0.0191119 0)
(0.076568 0.0195348 0)
(0.0714393 0.0199402 0)
(0.0661065 0.0203124 0)
(0.0605586 0.0206356 0)
(0.0547914 0.020896 0)
(0.0488097 0.0210831 0)
(0.042627 0.0211914 0)
(0.0362683 0.02122 0)
(0.0297591 0.0211866 0)
(0.0231432 0.0211534 0)
(0.0164534 0.0210962 0)
(0.00986594 0.0206743 0)
(0.00352712 0.0216256 0)
(0.00157767 -0.0257913 0)
(0.00690195 -0.0312104 0)
(0.0123119 -0.0291449 0)
(0.0171981 -0.0279296 0)
(0.0217816 -0.027677 0)
(0.0263406 -0.0276996 0)
(0.0309619 -0.0277301 0)
(0.0356372 -0.0277454 0)
(0.0403508 -0.0277662 0)
(0.0450969 -0.0278011 0)
(0.0498761 -0.0278489 0)
(0.0546907 -0.0279069 0)
(0.0595415 -0.0279728 0)
(0.0644279 -0.0280445 0)
(0.0693479 -0.02812 0)
(0.0742988 -0.028197 0)
(0.0792768 -0.0282725 0)
(0.0842772 -0.0283432 0)
(0.0892946 -0.0284056 0)
(0.0943226 -0.0284559 0)
(0.0993547 -0.0284905 0)
(0.104384 -0.0285055 0)
(0.109403 -0.0284974 0)
(0.114404 -0.0284629 0)
(0.119382 -0.0283994 0)
(0.124329 -0.028305 0)
(0.129241 -0.0281791 0)
(0.13411 -0.0280217 0)
(0.138933 -0.027834 0)
(0.143705 -0.0276177 0)
(0.148421 -0.0273746 0)
(0.153079 -0.0271067 0)
(0.157676 -0.0268158 0)
(0.16221 -0.0265033 0)
(0.166678 -0.0261705 0)
(0.171078 -0.0258185 0)
(0.175407 -0.0254482 0)
(0.179663 -0.0250608 0)
(0.183844 -0.0246571 0)
(0.187945 -0.0242379 0)
(0.191964 -0.0238037 0)
(0.195897 -0.0233546 0)
(0.199744 -0.0228906 0)
(0.203501 -0.0224109 0)
(0.207169 -0.0219148 0)
(0.210749 -0.0214016 0)
(0.21424 -0.0208704 0)
(0.217643 -0.0203209 0)
(0.220961 -0.0197533 0)
(0.224195 -0.0191681 0)
(0.227347 -0.0185666 0)
(0.230416 -0.0179505 0)
(0.233405 -0.0173215 0)
(0.236313 -0.0166816 0)
(0.23914 -0.0160326 0)
(0.241885 -0.0153762 0)
(0.244547 -0.0147136 0)
(0.247124 -0.0140462 0)
(0.249614 -0.013375 0)
(0.252013 -0.012701 0)
(0.25432 -0.0120252 0)
(0.256531 -0.0113487 0)
(0.258642 -0.0106729 0)
(0.260652 -0.00999885 0)
(0.262557 -0.00932773 0)
(0.264356 -0.00866048 0)
(0.266047 -0.0079978 0)
(0.267628 -0.00734011 0)
(0.269098 -0.00668752 0)
(0.270457 -0.00603997 0)
(0.271702 -0.00539732 0)
(0.272835 -0.00475942 0)
(0.273854 -0.00412626 0)
(0.274759 -0.00349802 0)
(0.27555 -0.00287509 0)
(0.276227 -0.00225807 0)
(0.276791 -0.00164754 0)
(0.277241 -0.00104378 0)
(0.27758 -0.000448756 0)
(0.277809 0.000137909 0)
(0.277929 0.00071356 0)
(0.277938 0.00127776 0)
(0.277841 0.00183044 0)
(0.277638 0.00237124 0)
(0.277331 0.00289968 0)
(0.276922 0.00341521 0)
(0.276415 0.00391716 0)
(0.27581 0.00440507 0)
(0.27511 0.00487845 0)
(0.274319 0.00533672 0)
(0.273438 0.0057794 0)
(0.27247 0.00620607 0)
(0.271418 0.00661644 0)
(0.270283 0.0070104 0)
(0.269069 0.0073881 0)
(0.267777 0.00774991 0)
(0.26641 0.00809634 0)
(0.26497 0.00842793 0)
(0.263461 0.0087452 0)
(0.261884 0.00904856 0)
(0.260243 0.00933815 0)
(0.258542 0.00961389 0)
(0.256785 0.0098755 0)
(0.254976 0.0101226 0)
(0.253118 0.0103548 0)
(0.251215 0.0105717 0)
(0.249271 0.010773 0)
(0.247288 0.0109587 0)
(0.245269 0.0111287 0)
(0.243219 0.0112834 0)
(0.241141 0.0114228 0)
(0.239036 0.0115473 0)
(0.23691 0.0116571 0)
(0.234764 0.0117524 0)
(0.232601 0.0118334 0)
(0.230425 0.0119003 0)
(0.228237 0.0119533 0)
(0.226041 0.0119924 0)
(0.223839 0.0120179 0)
(0.221632 0.0120299 0)
(0.219424 0.0120287 0)
(0.217216 0.0120143 0)
(0.21501 0.0119871 0)
(0.212809 0.0119472 0)
(0.210613 0.0118949 0)
(0.208426 0.0118304 0)
(0.206247 0.0117541 0)
(0.20408 0.0116664 0)
(0.201926 0.0115677 0)
(0.199785 0.0114589 0)
(0.197659 0.0113405 0)
(0.19555 0.0112137 0)
(0.193459 0.0110792 0)
(0.191386 0.010938 0)
(0.189334 0.0107909 0)
(0.187303 0.0106385 0)
(0.185296 0.0104811 0)
(0.183314 0.0103188 0)
(0.18136 0.0101513 0)
(0.179436 0.00997827 0)
(0.177544 0.00979898 0)
(0.175687 0.00961276 0)
(0.173867 0.00941903 0)
(0.172087 0.00921744 0)
(0.170348 0.00900794 0)
(0.168653 0.00879083 0)
(0.167002 0.00856681 0)
(0.165397 0.00833683 0)
(0.16384 0.0081021 0)
(0.162333 0.00786392 0)
(0.160877 0.00762362 0)
(0.159476 0.00738246 0)
(0.158133 0.00714157 0)