/*--------------------------------*- C++ -*----------------------------------*\
| =========                 |                                                 |
| \\      /  F ield         | OpenFOAM: The Open Source CFD Toolbox           |
|  \\    /   O peration     | Version:  v2006                                 |
|   \\  /    A nd           | Website:  www.openfoam.com                      |
|    \\/     M anipulation  |                                                 |
\*---------------------------------------------------------------------------*/
FoamFile
{
    version     2.0;
    format      ascii;
    class       surfaceScalarField;
    location    "14.8";
    object      alphaPhi0.water;
}
// * * * * * * * * * * * * * * * * * * * * * * * * * * * * * * * * * * * * * //

dimensions      [0 3 -1 0 0 0 0];
oriented        oriented;


internalField   nonuniform List<scalar> 
99450
(
-1.03626e-05
1.03626e-05
-5.81099e-06
-4.55163e-06
-1.28263e-06
-4.52837e-06
-8.04919e-08
-1.20215e-06
-1.30298e-06
1.22249e-06
-3.64483e-06
2.34185e-06
-6.52364e-06
2.8788e-06
-9.78086e-06
3.25722e-06
-1.34109e-05
3.63e-06
-1.74649e-05
4.05399e-06
-2.19586e-05
4.4938e-06
-2.68876e-05
4.92893e-06
-3.22369e-05
5.34931e-06
-3.79842e-05
5.74726e-06
-4.41017e-05
6.11757e-06
-5.05699e-05
6.46813e-06
-5.73498e-05
6.77996e-06
-6.4403e-05
7.05322e-06
-7.17134e-05
7.31032e-06
-7.92341e-05
7.52074e-06
-8.69485e-05
7.71437e-06
-9.48277e-05
7.87925e-06
-0.000102836
8.00862e-06
-0.000110944
8.1075e-06
-0.000119141
8.19696e-06
-0.000127419
8.27784e-06
-0.000135764
8.345e-06
-0.000144173
8.4095e-06
-0.000152655
8.48231e-06
-0.000161235
8.57988e-06
-0.000169951
8.71597e-06
-0.000178852
8.90026e-06
-0.00018803
9.17876e-06
-0.00019758
9.54972e-06
-0.000207611
1.00314e-05
-0.000218211
1.05992e-05
-0.000229411
1.12008e-05
-0.000241195
1.17833e-05
-0.000253522
1.23277e-05
-0.000266372
1.28493e-05
-0.000279735
1.33637e-05
-0.000293594
1.38584e-05
-0.000307859
1.42657e-05
-0.000322358
1.44985e-05
-0.000336876
1.45179e-05
-0.000351198
1.43222e-05
-0.000365144
1.39462e-05
-0.000378512
1.33676e-05
-0.000391082
1.25699e-05
-0.000402604
1.15222e-05
-0.000412863
1.02591e-05
-0.000421743
8.87991e-06
-0.000429246
7.50293e-06
-0.000435465
6.21894e-06
-0.000440534
5.06929e-06
-0.000444585
4.05105e-06
-0.000447717
3.13222e-06
-0.000449997
2.27965e-06
-0.000451469
1.47181e-06
-0.000452167
6.97921e-07
-0.00045214
-2.66812e-08
-0.000451426
-7.13618e-07
-0.000450033
-1.39301e-06
-0.000448017
-2.01688e-06
-0.000445405
-2.61116e-06
-0.000442237
-3.16826e-06
-0.000438546
-3.6912e-06
-0.000434355
-4.19062e-06
-0.000429708
-4.64708e-06
-0.000424628
-5.08044e-06
-0.000419142
-5.48628e-06
-0.000413285
-5.85661e-06
-0.000407086
-6.19887e-06
-0.000400568
-6.5176e-06
-0.000393756
-6.81227e-06
-0.000386675
-7.0808e-06
-0.000379354
-7.32093e-06
-0.000371823
-7.5317e-06
-0.000364114
-7.70891e-06
-0.000356252
-7.86207e-06
-0.000348277
-7.97487e-06
-0.000340248
-8.02895e-06
-0.000332194
-8.05413e-06
-0.000324171
-8.02274e-06
-0.000316233
-7.93847e-06
-0.000308432
-7.80105e-06
-0.000300833
-7.59908e-06
-0.000293515
-7.31726e-06
-0.000286544
-6.97104e-06
-0.000280013
-6.53119e-06
-0.000274026
-5.98703e-06
-0.000268704
-5.32152e-06
-0.000264197
-4.50724e-06
-0.000260693
-3.50443e-06
-0.000258467
-2.22586e-06
-0.00025793
-5.36689e-07
-0.000259373
1.44253e-06
-0.000263117
3.74433e-06
-0.000269178
6.06109e-06
-0.000277321
8.14273e-06
-0.000287142
9.82102e-06
-0.000298121
1.09793e-05
-0.000309682
1.15608e-05
-0.0003213
1.16176e-05
-0.000332564
1.1264e-05
-0.000343123
1.0559e-05
-0.000352685
9.5626e-06
-0.000360926
8.24076e-06
-0.000367461
6.53499e-06
-0.000371889
4.42842e-06
-0.000373842
1.9524e-06
-0.000373098
-7.44082e-07
-0.000369902
-3.19585e-06
-0.000364727
-5.17482e-06
-0.000358182
-6.545e-06
-0.000350756
-7.42605e-06
-0.000342773
-7.9833e-06
-0.000334438
-8.33465e-06
-0.000325876
-8.56243e-06
-0.000317147
-8.72814e-06
-0.000308287
-8.86091e-06
-0.000299324
-8.96227e-06
-0.000290288
-9.03604e-06
-0.000281178
-9.11053e-06
-0.000271996
-9.18155e-06
-0.000262738
-9.25773e-06
-0.000253405
-9.33327e-06
-0.000243976
-9.4291e-06
-0.000234455
-9.52137e-06
-0.000224836
-9.61894e-06
-0.00021511
-9.72592e-06
-0.000205277
-9.83276e-06
-0.000195327
-9.95007e-06
-0.000185257
-1.00702e-05
-0.000175052
-1.02052e-05
-0.000164699
-1.03526e-05
-0.000154183
-1.05165e-05
-0.000143493
-1.06891e-05
-0.000132613
-1.08805e-05
-0.00012152
-1.10932e-05
-0.000110209
-1.13107e-05
-9.8668e-05
-1.15411e-05
-8.68726e-05
-1.17954e-05
-7.4768e-05
-1.21046e-05
-6.231e-05
-1.2458e-05
-4.94251e-05
-1.28848e-05
-3.62428e-05
-1.31824e-05
-2.24385e-05
-1.38043e-05
-8.70572e-06
-1.37327e-05
-8.70572e-06
-1.38047e-05
2.41673e-05
-1.50527e-05
-3.30367e-06
-1.70511e-05
-2.52994e-06
-2.31804e-05
4.92719e-06
-3.19507e-05
9.99275e-06
-4.17462e-05
1.21374e-05
-5.18871e-05
1.30197e-05
-6.23619e-05
1.37321e-05
-7.32876e-05
1.45557e-05
-8.4749e-05
1.55153e-05
-9.67387e-05
1.64836e-05
-0.000109222
1.74121e-05
-0.000122187
1.83143e-05
-0.000135558
1.91184e-05
-0.000149318
1.98779e-05
-0.000163381
2.05304e-05
-0.000177707
2.11059e-05
-0.00019224
2.1587e-05
-0.000206891
2.19613e-05
-0.00022161
2.22397e-05
-0.000236317
2.24213e-05
-0.000250928
2.24898e-05
-0.000265399
2.24803e-05
-0.000279657
2.23651e-05
-0.000293635
2.2175e-05
-0.000307265
2.19076e-05
-0.000320487
2.15674e-05
-0.00033324
2.11621e-05
-0.000345453
2.06955e-05
-0.000357051
2.01778e-05
-0.000367953
1.9618e-05
-0.000378081
1.90287e-05
-0.000387337
1.84338e-05
-0.000395633
1.78458e-05
-0.000402913
1.73121e-05
-0.000409173
1.68589e-05
-0.000414469
1.64966e-05
-0.000418904
1.6218e-05
-0.000422583
1.60072e-05
-0.000425579
1.58449e-05
-0.000427939
1.57237e-05
-0.000429724
1.56439e-05
-0.000431044
1.55856e-05
-0.000432048
1.55022e-05
-0.00043288
1.53498e-05
-0.000433673
1.5115e-05
-0.000434532
1.48059e-05
-0.000435536
1.43713e-05
-0.000436705
1.3739e-05
-0.000438067
1.28841e-05
-0.000439619
1.18109e-05
-0.000441306
1.05673e-05
-0.000443032
9.22902e-06
-0.000444687
7.87405e-06
-0.000446177
6.55946e-06
-0.000447439
5.31233e-06
-0.000448442
4.1356e-06
-0.000449186
3.02379e-06
-0.000449685
1.97038e-06
-0.000449951
9.64021e-07
-0.000449968
-9.36102e-09
-0.00044969
-9.91997e-07
-0.000449221
-1.86207e-06
-0.000448534
-2.70383e-06
-0.000447595
-3.5504e-06
-0.00044643
-4.33268e-06
-0.000445033
-5.08839e-06
-0.000443384
-5.84004e-06
-0.000441474
-6.5564e-06
-0.000439315
-7.23982e-06
-0.000436903
-7.89832e-06
-0.000434227
-8.53275e-06
-0.000431282
-9.1438e-06
-0.000428067
-9.73217e-06
-0.000424581
-1.0299e-05
-0.000420818
-1.08429e-05
-0.000416779
-1.136e-05
-0.00041245
-1.18614e-05
-0.000407821
-1.23378e-05
-0.000402896
-1.2787e-05
-0.000397672
-1.31988e-05
-0.000392131
-1.35702e-05
-0.000386291
-1.38936e-05
-0.000380171
-1.41425e-05
-0.000373791
-1.4319e-05
-0.000367146
-1.44459e-05
-0.000360256
-1.44888e-05
-0.00035316
-1.44132e-05
-0.000345881
-1.42508e-05
-0.000338436
-1.39759e-05
-0.000330863
-1.35595e-05
-0.000323203
-1.29822e-05
-0.000315456
-1.22538e-05
-0.000307649
-1.13112e-05
-0.000299741
-1.01341e-05
-0.000291613
-8.66439e-06
-0.000283235
-6.93629e-06
-0.000274538
-4.95224e-06
-0.000265578
-2.89838e-06
-0.00025645
-9.8553e-07
-0.000247218
5.88879e-07
-0.000237651
1.41251e-06
-0.000227479
1.38801e-06
-0.000216531
6.69668e-07
-0.00020466
-6.06452e-07
-0.000191564
-2.53726e-06
-0.000177163
-4.83794e-06
-0.000161527
-7.3952e-06
-0.000144904
-1.00884e-05
-0.000127705
-1.27709e-05
-0.000110495
-1.52572e-05
-9.39011e-05
-1.73381e-05
-7.82009e-05
-1.88961e-05
-6.34704e-05
-1.99053e-05
-4.9612e-05
-2.04034e-05
-3.65252e-05
-2.05129e-05
-2.41516e-05
-2.03569e-05
-1.24534e-05
-2.00328e-05
-1.40616e-06
-1.96097e-05
8.99042e-06
-1.91247e-05
1.87228e-05
-1.85933e-05
2.7761e-05
-1.80004e-05
3.60878e-05
-1.73629e-05
4.36777e-05
-1.67004e-05
5.05122e-05
-1.60161e-05
5.65868e-05
-1.53323e-05
6.19154e-05
-1.46619e-05
6.64948e-05
-1.40085e-05
7.0323e-05
-1.33495e-05
7.33939e-05
-1.26898e-05
7.56742e-05
-1.20063e-05
7.71752e-05
-1.13338e-05
7.78961e-05
-1.06709e-05
7.78322e-05
-1.00063e-05
7.69863e-05
-9.35936e-06
7.53708e-05
-8.73702e-06
7.30375e-05
-8.18316e-06
6.99892e-05
-7.64089e-06
6.62818e-05
-7.17308e-06
6.19515e-05
-6.76285e-06
5.70697e-05
-6.42887e-06
5.16956e-05
-6.16699e-06
4.58622e-05
-5.96197e-06
3.95913e-05
-5.83374e-06
3.28612e-05
-5.72788e-06
2.55991e-05
-5.62276e-06
1.7994e-05
-5.5773e-06
1.11823e-05
-6.99258e-06
7.0485e-06
-9.59893e-06
-1.65722e-06
-1.3338e-05
3.75053e-05
-1.17461e-05
-4.89554e-06
-9.4651e-06
-4.81096e-06
-1.14389e-05
6.90096e-06
-1.71935e-05
1.57474e-05
-2.48162e-05
1.976e-05
-3.2997e-05
2.12006e-05
-4.14116e-05
2.21467e-05
-5.02274e-05
2.33715e-05
-5.95948e-05
2.48828e-05
-6.96022e-05
2.64909e-05
-8.02462e-05
2.80562e-05
-9.14694e-05
2.95374e-05
-0.000103246
3.08952e-05
-0.000115501
3.21327e-05
-0.000128203
3.32325e-05
-0.000141282
3.41848e-05
-0.00015467
3.49748e-05
-0.000168307
3.5599e-05
-0.000182128
3.60599e-05
-0.000196065
3.63584e-05
-0.000210051
3.64765e-05
-0.000224037
3.64663e-05
-0.000237968
3.62957e-05
-0.000251772
3.59793e-05
-0.000265411
3.5546e-05
-0.000278829
3.49858e-05
-0.000292
3.43333e-05
-0.000304885
3.35804e-05
-0.000317453
3.27452e-05
-0.000329678
3.18437e-05
-0.000341536
3.08868e-05
-0.000352995
2.98927e-05
-0.000364033
2.88841e-05
-0.000374594
2.78722e-05
-0.00038464
2.69048e-05
-0.000394137
2.59941e-05
-0.000403057
2.51381e-05
-0.000411377
2.43272e-05
-0.000419051
2.35187e-05
-0.000426031
2.27032e-05
-0.00043229
2.1903e-05
-0.000437835
2.11306e-05
-0.000442695
2.03625e-05
-0.000446902
1.9557e-05
-0.0004505
1.87128e-05
-0.000453519
1.78249e-05
-0.000456041
1.68931e-05
-0.000458195
1.58931e-05
-0.000460107
1.47961e-05
-0.000461874
1.35786e-05
-0.000463544
1.22367e-05
-0.000465112
1.0797e-05
-0.000466535
9.29743e-06
-0.00046776
7.78397e-06
-0.000468745
6.29777e-06
-0.000469467
4.85739e-06
-0.000469907
3.46416e-06
-0.00047006
2.12257e-06
-0.000469924
8.28225e-07
-0.000469511
-4.22151e-07
-0.000468859
-1.64439e-06
-0.000467903
-2.81755e-06
-0.000466648
-3.95918e-06
-0.000465125
-5.07321e-06
-0.000463309
-6.14886e-06
-0.000461213
-7.18394e-06
-0.000458834
-8.21909e-06
-0.000456171
-9.21949e-06
-0.000453219
-1.01921e-05
-0.000449977
-1.11398e-05
-0.000446447
-1.20633e-05
-0.000442627
-1.29632e-05
-0.000438519
-1.38401e-05
-0.00043413
-1.46888e-05
-0.00042944
-1.55324e-05
-0.000424453
-1.6347e-05
-0.000419177
-1.71378e-05
-0.00041361
-1.79042e-05
-0.000407756
-1.86413e-05
-0.000401606
-1.93491e-05
-0.00039517
-2.00062e-05
-0.000388454
-2.06095e-05
-0.000381457
-2.11394e-05
-0.000374173
-2.1603e-05
-0.000366631
-2.19877e-05
-0.000358844
-2.2276e-05
-0.000350797
-2.24601e-05
-0.000342512
-2.25358e-05
-0.000334006
-2.24825e-05
-0.00032527
-2.22954e-05
-0.000316292
-2.19604e-05
-0.000307081
-2.14641e-05
-0.000297602
-2.07909e-05
-0.000287788
-1.99481e-05
-0.000277492
-1.89603e-05
-0.000266599
-1.78292e-05
-0.000254995
-1.65564e-05
-0.000242643
-1.52503e-05
-0.000229588
-1.40399e-05
-0.000215923
-1.30766e-05
-0.000201938
-1.25723e-05
-0.000187966
-1.25838e-05
-0.00017419
-1.31064e-05
-0.000160738
-1.4059e-05
-0.000147885
-1.53898e-05
-0.00013576
-1.69629e-05
-0.000124485
-1.86706e-05
-0.000114156
-2.04175e-05
-0.00010481
-2.21169e-05
-9.64232e-05
-2.36436e-05
-8.88956e-05
-2.48657e-05
-8.20727e-05
-2.5719e-05
-7.57319e-05
-2.62461e-05
-6.96303e-05
-2.6505e-05
-6.35849e-05
-2.65583e-05
-5.7486e-05
-2.64558e-05
-5.1261e-05
-2.62578e-05
-4.48727e-05
-2.59979e-05
-3.83138e-05
-2.56837e-05
-3.15878e-05
-2.53192e-05
-2.47294e-05
-2.48588e-05
-1.77755e-05
-2.43169e-05
-1.08006e-05
-2.36752e-05
-3.85339e-06
-2.29633e-05
2.99793e-06
-2.21837e-05
9.68574e-06
-2.13497e-05
1.61266e-05
-2.04494e-05
2.2275e-05
-1.9498e-05
2.80602e-05
-1.8475e-05
3.34362e-05
-1.73823e-05
3.83157e-05
-1.62132e-05
4.26106e-05
-1.49659e-05
4.62609e-05
-1.36566e-05
4.92105e-05
-1.2309e-05
5.13804e-05
-1.09069e-05
5.26899e-05
-9.49267e-06
5.31239e-05
-8.07495e-06
5.26444e-05
-6.69352e-06
5.12085e-05
-5.32694e-06
4.88429e-05
-4.06326e-06
4.5553e-05
-2.87713e-06
4.13857e-05
-1.79467e-06
3.63454e-05
-7.93405e-07
3.03908e-05
2.26693e-07
2.34705e-05
1.29755e-06
1.63595e-05
1.53369e-06
1.09531e-05
-1.58621e-06
8.82162e-06
-7.46744e-06
7.1644e-06
-1.26854e-05
5.01907e-05
-9.11859e-06
-8.4623e-06
-4.15438e-06
-9.77517e-06
-3.30935e-06
6.05592e-06
-6.34337e-06
1.87814e-05
-1.16323e-05
2.5049e-05
-1.77969e-05
2.73651e-05
-2.43483e-05
2.86981e-05
-3.13156e-05
3.03387e-05
-3.88689e-05
3.24361e-05
-4.70986e-05
3.47205e-05
-5.60326e-05
3.69902e-05
-6.56505e-05
3.91553e-05
-7.58888e-05
4.11335e-05
-8.67146e-05
4.29585e-05
-9.80796e-05
4.45975e-05
-0.000109933
4.60381e-05
-0.000122216
4.72578e-05
-0.000134866
4.82494e-05
-0.000147816
4.90092e-05
-0.000160995
4.95382e-05
-0.000174361
4.98425e-05
-0.000187827
4.99315e-05
-0.000201344
4.98129e-05
-0.000214858
4.94934e-05
-0.000228307
4.89953e-05
-0.000241652
4.83304e-05
-0.000254835
4.75169e-05
-0.000267835
4.658e-05
-0.000280604
4.55145e-05
-0.000293121
4.43601e-05
-0.000305368
4.31343e-05
-0.000317334
4.18584e-05
-0.000328995
4.05455e-05
-0.000340338
3.92149e-05
-0.000351317
3.78835e-05
-0.000361881
3.65589e-05
-0.000371979
3.52353e-05
-0.000381579
3.39273e-05
-0.000390675
3.26155e-05
-0.000399272
3.12998e-05
-0.000407352
2.99829e-05
-0.000414887
2.86657e-05
-0.000421855
2.73309e-05
-0.000428272
2.59733e-05
-0.000434128
2.45697e-05
-0.000439421
2.31171e-05
-0.000444146
2.16183e-05
-0.000448317
2.00643e-05
-0.000451974
1.84525e-05
-0.000455176
1.67813e-05
-0.000457983
1.50433e-05
-0.000460442
1.32562e-05
-0.000462586
1.1441e-05
-0.000464416
9.61425e-06
-0.000465921
7.80288e-06
-0.000467084
6.02014e-06
-0.000467893
4.27375e-06
-0.00046834
2.56913e-06
-0.00046842
9.0803e-07
-0.000468124
-7.18257e-07
-0.000467471
-2.29747e-06
-0.000466441
-3.84718e-06
-0.00046506
-5.34053e-06
-0.000463326
-6.80646e-06
-0.000461239
-8.23592e-06
-0.000458775
-9.64837e-06
-0.000455996
-1.09975e-05
-0.000452884
-1.23323e-05
-0.000449439
-1.36365e-05
-0.000445669
-1.49095e-05
-0.000441581
-1.61517e-05
-0.00043718
-1.73645e-05
-0.000432473
-1.85469e-05
-0.000427453
-1.97086e-05
-0.000422153
-2.08321e-05
-0.00041659
-2.19108e-05
-0.00041076
-2.2968e-05
-0.000404671
-2.39924e-05
-0.00039834
-2.49728e-05
-0.000391788
-2.59007e-05
-0.000385015
-2.67794e-05
-0.000378035
-2.75896e-05
-0.000370846
-2.83282e-05
-0.000363465
-2.89837e-05
-0.000355914
-2.95392e-05
-0.000348184
-3.00058e-05
-0.000340284
-3.03598e-05
-0.000332223
-3.05973e-05
-0.00032399
-3.07158e-05
-0.000315587
-3.06983e-05
-0.000307013
-3.05345e-05
-0.000298245
-3.02319e-05
-0.000289249
-2.9787e-05
-0.000279997
-2.91996e-05
-0.000270479
-2.84782e-05
-0.000260663
-2.76453e-05
-0.00025047
-2.67499e-05
-0.000239865
-2.58549e-05
-0.000228873
-2.50321e-05
-0.000217581
-2.43685e-05
-0.000206222
-2.39311e-05
-0.00019504
-2.37659e-05
-0.000184267
-2.38791e-05
-0.000174107
-2.42193e-05
-0.000164722
-2.47754e-05
-0.000156198
-2.54868e-05
-0.000148581
-2.62873e-05
-0.00014186
-2.7138e-05
-0.000135982
-2.79952e-05
-0.000130825
-2.88009e-05
-0.000126202
-2.94885e-05
-0.000121922
-2.99991e-05
-0.00011784
-3.03283e-05
-0.000113849
-3.04954e-05
-0.000109896
-3.05116e-05
-0.000105955
-3.03971e-05
-0.000102008
-3.02045e-05
-9.80413e-05
-2.99646e-05
-9.40548e-05
-2.96702e-05
-9.00525e-05
-2.93215e-05
-8.59789e-05
-2.89324e-05
-8.18197e-05
-2.84761e-05
-7.75366e-05
-2.79582e-05
-7.31308e-05
-2.73691e-05
-6.86149e-05
-2.66997e-05
-6.39818e-05
-2.59828e-05
-5.92598e-05
-2.51714e-05
-5.44732e-05
-2.42846e-05
-4.96097e-05
-2.33385e-05
-4.47141e-05
-2.22779e-05
-3.98247e-05
-2.11026e-05
-3.49773e-05
-1.98133e-05
-3.02265e-05
-1.84073e-05
-2.56304e-05
-1.69051e-05
-2.12441e-05
-1.52932e-05
-1.71479e-05
-1.35889e-05
-1.33943e-05
-1.18286e-05
-1.00672e-05
-1.00206e-05
-7.19066e-06
-8.20344e-06
-4.84566e-06
-6.40825e-06
-3.02905e-06
-4.69373e-06
-1.78035e-06
-3.04338e-06
-1.22274e-06
-1.35101e-06
-1.57199e-06
5.75945e-07
-2.75685e-06
2.48242e-06
-3.17997e-06
1.95681e-06
-3.63026e-07
-4.40315e-06
4.90554e-06
-1.2736e-05
1.20699e-05
-1.26e-05
6.27907e-05
-8.2105e-06
-1.28518e-05
-2.07404e-06
-1.59116e-05
1.54579e-07
3.8273e-06
-1.76451e-06
2.07005e-05
-6.1379e-06
2.94224e-05
-1.16609e-05
3.28882e-05
-1.77234e-05
3.47606e-05
-2.42935e-05
3.69088e-05
-3.14929e-05
3.96355e-05
-3.94248e-05
4.26524e-05
-4.81127e-05
4.56781e-05
-5.75161e-05
4.85587e-05
-6.76277e-05
5.12451e-05
-7.83855e-05
5.37163e-05
-8.9739e-05
5.5951e-05
-0.000101631
5.79302e-05
-0.000114002
5.96287e-05
-0.000126785
6.1032e-05
-0.000139912
6.21368e-05
-0.000153318
6.29436e-05
-0.000166935
6.34602e-05
-0.000180694
6.36901e-05
-0.000194531
6.36497e-05
-0.000208381
6.33436e-05
-0.000222197
6.28111e-05
-0.000235926
6.20593e-05
-0.000249518
6.11095e-05
-0.000262919
5.99811e-05
-0.00027611
5.87048e-05
-0.000289042
5.72926e-05
-0.00030167
5.57621e-05
-0.000313954
5.41428e-05
-0.000325865
5.2456e-05
-0.000337367
5.0717e-05
-0.000348423
4.89393e-05
-0.000359006
4.71422e-05
-0.000369094
4.53236e-05
-0.000378664
4.34968e-05
-0.000387704
4.16556e-05
-0.000396202
3.97981e-05
-0.000404158
3.79385e-05
-0.000411558
3.60661e-05
-0.00041841
3.41825e-05
-0.000424717
3.22801e-05
-0.0004305
3.0353e-05
-0.000435781
2.83977e-05
-0.000440563
2.6401e-05
-0.000444866
2.43664e-05
-0.0004487
2.22866e-05
-0.000452086
2.01674e-05
-0.00045505
1.80079e-05
-0.000457617
1.58233e-05
-0.000459803
1.3627e-05
-0.000461622
1.14332e-05
-0.000463075
9.25567e-06
-0.00046416
7.10525e-06
-0.000464873
4.98644e-06
-0.00046521
2.90627e-06
-0.000465172
8.69993e-07
-0.000464748
-1.14278e-06
-0.000463961
-3.08408e-06
-0.000462802
-5.00641e-06
-0.000461273
-6.86882e-06
-0.000459379
-8.70101e-06
-0.00045713
-1.04849e-05
-0.000454544
-1.22343e-05
-0.000451601
-1.39408e-05
-0.000448324
-1.56087e-05
-0.000444722
-1.72386e-05
-0.000440801
-1.88308e-05
-0.000436568
-2.03844e-05
-0.000432034
-2.18987e-05
-0.000427208
-2.33731e-05
-0.000422113
-2.48036e-05
-0.000416744
-2.62009e-05
-0.000411109
-2.75453e-05
-0.000405229
-2.88489e-05
-0.000399122
-3.00985e-05
-0.000392804
-3.12912e-05
-0.000386283
-3.24217e-05
-0.000379565
-3.34972e-05
-0.000372668
-3.44872e-05
-0.000365598
-3.53978e-05
-0.000358367
-3.62151e-05
-0.000350972
-3.69339e-05
-0.000343427
-3.7551e-05
-0.000335732
-3.80547e-05
-0.000327893
-3.84363e-05
-0.000319912
-3.86961e-05
-0.000311789
-3.88218e-05
-0.000303506
-3.88174e-05
-0.000295067
-3.86713e-05
-0.000286461
-3.83924e-05
-0.000277679
-3.79819e-05
-0.000268696
-3.74611e-05
-0.000259484
-3.68569e-05
-0.000250055
-3.61795e-05
-0.000240429
-3.54802e-05
-0.000230656
-3.48052e-05
-0.000220823
-3.42014e-05
-0.000211033
-3.37217e-05
-0.000201406
-3.33932e-05
-0.00019206
-3.32246e-05
-0.000183067
-3.32127e-05
-0.000174488
-3.33535e-05
-0.000166383
-3.35919e-05
-0.000158764
-3.39069e-05
-0.000151645
-3.42564e-05
-0.000145055
-3.45855e-05
-0.000139003
-3.48527e-05
-0.000133471
-3.50204e-05
-0.000128415
-3.50553e-05
-0.00012378
-3.49631e-05
-0.000119523
-3.47527e-05
-0.000115605
-3.44297e-05
-0.000111978
-3.40243e-05
-0.00010862
-3.35624e-05
-0.000105528
-3.30568e-05
-0.000102672
-3.25263e-05
-0.000100023
-3.19702e-05
-9.75547e-05
-3.14007e-05
-9.5218e-05
-3.08128e-05
-9.29799e-05
-3.01963e-05
-9.07874e-05
-2.95616e-05
-8.85917e-05
-2.88954e-05
-8.63848e-05
-2.81896e-05
-8.41018e-05
-2.74544e-05
-8.17168e-05
-2.66695e-05
-7.92342e-05
-2.58211e-05
-7.66008e-05
-2.49113e-05
-7.37902e-05
-2.39131e-05
-7.07885e-05
-2.2815e-05
-6.75936e-05
-2.16022e-05
-6.42102e-05
-2.02886e-05
-6.06401e-05
-1.88632e-05
-5.68933e-05
-1.73357e-05
-5.30069e-05
-1.5715e-05
-4.90132e-05
-1.40143e-05
-4.49349e-05
-1.22817e-05
-4.07997e-05
-1.05435e-05
-3.66463e-05
-8.84715e-06
-3.25404e-05
-7.14919e-06
-2.86693e-05
-5.22219e-06
-2.52283e-05
-2.86503e-06
-2.17698e-05
-9.76058e-07
-1.6782e-05
-3.03099e-06
-8.27598e-06
-1.29092e-05
1.44351e-06
-2.24555e-05
1.35135e-05
-1.26877e-05
7.54784e-05
-7.59143e-06
-1.79481e-05
-1.12405e-07
-2.33907e-05
3.42442e-06
2.90481e-07
2.34682e-06
2.17781e-05
-1.63085e-06
3.34e-05
-7.00568e-06
3.8263e-05
-1.30889e-05
4.08438e-05
-1.97602e-05
4.35802e-05
-2.71251e-05
4.70003e-05
-3.52929e-05
5.08203e-05
-4.42919e-05
5.46771e-05
-5.40999e-05
5.83668e-05
-6.46708e-05
6.1816e-05
-7.5946e-05
6.49914e-05
-8.78641e-05
6.78691e-05
-0.000100343
7.0409e-05
-0.000113323
7.26087e-05
-0.000126729
7.44384e-05
-0.000140475
7.58831e-05
-0.000154489
7.69573e-05
-0.000168687
7.76578e-05
-0.000182993
7.79964e-05
-0.000197342
7.79987e-05
-0.00021168
7.76812e-05
-0.000225928
7.70593e-05
-0.00024004
7.61714e-05
-0.000253957
7.5027e-05
-0.000267639
7.36622e-05
-0.000281037
7.21033e-05
-0.000294121
7.03769e-05
-0.000306862
6.8503e-05
-0.000319225
6.65057e-05
-0.000331182
6.44125e-05
-0.000342706
6.22409e-05
-0.000353768
6.00018e-05
-0.000364339
5.7713e-05
-0.000374411
5.53959e-05
-0.000383955
5.30401e-05
-0.00039296
5.06607e-05
-0.000401434
4.82725e-05
-0.000409357
4.58617e-05
-0.000416723
4.34324e-05
-0.000423531
4.09898e-05
-0.000429787
3.85368e-05
-0.0004355
3.60657e-05
-0.000440678
3.35753e-05
-0.000445338
3.10614e-05
-0.000449504
2.85322e-05
-0.000453191
2.59736e-05
-0.000456425
2.34012e-05
-0.000459235
2.08183e-05
-0.000461639
1.82269e-05
-0.000463646
1.56341e-05
-0.00046527
1.30574e-05
-0.000466518
1.05033e-05
-0.000467389
7.97715e-06
-0.00046789
5.48666e-06
-0.000468019
3.03579e-06
-0.000467776
6.26893e-07
-0.000467178
-1.74066e-06
-0.000466201
-4.06133e-06
-0.000464874
-6.333e-06
-0.000463189
-8.55408e-06
-0.000461157
-1.07328e-05
-0.000458776
-1.28661e-05
-0.000456065
-1.49449e-05
-0.000453025
-1.69813e-05
-0.000449663
-1.89712e-05
-0.000445987
-2.09145e-05
-0.000442005
-2.28126e-05
-0.000437726
-2.46635e-05
-0.000433157
-2.64672e-05
-0.000428308
-2.82219e-05
-0.000423187
-2.99252e-05
-0.000417801
-3.15867e-05
-0.000412169
-3.31776e-05
-0.000406298
-3.47192e-05
-0.000400195
-3.62016e-05
-0.000393868
-3.76188e-05
-0.000387325
-3.89645e-05
-0.000380594
-4.02286e-05
-0.000373663
-4.14174e-05
-0.000366546
-4.25153e-05
-0.000359244
-4.35171e-05
-0.000351765
-4.44124e-05
-0.000344116
-4.52005e-05
-0.000336298
-4.58721e-05
-0.000328318
-4.64166e-05
-0.00032017
-4.68441e-05
-0.000311857
-4.71354e-05
-0.000303373
-4.73013e-05
-0.00029473
-4.73136e-05
-0.000285916
-4.72063e-05
-0.000276925
-4.69731e-05
-0.000267756
-4.66304e-05
-0.000258433
-4.61804e-05
-0.000248943
-4.56686e-05
-0.000239316
-4.51075e-05
-0.00022959
-4.45311e-05
-0.000219818
-4.39738e-05
-0.000210067
-4.34726e-05
-0.000200434
-4.30261e-05
-0.000190999
-4.26594e-05
-0.000181843
-4.23685e-05
-0.000173073
-4.21239e-05
-0.000164735
-4.19296e-05
-0.000156889
-4.17532e-05
-0.000149573
-4.15723e-05
-0.000142787
-4.13719e-05
-0.00013652
-4.11188e-05
-0.000130748
-4.07928e-05
-0.000125415
-4.03887e-05
-0.000120483
-3.98951e-05
-0.000115924
-3.9311e-05
-0.000111703
-3.86508e-05
-0.000107795
-3.79322e-05
-0.000104198
-3.71594e-05
-0.0001009
-3.63555e-05
-9.78892e-05
-3.55366e-05
-9.51557e-05
-3.47037e-05
-9.26907e-05
-3.38658e-05
-9.04659e-05
-3.30376e-05
-8.84568e-05
-3.22054e-05
-8.66436e-05
-3.13748e-05
-8.49819e-05
-3.05571e-05
-8.34305e-05
-2.9741e-05
-8.19622e-05
-2.89227e-05
-8.05353e-05
-2.80964e-05
-7.91021e-05
-2.72544e-05
-7.76252e-05
-2.63882e-05
-7.60575e-05
-2.54808e-05
-7.43543e-05
-2.45182e-05
-7.24612e-05
-2.34954e-05
-7.03463e-05
-2.24035e-05
-6.79722e-05
-2.12373e-05
-6.53047e-05
-2.00032e-05
-6.23223e-05
-1.86973e-05
-5.9022e-05
-1.73146e-05
-5.53982e-05
-1.59056e-05
-5.14472e-05
-1.44945e-05
-4.7169e-05
-1.31253e-05
-4.26187e-05
-1.16995e-05
-3.79128e-05
-9.92808e-06
-3.31504e-05
-7.62741e-06
-2.7983e-05
-6.14354e-06
-2.11534e-05
-9.8605e-06
-1.12911e-05
-2.27716e-05
-4.62196e-07
-3.32844e-05
1.30513e-05
-1.29666e-05
8.8445e-05
-7.04106e-06
-2.38737e-05
2.31928e-06
-3.2751e-05
7.88171e-06
-5.27194e-06
8.25133e-06
2.14085e-05
4.94151e-06
3.67098e-05
-2.93663e-07
4.34982e-05
-6.41401e-06
4.69642e-05
-1.31871e-05
5.03532e-05
-2.07218e-05
5.45351e-05
-2.91531e-05
5.92515e-05
-3.85172e-05
6.40412e-05
-4.87978e-05
6.86473e-05
-5.99364e-05
7.29546e-05
-7.18853e-05
7.69404e-05
-8.45004e-05
8.04841e-05
-9.77413e-05
8.36499e-05
-0.000111499
8.63661e-05
-0.000125681
8.86204e-05
-0.000140202
9.04042e-05
-0.000154964
9.17193e-05
-0.00016988
9.25736e-05
-0.000184866
9.2983e-05
-0.000199845
9.29775e-05
-0.000214748
9.25838e-05
-0.000229512
9.18235e-05
-0.000244074
9.07338e-05
-0.000258395
8.93477e-05
-0.000272426
8.76929e-05
-0.000286126
8.58037e-05
-0.000299462
8.3713e-05
-0.000312402
8.14432e-05
-0.000324922
7.90255e-05
-0.000336986
7.64763e-05
-0.000348577
7.38326e-05
-0.000359677
7.1101e-05
-0.000370267
6.83031e-05
-0.000380329
6.54583e-05
-0.000389857
6.25683e-05
-0.000398846
5.9649e-05
-0.000407283
5.67094e-05
-0.000415171
5.375e-05
-0.000422515
5.07763e-05
-0.000429313
4.77875e-05
-0.000435565
4.47889e-05
-0.000441284
4.17853e-05
-0.00044648
3.87715e-05
-0.000451171
3.57519e-05
-0.000455366
3.27268e-05
-0.000459088
2.96958e-05
-0.00046235
2.66638e-05
-0.000465167
2.36349e-05
-0.000467556
2.06156e-05
-0.000469535
1.76133e-05
-0.000471114
1.46362e-05
-0.000472297
1.16863e-05
-0.000473092
8.7721e-06
-0.000473504
5.899e-06
-0.000473539
3.07109e-06
-0.000473202
2.8934e-07
-0.000472496
-2.44616e-06
-0.000471404
-5.15407e-06
-0.00046998
-7.75601e-06
-0.000468201
-1.03331e-05
-0.000466061
-1.28731e-05
-0.000463604
-1.53232e-05
-0.000460809
-1.77396e-05
-0.00045769
-2.0101e-05
-0.00045425
-2.24108e-05
-0.000450498
-2.4667e-05
-0.000446442
-2.68682e-05
-0.00044209
-2.90151e-05
-0.00043745
-3.11074e-05
-0.000432528
-3.31439e-05
-0.00042733
-3.51237e-05
-0.000421874
-3.70427e-05
-0.000416154
-3.88969e-05
-0.000410183
-4.06901e-05
-0.00040397
-4.24147e-05
-0.00039752
-4.40688e-05
-0.000390844
-4.56409e-05
-0.000383947
-4.7126e-05
-0.000376829
-4.85346e-05
-0.000369505
-4.98397e-05
-0.000361976
-5.10465e-05
-0.000354246
-5.21418e-05
-0.000346325
-5.31215e-05
-0.000338216
-5.39814e-05
-0.000329915
-5.47178e-05
-0.000321446
-5.53128e-05
-0.000312796
-5.57856e-05
-0.000303984
-5.61136e-05
-0.000294997
-5.62996e-05
-0.000285845
-5.63587e-05
-0.00027655
-5.62681e-05
-0.000267114
-5.60661e-05
-0.00025754
-5.5755e-05
-0.000247868
-5.53403e-05
-0.000238119
-5.4857e-05
-0.000228335
-5.43148e-05
-0.000218559
-5.37502e-05
-0.000208882
-5.3149e-05
-0.000199346
-5.25618e-05
-0.00019002
-5.19861e-05
-0.000180977
-5.14116e-05
-0.000172265
-5.08355e-05
-0.000163926
-5.02692e-05
-0.000155991
-4.96877e-05
-0.000148478
-4.90856e-05
-0.000141415
-4.84347e-05
-0.000134803
-4.77304e-05
-0.000128646
-4.69502e-05
-0.000122922
-4.61131e-05
-0.000117609
-4.52082e-05
-0.000112684
-4.42359e-05
-0.000108124
-4.32101e-05
-0.000103911
-4.21459e-05
-0.000100021
-4.10487e-05
-9.64328e-05
-3.9944e-05
-9.31341e-05
-3.88354e-05
-9.01166e-05
-3.77212e-05
-8.73551e-05
-3.66272e-05
-8.48368e-05
-3.55559e-05
-8.25434e-05
-3.44988e-05
-8.04477e-05
-3.34706e-05
-7.85248e-05
-3.248e-05
-7.67612e-05
-3.15045e-05
-7.51283e-05
-3.05556e-05
-7.35982e-05
-2.96265e-05
-7.21321e-05
-2.87204e-05
-7.06988e-05
-2.78216e-05
-6.92598e-05
-2.69198e-05
-6.7759e-05
-2.6019e-05
-6.61719e-05
-2.50824e-05
-6.44405e-05
-2.41349e-05
-6.25177e-05
-2.31602e-05
-6.03651e-05
-2.21557e-05
-5.79567e-05
-2.11057e-05
-5.52364e-05
-2.0035e-05
-5.21889e-05
-1.8953e-05
-4.87944e-05
-1.7889e-05
-4.50394e-05
-1.68803e-05
-4.09317e-05
-1.58072e-05
-3.65088e-05
-1.4351e-05
-3.1843e-05
-1.22932e-05
-2.67581e-05
-1.12285e-05
-2.04389e-05
-1.61797e-05
-1.15621e-05
-3.16483e-05
-1.24506e-06
-4.36014e-05
1.18062e-05
-1.35365e-05
0.000101981
-6.72219e-06
-3.06879e-05
4.98344e-06
-4.44566e-05
1.33061e-05
-1.35946e-05
1.58419e-05
1.88727e-05
1.36117e-05
3.89401e-05
8.76413e-06
4.83457e-05
2.68273e-06
5.30456e-05
-4.15035e-06
5.71863e-05
-1.18272e-05
6.22119e-05
-2.04902e-05
6.79146e-05
-3.01992e-05
7.37502e-05
-4.09719e-05
7.942e-05
-5.27622e-05
8.4745e-05
-6.53938e-05
8.9572e-05
-7.88309e-05
9.39212e-05
-9.293e-05
9.7749e-05
-0.000107588
0.000101024
-0.00012269
0.000103722
-0.000138115
0.00010583
-0.000153757
0.000107361
-0.000169512
0.000108329
-0.000185308
0.000108779
-0.00020102
0.000108689
-0.000216612
0.000108175
-0.000231994
0.000107205
-0.000247118
0.000105859
-0.000261933
0.000104162
-0.000276397
0.000102158
-0.000290467
9.98728e-05
-0.000304116
9.73628e-05
-0.000317318
9.46447e-05
-0.000330043
9.17508e-05
-0.000342283
8.87155e-05
-0.000354012
8.55621e-05
-0.000365224
8.23125e-05
-0.000375903
7.89826e-05
-0.000386037
7.55923e-05
-0.000395624
7.2155e-05
-0.00040466
6.86854e-05
-0.000413138
6.51869e-05
-0.00042106
6.16727e-05
-0.000428431
5.81469e-05
-0.000435261
5.46177e-05
-0.000441551
5.10788e-05
-0.000447307
4.75412e-05
-0.000452538
4.40031e-05
-0.000457261
4.04748e-05
-0.000461487
3.6952e-05
-0.000465233
3.34425e-05
-0.000468513
2.99429e-05
-0.000471342
2.64639e-05
-0.000473734
2.30078e-05
-0.0004757
1.95801e-05
-0.000477251
1.61863e-05
-0.000478397
1.28332e-05
-0.000479147
9.52174e-06
-0.000479505
6.25705e-06
-0.000479477
3.04273e-06
-0.000479065
-1.22387e-07
-0.000478277
-3.23408e-06
-0.000477146
-6.28485e-06
-0.000475635
-9.26719e-06
-0.000473767
-1.22015e-05
-0.000471568
-1.50714e-05
-0.000469017
-1.78744e-05
-0.000466135
-2.06221e-05
-0.000462924
-2.33119e-05
-0.000459394
-2.59407e-05
-0.000455551
-2.85103e-05
-0.0004514
-3.10187e-05
-0.000446949
-3.34661e-05
-0.000442204
-3.58525e-05
-0.000437171
-3.81765e-05
-0.000431855
-4.04403e-05
-0.000426269
-4.26283e-05
-0.000420414
-4.47521e-05
-0.000414295
-4.68087e-05
-0.00040792
-4.87903e-05
-0.000401298
-5.06901e-05
-0.000394432
-5.25072e-05
-0.000387324
-5.4234e-05
-0.000379996
-5.58623e-05
-0.000372433
-5.74026e-05
-0.000364659
-5.88209e-05
-0.000356668
-6.01324e-05
-0.000348469
-6.13209e-05
-0.000340067
-6.23831e-05
-0.000331474
-6.33113e-05
-0.00032268
-6.41063e-05
-0.000313725
-6.47414e-05
-0.000304604
-6.52346e-05
-0.000295305
-6.55978e-05
-0.000285874
-6.57902e-05
-0.000276296
-6.58458e-05
-0.000266607
-6.57556e-05
-0.000256829
-6.55327e-05
-0.000246972
-6.51977e-05
-0.000237085
-6.47438e-05
-0.000227197
-6.42025e-05
-0.000217381
-6.35666e-05
-0.000207655
-6.28751e-05
-0.00019809
-6.21266e-05
-0.000188754
-6.13216e-05