/*--------------------------------*- C++ -*----------------------------------*\
| =========                 |                                                 |
| \\      /  F ield         | OpenFOAM: The Open Source CFD Toolbox           |
|  \\    /   O peration     | Version:  v2006                                 |
|   \\  /    A nd           | Website:  www.openfoam.com                      |
|    \\/     M anipulation  |                                                 |
\*---------------------------------------------------------------------------*/
FoamFile
{
    version     2.0;
    format      ascii;
    class       volScalarField;
    location    "0";
    object      f;
}
// * * * * * * * * * * * * * * * * * * * * * * * * * * * * * * * * * * * * * //

dimensions      [0 0 0 0 0 0 0];


internalField   nonuniform List<scalar> 
2500
(
2.4343e-33
6.483e-27
-3.09475e-23
-3.80674e-21
9.79785e-19
-3.23736e-18
-1.25115e-16
2.78544e-15
-6.68522e-14
1.50092e-12
-1.22496e-11
-1.41375e-11
9.33904e-10
-3.71506e-08
7.99289e-07
-7.30287e-06
8.28431e-08
0.000290974
-0.00163893
-0.00573358
0.0354294
0.202365
0.445315
0.55985
0.476097
0.257796
0.0704065
5.41736e-05
-0.00277697
-0.00110345
4.20114e-05
0.000114879
2.60314e-05
-4.22095e-06
-2.9949e-06
-5.09817e-07
-3.14773e-09
2.75443e-09
1.51931e-09
6.93161e-10
2.17461e-10
4.22543e-12
-4.67814e-12
-1.14226e-12
3.15347e-15
5.47484e-15
5.63183e-16
-2.28483e-17
-9.89383e-17
-1.41973e-17
9.50481e-33
2.19727e-25
-4.31383e-22
-7.2344e-20
7.12108e-18
-8.27163e-18
-5.85497e-16
2.3722e-14
-7.2023e-13
1.79059e-11
-3.48329e-10
3.58248e-09
-1.27535e-08
-5.06687e-08
1.80599e-06
-3.06119e-05
0.000118652
0.000411911
-0.00494232
-0.00510945
0.0704406
0.24501
0.393186
0.413088
0.293135
0.131032
0.0280509
-0.0013871
-0.0013725
-0.000149663
0.000188745
8.66387e-05
6.22219e-06
-2.51102e-06
-8.56078e-07
-4.82446e-08
-2.24553e-08
-9.64999e-09
-1.24599e-09
1.08758e-10
5.52826e-11
1.85537e-12
-4.78509e-13
8.08987e-14
2.09023e-14
3.9202e-15
3.41183e-16
3.11031e-18
-5.05426e-17
-9.82206e-18
-1.79394e-29
5.94923e-24
-4.25679e-21
-9.19671e-19
3.93117e-17
-6.57748e-18
-1.66239e-15
6.13133e-14
-1.8191e-12
5.5061e-11
-1.4239e-09
2.57525e-08
-2.73915e-07
1.31224e-06
1.94984e-06
-6.79688e-05
0.000468918
0.000356983
-0.0102838
-0.00329439
0.121343
0.372124
0.591511
0.608938
0.430726
0.194213
0.04028
-0.00258962
-0.0022473
-0.000258651
0.00029292
0.000139755
1.12167e-05
-3.65966e-06
-1.64694e-06
-1.9591e-07
-2.25195e-08
-7.52437e-09
-2.71988e-10
2.79983e-10
9.1564e-11
-1.23105e-12
-2.39968e-12
-2.42134e-13
3.84068e-14
6.36021e-15
4.49534e-16
4.07421e-18
-6.80111e-17
-1.45887e-17
-2.6038e-27
1.53619e-22
-3.35379e-20
-9.82205e-18
2.19856e-16
2.13224e-18
4.84187e-15
-3.11599e-13
3.08346e-12
7.9515e-11
-2.53545e-09
7.45219e-08
-1.07449e-06
8.12294e-06
-1.98035e-05
-0.000102875
0.00118879
-0.0011534
-0.0184202
0.00660801
0.188254
0.497759
0.709068
0.668458
0.43072
0.171677
0.0247606
-0.00420281
-0.00211866
0.00027573
0.000470595
0.000155262
3.44078e-06
-3.67256e-06
-1.1157e-06
-6.99996e-08
-3.63746e-08
-1.43906e-08
-1.28111e-09
1.73522e-10
5.26841e-11
-3.76618e-12
-1.63416e-12
1.52282e-13
7.10705e-14
7.76029e-15
5.14318e-16
-1.10781e-17
-9.43273e-17
-2.14596e-17
-2.81501e-25
3.78019e-21
-1.3043e-19
-9.64588e-17
3.2155e-15
-8.31013e-14
1.82009e-12
-3.0936e-11
3.89697e-10
-3.19061e-09
5.90095e-09
1.1051e-07
-2.38567e-06
2.3297e-05
-0.000102823
-7.90971e-05
0.00235537
-0.00497275
-0.0287768
0.0221836
0.265689
0.623494
0.816745
0.726036
0.436437
0.151984
0.0120041
-0.00526722
-0.00178973
0.000778303
0.000641311
0.000161685
-1.46454e-06
-3.66684e-06
-7.19276e-07
-3.72631e-08
-3.92827e-08
-1.70386e-08
-1.25561e-09
1.6127e-10
3.64009e-11
-5.46733e-12
-1.4552e-12
3.30495e-13
1.08256e-13
8.08857e-15
5.50007e-16
-5.30155e-17
-1.33266e-16
-3.11006e-17
-2.69575e-23
8.80316e-20
1.4652e-18
-7.2924e-16
2.38059e-14
-5.24324e-13
9.46868e-12
-1.44989e-10
1.82968e-09
-1.88475e-08
1.29304e-07
-2.47925e-07
-3.09609e-06
4.48027e-05
-0.000280834
0.00036803
0.00380064
-0.0113529
-0.0399502
0.042357
0.345639
0.729274
0.880849
0.728293
0.389726
0.106249
-0.00263433
-0.00591844
-0.000554824
0.00139872
0.000797295
0.000140652
-5.86508e-06
-2.88557e-06
-5.13575e-08
2.38797e-08
-4.49723e-08
-2.04222e-08
-1.49396e-09
1.43092e-10
2.38428e-11
-4.62713e-12
7.13123e-15
6.26476e-13
1.31594e-13
7.13908e-15
5.17266e-16
-1.34342e-16
-1.87912e-16
-4.40554e-17
-2.39055e-21
1.9145e-18
1.50071e-17
-2.16337e-15
5.42357e-14
-1.03206e-12
1.72653e-11
-2.61786e-10
3.68946e-09
-4.88484e-08
4.87327e-07
-3.08398e-06
5.5511e-06
5.61371e-05
-0.000567408
0.00143529
0.00507034
-0.0204576
-0.0503724
0.0666532
0.417676
0.799577
0.895015
0.675812
0.311
0.0586895
-0.0112009
-0.00617788
0.00103681
0.00195646
0.000848146
9.38832e-05
-5.82767e-06
-1.01716e-06
5.77637e-07
6.5696e-08
-5.33731e-08
-2.1047e-08
-9.23021e-10
1.68269e-10
1.81383e-11
-2.83464e-12
1.32786e-12
8.37232e-13
1.15917e-13
5.01484e-15
3.53141e-16
-2.68682e-16
-2.59701e-16
-6.0489e-17
-1.96999e-19
4.06725e-17
-3.64246e-16
1.33547e-14
-4.16415e-13
7.89334e-12
-9.88553e-11
7.38067e-10
1.08863e-10
-6.79327e-08
1.03795e-06
-1.00665e-05
4.6937e-05
-6.33777e-06
-0.00089271
0.00325287
0.00551767
-0.0317727
-0.0586727
0.0925636
0.471827
0.824814
0.849579
0.568361
0.215052
0.0150248
-0.0143579
-0.00473034
0.00268013
0.00235101
0.000760726
3.80424e-05
-2.81474e-06
1.57315e-06
1.15004e-06
7.56551e-08
-6.26159e-08
-1.93598e-08
-5.5072e-11
2.26018e-10
8.27448e-12
-1.61137e-12
2.14775e-12
8.98101e-13
5.74034e-14
2.02219e-15
-1.8162e-17
-4.66048e-16
-3.46632e-16
-7.98803e-17
-1.44431e-17
1.21729e-15
-3.52085e-14
7.38996e-13
-1.27299e-11
1.81424e-10
-2.08716e-09
1.84611e-08
-1.15598e-07
3.54924e-07
1.17963e-06
-2.03246e-05
0.000133128
-0.000277831
-0.00110246
0.00583887
0.00444757
-0.0439815
-0.0638187
0.1158
0.500932
0.797455
0.741623
0.430226
0.120054
-0.0148112
-0.0143691
-0.000669311
0.0040482
0.00250271
0.000550082
-4.06008e-06
-1.44292e-07
4.05181e-06
1.52854e-06
-2.28625e-09
-6.89932e-08
-1.32035e-08
9.36836e-10
2.84053e-10
-1.52886e-11
-3.38798e-12
2.14279e-12
6.13604e-13
-2.20542e-14
-3.96119e-15
-6.63465e-16
-7.22415e-16
-4.40849e-16
-1.0078e-16
-3.2029e-16
8.65595e-15
-1.81978e-13
3.16631e-12
-4.86537e-11
6.53573e-10
-7.43957e-09
6.74442e-08
-4.85436e-07
2.34357e-06
-4.92698e-06
-2.51698e-05
0.000255717
-0.000775671
-0.00101281
0.00882438
0.00176541
-0.0554647
-0.0655952
0.13276
0.503385
0.707114
0.592315
0.28376
0.0399816
-0.0268114
-0.0129182
0.00318587
0.00475939
0.00218967
0.000282509
-1.74839e-05
3.32588e-06
6.06256e-06
1.52728e-06
-1.11947e-07
-7.23273e-08
-4.99337e-09
1.56958e-09
2.4214e-10
-4.88189e-11
-7.41249e-12
1.20354e-12
4.78859e-14
-9.73528e-14
-1.1742e-14
-1.48639e-15
-1e-15
-5.27731e-16
-1.20827e-16
-1.1397e-15
1.79031e-14
-3.14722e-13
5.00922e-12
-7.37684e-11
9.86488e-10
-1.17223e-08
1.22488e-07
-1.0913e-06
6.73057e-06
-2.51068e-05
9.48974e-06
0.00036299
-0.00149937
-0.000157491
0.0118621
-0.00191414
-0.0648439
-0.0645819
0.142079
0.471721
0.582015
0.419248
0.149268
-0.0152716
-0.0276016
-0.00676541
0.0056457
0.00465839
0.00140472
2.53854e-05
-1.17552e-05
1.07676e-05
7.35596e-06
9.97407e-07
-1.81621e-07
-6.25378e-08
3.30082e-09
1.95016e-09
-4.81625e-11
-8.79366e-11
-8.50581e-12
1.0567e-13
-3.9626e-13
-1.38215e-13
-1.2009e-14
-2.29026e-15
-1.22417e-15
-5.89161e-16
-1.37212e-16
1.63561e-14
-3.47782e-13
6.23571e-12
-8.05486e-11
7.6182e-10
-4.98361e-09
1.67998e-08
6.76971e-08
-1.43028e-06
1.29915e-05
-6.54504e-05
0.000129786
0.000376486
-0.00232793
0.00118305
0.0143791
-0.00649806
-0.0711847
-0.0616085
0.143726
0.402463
0.431571
0.254236
0.0436977
-0.0413683
-0.0246663
0.000555718
0.00650206
0.00361397
0.000562179
-0.000106185
-1.13712e-05
1.78966e-05
7.60754e-06
2.69e-07
-1.83872e-07
-2.29247e-08
1.00816e-08
2.14819e-09
-3.55471e-10
-1.19111e-10
-1.91628e-12
1.66576e-13
-4.19938e-13
-1.18384e-13
-8.61597e-15
-2.71295e-15
-1.3244e-15
-6.10475e-16
-1.47472e-16
5.67913e-13
-4.4252e-12
5.47795e-11
-5.80539e-10
5.2713e-09
-4.02319e-08
2.36632e-07
-9.46144e-07
9.17238e-07
1.64207e-05
-0.00012003
0.000341464
0.000137741
-0.00308971
0.00307343
0.0160405
-0.0112251
-0.0750896
-0.0557931
0.133223
0.306227
0.27883
0.116487
-0.0247198
-0.044878
-0.0175179
0.00452851
0.00553133
0.00176666
-0.000141954
-0.000117608
7.42024e-06
2.11409e-05
5.43399e-06
-3.08547e-07
-1.56031e-07
2.1611e-08
1.35954e-08
7.07803e-10
-5.48449e-10
-1.01827e-10
1.16564e-11
2.73458e-12
-1.74338e-14
-2.73405e-14
-6.1619e-15
-2.71206e-15
-1.25577e-15
-5.8576e-16
-1.50272e-16
2.88569e-12
-1.3804e-11
1.41164e-10
-1.33732e-09
1.21502e-08
-1.03148e-07
6.92688e-07
-3.53725e-06
1.02163e-05
4.31068e-06
-0.000164137
0.000619145
-0.000327256
-0.0036087
0.00530204
0.0167206
-0.0155202
-0.0759486
-0.0477882
0.105098
0.198679
0.147504
0.015852
-0.0557915
-0.0387205
-0.00659282
0.0056968
0.00330399
3.19125e-05
-0.000482292
-0.00010494
3.85717e-05
2.16017e-05
1.9793e-06
-5.65575e-07
-8.24774e-08
4.99103e-08
1.40551e-08
-1.42953e-09
-6.28091e-10
1.59878e-11
3.01134e-11
5.6333e-12
4.55179e-13
3.25973e-14
-5.3113e-15
-2.29165e-15
-9.97337e-16
-5.18223e-16
-1.45868e-16
5.63527e-12
-1.66854e-11
8.73059e-11
-3.99648e-10
8.54919e-09
-1.26669e-07
1.10681e-06
-7.25024e-06
2.73236e-05
-3.97443e-05
-0.000166549
0.000881567
-0.000964025
-0.00376229
0.00740337
0.0166202
-0.0190149
-0.0727161
-0.0398993
0.0672561
0.105934
0.0420834
-0.0429607
-0.0568736
-0.0262267
0.00137482
0.00471243
0.000910682
-0.000970958
-0.000492603
-2.93456e-05
4.44677e-05
1.46824e-05
-8.93177e-07
-5.14271e-07
7.88166e-08
6.30975e-08
5.94113e-09
-2.43867e-09
-4.68172e-10
1.34054e-10
4.63925e-11
5.52002e-12
5.83618e-13
1.436e-14
-4.88873e-15
-6.98096e-16
-5.54008e-16
-4.23844e-16
-1.36374e-16
-6.57473e-11
5.33497e-10
-4.85107e-09
3.14889e-08
-1.41061e-07
3.35941e-07
6.94984e-07
-9.68489e-06
4.8379e-05
-0.000116763
-5.32088e-05
0.00104826
-0.00171179
-0.00355123
0.00909974
0.0160226
-0.0212105
-0.0641146
-0.0344525
0.0294247
0.0315418
-0.0234734
-0.0613276
-0.0428294
-0.0096273
0.00488159
0.00219784
-0.00126065
-0.00128233
-0.000354943
5.06224e-05
3.36812e-05
6.99302e-07
-2.688e-06
-3.80995e-07
1.89919e-07
6.19587e-08
-5.02933e-09
-2.58129e-09
2.01978e-10
2.1361e-10
4.21572e-11
1.53193e-12
2.12205e-13
-1.22194e-14
2.03774e-15
3.24028e-15
-3.03607e-17
-3.35521e-16
-1.25768e-16
-8.79467e-10
3.16759e-09
-2.26476e-08
1.27564e-07
-5.72446e-07
1.90323e-06
-3.47602e-06
-5.80599e-06
6.3979e-05
-0.000213316
0.000142644
0.00107177
-0.002423
-0.0030585
0.0104497
0.0148306
-0.0213945
-0.0519613
-0.0310029
-0.00246289
-0.015804
-0.0491345
-0.0511164
-0.022377
0.00252994
0.00465639
-0.000292242
-0.00221963
-0.00116687
-0.000125896
6.17437e-05
1.37931e-05
-7.99e-06
-2.89673e-06
1.79604e-07
2.10133e-07
2.14295e-08
-9.50773e-09
-1.63522e-09
7.39137e-10
2.34334e-10
1.36263e-12
-4.46276e-12
-4.04237e-13
2.17783e-14
3.11544e-14
9.86991e-15
2.27762e-16
-3.00599e-16
-1.18625e-16
-3.4197e-09
7.93183e-09
-5.09556e-08
2.68691e-07
-1.22122e-06
4.47324e-06
-1.18532e-05
1.20894e-05
6.40884e-05
-0.000296228
0.000397258
0.000899447
-0.00293519
-0.00246236
0.0113933
0.0129296
-0.0180174
-0.037497
-0.0264447
-0.0197902
-0.0338332
-0.046777
-0.028546
-0.00225956
0.00726272
0.00220181
-0.00242062
-0.00218797
-0.000650545
5.56602e-05
3.05213e-05
-1.38193e-05
-1.04211e-05
-1.46678e-06
6.2647e-07
2.07091e-07
-1.90853e-08
-8.76397e-09
1.35748e-09
9.37105e-10
8.97389e-11
-3.95402e-11
-9.74964e-12
-4.09003e-13
1.34372e-13
7.90341e-14
1.53765e-14
-6.84489e-17
-3.30137e-16
-1.16347e-16
-6.28498e-09
1.002e-08
-6.12638e-08
3.23425e-07
-1.61235e-06
6.80059e-06
-2.21753e-05
4.239e-05
1.47469e-05
-0.000331962
0.000657313
0.00064896
-0.00338839
-0.00176957
0.0114322
0.0110695
-0.0113136
-0.0223997
-0.0187205
-0.0208857
-0.0318279
-0.0264263
-0.0057126
0.009458
0.00656631
-0.000612033
-0.00294583
-0.0015038
-0.000112686
9.37037e-05
-8.05434e-07
-2.66401e-05
-8.98498e-06
8.3737e-07
6.70152e-07
5.0266e-08
-3.5359e-08
-3.9765e-09
3.09557e-09
8.23775e-10
-1.41782e-10
-6.21955e-11
-8.80835e-12
3.20786e-13
2.7489e-13
1.08646e-13
1.4637e-14
-8.45038e-16
-3.94533e-16
-1.14505e-16
6.75273e-10
-1.43125e-08
6.75706e-08
-1.22874e-07
-6.9828e-07
7.02819e-06
-2.95094e-05
7.70871e-05
-6.04888e-05
-0.00029905
0.000856913
0.000373774
-0.00371111
-0.00121543
0.0103599
0.00957173
-0.00382904
-0.00860039
-0.00833955
-0.0132671
-0.0158768
-0.00443295
0.00967788
0.0110933
0.00314303
-0.00245951
-0.00208958
-0.000404869
0.000208276
4.86473e-05
-4.05609e-05
-2.39957e-05
-1.56402e-06
1.89396e-06
4.57631e-07
-1.10944e-07
-3.77039e-08
4.90143e-09
2.94061e-09
-1.15953e-10
-2.65561e-10
-6.01267e-11
2.93086e-13
1.07421e-12
3.62333e-13
8.38877e-14
3.29031e-15
-1.53114e-15
-4.37971e-16
-1.05183e-16
6.90931e-08
-1.00004e-07
4.83273e-07
-1.52278e-06
3.07166e-06
8.6963e-08
-3.00412e-05
0.000107689
-0.000158693
-0.000221916
0.00103891
0.000107394
-0.00385804
-0.000934023
0.00815118
0.00840127
0.00313034
0.00286309
0.00201642
-0.00183632
0.000701898
0.00931405
0.0134188
0.0071731
-0.000418458
-0.00232012
-0.000696821
0.000411756
0.000243356
-1.00166e-05
-5.06738e-05
-1.31411e-05
3.65014e-06
1.58164e-06
-1.15017e-07
-1.47997e-07
-1.49813e-08
8.97223e-09
1.34207e-09
-8.63341e-10
-2.79874e-10
-3.71043e-12
7.69971e-12
1.67844e-12
2.33784e-13
8.91909e-15
-1.06012e-14
-2.20111e-15
-3.71377e-16
-8.07784e-17
2.10826e-07
-2.05989e-07
1.01899e-06
-3.41819e-06
8.98428e-06
-1.46105e-05
-8.74646e-06
0.000121875
-0.000243554
-0.000134677
0.00116967
-9.14889e-05
-0.00369673
-0.00110696
0.0051258
0.00718384
0.00832732
0.0102597
0.00927903
0.00731992
0.00930772
0.0123116
0.00899413
0.00181547
-0.0019159
-0.000769093
0.000629637
0.000623912
0.000128615
-6.65276e-05
-3.23812e-05
2.9839e-06
4.1824e-06
3.90321e-07
-4.59793e-07
-1.24999e-07
2.19989e-08
7.93909e-09
-1.53008e-09
-9.52394e-10
-8.84125e-11
4.21699e-11
1.03358e-11
8.31982e-13
-1.32349e-14
-4.66654e-14
-1.551e-14
-1.96397e-15
-1.95234e-16
-4.24811e-17
2.70915e-07
-2.27481e-07
1.1724e-06
-4.50631e-06
1.44544e-05
-3.14387e-05
2.15795e-05
0.000111337
-0.000320543
-4.33792e-05
0.00123869
-0.00018163
-0.00312076
-0.00187836
0.00178415
0.00549155
0.0103774
0.0131469
0.0116428
0.00959999
0.00937619
0.00753
0.00221154
-0.00170366
-0.00117409
0.000671332
0.00113765
0.000468539
-2.10089e-05
-5.98536e-05
-5.31072e-06
9.70435e-06
2.31041e-06
-9.64781e-07
-4.18915e-07
1.38658e-08
3.27173e-08
2.70006e-09
-2.55907e-09
-5.36036e-10
1.56303e-10
5.28337e-11
4.04219e-12
-6.37465e-13
-1.64155e-13
-5.01801e-14
-1.07874e-14
-4.71669e-16
3.69048e-17
1.42322e-19
-3.18232e-07
3.14127e-09
-4.12949e-08
-3.1217e-06
1.65823e-05
-4.58107e-05
5.54642e-05
9.01324e-05
-0.000374583
2.9245e-05
0.00123397
-5.38292e-05
-0.00245101
-0.00272565
-0.000978696
0.0036372
0.00988487
0.0122128
0.0098309
0.00651456
0.00386791
0.00023413
-0.00272307
-0.00234704
0.000110592
0.00134964
0.000869329
0.000136186
-7.06399e-05
-1.05458e-05
1.97954e-05
7.58601e-06
-1.13066e-06
-1.22893e-06
-1.50998e-07
9.8839e-08
2.55709e-08
-5.13603e-09
-1.7498e-09
3.629e-10
2.20037e-10
2.72524e-11
-6.25313e-12
-1.43895e-12
-1.50367e-13
-1.58226e-14
1.84841e-15
1.23823e-15
2.49939e-16
3.20679e-17
-1.92885e-06
5.44047e-07
-2.85059e-06
1.93902e-06
1.26575e-05
-5.48976e-05
8.55698e-05
6.75078e-05
-0.000415426
5.57543e-05
0.00113836
0.000360239
-0.00173974
-0.00333539
-0.00259239
0.00224355
0.00789038
0.00842843
0.00518114
0.00116279
-0.00223635
-0.00461636
-0.00443908
-0.0017724
0.000610362
0.000916746
0.000293107
-5.85447e-05
-9.58347e-06
3.52741e-05
2.13248e-05
9.44915e-07
-2.88181e-06
-7.49699e-07
1.88881e-07
8.2866e-08
-3.90639e-09
-6.62875e-09
-2.59986e-10
6.68371e-10
1.38923e-10
-2.77837e-11
-9.59522e-12
-1.01121e-12
6.56959e-15
1.83506e-14
9.87583e-15
2.15029e-15
3.13957e-16
3.79381e-17
-2.91094e-06
1.84361e-06
-5.37618e-06
9.35123e-06
3.3641e-06
-5.5607e-05
0.000110577
5.01343e-05
-0.000432482
1.24971e-05
0.00102035
0.000814484
-0.0011686
-0.0034647
-0.00286202
0.00178333
0.00539779
0.00446804
0.000720073
-0.00300558
-0.00561027
-0.00616516
-0.00451415
-0.00171119
-0.00014059
-9.63145e-05
-0.000154365
-3.16929e-05
6.43519e-05
5.03223e-05
8.47577e-06
-5.25212e-06
-2.1993e-06
1.77302e-07
2.58042e-07
3.02449e-08
-1.98485e-08
-3.97561e-09
1.39971e-09
4.16518e-10
-8.08757e-11
-4.55856e-11
-6.48416e-12
6.03519e-13
1.22336e-13
2.76957e-14
9.38723e-15
1.79392e-15
2.24102e-16
1.94824e-17
4.14648e-06
6.80433e-06
-5.20331e-06
1.7725e-05
-8.60134e-06
-5.3867e-05
0.000129347
4.26869e-05
-0.000423858
-0.000102786
0.000946202
0.00105086
-0.000855767
-0.00296967
-0.00179352
0.00226984
0.00377273
0.00180354
-0.00150791
-0.00439962
-0.00635591
-0.00656524
-0.00520203
-0.00333335
-0.00187932
-0.000856244
-0.000206362
8.68834e-05
9.55202e-05
2.8466e-05
-6.77787e-06
-5.2482e-06
-3.68428e-07
6.23174e-07
1.45685e-07
-4.28434e-08
-1.54494e-08
1.61598e-09
1.26255e-09
-4.56374e-11
-1.56233e-10
-3.14084e-11
3.81488e-12
1.17514e-12
1.21685e-13
1.52917e-14
4.18358e-15
7.35739e-16
6.47887e-17
-8.52059e-18
2.00608e-05
1.38369e-05
-2.36919e-06
2.3708e-05
-2.15029e-05
-5.32817e-05
0.000142592
5.03075e-05
-0.000404841
-0.000205187
0.00086751
0.000983412
-0.000815361
-0.00179775
0.000379382
0.00328745
0.00305655
0.000873751
-0.00158006
-0.00412758
-0.00662919
-0.00867498
-0.00841882
-0.00622933
-0.00333397
-0.0010939
-2.88499e-05
0.000142567
6.71292e-05
-2.83298e-06
-1.03518e-05
-1.8662e-06
1.20756e-06
4.38097e-07
-5.8773e-08
-5.19697e-08
-4.11676e-09
3.89751e-09
5.18257e-10
-3.59178e-10
-9.53229e-11
1.41909e-11
6.91402e-12
8.27868e-13
-8.41933e-14
-6.90357e-15
-7.55647e-17
-1.37421e-16
-7.79598e-17
-2.9266e-17
2.99587e-05
1.29837e-05
-4.58539e-06
2.10108e-05
-3.62817e-05
-5.21601e-05
0.000151448
6.40067e-05
-0.000383762
-0.000212129
0.00069415
0.00047921
-0.000878211
-0.000184464
0.00272868
0.00397175
0.00295052
0.00110121
-0.00101154
-0.00426549
-0.0104099
-0.014259
-0.0135098
-0.00909198
-0.00398914
-0.000835251
0.000122307
9.48711e-05
8.06267e-06
-1.56464e-05
-4.32847e-06
1.99574e-06
1.11267e-06
-7.16152e-10
-1.42254e-07
-2.52215e-08
9.77451e-09
2.66092e-09
-5.42105e-10
-2.28357e-10
2.75083e-11
2.80337e-11
4.22862e-12
-8.34545e-13
-1.99071e-13
-1.28705e-14
-1.4025e-15
-4.12171e-16
-1.20857e-16
-2.9466e-17
-7.54856e-06
-2.11273e-05
-2.67943e-05
8.35985e-06
-4.62614e-05
-4.27322e-05
0.000156806
6.19469e-05
-0.00032078
-9.57774e-05
0.000365388
-0.000315585
-0.000708664
0.00160786
0.00435491
0.00425684
0.00284507
0.00152256
-0.00116489
-0.0094004
-0.0192841
-0.0231277
-0.0193698
-0.0111721
-0.0039581
-0.000425209
8.06729e-05
2.07587e-05
-2.05645e-05
-7.90149e-06
2.68944e-06
2.40855e-06
2.23295e-07
-3.07609e-07
-8.31282e-08
1.91825e-08
9.69655e-09
1.01221e-10
-6.88691e-10
-3.63154e-11
7.61297e-11
1.45764e-11
-3.71257e-12
-1.28791e-12
-1.34979e-13
2.48085e-15
-7.56749e-16
-2.9096e-16
-6.85058e-17
-1.14852e-17
-7.91219e-05
-7.30074e-05
-5.10289e-05
4.34814e-06
-3.51019e-05
-1.72094e-05
0.0001467
2.5658e-05
-0.000167679
3.88632e-05
-0.000167854
-0.00101678
-8.34306e-05
0.00324633
0.0046952
0.00391816
0.00295924
0.00162773
-0.00636747
-0.0211871
-0.0335846
-0.0342811
-0.0251371
-0.0124951
-0.00345956
-0.000156162
-2.24617e-05
-3.06276e-05
-1.33785e-05
3.2764e-06
4.44356e-06
6.72025e-07
-5.82003e-07
-2.19701e-07
2.54441e-08
2.88131e-08
3.27862e-09
-2.06257e-09
-3.60679e-10
1.47109e-10
3.74087e-11
-1.0843e-11
-5.37085e-12
-6.70869e-13
1.16962e-13
1.6344e-14
-1.48517e-16
-3.65198e-17
1.20623e-17
9.97851e-18
-9.24454e-05
-7.90599e-05
-2.28608e-05
5.37029e-05
1.01177e-05
8.61355e-06
9.55764e-05
-7.50986e-06
5.1978e-05
5.77151e-06
-0.000804756
-0.0012359
0.00115832
0.00425138
0.0041961
0.00348767
0.00360065
-0.00138302
-0.0184611
-0.0403305
-0.0519636
-0.0471625
-0.0305581
-0.0132936
-0.00294785
-9.15098e-05
-2.95574e-05
-1.28028e-05
5.75654e-06
7.29171e-06
1.34936e-06
-1.06919e-06
-5.39783e-07
5.13155e-09
6.85959e-08
1.19222e-08
-5.11973e-09
-1.56292e-09
1.78328e-10
1.0392e-10
-1.13396e-11
-1.47162e-11
-2.13427e-12
7.08594e-13
1.81945e-13
1.25641e-14
4.35345e-17
1.21225e-16
6.25193e-17
2.19292e-17
8.88321e-05
7.09068e-05
0.000105646
0.000135634
3.88167e-05
-1.57302e-05
6.86762e-06
4.30213e-05
0.0002093
-0.000258128
-0.00130505
-0.000624398
0.00266192
0.00423631
0.00352725
0.00412764
0.00417288
-0.00961712
-0.0390596
-0.0667985
-0.074166
-0.0600084
-0.034986
-0.0135149
-0.00237346
-2.58966e-05
2.79758e-06
1.71016e-05
1.31435e-05
2.85121e-06
-1.73232e-06
-1.08441e-06
-5.68923e-08
1.42039e-07
3.27239e-08
-1.10042e-08
-5.12964e-09
-7.29309e-11
3.75303e-10
3.56571e-11
-3.02572e-11
-4.73545e-12
2.67731e-12
8.83947e-13
7.8211e-14
-8.41394e-15
-2.57554e-16
1.40987e-16
6.64277e-17
2.13964e-17
0.000239735
0.000173937
0.000159938
0.000122669
-2.6802e-05
-9.60166e-05
-3.58244e-05
0.000150261
0.000205241
-0.000763752
-0.00134928
0.000863643
0.00369743
0.00343705
0.00338429
0.00667595
0.00218361
-0.0258345
-0.0697695
-0.0995849
-0.0974671
-0.0715561
-0.0376327
-0.0126839
-0.00158663
3.46704e-05
4.02581e-05
2.3946e-05
5.50401e-06
-2.61619e-06
-1.87804e-06
-1.55364e-07
2.80498e-07
8.64366e-08
-1.6943e-08
-1.2238e-08
-7.81987e-10
1.16005e-09
2.12794e-10
-5.44582e-11
-1.05151e-11
6.47791e-12
2.80095e-12
2.16241e-13
-1.03582e-13
-1.52372e-14
1.03935e-16
1.07942e-16
4.47132e-17
1.45001e-17
2.09926e-05
-1.10689e-05
-1.13229e-05
-5.23048e-05
-0.000126397
-0.000117246
4.37304e-05
0.000208067
-0.000311971
-0.0012235
-4.67059e-05
0.0027743
0.00334422
0.00239838
0.00551933
0.0101365
-0.00550032
-0.0543501
-0.111184
-0.134899
-0.120023
-0.0795432
-0.0377873
-0.0106702
-0.000717249
4.84896e-05
3.29252e-05
8.05646e-06
-3.68133e-06
-2.95244e-06
-2.99025e-07
5.11425e-07
1.94312e-07
-2.19032e-08
-2.75453e-08
-2.88278e-09
2.82781e-09
7.46628e-10
-9.54629e-11
-4.28267e-11
6.147e-12
5.87685e-12
3.78135e-13
-5.02957e-13
-1.1902e-13
-4.91948e-15
4.09275e-16
9.28946e-17
2.61506e-17
9.06608e-18
-0.000279088
-0.000243145
-0.000164716
-0.000112918
-2.49424e-05
4.90809e-05
0.000130334
-0.000204122
-0.00106787
-0.000717328
0.00198798
0.0037538
0.00167
0.00204507
0.00960816
0.0117553
-0.0275239
-0.100674
-0.161532
-0.171444
-0.136415
-0.0814586
-0.0338809
-0.00752747
-0.000115787
2.89831e-05
9.45773e-06
-5.6378e-06
-4.48223e-06
-4.98831e-07
8.42219e-07
3.55596e-07
-3.34877e-08
-5.99188e-08
-8.89663e-09
5.5538e-09
1.77851e-09
-2.28971e-10
-1.78939e-10
-1.19994e-11
1.19043e-11
7.88081e-13
-1.58482e-12
-4.5874e-13
-1.65441e-14
7.30089e-15
7.61715e-16
6.89442e-17
1.7339e-17
7.76408e-18
-9.744e-05
-4.06768e-05
9.28159e-05
0.000218663
0.000267095
0.000125057
-0.000338753
-0.00103505
-0.00129527
0.00124569
0.0038432
0.00308619
-8.39873e-05
0.0053425
0.0140918
-0.00373769
-0.078387
-0.16995
-0.217817
-0.203671
-0.144194
-0.0759863
-0.0269381
-0.00407777
4.37689e-05
1.14445e-05
-6.12505e-06
-5.25281e-06
-3.83407e-07
1.33867e-06
5.88649e-07
-5.91864e-08
-1.19373e-07
-2.33102e-08
9.59145e-09
3.73907e-09
-4.36689e-10
-5.18819e-10
-6.41892e-11
2.91197e-11
3.48381e-12
-3.07329e-12
-1.0085e-12
2.84561e-14
6.03327e-14
8.92986e-15
1.19099e-16
1.98086e-17
1.38643e-17
8.66358e-18
0.000661757
0.00060679
0.000633136
0.000467005
7.56515e-05
-0.000804114
-0.00129446
-0.00139189
0.000657627
0.003852
0.00390275
0.00147262
0.000104355
0.0120017
0.0123224
-0.0575216
-0.175304
-0.265464
-0.279541
-0.224548
-0.139475
-0.0634315
-0.0181398
-0.00137452
-2.72586e-06
-4.65641e-06
-4.25146e-06
3.3761e-07
1.99963e-06
8.72814e-07
-9.84162e-08
-2.02227e-07
-4.22634e-08
1.88772e-08
8.64582e-09
-4.70292e-10
-1.15245e-09
-1.70756e-10
7.92915e-11
1.94873e-11
-3.47688e-12
-1.54674e-12
2.41191e-13
2.52543e-13
4.97969e-14
5.34339e-16
-2.02211e-16
-1.86619e-17
1.07583e-17
8.8483e-18
0.000673923
0.000481744
-4.03101e-05
-0.000877611
-0.00166575
-0.00193479
-0.0014073
0.000745691
0.00372227
0.00406458
0.0013836
0.00126225
0.00927484
0.0175749
-0.0532521
-0.1959
-0.335764
-0.386149
-0.337626
-0.230629
-0.121209
-0.0463744
-0.00978838
-0.000121773
8.14854e-06
2.0155e-06
2.54232e-06
2.89904e-06
1.16332e-06
-1.87022e-07
-3.13471e-07
-6.20431e-08
3.73814e-08
1.86133e-08
1.09911e-11
-2.2016e-09
-3.28015e-10
2.02909e-10
6.53159e-11
-4.32483e-12
-3.96713e-12
3.22096e-13
6.5084e-13
1.31832e-13
-1.01924e-14
-3.21749e-15
-3.86666e-16
-2.75449e-17
8.90643e-18
7.54372e-18
-0.00302101
-0.00303328
-0.00315955
-0.00298968
-0.00229013
-0.000521208
0.00193988
0.00411364
0.00470889
-0.000282852
0.00017277
0.0161554
0.0248529
-0.0411571
-0.231469
-0.457151
-0.564779
-0.52312
-0.381084
-0.217981
-0.0956856
-0.0290653
-0.00328339
7.85265e-05
3.32931e-05
7.92648e-06
2.672e-06
5.74111e-07
-5.37417e-07
-4.53728e-07
-7.16661e-08
6.85456e-08
3.37561e-08
-9.6249e-11
-4.46119e-09
-7.62469e-10
3.80695e-10
1.34679e-10
-1.16062e-11
-1.29367e-11
-5.2747e-13
1.2449e-12
2.15586e-13
-7.56913e-14
-2.63251e-14
-3.0016e-15
-9.98848e-17
4.49717e-18
9.62286e-18
5.5251e-18
-0.00243404
-0.00211137
-0.00118039
0.000298654
0.00229093
0.00380337
0.00463654
0.00473338
-6.42205e-05
-0.00498026
0.0210811
0.0514945
0.0181883
-0.254424
-0.614685
-0.867805
-0.848096
-0.653214
-0.39638
-0.187208
-0.066039
-0.0140118
-0.000123849
0.000102912
4.32889e-05
7.82605e-06
-3.89744e-07
-1.19742e-06
-6.75866e-07
-7.62729e-08
1.08238e-07
4.91491e-08
-3.31826e-09
-8.95014e-09
-1.74528e-09
6.49845e-10
2.4788e-10
-3.12952e-11
-3.46697e-11
-3.62671e-12
2.41584e-12
3.89056e-13
-2.03317e-13
-8.14882e-14
-1.0938e-14
3.69095e-16
1.05196e-16
3.18206e-17
1.01479e-17
3.59165e-18
0.00394963
0.00425943
0.00468902
0.00493026
0.00484441
0.00371096
0.00343546
0.00028248
-0.00918921
0.00919245
0.0794819
0.0803881
-0.253041
-0.802925
-1.26537
-1.38405
-1.15192
-0.743866
-0.374937
-0.143623
-0.0379309
-0.00330863
0.000363201
0.00013313
1.14207e-05
-3.6774e-06
-1.99421e-06
-7.82052e-07
-2.78142e-08
1.61441e-07
6.1437e-08
-1.18071e-08
-1.55135e-08
-2.81649e-09
1.35912e-09
5.38776e-10
-4.87212e-11
-6.99266e-11
-7.7135e-12
5.61905e-12
1.07271e-12
-4.02688e-13
-1.71538e-13
-1.02106e-14
7.79354e-15
1.31159e-15
1.86963e-16
3.86408e-17
8.42566e-18
1.99571e-18
0.00223302
0.00220938
0.00201994
0.00142549
0.000930455
-0.00130238
0.00233256
-0.00780501
-0.0119822
0.0755718
0.137899
-0.22557
-1.00344
-1.79503
-2.15436
-1.95466
-1.37506
-0.759338
-0.319757
-0.0970071
-0.015362
0.00117947
0.000362736
3.16883e-05
-5.19568e-06
-1.91598e-06
-3.73777e-07
2.18579e-07
2.39858e-07
6.33488e-08
-2.93091e-08
-2.3352e-08
-2.96816e-09
3.03357e-09
1.16969e-09
-5.81144e-11
-1.25496e-10
-1.30775e-11
1.17251e-11
2.23519e-12
-9.13919e-13
-3.89519e-13
-4.50616e-16
3.19963e-14
7.31022e-15
6.90716e-16
1.07572e-16
2.21433e-17
4.20565e-18
7.07886e-19
0.000141465
0.000141721
-0.000209826
0.000190536
-0.00132578
-0.00186459
0.00443801
-0.0179653
0.0604452
0.170128
-0.270045
-1.31072
-2.55093
-3.26211
-3.14849
-2.41609
-1.45835
-0.681287
-0.237197
-0.0523009
-0.000577938
0.000505977
0.000249162
4.97531e-05
-7.00642e-07
-2.10459e-07
3.8059e-07
2.85332e-07
4.19368e-08
-5.57092e-08
-3.27278e-08
-1.67334e-09
5.61742e-09
1.98593e-09
-1.65454e-10
-2.38963e-10
-2.53329e-11
2.21203e-11
4.49648e-12
-1.72603e-12
-7.22536e-13
3.70689e-14
8.10135e-14
1.66392e-14
4.83794e-16
-1.59129e-17
2.59278e-18
1.15687e-18
2.20406e-20
-1.56001e-19
-0.000467297
-8.6581e-05
-0.00128278
0.0025327
-0.00775485
0.0123497
0.00253613
0.0254023
0.186579
-0.582009
-2.07216
-3.84516
-5.0187
-4.94524
-4.02264
-2.62891
-1.35985
-0.541275
-0.15317
-0.0181124
0.00137748
0.000672194
7.50898e-05
-1.08661e-05
-1.88782e-06
7.18962e-07
4.13092e-07
7.69799e-09
-9.83983e-08
-4.79394e-08
-8.95748e-10
8.01763e-09
2.38773e-09
-5.61418e-10
-4.38176e-10
-4.48108e-11
3.98673e-11
8.19332e-12
-2.85306e-12
-1.02832e-12
2.19175e-13
1.96552e-13
3.43431e-14
-4.25938e-15
-1.2775e-15
-2.58489e-16
-5.00784e-17
-9.83421e-18
-2.07047e-18
-5.07746e-19
-0.00130099
0.000745421
-0.00403646
0.0101418
-0.0241564
0.0720871
0.00611235
0.158924
-1.52942
-4.14055
-6.60629
-8.16428
-7.93857
-6.53455
-4.46211
-2.48697
-1.10258
-0.37107
-0.0795426
-0.000129736
-0.000161482
-0.000114936
-1.24949e-05
2.57611e-06
8.20169e-07
-1.15344e-07
-2.18796e-07
-1.44639e-07
-4.83417e-08
3.52117e-09
9.83212e-09
2.102e-09
-1.23554e-09
-6.69986e-10
-3.44361e-11
7.67136e-11
1.60589e-11
-4.28757e-12
-1.35428e-12
4.54666e-13
3.20839e-13
3.54105e-14
-2.11743e-14
-5.26755e-15
-8.46396e-16
-1.71388e-16
-3.88642e-17
-8.69001e-18
-1.91945e-18
-4.44149e-19
-0.00483845
0.00359852
-0.0130801
0.0357682
-0.0567215
0.199423
-0.544791
-4.29681
-9.3627
-13.059
-14.5126
-13.4876
-10.7572
-7.3432
-4.24057
-2.02576
-0.770906
-0.219125
-0.0295322
-7.71947e-05
0.000124405
5.49652e-05
-5.94621e-06
-5.74919e-06
-8.40644e-07
-8.73678e-08
-6.26026e-08
-1.76581e-08
1.15246e-08
9.66364e-09
7.68798e-10
-1.85263e-09
-7.28271e-10
8.55133e-11
1.36321e-10
2.4077e-11
-9.0175e-12
-2.93671e-12
3.65145e-13
2.82611e-13
-4.76185e-14
-6.76601e-14
-1.5865e-14
-1.1609e-15
-1.21799e-16
-4.58862e-17
-1.45191e-17
-3.94253e-18
-9.71789e-19
-2.35556e-19
-0.0138151
0.00957218
-0.0411276
0.0963727
-1.45336
-6.38757
-14.105
-21.9922
-27.8134
-27.8678
-24.3134
-18.3896
-12.1478
-7.00204
-3.46864
-1.4349
-0.473894
-0.114485
-0.008155
-0.000613554
-0.000171961
-3.96445e-05
5.5656e-06
4.67439e-06
9.95022e-07
-6.04449e-08
-1.97711e-08
8.77064e-09
5.77727e-09
-8.19128e-10
-1.92147e-09
-3.65606e-10
3.18769e-10
1.87924e-10
1.91923e-11
-1.78387e-11
-4.93849e-12
5.44133e-13
2.87651e-13
-1.33723e-13
-1.06268e-13
-2.10446e-14
1.58946e-15
5.47816e-16
9.44903e-17
8.37704e-18
-1.26017e-18
-8.76526e-19
-2.90309e-19
-8.14017e-20
-0.914422
-3.73112
-10.2689
-21.3564
-34.0191
-45.7148
-54.7423
-58.5209
-54.9822
-45.262
-32.587
-20.6494
-11.5937
-5.75645
-2.49008
-0.910943
-0.268418
-0.0561313
-0.00337287
0.000264388
0.000158157
4.3057e-05
-8.88105e-07
-2.9872e-06
-1.24902e-06
-1.71564e-07
1.41368e-08
7.05657e-09
-3.89495e-09
-2.7439e-09
-3.27236e-10
4.2771e-10
1.8674e-10
-6.63793e-12
-2.82145e-11
-5.69599e-12
1.70087e-12
7.05504e-13
-2.73454e-14
-5.31494e-14
7.76999e-15
1.2567e-14
2.79007e-15
3.86605e-16
6.73208e-17
1.07882e-17
1.23126e-18
1.56107e-20
-4.41369e-20
-1.84548e-20
-65.7315
-81.5235
-100.626
-117.253
-126.738
-125.871
-118.322
-102.956
-81.1962
-57.1055
-35.6035
-19.74
-9.78287
-4.32649
-1.68261
-0.557679