/*--------------------------------*- C++ -*----------------------------------*\
| =========                 |                                                 |
| \\      /  F ield         | OpenFOAM: The Open Source CFD Toolbox           |
|  \\    /   O peration     | Version:  v2006                                 |
|   \\  /    A nd           | Website:  www.openfoam.com                      |
|    \\/     M anipulation  |                                                 |
\*---------------------------------------------------------------------------*/
FoamFile
{
    version     2.0;
    format      ascii;
    class       volVectorField;
    location    "0";
    object      U;
}
// * * * * * * * * * * * * * * * * * * * * * * * * * * * * * * * * * * * * * //

dimensions      [0 1 -1 0 0 0 0];


internalField   nonuniform List<vector> 
67500
(
(-0.0149569 0.0101493 0)
(-0.0275721 -0.00398538 0)
(0.00600741 -0.0189296 0)
(0.0485173 -0.0240924 0)
(0.0961977 -0.0223293 0)
(0.137476 -0.0173057 0)
(0.167434 -0.011958 0)
(0.186834 -0.00774599 0)
(0.198903 -0.00507927 0)
(0.207067 -0.00382598 0)
(0.213998 -0.00361717 0)
(0.221398 -0.00404619 0)
(0.230138 -0.00478287 0)
(0.240535 -0.00561205 0)
(0.252608 -0.00642136 0)
(0.26625 -0.00716664 0)
(0.281312 -0.00783826 0)
(0.297648 -0.00843798 0)
(0.315118 -0.00896696 0)
(0.333578 -0.00942223 0)
(0.352878 -0.00979853 0)
(0.372854 -0.0100917 0)
(0.393335 -0.0103012 0)
(0.414154 -0.0104292 0)
(0.435148 -0.0104785 0)
(0.456158 -0.0104528 0)
(0.477039 -0.0103583 0)
(0.497658 -0.0102048 0)
(0.517911 -0.0100058 0)
(0.53772 -0.00977409 0)
(0.557033 -0.00952047 0)
(0.575817 -0.00925372 0)
(0.594055 -0.00898008 0)
(0.611738 -0.00870328 0)
(0.628864 -0.00842531 0)
(0.645433 -0.00814717 0)
(0.661445 -0.00786928 0)
(0.676901 -0.00759199 0)
(0.691802 -0.00731572 0)
(0.706153 -0.00704108 0)
(0.719956 -0.00676882 0)
(0.733216 -0.00649978 0)
(0.745943 -0.00623485 0)
(0.758143 -0.00597485 0)
(0.769829 -0.00572055 0)
(0.781012 -0.00547259 0)
(0.791706 -0.00523148 0)
(0.801925 -0.00499763 0)
(0.811683 -0.00477133 0)
(0.820997 -0.00455275 0)
(0.829882 -0.004342 0)
(0.838353 -0.0041391 0)
(0.846427 -0.00394404 0)
(0.854118 -0.00375672 0)
(0.861443 -0.00357704 0)
(0.868416 -0.00340484 0)
(0.875052 -0.00323996 0)
(0.881366 -0.00308221 0)
(0.887372 -0.00293137 0)
(0.893083 -0.00278725 0)
(0.898513 -0.00264962 0)
(0.903674 -0.00251825 0)
(0.908578 -0.00239292 0)
(0.913238 -0.0022734 0)
(0.917665 -0.00215948 0)
(0.92187 -0.00205092 0)
(0.925863 -0.00194751 0)
(0.929654 -0.00184905 0)
(0.933254 -0.00175531 0)
(0.93667 -0.0016661 0)
(0.939913 -0.00158123 0)
(0.942991 -0.0015005 0)
(0.945911 -0.00142373 0)
(0.948682 -0.00135075 0)
(0.95131 -0.00128138 0)
(0.953804 -0.00121546 0)
(0.956168 -0.00115284 0)
(0.958412 -0.00109336 0)
(0.960539 -0.00103688 0)
(0.962556 -0.000983261 0)
(0.964469 -0.000932367 0)
(0.966283 -0.000884069 0)
(0.968003 -0.000838243 0)
(0.969633 -0.00079477 0)
(0.97118 -0.000753536 0)
(0.972645 -0.000714431 0)
(0.974035 -0.000677349 0)
(0.975353 -0.000642188 0)
(0.976602 -0.000608853 0)
(0.977787 -0.00057725 0)
(0.978909 -0.000547288 0)
(0.979974 -0.000518883 0)
(0.980984 -0.000491953 0)
(0.981941 -0.000466417 0)
(0.982848 -0.000442203 0)
(0.983708 -0.000419237 0)
(0.984524 -0.000397454 0)
(0.985297 -0.000376788 0)
(0.98603 -0.000357179 0)
(0.986724 -0.000338573 0)
(0.987383 -0.000320916 0)
(0.988007 -0.00030416 0)
(0.988599 -0.00028826 0)
(0.989159 -0.000273173 0)
(0.989691 -0.000258862 0)
(0.990194 -0.000245288 0)
(0.990671 -0.000232417 0)
(0.991123 -0.000220218 0)
(0.991551 -0.000208658 0)
(0.991957 -0.000197708 0)
(0.992342 -0.00018734 0)
(0.992706 -0.000177526 0)
(0.993051 -0.000168239 0)
(0.993378 -0.000159455 0)
(0.993689 -0.000151148 0)
(0.993983 -0.000143296 0)
(0.994261 -0.000135876 0)
(0.994526 -0.000128866 0)
(0.994776 -0.000122245 0)
(0.995014 -0.000115994 0)
(0.99524 -0.000110093 0)
(0.995454 -0.000104524 0)
(0.995658 -9.92692e-05 0)
(0.995851 -9.43112e-05 0)
(0.996035 -8.96335e-05 0)
(0.996209 -8.52203e-05 0)
(0.996375 -8.10562e-05 0)
(0.996533 -7.71263e-05 0)
(0.996684 -7.34163e-05 0)
(0.996827 -6.99125e-05 0)
(0.996963 -6.66019e-05 0)
(0.997093 -6.34718e-05 0)
(0.997217 -6.05104e-05 0)
(0.997335 -5.77064e-05 0)
(0.997447 -5.50494e-05 0)
(0.997555 -5.25294e-05 0)
(0.997657 -5.01373e-05 0)
(0.997755 -4.78644e-05 0)
(0.997849 -4.57031e-05 0)
(0.997938 -4.3646e-05 0)
(0.998023 -4.16865e-05 0)
(0.998105 -3.98188e-05 0)
(0.998182 -3.80372e-05 0)
(0.998257 -3.63368e-05 0)
(0.998328 -3.47131e-05 0)
(0.998396 -3.3162e-05 0)
(0.99846 -3.16797e-05 0)
(0.998522 -3.02628e-05 0)
(0.998581 -2.89081e-05 0)
(0.998638 -2.76128e-05 0)
(0.998692 -2.63742e-05 0)
(0.998743 -2.51899e-05 0)
(0.998792 -2.40575e-05 0)
(0.998839 -2.29748e-05 0)
(0.998884 -2.19397e-05 0)
(0.998927 -2.09505e-05 0)
(0.998968 -2.00051e-05 0)
(0.999007 -1.91018e-05 0)
(0.999044 -1.82389e-05 0)
(0.99908 -1.74148e-05 0)
(0.999114 -1.66278e-05 0)
(0.999146 -1.58765e-05 0)
(0.999177 -1.51593e-05 0)
(0.999207 -1.44748e-05 0)
(0.999235 -1.38217e-05 0)
(0.999262 -1.31986e-05 0)
(0.999288 -1.26043e-05 0)
(0.999313 -1.20374e-05 0)
(0.999336 -1.14968e-05 0)
(0.999359 -1.09813e-05 0)
(0.99938 -1.04898e-05 0)
(0.999401 -1.00213e-05 0)
(0.99942 -9.5748e-06 0)
(0.999439 -9.14923e-06 0)
(0.999457 -8.74371e-06 0)
(0.999474 -8.35734e-06 0)
(0.99949 -7.98928e-06 0)
(0.999506 -7.63873e-06 0)
(0.999521 -7.3049e-06 0)
(0.999535 -6.98707e-06 0)
(0.999549 -6.68454e-06 0)
(0.999562 -6.39663e-06 0)
(0.999574 -6.12272e-06 0)
(0.999586 -5.8622e-06 0)
(0.999598 -5.61449e-06 0)
(0.999609 -5.37904e-06 0)
(0.999619 -5.15532e-06 0)
(0.999629 -4.94282e-06 0)
(0.999639 -4.74107e-06 0)
(0.999648 -4.54961e-06 0)
(0.999657 -4.36797e-06 0)
(0.999666 -4.19574e-06 0)
(0.999674 -4.03251e-06 0)
(0.999682 -3.87787e-06 0)
(0.999689 -3.73144e-06 0)
(0.999697 -3.59285e-06 0)
(0.999704 -3.46173e-06 0)
(0.999711 -3.33775e-06 0)
(0.999717 -3.22057e-06 0)
(0.999723 -3.10985e-06 0)
(0.999729 -3.00527e-06 0)
(0.999735 -2.90653e-06 0)
(0.999741 -2.81333e-06 0)
(0.999747 -2.72537e-06 0)
(0.999752 -2.64237e-06 0)
(0.999757 -2.56405e-06 0)
(0.999762 -2.49014e-06 0)
(0.999767 -2.42038e-06 0)
(0.999772 -2.35452e-06 0)
(0.999777 -2.2923e-06 0)
(0.999781 -2.23348e-06 0)
(0.999786 -2.17784e-06 0)
(0.99979 -2.12513e-06 0)
(0.999794 -2.07516e-06 0)
(0.999798 -2.02769e-06 0)
(0.999802 -1.98253e-06 0)
(0.999806 -1.93948e-06 0)
(0.99981 -1.89836e-06 0)
(0.999814 -1.85897e-06 0)
(0.999817 -1.82115e-06 0)
(0.999821 -1.78472e-06 0)
(0.999824 -1.74955e-06 0)
(0.999828 -1.71547e-06 0)
(0.999831 -1.68235e-06 0)
(0.999835 -1.65006e-06 0)
(0.999838 -1.61848e-06 0)
(0.999841 -1.58751e-06 0)
(0.999844 -1.55703e-06 0)
(0.999847 -1.52697e-06 0)
(0.99985 -1.49725e-06 0)
(0.999853 -1.46779e-06 0)
(0.999856 -1.43856e-06 0)
(0.999859 -1.40949e-06 0)
(0.999862 -1.38056e-06 0)
(0.999865 -1.35174e-06 0)
(0.999867 -1.32303e-06 0)
(0.99987 -1.29441e-06 0)
(0.999872 -1.2659e-06 0)
(0.999875 -1.2375e-06 0)
(0.999877 -1.20921e-06 0)
(0.99988 -1.18107e-06 0)
(0.999882 -1.15308e-06 0)
(0.999884 -1.12527e-06 0)
(0.999887 -1.09763e-06 0)
(0.999889 -1.0702e-06 0)
(0.999891 -1.04299e-06 0)
(0.999893 -1.016e-06 0)
(0.999895 -9.89277e-07 0)
(0.999897 -9.62834e-07 0)
(0.999899 -9.36716e-07 0)
(0.999901 -9.10976e-07 0)
(0.999902 -8.85683e-07 0)
(0.999904 -8.60921e-07 0)
(0.999906 -8.36791e-07 0)
(0.999908 -8.13404e-07 0)
(0.999909 -7.90879e-07 0)
(0.999911 -7.6933e-07 0)
(0.999912 -7.48862e-07 0)
(0.999914 -7.29551e-07 0)
(0.999915 -7.11439e-07 0)
(0.999917 -6.94517e-07 0)
(0.999918 -6.78719e-07 0)
(0.999919 -6.63921e-07 0)
(0.999921 -6.49944e-07 0)
(0.999922 -6.36562e-07 0)
(0.999923 -6.23526e-07 0)
(0.999924 -6.10587e-07 0)
(0.999926 -5.97524e-07 0)
(0.999927 -5.84173e-07 0)
(0.999928 -5.70453e-07 0)
(0.999929 -5.56379e-07 0)
(0.99993 -5.42068e-07 0)
(0.999931 -5.27735e-07 0)
(0.999932 -5.13668e-07 0)
(0.999933 -5.00205e-07 0)
(0.999934 -4.87691e-07 0)
(0.999935 -4.7645e-07 0)
(0.999936 -4.66747e-07 0)
(0.999937 -4.58766e-07 0)
(0.999938 -4.52591e-07 0)
(0.999939 -4.48207e-07 0)
(0.99994 -4.455e-07 0)
(0.999941 -4.44276e-07 0)
(0.999942 -4.44277e-07 0)
(0.999942 -4.45207e-07 0)
(0.999943 -4.46749e-07 0)
(0.999944 -4.4859e-07 0)
(0.999945 -4.50438e-07 0)
(0.999946 -4.52029e-07 0)
(0.999947 -4.53145e-07 0)
(0.999948 -4.53609e-07 0)
(0.999949 -4.53293e-07 0)
(0.99995 -4.52113e-07 0)
(0.999951 -4.50024e-07 0)
(0.999951 -4.47019e-07 0)
(0.999952 -4.43119e-07 0)
(0.999953 -4.3837e-07 0)
(0.999954 -4.32834e-07 0)
(0.999955 -4.26586e-07 0)
(0.999956 -4.19711e-07 0)
(0.999957 -4.12294e-07 0)
(0.999957 -4.04425e-07 0)
(0.999958 -3.96187e-07 0)
(0.999959 -3.87664e-07 0)
(0.99996 -3.7893e-07 0)
(0.999961 -3.70056e-07 0)
(0.999961 -3.61105e-07 0)
(0.999962 -3.52134e-07 0)
(0.999963 -3.43192e-07 0)
(0.999963 -3.34322e-07 0)
(0.999964 -3.2556e-07 0)
(0.999965 -3.16937e-07 0)
(0.999965 -3.08478e-07 0)
(0.999966 -3.00203e-07 0)
(0.999967 -2.92129e-07 0)
(0.999967 -2.84268e-07 0)
(0.999968 -2.76628e-07 0)
(0.999968 -2.69216e-07 0)
(0.999969 -2.62035e-07 0)
(0.999969 -2.55086e-07 0)
(0.99997 -2.48368e-07 0)
(0.99997 -2.4188e-07 0)
(0.999971 -2.35619e-07 0)
(0.999971 -2.29579e-07 0)
(0.999972 -2.23756e-07 0)
(0.999972 -2.18144e-07 0)
(0.999973 -2.12737e-07 0)
(0.999973 -2.07529e-07 0)
(0.999973 -2.02512e-07 0)
(0.999974 -1.9768e-07 0)
(0.999974 -1.93025e-07 0)
(0.999975 -1.88542e-07 0)
(0.999975 -1.84222e-07 0)
(0.999975 -1.80059e-07 0)
(0.999976 -1.76047e-07 0)
(0.999976 -1.72178e-07 0)
(0.999976 -1.68447e-07 0)
(0.999977 -1.64847e-07 0)
(0.999977 -1.61372e-07 0)
(0.999977 -1.58018e-07 0)
(0.999978 -1.54777e-07 0)
(0.999978 -1.51645e-07 0)
(0.999978 -1.48617e-07 0)
(0.999978 -1.45688e-07 0)
(0.999979 -1.42853e-07 0)
(0.999979 -1.40108e-07 0)
(0.999979 -1.37449e-07 0)
(0.99998 -1.34871e-07 0)
(0.99998 -1.32371e-07 0)
(0.99998 -1.29946e-07 0)
(0.99998 -1.27591e-07 0)
(0.999981 -1.25303e-07 0)
(0.999981 -1.2308e-07 0)
(0.999981 -1.20918e-07 0)
(0.999981 -1.18815e-07 0)
(0.999982 -1.16768e-07 0)
(0.999982 -1.14774e-07 0)
(0.999982 -1.1283e-07 0)
(0.999982 -1.10936e-07 0)
(0.999983 -1.09088e-07 0)
(0.999983 -1.07285e-07 0)
(0.999983 -1.05524e-07 0)
(0.999983 -1.03804e-07 0)
(0.999983 -1.02123e-07 0)
(0.999984 -1.00479e-07 0)
(0.999984 -9.88705e-08 0)
(0.999984 -9.72966e-08 0)
(0.999984 -9.57556e-08 0)
(0.999984 -9.42462e-08 0)
(0.999985 -9.2767e-08 0)
(0.999985 -9.13168e-08 0)
(0.999985 -8.98947e-08 0)
(0.999985 -8.84994e-08 0)
(0.999985 -8.71299e-08 0)
(0.999985 -8.57853e-08 0)
(0.999986 -8.44646e-08 0)
(0.999986 -8.3167e-08 0)
(0.999986 -8.18916e-08 0)
(0.999986 -8.06378e-08 0)
(0.999986 -7.94046e-08 0)
(0.999986 -7.81914e-08 0)
(0.999987 -7.69975e-08 0)
(0.999987 -7.58222e-08 0)
(0.999987 -7.4665e-08 0)
(0.999987 -7.35253e-08 0)
(0.999987 -7.24025e-08 0)
(0.999987 -7.12961e-08 0)
(0.999987 -7.02055e-08 0)
(0.999988 -6.91304e-08 0)
(0.999988 -6.80701e-08 0)
(0.999988 -6.70244e-08 0)
(0.999988 -6.59928e-08 0)
(0.999988 -6.49748e-08 0)
(0.999988 -6.39701e-08 0)
(0.999988 -6.29783e-08 0)
(0.999988 -6.19991e-08 0)
(0.999989 -6.10321e-08 0)
(0.999989 -6.0077e-08 0)
(0.999989 -5.91335e-08 0)
(0.999989 -5.82013e-08 0)
(0.999989 -5.72801e-08 0)
(0.999989 -5.63696e-08 0)
(0.999989 -5.54696e-08 0)
(0.999989 -5.45799e-08 0)
(0.99999 -5.37e-08 0)
(0.99999 -5.283e-08 0)
(0.99999 -5.19693e-08 0)
(0.99999 -5.1118e-08 0)
(0.99999 -5.02757e-08 0)
(0.99999 -4.94424e-08 0)
(0.99999 -4.86176e-08 0)
(0.99999 -4.78014e-08 0)
(0.99999 -4.69934e-08 0)
(0.99999 -4.61935e-08 0)
(0.999991 -4.54014e-08 0)
(0.999991 -4.46172e-08 0)
(0.999991 -4.38405e-08 0)
(0.999991 -4.30712e-08 0)
(0.999991 -4.23092e-08 0)
(0.999991 -4.15543e-08 0)
(0.999991 -4.08063e-08 0)
(0.999991 -4.00651e-08 0)
(0.999991 -3.93306e-08 0)
(0.999991 -3.86025e-08 0)
(0.999991 -3.78809e-08 0)
(0.999991 -3.71654e-08 0)
(0.999992 -3.64561e-08 0)
(0.999992 -3.57527e-08 0)
(0.999992 -3.50552e-08 0)
(0.999992 -3.43635e-08 0)
(0.999992 -3.36773e-08 0)
(0.999992 -3.29967e-08 0)
(0.999992 -3.23214e-08 0)
(0.999992 -3.16513e-08 0)
(0.999992 -3.09864e-08 0)
(0.999992 -3.03265e-08 0)
(0.999992 -2.96714e-08 0)
(0.999992 -2.90212e-08 0)
(0.999992 -2.83757e-08 0)
(0.999992 -2.77348e-08 0)
(0.999992 -2.70983e-08 0)
(0.999992 -2.64663e-08 0)
(0.999992 -2.58385e-08 0)
(0.999993 -2.52149e-08 0)
(0.999993 -2.45957e-08 0)
(0.999993 -2.3979e-08 0)
(0.999993 -2.33721e-08 0)
(0.999993 -2.27441e-08 0)
(0.999993 -2.2226e-08 0)
(0.999993 -2.12584e-08 0)
(-0.0169351 0.0302638 0)
(-0.0259491 -0.0129941 0)
(0.0068212 -0.0569614 0)
(0.0499573 -0.0724735 0)
(0.0979932 -0.0678846 0)
(0.138869 -0.0521328 0)
(0.167982 -0.0353219 0)
(0.186449 -0.0226346 0)
(0.197774 -0.0148818 0)
(0.205537 -0.0113385 0)
(0.212377 -0.0108504 0)
(0.219868 -0.0122058 0)
(0.228756 -0.0144312 0)
(0.239284 -0.0169073 0)
(0.251446 -0.0193185 0)
(0.265143 -0.0215441 0)
(0.28025 -0.0235589 0)
(0.29664 -0.0253671 0)
(0.31419 -0.0269682 0)
(0.332762 -0.0283485 0)
(0.3522 -0.029488 0)
(0.37233 -0.0303725 0)
(0.392969 -0.0310008 0)
(0.413943 -0.0313813 0)
(0.435086 -0.0315233 0)
(0.456238 -0.0314366 0)
(0.477244 -0.0311388 0)
(0.497967 -0.0306624 0)
(0.518299 -0.0300502 0)
(0.538165 -0.0293425 0)
(0.557515 -0.0285715 0)
(0.576321 -0.0277639 0)
(0.59457 -0.0269381 0)
(0.61226 -0.0261048 0)
(0.629388 -0.0252693 0)
(0.645958 -0.0244341 0)
(0.66197 -0.0235998 0)
(0.677426 -0.0227674 0)
(0.692326 -0.0219381 0)
(0.706673 -0.0211136 0)
(0.720471 -0.0202962 0)
(0.733725 -0.0194885 0)
(0.746443 -0.0186931 0)
(0.758634 -0.0179127 0)
(0.770309 -0.0171495 0)
(0.781479 -0.0164054 0)
(0.79216 -0.0156821 0)
(0.802365 -0.0149806 0)
(0.812109 -0.0143019 0)
(0.821408 -0.0136464 0)
(0.830277 -0.0130144 0)
(0.838733 -0.0124061 0)
(0.846792 -0.0118213 0)
(0.854469 -0.0112598 0)
(0.861779 -0.0107211 0)
(0.868738 -0.010205 0)
(0.87536 -0.00971076 0)
(0.881661 -0.00923791 0)
(0.887654 -0.00878583 0)
(0.893353 -0.00835387 0)
(0.89877 -0.00794136 0)
(0.903919 -0.00754763 0)
(0.908813 -0.007172 0)
(0.913462 -0.0068138 0)
(0.917879 -0.00647236 0)
(0.922073 -0.00614701 0)
(0.926057 -0.0058371 0)
(0.929839 -0.00554198 0)
(0.93343 -0.00526105 0)
(0.936838 -0.00499368 0)
(0.940073 -0.0047393 0)
(0.943143 -0.00449734 0)
(0.946056 -0.00426724 0)
(0.948819 -0.00404849 0)
(0.951441 -0.00384058 0)
(0.953928 -0.00364301 0)
(0.956287 -0.00345531 0)
(0.958524 -0.00327704 0)
(0.960646 -0.00310776 0)
(0.962658 -0.00294704 0)
(0.964566 -0.0027945 0)
(0.966375 -0.00264974 0)
(0.96809 -0.00251239 0)
(0.969716 -0.00238209 0)
(0.971258 -0.0022585 0)
(0.97272 -0.00214129 0)
(0.974106 -0.00203015 0)
(0.97542 -0.00192476 0)
(0.976666 -0.00182485 0)
(0.977847 -0.00173013 0)
(0.978967 -0.00164033 0)
(0.980028 -0.0015552 0)
(0.981035 -0.00147448 0)
(0.981989 -0.00139795 0)
(0.982894 -0.00132538 0)
(0.983752 -0.00125655 0)
(0.984565 -0.00119126 0)
(0.985336 -0.00112932 0)
(0.986067 -0.00107055 0)
(0.98676 -0.00101478 0)
(0.987417 -0.00096186 0)
(0.988039 -0.000911636 0)
(0.988629 -0.000863977 0)
(0.989189 -0.000818756 0)
(0.989718 -0.000775856 0)
(0.99022 -0.000735169 0)
(0.990696 -0.00069659 0)
(0.991147 -0.000660022 0)
(0.991574 -0.000625371 0)
(0.991978 -0.00059255 0)
(0.992362 -0.000561471 0)
(0.992725 -0.000532054 0)
(0.993069 -0.000504219 0)
(0.993395 -0.00047789 0)
(0.993705 -0.000452994 0)
(0.993998 -0.00042946 0)
(0.994276 -0.000407221 0)
(0.994539 -0.000386211 0)
(0.994789 -0.000366369 0)
(0.995026 -0.000347634 0)
(0.995251 -0.00032995 0)
(0.995465 -0.00031326 0)
(0.995668 -0.000297512 0)
(0.995861 -0.000282655 0)
(0.996044 -0.000268637 0)
(0.996218 -0.000255413 0)
(0.996383 -0.000242935 0)
(0.996541 -0.00023116 0)
(0.996691 -0.000220043 0)
(0.996834 -0.000209545 0)
(0.996969 -0.000199626 0)
(0.997099 -0.000190247 0)
(0.997223 -0.000181374 0)
(0.99734 -0.000172973 0)
(0.997453 -0.000165011 0)
(0.99756 -0.000157461 0)
(0.997662 -0.000150293 0)
(0.99776 -0.000143482 0)
(0.997853 -0.000137005 0)
(0.997942 -0.00013084 0)
(0.998027 -0.000124968 0)
(0.998108 -0.00011937 0)
(0.998186 -0.00011403 0)
(0.99826 -0.000108934 0)
(0.998331 -0.000104067 0)
(0.998399 -9.94171e-05 0)
(0.998463 -9.49736e-05 0)
(0.998525 -9.0726e-05 0)
(0.998584 -8.66649e-05 0)
(0.99864 -8.27817e-05 -2.97154e-42)
(0.998694 -7.90685e-05 -2.86881e-42)
(0.998745 -7.55178e-05 0)
(0.998795 -7.21226e-05 0)
(0.998841 -6.88766e-05 0)
(0.998886 -6.57735e-05 0)
(0.998929 -6.28075e-05 0)
(0.99897 -5.99731e-05 0)
(0.999009 -5.7265e-05 0)
(0.999046 -5.46779e-05 0)
(0.999082 -5.22071e-05 0)
(0.999116 -4.98477e-05 0)
(0.999148 -4.75952e-05 0)
(0.999179 -4.54451e-05 0)
(0.999208 -4.33931e-05 0)
(0.999237 -4.14352e-05 0)
(0.999264 -3.95672e-05 0)
(0.999289 -3.77853e-05 0)
(0.999314 -3.60858e-05 0)
(0.999337 -3.44651e-05 0)
(0.99936 -3.29198e-05 0)
(0.999381 -3.14465e-05 0)
(0.999401 -3.00421e-05 0)
(0.999421 -2.87034e-05 0)
(0.99944 -2.74276e-05 0)
(0.999458 -2.6212e-05 0)
(0.999475 -2.50537e-05 0)
(0.999491 -2.39503e-05 0)
(0.999506 -2.28994e-05 0)
(0.999521 -2.18987e-05 0)
(0.999536 -2.09459e-05 0)
(0.999549 -2.0039e-05 0)
(0.999562 -1.91759e-05 0)
(0.999575 -1.83548e-05 0)
(0.999587 -1.75738e-05 0)
(0.999598 -1.68312e-05 0)
(0.999609 -1.61254e-05 0)
(0.99962 -1.54547e-05 0)
(0.99963 -1.48177e-05 0)
(0.999639 -1.42129e-05 0)
(0.999649 -1.3639e-05 0)
(0.999657 -1.30945e-05 0)
(0.999666 -1.25782e-05 0)
(0.999674 -1.20889e-05 0)
(0.999682 -1.16254e-05 0)
(0.99969 -1.11865e-05 0)
(0.999697 -1.07711e-05 0)
(0.999704 -1.03781e-05 0)
(0.999711 -1.00065e-05 0)
(0.999717 -9.65524e-06 0)
(0.999724 -9.32339e-06 0)
(0.99973 -9.00998e-06 0)
(0.999736 -8.71407e-06 0)
(0.999741 -8.43475e-06 0)
(0.999747 -8.17116e-06 0)
(0.999752 -7.92244e-06 0)
(0.999757 -7.68775e-06 0)
(0.999762 -7.46628e-06 0)
(0.999767 -7.25726e-06 0)
(0.999772 -7.05991e-06 0)
(0.999777 -6.87349e-06 0)
(0.999781 -6.69727e-06 0)
(0.999786 -6.53056e-06 0)
(0.99979 -6.37267e-06 0)
(0.999794 -6.22295e-06 0)
(0.999798 -6.08076e-06 0)
(0.999802 -5.94548e-06 0)
(0.999806 -5.81653e-06 0)
(0.99981 -5.69333e-06 0)
(0.999814 -5.57534e-06 0)
(0.999817 -5.46203e-06 0)
(0.999821 -5.35293e-06 0)
(0.999825 -5.24755e-06 0)
(0.999828 -5.14545e-06 0)
(0.999831 -5.04622e-06 0)
(0.999835 -4.94947e-06 0)
(0.999838 -4.85484e-06 0)
(0.999841 -4.76201e-06 0)
(0.999844 -4.67068e-06 0)
(0.999847 -4.58058e-06 0)
(0.99985 -4.49147e-06 0)
(0.999853 -4.40317e-06 0)
(0.999856 -4.31549e-06 0)
(0.999859 -4.22832e-06 0)
(0.999862 -4.14155e-06 0)
(0.999865 -4.05512e-06 0)
(0.999867 -3.96898e-06 0)
(0.99987 -3.88313e-06 0)
(0.999873 -3.79758e-06 0)
(0.999875 -3.71236e-06 0)
(0.999877 -3.62751e-06 0)
(0.99988 -3.54306e-06 0)
(0.999882 -3.45908e-06 0)
(0.999884 -3.37562e-06 0)
(0.999887 -3.2927e-06 0)
(0.999889 -3.21039e-06 0)
(0.999891 -3.12873e-06 0)
(0.999893 -3.04775e-06 0)
(0.999895 -2.96754e-06 0)
(0.999897 -2.88817e-06 0)
(0.999899 -2.80976e-06 0)
(0.999901 -2.73248e-06 0)
(0.999903 -2.65651e-06 0)
(0.999904 -2.58213e-06 0)
(0.999906 -2.50963e-06 0)
(0.999908 -2.43935e-06 0)
(0.999909 -2.37167e-06 0)
(0.999911 -2.30692e-06 0)
(0.999912 -2.24545e-06 0)
(0.999914 -2.18748e-06 0)
(0.999915 -2.13315e-06 0)
(0.999917 -2.08245e-06 0)
(0.999918 -2.03518e-06 0)
(0.999919 -1.99096e-06 0)
(0.999921 -1.94925e-06 0)
(0.999922 -1.90934e-06 0)
(0.999923 -1.87047e-06 0)
(0.999924 -1.83186e-06 0)
(0.999926 -1.79282e-06 0)
(0.999927 -1.75284e-06 0)
(0.999928 -1.71167e-06 0)
(0.999929 -1.66933e-06 0)
(0.99993 -1.62619e-06 0)
(0.999931 -1.58292e-06 0)
(0.999932 -1.5404e-06 0)
(0.999933 -1.49967e-06 0)
(0.999934 -1.46182e-06 0)
(0.999935 -1.42785e-06 0)
(0.999936 -1.39856e-06 0)
(0.999937 -1.37454e-06 0)
(0.999938 -1.35603e-06 0)
(0.999939 -1.34298e-06 0)
(0.99994 -1.33505e-06 0)
(0.999941 -1.33162e-06 0)
(0.999942 -1.33191e-06 0)
(0.999942 -1.33501e-06 0)
(0.999943 -1.33994e-06 0)
(0.999944 -1.34575e-06 0)
(0.999945 -1.35155e-06 0)
(0.999946 -1.35654e-06 0)
(0.999947 -1.36007e-06 0)
(0.999948 -1.36159e-06 0)
(0.999949 -1.36072e-06 0)
(0.99995 -1.35723e-06 0)
(0.999951 -1.35097e-06 0)
(0.999951 -1.34194e-06 0)
(0.999952 -1.3302e-06 0)
(0.999953 -1.31589e-06 0)
(0.999954 -1.29921e-06 0)
(0.999955 -1.28038e-06 0)
(0.999956 -1.25967e-06 0)
(0.999957 -1.23734e-06 0)
(0.999957 -1.21364e-06 0)
(0.999958 -1.18885e-06 0)
(0.999959 -1.1632e-06 0)
(0.99996 -1.13693e-06 0)
(0.999961 -1.11025e-06 0)
(0.999961 -1.08334e-06 0)
(0.999962 -1.05638e-06 0)
(0.999963 -1.02951e-06 0)
(0.999963 -1.00286e-06 0)
(0.999964 -9.76544e-07 0)
(0.999965 -9.50649e-07 0)
(0.999965 -9.25251e-07 0)
(0.999966 -9.00411e-07 0)
(0.999967 -8.76176e-07 0)
(0.999967 -8.52584e-07 0)
(0.999968 -8.29659e-07 0)
(0.999968 -8.07419e-07 0)
(0.999969 -7.85874e-07 0)
(0.999969 -7.65027e-07 0)
(0.99997 -7.44876e-07 0)
(0.99997 -7.25416e-07 0)
(0.999971 -7.06634e-07 0)
(0.999971 -6.8852e-07 0)
(0.999972 -6.71057e-07 0)
(0.999972 -6.54228e-07 0)
(0.999973 -6.38014e-07 0)
(0.999973 -6.22395e-07 0)
(0.999973 -6.07351e-07 0)
(0.999974 -5.92862e-07 0)
(0.999974 -5.78905e-07 0)
(0.999975 -5.65461e-07 0)
(0.999975 -5.52508e-07 0)
(0.999975 -5.40027e-07 0)
(0.999976 -5.27996e-07 0)
(0.999976 -5.16396e-07 0)
(0.999976 -5.05209e-07 0)
(0.999977 -4.94415e-07 0)
(0.999977 -4.83997e-07 0)
(0.999977 -4.73938e-07 0)
(0.999978 -4.64222e-07 0)
(0.999978 -4.54831e-07 0)
(0.999978 -4.45752e-07 0)
(0.999978 -4.36969e-07 0)
(0.999979 -4.28469e-07 0)
(0.999979 -4.20238e-07 0)
(0.999979 -4.12264e-07 0)
(0.99998 -4.04535e-07 0)
(0.99998 -3.97039e-07 0)
(0.99998 -3.89766e-07 0)
(0.99998 -3.82704e-07 0)
(0.999981 -3.75845e-07 0)
(0.999981 -3.69179e-07 0)
(0.999981 -3.62696e-07 0)
(0.999981 -3.56389e-07 0)
(0.999982 -3.50249e-07 0)
(0.999982 -3.4427e-07 0)
(0.999982 -3.38443e-07 0)
(0.999982 -3.32762e-07 0)
(0.999983 -3.2722e-07 0)
(0.999983 -3.21812e-07 0)
(0.999983 -3.16531e-07 0)
(0.999983 -3.11372e-07 0)
(0.999983 -3.0633e-07 0)
(0.999984 -3.014e-07 0)
(0.999984 -2.96577e-07 0)
(0.999984 -2.91857e-07 0)
(0.999984 -2.87235e-07 0)
(0.999984 -2.82708e-07 0)
(0.999985 -2.78272e-07 0)
(0.999985 -2.73923e-07 0)
(0.999985 -2.69657e-07 0)
(0.999985 -2.65472e-07 0)
(0.999985 -2.61365e-07 0)
(0.999985 -2.57332e-07 0)
(0.999986 -2.53371e-07 0)
(0.999986 -2.49479e-07 0)
(0.999986 -2.45654e-07 0)
(0.999986 -2.41893e-07 0)
(0.999986 -2.38194e-07 0)
(0.999986 -2.34555e-07 0)
(0.999987 -2.30974e-07 0)
(0.999987 -2.27449e-07 0)
(0.999987 -2.23978e-07 0)
(0.999987 -2.20559e-07 0)
(0.999987 -2.17191e-07 0)
(0.999987 -2.13872e-07 0)
(0.999987 -2.10601e-07 0)
(0.999988 -2.07376e-07 0)
(0.999988 -2.04196e-07 0)
(0.999988 -2.01059e-07 0)
(0.999988 -1.97965e-07 0)
(0.999988 -1.94911e-07 0)
(0.999988 -1.91898e-07 0)
(0.999988 -1.88923e-07 0)
(0.999988 -1.85985e-07 0)
(0.999989 -1.83085e-07 0)
(0.999989 -1.8022e-07 0)
(0.999989 -1.77389e-07 0)
(0.999989 -1.74593e-07 0)
(0.999989 -1.7183e-07 0)
(0.999989 -1.69099e-07 0)
(0.999989 -1.66399e-07 0)
(0.999989 -1.6373e-07 0)
(0.99999 -1.6109e-07 0)
(0.99999 -1.5848e-07 0)
(0.99999 -1.55899e-07 0)
(0.99999 -1.53345e-07 0)
(0.99999 -1.50818e-07 0)
(0.99999 -1.48318e-07 0)
(0.99999 -1.45844e-07 0)
(0.99999 -1.43396e-07 0)
(0.99999 -1.40972e-07 0)
(0.99999 -1.38572e-07 0)
(0.999991 -1.36197e-07 0)
(0.999991 -1.33844e-07 0)
(0.999991 -1.31514e-07 0)
(0.999991 -1.29206e-07 0)
(0.999991 -1.26921e-07 0)
(0.999991 -1.24656e-07 0)
(0.999991 -1.22412e-07 0)
(0.999991 -1.20189e-07 0)
(0.999991 -1.17985e-07 0)
(0.999991 -1.15801e-07 0)
(0.999991 -1.13636e-07 0)
(0.999991 -1.1149e-07 0)
(0.999992 -1.09362e-07 0)
(0.999992 -1.07252e-07 0)
(0.999992 -1.0516e-07 0)
(0.999992 -1.03085e-07 0)
(0.999992 -1.01026e-07 0)
(0.999992 -9.89846e-08 0)
(0.999992 -9.69588e-08 0)
(0.999992 -9.49488e-08 0)
(0.999992 -9.29541e-08 0)
(0.999992 -9.09744e-08 0)
(0.999992 -8.90095e-08 0)
(0.999992 -8.7059e-08 0)
(0.999992 -8.51226e-08 0)
(0.999992 -8.31999e-08 0)
(0.999992 -8.12907e-08 0)
(0.999992 -7.93946e-08 0)
(0.999992 -7.75115e-08 0)
(0.999993 -7.56407e-08 0)
(0.999993 -7.37831e-08 0)
(0.999993 -7.19333e-08 0)
(0.999993 -7.01127e-08 0)
(0.999993 -6.82287e-08 0)
(0.999993 -6.66745e-08 0)
(0.999993 -6.37718e-08 0)
(-0.0150872 0.0493866 0)
(-0.0235292 -0.022566 0)
(0.00993669 -0.0939191 0)
(0.0649792 -0.120527 0)
(0.113823 -0.111653 0)
(0.147005 -0.0855465 0)
(0.168638 -0.0578441 0)
(0.183481 -0.0367793 0)
(0.193859 -0.0241065 0)
(0.201581 -0.018612 0)
(0.208678 -0.0181459 0)
(0.216583 -0.0205804 0)
(0.225895 -0.0243134 0)
(0.236736 -0.0283865 0)
(0.249075 -0.0323412 0)
(0.262851 -0.0360115 0)
(0.278002 -0.0393656 0)
(0.294464 -0.0424055 0)
(0.312157 -0.0451162 0)
(0.330959 -0.0474581 0)
(0.350705 -0.0493841 0)
(0.371188 -0.0508645 0)
(0.392194 -0.0519048 0)
(0.413526 -0.0525314 0)
(0.435008 -0.052763 0)
(0.456471 -0.0526087 0)
(0.477743 -0.0520885 0)
(0.498672 -0.051257 0)
(0.519149 -0.0501974 0)
(0.539111 -0.0489834 0)
(0.558521 -0.0476699 0)
(0.577361 -0.0463031 0)
(0.595627 -0.044914 0)
(0.613324 -0.0435177 0)
(0.630456 -0.0421214 0)
(0.647028 -0.0407273 0)
(0.663041 -0.0393355 0)
(0.678496 -0.0379465 0)
(0.693394 -0.0365621 0)
(0.707735 -0.0351854 0)
(0.721524 -0.0338201 0)
(0.734765 -0.032471 0)
(0.747466 -0.0311425 0)
(0.759637 -0.0298392 0)
(0.771288 -0.0285649 0)
(0.782434 -0.027323 0)
(0.793087 -0.0261159 0)
(0.803263 -0.0249457 0)
(0.812977 -0.0238137 0)
(0.822246 -0.0227207 0)
(0.831085 -0.0216672 0)
(0.839511 -0.0206533 0)
(0.847539 -0.0196788 0)
(0.855185 -0.0187432 0)
(0.862466 -0.0178458 0)
(0.869396 -0.016986 0)
(0.875991 -0.0161629 0)
(0.882264 -0.0153754 0)
(0.88823 -0.0146225 0)
(0.893903 -0.0139032 0)
(0.899296 -0.0132163 0)
(0.904421 -0.0125608 0)
(0.909292 -0.0119354 0)
(0.913919 -0.0113391 0)
(0.918314 -0.0107707 0)
(0.922488 -0.010229 0)
(0.926452 -0.00971316 0)
(0.930216 -0.00922192 0)
(0.933788 -0.0087543 0)
(0.937179 -0.00830928 0)
(0.940398 -0.00788588 0)
(0.943452 -0.00748316 0)
(0.94635 -0.0071002 0)
(0.949099 -0.00673613 0)
(0.951707 -0.0063901 0)
(0.954181 -0.00606129 0)
(0.956527 -0.00574892 0)
(0.958752 -0.00545224 0)
(0.960862 -0.00517053 0)
(0.962864 -0.00490308 0)
(0.964761 -0.00464924 0)
(0.96656 -0.00440835 0)
(0.968266 -0.0041798 0)
(0.969883 -0.00396299 0)
(0.971417 -0.00375735 0)
(0.97287 -0.00356233 0)
(0.974249 -0.00337741 0)
(0.975555 -0.00320207 0)
(0.976794 -0.00303584 0)
(0.977969 -0.00287826 0)
(0.979082 -0.00272886 0)
(0.980138 -0.00258723 0)
(0.981139 -0.00245296 0)
(0.982088 -0.00232564 0)
(0.982988 -0.00220492 0)
(0.983841 -0.00209041 0)
(0.98465 -0.0019818 0)
(0.985416 -0.00187876 0)
(0.986143 -0.00178099 0)
(0.986832 -0.00168821 0)
(0.987485 -0.00160016 0)
(0.988104 -0.0015166 0)
(0.988691 -0.0014373 0)
(0.989247 -0.00136206 0)
(0.989774 -0.00129068 0)
(0.990273 -0.00122298 0)
(0.990746 -0.00115878 0)
(0.991194 -0.00109794 0)
(0.991618 -0.00104028 0)
(0.992021 -0.000985671 0)
(0.992402 -0.000933963 0)
(0.992763 -0.00088502 0)
(0.993105 -0.000838711 0)
(0.993429 -0.000794909 0)
(0.993737 -0.000753492 0)
(0.994028 -0.000714342 0)
(0.994304 -0.000677347 0)
(0.994566 -0.000642399 0)
(0.994815 -0.000609394 0)
(0.995051 -0.000578233 0)
(0.995274 -0.000548819 0)
(0.995487 -0.000521062 0)
(0.995688 -0.000494871 0)
(0.99588 -0.000470163 0)
(0.996062 -0.000446853 0)
(0.996235 -0.000424864 0)
(0.9964 -0.000404116 0)
(0.996556 -0.000384537 0)
(0.996705 -0.000366055 0)
(0.996847 -0.000348602 0)
(0.996982 -0.00033211 0)
(0.997111 -0.000316519 0)
(0.997234 -0.000301767 0)
(0.997351 -0.0002878 0)
(0.997463 -0.000274564 0)
(0.99757 -0.00026201 0)
(0.997671 -0.000250091 0)
(0.997769 -0.000238766 0)
(0.997861 -0.000227995 0)
(0.99795 -0.000217742 0)
(0.998035 -0.000207975 0)
(0.998116 -0.000198664 0)
(0.998193 -0.000189781 0)
(0.998267 -0.000181301 0)
(0.998337 -0.000173203 0)
(0.998405 -0.000165466 0)
(0.998469 -0.000158072 0)
(0.99853 -0.000151003 0)
(0.998589 -0.000144244 0)
(0.998645 -0.000137781 0)
(0.998699 -0.0001316 0)
(0.99875 -0.00012569 0)
(0.998799 -0.000120039 0)
(0.998846 -0.000114636 0)
(0.99889 -0.00010947 0)
(0.998933 -0.000104533 0)
(0.998974 -9.98151e-05 0)
(0.999012 -9.53072e-05 0)
(0.999049 -9.10009e-05 0)
(0.999085 -8.68881e-05 0)
(0.999119 -8.29609e-05 0)
(0.999151 -7.92116e-05 0)
(0.999182 -7.56328e-05 0)
(0.999211 -7.22175e-05 0)
(0.999239 -6.89586e-05 0)
(0.999266 -6.58496e-05 0)
(0.999292 -6.2884e-05 0)
(0.999316 -6.00555e-05 0)
(0.999339 -5.73582e-05 0)
(0.999362 -5.47863e-05 0)
(0.999383 -5.23343e-05 0)
(0.999403 -4.9997e-05 0)
(0.999423 -4.77691e-05 0)
(0.999441 -4.56459e-05 0)
(0.999459 -4.36227e-05 0)
(0.999476 -4.16952e-05 0)
(0.999492 -3.98589e-05 0)
(0.999508 -3.811e-05 0)
(0.999523 -3.64445e-05 0)
(0.999537 -3.48589e-05 0)
(0.99955 -3.33495e-05 0)
(0.999563 -3.19132e-05 0)
(0.999576 -3.05466e-05 0)
(0.999588 -2.92469e-05 0)
(0.999599 -2.80111e-05 0)
(0.99961 -2.68365e-05 0)
(0.99962 -2.57204e-05 0)
(0.99963 -2.46604e-05 0)
(0.99964 -2.3654e-05 0)
(0.999649 -2.26988e-05 0)
(0.999658 -2.17928e-05 0)
(0.999667 -2.09337e-05 0)
(0.999675 -2.01195e-05 0)
(0.999683 -1.93483e-05 0)
(0.99969 -1.8618e-05 0)
(0.999697 -1.79268e-05 0)
(0.999704 -1.7273e-05 0)
(0.999711 -1.66548e-05 0)
(0.999718 -1.60705e-05 0)
(0.999724 -1.55185e-05 0)
(0.99973 -1.49972e-05 0)
(0.999736 -1.4505e-05 0)
(0.999742 -1.40404e-05 0)
(0.999747 -1.36021e-05 0)
(0.999752 -1.31885e-05 0)
(0.999758 -1.27982e-05 0)
(0.999763 -1.243e-05 0)
(0.999768 -1.20824e-05 0)
(0.999772 -1.17544e-05 0)
(0.999777 -1.14445e-05 0)
(0.999781 -1.11515e-05 0)
(0.999786 -1.08745e-05 0)
(0.99979 -1.0612e-05 0)
(0.999794 -1.03632e-05 0)
(0.999798 -1.01269e-05 0)
(0.999802 -9.9021e-06 0)
(0.999806 -9.68781e-06 0)
(0.99981 -9.48308e-06 0)
(0.999814 -9.287e-06 0)
(0.999818 -9.09872e-06 0)
(0.999821 -8.91739e-06 0)
(0.999825 -8.74225e-06 0)
(0.999828 -8.57254e-06 0)
(0.999832 -8.40759e-06 0)
(0.999835 -8.24674e-06 0)
(0.999838 -8.0894e-06 0)
(0.999841 -7.93501e-06 0)
(0.999844 -7.78308e-06 0)
(0.999848 -7.63317e-06 0)
(0.999851 -7.48488e-06 0)
(0.999854 -7.33789e-06 0)
(0.999856 -7.19191e-06 0)
(0.999859 -7.04673e-06 0)
(0.999862 -6.90219e-06 0)
(0.999865 -6.75818e-06 0)
(0.999867 -6.61464e-06 0)
(0.99987 -6.47155e-06 0)
(0.999873 -6.32894e-06 0)
(0.999875 -6.18686e-06 0)
(0.999878 -6.04538e-06 0)
(0.99988 -5.90459e-06 0)
(0.999882 -5.76457e-06 0)
(0.999885 -5.62541e-06 0)
(0.999887 -5.48717e-06 0)
(0.999889 -5.34993e-06 0)