/*--------------------------------*- C++ -*----------------------------------*\
| =========                 |                                                 |
| \\      /  F ield         | OpenFOAM: The Open Source CFD Toolbox           |
|  \\    /   O peration     | Version:  v2006                                 |
|   \\  /    A nd           | Website:  www.openfoam.com                      |
|    \\/     M anipulation  |                                                 |
\*---------------------------------------------------------------------------*/
FoamFile
{
    version     2.0;
    format      ascii;
    class       volScalarField;
    location    "0";
    object      f;
}
// * * * * * * * * * * * * * * * * * * * * * * * * * * * * * * * * * * * * * //

dimensions      [0 0 0 0 0 0 0];


internalField   nonuniform List<scalar> 
2500
(
2.04105e-71
-1.18265e-57
1.25924e-50
-1.40882e-45
-1.28746e-41
-1.41673e-38
-2.77617e-36
2.08523e-34
-1.36935e-33
3.67054e-31
2.18004e-29
1.90199e-28
-1.60518e-27
-1.55004e-26
-2.84293e-26
1.47963e-25
-8.52004e-25
-1.72206e-23
-6.95094e-23
-1.92984e-22
-3.70022e-22
-3.92411e-22
2.1184e-22
1.65858e-21
3.53807e-21
6.26614e-21
1.5944e-22
-2.3076e-20
-5.38909e-20
-6.92741e-20
-4.13979e-20
2.45979e-20
9.71008e-20
1.21669e-19
6.56015e-20
-2.11521e-19
-3.23488e-19
2.58923e-19
9.74861e-19
8.26827e-19
-6.75777e-20
-7.37516e-19
-1.41049e-18
-2.69786e-18
-4.14594e-18
-4.46189e-18
-3.51232e-18
-1.2055e-18
6.34124e-19
8.59665e-19
2.38364e-69
-4.31359e-56
3.11985e-49
-3.7209e-44
-8.36912e-41
-1.37595e-37
-2.44076e-35
1.43594e-33
-3.42608e-33
1.9763e-30
1.02681e-28
8.48926e-28
-5.59705e-27
-5.54733e-26
-1.181e-25
3.32273e-25
-2.24106e-24
-4.6617e-23
-1.71197e-22
-4.53195e-22
-8.56438e-22
-9.61754e-22
2.17452e-22
3.0278e-21
6.76553e-21
1.3747e-20
6.10598e-21
-3.36803e-20
-8.77769e-20
-1.1034e-19
-5.97972e-20
4.13462e-20
1.40641e-19
1.488e-19
5.26192e-20
-3.98672e-19
-7.01449e-19
-2.66564e-20
9.37274e-19
8.21074e-19
-2.64442e-19
-9.71761e-19
-1.64172e-18
-3.01765e-18
-4.75439e-18
-5.45778e-18
-4.75659e-18
-2.01688e-18
7.68311e-19
1.53814e-18
2.47414e-67
-1.41683e-54
7.55905e-48
-8.37899e-43
-4.7579e-41
-1.29264e-36
-2.12823e-34
9.59631e-33
8.52522e-34
1.08544e-29
5.10882e-28
4.02979e-27
-2.15477e-26
-2.2069e-25
-5.10165e-25
8.24591e-25
-7.12334e-24
-1.54445e-22
-5.2408e-22
-1.33232e-21
-2.48808e-21
-2.88966e-21
2.83033e-22
7.68691e-21
1.74416e-20
3.85811e-20
2.6006e-20
-6.97989e-20
-2.07242e-19
-2.57772e-19
-1.25531e-19
1.12569e-19
3.34013e-19
3.15671e-19
9.62879e-20
-9.45391e-19
-1.78106e-18
-4.98971e-19
1.55215e-18
1.41207e-18
-7.75764e-19
-2.04962e-18
-3.20099e-18
-5.71865e-18
-9.14403e-18
-1.09662e-17
-1.02735e-17
-5.07446e-18
1.00365e-18
3.46644e-18
2.47089e-65
-4.48752e-53
1.87093e-46
-1.72051e-41
1.07456e-38
-1.16894e-35
-1.79964e-33
5.91466e-32
9.74096e-32
5.59542e-29
2.42918e-27
1.81531e-26
-7.92902e-26
-8.41061e-25
-2.04528e-24
1.6248e-24
-2.1921e-23
-5.00039e-22
-1.55989e-21
-3.78094e-21
-6.94837e-21
-8.29613e-21
3.52319e-22
1.97328e-20
4.41218e-20
1.04104e-19
9.00515e-20
-1.31053e-19
-4.76514e-19
-5.88493e-19
-2.47094e-19
3.09392e-19
8.05503e-19
6.79031e-19
2.0072e-19
-2.11061e-18
-4.22013e-18
-1.87947e-18
2.37025e-18
2.29112e-18
-2.03084e-18
-4.19447e-18
-6.04994e-18
-1.04743e-17
-1.69348e-17
-2.12344e-17
-2.14583e-17
-1.21675e-17
4.28871e-19
7.20676e-18
2.37071e-63
-1.37512e-51
4.69863e-45
-3.30077e-40
2.50699e-37
-1.01968e-34
-1.47484e-32
3.29544e-31
8.23003e-31
2.67274e-28
1.10037e-26
7.72844e-26
-2.80833e-25
-3.08565e-24
-7.67297e-24
1.61472e-24
-6.57802e-23
-1.58012e-21
-4.52023e-21
-1.03682e-20
-1.86676e-20
-2.28791e-20
1.29022e-21
5.28298e-20
1.11789e-19
2.72063e-19
2.77319e-19
-2.06664e-19
-1.06521e-18
-1.31267e-18
-4.47958e-19
8.40786e-19
1.95513e-18
1.47276e-18
4.63311e-19
-4.49085e-18
-9.46017e-18
-5.35638e-18
3.20756e-18
3.45106e-18
-4.91551e-18
-8.28614e-18
-1.10481e-17
-1.8547e-17
-3.00966e-17
-3.9457e-17
-4.32164e-17
-2.77406e-17
-2.84024e-18
1.38897e-17
2.18155e-61
-4.10538e-50
1.18583e-43
-5.99453e-39
4.18364e-36
-8.62059e-34
-1.17018e-31
1.58951e-30
4.22145e-30
1.1521e-27
4.72726e-26
3.09356e-25
-9.69566e-25
-1.09978e-23
-2.71307e-23
-5.51858e-24
-1.96191e-22
-4.86193e-21
-1.27562e-20
-2.749e-20
-4.82888e-20
-6.10416e-20
8.24837e-21
1.51034e-19
2.91698e-19
6.95798e-19
7.85912e-19
-2.03624e-19
-2.31214e-18
-2.86098e-18
-7.24265e-19
2.23073e-18
4.73301e-18
3.20352e-18
1.11994e-18
-9.2011e-18
-2.02447e-17
-1.33073e-17
3.46643e-18
4.6876e-18
-1.11869e-17
-1.56988e-17
-1.94004e-17
-3.18671e-17
-5.11374e-17
-7.00259e-17
-8.37706e-17
-6.0241e-17
-1.30748e-17
2.48066e-17
1.92163e-59
-1.20957e-48
2.97758e-42
-1.0387e-37
6.00099e-35
-7.12765e-33
-8.97649e-31
5.88322e-30
9.67369e-30
4.20393e-27
1.91228e-25
1.15613e-24
-3.31882e-24
-3.8647e-23
-9.12166e-23
-4.33841e-23
-6.03386e-22
-1.45206e-20
-3.50011e-20
-7.03916e-20
-1.20272e-19
-1.58972e-19
4.17715e-20
4.60264e-19
8.04331e-19
1.76637e-18
2.08446e-18
2.42324e-19
-4.87083e-18
-6.09518e-18
-9.76785e-19
5.73467e-18
1.13269e-17
6.96451e-18
2.72831e-18
-1.83488e-17
-4.16804e-17
-3.0198e-17
1.74043e-18
5.38964e-18
-2.41564e-17
-2.82799e-17
-3.25064e-17
-5.3706e-17
-8.2748e-17
-1.18022e-16
-1.56136e-16
-1.25091e-16
-3.89587e-17
4.08746e-17
1.61659e-57
-3.5889e-47
7.37324e-41
-1.72575e-36
7.83342e-34
-5.85177e-32
-6.64744e-30
7.78036e-30
-7.25801e-29
1.0329e-26
7.18849e-25
3.99166e-24
-1.14108e-23
-1.36551e-22
-2.95317e-22
-1.79451e-22
-2.00621e-21
-4.19602e-20
-9.29982e-20
-1.73236e-19
-2.87599e-19
-4.07742e-19
1.63613e-19
1.45243e-18
2.3603e-18
4.5255e-18
5.22535e-18
2.2617e-18
-9.96903e-18
-1.2697e-17
-9.00351e-19
1.42217e-17
2.65696e-17
1.51142e-17
6.61883e-18
-3.60507e-17
-8.32901e-17
-6.39471e-17
-4.7386e-18
4.279e-18
-4.97471e-17
-4.78645e-17
-5.12641e-17
-9.08834e-17
-1.27039e-16
-1.87526e-16
-2.7969e-16
-2.49825e-16
-9.67494e-17
6.16175e-17
1.29525e-55
-1.09984e-45
1.78759e-39
-2.75794e-35
9.55479e-33
-4.87213e-31
-4.74703e-29
-1.27615e-28
-1.12799e-27
-1.25342e-26
2.44226e-24
1.2498e-23
-3.91268e-23
-4.94456e-22
-9.3632e-22
-5.46209e-22
-7.39391e-21
-1.17112e-19
-2.37768e-19
-4.05167e-19
-6.5378e-19
-1.03442e-18
5.04513e-19
4.5607e-18
7.23342e-18
1.18637e-17
1.24565e-17
8.92746e-18
-1.99113e-17
-2.58518e-17
8.46254e-20
3.39639e-17
6.05814e-17
3.2739e-17
1.60485e-17
-7.06569e-17
-1.63459e-16
-1.27883e-16
-2.06595e-17
-7.50267e-19
-9.79636e-17
-7.48189e-17
-7.40756e-17
-1.60614e-16
-1.8466e-16
-2.78595e-16
-4.81283e-16
-4.83942e-16
-2.15034e-16
8.38707e-17
9.84819e-54
-3.55467e-44
4.21841e-38
-4.247e-34
1.10601e-31
-4.20258e-30
-3.27e-28
-1.68932e-27
-8.12844e-27
-4.04215e-25
6.97751e-24
3.40673e-23
-1.27832e-22
-1.85171e-21
-2.95697e-21
-1.13271e-21
-2.94363e-20
-3.16329e-19
-5.81015e-19
-8.81637e-19
-1.37784e-18
-2.57961e-18
1.15184e-18
1.37379e-17
2.23978e-17
3.19572e-17
2.83075e-17
2.78264e-17
-3.93044e-17
-5.1372e-17
2.57108e-18
7.82418e-17
1.33157e-16
7.0712e-17
3.91178e-17
-1.39343e-16
-3.20168e-16
-2.43303e-16
-5.2701e-17
-1.2328e-17
-1.84486e-16
-1.05274e-16
-9.22681e-17
-3.1026e-16
-2.55883e-16
-3.86778e-16
-7.95212e-16
-9.2198e-16
-4.41949e-16
1.01102e-16
7.06719e-52
-1.21593e-42
9.64195e-37
-6.30599e-33
1.22801e-30
-3.79435e-29
-2.17997e-27
-1.4032e-26
-2.83499e-26
-3.6e-24
1.24851e-23
7.1214e-23
-3.53879e-22
-7.12405e-21
-9.36789e-21
6.34374e-23
-1.19462e-19
-8.34353e-19
-1.3543e-18
-1.72029e-18
-2.53021e-18
-6.19228e-18
1.25149e-18
3.84701e-17
6.80386e-17
8.78572e-17
6.10792e-17
7.63586e-17
-7.89461e-17
-9.95056e-17
6.12204e-18
1.75034e-16
2.79498e-16
1.5166e-16
9.57345e-17
-2.76162e-16
-6.39164e-16
-4.4161e-16
-1.07919e-16
-3.22417e-17
-3.30773e-16
-1.28273e-16
-8.21006e-17
-6.76999e-16
-3.56542e-16
-5.31824e-16
-1.28981e-15
-1.78849e-15
-8.56924e-16
1.05077e-16
4.73799e-50
-4.32681e-41
2.12517e-35
-9.02492e-32
1.3184e-29
-3.55179e-28
-1.41776e-26
-9.56624e-26
1.55342e-25
-2.38687e-23
-2.77178e-23
3.8687e-23
-5.20006e-22
-2.76503e-20
-2.93962e-20
1.82548e-20
-4.67942e-19
-2.19013e-18
-3.05753e-18
-2.81777e-18
-3.32127e-18
-1.37813e-17
-4.74869e-18
9.67963e-17
2.001e-16
2.44769e-16
1.22971e-16
1.92761e-16
-1.69306e-16
-1.88766e-16
7.92679e-18
3.85308e-16
5.52038e-16
3.19988e-16
2.3317e-16
-5.40419e-16
-1.32605e-15
-7.58288e-16
-1.88228e-16
-5.84712e-17
-5.56019e-16
-1.28013e-16
4.98277e-18
-1.71458e-15
-9.96096e-16
-1.90617e-15
-3.34451e-15
-4.00653e-15
-1.59248e-15
9.18196e-17
2.89405e-48
-1.55722e-39
4.4976e-34
-1.24338e-30
1.37682e-28
-3.35849e-27
-9.11433e-26
-5.92517e-25
3.90444e-24
-1.31803e-22
-4.72791e-22
-7.42501e-22
2.56241e-21
-1.06216e-19
-8.84521e-20
1.41886e-19
-1.70011e-18
-5.87634e-18
-7.06985e-18
-3.36762e-18
5.17028e-19
-2.67278e-17
-3.86573e-17
2.06681e-16
5.8409e-16
7.11352e-16
2.21937e-16
4.63394e-16
-4.02858e-16
-3.6174e-16
6.44503e-18
8.67066e-16
9.94364e-16
6.51296e-16
5.61849e-16
-9.99278e-16
-2.66256e-15
-1.18361e-15
-2.80275e-16
-8.10482e-17
-8.41606e-16
-9.82135e-17
2.30845e-16
-4.63555e-15
-1.41988e-14
-1.98739e-14
-2.0264e-14
-1.12558e-14
-2.92537e-15
7.21992e-17
1.48224e-46
-5.5177e-38
9.09987e-33
-1.64562e-29
1.40343e-27
-3.10814e-26
-5.87276e-25
-3.70376e-24
4.36238e-23
-6.13371e-22
-3.4349e-21
-6.21769e-21
3.10231e-20
-3.99099e-19
-2.45386e-19
8.27469e-19
-5.54766e-18
-1.64461e-17
-1.85861e-17
-1.88101e-18
2.25e-17
-3.93659e-17
-1.66705e-16
3.31313e-16
1.96825e-15
2.43832e-15
5.02459e-16
1.11858e-15
-9.93548e-16
-7.83262e-16
6.22801e-16
2.75169e-15
1.53729e-15
1.21537e-15
1.40958e-15
-1.64402e-15
-3.2979e-15
-1.53653e-15
-3.6886e-16
-1.04052e-16
-1.07527e-15
-5.66936e-17
5.27185e-16
-9.42301e-15
-5.81107e-14
-7.58994e-14
-7.58894e-14
-2.81756e-14
-5.62472e-15
3.84336e-13
3.85385e-45
-1.88587e-36
1.75207e-31
-2.08656e-28
1.39653e-26
-2.73307e-25
-3.80008e-24
-2.60651e-23
3.63717e-22
-2.28345e-21
-1.9514e-20
-3.64369e-20
2.01043e-19
-1.46472e-18
-6.19078e-19
4.22271e-18
-1.56548e-17
-4.75845e-17
-5.96193e-17
-7.72358e-19
8.57996e-17
-2.14835e-17
-7.17809e-16
4.8432e-16
7.89636e-15
8.21385e-15
1.17288e-14
2.49876e-15
-1.68294e-15
-2.02589e-15
8.94489e-14
1.01083e-14
1.81863e-15
1.83091e-15
4.76025e-15
-3.64483e-15
1.53076e-14
-1.97178e-15
-7.69905e-16
-7.57193e-14
-3.11839e-15
5.62576e-15
6.10092e-16
-1.14271e-14
-7.39428e-14
-1.47715e-13
-1.85223e-13
-5.14436e-14
2.7341e-12
2.98161e-12
-5.45308e-43
-6.12856e-35
3.19411e-30
-2.52596e-27
1.35073e-25
-2.2229e-24
-2.40113e-23
-2.09884e-22
2.47708e-21
-5.32228e-21
-9.49174e-20
-1.82881e-19
1.01957e-18
-5.28952e-18
-1.59377e-18
1.95075e-17
-3.56266e-17
-1.34666e-16
-2.25934e-16
-2.94166e-17
2.41357e-16
8.86026e-17
-8.27516e-15
3.50817e-14
2.4146e-14
1.55848e-14
6.49593e-14
-1.68498e-14
4.70246e-13
1.56098e-12
5.2289e-13
-9.81535e-14
-4.30504e-15
1.86796e-15
1.74613e-14
-2.58281e-14
6.61568e-14
-3.05282e-12
-2.35661e-12
-8.72847e-13
-3.019e-13
7.51421e-14
-7.88775e-13
2.32311e-12
2.74752e-12
-1.52409e-13
-3.60554e-13
2.08938e-11
3.68557e-11
9.56511e-12
-1.45098e-40
-1.87368e-33
5.48261e-29
-2.90725e-26
1.25674e-24
-1.62704e-23
-1.36721e-22
-1.75781e-21
1.39914e-20
8.52601e-21
-4.00803e-19
-8.12924e-19
4.37823e-18
-1.89821e-17
-5.93131e-18
8.21599e-17
-5.24365e-17
-3.23967e-16
-1.3158e-15
-2.40203e-16
1.20285e-14
-1.46211e-14
-4.98694e-14
3.25203e-13
4.36928e-14
-1.09962e-14
1.02685e-13
-2.3462e-12
1.69703e-11
2.26657e-11
1.5044e-12
-2.1898e-11
-4.31626e-11
-2.38178e-12
3.45124e-14
-7.88238e-13
-2.00021e-11
-1.8619e-11
-1.21748e-11
-2.56363e-12
-1.54923e-12
3.16206e-13
-6.70351e-12
1.63156e-11
1.00314e-10
1.04895e-10
1.50521e-10
2.14503e-10
1.37518e-10
1.85183e-11
-2.42123e-38
-5.3417e-32
8.80195e-28
-3.16122e-25
1.10367e-23
-1.03871e-22
-5.57787e-22
-1.38284e-20
6.35292e-20
2.00458e-19
-1.43875e-18
-3.1586e-18
1.6437e-17
-6.77747e-17
-3.36649e-17
3.32596e-16
3.30069e-17
-8.7487e-16
-1.06783e-14
8.17252e-14
8.87931e-14
-8.82092e-13
-1.31987e-13
1.53462e-12
-2.50464e-11
-4.86038e-11
-1.8126e-11
-1.12362e-11
6.6436e-11
8.2003e-11
-8.55405e-11
-1.22196e-09
-1.02901e-09
-1.86041e-10
-6.23892e-10
-2.03396e-09
-2.57483e-10
-4.42615e-11
-2.62749e-11
-3.37772e-12
-3.33108e-12
7.95721e-13
-1.94526e-11
3.86448e-11
3.43382e-10
8.53079e-10
1.06077e-09
7.4434e-10
3.34602e-10
1.71562e-11
-3.45158e-36
-1.40781e-30
1.30966e-26
-3.20626e-24
8.84995e-23
-5.63632e-22
5.26456e-22
-9.58523e-20
2.03713e-19
1.49106e-18
-4.13497e-18
-1.02241e-17
5.63074e-17
-2.44082e-16
-2.07799e-16
2.35099e-15
6.7689e-16
-2.32954e-14
-3.31434e-14
6.43374e-13
2.73001e-14
-3.45929e-12
1.82516e-11
3.87369e-12
-1.52138e-10
-2.62055e-10
-9.23204e-11
-2.70846e-11
1.05459e-10
5.48642e-11
-2.51829e-09
-5.52452e-09
-6.31457e-09
-1.34586e-08
-4.16343e-09
-1.25957e-08
-6.98915e-10
-5.28041e-11
-3.08683e-11
2.65155e-11
-3.74699e-12
1.59911e-12
-3.67775e-11
7.01363e-11
2.74224e-10
2.25815e-09
3.2413e-09
1.7697e-09
5.63343e-10
-1.21852e-08
-4.41786e-34
-3.39366e-29
1.77437e-25
-2.93145e-23
6.08644e-22
-2.83054e-21
4.40886e-20
-5.58671e-19
1.67291e-19
7.4814e-18
-8.27016e-18
-2.35488e-17
2.03198e-16
-1.84588e-15
-9.47565e-16
1.87009e-14
-6.92435e-14
-3.28237e-13
2.67662e-12
1.9283e-12
-3.04246e-11
2.45827e-12
1.46248e-10
-6.66183e-11
-4.46337e-10
-6.10751e-10
-1.52114e-10
-5.18864e-11
-1.56553e-10
-1.95582e-08
-3.426e-08
-1.92459e-08
-1.55642e-08
-7.56093e-08
-8.81175e-09
-2.8355e-08
4.54685e-07
7.73577e-08
7.42711e-08
1.29711e-08
-6.18301e-12
4.28804e-12
-6.21598e-11
3.08627e-10
-6.85082e-09
3.05408e-09
7.12766e-09
3.06897e-09
-6.65449e-08
-6.5689e-08
-5.09288e-32
-7.32511e-28
2.07114e-24
-2.15035e-22
3.09184e-21
-2.24974e-20
5.92314e-19
-2.57144e-18
-3.2371e-18
2.1479e-17
-8.25139e-18
3.51356e-18
8.11362e-16
-1.95855e-14
1.0511e-13
6.03272e-14
-7.91256e-13
-1.13746e-12
2.32339e-11
-1.06283e-10
-1.41278e-10
5.44969e-10
6.52076e-10
-3.89986e-10
-7.22549e-10
-9.42873e-10
1.41994e-08
-4.42056e-08
-7.8822e-08
-8.7351e-08
-1.61155e-07
1.24149e-06
2.98164e-06
-1.28552e-07
6.15182e-06
6.03338e-06
4.17915e-05
0.000109107
0.000132556
0.000102345
5.31488e-05
1.19908e-05
-9.86685e-11
1.88666e-09
-2.30894e-08
1.24309e-09
9.07491e-09
-3.48178e-07
-4.3607e-07
-1.94385e-07
-5.22755e-30
-1.29207e-26
1.5362e-23
-5.42459e-22
5.38481e-21
-3.54695e-19
5.34898e-18
-7.91761e-18
-2.46099e-17
-8.0957e-17
1.38458e-15
5.9095e-16
-1.31272e-14
-6.80807e-14
9.96683e-13
-4.06446e-12
-3.47904e-12
5.68519e-11
6.38646e-11
-7.82495e-10
-1.13838e-10
2.60583e-09
1.76538e-09
-2.80317e-08
1.89474e-08
1.56974e-07
1.54779e-07
-3.8171e-07
-8.92999e-07
-1.05591e-07
-3.95156e-07
2.66415e-05
0.000827005
0.00292579
0.00585425
0.00852911
0.00988
0.00961617
0.00807436
0.00589565
0.00371264
0.00193801
0.000751131
0.000157509
1.45507e-06
-6.11687e-07
-1.51836e-06
-2.06861e-06
-1.3886e-06
-3.79633e-07
-4.68642e-28
-5.09562e-26
-2.24682e-22
2.31029e-20
-7.14937e-20
-5.86315e-18
3.46494e-17
8.66926e-19
-8.79652e-17
-2.85743e-15
4.72543e-14
-1.20762e-13
-2.49908e-13
2.91846e-12
2.85307e-12
-2.88608e-11
-5.1953e-12
5.65946e-10
-2.34849e-09
-2.15308e-09
1.98992e-08
9.06813e-09
-5.78123e-08
-1.84574e-07
6.43247e-07
1.02754e-06
4.28818e-07
-5.42306e-06
7.36458e-07
0.000464579
0.00301388
0.00971567
0.0205902
0.0333448
0.0444212
0.0505782
0.0506773
0.0455497
0.0367468
0.0266485
0.0171819
0.00957339
0.00433274
0.00136448
0.000160227
-6.27954e-06
-7.89878e-06
-6.4449e-06
-3.11949e-06
-4.73384e-07
-3.57331e-26
1.81047e-23
-1.80943e-20
6.53485e-19
-3.16246e-20
-8.62167e-17
2.35383e-16
3.03241e-16
-8.19644e-15
-1.14462e-14
1.93414e-13
-1.65315e-12
-1.47091e-12
4.42136e-11
-1.77325e-10
-8.76841e-11
5.1431e-10
1.59142e-09
-1.82284e-08
2.52668e-08
1.04345e-07
1.32901e-08
-9.22969e-07
-4.27878e-07
3.03356e-06
2.11383e-06
-1.76783e-05
-4.97751e-05
0.00148687
0.00810659
0.0237047
0.0494862
0.08179
0.113123
0.135693
0.144102
0.138961
0.121854
0.0973575
0.0706858
0.0460977
0.0263351
0.0125283
0.00441023
0.000759929
-2.00321e-05
-2.32634e-05
-1.47745e-05
-5.03504e-06
6.23876e-06
-2.25148e-24
2.1512e-21
-7.51225e-19
1.1044e-17
2.38959e-17
-1.52794e-15
9.8891e-15
-1.04703e-14
-9.02958e-14
8.26263e-13
-6.63557e-14
-1.12436e-11
5.75445e-11
1.34722e-10
-1.16321e-09
1.50208e-09
6.86012e-09
-1.31009e-08
-4.88344e-08
4.01735e-07
3.34721e-07
-1.9795e-06
-2.911e-06
5.29555e-06
8.49316e-06
-0.000126712
-0.000763554
-0.000192762
0.00722773
0.0289566
0.0702838
0.129326
0.19561
0.253842
0.290632
0.299175
0.2833
0.246235
0.19639
0.143089
0.0940868
0.0545446
0.0266507
0.00990194
0.00198113
-3.31935e-05
-5.50556e-05
-2.62569e-05
-3.89557e-06
4.5006e-05
-1.22871e-22
2.04927e-19
-2.66462e-17
2.7114e-16
-5.11848e-17
-9.30655e-15
1.01612e-13
-4.44949e-13
-3.12131e-13
8.18053e-12
-3.5761e-11
-4.77226e-11
6.90605e-10
-1.75708e-09
-2.83682e-09
1.39235e-08
2.37661e-08
-2.2537e-07
5.14346e-08
1.58948e-06
5.04302e-07
-1.00157e-05
-7.48341e-07
0.000104303
-3.59648e-05
-0.00141938
-0.00341749
-0.00100959
0.0164892
0.0615769
0.13927
0.24204
0.350359
0.440134
0.491755
0.497639
0.467395
0.405049
0.323411
0.236455
0.156262
0.0912433
0.0451453
0.0172106
0.00365877
-5.2999e-05
-0.000113037
-3.27565e-05
4.69457e-05
0.000150227
-1.06354e-20
1.72001e-17
-9.90692e-16
1.12672e-14
-5.72156e-14
1.11712e-13
4.00599e-13
-4.10956e-12
1.35841e-11
3.08105e-11
-3.42637e-10
9.84938e-10
2.12077e-09
-1.31859e-08
6.81534e-09
7.31016e-08
-8.51768e-08
-8.85359e-07
2.06882e-06
3.54884e-06
-1.60674e-05
-2.64251e-05
0.000174479
0.00047581
-0.000465242
-0.00440952
-0.00907707
-0.00481852
0.023924
0.0941345
0.208653
0.353542
0.500499
0.618437
0.682427
0.684968
0.641071
0.555593
0.444399
0.325518
0.215248
0.125577
0.0620836
0.0236565
0.00492965
-0.000177215
-0.000209007
3.62178e-05
0.000196589
0.000374778
-2.11912e-18
3.84233e-16
-5.69125e-15
5.82805e-14
-4.91389e-13
2.77147e-12
-5.16827e-12
-1.76035e-11
1.63409e-10
-3.53226e-10
-1.20815e-09
8.57549e-09
-1.09697e-08
-4.76925e-08
1.98009e-07
1.92144e-07
-1.10745e-06
-1.44604e-06
9.54423e-06
-1.04942e-06
-8.7918e-05
-1.56402e-05
0.000683098
0.00131509
-0.00084454
-0.0085291
-0.0176885
-0.0140492
0.0229693
0.109069
0.24584
0.414716
0.582148
0.714933
0.786047
0.786424
0.735911
0.638739
0.511364
0.374142
0.246115
0.142087
0.068852
0.0251647
0.00457948
-0.000589389
-0.000342099
0.000292093
0.000518792
0.000756737
-4.2554e-15
4.04321e-15
5.152e-14
-1.39712e-13
-1.46394e-12
1.33577e-11
-7.24914e-11
7.74777e-11
6.06421e-10
-3.58324e-09
3.54107e-09
2.37104e-08
-9.0355e-08
-8.99717e-08
8.63342e-07
-4.91292e-07
-4.8924e-06
7.72331e-06
3.21661e-05
-6.25439e-05
-0.000278831
1.29213e-05
0.00154029
0.00282052
-0.000437223
-0.0116396
-0.0266286
-0.0274368
0.00660278
0.0931841
0.230564
0.395543
0.555992
0.683441
0.754235
0.756623
0.709531
0.616762
0.492754
0.356342
0.228597
0.125884
0.0558072
0.0165119
0.000291976
-0.00153863
-0.000394597
0.000865484
0.00105594
0.00127367
-5.54164e-14
-7.29431e-14
1.30098e-12
-7.30933e-12
1.79842e-11
2.12731e-11
-2.87221e-10
1.22033e-09
-1.77729e-10
-1.21619e-08
4.38806e-08
1.49551e-08
-3.57672e-07
3.75253e-07
1.96909e-06
-4.85474e-06
-1.05071e-05
4.00796e-05
7.66639e-05
-0.000179765
-0.000618671
-0.000114271
0.00234749
0.004862
0.00187349
-0.0113944
-0.030567
-0.038781
-0.0175588
0.0464818
0.149993
0.272248
0.387531
0.478981
0.534796
0.539842
0.50823
0.440664
0.346093
0.240364
0.142435
0.0670962
0.0201833
-0.00147063
-0.00577095
-0.00297131
0.000277636
0.00186018
0.00176955
0.00178904
-1.4407e-13
-3.31296e-13
4.73702e-12
-3.40589e-11
1.79756e-10
-4.51395e-10
-3.43665e-10
5.57827e-09
-1.52868e-08
-1.83902e-08
1.73235e-07
-2.10993e-07
-8.20565e-07
2.60378e-06
2.61288e-06
-1.94723e-05
-1.45376e-05
0.000108424
0.000166168
-0.000285387
-0.00108524
-0.000647266
0.00249254
0.00649475
0.00552549
-0.00574805
-0.0255986
-0.0402305
-0.034035
-0.00210779
0.0519565
0.113752
0.168772
0.211239
0.242125
0.251486
0.238428
0.202481
0.148426
0.0877992
0.0344286
-0.00164283
-0.0175707
-0.0176617
-0.0103252
-0.00309742
0.00170792
0.00298822
0.00248417
0.00206392
1.54915e-12
6.33401e-12
-2.83605e-11
-2.46052e-11
6.2946e-10
-2.95706e-09
4.78349e-09
1.26973e-08
-7.20673e-08
6.3444e-08
3.94581e-07
-1.17012e-06
-7.94466e-07
8.47668e-06
1.24474e-06
-4.81317e-05
-3.00661e-05
0.000192198
0.000330745
-0.000251828
-0.00147051
-0.00154757
0.00137875
0.00650224
0.00825933
0.00227456
-0.0118438
-0.0270682
-0.0330663
-0.0263334
-0.0137343
-0.00211848
0.0040745
0.00754018
0.0149209
0.0236958
0.0237557
0.0128468
-0.006859
-0.028355
-0.0429142
-0.0455299
-0.0369267
-0.0232193
-0.010087
-0.000300474
0.00384833
0.00392312
0.00279886
0.00178906
1.62483e-11
3.90164e-11
-2.59457e-10
7.40038e-10
2.4222e-10
-8.47131e-09
2.784e-08
-8.83729e-09
-1.81719e-07
4.54816e-07
4.1025e-07
-3.60559e-06
5.2446e-07
1.98321e-05
1.30565e-06
-8.86438e-05
-7.89843e-05
0.000230641
0.000544742
6.78331e-05
-0.00142187
-0.00232151
-0.000669957
0.00385197
0.00802627
0.00738744
0.0016481
-0.00694818
-0.0149182
-0.0215482
-0.0290939
-0.041268
-0.0569232
-0.0707261
-0.0760308
-0.0724394
-0.0680919
-0.0680204
-0.0699004
-0.0698902
-0.0634681
-0.0498757
-0.0323083
-0.0147353
-0.0020817
0.00418981
0.00528053
0.0041377
0.00244397
0.00075353
8.88852e-11
-4.04331e-11
-6.8301e-10
3.6868e-09
-8.36942e-09
-6.35459e-09
8.24045e-08
-1.64436e-07
-2.27591e-07
1.45556e-06
-1.72056e-07
-8.11186e-06
1.75072e-06
3.64127e-05
1.43641e-05
-0.000119372
-0.000167453
0.00015468
0.000659481
0.000539933
-0.000711325
-0.00228689
-0.00221222
0.00017027
0.00397753
0.00690595
0.00720757
0.00578139
0.00285082
-0.00258741
-0.0118784
-0.0251097
-0.0402765
-0.0531353
-0.0596943
-0.0605221
-0.0596615
-0.0581208
-0.0555183
-0.0490167
-0.0379255
-0.0234019
-0.0090615
0.00147221
0.00669759
0.00708508
0.00538911
0.00278714
0.00108157
-0.000562656
3.05721e-10
-1.49386e-09
1.64782e-09
7.7808e-09
-3.86897e-08
5.60685e-08
1.31937e-07
-5.91377e-07
-4.70331e-08
3.27495e-06
-7.86505e-07
-1.45871e-05
-1.80492e-06
5.10564e-05
4.69417e-05
-0.000104004
-0.00024351
-4.9556e-05
0.000509868
0.000805584
0.00023453
-0.00111766
-0.00220846
-0.00193388
-0.000334578
0.00206652
0.0045524
0.00659022
0.00782575
0.0075909
0.00538624
0.00138719
-0.00315356
-0.00643005
-0.00802516
-0.00916394
-0.0106748
-0.0117944
-0.0109637
-0.00729519
-0.00120762
0.00529998
0.00987495
0.0110562
0.00936321
0.00618332
0.00274124
0.000371227
-0.000470792
-0.00140734
-2.2867e-10
-5.33498e-09
1.54414e-08
-8.75201e-09
-8.57453e-08
2.38801e-07
1.21307e-07
-1.33414e-06
8.98723e-08
5.73891e-06
4.58169e-07
-1.99708e-05
-1.38851e-05
4.81029e-05
8.14667e-05
-2.66705e-05
-0.000223961
-0.000223525
0.000113121
0.00060083
0.000686018
0.000176403
-0.000756916
-0.00158327
-0.0017661
-0.00135992
-0.000460797
0.000934661
0.00273482
0.00484144
0.00691425
0.00891166
0.0111621
0.0136485
0.0155651
0.0160616
0.0150732
0.0135584
0.0132553
0.0139665
0.0148796
0.0147177
0.0127536
0.00928453
0.00487593
0.00127102
-0.000905369
-0.00169366
-0.00137893
-0.00133611
-6.66393e-09
-2.02864e-09
4.50935e-08
-7.69828e-08
-1.23487e-07
5.23881e-07
1.67929e-07
-2.19862e-06
-5.56712e-07
7.42859e-06
4.87064e-06
-1.83316e-05
-2.67499e-05
1.72935e-05
7.91653e-05
5.81127e-05
-7.60352e-05
-0.000216117
-0.00018014
7.15329e-05
0.000413965
0.000569134
0.000409161
-1.55554e-05
-0.000628144
-0.00130831
-0.00191577
-0.00229642
-0.00211782
-0.00125638
0.000358359
0.00255828
0.00507534
0.00743632
0.0093306
0.0104448
0.0108344
0.0110581
0.0111736
0.0108941
0.00975167
0.00742186
0.0041901
0.000871556
-0.00163176
-0.00283406
-0.00279162
-0.00201635
-0.00127883
-0.000272247
-1.44293e-08
2.20309e-08
7.41346e-08
-1.77756e-07
-1.78028e-07
7.67169e-07
4.84796e-07
-2.52107e-06
-2.11434e-06
5.90975e-06
8.95682e-06
-5.48711e-06
-2.48908e-05
-1.74457e-05
2.50685e-05
6.93179e-05
5.55677e-05
-3.73134e-05
-0.00016301
-0.000196733
-8.82912e-05
0.00014669
0.000416682
0.000590174
0.000550853
0.000230111
-0.000384041
-0.00114925
-0.00183492
-0.00221345
-0.0023466
-0.0022673
-0.0020749
-0.0019521
-0.00185674
-0.00168315
-0.00126073
-0.000603828
-4.83184e-05
-7.87002e-05
-0.000795202
-0.00203814
-0.00326119
-0.00399823
-0.00388119
-0.00306613
-0.00189632
-0.000739221
-0.000211807
0.000735391
-1.51827e-08
4.17643e-08
8.30896e-08
-2.3044e-07
-2.60897e-07
7.19681e-07
8.8626e-07
-1.44963e-06
-2.92335e-06
6.49022e-07
6.73633e-06
6.79068e-06
-4.37545e-06
-2.15948e-05
-2.26287e-05
8.5131e-06
5.87756e-05
7.24497e-05
2.04815e-05
-8.49557e-05
-0.000179282
-0.000192524
-8.90852e-05
0.000128882
0.000391612
0.000572324
0.000621093
0.000554463
0.000384049
5.13644e-05
-0.000473461
-0.0011791
-0.00195926
-0.00266982
-0.00333277
-0.00379737
-0.00396323
-0.00386392
-0.00373117
-0.00373959
-0.0038314
-0.00382348
-0.00351038
-0.00273522
-0.00161399
-0.00051875
0.000296713
0.000710163
0.00060725
0.000899506
-1.27707e-08
3.43053e-08
7.49401e-08
-1.32295e-07
-2.61585e-07
1.96416e-07
7.11989e-07
3.38614e-07
-1.15832e-06
-2.65075e-06
-8.79256e-07
5.81049e-06
9.92418e-06
6.52401e-07
-1.89174e-05
-2.66104e-05
-9.08885e-06
2.99789e-05
6.46524e-05
6.36752e-05
1.23615e-05
-8.00275e-05
-0.00016851
-0.000201043
-0.00015867
-3.92962e-05
0.000173118
0.00045327
0.000692291
0.000820459
0.000806968
0.000663522
0.000456027
0.000208333
-4.44637e-05
-0.000307507
-0.000562521
-0.000810249
-0.00102724
-0.00112653
-0.00103081
-0.000687688
-0.000120363
0.000531256
0.00104775
0.00129487
0.00123395
0.000913961
0.000623973
0.000197657
-4.75636e-09
5.43305e-09
2.52764e-08
2.09365e-08
-5.48208e-08
-2.14348e-07
-8.58484e-08
7.36878e-07
1.02006e-06
-9.23138e-07
-3.39544e-06
-1.90141e-06
4.1004e-06
8.86453e-06
6.05257e-06
-6.01475e-06
-2.1437e-05
-2.50985e-05
-6.95829e-06
3.08129e-05
6.43474e-05
6.90576e-05
3.68339e-05
-3.62974e-05
-0.000136414
-0.000212989
-0.000232927
-0.000186996
-0.000104773
1.18571e-05
0.000160641
0.000372098
0.000605356
0.000828674
0.00100865
0.00111018
0.00113156
0.00107813
0.00100346
0.000987706
0.00104881
0.00118687
0.00132376
0.00135345
0.00121193
0.000905865
0.000521134
0.00013789
4.14809e-05
-0.000443946
3.61728e-09
-6.54592e-09
-2.35746e-08
3.69879e-08
1.05102e-07
-7.23607e-08
-3.44822e-07
-1.0368e-07
6.84586e-07
9.81114e-07
-3.78711e-08
-2.1622e-06
-3.1868e-06
-5.42753e-07
5.71742e-06
9.46938e-06
4.96167e-06
-7.51211e-06
-2.07446e-05
-2.44862e-05
-1.31142e-05
1.58348e-05
5.3806e-05
7.79571e-05
7.15625e-05
3.16468e-05
-3.35916e-05
-0.000121572
-0.000209405
-0.00028381
-0.000306742
-0.000270223
-0.000179143
-6.83292e-05
5.29027e-05
0.000173838
0.000278857
0.000373673
0.000440531
0.000479227
0.00049933
0.000468913
0.000360805
0.000176562
-5.56852e-05
-0.000265828
-0.000384322
-0.000417631
-0.000307303
-0.000426794
1.37188e-09
3.426e-09
-1.02247e-08
-2.10199e-08
2.49342e-08
9.1477e-08
1.6166e-08
-2.36663e-07
-3.14814e-07
1.9002e-07
9.45031e-07
8.40974e-07
-6.29925e-07
-2.50633e-06
-2.68385e-06
-2.31849e-07
4.78298e-06
9.18238e-06
7.76082e-06
-2.70505e-06
-1.82175e-05
-2.76329e-05
-2.3873e-05
-4.71274e-06
2.60413e-05
6.03572e-05
8.5846e-05
9.10159e-05
7.34921e-05
3.75905e-05
-1.71282e-05
-8.8472e-05
-0.000168933
-0.00023438
-0.000285165
-0.000317717
-0.000326265
-0.00032261
-0.000320086
-0.00031627
-0.000334268
-0.000384981
-0.000455582
-0.000518875
-0.000538022
-0.000492538
-0.000404755
-0.000246379
-0.000173909
5.02924e-05
-2.12928e-10
2.87589e-09
2.13482e-09
-1.17205e-08
-1.43647e-08
1.32291e-08
5.06314e-08
4.38461e-08
-5.53929e-08
-2.2274e-07
-2.28321e-07
1.79698e-07
8.98989e-07
9.66166e-07
-3.28864e-07
-2.50273e-06
-3.37058e-06
-1.20172e-06
3.76148e-06
8.69666e-06
9.50096e-06
4.06973e-06
-7.70986e-06
-2.19204e-05
-3.14545e-05
-3.05172e-05
-1.69371e-05
1.0028e-05
4.80045e-05
8.46823e-05
0.000110774
0.000112478
9.03637e-05
5.15932e-05
1.16571e-05
-2.38349e-05
-5.7196e-05
-9.03466e-05
-0.000116887
-0.000142961
-0.000163769
-0.000178549
-0.000176407
-0.000147481
-8.81732e-05
-1.2698e-05
5.3507e-05
0.000116347
7.62309e-05
0.000245157
1.8161e-10
-6.43553e-10
-1.12936e-09
4.24285e-09
5.46838e-09
-1.36288e-08
-2.60567e-08
1.53964e-08
7.73604e-08
5.99933e-08
-7.54053e-08
-2.58108e-07
-2.70013e-07
1.24836e-07
8.64168e-07
1.17251e-06
2.28152e-07
-1.93263e-06
-3.63351e-06
-2.99115e-06
5.98617e-07
5.98103e-06
1.0432e-05
1.13723e-05
6.64784e-06
-4.95283e-06
-2.23131e-05
-3.77753e-05
-4.34049e-05
-3.59455e-05
-1.89241e-05
2.83785e-06
2.66716e-05
5.03843e-05
6.8572e-05
8.42124e-05
9.73595e-05
0.000110883
0.000125312
0.000140374
0.000153986
0.000167006
0.000184306
0.000201622
0.000212465
0.000206481
0.000184501
0.000140561
9.85153e-05
6.41843e-05
2.92361e-11
5.03816e-10
-1.54284e-10
-2.56156e-09
-8.87387e-10
8.94319e-09
9.52318e-09
-1.78895e-08
-4.38605e-08
3.92074e-09
1.10857e-07
1.16068e-07
-6.72719e-08
-3.28747e-07
-3.48414e-07
2.076e-09
6.77706e-07
1.22412e-06
1.00476e-06
-3.57845e-07
-2.7304e-06
-4.79758e-06
-4.28235e-06
2.71318e-07
7.94277e-06
1.43678e-05
1.54513e-05
1.04784e-05
4.16086e-07
-1.20649e-05
-2.31004e-05
-2.96215e-05
-3.15703e-05
-3.09556e-05
-2.81426e-05
-2.27087e-05
-1.5108e-05
-2.56408e-06
1.2913e-05
3.04463e-05
4.72453e-05
6.28848e-05
7.40602e-05
7.21411e-05
5.92902e-05
3.69767e-05
1.43046e-05
-1.73778e-05
-4.41348e-06
-8.90843e-05
-7.00928e-12
-2.80142e-10
7.953e-11
1.44805e-09
-8.48299e-11
-4.84038e-09
-2.25853e-09
1.23013e-08
1.60885e-08
-1.68934e-08
-5.72808e-08
-2.40239e-08
9.47625e-08
1.68648e-07
6.60697e-08
-2.14739e-07
-5.17203e-07
-4.84718e-07
1.81903e-07
1.3905e-06
2.03412e-06
1.06759e-06
-1.48367e-06
-4.21932e-06
-5.33932e-06
-4.15428e-06
-7.64702e-07
3.95438e-06
8.63447e-06
1.24506e-05
1.49666e-05
1.52364e-05
1.24958e-05
6.31259e-06
-3.56045e-06
-1.69319e-05
-2.99325e-05
-4.3303e-05
-5.47256e-05
-6.33708e-05
-6.90639e-05
-7.22211e-05
-7.40855e-05
-7.44167e-05
-7.37499e-05
-7.06908e-05
-6.37093e-05
-5.25162e-05
-3.41385e-05
-4.36654e-05
-1.43336e-11
1.75833e-10
1.96072e-11
-7.34923e-10
-3.24295e-11
2.03194e-09
8.97245e-10
-4.41098e-09
-6.35595e-09
4.55272e-09
2.58325e-08
1.68668e-08
-5.73847e-08
-1.09939e-07
1.30638e-08
2.65177e-07
2.77654e-07
-1.10338e-07
-6.14622e-07
-6.57323e-07
-1.93446e-07
5.71739e-07
1.30076e-06
1.74566e-06
1.52354e-06
3.56768e-07
-1.79956e-06
-4.56991e-06
-7.11762e-06
-7.80468e-06
-5.69535e-06
-9.93628e-07
6.055e-06
1.30119e-05
1.83607e-05
2.00854e-05
1.81395e-05
1.28255e-05
5.30922e-06
-3.55155e-06
-1.16037e-05
-1.79242e-05
-2.26343e-05
-2.3602e-05
-2.1124e-05
-1.51437e-05
-8.97789e-06
4.38441e-07
-2.84744e-06
2.26297e-05
5.75792e-11
-1.14689e-10