/*--------------------------------*- C++ -*----------------------------------*\
| =========                 |                                                 |
| \\      /  F ield         | OpenFOAM: The Open Source CFD Toolbox           |
|  \\    /   O peration     | Version:  v2006                                 |
|   \\  /    A nd           | Website:  www.openfoam.com                      |
|    \\/     M anipulation  |                                                 |
\*---------------------------------------------------------------------------*/
FoamFile
{
    version     2.0;
    format      ascii;
    class       volScalarField;
    location    "0";
    object      p;
}
// * * * * * * * * * * * * * * * * * * * * * * * * * * * * * * * * * * * * * //

dimensions      [1 -1 -2 0 0 0 0];


internalField   nonuniform List<scalar> 
20000
(
3.04577e-06
3.06137e-06
3.09768e-06
3.1541e-06
3.22992e-06
3.32501e-06
3.44011e-06
3.57612e-06
3.7339e-06
3.91438e-06
4.11866e-06
4.34799e-06
4.6038e-06
4.8876e-06
5.20106e-06
5.54599e-06
5.92444e-06
6.33867e-06
6.79119e-06
7.28475e-06
7.82228e-06
8.40698e-06
9.04228e-06
9.73196e-06
1.04802e-05
1.12915e-05
1.21707e-05
1.31232e-05
1.41547e-05
1.52712e-05
1.64795e-05
1.77868e-05
1.92009e-05
2.07302e-05
2.23837e-05
2.41712e-05
2.6103e-05
2.81904e-05
3.04454e-05
3.2881e-05
3.55111e-05
3.83505e-05
4.14154e-05
4.47229e-05
4.82917e-05
5.21416e-05
5.6294e-05
6.07714e-05
6.55981e-05
7.08001e-05
7.64046e-05
8.2441e-05
8.89401e-05
9.59347e-05
0.000103459
0.00011155
0.000120247
0.000129596
0.000139641
0.00015041
0.00016195
0.000174312
0.000187543
0.000201691
0.000216802
0.000232923
0.0002501
0.000268374
0.000287785
0.000308365
0.000330137
0.000353115
0.000377302
0.000402686
0.000429237
0.00045689
0.000485549
0.000515078
0.000545313
0.000576039
0.000606978
0.000637755
0.000667888
0.000696791
0.000723793
0.000748199
0.000769302
0.000788427
0.000831014
0.00083798
0.000825417
0.000799491
0.000766124
0.000726246
0.000678755
0.00062364
0.000562903
0.000501268
0.000446804
0.000410938
0.000407257
0.000448299
0.000539833
0.000674182
0.000828376
0.000973713
0.00109406
0.00119875
0.00131974
0.0014976
0.00177048
0.00216521
0.00269821
0.00338055
0.00422065
0.00522251
0.00638356
0.00769411
0.00913511
0.0106758
0.0122761
0.0138926
0.0154849
0.0170138
0.0184659
0.0197888
0.0209767
0.0220153
0.0228925
0.023598
0.0241218
0.0244544
0.0245863
0.0245092
0.0242164
0.0237079
0.0230272
0.0220696
0.0208979
0.0195304
0.0179853
0.016282
0.0144432
0.0124958
0.0104714
0.00840581
0.00633878
0.00431545
0.00238381
0.000591216
-0.00101992
-0.00241799
-0.00358699
-0.00452838
-0.00525881
-0.00580331
-0.00618733
-0.00643194
-0.00655361
-0.00656293
-0.00646554
-0.00627882
-0.00601311
-0.00567143
-0.00526873
-0.00482875
-0.00438654
-0.00398087
-0.00364018
-0.00337089
-0.00315511
-0.00296055
-0.00275832
-0.00253566
-0.00229485
-0.0020449
-0.00179577
-0.00155634
-0.00133331
-0.00113066
-0.00095005
-0.00079149
-0.000653807
-0.000535102
-0.000433079
-0.000345276
-0.000269192
-0.000202361
-0.000142387
-8.69337e-05
-3.37107e-05
1.95665e-05
7.52149e-05
0.000135651
0.000203392
0.000281332
0.000372019
0.000480945
0.000605614
0.000785782
3.04247e-06
3.05802e-06
3.09393e-06
3.14995e-06
3.22542e-06
3.32015e-06
3.43481e-06
3.57031e-06
3.72749e-06
3.90726e-06
4.11071e-06
4.33911e-06
4.59387e-06
4.87652e-06
5.18873e-06
5.53235e-06
5.90946e-06
6.32237e-06
6.77365e-06
7.26608e-06
7.80265e-06
8.38661e-06
9.02144e-06
9.71098e-06
1.04594e-05
1.12712e-05
1.21513e-05
1.3105e-05
1.41377e-05
1.52556e-05
1.64652e-05
1.77737e-05
1.91886e-05
2.07184e-05
2.23722e-05
2.41595e-05
2.60909e-05
2.81777e-05
3.04318e-05
3.28664e-05
3.54953e-05
3.83336e-05
4.13972e-05
4.47035e-05
4.82711e-05
5.21198e-05
5.6271e-05
6.07473e-05
6.5573e-05
7.07741e-05
7.6378e-05
8.2414e-05
8.89132e-05
9.59082e-05
0.000103434
0.000111526
0.000120224
0.000129564
0.000139588
0.000150343
0.000161878
0.000174235
0.000187461
0.000201604
0.000216711
0.000232828
0.000250001
0.000268272
0.00028768
0.000308258
0.000330029
0.000353007
0.000377195
0.000402583
0.000429139
0.000456801
0.000485471
0.000515016
0.000545271
0.000576025
0.000607001
0.000637812
0.000667962
0.000696889
0.000724069
0.000749106
0.000771275
0.000786636
0.000776361
0.00076926
0.000763554
0.000754092
0.000734184
0.000702035
0.000658462
0.000605391
0.000546048
0.000485782
0.000432857
0.000398597
0.000396268
0.00043796
0.000529044
0.000661752
0.000813538
0.000956646
0.00107608
0.00118183
0.00130606
0.00148898
0.0017675
0.00216772
0.00270587
0.00339318
0.00423841
0.00524566
0.00641219
0.00772796
0.00917349
0.0107175
0.0123195
0.0139358
0.0155251
0.0170533
0.018484
0.0198052
0.0209927
0.0220312
0.0229087
0.0236146
0.0241388
0.0244713
0.0246026
0.0245237
0.0242271
0.0237062
0.0229388
0.0219797
0.0208201
0.0194657
0.0179286
0.0162303
0.0143961
0.0124544
0.010437
0.0083797
0.00632223
0.00430971
0.00238974
0.00060931
-0.000989745
-0.00237653
-0.00353587
-0.00447014
-0.00519674
-0.00574112
-0.00612844
-0.00637885
-0.00650753
-0.00652752
-0.00645022
-0.00627794
-0.00601505
-0.00567394
-0.00527024
-0.00482788
-0.00438282
-0.00397507
-0.00363399
-0.0033662
-0.00315303
-0.00296083
-0.00275977
-0.00253707
-0.00229561
-0.00204483
-0.00179493
-0.00155492
-0.00133153
-0.00112871
-0.000948091
-0.000789625
-0.000652106
-0.000533601
-0.000431797
-0.000344217
-0.000268354
-0.000201739
-0.000141976
-8.67296e-05
-3.37133e-05
1.93538e-05
7.47843e-05
0.00013499
0.000202481
0.000280146
0.000370529
0.000479107
0.000603393
0.000783057
3.03919e-06
3.05509e-06
3.09124e-06
3.14742e-06
3.22305e-06
3.31791e-06
3.4327e-06
3.56832e-06
3.72564e-06
3.90557e-06
4.10922e-06
4.33786e-06
4.5929e-06
4.87587e-06
5.18843e-06
5.53243e-06
5.90992e-06
6.32319e-06
6.77478e-06
7.26743e-06
7.8041e-06
8.38798e-06
9.02253e-06
9.71154e-06
1.04592e-05
1.12699e-05
1.21485e-05
1.31004e-05
1.41311e-05
1.52466e-05
1.64537e-05
1.77594e-05
1.91714e-05
2.06984e-05
2.23492e-05
2.41336e-05
2.6062e-05
2.81458e-05
3.0397e-05
3.28285e-05
3.54542e-05
3.82891e-05
4.13492e-05
4.46517e-05
4.82152e-05
5.20596e-05
5.62061e-05
6.06774e-05
6.54977e-05
7.0693e-05
7.62907e-05
8.23201e-05
8.8812e-05
9.57993e-05
0.000103317
0.000111401
0.000120091
0.000129426
0.000139445
0.0001502
0.000161728
0.000174078
0.000187296
0.000201431
0.00021653
0.000232639
0.000249804
0.000268068
0.00028747
0.000308044
0.000329813
0.00035279
0.00037698
0.000402375
0.000428942
0.000456623
0.000485317
0.000514893
0.000545185
0.000575988
0.000607028
0.00063794
0.000668253
0.000697364
0.000724478
0.000748533
0.000768566
0.000785536
0.00079656
0.000809682
0.000809467
0.00079538
0.000768297
0.000729958
0.000681892
0.000625426
0.000562967
0.000499278
0.000442437
0.000404084
0.000398372
0.00043876
0.000531915
0.0006701
0.000828464
0.000975336
0.0010928
0.00119086
0.00130337
0.00147445
0.0017421
0.00213331
0.00266391
0.00334466
0.00418455
0.00518804
0.00635273
0.00766927
0.0091188
0.0106699
0.0122808
0.013907
0.0155075
0.0170477
0.0184923
0.0198222
0.0210151
0.0220574
0.0229378
0.0236464
0.0241734
0.0245092
0.0246443
0.0245704
0.0242815
0.0237746
0.023038
0.0220947
0.0209307
0.0195651
0.018017
0.0163078
0.014462
0.0125073
0.0104749
0.00840019
0.00632432
0.00429201
0.00235158
0.00055171
-0.00106409
-0.00246338
-0.00362998
-0.00456627
-0.00529056
-0.00582967
-0.00620994
-0.00645208
-0.00657176
-0.00658193
-0.00649238
-0.00630789
-0.00603679
-0.00569009
-0.00527973
-0.00483014
-0.00437788
-0.00396498
-0.00362254
-0.00335744
-0.00314935
-0.00296178
-0.00276293
-0.00254007
-0.00229722
-0.00204474
-0.00179328
-0.00155208
-0.00132796
-0.00112482
-0.000944177
-0.000785903
-0.000648709
-0.000530606
-0.000429239
-0.000342105
-0.000266683
-0.0002005
-0.000141156
-8.63236e-05
-3.37195e-05
1.89284e-05
7.39238e-05
0.000133668
0.000200661
0.000277778
0.000367552
0.000475437
0.000598957
0.000777612
3.03421e-06
3.05005e-06
3.08604e-06
3.142e-06
3.21738e-06
3.31195e-06
3.4264e-06
3.56164e-06
3.71852e-06
3.89796e-06
4.10105e-06
4.32904e-06
4.58335e-06
4.86548e-06
5.17712e-06
5.52009e-06
5.89645e-06
6.30851e-06
6.7588e-06
7.25008e-06
7.78533e-06
8.36774e-06
9.0008e-06
9.68833e-06
1.04345e-05
1.12438e-05
1.2121e-05
1.30715e-05
1.41009e-05
1.52152e-05
1.64209e-05
1.77253e-05
1.91361e-05
2.06615e-05
2.23107e-05
2.40932e-05
2.60196e-05
2.8101e-05
3.03494e-05
3.27778e-05
3.54001e-05
3.82312e-05
4.12871e-05
4.45851e-05
4.81437e-05
5.19828e-05
5.61237e-05
6.05889e-05
6.54027e-05
7.05911e-05
7.61814e-05
8.22028e-05
8.86864e-05
9.56648e-05
0.000103173
0.000111247
0.000119925
0.000129247
0.000139254
0.000149993
0.000161508
0.000173844
0.000187049
0.000201171
0.000216257
0.000232354
0.000249508
0.000267762
0.000287156
0.000307723
0.000329488
0.000352465
0.000376658
0.000402062
0.000428647
0.000456354
0.000485084
0.000514705
0.000545057
0.000575942
0.000607091
0.000638122
0.000668521
0.00069769
0.000725076
0.000750198
0.000772279
0.000789355
0.000795537
0.000795518
0.000786502
0.000769763
0.000744315
0.000708997
0.000663617
0.000608879
0.000547031
0.000482837
0.000424486
0.00038395
0.000376106
0.000415647
0.00051063
0.000653632
0.000817732
0.000967595
0.00108303
0.00117482
0.00128051
0.00144602
0.00171101
0.00210217
0.00263401
0.00331663
0.00415945
0.00516726
0.00633779
0.00766208
0.00912148
0.0106836
0.0123052
0.0139402
0.015547
0.01709
0.0185365
0.0198666
0.0210604
0.022104
0.0229861
0.0236962
0.0242246
0.0245611
0.0246958
0.0246194
0.0243243
0.0238053
0.0230566
0.0220969
0.0209262
0.0195585
0.0180096
0.0162992
0.0144517
0.0124949
0.0104602
0.00838316
0.00630437
0.00426863
0.00232506
0.000523209
-0.00109237
-0.00248845
-0.0036488
-0.00457678
-0.00529267
-0.00582543
-0.00620249
-0.00644439
-0.00656626
-0.00658045
-0.00649572
-0.00631619
-0.0060479
-0.00569989
-0.00528567
-0.00482811
-0.00436672
-0.00394716
-0.00360345
-0.00334307
-0.00314321
-0.00296302
-0.00276765
-0.00254454
-0.00229957
-0.00204452
-0.00179071
-0.00154774
-0.00132254
-0.00111892
-0.000938257
-0.000780281
-0.000643587
-0.000526094
-0.000425387
-0.000338927
-0.00026417
-0.000198635
-0.000139923
-8.57113e-05
-3.37262e-05
1.82932e-05
7.26365e-05
0.00013169
0.000197936
0.000274232
0.000363094
0.00046994
0.000592314
0.000769459
3.02754e-06
3.04329e-06
3.07922e-06
3.13509e-06
3.21034e-06
3.30477e-06
3.41905e-06
3.55407e-06
3.71071e-06
3.88986e-06
4.09263e-06
4.32026e-06
4.57418e-06
4.85589e-06
5.16707e-06
5.50955e-06
5.8854e-06
6.2969e-06
6.74658e-06
7.23719e-06
7.77167e-06
8.35322e-06
8.98531e-06
9.67171e-06
1.04166e-05
1.12244e-05
1.20999e-05
1.30485e-05
1.40756e-05
1.51873e-05
1.63903e-05
1.76915e-05
1.90988e-05
2.06204e-05
2.22655e-05
2.40436e-05
2.59652e-05
2.80415e-05
3.02845e-05
3.27073e-05
3.53236e-05
3.81483e-05
4.11974e-05
4.44883e-05
4.80393e-05
5.18703e-05
5.60026e-05
6.04587e-05
6.52629e-05
7.0441e-05
7.60205e-05
8.20306e-05
8.85022e-05
9.54681e-05
0.000102963
0.000111023
0.000119688
0.000128995
0.000138988
0.000149712
0.000161211
0.000173531
0.000186719
0.000200825
0.000215894
0.000231975
0.000249113
0.000267353
0.000286736
0.000307295
0.000329055
0.000352031
0.000376228
0.000401644
0.000428252
0.000455995
0.000484773
0.000514455
0.000544883
0.000575865
0.000607142
0.000638354
0.000669018
0.000698541
0.000726204
0.000751098
0.000772238
0.000788676
0.000798259
0.000804073
0.000802536
0.000790502
0.000766617
0.00073075
0.000683641
0.000626432
0.000561341
0.000492958
0.000429476
0.000383349
0.000370689
0.000408251
0.000506281
0.000657637
0.000831694
0.000986689
0.00109817
0.00117769
0.00126653
0.00141586
0.00166787
0.00204933
0.00257337
0.00324944
0.0040877
0.00509365
0.0062654
0.00759495
0.00906448
0.0106408
0.0122784
0.0139295
0.0155514
0.0171079
0.0185671
0.0199068
0.0211083
0.022158
0.0230451
0.02376
0.0242933
0.0246351
0.0247755
0.0247054
0.0244173
0.0239059
0.0231667
0.0222103
0.0210394
0.0196656
0.0181068
0.0163842
0.0145225
0.0125496
0.0104966
0.00839882
0.0062969
0.00423673
0.00226858
0.00044408
-0.00118974
-0.0025975
-0.00376194
-0.0046871
-0.00539564
-0.00591945
-0.00628777
-0.00652136
-0.00663516
-0.00664157
-0.00654903
-0.00636174
-0.00608554
-0.00572941
-0.00530348
-0.00483178
-0.00435566
-0.00392547
-0.00357908
-0.00332468
-0.00313589
-0.00296561
-0.00277471
-0.00255098
-0.00230295
-0.00204432
-0.00178728
-0.00154192
-0.00131528
-0.00111103
-0.000930358
-0.000772792
-0.000636772
-0.000520097
-0.000420271
-0.000334706
-0.000260833
-0.00019616
-0.000138288
-8.48997e-05
-3.37361e-05
1.74485e-05
7.09254e-05
0.00012906
0.000194314
0.000269519
0.000357168
0.000462633
0.000583482
0.000758617
3.01919e-06
3.03487e-06
3.07073e-06
3.12646e-06
3.20151e-06
3.29567e-06
3.40962e-06
3.54425e-06
3.70043e-06
3.87905e-06
4.0812e-06
4.30815e-06
4.56129e-06
4.84213e-06
5.15234e-06
5.49375e-06
5.86842e-06
6.27862e-06
6.72688e-06
7.21593e-06
7.74871e-06
8.32841e-06
8.9585e-06
9.64277e-06
1.03853e-05
1.11907e-05
1.20637e-05
1.30095e-05
1.40337e-05
1.51424e-05
1.63421e-05
1.764e-05
1.90437e-05
2.05616e-05
2.22026e-05
2.39765e-05
2.58935e-05
2.79649e-05
3.02026e-05
3.26196e-05
3.52296e-05
3.80476e-05
4.10894e-05
4.43724e-05
4.79149e-05
5.17368e-05
5.58592e-05
6.03048e-05
6.50976e-05
7.02637e-05
7.58302e-05
8.18265e-05
8.82833e-05
9.52336e-05
0.000102712
0.000110755
0.0001194
0.000128689
0.000138662
0.000149365
0.000160842
0.000173141
0.000186308
0.000200391
0.00021544
0.0002315
0.000248619
0.000266842
0.00028621
0.000306759
0.000328513
0.000351487
0.00037569
0.00040112
0.000427756
0.000455543
0.000484381
0.000514137
0.00054466
0.000575772
0.000607229
0.000638664
0.000669554
0.00069927
0.000727166
0.00075262
0.000774928
0.000792806
0.000803533
0.000807427
0.000802252
0.000786364
0.000759778
0.000722559
0.000674808
0.000616855
0.000550174
0.000478821
0.000410843
0.000359163
0.000341295
0.000376533
0.000478088
0.000639624
0.000826183
0.00098795
0.00109529
0.00116196
0.00123477
0.00136909
0.00161135
0.00198808
0.0025097
0.0031845
0.00402353
0.005033
0.00621125
0.00755133
0.0090363
0.0106316
0.0122888
0.0139574
0.0155938
0.0171614
0.0186292
0.0199748
0.0211806
0.0222339
0.0231245
0.0238429
0.0243794
0.0247239
0.0248659
0.0247955
0.0245047
0.0239878
0.023242
0.022276
0.0210959
0.0197135
0.0181464
0.0164152
0.0145444
0.0125615
0.0104972
0.00838683
0.00627068
0.00419489
0.00221111
0.00037298
-0.00127
-0.00268037
-0.00384011
-0.00475462
-0.00544998
-0.00596199
-0.00632202
-0.00655065
-0.00666199
-0.006668
-0.00657608
-0.00638908
-0.00611164
-0.0057507
-0.00531636
-0.00482977
-0.00433674
-0.0038942
-0.00354537
-0.00329964
-0.003126
-0.00296902
-0.00278391
-0.00255919
-0.00230712
-0.0020439
-0.00178277
-0.0015344
-0.00130599
-0.001101
-0.000920348
-0.000763328
-0.000628177
-0.000512545
-0.000413838
-0.000329406
-0.000256647
-0.000193056
-0.000136236
-8.38795e-05
-3.37431e-05
1.63988e-05
6.87947e-05
0.000125784
0.000189802
0.000263646
0.000349785
0.000453527
0.000572476
0.000745105
3.00918e-06
3.0248e-06
3.06055e-06
3.1161e-06
3.19091e-06
3.28476e-06
3.39834e-06
3.53254e-06
3.68821e-06
3.86627e-06
4.06778e-06
4.294e-06
4.54633e-06
4.82629e-06
5.13552e-06
5.47588e-06
5.8494e-06
6.25836e-06
6.70526e-06
7.19284e-06
7.72402e-06
8.30199e-06
8.93021e-06
9.61244e-06
1.03528e-05
1.11558e-05
1.20261e-05
1.2969e-05
1.399e-05
1.50953e-05
1.62912e-05
1.75849e-05
1.89841e-05
2.04971e-05
2.21328e-05
2.39008e-05
2.58116e-05
2.78761e-05
3.01065e-05
3.25156e-05
3.51172e-05
3.7926e-05
4.09582e-05
4.42308e-05
4.77622e-05
5.15723e-05
5.56822e-05
6.01144e-05
6.48931e-05
7.0044e-05
7.55946e-05
8.15741e-05
8.80132e-05
9.49448e-05
0.000102403
0.000110426
0.00011905
0.000128316
0.000138266
0.000148945
0.000160398
0.000172671
0.000185813
0.000199871
0.000214895
0.000230931
0.000248027
0.000266228
0.000285579
0.000306115
0.000327862
0.000350834
0.000375041
0.000400488
0.000427158
0.000454998
0.000483908
0.000513754
0.000544388
0.000575647
0.000607301
0.000638993
0.000670216
0.00070035
0.000728722
0.000754593
0.000777099
0.000795022
0.000806496
0.000811587
0.000808678
0.000795562
0.000771322
0.00073554
0.000688077
0.000629056
0.000559654
0.000483651
0.000409103
0.0003496
0.000324463
0.000356294
0.000462266
0.000637213
0.000840417
0.00101108
0.00111236
0.00116043
0.00120913
0.00132092
0.00154676
0.00191277
0.00242615
0.00309392
0.00392866
0.00493764
0.00611948
0.00746891
0.00897049
0.0105881
0.0122694
0.0139609
0.0156175
0.0172026
0.0186849
0.0200418
0.0212566
0.0223173
0.0232144
0.023939
0.0244819
0.024833
0.0249817
0.0249176
0.0246324
0.0241197
0.0233769
0.02241
0.0212256
0.0198354
0.0182569
0.0165115
0.0146237
0.0126213
0.0105349
0.0083993
0.00625475
0.00414845
0.00213375
0.000267325
-0.0013977
-0.00282066
-0.00398204
-0.00488856
-0.00557049
-0.00606862
-0.00641713
-0.00663634
-0.00673958
-0.00673883
-0.00664087
-0.00644731
-0.00616223
-0.00579215
-0.0053421
-0.00483402
-0.0043176
-0.00385796
-0.00350505
-0.00326983
-0.00311526
-0.00297484
-0.00279647
-0.00256995
-0.00231254
-0.00204352
-0.00177733
-0.0015253
-0.00129478
-0.00108893
-0.000908331
-0.000751993
-0.000617903
-0.00050353
-0.000406164
-0.000323086
-0.000251656
-0.000189356
-0.000133789
-8.26629e-05
-3.37509e-05
1.51474e-05
6.62531e-05
0.000121875
0.000184415
0.000256634
0.000340966
0.00044265
0.000559327
0.000728958
2.99751e-06
3.01306e-06
3.04868e-06
3.10403e-06
3.17855e-06
3.27205e-06
3.3852e-06
3.51889e-06
3.67398e-06
3.85135e-06
4.05208e-06
4.27742e-06
4.52877e-06
4.80763e-06
5.11565e-06
5.45468e-06
5.82674e-06
6.23411e-06
6.67926e-06
7.16492e-06
7.694e-06
8.26968e-06
8.89541e-06
9.57495e-06
1.03124e-05
1.11122e-05
1.19791e-05
1.29183e-05
1.39353e-05
1.50363e-05
1.62276e-05
1.75164e-05
1.89103e-05
2.04176e-05
2.20473e-05
2.38088e-05
2.57126e-05
2.77697e-05
2.99921e-05
3.23926e-05
3.49849e-05
3.77839e-05
4.08055e-05
4.40667e-05
4.7586e-05
5.1383e-05
5.54788e-05
5.9896e-05
6.46587e-05
6.97926e-05
7.53249e-05
8.12849e-05
8.77034e-05
9.46131e-05
0.000102049
0.000110047
0.000118645
0.000127885
0.000137808
0.000148458
0.000159881
0.000172125
0.000185236
0.000199265
0.000214259
0.000230266
0.000247335
0.000265511
0.000284842
0.000305363
0.0003271
0.000350069
0.000374282
0.000399747
0.000426457
0.000454359
0.000483351
0.000513298
0.00054406
0.000575491
0.000607388
0.0006394
0.000670992
0.000701501
0.00073025
0.000756604
0.000779888
0.000799008
0.000812098
0.000818135
0.000815174
0.000801098
0.000775324
0.00073791
0.000688771
0.000627582
0.000554784
0.000473459
0.000391354
0.000322604
0.000288509
0.000315693
0.000426563
0.000617996
0.000842243
0.00102458
0.00111938
0.00114566
0.00116706
0.00125514
0.00146542
0.00182326
0.00233133
0.00299478
0.00382826
0.00484012
0.00602901
0.00739174
0.00891487
0.0105603
0.0122704
0.0139879
0.0156665
0.0172694
0.0187656
0.0201326
0.0213548
0.0224216
0.0233243
0.0240544
0.0246028
0.0249591
0.025112
0.0250506
0.0247655
0.0242503
0.0235027
0.0225277
0.0213329
0.0199307
0.0183389
0.016579
0.0146755
0.0126557
0.0105499
0.00839232
0.00622296
0.00408936
0.00204686
0.000155396
-0.00152784
-0.00295854
-0.00411562
-0.00500763
-0.00567025
-0.00615073
-0.00648653
-0.00669719
-0.0067946
-0.00679067
-0.006691
-0.00649506
-0.00620598
-0.00582759
-0.00536475
-0.00483322
-0.00428985
-0.00381034
-0.00345337
-0.00323219
-0.00310224
-0.00298273
-0.00281232
-0.00258303
-0.00231884
-0.00204274
-0.00177049
-0.00151417
-0.00128122
-0.00107445
-0.000894005
-0.000738536
-0.000605745
-0.000492892
-0.00039713
-0.00031566
-0.000245801
-0.00018502
-0.000130925
-8.12372e-05
-3.37546e-05
1.36948e-05
6.32996e-05
0.000117332
0.000178157
0.000248488
0.000330723
0.000430016
0.000544055
0.000710201
2.98419e-06
2.99967e-06
3.03514e-06
3.09026e-06
3.16446e-06
3.25754e-06
3.37021e-06
3.50332e-06
3.65772e-06
3.83432e-06
4.03417e-06
4.25852e-06
4.50875e-06
4.78637e-06
5.09305e-06
5.43059e-06
5.80104e-06
6.20664e-06
6.64987e-06
7.13343e-06
7.66022e-06
8.23343e-06
8.85648e-06
9.53312e-06
1.02674e-05
1.10638e-05
1.1927e-05
1.28622e-05
1.38749e-05
1.49712e-05
1.61574e-05
1.74408e-05
1.88288e-05
2.03297e-05
2.19525e-05
2.37065e-05
2.56023e-05
2.76507e-05
2.98636e-05
3.2254e-05
3.48354e-05
3.76227e-05
4.06317e-05
4.38794e-05
4.73843e-05
5.11658e-05
5.52451e-05
5.96447e-05
6.43887e-05
6.95026e-05
7.50138e-05
8.09514e-05
8.73462e-05
9.4231e-05
0.00010164
0.000109611
0.000118181
0.00012739
0.000137282
0.0001479
0.00015929
0.0001715
0.000184577
0.000198571
0.000213531
0.000229506
0.000246543
0.000264691
0.000283997
0.000304501
0.000326228
0.000349193
0.00037341
0.000398896
0.000425649
0.000453622
0.000482709
0.000512772
0.000543676
0.000575299
0.000607461
0.000639824
0.000671841
0.000702837
0.000732142
0.000759143
0.000783172
0.000803121
0.000817209
0.00082407
0.000821864
0.000808656
0.000783776
0.00074714
0.000698287
0.00063622
0.000560557
0.000473656
0.000382977
0.00030329
0.000258224
0.000279359
0.000395966
0.000608097
0.00085923
0.00105649
0.00114284
0.00114157
0.00112843
0.00118598
0.00137591
0.0017223
0.00222158
0.0028768
0.00370569
0.00471794
0.00591207
0.00728777
0.00883453
0.0105118
0.0122555
0.0140035
0.0157085
0.0173334
0.0188471
0.0202274
0.0214599
0.0225353
0.0234457
0.0241834
0.0247397
0.0251039
0.0252645
0.0252098
0.0249297
0.0244172
0.0236695
0.0226906
0.0214882
0.0200748
0.0184684
0.0166908
0.0147668
0.0127237
0.0105913
0.00840319
0.00619904
0.00402728
0.00194556
1.79492e-05
-0.00169311
-0.00313851
-0.00429479
-0.00517249
-0.00581392
-0.00627439
-0.00659539
-0.00679508
-0.0068836
-0.00687328
-0.00676864
-0.00656661
-0.0062699
-0.0058826
-0.00539949
-0.00483786
-0.00426003
-0.00375496
-0.00339219
-0.0031881
-0.00308868
-0.00299467
-0.00283306
-0.00259948
-0.00232668
-0.00204204
-0.00176263
-0.00150134
-0.00126568
-0.00105792
-0.000877693
-0.000723255
-0.000591966
-0.000480848
-0.000386908
-0.000307258
-0.000239174
-0.000180108
-0.000127675
-7.9614e-05
-3.37494e-05
1.2058e-05
5.996e-05
0.000112188
0.000171063
0.000239248
0.000319099
0.000415673
0.000526709
0.00068889
2.96922e-06
2.98463e-06
3.01992e-06
3.07478e-06
3.14862e-06
3.24125e-06
3.35336e-06
3.48582e-06
3.63947e-06
3.81519e-06
4.01405e-06
4.23728e-06
4.48626e-06
4.7625e-06
5.06764e-06
5.40351e-06
5.77213e-06
6.17573e-06
6.61677e-06
7.09793e-06
7.62212e-06
8.19248e-06
8.81245e-06
9.48575e-06
1.02164e-05
1.10089e-05
1.18678e-05
1.27984e-05
1.38061e-05
1.48969e-05
1.60773e-05
1.73544e-05
1.87357e-05
2.02293e-05
2.18442e-05
2.35899e-05
2.54765e-05
2.75152e-05
2.97177e-05
3.20968e-05
3.46662e-05
3.74405e-05
4.04357e-05
4.36686e-05
4.71575e-05
5.0922e-05
5.49831e-05
5.93633e-05
6.40866e-05
6.91784e-05
7.46661e-05
8.05786e-05
8.69469e-05
9.38037e-05
0.000101184
0.000109123
0.00011766
0.000126835
0.000136691
0.000147273
0.000158626
0.000170797
0.000183835
0.000197791
0.000212713
0.00022865
0.000245651
0.000263766
0.000283046
0.00030353
0.000325245
0.000348205
0.000372425
0.000397931
0.000424733
0.000452786
0.00048198
0.000512169
0.000543227
0.000575059
0.000607524
0.000640297
0.000672807
0.000704331
0.00073418
0.000761803
0.000786668
0.000807798
0.00082343
0.000831716
0.000830451
0.000817576
0.000792423
0.000755097
0.000705091
0.000640846
0.000561056
0.000467134
0.000366005
0.000272924
0.00021399
0.000226695
0.000349194
0.000586429
0.000871337
0.00108771
0.00116409
0.00112998
0.0010766
0.00109974
0.00126864
0.00160515
0.00209704
0.00274471
0.00357026
0.00458477
0.00578598
0.00717741
0.0087526
0.0104678
0.0122508
0.0140335
0.0157675
0.0174163
0.0189484
0.020342
0.0215844
0.0226679
0.0235857
0.0243309
0.024895
0.025267
0.0254346
0.0253851
0.0251077
0.0245945
0.0238426
0.0228554
0.0216411
0.0202129
0.018589
0.0167918
0.0148462
0.0127794
0.0106203
0.0084017
0.00616275
0.00395217
0.00183014
-0.000134584
-0.00187347
-0.00333171
-0.00448298
-0.00534021
-0.00595406
-0.00639005
-0.0066944
-0.00688288
-0.00696309
-0.00694807
-0.00684091
-0.00663493
-0.00633259
-0.00593659
-0.00543505
-0.00483951
-0.00422134
-0.00368611
-0.00331694
-0.00313466
-0.00307365
-0.00301091
-0.00285892
-0.00261895
-0.00233535
-0.00204051
-0.00175275
-0.00148584
-0.00124724
-0.00103852
-0.000858713
-0.000705587
-0.000576118
-0.000467057
-0.000375247
-0.000297707
-0.000231663
-0.000174558
-0.000124014
-7.7792e-05
-3.37498e-05
1.02138e-05
5.62079e-05
0.000106417
0.000163112
0.0002289
0.000306086
0.000399621
0.000507303
0.000665046
2.95262e-06
2.96795e-06
3.00305e-06
3.05762e-06
3.13106e-06
3.22319e-06
3.33468e-06
3.46642e-06
3.61922e-06
3.79398e-06
3.99173e-06
4.21372e-06
4.46131e-06
4.73601e-06
5.03946e-06
5.37348e-06
5.74007e-06
6.14145e-06
6.58007e-06
7.05859e-06
7.57989e-06
8.14713e-06
8.7637e-06
9.43333e-06
1.016e-05
1.09482e-05
1.18024e-05
1.27279e-05
1.37301e-05
1.4815e-05
1.59891e-05
1.72593e-05
1.86332e-05
2.01188e-05
2.17251e-05
2.34615e-05
2.53381e-05
2.7366e-05
2.95569e-05
3.19235e-05
3.44794e-05
3.72393e-05
4.02189e-05
4.34351e-05
4.69062e-05
5.06516e-05
5.46923e-05
5.90507e-05
6.37507e-05
6.88178e-05
7.42791e-05
8.01637e-05
8.65025e-05
9.33281e-05
0.000100675
0.00010858
0.000117081
0.000126218
0.000136035
0.000146576
0.000157887
0.000170016
0.000183011
0.000196923
0.000211803
0.000227699
0.00024466
0.000262738
0.000281986
0.000302449
0.00032415
0.000347103
0.000371325
0.000396852
0.000423706
0.000451849
0.000481162
0.000511489
0.000542711
0.000574769
0.000607567
0.000640794
0.000673848
0.000705962
0.000736439
0.000764805
0.000790651
0.000813065
0.000830203
0.000839814
0.000839434
0.000827026
0.00080208
0.000764909
0.000714824
0.000649434
0.000566193
0.000465282
0.000352859
0.000244522
0.000169
0.000170831
0.000299658
0.000567785
0.000895401
0.00113609
0.00120017
0.00112593
0.00102388
0.0010058
0.00115041
0.00147614
0.00195893
0.00259614
0.00341621
0.00443164
0.00563864
0.00704591
0.00865269
0.0104113
0.0122391
0.014061
0.0158277
0.0175035
0.0190565
0.0204653
0.0217192
0.0228122
0.0237388
0.024493
0.0250665
0.0254482
0.0256251
0.0255834
0.0253113
0.0248001
0.0240463
0.0230528
0.0218278
0.0203847
0.0187423
0.0169234
0.0149532
0.0128586
0.010668
0.00841304
0.00613196
0.00387405
0.00170231
-0.000308949
-0.00208373
-0.00356005
-0.00470771
-0.00554223
-0.00612447
-0.00653281
-0.00681905
-0.0069951
-0.00706522
-0.0070441
-0.00693316
-0.00672117
-0.00641117
-0.00600548
-0.00548211
-0.00484525
-0.00417746
-0.0036049
-0.00322739
-0.00307196
-0.00305872
-0.00303396
-0.00289211
-0.002643
-0.00234606
-0.00203925
-0.00174191
-0.0014687
-0.00122691
-0.0010172
-0.00083791
-0.00068626
-0.000558796
-0.000451984
-0.000362494
-0.000287244
-0.000223419
-0.000168447
-0.000119963
-7.57532e-05
-3.37099e-05
8.2267e-06
5.21194e-05
0.000100102
0.000154391
0.00021753
0.000291773
0.00038195
0.000485923
0.000638757
2.93439e-06
2.94963e-06
2.98453e-06
3.03878e-06
3.11178e-06
3.20335e-06
3.31417e-06
3.44511e-06
3.59699e-06
3.77069e-06
3.96723e-06
4.18785e-06
4.43392e-06
4.70693e-06
5.00853e-06
5.34051e-06
5.70487e-06
6.10382e-06
6.53978e-06
7.01538e-06
7.53352e-06
8.09731e-06
8.71016e-06
9.37574e-06
1.00981e-05
1.08814e-05
1.17305e-05
1.26504e-05
1.36466e-05
1.47249e-05
1.5892e-05
1.71546e-05
1.85202e-05
1.99971e-05
2.15938e-05
2.332e-05
2.51856e-05
2.72015e-05
2.93796e-05
3.17325e-05
3.42736e-05
3.70177e-05
3.99803e-05
4.31783e-05
4.66299e-05
5.03544e-05
5.43728e-05
5.87074e-05
6.33819e-05
6.8422e-05
7.38546e-05
7.97086e-05
8.60149e-05
9.28062e-05
0.000100117
0.000107984
0.000116445
0.000125541
0.000135314
0.00014581
0.000157075
0.000169157
0.000182104
0.000195969
0.000210802
0.000226652
0.000243568
0.000261604
0.000280818
0.000301257
0.000322943
0.000345887
0.000370108
0.000395655
0.000422565
0.000450807
0.000480252
0.000510728
0.000542121
0.000574415
0.000607574
0.000641308
0.000674976
0.000707744
0.000738886
0.00076801
0.000794882
0.000818725
0.000837625
0.000848932
0.000849779
0.000837975
0.000813128
0.000775841
0.000725327
0.000658325
0.000570908
0.000461805
0.000336136
0.00020959
0.000113503
0.000100653
0.000235415
0.000540992
0.000922256
0.00119371
0.00124281
0.00112031
0.000960837
0.000895379
0.00101434
0.00133109
0.00180531
0.00243087
0.00324533
0.0042624
0.00547537
0.00689989
0.00854314
0.0103524
0.0122317
0.0140973
0.0159
0.0176053
0.0191807
0.0206052
0.0218707
0.0229732
0.0239087
0.0246723
0.0252559
0.0256481
0.0258346
0.0258008
0.0255334
0.0250228
0.0242651
0.0232626
0.0220238
0.0205628
0.018899
0.0170558
0.0150587
0.0129346
0.010711
0.00841797
0.00609253
0.00378402
0.00155841
-0.000503646
-0.00231739
-0.00381217
-0.00495286
-0.0057579
-0.00630085
-0.00667633
-0.00694274
-0.007106
-0.00716584
-0.00713975
-0.007027
-0.00681009
-0.00649376
-0.00608084
-0.00553549
-0.00485124
-0.00412462
-0.0035073
-0.00311971
-0.00299762
-0.00304375
-0.00306483
-0.00293283
-0.00267054
-0.002357
-0.00203609
-0.0017278
-0.0014477
-0.00120266
-0.000992206
-0.000813811
-0.000664091
-0.000539094
-0.000434967
-0.000348191
-0.000275585
-0.000214287
-0.000161722
-0.00011554
-7.35612e-05
-3.37202e-05
5.99372e-06
4.75898e-05
9.31439e-05
0.000144811
0.000205066
0.000276102
0.000362619
0.000462549
0.000610026
2.91455e-06
2.92969e-06
2.96437e-06
3.01827e-06
3.09079e-06
3.18176e-06
3.29185e-06
3.42192e-06
3.5728e-06
3.74533e-06
3.94056e-06
4.1597e-06
4.40411e-06
4.67528e-06
4.97486e-06
5.30462e-06
5.66656e-06
6.06285e-06
6.49591e-06
6.96835e-06
7.48304e-06
8.04308e-06
8.65187e-06
9.31305e-06
1.00306e-05
1.08088e-05
1.16523e-05
1.25661e-05
1.35557e-05
1.46269e-05
1.57863e-05
1.70407e-05
1.83975e-05
1.98647e-05
2.14511e-05
2.31661e-05
2.50197e-05
2.70228e-05
2.9187e-05
3.15248e-05
3.40499e-05
3.67767e-05
3.97208e-05
4.2899e-05
4.63292e-05
5.0031e-05
5.4025e-05
5.83335e-05
6.29803e-05
6.79908e-05
7.33918e-05
7.92124e-05
8.54833e-05
9.22372e-05
9.95087e-05
0.000107334
0.000115751
0.000124802
0.000134528
0.000144975
0.00015619
0.00016822
0.000181115
0.000194928
0.00020971
0.000225509
0.000242375
0.000260364
0.00027954
0.000299952
0.000321623
0.000344556
0.000368773
0.000394336
0.000421307
0.00044966
0.000479249
0.000509883
0.000541452
0.000573993
0.000607545
0.000641844
0.000676195
0.000709673
0.000741519
0.000771445
0.000799451
0.000824916
0.000845801
0.000858997
0.000861163
0.000849939
0.000825193
0.000788028
0.000737619
0.000669644
0.000578457
0.000460951
0.000320792
0.000173353
5.23652e-05
2.01663e-05
0.000159971
0.000510937
0.00095966
0.0012699
0.0013004
0.00111946
0.000891765
0.000771143
0.000862698