/*--------------------------------*- C++ -*----------------------------------*\
| =========                 |                                                 |
| \\      /  F ield         | OpenFOAM: The Open Source CFD Toolbox           |
|  \\    /   O peration     | Version:  v2006                                 |
|   \\  /    A nd           | Website:  www.openfoam.com                      |
|    \\/     M anipulation  |                                                 |
\*---------------------------------------------------------------------------*/
FoamFile
{
    version     2.0;
    format      ascii;
    class       volVectorField;
    location    "0";
    object      U;
}
// * * * * * * * * * * * * * * * * * * * * * * * * * * * * * * * * * * * * * //

dimensions      [0 1 -1 0 0 0 0];


internalField   nonuniform List<vector> 
20000
(
(-1.91219e-05 -2.87603e-09 0)
(-1.90842e-05 -9.31316e-09 0)
(-1.90029e-05 -1.59566e-08 0)
(-1.88735e-05 -2.27492e-08 0)
(-1.86974e-05 -2.97426e-08 0)
(-1.8475e-05 -3.68623e-08 0)
(-1.82054e-05 -4.4017e-08 0)
(-1.78886e-05 -5.10581e-08 0)
(-1.7526e-05 -5.77365e-08 0)
(-1.71213e-05 -6.36641e-08 0)
(-1.6681e-05 -6.8309e-08 0)
(-1.62155e-05 -7.08925e-08 0)
(-1.57414e-05 -7.04808e-08 0)
(-1.52805e-05 -6.61479e-08 0)
(-1.48602e-05 -5.72644e-08 0)
(-1.45104e-05 -4.3541e-08 0)
(-1.42617e-05 -2.54147e-08 0)
(-1.4142e-05 -3.75795e-09 0)
(-1.41755e-05 2.04961e-08 0)
(-1.43801e-05 4.63026e-08 0)
(-1.47651e-05 7.26335e-08 0)
(-1.53305e-05 9.85813e-08 0)
(-1.60683e-05 1.2371e-07 0)
(-1.69745e-05 1.4865e-07 0)
(-1.8046e-05 1.73163e-07 0)
(-1.92791e-05 1.9685e-07 0)
(-2.06641e-05 2.18584e-07 0)
(-2.21851e-05 2.37326e-07 0)
(-2.38223e-05 2.52995e-07 0)
(-2.55572e-05 2.662e-07 0)
(-2.73759e-05 2.77901e-07 0)
(-2.92742e-05 2.90124e-07 0)
(-3.12622e-05 3.03185e-07 0)
(-3.33326e-05 3.17766e-07 0)
(-3.5484e-05 3.35087e-07 0)
(-3.77134e-05 3.49197e-07 0)
(-3.99574e-05 3.53617e-07 0)
(-4.21243e-05 3.38542e-07 0)
(-4.40832e-05 2.90404e-07 0)
(-4.56615e-05 2.01476e-07 0)
(-4.66922e-05 6.75385e-08 0)
(-4.70132e-05 -1.211e-07 0)
(-4.64076e-05 -3.72153e-07 0)
(-4.46981e-05 -6.88692e-07 0)
(-4.16776e-05 -1.07713e-06 0)
(-3.71409e-05 -1.51543e-06 0)
(-3.09653e-05 -2.0053e-06 0)
(-2.29646e-05 -2.51585e-06 0)
(-1.31351e-05 -2.98528e-06 0)
(-1.70046e-06 -3.36445e-06 0)
(1.10261e-05 -3.59619e-06 0)
(2.45362e-05 -3.61731e-06 0)
(3.81648e-05 -3.38552e-06 0)
(5.11571e-05 -2.86379e-06 0)
(6.26668e-05 -2.02749e-06 0)
(7.18491e-05 -8.77138e-07 0)
(7.78702e-05 5.49581e-07 0)
(8.0044e-05 2.18549e-06 0)
(7.78865e-05 3.90917e-06 0)
(7.13086e-05 5.56275e-06 0)
(6.05969e-05 6.95895e-06 0)
(4.64323e-05 7.91638e-06 0)
(2.98395e-05 8.26869e-06 0)
(1.20151e-05 7.95236e-06 0)
(-6.06937e-06 6.9909e-06 0)
(-2.36279e-05 5.49107e-06 0)
(-4.03176e-05 3.63882e-06 0)
(-5.6266e-05 1.65249e-06 0)
(-7.19272e-05 -2.47009e-07 0)
(-8.79541e-05 -1.87756e-06 0)
(-0.000104937 -3.10959e-06 0)
(-0.000123308 -3.92769e-06 0)
(-0.000142904 -4.39642e-06 0)
(-0.00016298 -4.64713e-06 0)
(-0.00018206 -4.8484e-06 0)
(-0.000198116 -5.15889e-06 0)
(-0.000209011 -5.69362e-06 0)
(-0.000212623 -6.37991e-06 0)
(-0.000207793 -7.0114e-06 0)
(-0.000194498 -7.36402e-06 0)
(-0.000173758 -7.16317e-06 0)
(-0.000147465 -6.29374e-06 0)
(-0.000117828 -4.84653e-06 0)
(-8.65932e-05 -3.23854e-06 0)
(-5.40843e-05 -1.96251e-06 0)
(-1.97094e-05 -1.41984e-06 0)
(1.767e-05 -1.74156e-06 0)
(5.8759e-05 -2.61034e-06 0)
(0.00010275 -3.42591e-06 0)
(0.000147217 -3.46294e-06 0)
(0.000188305 -2.22071e-06 0)
(0.000222121 3.67001e-07 0)
(0.000245793 3.78901e-06 0)
(0.000258616 7.35117e-06 0)
(0.000261493 1.05268e-05 0)
(0.000255381 1.31414e-05 0)
(0.000240306 1.53136e-05 0)
(0.000215494 1.69971e-05 0)
(0.000181094 1.76759e-05 0)
(0.000139382 1.69152e-05 0)
(9.37003e-05 1.45375e-05 0)
(4.77385e-05 1.05979e-05 0)
(5.20533e-06 5.44495e-06 0)
(-3.09197e-05 -3.80281e-07 0)
(-5.86387e-05 -6.36623e-06 0)
(-7.66249e-05 -1.18991e-05 0)
(-8.50458e-05 -1.63788e-05 0)
(-8.53163e-05 -1.94041e-05 0)
(-7.94732e-05 -2.067e-05 0)
(-7.02844e-05 -2.00218e-05 0)
(-6.0747e-05 -1.75018e-05 0)
(-5.35966e-05 -1.33583e-05 0)
(-5.08054e-05 -8.00918e-06 0)
(-5.33765e-05 -2.1237e-06 0)
(-6.09024e-05 3.57918e-06 0)
(-7.18147e-05 8.41767e-06 0)
(-8.37806e-05 1.17274e-05 0)
(-9.37806e-05 1.30476e-05 0)
(-9.86349e-05 1.22382e-05 0)
(-9.5808e-05 9.53105e-06 0)
(-8.38088e-05 5.48526e-06 0)
(-6.26713e-05 9.76923e-07 0)
(-3.43869e-05 -3.07437e-06 0)
(-2.32108e-06 -5.97557e-06 0)
(2.93981e-05 -7.21205e-06 0)
(5.64326e-05 -6.68197e-06 0)
(7.5183e-05 -4.6828e-06 0)
(8.38207e-05 -1.8483e-06 0)
(8.24755e-05 1.1158e-06 0)
(7.31633e-05 3.47596e-06 0)
(5.94372e-05 4.84194e-06 0)
(4.51133e-05 5.22202e-06 0)
(3.31799e-05 4.88727e-06 0)
(2.53159e-05 4.32008e-06 0)
(2.13922e-05 4.06662e-06 0)
(1.9686e-05 4.40828e-06 0)
(1.78447e-05 5.29322e-06 0)
(1.379e-05 6.43608e-06 0)
(6.2929e-06 7.33355e-06 0)
(-4.67938e-06 7.43316e-06 0)
(-1.76179e-05 6.28918e-06 0)
(-3.00351e-05 3.79673e-06 0)
(-3.91953e-05 1.81464e-07 0)
(-4.30512e-05 -3.90459e-06 0)
(-4.10906e-05 -7.63468e-06 0)
(-3.45046e-05 -1.02321e-05 0)
(-2.61171e-05 -1.1134e-05 0)
(-1.92789e-05 -1.03472e-05 0)
(-1.66676e-05 -8.29559e-06 0)
(-1.93695e-05 -5.69817e-06 0)
(-2.6597e-05 -3.26998e-06 0)
(-3.61175e-05 -1.31019e-06 0)
(-4.5887e-05 1.34769e-07 0)
(-5.41155e-05 1.04401e-06 0)
(-5.92117e-05 1.45324e-06 0)
(-6.0091e-05 1.49109e-06 0)
(-5.63584e-05 1.32974e-06 0)
(-4.84455e-05 1.15959e-06 0)
(-3.76019e-05 1.15418e-06 0)
(-2.57245e-05 1.42333e-06 0)
(-1.48805e-05 1.95415e-06 0)
(-6.92379e-06 2.65285e-06 0)
(-3.00936e-06 3.33602e-06 0)
(-3.36786e-06 3.79903e-06 0)
(-7.17803e-06 3.85181e-06 0)
(-1.28879e-05 3.41165e-06 0)
(-1.85531e-05 2.49346e-06 0)
(-2.24412e-05 1.25029e-06 0)
(-2.35208e-05 -6.81204e-08 0)
(-2.1723e-05 -1.19861e-06 0)
(-1.79665e-05 -1.91545e-06 0)
(-1.37625e-05 -2.13354e-06 0)
(-1.07168e-05 -1.9053e-06 0)
(-9.95685e-06 -1.40489e-06 0)
(-1.17928e-05 -8.42887e-07 0)
(-1.56363e-05 -4.0038e-07 0)
(-2.04135e-05 -1.48474e-07 0)
(-2.49172e-05 -8.6475e-08 0)
(-2.81718e-05 -1.61871e-07 0)
(-2.96952e-05 -2.94102e-07 0)
(-2.95667e-05 -4.0633e-07 0)
(-2.829e-05 -4.51169e-07 0)
(-2.6534e-05 -4.19662e-07 0)
(-2.4881e-05 -3.32716e-07 0)
(-2.36809e-05 -2.23145e-07 0)
(-2.30393e-05 -1.19311e-07 0)
(-2.28913e-05 -3.75311e-08 0)
(-2.30941e-05 1.71199e-08 0)
(-2.34935e-05 4.66093e-08 0)
(-2.39586e-05 5.62326e-08 0)
(-2.43947e-05 5.21854e-08 0)
(-2.47442e-05 4.01249e-08 0)
(-2.4981e-05 2.45295e-08 0)
(-2.51011e-05 8.59792e-09 0)
(-2.51163e-05 -5.5885e-09 0)
(-2.50451e-05 -1.68359e-08 0)
(-2.49153e-05 -2.46465e-08 0)
(-2.47359e-05 -2.86242e-08 0)
(-2.4584e-05 -3.04761e-08 0)
(-2.43031e-05 -2.54984e-08 0)
(-1.91221e-05 -8.61035e-09 0)
(-1.90845e-05 -2.79494e-08 0)
(-1.90029e-05 -4.79454e-08 0)
(-1.88732e-05 -6.83704e-08 0)
(-1.8697e-05 -8.93363e-08 0)
(-1.84747e-05 -1.10597e-07 0)
(-1.8206e-05 -1.3187e-07 0)
(-1.78908e-05 -1.52737e-07 0)
(-1.75303e-05 -1.72498e-07 0)
(-1.71281e-05 -1.90052e-07 0)
(-1.66903e-05 -2.03847e-07 0)
(-1.62268e-05 -2.11785e-07 0)
(-1.57511e-05 -2.11378e-07 0)
(-1.52825e-05 -2.00072e-07 0)
(-1.48457e-05 -1.75758e-07 0)
(-1.44725e-05 -1.37222e-07 0)
(-1.41976e-05 -8.48393e-08 0)
(-1.4056e-05 -2.04801e-08 0)
(-1.40748e-05 5.29007e-08 0)
(-1.427e-05 1.31552e-07 0)
(-1.4647e-05 2.11813e-07 0)
(-1.52035e-05 2.90822e-07 0)
(-1.59349e-05 3.67429e-07 0)
(-1.68316e-05 4.42429e-07 0)
(-1.78882e-05 5.15963e-07 0)
(-1.91025e-05 5.86837e-07 0)
(-2.0471e-05 6.52296e-07 0)
(-2.19822e-05 7.09728e-07 0)
(-2.36169e-05 7.58466e-07 0)
(-2.53548e-05 8.00013e-07 0)
(-2.71823e-05 8.37164e-07 0)
(-2.9088e-05 8.72958e-07 0)
(-3.10496e-05 9.06565e-07 0)
(-3.30516e-05 9.35868e-07 0)
(-3.50496e-05 9.55502e-07 0)
(-3.69718e-05 9.56985e-07 0)
(-3.87761e-05 9.30401e-07 0)
(-4.04281e-05 8.64323e-07 0)
(-4.19277e-05 7.51961e-07 0)
(-4.33255e-05 5.94868e-07 0)
(-4.46852e-05 3.93506e-07 0)
(-4.60845e-05 1.44805e-07 0)
(-4.76569e-05 -1.51768e-07 0)
(-4.94758e-05 -4.95957e-07 0)
(-5.16177e-05 -9.00715e-07 0)
(-5.41179e-05 -1.35127e-06 0)
(-5.68866e-05 -1.85252e-06 0)
(-5.98759e-05 -2.39639e-06 0)
(-6.28494e-05 -2.94395e-06 0)
(-6.53627e-05 -3.45714e-06 -3.59216e-40)
(-6.69349e-05 -3.91702e-06 -4.36221e-40)
(-6.69541e-05 -4.28192e-06 0)
(-6.47183e-05 -4.51996e-06 0)
(-5.95102e-05 -4.60524e-06 0)
(-5.06123e-05 -4.52625e-06 0)
(-3.74241e-05 -4.27512e-06 0)
(-1.94992e-05 -3.85122e-06 0)
(3.27998e-06 -3.26518e-06 0)
(3.0608e-05 -2.53937e-06 0)
(6.15379e-05 -1.70396e-06 0)
(9.44852e-05 -7.94904e-07 0)
(0.000127242 1.78721e-07 0)
(0.000157073 1.20683e-06 0)
(0.000180961 2.32954e-06 0)
(0.000196117 3.59436e-06 0)
(0.000200067 5.05124e-06 0)
(0.000191066 6.73889e-06 0)
(0.000168293 8.63616e-06 0)
(0.000131876 1.06859e-05 0)
(8.29226e-05 1.27606e-05 0)
(2.33619e-05 1.46761e-05 0)
(-4.41186e-05 1.61968e-05 0)
(-0.000116547 1.70918e-05 0)
(-0.000190787 1.71395e-05 0)
(-0.000263903 1.61671e-05 0)
(-0.000333243 1.41141e-05 0)
(-0.000396317 1.10139e-05 0)
(-0.000450998 7.09691e-06 0)
(-0.000494894 2.67855e-06 0)
(-0.000525498 -1.90151e-06 0)
(-0.000540481 -6.25592e-06 0)
(-0.000537984 -1.01397e-05 0)
(-0.000517172 -1.34441e-05 0)
(-0.000478846 -1.62097e-05 0)
(-0.000426111 -1.8533e-05 0)
(-0.000363502 -2.0467e-05 0)
(-0.000296204 -2.2001e-05 0)
(-0.000228651 -2.29484e-05 0)
(-0.000163102 -2.31168e-05 0)
(-9.93885e-05 -2.24089e-05 0)
(-3.51364e-05 -2.08714e-05 0)
(3.26443e-05 -1.87027e-05 0)
(0.000106089 -1.62946e-05 0)
(0.000184912 -1.38669e-05 0)
(0.000266636 -1.13881e-05 0)
(0.000347922 -8.59056e-06 0)
(0.000425532 -5.15556e-06 0)
(0.000496389 -1.03924e-06 0)
(0.000556264 3.44504e-06 0)
(0.000599231 7.95508e-06 0)
(0.000619461 1.2189e-05 0)
(0.000612505 1.58578e-05 0)
(0.000575921 1.87671e-05 0)
(0.000510002 2.07913e-05 0)
(0.000417659 2.18171e-05 0)
(0.000303541 2.19212e-05 0)
(0.000174228 2.12678e-05 0)
(3.73583e-05 1.99892e-05 0)
(-9.9387e-05 1.82684e-05 0)
(-0.000228293 1.62309e-05 0)
(-0.000342053 1.39307e-05 0)
(-0.000434113 1.13388e-05 0)
(-0.000499105 8.4189e-06 0)
(-0.000533244 5.07143e-06 0)
(-0.000535204 1.33896e-06 0)
(-0.00050639 -2.58826e-06 0)
(-0.000451044 -6.49461e-06 0)
(-0.000376305 -1.00854e-05 0)
(-0.000291326 -1.30651e-05 0)
(-0.000205683 -1.518e-05 0)
(-0.000128021 -1.62838e-05 0)
(-6.47079e-05 -1.62576e-05 0)
(-1.87898e-05 -1.50738e-05 0)
(9.6599e-06 -1.29038e-05 0)
(2.29732e-05 -9.93179e-06 0)
(2.52827e-05 -6.48627e-06 0)
(2.14097e-05 -2.98606e-06 0)
(1.56132e-05 8.74786e-08 0)
(1.11371e-05 2.3694e-06 0)
(9.88573e-06 3.50521e-06 0)
(1.23228e-05 3.45437e-06 0)
(1.83208e-05 2.41109e-06 0)
(2.77829e-05 7.07616e-07 0)
(4.07619e-05 -1.2027e-06 0)
(5.7783e-05 -2.80947e-06 0)
(7.9601e-05 -3.77601e-06 0)
(0.000106344 -3.96895e-06 0)
(0.000136948 -3.35698e-06 0)
(0.000169029 -2.11604e-06 0)
(0.000199004 -5.12325e-07 0)
(0.000222233 1.14833e-06 0)
(0.000233976 2.65171e-06 0)
(0.00023035 3.84704e-06 0)
(0.000209336 4.7816e-06 0)
(0.000171559 5.57401e-06 0)
(0.000120222 6.34668e-06 0)
(6.07947e-05 7.22937e-06 0)
(-3.86299e-07 8.1141e-06 0)
(-5.76022e-05 8.79465e-06 0)
(-0.000106846 8.97262e-06 0)
(-0.000146228 8.40557e-06 0)
(-0.00017556 7.12013e-06 0)
(-0.000194741 5.25188e-06 0)
(-0.000203826 2.9218e-06 0)
(-0.000203295 2.66086e-07 0)
(-0.000193939 -2.44951e-06 0)
(-0.000176866 -4.94776e-06 0)
(-0.000153503 -6.93089e-06 0)
(-0.000125552 -8.1478e-06 0)
(-9.48916e-05 -8.43755e-06 0)
(-6.35644e-05 -7.81956e-06 0)
(-3.35329e-05 -6.45235e-06 0)
(-6.51639e-06 -4.64027e-06 0)
(1.62501e-05 -2.75413e-06 0)
(3.40364e-05 -1.15732e-06 0)
(4.67162e-05 -8.80136e-08 0)
(5.45663e-05 3.62731e-07 0)
(5.81747e-05 2.97672e-07 0)
(5.82814e-05 -3.47487e-08 0)
(5.55999e-05 -3.39644e-07 0)
(5.07578e-05 -3.46974e-07 0)
(4.4182e-05 6.00593e-08 0)
(3.61502e-05 8.3635e-07 0)
(2.68715e-05 1.7705e-06 0)
(1.66622e-05 2.58337e-06 0)
(6.03447e-06 3.01591e-06 0)
(-4.14007e-06 2.95188e-06 0)
(-1.28636e-05 2.42306e-06 0)
(-1.93536e-05 1.59543e-06 0)
(-2.33082e-05 7.07114e-07 0)
(-2.49757e-05 -2.16184e-08 0)
(-2.50119e-05 -4.62198e-07 0)
(-2.42136e-05 -6.02582e-07 0)
(-2.32611e-05 -5.20007e-07 0)
(-2.25739e-05 -3.25705e-07 0)
(-2.23045e-05 -1.15041e-07 0)
(-2.24209e-05 5.52339e-08 0)
(-2.28058e-05 1.6402e-07 0)
(-2.33251e-05 2.12735e-07 0)
(-2.38646e-05 2.13801e-07 0)
(-2.43434e-05 1.83087e-07 0)
(-2.47152e-05 1.3537e-07 0)
(-2.49623e-05 8.22476e-08 0)
(-2.50873e-05 3.17709e-08 0)
(-2.51063e-05 -1.11517e-08 0)
(-2.50403e-05 -4.40281e-08 0)
(-2.49183e-05 -6.63305e-08 0)
(-2.47484e-05 -7.76873e-08 0)
(-2.46068e-05 -8.28197e-08 0)
(-2.43384e-05 -7.09011e-08 0)
(-1.9122e-05 -1.43213e-08 0)
(-1.90846e-05 -4.65358e-08 0)
(-1.90035e-05 -7.98741e-08 0)
(-1.88747e-05 -1.13905e-07 0)
(-1.86994e-05 -1.48793e-07 0)
(-1.8478e-05 -1.8413e-07 0)
(-1.82099e-05 -2.1946e-07 0)
(-1.78948e-05 -2.5412e-07 0)
(-1.75339e-05 -2.86985e-07 0)
(-1.71306e-05 -3.16267e-07 0)
(-1.66909e-05 -3.39399e-07 0)
(-1.62248e-05 -3.53059e-07 0)
(-1.57471e-05 -3.53294e-07 0)
(-1.52783e-05 -3.35892e-07 0)
(-1.48449e-05 -2.97002e-07 0)
(-1.4478e-05 -2.34164e-07 0)
(-1.42113e-05 -1.47251e-07 0)
(-1.40766e-05 -3.91139e-08 0)
(-1.41002e-05 8.46842e-08 0)
(-1.42992e-05 2.17161e-07 0)
(-1.46806e-05 3.5174e-07 0)
(-1.52426e-05 4.83823e-07 0)
(-1.5978e-05 6.11712e-07 0)
(-1.68795e-05 7.36029e-07 0)
(-1.79435e-05 8.5774e-07 0)
(-1.91677e-05 9.75293e-07 0)
(-2.05458e-05 1.08452e-06 0)
(-2.20638e-05 1.18111e-06 0)
(-2.37013e-05 1.26334e-06 0)
(-2.5438e-05 1.33356e-06 0)
(-2.72601e-05 1.39632e-06 0)
(-2.91609e-05 1.45418e-06 0)
(-3.11357e-05 1.50511e-06 0)
(-3.31747e-05 1.54247e-06 0)
(-3.52561e-05 1.5547e-06 0)
(-3.73427e-05 1.53195e-06 0)
(-3.93822e-05 1.46519e-06 0)
(-4.13095e-05 1.35018e-06 0)
(-4.30556e-05 1.19309e-06 0)
(-4.45586e-05 1.00373e-06 0)
(-4.5768e-05 7.89777e-07 0)
(-4.66412e-05 5.57636e-07 0)
(-4.71363e-05 3.07733e-07 0)
(-4.72052e-05 3.06051e-08 0)
(-4.67818e-05 -2.85343e-07 0)
(-4.57795e-05 -6.59098e-07 0)
(-4.40949e-05 -1.11028e-06 0)
(-4.16075e-05 -1.6505e-06 0)
(-3.81907e-05 -2.29121e-06 0)
(-3.37397e-05 -3.037e-06 0)
(-2.81716e-05 -3.8765e-06 0)
(-2.14286e-05 -4.80599e-06 0)
(-1.34931e-05 -5.80479e-06 0)
(-4.3875e-06 -6.84985e-06 0)
(5.82398e-06 -7.91042e-06 0)
(1.70251e-05 -8.93559e-06 0)
(2.90267e-05 -9.84543e-06 0)
(4.155e-05 -1.05431e-05 0)
(5.42081e-05 -1.08978e-05 0)
(6.64888e-05 -1.07633e-05 0)
(7.77533e-05 -9.99019e-06 0)
(8.72425e-05 -8.43598e-06 0)
(9.40986e-05 -6.00405e-06 0)
(9.73999e-05 -2.66314e-06 0)
(9.62151e-05 1.5528e-06 0)
(8.96731e-05 6.51192e-06 0)
(7.70348e-05 1.20058e-05 0)
(5.77915e-05 1.77526e-05 0)
(3.17533e-05 2.3409e-05 0)
(-8.7663e-07 2.86e-05 0)
(-3.94368e-05 3.29407e-05 0)
(-8.27842e-05 3.60922e-05 0)
(-0.000129326 3.77693e-05 0)
(-0.000177088 3.77725e-05 0)
(-0.000223811 3.59984e-05 0)
(-0.000267103 3.246e-05 0)
(-0.000304595 2.72749e-05 0)
(-0.000334129 2.0634e-05 0)
(-0.000353916 1.28028e-05 0)
(-0.000362681 4.13609e-06 0)
(-0.000359782 -4.94164e-06 0)
(-0.000345261 -1.39602e-05 0)
(-0.000319813 -2.23945e-05 0)
(-0.000284712 -2.97048e-05 0)
(-0.000241678 -3.54572e-05 0)
(-0.000192706 -3.94199e-05 0)
(-0.000139854 -4.15891e-05 0)
(-8.50442e-05 -4.22449e-05 0)
(-2.98974e-05 -4.18719e-05 0)
(2.43995e-05 -4.10147e-05 0)
(7.71166e-05 -4.00809e-05 0)
(0.00012785 -3.92144e-05 0)
(0.000176339 -3.82286e-05 0)
(0.000222219 -3.67241e-05 0)
(0.000264772 -3.42625e-05 0)
(0.000302796 -3.04855e-05 0)
(0.0003346 -2.51844e-05 0)
(0.000358166 -1.82208e-05 0)
(0.000371398 -9.51618e-06 0)
(0.000372423 7.49255e-07 0)
(0.000359939 1.20573e-05 0)
(0.000333521 2.36482e-05 0)
(0.000293773 3.46282e-05 0)
(0.00024233 4.41263e-05 0)
(0.000181691 5.14709e-05 0)
(0.000114913 5.62221e-05 0)
(4.52464e-05 5.81903e-05 0)
(-2.41462e-05 5.74364e-05 0)
(-9.04064e-05 5.41617e-05 0)
(-0.000151044 4.86106e-05 0)
(-0.000203887 4.10324e-05 0)
(-0.00024699 3.16846e-05 0)
(-0.000278611 2.08804e-05 0)
(-0.000297287 9.10546e-06 0)
(-0.000302061 -2.94814e-06 0)
(-0.000292809 -1.44049e-05 0)
(-0.000270488 -2.42749e-05 0)
(-0.000237214 -3.16648e-05 0)
(-0.000196091 -3.59871e-05 0)
(-0.000150789 -3.70879e-05 0)
(-0.000105024 -3.52549e-05 0)
(-6.20851e-05 -3.11237e-05 0)
(-2.45536e-05 -2.54873e-05 0)
(5.84632e-06 -1.91423e-05 0)
(2.82561e-05 -1.28216e-05 0)
(4.26219e-05 -7.11451e-06 0)
(4.96166e-05 -2.44866e-06 0)
(5.05304e-05 9.20891e-07 0)
(4.71014e-05 2.87443e-06 0)
(4.13389e-05 3.45149e-06 0)
(3.53058e-05 2.77863e-06 0)
(3.0863e-05 1.05384e-06 0)
(2.94686e-05 -1.42702e-06 0)
(3.20079e-05 -4.30316e-06 0)
(3.86823e-05 -7.1724e-06 0)
(4.89913e-05 -9.59171e-06 0)
(6.18197e-05 -1.11174e-05 0)
(7.55718e-05 -1.13819e-05 0)
(8.83854e-05 -1.01669e-05 0)
(9.83944e-05 -7.42973e-06 0)
(0.000103968 -3.3271e-06 0)
(0.000103911 1.77484e-06 0)
(9.76046e-05 7.3616e-06 0)
(8.50497e-05 1.28226e-05 0)
(6.68218e-05 1.75618e-05 0)
(4.39809e-05 2.10944e-05 0)
(1.79141e-05 2.31091e-05 0)
(-9.82279e-06 2.35394e-05 0)
(-3.76468e-05 2.25156e-05 0)
(-6.406e-05 2.02927e-05 0)
(-8.7693e-05 1.71491e-05 0)
(-0.000107333 1.32663e-05 0)
(-0.000121935 8.77878e-06 0)
(-0.000130658 3.87233e-06 0)
(-0.000132932 -1.20609e-06 0)
(-0.000128587 -6.12076e-06 0)
(-0.000117971 -1.04944e-05 0)
(-0.000102009 -1.39364e-05 0)
(-8.21933e-05 -1.61102e-05 0)
(-6.04588e-05 -1.68061e-05 0)
(-3.89267e-05 -1.60141e-05 0)
(-1.9569e-05 -1.39538e-05 0)
(-3.87573e-06 -1.10429e-05 0)
(7.39719e-06 -7.81803e-06 0)
(1.43112e-05 -4.80541e-06 0)
(1.76261e-05 -2.40478e-06 0)
(1.85173e-05 -7.95958e-07 0)
(1.82114e-05 7.66607e-08 0)
(1.76367e-05 4.61115e-07 0)
(1.71964e-05 7.04154e-07 0)
(1.67207e-05 1.12509e-06 0)
(1.56166e-05 1.91308e-06 0)
(1.31623e-05 3.04558e-06 0)
(8.85318e-06 4.30382e-06 0)
(2.67981e-06 5.33877e-06 0)
(-4.77935e-06 5.80634e-06 0)
(-1.24916e-05 5.5026e-06 0)
(-1.92887e-05 4.4627e-06 0)
(-2.42421e-05 2.95517e-06 0)
(-2.69474e-05 1.37532e-06 0)
(-2.75967e-05 9.0002e-08 0)
(-2.68221e-05 -6.89273e-07 0)
(-2.54082e-05 -9.4851e-07 0)
(-2.4017e-05 -8.24164e-07 0)
(-2.30377e-05 -5.08313e-07 0)
(-2.25853e-05 -1.63809e-07 0)
(-2.25927e-05 1.13528e-07 0)
(-2.29152e-05 2.88664e-07 0)
(-2.34002e-05 3.64399e-07 0)
(-2.39213e-05 3.61767e-07 0)
(-2.43902e-05 3.07364e-07 0)
(-2.47558e-05 2.2578e-07 0)
(-2.4998e-05 1.3617e-07 0)
(-2.51177e-05 5.17216e-08 0)
(-2.51303e-05 -1.96314e-08 0)
(-2.50563e-05 -7.39374e-08 0)
(-2.49252e-05 -1.10585e-07 0)
(-2.47458e-05 -1.29128e-07 0)
(-2.45954e-05 -1.37317e-07 0)
(-2.43165e-05 -1.17909e-07 0)
(-1.91221e-05 -2.00052e-08 0)
(-1.90849e-05 -6.50023e-08 0)
(-1.90044e-05 -1.11573e-07 0)
(-1.88763e-05 -1.59118e-07 0)
(-1.87021e-05 -2.07887e-07 0)
(-1.84818e-05 -2.57331e-07 0)
(-1.82149e-05 -3.06835e-07 0)
(-1.79009e-05 -3.55488e-07 0)
(-1.75408e-05 -4.01726e-07 0)
(-1.71378e-05 -4.43051e-07 0)
(-1.66974e-05 -4.75875e-07 0)
(-1.62295e-05 -4.95515e-07 0)
(-1.57484e-05 -4.96348e-07 0)
(-1.52748e-05 -4.72285e-07 0)
(-1.48353e-05 -4.17746e-07 0)
(-1.44617e-05 -3.29126e-07 0)
(-1.41886e-05 -2.06334e-07 0)
(-1.4049e-05 -5.37358e-08 0)
(-1.40696e-05 1.20386e-07 0)
(-1.42679e-05 3.06097e-07 0)
(-1.46501e-05 4.94304e-07 0)
(-1.52135e-05 6.78725e-07 0)
(-1.595e-05 8.57093e-07 0)
(-1.68518e-05 1.03065e-06 0)
(-1.79156e-05 1.2009e-06 0)
(-1.91401e-05 1.36586e-06 0)
(-2.05197e-05 1.51938e-06 0)
(-2.204e-05 1.65481e-06 0)
(-2.36793e-05 1.76955e-06 0)
(-2.54166e-05 1.8671e-06 0)
(-2.72378e-05 1.95414e-06 0)
(-2.91377e-05 2.03466e-06 0)
(-3.11133e-05 2.10667e-06 0)
(-3.3156e-05 2.16126e-06 0)
(-3.52453e-05 2.18539e-06 0)
(-3.73443e-05 2.16217e-06 0)
(-3.93993e-05 2.07767e-06 0)
(-4.13437e-05 1.92491e-06 0)
(-4.31077e-05 1.70412e-06 0)
(-4.46282e-05 1.42146e-06 0)
(-4.58548e-05 1.08674e-06 0)
(-4.67478e-05 7.03305e-07 0)
(-4.72689e-05 2.6311e-07 0)
(-4.73691e-05 -2.49803e-07 0)
(-4.69821e-05 -8.51546e-07 0)
(-4.60241e-05 -1.56417e-06 0)
(-4.43851e-05 -2.40559e-06 0)
(-4.19358e-05 -3.38017e-06 0)
(-3.85512e-05 -4.47307e-06 0)
(-3.41148e-05 -5.66157e-06 0)
(-2.85381e-05 -6.89943e-06 0)
(-2.17691e-05 -8.14654e-06 0)
(-1.37876e-05 -9.35771e-06 0)
(-4.61234e-06 -1.04832e-05 0)
(5.69477e-06 -1.14617e-05 0)
(1.70166e-05 -1.22233e-05 0)
(2.91632e-05 -1.26847e-05 0)
(4.18525e-05 -1.27511e-05 0)
(5.46913e-05 -1.23162e-05 0)
(6.7157e-05 -1.12739e-05 0)
(7.85963e-05 -9.52428e-06 0)
(8.82331e-05 -7.00211e-06 0)
(9.51967e-05 -3.66779e-06 0)
(9.85659e-05 4.83871e-07 0)
(9.7409e-05 5.41303e-06 0)
(9.08538e-05 1.103e-05 0)
(7.81713e-05 1.71757e-05 0)
(5.88516e-05 2.36199e-05 0)
(3.26981e-05 3.00445e-05 0)
(-8.76125e-08 3.60623e-05 0)
(-3.88505e-05 4.12412e-05 0)
(-8.24619e-05 4.51281e-05 0)
(-0.000129335 4.72904e-05 0)
(-0.000177489 4.7367e-05 0)
(-0.000224659 4.51187e-05 0)
(-0.00026843 4.04452e-05 0)
(-0.0003064 3.34267e-05 0)
(-0.000336353 2.43285e-05 0)
(-0.000356442 1.36196e-05 0)
(-0.000365343 1.92903e-06 0)
(-0.000362384 -1.0028e-05 0)
(-0.000347607 -2.15047e-05 0)
(-0.000321758 -3.18367e-05 0)
(-0.000286199 -4.05433e-05 0)
(-0.000242734 -4.73472e-05 0)
(-0.000193409 -5.21815e-05 0)
(-0.000140293 -5.51472e-05 0)
(-8.52878e-05 -5.64845e-05 0)
(-2.99434e-05 -5.64979e-05 0)
(2.46198e-05 -5.54666e-05 0)
(7.76846e-05 -5.36306e-05 0)
(0.000128826 -5.11469e-05 0)
(0.000177726 -4.80524e-05 0)
(0.000223962 -4.42616e-05 0)
(0.000266813 -3.95249e-05 0)
(0.000305113 -3.34673e-05 0)
(0.000337209 -2.56869e-05 0)
(0.000361038 -1.5921e-05 0)
(0.000374406 -4.26721e-06 0)
(0.000375357 8.79616e-06 0)
(0.000362547 2.24697e-05 0)
(0.000335564 3.57669e-05 0)
(0.000295079 4.76772e-05 0)
(0.000242823 5.73294e-05 0)
(0.000181392 6.41157e-05 0)
(0.000113933 6.7747e-05 0)
(4.37743e-05 6.82695e-05 0)
(-2.58993e-05 6.59761e-05 0)
(-9.22456e-05 6.12557e-05 0)
(-0.000152828 5.44909e-05 0)
(-0.000205549 4.59571e-05 0)
(-0.000248535 3.58354e-05 0)
(-0.000280084 2.42946e-05 0)
(-0.000298739 1.16447e-05 0)
(-0.000303518 -1.5672e-06 0)
(-0.000294247 -1.45092e-05 0)
(-0.000271842 -2.61491e-05 0)
(-0.000238409 -3.54848e-05 0)
(-0.000197056 -4.17628e-05 0)
(-0.000151463 -4.46406e-05 0)
(-0.000105346 -4.41984e-05 0)
(-6.20031e-05 -4.08591e-05 0)
(-2.40264e-05 -3.52596e-05 0)
(6.82626e-06 -2.81206e-05 0)
(2.96354e-05 -2.02097e-05 0)
(4.42732e-05 -1.2288e-05 0)
(5.13452e-05 -5.09278e-06 0)
(5.21003e-05 7.23695e-07 0)
(4.82993e-05 4.65012e-06 0)
(4.20211e-05 6.41805e-06 0)
(3.54282e-05 6.01964e-06 0)
(3.05083e-05 3.74974e-06 0)
(2.88204e-05 1.62663e-07 0)
(3.12974e-05 -4.01317e-06 0)
(3.81285e-05 -7.99827e-06 0)
(4.87516e-05 -1.10625e-05 0)
(6.1949e-05 -1.26388e-05 0)
(7.60194e-05 -1.24147e-05 0)
(8.90237e-05 -1.03359e-05 0)
(9.90559e-05 -6.61614e-06 0)
(0.000104499 -1.67334e-06 0)
(0.000104221 3.95088e-06 0)
(9.76886e-05 9.70165e-06 0)
(8.49799e-05 1.50741e-05 0)
(6.67166e-05 1.96752e-05 0)
(4.39489e-05 2.32326e-05 0)
(1.80065e-05 2.55701e-05 0)
(-9.6341e-06 2.66008e-05 0)
(-3.74622e-05 2.62805e-05 0)
(-6.40155e-05 2.46089e-05 0)
(-8.79139e-05 2.16159e-05 0)
(-0.000107888 1.73753e-05 0)
(-0.000122821 1.20449e-05 0)
(-0.000131798 5.88128e-06 0)
(-0.000134198 -7.34134e-07 0)
(-0.000129814 -7.31839e-06 0)
(-0.000118979 -1.32805e-05 0)
(-0.000102639 -1.80068e-05 0)
(-8.23365e-05 -2.09579e-05 0)
(-6.00882e-05 -2.18066e-05 0)
(-3.81097e-05 -2.05327e-05 0)
(-1.84631e-05 -1.74752e-05 0)
(-2.69564e-06 -1.32797e-05 0)
(8.42841e-06 -8.76456e-06 0)
(1.50167e-05 -4.72192e-06 0)
(1.79191e-05 -1.72909e-06 0)
(1.84199e-05 -1.53614e-08 0)
(1.78439e-05 5.64224e-07 0)
(1.71807e-05 4.59585e-07 0)
(1.68387e-05 2.64853e-07 0)
(1.65974e-05 5.10632e-07 0)
(1.57694e-05 1.49165e-06 0)
(1.35285e-05 3.15257e-06 0)
(9.29314e-06 5.11191e-06 0)
(3.02746e-06 6.79142e-06 0)
(-4.65397e-06 7.64272e-06 0)
(-1.26373e-05 7.35424e-06 0)
(-1.96598e-05 5.97773e-06 0)
(-2.47223e-05 3.90666e-06 0)
(-2.73995e-05 1.71691e-06 0)
(-2.79152e-05 -5.94765e-08 0)
(-2.69652e-05 -1.11772e-06 0)
(-2.5397e-05 -1.44e-06 0)
(-2.39098e-05 -1.22516e-06 0)
(-2.28975e-05 -7.49721e-07 0)
(-2.24576e-05 -2.45001e-07 0)
(-2.25e-05 1.55887e-07 0)
(-2.28621e-05 4.06816e-07 0)
(-2.33815e-05 5.14473e-07 0)
(-2.39279e-05 5.10306e-07 0)
(-2.44123e-05 4.32827e-07 0)
(-2.47852e-05 3.17141e-07 0)
(-2.50286e-05 1.90372e-07 0)
(-2.51455e-05 7.10911e-08 0)
(-2.51529e-05 -2.95658e-08 0)
(-2.50728e-05 -1.06074e-07 0)
(-2.49354e-05 -1.57594e-07 0)
(-2.475e-05 -1.8347e-07 0)
(-2.45951e-05 -1.94771e-07 0)
(-2.4311e-05 -1.66609e-07 0)
(-1.91221e-05 -2.56409e-08 0)
(-1.90853e-05 -8.33263e-08 0)
(-1.90054e-05 -1.43044e-07 0)
(-1.88784e-05 -2.04035e-07 0)
(-1.87056e-05 -2.66634e-07 0)
(-1.84869e-05 -3.30151e-07 0)
(-1.82216e-05 -3.93814e-07 0)
(-1.79091e-05 -4.5648e-07 0)
(-1.75501e-05 -5.16174e-07 0)
(-1.71474e-05 -5.6972e-07 0)
(-1.67062e-05 -6.12533e-07 0)
(-1.62358e-05 -6.38573e-07 0)
(-1.57503e-05 -6.40519e-07 0)
(-1.52703e-05 -6.10384e-07 0)
(-1.48226e-05 -5.40808e-07 0)
(-1.444e-05 -4.26989e-07 0)
(-1.41584e-05 -2.68784e-07 0)
(-1.40121e-05 -7.19082e-08 0)
(-1.40289e-05 1.52801e-07 0)
(-1.42261e-05 3.92332e-07 0)
(-1.46093e-05 6.3492e-07 0)
(-1.51746e-05 8.72265e-07 0)
(-1.59125e-05 1.10155e-06 0)
(-1.68145e-05 1.3248e-06 0)
(-1.78779e-05 1.54422e-06 0)
(-1.91028e-05 1.75706e-06 0)
(-2.04845e-05 1.95505e-06 0)
(-2.2008e-05 2.1292e-06 0)
(-2.36501e-05 2.27608e-06 0)
(-2.5388e-05 2.40058e-06 0)
(-2.7208e-05 2.51203e-06 0)
(-2.91063e-05 2.61624e-06 0)
(-3.10825e-05 2.71063e-06 0)
(-3.31303e-05 2.7836e-06 0)
(-3.52306e-05 2.81679e-06 0)
(-3.73466e-05 2.78847e-06 0)
(-3.94234e-05 2.67966e-06 0)
(-4.13916e-05 2.48059e-06 0)
(-4.31784e-05 2.19356e-06 0)
(-4.47188e-05 1.83105e-06 0)
(-4.5963e-05 1.40784e-06 0)
(-4.68735e-05 9.31175e-07 0)
(-4.74138e-05 3.95991e-07 0)
(-4.75377e-05 -2.12048e-07 0)
(-4.71806e-05 -9.17907e-07 0)
(-4.62557e-05 -1.74848e-06 0)
(-4.46543e-05 -2.72252e-06 0)
(-4.22455e-05 -3.86163e-06 0)
(-3.88946e-05 -5.15795e-06 0)
(-3.44872e-05 -6.58098e-06 0)
(-2.89352e-05 -8.10756e-06 0)
(-2.21816e-05 -9.69429e-06 0)
(-1.42061e-05 -1.12952e-05 0)
(-5.02661e-06 -1.28595e-05 0)
(5.29819e-06 -1.43265e-05 0)
(1.66582e-05 -1.56137e-05 0)
(2.88714e-05 -1.66137e-05 0)
(4.16657e-05 -1.71892e-05 0)
(5.46574e-05 -1.71762e-05 0)
(6.73325e-05 -1.63889e-05 0)
(7.90397e-05 -1.46447e-05 0)
(8.90024e-05 -1.1782e-05 0)
(9.63449e-05 -7.66526e-06 0)
(0.000100122 -2.22836e-06 0)
(9.9374e-05 4.50296e-06 0)
(9.31944e-05 1.24011e-05 0)
(8.08021e-05 2.12119e-05 0)
(6.16407e-05 3.05464e-05 0)
(3.54735e-05 3.98934e-05 0)
(2.46944e-06 4.86456e-05 0)
(-3.67297e-05 5.61414e-05 0)
(-8.09811e-05 6.17267e-05 0)
(-0.000128664 6.48255e-05 0)
(-0.000177747 6.49886e-05 0)
(-0.000225892 6.19479e-05 0)
(-0.000270609 5.56472e-05 0)
(-0.000309424 4.62615e-05 0)
(-0.000340058 3.41919e-05 0)
(-0.000360618 2.004e-05 0)
(-0.000369751 4.58307e-06 0)
(-0.000366783 -1.13068e-05 0)
(-0.000351771 -2.67234e-05 0)
(-0.000325491 -4.08323e-05 0)
(-0.000289332 -5.29242e-05 0)
(-0.00024514 -6.24879e-05 0)
(-0.000195022 -6.92526e-05 0)
(-0.000141129 -7.32549e-05 0)
(-8.54409e-05 -7.48088e-05 0)
(-2.95913e-05 -7.44398e-05 0)
(2.52543e-05 -7.27958e-05 0)
(7.84037e-05 -7.04456e-05 0)
(0.000129515 -6.7734e-05 0)
(0.0001784 -6.46677e-05 0)
(0.00022478 -6.09096e-05 0)
(0.000268023 -5.58593e-05 0)
(0.00030697 -4.88228e-05 0)
(0.000339895 -3.92073e-05 0)
(0.000364628 -2.67e-05 0)
(0.000378847 -1.13599e-05 0)
(0.000380466 6.26644e-06 0)
(0.000368034 2.51985e-05 0)
(0.00034106 4.41368e-05 0)
(0.000300189 6.16529e-05 0)
(0.000247177 7.64206e-05 0)
(0.000184706 8.7433e-05 0)
(0.00011603 9.41135e-05 0)
(4.45793e-05 9.63356e-05 0)
(-2.63798e-05 9.43302e-05 0)
(-9.3962e-05 8.85187e-05 0)
(-0.000155714 7.93475e-05 0)
(-0.000209525 6.71931e-05 0)
(-0.000253488 5.23639e-05 0)
(-0.000285826 3.52226e-05 0)
(-0.000304965 1.63699e-05 0)
(-0.000309794 -3.21954e-06 0)
(-0.000300046 -2.21741e-05 0)
(-0.000276626 -3.88972e-05 0)
(-0.000241738 -5.18757e-05 0)
(-0.000198683 -6.00411e-05 0)
(-0.000151384 -6.30038e-05 0)
(-0.000103783 -6.10699e-05 0)
(-5.93378e-05 -5.50902e-05 0)
(-2.07139e-05 -4.6208e-05 0)
(1.03301e-05 -3.56456e-05 0)
(3.29294e-05 -2.45833e-05 0)
(4.70454e-05 -1.40796e-05 0)
(5.33894e-05 -5.02993e-06 0)
(5.33234e-05 1.87475e-06 0)
(4.87023e-05 6.19131e-06 0)
(4.16851e-05 7.75128e-06 0)
(3.4499e-05 6.68985e-06 0)
(2.91648e-05 3.42213e-06 0)
(2.72606e-05 -1.3832e-06 0)
(2.97284e-05 -6.88734e-06 0)
(3.67607e-05 -1.21809e-05 0)
(4.77869e-05 -1.63753e-05 0)
(6.15652e-05 -1.87227e-05 0)
(7.635e-05 -1.87114e-05 0)
(9.01306e-05 -1.61345e-05 0)
(0.000100913 -1.11235e-05 0)
(0.000106981 -4.12162e-06 0)
(0.000107113 4.18136e-06 0)
(0.000100709 1.29606e-05 0)
(8.78205e-05 2.13651e-05 0)
(6.90874e-05 2.86329e-05 0)
(4.56242e-05 3.41714e-05 0)
(1.88601e-05 3.76074e-05 0)
(-9.62342e-06 3.88033e-05 0)
(-3.82274e-05 3.78116e-05 0)
(-6.54348e-05 3.4807e-05 0)
(-8.98504e-05 3.0019e-05 0)
(-0.000110213 2.36829e-05 0)
(-0.000125409 1.60634e-05 0)
(-0.00013452 7.50673e-06 0)
(-0.000136902 -1.51374e-06 0)
(-0.000132323 -1.03786e-05 0)
(-0.000121102 -1.8345e-05 0)
(-0.00010419 -2.46397e-05 0)
(-8.31791e-05 -2.85859e-05 0)
(-6.01658e-05 -2.97668e-05 0)
(-3.74718e-05 -2.81583e-05 0)
(-1.72659e-05 -2.41903e-05 0)
(-1.17581e-06 -1.86885e-05 0)
(1.00058e-05 -1.27052e-05 0)
(1.64195e-05 -7.26532e-06 0)
(1.89995e-05 -3.12357e-06 0)
(1.91408e-05 -5.97013e-07 0)
(1.82749e-05 4.7623e-07 0)
(1.74636e-05 6.48185e-07 0)
(1.71323e-05 6.56364e-07 0)
(1.70184e-05 1.16815e-06 0)
(1.63507e-05 2.55371e-06 0)
(1.42022e-05 4.75633e-06 0)
(9.91003e-06 7.29075e-06 0)
(3.41388e-06 9.42258e-06 0)
(-4.62809e-06 1.04476e-05 0)
(-1.30031e-05 9.96777e-06 0)
(-2.0331e-05 8.05907e-06 0)
(-2.55256e-05 5.24924e-06 0)
(-2.81408e-05 2.30699e-06 0)
(-2.84494e-05 -6.144e-08 0)
(-2.72378e-05 -1.45799e-06 0)
(-2.54414e-05 -1.87036e-06 0)
(-2.38105e-05 -1.57394e-06 0)
(-2.2744e-05 -9.42286e-07 0)
(-2.23138e-05 -2.81997e-07 0)
(-2.23973e-05 2.35153e-07 0)
(-2.28077e-05 5.53161e-07 0)
(-2.33692e-05 6.84087e-07 0)
(-2.39458e-05 6.70844e-07 0)
(-2.44481e-05 5.64406e-07 0)
(-2.48286e-05 4.10519e-07 0)
(-2.50718e-05 2.4409e-07 0)
(-2.51837e-05 8.87517e-08 0)
(-2.51834e-05 -4.1528e-08 0)
(-2.50947e-05 -1.40007e-07 0)
(-2.49488e-05 -2.05904e-07 0)
(-2.47556e-05 -2.38606e-07 0)
(-2.45948e-05 -2.5254e-07 0)
(-2.43041e-05 -2.15521e-07 0)
(-1.91222e-05 -3.12159e-08 0)
(-1.90857e-05 -1.01465e-07 0)
(-1.90068e-05 -1.74209e-07 0)
(-1.88811e-05 -2.48538e-07 0)
(-1.871e-05 -3.24875e-07 0)