/*--------------------------------*- C++ -*----------------------------------*\
| =========                 |                                                 |
| \\      /  F ield         | OpenFOAM: The Open Source CFD Toolbox           |
|  \\    /   O peration     | Version:  v2006                                 |
|   \\  /    A nd           | Website:  www.openfoam.com                      |
|    \\/     M anipulation  |                                                 |
\*---------------------------------------------------------------------------*/
FoamFile
{
    version     2.0;
    format      ascii;
    class       volScalarField;
    location    "0";
    object      f;
}
// * * * * * * * * * * * * * * * * * * * * * * * * * * * * * * * * * * * * * //

dimensions      [0 0 0 0 0 0 0];


internalField   nonuniform List<scalar> 
2500
(
-2.40251e-11
1.14426e-10
1.93222e-10
-6.01668e-10
-6.54029e-10
2.10396e-09
1.79489e-09
-5.59189e-09
-6.33499e-09
1.48804e-08
1.84991e-08
-3.21513e-08
-5.56518e-08
5.97659e-08
1.37464e-07
-4.25102e-08
-3.14788e-07
-1.20614e-07
5.60087e-07
5.25311e-07
-5.1045e-07
-1.28717e-06
-9.73442e-08
1.22172e-06
1.3306e-06
3.5919e-07
3.20567e-06
6.37869e-08
-1.29874e-05
-2.78373e-05
-9.67031e-06
7.40593e-05
0.00013331
4.61675e-05
-0.000203401
-0.000417083
-0.000235107
0.000453932
0.00117354
0.000936842
-0.00100607
-0.00424195
-0.00674941
-0.00565743
5.84055e-05
0.0139584
0.0238375
0.057192
0.0106975
0.174054
2.81633e-11
-7.13101e-11
-2.11425e-10
3.89882e-10
7.70799e-10
-1.46333e-09
-2.15352e-09
3.84512e-09
6.88442e-09
-9.99996e-09
-1.90389e-08
2.00931e-08
5.32355e-08
-3.29394e-08
-1.27323e-07
7.22994e-09
2.73079e-07
1.48888e-07
-4.8365e-07
-5.46989e-07
5.32848e-07
1.36072e-06
-3.10052e-08
-2.15503e-06
-1.76917e-06
3.15007e-06
3.2735e-06
-2.32641e-06
-7.46891e-06
2.18525e-06
1.60461e-05
1.10376e-05
-2.46157e-05
-4.00133e-05
2.54051e-07
4.02539e-05
-5.95491e-05
-0.000363136
-0.000691784
-0.000555258
0.000561321
0.00256793
0.00428589
0.00376869
0.000300682
-0.00897731
-0.0153266
-0.0398681
-0.00540211
-0.12659
-1.61796e-11
7.18246e-12
1.30202e-10
-6.32107e-11
-5.08639e-10
3.16648e-10
1.46989e-09
-7.76354e-10
-4.4163e-09
1.86364e-09
1.17443e-08
-2.06051e-09
-3.02888e-08
-2.5505e-09
6.64532e-08
4.02675e-08
-1.36785e-07
-1.5758e-07
1.92172e-07
4.71322e-07
-9.81258e-08
-1.07356e-06
-6.49808e-07
1.72746e-06
2.8654e-06
-6.65103e-07
-6.37451e-06
-6.01092e-06
5.03047e-06
1.93694e-05
1.88763e-05
-9.7397e-06
-5.78121e-05
-8.09378e-05
-4.64192e-05
7.86067e-05
0.000303079
0.000558666
0.000694711
0.000565868
3.63991e-05
-0.000802396
-0.00149967
-0.00122524
0.000139636
0.00438531
0.00650375
0.0197632
-0.000110567
0.067051
4.66166e-12
-8.62403e-12
-3.97022e-11
5.4265e-11
1.54393e-10
-2.24937e-10
-4.30137e-10
5.86127e-10
1.33764e-09
-1.41242e-09
-3.83806e-09
2.55006e-09
1.052e-08
-2.87332e-09
-2.38257e-08
-7.48812e-09
4.64455e-08
4.83835e-08
-5.42849e-08
-1.53173e-07
-6.64103e-09
2.69092e-07
3.73521e-07
-1.42508e-07
-9.86626e-07
-1.07871e-06
4.03801e-07
2.70684e-06
5.03249e-06
1.02315e-06
-1.01709e-05
-2.14568e-05
-1.30006e-05
2.41553e-05
7.79401e-05
8.75585e-05
-4.31927e-06
-0.000192556
-0.00036308
-0.000338674
-1.32174e-05
0.000534955
0.000979887
0.000846321
3.8877e-05
-0.00220707
-0.00356784
-0.00946312
-0.000916586
-0.0300003
-4.64678e-12
2.44187e-12
3.70673e-11
-2.24004e-11
-1.44687e-10
9.56025e-11
4.37264e-10
-2.63656e-10
-1.25605e-09
5.94662e-10
3.36732e-09
-8.42441e-10
-8.28916e-09
-4.33306e-10
1.78507e-08
1.03893e-08
-3.47045e-08
-4.17923e-08
4.88769e-08
1.08026e-07
-1.69663e-08
-2.26692e-07
-9.4158e-08
3.0728e-07
4.04259e-07
-2.07139e-07
-9.2643e-07
-4.52998e-08
1.40224e-06
1.40267e-06
-1.11813e-06
-2.40884e-06
-4.31743e-06
-1.29486e-06
-1.61158e-06
5.00726e-06
3.43553e-05
9.12705e-05
0.0001581
0.000155482
1.30261e-05
-0.00028499
-0.000578688
-0.000557281
-0.000131917
0.00125587
0.00207311
0.00635793
0.000224233
0.0215691
7.33127e-13
3.89723e-12
-9.08789e-12
-1.51909e-11
3.92164e-11
4.14515e-11
-1.2091e-10
-1.30746e-10
3.63793e-10
3.67144e-10
-8.78933e-10
-1.22348e-09
2.36287e-09
2.87125e-09
-3.23065e-09
-9.68926e-09
4.30195e-09
2.47925e-08
8.89353e-10
-5.85527e-08
-3.66999e-08
1.11477e-07
1.76387e-07
-9.58914e-08
-5.72098e-07
-3.04431e-07
8.24549e-07
2.04842e-06
5.47471e-07
-3.65852e-06
-7.48479e-06
-3.47979e-06
1.04313e-05
2.69044e-05
2.56793e-05
-4.16742e-06
-6.00345e-05
-0.000120148
-0.000139989
-0.0001088
-3.03972e-05
5.29085e-05
9.24734e-05
2.23621e-05
-0.000134122
-0.000581889
-0.000670116
-0.00216091
0.000303552
-0.00749563
-1.25428e-13
1.89791e-12
3.39686e-13
-1.14191e-11
1.73298e-12
4.16347e-11
-1.56147e-11
-1.1064e-10
4.08081e-11
2.71728e-10
-6.20988e-11
-6.66612e-10
4.81349e-11
1.52007e-09
-4.27665e-10
-2.05575e-09
1.82731e-09
4.0133e-09
-8.71693e-09
-1.0208e-08
1.92115e-08
6.13394e-08
-4.0967e-08
-1.96348e-07
-1.07899e-07
4.64873e-07
8.96535e-07
-8.60171e-10
-2.39053e-06
-3.47377e-06
5.53086e-07
8.61238e-06
1.40346e-05
3.9762e-06
-2.07159e-05
-4.46315e-05
-3.59587e-05
8.81323e-06
5.61796e-05
5.51341e-05
-2.16437e-05
-0.000141874
-0.000228751
-0.000190894
1.84479e-06
0.000393695
0.000726524
0.0013523
0.000548077
0.00339235
5.94954e-13
4.11656e-13
-5.30507e-12
-1.89848e-12
2.41725e-11
2.49404e-12
-7.51847e-11
-9.77839e-13
2.08797e-10
8.34402e-12
-5.45432e-10
-7.02291e-11
1.17594e-09
5.13701e-10
-2.23769e-09
-2.29487e-09
3.40241e-09
5.91258e-09
-3.55714e-09
-8.3965e-09
7.42966e-10
9.89034e-09
-2.45941e-08
-1.03364e-08
8.63522e-08
1.52831e-07
-1.40466e-07
-6.0634e-07
-3.56571e-07
6.86411e-07
2.11069e-06
1.58917e-06
-6.604e-07
-4.30566e-06
-4.98978e-06
-4.23636e-06
-3.43054e-06
-5.06001e-06
-1.11169e-05
-7.67476e-06
2.13812e-05
8.31034e-05
0.000137606
0.000122614
1.04851e-05
-0.000289804
-0.000500354
-0.00133304
-0.000186726
-0.00429967
6.6652e-14
-5.16108e-13
7.6299e-14
2.64362e-12
-7.49143e-13
-8.2147e-12
1.1624e-12
2.86664e-11
-9.11611e-12
-8.7259e-11
4.62656e-11
2.13709e-10
-9.35162e-11
-5.54642e-10
1.54375e-10
1.45064e-09
8.59267e-11
-3.95552e-09
-1.1909e-09
7.83737e-09
7.77611e-09
-1.6391e-08
-3.0585e-08
1.39714e-08
1.09344e-07
6.24867e-08
-1.8947e-07
-5.53259e-07
-4.35579e-08
9.12422e-07
2.05373e-06
6.29332e-07
-3.2158e-06
-7.05766e-06
-6.57952e-06
4.9104e-06
2.17618e-05
3.33459e-05
2.93408e-05
1.04849e-05
-1.60116e-05
-2.8528e-05
-1.89212e-05
2.1308e-05
8.54834e-05
0.000195573
0.000225738
0.000478893
2.22612e-05
0.00139758
2.17508e-13
-8.33463e-13
-7.67923e-13
4.40675e-12
1.00924e-12
-1.50738e-11
1.57133e-12
3.81441e-11
-6.16323e-12
-9.70736e-11
1.47117e-11
2.39025e-10
-2.50273e-11
-4.88114e-10
-4.74947e-11
9.14338e-10
9.98984e-11
-1.7831e-09
5.60198e-10
4.16421e-09
-2.23708e-09
-1.67249e-08
2.18297e-09
5.40967e-08
5.29343e-08
-1.28871e-07
-2.55445e-07
-2.4558e-08
6.90285e-07
9.60266e-07
-6.14952e-08
-2.35788e-06
-3.94868e-06
-9.33854e-07
6.21458e-06
1.16521e-05
7.02034e-06
-6.21245e-06
-1.93814e-05
-1.71056e-05
1.06534e-05
5.14833e-05
7.89029e-05
6.32535e-05
-1.07309e-05
-0.000144834
-0.000268416
-0.000451406
-0.000226425
-0.00104888
-2.05313e-13
-5.72209e-13
1.99497e-12
2.28247e-12
-8.38447e-12
-6.00116e-12
2.67332e-11
1.39975e-11
-7.25884e-11
-3.72557e-11
1.77955e-10
1.21124e-10
-3.88701e-10
-4.02796e-10
7.02258e-10
1.25433e-09
-1.11693e-09
-2.70828e-09
8.84209e-10
5.01811e-09
3.32946e-10
-7.07961e-09
4.24564e-10
1.20179e-08
-7.23663e-09
-5.7075e-08
3.10746e-09
1.61087e-07
2.45845e-07
-9.35709e-08
-6.35778e-07
-8.31047e-07
-5.34572e-07
7.66915e-07
2.41953e-06
3.91852e-06
3.29219e-06
1.58626e-06
2.01179e-06
6.55881e-07
-7.13768e-06
-2.39673e-05
-4.04364e-05
-3.75113e-05
-5.16408e-06
8.78416e-05
0.000152669
0.000417097
4.79935e-05
0.00136037
-4.19539e-14
1.51127e-13
2.77534e-14
-8.81019e-13
3.72412e-13
3.32323e-12
-1.73873e-12
-1.0359e-11
7.62381e-12
2.91575e-11
-2.2579e-11
-7.43133e-11
4.31586e-11
2.01973e-10
-9.027e-11
-5.68185e-10
2.02596e-10
1.41733e-09
-1.13225e-10
-3.88409e-09
-1.44579e-09
1.06897e-08
1.02827e-08
-1.73797e-08
-4.82228e-08
-1.17739e-08
1.16934e-07
2.03706e-07
-4.42032e-08
-5.41114e-07
-7.69554e-07
1.13344e-07
1.83157e-06
3.15939e-06
1.28398e-06
-3.76164e-06
-9.6414e-06
-1.24172e-05
-9.12099e-06
-2.38755e-06
5.93608e-06
6.27055e-06
2.46425e-07
-1.31213e-05
-2.99026e-05
-5.73384e-05
-5.59327e-05
-0.000129331
1.04564e-05
-0.000401106
-6.12767e-14
2.3114e-13
2.14918e-13
-1.19322e-12
-3.25209e-13
3.74141e-12
-7.34596e-14
-9.41254e-12
5.34532e-13
2.32828e-11
-5.30672e-13
-7.22657e-11
8.75536e-13
1.82779e-10
3.76996e-12
-3.70949e-10
-9.30407e-11
6.85485e-10
1.26728e-10
-1.27204e-09
-1.75974e-11
3.35414e-09
-1.75807e-09
-1.18033e-08
-1.76368e-09
3.93525e-08
3.77881e-08
-3.5675e-08
-1.90708e-07
-1.4885e-07
1.96254e-07
7.75498e-07
7.16095e-07
-2.72331e-07
-2.4454e-06
-3.6396e-06
-1.18614e-06
4.17896e-06
8.94401e-06
8.43885e-06
4.86603e-07
-1.15021e-05
-2.04855e-05
-1.82136e-05
2.55037e-06
3.89943e-05
7.15153e-05
0.000120665
5.98796e-05
0.000281563
5.81269e-14
2.20476e-13
-5.41469e-13
-9.08348e-13
2.39831e-12
2.51264e-12
-7.60842e-12
-6.94822e-12
2.11703e-11
1.89669e-11
-5.19281e-11
-5.80722e-11
1.13347e-10
1.70159e-10
-1.84129e-10
-4.61194e-10
1.97536e-10
1.05498e-09
1.35843e-10
-1.65006e-09
-1.1734e-09
1.02311e-09
2.19497e-09
1.4193e-09
1.83548e-09
2.61733e-09
-5.46107e-09
-2.76585e-08
-4.61847e-08
2.22278e-08
1.68222e-07
2.09807e-07
-7.46564e-08
-5.08942e-07
-6.86217e-07
-4.34156e-07
3.00398e-07
1.03408e-06
3.64518e-07
-4.11276e-07
2.93052e-08
3.45485e-06
9.36746e-06
1.27598e-05
8.06252e-06
-1.44062e-05
-3.02358e-05
-0.000106123
-2.85597e-06
-0.000374672
-1.09262e-15
-5.25456e-14
-1.16837e-15
3.28314e-13
-1.43593e-13
-1.11342e-12
1.04541e-12
3.6262e-12
-3.54856e-12
-1.07399e-11
8.35783e-12
3.5361e-11
-1.83582e-11
-9.69868e-11
2.83613e-11
2.62753e-10
-2.411e-11
-6.42796e-10
6.51317e-12
1.40277e-09
4.34078e-10
-3.18018e-09
-3.06885e-09
5.98008e-09
1.32536e-08
-3.06743e-09
-3.35826e-08
-4.42425e-08
3.02951e-08
1.63575e-07
1.71933e-07
-1.34937e-07
-5.85973e-07
-8.32884e-07
-3.94695e-08
1.59283e-06
3.18277e-06
2.84539e-06
1.37693e-06
-5.24273e-07
-1.31469e-06
3.42881e-07
3.13759e-06
6.89879e-06
7.91388e-06
8.40764e-06
1.42255e-06
1.1804e-05
-1.62628e-05
5.42128e-05
-2.19018e-16
-7.5747e-14
3.52303e-14
3.34109e-13
-2.56244e-13
-9.95204e-13
1.08231e-12
3.14088e-12
-3.62745e-12
-9.78875e-12
9.90157e-12
2.95747e-11
-2.44205e-11
-7.30614e-11
3.38672e-11
1.74864e-10
1.4854e-11
-3.74014e-10
-2.0962e-10
5.718e-10
5.92961e-10
-5.66446e-10
-5.30592e-10
1.0119e-09
-6.3737e-10
-6.27224e-09
-6.06824e-09
1.47739e-08
4.53288e-08
3.03745e-08
-8.19916e-08
-2.15859e-07
-1.49151e-07
2.97024e-07
8.12065e-07
8.55999e-07
-8.05072e-08
-1.66455e-06
-3.12861e-06
-3.07941e-06
-1.03972e-06
2.24684e-06
4.31533e-06
2.60351e-06
-1.83413e-06
-7.08986e-06
-1.31464e-05
-1.24801e-05
-1.54777e-05
-8.42552e-06
-1.24103e-14
-5.44573e-14
1.33413e-13
1.99323e-13
-5.47115e-13
-5.74649e-13
1.59304e-12
1.56603e-12
-4.69867e-12
-4.37888e-12
1.3227e-11
1.00221e-11
-3.03185e-11
-2.98651e-11
5.03774e-11
7.84483e-11
-2.15243e-11
-2.16259e-10
-1.76666e-10
3.01892e-10
6.99322e-10
3.03e-10
-1.30973e-09
-1.85408e-09
-1.32283e-09
3.43267e-09
7.87519e-09
8.40734e-09
-1.02199e-08
-3.75437e-08
-4.90877e-08
1.02603e-08
1.41607e-07
2.28721e-07
1.24882e-07
-3.14255e-07
-7.50343e-07
-8.81161e-07
-3.95825e-07
4.63414e-07
5.22905e-07
-8.19059e-07
-3.22087e-06
-4.67211e-06
-4.10178e-06
5.86886e-07
4.92156e-06
2.21383e-05
1.04072e-06
8.50193e-05
5.68612e-15
2.51217e-14
-5.39407e-14
-1.31565e-13
2.52354e-13
4.7079e-13
-8.91102e-13
-1.60638e-12
2.41095e-12
5.77115e-12
-6.85873e-12
-1.66271e-11
1.46344e-11
4.53379e-11
-2.14055e-11
-1.09137e-10
-1.34335e-12
2.35495e-10
1.42814e-10
-4.40088e-10
-4.42117e-10
5.64395e-10
1.18937e-09
-1.2053e-09
-2.16601e-09
7.76329e-10
8.00722e-09
5.42468e-09
-1.61496e-08
-3.94504e-08
-8.25743e-09
7.97919e-08
1.54057e-07
1.09041e-07
-1.75359e-07
-5.72793e-07
-7.52331e-07
-2.63528e-07
4.98283e-07
8.86617e-07
6.24895e-07
-3.65931e-07
-1.60196e-06
-2.11378e-06
-1.35811e-06
-1.16334e-07
3.06929e-06
9.08727e-07
8.48335e-06
-1.0227e-05
3.95135e-15
8.63044e-15
-3.73269e-14
-5.37755e-14
1.83088e-13
1.80747e-13
-6.80038e-13
-6.10937e-13
2.3069e-12
1.90318e-12
-6.60136e-12
-6.38284e-12
1.53002e-11
2.0052e-11
-2.38362e-11
-5.74665e-11
2.01904e-12
1.52825e-10
1.0035e-10
-2.12884e-10
-4.68743e-10
8.01977e-11
6.88975e-10
9.22144e-10
1.09705e-10
-1.56239e-09
-2.76301e-09
-1.74871e-09
-1.23382e-09
8.1962e-09
2.49462e-08
2.52491e-08
-2.59381e-08
-1.24535e-07
-2.25254e-07
-1.0599e-07
2.78017e-07
7.28128e-07
9.60492e-07
7.96697e-07
2.73677e-07
-4.70291e-07
-2.87007e-07
3.77594e-07
1.34238e-06
1.64408e-06
2.63686e-06
-7.30829e-07
3.56359e-06
-1.35654e-05
-1.65423e-15
3.46485e-15
5.49324e-15
-1.51276e-14
-2.79716e-14
2.07618e-14
4.20839e-14
1.39646e-13
-7.01701e-14
-8.00868e-13
2.00031e-13
2.56983e-12
-6.71649e-13
-4.9062e-12
9.37357e-13
2.8778e-12
1.05e-11
-7.67489e-12
1.11842e-11
-2.57023e-11
-4.55668e-11
-1.05228e-10
2.51776e-10
5.36202e-10
3.44466e-10
-1.52498e-09
-3.13868e-09
-1.56702e-09
6.92003e-09
1.70193e-08
9.62534e-09
-2.7703e-08
-7.16902e-08
-6.45037e-08
4.97167e-08
2.35936e-07
3.84074e-07
2.75298e-07
-8.77925e-08
-4.05928e-07
-3.57965e-07
2.67454e-07
1.07306e-06
1.61805e-06
1.41406e-06
-8.70991e-08
-2.03897e-06
-5.97002e-06
-2.21758e-06
-1.93407e-05
-2.60397e-15
5.62843e-17
2.75009e-14
8.60664e-15
-1.47296e-13
-6.48486e-14
5.46795e-13
2.94232e-13
-1.67712e-12
-1.23349e-12
4.45878e-12
4.29419e-12
-9.67958e-12
-1.36939e-11
1.1703e-11
4.40006e-11
-3.27723e-12
-9.42461e-11
-8.52192e-11
1.67098e-10
2.74624e-10
-4.87313e-11
-5.78268e-10
-3.62949e-10
4.01691e-10
8.6779e-10
2.05096e-10
1.07733e-10
1.71643e-09
4.21658e-10
-5.95357e-09
-1.94778e-08
-1.6941e-08
2.39495e-08
9.32736e-08
1.40874e-07
4.25339e-08
-1.85276e-07
-4.23077e-07
-4.37102e-07
-2.12474e-07
1.33613e-07
3.83539e-07
3.09104e-07
-1.95519e-07
-5.29143e-07
-1.3841e-06
1.99839e-07
-2.7783e-06
6.41932e-06
6.27334e-16
1.06204e-15
-2.32665e-15
-4.14437e-15
-2.1174e-15
4.15249e-14
4.90362e-14
-1.43384e-13
-2.36993e-13
2.94606e-13
8.98178e-13
-2.94876e-13
-2.12117e-12
-2.3744e-12
6.32285e-12
9.84198e-12
-3.11502e-12
-3.94105e-11
-1.46242e-11
7.30915e-11
1.19431e-10
-4.19171e-11
-3.11297e-10
-3.65695e-10
2.02592e-10
9.97884e-10
1.31187e-09
2.50344e-10
-3.09346e-09
-6.92084e-09
-4.74856e-09
6.65599e-09
2.68765e-08
4.22821e-08
2.0541e-08
-7.02809e-08
-1.78349e-07
-2.40486e-07
-1.83051e-07
-4.93891e-08
4.91011e-08
-1.02312e-08
-2.52965e-07
-4.93064e-07
-6.11831e-07
-3.70489e-07
2.41088e-08
1.58144e-06
-8.99192e-08
7.51131e-06
1.27324e-15
-1.55674e-15
-1.4147e-14
6.50397e-15
7.9241e-14
-3.91837e-15
-2.88445e-13
-3.63048e-14
8.04095e-13
3.04099e-13
-1.97805e-12
-1.32076e-12
3.27417e-12
5.80358e-12
-5.06406e-12
-1.41559e-11
-2.09951e-12
3.36645e-11
2.91186e-11
-4.21276e-11
-9.05879e-11
7.52797e-13
1.29436e-10
1.13047e-10
-6.30701e-11
3.70798e-11
1.27824e-10
-5.03056e-10
-1.45445e-09
-2.0445e-09
2.29948e-09
9.95845e-09
1.64654e-08
3.78184e-09
-3.85063e-08
-8.72287e-08
-7.53139e-08
2.3103e-08
1.52602e-07
2.2808e-07
1.54792e-07
-6.58413e-08
-3.14913e-07
-4.09446e-07
-1.94077e-07
2.03169e-07
8.06682e-07
1.26059e-06
1.15549e-06
2.2851e-06
2.36208e-16
-1.90022e-15
-3.13145e-15
1.1839e-14
2.0746e-14
-4.12912e-14
-9.39006e-14
1.04857e-13
3.53029e-13
-1.49173e-13
-9.53933e-13
-4.30726e-13
2.94188e-12
2.72797e-12
-4.67238e-12
-1.273e-11
4.25697e-12
3.31424e-11
1.67516e-11
-6.31808e-11
-9.45698e-11
2.92845e-11
2.41836e-10
2.16127e-10
-1.85133e-10
-6.48616e-10
-6.31601e-10
2.2227e-10
1.50178e-09
1.99568e-09
2.34383e-09
7.65301e-10
-8.06275e-09
-2.05559e-08
-2.44848e-08
-1.40269e-10
5.6954e-08
1.19614e-07
1.45175e-07
9.80416e-08
2.84104e-08
-2.5081e-08
1.49074e-08
1.12127e-07
2.29322e-07
2.42034e-07
2.75325e-07
-5.17803e-07
5.51786e-07
-3.45972e-06
-3.49806e-16
-2.61526e-16
6.64999e-15
-1.26906e-15
-3.77618e-14
1.0908e-15
1.25831e-13
1.843e-14
-3.31185e-13
-1.19087e-13
5.49004e-13
7.53881e-13
-9.49797e-13
-1.573e-12
1.98458e-13
4.16707e-12
3.33323e-12
-5.32277e-12
-1.34354e-11
-1.06052e-12
1.28992e-11
2.84808e-11
2.36846e-11
-3.4169e-12
-1.1867e-10
-2.216e-10
-4.9515e-11
3.2926e-10
1.16801e-09
1.52597e-09
-4.9271e-10
-5.52854e-09
-1.02741e-08
-5.32279e-09
1.45999e-08
4.30205e-08
5.89369e-08
3.23047e-08
-2.43236e-08
-7.03976e-08
-6.14888e-08
2.28597e-08
1.35251e-07
2.07215e-07
1.66445e-07
-2.10536e-08
-2.65027e-07
-6.60834e-07
-3.38536e-07
-1.99126e-06
-2.02867e-16
7.76425e-16
3.09363e-15
-7.52646e-15
-1.81828e-14
2.71992e-14
7.86324e-14
-7.19028e-14
-2.32544e-13
4.22347e-14
7.26331e-13
1.97619e-13
-1.67322e-12
-1.90966e-12
2.98874e-12
6.70879e-12
-1.8061e-12
-1.75204e-11
-9.16281e-12
2.85314e-11
5.22189e-11
-7.42245e-12
-1.15983e-10
-1.19189e-10
7.09512e-11
3.06549e-10
2.84813e-10
-1.33585e-10
-3.77762e-10
-7.44336e-10
-1.35038e-09
-1.24397e-09
1.29997e-09
7.60444e-09
1.49383e-08
1.09468e-08
-1.27022e-08
-4.76455e-08
-7.68084e-08
-7.41175e-08
-3.52287e-08
1.43984e-08
3.93297e-08
1.91247e-08
-5.48818e-08
-1.09468e-07
-2.30615e-07
-3.28764e-08
-3.761e-07
7.43696e-07
8.63211e-17
3.19102e-16
-1.79081e-15
-6.85931e-16
1.33569e-14
2.95055e-15
-4.61297e-14
-1.03643e-14
7.52827e-14
1.05822e-13
-1.1123e-13
-2.3551e-13
-1.00256e-13
3.42348e-13
8.51329e-13
1.96188e-13
-3.69645e-12
-2.40876e-12
2.84432e-12
1.27974e-11
7.67332e-12
-2.11074e-11
-5.46338e-11
-1.83905e-11
1.03637e-10
1.73075e-10
9.00816e-11
-2.37634e-10
-7.25932e-10
-7.80044e-10
2.50547e-11
2.41663e-09
5.23408e-09
4.46872e-09
-2.92411e-09
-1.77502e-08
-3.02598e-08
-2.98572e-08
-1.11e-08
1.05536e-08
1.73322e-08
-4.67842e-09
-4.78242e-08
-8.73783e-08
-8.95623e-08
-2.73868e-08
5.49825e-08
3.01752e-07
4.03018e-08
1.17531e-06
4.99695e-17
-2.56941e-16
-1.6545e-15
3.59983e-15
1.10692e-14
-1.67532e-14
-4.06856e-14
3.31085e-14
1.35399e-13
-3.58332e-14
-3.54547e-13
-1.5045e-13
8.59869e-13
8.8664e-13
-1.06743e-12
-3.25864e-12
7.55124e-13
7.0741e-12
5.60881e-12
-9.52885e-12
-2.32907e-11
-3.0761e-12
3.96343e-11
5.60328e-11
-5.64591e-12
-1.05902e-10
-1.07022e-10
-5.85162e-11
4.4011e-11
2.47927e-10
6.86474e-10
1.22562e-09
3.72423e-10
-2.63625e-09
-7.41221e-09
-9.06119e-09
-1.65151e-09
1.51915e-08
3.36865e-08
3.69693e-08
2.15875e-08
-6.34207e-09
-3.19411e-08
-3.13937e-08
-1.2915e-09
4.23972e-08
1.11518e-07
1.00762e-07
1.73359e-07
1.89452e-08
-1.22552e-17
-1.44373e-16
7.08535e-17
1.01786e-15
-2.34101e-15
-2.44133e-15
6.14575e-15
2.03905e-14
-7.22937e-15
-6.81076e-14
-4.38348e-14
9.35699e-14
2.79619e-13
3.77683e-14
-1.01822e-12
-5.96677e-13
1.5989e-12
3.40736e-12
-4.10326e-13
-9.86257e-12
-8.53216e-12
1.18501e-11
3.87801e-11
1.5812e-11
-5.2231e-11
-1.15782e-10
-6.82466e-11
1.39636e-10
3.36262e-10
4.13041e-10
6.76934e-11
-9.79463e-10
-2.05416e-09
-2.9288e-09
-4.01233e-10
5.82424e-09
1.32589e-08
1.765e-08
1.35715e-08
5.13069e-09
-1.63105e-09
1.13109e-09
1.35864e-08
2.82112e-08
3.95568e-08
2.70034e-08
1.23753e-08
-9.87657e-08
3.30964e-08
-5.08993e-07
-6.68343e-18
2.06579e-17
2.32279e-16
-1.09031e-15
-2.54932e-15
5.7473e-15
1.59026e-14
-1.3519e-14
-5.78428e-14
5.4045e-15
1.64679e-13
7.73945e-14
-2.91449e-13
-4.74236e-13
4.33511e-13
1.27678e-12
2.88384e-14
-2.33083e-12
-3.11424e-12
2.51083e-12
8.51614e-12
4.7017e-12
-1.16669e-11
-2.16722e-11
-9.26442e-12
2.14271e-11
4.14458e-11
7.24552e-11
5.07755e-11
-4.9494e-11
-3.12596e-10
-7.65216e-10
-6.68363e-10
8.18182e-10
3.35659e-09
5.54342e-09
3.74552e-09
-3.32885e-09
-1.12888e-08
-1.54251e-08
-1.04147e-08
2.4061e-09
1.65016e-08
2.13751e-08
8.50281e-09
-1.50552e-08
-4.98591e-08
-7.74188e-08
-6.74561e-08
-1.47249e-07
1.20844e-18
1.50403e-17
-3.13694e-17
-3.89179e-16
-4.00158e-16
2.9292e-15
1.42462e-15
-1.20591e-14
-1.09839e-14
2.89315e-14
5.76683e-14
-3.36611e-14
-2.40259e-13
-4.16364e-14
5.60549e-13
4.81706e-13
-8.0254e-13
-2.26199e-12
2.99795e-14
5.31626e-12
5.26005e-12
-4.95759e-12
-1.9029e-11
-1.17674e-11
2.27446e-11
5.62316e-11
4.1213e-11
-5.2726e-11
-1.51556e-10
-1.97726e-10
-6.59357e-11
2.91168e-10
8.9228e-10
1.3438e-09
7.26179e-10
-1.58431e-09
-5.23847e-09
-8.34323e-09
-9.0818e-09
-5.94276e-09
-2.24561e-09
3.65076e-10
-2.55502e-09
-7.9623e-09
-1.42667e-08
-1.44527e-08
-1.59325e-08
2.72261e-08
-3.06638e-08
1.85125e-07
2.29805e-19
-1.53028e-18
-2.11395e-17
-2.07034e-17
1.77056e-16
-9.08548e-16
-3.35937e-15
2.64273e-15
2.07159e-14
2.55823e-15
-5.58884e-14
-5.01854e-14
9.55237e-14
2.23917e-13
-1.27443e-13
-4.3015e-13
-2.39028e-13
7.08679e-13
1.46162e-12
-2.93746e-13
-2.57378e-12
-3.52487e-12
1.12e-12
8.66386e-12
8.83597e-12
3.50606e-12
-1.3795e-11
-4.27798e-11
-5.62874e-11
-1.93454e-11
1.57835e-10
3.69815e-10
4.17815e-10
-1.00114e-10
-1.3792e-09
-2.6048e-09
-2.6262e-09
-2.80066e-10
3.31804e-09
5.46946e-09
4.36964e-09
-1.01183e-09
-7.03861e-09
-1.01719e-08
-7.04587e-09
3.60044e-09
1.80343e-08
3.82483e-08
2.16618e-08
1.05122e-07
-1.57892e-19
-1.04571e-18
-1.74832e-18
1.96375e-17
-5.74073e-17
-6.27304e-16
-1.24785e-15
4.40034e-15
8.89322e-15
-1.01133e-14
-4.06849e-14
1.05091e-14
1.29221e-13
2.61058e-14
-2.72637e-13
-2.95783e-13
3.68921e-13
1.15774e-12
2.39687e-14
-2.34066e-12
-3.00374e-12
2.21572e-12
8.28302e-12
6.17977e-12
-8.41233e-12
-2.44032e-11
-1.96805e-11
1.22132e-11
5.96242e-11
9.14255e-11
4.9764e-11
-5.26283e-11
-3.17405e-10
-6.31337e-10
-5.40422e-10
2.01358e-10
1.83218e-09
3.64839e-09
4.43119e-09
3.74873e-09
1.77681e-09
-5.59882e-11
-2.78783e-10
1.43852e-09
5.17271e-09
6.56579e-09
1.02986e-08
-4.08359e-09
1.78147e-08
-5.64083e-08
-2.18834e-20
-6.05266e-20
9.97286e-19
-3.03505e-19
-4.87183e-17
-1.36717e-16
3.82966e-16
-3.56646e-16
-4.06676e-15
-2.118e-15
1.27593e-14
3.00724e-14
-2.72434e-14
-8.96476e-14
1.57669e-14
1.52084e-13
1.77367e-13
-1.87181e-13
-6.40418e-13
-2.35476e-13
8.63602e-13
1.92644e-12
7.01466e-13
-2.20325e-12
-6.50777e-12
-5.45367e-12
4.11118e-12
2.02613e-11
3.49233e-11
2.08952e-11
-5.62826e-11
-1.75862e-10
-2.63838e-10
-3.71741e-11
5.16966e-10
1.18052e-09
1.44726e-09
6.9827e-10
-6.64168e-10
-1.76204e-09
-1.54339e-09
2.50693e-10
2.88194e-09
4.29874e-09
3.77493e-09
-3.72923e-10
-5.68054e-09
-1.67167e-08
-6.21443e-09
-5.52108e-08
-1.72292e-21
3.84668e-20
1.06586e-19
-1.6917e-18
-1.04192e-17
5.18634e-17
1.25353e-16
-1.10018e-15
-3.41438e-15
3.27438e-15
1.90896e-14
-3.1116e-15
-5.56413e-14
-1.98353e-14
1.17085e-13
1.60259e-13
-1.74771e-13
-5.02881e-13
-5.57306e-14
1.0263e-12
1.28671e-12
-7.74273e-13
-3.3609e-12
-3.13833e-12
2.64704e-12
9.88119e-12
8.51946e-12
-1.16754e-12
-2.0615e-11
-3.47596e-11
-3.91374e-11
-1.09526e-12
1.24029e-10
2.61362e-10
3.33159e-10
6.40311e-11
-6.10404e-10
-1.46872e-09
-1.9947e-09
-1.87711e-09
-9.75325e-10
7.78256e-11
4.68898e-10
1.54657e-11
-1.60575e-09
-2.90779e-09
-5.36595e-09
-9.59766e-10
-7.92698e-09
1.53216e-08
2.46667e-21
1.53106e-20
1.13714e-20
8.2605e-20
5.84178e-18
1.77497e-17
-2.95027e-17
-3.3699e-16
-1.14297e-16
1.35413e-15
-1.32885e-15
-1.20667e-14
2.95078e-15
3.77846e-14
1.03426e-14
-6.00154e-14
-9.63314e-14
5.90338e-14
2.17145e-13
2.106e-13
-1.67806e-13
-9.26479e-13
-6.84423e-13
5.69572e-13
3.15995e-12
3.63855e-12
-1.60256e-13
-8.89301e-12
-1.97084e-11
-1.31198e-11
2.20663e-11
7.7279e-11
1.17459e-10
3.53194e-11
-1.83992e-10
-4.9342e-10
-6.68276e-10
-4.70964e-10
2.79898e-11
5.31976e-10
5.01106e-10
-9.57833e-11
-1.05683e-09
-1.78339e-09
-1.71233e-09
-8.81784e-11
1.79272e-09
6.74259e-09
1.45413e-09
2.41775e-08
2.13289e-21
1.20671e-20
9.17576e-20
6.99195e-19
2.65536e-18
-1.42082e-18
-7.55932e-18
1.12068e-16
2.64829e-16
-7.85945e-16
-6.09763e-15
8.2909e-16
2.23825e-14
9.12305e-15
-5.09113e-14
-6.33667e-14
7.31991e-14
1.91074e-13
6.12172e-14
-4.2048e-13
-5.35057e-13
2.39581e-13
1.2404e-12
1.41453e-12
-7.61447e-13
-3.48411e-12
-4.18387e-12
-1.10683e-12
7.61883e-12
1.40681e-11
2.12563e-11
7.60639e-12
-4.07862e-11
-1.01411e-10
-1.62126e-10
-6.8587e-11
1.99686e-10
5.60593e-10
8.34295e-10
7.99001e-10
4.69682e-10
-2.08132e-11
-3.26467e-10
-1.69685e-10
5.20065e-10
1.19018e-09
2.26023e-09
1.19809e-09
3.30917e-09
-3.24272e-09
2.00149e-21
1.27171e-20
8.14572e-20
3.37081e-19
5.29572e-19
6.72255e-19
1.79001e-17
5.98889e-17
8.03168e-17
-7.92138e-16
-5.73357e-16
3.50845e-15
1.13283e-15
-1.29255e-14
-4.48407e-15
1.86854e-14
4.11072e-14
-7.41506e-15
-9.1562e-14
-1.1701e-13
3.83892e-14
3.26093e-13
4.75139e-13
-4.27029e-14
-1.34706e-12
-2.05217e-12
-1.64997e-13
4.0237e-12
8.85963e-12
5.52626e-12
-7.93297e-12
-3.23211e-11
-5.23895e-11
-2.66131e-11
6.41819e-11
1.95871e-10
2.82714e-10
2.36494e-10
5.54148e-11
-1.30657e-10
-1.6594e-10
3.90264e-11
3.87267e-10
6.72447e-10
6.51102e-10
9.71149e-11
-5.17245e-10
-2.58164e-09
-2.66476e-10
-9.88227e-09
1.08995e-21
6.4104e-21
3.00453e-20
8.93402e-20
3.34221e-19
2.14311e-18
7.98248e-18
1.5907e-17
-2.22301e-17
9.89636e-17
9.10376e-16
-6.58732e-16
-7.08651e-15
-2.56132e-15
1.81106e-14
2.16765e-14
-2.67159e-14
-7.09617e-14
-1.7825e-14
1.42357e-13
2.02632e-13
-3.81274e-14
-4.44582e-13
-6.159e-13
1.36101e-13
1.24165e-12
1.84224e-12
7.72529e-13
-2.63136e-12
-5.61999e-12
-9.09779e-12
-4.75633e-12
1.46666e-11
4.24809e-11
6.8313e-11
3.89262e-11
-6.43177e-11
-2.0588e-10
-3.30014e-10
-3.22733e-10
-1.93802e-10
2.04667e-12
1.50749e-10
1.19673e-10
-1.29177e-10
-4.33861e-10
-8.99031e-10
-6.66936e-10
-1.29566e-09
4.44081e-10
2.17115e-22
1.11709e-21
4.8372e-21
3.24103e-20
2.23994e-19
8.96551e-19
1.568e-18
2.90011e-18
2.36856e-17
1.49397e-16
1.83308e-16
-1.05338e-15
-9.45735e-16
3.2921e-15
2.41938e-15
-4.39463e-15
-1.29419e-14
-2.7187e-15
2.83663e-14
5.63657e-14
-4.25703e-15
-1.33625e-13
-2.30415e-13
-2.27216e-14
6.165e-13
9.59651e-13
9.91467e-14
-1.64989e-12
-3.74721e-12
-2.44472e-12
2.88841e-12
1.33809e-11
2.12782e-11
1.16519e-11
-2.35437e-11
-7.6415e-11
-1.12484e-10
-1.02221e-10
-3.7728e-11
3.1665e-11
5.37541e-11
-1.23562e-11
-1.35696e-10
-2.47304e-10
-2.70068e-10
-8.09174e-11
1.29933e-10
9.38162e-10
1.87839e-11
3.79967e-09
-4.73508e-23
-2.08338e-22
4.99998e-22
1.29571e-20
6.81335e-20
1.90126e-19
5.03154e-19
2.72963e-18
1.66822e-17
2.84951e-17
-3.68692e-17
2.13533e-16
9.89442e-16
-3.18194e-16
-4.8789e-15
-4.66743e-15
9.11571e-15
2.24969e-14
3.66559e-15
-4.79769e-14
-7.1193e-14
8.33548e-15
1.54241e-13
2.57111e-13
-4.35178e-14
-4.86496e-13
-7.45073e-13
-4.47378e-13
9.0689e-13
2.25558e-12
3.95048e-12
1.81927e-12
-5.88034e-12
-1.71274e-11
-2.65605e-11
-1.62653e-11
2.09826e-11
7.42012e-11
1.23916e-10
1.22348e-10
7.4415e-11
7.3123e-13
-6.02476e-11
-5.44243e-11
3.29965e-11
1.58088e-10
3.45505e-10
2.99864e-10
4.85849e-10
1.06605e-11
-3.38217e-23
-1.26478e-22
1.81897e-23
1.8197e-21
7.591e-21
4.17993e-20
2.97674e-19
1.22589e-18
1.74734e-18
8.71918e-19
4.76288e-17
1.8982e-16
8.16551e-17
-7.05135e-16
-9.69014e-16
4.70301e-16
3.65041e-15
2.22085e-15
-6.13052e-15
-2.11466e-14
-3.43026e-15
4.8825e-14
9.97197e-14
-6.32558e-16
-2.39803e-13
-3.60971e-13
-4.0271e-14
6.84288e-13
1.47985e-12
9.12156e-13
-1.27713e-12
-5.03973e-12
-7.6658e-12
-3.90821e-12
8.7495e-12
2.80922e-11
4.19404e-11
3.92357e-11
1.63013e-11
-7.05829e-12
-1.62749e-11
5.14734e-12
4.53482e-11
9.02385e-11
1.062e-10
4.01486e-11
-3.51127e-11
-3.36351e-10
5.51861e-12
-1.38466e-09
-1.43734e-23
-6.67753e-23
-2.66515e-22
-9.33586e-22
-1.10828e-21
1.39259e-20
8.19908e-20
1.04107e-19
1.4591e-20
4.3886e-18
2.05551e-17
1.79296e-17
-3.5494e-17
7.45927e-17
4.05375e-16
1.60653e-16
-1.83641e-15
-4.01874e-15
-5.05459e-17
1.35568e-14
2.16115e-14
-3.13653e-15
-5.70702e-14
-9.09578e-14
1.68748e-14
1.80248e-13
2.86472e-13
1.5078e-13
-3.75905e-13
-8.3298e-13
-1.42074e-12
-6.4808e-13
2.03119e-12
5.96538e-12
9.42441e-12
5.81025e-12
-7.43701e-12
-2.60992e-11
-4.41175e-11
-4.42057e-11
-2.75032e-11
-1.00821e-12
2.21214e-11
1.83065e-11
-1.61378e-11
-6.19683e-11
-1.27308e-10
-1.11504e-10
-1.69687e-10
-2.50142e-11
-9.38416e-24
-4.99579e-23
-2.23522e-22
-7.05935e-22
-1.04933e-21
8.65635e-22
5.72348e-22
4.37811e-21
3.2852e-19
1.44229e-18
8.67788e-19
-1.70259e-19
2.76978e-17
7.02767e-17
6.41591e-17
-2.43363e-16
-6.71853e-16
-6.09954e-16
1.4098e-15
6.59566e-15
2.40124e-15
-1.69404e-14
-3.19731e-14
1.73057e-15
8.42266e-14
1.22321e-13
-4.3887e-16
-2.49025e-13
-5.03139e-13
-3.13569e-13
4.64325e-13
1.76064e-12
2.64711e-12
1.34387e-12
-3.01958e-12
-9.68664e-12
-1.43844e-11
-1.35152e-11
-5.68589e-12
2.71058e-12
5.86831e-12
-1.65271e-12
-1.65646e-11
-3.0885e-11
-3.43198e-11
-1.03486e-11
1.55247e-11
1.17737e-10
-2.26625e-13
4.75965e-10
-4.81864e-24
-2.50863e-23
-1.03635e-22
-3.11383e-22
-6.6193e-22
-1.36778e-21
-2.07988e-21
1.73489e-20
9.46427e-20
6.25236e-20
-3.05837e-20
2.30503e-18
8.26435e-18
7.69198e-18
-1.38893e-17
-2.0092e-17
2.06451e-17
2.09213e-16
-1.4894e-16
-2.55785e-15
-4.7289e-15
1.90327e-15
1.7951e-14
2.77117e-14
-8.76955e-15
-6.64352e-14
-9.07567e-14
-3.27742e-14
1.50239e-13
2.95389e-13
4.7605e-13
1.63219e-13
-7.65618e-13
-2.0368e-12
-3.11936e-12
-1.68741e-12
2.80894e-12
9.04741e-12
1.46292e-11
1.4473e-11
8.75857e-12
1.58953e-13
-6.82613e-12
-5.02519e-12
6.98904e-12
2.13158e-11
4.14208e-11
3.4297e-11
5.47544e-11
4.43361e-13
-1.83438e-24
-9.40005e-24
-3.81537e-23
-1.19526e-22
-2.93614e-22
-5.3653e-22
1.28698e-23
3.59016e-21
3.82745e-21
3.68547e-21
1.45523e-19
5.46687e-19
6.23773e-19
-1.65572e-19
1.00988e-18
1.094e-17
2.1093e-17
-7.04984e-18
-3.56898e-16
-1.00653e-15
-1.65061e-16
4.73522e-15
7.09783e-15
-2.9893e-15
-2.44828e-14
-3.22396e-14
7.74725e-15
8.02393e-14
1.45013e-13
8.67467e-14
-1.85846e-13
-5.62142e-13
-8.06681e-13
-3.0531e-13
1.12153e-12
3.09644e-12
4.39699e-12
3.80103e-12
1.20515e-12
-1.45142e-12
-2.00256e-12
7.36884e-13
5.81854e-12
9.82883e-12
9.55151e-12
1.53342e-12
-6.61447e-12
-3.78029e-11
-1.22308e-12
-1.48015e-10
-5.92379e-25
-3.03065e-24
-1.23489e-23
-3.89796e-23
-9.35519e-23
-1.54062e-22
-1.22275e-22
-1.30687e-23
6.3641e-22
7.60113e-21
2.78433e-20
3.46514e-20
1.64078e-20
2.21574e-19
9.63881e-19
1.15095e-18
-2.64042e-18
-2.68921e-17
-1.01086e-17
1.91254e-16
3.27332e-16
-8.31038e-16
-3.41554e-15
-5.01424e-15
4.60731e-15
1.81551e-14
2.32785e-14
6.28614e-15
-5.13635e-14
-9.45402e-14
-1.16772e-13
-2.42138e-14
2.65759e-13
5.94173e-13
8.48968e-13
3.51709e-13
-1.01136e-12
-2.80807e-12
-4.187e-12
-4.06947e-12
-2.5136e-12
-2.18983e-13
1.37372e-12
8.84406e-13
-2.1626e-12
-5.81955e-12
-1.13337e-11
-7.95847e-12
-1.57214e-11
6.40265e-12
-1.6415e-25
-8.37243e-25
-3.36922e-24
-1.03443e-23
-2.41268e-23
-4.4957e-23
-7.05329e-23
-3.06279e-23