/*--------------------------------*- C++ -*----------------------------------*\
| =========                 |                                                 |
| \\      /  F ield         | OpenFOAM: The Open Source CFD Toolbox           |
|  \\    /   O peration     | Version:  v2006                                 |
|   \\  /    A nd           | Website:  www.openfoam.com                      |
|    \\/     M anipulation  |                                                 |
\*---------------------------------------------------------------------------*/
FoamFile
{
    version     2.0;
    format      ascii;
    class       volVectorField;
    location    "9.2";
    object      U;
}
// * * * * * * * * * * * * * * * * * * * * * * * * * * * * * * * * * * * * * //

dimensions      [0 1 -1 0 0 0 0];


internalField   nonuniform List<vector> 
52500
(
(-0.00175961 0.000931106 0)
(-0.00210684 -0.000541099 0)
(-0.00225751 -0.000443573 0)
(-0.00312932 -0.000114096 0)
(-0.00412311 5.64713e-05 0)
(-0.00525906 0.000104663 0)
(-0.0063405 9.89007e-05 0)
(-0.00740417 8.55518e-05 0)
(-0.00844969 7.80849e-05 0)
(-0.00948587 7.59686e-05 0)
(-0.0105129 7.6157e-05 0)
(-0.0115304 7.731e-05 0)
(-0.0125385 7.95939e-05 0)
(-0.0135383 8.37088e-05 0)
(-0.0145314 9.03036e-05 0)
(-0.0155202 9.99127e-05 0)
(-0.0165082 0.000113175 0)
(-0.0174988 0.00013087 0)
(-0.0184954 0.000153466 0)
(-0.0195029 0.000181388 0)
(-0.0205267 0.000215229 0)
(-0.0215718 0.00025546 0)
(-0.0226438 0.000302432 0)
(-0.0237484 0.000356412 0)
(-0.0248916 0.000417465 0)
(-0.026079 0.000485445 0)
(-0.0273163 0.000560314 0)
(-0.0286089 0.000642089 0)
(-0.029962 0.000730492 0)
(-0.0313806 0.000825061 0)
(-0.0328692 0.000925343 0)
(-0.0344317 0.00103082 0)
(-0.0360716 0.00114096 0)
(-0.0377922 0.00125523 0)
(-0.0395959 0.00137308 0)
(-0.0414847 0.00149419 0)
(-0.043461 0.00161876 0)
(-0.045527 0.00174754 0)
(-0.047685 0.00188126 0)
(-0.0499376 0.00201959 0)
(-0.0522865 0.0021606 0)
(-0.0547327 0.00230104 0)
(-0.0572752 0.00243741 0)
(-0.0599116 0.00256696 0)
(-0.0626383 0.00268831 0)
(-0.0654511 0.0028013 0)
(-0.0683456 0.0029066 0)
(-0.0713174 0.00300539 0)
(-0.0743631 0.00309921 0)
(-0.0774799 0.00318984 0)
(-0.0806658 0.0032784 0)
(-0.0839189 0.00336368 0)
(-0.0872359 0.00344052 0)
(-0.0906098 0.00349935 0)
(-0.0940289 0.0035282 0)
(-0.0974762 0.00351663 0)
(-0.100931 0.00346005 0)
(-0.104374 0.00336264 0)
(-0.107787 0.00323701 0)
(-0.111161 0.00310064 0)
(-0.114496 0.00297035 0)
(-0.117796 0.00285766 0)
(-0.12107 0.00276729 0)
(-0.124327 0.00269862 0)
(-0.127577 0.00264829 0)
(-0.130828 0.00261229 0)
(-0.134085 0.00258716 0)
(-0.137354 0.0025703 0)
(-0.140637 0.00255985 0)
(-0.143939 0.00255442 0)
(-0.147261 0.00255293 0)
(-0.150606 0.0025545 0)
(-0.153976 0.00255849 0)
(-0.15737 0.00256461 0)
(-0.160791 0.00257296 0)
(-0.16424 0.00258389 0)
(-0.167717 0.00259761 0)
(-0.171224 0.00261389 0)
(-0.174762 0.00263185 0)
(-0.178331 0.00265024 0)
(-0.18193 0.00266783 0)
(-0.185558 0.0026839 0)
(-0.189214 0.0026984 0)
(-0.192896 0.00271198 0)
(-0.196604 0.00272596 0)
(-0.200335 0.00274205 0)
(-0.204091 0.00276206 0)
(-0.207872 0.00278738 0)
(-0.211681 0.0028185 0)
(-0.215518 0.0028548 0)
(-0.219387 0.00289457 0)
(-0.223287 0.00293534 0)
(-0.227219 0.00297452 0)
(-0.231181 0.00300996 0)
(-0.235173 0.00304024 0)
(-0.239191 0.00306468 0)
(-0.243233 0.00308322 0)
(-0.247295 0.00309635 0)
(-0.251373 0.00310479 0)
(-0.255466 0.00310925 0)
(-0.25957 0.00311037 0)
(-0.263683 0.00310861 0)
(-0.267801 0.00310437 0)
(-0.271922 0.00309793 0)
(-0.276044 0.00308955 0)
(-0.280163 0.00307944 0)
(-0.284279 0.00306772 0)
(-0.288387 0.00305447 0)
(-0.292487 0.00303973 0)
(-0.296575 0.00302356 0)
(-0.300649 0.00300594 0)
(-0.304707 0.00298686 0)
(-0.308747 0.00296629 0)
(-0.312766 0.00294428 0)
(-0.316762 0.00292095 0)
(-0.320732 0.0028964 0)
(-0.324674 0.00287068 0)
(-0.328586 0.00284381 0)
(-0.332465 0.00281587 0)
(-0.336309 0.00278696 0)
(-0.340117 0.00275721 0)
(-0.343885 0.00272675 0)
(-0.347612 0.00269566 0)
(-0.351296 0.00266404 0)
(-0.354934 0.00263191 0)
(-0.358526 0.00259933 0)
(-0.362068 0.00256633 0)
(-0.365559 0.00253301 0)
(-0.368998 0.0024994 0)
(-0.372382 0.0024655 0)
(-0.37571 0.00243138 0)
(-0.37898 0.00239719 0)
(-0.382191 0.00236309 0)
(-0.385341 0.0023293 0)
(-0.388429 0.00229603 0)
(-0.391453 0.00226354 0)
(-0.394412 0.00223218 0)
(-0.397305 0.00220237 0)
(-0.400131 0.00217455 0)
(-0.402888 0.00214891 0)
(-0.405574 0.00212518 0)
(-0.408188 0.00210292 0)
(-0.410727 0.00208245 0)
(-0.413191 0.00206644 0)
(-0.415582 0.00206084 0)
(-0.417903 0.00207395 0)
(-0.420164 0.00211306 0)
(-0.422377 0.0021799 0)
(-0.424554 0.00226758 0)
(-0.426704 0.00236167 0)
(-0.428829 0.0024451 0)
(-0.430926 0.0025046 0)
(-0.432986 0.00253497 0)
(-0.434999 0.00253929 0)
(-0.436956 0.00252557 0)
(-0.438851 0.00250231 0)
(-0.440679 0.00247555 0)
(-0.44244 0.00244814 0)
(-0.444132 0.0024208 0)
(-0.445755 0.00239371 0)
(-0.447309 0.00236757 0)
(-0.448796 0.00234372 0)
(-0.450217 0.00232327 0)
(-0.451574 0.00230606 0)
(-0.452869 0.00229019 0)
(-0.454104 0.00227265 0)
(-0.455279 0.00225051 0)
(-0.456391 0.00222188 0)
(-0.457438 0.00218603 0)
(-0.458418 0.00214292 0)
(-0.459327 0.00209285 0)
(-0.460163 0.00203504 0)
(-0.460921 0.00196679 0)
(-0.4616 0.00189027 0)
(-0.462196 0.00180583 0)
(-0.462705 0.001713 0)
(-0.463123 0.00161052 0)
(-0.463445 0.00149643 0)
(-0.463664 0.00136707 0)
(-0.463771 0.00121503 0)
(-0.463753 0.00103471 0)
(-0.463596 0.00083893 0)
(-0.463307 0.000646649 0)
(-0.462887 0.000468943 0)
(-0.462345 0.000311168 0)
(-0.461693 0.000174643 0)
(-0.460939 5.7992e-05 0)
(-0.460094 -4.18377e-05 0)
(-0.459166 -0.000128669 0)
(-0.45816 -0.00020625 0)
(-0.457081 -0.000277745 0)
(-0.455932 -0.000345577 0)
(-0.454714 -0.000411527 0)
(-0.45343 -0.000476947 0)
(-0.452079 -0.000542978 0)
(-0.450661 -0.00061075 0)
(-0.449175 -0.000681574 0)
(-0.447619 -0.0007572 0)
(-0.445989 -0.000840153 0)
(-0.444282 -0.000933992 0)
(-0.44249 -0.00104322 0)
(-0.440605 -0.00117256 0)
(-0.438617 -0.00132551 0)
(-0.436515 -0.00150249 0)
(-0.434288 -0.00169921 0)
(-0.431931 -0.00190612 0)
(-0.42944 -0.00210935 0)
(-0.426822 -0.00229333 0)
(-0.42409 -0.00244418 0)
(-0.421262 -0.00255291 0)
(-0.418359 -0.0026175 0)
(-0.415403 -0.00264309 0)
(-0.412411 -0.00264042 0)
(-0.409397 -0.00262306 0)
(-0.406366 -0.00260414 0)
(-0.40332 -0.00259367 0)
(-0.400255 -0.00259704 0)
(-0.397164 -0.00261508 0)
(-0.394041 -0.00264541 0)
(-0.39088 -0.0026842 0)
(-0.387678 -0.00272774 0)
(-0.384431 -0.00277344 0)
(-0.38114 -0.00282006 0)
(-0.377803 -0.00286737 0)
(-0.374422 -0.00291567 0)
(-0.370995 -0.00296522 0)
(-0.367524 -0.00301596 0)
(-0.364009 -0.00306752 0)
(-0.36045 -0.00311931 0)
(-0.356849 -0.0031707 0)
(-0.353206 -0.00322114 0)
(-0.349525 -0.00327019 0)
(-0.345805 -0.00331759 0)
(-0.34205 -0.00336316 0)
(-0.338262 -0.00340676 0)
(-0.334442 -0.00344821 0)
(-0.330592 -0.00348732 0)
(-0.326716 -0.0035239 0)
(-0.322814 -0.00355776 0)
(-0.318891 -0.00358866 0)
(-0.314947 -0.00361636 0)
(-0.310987 -0.00364057 0)
(-0.307011 -0.00366099 0)
(-0.303023 -0.00367729 0)
(-0.299026 -0.00368916 0)
(-0.295023 -0.00369625 0)
(-0.291016 -0.0036982 0)
(-0.28701 -0.00369458 0)
(-0.283006 -0.00368491 0)
(-0.279009 -0.00366862 0)
(-0.275022 -0.00364494 0)
(-0.271049 -0.00361295 0)
(-0.267094 -0.0035716 0)
(-0.263162 -0.00351977 0)
(-0.259258 -0.00345641 0)
(-0.255388 -0.00338059 0)
(-0.251557 -0.00329145 0)
(-0.247771 -0.00318827 0)
(-0.244037 -0.00307064 0)
(-0.240362 -0.00293912 0)
(-0.236752 -0.00279603 0)
(-0.233211 -0.00264608 0)
(-0.229744 -0.00249585 0)
(-0.226348 -0.00235211 0)
(-0.223024 -0.00221921 0)
(-0.219765 -0.00209719 0)
(-0.216572 -0.00198159 0)
(-0.213443 -0.00186518 0)
(-0.210384 -0.00174069 0)
(-0.207401 -0.00160293 0)
(-0.204504 -0.00144937 0)
(-0.201703 -0.00127953 0)
(-0.199009 -0.0010938 0)
(-0.196432 -0.000892739 0)
(-0.193985 -0.000676919 0)
(-0.191678 -0.000447345 0)
(-0.189525 -0.00020592 0)
(-0.187536 4.42678e-05 0)
(-0.185723 0.000298859 0)
(-0.184096 0.000552324 0)
(-0.182661 0.000798343 0)
(-0.181423 0.00103053 0)
(-0.180382 0.0012431 0)
(-0.179534 0.00143087 0)
(-0.178869 0.00158825 0)
(-0.178375 0.00170781 0)
(-0.178028 0.00177997 0)
(-0.177799 0.00179483 0)
(-0.177649 0.00174457 0)
(-0.17753 0.00162249 0)
(-0.177386 0.00141803 0)
(-0.177153 0.0011155 0)
(-0.176757 0.000701728 0)
(-0.176127 0.000178652 0)
(-0.175197 -0.000423445 0)
(-0.173928 -0.00104012 0)
(-0.172318 -0.00158554 0)
(-0.170404 -0.00198229 0)
(-0.168254 -0.00219129 0)
(-0.165952 -0.00222496 0)
(-0.163575 -0.00213828 0)
(-0.16118 -0.00200556 0)
(-0.1588 -0.00189486 0)
(-0.156441 -0.00185017 0)
(-0.154091 -0.00188558 0)
(-0.151731 -0.00199057 0)
(-0.149336 -0.00214155 0)
(-0.146886 -0.00231333 0)
(-0.144368 -0.00248639 0)
(-0.141775 -0.00264948 0)
(-0.139108 -0.00279863 0)
(-0.136367 -0.00293428 0)
(-0.133555 -0.00305867 0)
(-0.130676 -0.00317421 0)
(-0.127731 -0.00328295 0)
(-0.124723 -0.00338652 0)
(-0.121656 -0.00348629 0)
(-0.118532 -0.00358327 0)
(-0.115356 -0.00367815 0)
(-0.112133 -0.00377129 0)
(-0.108865 -0.00386284 0)
(-0.105555 -0.00395289 0)
(-0.102205 -0.00404162 0)
(-0.098817 -0.00412935 0)
(-0.0953931 -0.00421628 0)
(-0.091935 -0.00430235 0)
(-0.0884449 -0.00438739 0)
(-0.0849248 -0.00447148 0)
(-0.0813765 -0.00455463 0)
(-0.0778017 -0.00463662 0)
(-0.074202 -0.00471719 0)
(-0.0705787 -0.00479603 0)
(-0.0669329 -0.00487291 0)
(-0.063265 -0.00494757 0)
(-0.0595756 -0.00501986 0)
(-0.0558649 -0.00508947 0)
(-0.0521332 -0.00515596 0)
(-0.0483807 -0.00521899 0)
(-0.044608 -0.00527849 0)
(-0.0408154 -0.00533421 0)
(-0.0370031 -0.0053851 0)
(-0.0331721 -0.0054284 0)
(-0.0293256 -0.00545988 0)
(-0.0254671 -0.00547877 0)
(-0.0215979 -0.00549813 0)
(-0.0177139 -0.00555922 0)
(-0.0138054 -0.00572744 0)
(-0.00979944 -0.00602302 0)
(-0.00555632 -0.00613554 0)
(-0.00142639 -0.00461847 0)
(-0.00255319 0.00541379 0)
(-0.00366247 0.00149858 0)
(-0.00511328 0.00223172 0)
(-0.00722584 0.00318612 0)
(-0.00953637 0.00353456 0)
(-0.0119347 0.00355191 0)
(-0.0142496 0.00348978 0)
(-0.0165304 0.00343984 0)
(-0.018784 0.00340495 0)
(-0.0210171 0.00337332 0)
(-0.0232268 0.00334017 0)
(-0.0254108 0.00330622 0)
(-0.0275686 0.00327347 0)
(-0.0297006 0.0032437 0)
(-0.0318079 0.00321838 0)
(-0.033892 0.00319887 0)
(-0.0359547 0.00318649 0)
(-0.0379982 0.00318247 0)
(-0.0400246 0.00318784 0)
(-0.0420367 0.0032035 0)
(-0.0440373 0.00323016 0)
(-0.0460291 0.0032684 0)
(-0.0480144 0.00331864 0)
(-0.0499961 0.00338104 0)
(-0.0519764 0.00345542 0)
(-0.0539578 0.00354141 0)
(-0.0559422 0.00363858 0)
(-0.0579314 0.00374643 0)
(-0.059927 0.00386427 0)
(-0.0619305 0.00399127 0)
(-0.0639428 0.00412641 0)
(-0.065965 0.0042685 0)
(-0.0679977 0.00441636 0)
(-0.0700415 0.00456903 0)
(-0.0720967 0.00472574 0)
(-0.0741634 0.00488594 0)
(-0.0762417 0.0050493 0)
(-0.078331 0.00521565 0)
(-0.0804307 0.00538477 0)
(-0.0825403 0.00555612 0)
(-0.0846593 0.00572863 0)
(-0.0867878 0.00590077 0)
(-0.0889267 0.0060708 0)
(-0.0910773 0.00623706 0)
(-0.0932412 0.00639824 0)
(-0.0954201 0.00655348 0)
(-0.0976156 0.00670256 0)
(-0.0998292 0.00684583 0)
(-0.102062 0.00698411 0)
(-0.104314 0.00711813 0)
(-0.106585 0.00724779 0)
(-0.108876 0.00737148 0)
(-0.111186 0.0074858 0)
(-0.11352 0.00758616 0)
(-0.115884 0.00766807 0)
(-0.11829 0.00772872 0)
(-0.120752 0.00776837 0)
(-0.123287 0.00779077 0)
(-0.125906 0.00780244 0)
(-0.128618 0.00781097 0)
(-0.131426 0.007823 0)
(-0.134325 0.0078429 0)
(-0.13731 0.00787254 0)
(-0.140374 0.00791198 0)
(-0.14351 0.00796032 0)
(-0.146714 0.0080163 0)
(-0.14998 0.00807861 0)
(-0.153307 0.00814611 0)
(-0.15669 0.0082178 0)
(-0.160127 0.00829283 0)
(-0.163618 0.00837046 0)
(-0.167159 0.00845007 0)
(-0.170751 0.00853116 0)
(-0.174391 0.00861343 0)
(-0.178079 0.00869669 0)
(-0.181814 0.00878082 0)
(-0.185594 0.00886563 0)
(-0.189418 0.00895066 0)
(-0.193284 0.00903519 0)
(-0.197191 0.00911831 0)
(-0.201138 0.00919913 0)
(-0.205124 0.00927689 0)
(-0.209149 0.00935115 0)
(-0.213211 0.00942187 0)
(-0.217309 0.00948942 0)
(-0.221442 0.00955453 0)
(-0.225606 0.00961814 0)
(-0.2298 0.00968121 0)
(-0.23402 0.00974452 0)
(-0.238265 0.00980845 0)
(-0.242533 0.00987297 0)
(-0.246823 0.00993758 0)
(-0.251134 0.0100015 0)
(-0.255466 0.0100637 0)
(-0.259819 0.0101232 0)
(-0.264192 0.0101789 0)
(-0.268585 0.0102301 0)
(-0.272997 0.0102761 0)
(-0.277427 0.0103165 0)
(-0.281873 0.010351 0)
(-0.286334 0.0103794 0)
(-0.290807 0.0104017 0)
(-0.295289 0.0104177 0)
(-0.299779 0.0104274 0)
(-0.304274 0.0104308 0)
(-0.30877 0.010428 0)
(-0.313265 0.010419 0)
(-0.317757 0.0104036 0)
(-0.322241 0.010382 0)
(-0.326715 0.010354 0)
(-0.331176 0.0103195 0)
(-0.335621 0.0102787 0)
(-0.340047 0.0102313 0)
(-0.344451 0.0101775 0)
(-0.348829 0.0101171 0)
(-0.353178 0.0100502 0)
(-0.357495 0.00997684 0)
(-0.361778 0.00989695 0)
(-0.366022 0.00981064 0)
(-0.370225 0.00971798 0)
(-0.374384 0.00961903 0)
(-0.378495 0.00951394 0)
(-0.382555 0.00940284 0)
(-0.386561 0.00928581 0)
(-0.390511 0.00916294 0)
(-0.394401 0.00903437 0)
(-0.398228 0.00890023 0)
(-0.40199 0.00876066 0)
(-0.405683 0.00861573 0)
(-0.409306 0.00846554 0)
(-0.412855 0.00831017 0)
(-0.416328 0.00814972 0)
(-0.419722 0.00798426 0)
(-0.423035 0.00781384 0)
(-0.426263 0.00763845 0)
(-0.429405 0.007458 0)
(-0.432457 0.00727234 0)
(-0.435417 0.00708113 0)
(-0.438281 0.00688385 0)
(-0.441047 0.00667977 0)
(-0.443712 0.00646831 0)
(-0.446273 0.00624965 0)
(-0.448727 0.00602543 0)
(-0.451072 0.00579901 0)
(-0.453304 0.00557511 0)
(-0.455418 0.00535857 0)
(-0.457408 0.00515305 0)
(-0.459269 0.0049599 0)
(-0.460998 0.00477784 0)
(-0.462591 0.00460339 0)
(-0.464052 0.00443202 0)
(-0.465385 0.00425945 0)
(-0.466597 0.00408268 0)
(-0.467694 0.00390037 0)
(-0.468682 0.00371261 0)
(-0.469563 0.00352043 0)
(-0.47034 0.00332517 0)
(-0.471013 0.00312805 0)
(-0.471583 0.00293015 0)
(-0.472049 0.00273251 0)
(-0.47241 0.00253627 0)
(-0.472668 0.00234267 0)
(-0.472819 0.00215261 0)
(-0.472863 0.00196624 0)
(-0.472797 0.00178282 0)
(-0.472622 0.00160098 0)
(-0.472338 0.00141925 0)
(-0.471946 0.00123643 0)
(-0.47145 0.0010517 0)
(-0.470853 0.000864223 0)
(-0.470159 0.00067377 0)
(-0.469379 0.000484683 0)
(-0.468507 0.000297838 0)
(-0.467542 0.000109832 0)
(-0.46649 -8.05109e-05 0)
(-0.465355 -0.000274086 0)
(-0.464142 -0.000471914 0)
(-0.462855 -0.000675237 0)
(-0.461502 -0.000886041 0)
(-0.460093 -0.00110814 0)
(-0.458641 -0.00134411 0)
(-0.457165 -0.00158667 0)
(-0.455662 -0.0018258 0)
(-0.45413 -0.00205575 0)
(-0.452564 -0.00227367 0)
(-0.450958 -0.00247866 0)
(-0.449305 -0.00267118 0)
(-0.4476 -0.00285261 0)
(-0.445838 -0.00302485 0)
(-0.444017 -0.00318995 0)
(-0.442136 -0.00334977 0)
(-0.440192 -0.00350585 0)
(-0.438188 -0.00365945 0)
(-0.436121 -0.00381172 0)
(-0.433995 -0.00396374 0)
(-0.431809 -0.00411672 0)
(-0.429563 -0.00427196 0)
(-0.42726 -0.00443102 0)
(-0.4249 -0.00459561 0)
(-0.422485 -0.00476766 0)
(-0.420018 -0.00494905 0)
(-0.417502 -0.00514139 0)
(-0.414943 -0.0053454 0)
(-0.412348 -0.00556033 0)
(-0.409725 -0.0057834 0)
(-0.407081 -0.00600972 0)
(-0.404422 -0.00623259 0)
(-0.401749 -0.00644454 0)
(-0.399062 -0.00663849 0)
(-0.396356 -0.00680905 0)
(-0.393627 -0.00695345 0)
(-0.390865 -0.00707203 0)
(-0.388064 -0.0071681 0)
(-0.38522 -0.00724737 0)
(-0.382328 -0.00731687 0)
(-0.379388 -0.00738366 0)
(-0.376402 -0.00745348 0)
(-0.37337 -0.00753 0)
(-0.370297 -0.00761461 0)
(-0.367185 -0.0077067 0)
(-0.364034 -0.00780443 0)
(-0.360849 -0.00790544 0)
(-0.357629 -0.00800756 0)
(-0.354377 -0.00810912 0)
(-0.351095 -0.00820909 0)
(-0.347785 -0.0083069 0)
(-0.344449 -0.00840225 0)
(-0.34109 -0.0084949 0)
(-0.337709 -0.00858457 0)
(-0.33431 -0.00867084 0)
(-0.330894 -0.00875328 0)
(-0.327463 -0.00883149 0)
(-0.32402 -0.00890517 0)
(-0.320565 -0.00897412 0)
(-0.317102 -0.00903824 0)
(-0.313632 -0.00909744 0)
(-0.310156 -0.00915169 0)
(-0.306676 -0.00920098 0)
(-0.303193 -0.00924532 0)
(-0.29971 -0.00928469 0)
(-0.296226 -0.00931912 0)
(-0.292744 -0.00934859 0)
(-0.289264 -0.00937306 0)
(-0.285788 -0.00939253 0)
(-0.282314 -0.009407 0)
(-0.278845 -0.0094165 0)
(-0.27538 -0.00942101 0)
(-0.27192 -0.00942055 0)
(-0.268463 -0.00941511 0)
(-0.265011 -0.00940466 0)
(-0.261562 -0.00938913 0)
(-0.258114 -0.00936838 0)
(-0.254668 -0.00934217 0)
(-0.25122 -0.00931021 0)
(-0.247768 -0.00927219 0)
(-0.24431 -0.00922777 0)
(-0.240842 -0.00917663 0)
(-0.23736 -0.00911841 0)
(-0.233861 -0.00905279 0)
(-0.230341 -0.00897959 0)
(-0.226795 -0.00889911 0)
(-0.223221 -0.00881231 0)
(-0.219619 -0.00872089 0)
(-0.21599 -0.0086268 0)
(-0.212341 -0.00853144 0)
(-0.208677 -0.00843472 0)
(-0.205004 -0.00833473 0)
(-0.201327 -0.00822806 0)
(-0.197646 -0.00811082 0)
(-0.19396 -0.00797959 0)
(-0.190265 -0.0078319 0)
(-0.186561 -0.0076661 0)
(-0.182843 -0.00748085 0)
(-0.17911 -0.00727465 0)
(-0.175361 -0.00704567 0)
(-0.171596 -0.00679193 0)
(-0.167815 -0.00651159 0)
(-0.16402 -0.00620331 0)
(-0.160214 -0.00586673 0)
(-0.156403 -0.0055029 0)
(-0.152594 -0.00511463 0)
(-0.148795 -0.00470677 0)
(-0.145018 -0.00428629 0)
(-0.141273 -0.00386247 0)
(-0.137571 -0.00344685 0)
(-0.133919 -0.00305321 0)
(-0.130325 -0.00269727 0)
(-0.126795 -0.00239634 0)
(-0.12333 -0.00216989 0)
(-0.119931 -0.00203933 0)
(-0.116603 -0.0020238 0)
(-0.113356 -0.00213439 0)
(-0.110203 -0.00237103 0)
(-0.10716 -0.00272085 0)
(-0.104244 -0.00315864 0)
(-0.10146 -0.00364974 0)
(-0.0988 -0.00415432 0)
(-0.0962351 -0.00463261 0)
(-0.0937224 -0.00505027 0)
(-0.0912159 -0.00538284 0)
(-0.0886791 -0.00561831 0)
(-0.0860934 -0.0057581 0)
(-0.0834611 -0.00581636 0)
(-0.0808014 -0.00581749 0)
(-0.0781423 -0.00579148 0)
(-0.0755124 -0.00576754 0)
(-0.0729335 -0.00576754 0)
(-0.0704165 -0.00580143 0)
(-0.0679623 -0.00586696 0)
(-0.0655649 -0.0059546 0)
(-0.0632136 -0.00605434 0)
(-0.0608967 -0.0061593 0)
(-0.0586045 -0.00626616 0)
(-0.0563304 -0.00637362 0)
(-0.0540709 -0.00648037 0)
(-0.0518249 -0.00658401 0)
(-0.0495931 -0.00668086 0)
(-0.0473775 -0.0067676 0)
(-0.0451811 -0.00684297 0)
(-0.0430073 -0.00690748 0)
(-0.0408592 -0.00696304 0)
(-0.0387394 -0.00701212 0)
(-0.0366508 -0.00705607 0)
(-0.034597 -0.00709466 0)
(-0.0325808 -0.00712774 0)
(-0.0306058 -0.00715504 0)
(-0.0286774 -0.00717589 0)
(-0.0267987 -0.00719122 0)
(-0.0249717 -0.00720203 0)
(-0.0232023 -0.00720817 0)
(-0.0214948 -0.00721089 0)
(-0.0198517 -0.00721124 0)
(-0.018276 -0.00721064 0)
(-0.016769 -0.00721053 0)
(-0.0153317 -0.00721173 0)
(-0.0139647 -0.0072147 0)
(-0.0126674 -0.00722001 0)
(-0.0114387 -0.00722732 0)
(-0.0102759 -0.00723657 0)
(-0.00917628 -0.0072484 0)
(-0.00813753 -0.00726222 0)
(-0.00715346 -0.00727877 0)
(-0.00621805 -0.00729742 0)
(-0.00532321 -0.00731821 0)
(-0.0044595 -0.00734044 0)
(-0.00361497 -0.00735915 0)
(-0.00285436 -0.00736246 0)
(-0.00207474 -0.00753854 0)
(-0.00145205 -0.00799171 0)
(-0.000184147 -0.00682357 0)
(-0.00247672 0.0106405 0)
(-0.00337698 0.00376935 0)
(-0.00449628 0.00512876 0)
(-0.00629924 0.00686577 0)
(-0.00834939 0.00752466 0)
(-0.010509 0.00753557 0)
(-0.0125852 0.00739031 0)
(-0.0146161 0.00727342 0)
(-0.016613 0.00719207 0)
(-0.018587 0.00711916 0)
(-0.0205369 0.00704253 0)
(-0.0224611 0.00696283 0)
(-0.0243594 0.006884 0)
(-0.0262326 0.00680926 0)
(-0.0280819 0.00674094 0)
(-0.0299092 0.00668103 0)
(-0.0317169 0.00663123 0)
(-0.0335076 0.00659298 0)
(-0.0352837 0.00656754 0)
(-0.0370483 0.00655592 0)
(-0.0388046 0.00655886 0)
(-0.0405556 0.00657678 0)
(-0.0423039 0.00660984 0)
(-0.0440526 0.00665789 0)
(-0.0458046 0.00672057 0)
(-0.0475621 0.00679735 0)
(-0.0493277 0.00688749 0)
(-0.0511037 0.00699005 0)
(-0.0528921 0.00710404 0)
(-0.0546946 0.00722846 0)
(-0.0565129 0.00736224 0)
(-0.0583488 0.00750423 0)
(-0.0602038 0.00765323 0)
(-0.0620792 0.00780807 0)
(-0.0639764 0.00796772 0)
(-0.0658966 0.00813133 0)
(-0.0678407 0.00829836 0)
(-0.0698097 0.00846859 0)
(-0.0718043 0.00864204 0)
(-0.0738251 0.00881871 0)
(-0.0758729 0.00899825 0)
(-0.0779488 0.00917977 0)
(-0.080054 0.00936196 0)
(-0.0821901 0.00954338 0)
(-0.0843587 0.00972286 0)
(-0.0865616 0.00989962 0)
(-0.0888004 0.0100733 0)
(-0.0910764 0.0102436 0)
(-0.0933907 0.0104106 0)
(-0.0957441 0.0105744 0)
(-0.0981373 0.0107357 0)
(-0.100571 0.0108956 0)
(-0.103048 0.0110554 0)
(-0.105571 0.0112167 0)
(-0.108145 0.0113805 0)
(-0.110775 0.0115474 0)
(-0.113467 0.0117172 0)
(-0.116223 0.0118887 0)
(-0.119046 0.0120607 0)
(-0.121933 0.0122315 0)
(-0.124881 0.0124 0)
(-0.127887 0.0125659 0)
(-0.130944 0.0127294 0)
(-0.134051 0.0128912 0)
(-0.137203 0.0130519 0)
(-0.1404 0.0132119 0)
(-0.14364 0.0133714 0)
(-0.146922 0.0135306 0)
(-0.150247 0.0136896 0)
(-0.153614 0.0138484 0)
(-0.157022 0.0140071 0)
(-0.160472 0.0141657 0)
(-0.163963 0.0143239 0)
(-0.167496 0.0144816 0)
(-0.171071 0.0146383 0)
(-0.174686 0.0147937 0)
(-0.178341 0.0149476 0)
(-0.182037 0.0150997 0)
(-0.185772 0.0152501 0)
(-0.189546 0.0153983 0)
(-0.19336 0.0155439 0)
(-0.197212 0.015686 0)
(-0.201103 0.0158236 0)
(-0.205032 0.0159559 0)
(-0.208999 0.0160825 0)
(-0.213002 0.0162034 0)
(-0.21704 0.0163195 0)
(-0.221112 0.0164319 0)
(-0.225216 0.0165421 0)
(-0.229349 0.0166511 0)
(-0.233511 0.0167594 0)
(-0.237698 0.0168669 0)
(-0.24191 0.0169726 0)
(-0.246145 0.0170752 0)
(-0.250402 0.0171731 0)
(-0.254677 0.0172649 0)
(-0.258971 0.0173495 0)
(-0.263282 0.0174256 0)
(-0.267606 0.0174928 0)
(-0.271944 0.0175503 0)
(-0.276293 0.0175979 0)
(-0.28065 0.0176353 0)
(-0.285014 0.0176623 0)
(-0.289382 0.0176787 0)
(-0.293752 0.0176844 0)
(-0.298122 0.0176793 0)
(-0.302488 0.0176634 0)
(-0.306849 0.0176364 0)
(-0.311202 0.0175984 0)
(-0.315544 0.0175492 0)
(-0.319872 0.0174888 0)
(-0.324184 0.017417 0)
(-0.328476 0.0173338 0)
(-0.332746 0.0172392 0)
(-0.336992 0.0171331 0)
(-0.34121 0.0170156 0)
(-0.345397 0.0168866 0)
(-0.349551 0.0167462 0)
(-0.353669 0.0165945 0)
(-0.357748 0.0164315 0)
(-0.361786 0.0162576 0)
(-0.365779 0.0160727 0)
(-0.369725 0.015877 0)
(-0.373621 0.0156708 0)
(-0.377465 0.0154543 0)
(-0.381254 0.0152276 0)
(-0.384985 0.0149911 0)
(-0.388657 0.0147449 0)
(-0.392266 0.0144894 0)
(-0.395811 0.0142246 0)
(-0.399289 0.013951 0)
(-0.402699 0.0136686 0)
(-0.406038 0.0133776 0)
(-0.409304 0.0130783 0)
(-0.412495 0.0127708 0)
(-0.415611 0.0124551 0)
(-0.418649 0.0121315 0)
(-0.421608 0.0117999 0)
(-0.424488 0.0114605 0)
(-0.427287 0.0111132 0)
(-0.430005 0.0107579 0)
(-0.432643 0.0103939 0)
(-0.4352 0.0100203 0)
(-0.437676 0.00963671 0)
(-0.440068 0.00924494 0)
(-0.442376 0.00884961 0)
(-0.444594 0.00845783 0)
(-0.446719 0.00807696 0)
(-0.44875 0.00771161 0)
(-0.450683 0.00736167 0)
(-0.45252 0.00702245 0)
(-0.454261 0.00668704 0)
(-0.455907 0.0063492 0)
(-0.457458 0.00600529 0)
(-0.458916 0.00565455 0)
(-0.460279 0.00529817 0)
(-0.461548 0.00493796 0)
(-0.462721 0.00457542 0)
(-0.463798 0.00421139 0)
(-0.46478 0.00384607 0)
(-0.465665 0.0034793 0)
(-0.466454 0.00311085 0)
(-0.467144 0.00274074 0)
(-0.467737 0.00236947 0)
(-0.468231 0.00199799 0)
(-0.468627 0.00162734 0)
(-0.468924 0.00125837 0)
(-0.469125 0.000891534 0)
(-0.46923 0.000527062 0)
(-0.469239 0.000165497 0)
(-0.469143 -0.000193666 0)
(-0.468942 -0.000555039 0)
(-0.468649 -0.000912038 0)
(-0.468267 -0.00126638 0)
(-0.467794 -0.00161854 0)
(-0.467228 -0.00196852 0)
(-0.466572 -0.00231587 0)
(-0.465828 -0.00265961 0)
(-0.464997 -0.00299763 0)
(-0.464083 -0.00332548 0)
(-0.463086 -0.00363881 0)
(-0.462008 -0.00394113 0)
(-0.460852 -0.00423854 0)
(-0.459618 -0.00453373 0)
(-0.458305 -0.00482756 0)
(-0.456914 -0.00511996 0)
(-0.455442 -0.00541046 0)
(-0.453891 -0.0056984 0)
(-0.452259 -0.00598312 0)
(-0.450547 -0.00626403 0)
(-0.448755 -0.00654083 0)
(-0.446886 -0.00681347 0)
(-0.44494 -0.00708222 0)
(-0.44292 -0.00734761 0)
(-0.440826 -0.00761041 0)
(-0.438663 -0.00787153 0)
(-0.43643 -0.00813203 0)
(-0.434132 -0.00839308 0)
(-0.431771 -0.00865596 0)
(-0.42935 -0.00892185 0)
(-0.426874 -0.0091916 0)
(-0.424346 -0.0094653 0)
(-0.421772 -0.00974181 0)
(-0.419155 -0.0100185 0)
(-0.416501 -0.0102911 0)
(-0.413813 -0.0105542 0)
(-0.411095 -0.0108022 0)
(-0.408347 -0.0110302 0)
(-0.405571 -0.0112352 0)
(-0.402765 -0.0114169 0)
(-0.399927 -0.0115782 0)
(-0.397054 -0.0117245 0)
(-0.394141 -0.0118624 0)
(-0.391187 -0.0119985 0)
(-0.388188 -0.012138 0)
(-0.385144 -0.0122836 0)
(-0.382057 -0.0124359 0)
(-0.378927 -0.0125936 0)
(-0.375758 -0.0127543 0)
(-0.372552 -0.0129153 0)
(-0.369314 -0.0130744 0)
(-0.366045 -0.0132301 0)
(-0.362749 -0.0133814 0)
(-0.359427 -0.0135278 0)
(-0.356081 -0.0136688 0)
(-0.352712 -0.0138042 0)
(-0.349324 -0.0139333 0)
(-0.345917 -0.0140557 0)
(-0.342494 -0.014171 0)
(-0.339056 -0.0142788 0)
(-0.335605 -0.0143789 0)
(-0.332144 -0.014471 0)
(-0.328674 -0.0145552 0)
(-0.325196 -0.0146315 0)
(-0.321712 -0.0147 0)
(-0.318224 -0.0147607 0)
(-0.314733 -0.0148138 0)
(-0.311241 -0.0148594 0)
(-0.307749 -0.0148977 0)
(-0.304259 -0.0149288 0)
(-0.300771 -0.0149529 0)
(-0.297289 -0.0149701 0)
(-0.293812 -0.0149808 0)
(-0.290342 -0.014985 0)
(-0.28688 -0.0149832 0)
(-0.283427 -0.0149756 0)
(-0.279985 -0.0149625 0)
(-0.276553 -0.014944 0)
(-0.273133 -0.0149206 0)
(-0.269726 -0.0148925 0)
(-0.266332 -0.0148601 0)
(-0.262952 -0.0148237 0)
(-0.259585 -0.0147838 0)
(-0.256233 -0.014741 0)
(-0.252894 -0.0146958 0)
(-0.249569 -0.0146487 0)
(-0.246257 -0.0146001 0)
(-0.242957 -0.0145506 0)
(-0.239668 -0.0145005 0)
(-0.236389 -0.0144503 0)
(-0.233119 -0.0143997 0)
(-0.229857 -0.0143479 0)
(-0.226601 -0.0142927 0)
(-0.223352 -0.0142317 0)
(-0.22011 -0.0141623 0)
(-0.216876 -0.0140834 0)
(-0.213649 -0.0139949 0)
(-0.21043 -0.013898 0)
(-0.207217 -0.0137942 0)
(-0.204008 -0.0136843 0)
(-0.200798 -0.0135684 0)
(-0.197584 -0.0134454 0)
(-0.194361 -0.0133139 0)
(-0.191124 -0.013172 0)
(-0.187868 -0.0130179 0)
(-0.184587 -0.0128497 0)
(-0.181273 -0.0126652 0)
(-0.17792 -0.0124625 0)
(-0.174519 -0.0122395 0)
(-0.171064 -0.0119948 0)
(-0.167547 -0.011728 0)
(-0.163964 -0.01144 0)
(-0.160311 -0.011134 0)
(-0.156588 -0.0108159 0)
(-0.152797 -0.0104946 0)
(-0.148947 -0.0101823 0)
(-0.145048 -0.00989326 0)
(-0.141119 -0.00964231 0)
(-0.137183 -0.00944257 0)
(-0.13327 -0.00930422 0)
(-0.129404 -0.00923275 0)
(-0.125612 -0.00922838 0)
(-0.12192 -0.009288 0)
(-0.118354 -0.00940546 0)
(-0.114927 -0.00956883 0)
(-0.111648 -0.00975902 0)
(-0.10851 -0.0099529 0)
(-0.105497 -0.0101293 0)
(-0.102585 -0.0102748 0)
(-0.0997443 -0.0103851 0)
(-0.0969442 -0.0104623 0)
(-0.0941599 -0.0105102 0)
(-0.0913741 -0.0105311 0)
(-0.0885794 -0.0105264 0)
(-0.085778 -0.010499 0)
(-0.0829811 -0.010455 0)
(-0.0802042 -0.0104035 0)
(-0.077461 -0.0103551 0)
(-0.0747596 -0.0103206 0)
(-0.0721024 -0.0103078 0)
(-0.0694866 -0.0103197 0)
(-0.0669064 -0.0103538 0)
(-0.0643567 -0.0104037 0)
(-0.0618347 -0.0104612 0)
(-0.0593392 -0.0105187 0)
(-0.0568707 -0.0105703 0)
(-0.054429 -0.0106123 0)
(-0.0520137 -0.010643 0)
(-0.0496237 -0.0106619 0)
(-0.0472583 -0.0106695 0)
(-0.0449178 -0.0106662 0)
(-0.0426035 -0.0106524 0)
(-0.0403169 -0.0106277 0)
(-0.0380604 -0.0105911 0)
(-0.0358372 -0.0105423 0)
(-0.0336506 -0.0104808 0)
(-0.0315044 -0.0104062 0)
(-0.0294014 -0.0103178 0)
(-0.0273441 -0.0102155 0)
(-0.0253384 -0.0101003 0)
(-0.0233894 -0.00997223 0)
(-0.0215015 -0.00983257 0)
(-0.0196803 -0.00968397 0)
(-0.0179301 -0.00952897 0)
(-0.0162553 -0.00936897 0)
(-0.0146611 -0.00920709 0)
(-0.0131518 -0.00904508 0)
(-0.0117297 -0.00888468 0)
(-0.0103955 -0.0087279 0)
(-0.00915018 -0.00857745 0)
(-0.00799377 -0.0084357 0)
(-0.00692296 -0.00830492 0)
(-0.00593419 -0.00818701 0)
(-0.00502159 -0.00808676 0)
(-0.00418007 -0.00800877 0)
(-0.00339619 -0.0079414 0)
(-0.00273527 -0.00787262 0)
(-0.00195587 -0.00806551 0)
(-0.00118608 -0.00888763 0)
(0.000188352 -0.00709001 0)
(-0.00236685 0.0151036 0)
(-0.00315323 0.0052247 0)
(-0.00403184 0.00709876 0)
(-0.00558659 0.00961617 0)
(-0.00738763 0.0106116 0)
(-0.0093228 0.0106355 0)
(-0.0111826 0.0104084 0)
(-0.0129984 0.0102194 0)
(-0.0147777 0.0100888 0)
(-0.0165322 0.00997588 0)
(-0.018262 0.00985924 0)
(-0.0199658 0.00973819 0)
(-0.0216436 0.00961834 0)
(-0.0232965 0.00950473 0)
(-0.0249262 0.00940098 0)
(-0.0265352 0.00930971 0)
(-0.0281268 0.00923327 0)
(-0.0297045 0.00917382 0)
(-0.0312718 0.009133 0)
(-0.0328329 0.00911206 0)
(-0.0343921 0.00911201 0)
(-0.0359539 0.00913331 0)
(-0.0375223 0.00917601 0)
(-0.0391019 0.0092399 0)
(-0.0406966 0.00932445 0)
(-0.0423101 0.0094288 0)
(-0.0439461 0.00955185 0)
(-0.045608 0.00969241 0)
(-0.0472988 0.00984919 0)
(-0.0490213 0.0100208 0)
(-0.0507777 0.0102057 0)
(-0.0525703 0.0104025 0)
(-0.0544009 0.0106098 0)
(-0.0562712 0.0108263 0)
(-0.0581827 0.0110507 0)
(-0.0601365 0.0112818 0)
(-0.0621336 0.011519 0)
(-0.0641747 0.0117615 0)
(-0.0662604 0.012009 0)
(-0.0683905 0.012261 0)
(-0.0705647 0.0125168 0)
(-0.0727825 0.0127754 0)
(-0.0750434 0.0130354 0)
(-0.0773469 0.0132959 0)
(-0.0796926 0.0135557 0)
(-0.0820805 0.0138145 0)
(-0.0845105 0.0140719 0)
(-0.0869826 0.0143278 0)
(-0.0894969 0.0145822 0)
(-0.0920533 0.0148351 0)
(-0.0946521 0.0150866 0)
(-0.0972929 0.0153367 0)
(-0.0999755 0.0155854 0)
(-0.102699 0.015832 0)
(-0.105462 0.0160759 0)
(-0.108264 0.0163156 0)
(-0.111104 0.0165499 0)
(-0.11398 0.0167781 0)
(-0.116893 0.0169997 0)
(-0.119842 0.0172157 0)
(-0.12283 0.0174274 0)
(-0.125856 0.0176366 0)
(-0.128923 0.0178451 0)
(-0.132029 0.0180543 0)
(-0.135175 0.018265 0)
(-0.138361 0.0184776 0)
(-0.141587 0.0186921 0)
(-0.144852 0.0189082 0)
(-0.148156 0.0191258 0)
(-0.1515 0.0193447 0)
(-0.154883 0.0195644 0)
(-0.158304 0.0197846 0)
(-0.161764 0.0200052 0)
(-0.165264 0.0202258 0)
(-0.168802 0.0204459 0)
(-0.172378 0.0206653 0)
(-0.175994 0.0208835 0)
(-0.179648 0.0211 0)
(-0.183341 0.0213143 0)
(-0.187071 0.0215259 0)
(-0.19084 0.0217341 0)
(-0.194645 0.0219384 0)
(-0.198488 0.0221381 0)
(-0.202368 0.0223328 0)
(-0.206285 0.022522 0)
(-0.210239 0.0227055 0)
(-0.21423 0.0228834 0)
(-0.218256 0.0230558 0)
(-0.222318 0.0232227 0)
(-0.226413 0.0233843 0)
(-0.230538 0.0235403 0)
(-0.234693 0.0236902 0)
(-0.238873 0.0238335 0)
(-0.243078 0.0239691 0)
(-0.247305 0.0240963 0)
(-0.251552 0.0242142 0)
(-0.255817 0.0243218 0)
(-0.260099 0.0244184 0)
(-0.264395 0.0245034 0)
(-0.268705 0.0245762 0)