/*--------------------------------*- C++ -*----------------------------------*\
| =========                 |                                                 |
| \\      /  F ield         | OpenFOAM: The Open Source CFD Toolbox           |
|  \\    /   O peration     | Version:  v2006                                 |
|   \\  /    A nd           | Website:  www.openfoam.com                      |
|    \\/     M anipulation  |                                                 |
\*---------------------------------------------------------------------------*/
FoamFile
{
    version     2.0;
    format      ascii;
    class       surfaceScalarField;
    location    "2.2";
    object      alphaPhi0.water;
}
// * * * * * * * * * * * * * * * * * * * * * * * * * * * * * * * * * * * * * //

dimensions      [0 3 -1 0 0 0 0];
oriented        oriented;


internalField   nonuniform List<scalar> 
299200
(
0.00119828
-0.00119828
0.00266107
-0.00146279
0.00402473
-0.00136366
0.00537678
-0.00135204
0.00669877
-0.00132199
0.00803342
-0.00133465
0.00934591
-0.00131249
0.0106584
-0.00131245
0.0119573
-0.00129897
0.0132444
-0.00128708
0.01452
-0.00127554
0.0157813
-0.00126131
0.0170277
-0.00124641
0.0182583
-0.00123058
0.0194717
-0.00121343
0.0206669
-0.00119525
0.0218431
-0.00117613
0.022999
-0.00115598
0.0241338
-0.00113477
0.0252464
-0.00111262
0.026336
-0.00108959
0.0274016
-0.00106562
0.0284425
-0.00104081
0.0294577
-0.00101522
0.0304465
-0.000988801
0.0314081
-0.000961621
0.0323418
-0.000933699
0.0332469
-0.000905107
0.0341228
-0.000875928
0.034969
-0.000846176
0.0357849
-0.000815884
0.03657
-0.000785121
0.037324
-0.000753954
0.0380464
-0.000722411
0.0387369
-0.000690524
0.0393953
-0.00065836
0.0400213
-0.000626
0.0406148
-0.000593508
0.0411757
-0.000560946
0.041704
-0.000528313
0.0421994
-0.000495424
0.0426613
-0.000461888
0.0430892
-0.000427858
0.0434848
-0.000395575
0.0438542
-0.000369413
0.0442067
-0.000352479
0.0445494
-0.000342731
0.0448829
-0.00033349
0.0452012
-0.000318309
0.0454963
-0.000295062
0.045762
-0.000265767
0.0459957
-0.00023372
0.0461969
-0.000201174
0.0463658
-0.000168897
0.0465026
-0.00013678
0.046607
-0.000104358
0.0466781
-7.11263e-05
0.0467126
-3.45501e-05
0.0467062
6.40528e-06
0.0466568
4.94232e-05
0.046572
8.47654e-05
0.0464567
0.000115356
0.0463131
0.000143599
0.0461425
0.000170588
0.0459459
0.00019663
0.0457241
0.000221789
0.045478
0.000246055
0.0452086
0.000269403
0.0449168
0.000291811
0.0446035
0.000313257
0.0442698
0.000333723
0.0439166
0.000353191
0.043545
0.000371646
0.0431559
0.000389075
0.0427504
0.000405468
0.0423296
0.000420815
0.0418945
0.00043511
0.0414462
0.00044835
0.0409856
0.000460536
0.040514
0.000471669
0.0400322
0.000481752
0.0395414
0.000490796
0.0390426
0.00049881
0.0385368
0.000505809
0.038025
0.000511807
0.0375082
0.000516823
0.0369873
0.000520878
0.0364633
0.000523997
0.0359371
0.00052621
0.0354095
0.000527548
0.0348815
0.000528045
0.0343538
0.000527737
0.0338271
0.000526667
0.0333022
0.000524877
0.0327798
0.000522417
0.0322605
0.000519338
0.0317448
0.000515691
0.0312332
0.000511526
0.0307263
0.0005069
0.0302245
0.000501867
0.029728
0.000496485
0.0292372
0.000490811
0.0287523
0.0004849
0.0282735
0.000478808
0.0278009
0.000472586
0.0273346
0.000466282
0.0268747
0.000459944
0.026421
0.000453613
0.0259737
0.000447323
0.0255326
0.000441104
0.0250976
0.000434983
0.0246687
0.000428976
0.0242456
0.000423095
0.0238282
0.000417344
0.0234165
0.000411723
0.0230103
0.000406226
0.0226094
0.00040084
0.0222139
0.000395547
0.0218236
0.000390325
0.0214384
0.000385149
0.0210584
0.000379992
0.0206836
0.000374825
0.020314
0.00036962
0.0199496
0.000364349
0.0195906
0.000358986
0.0192371
0.000353505
0.0188892
0.000347885
0.0185471
0.000342116
0.0182109
0.000336184
0.0178809
0.000330084
0.017557
0.000323818
0.0172397
0.000317392
0.0169288
0.00031082
0.0166247
0.000304121
0.0163274
0.000297312
0.016037
0.000290409
0.0157536
0.000283422
0.0154772
0.000276351
0.015208
0.00026918
0.0149462
0.000261876
0.0146918
0.000254394
0.0144451
0.000246693
0.0142063
0.000238736
0.0139758
0.000230496
0.0137539
0.000221957
0.0135408
0.000213124
0.0133367
0.000204014
0.0131421
0.000194657
0.012957
0.000185089
0.0127816
0.000175347
0.0126162
0.000165474
0.0124607
0.000155511
0.0123152
0.000145499
0.0121797
0.000135478
0.0120542
0.000125487
0.0119386
0.000115563
0.0118329
0.000105742
0.0117368
9.60584e-05
0.0116503
8.65413e-05
0.0115731
7.72198e-05
0.011505
6.81195e-05
0.0114457
5.92642e-05
0.011395
5.06764e-05
0.0113526
4.23768e-05
0.0113183
3.43839e-05
0.0112915
2.67133e-05
0.0112722
1.9378e-05
0.0112598
1.23922e-05
0.011254
5.80163e-06
0.0112539
2.80595e-08
0.0112598
-5.83966e-06
0.0112711
-1.12805e-05
0.0112873
-1.62699e-05
0.0113082
-2.08768e-05
0.0113331
-2.48641e-05
0.0113615
-2.8476e-05
0.0113932
-3.16724e-05
0.0114277
-3.44312e-05
0.0114644
-3.67385e-05
0.011503
-3.85827e-05
0.0115429
-3.9952e-05
0.0115838
-4.08299e-05
0.011625
-4.11976e-05
0.011666
-4.10344e-05
0.0117063
-4.03097e-05
0.0117453
-3.89979e-05
0.0117823
-3.70426e-05
0.0118167
-3.43537e-05
0.0118479
-3.12245e-05
0.0118764
-2.8513e-05
0.0119032
-2.67469e-05
0.0119289
-2.57141e-05
0.0119538
-2.49609e-05
0.011978
-2.41892e-05
0.0120013
-2.32994e-05
0.0120236
-2.22899e-05
0.0120448
-2.1179e-05
0.0120648
-1.99814e-05
0.0120835
-1.87091e-05
0.0121009
-1.7375e-05
0.0121169
-1.59925e-05
0.0121314
-1.4575e-05
0.0121446
-1.31358e-05
0.0121563
-1.1688e-05
0.0121665
-1.02441e-05
0.0121753
-8.81632e-06
0.0121827
-7.41621e-06
0.0121888
-6.05477e-06
0.0121935
-4.74244e-06
0.012197
-3.48906e-06
0.0121993
-2.30375e-06
0.0122005
-1.19458e-06
0.0122007
-1.67865e-07
0.0121999
7.72354e-07
0.0121983
1.62791e-06
0.0121959
2.3871e-06
0.0121929
3.03763e-06
0.0121893
3.56842e-06
0.0121853
3.95377e-06
0.0121812
4.17943e-06
0.0121769
4.27132e-06
0.0121725
4.3636e-06
0.0121678
4.75687e-06
0.012162
5.76799e-06
0.0121538
8.18316e-06
0.0121411
1.26845e-05
0.0121213
1.98851e-05
0.0120912
3.00617e-05
0.0120481
4.31107e-05
0.0119898
5.82996e-05
0.0119158
7.3935e-05
0.0118274
8.84536e-05
0.0117272
0.000100165
0.0116193
0.000107948
0.0115077
0.000111539
0.0113965
0.000111266
0.0112881
0.000108378
0.0111845
0.000103569
0.0110868
9.77312e-05
0.0109952
9.15597e-05
0.0109098
8.54128e-05
0.0108304
7.94059e-05
0.0107569
7.35178e-05
0.0106892
6.76827e-05
0.0106274
6.18436e-05
0.0105714
5.59768e-05
0.0105213
5.00895e-05
0.0104771
4.42048e-05
0.0104388
3.83511e-05
0.0104062
3.25587e-05
0.0103794
2.67802e-05
0.0103583
2.1084e-05
0.0103428
1.55385e-05
0.0103327
1.00928e-05
0.010328
4.71128e-06
0.0103289
-9.17088e-07
0.0103351
-6.21695e-06
0.0103465
-1.13713e-05
0.0103629
-1.64442e-05
0.0103844
-2.14294e-05
0.0104107
-2.63211e-05
0.0104418
-3.1116e-05
0.0104776
-3.58118e-05
0.010518
-4.04071e-05
0.0105629
-4.49001e-05
0.0106122
-4.92897e-05
0.0106658
-5.35743e-05
0.0107235
-5.77524e-05
0.0107854
-6.18221e-05
0.0108511
-6.57809e-05
0.0109208
-6.96257e-05
0.0109941
-7.33527e-05
0.0110711
-7.69581e-05
0.0111515
-8.04376e-05
0.0112353
-8.37868e-05
0.0113223
-8.70011e-05
0.0114124
-9.00752e-05
0.0115054
-9.30031e-05
0.0116012
-9.57776e-05
0.0116996
-9.83906e-05
0.0118004
-0.000100833
0.0119035
-0.000103097
0.0120087
-0.000105171
0.0121157
-0.000107048
0.0122244
-0.000108719
0.0123346
-0.000110174
0.012446
-0.000111406
0.0125584
-0.000112405
0.0126716
-0.000113163
0.0127852
-0.000113672
0.0128992
-0.000113921
0.0130131
-0.000113901
0.0131267
-0.000113598
0.0132397
-0.000112996
0.0133517
-0.000112071
0.0134625
-0.000110799
0.0135717
-0.00010915
0.0136788
-0.000107096
0.0137834
-0.000104612
0.0138851
-0.00010168
0.0139834
-9.8294e-05
0.0140778
-9.44564e-05
0.014168
-9.01831e-05
0.0142535
-8.55015e-05
0.0143339
-8.04494e-05
0.014409
-7.50739e-05
0.0144785
-6.94323e-05
0.014542
-6.35945e-05
0.0145997
-5.76485e-05
0.0146514
-5.17043e-05
0.0146973
-4.58967e-05
0.0147377
-4.03786e-05
0.014773
-3.5301e-05
0.0148038
-3.07868e-05
0.0148307
-2.69061e-05
0.0148543
-2.36585e-05
0.0148753
-2.09643e-05
0.014894
-1.86786e-05
0.0149106
-1.66331e-05
0.0149253
-1.46862e-05
0.014938
-1.27503e-05
0.0149488
-1.07859e-05
0.0149576
-8.77736e-06
0.0149643
-6.73353e-06
0.014969
-4.61992e-06
0.0149715
-2.5254e-06
0.0149717
-2.1841e-07
0.0149695
2.20849e-06
0.014965
4.51122e-06
0.0149581
6.84665e-06
0.0149489
9.21605e-06
0.0149373
1.16131e-05
0.0149233
1.40181e-05
0.0149069
1.64158e-05
0.0148881
1.87987e-05
0.0148669
2.11583e-05
0.0148434
2.35382e-05
0.0148175
2.58375e-05
0.0147894
2.8139e-05
0.014759
3.03593e-05
0.0147266
3.24868e-05
0.0146915
3.50151e-05
0.0146543
3.72195e-05
0.014615
3.93314e-05
0.0145736
4.13442e-05
0.0145305
4.31809e-05
0.0144854
4.50272e-05
0.0144386
4.68255e-05
0.0143901
4.85413e-05
0.0143399
5.01641e-05
0.0142882
5.16889e-05
0.0142351
5.31127e-05
0.0141807
5.44331e-05
0.014125
5.56475e-05
0.0140683
5.67535e-05
0.0140105
5.77488e-05
0.0139519
5.86314e-05
0.0138925
5.93998e-05
0.0138324
6.00529e-05
0.0137718
6.059e-05
0.0137108
6.10106e-05
0.0136495
6.13149e-05
0.013588
6.15034e-05
0.0135264
6.15769e-05
0.0134649
6.15367e-05
0.0134035
6.13847e-05
0.0133424
6.11229e-05
0.0132816
6.07539e-05
0.0132214
6.02806e-05
0.0131617
5.97064e-05
0.0131026
5.9035e-05
0.0130444
5.82706e-05
0.0129869
5.74178e-05
0.0129305
5.64814e-05
0.012875
5.54667e-05
0.0128206
5.43794e-05
0.0127674
5.32254e-05
0.0127154
5.20111e-05
0.0126646
5.0743e-05
0.0126152
4.94282e-05
0.0125671
4.80737e-05
0.0125204
4.66872e-05
0.0124752
4.52762e-05
0.0124313
4.38489e-05
0.0123889
4.24132e-05
0.0123479
4.09777e-05
0.0123084
3.95506e-05
0.0122702
3.81408e-05
0.0122335
3.67569e-05
0.0121981
3.54076e-05
0.012164
3.41019e-05
0.0121311
3.28486e-05
0.0120995
3.16565e-05
0.0120689
3.05344e-05
0.0120394
2.94909e-05
0.0120109
2.85346e-05
0.0119832
2.76738e-05
0.0119563
2.69168e-05
0.01193
2.62715e-05
0.0119043
2.57456e-05
0.0118789
2.53464e-05
0.0118539
2.50809e-05
0.0118289
2.49558e-05
0.0118039
2.49773e-05
0.0117788
2.51511e-05
0.0117533
2.54825e-05
0.0117273
2.59762e-05
0.0117007
2.66365e-05
0.0116732
2.7467e-05
0.0116447
2.84707e-05
0.0116151
2.96499e-05
0.0115841
3.10064e-05
0.0115515
3.25413e-05
0.0115173
3.42547e-05
0.0114811
3.61465e-05
0.0114429
3.82155e-05
0.0114025
4.04599e-05
0.0113596
4.28771e-05
0.0113141
4.54639e-05
0.0112659
4.82162e-05
0.0112148
5.11293e-05
0.0111606
5.41978e-05
0.0111032
5.74154e-05
0.0110424
6.07754e-05
0.0109781
6.42702e-05
0.0109102
6.78916e-05
0.0108386
7.16305e-05
0.0107631
7.54775e-05
0.0106837
7.94221e-05
0.0106003
8.34544e-05
0.0105127
8.75615e-05
0.0104209
9.1741e-05
0.010325
9.59676e-05
0.0102247
0.000100274
0.0101201
0.00010459
0.0100112
0.000108922
0.00989791
0.000113281
0.00978029
0.000117625
0.00965835
0.000121939
0.00953213
0.000126219
0.00940167
0.000130459
0.00926702
0.000134648
0.00912832
0.000138702
0.00898557
0.000142752
0.00883889
0.00014668
0.0086884
0.000150493
0.0085342
0.000154193
0.00837644
0.000157759
0.00821527
0.00016117
0.00805084
0.000164433
0.00788332
0.000167518
0.00771284
0.000170483
0.00753976
0.000173085
0.00736413
0.000175622
0.00718619
0.000177939
0.00700608
0.000180112
0.00682422
0.000181858
0.00664073
0.000183494
0.0064558
0.000184929
0.0062698
0.000186005
0.006083
0.0001868
0.00589578
0.000187217
0.00570872
0.000187057
0.00552241
0.000186312
0.00533714
0.000185271
0.00515297
0.00018417
0.0049699
0.000183066
0.00478813
0.000181771
0.00460783
0.000180304
0.00442904
0.000178787
0.00425185
0.000177188
0.00407639
0.000175465
0.00390286
0.000173531
0.00373132
0.000171537
0.00356183
0.000169496
0.00339445
0.000167376
0.00322937
0.000165085
0.00306655
0.000162812
0.002906
0.000160549
0.00274786
0.000158147
0.00259204
0.000155816
0.00243869
0.000153347
0.00228789
0.000150804
0.00213651
0.000151381
0.00199717
0.000139339
0.00184248
0.000154687
0.00171445
0.000128033
0.00156165
0.000152805
0.00143891
0.000122734
0.00129097
0.000147937
0.00117081
0.00012016
0.00101303
0.000157783
0.000909858
0.000103173
0.000720431
0.000189427
0.000658675
6.17563e-05
0.00048934
0.000169335
0.00043596
5.33796e-05
0.000444357
-8.39705e-06
0.000158417
0.00028594
0.000158417
0.00112495
-0.00232323
0.00239934
-0.00273717
0.00363437
-0.0025987
0.0048308
-0.00254847
0.00602851
-0.0025197
0.00721673
-0.00252287
0.0084097
-0.00250546
0.0095893
-0.00249205
0.0107674
-0.00247704
0.011936
-0.00245571
0.0130966
-0.00243619
0.0142494
-0.00241407
0.0153927
-0.00238974
0.0165261
-0.00236398
0.0176491
-0.00233641
0.0187609
-0.00230702
0.0198608
-0.00227603
0.0209483
-0.00224353
0.0220229
-0.00220935
0.0230839
-0.00217362
0.0241308
-0.00213648
0.025163
-0.00209785
0.02618
-0.00205776
0.0271811
-0.00201637
0.028166
-0.00197368
0.029134
-0.00192967
0.0300847
-0.00188438
0.0310175
-0.00183791
0.0319319
-0.00179026
0.0328272
-0.00174149
0.0337029
-0.00169162
0.0345585
-0.00164072
0.0353934
-0.00158882
0.0362069
-0.00153597
0.0369986
-0.0014822
0.0377678
-0.00142755
0.0385139
-0.00137209
0.0392362
-0.00131585
0.0399342
-0.0012589
0.0406071
-0.00120127
0.0412547
-0.001143
0.0418769
-0.00108411
0.0424738
-0.00102468
0.043043
-0.000964808
0.0435782
-0.00090458
0.0440697
-0.000843989
0.0445098
-0.00078283
0.0448972
-0.000720877
0.045237
-0.000658104
0.0455366
-0.000594692
0.0458017
-0.00053087
0.0460348
-0.000466816
0.0462363
-0.000402674
0.0464059
-0.000338546
0.0465437
-0.000274505
0.04665
-0.000210729
0.0467266
-0.000147664
0.0467776
-8.55748e-05
0.0468068
-2.27699e-05
0.0468192
3.69491e-05
0.046807
9.70327e-05
0.0467658
0.000156492
0.0466946
0.000214868
0.0465932
0.00027194
0.0464623
0.000327551
0.0463025
0.00038162
0.0461145
0.000434067
0.045899
0.000484809
0.0456571
0.000533764
0.0453895
0.000580854
0.0450972
0.000626008
0.0447812
0.000669162
0.0444426
0.000710256
0.0440825
0.000749242
0.0437019
0.000786073
0.043302
0.000820718
0.0428839
0.000853139
0.042449
0.000883322
0.0419982
0.000911252
0.041533
0.000936919
0.0410544
0.000960324
0.0405637
0.000981478
0.0400622
0.00100039
0.0395509
0.00101709
0.0390311
0.0010316
0.038504
0.00104395
0.0379706
0.0010542
0.0374323
0.00106238
0.0368899
0.00106856
0.0363446
0.0010728
0.0357975
0.00107517
0.0352495
0.00107574
0.0347016
0.00107459
0.0341546
0.00107182
0.0336095
0.00106752
0.0330671
0.0010618
0.032528
0.00105475
0.031993
0.00104651
0.0314628
0.00103717
0.0309378
0.00102687
0.0304185
0.00101572
0.0299055
0.00100385
0.029399
0.000991385
0.0288994
0.000978438
0.0284068
0.00096513
0.0279215
0.000951573
0.0274436
0.000937872
0.0269731
0.000924127
0.02651
0.000910426
0.0260542
0.000896844
0.0256058
0.000883444
0.0251645
0.000870273
0.0247302
0.000857367
0.0243028
0.000844746
0.0238821
0.000832415
0.023468
0.000820366
0.0230602
0.00080858
0.0226588
0.000797024
0.0222634
0.000785656
0.0218741
0.000774425
0.0214909
0.000763276
0.0211135
0.000752145
0.0207422
0.00074097
0.0203769
0.000729687
0.0200176
0.000718232
0.0196646
0.000706547
0.0193179
0.000694577
0.0189777
0.000682275
0.0186443
0.0006696
0.0183179
0.000656517
0.0179987
0.000643004
0.017687
0.000629046
0.0173832
0.000614634
0.0170876
0.000599771
0.0168004
0.000584466
0.0165221
0.000568734
0.0162529
0.0005526
0.0159932
0.000536091
0.0157431
0.000519242
0.0155029
0.000502088
0.0152726
0.000484667
0.0150523
0.000467017
0.0148419
0.000449179
0.0146412
0.00043119
0.01445
0.000413091
0.0142682
0.000394921
0.0140955
0.000376721
0.0139317
0.00035853
0.0137763
0.00034039
0.0136294
0.000322339
0.0134904
0.000304416
0.0133593
0.000286658
0.0132357
0.000269103
0.0131194
0.000251786
0.0130101
0.000234742
0.0129077
0.000218006
0.0128118
0.000201612
0.0127223
0.000185593
0.0126388
0.000169974
0.0125613
0.000154778
0.0124894
0.000140029
0.0124229
0.000125745
0.0123616
0.000111947
0.0123053
9.8654e-05
0.0122538
8.58858e-05
0.0122069
7.36584e-05
0.0121643
6.19876e-05
0.0121258
5.08932e-05
0.0120912
4.04088e-05
0.0120606
3.05836e-05
0.0120336
2.11382e-05
0.01201
1.23107e-05
0.0119897
4.08674e-06
0.0119728
-3.95577e-06
0.0119586
-1.0744e-05
0.0119473
-1.7121e-05
0.0119386
-2.29722e-05
0.0119324
-2.82602e-05
0.0119287
-3.30144e-05
0.0119273
-3.72319e-05
0.0119283
-4.09285e-05
0.0119316
-4.4118e-05
0.0119372
-4.68178e-05
0.0119452
-4.90409e-05
0.0119557
-5.08092e-05
0.0119689
-5.214e-05
0.0119849
-5.30415e-05
0.0120041
-5.35365e-05
0.0120265
-5.36977e-05
0.0120515
-5.3497e-05
0.0120777
-5.29272e-05
0.012104
-5.20205e-05
0.0121298
-5.07869e-05
0.0121549
-4.92549e-05
0.0121791
-4.7462e-05
0.0122022
-4.54392e-05
0.0122242
-4.32132e-05
0.0122451
-4.08102e-05
0.0122646
-3.82567e-05
0.0122828
-3.558e-05
0.0122996
-3.2807e-05
0.012315
-2.99648e-05
0.012329
-2.70801e-05
0.0123415
-2.41788e-05
0.0123525
-2.12862e-05
0.0123621
-1.84265e-05
0.0123703
-1.56231e-05
0.0123772
-1.28981e-05
0.0123827
-1.02721e-05
0.012387
-7.7644e-06
0.0123901
-5.39282e-06
0.012392
-3.1734e-06
0.012393
-1.12057e-06
0.012393
7.53205e-07
0.0123922
2.43842e-06
0.0123906
3.93311e-06
0.0123885
5.19893e-06
0.0123858
6.26773e-06
0.0123826
7.13388e-06
0.012379
7.80682e-06
0.0123749
8.30475e-06
0.0123706
8.66403e-06
0.0123665
8.92695e-06
0.0123632
9.07133e-06
0.0123622
9.17769e-06
0.0123655
9.3766e-06
0.0123757
9.71805e-06
0.0123954
1.02952e-05
0.0124274
1.11267e-05
0.0124733
1.23621e-05
0.0125338
1.34283e-05
0.0126082
1.40925e-05
0.0126943
1.4102e-05
0.0127895
1.27452e-05
0.012891
9.99253e-06
0.0129968
5.52784e-06
0.0131042
9.80476e-07
0.0132123
-4.59253e-06
0.0133208
-1.07506e-05
0.0134294
-1.70739e-05
0.0135383
-2.34417e-05
0.0136475
-2.98346e-05
0.0137573
-3.62796e-05
0.0138678
-4.28099e-05
0.0139791
-4.94423e-05
0.0140913
-5.61726e-05
0.0142043
-6.29812e-05
0.0143184
-6.98437e-05
0.0144335
-7.67379e-05
0.0145497
-8.36477e-05
0.014667
-9.05726e-05
0.0147856
-9.74914e-05
0.0149055
-0.000104381
0.0150269
-0.000111254
0.0151497
-0.000118141
0.0152739
-0.000125112
0.0153997
-0.000131999
0.0155271
-0.000138827
0.0156563
-0.000145622
0.0157873
-0.000152388
0.0159201
-0.000159122
0.0160548
-0.00016582
0.0161915
-0.000172479
0.0163301
-0.000179095
0.0164709
-0.000185665
0.0166138
-0.000192185
0.0167589
-0.000198653
0.0169062
-0.000205064
0.0170558
-0.000211415
0.0172077
-0.000217699
0.017362
-0.000223913
0.0175187
-0.00023005
0.0176778
-0.000236104
0.0178395
-0.000242069
0.0180036
-0.000247937
0.0181703
-0.000253703
0.0183396
-0.000259358
0.0185115
-0.000264894
0.018686
-0.000270301
0.0188632
-0.00027557
0.019043
-0.000280689
0.0192256
-0.000285647
0.0194109
-0.000290433
0.0195988
-0.000295037
0.0197896
-0.000299448
0.0199831
-0.000303656
0.0201793
-0.00030765
0.0203783
-0.00031142
0.0205801
-0.000314954
0.0207847
-0.000318241
0.020992
-0.000321268
0.0212021
-0.000324019
0.021415
-0.000326478
0.0216307
-0.000328623
0.021849
-0.00033043
0.0220701
-0.000331871
0.0222939
-0.000332923
0.0225203
-0.000333565
0.0227495
-0.000333782
0.0229814
-0.000333571
0.023216
-0.00033294
0.0234535
-0.000331903
0.0236938
-0.000330487
0.023937
-0.000328719
0.0241832
-0.000326633
0.0244324
-0.000324262
0.0246846
-0.000321637
0.0249398
-0.000318789
0.0251979
-0.000315749
0.0254587
-0.000312543
0.025722
-0.000309179
0.0259872
-0.00030563
0.0262538
-0.000301815
0.0265206
-0.000297599
0.0267865
-0.000292807
0.0270501
-0.000287261
0.0273099
-0.000280827
0.0275647
-0.00027346
0.0278133
-0.000265215
0.0280548
-0.00025621
0.0282887
-0.000246582
0.0285143
-0.000236448
0.0287314
-0.000225908
0.0289397
-0.000215029
0.029139
-0.000203859
0.0293289
-0.000192434
0.0295094
-0.000180717
0.0296803
-0.000168754
0.0298415
-0.000156674
0.0299928
-0.00014442
0.0301341
-0.000132069
0.0302653
-0.000119595
0.0303863
-0.000107004
0.030497
-9.43005e-05
0.0305974
-8.15344e-05
0.0306873
-6.87586e-05
0.0307666
-5.58101e-05
0.0308356
-4.31124e-05
0.030894
-3.02885e-05
0.030942
-1.76496e-05
0.0309799
-5.43253e-06
0.0310066
8.32568e-06
0.0310231
2.07464e-05
0.0310293
3.31213e-05
0.0310253
4.53339e-05
0.0310115
5.69765e-05
0.0309878
6.8755e-05
0.0309543
8.0364e-05
0.0309111
9.173e-05
0.0308584
0.000102827
0.0307965
0.000113636
0.0307254
0.000124137
0.0306456
0.000134312
0.0305571
0.000144145
0.0304602
0.000153619
0.0303552
0.000162719
0.0302424
0.000171431
0.0301221
0.000179743
0.0299945
0.000187642
0.02986
0.000195118
0.0297188
0.000202163
0.0295714
0.000208769
0.0294179
0.00021493
0.0292589
0.000220641
0.0290945
0.000225899
0.0289252
0.000230702
0.0287513
0.000235049
0.0285731
0.000238942
0.028391
0.000242382
0.0282053
0.000245373
0.0280164
0.000247921
0.0278247
0.000250031
0.0276304
0.000251711
0.0274339
0.00025297
0.0272355
0.000253819
0.0270356
0.000254268
0.0268345
0.000254332
0.0266325
0.000254022
0.0264299
0.000253355
0.026227
0.000252346
0.026024
0.000251013
0.0258214
0.000249373
0.0256192
0.000247446
0.0254178
0.00024525
0.0252174
0.000242808
0.0250182
0.000240141
0.0248205
0.00023727
0.0246244
0.000234218
0.0244302
0.000231009
0.0242379
0.000227666
0.0240478
0.000224213
0.02386
0.000220674
0.0236746
0.000217075
0.0234917
0.00021344
0.0233114
0.000209793
0.0231337
0.00020616
0.0229589
0.000202564
0.0227867
0.00019903
0.0226174
0.000195582
0.0224509
0.000192244
0.0222872
0.000189038
0.0221263
0.000185986
0.0219682
0.000183111
0.0218127
0.000180433
0.0216599
0.000177971
0.0215096
0.000175746
0.0213618
0.000173774
0.0212164
0.000172073
0.0210732
0.000170658
0.0209321
0.000169542
0.0207931
0.00016874
0.0206558
0.000168262
0.0205202
0.000168118
0.0203862
0.000168318
0.0202534
0.000168867
0.0201219
0.000169771
0.0199913
0.000171034
0.0198615
0.000172658
0.0197323
0.000174643
0.0196036
0.000176989
0.019475
0.000179692
0.0193465
0.000182749
0.0192177
0.000186154
0.0190886
0.000189898
0.0189589
0.000193974
0.0188284
0.000198371
0.018697
0.000203076
0.0185644
0.000208077
0.0184304
0.000213358
0.018295
0.000218903
0.0181578
0.000224697
0.0180189
0.000230728
0.0178779
0.000236976
0.0177347
0.00024344
0.0175892
0.000250101
0.0174412
0.00025691
0.0172906
0.000263848
0.0171374
0.000270889
0.0169813
0.000278019
0.0168223
0.000285223
0.0166602
0.000292485
0.0164951
0.000299794
0.0163267
0.000307093
0.0161551
0.000314375
0.0159801
0.000321634
0.0158018
0.000328837
0.01562
0.000335974
0.0154347
0.000343026
0.0152459
0.000349964
0.0150536
0.00035678
0.0148577
0.000363463
0.0146581
0.000369999
0.0144549
0.000376298
0.0142481
0.000382444
0.0140376
0.000388437
0.0138235
0.000394221
0.0136056
0.000399715
0.0133841
0.000404992
0.013159
0.000410102
0.0129301
0.000414903
0.0126975
0.000419379
0.0124611
0.000423567
0.0122207
0.000427451
0.0119759
0.000431173
0.0117262
0.00043496
0.0114716
0.000438804
0.0112121
0.000442563
0.0109477
0.000446155
0.0106783
0.000449684
0.0104038
0.000453264
0.0101242
0.000456857
0.00983938
0.00046024
0.00954952
0.000463391
0.00925463
0.000466423
0.00895471
0.000469422
0.00864973
0.000472353
0.00833965
0.000475162
0.00802453
0.000477934
0.00770438
0.000480705
0.00737915
0.000483373
0.00704893
0.000486041
0.00671394
0.000488329
0.00637244
0.000492305
0.00603375
0.000490075
0.00567099
0.000502098
0.00533776
0.000487921
0.00495291
0.000512884
0.00462172
0.000483992
0.00422007
0.000524382
0.00388798
0.000480024
0.00347399
0.000534156
0.00314643
0.000485337
0.00272291
0.000526697
0.00240161
0.000510726
0.00196979
0.000493571
0.00160257
0.000536564
0.00117842
0.000477529
0.000649144
0.000520876
0.00036859
0.000566495
0.000527006
0.00115894
-0.00348218
0.00249159
-0.00406982
0.00377126
-0.00387838
0.0050147
-0.00379191
0.0062538
-0.00375881
0.00748853
-0.0037576
0.00872111
-0.00373804
0.00994668
-0.00371761
0.0111647
-0.00369508
0.0123759
-0.00366685
0.0135776
-0.00363788
0.0147698
-0.00360635
0.0159516
-0.00357151
0.0171219
-0.00353431
0.0182802
-0.00349471
0.0194258
-0.00345253
0.0205577
-0.00340798
0.0216753
-0.00336108
0.0227777
-0.00331179
0.0238643
-0.00326027
0.0249344
-0.00320654
0.0259872
-0.00315063
0.027022
-0.00309253
0.028038
-0.00303238
0.0290345
-0.00297017
0.0300107
-0.00290593
0.0309661
-0.00283972
0.0318997
-0.00277156
0.032811
-0.00270156
0.0336991
-0.00262964
0.0345635
-0.00255593
0.0354032
-0.00248044
0.0362176
-0.00240327
0.0370061
-0.00232441
0.0377678
-0.00224393
0.0385021
-0.00216185
0.0392083
-0.00207825
0.0398856
-0.0019932
0.0405335
-0.00190675
0.0411512
-0.00181899
0.0417383
-0.00173009
0.0422944
-0.00164026
0.0428194
-0.00154965
0.0433128
-0.00145824
0.043774
-0.00136573
0.0442019
-0.0012719
0.044596
-0.00117694
0.0449566
-0.00108147
0.0452846
-0.000986091
0.0455808
-0.000890939
0.0458457
-0.000795729
0.046079
-0.000700163
0.0462806
-0.000604214
0.0464501
-0.000508099
0.0465877
-0.000412123
0.0466935
-0.000316548
0.0467673
-0.000221453
0.046809
-0.000127279
0.046822
-3.57643e-05
0.0468029
5.60665e-05
0.0467538
0.000146125
0.0466752
0.00023507
0.0465678
0.0003223
0.0464321
0.000407617
0.0462688
0.000490851
0.0460786
0.000571839
0.0458622
0.000650441
0.0456205
0.000726528
0.0453543
0.000799973
0.0450645
0.000870654
0.0447521
0.000938461
0.0444179
0.00100329
0.0440631
0.00106505
0.0436887
0.00112367
0.0432957
0.00117907
0.0428852
0.0012312
0.0424584
0.00128
0.0420162
0.00132545
0.04156
0.00136751
0.0410907
0.00140618
0.0406096
0.00144145
0.0401177
0.00147334
0.0396163
0.00150185
0.0391063
0.00152703
0.038589
0.00154892
0.0380654
0.00156756
0.0375366
0.00158301
0.0370036
0.00159536
0.0364675
0.00160468
0.0359292
0.00161108
0.0353897
0.00161464
0.03485
0.00161549
0.0343108
0.00161375
0.0337731
0.00160956
0.0332376
0.00160305
0.032705
0.00159439
0.032176
0.00158374
0.0316512
0.00157126
0.0311313
0.00155713
0.0306166
0.00154154
0.0301077
0.00152468
0.0296048
0.00150673
0.0291083
0.00148788
0.0286184
0.00146831
0.0281354
0.0014482
0.0276592
0.00142771
0.0271901
0.00140702
0.0267279
0.00138626
0.0262728
0.00136558
0.0258245
0.0013451
0.0253831
0.00132489
0.0249483
0.00130505
0.0245201
0.00128562
0.0240982
0.00126662
0.0236825
0.00124808
0.0232729
0.00122997
0.0228692
0.00121227
0.0224713
0.00119493
0.0220791
0.00117787
0.0216925
0.00116103
0.0213114
0.00114432
0.0209359
0.00112764
0.020566
0.00111089
0.0202017
0.00109398
0.0198431
0.00107681
0.0194904
0.00105929
0.0191436
0.00104134
0.018803
0.00102288
0.0184688
0.00100386
0.0181411
0.00098421
0.0178202
0.000963907
0.0175063
0.000942923
0.0171997
0.000921246
0.0169006
0.000898879
0.0166092
0.000875833
0.0163258
0.000852132
0.0160506
0.000827809
0.0157838
0.000802905
0.0155256
0.000777468
0.0152761
0.000751555
0.0150355
0.000725226
0.014804
0.000698547
0.0145816
0.000671586
0.0143684
0.000644412
0.0141644
0.000617093
0.0139696
0.000589697
0.013784
0.000562291
0.0136076
0.000534939
0.0134403
0.000507701
0.013282
0.00048064
0.0131326
0.000453812
0.012992
0.000427274
0.01286
0.000401078
0.0127365
0.000375275
0.0126214
0.000349914
0.0125143
0.000325042
0.0124152
0.000300702
0.0123239
0.000276934
0.0122401
0.000253775
0.0121636
0.000231258
0.0120942
0.000209411
0.0120317
0.000188264
0.0119758
0.000167841
0.0119263
0.000148162
0.0118829
0.000129257
0.0118455
0.000111143
0.0118136
9.38392e-05
0.0117871
7.73614e-05
0.0117658
6.17244e-05
0.0117495
4.6925e-05
0.0117377
3.28781e-05
0.0117305
1.95982e-05
0.0117275
7.06462e-06
0.011727
-3.44115e-06
0.0117306
-1.44093e-05
0.0117378
-2.43007e-05
0.0117481
-3.32186e-05
0.0117611
-4.13111e-05
0.0117767
-4.8575e-05
0.0117945
-5.50876e-05
0.0118144
-6.08059e-05
0.0118361
-6.57746e-05
0.0118592
-6.99735e-05
0.0118836
-7.34707e-05
0.0119091
-7.62687e-05
0.0119354
-7.8403e-05
0.0119623
-7.9932e-05
0.0119896
-8.09304e-05
0.0120173
-8.13263e-05
0.0120449
-8.10967e-05
0.0120722
-8.02075e-05
0.0120989
-7.8726e-05
0.0121248
-7.67717e-05
0.01215
-7.44182e-05
0.0121742
-7.17007e-05
0.0121975
-6.8646e-05
0.0122195
-6.52864e-05
0.0122404
-6.16602e-05
0.0122599
-5.78081e-05
0.0122781
-5.37713e-05
0.0122949
-4.95907e-05
0.0123102
-4.53071e-05
0.0123241
-4.09604e-05
0.0123365
-3.65898e-05
0.0123475
-3.22333e-05
0.012357
-2.79275e-05
0.0123651
-2.37073e-05
0.0123718
-1.96061e-05
0.0123772
-1.56549e-05
0.0123813
-1.18829e-05
0.0123842
-8.31675e-06
0.012386
-4.98077e-06
0.0123868
-1.89684e-06
0.0123866
9.15656e-07
0.0123856
3.43996e-06
0.0123839
5.70094e-06
0.0123815
7.58137e-06
0.0123786
9.18849e-06
0.0123752
1.04903e-05
0.0123715
1.15039e-05
0.0123675
1.22578e-05
0.0123634
1.27918e-05
0.0123592
1.31462e-05
0.0123549
1.33446e-05
0.0123507
1.34405e-05
0.0123465
1.35071e-05
0.0123427
1.3598e-05
0.0123392
1.375e-05
0.0123364
1.39478e-05
0.0123346
1.41283e-05
0.0123341
1.38903e-05
0.0123352
1.30571e-05
0.0123378
1.14407e-05
0.0123416
9.01952e-06
0.0123472
4.3734e-06
0.0123543
-1.57402e-06
0.0123633
-8.04415e-06
0.0123742
-1.54722e-05
0.0123871
-2.36496e-05
0.0124023
-3.23093e-05
0.0124202
-4.12975e-05
0.0124409
-5.05383e-05
0.0124646
-5.99986e-05
0.0124915
-6.96616e-05
0.0125215
-7.95102e-05
0.0125549
-8.9522e-05
0.0125916
-9.96698e-05
0.0126316
-0.000109926
0.0126752
-0.000120267
0.0127222
-0.000130672
0.0127728
-0.000141128
0.0128269
-0.000151619
0.0128846
-0.000162128
0.012946
-0.000172656
0.0130111
-0.000183213
0.0130798
-0.000193808
0.0131522
-0.000204383
0.0132283
-0.00021493
0.0133081
-0.000225453
0.0133917
-0.000235954
0.013479
-0.000246426
0.01357
-0.000256866
0.0136648
-0.000267268
0.0137634
-0.000277625
0.0138656
-0.000287933
0.0139716
-0.000298186
0.0140813
-0.000308378
0.0141948
-0.000318502
0.0143119
-0.000328551
0.0144327
-0.00033852
0.0145572
-0.0003484
0.0146854
-0.000358182
0.0148171
-0.000367859
0.0149525
-0.000377421
0.0150914
-0.000386858
0.0152338
-0.000396162
0.0153798
-0.000405321
0.0155292
-0.000414324
0.0156821
-0.000423159
0.0158383
-0.000431813
0.0159979
-0.000440272
0.0161608
-0.000448521
0.0163269
-0.000456547
0.0164962
-0.000464336
0.0166686
-0.000471872
0.0168441
-0.000479143
0.0170226
-0.000486132
0.017204
-0.000492826
0.0173883
-0.000499208
0.0175753
-0.000505263
0.017765
-0.000510973
0.0179573
-0.00051632
0.0181521
-0.000521284
0.0183493
-0.000525841
0.0185489
-0.000529967
0.0187506
-0.000533635
0.0189545
-0.00053682
0.0191605
-0.0005395
0.0193683
-0.000541661
0.0195781
-0.000543296
0.0197895
-0.000544404
0.0200026
-0.000544997
0.0202172
-0.000545091
0.0204332
-0.000544708
0.0206504
-0.000543874
0.0208688
-0.000542616
0.0210881
-0.000540961
0.0213083
-0.000538935
0.0215291
-0.000536561
0.0217504
-0.000533855
0.021972
-0.000530814
0.0221938
-0.000527405
0.0224155
-0.000523546
0.022637
-0.000519109
0.0228582
-0.000513928
0.0230787
-0.000507836