/*--------------------------------*- C++ -*----------------------------------*\
| =========                 |                                                 |
| \\      /  F ield         | OpenFOAM: The Open Source CFD Toolbox           |
|  \\    /   O peration     | Version:  v2006                                 |
|   \\  /    A nd           | Website:  www.openfoam.com                      |
|    \\/     M anipulation  |                                                 |
\*---------------------------------------------------------------------------*/
FoamFile
{
    version     2.0;
    format      ascii;
    class       volScalarField;
    location    "8.3";
    object      p;
}
// * * * * * * * * * * * * * * * * * * * * * * * * * * * * * * * * * * * * * //

dimensions      [1 -1 -2 0 0 0 0];


internalField   nonuniform List<scalar> 
50000
(
22234.2
22233.9
22233.4
22232.7
22231.7
22230.4
22228.9
22227.2
22225.3
22223.1
22220.7
22218
22215.2
22212.1
22208.9
22205.4
22201.7
22197.9
22193.9
22189.7
22185.4
22180.9
22176.3
22171.6
22166.7
22161.8
22156.7
22151.6
22146.4
22141.1
22135.8
22130.4
22125.1
22119.7
22114.3
22108.9
22103.6
22098.3
22093
22087.8
22082.7
22077.7
22072.8
22068
22063.3
22058.8
22054.4
22050.2
22046.2
22042.4
22038.8
22035.4
22032.3
22029.3
22026.7
22024.3
22022.2
22020.3
22018.8
22017.5
22016.6
22016
22015.7
22015.7
22016.1
22016.8
22017.9
22019.3
22021.1
22023.3
22025.8
22028.7
22032
22035.6
22039.6
22044
22048.7
22053.8
22059.3
22065.1
22071.3
22077.8
22084.7
22092
22099.5
22107.4
22115.7
22124.2
22133
22142.2
22151.6
22161.3
22171.2
22181.4
22191.9
22202.6
22213.5
22224.5
22235.8
22247.3
22258.9
22270.6
22282.5
22294.5
22306.5
22318.7
22330.9
22343.1
22355.4
22367.7
22380
22392.3
22404.5
22416.7
22428.8
22440.8
22452.7
22464.5
22476.2
22487.6
22498.9
22510.1
22521
22531.6
22542.1
22552.3
22562.2
22571.8
22581.1
22590.1
22598.8
22607.1
22615.1
22622.7
22629.9
22636.7
22643.1
22649.1
22654.7
22659.9
22664.6
22668.8
22672.6
22676
22678.9
22681.3
22683.2
22684.7
22685.6
22686.1
21783.4
21783.1
21782.6
21781.9
21780.8
21779.6
21778.1
21776.4
21774.4
21772.2
21769.8
21767.2
21764.3
21761.2
21758
21754.5
21750.8
21747
21743
21738.8
21734.4
21729.9
21725.3
21720.6
21715.7
21710.7
21705.6
21700.5
21695.2
21689.9
21684.6
21679.2
21673.8
21668.4
21663
21657.6
21652.2
21646.9
21641.6
21636.4
21631.3
21626.2
21621.3
21616.5
21611.8
21607.2
21602.8
21598.6
21594.6
21590.8
21587.1
21583.7
21580.5
21577.6
21574.9
21572.5
21570.3
21568.5
21566.9
21565.7
21564.7
21564.1
21563.8
21563.8
21564.2
21564.9
21566
21567.4
21569.2
21571.3
21573.8
21576.7
21580
21583.6
21587.6
21592
21596.7
21601.8
21607.3
21613.2
21619.4
21625.9
21632.8
21640.1
21647.7
21655.6
21663.8
21672.4
21681.2
21690.4
21699.8
21709.5
21719.5
21729.7
21740.2
21750.9
21761.8
21772.9
21784.2
21795.7
21807.3
21819.1
21831
21843
21855.1
21867.3
21879.5
21891.8
21904.1
21916.5
21928.8
21941.1
21953.4
21965.6
21977.7
21989.8
22001.7
22013.5
22025.2
22036.7
22048
22059.2
22070.1
22080.8
22091.3
22101.5
22111.4
22121.1
22130.4
22139.5
22148.2
22156.5
22164.5
22172.1
22179.4
22186.2
22192.7
22198.7
22204.3
22209.5
22214.2
22218.5
22222.3
22225.6
22228.5
22230.9
22232.9
22234.3
22235.3
22235.8
21333
21332.8
21332.3
21331.6
21330.5
21329.3
21327.8
21326
21324.1
21321.8
21319.4
21316.7
21313.9
21310.8
21307.5
21304
21300.3
21296.4
21292.3
21288.1
21283.7
21279.2
21274.5
21269.7
21264.8
21259.8
21254.7
21249.5
21244.2
21238.9
21233.5
21228.1
21222.6
21217.1
21211.7
21206.2
21200.8
21195.4
21190.1
21184.8
21179.6
21174.5
21169.6
21164.7
21160
21155.4
21150.9
21146.7
21142.6
21138.7
21135
21131.6
21128.3
21125.4
21122.6
21120.2
21118
21116.1
21114.5
21113.2
21112.2
21111.6
21111.2
21111.2
21111.6
21112.3
21113.3
21114.7
21116.5
21118.7
21121.2
21124
21127.3
21130.9
21134.9
21139.3
21144.1
21149.2
21154.7
21160.5
21166.7
21173.3
21180.3
21187.5
21195.1
21203.1
21211.4
21219.9
21228.8
21238
21247.5
21257.3
21267.3
21277.6
21288.1
21298.8
21309.8
21321
21332.4
21343.9
21355.5
21367.4
21379.3
21391.4
21403.5
21415.8
21428.1
21440.4
21452.8
21465.2
21477.6
21490
21502.3
21514.6
21526.8
21538.9
21550.9
21562.8
21574.5
21586.1
21597.5
21608.7
21619.7
21630.5
21641
21651.3
21661.2
21670.9
21680.3
21689.4
21698.2
21706.6
21714.6
21722.3
21729.6
21736.4
21742.9
21749
21754.6
21759.8
21764.6
21768.9
21772.7
21776.1
21779
21781.4
21783.4
21784.8
21785.8
21786.3
20883.2
20883
20882.5
20881.7
20880.7
20879.4
20877.9
20876.1
20874.1
20871.9
20869.4
20866.7
20863.8
20860.7
20857.3
20853.8
20850
20846.1
20842
20837.7
20833.3
20828.7
20824
20819.2
20814.2
20809.1
20803.9
20798.6
20793.3
20787.9
20782.4
20776.9
20771.4
20765.9
20760.3
20754.8
20749.3
20743.9
20738.5
20733.1
20727.8
20722.7
20717.6
20712.7
20707.8
20703.2
20698.7
20694.3
20690.2
20686.2
20682.5
20679
20675.7
20672.6
20669.9
20667.3
20665.1
20663.1
20661.5
20660.1
20659.1
20658.4
20658
20658
20658.3
20659
20660
20661.4
20663.2
20665.3
20667.8
20670.6
20673.9
20677.5
20681.5
20685.9
20690.7
20695.8
20701.3
20707.2
20713.5
20720.1
20727
20734.3
20742
20750
20758.3
20766.9
20775.9
20785.1
20794.7
20804.5
20814.6
20824.9
20835.5
20846.3
20857.4
20868.6
20880.1
20891.7
20903.4
20915.3
20927.4
20939.5
20951.8
20964.2
20976.6
20989
21001.5
21014
21026.5
21038.9
21051.4
21063.8
21076.1
21088.3
21100.4
21112.3
21124.2
21135.8
21147.3
21158.6
21169.7
21180.6
21191.2
21201.5
21211.6
21221.4
21230.9
21240
21248.8
21257.3
21265.4
21273.1
21280.5
21287.4
21294
21300.1
21305.8
21311
21315.8
21320.1
21324
21327.4
21330.3
21332.8
21334.7
21336.2
21337.2
21337.7
20433.9
20433.6
20433.1
20432.3
20431.3
20430
20428.5
20426.7
20424.6
20422.4
20419.9
20417.1
20414.2
20411
20407.6
20404
20400.2
20396.2
20392
20387.7
20383.2
20378.5
20373.7
20368.8
20363.7
20358.6
20353.3
20347.9
20342.5
20337
20331.5
20325.9
20320.2
20314.6
20309
20303.4
20297.8
20292.2
20286.7
20281.2
20275.9
20270.6
20265.4
20260.4
20255.5
20250.7
20246.1
20241.7
20237.4
20233.4
20229.5
20225.9
20222.5
20219.4
20216.6
20214
20211.6
20209.6
20207.9
20206.5
20205.4
20204.6
20204.2
20204.1
20204.4
20205
20206
20207.4
20209.1
20211.2
20213.7
20216.5
20219.8
20223.4
20227.4
20231.8
20236.6
20241.7
20247.3
20253.2
20259.5
20266.1
20273.1
20280.5
20288.2
20296.2
20304.6
20313.3
20322.3
20331.7
20341.3
20351.2
20361.4
20371.8
20382.5
20393.4
20404.6
20415.9
20427.5
20439.2
20451.1
20463.1
20475.3
20487.6
20500
20512.4
20524.9
20537.5
20550.1
20562.8
20575.4
20588
20600.5
20613.1
20625.5
20637.8
20650.1
20662.2
20674.1
20685.9
20697.6
20709
20720.2
20731.2
20741.9
20752.3
20762.5
20772.4
20782
20791.3
20800.2
20808.7
20816.9
20824.7
20832.2
20839.2
20845.8
20852
20857.7
20863
20867.8
20872.2
20876.1
20879.6
20882.5
20885
20887
20888.5
20889.5
20890
19985
19984.8
19984.2
19983.4
19982.4
19981.1
19979.5
19977.7
19975.6
19973.3
19970.7
19967.9
19964.9
19961.7
19958.2
19954.5
19950.7
19946.6
19942.4
19937.9
19933.3
19928.6
19923.7
19918.7
19913.5
19908.2
19902.9
19897.4
19891.8
19886.2
19880.6
19874.8
19869.1
19863.3
19857.6
19851.8
19846.1
19840.4
19834.8
19829.2
19823.7
19818.3
19813
19807.8
19802.8
19797.9
19793.2
19788.6
19784.3
19780.1
19776.1
19772.4
19768.9
19765.7
19762.7
19760
19757.6
19755.5
19753.7
19752.2
19751
19750.2
19749.7
19749.6
19749.8
19750.3
19751.3
19752.6
19754.3
19756.4
19758.8
19761.7
19764.9
19768.5
19772.6
19777
19781.8
19786.9
19792.5
19798.4
19804.8
19811.5
19818.5
19826
19833.7
19841.9
19850.3
19859.1
19868.2
19877.7
19887.4
19897.4
19907.7
19918.2
19929
19940.1
19951.4
19962.9
19974.5
19986.4
19998.4
20010.6
20022.9
20035.4
20047.9
20060.5
20073.2
20086
20098.7
20111.5
20124.3
20137.1
20149.8
20162.5
20175.1
20187.6
20200
20212.3
20224.4
20236.3
20248.1
20259.7
20271.1
20282.2
20293.1
20303.7
20314
20324
20333.7
20343.1
20352.2
20360.8
20369.1
20377.1
20384.6
20391.7
20398.4
20404.6
20410.5
20415.8
20420.7
20425.2
20429.1
20432.6
20435.6
20438.1
20440.1
20441.6
20442.6
20443.2
19536.7
19536.4
19535.9
19535.1
19534
19532.6
19531
19529.2
19527
19524.7
19522.1
19519.2
19516.1
19512.8
19509.3
19505.5
19501.5
19497.4
19493
19488.5
19483.8
19478.9
19473.9
19468.8
19463.5
19458.1
19452.6
19447
19441.3
19435.5
19429.7
19423.9
19418
19412.1
19406.2
19400.3
19394.4
19388.5
19382.8
19377
19371.4
19365.8
19360.4
19355.1
19349.9
19344.8
19339.9
19335.2
19330.7
19326.4
19322.3
19318.5
19314.8
19311.5
19308.4
19305.6
19303
19300.8
19298.9
19297.3
19296
19295.1
19294.5
19294.3
19294.5
19295
19295.9
19297.1
19298.8
19300.8
19303.3
19306.1
19309.3
19312.9
19317
19321.4
19326.2
19331.4
19337
19343
19349.4
19356.1
19363.3
19370.8
19378.6
19386.8
19395.4
19404.3
19413.5
19423.1
19432.9
19443
19453.5
19464.2
19475.1
19486.3
19497.8
19509.4
19521.3
19533.3
19545.5
19557.9
19570.4
19583
19595.7
19608.5
19621.4
19634.3
19647.3
19660.3
19673.3
19686.3
19699.2
19712.1
19724.9
19737.6
19750.2
19762.6
19775
19787.1
19799.1
19810.8
19822.4
19833.7
19844.7
19855.5
19866
19876.2
19886.1
19895.6
19904.8
19913.6
19922.1
19930.1
19937.8
19945
19951.8
19958.1
19964.1
19969.5
19974.5
19979
19983
19986.6
19989.6
19992.2
19994.2
19995.7
19996.8
19997.3
19088.8
19088.6
19088
19087.2
19086.1
19084.7
19083
19081.1
19079
19076.5
19073.8
19070.9
19067.7
19064.3
19060.7
19056.8
19052.8
19048.5
19044
19039.4
19034.6
19029.6
19024.4
19019.1
19013.7
19008.1
19002.5
18996.7
18990.9
18985
18979
18973
18966.9
18960.8
18954.7
18948.7
18942.6
18936.6
18930.6
18924.7
18918.9
18913.1
18907.5
18902
18896.6
18891.4
18886.4
18881.5
18876.8
18872.3
18868.1
18864
18860.3
18856.7
18853.5
18850.5
18847.9
18845.5
18843.5
18841.8
18840.4
18839.4
18838.7
18838.4
18838.4
18838.9
18839.7
18840.9
18842.5
18844.5
18846.9
18849.7
18852.9
18856.6
18860.6
18865
18869.9
18875.1
18880.8
18886.8
18893.2
18900.1
18907.3
18914.9
18922.8
18931.1
18939.8
18948.8
18958.2
18967.9
18977.9
18988.2
18998.8
19009.6
19020.7
19032.1
19043.7
19055.6
19067.6
19079.9
19092.3
19104.8
19117.6
19130.4
19143.3
19156.4
19169.5
19182.7
19195.9
19209.1
19222.3
19235.5
19248.7
19261.8
19274.8
19287.8
19300.6
19313.3
19325.8
19338.2
19350.4
19362.4
19374.1
19385.7
19396.9
19407.9
19418.6
19429
19439
19448.7
19458.1
19467.1
19475.7
19483.9
19491.7
19499.1
19506
19512.5
19518.5
19524.1
19529.1
19533.7
19537.8
19541.4
19544.5
19547.1
19549.2
19550.8
19551.8
19552.3
18641.5
18641.3
18640.7
18639.8
18638.7
18637.3
18635.6
18633.6
18631.4
18628.9
18626.1
18623.1
18619.8
18616.3
18612.6
18608.6
18604.4
18600
18595.4
18590.6
18585.6
18580.5
18575.2
18569.7
18564.1
18558.4
18552.6
18546.6
18540.6
18534.5
18528.3
18522.1
18515.9
18509.6
18503.3
18497
18490.7
18484.5
18478.3
18472.2
18466.2
18460.2
18454.4
18448.7
18443.1
18437.7
18432.4
18427.3
18422.5
18417.8
18413.3
18409.1
18405.2
18401.5
18398.1
18395
18392.1
18389.6
18387.4
18385.6
18384.1
18382.9
18382.1
18381.7
18381.7
18382
18382.8
18383.9
18385.5
18387.4
18389.8
18392.6
18395.8
18399.4
18403.4
18407.9
18412.8
18418.1
18423.7
18429.9
18436.4
18443.3
18450.6
18458.3
18466.3
18474.8
18483.6
18492.7
18502.3
18512.1
18522.3
18532.7
18543.5
18554.6
18565.9
18577.5
18589.3
18601.4
18613.6
18626.1
18638.7
18651.6
18664.5
18677.6
18690.8
18704.1
18717.5
18730.9
18744.4
18757.9
18771.3
18784.8
18798.3
18811.6
18824.9
18838.1
18851.2
18864.2
18877
18889.6
18902.1
18914.3
18926.3
18938.1
18949.6
18960.8
18971.7
18982.3
18992.6
19002.5
19012.1
19021.3
19030.1
19038.4
19046.4
19053.9
19061
19067.6
19073.8
19079.5
19084.7
19089.3
19093.5
19097.2
19100.4
19103
19105.2
19106.7
19107.8
19108.4
18194.8
18194.5
18193.9
18193
18191.8
18190.4
18188.6
18186.6
18184.3
18181.7
18178.8
18175.7
18172.3
18168.7
18164.9
18160.8
18156.4
18151.9
18147.1
18142.2
18137
18131.7
18126.2
18120.6
18114.8
18108.9
18102.9
18096.7
18090.5
18084.2
18077.8
18071.3
18064.9
18058.3
18051.8
18045.3
18038.8
18032.3
18025.9
18019.6
18013.3
18007.1
18001
17995.1
17989.3
17983.6
17978.1
17972.8
17967.7
17962.8
17958.2
17953.8
17949.6
17945.7
17942.1
17938.8
17935.8
17933.1
17930.7
17928.7
17927.1
17925.8
17924.9
17924.3
17924.2
17924.5
17925.1
17926.2
17927.7
17929.6
17931.9
17934.7
17937.8
17941.5
17945.5
17950
17954.9
17960.2
17966
17972.1
17978.7
17985.7
17993.1
18000.9
18009.1
18017.7
18026.7
18036
18045.7
18055.7
18066
18076.7
18087.7
18099
18110.5
18122.3
18134.4
18146.7
18159.3
18172
18184.9
18198
18211.2
18224.6
18238.1
18251.7
18265.3
18279.1
18292.8
18306.6
18320.4
18334.2
18347.9
18361.6
18375.2
18388.7
18402.1
18415.4
18428.5
18441.4
18454.2
18466.7
18479
18491
18502.8
18514.3
18525.5
18536.3
18546.8
18557
18566.8
18576.2
18585.2
18593.8
18601.9
18609.6
18616.9
18623.6
18629.9
18635.8
18641.1
18645.9
18650.2
18653.9
18657.2
18659.9
18662.1
18663.7
18664.8
18665.3
17748.6
17748.3
17747.7
17746.8
17745.5
17744
17742.2
17740.1
17737.7
17735
17732.1
17728.8
17725.3
17721.6
17717.6
17713.3
17708.9
17704.2
17699.2
17694.1
17688.8
17683.3
17677.6
17671.8
17665.8
17659.6
17653.4
17647
17640.5
17634
17627.3
17620.6
17613.9
17607.1
17600.4
17593.6
17586.8
17580.1
17573.4
17566.8
17560.2
17553.8
17547.5
17541.2
17535.2
17529.2
17523.5
17517.9
17512.6
17507.4
17502.5
17497.9
17493.5
17489.4
17485.5
17482
17478.8
17475.9
17473.4
17471.2
17469.4
17467.9
17466.9
17466.2
17466
17466.1
17466.7
17467.6
17469.1
17470.9
17473.2
17475.9
17479.1
17482.7
17486.7
17491.2
17496.2
17501.5
17507.4
17513.6
17520.3
17527.4
17534.9
17542.9
17551.2
17559.9
17569.1
17578.6
17588.4
17598.7
17609.2
17620.1
17631.3
17642.9
17654.7
17666.7
17679.1
17691.7
17704.5
17717.5
17730.7
17744.1
17757.7
17771.4
17785.2
17799.1
17813.1
17827.2
17841.3
17855.4
17869.5
17883.6
17897.7
17911.8
17925.7
17939.6
17953.3
17966.9
17980.3
17993.6
18006.7
18019.5
18032.1
18044.5
18056.5
18068.3
18079.8
18090.9
18101.7
18112.2
18122.2
18131.8
18141.1
18149.9
18158.2
18166.1
18173.6
18180.5
18187
18193
18198.4
18203.4
18207.8
18211.6
18215
18217.7
18220
18221.6
18222.7
18223.3
17303
17302.6
17302
17301.1
17299.8
17298.2
17296.3
17294.2
17291.7
17288.9
17285.8
17282.5
17278.8
17275
17270.8
17266.4
17261.7
17256.9
17251.7
17246.4
17240.9
17235.2
17229.3
17223.2
17217
17210.6
17204.1
17197.4
17190.7
17183.9
17177
17170
17163
17156
17148.9
17141.8
17134.8
17127.7
17120.8
17113.8
17107
17100.3
17093.6
17087.1
17080.7
17074.5
17068.5
17062.6
17057
17051.6
17046.4
17041.5
17036.8
17032.5
17028.4
17024.6
17021.2
17018.1
17015.4
17013
17011
17009.4
17008.1
17007.3
17006.9
17006.9
17007.4
17008.3
17009.6
17011.4
17013.6
17016.3
17019.4
17023
17027.1
17031.6
17036.6
17042
17047.9
17054.3
17061.1
17068.3
17075.9
17084
17092.5
17101.4
17110.7
17120.4
17130.5
17141
17151.8
17162.9
17174.4
17186.2
17198.3
17210.6
17223.3
17236.2
17249.3
17262.7
17276.2
17290
17303.8
17317.9
17332.1
17346.3
17360.7
17375.1
17389.6
17404.1
17418.7
17433.2
17447.6
17462
17476.4
17490.6
17504.7
17518.7
17532.5
17546.1
17559.6
17572.8
17585.7
17598.4
17610.8
17622.9
17634.7
17646.2
17657.3
17668
17678.3
17688.2
17697.7
17706.8
17715.4
17723.5
17731.2
17738.3
17745
17751.1
17756.7
17761.8
17766.3
17770.3
17773.7
17776.6
17778.9
17780.6
17781.7
17782.3
16857.9
16857.6
16857
16856
16854.6
16853
16851.1
16848.8
16846.2
16843.3
16840.1
16836.6
16832.9
16828.8
16824.5
16819.9
16815.1
16810
16804.6
16799.1
16793.3
16787.4
16781.2
16774.9
16768.4
16761.8
16755
16748.1
16741.1
16733.9
16726.7
16719.5
16712.2
16704.8
16697.4
16690
16682.7
16675.3
16668
16660.8
16653.6
16646.5
16639.5
16632.7
16626
16619.5
16613.1
16607
16601
16595.3
16589.8
16584.6
16579.7
16575
16570.7
16566.6
16562.9
16559.6
16556.6
16554
16551.8
16550
16548.6
16547.6
16547.1
16547
16547.3
16548.1
16549.3
16551
16553.2
16555.8
16558.9
16562.5
16566.6
16571.2
16576.2
16581.7
16587.6
16594.1
16601
16608.3
16616.1
16624.4
16633
16642.1
16651.7
16661.6
16671.9
16682.6
16693.7
16705.1
16716.8
16728.9
16741.3
16754
16767
16780.2
16793.7
16807.4
16821.4
16835.5
16849.7
16864.2
16878.8
16893.4
16908.2
16923
16937.9
16952.9
16967.8
16982.7
16997.6
17012.4
17027.2
17041.8
17056.4
17070.8
17085
17099
17112.8
17126.4
17139.8
17152.9
17165.7
17178.1
17190.3
17202.1
17213.5
17224.6
17235.2
17245.4
17255.2
17264.5
17273.4
17281.8
17289.7
17297
17303.9
17310.2
17316
17321.2
17325.9
17330
17333.5
17336.4
17338.8
17340.6
17341.8
17342.4
16413.6
16413.2
16412.5
16411.5
16410.1
16408.4
16406.4
16404
16401.3
16398.3
16395
16391.3
16387.4
16383.2
16378.7
16373.9
16368.8
16363.5
16358
16352.2
16346.2
16340
16333.6
16327
16320.2
16313.2
16306.2
16298.9
16291.6
16284.2
16276.6
16269
16261.4
16253.7
16246
16238.2
16230.5
16222.8
16215.1
16207.5
16200
16192.6
16185.2
16178
16171
16164.1
16157.4
16150.9
16144.6
16138.5
16132.7
16127.2
16121.9
16116.9
16112.3
16108
16104
16100.4
16097.2
16094.3
16091.9
16089.9
16088.3
16087.1
16086.4
16086.1
16086.3
16087
16088.1
16089.7
16091.8
16094.4
16097.5
16101.1
16105.2
16109.8
16114.8
16120.4
16126.5
16133
16140
16147.5
16155.5
16163.9
16172.7
16182.1
16191.8
16202
16212.5
16223.5
16234.9
16246.6
16258.7
16271.1
16283.8
16296.9
16310.2
16323.8
16337.7
16351.8
16366.1
16380.6
16395.3
16410.2
16425.2
16440.3
16455.6
16470.8
16486.2
16501.6
16517
16532.3
16547.7
16563
16578.2
16593.3
16608.3
16623.1
16637.8
16652.3
16666.6
16680.6
16694.4
16707.9
16721.1
16734
16746.5
16758.7
16770.5
16781.9
16792.9
16803.4
16813.5
16823.1
16832.3
16840.9
16849.1
16856.7
16863.8
16870.3
16876.3
16881.6
16886.5
16890.7
16894.3
16897.4
16899.8
16901.6
16902.9
16903.5
15969.8
15969.5
15968.7
15967.7
15966.2
15964.4
15962.3
15959.8
15957
15953.9
15950.4
15946.6
15942.5
15938.1
15933.4
15928.4
15923.1
15917.6
15911.8
15905.7
15899.4
15892.9
15886.2
15879.3
15872.2
15865
15857.6
15850
15842.3
15834.6
15826.7
15818.7
15810.7
15802.6
15794.5
15786.4
15778.3
15770.2
15762.1
15754.1
15746.2
15738.4
15730.7
15723.1
15715.6
15708.3
15701.3
15694.4
15687.7
15681.3
15675.1
15669.2
15663.6
15658.3
15653.3
15648.7
15644.4
15640.5
15637
15633.9
15631.2
15628.9
15627.1
15625.7
15624.8
15624.4
15624.4
15625
15626
15627.5
15629.6
15632.1
15635.2
15638.7
15642.8
15647.4
15652.6
15658.2
15664.3
15671
15678.1
15685.8
15693.9
15702.5
15711.6
15721.2
15731.1
15741.6
15752.4
15763.7
15775.4
15787.4
15799.8
15812.6
15825.7
15839.2
15852.9
15866.9
15881.2
15895.7
15910.5
15925.5
15940.6
15956
15971.4
15987
16002.7
16018.5
16034.4
16050.3
16066.1
16082
16097.9
16113.7
16129.4
16145
16160.5
16175.8
16191
16206
16220.7
16235.2
16249.5
16263.4
16277.1
16290.4
16303.3
16315.9
16328.1
16339.9
16351.3
16362.2
16372.7
16382.6
16392.1
16401
16409.4
16417.3
16424.6
16431.4
16437.5
16443.1
16448.1
16452.5
16456.3
16459.4
16461.9
16463.8
16465.1
16465.7
15526.8
15526.4
15525.6
15524.5
15523
15521.1
15518.9
15516.3
15513.4
15510.1
15506.4
15502.5
15498.2
15493.5
15488.6
15483.4
15477.9
15472.1
15466
15459.7
15453.1
15446.3
15439.3
15432.1
15424.6
15417
15409.3
15401.3
15393.3
15385.1
15376.9
15368.5
15360.1
15351.6
15343.1
15334.5
15326
15317.5
15309
15300.6
15292.2
15284
15275.8
15267.8
15260
15252.3
15244.7
15237.4
15230.3
15223.5
15216.9
15210.7
15204.7
15199
15193.7
15188.7
15184.1
15179.8
15176
15172.6
15169.7
15167.1
15165.1
15163.5
15162.4
15161.7
15161.6
15162
15162.9
15164.3
15166.3
15168.8
15171.8
15175.4
15179.5
15184.1
15189.3
15195
15201.3
15208
15215.3
15223.1
15231.5
15240.3
15249.6
15259.4
15269.6
15280.4
15291.5
15303.1
15315.1
15327.5
15340.3
15353.5
15367
15380.9
15395
15409.5
15424.2
15439.2
15454.5
15469.9
15485.6
15501.4
15517.4
15533.6
15549.8
15566.1
15582.5
15598.9
15615.3
15631.8
15648.2
15664.5
15680.8
15696.9
15712.9
15728.8
15744.5
15760
15775.3
15790.3
15805.1
15819.5
15833.7
15847.4
15860.9
15873.9
15886.6
15898.8
15910.5
15921.9
15932.7
15943
15952.8
15962.1
15970.8
15978.9
15986.5
15993.5
15999.9
16005.7
16010.8
16015.4
16019.3
16022.5
16025.1
16027.1
16028.4
16029.1
15084.4
15084
15083.2
15082.1
15080.5
15078.5
15076.2
15073.5
15070.4
15066.9
15063.1
15059
15054.4
15049.6
15044.4
15039
15033.2
15027.1
15020.7
15014.1
15007.2
15000.1
14992.7
14985.1
14977.4
14969.4
14961.2
14952.9
14944.5
14935.9
14927.2
14918.4
14909.6
14900.6
14891.7
14882.7
14873.7
14864.7
14855.8
14846.9
14838.1
14829.4
14820.8
14812.3
14804
14795.8
14787.8
14780.1
14772.5
14765.3
14758.2
14751.5
14745.1
14739.1
14733.3
14728
14723
14718.4
14714.3
14710.5
14707.3
14704.5
14702.1
14700.3
14698.9
14698.1
14697.8
14698.1
14698.8
14700.1
14702
14704.4
14707.4
14711
14715.1
14719.8
14725
14730.8
14737.2
14744.1
14751.5
14759.5
14768
14777.1
14786.7
14796.7
14807.3
14818.3
14829.8
14841.7
14854.1
14866.9
14880.1
14893.7
14907.6
14921.9
14936.6
14951.5
14966.8
14982.3
14998
15014
15030.2
15046.6
15063.2
15079.8
15096.6
15113.5
15130.5
15147.5
15164.5
15181.5
15198.5
15215.5
15232.3
15249.1
15265.7
15282.1
15298.4
15314.5
15330.3
15345.9
15361.2
15376.2
15390.9
15405.2
15419.1
15432.6
15445.8
15458.4
15470.6
15482.4
15493.6
15504.3
15514.5
15524.1
15533.1
15541.6
15549.5
15556.7
15563.4
15569.4
15574.7
15579.4
15583.5
15586.8
15589.5
15591.6
15592.9
15593.6
14642.8
14642.4
14641.6
14640.4
14638.7
14636.6
14634.2
14631.3
14628.1
14624.5
14620.5
14616.1
14611.4
14606.3
14600.9
14595.1
14589.1
14582.7
14576
14569
14561.8
14554.3
14546.6
14538.6
14530.4
14522.1
14513.5
14504.8
14495.9
14486.9
14477.7
14468.5
14459.2
14449.8
14440.3
14430.9
14421.4
14411.9
14402.5
14393.1
14383.8
14374.6
14365.4
14356.5
14347.6
14339
14330.5
14322.2
14314.2
14306.5
14299
14291.8
14285
14278.4
14272.3
14266.5
14261.1
14256.2
14251.7
14247.6
14244
14240.9
14238.2
14236.1
14234.6
14233.5
14233
14233.1
14233.7
14234.9
14236.7
14239
14242
14245.5
14249.6
14254.4
14259.7
14265.6
14272
14279.1
14286.7
14294.9
14303.6
14312.9
14322.7
14333.1
14344
14355.3
14367.2
14379.5
14392.3
14405.5
14419.1
14433.2
14447.6
14462.4
14477.5
14493
14508.8
14524.8
14541.2
14557.7
14574.5
14591.5
14608.6
14625.9
14643.3
14660.8
14678.4
14696
14713.7
14731.4
14749
14766.6
14784.1
14801.4
14818.7
14835.8
14852.7
14869.4
14885.8
14902
14917.9
14933.5
14948.7
14963.6
14978
14992.1
15005.7
15018.9
15031.6
15043.8
15055.5
15066.6
15077.1
15087.1
15096.5
15105.3
15113.5
15121.1
15127.9
15134.2
15139.7
15144.6
15148.8
15152.3
15155.2
15157.3
15158.7
15159.4
14202
14201.6
14200.7
14199.4
14197.7
14195.5
14192.9
14189.9
14186.5
14182.7
14178.5
14173.9
14169
14163.6
14157.9
14151.9
14145.5
14138.8
14131.8
14124.5
14116.9
14109
14100.9
14092.5
14083.9
14075.1
14066.1
14056.9
14047.6
14038.1
14028.4
14018.7
14008.9
13999
13989
13979
13969
13959
13949.1
13939.1
13929.3
13919.5
13909.9
13900.3
13891
13881.8
13872.7
13864
13855.4
13847.1
13839.2
13831.5
13824.1
13817.1
13810.5
13804.3
13798.5
13793.1
13788.2
13783.7
13779.8
13776.3
13773.4
13771
13769.1
13767.8
13767.1
13767
13767.5
13768.5
13770.2
13772.5
13775.4
13778.9
13783.1
13787.8
13793.2
13799.2
13805.8
13813
13820.8
13829.2
13838.2
13847.7
13857.8
13868.5
13879.7
13891.4
13903.7
13916.4
13929.6
13943.3
13957.4
13971.9
13986.9
14002.2
14017.9
14033.9
14050.2
14066.9
14083.8
14101
14118.4
14136
14153.8
14171.7
14189.8
14208
14226.2
14244.5
14262.9
14281.2
14299.5
14317.8
14336
14354
14372
14389.7
14407.3
14424.7
14441.8
14458.6
14475.1
14491.4
14507.2
14522.7
14537.7
14552.4
14566.5
14580.3
14593.5
14606.1
14618.3
14629.9
14640.9
14651.2
14661
14670.2
14678.7
14686.5
14693.7
14700.2
14706
14711.1
14715.4
14719.1
14722
14724.2
14725.7
14726.4
13762.1
13761.6
13760.7
13759.3
13757.5
13755.2
13752.5
13749.3
13745.7
13741.7
13737.3
13732.5
13727.2
13721.6
13715.6
13709.3
13702.6
13695.5
13688.2
13680.5
13672.5
13664.2
13655.6
13646.8
13637.8
13628.5
13619
13609.3
13599.5
13589.5
13579.4
13569.1
13558.7
13548.3
13537.8
13527.2
13516.7
13506.1
13495.6
13485.1
13474.6
13464.3
13454
13443.9
13433.9
13424.2
13414.6
13405.2
13396.1
13387.3
13378.7
13370.5
13362.6
13355.1
13348
13341.3
13335
13329.2
13323.8
13318.9
13314.6
13310.8
13307.5
13304.8
13302.6
13301.1
13300.1
13299.8
13300.1
13301
13302.6
13304.8
13307.6
13311.1
13315.3
13320.1
13325.5
13331.6
13338.4
13345.7
13353.7
13362.4
13371.6
13381.4
13391.9
13402.9
13414.5
13426.6
13439.2
13452.4
13466.1
13480.2
13494.8
13509.9
13525.4
13541.3
13557.5
13574.2
13591.1
13608.4
13626
13643.8
13661.9
13680.1
13698.6
13717.3
13736
13754.9
13773.9
13793
13812
13831.1
13850.2
13869.2
13888.1
13906.9
13925.6
13944
13962.3
13980.4
13998.2
14015.8
14033
14049.9
14066.4
14082.5
14098.2
14113.4
14128.2
14142.5
14156.2
14169.5
14182.1
14194.2
14205.6
14216.4
14226.6
14236.2
14245
14253.2
14260.7
14267.4
14273.4
14278.7
14283.3
14287.1
14290.1
14292.4
14294
14294.7
13322.9
13322.5
13321.5
13320
13318.1
13315.7
13312.8
13309.5
13305.7
13301.5
13296.9
13291.8
13286.3
13280.4
13274.1
13267.4
13260.3
13252.9
13245.1
13237
13228.6
13219.9
13210.9
13201.6
13192.1
13182.3
13172.3
13162.1
13151.7
13141.2
13130.5
13119.7
13108.7
13097.7
13086.6
13075.5
13064.3
13053.1
13042
13030.8
13019.8
13008.8
12997.9
12987.2
12976.6
12966.2
12956
12946
12936.3
12926.8
12917.7
12908.9
12900.4
12892.3
12884.7
12877.4
12870.6
12864.3
12858.5
12853.1
12848.4
12844.1
12840.5
12837.4
12835
12833.2
12832
12831.4
12831.5
12832.3
12833.7
12835.8
12838.6
12842.1
12846.3
12851.1
12856.6
12862.8
12869.7
12877.3
12885.5
12894.4
12903.9
12914
12924.8
12936.2
12948.1
12960.7
12973.8
12987.4
13001.6
13016.3
13031.4
13047.1
13063.1
13079.6
13096.5
13113.8
13131.4
13149.3
13167.6
13186.1
13204.9
13223.9
13243.1
13262.5
13282.1
13301.7
13321.5
13341.3
13361.2
13381
13400.9
13420.7
13440.4
13460
13479.4
13498.7
13517.8
13536.6
13555.2
13573.5
13591.4
13609
13626.3
13643.1
13659.4
13675.3
13690.7
13705.6
13720
13733.8
13747
13759.5
13771.5
13782.8
13793.4
13803.3
13812.6
13821.1
13828.9
13835.9
13842.2
13847.7
13852.5
13856.4
13859.6
13862
13863.6
13864.4
12884.7
12884.2
12883.2
12881.7
12879.6
12877.1
12874.1
12870.6
12866.6
12862.1
12857.2
12851.9
12846.1
12839.8
12833.2
12826.2
12818.7
12810.9
12802.7
12794.2
12785.3
12776.1
12766.6
12756.8
12746.8
12736.5
12726
12715.2
12704.3
12693.2
12681.9
12670.4
12658.9
12647.3
12635.5
12623.8
12611.9
12600.1
12588.3
12576.5
12564.8
12553.1
12541.6
12530.1
12518.9
12507.8
12496.9
12486.3
12475.9
12465.8
12456
12446.6
12437.5
12428.8
12420.5
12412.7
12405.3
12398.5
12392.1
12386.3
12381.1
12376.4
12372.4
12369
12366.2
12364
12362.5
12361.7
12361.6
12362.2
12363.5
12365.6
12368.3
12371.7
12375.9
12380.8
12386.4
12392.8
12399.8
12407.6
12416
12425.2
12435
12445.4
12456.6
12468.3
12480.7
12493.7
12507.3
12521.4
12536.1
12551.4
12567.1
12583.3
12600
12617.2
12634.7
12652.7
12671
12689.7
12708.7
12728
12747.5
12767.3
12787.3
12807.5
12827.8
12848.3
12868.9
12889.6
12910.3
12931
12951.6
12972.3
12992.8
13013.3
13033.6
13053.7
13073.6
13093.3
13112.7
13131.8
13150.5
13168.9
13186.9
13204.4
13221.5
13238.1
13254.2
13269.8
13284.7
13299.1
13312.9
13326
13338.5
13350.3
13361.4
13371.8
13381.4
13390.3
13398.4
13405.8
13412.3
13418.1
13423
13427.2
13430.5
13433
13434.6
13435.5
12447.5
12446.9
12445.9
12444.3
12442.1
12439.4
12436.2
12432.5
12428.3
12423.6
12418.4
12412.8
12406.7
12400.1
12393.1
12385.7
12377.8
12369.6
12361
12352
12342.6
12332.9
12323
12312.6
12302
12291.2
12280.1
12268.7
12257.2
12245.5
12233.5
12221.4
12209.3
12197
12184.6
12172.1
12159.6
12147.1
12134.5
12122
12109.6
12097.2
12085
12072.8
12060.8
12049
12037.4
12026
12014.9
12004.1
11993.7
11983.5
11973.8
11964.4
11955.5
11947.1
11939.1
11931.7
11924.8
11918.4
11912.7
11907.6
11903.1
11899.3
11896.1
11893.6
11891.8
11890.8
11890.4
11890.9
11892
11893.9
11896.6
11900
11904.2
11909.2
11914.9
11921.3
11928.6
11936.5
11945.2
11954.6
11964.8
11975.6
11987.1
11999.3
12012.1
12025.6
12039.7
12054.4
12069.7
12085.5
12101.9
12118.7
12136.1
12153.9
12172.2
12190.9
12210
12229.4
12249.2
12269.3
12289.6
12310.2
12331.1
12352.1
12373.4
12394.7
12416.2
12437.7
12459.3
12480.9
12502.5
12524
12545.5
12566.8
12588
12609.1
12629.9
12650.4
12670.7
12690.6
12710.2
12729.4
12748.2
12766.6
12784.4
12801.8
12818.6
12834.9
12850.5
12865.5
12879.9
12893.7
12906.7
12919
12930.6
12941.4
12951.5
12960.8
12969.3
12977
12983.8
12989.8
12995
12999.3
13002.8
13005.4
13007.1
13008
12011.3
12010.7
12009.6
12007.8
12005.6
12002.7
11999.3
11995.4
11991
11986
11980.6
11974.6
11968.2
11961.2
11953.8
11946
11937.7
11929
11920
11910.5
11900.5
11890.3
11879.8
11868.9
11857.8
11846.3
11834.6
11822.6
11810.4
11798.1
11785.5
11772.7
11759.8
11746.8
11733.7
11720.5
11707.3
11694
11680.7
11667.5
11654.3
11641.1
11628.1
11615.2
11602.4
11589.8
11577.4
11565.3
11553.4
11541.9
11530.6
11519.8
11509.3
11499.2
11489.6
11480.5
11471.9
11463.8
11456.3
11449.4
11443.1
11437.5
11432.5
11428.3
11424.7
11421.8
11419.7
11418.4
11417.8
11418
11419
11420.8
11423.4
11426.8
11431
11436.1
11441.9
11448.5
11455.9
11464.1
11473
11482.7
11493.2
11504.4
11516.4
11529
11542.3
11556.3
11571
11586.3
11602.1
11618.6
11635.6
11653.2
11671.3
11689.8
11708.9
11728.3
11748.2
11768.5
11789.1
11810
11831.2
11852.7
11874.5
11896.4
11918.6
11940.8
11963.2
11985.7
12008.3
12030.8
12053.4
12075.9
12098.3
12120.6
12142.8
12164.8
12186.5
12208
12229.2
12250.1
12270.6
12290.7
12310.3
12329.5
12348.2
12366.4
12384
12401
12417.4
12433.1
12448.1
12462.5
12476.1
12489
12501.1
12512.5
12523
12532.7
12541.6
12549.6
12556.7
12563
12568.4
12572.9
12576.6
12579.3
12581.1
12582
11576.1
11575.5
11574.3
11572.5
11570.1
11567.1
11563.5
11559.3
11554.7
11549.4
11543.6
11537.3
11530.5
11523.2
11515.4
11507.1
11498.4
11489.2
11479.6
11469.6
11459.2
11448.4
11437.3
11425.8
11414
11401.9
11389.6
11376.9
11364.1
11351
11337.7
11324.2
11310.6
11296.9
11283
11269.1
11255
11241
11226.9
11212.8
11198.8
11184.8
11171
11157.2
11143.6
11130.2
11117
11104
11091.3
11079
11066.9
11055.2
11044
11033.1
11022.8
11012.9
11003.6
10994.9
10986.7
10979.2
10972.3
10966.1
10960.7
10955.9
10951.9
10948.7
10946.2
10944.6
10943.7
10943.7
10944.5
10946.2
10948.7
10952.1
10956.3
10961.4
10967.3
10974.1
10981.7
10990.1
10999.4
11009.4
11020.3
11031.9
11044.3
11057.4
11071.2
11085.8
11101
11116.9
11133.5
11150.6
11168.4
11186.7
11205.5
11224.9
11244.7
11265
11285.7
11306.8
11328.3
11350.2
11372.3
11394.8
11417.4
11440.4
11463.5
11486.7
11510.1
11533.6
11557.2
11580.8
11604.3
11627.9
11651.3
11674.7
11697.9
11720.9
11743.6
11766.1
11788.3
11810.2
11831.6
11852.7
11873.3
11893.4
11912.9
11932
11950.4
11968.2
11985.3
12001.8
12017.5
12032.6
12046.8
12060.3
12073