/*--------------------------------*- C++ -*----------------------------------*\
| =========                 |                                                 |
| \\      /  F ield         | OpenFOAM: The Open Source CFD Toolbox           |
|  \\    /   O peration     | Version:  v2006                                 |
|   \\  /    A nd           | Website:  www.openfoam.com                      |
|    \\/     M anipulation  |                                                 |
\*---------------------------------------------------------------------------*/
FoamFile
{
    version     2.0;
    format      ascii;
    class       volVectorField;
    location    "0";
    object      U;
}
// * * * * * * * * * * * * * * * * * * * * * * * * * * * * * * * * * * * * * //

dimensions      [0 1 -1 0 0 0 0];


internalField   nonuniform List<vector> 
67500
(
(-0.0236007 0.0168038 0)
(-0.039726 0.0188686 0)
(-0.0641454 0.0175835 0)
(-0.0928871 -0.0247776 0)
(-0.0751152 -0.0809837 0)
(-0.0488807 -0.107301 0)
(-0.0339271 -0.117323 0)
(0.0537533 -0.116269 0)
(0.160076 -0.0981857 0)
(0.245151 -0.0741591 0)
(0.300339 -0.0491841 0)
(0.323951 -0.0204552 0)
(0.316516 0.00377921 0)
(0.30101 0.0176383 0)
(0.247018 0.00616291 0)
(0.203256 -0.0177502 0)
(0.17822 -0.0159177 0)
(0.162744 -0.00543191 0)
(0.15745 -0.00632296 0)
(0.162594 -0.0133463 0)
(0.174789 -0.0159715 0)
(0.188158 -0.0132361 0)
(0.198552 -0.00857006 0)
(0.205456 -0.00466743 0)
(0.210009 -0.00250302 0)
(0.213038 -0.00195869 0)
(0.215133 -0.00238987 0)
(0.217169 -0.00308801 0)
(0.220063 -0.00353204 0)
(0.223999 -0.00364905 0)
(0.228433 -0.00342485 0)
(0.232913 -0.00293545 0)
(0.237645 -0.00247845 0)
(0.243194 -0.00240774 0)
(0.250026 -0.00286059 0)
(0.258316 -0.00366644 0)
(0.267861 -0.00452885 0)
(0.278164 -0.00518871 0)
(0.28868 -0.00550198 0)
(0.299011 -0.00547342 0)
(0.308944 -0.00521093 0)
(0.318444 -0.00485502 0)
(0.327621 -0.00453544 0)
(0.336667 -0.00434768 0)
(0.345778 -0.0043221 0)
(0.355068 -0.00441196 0)
(0.364505 -0.00451234 0)
(0.373918 -0.00451381 0)
(0.383116 -0.00439817 0)
(0.392059 -0.00424929 0)
(0.400846 -0.00413257 0)
(0.409609 -0.00410033 0)
(0.418492 -0.00418227 0)
(0.427634 -0.00436857 0)
(0.437128 -0.00461453 0)
(0.446984 -0.00485925 0)
(0.457137 -0.00504871 0)
(0.467469 -0.00515367 0)
(0.477853 -0.00517486 0)
(0.488186 -0.00513428 0)
(0.498399 -0.00505934 0)
(0.508458 -0.00496856 0)
(0.518347 -0.00486513 0)
(0.528045 -0.00473786 0)
(0.537498 -0.00456354 0)
(0.546586 -0.00432179 0)
(0.555193 -0.00405732 0)
(0.563362 -0.00386325 0)
(0.571265 -0.00375625 0)
(0.579046 -0.00370773 0)
(0.586782 -0.00370286 0)
(0.594529 -0.00373436 0)
(0.602335 -0.00379222 0)
(0.61023 -0.00386303 0)
(0.618216 -0.00393042 0)
(0.626268 -0.0039775 0)
(0.634335 -0.0039988 0)
(0.642391 -0.00401427 0)
(0.650461 -0.00404375 0)
(0.658593 -0.0040848 0)
(0.666808 -0.0041256 0)
(0.675095 -0.00415471 0)
(0.683417 -0.00416188 0)
(0.691717 -0.00414078 0)
(0.699938 -0.00409658 0)
(0.708054 -0.0040485 0)
(0.716083 -0.00401035 0)
(0.724052 -0.0039777 0)
(0.731961 -0.0039401 0)
(0.739792 -0.00389276 0)
(0.747522 -0.00383937 0)
(0.755146 -0.00378717 0)
(0.76267 -0.00373789 0)
(0.770098 -0.00368757 0)
(0.777422 -0.00363349 0)
(0.784633 -0.00357673 0)
(0.791728 -0.00351918 0)
(0.798707 -0.00346077 0)
(0.805569 -0.00340056 0)
(0.812308 -0.00333857 0)
(0.818921 -0.0032753 0)
(0.825408 -0.00321078 0)
(0.831764 -0.00314475 0)
(0.837986 -0.00307722 0)
(0.844072 -0.00300828 0)
(0.850018 -0.00293793 0)
(0.855822 -0.00286621 0)
(0.861482 -0.00279326 0)
(0.866994 -0.00271927 0)
(0.872357 -0.00264442 0)
(0.87757 -0.00256892 0)
(0.882631 -0.002493 0)
(0.88754 -0.00241689 0)
(0.892296 -0.0023408 0)
(0.896901 -0.00226493 0)
(0.901354 -0.00218947 0)
(0.905656 -0.00211461 0)
(0.909809 -0.00204049 0)
(0.913815 -0.00196726 0)
(0.917676 -0.00189506 0)
(0.921393 -0.00182399 0)
(0.924969 -0.00175416 0)
(0.928407 -0.00168566 0)
(0.931709 -0.00161858 0)
(0.934878 -0.001553 0)
(0.937918 -0.00148899 0)
(0.940832 -0.0014266 0)
(0.943622 -0.00136591 0)
(0.946293 -0.00130695 0)
(0.948847 -0.00124977 0)
(0.951289 -0.00119441 0)
(0.953622 -0.00114088 0)
(0.95585 -0.00108921 0)
(0.957977 -0.00103939 0)
(0.960006 -0.000991432 0)
(0.96194 -0.000945309 0)
(0.963785 -0.000901008 0)
(0.965542 -0.000858504 0)
(0.967217 -0.000817769 0)
(0.968811 -0.000778769 0)
(0.97033 -0.000741468 0)
(0.971775 -0.000705824 0)
(0.973151 -0.000671793 0)
(0.974461 -0.000639328 0)
(0.975707 -0.000608377 0)
(0.976893 -0.000578888 0)
(0.978021 -0.000550804 0)
(0.979094 -0.000524069 0)
(0.980116 -0.000498627 0)
(0.981088 -0.000474418 0)
(0.982012 -0.000451388 0)
(0.982892 -0.000429481 0)
(0.983729 -0.000408641 0)
(0.984526 -0.000388816 0)
(0.985283 -0.000369954 0)
(0.986004 -0.000352005 0)
(0.98669 -0.000334919 0)
(0.987343 -0.000318648 0)
(0.987964 -0.000303147 0)
(0.988555 -0.000288371 0)
(0.989117 -0.000274278 0)
(0.989651 -0.00026083 0)
(0.99016 -0.000247989 0)
(0.990643 -0.000235724 0)
(0.991102 -0.000224003 0)
(0.991538 -0.000212802 0)
(0.991953 -0.000202098 0)
(0.992346 -0.00019187 0)
(0.99272 -0.000182103 0)
(0.993074 -0.00017278 0)
(0.99341 -0.00016389 0)
(0.993729 -0.000155421 0)
(0.994032 -0.000147361 0)
(0.994318 -0.000139699 0)
(0.99459 -0.000132424 0)
(0.994848 -0.000125524 0)
(0.995092 -0.000118986 0)
(0.995323 -0.000112799 0)
(0.995543 -0.000106947 0)
(0.995751 -0.000101418 0)
(0.995948 -9.61973e-05 0)
(0.996135 -9.12693e-05 0)
(0.996313 -8.66198e-05 0)
(0.996481 -8.22342e-05 0)
(0.996641 -7.80982e-05 0)
(0.996794 -7.41976e-05 0)
(0.996938 -7.05188e-05 0)
(0.997075 -6.70487e-05 0)
(0.997206 -6.37744e-05 0)
(0.99733 -6.06837e-05 0)
(0.997449 -5.77651e-05 0)
(0.997561 -5.50072e-05 0)
(0.997669 -5.23994e-05 0)
(0.997771 -4.99317e-05 0)
(0.997868 -4.75943e-05 0)
(0.997961 -4.53782e-05 0)
(0.99805 -4.32748e-05 0)
(0.998134 -4.1276e-05 0)
(0.998215 -3.93745e-05 0)
(0.998291 -3.75631e-05 0)
(0.998365 -3.58356e-05 0)
(0.998435 -3.41861e-05 0)
(0.998501 -3.26092e-05 0)
(0.998565 -3.11002e-05 0)
(0.998626 -2.96547e-05 0)
(0.998684 -2.82689e-05 0)
(0.998739 -2.69394e-05 0)
(0.998791 -2.56632e-05 0)
(0.998841 -2.44376e-05 0)
(0.998889 -2.32605e-05 0)
(0.998934 -2.21296e-05 0)
(0.998978 -2.10433e-05 0)
(0.999019 -1.99999e-05 0)
(0.999057 -1.89981e-05 0)
(0.999094 -1.80367e-05 0)
(0.99913 -1.71144e-05 0)
(0.999163 -1.62302e-05 0)
(0.999194 -1.53833e-05 0)
(0.999224 -1.45726e-05 0)
(0.999253 -1.37973e-05 0)
(0.99928 -1.30566e-05 0)
(0.999305 -1.23496e-05 0)
(0.999329 -1.16755e-05 0)
(0.999352 -1.10335e-05 0)
(0.999373 -1.04229e-05 0)
(0.999393 -9.84268e-06 0)
(0.999412 -9.29213e-06 0)
(0.99943 -8.77039e-06 0)
(0.999447 -8.27662e-06 0)
(0.999463 -7.80996e-06 0)
(0.999479 -7.36956e-06 0)
(0.999493 -6.95454e-06 0)
(0.999506 -6.56406e-06 0)
(0.999519 -6.19722e-06 0)
(0.999531 -5.85318e-06 0)
(0.999543 -5.53106e-06 0)
(0.999553 -5.22999e-06 0)
(0.999563 -4.94911e-06 0)
(0.999573 -4.68758e-06 0)
(0.999582 -4.44454e-06 0)
(0.999591 -4.21915e-06 0)
(0.999599 -4.01059e-06 0)
(0.999607 -3.81803e-06 0)
(0.999614 -3.64065e-06 0)
(0.999621 -3.47768e-06 0)
(0.999628 -3.3283e-06 0)
(0.999635 -3.19177e-06 0)
(0.999641 -3.06731e-06 0)
(0.999647 -2.95419e-06 0)
(0.999653 -2.85169e-06 0)
(0.999658 -2.75909e-06 0)
(0.999664 -2.67572e-06 0)
(0.999669 -2.6009e-06 0)
(0.999674 -2.53398e-06 0)
(0.999679 -2.47435e-06 0)
(0.999684 -2.42141e-06 0)
(0.999689 -2.37456e-06 0)
(0.999694 -2.33327e-06 0)
(0.999698 -2.29699e-06 0)
(0.999703 -2.26522e-06 0)
(0.999707 -2.23747e-06 0)
(0.999712 -2.2133e-06 0)
(0.999716 -2.19226e-06 0)
(0.99972 -2.17393e-06 0)
(0.999725 -2.15794e-06 0)
(0.999729 -2.14391e-06 0)
(0.999733 -2.1315e-06 0)
(0.999738 -2.12038e-06 0)
(0.999742 -2.11025e-06 0)
(0.999746 -2.10081e-06 0)
(0.99975 -2.0918e-06 0)
(0.999754 -2.08295e-06 0)
(0.999759 -2.07403e-06 0)
(0.999763 -2.06482e-06 0)
(0.999767 -2.05509e-06 0)
(0.999771 -2.04466e-06 0)
(0.999775 -2.03332e-06 0)
(0.999779 -2.02092e-06 0)
(0.999783 -2.00727e-06 0)
(0.999787 -1.99223e-06 0)
(0.999791 -1.97566e-06 0)
(0.999795 -1.95742e-06 0)
(0.999799 -1.9374e-06 0)
(0.999803 -1.91551e-06 0)
(0.999807 -1.89164e-06 0)
(0.99981 -1.86574e-06 0)
(0.999814 -1.83774e-06 0)
(0.999818 -1.80762e-06 0)
(0.999821 -1.77536e-06 0)
(0.999825 -1.74098e-06 0)
(0.999828 -1.70451e-06 0)
(0.999832 -1.66602e-06 0)
(0.999835 -1.62559e-06 0)
(0.999838 -1.58335e-06 0)
(0.999841 -1.53945e-06 0)
(0.999844 -1.49406e-06 0)
(0.999847 -1.44739e-06 0)
(0.99985 -1.39968e-06 0)
(0.999853 -1.35117e-06 0)
(0.999855 -1.30215e-06 0)
(0.999858 -1.2529e-06 0)
(0.99986 -1.20372e-06 0)
(0.999863 -1.1549e-06 0)
(0.999865 -1.10673e-06 0)
(0.999867 -1.0595e-06 0)
(0.999869 -1.01347e-06 0)
(0.999871 -9.68855e-07 0)
(0.999873 -9.25874e-07 0)
(0.999875 -8.84698e-07 0)
(0.999877 -8.45469e-07 0)
(0.999878 -8.08302e-07 0)
(0.99988 -7.73285e-07 0)
(0.999881 -7.40493e-07 0)
(0.999883 -7.09989e-07 0)
(0.999884 -6.81831e-07 0)
(0.999886 -6.56082e-07 0)
(0.999887 -6.32809e-07 0)
(0.999888 -6.12084e-07 0)
(0.999889 -5.93976e-07 0)
(0.999891 -5.78547e-07 0)
(0.999892 -5.65828e-07 0)
(0.999893 -5.55812e-07 0)
(0.999894 -5.48423e-07 0)
(0.999895 -5.43509e-07 0)
(0.999896 -5.40818e-07 0)
(0.999897 -5.39994e-07 0)
(0.999898 -5.40577e-07 0)
(0.999899 -5.42017e-07 0)
(0.9999 -5.43699e-07 0)
(0.999901 -5.44982e-07 0)
(0.999903 -5.45247e-07 0)
(0.999904 -5.43952e-07 0)
(0.999905 -5.4068e-07 0)
(0.999906 -5.35195e-07 0)
(0.999907 -5.27468e-07 0)
(0.999908 -5.17694e-07 0)
(0.999909 -5.06287e-07 0)
(0.99991 -4.93844e-07 0)
(0.999911 -4.81103e-07 0)
(0.999912 -4.68871e-07 0)
(0.999913 -4.57961e-07 0)
(0.999914 -4.49115e-07 0)
(0.999915 -4.4295e-07 0)
(0.999916 -4.39907e-07 0)
(0.999916 -4.40229e-07 0)
(0.999917 -4.43948e-07 0)
(0.999918 -4.50898e-07 0)
(0.999919 -4.60742e-07 0)
(0.99992 -4.73005e-07 0)
(0.999921 -4.87117e-07 0)
(0.999922 -5.02456e-07 0)
(0.999923 -5.18384e-07 0)
(0.999924 -5.34289e-07 0)
(0.999925 -5.49609e-07 0)
(0.999926 -5.63853e-07 0)
(0.999928 -5.76612e-07 0)
(0.999929 -5.87572e-07 0)
(0.99993 -5.96505e-07 0)
(0.999931 -6.03271e-07 0)
(0.999932 -6.07808e-07 0)
(0.999934 -6.10122e-07 0)
(0.999935 -6.10274e-07 0)
(0.999936 -6.08373e-07 0)
(0.999937 -6.0456e-07 0)
(0.999939 -5.99001e-07 0)
(0.99994 -5.91875e-07 0)
(0.999941 -5.83371e-07 0)
(0.999942 -5.73677e-07 0)
(0.999943 -5.62977e-07 0)
(0.999944 -5.51447e-07 0)
(0.999945 -5.39252e-07 0)
(0.999946 -5.26546e-07 0)
(0.999947 -5.13465e-07 0)
(0.999948 -5.00136e-07 0)
(0.999949 -4.86669e-07 0)
(0.99995 -4.7316e-07 0)
(0.999951 -4.59692e-07 0)
(0.999952 -4.46339e-07 0)
(0.999953 -4.33159e-07 0)
(0.999954 -4.20202e-07 0)
(0.999955 -4.07511e-07 0)
(0.999956 -3.95116e-07 0)
(0.999956 -3.83043e-07 0)
(0.999957 -3.71312e-07 0)
(0.999958 -3.59935e-07 0)
(0.999959 -3.48922e-07 0)
(0.999959 -3.38277e-07 0)
(0.99996 -3.28001e-07 0)
(0.999961 -3.18094e-07 0)
(0.999961 -3.08551e-07 0)
(0.999962 -2.99366e-07 0)
(0.999962 -2.90531e-07 0)
(0.999963 -2.8204e-07 0)
(0.999964 -2.73881e-07 0)
(0.999964 -2.66044e-07 0)
(0.999965 -2.5852e-07 0)
(0.999965 -2.51295e-07 0)
(0.999966 -2.44361e-07 0)
(0.999966 -2.37704e-07 0)
(0.999967 -2.31314e-07 0)
(0.999967 -2.2518e-07 0)
(0.999967 -2.1929e-07 0)
(0.999968 -2.13633e-07 0)
(0.999968 -2.082e-07 0)
(0.999969 -2.02979e-07 0)
(0.999969 -1.97961e-07 0)
(0.99997 -1.93137e-07 0)
(0.99997 -1.88497e-07 0)
(0.99997 -1.84032e-07 0)
(0.999971 -1.79733e-07 0)
(0.999971 -1.75593e-07 0)
(0.999971 -1.71604e-07 0)
(0.999972 -1.67759e-07 0)
(0.999972 -1.64049e-07 0)
(0.999972 -1.60469e-07 0)
(0.999973 -1.57012e-07 0)
(0.999973 -1.53671e-07 0)
(0.999973 -1.50442e-07 0)
(0.999974 -1.47317e-07 0)
(0.999974 -1.44293e-07 0)
(0.999974 -1.41364e-07 0)
(0.999974 -1.38526e-07 0)
(0.999975 -1.35773e-07 0)
(0.999975 -1.33102e-07 0)
(0.999975 -1.30508e-07 0)
(0.999975 -1.27988e-07 0)
(0.999976 -1.25537e-07 0)
(0.999976 -1.23153e-07 0)
(0.999976 -1.20833e-07 0)
(0.999976 -1.18573e-07 0)
(0.999977 -1.16369e-07 0)
(0.999977 -1.14221e-07 0)
(0.999977 -1.12123e-07 0)
(0.999977 -1.10076e-07 0)
(0.999978 -1.08075e-07 0)
(0.999978 -1.06118e-07 0)
(0.999978 -1.04205e-07 0)
(0.999978 -1.02331e-07 0)
(0.999978 -1.00497e-07 0)
(0.999979 -9.86988e-08 0)
(0.999979 -9.6936e-08 0)
(0.999979 -9.52067e-08 0)
(0.999979 -9.35093e-08 0)
(0.999979 -9.18421e-08 0)
(0.99998 -9.02049e-08 0)
(0.99998 -8.85921e-08 0)
(0.99998 -8.70199e-08 0)
(0.99998 -8.54126e-08 0)
(0.99998 -8.40899e-08 0)
(0.99998 -8.1666e-08 0)
(-0.0278282 0.0444788 0)
(-0.0249137 0.022626 0)
(-0.0742476 0.0310734 0)
(-0.0962671 0.00834033 0)
(-0.0236331 -0.0026521 0)
(0.0084172 0.050079 0)
(0.0432071 -0.00397002 0)
(0.0464673 -0.106788 0)
(0.11496 -0.10674 0)
(0.127324 -0.0662979 0)
(0.124127 -0.0319847 0)
(0.147546 -0.0122907 0)
(0.217591 0.00303759 0)
(0.196102 0.0510441 0)
(0.239209 0.0739078 0)
(0.256824 0.0728007 0)
(0.251943 0.0526818 0)
(0.250491 0.0297764 0)
(0.247421 0.00722116 0)
(0.236379 -0.00681268 0)
(0.220824 -0.0108364 0)
(0.208336 -0.00902816 0)
(0.202853 -0.00707734 0)
(0.203767 -0.00583292 0)
(0.207757 -0.00383265 0)
(0.211748 -0.0018001 0)
(0.215741 -0.000386357 0)
(0.221566 -0.000755499 0)
(0.229763 -0.00267054 0)
(0.239309 -0.00454436 0)
(0.249505 -0.00573206 0)
(0.260686 -0.00694541 0)
(0.273238 -0.00872317 0)
(0.28699 -0.0108701 0)
(0.301259 -0.0129024 0)
(0.315146 -0.0143797 0)
(0.327925 -0.0150982 0)
(0.339258 -0.0151499 0)
(0.349139 -0.0148041 0)
(0.357775 -0.0143505 0)
(0.365517 -0.0140007 0)
(0.372767 -0.0138664 0)
(0.379873 -0.0139726 0)
(0.387056 -0.0142679 0)
(0.394396 -0.0146266 0)
(0.401836 -0.0148772 0)
(0.409227 -0.0148616 0)
(0.416366 -0.0145292 0)
(0.423112 -0.0141037 0)
(0.429549 -0.0139009 0)
(0.435955 -0.0138893 0)
(0.442559 -0.0140245 0)
(0.4495 -0.0142898 0)
(0.456815 -0.0146465 0)
(0.464429 -0.0150263 0)
(0.472191 -0.015353 0)
(0.479932 -0.0155694 0)
(0.487523 -0.0156492 0)
(0.494916 -0.0155938 0)
(0.502146 -0.0154256 0)
(0.509305 -0.0151782 0)
(0.516507 -0.0148853 0)
(0.523851 -0.014572 0)
(0.531394 -0.0142401 0)
(0.539123 -0.0138381 0)
(0.546866 -0.0132483 0)
(0.554381 -0.0125555 0)
(0.561681 -0.012079 0)
(0.568988 -0.011859 0)
(0.576415 -0.0117806 0)
(0.583966 -0.0117833 0)
(0.591651 -0.0118461 0)
(0.599493 -0.0119501 0)
(0.607502 -0.0120697 0)
(0.615671 -0.0121688 0)
(0.623952 -0.012201 0)
(0.632249 -0.0121501 0)
(0.640506 -0.0121068 0)
(0.648767 -0.0121481 0)
(0.657109 -0.0122511 0)
(0.665556 -0.0123636 0)
(0.67409 -0.0124431 0)
(0.682662 -0.0124546 0)
(0.691192 -0.0123762 0)
(0.699594 -0.0122254 0)
(0.70783 -0.0120756 0)
(0.715945 -0.0119738 0)
(0.723989 -0.0118966 0)
(0.73197 -0.0118022 0)
(0.739855 -0.0116705 0)
(0.747614 -0.011514 0)
(0.755247 -0.0113606 0)
(0.762774 -0.0112165 0)
(0.770205 -0.0110666 0)
(0.777532 -0.0109023 0)
(0.784741 -0.0107293 0)
(0.791834 -0.0105556 0)
(0.798811 -0.0103805 0)
(0.805673 -0.0102 0)
(0.812412 -0.010014 0)
(0.819027 -0.00982466 0)
(0.825515 -0.0096316 0)
(0.831874 -0.00943372 0)
(0.8381 -0.00923112 0)
(0.844189 -0.00902421 0)
(0.850139 -0.00881299 0)
(0.855946 -0.00859761 0)
(0.861609 -0.00837858 0)
(0.867124 -0.00815643 0)
(0.872489 -0.00793171 0)
(0.877704 -0.00770506 0)
(0.882766 -0.00747716 0)
(0.887676 -0.00724867 0)
(0.892433 -0.00702026 0)
(0.897037 -0.00679254 0)
(0.901489 -0.00656608 0)
(0.905791 -0.0063414 0)
(0.909943 -0.006119 0)
(0.913948 -0.00589928 0)
(0.917807 -0.00568263 0)
(0.921522 -0.0054694 0)
(0.925096 -0.0052599 0)
(0.928532 -0.00505441 0)
(0.931832 -0.00485318 0)
(0.934999 -0.00465644 0)
(0.938036 -0.00446441 0)
(0.940946 -0.00427727 0)
(0.943734 -0.0040952 0)
(0.946401 -0.00391836 0)
(0.948953 -0.00374685 0)
(0.951391 -0.0035808 0)
(0.953721 -0.00342026 0)
(0.955946 -0.00326529 0)
(0.958069 -0.0031159 0)
(0.960094 -0.00297207 0)
(0.962026 -0.00283376 0)
(0.963867 -0.00270092 0)
(0.965621 -0.00257347 0)
(0.967292 -0.00245133 0)
(0.968884 -0.00233439 0)
(0.970399 -0.00222255 0)
(0.971842 -0.00211569 0)
(0.973215 -0.00201367 0)
(0.974521 -0.00191634 0)
(0.975765 -0.00182356 0)
(0.976948 -0.00173516 0)
(0.978074 -0.00165098 0)
(0.979145 -0.00157084 0)
(0.980164 -0.00149458 0)
(0.981133 -0.00142202 -1.75953e-41)
(0.982056 -0.001353 -1.68417e-41)
(0.982933 -0.00128734 0)
(0.983768 -0.00122488 0)
(0.984563 -0.00116546 0)
(0.985319 -0.00110893 0)
(0.986038 -0.00105513 0)
(0.986723 -0.00100392 0)
(0.987374 -0.000955157 0)
(0.987994 -0.000908697 0)
(0.988583 -0.000864409 0)
(0.989144 -0.000822168 0)
(0.989677 -0.000781856 0)
(0.990184 -0.000743365 0)
(0.990666 -0.000706594 0)
(0.991124 -0.000671456 0)
(0.99156 -0.000637874 0)
(0.991973 -0.000605779 0)
(0.992366 -0.000575113 0)
(0.992738 -0.000545826 0)
(0.993092 -0.000517876 0)
(0.993427 -0.000491223 0)
(0.993745 -0.000465832 0)
(0.994047 -0.000441669 0)
(0.994333 -0.000418701 0)
(0.994604 -0.000396895 0)
(0.994861 -0.000376214 0)
(0.995104 -0.000356622 0)
(0.995335 -0.000338079 0)
(0.995554 -0.000320544 0)
(0.995761 -0.000303975 0)
(0.995958 -0.000288329 0)
(0.996145 -0.000273561 0)
(0.996322 -0.000259628 0)
(0.99649 -0.000246485 0)
(0.996649 -0.000234089 0)
(0.996801 -0.0002224 0)
(0.996945 -0.000211374 0)
(0.997082 -0.000200974 0)
(0.997212 -0.000191161 0)
(0.997336 -0.000181898 0)
(0.997454 -0.000173151 0)
(0.997567 -0.000164886 0)
(0.997674 -0.000157071 0)
(0.997776 -0.000149675 0)
(0.997873 -0.00014267 0)
(0.997965 -0.000136029 0)
(0.998054 -0.000129726 0)
(0.998138 -0.000123736 0)
(0.998218 -0.000118037 0)
(0.998295 -0.000112609 0)
(0.998368 -0.000107432 0)
(0.998438 -0.000102488 0)
(0.998505 -9.7762e-05 0)
(0.998568 -9.3239e-05 0)
(0.998629 -8.89061e-05 0)
(0.998686 -8.47519e-05 0)
(0.998741 -8.07663e-05 0)
(0.998794 -7.69401e-05 0)
(0.998844 -7.32657e-05 0)
(0.998891 -6.9736e-05 0)
(0.998937 -6.6345e-05 0)
(0.99898 -6.30874e-05 0)
(0.999021 -5.99586e-05 0)
(0.999059 -5.69543e-05 0)
(0.999096 -5.40709e-05 0)
(0.999131 -5.13049e-05 0)
(0.999165 -4.86533e-05 0)
(0.999196 -4.61133e-05 0)
(0.999226 -4.3682e-05 0)
(0.999254 -4.13569e-05 0)
(0.999281 -3.91355e-05 0)
(0.999306 -3.70153e-05 0)
(0.99933 -3.49939e-05 0)
(0.999353 -3.30688e-05 0)
(0.999374 -3.12377e-05 0)
(0.999394 -2.94979e-05 0)
(0.999413 -2.78471e-05 0)
(0.999431 -2.62828e-05 0)
(0.999448 -2.48024e-05 0)
(0.999464 -2.34033e-05 0)
(0.999479 -2.2083e-05 0)
(0.999494 -2.08388e-05 0)
(0.999507 -1.96683e-05 0)
(0.99952 -1.85687e-05 0)
(0.999532 -1.75375e-05 0)
(0.999543 -1.6572e-05 0)
(0.999554 -1.56697e-05 0)
(0.999564 -1.48279e-05 0)
(0.999574 -1.40442e-05 0)
(0.999583 -1.33159e-05 0)
(0.999591 -1.26406e-05 0)
(0.999599 -1.20157e-05 0)
(0.999607 -1.14389e-05 0)
(0.999615 -1.09075e-05 0)
(0.999622 -1.04194e-05 0)
(0.999628 -9.97206e-06 0)
(0.999635 -9.56321e-06 0)
(0.999641 -9.19059e-06 0)
(0.999647 -8.85196e-06 0)
(0.999653 -8.54515e-06 0)
(0.999659 -8.26805e-06 0)
(0.999664 -8.01859e-06 0)
(0.999669 -7.79477e-06 0)
(0.999674 -7.59466e-06 0)
(0.999679 -7.41637e-06 0)
(0.999684 -7.25811e-06 0)
(0.999689 -7.11813e-06 0)
(0.999694 -6.99477e-06 0)
(0.999698 -6.88644e-06 0)
(0.999703 -6.79162e-06 0)
(0.999707 -6.70885e-06 0)
(0.999712 -6.63676e-06 0)
(0.999716 -6.57404e-06 0)
(0.99972 -6.51946e-06 0)
(0.999725 -6.47185e-06 0)
(0.999729 -6.43012e-06 0)
(0.999733 -6.39321e-06 0)
(0.999738 -6.36016e-06 0)
(0.999742 -6.33004e-06 0)
(0.999746 -6.302e-06 0)
(0.99975 -6.27521e-06 0)
(0.999754 -6.24891e-06 0)
(0.999759 -6.22239e-06 0)
(0.999763 -6.19496e-06 0)
(0.999767 -6.16599e-06 0)
(0.999771 -6.13487e-06 0)
(0.999775 -6.10105e-06 0)
(0.999779 -6.06399e-06 0)
(0.999783 -6.0232e-06 0)
(0.999787 -5.97822e-06 0)
(0.999791 -5.92863e-06 0)
(0.999795 -5.87403e-06 0)
(0.999799 -5.81409e-06 0)
(0.999803 -5.74848e-06 0)
(0.999807 -5.67696e-06 0)
(0.99981 -5.5993e-06 0)
(0.999814 -5.51534e-06 0)
(0.999818 -5.42499e-06 0)
(0.999821 -5.32821e-06 0)
(0.999825 -5.22503e-06 0)
(0.999828 -5.11555e-06 0)
(0.999832 -4.99998e-06 0)
(0.999835 -4.87857e-06 0)
(0.999838 -4.7517e-06 0)
(0.999841 -4.61981e-06 0)
(0.999844 -4.48343e-06 0)
(0.999847 -4.3432e-06 0)
(0.99985 -4.1998e-06 0)
(0.999853 -4.05402e-06 0)
(0.999856 -3.90667e-06 0)
(0.999858 -3.75863e-06 0)
(0.999861 -3.61079e-06 0)
(0.999863 -3.46403e-06 0)
(0.999865 -3.31925e-06 0)
(0.999867 -3.17727e-06 0)
(0.999869 -3.03888e-06 0)
(0.999871 -2.90479e-06 0)
(0.999873 -2.77561e-06 0)
(0.999875 -2.65189e-06 0)
(0.999877 -2.53406e-06 0)
(0.999878 -2.42247e-06 0)
(0.99988 -2.3174e-06 0)
(0.999882 -2.21906e-06 0)
(0.999883 -2.12764e-06 0)
(0.999884 -2.04327e-06 0)
(0.999886 -1.96611e-06 0)
(0.999887 -1.89629e-06 0)
(0.999888 -1.83396e-06 0)
(0.999889 -1.77929e-06 0)
(0.999891 -1.73239e-06 0)
(0.999892 -1.69334e-06 0)
(0.999893 -1.66211e-06 0)
(0.999894 -1.63853e-06 0)
(0.999895 -1.6222e-06 0)
(0.999896 -1.61249e-06 0)
(0.999897 -1.60848e-06 0)
(0.999898 -1.60896e-06 0)
(0.999899 -1.61246e-06 0)
(0.9999 -1.61731e-06 0)
(0.999901 -1.62174e-06 0)
(0.999903 -1.62401e-06 0)
(0.999904 -1.62258e-06 0)
(0.999905 -1.61621e-06 0)
(0.999906 -1.60415e-06 0)
(0.999907 -1.5862e-06 0)
(0.999908 -1.56277e-06 0)
(0.999909 -1.53484e-06 0)
(0.99991 -1.50394e-06 0)
(0.999911 -1.47199e-06 0)
(0.999912 -1.4411e-06 0)
(0.999913 -1.41345e-06 0)
(0.999914 -1.39105e-06 0)
(0.999915 -1.37557e-06 0)
(0.999916 -1.36827e-06 0)
(0.999916 -1.36986e-06 0)
(0.999917 -1.38049e-06 0)
(0.999918 -1.3998e-06 0)
(0.999919 -1.42692e-06 0)
(0.99992 -1.46063e-06 0)
(0.999921 -1.4994e-06 0)
(0.999922 -1.54155e-06 0)
(0.999923 -1.58535e-06 0)
(0.999924 -1.62912e-06 0)
(0.999925 -1.67127e-06 0)
(0.999926 -1.71042e-06 0)
(0.999928 -1.74541e-06 0)
(0.999929 -1.77534e-06 0)
(0.99993 -1.79952e-06 0)
(0.999931 -1.81754e-06 0)
(0.999932 -1.8292e-06 0)
(0.999934 -1.83449e-06 0)
(0.999935 -1.83356e-06 0)
(0.999936 -1.82671e-06 0)
(0.999937 -1.81434e-06 0)
(0.999939 -1.7969e-06 0)
(0.99994 -1.77491e-06 0)
(0.999941 -1.74892e-06 0)
(0.999942 -1.71945e-06 0)
(0.999943 -1.68706e-06 0)
(0.999944 -1.65224e-06 0)
(0.999945 -1.61548e-06 0)
(0.999946 -1.57724e-06 0)
(0.999948 -1.53791e-06 0)
(0.999949 -1.49786e-06 0)
(0.99995 -1.45742e-06 0)
(0.99995 -1.41687e-06 0)
(0.999951 -1.37647e-06 0)
(0.999952 -1.33641e-06 0)
(0.999953 -1.29689e-06 0)
(0.999954 -1.25805e-06 0)
(0.999955 -1.22001e-06 0)
(0.999956 -1.18286e-06 0)
(0.999956 -1.14668e-06 0)
(0.999957 -1.11153e-06 0)
(0.999958 -1.07745e-06 0)
(0.999959 -1.04445e-06 0)
(0.999959 -1.01257e-06 0)
(0.99996 -9.81791e-07 0)
(0.999961 -9.52118e-07 0)
(0.999961 -9.23538e-07 0)
(0.999962 -8.96032e-07 0)
(0.999962 -8.69578e-07 0)
(0.999963 -8.44151e-07 0)
(0.999964 -8.19721e-07 0)
(0.999964 -7.96257e-07 0)
(0.999965 -7.73728e-07 0)
(0.999965 -7.521e-07 0)
(0.999966 -7.31339e-07 0)
(0.999966 -7.1141e-07 0)
(0.999967 -6.92281e-07 0)
(0.999967 -6.73916e-07 0)
(0.999967 -6.56284e-07 0)
(0.999968 -6.39351e-07 0)
(0.999968 -6.23087e-07 0)
(0.999969 -6.0746e-07 0)
(0.999969 -5.9244e-07 0)
(0.99997 -5.77999e-07 0)
(0.99997 -5.64109e-07 0)
(0.99997 -5.50744e-07 0)
(0.999971 -5.37878e-07 0)
(0.999971 -5.25487e-07 0)
(0.999971 -5.13547e-07 0)
(0.999972 -5.02037e-07 0)
(0.999972 -4.90933e-07 0)
(0.999972 -4.80218e-07 0)
(0.999973 -4.6987e-07 0)
(0.999973 -4.59872e-07 0)
(0.999973 -4.50205e-07 0)
(0.999974 -4.40855e-07 0)
(0.999974 -4.31804e-07 0)
(0.999974 -4.23037e-07 0)
(0.999974 -4.14541e-07 0)
(0.999975 -4.06302e-07 0)
(0.999975 -3.98307e-07 0)
(0.999975 -3.90544e-07 0)
(0.999975 -3.83001e-07 0)
(0.999976 -3.75667e-07 0)
(0.999976 -3.68533e-07 0)
(0.999976 -3.61588e-07 0)
(0.999976 -3.54822e-07 0)
(0.999977 -3.48228e-07 0)
(0.999977 -3.41797e-07 0)
(0.999977 -3.3552e-07 0)
(0.999977 -3.29391e-07 0)
(0.999978 -3.23402e-07 0)
(0.999978 -3.17547e-07 0)
(0.999978 -3.11819e-07 0)
(0.999978 -3.06212e-07 0)
(0.999978 -3.00721e-07 0)
(0.999979 -2.9534e-07 0)
(0.999979 -2.90064e-07 0)
(0.999979 -2.84888e-07 0)
(0.999979 -2.79808e-07 0)
(0.999979 -2.74818e-07 0)
(0.99998 -2.69917e-07 0)
(0.99998 -2.6509e-07 0)
(0.99998 -2.60384e-07 0)
(0.99998 -2.55573e-07 0)
(0.99998 -2.51613e-07 0)
(0.99998 -2.44374e-07 0)
(-0.0234021 0.0681175 0)
(-0.00528795 0.0518413 0)
(-0.0736931 0.0740094 0)
(-0.0915875 0.0473143 0)
(-0.135117 -0.0715809 0)
(-0.137014 -0.120662 0)
(-0.0741767 -0.144474 0)
(-0.0790303 -0.15953 0)
(-0.0288419 -0.134026 0)
(0.00758034 -0.0882641 0)
(0.0634565 -0.0587411 0)
(0.0857202 -0.0390624 0)
(0.100976 -0.0282977 0)
(0.123743 -0.0169561 0)
(0.164867 -0.0122382 0)
(0.200732 -0.0142273 0)
(0.222237 -0.00805027 0)
(0.230558 0.00349091 0)
(0.224419 0.0112958 0)
(0.211105 0.0142183 0)
(0.202513 0.0116601 0)
(0.203556 0.00296791 0)
(0.212629 -0.00755057 0)
(0.227705 -0.01404 0)
(0.245039 -0.0131183 0)
(0.263998 -0.0127667 0)
(0.289076 -0.0156233 0)
(0.317153 -0.0203005 0)
(0.340205 -0.0226867 0)
(0.357772 -0.0228611 0)
(0.372413 -0.0229948 0)
(0.38507 -0.0240835 0)
(0.395848 -0.0258358 0)
(0.405147 -0.0276613 0)
(0.413272 -0.0290299 0)
(0.420641 -0.0295057 0)
(0.4279 -0.0288995 0)
(0.435531 -0.0273167 0)
(0.443625 -0.0251067 0)
(0.451993 -0.0227252 0)
(0.460344 -0.0205912 0)
(0.468399 -0.0189838 0)
(0.47598 -0.0180059 0)
(0.483074 -0.0175977 0)
(0.489888 -0.0175789 0)
(0.49681 -0.017695 0)
(0.504117 -0.0176838 0)
(0.511707 -0.0171813 0)
(0.519103 -0.0162093 0)
(0.525921 -0.0157311 0)
(0.532389 -0.0158317 0)
(0.538523 -0.0164524 0)
(0.544292 -0.0174536 0)
(0.549667 -0.0185751 0)
(0.554586 -0.0195209 0)
(0.558977 -0.0200776 0)
(0.562781 -0.0201965 0)
(0.565973 -0.019999 0)
(0.56857 -0.0197061 0)
(0.570642 -0.0195345 0)
(0.572313 -0.0196131 0)
(0.573733 -0.019947 0)
(0.57506 -0.0204371 0)
(0.576455 -0.0208966 0)
(0.578097 -0.0210472 0)
(0.579969 -0.0204725 0)
(0.5819 -0.0195178 0)
(0.584051 -0.0190548 0)
(0.586899 -0.0189337 0)
(0.590586 -0.0189182 0)
(0.595008 -0.0189971 0)
(0.600078 -0.0191874 0)
(0.60574 -0.0194757 0)
(0.611936 -0.0198262 0)
(0.618617 -0.0201763 0)
(0.625687 -0.0204098 0)
(0.632936 -0.0204168 0)
(0.640225 -0.0204112 0)
(0.647667 -0.0205695 0)
(0.655414 -0.0208331 0)
(0.663493 -0.0210988 0)
(0.671861 -0.0212867 0)
(0.680444 -0.0213243 0)
(0.689111 -0.0211471 0)
(0.697681 -0.0207726 0)
(0.706071 -0.0204083 0)
(0.714371 -0.0201796 0)
(0.722675 -0.0200131 0)
(0.730964 -0.0198101 0)
(0.739147 -0.0195312 0)
(0.747145 -0.0192141 0)
(0.754957 -0.0189313 0)
(0.762633 -0.0186896 0)
(0.770196 -0.0184429 0)
(0.777624 -0.0181664 0)
(0.784898 -0.0178751 0)
(0.792027 -0.0175883 0)
(0.79903 -0.0173014 0)
(0.805908 -0.0170024 0)
(0.812655 -0.0166927 0)
(0.819273 -0.0163782 0)
(0.825764 -0.0160579 0)
(0.832126 -0.0157287 0)
(0.838354 -0.0153915 0)
(0.844447 -0.0150471 0)
(0.850401 -0.0146952 0)
(0.856214 -0.0143359 0)
(0.861881 -0.0139704 0)
(0.8674 -0.0135994 0)
(0.872769 -0.0132241 0)
(0.877987 -0.0128455 0)
(0.883051 -0.0124648 0)
(0.887962 -0.0120832 0)
(0.89272 -0.0117018 0)
(0.897323 -0.0113216 0)
(0.901775 -0.0109435 0)
(0.906075 -0.0105684 0)
(0.910224 -0.0101972 0)
(0.914226 -0.00983052 0)
(0.918081 -0.009469 0)
(0.921792 -0.00911321 0)
(0.925362 -0.00876366 0)
(0.928792 -0.00842082 0)
(0.932087 -0.00808511 0)
(0.935248 -0.00775692 0)
(0.938279 -0.0074366 0)
(0.941184 -0.00712445 0)
(0.943965 -0.00682078 0)
(0.946626 -0.00652583 0)
(0.949171 -0.00623983 0)
(0.951602 -0.00596293 0)
(0.953925 -0.00569527 0)
(0.956143 -0.00543692 0)
(0.958259 -0.00518789 0)
(0.960277 -0.00494815 0)
(0.962202 -0.00471765 0)
(0.964036 -0.00449628 0)
(0.965783 -0.00428392 0)
(0.967448 -0.00408042 0)
(0.969033 -0.00388561 0)
(0.970542 -0.00369931 0)
(0.971978 -0.00352131 0)
(0.973345 -0.00335139 0)
(0.974645 -0.00318932 0)
(0.975883 -0.00303483 0)
(0.977061 -0.00288765 0)
(0.978181 -0.00274751 0)
(0.979247 -0.00261411 0)
(0.980261 -0.00248717 0)
(0.981226 -0.0023664 0)
(0.982144 -0.00225152 0)
(0.983017 -0.00214225 0)
(0.983848 -0.0020383 0)
(0.984639 -0.00193943 0)
(0.985391 -0.00184536 0)
(0.986107 -0.00175585 0)
(0.986789 -0.00167065 0)
(0.987437 -0.00158952 0)
(0.988053 -0.00151222 0)
(0.98864 -0.00143854 0)
(0.989198 -0.00136826 0)
(0.989729 -0.00130119 0)
(0.990234 -0.00123714 0)
(0.990714 -0.00117595 0)
(0.99117 -0.00111747 0)
(0.991603 -0.00106157 0)
(0.992015 -0.00100814 0)
(0.992405 -0.00095708 0)
(0.992776 -0.000908311 0)
(0.993128 -0.000861762 0)
(0.993462 -0.000817371 0)
(0.993778 -0.00077508 0)
(0.994078 -0.000734836 0)
(0.994363 -0.000696585 0)
(0.994632 -0.000660271 0)
(0.994888 -0.000625835 0)
(0.99513 -0.000593216 0)
(0.995359 -0.000562348 0)
(0.995576 -0.000533164 0)
(0.995783 -0.000505592 0)
(0.995978 -0.00047956 0)
(0.996164 -0.000454993 0)
(0.99634 -0.000431818 0)
(0.996507 -0.00040996 0)
(0.996665 -0.000389348 0)
(0.996816 -0.000369911 0)
(0.996959 -0.00035158 0)
(0.997096 -0.00033429 0)
(0.997225 -0.000317977 0)
(0.997348 -0.00030258 0)
(0.997466 -0.00028804 0)
(0.997577 -0.000274301 0)
(0.997684 -0.000261311 0)
(0.997785 -0.000249018 0)
(0.997882 -0.000237375 0)
(0.997974 -0.000226336 0)
(0.998062 -0.000215858 0)
(0.998146 -0.0002059 0)
(0.998226 -0.000196426 0)
(0.998302 -0.000187401 0)
(0.998375 -0.000178792 0)
(0.998444 -0.000170571 0)
(0.998511 -0.00016271 0)
(0.998574 -0.000155186 0)
(0.998634 -0.000147977 0)
(0.998692 -0.000141065 0)
(0.998747 -0.000134432 0)
(0.998799 -0.000128064 0)
(0.998849 -0.000121948 0)
(0.998896 -0.000116072 0)
(0.998941 -0.000110427 0)
(0.998984 -0.000105003 0)
(0.999025 -9.97927e-05 0)
(0.999063 -9.47898e-05 0)
(0.9991 -8.9988e-05 0)
(0.999135 -8.53817e-05 0)
(0.999168 -8.09657e-05 0)
(0.999199 -7.67353e-05 0)
(0.999229 -7.26861e-05 0)
(0.999257 -6.88138e-05 0)
(0.999284 -6.51143e-05 0)
(0.999309 -6.15833e-05 0)
(0.999333 -5.8217e-05 0)
(0.999355 -5.50113e-05 0)
(0.999377 -5.1962e-05 0)
(0.999397 -4.90651e-05 0)
(0.999416 -4.63166e-05 0)
(0.999433 -4.37121e-05 0)
(0.99945 -4.12475e-05 0)
(0.999466 -3.89185e-05 0)
(0.999481 -3.67208e-05 0)
(0.999495 -3.465e-05 0)
(0.999509 -3.2702e-05 0)
(0.999521 -3.08722e-05 0)
(0.999533 -2.91563e-05 0)
(0.999544 -2.755e-05 0)
(0.999555 -2.6049e-05 0)
(0.999565 -2.46489e-05 0)
(0.999575 -2.33454e-05 0)
(0.999584 -2.21344e-05 0)
(0.999592 -2.10117e-05 0)
(0.9996 -1.99729e-05 0)
(0.999608 -1.90142e-05 0)
(0.999615 -1.81313e-05 0)
(0.999622 -1.73203e-05 0)
(0.999629 -1.65773e-05 0)
(0.999635 -1.58984e-05 0)
(0.999642 -1.52799e-05 0)
(0.999648 -1.47179e-05 0)
(0.999653 -1.42089e-05 0)
(0.999659 -1.37493e-05 0)
(0.999664 -1.33358e-05 0)
(0.999669 -1.29649e-05 0)
(0.999675 -1.26335e-05 0)