/*--------------------------------*- C++ -*----------------------------------*\
| =========                 |                                                 |
| \\      /  F ield         | OpenFOAM: The Open Source CFD Toolbox           |
|  \\    /   O peration     | Version:  v2006                                 |
|   \\  /    A nd           | Website:  www.openfoam.com                      |
|    \\/     M anipulation  |                                                 |
\*---------------------------------------------------------------------------*/
FoamFile
{
    version     2.0;
    format      ascii;
    class       volScalarField;
    location    "0";
    object      f;
}
// * * * * * * * * * * * * * * * * * * * * * * * * * * * * * * * * * * * * * //

dimensions      [0 0 0 0 0 0 0];


internalField   nonuniform List<scalar> 
2500
(
-6.70254e-17
-6.70372e-17
-6.70521e-17
-6.74985e-17
-6.80558e-17
-7.38508e-17
-8.46475e-17
-1.05017e-16
-1.43073e-16
-8.44018e-16
-8.23186e-16
2.49776e-15
4.75073e-15
-1.77054e-15
-9.97148e-15
-4.81564e-15
1.44818e-14
3.03492e-14
2.54433e-14
-3.34862e-14
-2.17618e-13
-3.46435e-13
-2.9705e-13
8.82404e-15
3.4302e-13
3.00935e-13
9.47465e-14
-4.01194e-14
-1.66141e-13
-1.40812e-13
-7.62476e-14
-2.94152e-14
-6.54199e-15
6.61065e-15
1.06891e-14
5.45426e-15
1.05056e-15
6.34519e-17
1.95432e-17
2.82618e-17
2.46171e-17
1.64852e-17
9.8054e-18
5.57484e-18
3.15262e-18
1.81129e-18
1.06157e-18
6.28116e-19
3.68817e-19
2.11436e-19
4.49124e-15
4.36944e-15
4.70429e-15
4.62393e-15
3.61311e-15
3.94781e-15
5.62657e-15
5.79045e-15
3.7256e-15
-1.59612e-15
7.19188e-15
2.78427e-14
1.21695e-14
-2.43925e-14
-3.62588e-14
7.25046e-15
9.19776e-14
8.2217e-14
-1.97438e-14
-9.87889e-13
-1.62546e-12
-1.76483e-12
-7.85119e-13
2.39007e-12
2.47458e-12
8.86623e-13
-3.29056e-13
-1.84962e-12
-1.46331e-12
-6.93716e-13
-2.25135e-13
-6.0525e-14
9.50618e-14
1.30368e-13
6.5869e-14
1.41286e-14
-4.58326e-16
-4.97118e-16
-5.34762e-17
6.09909e-17
5.68157e-17
3.40748e-17
1.84975e-17
9.90951e-18
5.42191e-18
3.08119e-18
1.81346e-18
1.08375e-18
6.41568e-19
3.68792e-19
6.62649e-14
6.60086e-14
6.75471e-14
6.5429e-14
6.15662e-14
6.78268e-14
7.48068e-14
6.78187e-14
5.12969e-14
4.36476e-14
1.11252e-13
9.53301e-14
-3.84954e-14
-8.56617e-14
-1.05892e-14
3.35817e-13
2.8024e-13
-7.22472e-13
-4.76169e-12
-5.14689e-12
-4.10156e-12
-3.22991e-12
1.19387e-11
1.24859e-11
5.62474e-12
-2.6381e-12
-1.25919e-11
-9.26804e-12
-3.76006e-12
-1.16153e-12
3.35366e-13
1.31056e-12
1.14168e-12
5.34301e-13
1.23744e-13
-1.47127e-14
-1.08126e-14
-2.14331e-15
1.35653e-16
3.18572e-16
1.56957e-16
6.63644e-17
3.1184e-17
1.56757e-17
8.40303e-18
4.82724e-18
2.92081e-18
1.79566e-18
1.08369e-18
6.28038e-19
3.27775e-13
3.29242e-13
3.28809e-13
3.20509e-13
3.27305e-13
3.46992e-13
3.46191e-13
3.00471e-13
2.70746e-13
3.96781e-13
4.60336e-13
1.34139e-13
-3.02863e-13
-1.23758e-13
2.00189e-12
3.29819e-12
-1.47155e-12
-1.70184e-11
-2.44851e-11
-1.18882e-11
2.69256e-11
8.22039e-11
7.45917e-11
2.71133e-11
-3.99484e-11
-9.00292e-11
-6.16649e-11
-1.97355e-11
-8.50447e-13
1.67599e-11
1.69644e-11
1.01188e-11
4.16318e-12
9.33509e-13
-2.72562e-13
-1.71205e-13
-3.56698e-14
8.10014e-16
3.54758e-15
1.52283e-15
3.33851e-16
9.40238e-17
4.16147e-17
2.07748e-17
1.14589e-17
6.98464e-18
4.51602e-18
2.92067e-18
1.81327e-18
1.0614e-18
1.02989e-12
1.03852e-12
1.01936e-12
1.01561e-12
1.07762e-12
1.0847e-12
1.02114e-12
9.00543e-13
1.00825e-12
1.45021e-12
1.10433e-12
-5.78147e-13
-7.79176e-13
4.25507e-12
1.2505e-11
1.00561e-11
-2.45933e-11
-7.12919e-11
-5.5918e-11
1.66743e-10
5.03044e-10
5.27569e-10
1.86247e-10
-2.84568e-10
-5.42199e-10
-3.93087e-10
-1.26456e-10
6.61914e-11
2.11791e-10
1.58312e-10
7.84972e-11
2.95844e-11
6.91005e-12
-3.70829e-12
-2.23832e-12
-4.91035e-13
-7.36005e-17
3.55395e-14
1.70224e-14
3.37442e-15
2.8664e-16
7.61023e-17
3.95481e-17
2.20303e-17
1.37752e-17
9.65002e-18
6.98431e-18
4.8268e-18
3.08078e-18
1.81095e-18
2.4578e-12
2.47951e-12
2.40882e-12
2.48164e-12
2.63258e-12
2.50782e-12
2.31431e-12
2.21259e-12
2.79529e-12
3.57253e-12
1.44071e-12
-2.58762e-12
4.33055e-12
2.39715e-11
3.67469e-11
5.40478e-12
-9.68738e-11
-1.44955e-10
4.58117e-10
1.48329e-09
2.13982e-09
1.54115e-09
-5.30608e-10
-2.22454e-09
-1.94751e-09
-7.51233e-10
5.65331e-10
1.64866e-09
1.16171e-09
4.9612e-10
1.60009e-10
4.29919e-11
-4.37981e-11
-2.56688e-11
-5.60838e-12
-1.14225e-13
2.76017e-13
1.49008e-13
3.48088e-14
2.28241e-15
1.43931e-17
2.93453e-17
2.62561e-17
1.9335e-17
1.56918e-17
1.37746e-17
1.14579e-17
8.4021e-18
5.42113e-18
3.15202e-18
4.75904e-12
4.7895e-12
4.65545e-12
4.96589e-12
5.07158e-12
4.60653e-12
4.42773e-12
4.68589e-12
5.95917e-12
6.0642e-12
-1.02573e-12
-3.65724e-12
3.18358e-11
6.64924e-11
5.46173e-11
-5.12319e-11
-2.68159e-10
9.56577e-10
3.58382e-09
5.2482e-09
4.7669e-09
1.82781e-09
-5.74483e-09
-6.58526e-09
-3.47513e-09
3.42912e-09
1.07681e-08
7.44103e-09
2.64258e-09
7.54226e-10
-7.25599e-11
-5.70475e-10
-2.9269e-10
-5.83547e-11
-1.17262e-12
1.86454e-12
1.06663e-12
2.8183e-13
2.39257e-14
-1.22978e-15
-3.76792e-16
-2.08618e-17
1.55688e-17
1.67354e-17
1.93339e-17
2.20285e-17
2.07729e-17
1.56739e-17
9.90815e-18
5.57385e-18
-1.08308e-09
-1.08337e-09
-1.08123e-09
-1.07954e-09
-1.08547e-09
-1.093e-09
-1.08006e-09
-1.05155e-09
-1.06641e-09
-1.17865e-09
-1.20164e-09
-9.11982e-10
-6.66826e-10
-7.97291e-10
-2.19895e-09
-4.5899e-09
-1.1949e-09
7.56916e-09
1.13074e-08
1.01941e-08
-6.8765e-09
-3.7154e-08
-2.46196e-08
-7.94665e-09
2.59903e-08
6.73485e-08
4.52296e-08
1.45543e-08
-2.15671e-09
-9.71763e-09
-8.48273e-09
-3.59848e-09
-6.76346e-10
-7.20123e-12
1.13389e-11
6.8067e-12
1.99477e-12
2.11735e-13
-1.25758e-14
-5.06539e-15
-6.51663e-16
4.07682e-17
2.65825e-17
1.55673e-17
2.62534e-17
3.95448e-17
4.16113e-17
3.1181e-17
1.84953e-17
9.80388e-18
-3.1235e-08
-3.1236e-08
-3.12154e-08
-3.12211e-08
-3.12817e-08
-3.12802e-08
-3.11039e-08
-3.10401e-08
-3.14844e-08
-3.20176e-08
-3.11856e-08
-2.87772e-08
-2.9283e-08
-3.53528e-08
-4.44274e-08
-3.9099e-08
-1.15181e-09
2.42193e-08
1.55723e-08
-1.02884e-07
-2.71624e-07
-2.47846e-07
-5.00879e-08
2.17926e-07
3.83494e-07
2.87101e-07
7.96379e-08
-9.16454e-08
-1.37503e-07
-9.48682e-08
-3.9901e-08
-8.90762e-09
-3.47306e-10
5.92555e-11
3.76554e-11
1.27917e-11
1.94328e-12
-6.10725e-14
-3.23675e-14
-6.67344e-15
1.3641e-16
1.932e-16
4.07663e-17
-2.08639e-17
2.93412e-17
7.60969e-17
9.40177e-17
6.63593e-17
3.40714e-17
1.64831e-17
-1.87993e-07
-1.8799e-07
-1.87962e-07
-1.88043e-07
-1.88135e-07
-1.87798e-07
-1.87428e-07
-1.88475e-07
-1.89993e-07
-1.87936e-07
-1.82856e-07
-1.81657e-07
-1.98803e-07
-2.23432e-07
-2.14878e-07
-1.23844e-07
6.47052e-09
3.84398e-08
-3.62983e-07
-9.85442e-07
-1.24052e-06
-7.27738e-07
5.22214e-07
1.58824e-06
1.46664e-06
5.65566e-07
-5.70739e-07
-9.24345e-07
-6.68475e-07
-3.1206e-07
-9.16686e-08
-1.04889e-08
2.53737e-10
1.6732e-10
6.7187e-11
1.51359e-11
5.80559e-13
-9.17747e-14
-2.83667e-14
1.29995e-15
1.14407e-15
1.36425e-16
-6.5164e-16
-3.76782e-16
1.43887e-17
2.86625e-16
3.33833e-16
1.56947e-16
5.68108e-17
2.46142e-17
-6.31645e-07
-6.31652e-07
-6.31742e-07
-6.3193e-07
-6.31587e-07
-6.30327e-07
-6.31337e-07
-6.36371e-07
-6.35525e-07
-6.20249e-07
-6.13217e-07
-6.43066e-07
-7.08956e-07
-7.2596e-07
-5.69625e-07
-2.22379e-07
7.63288e-09
-7.21668e-07
-2.34713e-06
-3.52202e-06
-3.12833e-06
-4.77781e-07
3.53964e-06
4.76934e-06
2.98643e-06
-9.29406e-07
-3.79704e-06
-3.0843e-06
-1.62562e-06
-5.94029e-07
-1.27591e-07
-5.9925e-09
4.70891e-10
2.50702e-10
8.33041e-11
1.34139e-11
2.77559e-13
7.59967e-15
3.97771e-14
2.14141e-14
1.30008e-15
-6.67323e-15
-5.06523e-15
-1.22974e-15
2.28231e-15
3.37427e-15
1.52276e-15
3.18554e-16
6.09854e-17
2.82585e-17
-1.49177e-06
-1.49189e-06
-1.4923e-06
-1.49215e-06
-1.49034e-06
-1.48892e-06
-1.49605e-06
-1.50475e-06
-1.48678e-06
-1.449e-06
-1.4777e-06
-1.6013e-06
-1.69657e-06
-1.55676e-06
-9.72128e-07
-2.39507e-07
-9.54735e-07
-4.16821e-06
-7.31534e-06
-7.62009e-06
-3.99688e-06
6.19544e-06
1.08971e-05
8.42363e-06
4.21078e-07
-1.47097e-05
-1.0418e-05
-5.58495e-06
-2.34596e-06
-7.12762e-07
-1.19619e-07
-2.42918e-09
6.0203e-10
2.79119e-10
8.44008e-11
1.90524e-11
4.68784e-12
5.73437e-13
1.80666e-13
3.97772e-14
-2.83661e-14
-3.23668e-14
-1.25755e-14
2.39248e-14
3.48076e-14
1.70218e-14
3.54743e-15
1.3564e-16
-5.34787e-17
1.95402e-17
-2.36039e-06
-2.36074e-06
-2.36159e-06
-2.36047e-06
-2.35598e-06
-2.35655e-06
-2.37642e-06
-2.38395e-06
-2.32441e-06
-2.26874e-06
-2.41477e-06
-2.68563e-06
-2.72768e-06
-2.04334e-06
-4.55444e-07
2.11609e-07
-4.71997e-06
-1.24435e-05
-1.42949e-05
-8.63046e-06
1.70637e-05
3.54949e-05
1.95502e-05
-2.96406e-05
-0.00010083
-7.3302e-05
-9.2821e-06
8.16152e-05
0.000166829
0.000209115
0.000203688
0.000165739
0.000112162
6.21831e-05
2.69431e-05
7.94512e-06
9.35549e-07
8.18906e-13
5.73434e-13
7.59976e-15
-9.17734e-14
-6.10717e-14
2.11728e-13
2.81821e-13
1.49003e-13
3.55382e-14
8.09946e-16
-2.14328e-15
-4.97113e-16
6.34483e-17
1.15564e-05
1.15564e-05
1.15453e-05
1.15454e-05
1.15945e-05
1.16029e-05
1.14418e-05
1.13513e-05
1.17683e-05
1.22139e-05
1.14458e-05
9.70054e-06
9.64257e-06
1.45787e-05
2.14681e-05
1.57519e-05
-7.79599e-06
-2.35967e-05
-1.19505e-05
7.00541e-05
0.000155089
0.000111325
-0.000114245
-0.000459017
-0.000507982
-0.000192725
0.000568931
0.0015844
0.00246369
0.00286655
0.00275532
0.00227651
0.00160427
0.000950779
0.000456699
0.00016166
3.15817e-05
9.3555e-07
4.68776e-12
2.77515e-13
5.80516e-13
1.94322e-12
1.99471e-12
1.0666e-12
2.76008e-13
-7.40077e-17
-3.56694e-14
-1.08125e-14
-4.58335e-16
1.05053e-15
9.82867e-05
9.82794e-05
9.82199e-05
9.82724e-05
9.85323e-05
9.83793e-05
9.74951e-05
9.7626e-05
0.000100122
0.000101102
9.55357e-05
8.86209e-05
9.57182e-05
0.000121274
0.000130137
8.14611e-05
1.95576e-06
-2.20653e-05
0.000169305
0.000473627
0.000535165
5.58251e-05
-0.00102857
-0.00178504
-0.00144604
0.000652687
0.00450198
0.00899559
0.0124968
0.0138092
0.0129291
0.0105057
0.00734243
0.00434495
0.00209879
0.000758597
0.00016166
7.94512e-06
1.90519e-11
1.34134e-11
1.51354e-11
1.27913e-11
6.8065e-12
1.86448e-12
-1.14223e-13
-4.91028e-13
-1.71204e-13
-1.47127e-14
1.41282e-14
5.4541e-15
0.000368625
0.000368573
0.000368436
0.000368784
0.000369393
0.00036821
0.000365927
0.000368634
0.000376113
0.000373145
0.00035207
0.000343261
0.000387208
0.000451105
0.000414652
0.000231463
4.77618e-05
0.000266535
0.000942717
0.00146976
0.00104103
-0.00103973
-0.00357044
-0.00455657
-0.0016675
0.00648839
0.0187927
0.0315578
0.0403898
0.0426499
0.0387486
0.0307371
0.0210734
0.0122714
0.00584783
0.00209879
0.000456699
2.69431e-05
8.43993e-11
8.33022e-11
6.71853e-11
3.76543e-11
1.13385e-11
-1.17256e-12
-5.60827e-12
-2.23829e-12
-2.72561e-13
1.2374e-13
6.58671e-14
1.06888e-14
0.000978965
0.000978809
0.000978721
0.000979772
0.000980177
0.000976384
0.000974038
0.00098459
0.000995918
0.000973935
0.000929923
0.000952395
0.00107892
0.0011478
0.000930159
0.000482489
0.000456192
0.00139937
0.0027336
0.00304977
0.000478321
-0.00441077
-0.00863653
-0.0073354
0.00421234
0.0269452
0.0563326
0.0835397
0.0998387
0.100987
0.0888791
0.068633
0.0459822
0.0262299
0.0122714
0.00434495
0.000950779
6.21832e-05
2.79116e-10
2.50699e-10
1.67316e-10
5.92538e-11
-7.20034e-12
-5.83534e-11
-2.56684e-11
-3.70825e-12
9.33484e-13
5.34287e-13
1.30365e-13
6.61042e-15
0.00209049
0.00209023
0.00209061
0.00209232
0.00209067
0.00208404
0.00208761
0.00210924
0.00210907
0.00204955
0.00201008
0.00213222
0.00233679
0.00225336
0.00163935
0.00112142
0.00192034
0.00395814
0.00562857
0.00366314
-0.00296924
-0.0113798
-0.0145962
-0.00305942
0.0288945
0.0788318
0.135212
0.181516
0.203964
0.197738
0.168319
0.126273
0.0824774
0.0459822
0.0210734
0.00734243
0.00160427
0.000112162
6.02027e-10
4.70886e-10
2.53731e-10
-3.47286e-10
-6.76329e-10
-2.92685e-10
-4.37975e-11
6.90988e-12
4.16309e-12
1.14166e-12
9.5059e-14
-6.5417e-15
0.0038041
0.00380396
0.00380519
0.00380604
0.00380047
0.00379619
0.00381348
0.00383409
0.00379313
0.0037109
0.00376283
0.00401943
0.00414042
0.00360145
0.00265856
0.00294717
0.00517013
0.00813429
0.00766816
0.000705676
-0.0112518
-0.0203756
-0.0125349
0.0246005
0.0938423
0.184467
0.274308
0.338094
0.358412
0.332787
0.273407
0.198794
0.126273
0.068633
0.0307371
0.0105057
0.00227651
0.000165739
-2.42892e-09
-5.99214e-09
-1.04885e-08
-8.9074e-09
-3.5984e-09
-5.70466e-10
4.29911e-11
2.95839e-11
1.01186e-11
1.31052e-12
-6.05228e-14
-2.9414e-14
0.00611273
0.00611313
0.00611456
0.0061117
0.00610484
0.00611389
0.00614048
0.00612386
0.00603535
0.00602381
0.00625352
0.00650799
0.00615779
0.00503331
0.00478652
0.00679061
0.0105211
0.0116365
0.0053928
-0.00868178
-0.0232807
-0.0207139
0.0178199
0.102445
0.22642
0.365503
0.485228
0.553724
0.554499
0.492226
0.389195
0.273407
0.168319
0.0888791
0.0387486
0.0129291
0.00275531
0.000203688
-1.19615e-07
-1.27588e-07
-9.16667e-08
-3.99003e-08
-8.48257e-09
-7.2558e-11
1.60007e-10
7.84961e-11
1.69641e-11
3.35358e-13
-2.25127e-13
-7.62447e-14
0.00884872
0.0088497
0.00884889
0.00884182
0.00884447
0.00887167
0.00887319
0.00878872
0.00873285
0.00892636
0.00925758
0.00907303
0.0078812
0.007207
0.0089406
0.0130933
0.0155139
0.0101669
-0.00513645
-0.024273
-0.0267608
0.0118824
0.108917
0.263368
0.451529
0.632813
0.763106
0.81045
0.766656
0.649054
0.492226
0.332787
0.197738
0.100987
0.0426499
0.0138092
0.00286655
0.000209115
-7.1275e-07
-5.94019e-07
-3.12056e-07
-9.48666e-08
-9.71744e-09
7.54219e-10
4.96115e-10
1.5831e-10
1.67596e-11
-1.1615e-12
-6.93694e-13
-1.40807e-13
0.0117341
0.0117345
0.0117291
0.0117254
0.0117494
0.0117697
0.0116976
0.0115969
0.0117418
0.012138
0.0121369
0.0109315
0.0097972
0.0112008
0.0157439
0.0195135
0.0150856
-0.0013569
-0.0248045
-0.0321331
0.00667659
0.115784
0.299654
0.535884
0.779293
0.975612
1.07945
1.0692
0.953541
0.766656
0.554499
0.358412
0.203964
0.0998387
0.0403898
0.0124968
0.00246369
0.000166829
-2.34593e-06
-1.6256e-06
-6.68466e-07
-1.37501e-07
-2.1566e-09
2.64255e-09
1.1617e-09
2.11787e-10
-8.50469e-13
-3.75997e-12
-1.46326e-12
-1.66134e-13
0.0145432
0.0145409
0.0145341
0.0145483
0.0145822
0.0145379
0.0144068
0.0144693
0.0148964
0.0151051
0.0140309
0.0124336
0.0132652
0.0180131
0.0233404
0.0202654
0.00299433
-0.0249318
-0.0379178
0.000357756
0.121686
0.33615
0.621906
0.928664
1.1923
1.35494
1.38308
1.2771
1.0692
0.81045
0.553724
0.338094
0.181516
0.0835397
0.0315578
0.00899558
0.0015844
8.16152e-05
-5.58489e-06
-3.08427e-06
-9.24334e-07
-9.16438e-08
1.45541e-08
7.44094e-09
1.64863e-09
6.61901e-11
-1.97351e-11
-9.2678e-12
-1.84956e-12
-4.01164e-14
0.0172013
0.0171961
0.0171998
0.0172347
0.0172246
0.0170899
0.0170624
0.0174578
0.017867
0.0170444
0.0150893
0.0152015
0.0198047
0.0266575
0.02539
0.00802402
-0.0239723
-0.043527
-0.00753118
0.124795
0.370458
0.708377
1.08208
1.41614
1.6395
1.70681
1.61098
1.38308
1.07945
0.763106
0.485228
0.274308
0.135212
0.0563325
0.0187927
0.00450198
0.000568931
-9.28194e-06
-1.04179e-05
-3.797e-06
-5.70732e-07
7.96373e-08
4.52291e-08
1.0768e-08
5.65316e-10
-1.26454e-10
-6.16636e-11
-1.25916e-11
-3.29026e-13
9.47433e-14
0.0197679
0.0197654
0.019791
0.0198094
0.019698
0.0195913
0.0199029
0.0204655
0.0199768
0.0178132
0.0171758
0.0213273
0.0294852
0.0302801
0.0135416
-0.0217238
-0.0481957
-0.016144
0.125086
0.4009
0.79217
1.23627
1.64539
1.93362
2.04246
1.95684
1.70681
1.35494
0.975612
0.632813
0.365503
0.184467
0.0788318
0.0269452
0.00648839
0.000652687
-0.000192725
-7.33016e-05
-1.47096e-05
-9.29388e-07
5.65562e-07
2.87098e-07
6.73476e-08
3.42901e-09
-7.51221e-10
-3.9308e-10
-9.00273e-11
-2.63791e-12
8.86606e-13
3.00926e-13
0.0223554
0.0223655
0.0223976
0.0223301
0.0221731
0.0223583
0.0230011
0.0228981
0.0207202
0.0192971
0.0227397
0.0317075
0.0349585
0.0196157
-0.0181259
-0.0517508
-0.0250427
0.12304
0.427276
0.871486
1.38754
1.87512
2.2327
2.3874
2.3146
2.04246
1.6395
1.1923
0.779293
0.451529
0.22642
0.0938423
0.0288945
0.00421235
-0.0016675
-0.00144604
-0.000507981
-0.000100829
4.21119e-07
2.98641e-06
1.46662e-06
3.8349e-07
2.59896e-08
-3.47508e-09
-1.94748e-09
-5.42189e-10
-3.99472e-11
5.62464e-12
2.47452e-12
3.43009e-13
0.0249874
0.0250105
0.0249923
0.024831
0.0248745
0.0254934
0.0257734
0.0238198
0.0216353
0.0241326
0.0333104
0.0393475
0.0263494
-0.0129866
-0.0539864
-0.0342233
0.118406
0.449002
0.945093
1.53328
2.10087
2.53063
2.735
2.67896
2.3874
1.93362
1.41614
0.928664
0.535884
0.263368
0.102445
0.0246005
-0.00305942
-0.00733539
-0.00455657
-0.00178504
-0.000459016
-2.96405e-05
8.42357e-06
4.7693e-06
1.58823e-06
2.17924e-07
-7.94652e-09
-6.58516e-09
-2.2245e-09
-2.84561e-10
2.71128e-11
1.24856e-11
2.38998e-12
8.81784e-15
0.0275552
0.0275643
0.0274485
0.0273682
0.0278682
0.028452
0.0270033
0.0241971
0.0255055
0.0343565
0.0430308
0.0333581
-0.006391
-0.054663
-0.0434121
0.110869
0.464827
1.01076
1.67038
2.31841
2.82186
3.07842
3.04254
2.735
2.2327
1.64539
1.08208
0.621906
0.299654
0.108916
0.0178199
-0.0125348
-0.0145962
-0.00863653
-0.00357044
-0.00102857
-0.000114245
1.95499e-05
1.0897e-05
3.53959e-06
5.22204e-07
-5.0088e-08
-2.46193e-08
-5.74469e-09
-5.3058e-10
1.86245e-10
7.45903e-11
1.19383e-11
-7.85127e-13
-2.97048e-13
0.02987
0.0298219
0.0296883
0.0299862
0.0307448
0.0299546
0.0268051
0.0267523
0.0347794
0.0456989
0.0400476
0.0014494
-0.0536165
-0.0522211
0.100458
0.473684
1.06591
1.79465
2.52222
3.09992
3.41074
3.39831
3.07842
2.53063
1.87512
1.23627
0.708377
0.33615
0.115784
0.0118824
-0.0207139
-0.0203756
-0.0113798
-0.00441077
-0.00103973
5.58226e-05
0.000111324
3.54944e-05
6.19529e-06
-4.778e-07
-7.27742e-07
-2.47846e-07
-3.71534e-08
1.82784e-09
1.54115e-09
5.27563e-10
8.22017e-11
-3.22987e-12
-1.7648e-12
-3.46427e-13
0.0317778
0.0316802
0.0317736
0.0325026
0.0323886
0.0292883
0.0279198
0.0345671
0.0472142
0.0459234
0.0101437
-0.0508369
-0.0602848
0.0872539
0.474718
1.10815
1.9018
2.70599
3.35687
3.72334
3.73806
3.41074
2.82186
2.10087
1.38754
0.79217
0.370458
0.121686
0.0066766
-0.0267608
-0.0232806
-0.0112518
-0.00296924
0.000478313
0.00104103
0.000535161
0.000155087
1.70631e-05
-3.99691e-06
-3.12834e-06
-1.24053e-06
-2.71624e-07
-6.87629e-09
4.76688e-09
2.1398e-09
5.03037e-10
2.69248e-11
-4.10152e-12
-1.62545e-12
-2.17616e-13
0.0332241
0.0332013
0.033717
0.0341168
0.0316028
0.0290639
0.0338931
0.0475121
0.0505607
0.0191653
-0.0457892
-0.0667266
0.0716425
0.467164
1.13513
1.98751
2.86322
3.58414
4.0063
4.05185
3.72334
3.09992
2.31841
1.53328
0.871486
0.4009
0.124795
0.000357777
-0.0321331
-0.024273
-0.00868178
0.000705664
0.00366313
0.00304975
0.00146975
0.000473622
7.00519e-05
-8.63071e-06
-7.62014e-06
-3.52205e-06
-9.85453e-07
-1.02886e-07
1.01938e-08
5.24814e-09
1.48329e-09
1.66741e-10
-1.18881e-11
-5.14688e-12
-9.8789e-13
-3.34869e-14
0.0342145
0.0344429
0.0350397
0.0335427
0.0301967
0.0329109
0.0462155
0.053443
0.0279444
-0.0381225
-0.0709069
0.053977
0.450348
1.14453
2.04731
2.98704
3.77262
4.24904
4.32881
4.0063
3.35687
2.52222
1.67038
0.945093
0.427276
0.125086
-0.00753115
-0.0379177
-0.0248044
-0.00513645
0.00539278
0.00766814
0.00562855
0.00273359
0.000942708
0.000169301
-1.19526e-05
-1.4295e-05
-7.31542e-06
-2.34718e-06
-3.62998e-07
1.55693e-08
1.1307e-08
3.58382e-09
4.58135e-10
-5.59147e-11
-2.44844e-11
-4.76167e-12
-1.97581e-14
2.54418e-14
0.0347066
0.0351516
0.0346325
0.0311222
0.0317328
0.0434009
0.0544292
0.0361171
-0.0278717
-0.0723176
0.0347989
0.423947
1.13431
2.07688
3.07038
3.91268
4.44008
4.5572
4.24904
3.58414
2.70599
1.79465
1.01076
0.449002
0.12304
-0.0161439
-0.043527
-0.0249317
-0.00135689
0.0101669
0.0116365
0.00813425
0.00395811
0.00139935
0.000266526
-2.20694e-05
-2.3598e-05
-1.24442e-05
-4.16853e-06
-7.21759e-07
3.84279e-08
2.42171e-08
7.56903e-09
9.5669e-10
-1.44938e-10
-7.12888e-11
-1.70189e-11
-7.22678e-13
8.22153e-14
3.03482e-14
0.0344991
0.0345641
0.031879
0.0306372
0.0395796
0.0534639
0.043046
-0.0156894
-0.0706654
0.0149286
0.388022
1.10272
2.07196
3.10624
3.99435
4.5675
4.72435
4.44008
3.77262
2.86322
1.9018
1.06591
0.464827
0.118406
-0.0250427
-0.0481957
-0.0239723
0.00299433
0.0150856
0.0155138
0.0105211
0.00517009
0.00192032
0.000456176
4.77532e-05
1.9514e-06
-7.79802e-06
-4.72068e-06
-9.54952e-07
7.57023e-09
6.45373e-09
-1.15391e-09
-1.19429e-09
-2.68058e-10
-9.68611e-11
-2.45946e-11
-1.47298e-12
2.80206e-13
9.19802e-14
1.4482e-14
0.0332004
0.0319344
0.029545
0.0351512
0.050151
0.0476591
-0.00283486
-0.0656924
-0.00442552
0.3432
1.04843
2.02872
3.08783
4.00812
4.61927
4.81752
4.5675
3.91268
2.98704
1.98751
1.10815
0.473684
0.110869
-0.0342232
-0.0517507
-0.0217237
0.00802403
0.0202653
0.0195134
0.0130932
0.00679057
0.00294713
0.00112139
0.000482473
0.000231453
8.14559e-05
1.57499e-05
2.11094e-07
-2.39655e-07
-2.22447e-07
-1.23863e-07
-3.91009e-08
-4.58934e-09
-5.12347e-11
5.39614e-12
1.00533e-11
3.29797e-12
3.35831e-13
7.25473e-15
-4.8141e-15
0.0305235
0.0283653
0.0307721
0.0444882
0.0491532
0.00949464
-0.0571949
-0.0216915
0.290677
0.970751
1.94386
3.00915
3.94491
4.58399
4.82398
4.61927
3.99435
3.07038
2.04731
1.13513
0.474718
0.100458
-0.043412
-0.0539863
-0.0181258
0.0135416
0.02539
0.0233404
0.0157438
0.00894055
0.00478647
0.00265853
0.00163933
0.000930141
0.000414642
0.000130132
2.14664e-05
-4.55807e-07
-9.72285e-07
-5.69693e-07
-2.14898e-07
-4.44307e-08
-2.19915e-09
5.46044e-11
3.67427e-11
1.25046e-11
2.00208e-12
-1.05447e-14
-3.6252e-14
-9.97054e-15
0.0270027
0.0268002
0.0368658
0.0468766
0.0200097
-0.0454575
-0.0351939
0.232285
0.869674
1.8149
2.86506
3.79697
4.45128
4.73207
4.58399
4.00812
3.10624
2.07688
1.14453
0.467164
0.0872539
-0.0522209
-0.0546628
-0.0129866
0.0196157
0.0302801
0.0266574
0.018013
0.0112008
0.00720694
0.00503326
0.00360142
0.00225333
0.00114778
0.000451095
0.000121269
1.45774e-05
-2.04373e-06
-1.55696e-06
-7.26043e-07
-2.23455e-07
-3.5356e-08
-7.97286e-10
6.64929e-11
2.39721e-11
4.2552e-12
-1.23818e-13
-8.56701e-14
-2.43909e-14
-1.76984e-15
0.0239298
0.0285564
0.0413432
0.0271111
-0.0321406
-0.0436093
0.170786
0.746253
1.64008
2.65153
3.55798
4.21252
4.53147
4.45128
3.94491
3.08783
2.07196
1.13431
0.450348
0.0716426
-0.0602847
-0.0536163
-0.00639094
0.0263494
0.0349585
0.0294852
0.0198046
0.0132651
0.00979714
0.00788114
0.00615774
0.00414038
0.00233676
0.0010789
0.000387198
9.57141e-05
9.64112e-06
-2.72816e-06
-1.6968e-06
-7.0905e-07
-1.98827e-07
-2.92856e-08
-6.66782e-10
3.18359e-11
4.33049e-12
-7.79178e-13
-3.02852e-13
-3.84814e-14
1.21701e-14
4.75086e-15
0.0215999
0.0307596
0.0291116
-0.0178126
-0.0451758
0.110719
0.603768
1.41961
2.36622
3.22374
3.86139
4.21419
4.21252
3.79697
3.00915
2.02872
1.10272
0.423947
0.0539771
-0.0667265
-0.0508368
0.00144946
0.0333581
0.0393475
0.0317075
0.0213272
0.0152015
0.0124335
0.0109315
0.00907298
0.00650794
0.00401939
0.00213219
0.000952378
0.000343252
8.86168e-05
9.69897e-06
-2.68615e-06
-1.60154e-06
-6.4316e-07
-1.81681e-07
-2.878e-08
-9.11942e-10
-3.65703e-12
-2.58746e-12
-5.78042e-13
1.34166e-13
9.53371e-14
2.78441e-14
2.49781e-15
0.0184783
0.0250811
-0.00414613
-0.0416099
0.056728
0.448973
1.15767
2.01148
2.795
3.39617
3.77554
3.86139
3.55798
2.86506
1.94386
1.04843
0.388022
0.0347989
-0.0709068
-0.0457891
0.0101438
0.0400476
0.0430307
0.0333103
0.0227396
0.0171758
0.0150892
0.0140309
0.0121368
0.00925753
0.00625347
0.0037628
0.00201006
0.000929906
0.00035206
9.55313e-05
1.14441e-05
-2.41531e-06
-1.47794e-06
-6.13308e-07
-1.82879e-07
-3.11884e-08
-1.2016e-09
-1.02505e-12
1.44093e-12
1.10438e-12
4.60329e-13
1.11244e-13
7.18966e-15
-8.2332e-16
0.0112248
0.00394883
-0.0364879
0.0111121
0.290344
0.861716
1.59284
2.28069
2.82583
3.2189
3.39617
3.22374
2.65153
1.81489
0.970751
0.343199
0.0149287
-0.0723175
-0.0381224
0.0191654
0.0459234
0.0456989
0.0343564
0.0241325
0.019297
0.0178131
0.0170444
0.015105
0.012138
0.0089263
0.00602376
0.00371087
0.00204952
0.000973918
0.000373136
0.000101098
1.22123e-05
-2.26925e-06
-1.44922e-06
-6.20333e-07
-1.87958e-07
-3.20203e-08
-1.17864e-09
6.06488e-12
3.57288e-12
1.45031e-12
3.96791e-13
4.36376e-14
-1.59779e-15
-8.44275e-16
-0.00184039
-0.0202056
-0.0195983
0.117418
0.48785
1.06915
1.63592
2.13687
2.56201
2.82583
2.795
2.36622
1.64008
0.869674
0.290677
-0.00442538
-0.0706652
-0.0278716
0.0279444
0.0505607
0.0472142
0.0347793
0.0255055
0.0216352
0.0207201
0.0199768
0.0178669
0.0148963
0.0117417
0.00873279
0.0060353
0.00379309
0.00210905
0.000995901
0.000376103
0.000100117
1.17668e-05
-2.32489e-06
-1.48698e-06
-6.35602e-07
-1.90013e-07
-3.14869e-08
-1.06641e-09
5.96047e-12
2.79583e-12
1.00838e-12
2.70748e-13
5.12906e-14
3.7242e-15
-1.43069e-16
-0.0136818
-0.0232348
-0.00074669
0.167037
0.524563
0.963333
1.33845
1.73994
2.13687
2.28069
2.01148
1.41961
0.746253
0.232285
-0.0216913
-0.0656922
-0.0156892
0.0361172
0.0534431
0.0475121
0.034567
0.0267522
0.024197
0.0238197
0.022898
0.0204655
0.0174577
0.0144693
0.0115968
0.00878867
0.00612381
0.00383405
0.00210921
0.000984573
0.000368625
9.76217e-05
1.13498e-05
-2.38439e-06
-1.50495e-06
-6.36444e-07
-1.88495e-07
-3.10426e-08
-1.05155e-09
4.68687e-12
2.21286e-12
9.00581e-13
3.00473e-13
6.78187e-14
5.79037e-15
-1.04984e-16
-0.0165035
-0.0173315
-0.00273869
0.140767
0.420138
0.697415
0.98723
1.33845
1.63592
1.59284
1.15767
0.603767
0.170786
-0.0351938
-0.0571947
-0.00283475
0.0430461
0.0544292
0.0462155
0.033893
0.0279197
0.026805
0.0270032
0.0257733
0.023001
0.0199029
0.0170624
0.0144068
0.0116975
0.00887314
0.00614043
0.00381344
0.00208758
0.000974021
0.000365917
9.74909e-05
1.14404e-05
-2.37685e-06
-1.49624e-06
-6.31412e-07
-1.87448e-07
-3.11065e-08
-1.08005e-09
4.42821e-12
2.31449e-12
1.0212e-12
3.4621e-13
7.48103e-14
5.62651e-15
-8.45996e-17
-0.0175294
-0.0160759
-0.0153243
0.0598399
0.230859
0.438754
0.697415
0.963333
1.06915
0.861716
0.448972
0.110719
-0.0436091
-0.0454573
0.00949474
0.0476592
0.053464
0.0434009
0.0329109
0.0290639
0.0292882
0.0299545
0.0284519
0.0254933
0.0223582
0.0195912
0.0170898
0.0145378
0.0117696
0.00887161
0.00611384
0.00379615
0.00208401
0.000976367
0.000368201
9.83751e-05
1.16015e-05
-2.35698e-06
-1.48912e-06
-6.30404e-07
-1.87819e-07
-3.12829e-08
-1.093e-09
4.60732e-12
2.50822e-12
1.08483e-12
3.47014e-13
6.78244e-14
3.94627e-15
-7.37938e-17
-0.0184988
-0.0189319
-0.0207758
-0.011409
0.0711607
0.230859
0.420138
0.524563
0.48785
0.290344
0.0567279
-0.0451757
-0.0321404
0.0200098
0.0491533
0.050151
0.0395796
0.0317327
0.0301966
0.0316027
0.0323885
0.0307447
0.027868
0.0248744
0.022173
0.0196979
0.0172246
0.0145822
0.0117493
0.00884441
0.00610479
0.00380044
0.00209064
0.00098016
0.000369383
9.85281e-05
1.15931e-05
-2.35642e-06
-1.49054e-06
-6.31665e-07
-1.88156e-07
-3.12843e-08
-1.08546e-09
5.07264e-12
2.63303e-12
1.07773e-12
3.27316e-13
6.15612e-14
3.61177e-15
-6.7993e-17
-0.0207505
-0.0212679
-0.0186739
-0.022359
-0.011409
0.0598399
0.140767
0.167037
0.117418
0.011112
-0.0416097
-0.0178125
0.0271113
0.0468766
0.0444882
0.0351512
0.0306371
0.0311221
0.0335427
0.0341167
0.0325025
0.0299861
0.0273681
0.024831
0.02233
0.0198093
0.0172347
0.0145483
0.0117254
0.00884177
0.00611165
0.003806
0.00209229
0.000979755
0.000368775
9.82682e-05
1.15439e-05
-2.36091e-06
-1.49235e-06
-6.32007e-07
-1.88063e-07
-3.12237e-08
-1.07954e-09
4.96687e-12
2.48201e-12
1.0157e-12
3.20521e-13
6.54272e-14
4.62307e-15
-6.74349e-17
-0.022025
-0.0211664
-0.0220304
-0.0186739
-0.0207758
-0.0153243
-0.00273861
-0.000746751
-0.0195984
-0.0364878
-0.00414604
0.0291116
0.0413433
0.0368659
0.0307721
0.029545
0.031879
0.0346324
0.0350396
0.0337169
0.0317735
0.0296882
0.0274484
0.0249922
0.0223976
0.0197909
0.0171997
0.0145341
0.0117291
0.00884884
0.00611451
0.00380515
0.00209058
0.000978704
0.000368426
9.82157e-05
1.15438e-05
-2.36203e-06
-1.49249e-06
-6.31819e-07
-1.87982e-07
-3.12181e-08
-1.08123e-09
4.6563e-12
2.40916e-12
1.01946e-12
3.28826e-13
6.75466e-14
4.7035e-15
-6.69881e-17
-0.0228877
-0.0229447
-0.0211664
-0.0212679
-0.0189319
-0.0160759
-0.0173314
-0.0232349
-0.0202055
0.00394893
0.0250812
0.0307597
0.0285564
0.0268002
0.0283653
0.0319344
0.034564
0.0351515
0.0344428
0.0332012
0.0316801
0.0298218
0.0275642
0.0250105
0.0223655
0.0197654
0.017196
0.0145409
0.0117344
0.00884965
0.00611308
0.00380392
0.0020902
0.000978792
0.000368564
9.82752e-05
1.15549e-05
-2.36118e-06
-1.49208e-06
-6.31728e-07
-1.88011e-07
-3.12386e-08
-1.08337e-09
4.79037e-12
2.47987e-12
1.03863e-12
3.2926e-13
6.60076e-14
4.36857e-15
-6.69733e-17
-0.0242545
-0.0228877
-0.022025
-0.0207505
-0.0184988
-0.0175294
-0.0165035
-0.0136817
-0.00184032
0.0112249
0.0184784
0.0215999
0.0239298
0.0270027
0.0305235
0.0332003
0.034499
0.0347065
0.0342144
0.033224
0.0317777
0.0298699
0.0275551
0.0249873
0.0223554
0.0197678
0.0172012
0.0145431
0.011734
0.00884866
0.00611268
0.00380406
0.00209046
0.000978948
0.000368615
9.82825e-05
1.15549e-05
-2.36082e-06
-1.49196e-06
-6.31722e-07
-1.88013e-07
-3.12376e-08
-1.08308e-09
4.75992e-12
2.45817e-12
1.03e-12
3.27793e-13
6.62638e-14
4.49037e-15
-6.69616e-17
)
;

boundaryField
{
    movingWall
    {
        type            zeroGradient;
    }
    fixedWalls
    {
        type            zeroGradient;
    }
    frontAndBack
    {
        type            empty;
    }
}

