/*--------------------------------*- C++ -*----------------------------------*\
| =========                 |                                                 |
| \\      /  F ield         | OpenFOAM: The Open Source CFD Toolbox           |
|  \\    /   O peration     | Version:  v2006                                 |
|   \\  /    A nd           | Website:  www.openfoam.com                      |
|    \\/     M anipulation  |                                                 |
\*---------------------------------------------------------------------------*/
FoamFile
{
    version     2.0;
    format      ascii;
    class       volScalarField;
    location    "1";
    object      r;
}
// * * * * * * * * * * * * * * * * * * * * * * * * * * * * * * * * * * * * * //

dimensions      [1 2 0 0 0 0 0];


internalField   nonuniform List<scalar> 
350
(
9.77946e-222
-3.10022e-218
9.67367e-215
-2.97697e-211
9.05482e-208
-2.72471e-204
8.09289e-201
-2.35245e-197
6.55913e-194
-1.67751e-190
3.48583e-187
-2.84242e-184
-2.62476e-180
2.26242e-176
-1.25944e-172
5.89416e-169
-2.47714e-165
9.58931e-162
-3.45932e-158
1.16958e-154
-3.71549e-151
1.10963e-147
-3.11226e-144
8.17878e-141
-2.00674e-137
4.57826e-134
-9.6836e-131
1.90512e-127
-3.56615e-124
6.79603e-121
-1.49533e-117
4.24823e-114
-1.57045e-110
7.10837e-107
-3.5816e-103
1.8126e-99
-8.59116e-96
3.68884e-92
-1.41782e-88
4.86484e-85
-1.49105e-81
4.08776e-78
-1.00322e-74
2.20043e-71
-4.26957e-68
7.04709e-65
-8.47335e-62
7.28596e-60
3.686e-55
-1.4314e-51
3.63115e-48
-6.9721e-45
1.05426e-41
-1.18138e-38
1.2189e-35
2.29873e-33
4.45373e-29
2.02811e-25
9.25333e-22
8.14364e-17
-2.3879e-15
1.59287e-14
-6.7957e-14
2.54847e-13
-9.24907e-13
3.29677e-12
-1.15454e-11
3.96935e-11
-1.33841e-10
4.42038e-10
-1.42774e-09
4.50156e-09
-1.38261e-08
4.12646e-08
-1.19337e-07
3.33266e-07
-8.94983e-07
2.29967e-06
-5.61623e-06
1.29275e-05
-2.77122e-05
5.43644e-05
-9.4782e-05
0.000138325
-0.000139121
-6.52729e-05
0.000456288
-0.000506242
-0.00124651
0.00423773
-0.00516207
0.0010168
0.00239797
0.0136782
-0.0353111
-0.0103841
0.0382035
0.0362612
-0.107227
-0.104514
0.167894
0.864317
2.0157
3.49955
5.09693
6.58477
7.80797
8.70898
9.29951
9.66699
9.82781
9.97148
9.98967
9.99999
10
10
10
10
10
10
10
10
10
10
10
10
9.99999
10
9.99998
9.9999
10.0002
9.99949
10.0009
9.99896
10.0011
10.0022
9.99387
10.0052
9.99962
9.9981
9.98525
10.0372
10.0104
9.95827
9.95993
10.111
10.1137
9.84794
9.15368
7.99751
6.50367
4.89554
3.40059
2.17495
1.2781
0.685062
0.337945
0.138665
0.0597804
0.00689828
0.00503968
0.00307675
0.00165661
0.000766345
0.000326081
1.77047e-05
9.18651e-06
1.30699e-06
6.66243e-07
8.53473e-08
4.52862e-08
1.0343e-08
7.18859e-09
3.14081e-09
2.22642e-09
1.32229e-09
3.1306e-10
2.06058e-10
1.20921e-10
1.1004e-10
9.19786e-11
7.30968e-11
5.27376e-11
3.33153e-11
1.44463e-11
1.18704e-11
1.13954e-11
9.79698e-12
6.96894e-12
4.11375e-12
1.32637e-12
-1.73923e-12
-2.43071e-12
-1.64783e-12
-1.91741e-12
-1.24843e-12
-5.92679e-13
-4.27187e-13
-8.2295e-13
-2.61275e-13
8.34132e-13
5.83912e-13
1.8442e-13
-3.98974e-13
-5.06832e-13
-3.15529e-13
-3.6475e-13
1.37407e-13
-3.86459e-13
4.80821e-13
-4.43964e-13
5.30824e-13
-1.96955e-13
1.80167e-13
-6.52217e-14
2.87087e-14
2.86553e-14
-6.13787e-14
1.35659e-13
1.00125e-13
-1.41483e-13
1.25297e-13
-3.72429e-13
2.80642e-13
-1.67009e-13
4.22966e-14
-2.85535e-13
-4.95998e-14
-1.3725e-14
3.84324e-14
1.43862e-13
-1.631e-14
1.07228e-13
-6.68205e-14
1.92835e-13
-2.20739e-13
2.20962e-13
-3.34968e-13
3.43629e-13
4.58431e-14
1.75019e-13
-3.57221e-14
-6.23095e-14
-2.25968e-14
-1.6804e-13
6.91056e-14
-2.18981e-13
2.56575e-13
-4.69333e-13
8.58603e-13
-8.27427e-13
6.97656e-13
-3.35028e-13
3.28957e-13
-1.21097e-13
-1.25327e-14
-8.65099e-14
-1.06141e-13
1.28633e-13
-2.00523e-13
-2.8983e-15
1.80738e-13
-3.83713e-13
4.47679e-13
-4.44407e-13
4.25056e-13
-2.92866e-13
1.84658e-13
-9.59441e-14
3.14669e-14
2.72297e-14
-9.53152e-14
1.14598e-13
-1.13693e-13
7.02499e-14
-1.23543e-13
2.25238e-13
-3.2911e-13
3.43979e-13
-2.94526e-13
1.98431e-13
-1.32879e-13
6.60632e-14
-2.1535e-14
1.72776e-14
1.26824e-14
-4.93725e-14
8.94368e-14
1.31076e-15
1.45164e-15
-3.22229e-14
2.06881e-14
-5.7262e-14
3.86096e-14
-2.96276e-14
2.32802e-14
-9.67374e-15
5.91899e-15
-2.30299e-15
-3.54707e-15
1.00703e-14
-1.17796e-14
1.63487e-14
-1.11471e-14
6.14178e-15
-8.11823e-15
1.16971e-15
5.43862e-19
-3.51942e-16
1.57405e-15
-1.06566e-16
-3.98312e-16
3.15851e-15
-5.07848e-15
5.08282e-15
-4.36252e-15
4.61665e-15
-4.95926e-15
3.7465e-15
-1.73176e-15
3.49033e-16
4.17202e-16
-9.5796e-16
8.90318e-16
-5.17289e-16
1.15151e-16
6.72967e-16
-1.73135e-15
2.29343e-15
-2.0764e-15
2.507e-15
-3.21698e-15
2.41796e-15
-8.45286e-16
-1.13927e-16
5.26786e-16
-7.23154e-16
5.88379e-16
-2.1314e-16
-3.87991e-16
1.54725e-15
-2.76209e-15
2.98614e-15
-2.62338e-15
3.20902e-15
-4.29611e-15
4.1566e-15
-2.72963e-15
1.45194e-15
-1.10349e-15
)
;

boundaryField
{
    right
    {
        type            zeroGradient;
    }
    left
    {
        type            inletOutlet;
        inletValue      uniform 0;
        value           uniform 0;
    }
    top
    {
        type            zeroGradient;
    }
    bottom
    {
        type            zeroGradient;
    }
    empty
    {
        type            empty;
    }
}


// ************************************************************************* //
