/*--------------------------------*- C++ -*----------------------------------*\
| =========                 |                                                 |
| \\      /  F ield         | OpenFOAM: The Open Source CFD Toolbox           |
|  \\    /   O peration     | Version:  v2006                                 |
|   \\  /    A nd           | Website:  www.openfoam.com                      |
|    \\/     M anipulation  |                                                 |
\*---------------------------------------------------------------------------*/
FoamFile
{
    version     2.0;
    format      ascii;
    class       surfaceScalarField;
    location    "15.7";
    object      alphaPhi0.water;
}
// * * * * * * * * * * * * * * * * * * * * * * * * * * * * * * * * * * * * * //

dimensions      [0 3 -1 0 0 0 0];
oriented        oriented;


internalField   nonuniform List<scalar> 
104500
(
3.97508e-05
-3.97508e-05
8.67663e-05
-4.70155e-05
0.000132156
-4.53894e-05
0.000176201
-4.40453e-05
0.000219846
-4.36448e-05
0.000263331
-4.3485e-05
0.000306716
-4.33855e-05
0.000349996
-4.32801e-05
0.000393132
-4.31354e-05
0.000436081
-4.29493e-05
0.000478811
-4.27295e-05
0.000521296
-4.24856e-05
0.000563515
-4.22193e-05
0.000605445
-4.19296e-05
0.000647061
-4.16162e-05
0.000688339
-4.12773e-05
0.00072925
-4.09118e-05
0.000769768
-4.05177e-05
0.00080986
-4.00919e-05
0.000849492
-3.96319e-05
0.000888627
-3.91353e-05
0.000927229
-3.86019e-05
0.00096526
-3.80308e-05
0.00100269
-3.7428e-05
0.00103949
-3.67991e-05
0.00107563
-3.61477e-05
0.00111111
-3.5476e-05
0.00114589
-3.47828e-05
0.00117996
-3.40681e-05
0.00121329
-3.33314e-05
0.00124587
-3.25734e-05
0.00127766
-3.17932e-05
0.00130865
-3.09889e-05
0.00133881
-3.01577e-05
0.0013681
-2.92966e-05
0.00139651
-2.8404e-05
0.00142399
-2.74804e-05
0.00145052
-2.65296e-05
0.00147607
-2.55577e-05
0.00150064
-2.45689e-05
0.0015242
-2.35579e-05
0.00154672
-2.25145e-05
0.00156814
-2.14248e-05
0.00158842
-2.02757e-05
0.00160747
-1.90565e-05
0.00162524
-1.77696e-05
0.00164168
-1.64371e-05
0.00165678
-1.50998e-05
0.00167059
-1.38151e-05
0.00168324
-1.26449e-05
0.00169488
-1.16364e-05
0.00170569
-1.08146e-05
0.00171587
-1.01803e-05
0.00172558
-9.71118e-06
0.00173495
-9.36993e-06
0.00174407
-9.11623e-06
0.00175298
-8.9151e-06
0.00176172
-8.74062e-06
0.0017703
-8.57718e-06
0.00177872
-8.41614e-06
0.00178697
-8.25556e-06
0.00179507
-8.1014e-06
0.00180304
-7.96357e-06
0.00181089
-7.85029e-06
0.00181865
-7.76494e-06
0.00182636
-7.70646e-06
0.00183403
-7.67055e-06
0.00184168
-7.65158e-06
0.00184932
-7.64361e-06
0.00185697
-7.64152e-06
0.00186461
-7.64143e-06
0.00187225
-7.64076e-06
0.00187989
-7.63838e-06
0.00188752
-7.63498e-06
0.00189515
-7.63069e-06
0.00190278
-7.62373e-06
0.00191039
-7.61218e-06
0.00191798
-7.59317e-06
0.00192554
-7.56216e-06
0.00193306
-7.51541e-06
0.00194051
-7.45024e-06
0.00194787
-7.36343e-06
0.00195513
-7.25241e-06
0.00196224
-7.11695e-06
0.0019692
-6.95821e-06
0.00197598
-6.77751e-06
0.00198255
-6.57632e-06
0.00198891
-6.35636e-06
0.00199503
-6.11995e-06
0.0020009
-5.86977e-06
0.00200651
-5.60828e-06
0.00201185
-5.33762e-06
0.00201691
-5.06051e-06
0.00202169
-4.78087e-06
0.00202619
-4.50341e-06
0.00203042
-4.23255e-06
0.0020344
-3.97143e-06
0.00203812
-3.72077e-06
0.00204159
-3.47777e-06
0.00204483
-3.23595e-06
0.00204782
-2.9863e-06
0.00205054
-2.71968e-06
0.00205297
-2.42937e-06
0.00205508
-2.11314e-06
0.00205685
-1.77387e-06
0.00205827
-1.41849e-06
0.00205933
-1.05574e-06
0.00206002
-6.93767e-07
0.00206036
-3.38178e-07
0.00206035
1.31562e-08
0.00205999
3.54162e-07
0.00205931
6.7644e-07
0.00205833
9.82163e-07
0.00205706
1.26843e-06
0.00205552
1.54512e-06
0.00205371
1.80517e-06
0.00205167
2.04375e-06
0.0020494
2.27005e-06
0.00204692
2.48416e-06
0.00204424
2.67776e-06
0.00204138
2.85729e-06
0.00203836
3.02419e-06
0.00203518
3.1771e-06
0.00203186
3.31738e-06
0.00202842
3.44556e-06
0.00202486
3.55528e-06
0.0020212
3.65876e-06
0.00201746
3.74606e-06
0.00201363
3.82761e-06
0.00200974
3.89182e-06
0.00200579
3.94877e-06
0.00200179
3.99525e-06
0.00199776
4.03228e-06
0.00199371
4.05524e-06
0.00198964
4.0644e-06
0.00198559
4.05447e-06
0.00198156
4.02478e-06
0.00197759
3.97274e-06
0.0019737
3.88539e-06
0.00196993
3.76923e-06
0.00196631
3.62242e-06
0.00196286
3.44843e-06
0.0019596
3.25861e-06
0.00195655
3.05966e-06
0.00195367
2.87167e-06
0.00195096
2.71076e-06
0.00194837
2.59031e-06
0.00194585
2.52009e-06
0.00194335
2.50654e-06
0.00194079
2.5527e-06
0.00193815
2.64803e-06
0.00193536
2.78932e-06
0.00193239
2.96686e-06
0.00192921
3.18058e-06
0.00192578
3.43113e-06
0.00192205
3.73142e-06
0.00191796
4.09005e-06
0.00191342
4.53739e-06
0.00190833
5.08793e-06
0.00190258
5.74782e-06
0.00189608
6.50327e-06
0.00188876
7.32149e-06
0.00188061
8.14991e-06
0.00187169
8.92167e-06
0.00186212
9.56779e-06
0.0018521
1.00215e-05
0.00184187
1.02301e-05
0.00183168
1.01846e-05
0.00182182
9.85724e-06
0.00181258
9.24101e-06
0.00180423
8.35123e-06
0.00179701
7.22461e-06
0.00179109
5.91665e-06
0.0017866
4.49499e-06
0.00178357
3.03142e-06
0.00178197
1.59376e-06
0.00178172
2.48022e-07
0.00178283
-1.10609e-06
0.0017851
-2.26677e-06
0.00178837
-3.27542e-06
0.00179252
-4.15083e-06
0.00179745
-4.92623e-06
0.00180309
-5.63937e-06
0.00180941
-6.326e-06
0.00181643
-7.01538e-06
0.00182416
-7.72859e-06
0.00183264
-8.47891e-06
0.00184191
-9.27317e-06
0.00185202
-1.01133e-05
0.00186302
-1.09975e-05
0.00187494
-1.19214e-05
0.00188782
-1.28776e-05
0.00190168
-1.3856e-05
0.00191652
-1.48434e-05
0.00193234
-1.58226e-05
0.00194912
-1.6774e-05
0.00196679
-1.76761e-05
0.0019853
-1.85079e-05
0.00200455
-1.92515e-05
0.00202445
-1.98939e-05
0.00204487
-2.04286e-05
0.00206573
-2.08557e-05
0.00208691
-2.11809e-05
0.00210833
-2.14153e-05
0.0021299
-2.15737e-05
0.00215157
-2.16739e-05
0.00217331
-2.17362e-05
0.00219509
-2.17814e-05
0.00221692
-2.18293e-05
0.00223882
-2.18964e-05
0.00226081
-2.19937e-05
0.00228294
-2.21259e-05
0.00230523
-2.22906e-05
0.00232771
-2.24798e-05
0.00235039
-2.26819e-05
0.00237327
-2.28841e-05
0.00239635
-2.30744e-05
0.00241959
-2.32434e-05
0.00244298
-2.33845e-05
0.00246647
-2.34944e-05
0.00249004
-2.35718e-05
0.00251366
-2.36173e-05
0.00253729
-2.36318e-05
0.00256091
-2.36165e-05
0.00258448
-2.35722e-05
0.00260798
-2.34992e-05
0.00263138
-2.33973e-05
0.00265464
-2.32664e-05
0.00267775
-2.31059e-05
0.00270066
-2.29158e-05
0.00272336
-2.2696e-05
0.00274581
-2.24466e-05
0.00276797
-2.21675e-05
0.00278983
-2.1859e-05
0.00281135
-2.15211e-05
0.00283251
-2.11538e-05
0.00285326
-2.07571e-05
0.0028736
-2.03309e-05
0.00289347
-1.9875e-05
0.00291286
-1.93888e-05
0.00293173
-1.88717e-05
0.00295005
-1.83231e-05
0.0029678
-1.77421e-05
0.00298492
-1.71276e-05
0.0030014
-1.64781e-05
0.00301719
-1.57916e-05
0.00303226
-1.50659e-05
0.00304656
-1.42978e-05
0.00306004
-1.34836e-05
0.00307266
-1.26185e-05
0.00308436
-1.16965e-05
0.00309507
-1.07102e-05
0.00310472
-9.65156e-06
0.00311323
-8.51219e-06
0.00312052
-7.28497e-06
0.00312648
-5.96469e-06
0.00313103
-4.54945e-06
0.00313407
-3.04379e-06
0.00313554
-1.46881e-06
0.00313546
8.58574e-08
0.00313366
1.79685e-06
0.00313029
3.3732e-06
0.00312537
4.91307e-06
0.0031189
6.4724e-06
0.00311083
8.06762e-06
0.00310112
9.71646e-06
0.00308968
1.14376e-05
0.00307643
1.32488e-05
0.00306126
1.51654e-05
0.00304407
1.71974e-05
0.00302472
1.9347e-05
0.00300311
2.16073e-05
0.00297915
2.39624e-05
0.00295276
2.63879e-05
0.00292391
2.88522e-05
0.00289259
3.13161e-05
0.00285886
3.37331e-05
0.00282281
3.60503e-05
0.0027846
3.82114e-05
0.00274443
4.01651e-05
0.00270256
4.18791e-05
0.00265921
4.33493e-05
0.00261462
4.45849e-05
0.00256905
4.55725e-05
0.00252283
4.62154e-05
0.00247664
4.61942e-05
0.00243156
4.50758e-05
0.00238902
4.25436e-05
0.00235037
3.86531e-05
0.00231644
3.39241e-05
0.00228726
2.91795e-05
0.00226203
2.52329e-05
0.00223941
2.26152e-05
0.00221795
2.1466e-05
0.00219637
2.1574e-05
0.00217389
2.2481e-05
0.00215014
2.37525e-05
0.00212507
2.50728e-05
0.00209883
2.62413e-05
0.00207165
2.71771e-05
0.00204376
2.78873e-05
0.00201533
2.8429e-05
0.00198646
2.88777e-05
0.00195715
2.93046e-05
0.00192739
2.97639e-05
0.0018971
3.0287e-05
0.00186622
3.08823e-05
0.00183468
3.15404e-05
0.00180244
3.22403e-05
0.00176948
3.29583e-05
0.0017358
3.36748e-05
0.00170143
3.43781e-05
0.00166636
3.50657e-05
0.00163062
3.57426e-05
0.0015942
3.64163e-05
0.00155711
3.70929e-05
0.00151933
3.7775e-05
0.00148087
3.84618e-05
0.00144172
3.91508e-05
0.00140188
3.98392e-05
0.00136136
4.05246e-05
0.00132015
4.12049e-05
0.00127827
4.18783e-05
0.00123573
4.2543e-05
0.00119253
4.31972e-05
0.0011487
4.38387e-05
0.00110423
4.44656e-05
0.00105915
4.50758e-05
0.00101349
4.56666e-05
0.000967253
4.62341e-05
0.00092048
4.6773e-05
0.000873204
4.72763e-05
0.000825468
4.77357e-05
0.000777326
4.81424e-05
0.000728837
4.84886e-05
0.00068007
4.87676e-05
0.000631095
4.89747e-05
0.000581987
4.91083e-05
0.000532816
4.9171e-05
0.000483644
4.91711e-05
0.000434525
4.91189e-05
0.000385503
4.90228e-05
0.000336624
4.88789e-05
0.00028796
4.86636e-05
0.00023963
4.833e-05
0.000191801
4.78287e-05
0.000144597
4.72042e-05
9.82205e-05
4.63767e-05
5.2374e-05
4.58465e-05
5.2374e-05
1.98801e-05
-5.96308e-05
4.2111e-05
-6.92465e-05
6.14643e-05
-6.47428e-05
8.02812e-05
-6.28622e-05
9.93737e-05
-6.27373e-05
0.000118554
-6.26649e-05
0.00013768
-6.25124e-05
0.000156753
-6.23527e-05
0.00017582
-6.2202e-05
0.000194921
-6.20501e-05
0.000214085
-6.18936e-05
0.000233331
-6.1732e-05
0.000252675
-6.15629e-05
0.000272132
-6.13875e-05
0.000291718
-6.12019e-05
0.000311451
-6.10105e-05
0.000331345
-6.08057e-05
0.000351415
-6.05872e-05
0.000371679
-6.03557e-05
0.000392147
-6.01003e-05
0.000412838
-5.98263e-05
0.000433753
-5.95171e-05
0.000454893
-5.91707e-05
0.000476256
-5.87904e-05
0.000497825
-5.83682e-05
0.000519579
-5.79017e-05
0.000541488
-5.73856e-05
0.000563522
-5.68161e-05
0.00058564
-5.61867e-05
0.000607807
-5.54983e-05
0.000629986
-5.47519e-05
0.000652142
-5.39495e-05
0.000674246
-5.30933e-05
0.000696273
-5.21849e-05
0.000718203
-5.12258e-05
0.000740017
-5.02187e-05
0.000761705
-4.91682e-05
0.000783257
-4.80812e-05
0.000804664
-4.69651e-05
0.000825919
-4.58243e-05
0.000847019
-4.46572e-05
0.00086796
-4.34554e-05
0.000888742
-4.22068e-05
0.000909365
-4.08996e-05
0.000929837
-3.95281e-05
0.000950165
-3.8098e-05
0.000970359
-3.66312e-05
0.000990422
-3.51619e-05
0.00101034
-3.37313e-05
0.00103008
-3.23857e-05
0.00104961
-3.11647e-05
0.00106889
-3.00963e-05
0.0010879
-2.91936e-05
0.00110664
-2.84518e-05
0.00112512
-2.78493e-05
0.00114336
-2.73548e-05
0.00116138
-2.69362e-05
0.00117921
-2.6566e-05
0.00119685
-2.62248e-05
0.00121434
-2.58971e-05
0.00123165
-2.55691e-05
0.00124878
-2.52335e-05
0.00126571
-2.48908e-05
0.0012824
-2.45454e-05
0.00129884
-2.42015e-05
0.001315
-2.38617e-05
0.00133085
-2.35268e-05
0.0013464
-2.31958e-05
0.00136162
-2.28661e-05
0.00137651
-2.25344e-05
0.00139107
-2.21962e-05
0.00140527
-2.18472e-05
0.00141912
-2.1484e-05
0.00143259
-2.11046e-05
0.00144566
-2.07069e-05
0.00145833
-2.029e-05
0.00147057
-1.9854e-05
0.00148238
-1.9399e-05
0.00149374
-1.89255e-05
0.00150466
-1.8433e-05
0.00151513
-1.79215e-05
0.00152516
-1.73912e-05
0.00153475
-1.68421e-05
0.00154391
-1.62744e-05
0.00155264
-1.56893e-05
0.00156095
-1.50879e-05
0.00156884
-1.44714e-05
0.00157633
-1.38417e-05
0.00158341
-1.32007e-05
0.00159009
-1.25506e-05
0.00159637
-1.18946e-05
0.00160227
-1.12368e-05
0.00160779
-1.05803e-05
0.00161294
-9.92837e-06
0.00161772
-9.28484e-06
0.00162214
-8.65226e-06
0.0016262
-8.03199e-06
0.0016299
-7.4223e-06
0.00163325
-6.81951e-06
0.00163623
-6.21835e-06
0.00163886
-5.61318e-06
0.00164114
-4.99937e-06
0.00164308
-4.37427e-06
0.0016447
-3.73792e-06
0.00164602
-3.093e-06
0.00164705
-2.44428e-06
0.00164779
-1.79767e-06
0.00164826
-1.15918e-06
0.00164845
-5.34217e-07
0.00164839
7.27593e-08
0.00164809
6.56935e-07
0.00164755
1.21696e-06
0.00164678
1.75134e-06
0.00164579
2.25969e-06
0.00164459
2.74155e-06
0.0016432
3.19545e-06
0.00164163
3.61984e-06
0.00163988
4.01535e-06
0.00163799
4.38062e-06
0.00163595
4.71471e-06
0.00163379
5.01796e-06
0.00163152
5.29009e-06
0.00162917
5.53074e-06
0.00162675
5.73894e-06
0.00162428
5.91612e-06
0.00162177
6.05939e-06
0.00161926
6.1699e-06
0.00161676
6.24677e-06
0.0016143
6.28969e-06
0.00161189
6.29705e-06
0.00160957
6.26836e-06
0.00160737
6.20237e-06
0.0016053
6.09866e-06
0.0016034
5.95523e-06
0.00160169
5.77344e-06
0.00160019
5.55223e-06
0.00159892
5.29317e-06
0.0015979
4.99899e-06
0.00159711
4.67248e-06
0.00159657
4.31039e-06
0.00159625
3.94138e-06
0.00159615
3.54696e-06
0.00159626
3.15076e-06
0.00159656
2.75755e-06
0.00159706
2.37038e-06
0.00159776
2.01404e-06
0.00159869
1.66287e-06
0.00159986
1.34524e-06
0.00160131
1.05686e-06
0.00160308
7.89103e-07
0.00160519
5.37632e-07
0.00160767
3.01649e-07
0.00161055
8.88571e-08
0.00161385
-1.12296e-07
0.00161758
-3.07079e-07
0.0016218
-4.83484e-07
0.00162653
-6.39019e-07
0.00163184
-7.72481e-07
0.0016378
-8.75958e-07
0.0016445
-9.48569e-07
0.001652
-9.99653e-07
0.00166037
-1.04744e-06
0.00166964
-1.11741e-06
0.0016798
-1.23937e-06
0.00169081
-1.4439e-06
0.00170259
-1.75846e-06
0.00171502
-2.20194e-06
0.001728
-2.78951e-06
0.00174143
-3.57631e-06
0.00175523
-4.56347e-06
0.00176933
-5.74266e-06
0.00178365
-7.09367e-06
0.00179814
-8.58216e-06
0.0018128
-1.01621e-05
0.00182761
-1.1781e-05
0.00184259
-1.33853e-05
0.00185777
-1.49275e-05
0.00187305
-1.63858e-05
0.00188852
-1.77387e-05
0.00190425
-1.90039e-05
0.0019203
-2.02012e-05
0.00193672
-2.13511e-05
0.00195356
-2.24725e-05
0.00197081
-2.35809e-05
0.00198848
-2.46873e-05
0.00200655
-2.57986e-05
0.00202499
-2.69178e-05
0.00204376
-2.80452e-05
0.00206283
-2.91784e-05
0.00208215
-3.03135e-05
0.00210167
-3.14448e-05
0.00212136
-3.25654e-05
0.00214117
-3.36672e-05
0.00216107
-3.47412e-05
0.00218102
-3.57781e-05
0.00220102
-3.67694e-05
0.00222105
-3.77084e-05
0.00224113
-3.85911e-05
0.0022613
-3.94166e-05
0.00228159
-4.01871e-05
0.00230207
-4.09064e-05
0.00232279
-4.1579e-05
0.00234382
-4.22086e-05
0.0023652
-4.27967e-05
0.00238697
-4.33426e-05
0.00240914
-4.38444e-05
0.0024317
-4.42995e-05
0.00245463
-4.47062e-05
0.00247786
-4.50644e-05
0.00250134
-4.53758e-05
0.00252499
-4.56437e-05
0.00254874
-4.58724e-05
0.00257252
-4.60665e-05
0.00259627
-4.62303e-05
0.00261995
-4.63674e-05
0.00264355
-4.64802e-05
0.00266704
-4.65697e-05
0.00269044
-4.66356e-05
0.00271373
-4.66759e-05
0.00273692
-4.66876e-05
0.00276001
-4.66668e-05
0.00278301
-4.6609e-05
0.00280588
-4.65096e-05
0.00282863
-4.63643e-05
0.00285123
-4.61693e-05
0.00287365
-4.59216e-05
0.00289587
-4.56189e-05
0.00291787
-4.52596e-05
0.0029396
-4.48426e-05
0.00296105
-4.43674e-05
0.00298219
-4.38337e-05
0.00300299
-4.32412e-05
0.00302341
-4.25897e-05
0.00304343
-4.18792e-05
0.00306302
-4.11099e-05
0.00308215
-4.02821e-05
0.00310079
-3.93963e-05
0.00311891
-3.8453e-05
0.00313649
-3.74528e-05
0.00315349
-3.63961e-05
0.0031699
-3.52839e-05
0.0031857
-3.41164e-05
0.00320085
-3.28948e-05
0.00321534
-3.16196e-05
0.00322916
-3.02912e-05
0.00324227
-2.89103e-05
0.00325469
-2.74774e-05
0.00326638
-2.59929e-05
0.00327735
-2.44572e-05
0.00328761
-2.28704e-05
0.00329714
-2.12328e-05
0.00330598
-1.95442e-05
0.00331413
-1.7805e-05
0.00332163
-1.60163e-05
0.00332853
-1.418e-05
0.00333486
-1.22978e-05
0.00334069
-1.0372e-05
0.00334604
-8.40318e-06
0.00335097
-6.39e-06
0.00335537
-4.31863e-06
0.0033593
-2.13151e-06
0.0033625
1.70515e-07
0.00336514
2.27563e-06
0.00336706
4.55022e-06
0.00336821
6.91802e-06
0.00336855
9.37731e-06
0.00336805
1.19342e-05
0.0033667
1.46045e-05
0.00336445
1.74094e-05
0.00336128
2.03717e-05
0.00335711
2.35129e-05
0.00335187
2.68499e-05
0.00334544
3.03924e-05
0.00333769
3.41404e-05
0.00332846
3.80817e-05
0.00331759
4.21892e-05
0.0033049
4.64173e-05
0.00329025
5.06989e-05
0.00327352
5.49441e-05
0.00325464
5.90425e-05
0.00323365
6.28702e-05
0.0032107
6.63044e-05
0.00318605
6.92299e-05
0.0031601
7.15242e-05
0.00313329
7.30241e-05
0.003106
7.34856e-05
0.00307847
7.26079e-05
0.00305087
7.01439e-05
0.00302345
6.60738e-05
0.00299662
6.07471e-05
0.00297092
5.48833e-05
0.00294676
4.93965e-05
0.00292425
4.51184e-05
0.00290316
4.25616e-05
0.00288291
4.18263e-05
0.00286275
4.26405e-05
0.00284194
4.45553e-05
0.00281989
4.71285e-05
0.00279612
5.00091e-05
0.00277034
5.29519e-05
0.00274244
5.57899e-05
0.00271246
5.84102e-05
0.00268059
6.0748e-05
0.0026471
6.27921e-05
0.00261228
6.45853e-05
0.00257636
6.62106e-05
0.00253948
6.77644e-05
0.00250169
6.93289e-05
0.00246297
7.09537e-05
0.00242328
7.26515e-05
0.00238255
7.44062e-05
0.00234074
7.61865e-05
0.00229785
7.79609e-05
0.00225388
7.97059e-05
0.00220889
8.14092e-05
0.00216291
8.30683e-05
0.002116
8.46874e-05
0.00206819
8.6275e-05
0.0020195
8.78415e-05
0.00196994
8.9398e-05
0.00191951
9.09546e-05
0.0018682
9.2519e-05
0.00181598
9.4096e-05
0.00176283
9.5687e-05
0.00170874
9.7292e-05
0.00165367
9.89107e-05
0.00159759
0.000100544
0.00154047
0.000102197
0.00148226
0.000103871
0.00142293
0.000105572
0.0013624
0.000107298
0.00130063
0.000109046
0.00123756
0.000110805
0.00117314
0.00011256
0.00110734
0.00011429
0.00104014
0.000115969
0.000971546
0.000117569
0.000901594
0.000119061
0.000830352
0.000120413
0.000757922
0.000121601
0.00068444
0.000122601
0.000610065
0.000123398
0.000534967
0.000123977
0.000459301
0.00012433
0.000383172
0.000124459
0.000306577
0.000124423
0.000229338
0.000124443
0.000151553
0.000124162
7.52241e-05
0.000122175
0.000127598
1.64679e-05
-7.60987e-05
3.73245e-05
-9.01031e-05
5.47047e-05
-8.2123e-05
7.07452e-05
-7.89027e-05
8.68345e-05
-7.88266e-05
0.000103203
-7.9033e-05
0.000119755
-7.90651e-05
0.000136499
-7.90962e-05
0.000153477
-7.918e-05
0.000170732
-7.93052e-05
0.000188298
-7.94593e-05
0.000206204
-7.96388e-05
0.000224475
-7.98331e-05
0.000243137
-8.00494e-05
0.000262215
-8.02802e-05
0.000281722
-8.05181e-05
0.00030167
-8.07537e-05
0.000322071
-8.09878e-05
0.000342925
-8.12099e-05
0.000364237
-8.1412e-05
0.000385999
-8.15883e-05
0.000408198
-8.17163e-05
0.000430823
-8.17958e-05
0.000453844
-8.18117e-05
0.000477232
-8.17554e-05
0.000500944
-8.16138e-05
0.000524935
-8.13772e-05
0.00054916
-8.10405e-05
0.000573574
-8.06014e-05
0.000598136
-8.00598e-05
0.000622814
-7.94297e-05
0.000647579
-7.87152e-05
0.000672411
-7.79246e-05
0.000697289
-7.7063e-05
0.000722194
-7.61311e-05
0.000747107
-7.51318e-05
0.000772007
-7.4068e-05
0.00079687
-7.29444e-05
0.000821675
-7.17696e-05
0.000846404
-7.05539e-05
0.000871053
-6.93062e-05
0.00089563
-6.8032e-05
0.000920156
-6.6733e-05
0.000944663
-6.54067e-05
0.000969185
-6.40503e-05
0.000993752
-6.26649e-05
0.00101837
-6.12532e-05
0.00104304
-5.98287e-05
0.00106772
-5.84129e-05
0.00109237
-5.70307e-05
0.00111691
-5.57058e-05
0.00114127
-5.44574e-05
0.00116537
-5.32964e-05
0.00118914
-5.22229e-05
0.00121252
-5.12283e-05
0.00123547
-5.02984e-05
0.00125795
-4.94177e-05
0.00127995
-4.85714e-05
0.00130148
-4.77468e-05
0.00132251
-4.69336e-05
0.00134307
-4.61226e-05
0.00136314
-4.53079e-05
0.00138274
-4.44893e-05
0.00140186
-4.36701e-05
0.00142052
-4.28547e-05
0.0014387
-4.2046e-05
0.00145642
-4.12455e-05
0.00147368
-4.0452e-05
0.00149047
-3.96628e-05
0.00150681
-3.88738e-05
0.00152269
-3.80797e-05
0.00153812
-3.72755e-05
0.0015531
-3.64574e-05
0.00156761
-3.56223e-05
0.00158168
-3.47697e-05
0.00159529
-3.38984e-05
0.00160844
-3.30086e-05
0.00162114
-3.21013e-05
0.00163339
-3.11777e-05
0.0016452
-3.02389e-05
0.00165656
-2.92857e-05
0.00166749
-2.83189e-05
0.00167799
-2.73383e-05
0.00168806
-2.63439e-05
0.0016977
-2.53358e-05
0.00170693
-2.43146e-05
0.00171574
-2.32813e-05
0.00172414
-2.22369e-05
0.00173212
-2.11829e-05
0.00173969
-2.01212e-05
0.00174685
-1.90534e-05
0.00175359
-1.79819e-05
0.00175992
-1.69089e-05
0.00176583
-1.58366e-05
0.00177131
-1.47674e-05
0.00177636
-1.37032e-05
0.00178098
-1.26453e-05
0.00178515
-1.1594e-05
0.00178888
-1.05484e-05
0.00179217
-9.50701e-06
0.00179502
-8.46836e-06
0.00179745
-7.43157e-06
0.00179948
-6.39708e-06
0.0018011
-5.3668e-06
0.00180236
-4.34402e-06
0.00180324
-3.33291e-06
0.00180378
-2.33797e-06
0.00180399
-1.36363e-06
0.00180387
-4.13903e-07
0.00180344
5.04957e-07
0.0018027
1.39007e-06
0.00180167
2.24942e-06
0.00180036
3.06591e-06
0.00179877
3.84408e-06
0.00179693
4.58203e-06
0.00179485
5.27839e-06
0.00179254
5.93162e-06
0.00179001
6.54091e-06
0.00178729
7.10329e-06
0.00178438
7.62056e-06
0.00178131
8.09038e-06
0.00177809
8.51214e-06
0.00177473
8.88579e-06
0.00177126
9.21062e-06
0.00176769
9.48369e-06
0.00176405
9.70815e-06
0.00176033
9.88049e-06
0.00175658
1.00018e-05
0.0017528
1.00716e-05
0.00174901
1.00895e-05
0.00174522
1.00552e-05
0.00174145
9.96649e-06
0.00173772
9.83116e-06
0.00173404
9.63844e-06
0.00173041
9.40608e-06
0.00172684
9.12306e-06
0.00172333
8.79737e-06
0.0017199
8.43285e-06
0.00171654
8.03351e-06
0.00171324
7.60278e-06
0.00171004
7.14657e-06
0.00170692
6.66709e-06
0.0017039
6.16935e-06
0.001701
5.65888e-06
0.00169823
5.13937e-06
0.00169565
4.59599e-06
0.00169326
4.05365e-06
0.00169111
3.49508e-06
0.00168923
2.92928e-06
0.00168767
2.35247e-06
0.00168643
1.78094e-06
0.00168556
1.17091e-06
0.00168508
5.71023e-07
0.00168502
-5.40036e-08
0.00168539
-6.76781e-07
0.00168621
-1.30466e-06
0.00168751
-1.93881e-06
0.00168932
-2.57895e-06
0.00169167
-3.22598e-06
0.0016946
-3.88439e-06
0.00169816
-4.56081e-06
0.00170238
-5.26581e-06
0.00170728
-6.0129e-06
0.00171285
-6.81755e-06
0.00171911
-7.69617e-06
0.00172601
-8.66436e-06
0.00173355
-9.73502e-06
0.00174167
-1.0918e-05
0.00175032
-1.22223e-05
0.0017594
-1.36474e-05
0.00176885
-1.51853e-05
0.00177858
-1.68223e-05
0.00178853
-1.85382e-05
0.00179868
-2.03085e-05
0.001809
-2.21069e-05
0.00181953
-2.39089e-05
0.0018303
-2.5696e-05
0.00184137
-2.74584e-05
0.00185282
-2.91923e-05
0.00186472
-3.09019e-05
0.00187711
-3.25927e-05
0.00189003
-3.42693e-05
0.00190349
-3.59347e-05
0.0019175
-3.75905e-05
0.00193205
-3.92372e-05
0.00194713
-4.08743e-05
0.00196271
-4.25005e-05
0.00197878
-4.41135e-05
0.00199531
-4.57105e-05
0.00201228
-4.72876e-05
0.00202968
-4.88399e-05
0.00204748
-5.03616e-05
0.00206565
-5.18461e-05
0.0020842
-5.32865e-05
0.0021031
-5.46759e-05
0.00212234
-5.60089e-05
0.00214191
-5.72816e-05
0.00216181
-5.84931e-05
0.00218204
-5.96453e-05
0.0022026
-6.07423e-05
0.00222348
-6.17894e-05
0.00224469
-6.27912e-05
0.00226623
-6.375e-05
0.0022881
-6.46652e-05
0.00231029
-6.55324e-05
0.00233279
-6.63449e-05
0.00235559
-6.70947e-05
0.00237865
-6.77741e-05
0.00240197
-6.83774e-05
0.00242549
-6.89014e-05
0.0024492
-6.93463e-05
0.00247304
-6.97148e-05
0.00249698
-7.00121e-05
0.002521
-7.02446e-05
0.00254505
-7.04192e-05
0.00256911
-7.0542e-05
0.00259316
-7.06179e-05
0.00261717
-7.06494e-05
0.00264113
-7.06366e-05
0.00266502
-7.05776e-05
0.00268883
-7.04682e-05
0.00271252
-7.03032e-05
0.00273609
-7.00768e-05
0.00275951
-6.97834e-05
0.00278276
-6.9418e-05
0.00280581
-6.89766e-05
0.00282865
-6.84561e-05
0.00285124
-6.7854e-05
0.00287357
-6.71688e-05
0.0028956
-6.63991e-05
0.00291731
-6.55443e-05
0.00293867
-6.46034e-05
0.00295966
-6.35762e-05
0.00298024
-6.24625e-05
0.00300039
-6.12621e-05
0.00302009
-5.99751e-05
0.00303929
-5.86019e-05
0.00305798
-5.71431e-05
0.00307613
-5.55992e-05
0.0030937
-5.39713e-05
0.00311068
-5.22602e-05
0.00312703
-5.04672e-05
0.00314273
-4.85933e-05
0.00315775
-4.664e-05
0.00317207
-4.46084e-05
0.00318566
-4.25002e-05
0.0031985
-4.03171e-05
0.00321057
-3.80611e-05
0.00322184
-3.57342e-05
0.00323231
-3.33384e-05
0.00324195
-3.08766e-05
0.00325076
-2.83524e-05
0.00325873
-2.57684e-05
0.00326584
-2.31305e-05
0.0032721
-2.04442e-05
0.00327752
-1.77137e-05
0.00328209
-1.49461e-05
0.00328584
-1.21458e-05
0.00328876
-9.31604e-06
0.0032909
-6.45439e-06
0.00329232
-3.54776e-06
0.00329313
-6.43793e-07
0.00329288
2.52067e-06
0.00329181
5.62232e-06
0.00328998
8.75545e-06
0.00328741
1.19416e-05
0.00328415
1.51993e-05
0.00328021
1.8543e-05
0.00327563
2.1987e-05
0.00327046
2.5546e-05
0.00326473
2.92339e-05
0.00325852
3.30624e-05
0.00325187
3.70399e-05
0.00324485
4.11698e-05
0.00323748
4.54489e-05
0.0032298
4.98634e-05
0.00322184
5.43857e-05
0.00321356
5.89693e-05
0.00320496
6.35469e-05
0.00319597
6.80304e-05
0.00318653
7.23142e-05
0.00317655
7.62821e-05
0.00316597
7.9812e-05
0.00315472
8.27735e-05
0.00314273
8.50177e-05
0.00312985
8.63651e-05
0.00311583
8.66212e-05
0.00310033
8.5647e-05
0.00308293
8.34772e-05
0.00306325
8.04241e-05
0.00304106
7.70764e-05
0.0030163
7.41527e-05
0.00298915
7.22672e-05
0.00295998
7.17384e-05
0.00292927
7.25365e-05
0.00289752
7.43833e-05
0.00286515
7.69297e-05
0.00283238
7.98947e-05
0.00279929
8.31039e-05
0.00276579
8.64527e-05
0.00273173
8.98513e-05
0.00269694
9.31968e-05
0.0026613
9.63823e-05
0.00262477
9.93298e-05
0.00258733
0.000102018
0.00254906
0.000104488
0.00250999
0.000106827
0.00247019
0.000109137
0.00242964
0.0001115
0.00238833
0.000113963
0.0023462
0.000116532
0.00230321
0.000119177
0.00225932
0.000121851
0.00221452
0.000124506
0.00216883
0.0001271
0.00212229
0.000129611
0.00207494
0.000132035
0.00202684
0.000134379
0.00197801
0.000136664
0.0019285
0.000138908
0.00187833
0.000141131
0.0018275
0.00014335
0.00177602
0.000145577
0.00172388
0.000147818
0.0016711
0.000150081
0.00161763
0.000152374
0.00156347
0.000154706
0.00150858
0.000157087
0.00145292
0.000159531
0.00139644
0.000162052
0.00133908
0.000164662
0.00128075
0.00016737
0.00122138
0.00017018
0.00116085
0.000173089
0.00109906
0.000176083
0.00103588
0.000179142
0.000971222
0.00018223
0.00090498
0.000185303
0.00083708
0.000188312
0.000767481
0.0001912
0.000696172
0.00019391
0.000623186
0.000196383
0.000548599
0.000198564
0.000472526
0.000200403
0.000395107
0.000201878
0.000316493
0.000203037
0.000237042
0.000203895
0.000157734
0.000203469
8.00727e-05
0.000199837
0.000207671
1.97392e-05
-9.58379e-05
4.62891e-05
-0.000116653
6.92485e-05
-0.000105082
8.9845e-05
-9.94992e-05
0.000110281
-9.9263e-05
0.000131181
-9.99324e-05
0.000152423
-0.000100307
0.000173904
-0.000100577
0.000195629
-0.000100905
0.00021764
-0.000101316
0.000239964
-0.000101783
0.000262613
-0.000102288
0.000285603
-0.000102823
0.000308945
-0.000103392
0.00033265
-0.000103984
0.000356712
-0.00010458
0.000381135
-0.000105176
0.000405905
-0.000105758
0.000431007
-0.000106312
0.000456414
-0.000106819
0.000482096
-0.00010727
0.000508029
-0.000107649
0.00053418
-0.000107947
0.000560507
-0.00010814
0.000586974
-0.000108222
0.000613541
-0.000108181
0.00064017
-0.000108006
0.000666824
-0.000107695
0.000693469
-0.000107246
0.000720078
-0.000106668
0.000746618
-0.00010597
0.000773066
-0.000105163
0.0007994
-0.000104258
0.0008256
-0.000103263
0.000851651
-0.000102182
0.00087754
-0.00010102
0.000903251
-9.97799e-05
0.000928772
-9.84651e-05
0.000954081
-9.70788e-05
0.000979157
-9.56294e-05
0.00100398
-9.41259e-05
0.00102852
-9.25762e-05
0.00105278
-9.09921e-05
0.00107675
-8.938e-05
0.00110045
-8.77482e-05
0.00112389
-8.61016e-05
0.00114708
-8.44468e-05
0.00117004
-8.27912e-05
0.00119278
-8.11449e-05
0.00121526
-7.95189e-05
0.00123748
-7.79242e-05
0.0012594
-7.63705e-05
0.00128096
-7.48638e-05
0.00130215
-7.34061e-05
0.00132291
-7.1996e-05
0.00134325
-7.06296e-05
0.00136313
-6.93013e-05
0.00138256
-6.80048e-05
0.00140155
-6.67336e-05
0.0014201
-6.54819e-05
0.00143822
-6.42438e-05
0.00145593
-6.30165e-05
0.00147324
-6.17981e-05
0.00149016
-6.05893e-05
0.00150669
-5.93895e-05
0.00152284
-5.81996e-05
0.00153862
-5.70173e-05
0.00155401
-5.58419e-05
0.00156901
-5.4671e-05
0.00158364
-5.34993e-05
0.00159788
-5.23238e-05
0.00161175
-5.11407e-05
0.00162524
-4.99475e-05
0.00163836
-4.87416e-05
0.00165111
-4.75207e-05
0.00166349
-4.62842e-05
0.00167552
-4.50321e-05
0.00168718
-4.37638e-05
0.00169848
-4.24797e-05
0.00170942
-4.118e-05
0.00172
-3.98647e-05
0.00173022
-3.85332e-05
0.00174006
-3.71858e-05
0.00174954
-3.58224e-05
0.00175865
-3.44433e-05
0.00176738
-3.30486e-05
0.00177574
-3.1639e-05
0.00178372
-3.02153e-05
0.00179132
-2.8779e-05
0.00179853
-2.73318e-05
0.00180535
-2.58755e-05
0.00181178
-2.44117e-05
0.00181781
-2.29424e-05
0.00182345
-2.14696e-05
0.00182867
-1.99953e-05
0.00183349
-1.85212e-05
0.00183789
-1.70491e-05
0.00184188
-1.55806e-05
0.00184545
-1.41171e-05
0.0018486
-1.26596e-05
0.00185134
-1.12096e-05
0.00185368
-9.76887e-06
0.00185562
-8.33983e-06
0.00185718
-6.92538e-06
0.00185837
-5.52897e-06
0.00185919
-4.15441e-06
0.00185966
-2.8057e-06
0.00185978
-1.48692e-06
0.00185957
-2.0205e-07
0.00185903
1.04673e-06
0.00185816
2.25887e-06
0.00185699
3.41611e-06
0.00185552
4.53251e-06
0.00185377
5.59907e-06
0.00185174
6.61387e-06
0.00184944
7.57362e-06
0.0018469
8.47751e-06
0.00184411
9.33187e-06
0.0018411
1.01126e-05
0.00183788
1.08404e-05
0.00183446
1.1506e-05
0.00183086
1.21084e-05
0.0018271
1.2647e-05
0.00182318
1.31292e-05
0.00181914
1.35297e-05
0.00181497
1.38786e-05
0.0018107
1.41504e-05
0.00180634
1.43596e-05
0.00180191
1.45019e-05
0.00179742
1.45768e-05
0.00179289
1.45848e-05
0.00178833
1.45304e-05
0.00178376
1.44042e-05
0.00177918
1.42176e-05
0.00177461
1.39721e-05
0.00177007
1.36665e-05
0.00176556
1.33041e-05
0.0017611
1.28913e-05
0.0017567
1.24342e-05
0.00175238
1.19291e-05
0.00174814
1.13773e-05
0.00174403
1.0785e-05
0.00174005
1.01444e-05
0.00173624
9.47208e-06
0.00173261
8.7633e-06
0.00172919
8.01953e-06
0.00172601
7.23815e-06
0.00172308
6.42523e-06
0.00172043
5.58017e-06
0.00171807
4.70521e-06
0.00171605
3.80196e-06
0.00171436
2.86768e-06
0.00171302
1.9071e-06
0.00171205
9.17697e-07
0.00171147
-9.56612e-08
0.0017113
-1.1352e-06
0.00171156
-2.19976e-06
0.00171227
-3.29003e-06
0.00171345
-4.40742e-06
0.00171512
-5.55482e-06
0.0017173
-6.73678e-06
0.00171999
-7.95984e-06
0.00172321
-9.23232e-06
0.00172696
-1.05638e-05
0.00173122
-1.19643e-05
0.001736
-1.34437e-05
0.00174128
-1.50102e-05
0.00174703
-1.66706e-05
0.00175324
-1.84294e-05
0.00175988
-2.02874e-05
0.00176693
-2.22407e-05
0.00177439
-2.42806e-05
0.00178225
-2.63948e-05
0.00179051
-2.85675e-05
0.00179918
-3.07811e-05
0.00180829
-3.3018e-05
0.00181786
-3.52623e-05
0.0018279
-3.75014e-05
0.00183843
-3.97268e-05
0.00184947
-4.19344e-05
0.001861
-4.41229e-05
0.00187302
-4.62928e-05
0.00188553
-4.84453e-05
0.00189852
-5.05818e-05
0.00191199
-5.27032e-05
0.00192592
-5.48092e-05
0.00194032