/*--------------------------------*- C++ -*----------------------------------*\
| =========                 |                                                 |
| \\      /  F ield         | OpenFOAM: The Open Source CFD Toolbox           |
|  \\    /   O peration     | Version:  v2006                                 |
|   \\  /    A nd           | Website:  www.openfoam.com                      |
|    \\/     M anipulation  |                                                 |
\*---------------------------------------------------------------------------*/
FoamFile
{
    version     2.0;
    format      ascii;
    class       volScalarField;
    location    "18.6";
    object      p_rgh;
}
// * * * * * * * * * * * * * * * * * * * * * * * * * * * * * * * * * * * * * //

dimensions      [1 -1 -2 0 0 0 0];


internalField   nonuniform List<scalar> 
52500
(
3103.45
3103.3
3103.01
3102.58
3102.02
3101.32
3100.49
3099.52
3098.42
3097.17
3095.79
3094.26
3092.59
3090.78
3088.83
3086.75
3084.53
3082.16
3079.64
3076.97
3074.16
3071.21
3068.1
3064.84
3061.44
3057.88
3054.17
3050.31
3046.29
3042.11
3037.77
3033.27
3028.61
3023.8
3018.82
3013.68
3008.39
3002.93
2997.31
2991.52
2985.56
2979.43
2973.14
2966.67
2960.05
2953.24
2946.25
2939.08
2931.74
2924.22
2916.52
2908.63
2900.56
2892.31
2883.86
2875.23
2866.41
2857.4
2848.19
2838.79
2829.2
2819.42
2809.43
2799.25
2788.87
2778.3
2767.53
2756.57
2745.41
2734.05
2722.49
2710.73
2698.75
2686.58
2674.25
2661.71
2648.96
2636.01
2622.86
2609.51
2595.96
2582.21
2568.27
2554.13
2539.8
2525.27
2510.55
2495.63
2480.52
2465.23
2449.74
2434.07
2418.21
2402.16
2385.94
2369.53
2352.94
2336.17
2319.23
2302.12
2284.83
2267.38
2249.76
2231.98
2214.04
2195.94
2177.69
2159.28
2140.73
2122.03
2103.19
2084.21
2065.09
2045.85
2026.47
2006.97
1987.36
1967.62
1947.77
1927.82
1907.76
1887.6
1867.35
1847
1826.58
1806.07
1785.48
1764.82
1744.1
1723.31
1702.46
1681.56
1660.62
1639.63
1618.6
1597.54
1576.45
1555.34
1534.21
1513.07
1491.92
1470.77
1449.62
1428.48
1407.36
1386.25
1365.17
1344.12
1323.1
1302.13
1281.2
1260.33
1239.51
1218.74
1198.04
1177.4
1156.84
1136.35
1115.94
1095.61
1075.38
1055.24
1035.19
1015.26
995.427
975.712
956.113
936.634
917.28
898.055
878.962
860.005
841.189
822.518
803.994
785.621
767.404
749.346
731.451
713.721
696.161
678.773
661.561
644.529
627.679
611.015
594.539
578.255
562.166
546.274
530.583
515.095
499.814
484.742
469.881
455.234
440.802
426.589
412.597
398.828
385.285
371.968
358.881
346.024
333.4
321.011
308.857
296.94
285.262
273.823
262.625
251.668
240.953
230.481
220.252
210.268
200.527
191.031
181.779
172.772
164.009
155.49
147.215
139.183
131.394
123.847
116.542
109.477
102.652
96.0658
89.7174
83.6056
77.7294
72.0875
66.6786
61.5013
56.5543
51.8361
47.3454
43.0804
39.0397
35.2215
31.6244
28.2466
25.0862
22.1417
19.411
16.8923
14.5836
12.4841
10.59
8.89979
7.41141
6.12266
5.03123
4.13493
3.43135
2.91811
2.59275
2.45277
2.49556
2.71838
3.11834
3.69242
4.43742
5.34997
6.42653
7.66338
9.05664
10.6023
12.2962
14.1337
16.1107
18.2229
20.4663
22.8373
25.3331
27.9519
30.694
33.5543
36.5313
39.6268
42.8417
46.1744
49.6204
53.1813
56.8476
60.6068
64.4476
68.3619
72.3434
76.3847
80.4797
84.6236
88.8114
93.039
97.3025
101.598
105.922
110.269
114.635
119.015
123.405
127.799
132.192
136.579
140.954
145.311
149.646
153.954
158.229
162.467
166.664
170.815
174.915
178.959
182.943
186.863
190.714
194.492
198.191
201.809
205.341
208.783
212.131
215.382
218.531
221.576
224.513
227.338
230.05
232.645
235.12
237.473
239.701
241.803
243.776
245.619
247.329
248.905
250.345
251.648
252.812
253.835
254.715
255.452
256.044
256.488
256.784
256.928
3103.82
3103.67
3103.38
3102.93
3102.36
3101.66
3100.84
3099.89
3098.79
3097.54
3096.15
3094.63
3092.95
3091.13
3089.19
3087.13
3084.91
3082.54
3080.03
3077.36
3074.55
3071.6
3068.49
3065.24
3061.84
3058.29
3054.58
3050.73
3046.71
3042.54
3038.2
3033.7
3029.04
3024.22
3019.24
3014.11
3008.82
3003.37
2997.76
2991.98
2986.03
2979.87
2973.59
2967.12
2960.48
2953.68
2946.7
2939.55
2932.22
2924.71
2917.02
2909.14
2901.08
2892.82
2884.39
2875.76
2866.94
2857.93
2848.73
2839.34
2829.75
2819.97
2809.99
2799.81
2789.43
2778.86
2768.1
2757.14
2746
2734.67
2723.13
2711.39
2699.45
2687.26
2674.86
2662.28
2649.51
2636.55
2623.39
2610.03
2596.48
2582.73
2568.78
2554.64
2540.3
2525.77
2511.05
2496.13
2481.02
2465.72
2450.23
2434.55
2418.69
2402.64
2386.41
2369.99
2353.4
2336.63
2319.68
2302.56
2285.27
2267.82
2250.19
2232.4
2214.45
2196.35
2178.09
2159.67
2141.11
2122.4
2103.55
2084.56
2065.44
2046.18
2026.8
2007.29
1987.66
1967.91
1948.05
1928.09
1908.02
1887.84
1867.58
1847.23
1826.78
1806.26
1785.66
1764.99
1744.25
1723.45
1702.59
1681.68
1660.72
1639.72
1618.68
1597.6
1576.5
1555.38
1534.24
1513.08
1491.92
1470.76
1449.6
1428.45
1407.32
1386.2
1365.11
1344.04
1323.01
1302.02
1281.08
1260.18
1239.34
1218.56
1197.85
1177.2
1156.63
1136.13
1115.72
1095.39
1075.14
1054.99
1034.94
1014.99
995.147
975.416
955.803
936.312
916.946
897.71
878.606
859.639
840.812
822.13
803.596
785.213
766.986
748.918
731.012
713.272
695.702
678.304
661.082
644.04
627.181
610.508
594.023
577.73
561.632
545.732
530.033
514.537
499.247
484.166
469.299
454.645
440.208
425.989
411.991
398.216
384.667
371.345
358.253
345.391
332.763
320.369
308.211
296.29
284.608
273.166
261.965
251.005
240.288
229.814
219.584
209.597
199.856
190.359
181.106
172.099
163.336
154.817
146.543
138.512
130.724
123.178
115.874
108.811
101.988
95.4045
89.0585
82.9494
77.0759
71.4369
66.0311
60.8571
55.9136
51.199
46.712
42.4509
38.4142
34.6002
31.0073
27.6338
24.478
21.5381
18.8123
16.2988
13.9956
11.901
10.0128
8.32871
6.84661
5.56407
4.47898
3.58902
2.8916
2.38451
2.06557
1.93242
1.98244
2.21289
2.62096
3.20358
3.95742
4.8791
5.96495
7.211
8.61307
10.1671
11.869
13.7151
15.702
17.8263
20.0826
22.463
24.9563
27.5483
30.2273
33.0082
35.9231
39.0043
42.2601
45.6768
49.2286
52.8763
56.597
60.3941
64.2611
68.1945
72.1886
76.2386
80.3408
84.492
88.6889
92.9278
97.2047
101.515
105.854
110.217
114.599
118.995
123.399
127.806
132.212
136.611
140.997
145.366
149.712
154.032
158.318
162.568
166.777
170.939
175.05
179.105
183.1
187.03
190.891
194.678
198.388
202.015
205.556
209.007
212.363
215.622
218.78
221.832
224.777
227.61
230.329
232.93
235.412
237.771
240.005
242.113
244.092
245.939
247.654
249.234
250.678
251.983
253.149
254.174
255.055
255.793
256.385
256.831
257.129
257.277
3104.59
3104.45
3104.19
3103.81
3103.27
3102.58
3101.74
3100.76
3099.64
3098.39
3097
3095.47
3093.81
3092.01
3090.06
3087.94
3085.7
3083.32
3080.8
3078.14
3075.34
3072.38
3069.29
3066.04
3062.65
3059.1
3055.41
3051.57
3047.58
3043.44
3039.06
3034.56
3029.91
3025.09
3020.12
3015
3009.72
3004.28
2998.7
2992.97
2987.07
2980.98
2974.67
2968.2
2961.55
2954.73
2947.74
2940.58
2933.23
2925.71
2918.01
2910.13
2902.06
2893.8
2885.36
2876.73
2867.91
2858.9
2849.7
2840.31
2830.72
2820.94
2810.96
2800.77
2790.38
2779.79
2768.99
2757.99
2746.89
2735.56
2724.01
2712.25
2700.29
2688.17
2675.83
2663.27
2650.52
2637.56
2624.41
2611.06
2597.5
2583.75
2569.81
2555.66
2541.32
2526.78
2512.05
2497.13
2482.02
2466.71
2451.21
2435.53
2419.66
2403.6
2387.36
2370.93
2354.33
2337.55
2320.59
2303.46
2286.16
2268.69
2251.05
2233.24
2215.28
2197.16
2178.88
2160.45
2141.87
2123.15
2104.27
2085.27
2066.12
2046.85
2027.44
2007.91
1988.26
1968.49
1948.61
1928.62
1908.53
1888.33
1868.05
1847.67
1827.2
1806.65
1786.03
1765.33
1744.57
1723.74
1702.85
1681.91
1660.93
1639.9
1618.83
1597.73
1576.6
1555.45
1534.28
1513.1
1491.92
1470.73
1449.54
1428.37
1407.21
1386.06
1364.94
1343.85
1322.8
1301.78
1280.81
1259.89
1239.03
1218.22
1197.48
1176.81
1156.21
1135.69
1115.25
1094.89
1074.62
1054.45
1034.37
1014.4
994.536
974.784
955.15
935.637
916.25
896.992
877.868
858.881
840.034
821.333
802.779
784.378
766.132
748.046
730.122
712.364
694.777
677.362
660.124
643.065
626.189
609.499
592.998
576.69
560.576
544.661
528.947
513.436
498.132
483.038
468.154
453.486
439.035
424.804
410.794
397.008
383.447
370.114
357.012
344.141
331.503
319.1
306.934
295.005
283.316
271.867
260.66
249.694
238.972
228.493
218.259
208.269
198.524
189.024
179.77
170.76
161.996
153.477
145.202
137.172
129.384
121.84
114.538
107.477
100.656
94.0752
87.7325
81.627
75.7577
70.1231
64.7222
59.5534
54.6154
49.9068
45.426
41.1715
37.1416
33.3348
29.7494
26.3837
23.2358
20.3042
17.5868
15.0819
12.7876
10.7019
8.82272
7.14806
5.67575
4.40329
3.32883
2.44965
1.76356
1.26825
0.961276
0.840151
0.902185
1.14462
1.56464
2.15934
2.92555
3.86009
4.95976
6.22111
7.64058
9.21453
10.9393
12.811
14.8259
16.98
19.2693
21.69
24.2384
26.9111
29.7094
32.6326
35.6786
38.8441
42.125
45.5172
49.0162
52.6171
56.3165
60.0981
63.9598
67.8976
71.8978
75.9594
80.079
84.2531
88.476
92.7421
97.0462
101.383
105.749
110.137
114.545
118.965
123.394
127.827
132.257
136.68
141.09
145.483
149.853
154.196
158.506
162.779
167.01
171.195
175.329
179.406
183.423
187.374
191.256
195.064
198.794
202.441
206.001
209.471
212.846
216.123
219.298
222.367
225.328
228.177
230.911
233.528
236.023
238.396
240.643
242.763
244.752
246.611
248.335
249.925
251.377
252.691
253.864
254.895
255.783
256.526
257.123
257.571
257.868
258.016
3105.65
3105.51
3105.25
3104.85
3104.3
3103.61
3102.78
3101.81
3100.7
3099.45
3098.07
3096.55
3094.88
3093.08
3091.13
3089.04
3086.81
3084.44
3081.93
3079.27
3076.47
3073.53
3070.44
3067.2
3063.81
3060.27
3056.57
3052.72
3048.7
3044.52
3040.25
3035.79
3031.16
3026.36
3021.38
3016.25
3010.97
3005.55
2999.99
2994.25
2988.33
2982.26
2976.01
2969.57
2962.96
2956.17
2949.2
2942.04
2934.71
2927.2
2919.51
2911.64
2903.58
2895.33
2886.9
2878.28
2869.46
2860.46
2851.27
2841.89
2832.32
2822.57
2812.64
2802.44
2792.06
2781.51
2770.77
2759.84
2748.61
2737.22
2725.65
2713.89
2701.94
2689.79
2677.43
2664.88
2652.12
2639.16
2626
2612.64
2599.09
2585.33
2571.38
2557.22
2542.88
2528.33
2513.59
2498.66
2483.53
2468.22
2452.71
2437.01
2421.13
2405.05
2388.8
2372.36
2355.74
2338.94
2321.97
2304.82
2287.49
2270
2252.34
2234.51
2216.53
2198.38
2180.08
2161.62
2143.02
2124.26
2105.36
2086.33
2067.15
2047.85
2028.41
2008.85
1989.16
1969.36
1949.45
1929.42
1909.29
1889.06
1868.74
1848.32
1827.82
1807.23
1786.57
1765.83
1745.03
1724.16
1703.24
1682.26
1661.23
1640.16
1619.05
1597.91
1576.74
1555.55
1534.34
1513.12
1491.9
1470.67
1449.44
1428.23
1407.03
1385.85
1364.69
1343.56
1322.47
1301.41
1280.4
1259.44
1238.54
1217.69
1196.91
1176.2
1155.55
1134.99
1114.51
1094.12
1073.81
1053.61
1033.5
1013.5
993.602
973.821
954.157
934.615
915.198
895.911
876.757
857.741
838.865
820.135
801.553
783.124
764.851
746.737
728.786
711.002
693.388
675.947
658.683
641.6
624.699
607.985
591.46
575.128
558.991
543.053
527.316
511.784
496.458
481.343
466.44
451.753
437.283
423.033
409.005
395.202
381.624
368.276
355.158
342.272
329.62
317.205
305.026
293.086
281.386
269.927
258.71
247.736
237.005
226.52
216.279
206.284
196.534
187.031
177.773
168.761
159.995
151.475
143.2
135.17
127.383
119.841
112.54
105.482
98.6653
92.0883
85.7502
79.6499
73.7862
68.158
62.7639
57.6025
52.6724
47.9722
43.5003
39.2552
35.2353
31.4391
27.8647
24.5105
21.3748
18.4557
15.7515
13.2604
10.9803
8.90927
7.04543
5.38675
3.93254
2.67793
1.62165
0.761468
0.0951259
-0.379705
-0.665477
-0.764735
-0.68011
-0.414299
0.029902
0.649563
1.44163
2.40297
3.53043
4.82072
6.27042
7.87606
9.63413
11.5412
13.5934
15.7871
18.1186
20.5839
23.1791
25.9006
28.7445
31.7077
34.7898
37.9914
41.3117
44.7471
48.2906
51.934
55.6694
59.489
63.3858
67.3522
71.3907
75.4927
79.6516
83.8661
88.128
92.4325
96.7752
101.151
105.556
109.985
114.432
118.892
123.361
127.832
132.301
136.762
141.21
145.64
150.047
154.427
158.774
163.083
167.35
171.57
175.738
179.85
183.9
187.885
191.799
195.639
199.399
203.077
206.667
210.166
213.569
216.874
220.076
223.173
226.159
229.033
231.791
234.431
236.949
239.343
241.61
243.749
245.757
247.633
249.373
250.978
252.444
253.77
254.954
255.996
256.893
257.646
258.25
258.703
259.002
259.147
3107.06
3106.93
3106.66
3106.25
3105.71
3105.02
3104.2
3103.23
3102.13
3100.89
3099.51
3098
3096.34
3094.55
3092.61
3090.54
3088.32
3085.96
3083.46
3080.82
3078.04
3075.11
3072.03
3068.81
3065.43
3061.91
3058.23
3054.41
3050.43
3046.3
3042.03
3037.6
3033.02
3028.29
3023.4
3018.34
3013.09
3007.66
3002.02
2996.23
2990.27
2984.17
2977.91
2971.47
2964.86
2958.08
2951.12
2943.98
2936.66
2929.16
2921.48
2913.61
2905.56
2897.32
2888.9
2880.28
2871.48
2862.48
2853.28
2843.89
2834.32
2824.54
2814.55
2804.44
2794.11
2783.56
2772.82
2761.87
2750.7
2739.33
2727.77
2716.01
2704.06
2691.9
2679.55
2666.99
2654.23
2641.27
2628.11
2614.75
2601.18
2587.42
2573.46
2559.3
2544.95
2530.39
2515.64
2500.7
2485.56
2470.23
2454.7
2438.99
2423.09
2407
2390.72
2374.26
2357.62
2340.8
2323.8
2306.63
2289.28
2271.76
2254.07
2236.21
2218.19
2200.01
2181.68
2163.19
2144.55
2125.75
2106.82
2087.74
2068.53
2049.18
2029.7
2010.1
1990.37
1970.52
1950.56
1930.49
1910.32
1890.04
1869.67
1849.2
1828.65
1808.01
1787.29
1766.51
1745.65
1724.73
1703.75
1682.72
1661.64
1640.52
1619.35
1598.16
1576.94
1555.69
1534.43
1513.15
1491.87
1470.59
1449.31
1428.04
1406.79
1385.55
1364.34
1343.16
1322.01
1300.91
1279.85
1258.84
1237.88
1216.98
1196.15
1175.39
1154.7
1134.09
1113.56
1093.12
1072.77
1052.52
1032.37
1012.32
992.381
972.556
952.848
933.263
913.805
894.476
875.282
856.225
837.311
818.542
799.922
781.455
763.145
744.994
727.008
709.188
691.539
674.064
656.766
639.648
622.714
605.967
589.41
573.046
556.878
540.909
525.143
509.58
494.225
479.079
464.152
449.439
434.944
420.669
406.617
392.79
379.191
365.821
352.683
339.777
327.107
314.674
302.479
290.523
278.809
267.336
256.107
245.122
234.381
223.886
213.637
203.635
193.879
184.37
175.108
166.094
157.325
148.804
140.528
132.498
124.713
117.173
109.876
102.822
96.0092
89.4375
83.1055
77.0122
71.1563
65.5365
60.1514
54.9998
50.0803
45.3913
40.9314
36.6989
32.6924
28.9102
25.3507
22.0121
18.8926
15.9906
13.3042
10.8315
8.57076
6.51986
4.67689
3.04007
1.61125
0.380479
-0.651063
-1.48542
-2.12484
-2.5717
-2.82849
-2.89774
-2.78202
-2.48406
-2.0067
-1.35274
-0.525093
0.473065
1.63857
2.96833
4.45901
6.10716
7.90949
9.86261
11.9629
14.2067
16.5906
19.1109
21.7638
24.5459
27.4539
30.4846
33.635
36.9018
40.2807
43.7673
47.3567
51.0433
54.8213
58.6847
62.6277
66.6444
70.7309
74.883
79.0964
83.3626
87.6723
92.0269
96.4211
100.849
105.307
109.787
114.286
118.798
123.317
127.84
132.359
136.871
141.37
145.85
150.307
154.736
159.132
163.489
167.804
172.071
176.285
180.442
184.537
188.566
192.523
196.405
200.208
203.926
207.556
211.094
214.536
217.878
221.117
224.249
227.27
230.178
232.969
235.64
238.189
240.612
242.908
245.074
247.108
249.007
250.77
252.395
253.88
255.223
256.423
257.479
258.389
259.153
259.769
260.229
260.528
260.672
3108.83
3108.69
3108.43
3108.02
3107.48
3106.8
3105.98
3105.02
3103.93
3102.7
3101.33
3099.83
3098.18
3096.4
3094.48
3092.42
3090.22
3087.88
3085.39
3082.77
3080
3077.08
3074.02
3070.81
3067.46
3063.95
3060.29
3056.49
3052.53
3048.42
3044.16
3039.74
3035.17
3030.44
3025.55
3020.49
3015.26
3009.85
3004.26
2998.51
2992.59
2986.51
2980.25
2973.83
2967.24
2960.47
2953.52
2946.4
2939.09
2931.61
2923.94
2916.09
2908.05
2899.83
2891.42
2882.82
2874.02
2865.04
2855.87
2846.51
2836.93
2827.16
2817.2
2807.06
2796.72
2786.18
2775.44
2764.49
2753.34
2741.98
2730.43
2718.67
2706.72
2694.56
2682.2
2669.64
2656.88
2643.92
2630.75
2617.39
2603.82
2590.05
2576.08
2561.91
2547.54
2532.98
2518.21
2503.25
2488.1
2472.75
2457.21
2441.47
2425.55
2409.44
2393.14
2376.65
2359.98
2343.13
2326.1
2308.89
2291.51
2273.96
2256.23
2238.34
2220.28
2202.06
2183.68
2165.15
2146.46
2127.63
2108.64
2089.52
2070.25
2050.86
2031.32
2011.67
1991.88
1971.98
1951.96
1931.84
1911.6
1891.26
1870.83
1850.3
1829.68
1808.98
1788.21
1767.35
1746.43
1725.44
1704.4
1683.3
1662.15
1640.96
1619.73
1598.47
1577.18
1555.86
1534.53
1513.19
1491.84
1470.49
1449.15
1427.81
1406.49
1385.18
1363.9
1342.66
1321.44
1300.27
1279.15
1258.07
1237.05
1216.09
1195.19
1174.37
1153.62
1132.94
1112.36
1091.86
1071.45
1051.14
1030.93
1010.83
990.834
970.956
951.197
931.56
912.051
892.672
873.428
854.322
835.359
816.542
797.875
779.362
761.005
742.809
724.778
706.914
689.221
671.703
654.362
637.202
620.227
603.439
586.842
570.439
554.232
538.226
522.422
506.824
491.434
476.258
461.292
446.544
432.016
417.71
403.627
389.771
376.144
362.747
349.583
336.653
323.96
311.504
299.288
287.313
275.581
264.091
252.846
241.847
231.093
220.587
210.327
200.316
190.552
181.037
171.77
162.751
153.98
145.457
137.181
129.151
121.368
113.83
106.537
99.4876
92.6809
86.116
79.7919
73.7073
67.861
62.2518
56.8783
51.7392
46.833
42.1583
37.7135
33.4972
29.5077
25.7434
22.2027
18.8839
15.7852
12.9049
10.2412
7.79221
5.55606
3.53074
1.71424
0.104601
-1.29036
-2.49155
-3.49188
-4.29353
-4.89882
-5.31014
-5.52995
-5.56079
-5.40526
-5.06602
-4.54588
-3.8477
-2.97431
-1.9288
-0.714383
0.665816
2.20861
3.91063
5.76842
7.77853
9.93747
12.2415
14.687
17.2703
19.9878
22.8357
25.8104
28.9081
32.1252
35.458
38.9026
42.4542
46.108
49.8585
53.7003
57.6279
61.6359
65.7188
69.8715
74.0888
78.3649
82.6922
87.0717
91.4983
95.9622
100.459
104.984
109.531
114.097
118.675
123.26
127.848
132.432
137.008
141.571
146.114
150.634
155.125
159.583
164.001
168.375
172.701
176.974
181.188
185.34
189.423
193.435
197.37
201.225
204.994
208.675
212.261
215.751
219.14
222.424
225.6
228.665
231.614
234.446
237.156
239.742
242.202
244.533
246.732
248.797
250.727
252.518
254.168
255.677
257.042
258.261
259.334
260.26
261.037
261.662
262.13
262.433
262.576
3110.96
3110.82
3110.56
3110.15
3109.61
3108.94
3108.13
3107.18
3106.1
3104.88
3103.52
3102.03
3100.4
3098.63
3096.73
3094.68
3092.5
3090.17
3087.71
3085.1
3082.34
3079.45
3076.4
3073.22
3069.88
3066.39
3062.76
3058.97
3055.03
3050.94
3046.7
3042.3
3037.74
3033.03
3028.15
3023.1
3017.89
3012.51
3006.96
3001.23
2995.34
2989.28
2983.06
2976.65
2970.08
2963.33
2956.4
2949.3
2942.01
2934.55
2926.9
2919.06
2911.04
2902.83
2894.44
2885.85
2877.08
2868.11
2858.95
2849.59
2840.04
2830.29
2820.34
2810.2
2799.87
2789.33
2778.59
2767.65
2756.51
2745.16
2733.62
2721.87
2709.91
2697.76
2685.4
2672.84
2660.07
2647.11
2633.93
2620.56
2606.99
2593.21
2579.23
2565.05
2550.66
2536.08
2521.3
2506.33
2491.15
2475.78
2460.22
2444.46
2428.51
2412.37
2396.04
2379.52
2362.82
2345.93
2328.87
2311.62
2294.2
2276.6
2258.83
2240.9
2222.79
2204.53
2186.1
2167.51
2148.77
2129.88
2110.84
2091.66
2072.33
2052.87
2033.28
2013.55
1993.71
1973.74
1953.65
1933.45
1913.15
1892.74
1872.23
1851.63
1830.94
1810.16
1789.3
1768.37
1747.37
1726.31
1705.18
1684
1662.77
1641.5
1620.19
1598.84
1577.47
1556.07
1534.66
1513.24
1491.8
1470.37
1448.94
1427.52
1406.12
1384.74
1363.38
1342.05
1320.76
1299.51
1278.3
1257.15
1236.05
1215.01
1194.04
1173.14
1152.32
1131.57
1110.91
1090.34
1069.87
1049.49
1029.21
1009.04
988.984
969.041
949.218
929.518
909.947
890.507
871.203
852.038
833.016
814.142
795.418
776.848
758.436
740.185
722.1
704.183
686.438
668.867
651.475
634.265
617.24
600.403
583.757
567.306
551.053
535
519.151
503.509
488.076
472.855
457.85
443.062
428.495
414.15
400.031
386.14
372.479
359.049
345.854
332.895
320.173
307.691
295.45
283.451
271.697
260.187
248.923
237.907
227.138
216.617
206.345
196.323
186.55
177.027
167.753
158.73
149.955
141.43
133.153
125.124
117.343
109.808
102.52
95.476
88.6763
82.1197
75.8049
69.7308
63.8962
58.2999
52.9404
47.8163
42.9263
38.2688
33.8424
29.6456
25.6768
21.9344
18.4166
15.1218
12.0484
9.19463
6.55864
4.13865
1.93269
-0.0611787
-1.84501
-3.42115
-4.77771
-5.94248
-6.90441
-7.66598
-8.22957
-8.59758
-8.77246
-8.75672
-8.55294
-8.16377
-7.59198
-6.84041
-5.91192
-4.80947
-3.53616
-2.09521
-0.489903
1.27657
3.20081
5.27924
7.50833
9.8845
12.404
15.063
17.8578
20.7844
23.8388
27.0172
30.3153
33.7288
37.2533
40.884
44.6161
48.4445
52.3639
56.3693
60.4553
64.6168
68.8485
73.1453
77.502
81.9136
86.3763
90.8798
95.4221
99.9984
104.603
109.231
113.876
118.534
123.198
127.865
132.527
137.181
141.821
146.441
151.037
155.603
160.134
164.626
169.073
173.47
177.812
182.096
186.315
190.465
194.542
198.542
202.459
206.29
210.03
213.676
217.223
220.668
224.006
227.235
230.35
233.349
236.228
238.985
241.616
244.118
246.49
248.728
250.829
252.793
254.616
256.297
257.833
259.223
260.465
261.557
262.499
263.289
263.925
264.4
264.71
264.856
3113.44
3113.3
3113.04
3112.64
3112.11
3111.44
3110.64
3109.7
3108.63
3107.42
3106.08
3104.6
3102.99
3101.24
3099.35
3097.32
3095.15
3092.85
3090.4
3087.81
3085.08
3082.2
3079.18
3076.01
3072.7
3069.23
3065.62
3061.86
3057.94
3053.87
3049.65
3045.27
3040.74
3036.04
3031.19
3026.16
3020.98
3015.62
3010.1
3004.41
2998.55
2992.52
2986.31
2979.94
2973.39
2966.66
2959.76
2952.68
2945.41
2937.97
2930.34
2922.53
2914.53
2906.34
2897.97
2889.4
2880.64
2871.69
2862.54
2853.2
2843.67
2833.93
2824
2813.88
2803.55
2793.02
2782.29
2771.36
2760.22
2748.88
2737.34
2725.6
2713.65
2701.49
2689.13
2676.57
2663.8
2650.83
2637.65
2624.27
2610.69
2596.9
2582.91
2568.71
2554.32
2539.72
2524.92
2509.92
2494.72
2479.33
2463.74
2447.95
2431.97
2415.8
2399.43
2382.88
2366.14
2349.21
2332.1
2314.82
2297.35
2279.7
2261.88
2243.89
2225.73
2207.41
2188.92
2170.28
2151.47
2132.52
2113.41
2094.16
2074.77
2055.23
2035.57
2015.77
1995.84
1975.8
1955.63
1935.35
1914.96
1894.47
1873.87
1853.18
1832.4
1811.54
1790.59
1769.57
1748.47
1727.32
1706.1
1684.82
1663.5
1642.13
1620.72
1599.28
1577.81
1556.32
1534.81
1513.29
1491.76
1470.23
1448.7
1427.19
1405.69
1384.21
1362.76
1341.34
1319.95
1298.61
1277.31
1256.06
1234.88
1213.75
1192.69
1171.7
1150.79
1129.96
1109.22
1088.57
1068.01
1047.55
1027.19
1006.95
986.813
966.795
946.898
927.126
907.482
887.972
868.598
849.364
830.275
811.333
792.543
773.908
755.431
737.117
718.969
700.989
683.183
665.552
648.1
630.831
613.747
596.853
580.151
563.644
547.336
531.23
515.328
499.634
484.15
468.881
453.826
438.991
424.378
409.989
395.827
381.894
368.193
354.725
341.493
328.499
315.744
303.231
290.96
278.934
267.154
255.62
244.334
233.298
222.51
211.973
201.687
191.652
181.868
172.336
163.055
154.025
145.247
136.719
128.442
120.414
112.635
105.104
97.8204
90.7834
83.9919
77.4447
71.1409
65.0791
59.2581
53.6766
48.3333
43.2269
38.3558
33.7186
29.3139
25.14
21.1953
17.4785
13.9876
10.7212
7.67755
4.85487
2.25157
-0.134184
-2.3044
-4.26078
-6.00515
-7.53921
-8.86019
-9.97951
-10.8952
-11.6091
-12.1234
-12.4404
-12.5623
-12.4918
-12.2314
-11.7835
-11.151
-10.3367
-9.34348
-8.17423
-6.83201
-5.32007
-3.64171
-1.80017
0.201128
2.35858
4.6685
7.12722
9.73102
12.4759
15.3578
18.3729
21.5168
24.7853
28.1743
31.6792
35.2954
39.0182
42.8426
46.7639
50.7767
54.8759
59.0563
63.3126
67.6393
72.0314
76.4835
80.9903
85.5465
90.146
94.7848
99.4569
104.157
108.88
113.619
118.371
123.129
127.889
132.643
137.389
142.119
146.829
151.514
156.169
160.787
165.365
169.897
174.377
178.802
183.167
187.466
191.695
195.849
199.924
203.915
207.818
211.628
215.343
218.957
222.466
225.868
229.158
232.333
235.389
238.324
241.133
243.815
246.366
248.784
251.065
253.209
255.211
257.071
258.785
260.352
261.769
263.036
264.15
265.109
265.913
266.56
267.045
267.363
267.514
3116.28
3116.14
3115.89
3115.49
3114.96
3114.3
3113.51
3112.58
3111.52
3110.33
3109
3107.54
3105.94
3104.21
3102.34
3100.33
3098.18
3095.89
3093.47
3090.9
3088.19
3085.34
3082.34
3079.19
3075.91
3072.47
3068.88
3065.14
3061.26
3057.21
3053.02
3048.67
3044.16
3039.49
3034.66
3029.67
3024.51
3019.19
3013.69
3008.03
3002.21
2996.2
2990.03
2983.69
2977.17
2970.47
2963.59
2956.54
2949.3
2941.88
2934.28
2926.49
2918.52
2910.35
2902
2893.46
2884.72
2875.79
2866.66
2857.34
2847.82
2838.11
2828.19
2818.08
2807.76
2797.25
2786.53
2775.6
2764.48
2753.15
2741.61
2729.87
2717.92
2705.77
2693.41
2680.85
2668.08
2655.1
2641.92
2628.53
2614.93
2601.13
2587.13
2572.92
2558.5
2543.88
2529.06
2514.04
2498.82
2483.39
2467.77
2451.95
2435.94
2419.73
2403.33
2386.73
2369.95
2352.98
2335.82
2318.48
2300.96
2283.26
2265.38
2247.33
2229.11
2210.72
2192.17
2173.45
2154.58
2135.55
2116.37
2097.04
2077.56
2057.95
2038.19
2018.31
1998.3
1978.16
1957.9
1937.53
1917.04
1896.45
1875.76
1854.97
1834.09
1813.12
1792.07
1770.94
1749.74
1728.48
1707.15
1685.77
1664.33
1642.85
1621.34
1599.78
1578.2
1556.6
1534.98
1513.34
1491.7
1470.06
1448.43
1426.8
1405.19
1383.6
1362.04
1340.51
1319.02
1297.57
1276.17
1254.82
1233.53
1212.3
1191.14
1170.05
1149.04
1128.12
1107.28
1086.53
1065.88
1045.33
1024.88
1004.55
984.326
964.222
944.24
924.385
904.659
885.067
865.614
846.301
827.134
808.116
789.25
770.54
751.99
733.603
715.383
697.333
679.456
661.756
644.236
626.899
609.749
592.789
576.022
559.451
543.08
526.911
510.949
495.195
479.653
464.326
449.216
434.327
419.661
405.22
391.009
377.028
363.28
349.769
336.495
323.46
310.667
298.118
285.813
273.756
261.945
250.384
239.073
228.013
217.206
206.65
196.347
186.297
176.501
166.958
157.669
148.633
139.85
131.319
123.041
115.014
107.237
99.7109
92.4335
85.4042
78.622
72.0857
65.7943
59.7465
53.9411
48.3767
43.0521
37.9658
33.1163
28.5023
24.1222
19.9745
16.0577
12.37
8.91002
5.67608
2.66653
-0.120296
-2.68612
-5.03275
-7.16196
-9.07548
-10.7751
-12.2625
-13.5378
-14.6065
-15.4697
-16.1291
-16.5869
-16.8453
-16.9066
-16.7732
-16.4476
-15.9325
-15.2303
-14.3441
-13.2766
-12.0309
-10.6099
-9.01693
-7.25528
-5.32825
-3.23932
-0.992108
1.40968
3.96224
6.66168
9.504
12.4851
15.6009
18.847
22.219
25.7124
29.3224
33.0444
36.8735
40.8046
44.8329
48.9533
53.1605
57.4492
61.8143
66.2503
70.752
75.3139
79.9306
84.5969
89.3072
94.0558
98.8376
103.647
108.479
113.328
118.188
123.054
127.92
132.781
137.632
142.467
147.281
152.069
156.824
161.543
166.22
170.85
175.427
179.947
184.405
188.795
193.114
197.357
201.518
205.594
209.58
213.472
217.265
220.956
224.541
228.015
231.375
234.617
237.739
240.737
243.607
246.346
248.952
251.422
253.753
255.943
257.989
259.888
261.64
263.241
264.689
265.983
267.12
268.1
268.92
269.58
270.076
270.403
270.559
3119.47
3119.34
3119.08
3118.69
3118.17
3117.52
3116.73
3115.82
3114.77
3113.59
3112.28
3110.83
3109.25
3107.54
3105.69
3103.7
3101.57
3099.31
3096.91
3094.36
3091.68
3088.85
3085.88
3082.77
3079.5
3076.1
3072.54
3068.83
3064.97
3060.96
3056.8
3052.48
3048
3043.36
3038.57
3033.61
3028.48
3023.19
3017.74
3012.11
3006.32
3000.35
2994.21
2987.9
2981.41
2974.75
2967.91
2960.88
2953.68
2946.29
2938.71
2930.95
2923.01
2914.87
2906.54
2898.02
2889.31
2880.41
2871.3
2862
2852.51
2842.81
2832.91
2822.81
2812.51
2802.01
2791.31
2780.39
2769.28
2757.96
2746.43
2734.69
2722.75
2710.6
2698.24
2685.68
2672.9
2659.92
2646.73
2633.33
2619.72
2605.91
2591.89
2577.66
2563.23
2548.59
2533.74
2518.69
2503.44
2487.99
2472.33
2456.48
2440.42
2424.17
2407.73
2391.08
2374.25
2357.23
2340.02
2322.62
2305.04
2287.28
2269.33
2251.22
2232.92
2214.46
2195.83
2177.04
2158.08
2138.97
2119.7
2100.29
2080.72
2061.01
2041.17
2021.18
2001.07
1980.83
1960.47
1939.99
1919.4
1898.7
1877.89
1856.99
1835.99
1814.91
1793.74
1772.49
1751.17
1729.79
1708.34
1686.83
1665.27
1643.67
1622.03
1600.35
1578.64
1556.91
1535.17
1513.41
1491.64
1469.88
1448.11
1426.36
1404.63
1382.92
1361.23
1339.58
1317.97
1296.4
1274.87
1253.41
1232
1210.66
1189.38
1168.18
1147.06
1126.03
1105.08
1084.23
1063.47
1042.82
1022.27
1001.84
981.515
961.315
941.238
921.288
901.47
881.788
862.244
842.844
823.589
804.485
785.535
766.741
748.109
729.64
711.339
693.209
675.254
657.475
639.878
622.466
605.24
588.206
571.366
554.723
538.281
522.042
506.01
490.189
474.58
459.188
444.015
429.064
414.338
399.839
385.571
371.536
357.736
344.174
330.852
317.772
304.936
292.346
280.003
267.909
256.065
244.473
233.134
222.048
211.216
200.639
190.318
180.252
170.442
160.888
151.589
142.545
133.757
125.224
116.944
108.918
101.145
93.6231
86.3525
79.3318
72.5599
66.0359
59.7586
53.7266
47.9387
42.3935
37.0898
32.0262
27.2011
22.613
18.2607
14.1426
10.2569
6.60213
3.17689
-0.0204867
-2.99162
-5.73817
-8.26187
-10.5644
-12.6474
-14.5129
-16.1625
-17.5977
-18.8193
-19.8316
-20.6359
-21.2341
-21.6282
-21.8206
-21.8134
-21.6092
-21.2102
-20.619
-19.8385
-18.8713
-17.7202
-16.3883
-14.8787
-13.1945
-11.3392
-9.31605
-7.12873
-4.78072
-2.27583
0.38191
3.18861
6.14019
9.23237
12.4608
15.8211
19.3087
22.919
26.6471
30.4881
34.4372
38.4894
42.6395
46.8823
51.2125
55.6248
60.114
64.6745
69.3009
73.9879
78.7298
83.5211
88.3565
93.2303
98.1371
103.071
108.027
113
117.983
122.971
127.958
132.94
137.911
142.865
147.796
152.7
157.571
162.403
167.193
171.933
176.619
181.247
185.811
190.306
194.727
199.07
203.329
207.501
211.581
215.565
219.447
223.225
226.894
230.45
233.89
237.209
240.404
243.473
246.411
249.215
251.883
254.412
256.798
259.039
261.134
263.078
264.871
266.509
267.991
269.316
270.48
271.482
272.321
272.997
273.505
273.841
274.001
3123.01
3122.88
3122.62
3122.24
3121.72
3121.08
3120.31
3119.4
3118.37
3117.21
3115.91
3114.48
3112.92
3111.23
3109.4
3107.43
3105.33
3103.09
3100.72
3098.2
3095.55
3092.75
3089.81
3086.72
3083.49
3080.12
3076.59
3072.92
3069.1
3065.12
3060.99
3056.71
3052.27
3047.67
3042.91
3037.98
3032.9
3027.65
3022.23
3016.64
3010.89
3004.96
2998.86
2992.58
2986.13
2979.51
2972.7
2965.71
2958.54
2951.19
2943.65
2935.92
2928
2919.9
2911.6
2903.11
2894.43
2885.55
2876.47
2867.19
2857.72
2848.04
2838.17
2828.09
2817.81
2807.32
2796.63
2785.73
2774.63
2763.31
2751.79
2740.06
2728.13
2715.98
2703.62
2691.06
2678.28
2665.29
2652.09
2638.68
2625.07
2611.24
2597.2
2582.95
2568.5
2553.84
2538.96
2523.89
2508.6
2493.11
2477.42
2461.53
2445.43
2429.13
2412.64
2395.94
2379.06
2361.98
2344.7
2327.24
2309.6
2291.76
2273.75
2255.56
2237.19
2218.64
2199.93
2181.05
2162
2142.8
2123.44
2103.92
2084.25
2064.44
2044.49
2024.4
2004.17
1983.82
1963.34
1942.74
1922.03
1901.21
1880.28
1859.25
1838.12
1816.91
1795.61
1774.23
1752.78
1731.25
1709.67
1688.02
1666.33
1644.59
1622.8
1600.98
1579.14
1557.26
1535.38
1513.48
1491.57
1469.66
1447.76
1425.87
1404
1382.14
1360.32
1338.53
1316.78
1295.08
1273.42
1251.83
1230.29
1208.82
1187.42
1166.09
1144.85
1123.69
1102.62
1081.65
1060.78
1040.01
1019.35
998.806
978.377
958.07
937.887
917.834
897.914
878.13
858.487
838.989
819.638
800.439
781.395
762.509
743.784