/*--------------------------------*- C++ -*----------------------------------*\
| =========                 |                                                 |
| \\      /  F ield         | OpenFOAM: The Open Source CFD Toolbox           |
|  \\    /   O peration     | Version:  v2006                                 |
|   \\  /    A nd           | Website:  www.openfoam.com                      |
|    \\/     M anipulation  |                                                 |
\*---------------------------------------------------------------------------*/
FoamFile
{
    version     2.0;
    format      ascii;
    class       volScalarField;
    location    "0";
    object      p;
}
// * * * * * * * * * * * * * * * * * * * * * * * * * * * * * * * * * * * * * //

dimensions      [1 -1 -2 0 0 0 0];


internalField   nonuniform List<scalar> 
67500
(
7.76949
6.18639
7.01227
8.62592
12.1587
16.7123
24.2412
5.99995
-6.92443
-5.44617
-2.60839
-1.74132
-0.940416
-0.0381086
0.524725
0.751295
0.902371
1.10685
1.40336
1.81712
2.36436
3.03785
3.80713
4.62773
5.45004
6.22656
6.91937
7.5066
7.98411
8.36178
8.65789
8.89518
9.09915
9.29694
9.51467
9.77148
10.0717
10.3991
10.7169
10.9723
11.1157
11.1483
11.1449
11.1709
11.2318
11.3112
11.4081
11.5373
11.7007
11.8797
12.0553
12.2194
12.3691
12.498
12.6
12.6748
12.7255
12.7542
12.7616
12.7484
12.7147
12.6592
12.5808
12.479
12.3534
12.2046
12.0336
11.842
11.6314
11.4039
11.1615
10.9064
10.6406
10.3663
10.0852
9.79919
9.50965
9.218
8.92544
8.63309
8.34197
8.05302
7.7671
7.48497
7.20732
6.93472
6.66768
6.4066
6.15183
5.90361
5.66214
5.42754
5.1999
4.97927
4.76564
4.559
4.3593
4.16647
3.98043
3.80107
3.62829
3.46196
3.30195
3.14812
3.00031
2.85836
2.72212
2.5914
2.46604
2.34585
2.23064
2.12024
2.01446
1.91311
1.816
1.72296
1.6338
1.54834
1.46641
1.38783
1.31245
1.2401
1.17063
1.10387
1.0397
0.977967
0.918538
0.861286
0.806088
0.752828
0.701393
0.651676
0.603578
0.557003
0.511861
0.468069
0.425547
0.384224
0.344034
0.304915
0.266813
0.22968
0.193472
0.158153
0.12369
0.0900596
0.0572394
0.0252144
-0.00602658
-0.03649
-0.0661784
-0.0950908
-0.123223
-0.150568
-0.177116
-0.202856
-0.227775
-0.251859
-0.275093
-0.297462
-0.31895
-0.339545
-0.35923
-0.377994
-0.395825
-0.412713
-0.428649
-0.443628
-0.457646
-0.4707
-0.482792
-0.493925
-0.504103
-0.513336
-0.521633
-0.529009
-0.535477
-0.541055
-0.545764
-0.549624
-0.552659
-0.554894
-0.556355
-0.557071
-0.557069
-0.55638
-0.555035
-0.553064
-0.5505
-0.547373
-0.543716
-0.53956
-0.534937
-0.529879
-0.524414
-0.518575
-0.51239
-0.505887
-0.499094
-0.492038
-0.484746
-0.47724
-0.469547
-0.461688
-0.453684
-0.445558
-0.437327
-0.429012
-0.420629
-0.412195
-0.403725
-0.395235
-0.386738
-0.378247
-0.369773
-0.36133
-0.352925
-0.34457
-0.336274
-0.328044
-0.319889
-0.311815
-0.30383
-0.295939
-0.288147
-0.280461
-0.272884
-0.265421
-0.258076
-0.250851
-0.243751
-0.236777
-0.229933
-0.223221
-0.216642
-0.210198
-0.203892
-0.197723
-0.191693
-0.185803
-0.180053
-0.174444
-0.168976
-0.163649
-0.158463
-0.153418
-0.148514
-0.143749
-0.139123
-0.134635
-0.130283
-0.126068
-0.121987
-0.118038
-0.11422
-0.110532
-0.10697
-0.103532
-0.100217
-0.097021
-0.0939419
-0.0909768
-0.0881225
-0.085376
-0.0827339
-0.080193
-0.0777498
-0.0754008
-0.0731424
-0.0709712
-0.0688835
-0.0668757
-0.0649443
-0.0630858
-0.0612967
-0.0595737
-0.0579135
-0.056313
-0.054769
-0.0532786
-0.0518393
-0.0504482
-0.0491032
-0.0478019
-0.0465422
-0.0453225
-0.0441409
-0.0429959
-0.0418862
-0.0408105
-0.0397676
-0.0387563
-0.0377756
-0.0368244
-0.0359015
-0.0350058
-0.0341362
-0.0332914
-0.0324704
-0.0316719
-0.0308949
-0.0301383
-0.0294011
-0.0286825
-0.0279818
-0.0272983
-0.0266315
-0.025981
-0.0253465
-0.0247277
-0.0241244
-0.0235365
-0.0229639
-0.0224065
-0.0218642
-0.021337
-0.0208245
-0.0203269
-0.0198438
-0.019375
-0.0189205
-0.0184798
-0.0180527
-0.0176389
-0.0172381
-0.01685
-0.0164741
-0.0161102
-0.0157578
-0.0154165
-0.0150861
-0.0147661
-0.014456
-0.0141557
-0.0138646
-0.0135824
-0.0133087
-0.0130432
-0.0127856
-0.0125356
-0.0122927
-0.0120568
-0.0118274
-0.0116044
-0.0113874
-0.0111762
-0.0109705
-0.0107701
-0.0105748
-0.0103843
-0.0101984
-0.010017
-0.00983971
-0.0096665
-0.00949716
-0.00933151
-0.0091694
-0.00901067
-0.00885517
-0.00870278
-0.00855335
-0.00840675
-0.00826288
-0.00812162
-0.00798285
-0.00784647
-0.0077124
-0.00758052
-0.00745077
-0.00732304
-0.00719725
-0.00707334
-0.00695123
-0.00683084
-0.00671212
-0.00659499
-0.00647939
-0.00636528
-0.00625259
-0.00614127
-0.00603127
-0.00592255
-0.00581506
-0.00570874
-0.00560358
-0.00549951
-0.0053965
-0.00529452
-0.00519353
-0.00509349
-0.00499438
-0.00489616
-0.00479881
-0.00470229
-0.00460658
-0.00451165
-0.00441747
-0.00432402
-0.00423128
-0.00413922
-0.00404782
-0.00395707
-0.00386693
-0.0037774
-0.00368844
-0.00360005
-0.0035122
-0.00342487
-0.00333806
-0.00325173
-0.00316588
-0.00308049
-0.00299555
-0.00291103
-0.00282693
-0.00274323
-0.00265991
-0.00257697
-0.00249439
-0.00241216
-0.00233025
-0.00224867
-0.0021674
-0.00208642
-0.00200572
-0.0019253
-0.00184514
-0.00176523
-0.00168555
-0.0016061
-0.00152686
-0.00144783
-0.001369
-0.00129034
-0.00121185
-0.00113352
-0.00105534
-0.000977306
-0.000899396
-0.000821605
-0.000743923
-0.000666337
-0.000588841
-0.000511415
-0.00043408
-0.000356715
-0.000279662
-0.000201573
-0.000126235
-3.59999e-05
6.12005
3.51518
3.20232
2.82398
1.28749
1.54384
3.08982
-15.7894
-21.5548
-9.14762
-0.470794
0.775416
0.666464
0.955249
0.992862
0.898743
0.906843
1.02337
1.24611
1.61102
2.1365
2.8067
3.58174
4.41065
5.23908
6.01497
6.69604
7.25891
7.70192
8.0387
8.29033
8.48164
8.64095
8.79982
8.99002
9.23656
9.54833
9.91153
10.2872
10.6068
10.7778
10.7786
10.7444
10.7774
10.8615
10.9541
11.0512
11.187
11.3697
11.5693
11.759
11.9337
12.0957
12.2371
12.3481
12.4302
12.4895
12.5285
12.547
12.5461
12.5255
12.4831
12.4173
12.3271
12.2122
12.0731
11.911
11.7274
11.5243
11.3037
11.0676
10.8183
10.558
10.2888
10.0127
9.73133
9.44623
9.15873
8.87006
8.58134
8.29359
8.00777
7.72476
7.44534
7.17021
6.89999
6.63517
6.37618
6.12336
5.87697
5.63721
5.40422
5.17808
4.95885
4.74652
4.54109
4.34251
4.15072
3.96564
3.78718
3.61524
3.44969
3.2904
3.13725
2.99008
2.84873
2.71304
2.58286
2.45799
2.33826
2.2235
2.11352
2.00813
1.90715
1.8104
1.71769
1.62884
1.54368
1.46203
1.38373
1.3086
1.23649
1.16724
1.1007
1.03672
0.975176
0.915925
0.85884
0.803799
0.750686
0.699389
0.649803
0.601825
0.555363
0.510326
0.46663
0.424197
0.382956
0.342839
0.303787
0.265745
0.228664
0.192501
0.157221
0.122792
0.0891876
0.0563888
0.0243797
-0.00685001
-0.0373067
-0.0669923
-0.0959056
-0.124042
-0.151393
-0.17795
-0.203701
-0.228632
-0.252728
-0.275976
-0.298358
-0.31986
-0.340467
-0.360164
-0.378938
-0.396778
-0.413673
-0.429615
-0.444597
-0.458616
-0.471669
-0.483757
-0.494883
-0.505053
-0.514275
-0.522559
-0.529919
-0.536369
-0.541928
-0.546615
-0.550451
-0.553461
-0.55567
-0.557103
-0.557789
-0.557758
-0.557038
-0.555662
-0.553659
-0.551063
-0.547904
-0.544215
-0.540028
-0.535374
-0.530285
-0.52479
-0.518922
-0.512707
-0.506177
-0.499357
-0.492276
-0.484958
-0.477429
-0.469713
-0.461832
-0.453808
-0.445662
-0.437413
-0.42908
-0.42068
-0.41223
-0.403746
-0.395242
-0.386732
-0.378229
-0.369745
-0.36129
-0.352876
-0.344512
-0.336207
-0.32797
-0.319807
-0.311727
-0.303736
-0.295839
-0.288043
-0.280352
-0.272771
-0.265304
-0.257955
-0.250727
-0.243624
-0.236648
-0.229802
-0.223087
-0.216507
-0.210062
-0.203754
-0.197584
-0.191553
-0.185662
-0.179912
-0.174303
-0.168835
-0.163508
-0.158323
-0.153278
-0.148374
-0.14361
-0.138985
-0.134498
-0.130148
-0.125934
-0.121854
-0.117907
-0.114092
-0.110405
-0.106845
-0.10341
-0.100097
-0.0969042
-0.0938281
-0.0908659
-0.0880148
-0.0852715
-0.0826328
-0.0800953
-0.0776556
-0.0753101
-0.0730553
-0.0708877
-0.0688035
-0.0667993
-0.0648714
-0.0630163
-0.0612306
-0.0595109
-0.0578539
-0.0562563
-0.0547152
-0.0532277
-0.0517909
-0.0504022
-0.0490594
-0.0477601
-0.0465023
-0.0452843
-0.0441042
-0.0429606
-0.0418522
-0.0407777
-0.0397359
-0.0387257
-0.0377461
-0.036796
-0.0358743
-0.0349797
-0.0341113
-0.0332677
-0.0324478
-0.0316504
-0.0308745
-0.0301188
-0.0293825
-0.0286647
-0.0279646
-0.0272816
-0.0266153
-0.0259651
-0.0253308
-0.0247121
-0.024109
-0.0235212
-0.0229487
-0.0223915
-0.0218493
-0.0213221
-0.0208098
-0.0203123
-0.0198294
-0.0193609
-0.0189066
-0.0184662
-0.0180394
-0.0176259
-0.0172255
-0.0168377
-0.0164622
-0.0160986
-0.0157466
-0.0154058
-0.0150757
-0.014756
-0.0144464
-0.0141464
-0.0138557
-0.0135738
-0.0133005
-0.0130354
-0.0127781
-0.0125283
-0.0122858
-0.0120501
-0.0118211
-0.0115983
-0.0113816
-0.0111707
-0.0109652
-0.0107651
-0.01057
-0.0103797
-0.010194
-0.0100127
-0.00983566
-0.00966263
-0.00949346
-0.00932797
-0.00916601
-0.00900743
-0.00885207
-0.00869981
-0.0085505
-0.00840403
-0.00826027
-0.00811911
-0.00798045
-0.00784417
-0.00771019
-0.00757841
-0.00744873
-0.00732108
-0.00719538
-0.00707154
-0.0069495
-0.00682918
-0.00671052
-0.00659345
-0.00647791
-0.00636385
-0.00625122
-0.00613995
-0.00603
-0.00592132
-0.00581387
-0.0057076
-0.00560247
-0.00549844
-0.00539547
-0.00529353
-0.00519257
-0.00509257
-0.00499349
-0.0048953
-0.00479797
-0.00470148
-0.0046058
-0.00451089
-0.00441674
-0.00432331
-0.00423059
-0.00413856
-0.00404718
-0.00395645
-0.00386633
-0.00377682
-0.00368788
-0.0035995
-0.00351167
-0.00342436
-0.00333757
-0.00325126
-0.00316542
-0.00308005
-0.00299512
-0.00291062
-0.00282653
-0.00274284
-0.00265954
-0.00257661
-0.00249405
-0.00241182
-0.00232993
-0.00224836
-0.0021671
-0.00208613
-0.00200545
-0.00192504
-0.00184489
-0.00176499
-0.00168532
-0.00160588
-0.00152666
-0.00144764
-0.00136881
-0.00129017
-0.00121169
-0.00113337
-0.00105521
-0.000977177
-0.000899278
-0.000821497
-0.000743825
-0.000666249
-0.000588764
-0.000511348
-0.000434023
-0.000356668
-0.000279625
-0.000201546
-0.000126218
-3.59951e-05
3.79818
3.19853
1.95691
1.67955
1.69561
1.79064
1.01096
-42.2772
-34.8175
-14.0405
-2.60657
-0.0542302
0.399102
0.814851
0.938765
0.815324
0.719813
0.742315
0.885996
1.1907
1.68979
2.3625
3.14946
3.98648
4.81394
5.57399
6.21533
6.71134
7.06762
7.30947
7.46649
7.56688
7.64048
7.72442
7.86348
8.09904
8.45042
8.90459
9.41717
9.89019
10.119
10.0066
9.88645
9.94782
10.1033
10.238
10.3321
10.4814
10.7118
10.9587
11.1736
11.3639
11.5498
11.7167
11.8443
11.9387
12.0153
12.0754
12.1163
12.1406
12.1472
12.1315
12.0912
12.0247
11.9312
11.8113
11.6668
11.4994
11.3111
11.1041
10.8805
10.6428
10.3934
10.1346
9.86827
9.59624
9.31998
9.0408
8.7599
8.4784
8.19735
7.91775
7.64051
7.36648
7.09639
6.83087
6.57047
6.31563
6.0667
5.82396
5.58761
5.35781
5.13466
4.9182
4.70846
4.50543
4.30908
4.11936
3.93621
3.75953
3.58925
3.42525
3.26741
3.11561
2.9697
2.82953
2.69496
2.56582
2.44194
2.32314
2.20926
2.10011
1.9955
1.89527
1.79922
1.70718
1.61896
1.53439
1.45331
1.37554
1.30091
1.22928
1.16047
1.09436
1.03078
0.969611
0.910714
0.853962
0.799235
0.746416
0.695395
0.646066
0.598331
0.552093
0.507265
0.463762
0.421507
0.380428
0.340459
0.301539
0.263615
0.226639
0.190567
0.155365
0.121001
0.0874502
0.0546934
0.022716
-0.00849187
-0.0389355
-0.0686163
-0.0975317
-0.125676
-0.153041
-0.179617
-0.205389
-0.230344
-0.254467
-0.277741
-0.300151
-0.32168
-0.342312
-0.362033
-0.380828
-0.398686
-0.415596
-0.431549
-0.446537
-0.460558
-0.473609
-0.485689
-0.496803
-0.506956
-0.516156
-0.524413
-0.531742
-0.538156
-0.543675
-0.548318
-0.552108
-0.555067
-0.557222
-0.558599
-0.559227
-0.559135
-0.558354
-0.556915
-0.554849
-0.552189
-0.548966
-0.545214
-0.540963
-0.536247
-0.531096
-0.525541
-0.519614
-0.513343
-0.506756
-0.499883
-0.49275
-0.485383
-0.477806
-0.470044
-0.46212
-0.454054
-0.445869
-0.437583
-0.429214
-0.420782
-0.412301
-0.403787
-0.395256
-0.38672
-0.378193
-0.369686
-0.361211
-0.352777
-0.344395
-0.336073
-0.327821
-0.319644
-0.311551
-0.303547
-0.295639
-0.287833
-0.280133
-0.272543
-0.265069
-0.257713
-0.250479
-0.24337
-0.236389
-0.229538
-0.22282
-0.216236
-0.209788
-0.203478
-0.197306
-0.191274
-0.185382
-0.17963
-0.174021
-0.168553
-0.163226
-0.158041
-0.152997
-0.148095
-0.143332
-0.138709
-0.134224
-0.129877
-0.125665
-0.121589
-0.117646
-0.113834
-0.110151
-0.106596
-0.103166
-0.0998582
-0.0966706
-0.0936002
-0.0906441
-0.0877993
-0.0850625
-0.0824305
-0.0798998
-0.0774671
-0.0751287
-0.0728811
-0.0707206
-0.0686436
-0.0666465
-0.0647256
-0.0628775
-0.0610986
-0.0593854
-0.0577347
-0.0561433
-0.054608
-0.0531259
-0.0516942
-0.0503104
-0.048972
-0.0476768
-0.0464227
-0.045208
-0.044031
-0.0428902
-0.0417843
-0.0407122
-0.0396727
-0.0386647
-0.0376873
-0.0367394
-0.0358199
-0.0349277
-0.0340615
-0.0332203
-0.0324027
-0.0316075
-0.0308336
-0.0300799
-0.0293452
-0.0286289
-0.0279301
-0.0272481
-0.0265826
-0.025933
-0.0252992
-0.024681
-0.0240781
-0.0234906
-0.0229183
-0.0223612
-0.0218193
-0.0212923
-0.0207804
-0.0202832
-0.0198007
-0.0193326
-0.0188788
-0.018439
-0.0180128
-0.0176
-0.0172002
-0.0168131
-0.0164384
-0.0160755
-0.0157243
-0.0153842
-0.0150549
-0.014736
-0.0144271
-0.0141279
-0.0138379
-0.0135567
-0.0132841
-0.0130197
-0.0127631
-0.0125139
-0.012272
-0.0120369
-0.0118084
-0.0115862
-0.0113701
-0.0111596
-0.0109547
-0.010755
-0.0105603
-0.0103704
-0.0101852
-0.0100043
-0.00982759
-0.00965491
-0.00948607
-0.00932091
-0.00915925
-0.00900096
-0.00884588
-0.00869388
-0.00854483
-0.00839859
-0.00825506
-0.00811412
-0.00797566
-0.00783958
-0.00770579
-0.00757418
-0.00744468
-0.00731719
-0.00719164
-0.00706795
-0.00694604
-0.00682586
-0.00670732
-0.00659038
-0.00647496
-0.00636101
-0.00624848
-0.00613731
-0.00602746
-0.00591887
-0.00581151
-0.00570532
-0.00560028
-0.00549632
-0.00539342
-0.00529155
-0.00519066
-0.00509072
-0.0049917
-0.00489357
-0.00479631
-0.00469987
-0.00460424
-0.00450938
-0.00441528
-0.0043219
-0.00422923
-0.00413724
-0.0040459
-0.00395521
-0.00386514
-0.00377566
-0.00368676
-0.00359842
-0.00351062
-0.00342335
-0.00333658
-0.00325031
-0.0031645
-0.00307916
-0.00299426
-0.00290979
-0.00282573
-0.00274207
-0.0026588
-0.0025759
-0.00249335
-0.00241116
-0.00232929
-0.00224775
-0.00216651
-0.00208557
-0.00200491
-0.00192452
-0.00184439
-0.00176452
-0.00168487
-0.00160546
-0.00152626
-0.00144726
-0.00136845
-0.00128983
-0.00121137
-0.00113307
-0.00105493
-0.000976921
-0.000899042
-0.000821282
-0.00074363
-0.000666075
-0.00058861
-0.000511215
-0.00043391
-0.000356574
-0.000279551
-0.000201493
-0.000126185
-3.59864e-05
2.42324
2.33522
1.70066
1.69583
1.72134
1.7585
-9.08387
-67.9862
-36.8594
-16.4741
-4.08853
0.572573
1.6111
1.48651
1.18219
0.777178
0.417133
0.1924
0.129751
0.286997
0.704631
1.34729
2.14048
3.02601
3.93555
4.77598
5.45294
5.9211
6.19349
6.31174
6.32468
6.27835
6.21177
6.16409
6.18819
6.34952
6.70066
7.25959
8.01658
8.87725
9.31686
8.8566
8.51922
8.6752
8.99178
9.18796
9.22121
9.37207
9.69376
10.0363
10.2935
10.5016
10.7312
10.9451
11.0924
11.1967
11.2979
11.3909
11.4653
11.5284
11.5781
11.6041
11.6029
11.5726
11.5111
11.4198
11.3015
11.1582
10.9921
10.8054
10.6004
10.38
10.1468
9.90337
9.6518
9.39385
9.13093
8.86428
8.59506
8.32439
8.05336
7.78305
7.51445
7.24847
6.9859
6.72743
6.47365
6.22501
5.98191
5.74463
5.51341
5.2884
5.06971
4.85741
4.65154
4.4521
4.25909
4.07247
3.89219
3.71819
3.55039
3.3887
3.23302
3.08323
2.93921
2.80082
2.66791
2.54033
2.41792
2.30052
2.18795
2.08004
1.97661
1.87749
1.78249
1.69145
1.60417
1.5205
1.44026
1.36329
1.28941
1.21849
1.15036
1.08487
1.0219
0.96129
0.902922
0.846669
0.79241
0.740032
0.689424
0.640483
0.593109
0.547208
0.502692
0.459479
0.41749
0.376654
0.336906
0.298185
0.260438
0.223618
0.187682
0.152596
0.118329
0.0848575
0.0521631
0.0202322
-0.0109438
-0.041369
-0.0710434
-0.0999632
-0.128122
-0.155508
-0.182112
-0.207918
-0.232911
-0.257074
-0.28039
-0.302841
-0.324411
-0.345082
-0.364839
-0.383667
-0.401553
-0.418485
-0.434454
-0.449453
-0.463477
-0.476524
-0.488594
-0.499689
-0.509816
-0.518983
-0.5272
-0.534481
-0.540842
-0.546301
-0.550878
-0.554596
-0.557479
-0.559553
-0.560845
-0.561386
-0.561203
-0.56033
-0.558796
-0.556635
-0.553878
-0.550559
-0.546711
-0.542365
-0.537555
-0.532311
-0.526666
-0.52065
-0.514293
-0.507624
-0.50067
-0.493459
-0.486017
-0.478369
-0.470538
-0.462549
-0.454421
-0.446177
-0.437835
-0.429414
-0.420932
-0.412404
-0.403847
-0.395274
-0.3867
-0.378137
-0.369596
-0.361089
-0.352627
-0.344218
-0.335871
-0.327595
-0.319397
-0.311285
-0.303263
-0.295339
-0.287517
-0.279803
-0.272201
-0.264715
-0.257349
-0.250106
-0.242989
-0.236
-0.229143
-0.222419
-0.21583
-0.209378
-0.203064
-0.196889
-0.190854
-0.18496
-0.179208
-0.173597
-0.168129
-0.162803
-0.157619
-0.152576
-0.147675
-0.142915
-0.138294
-0.133813
-0.129469
-0.125262
-0.121191
-0.117253
-0.113447
-0.10977
-0.106222
-0.102799
-0.0994992
-0.0963198
-0.0932581
-0.0903111
-0.0874757
-0.0847487
-0.0821268
-0.0796065
-0.0771843
-0.0748566
-0.0726197
-0.0704701
-0.0684038
-0.0664174
-0.0645072
-0.0626694
-0.0609007
-0.0591974
-0.0575562
-0.055974
-0.0544474
-0.0529736
-0.0515497
-0.0501731
-0.0488414
-0.0475523
-0.0463038
-0.045094
-0.0439215
-0.0427848
-0.0416827
-0.040614
-0.0395778
-0.0385731
-0.0375989
-0.0366543
-0.0357382
-0.0348495
-0.0339869
-0.0331492
-0.0323352
-0.0315435
-0.0307728
-0.030022
-0.02929
-0.0285759
-0.027879
-0.0271986
-0.0265342
-0.0258856
-0.0252525
-0.0246347
-0.0240322
-0.0234449
-0.0228729
-0.022316
-0.0217743
-0.0212477
-0.0207362
-0.0202395
-0.0197575
-0.0192902
-0.0188371
-0.0183981
-0.0179728
-0.017561
-0.0171622
-0.0167762
-0.0164026
-0.0160409
-0.0156908
-0.0153519
-0.0150237
-0.014706
-0.0143982
-0.0141001
-0.0138112
-0.0135311
-0.0132595
-0.0129961
-0.0127405
-0.0124923
-0.0122513
-0.0120171
-0.0117895
-0.0115681
-0.0113527
-0.011143
-0.0109388
-0.0107398
-0.0105458
-0.0103566
-0.0101719
-0.00999162
-0.00981549
-0.00964334
-0.00947501
-0.00931032
-0.00914912
-0.00899126
-0.0088366
-0.00868499
-0.00853632
-0.00839044
-0.00824725
-0.00810663
-0.00796848
-0.0078327
-0.00769918
-0.00756784
-0.00743859
-0.00731135
-0.00718603
-0.00706256
-0.00694086
-0.00682088
-0.00670253
-0.00658577
-0.00647052
-0.00635674
-0.00624437
-0.00613335
-0.00602364
-0.00591519
-0.00580796
-0.0057019
-0.00559697
-0.00549313
-0.00539035
-0.00528858
-0.00518779
-0.00508795
-0.00498902
-0.00489098
-0.0047938
-0.00469745
-0.00460189
-0.00450711
-0.00441308
-0.00431978
-0.00422717
-0.00413525
-0.00404398
-0.00395335
-0.00386334
-0.00377392
-0.00368507
-0.00359679
-0.00350904
-0.00342182
-0.0033351
-0.00324888
-0.00316312
-0.00307782
-0.00299297
-0.00290854
-0.00282452
-0.00274091
-0.00265768
-0.00257482
-0.00249231
-0.00241016
-0.00232833
-0.00224682
-0.00216562
-0.00208471
-0.00200409
-0.00192374
-0.00184365
-0.0017638
-0.0016842
-0.00160481
-0.00152564
-0.00144668
-0.00136791
-0.00128931
-0.00121089
-0.00113262
-0.00105451
-0.000976534
-0.000898686
-0.000820956
-0.000743335
-0.000665811
-0.000588377
-0.000511012
-0.000433737
-0.000356432
-0.000279439
-0.000201412
-0.000126133
-3.59717e-05
1.86164
1.72496
1.71106
1.65031
1.69363
1.55562
-27.3855
-54.3958
-19.9184
-13.1078
-2.68622
0.34637
1.09595
1.52821
1.03628
0.421719
-0.0154197
-0.287092
-0.509871
-0.420225
0.162692
1.05914
1.98536
2.84656
3.66173
4.38251
4.89944
5.20331
5.34991
5.35697
5.22651
4.9958
4.73313
4.52216
4.44969
4.56772
4.85998
5.30658
6.03351
7.36639
8.42007
7.12399
6.409
6.80681
7.56405
7.94677
7.73045
7.84005
8.34613
8.84913
9.11515
9.29838
9.60225
9.9083
10.0805
10.1864
10.327
10.4708
10.5878
10.7053
10.8183
10.9025
10.9555
10.9744
10.9544
10.9004
10.8167
10.7055
10.5689
10.4091
10.2286
10.0307
9.81881
9.59581
9.36395
9.1249
8.8799
8.63005
8.37642
8.12015
7.86241
7.6044
7.34722
7.09189
6.83929
6.59018
6.34517
6.10478
5.86942
5.63941
5.41499
5.19634
4.98359
4.77682
4.57609
4.38142
4.19283
4.01032
3.83384
3.66338
3.49886
3.34023
3.1874
3.04028
2.89876
2.76271
2.632
2.5065
2.38604
2.27049
2.15966
2.0534
1.95153
1.85389
1.76029
1.67056
1.58454
1.50206
1.42294
1.34702
1.27415
1.20417
1.13693
1.07229
1.01011
0.950247
0.892583
0.836992
0.783356
0.731563
0.681505
0.633078
0.586185
0.540733
0.496634
0.453806
0.412171
0.371659
0.332204
0.293748
0.256236
0.219623
0.183867
0.148934
0.114796
0.0814282
0.048815
0.0169441
-0.0141915
-0.0445943
-0.0742624
-0.10319
-0.131369
-0.158787
-0.185431
-0.211284
-0.236328
-0.260547
-0.28392
-0.306429
-0.328055
-0.34878
-0.368586
-0.387459
-0.405382
-0.422346
-0.438338
-0.453351
-0.46738
-0.480422
-0.492478
-0.503549
-0.513641
-0.522763
-0.530926
-0.538144
-0.544432
-0.54981
-0.554299
-0.557921
-0.560701
-0.562667
-0.563846
-0.564268
-0.563965
-0.562966
-0.561306
-0.559016
-0.556131
-0.552683
-0.548706
-0.544233
-0.539296
-0.533929
-0.528163
-0.522029
-0.515556
-0.508775
-0.501714
-0.494399
-0.486857
-0.479114
-0.471192
-0.463116
-0.454906
-0.446583
-0.438167
-0.429676
-0.421127
-0.412537
-0.403922
-0.395294
-0.386669
-0.378058
-0.369473
-0.360924
-0.352423
-0.343979
-0.335599
-0.327292
-0.319066
-0.310927
-0.302882
-0.294936
-0.287094
-0.279362
-0.271743
-0.264242
-0.256862
-0.249607
-0.242478
-0.23548
-0.228614
-0.221883
-0.215287
-0.208829
-0.20251
-0.196331
-0.190293
-0.184397
-0.178643
-0.173032
-0.167563
-0.162237
-0.157054
-0.152014
-0.147115
-0.142358
-0.137741
-0.133264
-0.128925
-0.124724
-0.120659
-0.116728
-0.112929
-0.109262
-0.105722
-0.102309
-0.0990198
-0.0958514
-0.0928013
-0.0898664
-0.0870437
-0.0843298
-0.0817214
-0.079215
-0.076807
-0.0744936
-0.0722712
-0.070136
-0.0680843
-0.0661122
-0.0642162
-0.0623924
-0.0606372
-0.0589472
-0.0573189
-0.0557489
-0.0542341
-0.0527714
-0.0513579
-0.0499909
-0.0486681
-0.0473871
-0.0461459
-0.0449428
-0.0437762
-0.0426449
-0.0415476
-0.0404835
-0.0394516
-0.0384512
-0.0374812
-0.036541
-0.0356294
-0.0347453
-0.0338874
-0.0330545
-0.0322451
-0.0314579
-0.0306915
-0.0299445
-0.029216
-0.0285049
-0.0278104
-0.0271321
-0.0264693
-0.0258219
-0.0251897
-0.0245726
-0.0239706
-0.0233837
-0.022812
-0.0222554
-0.0217141
-0.021188
-0.020677
-0.020181
-0.0196999
-0.0192334
-0.0187814
-0.0183435
-0.0179194
-0.0175089
-0.0171116
-0.016727
-0.0163549
-0.0159947
-0.0156461
-0.0153088
-0.0149822
-0.014666
-0.0143597
-0.0140631
-0.0137756
-0.013497
-0.0132268
-0.0129648
-0.0127105
-0.0124636
-0.0122238
-0.0119908
-0.0117643
-0.0115441
-0.0113297
-0.011121
-0.0109178
-0.0107197
-0.0105266
-0.0103382
-0.0101544
-0.00997482
-0.00979942
-0.00962797
-0.00946031
-0.00929626
-0.00913567
-0.00897839
-0.00882428
-0.0086732
-0.00852502
-0.00837962
-0.00823688
-0.00809669
-0.00795895
-0.00782356
-0.00769042
-0.00755943
-0.00743052
-0.0073036
-0.00717859
-0.00705541
-0.00693399
-0.00681427
-0.00669618
-0.00657965
-0.00646464
-0.00635107
-0.00623891
-0.00612809
-0.00601858
-0.00591031
-0.00580326
-0.00569736
-0.00559259
-0.00548891
-0.00538627
-0.00528464
-0.00518398
-0.00508427
-0.00498547
-0.00488755
-0.00479048
-0.00469424
-0.00459879
-0.00450411
-0.00441018
-0.00431697
-0.00422445
-0.00413262
-0.00404143
-0.00395089
-0.00386095
-0.00377161
-0.00368284
-0.00359463
-0.00350695
-0.0034198
-0.00333315
-0.00324698
-0.00316129
-0.00307605
-0.00299126
-0.00290689
-0.00282293
-0.00273937
-0.00265619
-0.00257339
-0.00249094
-0.00240883
-0.00232705
-0.0022456
-0.00216444
-0.00208359
-0.00200301
-0.00192271
-0.00184266
-0.00176286
-0.0016833
-0.00160396
-0.00152484
-0.00144592
-0.00136718
-0.00128863
-0.00121025
-0.00113203
-0.00105396
-0.000976024
-0.000898217
-0.000820529
-0.000742949
-0.000665466
-0.000588072
-0.000510748
-0.000433513
-0.000356248
-0.000279296
-0.00020131
-0.00012607
-3.59558e-05
1.97346
1.63421
1.68516
1.63712
1.73299
0.963682
-9.98443
-41.1318
-17.3725
-3.20022
2.08398
6.43916
5.1373
2.22358
-0.243787
-1.47789
-1.48884
-1.01687
-0.689455
-0.172006
0.720353
1.64466
2.36501
2.81687
3.0943
3.3201
3.40828
3.39156
3.34431
3.24408
3.02289
2.66109
2.18974
1.73372
1.52139
1.74685
2.48081
3.8158
5.88909
9.63545
11.4987
5.80126
4.53779
4.94348
5.94378
6.57715
5.67268
5.63711
6.52648
7.49031
7.71777
7.73993
8.18409
8.65064
8.78976
8.84258
9.05962
9.29413
9.46317
9.65889
9.8657
10.0273
10.1533
10.2358
10.2646
10.2549
10.2139
10.1426
10.0432
9.91659
9.76576
9.59529
9.40952
9.21194
9.00492
8.78981
8.56751
8.33884
8.10474
7.86639
7.62514
7.38234
7.1393
6.89718
6.65695
6.41946
6.18538
5.95527
5.72956
5.50861
5.29268
5.08196
4.87661
4.67673
4.48239
4.29365
4.11056
3.93313
3.76138
3.59529
3.43485
3.28001
3.13071
2.9869
2.84847
2.71532
2.58735
2.46442
2.3464
2.23313
2.12447
2.02026
1.92034
1.82453
1.73267
1.64459
1.56013
1.47912
1.40139
1.3268
1.25517
1.18637
1.12024
1.05665
0.995454
0.936525
0.879737
0.824971
0.772111
0.721047
0.671673
0.623887
0.577594
0.532701
0.48912
0.446772
0.405579
0.36547
0.326381
0.288254
0.251035
0.214679
0.179147
0.144403
0.110423
0.0771828
0.0446687
0.01287
-0.0182181
-0.0485959
-0.0782594
-0.107201
-0.135409
-0.162869
-0.189566
-0.215481
-0.240594
-0.264885
-0.288333
-0.310916
-0.332615
-0.353409
-0.37328
-0.39221
-0.410183
-0.427186
-0.443208
-0.458241
-0.472277
-0.485314
-0.497351
-0.508392
-0.518441
-0.527507
-0.535602
-0.542739
-0.548936
-0.554212
-0.558589
-0.56209
-0.564741
-0.566569
-0.567605
-0.567879
-0.567421
-0.566266
-0.564446
-0.561995
-0.558947
-0.555336
-0.551197
-0.546564
-0.541469
-0.535947
-0.530028
-0.523746
-0.517129
-0.510208
-0.503012
-0.495567
-0.4879
-0.480037
-0.472002
-0.463816
-0.455503
-0.447082
-0.438574
-0.429995
-0.421364
-0.412697
-0.404008
-0.395313
-0.386624
-0.377953
-0.369313
-0.360713
-0.352164
-0.343675
-0.335254
-0.326909
-0.318648
-0.310477
-0.302402
-0.294428
-0.286562
-0.278807
-0.271167
-0.263648
-0.256251
-0.24898
-0.241839
-0.234828
-0.227952
-0.221211
-0.214607
-0.208142
-0.201817
-0.195633
-0.189591
-0.183692
-0.177936
-0.172324
-0.166855
-0.161529
-0.156348
-0.151309
-0.146414
-0.14166
-0.137048
-0.132576
-0.128244
-0.12405
-0.119993
-0.116071
-0.112282
-0.108625
-0.105097
-0.101696
-0.0984193
-0.0952648
-0.0922292
-0.0893096
-0.0865029
-0.0838055
-0.0812142
-0.0787252
-0.0763349
-0.0740396
-0.0718354
-0.0697185
-0.067685
-0.065731
-0.0638528
-0.0620466
-0.0603087
-0.0586354
-0.0570232
-0.0554687
-0.0539686
-0.0525199
-0.0511195
-0.0497647
-0.048453
-0.0471821
-0.04595
-0.0447549
-0.0435956
-0.0424706
-0.0413791
-0.0403204
-0.0392936
-0.0382982
-0.0373334
-0.0363986
-0.0354927
-0.0346146
-0.0337631
-0.0329366
-0.0321336
-0.0313526
-0.0305919
-0.0298502
-0.0291262
-0.0284189
-0.0277276
-0.0270516
-0.0263906
-0.0257444
-0.025113
-0.0244964
-0.0238947
-0.023308
-0.0227364
-0.0221801
-0.021639
-0.0211134
-0.020603
-0.0201077
-0.0196275
-0.0191622
-0.0187114
-0.018275
-0.0178525
-0.0174437
-0.0170481
-0.0166653
-0.0162951
-0.0159368
-0.0155902
-0.0152548
-0.0149302
-0.0146159
-0.0143116
-0.0140168
-0.0137312
-0.0134544
-0.013186
-0.0129256
-0.012673
-0.0124277
-0.0121895
-0.011958
-0.0117329
-0.011514
-0.011301
-0.0110935
-0.0108915
-0.0106946
-0.0105026
-0.0103152
-0.0101324
-0.00995383
-0.00977935
-0.00960878
-0.00944195
-0.00927869
-0.00911886
-0.0089623
-0.00880888
-0.00865845
-0.00851089
-0.00836609
-0.00822392
-0.00808427
-0.00794704
-0.00781213
-0.00767946
-0.00754891
-0.00742042
-0.0072939
-0.00716927
-0.00704646
-0.00692539
-0.006806
-0.00668822
-0.006572
-0.00645727
-0.00634398
-0.00623208
-0.00612151
-0.00601224
-0.0059042
-0.00579736
-0.00569168
-0.0055871
-0.00548361
-0.00538115
-0.00527969
-0.00517921
-0.00507966
-0.00498101
-0.00488324
-0.00478631
-0.0046902
-0.00459489
-0.00450034
-0.00440653
-0.00431343
-0.00422104
-0.00412931
-0.00403823
-0.00394779
-0.00385795
-0.0037687
-0.00368003
-0.00359191
-0.00350432
-0.00341725
-0.00333068
-0.0032446
-0.00315899
-0.00307383
-0.00298911
-0.00290481
-0.00282092
-0.00273743
-0.00265432
-0.00257158
-0.0024892
-0.00240716
-0.00232545
-0.00224405
-0.00216296
-0.00208216
-0.00200165
-0.0019214
-0.00184142
-0.00176167
-0.00168217
-0.00160288
-0.00152381
-0.00144495
-0.00136627
-0.00128777
-0.00120945
-0.00113128
-0.00105326
-0.000975374
-0.000897619
-0.000819983
-0.000742454
-0.000665023
-0.00058768
-0.000510406
-0.000433222
-0.000356008
-0.000279106
-0.000201171
-0.000125981
-3.59285e-05
2.32327
1.74176
1.7352
1.74326
1.73031
1.48244
0.601656
-0.727436
0.951115
0.163722
-0.479404
0.416866
0.517933
0.351804
0.281347
0.334318
0.440562
0.757343
1.06712
1.03229
0.849852
0.73369
0.847197
0.967046
0.867443
0.713391
0.533141
0.35788
0.217046
0.129295
0.102264
0.118944
0.149116
0.183771
0.228193
0.290761
0.436083
0.76231
1.68154
6.48659
12.8211
-1.72812
-1.15883
3.04244
7.55696
8.20008
4.2985
4.02163
4.80154
6.19156
6.02708
5.64489
6.40721
7.32635
7.31624
7.12955
7.48398
7.85481
8.0446
8.3572
8.71455
8.97595
9.20149
9.36369
9.4428
9.48438
9.49541
9.47254
9.41826
9.33061
9.2136
9.07448
8.91912
8.75195
8.57519
8.38948
8.195
7.99203
7.78139
7.56439
7.34265
7.11785
6.89155
6.66509
6.43958
6.21594
5.99491
5.77707
5.5629
5.35279
5.14701
4.94579
4.74928
4.55762
4.37091
4.18924
4.01268
3.8413
3.67514
3.51425
3.35864
3.20829
3.06319
2.9233
2.78854
2.65885
2.53412
2.41426
2.29912
2.18859
2.08251
1.98075
1.88313
1.78951
1.69973
1.61362
1.53102
1.45177
1.37571
1.30269
1.23255
1.16516
1.10036
1.03801
0.977995
0.920175
0.864433
0.810651
0.758717
0.708524
0.659968
0.612949
0.567373
0.523149
0.480192
0.438418
0.397754
0.358129
0.319479
0.281745
0.244876
0.208827
0.173559
0.13904
0.105245
0.0721538
0.0397538
0.00803702
-0.0229991
-0.0533522
-0.0830154
-0.111978
-0.140226
-0.167743
-0.194509
-0.220503
-0.245703
-0.270086
-0.293627
-0.316305
-0.338095
-0.358976
-0.378927
-0.397928
-0.415964
-0.433017
-0.449077
-0.464133
-0.478179
-0.491211
-0.503227
-0.514231
-0.524227
-0.533226
-0.541238
-0.548278
-0.554364
-0.559516
-0.563757
-0.56711
-0.569604
-0.571267
-0.572128
-0.572221
-0.571578
-0.570232
-0.568218
-0.565571
-0.562326
-0.558519
-0.554184
-0.549357
-0.544071
-0.538361
-0.532259
-0.525797
-0.519006
-0.511917
-0.504558
-0.496957
-0.489141
-0.481134
-0.472961
-0.464646
-0.456209
-0.44767
-0.439051
-0.430368
-0.421638
-0.412878
-0.404103
-0.395326
-0.38656
-0.377819
-0.369112
-0.360451
-0.351844
-0.343302
-0.334832
-0.326443
-0.31814
-0.30993
-0.30182
-0.293814
-0.285918
-0.278136
-0.270473
-0.262931
-0.255514
-0.248225
-0.241068
-0.234043
-0.227154
-0.220401
-0.213788
-0.207315
-0.200983
-0.194793