/*--------------------------------*- C++ -*----------------------------------*\
| =========                 |                                                 |
| \\      /  F ield         | OpenFOAM: The Open Source CFD Toolbox           |
|  \\    /   O peration     | Version:  v2006                                 |
|   \\  /    A nd           | Website:  www.openfoam.com                      |
|    \\/     M anipulation  |                                                 |
\*---------------------------------------------------------------------------*/
FoamFile
{
    version     2.0;
    format      ascii;
    class       volScalarField;
    location    "0";
    object      p;
}
// * * * * * * * * * * * * * * * * * * * * * * * * * * * * * * * * * * * * * //

dimensions      [1 -1 -2 0 0 0 0];


internalField   nonuniform List<scalar> 
67500
(
6.6724
5.72795
5.24551
3.96466
4.56433
4.01574
2.45679
4.54304
5.79492
6.00101
3.02844
1.92288
1.92423
0.938386
-0.369836
-1.96881
-1.90892
0.441758
1.69511
0.392082
-0.75363
-0.351273
0.272772
0.857408
1.2109
1.34933
1.47571
1.63693
1.71332
1.59846
1.3106
1.04963
0.905761
0.820431
0.755251
0.713729
0.722369
0.80178
0.936179
1.0897
1.22522
1.30721
1.31659
1.25601
1.1471
1.02042
0.906333
0.825803
0.786813
0.786815
0.813602
0.847695
0.868717
0.862867
0.827798
0.771932
0.709549
0.655297
0.620511
0.612286
0.632483
0.679407
0.749543
0.83937
0.946964
1.07201
1.21376
1.36506
1.47827
1.4298
1.2679
1.12545
1.01961
0.941129
0.892929
0.874927
0.88539
0.923146
0.986732
1.07402
1.17986
1.28534
1.34873
1.35242
1.33577
1.32398
1.32372
1.34252
1.38542
1.45382
1.54569
1.65398
1.7651
1.85596
1.89942
1.90113
1.90287
1.92869
1.97959
2.05318
2.14211
2.23237
2.31564
2.39929
2.49053
2.58543
2.67656
2.75838
2.83115
2.90056
2.96978
3.03706
3.0999
3.15776
3.2111
3.25952
3.30203
3.33836
3.36883
3.39341
3.41166
3.42312
3.4274
3.42404
3.41273
3.39351
3.36668
3.33272
3.29231
3.24619
3.19511
3.13977
3.08076
3.01858
2.95361
2.88615
2.81645
2.74471
2.67111
2.59583
2.51904
2.44093
2.3617
2.28158
2.20079
2.1196
2.03825
1.95702
1.87618
1.79599
1.7167
1.63857
1.56182
1.48664
1.41321
1.34168
1.27217
1.20478
1.13956
1.07656
1.01581
0.957329
0.901104
0.847129
0.795391
0.745871
0.698549
0.653405
0.610416
0.569559
0.53081
0.494143
0.459528
0.426928
0.396304
0.367608
0.340786
0.315775
0.292506
0.270903
0.250884
0.232364
0.215253
0.199461
0.184896
0.17147
0.159094
0.147685
0.137163
0.127452
0.118483
0.110192
0.102519
0.0954099
0.0888168
0.0826958
0.0770082
0.0717194
0.066799
0.06222
0.0579591
0.0539956
0.0503115
0.0468909
0.0437199
0.0407858
0.0380772
0.0355835
0.0332944
0.0312001
0.0292905
0.0275556
0.0259848
0.0245671
0.0232911
0.0221446
0.0211153
0.0201903
0.0193563
0.0186
0.0179082
0.0172678
0.016666
0.0160907
0.0155303
0.0149742
0.0144125
0.0138368
0.0132392
0.0126134
0.0119541
0.0112572
0.0105195
0.00973904
0.00891498
0.00804722
0.0071366
0.00618471
0.00519379
0.0041667
0.00310675
0.00201765
0.000903428
-0.000231673
-0.00138326
-0.00254688
-0.00371806
-0.00489237
-0.00606551
-0.00723332
-0.00839183
-0.00953728
-0.0106662
-0.0117753
-0.0128618
-0.0139229
-0.0149563
-0.01596
-0.0169322
-0.0178715
-0.0187768
-0.0196471
-0.0204819
-0.0212808
-0.0220435
-0.0227702
-0.023461
-0.0241165
-0.0247371
-0.0253236
-0.0258768
-0.0263975
-0.0268869
-0.0273459
-0.0277756
-0.0281773
-0.028552
-0.0289009
-0.0292254
-0.0295264
-0.0298053
-0.030063
-0.0303008
-0.0305198
-0.0307209
-0.0309051
-0.0310734
-0.0312267
-0.0313657
-0.0314914
-0.0316045
-0.0317055
-0.0317952
-0.0318741
-0.0319427
-0.0320015
-0.0320508
-0.032091
-0.0321225
-0.0321454
-0.0321599
-0.0321663
-0.0321645
-0.0321546
-0.0321367
-0.0321106
-0.0320764
-0.0320338
-0.0319828
-0.0319231
-0.0318546
-0.031777
-0.0316901
-0.0315936
-0.0314873
-0.0313709
-0.0312443
-0.0311071
-0.0309592
-0.0308005
-0.030631
-0.0304505
-0.0302591
-0.0300569
-0.0298441
-0.0296209
-0.0293877
-0.0291449
-0.0288929
-0.0286323
-0.0283637
-0.0280876
-0.0278049
-0.0275161
-0.027222
-0.0269234
-0.0266211
-0.0263158
-0.0260084
-0.0256995
-0.0253901
-0.025081
-0.0247729
-0.0244666
-0.0241631
-0.0238628
-0.0235667
-0.0232753
-0.0229892
-0.0227087
-0.0224341
-0.0221656
-0.0219031
-0.0216463
-0.021395
-0.0211485
-0.0209064
-0.0206679
-0.0204323
-0.0201989
-0.019967
-0.0197359
-0.0195052
-0.0192743
-0.0190428
-0.0188104
-0.018577
-0.0183424
-0.0181066
-0.0178696
-0.0176315
-0.0173924
-0.0171525
-0.0169119
-0.0166708
-0.0164295
-0.0161879
-0.0159465
-0.0157052
-0.0154642
-0.0152237
-0.0149838
-0.0147445
-0.014506
-0.0142683
-0.0140314
-0.0137955
-0.0135605
-0.0133264
-0.0130933
-0.0128611
-0.0126299
-0.0123996
-0.0121703
-0.0119419
-0.0117143
-0.0114877
-0.0112619
-0.0110369
-0.0108126
-0.0105892
-0.0103665
-0.0101445
-0.00992311
-0.00970243
-0.00948236
-0.0092629
-0.009044
-0.00882565
-0.00860783
-0.0083905
-0.00817366
-0.00795727
-0.00774131
-0.00752577
-0.00731062
-0.00709585
-0.00688144
-0.00666737
-0.00645362
-0.00624019
-0.00602705
-0.00581419
-0.0056016
-0.00538926
-0.00517717
-0.0049653
-0.00475364
-0.00454219
-0.00433094
-0.00411987
-0.00390898
-0.00369825
-0.00348767
-0.00327724
-0.00306695
-0.00285678
-0.00264673
-0.00243679
-0.00222695
-0.00201721
-0.00180754
-0.00159797
-0.00138843
-0.00117904
-0.00096944
-0.00076068
-0.00054877
-0.000344985
-9.69532e-05
6.37095
4.53269
3.55506
3.82121
3.75044
3.15495
0.316138
1.56075
0.413781
1.10044
-0.397039
0.723696
0.616432
-0.946378
-2.47024
-3.73302
-3.6486
-2.14802
-0.382415
0.576582
1.00998
0.669546
0.0123794
0.561425
1.07117
1.37068
1.46089
1.49338
1.52675
1.4194
1.10474
0.887293
0.780686
0.685213
0.601338
0.551884
0.586871
0.695025
0.833336
0.976998
1.10124
1.17683
1.19117
1.15064
1.07418
0.980848
0.888539
0.810342
0.757415
0.736439
0.741388
0.759546
0.775574
0.776376
0.754335
0.709138
0.648234
0.58438
0.531092
0.499238
0.49583
0.522724
0.57736
0.654919
0.750928
0.863214
0.995205
1.16804
1.37092
1.28464
1.05247
0.892786
0.792884
0.728594
0.699901
0.703778
0.73741
0.800675
0.891193
1.006
1.14271
1.28533
1.35988
1.32628
1.27739
1.24321
1.22348
1.22713
1.25946
1.32235
1.41529
1.53216
1.66001
1.77067
1.8114
1.78828
1.77561
1.79985
1.85511
1.93915
2.04297
2.14376
2.22582
2.30722
2.40208
2.50302
2.59931
2.68195
2.752
2.82074
2.89279
2.96387
3.02959
3.08962
3.14553
3.1968
3.2417
3.28007
3.31281
3.34
3.36097
3.37521
3.38228
3.38153
3.37255
3.35539
3.33038
3.29804
3.25912
3.21445
3.16482
3.11096
3.05348
2.99284
2.92943
2.86352
2.79532
2.72502
2.6528
2.5788
2.50322
2.42622
2.34801
2.26882
2.18888
2.10844
2.02778
1.94716
1.86687
1.78718
1.70835
1.63064
1.55428
1.47947
1.40639
1.3352
1.26601
1.19892
1.134
1.07129
1.01081
0.952585
0.896602
0.842854
0.791325
0.742
0.694857
0.649877
0.60704
0.566324
0.527709
0.491168
0.456675
0.424195
0.393691
0.365114
0.338413
0.313524
0.290379
0.268901
0.249008
0.230613
0.213625
0.197953
0.183505
0.17019
0.157919
0.14661
0.136181
0.126556
0.117667
0.109448
0.10184
0.0947907
0.0882509
0.0821778
0.0765327
0.0712816
0.0663945
0.061845
0.05761
0.0536694
0.0500055
0.046603
0.0434481
0.0405288
0.0378338
0.0353529
0.0330762
0.030994
0.0290966
0.027374
0.0258158
0.024411
0.0231483
0.0220156
0.0210002
0.0200893
0.0192695
0.0185274
0.0178494
0.0172224
0.0166334
0.0160702
0.015521
0.014975
0.0144226
0.0138548
0.0132641
0.012644
0.0119891
0.0112955
0.01056
0.00978082
0.00895701
0.00808863
0.00717661
0.00622262
0.00522901
0.00419873
0.00313517
0.00204215
0.000923773
-0.000215642
-0.00137163
-0.00253966
-0.0037152
-0.00489379
-0.00607105
-0.0072428
-0.00840503
-0.00955396
-0.0106861
-0.0117981
-0.0128872
-0.0139506
-0.0149861
-0.0159915
-0.0169651
-0.0179056
-0.0188118
-0.0196828
-0.0205179
-0.0213169
-0.0220796
-0.022806
-0.0234965
-0.0241514
-0.0247713
-0.025357
-0.0259092
-0.026429
-0.0269173
-0.0273752
-0.0278038
-0.0282042
-0.0285778
-0.0289256
-0.0292488
-0.0295487
-0.0298264
-0.0300831
-0.0303198
-0.0305377
-0.0307378
-0.0309211
-0.0310885
-0.0312409
-0.0313792
-0.0315042
-0.0316165
-0.031717
-0.0318061
-0.0318844
-0.0319526
-0.0320109
-0.0320599
-0.0320999
-0.0321311
-0.0321538
-0.0321682
-0.0321745
-0.0321726
-0.0321627
-0.0321448
-0.0321189
-0.0320847
-0.0320423
-0.0319915
-0.031932
-0.0318637
-0.0317863
-0.0316997
-0.0316034
-0.0314974
-0.0313812
-0.0312548
-0.0311177
-0.03097
-0.0308114
-0.0306418
-0.0304613
-0.0302698
-0.0300674
-0.0298544
-0.0296309
-0.0293973
-0.029154
-0.0289015
-0.0286403
-0.028371
-0.0280942
-0.0278107
-0.0275211
-0.0272262
-0.0269267
-0.0266235
-0.0263173
-0.026009
-0.0256992
-0.0253889
-0.0250789
-0.02477
-0.0244631
-0.0241588
-0.0238581
-0.0235616
-0.0232699
-0.0229837
-0.0227033
-0.0224291
-0.022161
-0.0218991
-0.0216431
-0.0213926
-0.0211471
-0.0209058
-0.0206682
-0.0204334
-0.0202008
-0.0199695
-0.0197389
-0.0195085
-0.0192778
-0.0190463
-0.0188139
-0.0185803
-0.0183455
-0.0181094
-0.0178721
-0.0176337
-0.0173942
-0.017154
-0.016913
-0.0166716
-0.01643
-0.0161882
-0.0159464
-0.0157049
-0.0154638
-0.0152231
-0.0149831
-0.0147437
-0.0145051
-0.0142673
-0.0140304
-0.0137944
-0.0135594
-0.0133253
-0.0130921
-0.01286
-0.0126288
-0.0123985
-0.0121692
-0.0119408
-0.0117133
-0.0114867
-0.0112609
-0.0110359
-0.0108117
-0.0105883
-0.0103656
-0.0101436
-0.00992234
-0.00970168
-0.00948165
-0.00926221
-0.00904334
-0.00882502
-0.00860722
-0.00838992
-0.0081731
-0.00795673
-0.0077408
-0.00752527
-0.00731015
-0.0070954
-0.006881
-0.00666695
-0.00645322
-0.00623981
-0.00602668
-0.00581384
-0.00560127
-0.00538894
-0.00517686
-0.004965
-0.00475336
-0.00454193
-0.00433068
-0.00411963
-0.00390874
-0.00369803
-0.00348746
-0.00327704
-0.00306675
-0.0028566
-0.00264656
-0.00243663
-0.0022268
-0.00201706
-0.00180741
-0.00159784
-0.00138831
-0.00117893
-0.000969337
-0.000760585
-0.000548684
-0.000344908
-9.69163e-05
5.71062
4.49525
4.18431
3.7985
5.52705
2.86427
-0.335201
-0.0666762
-0.0339169
-0.197439
-0.212509
-0.0467991
2.32364
-0.347089
-1.98552
-3.1775
-2.86276
-2.00887
-0.664881
-0.558606
-0.247893
0.97293
1.09927
0.787817
0.928789
1.48007
1.9392
2.27893
2.45908
1.87133
0.819804
0.61726
0.66207
0.550136
0.403366
0.255469
0.350143
0.605723
0.815378
0.928356
0.958163
0.909035
0.784449
0.619078
0.457894
0.334152
0.284884
0.309603
0.383858
0.480259
0.563707
0.60614
0.594134
0.532566
0.441403
0.346253
0.270371
0.227806
0.218415
0.233833
0.264219
0.302962
0.348856
0.407324
0.49137
0.622163
0.82962
1.19781
1.81147
1.42603
1.05924
0.913901
0.796251
0.697612
0.631955
0.592575
0.57729
0.584656
0.613561
0.673988
0.790714
0.997332
1.14361
1.05474
0.977362
0.939737
0.920106
0.926317
0.964341
1.03902
1.15519
1.31208
1.50231
1.68711
1.71534
1.60766
1.55139
1.56151
1.60913
1.69957
1.82778
1.95105
2.02575
2.10156
2.20775
2.32763
2.44284
2.53069
2.59383
2.66139
2.7409
2.82061
2.89128
2.95412
3.01461
3.07158
3.12101
3.16309
3.2004
3.23306
3.25965
3.27957
3.29236
3.29692
3.29258
3.27949
3.25807
3.22891
3.19293
3.15112
3.10436
3.05345
2.99901
2.94149
2.88122
2.81841
2.75323
2.68584
2.61636
2.54495
2.47177
2.397
2.32083
2.24349
2.16522
2.08629
2.00698
1.92758
1.84839
1.76968
1.69176
1.61488
1.53928
1.4652
1.39281
1.32228
1.25373
1.18725
1.12293
1.06079
1.00085
0.943141
0.88764
0.834342
0.783232
0.734291
0.687502
0.642849
0.600312
0.559877
0.521523
0.485232
0.45098
0.418737
0.388467
0.360128
0.333666
0.309021
0.286124
0.264896
0.245254
0.22711
0.210369
0.194939
0.180725
0.167635
0.155578
0.14447
0.134228
0.124778
0.116048
0.107975
0.1005
0.09357
0.0871374
0.0811599
0.0755997
0.0704238
0.0656029
0.0611116
0.0569277
0.0530319
0.0494075
0.0460399
0.0429163
0.0400252
0.0373563
0.0349
0.032647
0.0305881
0.0287141
0.0270154
0.0254817
0.0241023
0.0228658
0.0217601
0.0207724
0.0198896
0.019098
0.0183839
0.0177336
0.0171333
0.0165699
0.0160307
0.0155039
0.0149783
0.014444
0.0138922
0.013315
0.0127061
0.0120601
0.011373
0.0106418
0.00986493
0.00904149
0.00817175
0.00725681
0.00629853
0.00529945
0.0042627
0.00319188
0.00209096
0.000964216
-0.000183866
-0.00134868
-0.00252556
-0.00370986
-0.00489699
-0.00608252
-0.00726215
-0.00843182
-0.00958769
-0.0107262
-0.0118441
-0.0129384
-0.0140065
-0.015046
-0.0160548
-0.0170314
-0.0179741
-0.018882
-0.0197542
-0.0205901
-0.0213894
-0.022152
-0.0228779
-0.0235675
-0.0242213
-0.0248398
-0.0254238
-0.0259743
-0.026492
-0.0269782
-0.0274338
-0.0278601
-0.0282582
-0.0286294
-0.0289748
-0.0292957
-0.0295932
-0.0298686
-0.0301231
-0.0303577
-0.0305735
-0.0307716
-0.030953
-0.0311186
-0.0312693
-0.0314061
-0.0315296
-0.0316406
-0.0317398
-0.0318277
-0.0319051
-0.0319723
-0.0320299
-0.0320782
-0.0321175
-0.0321483
-0.0321706
-0.0321847
-0.0321908
-0.0321888
-0.032179
-0.0321611
-0.0321353
-0.0321014
-0.0320593
-0.0320088
-0.0319498
-0.0318819
-0.0318051
-0.0317189
-0.0316232
-0.0315176
-0.0314019
-0.0312759
-0.0311392
-0.0309918
-0.0308333
-0.0306638
-0.0304832
-0.0302915
-0.0300887
-0.0298752
-0.029651
-0.0294166
-0.0291724
-0.0289188
-0.0286565
-0.0283859
-0.0281079
-0.027823
-0.0275321
-0.0272359
-0.0269351
-0.0266306
-0.026323
-0.0260133
-0.0257022
-0.0253904
-0.0250789
-0.0247684
-0.0244597
-0.0241537
-0.0238512
-0.023553
-0.0232597
-0.0229719
-0.0226902
-0.0224148
-0.022146
-0.0218836
-0.0216275
-0.0213773
-0.0211323
-0.0208919
-0.0206553
-0.0204218
-0.0201904
-0.0199605
-0.0197313
-0.0195022
-0.0192727
-0.0190423
-0.0188108
-0.0185781
-0.0183439
-0.0181083
-0.0178714
-0.0176332
-0.0173939
-0.0171537
-0.0169128
-0.0166713
-0.0164296
-0.0161877
-0.0159458
-0.0157042
-0.0154629
-0.0152221
-0.0149819
-0.0147424
-0.0145037
-0.0142659
-0.0140289
-0.0137929
-0.0135578
-0.0133237
-0.0130906
-0.0128584
-0.0126273
-0.012397
-0.0121677
-0.0119394
-0.0117119
-0.0114853
-0.0112596
-0.0110346
-0.0108105
-0.0105871
-0.0103645
-0.0101426
-0.0099213
-0.00970069
-0.0094807
-0.00926131
-0.00904248
-0.00882421
-0.00860645
-0.00838919
-0.00817241
-0.00795608
-0.00774018
-0.00752469
-0.00730959
-0.00709487
-0.00688051
-0.00666649
-0.00645279
-0.0062394
-0.0060263
-0.00581348
-0.00560093
-0.00538863
-0.00517657
-0.00496473
-0.00475311
-0.0045417
-0.00433047
-0.00411944
-0.00390857
-0.00369787
-0.00348732
-0.00327691
-0.00306664
-0.0028565
-0.00264647
-0.00243656
-0.00222674
-0.00201702
-0.00180738
-0.00159782
-0.00138832
-0.00117894
-0.000969365
-0.000760627
-0.000548741
-0.000344967
-9.69932e-05
5.73956
5.02692
3.3059
1.55744
0.215389
-0.163048
-0.239996
-0.231949
-0.202077
-0.221473
-0.235602
-0.225877
-0.304069
-0.893112
-1.24998
-0.98373
-0.333224
-0.478356
-0.136953
0.877722
1.28993
0.335596
-0.725333
-0.0513955
0.37176
0.524643
0.612545
0.974192
1.7437
1.58417
0.384073
0.277733
0.395401
0.516278
0.593265
0.409467
0.344682
0.340213
0.339821
0.336607
0.331054
0.322732
0.312437
0.301775
0.293688
0.290807
0.292273
0.29367
0.292452
0.290189
0.287779
0.285152
0.281864
0.277946
0.274113
0.271778
0.272303
0.275739
0.280406
0.283707
0.283949
0.281768
0.279642
0.28039
0.288051
0.31337
0.384733
0.613788
1.97963
0.981306
0.265641
0.132337
0.0880578
0.035274
0.0104324
0.0263093
0.0910946
0.20548
0.368744
0.597502
0.927343
1.43362
1.6363
1.2402
1.0454
0.91695
0.815653
0.755512
0.734794
0.759602
0.833455
0.95089
1.13869
1.4437
1.4366
1.1694
1.05985
1.08581
1.17036
1.31598
1.52846
1.72459
1.76305
1.81447
1.93429
2.07661
2.21881
2.30375
2.34075
2.40367
2.49996
2.59996
2.6809
2.74775
2.81725
2.88536
2.94151
2.98766
3.03118
3.07214
3.1071
3.13569
3.15754
3.17037
3.17299
3.16596
3.1498
3.12521
3.09346
3.05582
3.01331
2.96682
2.917
2.86423
2.80874
2.75066
2.69007
2.62707
2.56175
2.49425
2.4247
2.35328
2.28017
2.20561
2.12985
2.05318
1.97589
1.8983
1.82073
1.74349
1.6669
1.59125
1.5168
1.4438
1.37244
1.3029
1.23531
1.16976
1.10633
1.04505
0.985937
0.928998
0.874225
0.821604
0.77112
0.722757
0.676498
0.63233
0.590242
0.550221
0.512257
0.476337
0.442442
0.410551
0.380633
0.352648
0.326546
0.302269
0.279744
0.258895
0.239633
0.221866
0.205499
0.190433
0.176571
0.163817
0.152079
0.141271
0.131308
0.122116
0.113623
0.105767
0.0984874
0.0917341
0.08546
0.079624
0.0741896
0.0691251
0.0644026
0.0599979
0.0558903
0.0520616
0.0484964
0.0451814
0.042105
0.0392568
0.0366276
0.0342088
0.031992
0.0299688
0.0281307
0.0264685
0.0249725
0.023632
0.0224357
0.0213713
0.020426
0.0195862
0.0188379
0.0181668
0.0175587
0.0169993
0.0164749
0.0159725
0.0154797
0.0149852
0.0144786
0.013951
0.0133944
0.0128024
0.0121698
0.0114925
0.0107678
0.00999427
0.00917126
0.0082993
0.00737976
0.0064148
0.00540727
0.00436056
0.00327857
0.00216553
0.00102599
-0.00013534
-0.00131362
-0.00250399
-0.00370162
-0.00490177
-0.00609984
-0.00729143
-0.00847238
-0.00963877
-0.010787
-0.0119137
-0.0130159
-0.014091
-0.0151365
-0.0161505
-0.0171313
-0.0180775
-0.018988
-0.019862
-0.020699
-0.0214987
-0.022261
-0.0229862
-0.0236745
-0.0243265
-0.0249428
-0.0255244
-0.026072
-0.0265867
-0.0270696
-0.0275219
-0.0279447
-0.0283392
-0.0287068
-0.0290486
-0.0293659
-0.02966
-0.0299319
-0.030183
-0.0304144
-0.0306271
-0.0308222
-0.0310007
-0.0311637
-0.0313119
-0.0314463
-0.0315675
-0.0316765
-0.0317738
-0.0318601
-0.0319359
-0.0320018
-0.0320582
-0.0321054
-0.0321439
-0.0321739
-0.0321957
-0.0322094
-0.0322151
-0.0322131
-0.0322032
-0.0321855
-0.0321599
-0.0321264
-0.0320847
-0.0320348
-0.0319763
-0.0319092
-0.0318331
-0.0317477
-0.0316527
-0.0315479
-0.0314329
-0.0313075
-0.0311713
-0.0310243
-0.0308661
-0.0306967
-0.030516
-0.0303239
-0.0301207
-0.0299063
-0.0296812
-0.0294456
-0.0291999
-0.0289447
-0.0286804
-0.0284079
-0.0281276
-0.0278404
-0.027547
-0.0272481
-0.0269446
-0.0266373
-0.0263269
-0.0260144
-0.0257005
-0.0253861
-0.025072
-0.0247591
-0.0244483
-0.0241405
-0.0238365
-0.0235372
-0.0232433
-0.0229555
-0.0226744
-0.0224001
-0.022133
-0.0218728
-0.0216192
-0.0213718
-0.0211297
-0.0208923
-0.0206586
-0.0204276
-0.0201985
-0.0199703
-0.0197424
-0.0195142
-0.0192851
-0.0190547
-0.0188229
-0.0185895
-0.0183544
-0.0181178
-0.0178797
-0.0176403
-0.0173998
-0.0171584
-0.0169163
-0.0166738
-0.0164311
-0.0161883
-0.0159456
-0.0157033
-0.0154615
-0.0152202
-0.0149796
-0.0147398
-0.0145008
-0.0142627
-0.0140256
-0.0137895
-0.0135544
-0.0133202
-0.0130871
-0.012855
-0.0126238
-0.0123937
-0.0121644
-0.0119361
-0.0117088
-0.0114823
-0.0112566
-0.0110318
-0.0108077
-0.0105845
-0.0103619
-0.0101401
-0.0099189
-0.00969838
-0.00947849
-0.00925918
-0.00904044
-0.00882225
-0.00860457
-0.00838739
-0.00817067
-0.00795441
-0.00773858
-0.00752316
-0.00730813
-0.00709347
-0.00687916
-0.00666519
-0.00645155
-0.00623821
-0.00602516
-0.00581239
-0.00559988
-0.00538762
-0.0051756
-0.00496381
-0.00475223
-0.00454085
-0.00432966
-0.00411866
-0.00390783
-0.00369716
-0.00348664
-0.00327626
-0.00306602
-0.00285591
-0.00264591
-0.00243603
-0.00222624
-0.00201654
-0.00180693
-0.0015974
-0.00138792
-0.00117857
-0.000969023
-0.000760309
-0.000548452
-0.000344709
-9.68616e-05
5.99274
4.91586
1.61029
0.0132858
-0.165558
-0.233056
-0.231152
-0.20634
-0.214796
-0.264978
-0.312164
-0.421491
-0.660201
-0.986236
-1.25196
-1.28117
-1.15601
-1.42432
-2.20887
0.725132
4.57214
4.89121
0.438725
0.44453
0.405358
0.353399
0.374797
0.339691
0.320394
0.406555
0.422268
0.398166
0.383086
0.39613
0.400495
0.38091
0.352212
0.33469
0.330208
0.328161
0.324632
0.319797
0.314437
0.30901
0.303821
0.299165
0.295324
0.292389
0.290133
0.288302
0.286752
0.2854
0.284184
0.283029
0.281919
0.280943
0.280279
0.280094
0.280524
0.281699
0.283644
0.28623
0.289541
0.294552
0.304106
0.325846
0.378079
0.452596
0.329279
-0.132349
0.0778865
0.143211
0.170959
0.185609
0.195184
0.203962
0.214988
0.229864
0.25383
0.304349
0.440885
1.09251
1.78595
0.657047
0.385163
0.295937
0.198802
0.123439
0.0901298
0.136039
0.305582
0.609814
1.11295
2.04548
1.64432
1.03291
0.916623
0.862652
0.831277
0.87637
1.08132
1.42167
1.32896
1.30731
1.46564
1.69619
1.94925
2.02923
1.99775
2.05768
2.1875
2.3195
2.40449
2.46468
2.54572
2.63264
2.69796
2.74768
2.80108
2.85598
2.90324
2.944
2.97893
3.00301
3.01452
3.01538
3.00607
2.98719
2.96077
2.92847
2.89146
2.85085
2.80729
2.76099
2.71204
2.6604
2.60603
2.54895
2.48923
2.42697
2.36229
2.29535
2.22634
2.15548
2.08305
2.00936
1.93473
1.85952
1.78409
1.70877
1.63393
1.55989
1.48694
1.41536
1.34536
1.27713
1.21082
1.14651
1.08427
1.02414
0.966128
0.910227
0.856427
0.80471
0.75506
0.707461
0.661902
0.618373
0.576871
0.537393
0.499936
0.464497
0.431069
0.399638
0.37018
0.342661
0.317036
0.293247
0.271221
0.250879
0.232128
0.214872
0.199009
0.184437
0.171052
0.158756
0.147451
0.137049
0.127465
0.118622
0.110449
0.102884
0.0958677
0.0893507
0.0832879
0.0776397
0.0723716
0.0674535
0.0628595
0.0585672
0.0545578
0.0508148
0.0473247
0.0440759
0.0410582
0.0382632
0.035683
0.0333104
0.0311384
0.0291598
0.0273667
0.0257509
0.024303
0.0230128
0.0218689
0.0208589
0.0199697
0.019187
0.0184963
0.0178826
0.0173308
0.0168262
0.0163541
0.0159008
0.0154535
0.0150003
0.0145306
0.014035
0.0135056
0.0129358
0.0123205
0.0116559
0.0109394
0.0101698
0.00934682
0.00847141
0.00754529
0.006571
0.00555179
0.00449144
0.00339422
0.00226473
0.00110786
-7.13539e-05
-0.00126779
-0.00247632
-0.00369186
-0.00490947
-0.00612436
-0.00733197
-0.00852801
-0.00970845
-0.0108696
-0.0120081
-0.0131208
-0.0142052
-0.0152588
-0.0162796
-0.017266
-0.0182167
-0.0191306
-0.0200069
-0.0208453
-0.0216454
-0.0224073
-0.0231313
-0.0238178
-0.0244673
-0.0250807
-0.0256588
-0.0262027
-0.0267133
-0.0271918
-0.0276395
-0.0280576
-0.0284473
-0.02881
-0.029147
-0.0294595
-0.0297488
-0.0300162
-0.0302628
-0.0304898
-0.0306983
-0.0308894
-0.0310642
-0.0312235
-0.0313684
-0.0314996
-0.0316179
-0.0317242
-0.031819
-0.031903
-0.0319768
-0.0320409
-0.0320956
-0.0321415
-0.0321788
-0.0322079
-0.0322289
-0.032242
-0.0322474
-0.0322452
-0.0322353
-0.0322178
-0.0321925
-0.0321595
-0.0321185
-0.0320693
-0.0320118
-0.0319456
-0.0318705
-0.0317861
-0.0316923
-0.0315885
-0.0314745
-0.03135
-0.0312147
-0.0310683
-0.0309105
-0.0307413
-0.0305604
-0.030368
-0.030164
-0.0299486
-0.0297221
-0.0294849
-0.0292373
-0.0289799
-0.0287134
-0.0284384
-0.0281556
-0.0278659
-0.0275699
-0.0272685
-0.0269625
-0.0266527
-0.0263398
-0.0260246
-0.0257079
-0.0253905
-0.0250732
-0.0247569
-0.0244424
-0.0241306
-0.0238225
-0.023519
-0.0232211
-0.0229295
-0.022645
-0.0223679
-0.0220986
-0.0218371
-0.0215831
-0.021336
-0.0210951
-0.0208595
-0.0206281
-0.0203999
-0.0201738
-0.0199488
-0.0197241
-0.0194989
-0.0192725
-0.0190447
-0.0188151
-0.0185835
-0.01835
-0.0181146
-0.0178774
-0.0176387
-0.0173986
-0.0171575
-0.0169155
-0.016673
-0.0164301
-0.0161872
-0.0159443
-0.0157018
-0.0154597
-0.0152182
-0.0149774
-0.0147374
-0.0144983
-0.0142601
-0.0140229
-0.0137867
-0.0135515
-0.0133173
-0.0130842
-0.012852
-0.0126209
-0.0123908
-0.0121616
-0.0119334
-0.0117061
-0.0114797
-0.0112541
-0.0110294
-0.0108054
-0.0105822
-0.0103598
-0.010138
-0.00991697
-0.00969654
-0.00947673
-0.00925752
-0.00903886
-0.00882075
-0.00860316
-0.00838605
-0.00816941
-0.00795322
-0.00773746
-0.0075221
-0.00730714
-0.00709254
-0.00687829
-0.00666438
-0.00645079
-0.0062375
-0.0060245
-0.00581177
-0.00559931
-0.0053871
-0.00517512
-0.00496336
-0.00475182
-0.00454048
-0.00432933
-0.00411836
-0.00390756
-0.00369692
-0.00348644
-0.00327609
-0.00306588
-0.0028558
-0.00264583
-0.00243597
-0.00222621
-0.00201654
-0.00180695
-0.00159745
-0.001388
-0.00117867
-0.000969149
-0.00076046
-0.000548633
-0.000344886
-9.70583e-05
4.8539
2.41883
0.284721
-0.132711
-0.19835
-0.224922
-0.252226
-0.261979
-0.288161
-0.328972
-0.385367
-0.516395
-0.766152
-1.09885
-1.48003
-1.52739
-1.21827
-1.43924
-0.651561
-1.47405
-0.370819
0.220779
0.387309
0.408965
0.389494
0.377057
0.37675
0.373527
0.371858
0.37028
0.360811
0.36556
0.383884
0.389628
0.384758
0.363087
0.340067
0.331051
0.329388
0.326641
0.322189
0.317212
0.312366
0.307901
0.303811
0.299969
0.296311
0.29283
0.289603
0.286773
0.284418
0.282525
0.281095
0.28009
0.27941
0.279034
0.279007
0.279316
0.279893
0.280719
0.281851
0.283281
0.285082
0.287704
0.292234
0.300517
0.312706
0.312827
0.257882
0.190334
0.194778
0.203394
0.210137
0.215085
0.218886
0.222235
0.227098
0.236865
0.25509
0.294008
0.367413
0.328642
0.0125935
0.0616621
0.12757
0.155644
0.170075
0.18063
0.189813
0.20248
0.228712
0.29131
0.440147
2.53137
1.56462
-0.192282
-0.302308
-0.122052
0.0569764
0.345164
0.867924
1.6929
1.15268
1.10463
1.21635
1.3963
1.78052
1.72904
1.4958
1.53399
1.74327
1.97829
2.06409
2.09868
2.2095
2.33351
2.40162
2.44148
2.5047
2.57932
2.6421
2.6999
2.75538
2.79547
2.818
2.82872
2.82748
2.81473
2.79434
2.7684
2.73808
2.70487
2.66934
2.6314
2.5909
2.54755
2.50112
2.45155
2.3989
2.34325
2.28472
2.22342
2.15953
2.0933
2.02501
1.95502
1.88368
1.8114
1.73857
1.66561
1.59291
1.52083
1.44972
1.37988
1.31157
1.24497
1.18025
1.1175
1.05677
0.998091
0.941462
0.88687
0.834293
0.783709
0.735101
0.688454
0.643761
0.60102
0.560238
0.521421
0.484582
0.44973
0.416871
0.386002
0.357111
0.330172
0.305142
0.281966
0.260569
0.240866
0.222762
0.206151
0.190924
0.176972
0.164185
0.152458
0.141692
0.131793
0.122677
0.114263
0.106484
0.0992752
0.0925818
0.0863547
0.080551
0.0751335
0.0700698
0.0653322
0.060897
0.0567442
0.0528568
0.049221
0.045825
0.0426593
0.0397161
0.0369886
0.0344709
0.0321575
0.0300431
0.0281216
0.0263867
0.0248308
0.0234452
0.02222
0.0211439
0.0202043
0.0193875
0.0186788
0.0180626
0.0175231
0.0170442
0.0166102
0.0162055
0.0158156
0.0154267
0.0150266
0.014604
0.0141494
0.0136545
0.0131129
0.0125195
0.0118706
0.011164
0.0103989
0.00957555
0.00869519
0.00776011
0.00677338
0.00573874
0.0046605
0.00354341
0.00239255
0.00121322
1.08936e-05
-0.00120894
-0.00244081
-0.00367932
-0.00491927
-0.00615564
-0.00738366
-0.00859888
-0.00979714
-0.0109746
-0.0121279
-0.013254
-0.01435
-0.0154137
-0.0164431
-0.0174365
-0.0183927
-0.0193107
-0.0201898
-0.0210297
-0.0218303
-0.0225916
-0.023314
-0.0239981
-0.0246444
-0.025254
-0.0258277
-0.0263666
-0.0268719
-0.0273449
-0.0277867
-0.0281988
-0.0285825
-0.0289391
-0.0292699
-0.0295764
-0.0298597
-0.0301212
-0.0303622
-0.0305837
-0.030787
-0.0309731
-0.0311431
-0.0312979
-0.0314385
-0.0315658
-0.0316805
-0.0317833
-0.031875
-0.0319562
-0.0320275
-0.0320893
-0.032142
-0.0321862
-0.0322221
-0.0322499
-0.03227
-0.0322824
-0.0322874
-0.0322849
-0.0322751
-0.0322578
-0.032233
-0.0322006
-0.0321604
-0.0321122
-0.0320557
-0.0319907
-0.0319169
-0.0318339
-0.0317414
-0.031639
-0.0315263
-0.031403
-0.0312686
-0.031123
-0.0309658
-0.0307967
-0.0306158
-0.0304229
-0.030218
-0.0300014
-0.0297732
-0.0295338
-0.0292837
-0.0290234
-0.0287535
-0.0284748
-0.028188
-0.027894
-0.0275934
-0.0272873
-0.0269764
-0.0266617
-0.0263438
-0.0260238
-0.0257024
-0.0253806
-0.0250591
-0.024739
-0.0244212
-0.0241067
-0.0237965
-0.0234918
-0.0231936
-0.0229027
-0.0226198
-0.0223456
-0.02208
-0.0218231
-0.0215743
-0.0213329
-0.0210978
-0.0208678
-0.0206416
-0.020418
-0.0201956
-0.0199734
-0.0197505
-0.0195262
-0.0192999
-0.0190714
-0.0188404
-0.018607
-0.0183713
-0.0181334
-0.0178937
-0.0176524
-0.0174098
-0.0171662
-0.016922
-0.0166774
-0.0164326
-0.016188
-0.0159437
-0.0156999
-0.0154568
-0.0152144
-0.0149729
-0.0147324
-0.0144928
-0.0142543
-0.0140168
-0.0137805
-0.0135452
-0.013311
-0.0130779
-0.0128458
-0.0126148
-0.0123848
-0.0121557
-0.0119277
-0.0117005
-0.0114743
-0.0112489
-0.0110243
-0.0108005
-0.0105775
-0.0103552
-0.0101336
-0.00991274
-0.00969247
-0.00947282
-0.00925375
-0.00903525
-0.00881728
-0.00859981
-0.00838284
-0.00816633
-0.00795026
-0.00773461
-0.00751937
-0.00730451
-0.00709001
-0.00687586
-0.00666205
-0.00644855
-0.00623535
-0.00602243
-0.00580979
-0.0055974
-0.00538526
-0.00517335
-0.00496167
-0.0047502
-0.00453892
-0.00432783
-0.00411692
-0.00390618
-0.0036956
-0.00348517
-0.00327488
-0.00306472
-0.00285468
-0.00264477
-0.00243496
-0.00222524
-0.00201562
-0.00180608
-0.00159663
-0.00138722
-0.00117794
-0.000968463
-0.000759816
-0.000548037
-0.000344351
-9.67643e-05
3.6191
0.071051
-0.0781255
-0.137269
-0.202732
-0.247758
-0.296422
-0.340855
-0.392439
-0.446649
-0.512787
-0.613453
-0.774299
-1.05316
-1.40045
-1.60736
-1.59694
-2.47294
-0.393406
0.0847545
0.0688754
0.110726
0.208377
0.283232
0.319377
0.344222
0.360211
0.371467
0.382512
0.385677
0.380565
0.376781
0.377695
0.378173
0.376361
0.367548
0.354692
0.343324
0.336257
0.330676
0.32512
0.31961
0.314264
0.30915
0.304365
0.299955
0.295957
0.292391
0.289244
0.286489
0.28411
0.28209
0.280414
0.279077
0.278066
0.277377
0.277
0.276945
0.277184
0.277662
0.278349
0.279216
0.28022
0.281326
0.282413
0.282896
0.280279
0.267901
0.237935
0.210565
0.212199
0.215316
0.217562
0.219239
0.220454
0.221626
0.224003
0.229227
0.238155
0.252162
0.264742
0.240306
0.193205
0.183992
0.188333
0.194236
0.200003
0.206581
0.213642
0.222756
0.241678
0.289199
0.389938
0.343604
-0.243877
0.0105268
0.0991771
0.137619
0.177845
0.227826
0.290823
2.83869
0.112829
-0.176492
0.298183
0.933684
2.20031
1.56154
1.06794
1.19244
1.40643
1.76489
1.72843
1.63061
1.77036
1.98061
2.04446
2.05108
2.14005
2.25307
2.33035
2.40601
2.48948
2.54744
2.58083
2.60483
2.61399
2.6076
2.59383
2.57492
2.55208
2.52793
2.50256
2.47521
2.4454
2.41235
2.37562
2.33517
2.29108
2.24347
2.19239
2.13792
2.0802
2.0195
1.95614
1.89053
1.82307
1.75422
1.68445
1.61422
1.54399
1.4742
1.40524
1.33745
1.27112
1.20647
1.14366
1.08279
1.02389
0.966978
0.912033
0.859027
0.807929
0.758709
0.711346
0.66583
0.62216
0.580344
0.5404
0.502351
0.466226
0.43205
0.399847
0.369631
0.341402
0.315145
0.290824
0.268382
0.247747
0.228826
0.211513
0.195697
0.181256
0.168072
0.156026
0.145005
0.134905
0.125628
0.117085
0.109199
0.101899
0.0951228
0.088818
0.0829378
0.077442
0.0722965
0.0674718
0.0629433
0.0586902
0.0546953
0.0509446
0.0474269
0.0441331
0.0410566
0.0381918
0.0355348
0.0330819
0.0308301
0.0287758
0.0269151
0.025243
0.023753
0.0224374
0.0212864
0.0202889
0.0194319
0.0187009
0.0180803
0.0175535
0.0171033
0.0167124
0.0163635
0.0160402
0.0157265
0.015408
0.0150714
0.0147051
0.014299
0.0138449
0.0133361
0.0127679
0.0121368
0.011441
0.0106802
0.00985518
0.00896778
0.00802093
0.00701831
0.00596429
0.00486379
0.00372214
0.00254499
0.00133818
0.000107628
-0.0011407
-0.00240093
-0.00366732
-0.00493432
-0.00619665
-0.00744932
-0.00868767
-0.00990738
-0.0111046
-0.0122756
-0.0134175
-0.0145275
-0.0156032
-0.0166426
-0.0176443
-0.018607
-0.0195298
-0.0204121
-0.0212537
-0.0220545