/*--------------------------------*- C++ -*----------------------------------*\
| =========                 |                                                 |
| \\      /  F ield         | OpenFOAM: The Open Source CFD Toolbox           |
|  \\    /   O peration     | Version:  v2006                                 |
|   \\  /    A nd           | Website:  www.openfoam.com                      |
|    \\/     M anipulation  |                                                 |
\*---------------------------------------------------------------------------*/
FoamFile
{
    version     2.0;
    format      ascii;
    class       surfaceScalarField;
    location    "4.5";
    object      alphaPhi0.water;
}
// * * * * * * * * * * * * * * * * * * * * * * * * * * * * * * * * * * * * * //

dimensions      [0 3 -1 0 0 0 0];
oriented        oriented;


internalField   nonuniform List<scalar> 
99450
(
-3.64387e-05
3.64387e-05
-6.32952e-05
2.68564e-05
-9.40746e-05
3.07794e-05
-0.000124761
3.0686e-05
-0.0001556
3.08398e-05
-0.000186313
3.07129e-05
-0.000217004
3.06909e-05
-0.000247568
3.05643e-05
-0.000278084
3.05156e-05
-0.000308388
3.03041e-05
-0.000338592
3.02037e-05
-0.000368539
2.99467e-05
-0.000398332
2.97936e-05
-0.000427874
2.95418e-05
-0.0004572
2.93263e-05
-0.000486265
2.9065e-05
-0.000515071
2.88052e-05
-0.000543585
2.85143e-05
-0.000571788
2.82031e-05
-0.000599651
2.78627e-05
-0.00062714
2.74895e-05
-0.000654218
2.70784e-05
-0.000680844
2.66256e-05
-0.000706975
2.61311e-05
-0.00073257
2.55947e-05
-0.000757589
2.50195e-05
-0.000782
2.4411e-05
-0.000805743
2.37425e-05
-0.000828758
2.3015e-05
-0.000850991
2.22332e-05
-0.00087239
2.13986e-05
-0.000892899
2.05096e-05
-0.000912464
1.95644e-05
-0.000931028
1.85649e-05
-0.00094854
1.7512e-05
-0.000964948
1.64079e-05
-0.000980207
1.52592e-05
-0.000994282
1.40741e-05
-0.00100714
1.286e-05
-0.00101877
1.16249e-05
-0.00102914
1.03779e-05
-0.00103827
9.12144e-06
-0.00104612
7.85023e-06
-0.00105267
6.5584e-06
-0.0010579
5.22205e-06
-0.00106167
3.77444e-06
-0.00106383
2.15746e-06
-0.00106425
4.24477e-07
-0.00106309
-1.16228e-06
-0.00106045
-2.645e-06
-0.00105639
-4.05471e-06
-0.00105099
-5.39898e-06
-0.0010443
-6.68737e-06
-0.00103638
-7.92769e-06
-0.00102725
-9.12515e-06
-0.00101697
-1.02824e-05
-0.00100557
-1.14008e-05
-0.000993088
-1.24804e-05
-0.000979567
-1.35213e-05
-0.000965044
-1.45231e-05
-0.000949559
-1.54849e-05
-0.000933154
-1.64048e-05
-0.000915872
-1.72823e-05
-0.000897754
-1.81172e-05
-0.000878846
-1.89085e-05
-0.000859191
-1.96546e-05
-0.000838837
-2.03545e-05
-0.000817829
-2.10074e-05
-0.000796217
-2.16125e-05
-0.000774048
-2.21694e-05
-0.000751369
-2.26788e-05
-0.000728228
-2.31403e-05
-0.000704675
-2.35533e-05
-0.000680759
-2.39158e-05
-0.000656536
-2.42239e-05
-0.000632065
-2.44709e-05
-0.000607414
-2.46508e-05
-0.000582657
-2.47568e-05
-0.000557872
-2.47847e-05
-0.000533139
-2.47329e-05
-0.000508536
-2.46032e-05
-0.000484138
-2.43983e-05
-0.000460017
-2.41205e-05
-0.000436245
-2.37722e-05
-0.00041289
-2.33554e-05
-0.000390021
-2.28692e-05
-0.000367707
-2.23134e-05
-0.000346017
-2.16906e-05
-0.000325014
-2.10024e-05
-0.000304765
-2.02497e-05
-0.000285331
-1.94334e-05
-0.000266778
-1.85528e-05
-0.000249168
-1.76099e-05
-0.000232565
-1.66032e-05
-0.000217039
-1.55261e-05
-0.00020267
-1.4369e-05
-0.000189545
-1.31255e-05
-0.000177722
-1.18226e-05
-0.000167169
-1.0553e-05
-0.000157717
-9.45182e-06
-0.000149089
-8.62827e-06
-0.000140993
-8.09562e-06
-0.000133227
-7.76626e-06
-0.000125688
-7.53934e-06
-0.000118338
-7.34971e-06
-0.000111172
-7.16656e-06
-0.000104194
-6.97739e-06
-9.74091e-05
-6.78502e-06
-9.08284e-05
-6.58072e-06
-8.44575e-05
-6.37096e-06
-7.8287e-05
-6.17043e-06
-7.22989e-05
-5.98818e-06
-6.64529e-05
-5.84595e-06
-6.07213e-05
-5.73155e-06
-5.50753e-05
-5.64605e-06
-4.95062e-05
-5.56911e-06
-4.39978e-05
-5.5084e-06
-3.85822e-05
-5.41557e-06
-3.32805e-05
-5.3017e-06
-2.81177e-05
-5.16279e-06
-2.31364e-05
-4.98132e-06
-1.83725e-05
-4.76394e-06
-1.38522e-05
-4.52031e-06
-9.60848e-06
-4.24369e-06
-5.66251e-06
-3.94597e-06
-2.036e-06
-3.62651e-06
1.26237e-06
-3.29837e-06
4.23409e-06
-2.97172e-06
6.87578e-06
-2.64168e-06
9.1805e-06
-2.30472e-06
1.11457e-05
-1.96519e-06
1.27873e-05
-1.64156e-06
1.4101e-05
-1.31371e-06
1.51001e-05
-9.99186e-07
1.57872e-05
-6.87035e-07
1.61583e-05
-3.71154e-07
1.62202e-05
-6.18976e-08
1.59902e-05
2.30078e-07
1.54872e-05
5.02955e-07
1.46861e-05
8.0105e-07
1.37901e-05
8.96029e-07
1.24554e-05
1.33475e-06
1.14727e-05
9.82654e-07
9.91381e-06
1.55891e-06
9.00487e-06
9.08932e-07
7.45469e-06
1.55018e-06
7.20197e-06
2.52727e-07
7.54055e-06
-3.38579e-07
6.70936e-06
8.31184e-07
6.70936e-06
-4.68195e-05
8.32582e-05
-8.9991e-05
7.0028e-05
-0.000134232
7.50208e-05
-0.00017957
7.60233e-05
-0.000224262
7.55325e-05
-0.000268476
7.49266e-05
-0.000312219
7.44335e-05
-0.000355338
7.36832e-05
-0.000397859
7.30371e-05
-0.000439671
7.21163e-05
-0.000480726
7.12581e-05
-0.000520981
7.02017e-05
-0.000560338
6.9151e-05
-0.000598759
6.79628e-05
-0.000636174
6.6741e-05
-0.000672532
6.54232e-05
-0.000707783
6.40563e-05
-0.000741882
6.2613e-05
-0.000774791
6.11128e-05
-0.000806478
5.95493e-05
-0.000836915
5.79264e-05
-0.000866079
5.62421e-05
-0.00089395
5.44964e-05
-0.000920511
5.26921e-05
-0.000945745
5.08287e-05
-0.000969632
4.89072e-05
-0.000992151
4.69296e-05
-0.0010133
4.48933e-05
-0.00103308
4.27976e-05
-0.00105149
4.06394e-05
-0.00106852
3.84269e-05
-0.00108418
3.61673e-05
-0.00109847
3.38618e-05
-0.00111142
3.1513e-05
-0.00112303
2.91232e-05
-0.00113332
2.6696e-05
-0.0011423
2.42365e-05
-0.00114998
2.17508e-05
-0.00115636
1.92451e-05
-0.00116146
1.67273e-05
-0.00116529
1.42055e-05
-0.00116786
1.16868e-05
-0.00116918
9.17829e-06
-0.00116931
6.68473e-06
-0.00116829
4.2061e-06
-0.00116628
1.75615e-06
-0.00116343
-6.89609e-07
-0.00115984
-3.16854e-06
-0.00115543
-5.56468e-06
-0.00115017
-7.90531e-06
-0.00114403
-1.0202e-05
-0.00113697
-1.24579e-05
-0.00112898
-1.46714e-05
-0.00112007
-1.68407e-05
-0.00111023
-1.89628e-05
-0.00109948
-2.10347e-05
-0.00108783
-2.30542e-05
-0.00107529
-2.50189e-05
-0.00106188
-2.69266e-05
-0.00104763
-2.87755e-05
-0.00103255
-3.05631e-05
-0.00101667
-3.22867e-05
-0.00100001
-3.39449e-05
-0.000982589
-3.55359e-05
-0.00096444
-3.70572e-05
-0.000945587
-3.85076e-05
-0.000926057
-3.98853e-05
-0.000905875
-4.11894e-05
-0.000885069
-4.24177e-05
-0.000863668
-4.35706e-05
-0.0008417
-4.46473e-05
-0.000819194
-4.5646e-05
-0.000796179
-4.65682e-05
-0.000772681
-4.74134e-05
-0.000748726
-4.81789e-05
-0.000724333
-4.88638e-05
-0.000699521
-4.94636e-05
-0.000674302
-4.99755e-05
-0.000648691
-5.0396e-05
-0.000622701
-5.07223e-05
-0.000596353
-5.09518e-05
-0.000569668
-5.10832e-05
-0.000542671
-5.11171e-05
-0.000515389
-5.10542e-05
-0.00048785
-5.08946e-05
-0.00046008
-5.06388e-05
-0.000432105
-5.02889e-05
-0.000403949
-4.98462e-05
-0.00037564
-4.93119e-05
-0.0003472
-4.8689e-05
-0.000318654
-4.79803e-05
-0.000290019
-4.71875e-05
-0.000261314
-4.63147e-05
-0.000232552
-4.53657e-05
-0.000203731
-4.43468e-05
-0.000174835
-4.32646e-05
-0.000145828
-4.2133e-05
-0.000116672
-4.09779e-05
-8.73879e-05
-3.98375e-05
-5.80902e-05
-3.87496e-05
-2.89869e-05
-3.77315e-05
-3.22375e-07
-3.67602e-05
2.77257e-05
-3.58144e-05
5.50255e-05
-3.48391e-05
8.14769e-05
-3.38011e-05
0.000107006
-3.2696e-05
0.000131567
-3.15376e-05
0.00015512
-3.03381e-05
0.000177634
-2.90948e-05
0.000199084
-2.7821e-05
0.00021941
-2.64963e-05
0.000238575
-2.51533e-05
0.000256503
-2.37743e-05
0.000273132
-2.23599e-05
0.000288404
-2.09189e-05
0.000302271
-1.94359e-05
0.000314682
-1.79194e-05
0.000325631
-1.63645e-05
0.000335101
-1.47716e-05
0.000343065
-1.31266e-05
0.000349544
-1.146e-05
0.000354518
-9.73855e-06
0.000358015
-8.01747e-06
0.000360036
-6.26379e-06
0.000360597
-4.50769e-06
0.000359693
-2.72255e-06
0.000357324
-9.28571e-07
0.000353511
8.40768e-07
0.000348281
2.58866e-06
0.000341672
4.30392e-06
0.000333727
5.98028e-06
0.000324474
7.61144e-06
0.000313958
9.2018e-06
0.000302224
1.07352e-05
0.000289321
1.22156e-05
0.000275309
1.36405e-05
0.000260255
1.49924e-05
0.000244211
1.62737e-05
0.000227253
1.74617e-05
0.000209471
1.85827e-05
0.000190814
1.95533e-05
0.000171645
2.05036e-05
0.00015132
2.13076e-05
0.000130862
2.20169e-05
0.00010905
2.27213e-05
8.70661e-05
2.35338e-05
6.36394e-05
2.36795e-05
4.20102e-05
2.12906e-05
2.66552e-05
1.61863e-05
3.33645e-05
-4.41218e-05
0.00012738
-8.35794e-05
0.000109486
-0.000124569
0.00011601
-0.000166717
0.000118171
-0.000208234
0.00011705
-0.000249389
0.000116081
-0.000290024
0.000115068
-0.000330186
0.000113845
-0.000369771
0.000112623
-0.000408759
0.000111104
-0.00044706
0.000109559
-0.000484665
0.000107807
-0.000521474
0.000105959
-0.000557477
0.000103967
-0.000592604
0.000101868
-0.000626828
9.96464e-05
-0.000660096
9.73251e-05
-0.000692381
9.48974e-05
-0.000723646
9.23783e-05
-0.000753864
8.97677e-05
-0.00078301
8.70719e-05
-0.000811061
8.42926e-05
-0.000837997
8.14327e-05
-0.000863801
7.84963e-05
-0.000888459
7.54865e-05
-0.000911958
7.24066e-05
-0.000934286
6.92577e-05
-0.000955437
6.60441e-05
-0.000975409
6.2769e-05
-0.000994205
5.94358e-05
-0.00101183
5.60478e-05
-0.00102827
5.26126e-05
-0.00104354
4.91346e-05
-0.00105765
4.5619e-05
-0.0010706
4.20716e-05
-0.0010824
3.84951e-05
-0.00109305
3.48922e-05
-0.00110257
3.12663e-05
-0.00111095
2.76233e-05
-0.00111819
2.39679e-05
-0.00112429
2.03043e-05
-0.00112924
1.66363e-05
-0.00113302
1.29669e-05
-0.00113564
9.29997e-06
-0.00113708
5.64953e-06
-0.00113735
2.02579e-06
-0.00113656
-1.48201e-06
-0.00113482
-4.90712e-06
-0.00113204
-8.34952e-06
-0.00112815
-1.17891e-05
-0.00112316
-1.51958e-05
-0.00111706
-1.8554e-05
-0.00110988
-2.18544e-05
-0.00110163
-2.50916e-05
-0.00109233
-2.82614e-05
-0.00108201
-3.13603e-05
-0.00107067
-3.43847e-05
-0.00105836
-3.73308e-05
-0.00104509
-4.01955e-05
-0.00103089
-4.29756e-05
-0.00101579
-4.56677e-05
-0.000999808
-4.82685e-05
-0.000982977
-5.07753e-05
-0.000965327
-5.31856e-05
-0.000946888
-5.54962e-05
-0.000927692
-5.77045e-05
-0.000907768
-5.98083e-05
-0.000887155
-6.18034e-05
-0.000865882
-6.369e-05
-0.000843988
-6.54647e-05
-0.00082151
-6.71254e-05
-0.000798484
-6.86724e-05
-0.000774949
-7.0103e-05
-0.000750946
-7.14164e-05
-0.000726512
-7.26127e-05
-0.000701684
-7.3692e-05
-0.000676495
-7.4653e-05
-0.000650979
-7.54908e-05
-0.00062517
-7.62049e-05
-0.000599103
-7.67894e-05
-0.000572812
-7.72426e-05
-0.000546334
-7.75618e-05
-0.000519704
-7.77465e-05
-0.000492961
-7.77975e-05
-0.000466144
-7.77119e-05
-0.00043929
-7.74929e-05
-0.000412439
-7.71399e-05
-0.000385629
-7.66555e-05
-0.000358896
-7.60453e-05
-0.000332281
-7.53045e-05
-0.000305818
-7.44425e-05
-0.000279545
-7.3461e-05
-0.000253491
-7.23689e-05
-0.000227689
-7.11674e-05
-0.000202164
-6.98713e-05
-0.000176932
-6.84964e-05
-0.000152006
-6.7059e-05
-0.000127403
-6.55814e-05
-0.000103161
-6.40795e-05
-7.93506e-05
-6.25599e-05
-5.60655e-05
-6.10166e-05
-3.33882e-05
-5.94374e-05
-1.13837e-05
-5.78189e-05
9.93518e-06
-5.6158e-05
3.05662e-05
-5.44321e-05
5.0501e-05
-5.26308e-05
6.97409e-05
-5.07776e-05
8.82408e-05
-4.8838e-05
0.000105982
-4.68362e-05
0.000122937
-4.47759e-05
0.00013909
-4.26491e-05
0.000154406
-4.04695e-05
0.000168862
-3.82304e-05
0.000182444
-3.59421e-05
0.000195081
-3.35556e-05
0.000206792
-3.11465e-05
0.000217516
-2.86435e-05
0.000227244
-2.60929e-05
0.00023595
-2.34773e-05
0.000243618
-2.07952e-05
0.000250223
-1.80647e-05
0.000255773
-1.52883e-05
0.000260232
-1.2477e-05
0.000263589
-9.62011e-06
0.000265846
-6.76473e-06
0.00026701
-3.88729e-06
0.000267065
-9.82908e-07
0.000266014
1.89164e-06
0.000263844
4.75804e-06
0.000260546
7.60243e-06
0.000256112
1.0414e-05
0.000250546
1.31775e-05
0.000243867
1.58809e-05
0.000236087
1.8515e-05
0.000227219
2.10835e-05
0.000217311
2.35485e-05
0.000206394
2.59101e-05
0.000194507
2.81602e-05
0.0001817
3.0269e-05
0.000168029
3.22534e-05
0.000153522
3.40603e-05
0.000138343
3.56827e-05
0.000122326
3.73242e-05
0.000105773
3.85704e-05
8.83321e-05
4.0162e-05
7.03326e-05
4.15333e-05
5.18022e-05
4.22099e-05
3.52202e-05
3.78725e-05
2.44541e-05
2.69524e-05
5.78186e-05
-4.31083e-05
0.000170488
-7.94674e-05
0.000145845
-0.00011827
0.000154813
-0.000157917
0.000157819
-0.000197145
0.000156277
-0.000236222
0.000155158
-0.000274816
0.000153663
-0.000313182
0.000152211
-0.000351027
0.000150468
-0.000388489
0.000148566
-0.000425386
0.000146456
-0.000461753
0.000144174
-0.000497506
0.000141711
-0.00053262
0.000139081
-0.000567046
0.000136293
-0.000600744
0.000133345
-0.000633675
0.000130255
-0.0006658
0.000127023
-0.000697078
0.000123657
-0.000727472
0.000120162
-0.000756947
0.000116547
-0.000785469
0.000112814
-0.000813007
0.000108971
-0.000839532
0.000105021
-0.000865016
0.000100971
-0.000889434
9.68244e-05
-0.000912764
9.2588e-05
-0.000934986
8.82656e-05
-0.00095608
8.38633e-05
-0.00097603
7.93853e-05
-0.00099482
7.48382e-05
-0.00101244
7.02282e-05
-0.00102886
6.55619e-05
-0.00104409
6.08439e-05
-0.0010581
5.60817e-05
-0.00107088
5.12805e-05
-0.00108244
4.64466e-05
-0.00109276
4.15854e-05
-0.00110184
3.67023e-05
-0.00110967
3.18062e-05
-0.00111628
2.69063e-05
-0.00112165
2.20132e-05
-0.00112583
1.71412e-05
-0.00112883
1.23025e-05
-0.00113068
7.50311e-06
-0.00113142
2.75931e-06
-0.0011309
-2.00202e-06
-0.00112905
-6.75337e-06
-0.00112598
-1.14207e-05
-0.00112175
-1.6021e-05
-0.00111639
-2.05566e-05
-0.00110992
-2.50242e-05
-0.00110235
-2.94178e-05
-0.00109371
-3.37304e-05
-0.00108402
-3.79556e-05
-0.00107329
-4.20885e-05
-0.00106155
-4.61232e-05
-0.00104883
-5.00547e-05
-0.00103515
-5.38772e-05
-0.00102054
-5.75867e-05
-0.00100503
-6.11793e-05
-0.000988644
-6.46496e-05
-0.000971425
-6.7994e-05
-0.000953402
-7.12086e-05
-0.00093461
-7.42891e-05
-0.000915081
-7.72328e-05
-0.000894852
-8.00373e-05
-0.000873959
-8.26964e-05
-0.000852439
-8.52106e-05
-0.000830327
-8.75764e-05
-0.000807663
-8.97891e-05
-0.000784488
-9.18481e-05
-0.00076084
-9.3751e-05
-0.000736758
-9.54983e-05
-0.000712283
-9.70876e-05
-0.000687458
-9.85165e-05
-0.000662329
-9.97825e-05
-0.000636934
-0.000100886
-0.000611315
-0.000101823
-0.000585512
-0.000102593
-0.000559562
-0.000103192
-0.000533504
-0.00010362
-0.000507374
-0.000103876
-0.000481213
-0.000103959
-0.000455055
-0.00010387
-0.000428935
-0.000103612
-0.000402889
-0.000103186
-0.000376952
-0.000102593
-0.000351161
-0.000101836
-0.000325546
-0.000100919
-0.000300141
-9.98483e-05
-0.000274975
-9.86268e-05
-0.000250085
-9.72583e-05
-0.0002255
-9.5753e-05
-0.000201249
-9.41221e-05
-0.000177375
-9.23702e-05
-0.000153925
-9.05098e-05
-0.000130947
-8.8559e-05
-0.000108497
-8.65294e-05
-8.66269e-05
-8.443e-05
-6.53769e-05
-8.22667e-05
-4.47712e-05
-8.00431e-05
-2.48311e-05
-7.7759e-05
-5.58292e-06
-7.54062e-05
1.29494e-05
-7.29645e-05
3.07716e-05
-7.0453e-05
4.78292e-05
-6.78351e-05
6.41328e-05
-6.51416e-05
7.96403e-05
-6.23437e-05
9.43253e-05
-5.94609e-05
0.000108191
-5.6515e-05
0.0001212
-5.34785e-05
0.00013334
-5.03706e-05
0.000144591
-4.71928e-05
0.000154969
-4.39331e-05
0.000164448
-4.06258e-05
0.000173026
-3.72213e-05
0.000180705
-3.37725e-05
0.000187471
-3.02429e-05
0.000193345
-2.66697e-05
0.000198301
-2.30204e-05
0.000202343
-1.93305e-05
0.000205464
-1.55975e-05
0.000207701
-1.18575e-05
0.000208994
-8.05741e-06
0.000209387
-4.28015e-06
0.000208912
-5.08139e-07
0.000207559
3.2446e-06
0.000205337
6.98002e-06
0.000202255
1.06845e-05
0.000198312
1.43566e-05
0.000193531
1.79584e-05
0.000187922
2.14902e-05
0.0001815
2.49368e-05
0.0001743
2.8284e-05
0.000166347
3.15017e-05
0.000157656
3.46012e-05
0.000148275
3.75405e-05
0.00013822
4.03245e-05
0.000127543
4.29302e-05
0.0001163
4.53028e-05
0.000104447
4.75359e-05
9.2243e-05
4.95283e-05
7.95161e-05
5.12973e-05
6.6505e-05
5.31732e-05
5.2793e-05
5.52453e-05
3.95813e-05
5.54216e-05
2.83343e-05
4.91196e-05
2.034e-05
3.49467e-05
7.81586e-05
-4.32068e-05
0.000213695
-7.93637e-05
0.000182001
-0.000118042
0.000193491
-0.000157552
0.000197329
-0.000196674
0.000195399
-0.000235699
0.000194184
-0.000274301
0.000192264
-0.00031271
0.00019062
-0.000350657
0.000188415
-0.000388239
0.000186148
-0.00042532
0.000183538
-0.000461903
0.000180757
-0.00049791
0.000177719
-0.000533315
0.000174486
-0.000568058
0.000171037
-0.000602105
0.000167393
-0.000635407
0.000163557
-0.000667923
0.000159538
-0.000699609
0.000155342
-0.000730427
0.00015098
-0.000760336
0.000146456
-0.000789299
0.000141778
-0.000817283
0.000136954
-0.000844252
0.000131991
-0.000870178
0.000126897
-0.000895031
0.000121677
-0.000918782
0.000116339
-0.000941408
0.000110892
-0.000962886
0.000105341
-0.000983194
9.96938e-05
-0.00100232
9.39592e-05
-0.00102023
8.81453e-05
-0.00103693
8.22601e-05
-0.0010524
7.63121e-05
-0.00106663
7.03091e-05
-0.0010796
6.42589e-05
-0.00109133
5.81702e-05
-0.00110179
5.20518e-05
-0.001111
4.59128e-05
-0.00111896
3.97645e-05
-0.00112567
3.3615e-05
-0.00113113
2.74742e-05
-0.00113534
2.13489e-05
-0.00113828
1.52413e-05
-0.00113994
9.15955e-06
-0.00114028
3.10392e-06
-0.00113944
-2.84373e-06
-0.00113746
-8.72972e-06
-0.00113431
-1.45736e-05
-0.00112998
-2.03508e-05
-0.00112449
-2.60468e-05
-0.00111786
-3.16536e-05
-0.00111011
-3.71639e-05
-0.00110127
-4.25707e-05
-0.00109136
-4.78666e-05
-0.00108041
-5.30448e-05
-0.00106843
-5.80978e-05
-0.00105546
-6.30214e-05
-0.00104153
-6.78084e-05
-0.00102667
-7.2453e-05
-0.0010109
-7.69489e-05
-0.000994256
-8.12916e-05
-0.000976775
-8.54755e-05
-0.000958488
-8.94956e-05
-0.000939428
-9.33481e-05
-0.000919634
-9.70276e-05
-0.00089914
-0.000100531
-0.000877982
-0.000103854
-0.0008562
-0.000106993
-0.000833831
-0.000109945
-0.000810913
-0.000112707
-0.000787484
-0.000115277
-0.000763585
-0.00011765
-0.000739258
-0.000119826
-0.000714542
-0.000121803
-0.000689478
-0.00012358
-0.000664107
-0.000125154
-0.00063847
-0.000126523
-0.000612607
-0.000127686
-0.000586558
-0.000128642
-0.000560359
-0.00012939
-0.000534053
-0.000129926
-0.000507674
-0.000130255
-0.000481256
-0.000130376
-0.000454838
-0.000130289
-0.000428452
-0.000129998
-0.000402138
-0.0001295
-0.000375926
-0.000128805
-0.000349853
-0.000127909
-0.000323947
-0.000126825
-0.000298249
-0.000125546
-0.000272787
-0.000124089
-0.000247589
-0.000122457
-0.00022269
-0.000120652
-0.000198127
-0.000118684
-0.00017393
-0.000116567
-0.000150133
-0.000114307
-0.000126777
-0.000111915
-0.000103909
-0.000109398
-8.15768e-05
-0.000106762
-5.98288e-05
-0.000104015
-3.87189e-05
-0.000101153
-1.83017e-05
-9.81763e-05
1.36662e-06
-9.50745e-05
2.02595e-05
-9.18574e-05
3.83552e-05
-8.85487e-05
5.56334e-05
-8.51134e-05
7.20585e-05
-8.15667e-05
8.76327e-05
-7.79178e-05
0.000102332
-7.416e-05
0.000116131
-7.03145e-05
0.00012901
-6.63573e-05
0.000140966
-6.23262e-05
0.000151976
-5.82029e-05
0.000162038
-5.39951e-05
0.000171108
-4.96963e-05
0.000179236
-4.53491e-05
0.000186365
-4.09017e-05
0.000192561
-3.64383e-05
0.000197749
-3.18577e-05
0.000202018
-2.72891e-05
0.000205317
-2.26303e-05
0.000207675
-1.79552e-05
0.000209084
-1.3266e-05
0.000209597
-8.57094e-06
0.000209183
-3.86645e-06
0.000207858
8.1726e-07
0.000205658
5.44419e-06
0.000202594
1.00443e-05
0.000198704
1.45742e-05
0.000194019
1.90416e-05
0.000188556
2.3422e-05
0.000182349
2.76972e-05
0.000175416
3.18692e-05
0.000167811
3.58892e-05
0.000159549
3.9764e-05
0.000150664
4.34865e-05
0.000141196
4.70083e-05
0.00013119
5.03299e-05
0.000120676
5.34447e-05
0.000109705
5.62734e-05
9.82696e-05
5.89716e-05
8.65956e-05
6.12023e-05
7.43234e-05
6.35695e-05
6.21161e-05
6.53805e-05
4.92573e-05
6.81041e-05
3.71132e-05
6.75656e-05
2.66866e-05
5.95462e-05
1.89558e-05
4.26775e-05
9.71144e-05
-4.36764e-05
0.000257372
-8.05721e-05
0.000218897
-0.000119869
0.000232788
-0.000160017
0.000237477
-0.000199764
0.000235146
-0.000239385
0.000233805
-0.000278578
0.000231458
-0.000317549
0.00022959
-0.000356059
0.000226925
-0.000394187
0.000224276
-0.000431795
0.000221145
-0.00046889
0.000217852
-0.000505394
0.000214222
-0.000541271
0.000210363
-0.000576473
0.000206238
-0.000610953
0.000201872
-0.000644665
0.000197269
-0.000677565
0.000192438
-0.000709612
0.000187389
-0.000740764
0.000182132
-0.000770983
0.000176676
-0.000800235
0.00017103
-0.000828482
0.000165201
-0.000855691
0.0001592
-0.000881833
0.000153038
-0.000906878
0.000146723
-0.000930802
0.000140263
-0.000953579
0.000133669
-0.000975187
0.000126949
-0.000995607
0.000120114
-0.00101482
0.000113175
-0.00103282
0.000106139
-0.00104958
9.90193e-05
-0.00106509
9.18246e-05
-0.00107935
8.45658e-05
-0.00109234
7.7253e-05
-0.00110407
6.98964e-05
-0.00111452
6.25063e-05
-0.0011237
5.50945e-05
-0.00113161
4.76708e-05
-0.00113824
4.02472e-05
-0.0011436
3.28335e-05
-0.00114769
2.5441e-05
-0.00115053
1.80835e-05
-0.00115215
1.07728e-05
-0.00115258
3.5352e-06
-0.00115174
-3.68446e-06
-0.00114964
-1.08294e-05
-0.00114633
-1.78795e-05
-0.00114184
-2.48385e-05
-0.00113619
-3.16986e-05
-0.00112939
-3.84524e-05
-0.00112147
-4.50896e-05
-0.00111244
-5.16006e-05
-0.00110233
-5.7978e-05
-0.00109116
-6.42128e-05
-0.00107896
-7.02988e-05
-0.00106575
-7.62257e-05
-0.00105157
-8.19885e-05
-0.00103645
-8.7578e-05
-0.00102041
-9.29899e-05
-0.00100348
-9.8216e-05
-0.000985708
-0.00010325
-0.000967116
-0.000108087
-0.000947743
-0.000112722
-0.000927623
-0.000117148
-0.000906793
-0.000121361
-0.000885291
-0.000125356
-0.000863153
-0.000129131
-0.00084042
-0.000132679
-0.00081713
-0.000135998
-0.000793322
-0.000139085
-0.000769036
-0.000141935
-0.000744312
-0.00014455
-0.000719189
-0.000146926
-0.000693711
-0.000149059
-0.000667917
-0.000150948
-0.000641847
-0.000152593
-0.000615541
-0.000153992
-0.00058904
-0.000155143
-0.000562383
-0.000156047
-0.000535607
-0.000156702
-0.000508752
-0.000157111
-0.000481853
-0.000157275
-0.000454951
-0.00015719
-0.000428084
-0.000156866
-0.000401283
-0.0001563
-0.000374592
-0.000155497
-0.000348039
-0.000154462
-0.000321666
-0.000153198
-0.000295503
-0.000151709
-0.000269591
-0.000150001
-0.000243968
-0.000148079
-0.000218668
-0.000145953
-0.000193722
-0.00014363
-0.000169176
-0.000141113
-0.000145066
-0.000138417
-0.000121436
-0.000135545
-9.83298e-05
-0.000132504
-7.57834e-05
-0.000129309
-5.38451e-05
-0.000125953
-3.25493e-05
-0.000122449
-1.19302e-05
-0.000118795
7.9834e-06
-0.000114988
2.7183e-05
-0.000111057
4.5612e-05
-0.000106978
6.32482e-05
-0.00010275
8.00731e-05
-9.83916e-05
9.60427e-05
-9.38873e-05
0.000111162
-8.92792e-05
0.000125377
-8.45302e-05
0.000138686
-7.9666e-05
0.000151054
-7.46937e-05
0.000162454
-6.96035e-05
0.000172908
-6.44486e-05
0.000182382
-5.9171e-05
0.000190851
-5.38179e-05
0.00019833
-4.83803e-05
0.00020478
-4.28883e-05
0.000210255
-3.73329e-05
0.000214692
-3.17258e-05
0.000218155
-2.60941e-05
0.000220611
-2.04102e-05
0.000222073
-1.47283e-05
0.000222563
-9.06106e-06
0.000222093
-3.39616e-06
0.00022068
2.23018e-06
0.000218319
7.80484e-06
0.000215043
1.33204e-05
0.00021088
1.87372e-05
0.000205858
2.40637e-05
0.000200008
2.92719e-05
0.000193356
3.43494e-05
0.000185958
3.92667e-05
0.000177817
4.40308e-05
0.000168975
4.86054e-05
0.000159495
5.29671e-05
0.000149403
5.71002e-05
0.000138757
6.0976e-05
0.000127578
6.46231e-05
0.000115931
6.79204e-05
0.000103812
7.10913e-05
9.14098e-05
7.36041e-05
7.86024e-05
7.63769e-05
6.56351e-05
7.83479e-05
5.20793e-05
8.16599e-05
3.89958e-05
8.06492e-05
2.76312e-05
7.09107e-05
1.93687e-05
5.09399e-05
0.000116483
-4.42752e-05
0.000301647
-8.19229e-05
0.000256545
-0.000121924
0.000272789
-0.000162801
0.000278354
-0.00020326
0.000275604
-0.000243557
0.000274102
-0.000283421
0.000271321
-0.000323021
0.000269191
-0.000362152
0.000266056
-0.000400871
0.000262995
-0.000439057
0.000259331
-0.0004767
0.000255495
-0.000513727
0.000251249
-0.000550106
0.000246743
-0.000585779
0.000241911
-0.000620706
0.000236799
-0.000654838
0.000231401
-0.000688134
0.000225735
-0.000720555
0.00021981
-0.00075206
0.000213637
-0.000782609
0.000207225
-0.000812167
0.000200587
-0.0008407
0.000193734
-0.000868177
0.000186678
-0.000894567
0.000179428
-0.000919841
0.000171997
-0.000943973
0.000164396
-0.000966942
0.000156637
-0.000988725
0.000148732
-0.0010093
0.000140691
-0.00102866
0.000132528
-0.00104677
0.000124255
-0.00106363
0.000115883
-0.00107924
0.000107426
-0.00109356
9.88945e-05
-0.00110661
9.03016e-05
-0.00111838
8.16598e-05
-0.00112885
7.29823e-05
-0.00113804
6.42804e-05
-0.00114594
5.55673e-05
-0.00115254
4.68554e-05
-0.00115787
3.81575e-05
-0.00116191
2.9486e-05
-0.00116468
2.08528e-05
-0.00116618
1.22711e-05
-0.0011664
3.75669e-06
-0.00116539
-4.69378e-06
-0.00116316
-1.30615e-05
-0.00115971
-2.13323e-05
-0.00115505
-2.94959e-05
-0.00114921
-3.75418e-05
-0.0011422
-4.54596e-05
-0.00113405
-5.32399e-05
-0.00112478
-6.08716e-05
-0.00111441
-6.83468e-05
-0.00110297
-7.56549e-05
-0.00109048
-8.27866e-05
-0.00107697
-8.97332e-05
-0.00106248
-9.64853e-05
-0.00104702
-0.000103036
-0.00103063
-0.000109375
-0.00101335
-0.000115497
-0.000995208
-0.000121394
-0.000976236
-0.00012706
-0.00095647
-0.000132488
-0.000935948
-0.000137669
-0.000914707
-0.000142602
-0.000892783
-0.00014728
-0.000870217
-0.000151697
-0.000847046
-0.000155849
-0.000823311
-0.000159733
-0.000799051
-0.000163345
-0.000774305
-0.000166682
-0.000749116
-0.000169738
-0.000723527
-0.000172515
-0.000697576
-0.000175009
-0.000671306
-0.000177219
-0.000644757
-0.000179142
-0.000617971
-0.000180778
-0.000590988
-0.000182126
-0.000563848
-0.000183187
-0.00053659
-0.00018396
-0.000509256
-0.000184445
-0.000481883
-0.000184648
-0.000454511
-0.000184562
-0.000427179
-0.000184198
-0.000399923
-0.000183556
-0.000372781
-0.000182639
-0.000345794
-0.000181449
-0.000318995
-0.000179997
-0.000292426
-0.000178279
-0.000266117
-0.000176309
-0.000240105
-0.000174091
-0.000214428
-0.00017163
-0.000189125
-0.000168933
-0.000164227
-0.000166011
-0.000139779
-0.000162865
-0.000115814
-0.00015951
-9.23668e-05
-0.000155951
-6.9489e-05
-0.000152187
-4.72087e-05
-0.000148233
-2.55682e-05
-0.000144089
-4.61222e-06
-0.000139751
1.56372e-05
-0.000135238
3.51275e-05
-0.000130547
5.38354e-05
-0.000125686
7.17663e-05
-0.00012068
8.88547e-05
-0.00011548
0.000105108
-0.00011014
0.000120463
-0.000104634
0.000134938
-9.90055e-05
0.000148484
-9.32118e-05
0.000161102
-8.73119e-05
0.00017277
-8.12711e-05
0.000183464
-7.51433e-05
0.000193182
-6.88882e-05
0.000201885
-6.25207e-05
0.000209603
-5.60986e-05
0.000216288
-4.95735e-05
0.000221972
-4.30173e-05
0.000226627
-3.63805e-05
0.000230264
-2.97313e-05
0.0002329
-2.30455e-05
0.000234529
-1.63576e-05
0.000235122
-9.65435e-06
0.000234713
-2.98689e-06
0.00023332
3.62335e-06
0.000230943
1.0181e-05
0.000227628
1.66363e-05
0.000223377
2.29881e-05
0.000218215
2.9226e-05
0.000212169
3.53172e-05
0.000205268
4.12502e-05
0.000197544
4.69914e-05
0.000189035
5.25394e-05
0.000179776
5.78648e-05
0.000169813
6.293e-05
0.000159189
6.77246e-05
0.000147933
7.22318e-05
0.000136105
7.64506e-05
0.000123748
8.02777e-05
0.000110928
8.39109e-05
9.77196e-05
8.68129e-05
8.4082e-05
9.00145e-05
7.01572e-05
9.22727e-05
5.57337e-05
9.60833e-05
4.15214e-05
9.48615e-05
2.91624e-05
8.32698e-05
2.02687e-05
5.98336e-05
0.000136752
-4.50229e-05
0.00034667
-8.33697e-05
0.000294892
-0.000124078
0.000313498
-0.000165691
0.000319967
-0.000206887
0.0003168
-0.000247877
0.000315092
-0.000288444
0.000311889
-0.000328716
0.000309462
-0.000368516
0.000305857
-0.000407871
0.00030235
-0.000446683
0.000298143
-0.000484928
0.00029374
-0.000522539
0.000288861
-0.000559478
0.000283681
-0.000595693
0.000278126
-0.000631141
0.000272248
-0.000665776
0.000266036
-0.000699556
0.000259515
-0.000732438
0.000252691
-0.00076438
0.000245579
-0.000795347
0.000238192
-0.000825303
0.000230543
-0.000854215
0.000222645
-0.000882047
0.00021451
-0.00090877
0.000206151
-0.000934358
0.000197584
-0.000958784
0.000188822
-0.000982023
0.000179877
-0.00100406
0.000170763
-0.00102486
0.000161495
-0.00104442
0.000152088
-0.00106272
0.000142554
-0.00107974
0.000132908
-0.00109548
0.000123165
-0.00110992
0.000113338
-0.00112307
0.000103443
-0.0011349
9.34929e-05
-0.00114542
8.35026e-05
-0.00115463
7.34869e-05
-0.00116252
6.34598e-05
-0.0011691
5.34355e-05
-0.00117437
4.34286e-05
-0.00117834
3.34529e-05
-0.00118101
2.35227e-05
-0.00118239
1.36524e-05
-0.0011825
3.86658e-06
-0.00118133
-5.86226e-06
-0.00117891
-1.54853e-05
-0.00117524
-2.49948e-05
-0.00117036
-3.43784e-05
-0.00116427
-4.36275e-05
-0.001157
-5.27304e-05
-0.00114857
-6.1674e-05
-0.00113899
-7.04464e-05
-0.0011283
-7.90375e-05
-0.00111652
-8.74345e-05
-0.00110368
-9.56295e-05
-0.0010898
-0.00010361
-0.00107492
-0.000111368
-0.00105907
-0.000118892
-0.00104227
-0.000126175
-0.00102455
-0.000133208
-0.00100597
-0.00013998
-0.000986542
-0.000146487
-0.000966312
-0.000152718
-0.000945313
-0.000158668
-0.000923585
-0.000164329
-0.000901166
-0.000169699
-0.000878097
-0.000174767
-0.000854414
-0.000179531
-0.00083016
-0.000183987
-0.000805376
-0.00018813
-0.000780102
-0.000191956
-0.000754381
-0.00019546
-0.000728253
-0.000198643
-0.000701761
-0.000201501
-0.000674948
-0.000204032
-0.000647854
-0.000206235
-0.000620522
-0.000208111
-0.000592992
-0.000209655
-0.000565307
-0.000210872
-0.000537508
-0.000211759
-0.000509634
-0.000212319
-0.000481726
-0.000212556
-0.000453822
-0.000212466
-0.000425963
-0.000212057
-0.000398188
-0.000211331
-0.000370536
-0.000210291
-0.000343043
-0.000208942
-0.000315749
-0.00020729
-0.000288689
-0.000205339
-0.000261905
-0.000203094
-0.000235433
-0.000200563
-0.00020931
-0.000197753
-0.000183573
-0.00019467
-0.00015826
-0.000191323
-0.000133411
-0.000187714
-0.000109066
-0.000183855
-8.52625e-05
-0.000179754
-6.20341e-05
-0.000175415
-3.94242e-05
-0.000170843
-1.74639e-05
-0.00016605
3.79782e-06
-0.000161013
2.43558e-05
-0.000155795
4.4164e-05
-0.000150355
6.32028e-05
-0.000144724
8.14074e-05
-0.000138885
9.88027e-05
-0.000132875
0.00011532
-0.000126658
0.00013098
-0.000120295
0.000145701
-0.000113726
0.000159531
-0.000107042
0.000172381
-0.000100162
0.000184267
-9.31569e-05
0.000195145
-8.6022e-05
0.000205045
-7.87878e-05
0.00021396
-7.1436e-05
0.000221811
-6.39497e-05
0.000228659
-5.64213e-05
0.000234459
-4.88178e-05
0.000239221
-4.11422e-05
0.000242927
-3.34367e-05
0.000245586
-2.57048e-05
0.000247203
-1.79745e-05
0.000247791
-1.02422e-05