/*--------------------------------*- C++ -*----------------------------------*\
| =========                 |                                                 |
| \\      /  F ield         | OpenFOAM: The Open Source CFD Toolbox           |
|  \\    /   O peration     | Version:  v2006                                 |
|   \\  /    A nd           | Website:  www.openfoam.com                      |
|    \\/     M anipulation  |                                                 |
\*---------------------------------------------------------------------------*/
FoamFile
{
    version     2.0;
    format      ascii;
    class       surfaceScalarField;
    location    "18.3";
    object      alphaPhi0.water;
}
// * * * * * * * * * * * * * * * * * * * * * * * * * * * * * * * * * * * * * //

dimensions      [0 3 -1 0 0 0 0];
oriented        oriented;


internalField   nonuniform List<scalar> 
104500
(
-2.00425e-06
2.00425e-06
1.92464e-06
-3.92889e-06
4.83285e-06
-2.9082e-06
6.79584e-06
-1.96299e-06
8.462e-06
-1.66616e-06
9.96111e-06
-1.49911e-06
1.1365e-05
-1.4039e-06
1.26612e-05
-1.29621e-06
1.38035e-05
-1.14223e-06
1.47416e-05
-9.38185e-07
1.54385e-05
-6.96858e-07
1.58668e-05
-4.28293e-07
1.6002e-05
-1.352e-07
1.58721e-05
1.29865e-07
1.54507e-05
4.21457e-07
1.47197e-05
7.3096e-07
1.36738e-05
1.04591e-06
1.23011e-05
1.37274e-06
1.05959e-05
1.70513e-06
8.55091e-06
2.04501e-06
6.15925e-06
2.39167e-06
3.41431e-06
2.74493e-06
3.09353e-07
3.10496e-06
-3.16261e-06
3.47196e-06
-7.00928e-06
3.84667e-06
-1.12408e-05
4.23152e-06
-1.58705e-05
4.62967e-06
-2.09138e-05
5.04335e-06
-2.6387e-05
5.47317e-06
-3.23054e-05
5.91839e-06
-3.86828e-05
6.37737e-06
-4.55315e-05
6.84877e-06
-5.28656e-05
7.33411e-06
-6.07048e-05
7.83919e-06
-6.90776e-05
8.3728e-06
-7.80217e-05
8.94408e-06
-8.75812e-05
9.55944e-06
-9.78023e-05
1.02212e-05
-0.000108731
1.0929e-05
-0.000120416
1.16849e-05
-0.000132914
1.24978e-05
-0.0001463
1.33861e-05
-0.000160673
1.4373e-05
-0.000176149
1.54753e-05
-0.000192839
1.66906e-05
-0.000210826
1.79866e-05
-0.000230129
1.93033e-05
-0.000250694
2.05648e-05
-0.00027239
2.16964e-05
-0.000295038
2.26475e-05
-0.000318441
2.34038e-05
-0.000342423
2.39817e-05
-0.000366838
2.44147e-05
-0.000391577
2.4739e-05
-0.000416562
2.49852e-05
-0.000441737
2.51745e-05
-0.000467055
2.53184e-05
-0.000492474
2.54192e-05
-0.000517947
2.54733e-05
-0.000543422
2.54745e-05
-0.000568841
2.54187e-05
-0.000594146
2.53055e-05
-0.000619285
2.51393e-05
-0.000644212
2.4927e-05
-0.000668889
2.46763e-05
-0.000693282
2.43937e-05
-0.000717366
2.40835e-05
-0.000741114
2.37482e-05
-0.000764503
2.33886e-05
-0.000787508
2.30055e-05
-0.000810108
2.26e-05
-0.000832283
2.21748e-05
-0.000854017
2.17338e-05
-0.000875299
2.12818e-05
-0.000896123
2.08244e-05
-0.00091649
2.0367e-05
-0.000936404
1.99145e-05
-0.000955875
1.94708e-05
-0.000974914
1.90389e-05
-0.000993535
1.86204e-05
-0.00101175
1.82163e-05
-0.00102958
1.78269e-05
-0.00104703
1.74518e-05
-0.00106412
1.70897e-05
-0.00108086
1.67384e-05
-0.00109725
1.63948e-05
-0.00111331
1.60552e-05
-0.00112902
1.57156e-05
-0.0011444
1.53724e-05
-0.00115942
1.50225e-05
-0.00117408
1.46644e-05
-0.00118838
1.43004e-05
-0.00120232
1.39366e-05
-0.0012159
1.35816e-05
-0.00122915
1.32442e-05
-0.00124208
1.29298e-05
-0.00125471
1.26394e-05
-0.00126708
1.23698e-05
-0.0012792
1.21152e-05
-0.00129107
1.18692e-05
-0.00130269
1.16259e-05
-0.00131408
1.1381e-05
-0.00132521
1.11311e-05
-0.00133608
1.08743e-05
-0.00134669
1.06092e-05
-0.00135703
1.0335e-05
-0.00136708
1.00517e-05
-0.00137684
9.75952e-06
-0.00138629
9.45791e-06
-0.00139544
9.14686e-06
-0.00140427
8.82715e-06
-0.00141277
8.49978e-06
-0.00142093
8.16579e-06
-0.00142876
7.82622e-06
-0.00143624
7.48212e-06
-0.00144338
7.13451e-06
-0.00145016
6.78441e-06
-0.00145659
6.4329e-06
-0.00146268
6.08115e-06
-0.00146841
5.73044e-06
-0.00147379
5.38217e-06
-0.00147883
5.03781e-06
-0.00148352
4.69839e-06
-0.00148789
4.36458e-06
-0.00149193
4.03726e-06
-0.00149562
3.69898e-06
-0.00149897
3.34966e-06
-0.00150196
2.98213e-06
-0.00150455
2.59083e-06
-0.00150672
2.17143e-06
-0.00150844
1.72209e-06
-0.00150969
1.2458e-06
-0.00151043
7.48036e-07
-0.00151067
2.30557e-07
-0.00151037
-2.9912e-07
-0.00150961
-7.56754e-07
-0.00150841
-1.1988e-06
-0.0015068
-1.60634e-06
-0.00150483
-1.97583e-06
-0.00150252
-2.30734e-06
-0.00149992
-2.60463e-06
-0.00149704
-2.8717e-06
-0.00149394
-3.10628e-06
-0.00149064
-3.2961e-06
-0.00148722
-3.41859e-06
-0.00148378
-3.44389e-06
-0.00148044
-3.34286e-06
-0.00147734
-3.09461e-06
-0.00147465
-2.68781e-06
-0.00147252
-2.12992e-06
-0.00147108
-1.44758e-06
-0.00147041
-6.70952e-07
-0.00147057
1.64546e-07
-0.00147153
9.63146e-07
-0.00147326
1.72988e-06
-0.00147566
2.39607e-06
-0.00147858
2.91516e-06
-0.0014817
3.12089e-06
-0.00148453
2.82955e-06
-0.00148632
1.79818e-06
-0.00148628
-3.96745e-08
-0.00148408
-2.19994e-06
-0.00147961
-4.47039e-06
-0.00147298
-6.62871e-06
-0.00146441
-8.57242e-06
-0.00145416
-1.0256e-05
-0.00144248
-1.16806e-05
-0.0014296
-1.28759e-05
-0.00141571
-1.38856e-05
-0.00140096
-1.47562e-05
-0.00138543
-1.55303e-05
-0.00136918
-1.62432e-05
-0.00135226
-1.69213e-05
-0.00133468
-1.75826e-05
-0.00131644
-1.82381e-05
-0.00129755
-1.88923e-05
-0.00127801
-1.95451e-05
-0.00125781
-2.01925e-05
-0.00123699
-2.08274e-05
-0.00121554
-2.14409e-05
-0.00119352
-2.20225e-05
-0.00117096
-2.25615e-05
-0.00114791
-2.30477e-05
-0.00112444
-2.34725e-05
-0.00110061
-2.38294e-05
-0.0010765
-2.41145e-05
-0.00105217
-2.43267e-05
-0.0010277
-2.44676e-05
-0.00100316
-2.45407e-05
-0.00097861
-2.45514e-05
-0.000954104
-2.45061e-05
-0.000929692
-2.44117e-05
-0.000905416
-2.42758e-05
-0.000881311
-2.41056e-05
-0.000857402
-2.39087e-05
-0.00083371
-2.36921e-05
-0.000810248
-2.34624e-05
-0.000787022
-2.32256e-05
-0.000764036
-2.29864e-05
-0.000741287
-2.27482e-05
-0.000718775
-2.25124e-05
-0.000696496
-2.22788e-05
-0.000674451
-2.20454e-05
-0.000652642
-2.18089e-05
-0.000631077
-2.15651e-05
-0.000609767
-2.13098e-05
-0.000588728
-2.10391e-05
-0.000567978
-2.07495e-05
-0.000547539
-2.04389e-05
-0.000527433
-2.01059e-05
-0.000507683
-1.97501e-05
-0.000488312
-1.93715e-05
-0.000469341
-1.89706e-05
-0.000450793
-1.85485e-05
-0.000432687
-1.81062e-05
-0.000415042
-1.76447e-05
-0.000397877
-1.71653e-05
-0.000381207
-1.66692e-05
-0.00036505
-1.61576e-05
-0.000349418
-1.56317e-05
-0.000334325
-1.5093e-05
-0.000319782
-1.45431e-05
-0.000305799
-1.39835e-05
-0.000292382
-1.34161e-05
-0.00027954
-1.28426e-05
-0.000267275
-1.22648e-05
-0.000255591
-1.16845e-05
-0.000244487
-1.11035e-05
-0.000233964
-1.05233e-05
-0.000224018
-9.94553e-06
-0.000214647
-9.37153e-06
-0.000205844
-8.80264e-06
-0.000197604
-8.24001e-06
-0.000189919
-7.6846e-06
-0.000182782
-7.13718e-06
-0.000176184
-6.59828e-06
-0.000170116
-6.06821e-06
-0.000164569
-5.54698e-06
-0.000159534
-5.03433e-06
-0.000155005
-4.5296e-06
-0.000150973
-4.03163e-06
-0.000147435
-3.53867e-06
-0.000144386
-3.04818e-06
-0.00014183
-2.5568e-06
-0.000139769
-2.06027e-06
-0.000138216
-1.55334e-06
-0.000137186
-1.02999e-06
-0.000136705
-4.81261e-07
-0.000136804
9.89479e-08
-0.000137552
7.48672e-07
-0.000139012
1.46013e-06
-0.000141294
2.28174e-06
-0.000144487
3.19322e-06
-0.00014867
4.18292e-06
-0.000153891
5.22028e-06
-0.000160143
6.25254e-06
-0.000167383
7.23998e-06
-0.000175556
8.17334e-06
-0.00018461
9.05312e-06
-0.000194517
9.90759e-06
-0.00020529
1.07724e-05
-0.000216959
1.16695e-05
-0.00022958
1.26211e-05
-0.000243218
1.36379e-05
-0.000257939
1.47213e-05
-0.000273808
1.58686e-05
-0.000290881
1.70727e-05
-0.000309195
1.83144e-05
-0.000328769
1.95735e-05
-0.000349555
2.07862e-05
-0.000371489
2.19343e-05
-0.000394422
2.2933e-05
-0.000418159
2.37372e-05
-0.000442531
2.43711e-05
-0.000467459
2.49281e-05
-0.00049299
2.55311e-05
-0.000519271
2.62809e-05
-0.000546396
2.71255e-05
-0.000574171
2.77752e-05
-0.000600884
2.67125e-05
-0.000623817
2.29329e-05
-0.00064012
1.63029e-05
-0.000648329
8.20954e-06
-0.000648782
4.5303e-07
-0.000643778
-5.00382e-06
-0.000634936
-8.84197e-06
-0.00062365
-1.12867e-05
-0.000611043
-1.26063e-05
-0.000597836
-1.32073e-05
-0.000584557
-1.32789e-05
-0.000571553
-1.30039e-05
-0.000558976
-1.25775e-05
-0.000546903
-1.20733e-05
-0.000535356
-1.15467e-05
-0.000524305
-1.10504e-05
-0.000513686
-1.06195e-05
-0.000503407
-1.02793e-05
-0.000493363
-1.00441e-05
-0.000483454
-9.90879e-06
-0.000473585
-9.86883e-06
-0.000463689
-9.89604e-06
-0.000453713
-9.9757e-06
-0.000443619
-1.00943e-05
-0.000433402
-1.02169e-05
-0.000423079
-1.03229e-05
-0.00041268
-1.0399e-05
-0.000402248
-1.04321e-05
-0.000391824
-1.04242e-05
-0.000381436
-1.03876e-05
-0.000371107
-1.0329e-05
-0.000360843
-1.02646e-05
-0.000350636
-1.02068e-05
-0.000340475
-1.0161e-05
-0.000330352
-1.01232e-05
-0.000320268
-1.00841e-05
-0.000310217
-1.00511e-05
-0.000300212
-1.00044e-05
-0.000290264
-9.94779e-06
-0.000280385
-9.87977e-06
-0.000270585
-9.79945e-06
-0.00026088
-9.70509e-06
-0.000251285
-9.59507e-06
-0.000241817
-9.46771e-06
-0.000232489
-9.32851e-06
-0.000223314
-9.17503e-06
-0.000214303
-9.01061e-06
-0.000205463
-8.83982e-06
-0.000196798
-8.66563e-06
-0.000188312
-8.48593e-06
-0.000180002
-8.30934e-06
-0.000171862
-8.14021e-06
-0.000163876
-7.98589e-06
-0.000156022
-7.85428e-06
-0.000148272
-7.75011e-06
-0.000140594
-7.67781e-06
-0.000132934
-7.65971e-06
-0.000125233
-7.70106e-06
-0.000117434
-7.79904e-06
-0.000109477
-7.95763e-06
-0.000101297
-8.17985e-06
-9.28386e-05
-8.45828e-06
-8.40458e-05
-8.79283e-06
-7.48498e-05
-9.196e-06
-6.51574e-05
-9.69237e-06
-5.48617e-05
-1.02957e-05
-4.38408e-05
-1.10209e-05
-3.21e-05
-1.17408e-05
-1.91385e-05
-1.29615e-05
-5.46753e-06
-1.36709e-05
-5.46753e-06
-2.34357e-05
2.54399e-05
-4.71483e-05
1.97838e-05
-7.2661e-05
2.26045e-05
-9.783e-05
2.3206e-05
-0.000122672
2.3176e-05
-0.00014748
2.33087e-05
-0.000172341
2.34567e-05
-0.000197228
2.35911e-05
-0.000222085
2.3715e-05
-0.000246854
2.38303e-05
-0.000271484
2.39339e-05
-0.000295933
2.40201e-05
-0.000320149
2.40813e-05
-0.000344127
2.41072e-05
-0.000367806
2.41008e-05
-0.000391138
2.4063e-05
-0.000414086
2.39944e-05
-0.000436613
2.38996e-05
-0.000458692
2.37839e-05
-0.000480303
2.3656e-05
-0.000501437
2.3526e-05
-0.000522098
2.34057e-05
-0.000542301
2.33077e-05
-0.000562073
2.32444e-05
-0.000581453
2.32261e-05
-0.000600482
2.32606e-05
-0.000619206
2.3354e-05
-0.000637672
2.35094e-05
-0.000655927
2.37278e-05
-0.000674015
2.40067e-05
-0.000691978
2.434e-05
-0.000709848
2.47189e-05
-0.000727649
2.51351e-05
-0.000745395
2.55849e-05
-0.000763094
2.60724e-05
-0.000780761
2.66109e-05
-0.000798421
2.72196e-05
-0.00081612
2.79199e-05
-0.000833922
2.87315e-05
-0.000851908
2.96708e-05
-0.000870161
3.07508e-05
-0.000888755
3.19803e-05
-0.000907742
3.336e-05
-0.000927144
3.48765e-05
-0.00094695
3.64965e-05
-0.000967129
3.81657e-05
-0.000987641
3.98155e-05
-0.00100845
4.13783e-05
-0.00102953
4.27718e-05
-0.00105083
4.39451e-05
-0.00107231
4.48913e-05
-0.00109396
4.56264e-05
-0.00111573
4.61806e-05
-0.00113758
4.65884e-05
-0.00115947
4.68812e-05
-0.00118138
4.70822e-05
-0.00120327
4.72054e-05
-0.0012251
4.72567e-05
-0.00124687
4.72372e-05
-0.00126854
4.71462e-05
-0.00129011
4.6985e-05
-0.00131156
4.67579e-05
-0.00133289
4.64721e-05
-0.0013541
4.61368e-05
-0.00137519
4.57612e-05
-0.00139614
4.53529e-05
-0.00141698
4.49173e-05
-0.00143769
4.44574e-05
-0.00145827
4.39747e-05
-0.00147874
4.34697e-05
-0.00149908
4.29432e-05
-0.0015193
4.23966e-05
-0.0015394
4.1832e-05
-0.00155937
4.12524e-05
-0.00157921
4.06611e-05
-0.0015989
4.00612e-05
-0.00161844
3.94551e-05
-0.00163782
3.88445e-05
-0.00165701
3.82291e-05
-0.00167599
3.76076e-05
-0.00169475
3.69771e-05
-0.00171326
3.63335e-05
-0.00173148
3.56721e-05
-0.00174938
3.49882e-05
-0.00176692
3.42783e-05
-0.00178407
3.35414e-05
-0.00180079
3.27795e-05
-0.00181707
3.19972e-05
-0.0018329
3.12007e-05
-0.00184828
3.03971e-05
-0.0018632
2.95931e-05
-0.0018777
2.87949e-05
-0.00189177
2.80082e-05
-0.00190543
2.7237e-05
-0.00191866
2.6483e-05
-0.00193148
2.57452e-05
-0.00194386
2.50196e-05
-0.00195579
2.43009e-05
-0.00196726
2.35829e-05
-0.00197825
2.28599e-05
-0.00198875
2.21271e-05
-0.00199875
2.1381e-05
-0.00200824
2.06189e-05
-0.0020172
1.98393e-05
-0.00202564
1.90413e-05
-0.00203353
1.82243e-05
-0.00204086
1.73884e-05
-0.00204764
1.65339e-05
-0.00205384
1.56613e-05
-0.00205946
1.47712e-05
-0.0020645
1.38643e-05
-0.00206894
1.29414e-05
-0.00207278
1.20031e-05
-0.002076
1.10498e-05
-0.0020786
1.00819e-05
-0.00208057
9.09941e-06
-0.00208189
8.10232e-06
-0.00208254
7.09054e-06
-0.00208253
6.06412e-06
-0.00208182
5.02315e-06
-0.00208041
3.96833e-06
-0.00207827
2.90142e-06
-0.00207539
1.82292e-06
-0.00207176
7.3406e-07
-0.00206742
-3.09352e-07
-0.0020623
-1.4184e-06
-0.00205643
-2.5154e-06
-0.00204983
-3.6244e-06
-0.00204252
-4.71901e-06
-0.00203453
-5.81362e-06
-0.00202592
-6.89357e-06
-0.00201672
-7.95443e-06
-0.00200698
-8.99009e-06
-0.00199675
-9.99474e-06
-0.00198609
-1.09596e-05
-0.00197498
-1.18741e-05
-0.00196343
-1.27434e-05
-0.00195147
-1.35665e-05
-0.00193911
-1.43403e-05
-0.00192635
-1.50599e-05
-0.00191324
-1.57178e-05
-0.00189981
-1.6304e-05
-0.00188611
-1.68067e-05
-0.00187219
-1.72145e-05
-0.00185809
-1.75198e-05
-0.00184381
-1.77223e-05
-0.00182932
-1.78332e-05
-0.00181454
-1.78767e-05
-0.00179934
-1.78887e-05
-0.00178355
-1.79197e-05
-0.00176697
-1.80223e-05
-0.0017494
-1.82432e-05
-0.0017306
-1.86321e-05
-0.0017104
-1.92404e-05
-0.00168858
-2.00927e-05
-0.00166501
-2.11724e-05
-0.00163965
-2.24429e-05
-0.00161264
-2.3887e-05
-0.00158434
-2.54689e-05
-0.00155542
-2.71218e-05
-0.0015267
-2.87596e-05
-0.00149857
-3.03365e-05
-0.00147119
-3.18512e-05
-0.00144455
-3.32658e-05
-0.00141856
-3.456e-05
-0.00139309
-3.57322e-05
-0.00136797
-3.67938e-05
-0.00134309
-3.77633e-05
-0.00131831
-3.86615e-05
-0.00129356
-3.95075e-05
-0.00126877
-4.03162e-05
-0.00124392
-4.10981e-05
-0.00121898
-4.18589e-05
-0.00119396
-4.26003e-05
-0.00116888
-4.33211e-05
-0.00114375
-4.40172e-05
-0.00111862
-4.46832e-05
-0.0010935
-4.53122e-05
-0.00106843
-4.5897e-05
-0.00104344
-4.64299e-05
-0.00101856
-4.69038e-05
-0.000993805
-4.73123e-05
-0.000969202
-4.76508e-05
-0.000944758
-4.79168e-05
-0.000920477
-4.81103e-05
-0.000896357
-4.82342e-05
-0.000872391
-4.82934e-05
-0.000848563
-4.82952e-05
-0.000824856
-4.82477e-05
-0.000801248
-4.81596e-05
-0.000777715
-4.80387e-05
-0.000754236
-4.78915e-05
-0.000730789
-4.77224e-05
-0.000707361
-4.75339e-05
-0.000683943
-4.73262e-05
-0.000660537
-4.70979e-05
-0.000637154
-4.68461e-05
-0.000613812
-4.65673e-05
-0.000590541
-4.62575e-05
-0.000567376
-4.59129e-05
-0.000544359
-4.55297e-05
-0.000521533
-4.5105e-05
-0.000498942
-4.46366e-05
-0.000476627
-4.4123e-05
-0.000454628
-4.3564e-05
-0.000432978
-4.29601e-05
-0.000411705
-4.23126e-05
-0.000390831
-4.16234e-05
-0.000370375
-4.08947e-05
-0.000350352
-4.01287e-05
-0.000330775
-3.93272e-05
-0.000311655
-3.84917e-05
-0.000293002
-3.76233e-05
-0.000274828
-3.67225e-05
-0.000257145
-3.57898e-05
-0.000239964
-3.48256e-05
-0.000223299
-3.38303e-05
-0.000207163
-3.28047e-05
-0.000191571
-3.17502e-05
-0.000176534
-3.06684e-05
-0.000162065
-2.95616e-05
-0.000148176
-2.84325e-05
-0.000134875
-2.7284e-05
-0.000122172
-2.61195e-05
-0.000110072
-2.49421e-05
-9.85819e-05
-2.37553e-05
-8.7704e-05
-2.25624e-05
-7.74407e-05
-2.13668e-05
-6.77924e-05
-2.01716e-05
-5.87579e-05
-1.898e-05
-5.03344e-05
-1.7795e-05
-4.25176e-05
-1.66194e-05
-3.53016e-05
-1.5456e-05
-2.86791e-05
-1.43071e-05
-2.26413e-05
-1.3175e-05
-1.71778e-05
-1.20617e-05
-1.22773e-05
-1.09687e-05
-7.92689e-06
-9.89738e-06
-4.11268e-06
-8.84854e-06
-8.19597e-07
-7.82268e-06
1.96845e-06
-6.81968e-06
4.2687e-06
-5.83892e-06
6.09962e-06
-4.8791e-06
7.48095e-06
-3.93813e-06
8.434e-06
-3.01332e-06
8.98135e-06
-2.10069e-06
9.14551e-06
-1.19415e-06
8.95257e-06
-2.88318e-07
8.49012e-06
5.61394e-07
7.74914e-06
1.48965e-06
6.82601e-06
2.38327e-06
5.85685e-06
3.25089e-06
4.91345e-06
4.13662e-06
4.09814e-06
4.99824e-06
3.48013e-06
5.83828e-06
3.07377e-06
6.6589e-06
2.85028e-06
7.46348e-06
2.7609e-06
8.26272e-06
2.72399e-06
9.09003e-06
2.66284e-06
9.96875e-06
2.52174e-06
1.09135e-05
2.25291e-06
1.19384e-05
1.80454e-06
1.30695e-05
1.13096e-06
1.43115e-05
1.79173e-07
1.56731e-05
-1.10362e-06
1.71514e-05
-2.7812e-06
1.87503e-05
-4.9151e-06
2.04483e-05
-7.54902e-06
2.22074e-05
-1.07696e-05
2.40069e-05
-1.45706e-05
2.57352e-05
-1.89888e-05
2.73513e-05
-2.40226e-05
2.8771e-05
-2.95603e-05
2.99088e-05
-3.53145e-05
3.06823e-05
-4.07625e-05
3.09792e-05
-4.51182e-05
3.06366e-05
-4.72911e-05
2.92984e-05
-4.64104e-05
2.68944e-05
-4.28583e-05
2.31604e-05
-3.76947e-05
1.77693e-05
-3.26012e-05
1.12094e-05
-2.90524e-05
4.66067e-06
-2.72068e-05
-1.39254e-06
-2.52465e-05
-6.96408e-06
-2.27213e-05
-1.13672e-05
-1.9243e-05
-1.47651e-05
-1.43549e-05
-1.74944e-05
-7.84877e-06
-1.97134e-05
3.41387e-07
-2.14691e-05
1.00348e-05
-2.26973e-05
2.09111e-05
-2.34538e-05
3.24717e-05
-2.36339e-05
4.41938e-05
-2.32688e-05
5.56488e-05
-2.25054e-05
6.65523e-05
-2.15229e-05
7.67129e-05
-2.04399e-05
8.6037e-05
-1.93682e-05
9.45143e-05
-1.83861e-05
0.000102186
-1.75408e-05
0.000109139
-1.68488e-05
0.000115482
-1.63187e-05
0.000121347
-1.59591e-05
0.000126883
-1.5753e-05
0.000132223
-1.56629e-05
0.000137461
-1.56374e-05
0.000142653
-1.56236e-05
0.0001478
-1.55715e-05
0.000152864
-1.54516e-05
0.00015779
-1.52549e-05
0.000162517
-1.49917e-05
0.000166996
-1.46852e-05
0.000171194
-1.4359e-05
0.000175104
-1.40337e-05
0.000178744
-1.37238e-05
0.000182135
-1.34416e-05
0.000185306
-1.31762e-05
0.00018828
-1.29216e-05
0.00019107
-1.26695e-05
0.000193667
-1.2397e-05
0.000196062
-1.20998e-05
0.000198229
-1.17619e-05
0.000200142
-1.13806e-05
0.000201767
-1.09543e-05
0.000203072
-1.04793e-05
0.000203994
-9.93294e-06
0.000204489
-9.33475e-06
0.00020449
-8.6667e-06
0.000203929
-7.92475e-06
0.000202729
-7.10943e-06
0.0002008
-6.21152e-06
0.000198048
-5.23408e-06
0.000194381
-4.18685e-06
0.000189711
-3.0799e-06
0.000183956
-1.92317e-06
0.000177047
-7.50797e-07
0.000168961
3.85016e-07
0.000159718
1.44396e-06
0.000149368
2.39262e-06
0.000138001
3.18685e-06
0.000125751
3.79173e-06
0.000112775
4.18342e-06
9.9237e-05
4.34202e-06
8.52837e-05
4.2609e-06
7.10244e-05
3.96352e-06
5.64583e-05
3.54523e-06
4.14701e-05
3.24741e-06
2.6069e-05
2.43964e-06
1.2532e-05
-1.34033e-07
7.06451e-06
-3.10679e-05
5.65078e-05
-6.0959e-05
4.9675e-05
-9.31314e-05
5.47768e-05
-0.000125555
5.56298e-05
-0.00015773
5.53507e-05
-0.000189647
5.52257e-05
-0.00022126
5.50694e-05
-0.000252478
5.48095e-05
-0.000283222
5.44587e-05
-0.000313417
5.4026e-05
-0.000342996
5.35124e-05
-0.000371894
5.29181e-05
-0.000400056
5.22433e-05
-0.000427439
5.14904e-05
-0.000454005
5.06666e-05
-0.000479725
4.97828e-05
-0.000504584
4.88541e-05
-0.000528584
4.7899e-05
-0.000551739
4.6939e-05
-0.000574082
4.59985e-05
-0.000595659
4.51038e-05
-0.000616535
4.4281e-05
-0.000636779
4.35522e-05
-0.000656467
4.29327e-05
-0.000675671
4.24296e-05
-0.000694454
4.20434e-05
-0.00071287
4.17705e-05
-0.000730967
4.16062e-05
-0.000748785
4.15458e-05
-0.000766363
4.15845e-05
-0.000783738
4.17154e-05
-0.000800948
4.19289e-05
-0.000818026
4.22132e-05
-0.000834999
4.25574e-05
-0.000851882
4.29557e-05
-0.000868681
4.34101e-05
-0.000885394
4.39319e-05
-0.000902013
4.45391e-05
-0.000918534
4.52526e-05
-0.000934955
4.60921e-05
-0.000951276
4.70715e-05
-0.00096749
4.81948e-05
-0.000983583
4.94522e-05
-0.000999523
5.0817e-05
-0.00101527
5.22459e-05
-0.00103079
5.3683e-05
-0.00104604
5.50688e-05
-0.00106102
5.63515e-05
-0.00107574
5.74935e-05
-0.00109027
5.84737e-05
-0.00110467
5.92916e-05
-0.001119
5.99619e-05
-0.00113333
6.0507e-05
-0.00114769
6.09494e-05
-0.00116211
6.13063e-05
-0.00117662
6.15876e-05
-0.00119121
6.17968e-05
-0.00120589
6.19336e-05
-0.00122065
6.19976e-05
-0.00123549
6.19903e-05
-0.00125042
6.19165e-05
-0.00126545
6.17836e-05
-0.00128058
6.16005e-05
-0.00129582
6.13759e-05
-0.00131117
6.11167e-05
-0.00132665
6.08271e-05
-0.00134224
6.0509e-05
-0.00135794
6.01619e-05
-0.00137375
5.97844e-05
-0.00138966
5.93746e-05
-0.00140565
5.89313e-05
-0.0014217
5.84542e-05
-0.00143782
5.79437e-05
-0.00145396
5.74009e-05
-0.00147013
5.68271e-05
-0.00148629
5.62232e-05
-0.00150243
5.55898e-05
-0.00151851
5.49266e-05
-0.00153451
5.42326e-05
-0.00155041
5.35063e-05
-0.00156618
5.27455e-05
-0.00158179
5.19477e-05
-0.00159723
5.11107e-05
-0.00161248
5.02325e-05
-0.00162751
4.93129e-05
-0.00164232
4.83539e-05
-0.0016569
4.73603e-05
-0.00167125
4.63388e-05
-0.00168534
4.52969e-05
-0.00169919
4.42412e-05
-0.00171277
4.3177e-05
-0.00172608
4.21076e-05
-0.00173911
4.10343e-05
-0.00175183
3.99569e-05
-0.00176422
3.8873e-05
-0.00177625
3.77794e-05
-0.00178791
3.66721e-05
-0.00179915
3.55474e-05
-0.00180997
3.44022e-05
-0.00182035
3.32345e-05
-0.00183026
3.20425e-05
-0.00183971
3.08256e-05
-0.00184867
2.95832e-05
-0.00185715
2.83152e-05
-0.00186513
2.70219e-05
-0.00187261
2.57035e-05
-0.00187958
2.43607e-05
-0.00188604
2.29941e-05
-0.00189198
2.16044e-05
-0.0018974
2.01925e-05
-0.0019023
1.8759e-05
-0.00190666
1.73047e-05
-0.00191049
1.58305e-05
-0.00191378
1.4337e-05
-0.00191652
1.28252e-05
-0.00191872
1.12964e-05
-0.00192037
9.75195e-06
-0.00192147
8.19419e-06
-0.00192203
6.6259e-06
-0.00192206
5.05055e-06
-0.00192156
3.47214e-06
-0.00192056
1.89512e-06
-0.00191906
3.2456e-07
-0.00191709
-1.23419e-06
-0.00191462
-2.77732e-06
-0.00191172
-4.31739e-06
-0.00190839
-5.85145e-06
-0.00190465
-7.36206e-06
-0.00190049
-8.87532e-06
-0.00189595
-1.03603e-05
-0.001891
-1.18363e-05
-0.00188566
-1.32963e-05
-0.00187992
-1.4728e-05
-0.00187378
-1.6133e-05
-0.00186723
-1.75127e-05
-0.00186025
-1.88601e-05
-0.00185281
-2.01752e-05
-0.00184492
-2.1459e-05
-0.00183655
-2.2708e-05
-0.00182769
-2.39188e-05
-0.00181833
-2.5085e-05
-0.00180843
-2.61975e-05
-0.00179799
-2.7248e-05
-0.00178698
-2.82305e-05
-0.00177535
-2.91429e-05
-0.00176309
-2.99904e-05
-0.00175013
-3.07868e-05
-0.00173646
-3.15514e-05
-0.00172204
-3.23095e-05
-0.00170686
-3.30928e-05
-0.00169095
-3.39354e-05
-0.00167433
-3.48683e-05
-0.00165704
-3.5916e-05
-0.00163919
-3.70955e-05
-0.00162086
-3.84203e-05
-0.00160214
-3.98916e-05
-0.00158309
-4.14952e-05
-0.00156378
-4.31968e-05
-0.00154431
-4.49325e-05
-0.00152481
-4.66234e-05
-0.00150534
-4.8227e-05
-0.00148592
-4.97647e-05
-0.0014665
-5.12656e-05
-0.00144704
-5.27285e-05
-0.00142745
-5.4146e-05
-0.00140767
-5.55134e-05
-0.00138764
-5.68291e-05
-0.00136731
-5.80933e-05
-0.00134666
-5.93077e-05
-0.00132569
-6.04743e-05
-0.00130441
-6.15951e-05
-0.00128284
-6.26711e-05
-0.001261
-6.3703e-05
-0.00123891
-6.46901e-05
-0.0012166
-6.56311e-05
-0.00119409
-6.65235e-05
-0.00117141
-6.73643e-05
-0.00114857
-6.81496e-05
-0.0011256
-6.88751e-05
-0.00110249
-6.95363e-05
-0.00107926
-7.01289e-05
-0.00105593
-7.0649e-05
-0.00103248
-7.10938e-05
-0.00100894
-7.14617e-05
-0.000985296
-7.1753e-05
-0.000961561
-7.19696e-05
-0.000937739
-7.21153e-05
-0.000913839
-7.21955e-05
-0.00088987
-7.22162e-05
-0.000865846
-7.21838e-05
-0.000841781
-7.21041e-05
-0.000817691
-7.19817e-05
-0.000793593
-7.18197e-05
-0.000769508
-7.1619e-05
-0.000745456
-7.13788e-05
-0.000721457
-7.10966e-05
-0.000697535
-7.07687e-05
-0.000673712
-7.03904e-05
-0.000650012
-6.99569e-05
-0.000626462
-6.94634e-05
-0.000603086
-6.89055e-05
-0.000579911
-6.828e-05
-0.000556963
-6.75844e-05
-0.000534268
-6.68177e-05
-0.000511853
-6.59799e-05
-0.00048974
-6.50723e-05
-0.000467956
-6.40969e-05
-0.000446523
-6.30565e-05
-0.000425464
-6.19538e-05
-0.000404801
-6.07919e-05
-0.000384555
-5.95731e-05
-0.000364747
-5.82997e-05
-0.000345397
-5.69733e-05
-0.000326524
-5.55953e-05
-0.000308147
-5.4167e-05
-0.000290283
-5.26895e-05
-0.000272949
-5.11644e-05
-0.00025616
-4.95938e-05
-0.00023993
-4.79801e-05
-0.000224272
-4.63263e-05
-0.000209198
-4.46361e-05
-0.000194716
-4.29136e-05
-0.000180837
-4.11632e-05
-0.000167567
-3.93897e-05
-0.000154911
-3.75979e-05
-0.000142874
-3.57928e-05
-0.000131457
-3.39792e-05
-0.000120662
-3.21621e-05
-0.000110487
-3.03463e-05
-0.00010093
-2.85365e-05
-9.19883e-05
-2.67372e-05
-8.36551e-05
-2.49526e-05
-7.59242e-05
-2.31869e-05
-6.87875e-05
-2.14438e-05
-6.22358e-05
-1.97268e-05
-5.62584e-05
-1.80391e-05
-5.08437e-05
-1.63834e-05
-4.59789e-05
-1.47623e-05
-4.16498e-05
-1.31776e-05
-3.78414e-05
-1.16311e-05
-3.45372e-05
-1.01239e-05
-3.17195e-05
-8.65665e-06
-2.93689e-05
-7.22972e-06
-2.7464e-05
-5.84298e-06
-2.59812e-05
-4.49613e-06
-2.48931e-05
-3.18882e-06
-2.41661e-05
-1.92114e-06
-2.37602e-05
-6.94188e-07
-2.37122e-05
5.13367e-07
-2.39503e-05
1.72776e-06
-2.43556e-05
2.78858e-06
-2.49865e-05
3.8818e-06
-2.57429e-05
4.89298e-06
-2.65324e-05
5.78779e-06
-2.73646e-05
6.67043e-06
-2.81301e-05
7.42437e-06
-2.88562e-05
8.18965e-06
-2.94983e-05
8.90482e-06
-2.99984e-05
9.59011e-06
-3.03599e-05
1.03303e-05
-3.05114e-05
1.10649e-05
-3.03847e-05
1.18117e-05
-2.99137e-05
1.25985e-05
-2.9032e-05
1.34298e-05
-2.76666e-05
1.43077e-05
-2.57357e-05
1.52205e-05
-2.31715e-05
1.61861e-05
-1.9925e-05
1.72018e-05
-1.59763e-05
1.82588e-05
-1.12854e-05
1.9316e-05
-5.91542e-06
2.03652e-05
9.86635e-08
2.13372e-05
6.66186e-06
2.22078e-05
1.36482e-05
2.29225e-05
2.09421e-05
2.33883e-05
2.83655e-05
2.35557e-05
3.5699e-05
2.33031e-05
4.24821e-05
2.25153e-05
4.85793e-05
2.07973e-05
5.38483e-05
1.78914e-05
5.79855e-05
1.36321e-05
6.06651e-05
8.52979e-06
6.18822e-05
3.44362e-06
6.14352e-05
-9.45505e-07
5.90419e-05
-4.57077e-06
5.56393e-05
-7.96466e-06
5.19247e-05
-1.10504e-05
4.83229e-05
-1.38925e-05
4.51103e-05
-1.65008e-05
4.24589e-05
-1.88177e-05
4.04865e-05
-2.07249e-05
3.91571e-05
-2.21244e-05
3.85103e-05
-2.29872e-05
3.86038e-05
-2.33622e-05
3.9461e-05
-2.33626e-05
4.10489e-05
-2.31108e-05
4.33108e-05
-2.27019e-05
4.61427e-05
-2.22001e-05
4.93875e-05
-2.16309e-05
5.2893e-05
-2.10463e-05
5.65122e-05
-2.0468e-05
6.0152e-05
-1.99584e-05
6.3762e-05
-1.95692e-05
6.73363e-05
-1.93273e-05
7.08988e-05
-1.92254e-05
7.44851e-05
-1.92238e-05
7.81299e-05
-1.92684e-05
8.18522e-05
-1.92937e-05
8.56471e-05
-1.92466e-05
8.94928e-05
-1.91006e-05
9.33539e-05
-1.88528e-05
9.71893e-05
-1.85206e-05
0.00010097
-1.81399e-05
0.000104681
-1.77449e-05
0.000108322
-1.7364e-05
0.000111896
-1.70156e-05
0.000115417
-1.66976e-05
0.000118909
-1.64136e-05
0.000122379
-1.61391e-05
0.000125851
-1.58696e-05
0.00012932
-1.5568e-05
0.0001328
-1.52421e-05
0.000136274
-1.48544e-05
0.000139732
-1.44132e-05
0.000143157
-1.39042e-05
0.000146527
-1.33029e-05
0.000149793
-1.26003e-05
0.000152913
-1.17871e-05
0.00015583
-1.08414e-05
0.00015848
-9.75992e-06
0.000160758
-8.48921e-06
0.000162561
-7.03728e-06
0.000163777
-5.40266e-06
0.000164236
-3.53914e-06
0.000163853
-1.54014e-06
0.000162314
7.88572e-07
0.000159534
3.16518e-06
0.000155364
5.61383e-06
0.000149671
8.08575e-06
0.000142351
1.05069e-05
0.000133348
1.27947e-05
0.000122664
1.48669e-05
0.000110364
1.66422e-05
9.65777e-05
1.80474e-05
8.14988e-05
1.90425e-05
6.53698e-05
1.96742e-05
4.87085e-05
1.99087e-05
3.24786e-05
1.86696e-05
1.81242e-05
1.42204e-05
2.51887e-05
-2.87201e-05
8.52279e-05
-5.40484e-05
7.50033e-05
-8.23901e-05
8.31184e-05
-0.00011175
8.49894e-05
-0.000140718
8.43186e-05
-0.000169137
8.36447e-05
-0.000197041
8.29741e-05
-0.000224366
8.21345e-05
-0.000251028
8.11201e-05
-0.000276958
7.99559e-05
-0.000302103
7.86579e-05
-0.000326423
7.72378e-05
-0.00034989
7.57102e-05
-0.000372492
7.40928e-05
-0.000394234
7.24084e-05
-0.000415135
7.06833e-05
-0.000435228
6.89474e-05
-0.000454561
6.72327e-05
-0.000473194
6.55719e-05
-0.000491194
6.39979e-05
-0.000508634
6.25442e-05
-0.000525594
6.12406e-05
-0.00054215
6.01082e-05
-0.000558375
5.91582e-05
-0.000574337
5.83915e-05
-0.000590094
5.78e-05
-0.000605694
5.73702e-05
-0.000621175
5.70876e-05
-0.000636569
5.69393e-05
-0.000651899
5.69149e-05
-0.000667189
5.70058e-05
-0.000682464
5.72038e-05
-0.000697751
5.75004e-05
-0.000713081
5.78867e-05
-0.000728479
5.83544e-05
-0.000743967
5.88978e-05
-0.00075955
5.95146e-05
-0.000775217
6.02063e-05
-0.000790942
6.09773e-05
-0.000806682
6.18326e-05
-0.000822386
6.27749e-05
-0.000837992
6.38017e-05
-0.000853443
6.49025e-05
-0.000868684
6.6058e-05
-0.000883679
6.72412e-05
-0.000898417
6.84208e-05
-0.000912913
6.95651e-05
-0.000927208
7.06465e-05
-0.00094136
7.1645e-05
-0.000955436
7.25497e-05
-0.000969503
7.33588e-05
-0.000983618
7.4077e-05
-0.000997823
7.47119e-05
-0.00101214
7.5271e-05
-0.0010266
7.57587e-05
-0.00104119
7.61766e-05
-0.00105591
7.65242e-05
-0.00107078
7.68008e-05
-0.00108579
7.70068e-05
-0.00110094
7.71448e-05
-0.00111625
7.72194e-05
-0.0011317
7.72364e-05
-0.0011473
7.7202e-05
-0.00116305
7.71213e-05
-0.00117893
7.69981e-05
-0.00119493
7.68337e-05
-0.00121105
7.6628e-05
-0.00122727
7.63794e-05
-0.00124357
7.60857e-05
-0.00125994
7.57447e-05
-0.00127637
7.53546e-05
-0.00129283
7.49146e-05
-0.00130931
7.44242e-05
-0.00132579
7.38838e-05
-0.00134226
7.32938e-05
-0.00135869
7.26547e-05
-0.00137506
7.19664e-05
-0.00139137
7.12289e-05
-0.00140758
7.04418e-05
-0.00142367
6.96044e-05
-0.00143965
6.87165e-05
-0.00145548
6.77779e-05
-0.00147115
6.67892e-05
-0.00148667
6.57519e-05
-0.00150203
6.46686e-05
-0.00151722
6.35428e-05
-0.00153224
6.23788e-05
-0.00154708
6.11805e-05
-0.00156173
5.99511e-05
-0.00157618
5.8693e-05
-0.00159041
5.74075e-05
-0.0016044
5.60952e-05
-0.00161812
5.47558e-05
-0.00163156
5.33888e-05
-0.00164468
5.1993e-05
-0.00165746
5.05671e-05
-0.0016699
4.91099e-05
-0.00168197
4.76205e-05
-0.00169367
4.60984e-05
-0.00170498
4.45433e-05
-0.00171589
4.29554e-05
-0.0017264
4.13349e-05
-0.0017365
3.96825e-05
-0.00174618
3.79986e-05
-0.00175545
3.62842e-05
-0.00176428
3.45401e-05
-0.00177269
3.27672e-05
-0.00178066
3.09665e-05
-0.0017882
2.91391e-05
-0.00179529
2.72862e-05
-0.00180194
2.54087e-05
-0.00180814
2.35079e-05
-0.0018139
2.15849e-05
-0.0018192
1.9641e-05
-0.00182405
1.76779e-05
-0.00182846
1.56973e-05
-0.0018324
1.37016e-05
-0.0018359
1.16934e-05
-0.00183895
9.67624e-06
-0.00184156
7.65371e-06
-0.00184372
5.62981e-06
-0.00184543
3.60837e-06
-0.0018467
1.5928e-06
-0.00184752
-4.13975e-07
-0.00184788
-2.40979e-06
-0.0018478
-4.39934e-06
-0.00184728
-6.37786e-06
-0.00184629
-8.34941e-06
-0.00184487
-1.02992e-05
-0.00184296