/*--------------------------------*- C++ -*----------------------------------*\
| =========                 |                                                 |
| \\      /  F ield         | OpenFOAM: The Open Source CFD Toolbox           |
|  \\    /   O peration     | Version:  v2006                                 |
|   \\  /    A nd           | Website:  www.openfoam.com                      |
|    \\/     M anipulation  |                                                 |
\*---------------------------------------------------------------------------*/
FoamFile
{
    version     2.0;
    format      ascii;
    class       surfaceScalarField;
    location    "8.3";
    object      alphaPhi0.water;
}
// * * * * * * * * * * * * * * * * * * * * * * * * * * * * * * * * * * * * * //

dimensions      [0 3 -1 0 0 0 0];
oriented        oriented;


internalField   nonuniform List<scalar> 
104500
(
-6.00007e-05
6.00007e-05
-9.68392e-05
3.68385e-05
-0.000134708
3.78692e-05
-0.000177628
4.29198e-05
-0.000223533
4.5905e-05
-0.000270344
4.68107e-05
-0.000317067
4.67229e-05
-0.000363492
4.64247e-05
-0.000409677
4.61855e-05
-0.000455695
4.60176e-05
-0.000501567
4.58724e-05
-0.000547286
4.57193e-05
-0.000592839
4.55527e-05
-0.000638212
4.53729e-05
-0.000683397
4.51846e-05
-0.000728385
4.49885e-05
-0.000773169
4.47839e-05
-0.000817737
4.45682e-05
-0.000862082
4.43448e-05
-0.000906192
4.41104e-05
-0.000950052
4.38594e-05
-0.000993642
4.359e-05
-0.00103694
4.33015e-05
-0.00107993
4.29897e-05
-0.00112259
4.26532e-05
-0.00116487
4.22885e-05
-0.00120677
4.18935e-05
-0.00124823
4.14652e-05
-0.00128923
4.09969e-05
-0.00132972
4.04932e-05
-0.00136967
3.99486e-05
-0.00140904
3.93661e-05
-0.00144778
3.87417e-05
-0.00148586
3.80769e-05
-0.00152322
3.73654e-05
-0.00155983
3.66072e-05
-0.00159564
3.58082e-05
-0.00163061
3.49703e-05
-0.0016647
3.40875e-05
-0.00169786
3.31675e-05
-0.00173007
3.22083e-05
-0.00176128
3.12107e-05
-0.00179147
3.01927e-05
-0.00182063
2.91515e-05
-0.00184871
2.80828e-05
-0.00187569
2.69813e-05
-0.00190153
2.58365e-05
-0.00192617
2.46416e-05
-0.00194957
2.33984e-05
-0.00197167
2.21051e-05
-0.00199243
2.07596e-05
-0.0020118
1.93714e-05
-0.00202975
1.79473e-05
-0.00204624
1.64938e-05
-0.00206126
1.50119e-05
-0.00207476
1.3503e-05
-0.00208672
1.19646e-05
-0.00209711
1.03817e-05
-0.00210583
8.72848e-06
-0.0021128
6.9703e-06
-0.00211789
5.08489e-06
-0.00212097
3.07883e-06
-0.00212194
9.7655e-07
-0.00212088
-1.06623e-06
-0.00211782
-3.05539e-06
-0.00211283
-4.98909e-06
-0.002106
-6.83739e-06
-0.0020974
-8.59978e-06
-0.00208711
-1.02832e-05
-0.00207521
-1.19018e-05
-0.00206174
-1.34704e-05
-0.00204674
-1.50022e-05
-0.00203024
-1.65025e-05
-0.00201226
-1.79738e-05
-0.00199285
-1.94124e-05
-0.00197203
-2.08192e-05
-0.00194983
-2.21977e-05
-0.00192629
-2.35458e-05
-0.00190143
-2.48581e-05
-0.00187529
-2.61353e-05
-0.00184791
-2.73788e-05
-0.00181933
-2.85834e-05
-0.00178959
-2.97463e-05
-0.00175872
-3.08647e-05
-0.00172678
-3.19415e-05
-0.0016938
-3.29816e-05
-0.00165981
-3.39898e-05
-0.00162484
-3.49708e-05
-0.00158891
-3.59255e-05
-0.00155206
-3.6847e-05
-0.00151433
-3.7731e-05
-0.00147576
-3.85691e-05
-0.00143641
-3.9351e-05
-0.00139635
-4.00679e-05
-0.00135563
-4.07149e-05
-0.00131434
-4.1292e-05
-0.00127253
-4.1805e-05
-0.00123027
-4.22642e-05
-0.00118759
-4.26811e-05
-0.00114452
-4.30659e-05
-0.00110109
-4.34274e-05
-0.00105733
-4.37677e-05
-0.00101324
-4.40857e-05
-0.000968856
-4.43855e-05
-0.000924195
-4.46612e-05
-0.000879284
-4.49109e-05
-0.000834151
-4.51325e-05
-0.000788827
-4.53243e-05
-0.000743342
-4.54847e-05
-0.00069773
-4.56123e-05
-0.000652024
-4.57063e-05
-0.000606258
-4.57661e-05
-0.000560467
-4.5791e-05
-0.000514686
-4.57807e-05
-0.000468949
-4.57366e-05
-0.000423283
-4.56661e-05
-0.000377732
-4.55507e-05
-0.000332326
-4.54066e-05
-0.000287096
-4.52298e-05
-0.000242073
-4.50232e-05
-0.000197299
-4.47737e-05
-0.000152795
-4.45045e-05
-0.000108607
-4.41876e-05
-6.47551e-05
-4.38519e-05
-2.12748e-05
-4.34803e-05
2.18046e-05
-4.30794e-05
6.44494e-05
-4.26449e-05
0.000106629
-4.21797e-05
0.000148309
-4.16802e-05
0.000189463
-4.11541e-05
0.000230061
-4.05971e-05
0.00027007
-4.001e-05
0.000309466
-3.93957e-05
0.000348219
-3.87528e-05
0.000386301
-3.80824e-05
0.000423686
-3.73849e-05
0.000460347
-3.66612e-05
0.000496259
-3.59119e-05
0.000531397
-3.51375e-05
0.000565736
-3.43387e-05
0.000599252
-3.35161e-05
0.000631922
-3.26701e-05
0.000663723
-3.18011e-05
0.000694632
-3.09091e-05
0.000724625
-2.99935e-05
0.000753679
-2.90535e-05
0.000781767
-2.80876e-05
0.00080886
-2.7093e-05
0.00083492
-2.60608e-05
0.000859891
-2.4971e-05
0.000883683
-2.37913e-05
0.000906171
-2.24884e-05
0.000927221
-2.10497e-05
0.000946724
-1.95035e-05
0.000964643
-1.79185e-05
0.000981022
-1.63789e-05
0.000995971
-1.49493e-05
0.00100962
-1.36506e-05
0.00102208
-1.24603e-05
0.00103342
-1.13334e-05
0.00104364
-1.02276e-05
0.00105276
-9.11752e-06
0.00106076
-7.99619e-06
0.00106762
-6.86758e-06
0.00107336
-5.7385e-06
0.00107798
-4.61369e-06
0.00108147
-3.49449e-06
0.00108385
-2.37914e-06
0.00108511
-1.26284e-06
0.00108525
-1.35552e-07
0.00108425
9.9811e-07
0.00108213
2.11899e-06
0.00107892
3.20907e-06
0.00107466
4.261e-06
0.00106939
5.27244e-06
0.00106315
6.24151e-06
0.00105599
7.1612e-06
0.00104795
8.03669e-06
0.00103908
8.87031e-06
0.00102942
9.66003e-06
0.00101902
1.04027e-05
0.00100792
1.10952e-05
0.000996186
1.17346e-05
0.000983868
1.23189e-05
0.000971018
1.28498e-05
0.000957684
1.33334e-05
0.000943903
1.37813e-05
0.000929693
1.42102e-05
0.000915053
1.46402e-05
0.000899963
1.50898e-05
0.000884391
1.55721e-05
0.000868297
1.60934e-05
0.000851646
1.6651e-05
0.000834411
1.72355e-05
0.000816577
1.78338e-05
0.000798145
1.84322e-05
0.000779125
1.90194e-05
0.000759538
1.95869e-05
0.00073941
2.01287e-05
0.00071877
2.06398e-05
0.000697655
2.11153e-05
0.000676105
2.15498e-05
0.000654168
2.19369e-05
0.0006319
2.2268e-05
0.000609367
2.25334e-05
0.000586647
2.27199e-05
0.000563831
2.28156e-05
0.000541021
2.28103e-05
0.000518331
2.26898e-05
0.000495884
2.24468e-05
0.000473798
2.20862e-05
0.000452168
2.16302e-05
0.000431047
2.11205e-05
0.000410433
2.06141e-05
0.000390258
2.01752e-05
0.000370395
1.98626e-05
0.00035068
1.97157e-05
0.000330938
1.97415e-05
0.000311022
1.99162e-05
0.00029083
2.01914e-05
0.000270326
2.05046e-05
0.000249532
2.07934e-05
0.000228524
2.10087e-05
0.0002074
2.11237e-05
0.000186266
2.11345e-05
0.000165211
2.10543e-05
0.000144307
2.09041e-05
0.000123603
2.07037e-05
0.000103136
2.04677e-05
8.29317e-05
2.0204e-05
6.30167e-05
1.9915e-05
4.34158e-05
1.96009e-05
2.41546e-05
1.92612e-05
5.25778e-06
1.88968e-05
-1.32519e-05
1.85097e-05
-3.13554e-05
1.81035e-05
-4.90466e-05
1.76912e-05
-6.6306e-05
1.72594e-05
-8.31255e-05
1.68195e-05
-9.94988e-05
1.63733e-05
-0.000115421
1.59219e-05
-0.000130887
1.54661e-05
-0.000145893
1.50066e-05
-0.000160447
1.45533e-05
-0.000174539
1.40919e-05
-0.000188171
1.36319e-05
-0.000201346
1.31752e-05
-0.00021407
1.27244e-05
-0.000226346
1.22762e-05
-0.000238187
1.18404e-05
-0.000249596
1.14094e-05
-0.00026059
1.09936e-05
-0.000271181
1.05911e-05
-0.000281386
1.02047e-05
-0.000291222
9.83651e-06
-0.000300711
9.48872e-06
-0.000309872
9.16136e-06
-0.00031874
8.86759e-06
-0.000327345
8.60566e-06
-0.000335748
8.40265e-06
-0.000343974
8.22546e-06
-0.000352075
8.10105e-06
-0.000360109
8.03396e-06
-0.000368134
8.0251e-06
-0.00037621
8.07676e-06
-0.000384397
8.18711e-06
-0.00039275
8.35256e-06
-0.000401302
8.5524e-06
-0.000410065
8.76267e-06
-0.000418998
8.93322e-06
-0.000428046
9.04795e-06
-0.000437165
9.11891e-06
-0.000446339
9.17338e-06
-0.000455601
9.26225e-06
-0.000465048
9.44763e-06
-0.000474763
9.71499e-06
-0.000484858
1.0095e-05
-0.000495442
1.05838e-05
-0.000506632
1.11894e-05
-0.000518551
1.19193e-05
-0.000531314
1.27626e-05
-0.000545055
1.37416e-05
-0.000559912
1.4857e-05
-0.000575984
1.60721e-05
-0.000593376
1.73912e-05
-0.000612147
1.87714e-05
-0.000632315
2.01686e-05
-0.00065385
2.15347e-05
-0.000676659
2.28089e-05
-0.000700594
2.39347e-05
-0.000725432
2.48378e-05
-0.00075087
2.54379e-05
-0.000776503
2.56335e-05
-0.000801873
2.53704e-05
-0.000826472
2.45986e-05
-0.000849799
2.33271e-05
-0.000871384
2.15851e-05
-0.000890806
1.94217e-05
-0.00090767
1.6864e-05
-0.000921583
1.39129e-05
-0.000932211
1.06284e-05
-0.000939438
7.22657e-06
-0.0009435
4.06224e-06
-0.000944967
1.46681e-06
-0.000944629
-3.38139e-07
-0.000943348
-1.28092e-06
-0.000941622
-1.7254e-06
-0.00093966
-1.96288e-06
-0.000937349
-2.31049e-06
-0.000934411
-2.93796e-06
-0.000930552
-3.85949e-06
-0.000925537
-5.01482e-06
-0.000919241
-6.29535e-06
-0.000911629
-7.61275e-06
-0.000902708
-8.92102e-06
-0.000892501
-1.02062e-05
-0.00088102
-1.14811e-05
-0.000868276
-1.27439e-05
-0.000854298
-1.39788e-05
-0.000839125
-1.51723e-05
-0.000822803
-1.63229e-05
-0.000805379
-1.74234e-05
-0.000786891
-1.84881e-05
-0.000767371
-1.95198e-05
-0.000746858
-2.0513e-05
-0.000725375
-2.14829e-05
-0.000702961
-2.24143e-05
-0.000679655
-2.33064e-05
-0.000655467
-2.41874e-05
-0.000630445
-2.5022e-05
-0.000604617
-2.58285e-05
-0.000578011
-2.66063e-05
-0.000550654
-2.73568e-05
-0.000522575
-2.80784e-05
-0.000493801
-2.87747e-05
-0.000464354
-2.94465e-05
-0.000434259
-3.0095e-05
-0.000403541
-3.07184e-05
-0.000372234
-3.13067e-05
-0.000340365
-3.18692e-05
-0.000307972
-3.23932e-05
-0.000275086
-3.28853e-05
-0.000241756
-3.33305e-05
-0.000208046
-3.37102e-05
-0.000174036
-3.40099e-05
-0.000139737
-3.42986e-05
-0.000105029
-3.4708e-05
-6.91558e-05
-3.58735e-05
-3.18785e-05
-3.72773e-05
-3.18785e-05
-6.48456e-05
0.000124846
-0.00010599
7.7983e-05
-0.000148816
8.06951e-05
-0.000197093
9.11973e-05
-0.000248606
9.74179e-05
-0.000300966
9.91706e-05
-0.000353116
9.88732e-05
-0.000404891
9.81995e-05
-0.000456411
9.77049e-05
-0.000507773
9.73803e-05
-0.000559004
9.7103e-05
-0.000610092
9.68075e-05
-0.000661017
9.64773e-05
-0.000711762
9.61181e-05
-0.000762313
9.57358e-05
-0.000812658
9.53337e-05
-0.000862782
9.49071e-05
-0.000912673
9.44595e-05
-0.000962306
9.39781e-05
-0.00101165
9.34572e-05
-0.00106069
9.28924e-05
-0.00110937
9.22773e-05
-0.00115768
9.16061e-05
-0.00120556
9.08693e-05
-0.00125296
9.00588e-05
-0.00129985
8.9179e-05
-0.00134617
8.82081e-05
-0.00139185
8.71472e-05
-0.00143686
8.60043e-05
-0.00148112
8.47573e-05
-0.00152459
8.3417e-05
-0.00156719
8.19654e-05
-0.00160886
8.04156e-05
-0.00164955
7.8763e-05
-0.00168919
7.70041e-05
-0.00172773
7.51481e-05
-0.00176511
7.31915e-05
-0.00180127
7.11303e-05
-0.00183615
6.89696e-05
-0.0018697
6.6714e-05
-0.00190186
6.43711e-05
-0.0019326
6.195e-05
-0.00196186
5.94476e-05
-0.00198958
5.68718e-05
-0.00201573
5.42321e-05
-0.00204028
5.15323e-05
-0.00206321
4.87694e-05
-0.00208453
4.59559e-05
-0.00210421
4.30861e-05
-0.00212227
4.01627e-05
-0.0021387
3.71888e-05
-0.0021535
3.41701e-05
-0.00216666
3.11105e-05
-0.00217819
2.80182e-05
-0.00218807
2.48962e-05
-0.00219632
2.17493e-05
-0.00220294
1.85852e-05
-0.00220796
1.54067e-05
-0.00221145
1.22166e-05
-0.0022135
9.01965e-06
-0.00221424
5.82344e-06
-0.0022138
2.63824e-06
-0.00221225
-5.67921e-07
-0.00220951
-3.81371e-06
-0.00220556
-7.00406e-06
-0.00220035
-1.01916e-05
-0.00219383
-1.33601e-05
-0.00218594
-1.64929e-05
-0.00217664
-1.95792e-05
-0.00216593
-2.26141e-05
-0.0021538
-2.55979e-05
-0.00214028
-2.85275e-05
-0.00212538
-3.14012e-05
-0.00210914
-3.42179e-05
-0.00209157
-3.69774e-05
-0.00207271
-3.96812e-05
-0.00205258
-4.2326e-05
-0.00203122
-4.49039e-05
-0.00200866
-4.74195e-05
-0.00198492
-4.98723e-05
-0.00196004
-5.22593e-05
-0.00193405
-5.45776e-05
-0.00190697
-5.68286e-05
-0.00187882
-5.90093e-05
-0.00184964
-6.11191e-05
-0.00181947
-6.31579e-05
-0.00178833
-6.51268e-05
-0.00175627
-6.70272e-05
-0.00172334
-6.88579e-05
-0.00168956
-7.06246e-05
-0.00165497
-7.23257e-05
-0.00161958
-7.39595e-05
-0.00158341
-7.55203e-05
-0.00154648
-7.70021e-05
-0.0015088
-7.83958e-05
-0.00147039
-7.96942e-05
-0.0014313
-8.08934e-05
-0.00139158
-8.19897e-05
-0.00135127
-8.2988e-05
-0.00131045
-8.38891e-05
-0.00126918
-8.47008e-05
-0.00122752
-8.54277e-05
-0.00118552
-8.6077e-05
-0.00114326
-8.66527e-05
-0.00110076
-8.71571e-05
-0.00105808
-8.75943e-05
-0.00101525
-8.79622e-05
-0.00097231
-8.82622e-05
-0.0009293
-8.84948e-05
-0.00088625
-8.86615e-05
-0.000843194
-8.87626e-05
-0.000800161
-8.8799e-05
-0.000757183
-8.87694e-05
-0.000714289
-8.86741e-05
-0.000671511
-8.85154e-05
-0.000628885
-8.82923e-05
-0.000586425
-8.80098e-05
-0.000544171
-8.76609e-05
-0.00050215
-8.72512e-05
-0.000460393
-8.67795e-05
-0.000418906
-8.62611e-05
-0.00037774
-8.56702e-05
-0.000336887
-8.50413e-05
-0.000296402
-8.43367e-05
-0.000256297
-8.3585e-05
-0.000216596
-8.27804e-05
-0.000177318
-8.19226e-05
-0.000138488
-8.10105e-05
-0.000100114
-8.00535e-05
-6.22246e-05
-7.90438e-05
-2.4835e-05
-7.79868e-05
1.20379e-05
-7.68828e-05
4.83727e-05
-7.57305e-05
8.41534e-05
-7.45335e-05
0.000119364
-7.3293e-05
0.000153989
-7.20102e-05
0.000188014
-7.06865e-05
0.000221426
-6.93235e-05
0.000254212
-6.79231e-05
0.00028636
-6.64873e-05
0.000317863
-6.50184e-05
0.000348711
-6.35188e-05
0.000378902
-6.19914e-05
0.000408432
-6.04394e-05
0.000437304
-5.88654e-05
0.000465523
-5.72727e-05
0.0004931
-5.56642e-05
0.00052005
-5.4043e-05
0.0005464
-5.24108e-05
0.000572195
-5.07665e-05
0.000597507
-4.91026e-05
0.000622422
-4.74034e-05
0.000647019
-4.56473e-05
0.00067133
-4.38141e-05
0.000695307
-4.18958e-05
0.000718831
-3.99023e-05
0.00074174
-3.78592e-05
0.000763888
-3.57981e-05
0.000785171
-3.37436e-05
0.000805545
-3.17073e-05
0.000825007
-2.96894e-05
0.000843574
-2.76849e-05
0.000861266
-2.56881e-05
0.000878094
-2.36956e-05
0.000894062
-2.17066e-05
0.000909171
-1.97221e-05
0.00092342
-1.77439e-05
0.000936815
-1.5774e-05
0.000949369
-1.38165e-05
0.000961113
-1.18801e-05
0.000972082
-9.97108e-06
0.00098228
-8.07864e-06
0.000991684
-6.19447e-06
0.00100027
-4.32261e-06
0.001008
-2.46463e-06
0.00101485
-6.05412e-07
0.00102081
1.20446e-06
0.00102589
2.95771e-06
0.00103006
4.6953e-06
0.00103332
6.40574e-06
0.00103563
8.08458e-06
0.001037
9.72954e-06
0.0010374
1.13384e-05
0.00103681
1.29094e-05
0.00103521
1.44409e-05
0.00103262
1.59322e-05
0.00102901
1.73832e-05
0.00102443
1.87958e-05
0.0010189
2.01732e-05
0.00101247
2.15191e-05
0.0010052
2.28381e-05
0.00099716
2.41336e-05
0.000988405
2.54061e-05
0.000978983
2.66574e-05
0.000968933
2.78843e-05
0.00095828
2.90847e-05
0.000947045
3.02545e-05
0.000935241
3.13905e-05
0.000922881
3.24889e-05
0.000909975
3.35461e-05
0.000896532
3.45579e-05
0.000882563
3.55193e-05
0.000868075
3.64248e-05
0.000853074
3.72684e-05
0.000837565
3.80428e-05
0.000821545
3.87398e-05
0.00080501
3.93508e-05
0.000787953
3.98675e-05
0.00077036
4.0282e-05
0.000752217
4.05898e-05
0.00073351
4.07933e-05
0.000714236
4.09045e-05
0.00069441
4.09467e-05
0.000674073
4.09514e-05
0.000653292
4.09554e-05
0.000632162
4.0993e-05
0.000610789
4.10889e-05
0.000589279
4.12516e-05
0.000567721
4.1474e-05
0.000546179
4.17329e-05
0.000524688
4.19957e-05
0.000503254
4.22281e-05
0.000481863
4.23996e-05
0.000460497
4.24897e-05
0.000439142
4.24892e-05
0.000417797
4.23993e-05
0.000396472
4.22286e-05
0.000375187
4.19888e-05
0.000353964
4.16912e-05
0.000332823
4.13453e-05
0.00031178
4.09574e-05
0.000290849
4.05317e-05
0.000270039
4.00711e-05
0.000249358
3.95782e-05
0.000228812
3.90557e-05
0.000208409
3.85071e-05
0.000188164
3.79361e-05
0.000168079
3.73438e-05
0.000148165
3.67335e-05
0.000128431
3.61074e-05
0.000108886
3.54671e-05
8.95384e-05
3.48137e-05
7.03968e-05
3.41483e-05
5.14778e-05
3.34722e-05
3.27853e-05
3.27844e-05
1.43311e-05
3.20861e-05
-3.87293e-06
3.13793e-05
-2.1814e-05
3.06654e-05
-3.94757e-05
2.9938e-05
-5.68463e-05
2.92109e-05
-7.39135e-05
2.84766e-05
-9.06535e-05
2.77336e-05
-0.000107047
2.69846e-05
-0.000123072
2.62295e-05
-0.000138704
2.54692e-05
-0.000153922
2.47058e-05
-0.000168702
2.3942e-05
-0.000183004
2.31696e-05
-0.000196794
2.23951e-05
-0.000210011
2.16198e-05
-0.000222624
2.08386e-05
-0.000234585
2.00618e-05
-0.000245835
1.92846e-05
-0.000256321
1.8511e-05
-0.000265986
1.77418e-05
-0.000274773
1.69734e-05
-0.000282638
1.62175e-05
-0.000289549
1.5464e-05
-0.00029551
1.47235e-05
-0.000300563
1.39857e-05
-0.000304781
1.32662e-05
-0.000308221
1.25591e-05
-0.000310922
1.18739e-05
-0.000312881
1.12221e-05
-0.000314055
1.0621e-05
-0.000314406
1.00667e-05
-0.000313893
9.58181e-06
-0.000312482
9.17235e-06
-0.000310145
8.85317e-06
-0.000306867
8.64126e-06
-0.000302665
8.56018e-06
-0.000297533
8.60995e-06
-0.000291506
8.82916e-06
-0.000284653
9.21954e-06
-0.000277072
9.81044e-06
-0.000268911
1.06106e-05
-0.000260351
1.16078e-05
-0.00025157
1.27537e-05
-0.000242774
1.40135e-05
-0.00023418
1.53402e-05
-0.000225992
1.665e-05
-0.000218405
1.78504e-05
-0.000211602
1.88313e-05
-0.000205706
1.94739e-05
-0.000200784
1.96771e-05
-0.000196769
1.93122e-05
-0.000193488
1.83036e-05
-0.00019067
1.66034e-05
-0.000188091
1.42852e-05
-0.000185619
1.14415e-05
-0.000183188
8.1972e-06
-0.000180723
4.76192e-06
-0.00017809
1.42889e-06
-0.000175016
-1.60708e-06
-0.000171101
-4.2536e-06
-0.000166239
-6.14294e-06
-0.000160536
-7.42828e-06
-0.000154185
-8.31377e-06
-0.000147507
-8.98848e-06
-0.000140785
-9.65948e-06
-0.000134208
-1.04367e-05
-0.000127833
-1.13905e-05
-0.000121617
-1.25108e-05
-0.000115456
-1.37741e-05
-0.000109266
-1.51112e-05
-0.000102964
-1.65078e-05
-9.65071e-05
-1.7938e-05
-8.99117e-05
-1.93393e-05
-8.32006e-05
-2.06898e-05
-7.64054e-05
-2.19675e-05
-6.95596e-05
-2.31687e-05
-6.27165e-05
-2.42665e-05
-5.59149e-05
-2.52898e-05
-4.91881e-05
-2.62466e-05
-4.2579e-05
-2.7122e-05
-3.61461e-05
-2.79158e-05
-2.99211e-05
-2.86393e-05
-2.39463e-05
-2.92812e-05
-1.83089e-05
-2.98248e-05
-1.30255e-05
-3.03054e-05
-8.14635e-06
-3.07077e-05
-3.71419e-06
-3.10385e-05
2.35042e-07
-3.1306e-05
3.67372e-06
-3.15171e-05
6.59211e-06
-3.1693e-05
8.98105e-06
-3.18355e-05
1.08383e-05
-3.19522e-05
1.21689e-05
-3.2049e-05
1.29918e-05
-3.21297e-05
1.33272e-05
-3.22045e-05
1.32043e-05
-3.22703e-05
1.26569e-05
-3.23379e-05
1.17328e-05
-3.24064e-05
1.0502e-05
-3.24794e-05
9.04858e-06
-3.25564e-05
7.41968e-06
-3.26697e-05
5.31727e-06
-3.26056e-05
2.57405e-06
-3.31303e-05
1.62963e-06
-3.63329e-05
-3.02489e-05
-6.41127e-05
0.000188959
-0.000103355
0.000117225
-0.000143582
0.000120922
-0.000189351
0.000136967
-0.000238727
0.000146793
-0.00028923
0.000149673
-0.000339607
0.00014925
-0.000389554
0.000148147
-0.000439186
0.000147337
-0.000488636
0.00014683
-0.000537952
0.000146419
-0.000587138
0.000145994
-0.000636179
0.000145518
-0.00068506
0.000144999
-0.000733775
0.000144451
-0.000782318
0.000143876
-0.000830676
0.000143266
-0.000878836
0.000142619
-0.00092678
0.000141922
-0.000974497
0.000141175
-0.00102195
0.000140349
-0.00106912
0.000139448
-0.00111597
0.000138455
-0.00116246
0.000137353
-0.00120854
0.000136143
-0.00125417
0.000134807
-0.0012993
0.000133338
-0.00134388
0.000131731
-0.00138785
0.000129974
-0.00143116
0.000128067
-0.00147374
0.000125992
-0.00151554
0.000123773
-0.00155651
0.000121382
-0.00159659
0.000118838
-0.00163571
0.00011613
-0.00167383
0.000113263
-0.00171088
0.000110246
-0.00174683
0.000107077
-0.00178162
0.000103761
-0.00181521
0.000100306
-0.00184756
9.67174e-05
-0.00187861
9.2997e-05
-0.00190831
8.91539e-05
-0.00193664
8.52035e-05
-0.00196357
8.11532e-05
-0.00198904
7.7009e-05
-0.00201306
7.27847e-05
-0.00203558
6.84752e-05
-0.00205658
6.40903e-05
-0.00207605
5.96353e-05
-0.00209398
5.51134e-05
-0.00211033
5.05241e-05
-0.00212511
4.58881e-05
-0.0021383
4.1209e-05
-0.00214989
3.64904e-05
-0.00215989
3.17419e-05
-0.00216828
2.69746e-05
-0.00217507
2.21987e-05
-0.00218028
1.74271e-05
-0.00218393
1.26718e-05
-0.00218604
7.93495e-06
-0.00218662
3.21017e-06
-0.00218569
-1.49355e-06
-0.00218329
-6.21296e-06
-0.00217938
-1.09178e-05
-0.00217396
-1.5607e-05
-0.00216704
-2.02786e-05
-0.00215862
-2.49123e-05
-0.00214871
-2.94968e-05
-0.0021373
-3.402e-05
-0.00212442
-3.84743e-05
-0.0021101
-4.28541e-05
-0.00209434
-4.71566e-05
-0.00207718
-5.13761e-05
-0.00205865
-5.55093e-05
-0.00203878
-5.95556e-05
-0.00201759
-6.35126e-05
-0.00199512
-6.73764e-05
-0.00197139
-7.11433e-05
-0.00194645
-7.48111e-05
-0.00192033
-7.83799e-05
-0.00189307
-8.18456e-05
-0.00186469
-8.52073e-05
-0.00183523
-8.8467e-05
-0.00180473
-9.16177e-05
-0.00177323
-9.46602e-05
-0.00174076
-9.75934e-05
-0.00170737
-0.000100415
-0.00167311
-0.000103127
-0.00163799
-0.000105737
-0.00160208
-0.000108237
-0.00156541
-0.000110631
-0.00152801
-0.000112917
-0.00148993
-0.00011509
-0.00145118
-0.000117144
-0.0014118
-0.000119072
-0.00137183
-0.000120866
-0.00133129
-0.000122526
-0.00129024
-0.000124045
-0.00124869
-0.000125433
-0.0012067
-0.00012669
-0.0011643
-0.000127825
-0.00112154
-0.000128841
-0.00107845
-0.000129742
-0.00103508
-0.000130531
-0.000991461
-0.000131211
-0.000947638
-0.000131785
-0.000903647
-0.000132254
-0.000859523
-0.000132619
-0.000815303
-0.000132882
-0.000771023
-0.000133042
-0.000726721
-0.000133101
-0.000682432
-0.000133058
-0.00063819
-0.000132916
-0.000594028
-0.000132677
-0.000549978
-0.000132342
-0.000506076
-0.000131913
-0.000462348
-0.000131388
-0.000418828
-0.000130771
-0.000375541
-0.000130066
-0.00033253
-0.000129273
-0.000289809
-0.000128391
-0.000247428
-0.000127423
-0.000205389
-0.000126375
-0.000163731
-0.000125243
-0.000122482
-0.000124029
-8.16676e-05
-0.000122737
-4.13103e-05
-0.000121368
-1.43888e-06
-0.000119925
3.79259e-05
-0.000118409
7.67584e-05
-0.000116819
0.000115035
-0.00011516
0.000152736
-0.000113431
0.000189837
-0.000111635
0.000226318
-0.000109774
0.000262157
-0.000107849
0.000297334
-0.000105863
0.000331829
-0.000103818
0.000365622
-0.000101716
0.000398694
-9.95591e-05
0.000431024
-9.73493e-05
0.000462595
-9.5089e-05
0.000493384
-9.27807e-05
0.000523371
-9.04268e-05
0.000552536
-8.80298e-05
0.000580856
-8.55928e-05
0.00060831
-8.31183e-05
0.000634876
-8.06089e-05
0.000660534
-7.80687e-05
0.000685271
-7.55041e-05
0.00070909
-7.2921e-05
0.000732004
-7.03177e-05
0.000754036
-6.76796e-05
0.000775204
-6.4982e-05
0.000795511
-6.22021e-05
0.000814942
-5.93336e-05
0.000833474
-5.63917e-05
0.000851083
-5.3407e-05
0.000867752
-5.04118e-05
0.000883473
-4.74285e-05
0.00089825
-4.44662e-05
0.000912089
-4.1524e-05
0.000924997
-3.85968e-05
0.000936982
-3.56807e-05
0.00094805
-3.2774e-05
0.000958205
-2.98776e-05
0.000967455
-2.69937e-05
0.000975806
-2.41251e-05
0.000983265
-2.12751e-05
0.000989832
-1.84474e-05
0.000995505
-1.56444e-05
0.00100029
-1.28658e-05
0.00100421
-1.01107e-05
0.00100727
-7.37958e-06
0.00100948
-4.6757e-06
0.00101088
-2.01265e-06
0.00101154
5.51677e-07
0.00101133
3.16926e-06
0.00101031
5.71398e-06
0.0010085
8.21063e-06
0.00100593
1.06611e-05
0.00100259
1.30668e-05
0.000998501
1.54251e-05
0.000993676
1.77347e-05
0.000988116
2.00004e-05
0.000981828
2.22211e-05
0.000974817
2.43932e-05
0.000967096
2.65173e-05
0.000958678
2.85908e-05
0.000949586
3.06118e-05
0.000939845
3.25788e-05
0.000929488
3.44905e-05
0.000918547
3.63467e-05
0.000907057
3.81479e-05
0.000895047
3.98943e-05
0.000882545
4.15861e-05
0.000869578
4.32223e-05
0.000856165
4.4803e-05
0.000842331
4.63229e-05
0.000828095
4.77822e-05
0.000813478
4.91753e-05
0.000798496
5.05012e-05
0.000783167
5.17538e-05
0.000767504
5.29312e-05
0.000751518
5.40287e-05
0.000735216
5.50423e-05
0.000718598
5.5968e-05
0.000701665
5.68007e-05
0.000684408
5.75393e-05
0.000666815
5.81828e-05
0.000648872
5.87365e-05
0.000630564
5.92127e-05
0.000611881
5.96292e-05
0.000592822
6.00102e-05
0.000573398
6.038e-05
0.000553633
6.07574e-05
0.000533571
6.11511e-05
0.000513266
6.15569e-05
0.000492783
6.19568e-05
0.000472191
6.2325e-05
0.000451554
6.26326e-05
0.000430926
6.28567e-05
0.000410344
6.29813e-05
0.000389831
6.30026e-05
0.000369396
6.29243e-05
0.000349039
6.27565e-05
0.000328757
6.25104e-05
0.000308549
6.21966e-05
0.000288417
6.18235e-05
0.000268365
6.13973e-05
0.0002484
6.09223e-05
0.000228529
6.04024e-05
0.00020876
5.98407e-05
0.000189097
5.92408e-05
0.000169547
5.86061e-05
0.000150114
5.794e-05
0.000130804
5.72456e-05
0.000111623
5.65252e-05
9.25753e-05
5.57809e-05
7.36681e-05
5.50145e-05
5.4908e-05
5.42272e-05
3.63015e-05
5.34202e-05
1.78558e-05
5.2594e-05
-4.21429e-07
5.17494e-05
-1.85228e-05
5.08858e-05
-3.64457e-05
5.00089e-05
-5.41819e-05
4.91155e-05
-7.17225e-05
4.8206e-05
-8.90726e-05
4.72881e-05
-0.000106213
4.63511e-05
-0.000123135
4.53992e-05
-0.000139835
4.44334e-05
-0.000156302
4.3452e-05
-0.000172528
4.24546e-05
-0.000188498
4.14399e-05
-0.000204206
4.04135e-05
-0.000219635
3.93705e-05
-0.000234775
3.83103e-05
-0.00024961
3.72301e-05
-0.00026413
3.61398e-05
-0.000278296
3.50044e-05
-0.0002921
3.38656e-05
-0.000305515
3.27001e-05
-0.000318512
3.15081e-05
-0.000331056
3.02856e-05
-0.000343122
2.90394e-05
-0.000354671
2.77658e-05
-0.000365682
2.64757e-05
-0.00037612
2.51611e-05
-0.000385991
2.38567e-05
-0.000395281
2.25568e-05
-0.000403995
2.12727e-05
-0.000412123
2.00015e-05
-0.000419639
1.87385e-05
-0.000426498
1.74803e-05
-0.000432659
1.62272e-05
-0.000438064
1.49873e-05
-0.000442659
1.37674e-05
-0.000446382
1.2576e-05
-0.000449158
1.14175e-05
-0.000450914
1.03163e-05
-0.000451579
9.2744e-06
-0.000451054
8.3043e-06
-0.000449266
7.4318e-06
-0.000446119
6.66309e-06
-0.000441527
6.01892e-06
-0.000435435
5.51501e-06
-0.000427814
5.13322e-06
-0.000418674
4.87331e-06
-0.000408135
4.80169e-06
-0.000396343
4.85796e-06
-0.000383482
4.98913e-06
-0.000369782
5.13119e-06
-0.000355527
5.21929e-06
-0.000341029
5.17878e-06
-0.000326617
4.9003e-06
-0.000312598
4.28505e-06
-0.000299249
3.25436e-06
-0.000286729
1.76451e-06
-0.000275091
-1.96695e-07
-0.000264281
-2.61249e-06
-0.000254221
-5.29827e-06
-0.000244663
-8.12892e-06
-0.00023533
-1.094e-05
-0.000226064
-1.35191e-05
-0.000216498
-1.57093e-05
-0.000206517
-1.74098e-05
-0.000196156
-1.86738e-05
-0.000185527
-1.9618e-05
-0.000174831
-2.03551e-05
-0.000164183
-2.10847e-05
-0.000153653
-2.19205e-05
-0.000143243
-2.29208e-05
-0.000132919
-2.40984e-05
-0.000122624
-2.54058e-05
-0.000112354
-2.67784e-05
-0.000102141
-2.8151e-05
-9.20103e-05
-2.94698e-05
-8.198e-05
-3.07201e-05
-7.20698e-05
-3.18777e-05
-6.23011e-05
-3.29374e-05
-5.26698e-05
-3.38977e-05
-4.32091e-05
-3.47505e-05
-3.39767e-05
-3.5479e-05
-2.49979e-05
-3.61008e-05
-1.63093e-05
-3.66044e-05
-7.97906e-06
-3.69696e-05
-5.31097e-08
-3.72071e-05
7.4354e-06
-3.73133e-05
1.44215e-05
-3.72914e-05
2.08304e-05
-3.71166e-05
2.661e-05
-3.68181e-05
3.17111e-05
-3.64071e-05
3.60853e-05
-3.58913e-05
3.96672e-05
-3.52749e-05
4.24064e-05
-3.45747e-05
4.42781e-05
-3.38239e-05
4.52593e-05
-3.30302e-05
4.53328e-05
-3.22032e-05
4.44939e-05
-3.13656e-05
4.27665e-05
-3.05429e-05
4.01829e-05
-2.97544e-05
3.6785e-05
-2.90084e-05
3.26501e-05
-2.83445e-05
2.7866e-05
-2.77723e-05
2.24695e-05
-2.72732e-05
1.63963e-05
-2.65324e-05
1.04966e-05
-2.72305e-05
6.88546e-06
-3.27217e-05
-2.33634e-05
-6.37953e-05
0.000252754
-0.000102718
0.000156148
-0.000142337
0.000160541
-0.00018737
0.000181999
-0.000235987
0.000195411
-0.000285831
0.000199517
-0.000335603
0.000199022
-0.000384982
0.000197526
-0.000434025
0.000196381
-0.000482856
0.000195661
-0.000531525
0.000195088
-0.000580041
0.00019451
-0.000628404
0.00019388
-0.00067661
0.000193206
-0.000724658
0.000192499
-0.000772534
0.000191752
-0.000820252
0.000190983
-0.000867808
0.000190175
-0.000915179
0.000189293
-0.000962353
0.000188349
-0.00100931
0.000187311
-0.00105604
0.000186175
-0.00110249
0.000184906
-0.00114865
0.000183507
-0.00119445
0.000181948
-0.00123987
0.00018022
-0.00128484
0.000178313
-0.00132933
0.000176221
-0.00137327
0.000173917
-0.00141661
0.000171404
-0.0014593
0.000168681
-0.00150126
0.000165736
-0.00154245
0.000162572
-0.0015828
0.000159187
-0.00162226
0.000155585
-0.00166076
0.00015177
-0.00169826
0.000147747
-0.0017347
0.000143517
-0.00177003
0.00013909
-0.0018042
0.000134473
-0.00183716
0.000129674
-0.00186886
0.000124702
-0.00189928
0.000119574
-0.00192837
0.000114291
-0.00195608
0.000108866
-0.00198238
0.000103311
-0.00200723
9.76335e-05
-0.0020306
9.18388e-05
-0.00205245
8.59394e-05
-0.00207275
7.99363e-05
-0.00209149
7.38535e-05
-0.00210866
6.76959e-05
-0.00212423
6.1462e-05
-0.0021382
5.51751e-05
-0.00215055
4.88405e-05
-0.00216128
4.24704e-05
-0.00217038
3.60742e-05
-0.00217784
2.96624e-05
-0.00218366
2.32437e-05
-0.00218781
1.6828e-05
-0.0021903
1.0425e-05
-0.00219113
4.03798e-06
-0.00219028
-2.33973e-06
-0.00218781
-8.68745e-06
-0.00218372
-1.50072e-05
-0.00217804
-2.12891e-05
-0.0021708
-2.75197e-05
-0.00216201
-3.36955e-05
-0.00215171
-3.98015e-05
-0.0021399
-4.58291e-05
-0.0021266
-5.17704e-05
-0.00211184
-5.76181e-05
-0.00209563
-6.33626e-05
-0.00207801
-6.90018e-05
-0.00205899
-7.45323e-05
-0.0020386
-7.99463e-05
-0.00201687
-8.52366e-05
-0.00199384
-9.04052e-05
-0.00196954
-9.54473e-05
-0.00194399
-0.000100355
-0.00191724
-0.000105129
-0.00188932
-0.000109769
-0.00186026
-0.000114265
-0.00183011
-0.000118618
-0.0017989
-0.00012283
-0.00176667
-0.000126893
-0.00173345
-0.000130809
-0.00169929
-0.000134576
-0.00166422
-0.000138194
-0.0016283
-0.000141657
-0.00159157
-0.000144972
-0.00155406
-0.000148136
-0.00151584
-0.000151144
-0.00147693
-0.000153994
-0.00143739
-0.000156684
-0.00139725
-0.00015921
-0.00135655
-0.000161569
-0.00131532
-0.000163759
-0.00127358
-0.000165784
-0.00123137
-0.000167642
-0.00118872
-0.000169338
-0.00114567
-0.000170873
-0.00110226
-0.000172251
-0.00105853
-0.000173475
-0.00101451
-0.000174548
-0.000970251
-0.000175472
-0.000925786
-0.00017625
-0.000881156
-0.000176884
-0.0008364
-0.000177375
-0.000791556
-0.000177725
-0.000746663
-0.000177936
-0.000701755
-0.000178009
-0.000656864
-0.000177949
-0.000612028
-0.000177752
-0.000567281
-0.000177425
-0.000522656
-0.000176967
-0.000478189
-0.00017638
-0.000433909
-0.000175668
-0.000389848
-0.000174833
-0.000346038
-0.000173875
-0.000302512
-0.000172799
-0.0002593
-0.000171604
-0.000216424
-0.000170298
-0.000173928
-0.000168871
-0.000131831
-0.00016734
-9.01593e-05
-0.0001657
-4.89424e-05
-0.000163954
-8.21326e-06
-0.000162097
3.20082e-05
-0.000160146
7.16945e-05
-0.000158095
0.000110821
-0.000155946
0.000149364
-0.000153702
0.0001873
-0.000151367
0.000224606
-0.000148942
0.000261262