/*--------------------------------*- C++ -*----------------------------------*\
| =========                 |                                                 |
| \\      /  F ield         | OpenFOAM: The Open Source CFD Toolbox           |
|  \\    /   O peration     | Version:  v2006                                 |
|   \\  /    A nd           | Website:  www.openfoam.com                      |
|    \\/     M anipulation  |                                                 |
\*---------------------------------------------------------------------------*/
FoamFile
{
    version     2.0;
    format      ascii;
    class       volScalarField;
    location    "0";
    object      p;
}
// * * * * * * * * * * * * * * * * * * * * * * * * * * * * * * * * * * * * * //

dimensions      [1 -1 -2 0 0 0 0];


internalField   nonuniform List<scalar> 
67500
(
669.282
675.665
665.784
662.082
657.344
649.95
640.973
630.817
619.499
607.126
593.816
579.687
564.868
549.483
533.648
517.476
501.072
484.534
467.951
451.403
434.961
418.69
402.644
386.87
371.408
356.292
341.548
327.199
313.261
299.747
286.664
274.019
261.812
250.044
238.711
227.809
217.332
207.273
197.621
188.369
179.506
171.021
162.902
155.139
147.72
140.633
133.866
127.407
121.246
115.37
109.768
104.429
99.3428
94.4983
89.8854
85.4942
81.315
77.3384
73.5555
69.9575
66.5361
63.2832
60.1909
57.2519
54.4589
51.805
49.2837
46.8886
44.6137
42.453
40.4012
38.4528
36.6028
34.8464
33.1788
31.5958
30.093
28.6665
27.3124
26.027
24.807
23.6489
22.5496
21.5061
20.5156
19.5752
18.6825
17.8349
17.0302
16.266
15.5403
14.851
14.1963
13.5743
12.9834
12.4218
11.888
11.3806
10.8982
10.4394
10.003
9.58789
9.19284
8.81684
8.45888
8.11802
7.79336
7.48406
7.18932
6.90837
6.6405
6.38504
6.14134
5.90879
5.68682
5.47489
5.27249
5.07912
4.89433
4.71768
4.54876
4.38717
4.23256
4.08456
3.94285
3.80711
3.67704
3.55237
3.43282
3.31814
3.2081
3.10246
3.00101
2.90355
2.80989
2.71983
2.63322
2.54987
2.46964
2.39239
2.31796
2.24622
2.17706
2.11035
2.04598
1.98384
1.92383
1.86585
1.80981
1.75563
1.70323
1.65252
1.60343
1.5559
1.50985
1.46523
1.42197
1.38003
1.33934
1.29985
1.26153
1.22432
1.18818
1.15307
1.11895
1.08578
1.05354
1.02219
0.991698
0.962034
0.93317
0.905082
0.877744
0.851133
0.825226
0.800002
0.775441
0.751524
0.728232
0.705549
0.683457
0.661942
0.640988
0.620582
0.600709
0.581357
0.562514
0.544167
0.526307
0.508921
0.492001
0.475535
0.459515
0.443932
0.428777
0.414041
0.399717
0.385796
0.372272
0.359137
0.346384
0.334006
0.321995
0.310346
0.299053
0.288107
0.277503
0.267235
0.257297
0.247681
0.238382
0.229393
0.220708
0.212321
0.204226
0.196415
0.188883
0.181623
0.174629
0.167894
0.161412
0.155176
0.14918
0.143418
0.137883
0.132568
0.127468
0.122574
0.117883
0.113386
0.109077
0.104951
0.101
0.0972201
0.0936038
0.0901459
0.0868407
0.0836828
0.0806669
0.0777879
0.0750409
0.072421
0.0699234
0.0675435
0.0652767
0.0631185
0.0610643
0.0591096
0.0572499
0.0554806
0.0537972
0.0521954
0.0506709
0.0492195
0.0478372
0.0465199
0.0452639
0.0440656
0.0429215
0.0418283
0.040783
0.0397827
0.0388248
0.0379066
0.0370257
0.03618
0.0353673
0.0345856
0.0338332
0.0331083
0.0324095
0.0317354
0.0310846
0.0304559
0.0298482
0.0292604
0.0286914
0.0281402
0.0276059
0.0270877
0.0265849
0.0260968
0.0256226
0.0251617
0.0247136
0.0242776
0.0238532
0.0234399
0.0230373
0.0226448
0.0222621
0.0218887
0.0215243
0.0211686
0.020821
0.0204815
0.0201496
0.0198251
0.0195077
0.0191971
0.0188931
0.0185954
0.0183039
0.0180183
0.0177384
0.017464
0.0171949
0.0169309
0.016672
0.0164178
0.0161683
0.0159234
0.0156829
0.0154467
0.0152146
0.0149865
0.0147622
0.0145417
0.0143247
0.0141114
0.0139015
0.0136951
0.013492
0.0132923
0.0130956
0.0129021
0.0127114
0.0125236
0.0123385
0.0121561
0.0119764
0.0117992
0.0116247
0.0114526
0.011283
0.0111159
0.010951
0.0107884
0.010628
0.0104697
0.0103134
0.0101592
0.010007
0.00985678
0.00970853
0.0095622
0.00941776
0.00927516
0.00913433
0.00899521
0.00885776
0.00872193
0.00858769
0.00845502
0.00832392
0.00819436
0.00806632
0.00793979
0.00781472
0.00769106
0.00756879
0.00744787
0.00732828
0.00721001
0.00709307
0.00697745
0.00686315
0.00675018
0.00663849
0.00652806
0.00641885
0.00631082
0.00620394
0.00609819
0.00599356
0.00589003
0.00578758
0.00568619
0.00558583
0.00548646
0.00538804
0.00529054
0.00519392
0.00509818
0.00500329
0.00490926
0.00481605
0.00472367
0.0046321
0.00454131
0.00445128
0.00436199
0.00427343
0.00418559
0.00409847
0.00401206
0.00392636
0.00384136
0.00375705
0.0036734
0.00359042
0.00350807
0.00342635
0.00334524
0.00326473
0.00318481
0.00310546
0.00302666
0.00294839
0.00287064
0.00279338
0.00271661
0.00264031
0.00256448
0.00248911
0.00241419
0.0023397
0.00226564
0.00219196
0.00211864
0.00204565
0.00197298
0.00190059
0.00182849
0.00175668
0.00168515
0.0016139
0.00154294
0.00147227
0.00140187
0.00133173
0.00126184
0.00119217
0.00112273
0.00105351
0.000984485
0.000915665
0.000847036
0.000778586
0.000710302
0.000642165
0.000574156
0.00050626
0.000438459
0.000370738
0.00030309
0.000235488
0.000167989
0.000100368
3.38457e-05
668.226
674.656
664.707
661.121
656.374
648.946
639.96
629.8
618.478
606.098
592.781
578.647
563.824
548.437
532.604
516.436
500.039
483.51
466.939
450.406
433.982
417.731
401.706
385.955
370.518
355.427
340.71
326.388
312.477
298.99
285.935
273.317
261.137
249.395
238.089
227.213
216.761
206.725
197.098
187.868
179.027
170.563
162.465
154.722
147.322
140.253
133.504
127.062
120.917
115.057
109.47
104.145
99.0728
94.2413
89.641
85.2616
81.0938
77.1281
73.3556
69.7675
66.3555
63.1116
60.0279
57.097
54.3118
51.6653
49.1511
46.7627
44.4941
42.3395
40.2935
38.3506
36.5058
34.7544
33.0915
31.513
30.0145
28.592
27.2418
25.9601
24.7435
23.5888
22.4926
21.4521
20.4644
19.5267
18.6365
17.7914
16.9889
16.2269
15.5033
14.816
14.1632
13.543
12.9537
12.3936
11.8614
11.3554
10.8743
10.4168
9.98163
9.56761
9.17364
8.79865
8.44165
8.1017
7.7779
7.46941
7.17543
6.89521
6.62803
6.37321
6.13012
5.89815
5.67673
5.46532
5.26341
5.0705
4.88615
4.70992
4.54139
4.38018
4.22592
4.07825
3.93686
3.80141
3.67163
3.54722
3.42793
3.31349
3.20368
3.09826
2.99702
2.89975
2.80627
2.71639
2.62994
2.54675
2.46667
2.38955
2.31525
2.24365
2.17461
2.10801
2.04374
1.98171
1.92179
1.8639
1.80796
1.75386
1.70153
1.65089
1.60188
1.55441
1.50843
1.46386
1.42066
1.37877
1.33813
1.29869
1.26041
1.22324
1.18714
1.15207
1.11799
1.08486
1.05265
1.02133
0.990868
0.961231
0.932394
0.904331
0.877017
0.850428
0.824542
0.799338
0.774797
0.750898
0.727623
0.704956
0.68288
0.66138
0.640441
0.620047
0.600188
0.580848
0.562016
0.543681
0.525831
0.508456
0.491545
0.475089
0.459078
0.443504
0.428357
0.413629
0.399313
0.3854
0.371883
0.358755
0.346009
0.333637
0.321634
0.309992
0.298704
0.287765
0.277168
0.266906
0.256974
0.247364
0.238071
0.229089
0.220411
0.21203
0.203941
0.196136
0.188611
0.181357
0.17437
0.167641
0.161165
0.154936
0.148947
0.143191
0.137662
0.132354
0.12726
0.122373
0.117688
0.113197
0.108895
0.104775
0.10083
0.0970559
0.0934454
0.0899931
0.0866933
0.0835407
0.0805299
0.0776559
0.0749137
0.0722985
0.0698055
0.0674302
0.065168
0.0630144
0.0609648
0.0590146
0.0571594
0.0553945
0.0537155
0.052118
0.0505977
0.0491504
0.047772
0.0464585
0.0452061
0.0440112
0.0428704
0.0417803
0.0407379
0.0397403
0.0387849
0.0378691
0.0369905
0.0361469
0.0353361
0.0345562
0.0338054
0.0330821
0.0323848
0.031712
0.0310625
0.030435
0.0298284
0.0292416
0.0286736
0.0281232
0.0275898
0.0270724
0.0265703
0.0260828
0.0256093
0.025149
0.0247015
0.024266
0.0238421
0.0234293
0.0230271
0.022635
0.0222527
0.0218797
0.0215157
0.0211603
0.0208131
0.0204738
0.0201422
0.019818
0.0195008
0.0191905
0.0188867
0.0185893
0.018298
0.0180126
0.0177329
0.0174587
0.0171898
0.016926
0.0166671
0.0164131
0.0161638
0.015919
0.0156787
0.0154426
0.0152106
0.0149826
0.0147584
0.014538
0.0143212
0.0141079
0.0138981
0.0136918
0.0134889
0.0132892
0.0130927
0.0128992
0.0127086
0.0125208
0.0123358
0.0121535
0.0119738
0.0117967
0.0116222
0.0114502
0.0112807
0.0111136
0.0109488
0.0107862
0.0106259
0.0104676
0.0103114
0.0101572
0.010005
0.00985482
0.00970661
0.00956033
0.00941594
0.00927338
0.00913259
0.00899351
0.00885609
0.00872028
0.00858607
0.00845343
0.00832236
0.00819284
0.00806484
0.00793834
0.00781331
0.00768968
0.00756743
0.00744653
0.00732696
0.0072087
0.00709178
0.00697618
0.00686192
0.00674897
0.00663732
0.00652691
0.00641772
0.00630971
0.00620284
0.00609711
0.00599249
0.00588899
0.00578657
0.00568521
0.00558488
0.00548553
0.00538713
0.00528964
0.00519304
0.00509731
0.00500244
0.00490842
0.00481523
0.00472287
0.00463132
0.00454054
0.00445052
0.00436125
0.0042727
0.00418487
0.00409776
0.00401137
0.00392568
0.0038407
0.0037564
0.00367277
0.0035898
0.00350747
0.00342576
0.00334466
0.00326417
0.00318426
0.00310493
0.00302614
0.00294789
0.00287015
0.0027929
0.00271614
0.00263985
0.00256404
0.00248868
0.00241378
0.00233932
0.00226527
0.00219161
0.0021183
0.00204533
0.00197266
0.00190029
0.0018282
0.00175639
0.00168486
0.00161363
0.00154268
0.00147202
0.00140164
0.00133151
0.00126162
0.00119197
0.00112254
0.00105332
0.000984308
0.0009155
0.000846885
0.000778451
0.00071018
0.000642056
0.00057406
0.000506174
0.000438383
0.000370673
0.000303035
0.000235443
0.000167957
0.000100348
3.38392e-05
666.098
672.619
662.589
659.153
654.4
646.925
637.924
627.757
616.423
604.031
590.701
576.557
561.728
546.339
530.508
514.349
497.966
481.457
464.911
448.409
432.021
415.809
399.827
384.123
368.735
353.696
339.032
324.764
310.908
297.476
284.476
271.912
259.787
248.099
236.844
226.02
215.618
205.631
196.05
186.867
178.07
169.649
161.592
153.889
146.527
139.495
132.781
126.374
120.261
114.432
108.874
103.579
98.5333
93.728
89.1525
84.7971
80.652
76.708
72.9562
69.3879
65.9947
62.7687
59.7022
56.7876
54.0179
51.3862
48.8861
46.5111
44.2552
42.1128
40.0783
38.1464
36.3121
34.5706
32.9172
31.3477
29.8577
28.4433
27.1008
25.8265
24.6168
23.4686
22.3788
21.3442
20.3621
19.4299
18.5448
17.7045
16.9066
16.149
15.4295
14.7461
14.0969
13.4803
12.8943
12.3374
11.8082
11.305
10.8266
10.3716
9.93887
9.52712
9.13529
8.76233
8.40725
8.06911
7.74702
7.44015
7.1477
6.86893
6.60311
6.34959
6.10772
5.87691
5.65658
5.44621
5.24527
5.0533
4.86982
4.69442
4.52668
4.36621
4.21265
4.06565
3.92489
3.79004
3.66082
3.53695
3.41817
3.30421
3.19485
3.08986
2.98903
2.89215
2.79904
2.7095
2.62338
2.54051
2.46072
2.38389
2.30986
2.2385
2.1697
2.10333
2.03928
1.97744
1.91772
1.86002
1.80424
1.75031
1.69814
1.64765
1.59877
1.55143
1.50557
1.46113
1.41804
1.37626
1.33572
1.29638
1.25819
1.2211
1.18508
1.15009
1.11608
1.08302
1.05088
1.01962
0.98921
0.959628
0.930844
0.90283
0.875563
0.849019
0.823176
0.798012
0.773509
0.749646
0.726406
0.703772
0.681728
0.660257
0.639346
0.61898
0.599146
0.579831
0.561022
0.54271
0.524881
0.507526
0.490635
0.474198
0.458205
0.442648
0.427517
0.412806
0.398505
0.384607
0.371105
0.357991
0.345259
0.332901
0.320911
0.309282
0.298007
0.287081
0.276496
0.266247
0.256328
0.246731
0.237451
0.228481
0.219815
0.211447
0.203371
0.195579
0.188066
0.180826
0.173851
0.167135
0.160673
0.154456
0.14848
0.142737
0.137221
0.131926
0.126844
0.121971
0.117298
0.11282
0.10853
0.104422
0.10049
0.0967277
0.0931288
0.0896877
0.0863987
0.0832566
0.080256
0.0773918
0.0746592
0.0720535
0.0695698
0.0672038
0.0649507
0.0628063
0.0607658
0.0588247
0.0569784
0.0552225
0.0535523
0.0519634
0.0504515
0.0490123
0.0476418
0.0463359
0.0450907
0.0439027
0.0427684
0.0416844
0.0406478
0.0396557
0.0387054
0.0377943
0.0369201
0.0360806
0.0352737
0.0344974
0.03375
0.0330298
0.0323354
0.0316653
0.0310184
0.0303933
0.0297889
0.0292042
0.028638
0.0280894
0.0275576
0.0270417
0.0265411
0.026055
0.0255827
0.0251237
0.0246772
0.0242428
0.0238199
0.023408
0.0230067
0.0226155
0.022234
0.0218618
0.0214985
0.0211437
0.0207972
0.0204585
0.0201275
0.0198038
0.0194872
0.0191773
0.0188741
0.0185771
0.0182862
0.0180012
0.0177219
0.0174481
0.0171795
0.016916
0.0166575
0.0164038
0.0161547
0.0159103
0.0156702
0.0154343
0.0152026
0.0149749
0.0147509
0.0145307
0.0143141
0.014101
0.0138915
0.0136853
0.0134826
0.0132831
0.0130867
0.0128933
0.0127029
0.0125153
0.0123304
0.0121482
0.0119686
0.0117916
0.0116172
0.0114454
0.011276
0.011109
0.0109443
0.0107818
0.0106215
0.0104633
0.0103072
0.0101531
0.010001
0.00985091
0.00970279
0.00955659
0.00941229
0.0092698
0.00912908
0.00899007
0.00885271
0.00871697
0.00858283
0.00845026
0.00831926
0.00818981
0.00806188
0.00793545
0.00781048
0.00768691
0.00756471
0.00744386
0.00732433
0.00720613
0.00708925
0.00697372
0.00685951
0.00674662
0.00663501
0.00652464
0.00641549
0.0063075
0.00620067
0.00609498
0.00599041
0.00588694
0.00578457
0.00568326
0.00558296
0.00548365
0.00538529
0.00528783
0.00519127
0.00509557
0.00500073
0.00490674
0.00481359
0.00472127
0.00462974
0.004539
0.00444901
0.00435976
0.00427124
0.00418345
0.00409637
0.00401001
0.00392436
0.0038394
0.00375513
0.00367153
0.00358858
0.00350627
0.00342459
0.00334352
0.00326305
0.00318318
0.00310387
0.00302512
0.00294689
0.00286918
0.00279196
0.00271523
0.00263897
0.00256318
0.00248786
0.00241298
0.00233855
0.00226453
0.0021909
0.00211762
0.00204467
0.00197203
0.00189967
0.0018276
0.00175582
0.00168432
0.00161311
0.00154219
0.00147155
0.00140118
0.00133107
0.00126121
0.00119157
0.00112216
0.00105296
0.000983978
0.000915194
0.000846604
0.000778193
0.000709945
0.000641843
0.000573867
0.000506002
0.000438231
0.000370542
0.000302926
0.000235357
0.000167895
0.00010031
3.38262e-05
662.865
669.523
659.418
656.136
651.382
643.861
634.843
624.664
613.315
600.904
587.558
573.4
558.563
543.172
527.347
511.201
494.841
478.363
461.858
445.402
429.069
412.918
397.003
381.37
366.057
351.096
336.512
322.326
308.553
295.205
282.288
269.807
257.763
246.155
234.979
224.231
213.904
203.991
194.481
185.366
176.636
168.279
160.285
152.641
145.336
138.36
131.699
125.342
119.278
113.495
107.983
102.73
97.7256
92.9594
88.4213
84.1016
79.9906
76.0791
72.3583
68.8196
65.4546
62.2555
59.2146
56.3244
53.578
50.9685
48.4894
46.1345
43.8978
41.7735
39.7563
37.8409
36.0222
34.2955
32.6563
31.1002
29.623
28.2208
26.8898
25.6264
24.4272
23.2889
22.2084
21.1828
20.2092
19.2849
18.4075
17.5744
16.7834
16.0323
15.3189
14.6414
13.9979
13.3864
12.8055
12.2534
11.7286
11.2297
10.7553
10.3041
9.87489
9.46653
9.07791
8.70799
8.35577
8.02034
7.70082
7.39637
7.10621
6.8296
6.56583
6.31424
6.0742
5.84512
5.62644
5.41761
5.21814
5.02755
4.84539
4.67122
4.50466
4.3453
4.1928
4.04679
3.90697
3.77302
3.64465
3.52159
3.40356
3.29032
3.18164
3.0773
2.97708
2.88078
2.78821
2.6992
2.61357
2.53116
2.45182
2.37541
2.30178
2.2308
2.16235
2.09632
2.03259
1.97106
1.91163
1.8542
1.79868
1.74499
1.69305
1.64279
1.59412
1.54698
1.50131
1.45704
1.41412
1.37249
1.3321
1.29291
1.25485
1.21789
1.182
1.14712
1.11321
1.08026
1.04821
1.01704
0.986726
0.957228
0.928522
0.900582
0.873386
0.846909
0.821129
0.796026
0.77158
0.747771
0.724583
0.701999
0.680001
0.658575
0.637706
0.61738
0.597584
0.578306
0.559533
0.541253
0.523457
0.506133
0.489271
0.472862
0.456896
0.441364
0.426259
0.411572
0.397294
0.383419
0.369939
0.356846
0.344135
0.331797
0.319827
0.308217
0.296962
0.286055
0.275489
0.265259
0.255359
0.245781
0.236519
0.227569
0.218922
0.210573
0.202516
0.194743
0.18725
0.180028
0.173073
0.166377
0.159933
0.153736
0.147779
0.142056
0.136559
0.131283
0.126221
0.121367
0.116714
0.112255
0.107984
0.103894
0.0999806
0.0962359
0.0926543
0.08923
0.0859573
0.0828308
0.0798454
0.076996
0.0742778
0.0716862
0.0692165
0.0668642
0.0646249
0.0624941
0.0604673
0.0585398
0.0567071
0.0549645
0.0533075
0.0517316
0.0502324
0.0488055
0.0474468
0.0461523
0.044918
0.0437403
0.0426158
0.0415411
0.0405132
0.0395292
0.0385865
0.0376825
0.0368149
0.0359816
0.0351804
0.0344095
0.0336671
0.0329517
0.0322616
0.0315957
0.0309525
0.0303309
0.0297298
0.0291481
0.0285847
0.0280388
0.0275094
0.0269959
0.0264974
0.0260133
0.0255429
0.0250857
0.0246409
0.0242081
0.0237867
0.0233762
0.0229763
0.0225864
0.0222061
0.021835
0.0214728
0.021119
0.0207734
0.0204356
0.0201054
0.0197825
0.0194667
0.0191576
0.0188551
0.0185588
0.0182686
0.0179842
0.0177054
0.0174321
0.0171641
0.0169011
0.0166431
0.0163898
0.0161412
0.0158971
0.0156574
0.015422
0.0151906
0.0149632
0.0147396
0.0145197
0.0143034
0.0140907
0.0138814
0.0136756
0.0134731
0.0132739
0.0130777
0.0128846
0.0126944
0.0125069
0.0123222
0.0121402
0.0119608
0.0117841
0.0116099
0.0114382
0.0112689
0.0111021
0.0109375
0.0107752
0.010615
0.010457
0.010301
0.010147
0.00999502
0.00984506
0.00969706
0.00955099
0.0094068
0.00926443
0.00912382
0.00898491
0.00884765
0.00871201
0.00857797
0.00844551
0.00831461
0.00818527
0.00805745
0.00793111
0.00780623
0.00768274
0.00756063
0.00743985
0.0073204
0.00720228
0.00708549
0.00697004
0.00685591
0.00674309
0.00663155
0.00652124
0.00641213
0.0063042
0.00619743
0.00609179
0.00598728
0.00588389
0.00578158
0.00568033
0.0055801
0.00548084
0.00538253
0.00528512
0.0051886
0.00509295
0.00499817
0.00490423
0.00481113
0.00471886
0.00462738
0.00453668
0.00444674
0.00435754
0.00426907
0.00418132
0.00409429
0.00400798
0.00392237
0.00383746
0.00375324
0.00366967
0.00358676
0.00350449
0.00342284
0.00334181
0.00326139
0.00318155
0.00310229
0.00302358
0.0029454
0.00286773
0.00279055
0.00271386
0.00263765
0.0025619
0.00248662
0.00241179
0.0023374
0.00226342
0.00218983
0.00211659
0.00204368
0.00197107
0.00189875
0.00182671
0.00175496
0.0016835
0.00161233
0.00154144
0.00147084
0.0014005
0.00133042
0.00126059
0.00119098
0.0011216
0.00105244
0.000983488
0.00091474
0.000846184
0.000777808
0.000709593
0.000641523
0.000573579
0.000505744
0.000438004
0.000370346
0.000302763
0.000235228
0.000167801
0.000100253
3.38066e-05
658.475
665.316
655.154
652.023
647.277
639.714
630.679
620.487
609.119
596.687
583.32
569.147
554.301
538.911
523.096
506.972
490.645
474.213
457.763
441.374
425.116
409.049
393.225
377.689
362.478
347.623
333.148
319.073
305.412
292.175
279.37
267
255.065
243.565
232.495
221.85
211.623
201.807
192.392
183.369
174.728
166.456
158.544
150.98
143.752
136.849
130.259
123.97
117.971
112.25
106.797
101.601
96.6514
91.9373
87.449
83.1767
79.1111
75.2429
71.5633
68.064
64.7366
61.5732
58.5664
55.7087
52.9932
50.4131
47.9621
45.6338
43.4225
41.3225
39.3283
37.4347
35.6368
33.93
32.3095
30.7713
29.3111
27.925
26.6093
25.3605
24.1751
23.05
21.982
20.9682
20.0058
19.0923
18.225
17.4015
16.6197
15.8772
15.1721
14.5024
13.8662
13.2618
12.6875
12.1416
11.6228
11.1295
10.6604
10.2143
9.78989
9.38604
9.00168
8.63579
8.28738
7.95556
7.63944
7.3382
7.05109
6.77735
6.5163
6.26728
6.02967
5.80289
5.58638
5.37961
5.18208
4.99333
4.81291
4.6404
4.4754
4.31752
4.16641
4.02174
3.88317
3.75041
3.62316
3.50116
3.38414
3.27186
3.16409
3.0606
2.96119
2.86566
2.77383
2.68551
2.60053
2.51875
2.44
2.36414
2.29103
2.22056
2.15259
2.08701
2.02371
1.96258
1.90353
1.84646
1.79129
1.73793
1.6863
1.63632
1.58793
1.54105
1.49563
1.4516
1.4089
1.36749
1.3273
1.28829
1.25041
1.21363
1.17789
1.14316
1.10941
1.07659
1.04467
1.01362
0.983422
0.954033
0.925431
0.897591
0.870488
0.8441
0.818405
0.793382
0.769012
0.745276
0.722157
0.699637
0.677701
0.656334
0.635522
0.61525
0.595505
0.576275
0.557549
0.539314
0.52156
0.504277
0.487454
0.471082
0.455152
0.439655
0.424583
0.409927
0.395681
0.381835
0.368384
0.35532
0.342636
0.330325
0.318382
0.306798
0.295569
0.284687
0.274147
0.263942
0.254067
0.244514
0.235278
0.226352
0.217731
0.209407
0.201375
0.193629
0.186161
0.178965
0.172035
0.165365
0.158947
0.152776
0.146845
0.141148
0.135677
0.130427
0.125391
0.120562
0.115934
0.111501
0.107255
0.103191
0.0993016
0.0955807
0.0920223
0.0886204
0.0853694
0.0822639
0.0792987
0.0764689
0.0737698
0.0711968
0.0687456
0.0664116
0.0641906
0.062078
0.0600694
0.0581601
0.0563455
0.0546209
0.0529816
0.051423
0.0499408
0.0485303
0.0471875
0.0459082
0.0446885
0.0435246
0.0424132
0.0413508
0.0403344
0.0393613
0.0384287
0.0375342
0.0366754
0.0358503
0.0350568
0.034293
0.0335573
0.032848
0.0321638
0.0315032
0.030865
0.0302481
0.0296513
0.0290736
0.0285139
0.0279715
0.0274454
0.0269349
0.0264393
0.0259579
0.0254901
0.0250352
0.0245927
0.024162
0.0237426
0.023334
0.0229358
0.0225476
0.0221689
0.0217993
0.0214385
0.021086
0.0207417
0.0204051
0.0200761
0.0197543
0.0194395
0.0191314
0.0188298
0.0185344
0.0182451
0.0179615
0.0176835
0.017411
0.0171436
0.0168813
0.0166238
0.0163712
0.0161232
0.0158797
0.0156405
0.0154056
0.0151747
0.0149478
0.0147246
0.0145052
0.0142893
0.014077
0.0138681
0.0136627
0.0134605
0.0132616
0.0130658
0.0128729
0.012683
0.0124958
0.0123114
0.0121296
0.0119505
0.011774
0.0116
0.0114286
0.0112595
0.0110929
0.0109285
0.0107663
0.0106064
0.0104485
0.0102926
0.0101388
0.00998706
0.00983727
0.00968943
0.00954353
0.00939949
0.00925727
0.00911679
0.00897802
0.0088409
0.0087054
0.0085715
0.00843918
0.00830843
0.00817922
0.00805154
0.00792533
0.00780056
0.00767719
0.00755518
0.00743451
0.00731517
0.00719717
0.00708049
0.00696515
0.00685112
0.00673839
0.00662693
0.0065167
0.00640767
0.00629981
0.00619311
0.00608755
0.00598313
0.00587982
0.00577759
0.00567642
0.00557627
0.00547709
0.00537884
0.00528151
0.00518505
0.00508947
0.00499475
0.00490088
0.00480785
0.00471564
0.00462423
0.0045336
0.00444371
0.00435457
0.00426616
0.00417848
0.00409152
0.00400527
0.00391973
0.00383488
0.00375071
0.0036672
0.00358433
0.00350211
0.00342051
0.00333953
0.00325916
0.00317939
0.00310018
0.00302153
0.00294341
0.0028658
0.00278868
0.00271205
0.00263589
0.0025602
0.00248497
0.0024102
0.00233587
0.00226194
0.0021884
0.00211522
0.00204235
0.00196979
0.00189752
0.00182553
0.00175383
0.00168242
0.00161129
0.00154045
0.00146989
0.00139959
0.00132956
0.00125976
0.0011902
0.00112086
0.00105174
0.000982839
0.000914137
0.000845628
0.000777296
0.000709125
0.000641097
0.000573194
0.000505401
0.000437702
0.000370086
0.000302546
0.000235056
0.000167676
0.000100177
3.37807e-05
652.854
659.925
649.734
646.752
642.025
634.429
625.381
615.177
603.79
591.336
577.948
563.76
548.908
533.523
517.727
501.635
485.355
468.984
452.608
436.307
420.147
404.189
388.483
373.073
357.993
343.273
328.936
315.002
301.482
288.388
275.724
263.493
251.696
240.331
229.393
218.878
208.777
199.083
189.787
180.878
172.348
164.183
156.375
148.91
141.778
134.966
128.464
122.259
116.341
110.699
105.32
100.195
95.3132
90.664
86.2377
82.0247
78.0156
74.2013
70.5732
67.1229
63.8423
60.7235
57.7591
54.9419
52.2649
49.7216
47.3054
45.0105
42.8308
40.7609
38.7953
36.929
35.157
33.4748
31.8778
30.3618
28.9228
27.5568
26.2602
25.0295
23.8614
22.7526
21.7001
20.7011
19.7528
18.8525
17.9978
17.1864
16.4159
15.6842
14.9893
14.3293
13.7024
13.1067
12.5406
12.0026
11.4912
11.0049
10.5425
10.1026
9.68412
9.28589
8.90684
8.54596
8.20229
7.87494
7.56306
7.26583
6.98249
6.71233
6.45466
6.20884
5.97425
5.75033
5.53652
5.33231
5.13721
4.95075
4.7725
4.60204
4.43898
4.28294
4.13357
3.99055
3.85354
3.72226
3.59641
3.47573
3.35997
3.24888
3.14223
3.03981
2.94142
2.84685
2.75592
2.66846
2.5843
2.50329
2.42527
2.3501
2.27766
2.20781
2.14043
2.07541
2.01264
1.95202
1.89344
1.83683
1.78209
1.72913
1.67788
1.62827
1.58022
1.53368
1.48856
1.44483
1.40241
1.36125
1.32131
1.28254
1.24489
1.20831
1.17277
1.13824
1.10466
1.07201
1.04025
1.00936
0.979303
0.950051
0.921579
0.893862
0.866876
0.840598
0.815008
0.790085
0.765809
0.742163
0.719129
0.696691
0.674833
0.653539
0.632797
0.612591
0.59291
0.573741
0.555073
0.536893
0.519192
0.501959
0.485185
0.46886
0.452974
0.43752
0.422489
0.407874
0.393666
0.379858
0.366443
0.353414
0.340764
0.328487
0.316576
0.305025
0.293828
0.282978
0.272469
0.262296
0.252452
0.24293
0.233726
0.224832
0.216242
0.20795
0.19995
0.192235
0.184799
0.177636
0.170738
0.1641
0.157715
0.151576
0.145678
0.140013
0.134574
0.129357
0.124353
0.119557
0.114961
0.11056
0.106346
0.102313
0.0984539
0.094763
0.0912336
0.0878599
0.084636
0.0815565
0.0786165
0.075811
0.0731356
0.0705858
0.0681574
0.0658461
0.0636478
0.061558
0.0595721
0.0576856
0.0558937
0.0541917
0.0525747
0.051038
0.0495771
0.0481874
0.0468646
0.0456044
0.0444029
0.0432564
0.0421612
0.0411142
0.0401123
0.0391527
0.0382328
0.03735
0.0365022
0.0356873
0.0349033
0.0341484
0.0334209
0.0327193
0.0320422
0.0313883
0.0307563
0.0301451
0.0295537
0.0289809
0.0284259
0.0278878
0.0273658
0.0268591
0.0263671
0.0258891
0.0254244
0.0249724
0.0245327
0.0241046
0.0236876
0.0232814
0.0228855
0.0224993
0.0221226
0.0217549
0.0213958
0.021045
0.0207022
0.0203671
0.0200395
0.0197191
0.0194056
0.0190988
0.0187983
0.0185041
0.0182158
0.0179332
0.0176562
0.0173845
0.017118
0.0168565
0.0165999
0.016348
0.0161007
0.0158579
0.0156194
0.0153851
0.0151548
0.0149285
0.0147059
0.014487
0.0142716
0.0140598
0.0138515
0.0136465
0.0134448
0.0132463
0.0130509
0.0128584
0.0126688
0.012482
0.0122979
0.0121164
0.0119376
0.0117614
0.0115877
0.0114165
0.0112478
0.0110814
0.0109172
0.0107553
0.0105955
0.0104379
0.0102823
0.0101287
0.00997712
0.00982754
0.00967992
0.00953421
0.00939036
0.00924832
0.00910802
0.00896942
0.00883248
0.00869715
0.00856342
0.00843128
0.0083007
0.00817167
0.00804415
0.00791809
0.00779347
0.00767024
0.00754837
0.00742784
0.00730864
0.00719078
0.00707424
0.00695904
0.00684514
0.00673252
0.00662117
0.00651103
0.00640209
0.00629433
0.00618772
0.00608227
0.00597794
0.00587473
0.00577261
0.00567154
0.00557148
0.00547239
0.00537423
0.00527698
0.00518062
0.00508512
0.00499049
0.00489671
0.00480376
0.00471163
0.00462029
0.00452973
0.00443993
0.00435087
0.00426254
0.00417494
0.00408806
0.00400189
0.00391643
0.00383165
0.00374754
0.0036641
0.0035813
0.00349914
0.00341761
0.00333669
0.00325639
0.00317668
0.00309755
0.00301897
0.00294093
0.00286339
0.00278635
0.00270978
0.00263369
0.00255808
0.00248292
0.00240822
0.00233395
0.0022601
0.00218662
0.00211349
0.00204069
0.00196819
0.00189598
0.00182405
0.00175241
0.00168106
0.00160999
0.00153921
0.0014687
0.00139846
0.00132847
0.00125873
0.00118922
0.00111994
0.00105088
0.000982031
0.000913386
0.000844934
0.000776657
0.00070854
0.000640565
0.000572714
0.000504972
0.000437325
0.000369762
0.000302276
0.000234842
0.00016752
0.000100083
3.37485e-05
645.9
653.256
643.071
640.245
635.553
627.937
618.884
608.673
597.27
584.795
571.39
557.19
542.338
526.967
511.2
495.155
478.938
462.648
446.37
430.18
414.146
398.325
382.766
367.511
352.593
338.039
323.873
310.11
296.764
283.841
271.349
259.287
247.657
236.455
225.677
215.317
205.368
195.822
186.668
177.898
169.5
161.464
153.779
146.434
139.416
132.715
126.318
120.215
114.394
108.844
103.555
98.5146
93.714
89.1425
84.7904
80.6482
76.7067
72.9569
69.3904
65.9987
62.774
59.7085
56.7948
54.026
51.3951
48.8956
46.5212
44.266
42.1241
40.0902
38.1588
36.3251
34.5841
32.9313
31.3623
29.8729
28.4591
27.1172
25.8434
24.6344
23.4868
22.3976
21.3636
20.3822
19.4506
18.5662
17.7267
16.9295
16.1726
15.4538
14.7712
14.1228
13.5068
12.9215
12.3653
11.8367
11.3341
10.8562
10.4017
9.96931
9.55792
9.16638
8.79366
8.43877
8.10076
7.77875
7.47191
7.17946
6.90063
6.63474
6.3811
6.13909
5.90811
5.6876
5.47702
5.27586
5.08365
4.89992
4.72426
4.55625
4.3955
4.24166
4.09437
3.95331
3.81817
3.68865
3.56447
3.44537
3.33111
3.22144
3.11614
3.01499
2.9178
2.82438
2.73453
2.6481
2.56492
2.48482
2.40768
2.33335
2.26169
2.19258
2.12591
2.06156
1.99942
1.9394
1.8814
1.82532
1.77109
1.71862
1.66783
1.61865
1.57102
1.52486
1.48012
1.43673
1.39464
1.3538
1.31416
1.27567
1.23828
1.20196
1.16666
1.13235
1.09898
1.06654
1.03497
1.00426
0.974376
0.945288
0.916971
0.8894
0.862554
0.836408
0.810943
0.786139
0.761976
0.738438
0.715506
0.693164
0.671398
0.650193
0.629534
0.609408
0.589803
0.570707
0.552107
0.533994
0.516356
0.499183
0.482467
0.466197
0.450365
0.434962
0.419981
0.405413
0.391251
0.377487
0.364115
0.351128
0.338519
0.326282
0.314411
0.302899
0.291739
0.280927
0.270457
0.260321
0.250514
0.24103
0.231863
0.223007
0.214455
0.206201
0.198239
0.190563
0.183166
0.176041
0.169182
0.162583
0.156236
0.150136
0.144277
0.13865
0.133251
0.128072
0.123108
0.11835
0.113793
0.109431
0.105255
0.10126
0.0974382
0.0937834
0.0902892
0.0869493
0.0837579
0.0807097
0.0777996
0.0750231
0.0723757
0.0698533
0.067452
0.0651678
0.0629965
0.0609339
0.0589754
0.0571164
0.055352
0.0536773
0.0520873
0.0505772
0.0491421
0.0477775
0.0464788
0.0452417
0.0440621
0.0429364
0.0418609
0.0408324
0.0398478
0.0389044
0.0379996
0.0371309
0.0362962
0.0354934
0.0347207
0.0339763
0.0332586
0.0325661
0.0318975
0.0312514
0.0306267
0.0300224
0.0294372
0.0288704
0.0283209
0.0277879
0.0272708
0.0267686
0.0262809
0.0258069
0.0253459
0.0248975
0.024461
0.024036
0.0236221
0.0232186
0.0228253
0.0224416
0.0220672
0.0217017
0.0213447
0.0209959
0.020655
0.0203217
0.0199958
0.019677
0.0193651
0.0190597
0.0187607
0.0184677
0.0181807
0.0178993
0.0176235
0.0173529
0.0170874
0.0168269
0.0165712
0.0163202
0.0160738
0.0158318
0.0155941
0.0153606
0.015131
0.0149054
0.0146835
0.0144652
0.0142505
0.0140393
0.0138316
0.0136271
0.013426
0.0132279
0.0130329
0.0128409
0.0126517
0.0124653
0.0122816
0.0121006
0.0119222
0.0117463
0.011573
0.0114022
0.0112337
0.0110676
0.0109037
0.0107421
0.0105826
0.0104252
0.0102699
0.0101165
0.00996522
0.00981589
0.00966851
0.00952304
0.00937942
0.0092376
0.00909751
0.00895912
0.00882238
0.00868726
0.00855375
0.00842182
0.00829145
0.00816261
0.00803528
0.00790941
0.00778496
0.0076619
0.0075402
0.00741984
0.00730082
0.00718312
0.00706676
0.00695171
0.00683796
0.00672548
0.00661424
0.00650423
0.0063954
0.00628775
0.00618127
0.00607593
0.00597173
0.00586864
0.00576664
0.00566568
0.00556573
0.00546675
0.0053687
0.00527156
0.0051753
0.00507991
0.00498538
0.0048917
0.00479885
0.00470681
0.00461557
0.0045251
0.00443539
0.00434642
0.00425819
0.00417069
0.0040839
0.00399783
0.00391246
0.00382777
0.00374375
0.00366038
0.00357766
0.00349557
0.00341412
0.00333329
0.00325307
0.00317345
0.0030944
0.00301591
0.00293795
0.00286051
0.00278355
0.00270707
0.00263107
0.00255553
0.00248046
0.00240584
0.00233165
0.00225788
0.00218447
0.00211142
0.00203869
0.00196626
0.00189413
0.00182228
0.00175071
0.00167943
0.00160843
0.00153772
0.00146728
0.0013971
0.00132718
0.0012575
0.00118805
0.00111884
0.00104985
0.000981065
0.000912488
0.000844102
0.000775891
0.000707838
0.000639926
0.000572137
0.000504458