/*--------------------------------*- C++ -*----------------------------------*\
| =========                 |                                                 |
| \\      /  F ield         | OpenFOAM: The Open Source CFD Toolbox           |
|  \\    /   O peration     | Version:  v2006                                 |
|   \\  /    A nd           | Website:  www.openfoam.com                      |
|    \\/     M anipulation  |                                                 |
\*---------------------------------------------------------------------------*/
FoamFile
{
    version     2.0;
    format      ascii;
    class       surfaceScalarField;
    location    "1.9";
    object      phi;
}
// * * * * * * * * * * * * * * * * * * * * * * * * * * * * * * * * * * * * * //

dimensions      [0 3 -1 0 0 0 0];
oriented        oriented;


internalField   nonuniform List<scalar> 
99450
(
5.81906e-06
-5.81906e-06
2.10192e-05
-1.52002e-05
2.82206e-05
-7.20132e-06
4.15427e-05
-1.33222e-05
4.83958e-05
-6.85308e-06
6.12184e-05
-1.28226e-05
6.73213e-05
-6.10296e-06
7.9821e-05
-1.24997e-05
8.47618e-05
-4.94076e-06
9.68632e-05
-1.21014e-05
0.000100785
-3.92212e-06
0.000111816
-1.10306e-05
0.000115247
-3.43157e-06
0.000124333
-9.0852e-06
0.000127803
-3.47005e-06
0.000134329
-6.52622e-06
0.000137925
-3.59575e-06
0.000142092
-4.16777e-06
0.000145057
-2.96478e-06
0.000147629
-2.57201e-06
0.000149477
-1.84724e-06
0.000150692
-1.21559e-06
0.000151264
-5.71898e-07
0.000151248
1.56483e-08
0.000150653
5.94996e-07
0.00014949
1.16343e-06
0.000147806
1.68363e-06
0.000145607
2.19912e-06
0.000142946
2.66127e-06
0.000139849
3.09688e-06
0.000136345
3.5043e-06
0.000132502
3.84247e-06
0.000128328
4.17389e-06
0.000123896
4.43211e-06
0.000119215
4.68093e-06
0.000114328
4.88756e-06
0.00010926
5.06789e-06
0.000104032
5.2283e-06
9.86533e-05
5.37824e-06
9.3127e-05
5.52633e-06
8.74513e-05
5.67571e-06
8.16209e-05
5.83042e-06
7.56266e-05
5.99424e-06
6.94532e-05
6.17343e-06
6.30829e-05
6.37034e-06
5.64972e-05
6.5857e-06
4.9676e-05
6.82118e-06
4.26032e-05
7.07281e-06
3.52614e-05
7.34174e-06
2.76343e-05
7.62717e-06
1.97061e-05
7.92818e-06
1.14626e-05
8.24349e-06
2.89085e-06
8.57174e-06
-6.02094e-06
8.91179e-06
-1.52834e-05
9.26247e-06
-2.49059e-05
9.62254e-06
-3.48968e-05
9.99087e-06
-4.52631e-05
1.03663e-05
-5.60109e-05
1.07477e-05
-6.71447e-05
1.11338e-05
-7.86681e-05
1.15233e-05
-9.05828e-05
1.19147e-05
-0.000102889
1.23064e-05
-0.000115586
1.2697e-05
-0.000128671
1.30848e-05
-0.000142139
1.34682e-05
-0.000155984
1.38452e-05
-0.000170198
1.42134e-05
-0.000184767
1.45697e-05
-0.000199678
1.4911e-05
-0.000214915
1.52365e-05
-0.000230465
1.55496e-05
-0.000246323
1.58586e-05
-0.000262498
1.61746e-05
-0.000279001
1.65033e-05
-0.000295843
1.68422e-05
-0.000313034
1.7191e-05
-0.000330577
1.75429e-05
-0.000348466
1.78889e-05
-0.000366687
1.82213e-05
-0.000385222
1.85344e-05
-0.000404046
1.88237e-05
-0.00042313
1.90847e-05
-0.000442443
1.93127e-05
-0.000461946
1.95029e-05
-0.000481597
1.96508e-05
-0.000501349
1.97521e-05
-0.000521151
1.98027e-05
-0.000540949
1.9798e-05
-0.000560682
1.97325e-05
-0.000580282
1.95998e-05
-0.000599674
1.93923e-05
-0.000618775
1.91013e-05
-0.000637493
1.87177e-05
-0.000655726
1.82325e-05
-0.000673364
1.76379e-05
-0.000690292
1.69286e-05
-0.000706396
1.61037e-05
-0.000721563
1.51672e-05
-0.000735692
1.41287e-05
-0.000748696
1.30039e-05
-0.000760511
1.1815e-05
-0.000771099
1.05883e-05
-0.000780447
9.34836e-06
-0.00078856
8.11239e-06
-0.000795448
6.8886e-06
-0.000801125
5.67661e-06
-0.00080559
4.46537e-06
-0.000808845
3.25408e-06
-0.000810904
2.05993e-06
-0.000811788
8.83564e-07
-0.00081146
-3.27949e-07
-0.000809915
-1.54538e-06
-0.000807158
-2.75626e-06
-0.000803185
-3.97378e-06
-0.000797985
-5.19955e-06
-0.000791553
-6.43183e-06
-0.000783886
-7.66725e-06
-0.000774984
-8.90212e-06
-0.00076485
-1.01335e-05
-0.000753491
-1.13593e-05
-0.000740913
-1.25779e-05
-0.000727126
-1.37871e-05
-0.000712142
-1.49845e-05
-0.000695974
-1.61676e-05
-0.000678641
-1.73328e-05
-0.000660165
-1.84762e-05
-0.000640572
-1.95933e-05
-0.000619892
-2.06798e-05
-0.00059815
-2.17418e-05
-0.000575375
-2.27755e-05
-0.000551578
-2.37966e-05
-0.000526787
-2.47908e-05
-0.000501071
-2.57158e-05
-0.000474462
-2.66095e-05
-0.000446967
-2.74951e-05
-0.000418695
-2.82722e-05
-0.000389685
-2.90098e-05
-0.000359942
-2.97427e-05
-0.000329649
-3.02934e-05
-0.000298608
-3.10403e-05
-0.000266997
-3.16118e-05
-0.000235162
-3.1835e-05
-0.000201071
-3.40902e-05
-0.000169306
-3.17657e-05
-0.000133984
-3.53212e-05
-0.000100061
-3.39239e-05
-6.20152e-05
-3.80454e-05
-2.65958e-05
-3.54194e-05
-2.65958e-05
-1.10314e-06
-4.71592e-06
-2.52006e-06
-1.37833e-05
-1.18136e-07
-9.60325e-06
-4.88179e-06
-8.55852e-06
-2.18845e-06
-9.54641e-06
-6.87017e-06
-8.14085e-06
-3.67506e-06
-9.29807e-06
-8.47723e-06
-7.69749e-06
-4.67962e-06
-8.73838e-06
-9.57124e-06
-7.20978e-06
-5.44558e-06
-8.04777e-06
-9.91204e-06
-6.56416e-06
-6.02206e-06
-7.32155e-06
-9.35783e-06
-5.74943e-06
-6.29325e-06
-6.53463e-06
-7.96283e-06
-4.85664e-06
-5.99723e-06
-5.56135e-06
-6.05962e-06
-4.10538e-06
-4.8473e-06
-4.17711e-06
-4.09008e-06
-3.32923e-06
-3.0723e-06
-2.86502e-06
-2.07292e-06
-2.21497e-06
-1.04143e-06
-1.60338e-06
-5.35797e-08
-9.72206e-07
8.40612e-07
-2.99195e-07
1.65483e-06
3.49205e-07
2.31023e-06
1.02823e-06
2.78003e-06
1.72932e-06
3.01569e-06
2.42561e-06
2.96831e-06
3.14425e-06
2.61378e-06
3.85883e-06
1.87664e-06
4.57962e-06
7.49509e-07
5.30102e-06
-8.47465e-07
6.02909e-06
-2.92858e-06
6.76204e-06
-5.53652e-06
7.49551e-06
-8.69799e-06
8.22936e-06
-1.2435e-05
8.96536e-06
-1.67615e-05
9.70466e-06
-2.16854e-05
1.04503e-05
-2.7209e-05
1.11993e-05
-3.33319e-05
1.19534e-05
-4.00444e-05
1.27067e-05
-4.73401e-05
1.34692e-05
-5.52057e-05
1.42359e-05
-6.36243e-05
1.50043e-05
-7.25785e-05
1.57754e-05
-8.20515e-05
1.65458e-05
-9.20238e-05
1.7314e-05
-0.000102475
1.80784e-05
-0.000113384
1.88371e-05
-0.000124729
1.95884e-05
-0.000136487
2.03302e-05
-0.000148636
2.10606e-05
-0.000161151
2.17778e-05
-0.000174009
2.24797e-05
-0.000187182
2.31643e-05
-0.000200645
2.38296e-05
-0.000214371
2.44735e-05
-0.000228331
2.5094e-05
-0.000242497
2.5689e-05
-0.000256839
2.62564e-05
-0.000271326
2.67941e-05
-0.000285929
2.73e-05
-0.000300616
2.77719e-05
-0.000315356
2.82078e-05
-0.000330116
2.86054e-05
-0.000344865
2.89625e-05
-0.000359573
2.92771e-05
-0.000374209
2.9547e-05
-0.000388743
2.97708e-05
-0.000403141
2.99479e-05
-0.000417361
3.00788e-05
-0.000431351
3.01638e-05
-0.00044505
3.02026e-05
-0.000458402
3.01944e-05
-0.000471349
3.01373e-05
-0.000483835
3.00294e-05
-0.000495815
2.9869e-05
-0.000507248
2.96547e-05
-0.000518099
2.93853e-05
-0.000528335
2.90597e-05
-0.000537927
2.86769e-05
-0.000546851
2.82359e-05
-0.000555084
2.77359e-05
-0.000562609
2.71765e-05
-0.000569414
2.65572e-05
-0.00057549
2.58785e-05
-0.000580833
2.51406e-05
-0.000585445
2.43441e-05
-0.000589335
2.349e-05
-0.000592522
2.25792e-05
-0.000595034
2.16136e-05
-0.000596911
2.05951e-05
-0.000598205
1.95264e-05
-0.000598978
1.84105e-05
-0.0005993
1.72508e-05
-0.000599247
1.60505e-05
-0.000598892
1.48128e-05
-0.000598304
1.35401e-05
-0.000597533
1.22335e-05
-0.000596611
1.08927e-05
-0.000595538
9.51581e-06
-0.000594291
8.10047e-06
-0.000592823
6.64472e-06
-0.000591082
5.14755e-06
-0.000589012
3.60729e-06
-0.000586575
2.02814e-06
-0.000583727
4.05938e-07
-0.000580439
-1.22765e-06
-0.000576652
-2.90347e-06
-0.00057236
-4.61995e-06
-0.000567536
-6.36993e-06
-0.00056215
-8.14206e-06
-0.000556192
-9.93207e-06
-0.000549654
-1.17376e-05
-0.000542529
-1.35562e-05
-0.000534812
-1.53848e-05
-0.000526494
-1.72196e-05
-0.000517571
-1.90571e-05
-0.000508036
-2.08944e-05
-0.000497885
-2.27281e-05
-0.000487118
-2.45543e-05
-0.000475733
-2.637e-05
-0.00046373
-2.81706e-05
-0.000451111
-2.99511e-05
-0.00043788
-3.17071e-05
-0.000424038
-3.34355e-05
-0.000409588
-3.51305e-05
-0.000394543
-3.67869e-05
-0.000378911
-3.84072e-05
-0.000362713
-3.99948e-05
-0.000345975
-4.15282e-05
-0.000328698
-4.29932e-05
-0.000310886
-4.44213e-05
-0.000292576
-4.58056e-05
-0.000273756
-4.70922e-05
-0.000254463
-4.83023e-05
-0.000234712
-4.94936e-05
-0.000214485
-5.05202e-05
-0.000193969
-5.15562e-05
-0.000173109
-5.24727e-05
-0.000151667
-5.32769e-05
-0.000132032
-5.37246e-05
-0.000109161
-5.46367e-05
-9.03021e-05
-5.41803e-05
-6.81514e-05
-5.60746e-05
-4.60886e-05
-6.01082e-05
-1.18437e-05
-6.96644e-05
-3.84394e-05
1.36369e-06
-6.07961e-06
4.7376e-06
-1.71572e-05
8.39129e-06
-1.32569e-05
9.08705e-06
-9.25427e-06
1.2895e-05
-1.33544e-05
1.35102e-05
-8.75609e-06
1.75628e-05
-1.33507e-05
1.80357e-05
-8.17034e-06
2.22295e-05
-1.29322e-05
2.26604e-05
-7.6406e-06
2.67429e-05
-1.21303e-05
2.73839e-05
-7.2052e-06
3.09851e-05
-1.09228e-05
3.21101e-05
-6.87445e-06
3.49226e-05
-9.34708e-06
3.66235e-05
-6.55757e-06
3.86193e-05
-7.55711e-06
4.05403e-05
-6.0264e-06
4.2173e-05
-5.80987e-06
4.37817e-05
-4.93793e-06
4.51781e-05
-4.26141e-06
4.64425e-05
-3.47934e-06
4.74939e-05
-2.65477e-06
4.8334e-05
-1.81232e-06
4.89745e-05
-9.39645e-07
4.93555e-05
-3.17957e-08
4.94457e-05
9.38025e-07
4.92638e-05
1.91121e-06
4.87766e-05
2.91276e-06
4.79761e-05
3.94478e-06
4.68314e-05
5.00349e-06
4.53263e-05
6.08476e-06
4.34378e-05
7.1895e-06
4.11533e-05
8.31355e-06
3.84564e-05
9.45895e-06
3.53292e-05
1.06227e-05
3.17566e-05
1.18019e-05
2.77306e-05
1.29914e-05
2.32442e-05
1.41911e-05
1.82946e-05
1.53999e-05
1.28779e-05
1.66159e-05
6.9914e-06
1.78398e-05
6.4977e-07
1.90484e-05
-6.15048e-06
2.02694e-05
-1.3402e-05
2.14875e-05
-2.1094e-05
2.26963e-05
-2.92256e-05
2.3907e-05
-3.77877e-05
2.51079e-05
-4.67709e-05
2.62972e-05
-5.6165e-05
2.74725e-05
-6.59592e-05
2.86313e-05
-7.6142e-05
2.97712e-05
-8.67012e-05
3.08895e-05
-9.76242e-05
3.19835e-05
-0.000108897
3.30502e-05
-0.000120503
3.40865e-05
-0.000132428
3.50893e-05
-0.000144655
3.60561e-05
-0.000157166
3.69843e-05
-0.000169943
3.78712e-05
-0.000182968
3.8714e-05
-0.000196222
3.951e-05
-0.000209684
4.02567e-05
-0.000223336
4.09514e-05
-0.000237155
4.15917e-05
-0.000251123
4.21753e-05
-0.000265218
4.27001e-05
-0.000279419
4.31643e-05
-0.000293709
4.35663e-05
-0.000308066
4.39047e-05
-0.000322473
4.41778e-05
-0.000336909
4.43835e-05
-0.000351349
4.4519e-05
-0.000365767
4.45813e-05
-0.000380132
4.45683e-05
-0.000394418
4.44797e-05
-0.000408596
4.43163e-05
-0.000422647
4.40796e-05
-0.000436548
4.37707e-05
-0.000450284
4.33898e-05
-0.000463835
4.29368e-05
-0.000477186
4.24109e-05
-0.000490321
4.18115e-05
-0.000503223
4.11379e-05
-0.000515877
4.03895e-05
-0.000528266
3.95655e-05
-0.000540373
3.86649e-05
-0.000552181
3.76867e-05
-0.000563671
3.66299e-05
-0.00057482
3.54937e-05
-0.000585608
3.42773e-05
-0.000596009
3.29803e-05
-0.000605998
3.16026e-05
-0.000615547
3.01445e-05
-0.000624628
2.8607e-05
-0.000633208
2.69912e-05
-0.000641257
2.52992e-05
-0.00064874
2.35333e-05
-0.000655623
2.16963e-05
-0.000661874
1.97905e-05
-0.000667458
1.78177e-05
-0.000672344
1.57788e-05
-0.000676503
1.36747e-05
-0.000679909
1.15066e-05
-0.000682541
9.27664e-06
-0.00068438
6.98659e-06
-0.000685415
4.64247e-06
-0.000685623
2.23661e-06
-0.00068507
-1.47355e-07
-0.000683681
-2.61656e-06
-0.000681441
-5.14413e-06
-0.000678363
-7.69765e-06
-0.000674454
-1.02788e-05
-0.00066971
-1.2886e-05
-0.000664126
-1.55157e-05
-0.0006577
-1.81642e-05
-0.000650428
-2.08275e-05
-0.000642312
-2.35017e-05
-0.000633348
-2.61828e-05
-0.000623539
-2.88668e-05
-0.000612884
-3.15493e-05
-0.000601387
-3.42253e-05
-0.000589051
-3.68897e-05
-0.000575883
-3.95377e-05
-0.00056189
-4.21641e-05
-0.000547078
-4.47634e-05
-0.000531455
-4.73295e-05
-0.000515034
-4.98564e-05
-0.000497827
-5.2338e-05
-0.000479845
-5.47693e-05
-0.000461104
-5.71475e-05
-0.000441635
-5.94641e-05
-0.000421458
-6.17051e-05
-0.000400583
-6.3868e-05
-0.000379052
-6.59527e-05
-0.000356909
-6.79484e-05
-0.00033415
-6.98516e-05
-0.000310798
-7.16541e-05
-0.000286944
-7.33476e-05
-0.000262504
-7.49598e-05
-0.000237685
-7.63755e-05
-0.000212361
-7.77968e-05
-0.000186772
-7.88658e-05
-0.000160899
-7.95977e-05
-0.000134502
-8.10333e-05
-0.000108657
-8.00258e-05
-8.16498e-05
-8.30815e-05
-5.24443e-05
-8.93137e-05
-1.63955e-05
-0.000105713
-5.4835e-05
1.72834e-06
-7.80795e-06
8.20814e-06
-2.3637e-05
1.23597e-05
-1.74085e-05
1.6457e-05
-1.33516e-05
2.05816e-05
-1.7479e-05
2.45368e-05
-1.27113e-05
2.84897e-05
-1.73035e-05
3.23599e-05
-1.20406e-05
3.59378e-05
-1.65101e-05
3.97894e-05
-1.14922e-05
4.28984e-05
-1.52393e-05
4.66788e-05
-1.09856e-05
4.93135e-05
-1.35574e-05
5.28692e-05
-1.04302e-05
5.50607e-05
-1.15386e-05
5.81639e-05
-9.6608e-06
6.01131e-05
-9.50629e-06
6.25182e-05
-8.43145e-06
6.43006e-05
-7.59227e-06
6.60049e-05
-6.64223e-06
6.73994e-05
-5.65595e-06
6.8551e-05
-4.63096e-06
6.94282e-05
-3.532e-06
7.00304e-05
-2.41446e-06
7.03257e-05
-1.23496e-06
7.03222e-05
-2.82923e-08
7.00488e-05
1.21142e-06
6.94422e-05
2.51777e-06
6.85e-05
3.85499e-06
6.72153e-05
5.22946e-06
6.55835e-05
6.63535e-06
6.35904e-05
8.07782e-06
6.12335e-05
9.54642e-06
5.8503e-05
1.1044e-05
5.53955e-05
1.25665e-05
5.19059e-05
1.41122e-05
4.80297e-05
1.56782e-05
4.37622e-05
1.72588e-05
3.90906e-05
1.88627e-05
3.40237e-05
2.04668e-05
2.85499e-05
2.20898e-05
2.26778e-05
2.37119e-05
1.63779e-05
2.53483e-05
9.66543e-06
2.69819e-05
2.55362e-06
2.85993e-05
-4.97826e-06
3.02282e-05
-1.29156e-05
3.18443e-05
-2.12587e-05
3.3451e-05
-3.00049e-05
3.50434e-05
-3.91507e-05
3.66182e-05
-4.86908e-05
3.81715e-05
-5.86197e-05
3.97e-05
-6.89299e-05
4.11996e-05
-7.9613e-05
4.26667e-05
-9.06603e-05
4.40976e-05
-0.000102062
4.54885e-05
-0.000113809
4.68358e-05
-0.000125888
4.81355e-05
-0.000138288
4.9384e-05
-0.000150994
5.05774e-05
-0.000163992
5.17123e-05
-0.000177267
5.27851e-05
-0.000190803
5.37923e-05
-0.000204582
5.47306e-05
-0.000218588
5.55968e-05
-0.0002328
5.63877e-05
-0.0002472
5.71003e-05
-0.000261768
5.77318e-05
-0.000276481
5.82796e-05
-0.000291318
5.87415e-05
-0.000306255
5.9115e-05
-0.000321269
5.9398e-05
-0.000336338
5.95878e-05
-0.000351439
5.96823e-05
-0.00036655
5.96795e-05
-0.000381649
5.95784e-05
-0.000396711
5.93783e-05
-0.00041171
5.90789e-05
-0.00042662
5.86799e-05
-0.000441411
5.81809e-05
-0.000456055
5.7581e-05
-0.000470523
5.68796e-05
-0.000484788
5.60758e-05
-0.000498819
5.51691e-05
-0.000512588
5.41587e-05
-0.000526067
5.30439e-05
-0.000539226
5.18242e-05
-0.000552038
5.04993e-05
-0.000564478
4.90693e-05
-0.000576518
4.75343e-05
-0.000588136
4.58944e-05
-0.000599306
4.41503e-05
-0.000610006
4.23025e-05
-0.000620213
4.03521e-05
-0.000629906
3.83003e-05
-0.000639064
3.61492e-05
-0.000647666
3.39007e-05
-0.00065569
3.15572e-05
-0.000663114
2.91208e-05
-0.000669918
2.65947e-05
-0.000676083
2.3982e-05
-0.00068159
2.12857e-05
-0.000686423
1.85083e-05
-0.000690568
1.56513e-05
-0.000694007
1.27161e-05
-0.000696727
9.70622e-06
-0.000698708
6.62367e-06
-0.000699956
3.48474e-06
-0.000700399
2.95232e-07
-0.000699959
-3.05608e-06
-0.000698739
-6.36472e-06
-0.000696701
-9.7351e-06
-0.000693824
-1.31567e-05
-0.000690088
-1.66213e-05
-0.000685481
-2.01228e-05
-0.00067999
-2.36556e-05
-0.000673603
-2.72146e-05
-0.00066631
-3.07946e-05
-0.000658103
-3.43901e-05
-0.000648974
-3.79954e-05
-0.000638919
-4.16044e-05
-0.000627934
-4.52104e-05
-0.000616017
-4.88068e-05
-0.000603168
-5.23865e-05
-0.00058939
-5.59419e-05
-0.000574688
-5.94654e-05
-0.000559068
-6.29492e-05
-0.00054254
-6.63848e-05
-0.000525114
-6.97637e-05
-0.000506805
-7.30786e-05
-0.000487631
-7.63215e-05
-0.000467615
-7.94798e-05
-0.000446776
-8.25442e-05
-0.000425133
-8.55108e-05
-0.000402716
-8.83701e-05
-0.000379556
-9.11082e-05
-0.000355691
-9.37171e-05
-0.000331151
-9.61935e-05
-0.000305985
-9.85143e-05
-0.000280252
-0.000100692
-0.000253943
-0.000102685
-0.000227166
-0.000104574
-0.000199947
-0.000106085
-0.000172078
-0.000107467
-0.000144116
-0.000108995
-0.000115892
-0.00010825
-8.63726e-05
-0.000112601
-5.47244e-05
-0.000120962
-1.89794e-05
-0.000141458
-7.38143e-05
2.03245e-06
-9.8404e-06
8.91255e-06
-3.05171e-05
1.34321e-05
-2.1928e-05
1.76078e-05
-1.75273e-05
2.19085e-05
-2.17796e-05
2.59178e-05
-1.67207e-05
3.0054e-05
-2.14397e-05
3.38961e-05
-1.58826e-05
3.77325e-05
-2.03466e-05
4.14377e-05
-1.51973e-05
4.48967e-05
-1.86983e-05
4.84139e-05
-1.45028e-05
5.14768e-05
-1.66203e-05
5.471e-05
-1.36634e-05
5.74217e-05
-1.42503e-05
6.02333e-05
-1.24724e-05
6.25745e-05
-1.18475e-05
6.48163e-05
-1.06733e-05
6.67948e-05
-9.57074e-06
6.85337e-05
-8.38115e-06
7.00077e-05
-7.12995e-06
7.12156e-05
-5.83877e-06
7.21606e-05
-4.47707e-06
7.28162e-05
-3.07007e-06
7.31693e-05
-1.58802e-06
7.32069e-05
-6.58727e-08
7.29251e-05
1.49322e-06
7.23167e-05
3.12613e-06
7.13924e-05
4.77925e-06
7.01191e-05
6.50278e-06
6.85013e-05
8.25317e-06
6.65222e-05
1.00569e-05
6.41824e-05
1.18862e-05
6.14693e-05
1.37571e-05
5.83805e-05
1.56553e-05
5.49093e-05
1.75834e-05
5.10489e-05
1.95386e-05
4.67895e-05
2.15182e-05
4.21375e-05
2.35147e-05
3.70737e-05
2.55306e-05
3.16031e-05
2.75604e-05
2.57223e-05
2.95927e-05
1.94374e-05
3.16332e-05
1.27359e-05
3.36833e-05
5.60116e-06
3.5734e-05
-1.93673e-06
3.77661e-05
-9.89023e-06
3.97978e-05
-1.82578e-05
4.18186e-05
-2.70367e-05
4.38223e-05
-3.6223e-05
4.58045e-05
-4.58122e-05
4.77607e-05
-5.57983e-05
4.96862e-05
-6.61753e-05
5.15766e-05
-7.69359e-05
5.34273e-05
-8.80716e-05
5.52332e-05
-9.95723e-05
5.69893e-05
-0.000111427
5.86909e-05
-0.000123625
6.03334e-05
-0.000136153
6.19122e-05
-0.000148999
6.34226e-05
-0.000162146
6.48598e-05
-0.000175581
6.62196e-05
-0.000189286
6.74974e-05
-0.000203244
6.86888e-05
-0.000217436
6.97895e-05
-0.000231844
7.07955e-05
-0.000246447
7.17032e-05
-0.000261224
7.25089e-05
-0.000276154
7.3209e-05
-0.000291213
7.38004e-05
-0.000306377
7.42798e-05
-0.000321624
7.46443e-05
-0.000336927
7.4891e-05
-0.000352262
7.50174e-05
-0.000367604
7.50214e-05
-0.000382926
7.4901e-05
-0.000398203
7.46549e-05
-0.000413406
7.42818e-05
-0.000428507
7.37806e-05
-0.000443476
7.31507e-05
-0.000458287
7.2391e-05
-0.000472908
7.15013e-05
-0.000487313
7.04806e-05
-0.000501473
6.93287e-05
-0.000515359
6.80451e-05
-0.000528945
6.66295e-05
-0.000542202
6.5082e-05
-0.000555106
6.34029e-05
-0.000567629
6.15927e-05
-0.000579747
5.96519e-05
-0.000591434
5.75814e-05
-0.000602666
5.53825e-05
-0.000613421
5.30569e-05
-0.000623675
5.06064e-05
-0.000633408
4.80333e-05
-0.000642598
4.53397e-05
-0.000651226
4.25285e-05
-0.000659271
3.96023e-05
-0.000666715
3.6565e-05
-0.00067354
3.3419e-05
-0.000679725
3.01671e-05
-0.00068525
2.68108e-05
-0.000690094
2.33528e-05
-0.00069424
1.97972e-05
-0.000697672
1.61481e-05
-0.000700372
1.24062e-05
-0.000702327
8.57874e-06
-0.000703506
4.66334e-06
-0.0007039
6.89353e-07
-0.000703582
-3.37416e-06
-0.00070241
-7.53614e-06
-0.000700396
-1.17497e-05
-0.000697534
-1.60181e-05
-0.000693815
-2.03403e-05
-0.000689227
-2.47117e-05
-0.000683755
-2.91267e-05
-0.000677391
-3.35791e-05
-0.000670123
-3.80624e-05
-0.000661943
-4.25697e-05
-0.000652845
-4.70942e-05
-0.000642821
-5.16283e-05
-0.000631867
-5.61641e-05
-0.00061998
-6.06932e-05
-0.000607161
-6.52065e-05
-0.000593407
-6.9695e-05
-0.000578724
-7.41491e-05
-0.000563115
-7.85582e-05
-0.000546588
-8.29118e-05
-0.000529153
-8.71989e-05
-0.000510821
-9.14101e-05
-0.00049161
-9.55328e-05
-0.000471536
-9.95533e-05
-0.00045062
-0.00010346
-0.000428886
-0.000107244
-0.000406367
-0.000110889
-0.00038309
-0.000114385
-0.000359088
-0.00011772
-0.000334399
-0.000120882
-0.000309059
-0.000123854
-0.00028312
-0.000126631
-0.000256602
-0.000129203
-0.000229579
-0.000131597
-0.000202049
-0.000133615
-0.000174089
-0.000135426
-0.000145802
-0.000137283
-0.000117437
-0.000136615
-8.79116e-05
-0.000142126
-5.60564e-05
-0.000152817
-1.91706e-05
-0.000178344
-9.29849e-05
2.22745e-06
-1.20679e-05
8.84457e-06
-3.71342e-05
1.34058e-05
-2.64893e-05
1.75606e-05
-2.16821e-05
2.1995e-05
-2.6214e-05
2.60103e-05
-2.0736e-05
3.03171e-05
-2.57464e-05
3.41605e-05
-1.9726e-05
3.81959e-05
-2.4382e-05
4.18745e-05
-1.88759e-05
4.55433e-05
-2.23672e-05
4.90147e-05
-1.79742e-05
5.22802e-05
-1.98858e-05
5.54765e-05
-1.68597e-05
5.83413e-05
-1.7115e-05
6.11499e-05
-1.5281e-05
6.36366e-05
-1.43343e-05
6.59547e-05
-1.29914e-05
6.80187e-05
-1.16347e-05
6.98472e-05
-1.02097e-05
7.14252e-05
-8.7079e-06
7.27278e-05
-7.14138e-06
7.37637e-05
-5.51304e-06
7.45099e-05
-3.81621e-06
7.497e-05
-2.04817e-06
7.51298e-05
-2.25618e-07
7.49558e-05
1.6672e-06
7.44796e-05
3.60227e-06
7.36525e-05
5.60642e-06
7.25003e-05
7.65493e-06
7.09764e-05
9.77709e-06
6.91124e-05
1.19209e-05
6.68655e-05
1.41332e-05
6.42457e-05
1.63768e-05
6.12382e-05
1.86628e-05
5.78387e-05
2.0983e-05
5.40424e-05
2.33349e-05
4.98409e-05
2.57198e-05
4.52275e-05
2.81281e-05
4.02096e-05
3.05485e-05
3.47764e-05
3.29936e-05
2.8911e-05
3.5458e-05
2.26093e-05
3.7935e-05
1.58844e-05
4.04082e-05
8.75327e-06
4.28652e-05
1.19269e-06
4.53267e-05
-6.79639e-06
4.77869e-05
-1.52081e-05
5.02303e-05
-2.40401e-05
5.26543e-05
-3.32885e-05
5.50529e-05
-4.29486e-05
5.74208e-05
-5.30152e-05
5.97528e-05
-6.34812e-05
6.20427e-05
-7.43384e-05
6.42845e-05
-8.55783e-05
6.6473e-05
-9.71912e-05
6.86022e-05
-0.000109167
7.06663e-05
-0.000121493
7.26595e-05
-0.000134157
7.4576e-05
-0.000147144
7.64101e-05
-0.00016044
7.81562e-05
-0.000174029
7.98087e-05
-0.000187894
8.13622e-05
-0.000202017
8.28114e-05
-0.000216379
8.41512e-05
-0.00023096
8.53768e-05
-0.00024574
8.64832e-05
-0.000260697
8.7466e-05
-0.000275809
8.83207e-05
-0.000291052
8.90437e-05
-0.000306403
8.96306e-05
-0.000321837
9.00784e-05
-0.000337329
9.03831e-05
-0.000352854
9.05422e-05
-0.000368385
9.05527e-05
-0.000383896
9.04125e-05
-0.000399361
9.01195e-05
-0.000414752
8.96724e-05
-0.000430041
8.90697e-05
-0.000445201
8.83104e-05
-0.000460203
8.73933e-05
-0.000475019
8.63179e-05
-0.000489623
8.50838e-05
-0.000503985
8.36908e-05
-0.000518078
8.21385e-05
-0.000531876
8.04272e-05
-0.000545351
7.85573e-05
-0.000558477
7.65293e-05
-0.000571229
7.43441e-05
-0.00058358
7.20032e-05
-0.000595507
6.9508e-05
-0.000606985
6.68603e-05
-0.00061799
6.40618e-05
-0.000628498
6.11147e-05
-0.000638486
5.80215e-05
-0.000647932
5.47851e-05
-0.000656812
5.14085e-05
-0.000665104
4.78946e-05
-0.000672786
4.42466e-05
-0.000679834
4.04679e-05
-0.000686229
3.6562e-05
-0.000691953
3.25345e-05
-0.000696987
2.83865e-05
-0.000701313
2.41232e-05
-0.000704911
1.97459e-05
-0.000707765
1.52606e-05
-0.000709856
1.06701e-05
-0.000711164
5.97078e-06
-0.000711667
1.19204e-06
-0.000711312
-3.72911e-06
-0.000710157
-8.69081e-06
-0.00070817
-1.37366e-05
-0.00070533
-1.88579e-05
-0.000701623
-2.40478e-05
-0.000697035
-2.92999e-05
-0.000691554
-3.46075e-05
-0.000685169
-3.99636e-05
-0.000677871
-4.53608e-05
-0.000669649
-5.07913e-05
-0.000660497
-5.62464e-05
-0.000650408
-6.17173e-05
-0.000639378
-6.71945e-05
-0.000627403
-7.26679e-05
-0.000614483
-7.8127e-05
-0.000600617
-8.35606e-05
-0.000585809
-8.89572e-05
-0.000570063
-9.43044e-05
-0.000553386
-9.95886e-05
-0.000535787
-0.000104797
-0.00051728
-0.000109918
-0.000497879
-0.000114934
-0.000477603
-0.000119829
-0.000456471
-0.000124592
-0.000434508
-0.000129208
-0.00041174
-0.000133657
-0.000388197
-0.000137928
-0.000363907
-0.00014201
-0.000338909
-0.00014588
-0.000313243
-0.000149519
-0.000286945
-0.00015293
-0.000260071
-0.000156077
-0.000232649
-0.00015902
-0.000204727
-0.000161536
-0.000176428
-0.000163726
-0.000147684
-0.000166027
-0.000119052
-0.000165246
-8.91565e-05
-0.000172022
-5.6778e-05
-0.000185196
-1.91446e-05
-0.000215977
-0.00011213
2.34531e-06
-1.44132e-05
9.09556e-06
-4.38844e-05
1.3859e-05
-3.12527e-05
1.80208e-05
-2.58439e-05
2.26198e-05
-3.08131e-05
2.66615e-05
-2.47777e-05
3.11365e-05
-3.02214e-05
3.50148e-05
-2.36044e-05
3.92333e-05
-2.86005e-05
4.29466e-05
-2.25892e-05
4.68204e-05
-2.6241e-05
5.0343e-05
-2.14968e-05
5.38284e-05
-2.33713e-05
5.70925e-05
-2.01238e-05
6.01664e-05
-2.01888e-05
6.30767e-05
-1.81914e-05
6.57261e-05
-1.69837e-05
6.81839e-05
-1.54492e-05
7.0393e-05
-1.38438e-05
7.23511e-05
-1.21677e-05
7.40733e-05
-1.04302e-05
7.55252e-05
-8.59323e-06
7.67013e-05
-6.68913e-06
7.75805e-05
-4.69543e-06
7.81761e-05
-2.64379e-06
7.84494e-05
-4.98872e-07
7.84168e-05
1.69976e-06
7.80397e-05
3.97941e-06
7.73306e-05
6.31546e-06
7.62648e-05
8.72079e-06
7.48659e-05
1.1176e-05
7.3084e-05
1.37028e-05
7.09289e-05
1.62884e-05
6.83897e-05
1.8916e-05
6.54576e-05
2.15949e-05
6.21272e-05
2.43134e-05
5.83898e-05
2.70723e-05
5.42435e-05
2.98661e-05
4.96828e-05
3.26888e-05
4.46873e-05
3.5544e-05
3.92653e-05
3.84155e-05
3.34185e-05
4.13048e-05
2.7152e-05
4.42015e-05
2.04525e-05
4.71077e-05
1.33064e-05
5.00113e-05
5.70623e-06
5.29268e-05
-2.31841e-06
5.58115e-05
-1.07689e-05
5.86808e-05
-1.96496e-05
6.1535e-05
-2.89575e-05
6.43608e-05
-3.8688e-05
6.71513e-05
-4.8835e-05
6.98998e-05
-5.93919e-05
7.25996e-05
-7.03515e-05
7.52441e-05
-8.17046e-05
7.78261e-05
-9.34413e-05
8.0339e-05
-0.000105551
8.27758e-05
-0.000118021
8.513e-05
-0.00013084
8.73945e-05
-0.000143992
8.95624e-05
-0.000157463
9.16271e-05
-0.000171236
9.35818e-05
-0.000185295
9.54205e-05
-0.00019962
9.71369e-05
-0.000214194
9.87247e-05
-0.000228995
0.000100178
-0.000244003
0.000101491
-0.000259196
0.000102659
-0.000274552
0.000103676
-0.000290047
0.000104538
-0.000305656
0.00010524
-0.000321355
0.000105777
-0.000337118
0.000106146
-0.000352919
0.000106344
-0.000368733
0.000106366
-0.000384531
0.00010621
-0.000400286
0.000105875
-0.000415971
0.000105357
-0.000431557
0.000104656
-0.000447017
0.00010377
-0.000462321
0.000102697
-0.000477441
0.000101438
-0.000492349
9.99919e-05
-0.000507016
9.83584e-05
-0.000521416
9.65377e-05
-0.000535519
9.45302e-05
-0.000549298
9.23363e-05
-0.000562726
8.99573e-05
-0.000575776
8.73947e-05
-0.000588423
8.46497e-05
-0.000600639
8.17245e-05
-0.0006124
7.86213e-05
-0.000623681
7.53429e-05
-0.000634459
7.1892e-05
-0.000644709
6.82718e-05
-0.000654409
6.44851e-05
-0.000663536
6.05355e-05
-0.000672068
5.64266e-05
-0.000679984
5.21627e-05
-0.000687263
4.77474e-05
-0.000693886
4.3185e-05
-0.000699832
3.848e-05
-0.00070508
3.36346e-05
-0.000709609
2.86526e-05
-0.000713407
2.35431e-05
-0.00071645
1.83043e-05
-0.000718723
1.29433e-05
-0.000720211
7.45822e-06
-0.000720888
1.86895e-06
-0.000720759
-3.85768e-06
-0.000719784
-9.66626e-06
-0.000717952
-1.55679e-05
-0.000715252
-2.1558e-05
-0.00071167
-2.76305e-05
-0.000707191
-3.37787e-05
-0.000701804
-3.99949e-05
-0.000695496
-4.62713e-05
-0.000688257
-5.25994e-05
-0.000680078
-5.89702e-05
-0.000670951
-6.53742e-05
-0.000660867
-7.1801e-05
-0.000649822
-7.82397e-05
-0.000637811
-8.46786e-05
-0.000624832
-9.11055e-05
-0.000610886
-9.75074e-05
-0.000595972
-0.00010387
-0.000580097
-0.00011018
-0.000563264
-0.000116421
-0.000545485
-0.000122577
-0.00052677
-0.000128633
-0.000507132
-0.000134571
-0.000486591
-0.000140371
-0.000465166
-0.000146017
-0.000442879
-0.000151494
-0.000419759
-0.000156778
-0.000395836
-0.000161851
-0.000371142
-0.000166704
-0.000345717
-0.000171305
-0.000319597
-0.000175639
-0.000292825
-0.000179701
-0.000265444
-0.000183458
-0.000237501
-0.000186963
-0.000209044
-0.000189994
-0.000180174
-0.000192595
-0.000150892
-0.000195309
-0.000121657
-0.00019448
-9.11279e-05
-0.000202551
-5.78746e-05
-0.000218449
-1.92465e-05
-0.000254606
-0.000131376
2.50576e-06
-1.69189e-05
9.41019e-06
-5.07889e-05
1.43646e-05
-3.62071e-05
1.86684e-05
-3.01477e-05
2.34443e-05
-3.55889e-05
2.76417e-05
-2.89752e-05
3.22877e-05
-3.48673e-05
3.63203e-05
-2.7637e-05
4.0714e-05
-3.29942e-05
4.45997e-05
-2.64748e-05
4.86442e-05
-3.02855e-05
5.23388e-05
-2.51914e-05
5.59803e-05
-2.70128e-05
5.94155e-05
-2.3559e-05
6.2636e-05
-2.34093e-05
6.57251e-05
-2.12805e-05
6.85395e-05
-1.9798e-05
7.11536e-05
-1.80632e-05
7.35334e-05
-1.62236e-05
7.56568e-05
-1.42912e-05
7.75174e-05
-1.22907e-05
7.91136e-05
-1.01894e-05
8.04226e-05
-7.99821e-06
8.14516e-05
-5.72438e-06
8.2159e-05
-3.35122e-06
8.25877e-05
-9.27507e-07
8.26658e-05
1.62166e-06
8.24298e-05
4.21537e-06
8.18411e-05
6.90413e-06
8.0903e-05
9.65892e-06
7.9591e-05
1.2488e-05
7.79138e-05
1.538e-05
7.58572e-05
1.83449e-05
7.34116e-05
2.13616e-05
7.05646e-05
2.4442e-05
6.7309e-05
2.75689e-05
6.36409e-05
3.07404e-05
5.95531e-05
3.39539e-05
5.50374e-05
3.72045e-05
5.00911e-05
4.04903e-05
4.47134e-05
4.37932e-05
3.88902e-05
4.7128e-05
3.26253e-05
5.04665e-05
2.59235e-05
5.38095e-05
1.8745e-05
5.71898e-05
1.11568e-05
6.05151e-05
3.1058e-06
6.38625e-05
-5.38799e-06
6.71746e-05
-1.43227e-05
7.04697e-05
-2.36963e-05
7.37343e-05
-3.35045e-05
7.69595e-05
-4.37421e-05
8.01374e-05
-5.44028e-05
8.32602e-05
-6.54787e-05
8.63201e-05
-7.69615e-05
8.93089e-05
-8.88415e-05
9.2219e-05
-0.000101107
9.50417e-05
-0.000113747
9.77695e-05
-0.000126747
0.000100395
-0.000140094
0.000102909
-0.000153771
0.000105305
-0.000167764
0.000107575
-0.000182055
0.000109711
-0.000196624
0.000111706
-0.000211452
0.000113553
-0.000226519
0.000115245
-0.000241804
0.000116776
-0.000257284
0.000118139
-0.000272935
0.000119328
-0.000288734
0.000120337
-0.000304656
0.000121162
-0.000320675
0.000121796
-0.000336766
0.000122237
-0.000352901
0.000122478
-0.000369053
0.000122518
-0.000385194
0.000122352
-0.000401297
0.000121978
-0.000417333
0.000121393
-0.000433272
0.000120596
-0.000449087
0.000119584
-0.000464747
0.000118358
-0.000480225
0.000116916
-0.00049549
0.000115257
-0.000510515
0.000113383
-0.00052527
0.000111293
-0.000539727
0.000108987
-0.000553859
0.000106468
-0.000567637
0.000103735
-0.000581034
0.000100792
-0.000594024
9.76397e-05
-0.000606581
9.42816e-05
-0.000618679
9.07197e-05
-0.000630294
8.69573e-05
-0.000641399
8.29976e-05
-0.000651972
7.88447e-05
-0.000661989
7.45018e-05
-0.000671427
6.99734e-05
-0.000680263
6.52632e-05
-0.000688476
6.03754e-05
-0.000696044
5.53154e-05
-0.000702946
5.0087e-05
-0.000709161
4.46954e-05
-0.000714672
3.91448e-05
-0.000719457
3.34381e-05
-0.000723499
2.75849e-05
-0.000726774
2.15796e-05
-0.00072928
1.5449e-05
-0.000730977
9.15501e-06
-0.000731863
2.7551e-06
-0.00073191
-3.81063e-06
-0.00073111
-1.04658e-05
-0.000729447
-1.72315e-05
-0.000726903
-2.41017e-05
-0.000723464
-3.10694e-05
-0.000719116
-3.81269e-05
-0.000713845
-4.52661e-05
-0.000707638
-5.24784e-05
-0.000700483
-5.97543e-05
-0.000692369
-6.70839e-05
-0.000683287
-7.44563e-05
-0.000673228
-8.186e-05