/*--------------------------------*- C++ -*----------------------------------*\
| =========                 |                                                 |
| \\      /  F ield         | OpenFOAM: The Open Source CFD Toolbox           |
|  \\    /   O peration     | Version:  v2006                                 |
|   \\  /    A nd           | Website:  www.openfoam.com                      |
|    \\/     M anipulation  |                                                 |
\*---------------------------------------------------------------------------*/
FoamFile
{
    version     2.0;
    format      ascii;
    class       volScalarField;
    location    "0";
    object      f;
}
// * * * * * * * * * * * * * * * * * * * * * * * * * * * * * * * * * * * * * //

dimensions      [0 0 0 0 0 0 0];


internalField   nonuniform List<scalar> 
2500
(
1.48906e-40
-8.17332e-33
1.6928e-28
5.2442e-26
-8.35597e-23
4.07769e-21
2.34662e-20
-2.29829e-19
-8.01401e-18
6.49056e-19
3.65383e-16
-1.6214e-16
-3.35727e-15
2.07737e-13
-4.87877e-12
-7.80228e-13
1.5378e-10
-4.07361e-09
-1.50277e-09
1.35098e-07
4.08617e-08
-3.15416e-06
-3.73275e-06
-1.71056e-06
-1.25225e-06
2.31295e-05
2.71121e-05
1.79711e-06
-1.6664e-06
-1.33143e-06
-1.66212e-07
1.9589e-07
1.36895e-07
2.60848e-08
-2.80757e-09
-1.9085e-09
-1.58969e-10
1.16856e-10
4.4885e-11
1.82431e-13
-1.32336e-12
-2.85546e-13
1.57915e-15
2.6132e-15
1.29423e-15
5.04037e-16
1.72767e-16
5.37651e-17
1.54864e-17
1.04264e-18
1.86464e-38
-2.83503e-31
2.70528e-27
1.17458e-24
-7.55137e-22
2.06846e-20
1.97393e-19
3.86153e-19
-3.52983e-17
-1.361e-17
1.59744e-15
-1.27674e-14
-7.04228e-15
8.59004e-13
-3.88308e-11
5.5043e-10
2.64679e-10
-2.38344e-08
1.40912e-07
4.44153e-07
-3.9407e-06
-1.58191e-05
-7.18671e-06
-7.43194e-07
0.000321071
0.000412784
0.000114478
-2.42988e-06
-5.92402e-06
-3.35861e-06
-4.42996e-07
2.12284e-07
1.33235e-07
2.25979e-08
-2.71017e-09
-1.67494e-09
-3.43196e-11
1.27292e-10
3.61335e-11
-9.86507e-13
-1.04237e-12
-1.7957e-13
5.87582e-16
7.63539e-16
4.80296e-16
2.07301e-16
7.25417e-17
2.22067e-17
6.15482e-18
5.58649e-19
1.89143e-36
-7.87679e-30
3.22598e-26
1.84019e-23
-5.57313e-21
7.13252e-20
1.14491e-18
8.81463e-18
-1.21803e-16
-8.25964e-17
7.64088e-15
-2.58963e-13
3.58154e-12
1.35785e-12
-8.59914e-11
3.62346e-09
-2.62309e-08
-5.03527e-08
1.62417e-06
6.88095e-07
-3.85244e-05
-3.69169e-05
-3.28741e-06
0.001369
0.00252673
0.00161596
0.000335011
-1.1696e-05
-1.52618e-05
-8.01456e-06
-1.0641e-06
3.82733e-07
2.46984e-07
3.89153e-08
-7.0227e-09
-3.67001e-09
-2.69731e-11
2.62818e-10
6.9927e-11
-1.87775e-12
-1.94957e-12
-3.20627e-13
5.68205e-16
1.0827e-15
6.29934e-16
2.56841e-16
8.67875e-17
2.59338e-17
7.02394e-18
6.99804e-19
1.82136e-34
-2.07269e-28
3.33984e-25
2.46202e-22
-3.82144e-20
1.07258e-19
5.16618e-18
6.76424e-17
-6.37954e-16
-2.19122e-16
1.72311e-14
-1.08411e-12
3.5132e-11
-4.9134e-10
7.63145e-10
9.69096e-09
-2.55249e-07
1.386e-07
5.6227e-06
-2.26279e-05
-0.000126539
-5.34149e-05
0.0025596
0.0076946
0.00824511
0.00434084
0.00082536
-3.19646e-05
-3.46294e-05
-1.70534e-05
-2.1653e-06
6.02989e-07
3.73051e-07
4.79657e-08
-1.34058e-08
-5.85792e-09
2.42808e-10
4.54326e-10
9.93981e-11
-3.60809e-12
-2.56495e-12
-3.87295e-13
2.72166e-17
1.12311e-15
7.22762e-16
3.00246e-16
1.00422e-16
2.94703e-17
7.78791e-18
8.33731e-19
1.66669e-32
-5.14626e-27
2.6407e-24
2.97393e-21
-2.39396e-19
-1.13871e-18
1.7132e-17
4.29005e-16
-1.19391e-14
2.0286e-13
-1.71291e-12
-1.57883e-12
9.55202e-11
-2.88466e-09
3.12222e-08
7.5471e-10
-8.14974e-07
7.67689e-06
9.87256e-06
-0.000203223
-0.00025322
0.00197195
0.0136951
0.0225887
0.0199073
0.00959885
0.00176283
-6.91673e-05
-7.07544e-05
-3.28292e-05
-3.79515e-06
9.56623e-07
5.54315e-07
5.12002e-08
-2.56762e-08
-9.16349e-09
7.34652e-10
7.60529e-10
1.39797e-10
-5.331e-12
-3.1761e-12
-4.64041e-13
-1.47027e-15
1.10036e-15
8.1948e-16
3.46606e-16
1.14065e-16
3.26856e-17
8.37273e-18
9.43164e-19
1.4481e-30
-1.19776e-25
5.24027e-24
3.31314e-20
-1.31688e-18
-1.59108e-17
3.30267e-17
1.92898e-15
-6.35433e-14
1.4305e-12
-2.29517e-11
2.49929e-10
-1.43335e-10
-6.30022e-09
1.37206e-07
-9.46566e-07
-1.29177e-06
3.38238e-05
-2.22919e-05
-0.000668174
-0.000178873
0.0144372
0.0392578
0.0509686
0.0403233
0.0184018
0.00330738
-0.000135701
-0.000132478
-5.74246e-05
-5.66571e-06
1.5382e-06
7.9585e-07
3.12359e-08
-4.73289e-08
-1.3099e-08
1.63567e-09
1.19655e-09
1.81157e-10
-6.4285e-12
-3.39261e-12
-5.03124e-13
-6.77567e-15
9.14532e-16
9.12747e-16
3.93999e-16
1.26752e-16
3.52332e-17
8.67671e-18
1.00666e-18
1.19227e-28
-2.58465e-24
-3.95194e-22
3.42674e-19
-5.67884e-18
-1.47953e-16
1.81109e-16
3.71776e-15
-1.14693e-13
2.95202e-12
-7.43427e-11
1.38229e-09
-1.38177e-08
9.42919e-09
2.67841e-07
-4.52404e-06
1.04291e-05
8.50982e-05
-0.000535741
-0.00146691
0.00682238
0.0443541
0.0867065
0.0977537
0.0714948
0.0312005
0.00545483
-0.000248279
-0.000229165
-9.12249e-05
-6.94189e-06
2.54255e-06
1.1008e-06
-3.22665e-08
-8.34655e-08
-1.70323e-08
2.99046e-09
1.73269e-09
2.1634e-10
-5.92105e-12
-3.07538e-12
-5.12784e-13
-2.56638e-14
3.11804e-16
1.0011e-15
4.39191e-16
1.37034e-16
3.66667e-17
8.58603e-18
9.99939e-19
9.27841e-27
-5.0726e-23
-1.23279e-20
3.28982e-18
-1.07196e-17
-1.57956e-15
3.81236e-14
-6.47978e-13
6.95172e-12
-4.70004e-11
-5.06306e-11
2.75207e-09
-6.38779e-08
5.40521e-07
-2.98098e-07
-1.16654e-05
9.43757e-05
0.000121845
-0.00201594
-0.00192496
0.0298187
0.10067
0.162446
0.165474
0.113237
0.047203
0.00786884
-0.000426094
-0.000367573
-0.000130726
-6.45863e-06
4.31202e-06
1.4256e-06
-1.52481e-07
-1.3858e-07
-2.00301e-08
4.63094e-09
2.27046e-09
2.36461e-10
-3.83791e-12
-2.13196e-12
-5.02092e-13
-7.14832e-14
-1.62274e-15
1.08152e-15
4.76717e-16
1.42868e-16
3.64471e-17
7.984e-18
8.98267e-19
6.80491e-25
-8.71581e-22
-2.70801e-19
2.97066e-17
3.79198e-17
-6.94232e-15
2.22073e-13
-4.50818e-12
6.96506e-11
-7.949e-10
5.92786e-09
-1.1729e-08
-1.26172e-07
2.34852e-06
-1.2236e-05
-1.6224e-05
0.000303787
-0.000364843
-0.00497231
0.00409018
0.0758208
0.191077
0.268024
0.252181
0.16165
0.063888
0.00983055
-0.00068386
-0.000546187
-0.000166418
2.87215e-07
7.36471e-06
1.63697e-06
-3.54003e-07
-2.13182e-07
-2.04894e-08
6.10444e-09
2.67123e-09
2.37903e-10
4.84459e-13
-1.06113e-12
-5.06259e-13
-1.46372e-13
-7.34623e-15
1.14291e-15
4.97159e-16
1.41614e-16
3.39817e-17
6.76828e-18
6.803e-19
4.68395e-23
-1.1897e-20
-5.14977e-18
3.09767e-16
-3.76732e-15
1.41917e-14
4.06737e-13
-9.00176e-12
1.74592e-10
-2.74543e-09
2.9157e-08
-1.86643e-07
7.59226e-08
5.44273e-06
-4.82046e-05
8.17702e-05
0.000650738
-0.0028184
-0.00913514
0.0266466
0.153012
0.317739
0.398382
0.348084
0.208724
0.0772263
0.0104214
-0.00103749
-0.000747064
-0.000182703
1.40052e-05
1.21873e-05
1.60365e-06
-6.44853e-07
-2.91728e-07
-1.60119e-08
7.16344e-09
2.79475e-09
2.20827e-10
8.73637e-12
-4.29286e-13
-5.9647e-13
-2.34037e-13
-1.6232e-14
1.16909e-15
4.89451e-16
1.30225e-16
2.87192e-17
4.87849e-18
3.33357e-19
2.99789e-21
-8.42981e-20
-8.13085e-17
3.64351e-15
-7.22092e-14
1.06491e-12
-1.22071e-11
9.31792e-11
-1.31422e-10
-4.13161e-09
5.6017e-08
-6.47708e-07
3.21033e-06
6.46214e-06
-0.000112981
0.000483053
0.000847269
-0.00821466
-0.0118125
0.0680783
0.264472
0.473682
0.539344
0.436712
0.243983
0.083085
0.00866643
-0.00151038
-0.000926219
-0.000154147
3.66919e-05
1.85314e-05
7.88262e-07
-9.99073e-07
-3.50446e-07
-7.77084e-09
7.5244e-09
2.48766e-09
2.02676e-10
2.38144e-11
2.08638e-13
-7.66912e-13
-3.21384e-13
-2.27267e-14
1.1394e-15
4.41178e-16
1.05777e-16
2.03239e-17
2.3343e-18
-1.40373e-19
1.73939e-19
2.83501e-19
-4.18716e-16
1.18622e-14
-2.22831e-13
4.08962e-12
-7.60539e-11
1.01096e-09
-1.0154e-08
5.48764e-08
-5.00094e-08
-1.06536e-06
1.19556e-05
-3.39243e-05
-0.000158194
0.00136871
-0.000351311
-0.0175777
-0.00806114
0.133014
0.40474
0.640505
0.66695
0.500758
0.25845
0.0784541
0.00420925
-0.00210994
-0.00100623
-4.16383e-05
6.99637e-05
2.33965e-05
-7.6562e-07
-1.42492e-06
-3.64976e-07
1.40339e-09
6.43323e-09
1.67405e-09
2.01492e-10
4.98276e-11
2.29372e-12
-1.00189e-12
-4.09812e-13
-2.48575e-14
1.02854e-15
3.39277e-16
6.64344e-17
8.93185e-18
-7.20832e-19
-7.18227e-19
9.03954e-18
-9.27712e-18
1.49504e-15
-7.88431e-14
1.13128e-12
-2.1337e-12
-1.49845e-10
2.58788e-09
-4.1301e-08
3.45035e-07
-1.64205e-06
1.09746e-06
2.54183e-05
-0.000173087
1.93138e-05
0.00280635
-0.00490538
-0.0300854
0.0096084
0.221651
0.558756
0.78864
0.758869
0.525764
0.246373
0.0590454
-0.00131826
-0.00278848
-0.000846017
0.000132637
0.000114253
2.3378e-05
-2.79197e-06
-1.86745e-06
-3.28701e-07
5.1852e-09
2.96108e-09
7.23963e-10
2.62331e-10
8.93282e-11
5.85768e-12
-1.28767e-12
-4.87898e-13
-2.3842e-14
8.11599e-16
1.73969e-16
1.28747e-17
-4.53663e-18
-3.98414e-18
-1.35506e-18
1.03969e-15
-2.05236e-14
3.51925e-13
-4.58166e-12
4.7084e-11
-3.75849e-10
2.00357e-09
-6.804e-10
-6.92646e-08
8.36023e-07
-5.91502e-06
2.03857e-05
2.81533e-05
-0.000452587
0.00101196
0.00421156
-0.0131632
-0.0421486
0.0374512
0.324505
0.702734
0.890021
0.797113
0.50345
0.198905
0.0312389
-0.00559561
-0.00329117
-0.00031871
0.000338184
0.000162184
1.61794e-05
-4.42259e-06
-2.07368e-06
-2.3269e-07
-3.9427e-09
-2.1385e-09
-4.37113e-11
3.34732e-10
1.32259e-10
8.07043e-12
-1.6314e-12
-5.27917e-13
-1.55849e-14
4.83077e-16
-5.52015e-17
-4.9855e-17
-1.8088e-17
-6.99363e-18
-1.98952e-18
1.51089e-14
-1.47314e-13
1.83072e-12
-1.95202e-11
1.86414e-10
-1.62821e-09
1.28569e-08
-7.54999e-08
1.96815e-07
8.98416e-07
-1.13192e-05
6.77359e-05
-9.45485e-05
-0.000769809
0.00293137
0.00453632
-0.0255163
-0.0504023
0.0775782
0.427091
0.8098
0.933609
0.765115
0.41936
0.130804
0.00401294
-0.00722268
-0.00286384
0.000427654
0.000542918
0.000172715
3.23571e-06
-5.09708e-06
-1.7799e-06
-1.18077e-07
-1.91279e-08
-7.01343e-09
-3.23044e-10
3.91969e-10
1.4558e-10
5.59065e-12
-2.0407e-12
-4.80402e-13
-1.17337e-15
9.0316e-17
-3.33e-16
-1.10335e-16
-2.85875e-17
-9.21079e-18
-2.56422e-18
5.03909e-14
-3.0885e-13
3.18735e-12
-3.07099e-11
2.87749e-10
-2.72908e-09
2.73725e-08
-2.9699e-07
1.80904e-06
-5.10479e-06
-1.15016e-05
0.000143511
-0.000429331
-0.000842006
0.00579443
0.00208929
-0.040369
-0.0525285
0.125644
0.512035
0.859382
0.904323
0.652578
0.299727
0.0601008
-0.0125706
-0.00793
-0.000830004
0.00127562
0.000730811
0.000137285
-8.6202e-06
-5.62881e-06
-1.10289e-06
-3.93427e-08
-3.17596e-08
-1.10115e-08
-1.86912e-10
4.28529e-10
1.18584e-10
-2.12375e-12
-2.47237e-12
-2.62797e-13
1.19147e-14
-2.77525e-16
-6.29471e-16
-1.49563e-16
-3.25636e-17
-1.02358e-17
-3.05929e-18
-1.18325e-13
3.38773e-12
-5.5315e-11
6.12894e-10
-4.70949e-09
2.2718e-08
-2.85865e-08
-4.95138e-07
5.01738e-06
-2.32814e-05
3.31161e-05
0.000212657
-0.00105394
2.37254e-05
0.00892191
-0.0033164
-0.0551123
-0.0471119
0.172374
0.563772
0.843654
0.786916
0.489243
0.172113
0.0039722
-0.0166161
-0.00700919
0.0014449
0.00192268
0.000764833
7.16413e-05
-1.12661e-05
-4.80662e-06
-4.28603e-07
-4.43728e-08
-4.527e-08
-1.3203e-08
2.26418e-10
4.29593e-10
6.4695e-11
-8.35693e-12
-2.66123e-12
-8.46996e-15
1.69706e-14
-1.95626e-15
-8.87843e-16
-1.46631e-16
-2.78545e-17
-1.00965e-17
-3.52976e-18
-9.68405e-12
7.04899e-11
-7.13685e-10
5.92589e-09
-4.01096e-08
2.11227e-07
-7.70696e-07
1.05063e-06
7.07569e-06
-5.25953e-05
0.000141924
0.000200752
-0.00185573
0.0019741
0.0112637
-0.0115011
-0.0668318
-0.0360164
0.209299
0.574471
0.73951
0.611216
0.309483
0.0623568
-0.0256804
-0.0162838
-0.00107332
0.00366667
0.00229664
0.000583782
1.76457e-06
-8.96064e-06
-1.48595e-06
1.88779e-07
-6.07894e-08
-5.71361e-08
-1.25704e-08
6.31195e-10
3.62996e-10
8.80013e-12
-1.03152e-11
-1.62637e-12
1.61358e-13
2.55518e-14
-4.95185e-15
-9.79651e-16
-8.71687e-17
-1.53365e-17
-9.4819e-18
-4.12429e-18
-4.97712e-11
2.57708e-10
-2.24592e-09
1.70081e-08
-1.12403e-07
6.19841e-07
-2.67946e-06
7.41164e-06
-3.50394e-06
-7.60406e-05
0.000329204
-0.000188612
-0.00250052
0.00485309
0.012091
-0.0214402
-0.0752223
-0.0215589
0.230123
0.532426
0.587232
0.404213
0.146023
-0.0119473
-0.0298135
-0.011069
0.00419412
0.00487212
0.00220241
0.000313573
-2.54985e-05
-7.14624e-06
1.40649e-06
4.4584e-07
-7.81118e-08
-6.41901e-08
-8.97383e-09
8.0413e-10
2.20668e-10
-3.08166e-11
-1.24252e-11
9.47315e-15
2.1927e-13
5.07255e-15
-6.86484e-15
-5.84949e-16
2.55388e-17
-2.68421e-19
-9.7654e-18
-5.05872e-18
-8.94803e-11
3.78958e-10
-2.99784e-09
2.21694e-08
-1.55888e-07
9.82356e-07
-5.32288e-06
2.02803e-05
-4.15855e-05
-5.05693e-05
0.000529123
-0.000872786
-0.00259
0.00802175
0.0111372
-0.0313961
-0.0790201
-0.00789793
0.231337
0.42952
0.400076
0.214409
0.0254972
-0.0442226
-0.0250984
0.000375817
0.00763836
0.00500463
0.0014165
3.90341e-05
-1.297e-05
2.97035e-06
3.34317e-06
4.64655e-07
-1.64907e-07
-6.78411e-08
-3.05868e-09
7.42007e-10
6.10841e-11
-4.72568e-11
-1.01424e-11
1.03644e-12
2.38908e-13
-3.44953e-14
-7.46745e-15
5.80459e-16
1.56916e-16
7.22114e-18
-1.2664e-17
-6.52794e-18
3.22074e-10
-1.59767e-09
1.15926e-08
-5.92152e-08
1.69348e-07
3.19516e-07
-6.2319e-06
3.47189e-05
-0.000110095
9.39146e-05
0.000631008
-0.00185112
-0.00156249
0.0108133
0.00854391
-0.0402303
-0.079274
0.00308991
0.198048
0.291695
0.224305
0.0643625
-0.0441682
-0.044808
-0.0140868
0.0075686
0.00816213
0.00375004
0.000569442
-7.02865e-05
-7.07972e-06
1.15583e-05
4.23415e-06
5.88171e-09
-2.00316e-07
-4.59972e-08
1.98887e-09
8.69998e-10
-7.53875e-11
-4.70041e-11
1.8092e-12
1.9441e-12
1.19031e-13
-3.56271e-14
1.85423e-16
1.79101e-15
2.17972e-16
-5.4986e-18
-1.93594e-17
-8.56875e-18
2.6482e-09
-9.7584e-09
6.47418e-08
-3.4565e-07
1.45256e-06
-4.06228e-06
2.64513e-06
3.76356e-05
-0.000177473
0.000323916
0.000462903
-0.00269484
7.38265e-06
0.0131389
0.00482816
-0.0467038
-0.0739596
0.00840563
0.135404
0.161187
0.074697
-0.0317512
-0.0631971
-0.0338179
0.00020952
0.0098584
0.00634324
0.00158392
-0.000104349
-4.03125e-05
1.79764e-05
1.45054e-05
2.53898e-06
-4.72121e-07
-2.1882e-07
-1.16842e-08
4.08456e-09
7.54208e-10
-1.40168e-10
-2.5056e-11
1.01366e-11
2.59064e-12
-5.87444e-14
-5.2838e-16
1.59051e-14
2.67865e-15
8.55901e-17
-4.34462e-17
-2.93096e-17
-1.09451e-17
4.95248e-09
-1.8384e-08
1.20341e-07
-6.69919e-07
3.15919e-06
-1.16687e-05
2.66367e-05
-7.75079e-06
-0.000198768
0.00059637
-3.05752e-05
-0.00326998
0.00211383
0.0145652
0.00115786
-0.048883
-0.0636606
0.00222307
0.0667167
0.0495814
-0.0210206
-0.0687716
-0.0520887
-0.0145824
0.00840652
0.00828504
0.0030159
-4.12478e-05
-0.000252903
-1.32175e-05
4.13019e-05
1.55847e-05
1.2571e-07
-5.9643e-07
-1.43996e-07
1.11683e-08
4.16603e-09
-2.65367e-10
-1.48034e-10
2.36839e-11
1.47837e-11
1.63568e-12
-6.1999e-15
6.39685e-14
2.41766e-14
1.75629e-15
-1.80512e-16
-9.42123e-17
-3.97679e-17
-1.31859e-17
-1.11747e-08
-1.82024e-09
3.92062e-08
-5.00221e-07
3.41591e-06
-1.70354e-05
5.89736e-05
-0.000103025
-0.000102388
0.000860128
-0.000805809
-0.00347816
0.00418929
0.0153106
-0.00155624
-0.044968
-0.0488856
-0.0111933
0.00691018
-0.0195961
-0.0603155
-0.0623889
-0.0289856
0.00241794
0.0093376
0.00438554
-0.00011109
-0.000751204
-0.00015219
7.3847e-05
4.48523e-05
7.19232e-06
-1.33917e-06
-5.50907e-07
1.96254e-08
2.50719e-08
3.86897e-09
-6.74864e-10
-1.0666e-10
4.65323e-11
1.41116e-11
-3.69703e-13
4.24657e-14
1.02677e-13
2.2092e-14
-9.06055e-16
-4.29589e-16
-1.34989e-16
-4.72512e-17
-1.48455e-17
-6.54987e-08
1.06695e-07
-5.66501e-07
1.91267e-06
-3.03387e-06
-9.77727e-06
7.97882e-05
-0.000216981
0.000102591
0.000975559
-0.00163621
-0.00342683
0.00585192
0.0153918
-0.00257911
-0.0331907
-0.0336661
-0.0184333
-0.0226018
-0.0460932
-0.0576836
-0.0348352
-0.00427592
0.00944224
0.0054074
-0.00019461
-0.00165567
-0.000663882
3.08514e-05
0.000105996
3.73141e-05
-9.11812e-07
-1.50815e-06
-1.71051e-07
9.65731e-08
2.64173e-08
-2.02299e-09
-8.54789e-10
3.09237e-11
3.9241e-11
-8.75811e-14
-1.71879e-12
-3.11071e-14
6.47192e-14
1.40432e-15
-2.85504e-15
-5.96992e-16
-1.48222e-16
-5.03657e-17
-1.58361e-17
-6.80695e-08
2.54793e-07
-1.41717e-06
6.20416e-06
-1.66736e-05
1.86619e-05
6.45451e-05
-0.000319314
0.000402394
0.000898622
-0.00235777
-0.003276
0.00667494
0.0140363
-0.00053443
-0.0179795
-0.0180138
-0.0179133
-0.0277607
-0.0394425
-0.0290828
-0.00593479
0.00958165
0.00717692
2.04398e-05
-0.00304917
-0.00177406
-0.000244687
0.000171913
8.30243e-05
3.87684e-06
-4.99265e-06
-1.13358e-06
2.90359e-07
1.2291e-07
6.6262e-09
-4.15349e-09
-8.21458e-10
8.22156e-11
1.03915e-11
-1.11524e-11
-2.46698e-12
6.7557e-14
-3.5445e-15
-1.98736e-14
-3.92848e-15
-4.81399e-16
-1.38082e-16
-5.13552e-17
-1.64916e-17
8.10725e-07
3.25847e-07
-1.32734e-06
8.97301e-06
-3.12547e-05
6.33074e-05
-4.05077e-06
-0.000361906
0.000708086
0.00075452
-0.00290265
-0.00313012
0.00636416
0.011552
0.0045283
-0.0023925
-0.00330647
-0.00808455
-0.0166215
-0.0150521
-0.00145419
0.0109899
0.00986753
0.00110112
-0.00419337
-0.00329376
-0.000978304
0.000157736
0.000146865
2.33788e-05
-1.39178e-05
-4.9185e-06
2.52317e-07
3.62072e-07
6.41445e-08
-1.61566e-08
-5.03199e-09
8.98206e-11
5.21962e-11
-2.91399e-11
-1.32721e-11
-7.72889e-13
8.50783e-14
-5.38817e-14
-2.46945e-14
-3.00343e-15
-3.32577e-16
-1.34715e-16
-5.42443e-17
-1.71687e-17
2.82524e-06
-3.07415e-07
2.12183e-06
4.23752e-06
-3.77429e-05
0.000111933
-0.000117208
-0.000336695
0.000956507
0.000668705
-0.00313794
-0.00308035
0.00413765
0.00889909
0.0089939
0.00918737
0.00767434
0.00296548
8.96741e-05
0.00523795
0.0126728
0.0124252
0.00348303
-0.00397112
-0.00464615
-0.00197113
-2.39299e-07
0.000256549
5.75437e-05
-3.3309e-05
-1.55011e-05
-9.02505e-07
1.23236e-06
3.63852e-07
-4.10196e-08
-2.20115e-08
-2.49607e-09
4.50734e-10
3.98504e-11
-2.88831e-11
-4.80273e-12
1.56244e-12
1.76312e-13
-5.19289e-14
-1.50681e-14
-1.01264e-15
-3.17726e-16
-1.58073e-16
-6.04561e-17
-1.7642e-17
3.63744e-06
-3.0497e-06
8.58806e-06
-1.3392e-05
-2.2005e-05
0.000149085
-0.000239133
-0.000282913
0.00112676
0.00066897
-0.0029871
-0.00327498
0.00109306
0.00652282
0.0116424
0.0142401
0.0125088
0.00838263
0.00863885
0.0121632
0.0126883
0.00568869
-0.00244624
-0.00487868
-0.00255043
-0.0001202
0.000426679
0.000110768
-6.05014e-05
-4.05868e-05
-6.40175e-06
3.09055e-06
1.21335e-06
-8.7524e-09
-7.4369e-08
-1.66996e-08
2.46341e-09
7.37487e-10
1.31325e-11
1.1929e-11
1.15159e-11
2.54024e-12
5.68368e-14
-5.36094e-16
4.31438e-15
-1.70517e-16
-4.51461e-16
-2.00975e-16
-6.59213e-17
-1.68934e-17
-5.89219e-06
-1.0659e-05
1.32184e-05
-3.73658e-05
1.09978e-05
0.000162163
-0.000336006
-0.000247079
0.00121263
0.000769129
-0.00243697
-0.00376022
-0.00128615
0.00485452
0.0116268
0.013705
0.0108424
0.00783957
0.00799678
0.00853523
0.00508956
-0.000887928
-0.00384632
-0.00222729
7.69212e-05
0.000737365
0.000245495
-8.9202e-05
-9.53198e-05
-2.3582e-05
6.09722e-06
3.38613e-06
3.41108e-07
-2.3141e-07
-6.70268e-08
7.92493e-09
4.1635e-09
6.40982e-10
3.98858e-11
4.08001e-11
1.48068e-11
1.26058e-12
-1.20793e-13
9.86824e-15
7.2629e-15
-6.63525e-16
-6.65753e-16
-2.30826e-16
-6.32144e-17
-1.37631e-17
-2.64373e-05
-1.84065e-05
1.35754e-05
-5.71941e-05
5.72156e-05
0.00015941
-0.000411683
-0.000228793
0.001222
0.000923886
-0.00195644
-0.00395698
-0.00201868
0.00416957
0.00940738
0.00869568
0.00462544
0.00212788
0.00204259
0.00134672
-0.000982553
-0.00250905
-0.00121192
0.000803043
0.00132859
0.000537365
-0.000105395
-0.000182014
-5.87861e-05
8.33514e-06
8.30859e-06
1.47787e-06
-6.05396e-07
-2.15708e-07
1.26811e-08
1.75877e-08
4.01341e-09
-9.66031e-11
3.81584e-11
3.77835e-11
6.49178e-12
-1.14692e-12
-1.7341e-13
1.69546e-14
1.1306e-15
-2.28743e-15
-8.40469e-16
-2.13131e-16
-4.76518e-17
-8.10452e-18
-3.28934e-05
-2.97285e-06
2.26271e-05
-6.01171e-05
0.000109547
0.000143185
-0.000462555
-0.000210409
0.00116566
0.000930614
-0.00172883
-0.0033535
-0.000791822
0.00433828
0.00604493
0.00302661
-0.00119834
-0.00310358
-0.00310929
-0.0029517
-0.00235177
-0.000530775
0.001594
0.00203449
0.000977603
-4.83007e-05
-0.00026761
-0.000109733
8.17404e-06
1.87077e-05
4.31558e-06
-1.33813e-06
-6.19573e-07
-2.20653e-08
5.57208e-08
1.50969e-08
-9.20758e-10
-4.41659e-10
-3.1228e-11
-4.50177e-12
-6.79698e-12
-1.75935e-12
-7.82303e-14
8.42066e-15
-5.8477e-15
-2.85109e-15
-6.80038e-16
-1.35327e-16
-2.23741e-17
-1.46028e-18
3.45393e-05
6.71258e-05
5.27133e-05
-5.05372e-05
0.000140105
0.000109975
-0.000477163
-0.000128825
0.000937456
0.000445755
-0.00156923
-0.00132601
0.00218584
0.00473151
0.00327778
-0.000744103
-0.00382277
-0.00480671
-0.00469611
-0.00361885
-0.00133274
0.00125566
0.00213434
0.00129977
9.87984e-05
-0.000307152
-0.00014483
1.60504e-05
3.73589e-05
9.72373e-06
-2.66587e-06
-1.68967e-06
-1.82214e-07
1.44296e-07
4.29534e-08
-3.71638e-09
-2.93079e-09
-5.37832e-10
-2.5357e-11
-2.76097e-11
-1.06779e-11
-9.32063e-13
2.23535e-13
2.50101e-14
-5.82512e-15
-2.05689e-15
-3.21491e-16
-3.8724e-17
1.60201e-18
3.53195e-18
0.000120864
0.000136468
5.08738e-05
-7.28556e-05
0.000125803
5.49355e-05
-0.000385469
-9.24375e-06
0.000400799
-0.000453744
-0.000730949
0.00164772
0.005066
0.00462336
0.00146951
-0.00156759
-0.00324611
-0.00419029
-0.00453863
-0.00353002
-0.0011644
0.000801838
0.000771612
7.78749e-05
-0.000289983
-0.000123891
5.12292e-05
6.94768e-05
1.94015e-05
-5.22702e-06
-4.26969e-06
-6.99336e-07
3.1223e-07
1.08163e-07
-8.16459e-09
-1.14931e-08
-2.63386e-09
4.06822e-11
-2.82704e-11
-2.57345e-11
-4.29196e-12
1.21017e-12
3.21962e-13
6.33142e-15
-2.29098e-15
-3.93236e-16
6.76754e-19
2.63954e-17
1.35777e-17
4.90009e-18
4.96287e-05
6.06515e-05
-7.63834e-05
-0.000151749
9.4072e-05
3.62272e-05
-0.00017287
-9.70498e-05
-0.000493953
-0.000977455
0.00105524
0.00471147
0.00597957
0.00361493
0.000651775
-0.000714174
-0.00192988
-0.00394477
-0.00580558
-0.00554042
-0.00334004
-0.00140821
-0.000611614
-0.000343287
-5.72632e-05
0.000127873
0.000119403
3.44562e-05
-9.92684e-06
-9.1494e-06
-1.77662e-06
7.06115e-07
3.04974e-07
2.6891e-09
-3.04221e-08
-7.29502e-09
6.94971e-10
2.42231e-10
4.02444e-12
-2.73758e-12
4.33965e-12
1.82498e-12
2.19552e-13
-1.69192e-14
-1.83174e-15
1.85212e-16
1.08938e-16
3.79523e-17
1.09908e-17
2.77227e-18
-0.000123507
-9.57201e-05
-0.00020855
-0.000168813
0.000160575
0.000163118
-5.88719e-05
-0.000566474
-0.00131222
-0.000231957
0.00369552
0.00636322
0.00492376
0.00163954
0.00033739
-7.36585e-06
-0.00242828
-0.00767955
-0.0109568
-0.0099885
-0.0063996
-0.00294573
-0.000911852
-2.28969e-05
0.000238095
0.000183795
5.03739e-05
-1.9041e-05
-1.70979e-05
-3.46238e-06
1.56621e-06
7.85988e-07
5.50786e-08
-7.03667e-08
-1.64697e-08
3.44697e-09
1.70507e-09
2.27498e-10
-1.26369e-11
9.47845e-12
6.81622e-12
1.2404e-12
-1.29509e-13
-2.76003e-14
4.49985e-17
2.09988e-16
6.1509e-17
1.04232e-17
-3.35157e-20
-8.62175e-19
-9.16076e-05
-7.98593e-05
-9.70498e-05
8.22103e-05
0.000332635
0.000214495
-0.000468591
-0.00132346
-0.00135742
0.00193419
0.0058634
0.00576521
0.00233679
0.000205033
0.000429668
-0.00167356
-0.00963349
-0.0170008
-0.0188403
-0.0147462
-0.00825836
-0.00305521
-0.00041117
0.000303224
0.000236838
6.28213e-05
-3.14107e-05
-2.74821e-05
-5.5559e-06
3.1286e-06
1.70196e-06
1.45239e-07
-1.6722e-07
-4.41434e-08
7.63203e-09
5.10943e-09
8.21565e-10
-1.34992e-10
-9.05418e-12
1.15106e-11
2.98837e-12
-5.77966e-13
-1.89225e-13
-1.77195e-14
1.18227e-15
1.18099e-16
-2.28316e-17
-2.16743e-17
-1.00956e-17
-3.66828e-18
0.000411672
0.000384178
0.000343793
0.000321623
0.000149211
-0.000666903
-0.00130617
-0.00145964
0.00117126
0.00484541
0.00598535
0.00349709
0.000322792
0.000553019
-0.00148361
-0.0112762
-0.0248592
-0.0311025
-0.0281274
-0.0186523
-0.00864213
-0.00225258
6.70725e-05
0.000201209
5.60108e-05
-4.45352e-05
-3.65508e-05
-5.91838e-06
6.05352e-06
3.21897e-06
1.98961e-07
-4.05461e-07
-1.25218e-07
1.13809e-08
1.21248e-08
1.76017e-09
-7.55511e-10
-2.01159e-10
-2.41686e-12
3.50076e-13
-2.28594e-12
-9.83059e-13
-1.186e-13
1.9797e-14
2.33226e-15
-5.53482e-17
-8.01256e-17
-3.78728e-17
-1.40276e-17
-4.51508e-18
0.000721401
0.00049045
5.40545e-05
-0.000677402
-0.0014268
-0.00182105
-0.00132305
0.00134478
0.00483734
0.00578516
0.00320839
0.00117864
0.00136116
0.00138889
-0.0101144
-0.0310049
-0.0481259
-0.0490436
-0.037982
-0.0215729
-0.00818832
-0.0013533
9.57769e-05
7.17136e-06
-6.46656e-05
-4.20543e-05
-1.64225e-06
1.13193e-05
5.57348e-06
1.37158e-07
-8.58061e-07
-2.74811e-07
2.4168e-08
2.98473e-08
4.16314e-09
-2.29001e-09
-7.65232e-10
-5.13098e-11
1.17501e-11
-2.90235e-12
-2.71466e-12
-3.44606e-13
1.28179e-13
2.46611e-14
8.02678e-17
-2.56443e-16
-1.03683e-16
-3.72522e-17
-1.22693e-17
-3.71201e-18
-0.00261827
-0.00265458
-0.00292511
-0.00286599
-0.00220677
-0.000363425
0.00267052
0.00533026
0.00596583
0.0027911
1.51297e-05
0.00150104
0.00484411
-0.00322788
-0.0304454
-0.0633968
-0.0774785
-0.0698923
-0.047109
-0.0231342
-0.00713404
-0.000625862
-8.11685e-05
-6.96566e-05
-3.26638e-05
7.36739e-06
1.71742e-05
7.45078e-06
-4.17815e-07
-1.58662e-06
-4.59668e-07
8.30696e-08
7.40656e-08
1.15207e-08
-4.89999e-09
-1.66751e-09
-5.33519e-12
1.01127e-10
1.09827e-11
-3.60543e-12
-2.25671e-13
5.37286e-13
1.32027e-13
3.34939e-15
-1.88189e-15
-3.94562e-16
-9.26344e-17
-2.64156e-17
-7.76825e-18
-2.21895e-18
-0.00303606
-0.00269362
-0.0016284
0.000208479
0.00260635
0.0047651
0.00596903
0.00572244
0.00245307
-0.00147345
-0.000611047
0.00665713
0.0067922
-0.0208632
-0.0684202
-0.107783
-0.111709
-0.088579
-0.0527168
-0.0224782
-0.00540497
-0.000250772
-2.08162e-05
2.1609e-06
2.17827e-05
2.158e-05
7.29141e-06
-2.17751e-06
-2.73931e-06
-7.13898e-07
2.01525e-07
1.50046e-07
2.3444e-08
-1.09098e-08
-3.64882e-09
1.86817e-10
3.70776e-10
7.31199e-11
-3.10742e-12
1.25042e-12
1.57722e-12
4.35249e-13
-2.64472e-15
-1.60598e-14
-2.65042e-15
-2.24151e-16
-4.34452e-17
-1.11364e-17
-3.05692e-18
-8.37659e-19
0.00479225
0.00521854
0.00577947
0.00641074
0.00630855
0.00547881
0.00355518
0.00103236
-0.00219053
-0.00235422
0.00452521
0.0103127
-0.0106618
-0.0642181
-0.12766
-0.156753
-0.144323
-0.10088
-0.0533801
-0.0192874
-0.00324248
4.41582e-05
3.39259e-05
3.47584e-05
2.32391e-05
4.50045e-06
-4.91068e-06
-3.88635e-06
-8.06561e-07
4.34792e-07
2.55811e-07
2.40116e-08
-2.96181e-08
-9.89828e-09
3.79976e-10
8.79487e-10
1.62823e-10
-3.02397e-11
-5.71487e-12
1.04976e-12
4.59945e-13
-8.3201e-14
-6.71178e-14
-1.24014e-14
-8.52041e-17
3.4723e-17
7.9708e-18
1.39301e-18
2.02004e-19
2.93962e-20
0.00334294
0.00337012
0.00314359
0.00250567
0.00153077
-0.00014719
-0.000887616
-0.00163533
-0.00214741
0.00321347
0.00938186
-0.0137076
-0.0686418
-0.142616
-0.203392
-0.205105
-0.164161
-0.102121
-0.0470171
-0.0140356
-0.00127304
6.09673e-05
4.56188e-05
1.84858e-05
-1.52052e-06
-7.86516e-06
-4.50402e-06
-3.29877e-07
8.86119e-07
4.13448e-07
5.84845e-09
-6.19079e-08
-1.84354e-08
1.84631e-09
2.03146e-09
2.92367e-10
-1.31689e-10
-4.33687e-11
-4.06406e-12
-2.38289e-13
-4.40466e-13
-1.8836e-13
-1.67095e-14
6.04835e-15
9.66577e-16
1.48808e-16
3.01788e-17
6.33539e-18
1.38945e-18
3.31687e-19
0.000431497
0.000344917
4.7958e-05
-0.00021012
-0.000638768
-0.00129345
-0.000133787
0.000136544
0.00621953
0.0101721
-0.0364041
-0.116045
-0.202225
-0.26439
-0.279279
-0.241085
-0.167177
-0.0901704
-0.0360604
-0.00844538
-0.000198935
6.95062e-06
-1.44872e-06
-9.93339e-06
-8.9036e-06
-3.4314e-06
7.32154e-07
1.44368e-06
5.38985e-07
-4.97279e-08
-1.07085e-07
-2.62787e-08
6.67524e-09
4.37646e-09
5.76129e-10
-3.06694e-10
-9.80954e-11
-7.74901e-12
9.55386e-13
-9.17091e-13
-4.69706e-13
2.28777e-15
3.33036e-14
7.51547e-15
6.38798e-16
8.67774e-17
1.76803e-17
3.88889e-18
9.35006e-19
2.48684e-19
-0.000352844
-0.000336717
-0.000558689
-0.000183168
-0.000787335
0.000182162
0.000350547
0.00771536
0.0195838
-0.0787031
-0.235279
-0.368872
-0.432348
-0.414976
-0.34641
-0.247703
-0.146538
-0.0689931
-0.0237497
-0.00400171
7.4745e-06
-9.41323e-06
-8.51704e-06
-5.02996e-06
-6.17965e-07
1.98556e-06
1.65921e-06
4.16276e-07
-2.00589e-07
-1.59571e-07
-2.76988e-08
1.63837e-08
7.70392e-09
4.72692e-10
-7.889e-10
-2.209e-10
4.62184e-12
1.18151e-11
1.56839e-12
2.14559e-14
1.68821e-13
8.72926e-14
1.57997e-14
1.51039e-16
-1.29572e-16
-2.87067e-17
-5.1459e-18
-6.46906e-19
2.21138e-20
5.57703e-20
-0.000199084
4.41538e-05
-0.000477508
0.00108518
-0.00168983
0.00373729
-0.000750874
0.0255272
-0.143852
-0.451211
-0.716132
-0.809749
-0.729796
-0.558942
-0.376361
-0.223167
-0.112863
-0.0461397
-0.0136282
-0.00157349
-3.05935e-06
-6.65436e-07
4.7117e-08
2.08033e-06
2.85116e-06
1.57374e-06
6.73971e-08
-4.0554e-07
-2.09634e-07
-1.24007e-08
3.14832e-08
1.1378e-08
-6.62459e-10
-1.59414e-09
-3.54072e-10
7.05895e-11
3.89764e-11
5.62572e-12
1.30371e-13
4.19081e-13
1.79274e-13
1.17259e-14
-9.69583e-15
-2.28398e-15
-3.48168e-16
-6.92667e-17
-1.4112e-17
-2.68006e-18
-4.49293e-19
-5.91814e-20
-0.000394784
0.00011913
-0.00111614
0.0040197
-0.00513487
0.00912327
-0.0328325
-0.354269
-0.860751
-1.33643
-1.531
-1.37822
-1.01658
-0.638393
-0.354389
-0.17624
-0.0767681
-0.0277005
-0.00718565
-0.000551936
1.55046e-06
4.26845e-06
4.41294e-06
3.07894e-06
1.04816e-06
-2.82018e-07
-4.88034e-07
-1.78844e-07
2.83553e-08
4.80946e-08
1.23594e-08
-3.24237e-09
-2.40955e-09
-2.89862e-10
2.47786e-10
1.00162e-10
1.27224e-11
-1.74822e-12
1.87492e-13
1.46621e-13
-2.39692e-14
-2.61447e-14
-6.58783e-15
-8.50749e-16
-1.57897e-16
-3.84843e-17
-9.11468e-18
-1.9907e-18
-3.91071e-19
-6.82942e-20
-0.00104355
-0.000322031
-0.00312374
0.0134895
-0.165526
-0.639207
-1.26644
-1.93547
-2.52654
-2.77826
-2.52896
-1.89305
-1.17489
-0.620527
-0.288844
-0.122053
-0.0464842
-0.0150842
-0.00348885
-0.00015321
2.89163e-06
2.02537e-06
4.94888e-07
-4.34036e-07
-6.74061e-07
-3.8695e-07
-3.90582e-08
9.25528e-08
5.62609e-08
7.86729e-09
-7.14401e-09
-3.33032e-09
-1.66806e-10
3.95939e-10
1.17828e-10
-4.91217e-12
-1.18777e-11
-2.87188e-12
-4.26761e-13
-1.82391e-13
-5.28528e-14
-2.65896e-15
1.81456e-15
3.02246e-16
2.50902e-17
-2.25674e-18
-1.97581e-18
-6.59151e-19
-1.63758e-19
-3.43185e-20
-0.0892158
-0.365861
-0.944363
-2.05151
-3.40477
-4.4897
-5.04488
-5.22323
-5.04465
-4.41798
-3.34918
-2.1324
-1.13554
-0.514869
-0.206027
-0.0756241
-0.0255766
-0.00751093
-0.0015459
-3.78808e-05
-2.45057e-06
-1.30747e-06
-6.83528e-07
-2.92076e-07
-3.10789e-08
9.87886e-08
9.8574e-08
3.78353e-08
-3.80494e-09
-9.93668e-09
-3.09031e-09
4.28712e-10
5.32028e-10
9.85334e-11
-4.40972e-11
-2.394e-11
-5.54902e-12
-5.92799e-13
-1.7523e-13
-3.57917e-14
8.96942e-15
6.09062e-15