/*--------------------------------*- C++ -*----------------------------------*\
| =========                 |                                                 |
| \\      /  F ield         | OpenFOAM: The Open Source CFD Toolbox           |
|  \\    /   O peration     | Version:  v2006                                 |
|   \\  /    A nd           | Website:  www.openfoam.com                      |
|    \\/     M anipulation  |                                                 |
\*---------------------------------------------------------------------------*/
FoamFile
{
    version     2.0;
    format      ascii;
    class       surfaceScalarField;
    location    "18.7";
    object      alphaPhi0.water;
}
// * * * * * * * * * * * * * * * * * * * * * * * * * * * * * * * * * * * * * //

dimensions      [0 3 -1 0 0 0 0];
oriented        oriented;


internalField   nonuniform List<scalar> 
104500
(
1.42132e-05
-1.42132e-05
3.41795e-05
-1.99663e-05
5.32667e-05
-1.90872e-05
7.14904e-05
-1.82237e-05
8.94311e-05
-1.79406e-05
0.000107225
-1.77942e-05
0.000124953
-1.77274e-05
0.000142612
-1.76593e-05
0.000160165
-1.75534e-05
0.000177571
-1.74062e-05
0.000194801
-1.72296e-05
0.000211837
-1.70359e-05
0.000228671
-1.6834e-05
0.0002453
-1.66292e-05
0.000261724
-1.64236e-05
0.00027794
-1.6216e-05
0.000293948
-1.60085e-05
0.000309747
-1.57986e-05
0.000325338
-1.55913e-05
0.000340725
-1.53868e-05
0.00035591
-1.51852e-05
0.000370897
-1.49863e-05
0.000385686
-1.47892e-05
0.000400277
-1.45915e-05
0.000414669
-1.43917e-05
0.000428856
-1.41873e-05
0.000442829
-1.39725e-05
0.000456578
-1.3749e-05
0.00047009
-1.35123e-05
0.000483358
-1.32678e-05
0.000496373
-1.30147e-05
0.000509127
-1.27543e-05
0.000521611
-1.24841e-05
0.000533808
-1.21968e-05
0.00054569
-1.18825e-05
0.00055722
-1.15302e-05
0.000568353
-1.11326e-05
0.000579039
-1.06861e-05
0.000589229
-1.01898e-05
0.00059887
-9.64065e-06
0.000607898
-9.02817e-06
0.00061623
-8.33232e-06
0.00062376
-7.52951e-06
0.000630363
-6.60321e-06
0.000635921
-5.55869e-06
0.000640353
-4.43175e-06
0.00064364
-3.2869e-06
0.000645847
-2.2068e-06
0.000647112
-1.26518e-06
0.000647603
-4.91105e-07
0.000647544
5.95669e-08
0.000647119
4.24939e-07
0.000646463
6.55432e-07
0.000645677
7.86756e-07
0.000644827
8.49383e-07
0.000643965
8.62583e-07
0.000643127
8.37504e-07
0.000642361
7.6564e-07
0.000641714
6.46987e-07
0.000641237
4.77113e-07
0.000640981
2.56065e-07
0.000640978
3.7379e-09
0.000641302
-3.24732e-07
0.000642012
-7.09699e-07
0.00064313
-1.11791e-06
0.000644679
-1.54863e-06
0.000646677
-1.9986e-06
0.000649144
-2.4667e-06
0.000652097
-2.95294e-06
0.000655554
-3.4573e-06
0.00065953
-3.97641e-06
0.000664038
-4.50752e-06
0.000669084
-5.04649e-06
0.000674672
-5.58722e-06
0.000680795
-6.12347e-06
0.000687445
-6.64972e-06
0.000694606
-7.16108e-06
0.00070226
-7.65413e-06
0.000710386
-8.12544e-06
0.000718959
-8.57366e-06
0.000727957
-8.99741e-06
0.000737353
-9.39673e-06
0.000747124
-9.77116e-06
0.000757246
-1.01219e-05
0.000767698
-1.04515e-05
0.000778461
-1.07627e-05
0.00078952
-1.10594e-05
0.000800865
-1.1345e-05
0.000812488
-1.16235e-05
0.000824386
-1.1898e-05
0.000836553
-1.21669e-05
0.00084898
-1.24265e-05
0.000861649
-1.26688e-05
0.000874534
-1.28855e-05
0.000887603
-1.30688e-05
0.000900818
-1.3215e-05
0.000914137
-1.33194e-05
0.000927532
-1.33946e-05
0.000940976
-1.34445e-05
0.000954444
-1.34679e-05
0.000967919
-1.34745e-05
0.000981387
-1.34683e-05
0.000994841
-1.34534e-05
0.00100827
-1.34283e-05
0.00102166
-1.33944e-05
0.00103502
-1.33544e-05
0.00104833
-1.33087e-05
0.00106159
-1.32602e-05
0.00107479
-1.32016e-05
0.00108792
-1.31351e-05
0.00110098
-1.30609e-05
0.00111397
-1.29837e-05
0.00112687
-1.28976e-05
0.00113966
-1.27937e-05
0.00115235
-1.2689e-05
0.00116492
-1.25731e-05
0.00117737
-1.24453e-05
0.00118967
-1.2306e-05
0.00120183
-1.2155e-05
0.00121382
-1.19891e-05
0.00122562
-1.18061e-05
0.00123723
-1.16084e-05
0.00124863
-1.13953e-05
0.00125979
-1.11661e-05
0.00127072
-1.09248e-05
0.00128139
-1.06757e-05
0.00129182
-1.04251e-05
0.00130201
-1.01939e-05
0.00131198
-9.96366e-06
0.00132173
-9.75431e-06
0.0013313
-9.56792e-06
0.0013407
-9.39992e-06
0.00134994
-9.2445e-06
0.00135903
-9.08913e-06
0.00136795
-8.92217e-06
0.00137668
-8.73006e-06
0.00138519
-8.50349e-06
0.00139342
-8.23747e-06
0.00140135
-7.92627e-06
0.00140892
-7.57342e-06
0.00141611
-7.18496e-06
0.00142287
-6.76301e-06
0.00142918
-6.30685e-06
0.00143498
-5.79646e-06
0.00144019
-5.21823e-06
0.00144474
-4.54119e-06
0.00144847
-3.7316e-06
0.00145123
-2.76458e-06
0.00145286
-1.625e-06
0.00145316
-3.04119e-07
0.00145198
1.17616e-06
0.00144924
2.74724e-06
0.0014449
4.3344e-06
0.00143902
5.88209e-06
0.00143167
7.35511e-06
0.00142297
8.69695e-06
0.00141313
9.84295e-06
0.00140246
1.0669e-05
0.00139149
1.09674e-05
0.00138093
1.05616e-05
0.0013715
9.42873e-06
0.00136363
7.8719e-06
0.00135736
6.2635e-06
0.00135254
4.82555e-06
0.00134891
3.63225e-06
0.00134621
2.69537e-06
0.00134421
2.0023e-06
0.00134269
1.51925e-06
0.00134148
1.20527e-06
0.00134046
1.01913e-06
0.00133955
9.18947e-07
0.00133868
8.67752e-07
0.00133782
8.56214e-07
0.00133697
8.50171e-07
0.00133613
8.45186e-07
0.00133529
8.35833e-07
0.00133446
8.29357e-07
0.00133364
8.20221e-07
0.00133283
8.14726e-07
0.001332
8.2872e-07
0.00133113
8.66443e-07
0.00133019
9.35727e-07
0.00132914
1.05052e-06
0.00132793
1.20972e-06
0.0013265
1.43443e-06
0.00132478
1.71697e-06
0.00132272
2.05994e-06
0.00132026
2.46103e-06
0.00131734
2.92366e-06
0.0013139
3.4357e-06
0.00130991
3.99236e-06
0.00130532
4.5868e-06
0.00130011
5.21121e-06
0.00129425
5.85911e-06
0.00128773
6.52555e-06
0.00128053
7.19896e-06
0.00127266
7.87251e-06
0.00126411
8.54292e-06
0.00125491
9.20708e-06
0.00124506
9.84728e-06
0.00123458
1.04784e-05
0.00122348
1.10976e-05
0.00121178
1.16996e-05
0.00119949
1.22913e-05
0.00118662
1.28704e-05
0.00117318
1.34437e-05
0.00115916
1.40209e-05
0.00114456
1.45959e-05
0.00112938
1.51788e-05
0.00111362
1.57654e-05
0.00109726
1.63587e-05
0.0010803
1.69561e-05
0.00106274
1.75632e-05
0.00104457
1.81706e-05
0.00102578
1.87855e-05
0.00100638
1.93986e-05
0.000986368
2.00163e-05
0.000965738
2.06305e-05
0.00094449
2.12478e-05
0.000922634
2.18558e-05
0.000900168
2.24656e-05
0.000877104
2.30641e-05
0.000853446
2.36579e-05
0.000829201
2.42456e-05
0.000804385
2.48157e-05
0.000779008
2.53774e-05
0.000753081
2.5927e-05
0.000726621
2.64592e-05
0.000699652
2.69696e-05
0.000672187
2.74646e-05
0.000644248
2.79396e-05
0.00061585
2.83973e-05
0.00058702
2.883e-05
0.000557781
2.92395e-05
0.000528155
2.9626e-05
0.000498166
2.99888e-05
0.000467839
3.03274e-05
0.000437198
3.06408e-05
0.000406263
3.09349e-05
0.000375053
3.12096e-05
0.000343593
3.14607e-05
0.000311905
3.16872e-05
0.000280001
3.19041e-05
0.000247889
3.21122e-05
0.000215582
3.23074e-05
0.000183083
3.2499e-05
0.00015039
3.2693e-05
0.00011748
3.29101e-05
8.43149e-05
3.31648e-05
5.08602e-05
3.34547e-05
1.70417e-05
3.38185e-05
-1.72412e-05
3.4283e-05
-5.20688e-05
3.48275e-05
-8.75105e-05
3.54418e-05
-0.000123595
3.60846e-05
-0.000160305
3.67103e-05
-0.00019759
3.72846e-05
-0.000235376
3.7786e-05
-0.000273598
3.82224e-05
-0.000312225
3.86265e-05
-0.000351254
3.90292e-05
-0.00039071
3.94563e-05
-0.000430634
3.99235e-05
-0.00047108
4.04457e-05
-0.0005121
4.102e-05
-0.000553738
4.16386e-05
-0.000596033
4.22942e-05
-0.000638993
4.29606e-05
-0.000682595
4.3602e-05
-0.000726755
4.41596e-05
-0.000771318
4.45628e-05
-0.000816068
4.47502e-05
-0.0008608
4.47322e-05
-0.000905437
4.46367e-05
-0.000950108
4.46713e-05
-0.000995151
4.50435e-05
-0.00104091
4.57626e-05
-0.00108709
4.61736e-05
-0.00113182
4.47342e-05
-0.00117218
4.03614e-05
-0.00120534
3.31536e-05
-0.00122978
2.4441e-05
-0.00124565
1.58719e-05
-0.00125422
8.56853e-06
-0.00125725
3.02867e-06
-0.00125659
-6.57679e-07
-0.00125384
-2.75293e-06
-0.00124979
-4.05017e-06
-0.00124493
-4.85941e-06
-0.00123953
-5.39581e-06
-0.00123376
-5.77081e-06
-0.00122772
-6.03751e-06
-0.00122147
-6.25352e-06
-0.00121499
-6.47817e-06
-0.00120823
-6.76266e-06
-0.00120109
-7.14032e-06
-0.00119347
-7.62154e-06
-0.00118527
-8.20093e-06
-0.00117639
-8.87288e-06
-0.00116677
-9.62338e-06
-0.00115634
-1.04262e-05
-0.00114508
-1.12581e-05
-0.00113298
-1.21004e-05
-0.00112006
-1.29241e-05
-0.00110635
-1.37102e-05
-0.0010919
-1.4448e-05
-0.00107677
-1.51358e-05
-0.00106099
-1.57792e-05
-0.00104459
-1.63933e-05
-0.00102761
-1.69887e-05
-0.00101003
-1.7578e-05
-0.000991855
-1.81725e-05
-0.000973091
-1.87639e-05
-0.000953742
-1.93485e-05
-0.000933821
-1.99212e-05
-0.000913337
-2.04838e-05
-0.000892312
-2.10257e-05
-0.000870768
-2.15439e-05
-0.000848731
-2.20364e-05
-0.000826228
-2.25037e-05
-0.000803289
-2.29389e-05
-0.000779943
-2.33456e-05
-0.000756219
-2.37241e-05
-0.000732145
-2.40745e-05
-0.000707747
-2.43977e-05
-0.000683051
-2.46957e-05
-0.00065808
-2.49709e-05
-0.000632855
-2.52254e-05
-0.000607396
-2.5459e-05
-0.000581717
-2.56786e-05
-0.00055583
-2.58876e-05
-0.00052974
-2.60895e-05
-0.000503447
-2.62934e-05
-0.000476939
-2.65081e-05
-0.000450195
-2.67439e-05
-0.000423181
-2.70134e-05
-0.000395864
-2.73177e-05
-0.000368204
-2.76595e-05
-0.000340158
-2.80457e-05
-0.000311687
-2.84715e-05
-0.00028275
-2.89366e-05
-0.000253304
-2.94464e-05
-0.000223292
-3.00124e-05
-0.000192638
-3.06533e-05
-0.000161251
-3.13874e-05
-0.000129046
-3.22053e-05
-9.60034e-05
-3.30423e-05
-6.1761e-05
-3.42423e-05
-2.68235e-05
-3.49375e-05
-2.68235e-05
-7.22294e-06
-6.9903e-06
-1.49278e-05
-1.22614e-05
-2.43902e-05
-9.62477e-06
-3.34352e-05
-9.17871e-06
-4.21154e-05
-9.26051e-06
-5.07301e-05
-9.17941e-06
-5.93611e-05
-9.09642e-06
-6.79799e-05
-9.04052e-06
-7.65262e-05
-9.00703e-06
-8.49345e-05
-8.99788e-06
-9.31466e-05
-9.01755e-06
-0.000101109
-9.0739e-06
-0.000108768
-9.17456e-06
-0.000116068
-9.32917e-06
-0.000122952
-9.53944e-06
-0.000129365
-9.80374e-06
-0.000135265
-1.01082e-05
-0.000140611
-1.0453e-05
-0.000145362
-1.08402e-05
-0.000149493
-1.1255e-05
-0.000152989
-1.16897e-05
-0.000155847
-1.21284e-05
-0.000158081
-1.25554e-05
-0.000159712
-1.29598e-05
-0.000160777
-1.33272e-05
-0.000161314
-1.36497e-05
-0.000161365
-1.39214e-05
-0.000160977
-1.4137e-05
-0.000160191
-1.42984e-05
-0.000159049
-1.44101e-05
-0.000157583
-1.4481e-05
-0.000155816
-1.45206e-05
-0.000153765
-1.45352e-05
-0.000151435
-1.45265e-05
-0.000148837
-1.44812e-05
-0.000145985
-1.43815e-05
-0.000142913
-1.42047e-05
-0.000139671
-1.39279e-05
-0.00013633
-1.35317e-05
-0.000132972
-1.29982e-05
-0.000129686
-1.23143e-05
-0.000126548
-1.14697e-05
-0.000123613
-1.04648e-05
-0.000120898
-9.31871e-06
-0.000118387
-8.06978e-06
-0.00011604
-6.7787e-06
-0.00011381
-5.51707e-06
-0.000111662
-4.35461e-06
-0.000109571
-3.35584e-06
-0.000107518
-2.54443e-06
-0.000105542
-1.91576e-06
-0.000103601
-1.51625e-06
-0.000101661
-1.28487e-06
-9.96726e-05
-1.2015e-06
-9.76104e-05
-1.21281e-06
-9.54228e-05
-1.32507e-06
-9.30693e-05
-1.51601e-06
-9.0514e-05
-1.78967e-06
-8.77339e-05
-2.13307e-06
-8.4705e-05
-2.55179e-06
-8.14099e-05
-3.03901e-06
-7.78205e-05
-3.5857e-06
-7.3952e-05
-4.19323e-06
-6.98165e-05
-4.8452e-06
-6.54033e-05
-5.53107e-06
-6.07106e-05
-6.24134e-06
-5.57386e-05
-6.97058e-06
-5.0489e-05
-7.71636e-06
-4.4966e-05
-8.47592e-06
-3.91694e-05
-9.25393e-06
-3.31099e-05
-1.00359e-05
-2.67909e-05
-1.08265e-05
-2.02157e-05
-1.16217e-05
-1.33862e-05
-1.24168e-05
-6.30244e-06
-1.32072e-05
1.03725e-06
-1.39894e-05
8.63669e-06
-1.47605e-05
1.65024e-05
-1.55199e-05
2.46423e-05
-1.62654e-05
3.3068e-05
-1.69993e-05
4.17965e-05
-1.77259e-05
5.08454e-05
-1.84456e-05
6.02379e-05
-1.91637e-05
6.99992e-05
-1.98832e-05
8.01497e-05
-2.0602e-05
9.07044e-05
-2.13174e-05
0.00010167
-2.20246e-05
0.000113044
-2.27189e-05
0.00012481
-2.33903e-05
0.000136947
-2.40346e-05
0.000149428
-2.46479e-05
0.000162224
-2.5223e-05
0.000175314
-2.57582e-05
0.000188679
-2.62509e-05
0.000202311
-2.67007e-05
0.000216205
-2.7109e-05
0.000230366
-2.74802e-05
0.000244788
-2.78166e-05
0.000259468
-2.81246e-05
0.000274407
-2.84066e-05
0.000289599
-2.86673e-05
0.000305041
-2.89096e-05
0.000320723
-2.91358e-05
0.000336641
-2.93466e-05
0.000352792
-2.95452e-05
0.000369168
-2.97302e-05
0.000385761
-2.99016e-05
0.00040256
-3.00596e-05
0.000419561
-3.02023e-05
0.000436758
-3.03326e-05
0.000454148
-3.04503e-05
0.000471711
-3.0547e-05
0.000489447
-3.06339e-05
0.000507372
-3.07181e-05
0.000525456
-3.07727e-05
0.00054369
-3.08077e-05
0.000562086
-3.08414e-05
0.000580642
-3.08614e-05
0.000599354
-3.08676e-05
0.000618225
-3.08602e-05
0.000637257
-3.08381e-05
0.000656444
-3.0795e-05
0.000675779
-3.07306e-05
0.000695261
-3.06479e-05
0.000714877
-3.0541e-05
0.000734614
-3.04125e-05
0.000754449
-3.02598e-05
0.000774336
-3.00813e-05
0.000794243
-2.98706e-05
0.000814125
-2.96366e-05
0.00083393
-2.93724e-05
0.000853602
-2.90719e-05
0.000873092
-2.87345e-05
0.000892359
-2.83566e-05
0.000911372
-2.79348e-05
0.000930109
-2.74676e-05
0.000948556
-2.69502e-05
0.000966699
-2.63806e-05
0.000984527
-2.57541e-05
0.00100202
-2.50627e-05
0.00101914
-2.43049e-05
0.00103584
-2.34695e-05
0.00105208
-2.25475e-05
0.00106783
-2.15418e-05
0.00108304
-2.04286e-05
0.00109772
-1.92228e-05
0.00111193
-1.79378e-05
0.00112576
-1.6595e-05
0.00113936
-1.52323e-05
0.00115296
-1.3901e-05
0.00116679
-1.26509e-05
0.00118104
-1.15015e-05
0.00119585
-1.0474e-05
0.00121134
-9.61089e-06
0.00122763
-8.94119e-06
0.0012448
-8.4632e-06
0.0012628
-8.16471e-06
0.00128151
-8.03597e-06
0.00130054
-8.06112e-06
0.00131932
-8.22016e-06
0.00133719
-8.44746e-06
0.00135375
-8.68187e-06
0.00136889
-8.87757e-06
0.00138271
-8.99145e-06
0.00139533
-8.99117e-06
0.00140689
-8.8676e-06
0.00141752
-8.62981e-06
0.00142734
-8.2973e-06
0.00143644
-7.89462e-06
0.0014449
-7.43547e-06
0.00145277
-6.95276e-06
0.00146008
-6.44968e-06
0.00146688
-5.94063e-06
0.00147314
-5.41237e-06
0.00147886
-4.87357e-06
0.00148402
-4.324e-06
0.00148861
-3.75612e-06
0.00149259
-3.16342e-06
0.00149595
-2.54221e-06
0.00149865
-1.87613e-06
0.00150069
-1.17436e-06
0.00150206
-4.26767e-07
0.00150271
3.93956e-07
0.00150267
1.25485e-06
0.00150192
2.17912e-06
0.00150048
3.159e-06
0.00149835
4.1889e-06
0.00149555
5.25909e-06
0.00149211
6.36321e-06
0.00148806
7.49045e-06
0.00148342
8.63554e-06
0.00147821
9.78886e-06
0.00147248
1.09471e-05
0.00146624
1.20944e-05
0.00145953
1.32422e-05
0.00145234
1.43843e-05
0.00144469
1.55259e-05
0.00143657
1.66651e-05
0.00142797
1.7805e-05
0.00141886
1.89528e-05
0.00140923
2.0109e-05
0.00139905
2.12789e-05
0.00138829
2.24648e-05
0.00137691
2.36708e-05
0.00136489
2.48875e-05
0.00135222
2.61167e-05
0.00133887
2.73649e-05
0.00132484
2.86268e-05
0.00131012
2.99008e-05
0.0012947
3.11876e-05
0.00127859
3.24676e-05
0.00126179
3.3756e-05
0.0012443
3.50543e-05
0.00122613
3.63392e-05
0.00120728
3.76295e-05
0.00118776
3.89256e-05
0.00116757
4.0207e-05
0.0011467
4.14989e-05
0.00112517
4.2773e-05
0.00110297
4.40572e-05
0.00108012
4.53201e-05
0.0010566
4.6582e-05
0.00103243
4.78282e-05
0.00100762
4.90591e-05
0.000982152
5.02792e-05
0.000956068
5.14614e-05
0.000929368
5.26275e-05
0.000902057
5.37694e-05
0.000874161
5.48656e-05
0.000845692
5.59343e-05
0.000816662
5.69692e-05
0.0007871
5.79589e-05
0.000757029
5.89014e-05
0.000726467
5.98015e-05
0.000695439
6.06543e-05
0.00066397
6.14575e-05
0.000632088
6.22096e-05
0.000599818
6.29104e-05
0.000567193
6.35603e-05
0.000534244
6.41588e-05
0.000501005
6.46994e-05
0.0004675
6.51923e-05
0.000433765
6.56387e-05
0.000399837
6.60408e-05
0.000365747
6.63969e-05
0.000331531
6.67151e-05
0.000297227
6.69973e-05
0.00026288
6.72572e-05
0.00022856
6.74843e-05
0.000194308
6.77073e-05
0.000160218
6.79076e-05
0.000126419
6.80819e-05
9.30131e-05
6.82339e-05
6.01126e-05
6.83423e-05
2.77719e-05
6.84252e-05
-3.96673e-06
6.84489e-05
-3.51199e-05
6.84378e-05
-6.5736e-05
6.84021e-05
-9.58891e-05
6.83755e-05
-0.000125643
6.838e-05
-0.000155056
6.84427e-05
-0.000184179
6.85794e-05
-0.000213068
6.88121e-05
-0.000241761
6.91389e-05
-0.000270308
6.95674e-05
-0.000298758
7.00886e-05
-0.000327146
7.06823e-05
-0.000355501
7.13156e-05
-0.000383835
7.19353e-05
-0.000412151
7.24759e-05
-0.000440432
7.28437e-05
-0.00046864
7.29582e-05
-0.000496652
7.27447e-05
-0.000524149
7.21337e-05
-0.000550491
7.10128e-05
-0.000574646
6.91988e-05
-0.000595232
6.63481e-05
-0.000610916
6.1858e-05
-0.000622064
5.58822e-05
-0.000629805
4.81027e-05
-0.000635561
3.89089e-05
-0.000640694
2.95748e-05
-0.000646173
2.13507e-05
-0.000652284
1.46791e-05
-0.000658654
9.39847e-06
-0.000664461
5.1495e-06
-0.000668851
1.63775e-06
-0.000671291
-1.61079e-06
-0.000671569
-4.58097e-06
-0.000669788
-7.17732e-06
-0.000666218
-9.34082e-06
-0.000661277
-1.09786e-05
-0.000655406
-1.21241e-05
-0.000648993
-1.28915e-05
-0.000642336
-1.34189e-05
-0.000635634
-1.38427e-05
-0.000628981
-1.42746e-05
-0.0006224
-1.47818e-05
-0.000615867
-1.54056e-05
-0.000609323
-1.6168e-05
-0.000602679
-1.70701e-05
-0.000595817
-1.81197e-05
-0.000588605
-1.9313e-05
-0.000580908
-2.06208e-05
-0.000572624
-2.19945e-05
-0.000563681
-2.33905e-05
-0.000554061
-2.47563e-05
-0.000543785
-2.60546e-05
-0.000532912
-2.72664e-05
-0.000521506
-2.83945e-05
-0.000509632
-2.94524e-05
-0.000497352
-3.04529e-05
-0.000484682
-3.14337e-05
-0.000471632
-3.23986e-05
-0.00045819
-3.33627e-05
-0.000444339
-3.43352e-05
-0.000430067
-3.52977e-05
-0.000415368
-3.62428e-05
-0.000400244
-3.71601e-05
-0.000384724
-3.80241e-05
-0.000368824
-3.88387e-05
-0.000352585
-3.95848e-05
-0.000336047
-4.02615e-05
-0.00031926
-4.08613e-05
-0.000302277
-4.13811e-05
-0.000285168
-4.18049e-05
-0.000268
-4.21392e-05
-0.000250852
-4.23735e-05
-0.000233814
-4.24963e-05
-0.000216987
-4.25055e-05
-0.000200483
-4.2392e-05
-0.000184412
-4.21601e-05
-0.000168891
-4.18149e-05
-0.000154028
-4.13715e-05
-0.000139928
-4.0843e-05
-0.000126674
-4.02673e-05
-0.000114307
-3.96851e-05
-0.000102839
-3.91275e-05
-9.22485e-05
-3.86365e-05
-8.24504e-05
-3.82696e-05
-7.33324e-05
-3.80546e-05
-6.47471e-05
-3.80316e-05
-5.65571e-05
-3.82025e-05
-4.86225e-05
-3.85878e-05
-4.08518e-05
-3.91581e-05
-3.32382e-05
-3.98188e-05
-2.59631e-05
-4.03175e-05
-1.89182e-05
-4.12872e-05
-9.8441e-06
-4.40116e-05
-3.66676e-05
-1.53414e-05
8.35114e-06
-2.98e-05
2.19712e-06
-4.63185e-05
6.89379e-06
-6.29611e-05
7.46389e-06
-7.93482e-05
7.12654e-06
-9.54554e-05
6.92779e-06
-0.000111201
6.64947e-06
-0.000126483
6.24071e-06
-0.000141206
5.7166e-06
-0.000155288
5.08387e-06
-0.000168648
4.34234e-06
-0.000181213
3.49107e-06
-0.000192917
2.52953e-06
-0.000203704
1.45777e-06
-0.000213507
2.63353e-07
-0.000222268
-1.0423e-06
-0.000230047
-2.32878e-06
-0.000236821
-3.67954e-06
-0.0002426
-5.06109e-06
-0.000247407
-6.44751e-06
-0.000251308
-7.78892e-06
-0.000254363
-9.07397e-06
-0.00025664
-1.02784e-05
-0.00025822
-1.13799e-05
-0.000259172
-1.23752e-05
-0.000259558
-1.32637e-05
-0.000259426
-1.40529e-05
-0.000258814
-1.47491e-05
-0.000257768
-1.53447e-05
-0.000256321
-1.58564e-05
-0.000254514
-1.62884e-05
-0.000252382
-1.66527e-05
-0.000249947
-1.69697e-05
-0.000247238
-1.72359e-05
-0.00024426
-1.74597e-05
-0.000241015
-1.76262e-05
-0.000237502
-1.77171e-05
-0.000233717
-1.77131e-05
-0.000229667
-1.75816e-05
-0.000225349
-1.73164e-05
-0.000220755
-1.69086e-05
-0.00021587
-1.63549e-05
-0.000210668
-1.56663e-05
-0.000205112
-1.48754e-05
-0.000199155
-1.40262e-05
-0.000192761
-1.31734e-05
-0.000185915
-1.23626e-05
-0.000178609
-1.16602e-05
-0.000170836
-1.11293e-05
-0.000162654
-1.07269e-05
-0.000154083
-1.04862e-05
-0.000145237
-1.03628e-05
-0.000136153
-1.03686e-05
-0.000126882
-1.04722e-05
-0.000117427
-1.0668e-05
-0.000107814
-1.09383e-05
-9.8044e-05
-1.12857e-05
-8.81273e-05
-1.17064e-05
-7.80629e-05
-1.21975e-05
-6.7862e-05
-1.27527e-05
-5.75387e-05
-1.33622e-05
-4.71015e-05
-1.40229e-05
-3.65742e-05
-1.47205e-05
-2.5972e-05
-1.54474e-05
-1.53047e-05
-1.61983e-05
-4.58003e-06
-1.6966e-05
6.2001e-06
-1.77507e-05
1.70331e-05
-1.85494e-05
2.7922e-05
-1.93648e-05
3.88578e-05
-2.01898e-05
4.98578e-05
-2.10359e-05
6.0926e-05
-2.18946e-05
7.20678e-05
-2.27635e-05
8.32924e-05
-2.36414e-05
9.46109e-05
-2.45257e-05
0.000106035
-2.54139e-05
0.000117579
-2.63046e-05
0.000129259
-2.71989e-05
0.000141087
-2.80942e-05
0.000153081
-2.89934e-05
0.000165253
-2.98974e-05
0.000177614
-3.08068e-05
0.000190175
-3.1724e-05
0.000202935
-3.26433e-05
0.000215895
-3.35627e-05
0.000229056
-3.44784e-05
0.000242411
-3.53788e-05
0.000255951
-3.6259e-05
0.000269669
-3.71084e-05
0.000283558
-3.79244e-05
0.000297614
-3.87031e-05
0.000311834
-3.94438e-05
0.000326225
-4.0149e-05
0.000340791
-4.0817e-05
0.000355542
-4.14507e-05
0.000370486
-4.20535e-05
0.000385629
-4.26229e-05
0.000400982
-4.31696e-05
0.000416549
-4.36915e-05
0.000432331
-4.41886e-05
0.000448325
-4.46615e-05
0.000464525
-4.511e-05
0.000480925
-4.55354e-05
0.000497518
-4.59396e-05
0.000514292
-4.63191e-05
0.000531231
-4.6669e-05
0.000548326
-4.69967e-05
0.000565571
-4.73048e-05
0.000582947
-4.75782e-05
0.000600449
-4.78348e-05
0.000618055
-4.80564e-05
0.000635769
-4.8261e-05
0.000653567
-4.84318e-05
0.000671423
-4.85742e-05
0.000689343
-4.86921e-05
0.000707327
-4.87925e-05
0.000725339
-4.88529e-05
0.000743359
-4.88814e-05
0.000761368
-4.8877e-05
0.000779346
-4.88377e-05
0.000797261
-4.8753e-05
0.000815087
-4.86216e-05
0.000832811
-4.84544e-05
0.000850398
-4.8235e-05
0.000867825
-4.79681e-05
0.00088507
-4.76572e-05
0.000902115
-4.73045e-05
0.000918929
-4.68959e-05
0.000935522
-4.64626e-05
0.000951865
-4.598e-05
0.00096795
-4.54571e-05
0.000983769
-4.48914e-05
0.000999321
-4.42864e-05
0.0010146
-4.36399e-05
0.00102962
-4.29522e-05
0.00104438
-4.22217e-05
0.00105888
-4.14499e-05
0.00107313
-4.06349e-05
0.00108715
-3.97738e-05
0.00110095
-3.88649e-05
0.00111454
-3.78963e-05
0.00112794
-3.68673e-05
0.00114117
-3.57727e-05
0.00115423
-3.46097e-05
0.00116718
-3.33729e-05
0.00118003
-3.20787e-05
0.00119284
-3.07389e-05
0.00120561
-2.9373e-05
0.00121839
-2.80051e-05
0.00123115
-2.66639e-05
0.00124387
-2.5376e-05
0.00125654
-2.41636e-05
0.00126911
-2.30467e-05
0.00128154
-2.2045e-05
0.00129378
-2.11747e-05
0.00130576
-2.04424e-05
0.00131743
-1.98401e-05
0.00132874
-1.93408e-05
0.00133957
-1.88914e-05
0.00134978
-1.8432e-05
0.00135926
-1.79261e-05
0.00136797
-1.73913e-05
0.00137594
-1.68529e-05
0.00138326
-1.63077e-05
0.00139
-1.57372e-05
0.00139626
-1.5126e-05
0.0014021
-1.44672e-05
0.00140757
-1.37641e-05
0.00141269
-1.30178e-05
0.00141749
-1.22389e-05
0.00142196
-1.14205e-05
0.00142608
-1.05696e-05
0.00142983
-9.69229e-06
0.00143321
-8.78471e-06
0.00143618
-7.84481e-06
0.00143873
-6.87479e-06
0.00144084
-5.8706e-06
0.00144251
-4.82948e-06
0.00144371
-3.74811e-06
0.00144447
-2.6302e-06
0.00144475
-1.4544e-06
0.00144455
-2.25377e-07
0.00144391
1.02948e-06
0.0014428
2.3671e-06
0.00144123
3.75102e-06
0.00143921
5.17752e-06
0.00143673
6.66857e-06
0.0014338
8.18987e-06
0.00143041
9.746e-06
0.00142657
1.13323e-05
0.00142227
1.29379e-05
0.0014175
1.45577e-05
0.00141226
1.61878e-05
0.00140653
1.78258e-05
0.0014003
1.94698e-05
0.00139357
2.11131e-05
0.00138633
2.27665e-05
0.00137857
2.44293e-05
0.00137027
2.61029e-05
0.00136143
2.77931e-05
0.00135203
2.95053e-05
0.00134207
3.12424e-05
0.00133153
3.301e-05
0.00132039
3.48024e-05
0.00130867
3.66153e-05
0.00129632
3.84581e-05
0.00128336
4.03266e-05
0.00126977
4.22178e-05
0.00125555
4.41261e-05
0.00124068
4.6052e-05
0.00122516
4.79891e-05
0.00120898
4.99324e-05
0.00119215
5.18847e-05
0.00117464
5.38488e-05
0.00115648
5.57988e-05
0.00113764
5.77593e-05
0.00111812
5.97271e-05
0.00109795
6.16734e-05
0.00107708
6.36354e-05
0.00105557
6.5569e-05
0.00103338
6.7514e-05
0.00101054
6.94218e-05
0.000987032
7.13346e-05
0.000962892
7.31997e-05
0.00093812
7.50506e-05
0.000912717
7.68646e-05
0.000886706
7.8639e-05
0.00086009
8.03854e-05
0.000832896
8.20593e-05
0.000805138
8.36926e-05
0.000776833
8.52735e-05
0.000747994
8.67987e-05
0.000718656
8.82392e-05
0.000688835
8.96219e-05
0.000658557
9.09327e-05
0.000627845
9.21692e-05
0.000596727
9.33278e-05
0.00056523
9.44075e-05
0.000533383
9.54071e-05
0.000501206
9.63357e-05
0.000468749
9.71567e-05
0.000436041
9.79002e-05
0.000403112
9.85677e-05
0.000369986
9.91666e-05
0.000336736
9.96474e-05
0.000303366
0.000100086
0.000269952
0.000100411
0.000236526
0.000100683
0.000203143
0.000100868
0.000169861
0.000100989
0.000136768
0.000101001
0.000103905
0.000100945
7.13613e-05
0.000100778
3.92161e-05
0.000100488
7.5515e-06
0.00010009
-2.3582e-05
9.95824e-05
-5.41372e-05
9.8993e-05
-8.40737e-05
9.83387e-05
-0.000113341
9.76431e-05
-0.000141904
9.69426e-05
-0.000169689
9.6228e-05
-0.000196618
9.55078e-05
-0.000222602
9.47971e-05
-0.000247558
9.40949e-05
-0.000271404
9.34131e-05
-0.000294062
9.27469e-05
-0.000315468
9.2088e-05
-0.000335579
9.14263e-05
-0.000354379
9.07352e-05
-0.000371874
8.99712e-05
-0.000388112
8.90818e-05
-0.000403166
8.80121e-05
-0.000417136
8.67143e-05
-0.000430103
8.51009e-05
-0.000442159
8.30692e-05
-0.00045345
8.04898e-05
-0.000464272
7.71699e-05
-0.000475335
7.29212e-05
-0.000486705
6.72523e-05
-0.000498639
6.00361e-05
-0.000511503
5.17731e-05
-0.000525557
4.36289e-05
-0.000540759
3.65522e-05
-0.000556732
3.06529e-05
-0.000572863
2.55288e-05
-0.000588518
2.08051e-05
-0.000603183
1.63025e-05
-0.000616713
1.19196e-05
-0.000628972
7.67732e-06
-0.000639836
3.68659e-06
-0.000649221
4.40728e-08
-0.000657198
-3.0015e-06
-0.000663614
-5.7076e-06
-0.000668446
-8.0596e-06
-0.000671711
-1.01544e-05
-0.000673482
-1.20711e-05
-0.000673882
-1.38751e-05
-0.000673061
-1.56027e-05
-0.000671184
-1.72828e-05
-0.0006684
-1.89517e-05
-0.000664822
-2.06483e-05
-0.000660513
-2.24288e-05
-0.0006555
-2.43259e-05
-0.000649774
-2.63463e-05
-0.000643302
-2.84663e-05
-0.000636057
-3.0636e-05
-0.000628021
-3.27927e-05
-0.000619196
-3.48795e-05
-0.000609604
-3.68579e-05
-0.000599283
-3.87153e-05
-0.000588279
-4.04565e-05
-0.000576626
-4.21065e-05
-0.000564359
-4.37006e-05
-0.000551493
-4.52641e-05
-0.000538038
-4.68181e-05
-0.000524003
-4.83698e-05
-0.000509381
-4.992e-05
-0.000494164
-5.14595e-05
-0.000478356
-5.29684e-05
-0.000461946
-5.4434e-05
-0.000444952
-5.58326e-05
-0.000427381
-5.71556e-05
-0.000409262
-5.83806e-05
-0.000390616
-5.95075e-05
-0.000371478
-6.05189e-05
-0.000351886
-6.13971e-05
-0.000331896
-6.21296e-05
-0.000311564
-6.27055e-05
-0.000290966
-6.30939e-05
-0.000270188
-6.32832e-05
-0.000249342
-6.32384e-05
-0.000228551
-6.29513e-05
-0.000207955
-6.24108e-05
-0.00018773
-6.15963e-05
-0.000168037
-6.05354e-05
-0.000149076
-5.92286e-05
-0.000131037
-5.7724e-05
-0.000114091
-5.60742e-05
-9.83806e-05
-5.43466e-05
-8.40403e-05
-5.26099e-05
-7.11391e-05
-5.09558e-05
-5.97189e-05
-4.94519e-05
-4.97205e-05
-4.82009e-05
-4.10434e-05
-4.72648e-05
-3.34985e-05
-4.67031e-05
-2.68474e-05
-4.64699e-05
-2.05327e-05
-4.66322e-05
-1.35572e-05
-4.82627e-05
-4.87152e-06
-5.26973e-05
-4.15391e-05
-1.31408e-05
2.1492e-05
-2.3337e-05
1.23933e-05
-3.63922e-05
1.9949e-05
-5.02692e-05
2.13408e-05
-6.36725e-05
2.05299e-05
-7.64784e-05
1.97337e-05
-8.86887e-05
1.88598e-05
-0.000100214
1.77659e-05
-0.000110957
1.64597e-05
-0.000120838
1.49653e-05
-0.000129793
1.32973e-05
-0.000137771
1.14685e-05
-0.000144736
9.49452e-06
-0.000150672
7.3944e-06
-0.000155599
5.19005e-06
-0.000159558
2.91623e-06
-0.000162521
6.34171e-07
-0.000164606
-1.59435e-06
-0.000165833
-3.83424e-06
-0.0001663
-5.98043e-06
-0.000166049
-8.03984e-06
-0.000165192
-9.93084e-06
-0.000163801
-1.1669e-05
-0.000161937
-1.32446e-05
-0.000159673
-1.46391e-05
-0.000157071
-1.58653e-05
-0.000154161
-1.69628e-05
-0.000150996
-1.79145e-05
-0.000147583
-1.87578e-05
-0.000143952
-1.94868e-05
-0.000140123
-2.01174e-05
-0.000136121
-2.06556e-05
-0.000131977
-2.11128e-05
-0.000127719
-2.1494e-05
-0.000123366
-2.18129e-05
-0.000118941
-2.20511e-05
-0.00011443
-2.22283e-05
-0.000109813
-2.23305e-05
-0.000105033
-2.23613e-05
-0.000100067
-2.22821e-05
-9.48365e-05
-2.21394e-05
-8.92899e-05
-2.19015e-05
-8.3359e-05
-2.15972e-05
-7.69869e-05
-2.12475e-05
-7.01434e-05
-2.08697e-05
-6.27975e-05
-2.05192e-05
-5.4964e-05
-2.01961e-05
-4.67076e-05
-1.99166e-05
-3.80823e-05
-1.97546e-05
-2.91611e-05
-1.9648e-05
-2.00028e-05
-1.96445e-05
-1.06413e-05
-1.97243e-05
-1.13102e-06
-1.98789e-05
8.51e-06
-2.01132e-05
1.82403e-05
-2.03983e-05
2.80726e-05
-2.07706e-05
3.79786e-05
-2.11918e-05
4.79566e-05
-2.16843e-05
5.79999e-05
-2.22408e-05
6.80983e-05
-2.28512e-05
7.82479e-05
-2.35119e-05
8.84411e-05
-2.42161e-05
9.86691e-05
-2.49485e-05
0.000108923
-2.57015e-05
0.000119217
-2.64921e-05
0.00012955
-2.72988e-05
0.000139922
-2.81228e-05
0.000150353
-2.89808e-05
0.000160838
-2.98493e-05
0.000171397
-3.07493e-05
0.000182035
-3.16733e-05
0.000192749
-3.26092e-05
0.000203563
-3.35777e-05
0.000214483
-3.45609e-05
0.000225509
-3.55523e-05
0.000236657
-3.6562e-05
0.00024794
-3.7587e-05
0.000259366
-3.86252e-05
0.000270949
-3.96767e-05
0.000282688
-4.07326e-05
0.000294586
-4.17958e-05
0.000306644
-4.28649e-05
0.000318853
-4.39331e-05
0.00033121
-4.49996e-05
0.000343707
-4.606e-05
0.000356335
-4.71069e-05
0.000369091
-4.81348e-05
0.000381972
-4.91393e-05
0.00039498
-5.0117e-05
0.000408121
-5.10656e-05
0.000421402
-5.1984e-05
0.000434831
-5.28725e-05
0.000448413
-5.37313e-05
0.000462157
-5.45608e-05
0.000476068
-5.53612e-05
0.000490146
-5.61321e-05
0.000504402
-5.68792e-05
0.000518825
-5.75918e-05
0.000533408
-5.82746e-05
0.000548145
-5.89263e-05
0.00056303
-5.95462e-05
0.000578054
-6.01342e-05
0.00059321
-6.0691e-05
0.000608482
-6.12117e-05
0.000623853
-6.16903e-05
0.000639323
-6.21391e-05
0.000654878
-6.25513e-05
0.000670504
-6.29309e-05
0.000686188
-6.32619e-05
0.000701915
-6.35624e-05
0.000717678
-6.3819e-05
0.000733463
-6.40456e-05
0.000749241
-6.42107e-05
0.000765019
-6.43519e-05
0.000780777
-6.44502e-05
0.000796493
-6.45078e-05
0.000812152
-6.45122e-05
0.000827746
-6.44751e-05
0.000843258
-6.43895e-05
0.000858675
-6.42545e-05
0.000873973
-6.40514e-05
0.000889158
-6.38062e-05
0.000904207
-6.35031e-05
0.000919114
-6.31422e-05
0.000933868
-6.27227e-05
0.000948463
-6.22516e-05
0.000962885
-6.17264e-05
0.000977155
-6.11664e-05
0.000991237
-6.05445e-05
0.00100514
-5.98865e-05
0.00101887
-5.91833e-05
0.00103243
-5.84468e-05
0.00104581
-5.76672e-05
0.00105902
-5.68506e-05
0.00107206
-5.59932e-05
0.00108493
-5.50964e-05