/*--------------------------------*- C++ -*----------------------------------*\
| =========                 |                                                 |
| \\      /  F ield         | OpenFOAM: The Open Source CFD Toolbox           |
|  \\    /   O peration     | Version:  v2006                                 |
|   \\  /    A nd           | Website:  www.openfoam.com                      |
|    \\/     M anipulation  |                                                 |
\*---------------------------------------------------------------------------*/
FoamFile
{
    version     2.0;
    format      ascii;
    class       volScalarField;
    location    "0";
    object      f;
}
// * * * * * * * * * * * * * * * * * * * * * * * * * * * * * * * * * * * * * //

dimensions      [0 0 0 0 0 0 0];


internalField   nonuniform List<scalar> 
2500
(
-6.2657e-32
6.59493e-26
-1.09535e-22
-4.6675e-20
3.23897e-18
-3.13299e-18
-3.35389e-16
1.02548e-14
-3.31048e-13
8.93022e-12
-1.53838e-10
1.24298e-09
-9.93666e-10
-5.10559e-08
1.77664e-06
-2.72643e-05
9.37319e-05
0.00052164
-0.00545752
-0.00853496
0.0924369
0.397154
0.7458
0.88016
0.705989
0.360868
0.0907819
-0.00207891
-0.00426329
-0.00103418
0.000370561
0.000251082
3.27295e-05
-7.85523e-06
-4.18569e-06
-5.72595e-07
-4.53961e-08
-1.62235e-08
-7.51356e-10
8.54871e-10
2.9866e-10
3.3877e-12
-6.4448e-12
-9.10782e-13
1.0255e-13
1.8439e-14
1.3108e-15
-6.94771e-17
-2.64757e-16
-3.61089e-17
-8.71966e-30
2.00381e-24
-1.14698e-21
-5.76716e-19
1.98056e-17
-2.64879e-18
-1.39383e-15
5.73054e-14
-1.79354e-12
5.20519e-11
-1.22159e-09
2.02199e-08
-1.97171e-07
7.73057e-07
2.30875e-06
-7.1659e-05
0.000472449
0.000368639
-0.0110389
-0.00259055
0.127236
0.358901
0.535972
0.506639
0.318279
0.119803
0.0141953
-0.00360264
-0.0014257
0.000455813
0.000428526
0.000126843
-1.98749e-06
-2.2081e-06
-1.7407e-07
8.51121e-08
-3.06155e-08
-1.45723e-08
-1.80828e-09
-9.42973e-11
-3.71615e-11
-6.02542e-12
2.38546e-13
6.52932e-13
9.47657e-14
6.44252e-15
3.81376e-16
-8.69806e-17
-1.47467e-16
-2.49184e-17
-8.86178e-28
4.76172e-23
-4.96373e-21
-5.52469e-18
8.8387e-17
1.13907e-17
-2.65807e-15
9.22252e-14
-2.80722e-12
9.06725e-11
-3.26658e-09
7.25676e-08
-9.6433e-07
6.80228e-06
-1.21374e-05
-0.000116584
0.00119365
-0.000920578
-0.0192903
0.00403733
0.193067
0.528894
0.774163
0.746534
0.491526
0.199713
0.0296485
-0.00479073
-0.00238237
0.000365533
0.000623569
0.000193186
5.30829e-06
-4.11658e-06
-1.22443e-06
-1.11619e-07
-4.04173e-08
-1.82625e-08
-1.61394e-09
2.632e-10
7.54505e-11
-3.66243e-12
-1.72141e-12
2.95665e-13
1.40843e-13
9.34826e-15
3.72377e-16
-1.68088e-16
-2.03243e-16
-3.5929e-17
-8.04262e-26
1.07088e-21
5.80006e-20
-4.93038e-17
8.11889e-16
-1.68177e-14
5.31333e-13
-1.10293e-11
1.42982e-10
-7.97966e-10
-4.56274e-09
1.41302e-07
-2.43629e-06
2.17455e-05
-8.57506e-05
-0.000122999
0.00239802
-0.00435872
-0.0300015
0.0170418
0.263877
0.633716
0.830048
0.729654
0.424636
0.135289
0.00439232
-0.00588056
-0.00123554
0.00127073
0.000814294
0.00017048
-4.92208e-06
-2.80735e-06
1.37724e-08
7.38673e-08
-4.4416e-08
-2.37387e-08
-2.22448e-09
1.12094e-10
1.83565e-11
-4.11989e-12
5.58027e-13
8.5291e-13
1.58677e-13
6.42274e-15
1.85135e-16
-2.91355e-16
-2.72614e-16
-5.00414e-17
-6.75961e-24
2.25662e-20
1.97829e-18
-4.398e-16
1.4001e-14
-3.40944e-13
6.68292e-12
-1.0721e-10
1.37784e-09
-1.27499e-08
6.56385e-08
1.06011e-07
-3.67861e-06
4.56679e-05
-0.000253385
0.000187262
0.00398551
-0.0100745
-0.0417801
0.0325766
0.334183
0.728488
0.890686
0.738745
0.391363
0.101076
-0.0048928
-0.00629768
5.17713e-05
0.00179138
0.000926374
0.000142265
-5.16887e-06
-1.48771e-06
5.26198e-07
9.23221e-08
-5.18245e-08
-2.38102e-08
-1.53504e-09
2.05265e-10
3.35194e-11
-2.67394e-12
1.24557e-12
8.88839e-13
1.25374e-13
2.47044e-15
-1.66068e-16
-4.62691e-16
-3.55422e-16
-6.70862e-17
-5.30504e-22
4.4054e-19
2.49868e-17
-2.32916e-15
6.24318e-14
-1.23411e-12
2.08665e-11
-3.11226e-10
4.12425e-09
-4.58621e-08
3.95255e-07
-1.9249e-06
-9.0999e-07
6.57686e-05
-0.000543804
0.00109486
0.0055862
-0.0181449
-0.0532244
0.0507027
0.394888
0.784691
0.891036
0.666644
0.296875
0.0482777
-0.0135874
-0.00633053
0.00180868
0.00234436
0.000927349
8.20601e-05
-4.247e-06
9.8217e-07
1.28171e-06
1.474e-07
-6.39107e-08
-2.37698e-08
-6.24762e-10
2.56784e-10
1.5732e-11
-3.04622e-12
1.81419e-12
9.05088e-13
4.65716e-14
-3.9441e-15
-7.35999e-16
-6.7688e-16
-4.45461e-16
-8.6166e-17
-3.86343e-20
8.06567e-18
8.81254e-17
-4.71032e-15
1.01872e-13
-1.80053e-12
2.86173e-11
-4.20924e-10
5.95388e-09
-8.56316e-08
1.09221e-06
-8.56654e-06
3.10648e-05
5.2815e-05
-0.000924584
0.00268611
0.0066289
-0.0281646
-0.0630522
0.0695246
0.437681
0.79885
0.831793
0.55317
0.202698
0.00859927
-0.0152141
-0.00400823
0.00336523
0.00262923
0.000765414
2.48876e-05
-5.49605e-07
3.71533e-06
1.79214e-06
8.69418e-08
-7.12103e-08
-1.81745e-08
7.94258e-10
3.44994e-10
-1.40138e-11
-7.64655e-12
1.33322e-12
4.89696e-13
-5.22748e-14
-1.28512e-14
-1.42781e-15
-9.03325e-16
-5.31235e-16
-1.05591e-16
-2.57199e-18
1.97289e-16
-6.1404e-15
1.87954e-13
-4.17701e-12
6.86154e-11
-8.41163e-10
7.24057e-09
-3.47387e-08
-3.71909e-08
1.73707e-06
-2.06745e-05
0.000109621
-0.000138535
-0.00128507
0.00501851
0.0067102
-0.0390378
-0.0702323
0.0858121
0.457506
0.762541
0.715075
0.41236
0.10864
-0.0188511
-0.0151129
0.000234149
0.0045437
0.00264102
0.000505216
-1.27116e-05
1.78537e-06
6.13235e-06
2.02211e-06
-3.42672e-08
-7.50678e-08
-9.4505e-09
1.80211e-09
3.54591e-10
-6.2565e-11
-1.49212e-11
6.62836e-13
-2.64749e-14
-1.30213e-13
-2.10279e-14
-1.93287e-15
-1.08652e-15
-5.9762e-16
-1.23066e-16
-1.46455e-16
5.29302e-15
-1.29207e-13
2.47199e-12
-3.95642e-11
5.29814e-10
-5.83532e-09
5.07602e-08
-3.22797e-07
1.2319e-06
4.81097e-07
-3.23988e-05
0.000237903
-0.000551657
-0.00143079
0.00789227
0.00530465
-0.0494119
-0.0742499
0.0970258
0.45525
0.666984
0.565346
0.26813
0.03197
-0.0285687
-0.0127207
0.00378354
0.00495157
0.0020747
0.000203663
-2.00887e-05
6.4517e-06
7.93069e-06
1.73729e-06
-1.48611e-07
-7.42781e-08
7.63251e-10
2.43907e-09
1.00402e-10
-1.13246e-10
-1.70979e-11
4.65234e-13
-2.85593e-13
-1.53166e-13
-2.02074e-14
-2.28797e-15
-1.18541e-15
-6.30333e-16
-1.36185e-16
-1.55202e-15
2.60977e-14
-4.84409e-13
7.62601e-12
-1.07686e-10
1.37032e-09
-1.51005e-08
1.37879e-07
-9.86188e-07
5.07307e-06
-1.37063e-05
-3.04024e-05
0.000382786
-0.00119781
-0.00109628
0.0108718
0.00303068
-0.0582123
-0.0751835
0.102703
0.420585
0.542417
0.39689
0.137935
-0.0200364
-0.0288916
-0.00647721
0.00574719
0.00445228
0.0011627
-4.73577e-05
-1.60782e-05
1.47914e-05
8.89921e-06
9.84082e-07
-1.97503e-07
-4.73377e-08
9.75621e-09
2.87283e-09
-3.20143e-10
-1.51335e-10
-5.18294e-12
2.15804e-12
-4.45557e-14
-9.85596e-14
-1.42067e-14
-2.35994e-15
-1.16363e-15
-6.20593e-16
-1.43119e-16
-3.95358e-15
4.4743e-14
-6.7894e-13
7.45852e-12
-9.37225e-11
1.44288e-09
-1.91613e-08
1.98804e-07
-1.83049e-06
1.2268e-05
-4.79506e-05
4.65617e-05
0.000476394
-0.00199609
-0.000187012
0.013634
4.32501e-05
-0.0648181
-0.0732181
0.103284
0.355129
0.399555
0.237542
0.0368249
-0.043603
-0.0257194
0.00030001
0.00610211
0.00308754
0.000286884
-0.000150002
-1.72537e-05
2.1118e-05
8.54329e-06
1.64613e-07
-1.7537e-07
2.08138e-09
1.63136e-08
2.34383e-09
-5.99922e-10
-1.50836e-10
1.77446e-11
6.61996e-12
4.80745e-13
-4.26813e-15
-7.24514e-15
-2.03066e-15
-9.70665e-16
-5.66296e-16
-1.43268e-16
9.77376e-14
-1.44347e-12
2.28891e-11
-2.74182e-10
2.52505e-09
-1.76046e-08
8.25975e-08
-1.08571e-07
-1.98881e-06
2.06675e-05
-0.000105004
0.000212268
0.000455089
-0.00283578
0.00113395
0.0157204
-0.00336267
-0.0683645
-0.0686638
0.094576
0.268965
0.254512
0.106541
-0.0276566
-0.0461321
-0.0181965
0.00389084
0.00475595
0.00117526
-0.000360073
-0.000154953
1.24974e-05
2.30807e-05
5.07104e-06
-4.57243e-07
-1.36559e-07
4.69899e-08
1.89981e-08
-3.52399e-10
-7.18119e-10
-3.04727e-11
4.39058e-11
1.06101e-11
7.42791e-13
3.61418e-14
-2.93001e-15
-6.47231e-16
-5.489e-16
-4.75817e-16
-1.37779e-16
1.66558e-12
-1.11777e-11
1.32705e-10
-1.33625e-09
1.1534e-08
-8.43373e-08
4.946e-07
-2.00196e-06
2.91779e-06
2.31981e-05
-0.000169925
0.00046396
0.00015363
-0.00356382
0.00285057
0.0170167
-0.00657728
-0.0690623
-0.0612176
0.0728145
0.171617
0.132532
0.0122085
-0.0561264
-0.039341
-0.00722735
0.00491504
0.00250047
-0.000439338
-0.000609816
-0.00013195
4.12339e-05
2.15797e-05
9.43644e-07
-6.96252e-07
-3.72582e-08
7.07095e-08
1.55125e-08
-2.32729e-09
-7.06006e-10
1.4147e-10
6.43912e-11
8.74987e-12
3.97619e-13
1.8633e-14
3.35703e-15
3.30178e-15
9.14496e-17
-3.77957e-16
-1.29921e-16
6.72783e-12
-2.70429e-11
2.64639e-10
-2.43179e-09
2.15186e-08
-1.75562e-07
1.20615e-06
-5.87168e-06
1.62955e-05
1.85905e-06
-0.000212015
0.000748658
-0.000295608
-0.00403036
0.00461062
0.0175788
-0.00936443
-0.0663236
-0.0523137
0.0435549
0.0878895
0.0370058
-0.0423104
-0.0565761
-0.0263916
0.000860356
0.0039812
0.000289263
-0.00125212
-0.000588803
-3.10864e-05
4.09911e-05
1.04332e-05
-2.17634e-06
-6.75552e-07
1.45225e-07
7.88852e-08
2.15663e-09
-2.96461e-09
-1.57208e-10
2.56581e-10
6.44389e-11
2.77671e-14
-4.64527e-13
4.32913e-15
2.65018e-14
1.13316e-14
6.79751e-16
-3.26655e-16
-1.24528e-16
1.03489e-11
-4.04722e-13
-2.58443e-10
2.30086e-09
1.40459e-09
-1.77135e-07
1.73025e-06
-1.07599e-05
3.82411e-05
-5.36531e-05
-0.000202367
0.000992788
-0.000881779
-0.00418151
0.00611853
0.0176325
-0.0114176
-0.0588554
-0.0439318
0.0146363
0.0244859
-0.0233093
-0.0593683
-0.0420027
-0.00965944
0.00456278
0.00172417
-0.00162052
-0.00143818
-0.000390729
4.57142e-05
2.50332e-05
-4.31271e-06
-3.75619e-06
-3.68318e-07
2.42789e-07
6.65497e-08
-7.88131e-09
-2.62716e-09
6.78415e-10
3.03011e-10
1.22321e-11
-1.01627e-11
-1.51771e-12
8.58795e-14
7.29117e-14
2.10638e-14
7.78892e-16
-3.51935e-16
-1.24973e-16
-2.14381e-10
1.28163e-09
-1.03547e-08
6.11753e-08
-2.56485e-07
6.09476e-07
7.23672e-07
-1.32544e-05
6.32252e-05
-0.000142527
-7.08511e-05
0.00114419
-0.00151441
-0.00406618
0.0073563
0.0169043
-0.0121092
-0.047741
-0.0365158
-0.00808338
-0.0166409
-0.0463634
-0.0491214
-0.0215275
0.00274072
0.00457718
-0.000469506
-0.00235154
-0.0012238
-0.000131389
5.19503e-05
4.37482e-06
-1.14369e-05
-3.66819e-06
3.54259e-07
2.50882e-07
1.07967e-08
-1.10531e-08
-5.04563e-10
1.09937e-09
2.19597e-10
-5.07525e-11
-1.75437e-11
-1.26633e-12
2.4546e-13
1.25549e-13
2.53897e-14
8.43789e-17
-4.24484e-16
-1.28831e-16
-1.98068e-09
5.81601e-09
-3.90588e-08
2.05941e-07
-8.73706e-07
2.74798e-06
-4.81531e-06
-7.42742e-06
8.03206e-05
-0.000241739
0.000116454
0.00116687
-0.00208616
-0.00375829
0.0083198
0.0153941
-0.0104821
-0.0344606
-0.0283406
-0.0203721
-0.0313892
-0.0435372
-0.0269113
-0.00176469
0.00765911
0.00250483
-0.00230801
-0.00214163
-0.000620239
6.04914e-05
2.12642e-05
-2.07051e-05
-1.24481e-05
-1.18025e-06
7.7131e-07
2.14663e-07
-3.15646e-08
-9.67708e-09
2.5754e-09
1.11551e-09
-8.27746e-11
-8.85103e-11
-1.72562e-11
5.70031e-13
4.27837e-13
1.37472e-13
1.85632e-14
-1.28402e-15
-5.19747e-16
-1.2807e-16
-6.73718e-09
1.26168e-08
-7.76761e-08
3.88952e-07
-1.69935e-06
5.87903e-06
-1.46766e-05
1.24255e-05
7.91747e-05
-0.000321237
0.00034875
0.0010513
-0.0025862
-0.00332545
0.00875902
0.0132216
-0.0059787
-0.0203805
-0.0182414
-0.0193986
-0.0283492
-0.0244124
-0.0051591
0.00982541
0.00720972
-0.000103029
-0.00267264
-0.00133982
-4.17433e-05
0.000103817
-6.1729e-06
-2.98554e-05
-8.94668e-06
1.31605e-06
7.32558e-07
-6.33833e-09
-4.81805e-08
-3.28963e-09
3.47405e-09
4.74963e-10
-3.08487e-10
-9.56818e-11
-1.88694e-12
2.17869e-12
5.47149e-13
7.37011e-14
-1.90799e-15
-2.43197e-15
-5.68909e-16
-1.13445e-16
-1.11814e-08
1.37794e-08
-8.30561e-08
4.27156e-07
-2.07588e-06
8.4362e-06
-2.61225e-05
4.52095e-05
2.80877e-05
-0.000358256
0.000570703
0.00090862
-0.00295844
-0.00289262
0.00831712
0.0110159
-0.000626699
-0.0074166
-0.00697979
-0.0104272
-0.013692
-0.00395338
0.00952274
0.0115717
0.00391275
-0.00190119
-0.00175612
-0.00023211
0.000273423
6.51865e-05
-4.16334e-05
-2.38231e-05
-5.17012e-07
2.11416e-06
3.65293e-07
-1.68606e-07
-4.90534e-08
6.78168e-09
2.58464e-09
-6.74145e-10
-3.73558e-10
-3.73132e-11
1.22825e-11
3.06661e-12
2.64271e-13
-2.1446e-14
-1.69189e-14
-3.213e-15
-4.25667e-16
-7.61898e-17
5.53011e-09
-2.83433e-08
1.23726e-07
-2.33997e-07
-7.89495e-07
8.58822e-06
-3.42328e-05
8.13305e-05
-4.12955e-05
-0.000345046
0.000758216
0.000749539
-0.00314899
-0.0025352
0.00643623
0.00896913
0.00420154
0.00308979
0.00322636
-1.81308e-05
0.00135289
0.00892249
0.0132974
0.00767524
0.000216221
-0.00188947
-0.000421698
0.000557546
0.00030705
3.07112e-06
-4.73661e-05
-1.12592e-05
4.27351e-06
1.51243e-06
-2.81972e-07
-1.84202e-07
-8.91118e-09
1.0746e-08
7.3433e-10
-1.11662e-09
-2.65987e-10
4.49706e-11
1.70812e-11
1.82804e-12
-1.78934e-13
-6.98758e-14
-1.85013e-14
-2.3159e-15
-1.44963e-16
-2.12609e-17
1.27019e-07
-1.41223e-07
6.72756e-07
-1.96537e-06
3.63086e-06
8.35464e-07
-3.55327e-05
0.000113606
-0.000124201
-0.000311898
0.000911494
0.000619924
-0.00312572
-0.00235534
0.00382636
0.0068121
0.00766165
0.0100347
0.00997199
0.00794084
0.00912289
0.0117436
0.00894035
0.00212862
-0.00162438
-0.000582244
0.00076383
0.000724612
0.000178615
-5.27623e-05
-2.58948e-05
5.06971e-06
4.30855e-06
7.28977e-08
-5.72623e-07
-1.19988e-07
3.41273e-08
1.01417e-08
-1.97916e-09
-8.69008e-10
8.19044e-11
7.73084e-11
1.27166e-11
-1.41083e-12
-4.04943e-13
-6.09682e-14
-6.86162e-15
1.54951e-16
1.84834e-16
3.73744e-17
3.54196e-07
-2.57343e-07
1.31953e-06
-4.16307e-06
1.01729e-05
-1.4338e-05
-1.72304e-05
0.000132546
-0.000201855
-0.000266659
0.00101672
0.000517991
-0.00270835
-0.00244368
0.000955822
0.00434403
0.00896324
0.012655
0.0122182
0.010109
0.00915564
0.00717779
0.00204616
-0.00182099
-0.00134967
0.00060983
0.00117619
0.000533735
1.30419e-05
-4.49552e-05
7.73862e-07
1.11497e-05
2.0688e-06
-1.25355e-06
-4.67039e-07
4.50141e-08
4.03849e-08
2.16624e-09
-2.57981e-09
-2.10177e-10
2.73566e-10
6.93971e-11
-6.16762e-12
-2.99091e-12
-3.93905e-13
4.86537e-15
7.07405e-15
2.2487e-15
4.6589e-16
7.78375e-17
4.30591e-07
-2.68496e-07
1.47802e-06
-5.4342e-06
1.60763e-05
-2.9741e-05
5.71545e-06
0.000134297
-0.000263248
-0.000227053
0.00104445
0.000505338
-0.0019937
-0.00273854
-0.00156864
0.00201285
0.0081471
0.0118728
0.0105844
0.00714919
0.00396141
8.02311e-05
-0.00313903
-0.00301406
-0.000462305
0.00109544
0.000816251
0.00016926
-4.59609e-05
5.00122e-06
2.44568e-05
8.21806e-06
-1.63857e-06
-1.3623e-06
-1.13813e-07
1.20889e-07
2.65138e-08
-6.85657e-09
-1.74031e-09
5.89604e-10
2.44016e-10
-6.92061e-12
-1.60578e-11
-3.01476e-12
8.7879e-14
4.46708e-14
1.22828e-14
2.72216e-15
5.12232e-16
8.24509e-17
-5.20583e-07
-7.5982e-08
1.00293e-07
-4.32634e-06
1.89849e-05
-4.40343e-05
3.1521e-05
0.000130217
-0.000307712
-0.00020117
0.000971402
0.000688027
-0.00118873
-0.00296673
-0.00311098
0.00045588
0.00640864
0.00864919
0.00628278
0.00208234
-0.00186576
-0.00481169
-0.00526179
-0.00291526
-0.000220366
0.000529781
0.000188159
-5.45678e-05
7.11006e-06
4.53388e-05
2.48464e-05
6.47138e-07
-3.23724e-06
-7.56628e-07
2.47647e-07
9.34977e-08
-9.32141e-09
-7.84074e-09
-1.0918e-10
6.39814e-10
5.23379e-11
-6.19764e-11
-1.59902e-11
3.28417e-13
3.51808e-13
5.5046e-14
7.84235e-15
1.89542e-15
3.82045e-16
5.70981e-17
-2.94407e-06
2.54036e-07
-2.80545e-06
1.0175e-07
1.71226e-05
-5.43011e-05
5.54613e-05
0.000124598
-0.000333644
-0.000207991
0.000825018
0.000969682
-0.00048955
-0.00294562
-0.00350644
4.72526e-05
0.00472448
0.00506189
0.00202623
-0.00192883
-0.00520383
-0.00655229
-0.0056012
-0.00308583
-0.00121628
-0.000620087
-0.00031991
-4.94468e-05
7.75024e-05
5.76996e-05
9.64481e-06
-5.71825e-06
-2.30518e-06
2.73075e-07
2.8718e-07
2.45944e-08
-2.46886e-08
-4.55018e-09
1.55358e-09
3.21074e-10
-1.57099e-10
-6.01176e-11
-1.24399e-12
2.38221e-12
3.98339e-13
-5.50971e-15
1.10059e-15
8.17339e-16
1.72347e-16
1.81617e-17
-4.38733e-06
1.65627e-06
-5.16554e-06
7.21287e-06
1.11009e-05
-5.93137e-05
7.48028e-05
0.000121549
-0.000329931
-0.000271629
0.000658587
0.00118644
-8.6705e-05
-0.00262415
-0.00276086
0.000762571
0.00352789
0.00275344
-0.000278424
-0.00343795
-0.00599265
-0.00713257
-0.00664411
-0.00510838
-0.00326108
-0.00156559
-0.000420642
6.81949e-05
0.000102655
3.40063e-05
-6.22728e-06
-5.40444e-06
-3.04906e-07
6.96429e-07
1.46382e-07
-5.59116e-08
-1.82516e-08
2.45423e-09
1.40064e-09
-1.09654e-10
-1.54439e-10
-1.38806e-11
1.08072e-11
2.39006e-12
-1.0656e-13
-5.14171e-14
-3.30617e-15
2.00627e-17
-1.49492e-17
-1.44215e-17
5.08725e-06
8.52337e-06
-4.11119e-06
1.5254e-05
3.92095e-06
-6.36458e-05
8.74713e-05
0.000124452
-0.000304254
-0.000353648
0.000539999
0.001196
-7.14339e-05
-0.00188367
-0.000987336
0.00222546
0.00331836
0.00180614
-0.000590132
-0.00315295
-0.0060238
-0.00937803
-0.0103426
-0.00863923
-0.00519471
-0.00196169
-0.00023732
0.00013079
7.1217e-05
1.51315e-08
-1.0076e-05
-1.74883e-06
1.34819e-06
4.61644e-07
-8.41241e-08
-6.06693e-08
-3.27272e-09
4.85266e-09
6.44603e-10
-3.52703e-10
-5.99998e-11
3.29204e-11
1.02517e-11
-2.22588e-13
-4.54278e-13
-6.91691e-14
1.6101e-16
-1.61059e-16
-8.4126e-17
-2.40411e-17
2.59583e-05
1.90066e-05
-7.66243e-07
2.11479e-05
-5.10989e-06
-6.89375e-05
9.38369e-05
0.000136682
-0.000273119
-0.000384801
0.0004576
0.000881155
-0.000375516
-0.000949373
0.00127528
0.00364964
0.00339389
0.00184993
2.49483e-05
-0.00296174
-0.00934606
-0.0153796
-0.0164903
-0.0125515
-0.00640044
-0.00181895
-2.25733e-05
7.76986e-05
1.27891e-05
-1.41765e-05
-3.93903e-06
2.14734e-06
1.19059e-06
-2.38983e-08
-1.61837e-07
-2.5376e-08
1.27783e-08
3.37589e-09
-6.22135e-10
-2.15362e-10
5.17746e-11
2.98196e-11
6.56655e-13
-2.27593e-12
-4.73015e-13
1.01504e-14
2.83725e-15
-3.84481e-17
-5.62656e-17
-1.16265e-17
3.80925e-05
2.05149e-05
-4.88963e-06
1.71076e-05
-1.8041e-05
-7.23762e-05
9.82604e-05
0.000143634
-0.0002456
-0.000300676
0.00035674
0.000223522
-0.000740005
0.000242551
0.00322016
0.00429223
0.00349575
0.00228205
0.000287256
-0.006565
-0.0181179
-0.025607
-0.0242368
-0.0161033
-0.00691688
-0.0013675
3.27722e-05
8.43469e-06
-2.06059e-05
-8.09464e-06
2.64829e-06
2.5028e-06
1.92923e-07
-3.52263e-07
-8.92995e-08
2.54571e-08
1.19669e-08
-6.52131e-11
-8.53848e-10
-5.08427e-11
7.25442e-11
7.17038e-12
-7.44506e-12
-2.00853e-12
5.8731e-14
6.09983e-14
5.9342e-15
-9.27532e-17
-8.89662e-18
7.69021e-18
-8.95755e-06
-2.02447e-05
-3.5196e-05
4.31377e-07
-2.80394e-05
-6.26029e-05
0.000104995
0.000119765
-0.000177429
-0.000113282
0.000131337
-0.000561273
-0.000854488
0.00161118
0.00429809
0.00429002
0.00347173
0.00263055
-0.00236494
-0.0167673
-0.0331347
-0.0391352
-0.0328082
-0.0191441
-0.00700267
-0.000949668
-2.92658e-05
-2.66435e-05
-1.12361e-05
3.702e-06
4.54148e-06
6.03809e-07
-6.72026e-07
-2.52833e-07
3.07988e-08
3.27741e-08
3.00342e-09
-2.78811e-09
-5.15174e-10
1.54491e-10
3.2069e-11
-1.53216e-11
-5.64018e-12
1.86487e-13
3.91172e-13
6.88463e-14
-6.17954e-16
-1.04201e-16
2.70739e-17
2.15057e-17
-9.43318e-05
-8.16548e-05
-6.77284e-05
-5.79687e-06
-1.36514e-05
-3.09478e-05
9.77918e-05
6.03376e-05
-5.2988e-05
6.95832e-05
-0.000253193
-0.00120588
-0.000321145
0.0029304
0.00429243
0.00386136
0.00409562
0.00268037
-0.0109461
-0.034441
-0.0538719
-0.0553287
-0.0414431
-0.0216222
-0.0067976
-0.000644046
-3.31138e-05
-7.53909e-06
8.17626e-06
8.00708e-06
1.48681e-06
-1.17047e-06
-6.12146e-07
5.01188e-09
7.80615e-08
1.25142e-08
-6.65737e-09
-2.04603e-09
2.248e-10
1.33403e-10
-6.64372e-12
-1.17002e-11
2.58767e-13
1.56496e-12
3.36722e-13
-9.43494e-15
-3.92535e-15
-2.02983e-16
4.29505e-17
2.61204e-17
-0.000104708
-8.58613e-05
-3.91021e-05
5.11279e-05
4.1273e-05
4.0921e-06
5.16192e-05
4.74655e-06
0.000116456
0.000113666
-0.00075993
-0.00136707
0.000847468
0.00376707
0.00375325
0.00377558
0.00560214
-0.00136566
-0.0267908
-0.0603333
-0.0787747
-0.0733032
-0.0494403
-0.0231928
-0.00630079
-0.000379402
1.95961e-05
2.73208e-05
1.68015e-05
3.77243e-06
-1.78857e-06
-1.19093e-06
-6.46186e-08
1.63947e-07
3.87453e-08
-1.27446e-08
-6.01064e-09
6.64883e-11
5.25052e-10
6.42383e-11
-2.7875e-11
-1.60055e-12
4.06067e-12
1.04072e-12
-8.19948e-14
-5.01074e-14
-5.56288e-15
1.27427e-16
6.58821e-17
2.54287e-17
0.000110381
8.85191e-05
0.000105016
0.000145562
7.85514e-05
-1.71066e-05
-3.55176e-05
2.32248e-05
0.000245524
-0.000134267
-0.00118995
-0.000693379
0.00228585
0.00360058
0.00326202
0.00564251
0.00705047
-0.0102948
-0.0521817
-0.0944341
-0.107359
-0.090059
-0.0552648
-0.0233967
-0.00520552
-7.89425e-05
4.3717e-05
2.81932e-05
7.52955e-06
-2.4006e-06
-2.04142e-06
-2.00667e-07
3.17385e-07
1.06015e-07
-1.7335e-08
-1.40407e-08
-7.2651e-10
1.50749e-09
2.88863e-10
-6.676e-11
-1.34507e-11
6.21955e-12
2.13867e-12
-3.46607e-13
-2.65612e-13
-4.59314e-14
8.11157e-16
2.69248e-16
7.24985e-17
2.17985e-17
0.000275993
0.000198942
0.00015716
0.000132821
7.89459e-06
-9.58737e-05
-7.79877e-05
0.0001117
0.000232215
-0.00065156
-0.00124151
0.000856637
0.00318661
0.00268314
0.00318663
0.00945071
0.00682495
-0.0291098
-0.0894873
-0.135379
-0.135779
-0.103474
-0.0577958
-0.0213921
-0.00352543
6.812e-05
4.06267e-05
1.15924e-05
-3.23753e-06
-3.37083e-06
-4.77167e-07
5.42222e-07
2.26168e-07
-2.0988e-08
-3.31601e-08
-3.80399e-09
3.30574e-09
8.73315e-10
-1.51762e-10
-7.1361e-11
6.91408e-13
4.37326e-12
-5.5057e-13
-8.3316e-13
-1.61784e-13
1.17323e-14
3.11845e-15
3.63561e-16
5.92219e-17
1.64058e-17
1.93502e-05
-2.14442e-05
-3.7533e-05
-5.76976e-05
-0.000106682
-0.000112975
9.32988e-06
0.000180998
-0.000315435
-0.00117449
-1.42467e-05
0.00287067
0.00266386
0.00150211
0.00582649
0.0141679
-0.00286644
-0.0650511
-0.14055
-0.177957
-0.162942
-0.110788
-0.05548
-0.0173969
-0.00170713
2.07912e-05
1.08296e-05
-4.33292e-06
-4.99105e-06
-8.24095e-07
8.64862e-07
4.17499e-07
-2.50519e-08
-7.20772e-08
-1.28507e-08
5.8522e-09
1.95682e-09
-3.3332e-10
-2.55274e-10
-2.35159e-11
1.35792e-11
6.13996e-13
-1.72107e-12
-3.61799e-13
8.09818e-14
3.02143e-14
3.27371e-15
8.53482e-17
1.78641e-17
9.54684e-18
-0.000307873
-0.000273662
-0.000195052
-0.000115818
3.16368e-06
6.6764e-05
0.000109756
-0.000222228
-0.00109628
-0.000710351
0.00189495
0.00374698
0.00112268
0.00136807
0.0107059
0.0156244
-0.0345083
-0.12818
-0.206335
-0.223865
-0.180557
-0.110502
-0.0475083
-0.011797
-0.000432698
1.72842e-05
-7.72824e-07
-5.03159e-06
-7.95933e-07
1.30158e-06
6.97185e-07
-2.42537e-08
-1.34843e-07
-3.07876e-08
1.06003e-08
4.75263e-09
-3.72741e-10
-6.37772e-10
-8.22715e-11
4.05118e-11
7.17154e-12
-2.25337e-12
-4.95273e-13
2.80977e-13
1.2916e-13
1.83238e-14
-6.07885e-16
-1.25602e-16
-1.47134e-17
4.30858e-18
-9.41818e-05
-3.79465e-05
0.000103193
0.000247417
0.00030909
0.000144042
-0.000352635
-0.00104936
-0.0013233
0.00114519
0.00357428
0.00323969
-0.000277742
0.00625503
0.0162939
-0.0122038
-0.111784
-0.229764
-0.287516
-0.265063
-0.186523
-0.0985369
-0.0360477
-0.00633494
8.91183e-05
2.44849e-05
-2.25783e-06
9.2648e-08
2.04661e-06
1.11093e-06
-2.04215e-08
-2.22266e-07
-5.5092e-08
2.09922e-08
1.13936e-08
1.11945e-10
-1.31024e-09
-1.93811e-10
1.11852e-10
3.28956e-11
-2.30158e-12
-1.3295e-12
4.35972e-13
3.18129e-13
4.2996e-14
-1.0133e-14
-1.71274e-15
-2.00199e-16
-2.1738e-17
2.89382e-18
0.000708502
0.000647273
0.000664888
0.000497854
8.82748e-05
-0.000808271
-0.00131856
-0.00141804
0.000663859
0.00348872
0.00335962
0.00206295
0.0024635
0.016386
0.00766874
-0.101359
-0.261913
-0.378517
-0.379736
-0.296352
-0.177808
-0.0797303
-0.0231532
-0.00192143
-7.60595e-06
2.99992e-06
3.54853e-06
2.76284e-06
1.2313e-06
-1.27152e-07
-3.51576e-07
-8.74462e-08
3.86942e-08
2.36754e-08
1.3536e-09
-2.59744e-09
-4.54709e-10
2.30075e-10
8.20961e-11
-5.19746e-12
-6.04125e-12
5.33924e-15
6.07221e-13
6.24008e-14
-5.33298e-14
-1.41223e-14
-1.23177e-15
-7.87431e-17
-1.18745e-18
5.11371e-18
0.000658835
0.000456499
-7.51548e-05
-0.000909701
-0.00169229
-0.00195661
-0.00143822
0.000654075
0.00389293
0.00330858
0.000674843
0.00323224
0.0185881
0.0251476
-0.0929001
-0.318026
-0.512259
-0.566851
-0.476685
-0.310861
-0.155999
-0.0569601
-0.0114041
1.33805e-05
7.12807e-05
3.00336e-05
5.69277e-06
4.1379e-07
-6.78841e-07
-5.72133e-07
-1.293e-07
6.43877e-08
4.09802e-08
2.00883e-09
-5.51356e-09
-1.24068e-09
3.67083e-10
1.61591e-10
-1.32643e-11
-1.97931e-11
-2.09598e-12
1.11542e-12
9.32919e-14
-1.43577e-13
-4.73206e-14
-4.65126e-15
2.53117e-16
7.05631e-17
2.2545e-17
7.52658e-18
-0.00307867
-0.00310742
-0.00320641
-0.00300125
-0.00229199
-0.00054828
0.00180717
0.00413473
0.00493634
-0.00263336
-0.000917201
0.0286976
0.0454154
-0.0587731
-0.356463
-0.710182
-0.865427
-0.786259
-0.55271
-0.30123
-0.124107
-0.0342733
-0.00275192
0.000228416
0.000101772
2.0684e-05
-2.32725e-07
-1.66082e-06
-9.62645e-07
-1.94238e-07
9.9722e-08
6.17006e-08
6.59621e-10
-1.08312e-08
-2.72879e-09
6.71689e-10
3.48838e-10
-1.83248e-11
-4.66793e-11
-6.71734e-12
2.66675e-12
4.11698e-13
-2.39968e-13
-8.63772e-14
-7.41527e-16
4.40037e-15
7.66049e-16
1.32876e-16
3.00638e-17
7.27599e-18
-0.00234764
-0.00200693
-0.00109332
0.000322232
0.00227624
0.00363009
0.00440553
0.00515761
-0.000798806
-0.00973408
0.0291517
0.0831701
0.0444615
-0.357185
-0.906708
-1.30947
-1.29159
-0.992457
-0.589583
-0.266976
-0.0865969
-0.0143989
0.000875691
0.000323909
5.82646e-05
7.39252e-07
-2.82488e-06
-1.18577e-06
-8.4035e-08
1.85931e-07
8.66282e-08
-6.53684e-09
-1.92505e-08
-4.57462e-09
1.53386e-09
8.19558e-10
1.70064e-11
-8.54305e-11
-1.20504e-11
6.96618e-12
1.58709e-12
-4.11301e-13
-1.84927e-13
1.1435e-14
2.02502e-14
4.38914e-15
4.84862e-16
8.86705e-17
1.93325e-17
4.19283e-18
0.00383221
0.00411703
0.00453111
0.00471341
0.00475042
0.00315416
0.00355694
0.00128978
-0.0123494
0.00780887
0.106753
0.127658
-0.331077
-1.12809
-1.82698
-2.04494
-1.73494
-1.13301
-0.57043
-0.212424
-0.0496385
-0.000977887
0.000646275
0.000289927
2.90183e-05
-6.09836e-06
-2.23653e-06
3.87367e-08
3.28167e-07
1.19384e-07
-2.15375e-08
-3.09194e-08
-6.31163e-09
3.29197e-09
1.71712e-09
7.84862e-11
-1.6487e-10
-2.49115e-11
1.39754e-11
3.73671e-12
-7.70938e-13
-4.14655e-13
2.16583e-14
4.9944e-14
1.11758e-14
6.74689e-16
5.68094e-17
1.26118e-17
2.64704e-18
4.23106e-19
0.00209534
0.00206566
0.0018759
0.00126921
0.00108799
-0.00202512
0.0032839
-0.00810777
-0.0158457
0.0967096
0.187317
-0.303914
-1.38396
-2.52434
-3.06988
-2.84561
-2.05132
-1.15498
-0.491943
-0.146277
-0.0181076
0.00177047
0.000839683
0.000142309
-7.48578e-06
-1.20092e-06
8.42439e-07
4.97711e-07
1.1348e-07
-5.52211e-08
-4.73219e-08
-8.55993e-09
5.74772e-09
2.83144e-09
2.03369e-11
-3.54037e-10
-6.3322e-11
2.35599e-11
7.17102e-12
-1.35092e-12
-8.19295e-13
5.50275e-14
1.17213e-13
2.07441e-14
-2.66492e-15
-8.26663e-16
-1.74445e-16
-3.68511e-17
-8.10542e-18
-1.90386e-18
9.59415e-05
0.000150216
-0.000351298
0.000405108
-0.0013532
-0.00286542
0.00609983
-0.0209541
0.0884936
0.225844
-0.424677
-1.87175
-3.58908
-4.5961
-4.45579
-3.4815
-2.1547
-1.0357
-0.370723
-0.0802671
0.000417584
0.00024502
8.95976e-05
2.70946e-05
3.07974e-06
5.8804e-07
2.35928e-07
1.4198e-08
-1.0467e-07
-6.75998e-08
-1.04985e-08
8.56297e-09
3.67506e-09
-3.2489e-10
-6.8133e-10
-1.27304e-10
4.36064e-11
1.43881e-11
-1.95534e-12
-1.47319e-12
1.21963e-13
2.36574e-13
3.65749e-14
-1.23273e-14
-3.75473e-15
-7.56334e-16
-1.62839e-16
-3.82838e-17
-9.07332e-18
-2.18385e-18
-0.000573801
7.4031e-05
-0.00191217
0.00392965
-0.0103778
0.0156689
0.00150877
0.0571178
0.27655
-0.920659
-3.11361
-5.56582
-7.14212
-6.98076
-5.68055
-3.75887
-1.98841
-0.81766
-0.241273
-0.0284846
0.000525958
0.000408211
9.65369e-05
-1.88882e-05
-8.71238e-06
-8.23271e-07
-1.08018e-07
-1.28405e-07
-7.30605e-08
-6.84698e-09
1.18872e-08
4.00969e-09
-9.65431e-10
-1.01168e-09
-1.43469e-10
9.99536e-11
3.17071e-11
-3.11839e-12
-2.89553e-12
-7.04365e-15
3.17921e-13
1.18935e-14
-4.44867e-14
-1.24763e-14
-1.54697e-15
-2.36466e-16
-6.53437e-17
-1.85588e-17
-5.03451e-18
-1.33395e-18
-0.001882
0.00114247
-0.00603767
0.0149118
-0.0334501
0.0939917
0.00176924
0.277676
-2.22631
-6.18929
-9.83372
-11.8961
-11.4247
-9.26176
-6.28373
-3.52241
-1.59283
-0.556973
-0.127829
-0.0029427
-0.000418917
-0.000257574
-9.13036e-05
-3.3199e-06
2.16094e-06
3.80617e-07
-1.6981e-07
-9.68628e-08
-1.6667e-09
1.68579e-08
4.75464e-09
-1.52872e-09
-1.11604e-09
-1.12003e-11
2.09434e-10
5.82798e-11
-7.90071e-12
-5.78218e-12
-2.87554e-13
4.21856e-13
-3.2665e-14
-9.36153e-14
-2.52805e-14
-1.04161e-15
4.00039e-16
6.03614e-17
1.77443e-18
-2.68284e-18
-1.33447e-18
-4.72439e-19
-0.00692166
0.00434935
-0.018736
0.0530141
-0.0811838
0.259785
-0.739798
-6.00757
-13.5227
-19.2379
-21.4828
-19.8288
-15.5568
-10.4372
-5.96225
-2.85312
-1.10727
-0.32957
-0.0539129
-0.000123556
0.00010386
0.000104441
4.6794e-05
4.3549e-06
-8.03178e-07
-4.1032e-07
-1.19576e-08
4.65582e-08
2.16361e-08
9.70782e-10
-3.48199e-09
-1.34995e-09
2.41673e-10
3.28792e-10
7.06924e-11
-2.23995e-11
-1.04734e-11
-2.23916e-13
8.57134e-13
2.84632e-14
-9.99533e-14
-1.5979e-14
8.49649e-15
2.83923e-15
5.32568e-16
1.03107e-16
1.92315e-17
2.93544e-18
2.55506e-19
-4.47844e-20
-0.0194239
0.0109813
-0.057482
0.149909
-2.16379
-9.38216
-20.2284
-31.3137
-39.9785
-40.8204
-35.8835
-27.0893
-17.6652
-9.99322
-4.87951
-2.01816
-0.68131
-0.174518
-0.0194665
-0.000302727
-1.39688e-05
-5.728e-06
-2.61762e-06
8.07141e-07
4.45684e-07
-1.96278e-07
-8.79384e-08
-1.81745e-08
-7.99182e-09
-4.48746e-09
-1.1246e-09
4.94255e-10
3.60333e-10
3.89586e-11
-5.07041e-11
-1.79634e-11
8.63111e-13
1.80526e-12
2.869e-13
-4.71525e-14
2.20921e-14
2.51431e-14
7.32641e-15
1.12393e-15
2.19231e-16
5.38102e-17
1.22169e-17
2.41604e-18
3.97244e-19
4.7661e-20
-1.34773
-5.44553
-14.7287
-30.7885
-49.7887
-66.6399
-78.7783
-83.735
-79.1044
-65.9222
-47.9747
-30.4445
-16.9095
-8.23833
-3.50123
-1.2737
-0.381581
-0.0859308
-0.00749296
0.000222974
0.000160793
7.04678e-05
1.58529e-05
-1.35824e-06
-1.47202e-06
-5.62999e-07
-8.82143e-08
-1.29634e-08
-4.22394e-09
-4.15731e-10
5.93358e-10
3.01184e-10
-9.81254e-12
-6.49716e-11
-1.81561e-11
3.09312e-12
2.23071e-12
2.27056e-13
-1.46995e-13
-4.06925e-15
1.82884e-14
3.82729e-15
-3.76769e-16
-1.56798e-17
3.16275e-17
1.41024e-17
4.08975e-18
9.42523e-19
1.80491e-19
2.88661e-20
-95.4644
-118.229
-145.031
-169.128
-185.284
-183.384
-170.38
-147.446
-116.808
-83.0755
-52.3523
-29.0962
-14.2774
-6.19363
-2.36253
-0.776969
-0.210983
-0.0427296