/*--------------------------------*- C++ -*----------------------------------*\
| =========                 |                                                 |
| \\      /  F ield         | OpenFOAM: The Open Source CFD Toolbox           |
|  \\    /   O peration     | Version:  v2006                                 |
|   \\  /    A nd           | Website:  www.openfoam.com                      |
|    \\/     M anipulation  |                                                 |
\*---------------------------------------------------------------------------*/
FoamFile
{
    version     2.0;
    format      ascii;
    class       volScalarField;
    location    "10";
    object      r;
}
// * * * * * * * * * * * * * * * * * * * * * * * * * * * * * * * * * * * * * //

dimensions      [1 2 0 0 0 0 0];


internalField   nonuniform List<scalar> 
500
(
3.89849e-55
1.70727e-54
4.79331e-54
1.19185e-53
2.82407e-53
6.54453e-53
1.49938e-52
3.41233e-52
7.73106e-52
1.74548e-51
3.92898e-51
8.81916e-51
1.97425e-50
4.40778e-50
9.81504e-50
2.17981e-49
4.82838e-49
1.06669e-48
2.35033e-48
5.165e-48
1.13204e-47
2.47458e-47
5.39492e-47
1.17304e-46
2.54381e-46
5.50167e-46
1.18671e-45
2.55287e-45
5.47706e-45
1.17192e-44
2.50082e-44
5.32223e-44
1.12962e-43
2.39109e-43
5.04758e-43
1.06266e-42
2.23111e-42
4.67163e-42
9.75511e-42
2.03147e-41
4.21892e-41
8.73783e-41
1.80474e-40
3.71736e-40
7.63591e-40
1.5642e-39
3.19539e-39
6.50967e-39
1.32249e-38
2.67932e-38
5.41319e-38
1.09063e-37
2.19125e-37
4.39037e-37
8.77201e-37
1.74778e-36
3.47264e-36
6.8805e-36
1.35945e-35
2.6785e-35
5.26259e-35
1.03107e-34
2.01444e-34
3.92462e-34
7.6246e-34
1.4771e-33
2.8535e-33
5.49687e-33
1.0559e-32
2.02257e-32
3.86321e-32
7.35802e-32
1.39746e-31
2.64656e-31
4.99788e-31
9.41137e-31
1.76718e-30
3.30878e-30
6.1775e-30
1.15005e-29
2.13488e-29
3.95174e-29
7.29384e-29
1.34239e-28
2.46349e-28
4.50791e-28
8.22525e-28
1.49649e-27
2.71484e-27
4.91093e-27
8.85788e-27
1.59309e-26
2.85692e-26
5.10855e-26
9.10838e-26
1.6193e-25
2.87048e-25
5.07368e-25
8.94194e-25
1.57138e-24
2.75339e-24
4.81053e-24
8.38023e-24
1.45565e-23
2.52112e-23
4.35377e-23
7.49676e-23
1.28711e-22
2.2034e-22
3.76101e-22
6.40103e-22
1.08625e-21
1.83797e-21
3.10086e-21
5.21623e-21
8.74911e-21
1.46319e-20
2.4399e-20
4.05669e-20
6.72517e-20
1.11164e-19
1.83213e-19
3.01078e-19
4.93323e-19
8.0596e-19
1.31288e-18
2.1324e-18
3.45334e-18
5.57624e-18
8.97787e-18
1.44124e-17
2.30689e-17
3.6817e-17
5.85869e-17
9.29572e-17
1.47061e-16
2.31974e-16
3.64851e-16
5.72165e-16
8.94662e-16
1.39485e-15
2.16836e-15
3.36097e-15
5.19436e-15
8.00448e-15
1.22989e-14
1.88424e-14
2.87832e-14
4.38408e-14
6.65814e-14
1.00824e-13
1.52234e-13
2.29191e-13
3.4405e-13
5.14972e-13
7.68575e-13
1.14374e-12
1.69712e-12
2.51095e-12
3.7043e-12
5.449e-12
7.99232e-12
1.16889e-11
1.70459e-11
2.47865e-11
3.59383e-11
5.19575e-11
7.49014e-11
1.07667e-10
1.54321e-10
2.20558e-10
3.14322e-10
4.46666e-10
6.32917e-10
8.94269e-10
1.25994e-09
1.77007e-09
2.47966e-09
3.46384e-09
4.8249e-09
6.70168e-09
9.2821e-09
1.28197e-08
1.76554e-08
2.42465e-08
3.32043e-08
4.53434e-08
6.1746e-08
8.38459e-08
1.13536e-07
1.53308e-07
2.06434e-07
2.77191e-07
3.71163e-07
4.95607e-07
6.59932e-07
8.76299e-07
1.16038e-06
1.53228e-06
2.0178e-06
2.64981e-06
3.47018e-06
4.53202e-06
5.9025e-06
7.66634e-06
9.92998e-06
1.28268e-05
1.65236e-05
2.12278e-05
2.71971e-05
3.47503e-05
4.42811e-05
5.62733e-05
7.13202e-05
9.01472e-05
0.000113638
0.000142866
0.000179131
0.000224001
0.000279366
0.000347488
0.000431075
0.000533354
0.000658158
0.000810028
0.000994323
0.00121735
0.00148651
0.00181045
0.00219924
0.00266461
0.0032201
0.00388135
0.00466637
0.00559577
0.00669312
0.00798527
0.00950266
0.0112797
0.0133553
0.0157731
0.0185817
0.0218358
0.0255957
0.0299286
0.0349083
0.0406162
0.0471413
0.0545809
0.0630403
0.0726342
0.0834857
0.0957273
0.109501
0.124957
0.142255
0.161565
0.183065
0.206938
0.23338
0.262589
0.294772
0.330139
0.368904
0.411285
0.457499
0.507763
0.562291
0.621293
0.684974
0.753528
0.82714
0.905982
0.99021
1.07997
1.17537
1.27652
1.38349
1.49633
1.61507
1.7397
1.87018
2.00645
2.14841
2.29593
2.44885
2.60696
2.77005
2.93784
3.11005
3.28636
3.46641
3.64984
3.83625
4.02521
4.21629
4.40903
4.60297
4.79763
4.99252
5.18715
5.38105
5.57371
5.76466
5.95343
6.13955
6.32257
6.50207
6.67762
6.84883
7.01531
7.17673
7.33273
7.48302
7.62731
7.76532
7.89683
8.02161
8.13946
8.25021
8.3537
8.44978
8.53834
8.61926
8.69246
8.75784
8.81533
8.86488
8.90643
8.93993
8.96535
8.98266
8.99182
8.99281
8.98563
8.97027
8.94671
8.91497
8.87507
8.82701
8.77085
8.70661
8.63437
8.55419
8.46616
8.37039
8.26701
8.15617
8.03802
7.91278
7.78064
7.64185
7.49668
7.34541
7.18836
7.02587
6.8583
6.68604
6.50948
6.32907
6.14523
5.95843
5.76914
5.57784
5.38503
5.19119
4.99682
4.80242
4.60847
4.41546
4.22386
4.03413
3.84669
3.66199
3.48041
3.30234
3.12812
2.95807
2.7925
2.63166
2.47578
2.32507
2.1797
2.0398
1.90549
1.77683
1.65388
1.53665
1.42514
1.3193
1.21909
1.12441
1.03517
0.951244
0.872495
0.79877
0.729905
0.665725
0.606044
0.550672
0.499413
0.452066
0.408431
0.368306
0.331489
0.297783
0.266994
0.238929
0.213405
0.190242
0.169268
0.150317
0.133231
0.11786
0.104062
0.0917027
0.0806556
0.0708027
0.0620338
0.0542463
0.0473451
0.0412423
0.035857
0.031115
0.0269481
0.0232944
0.0200974
0.0173059
0.0148735
0.0127584
0.0109232
0.00933404
0.00796081
0.00677663
0.00575758
0.00488243
0.00413242
0.00349095
0.00294345
0.00247709
0.00208067
0.00174438
0.00145967
0.00121912
0.00101628
0.000845599
0.000702255
0.000582114
0.000481619
0.000397726
0.000327831
0.000269713
0.000221484
0.00018154
0.000148522
0.000121284
9.88571e-05
8.04279e-05
6.53132e-05
5.29409e-05
4.28332e-05
3.45915e-05
2.78843e-05
2.24363e-05
1.80197e-05
1.4446e-05
1.15599e-05
9.23355e-06
7.36194e-06
5.85905e-06
4.65451e-06
3.69091e-06
2.92152e-06
2.30834e-06
1.82058e-06
1.43331e-06
1.12639e-06
8.8361e-07
6.91921e-07
5.40851e-07
4.22012e-07
3.28701e-07
2.55569e-07
1.98356e-07
1.53679e-07
1.18855e-07
9.17612e-08
7.07191e-08
5.44068e-08
4.1784e-08
3.20339e-08
2.45161e-08
1.87301e-08
1.4285e-08
1.08764e-08
8.26822e-09
6.27943e-09
4.77657e-09
3.67934e-09
3.0012e-09
)
;

boundaryField
{
    right
    {
        type            zeroGradient;
    }
    left
    {
        type            inletOutlet;
        inletValue      uniform 0;
        value           uniform 0;
    }
    top
    {
        type            zeroGradient;
    }
    bottom
    {
        type            zeroGradient;
    }
    empty
    {
        type            empty;
    }
}


// ************************************************************************* //
