/*--------------------------------*- C++ -*----------------------------------*\
| =========                 |                                                 |
| \\      /  F ield         | OpenFOAM: The Open Source CFD Toolbox           |
|  \\    /   O peration     | Version:  v2006                                 |
|   \\  /    A nd           | Website:  www.openfoam.com                      |
|    \\/     M anipulation  |                                                 |
\*---------------------------------------------------------------------------*/
FoamFile
{
    version     2.0;
    format      ascii;
    class       volScalarField;
    location    "0";
    object      f;
}
// * * * * * * * * * * * * * * * * * * * * * * * * * * * * * * * * * * * * * //

dimensions      [0 0 0 0 0 0 0];


internalField   nonuniform List<scalar> 
2500
(
-8.51711e-17
-8.57796e-17
-8.49551e-17
-8.34266e-17
-9.20843e-17
-6.71472e-17
-4.4687e-18
2.60958e-16
4.15832e-15
-2.08776e-14
-3.64516e-14
1.44647e-13
3.01706e-13
2.00895e-14
-4.65881e-13
-4.54338e-13
2.62258e-13
1.03424e-12
1.19711e-12
-1.86957e-12
-1.3377e-11
-1.98903e-11
-1.886e-11
1.01001e-12
2.3182e-11
1.9227e-11
5.41061e-12
-4.08072e-12
-1.23489e-11
-9.57083e-12
-5.02707e-12
-1.90476e-12
-4.39513e-13
4.83215e-13
7.34848e-13
3.82122e-13
7.32121e-14
1.18184e-15
-6.42511e-16
8.13533e-16
1.0408e-15
7.53968e-16
4.51721e-16
2.5158e-16
1.37667e-16
7.66759e-17
4.42298e-17
2.63004e-17
1.57956e-17
9.3621e-18
4.05255e-13
3.95413e-13
4.20623e-13
4.18055e-13
3.3678e-13
3.58594e-13
4.92399e-13
5.16857e-13
3.71189e-13
4.42598e-14
4.44326e-13
1.38689e-12
8.07835e-13
-4.68455e-13
-1.31571e-12
-1.19716e-12
2.56766e-12
1.84389e-12
-1.2023e-12
-4.60768e-11
-6.79037e-11
-8.80293e-11
-4.87977e-11
1.36769e-10
1.38062e-10
5.13568e-11
-2.24209e-11
-1.18543e-10
-9.0191e-11
-4.05797e-11
-1.22534e-11
-3.64922e-12
6.76913e-12
8.57805e-12
4.36136e-12
9.74244e-13
-4.39492e-14
-4.26888e-14
-7.59634e-15
1.99579e-15
2.60707e-15
1.56482e-15
8.17819e-16
4.1774e-16
2.17457e-16
1.19138e-16
6.95531e-17
4.24712e-17
2.61816e-17
1.57949e-17
4.32642e-12
4.31662e-12
4.36442e-12
4.33081e-12
4.15548e-12
4.31814e-12
4.71289e-12
4.476e-12
3.69391e-12
3.47917e-12
5.15233e-12
4.23644e-12
-7.57045e-13
-1.57894e-12
1.21575e-12
1.79128e-11
1.23756e-11
-6.08011e-11
-2.63346e-10
-2.13375e-10
-1.08405e-10
-1.37486e-10
7.15746e-10
6.24225e-10
2.65697e-10
-2.34555e-10
-7.62097e-10
-5.26842e-10
-1.89445e-10
-5.72672e-11
4.39417e-11
9.62995e-11
7.37082e-11
3.32994e-11
7.89547e-12
-1.15608e-12
-8.20379e-13
-1.67681e-13
4.08495e-15
1.91514e-14
8.53295e-15
3.03264e-15
1.27739e-15
5.91926e-16
2.9649e-16
1.64763e-16
1.01428e-16
6.58109e-17
4.24695e-17
2.62982e-17
1.48488e-11
1.49506e-11
1.47975e-11
1.4836e-11
1.51078e-11
1.517e-11
1.5476e-11
1.43462e-11
1.32481e-11
1.72835e-11
1.92717e-11
5.97555e-12
-1.00446e-11
-1.41268e-12
1.11454e-10
2.14705e-10
-8.88789e-12
-8.07241e-10
-1.26636e-09
-4.39259e-10
2.67394e-09
5.36987e-09
4.40196e-09
1.17034e-09
-3.30325e-09
-5.53754e-09
-3.61102e-09
-1.00374e-09
1.78548e-10
1.36871e-09
1.20075e-09
6.47377e-10
2.53452e-10
5.60417e-11
-2.0614e-11
-1.26007e-11
-2.63173e-12
5.1054e-14
2.4484e-13
1.04037e-13
1.86541e-14
3.50699e-15
1.35807e-15
6.2223e-16
3.22351e-16
1.99038e-16
1.40483e-16
1.01424e-16
6.95482e-17
4.4225e-17
3.03424e-11
3.08222e-11
3.00675e-11
3.02099e-11
3.18832e-11
3.15319e-11
3.10007e-11
2.82698e-11
2.71251e-11
4.522e-11
4.70662e-11
-1.62097e-11
-2.79786e-11
1.32422e-10
5.05113e-10
8.14567e-10
-1.84486e-10
-2.814e-09
-2.64394e-09
1.00299e-08
2.84311e-08
3.0793e-08
1.10296e-08
-1.85705e-08
-3.04123e-08
-2.23126e-08
-7.15712e-09
5.62836e-09
1.47772e-08
1.02032e-08
4.74737e-09
1.71216e-09
4.06308e-10
-2.65788e-10
-1.58556e-10
-3.50808e-11
-1.68945e-13
2.3289e-12
1.15447e-12
2.30661e-13
1.13713e-14
8.13035e-16
5.86596e-16
3.59347e-16
2.4686e-16
2.16092e-16
1.99031e-16
1.64754e-16
1.19128e-16
7.66671e-17
4.15963e-11
4.27438e-11
4.10447e-11
4.04378e-11
4.52473e-11
4.50009e-11
4.19975e-11
3.6295e-11
3.45949e-11
8.58896e-11
8.25851e-11
-6.75079e-11
-1.86989e-11
3.6762e-10
1.22029e-09
2.02317e-09
-5.34375e-10
-4.57633e-09
2.03873e-08
5.36879e-08
8.53646e-08
8.37615e-08
-8.03466e-09
-9.69685e-08
-9.41775e-08
-4.06623e-08
3.94063e-08
1.01409e-07
6.92856e-08
2.74462e-08
7.99265e-09
2.26486e-09
-3.04173e-09
-1.75928e-09
-3.82204e-10
-9.20426e-12
1.67057e-11
9.39085e-12
2.31659e-12
1.52398e-13
-8.10261e-15
-2.36101e-15
-4.81598e-16
-7.62332e-17
9.62442e-17
2.46852e-16
3.22335e-16
2.96471e-16
2.1744e-16
1.37653e-16
3.15462e-11
3.31788e-11
3.09415e-11
2.77477e-11
3.70247e-11
3.85807e-11
3.12948e-11
2.16247e-11
1.62133e-11
1.10335e-10
1.26739e-10
-1.73752e-10
-2.64838e-10
3.67042e-10
1.81095e-09
3.31111e-09
-7.24606e-09
3.74651e-08
1.004e-07
1.25349e-07
1.2503e-07
1.2382e-07
-1.56386e-07
-2.1054e-07
-1.57165e-07
2.33991e-07
6.28503e-07
4.22824e-07
1.33787e-07
3.46166e-08
-1.62531e-08
-4.07319e-08
-1.99708e-08
-3.85981e-09
-6.95508e-11
1.06754e-10
6.26723e-11
1.74311e-11
1.63057e-12
-1.01476e-13
-3.46125e-14
-4.57628e-15
-8.31771e-16
-4.16348e-16
-7.62346e-17
3.59332e-16
6.22202e-16
5.91894e-16
4.17711e-16
2.51558e-16
-1.0536e-07
-1.0539e-07
-1.05191e-07
-1.05101e-07
-1.0557e-07
-1.06189e-07
-1.05108e-07
-1.0263e-07
-1.03987e-07
-1.13433e-07
-1.1466e-07
-9.21459e-08
-7.66062e-08
-8.82169e-08
-1.95165e-07
-3.59111e-07
-1.62205e-07
1.63621e-07
1.82507e-07
1.25278e-07
-1.01964e-06
-2.31088e-06
-1.0768e-06
1.39658e-08
1.95382e-06
3.85874e-06
2.47265e-06
7.62856e-07
-3.47524e-07
-8.11634e-07
-6.09163e-07
-2.47532e-07
-4.59335e-08
-3.41356e-10
6.12298e-10
3.78296e-10
1.17362e-10
1.37569e-11
-8.42392e-13
-3.6126e-13
-5.20109e-14
1.47866e-15
4.3147e-16
-8.31745e-16
-4.81578e-16
5.86585e-16
1.35803e-15
1.27734e-15
8.17774e-16
4.51689e-16
-2.28366e-06
-2.28384e-06
-2.28282e-06
-2.28271e-06
-2.28577e-06
-2.28626e-06
-2.27765e-06
-2.27395e-06
-2.29478e-06
-2.31944e-06
-2.2863e-06
-2.16539e-06
-2.19406e-06
-2.49236e-06
-2.89173e-06
-2.60609e-06
-9.42855e-07
2.62504e-07
-2.42607e-07
-7.24009e-06
-1.57137e-05
-1.51863e-05
-3.00197e-06
1.44956e-05
2.09345e-05
1.56583e-05
4.00953e-06
-7.05617e-06
-9.43397e-06
-6.22034e-06
-2.61509e-06
-6.11214e-07
-2.80474e-08
2.89757e-09
1.92101e-09
7.12436e-10
1.26646e-10
-2.82347e-12
-1.84539e-12
-4.55585e-13
-3.83457e-15
9.25231e-15
1.47872e-15
-4.57609e-15
-2.3609e-15
8.13055e-16
3.5069e-15
3.03253e-15
1.56475e-15
7.53925e-16
-9.73147e-06
-9.73217e-06
-9.73241e-06
-9.73183e-06
-9.73397e-06
-9.72506e-06
-9.71776e-06
-9.75537e-06
-9.79169e-06
-9.68439e-06
-9.57409e-06
-9.62963e-06
-1.01268e-05
-1.08765e-05
-1.05132e-05
-7.49178e-06
-2.60959e-06
-1.43927e-07
-1.5928e-05
-3.96317e-05
-5.63748e-05
-4.45225e-05
1.14516e-05
6.62693e-05
7.04897e-05
3.08892e-05
-3.12837e-05
-5.08006e-05
-3.72599e-05
-1.80622e-05
-5.76587e-06
-7.94227e-07
1.06804e-08
7.25623e-09
3.31971e-09
9.14926e-10
6.09184e-11
-2.60652e-12
-1.25755e-12
4.22056e-14
3.90505e-14
-3.83301e-15
-5.20087e-14
-3.46111e-14
-8.10224e-15
1.13708e-14
1.86534e-14
8.53259e-15
2.60696e-15
1.04075e-15
-2.09784e-05
-2.09802e-05
-2.09853e-05
-2.09823e-05
-2.09779e-05
-2.09487e-05
-2.09578e-05
-2.10907e-05
-2.1128e-05
-2.0684e-05
-2.04946e-05
-2.11162e-05
-2.24058e-05
-2.40052e-05
-2.17631e-05
-1.25565e-05
-4.96597e-06
-1.69704e-05
-5.28936e-05
-9.73113e-05
-0.000120692
-7.81347e-05
5.70557e-05
0.000143649
0.000131073
5.44424e-06
-0.000155725
-0.000134261
-7.63397e-05
-3.11969e-05
-8.14529e-06
-5.73855e-07
1.13101e-08
9.22385e-09
4.19944e-09
9.87076e-10
4.30815e-11
5.30895e-12
2.45292e-12
1.3137e-12
4.22145e-14
-4.55571e-13
-3.61249e-13
-1.01473e-13
1.52391e-13
2.30652e-13
1.04033e-13
1.91506e-14
1.99573e-15
8.13505e-16
-2.4385e-05
-2.43862e-05
-2.4399e-05
-2.44008e-05
-2.43864e-05
-2.43123e-05
-2.43168e-05
-2.46346e-05
-2.47836e-05
-2.38294e-05
-2.30604e-05
-2.4214e-05
-2.73213e-05
-3.14163e-05
-2.81696e-05
-1.28733e-05
-3.05782e-06
-3.49011e-05
-8.56146e-05
-0.000135648
-0.000173804
6.41161e-05
0.000171408
0.000173252
3.4509e-05
-0.000617216
-0.000332466
-0.00017904
-8.82092e-05
-3.42166e-05
-8.17066e-06
-3.149e-07
1.0884e-08
9.31299e-09
4.43503e-09
1.46739e-09
4.31394e-10
4.13506e-11
8.96635e-12
2.45292e-12
-1.25754e-12
-1.84536e-12
-8.42368e-13
1.63052e-12
2.31651e-12
1.15443e-12
2.4483e-13
4.08461e-15
-7.59613e-15
-6.42469e-16
3.08783e-05
3.08942e-05
3.08346e-05
3.07442e-05
3.09087e-05
3.13263e-05
3.10799e-05
2.94258e-05
2.92892e-05
3.39549e-05
3.79432e-05
3.05441e-05
1.46679e-05
8.55215e-06
3.79964e-05
0.000111144
0.000100394
-1.08472e-05
-5.09956e-05
2.3431e-06
0.000832126
0.00132487
0.000287917
-0.00257031
-0.00549907
-0.00416662
0.000184957
0.0073343
0.0144562
0.0182514
0.0179693
0.0148457
0.0102191
0.00577691
0.00256216
0.000780286
9.68247e-05
2.43975e-11
4.13503e-11
5.30886e-12
-2.60651e-12
-2.82347e-12
1.37564e-11
1.74306e-11
9.39056e-12
2.32882e-12
5.10501e-14
-1.67679e-13
-4.2688e-14
1.18187e-15
0.00119422
0.00119432
0.00119351
0.00119297
0.00119624
0.00119867
0.00118952
0.00117791
0.00119767
0.00123952
0.00122175
0.00110953
0.00104463
0.00123508
0.00158127
0.00157619
0.000866268
0.000121322
0.000393165
0.00375046
0.00712208
0.00570203
-0.00453806
-0.019412
-0.0261567
-0.0131392
0.0285102
0.0902638
0.149604
0.182465
0.181539
0.155632
0.113884
0.0702591
0.0353638
0.0133264
0.0028624
9.68248e-05
4.31386e-10
4.30772e-11
6.09146e-11
1.26641e-10
1.17358e-10
6.26704e-11
1.67052e-11
-1.68968e-13
-2.6317e-12
-8.20372e-13
-4.39497e-14
7.321e-14
0.00548625
0.0054864
0.00548332
0.00548254
0.00549577
0.00550007
0.00545989
0.00543327
0.00552932
0.00564947
0.00549429
0.00509619
0.00512799
0.00602845
0.00684198
0.00593233
0.00290783
0.000668163
0.00459288
0.0148638
0.0229568
0.0153306
-0.0153006
-0.0577997
-0.0734776
-0.0245045
0.111039
0.308754
0.501926
0.614155
0.61906
0.540931
0.405779
0.258261
0.135437
0.0543198
0.0133264
0.000780286
1.46736e-09
9.8704e-10
9.14898e-10
7.12416e-10
3.78285e-10
1.06751e-10
-9.20402e-12
-3.50802e-11
-1.26006e-11
-1.15608e-12
9.74216e-13
3.82111e-13
0.0131029
0.0131034
0.0130956
0.0130928
0.0131269
0.0131401
0.0130367
0.012966
0.0132115
0.013513
0.0131062
0.0121349
0.0122744
0.0145391
0.0163684
0.0136017
0.00631941
0.00196248
0.0106485
0.0345176
0.0536007
0.0410689
-0.0267818
-0.122592
-0.172744
-0.0949931
0.170599
0.586966
1.0176
1.2906
1.33768
1.19958
0.922906
0.602876
0.325487
0.135437
0.0353638
0.00256216
4.435e-09
4.19936e-09
3.31964e-09
1.92096e-09
6.12281e-10
-6.95464e-11
-3.82196e-10
-1.58554e-10
-2.06139e-11
7.89525e-12
4.36124e-12
7.34825e-13
0.0210118
0.0210132
0.0209958
0.020987
0.0210634
0.0211025
0.020872
0.020688
0.0212254
0.0219572
0.0211063
0.0188514
0.0189544
0.0239649
0.0284132
0.0233341
0.00721442
-0.00364307
0.0130457
0.0611223
0.10716
0.0940051
-0.026998
-0.22339
-0.381667
-0.343079
0.0297345
0.710844
1.47842
2.02058
2.19352
2.04014
1.61842
1.08686
0.602876
0.258261
0.0702592
0.00577691
9.31303e-09
9.2238e-09
7.2561e-09
2.89749e-09
-3.41293e-10
-3.85972e-09
-1.75925e-09
-2.65785e-10
5.60401e-11
3.32985e-11
8.57782e-12
4.832e-13
0.0237306
0.0237337
0.0237009
0.0236811
0.0238251
0.0239112
0.0234765
0.0230983
0.0241051
0.0255576
0.0239892
0.0195863
0.0195869
0.0291646
0.0387388
0.0294814
3.60827e-05
-0.0230876
0.00249576
0.0859616
0.179091
0.183463
0.00242491
-0.343367
-0.707786
-0.835293
-0.463023
0.442124
1.58414
2.48805
2.90048
2.83541
2.33599
1.61842
0.922906
0.405779
0.113884
0.0102191
1.08842e-08
1.13102e-08
1.06801e-08
-2.80459e-08
-4.59323e-08
-1.99704e-08
-3.04168e-09
4.06298e-10
2.53446e-10
7.37066e-11
6.76895e-12
-4.39494e-13
0.0171044
0.0171112
0.0170571
0.0170129
0.0172493
0.0174342
0.0167311
0.0159946
0.0175603
0.0201796
0.017984
0.0104702
0.00949557
0.0249113
0.0421347
0.0318692
-0.0159086
-0.061218
-0.0379698
0.085311
0.253881
0.320166
0.127276
-0.359894
-1.003
-1.45389
-1.28054
-0.323161
1.09932
2.37179
3.11562
3.27447
2.83541
2.04014
1.19958
0.540931
0.155632
0.0148457
-3.14876e-07
-5.73825e-07
-7.942e-07
-6.11199e-07
-2.47526e-07
-4.07313e-08
2.26481e-09
1.71213e-09
6.47366e-10
9.62974e-11
-3.6491e-12
-1.90469e-12
0.00335448
0.0033679
0.0032827
0.00319451
0.00356525
0.00392577
0.00284792
0.00147685
0.00375789
0.0083475
0.00571585
-0.00651279
-0.0106411
0.0113532
0.0432933
0.0361507
-0.0348651
-0.120948
-0.120579
0.0376245
0.315421
0.535541
0.456506
-0.0720422
-0.987404
-1.88611
-2.1496
-1.42478
0.0326813
1.54464
2.62607
3.11562
2.90048
2.19352
1.33768
0.61906
0.181539
0.0179693
-8.17046e-06
-8.14513e-06
-5.76576e-06
-2.61504e-06
-6.09151e-07
-1.62527e-08
7.99255e-09
4.74731e-09
1.20073e-09
4.39405e-11
-1.2253e-11
-5.02689e-12
-0.0122848
-0.012262
-0.0123866
-0.0125374
-0.0119993
-0.0113892
-0.0129313
-0.0151731
-0.0120538
-0.0048101
-0.00762057
-0.026273
-0.0360747
-0.00615252
0.045579
0.0497045
-0.0427867
-0.185822
-0.243869
-0.0755287
0.33031
0.798652
1.00387
0.628499
-0.424453
-1.77139
-2.63181
-2.42736
-1.26048
0.241721
1.54464
2.37179
2.48805
2.02058
1.2906
0.614155
0.182465
0.0182514
-3.42162e-05
-3.11965e-05
-1.80619e-05
-6.22025e-06
-8.11618e-07
3.46163e-08
2.74459e-08
1.02031e-08
1.36868e-09
-5.72657e-11
-4.05785e-11
-9.57049e-12
-0.0206478
-0.0206093
-0.02078
-0.0210374
-0.0203096
-0.0192902
-0.0212945
-0.02486
-0.0211925
-0.0103531
-0.0120686
-0.0377975
-0.0577229
-0.0240862
0.0550636
0.0896201
-0.0104988
-0.227417
-0.395303
-0.301224
0.172037
0.919429
1.57187
1.60742
0.684419
-0.939181
-2.41137
-2.94771
-2.41744
-1.26048
0.0326813
1.09932
1.58414
1.47842
1.0176
0.501926
0.149604
0.0144562
-8.82084e-05
-7.63389e-05
-3.72595e-05
-9.43384e-06
-3.47513e-07
1.33786e-07
6.92847e-08
1.4777e-08
1.7854e-10
-1.89441e-10
-9.01884e-11
-1.23485e-11
-0.0130658
-0.0130044
-0.0132433
-0.0136567
-0.0126526
-0.0110171
-0.0136742
-0.0192618
-0.0150252
0.00108424
0.00269652
-0.0329159
-0.0696969
-0.0356313
0.0785622
0.165781
0.0832723
-0.211156
-0.566616
-0.692583
-0.317488
0.612566
1.76472
2.43555
1.99115
0.458182
-1.38619
-2.64823
-2.94771
-2.42736
-1.42478
-0.32316
0.442124
0.710844
0.586966
0.308754
0.0902637
0.0073343
-0.000179039
-0.000134259
-5.08001e-05
-7.05607e-06
7.62848e-07
4.22819e-07
1.01407e-07
5.62825e-09
-1.00372e-09
-5.2683e-10
-1.18539e-10
-4.08047e-12
0.00598405
0.00607569
0.00575251
0.00513711
0.00647932
0.00888601
0.0054582
-0.00266299
0.00217849
0.0253441
0.0310916
-0.014475
-0.0745974
-0.0491764
0.0992507
0.266215
0.242377
-0.102017
-0.681071
-1.17516
-1.14662
-0.286465
1.22624
2.6075
2.95543
1.99643
0.270633
-1.38619
-2.41137
-2.63181
-2.1496
-1.28054
-0.463023
0.0297346
0.170599
0.111039
0.0285102
0.000184961
-0.000332464
-0.000155724
-3.12834e-05
4.0095e-06
2.47263e-06
6.28495e-07
3.94052e-08
-7.157e-09
-3.61095e-09
-7.62078e-10
-2.2419e-11
5.41041e-12
0.0180928
0.0182372
0.0178066
0.0168436
0.0185731
0.0222701
0.0181302
0.00629419
0.0108413
0.0425184
0.0586908
0.00242406
-0.0914211
-0.0951471
0.0828653
0.356263
0.476846
0.198796
-0.534552
-1.4658
-2.02104
-1.58449
-0.0583834
1.84975
3.08596
3.07161
1.99643
0.458182
-0.939181
-1.77139
-1.88611
-1.45389
-0.835293
-0.343079
-0.094993
-0.0245044
-0.0131392
-0.00416661
-0.000617213
5.44462e-06
3.08891e-05
1.56581e-05
3.8587e-06
2.33984e-07
-4.06617e-08
-2.23123e-08
-5.53744e-09
-2.34543e-10
5.13558e-11
1.92264e-11
0.0102808
0.0105032
0.00989661
0.00840592
0.0107959
0.0164668
0.011243
-0.00658036
-0.00363269
0.0420794
0.0739672
0.00687879
-0.135367
-0.192975
-0.00358526
0.408246
0.787777
0.772822
0.0952002
-1.16991
-2.41215
-2.7367
-1.68886
0.269616
2.12404
3.08596
2.95543
1.99115
0.684419
-0.424453
-0.987404
-1.003
-0.707786
-0.381667
-0.172744
-0.0734776
-0.0261567
-0.00549906
3.45096e-05
0.000131073
7.04893e-05
2.09343e-05
1.95378e-06
-1.57163e-07
-9.4176e-08
-3.04119e-08
-3.30318e-09
2.6569e-10
1.38059e-10
2.31814e-11
-0.0104692
-0.0101361
-0.0109339
-0.0131409
-0.0100457
-0.00174595
-0.00823004
-0.0341932
-0.0337793
0.0280174
0.0851353
0.0164776
-0.185341
-0.33417
-0.18536
0.337217
1.04425
1.50662
1.2012
-0.0968166
-1.89391
-3.13544
-3.01879
-1.62738
0.269616
1.84975
2.6075
2.43555
1.60742
0.628499
-0.0720423
-0.359894
-0.343367
-0.22339
-0.122592
-0.0577997
-0.019412
-0.00257031
0.000173249
0.000143648
6.62687e-05
1.44955e-05
1.397e-08
-2.10536e-07
-9.69668e-08
-1.85702e-08
1.17033e-09
6.24211e-10
1.36764e-10
1.0095e-12
-0.0201255
-0.0195868
-0.0205866
-0.0241041
-0.0203851
-0.00784069
-0.0143367
-0.052382
-0.0613878
0.0218882
0.12449
0.072599
-0.197048
-0.499348
-0.520633
-0.0332025
0.937942
1.98581
2.36257
1.47725
-0.455612
-2.41809
-3.38183
-3.01879
-1.68886
-0.0583833
1.22624
1.76472
1.57187
1.00387
0.456506
0.127276
0.00242477
-0.0269981
-0.0267819
-0.0153007
-0.00453809
0.000287906
0.000171402
5.70541e-05
1.14512e-05
-3.00199e-06
-1.07679e-06
-1.56381e-07
-8.03342e-09
1.10296e-08
4.40191e-09
7.15729e-10
-4.87985e-11
-1.886e-11
-0.00597962
-0.00514464
-0.00648708
-0.0119311
-0.00726355
0.0123179
0.00582549
-0.05038
-0.0751377
0.0325151
0.202283
0.19941
-0.131372
-0.656065
-1.02154
-0.830778
0.155134
1.69005
2.91652
2.89675
1.44784
-0.671753
-2.41809
-3.13544
-2.7367
-1.58449
-0.286465
0.612566
0.919429
0.798652
0.535541
0.320166
0.183463
0.0940049
0.0410688
0.0153305
0.00570197
0.00132485
6.41112e-05
-7.81349e-05
-4.45228e-05
-1.51864e-05
-2.31086e-06
1.2382e-07
8.37611e-08
3.07927e-08
5.36975e-09
-1.37487e-10
-8.80279e-11
-1.98899e-11
0.0144887
0.0157241
0.0142356
0.00623582
0.0116975
0.0398676
0.0372923
-0.0424683
-0.0984125
0.0256513
0.289261
0.391562
0.0774506
-0.643573
-1.46836
-1.85541
-1.24142
0.432845
2.37999
3.44247
3.02298
1.44784
-0.455612
-1.89391
-2.41215
-2.02104
-1.14662
-0.317487
0.172037
0.33031
0.315421
0.253881
0.179091
0.10716
0.0536005
0.0229567
0.00712202
0.000832102
-0.000173804
-0.000120693
-5.63753e-05
-1.57138e-05
-1.01963e-06
1.2503e-07
8.53642e-08
2.84308e-08
2.67387e-09
-1.08405e-10
-6.79037e-11
-1.3377e-11
0.0116581
0.0136296
0.0122625
0.000103698
0.00405954
0.0477451
0.0546151
-0.0567298
-0.170949
-0.0485162
0.331718
0.665166
0.564323
-0.158306
-1.369
-2.48962
-2.65819
-1.40873
0.752381
2.67091
3.44247
2.89675
1.47725
-0.0968167
-1.16991
-1.4658
-1.17516
-0.692583
-0.301224
-0.0755284
0.0376248
0.0853112
0.0859617
0.0611223
0.0345175
0.0148637
0.00375038
2.33122e-06
-0.000135648
-9.73121e-05
-3.96325e-05
-7.24029e-06
1.2526e-07
1.25347e-07
5.36883e-08
1.00299e-08
-4.3925e-10
-2.13375e-10
-4.60773e-11
-1.86966e-12
-0.014739
-0.0118364
-0.0130535
-0.0320836
-0.0284095
0.0357037
0.0607603
-0.0880017
-0.295224
-0.210364
0.302495
0.971585
1.33291
0.953517
-0.336449
-2.09654
-3.29049
-3.0363
-1.38976
0.752381
2.37999
2.91652
2.36257
1.2012
0.0952
-0.534552
-0.681072
-0.566616
-0.395303
-0.243869
-0.120579
-0.0379696
0.00249582
0.0130456
0.0106484
0.00459279
0.00039309
-5.09919e-05
-8.56148e-05
-5.28957e-05
-1.5929e-05
-2.42831e-07
1.82484e-07
1.004e-07
2.0389e-08
-2.64366e-09
-1.26631e-09
-2.63346e-10
-1.20345e-12
1.19702e-12
-0.0267242
-0.0226875
-0.0231218
-0.0491347
-0.0531545
0.0395723
0.107164
-0.07748
-0.416399
-0.478437
0.0343637
0.997707
1.96225
2.28315
1.40893
-0.54682
-2.59814
-3.57762
-3.0363
-1.40873
0.432845
1.69005
1.98581
1.50662
0.772822
0.198795
-0.102018
-0.211156
-0.227417
-0.185822
-0.120947
-0.0612179
-0.0230876
-0.00364315
0.00196235
0.000668034
0.00012131
-1.08622e-05
-3.49126e-05
-1.69754e-05
-1.44796e-07
2.62381e-07
1.63611e-07
3.7472e-08
-4.57488e-09
-2.81371e-09
-8.07276e-10
-6.08188e-11
1.844e-12
1.03423e-12
0.00101259
0.00680881
0.0100112
-0.0313448
-0.048164
0.0859975
0.229307
0.027791
-0.525173
-0.9327
-0.709951
0.267356
1.72391
2.9487
3.03011
1.60015
-0.678897
-2.59814
-3.29049
-2.65819
-1.24142
0.155134
0.937943
1.04425
0.787777
0.476846
0.242376
0.083272
-0.010499
-0.0427867
-0.034865
-0.0159085
3.61208e-05
0.00721433
0.00631925
0.00290773
0.00086622
0.00010038
-3.06307e-06
-4.96904e-06
-2.61051e-06
-9.4301e-07
-1.62177e-07
-7.23908e-09
-5.33516e-10
-1.84494e-10
-8.97004e-12
1.2373e-11
2.56827e-12
2.62307e-13
0.0321695
0.0407678
0.0457013
-0.0131338
-0.055563
0.126289
0.394856
0.225249
-0.54148
-1.4372
-1.82572
-1.28037
0.262974
2.24488
3.54442
3.28636
1.60015
-0.54682
-2.09654
-2.48962
-1.85541
-0.830778
-0.0332021
0.337218
0.408246
0.356263
0.266215
0.16578
0.0896199
0.0497045
0.0361508
0.0318693
0.0294814
0.023334
0.0136015
0.00593221
0.00157613
0.000111134
-1.28756e-05
-1.2559e-05
-7.49299e-06
-2.60635e-06
-3.59087e-07
3.31095e-09
2.02276e-09
8.14456e-10
2.14698e-10
1.79152e-11
-1.19696e-12
-4.54258e-13
0.00941362
0.0191321
0.0341196
-0.0489328
-0.149262
0.080256
0.564095
0.639583
-0.112848
-1.3813
-2.51201
-2.84567
-1.88382
0.228122
2.45038
3.54442
3.03011
1.40893
-0.336449
-1.369
-1.46836
-1.02154
-0.520633
-0.18536
-0.00358484
0.0828656
0.0992506
0.0785621
0.0550635
0.0455791
0.0432934
0.0421349
0.0387389
0.0284132
0.0163683
0.00684186
0.00158121
3.79883e-05
-2.81725e-05
-2.17655e-05
-1.05144e-05
-2.89202e-06
-1.95183e-07
1.81075e-09
1.22018e-09
5.05088e-10
1.11459e-10
1.2188e-12
-1.31542e-12
-4.65842e-13
-0.0472317
-0.0290653
0.000312658
-0.120162
-0.324926
-0.0583641
0.793381
1.42658
1.11535
-0.108298
-1.78572
-3.22002
-3.49295
-2.12926
0.228122
2.24488
2.9487
2.28315
0.953517
-0.158306
-0.643574
-0.656065
-0.499348
-0.33417
-0.192975
-0.0951469
-0.0491764
-0.0356315
-0.0240863
-0.00615248
0.0113533
0.0249115
0.0291647
0.0239649
0.014539
0.00602834
0.00123503
8.54394e-06
-3.1421e-05
-2.40084e-05
-1.08778e-05
-2.4926e-06
-8.82164e-08
3.6724e-10
3.67701e-10
1.32434e-10
-1.41702e-12
-1.58008e-12
-4.68487e-13
2.01342e-14
-0.0374115
-0.00961346
0.038908
-0.119275
-0.495719
-0.327753
0.824629
2.12781
2.61258
2.01763
0.412155
-1.78699
-3.46135
-3.49295
-1.88382
0.262974
1.72391
1.96225
1.33291
0.564323
0.0774502
-0.131372
-0.197048
-0.185341
-0.135367
-0.091421
-0.0745975
-0.0696971
-0.057723
-0.0360748
-0.0106409
0.00949573
0.0195869
0.0189543
0.0122743
0.00512787
0.00104458
1.46591e-05
-2.73268e-05
-2.24095e-05
-1.01282e-05
-2.19428e-06
-7.66025e-08
-2.64791e-10
-1.86875e-11
-2.79786e-11
-1.00443e-11
-7.56455e-13
8.07875e-13
3.01718e-13
0.0478132
0.0849536
0.193127
0.00511092
-0.772479
-1.15011
-0.166955
1.49388
2.80714
3.38978
2.79143
0.749057
-1.78699
-3.22002
-2.84567
-1.28037
0.267357
0.997708
0.971586
0.665166
0.391562
0.19941
0.0725987
0.0164776
0.00687897
0.00242417
-0.0144751
-0.0329161
-0.0377977
-0.0262729
-0.00651266
0.0104703
0.0195864
0.0188514
0.0121348
0.00509608
0.00110948
3.0535e-05
-2.42192e-05
-2.11199e-05
-9.63106e-06
-2.16563e-06
-9.21429e-08
-1.73758e-10
-6.75088e-11
-1.62084e-11
5.97608e-12
4.23657e-12
1.38692e-12
1.44655e-13
0.0572973
0.119848
0.360362
0.131386
-1.15776
-2.53228
-2.27431
-0.843353
0.791433
2.56968
3.63515
2.79142
0.412155
-1.78572
-2.51201
-1.82572
-0.709951
0.0343641
0.302495
0.331719
0.289262
0.202283
0.12449
0.0851353
0.0739674
0.0586909
0.0310915
0.00269638
-0.0120687
-0.00762053
0.00571598
0.0179841
0.0239892
0.0211062
0.0131061
0.00549418
0.0012217
3.79349e-05
-2.30651e-05
-2.04981e-05
-9.57546e-06
-2.28654e-06
-1.14658e-07
1.26755e-10
8.25961e-11
4.70695e-11
1.92716e-11
5.15181e-12
4.44149e-13
-3.64599e-14
-0.0854877
0.0231755
0.415982
0.678924
-0.399721
-2.50268
-3.06142
-2.51221
-1.84314
0.0961893
2.56968
3.38978
2.01763
-0.108299
-1.3813
-1.4372
-0.932701
-0.478437
-0.210364
-0.0485158
0.0256514
0.032515
0.021888
0.0280174
0.0420795
0.0425185
0.0253441
0.00108413
-0.0103531
-0.00481006
0.00834763
0.0201798
0.0255577
0.0219571
0.0135129
0.00564936
0.00123947
3.39477e-05
-2.38334e-05
-2.0687e-05
-9.68563e-06
-2.31966e-06
-1.13433e-07
1.10369e-10
8.59112e-11
4.52281e-11
1.72851e-11
3.4788e-12
4.41638e-14
-2.08903e-14
-0.188131
-0.148315
0.848931
1.86337
1.21719
-0.816995
-2.04196
-1.81224
-2.28015
-1.84314
0.791434
2.80714
2.61258
1.11535
-0.112848
-0.541481
-0.525174
-0.4164
-0.295224
-0.170949
-0.0984124
-0.0751379
-0.061388
-0.0337793
-0.00363269
0.0108413
0.00217848
-0.0150253
-0.0211925
-0.0120537
0.00375802
0.0175605
0.0241052
0.0212254
0.0132114
0.0055292
0.00119762
2.92822e-05
-2.47872e-05
-2.11307e-05
-9.79281e-06
-2.29499e-06
-1.03988e-07
1.62423e-11
3.46144e-11
2.71325e-11
1.32496e-11
3.69376e-12
3.71087e-13
4.16053e-15
-0.081267
-0.199485
1.11488
3.1702
3.0631
0.877107
-1.08054
-1.24312
-1.81224
-2.51221
-0.843351
1.49388
2.12781
1.42658
0.639583
0.225249
0.0277905
-0.0774804
-0.0880017
-0.0567295
-0.0424682
-0.0503801
-0.0523821
-0.0341932
-0.00658039
0.00629417
-0.002663
-0.0192619
-0.02486
-0.015173
0.00147698
0.0159948
0.0230984
0.0206879
0.0129659
0.00543316
0.00117786
2.94184e-05
-2.46383e-05
-2.10935e-05
-9.75648e-06
-2.27415e-06
-1.0263e-07
2.16329e-11
3.63023e-11
2.82729e-11
1.43471e-11
4.47612e-12
5.16856e-13
2.61292e-16
0.046282
-0.0993387
0.839636
3.59195
4.72963
2.8206
0.382193
-1.08054
-2.04196
-3.06142
-2.27432
-0.166954
0.82463
0.793381
0.564095
0.394856
0.229307
0.107163
0.0607603
0.0546154
0.0372925
0.00582526
-0.0143366
-0.0082299
0.011243
0.0181301
0.00545814
-0.0136743
-0.0212945
-0.0129312
0.00284805
0.0167313
0.0234766
0.020872
0.0130366
0.00545978
0.00118947
3.1072e-05
-2.43208e-05
-2.09607e-05
-9.71891e-06
-2.27786e-06
-1.05109e-07
3.13118e-11
4.20078e-11
3.10043e-11
1.5477e-11
4.71306e-12
4.92385e-13
-4.30079e-18
0.0372633
-0.0014587
0.223839
2.4665
4.96469
4.77152
2.8206
0.877107
-0.816995
-2.50268
-2.53228
-1.15011
-0.327754
-0.0583638
0.0802565
0.126289
0.0859973
0.039572
0.0357037
0.0477453
0.0398679
0.0123176
-0.00784038
-0.00174578
0.0164668
0.0222701
0.0088859
-0.0110172
-0.0192903
-0.0113892
0.00392591
0.0174344
0.0239112
0.0211024
0.01314
0.00549995
0.00119862
3.13182e-05
-2.43164e-05
-2.09516e-05
-9.72624e-06
-2.28647e-06
-1.0619e-07
3.86072e-11
4.50174e-11
3.15381e-11
1.51713e-11
4.31804e-12
3.58463e-13
-6.70867e-17
-0.0184199
0.0155916
-0.113688
0.586675
3.05345
4.96469
4.72963
3.0631
1.21719
-0.399721
-1.15776
-0.772479
-0.49572
-0.324926
-0.149262
-0.0555628
-0.0481642
-0.0531549
-0.0284095
0.00405978
0.0116977
-0.00726379
-0.0203848
-0.0100458
0.0107959
0.0185731
0.00647926
-0.0126527
-0.0203097
-0.0119992
0.00356539
0.0172495
0.0238251
0.0210634
0.0131268
0.00549565
0.00119619
3.09008e-05
-2.43905e-05
-2.09808e-05
-9.73514e-06
-2.28599e-06
-1.0557e-07
3.70486e-11
4.52634e-11
3.18893e-11
1.51091e-11
4.15534e-12
3.36665e-13
-9.20412e-17
-0.0128017
-0.00931122
0.0216983
-0.167818
0.586675
2.4665
3.59195
3.1702
1.86337
0.678924
0.131387
0.00511027
-0.119276
-0.120162
-0.0489323
-0.0131335
-0.031345
-0.0491351
-0.0320836
0.000103892
0.00623593
-0.0119311
-0.0241044
-0.013141
0.00840612
0.0168438
0.00513711
-0.0136569
-0.0210375
-0.0125374
0.00319465
0.017013
0.0236812
0.0209869
0.0130927
0.00548243
0.00119292
3.07364e-05
-2.44047e-05
-2.09852e-05
-9.73299e-06
-2.28292e-06
-1.05101e-07
2.77662e-11
4.04509e-11
3.02151e-11
1.48373e-11
4.33083e-12
4.17982e-13
-8.33621e-17
0.00762567
0.000538992
0.00535227
0.0216983
-0.113688
0.223839
0.839636
1.11488
0.848932
0.415982
0.360362
0.193127
0.0389076
0.00031248
0.03412
0.0457017
0.0100111
-0.0231222
-0.0130536
0.0122627
0.0142358
-0.00648719
-0.0205867
-0.0109338
0.00989671
0.0178067
0.00575246
-0.0132434
-0.0207801
-0.0123865
0.00328283
0.0170572
0.0237009
0.0209957
0.0130955
0.0054832
0.00119346
3.08268e-05
-2.4403e-05
-2.09882e-05
-9.73357e-06
-2.28304e-06
-1.05191e-07
3.09599e-11
4.10575e-11
3.00726e-11
1.47988e-11
4.36449e-12
4.20556e-13
-8.48979e-17
-0.00331622
0.005916
0.000538986
-0.00931119
0.0155915
-0.00145875
-0.0993381
-0.199486
-0.148315
0.0231762
0.119848
0.0849534
-0.00961422
-0.0290656
0.0191325
0.0407682
0.0068087
-0.0226878
-0.0118365
0.0136299
0.0157243
-0.00514471
-0.0195869
-0.0101362
0.0105034
0.0182374
0.00607565
-0.0130046
-0.0206094
-0.012262
0.00336803
0.0171114
0.0237338
0.0210131
0.0131033
0.00548629
0.00119427
3.08864e-05
-2.43902e-05
-2.0983e-05
-9.73333e-06
-2.28405e-06
-1.0539e-07
3.31984e-11
4.27572e-11
3.08275e-11
1.49519e-11
4.31666e-12
3.95338e-13
-8.57229e-17
-0.00571284
-0.00331622
0.00762566
-0.0128017
-0.0184199
0.0372632
0.0462825
-0.0812672
-0.188132
-0.0854874
0.0572981
0.0478133
-0.0374122
-0.0472321
0.00941396
0.0321699
0.00101251
-0.0267245
-0.0147391
0.0116583
0.0144889
-0.00597971
-0.0201257
-0.0104692
0.0102809
0.0180929
0.00598402
-0.0130659
-0.0206479
-0.0122848
0.00335461
0.0171046
0.0237307
0.0210117
0.0131028
0.00548613
0.00119417
3.08705e-05
-2.4389e-05
-2.09812e-05
-9.73263e-06
-2.28387e-06
-1.05361e-07
3.15656e-11
4.16096e-11
3.03476e-11
1.48501e-11
4.32646e-12
4.0518e-13
-8.51146e-17
)
;

boundaryField
{
    movingWall
    {
        type            zeroGradient;
    }
    fixedWalls
    {
        type            zeroGradient;
    }
    frontAndBack
    {
        type            empty;
    }
}

