/*--------------------------------*- C++ -*----------------------------------*\
| =========                 |                                                 |
| \\      /  F ield         | OpenFOAM: The Open Source CFD Toolbox           |
|  \\    /   O peration     | Version:  v2006                                 |
|   \\  /    A nd           | Website:  www.openfoam.com                      |
|    \\/     M anipulation  |                                                 |
\*---------------------------------------------------------------------------*/
FoamFile
{
    version     2.0;
    format      ascii;
    class       volVectorField;
    location    "0";
    object      U_new;
}
// * * * * * * * * * * * * * * * * * * * * * * * * * * * * * * * * * * * * * //

dimensions      [0 1 -1 0 0 0 0];


internalField   nonuniform List<vector> 
2500
(
(0.000296 -0.010952 0)
(0.000296 -0.032856 0)
(0.000296 -0.05476 0)
(0.000296 -0.076664 0)
(0.000296 -0.098568 0)
(0.000296 -0.120472 0)
(0.000296 -0.142376 0)
(0.000296 -0.16428 0)
(0.000296 -0.186184 0)
(0.000296 -0.208088 0)
(0.000296 -0.229992 0)
(0.000296 -0.251896 0)
(0.000296 -0.2738 0)
(0.000296 -0.295704 0)
(0.000296 -0.317608 0)
(0.000296 -0.339512 0)
(0.000296 -0.361416 0)
(0.000296 -0.38332 0)
(0.000296 -0.405224 0)
(0.000296 -0.427128 0)
(0.000296 -0.449032 0)
(0.000296 -0.470936 0)
(0.000296 -0.49284 0)
(0.000296 -0.514744 0)
(0.000296 -0.536648 0)
(0.000296 -0.558552 0)
(0.000296 -0.580456 0)
(0.000296 -0.60236 0)
(0.000296 -0.624264 0)
(0.000296 -0.646168 0)
(0.000296 -0.668072 0)
(0.000296 -0.689976 0)
(0.000296 -0.71188 0)
(0.000296 -0.733784 0)
(0.000296 -0.755688 0)
(0.000296 -0.777592 0)
(0.000296 -0.799496 0)
(0.000296 -0.8214 0)
(0.000296 -0.843304 0)
(0.000296 -0.865208 0)
(0.000296 -0.887112 0)
(0.000296 -0.909016 0)
(0.000296 -0.93092 0)
(0.000296 -0.952824 0)
(0.000296 -0.974728 0)
(0.000296 -0.996632 0)
(0.000296 -1.01854 0)
(0.000296 -1.04044 0)
(0.000296 -1.06234 0)
(0.000296 -1.08425 0)
(0.002664 -0.010952 0)
(0.002664 -0.032856 0)
(0.002664 -0.05476 0)
(0.002664 -0.076664 0)
(0.002664 -0.098568 0)
(0.002664 -0.120472 0)
(0.002664 -0.142376 0)
(0.002664 -0.16428 0)
(0.002664 -0.186184 0)
(0.002664 -0.208088 0)
(0.002664 -0.229992 0)
(0.002664 -0.251896 0)
(0.002664 -0.2738 0)
(0.002664 -0.295704 0)
(0.002664 -0.317608 0)
(0.002664 -0.339512 0)
(0.002664 -0.361416 0)
(0.002664 -0.38332 0)
(0.002664 -0.405224 0)
(0.002664 -0.427128 0)
(0.002664 -0.449032 0)
(0.002664 -0.470936 0)
(0.002664 -0.49284 0)
(0.002664 -0.514744 0)
(0.002664 -0.536648 0)
(0.002664 -0.558552 0)
(0.002664 -0.580456 0)
(0.002664 -0.60236 0)
(0.002664 -0.624264 0)
(0.002664 -0.646168 0)
(0.002664 -0.668072 0)
(0.002664 -0.689976 0)
(0.002664 -0.71188 0)
(0.002664 -0.733784 0)
(0.002664 -0.755688 0)
(0.002664 -0.777592 0)
(0.002664 -0.799496 0)
(0.002664 -0.8214 0)
(0.002664 -0.843304 0)
(0.002664 -0.865208 0)
(0.002664 -0.887112 0)
(0.002664 -0.909016 0)
(0.002664 -0.93092 0)
(0.002664 -0.952824 0)
(0.002664 -0.974728 0)
(0.002664 -0.996632 0)
(0.002664 -1.01854 0)
(0.002664 -1.04044 0)
(0.002664 -1.06234 0)
(0.002664 -1.08425 0)
(0.0074 -0.010952 0)
(0.0074 -0.032856 0)
(0.0074 -0.05476 0)
(0.0074 -0.076664 0)
(0.0074 -0.098568 0)
(0.0074 -0.120472 0)
(0.0074 -0.142376 0)
(0.0074 -0.16428 0)
(0.0074 -0.186184 0)
(0.0074 -0.208088 0)
(0.0074 -0.229992 0)
(0.0074 -0.251896 0)
(0.0074 -0.2738 0)
(0.0074 -0.295704 0)
(0.0074 -0.317608 0)
(0.0074 -0.339512 0)
(0.0074 -0.361416 0)
(0.0074 -0.38332 0)
(0.0074 -0.405224 0)
(0.0074 -0.427128 0)
(0.0074 -0.449032 0)
(0.0074 -0.470936 0)
(0.0074 -0.49284 0)
(0.0074 -0.514744 0)
(0.0074 -0.536648 0)
(0.0074 -0.558552 0)
(0.0074 -0.580456 0)
(0.0074 -0.60236 0)
(0.0074 -0.624264 0)
(0.0074 -0.646168 0)
(0.0074 -0.668072 0)
(0.0074 -0.689976 0)
(0.0074 -0.71188 0)
(0.0074 -0.733784 0)
(0.0074 -0.755688 0)
(0.0074 -0.777592 0)
(0.0074 -0.799496 0)
(0.0074 -0.8214 0)
(0.0074 -0.843304 0)
(0.0074 -0.865208 0)
(0.0074 -0.887112 0)
(0.0074 -0.909016 0)
(0.0074 -0.93092 0)
(0.0074 -0.952824 0)
(0.0074 -0.974728 0)
(0.0074 -0.996632 0)
(0.0074 -1.01854 0)
(0.0074 -1.04044 0)
(0.0074 -1.06234 0)
(0.0074 -1.08425 0)
(0.014504 -0.010952 0)
(0.014504 -0.032856 0)
(0.014504 -0.05476 0)
(0.014504 -0.076664 0)
(0.014504 -0.098568 0)
(0.014504 -0.120472 0)
(0.014504 -0.142376 0)
(0.014504 -0.16428 0)
(0.014504 -0.186184 0)
(0.014504 -0.208088 0)
(0.014504 -0.229992 0)
(0.014504 -0.251896 0)
(0.014504 -0.2738 0)
(0.014504 -0.295704 0)
(0.014504 -0.317608 0)
(0.014504 -0.339512 0)
(0.014504 -0.361416 0)
(0.014504 -0.38332 0)
(0.014504 -0.405224 0)
(0.014504 -0.427128 0)
(0.014504 -0.449032 0)
(0.014504 -0.470936 0)
(0.014504 -0.49284 0)
(0.014504 -0.514744 0)
(0.014504 -0.536648 0)
(0.014504 -0.558552 0)
(0.014504 -0.580456 0)
(0.014504 -0.60236 0)
(0.014504 -0.624264 0)
(0.014504 -0.646168 0)
(0.014504 -0.668072 0)
(0.014504 -0.689976 0)
(0.014504 -0.71188 0)
(0.014504 -0.733784 0)
(0.014504 -0.755688 0)
(0.014504 -0.777592 0)
(0.014504 -0.799496 0)
(0.014504 -0.8214 0)
(0.014504 -0.843304 0)
(0.014504 -0.865208 0)
(0.014504 -0.887112 0)
(0.014504 -0.909016 0)
(0.014504 -0.93092 0)
(0.014504 -0.952824 0)
(0.014504 -0.974728 0)
(0.014504 -0.996632 0)
(0.014504 -1.01854 0)
(0.014504 -1.04044 0)
(0.014504 -1.06234 0)
(0.014504 -1.08425 0)
(0.023976 -0.010952 0)
(0.023976 -0.032856 0)
(0.023976 -0.05476 0)
(0.023976 -0.076664 0)
(0.023976 -0.098568 0)
(0.023976 -0.120472 0)
(0.023976 -0.142376 0)
(0.023976 -0.16428 0)
(0.023976 -0.186184 0)
(0.023976 -0.208088 0)
(0.023976 -0.229992 0)
(0.023976 -0.251896 0)
(0.023976 -0.2738 0)
(0.023976 -0.295704 0)
(0.023976 -0.317608 0)
(0.023976 -0.339512 0)
(0.023976 -0.361416 0)
(0.023976 -0.38332 0)
(0.023976 -0.405224 0)
(0.023976 -0.427128 0)
(0.023976 -0.449032 0)
(0.023976 -0.470936 0)
(0.023976 -0.49284 0)
(0.023976 -0.514744 0)
(0.023976 -0.536648 0)
(0.023976 -0.558552 0)
(0.023976 -0.580456 0)
(0.023976 -0.60236 0)
(0.023976 -0.624264 0)
(0.023976 -0.646168 0)
(0.023976 -0.668072 0)
(0.023976 -0.689976 0)
(0.023976 -0.71188 0)
(0.023976 -0.733784 0)
(0.023976 -0.755688 0)
(0.023976 -0.777592 0)
(0.023976 -0.799496 0)
(0.023976 -0.8214 0)
(0.023976 -0.843304 0)
(0.023976 -0.865208 0)
(0.023976 -0.887112 0)
(0.023976 -0.909016 0)
(0.023976 -0.93092 0)
(0.023976 -0.952824 0)
(0.023976 -0.974728 0)
(0.023976 -0.996632 0)
(0.023976 -1.01854 0)
(0.023976 -1.04044 0)
(0.023976 -1.06234 0)
(0.023976 -1.08425 0)
(0.035816 -0.010952 0)
(0.035816 -0.032856 0)
(0.035816 -0.05476 0)
(0.035816 -0.076664 0)
(0.035816 -0.098568 0)
(0.035816 -0.120472 0)
(0.035816 -0.142376 0)
(0.035816 -0.16428 0)
(0.035816 -0.186184 0)
(0.035816 -0.208088 0)
(0.035816 -0.229992 0)
(0.035816 -0.251896 0)
(0.035816 -0.2738 0)
(0.035816 -0.295704 0)
(0.035816 -0.317608 0)
(0.035816 -0.339512 0)
(0.035816 -0.361416 0)
(0.035816 -0.38332 0)
(0.035816 -0.405224 0)
(0.035816 -0.427128 0)
(0.035816 -0.449032 0)
(0.035816 -0.470936 0)
(0.035816 -0.49284 0)
(0.035816 -0.514744 0)
(0.035816 -0.536648 0)
(0.035816 -0.558552 0)
(0.035816 -0.580456 0)
(0.035816 -0.60236 0)
(0.035816 -0.624264 0)
(0.035816 -0.646168 0)
(0.035816 -0.668072 0)
(0.035816 -0.689976 0)
(0.035816 -0.71188 0)
(0.035816 -0.733784 0)
(0.035816 -0.755688 0)
(0.035816 -0.777592 0)
(0.035816 -0.799496 0)
(0.035816 -0.8214 0)
(0.035816 -0.843304 0)
(0.035816 -0.865208 0)
(0.035816 -0.887112 0)
(0.035816 -0.909016 0)
(0.035816 -0.93092 0)
(0.035816 -0.952824 0)
(0.035816 -0.974728 0)
(0.035816 -0.996632 0)
(0.035816 -1.01854 0)
(0.035816 -1.04044 0)
(0.035816 -1.06234 0)
(0.035816 -1.08425 0)
(0.050024 -0.010952 0)
(0.050024 -0.032856 0)
(0.050024 -0.05476 0)
(0.050024 -0.076664 0)
(0.050024 -0.098568 0)
(0.050024 -0.120472 0)
(0.050024 -0.142376 0)
(0.050024 -0.16428 0)
(0.050024 -0.186184 0)
(0.050024 -0.208088 0)
(0.050024 -0.229992 0)
(0.050024 -0.251896 0)
(0.050024 -0.2738 0)
(0.050024 -0.295704 0)
(0.050024 -0.317608 0)
(0.050024 -0.339512 0)
(0.050024 -0.361416 0)
(0.050024 -0.38332 0)
(0.050024 -0.405224 0)
(0.050024 -0.427128 0)
(0.050024 -0.449032 0)
(0.050024 -0.470936 0)
(0.050024 -0.49284 0)
(0.050024 -0.514744 0)
(0.050024 -0.536648 0)
(0.050024 -0.558552 0)
(0.050024 -0.580456 0)
(0.050024 -0.60236 0)
(0.050024 -0.624264 0)
(0.050024 -0.646168 0)
(0.050024 -0.668072 0)
(0.050024 -0.689976 0)
(0.050024 -0.71188 0)
(0.050024 -0.733784 0)
(0.050024 -0.755688 0)
(0.050024 -0.777592 0)
(0.050024 -0.799496 0)
(0.050024 -0.8214 0)
(0.050024 -0.843304 0)
(0.050024 -0.865208 0)
(0.050024 -0.887112 0)
(0.050024 -0.909016 0)
(0.050024 -0.93092 0)
(0.050024 -0.952824 0)
(0.050024 -0.974728 0)
(0.050024 -0.996632 0)
(0.050024 -1.01854 0)
(0.050024 -1.04044 0)
(0.050024 -1.06234 0)
(0.050024 -1.08425 0)
(0.0666 -0.010952 0)
(0.0666 -0.032856 0)
(0.0666 -0.05476 0)
(0.0666 -0.076664 0)
(0.0666 -0.098568 0)
(0.0666 -0.120472 0)
(0.0666 -0.142376 0)
(0.0666 -0.16428 0)
(0.0666 -0.186184 0)
(0.0666 -0.208088 0)
(0.0666 -0.229992 0)
(0.0666 -0.251896 0)
(0.0666 -0.2738 0)
(0.0666 -0.295704 0)
(0.0666 -0.317608 0)
(0.0666 -0.339512 0)
(0.0666 -0.361416 0)
(0.0666 -0.38332 0)
(0.0666 -0.405224 0)
(0.0666 -0.427128 0)
(0.0666 -0.449032 0)
(0.0666 -0.470936 0)
(0.0666 -0.49284 0)
(0.0666 -0.514744 0)
(0.0666 -0.536648 0)
(0.0666 -0.558552 0)
(0.0666 -0.580456 0)
(0.0666 -0.60236 0)
(0.0666 -0.624264 0)
(0.0666 -0.646168 0)
(0.0666 -0.668072 0)
(0.0666 -0.689976 0)
(0.0666 -0.71188 0)
(0.0666 -0.733784 0)
(0.0666 -0.755688 0)
(0.0666 -0.777592 0)
(0.0666 -0.799496 0)
(0.0666 -0.8214 0)
(0.0666 -0.843304 0)
(0.0666 -0.865208 0)
(0.0666 -0.887112 0)
(0.0666 -0.909016 0)
(0.0666 -0.93092 0)
(0.0666 -0.952824 0)
(0.0666 -0.974728 0)
(0.0666 -0.996632 0)
(0.0666 -1.01854 0)
(0.0666 -1.04044 0)
(0.0666 -1.06234 0)
(0.0666 -1.08425 0)
(0.085544 -0.010952 0)
(0.085544 -0.032856 0)
(0.085544 -0.05476 0)
(0.085544 -0.076664 0)
(0.085544 -0.098568 0)
(0.085544 -0.120472 0)
(0.085544 -0.142376 0)
(0.085544 -0.16428 0)
(0.085544 -0.186184 0)
(0.085544 -0.208088 0)
(0.085544 -0.229992 0)
(0.085544 -0.251896 0)
(0.085544 -0.2738 0)
(0.085544 -0.295704 0)
(0.085544 -0.317608 0)
(0.085544 -0.339512 0)
(0.085544 -0.361416 0)
(0.085544 -0.38332 0)
(0.085544 -0.405224 0)
(0.085544 -0.427128 0)
(0.085544 -0.449032 0)
(0.085544 -0.470936 0)
(0.085544 -0.49284 0)
(0.085544 -0.514744 0)
(0.085544 -0.536648 0)
(0.085544 -0.558552 0)
(0.085544 -0.580456 0)
(0.085544 -0.60236 0)
(0.085544 -0.624264 0)
(0.085544 -0.646168 0)
(0.085544 -0.668072 0)
(0.085544 -0.689976 0)
(0.085544 -0.71188 0)
(0.085544 -0.733784 0)
(0.085544 -0.755688 0)
(0.085544 -0.777592 0)
(0.085544 -0.799496 0)
(0.085544 -0.8214 0)
(0.085544 -0.843304 0)
(0.085544 -0.865208 0)
(0.085544 -0.887112 0)
(0.085544 -0.909016 0)
(0.085544 -0.93092 0)
(0.085544 -0.952824 0)
(0.085544 -0.974728 0)
(0.085544 -0.996632 0)
(0.085544 -1.01854 0)
(0.085544 -1.04044 0)
(0.085544 -1.06234 0)
(0.085544 -1.08425 0)
(0.106856 -0.010952 0)
(0.106856 -0.032856 0)
(0.106856 -0.05476 0)
(0.106856 -0.076664 0)
(0.106856 -0.098568 0)
(0.106856 -0.120472 0)
(0.106856 -0.142376 0)
(0.106856 -0.16428 0)
(0.106856 -0.186184 0)
(0.106856 -0.208088 0)
(0.106856 -0.229992 0)
(0.106856 -0.251896 0)
(0.106856 -0.2738 0)
(0.106856 -0.295704 0)
(0.106856 -0.317608 0)
(0.106856 -0.339512 0)
(0.106856 -0.361416 0)
(0.106856 -0.38332 0)
(0.106856 -0.405224 0)
(0.106856 -0.427128 0)
(0.106856 -0.449032 0)
(0.106856 -0.470936 0)
(0.106856 -0.49284 0)
(0.106856 -0.514744 0)
(0.106856 -0.536648 0)
(0.106856 -0.558552 0)
(0.106856 -0.580456 0)
(0.106856 -0.60236 0)
(0.106856 -0.624264 0)
(0.106856 -0.646168 0)
(0.106856 -0.668072 0)
(0.106856 -0.689976 0)
(0.106856 -0.71188 0)
(0.106856 -0.733784 0)
(0.106856 -0.755688 0)
(0.106856 -0.777592 0)
(0.106856 -0.799496 0)
(0.106856 -0.8214 0)
(0.106856 -0.843304 0)
(0.106856 -0.865208 0)
(0.106856 -0.887112 0)
(0.106856 -0.909016 0)
(0.106856 -0.93092 0)
(0.106856 -0.952824 0)
(0.106856 -0.974728 0)
(0.106856 -0.996632 0)
(0.106856 -1.01854 0)
(0.106856 -1.04044 0)
(0.106856 -1.06234 0)
(0.106856 -1.08425 0)
(0.130536 -0.010952 0)
(0.130536 -0.032856 0)
(0.130536 -0.05476 0)
(0.130536 -0.076664 0)
(0.130536 -0.098568 0)
(0.130536 -0.120472 0)
(0.130536 -0.142376 0)
(0.130536 -0.16428 0)
(0.130536 -0.186184 0)
(0.130536 -0.208088 0)
(0.130536 -0.229992 0)
(0.130536 -0.251896 0)
(0.130536 -0.2738 0)
(0.130536 -0.295704 0)
(0.130536 -0.317608 0)
(0.130536 -0.339512 0)
(0.130536 -0.361416 0)
(0.130536 -0.38332 0)
(0.130536 -0.405224 0)
(0.130536 -0.427128 0)
(0.130536 -0.449032 0)
(0.130536 -0.470936 0)
(0.130536 -0.49284 0)
(0.130536 -0.514744 0)
(0.130536 -0.536648 0)
(0.130536 -0.558552 0)
(0.130536 -0.580456 0)
(0.130536 -0.60236 0)
(0.130536 -0.624264 0)
(0.130536 -0.646168 0)
(0.130536 -0.668072 0)
(0.130536 -0.689976 0)
(0.130536 -0.71188 0)
(0.130536 -0.733784 0)
(0.130536 -0.755688 0)
(0.130536 -0.777592 0)
(0.130536 -0.799496 0)
(0.130536 -0.8214 0)
(0.130536 -0.843304 0)
(0.130536 -0.865208 0)
(0.130536 -0.887112 0)
(0.130536 -0.909016 0)
(0.130536 -0.93092 0)
(0.130536 -0.952824 0)
(0.130536 -0.974728 0)
(0.130536 -0.996632 0)
(0.130536 -1.01854 0)
(0.130536 -1.04044 0)
(0.130536 -1.06234 0)
(0.130536 -1.08425 0)
(0.156584 -0.010952 0)
(0.156584 -0.032856 0)
(0.156584 -0.05476 0)
(0.156584 -0.076664 0)
(0.156584 -0.098568 0)
(0.156584 -0.120472 0)
(0.156584 -0.142376 0)
(0.156584 -0.16428 0)
(0.156584 -0.186184 0)
(0.156584 -0.208088 0)
(0.156584 -0.229992 0)
(0.156584 -0.251896 0)
(0.156584 -0.2738 0)
(0.156584 -0.295704 0)
(0.156584 -0.317608 0)
(0.156584 -0.339512 0)
(0.156584 -0.361416 0)
(0.156584 -0.38332 0)
(0.156584 -0.405224 0)
(0.156584 -0.427128 0)
(0.156584 -0.449032 0)
(0.156584 -0.470936 0)
(0.156584 -0.49284 0)
(0.156584 -0.514744 0)
(0.156584 -0.536648 0)
(0.156584 -0.558552 0)
(0.156584 -0.580456 0)
(0.156584 -0.60236 0)
(0.156584 -0.624264 0)
(0.156584 -0.646168 0)
(0.156584 -0.668072 0)
(0.156584 -0.689976 0)
(0.156584 -0.71188 0)
(0.156584 -0.733784 0)
(0.156584 -0.755688 0)
(0.156584 -0.777592 0)
(0.156584 -0.799496 0)
(0.156584 -0.8214 0)
(0.156584 -0.843304 0)
(0.156584 -0.865208 0)
(0.156584 -0.887112 0)
(0.156584 -0.909016 0)
(0.156584 -0.93092 0)
(0.156584 -0.952824 0)
(0.156584 -0.974728 0)
(0.156584 -0.996632 0)
(0.156584 -1.01854 0)
(0.156584 -1.04044 0)
(0.156584 -1.06234 0)
(0.156584 -1.08425 0)
(0.185 -0.010952 0)
(0.185 -0.032856 0)
(0.185 -0.05476 0)
(0.185 -0.076664 0)
(0.185 -0.098568 0)
(0.185 -0.120472 0)
(0.185 -0.142376 0)
(0.185 -0.16428 0)
(0.185 -0.186184 0)
(0.185 -0.208088 0)
(0.185 -0.229992 0)
(0.185 -0.251896 0)
(0.185 -0.2738 0)
(0.185 -0.295704 0)
(0.185 -0.317608 0)
(0.185 -0.339512 0)
(0.185 -0.361416 0)
(0.185 -0.38332 0)
(0.185 -0.405224 0)
(0.185 -0.427128 0)
(0.185 -0.449032 0)
(0.185 -0.470936 0)
(0.185 -0.49284 0)
(0.185 -0.514744 0)
(0.185 -0.536648 0)
(0.185 -0.558552 0)
(0.185 -0.580456 0)
(0.185 -0.60236 0)
(0.185 -0.624264 0)
(0.185 -0.646168 0)
(0.185 -0.668072 0)
(0.185 -0.689976 0)
(0.185 -0.71188 0)
(0.185 -0.733784 0)
(0.185 -0.755688 0)
(0.185 -0.777592 0)
(0.185 -0.799496 0)
(0.185 -0.8214 0)
(0.185 -0.843304 0)
(0.185 -0.865208 0)
(0.185 -0.887112 0)
(0.185 -0.909016 0)
(0.185 -0.93092 0)
(0.185 -0.952824 0)
(0.185 -0.974728 0)
(0.185 -0.996632 0)
(0.185 -1.01854 0)
(0.185 -1.04044 0)
(0.185 -1.06234 0)
(0.185 -1.08425 0)
(0.215784 -0.010952 0)
(0.215784 -0.032856 0)
(0.215784 -0.05476 0)
(0.215784 -0.076664 0)
(0.215784 -0.098568 0)
(0.215784 -0.120472 0)
(0.215784 -0.142376 0)
(0.215784 -0.16428 0)
(0.215784 -0.186184 0)
(0.215784 -0.208088 0)
(0.215784 -0.229992 0)
(0.215784 -0.251896 0)
(0.215784 -0.2738 0)
(0.215784 -0.295704 0)
(0.215784 -0.317608 0)
(0.215784 -0.339512 0)
(0.215784 -0.361416 0)
(0.215784 -0.38332 0)
(0.215784 -0.405224 0)
(0.215784 -0.427128 0)
(0.215784 -0.449032 0)
(0.215784 -0.470936 0)
(0.215784 -0.49284 0)
(0.215784 -0.514744 0)
(0.215784 -0.536648 0)
(0.215784 -0.558552 0)
(0.215784 -0.580456 0)
(0.215784 -0.60236 0)
(0.215784 -0.624264 0)
(0.215784 -0.646168 0)
(0.215784 -0.668072 0)
(0.215784 -0.689976 0)
(0.215784 -0.71188 0)
(0.215784 -0.733784 0)
(0.215784 -0.755688 0)
(0.215784 -0.777592 0)
(0.215784 -0.799496 0)
(0.215784 -0.8214 0)
(0.215784 -0.843304 0)
(0.215784 -0.865208 0)
(0.215784 -0.887112 0)
(0.215784 -0.909016 0)
(0.215784 -0.93092 0)
(0.215784 -0.952824 0)
(0.215784 -0.974728 0)
(0.215784 -0.996632 0)
(0.215784 -1.01854 0)
(0.215784 -1.04044 0)
(0.215784 -1.06234 0)
(0.215784 -1.08425 0)
(0.248936 -0.010952 0)
(0.248936 -0.032856 0)
(0.248936 -0.05476 0)
(0.248936 -0.076664 0)
(0.248936 -0.098568 0)
(0.248936 -0.120472 0)
(0.248936 -0.142376 0)
(0.248936 -0.16428 0)
(0.248936 -0.186184 0)
(0.248936 -0.208088 0)
(0.248936 -0.229992 0)
(0.248936 -0.251896 0)
(0.248936 -0.2738 0)
(0.248936 -0.295704 0)
(0.248936 -0.317608 0)
(0.248936 -0.339512 0)
(0.248936 -0.361416 0)
(0.248936 -0.38332 0)
(0.248936 -0.405224 0)
(0.248936 -0.427128 0)
(0.248936 -0.449032 0)
(0.248936 -0.470936 0)
(0.248936 -0.49284 0)
(0.248936 -0.514744 0)
(0.248936 -0.536648 0)
(0.248936 -0.558552 0)
(0.248936 -0.580456 0)
(0.248936 -0.60236 0)
(0.248936 -0.624264 0)
(0.248936 -0.646168 0)
(0.248936 -0.668072 0)
(0.248936 -0.689976 0)
(0.248936 -0.71188 0)
(0.248936 -0.733784 0)
(0.248936 -0.755688 0)
(0.248936 -0.777592 0)
(0.248936 -0.799496 0)
(0.248936 -0.8214 0)
(0.248936 -0.843304 0)
(0.248936 -0.865208 0)
(0.248936 -0.887112 0)
(0.248936 -0.909016 0)
(0.248936 -0.93092 0)
(0.248936 -0.952824 0)
(0.248936 -0.974728 0)
(0.248936 -0.996632 0)
(0.248936 -1.01854 0)
(0.248936 -1.04044 0)
(0.248936 -1.06234 0)
(0.248936 -1.08425 0)
(0.284456 -0.010952 0)
(0.284456 -0.032856 0)
(0.284456 -0.05476 0)
(0.284456 -0.076664 0)
(0.284456 -0.098568 0)
(0.284456 -0.120472 0)
(0.284456 -0.142376 0)
(0.284456 -0.16428 0)
(0.284456 -0.186184 0)
(0.284456 -0.208088 0)
(0.284456 -0.229992 0)
(0.284456 -0.251896 0)
(0.284456 -0.2738 0)
(0.284456 -0.295704 0)
(0.284456 -0.317608 0)
(0.284456 -0.339512 0)
(0.284456 -0.361416 0)
(0.284456 -0.38332 0)
(0.284456 -0.405224 0)
(0.284456 -0.427128 0)
(0.284456 -0.449032 0)
(0.284456 -0.470936 0)
(0.284456 -0.49284 0)
(0.284456 -0.514744 0)
(0.284456 -0.536648 0)
(0.284456 -0.558552 0)
(0.284456 -0.580456 0)
(0.284456 -0.60236 0)
(0.284456 -0.624264 0)
(0.284456 -0.646168 0)
(0.284456 -0.668072 0)
(0.284456 -0.689976 0)
(0.284456 -0.71188 0)
(0.284456 -0.733784 0)
(0.284456 -0.755688 0)
(0.284456 -0.777592 0)
(0.284456 -0.799496 0)
(0.284456 -0.8214 0)
(0.284456 -0.843304 0)
(0.284456 -0.865208 0)
(0.284456 -0.887112 0)
(0.284456 -0.909016 0)
(0.284456 -0.93092 0)
(0.284456 -0.952824 0)
(0.284456 -0.974728 0)
(0.284456 -0.996632 0)
(0.284456 -1.01854 0)
(0.284456 -1.04044 0)
(0.284456 -1.06234 0)
(0.284456 -1.08425 0)
(0.322344 -0.010952 0)
(0.322344 -0.032856 0)
(0.322344 -0.05476 0)
(0.322344 -0.076664 0)
(0.322344 -0.098568 0)
(0.322344 -0.120472 0)
(0.322344 -0.142376 0)
(0.322344 -0.16428 0)
(0.322344 -0.186184 0)
(0.322344 -0.208088 0)
(0.322344 -0.229992 0)
(0.322344 -0.251896 0)
(0.322344 -0.2738 0)
(0.322344 -0.295704 0)
(0.322344 -0.317608 0)
(0.322344 -0.339512 0)
(0.322344 -0.361416 0)
(0.322344 -0.38332 0)
(0.322344 -0.405224 0)
(0.322344 -0.427128 0)
(0.322344 -0.449032 0)
(0.322344 -0.470936 0)
(0.322344 -0.49284 0)
(0.322344 -0.514744 0)
(0.322344 -0.536648 0)
(0.322344 -0.558552 0)
(0.322344 -0.580456 0)
(0.322344 -0.60236 0)
(0.322344 -0.624264 0)
(0.322344 -0.646168 0)
(0.322344 -0.668072 0)
(0.322344 -0.689976 0)
(0.322344 -0.71188 0)
(0.322344 -0.733784 0)
(0.322344 -0.755688 0)
(0.322344 -0.777592 0)
(0.322344 -0.799496 0)
(0.322344 -0.8214 0)
(0.322344 -0.843304 0)
(0.322344 -0.865208 0)
(0.322344 -0.887112 0)
(0.322344 -0.909016 0)
(0.322344 -0.93092 0)
(0.322344 -0.952824 0)
(0.322344 -0.974728 0)
(0.322344 -0.996632 0)
(0.322344 -1.01854 0)
(0.322344 -1.04044 0)
(0.322344 -1.06234 0)
(0.322344 -1.08425 0)
(0.3626 -0.010952 0)
(0.3626 -0.032856 0)
(0.3626 -0.05476 0)
(0.3626 -0.076664 0)
(0.3626 -0.098568 0)
(0.3626 -0.120472 0)
(0.3626 -0.142376 0)
(0.3626 -0.16428 0)
(0.3626 -0.186184 0)
(0.3626 -0.208088 0)
(0.3626 -0.229992 0)
(0.3626 -0.251896 0)
(0.3626 -0.2738 0)
(0.3626 -0.295704 0)
(0.3626 -0.317608 0)
(0.3626 -0.339512 0)
(0.3626 -0.361416 0)
(0.3626 -0.38332 0)
(0.3626 -0.405224 0)
(0.3626 -0.427128 0)
(0.3626 -0.449032 0)
(0.3626 -0.470936 0)
(0.3626 -0.49284 0)
(0.3626 -0.514744 0)
(0.3626 -0.536648 0)
(0.3626 -0.558552 0)
(0.3626 -0.580456 0)
(0.3626 -0.60236 0)
(0.3626 -0.624264 0)
(0.3626 -0.646168 0)
(0.3626 -0.668072 0)
(0.3626 -0.689976 0)
(0.3626 -0.71188 0)
(0.3626 -0.733784 0)
(0.3626 -0.755688 0)
(0.3626 -0.777592 0)
(0.3626 -0.799496 0)
(0.3626 -0.8214 0)
(0.3626 -0.843304 0)
(0.3626 -0.865208 0)
(0.3626 -0.887112 0)
(0.3626 -0.909016 0)
(0.3626 -0.93092 0)
(0.3626 -0.952824 0)
(0.3626 -0.974728 0)
(0.3626 -0.996632 0)
(0.3626 -1.01854 0)
(0.3626 -1.04044 0)
(0.3626 -1.06234 0)
(0.3626 -1.08425 0)
(0.405224 -0.010952 0)
(0.405224 -0.032856 0)
(0.405224 -0.05476 0)
(0.405224 -0.076664 0)
(0.405224 -0.098568 0)
(0.405224 -0.120472 0)
(0.405224 -0.142376 0)
(0.405224 -0.16428 0)
(0.405224 -0.186184 0)
(0.405224 -0.208088 0)
(0.405224 -0.229992 0)
(0.405224 -0.251896 0)
(0.405224 -0.2738 0)
(0.405224 -0.295704 0)
(0.405224 -0.317608 0)
(0.405224 -0.339512 0)
(0.405224 -0.361416 0)
(0.405224 -0.38332 0)
(0.405224 -0.405224 0)
(0.405224 -0.427128 0)
(0.405224 -0.449032 0)
(0.405224 -0.470936 0)
(0.405224 -0.49284 0)
(0.405224 -0.514744 0)
(0.405224 -0.536648 0)
(0.405224 -0.558552 0)
(0.405224 -0.580456 0)
(0.405224 -0.60236 0)
(0.405224 -0.624264 0)
(0.405224 -0.646168 0)
(0.405224 -0.668072 0)
(0.405224 -0.689976 0)
(0.405224 -0.71188 0)
(0.405224 -0.733784 0)
(0.405224 -0.755688 0)
(0.405224 -0.777592 0)
(0.405224 -0.799496 0)
(0.405224 -0.8214 0)
(0.405224 -0.843304 0)
(0.405224 -0.865208 0)
(0.405224 -0.887112 0)
(0.405224 -0.909016 0)
(0.405224 -0.93092 0)
(0.405224 -0.952824 0)
(0.405224 -0.974728 0)
(0.405224 -0.996632 0)
(0.405224 -1.01854 0)
(0.405224 -1.04044 0)
(0.405224 -1.06234 0)
(0.405224 -1.08425 0)
(0.450216 -0.010952 0)
(0.450216 -0.032856 0)
(0.450216 -0.05476 0)
(0.450216 -0.076664 0)
(0.450216 -0.098568 0)
(0.450216 -0.120472 0)
(0.450216 -0.142376 0)
(0.450216 -0.16428 0)
(0.450216 -0.186184 0)
(0.450216 -0.208088 0)
(0.450216 -0.229992 0)
(0.450216 -0.251896 0)
(0.450216 -0.2738 0)
(0.450216 -0.295704 0)
(0.450216 -0.317608 0)
(0.450216 -0.339512 0)
(0.450216 -0.361416 0)
(0.450216 -0.38332 0)
(0.450216 -0.405224 0)
(0.450216 -0.427128 0)
(0.450216 -0.449032 0)
(0.450216 -0.470936 0)
(0.450216 -0.49284 0)
(0.450216 -0.514744 0)
(0.450216 -0.536648 0)
(0.450216 -0.558552 0)
(0.450216 -0.580456 0)
(0.450216 -0.60236 0)
(0.450216 -0.624264 0)
(0.450216 -0.646168 0)
(0.450216 -0.668072 0)
(0.450216 -0.689976 0)
(0.450216 -0.71188 0)
(0.450216 -0.733784 0)
(0.450216 -0.755688 0)
(0.450216 -0.777592 0)
(0.450216 -0.799496 0)
(0.450216 -0.8214 0)
(0.450216 -0.843304 0)
(0.450216 -0.865208 0)
(0.450216 -0.887112 0)
(0.450216 -0.909016 0)
(0.450216 -0.93092 0)
(0.450216 -0.952824 0)
(0.450216 -0.974728 0)
(0.450216 -0.996632 0)
(0.450216 -1.01854 0)
(0.450216 -1.04044 0)
(0.450216 -1.06234 0)
(0.450216 -1.08425 0)
(0.497576 -0.010952 0)
(0.497576 -0.032856 0)
(0.497576 -0.05476 0)
(0.497576 -0.076664 0)
(0.497576 -0.098568 0)
(0.497576 -0.120472 0)
(0.497576 -0.142376 0)
(0.497576 -0.16428 0)
(0.497576 -0.186184 0)
(0.497576 -0.208088 0)
(0.497576 -0.229992 0)
(0.497576 -0.251896 0)
(0.497576 -0.2738 0)
(0.497576 -0.295704 0)
(0.497576 -0.317608 0)
(0.497576 -0.339512 0)
(0.497576 -0.361416 0)
(0.497576 -0.38332 0)
(0.497576 -0.405224 0)
(0.497576 -0.427128 0)
(0.497576 -0.449032 0)
(0.497576 -0.470936 0)
(0.497576 -0.49284 0)
(0.497576 -0.514744 0)
(0.497576 -0.536648 0)
(0.497576 -0.558552 0)
(0.497576 -0.580456 0)
(0.497576 -0.60236 0)
(0.497576 -0.624264 0)
(0.497576 -0.646168 0)
(0.497576 -0.668072 0)
(0.497576 -0.689976 0)
(0.497576 -0.71188 0)
(0.497576 -0.733784 0)
(0.497576 -0.755688 0)
(0.497576 -0.777592 0)
(0.497576 -0.799496 0)
(0.497576 -0.8214 0)
(0.497576 -0.843304 0)
(0.497576 -0.865208 0)
(0.497576 -0.887112 0)
(0.497576 -0.909016 0)
(0.497576 -0.93092 0)
(0.497576 -0.952824 0)
(0.497576 -0.974728 0)
(0.497576 -0.996632 0)
(0.497576 -1.01854 0)
(0.497576 -1.04044 0)
(0.497576 -1.06234 0)
(0.497576 -1.08425 0)
(0.547304 -0.010952 0)
(0.547304 -0.032856 0)
(0.547304 -0.05476 0)
(0.547304 -0.076664 0)
(0.547304 -0.098568 0)
(0.547304 -0.120472 0)
(0.547304 -0.142376 0)
(0.547304 -0.16428 0)
(0.547304 -0.186184 0)
(0.547304 -0.208088 0)
(0.547304 -0.229992 0)
(0.547304 -0.251896 0)
(0.547304 -0.2738 0)
(0.547304 -0.295704 0)
(0.547304 -0.317608 0)
(0.547304 -0.339512 0)
(0.547304 -0.361416 0)
(0.547304 -0.38332 0)
(0.547304 -0.405224 0)
(0.547304 -0.427128 0)
(0.547304 -0.449032 0)
(0.547304 -0.470936 0)
(0.547304 -0.49284 0)
(0.547304 -0.514744 0)
(0.547304 -0.536648 0)
(0.547304 -0.558552 0)
(0.547304 -0.580456 0)
(0.547304 -0.60236 0)
(0.547304 -0.624264 0)
(0.547304 -0.646168 0)
(0.547304 -0.668072 0)
(0.547304 -0.689976 0)
(0.547304 -0.71188 0)
(0.547304 -0.733784 0)
(0.547304 -0.755688 0)
(0.547304 -0.777592 0)
(0.547304 -0.799496 0)
(0.547304 -0.8214 0)
(0.547304 -0.843304 0)
(0.547304 -0.865208 0)
(0.547304 -0.887112 0)
(0.547304 -0.909016 0)
(0.547304 -0.93092 0)
(0.547304 -0.952824 0)
(0.547304 -0.974728 0)
(0.547304 -0.996632 0)
(0.547304 -1.01854 0)
(0.547304 -1.04044 0)
(0.547304 -1.06234 0)
(0.547304 -1.08425 0)
(0.5994 -0.010952 0)
(0.5994 -0.032856 0)
(0.5994 -0.05476 0)
(0.5994 -0.076664 0)
(0.5994 -0.098568 0)
(0.5994 -0.120472 0)
(0.5994 -0.142376 0)
(0.5994 -0.16428 0)
(0.5994 -0.186184 0)
(0.5994 -0.208088 0)
(0.5994 -0.229992 0)
(0.5994 -0.251896 0)
(0.5994 -0.2738 0)
(0.5994 -0.295704 0)
(0.5994 -0.317608 0)
(0.5994 -0.339512 0)
(0.5994 -0.361416 0)
(0.5994 -0.38332 0)
(0.5994 -0.405224 0)
(0.5994 -0.427128 0)
(0.5994 -0.449032 0)
(0.5994 -0.470936 0)
(0.5994 -0.49284 0)
(0.5994 -0.514744 0)
(0.5994 -0.536648 0)
(0.5994 -0.558552 0)
(0.5994 -0.580456 0)
(0.5994 -0.60236 0)
(0.5994 -0.624264 0)
(0.5994 -0.646168 0)
(0.5994 -0.668072 0)
(0.5994 -0.689976 0)
(0.5994 -0.71188 0)
(0.5994 -0.733784 0)
(0.5994 -0.755688 0)
(0.5994 -0.777592 0)
(0.5994 -0.799496 0)
(0.5994 -0.8214 0)
(0.5994 -0.843304 0)
(0.5994 -0.865208 0)
(0.5994 -0.887112 0)
(0.5994 -0.909016 0)
(0.5994 -0.93092 0)
(0.5994 -0.952824 0)
(0.5994 -0.974728 0)
(0.5994 -0.996632 0)
(0.5994 -1.01854 0)
(0.5994 -1.04044 0)
(0.5994 -1.06234 0)
(0.5994 -1.08425 0)
(0.653864 -0.010952 0)
(0.653864 -0.032856 0)
(0.653864 -0.05476 0)
(0.653864 -0.076664 0)
(0.653864 -0.098568 0)
(0.653864 -0.120472 0)
(0.653864 -0.142376 0)
(0.653864 -0.16428 0)
(0.653864 -0.186184 0)
(0.653864 -0.208088 0)
(0.653864 -0.229992 0)
(0.653864 -0.251896 0)
(0.653864 -0.2738 0)
(0.653864 -0.295704 0)
(0.653864 -0.317608 0)
(0.653864 -0.339512 0)
(0.653864 -0.361416 0)
(0.653864 -0.38332 0)
(0.653864 -0.405224 0)
(0.653864 -0.427128 0)
(0.653864 -0.449032 0)
(0.653864 -0.470936 0)
(0.653864 -0.49284 0)
(0.653864 -0.514744 0)
(0.653864 -0.536648 0)
(0.653864 -0.558552 0)
(0.653864 -0.580456 0)
(0.653864 -0.60236 0)
(0.653864 -0.624264 0)
(0.653864 -0.646168 0)
(0.653864 -0.668072 0)
(0.653864 -0.689976 0)
(0.653864 -0.71188 0)
(0.653864 -0.733784 0)
(0.653864 -0.755688 0)
(0.653864 -0.777592 0)
(0.653864 -0.799496 0)
(0.653864 -0.8214 0)
(0.653864 -0.843304 0)
(0.653864 -0.865208 0)
(0.653864 -0.887112 0)
(0.653864 -0.909016 0)
(0.653864 -0.93092 0)
(0.653864 -0.952824 0)
(0.653864 -0.974728 0)
(0.653864 -0.996632 0)
(0.653864 -1.01854 0)
(0.653864 -1.04044 0)
(0.653864 -1.06234 0)
(0.653864 -1.08425 0)
(0.710696 -0.010952 0)
(0.710696 -0.032856 0)
(0.710696 -0.05476 0)
(0.710696 -0.076664 0)
(0.710696 -0.098568 0)
(0.710696 -0.120472 0)
(0.710696 -0.142376 0)
(0.710696 -0.16428 0)
(0.710696 -0.186184 0)
(0.710696 -0.208088 0)
(0.710696 -0.229992 0)
(0.710696 -0.251896 0)
(0.710696 -0.2738 0)
(0.710696 -0.295704 0)
(0.710696 -0.317608 0)
(0.710696 -0.339512 0)
(0.710696 -0.361416 0)
(0.710696 -0.38332 0)
(0.710696 -0.405224 0)
(0.710696 -0.427128 0)
(0.710696 -0.449032 0)
(0.710696 -0.470936 0)
(0.710696 -0.49284 0)
(0.710696 -0.514744 0)
(0.710696 -0.536648 0)
(0.710696 -0.558552 0)
(0.710696 -0.580456 0)
(0.710696 -0.60236 0)
(0.710696 -0.624264 0)
(0.710696 -0.646168 0)
(0.710696 -0.668072 0)
(0.710696 -0.689976 0)
(0.710696 -0.71188 0)
(0.710696 -0.733784 0)
(0.710696 -0.755688 0)
(0.710696 -0.777592 0)
(0.710696 -0.799496 0)
(0.710696 -0.8214 0)
(0.710696 -0.843304 0)
(0.710696 -0.865208 0)
(0.710696 -0.887112 0)
(0.710696 -0.909016 0)
(0.710696 -0.93092 0)
(0.710696 -0.952824 0)
(0.710696 -0.974728 0)
(0.710696 -0.996632 0)
(0.710696 -1.01854 0)
(0.710696 -1.04044 0)
(0.710696 -1.06234 0)
(0.710696 -1.08425 0)
(0.769896 -0.010952 0)
(0.769896 -0.032856 0)
(0.769896 -0.05476 0)
(0.769896 -0.076664 0)
(0.769896 -0.098568 0)
(0.769896 -0.120472 0)
(0.769896 -0.142376 0)
(0.769896 -0.16428 0)
(0.769896 -0.186184 0)
(0.769896 -0.208088 0)
(0.769896 -0.229992 0)
(0.769896 -0.251896 0)
(0.769896 -0.2738 0)
(0.769896 -0.295704 0)
(0.769896 -0.317608 0)
(0.769896 -0.339512 0)
(0.769896 -0.361416 0)
(0.769896 -0.38332 0)
(0.769896 -0.405224 0)
(0.769896 -0.427128 0)
(0.769896 -0.449032 0)
(0.769896 -0.470936 0)
(0.769896 -0.49284 0)
(0.769896 -0.514744 0)
(0.769896 -0.536648 0)
(0.769896 -0.558552 0)
(0.769896 -0.580456 0)
(0.769896 -0.60236 0)
(0.769896 -0.624264 0)
(0.769896 -0.646168 0)
(0.769896 -0.668072 0)
(0.769896 -0.689976 0)
(0.769896 -0.71188 0)
(0.769896 -0.733784 0)
(0.769896 -0.755688 0)
(0.769896 -0.777592 0)
(0.769896 -0.799496 0)
(0.769896 -0.8214 0)
(0.769896 -0.843304 0)
(0.769896 -0.865208 0)
(0.769896 -0.887112 0)
(0.769896 -0.909016 0)
(0.769896 -0.93092 0)
(0.769896 -0.952824 0)
(0.769896 -0.974728 0)
(0.769896 -0.996632 0)
(0.769896 -1.01854 0)
(0.769896 -1.04044 0)
(0.769896 -1.06234 0)
(0.769896 -1.08425 0)
(0.831464 -0.010952 0)
(0.831464 -0.032856 0)
(0.831464 -0.05476 0)
(0.831464 -0.076664 0)
(0.831464 -0.098568 0)
(0.831464 -0.120472 0)
(0.831464 -0.142376 0)
(0.831464 -0.16428 0)