/*--------------------------------*- C++ -*----------------------------------*\
| =========                 |                                                 |
| \\      /  F ield         | OpenFOAM: The Open Source CFD Toolbox           |
|  \\    /   O peration     | Version:  v2006                                 |
|   \\  /    A nd           | Website:  www.openfoam.com                      |
|    \\/     M anipulation  |                                                 |
\*---------------------------------------------------------------------------*/
FoamFile
{
    version     2.0;
    format      ascii;
    class       volScalarField;
    location    "0";
    object      f;
}
// * * * * * * * * * * * * * * * * * * * * * * * * * * * * * * * * * * * * * //

dimensions      [0 0 0 0 0 0 0];


internalField   nonuniform List<scalar> 
2500
(
5.15543e-17
-8.48831e-18
-1.49605e-16
-9.32719e-17
-1.0549e-16
-2.20124e-16
-2.44539e-16
-2.78436e-16
-3.62591e-16
-4.66538e-16
-2.59519e-16
1.23693e-16
4.02263e-16
2.33293e-16
-7.22305e-17
-2.49152e-16
-1.88086e-16
-2.66879e-17
5.434e-17
2.94755e-17
-9.47695e-18
-2.0875e-17
-1.62809e-17
-8.84897e-18
-3.53359e-18
-7.71294e-19
2.96027e-19
5.16929e-19
4.22947e-19
2.69716e-19
1.48063e-19
7.25724e-20
3.22819e-20
1.31195e-20
4.87094e-21
1.63912e-21
4.89136e-22
1.2215e-22
2.06467e-23
-1.32319e-24
-3.39208e-24
-2.08129e-24
-9.67777e-25
-3.91714e-25
-1.44757e-25
-4.99603e-26
-1.63112e-26
-5.07862e-27
-1.51645e-27
-5.11044e-28
1.68271e-16
9.12359e-17
-2.48122e-16
-4.22678e-17
-2.60041e-17
-2.51523e-16
-2.84272e-16
-2.34887e-16
-3.06935e-16
-8.42148e-16
-4.88178e-16
1.19923e-16
1.08439e-15
5.38114e-16
-3.95163e-17
-4.53962e-16
-3.7084e-16
-4.32056e-17
1.39468e-16
7.44043e-17
-1.6812e-17
-3.47355e-17
-2.32382e-17
-1.06515e-17
-3.23113e-18
9.68105e-21
9.61387e-19
9.46361e-19
6.58964e-19
3.83893e-19
1.96862e-19
9.06523e-20
3.77372e-20
1.41623e-20
4.7196e-21
1.33909e-21
2.82079e-22
1.23794e-23
-2.98869e-23
-2.245e-23
-1.15932e-23
-5.07584e-24
-2.00508e-24
-7.34641e-25
-2.5344e-25
-8.30959e-26
-2.6057e-26
-7.85027e-27
-2.28009e-27
-7.47811e-28
5.39609e-16
4.39408e-16
-6.63085e-16
-7.239e-17
4.35489e-16
-3.51512e-16
-1.20536e-15
-3.37748e-16
-3.12261e-15
-3.48511e-15
-1.22262e-15
7.56527e-15
5.52011e-15
1.27149e-15
-1.82552e-17
-2.1091e-15
-1.16779e-15
-1.09754e-16
4.88438e-16
2.42954e-16
-5.70536e-17
-8.75691e-17
-4.82499e-17
-1.82733e-17
-3.70441e-18
1.63286e-18
2.67958e-18
2.18031e-18
1.39459e-18
7.67863e-19
3.75277e-19
1.64454e-19
6.44996e-20
2.22861e-20
6.47903e-21
1.35335e-21
1.53287e-23
-1.8757e-22
-1.36966e-22
-7.13882e-23
-3.17925e-23
-1.28045e-23
-4.78661e-24
-1.68496e-24
-5.63611e-25
-1.80253e-25
-5.53666e-26
-1.63894e-26
-4.68814e-27
-1.51415e-27
1.48819e-15
1.6557e-15
-1.7513e-15
-1.30532e-15
1.03628e-14
2.32128e-15
-9.68768e-15
-1.47786e-14
-5.02169e-14
-1.18186e-14
3.20495e-14
6.83941e-14
1.52436e-14
-8.29441e-15
-3.33228e-14
-1.56251e-14
-3.40821e-15
2.79399e-16
3.09971e-15
8.50842e-16
-2.4543e-16
-2.3389e-16
-9.45897e-17
-2.64539e-17
-6.90311e-19
6.57112e-18
6.67989e-18
4.75207e-18
2.82477e-18
1.47274e-18
6.83483e-19
2.82098e-19
1.01901e-19
3.07162e-20
6.53361e-21
-3.26923e-23
-1.05315e-21
-7.75392e-22
-4.12461e-22
-1.87813e-22
-7.7343e-23
-2.95502e-23
-1.06259e-23
-3.62886e-24
-1.18432e-24
-3.71042e-25
-1.11979e-25
-3.2643e-26
-9.21195e-27
-2.93443e-27
2.57936e-15
3.85764e-15
-3.03214e-15
-8.62764e-15
4.54334e-14
6.39113e-14
-1.82172e-14
-2.55816e-13
-1.77344e-13
3.12055e-13
7.62748e-13
2.04064e-13
-1.17096e-13
-4.38964e-13
-2.07091e-13
-4.12687e-14
-8.14837e-16
5.44983e-14
1.93147e-14
2.07977e-15
-1.84267e-15
-6.62484e-16
-1.54021e-16
-2.22244e-17
1.3592e-17
1.92055e-17
1.52943e-17
9.80871e-18
5.46217e-18
2.69763e-18
1.18107e-18
4.5082e-19
1.43133e-19
3.21673e-20
1.74775e-22
-5.29328e-21
-4.06752e-21
-2.23332e-21
-1.04529e-21
-4.41375e-22
-1.72624e-22
-6.34658e-23
-2.21402e-23
-7.37583e-24
-2.35749e-24
-7.25498e-25
-2.15566e-25
-6.19817e-26
-1.72783e-26
-5.43498e-27
-1.40186e-14
-7.28596e-15
1.13507e-14
-1.56167e-14
6.56577e-14
2.92206e-13
4.10574e-14
-1.07913e-12
-2.25539e-13
5.08968e-12
3.35899e-12
-5.66287e-13
-4.51828e-12
-2.15215e-12
-4.12897e-13
2.24398e-13
8.36478e-13
3.19613e-13
4.22873e-14
-3.41035e-14
-1.3354e-14
-1.33337e-15
-9.21498e-17
3.58606e-17
5.57624e-17
4.75846e-17
3.24388e-17
1.91338e-17
1.00433e-17
4.69348e-18
1.91616e-18
6.52634e-19
1.6097e-19
7.04262e-21
-2.35541e-20
-1.97079e-20
-1.13176e-20
-5.47692e-21
-2.37809e-21
-9.53374e-22
-3.58567e-22
-1.27792e-22
-4.34545e-23
-1.41676e-23
-4.44528e-24
-1.34616e-24
-3.94364e-25
-1.11976e-25
-3.08659e-26
-9.5971e-27
-1.06415e-13
-1.96185e-13
5.33137e-13
5.74463e-13
-6.35347e-13
3.9489e-13
4.68302e-13
-1.7852e-12
2.58001e-11
1.45833e-11
5.22444e-12
-4.04971e-11
-2.09638e-11
-4.33852e-12
1.0178e-11
1.22953e-11
4.49316e-12
6.45058e-13
-5.84102e-13
-2.80122e-13
-3.46736e-14
6.35076e-16
3.9301e-16
2.14631e-16
1.50118e-16
1.03756e-16
6.37859e-17
3.5123e-17
1.74703e-17
7.70315e-18
2.86919e-18
8.01602e-19
8.1717e-20
-8.97702e-20
-8.76177e-20
-5.3581e-20
-2.70081e-20
-1.20973e-20
-4.97687e-21
-1.91494e-21
-6.96904e-22
-2.4171e-22
-8.03264e-23
-2.56799e-23
-7.92182e-24
-2.3637e-24
-6.83494e-25
-1.91843e-25
-5.23378e-26
-1.61016e-26
-1.89137e-13
-5.65432e-13
2.09687e-12
6.10579e-12
-4.39993e-12
-2.1407e-11
8.12691e-11
2.88917e-10
1.60198e-10
-6.64373e-11
-3.64977e-10
-1.90032e-10
-2.79848e-11
1.79395e-10
1.52296e-10
5.67856e-11
8.74926e-12
-8.92008e-12
-4.83937e-12
-7.94462e-13
3.83729e-15
5.47451e-15
1.44111e-15
4.90928e-16
3.09496e-16
2.02077e-16
1.16212e-16
6.03198e-17
2.85847e-17
1.18313e-17
3.8415e-18
6.59543e-19
-2.64289e-19
-3.52248e-19
-2.36199e-19
-1.25352e-19
-5.81595e-20
-2.45783e-20
-9.66893e-21
-3.58814e-21
-1.2672e-21
-4.28518e-22
-1.39372e-22
-4.37418e-23
-1.3281e-23
-3.90864e-24
-1.11678e-24
-3.10181e-25
-8.38386e-26
-2.55496e-26
2.12775e-12
-1.12468e-13
4.35754e-12
1.8483e-11
-8.46512e-12
-1.09908e-10
4.26857e-10
1.49447e-09
4.44422e-10
-2.66803e-09
-1.98337e-09
-3.26462e-10
2.03141e-09
1.41393e-09
5.53432e-10
1.03156e-10
-1.16884e-10
-7.56051e-11
-1.43274e-11
-3.45245e-13
8.40225e-14
2.24666e-14
1.94344e-15
6.11685e-16
5.32984e-16
3.63853e-16
1.96756e-16
9.61118e-17
4.37611e-17
1.68939e-17
4.27325e-18
-3.21683e-19
-1.23307e-18
-9.61692e-19
-5.47487e-19
-2.64847e-19
-1.15107e-19
-4.62297e-20
-1.74459e-20
-6.25329e-21
-2.14476e-21
-7.07562e-22
-2.2537e-22
-6.94959e-23
-2.07887e-23
-6.04168e-24
-1.70788e-24
-4.70036e-25
-1.26043e-25
-3.8109e-26
1.79452e-11
2.56389e-11
6.80353e-12
2.62659e-11
-1.66121e-11
-2.79127e-10
8.07057e-10
2.93607e-09
-7.70035e-09
-1.08969e-08
-4.32807e-09
1.21409e-08
1.03504e-08
4.09401e-09
9.21697e-10
-1.49245e-09
-1.11903e-09
-2.34109e-10
-1.08297e-11
1.14067e-12
3.23549e-13
2.32067e-14
-6.33896e-17
5.89731e-16
9.27461e-16
6.48406e-16
3.08995e-16
1.39404e-16
6.26179e-17
2.25698e-17
2.99323e-18
-3.3023e-18
-3.53123e-18
-2.2445e-18
-1.14664e-18
-5.13704e-19
-2.10101e-19
-8.02408e-20
-2.90251e-20
-1.00384e-20
-3.34116e-21
-1.07505e-21
-3.35449e-22
-1.01722e-22
-3.00202e-23
-8.63058e-24
-2.41863e-24
-6.61003e-25
-1.76238e-25
-5.29945e-26
3.20943e-11
8.05905e-11
-4.11116e-09
-5.35675e-09
-4.88113e-09
-5.8253e-09
-9.54034e-09
-3.54153e-08
-5.03864e-08
-2.03843e-08
3.42431e-08
6.81832e-08
2.07597e-08
4.04489e-09
-2.91734e-08
-1.86943e-08
-3.84925e-09
-1.88826e-10
1.39287e-11
4.43184e-12
3.48725e-13
-7.82745e-15
-1.99044e-15
5.87547e-16
2.35499e-15
1.23167e-15
4.28007e-16
1.74035e-16
8.52896e-17
3.00363e-17
-2.1164e-18
-1.07134e-17
-8.52277e-18
-4.74375e-18
-2.20424e-18
-9.1455e-19
-3.50611e-19
-1.26726e-19
-4.37459e-20
-1.45484e-20
-4.68884e-21
-1.47029e-21
-4.49676e-22
-1.34326e-22
-3.9215e-23
-1.11899e-23
-3.12039e-24
-8.50138e-25
-2.26235e-25
-6.79383e-26
-1.26125e-09
-1.6583e-08
-6.11774e-08
-8.57331e-08
-1.10465e-07
-2.59744e-07
-5.59601e-07
-6.92247e-07
-1.66756e-07
3.61692e-07
7.42099e-07
1.85756e-07
-2.67087e-07
-5.06534e-07
-2.80984e-07
-6.88443e-08
-4.19754e-09
1.248e-10
4.51929e-11
6.31243e-12
-5.47517e-14
-2.01208e-14
-3.88808e-15
1.81387e-14
1.06588e-14
2.28704e-15
3.96982e-16
1.55441e-16
1.20578e-16
4.88878e-17
-1.49029e-17
-2.80165e-17
-1.88192e-17
-9.25123e-18
-3.87318e-18
-1.46897e-18
-5.21035e-19
-1.76152e-19
-5.74752e-20
-1.82526e-20
-5.67402e-21
-1.73255e-21
-5.20491e-22
-1.53868e-22
-4.47214e-23
-1.27614e-23
-3.56939e-24
-9.7712e-25
-2.61469e-25
-7.90134e-26
-1.97104e-08
-8.51813e-08
-2.19283e-07
-3.08263e-07
-4.30939e-07
-1.14779e-06
-2.49758e-06
-2.57965e-06
-2.18038e-07
3.08291e-06
2.98659e-06
-8.98696e-07
-4.14906e-06
-2.68333e-06
-8.80666e-07
-1.11214e-07
7.30442e-10
2.54863e-10
5.81566e-11
7.27252e-12
-1.72927e-14
-2.96588e-14
2.85277e-13
1.50943e-13
2.97739e-14
2.05619e-15
-2.85933e-16
1.70936e-18
2.17093e-16
1.22111e-16
-4.44218e-17
-6.93534e-17
-3.93629e-17
-1.65503e-17
-6.03411e-18
-2.0246e-18
-6.44249e-19
-1.98138e-19
-5.97042e-20
-1.78087e-20
-5.29631e-21
-1.5763e-21
-4.69525e-22
-1.39545e-22
-4.11788e-23
-1.19997e-23
-3.43585e-24
-9.62822e-25
-2.63309e-25
-8.13091e-26
-5.88855e-08
-2.07131e-07
-4.60561e-07
-6.50109e-07
-9.67771e-07
-2.67697e-06
-5.77538e-06
-5.48475e-06
6.2289e-07
8.72648e-06
5.63389e-06
-1.81357e-05
-1.54823e-05
-6.3369e-06
-1.47691e-06
-7.69079e-08
1.86442e-10
1.68626e-10
8.79271e-11
1.71223e-11
-2.3253e-14
9.76485e-12
4.06431e-12
4.5566e-13
1.45401e-14
-5.2016e-15
-2.33844e-15
-2.80343e-16
6.67904e-16
4.34308e-16
-1.2078e-16
-1.78974e-16
-7.86027e-17
-2.58877e-17
-7.54167e-18
-2.03624e-18
-5.21495e-19
-1.29222e-19
-3.17815e-20
-8.04404e-21
-2.18205e-21
-6.48811e-22
-2.08558e-22
-6.97521e-23
-2.33824e-23
-7.66712e-24
-2.42856e-24
-7.39272e-25
-2.15993e-25
-7.06792e-26
-9.79884e-08
-3.05756e-07
-5.94841e-07
-8.4769e-07
-1.39013e-06
-3.84391e-06
-7.84795e-06
-7.01057e-06
1.14953e-05
1.47465e-05
-5.67926e-05
-8.73601e-05
-2.74952e-05
-7.55829e-06
-1.45694e-06
3.18499e-08
1.95557e-08
5.47152e-09
4.8487e-10
1.22751e-11
4.09392e-11
8.05996e-11
1.29102e-11
1.5588e-14
-5.31099e-14
-2.76881e-14
-5.4145e-15
1.44923e-15
6.49197e-15
1.86589e-15
-4.96746e-16
-5.4178e-16
-1.42257e-16
-2.88195e-17
-4.45306e-18
-2.11851e-19
2.0945e-19
1.22544e-19
4.79059e-20
1.57881e-20
4.64529e-21
1.23806e-21
2.96377e-22
6.13233e-23
9.65096e-24
4.18619e-25
-5.05269e-25
-2.9426e-25
-1.15641e-25
-4.56629e-26
-9.79416e-08
4.21904e-07
8.4318e-06
1.16464e-05
5.03142e-06
1.3435e-05
7.73143e-05
0.000209806
0.000151376
-0.000245794
-0.000694389
-0.000231576
0.000924016
0.00310389
0.00475179
0.00477675
0.0036466
0.00207588
0.000836018
0.00018828
2.81644e-06
1.70059e-10
-8.20786e-13
-4.27088e-13
-2.17041e-13
-5.67131e-14
1.52095e-14
1.07971e-13
4.06044e-14
4.76081e-15
-8.54519e-15
-2.05821e-15
-1.52888e-16
1.0689e-17
1.26906e-17
5.52104e-18
1.93181e-18
6.10566e-19
1.81264e-19
5.1379e-20
1.39946e-20
3.66688e-21
9.21856e-22
2.21048e-22
5.00497e-23
1.05193e-23
1.98625e-24
3.11247e-25
2.93051e-26
-6.60249e-27
1.79248e-05
6.65309e-05
0.000222166
0.00039079
0.000587304
0.00118383
0.00207673
0.00217245
0.000574711
-0.00202634
-0.00267801
0.00125319
0.0127819
0.0281011
0.0395367
0.0408463
0.0342359
0.0227858
0.0116746
0.00417471
0.000687763
4.45816e-11
3.06624e-12
-8.2231e-13
-3.73838e-13
5.53997e-13
1.43591e-12
5.93083e-13
8.95302e-14
-1.66336e-13
-5.54069e-14
-3.96874e-15
5.48451e-16
1.90938e-16
5.58822e-17
1.58252e-17
4.33596e-18
1.15743e-18
3.03612e-19
7.87863e-20
2.03033e-20
5.2009e-21
1.32183e-21
3.31919e-22
8.18761e-23
1.97169e-23
4.6081e-24
1.0402e-24
2.26075e-25
5.29895e-26
9.92993e-05
0.000316422
0.000898556
0.00164076
0.00283807
0.00549881
0.00829344
0.00737285
0.000878635
-0.00654966
-0.00613053
0.0105846
0.0461112
0.0906936
0.124533
0.129993
0.111891
0.0776798
0.0422261
0.0166119
0.00357156
5.50058e-05
2.40222e-10
4.3613e-12
1.49008e-11
1.76968e-11
7.43476e-12
1.23603e-12
-2.42275e-12
-1.02519e-12
-1.08645e-13
8.84684e-15
3.08675e-15
4.85656e-16
9.79179e-17
2.2054e-17
4.93822e-18
1.09196e-18
2.42885e-19
5.60945e-20
1.39122e-20
3.76069e-21
1.08937e-21
3.26122e-22
9.75199e-23
2.84927e-23
8.04495e-24
2.18701e-24
5.72737e-25
1.66673e-25
0.000269006
0.000817311
0.00218651
0.00406685
0.00739172
0.0140662
0.0200955
0.0165179
0.000623803
-0.0145858
-0.00951697
0.0308699
0.107553
0.200668
0.27242
0.286649
0.250513
0.177918
0.0996291
0.0409419
0.00971281
0.000304834
9.23359e-10
1.50351e-10
1.49115e-10
7.67507e-11
1.54971e-11
-3.45894e-11
-1.70196e-11
-2.20661e-12
1.17902e-13
5.82669e-14
7.95782e-15
2.642e-16
2.98787e-17
1.986e-18
-9.90907e-19
-5.78845e-19
-2.00441e-19
-5.34849e-20
-1.08198e-20
-1.10833e-21
3.60872e-22
3.00665e-22
1.36279e-22
5.00482e-23
1.62952e-23
4.87955e-24
1.37038e-24
4.22688e-25
0.000522535
0.00154908
0.00402086
0.00756033
0.014048
0.0264809
0.0367728
0.0286682
-0.00101365
-0.0255985
-0.0113498
0.0630184
0.194738
0.351623
0.47466
0.503586
0.445396
0.321674
0.183886
0.0777338
0.019544
0.000844516
7.13035e-10
7.16091e-10
4.90989e-10
1.49239e-10
-4.08528e-10
-2.53127e-10
-4.48059e-11
8.81491e-13
8.42574e-13
1.81723e-13
6.58907e-15
-5.67797e-16
-1.83708e-16
-5.17327e-17
-1.42695e-17
-3.76658e-18
-9.27214e-19
-2.05306e-19
-3.76944e-20
-4.11043e-21
7.5731e-22
7.2794e-22
3.30335e-22
1.20063e-22
3.86767e-23
1.14765e-23
3.19865e-24
9.78986e-25
0.000799768
0.00233961
0.00598047
0.0112855
0.021151
0.0396951
0.0542255
0.0405641
-0.00408392
-0.0374346
-0.011146
0.100823
0.290218
0.513477
0.692314
0.74113
0.662681
0.485348
0.282006
0.121748
0.0318766
0.00167449
1.94845e-09
1.80824e-09
9.52951e-10
-4.71787e-09
-3.61818e-09
-7.34499e-10
-2.10614e-11
1.05479e-11
3.23369e-12
2.33651e-13
-8.31093e-15
-2.36029e-15
-4.01517e-16
-9.3982e-17
-2.35498e-17
-5.60765e-18
-1.1979e-18
-2.05308e-19
-1.55043e-20
8.22537e-21
5.78902e-21
2.50996e-21
9.07546e-22
2.95011e-22
8.89044e-23
2.52396e-23
6.81684e-24
2.03189e-24
0.000992309
0.002895
0.00735579
0.0138225
0.0258529
0.048497
0.0658042
0.0476565
-0.00802395
-0.0469886
-0.0099886
0.131556
0.364506
0.638717
0.863889
0.93409
0.843878
0.62554
0.368297
0.161582
0.0435579
0.00260229
2.66117e-09
-8.44611e-09
-8.73533e-08
-5.97183e-08
-1.26656e-08
-5.71096e-10
1.22504e-10
4.48505e-11
4.03891e-12
-1.04897e-13
-3.75444e-14
-3.85051e-15
-2.15954e-16
-5.42207e-17
-1.22101e-17
-1.9331e-18
3.5876e-20
2.08679e-19
1.2088e-19
5.19364e-20
1.93573e-20
6.58124e-21
2.08778e-21
6.25617e-22
1.78447e-22
4.87097e-23
1.2777e-23
3.71395e-24
0.00100692
0.00295641
0.00752174
0.0139917
0.0259093
0.0487236
0.0663116
0.0472572
-0.0115217
-0.0512451
-0.00983517
0.141703
0.38975
0.684865
0.934171
1.02068
0.930329
0.696078
0.413801
0.183554
0.0504119
0.00325745
-9.88603e-07
-1.41194e-06
-8.55458e-07
-2.33291e-07
-1.54293e-08
1.16128e-09
5.56243e-10
8.01076e-11
-8.82015e-13
-4.31221e-13
-8.42766e-14
-1.6166e-15
1.71522e-16
6.60096e-17
2.33346e-17
8.4597e-18
3.09808e-18
1.11662e-18
3.89812e-19
1.30883e-19
4.21743e-20
1.30431e-20
3.87529e-21
1.10767e-21
3.05046e-22
8.1074e-23
2.08315e-23
5.94645e-24
0.000763136
0.0023096
0.00598617
0.0107627
0.0190452
0.0362597
0.0509712
0.0360151
-0.0129719
-0.0484714
-0.0133339
0.121126
0.348322
0.628825
0.876315
0.973855
0.897505
0.677257
0.405216
0.180738
0.0499976
0.00330715
-8.51411e-06
-7.14616e-06
-2.91994e-06
-4.44581e-07
7.69281e-09
5.03882e-09
1.35287e-09
6.62743e-11
-3.21591e-12
-1.30395e-12
-1.24755e-13
2.2493e-15
7.88742e-16
2.19575e-16
6.6609e-17
2.11105e-17
6.82377e-18
2.21389e-18
7.11068e-19
2.23822e-19
6.86113e-20
2.04118e-20
5.88341e-21
1.64205e-21
4.43812e-22
1.16231e-22
2.95231e-23
8.34481e-24
0.000327875
0.00109741
0.00306421
0.0050247
0.00754216
0.0151141
0.024242
0.0182804
-0.0106547
-0.03671
-0.0202845
0.0675019
0.235662
0.460914
0.671459
0.763232
0.710302
0.538336
0.322322
0.143285
0.0391907
0.00245495
-2.89127e-05
-2.04368e-05
-6.1209e-06
-4.16872e-07
3.05845e-08
1.4451e-08
2.1002e-09
-2.8862e-11
-1.54516e-11
-2.65936e-12
2.18464e-14
9.51746e-15
1.56244e-15
3.04765e-16
8.86061e-17
2.78758e-17
8.98113e-18
2.90015e-18
9.24936e-19
2.88651e-19
8.76874e-20
2.58621e-20
7.39713e-21
2.05124e-21
5.51611e-22
1.4394e-22
3.64806e-23
1.03033e-23
-7.2314e-05
-7.29209e-05
0.000177527
-0.000326035
-0.00265697
-0.00399142
-0.000809912
0.0021176
-0.00437794
-0.0200264
-0.0259494
0.00610843
0.100712
0.250758
0.401113
0.471434
0.441468
0.33236
0.195877
0.0846834
0.0217656
0.000970141
-7.70738e-05
-3.86994e-05
-7.61088e-06
1.23354e-07
1.13602e-07
2.6587e-08
7.01734e-10
-1.34848e-10
-3.88162e-11
-2.64732e-12
9.38083e-14
2.35182e-14
1.69794e-15
1.83988e-16
6.34043e-17
2.23221e-17
7.82179e-18
2.68628e-18
8.94889e-19
2.87909e-19
8.93641e-20
2.67733e-20
7.75051e-21
2.1706e-21
5.88844e-22
1.54942e-22
3.96002e-23
1.12983e-23
-0.000256187
-0.000684909
-0.00146015
-0.00295859
-0.00700575
-0.012816
-0.0137828
-0.00605592
0.00231616
-0.0040431
-0.025613
-0.0354528
-0.00382069
0.0726426
0.157213
0.197922
0.184722
0.133801
0.0735839
0.0281347
0.00521346
-0.000404858
-0.000171271
-3.9877e-05
-2.0052e-06
7.48192e-07
2.5856e-07
2.60196e-08
-1.65683e-09
-4.94776e-10
-3.79952e-11
1.50951e-12
3.95903e-13
2.52964e-14
-3.2128e-16
-5.76263e-17
7.60122e-19
6.17789e-18
3.65689e-18
1.60997e-18
6.18817e-19
2.18273e-19
7.22243e-20
2.26869e-20
6.8148e-21
1.96732e-21
5.47801e-22
1.47556e-22
3.85435e-23
1.12626e-23
-0.000210047
-0.000659944
-0.00154639
-0.00270469
-0.00536931
-0.0106723
-0.0133525
-0.00637953
0.00594503
0.0057773
-0.0162529
-0.0443135
-0.0499397
-0.0300024
-0.00126088
0.0122127
0.00907345
-0.000786959
-0.00766085
-0.00816916
-0.00460771
-0.00128997
-0.000166681
9.21996e-07
5.40306e-06
2.11306e-06
2.43085e-07
-1.57846e-08
-5.28095e-09
-4.97029e-10
1.70213e-11
5.10085e-12
3.94351e-13
-6.02021e-15
-1.44281e-15
-2.49946e-16
-5.04519e-17
-8.92322e-18
-7.96799e-19
3.2383e-19
2.57472e-19
1.19872e-19
4.63298e-20
1.61209e-20
5.21626e-21
1.59561e-21
4.65952e-22
1.30742e-22
3.54139e-23
1.0745e-23
-3.85195e-05
-0.000221544
-0.000672446
-0.000785192
-0.000790179
-0.00242888
-0.00467675
-0.00241714
0.00543472
0.00844831
-0.00269854
-0.0255743
-0.0468171
-0.0581866
-0.064115
-0.0675361
-0.0651206
-0.0544425
-0.0372545
-0.0194891
-0.00691821
-0.00133503
2.43909e-05
2.39057e-05
1.01166e-05
1.71383e-06
-7.76703e-08
-3.24492e-08
-5.26335e-09
1.28989e-10
4.98279e-11
7.03038e-12
-7.00537e-14
-2.23349e-14
-2.46438e-15
-2.66566e-16
-6.18934e-17
-1.41761e-17
-2.81989e-18
-3.78266e-19
3.35564e-20
5.3481e-20
2.78866e-20
1.13016e-20
4.03202e-21
1.32357e-21
4.08392e-22
1.199e-22
3.37559e-23
1.06416e-23
7.76619e-05
0.000151705
0.000177595
0.000601522
0.0020476
0.00340245
0.00262078
0.000714307
0.0016287
0.00567653
0.00696651
-0.000654653
-0.0182351
-0.041113
-0.0608042
-0.0683187
-0.0639554
-0.0492638
-0.0301106
-0.0138311
-0.00427343
-0.000425785
4.6844e-05
2.66034e-05
6.29593e-06
-1.59873e-08
-6.38595e-08
-2.60693e-08
-2.2953e-09
2.48607e-10
8.05729e-11
6.88849e-12
-2.64658e-13
-6.28061e-14
-2.93182e-15
-1.40242e-17
-1.19332e-17
-4.30242e-18
-9.5522e-19
-5.32835e-20
8.31389e-20
5.95709e-20
2.84253e-20
1.13754e-20
4.08653e-21
1.35896e-21
4.25514e-22
1.26785e-22
3.62019e-23
1.15841e-23
7.45117e-05
0.000218326
0.000382004
0.000607604
0.001711
0.00362398
0.00380758
0.000952389
-0.00162115
0.00124424
0.00840973
0.0110143
0.00378439
-0.0111383
-0.0242006
-0.0279513
-0.0237825
-0.0155024
-0.00748802
-0.00243867
-0.000222135
0.000194764
5.85098e-05
5.27156e-06
-2.24819e-06
-5.89326e-07
-7.60219e-08
-6.13939e-09
2.06024e-09
6.42523e-10
5.60307e-11
-3.80213e-12
-9.63962e-13
-4.2489e-14
1.13949e-15
2.52133e-16
5.33578e-17
1.2431e-17
3.25949e-18
1.00333e-18
3.50394e-19
1.28167e-19
4.62999e-20
1.60922e-20
5.34166e-21
1.69402e-21
5.14742e-22
1.50354e-22
4.23448e-23
1.33974e-23
1.85361e-06
7.00806e-05
9.67261e-05
-0.000197893
-0.000321008
0.000451884
0.000943735
-0.000461471
-0.00233332
-0.00111802
0.00363599
0.00772639
0.00810604
0.00733918
0.0091626
0.0123437
0.0143042
0.0131337
0.00924159
0.00486718
0.00172536
0.000275391
-3.08914e-05
-1.95399e-05
-5.65009e-06
-5.87726e-07
4.68341e-08
2.20401e-08
3.73876e-09
2.50322e-11
-3.48207e-11
-8.9267e-12
-4.44697e-13
2.21093e-14
4.2492e-15
3.92982e-16
7.87912e-17
2.05362e-17
5.90078e-18
1.83532e-18
6.01969e-19
2.01503e-19
6.7022e-20
2.17917e-20
6.87143e-21
2.09511e-21
6.17442e-22
1.76008e-22
4.85851e-23
1.50759e-23
-4.24626e-05
-7.00995e-05
-0.000204725
-0.000703591
-0.00143464
-0.00174001
-0.00159968
-0.00131668
-0.00100057
-0.000799247
-0.00119209
-0.00144793
0.00157778
0.0101592
0.0213897
0.0287946
0.0283898
0.0218755
0.0128639
0.00547888
0.00139404
1.54669e-05
-5.22086e-05
-2.70181e-05
-5.86333e-06
3.70483e-08
9.58886e-08
2.93244e-08
8.53124e-10
-2.81045e-10
-8.50982e-11
-3.64183e-12
2.97909e-13
7.20855e-14
3.34204e-15
3.94373e-17
2.68111e-17
1.21987e-17
4.78396e-18
1.77697e-18
6.38408e-19
2.21963e-19
7.44979e-20
2.41043e-20
7.5184e-21
2.26257e-21
6.57731e-22
1.84941e-22
5.0362e-23
1.53855e-23
-3.27175e-05
-7.93757e-05
-0.000235468
-0.00057103
-0.0010244
-0.00149904
-0.0016748
-0.00102973
0.000380284
0.000568079
-0.00213774
-0.00553916
-0.00433157
0.00395467
0.015219
0.0215794
0.0204968
0.0143878
0.00730071
0.00236937
0.00019386
-0.000148149
-8.03747e-05
-1.96515e-05
-6.3154e-07
3.11143e-07
1.28443e-07
1.401e-08
-1.90081e-09
-6.35794e-10
-5.59059e-11
3.00788e-12
8.13501e-13
4.64287e-14
-7.96126e-16
-1.66459e-16
-2.75763e-17
-1.97087e-18
1.32003e-18
9.59767e-19
4.46779e-19
1.76246e-19
6.32129e-20
2.11965e-20
6.73653e-21
2.04492e-21
5.95785e-22
1.6715e-22
4.52666e-23
1.3695e-23
-3.22547e-06
-1.75632e-05
-9.93092e-05
-0.000185839
-0.000166956
-0.000203499
-0.000447544
-0.00037745
0.000526227
0.00111082
-0.000365762
-0.00331522
-0.00439629
-0.00201527
0.00222882
0.00458483
0.00412076
0.00215058
0.000309785
-0.000499435
-0.000399285
-0.000177037
-3.65379e-05
2.67235e-06
1.68047e-06
5.94512e-07
7.31832e-08
-1.34169e-08
-4.75634e-09
-4.66989e-10
2.86011e-11
7.83957e-12
4.68158e-13
-1.3771e-14
-2.58384e-15
-3.01735e-16
-5.83095e-17
-1.12442e-17
-1.53908e-18
9.24997e-20
1.88775e-19
1.00602e-19
4.12687e-20
1.48873e-20
4.9387e-21
1.53764e-21
4.54247e-22
1.28169e-22
3.46901e-23
1.04193e-23
6.42283e-06
1.66112e-05
3.92263e-06
-1.06795e-05
0.000101539
0.000296992
0.000251654
-6.35575e-05
-6.52773e-05
0.000508605
0.000985058
0.000500149
-0.00107171
-0.00301526
-0.00466114
-0.00535703
-0.00506251
-0.00395626
-0.00246553
-0.00114187
-0.000367094
-4.73987e-05
1.67998e-05
7.48055e-06
2.10894e-06
2.49084e-07
-6.23459e-08
-2.29246e-08
-2.48175e-09
2.03178e-10
5.60428e-11
3.29065e-12
-1.46505e-13
-3.17893e-14
-1.5562e-15
-1.00007e-16
-3.5135e-17
-9.44781e-18
-2.00139e-18
-2.63432e-19
3.3949e-20
4.38571e-20
2.22086e-20
8.83192e-21
3.09182e-21
9.92539e-22
2.97871e-22
8.44607e-23
2.27725e-23
6.74202e-24
-1.41627e-06
6.17202e-06
1.22511e-05
-2.87879e-05
-6.51347e-05
2.26679e-05
0.000115255
-4.97925e-05
-0.000379195
-0.000263499
0.00065163
0.00155923
0.00120393
-0.000808294
-0.00339475
-0.00471168
-0.00436182
-0.00295946
-0.00141272
-0.000402358
-1.50881e-05
4.38565e-05
1.9325e-05
4.63864e-06
5.10468e-07
-2.13684e-07
-8.28446e-08
-8.96235e-09
1.13424e-09
3.34022e-10
2.02949e-11
-1.19842e-12
-2.83482e-13
-1.03799e-14
1.68707e-16
2.47054e-17
-4.7606e-19
-1.5371e-18
-4.89498e-19
-4.99074e-20
3.58507e-20
2.90221e-20
1.41105e-20
5.59241e-21
1.9579e-21
6.26122e-22
1.86019e-22
5.18283e-23
1.36137e-23
3.85889e-24
-5.21597e-06
-8.50672e-06
-6.10558e-06
-3.27523e-05
-0.00012245
-0.000188282
-0.000108056
-1.14152e-05
-0.000148012
-0.00038312
-0.000232675
0.000442316
0.00104128
0.000991053
0.000527524
0.00015444
0.000149896
0.000304535
0.000379101
0.000284922
0.000140548
4.45843e-05
6.97936e-06
-1.27146e-06
-7.40456e-07
-2.20777e-07
-2.19101e-08
4.38791e-09
1.48586e-09
1.12422e-10
-8.82934e-12
-2.345e-12
-1.02866e-13
3.20114e-15
6.41401e-16
1.15103e-16
2.41094e-17
5.34023e-18
1.31501e-18
3.83048e-19
1.2851e-19
4.55234e-20
1.59104e-20
5.31283e-21
1.67565e-21
4.97625e-22
1.39063e-22
3.65427e-23
9.00916e-24
2.33443e-24
-4.48427e-07
-4.78663e-06
-3.86141e-06
1.76941e-05
1.11947e-05
-4.84408e-05
-5.72133e-05
5.91157e-05
0.000137086
-4.93556e-05
-0.000400552
-0.00049051
-4.85398e-05
0.000834232
0.00166832
0.00202431
0.00186794
0.00136069
0.000756823
0.000306976
7.74254e-05
3.70148e-06
-7.59064e-06
-3.66179e-06
-7.24382e-07
4.45035e-08
1.99718e-08
4.1937e-09
3.20812e-10
-5.18639e-11
-1.63202e-11
-1.18808e-12
4.24198e-14
8.99356e-15
6.7389e-16
1.1617e-16
3.02663e-17
8.24241e-18
2.34593e-18
7.00874e-19
2.17251e-19
6.82938e-20
2.12716e-20
6.44922e-21
1.8811e-21
5.23894e-22
1.38568e-22
3.46291e-23
8.12182e-24
1.97372e-24
3.01716e-06
3.57206e-06
6.68596e-06
3.55622e-05
8.67848e-05
9.91424e-05
5.7759e-05
5.25959e-05
0.000129043
0.000157996
-2.71592e-05
-0.0003448
-0.000430438
-0.000122527
0.000388488
0.000690164
0.000647665
0.000397731
0.000145339
4.89787e-06
-3.33223e-05
-1.88943e-05
-6.17318e-06
-9.00344e-07
2.99313e-07
1.13076e-07
1.55637e-08
-9.8479e-10
-3.3215e-10
-6.25406e-11
-4.8243e-12
3.95922e-13
9.65558e-14
5.44794e-15
1.48018e-17
2.52703e-17
1.35331e-17
5.46903e-18
1.98914e-18
6.9011e-19
2.32076e-19
7.56514e-20
2.37947e-20
7.18673e-21
2.07644e-21
5.72235e-22
1.50021e-22
3.72999e-23
8.75507e-24
2.15677e-24
1.09996e-06
3.62679e-06
3.72211e-06
2.82758e-06
2.21267e-05
5.35143e-05
4.20085e-05
-1.80307e-05
-2.35494e-05
7.79638e-05
0.000169682
0.00010216
-0.000129817
-0.000394075
-0.000563927
-0.0005923
-0.000536092
-0.000411944
-0.000260583
-0.000130301
-4.59055e-05
-8.55511e-06
1.21158e-06
9.79922e-07
3.70069e-07
5.8102e-08
-6.76088e-09
-2.48885e-09
-3.27265e-10
2.16196e-11
6.34978e-12
5.40811e-13
-1.16488e-14
-1.94924e-15
-2.01256e-16
-2.95915e-17
-2.25077e-18
1.25714e-18
9.5202e-19
4.49872e-19
1.78904e-19
6.42873e-20
2.14355e-20
6.71207e-21
1.98586e-21
5.56981e-22
1.48333e-22
3.75215e-23
9.00515e-24
2.30501e-24
-1.09274e-06
-9.60387e-07
-3.09473e-06
-1.8018e-05
-3.72457e-05
-3.53817e-05
-2.12991e-05
-3.18318e-05
-6.05006e-05
-4.27606e-05
5.66331e-05
0.000154337
0.000124894
-5.93525e-05
-0.000293648
-0.000417533
-0.000388058
-0.000266223
-0.000132954
-4.23403e-05
-3.92685e-06
4.2009e-06
1.80926e-06
3.92524e-07
2.51577e-08
-2.32856e-08
-7.68599e-09
-1.13844e-09
1.19738e-10
3.98322e-11
5.25292e-12
-1.92574e-13
-4.949e-14
-3.24359e-15
-4.13098e-17
-1.62295e-17
-3.68237e-18
-1.06552e-19
3.86473e-19
2.58247e-19
1.19876e-19
4.7102e-20
1.6628e-20
5.41337e-21
1.64776e-21
4.72724e-22
1.28455e-22
3.31584e-23
8.14223e-24
2.15517e-24
-7.79338e-07
-1.81865e-06
-2.53044e-06
-5.81594e-06
-1.83059e-05
-3.0591e-05
-2.24713e-05
-1.04767e-06
-4.47546e-06
-4.04935e-05
-5.58833e-05
-8.18327e-06
7.94006e-05
0.000141506
0.000152632
0.000140797
0.000123778
0.000100994
7.07872e-05
4.00498e-05
1.65656e-05
4.17832e-06
2.67075e-07
-2.71658e-07
-1.34615e-07
-2.58399e-08
2.45005e-10
6.17976e-10
1.70147e-10
6.90516e-12
-1.33326e-12
-2.86809e-13
-4.98982e-15
4.2345e-16
7.36955e-17
1.1627e-17
2.0315e-18
6.87075e-19
3.69918e-19
1.90136e-19
8.48797e-20
3.35323e-20
1.20125e-20
3.97186e-21
1.22676e-21
3.56848e-22
9.83139e-23
2.57527e-23
6.42958e-24
1.74204e-24
3.17291e-07
1.11793e-07
1.00624e-06
6.60039e-06
1.23692e-05
9.75242e-06
5.70322e-06
1.32556e-05
2.28685e-05
8.41677e-06
-3.16288e-05
-5.6102e-05
-2.9787e-05
4.62562e-05
0.000131225
0.000168193
0.000156089
0.000112435
6.24865e-05
2.4839e-05
5.76173e-06
-1.76465e-07
-5.6341e-07
-2.7929e-07
-6.2214e-08
5.19262e-09
2.67702e-09
5.23938e-10
-4.4099e-11
-1.65835e-11
-1.59812e-12
6.32323e-14
1.46643e-14
9.45282e-16
9.9612e-17
2.13011e-17
4.71982e-18
1.23936e-18
4.17472e-19
1.6223e-19
6.36882e-20
2.37665e-20
8.30163e-21
2.71611e-21
8.36333e-22
2.43575e-22
6.73834e-23
1.77658e-23
4.47498e-24
1.22906e-24
3.40777e-07
7.23009e-07
1.10363e-06
3.10298e-06
8.38718e-06
1.21689e-05
8.79946e-06
2.39078e-06
4.54765e-06
1.49924e-05
1.56014e-05
-3.82827e-06
-3.0951e-05
-4.37083e-05
-3.92406e-05
-2.97232e-05
-2.44751e-05
-2.11057e-05
-1.65324e-05
-1.05471e-05
-5.21355e-06
-1.60915e-06
-1.99049e-07
8.57726e-08
4.46279e-08
9.12263e-09
1.66941e-10
-1.96511e-10
-5.3255e-11
-1.73162e-12
3.49084e-13
7.52345e-14
2.70916e-15
-2.52863e-17
6.45151e-18
4.3887e-18
1.67982e-18
6.27554e-19
2.52389e-19
1.03466e-19
4.07496e-20
1.50539e-20
5.19954e-21
1.68574e-21
5.1578e-22
1.49664e-22
4.13519e-23
1.09132e-23
2.75746e-24
7.62179e-25
-8.95454e-08
1.01808e-08
-2.82092e-07
-2.06474e-06
-3.63865e-06
-2.46247e-06
-1.39014e-06
-4.44803e-06
-7.21074e-06
-1.28678e-06
1.18768e-05
1.76134e-05
6.45155e-06
-1.90417e-05
-4.44852e-05
-5.52072e-05
-5.11247e-05
-3.76297e-05
-2.19245e-05
-9.75993e-06
-2.66536e-06
-1.6107e-07
2.01623e-07
9.91986e-08
1.87344e-08
-2.9778e-09
-1.33712e-09
-1.94581e-10
1.52767e-11
4.64362e-12
3.98831e-13
-1.4297e-14
-2.58091e-15
-2.56008e-16
-4.72758e-17
-1.04185e-17
-2.29609e-18
-4.27427e-19
-3.65766e-20
1.92922e-20
1.47645e-20
6.79062e-21
2.57668e-21
8.72992e-22
2.7288e-22
8.00305e-23
2.22376e-23
5.88972e-24
1.49269e-24
4.14239e-25
-1.08374e-07
-2.21918e-07
-3.57659e-07
-1.08228e-06
-2.72593e-06
-3.79758e-06
-2.74263e-06
-1.04692e-06
-1.83316e-06
-4.44258e-06
-4.0096e-06
1.93495e-06
9.40694e-06
1.23051e-05
1.01232e-05
6.74472e-06
5.0011e-06
4.286e-06
3.60568e-06
2.52627e-06
1.35587e-06
4.47323e-07
6.25604e-08
-1.7844e-08
-9.50779e-09
-2.13679e-09
-7.47593e-11
5.3637e-11
1.59114e-11
8.15939e-13
-1.15887e-13
-2.65112e-14
-1.23076e-15
-1.00379e-16
-3.6386e-17
-1.16169e-17
-3.41781e-18
-9.05928e-19
-2.07935e-19
-3.80115e-20
-3.78184e-21
9.19954e-22
7.60481e-22
3.26339e-22
1.1354e-22
3.52017e-23
1.00879e-23
2.72037e-24
6.97145e-25
1.95064e-25
2.096e-08
-3.60493e-09
6.99831e-08
5.52773e-07
9.33993e-07
6.2058e-07
3.86774e-07
1.21736e-06
1.88023e-06
2.05668e-07
-3.13562e-06
-4.37646e-06
-1.44571e-06
4.98774e-06
1.14654e-05
1.42573e-05
1.32659e-05
9.86617e-06
5.83602e-06
2.64764e-06
7.89938e-07
8.90087e-08
-3.99292e-08
-1.77464e-08
-2.76537e-09
4.33488e-10
1.55695e-10
3.02893e-11
3.46617e-12
-5.70072e-13
-1.88399e-13
-2.22932e-14
3.29616e-16
7.03883e-17
6.52343e-18
-2.27519e-18
-1.59965e-18
-6.05726e-19
-1.7747e-19
-4.31355e-20
-8.6324e-21
-1.26261e-21
-3.80953e-23
6.41059e-23
3.34976e-23
1.21268e-23
3.7528e-24
1.05607e-24
2.77554e-25
7.89981e-26
2.20509e-08
4.44437e-08
7.7298e-08
2.26947e-07
5.8123e-07
7.91262e-07
5.61869e-07
2.19528e-07
3.78443e-07
9.15222e-07
8.32524e-07
-4.06092e-07
-1.93248e-06