/*--------------------------------*- C++ -*----------------------------------*\
| =========                 |                                                 |
| \\      /  F ield         | OpenFOAM: The Open Source CFD Toolbox           |
|  \\    /   O peration     | Version:  v2006                                 |
|   \\  /    A nd           | Website:  www.openfoam.com                      |
|    \\/     M anipulation  |                                                 |
\*---------------------------------------------------------------------------*/
FoamFile
{
    version     2.0;
    format      ascii;
    class       surfaceScalarField;
    location    "5.7";
    object      alphaPhi0.water;
}
// * * * * * * * * * * * * * * * * * * * * * * * * * * * * * * * * * * * * * //

dimensions      [0 3 -1 0 0 0 0];
oriented        oriented;


internalField   nonuniform List<scalar> 
99450
(
8.14704e-06
-8.14704e-06
3.20051e-05
-2.38581e-05
5.12556e-05
-1.92504e-05
6.92303e-05
-1.79748e-05
8.61808e-05
-1.69504e-05
0.000103618
-1.7437e-05
0.000120832
-1.72143e-05
0.000138134
-1.73022e-05
0.000155385
-1.72505e-05
0.000172597
-1.72118e-05
0.000189801
-1.72046e-05
0.000206984
-1.71825e-05
0.000224147
-1.71634e-05
0.000241287
-1.71395e-05
0.000258388
-1.71017e-05
0.000275441
-1.70531e-05
0.000292431
-1.699e-05
0.000309342
-1.69105e-05
0.000326158
-1.68167e-05
0.000342866
-1.6708e-05
0.00035945
-1.65833e-05
0.000375892
-1.6442e-05
0.000392176
-1.62839e-05
0.000408286
-1.61102e-05
0.000424209
-1.59232e-05
0.000439936
-1.57265e-05
0.000455456
-1.55205e-05
0.00047076
-1.53039e-05
0.000485838
-1.50777e-05
0.000500681
-1.48436e-05
0.000515285
-1.46035e-05
0.000529644
-1.43597e-05
0.00054376
-1.41152e-05
0.000557633
-1.38732e-05
0.000571269
-1.36363e-05
0.000584677
-1.34077e-05
0.000597865
-1.31886e-05
0.000610843
-1.29772e-05
0.000623613
-1.27708e-05
0.000636177
-1.25632e-05
0.000648518
-1.23414e-05
0.000660602
-1.20841e-05
0.000672371
-1.17685e-05
0.000683753
-1.13827e-05
0.000694688
-1.09344e-05
0.000705154
-1.04663e-05
0.000715219
-1.00649e-05
0.000725045
-9.82572e-06
0.000734848
-9.80299e-06
0.000744825
-9.97745e-06
0.000755084
-1.0259e-05
0.000765616
-1.0532e-05
0.000776334
-1.07183e-05
0.000787139
-1.08049e-05
0.000797959
-1.08201e-05
0.000808755
-1.07959e-05
0.000819505
-1.07501e-05
0.000830193
-1.06878e-05
0.000840803
-1.06095e-05
0.000851319
-1.0516e-05
0.000861724
-1.04051e-05
0.000872
-1.02767e-05
0.000882131
-1.01308e-05
0.000892097
-9.9659e-06
0.00090188
-9.78327e-06
0.000911462
-9.58108e-06
0.000920819
-9.35753e-06
0.000929929
-9.11001e-06
0.000938769
-8.83996e-06
0.000947318
-8.54944e-06
0.00095555
-8.23198e-06
0.000963444
-7.89355e-06
0.00097098
-7.53591e-06
0.000978126
-7.14648e-06
0.000984869
-6.74309e-06
0.00099117
-6.3002e-06
0.000996998
-5.82849e-06
0.00100231
-5.31006e-06
0.00100705
-4.7383e-06
0.00101116
-4.11551e-06
0.0010146
-3.43538e-06
0.00101729
-2.68938e-06
0.00101917
-1.88673e-06
0.00102021
-1.03308e-06
0.00102033
-1.19337e-07
0.00101957
7.5132e-07
0.00101783
1.74824e-06
0.00101505
2.77711e-06
0.00101121
3.8403e-06
0.00100627
4.94167e-06
0.00100019
6.08153e-06
0.000992924
7.26199e-06
0.000984447
8.47726e-06
0.00097472
9.72684e-06
0.000963705
1.10151e-05
0.000951356
1.23487e-05
0.000937622
1.3734e-05
0.000922459
1.51633e-05
0.000905903
1.65555e-05
0.000888129
1.7774e-05
0.000869452
1.8677e-05
0.000850231
1.92209e-05
0.000830777
1.94544e-05
0.000811268
1.95083e-05
0.000791784
1.94846e-05
0.00077235
1.94336e-05
0.000752988
1.93624e-05
0.000733714
1.92741e-05
0.000714539
1.91748e-05
0.000695486
1.90533e-05
0.000676581
1.89043e-05
0.000657872
1.8709e-05
0.000639402
1.84705e-05
0.000621219
1.8183e-05
0.000603363
1.78563e-05
0.000585871
1.74921e-05
0.000568758
1.71128e-05
0.000552023
1.6735e-05
0.000535637
1.63858e-05
0.000519548
1.60886e-05
0.000503698
1.585e-05
0.000488005
1.56929e-05
0.000472402
1.56035e-05
0.000456836
1.55663e-05
0.000441257
1.55783e-05
0.000425621
1.56359e-05
0.000409893
1.57286e-05
0.000394029
1.58636e-05
0.000378003
1.60265e-05
0.0003618
1.62027e-05
0.00034541
1.63905e-05
0.00032881
1.65998e-05
0.000311996
1.68135e-05
0.000294967
1.70292e-05
0.000277714
1.72528e-05
0.000260229
1.74855e-05
0.000242513
1.77155e-05
0.00022458
1.79334e-05
0.000206405
1.81753e-05
0.000188114
1.82909e-05
0.000169515
1.85983e-05
0.00015102
1.84949e-05
0.000132282
1.8738e-05
0.00011371
1.85722e-05
9.50436e-05
1.86665e-05
7.66088e-05
1.84348e-05
5.87594e-05
1.78494e-05
4.19516e-05
1.68078e-05
2.38817e-05
1.80699e-05
2.38817e-05
2.46637e-06
-1.06134e-05
1.39746e-05
-3.53664e-05
2.39279e-05
-2.92037e-05
3.10113e-05
-2.50582e-05
3.84619e-05
-2.4401e-05
4.58364e-05
-2.48115e-05
5.36894e-05
-2.50673e-05
6.16578e-05
-2.52705e-05
6.98844e-05
-2.54772e-05
7.83316e-05
-2.5659e-05
8.70296e-05
-2.59025e-05
9.6003e-05
-2.6156e-05
0.000105261
-2.64213e-05
0.000114826
-2.67046e-05
0.000124719
-2.69948e-05
0.000134953
-2.72869e-05
0.000145542
-2.75789e-05
0.0001565
-2.78685e-05
0.000167835
-2.81514e-05
0.00017955
-2.8423e-05
0.000191647
-2.86807e-05
0.000204127
-2.89214e-05
0.000216986
-2.91437e-05
0.000230224
-2.9348e-05
0.000243832
-2.95315e-05
0.000257801
-2.96954e-05
0.000272117
-2.98365e-05
0.000286774
-2.99601e-05
0.000301762
-3.00657e-05
0.000317069
-3.0151e-05
0.000332681
-3.02153e-05
0.000348582
-3.02605e-05
0.000364755
-3.02889e-05
0.000381184
-3.03018e-05
0.000397847
-3.02997e-05
0.000414723
-3.02831e-05
0.000431788
-3.0254e-05
0.000449027
-3.0216e-05
0.000466427
-3.01703e-05
0.000483978
-3.01147e-05
0.000501684
-3.00475e-05
0.000519567
-2.99671e-05
0.000537668
-2.98693e-05
0.000556034
-2.97489e-05
0.0005747
-2.96009e-05
0.000593655
-2.94204e-05
0.000612796
-2.92062e-05
0.000631932
-2.89616e-05
0.000650821
-2.86921e-05
0.000669245
-2.8402e-05
0.000687079
-2.80926e-05
0.000704307
-2.77599e-05
0.000720985
-2.73961e-05
0.000737176
-2.69958e-05
0.000752914
-2.65581e-05
0.000768203
-2.6085e-05
0.000783031
-2.55782e-05
0.000797383
-2.50395e-05
0.000811245
-2.44723e-05
0.000824606
-2.38768e-05
0.000837455
-2.32541e-05
0.000849786
-2.26077e-05
0.000861593
-2.19376e-05
0.000872871
-2.12444e-05
0.000883615
-2.05266e-05
0.000893819
-1.97854e-05
0.000903486
-1.90245e-05
0.000912618
-1.8242e-05
0.000921222
-1.7444e-05
0.000929298
-1.6625e-05
0.000936848
-1.57819e-05
0.000943873
-1.49193e-05
0.000950376
-1.40388e-05
0.000956379
-1.31489e-05
0.000961868
-1.22326e-05
0.000966884
-1.13157e-05
0.000971434
-1.0379e-05
0.000975558
-9.43449e-06
0.000979269
-8.44919e-06
0.000982613
-7.45934e-06
0.000985594
-6.41619e-06
0.000988264
-5.35931e-06
0.00099063
-4.25259e-06
0.000992698
-3.10149e-06
0.00099452
-1.94118e-06
0.000996038
-7.6649e-07
0.000997216
5.7052e-07
0.000998139
1.85348e-06
0.000998811
3.16887e-06
0.000999232
4.52074e-06
0.00099941
5.90279e-06
0.00099936
7.31279e-06
0.000999089
8.74742e-06
0.000998619
1.01977e-05
0.00099797
1.16632e-05
0.000997189
1.31305e-05
0.000996329
1.45935e-05
0.00099547
1.60225e-05
0.000994663
1.73622e-05
0.000993904
1.85336e-05
0.000993101
1.94801e-05
0.000992136
2.01851e-05
0.000990895
2.06954e-05
0.000989313
2.10908e-05
0.00098735
2.14475e-05
0.000984999
2.17844e-05
0.000982229
2.21325e-05
0.000978996
2.25068e-05
0.000975266
2.2905e-05
0.000971006
2.3314e-05
0.00096617
2.37398e-05
0.000960705
2.41741e-05
0.00095454
2.46359e-05
0.000947584
2.51387e-05
0.000939756
2.56838e-05
0.000930944
2.63041e-05
0.000921048
2.70094e-05
0.000909981
2.78013e-05
0.00089768
2.8687e-05
0.000884103
2.96662e-05
0.000869237
3.07154e-05
0.000853092
3.18381e-05
0.000835688
3.30077e-05
0.00081704
3.42145e-05
0.000797161
3.5457e-05
0.000776066
3.67311e-05
0.000753766
3.80281e-05
0.000730286
3.93436e-05
0.000705659
4.06541e-05
0.00067992
4.1941e-05
0.000653097
4.32138e-05
0.000625242
4.44547e-05
0.000596387
4.56686e-05
0.000566566
4.68506e-05
0.000535826
4.79924e-05
0.000504213
4.90989e-05
0.000471783
5.01452e-05
0.000438568
5.11481e-05
0.000404676
5.20681e-05
0.000370045
5.29214e-05
0.000334893
5.37503e-05
0.000299056
5.4332e-05
0.000262627
5.51674e-05
0.000225736
5.54628e-05
0.000188034
5.63688e-05
0.000149758
5.67108e-05
0.000110546
5.70611e-05
7.32911e-05
5.40629e-05
4.20467e-05
4.93143e-05
6.59284e-05
4.29206e-06
-1.49055e-05
1.99428e-05
-5.10171e-05
3.33257e-05
-4.25866e-05
4.3861e-05
-3.55935e-05
5.42108e-05
-3.47508e-05
6.46524e-05
-3.52532e-05
7.54345e-05
-3.58494e-05
8.6348e-05
-3.6184e-05
9.73997e-05
-3.65289e-05
0.000108623
-3.68825e-05
0.000119997
-3.72768e-05
0.000131549
-3.77079e-05
0.000143286
-3.81578e-05
0.000155211
-3.86297e-05
0.000167336
-3.91199e-05
0.000179671
-3.96215e-05
0.000192224
-4.01325e-05
0.000205
-4.06447e-05
0.000218002
-4.11533e-05
0.000231236
-4.16564e-05
0.000244701
-4.21459e-05
0.0002584
-4.26201e-05
0.000272334
-4.30778e-05
0.000286498
-4.35121e-05
0.000300886
-4.39198e-05
0.000315494
-4.4303e-05
0.000330317
-4.46603e-05
0.000345343
-4.4986e-05
0.000360556
-4.52788e-05
0.000375943
-4.55378e-05
0.000391492
-4.57638e-05
0.000407185
-4.59537e-05
0.000423003
-4.61068e-05
0.000438923
-4.62221e-05
0.000454924
-4.63003e-05
0.000470982
-4.63414e-05
0.000487073
-4.63448e-05
0.000503166
-4.63091e-05
0.00051923
-4.62342e-05
0.000535236
-4.61213e-05
0.00055116
-4.59707e-05
0.000566975
-4.57823e-05
0.000582666
-4.55603e-05
0.000598227
-4.53098e-05
0.000613657
-4.50312e-05
0.000628953
-4.47163e-05
0.000644095
-4.43485e-05
0.000659044
-4.39102e-05
0.000673746
-4.33946e-05
0.000688156
-4.28118e-05
0.000702249
-4.21853e-05
0.000716029
-4.15396e-05
0.000729517
-4.08842e-05
0.000742732
-4.02109e-05
0.00075568
-3.95059e-05
0.000768354
-3.87597e-05
0.000780746
-3.79702e-05
0.000792846
-3.71392e-05
0.00080464
-3.62662e-05
0.000816121
-3.53576e-05
0.000827278
-3.44111e-05
0.000838097
-3.34269e-05
0.000848567
-3.24077e-05
0.000858681
-3.13582e-05
0.000868439
-3.0285e-05
0.000877834
-2.91798e-05
0.000886854
-2.80446e-05
0.000895484
-2.68717e-05
0.000903723
-2.56834e-05
0.000911572
-2.44736e-05
0.000919048
-2.32585e-05
0.000926122
-2.19933e-05
0.000932808
-2.07248e-05
0.000939102
-1.94423e-05
0.000945004
-1.81353e-05
0.000950509
-1.68199e-05
0.000955602
-1.54728e-05
0.000960306
-1.41381e-05
0.000964642
-1.27853e-05
0.000968597
-1.14141e-05
0.000972188
-1.0007e-05
0.000975426
-8.5973e-06
0.000978341
-7.16755e-06
0.000980914
-5.6749e-06
0.000983144
-4.17146e-06
0.000985016
-2.63793e-06
0.000986607
-1.02117e-06
0.000987928
5.33216e-07
0.000988919
2.17762e-06
0.000989587
3.85257e-06
0.000989937
5.5531e-06
0.000989976
7.27377e-06
0.000989709
9.01427e-06
0.000989138
1.07682e-05
0.000988272
1.253e-05
0.000987117
1.42856e-05
0.0009857
1.60101e-05
0.000984045
1.76772e-05
0.000982151
1.92562e-05
0.000979971
2.07138e-05
0.000977401
2.205e-05
0.000974304
2.32821e-05
0.000970553
2.44467e-05
0.0009661
2.5544e-05
0.000960925
2.66218e-05
0.000955021
2.76887e-05
0.000948399
2.8755e-05
0.000941077
2.98283e-05
0.000933069
3.09134e-05
0.000924368
3.20151e-05
0.000914973
3.3134e-05
0.000904869
3.42786e-05
0.00089406
3.54446e-05
0.000882542
3.66564e-05
0.000870301
3.79254e-05
0.000857343
3.92617e-05
0.000843672
4.06809e-05
0.000829285
4.21884e-05
0.000814184
4.37876e-05
0.000798382
4.54679e-05
0.000781868
4.72298e-05
0.000764655
4.90509e-05
0.000746739
5.09244e-05
0.000728111
5.28415e-05
0.000708771
5.47971e-05
0.000688708
5.67943e-05
0.000667921
5.88151e-05
0.000646408
6.08565e-05
0.000624152
6.29101e-05
0.000601128
6.49651e-05
0.000577318
6.70239e-05
0.000552713
6.90601e-05
0.000527312
7.10691e-05
0.000501135
7.30274e-05
0.000474161
7.49666e-05
0.000446423
7.68373e-05
0.00041795
7.86175e-05
0.000388743
8.0355e-05
0.000358874
8.19371e-05
0.000328287
8.35088e-05
0.000297177
8.48606e-05
0.000265348
8.61608e-05
0.000233162
8.73538e-05
0.000200225
8.83996e-05
0.000166868
8.97251e-05
0.000132669
9.09098e-05
9.85249e-05
9.12056e-05
6.65808e-05
8.6007e-05
4.01178e-05
7.57773e-05
0.000106046
4.70836e-06
-1.96138e-05
2.26414e-05
-6.89501e-05
3.76739e-05
-5.76191e-05
5.01751e-05
-4.80947e-05
6.22104e-05
-4.67861e-05
7.43615e-05
-4.74042e-05
8.66516e-05
-4.81396e-05
9.90495e-05
-4.85819e-05
0.000111473
-4.89521e-05
0.000123977
-4.93867e-05
0.000136554
-4.98535e-05
0.00014922
-5.03745e-05
0.000161987
-5.09245e-05
0.000174858
-5.15005e-05
0.000187841
-5.21029e-05
0.000200939
-5.27198e-05
0.000214154
-5.33476e-05
0.000227496
-5.39861e-05
0.00024097
-5.46281e-05
0.00025458
-5.52657e-05
0.000268328
-5.58945e-05
0.000282219
-5.65107e-05
0.00029625
-5.71091e-05
0.000310424
-5.76861e-05
0.000324744
-5.82396e-05
0.000339206
-5.87644e-05
0.000353801
-5.92553e-05
0.000368527
-5.97121e-05
0.00038338
-6.01324e-05
0.000398355
-6.05122e-05
0.000413439
-6.08485e-05
0.000428627
-6.11413e-05
0.000443908
-6.13876e-05
0.000459271
-6.15853e-05
0.000474703
-6.17324e-05
0.000490189
-6.18277e-05
0.000505715
-6.18702e-05
0.000521265
-6.18597e-05
0.000536827
-6.17955e-05
0.000552382
-6.16763e-05
0.000567912
-6.15011e-05
0.000583399
-6.12691e-05
0.000598818
-6.09791e-05
0.000614135
-6.06273e-05
0.000629314
-6.021e-05
0.000644323
-5.97261e-05
0.000659151
-5.91759e-05
0.000673801
-5.85606e-05
0.000688292
-5.78854e-05
0.000702636
-5.71557e-05
0.000716826
-5.63751e-05
0.000730833
-5.55467e-05
0.00074462
-5.46712e-05
0.000758152
-5.3743e-05
0.000771408
-5.27623e-05
0.000784382
-5.17331e-05
0.000797059
-5.06477e-05
0.00080943
-4.95095e-05
0.000821484
-4.83201e-05
0.000833213
-4.70868e-05
0.000844603
-4.58014e-05
0.000855661
-4.44852e-05
0.000866365
-4.31117e-05
0.000876716
-4.17084e-05
0.000886692
-4.02613e-05
0.000896289
-3.8777e-05
0.000905501
-3.72569e-05
0.000914333
-3.57035e-05
0.000922774
-3.41245e-05
0.000930816
-3.25156e-05
0.000938438
-3.08805e-05
0.00094568
-2.92347e-05
0.000952487
-2.75324e-05
0.000958877
-2.58321e-05
0.000964839
-2.40969e-05
0.000970367
-2.23487e-05
0.000975485
-2.059e-05
0.000980138
-1.87913e-05
0.000984341
-1.69881e-05
0.000988096
-1.51698e-05
0.000991427
-1.33378e-05
0.000994279
-1.14493e-05
0.000996665
-9.55294e-06
0.000998623
-7.63295e-06
0.00100014
-5.68794e-06
0.00100118
-3.6779e-06
0.00100186
-1.6996e-06
0.00100199
4.00408e-07
0.0010017
2.47277e-06
0.00100097
4.57907e-06
0.000999812
6.70974e-06
0.000998228
8.85771e-06
0.000996216
1.10267e-05
0.000993774
1.32097e-05
0.000990916
1.53886e-05
0.000987638
1.75629e-05
0.000983935
1.9713e-05
0.000979788
2.18247e-05
0.000975164
2.38798e-05
0.000970018
2.58601e-05
0.000964294
2.77737e-05
0.000957966
2.96107e-05
0.000951026
3.13865e-05
0.00094346
3.31096e-05
0.000935297
3.47854e-05
0.000926538
3.64475e-05
0.000917181
3.81116e-05
0.00090723
3.97798e-05
0.000896675
4.14679e-05
0.000885515
4.31747e-05
0.00087375
4.48997e-05
0.000861369
4.6659e-05
0.000848365
4.84487e-05
0.000834748
5.02738e-05
0.000820519
5.21546e-05
0.000805689
5.40914e-05
0.000790278
5.60916e-05
0.000774306
5.81606e-05
0.000757786
6.03082e-05
0.000740731
6.25225e-05
0.000723145
6.48155e-05
0.000705019
6.71768e-05
0.000686351
6.95926e-05
0.000667133
7.20593e-05
0.000647364
7.45661e-05
0.000627058
7.7101e-05
0.000606194
7.96787e-05
0.0005848
8.22501e-05
0.000562876
8.48346e-05
0.000540405
8.74359e-05
0.000517399
9.00295e-05
0.000493854
9.26057e-05
0.000469789
9.51337e-05
0.00044517
9.7647e-05
0.000420052
0.000100084
0.000394451
0.000102439
0.000368331
0.000104737
0.000341768
0.000106918
0.000314739
0.000108966
0.000287269
0.000110979
0.000259471
0.000112658
0.000231204
0.000114428
0.000202739
0.000115818
0.000173803
0.000117335
0.000144725
0.000118803
0.000114959
0.000120676
8.61443e-05
0.00012002
5.97076e-05
0.000112444
3.61287e-05
9.93562e-05
0.000142175
4.50135e-06
-2.41152e-05
2.26611e-05
-8.71099e-05
3.78388e-05
-7.27968e-05
5.04061e-05
-6.06621e-05
6.25049e-05
-5.88849e-05
7.4691e-05
-5.95903e-05
8.70107e-05
-6.04593e-05
9.94043e-05
-6.09756e-05
0.000111843
-6.13906e-05
0.00012434
-6.18834e-05
0.000136907
-6.24208e-05
0.000149552
-6.30201e-05
0.000162288
-6.36599e-05
0.000175121
-6.43339e-05
0.000188057
-6.50386e-05
0.000201104
-6.57672e-05
0.000214273
-6.65164e-05
0.000227567
-6.72804e-05
0.000240991
-6.80516e-05
0.000254549
-6.88239e-05
0.000268249
-6.95943e-05
0.000282093
-7.0355e-05
0.000296084
-7.10998e-05
0.000310223
-7.18252e-05
0.000324508
-7.25247e-05
0.000338937
-7.31936e-05
0.000353511
-7.38288e-05
0.000368223
-7.44249e-05
0.000383069
-7.49778e-05
0.000398039
-7.54821e-05
0.000413126
-7.59353e-05
0.000428319
-7.63349e-05
0.000443609
-7.6677e-05
0.000458982
-7.69586e-05
0.000474427
-7.71775e-05
0.000489931
-7.73319e-05
0.000505481
-7.742e-05
0.000521062
-7.74403e-05
0.000536657
-7.73905e-05
0.00055225
-7.72695e-05
0.000567825
-7.70765e-05
0.000583367
-7.68109e-05
0.00059886
-7.64718e-05
0.000614291
-7.60582e-05
0.00062965
-7.55697e-05
0.000644929
-7.50047e-05
0.000660112
-7.43593e-05
0.000675182
-7.36299e-05
0.000690109
-7.28127e-05
0.000704866
-7.1913e-05
0.000719425
-7.09339e-05
0.000733764
-6.98855e-05
0.000747865
-6.87721e-05
0.000761714
-6.75924e-05
0.000775297
-6.63458e-05
0.000788595
-6.50303e-05
0.0008016
-6.36529e-05
0.000814303
-6.22127e-05
0.000826698
-6.07153e-05
0.000838753
-5.91413e-05
0.000850473
-5.75218e-05
0.000861833
-5.58451e-05
0.000872851
-5.41299e-05
0.000883487
-5.23442e-05
0.000893735
-5.051e-05
0.000903598
-4.86393e-05
0.000913061
-4.67201e-05
0.000922123
-4.47652e-05
0.00093077
-4.27715e-05
0.000938989
-4.07346e-05
0.000946774
-3.8666e-05
0.000954128
-3.65882e-05
0.000961032
-3.44372e-05
0.000967501
-3.23004e-05
0.000973502
-3.00982e-05
0.000979057
-2.79039e-05
0.000984126
-2.56587e-05
0.000988734
-2.33997e-05
0.000992871
-2.11248e-05
0.000996538
-1.88367e-05
0.000999688
-1.64874e-05
0.00100237
-1.4131e-05
0.00100457
-1.17516e-05
0.00100631
-9.37115e-06
0.00100753
-6.90954e-06
0.0010083
-4.44724e-06
0.00100858
-1.98628e-06
0.00100842
5.67099e-07
0.00100779
3.10477e-06
0.0010067
5.6626e-06
0.00100517
8.24015e-06
0.0010032
1.0831e-05
0.00100079
1.34316e-05
0.000997964
1.60383e-05
0.000994711
1.86418e-05
0.000991039
2.12353e-05
0.000986939
2.38129e-05
0.000982408
2.63552e-05
0.000977431
2.88568e-05
0.000971969
3.1322e-05
0.000966012
3.37308e-05
0.000959534
3.6089e-05
0.000952511
3.84096e-05
0.000944918
4.07029e-05
0.000936732
4.29713e-05
0.000927948
4.52309e-05
0.000918562
4.74982e-05
0.00090856
4.97814e-05
0.000897956
5.20721e-05
0.000886745
5.43857e-05
0.000874918
5.67265e-05
0.000862472
5.91052e-05
0.000849403
6.15184e-05
0.000835696
6.39804e-05
0.000821352
6.64981e-05
0.00080638
6.90642e-05
0.000790769
7.17018e-05
0.000774526
7.44041e-05
0.000757669
7.71653e-05
0.000740201
7.99908e-05
0.000722125
8.28911e-05
0.000703462
8.58396e-05
0.000684215
8.88392e-05
0.000664402
9.18728e-05
0.00064402
9.4948e-05
0.000623075
9.80462e-05
0.000601592
0.000101161
0.000579561
0.000104281
0.00055699
0.000107406
0.000533916
0.00011051
0.000510348
0.000113598
0.000486308
0.000116646
0.000461795
0.000119646
0.00043686
0.000122583
0.0004115
0.000125444
0.000385725
0.000128214
0.000359585
0.000130877
0.000333091
0.000133411
0.000306245
0.000135812
0.000279127
0.000138097
0.000251673
0.000140113
0.000223952
0.000142149
0.000196114
0.000143657
0.00016791
0.000145539
0.000139747
0.000146966
0.000111087
0.000149337
8.34371e-05
0.00014767
5.79008e-05
0.00013798
3.46501e-05
0.000122607
0.000176825
4.26176e-06
-2.83769e-05
2.21764e-05
-0.000105025
3.71661e-05
-8.77865e-05
4.94965e-05
-7.29924e-05
6.13498e-05
-7.07382e-05
7.32821e-05
-7.15226e-05
8.53924e-05
-7.25695e-05
9.75658e-05
-7.3149e-05
0.000109809
-7.36339e-05
0.000122115
-7.41893e-05
0.000134507
-7.48129e-05
0.000146992
-7.55047e-05
0.000159581
-7.62495e-05
0.000172283
-7.70361e-05
0.000185108
-7.78633e-05
0.000198065
-7.87239e-05
0.00021116
-7.9612e-05
0.000224399
-8.05188e-05
0.000237789
-8.14412e-05
0.000251335
-8.23707e-05
0.000265042
-8.33004e-05
0.00027891
-8.42238e-05
0.000292944
-8.51337e-05
0.000307141
-8.60216e-05
0.000321501
-8.68847e-05
0.000336023
-8.77154e-05
0.0003507
-8.85059e-05
0.000365526
-8.92516e-05
0.000380496
-8.99476e-05
0.000395603
-9.05895e-05
0.000410841
-9.11724e-05
0.000426196
-9.16901e-05
0.000441658
-9.2139e-05
0.000457214
-9.25148e-05
0.000472852
-9.28159e-05
0.000488558
-9.30378e-05
0.000504316
-9.31778e-05
0.000520109
-9.32327e-05
0.000535919
-9.3201e-05
0.00055173
-9.30809e-05
0.000567523
-9.28696e-05
0.000583278
-9.25651e-05
0.000598972
-9.21664e-05
0.000614587
-9.1673e-05
0.0006301
-9.10831e-05
0.000645491
-9.03956e-05
0.000660741
-8.96091e-05
0.000675838
-8.87264e-05
0.000690782
-8.77565e-05
0.000705561
-8.66929e-05
0.000720162
-8.55347e-05
0.000734566
-8.42894e-05
0.000748758
-8.2964e-05
0.000762704
-8.15387e-05
0.000776396
-8.0037e-05
0.000789822
-7.84562e-05
0.000802958
-7.67891e-05
0.000815789
-7.50438e-05
0.000828296
-7.32227e-05
0.000840481
-7.13264e-05
0.000852322
-6.93626e-05
0.000863812
-6.73344e-05
0.000874924
-6.52427e-05
0.000885677
-6.3097e-05
0.000896037
-6.08694e-05
0.000905998
-5.8601e-05
0.000915558
-5.62793e-05
0.000924707
-5.39146e-05
0.000933445
-5.15098e-05
0.000941747
-4.90366e-05
0.000949612
-4.65303e-05
0.00095702
-4.3997e-05
0.000963998
-4.14144e-05
0.000970517
-3.88194e-05
0.000976576
-3.61576e-05
0.000982183
-3.35113e-05
0.000987309
-3.07846e-05
0.000991968
-2.80579e-05
0.00099618
-2.53369e-05
0.000999873
-2.25298e-05
0.00100311
-1.97199e-05
0.00100586
-1.68897e-05
0.00100816
-1.40453e-05
0.00100996
-1.11691e-05
0.00101129
-8.24883e-06
0.00101217
-5.32179e-06
0.00101258
-2.39802e-06
0.00101254
6.11759e-07
0.00101204
3.60228e-06
0.00101109
6.60732e-06
0.00100971
9.62516e-06
0.00100788
1.26568e-05
0.00100562
1.56906e-05
0.00100294
1.8726e-05
0.000999819
2.176e-05
0.000996269
2.4785e-05
0.000992282
2.77998e-05
0.000987847
3.07901e-05
0.000982951
3.37524e-05
0.000977578
3.66953e-05
0.000971705
3.9604e-05
0.000965311
4.24834e-05
0.000958377
4.53436e-05
0.000950888
4.81915e-05
0.000942839
5.10201e-05
0.000934211
5.38594e-05
0.000925009
5.66999e-05
0.000915225
5.95655e-05
0.000904844
6.24527e-05
0.000893865
6.53651e-05
0.000882276
6.83155e-05
0.000870069
7.13123e-05
0.000857244
7.43434e-05
0.000843782
7.74424e-05
0.000829691
8.05889e-05
0.000814958
8.37967e-05
0.000799592
8.70679e-05
0.000783604
9.03927e-05
0.000766978
9.37909e-05
0.000749703
9.72654e-05
0.000731818
0.000100777
0.000713309
0.000104348
0.000694183
0.000107965
0.000674428
0.000111629
0.000654067
0.000115308
0.0006331
0.000119013
0.000611551
0.00012271
0.00058941
0.000126423
0.00056669
0.000130125
0.000543411
0.000133789
0.0005196
0.000137409
0.000495269
0.000140976
0.000470432
0.000144484
0.000445107
0.000147908
0.000419333
0.000151217
0.000393124
0.000154424
0.000366506
0.000157495
0.000339509
0.000160408
0.000312163
0.000163158
0.000284493
0.000165767
0.000256525
0.000168081
0.000228298
0.000170376
0.000199886
0.000172069
0.000171227
0.000174199
0.00014244
0.000175753
0.0001133
0.000178476
8.47907e-05
0.00017618
5.84496e-05
0.000164321
3.47728e-05
0.000146284
0.000211598
3.89521e-06
-3.22721e-05
2.17658e-05
-0.000122895
3.67116e-05
-0.000102732
4.88769e-05
-8.51577e-05
6.05147e-05
-8.2376e-05
7.22431e-05
-8.3251e-05
8.4167e-05
-8.44934e-05
9.61763e-05
-8.51583e-05
0.00010826
-8.57172e-05
0.000120423
-8.63522e-05
0.000132681
-8.70716e-05
0.000145047
-8.78701e-05
0.000157531
-8.8734e-05
0.000170145
-8.96497e-05
0.000182896
-9.06147e-05
0.000195793
-9.16203e-05
0.000208843
-9.26624e-05
0.000222055
-9.37312e-05
0.000235435
-9.4821e-05
0.000248987
-9.59225e-05
0.000262713
-9.70269e-05
0.000276617
-9.81273e-05
0.000290699
-9.92163e-05
0.000304961
-0.000100283
0.000319397
-0.000101321
0.000334006
-0.000102324
0.000348784
-0.000103284
0.000363727
-0.000104194
0.000378826
-0.000105047
0.000394071
-0.000105835
0.000409451
-0.000106553
0.000424957
-0.000107195
0.000440575
-0.000107757
0.000456293
-0.000108234
0.000472096
-0.000108618
0.000487967
-0.000108909
0.00050389
-0.000109101
0.000519849
-0.000109191
0.000535826
-0.000109178
0.000551801
-0.000109056
0.000567757
-0.000108825
0.000583677
-0.000108486
0.000599544
-0.000108033
0.000615338
-0.000107467
0.000631041
-0.000106786
0.000646639
-0.000105993
0.000662117
-0.000105087
0.000677455
-0.000104065
0.000692626
-0.000102927
0.00070761
-0.000101676
0.000722392
-0.000100317
0.000736952
-9.88496e-05
0.000751272
-9.72841e-05
0.000765342
-9.5608e-05
0.000779143
-9.38378e-05
0.000792659
-9.19728e-05
0.000805882
-9.00114e-05
0.000818794
-8.79564e-05
0.000831387
-8.58152e-05
0.00084365
-8.35896e-05
0.000855565
-8.12774e-05
0.000867128
-7.88984e-05
0.000878315
-7.64291e-05
0.000889116
-7.38981e-05
0.000899548
-7.13015e-05
0.000909571
-6.86239e-05
0.000919193
-6.59017e-05
0.000928403
-6.31241e-05
0.00093717
-6.02772e-05
0.000945541
-5.74073e-05
0.000953457
-5.44463e-05
0.000960927
-5.14667e-05
0.000967962
-4.84493e-05
0.000974527
-4.53846e-05
0.000980654
-4.22849e-05
0.000986297
-3.91544e-05
0.000991494
-3.59813e-05
0.000996228
-3.27921e-05
0.00100048
-2.9591e-05
0.00100426
-2.63116e-05
0.00100758
-2.3034e-05
0.00101042
-1.97348e-05
0.00101281
-1.64327e-05
0.00101471
-1.30722e-05
0.00101615
-9.68665e-06
0.00101712
-6.29273e-06
0.00101766
-2.93341e-06
0.00101771
5.57897e-07
0.00101731
4.0002e-06
0.00101647
7.45474e-06
0.00101517
1.09207e-05
0.00101343
1.43947e-05
0.00101125
1.78756e-05
0.00100862
2.13525e-05
0.00100555
2.4829e-05
0.00100204
2.83007e-05
0.000998072
3.17637e-05
0.000993645
3.52177e-05
0.000988739
3.86579e-05
0.000983358
4.20769e-05
0.000977479
4.54826e-05
0.000971093
4.88693e-05
0.000964186
5.22512e-05
0.000956745
5.56319e-05
0.000948748
5.9017e-05
0.000940197
6.24112e-05
0.00093108
6.58164e-05
0.000921391
6.92549e-05
0.000911124
7.27196e-05
0.000900265
7.62242e-05
0.000888809
7.9771e-05
0.000876764
8.33575e-05
0.000864092
8.7015e-05
0.000850816
9.07191e-05
0.000836917
9.44881e-05
0.000822395
9.83181e-05
0.000807253
0.00010221
0.000791459
0.000106187
0.00077504
0.00011021
0.000758
0.000114305
0.000740316
0.000118461
0.000722
0.000122663
0.000703053
0.000126913
0.000683479
0.000131202
0.000663269
0.000135519
0.000642443
0.000139839
0.000620965
0.000144188
0.000598877
0.00014851
0.000576192
0.000152811
0.000552903
0.000157077
0.000529035
0.000161277
0.000504586
0.000165426
0.000479591
0.000169478
0.000454083
0.000173416
0.000428054
0.000177246
0.000401543
0.000180935
0.000374585
0.000184453
0.000347184
0.000187809
0.000319377
0.000190965
0.000291214
0.000193931
0.000262708
0.000196587
0.000233914
0.00019917
0.000204859
0.000201124
0.000175558
0.0002035
0.000146011
0.000205299
0.000116115
0.000208373
8.66727e-05
0.000205622
5.95772e-05
0.000191417
3.5467e-05
0.000170394
0.000247065
3.39941e-06
-3.56716e-05
2.13249e-05
-0.000140821
3.63043e-05
-0.000117712
4.83693e-05
-9.72227e-05
5.98152e-05
-9.38219e-05
7.13719e-05
-9.48077e-05
8.31267e-05
-9.62482e-05
9.49901e-05
-9.70217e-05
0.000106931
-9.76582e-05
0.00011896
-9.83814e-05
0.000131094
-9.9205e-05
0.000143346
-0.000100122
0.000155728
-0.000101116
0.000168251
-0.000102173
0.000180925
-0.000103289
0.000193761
-0.000104456
0.000206766
-0.000105667
0.000219945
-0.00010691
0.000233304
-0.00010818
0.00024685
-0.000109469
0.000260589
-0.000110766
0.00027452
-0.000112058
0.000288642
-0.000113339
0.000302957
-0.000114598
0.000317465
-0.000115828
0.000332158
-0.000117018
0.000347034
-0.00011816
0.000362085
-0.000119245
0.000377302
-0.000120264
0.000392678
-0.00012121
0.000408202
-0.000122077
0.000423863
-0.000122855
0.000439645
-0.00012354
0.000455535
-0.000124123
0.000471518
-0.000124602
0.000487579
-0.000124969
0.0005037
-0.000125222
0.000519864
-0.000125355
0.000536051
-0.000125365
0.000552245
-0.00012525
0.000568426
-0.000125006
0.000584572
-0.000124631
0.000600662
-0.000124124
0.00061668
-0.000123484
0.000632604
-0.00012271
0.000648412
-0.000121802
0.000664085
-0.00012076
0.000679601
-0.000119581
0.000694954
-0.00011828
0.000710126
-0.000116848
0.000725098
-0.000115289
0.000739852
-0.000113603
0.000754362
-0.000111795
0.000768623
-0.000109869
0.000782613
-0.000107827
0.000796314
-0.000105674
0.000809713
-0.00010341
0.000822798
-0.000101041
0.00083555
-9.85675e-05
0.000847974
-9.60133e-05
0.000860035
-9.33383e-05
0.000871722
-9.0586e-05
0.000883041
-8.77473e-05
0.00089397
-8.48275e-05
0.000904504
-8.18354e-05
0.000914638
-7.8758e-05
0.000924368
-7.56318e-05
0.000933657
-7.24132e-05
0.000942527
-6.91464e-05
0.000950947
-6.58274e-05
0.000958951
-6.24504e-05
0.000966491
-5.90067e-05
0.000973609
-5.55675e-05
0.00098024
-5.20159e-05
0.00098643
-4.84751e-05
0.000992139
-4.48633e-05
0.00099739
-4.12323e-05
0.00100219
-3.75957e-05
0.00100649
-3.3884e-05
0.00101033
-3.0152e-05
0.0010137
-2.64035e-05
0.0010166
-2.26339e-05
0.00101904
-1.88794e-05
0.001021
-1.50273e-05
0.00102249
-1.11774e-05
0.00102352
-7.32018e-06
0.00102407
-3.48302e-06
0.00102417
4.55227e-07
0.00102381
4.36048e-06
0.00102299
8.2694e-06
0.00102172
1.21894e-05
0.00102
1.61167e-05
0.00101783
2.00468e-05
0.0010152
2.39801e-05
0.00101212
2.79087e-05
0.00100859
3.18384e-05
0.00100459
3.57633e-05
0.00100013
3.96777e-05
0.000995195
4.35895e-05
0.000989777
4.74953e-05
0.00098387
5.13894e-05
0.000977453
5.52861e-05
0.000970523
5.91816e-05
0.000963071
6.30839e-05
0.000955087
6.70005e-05
0.000946564
7.09341e-05
0.000937477
7.4904e-05
0.000927834
7.88977e-05
0.000917631
8.29225e-05
0.00090685
8.70051e-05
0.000895494
9.11271e-05
0.000883534
9.53171e-05
0.000870989
9.95604e-05
0.000857837
0.000103871
0.000844072
0.000108253
0.000829684
0.000112706
0.000814662
0.000117231
0.00079903
0.000121819
0.000782762
0.000126478
0.000765851
0.000131216
0.000748299
0.000136013
0.0007301
0.000140863
0.000711251
0.000145762
0.000691761
0.000150692
0.000671625
0.000155656
0.000650828
0.000160635
0.000629399
0.000165617
0.000607325
0.000170585
0.000584618
0.000175517
0.000561287
0.000180409
0.000537335
0.00018523
0.000512784
0.000189977
0.000487651
0.000194611
0.000461932
0.000199135
0.000435675
0.000203502
0.000408896
0.000207715
0.000381602
0.000211747
0.000353846
0.000215565
0.000325651
0.000219159
0.000297049
0.000222533
0.000268072
0.000225563
0.000238748
0.000228494
0.000209168
0.000230704
0.000179276
0.000233392
0.000149076
0.000235498
0.000118506
0.000238943
8.83959e-05
0.000235732
6.08024e-05
0.00021901
3.62693e-05
0.000194927
0.000283334
2.81256e-06
-3.84841e-05
2.0818e-05
-0.000158826
3.58526e-05
-0.000132746