/*--------------------------------*- C++ -*----------------------------------*\
| =========                 |                                                 |
| \\      /  F ield         | OpenFOAM: The Open Source CFD Toolbox           |
|  \\    /   O peration     | Version:  v2006                                 |
|   \\  /    A nd           | Website:  www.openfoam.com                      |
|    \\/     M anipulation  |                                                 |
\*---------------------------------------------------------------------------*/
FoamFile
{
    version     2.0;
    format      ascii;
    class       volVectorField;
    location    "0";
    object      U_new;
}
// * * * * * * * * * * * * * * * * * * * * * * * * * * * * * * * * * * * * * //

dimensions      [0 1 -1 0 0 0 0];


internalField   nonuniform List<vector> 
2500
(
(0.000112 -0.001568 0)
(0.000112 -0.004704 0)
(0.000112 -0.00784 0)
(0.000112 -0.010976 0)
(0.000112 -0.014112 0)
(0.000112 -0.017248 0)
(0.000112 -0.020384 0)
(0.000112 -0.02352 0)
(0.000112 -0.026656 0)
(0.000112 -0.029792 0)
(0.000112 -0.032928 0)
(0.000112 -0.036064 0)
(0.000112 -0.0392 0)
(0.000112 -0.042336 0)
(0.000112 -0.045472 0)
(0.000112 -0.048608 0)
(0.000112 -0.051744 0)
(0.000112 -0.05488 0)
(0.000112 -0.058016 0)
(0.000112 -0.061152 0)
(0.000112 -0.064288 0)
(0.000112 -0.067424 0)
(0.000112 -0.07056 0)
(0.000112 -0.073696 0)
(0.000112 -0.076832 0)
(0.000112 -0.079968 0)
(0.000112 -0.083104 0)
(0.000112 -0.08624 0)
(0.000112 -0.089376 0)
(0.000112 -0.092512 0)
(0.000112 -0.095648 0)
(0.000112 -0.098784 0)
(0.000112 -0.10192 0)
(0.000112 -0.105056 0)
(0.000112 -0.108192 0)
(0.000112 -0.111328 0)
(0.000112 -0.114464 0)
(0.000112 -0.1176 0)
(0.000112 -0.120736 0)
(0.000112 -0.123872 0)
(0.000112 -0.127008 0)
(0.000112 -0.130144 0)
(0.000112 -0.13328 0)
(0.000112 -0.136416 0)
(0.000112 -0.139552 0)
(0.000112 -0.142688 0)
(0.000112 -0.145824 0)
(0.000112 -0.14896 0)
(0.000112 -0.152096 0)
(0.000112 -0.155232 0)
(0.001008 -0.001568 0)
(0.001008 -0.004704 0)
(0.001008 -0.00784 0)
(0.001008 -0.010976 0)
(0.001008 -0.014112 0)
(0.001008 -0.017248 0)
(0.001008 -0.020384 0)
(0.001008 -0.02352 0)
(0.001008 -0.026656 0)
(0.001008 -0.029792 0)
(0.001008 -0.032928 0)
(0.001008 -0.036064 0)
(0.001008 -0.0392 0)
(0.001008 -0.042336 0)
(0.001008 -0.045472 0)
(0.001008 -0.048608 0)
(0.001008 -0.051744 0)
(0.001008 -0.05488 0)
(0.001008 -0.058016 0)
(0.001008 -0.061152 0)
(0.001008 -0.064288 0)
(0.001008 -0.067424 0)
(0.001008 -0.07056 0)
(0.001008 -0.073696 0)
(0.001008 -0.076832 0)
(0.001008 -0.079968 0)
(0.001008 -0.083104 0)
(0.001008 -0.08624 0)
(0.001008 -0.089376 0)
(0.001008 -0.092512 0)
(0.001008 -0.095648 0)
(0.001008 -0.098784 0)
(0.001008 -0.10192 0)
(0.001008 -0.105056 0)
(0.001008 -0.108192 0)
(0.001008 -0.111328 0)
(0.001008 -0.114464 0)
(0.001008 -0.1176 0)
(0.001008 -0.120736 0)
(0.001008 -0.123872 0)
(0.001008 -0.127008 0)
(0.001008 -0.130144 0)
(0.001008 -0.13328 0)
(0.001008 -0.136416 0)
(0.001008 -0.139552 0)
(0.001008 -0.142688 0)
(0.001008 -0.145824 0)
(0.001008 -0.14896 0)
(0.001008 -0.152096 0)
(0.001008 -0.155232 0)
(0.0028 -0.001568 0)
(0.0028 -0.004704 0)
(0.0028 -0.00784 0)
(0.0028 -0.010976 0)
(0.0028 -0.014112 0)
(0.0028 -0.017248 0)
(0.0028 -0.020384 0)
(0.0028 -0.02352 0)
(0.0028 -0.026656 0)
(0.0028 -0.029792 0)
(0.0028 -0.032928 0)
(0.0028 -0.036064 0)
(0.0028 -0.0392 0)
(0.0028 -0.042336 0)
(0.0028 -0.045472 0)
(0.0028 -0.048608 0)
(0.0028 -0.051744 0)
(0.0028 -0.05488 0)
(0.0028 -0.058016 0)
(0.0028 -0.061152 0)
(0.0028 -0.064288 0)
(0.0028 -0.067424 0)
(0.0028 -0.07056 0)
(0.0028 -0.073696 0)
(0.0028 -0.076832 0)
(0.0028 -0.079968 0)
(0.0028 -0.083104 0)
(0.0028 -0.08624 0)
(0.0028 -0.089376 0)
(0.0028 -0.092512 0)
(0.0028 -0.095648 0)
(0.0028 -0.098784 0)
(0.0028 -0.10192 0)
(0.0028 -0.105056 0)
(0.0028 -0.108192 0)
(0.0028 -0.111328 0)
(0.0028 -0.114464 0)
(0.0028 -0.1176 0)
(0.0028 -0.120736 0)
(0.0028 -0.123872 0)
(0.0028 -0.127008 0)
(0.0028 -0.130144 0)
(0.0028 -0.13328 0)
(0.0028 -0.136416 0)
(0.0028 -0.139552 0)
(0.0028 -0.142688 0)
(0.0028 -0.145824 0)
(0.0028 -0.14896 0)
(0.0028 -0.152096 0)
(0.0028 -0.155232 0)
(0.005488 -0.001568 0)
(0.005488 -0.004704 0)
(0.005488 -0.00784 0)
(0.005488 -0.010976 0)
(0.005488 -0.014112 0)
(0.005488 -0.017248 0)
(0.005488 -0.020384 0)
(0.005488 -0.02352 0)
(0.005488 -0.026656 0)
(0.005488 -0.029792 0)
(0.005488 -0.032928 0)
(0.005488 -0.036064 0)
(0.005488 -0.0392 0)
(0.005488 -0.042336 0)
(0.005488 -0.045472 0)
(0.005488 -0.048608 0)
(0.005488 -0.051744 0)
(0.005488 -0.05488 0)
(0.005488 -0.058016 0)
(0.005488 -0.061152 0)
(0.005488 -0.064288 0)
(0.005488 -0.067424 0)
(0.005488 -0.07056 0)
(0.005488 -0.073696 0)
(0.005488 -0.076832 0)
(0.005488 -0.079968 0)
(0.005488 -0.083104 0)
(0.005488 -0.08624 0)
(0.005488 -0.089376 0)
(0.005488 -0.092512 0)
(0.005488 -0.095648 0)
(0.005488 -0.098784 0)
(0.005488 -0.10192 0)
(0.005488 -0.105056 0)
(0.005488 -0.108192 0)
(0.005488 -0.111328 0)
(0.005488 -0.114464 0)
(0.005488 -0.1176 0)
(0.005488 -0.120736 0)
(0.005488 -0.123872 0)
(0.005488 -0.127008 0)
(0.005488 -0.130144 0)
(0.005488 -0.13328 0)
(0.005488 -0.136416 0)
(0.005488 -0.139552 0)
(0.005488 -0.142688 0)
(0.005488 -0.145824 0)
(0.005488 -0.14896 0)
(0.005488 -0.152096 0)
(0.005488 -0.155232 0)
(0.009072 -0.001568 0)
(0.009072 -0.004704 0)
(0.009072 -0.00784 0)
(0.009072 -0.010976 0)
(0.009072 -0.014112 0)
(0.009072 -0.017248 0)
(0.009072 -0.020384 0)
(0.009072 -0.02352 0)
(0.009072 -0.026656 0)
(0.009072 -0.029792 0)
(0.009072 -0.032928 0)
(0.009072 -0.036064 0)
(0.009072 -0.0392 0)
(0.009072 -0.042336 0)
(0.009072 -0.045472 0)
(0.009072 -0.048608 0)
(0.009072 -0.051744 0)
(0.009072 -0.05488 0)
(0.009072 -0.058016 0)
(0.009072 -0.061152 0)
(0.009072 -0.064288 0)
(0.009072 -0.067424 0)
(0.009072 -0.07056 0)
(0.009072 -0.073696 0)
(0.009072 -0.076832 0)
(0.009072 -0.079968 0)
(0.009072 -0.083104 0)
(0.009072 -0.08624 0)
(0.009072 -0.089376 0)
(0.009072 -0.092512 0)
(0.009072 -0.095648 0)
(0.009072 -0.098784 0)
(0.009072 -0.10192 0)
(0.009072 -0.105056 0)
(0.009072 -0.108192 0)
(0.009072 -0.111328 0)
(0.009072 -0.114464 0)
(0.009072 -0.1176 0)
(0.009072 -0.120736 0)
(0.009072 -0.123872 0)
(0.009072 -0.127008 0)
(0.009072 -0.130144 0)
(0.009072 -0.13328 0)
(0.009072 -0.136416 0)
(0.009072 -0.139552 0)
(0.009072 -0.142688 0)
(0.009072 -0.145824 0)
(0.009072 -0.14896 0)
(0.009072 -0.152096 0)
(0.009072 -0.155232 0)
(0.013552 -0.001568 0)
(0.013552 -0.004704 0)
(0.013552 -0.00784 0)
(0.013552 -0.010976 0)
(0.013552 -0.014112 0)
(0.013552 -0.017248 0)
(0.013552 -0.020384 0)
(0.013552 -0.02352 0)
(0.013552 -0.026656 0)
(0.013552 -0.029792 0)
(0.013552 -0.032928 0)
(0.013552 -0.036064 0)
(0.013552 -0.0392 0)
(0.013552 -0.042336 0)
(0.013552 -0.045472 0)
(0.013552 -0.048608 0)
(0.013552 -0.051744 0)
(0.013552 -0.05488 0)
(0.013552 -0.058016 0)
(0.013552 -0.061152 0)
(0.013552 -0.064288 0)
(0.013552 -0.067424 0)
(0.013552 -0.07056 0)
(0.013552 -0.073696 0)
(0.013552 -0.076832 0)
(0.013552 -0.079968 0)
(0.013552 -0.083104 0)
(0.013552 -0.08624 0)
(0.013552 -0.089376 0)
(0.013552 -0.092512 0)
(0.013552 -0.095648 0)
(0.013552 -0.098784 0)
(0.013552 -0.10192 0)
(0.013552 -0.105056 0)
(0.013552 -0.108192 0)
(0.013552 -0.111328 0)
(0.013552 -0.114464 0)
(0.013552 -0.1176 0)
(0.013552 -0.120736 0)
(0.013552 -0.123872 0)
(0.013552 -0.127008 0)
(0.013552 -0.130144 0)
(0.013552 -0.13328 0)
(0.013552 -0.136416 0)
(0.013552 -0.139552 0)
(0.013552 -0.142688 0)
(0.013552 -0.145824 0)
(0.013552 -0.14896 0)
(0.013552 -0.152096 0)
(0.013552 -0.155232 0)
(0.018928 -0.001568 0)
(0.018928 -0.004704 0)
(0.018928 -0.00784 0)
(0.018928 -0.010976 0)
(0.018928 -0.014112 0)
(0.018928 -0.017248 0)
(0.018928 -0.020384 0)
(0.018928 -0.02352 0)
(0.018928 -0.026656 0)
(0.018928 -0.029792 0)
(0.018928 -0.032928 0)
(0.018928 -0.036064 0)
(0.018928 -0.0392 0)
(0.018928 -0.042336 0)
(0.018928 -0.045472 0)
(0.018928 -0.048608 0)
(0.018928 -0.051744 0)
(0.018928 -0.05488 0)
(0.018928 -0.058016 0)
(0.018928 -0.061152 0)
(0.018928 -0.064288 0)
(0.018928 -0.067424 0)
(0.018928 -0.07056 0)
(0.018928 -0.073696 0)
(0.018928 -0.076832 0)
(0.018928 -0.079968 0)
(0.018928 -0.083104 0)
(0.018928 -0.08624 0)
(0.018928 -0.089376 0)
(0.018928 -0.092512 0)
(0.018928 -0.095648 0)
(0.018928 -0.098784 0)
(0.018928 -0.10192 0)
(0.018928 -0.105056 0)
(0.018928 -0.108192 0)
(0.018928 -0.111328 0)
(0.018928 -0.114464 0)
(0.018928 -0.1176 0)
(0.018928 -0.120736 0)
(0.018928 -0.123872 0)
(0.018928 -0.127008 0)
(0.018928 -0.130144 0)
(0.018928 -0.13328 0)
(0.018928 -0.136416 0)
(0.018928 -0.139552 0)
(0.018928 -0.142688 0)
(0.018928 -0.145824 0)
(0.018928 -0.14896 0)
(0.018928 -0.152096 0)
(0.018928 -0.155232 0)
(0.0252 -0.001568 0)
(0.0252 -0.004704 0)
(0.0252 -0.00784 0)
(0.0252 -0.010976 0)
(0.0252 -0.014112 0)
(0.0252 -0.017248 0)
(0.0252 -0.020384 0)
(0.0252 -0.02352 0)
(0.0252 -0.026656 0)
(0.0252 -0.029792 0)
(0.0252 -0.032928 0)
(0.0252 -0.036064 0)
(0.0252 -0.0392 0)
(0.0252 -0.042336 0)
(0.0252 -0.045472 0)
(0.0252 -0.048608 0)
(0.0252 -0.051744 0)
(0.0252 -0.05488 0)
(0.0252 -0.058016 0)
(0.0252 -0.061152 0)
(0.0252 -0.064288 0)
(0.0252 -0.067424 0)
(0.0252 -0.07056 0)
(0.0252 -0.073696 0)
(0.0252 -0.076832 0)
(0.0252 -0.079968 0)
(0.0252 -0.083104 0)
(0.0252 -0.08624 0)
(0.0252 -0.089376 0)
(0.0252 -0.092512 0)
(0.0252 -0.095648 0)
(0.0252 -0.098784 0)
(0.0252 -0.10192 0)
(0.0252 -0.105056 0)
(0.0252 -0.108192 0)
(0.0252 -0.111328 0)
(0.0252 -0.114464 0)
(0.0252 -0.1176 0)
(0.0252 -0.120736 0)
(0.0252 -0.123872 0)
(0.0252 -0.127008 0)
(0.0252 -0.130144 0)
(0.0252 -0.13328 0)
(0.0252 -0.136416 0)
(0.0252 -0.139552 0)
(0.0252 -0.142688 0)
(0.0252 -0.145824 0)
(0.0252 -0.14896 0)
(0.0252 -0.152096 0)
(0.0252 -0.155232 0)
(0.032368 -0.001568 0)
(0.032368 -0.004704 0)
(0.032368 -0.00784 0)
(0.032368 -0.010976 0)
(0.032368 -0.014112 0)
(0.032368 -0.017248 0)
(0.032368 -0.020384 0)
(0.032368 -0.02352 0)
(0.032368 -0.026656 0)
(0.032368 -0.029792 0)
(0.032368 -0.032928 0)
(0.032368 -0.036064 0)
(0.032368 -0.0392 0)
(0.032368 -0.042336 0)
(0.032368 -0.045472 0)
(0.032368 -0.048608 0)
(0.032368 -0.051744 0)
(0.032368 -0.05488 0)
(0.032368 -0.058016 0)
(0.032368 -0.061152 0)
(0.032368 -0.064288 0)
(0.032368 -0.067424 0)
(0.032368 -0.07056 0)
(0.032368 -0.073696 0)
(0.032368 -0.076832 0)
(0.032368 -0.079968 0)
(0.032368 -0.083104 0)
(0.032368 -0.08624 0)
(0.032368 -0.089376 0)
(0.032368 -0.092512 0)
(0.032368 -0.095648 0)
(0.032368 -0.098784 0)
(0.032368 -0.10192 0)
(0.032368 -0.105056 0)
(0.032368 -0.108192 0)
(0.032368 -0.111328 0)
(0.032368 -0.114464 0)
(0.032368 -0.1176 0)
(0.032368 -0.120736 0)
(0.032368 -0.123872 0)
(0.032368 -0.127008 0)
(0.032368 -0.130144 0)
(0.032368 -0.13328 0)
(0.032368 -0.136416 0)
(0.032368 -0.139552 0)
(0.032368 -0.142688 0)
(0.032368 -0.145824 0)
(0.032368 -0.14896 0)
(0.032368 -0.152096 0)
(0.032368 -0.155232 0)
(0.040432 -0.001568 0)
(0.040432 -0.004704 0)
(0.040432 -0.00784 0)
(0.040432 -0.010976 0)
(0.040432 -0.014112 0)
(0.040432 -0.017248 0)
(0.040432 -0.020384 0)
(0.040432 -0.02352 0)
(0.040432 -0.026656 0)
(0.040432 -0.029792 0)
(0.040432 -0.032928 0)
(0.040432 -0.036064 0)
(0.040432 -0.0392 0)
(0.040432 -0.042336 0)
(0.040432 -0.045472 0)
(0.040432 -0.048608 0)
(0.040432 -0.051744 0)
(0.040432 -0.05488 0)
(0.040432 -0.058016 0)
(0.040432 -0.061152 0)
(0.040432 -0.064288 0)
(0.040432 -0.067424 0)
(0.040432 -0.07056 0)
(0.040432 -0.073696 0)
(0.040432 -0.076832 0)
(0.040432 -0.079968 0)
(0.040432 -0.083104 0)
(0.040432 -0.08624 0)
(0.040432 -0.089376 0)
(0.040432 -0.092512 0)
(0.040432 -0.095648 0)
(0.040432 -0.098784 0)
(0.040432 -0.10192 0)
(0.040432 -0.105056 0)
(0.040432 -0.108192 0)
(0.040432 -0.111328 0)
(0.040432 -0.114464 0)
(0.040432 -0.1176 0)
(0.040432 -0.120736 0)
(0.040432 -0.123872 0)
(0.040432 -0.127008 0)
(0.040432 -0.130144 0)
(0.040432 -0.13328 0)
(0.040432 -0.136416 0)
(0.040432 -0.139552 0)
(0.040432 -0.142688 0)
(0.040432 -0.145824 0)
(0.040432 -0.14896 0)
(0.040432 -0.152096 0)
(0.040432 -0.155232 0)
(0.049392 -0.001568 0)
(0.049392 -0.004704 0)
(0.049392 -0.00784 0)
(0.049392 -0.010976 0)
(0.049392 -0.014112 0)
(0.049392 -0.017248 0)
(0.049392 -0.020384 0)
(0.049392 -0.02352 0)
(0.049392 -0.026656 0)
(0.049392 -0.029792 0)
(0.049392 -0.032928 0)
(0.049392 -0.036064 0)
(0.049392 -0.0392 0)
(0.049392 -0.042336 0)
(0.049392 -0.045472 0)
(0.049392 -0.048608 0)
(0.049392 -0.051744 0)
(0.049392 -0.05488 0)
(0.049392 -0.058016 0)
(0.049392 -0.061152 0)
(0.049392 -0.064288 0)
(0.049392 -0.067424 0)
(0.049392 -0.07056 0)
(0.049392 -0.073696 0)
(0.049392 -0.076832 0)
(0.049392 -0.079968 0)
(0.049392 -0.083104 0)
(0.049392 -0.08624 0)
(0.049392 -0.089376 0)
(0.049392 -0.092512 0)
(0.049392 -0.095648 0)
(0.049392 -0.098784 0)
(0.049392 -0.10192 0)
(0.049392 -0.105056 0)
(0.049392 -0.108192 0)
(0.049392 -0.111328 0)
(0.049392 -0.114464 0)
(0.049392 -0.1176 0)
(0.049392 -0.120736 0)
(0.049392 -0.123872 0)
(0.049392 -0.127008 0)
(0.049392 -0.130144 0)
(0.049392 -0.13328 0)
(0.049392 -0.136416 0)
(0.049392 -0.139552 0)
(0.049392 -0.142688 0)
(0.049392 -0.145824 0)
(0.049392 -0.14896 0)
(0.049392 -0.152096 0)
(0.049392 -0.155232 0)
(0.059248 -0.001568 0)
(0.059248 -0.004704 0)
(0.059248 -0.00784 0)
(0.059248 -0.010976 0)
(0.059248 -0.014112 0)
(0.059248 -0.017248 0)
(0.059248 -0.020384 0)
(0.059248 -0.02352 0)
(0.059248 -0.026656 0)
(0.059248 -0.029792 0)
(0.059248 -0.032928 0)
(0.059248 -0.036064 0)
(0.059248 -0.0392 0)
(0.059248 -0.042336 0)
(0.059248 -0.045472 0)
(0.059248 -0.048608 0)
(0.059248 -0.051744 0)
(0.059248 -0.05488 0)
(0.059248 -0.058016 0)
(0.059248 -0.061152 0)
(0.059248 -0.064288 0)
(0.059248 -0.067424 0)
(0.059248 -0.07056 0)
(0.059248 -0.073696 0)
(0.059248 -0.076832 0)
(0.059248 -0.079968 0)
(0.059248 -0.083104 0)
(0.059248 -0.08624 0)
(0.059248 -0.089376 0)
(0.059248 -0.092512 0)
(0.059248 -0.095648 0)
(0.059248 -0.098784 0)
(0.059248 -0.10192 0)
(0.059248 -0.105056 0)
(0.059248 -0.108192 0)
(0.059248 -0.111328 0)
(0.059248 -0.114464 0)
(0.059248 -0.1176 0)
(0.059248 -0.120736 0)
(0.059248 -0.123872 0)
(0.059248 -0.127008 0)
(0.059248 -0.130144 0)
(0.059248 -0.13328 0)
(0.059248 -0.136416 0)
(0.059248 -0.139552 0)
(0.059248 -0.142688 0)
(0.059248 -0.145824 0)
(0.059248 -0.14896 0)
(0.059248 -0.152096 0)
(0.059248 -0.155232 0)
(0.07 -0.001568 0)
(0.07 -0.004704 0)
(0.07 -0.00784 0)
(0.07 -0.010976 0)
(0.07 -0.014112 0)
(0.07 -0.017248 0)
(0.07 -0.020384 0)
(0.07 -0.02352 0)
(0.07 -0.026656 0)
(0.07 -0.029792 0)
(0.07 -0.032928 0)
(0.07 -0.036064 0)
(0.07 -0.0392 0)
(0.07 -0.042336 0)
(0.07 -0.045472 0)
(0.07 -0.048608 0)
(0.07 -0.051744 0)
(0.07 -0.05488 0)
(0.07 -0.058016 0)
(0.07 -0.061152 0)
(0.07 -0.064288 0)
(0.07 -0.067424 0)
(0.07 -0.07056 0)
(0.07 -0.073696 0)
(0.07 -0.076832 0)
(0.07 -0.079968 0)
(0.07 -0.083104 0)
(0.07 -0.08624 0)
(0.07 -0.089376 0)
(0.07 -0.092512 0)
(0.07 -0.095648 0)
(0.07 -0.098784 0)
(0.07 -0.10192 0)
(0.07 -0.105056 0)
(0.07 -0.108192 0)
(0.07 -0.111328 0)
(0.07 -0.114464 0)
(0.07 -0.1176 0)
(0.07 -0.120736 0)
(0.07 -0.123872 0)
(0.07 -0.127008 0)
(0.07 -0.130144 0)
(0.07 -0.13328 0)
(0.07 -0.136416 0)
(0.07 -0.139552 0)
(0.07 -0.142688 0)
(0.07 -0.145824 0)
(0.07 -0.14896 0)
(0.07 -0.152096 0)
(0.07 -0.155232 0)
(0.081648 -0.001568 0)
(0.081648 -0.004704 0)
(0.081648 -0.00784 0)
(0.081648 -0.010976 0)
(0.081648 -0.014112 0)
(0.081648 -0.017248 0)
(0.081648 -0.020384 0)
(0.081648 -0.02352 0)
(0.081648 -0.026656 0)
(0.081648 -0.029792 0)
(0.081648 -0.032928 0)
(0.081648 -0.036064 0)
(0.081648 -0.0392 0)
(0.081648 -0.042336 0)
(0.081648 -0.045472 0)
(0.081648 -0.048608 0)
(0.081648 -0.051744 0)
(0.081648 -0.05488 0)
(0.081648 -0.058016 0)
(0.081648 -0.061152 0)
(0.081648 -0.064288 0)
(0.081648 -0.067424 0)
(0.081648 -0.07056 0)
(0.081648 -0.073696 0)
(0.081648 -0.076832 0)
(0.081648 -0.079968 0)
(0.081648 -0.083104 0)
(0.081648 -0.08624 0)
(0.081648 -0.089376 0)
(0.081648 -0.092512 0)
(0.081648 -0.095648 0)
(0.081648 -0.098784 0)
(0.081648 -0.10192 0)
(0.081648 -0.105056 0)
(0.081648 -0.108192 0)
(0.081648 -0.111328 0)
(0.081648 -0.114464 0)
(0.081648 -0.1176 0)
(0.081648 -0.120736 0)
(0.081648 -0.123872 0)
(0.081648 -0.127008 0)
(0.081648 -0.130144 0)
(0.081648 -0.13328 0)
(0.081648 -0.136416 0)
(0.081648 -0.139552 0)
(0.081648 -0.142688 0)
(0.081648 -0.145824 0)
(0.081648 -0.14896 0)
(0.081648 -0.152096 0)
(0.081648 -0.155232 0)
(0.094192 -0.001568 0)
(0.094192 -0.004704 0)
(0.094192 -0.00784 0)
(0.094192 -0.010976 0)
(0.094192 -0.014112 0)
(0.094192 -0.017248 0)
(0.094192 -0.020384 0)
(0.094192 -0.02352 0)
(0.094192 -0.026656 0)
(0.094192 -0.029792 0)
(0.094192 -0.032928 0)
(0.094192 -0.036064 0)
(0.094192 -0.0392 0)
(0.094192 -0.042336 0)
(0.094192 -0.045472 0)
(0.094192 -0.048608 0)
(0.094192 -0.051744 0)
(0.094192 -0.05488 0)
(0.094192 -0.058016 0)
(0.094192 -0.061152 0)
(0.094192 -0.064288 0)
(0.094192 -0.067424 0)
(0.094192 -0.07056 0)
(0.094192 -0.073696 0)
(0.094192 -0.076832 0)
(0.094192 -0.079968 0)
(0.094192 -0.083104 0)
(0.094192 -0.08624 0)
(0.094192 -0.089376 0)
(0.094192 -0.092512 0)
(0.094192 -0.095648 0)
(0.094192 -0.098784 0)
(0.094192 -0.10192 0)
(0.094192 -0.105056 0)
(0.094192 -0.108192 0)
(0.094192 -0.111328 0)
(0.094192 -0.114464 0)
(0.094192 -0.1176 0)
(0.094192 -0.120736 0)
(0.094192 -0.123872 0)
(0.094192 -0.127008 0)
(0.094192 -0.130144 0)
(0.094192 -0.13328 0)
(0.094192 -0.136416 0)
(0.094192 -0.139552 0)
(0.094192 -0.142688 0)
(0.094192 -0.145824 0)
(0.094192 -0.14896 0)
(0.094192 -0.152096 0)
(0.094192 -0.155232 0)
(0.107632 -0.001568 0)
(0.107632 -0.004704 0)
(0.107632 -0.00784 0)
(0.107632 -0.010976 0)
(0.107632 -0.014112 0)
(0.107632 -0.017248 0)
(0.107632 -0.020384 0)
(0.107632 -0.02352 0)
(0.107632 -0.026656 0)
(0.107632 -0.029792 0)
(0.107632 -0.032928 0)
(0.107632 -0.036064 0)
(0.107632 -0.0392 0)
(0.107632 -0.042336 0)
(0.107632 -0.045472 0)
(0.107632 -0.048608 0)
(0.107632 -0.051744 0)
(0.107632 -0.05488 0)
(0.107632 -0.058016 0)
(0.107632 -0.061152 0)
(0.107632 -0.064288 0)
(0.107632 -0.067424 0)
(0.107632 -0.07056 0)
(0.107632 -0.073696 0)
(0.107632 -0.076832 0)
(0.107632 -0.079968 0)
(0.107632 -0.083104 0)
(0.107632 -0.08624 0)
(0.107632 -0.089376 0)
(0.107632 -0.092512 0)
(0.107632 -0.095648 0)
(0.107632 -0.098784 0)
(0.107632 -0.10192 0)
(0.107632 -0.105056 0)
(0.107632 -0.108192 0)
(0.107632 -0.111328 0)
(0.107632 -0.114464 0)
(0.107632 -0.1176 0)
(0.107632 -0.120736 0)
(0.107632 -0.123872 0)
(0.107632 -0.127008 0)
(0.107632 -0.130144 0)
(0.107632 -0.13328 0)
(0.107632 -0.136416 0)
(0.107632 -0.139552 0)
(0.107632 -0.142688 0)
(0.107632 -0.145824 0)
(0.107632 -0.14896 0)
(0.107632 -0.152096 0)
(0.107632 -0.155232 0)
(0.121968 -0.001568 0)
(0.121968 -0.004704 0)
(0.121968 -0.00784 0)
(0.121968 -0.010976 0)
(0.121968 -0.014112 0)
(0.121968 -0.017248 0)
(0.121968 -0.020384 0)
(0.121968 -0.02352 0)
(0.121968 -0.026656 0)
(0.121968 -0.029792 0)
(0.121968 -0.032928 0)
(0.121968 -0.036064 0)
(0.121968 -0.0392 0)
(0.121968 -0.042336 0)
(0.121968 -0.045472 0)
(0.121968 -0.048608 0)
(0.121968 -0.051744 0)
(0.121968 -0.05488 0)
(0.121968 -0.058016 0)
(0.121968 -0.061152 0)
(0.121968 -0.064288 0)
(0.121968 -0.067424 0)
(0.121968 -0.07056 0)
(0.121968 -0.073696 0)
(0.121968 -0.076832 0)
(0.121968 -0.079968 0)
(0.121968 -0.083104 0)
(0.121968 -0.08624 0)
(0.121968 -0.089376 0)
(0.121968 -0.092512 0)
(0.121968 -0.095648 0)
(0.121968 -0.098784 0)
(0.121968 -0.10192 0)
(0.121968 -0.105056 0)
(0.121968 -0.108192 0)
(0.121968 -0.111328 0)
(0.121968 -0.114464 0)
(0.121968 -0.1176 0)
(0.121968 -0.120736 0)
(0.121968 -0.123872 0)
(0.121968 -0.127008 0)
(0.121968 -0.130144 0)
(0.121968 -0.13328 0)
(0.121968 -0.136416 0)
(0.121968 -0.139552 0)
(0.121968 -0.142688 0)
(0.121968 -0.145824 0)
(0.121968 -0.14896 0)
(0.121968 -0.152096 0)
(0.121968 -0.155232 0)
(0.1372 -0.001568 0)
(0.1372 -0.004704 0)
(0.1372 -0.00784 0)
(0.1372 -0.010976 0)
(0.1372 -0.014112 0)
(0.1372 -0.017248 0)
(0.1372 -0.020384 0)
(0.1372 -0.02352 0)
(0.1372 -0.026656 0)
(0.1372 -0.029792 0)
(0.1372 -0.032928 0)
(0.1372 -0.036064 0)
(0.1372 -0.0392 0)
(0.1372 -0.042336 0)
(0.1372 -0.045472 0)
(0.1372 -0.048608 0)
(0.1372 -0.051744 0)
(0.1372 -0.05488 0)
(0.1372 -0.058016 0)
(0.1372 -0.061152 0)
(0.1372 -0.064288 0)
(0.1372 -0.067424 0)
(0.1372 -0.07056 0)
(0.1372 -0.073696 0)
(0.1372 -0.076832 0)
(0.1372 -0.079968 0)
(0.1372 -0.083104 0)
(0.1372 -0.08624 0)
(0.1372 -0.089376 0)
(0.1372 -0.092512 0)
(0.1372 -0.095648 0)
(0.1372 -0.098784 0)
(0.1372 -0.10192 0)
(0.1372 -0.105056 0)
(0.1372 -0.108192 0)
(0.1372 -0.111328 0)
(0.1372 -0.114464 0)
(0.1372 -0.1176 0)
(0.1372 -0.120736 0)
(0.1372 -0.123872 0)
(0.1372 -0.127008 0)
(0.1372 -0.130144 0)
(0.1372 -0.13328 0)
(0.1372 -0.136416 0)
(0.1372 -0.139552 0)
(0.1372 -0.142688 0)
(0.1372 -0.145824 0)
(0.1372 -0.14896 0)
(0.1372 -0.152096 0)
(0.1372 -0.155232 0)
(0.153328 -0.001568 0)
(0.153328 -0.004704 0)
(0.153328 -0.00784 0)
(0.153328 -0.010976 0)
(0.153328 -0.014112 0)
(0.153328 -0.017248 0)
(0.153328 -0.020384 0)
(0.153328 -0.02352 0)
(0.153328 -0.026656 0)
(0.153328 -0.029792 0)
(0.153328 -0.032928 0)
(0.153328 -0.036064 0)
(0.153328 -0.0392 0)
(0.153328 -0.042336 0)
(0.153328 -0.045472 0)
(0.153328 -0.048608 0)
(0.153328 -0.051744 0)
(0.153328 -0.05488 0)
(0.153328 -0.058016 0)
(0.153328 -0.061152 0)
(0.153328 -0.064288 0)
(0.153328 -0.067424 0)
(0.153328 -0.07056 0)
(0.153328 -0.073696 0)
(0.153328 -0.076832 0)
(0.153328 -0.079968 0)
(0.153328 -0.083104 0)
(0.153328 -0.08624 0)
(0.153328 -0.089376 0)
(0.153328 -0.092512 0)
(0.153328 -0.095648 0)
(0.153328 -0.098784 0)
(0.153328 -0.10192 0)
(0.153328 -0.105056 0)
(0.153328 -0.108192 0)
(0.153328 -0.111328 0)
(0.153328 -0.114464 0)
(0.153328 -0.1176 0)
(0.153328 -0.120736 0)
(0.153328 -0.123872 0)
(0.153328 -0.127008 0)
(0.153328 -0.130144 0)
(0.153328 -0.13328 0)
(0.153328 -0.136416 0)
(0.153328 -0.139552 0)
(0.153328 -0.142688 0)
(0.153328 -0.145824 0)
(0.153328 -0.14896 0)
(0.153328 -0.152096 0)
(0.153328 -0.155232 0)
(0.170352 -0.001568 0)
(0.170352 -0.004704 0)
(0.170352 -0.00784 0)
(0.170352 -0.010976 0)
(0.170352 -0.014112 0)
(0.170352 -0.017248 0)
(0.170352 -0.020384 0)
(0.170352 -0.02352 0)
(0.170352 -0.026656 0)
(0.170352 -0.029792 0)
(0.170352 -0.032928 0)
(0.170352 -0.036064 0)
(0.170352 -0.0392 0)
(0.170352 -0.042336 0)
(0.170352 -0.045472 0)
(0.170352 -0.048608 0)
(0.170352 -0.051744 0)
(0.170352 -0.05488 0)
(0.170352 -0.058016 0)
(0.170352 -0.061152 0)
(0.170352 -0.064288 0)
(0.170352 -0.067424 0)
(0.170352 -0.07056 0)
(0.170352 -0.073696 0)
(0.170352 -0.076832 0)
(0.170352 -0.079968 0)
(0.170352 -0.083104 0)
(0.170352 -0.08624 0)
(0.170352 -0.089376 0)
(0.170352 -0.092512 0)
(0.170352 -0.095648 0)
(0.170352 -0.098784 0)
(0.170352 -0.10192 0)
(0.170352 -0.105056 0)
(0.170352 -0.108192 0)
(0.170352 -0.111328 0)
(0.170352 -0.114464 0)
(0.170352 -0.1176 0)
(0.170352 -0.120736 0)
(0.170352 -0.123872 0)
(0.170352 -0.127008 0)
(0.170352 -0.130144 0)
(0.170352 -0.13328 0)
(0.170352 -0.136416 0)
(0.170352 -0.139552 0)
(0.170352 -0.142688 0)
(0.170352 -0.145824 0)
(0.170352 -0.14896 0)
(0.170352 -0.152096 0)
(0.170352 -0.155232 0)
(0.188272 -0.001568 0)
(0.188272 -0.004704 0)
(0.188272 -0.00784 0)
(0.188272 -0.010976 0)
(0.188272 -0.014112 0)
(0.188272 -0.017248 0)
(0.188272 -0.020384 0)
(0.188272 -0.02352 0)
(0.188272 -0.026656 0)
(0.188272 -0.029792 0)
(0.188272 -0.032928 0)
(0.188272 -0.036064 0)
(0.188272 -0.0392 0)
(0.188272 -0.042336 0)
(0.188272 -0.045472 0)
(0.188272 -0.048608 0)
(0.188272 -0.051744 0)
(0.188272 -0.05488 0)
(0.188272 -0.058016 0)
(0.188272 -0.061152 0)
(0.188272 -0.064288 0)
(0.188272 -0.067424 0)
(0.188272 -0.07056 0)
(0.188272 -0.073696 0)
(0.188272 -0.076832 0)
(0.188272 -0.079968 0)
(0.188272 -0.083104 0)
(0.188272 -0.08624 0)
(0.188272 -0.089376 0)
(0.188272 -0.092512 0)
(0.188272 -0.095648 0)
(0.188272 -0.098784 0)
(0.188272 -0.10192 0)
(0.188272 -0.105056 0)
(0.188272 -0.108192 0)
(0.188272 -0.111328 0)
(0.188272 -0.114464 0)
(0.188272 -0.1176 0)
(0.188272 -0.120736 0)
(0.188272 -0.123872 0)
(0.188272 -0.127008 0)
(0.188272 -0.130144 0)
(0.188272 -0.13328 0)
(0.188272 -0.136416 0)
(0.188272 -0.139552 0)
(0.188272 -0.142688 0)
(0.188272 -0.145824 0)
(0.188272 -0.14896 0)
(0.188272 -0.152096 0)
(0.188272 -0.155232 0)
(0.207088 -0.001568 0)
(0.207088 -0.004704 0)
(0.207088 -0.00784 0)
(0.207088 -0.010976 0)
(0.207088 -0.014112 0)
(0.207088 -0.017248 0)
(0.207088 -0.020384 0)
(0.207088 -0.02352 0)
(0.207088 -0.026656 0)
(0.207088 -0.029792 0)
(0.207088 -0.032928 0)
(0.207088 -0.036064 0)
(0.207088 -0.0392 0)
(0.207088 -0.042336 0)
(0.207088 -0.045472 0)
(0.207088 -0.048608 0)
(0.207088 -0.051744 0)
(0.207088 -0.05488 0)
(0.207088 -0.058016 0)
(0.207088 -0.061152 0)
(0.207088 -0.064288 0)
(0.207088 -0.067424 0)
(0.207088 -0.07056 0)
(0.207088 -0.073696 0)
(0.207088 -0.076832 0)
(0.207088 -0.079968 0)
(0.207088 -0.083104 0)
(0.207088 -0.08624 0)
(0.207088 -0.089376 0)
(0.207088 -0.092512 0)
(0.207088 -0.095648 0)
(0.207088 -0.098784 0)
(0.207088 -0.10192 0)
(0.207088 -0.105056 0)
(0.207088 -0.108192 0)
(0.207088 -0.111328 0)
(0.207088 -0.114464 0)
(0.207088 -0.1176 0)
(0.207088 -0.120736 0)
(0.207088 -0.123872 0)
(0.207088 -0.127008 0)
(0.207088 -0.130144 0)
(0.207088 -0.13328 0)
(0.207088 -0.136416 0)
(0.207088 -0.139552 0)
(0.207088 -0.142688 0)
(0.207088 -0.145824 0)
(0.207088 -0.14896 0)
(0.207088 -0.152096 0)
(0.207088 -0.155232 0)
(0.2268 -0.001568 0)
(0.2268 -0.004704 0)
(0.2268 -0.00784 0)
(0.2268 -0.010976 0)
(0.2268 -0.014112 0)
(0.2268 -0.017248 0)
(0.2268 -0.020384 0)
(0.2268 -0.02352 0)
(0.2268 -0.026656 0)
(0.2268 -0.029792 0)
(0.2268 -0.032928 0)
(0.2268 -0.036064 0)
(0.2268 -0.0392 0)
(0.2268 -0.042336 0)
(0.2268 -0.045472 0)
(0.2268 -0.048608 0)
(0.2268 -0.051744 0)
(0.2268 -0.05488 0)
(0.2268 -0.058016 0)
(0.2268 -0.061152 0)
(0.2268 -0.064288 0)
(0.2268 -0.067424 0)
(0.2268 -0.07056 0)
(0.2268 -0.073696 0)
(0.2268 -0.076832 0)
(0.2268 -0.079968 0)
(0.2268 -0.083104 0)
(0.2268 -0.08624 0)
(0.2268 -0.089376 0)
(0.2268 -0.092512 0)
(0.2268 -0.095648 0)
(0.2268 -0.098784 0)
(0.2268 -0.10192 0)
(0.2268 -0.105056 0)
(0.2268 -0.108192 0)
(0.2268 -0.111328 0)
(0.2268 -0.114464 0)
(0.2268 -0.1176 0)
(0.2268 -0.120736 0)
(0.2268 -0.123872 0)
(0.2268 -0.127008 0)
(0.2268 -0.130144 0)
(0.2268 -0.13328 0)
(0.2268 -0.136416 0)
(0.2268 -0.139552 0)
(0.2268 -0.142688 0)
(0.2268 -0.145824 0)
(0.2268 -0.14896 0)
(0.2268 -0.152096 0)
(0.2268 -0.155232 0)
(0.247408 -0.001568 0)
(0.247408 -0.004704 0)
(0.247408 -0.00784 0)
(0.247408 -0.010976 0)
(0.247408 -0.014112 0)
(0.247408 -0.017248 0)
(0.247408 -0.020384 0)
(0.247408 -0.02352 0)
(0.247408 -0.026656 0)
(0.247408 -0.029792 0)
(0.247408 -0.032928 0)
(0.247408 -0.036064 0)
(0.247408 -0.0392 0)
(0.247408 -0.042336 0)
(0.247408 -0.045472 0)
(0.247408 -0.048608 0)
(0.247408 -0.051744 0)
(0.247408 -0.05488 0)
(0.247408 -0.058016 0)
(0.247408 -0.061152 0)
(0.247408 -0.064288 0)
(0.247408 -0.067424 0)
(0.247408 -0.07056 0)
(0.247408 -0.073696 0)
(0.247408 -0.076832 0)
(0.247408 -0.079968 0)
(0.247408 -0.083104 0)
(0.247408 -0.08624 0)
(0.247408 -0.089376 0)
(0.247408 -0.092512 0)
(0.247408 -0.095648 0)
(0.247408 -0.098784 0)
(0.247408 -0.10192 0)
(0.247408 -0.105056 0)
(0.247408 -0.108192 0)
(0.247408 -0.111328 0)
(0.247408 -0.114464 0)
(0.247408 -0.1176 0)
(0.247408 -0.120736 0)
(0.247408 -0.123872 0)
(0.247408 -0.127008 0)
(0.247408 -0.130144 0)
(0.247408 -0.13328 0)
(0.247408 -0.136416 0)
(0.247408 -0.139552 0)
(0.247408 -0.142688 0)
(0.247408 -0.145824 0)
(0.247408 -0.14896 0)
(0.247408 -0.152096 0)
(0.247408 -0.155232 0)
(0.268912 -0.001568 0)
(0.268912 -0.004704 0)
(0.268912 -0.00784 0)
(0.268912 -0.010976 0)
(0.268912 -0.014112 0)
(0.268912 -0.017248 0)
(0.268912 -0.020384 0)
(0.268912 -0.02352 0)
(0.268912 -0.026656 0)
(0.268912 -0.029792 0)
(0.268912 -0.032928 0)
(0.268912 -0.036064 0)
(0.268912 -0.0392 0)
(0.268912 -0.042336 0)
(0.268912 -0.045472 0)
(0.268912 -0.048608 0)
(0.268912 -0.051744 0)
(0.268912 -0.05488 0)
(0.268912 -0.058016 0)
(0.268912 -0.061152 0)
(0.268912 -0.064288 0)
(0.268912 -0.067424 0)
(0.268912 -0.07056 0)
(0.268912 -0.073696 0)
(0.268912 -0.076832 0)
(0.268912 -0.079968 0)
(0.268912 -0.083104 0)
(0.268912 -0.08624 0)
(0.268912 -0.089376 0)
(0.268912 -0.092512 0)
(0.268912 -0.095648 0)
(0.268912 -0.098784 0)
(0.268912 -0.10192 0)
(0.268912 -0.105056 0)
(0.268912 -0.108192 0)
(0.268912 -0.111328 0)
(0.268912 -0.114464 0)
(0.268912 -0.1176 0)
(0.268912 -0.120736 0)
(0.268912 -0.123872 0)
(0.268912 -0.127008 0)
(0.268912 -0.130144 0)
(0.268912 -0.13328 0)
(0.268912 -0.136416 0)
(0.268912 -0.139552 0)
(0.268912 -0.142688 0)
(0.268912 -0.145824 0)
(0.268912 -0.14896 0)
(0.268912 -0.152096 0)
(0.268912 -0.155232 0)
(0.291312 -0.001568 0)
(0.291312 -0.004704 0)
(0.291312 -0.00784 0)
(0.291312 -0.010976 0)
(0.291312 -0.014112 0)
(0.291312 -0.017248 0)
(0.291312 -0.020384 0)
(0.291312 -0.02352 0)
(0.291312 -0.026656 0)
(0.291312 -0.029792 0)
(0.291312 -0.032928 0)
(0.291312 -0.036064 0)
(0.291312 -0.0392 0)
(0.291312 -0.042336 0)
(0.291312 -0.045472 0)
(0.291312 -0.048608 0)
(0.291312 -0.051744 0)
(0.291312 -0.05488 0)
(0.291312 -0.058016 0)
(0.291312 -0.061152 0)
(0.291312 -0.064288 0)
(0.291312 -0.067424 0)
(0.291312 -0.07056 0)
(0.291312 -0.073696 0)
(0.291312 -0.076832 0)
(0.291312 -0.079968 0)
(0.291312 -0.083104 0)
(0.291312 -0.08624 0)
(0.291312 -0.089376 0)
(0.291312 -0.092512 0)
(0.291312 -0.095648 0)
(0.291312 -0.098784 0)
(0.291312 -0.10192 0)
(0.291312 -0.105056 0)
(0.291312 -0.108192 0)
(0.291312 -0.111328 0)
(0.291312 -0.114464 0)
(0.291312 -0.1176 0)
(0.291312 -0.120736 0)
(0.291312 -0.123872 0)
(0.291312 -0.127008 0)
(0.291312 -0.130144 0)
(0.291312 -0.13328 0)
(0.291312 -0.136416 0)
(0.291312 -0.139552 0)
(0.291312 -0.142688 0)
(0.291312 -0.145824 0)
(0.291312 -0.14896 0)
(0.291312 -0.152096 0)
(0.291312 -0.155232 0)
(0.314608 -0.001568 0)
(0.314608 -0.004704 0)
(0.314608 -0.00784 0)
(0.314608 -0.010976 0)
(0.314608 -0.014112 0)
(0.314608 -0.017248 0)