/*--------------------------------*- C++ -*----------------------------------*\
| =========                 |                                                 |
| \\      /  F ield         | OpenFOAM: The Open Source CFD Toolbox           |
|  \\    /   O peration     | Version:  v2006                                 |
|   \\  /    A nd           | Website:  www.openfoam.com                      |
|    \\/     M anipulation  |                                                 |
\*---------------------------------------------------------------------------*/
FoamFile
{
    version     2.0;
    format      ascii;
    class       surfaceScalarField;
    location    "11.9";
    object      alphaPhi0.water;
}
// * * * * * * * * * * * * * * * * * * * * * * * * * * * * * * * * * * * * * //

dimensions      [0 3 -1 0 0 0 0];
oriented        oriented;


internalField   nonuniform List<scalar> 
299200
(
-0.000145759
0.000145759
1.56068e-05
-0.000161366
0.000217079
-0.000201472
0.000360491
-0.000143412
0.000443101
-8.26104e-05
0.000482297
-3.91964e-05
0.000490459
-8.16126e-06
0.000479066
1.13931e-05
0.00045487
2.41955e-05
0.00042282
3.20498e-05
0.000385811
3.7009e-05
0.000345247
4.05645e-05
0.000301643
4.36038e-05
0.000255329
4.63136e-05
0.000206517
4.88124e-05
0.000155424
5.10925e-05
0.000102241
5.31833e-05
4.71913e-05
5.50497e-05
-9.41382e-06
5.66051e-05
-6.74809e-05
5.80671e-05
-0.000127034
5.95532e-05
-0.00018797
6.09359e-05
-0.000250404
6.24339e-05
-0.000314592
6.41884e-05
-0.000380614
6.6022e-05
-0.000448864
6.82497e-05
-0.000519536
7.0672e-05
-0.000593002
7.34656e-05
-0.000669713
7.67117e-05
-0.000750009
8.0296e-05
-0.000834255
8.4246e-05
-0.000922858
8.86023e-05
-0.00101631
9.34571e-05
-0.00111512
9.88049e-05
-0.0012198
0.000104685
-0.00133102
0.000111212
-0.00144912
0.000118108
-0.00157452
0.000125394
-0.00170758
0.000133062
-0.0018487
0.00014112
-0.0019982
0.0001495
-0.00215651
0.00015831
-0.0023233
0.000166788
-0.00249805
0.000174748
-0.00268021
0.000182166
-0.00286896
0.000188748
-0.00306345
0.000194489
-0.0032627
0.000199246
-0.00346606
0.000203365
-0.00367289
0.000206832
-0.00388302
0.000210124
-0.00409677
0.000213752
-0.004315
0.000218228
-0.00453883
0.00022383
-0.00476948
0.00023065
-0.00500786
0.000238384
-0.00525471
0.000246848
-0.00550981
0.0002551
-0.00577237
0.000262557
-0.0060406
0.000268237
-0.00631212
0.000271514
-0.00658441
0.000272298
-0.00685499
0.000270579
-0.00712161
0.000266621
-0.00738243
0.00026082
-0.0076361
0.000253665
-0.00788192
0.000245815
-0.00811961
0.000237697
-0.00834941
0.000229802
-0.008572
0.000222587
-0.00878817
0.000216165
-0.00899889
0.000210723
-0.00920523
0.000206345
-0.00940791
0.000202673
-0.00960781
0.000199901
-0.00980541
0.000197602
-0.0100011
0.000195677
-0.010195
0.000193876
-0.0103871
0.000192088
-0.0105773
0.000190223
-0.0107654
0.000188095
-0.0109511
0.000185766
-0.0111344
0.000183249
-0.0113149
0.000180562
-0.0114926
0.000177644
-0.011667
0.000174443
-0.011838
0.000170996
-0.0120053
0.00016731
-0.0121688
0.000163424
-0.0123282
0.000159387
-0.0124834
0.000155282
-0.0126347
0.000151299
-0.0127824
0.000147683
-0.0129271
0.000144652
-0.0130696
0.00014252
-0.0132111
0.000141492
-0.0133527
0.000141622
-0.0134955
0.000142752
-0.01364
0.000144501
-0.0137863
0.000146323
-0.0139339
0.000147612
-0.0140817
0.000147821
-0.0142282
0.000146515
-0.0143716
0.000143365
-0.0145097
0.000138131
-0.0146402
0.000130517
-0.0147603
0.000120014
-0.0148662
0.000105963
-0.014954
8.77952e-05
-0.0150193
6.53131e-05
-0.0150584
3.9036e-05
-0.0150687
1.03809e-05
-0.0150504
-1.83556e-05
-0.0150075
-4.28969e-05
-0.0149486
-5.88775e-05
-0.0148855
-6.30969e-05
-0.0148311
-5.44009e-05
-0.0147972
-3.39013e-05
-0.014792
-5.19441e-06
-0.0148176
2.56174e-05
-0.014872
5.44134e-05
-0.0149493
7.72372e-05
-0.0150422
9.29571e-05
-0.0151447
0.000102424
-0.015252
0.000107353
-0.0153614
0.000109349
-0.0154708
0.000109468
-0.0155791
0.000108256
-0.015685
0.000105918
-0.0157875
0.000102515
-0.0158857
9.81403e-05
-0.0159784
9.27736e-05
-0.0160648
8.64125e-05
-0.0161441
7.92137e-05
-0.0162154
7.13391e-05
-0.0162784
6.29553e-05
-0.0163325
5.41473e-05
-0.016377
4.45353e-05
-0.0164111
3.40207e-05
-0.0164345
2.34774e-05
-0.0164493
1.47371e-05
-0.0164586
9.33421e-06
-0.0164652
6.631e-06
-0.0164704
5.18187e-06
-0.0164735
3.0802e-06
-0.0164713
-2.21516e-06
-0.0164587
-1.26163e-05
-0.0164282
-3.04982e-05
-0.0163714
-5.67263e-05
-0.0162824
-8.90783e-05
-0.0161622
-0.00012015
-0.016025
-0.000137226
-0.0158981
-0.000126924
-0.0158135
-8.45652e-05
-0.0157927
-2.07954e-05
-0.0158431
5.04096e-05
-0.0159643
0.000121155
-0.0161509
0.000186657
-0.016384
0.000233103
-0.0166293
0.000245266
-0.0168481
0.000218753
-0.0169999
0.000151877
-0.0170669
6.69329e-05
-0.0170647
-2.1869e-06
-0.0170264
-3.82529e-05
-0.0169772
-4.92557e-05
-0.0169286
-4.85924e-05
-0.016886
-4.26222e-05
-0.0168511
-3.48891e-05
-0.0168239
-2.71181e-05
-0.0168063
-1.76571e-05
-0.0168001
-6.1462e-06
-0.0168069
6.79407e-06
-0.0168268
1.98528e-05
-0.0168571
3.0314e-05
-0.0168936
3.65465e-05
-0.0169314
3.77312e-05
-0.0169658
3.4396e-05
-0.0169938
2.80621e-05
-0.0170142
2.03895e-05
-0.0170267
1.24629e-05
-0.0170314
4.719e-06
-0.0170287
-2.68737e-06
-0.017019
-9.76429e-06
-0.0170024
-1.65767e-05
-0.0169792
-2.31427e-05
-0.0169498
-2.94441e-05
-0.0169143
-3.54647e-05
-0.0168731
-4.11954e-05
-0.0168265
-4.66309e-05
-0.0167747
-5.17782e-05
-0.0167181
-5.66634e-05
-0.0166568
-6.13101e-05
-0.016591
-6.57165e-05
-0.0165212
-6.98583e-05
-0.0164475
-7.37104e-05
-0.0163702
-7.72562e-05
-0.0162897
-8.04685e-05
-0.0162065
-8.32916e-05
-0.0161208
-8.56533e-05
-0.0160333
-8.74906e-05
-0.0159445
-8.87726e-05
-0.015855
-8.9497e-05
-0.0157654
-8.96648e-05
-0.0156761
-8.93133e-05
-0.0155875
-8.8565e-05
-0.0154999
-8.75908e-05
-0.0154134
-8.65492e-05
-0.0153277
-8.56137e-05
-0.0152427
-8.49955e-05
-0.0151579
-8.485e-05
-0.0150726
-8.52635e-05
-0.0149863
-8.63252e-05
-0.0148983
-8.80227e-05
-0.014808
-9.02343e-05
-0.0147153
-9.27761e-05
-0.0146198
-9.54799e-05
-0.0145216
-9.82066e-05
-0.0144208
-0.000100805
-0.0143177
-0.000103087
-0.0142128
-0.000104942
-0.0141064
-0.000106397
-0.0139989
-0.00010744
-0.0138908
-0.000108088
-0.0137823
-0.000108478
-0.0136736
-0.000108761
-0.0135646
-0.000108958
-0.0134552
-0.000109406
-0.0133446
-0.000110649
-0.0132313
-0.00011327
-0.0131127
-0.00011856
-0.0129842
-0.000128509
-0.0128388
-0.00014546
-0.0126678
-0.000170973
-0.0124661
-0.00020171
-0.0122437
-0.000222374
-0.012041
-0.000202729
-0.0119427
-9.8324e-05
-0.0120575
0.000114794
-0.0124465
0.000389037
-0.0130544
0.000607948
-0.0137288
0.00067437
-0.0143385
0.000609731
-0.0148167
0.000478177
-0.0151369
0.000320144
-0.015306
0.000169089
-0.0153628
5.68921e-05
-0.0153637
8.98143e-07
-0.0153553
-8.40632e-06
-0.0153739
1.85658e-05
-0.0154326
5.86947e-05
-0.0155301
9.74917e-05
-0.0156529
0.000122796
-0.015785
0.000132081
-0.0159126
0.000127681
-0.0160306
0.000117996
-0.0161416
0.000110943
-0.0162526
0.000110997
-0.0163716
0.000119002
-0.0165048
0.000133194
-0.0166583
0.000153543
-0.0168386
0.0001803
-0.017052
0.000213354
-0.0173027
0.000250769
-0.0175917
0.000288943
-0.0179126
0.000320885
-0.0182525
0.000339939
-0.0185958
0.000343244
-0.0189306
0.000334833
-0.0192584
0.000327777
-0.0196033
0.000344983
-0.0199997
0.00039633
-0.0204756
0.000475897
-0.0210321
0.000556571
-0.0216386
0.00060647
-0.022252
0.000613374
-0.0228418
0.000589831
-0.0233935
0.000551633
-0.0239033
0.000509842
-0.0243723
0.00046896
-0.0248031
0.000430869
-0.0252015
0.000398335
-0.0255757
0.000374268
-0.025936
0.000360237
-0.0262919
0.000355942
-0.0266525
0.000360605
-0.0270241
0.000371539
-0.0274102
0.000386104
-0.0278117
0.000401584
-0.0282286
0.000416875
-0.0286603
0.000431664
-0.0291061
0.000445848
-0.0295654
0.000459252
-0.030037
0.000471654
-0.0305196
0.000482567
-0.0310106
0.000490993
-0.0315069
0.000496301
-0.0320046
0.000497685
-0.0324998
0.000495232
-0.0329895
0.000489653
-0.0334715
0.000482031
-0.0339451
0.00047356
-0.0344099
0.000464891
-0.0348667
0.00045672
-0.035316
0.000449381
-0.0357587
0.000442675
-0.0361952
0.000436528
-0.0366259
0.000430633
-0.0370504
0.000424471
-0.0374681
0.00041778
-0.0378785
0.00041033
-0.0382805
0.000402074
-0.0386738
0.000393259
-0.0390579
0.000384118
-0.0394327
0.000374785
-0.0397983
0.000365599
-0.040155
0.000356735
-0.0405032
0.000348209
-0.0408432
0.000339932
-0.041175
0.00033178
-0.0414986
0.000323613
-0.0418138
0.00031527
-0.0421204
0.00030653
-0.0424176
0.00029722
-0.0427049
0.000287287
-0.0429816
0.0002767
-0.0432469
0.000265354
-0.0435002
0.000253237
-0.0437407
0.000240492
-0.043968
0.000227361
-0.044182
0.000214024
-0.0443826
0.000200536
-0.0445696
0.00018707
-0.0447434
0.000173743
-0.044904
0.000160623
-0.0450517
0.000147732
-0.0451869
0.00013511
-0.0453097
0.000122847
-0.0454207
0.000110984
-0.0455202
9.94794e-05
-0.0456085
8.82909e-05
-0.0456858
7.73401e-05
-0.0457524
6.65672e-05
-0.0458083
5.59207e-05
-0.0458536
4.53502e-05
-0.0458885
3.48457e-05
-0.0459129
2.44488e-05
-0.0459271
1.41484e-05
-0.0459308
3.67415e-06
-0.0459235
-7.24283e-06
-0.0459061
-1.74553e-05
-0.0458782
-2.78653e-05
-0.04584
-3.82207e-05
-0.0457916
-4.83835e-05
-0.0457332
-5.83916e-05
-0.0456651
-6.81181e-05
-0.0455875
-7.76228e-05
-0.0455006
-8.68029e-05
-0.0454047
-9.59884e-05
-0.0452998
-0.000104898
-0.0451863
-0.000113435
-0.0450646
-0.000121691
-0.044935
-0.000129667
-0.0447976
-0.000137392
-0.0446527
-0.000144879
-0.0445006
-0.000152128
-0.0443414
-0.000159211
-0.0441752
-0.000166167
-0.0440022
-0.000173024
-0.0438223
-0.000179917
-0.0436353
-0.000186909
-0.0434412
-0.000194137
-0.0432395
-0.00020172
-0.0430296
-0.000209838
-0.0428109
-0.000218713
-0.0425824
-0.00022849
-0.0423432
-0.000239211
-0.0420924
-0.000250858
-0.0418291
-0.000263296
-0.0415528
-0.00027628
-0.0412634
-0.000289433
-0.0409611
-0.000302267
-0.0406468
-0.000314273
-0.0403218
-0.000324988
-0.0399878
-0.000334048
-0.0396466
-0.000341221
-0.0393002
-0.00034641
-0.0389506
-0.000349602
-0.0385997
-0.000350809
-0.0382496
-0.000350157
-0.0379018
-0.000347777
-0.037558
-0.000343822
-0.0372194
-0.000338598
-0.036887
-0.000332389
-0.0365615
-0.000325468
-0.0362435
-0.000318084
-0.035933
-0.00031043
-0.0356304
-0.000302593
-0.0353359
-0.000294529
-0.0350498
-0.000286087
-0.0347728
-0.00027706
-0.0345055
-0.000267245
-0.034249
-0.000256484
-0.0340044
-0.000244654
-0.0337728
-0.000231568
-0.033556
-0.000216823
-0.0333563
-0.000199681
-0.0331771
-0.000179193
-0.0330225
-0.000154625
-0.0328964
-0.000126077
-0.0328013
-9.50752e-05
-0.0327366
-6.47074e-05
-0.0326975
-3.91147e-05
-0.0326744
-2.308e-05
-0.0326541
-2.03386e-05
-0.032623
-3.10947e-05
-0.0325702
-5.27748e-05
-0.0324918
-7.83923e-05
-0.0323912
-0.000100672
-0.0322749
-0.000116222
-0.0321494
-0.000125533
-0.0320182
-0.000131163
-0.0318823
-0.000135931
-0.0317405
-0.00014182
-0.0315909
-0.000149597
-0.0314318
-0.000159048
-0.0312623
-0.000169533
-0.0310817
-0.00018057
-0.0308897
-0.000192027
-0.030686
-0.000203718
-0.030471
-0.000214979
-0.0302455
-0.000225476
-0.030008
-0.000237569
-0.0297498
-0.000258209
-0.029453
-0.00029673
-0.0290952
-0.00035782
-0.0286603
-0.000434956
-0.0281468
-0.000513474
-0.0275707
-0.000576112
-0.0269571
-0.000613584
-0.02633
-0.000627116
-0.0257057
-0.000624259
-0.0250924
-0.000613301
-0.0244924
-0.000600007
-0.0239052
-0.000587202
-0.0233294
-0.000575765
-0.0227638
-0.000565675
-0.0222071
-0.000556623
-0.0216589
-0.000548254
-0.0211187
-0.00054023
-0.0205864
-0.000532242
-0.0200624
-0.00052401
-0.0195471
-0.00051532
-0.019041
-0.000506052
-0.0185448
-0.000496193
-0.018059
-0.000485819
-0.017584
-0.000475048
-0.01712
-0.000463994
-0.0166672
-0.000452737
-0.0162259
-0.000441324
-0.0157961
-0.000429789
-0.015378
-0.000418172
-0.0149714
-0.000406537
-0.0145764
-0.000394971
-0.0141929
-0.000383584
-0.0138204
-0.000372503
-0.0134585
-0.000361867
-0.0131067
-0.000351812
-0.0127642
-0.000342469
-0.0124302
-0.000333961
-0.0121038
-0.000326409
-0.0117839
-0.000319943
-0.0114692
-0.000314694
-0.0111584
-0.000310792
-0.0108501
-0.000308348
-0.0105426
-0.000307461
-0.0102344
-0.000308211
-0.00992373
-0.000310662
-0.00960889
-0.000314839
-0.00928817
-0.000320718
-0.00895995
-0.00032822
-0.00862273
-0.000337225
-0.00827513
-0.000347601
-0.00791592
-0.000359208
-0.00754401
-0.00037191
-0.00715843
-0.000385574
-0.00675837
-0.000400062
-0.00634318
-0.000415197
-0.00591245
-0.000430727
-0.00546611
-0.000446339
-0.00500435
-0.000461761
-0.00452731
-0.000477036
-0.00403421
-0.000493099
-0.00352175
-0.000512465
-0.00298206
-0.000539684
-0.00239984
-0.00058222
-0.00175107
-0.000648772
-0.00102552
-0.000725551
-0.000314468
-0.000711054
-0.000314468
-0.000243401
0.00038916
-0.000177059
-0.000227708
-0.000110126
-0.000268405
-0.000141051
-0.000112486
-0.000258195
3.45333e-05
-0.000425481
0.000128089
-0.000618762
0.00018512
-0.000826209
0.000218841
-0.00104
0.000237989
-0.00125608
0.000248127
-0.001472
0.00025293
-0.0016865
0.000255065
-0.00189877
0.00025587
-0.00210796
0.000255511
-0.00231345
0.000254295
-0.00251463
0.000252281
-0.00271105
0.000249599
-0.00290249
0.000246495
-0.00308933
0.000243443
-0.00327195
0.000240683
-0.00345078
0.000238384
-0.00362671
0.000236868
-0.00380055
0.000236273
-0.00397326
0.000236894
-0.00414581
0.000238578
-0.00431896
0.000241395
-0.00449378
0.000245496
-0.00467099
0.000250671
-0.00485118
0.000256903
-0.0050351
0.00026422
-0.00522333
0.00027247
-0.00541603
0.000281305
-0.00561349
0.000290913
-0.00581585
0.000301167
-0.00602295
0.000311792
-0.00623419
0.000322453
-0.00644913
0.000333043
-0.00666688
0.000343141
-0.00688632
0.000352508
-0.00710675
0.000361547
-0.00732807
0.000370826
-0.00754999
0.000380221
-0.00777328
0.000390078
-0.00799873
0.000400204
-0.00822742
0.000410856
-0.0084607
0.000422028
-0.00870041
0.000434201
-0.00894819
0.000447024
-0.00920516
0.000460336
-0.00947232
0.000473983
-0.00974954
0.000487351
-0.0100353
0.00049952
-0.010327
0.000509885
-0.0106212
0.000518015
-0.0109129
0.00052244
-0.0111973
0.000522706
-0.0114686
0.000518166
-0.0117227
0.000509181
-0.0119566
0.000496487
-0.0121697
0.000481339
-0.0123632
0.000465058
-0.0125401
0.00044913
-0.0127045
0.000434979
-0.0128611
0.000423209
-0.0130144
0.000414132
-0.0131684
0.000407695
-0.0133264
0.000403787
-0.0134906
0.000401903
-0.0136624
0.000401652
-0.0138426
0.000402712
-0.0140312
0.000404849
-0.0142282
0.000407694
-0.0144329
0.000411047
-0.014645
0.000414796
-0.0148638
0.000418671
-0.015089
0.000422804
-0.0153203
0.000427004
-0.0155577
0.000431268
-0.0158011
0.000435481
-0.0160505
0.000439589
-0.0163058
0.000443455
-0.016567
0.00044692
-0.0168335
0.000449749
-0.0171047
0.000451755
-0.0173798
0.000452767
-0.017658
0.000452609
-0.0179381
0.000451125
-0.018219
0.000448226
-0.0184995
0.000443936
-0.0187785
0.000438323
-0.0190547
0.000431529
-0.0193272
0.000423801
-0.0195951
0.000415555
-0.0198577
0.00040727
-0.0201147
0.000399468
-0.0203658
0.000392628
-0.0206112
0.000387034
-0.0208511
0.000382649
-0.0210856
0.000379026
-0.0213146
0.000375312
-0.0215374
0.000370351
-0.0217524
0.000362843
-0.0219574
0.000351521
-0.0221494
0.000335376
-0.0223252
0.000313926
-0.022482
0.000287327
-0.0226183
0.000256288
-0.0227342
0.000221854
-0.0228315
0.000185118
-0.0229132
0.000146994
-0.0229824
0.00010826
-0.0230419
6.98864e-05
-0.0230937
3.34612e-05
-0.023138
1.38545e-06
-0.0231752
-2.16908e-05
-0.0232058
-3.25003e-05
-0.0232317
-2.84836e-05
-0.0232556
-9.99546e-06
-0.0232785
1.76952e-05
-0.0233027
4.98123e-05
-0.0233281
7.98682e-05
-0.023354
0.000103136
-0.0233793
0.000118227
-0.0234029
0.000126061
-0.023424
0.000128421
-0.0234417
0.000127021
-0.0234553
0.000123065
-0.0234643
0.000117223
-0.0234681
0.000109784
-0.0234664
0.000100838
-0.0234587
9.04176e-05
-0.0234445
7.85262e-05
-0.0234233
6.52023e-05
-0.0233946
5.05394e-05
-0.0233579
3.46477e-05
-0.0233129
1.79309e-05
-0.0232606
1.85652e-06
-0.0232034
-1.26593e-05
-0.0231452
-2.41836e-05
-0.0230894
-3.2279e-05
-0.0230379
-3.67995e-05
-0.0229907
-3.79055e-05
-0.0229466
-3.73999e-05
-0.0229026
-3.8853e-05
-0.0228525
-4.70168e-05
-0.0227879
-6.67537e-05
-0.022699
-0.000101588
-0.0225763
-0.000153167
-0.0224126
-0.00022047
-0.0222029
-0.000298694
-0.0219454
-0.000377657
-0.021641
-0.000441639
-0.0212949
-0.000473069
-0.0209196
-0.000459832
-0.0205399
-0.000400502
-0.0201852
-0.000304351
-0.0198786
-0.000185436
-0.0196421
-4.98198e-05
-0.0195094
0.000100456
-0.0195147
0.000250513
-0.0196774
0.000381482
-0.0200043
0.000478779
-0.0204734
0.000536006
-0.0210266
0.000551003
-0.0215894
0.000524539
-0.0221018
0.000463191
-0.0225265
0.000376086
-0.0228445
0.000275363
-0.0230547
0.000175353
-0.0231716
8.9785e-05
-0.0232181
2.87789e-05
-0.0232164
-7.79839e-06
-0.0231833
-2.63191e-05
-0.0231307
-3.2749e-05
-0.0230656
-3.47612e-05
-0.0229917
-3.73961e-05
-0.022911
-4.29729e-05
-0.022825
-5.16061e-05
-0.0227347
-6.21585e-05
-0.0226411
-7.3226e-05
-0.0225446
-8.40852e-05
-0.0224457
-9.42033e-05
-0.0223448
-0.000103516
-0.0222425
-0.000112071
-0.0221393
-0.000119854
-0.0220355
-0.000126858
-0.0219319
-0.000133101
-0.0218287
-0.000138619
-0.0217265
-0.000143464
-0.0216254
-0.000147694
-0.0215258
-0.000151378
-0.0214279
-0.000154594
-0.0213318
-0.00015741
-0.0212376
-0.000159869
-0.0211455
-0.000161979
-0.0210555
-0.000163723
-0.0209677
-0.000165061
-0.0208822
-0.000165933
-0.0207992
-0.000166258
-0.0207189
-0.000165946
-0.0206415
-0.00016494
-0.020567
-0.000163254
-0.0204955
-0.000160975
-0.0204269
-0.000158256
-0.0203609
-0.000155342
-0.0202969
-0.000152561
-0.0202343
-0.000150244
-0.0201721
-0.000148685
-0.0201096
-0.000148138
-0.0200458
-0.000148762
-0.0199801
-0.000150562
-0.019912
-0.000153397
-0.0198413
-0.000157036
-0.0197682
-0.000161079
-0.0196934
-0.000165073
-0.0196176
-0.000168593
-0.0195417
-0.000171335
-0.0194668
-0.000173098
-0.0193938
-0.000173834
-0.0193233
-0.000173609
-0.0192556
-0.000172627
-0.0191908
-0.000171211
-0.0191285
-0.000169757
-0.0190678
-0.000168728
-0.0190076
-0.000168705
-0.0189461
-0.000170234
-0.0188812
-0.000173921
-0.01881
-0.000180561
-0.0187296
-0.00019105
-0.0186364
-0.000206511
-0.0185265
-0.000228424
-0.018396
-0.000259004
-0.0182403
-0.00030113
-0.0180546
-0.000356744
-0.0178332
-0.000423045
-0.0175682
-0.000487381
-0.0172478
-0.000523136
-0.0168558
-0.000490367
-0.0163838
-0.000357217
-0.0158447
-0.000150005
-0.0152785
4.17683e-05
-0.0147522
0.00014807
-0.0142861
0.00014357
-0.0138825
7.45646e-05
-0.0135437
-1.85946e-05
-0.0132599
-0.000114717
-0.0130032
-0.000199847
-0.0127388
-0.000263532
-0.012443
-0.00030411
-0.0121036
-0.000320905
-0.0117267
-0.000318155
-0.0113269
-0.000302373
-0.0109247
-0.000279331
-0.0105393
-0.000253307
-0.0101904
-0.000221304
-0.0098945
-0.000177868
-0.00965762
-0.000125939
-0.00947789
-6.87354e-05
-0.00934958
-9.30105e-06
-0.00926182
4.54297e-05
-0.00920454
9.62605e-05
-0.00917338
0.000149139
-0.0091736
0.000213576
-0.00922254
0.000299715
-0.00935226
0.000418658
-0.00960594
0.000574567
-0.0100249
0.0007589
-0.0106298
0.000948174
-0.0114062
0.0011112
-0.0123018
0.00122337
-0.0132332
0.00127636
-0.0141132
0.00127639
-0.0148738
0.00123649
-0.0154848
0.00116753
-0.0159568
0.00107848
-0.0163214
0.00097796
-0.0166151
0.000883557
-0.016864
0.000800508
-0.0170824
0.000728275
-0.0172805
0.000667007
-0.0174677
0.000618135
-0.0176527
0.000583333
-0.0178413
0.000562897
-0.0180365
0.000555427
-0.0182388
0.000558243
-0.0184451
0.000566833
-0.0186524
0.00057888
-0.0188583
0.000592006
-0.0190619
0.00060518
-0.0192635
0.000618509
-0.0194644
0.000632503
-0.0196662
0.000647689
-0.0198714
0.000664455
-0.0200826
0.000682805
-0.0203019
0.000701935
-0.0205311
0.000720177
-0.0207704
0.000735547
-0.0210201
0.000747416
-0.0212808
0.000755892
-0.0215531
0.000762027
-0.0218382
0.00076706
-0.0221361
0.000771493
-0.0224468
0.00077558
-0.0227687
0.000778611
-0.0230996
0.000780253
-0.0234363
0.000779413
-0.0237751
0.00077538
-0.024112
0.000767485
-0.0244429
0.000755369
-0.0247643
0.000739219
-0.0250736
0.000719598
-0.0253689
0.000697363
-0.0256493
0.000673658
-0.0259149
0.00064975
-0.0261667
0.000626611
-0.0264057
0.000604529
-0.0266328
0.000583838
-0.0268489
0.000564279
-0.0270543
0.000545408
-0.0272492
0.000526689
-0.0274334
0.000507773
-0.0276066
0.000488459
-0.0277688
0.000468776
-0.0279207
0.000449044
-0.0280631
0.000429749
-0.0281977
0.000411286
-0.0283265
0.000394155
-0.0284521
0.000378845
-0.0285772
0.000365576
-0.028704
0.00035418
-0.0288342
0.000344241
-0.0289687
0.000335027
-0.0291073
0.000325632
-0.0292489
0.000315394
-0.0293922
0.000303896
-0.0295356
0.000291152
-0.029678
0.000277436
-0.0298182
0.000263108
-0.0299558
0.000248578
-0.0300904
0.000234088
-0.0302219
0.000219795
-0.0303503
0.000205717
-0.0304756
0.000191831
-0.0305977
0.000178087
-0.0307168
0.000164445
-0.0308329
0.000150886
-0.0309458
0.000137393
-0.0310556
0.000123934
-0.0311624
0.000110435
-0.0312665
9.69333e-05
-0.0313677
8.36789e-05
-0.0314659
7.04011e-05
-0.0315613
5.71295e-05
-0.0316536
4.39043e-05
-0.0317427
3.07162e-05
-0.0318283
1.75239e-05
-0.0319104
4.42238e-06
-0.0319892
-7.97344e-06
-0.0320642
-2.10102e-05
-0.0321352
-3.38973e-05
-0.0322022
-4.64142e-05
-0.0322649
-5.89684e-05
-0.0323232
-7.14311e-05
-0.0323766
-8.39129e-05
-0.032425
-9.65477e-05
-0.0324678
-0.00010929
-0.0325045
-0.000122472
-0.0325345
-0.000136178
-0.0325571
-0.000150439
-0.0325713
-0.000165752
-0.0325762
-0.000182004
-0.0325708
-0.000199549
-0.0325541
-0.00021843
-0.0325251
-0.000238776
-0.0324833
-0.000260522
-0.0324283
-0.000283467
-0.0323604
-0.000307188
-0.03228
-0.000331214
-0.0321883
-0.000354952
-0.0320869
-0.000377697
-0.0319777
-0.000398675
-0.0318627
-0.000417212
-0.0317441
-0.000432913
-0.0316233
-0.000445748
-0.0315013
-0.000456048
-0.0313781
-0.000464451
-0.0312527
-0.00047182
-0.0311233
-0.000478978
-0.0309878
-0.000486362
-0.0308438
-0.00049412
-0.03069
-0.000501627
-0.030526
-0.000507787
-0.0303531
-0.000511445
-0.0301738
-0.000511789
-0.0299907
-0.000508494
-0.0298071
-0.000501736
-0.0296255
-0.000492029
-0.0294481
-0.000479941
-0.0292768
-0.000465847
-0.0291131
-0.000449828
-0.0289584
-0.000431764
-0.0288141
-0.000411515
-0.0286815
-0.000389117
-0.0285612
-0.000364919
-0.0284531
-0.000339643
-0.0283555
-0.00031447
-0.0282639
-0.000291206
-0.0281706
-0.000272589
-0.0280627
-0.000262465
-0.0279233
-0.00026549
-0.0277324
-0.000286016
-0.0274708
-0.000326245
-0.0271256
-0.000384289
-0.0266951
-0.00045365
-0.02619
-0.000525444
-0.0256353
-0.000585802
-0.0250601
-0.000627896
-0.0244873
-0.000651264
-0.0239271
-0.000660837
-0.0233787
-0.000664627
-0.0228343
-0.00066995
-0.0222844
-0.000681027
-0.0217218
-0.000698559
-0.0211429
-0.000720735
-0.0205477
-0.000744747
-0.0199388
-0.000768023
-0.0193194
-0.000788929
-0.0186929
-0.00080699
-0.0180623
-0.000822642
-0.0174293
-0.000836728
-0.0167941
-0.000850239
-0.0161548
-0.00086476
-0.0155087
-0.000883595
-0.0148546
-0.000912346
-0.0141945
-0.000956842
-0.0135341
-0.00101819
-0.01288
-0.00108912
-0.0122381
-0.00115538
-0.0116126
-0.00120161
-0.0110069
-0.00121923
-0.0104247
-0.00120928
-0.00986942
-0.00117959
-0.00934321
-0.00113951
-0.00884723
-0.00109599
-0.00838194
-0.00105249
-0.00794759
-0.00101012
-0.00754416
-0.000969102
-0.00717111
-0.000929669
-0.00682713
-0.000892241
-0.00651006
-0.0008573
-0.00621711
-0.000825185
-0.00594521
-0.000795916
-0.00569139
-0.000769134
-0.00545327
-0.000744175
-0.0052292
-0.000720259
-0.00501833
-0.000696688
-0.00482039
-0.00067299
-0.00463544
-0.000648945
-0.00446364
-0.000624535
-0.00430511
-0.000599853
-0.00415987
-0.000575028
-0.00402787
-0.000550175
-0.00390903
-0.00052538
-0.00380329
-0.000500714
-0.0037106
-0.000476269
-0.0036309
-0.000452203
-0.00356401
-0.00042876
-0.00350957
-0.00040625
-0.00346703
-0.000385008
-0.00343563
-0.000365358
-0.00341443
-0.000347614
-0.00340228
-0.000332093
-0.00339786
-0.000319111
-0.00339968
-0.000308971
-0.00340609
-0.000301941
-0.0034153
-0.000298247
-0.00342543
-0.000298085
-0.00343447
-0.000301618
-0.00344037
-0.000308942
-0.00344103
-0.000320054
-0.00343442
-0.000334832
-0.00341858
-0.000353063
-0.0033917
-0.000374482
-0.00335212
-0.000398789
-0.00329836
-0.000425668
-0.00322914
-0.000454799
-0.00314335
-0.000485847
-0.00304017
-0.00051838
-0.0029192
-0.0005517
-0.00278088
-0.000584663
-0.00262687
-0.000615772
-0.0024598
-0.000644099
-0.00228136
-0.00067154
-0.00208773
-0.0007061
-0.00186258
-0.000764833
-0.00157172
-0.000873075
-0.00117014
-0.00105036
-0.000638853
-0.00125684
-9.64479e-05
-0.00125346
-0.000410916
-0.000273765
0.000662925
-0.000155681
-0.000345792
-5.2541e-06
-0.000418832
1.82609e-05
-0.000136001
-9.23178e-05
0.000145112
-0.000282977
0.000318749
-0.0004995
0.000401642
-0.000716574
0.000435915
-0.000924529
0.000445944
-0.00112161
0.000445206
-0.00130832
0.000439642
-0.00148515
0.00043189
-0.00165191
0.000422639
-0.00180863
0.000412223
-0.00195516
0.000400823
-0.00209172
0.000388846
-0.00221887
0.000376747
-0.00233753
0.000365156
-0.00244902
0.000354929
-0.00255464
0.000346305
-0.00265585
0.000339598
-0.00275421
0.000335224
-0.00285118
0.000333248
-0.00294777
0.000333484
-0.00304544
0.000336241
-0.00314517
0.000341129
-0.00324784
0.000348172
-0.00335429
0.000357117
-0.00346519
0.0003678
-0.003581
0.000380032
-0.0037021
0.000393575
-0.00382886
0.000408059
-0.00396141
0.000423464
-0.0040998
0.000439558
-0.00424385
0.000455845
-0.00439351
0.000472107
-0.00454867
0.0004882
-0.00470932
0.000503796
-0.00487583
0.000519021
-0.00504846
0.000534178
-0.0052273
0.000549663
-0.00541247
0.000565387
-0.00560431
0.000581916
-0.00580356
0.000599463
-0.00601053
0.000617822
-0.00622646
0.000637955
-0.00645177
0.000659517
-0.00668657
0.000681823
-0.00693019
0.000703949
-0.00718125
0.000725048
-0.00743772
0.000743823
-0.00769633
0.000758128
-0.00795372
0.000767277
-0.00820488
0.000769171
-0.00844592
0.000763482
-0.00867326
0.000750045
-0.00888458
0.000729491
-0.00907944
0.000704038
-0.0092593
0.000676343
-0.00942702
0.00064906
-0.00958665
0.000624692
-0.00974273
0.000605212
-0.00989954
0.000591784
-0.0100607
0.000584326
-0.0102288
0.000582268
-0.0104062
0.000585096
-0.010594
0.000591581
-0.0107931
0.000600973
-0.0110038
0.000612357
-0.0112261
0.000625048
-0.0114598
0.000638553
-0.0117045
0.00065236
-0.0119596
0.000666162
-0.0122246
0.000679812
-0.012499
0.000693025
-0.012782
0.000705876
-0.0130733
0.000718235
-0.0133722
0.000730197
-0.0136783
0.00074158
-0.0139909
0.000752247
-0.0143096
0.000762082
-0.0146335
0.000770831
-0.0149619
0.000778139
-0.0152938
0.000783667
-0.0156281
0.00078708
-0.0159636
0.000788096
-0.0162989
0.000786439
-0.0166327
0.000782037
-0.0169638
0.000774981
-0.0172909
0.000765427
-0.017613
0.000753646
-0.0179293
0.000740113
-0.018239
0.000725254
-0.0185413
0.000709585
-0.0188354
0.00069358
-0.0191204
0.000677608
-0.0193952
0.00066183
-0.0196587
0.000646131
-0.0199097
0.00063003
-0.0201471
0.000612702
-0.0203698
0.000593092
-0.0205771
0.000570101
-0.0207684
0.000542887
-0.0209443
0.000511268
-0.0211064
0.00047602
-0.0212579
0.000438788
-0.0214032
0.000401573
-0.0215473
0.000366018
-0.021695
0.000332834
-0.0218497
0.000301671
-0.022013
0.000271526
-0.0221846
0.000241498
-0.0223627
0.000211589
-0.0225445
0.000183171
-0.0227254
0.000159217
-0.0229006
0.000142671
-0.0230641
0.000135026
-0.0232109
0.000136823
-0.0233385
0.000145269
-0.0234451
0.000156441
-0.0235315
0.000166268
-0.0236003
0.000171935
-0.023655
0.000172864
-0.0236983
0.000169435
-0.0237325
0.000162566
-0.0237587
0.000153245
-0.0237778
0.000142198
-0.0237905
0.000129848
-0.0237971
0.000116416
-0.0237983
0.000102013
-0.0237945
8.67016e-05
-0.0237865
7.05166e-05
-0.0237748
5.34849e-05
-0.0237599
3.56379e-05
-0.0237424
1.70873e-05
-0.0237228
-1.64919e-06
-0.0237018
-1.91576e-05
-0.0236794
-3.50227e-05
-0.0236549
-4.86372e-05
-0.0236277
-5.95381e-05
-0.0235967
-6.77935e-05
-0.0235606
-7.39582e-05
-0.0235185
-7.95158e-05
-0.0234704
-8.69835e-05
-0.0234181
-9.93509e-05
-0.0233656
-0.000119236
-0.0233189
-0.000148239
-0.0232852
-0.000186883
-0.0232713
-0.000234341
-0.0232823
-0.000287729
-0.0233188
-0.000341116
-0.0233751
-0.000385333
-0.0234381
-0.000410074
-0.0234902
-0.000407825
-0.0235145
-0.000376186
-0.0235019
-0.0003169
-0.023454
-0.000233388
-0.0233778
-0.000125956
-0.0232893
1.19512e-05
-0.0231989
0.000160075
-0.0231348
0.000317393
-0.0231111
0.000455042
-0.0231193
0.000544221
-0.0231332
0.000564885
-0.0231239
0.000515311
-0.0230729
0.000412148
-0.0229763
0.000279491
-0.0228451
0.000144217
-0.0226989
2.90724e-05
-0.0225565
-5.25357e-05
-0.0224245
-0.000103232
-0.0223016
-0.000130774
-0.0221842
-0.000143686
-0.0220679
-0.000149001
-0.0219505
-0.000152178
-0.0218315
-0.000156442
-0.0217115
-0.000162905
-0.0215919
-0.000171266
-0.0214734
-0.000180609
-0.0213568
-0.000189908
-0.021242
-0.000198831
-0.021129
-0.000207209
-0.0210175
-0.000214999
-0.0209074
-0.000222193
-0.0207985
-0.000228763
-0.0206907
-0.000234683
-0.0205838
-0.000239946
-0.0204779
-0.000244563
-0.0203728
-0.000248556
-0.0202685
-0.000251951
-0.0201651
-0.000254769
-0.0200627
-0.000257038
-0.0199613
-0.000258779
-0.0198612
-0.000259991
-0.0197625
-0.000260661
-0.0196655
-0.000260779
-0.0195702
-0.000260345
-0.0194767
-0.00025938
-0.0193851
-0.000257931
-0.0192949
-0.000256083
-0.0192059
-0.000253977
-0.0191173
-0.000251816
-0.0190284
-0.000249847
-0.0189384
-0.000248332
-0.0188462
-0.000247529
-0.0187511
-0.000247648
-0.0186525
-0.000248798
-0.0185503
-0.000250974
-0.0184443
-0.000254058
-0.0183353
-0.000257794
-0.0182241
-0.00026179
-0.0181119
-0.000265574
-0.0180003
-0.000268639
-0.0178909
-0.000270511
-0.0177851
-0.000270786
-0.0176845
-0.000269244
-0.0175901
-0.000265766
-0.0175027
-0.000260459
-0.017423
-0.000253528
-0.0173512
-0.000245399
-0.0172873
-0.000236551
-0.0172309
-0.000227562
-0.0171817
-0.000219024
-0.0171389
-0.000211534
-0.0171019
-0.000205694
-0.01707
-0.000202103
-0.0170427
-0.000201248
-0.0170196
-0.000203662
-0.0170009
-0.000209719
-0.0169877
-0.000219685
-0.016982
-0.000234119
-0.0169876
-0.000253461
-0.0170105
-0.000278227
-0.0170592
-0.000307989
-0.0171424
-0.00033988
-0.017264
-0.000365831
-0.0174165
-0.000370577
-0.0175743
-0.000332584
-0.0176942
-0.000237309
-0.0177431
-0.00010114