/*--------------------------------*- C++ -*----------------------------------*\
| =========                 |                                                 |
| \\      /  F ield         | OpenFOAM: The Open Source CFD Toolbox           |
|  \\    /   O peration     | Version:  v2006                                 |
|   \\  /    A nd           | Website:  www.openfoam.com                      |
|    \\/     M anipulation  |                                                 |
\*---------------------------------------------------------------------------*/
FoamFile
{
    version     2.0;
    format      ascii;
    class       volScalarField;
    location    "0";
    object      f;
}
// * * * * * * * * * * * * * * * * * * * * * * * * * * * * * * * * * * * * * //

dimensions      [0 0 0 0 0 0 0];


internalField   nonuniform List<scalar> 
2500
(
-4.95383e-30
7.4739e-25
1.31857e-22
-3.86586e-19
5.11259e-18
1.06518e-17
-4.05827e-16
2.3428e-14
-8.97841e-13
2.81687e-11
-8.33744e-10
1.53622e-08
-1.66319e-07
8.28344e-07
-2.19002e-07
-5.20782e-05
0.000518952
-0.000497412
-0.00899446
0.0117136
0.0766641
0.00137331
-0.251872
-0.468285
-0.4984
-0.329855
-0.12113
-0.00710824
0.00294617
0.00324184
0.000870879
5.13191e-05
-5.19713e-05
4.81349e-06
5.60751e-06
1.06818e-06
-6.34161e-08
-3.41954e-08
-5.11662e-09
-1.50805e-09
-5.11946e-10
-3.00685e-11
1.01028e-11
4.42931e-12
4.04379e-13
1.45257e-14
8.70485e-16
-1.81559e-16
-3.64057e-16
-3.58544e-17
-4.95119e-28
1.96927e-23
6.34769e-21
-3.78544e-18
1.31129e-17
3.66003e-17
-6.07069e-16
1.3972e-14
-5.68648e-13
5.00076e-11
-2.42279e-09
6.42009e-08
-9.53725e-07
7.54178e-06
-1.99911e-05
-2.28318e-05
0.000951989
-0.00275512
-0.00462667
0.0200028
-0.0441157
-0.274987
-0.516942
-0.582702
-0.455724
-0.239526
-0.0697499
-1.25009e-05
0.00346358
0.00130608
-3.23945e-05
-0.000183587
-2.27722e-05
8.01829e-06
3.49778e-06
2.40312e-07
6.0319e-08
2.54178e-08
4.24556e-09
-3.07708e-10
-1.83177e-10
-3.74837e-12
3.891e-12
3.14852e-13
-6.38401e-14
-2.40745e-14
-1.61381e-15
-4.33017e-16
-1.76757e-16
-1.7497e-17
-3.80298e-26
3.86437e-22
1.3534e-19
-2.84412e-17
-2.82299e-17
-1.03668e-16
6.2583e-14
-2.79329e-12
4.23886e-11
-1.13439e-10
-5.53538e-10
7.99611e-08
-1.64767e-06
1.77877e-05
-9.45552e-05
8.67948e-05
0.00102333
-0.00515402
0.00115334
0.0159702
-0.116721
-0.405
-0.674346
-0.695951
-0.509159
-0.255501
-0.0629521
0.0022445
0.00484485
0.00137504
-9.26829e-05
-0.000235782
-1.95399e-05
9.53272e-06
4.15937e-06
4.04761e-07
3.25225e-08
1.30646e-08
2.55486e-09
-4.0027e-10
-2.07319e-10
-3.90574e-12
5.81149e-12
9.43684e-13
-9.18894e-14
-2.5104e-14
-2.15697e-15
-5.98473e-16
-2.1355e-16
-1.72623e-17
-2.73857e-24
6.98422e-21
2.14593e-18
-2.24062e-16
6.2602e-15
-2.01088e-13
4.5955e-12
-7.86215e-11
1.01965e-09
-9.45193e-09
3.91996e-08
-4.07099e-08
-6.42611e-07
2.10945e-05
-0.000183385
0.000460515
0.000371665
-0.00492151
0.0128885
-0.00792694
-0.235809
-0.594888
-0.798829
-0.708337
-0.447447
-0.177778
-0.016023
0.00640951
0.0056074
0.000265944
-0.000680175
-0.000354495
2.93117e-06
1.19237e-05
3.38906e-06
1.11233e-07
7.2477e-08
4.03968e-08
6.99223e-09
-6.04972e-11
-1.56886e-10
-3.65105e-12
3.00774e-12
-6.16953e-13
-3.38768e-13
-4.21891e-14
-3.11808e-15
-6.89745e-16
-1.91105e-16
-1.06369e-17
-1.84367e-22
1.12973e-19
2.6054e-17
-1.57397e-15
4.32198e-14
-8.88624e-13
1.46565e-11
-2.10326e-10
2.71015e-09
-3.34304e-08
3.21811e-07
-1.77377e-06
4.13198e-06
-6.12275e-07
-0.000202375
0.00105978
-0.00130801
0.00085163
0.0269245
-0.0493087
-0.337671
-0.661701
-0.712604
-0.540048
-0.257807
-0.028526
0.0458193
0.00985257
0.00433872
-0.00143273
-0.00126929
-0.000374186
2.68912e-05
1.18542e-05
1.61964e-06
-1.78519e-07
7.48496e-08
5.14305e-08
8.0881e-09
2.38078e-10
-9.58718e-11
-8.28908e-12
-2.08554e-13
-1.85586e-12
-4.73781e-13
-5.03198e-14
-3.52174e-15
-6.26653e-16
-1.07704e-16
5.49379e-18
-1.15372e-20
1.58623e-18
1.46362e-16
-4.09199e-15
5.94917e-14
-6.25679e-13
5.51058e-12
-6.37247e-11
1.71166e-09
-4.74386e-08
7.21839e-07
-6.85957e-06
3.31936e-05
-5.67907e-05
-4.94052e-05
0.000914197
-0.00352024
0.0121445
0.0370424
-0.0909812
-0.379048
-0.576109
-0.470214
-0.221614
0.059881
0.168745
0.0994837
0.0131611
0.000578388
-0.00333501
-0.00181409
-0.000289814
4.13596e-05
9.012e-06
-7.82462e-07
-5.09246e-07
9.49666e-08
6.76644e-08
8.93132e-09
3.66947e-10
-9.25716e-11
-1.71027e-11
-3.51262e-12
-2.79108e-12
-4.92574e-13
-4.78198e-14
-3.26201e-15
-3.39842e-16
5.31744e-17
3.38788e-17
-6.6819e-19
2.07023e-17
2.50913e-16
1.12586e-16
-4.02088e-13
1.45341e-11
-2.46995e-10
2.31825e-09
-9.87673e-09
1.00766e-09
7.76629e-07
-1.07073e-05
7.1762e-05
-0.000204458
0.000316605
-0.00051532
-0.0046932
0.0261135
0.0375225
-0.11113
-0.306447
-0.304049
-0.0308228
0.277956
0.45055
0.361949
0.124796
0.0133847
-0.00501454
-0.00522329
-0.00199078
-9.47462e-05
4.11168e-05
2.54157e-06
-3.63013e-06
-7.06879e-07
1.1002e-07
7.36004e-08
7.12967e-09
1.09287e-10
-5.25575e-11
-1.27192e-11
-4.11756e-12
-2.65221e-12
-3.37401e-13
-2.94356e-14
-2.24919e-15
2.2689e-16
2.94878e-16
7.53732e-17
-3.85521e-17
1.80505e-15
-6.11081e-14
1.44398e-12
-2.55241e-11
3.50862e-10
-3.80272e-09
3.19821e-08
-1.9552e-07
6.79555e-07
-3.00424e-07
-6.43164e-06
6.07466e-05
-0.000276059
0.000740314
-0.00306638
-0.00300872
0.0368802
0.0276069
-0.0840476
-0.0902884
0.140764
0.55869
0.844101
0.811982
0.488467
0.116194
0.00596376
-0.0110508
-0.00661776
-0.00164035
0.000131507
3.21054e-05
-6.61973e-06
-6.3004e-06
-6.27962e-07
1.38783e-07
6.6644e-08
4.58934e-09
-4.16588e-10
8.90654e-12
1.5991e-11
-7.85305e-13
-1.49738e-12
-6.52482e-14
-1.55457e-16
-1.29034e-16
1.12349e-15
6.01807e-16
1.27622e-16
-1.18406e-15
1.96916e-14
-3.85056e-13
6.11922e-12
-8.0534e-11
8.88089e-10
-8.1811e-09
6.65441e-08
-4.39747e-07
2.37467e-06
-8.73241e-06
1.24234e-05
-3.81043e-05
7.81211e-05
0.000814594
-0.00597534
0.00167086
0.0366
0.0136634
0.0123056
0.245942
0.728491
1.18164
1.34247
1.04391
0.498132
0.0837895
-0.00806204
-0.0156476
-0.0065409
-0.00072913
0.000279015
1.60698e-05
-1.65504e-05
-7.86223e-06
-3.06762e-07
1.80914e-07
4.51855e-08
9.01105e-10
-5.99945e-10
1.31273e-10
5.71884e-11
5.1741e-12
-2.39828e-13
1.95362e-13
2.70625e-14
4.44606e-15
2.40233e-15
9.30468e-16
1.84137e-16
-5.97944e-15
4.67954e-14
-5.81182e-13
6.29406e-12
-5.86974e-11
4.57228e-10
-3.63069e-09
4.4522e-08
-3.84613e-07
3.14444e-06
-1.57498e-05
5.20735e-05
-0.000198729
0.000774692
0.000291932
-0.00747513
0.00754784
0.0195455
0.00817935
0.179312
0.645707
1.32163
1.69003
1.62491
1.06521
0.383637
0.0365344
-0.023195
-0.016821
-0.00443021
0.000485265
0.000316753
-1.08363e-05
-2.67162e-05
-7.4946e-06
6.97841e-08
1.95846e-07
1.40264e-08
-4.44593e-09
-1.93008e-10
3.79329e-10
8.61234e-11
7.70392e-12
1.01495e-13
3.26216e-13
4.84727e-14
1.36281e-14
3.9623e-15
1.20144e-15
2.3445e-16
-8.38656e-15
-3.71096e-14
2.82086e-12
-5.67072e-11
6.55888e-10
-5.05145e-09
2.40207e-08
-6.75406e-08
2.92135e-07
1.23208e-06
-6.9008e-06
4.96122e-05
-0.000296438
0.00150227
-0.00164947
-0.00629052
0.00510109
-0.0128346
0.0248881
0.378556
1.0202
1.72654
1.93245
1.58287
0.84389
0.19305
-0.0142919
-0.0332029
-0.0134168
-0.000696437
0.00147566
0.000278286
-4.30344e-05
-3.41829e-05
-5.18871e-06
3.20332e-07
1.30666e-07
-2.14026e-08
-8.05693e-09
6.51141e-10
6.51466e-10
8.41358e-11
-2.5085e-12
-9.03138e-13
2.9233e-13
7.95178e-14
2.82506e-14
5.30399e-15
1.3194e-15
2.66219e-16
5.15692e-13
-4.90604e-12
6.21765e-11
-6.2717e-10
5.24279e-09
-3.58815e-08
2.01324e-07
-8.15433e-07
1.34697e-06
-4.76193e-06
2.79375e-05
-0.00010278
-0.000227189
0.00168287
-0.00236214
-0.00224545
-0.00768221
-0.049892
0.0756758
0.543297
1.2477
1.79941
1.77069
1.17897
0.423676
-0.00909835
-0.0534825
-0.0320184
-0.00526146
0.00346043
0.0019371
0.000144885
-7.30081e-05
-3.27173e-05
-1.78358e-06
4.88846e-07
-1.23193e-08
-5.90422e-08
-6.82296e-09
1.93178e-09
7.22805e-10
3.09403e-11
-2.23553e-11
-2.62258e-12
2.59043e-13
1.34168e-13
4.33997e-14
5.59825e-15
1.23261e-15
2.70519e-16
3.53971e-12
-1.59856e-11
1.52419e-10
-1.22955e-09
8.7365e-09
-4.77085e-08
2.43711e-07
-7.27604e-07
1.85693e-06
-8.20412e-06
7.76143e-05
-0.000313036
0.000309238
0.00105209
-0.00069842
0.00203731
-0.0289211
-0.0735078
0.119785
0.600502
1.22007
1.44284
1.146
0.475744
-0.0735121
-0.170892
-0.0687233
-0.0188762
0.00555053
0.00652537
0.0018002
-4.05904e-05
-9.2749e-05
-2.10334e-05
1.18652e-06
4.50171e-07
-1.74271e-07
-7.99968e-08
-1.5078e-09
3.30871e-09
5.16487e-10
-9.71739e-11
-3.8462e-11
-3.67973e-12
4.49697e-13
2.01517e-13
4.78716e-14
4.06026e-15
9.7e-16
2.48033e-16
7.36085e-12
-1.30248e-11
9.99665e-11
-6.56661e-10
2.74409e-09
-1.03128e-10
4.21863e-08
1.00144e-06
-6.22544e-06
-3.05449e-07
0.000101114
-0.000472132
0.000625769
-1.97333e-05
0.003047
0.00313021
-0.0517807
-0.0739642
0.119351
0.484101
0.830239
0.645614
0.152158
-0.364884
-0.504127
-0.256994
-0.0569699
0.00173314
0.0150123
0.00753743
0.00111837
-0.000178873
-8.45383e-05
-3.92338e-06
3.30981e-06
5.24355e-08
-3.33424e-07
-6.82009e-08
5.23007e-09
3.53129e-09
4.61742e-11
-2.22306e-10
-4.12759e-11
-1.39852e-12
7.02164e-13
2.28306e-13
3.13939e-14
6.44193e-16
5.87395e-16
2.10449e-16
-7.19164e-12
2.02572e-10
-2.04053e-09
1.24175e-08
-4.78424e-08
1.19912e-07
-2.96299e-07
3.43285e-06
-1.6311e-05
3.20915e-05
9.35431e-05
-0.000362881
0.000143088
-0.000489368
0.00833982
9.22718e-05
-0.0632358
-0.0623899
0.0308613
0.138245
0.0215741
-0.477725
-0.977264
-1.12711
-0.766335
-0.256296
-0.0245592
0.0232638
0.019937
0.00630936
0.000234667
-0.000215625
-3.81632e-05
1.29676e-05
3.59229e-06
-5.26437e-07
-4.25261e-07
-3.28086e-08
1.15145e-08
2.03523e-09
-6.73856e-10
-2.54352e-10
-2.28886e-11
3.20946e-12
8.82147e-13
1.25422e-13
-9.32012e-15
-2.93739e-15
2.02162e-16
1.75916e-16
-4.80198e-10
1.25182e-09
-6.08554e-09
1.69299e-08
-1.48911e-08
-2.33167e-08
-6.37881e-07
4.26592e-06
-2.07295e-05
5.39984e-05
-2.73123e-05
-1.79028e-05
-0.00096717
0.000802936
0.0127268
-0.0103627
-0.0524645
-0.0652049
-0.178023
-0.455578
-1.08667
-1.70349
-1.97715
-1.61649
-0.817189
-0.18519
0.015383
0.0379499
0.0191322
0.0035289
-0.000423564
-0.000156225
2.42997e-05
2.36858e-05
1.76455e-06
-1.1082e-06
-3.5558e-07
7.33689e-09
1.26612e-08
-6.10764e-10
-1.16358e-09
-1.78022e-10
1.86478e-11
6.1574e-12
7.63662e-13
-1.02824e-13
-5.17962e-14
-5.14139e-15
8.0858e-17
1.63184e-16
-1.9141e-09
1.14079e-09
-1.52805e-09
-2.5011e-08
2.03855e-07
-9.30588e-07
2.33364e-06
-1.1979e-06
-1.69947e-05
5.4219e-05
1.23861e-05
0.00021251
-0.00239103
0.00431766
0.0116693
-0.0060099
-0.0179025
-0.108248
-0.509272
-1.22911
-2.22648
-2.74545
-2.61103
-1.72603
-0.674854
-0.0804284
0.0493473
0.0405832
0.0130817
0.000409204
-0.000624485
-1.53445e-05
7.6639e-05
2.25268e-05
-1.02571e-06
-1.45396e-06
-1.68778e-07
4.25049e-08
6.21114e-09
-3.45268e-09
-1.02898e-09
1.65864e-11
5.12871e-11
5.92598e-12
-3.05675e-13
-3.05714e-13
-7.03094e-14
-4.19509e-15
2.93671e-16
1.76726e-16
-3.58745e-09
-2.1909e-09
1.66465e-08
-1.10512e-07
5.17098e-07
-1.90285e-06
5.30711e-06
-5.9535e-06
-1.7029e-05
1.50795e-05
0.000176671
-8.56355e-05
-0.00299882
0.00495325
0.00737351
0.0146046
0.0194023
-0.2217
-0.917488
-2.02265
-3.073
-3.34741
-2.70067
-1.46106
-0.413427
0.0174859
0.0662616
0.0311171
0.004345
-0.00177844
-0.000434107
0.000143893
9.81781e-05
1.1668e-05
-3.34416e-06
-1.14039e-06
4.45665e-08
5.11704e-08
-3.74603e-09
-4.6545e-09
-3.54835e-10
2.40145e-10
5.32406e-11
5.92848e-13
-1.49363e-12
-3.90753e-13
-5.09789e-14
5.57085e-17
6.64223e-16
1.97975e-16
-2.77055e-09
-7.03988e-09
3.25585e-08
-1.37881e-07
5.69916e-07
-1.70819e-06
5.01529e-06
6.24206e-07
-3.7166e-05
-1.16968e-05
0.000431784
-0.000744809
-0.00221889
0.00225928
0.0066187
0.0539896
0.0357569
-0.359508
-1.30081
-2.59885
-3.39616
-3.27146
-2.22593
-0.93694
-0.132963
0.0811002
0.0589081
0.0133278
-0.00356191
-0.00243899
-2.67707e-05
0.000244633
7.73507e-05
-1.37524e-06
-4.01901e-06
-3.09076e-07
2.25872e-07
2.811e-08
-1.25291e-08
-3.01176e-09
6.14123e-10
3.14155e-10
2.60721e-11
-7.5514e-12
-1.95076e-12
-2.7543e-13
-9.74292e-15
4.69527e-15
9.32448e-16
1.89174e-16
1.43573e-08
-6.50127e-10
-2.96747e-08
1.97874e-07
-3.89079e-07
-7.15892e-07
1.5417e-06
1.06992e-05
-7.35053e-05
7.91116e-05
0.000536733
-0.00104154
-0.00112032
-0.00456909
0.0184031
0.100376
0.035463
-0.465078
-1.50256
-2.67436
-3.03322
-2.48961
-1.34398
-0.333417
0.0803652
0.0962631
0.0312528
-0.00583849
-0.00803553
-0.0017846
0.000352732
0.00024937
3.12882e-05
-9.82089e-06
-2.42452e-06
5.6162e-07
2.40584e-07
-1.02086e-08
-1.53461e-08
1.05655e-10
1.25105e-09
2.08503e-10
-2.44201e-11
-1.07308e-11
-1.43439e-12
-3.60226e-14
2.4877e-14
6.44308e-15
7.98242e-16
1.17178e-16
4.04333e-08
6.38924e-08
-2.22668e-07
7.1662e-07
-1.18884e-06
4.11638e-07
1.59067e-06
3.52049e-06
-6.81127e-05
0.00010602
0.000332889
-0.00054993
-0.00279128
-0.0107009
0.0426691
0.137443
0.0390382
-0.433276
-1.33044
-2.04461
-1.96307
-1.23468
-0.324601
0.169942
0.179078
0.0669114
-0.00447877
-0.0192614
-0.00830151
-0.00052763
0.000508778
0.000153459
-1.16036e-05
-9.98394e-06
4.02929e-07
1.02873e-06
9.81225e-08
-4.85961e-08
-8.97709e-09
2.96163e-09
1.03372e-09
-2.00714e-11
-5.37425e-11
-7.85741e-12
1.48834e-13
1.14443e-13
3.44191e-14
4.43556e-15
2.43928e-16
-1.69088e-17
3.80073e-08
1.32111e-07
-3.25994e-07
8.57248e-07
-1.26805e-06
-6.83219e-07
1.13989e-05
-2.05794e-05
-3.9045e-05
0.000141379
0.000381131
0.000297746
-0.00868989
-0.0132495
0.0666463
0.15801
0.127926
-0.154402
-0.653852
-0.760852
-0.436898
0.186027
0.553505
0.452279
0.164503
0.0131449
-0.0339891
-0.0233278
-0.00546552
0.000482815
0.00041116
1.96491e-05
-3.17808e-05
-3.27261e-06
2.78642e-06
8.00015e-07
-7.8192e-08
-5.37663e-08
1.68785e-09
3.99042e-09
2.73806e-10
-2.08905e-10
-4.2219e-11
1.45102e-12
1.11358e-12
1.47297e-13
1.14166e-14
3.14663e-16
-5.23248e-16
-1.78915e-16
-3.19628e-09
9.30435e-08
-1.56677e-07
5.59109e-07
-2.40958e-06
-3.37066e-06
3.62912e-05
-9.8513e-05
-1.7892e-05
0.000211569
0.0012586
-0.00042211
-0.0179583
-0.00997044
0.0762926
0.194
0.347162
0.424266
0.505084
0.827226
1.23521
1.38359
1.06545
0.486341
0.0805261
-0.04081
-0.047144
-0.0187126
-0.00181147
0.000765397
0.000136112
-7.7735e-05
-2.38788e-05
4.73015e-06
3.29488e-06
1.68009e-07
-1.86745e-07
-2.35786e-08
1.05742e-08
2.33432e-09
-5.12666e-10
-1.99187e-10
4.9758e-13
8.37537e-12
1.04604e-12
-3.27818e-14
-1.43155e-14
-3.5317e-15
-1.24178e-15
-3.17095e-16
-3.8221e-08
-2.82918e-07
3.99001e-07
9.59804e-07
-5.92845e-06
3.42381e-06
5.13767e-05
-0.000113721
-0.000221509
0.000493629
0.0030695
-0.0033002
-0.0265849
-0.0166173
0.0607131
0.271352
0.721582
1.26397
1.9104
2.40223
2.51248
2.0371
1.14436
0.338995
-0.0179602
-0.0725295
-0.0420337
-0.0097322
0.000595928
0.000413287
-0.000146149
-9.78229e-05
-1.17358e-06
9.15064e-06
1.81519e-06
-3.99782e-07
-1.49657e-07
1.54163e-08
1.1598e-08
-2.49492e-10
-7.90515e-10
-4.82295e-11
4.02821e-11
7.16487e-12
-2.00973e-13
-1.70721e-13
-2.90146e-14
-5.13428e-15
-1.61442e-15
-3.8018e-16
2.17939e-07
-6.43388e-07
-2.03127e-07
5.99501e-06
-1.95333e-05
1.26882e-05
8.47682e-05
-0.00013645
-0.000664621
0.00154754
0.00524929
-0.00636985
-0.0333815
-0.0481548
0.0339854
0.430108
1.18767
2.17252
3.13712
3.43774
3.09126
2.05755
0.878199
0.123711
-0.0861387
-0.0720634
-0.0250128
-0.00166759
0.00103534
-0.00018501
-0.000281339
-5.05773e-05
1.76164e-05
7.49094e-06
-2.37755e-07
-5.61697e-07
-2.35314e-08
3.9301e-08
4.72846e-09
-2.18299e-09
-4.07137e-10
1.19502e-10
3.9385e-11
1.01798e-13
-1.22601e-12
-1.71838e-13
-1.01226e-14
-5.27985e-15
-1.58745e-15
-3.50803e-16
6.3796e-07
-8.07529e-07
-1.78298e-06
1.16322e-05
-2.61803e-05
-5.1738e-06
0.000206933
-0.000287767
-0.00139559
0.0030695
0.0080147
-0.00567209
-0.0464259
-0.104801
0.0203309
0.575375
1.56862
2.81031
3.63703
3.70404
2.86576
1.55604
0.453935
-0.0497493
-0.101545
-0.0463906
-0.00649851
0.00225009
0.000161656
-0.000603097
-0.000225449
1.14021e-05
2.12512e-05
2.11991e-06
-1.4787e-06
-2.81107e-07
8.96176e-08
3.01067e-08
-3.54883e-09
-2.20462e-09
1.29659e-10
1.59606e-10
8.98357e-12
-6.26407e-12
-9.02225e-13
4.57968e-14
5.80526e-15
-3.92894e-15
-1.28042e-15
-2.53407e-16
1.28718e-07
-1.19679e-06
-3.34158e-06
1.25822e-05
-3.6108e-05
-2.37405e-05
0.000424989
-0.000659693
-0.00231524
0.00470543
0.014182
-0.00059942
-0.0812416
-0.171246
0.00536625
0.603775
1.6368
2.81316
3.33241
3.00333
1.9778
0.811699
0.0734301
-0.123074
-0.0728716
-0.0132075
0.00540219
0.00206949
-0.000847087
-0.000616557
-7.21545e-05
4.3098e-05
1.07224e-05
-2.63667e-06
-1.25133e-06
1.17049e-07
1.15434e-07
3.14173e-09
-7.85094e-09
-6.77461e-10
4.61324e-10
6.6819e-11
-2.16488e-11
-5.02747e-12
4.55132e-13
2.11795e-13
1.0234e-14
-4.18061e-15
-8.35955e-16
-1.33119e-16
-2.3084e-06
-3.53228e-06
7.53817e-07
1.57551e-05
-6.33852e-05
-6.87579e-06
0.000782773
-0.00125564
-0.00398342
0.00651732
0.0251157
0.0017924
-0.116084
-0.225801
-0.125464
0.327142
1.16421
1.9959
2.11704
1.67693
0.842051
0.13789
-0.136972
-0.106407
-0.0224135
0.0121096
0.00823738
0.000109102
-0.00119384
-0.000334778
4.95416e-05
3.32883e-05
-2.68184e-06
-3.83509e-06
-1.7602e-07
3.30022e-07
5.05628e-08
-1.93755e-08
-5.28397e-09
8.50331e-10
3.56108e-10
-3.84728e-11
-2.30491e-11
1.1822e-12
1.5009e-12
1.53491e-13
-1.47056e-14
-3.45914e-15
-4.07824e-16
-3.24212e-17
-5.22985e-06
-9.66099e-06
9.9074e-06
3.27243e-05
-0.000179857
0.00010377
0.00129556
-0.00213647
-0.00681531
0.00891755
0.0401628
0.00701121
-0.135737
-0.31145
-0.465477
-0.357656
0.0737643
0.404759
0.462789
0.185388
-0.144284
-0.261594
-0.164157
-0.0401339
0.020852
0.0208418
0.00506688
-0.00129365
-0.000799646
-1.39572e-05
7.53107e-05
2.91313e-06
-9.21524e-06
-1.68164e-06
7.06031e-07
2.34243e-07
-3.14012e-08
-2.16081e-08
1.04756e-10
1.37487e-09
2.57416e-11
-8.38348e-11
-2.70092e-12
6.11651e-12
1.02296e-12
-8.61531e-14
-3.21053e-14
-2.47961e-15
8.67242e-18
2.69231e-17
-1.74859e-06
-1.79468e-05
2.61916e-05
7.10912e-05
-0.000396613
0.000340429
0.00211122
-0.00316412
-0.0113941
0.0139229
0.05619
0.0273826
-0.143962
-0.543173
-1.0756
-1.40513
-1.44468
-1.33457
-1.20301
-0.995768
-0.694803
-0.340701
-0.0803788
0.0263096
0.0397876
0.0162742
0.00108341
-0.00129057
-0.000179747
0.000134469
2.75742e-05
-1.79633e-05
-6.46225e-06
9.98422e-07
7.55152e-07
-5.18737e-10
-6.49408e-08
-6.76953e-09
3.87109e-09
6.39066e-10
-2.20331e-10
-4.07529e-11
1.52696e-11
4.76221e-12
-2.79253e-13
-2.36406e-13
-2.40333e-14
6.02686e-16
2.33597e-16
3.3436e-17
6.17926e-06
-3.28937e-05
5.7338e-05
0.000129848
-0.000735121
0.000657463
0.00353124
-0.00563494
-0.0172632
0.0177967
0.0846191
0.07273
-0.202066
-0.890077
-1.81055
-2.55199
-2.88631
-2.79079
-2.2751
-1.51788
-0.755723
-0.205109
0.020819
0.0624492
0.0347343
0.00707384
-0.000853152
-0.000387619
0.000219083
9.44191e-05
-2.58843e-05
-1.78712e-05
5.90893e-08
1.927e-06
2.19233e-07
-1.50968e-07
-3.48757e-08
8.31596e-09
3.22906e-09
-3.61857e-10
-2.32001e-10
1.69498e-11
1.67352e-11
5.65904e-14
-1.07528e-12
-1.44234e-13
7.03636e-15
2.28185e-15
2.37196e-16
-4.48092e-18
-9.64504e-06
-6.38915e-05
0.000145631
0.000133741
-0.00128402
0.00131375
0.00561705
-0.00950694
-0.0252862
0.0244181
0.132332
0.114956
-0.291554
-1.19715
-2.35274
-3.33792
-3.70373
-3.3928
-2.49626
-1.39877
-0.491481
-0.0153628
0.085554
0.0614525
0.0184163
0.000738886
-0.000588636
0.000370607
0.000249574
-1.31325e-05
-3.9439e-05
-5.13327e-06
3.8151e-06
9.85095e-07
-2.73771e-07
-1.22207e-07
1.09347e-08
1.10105e-08
8.34369e-11
-8.21193e-10
-5.3618e-11
4.528e-11
3.92277e-12
-3.29893e-12
-6.71011e-13
6.62329e-14
2.52698e-14
2.07503e-15
-2.38388e-17
-6.58785e-17
-6.68829e-05
-0.000133234
0.000305372
8.08556e-05
-0.00206789
0.00270337
0.00817962
-0.0161357
-0.0370693
0.042831
0.199499
0.180265
-0.227968
-1.12735
-2.32485
-3.3042
-3.53065
-3.02695
-1.97223
-0.871568
-0.134271
0.108688
0.0978312
0.0388107
0.00406246
-0.000861141
0.000571399
0.000567067
7.16864e-05
-6.89862e-05
-1.97511e-05
5.39907e-06
2.84676e-06
-3.41057e-07
-3.42684e-07
-7.1376e-09
2.96723e-08
3.1188e-09
-2.16436e-09
-4.50662e-10
9.74274e-11
2.62938e-11
-6.22271e-12
-2.39365e-12
2.20702e-13
1.65015e-13
1.734e-14
-2.13722e-16
-3.1624e-16
-1.13915e-16
-0.000153125
-0.000194538
0.000686843
-0.000225629
-0.00321761
0.00550005
0.0110478
-0.0289588
-0.0529319
0.0702859
0.284914
0.440327
0.268363
-0.404399
-1.4915
-2.24521
-2.44929
-1.9579
-1.07113
-0.277266
0.113084
0.141597
0.070082
0.0150404
-0.0018604
0.000394983
0.00111313
0.000333036
-7.42549e-05
-4.9255e-05
3.82592e-06
6.28678e-06
-1.24704e-08
-7.84037e-07
-9.69917e-08
6.6267e-08
1.4755e-08
-4.439e-09
-1.71763e-09
1.43172e-10
1.14962e-10
-6.24003e-12
-7.84888e-12
1.60874e-13
6.3139e-13
8.74815e-14
-4.29329e-15
-1.82459e-15
-4.59147e-16
-1.23732e-16
-0.000197321
-8.97604e-05
0.0013649
-0.00108152
-0.00447216
0.0109904
0.01223
-0.0500044
-0.0733758
0.10899
0.564793
1.07082
1.30603
0.930032
0.0735529
-0.557834
-0.897169
-0.706679
-0.237909
0.114616
0.185858
0.109196
0.0358232
0.00260402
-0.00130646
0.00180036
0.000892878
2.54581e-05
-9.1348e-05
-5.96253e-06
1.10578e-05
1.32448e-06
-1.50706e-06
-3.63356e-07
1.21663e-07
4.91329e-08
-6.45927e-09
-4.95377e-09
-8.27097e-12
3.73732e-10
2.05634e-11
-2.25615e-11
-1.74624e-12
1.66327e-12
3.35618e-13
-3.9382e-14
-1.42305e-14
-1.89138e-15
-3.5761e-16
-9.23171e-17
-0.000235287
0.000282061
0.00229906
-0.00349555
-0.00494475
0.0214929
0.0100289
-0.097137
-0.108139
0.265955
1.03323
1.94914
2.57487
2.47157
1.90528
1.08191
0.453308
0.221563
0.229034
0.218088
0.136151
0.0542229
0.0120887
0.00126493
0.00131048
0.00178413
0.000359794
-0.000106577
-2.96882e-05
1.55627e-05
4.5459e-06
-2.37441e-06
-9.48022e-07
1.74855e-07
1.30705e-07
-2.81382e-09
-1.24505e-08
-8.5981e-10
9.65098e-10
1.56398e-10
-5.95472e-11
-1.34895e-11
2.95985e-12
1.05523e-12
-1.15094e-13
-7.63231e-14
-9.09972e-15
-6.61741e-16
-1.32602e-16
-4.54207e-17
-0.000202249
0.00137573
0.00264818
-0.00874553
-0.00166407
0.0409014
-0.0131553
-0.179801
-0.164629
0.339752
1.32966
2.52803
3.43476
3.59085
3.1033
2.11348
1.17671
0.572986
0.26883
0.115996
0.040618
0.011843
0.007579
0.00409558
0.00271555
0.000947527
-4.27164e-05
-7.36308e-05
1.62922e-05
1.05239e-05
-2.93638e-06
-2.11839e-06
1.36113e-07
2.80153e-07
1.80259e-08
-2.79634e-08
-4.27771e-09
2.07967e-09
5.61559e-10
-1.20722e-10
-5.53502e-11
3.25047e-12
3.26195e-12
-1.34792e-13
-2.54061e-13
-3.09657e-14
1.35882e-15
4.09087e-16
4.73478e-17
-1.22907e-17
0.000228109
0.00355622
0.000404998
-0.0178967
0.0168912
0.0678045
-0.0700708
-0.419394
-0.550704
-0.120566
0.878561
2.218
3.35549
3.7591
3.28898
2.2233
1.14802
0.399382
0.0471458
-0.045204
-0.036793
-0.0047342
0.0111982
0.00543536
0.00166854
0.000164742
-0.000109542
1.06653e-05
2.00426e-05
-1.8736e-06
-4.02927e-06
-1.39899e-07
5.22444e-07
7.89178e-08
-5.41865e-08
-1.44986e-08
3.87353e-09
1.64869e-09
-1.55372e-10
-1.62977e-10
-5.14068e-12
9.29389e-12
3.12183e-13
-6.47698e-13
-8.07639e-14
2.2345e-14
5.20904e-15
7.07301e-16
8.49265e-17
-6.65331e-18
0.00217914
0.0078887
-0.011135
-0.0232451
0.0701552
0.0939639
-0.335707
-1.07849
-1.55904
-1.40216
-0.527556
0.894489
2.22403
2.8753
2.5971
1.63208
0.629889
-0.00527978
-0.209639
-0.166631
-0.0715918
-0.00115503
0.0140332
0.00317152
0.000553364
-0.000145756
-1.80929e-05
3.55519e-05
4.3461e-06
-5.96171e-06
-9.70262e-07
8.25472e-07
2.00049e-07
-9.22272e-08
-3.76466e-08
6.03318e-09
4.37953e-09
-3.36312e-11
-3.72973e-10
-3.73408e-11
2.53719e-11
3.4285e-12
-1.46627e-12
-2.68543e-13
8.19343e-14
2.76442e-14
3.1725e-15
3.32069e-16
1.19534e-17
-1.89455e-17
0.00774859
0.00779222
-0.0420399
0.00279166
0.253297
0.171433
-0.643114
-1.8319
-2.73857
-2.95819
-2.32181
-0.933215
0.573812
1.5204
1.481
0.774592
0.0277662
-0.337128
-0.338923
-0.204914
-0.0624218
0.00699495
0.00994735
0.000200408
-0.000292381
-8.31763e-05
6.08493e-05
2.03616e-05
-6.20371e-06
-2.68899e-06
1.04857e-06
4.46881e-07
-1.2985e-07
-7.64607e-08
6.96951e-09
1.00771e-08
5.33299e-10
-7.61362e-10
-1.18004e-10
5.45971e-11
1.3034e-11
-3.43397e-12
-9.84838e-13
1.91112e-13
9.11129e-14
8.30804e-15
-1.56913e-16
-1.51335e-16
-7.20003e-17
-3.02038e-17
0.0145572
-0.00717096
-0.092099
0.335531
1.12654
1.10315
0.0563707
-1.45146
-2.86613
-3.7245
-3.60662
-2.4236
-0.854344
0.275202
0.515478
0.152719
-0.271104
-0.416979
-0.335461
-0.171936
-0.0444803
0.00792178
0.000530436
-0.000494515
-0.000193627
7.07488e-05
5.02026e-05
-2.15613e-06
-5.04789e-06
9.25589e-07
8.62785e-07
-1.37021e-07
-1.42879e-07
2.87722e-09
1.86966e-08
2.12125e-09
-1.57143e-09
-3.08197e-10
1.01497e-10
3.72795e-11
-5.85436e-12
-3.02701e-12
3.30302e-13
2.49283e-13
1.44932e-14
-7.13587e-15
-1.52251e-15
-3.56007e-16
-9.71417e-17
-2.86684e-17
-0.0214371
-0.104056
0.131737
1.07513
2.23576
2.4636
1.42243
0.142993
-1.48523
-3.24419
-3.87195
-3.07525
-1.60198
-0.376564
0.107383
0.0292321
-0.188037
-0.289832
-0.242036
-0.127218
-0.0316793
0.000258191
-0.00325599
-0.00105353
7.63239e-05
0.000116736
1.38938e-05
-8.38472e-06
-3.48029e-07
1.21593e-06
-4.36712e-08
-2.3499e-07
-7.20408e-09
3.15273e-08
5.35414e-09
-2.95811e-09
-7.66265e-10
2.04028e-10
8.8598e-11
-7.76644e-12
-8.49112e-12
2.17901e-13
6.36076e-13
3.75315e-14
-3.10149e-14
-6.7162e-15
-1.13415e-15
-2.53269e-16
-6.16969e-17
-1.61279e-17
-0.0298786
-0.162701
0.274643
1.66745
3.01491
3.23657
2.2735
1.35917
0.00967934
-2.08912
-3.30759
-2.93236
-1.56953
-0.320796
0.302289
0.341001
0.0928286
-0.105587
-0.146232
-0.0913218
-0.0248494
-0.00862775
-0.00240623
-7.26427e-07
0.000196102
2.87488e-05
-1.63929e-05
-3.37231e-06
1.83916e-06
3.41727e-07
-2.80272e-07
-3.42846e-08
4.78525e-08
9.34922e-09
-5.23499e-09
-1.74559e-09
3.83501e-10
2.01926e-10
-7.94573e-12
-1.80762e-11
-5.09244e-13
1.52187e-12
1.02359e-13
-9.70323e-14
-2.16814e-14
-1.95289e-15
-2.56302e-16
-4.68797e-17
-9.17041e-18
-2.13683e-18
-0.00302467
-0.114198
0.188583
1.67962
3.23923
3.52767
2.95563
2.22886
1.09682
-0.83849
-2.38457
-2.21764
-0.987653
0.159604
0.754965
0.714186
0.333046
0.0238067
-0.0934601
-0.0728776
-0.024491
-0.00431555
-0.00103635
2.44259e-05
2.58725e-05
-2.65481e-05
-7.78697e-06
2.58685e-06
9.01196e-07
-3.15901e-07
-9.10455e-08
5.95809e-08
1.70541e-08
-7.99461e-09
-3.06421e-09
7.02463e-10
4.62077e-10
1.94953e-12
-3.5366e-11
-3.0565e-12
2.87111e-12
2.54428e-13
-2.50747e-13
-5.31597e-14
8.3032e-16
1.20801e-15
3.2607e-16
8.78635e-17
2.30269e-17
5.85029e-18
0.019089
-0.00986646
0.00811008
1.03059
2.62624
3.46797
3.53194
3.28011
2.2889
0.371689
-1.38054
-1.45535
-0.493455
0.41136
1.01648
0.898526
0.446779
0.0784889
-0.0638691
-0.0557518
-0.0114397
-0.00212934
0.000137723
0.000112802
-2.58365e-05
-1.575e-05
3.05146e-06
2.04843e-06
-1.31787e-07
-1.26127e-07
7.76396e-08
2.93607e-08
-9.4379e-09
-5.0322e-09
1.07254e-09
8.29086e-10
9.89139e-12
-7.19302e-11
-7.51967e-12
5.56583e-12
8.83841e-13
-4.63356e-13
-9.68121e-14
1.85823e-14
7.42484e-15
1.62259e-15
4.12292e-16
1.08235e-16
2.77463e-17
7.01387e-18
0.00657523
0.0295032
-0.0483107
0.178378
1.33087
2.60695
3.2674
3.34952
2.86841
1.127
-1.02295
-1.44082
-0.933667
0.277607
0.96554
0.844982
0.397331
0.0694188
-0.0499661
-0.0348568
3.10348e-05
0.000661033
3.95412e-05
-8.93904e-05
-2.95363e-05
5.67755e-06
4.752e-06
3.03389e-07
-3.05861e-07
2.33454e-08
3.321e-08
-1.07324e-08
-6.47205e-09
1.17257e-09
1.25271e-09
-1.20647e-11
-1.24134e-10
-1.25819e-11
1.09536e-11
2.23539e-12
-8.56489e-13
-1.91618e-13
5.90315e-14
2.30688e-14
3.88039e-15
8.97885e-16
2.47038e-16
6.78873e-17
1.79447e-17
4.65664e-18
-0.00612272
-0.0112928
0.0196379
-0.0449291
0.244318
0.953806
1.7439
2.8234
3.377
1.10762
-1.56734
-2.45665
-1.62161
-0.147748
0.624127
0.620564
0.290632
0.0549153
-0.0394573
-0.00622568
0.000144222
-7.87279e-05
-4.07983e-05
2.18694e-06
1.20771e-05
7.24926e-06
5.36296e-09
-8.68822e-07
-9.03455e-08
6.82032e-08
4.36546e-09
-5.30338e-09
1.12499e-09
1.19936e-09
-6.00192e-11
-1.96642e-10
-8.6669e-12
2.12404e-11
4.60082e-12
-1.51224e-12
-3.95002e-13
1.16921e-13
4.54122e-14
3.66598e-15
5.53611e-16
2.18546e-16
7.92292e-17
2.56466e-17
7.5116e-18
2.09262e-18
0.011176
-0.000634438
-0.0417632
0.150047
-0.10752
-1.15689
-0.516376
2.37975
5.08522
1.05309
-1.91397
-3.18133
-2.18753
-0.587103
0.352657
0.430101
0.204174
0.0410956
-0.0220437
0.00082749
0.000140563
-0.000143235
-8.35005e-05
-8.15533e-06
5.85498e-06
3.51411e-07
-1.24439e-06
-2.32211e-07
8.02576e-08
1.25209e-08
-7.70375e-09
2.3609e-10
9.41602e-10
-1.85973e-10
-2.25436e-10
4.15017e-12
4.00548e-11
6.90992e-12
-2.63617e-12
-9.47646e-13
1.49297e-13
5.91703e-14
-5.80986e-15
-2.71188e-15
-4.39648e-16
-5.31563e-17
2.57247e-18
4.57014e-18
1.95244e-18
6.4928e-19
-0.014127
-0.344611
0.216585
1.73933
-1.15229
-4.1535
-2.84078
3.97342
6.09114
3.17455
-1.33684
-3.18646
-2.18873
-0.558728
0.249826
0.306476
0.144048
0.0274191
-0.00565187
-0.00172879
-0.000653186
-0.000174556
7.33599e-06
1.88847e-05
4.18428e-06
-4.30014e-07
-1.18237e-07
1.10447e-07
3.69513e-08
9.80057e-10
3.12577e-09
1.22883e-09
-5.03448e-10
-3.5011e-10
1.50075e-11
5.54939e-11
1.01301e-11
-3.59685e-12
-1.42943e-12
1.87431e-13
8.90411e-14
-1.68742e-14
-6.94489e-15
-1.2673e-15
-2.77582e-16
-5.46647e-17
-8.05694e-18
-4.19681e-19
2.57162e-19
1.38793e-19
-0.950148
-2.15449
1.15003
6.90098
-3.97869
-10.176
-4.2197
5.43815
8.58344
4.24449
-1.0938
-2.88836
-1.84892
-0.456114
0.158601
0.192799
0.0844904
0.0134441
-0.00275803
-0.000419706
-7.28314e-05
-5.47996e-05
-4.03178e-05
-1.33358e-05
-1.28468e-06
6.083e-07
4.42038e-07
8.54626e-08
7.15753e-09
-9.41693e-10
-1.4512e-09
-1.58488e-09
-4.82616e-10
3.34783e-11
8.53425e-11
1.77882e-11
-2.42618e-12
-1.46202e-12
1.96815e-13
9.78767e-14
-2.27441e-14
-7.52031e-15
-8.19289e-16
-2.7398e-16
-8.2026e-17
-1.91544e-17
-3.4741e-18
-4.24206e-19
1.9431e-21
2.30711e-20
)
;

boundaryField
{
    movingWall
    {
        type            zeroGradient;
    }
    fixedWalls
    {
        type            zeroGradient;
    }
    frontAndBack
    {
        type            empty;
    }
}

