/*--------------------------------*- C++ -*----------------------------------*\
| =========                 |                                                 |
| \\      /  F ield         | OpenFOAM: The Open Source CFD Toolbox           |
|  \\    /   O peration     | Version:  v2006                                 |
|   \\  /    A nd           | Website:  www.openfoam.com                      |
|    \\/     M anipulation  |                                                 |
\*---------------------------------------------------------------------------*/
FoamFile
{
    version     2.0;
    format      ascii;
    class       volScalarField;
    location    "3";
    object      p_rgh;
}
// * * * * * * * * * * * * * * * * * * * * * * * * * * * * * * * * * * * * * //

dimensions      [1 -1 -2 0 0 0 0];


internalField   nonuniform List<scalar> 
52500
(
2432.06
2432.05
2431.81
2431.48
2431.05
2430.51
2429.86
2429.11
2428.26
2427.3
2426.25
2425.1
2423.85
2422.51
2421.08
2419.56
2417.96
2416.27
2414.51
2412.68
2410.77
2408.79
2406.76
2404.66
2402.51
2400.3
2398.05
2395.76
2393.43
2391.07
2388.69
2386.28
2383.85
2381.41
2378.96
2376.51
2374.06
2371.62
2369.2
2366.79
2364.41
2362.06
2359.74
2357.46
2355.23
2353.05
2350.92
2348.86
2346.86
2344.94
2343.09
2341.32
2339.63
2338.04
2336.54
2335.14
2333.85
2332.66
2331.59
2330.63
2329.79
2329.08
2328.49
2328.03
2327.71
2327.52
2327.47
2327.56
2327.8
2328.18
2328.71
2329.39
2330.22
2331.21
2332.34
2333.64
2335.08
2336.69
2338.45
2340.36
2342.44
2344.66
2347.05
2349.58
2352.27
2355.12
2358.11
2361.26
2364.57
2368.02
2371.61
2375.32
2379.17
2383.16
2387.26
2391.5
2395.86
2400.34
2404.93
2409.63
2414.44
2419.36
2424.37
2429.47
2434.67
2439.95
2445.31
2450.74
2456.24
2461.81
2467.43
2473.11
2478.84
2484.61
2490.41
2496.25
2502.11
2507.99
2513.88
2519.78
2525.69
2531.59
2537.48
2543.36
2549.22
2555.05
2560.85
2566.62
2572.34
2578.02
2583.64
2589.21
2594.71
2600.15
2605.52
2610.8
2616.01
2621.13
2626.16
2631.09
2635.93
2640.66
2645.29
2649.8
2654.21
2658.49
2662.66
2666.7
2670.62
2674.4
2678.06
2681.58
2684.97
2688.22
2691.34
2694.31
2697.14
2699.83
2702.37
2704.77
2707.02
2709.13
2711.09
2712.91
2714.58
2716.1
2717.48
2718.72
2719.81
2720.76
2721.57
2722.24
2722.77
2723.16
2723.42
2723.55
2723.54
2723.41
2723.16
2722.78
2722.28
2721.66
2720.93
2720.09
2719.14
2718.09
2716.94
2715.7
2714.36
2712.94
2711.44
2709.86
2708.21
2706.48
2704.69
2702.83
2700.92
2698.95
2696.94
2694.89
2692.8
2690.67
2688.52
2686.34
2684.15
2681.94
2679.73
2677.51
2675.3
2673.09
2670.9
2668.72
2666.57
2664.45
2662.36
2660.32
2658.31
2656.36
2654.46
2652.61
2650.84
2649.13
2647.5
2645.94
2644.47
2643.09
2641.81
2640.62
2639.54
2638.56
2637.7
2636.96
2636.33
2635.84
2635.47
2635.24
2635.15
2635.21
2635.41
2635.77
2636.28
2636.96
2637.8
2638.81
2639.99
2641.35
2642.9
2644.62
2646.54
2648.65
2650.95
2653.45
2656.16
2659.07
2662.19
2665.52
2669.07
2672.84
2676.83
2681.04
2685.47
2690.14
2695.03
2700.16
2705.53
2711.12
2716.96
2723.03
2729.35
2735.9
2742.7
2749.74
2757.02
2764.56
2772.35
2780.39
2788.67
2797.18
2805.92
2814.87
2824.03
2833.42
2843.01
2852.83
2862.86
2873.1
2883.54
2894.18
2905
2916.01
2927.2
2938.55
2950.07
2961.76
2973.61
2985.61
2997.77
3010.05
3022.44
3034.93
3047.51
3060.17
3072.9
3085.69
3098.53
3111.4
3124.3
3137.21
3150.11
3163
3175.86
3188.67
3201.42
3214.1
3226.69
3239.17
3251.54
3263.77
3275.85
3287.76
3299.48
3311.01
3322.32
3333.41
3344.24
3354.81
3365.11
3375.11
3384.8
3394.16
3403.19
3411.87
3420.18
3428.11
3435.64
3442.77
3449.48
3455.76
3461.6
3466.99
3471.92
3476.38
3480.37
3483.87
3486.88
3489.4
3491.41
3492.93
3493.96
3494.52
2431.94
2431.92
2431.69
2431.36
2430.92
2430.38
2429.73
2428.98
2428.12
2427.17
2426.11
2424.95
2423.7
2422.36
2420.92
2419.4
2417.8
2416.11
2414.34
2412.5
2410.59
2408.61
2406.57
2404.46
2402.31
2400.1
2397.84
2395.55
2393.21
2390.85
2388.45
2386.04
2383.6
2381.15
2378.7
2376.24
2373.79
2371.34
2368.91
2366.5
2364.11
2361.75
2359.43
2357.15
2354.91
2352.72
2350.59
2348.52
2346.52
2344.59
2342.73
2340.96
2339.27
2337.67
2336.17
2334.76
2333.46
2332.27
2331.19
2330.23
2329.39
2328.67
2328.08
2327.62
2327.29
2327.1
2327.05
2327.14
2327.38
2327.76
2328.29
2328.97
2329.8
2330.79
2331.93
2333.22
2334.67
2336.28
2338.04
2339.96
2342.03
2344.26
2346.65
2349.19
2351.88
2354.73
2357.72
2360.85
2364.13
2367.54
2371.11
2374.81
2378.66
2382.64
2386.76
2391
2395.37
2399.86
2404.46
2409.17
2414
2418.92
2423.95
2429.07
2434.28
2439.58
2444.95
2450.4
2455.92
2461.5
2467.15
2472.84
2478.58
2484.37
2490.19
2496.04
2501.92
2507.82
2513.73
2519.66
2525.58
2531.5
2537.41
2543.31
2549.19
2555.04
2560.86
2566.64
2572.38
2578.08
2583.72
2589.31
2594.83
2600.28
2605.66
2610.96
2616.19
2621.32
2626.37
2631.31
2636.16
2640.91
2645.55
2650.08
2654.49
2658.79
2662.97
2667.02
2670.95
2674.75
2678.42
2681.95
2685.35
2688.61
2691.73
2694.7
2697.54
2700.23
2702.78
2705.19
2707.44
2709.56
2711.52
2713.34
2715.01
2716.53
2717.91
2719.15
2720.24
2721.19
2722
2722.66
2723.19
2723.58
2723.83
2723.96
2723.95
2723.81
2723.55
2723.17
2722.67
2722.04
2721.31
2720.47
2719.52
2718.46
2717.31
2716.05
2714.7
2713.26
2711.73
2710.13
2708.44
2706.69
2704.88
2703.01
2701.08
2699.1
2697.07
2695
2692.89
2690.75
2688.58
2686.39
2684.18
2681.96
2679.73
2677.49
2675.26
2673.04
2670.83
2668.64
2666.47
2664.33
2662.23
2660.17
2658.14
2656.17
2654.25
2652.4
2650.6
2648.88
2647.23
2645.66
2644.18
2642.78
2641.48
2640.28
2639.18
2638.19
2637.31
2636.55
2635.92
2635.41
2635.03
2634.79
2634.68
2634.73
2634.92
2635.27
2635.77
2636.43
2637.27
2638.27
2639.44
2640.79
2642.33
2644.05
2645.96
2648.06
2650.35
2652.85
2655.55
2658.46
2661.58
2664.91
2668.45
2672.22
2676.2
2680.41
2684.85
2689.52
2694.41
2699.54
2704.9
2710.5
2716.34
2722.42
2728.73
2735.28
2742.08
2749.11
2756.38
2763.88
2771.6
2779.54
2787.71
2796.14
2804.84
2813.78
2822.96
2832.37
2842
2851.85
2861.92
2872.18
2882.66
2893.33
2904.19
2915.25
2926.48
2937.9
2949.48
2961.21
2973.09
2985.09
2997.23
3009.49
3021.87
3034.36
3046.95
3059.63
3072.39
3085.21
3098.08
3110.99
3123.92
3136.86
3149.8
3162.73
3175.63
3188.48
3201.28
3214
3226.63
3239.16
3251.57
3263.84
3275.97
3287.92
3299.7
3311.27
3322.64
3333.77
3344.65
3355.28
3365.62
3375.67
3385.41
3394.83
3403.9
3412.62
3420.98
3428.95
3436.53
3443.69
3450.44
3456.76
3462.63
3468.05
3473.01
3477.5
3481.51
3485.03
3488.06
3490.59
3492.62
3494.14
3495.17
3495.75
2431.71
2431.69
2431.46
2431.13
2430.69
2430.14
2429.49
2428.74
2427.88
2426.91
2425.85
2424.69
2423.43
2422.08
2420.64
2419.11
2417.5
2415.8
2414.02
2412.17
2410.25
2408.26
2406.21
2404.09
2401.93
2399.71
2397.44
2395.13
2392.78
2390.4
2388
2385.57
2383.12
2380.66
2378.19
2375.72
2373.26
2370.8
2368.35
2365.93
2363.53
2361.15
2358.82
2356.52
2354.27
2352.07
2349.92
2347.84
2345.83
2343.88
2342.01
2340.23
2338.53
2336.92
2335.41
2333.99
2332.69
2331.49
2330.4
2329.43
2328.58
2327.85
2327.26
2326.79
2326.46
2326.26
2326.21
2326.29
2326.52
2326.9
2327.43
2328.11
2328.94
2329.93
2331.07
2332.36
2333.81
2335.42
2337.19
2339.11
2341.19
2343.43
2345.82
2348.37
2351.07
2353.92
2356.92
2360.08
2363.38
2366.82
2370.41
2374.15
2378.02
2382.02
2386.16
2390.42
2394.81
2399.31
2403.94
2408.67
2413.52
2418.46
2423.51
2428.65
2433.88
2439.2
2444.6
2450.07
2455.61
2461.22
2466.88
2472.6
2478.37
2484.18
2490.02
2495.9
2501.81
2507.73
2513.67
2519.61
2525.56
2531.51
2537.44
2543.37
2549.27
2555.14
2560.99
2566.8
2572.56
2578.28
2583.95
2589.56
2595.1
2600.58
2605.98
2611.31
2616.55
2621.71
2626.77
2631.74
2636.61
2641.38
2646.04
2650.59
2655.02
2659.34
2663.53
2667.6
2671.54
2675.36
2679.04
2682.58
2685.99
2689.26
2692.39
2695.38
2698.23
2700.93
2703.48
2705.89
2708.15
2710.27
2712.24
2714.06
2715.73
2717.25
2718.63
2719.86
2720.95
2721.89
2722.7
2723.35
2723.87
2724.26
2724.5
2724.61
2724.59
2724.44
2724.17
2723.77
2723.25
2722.61
2721.85
2720.98
2720.01
2718.92
2717.75
2716.48
2715.11
2713.66
2712.11
2710.49
2708.79
2707.02
2705.19
2703.29
2701.34
2699.33
2697.27
2695.18
2693.04
2690.87
2688.67
2686.45
2684.21
2681.95
2679.69
2677.43
2675.17
2672.91
2670.67
2668.45
2666.25
2664.08
2661.95
2659.85
2657.8
2655.79
2653.84
2651.96
2650.13
2648.38
2646.7
2645.1
2643.58
2642.16
2640.83
2639.6
2638.47
2637.45
2636.55
2635.76
2635.1
2634.57
2634.16
2633.9
2633.77
2633.79
2633.96
2634.29
2634.77
2635.41
2636.22
2637.21
2638.36
2639.7
2641.21
2642.92
2644.81
2646.9
2649.18
2651.67
2654.36
2657.25
2660.36
2663.68
2667.22
2670.97
2674.95
2679.15
2683.59
2688.25
2693.14
2698.27
2703.63
2709.23
2715.06
2721.14
2727.46
2734.02
2740.82
2747.86
2755.14
2762.68
2770.46
2778.49
2786.78
2795.3
2804.02
2812.92
2822.08
2831.48
2841.11
2850.96
2861.03
2871.3
2881.78
2892.45
2903.33
2914.38
2925.62
2937.04
2948.62
2960.36
2972.26
2984.31
2996.49
3008.81
3021.24
3033.78
3046.42
3059.14
3071.93
3084.79
3097.7
3110.64
3123.61
3136.6
3149.58
3162.55
3175.49
3188.38
3201.22
3213.99
3226.67
3239.24
3251.7
3264.02
3276.19
3288.2
3300.02
3311.65
3323.06
3334.24
3345.17
3355.84
3366.23
3376.32
3386.11
3395.57
3404.69
3413.45
3421.84
3429.85
3437.47
3444.67
3451.46
3457.8
3463.71
3469.16
3474.14
3478.66
3482.69
3486.23
3489.28
3491.82
3493.87
3495.4
3496.43
3497
2431.37
2431.36
2431.12
2430.78
2430.34
2429.79
2429.14
2428.38
2427.51
2426.54
2425.47
2424.3
2423.03
2421.67
2420.22
2418.68
2417.05
2415.34
2413.55
2411.69
2409.75
2407.74
2405.67
2403.54
2401.36
2399.12
2396.83
2394.51
2392.14
2389.74
2387.32
2384.87
2382.4
2379.92
2377.43
2374.94
2372.46
2369.98
2367.51
2365.06
2362.64
2360.25
2357.89
2355.58
2353.3
2351.09
2348.92
2346.82
2344.79
2342.82
2340.94
2339.13
2337.42
2335.79
2334.26
2332.83
2331.51
2330.3
2329.2
2328.21
2327.35
2326.62
2326.01
2325.53
2325.19
2324.99
2324.93
2325.01
2325.24
2325.61
2326.14
2326.81
2327.64
2328.63
2329.77
2331.07
2332.52
2334.14
2335.91
2337.84
2339.93
2342.17
2344.58
2347.13
2349.85
2352.71
2355.73
2358.9
2362.22
2365.68
2369.29
2373.04
2376.93
2380.95
2385.11
2389.4
2393.81
2398.34
2402.99
2407.75
2412.62
2417.6
2422.68
2427.85
2433.11
2438.46
2443.9
2449.4
2454.98
2460.62
2466.32
2472.08
2477.89
2483.74
2489.62
2495.54
2501.48
2507.45
2513.43
2519.41
2525.4
2531.39
2537.37
2543.33
2549.28
2555.19
2561.08
2566.93
2572.74
2578.5
2584.2
2589.85
2595.44
2600.95
2606.4
2611.76
2617.04
2622.24
2627.34
2632.34
2637.25
2642.05
2646.74
2651.32
2655.78
2660.13
2664.35
2668.44
2672.41
2676.25
2679.95
2683.52
2686.95
2690.24
2693.39
2696.4
2699.26
2701.97
2704.54
2706.96
2709.23
2711.35
2713.32
2715.15
2716.82
2718.35
2719.73
2720.96
2722.04
2722.98
2723.77
2724.42
2724.93
2725.3
2725.54
2725.63
2725.6
2725.43
2725.14
2724.72
2724.17
2723.51
2722.73
2721.84
2720.85
2719.74
2718.54
2717.23
2715.83
2714.34
2712.77
2711.11
2709.37
2707.57
2705.69
2703.75
2701.76
2699.71
2697.61
2695.46
2693.28
2691.07
2688.82
2686.55
2684.27
2681.97
2679.66
2677.35
2675.04
2672.74
2670.46
2668.19
2665.94
2663.72
2661.54
2659.4
2657.3
2655.25
2653.26
2651.32
2649.45
2647.66
2645.93
2644.29
2642.73
2641.26
2639.89
2638.62
2637.45
2636.39
2635.45
2634.63
2633.93
2633.35
2632.91
2632.61
2632.45
2632.44
2632.57
2632.87
2633.32
2633.93
2634.71
2635.66
2636.79
2638.1
2639.59
2641.26
2643.13
2645.19
2647.46
2649.92
2652.59
2655.46
2658.55
2661.85
2665.37
2669.11
2673.08
2677.27
2681.69
2686.34
2691.22
2696.34
2701.69
2707.29
2713.12
2719.19
2725.51
2732.07
2738.87
2745.91
2753.2
2760.72
2768.48
2776.47
2784.68
2793.11
2801.77
2810.85
2820.09
2829.54
2839.2
2849.08
2859.18
2869.49
2880.01
2890.72
2901.64
2912.75
2924.04
2935.51
2947.16
2958.96
2970.92
2983.03
2995.27
3007.64
3020.13
3032.73
3045.42
3058.21
3071.07
3084
3096.98
3110
3123.05
3136.11
3149.17
3162.22
3175.23
3188.21
3201.13
3213.98
3226.74
3239.4
3251.94
3264.34
3276.6
3288.69
3300.59
3312.3
3323.79
3335.05
3346.06
3356.81
3367.28
3377.45
3387.31
3396.84
3406.03
3414.86
3423.32
3431.4
3439.07
3446.33
3453.17
3459.57
3465.52
3471.01
3476.04
3480.59
3484.65
3488.22
3491.29
3493.86
3495.91
3497.45
3498.5
3499.07
2430.92
2430.9
2430.66
2430.32
2429.88
2429.33
2428.66
2427.89
2427.02
2426.04
2424.96
2423.77
2422.49
2421.12
2419.65
2418.09
2416.45
2414.72
2412.91
2411.03
2409.07
2407.04
2404.95
2402.8
2400.59
2398.33
2396.02
2393.67
2391.28
2388.86
2386.4
2383.93
2381.43
2378.93
2376.41
2373.89
2371.38
2368.87
2366.38
2363.91
2361.46
2359.04
2356.65
2354.31
2352.01
2349.76
2347.58
2345.45
2343.39
2341.4
2339.49
2337.67
2335.93
2334.28
2332.73
2331.28
2329.94
2328.7
2327.59
2326.59
2325.71
2324.96
2324.34
2323.85
2323.5
2323.28
2323.21
2323.29
2323.51
2323.88
2324.4
2325.07
2325.9
2326.89
2328.03
2329.33
2330.8
2332.42
2334.19
2336.13
2338.23
2340.49
2342.91
2345.48
2348.21
2351.1
2354.13
2357.32
2360.67
2364.16
2367.79
2371.57
2375.49
2379.54
2383.73
2388.05
2392.5
2397.06
2401.75
2406.55
2411.47
2416.48
2421.61
2426.82
2432.13
2437.53
2443.01
2448.56
2454.19
2459.88
2465.63
2471.44
2477.3
2483.2
2489.14
2495.11
2501.11
2507.13
2513.16
2519.2
2525.25
2531.29
2537.32
2543.34
2549.34
2555.32
2561.26
2567.16
2573.03
2578.84
2584.6
2590.3
2595.94
2601.51
2607
2612.41
2617.74
2622.99
2628.13
2633.18
2638.13
2642.98
2647.71
2652.33
2656.84
2661.22
2665.48
2669.61
2673.61
2677.48
2681.22
2684.81
2688.27
2691.58
2694.76
2697.78
2700.66
2703.39
2705.98
2708.41
2710.69
2712.82
2714.81
2716.63
2718.31
2719.84
2721.22
2722.44
2723.52
2724.45
2725.24
2725.88
2726.37
2726.73
2726.94
2727.02
2726.96
2726.77
2726.45
2726
2725.43
2724.73
2723.92
2723
2721.96
2720.81
2719.56
2718.21
2716.77
2715.23
2713.61
2711.9
2710.11
2708.25
2706.33
2704.34
2702.28
2700.18
2698.02
2695.82
2693.58
2691.31
2689.01
2686.68
2684.33
2681.97
2679.6
2677.23
2674.86
2672.49
2670.14
2667.81
2665.5
2663.22
2660.98
2658.77
2656.61
2654.5
2652.44
2650.45
2648.52
2646.66
2644.87
2643.17
2641.56
2640.03
2638.6
2637.27
2636.05
2634.94
2633.94
2633.07
2632.31
2631.69
2631.2
2630.85
2630.64
2630.58
2630.67
2630.92
2631.33
2631.9
2632.64
2633.55
2634.64
2635.91
2637.37
2639.01
2640.84
2642.87
2645.11
2647.54
2650.18
2653.03
2656.09
2659.37
2662.87
2666.59
2670.54
2674.71
2679.12
2683.76
2688.63
2693.74
2699.09
2704.67
2710.5
2716.58
2722.9
2729.46
2736.27
2743.32
2750.62
2758.17
2765.96
2774
2782.31
2790.87
2799.7
2808.61
2817.8
2827.25
2836.93
2846.85
2856.98
2867.33
2877.88
2888.65
2899.61
2910.77
2922.12
2933.64
2945.34
2957.2
2969.22
2981.4
2993.71
3006.15
3018.72
3031.39
3044.17
3057.04
3069.99
3083
3096.07
3109.18
3122.32
3135.48
3148.64
3161.78
3174.91
3187.99
3201.01
3213.96
3226.83
3239.6
3252.25
3264.76
3277.12
3289.32
3301.34
3313.15
3324.75
3336.12
3347.24
3358.1
3368.67
3378.94
3388.9
3398.53
3407.82
3416.74
3425.29
3433.45
3441.21
3448.55
3455.46
3461.93
3467.95
3473.51
3478.59
3483.19
3487.29
3490.9
3494.01
3496.6
3498.68
3500.24
3501.29
3501.88
2430.35
2430.34
2430.09
2429.75
2429.3
2428.74
2428.07
2427.29
2426.4
2425.41
2424.31
2423.12
2421.82
2420.43
2418.94
2417.36
2415.7
2413.95
2412.12
2410.21
2408.23
2406.17
2404.06
2401.87
2399.64
2397.35
2395.01
2392.62
2390.2
2387.75
2385.26
2382.75
2380.22
2377.68
2375.13
2372.58
2370.03
2367.49
2364.96
2362.46
2359.97
2357.52
2355.1
2352.72
2350.39
2348.11
2345.89
2343.73
2341.64
2339.62
2337.68
2335.83
2334.06
2332.38
2330.81
2329.33
2327.96
2326.71
2325.57
2324.55
2323.65
2322.88
2322.24
2321.74
2321.37
2321.15
2321.06
2321.13
2321.34
2321.71
2322.22
2322.89
2323.72
2324.71
2325.85
2327.16
2328.63
2330.25
2332.04
2334
2336.11
2338.38
2340.82
2343.41
2346.16
2349.07
2352.13
2355.35
2358.72
2362.24
2365.91
2369.72
2373.68
2377.77
2382
2386.36
2390.85
2395.46
2400.2
2405.05
2410.01
2415.08
2420.25
2425.53
2430.89
2436.34
2441.88
2447.5
2453.18
2458.94
2464.75
2470.62
2476.55
2482.51
2488.52
2494.56
2500.62
2506.71
2512.81
2518.92
2525.04
2531.15
2537.25
2543.34
2549.41
2555.45
2561.46
2567.43
2573.36
2579.25
2585.07
2590.84
2596.54
2602.17
2607.73
2613.21
2618.6
2623.9
2629.11
2634.22
2639.23
2644.12
2648.91
2653.58
2658.14
2662.57
2666.87
2671.05
2675.1
2679.01
2682.78
2686.41
2689.9
2693.25
2696.45
2699.5
2702.41
2705.16
2707.76
2710.21
2712.51
2714.65
2716.64
2718.48
2720.16
2721.69
2723.07
2724.29
2725.36
2726.28
2727.06
2727.68
2728.16
2728.49
2728.69
2728.74
2728.65
2728.43
2728.08
2727.59
2726.98
2726.25
2725.39
2724.42
2723.34
2722.14
2720.84
2719.44
2717.94
2716.35
2714.67
2712.9
2711.06
2709.14
2707.14
2705.09
2702.97
2700.79
2698.56
2696.29
2693.98
2691.63
2689.25
2686.84
2684.42
2681.98
2679.54
2677.08
2674.64
2672.19
2669.77
2667.35
2664.97
2662.61
2660.28
2658
2655.76
2653.57
2651.44
2649.37
2647.36
2645.43
2643.57
2641.8
2640.11
2638.51
2637.01
2635.61
2634.32
2633.14
2632.08
2631.14
2630.32
2629.64
2629.09
2628.67
2628.41
2628.29
2628.32
2628.52
2628.87
2629.39
2630.08
2630.94
2631.98
2633.21
2634.61
2636.21
2638.01
2640
2642.19
2644.59
2647.19
2650.01
2653.04
2656.29
2659.76
2663.46
2667.38
2671.53
2675.92
2680.54
2685.4
2690.49
2695.83
2701.41
2707.24
2713.31
2719.62
2726.19
2733
2740.06
2747.37
2754.93
2762.73
2770.78
2779.07
2787.6
2796.35
2805.41
2814.68
2824.19
2833.92
2843.87
2854.06
2864.46
2875.07
2885.9
2896.93
2908.15
2919.57
2931.17
2942.95
2954.9
2967.01
2979.27
2991.68
3004.22
3016.88
3029.66
3042.55
3055.52
3068.58
3081.71
3094.89
3108.12
3121.38
3134.66
3147.94
3161.22
3174.47
3187.68
3200.83
3213.92
3226.92
3239.82
3252.61
3265.26
3277.76
3290.09
3302.25
3314.2
3325.94
3337.44
3348.7
3359.68
3370.39
3380.79
3390.88
3400.63
3410.04
3419.08
3427.74
3436.01
3443.87
3451.32
3458.32
3464.88
3470.98
3476.62
3481.77
3486.43
3490.6
3494.26
3497.41
3500.04
3502.15
3503.73
3504.8
3505.4
2429.67
2429.66
2429.41
2429.07
2428.61
2428.04
2427.36
2426.57
2425.66
2424.66
2423.54
2422.33
2421.01
2419.6
2418.09
2416.49
2414.8
2413.02
2411.16
2409.22
2407.21
2405.12
2402.97
2400.76
2398.49
2396.16
2393.78
2391.36
2388.9
2386.41
2383.88
2381.33
2378.76
2376.18
2373.59
2371
2368.41
2365.83
2363.26
2360.71
2358.18
2355.68
2353.22
2350.81
2348.43
2346.12
2343.85
2341.66
2339.53
2337.47
2335.5
2333.6
2331.8
2330.09
2328.48
2326.98
2325.58
2324.3
2323.13
2322.08
2321.16
2320.37
2319.71
2319.19
2318.8
2318.56
2318.47
2318.52
2318.72
2319.08
2319.59
2320.26
2321.08
2322.07
2323.22
2324.53
2326
2327.64
2329.44
2331.41
2333.54
2335.83
2338.28
2340.9
2343.68
2346.61
2349.7
2352.94
2356.36
2359.92
2363.63
2367.49
2371.49
2375.63
2379.9
2384.31
2388.85
2393.52
2398.31
2403.22
2408.25
2413.38
2418.62
2423.95
2429.39
2434.91
2440.52
2446.2
2451.96
2457.79
2463.68
2469.63
2475.63
2481.68
2487.77
2493.88
2500.03
2506.2
2512.38
2518.58
2524.78
2530.97
2537.16
2543.33
2549.48
2555.61
2561.7
2567.76
2573.77
2579.74
2585.64
2591.49
2597.27
2602.98
2608.62
2614.17
2619.64
2625.01
2630.29
2635.47
2640.55
2645.51
2650.36
2655.1
2659.71
2664.2
2668.56
2672.79
2676.89
2680.85
2684.67
2688.35
2691.88
2695.26
2698.5
2701.59
2704.52
2707.3
2709.93
2712.4
2714.71
2716.87
2718.87
2720.72
2722.4
2723.94
2725.31
2726.53
2727.59
2728.5
2729.26
2729.87
2730.33
2730.64
2730.8
2730.82
2730.7
2730.45
2730.05
2729.53
2728.87
2728.09
2727.19
2726.16
2725.02
2723.77
2722.41
2720.94
2719.37
2717.71
2715.96
2714.12
2712.2
2710.2
2708.12
2705.98
2703.78
2701.52
2699.21
2696.85
2694.45
2692.01
2689.54
2687.04
2684.52
2681.99
2679.45
2676.91
2674.36
2671.83
2669.3
2666.79
2664.31
2661.86
2659.44
2657.06
2654.73
2652.45
2650.22
2648.06
2645.96
2643.93
2641.99
2640.12
2638.35
2636.66
2635.08
2633.59
2632.22
2630.96
2629.82
2628.79
2627.9
2627.14
2626.51
2626.03
2625.69
2625.5
2625.47
2625.59
2625.88
2626.34
2626.97
2627.77
2628.75
2629.92
2631.28
2632.82
2634.57
2636.51
2638.66
2641.01
2643.57
2646.35
2649.34
2652.56
2656
2659.66
2663.55
2667.68
2672.04
2676.64
2681.48
2686.56
2691.89
2697.46
2703.28
2709.35
2715.67
2722.23
2729.05
2736.13
2743.45
2751.02
2758.85
2766.93
2775.26
2783.84
2792.68
2801.73
2811.03
2820.58
2830.36
2840.37
2850.61
2861.08
2871.76
2882.66
2893.76
2905.07
2916.57
2928.25
2940.12
2952.17
2964.37
2976.74
2989.25
3001.9
3014.68
3027.58
3040.59
3053.69
3066.88
3080.14
3093.46
3106.83
3120.23
3133.65
3147.09
3160.51
3173.91
3187.28
3200.59
3213.84
3227
3240.07
3253.02
3265.83
3278.5
3291
3303.32
3315.44
3327.34
3339.01
3350.43
3361.57
3372.44
3383
3393.24
3403.14
3412.69
3421.88
3430.68
3439.08
3447.07
3454.64
3461.76
3468.43
3474.63
3480.36
3485.6
3490.34
3494.58
3498.3
3501.51
3504.18
3506.32
3507.93
3509.02
3509.63
2428.88
2428.87
2428.62
2428.27
2427.8
2427.22
2426.53
2425.72
2424.8
2423.78
2422.65
2421.41
2420.07
2418.63
2417.09
2415.46
2413.74
2411.93
2410.04
2408.07
2406.02
2403.9
2401.71
2399.45
2397.14
2394.77
2392.35
2389.88
2387.38
2384.84
2382.27
2379.67
2377.05
2374.42
2371.79
2369.14
2366.5
2363.87
2361.25
2358.65
2356.08
2353.53
2351.02
2348.56
2346.14
2343.77
2341.46
2339.22
2337.05
2334.95
2332.93
2331
2329.15
2327.4
2325.76
2324.21
2322.78
2321.46
2320.27
2319.19
2318.24
2317.42
2316.74
2316.19
2315.79
2315.53
2315.41
2315.45
2315.64
2315.99
2316.5
2317.16
2317.99
2318.97
2320.12
2321.44
2322.92
2324.57
2326.39
2328.37
2330.52
2332.83
2335.31
2337.96
2340.77
2343.74
2346.88
2350.18
2353.61
2357.21
2360.96
2364.86
2368.91
2373.1
2377.44
2381.91
2386.51
2391.24
2396.1
2401.08
2406.17
2411.38
2416.69
2422.1
2427.62
2433.22
2438.91
2444.68
2450.53
2456.45
2462.43
2468.47
2474.56
2480.7
2486.88
2493.09
2499.34
2505.6
2511.88
2518.17
2524.47
2530.76
2537.05
2543.32
2549.57
2555.8
2561.99
2568.14
2574.25
2580.31
2586.31
2592.26
2598.13
2603.93
2609.66
2615.3
2620.85
2626.32
2631.68
2636.94
2642.1
2647.14
2652.07
2656.88
2661.56
2666.12
2670.55
2674.84
2679
2683.01
2686.89
2690.62
2694.2
2697.63
2700.9
2704.03
2707
2709.81
2712.46
2714.96
2717.3
2719.47
2721.49
2723.34
2725.03
2726.57
2727.94
2729.15
2730.21
2731.11
2731.85
2732.43
2732.87
2733.15
2733.28
2733.27
2733.11
2732.81
2732.37
2731.8
2731.09
2730.25
2729.28
2728.19
2726.99
2725.66
2724.23
2722.69
2721.04
2719.3
2717.46
2715.54
2713.53
2711.44
2709.27
2707.04
2704.74
2702.38
2699.96
2697.5
2695
2692.45
2689.88
2687.27
2684.65
2682.01
2679.35
2676.7
2674.04
2671.39
2668.76
2666.14
2663.55
2660.98
2658.45
2655.96
2653.52
2651.13
2648.79
2646.52
2644.32
2642.18
2640.13
2638.16
2636.28
2634.5
2632.81
2631.23
2629.76
2628.41
2627.17
2626.06
2625.07
2624.22
2623.51
2622.94
2622.52
2622.25
2622.13
2622.18
2622.39
2622.78
2623.33
2624.07
2624.98
2626.08
2627.38
2628.86
2630.55
2632.43
2634.52
2636.82
2639.34
2642.07
2645.02
2648.19
2651.59
2655.22
2659.08
2663.17
2667.51
2672.08
2676.9
2681.96
2687.27
2692.83
2698.64
2704.7
2711.02
2717.59
2724.42
2731.5
2738.84
2746.43
2754.28
2762.39
2770.75
2779.36
2788.21
2797.32
2806.68
2816.28
2826.12
2836.2
2846.5
2857.04
2867.8
2878.78
2889.98
2901.37
2912.97
2924.77
2936.75
2948.9
2961.23
2973.72
2986.36
2999.14
3012.06
3025.1
3038.25
3051.5
3064.84
3078.26
3091.74
3105.28
3118.85
3132.44
3146.05
3159.65
3173.23
3186.78
3200.28
3213.71
3227.07
3240.32
3253.46
3266.47
3279.34
3292.03
3304.55
3316.86
3328.96
3340.82
3352.43
3363.76
3374.81
3385.56
3395.98
3406.06
3415.79
3425.14
3434.11
3442.67
3450.81
3458.52
3465.78
3472.58
3478.9
3484.74
3490.08
3494.92
3499.24
3503.04
3506.31
3509.03
3511.22
3512.85
3513.97
3514.6
2427.98
2427.97
2427.71
2427.35
2426.88
2426.28
2425.58
2424.75
2423.82
2422.77
2421.62
2420.35
2418.99
2417.52
2415.95
2414.29
2412.53
2410.69
2408.76
2406.74
2404.65
2402.49
2400.25
2397.95
2395.59
2393.17
2390.7
2388.19
2385.63
2383.03
2380.41
2377.76
2375.09
2372.4
2369.71
2367.01
2364.31
2361.62
2358.95
2356.29
2353.66
2351.06
2348.49
2345.97
2343.5
2341.07
2338.71
2336.42
2334.19
2332.04
2329.97
2327.99
2326.1
2324.31
2322.62
2321.03
2319.56
2318.2
2316.96
2315.85
2314.87
2314.02
2313.31
2312.74
2312.31
2312.03
2311.9
2311.92
2312.1
2312.43
2312.93
2313.59
2314.41
2315.4
2316.55
2317.88
2319.37
2321.03
2322.86
2324.86
2327.03
2329.37
2331.88
2334.56
2337.4
2340.41
2343.59
2346.92
2350.41
2354.06
2357.87
2361.83
2365.94
2370.19
2374.59
2379.13
2383.8
2388.61
2393.54
2398.6
2403.77
2409.06
2414.46
2419.97
2425.57
2431.27
2437.05
2442.92
2448.87
2454.89
2460.97
2467.11
2473.31
2479.56
2485.85
2492.17
2498.53
2504.9
2511.3
2517.7
2524.11
2530.52
2536.92
2543.3
2549.66
2556
2562.31
2568.57
2574.79
2580.96
2587.08
2593.13
2599.11
2605.02
2610.85
2616.59
2622.25
2627.81
2633.27
2638.63
2643.87
2649.01
2654.02
2658.92
2663.68
2668.32
2672.83
2677.19
2681.42
2685.5
2689.44
2693.23
2696.86
2700.34
2703.67
2706.84
2709.85
2712.7
2715.39
2717.91
2720.27
2722.47
2724.5
2726.36
2728.06
2729.6
2730.97
2732.18
2733.22
2734.1
2734.83
2735.39
2735.79
2736.05
2736.14
2736.09
2735.88
2735.54
2735.04
2734.41
2733.64
2732.74
2731.7
2730.54
2729.26
2727.85
2726.34
2724.71
2722.97
2721.14
2719.21
2717.18
2715.07
2712.87
2710.6
2708.25
2705.84
2703.37
2700.84
2698.26
2695.63
2692.96
2690.26
2687.54
2684.79
2682.02
2679.24
2676.46
2673.67
2670.9
2668.13
2665.39
2662.66
2659.97
2657.31
2654.69
2652.12
2649.61
2647.15
2644.75
2642.42
2640.17
2638
2635.91
2633.91
2632.01
2630.21
2628.52
2626.93
2625.47
2624.12
2622.9
2621.81
2620.86
2620.05
2619.38
2618.86
2618.5
2618.3
2618.25
2618.38
2618.68
2619.15
2619.81
2620.64
2621.67
2622.89
2624.3
2625.92
2627.74
2629.77
2632.01
2634.47
2637.14
2640.04
2643.16
2646.51
2650.1
2653.92
2657.98
2662.28
2666.83
2671.62
2676.66
2681.95
2687.5
2693.3
2699.35
2705.67
2712.24
2719.08
2726.17
2733.52
2741.14
2749.01
2757.15
2765.54
2774.19
2783.1
2792.26
2801.68
2811.34
2821.25
2831.4
2841.78
2852.41
2863.26
2874.33
2885.63
2897.13
2908.84
2920.75
2932.85
2945.14
2957.6
2970.23
2983.01
2995.95
3009.02
3022.22
3035.53
3048.95
3062.47
3076.07
3089.73
3103.45
3117.22
3131.01
3144.81
3158.62
3172.41
3186.17
3199.88
3213.53
3227.1
3240.57
3253.94
3267.17
3280.25
3293.18
3305.91
3318.45
3330.77
3342.86
3354.69
3366.25
3377.51
3388.47
3399.1
3409.39
3419.32
3428.87
3438.02
3446.77
3455.09
3462.96
3470.38
3477.33
3483.8
3489.77
3495.23
3500.18
3504.59
3508.48
3511.82
3514.61
3516.84
3518.51
3519.65
3520.3
2426.96
2426.95
2426.69
2426.32
2425.84
2425.23
2424.51
2423.66
2422.71
2421.64
2420.46
2419.17
2417.77
2416.27
2414.67
2412.97
2411.17
2409.28
2407.31
2405.25
2403.11
2400.89
2398.61
2396.25
2393.84
2391.37
2388.84
2386.26
2383.65
2380.99
2378.31
2375.59
2372.86
2370.11
2367.35
2364.59
2361.83
2359.07
2356.33
2353.61
2350.92
2348.25
2345.62
2343.04
2340.5
2338.02
2335.59
2333.24
2330.95
2328.74
2326.62
2324.58
2322.64
2320.79
2319.05
2317.42
2315.9
2314.5
2313.22
2312.07
2311.05
2310.16
2309.42
2308.82
2308.36
2308.05
2307.9
2307.91
2308.07
2308.39
2308.88
2309.53
2310.35
2311.34
2312.5
2313.83
2315.33
2317.01
2318.86
2320.88
2323.07
2325.44
2327.98
2330.69
2333.58
2336.63
2339.85
2343.23
2346.78
2350.49
2354.35
2358.38
2362.55
2366.88
2371.35
2375.97
2380.72
2385.61
2390.63
2395.78
2401.04
2406.43
2411.93
2417.53
2423.24
2429.04
2434.94
2440.92
2446.98
2453.11
2459.31
2465.57
2471.89
2478.26
2484.67
2491.12
2497.6
2504.1
2510.62
2517.15
2523.69
2530.23
2536.76
2543.27
2549.76
2556.23
2562.66
2569.06
2575.4
2581.7
2587.94
2594.11
2600.22
2606.25
2612.19
2618.06
2623.83
2629.5
2635.07
2640.54
2645.89
2651.12
2656.24
2661.23
2666.09
2670.82
2675.41
2679.86
2684.16
2688.32
2692.33
2696.19
2699.89
2703.43
2706.81
2710.03
2713.09
2715.98
2718.7
2721.26
2723.64
2725.86
2727.91
2729.79
2731.5
2733.04
2734.41
2735.61
2736.64
2737.51
2738.21
2738.74
2739.12
2739.33
2739.39
2739.29
2739.03
2738.63
2738.07
2737.38
2736.54
2735.56
2734.45
2733.2
2731.83
2730.34
2728.73
2727
2725.16
2723.22
2721.18
2719.04
2716.81
2714.49
2712.1
2709.63
2707.09
2704.49
2701.82
2699.11
2696.35
2693.54
2690.7
2687.84
2684.94
2682.03
2679.11
2676.18
2673.25
2670.33
2667.42
2664.53
2661.66
2658.82
2656.02
2653.26
2650.54
2647.88
2645.28
2642.74
2640.27
2637.88
2635.57
2633.35
2631.22
2629.19
2627.26
2625.44
2623.73
2622.14
2620.67
2619.33
2618.13
2617.06
2616.13
2615.35
2614.73
2614.26
2613.95
2613.81
2613.84
2614.04
2614.42
2614.98
2615.73
2616.67
2617.81
2619.15
2620.68
2622.43
2624.39
2626.56
2628.95
2631.56
2634.4
2637.47
2640.77
2644.31
2648.08
2652.1
2656.36
2660.87
2665.64
2670.65
2675.92
2681.45
2687.24
2693.28
2699.59
2706.17
2713.01
2720.11
2727.48
2735.12
2743.02
2751.19
2759.63
2768.32
2777.28
2786.5
2795.97
2805.7
2815.69
2825.92
2836.39
2847.11
2858.06
2869.24
2880.65
2892.27
2904.11
2916.15
2928.39
2940.83
2953.44
2966.22
2979.17
2992.27
3005.52
3018.9
3032.4
3046.02
3059.73
3073.53
3087.4
3101.34
3115.32
3129.33
3143.36
3157.39
3171.42
3185.41
3199.37
3213.26
3227.08
3240.8
3254.41
3267.9
3281.24
3294.42
3307.41
3320.21
3332.78
3345.12
3357.2
3369.01
3380.52
3391.73
3402.6
3413.12
3423.28
3433.05
3442.43
3451.38
3459.9
3467.97
3475.57
3482.69
3489.32
3495.44
3501.04
3506.11
3510.64
3514.63
3518.05
3520.91
3523.2
3524.92
3526.08
3526.75
2425.83
2425.82
2425.55
2425.18
2424.68
2424.06
2423.32
2422.45
2421.47
2420.38
2419.17
2417.85
2416.41
2414.87
2413.23
2411.49
2409.65
2407.71
2405.69
2403.58
2401.39
2399.12
2396.77
2394.36
2391.88
2389.35
2386.76
2384.12
2381.43
2378.71
2375.96
2373.17
2370.37
2367.55
2364.72
2361.88
2359.05
2356.22
2353.4
2350.61
2347.84
2345.1
2342.4
2339.75
2337.14
2334.58
2332.09
2329.67
2327.32
2325.04
2322.85
2320.76
2318.75
2316.85
2315.05
2313.36
2311.79
2310.34
2309.01
2307.82
2306.75
2305.83
2305.05
2304.41
2303.93
2303.59
2303.42
2303.4
2303.54
2303.85
2304.33
2304.97
2305.79
2306.78
2307.94
2309.28
2310.79
2312.49
2314.35
2316.4
2318.62
2321.02
2323.6
2326.35
2329.27
2332.37
2335.64
2339.08
2342.69
2346.46
2350.4
2354.49
2358.74
2363.15
2367.7
2372.41
2377.25
2382.23
2387.35
2392.6
2397.97
2403.46
2409.07
2414.79
2420.61
2426.53
2432.55
2438.65
2444.84
2451.1
2457.43
2463.83
2470.28
2476.79
2483.34
2489.93
2496.55
2503.19
2509.86
2516.53
2523.21
2529.89
2536.57
2543.23
2549.86
2556.47
2563.05
2569.59
2576.08
2582.51
2588.89
2595.21
2601.45
2607.61
2613.69
2619.69
2625.59
2631.39
2637.08
2642.67
2648.14
2653.49
2658.72
2663.82
2668.78
2673.61
2678.3
2682.84
2687.24
2691.48
2695.57
2699.5
2703.27
2706.88
2710.33
2713.6
2716.71
2719.65
2722.41
2725.01
2727.43
2729.67
2731.74
2733.63
2735.35
2736.89
2738.26
2739.45
2740.47
2741.32
2742
2742.51
2742.84
2743.02
2743.03
2742.87
2742.56
2742.1
2741.48
2740.7
2739.79
2738.73
2737.53
2736.19
2734.72
2733.13
2731.41
2729.57
2727.62
2725.56
2723.39
2721.12
2718.76
2716.32
2713.78