/*--------------------------------*- C++ -*----------------------------------*\
| =========                 |                                                 |
| \\      /  F ield         | OpenFOAM: The Open Source CFD Toolbox           |
|  \\    /   O peration     | Version:  v2006                                 |
|   \\  /    A nd           | Website:  www.openfoam.com                      |
|    \\/     M anipulation  |                                                 |
\*---------------------------------------------------------------------------*/
FoamFile
{
    version     2.0;
    format      ascii;
    class       volScalarField;
    location    "0";
    object      shifted_f;
}
// * * * * * * * * * * * * * * * * * * * * * * * * * * * * * * * * * * * * * //

dimensions      [0 0 0 0 0 0 0];


internalField   nonuniform List<scalar> 
2500
(
0.000317249
0.000317153
0.000317197
0.000317205
0.000317235
0.000317212
0.000317249
0.000317167
0.00031719
0.000317167
0.000317216
0.000317227
0.000317238
0.000317197
0.000317138
0.000317208
0.000317249
0.000317242
0.00031722
0.000317264
0.000317261
0.000317194
0.000317238
0.000317212
0.000317242
0.000317261
0.000317242
0.000317257
0.000317268
0.00031729
0.000317238
0.000317264
0.000317283
0.000317235
0.000317235
0.000317231
0.000317294
0.000317279
0.00031732
0.000317305
0.00031732
0.000317287
0.000317305
0.000317339
0.000317331
0.000317287
0.00031735
0.000317313
0.000317354
0.000317354
0.000317387
0.000317417
0.000317361
0.000317425
0.000317372
0.000317436
0.000317402
0.000317395
0.000317354
0.000317439
0.000317384
0.000317436
0.000317391
0.000299823
0.000299834
0.000299763
0.000299767
0.000299785
0.000299696
0.000299726
0.000299696
0.000299703
0.000299674
0.000299621
0.000299752
0.000299681
0.000299659
0.000299625
0.000299655
0.000299614
0.000299621
0.000299647
0.000299592
0.000299625
0.000299532
0.000299554
0.000299547
0.000299603
0.000299443
0.00029951
0.000299532
0.000299554
0.00029948
0.000299521
0.000299532
0.000299435
0.000299457
0.000299495
0.000299454
0.000299409
0.00029945
0.000299413
0.000299428
0.000299443
0.000299465
0.000299443
0.000299405
0.000299457
0.000299402
0.00029942
0.000299428
0.000299428
0.000299443
0.000299416
0.000299357
0.000299405
0.00029945
0.000299387
0.000299428
0.000299394
0.000299398
0.000299379
0.000299364
0.000299416
0.000299405
0.000299387
0.000299428
0.00029942
0.000299308
0.000299376
0.00029942
0.000299409
0.000299368
0.000299409
0.000299364
0.000299446
0.000299409
0.000299413
0.000299446
0.000299357
0.00029942
0.000299361
0.000299342
0.000299372
0.000299435
0.000299439
0.000299409
0.000299435
0.000299402
0.00029939
0.000299435
0.000299439
0.000299383
0.00029939
0.000299402
0.00029942
0.00029951
0.000299409
0.000299405
0.000299379
0.000299521
0.000299454
0.000299428
0.000299424
0.00028412
0.000284106
0.000284068
0.000284091
0.000284139
0.000284147
0.000284195
0.000284135
0.00028415
0.000284199
0.000284195
0.000284184
0.000284165
0.000284117
0.000284147
0.000284191
0.000284147
0.000284169
0.000284191
0.000284206
0.000284147
0.000284161
0.000284214
0.00028421
0.00028418
0.000284228
0.000284184
0.00028421
0.000284191
0.000284225
0.000284243
0.000284255
0.000284251
0.000284303
0.000284299
0.000284337
0.000284251
0.000284318
0.000284329
0.00028437
0.000284363
0.000284344
0.000284456
0.000284381
0.0002844
0.000284445
0.00028443
0.000284418
0.000284474
0.000284486
0.000284504
0.000284541
0.000284504
0.000284541
0.000284541
0.000284482
0.00028453
0.000284579
0.00028462
0.000284612
0.000284642
0.000284638
0.000284653
0.00028472
0.000284716
0.000284765
0.000284854
0.000284862
0.000284825
0.000284828
0.00028481
0.000284929
0.00028488
0.000284903
0.000284925
0.000284944
0.000285011
0.000285026
0.000285137
0.000285074
0.000285126
0.000285115
0.00028513
0.000285145
0.000285149
0.00028519
0.000285275
0.000285286
0.000285242
0.000285309
0.00028529
0.00028532
0.000285365
0.000285342
0.00028548
0.000285454
0.000285476
0.000285573
0.000285584
0.000285555
0.000285625
0.000308525
0.000308521
0.00030848
0.000308584
0.000308547
0.000308599
0.000308614
0.000308573
0.000308633
0.000308555
0.000308644
0.000308651
0.000308629
0.000308651
0.000308681
0.000308674
0.000308774
0.000308715
0.000308752
0.000308815
0.000308763
0.000308771
0.000308849
0.000308763
0.000308808
0.000308868
0.000308894
0.000308864
0.00030889
0.000308938
0.000308946
0.000308964
0.000308964
0.000309046
0.000308983
0.000309009
0.000309113
0.000309061
0.000309117
0.000309128
0.000309173
0.000309162
0.00030924
0.000309169
0.000309277
0.000309311
0.000309296
0.000309289
0.000309352
0.000309359
0.000309389
0.000309415
0.000309426
0.00030943
0.000309482
0.000309542
0.000309549
0.00030959
0.000309642
0.000309598
0.000309698
0.000309721
0.000309799
0.000309762
0.000309814
0.000309821
0.000309858
0.000309899
0.000309937
0.000310019
0.000309996
0.00031
0.000310101
0.000310034
0.000310164
0.000310123
0.000310112
0.000310183
0.000310291
0.000310238
0.000310313
0.000310354
0.000310346
0.000310369
0.000310406
0.000310529
0.000310525
0.00031063
0.000310577
0.000310689
0.000310738
0.000310712
0.000310797
0.000310831
0.000310812
0.000310875
0.000310902
0.000311013
0.000310972
0.000311032
0.000311088
0.000355724
0.000355747
0.00035575
0.000355765
0.000355765
0.000355862
0.000355829
0.000355873
0.000355944
0.000355955
0.000355944
0.000356052
0.000356
0.000356007
0.00035606
0.000356119
0.000356086
0.000356138
0.00035616
0.000356175
0.000356156
0.000356238
0.000356276
0.000356253
0.000356298
0.000356309
0.00035632
0.000356391
0.000356399
0.000356425
0.000356432
0.000356469
0.000356473
0.000356555
0.000356581
0.000356521
0.000356633
0.000356622
0.00035667
0.000356697
0.000356741
0.000356782
0.000356816
0.000356827
0.000356831
0.000356887
0.000356849
0.000356924
0.000356968
0.000356983
0.000357013
0.000357077
0.000357106
0.000357136
0.000357118
0.000357211
0.000357233
0.000357289
0.000357304
0.000357296
0.000357348
0.000357404
0.000357423
0.000357512
0.000357535
0.000357572
0.00035755
0.000357635
0.000357714
0.000357699
0.000357691
0.000357755
0.000357866
0.000357833
0.000357937
0.00035793
0.000357959
0.000358023
0.00035806
0.000358079
0.000358142
0.000358142
0.000358198
0.00035825
0.000358339
0.000358392
0.000358384
0.00035844
0.000358496
0.000358548
0.000358675
0.000358656
0.000358675
0.000358693
0.000358772
0.000358835
0.000358813
0.000358898
0.000358943
0.000358958
0.000358999
0.000391502
0.000391487
0.000391506
0.000391535
0.000391517
0.000391487
0.000391498
0.000391543
0.000391528
0.000391554
0.000391498
0.00039148
0.000391457
0.000391457
0.000391457
0.000391446
0.000391435
0.000391405
0.000391465
0.000391405
0.000391405
0.000391368
0.000391394
0.000391331
0.000391364
0.000391401
0.00039136
0.000391383
0.000391413
0.000391379
0.000391334
0.000391364
0.000391331
0.000391383
0.000391372
0.000391353
0.000391338
0.000391342
0.000391368
0.000391271
0.000391338
0.000391308
0.000391304
0.000391297
0.000391297
0.000391383
0.000391372
0.000391353
0.000391368
0.000391345
0.000391398
0.000391383
0.000391334
0.000391353
0.000391267
0.000391301
0.000391383
0.000391342
0.000391331
0.000391353
0.000391297
0.000391301
0.000391364
0.00039136
0.000391301
0.000391342
0.000391316
0.000391342
0.000391308
0.000391349
0.000391293
0.000391323
0.000391357
0.000391304
0.00039129
0.000391312
0.000391353
0.000391245
0.000391319
0.000391308
0.000391286
0.000391345
0.000391334
0.00039129
0.000391345
0.000391368
0.000391383
0.000391368
0.00039136
0.000391312
0.000391368
0.000391342
0.000391345
0.000391334
0.000391286
0.000391308
0.000391319
0.000391338
0.00039136
0.000391323
0.000391312
0.000357825
0.00035781
0.000357751
0.000357807
0.000357788
0.000357743
0.00035768
0.000357691
0.000357658
0.000357635
0.000357654
0.000357546
0.00035752
0.000357524
0.000357501
0.000357468
0.000357464
0.000357416
0.000357412
0.000357386
0.000357393
0.000357382
0.000357311
0.000357356
0.000357285
0.000357289
0.000357274
0.000357237
0.00035724
0.000357229
0.000357199
0.000357147
0.000357132
0.000357084
0.000357017
0.000357069
0.000357069
0.000357058
0.00035698
0.000356976
0.000356991
0.000357002
0.000356939
0.000356939
0.000356872
0.00035692
0.000356872
0.000356909
0.000356834
0.000356916
0.000356801
0.000356726
0.000356723
0.000356715
0.000356656
0.000356693
0.00035667
0.000356678
0.000356648
0.000356659
0.000356603
0.000356581
0.000356544
0.000356562
0.000356544
0.000356514
0.000356473
0.000356492
0.000356562
0.000356548
0.000356387
0.00035641
0.000356421
0.000356395
0.000356406
0.000356361
0.000356283
0.000356343
0.000356257
0.000356268
0.000356242
0.000356197
0.000356264
0.000356209
0.00035622
0.00035616
0.000356149
0.000356123
0.000356112
0.000356067
0.000356082
0.000356082
0.000356022
0.000356052
0.000356082
0.000355951
0.000355963
0.000355925
0.000355955
0.000355933
0.000355888
0.000302374
0.00030233
0.000302318
0.000302251
0.000302181
0.000302237
0.000302207
0.000302155
0.000302155
0.000302155
0.000302073
0.000301998
0.000301968
0.000301968
0.000301976
0.000302017
0.000301979
0.000301916
0.000301886
0.000301767
0.000301797
0.000301704
0.000301797
0.0003017
0.000301689
0.000301611
0.000301514
0.000301629
0.000301626
0.000301532
0.000301562
0.000301454
0.000301469
0.000301454
0.000301387
0.000301372
0.000301365
0.00030138
0.00030132
0.000301238
0.000301261
0.000301246
0.000301223
0.000301275
0.000301212
0.000301156
0.000301126
0.000301134
0.000301037
0.000301044
0.000301044
0.000300959
0.00030094
0.000300899
0.000300851
0.000300854
0.000300914
0.000300843
0.000300858
0.000300817
0.000300873
0.000300851
0.000300732
0.000300732
0.000300702
0.000300661
0.000300661
0.00030065
0.000300582
0.000300582
0.000300527
0.00030053
0.000300571
0.000300489
0.000300515
0.000300463
0.000300396
0.000300381
0.000300448
0.000300433
0.000300381
0.000300329
0.000300314
0.000300318
0.00030027
0.000300284
0.000300277
0.000300199
0.000300188
0.000300184
0.000300139
0.000300188
0.000300195
0.000300098
0.000300068
0.000300065
0.000300031
0.000300001
0.000299983
0.000299957
0.000299942
0.000239771
0.000239804
0.000239767
0.000239708
0.0002397
0.000239622
0.000239614
0.00023964
0.000239592
0.000239525
0.000239514
0.000239421
0.000239354
0.000239346
0.000239275
0.000239301
0.000239257
0.000239257
0.00023919
0.000239201
0.000239167
0.000239071
0.000239056
0.000239018
0.000239
0.000239044
0.000239003
0.00023897
0.000238884
0.00023881
0.000238795
0.000238787
0.000238758
0.00023872
0.000238735
0.00023872
0.000238705
0.000238612
0.000238609
0.000238538
0.000238579
0.00023843
0.000238501
0.000238419
0.000238404
0.000238445
0.000238411
0.000238385
0.000238385
0.000238325
0.000238307
0.000238288
0.000238258
0.000238195
0.000238184
0.000238176
0.000238117
0.000238147
0.000238117
0.000238154
0.000238091
0.000238005
0.00023802
0.000238009
0.00023799
0.000237938
0.00023802
0.000237893
0.000237856
0.000237841
0.000237871
0.000237841
0.000237755
0.000237763
0.000237733
0.000237685
0.000237741
0.000237733
0.000237707
0.000237633
0.000237614
0.000237577
0.000237543
0.000237565
0.000237476
0.000237506
0.000237469
0.000237461
0.000237443
0.000237439
0.000237379
0.000237342
0.000237342
0.000237346
0.00023732
0.000237305
0.000237286
0.000237234
0.000237253
0.000237226
0.000237189
0.000183888
0.000183843
0.000183754
0.000183843
0.000183724
0.000183675
0.000183646
0.000183623
0.000183564
0.000183631
0.000183601
0.000183463
0.000183474
0.000183418
0.000183359
0.000183478
0.000183344
0.000183295
0.000183288
0.000183258
0.000183254
0.00018318
0.000183173
0.000183262
0.000183109
0.00018318
0.000183102
0.00018296
0.000182983
0.000182994
0.000182934
0.000182968
0.000183005
0.000182912
0.000182915
0.000182875
0.000182822
0.000182815
0.000182785
0.00018277
0.000182673
0.000182714
0.000182744
0.000182692
0.000182636
0.00018264
0.000182632
0.000182517
0.000182506
0.000182576
0.000182513
0.000182528
0.000182532
0.000182528
0.000182513
0.00018242
0.000182431
0.000182442
0.000182394
0.000182364
0.000182327
0.000182275
0.000182282
0.00018229
0.000182256
0.000182286
0.000182252
0.000182163
0.0001822
0.000182204
0.000182174
0.000182159
0.000182185
0.000182111
0.000182129
0.000182085
0.0001821
0.000182074
0.000182081
0.000182066
0.000182051
0.000181966
0.000181969
0.000182003
0.000181917
0.000181902
0.000181876
0.000181887
0.00018191
0.000181932
0.000181813
0.000181783
0.00018188
0.000181865
0.00018185
0.000181749
0.000181839
0.000181809
0.000181835
0.000181779
0.000181757
0.000155807
0.00015584
0.000155836
0.000155792
0.000155807
0.000155699
0.000155751
0.000155739
0.000155672
0.000155725
0.000155639
0.000155665
0.00015565
0.000155579
0.000155568
0.000155553
0.00015559
0.000155546
0.000155527
0.000155475
0.00015549
0.000155468
0.000155393
0.000155404
0.000155341
0.000155374
0.000155304
0.000155311
0.000155326
0.000155322
0.000155315
0.000155341
0.000155341
0.000155244
0.000155222
0.000155244
0.000155225
0.000155181
0.000155184
0.000155222
0.000155222
0.000155199
0.00015514
0.000155151
0.000155106
0.00015511
0.000155106
0.000155117
0.000155117
0.000155125
0.000155192
0.000155084
0.000155043
0.000155129
0.000155058
0.000155047
0.000155061
0.000155069
0.00015498
0.000155039
0.000155021
0.000155013
0.000155039
0.000155028
0.000155006
0.000154994
0.000154912
0.000154983
0.000155009
0.000154965
0.000154927
0.000154957
0.000155028
0.000154931
0.000154968
0.000154991
0.000154957
0.000154968
0.000154976
0.000154968
0.000154968
0.000154991
0.000154972
0.000154965
0.00015505
0.000154983
0.000155021
0.000154953
0.000154953
0.000154976
0.000154991
0.000155002
0.000154924
0.000154924
0.000154957
0.000154983
0.000154991
0.000154946
0.000155009
0.00015498
0.000154976
0.000169754
0.000169728
0.000169728
0.000169709
0.000169735
0.000169758
0.000169668
0.000169683
0.000169672
0.000169728
0.000169694
0.000169721
0.00016965
0.000169639
0.000169687
0.000169598
0.000169557
0.00016965
0.000169672
0.000169586
0.000169631
0.000169586
0.000169568
0.000169583
0.000169646
0.00016959
0.00016962
0.00016959
0.000169542
0.000169508
0.000169605
0.000169631
0.000169564
0.00016956
0.00016949
0.00016959
0.000169616
0.000169665
0.000169631
0.000169639
0.000169609
0.000169538
0.000169605
0.000169639
0.000169616
0.00016962
0.000169571
0.000169646
0.000169665
0.000169642
0.000169732
0.000169683
0.000169706
0.000169713
0.000169661
0.000169668
0.000169717
0.000169694
0.000169676
0.000169747
0.000169754
0.000169754
0.000169769
0.000169776
0.000169709
0.000169776
0.000169758
0.000169773
0.000169817
0.000169761
0.00016975
0.000169799
0.000169817
0.000169765
0.00016987
0.000169855
0.000169914
0.000169899
0.000169881
0.000169884
0.00016994
0.000169944
0.000169978
0.000169996
0.00016994
0.000169948
0.000169966
0.000170004
0.00017006
0.00017003
0.00017003
0.000170086
0.000170052
0.000170067
0.000170108
0.000170115
0.000170115
0.000170149
0.000170134
0.000170194
0.000170134
0.000215407
0.00021537
0.00021534
0.000215415
0.000215381
0.000215352
0.000215378
0.000215422
0.000215359
0.000215326
0.000215366
0.000215303
0.000215318
0.000215329
0.000215344
0.000215381
0.000215359
0.000215333
0.000215415
0.000215355
0.000215329
0.000215352
0.000215434
0.0002154
0.000215378
0.000215426
0.000215407
0.000215437
0.000215419
0.00021546
0.000215374
0.000215448
0.000215497
0.000215501
0.000215512
0.000215501
0.000215501
0.000215504
0.000215504
0.000215579
0.000215575
0.000215564
0.000215538
0.000215575
0.000215594
0.000215549
0.000215631
0.00021562
0.000215609
0.000215627
0.000215657
0.000215676
0.000215691
0.000215717
0.000215679
0.000215653
0.000215717
0.000215787
0.000215758
0.000215743
0.000215795
0.000215724
0.000215799
0.000215873
0.000215795
0.000215817
0.000215851
0.000215847
0.000215847
0.000215832
0.000215948
0.000215899
0.000215925
0.000215966
0.000215951
0.000216
0.000216011
0.000216
0.000216074
0.000216179
0.000216138
0.000216104
0.000216074
0.000216145
0.000216104
0.000216138
0.000216145
0.00021622
0.000216268
0.000216249
0.000216279
0.000216272
0.000216283
0.000216331
0.000216331
0.000216302
0.00021632
0.000216398
0.000216406
0.000216421
0.000216458
0.00026761
0.000267599
0.000267565
0.000267606
0.000267524
0.000267562
0.000267565
0.000267558
0.000267547
0.000267584
0.000267591
0.000267558
0.000267554
0.000267547
0.000267565
0.000267528
0.000267632
0.000267658
0.000267651
0.000267632
0.000267666
0.000267696
0.000267677
0.00026758
0.000267625
0.000267629
0.000267595
0.000267666
0.000267662
0.000267606
0.000267699
0.000267677
0.000267688
0.000267684
0.000267677
0.000267673
0.000267759
0.000267688
0.000267696
0.000267688
0.000267729
0.000267722
0.00026774
0.000267826
0.000267785
0.0002678
0.000267759
0.00026783
0.000267774
0.000267778
0.000267807
0.000267804
0.000267833
0.000267804
0.000267863
0.000267897
0.000267927
0.000267867
0.000267927
0.000267923
0.000267923
0.000267912
0.000267919
0.000267942
0.000267982
0.000267949
0.000267994
0.000267971
0.000267997
0.000267997
0.000268016
0.000268009
0.000268113
0.000268064
0.000268064
0.000268143
0.00026812
0.000268117
0.000268146
0.00026815
0.000268131
0.000268202
0.00026812
0.000268217
0.000268195
0.000268236
0.000268251
0.000268292
0.000268266
0.00026831
0.000268292
0.000268303
0.000268303
0.000268288
0.000268366
0.000268389
0.000268392
0.000268362
0.000268403
0.00026837
0.000268403
0.000306133
0.000306137
0.000306122
0.000306074
0.000306074
0.000306066
0.000306088
0.000306081
0.000306103
0.000306029
0.000306074
0.000306085
0.000306074
0.000306111
0.000306055
0.00030604
0.000306036
0.000306029
0.000306007
0.000306059
0.000306021
0.000306059
0.00030601
0.000306007
0.000306003
0.000306025
0.000305962
0.00030604
0.000305992
0.000306003
0.000305939
0.000306003
0.000305992
0.000306007
0.000305954
0.00030604
0.000305951
0.000306047
0.000306036
0.000306007
0.000305995
0.000306025
0.000306033
0.000306029
0.000306055
0.000305995
0.000306033
0.000306029
0.000306047
0.000306081
0.00030601
0.000306077
0.000306118
0.000306036
0.000306077
0.000306085
0.000306044
0.000306111
0.000306036
0.000306036
0.000306118
0.000306047
0.000306096
0.000306092
0.000306036
0.000306118
0.000306074
0.000306074
0.000306044
0.000306088
0.000306036
0.000306115
0.000306144
0.000306062
0.000306126
0.000306129
0.000306103
0.000306096
0.000306156
0.000306133
0.00030617
0.000306182
0.000306118
0.000306129
0.000306163
0.000306126
0.000306156
0.000306182
0.000306208
0.000306189
0.0003062
0.000306215
0.00030623
0.000306226
0.000306226
0.000306223
0.000306256
0.000306256
0.00030623
0.000306286
0.000306278
0.000324227
0.000324287
0.00032426
0.000324201
0.000324231
0.00032419
0.000324201
0.000324201
0.000324182
0.000324141
0.000324164
0.000324104
0.000324167
0.000324111
0.000324134
0.000324126
0.000324048
0.000324026
0.000324044
0.000324097
0.000324018
0.000323996
0.000324026
0.000323944
0.000324033
0.000323985
0.000324
0.000323985
0.000323951
0.000323907
0.000323955
0.000323988
0.000323925
0.000323899
0.00032394
0.000323877
0.000323884
0.000323843
0.000323821
0.000323877
0.000323895
0.000323847
0.000323836
0.000323869
0.000323836
0.000323847
0.00032381
0.000323843
0.000323761
0.000323832
0.00032378
0.000323821
0.000323776
0.000323821
0.000323731
0.000323776
0.000323843
0.000323746
0.000323839
0.00032375
0.000323784
0.000323728
0.000323806
0.000323758
0.000323787
0.000323813
0.000323728
0.000323746
0.000323728
0.000323746
0.000323668
0.000323653
0.000323676
0.000323717
0.000323687
0.000323724
0.000323646
0.000323772
0.000323739
0.000323735
0.000323709
0.000323709
0.00032369
0.000323709
0.000323638
0.000323661
0.000323702
0.000323702
0.00032369
0.000323664
0.000323631
0.00032362
0.000323642
0.000323605
0.00032362
0.000323612
0.000323635
0.000323657
0.000323646
0.000323571
0.000323627
0.000325307
0.000325333
0.000325266
0.000325177
0.000325218
0.000325195
0.000325225
0.000325169
0.000325125
0.000325121
0.000325155
0.000325035
0.000325065
0.000325058
0.000325084
0.000325035
0.000324979
0.000324961
0.00032495
0.000324979
0.000324901
0.000324927
0.000324871
0.000324909
0.000324868
0.000324856
0.000324842
0.000324812
0.000324763
0.000324763
0.000324789
0.000324752
0.000324678
0.000324689
0.000324663
0.00032464
0.000324674
0.000324588
0.000324566
0.000324585
0.000324614
0.000324573
0.000324532
0.000324555
0.000324521
0.000324529
0.000324521
0.000324547
0.000324506
0.000324491
0.000324506
0.000324424
0.000324462
0.000324503
0.000324424
0.000324342
0.000324331
0.000324402
0.000324346
0.000324368
0.000324372
0.000324357
0.000324342
0.000324275
0.000324275
0.000324279
0.000324301
0.000324272
0.00032426
0.000324242
0.000324223
0.000324257
0.000324264
0.000324257
0.000324197
0.000324216
0.000324141
0.000324242
0.000324134
0.000324175
0.000324201
0.000324193
0.000324193
0.000324093
0.000324141
0.000324126
0.0003241
0.000324029
0.000324067
0.000324108
0.000324056
0.000324029
0.000324097
0.000324022
0.000324041
0.000323988
0.000324044
0.000323966
0.000324029
0.000323974
0.000323921
0.00031605
0.000316024
0.000316024
0.000315923
0.000315916
0.000315886
0.000315879
0.000315893
0.000315771
0.000315763
0.000315774
0.000315763
0.000315707
0.000315715
0.000315566
0.000315573
0.000315551
0.000315528
0.000315536
0.000315551
0.000315491
0.000315432
0.000315461
0.000315476
0.000315353
0.000315383
0.000315394
0.000315316
0.000315294
0.000315346
0.000315223
0.000315245
0.000315234
0.000315167
0.000315208
0.000315186
0.000315119
0.00031507
0.000315081
0.000315107
0.000315044
0.00031504
0.00031497
0.000314951
0.000314876
0.00031491
0.000314865
0.000314847
0.000314854
0.000314768
0.000314925
0.000314794
0.000314754
0.000314754
0.000314705
0.000314701
0.000314701
0.000314597
0.00031469
0.000314664
0.000314541
0.000314575
0.000314575
0.000314537
0.000314511
0.000314485
0.000314485
0.000314496
0.000314504
0.000314455
0.000314407
0.00031447
0.000314433
0.000314441
0.000314429
0.000314366
0.000314351
0.000314318
0.000314329
0.000314247
0.000314303
0.000314314
0.00031428
0.000314254
0.000314169
0.000314228
0.000314198
0.000314225
0.00031415
0.000314225
0.000314143
0.00031412
0.000314128
0.000314068
0.000314057
0.00031409
0.000314083
0.000314075
0.000314038
0.000314001
0.000314038
0.000302311
0.000302315
0.000302281
0.000302196
0.000302143
0.000302173
0.000302117
0.000302088
0.000301994
0.000302006
0.000301979
0.000301965
0.000301879
0.000301875
0.000301756
0.000301708
0.000301789
0.000301659
0.000301667
0.000301652
0.000301629
0.000301518
0.00030154
0.000301458
0.00030141
0.000301372
0.000301469
0.000301383
0.000301342
0.000301275
0.000301253
0.000301201
0.00030122
0.00030122
0.000301152
0.000301234
0.000301126
0.000301097
0.000301111
0.000301089
0.00030103
0.00030103
0.000300948
0.000300933
0.000300907
0.00030094
0.000300877
0.000300858
0.000300851
0.000300739
0.000300728
0.000300635
0.000300638
0.000300691
0.000300653
0.000300597
0.000300586
0.00030056
0.000300441
0.000300482
0.000300426
0.0003004
0.000300381
0.000300344
0.000300352
0.000300355
0.000300288
0.000300337
0.000300277
0.000300247
0.000300206
0.000300232
0.000300225
0.000300139
0.000300128
0.00030018
0.000300135
0.000300087
0.000300016
0.000300061
0.000300065
0.000300009
0.000299931
0.000299919
0.000300013
0.000299931
0.000299957
0.000299968
0.000299878
0.000299808
0.000299845
0.000299864
0.000299796
0.000299815
0.000299815
0.0002998
0.000299737
0.000299793
0.000299715
0.000299718
0.000299692
0.000287823
0.000287764
0.000287767
0.000287652
0.000287712
0.000287563
0.000287615
0.000287551
0.000287499
0.000287503
0.000287428
0.000287373
0.00028722
0.000287235
0.000287212
0.000287104
0.000287112
0.000287056
0.000287041
0.000286985
0.000286926
0.00028694
0.000286866
0.000286762
0.000286844
0.000286728
0.000286691
0.000286676
0.000286616
0.000286505
0.000286572
0.00028649
0.000286479
0.000286367
0.000286434
0.000286389
0.000286311
0.000286292
0.000286281
0.000286218
0.000286199
0.000286128
0.000286158
0.000286054
0.000286121
0.000286002
0.000286039
0.00028592
0.000285871
0.000285909
0.000285838
0.000285815
0.000285819
0.000285748
0.000285745
0.000285771
0.000285685
0.000285584
0.000285622
0.000285566
0.000285573
0.000285558
0.000285544
0.000285469
0.000285424
0.000285409
0.000285383
0.000285383
0.000285305
0.000285286
0.000285272
0.000285197
0.000285212
0.000285145
0.000285123
0.000285093
0.000285063
0.000285078
0.000285048
0.000284977
0.000285
0.00028497
0.000284888
0.000284899
0.000284776
0.000284765
0.000284795
0.000284806
0.000284735
0.000284746
0.000284716
0.000284724
0.000284608
0.000284605
0.000284605
0.000284579
0.000284631
0.000284549
0.000284486
0.000284497
0.000284467
0.000274274
0.000274274
0.000274133
0.000274122
0.000274081
0.000274073
0.000273928
0.000273924
0.000273883
0.00027376
0.000273731
0.000273746
0.000273675
0.000273533
0.000273507
0.000273425
0.000273447
0.000273407
0.000273261
0.000273239
0.000273217
0.000273172
0.000273105
0.000273027
0.00027309
0.000272933
0.000272945
0.000272892
0.000272822
0.000272781
0.000272661
0.000272695
0.000272699
0.000272594
0.000272579
0.00027255
0.000272498
0.000272509
0.000272311
0.00027239
0.000272255
0.000272218
0.000272248
0.000272181
0.000272129
0.000272114
0.000272077
0.000272021
0.000271972
0.000271831
0.000271842
0.000271831
0.000271857
0.000271726
0.000271697
0.000271685
0.00027163
0.000271551
0.000271499
0.000271548
0.00027151
0.000271432
0.000271358
0.000271361
0.000271257
0.000271313
0.000271205
0.000271227
0.000271142
0.000271168
0.000271108
0.000271071
0.000271015
0.000271011
0.000271019
0.000270907
0.000270925
0.00027087
0.000270881
0.000270795
0.000270773
0.000270784
0.000270747
0.000270654
0.000270698
0.000270668
0.000270572
0.000270512
0.000270575
0.000270527
0.000270486
0.000270467
0.000270423
0.000270396
0.000270385
0.000270378
0.00027037
0.00027027
0.0002703
0.000270192
0.000270132
0.000262707
0.000262685
0.000262491
0.000262532
0.000262398
0.000262294
0.000262219
0.000262201
0.000262182
0.000262074
0.000262011
0.000262018
0.000261892
0.000261839
0.000261787
0.000261705
0.000261683
0.000261605
0.000261545
0.000261534
0.000261456
0.000261303
0.00026131
0.00026127
0.000261165
0.000261165
0.000261098
0.00026108
0.00026096
0.000260912
0.000260893
0.000260867
0.0002608
0.000260755
0.000260647
0.000260625
0.000260498
0.000260528
0.000260495
0.000260383
0.000260331
0.000260334
0.00026023
0.000260156
0.000260148
0.000260126
0.000260096
0.000260018
0.000259984
0.000259895
0.000259895
0.000259887
0.000259761
0.000259697
0.000259671
0.000259768
0.000259608
0.000259597
0.0002595
0.000259545
0.000259403
0.000259381
0.00025937
0.000259295
0.000259303
0.000259258
0.000259239
0.000259165
0.000259116
0.000259094
0.000258964
0.000258978
0.000258937
0.000258863
0.000258852
0.000258844
0.000258729
0.000258747
0.00025874
0.00025874
0.000258625
0.000258628
0.000258554
0.000258531
0.000258472
0.000258502
0.000258371
0.000258449
0.000258323
0.000258323
0.000258259
0.000258222
0.000258241
0.000258178
0.000258178
0.000258051
0.000257991
0.000258014
0.000257976
0.000257984
0.000257939
0.00025427
0.000254158
0.000254136
0.000254065
0.000253953
0.000253893
0.000253808
0.000253726
0.000253681
0.000253558
0.000253532
0.000253465
0.000253413
0.000253361
0.000253294
0.000253193
0.000253212
0.00025307
0.000253078
0.000252958
0.00025297
0.000252865
0.000252701
0.000252813
0.00025275
0.000252623
0.000252616
0.000252571
0.000252482
0.0002524
0.000252403
0.000252314
0.000252251
0.000252221
0.000252176
0.000252061
0.000252064
0.00025202
0.000251953
0.000251878
0.000251848
0.000251785
0.000251751
0.000251714
0.000251725
0.000251587
0.000251535
0.000251547
0.000251438
0.000251446
0.000251345
0.000251263
0.000251241
0.000251282
0.00025117
0.000251126
0.000251118
0.000251036
0.000250988
0.000250977
0.000250943
0.000250801
0.000250798
0.00025076
0.000250712
0.000250675
0.000250619
0.000250552
0.000250544
0.000250515
0.000250485
0.000250451
0.000250425
0.000250287
0.000250205
0.000250179
0.000250239
0.000250224
0.000250161
0.000250082
0.000250038
0.000249967
0.000249982
0.000249948
0.000249866
0.000249863
0.000249829
0.000249837
0.000249807
0.000249691
0.000249725
0.000249617
0.000249542
0.000249565
0.000249565
0.000249457
0.000249419
0.000249419
0.000249337
0.000249323
0.000249308
0.000250053
0.000249956
0.000249803
0.000249736
0.000249688
0.000249621
0.000249662
0.000249509
0.000249535
0.000249498
0.000249375
0.00024933
0.000249248
0.000249229
0.000249181
0.000249092
0.000249069
0.000248972
0.00024895
0.000248883
0.00024879
0.000248749
0.000248697
0.000248659
0.000248618
0.000248529
0.00024854
0.000248484
0.000248432
0.000248354
0.000248335
0.00024825
0.000248145
0.000248104
0.000248138
0.000248078
0.000248022
0.000247944
0.000247929
0.000247814
0.000247803
0.000247728
0.000247817
0.000247732
0.000247676
0.000247583
0.000247609
0.000247531
0.000247467
0.000247456
0.000247348
0.000247326
0.000247303
0.000247225
0.000247154
0.000247125
0.000247143
0.000247087
0.000246968
0.000246976
0.000246987
0.000246916
0.000246916
0.000246827
0.000246823
0.000246808
0.000246756
0.0002467
0.000246655
0.000246614
0.000246588
0.000246558
0.000246454
0.000246465
0.000246458
0.000246424
0.000246372
0.000246283
0.000246245
0.000246268
0.000246186
0.000246137
0.000246163
0.000246055
0.000246048
0.000246
0.000246037
0.000245992
0.000245873
0.00024594
0.000245884
0.000245836
0.000245798
0.000245769
0.000245728
0.000245679
0.000245638
0.000245623
0.000245567
0.000245545
0.0002455
0.000248823
0.000248738
0.000248674
0.000248726
0.00024863
0.00024851
0.000248458
0.000248406
0.000248369
0.000248235
0.000248294
0.000248265
0.000248086
0.000248123
0.000248052
0.000248056
0.000247989
0.00024794
0.000247885
0.000247847
0.000247784
0.000247769
0.000247724
0.000247646
0.000247616
0.000247624
0.000247605
0.000247546
0.0002474
0.000247374
0.000247356
0.000247307
0.000247315
0.000247303
0.000247221
0.000247147
0.00024711
0.00024705
0.000246998
0.000246983
0.000246976
0.000246961
0.000246886
0.000246894
0.000246849
0.000246786
0.000246741
0.000246692
0.000246666
0.000246689
0.000246562
0.000246596
0.000246502
0.000246521
0.000246514
0.000246476
0.000246365
0.000246324
0.000246372
0.000246223
0.000246268
0.000246204
0.000246186
0.000246145
0.000246119