/*--------------------------------*- C++ -*----------------------------------*\
| =========                 |                                                 |
| \\      /  F ield         | OpenFOAM: The Open Source CFD Toolbox           |
|  \\    /   O peration     | Version:  v2006                                 |
|   \\  /    A nd           | Website:  www.openfoam.com                      |
|    \\/     M anipulation  |                                                 |
\*---------------------------------------------------------------------------*/
FoamFile
{
    version     2.0;
    format      ascii;
    class       volScalarField;
    location    "0";
    object      f;
}
// * * * * * * * * * * * * * * * * * * * * * * * * * * * * * * * * * * * * * //

dimensions      [0 0 0 0 0 0 0];


internalField   nonuniform List<scalar> 
2500
(
-1.78313e-16
-1.78351e-16
-1.78376e-16
-1.79699e-16
-1.8121e-16
-1.96977e-16
-2.27179e-16
-2.85152e-16
-3.84788e-16
-2.69865e-15
-2.67865e-15
8.50246e-15
1.61984e-14
-5.57447e-15
-3.34703e-14
-1.71102e-14
4.67294e-14
9.98062e-14
8.45691e-14
-1.13852e-13
-7.38394e-13
-1.16946e-12
-1.00784e-12
3.19703e-14
1.16886e-12
1.02075e-12
3.18776e-13
-1.41032e-13
-5.6956e-13
-4.80022e-13
-2.59374e-13
-9.99649e-14
-2.2301e-14
2.25934e-14
3.64328e-14
1.86124e-14
3.57998e-15
2.04806e-16
5.9788e-17
9.25174e-17
8.17159e-17
5.4901e-17
3.2651e-17
1.85351e-17
1.04604e-17
5.99955e-18
3.5137e-18
2.07991e-18
1.22296e-18
7.02461e-19
1.56394e-14
1.52196e-14
1.63691e-14
1.61021e-14
1.26202e-14
1.37689e-14
1.95592e-14
2.01686e-14
1.31476e-14
-4.8381e-15
2.4504e-14
9.344e-14
4.17405e-14
-7.89668e-14
-1.20533e-13
1.74336e-14
2.98858e-13
2.66033e-13
-6.79563e-14
-3.3043e-12
-5.40355e-12
-5.91501e-12
-2.66055e-12
8.0757e-12
8.34093e-12
2.98963e-12
-1.12627e-12
-6.28702e-12
-4.96032e-12
-2.34444e-12
-7.58149e-13
-2.04941e-13
3.24828e-13
4.43428e-13
2.24148e-13
4.81861e-14
-1.60661e-15
-1.72362e-15
-1.96056e-16
2.00172e-16
1.89083e-16
1.13381e-16
6.14062e-17
3.28023e-17
1.78978e-17
1.01529e-17
5.97463e-18
3.57543e-18
2.12153e-18
1.22287e-18
2.2568e-13
2.24825e-13
2.29915e-13
2.23011e-13
2.10064e-13
2.30683e-13
2.54313e-13
2.31192e-13
1.75903e-13
1.50775e-13
3.71106e-13
3.17868e-13
-1.22536e-13
-2.75929e-13
-3.46094e-14
1.11543e-12
9.20374e-13
-2.50527e-12
-1.60113e-11
-1.70297e-11
-1.3388e-11
-1.07525e-11
4.03683e-11
4.17997e-11
1.87814e-11
-9.14836e-12
-4.26223e-11
-3.12574e-11
-1.26038e-11
-3.8869e-12
1.20227e-12
4.48612e-12
3.87787e-12
1.81158e-12
4.20203e-13
-5.05966e-14
-3.71015e-14
-7.37447e-15
4.4175e-16
1.07466e-15
5.26455e-16
2.20555e-16
1.03026e-16
5.15558e-17
2.7542e-17
1.58011e-17
9.57245e-18
5.90249e-18
3.57523e-18
2.07966e-18
1.0951e-12
1.1001e-12
1.09821e-12
1.07218e-12
1.09436e-12
1.15704e-12
1.15608e-12
1.00685e-12
9.08893e-13
1.31994e-12
1.52512e-12
4.50765e-13
-9.84637e-13
-3.95295e-13
6.73006e-12
1.11733e-11
-4.78787e-12
-5.68489e-11
-8.18464e-11
-3.89015e-11
9.44267e-11
2.79239e-10
2.51566e-10
8.99069e-11
-1.38008e-10
-3.04819e-10
-2.08098e-10
-6.60456e-11
-2.15914e-12
5.78092e-11
5.79546e-11
3.43485e-11
1.40919e-11
3.15826e-12
-9.34836e-13
-5.86198e-13
-1.22163e-13
2.73252e-15
1.20891e-14
5.18265e-15
1.12097e-15
3.09271e-16
1.35916e-16
6.75318e-17
3.71458e-17
2.26656e-17
1.47189e-17
9.57197e-18
5.97402e-18
3.51313e-18
3.37076e-12
3.39982e-12
3.33664e-12
3.32727e-12
3.52537e-12
3.54628e-12
3.34804e-12
2.95744e-12
3.29002e-12
4.74257e-12
3.65832e-12
-1.8683e-12
-2.53724e-12
1.3991e-11
4.14948e-11
3.48398e-11
-7.863e-11
-2.35664e-10
-1.85402e-10
5.66636e-10
1.69812e-09
1.78112e-09
6.27284e-10
-9.70122e-10
-1.82735e-09
-1.32452e-09
-4.25304e-10
2.29572e-10
7.23399e-10
5.3797e-10
2.65644e-10
9.98552e-11
2.33418e-11
-1.26781e-11
-7.64645e-12
-1.67827e-12
-7.24028e-16
1.20844e-13
5.79852e-14
1.1485e-14
9.42958e-16
2.41327e-16
1.25662e-16
7.00027e-17
4.38922e-17
3.10003e-17
2.26646e-17
1.57997e-17
1.01516e-17
5.99845e-18
7.85409e-12
7.92775e-12
7.69977e-12
7.92707e-12
8.40761e-12
8.02495e-12
7.42113e-12
7.06587e-12
8.85638e-12
1.15536e-11
4.87379e-12
-8.37192e-12
1.36454e-11
7.69567e-11
1.21363e-10
2.69551e-11
-3.06488e-10
-4.73426e-10
1.53241e-09
4.90518e-09
7.09995e-09
5.18626e-09
-1.73175e-09
-7.40743e-09
-6.51077e-09
-2.52282e-09
1.93237e-09
5.58861e-09
3.92904e-09
1.67048e-09
5.35945e-10
1.44415e-10
-1.4944e-10
-8.75125e-11
-1.91155e-11
-3.93726e-13
9.34274e-13
5.05559e-13
1.18443e-13
7.73533e-15
5.96304e-18
7.87115e-17
7.79988e-17
5.89076e-17
4.8867e-17
4.38901e-17
3.71429e-17
2.7539e-17
1.78953e-17
1.04584e-17
1.47512e-11
1.48581e-11
1.44248e-11
1.53611e-11
1.57379e-11
1.43431e-11
1.37473e-11
1.4415e-11
1.83958e-11
1.95011e-11
-2.53892e-12
-1.22562e-11
9.72161e-11
2.09787e-10
1.85648e-10
-1.34264e-10
-8.63454e-10
3.16578e-09
1.16785e-08
1.70195e-08
1.55732e-08
6.27274e-09
-1.87324e-08
-2.16196e-08
-1.15689e-08
1.16883e-08
3.63643e-08
2.50838e-08
8.8506e-09
2.51204e-09
-2.80844e-10
-1.94913e-09
-9.97429e-10
-1.98518e-10
-3.9718e-12
6.28914e-12
3.60378e-12
9.55123e-13
8.14851e-14
-4.28322e-15
-1.33029e-15
-9.16623e-17
4.05317e-17
4.7939e-17
5.89042e-17
6.99973e-17
6.75258e-17
5.15503e-17
3.2798e-17
1.85319e-17
-3.77674e-09
-3.77774e-09
-3.77035e-09
-3.76481e-09
-3.78494e-09
-3.81076e-09
-3.76633e-09
-3.66801e-09
-3.7193e-09
-4.10474e-09
-4.18094e-09
-3.19609e-09
-2.37607e-09
-2.81398e-09
-7.58289e-09
-1.57211e-08
-4.3368e-09
2.43268e-08
3.59653e-08
3.23638e-08
-2.5147e-08
-1.25191e-07
-8.11487e-08
-2.51046e-08
8.91127e-08
2.2708e-07
1.52107e-07
4.87708e-08
-7.97738e-09
-3.35724e-08
-2.89987e-08
-1.22684e-08
-2.30376e-09
-2.40784e-11
3.81126e-11
2.29184e-11
6.7391e-12
7.19557e-13
-4.29073e-14
-1.73533e-14
-2.26315e-15
1.2203e-16
7.71114e-17
4.05273e-17
7.79909e-17
1.25652e-16
1.35906e-16
1.03017e-16
6.13993e-17
3.26462e-17
-1.0701e-07
-1.07013e-07
-1.06944e-07
-1.06962e-07
-1.07165e-07
-1.07162e-07
-1.0657e-07
-1.06354e-07
-1.07843e-07
-1.09627e-07
-1.06862e-07
-9.87952e-08
-1.00507e-07
-1.20819e-07
-1.51096e-07
-1.33208e-07
-7.73391e-09
7.58873e-08
4.66193e-08
-3.53186e-07
-9.16302e-07
-8.36698e-07
-1.6664e-07
7.4309e-07
1.28949e-06
9.65184e-07
2.66415e-07
-3.15331e-07
-4.69285e-07
-3.22701e-07
-1.35683e-07
-3.0364e-08
-1.19503e-09
1.98091e-10
1.26177e-10
4.30756e-11
6.60403e-12
-2.04477e-13
-1.09385e-13
-2.27876e-14
4.09973e-16
6.32836e-16
1.22025e-16
-9.16669e-17
7.87e-17
2.4131e-16
3.09252e-16
2.20539e-16
1.1337e-16
5.4894e-17
-6.32332e-07
-6.32327e-07
-6.32237e-07
-6.32492e-07
-6.32792e-07
-6.31693e-07
-6.30489e-07
-6.33943e-07
-6.38889e-07
-6.31997e-07
-6.15517e-07
-6.11908e-07
-6.68054e-07
-7.48741e-07
-7.20224e-07
-4.22351e-07
6.21933e-09
1.15722e-07
-1.21581e-06
-3.27001e-06
-4.13575e-06
-2.45977e-06
1.71255e-06
5.27537e-06
4.89961e-06
1.90038e-06
-1.92633e-06
-3.11599e-06
-2.25368e-06
-1.05394e-06
-3.1102e-07
-3.59801e-08
8.41376e-10
5.55949e-10
2.24811e-10
5.12324e-11
2.04171e-12
-3.0153e-13
-9.48259e-14
4.23536e-15
3.75865e-15
4.10025e-16
-2.26307e-15
-1.33025e-15
5.95256e-18
9.42909e-16
1.12091e-15
5.26423e-16
1.89068e-16
8.17068e-17
-2.08059e-06
-2.08062e-06
-2.08092e-06
-2.08149e-06
-2.08041e-06
-2.07635e-06
-2.07956e-06
-2.09587e-06
-2.09326e-06
-2.04358e-06
-2.02128e-06
-2.11742e-06
-2.32867e-06
-2.38822e-06
-1.88952e-06
-7.63996e-07
-8.75394e-09
-2.35599e-06
-7.6123e-06
-1.14908e-05
-1.03591e-05
-1.8161e-06
1.13844e-05
1.56236e-05
9.9413e-06
-2.95198e-06
-1.26077e-05
-1.02661e-05
-5.43017e-06
-1.99601e-06
-4.33497e-07
-2.09123e-08
1.52864e-09
8.27297e-10
2.79336e-10
4.599e-11
1.0228e-12
4.09135e-14
1.34597e-13
7.24117e-14
4.23584e-15
-2.27869e-14
-1.73528e-14
-4.28309e-15
7.73498e-15
1.14845e-14
5.18242e-15
1.0746e-15
2.00155e-16
9.25072e-17
-4.78387e-06
-4.78427e-06
-4.78557e-06
-4.78507e-06
-4.77951e-06
-4.77473e-06
-4.79681e-06
-4.82526e-06
-4.77019e-06
-4.64889e-06
-4.7354e-06
-5.12068e-06
-5.43184e-06
-5.02644e-06
-3.19682e-06
-8.40322e-07
-3.01392e-06
-1.31201e-05
-2.3177e-05
-2.45073e-05
-1.3468e-05
1.93739e-05
3.4774e-05
2.72644e-05
1.651e-06
-4.86522e-05
-3.41415e-05
-1.83264e-05
-7.75461e-06
-2.38556e-06
-4.08314e-07
-8.77517e-09
1.93461e-09
9.18477e-10
2.84156e-10
6.55251e-11
1.62941e-11
1.95703e-12
6.05215e-13
1.34597e-13
-9.48239e-14
-1.09383e-13
-4.2906e-14
8.1482e-14
1.18439e-13
5.79831e-14
1.20886e-14
4.41711e-16
-1.96062e-16
5.97792e-17
-7.15105e-06
-7.15208e-06
-7.15487e-06
-7.15197e-06
-7.13767e-06
-7.13656e-06
-7.19852e-06
-7.23162e-06
-7.05131e-06
-6.85413e-06
-7.27173e-06
-8.13673e-06
-8.37977e-06
-6.36905e-06
-1.35474e-06
1.13965e-06
-1.38068e-05
-3.79907e-05
-4.43007e-05
-2.73648e-05
5.53968e-05
0.000115106
6.18213e-05
-0.000102632
-0.000338011
-0.000245855
-2.84463e-05
0.000283497
0.000577343
0.00072386
0.000705521
0.00057461
0.000389267
0.000216074
9.37598e-05
2.77055e-05
3.27359e-06
2.68564e-12
1.95702e-12
4.09135e-14
-3.01526e-13
-2.04474e-13
7.19532e-13
9.55092e-13
5.05542e-13
1.20839e-13
2.7323e-15
-7.37438e-15
-1.7236e-15
2.04795e-16
4.16537e-05
4.1654e-05
4.16156e-05
4.16129e-05
4.17819e-05
4.18226e-05
4.12764e-05
4.09275e-05
4.23171e-05
4.39484e-05
4.15263e-05
3.55049e-05
3.47887e-05
5.07355e-05
7.38521e-05
5.73951e-05
-1.7363e-05
-6.98257e-05
-3.43545e-05
0.000233578
0.000511847
0.000367946
-0.000382183
-0.00152292
-0.00170126
-0.000653342
0.00191478
0.00535825
0.00835683
0.00974614
0.00938487
0.00776931
0.00548637
0.00325882
0.00156954
0.00055763
0.000109569
3.27359e-06
1.62939e-11
1.02265e-12
2.04156e-12
6.60381e-12
6.7389e-12
3.60367e-12
9.34244e-13
-7.25396e-16
-1.22162e-13
-3.71012e-14
-1.60664e-15
3.57987e-15
0.000334216
0.000334193
0.00033399
0.000334156
0.00033504
0.000334571
0.000331584
0.000331871
0.000340247
0.000344
0.00032569
0.000301737
0.00032364
0.000407678
0.000441167
0.000289203
2.85643e-05
-5.95144e-05
0.000552845
0.00154555
0.00176948
0.000227206
-0.00329854
-0.00585879
-0.00484793
0.00199841
0.0147258
0.0297235
0.0415408
0.0461005
0.0433089
0.0353137
0.0247681
0.0147123
0.00713834
0.00259526
0.00055763
2.77055e-05
6.55231e-11
4.59881e-11
5.12308e-11
4.30744e-11
2.29177e-11
6.28895e-12
-3.93718e-13
-1.67825e-12
-5.86192e-13
-5.05967e-14
4.81847e-14
1.86118e-14
0.00122144
0.00122128
0.0012208
0.00122191
0.001224
0.00122029
0.00121254
0.00122083
0.00124589
0.00123801
0.001169
0.00113553
0.00127361
0.00148727
0.0013901
0.000809524
0.000195151
0.000843461
0.0029825
0.00475419
0.00351619
-0.00299533
-0.0112754
-0.0148738
-0.00607303
0.0198999
0.0598058
0.101848
0.131537
0.139815
0.127721
0.101865
0.0702202
0.0411268
0.0197283
0.00713834
0.00156954
9.37598e-05
2.84152e-10
2.7933e-10
2.24806e-10
1.26174e-10
3.81115e-11
-3.97159e-12
-1.91151e-11
-7.64635e-12
-9.34832e-13
4.20191e-13
2.24142e-13
3.64316e-14
0.00316611
0.00316562
0.00316523
0.00316854
0.00317033
0.00315847
0.00314949
0.00318197
0.00322178
0.00315684
0.0030109
0.00306403
0.00346285
0.00372301
0.00308887
0.00166047
0.00143848
0.00423131
0.00851493
0.00989394
0.00242115
-0.0128527
-0.0270157
-0.0245755
0.00993951
0.0806608
0.174358
0.263173
0.318383
0.325049
0.288363
0.224417
0.15152
0.0871307
0.0411268
0.0147123
0.00325882
0.000216074
9.18469e-10
8.27284e-10
5.55937e-10
1.98085e-10
-2.40754e-11
-1.98514e-10
-8.75111e-11
-1.2678e-11
3.15817e-12
1.81154e-12
4.43416e-13
2.25926e-14
0.00658113
0.00658029
0.00658115
0.00658674
0.00658305
0.00656172
0.00656814
0.00663583
0.00664864
0.00647005
0.00631698
0.00665464
0.00732682
0.00720275
0.00538843
0.00360117
0.00557175
0.0116879
0.0174151
0.0128381
-0.00644736
-0.0330824
-0.0462447
-0.016048
0.0772525
0.229327
0.406675
0.557588
0.636373
0.624635
0.537517
0.407511
0.268936
0.15152
0.0702202
0.0247681
0.00548637
0.000389267
1.9346e-09
1.52863e-09
8.41357e-10
-1.19496e-09
-2.3037e-09
-9.97411e-10
-1.49437e-10
2.33413e-11
1.40916e-11
3.87778e-12
3.24818e-13
-2.23e-14
0.0115972
0.0115966
0.0115998
0.0116039
0.0115892
0.0115712
0.0116154
0.0116897
0.0115947
0.0113301
0.011399
0.0121449
0.0126918
0.0113447
0.00845036
0.00847873
0.0143834
0.02366
0.0246955
0.00685669
-0.0283484
-0.0599139
-0.0465824
0.0515875
0.249133
0.520165
0.800615
1.0113
1.09281
1.03091
0.859052
0.633158
0.407511
0.224417
0.101865
0.0353137
0.00776931
0.00057461
-8.77428e-09
-2.0911e-08
-3.59788e-08
-3.03633e-08
-1.22681e-08
-1.9491e-09
1.44412e-10
9.98536e-11
3.43479e-11
4.48601e-12
-2.04934e-13
-9.99609e-14
0.0179132
0.0179139
0.0179184
0.0179137
0.0178927
0.0179058
0.0179824
0.0179739
0.0177389
0.0176075
0.0181478
0.0190192
0.0184543
0.0154538
0.0138009
0.0180494
0.0284834
0.0346524
0.0219323
-0.0154101
-0.0612039
-0.0686001
0.018906
0.239566
0.585951
0.996654
1.37189
1.61009
1.64988
1.49374
1.20232
0.859052
0.537517
0.288363
0.127721
0.0433089
0.00938487
0.000705521
-4.08303e-07
-4.33487e-07
-3.11013e-07
-1.35681e-07
-2.89982e-08
-2.80836e-10
5.35938e-10
2.6564e-10
5.79536e-11
1.20224e-12
-7.58123e-13
-2.59364e-13
0.0246516
0.0246539
0.0246543
0.0246379
0.0246339
0.0246953
0.024732
0.0245556
0.0243363
0.0246723
0.0255972
0.0256036
0.0229446
0.020361
0.0229539
0.0329677
0.0423672
0.0349583
-0.000405432
-0.0543302
-0.079218
-0.00793103
0.217547
0.612933
1.13022
1.66439
2.0858
2.28667
2.22262
1.92717
1.49374
1.03091
0.624635
0.325049
0.139815
0.0461005
0.00974614
0.000723859
-2.38551e-06
-1.99598e-06
-1.05392e-06
-3.22696e-07
-3.35717e-08
2.51202e-09
1.67046e-09
5.37963e-10
5.78081e-11
-3.88679e-12
-2.34436e-12
-4.80004e-13
0.0305979
0.0306
0.0305906
0.0305754
0.0306162
0.030685
0.0305736
0.0302983
0.0304451
0.0313503
0.0318276
0.029629
0.0263686
0.0274505
0.0367089
0.048445
0.0457039
0.0133155
-0.0452598
-0.0838325
-0.0286384
0.193324
0.617312
1.21209
1.87698
2.4681
2.84528
2.92021
2.68741
2.22262
1.64988
1.09281
0.636373
0.318383
0.131537
0.0415408
0.00835683
0.000577343
-7.75451e-06
-5.43011e-06
-2.25365e-06
-4.69277e-07
-7.977e-09
8.85051e-09
3.92899e-09
7.23388e-10
-2.15924e-12
-1.26035e-11
-4.96017e-12
-5.69536e-13
0.0348114
0.0348093
0.0347932
0.0348061
0.0348829
0.0348543
0.0345828
0.0345158
0.03528
0.0361574
0.0347124
0.031067
0.0303836
0.0382261
0.0518631
0.054207
0.026191
-0.0350262
-0.0863593
-0.0487109
0.163791
0.60337
1.25319
2.01905
2.75073
3.28644
3.50522
3.36623
2.92021
2.28667
1.61009
1.0113
0.557588
0.263173
0.101848
0.0297235
0.00535824
0.000283496
-1.83263e-05
-1.0266e-05
-3.11595e-06
-3.15325e-07
4.87703e-08
2.50834e-08
5.58853e-09
2.29567e-10
-6.60441e-11
-3.12566e-11
-6.28682e-12
-1.41021e-13
0.0369694
0.0369613
0.0369554
0.0370105
0.0370469
0.0368474
0.0366293
0.0371237
0.0381939
0.0376274
0.0341572
0.0318947
0.0374542
0.0517036
0.0591422
0.0377639
-0.0224183
-0.0850649
-0.068503
0.125106
0.565305
1.25005
2.09191
2.93651
3.60639
3.95491
3.91198
3.50522
2.84528
2.0858
1.37189
0.800615
0.406675
0.174358
0.0598058
0.0147258
0.00191478
-2.84457e-05
-3.41412e-05
-1.26076e-05
-1.9263e-06
2.66412e-07
1.52105e-07
3.63638e-08
1.93232e-09
-4.25296e-10
-2.08094e-10
-4.26211e-11
-1.12617e-12
3.18765e-13
0.0372841
0.0372755
0.0372997
0.0373617
0.0372619
0.0369892
0.0371878
0.038218
0.0384168
0.0355851
0.0323287
0.0352918
0.0485924
0.0600264
0.0466044
-0.00825731
-0.078192
-0.0840664
0.08037
0.50167
1.19543
2.08498
3.0157
3.79795
4.26289
4.31373
3.95491
3.28644
2.4681
1.66439
0.996654
0.520165
0.229327
0.0806608
0.0198999
0.00199842
-0.000653339
-0.000245854
-4.86519e-05
-2.95192e-06
1.90036e-06
9.65175e-07
2.27077e-07
1.16879e-08
-2.52278e-09
-1.32449e-09
-3.04813e-10
-9.14771e-12
2.98957e-12
1.02072e-12
0.0361935
0.0361956
0.0362462
0.0362359
0.0359997
0.0359427
0.0367455
0.0374962
0.0356026
0.0319458
0.0324017
0.0433613
0.0574778
0.0523686
0.00604967
-0.0664736
-0.093391
0.0345279
0.417549
1.08992
1.99102
2.97341
3.84255
4.41222
4.55951
4.26289
3.60639
2.75073
1.87698
1.13022
0.585951
0.249133
0.0772525
0.00993951
-0.00607302
-0.00484792
-0.00170126
-0.00033801
1.65113e-06
9.94125e-06
4.89957e-06
1.28948e-06
8.91105e-08
-1.15687e-08
-6.51067e-09
-1.82732e-09
-1.38004e-10
1.87811e-11
8.34073e-12
1.16882e-12
0.033876
0.0338958
0.0339318
0.033797
0.0335919
0.0340368
0.035033
0.0342299
0.0308302
0.0291269
0.0366981
0.0518368
0.0548861
0.0196573
-0.050823
-0.0964071
-0.0100968
0.317751
0.938906
1.81179
2.80372
3.72499
4.38094
4.62668
4.41222
3.79795
2.93651
2.01905
1.21209
0.612933
0.239566
0.0515875
-0.016048
-0.0245754
-0.0148738
-0.00585878
-0.00152292
-0.000102631
2.72642e-05
1.56235e-05
5.27533e-06
7.43082e-07
-2.51041e-08
-2.16193e-08
-7.40729e-09
-9.701e-10
8.99053e-11
4.17986e-11
8.0754e-12
3.19489e-14
0.0301534
0.0301828
0.0301526
0.0299373
0.0300228
0.0309212
0.0311146
0.0285989
0.0254266
0.029132
0.0431685
0.0531761
0.0310091
-0.0323243
-0.0927155
-0.0514972
0.205814
0.747175
1.55241
2.50924
3.44194
4.15736
4.49616
4.38094
3.84255
3.0157
2.09191
1.25319
0.617312
0.217547
0.018906
-0.0465823
-0.0462447
-0.0270157
-0.0112754
-0.00329854
-0.000382185
6.18204e-05
3.47735e-05
1.13842e-05
1.71252e-06
-1.66641e-07
-8.11477e-08
-1.87319e-08
-1.73165e-09
6.2728e-10
2.51561e-10
4.03672e-11
-2.66058e-12
-1.00784e-12
0.024727
0.0247452
0.0246231
0.0244732
0.0250171
0.0258361
0.0246056
0.0209254
0.0209283
0.031874
0.0465809
0.038259
-0.0127987
-0.0823656
-0.0869407
0.0868863
0.521294
1.2198
2.09642
2.99777
3.74174
4.16232
4.15736
3.72499
2.97341
2.08498
1.25005
0.60337
0.193324
-0.00793101
-0.0686001
-0.0599138
-0.0330824
-0.0128527
-0.00299534
0.000227198
0.000367942
0.000115104
1.93734e-05
-1.81616e-06
-2.45979e-06
-8.36697e-07
-1.25189e-07
6.27285e-09
5.18624e-09
1.7811e-09
2.79232e-10
-1.07523e-11
-5.9149e-12
-1.16943e-12
0.0175494
0.017529
0.0173327
0.0174477
0.018382
0.0185206
0.0153609
0.0124065
0.0187178
0.035255
0.0401126
0.00578348
-0.0662337
-0.114175
-0.0326806
0.271227
0.826106
1.57766
2.40332
3.14195
3.62918
3.74174
3.44194
2.80372
1.99102
1.19543
0.565305
0.163791
-0.0286383
-0.0792179
-0.0612039
-0.0283485
-0.00644738
0.00242112
0.00351617
0.00176946
0.000511841
5.53949e-05
-1.34681e-05
-1.03592e-05
-4.13578e-06
-9.16302e-07
-2.51462e-08
1.55731e-08
7.09989e-09
1.69809e-09
9.44238e-11
-1.33879e-11
-5.4035e-12
-7.38388e-13
0.00893015
0.00883145
0.00865834
0.00926512
0.0104065
0.0086914
0.00395892
0.00480953
0.0201018
0.0359747
0.0215338
-0.045506
-0.131286
-0.146166
0.00913495
0.388426
0.973321
1.67935
2.37591
2.90975
3.14195
2.99777
2.50924
1.81179
1.08992
0.501669
0.125106
-0.0487109
-0.0838324
-0.0543302
-0.0154101
0.00685666
0.012838
0.00989389
0.00475416
0.00154554
0.000233571
-2.73656e-05
-2.45075e-05
-1.14909e-05
-3.27004e-06
-3.53192e-07
3.2363e-08
1.70193e-08
4.90516e-09
5.66629e-10
-3.89012e-11
-1.70297e-11
-3.3043e-12
-1.13854e-13
-0.000662505
-0.000856976
-0.000739518
0.000660661
0.000867622
-0.00411284
-0.00839899
0.00271003
0.0259484
0.0323341
-0.0221287
-0.13693
-0.246581
-0.251212
-0.0724879
0.310254
0.856338
1.47368
2.02931
2.37591
2.40332
2.09642
1.55241
0.938906
0.417549
0.08037
-0.0685029
-0.0863592
-0.0452597
-0.000405437
0.0219322
0.0246954
0.017415
0.00851488
0.00298247
0.000552831
-3.43615e-05
-4.43009e-05
-2.31773e-05
-7.61247e-06
-1.21586e-06
4.6609e-08
3.5964e-08
1.16785e-08
1.53247e-09
-1.85391e-10
-8.18441e-11
-1.60112e-11
-6.80056e-14
8.45641e-14
-0.0107471
-0.0109266
-0.00994912
-0.00809069
-0.01177
-0.0196482
-0.0151313
0.010688
0.0361685
0.00135875
-0.130646
-0.327265
-0.49496
-0.532695
-0.378934
-0.0267861
0.476098
1.02545
1.47368
1.67935
1.57766
1.2198
0.747175
0.317751
0.034528
-0.0840663
-0.0850648
-0.0350261
0.0133156
0.0349582
0.0346523
0.0236599
0.0116878
0.00423125
0.000843433
-5.9528e-05
-6.98296e-05
-3.79931e-05
-1.31212e-05
-2.3563e-06
1.15682e-07
7.58801e-08
2.43264e-08
3.16616e-09
-4.73368e-10
-2.35653e-10
-5.68506e-11
-2.50598e-12
2.66028e-13
9.98029e-14
-0.0207719
-0.0204925
-0.0181426
-0.0193582
-0.0284431
-0.0317347
-0.00851747
0.0317082
0.0220905
-0.113101
-0.382536
-0.70721
-0.966287
-1.05689
-0.923287
-0.565775
-0.0532004
0.476098
0.856338
0.973321
0.826106
0.521294
0.205814
-0.0100968
-0.0933909
-0.0781918
-0.0224182
0.0261911
0.0457038
0.0423671
0.0284833
0.0143833
0.00557167
0.00143843
0.000195124
2.85505e-05
-1.73695e-05
-1.3809e-05
-3.01463e-06
-8.96415e-09
6.16276e-09
-7.7411e-09
-4.33478e-09
-8.6311e-10
-3.06445e-10
-7.86341e-11
-4.79268e-12
9.20258e-13
2.98868e-13
4.67301e-14
-0.0299567
-0.0284594
-0.0271458
-0.0348563
-0.0450919
-0.0291908
0.0192139
0.0371915
-0.0863267
-0.408291
-0.873744
-1.34657
-1.6832
-1.78037
-1.59193
-1.14734
-0.565775
-0.0267861
0.310254
0.388426
0.271227
0.0868863
-0.0514971
-0.096407
-0.0664735
-0.00825723
0.037764
0.0542069
0.0484449
0.0329676
0.0180493
0.00847863
0.0036011
0.00166042
0.000809493
0.000289186
5.73888e-05
1.13801e-06
-8.40802e-07
-7.64218e-07
-4.22418e-07
-1.33215e-07
-1.57192e-08
-1.34274e-10
2.69263e-11
3.48306e-11
1.11725e-11
1.11548e-12
1.74479e-14
-1.7105e-14
-0.0374384
-0.0351917
-0.039622
-0.0534974
-0.0481734
0.000312084
0.0438708
-0.0540323
-0.402631
-0.982009
-1.6474
-2.21654
-2.54196
-2.53631
-2.18942
-1.59193
-0.923287
-0.378934
-0.072488
0.00913493
-0.0326806
-0.0869406
-0.0927154
-0.0508229
0.00604975
0.0466044
0.0591421
0.051863
0.0367088
0.0229537
0.0138008
0.00845026
0.00538836
0.00308882
0.00139007
0.000441151
7.38466e-05
-1.3559e-06
-3.19733e-06
-1.88974e-06
-7.20293e-07
-1.51108e-07
-7.58357e-09
1.85606e-10
1.2135e-10
4.14934e-11
6.73068e-12
-3.44582e-14
-1.20511e-13
-3.34672e-14
-0.0431561
-0.0435513
-0.0562592
-0.062124
-0.0221384
0.0404173
-0.0211844
-0.366326
-1.02203
-1.84487
-2.61709
-3.15214
-3.33057
-3.10729
-2.53631
-1.78037
-1.05689
-0.532695
-0.251212
-0.146166
-0.114175
-0.0823655
-0.0323242
0.0196574
0.0523686
0.0600264
0.0517036
0.038226
0.0274504
0.0203609
0.0154537
0.0113446
0.00720267
0.00372296
0.00148723
0.000407664
5.07312e-05
-6.37027e-06
-5.02707e-06
-2.3885e-06
-7.4882e-07
-1.2083e-07
-2.81397e-09
2.0979e-10
7.69589e-11
1.39915e-11
-3.95501e-13
-2.7596e-13
-7.8962e-14
-5.57211e-15
-0.0483432
-0.0549046
-0.0693671
-0.0438298
0.0277408
0.00661865
-0.30378
-0.988031
-1.91884
-2.8491
-3.55867
-3.90853
-3.82846
-3.33057
-2.54196
-1.6832
-0.966286
-0.49496
-0.246581
-0.131286
-0.0662336
-0.0127986
0.0310091
0.0548861
0.0574778
0.0485924
0.0374541
0.0303835
0.0263685
0.0229445
0.0184542
0.0126916
0.00732674
0.00346279
0.00127358
0.000323627
3.4784e-05
-8.3813e-06
-5.4326e-06
-2.32898e-06
-6.68136e-07
-1.00516e-07
-2.37592e-09
9.72167e-11
1.36453e-11
-2.53725e-12
-9.84602e-13
-1.2249e-13
4.17425e-14
1.61988e-14
-0.0532064
-0.0654766
-0.059459
0.00652636
0.0229912
-0.22463
-0.881004
-1.85621
-2.8843
-3.71742
-4.2111
-4.28533
-3.90853
-3.15214
-2.21654
-1.34657
-0.70721
-0.327264
-0.13693
-0.045506
0.00578356
0.0382591
0.0531762
0.0518368
0.0433613
0.0352917
0.0318946
0.0310669
0.0296289
0.0256035
0.0190191
0.0121448
0.00665456
0.00306398
0.0011355
0.000301724
3.54998e-05
-8.13839e-06
-5.12147e-06
-2.11774e-06
-6.11989e-07
-9.88047e-08
-3.19596e-09
-1.22556e-11
-8.37143e-12
-1.86797e-12
4.50851e-13
3.17891e-13
9.34446e-14
8.50263e-15
-0.0554358
-0.0639633
-0.0193061
0.0270855
-0.141262
-0.7121
-1.6558
-2.70924
-3.60082
-4.19454
-4.42166
-4.2111
-3.55867
-2.61709
-1.6474
-0.873743
-0.382536
-0.130646
-0.0221287
0.0215338
0.0401127
0.0465809
0.0431685
0.0366981
0.0324017
0.0323286
0.0341571
0.0347123
0.0318275
0.0255971
0.0181477
0.0113989
0.0063169
0.00301085
0.00116897
0.000325676
4.1521e-05
-7.27343e-06
-4.73618e-06
-2.02159e-06
-6.15596e-07
-1.06872e-07
-4.18081e-09
-2.53678e-12
4.87451e-12
3.65847e-12
1.5251e-12
3.71079e-13
2.44963e-14
-2.67912e-15
-0.0501267
-0.0381611
0.0223689
-0.0631341
-0.499389
-1.32812
-2.32441
-3.20693
-3.84588
-4.20557
-4.19454
-3.71742
-2.8491
-1.84487
-0.982009
-0.408291
-0.113101
0.00135873
0.0323341
0.0359747
0.0352551
0.031874
0.0291321
0.0291268
0.0319457
0.035585
0.0376273
0.0361572
0.0313502
0.0246721
0.0176074
0.01133
0.00646998
0.00315679
0.00123798
0.000343986
4.39432e-05
-6.85573e-06
-4.6496e-06
-2.04386e-06
-6.32071e-07
-1.09636e-07
-4.1047e-09
1.95033e-11
1.15548e-11
4.74293e-12
1.31998e-12
1.50742e-13
-4.84377e-15
-2.69954e-15
-0.0340467
-0.0045244
-0.00828561
-0.231833
-0.804812
-1.66151
-2.45697
-3.13197
-3.64585
-3.84588
-3.60082
-2.8843
-1.91884
-1.02203
-0.402631
-0.0863268
0.0220904
0.0361685
0.0259485
0.0201018
0.0187178
0.0209284
0.0254266
0.0308301
0.0356025
0.0384168
0.0381938
0.0352799
0.0304449
0.0243362
0.0177387
0.0115946
0.00664856
0.00322173
0.00124586
0.000340233
4.2312e-05
-7.0528e-06
-4.77085e-06
-2.09351e-06
-6.38957e-07
-1.07851e-07
-3.71931e-09
1.84001e-11
8.85816e-12
3.29046e-12
9.08907e-13
1.75882e-13
1.31427e-14
-3.84797e-16
-0.0174886
-0.00108437
-0.0394388
-0.312205
-0.868412
-1.52787
-2.07041
-2.63054
-3.13197
-3.20693
-2.70925
-1.8562
-0.98803
-0.366326
-0.0540324
0.0371914
0.0317082
0.010688
0.00271009
0.00480961
0.0124065
0.0209255
0.0285989
0.0342298
0.0374961
0.038218
0.0371236
0.0345157
0.0302982
0.0245555
0.0179738
0.0116896
0.00663575
0.00318192
0.0012208
0.000331857
4.09227e-05
-7.23302e-06
-4.82587e-06
-2.09611e-06
-6.34009e-07
-1.06363e-07
-3.66801e-09
1.44181e-11
7.06677e-12
2.95758e-12
1.00686e-12
2.31192e-13
2.01683e-14
-2.85074e-16
-0.0142284
-0.0123129
-0.0379281
-0.271731
-0.713226
-1.14069
-1.57174
-2.07041
-2.45697
-2.32441
-1.6558
-0.881003
-0.30378
-0.0211846
0.0438707
0.0192139
-0.00851744
-0.0151312
-0.00839891
0.00395899
0.015361
0.0246057
0.0311146
0.035033
0.0367454
0.0371877
0.0366292
0.0345827
0.0305735
0.0247319
0.0179823
0.0116153
0.00656806
0.00314944
0.00121251
0.00033157
4.12716e-05
-7.19988e-06
-4.79742e-06
-2.07981e-06
-6.30557e-07
-1.0658e-07
-3.76631e-09
1.37489e-11
7.42175e-12
3.34826e-12
1.15614e-12
2.54325e-13
1.95589e-14
-2.27057e-16
-0.0144769
-0.0169396
-0.0187371
-0.141979
-0.419286
-0.748403
-1.14069
-1.52787
-1.66151
-1.32812
-0.7121
-0.22463
0.00661845
0.0404172
0.000312058
-0.0291908
-0.0317346
-0.0196481
-0.00411276
0.00869148
0.0185206
0.0258361
0.0309211
0.0340368
0.0359427
0.0369892
0.0368473
0.0348542
0.0306849
0.0246951
0.0179057
0.0115711
0.00656164
0.00315842
0.00122026
0.000334558
4.18179e-05
-7.13794e-06
-4.77536e-06
-2.0766e-06
-6.31763e-07
-1.07172e-07
-3.81076e-09
1.43457e-11
8.02624e-12
3.54671e-12
1.15712e-12
2.30675e-13
1.37635e-14
-1.96829e-16
-0.014467
-0.0139625
-0.0107337
-0.0266097
-0.162965
-0.419286
-0.713226
-0.868412
-0.804812
-0.499389
-0.141262
0.0229911
0.0277407
-0.0221384
-0.0481734
-0.0450918
-0.028443
-0.0117699
0.000867713
0.0104066
0.018382
0.0250172
0.0300227
0.0335919
0.0359997
0.0372618
0.0370468
0.0348827
0.0306161
0.0246338
0.0178925
0.0115891
0.00658297
0.00317028
0.00122397
0.000335026
4.17771e-05
-7.13907e-06
-4.78015e-06
-2.08066e-06
-6.32862e-07
-1.07174e-07
-3.78492e-09
1.57413e-11
8.40909e-12
3.52576e-12
1.0944e-12
2.10047e-13
1.26156e-14
-1.81045e-16
-0.012062
-0.0112107
-0.0153801
-0.00868704
-0.0266098
-0.141979
-0.271731
-0.312205
-0.231833
-0.063134
0.0270853
0.00652618
-0.0438299
-0.0621241
-0.0534974
-0.0348562
-0.0193581
-0.00809057
0.000660755
0.0092652
0.0174478
0.0244732
0.0299373
0.033797
0.0362358
0.0373616
0.0370104
0.034806
0.0305752
0.0246378
0.0179135
0.0116038
0.00658666
0.00316849
0.00122188
0.000334142
4.16081e-05
-7.15337e-06
-4.78571e-06
-2.08174e-06
-6.32561e-07
-1.06971e-07
-3.76479e-09
1.53642e-11
7.92829e-12
3.32759e-12
1.07222e-12
2.23005e-13
1.6099e-14
-1.79531e-16
-0.0106666
-0.0120892
-0.0104623
-0.0153801
-0.0107337
-0.0187371
-0.0379282
-0.0394387
-0.00828549
0.0223688
-0.0193062
-0.0594591
-0.0693671
-0.0562592
-0.039622
-0.0271457
-0.0181424
-0.009949
-0.000739413
0.00865842
0.0173328
0.0246231
0.0301526
0.0339318
0.0362461
0.0372997
0.0369554
0.0347931
0.0305905
0.0246542
0.0179182
0.0115997
0.00658107
0.00316518
0.00122077
0.000333977
4.16108e-05
-7.15627e-06
-4.7862e-06
-2.08118e-06
-6.32306e-07
-1.06953e-07
-3.77034e-09
1.44275e-11
7.7009e-12
3.33697e-12
1.09827e-12
2.29913e-13
1.63664e-14
-1.78207e-16
-0.00987538
-0.0097774
-0.0120892
-0.0112107
-0.0139625
-0.0169396
-0.012313
-0.00108417
-0.00452446
-0.0381613
-0.0639634
-0.0654766
-0.0549046
-0.0435512
-0.0351916
-0.0284593
-0.0204924
-0.0109264
-0.00085687
0.00883153
0.017529
0.0247452
0.0301827
0.0338958
0.0361956
0.0372754
0.0369612
0.0348092
0.0305999
0.0246538
0.0179138
0.0115965
0.00658022
0.00316557
0.00122125
0.00033418
4.16492e-05
-7.15347e-06
-4.7849e-06
-2.08088e-06
-6.32396e-07
-1.07022e-07
-3.77773e-09
1.48609e-11
7.92896e-12
3.40018e-12
1.10016e-12
2.24822e-13
1.52166e-14
-1.78183e-16
-0.0079281
-0.00987539
-0.0106666
-0.012062
-0.014467
-0.014477
-0.0142283
-0.0174886
-0.0340468
-0.0501268
-0.0554359
-0.0532064
-0.0483432
-0.0431561
-0.0374383
-0.0299566
-0.0207717
-0.010747
-0.0006624
0.00893023
0.0175494
0.024727
0.0301534
0.0338759
0.0361934
0.0372841
0.0369693
0.0348113
0.0305978
0.0246515
0.0179131
0.0115971
0.00658105
0.00316606
0.00122141
0.000334203
4.16489e-05
-7.15244e-06
-4.7845e-06
-2.08084e-06
-6.32401e-07
-1.07019e-07
-3.77672e-09
1.47541e-11
7.85531e-12
3.37111e-12
1.09516e-12
2.25676e-13
1.56363e-14
-1.78144e-16
)
;

boundaryField
{
    movingWall
    {
        type            zeroGradient;
    }
    fixedWalls
    {
        type            zeroGradient;
    }
    frontAndBack
    {
        type            empty;
    }
}

