/*--------------------------------*- C++ -*----------------------------------*\
| =========                 |                                                 |
| \\      /  F ield         | OpenFOAM: The Open Source CFD Toolbox           |
|  \\    /   O peration     | Version:  v2006                                 |
|   \\  /    A nd           | Website:  www.openfoam.com                      |
|    \\/     M anipulation  |                                                 |
\*---------------------------------------------------------------------------*/
FoamFile
{
    version     2.0;
    format      ascii;
    class       volScalarField;
    location    "0";
    object      shifted_f;
}
// * * * * * * * * * * * * * * * * * * * * * * * * * * * * * * * * * * * * * //

dimensions      [0 0 0 0 0 0 0];


internalField   nonuniform List<scalar> 
2500
(
-3.25185
-3.25184
-3.25184
-3.25184
-3.25184
-3.25183
-3.25183
-3.25183
-3.25183
-3.25183
-3.25182
-3.25182
-3.25182
-3.25182
-3.25181
-3.25181
-3.25181
-3.25181
-3.25181
-3.2518
-3.2518
-3.2518
-3.25179
-3.25179
-3.25178
-3.25178
-3.25178
-3.25178
-3.25182
-3.25358
-3.25742
-2.98348
-2.85571
-2.85308
-2.85307
-2.85306
-2.85305
-2.85304
-2.85304
-2.85303
-2.85302
-2.85302
-2.85301
-2.85301
-2.853
-2.853
-2.853
-2.85299
-2.85299
-2.85299
-2.85298
-2.85298
-2.85298
-2.85298
-2.85298
-2.85297
-2.85297
-2.85297
-2.85297
-2.85297
-2.85297
-2.85296
-2.85297
-2.85296
-2.85296
-2.85296
-2.85296
-2.85296
-2.85296
-2.85295
-2.85295
-2.85295
-2.85295
-2.85295
-2.85294
-2.85294
-2.85294
-2.85293
-2.85295
-2.85361
-2.8533
-2.72943
-2.46776
-2.44573
-2.44568
-2.44568
-2.44567
-2.44566
-2.44565
-2.44564
-2.44564
-2.44563
-2.44563
-2.44562
-2.44561
-2.44561
-2.44561
-2.4456
-2.4456
-2.4456
-2.4456
-2.4456
-2.44559
-2.44559
-2.44559
-2.44559
-2.44559
-2.44559
-2.44559
-2.44559
-2.44559
-2.44559
-2.44559
-2.44559
-2.44559
-2.44559
-2.44559
-2.44559
-2.44559
-2.44559
-2.44559
-2.44559
-2.44559
-2.44559
-2.44559
-2.44559
-2.44559
-2.44559
-2.4456
-2.4455
-2.44687
-2.42779
-2.12741
-2.03167
-2.03028
-2.03027
-2.03026
-2.03025
-2.03025
-2.03024
-2.03023
-2.03023
-2.03022
-2.03022
-2.03021
-2.03021
-2.0302
-2.0302
-2.0302
-2.0302
-2.03019
-2.03019
-2.03019
-2.03019
-2.03019
-2.03019
-2.03019
-2.03019
-2.03019
-2.03019
-2.03019
-2.03019
-2.03019
-2.03019
-2.0302
-2.0302
-2.0302
-2.0302
-2.0302
-2.0302
-2.0302
-2.0302
-2.0302
-2.0302
-2.0302
-2.03021
-2.03021
-2.03021
-2.03021
-2.03022
-2.03067
-2.0312
-1.86802
-1.65248
-1.63971
-1.63969
-1.63968
-1.63967
-1.63966
-1.63965
-1.63965
-1.63964
-1.63963
-1.63963
-1.63962
-1.63962
-1.63962
-1.63961
-1.63961
-1.63961
-1.63961
-1.6396
-1.6396
-1.6396
-1.6396
-1.6396
-1.6396
-1.6396
-1.6396
-1.6396
-1.6396
-1.6396
-1.63961
-1.63961
-1.63961
-1.63961
-1.63961
-1.63961
-1.63961
-1.63962
-1.63962
-1.63962
-1.63962
-1.63962
-1.63963
-1.63963
-1.63963
-1.63963
-1.63963
-1.63964
-1.63953
-1.64036
-1.60919
-1.34092
-1.28041
-1.27981
-1.2798
-1.27979
-1.27979
-1.27978
-1.27977
-1.27977
-1.27976
-1.27976
-1.27975
-1.27975
-1.27974
-1.27974
-1.27974
-1.27973
-1.27973
-1.27973
-1.27973
-1.27973
-1.27973
-1.27973
-1.27973
-1.27973
-1.27973
-1.27973
-1.27973
-1.27973
-1.27974
-1.27973
-1.27974
-1.27974
-1.27974
-1.27974
-1.27975
-1.27975
-1.27975
-1.27975
-1.27976
-1.27976
-1.27976
-1.27976
-1.27976
-1.27977
-1.27977
-1.27977
-1.27978
-1.27987
-1.28067
-1.1227
-0.973884
-0.967651
-0.967645
-0.967637
-0.967629
-0.967621
-0.967615
-0.967608
-0.967603
-0.967598
-0.967593
-0.967589
-0.967584
-0.967582
-0.967577
-0.967574
-0.967573
-0.967571
-0.967569
-0.967569
-0.967568
-0.967566
-0.967566
-0.967566
-0.967566
-0.967566
-0.967566
-0.967566
-0.967567
-0.967569
-0.96757
-0.96757
-0.967573
-0.967574
-0.967575
-0.967578
-0.96758
-0.967582
-0.967584
-0.967587
-0.967588
-0.967591
-0.967594
-0.967598
-0.967599
-0.967602
-0.967604
-0.967598
-0.966896
-0.936735
-0.736782
-0.704555
-0.704368
-0.704358
-0.704351
-0.704344
-0.704338
-0.704333
-0.704327
-0.704322
-0.704318
-0.704315
-0.704313
-0.70431
-0.704305
-0.704304
-0.704301
-0.7043
-0.704297
-0.704296
-0.704296
-0.704296
-0.704296
-0.704295
-0.704294
-0.704294
-0.704295
-0.704296
-0.704296
-0.704298
-0.704297
-0.7043
-0.7043
-0.704302
-0.704304
-0.704306
-0.704308
-0.704311
-0.704313
-0.704315
-0.704316
-0.704319
-0.704321
-0.704323
-0.704326
-0.704328
-0.704325
-0.704341
-0.704034
-0.704259
-0.58116
-0.495105
-0.492634
-0.492633
-0.492625
-0.492619
-0.492613
-0.492608
-0.492603
-0.492599
-0.492594
-0.49259
-0.492586
-0.492583
-0.49258
-0.492578
-0.492576
-0.492574
-0.492572
-0.492571
-0.492569
-0.492568
-0.492566
-0.492566
-0.492565
-0.492565
-0.492564
-0.492566
-0.492566
-0.492565
-0.492566
-0.492566
-0.492568
-0.492567
-0.492568
-0.492571
-0.492572
-0.492573
-0.492576
-0.492577
-0.492577
-0.49258
-0.492581
-0.492582
-0.492586
-0.492586
-0.492589
-0.492588
-0.492708
-0.489175
-0.467844
-0.343342
-0.329118
-0.329109
-0.329102
-0.329097
-0.329093
-0.329088
-0.329084
-0.329081
-0.329078
-0.329074
-0.329072
-0.329069
-0.329067
-0.329065
-0.329062
-0.329061
-0.32906
-0.329058
-0.329058
-0.329056
-0.329056
-0.329056
-0.329055
-0.329056
-0.329055
-0.329056
-0.329055
-0.329056
-0.329056
-0.329058
-0.329058
-0.329059
-0.32906
-0.329062
-0.329063
-0.329064
-0.329065
-0.329066
-0.329068
-0.329069
-0.329071
-0.329074
-0.329074
-0.329076
-0.329078
-0.329075
-0.329092
-0.328489
-0.328029
-0.248448
-0.20741
-0.20673
-0.20673
-0.206726
-0.206722
-0.206718
-0.206714
-0.206711
-0.206709
-0.206705
-0.206702
-0.206699
-0.206698
-0.206696
-0.206694
-0.206692
-0.206691
-0.206689
-0.206689
-0.206687
-0.206686
-0.206685
-0.206685
-0.206685
-0.206683
-0.206684
-0.206684
-0.206683
-0.206684
-0.206684
-0.206684
-0.206685
-0.206685
-0.206684
-0.206686
-0.206686
-0.206687
-0.206688
-0.206689
-0.20669
-0.206691
-0.206691
-0.206692
-0.206694
-0.206695
-0.206695
-0.206689
-0.206843
-0.201549
-0.189619
-0.126414
-0.121519
-0.121566
-0.121562
-0.121559
-0.121556
-0.121553
-0.121551
-0.121549
-0.121547
-0.121546
-0.121544
-0.121543
-0.121541
-0.12154
-0.121539
-0.121538
-0.121536
-0.121536
-0.121536
-0.121534
-0.121534
-0.121534
-0.121534
-0.121533
-0.121533
-0.121535
-0.121535
-0.121536
-0.121536
-0.121536
-0.121536
-0.121537
-0.121538
-0.121538
-0.121538
-0.121539
-0.121539
-0.121541
-0.121541
-0.121542
-0.121543
-0.121544
-0.121545
-0.121546
-0.121546
-0.121543
-0.121559
-0.120923
-0.120294
-0.0789965
-0.0635015
-0.0635219
-0.063522
-0.0635207
-0.0635166
-0.0635159
-0.0635142
-0.0635125
-0.0635115
-0.06351
-0.0635079
-0.0635063
-0.0635052
-0.0635036
-0.063503
-0.0635018
-0.0635009
-0.0635
-0.0634996
-0.0634989
-0.063497
-0.0634973
-0.0634971
-0.0634966
-0.0634964
-0.0634994
-0.0634981
-0.0634992
-0.0634986
-0.0634992
-0.0634993
-0.0634999
-0.0634993
-0.0635
-0.0635001
-0.063499
-0.0634995
-0.0634989
-0.0635004
-0.0635003
-0.0635005
-0.063501
-0.0635022
-0.0635016
-0.0635021
-0.0635011
-0.063493
-0.063547
-0.0596105
-0.0546675
-0.0297741
-0.0288746
-0.0289215
-0.0289206
-0.0289183
-0.0289165
-0.0289163
-0.0289155
-0.0289139
-0.0289127
-0.0289129
-0.028912
-0.0289119
-0.0289104
-0.0289097
-0.0289088
-0.0289089
-0.0289084
-0.0289075
-0.0289077
-0.0289072
-0.0289071
-0.0289066
-0.0289063
-0.0289063
-0.0289082
-0.0289095
-0.0289103
-0.0289107
-0.0289116
-0.0289113
-0.0289114
-0.0289118
-0.0289115
-0.0289117
-0.0289117
-0.0289124
-0.028912
-0.0289123
-0.0289125
-0.0289128
-0.0289132
-0.0289131
-0.0289132
-0.0289137
-0.0289133
-0.0289118
-0.0289167
-0.0285896
-0.02811
-0.0125133
-0.00866031
-0.00886899
-0.00886925
-0.00886893
-0.00886783
-0.0088671
-0.00886612
-0.00886711
-0.00886516
-0.0088638
-0.00886362
-0.00886442
-0.00886297
-0.00886294
-0.00886238
-0.00886137
-0.00886128
-0.00886105
-0.00886105
-0.00886069
-0.00885997
-0.00886015
-0.00886006
-0.0088598
-0.00885858
-0.00886378
-0.00886474
-0.00886594
-0.00886632
-0.00886611
-0.00886663
-0.00886597
-0.00886619
-0.00886579
-0.00886602
-0.00886585
-0.00886602
-0.00886675
-0.00886599
-0.0088662
-0.00886576
-0.0088662
-0.00886686
-0.00886639
-0.00886597
-0.00886526
-0.00885577
-0.00875501
-0.00691531
-0.00629998
0.000303043
-0.000152463
-0.000181703
-0.000182538
-0.000180926
-0.000181636
-0.000181309
-0.000181389
-0.000181242
-0.0001811
-0.000181714
-0.000181961
-0.000180519
-0.000180465
-0.000181159
-0.000181211
-0.000181047
-0.000180963
-0.000180983
-0.000180757
-0.00018085
-0.000180413
-0.000181797
-0.000181163
-0.000181433
-0.000184984
-0.000184569
-0.000188822
-0.000188948
-0.000189449
-0.000189042
-0.000190149
-0.000190153
-0.000189379
-0.000189981
-0.000189966
-0.000189281
-0.000189504
-0.000189735
-0.000190702
-0.000190513
-0.000190209
-0.000190744
-0.000190844
-0.000191246
-0.000191314
-0.000191023
-0.000177974
-0.000220511
0.000117688
0.00353139
0.00312894
0.00294161
0.00294245
0.0029419
0.00294275
0.0029421
0.00294203
0.00294205
0.00294179
0.00294135
0.00294131
0.00294068
0.00294065
0.00294074
0.00294117
0.00294082
0.00294074
0.00294057
0.00294033
0.00294015
0.00293972
0.00294012
0.00293922
0.00293926
0.0029387
0.0029372
0.00293435
0.00293399
0.00293452
0.00293313
0.00293354
0.00293337
0.00293268
0.00293225
0.00293292
0.00293209
0.00293294
0.00293222
0.00293271
0.0029326
0.00293182
0.00293246
0.00293184
0.00293167
0.00293138
0.00293352
0.00293478
0.00315598
0.00408712
0.00327589
0.00319622
0.00251462
0.00250707
0.00250598
0.00250625
0.00250616
0.00250534
0.00250423
0.00250431
0.00250347
0.0025034
0.0025028
0.00250288
0.00250242
0.00250199
0.00250077
0.00250078
0.00249997
0.00250068
0.00250019
0.00249969
0.00249874
0.00249828
0.00249779
0.00249909
0.00249408
0.00250285
0.00250002
0.00250024
0.00249975
0.00249895
0.00249878
0.00249932
0.00249892
0.00249817
0.00249812
0.00249787
0.00249725
0.00249689
0.00249704
0.00249603
0.00249596
0.00249654
0.00249609
0.00249579
0.00249558
0.00249386
0.0025166
0.00243008
0.00261347
0.00219015
0.00077218
0.000672094
0.000673492
0.000673456
0.000672381
0.00067246
0.000670861
0.000671109
0.000670754
0.000669601
0.000668905
0.00066852
0.000668687
0.000667401
0.000667131
0.000666931
0.000666864
0.000665983
0.000665542
0.000664943
0.000664702
0.000663581
0.000663119
0.000663473
0.000663054
0.000678664
0.000675309
0.000680169
0.000680288
0.000679006
0.000678826
0.000678226
0.000677614
0.000678291
0.000677752
0.000677784
0.000676836
0.000676729
0.000676499
0.000676055
0.000675972
0.000675525
0.000675228
0.000675359
0.00067504
0.000675659
0.000667376
0.000865105
0.0012392
0.000592268
-0.00107186
-0.00156582
-0.00155594
-0.00155732
-0.00155831
-0.00155846
-0.0015597
-0.00155995
-0.00156066
-0.00156144
-0.00156174
-0.00156241
-0.00156268
-0.00156296
-0.00156361
-0.0015641
-0.00156421
-0.00156501
-0.00156577
-0.00156553
-0.00156623
-0.00156672
-0.00156709
-0.00156778
-0.00156698
-0.00156041
-0.00154532
-0.00153768
-0.00153607
-0.00153711
-0.00153679
-0.00153693
-0.00153811
-0.00153796
-0.00153836
-0.00153837
-0.00153862
-0.00153943
-0.00153988
-0.00154021
-0.0015399
-0.00154045
-0.00154028
-0.00154089
-0.00154114
-0.00154211
-0.00154314
-0.00152677
-0.00157174
-0.00152255
-0.00247244
-0.00366989
-0.0036797
-0.00367875
-0.00367905
-0.00368001
-0.00368082
-0.00368115
-0.00368202
-0.00368277
-0.00368255
-0.00368333
-0.00368335
-0.00368368
-0.00368442
-0.00368484
-0.00368558
-0.00368514
-0.00368576
-0.00368612
-0.00368642
-0.0036871
-0.00368762
-0.00368854
-0.00368802
-0.00368851
-0.00365153
-0.00364687
-0.00363829
-0.00363833
-0.00363854
-0.00363922
-0.00363854
-0.00363987
-0.00363987
-0.00364006
-0.00363961
-0.00364085
-0.00364121
-0.00364115
-0.00364125
-0.00364201
-0.0036423
-0.00364206
-0.0036431
-0.00364341
-0.00364378
-0.00364768
-0.00354371
-0.00360628
-0.00385655
-0.00523355
-0.00544652
-0.00542642
-0.00542734
-0.00542833
-0.00542899
-0.00542941
-0.0054301
-0.00543052
-0.00543041
-0.00543113
-0.0054314
-0.00543195
-0.00543187
-0.00543245
-0.00543304
-0.00543321
-0.00543372
-0.00543358
-0.00543428
-0.00543502
-0.00543436
-0.00543519
-0.00543532
-0.00543486
-0.00541215
-0.00541985
-0.00539642
-0.00539539
-0.0053957
-0.00539546
-0.00539543
-0.00539567
-0.00539654
-0.0053969
-0.00539751
-0.00539636
-0.00539699
-0.00539736
-0.00539808
-0.00539826
-0.00539801
-0.00539821
-0.00539843
-0.00539893
-0.00539902
-0.00539713
-0.00538973
-0.00545198
-0.00546656
-0.00598324
-0.00661575
-0.00656277
-0.00656104
-0.00656152
-0.00656257
-0.00656253
-0.0065631
-0.00656387
-0.0065637
-0.00656372
-0.00656447
-0.00656434
-0.00656432
-0.00656443
-0.00656481
-0.0065658
-0.00656559
-0.00656601
-0.00656592
-0.00656605
-0.00656657
-0.00656644
-0.00656729
-0.00656652
-0.0065659
-0.0065604
-0.00654581
-0.00653548
-0.00653539
-0.00653565
-0.00653544
-0.00653618
-0.00653622
-0.00653635
-0.00653682
-0.00653691
-0.00653707
-0.00653721
-0.00653759
-0.00653735
-0.00653747
-0.00653787
-0.00653784
-0.00653828
-0.0065376
-0.00653848
-0.00653117
-0.00646548
-0.00667428
-0.00666814
-0.00725474
-0.00723558
-0.00721194
-0.0072124
-0.00721297
-0.00721344
-0.00721392
-0.00721438
-0.00721388
-0.00721411
-0.00721407
-0.00721443
-0.00721447
-0.00721452
-0.00721478
-0.00721491
-0.00721503
-0.00721468
-0.00721509
-0.00721465
-0.00721496
-0.00721536
-0.00721545
-0.00721585
-0.00721617
-0.00719807
-0.00724303
-0.00721502
-0.00721663
-0.00721495
-0.00721581
-0.00721578
-0.007216
-0.00721578
-0.00721606
-0.00721691
-0.00721664
-0.00721615
-0.00721674
-0.00721718
-0.00721655
-0.00721621
-0.00721701
-0.00721687
-0.00721711
-0.00721651
-0.00722006
-0.00721317
-0.00727943
-0.0073084
-0.00727122
-0.00737827
-0.00729462
-0.00729268
-0.00729372
-0.00729413
-0.00729448
-0.0072946
-0.00729389
-0.00729399
-0.00729406
-0.00729369
-0.00729372
-0.00729373
-0.00729385
-0.00729384
-0.00729354
-0.00729409
-0.00729357
-0.00729379
-0.00729379
-0.00729329
-0.00729374
-0.00729366
-0.00729391
-0.00729262
-0.00735435
-0.00733657
-0.00734305
-0.00734206
-0.00734216
-0.00734242
-0.00734175
-0.0073421
-0.00734168
-0.00734201
-0.00734236
-0.00734258
-0.00734244
-0.00734248
-0.00734223
-0.0073418
-0.00734236
-0.0073425
-0.00734269
-0.00734167
-0.00734201
-0.00733817
-0.00728727
-0.00747208
-0.0073334
-0.00719949
-0.00704523
-0.00702421
-0.00702461
-0.00702504
-0.00702446
-0.00702554
-0.00702437
-0.00702464
-0.00702478
-0.00702404
-0.00702406
-0.00702435
-0.00702408
-0.00702397
-0.00702354
-0.00702353
-0.00702385
-0.0070234
-0.00702343
-0.00702269
-0.00702315
-0.00702275
-0.00702303
-0.00702387
-0.0070331
-0.00709067
-0.00709844
-0.00710984
-0.00710869
-0.00710893
-0.00710918
-0.00710839
-0.0071093
-0.00710879
-0.00710891
-0.00710872
-0.0071079
-0.00710834
-0.00710802
-0.00710836
-0.00710822
-0.00710809
-0.00710801
-0.0071088
-0.00710841
-0.00711451
-0.00710946
-0.00715793
-0.00718628
-0.00675313
-0.00652319
-0.00644145
-0.00644052
-0.00644006
-0.00644053
-0.00644081
-0.00644019
-0.00644005
-0.00643985
-0.00643957
-0.00643912
-0.0064391
-0.00643853
-0.00643856
-0.00643861
-0.00643847
-0.00643872
-0.00643793
-0.00643765
-0.00643739
-0.00643742
-0.00643727
-0.00643755
-0.00643698
-0.00643519
-0.00654272
-0.00654115
-0.00660055
-0.00660191
-0.00660169
-0.00660186
-0.00660154
-0.00660183
-0.00660204
-0.00660122
-0.0066018
-0.00660068
-0.00660094
-0.00660114
-0.00660066
-0.00660049
-0.00660102
-0.00660035
-0.00660085
-0.00660049
-0.00660229
-0.0066039
-0.00656669
-0.00668486
-0.00649137
-0.00591575
-0.00573242
-0.00571988
-0.00571869
-0.00571934
-0.00571945
-0.00571918
-0.00571885
-0.00571864
-0.00571814
-0.00571772
-0.00571722
-0.00571729
-0.00571686
-0.00571606
-0.00571618
-0.00571603
-0.00571581
-0.00571502
-0.00571534
-0.00571526
-0.00571472
-0.00571488
-0.00571437
-0.00571637
-0.0057583
-0.00578296
-0.00589213
-0.00592713
-0.00592799
-0.00592762
-0.00592703
-0.00592722
-0.00592697
-0.0059268
-0.00592619
-0.005926
-0.00592641
-0.00592584
-0.00592609
-0.0059259
-0.00592522
-0.00592485
-0.00592524
-0.00592497
-0.00592553
-0.00592701
-0.00592428
-0.00595204
-0.00597461
-0.00537471
-0.00502864
-0.00497376
-0.0049742
-0.00497413
-0.0049747
-0.00497341
-0.00497302
-0.00497284
-0.00497255
-0.00497199
-0.00497172
-0.00497147
-0.0049716
-0.0049709
-0.00497089
-0.00497033
-0.00497068
-0.00497009
-0.00497006
-0.00496968
-0.00496985
-0.00496943
-0.00496882
-0.00496825
-0.00496844
-0.00505243
-0.00509588
-0.00524277
-0.00524855
-0.00524823
-0.00524856
-0.00524839
-0.00524806
-0.00524825
-0.00524817
-0.00524778
-0.00524789
-0.00524692
-0.00524708
-0.00524708
-0.00524677
-0.00524663
-0.00524688
-0.00524614
-0.00524633
-0.00524845
-0.00524971
-0.00522448
-0.00528433
-0.00508978
-0.00438264
-0.00426417
-0.00426193
-0.0042605
-0.00426132
-0.00425916
-0.00425882
-0.00425853
-0.0042577
-0.00425774
-0.0042573
-0.0042576
-0.00425687
-0.00425592
-0.00425602
-0.00425577
-0.00425517
-0.00425496
-0.00425487
-0.00425415
-0.00425482
-0.00425368
-0.00425339
-0.00425298
-0.00425693
-0.00431521
-0.00424309
-0.00450223
-0.00456139
-0.00456163
-0.00456208
-0.00456139
-0.0045613
-0.00456115
-0.00456033
-0.00456025
-0.0045604
-0.00456003
-0.00455902
-0.00455944
-0.00455949
-0.00455923
-0.00455877
-0.00455883
-0.00455844
-0.00455723
-0.00455621
-0.00455496
-0.004567
-0.00458267
-0.00401987
-0.00375182
-0.00374657
-0.00374698
-0.00374734
-0.00374358
-0.00374341
-0.00374303
-0.00374315
-0.00374271
-0.00374258
-0.00374207
-0.00374165
-0.00374184
-0.00374134
-0.00374114
-0.00374077
-0.00374031
-0.00373988
-0.00373965
-0.00374
-0.00373959
-0.00373933
-0.00373954
-0.00373963
-0.00374196
-0.00371624
-0.00382766
-0.00405645
-0.00406611
-0.00406559
-0.00406515
-0.00406509
-0.00406456
-0.00406461
-0.00406458
-0.00406436
-0.00406437
-0.0040642
-0.00406354
-0.00406432
-0.00406335
-0.00406361
-0.004063
-0.00406274
-0.0040631
-0.00406249
-0.00406182
-0.00404605
-0.00406265
-0.0039078
-0.00332727
-0.00334455
-0.00335629
-0.00335479
-0.00335123
-0.00335129
-0.00335066
-0.00335012
-0.00335012
-0.00334959
-0.00334897
-0.00334892
-0.00334852
-0.00334842
-0.00334771
-0.00334781
-0.00334749
-0.00334724
-0.00334662
-0.00334688
-0.00334648
-0.00334632
-0.00334612
-0.00334484
-0.00334733
-0.00338738
-0.00316229
-0.00356406
-0.00363044
-0.00362998
-0.00362957
-0.00362903
-0.00362911
-0.00362899
-0.0036288
-0.00362874
-0.00362823
-0.00362805
-0.00362825
-0.00362769
-0.00362793
-0.0036274
-0.00362722
-0.00362744
-0.00362701
-0.00362594
-0.00362593
-0.00362398
-0.00362676
-0.00363521
-0.00325296
-0.00321175
-0.0032686
-0.00326958
-0.00326862
-0.0032684
-0.00326745
-0.00326747
-0.00326728
-0.00326753
-0.00326682
-0.00326737
-0.00326699
-0.00326649
-0.00326685
-0.00326565
-0.00326612
-0.00326608
-0.00326594
-0.00326549
-0.00326615
-0.00326537
-0.00326494
-0.00326462
-0.00326835
-0.00327142
-0.0030672
-0.00324511
-0.00350573
-0.00351505
-0.00351456
-0.00351457
-0.00351427
-0.00351426
-0.00351389
-0.00351382
-0.00351359
-0.00351409
-0.00351367
-0.00351388
-0.00351341
-0.00351295
-0.0035129
-0.00351278
-0.00351244
-0.00351269
-0.0035112
-0.00351043
-0.00350123
-0.00348501
-0.00340109
-0.00312237
-0.00332811
-0.00335308
-0.00335556
-0.00335487
-0.00335452
-0.00335472
-0.00335457
-0.00335389
-0.00335388
-0.00335353
-0.00335372
-0.00335331
-0.00335274
-0.00335313
-0.00335298
-0.00335332
-0.00335278
-0.00335252
-0.00335256
-0.00335249
-0.0033516
-0.00335178
-0.00335185
-0.00334917
-0.00334336
-0.00296711
-0.00343354
-0.00349375
-0.00349359
-0.00349394
-0.00349306
-0.00349349
-0.00349303
-0.00349274
-0.00349273
-0.00349245
-0.00349269
-0.00349188
-0.00349204
-0.00349205
-0.00349218
-0.00349153
-0.00349111
-0.0034913
-0.00349245
-0.00349244
-0.00349147
-0.00348738
-0.00348752
-0.0033716
-0.00364715
-0.00377513
-0.00377029
-0.00377095
-0.00377059
-0.00377056
-0.00377026
-0.00377003
-0.00377038
-0.00377018
-0.00377073
-0.00376986
-0.00377031
-0.00377062
-0.00376996
-0.00377004
-0.00376982
-0.00376976
-0.0037703
-0.00377032
-0.00377013
-0.00377007
-0.00376905
-0.00377475
-0.00377818
-0.00338901
-0.00359675
-0.00382097
-0.00382576
-0.00382558
-0.00382598
-0.00382551
-0.00382541
-0.00382571
-0.00382579
-0.00382534
-0.00382527
-0.00382533
-0.00382523
-0.00382514
-0.00382524
-0.00382506
-0.0038251
-0.00382543
-0.00382484
-0.00382424
-0.0038244
-0.00381898
-0.00377422
-0.00378729
-0.00390715
-0.00432835
-0.00427613
-0.00427607
-0.00427602
-0.00427602
-0.00427632
-0.00427587
-0.00427629
-0.00427604
-0.0042761
-0.00427569
-0.00427589
-0.00427593
-0.00427615
-0.00427613
-0.00427614
-0.00427555
-0.00427579
-0.00427558
-0.00427615
-0.00427607
-0.00427559
-0.00427658
-0.0042671
-0.00420809
-0.00374759
-0.00416331
-0.0041996
-0.00419918
-0.004199
-0.00419851
-0.00419894
-0.00419947
-0.00419883
-0.00419863
-0.00419904
-0.00419865
-0.00419877
-0.0041982
-0.00419839
-0.00419867
-0.00419856
-0.00419854
-0.00419873
-0.00419905
-0.00419997
-0.00419882
-0.00419063
-0.00418067
-0.00437262
-0.00500861
-0.00476696
-0.00476657
-0.00476693
-0.00476654
-0.00476647
-0.00476665
-0.00476681
-0.00476681
-0.0047667
-0.00476686
-0.00476659
-0.00476691
-0.00476691
-0.00476676
-0.00476689
-0.00476682
-0.00476682
-0.00476693
-0.00476678
-0.00476635
-0.00476626
-0.00476597
-0.00476871
-0.00477169
-0.00423582
-0.004425
-0.00454665
-0.00454556
-0.0045456
-0.00454578
-0.00454568
-0.00454526
-0.00454531
-0.00454554
-0.00454522
-0.00454516
-0.00454503
-0.00454492
-0.00454485
-0.0045448
-0.00454449
-0.00454468
-0.00454446
-0.00454436
-0.00454427
-0.00454502
-0.00454334
-0.00446928
-0.00460041
-0.00515243
-0.00430058
-0.00429603
-0.00429572
-0.0042951
-0.00429519
-0.00429521
-0.00429487
-0.00429501
-0.0042947
-0.00429454
-0.0042943
-0.00429409
-0.00429385
-0.00429351
-0.00429324
-0.00429295
-0.00429286
-0.00429272
-0.00429196
-0.00429222
-0.00429171
-0.00429156
-0.00429255
-0.00427637
-0.0041536
-0.00368955
-0.00392651
-0.00392169
-0.00392176
-0.00392115
-0.00392168
-0.00392093
-0.00392086
-0.00392072
-0.00391997
-0.00391995
-0.00392001
-0.00391976
-0.00391933
-0.00391947
-0.00391883
-0.00391874
-0.00391867
-0.00391825
-0.003918
-0.00391881
-0.00391758
-0.00390454
-0.00388243
-0.00439919
-0.00319184
-0.00317136
-0.00317129
-0.00317172
-0.00317231
-0.00317245
-0.0031726
-0.00317253
-0.0031726
-0.00317304
-0.00317306
-0.00317318
-0.00317319
-0.00317313
-0.00317356
-0.00317369
-0.0031738
-0.00317414
-0.00317418
-0.00317395
-0.00317386
-0.00317398
-0.00317414
-0.00317156
-0.00317321
-0.00251334
-0.00263758
-0.00262892
-0.00262433
-0.00262444
-0.00262456
-0.00262493
-0.00262446
-0.00262468
-0.00262493
-0.00262508
-0.00262454
-0.00262514
-0.00262544
-0.00262494
-0.00262514
-0.00262552
-0.00262526
-0.00262543
-0.0026253
-0.00262627
-0.00262691
-0.00262923
-0.0025236
-0.00278903
-0.00254371
-0.0024788
-0.00247646
-0.0024765
-0.00247668
-0.00247743
-0.00247745
-0.00247779
-0.00247835
-0.00247858
-0.00247881
-0.002479
-0.00247943
-0.0024798
-0.00247989
-0.00248023
-0.00248025
-0.00248063
-0.00248088
-0.0024812
-0.00248181
-0.00248138
-0.00248154
-0.00248366
-0.00246124
-0.00224349
-0.00187654
-0.00188393
-0.00184363
-0.00184392
-0.00184454
-0.00184464
-0.00184495
-0.00184505
-0.00184522
-0.00184552
-0.00184577
-0.00184591
-0.00184636
-0.00184663
-0.00184666
-0.00184707
-0.00184721
-0.00184746
-0.00184752
-0.00184746
-0.00184771
-0.00184761
-0.00183002
-0.00179569
-0.00142989
-0.00129989
-0.00128494
-0.0012852
-0.00128512
-0.00128539
-0.00128565
-0.0012856
-0.00128567
-0.00128557
-0.00128563
-0.00128565
-0.00128562
-0.00128584
-0.00128563
-0.00128579
-0.00128568
-0.00128573
-0.00128571
-0.0012858
-0.00128586
-0.00128558
-0.00128581
-0.00128607
-0.0012772
-0.00127427
-0.000596304
-0.000628898
-0.000503624
-0.000496544
-0.000496659
-0.0004967
-0.000496772
-0.000496803
-0.00049686
-0.000496887
-0.00049697
-0.000497138
-0.000496932
-0.000496843
-0.000497025
-0.000497075
-0.000497032
-0.000497048
-0.00049694
-0.000496901
-0.00049763
-0.000498162
-0.000504136
-0.000363807
9.63094e-05
0.000269333
0.000319889
0.000320653
0.000320742
0.000320763
0.000320287
0.000320391
0.000320189
0.000320338
0.000320274
0.000320246
0.000320497
0.000320411
0.000320412
0.000320507
0.000320528
0.000320343
0.000320432
0.000320537
0.000320562
0.000320482
0.000320537
0.000321036
0.00032024
0.000336384
0.000639837
0.000829036
0.0010097
0.00106776
0.0010682
0.00106828
0.00106801
0.00106802
0.0010681
0.00106817
0.00106806
0.00106816
0.00106802
0.00106794
0.00106819
0.00106829
0.00106809
0.00106817
0.00106807
0.00106819
0.00106837
0.00106879
0.00106882
0.00109254
0.00103751
0.00117152
0.00127525
0.00128235
0.00128217
0.00128207
0.0012817
0.0012814
0.00128146
0.00128128
0.0012812
0.00128134
0.00128124
0.00128113
0.00128119
0.00128116
0.00128116
0.00128113
0.0012814
0.00128129
0.00128117
0.00128122
0.00128166
0.00128146
0.00128084
0.00129233
0.00130218
0.00182175
0.00187548
0.00207322
0.00208095
0.00208103
0.00208064
0.00208064
0.00208062
0.00208067
0.00208063
0.00208047
0.00208073
0.00208056
0.00208048
0.00208046
0.00208057
0.00208063
0.00208048
0.00208063
0.00208059
0.00208028
0.00207997
0.00206888
0.00182655
0.00187112
0.00200649
0.00203666
0.00203498
0.00203493
0.00203483
0.00203451
0.0020345
0.0020343
0.00203433
0.00203417
0.00203405
0.00203406
0.00203398
0.00203399
0.00203393
0.00203386
0.00203386
0.00203395
0.00203382
0.00203404
0.00203384
0.00203345
0.00203408
0.00203353
0.00203349
0.00234873
0.00233362
0.00263636
0.00269505
0.00269558
0.00269541
0.00269527
0.00269513
0.0026951
0.00269518
0.00269514
0.00269507
0.00269484
0.00269489
0.00269504
0.00269488
0.00269479
0.0026949
0.00269467
0.00269488
0.00269494
0.0026952
0.00269427
0.00265228
0.00264988
0.0027466
0.00281253
0.00281027
0.00280996
0.0028099
0.00280924
0.00280931
0.00280916
0.0028092
0.00280915
0.00280898
0.00280896
0.00280888
0.00280871
0.00280882
0.00280861
0.00280861
0.0028086
0.00280858
0.00280839
0.00280866
0.00280893
0.00280868
0.00280756
0.00281901
0.00283208
0.00306697
0.00318184
0.00339664
0.00340328
0.00340318
0.00340283
0.00340292
0.00340284
0.00340267
0.00340243
0.00340283
0.00340243
0.00340253
0.00340253
0.00340246
0.0034025
0.00340225
0.0034023
0.00340221
0.00340221
0.00340224
0.00340235
0.00340657
0.00340086
0.00342708
0.00350967
0.00351308
0.00350934
0.00350938
0.00350885
0.00350867
0.00350866
0.0035087
0.00350848
0.0035084
0.00350837
0.00350806
0.00350826
0.0035081
0.0035081
0.00350804
0.00350791
0.00350788
0.00350782
0.00350781
0.0035079
0.00350736
0.00350745
0.0035079
0.00349522
0.00373144
0.00353352
0.00389324
0.00394148
0.00394167
0.00394163
0.00394151
0.00394139
0.00394126
0.00394125
0.00394128
0.00394122
0.00394116
0.00394119
0.00394107
0.00394098
0.00394075
0.00394078
0.00394086
0.00394068
0.00394072
0.00394098
0.00393882
0.00393366
0.00393252
0.00397988
0.00399502
0.00398207
0.00398187
0.00398161
0.00398144
0.00398124
0.00398105
0.00398098
0.00398083
0.00398093
0.00398093
0.00398075
0.00398074
0.00398075
0.00398065
0.00398061
0.00398048
0.00398039
0.00398045
0.00398056
0.00398056
0.00398072
0.00397943
0.00398853
0.00400172
0.00391175
0.00406169
0.00424983
0.00425391
0.00425398
0.00425364
0.00425363
0.00425353
0.0042536
0.00425339
0.00425346
0.0042533
0.00425325
0.00425313
0.00425319
0.00425325
0.00425315
0.00425293
0.00425303
0.00425278
0.00425304
0.0042546
0.00426811
0.00426025
0.0042649
0.00427675
0.00424775
0.00424273
0.00424264
0.00424216
0.00424232
0.00424204
0.00424215
0.00424188
0.00424204
0.00424188
0.00424206
0.00424177
0.00424185
0.00424177
0.00424152
0.00424175
0.00424167
0.00424168
0.00424143
0.00424177
0.00424104
0.00424064
0.00424263
0.00422516
0.00431603
0.00399149
0.00433836
0.00437162
0.00437134
0.00437138
0.00437098
0.00437113
0.00437121
0.00437116
0.00437089
0.00437079
0.00437071
0.00437077
0.00437068
0.00437064
0.00437059
0.00437062
0.00437053
0.00437048
0.00437036
0.00436904
0.00437209
0.00436279
0.00436292
0.00434723
0.00429871
0.00427594
0.00427566
0.00427547
0.00427534
0.00427548
0.00427547
0.00427529
0.00427538
0.00427534
0.00427535
0.00427527
0.00427521
0.00427524
0.00427503
0.00427505
0.00427518
0.00427499
0.00427496
0.00427499
0.00427474
0.00427518
0.00427405
0.0042813
0.00428981
0.00391388
0.00407361
0.00421229
0.00421452
0.00421431
0.00421403
0.00421404
0.00421368
0.00421401
0.0042137
0.00421363
0.00421362
0.00421375
0.00421378
0.0042135
0.00421368
0.00421344
0.00421354
0.00421348
0.00421339
0.00421367
0.00421266
0.00422869
0.00421319
0.00419544
0.00411808
0.00405399
0.00404918
0.0040493
0.00404903
0.0040491
0.00404904
0.00404902
0.00404893
0.00404906
0.00404895
0.00404891
0.00404911
0.00404873
0.00404877
0.00404891
0.00404879
0.00404894
0.00404883
0.00404893
0.00404907
0.00404839
0.00404794
0.00405156
0.00403659
0.00396384
0.00357839
0.00385815
0.00387681
0.00387659
0.00387649
0.00387637
0.00387633
0.00387643
0.00387605
0.00387621
0.00387612
0.00387591
0.0038762
0.00387608
0.00387599
0.003876
0.00387601
0.00387577
0.00387597
)
;

boundaryField
{
    movingWall
    {
        type            zeroGradient;
    }
    fixedWalls
    {
        type            zeroGradient;
    }
    frontAndBack
    {
        type            empty;
    }
}

