/*--------------------------------*- C++ -*----------------------------------*\
| =========                 |                                                 |
| \\      /  F ield         | OpenFOAM: The Open Source CFD Toolbox           |
|  \\    /   O peration     | Version:  v2006                                 |
|   \\  /    A nd           | Website:  www.openfoam.com                      |
|    \\/     M anipulation  |                                                 |
\*---------------------------------------------------------------------------*/
FoamFile
{
    version     2.0;
    format      ascii;
    class       volScalarField;
    location    "5";
    object      p;
}
// * * * * * * * * * * * * * * * * * * * * * * * * * * * * * * * * * * * * * //

dimensions      [1 -1 -2 0 0 0 0];


internalField   nonuniform List<scalar> 
52500
(
30462.9
30462.7
30462.4
30461.9
30461.2
30460.3
30459.3
30458.1
30456.8
30455.2
30453.6
30451.7
30449.8
30447.6
30445.4
30443
30440.4
30437.7
30434.9
30432
30428.9
30425.8
30422.5
30419.1
30415.7
30412.1
30408.5
30404.7
30401
30397.1
30393.2
30389.3
30385.3
30381.3
30377.2
30373.2
30369.1
30365
30360.9
30356.9
30352.9
30348.8
30344.9
30340.9
30337.1
30333.3
30329.5
30325.8
30322.3
30318.8
30315.4
30312.1
30308.9
30305.9
30303
30300.2
30297.6
30295.2
30292.9
30290.8
30288.8
30287.1
30285.5
30284.1
30282.9
30282
30281.3
30280.8
30280.5
30280.4
30280.6
30281.1
30281.8
30282.8
30284
30285.5
30287.3
30289.3
30291.6
30294.2
30297.1
30300.3
30303.8
30307.6
30311.7
30316.1
30320.8
30325.8
30331.1
30336.8
30342.7
30349
30355.6
30362.4
30369.7
30377.2
30385
30393.2
30401.6
30410.4
30419.5
30428.9
30438.6
30448.6
30458.9
30469.5
30480.4
30491.7
30503.1
30514.9
30527
30539.3
30552
30564.9
30578
30591.4
30605.1
30619
30633.2
30647.6
30662.2
30677.1
30692.2
30707.5
30723
30738.7
30754.6
30770.7
30786.9
30803.3
30819.9
30836.7
30853.6
30870.6
30887.8
30905.1
30922.5
30940
30957.7
30975.4
30993.2
31011.1
31029
31047
31065.1
31083.2
31101.3
31119.5
31137.7
31155.9
31174.1
31192.3
31210.5
31228.7
31246.8
31265
31283
31301.1
31319
31336.9
31354.8
31372.5
31390.2
31407.8
31425.3
31442.7
31460
31477.1
31494.2
31511.1
31527.8
31544.5
31561
31577.3
31593.5
31609.5
31625.4
31641
31656.6
31671.9
31687
31702
31716.8
31731.3
31745.7
31759.9
31773.8
31787.5
31801
31814.3
31827.4
31840.3
31853
31865.4
31877.6
31889.5
31901.3
31912.8
31924
31935
31945.8
31956.4
31966.7
31976.7
31986.5
31996.1
32005.4
32014.5
32023.3
32031.9
32040.2
32048.3
32056.1
32063.7
32071
32078.1
32084.9
32091.5
32097.8
32103.9
32109.8
32115.4
32120.7
32125.8
32130.7
32135.3
32139.7
32143.9
32147.8
32151.4
32154.9
32158.1
32161.1
32163.8
32166.3
32168.6
32170.7
32172.5
32174.1
32175.5
32176.7
32177.7
32178.4
32178.9
32179.3
32179.4
32179.3
32179
32178.5
32177.9
32177
32175.9
32174.7
32173.2
32171.6
32169.8
32167.8
32165.7
32163.3
32160.9
32158.2
32155.4
32152.4
32149.3
32146
32142.6
32139
32135.3
32131.5
32127.5
32123.4
32119.2
32114.8
32110.4
32105.8
32101.1
32096.3
32091.5
32086.5
32081.5
32076.3
32071.1
32065.8
32060.5
32055.1
32049.6
32044
32038.5
32032.8
32027.2
32021.5
32015.7
32010
32004.2
31998.4
31992.6
31986.8
31981
31975.2
31969.4
31963.7
31957.9
31952.2
31946.6
31940.9
31935.3
31929.8
31924.3
31918.8
31913.4
31908.1
31902.8
31897.7
31892.6
31887.5
31882.6
31877.8
31873
31868.4
31863.9
31859.5
31855.2
31851
31846.9
31843
31839.1
31835.4
31831.9
31828.5
31825.2
31822
31819
31816.2
31813.5
31810.9
31808.5
31806.2
31804.1
31802.2
31800.4
31798.8
31797.3
31796
31794.8
31793.8
31793
31792.4
31791.9
31791.5
31791.4
30005.5
30005.3
30005
30004.5
30003.8
30002.9
30001.9
30000.7
29999.3
29997.8
29996.1
29994.3
29992.3
29990.2
29987.9
29985.5
29982.9
29980.2
29977.4
29974.5
29971.4
29968.2
29964.9
29961.6
29958.1
29954.5
29950.9
29947.1
29943.3
29939.5
29935.6
29931.6
29927.6
29923.5
29919.5
29915.4
29911.3
29907.2
29903.1
29899
29895
29890.9
29886.9
29883
29879.1
29875.3
29871.5
29867.8
29864.2
29860.7
29857.3
29854
29850.8
29847.7
29844.8
29842
29839.4
29836.9
29834.6
29832.5
29830.5
29828.7
29827.1
29825.7
29824.5
29823.6
29822.8
29822.3
29822
29821.9
29822.1
29822.6
29823.3
29824.2
29825.4
29826.9
29828.7
29830.7
29833
29835.6
29838.5
29841.7
29845.2
29848.9
29853
29857.4
29862.1
29867.1
29872.4
29878.1
29884
29890.3
29896.8
29903.7
29910.9
29918.4
29926.3
29934.4
29942.9
29951.7
29960.8
29970.2
29979.9
29989.9
30000.2
30010.8
30021.8
30033
30044.5
30056.3
30068.3
30080.7
30093.3
30106.2
30119.4
30132.8
30146.5
30160.5
30174.6
30189.1
30203.7
30218.6
30233.7
30249
30264.5
30280.2
30296.2
30312.3
30328.5
30345
30361.6
30378.4
30395.3
30412.3
30429.5
30446.9
30464.3
30481.8
30499.5
30517.2
30535
30552.9
30570.9
30588.9
30607
30625.2
30643.3
30661.5
30679.7
30698
30716.2
30734.4
30752.6
30770.8
30789
30807.1
30825.2
30843.3
30861.3
30879.2
30897
30914.8
30932.5
30950.1
30967.6
30985
31002.3
31019.5
31036.5
31053.5
31070.2
31086.9
31103.4
31119.7
31135.9
31152
31167.8
31183.5
31199.1
31214.4
31229.5
31244.5
31259.3
31273.8
31288.2
31302.4
31316.4
31330.2
31343.8
31357.1
31370.2
31383.1
31395.8
31408.2
31420.4
31432.4
31444.1
31455.6
31466.9
31477.9
31488.7
31499.2
31509.5
31519.5
31529.4
31538.9
31548.2
31557.3
31566.1
31574.7
31583
31591.1
31598.9
31606.5
31613.8
31620.9
31627.7
31634.3
31640.6
31646.7
31652.6
31658.1
31663.5
31668.6
31673.5
31678.1
31682.5
31686.6
31690.5
31694.2
31697.6
31700.8
31703.7
31706.5
31709
31711.3
31713.3
31715.1
31716.7
31718.1
31719.3
31720.3
31721
31721.5
31721.8
31722
31721.9
31721.6
31721.1
31720.4
31719.5
31718.4
31717.2
31715.7
31714.1
31712.3
31710.3
31708.1
31705.8
31703.3
31700.6
31697.8
31694.8
31691.7
31688.4
31685
31681.4
31677.7
31673.9
31669.9
31665.8
31661.5
31657.2
31652.7
31648.2
31643.5
31638.7
31633.8
31628.9
31623.8
31618.7
31613.5
31608.2
31602.8
31597.4
31591.9
31586.4
31580.8
31575.1
31569.4
31563.7
31558
31552.2
31546.4
31540.6
31534.8
31529
31523.1
31517.3
31511.6
31505.8
31500
31494.3
31488.6
31483
31477.4
31471.8
31466.3
31460.8
31455.4
31450.1
31444.8
31439.6
31434.5
31429.5
31424.5
31419.7
31415
31410.3
31405.8
31401.3
31397
31392.8
31388.8
31384.8
31381
31377.3
31373.7
31370.3
31367
31363.8
31360.8
31358
31355.2
31352.7
31350.3
31348
31345.9
31343.9
31342.1
31340.5
31339
31337.7
31336.6
31335.6
31334.8
31334.1
31333.6
31333.3
31333.1
29548.5
29548.4
29548
29547.5
29546.8
29545.9
29544.9
29543.7
29542.3
29540.8
29539.1
29537.3
29535.3
29533.1
29530.8
29528.4
29525.8
29523.1
29520.2
29517.3
29514.2
29511
29507.7
29504.2
29500.7
29497.1
29493.4
29489.7
29485.9
29482
29478
29474
29470
29465.9
29461.8
29457.7
29453.5
29449.4
29445.3
29441.1
29437
29433
29428.9
29424.9
29421
29417.1
29413.3
29409.6
29405.9
29402.3
29398.9
29395.5
29392.3
29389.2
29386.2
29383.4
29380.7
29378.2
29375.9
29373.7
29371.7
29369.8
29368.2
29366.8
29365.5
29364.5
29363.7
29363.2
29362.8
29362.7
29362.9
29363.3
29363.9
29364.9
29366
29367.5
29369.2
29371.2
29373.5
29376.1
29378.9
29382.1
29385.5
29389.3
29393.4
29397.7
29402.4
29407.4
29412.7
29418.3
29424.2
29430.5
29437
29443.9
29451.1
29458.6
29466.5
29474.6
29483.1
29491.9
29501
29510.4
29520.1
29530.1
29540.4
29551.1
29562
29573.2
29584.7
29596.6
29608.7
29621
29633.7
29646.6
29659.8
29673.3
29687
29700.9
29715.2
29729.6
29744.3
29759.2
29774.4
29789.7
29805.3
29821
29837
29853.1
29869.4
29885.9
29902.6
29919.4
29936.4
29953.5
29970.7
29988.1
30005.6
30023.2
30040.9
30058.7
30076.5
30094.5
30112.5
30130.6
30148.7
30166.9
30185.1
30203.4
30221.7
30239.9
30258.2
30276.5
30294.8
30313
30331.2
30349.4
30367.6
30385.7
30403.7
30421.7
30439.6
30457.4
30475.1
30492.8
30510.3
30527.8
30545.1
30562.3
30579.4
30596.4
30613.2
30629.9
30646.4
30662.8
30679
30695.1
30711
30726.7
30742.3
30757.7
30772.8
30787.9
30802.7
30817.3
30831.6
30845.8
30859.8
30873.6
30887.1
30900.5
30913.6
30926.5
30939.2
30951.6
30963.8
30975.8
30987.5
30999
31010.3
31021.3
31032.1
31042.7
31053
31063
31072.8
31082.4
31091.7
31100.7
31109.6
31118.1
31126.4
31134.5
31142.3
31149.9
31157.2
31164.3
31171.1
31177.7
31184
31190.1
31195.9
31201.5
31206.8
31211.9
31216.8
31221.4
31225.7
31229.9
31233.7
31237.4
31240.8
31244
31246.9
31249.7
31252.1
31254.4
31256.4
31258.2
31259.8
31261.2
31262.4
31263.3
31264
31264.5
31264.8
31264.9
31264.8
31264.5
31264
31263.3
31262.4
31261.3
31260
31258.6
31256.9
31255.1
31253.1
31250.9
31248.6
31246.1
31243.4
31240.5
31237.5
31234.4
31231.1
31227.7
31224.1
31220.3
31216.5
31212.5
31208.4
31204.1
31199.8
31195.3
31190.7
31186
31181.2
31176.3
31171.3
31166.3
31161.1
31155.9
31150.6
31145.2
31139.7
31134.2
31128.7
31123.1
31117.4
31111.7
31106
31100.2
31094.4
31088.6
31082.8
31076.9
31071.1
31065.3
31059.4
31053.6
31047.8
31042
31036.3
31030.6
31024.9
31019.3
31013.7
31008.1
31002.7
30997.2
30991.9
30986.6
30981.4
30976.2
30971.2
30966.2
30961.4
30956.6
30951.9
30947.4
30942.9
30938.6
30934.4
30930.3
30926.3
30922.5
30918.8
30915.2
30911.7
30908.4
30905.3
30902.2
30899.4
30896.6
30894.1
30891.6
30889.4
30887.2
30885.3
30883.5
30881.8
30880.4
30879
30877.9
30876.9
30876.1
30875.4
30874.9
30874.6
30874.4
29092
29091.8
29091.5
29091
29090.3
29089.4
29088.3
29087.1
29085.7
29084.2
29082.5
29080.6
29078.6
29076.4
29074.1
29071.6
29069
29066.2
29063.3
29060.3
29057.2
29054
29050.6
29047.2
29043.6
29040
29036.2
29032.4
29028.5
29024.6
29020.6
29016.5
29012.4
29008.3
29004.1
28999.9
28995.7
28991.5
28987.3
28983.2
28979
28974.9
28970.7
28966.7
28962.7
28958.7
28954.9
28951.1
28947.3
28943.7
28940.2
28936.8
28933.5
28930.3
28927.3
28924.4
28921.6
28919
28916.6
28914.4
28912.3
28910.4
28908.7
28907.2
28905.9
28904.8
28904
28903.4
28903
28902.8
28902.9
28903.2
28903.8
28904.7
28905.8
28907.2
28908.9
28910.9
28913.1
28915.6
28918.5
28921.6
28925
28928.7
28932.8
28937.1
28941.7
28946.7
28952
28957.6
28963.5
28969.7
28976.2
28983.1
28990.3
28997.8
29005.6
29013.8
29022.3
29031
29040.1
29049.5
29059.3
29069.3
29079.7
29090.3
29101.3
29112.5
29124.1
29135.9
29148
29160.4
29173.1
29186.1
29199.3
29212.8
29226.6
29240.6
29254.9
29269.4
29284.1
29299.1
29314.3
29329.7
29345.3
29361.1
29377.1
29393.4
29409.7
29426.3
29443
29459.9
29477
29494.1
29511.5
29528.9
29546.5
29564.1
29581.9
29599.8
29617.7
29635.8
29653.9
29672
29690.2
29708.5
29726.8
29745.1
29763.5
29781.8
29800.2
29818.5
29836.9
29855.2
29873.5
29891.7
29910
29928.1
29946.2
29964.3
29982.2
30000.1
30017.9
30035.6
30053.3
30070.8
30088.1
30105.4
30122.6
30139.6
30156.5
30173.2
30189.8
30206.2
30222.5
30238.6
30254.5
30270.3
30285.9
30301.3
30316.5
30331.5
30346.3
30360.9
30375.4
30389.6
30403.7
30417.5
30431
30444.4
30457.5
30470.5
30483.1
30495.6
30507.8
30519.8
30531.6
30543.1
30554.3
30565.4
30576.2
30586.7
30597
30607.1
30616.9
30626.4
30635.7
30644.8
30653.6
30662.1
30670.5
30678.5
30686.3
30693.9
30701.2
30708.2
30715
30721.6
30727.9
30734
30739.8
30745.3
30750.7
30755.7
30760.6
30765.1
30769.5
30773.6
30777.5
30781.1
30784.5
30787.7
30790.6
30793.3
30795.7
30798
30800
30801.8
30803.4
30804.7
30805.8
30806.8
30807.5
30808
30808.2
30808.3
30808.2
30807.8
30807.3
30806.6
30805.7
30804.6
30803.3
30801.8
30800.1
30798.3
30796.2
30794
30791.7
30789.1
30786.4
30783.6
30780.5
30777.4
30774
30770.6
30767
30763.2
30759.3
30755.3
30751.2
30746.9
30742.5
30738
30733.4
30728.7
30723.8
30718.9
30713.9
30708.8
30703.6
30698.4
30693
30687.6
30682.1
30676.6
30671
30665.4
30659.7
30654
30648.2
30642.4
30636.6
30630.7
30624.9
30619
30613.1
30607.3
30601.4
30595.6
30589.7
30583.9
30578.2
30572.4
30566.7
30561
30555.4
30549.9
30544.3
30538.9
30533.5
30528.3
30522.8
30517.7
30512.6
30507.7
30502.8
30498
30493.3
30488.7
30484.3
30479.9
30475.7
30471.5
30467.5
30463.7
30459.9
30456.3
30452.8
30449.5
30446.3
30443.3
30440.4
30437.6
30435
30432.6
30430.3
30428.2
30426.2
30424.4
30422.7
30421.2
30419.9
30418.8
30417.8
30416.9
30416.3
30415.8
30415.4
30415.2
28635.9
28635.7
28635.4
28634.8
28634.1
28633.2
28632.2
28630.9
28629.5
28628
28626.2
28624.3
28622.3
28620
28617.7
28615.2
28612.5
28609.7
28606.8
28603.7
28600.5
28597.2
28593.8
28590.3
28586.7
28583
28579.2
28575.3
28571.4
28567.3
28563.3
28559.1
28555
28550.8
28546.5
28542.3
28538
28533.7
28529.4
28525.1
28520.9
28516.7
28512.5
28508.3
28504.2
28500.2
28496.2
28492.3
28488.5
28484.8
28481.2
28477.7
28474.3
28471
28467.9
28464.9
28462.1
28459.4
28456.9
28454.5
28452.4
28450.4
28448.6
28447
28445.7
28444.5
28443.6
28442.9
28442.4
28442.2
28442.2
28442.5
28443
28443.8
28444.8
28446.2
28447.8
28449.7
28451.9
28454.3
28457.1
28460.2
28463.5
28467.2
28471.2
28475.5
28480.1
28485
28490.3
28495.8
28501.7
28507.9
28514.5
28521.3
28528.5
28536
28543.8
28551.9
28560.4
28569.2
28578.3
28587.7
28597.5
28607.5
28617.9
28628.6
28639.5
28650.8
28662.4
28674.3
28686.4
28698.9
28711.6
28724.7
28737.9
28751.5
28765.3
28779.4
28793.7
28808.3
28823.1
28838.1
28853.4
28868.9
28884.6
28900.5
28916.6
28932.9
28949.4
28966
28982.9
28999.9
29017
29034.3
29051.7
29069.2
29086.9
29104.7
29122.5
29140.5
29158.6
29176.7
29194.9
29213.2
29231.5
29249.8
29268.2
29286.7
29305.1
29323.6
29342
29360.5
29378.9
29397.4
29415.7
29434.1
29452.4
29470.7
29488.9
29507
29525.1
29543
29560.9
29578.7
29596.4
29614
29631.5
29648.8
29666.1
29683.1
29700.1
29716.9
29733.6
29750
29766.4
29782.6
29798.6
29814.4
29830
29845.5
29860.7
29875.8
29890.7
29905.4
29919.9
29934.1
29948.1
29962
29975.6
29988.9
30002.1
30015
30027.7
30040.2
30052.5
30064.5
30076.2
30087.7
30099
30110.1
30120.9
30131.4
30141.7
30151.7
30161.5
30171.1
30180.4
30189.5
30198.2
30206.8
30215.1
30223.1
30230.9
30238.5
30245.8
30252.8
30259.6
30266.1
30272.4
30278.4
30284.2
30289.8
30295.1
30300.1
30304.9
30309.5
30313.8
30317.9
30321.7
30325.3
30328.7
30331.8
30334.7
30337.4
30339.8
30342.1
30344
30345.8
30347.3
30348.7
30349.8
30350.7
30351.3
30351.8
30352
30352.1
30351.9
30351.6
30351
30350.2
30349.3
30348.2
30346.8
30345.3
30343.6
30341.7
30339.7
30337.4
30335
30332.5
30329.7
30326.8
30323.8
30320.6
30317.2
30313.7
30310.1
30306.3
30302.4
30298.3
30294.1
30289.8
30285.4
30280.9
30276.2
30271.5
30266.6
30261.7
30256.6
30251.5
30246.3
30241
30235.6
30230.1
30224.6
30219.1
30213.4
30207.7
30202
30196.2
30190.4
30184.6
30178.7
30172.9
30167
30161.1
30155.1
30149.2
30143.3
30137.4
30131.6
30125.7
30119.9
30114.1
30108.4
30102.7
30097
30091.4
30085.8
30080.3
30074.9
30069.5
30064.2
30059
30053.9
30048.9
30043.9
30039.1
30034.4
30029.8
30025.3
30020.9
30016.6
30012.4
30008.4
30004.5
30000.7
29997.1
29993.6
29990.2
29987
29983.9
29981
29978.2
29975.6
29973.2
29970.8
29968.7
29966.7
29964.9
29963.2
29961.7
29960.3
29959.2
29958.2
29957.3
29956.6
29956.1
29955.8
29955.6
28180.2
28180.1
28179.7
28179.2
28178.4
28177.5
28176.4
28175.2
28173.7
28172.1
28170.4
28168.4
28166.3
28164.1
28161.6
28159.1
28156.4
28153.5
28150.5
28147.4
28144.2
28140.8
28137.3
28133.7
28130
28126.3
28122.4
28118.4
28114.4
28110.3
28106.1
28101.9
28097.6
28093.3
28089
28084.6
28080.2
28075.8
28071.4
28067.1
28062.7
28058.4
28054.1
28049.8
28045.6
28041.5
28037.4
28033.4
28029.4
28025.6
28021.9
28018.3
28014.8
28011.4
28008.1
28005
28002.1
27999.3
27996.7
27994.2
27991.9
27989.9
27988
27986.3
27984.8
27983.5
27982.5
27981.7
27981.1
27980.8
27980.7
27980.9
27981.3
27982
27983
27984.3
27985.8
27987.6
27989.7
27992.1
27994.8
27997.8
28001.1
28004.8
28008.7
28012.9
28017.5
28022.4
28027.6
28033.1
28039
28045.1
28051.6
28058.5
28065.6
28073.1
28080.9
28089.1
28097.5
28106.3
28115.4
28124.9
28134.6
28144.7
28155.1
28165.8
28176.8
28188.1
28199.7
28211.7
28223.9
28236.4
28249.2
28262.3
28275.6
28289.3
28303.2
28317.3
28331.7
28346.4
28361.3
28376.4
28391.8
28407.4
28423.2
28439.2
28455.4
28471.8
28488.4
28505.2
28522.1
28539.2
28556.4
28573.8
28591.4
28609.1
28626.8
28644.7
28662.7
28680.8
28699
28717.3
28735.6
28754
28772.5
28791
28809.5
28828.1
28846.6
28865.2
28883.8
28902.4
28921
28939.5
28958
28976.5
28994.9
29013.3
29031.6
29049.9
29068.1
29086.2
29104.2
29122.1
29139.9
29157.5
29175.1
29192.6
29209.9
29227.1
29244.1
29261
29277.7
29294.3
29310.7
29327
29343
29358.9
29374.6
29390.1
29405.5
29420.6
29435.5
29450.2
29464.8
29479.1
29493.1
29507
29520.6
29534.1
29547.3
29560.2
29573
29585.4
29597.7
29609.7
29621.5
29633
29644.3
29655.4
29666.2
29676.7
29687
29697.1
29706.9
29716.4
29725.7
29734.7
29743.5
29752.1
29760.3
29768.4
29776.1
29783.7
29790.9
29797.9
29804.7
29811.2
29817.5
29823.5
29829.2
29834.8
29840
29845
29849.8
29854.3
29858.6
29862.7
29866.5
29870.1
29873.4
29876.5
29879.4
29882
29884.4
29886.6
29888.5
29890.3
29891.8
29893
29894.1
29895
29895.6
29896
29896.2
29896.2
29896
29895.6
29895.1
29894.3
29893.3
29892.1
29890.7
29889.2
29887.4
29885.5
29883.4
29881.2
29878.7
29876.1
29873.3
29870.4
29867.3
29864.1
29860.7
29857.1
29853.4
29849.6
29845.6
29841.6
29837.3
29833
29828.5
29823.9
29819.3
29814.5
29809.5
29804.5
29799.5
29794.3
29789
29783.7
29778.2
29772.7
29767.2
29761.6
29755.9
29750.1
29744.4
29738.6
29732.7
29726.8
29720.9
29715
29709
29703.1
29697.1
29691.1
29685.2
29679.2
29673.3
29667.4
29661.5
29655.7
29649.9
29644.1
29638.4
29632.7
29627.1
29621.6
29616.1
29610.6
29605.3
29600
29594.9
29589.8
29584.8
29580
29575.2
29570.5
29566
29561.5
29557.2
29553
29548.9
29545
29541.2
29537.5
29534
29530.6
29527.3
29524.2
29521.2
29518.4
29515.8
29513.3
29511
29508.8
29506.8
29504.9
29503.2
29501.7
29500.3
29499.1
29498.1
29497.3
29496.6
29496.1
29495.7
29495.6
27725
27724.9
27724.5
27723.9
27723.2
27722.2
27721.1
27719.8
27718.4
27716.7
27714.9
27712.9
27710.8
27708.5
27706
27703.4
27700.6
27697.7
27694.6
27691.4
27688.1
27684.6
27681.1
27677.4
27673.6
27669.7
27665.8
27661.7
27657.5
27653.3
27649.1
27644.7
27640.3
27635.9
27631.5
27627
27622.5
27618
27613.4
27608.9
27604.5
27600
27595.6
27591.2
27586.8
27582.5
27578.3
27574.2
27570.1
27566.1
27562.3
27558.5
27554.9
27551.4
27548
27544.7
27541.7
27538.7
27536
27533.4
27531
27528.8
27526.7
27524.9
27523.3
27521.9
27520.8
27519.8
27519.1
27518.7
27518.5
27518.6
27518.9
27519.5
27520.4
27521.5
27523
27524.7
27526.7
27529
27531.6
27534.6
27537.8
27541.3
27545.2
27549.4
27553.9
27558.7
27563.9
27569.4
27575.2
27581.3
27587.8
27594.6
27601.7
27609.2
27617
27625.1
27633.6
27642.4
27651.5
27661
27670.7
27680.8
27691.3
27702
27713.1
27724.4
27736.1
27748.1
27760.4
27772.9
27785.8
27799
27812.4
27826.1
27840.1
27854.3
27868.9
27883.6
27898.6
27913.9
27929.4
27945.1
27961
27977.1
27993.5
28010
28026.7
28043.6
28060.7
28078
28095.4
28112.9
28130.6
28148.4
28166.3
28184.4
28202.6
28220.8
28239.2
28257.6
28276.1
28294.6
28313.2
28331.9
28350.6
28369.3
28388
28406.8
28425.5
28444.3
28463
28481.7
28500.3
28519
28537.5
28556.1
28574.5
28592.9
28611.2
28629.4
28647.6
28665.6
28683.5
28701.3
28719
28736.6
28754
28771.3
28788.5
28805.5
28822.3
28839
28855.5
28871.8
28888
28903.9
28919.7
28935.3
28950.7
28965.9
28980.9
28995.7
29010.2
29024.6
29038.7
29052.6
29066.3
29079.8
29093
29106
29118.8
29131.3
29143.6
29155.6
29167.4
29178.9
29190.2
29201.3
29212.1
29222.6
29232.9
29243
29252.8
29262.3
29271.6
29280.6
29289.4
29297.9
29306.2
29314.2
29321.9
29329.4
29336.7
29343.7
29350.4
29356.9
29363.1
29369.1
29374.8
29380.3
29385.5
29390.5
29395.3
29399.7
29404
29408
29411.8
29415.3
29418.6
29421.7
29424.5
29427.1
29429.4
29431.6
29433.5
29435.2
29436.6
29437.9
29438.9
29439.7
29440.3
29440.7
29440.8
29440.8
29440.5
29440.1
29439.5
29438.6
29437.6
29436.4
29435
29433.4
29431.6
29429.6
29427.5
29425.2
29422.7
29420
29417.2
29414.2
29411.1
29407.8
29404.3
29400.8
29397
29393.1
29389.1
29385
29380.7
29376.3
29371.8
29367.2
29362.4
29357.6
29352.6
29347.6
29342.4
29337.2
29331.9
29326.5
29321
29315.4
29309.8
29304.1
29298.4
29292.6
29286.8
29280.9
29275
29269
29263
29257
29251
29245
29239
29233
29226.9
29220.9
29215
29209
29203
29197.1
29191.3
29185.4
29179.7
29173.9
29168.3
29162.7
29156.9
29151.5
29146.1
29140.8
29135.6
29130.5
29125.5
29120.5
29115.7
29111
29106.4
29101.9
29097.5
29093.2
29089.1
29085.1
29081.2
29077.5
29073.9
29070.5
29067.2
29064.1
29061.1
29058.2
29055.5
29053
29050.6
29048.4
29046.4
29044.5
29042.8
29041.3
29039.9
29038.7
29037.6
29036.8
29036.1
29035.6
29035.2
29035
27270.3
27270.1
27269.7
27269.1
27268.4
27267.4
27266.3
27264.9
27263.4
27261.7
27259.9
27257.8
27255.6
27253.3
27250.7
27248
27245.2
27242.2
27239
27235.7
27232.3
27228.8
27225.1
27221.3
27217.4
27213.4
27209.3
27205.2
27200.9
27196.6
27192.2
27187.7
27183.2
27178.6
27174
27169.4
27164.7
27160.1
27155.4
27150.8
27146.1
27141.5
27136.9
27132.4
27127.9
27123.4
27119.1
27114.7
27110.5
27106.4
27102.4
27098.4
27094.6
27091
27087.4
27084
27080.8
27077.7
27074.8
27072
27069.5
27067.1
27064.9
27062.9
27061.2
27059.7
27058.3
27057.3
27056.4
27055.9
27055.5
27055.5
27055.7
27056.1
27056.9
27057.9
27059.2
27060.9
27062.8
27065
27067.5
27070.3
27073.5
27077
27080.7
27084.9
27089.3
27094.1
27099.2
27104.6
27110.3
27116.4
27122.9
27129.7
27136.8
27144.2
27152
27160.1
27168.6
27177.4
27186.5
27196
27205.8
27215.9
27226.4
27237.2
27248.3
27259.7
27271.4
27283.5
27295.8
27308.5
27321.5
27334.7
27348.2
27362
27376.1
27390.5
27405.1
27420
27435.1
27450.5
27466.1
27482
27498
27514.3
27530.8
27547.5
27564.4
27581.5
27598.7
27616.1
27633.7
27651.4
27669.3
27687.3
27705.4
27723.6
27742
27760.4
27778.9
27797.5
27816.2
27835
27853.8
27872.6
27891.5
27910.4
27929.3
27948.2
27967.1
27986.1
28005
28023.8
28042.7
28061.5
28080.2
28098.9
28117.5
28136.1
28154.6
28172.9
28191.2
28209.4
28227.5
28245.4
28263.3
28281
28298.5
28315.9
28333.2
28350.3
28367.3
28384.1
28400.7
28417.1
28433.4
28449.4
28465.3
28481
28496.5
28511.7
28526.8
28541.7
28556.3
28570.7
28584.9
28598.9
28612.6
28626.1
28639.4
28652.4
28665.2
28677.8
28690.1
28702.1
28713.9
28725.5
28736.8
28747.9
28758.7
28769.2
28779.5
28789.6
28799.3
28808.9
28818.1
28827.2
28835.9
28844.4
28852.7
28860.6
28868.4
28875.8
28883
28890
28896.7
28903.1
28909.3
28915.3
28921
28926.4
28931.6
28936.5
28941.2
28945.7
28949.9
28953.8
28957.6
28961
28964.3
28967.3
28970.1
28972.6
28974.9
28977
28978.9
28980.5
28981.9
28983.1
28984.1
28984.8
28985.4
28985.7
28985.8
28985.7
28985.4
28984.9
28984.2
28983.3
28982.3
28981
28979.5
28977.9
28976
28974
28971.8
28969.5
28966.9
28964.2
28961.3
28958.3
28955.1
28951.8
28948.3
28944.6
28940.8
28936.9
28932.8
28928.6
28924.3
28919.8
28915.3
28910.6
28905.8
28900.9
28895.8
28890.7
28885.5
28880.2
28874.8
28869.4
28863.8
28858.2
28852.5
28846.8
28840.9
28835.1
28829.2
28823.2
28817.2
28811.2
28805.2
28799.1
28793
28786.9
28780.8
28774.7
28768.6
28762.6
28756.5
28750.4
28744.4
28738.4
28732.5
28726.6
28720.7
28714.9
28709.2
28703.5
28697.8
28692.3
28686.8
28681.4
28676.1
28670.9
28665.8
28660.8
28655.9
28651.1
28646.4
28641.9
28637.4
28633.1
28628.9
28624.9
28621
28617.2
28613.5
28610.1
28606.7
28603.5
28600.5
28597.6
28594.9
28592.3
28589.9
28587.7
28585.6
28583.7
28581.9
28580.4
28579
28577.7
28576.7
28575.8
28575.1
28574.6
28574.2
28574
26816
26815.8
26815.4
26814.8
26814
26813
26811.8
26810.5
26808.9
26807.2
26805.3
26803.2
26800.9
26798.4
26795.8
26793
26790.1
26787
26783.8
26780.4
26776.9
26773.2
26769.4
26765.5
26761.5
26757.4
26753.2
26748.8
26744.4
26740
26735.4
26730.8
26726.1
26721.4
26716.6
26711.8
26707
26702.2
26697.4
26692.6
26687.7
26682.9
26678.2
26673.4
26668.8
26664.1
26659.6
26655.1
26650.7
26646.4
26642.1
26638
26634.1
26630.2
26626.5
26622.9
26619.4
26616.2
26613.1
26610.1
26607.4
26604.8
26602.5
26600.3
26598.4
26596.7
26595.2
26594
26593
26592.3
26591.8
26591.6
26591.6
26592
26592.6
26593.5
26594.7
26596.1
26597.9
26600
26602.4
26605.2
26608.2
26611.6
26615.3
26619.3
26623.7
26628.4
26633.4
26638.8
26644.5
26650.5
26656.9
26663.7
26670.7
26678.2
26685.9
26694.1
26702.5
26711.3
26720.5
26730
26739.8
26750
26760.5
26771.3
26782.5
26793.9
26805.7
26817.9
26830.3
26843.1
26856.1
26869.4
26883.1
26897
26911.2
26925.7
26940.5
26955.5
26970.8
26986.3
27002.1
27018.1
27034.3
27050.8
27067.4
27084.3
27101.4
27118.6
27136.1
27153.7
27171.4
27189.4
27207.4
27225.6
27243.9
27262.4
27280.9
27299.6
27318.3
27337.2
27356.1
27375
27394
27413.1
27432.2
27451.3
27470.4
27489.5
27508.7
27527.8
27546.9
27566
27585
27604
27623
27641.8
27660.7
27679.4
27698.1
27716.6
27735.1
27753.4
27771.7
27789.8
27807.8
27825.6
27843.3
27860.9
27878.3
27895.6
27912.7
27929.6
27946.3
27962.9
27979.2
27995.4
28011.4
28027.2
28042.8
28058.1
28073.3
28088.2
28102.9
28117.4
28131.7
28145.7
28159.5
28173
28186.4
28199.4
28212.3
28224.8
28237.2
28249.3
28261.1
28272.7
28284
28295.1
28305.9
28316.4
28326.7
28336.8
28346.5
28356.1
28365.3
28374.3
28383
28391.5
28399.7
28407.7
28415.4
28422.8
28430
28436.9
28443.6
28450
28456.1
28462
28467.7
28473.1
28478.2
28483.1
28487.7
28492.1
28496.3
28500.2
28503.9
28507.3
28510.5
28513.4
28516.1
28518.6
28520.9
28522.9
28524.7
28526.3
28527.6
28528.8
28529.7
28530.4
28530.8
28531.1
28531.2
28531
28530.7
28530.1
28529.4
28528.4
28527.3
28525.9
28524.4
28522.7
28520.8
28518.7
28516.5
28514
28511.5
28508.7
28505.7
28502.7
28499.4
28496
28492.4
28488.7
28484.9
28480.9
28476.7
28472.5
28468.1
28463.6
28458.9
28454.2
28449.3
28444.3
28439.2
28434
28428.7
28423.4
28417.9
28412.4
28406.7
28401
28395.3
28389.4
28383.6
28377.6
28371.6
28365.6
28359.5
28353.4
28347.3
28341.2
28335
28328.8
28322.6
28316.4
28310.3
28304.1
28297.9
28291.8
28285.7
28279.6
28273.6
28267.6
28261.6
28255.7
28249.9
28244.1
28238.4
28232.8
28227.2
28221.7
28216.3
28211.1
28205.9
28200.8
28195.8
28190.9
28186.2
28181.6
28177
28172.7
28168.4
28164.3
28160.3
28156.5
28152.8
28149.2
28145.8
28142.6
28139.5
28136.5
28133.8
28131.2
28128.7
28126.4
28124.3
28122.4
28120.6
28119
28117.6
28116.3
28115.3
28114.4
28113.7
28113.1
28112.8
28112.6
26362.1
26361.9
26361.5
26360.9
26360.1
26359.1
26357.9
26356.5
26354.9
26353.1
26351.1
26348.9
26346.6
26344
26341.3
26338.5
26335.4
26332.2
26328.9
26325.4
26321.7
26317.9
26314
26310
26305.8
26301.6
26297.2
26292.7
26288.2
26283.5
26278.8
26274
26269.2
26264.3
26259.3
26254.4
26249.4
26244.3
26239.3
26234.3
26229.3
26224.3
26219.3
26214.4
26209.5
26204.7
26199.9
26195.2
26190.6
26186
26181.6
26177.3
26173.1
26169
26165.1
26161.3
26157.6
26154.2
26150.8
26147.7
26144.8
26142
26139.5
26137.1
26135
26133.1
26131.4
26130
26128.8
26127.9
26127.3
26126.9
26126.8
26126.9
26127.4
26128.1
26129.2
26130.5
26132.2
26134.1
26136.4
26139
26142
26145.2
26148.8
26152.7
26157
26161.6
26166.6
26171.9
26177.5
26183.5
26189.9
26196.6
26203.6
26211
26218.8
26226.9
26235.4
26244.2
26253.3
26262.8
26272.7
26282.9
26293.5
26304.3
26315.6
26327.1
26339
26351.2
26363.7
26376.6
26389.7
26403.2
26417
26431
26445.4
26460
26474.9
26490.1
26505.5
26521.2
26537.2
26553.4
26569.8
26586.4
26603.3
26620.4
26637.7
26655.1
26672.8
26690.6
26708.6
26726.7
26745
26763.5
26782
26800.7
26819.5
26838.4
26857.4
26876.4
26895.6
26914.8
26934
26953.3
26972.6
26992
27011.4
27030.7
27050.1
27069.5
27088.8
27108.1
27127.4
27146.6
27165.8
27184.9
27203.9
27222.9
27241.7
27260.5
27279.2
27297.7
27316.1
27334.4
27352.6
27370.6
27388.5
27406.3
27423.8
27441.3
27458.5
27475.5
27492.4
27509.1
27525.6
27541.9
27558
27573.9
27589.6
27605.1
27620.3
27635.3
27650.1
27664.7
27679
27693.1
27707
27720.6
27733.9
27747.1
27759.9
27772.6
27784.9
27797
27808.9
27820.5
27831.8
27842.9
27853.7
27864.3
27874.6
27884.6
27894.4
27903.9
27913.1
27922.1
27930.8
27939.3
27947.4
27955.4
27963
27970.4
27977.6
27984.4
27991
27997.4
28003.5
28009.4
28014.9
28020.3
28025.4
28030.2
28034.8
28039.1
28043.2
28047.1
28050.7
28054
28057.2
28060
28062.7
28065.1
28067.3
28069.3
28071
28072.5
28073.8
28074.8
28075.7
28076.3
28076.7
28076.9
28076.9
28076.7
28076.3
28075.7
28074.9
28073.8
28072.6
28071.2
28069.6
28067.9
28065.9
28063.8
28061.4
28058.9
28056.3
28053.4
28050.4
28047.3
28043.9
28040.5
28036.8
28033
28029.1
28025.1
28020.8
28016.5
28012
28007.4
28002.7
27997.9
27992.9
27987.9
27982.7
27977.4
27972.1
27966.6
27961.1
27955.5
27949.7
27944
27938.1
27932.2
27926.2
27920.2
27914.1
27908
27901.8
27895.6
27889.4
27883.2
27876.9
27870.6
27864.3
27858.1
27851.8
27845.5
27839.3
27833
27826.8
27820.6
27814.5
27808.4
27802.4
27796.4
27790.4
27784.5
27778.7
27773
27767.4
27761.8
27756.3
27750.9
27745.7
27740.5
27735.4
27730.5
27725.6
27720.9
27716.3
27711.8
27707.5
27703.3
27699.3
27695.3
27691.6
27688
27684.5
27681.2
27678
27675.1
27672.2
27669.6
27667.1
27664.7
27662.6
27660.6
27658.8
27657.2
27655.7
27654.5
27653.4
27652.5
27651.7
27651.2
27650.8
27650.6
25908.8
25908.6
25908.2
25907.6
25906.7
25905.7
25904.4
25902.9
25901.3
25899.4
25897.4
25895.1
25892.7
25890.1
25887.3
25884.3
25881.1
25877.8
25874.3
25870.7
25866.9
25863
25858.9
25854.8
25850.4
25846
25841.5
25836.8
25832.1
25827.2
25822.3
25817.4
25812.3
25807.2
25802.1
25796.9
25791.7
25786.5
25781.2
25776
25770.7
25765.5
25760.3
25755.2
25750
25745
25740
25735
25730.2
25725.4
25720.8
25716.2
25711.8
25707.5
25703.3
25699.3
25695.4
25691.7
25688.1
25684.7
25681.6
25678.6
25675.8
25673.3
25670.9
25668.8
25666.9
25665.3
25663.9
25662.8
25661.9
25661.4
25661.1
25661
25661.3
25661.9
25662.8
25663.9
25665.4
25667.3
25669.4
25671.9
25674.7
25677.8
25681.3
25685.1
25689.3
25693.8
25698.7
25703.9
25709.5
25715.4
25721.7
25728.3
25735.4
25742.7
25750.5
25758.6
25767
25775.9
25785
25794.6
25804.5
25814.7
25825.3
25836.3
25847.6
25859.2
25871.2
25883.5
25896.1
25909.1
25922.3
25935.9
25949.8
25964
25978.5
25993.3
26008.4
26023.8
26039.4
26055.3
26071.4
26087.8
26104.5
26121.3
26138.4
26155.7
26173.2
26190.9
26208.8
26226.9
26245.1
26263.5
26282.1
26300.8
26319.6
26338.5
26357.6
26376.8
26396
26415.4
26434.8
26454.2
26473.8
26493.3
26512.9
26532.5
26552.2
26571.8
26591.5
26611.1
26630.7
26650.3
26669.8
26689.3
26708.7
26728
26747.3
26766.5
26785.6
26804.6
26823.5
26842.2
26860.9
26879.4
26897.8
26916
26934.1
26952
26969.8
26987.3
27004.7
27022
27039
27055.8
27072.5
27088.9
27105.2
27121.2
27137
27152.5
27167.9
27183
27197.9
27212.6
27227
27241.1
27255.1
27268.7
27282.2
27295.3
27308.3
27320.9
27333.3
27345.5
27357.4
27369
27380.3
27391.4
27402.2
27412.8
27423.1
27433.1
27442.9
27452.4
27461.6
27470.5
27479.2
27487.6
27495.8
27503.7
27511.3
27518.6
27525.7
27532.5
27539.1
27545.4
27551.5
27557.2
27562.8
27568.1
27573.1
27577.8
27582.4
27586.6
27590.7
27594.4
27598
27601.3
27604.3
27607.1
27609.7
27612.1
27614.2
27616.1
27617.7
27619.2
27620.4
27621.4