/*--------------------------------*- C++ -*----------------------------------*\
| =========                 |                                                 |
| \\      /  F ield         | OpenFOAM: The Open Source CFD Toolbox           |
|  \\    /   O peration     | Version:  v2006                                 |
|   \\  /    A nd           | Website:  www.openfoam.com                      |
|    \\/     M anipulation  |                                                 |
\*---------------------------------------------------------------------------*/
FoamFile
{
    version     2.0;
    format      ascii;
    class       volVectorField;
    location    "5";
    object      U;
}
// * * * * * * * * * * * * * * * * * * * * * * * * * * * * * * * * * * * * * //

dimensions      [0 1 -1 0 0 0 0];


internalField   nonuniform List<vector> 
52500
(
(0.000426685 -0.00236102 0)
(0.00405115 -0.00360109 0)
(0.00777921 -0.0033365 0)
(0.0107222 -0.00306822 0)
(0.0137787 -0.00299744 0)
(0.0166707 -0.00298197 0)
(0.0196242 -0.0029607 0)
(0.0225262 -0.00292892 0)
(0.0253968 -0.00289006 0)
(0.0282302 -0.00284537 0)
(0.0310196 -0.00279706 0)
(0.0337613 -0.0027426 0)
(0.0364514 -0.00268424 0)
(0.0390854 -0.00262124 0)
(0.0416596 -0.00255472 0)
(0.0441715 -0.00248319 0)
(0.0466145 -0.00240901 0)
(0.0489859 -0.00232972 0)
(0.0512829 -0.00224764 0)
(0.053499 -0.00216061 0)
(0.0556357 -0.00206984 0)
(0.0576859 -0.00197681 0)
(0.0596447 -0.00188062 0)
(0.0615157 -0.00178129 0)
(0.0632904 -0.00168092 0)
(0.0649639 -0.00157688 0)
(0.0665392 -0.00147034 0)
(0.0680127 -0.00136206 0)
(0.0693814 -0.00125251 0)
(0.0706389 -0.00114207 0)
(0.0717842 -0.00102889 0)
(0.0728191 -0.000913136 0)
(0.0737393 -0.000795425 0)
(0.0745426 -0.000676143 0)
(0.0752281 -0.000555785 0)
(0.0757941 -0.000433975 0)
(0.0762384 -0.000310312 0)
(0.0765588 -0.000184477 0)
(0.0767536 -5.54903e-05 0)
(0.0768259 7.81192e-05 0)
(0.0767611 0.000211468 0)
(0.0765678 0.000338564 0)
(0.076247 0.000460499 0)
(0.0758009 0.000579446 0)
(0.075227 0.000696582 0)
(0.0745235 0.000812907 0)
(0.0736957 0.000928039 0)
(0.0727479 0.00104222 0)
(0.0716733 0.00115332 0)
(0.070474 0.00126498 0)
(0.0691544 0.00137066 0)
(0.0677105 0.00147553 0)
(0.0661513 0.00157311 0)
(0.0644785 0.00165806 0)
(0.0626974 0.00172093 0)
(0.0608244 0.00174863 0)
(0.0588762 0.00174466 0)
(0.056862 0.00173333 0)
(0.0547771 0.00173359 0)
(0.0526063 0.00176264 0)
(0.0503455 0.00181742 0)
(0.0479813 0.00188835 0)
(0.0455074 0.00196879 0)
(0.0429247 0.00205347 0)
(0.040232 0.00214124 0)
(0.0374286 0.00222978 0)
(0.0345171 0.00231902 0)
(0.0314953 0.00240715 0)
(0.0283638 0.00249537 0)
(0.025128 0.00258262 0)
(0.0217856 0.00266829 0)
(0.0183383 0.00275363 0)
(0.0147894 0.00283629 0)
(0.011139 0.00291852 0)
(0.00738881 0.00300212 0)
(0.00353833 0.00308039 0)
(-0.000406055 0.00315823 0)
(-0.00444298 0.0032323 0)
(-0.00858153 0.00330468 0)
(-0.0128115 0.0033784 0)
(-0.0171256 0.00345129 0)
(-0.0215257 0.00352372 0)
(-0.0260102 0.00359694 0)
(-0.0305784 0.00367427 0)
(-0.035231 0.003761 0)
(-0.039971 0.00386253 0)
(-0.0448034 0.00398093 0)
(-0.0497327 0.0041122 0)
(-0.0547607 0.00424757 0)
(-0.0598856 0.00437756 0)
(-0.0651025 0.00449637 0)
(-0.0704048 0.00460217 0)
(-0.0757862 0.00469529 0)
(-0.0812411 0.00477665 0)
(-0.0867637 0.00484738 0)
(-0.0923485 0.00490833 0)
(-0.0979905 0.00496047 0)
(-0.103686 0.00500517 0)
(-0.109429 0.00504351 0)
(-0.115217 0.00507647 0)
(-0.121047 0.00510522 0)
(-0.126915 0.00513024 0)
(-0.132817 0.0051514 0)
(-0.138752 0.00516908 0)
(-0.144715 0.00518376 0)
(-0.150703 0.00519526 0)
(-0.156713 0.00520296 0)
(-0.162744 0.00520731 0)
(-0.168791 0.00520957 0)
(-0.174851 0.00520922 0)
(-0.18092 0.00520602 0)
(-0.186998 0.00519997 0)
(-0.193082 0.00519201 0)
(-0.199165 0.00518203 0)
(-0.205247 0.0051701 0)
(-0.211325 0.00515618 0)
(-0.217396 0.00514034 0)
(-0.223457 0.00512294 0)
(-0.229505 0.00510377 0)
(-0.235539 0.00508238 0)
(-0.241554 0.00505902 0)
(-0.247549 0.00503422 0)
(-0.253519 0.00500754 0)
(-0.259463 0.0049787 0)
(-0.265379 0.00494776 0)
(-0.271262 0.00491467 0)
(-0.277109 0.0048793 0)
(-0.282919 0.00484159 0)
(-0.288688 0.00480157 0)
(-0.294413 0.00475928 0)
(-0.300092 0.00471471 0)
(-0.30572 0.00466785 0)
(-0.311297 0.0046187 0)
(-0.316818 0.00456736 0)
(-0.32228 0.00451396 0)
(-0.327682 0.0044586 0)
(-0.333021 0.00440138 0)
(-0.338293 0.00434237 0)
(-0.343497 0.00428163 0)
(-0.34863 0.00421918 0)
(-0.353689 0.00415503 0)
(-0.358671 0.00408914 0)
(-0.363575 0.00402153 0)
(-0.368399 0.00395219 0)
(-0.373138 0.00388114 0)
(-0.377792 0.00380845 0)
(-0.382358 0.00373416 0)
(-0.386834 0.00365827 0)
(-0.391218 0.00358087 0)
(-0.395507 0.0035021 0)
(-0.399699 0.00342207 0)
(-0.403793 0.00334089 0)
(-0.407787 0.00325865 0)
(-0.411678 0.0031754 0)
(-0.415465 0.00309121 0)
(-0.419147 0.00300611 0)
(-0.422722 0.00292013 0)
(-0.426188 0.00283333 0)
(-0.429543 0.0027458 0)
(-0.432786 0.00265766 0)
(-0.435917 0.00256911 0)
(-0.438933 0.0024803 0)
(-0.441833 0.00239136 0)
(-0.444617 0.00230241 0)
(-0.447283 0.00221366 0)
(-0.449832 0.00212527 0)
(-0.452261 0.00203741 0)
(-0.454571 0.00195022 0)
(-0.456761 0.00186382 0)
(-0.458831 0.00177837 0)
(-0.46078 0.00169397 0)
(-0.462609 0.00161068 0)
(-0.464318 0.00152859 0)
(-0.465906 0.00144783 0)
(-0.467373 0.0013685 0)
(-0.468721 0.0012907 0)
(-0.469949 0.00121458 0)
(-0.471057 0.00114033 0)
(-0.472047 0.00106817 0)
(-0.47292 0.000998397 0)
(-0.473675 0.000931343 0)
(-0.474314 0.000867372 0)
(-0.474838 0.000806884 0)
(-0.475248 0.000749927 0)
(-0.475543 0.000693255 0)
(-0.475722 0.000634583 0)
(-0.475784 0.000573006 0)
(-0.47573 0.000503872 0)
(-0.475563 0.000431606 0)
(-0.475282 0.000359877 0)
(-0.474889 0.000290127 0)
(-0.474385 0.000222917 0)
(-0.473771 0.000158211 0)
(-0.47305 9.53481e-05 0)
(-0.472223 3.32347e-05 0)
(-0.471291 -2.93266e-05 0)
(-0.470254 -9.35465e-05 0)
(-0.469113 -0.000160889 0)
(-0.467864 -0.000233641 0)
(-0.466508 -0.000316057 0)
(-0.465037 -0.000415936 0)
(-0.463444 -0.000545136 0)
(-0.461713 -0.000717088 0)
(-0.459823 -0.000941084 0)
(-0.457752 -0.00121571 0)
(-0.455477 -0.00152491 0)
(-0.45299 -0.00183965 0)
(-0.450294 -0.00212572 0)
(-0.44741 -0.00235484 0)
(-0.444368 -0.0025134 0)
(-0.441203 -0.0026053 0)
(-0.437946 -0.00264801 0)
(-0.434616 -0.00266475 0)
(-0.431224 -0.00267642 0)
(-0.427771 -0.00269655 0)
(-0.424251 -0.00273028 0)
(-0.420658 -0.00277674 0)
(-0.416988 -0.00283256 0)
(-0.413238 -0.00289469 0)
(-0.409406 -0.00296158 0)
(-0.405491 -0.00303313 0)
(-0.401492 -0.00311004 0)
(-0.397408 -0.003193 0)
(-0.393238 -0.00328223 0)
(-0.38898 -0.00337737 0)
(-0.384632 -0.00347751 0)
(-0.380194 -0.00358142 0)
(-0.375667 -0.00368788 0)
(-0.37105 -0.00379586 0)
(-0.366344 -0.00390458 0)
(-0.361552 -0.00401339 0)
(-0.356675 -0.00412166 0)
(-0.351715 -0.00422887 0)
(-0.346673 -0.00433461 0)
(-0.341552 -0.00443848 0)
(-0.336355 -0.00454007 0)
(-0.331085 -0.00463902 0)
(-0.325743 -0.00473503 0)
(-0.320334 -0.00482783 0)
(-0.314861 -0.00491711 0)
(-0.309326 -0.00500262 0)
(-0.303733 -0.00508411 0)
(-0.298086 -0.0051613 0)
(-0.292389 -0.00523398 0)
(-0.286644 -0.00530193 0)
(-0.280857 -0.00536493 0)
(-0.275031 -0.00542272 0)
(-0.26917 -0.00547503 0)
(-0.263278 -0.00552164 0)
(-0.25736 -0.00556234 0)
(-0.25142 -0.00559691 0)
(-0.245462 -0.00562509 0)
(-0.239491 -0.00564666 0)
(-0.233513 -0.00566134 0)
(-0.227531 -0.00566887 0)
(-0.22155 -0.005669 0)
(-0.215576 -0.00566143 0)
(-0.209614 -0.00564586 0)
(-0.20367 -0.00562196 0)
(-0.197748 -0.00558941 0)
(-0.191854 -0.00554789 0)
(-0.185994 -0.00549693 0)
(-0.180173 -0.00543598 0)
(-0.174399 -0.00536438 0)
(-0.168678 -0.00528129 0)
(-0.163017 -0.0051858 0)
(-0.157422 -0.00507703 0)
(-0.151903 -0.00495388 0)
(-0.146467 -0.00481501 0)
(-0.141123 -0.00465904 0)
(-0.135881 -0.00448445 0)
(-0.130753 -0.00428958 0)
(-0.12575 -0.00407282 0)
(-0.120885 -0.00383269 0)
(-0.116172 -0.00356805 0)
(-0.111625 -0.00327847 0)
(-0.107261 -0.00296483 0)
(-0.103094 -0.00262991 0)
(-0.0991388 -0.0022782 0)
(-0.0954091 -0.00191507 0)
(-0.0919151 -0.00154547 0)
(-0.0886655 -0.0011733 0)
(-0.0856672 -0.000801632 0)
(-0.0829256 -0.000434012 0)
(-0.080443 -7.65765e-05 0)
(-0.0782172 0.000259643 0)
(-0.0762375 0.000558105 0)
(-0.0744825 0.000799672 0)
(-0.0729191 0.000969331 0)
(-0.0715054 0.00106358 0)
(-0.0701981 0.00109312 0)
(-0.0689599 0.00107666 0)
(-0.067762 0.00102764 0)
(-0.0665818 0.000943819 0)
(-0.0653952 0.000807319 0)
(-0.0641708 0.000595483 0)
(-0.06287 0.000298745 0)
(-0.0614542 -6.22486e-05 0)
(-0.0598991 -0.000432408 0)
(-0.0582086 -0.000739441 0)
(-0.0564179 -0.000925641 0)
(-0.0545853 -0.000974447 0)
(-0.0527739 -0.000915045 0)
(-0.0510352 -0.00080317 0)
(-0.0493979 -0.000697057 0)
(-0.0478686 -0.000627413 0)
(-0.0464367 -0.000604681 0)
(-0.0450848 -0.000613891 0)
(-0.0437958 -0.000641965 0)
(-0.0425557 -0.000678115 0)
(-0.0413558 -0.000717896 0)
(-0.040191 -0.00076176 0)
(-0.0390579 -0.000810634 0)
(-0.0379533 -0.000865094 0)
(-0.0368748 -0.000924526 0)
(-0.0358189 -0.000990173 0)
(-0.0347822 -0.0010604 0)
(-0.0337614 -0.00113455 0)
(-0.0327535 -0.00121191 0)
(-0.0317566 -0.00129088 0)
(-0.0307676 -0.00137387 0)
(-0.0297846 -0.00145804 0)
(-0.0288052 -0.00154419 0)
(-0.0278284 -0.00163104 0)
(-0.0268524 -0.00171939 0)
(-0.0258753 -0.00180807 0)
(-0.0248958 -0.00189689 0)
(-0.0239134 -0.00198524 0)
(-0.022927 -0.00207321 0)
(-0.0219354 -0.00216003 0)
(-0.0209382 -0.00224511 0)
(-0.0199346 -0.00232854 0)
(-0.018924 -0.00240979 0)
(-0.0179056 -0.00248857 0)
(-0.0168795 -0.00256402 0)
(-0.0158457 -0.00263618 0)
(-0.0148039 -0.00270549 0)
(-0.0137541 -0.0027706 0)
(-0.0126975 -0.0028316 0)
(-0.0116335 -0.00288774 0)
(-0.0105618 -0.00293923 0)
(-0.00948343 -0.00298672 0)
(-0.00839943 -0.00302797 0)
(-0.00730806 -0.00305995 0)
(-0.00621422 -0.0030791 0)
(-0.00512526 -0.00309722 0)
(-0.00404088 -0.00316797 0)
(-0.00291464 -0.00345936 0)
(-0.00142199 -0.00366162 0)
(0.000205811 -0.00246686 0)
(-3.51297e-05 -0.00491163 0)
(0.00302741 -0.00846211 0)
(0.00588553 -0.00749395 0)
(0.00807365 -0.00678905 0)
(0.0103697 -0.00663923 0)
(0.0125111 -0.00661792 0)
(0.0147363 -0.00657407 0)
(0.0169097 -0.00650483 0)
(0.0190704 -0.00642292 0)
(0.0212062 -0.00633143 0)
(0.0233159 -0.00623211 0)
(0.025396 -0.00612214 0)
(0.0274415 -0.00600482 0)
(0.0294519 -0.00587756 0)
(0.0314258 -0.00574234 0)
(0.0333597 -0.00559751 0)
(0.0352504 -0.00544578 0)
(0.0370961 -0.00528401 0)
(0.038895 -0.00511559 0)
(0.0406428 -0.00493811 0)
(0.0423368 -0.00475296 0)
(0.0439737 -0.00456141 0)
(0.0455516 -0.0043614 0)
(0.0470705 -0.00415426 0)
(0.0485266 -0.00394209 0)
(0.0499171 -0.00372143 0)
(0.0512396 -0.00349349 0)
(0.0524918 -0.0032598 0)
(0.0536716 -0.0030207 0)
(0.0547763 -0.00277748 0)
(0.0558063 -0.00252752 0)
(0.0567588 -0.0022721 0)
(0.0576281 -0.00201292 0)
(0.0584123 -0.00174983 0)
(0.059112 -0.001483 0)
(0.0597266 -0.00121232 0)
(0.0602527 -0.000937037 0)
(0.0606891 -0.00066044 0)
(0.0610357 -0.000380625 0)
(0.0612867 -9.71522e-05 0)
(0.0614506 0.000189918 0)
(0.0615209 0.000477602 0)
(0.0614968 0.000766504 0)
(0.0613768 0.00106032 0)
(0.061152 0.00135132 0)
(0.0608178 0.00164377 0)
(0.0603778 0.00193768 0)
(0.059831 0.00223121 0)
(0.0591729 0.00252141 0)
(0.058399 0.00281538 0)
(0.0575127 0.00310442 0)
(0.0565088 0.00339321 0)
(0.0553807 0.00368112 0)
(0.0541357 0.00396157 0)
(0.0527622 0.00422943 0)
(0.0512397 0.00448157 0)
(0.0495557 0.00472267 0)
(0.0477103 0.00496211 0)
(0.0457056 0.00520796 0)
(0.0435506 0.005468 0)
(0.0412593 0.00573905 0)
(0.0388438 0.00601455 0)
(0.0363051 0.00629114 0)
(0.0336469 0.00656842 0)
(0.0308716 0.00684415 0)
(0.0279796 0.00711774 0)
(0.0249743 0.00739061 0)
(0.0218543 0.00766012 0)
(0.018622 0.00792648 0)
(0.0152794 0.00819085 0)
(0.0118276 0.00845171 0)
(0.00826496 0.0087091 0)
(0.00459642 0.0089625 0)
(0.000828865 0.00921356 0)
(-0.00305194 0.00945917 0)
(-0.00704052 0.00970221 0)
(-0.0111253 0.00994307 0)
(-0.0153106 0.0101736 0)
(-0.0195948 0.010399 0)
(-0.0239747 0.0106218 0)
(-0.0284473 0.0108394 0)
(-0.0330107 0.0110513 0)
(-0.0376621 0.0112574 0)
(-0.042398 0.0114584 0)
(-0.0472132 0.0116559 0)
(-0.0520998 0.0118515 0)
(-0.0570487 0.0120458 0)
(-0.0620519 0.0122379 0)
(-0.0671047 0.0124257 0)
(-0.072206 0.0126075 0)
(-0.0773572 0.0127823 0)
(-0.0825611 0.0129495 0)
(-0.0878199 0.0131092 0)
(-0.0931344 0.0132615 0)
(-0.0985048 0.0134063 0)
(-0.103931 0.0135437 0)
(-0.109413 0.0136738 0)
(-0.11495 0.0137968 0)
(-0.12054 0.0139128 0)
(-0.126182 0.0140221 0)
(-0.131871 0.0141246 0)
(-0.137608 0.0142203 0)
(-0.143389 0.0143091 0)
(-0.14921 0.0143911 0)
(-0.155069 0.0144661 0)
(-0.160964 0.014534 0)
(-0.166892 0.0145943 0)
(-0.172849 0.0146474 0)
(-0.178833 0.0146938 0)
(-0.184841 0.0147329 0)
(-0.19087 0.0147645 0)
(-0.196917 0.0147884 0)
(-0.202979 0.0148053 0)
(-0.209051 0.0148147 0)
(-0.215132 0.0148167 0)
(-0.221218 0.0148114 0)
(-0.227304 0.0147987 0)
(-0.233387 0.0147785 0)
(-0.239465 0.0147509 0)
(-0.245535 0.0147157 0)
(-0.251591 0.0146733 0)
(-0.257631 0.0146237 0)
(-0.263651 0.0145665 0)
(-0.269649 0.0145018 0)
(-0.27562 0.0144297 0)
(-0.281561 0.0143502 0)
(-0.287469 0.0142633 0)
(-0.293341 0.0141691 0)
(-0.299173 0.0140674 0)
(-0.304962 0.0139582 0)
(-0.310705 0.0138418 0)
(-0.316399 0.0137181 0)
(-0.32204 0.0135872 0)
(-0.327626 0.0134492 0)
(-0.333152 0.0133041 0)
(-0.338617 0.0131519 0)
(-0.344017 0.0129929 0)
(-0.349348 0.012827 0)
(-0.354608 0.0126545 0)
(-0.359793 0.0124754 0)
(-0.364901 0.0122898 0)
(-0.369928 0.0120978 0)
(-0.374871 0.0118994 0)
(-0.379728 0.0116949 0)
(-0.384496 0.0114842 0)
(-0.389171 0.0112676 0)
(-0.393752 0.011045 0)
(-0.398235 0.0108167 0)
(-0.402618 0.0105827 0)
(-0.406898 0.0103434 0)
(-0.411074 0.0100987 0)
(-0.415141 0.00984897 0)
(-0.419099 0.00959431 0)
(-0.422945 0.00933492 0)
(-0.426675 0.00907097 0)
(-0.43029 0.0088026 0)
(-0.433785 0.00852994 0)
(-0.437159 0.00825315 0)
(-0.44041 0.00797244 0)
(-0.443537 0.007688 0)
(-0.446538 0.00740009 0)
(-0.449411 0.00710895 0)
(-0.452153 0.00681474 0)
(-0.454765 0.00651763 0)
(-0.457243 0.0062179 0)
(-0.459588 0.00591579 0)
(-0.461796 0.00561154 0)
(-0.463867 0.00530534 0)
(-0.4658 0.00499743 0)
(-0.467592 0.00468807 0)
(-0.469244 0.00437746 0)
(-0.470754 0.0040658 0)
(-0.472122 0.00375335 0)
(-0.473345 0.00344031 0)
(-0.474424 0.00312688 0)
(-0.475357 0.00281328 0)
(-0.476144 0.00249973 0)
(-0.476785 0.0021864 0)
(-0.477279 0.00187346 0)
(-0.477626 0.00156105 0)
(-0.477824 0.00124921 0)
(-0.477874 0.000937821 0)
(-0.477777 0.000626488 0)
(-0.477537 0.000315278 0)
(-0.477157 1.12816e-05 0)
(-0.47663 -0.000287615 0)
(-0.475958 -0.00058559 0)
(-0.475146 -0.000886164 0)
(-0.474195 -0.00118669 0)
(-0.473106 -0.00148498 0)
(-0.471882 -0.00177998 0)
(-0.470521 -0.00207117 0)
(-0.469026 -0.00235843 0)
(-0.467394 -0.00264201 0)
(-0.465628 -0.00292251 0)
(-0.463726 -0.00320066 0)
(-0.461691 -0.00347726 0)
(-0.459523 -0.00375324 0)
(-0.457224 -0.00402989 0)
(-0.454795 -0.00430918 0)
(-0.45224 -0.00459427 0)
(-0.449566 -0.00488993 0)
(-0.446785 -0.00520175 0)
(-0.443914 -0.00553417 0)
(-0.440973 -0.00588781 0)
(-0.437983 -0.00625738 0)
(-0.434959 -0.0066313 0)
(-0.431903 -0.00699391 0)
(-0.428807 -0.00732986 0)
(-0.425651 -0.0076287 0)
(-0.422415 -0.00788778 0)
(-0.419078 -0.00811238 0)
(-0.415627 -0.00831325 0)
(-0.412058 -0.00850265 0)
(-0.408373 -0.00869057 0)
(-0.404577 -0.00888266 0)
(-0.400677 -0.00908021 0)
(-0.396681 -0.00928163 0)
(-0.392594 -0.00948438 0)
(-0.388419 -0.00968649 0)
(-0.384162 -0.00988705 0)
(-0.379827 -0.010086 0)
(-0.375419 -0.0102838 0)
(-0.370942 -0.0104805 0)
(-0.366403 -0.0106759 0)
(-0.361806 -0.0108694 0)
(-0.357157 -0.0110604 0)
(-0.352458 -0.011248 0)
(-0.347716 -0.0114316 0)
(-0.342933 -0.0116107 0)
(-0.338113 -0.0117849 0)
(-0.333258 -0.011954 0)
(-0.328373 -0.0121175 0)
(-0.323459 -0.0122755 0)
(-0.318521 -0.0124275 0)
(-0.313559 -0.0125732 0)
(-0.308578 -0.0127125 0)
(-0.30358 -0.0128452 0)
(-0.298566 -0.0129712 0)
(-0.293539 -0.0130901 0)
(-0.288502 -0.0132018 0)
(-0.283456 -0.0133062 0)
(-0.278403 -0.013403 0)
(-0.273346 -0.0134922 0)
(-0.268286 -0.0135736 0)
(-0.263225 -0.013647 0)
(-0.258164 -0.0137124 0)
(-0.253105 -0.0137697 0)
(-0.24805 -0.0138187 0)
(-0.242999 -0.0138592 0)
(-0.237954 -0.0138911 0)
(-0.232917 -0.0139144 0)
(-0.227887 -0.013929 0)
(-0.222865 -0.0139346 0)
(-0.217854 -0.0139312 0)
(-0.212852 -0.0139187 0)
(-0.207861 -0.0138969 0)
(-0.202881 -0.0138657 0)
(-0.197912 -0.0138251 0)
(-0.192954 -0.0137749 0)
(-0.188008 -0.0137149 0)
(-0.183074 -0.0136448 0)
(-0.17815 -0.0135643 0)
(-0.173237 -0.0134733 0)
(-0.168334 -0.0133713 0)
(-0.16344 -0.0132578 0)
(-0.158554 -0.0131323 0)
(-0.153676 -0.0129942 0)
(-0.148803 -0.0128422 0)
(-0.143934 -0.0126754 0)
(-0.139066 -0.0124925 0)
(-0.134198 -0.0122918 0)
(-0.129327 -0.0120715 0)
(-0.12445 -0.0118296 0)
(-0.119565 -0.0115637 0)
(-0.114669 -0.0112717 0)
(-0.109761 -0.0109522 0)
(-0.104841 -0.0106051 0)
(-0.0999084 -0.0102311 0)
(-0.094968 -0.0098321 0)
(-0.0900249 -0.00940993 0)
(-0.0850858 -0.00896662 0)
(-0.0801574 -0.00850454 0)
(-0.0752461 -0.00802745 0)
(-0.070358 -0.00754181 0)
(-0.0654998 -0.00705778 0)
(-0.0606807 -0.0065896 0)
(-0.0559135 -0.00615461 0)
(-0.051215 -0.00577004 0)
(-0.046603 -0.00544831 0)
(-0.0420909 -0.00519331 0)
(-0.0376878 -0.00500034 0)
(-0.0333988 -0.00485936 0)
(-0.0292259 -0.00476076 0)
(-0.0251729 -0.00470008 0)
(-0.0212513 -0.00467797 0)
(-0.0174814 -0.00469612 0)
(-0.013889 -0.00475123 0)
(-0.0104963 -0.00483015 0)
(-0.00731228 -0.00490918 0)
(-0.00432672 -0.00495847 0)
(-0.0015133 -0.00494964 0)
(0.00116282 -0.00486425 0)
(0.00372576 -0.00470009 0)
(0.00619663 -0.00447262 0)
(0.00857552 -0.00421053 0)
(0.0108586 -0.00394597 0)
(0.0130417 -0.00370192 0)
(0.01511 -0.00349061 0)
(0.0170634 -0.00330974 0)
(0.0188977 -0.00314918 0)
(0.0206101 -0.00299988 0)
(0.0221999 -0.00285584 0)
(0.0236687 -0.00271568 0)
(0.0250126 -0.00257948 0)
(0.0262297 -0.00244923 0)
(0.0273228 -0.00232334 0)
(0.0282892 -0.00220512 0)
(0.0291328 -0.00209165 0)
(0.0298473 -0.00198424 0)
(0.0304331 -0.00188266 0)
(0.030894 -0.00178348 0)
(0.0312289 -0.00168925 0)
(0.0314387 -0.00159802 0)
(0.0315228 -0.00151141 0)
(0.0314838 -0.0014296 0)
(0.0313228 -0.00135018 0)
(0.0310395 -0.0012736 0)
(0.0306356 -0.00120041 0)
(0.0301141 -0.00113207 0)
(0.0294753 -0.00106547 0)
(0.0287235 -0.00100378 0)
(0.0278612 -0.000946218 0)
(0.0268891 -0.000892138 0)
(0.0258157 -0.000840363 0)
(0.0246423 -0.000792723 0)
(0.0233704 -0.000748122 0)
(0.0220094 -0.000706902 0)
(0.0205613 -0.000670109 0)
(0.0190327 -0.000637144 0)
(0.0174305 -0.000606605 0)
(0.0157583 -0.000580572 0)
(0.0140263 -0.000558927 0)
(0.0122382 -0.000541321 0)
(0.010404 -0.00052684 0)
(0.0085582 -0.000506609 0)
(0.00657867 -0.000456641 0)
(0.00469821 -0.000792296 0)
(0.0027926 -0.00157545 0)
(0.00175339 0.00048692 0)
(6.84983e-05 -0.00726294 0)
(0.00338726 -0.0133568 0)
(0.00661732 -0.0116786 0)
(0.00910498 -0.0104761 0)
(0.0116738 -0.0102275 0)
(0.0140882 -0.0102151 0)
(0.0165855 -0.0101661 0)
(0.0190329 -0.0100714 0)
(0.0214635 -0.0099547 0)
(0.0238672 -0.00982487 0)
(0.0262407 -0.00968292 0)
(0.0285785 -0.00952806 0)
(0.0308781 -0.00935995 0)
(0.0331382 -0.00917837 0)
(0.0353552 -0.00898396 0)
(0.0375257 -0.00877541 0)
(0.0396466 -0.00855527 0)
(0.041715 -0.00832286 0)
(0.0437278 -0.00807845 0)
(0.0456818 -0.00782112 0)
(0.0475744 -0.00755318 0)
(0.0494027 -0.00727434 0)
(0.0511634 -0.00698227 0)
(0.0528546 -0.00667917 0)
(0.0544734 -0.00636611 0)
(0.0560181 -0.00604206 0)
(0.0574846 -0.00570724 0)
(0.0588693 -0.00536343 0)
(0.0601689 -0.00500935 0)
(0.0613814 -0.0046459 0)
(0.062508 -0.00427421 0)
(0.0635435 -0.00389248 0)
(0.0644836 -0.00350445 0)
(0.0653285 -0.00310852 0)
(0.0660768 -0.00270333 0)
(0.0667279 -0.00229172 0)
(0.0672739 -0.0018709 0)
(0.0677133 -0.00144536 0)
(0.0680498 -0.0010145 0)
(0.0682836 -0.00057919 0)
(0.0684119 -0.000138623 0)
(0.0684238 0.000309766 0)
(0.0683256 0.000763683 0)
(0.0681098 0.00122306 0)
(0.0677716 0.00168568 0)
(0.0673212 0.00215269 0)
(0.0667547 0.00262676 0)
(0.0660696 0.00310241 0)
(0.0652703 0.00357933 0)
(0.0643518 0.00406121 0)
(0.0633116 0.00454464 0)
(0.0621582 0.00502728 0)
(0.0608861 0.00551377 0)
(0.0594902 0.00600443 0)
(0.0579731 0.00650244 0)
(0.0563335 0.00701408 0)
(0.0545598 0.00753322 0)
(0.0526519 0.00804974 0)
(0.0506153 0.00855794 0)
(0.0484512 0.0090505 0)
(0.0461656 0.00953289 0)
(0.0437595 0.0100096 0)
(0.0412377 0.0104809 0)
(0.038601 0.0109487 0)
(0.0358478 0.0114142 0)
(0.0329833 0.0118762 0)
(0.0300074 0.0123331 0)
(0.0269151 0.0127865 0)
(0.0237135 0.013235 0)
(0.0204054 0.0136788 0)
(0.0169863 0.0141172 0)
(0.0134593 0.0145495 0)
(0.00983 0.0149772 0)
(0.00609482 0.0153977 0)
(0.0022565 0.015808 0)
(-0.00167912 0.0162167 0)
(-0.00572382 0.0166206 0)
(-0.00986956 0.0170155 0)
(-0.0141069 0.0174005 0)
(-0.0184385 0.0177778 0)
(-0.0228627 0.0181468 0)
(-0.0273781 0.0185075 0)
(-0.0319838 0.0188591 0)
(-0.036678 0.0191997 0)
(-0.0414584 0.0195283 0)
(-0.0463223 0.019844 0)
(-0.0512663 0.0201477 0)
(-0.056287 0.020442 0)
(-0.0613812 0.0207299 0)
(-0.0665461 0.021013 0)
(-0.0717801 0.0212907 0)
(-0.0770807 0.0215621 0)
(-0.0824458 0.021826 0)
(-0.0878731 0.0220814 0)
(-0.0933604 0.0223276 0)
(-0.0989055 0.0225637 0)
(-0.104506 0.0227892 0)
(-0.110159 0.0230039 0)
(-0.115862 0.0232074 0)
(-0.121612 0.0233994 0)
(-0.127408 0.0235794 0)
(-0.133245 0.0237476 0)
(-0.139122 0.0239041 0)
(-0.145035 0.0240486 0)
(-0.150981 0.0241812 0)
(-0.156958 0.0243017 0)
(-0.162963 0.02441 0)
(-0.168992 0.0245066 0)
(-0.175043 0.024591 0)
(-0.181114 0.0246626 0)
(-0.1872 0.0247219 0)
(-0.1933 0.0247688 0)
(-0.19941 0.0248031 0)
(-0.205526 0.0248248 0)
(-0.211646 0.0248338 0)
(-0.217767 0.0248301 0)
(-0.223886 0.0248137 0)
(-0.229998 0.0247844 0)
(-0.236102 0.0247419 0)
(-0.242194 0.0246869 0)
(-0.248271 0.0246196 0)
(-0.25433 0.0245391 0)
(-0.260367 0.0244456 0)
(-0.26638 0.0243394 0)
(-0.272366 0.0242205 0)
(-0.27832 0.0240888 0)
(-0.28424 0.0239444 0)
(-0.290124 0.0237874 0)
(-0.295967 0.0236179 0)
(-0.301767 0.0234358 0)
(-0.30752 0.0232412 0)
(-0.313224 0.0230341 0)
(-0.318876 0.0228147 0)
(-0.324472 0.0225831 0)
(-0.33001 0.0223393 0)
(-0.335487 0.0220834 0)
(-0.340898 0.0218156 0)
(-0.346243 0.0215358 0)
(-0.351517 0.0212443 0)
(-0.356719 0.0209412 0)
(-0.361844 0.0206267 0)
(-0.36689 0.020301 0)
(-0.371855 0.0199642 0)
(-0.376736 0.0196166 0)
(-0.38153 0.0192583 0)
(-0.386234 0.0188897 0)
(-0.390847 0.0185108 0)
(-0.395365 0.018122 0)
(-0.399786 0.0177234 0)
(-0.404107 0.0173153 0)
(-0.408327 0.0168978 0)
(-0.412443 0.0164714 0)
(-0.416452 0.0160361 0)
(-0.420353 0.0155923 0)
(-0.424144 0.0151403 0)
(-0.427822 0.0146803 0)
(-0.431386 0.0142127 0)
(-0.434833 0.0137378 0)
(-0.438162 0.0132559 0)
(-0.441371 0.0127672 0)
(-0.444459 0.0122721 0)
(-0.447423 0.0117709 0)
(-0.450263 0.0112638 0)
(-0.452977 0.0107512 0)
(-0.455562 0.0102335 0)
(-0.458019 0.00971091 0)
(-0.460346 0.00918384 0)
(-0.462542 0.0086526 0)
(-0.464605 0.00811756 0)
(-0.466534 0.00757904 0)
(-0.468329 0.0070374 0)
(-0.469988 0.00649305 0)
(-0.471512 0.00594634 0)
(-0.472899 0.00539761 0)
(-0.474148 0.00484722 0)
(-0.47526 0.00429556 0)
(-0.476233 0.00374294 0)
(-0.477068 0.00318964 0)
(-0.477764 0.00263598 0)
(-0.478321 0.00208228 0)
(-0.47874 0.00152885 0)
(-0.479021 0.000976015 0)
(-0.479164 0.000424496 0)
(-0.479157 -0.000124307 0)
(-0.479 -0.000672573 0)
(-0.47871 -0.00121628 0)
(-0.478287 -0.00175512 0)
(-0.477725 -0.00228663 0)
(-0.477025 -0.00281297 0)
(-0.476185 -0.00333555 0)
(-0.475206 -0.00385476 0)
(-0.474089 -0.00437091 0)
(-0.472834 -0.00488416 0)
(-0.471443 -0.00539461 0)
(-0.469916 -0.00590232 0)
(-0.468254 -0.00640756 0)
(-0.466458 -0.00691079 0)
(-0.464529 -0.00741259 0)
(-0.46247 -0.00791368 0)
(-0.460283 -0.00841477 0)
(-0.45797 -0.00891591 0)
(-0.455536 -0.0094155 0)
(-0.452986 -0.00990977 0)
(-0.450329 -0.0103932 0)
(-0.447575 -0.0108597 0)
(-0.444735 -0.011305 0)
(-0.441816 -0.0117286 0)
(-0.438824 -0.0121343 0)
(-0.435755 -0.0125292 0)
(-0.432606 -0.0129207 0)
(-0.429366 -0.0133143 0)
(-0.426027 -0.0137119 0)
(-0.422583 -0.0141118 0)
(-0.419031 -0.0145101 0)
(-0.415372 -0.0149026 0)
(-0.411612 -0.0152862 0)
(-0.407754 -0.0156593 0)
(-0.403806 -0.0160219 0)
(-0.399771 -0.0163742 0)
(-0.395653 -0.0167168 0)
(-0.391456 -0.0170498 0)
(-0.387184 -0.0173728 0)
(-0.382839 -0.0176855 0)
(-0.378425 -0.0179873 0)
(-0.373947 -0.0182779 0)
(-0.369408 -0.0185569 0)
(-0.364812 -0.0188246 0)
(-0.360163 -0.0190811 0)
(-0.355463 -0.0193264 0)
(-0.350716 -0.0195607 0)
(-0.345924 -0.0197841 0)
(-0.341092 -0.0199965 0)
(-0.336222 -0.0201981 0)
(-0.331317 -0.0203888 0)
(-0.32638 -0.0205686 0)
(-0.321414 -0.0207375 0)
(-0.316421 -0.0208956 0)
(-0.311405 -0.0210427 0)
(-0.306368 -0.021179 0)
(-0.301313 -0.0213045 0)
(-0.296241 -0.0214193 0)
(-0.291156 -0.0215233 0)
(-0.28606 -0.0216167 0)
(-0.280955 -0.0216996 0)
(-0.275844 -0.021772 0)
(-0.270727 -0.0218341 0)
(-0.265608 -0.021886 0)
(-0.260487 -0.0219278 0)
(-0.255368 -0.0219597 0)
(-0.25025 -0.0219817 0)
(-0.245137 -0.021994 0)
(-0.240029 -0.0219968 0)
(-0.234928 -0.0219901 0)
(-0.229835 -0.0219742 0)
(-0.224751 -0.0219491 0)
(-0.219678 -0.0219149 0)
(-0.214616 -0.0218718 0)
(-0.209567 -0.0218197 0)
(-0.204532 -0.0217589 0)
(-0.199512 -0.0216892 0)
(-0.194508 -0.0216108 0)
(-0.18952 -0.0215236 0)
(-0.18455 -0.0214276 0)
(-0.179598 -0.0213229 0)
(-0.174667 -0.0212093 0)
(-0.169755 -0.0210866 0)
(-0.164865 -0.0209548 0)
(-0.159997 -0.0208136 0)
(-0.155151 -0.0206628 0)
(-0.150328 -0.0205019 0)
(-0.145528 -0.0203305 0)
(-0.140751 -0.0201478 0)
(-0.135996 -0.0199528 0)
(-0.131262 -0.0197445 0)
(-0.126548 -0.0195214 0)
(-0.121852 -0.0192816 0)
(-0.117172 -0.0190226 0)
(-0.112504 -0.0187416 0)
(-0.107846 -0.0184361 0)
(-0.103195 -0.0181044 0)
(-0.0985516 -0.0177463 0)
(-0.0939123 -0.0173632 0)
(-0.0892766 -0.0169574 0)
(-0.0846438 -0.0165329 0)
(-0.0800145 -0.0160945 0)
(-0.075391 -0.0156483 0)
(-0.0707793 -0.0152009 0)
(-0.06619 -0.0147588 0)
(-0.0616392 -0.0143279 0)
(-0.0571473 -0.0139127 0)
(-0.0527367 -0.0135173 0)
(-0.048427 -0.0131461 0)
(-0.0442311 -0.0128031 0)
(-0.0401577 -0.0124908 0)
(-0.0362144 -0.0122076 0)
(-0.0324098 -0.0119459 0)
(-0.028754 -0.0116903 0)
(-0.0252592 -0.011419 0)
(-0.0219364 -0.0111102 0)
(-0.0187924 -0.0107502 0)
(-0.0158257 -0.0103407 0)
(-0.013025 -0.00989871 0)
(-0.01037 -0.00944949 0)
(-0.00783594 -0.00901756 0)
(-0.00539875 -0.00861297 0)
(-0.00304315 -0.00823907 0)
(-0.000761066 -0.00788149 0)
(0.00144047 -0.00753303 0)
(0.00354798 -0.00718355 0)
(0.00555601 -0.00683045 0)
(0.00745805 -0.00647541 0)
(0.00925123 -0.00612036 0)
(0.0109343 -0.00576293 0)
(0.0125067 -0.00540807 0)
(0.0139683 -0.00505872 0)
(0.0153244 -0.00471114 0)
(0.0165685 -0.00436726 0)
(0.0176992 -0.00402358 0)
(0.0187193 -0.00368516 0)
(0.0196248 -0.00334958 0)
(0.020424 -0.00301626 0)
(0.02111 -0.00268708 0)
(0.0216808 -0.00236034 0)
(0.0221418 -0.00203668 0)
(0.0224886 -0.00171838 0)
(0.0227255 -0.0014038 0)
(0.0228551 -0.00109475 0)
(0.0228742 -0.000789341 0)
(0.0227804 -0.000490762 0)
(0.0225815 -0.000199344 0)
(0.0222752 8.44984e-05 0)
(0.0218587 0.000364073 0)
(0.0213417 0.000635901 0)
(0.0207253 0.000900798 0)
(0.0200107 0.00115571 0)
(0.0192012 0.00140045 0)
(0.0183001 0.00163487 0)
(0.0173104 0.00185801 0)
(0.0162365 0.00206742 0)
(0.0150839 0.00226319 0)
(0.0138568 0.00244455 0)
(0.012561 0.00261015 0)
(0.011204 0.00275785 0)
(0.00978806 0.00288525 0)
(0.00832155 0.00299844 0)
(0.00683034 0.00313216 0)
(0.00518374 0.00323228 0)
(0.00371972 0.00272503 0)
(0.00234479 0.00122459 0)
(0.00178969 0.00494649 0)
(0.000183539 -0.0104698 0)
(0.00358396 -0.0190509 0)
(0.00690992 -0.0167219 0)
(0.00952237 -0.0150068 0)
(0.0122312 -0.0146446 0)
(0.0147801 -0.0146254 0)
(0.0174042 -0.0145564 0)
(0.0199752 -0.0144214 0)
(0.022526 -0.0142539 0)
(0.0250447 -0.0140675 0)
(0.0275287 -0.0138624 0)
(0.0299749 -0.0136397 0)
(0.0323784 -0.0133974 0)
(0.0347363 -0.0131348 0)
(0.0370488 -0.0128542 0)
(0.0393085 -0.0125554 0)
(0.0415109 -0.0122379 0)
(0.0436566 -0.0119022 0)
(0.0457442 -0.0115494 0)
(0.0477657 -0.0111795 0)
(0.0497166 -0.0107908 0)
(0.0516007 -0.0103867 0)
(0.0534121 -0.00996668 0)
(0.0551448 -0.00952871 0)
(0.0567995 -0.00907658 0)
(0.0583748 -0.00860987 0)
(0.0598636 -0.00812722 0)
(0.0612659 -0.00763183 0)
(0.0625807 -0.00712285 0)
(0.0638014 -0.00659917 0)
(0.064932 -0.00606308 0)
(0.0659661 -0.00551291 0)
(0.0668984 -0.00495161 0)
(0.0677346 -0.00437807 0)
(0.0684684 -0.00379255 0)
(0.0691014 -0.00319726 0)
(0.0696278 -0.00259149 0)
(0.070043 -0.00197603 0)
(0.0703524 -0.00135028 0)
(0.0705505 -0.00071618 0)
(0.070633 -7.59267e-05 0)
(0.0705991 0.000571378 0)
(0.0704528 0.00122566 0)
(0.0701957 0.00188206 0)
(0.0698229 0.00254557 0)
(0.0693376 0.00321319 0)
(0.0687329 0.00388542 0)
(0.068004 0.00456063 0)
(0.0671629 0.00523878 0)
(0.0661997 0.00591828 0)
(0.06511 0.00660149 0)
(0.0639018 0.00728546 0)
(0.0625711 0.00796799 0)
(0.0611176 0.00865084 0)
(0.059545 0.00933233 0)
(0.057852 0.0100105 0)
(0.0560417 0.0106858 0)
(0.0541247 0.0113583 0)
(0.0520929 0.0120283 0)
(0.0499413 0.0126954 0)
(0.0476757 0.0133605 0)
(0.045289 0.0140214 0)
(0.04278 0.0146797 0)
(0.0401566 0.0153361 0)
(0.0374168 0.0159869 0)
(0.0345568 0.0166342 0)
(0.0315844 0.0172748 0)
(0.0284993 0.0179102 0)
(0.0253015 0.0185397 0)
(0.0219942 0.0191626 0)
(0.0185771 0.0197772 0)
(0.0150526 0.0203848 0)
(0.0114227 0.0209845 0)
(0.00768648 0.0215731 0)
(0.00384898 0.0221544 0)
(-8.49906e-05 0.0227251 0)
(-0.0041251 0.0232868 0)
(-0.00827087 0.0238435 0)
(-0.0125107 0.0243849 0)
(-0.0168413 0.0249165 0)
(-0.0212631 0.0254371 0)
(-0.0257743 0.0259463 0)
(-0.0303737 0.0264443 0)
(-0.0350587 0.0269315 0)
(-0.0398279 0.0274073 0)
(-0.0446805 0.0278719 0)
(-0.049616 0.0283251 0)
(-0.0546323 0.0287664 0)
(-0.0597268 0.0291952 0)
(-0.0648975 0.0296112 0)
(-0.0701397 0.0300136 0)
(-0.0754502 0.0304017 0)
(-0.0808264 0.0307751 0)
(-0.0862658 0.0311336 0)
(-0.0917659 0.031477 0)
(-0.0973237 0.0318049 0)
(-0.102936 0.0321171 0)
(-0.108601 0.0324137 0)
(-0.114316 0.0326942 0)
(-0.120079 0.0329582 0)