/*--------------------------------*- C++ -*----------------------------------*\
| =========                 |                                                 |
| \\      /  F ield         | OpenFOAM: The Open Source CFD Toolbox           |
|  \\    /   O peration     | Version:  v2006                                 |
|   \\  /    A nd           | Website:  www.openfoam.com                      |
|    \\/     M anipulation  |                                                 |
\*---------------------------------------------------------------------------*/
FoamFile
{
    version     2.0;
    format      ascii;
    class       surfaceScalarField;
    location    "8";
    object      alphaPhi0.water;
}
// * * * * * * * * * * * * * * * * * * * * * * * * * * * * * * * * * * * * * //

dimensions      [0 3 -1 0 0 0 0];
oriented        oriented;


internalField   nonuniform List<scalar> 
299200
(
0.000105666
-0.000105666
0.000316189
-0.000210523
0.000531328
-0.00021514
0.000734404
-0.000203076
0.000934669
-0.000200265
0.00113311
-0.000198442
0.00133038
-0.000197272
0.00152667
-0.000196291
0.00172197
-0.000195292
0.00191621
-0.000194239
0.00210937
-0.000193164
0.00230154
-0.000192173
0.00249314
-0.000191594
0.00268455
-0.000191413
0.00287628
-0.000191728
0.00306886
-0.000192579
0.00326264
-0.000193784
0.00345829
-0.000195653
0.00365623
-0.000197936
0.00385672
-0.000200486
0.00406025
-0.000203536
0.00426713
-0.000206881
0.00447749
-0.000210356
0.00469153
-0.000214045
0.00490934
-0.000217809
0.00513102
-0.000221679
0.00535651
-0.000225485
0.00558556
-0.000229051
0.00581812
-0.000232564
0.00605438
-0.000236254
0.00629427
-0.000239894
0.00653856
-0.000244291
0.00678835
-0.000249786
0.00704488
-0.000256535
0.00730987
-0.000264989
0.00758487
-0.000274995
0.0078704
-0.000285534
0.00816534
-0.000294939
0.00846756
-0.000302224
0.00877593
-0.000308371
0.00908681
-0.000310881
0.00939894
-0.000312126
0.00971249
-0.000313545
0.0100293
-0.000316778
0.0103522
-0.000322891
0.0106809
-0.000328773
0.0110189
-0.000337937
0.0113684
-0.000349549
0.01173
-0.000361596
0.0121025
-0.000372462
0.0124834
-0.000380888
0.0128697
-0.00038639
0.013259
-0.00038922
0.0136494
-0.000390405
0.0140411
-0.000391743
0.0144364
-0.000395318
0.0148388
-0.000402384
0.0152543
-0.000415466
0.0156924
-0.000438128
0.0161657
-0.000473331
0.0166871
-0.000521399
0.0172652
-0.000578048
0.0179017
-0.000636543
0.0185897
-0.000687982
0.0193143
-0.000724551
0.0200517
-0.00073748
0.0207777
-0.000725998
0.0214726
-0.000694827
0.0221269
-0.000654301
0.0227418
-0.000614924
0.0233263
-0.00058454
0.0238916
-0.000565267
0.0244467
-0.000555115
0.0249973
-0.000550577
0.0255464
-0.000549149
0.0260962
-0.000549771
0.0266486
-0.000552418
0.0272058
-0.000557211
0.0277698
-0.000563932
0.0283419
-0.000572087
0.028923
-0.000581128
0.0295136
-0.000590604
0.0301138
-0.000600209
0.0307235
-0.000609737
0.0313426
-0.000619016
0.0319704
-0.000627861
0.0326065
-0.000636054
0.0332498
-0.000643373
0.0338995
-0.000649647
0.0345543
-0.000654823
0.0352133
-0.000659027
0.0358759
-0.000662551
0.0365417
-0.000665762
0.0372105
-0.000668885
0.0378823
-0.00067176
0.038556
-0.00067368
0.0392294
-0.000673469
0.0398993
-0.00066984
0.0405613
-0.000661981
0.0412114
-0.000650155
0.0418475
-0.00063605
0.0424701
-0.000622626
0.0430835
-0.000613379
0.0436946
-0.000611132
0.0443112
-0.000616568
0.0449381
-0.000626907
0.0455734
-0.000635314
0.0462053
-0.000631932
0.0468124
-0.000607066
0.0473682
-0.000555821
0.04785
-0.000481796
0.0482473
-0.000397267
0.0485662
-0.000318909
0.0488274
-0.000261165
0.0490583
-0.000230969
0.049285
-0.000226695
0.0495262
-0.000241216
0.0497925
-0.000266269
0.0500881
-0.000295591
0.0504139
-0.000325835
0.0507694
-0.000355503
0.0511534
-0.000383949
0.0515643
-0.000410883
0.0520003
-0.000436054
0.0524595
-0.000459224
0.0529397
-0.000480194
0.0534386
-0.000498843
0.0539537
-0.000515138
0.0544828
-0.000529127
0.0550238
-0.000540918
0.0555744
-0.000550657
0.0561329
-0.000558513
0.0566976
-0.000564667
0.0572669
-0.000569308
0.0578395
-0.000572631
0.0584144
-0.00057483
0.0589905
-0.000576102
0.0595671
-0.000576631
0.0601437
-0.000576591
0.0607198
-0.000576133
0.0612952
-0.000575384
0.0618697
-0.000574444
0.062443
-0.000573391
0.0630153
-0.000572285
0.0635865
-0.00057118
0.0641566
-0.000570133
0.0647259
-0.000569207
0.0652943
-0.000568467
0.0658623
-0.000567975
0.0664301
-0.000567766
0.0669979
-0.000567841
0.067566
-0.000568146
0.0681346
-0.000568572
0.0687036
-0.000568976
0.0692728
-0.000569206
0.0698419
-0.000569147
0.0704107
-0.000568759
0.0709788
-0.000568109
0.0715462
-0.000567371
0.072113
-0.000566802
0.0726797
-0.000566675
0.0732469
-0.000567223
0.0738155
-0.000568582
0.0743863
-0.000570786
0.07496
-0.000573787
0.0755375
-0.000577499
0.0761194
-0.000581875
0.0767064
-0.000586954
0.0772993
-0.000592881
0.0778991
-0.000599834
0.078507
-0.000607868
0.0791236
-0.000616663
0.0797488
-0.000625212
0.0803804
-0.000631526
0.0810127
-0.000632378
0.0816358
-0.00062305
0.0822326
-0.000596789
0.0827763
-0.000543707
0.0832263
-0.000450027
0.0835289
-0.000302545
0.0836415
-0.000112666
0.0835748
6.67527e-05
0.0834018
0.000172997
0.0831808
0.000220977
0.0829234
0.000257369
0.0826254
0.000297982
0.0822854
0.000340036
0.0819086
0.000376844
0.0815055
0.000403089
0.0810906
0.000414908
0.0806807
0.000409826
0.0802925
0.000388263
0.0799445
0.000347937
0.0796552
0.000289295
0.07944
0.000215202
0.0793085
0.000131572
0.0792578
5.06351e-05
0.0792759
-1.80393e-05
0.0793498
-7.3922e-05
0.0794701
-0.000120281
0.079633
-0.000162926
0.0798321
-0.000199133
0.0800612
-0.000229076
0.0803148
-0.000253602
0.0805876
-0.000272769
0.0808751
-0.000287494
0.0811737
-0.000298649
0.0814804
-0.000306721
0.0817924
-0.000311922
0.0821066
-0.00031428
0.0824204
-0.000313719
0.0827305
-0.000310126
0.0830339
-0.000303397
0.0833274
-0.000293468
0.0836077
-0.000280322
0.0838717
-0.00026397
0.0841161
-0.000244427
0.0843378
-0.000221696
0.0845335
-0.000195769
0.0847002
-0.00016664
0.0848345
-0.000134335
0.0849335
-9.90034e-05
0.0849947
-6.1179e-05
0.0850179
-2.32317e-05
0.0850051
1.28081e-05
0.0849617
4.34535e-05
0.0848917
6.99655e-05
0.0847962
9.55487e-05
0.0846758
0.000120355
0.0845321
0.000143654
0.0843676
0.00016451
0.0841856
0.00018208
0.0839896
0.00019593
0.0837834
0.000206271
0.0835702
0.000213122
0.0833512
0.00021908
0.0831259
0.000225211
0.0828936
0.000232353
0.0826532
0.00024037
0.0824052
0.000247982
0.082152
0.000253212
0.0818974
0.000254639
0.0816457
0.000251699
0.0814003
0.000245385
0.0811619
0.00023838
0.0809277
0.000234238
0.0806917
0.000236
0.080447
0.000244689
0.0801869
0.00026008
0.0799062
0.000280673
0.0796021
0.00030416
0.0792736
0.000328449
0.0789214
0.000352185
0.0785466
0.000374853
0.07815
0.00039657
0.0777323
0.000417751
0.0772935
0.000438819
0.0768334
0.000460065
0.0763518
0.000481614
0.0758483
0.000503471
0.0753227
0.000525581
0.0747749
0.000547873
0.0742046
0.000570286
0.0736118
0.000592769
0.0729965
0.000615283
0.0723587
0.000637793
0.0716985
0.000660261
0.0710158
0.000682651
0.0703109
0.000704922
0.0695839
0.000727035
0.0688349
0.000748954
0.0680643
0.000770639
0.0672722
0.000792054
0.066459
0.00081316
0.0656251
0.000833919
0.0647708
0.000854289
0.0638966
0.00087423
0.0630029
0.000893703
0.0620902
0.000912668
0.0611591
0.000931091
0.0602102
0.000948941
0.059244
0.000966186
0.0582612
0.000982794
0.0572625
0.000998733
0.0562485
0.00101398
0.05522
0.00102852
0.0541777
0.00104231
0.0531224
0.00105532
0.0520548
0.00106755
0.0509758
0.00107898
0.0498862
0.00108961
0.0487868
0.00109941
0.0476784
0.00110838
0.0465619
0.00111649
0.0454382
0.00112376
0.044308
0.00113019
0.0431722
0.00113574
0.0420318
0.00114045
0.0408875
0.00114431
0.0397402
0.00114732
0.0385907
0.00114949
0.0374398
0.00115085
0.0362884
0.00115139
0.0351373
0.00115112
0.0339872
0.00115006
0.032839
0.00114824
0.0316933
0.0011457
0.0305509
0.00114243
0.0294124
0.00113845
0.0282786
0.00113379
0.0271501
0.0011285
0.0260275
0.00112258
0.0249114
0.00111614
0.0238023
0.00110909
0.0227008
0.00110147
0.0216075
0.00109333
0.0205227
0.00108484
0.0194468
0.00107585
0.0183803
0.00106647
0.0173236
0.00105676
0.0162769
0.0010467
0.0152405
0.00103641
0.0142146
0.00102583
0.0131999
0.00101472
0.0121962
0.00100375
0.0112035
0.000992634
0.0102223
0.000981189
0.00925273
0.000969615
0.00829491
0.00095782
0.00734892
0.000945993
0.00641492
0.000934001
0.00549297
0.000921949
0.00458323
0.000909736
0.00368565
0.000897589
0.00280041
0.000885232
0.00192721
0.0008732
0.001066
0.00086121
0.000216624
0.000849381
-0.000621166
0.00083779
-0.00144693
0.000825767
-0.00226095
0.000814018
-0.00306289
0.000801934
-0.00385215
0.000789264
-0.00462789
0.000775741
-0.00538895
0.000761064
-0.00613405
0.000745093
-0.0068619
0.000727852
-0.00757142
0.00070952
-0.00826195
0.000690535
-0.0089334
0.000671442
-0.00958621
0.000652818
-0.0102214
0.000635155
-0.0108401
0.00061876
-0.0114439
0.00060375
-0.0120339
0.000589998
-0.0126111
0.000577176
-0.0131761
0.000565009
-0.0137292
0.000553186
-0.0142707
0.000541416
-0.0148002
0.000529566
-0.0153178
0.000517616
-0.0158235
0.000505641
-0.0163173
0.000493775
-0.0167994
0.000482158
-0.0172703
0.000470864
-0.0177302
0.000459873
-0.0181793
0.000449125
-0.0186178
0.000438514
-0.0190457
0.000427903
-0.0194629
0.00041716
-0.0198691
0.000406254
-0.0202643
0.000395199
-0.0206484
0.00038404
-0.0210211
0.000372791
-0.0213826
0.000361497
-0.0217328
0.000350183
-0.0220717
0.000338865
-0.0223992
0.000327533
-0.0227154
0.000316181
-0.0230202
0.000304793
-0.0233136
0.000293368
-0.0235955
0.000281924
-0.023866
0.000270471
-0.024125
0.000259014
-0.0243726
0.000247599
-0.0246088
0.000236257
-0.0248338
0.00022502
-0.0250477
0.000213874
-0.0252505
0.000202764
-0.0254421
0.000191639
-0.0256226
0.000180472
-0.0257918
0.000169237
-0.0259498
0.000157917
-0.0260963
0.000146506
-0.0262313
0.000135011
-0.0263547
0.00012345
-0.0264666
0.000111837
-0.0265668
0.000100194
-0.0266553
8.85455e-05
-0.0267322
7.69075e-05
-0.0267975
6.5278e-05
-0.0268512
5.36759e-05
-0.0268933
4.21388e-05
-0.026924
3.06792e-05
-0.0269432
1.92704e-05
-0.026951
7.77521e-06
-0.0269465
-4.47193e-06
-0.0269304
-1.61894e-05
-0.0269024
-2.79865e-05
-0.026863
-3.93745e-05
-0.0268126
-5.04157e-05
-0.0267515
-6.10656e-05
-0.0266801
-7.14091e-05
-0.0265987
-8.1429e-05
-0.0265075
-9.11332e-05
-0.026407
-0.000100537
-0.0262974
-0.000109628
-0.026179
-0.000118412
-0.0260521
-0.00012688
-0.0259171
-0.000135028
-0.0257742
-0.000142854
-0.0256238
-0.000150361
-0.0254663
-0.000157563
-0.0253019
-0.000164426
-0.0251309
-0.000170961
-0.0249537
-0.00017719
-0.0247706
-0.000183101
-0.0245819
-0.000188668
-0.024388
-0.000193893
-0.0241893
-0.000198775
-0.023986
-0.000203303
-0.0237785
-0.000207451
-0.0235674
-0.000211146
-0.0233532
-0.000214137
-0.0231373
-0.000215889
-0.0229217
-0.000215665
-0.0227087
-0.000212996
-0.0225003
-0.000208343
-0.0222971
-0.000203273
-0.0220973
-0.000199783
-0.021898
-0.000199253
-0.0216963
-0.0002017
-0.0214903
-0.000206052
-0.0212793
-0.000211027
-0.0210633
-0.000215915
-0.0208427
-0.000220671
-0.0206171
-0.000225522
-0.0203865
-0.000230669
-0.0201503
-0.000236207
-0.0199081
-0.000242126
-0.0196597
-0.000248399
-0.0194047
-0.000255011
-0.0191428
-0.000261894
-0.0188739
-0.00026895
-0.0185978
-0.000276103
-0.0183145
-0.000283269
-0.0180242
-0.000290366
-0.0177268
-0.000297315
-0.0174227
-0.000304087
-0.0171121
-0.000310684
-0.0167949
-0.000317132
-0.0164715
-0.000323447
-0.0161419
-0.000329614
-0.0158062
-0.000335623
-0.0154647
-0.000341507
-0.0151175
-0.00034727
-0.0147646
-0.000352908
-0.0144061
-0.000358423
-0.0140423
-0.000363849
-0.0136731
-0.000369196
-0.0132986
-0.000374463
-0.012919
-0.000379625
-0.0125343
-0.000384691
-0.0121446
-0.000389694
-0.0117499
-0.000394712
-0.0113502
-0.000399674
-0.0109457
-0.000404575
-0.0105362
-0.000409438
-0.010122
-0.000414266
-0.00970287
-0.000419085
-0.00927902
-0.000423858
-0.00885038
-0.000428634
-0.00841691
-0.000433469
-0.00797851
-0.000438406
-0.00753501
-0.000443496
-0.00708617
-0.000448842
-0.00663169
-0.000454475
-0.00617146
-0.000460235
-0.00570539
-0.000466066
-0.00523353
-0.000471866
-0.00475553
-0.000478
-0.00427035
-0.000485174
-0.00377633
-0.00049402
-0.00327139
-0.000504945
-0.00275125
-0.000520138
-0.0022048
-0.00054645
-0.00161146
-0.000593344
-0.000961948
-0.000649507
-0.000353008
-0.00060894
-0.000353008
-0.000266573
0.000160907
-0.000506527
2.94313e-05
-0.000772906
5.12388e-05
-0.0010392
6.32178e-05
-0.00130328
6.38121e-05
-0.00156724
6.55176e-05
-0.00183124
6.67299e-05
-0.00209503
6.75026e-05
-0.00235807
6.77413e-05
-0.00261946
6.71511e-05
-0.00287812
6.55049e-05
-0.00313284
6.25452e-05
-0.00338256
5.81263e-05
-0.00362621
5.22349e-05
-0.00386283
4.48949e-05
-0.00409169
3.62742e-05
-0.00431207
2.65945e-05
-0.00452374
1.60257e-05
-0.00472659
4.91195e-06
-0.00492064
-6.43734e-06
-0.0051059
-1.82773e-05
-0.00528266
-3.01224e-05
-0.0054512
-4.18116e-05
-0.00561218
-5.30688e-05
-0.00576604
-6.39512e-05
-0.00591332
-7.4398e-05
-0.00605369
-8.51094e-05
-0.00618632
-9.64212e-05
-0.0063085
-0.000110387
-0.00641588
-0.000128872
-0.00650274
-0.000153037
-0.00656485
-0.000182179
-0.00660119
-0.000213445
-0.00661388
-0.000243848
-0.00660859
-0.00027028
-0.00659467
-0.000288914
-0.00658429
-0.000295915
-0.00659094
-0.00028829
-0.00662387
-0.000269288
-0.00668582
-0.000246429
-0.00676648
-0.000230214
-0.00684763
-0.000230983
-0.00690589
-0.000255279
-0.00691725
-0.000305421
-0.00686239
-0.000377752
-0.00672963
-0.000461529
-0.00651948
-0.00054809
-0.00624096
-0.000628066
-0.00590609
-0.000696469
-0.00552348
-0.000755071
-0.00509942
-0.000804951
-0.00463779
-0.000848018
-0.00414127
-0.000885736
-0.00361251
-0.000919173
-0.00305504
-0.00094921
-0.00247406
-0.000976296
-0.00187905
-0.000997394
-0.0012724
-0.00102211
-0.000659738
-0.00105079
-4.71951e-05
-0.00108587
0.000560205
-0.0011288
0.00115972
-0.00117757
0.00175155
-0.00122837
0.00233943
-0.00127586
0.00292711
-0.00131223
0.00351858
-0.00132895
0.0041179
-0.00132531
0.00472828
-0.00130521
0.00534995
-0.00127596
0.00598246
-0.00124743
0.00662449
-0.00122657
0.00727469
-0.00121547
0.00793323
-0.00121365
0.00860106
-0.00121841
0.00927933
-0.00122742
0.00996866
-0.0012391
0.0106693
-0.00125301
0.0113809
-0.00126887
0.0121032
-0.00128623
0.0128357
-0.00130455
0.0135778
-0.00132326
0.0143291
-0.00134193
0.0150891
-0.00136021
0.0158573
-0.00137785
0.0166328
-0.0013946
0.0174151
-0.00141016
0.0182034
-0.00142428
0.0189968
-0.00143683
0.0197951
-0.00144789
0.0205981
-0.00145782
0.0214061
-0.0014671
0.0222197
-0.00147613
0.0230389
-0.00148491
0.0238628
-0.00149279
0.0246894
-0.00149841
0.0255157
-0.00149996
0.026338
-0.00149573
0.0271531
-0.00148493
0.0279594
-0.00146838
0.0287582
-0.00144891
0.0295532
-0.001431
0.0303503
-0.00141975
0.0311562
-0.0014193
0.0319764
-0.00143133
0.0328134
-0.00145361
0.0336657
-0.00147916
0.0345266
-0.00149627
0.0353848
-0.0014901
0.0362241
-0.00144637
0.0370248
-0.00135653
0.0377653
-0.00122231
0.0384253
-0.00105725
0.0389902
-0.00088377
0.0394558
-0.000726806
0.0398309
-0.00060602
0.0401351
-0.0005309
0.0403948
-0.000500911
0.0406366
-0.000508113
0.040882
-0.000540913
0.0411436
-0.000587531
0.0414265
-0.000638318
0.0417293
-0.000686778
0.0420479
-0.000729462
0.042377
-0.000765173
0.0427119
-0.000794089
0.0430487
-0.000817035
0.0433849
-0.000835001
0.0437186
-0.000848888
0.0440489
-0.000859416
0.0443751
-0.000867124
0.0446969
-0.000872419
0.045014
-0.000875631
0.0453264
-0.000877059
0.0456341
-0.000876997
0.0459372
-0.000875738
0.0462359
-0.000873573
0.0465306
-0.000870773
0.0468215
-0.000867581
0.0471091
-0.000864198
0.0473938
-0.000860791
0.0476759
-0.000857501
0.0479559
-0.000854454
0.0482343
-0.000851772
0.0485116
-0.000849584
0.0487884
-0.000848009
0.0490654
-0.000847145
0.0493433
-0.000847034
0.0496224
-0.000847637
0.0499033
-0.000848813
0.0501858
-0.000850337
0.0504699
-0.000851942
0.0507552
-0.000853399
0.0510412
-0.000854611
0.051328
-0.000855716
0.0516159
-0.000857151
0.0519064
-0.00085965
0.0522018
-0.000864168
0.0525054
-0.000871721
0.0528213
-0.000883173
0.0531535
-0.000899036
0.0535061
-0.000919334
0.0538825
-0.000943596
0.0542849
-0.000970955
0.0547145
-0.00100035
0.0551714
-0.00103073
0.0556552
-0.00106128
0.0561648
-0.00109152
0.0566992
-0.00112134
0.0572573
-0.00115099
0.0578383
-0.00118084
0.0584417
-0.00121124
0.0590672
-0.00124219
0.0597152
-0.00127314
0.0603864
-0.00130278
0.061083
-0.00132899
0.0618087
-0.00134873
0.0625698
-0.00135791
0.0633771
-0.00135101
0.0642482
-0.00132107
0.0652079
-0.00126224
0.0662715
-0.00117628
0.06741
-0.00107173
0.0685538
-0.000970842
0.0696704
-0.000895578
0.0707689
-0.00084114
0.0718589
-0.000792055
0.0729376
-0.000738705
0.0739932
-0.00067869
0.0750091
-0.000612853
0.0759665
-0.000542515
0.0768442
-0.0004678
0.0776212
-0.000388759
0.0782783
-0.000309125
0.0787972
-0.000229641
0.0791648
-0.000152441
0.0793776
-8.12012e-05
0.079451
-2.28016e-05
0.0794055
2.75454e-05
0.0792786
5.29743e-05
0.0791061
5.21594e-05
0.0789212
2.19897e-05
0.0787536
-3.14847e-05
0.0786318
-0.000107339
0.0785771
-0.000198866
0.0786003
-0.000295951
0.0787025
-0.000389749
0.0788769
-0.000473064
0.0791119
-0.000541734
0.0793946
-0.000594574
0.0797128
-0.000632477
0.0800565
-0.000657407
0.080418
-0.000671637
0.0807918
-0.000677242
0.0811743
-0.000675885
0.0815627
-0.000668796
0.0819556
-0.000656849
0.0823519
-0.000640666
0.0827509
-0.000620702
0.0831524
-0.000597305
0.0835565
-0.000570773
0.0839636
-0.000541397
0.0843741
-0.000509513
0.0847885
-0.000475587
0.0852054
-0.000440163
0.0856206
-0.000402348
0.0860259
-0.000361846
0.0864156
-0.000319703
0.0867873
-0.000276189
0.0871392
-0.000231525
0.0874689
-0.000186112
0.0877741
-0.000140652
0.0880524
-9.61755e-05
0.0883023
-5.39624e-05
0.0885236
-1.50699e-05
0.0887213
1.54574e-05
0.0888983
4.20908e-05
0.0890605
6.29455e-05
0.0892138
7.91004e-05
0.0893611
9.2993e-05
0.0895016
0.000107563
0.0896299
0.000124894
0.089738
0.000146474
0.0898177
0.000172002
0.0898632
0.000199957
0.089873
0.000228538
0.0898506
0.000256691
0.0898017
0.000284827
0.0897317
0.000314763
0.0896423
0.000349401
0.0895315
0.00039155
0.0893933
0.000442333
0.0892206
0.00050115
0.0890068
0.000565972
0.0887476
0.000634095
0.0884412
0.000702979
0.0880881
0.000770804
0.0876903
0.000836646
0.08725
0.000900325
0.0867695
0.000962116
0.0862505
0.00102246
0.0856943
0.00108178
0.0851018
0.00114038
0.0844737
0.00119843
0.0838104
0.00125601
0.0831126
0.00131314
0.0823806
0.00136978
0.081615
0.00142588
0.0808163
0.00148136
0.079985
0.00153615
0.0791219
0.00159016
0.0782276
0.00164329
0.0773027
0.00169545
0.0763483
0.00174654
0.0753649
0.00179647
0.0743537
0.00184513
0.0733156
0.00189244
0.0722515
0.0019383
0.0711626
0.00198263
0.0700499
0.00202535
0.0689146
0.00206639
0.0677579
0.00210567
0.0665809
0.00214312
0.065385
0.00217871
0.0641714
0.00221237
0.0629413
0.00224406
0.0616961
0.00227375
0.060437
0.0023014
0.0591653
0.00232699
0.0578824
0.00235049
0.0565895
0.0023719
0.0552879
0.0023912
0.0539789
0.0024084
0.0526637
0.00242351
0.0513437
0.00243652
0.05002
0.00244745
0.0486939
0.00245632
0.0473665
0.00246316
0.0460389
0.002468
0.0447124
0.00247085
0.0433879
0.00247177
0.0420666
0.0024708
0.0407495
0.00246798
0.0394375
0.00246335
0.0381317
0.00245696
0.0368329
0.00244887
0.035542
0.00243917
0.0342598
0.00242789
0.0329871
0.00241509
0.0317247
0.00240083
0.0304733
0.00238522
0.0292335
0.00236829
0.028006
0.00235009
0.0267914
0.00233077
0.0255901
0.00231037
0.0244027
0.00228888
0.0232295
0.00226653
0.0220711
0.00224327
0.0209277
0.00221922
0.0197997
0.00219444
0.0186875
0.00216901
0.0175912
0.00214302
0.0165111
0.0021165
0.0154475
0.00208944
0.0143998
0.00206233
0.013369
0.00203458
0.012355
0.00200662
0.0113578
0.00197843
0.0103773
0.00195007
0.0094137
0.00192145
0.00846694
0.00189276
0.00753726
0.00186367
0.00662407
0.00183515
0.00572806
0.00180575
0.00484846
0.00177719
0.00398581
0.00174788
0.00313975
0.00171926
0.00231039
0.00169057
0.00149783
0.00166194
0.000702305
0.00163331
-7.60402e-05
0.00160411
-0.000836975
0.00157495
-0.00158018
0.00154514
-0.00230545
0.00151453
-0.00301261
0.0014829
-0.00370178
0.00145023
-0.0043733
0.00141661
-0.0050278
0.00138235
-0.00566623
0.00134796
-0.0062898
0.0013141
-0.0068998
0.00128144
-0.0074975
0.00125052
-0.00808401
0.00122166
-0.00866023
0.00119498
-0.00922672
0.00117024
-0.0097838
0.00114708
-0.0103316
0.00112498
-0.0108701
0.00110346
-0.011399
0.00108216
-0.0119184
0.00106077
-0.012428
0.00103919
-0.0129279
0.00101746
-0.0134179
0.000995669
-0.0138981
0.000973974
-0.0143684
0.000952477
-0.0148288
0.000931285
-0.0152793
0.00091031
-0.0157196
0.000889434
-0.0161495
0.000868467
-0.0165689
0.00084727
-0.0169775
0.000825728
-0.017375
0.000803796
-0.0177613
0.00078152
-0.0181363
0.000759006
-0.0184998
0.000736319
-0.0188519
0.000713537
-0.0191924
0.000690702
-0.0195213
0.000667822
-0.0198387
0.000644931
-0.0201446
0.000622026
-0.0204389
0.000599116
-0.0207217
0.000576213
-0.0209932
0.000553354
-0.0212533
0.00053056
-0.0215021
0.000507848
-0.0217397
0.000485193
-0.021966
0.000462588
-0.022181
0.000439986
-0.0223844
0.000417315
-0.0225762
0.00039452
-0.0227561
0.000371593
-0.0229242
0.000348551
-0.0230804
0.000325416
-0.0232247
0.000302212
-0.0233571
0.00027896
-0.0234778
0.000255685
-0.0235868
0.000232417
-0.0236841
0.000209184
-0.0237699
0.000186011
-0.0238443
0.000162916
-0.0239073
0.000139913
-0.0239591
0.000117019
-0.0239997
9.42752e-05
-0.0240292
7.17052e-05
-0.0240479
4.93035e-05
-0.0240557
2.70892e-05
-0.0240532
5.30319e-06
-0.0240417
-1.60159e-05
-0.0240204
-3.74152e-05
-0.0239901
-5.83379e-05
-0.0239505
-7.89406e-05
-0.0239017
-9.92152e-05
-0.0238436
-0.000119152
-0.0237764
-0.000138668
-0.0237
-0.000157816
-0.0236146
-0.000176523
-0.0235204
-0.000194771
-0.0234175
-0.000212533
-0.023306
-0.000229825
-0.0231863
-0.000246612
-0.0230585
-0.000262885
-0.0229227
-0.000278645
-0.0227792
-0.000293861
-0.0226282
-0.000308552
-0.0224699
-0.000322676
-0.0223046
-0.000336265
-0.0221325
-0.000349291
-0.0219539
-0.000361737
-0.021769
-0.000373582
-0.021578
-0.00038484
-0.0213813
-0.000395487
-0.0211792
-0.000405437
-0.020972
-0.000414625
-0.0207602
-0.000422918
-0.0205443
-0.000430064
-0.0203244
-0.000435794
-0.0201
-0.000440042
-0.0198697
-0.000443356
-0.019631
-0.000446969
-0.0193821
-0.000452247
-0.019122
-0.000459875
-0.0188518
-0.000469406
-0.018574
-0.000479553
-0.0182908
-0.000489165
-0.0180041
-0.00049774
-0.0177146
-0.000505432
-0.0174226
-0.000512664
-0.0171284
-0.000519745
-0.0168323
-0.000526774
-0.0165347
-0.000533783
-0.0162361
-0.000540776
-0.0159368
-0.000547706
-0.0156372
-0.000554537
-0.0153378
-0.000561286
-0.0150388
-0.000567964
-0.0147404
-0.000574548
-0.0144426
-0.000581016
-0.0141456
-0.000587372
-0.0138493
-0.000593656
-0.0135535
-0.000599903
-0.013258
-0.000606113
-0.0129629
-0.000612243
-0.0126681
-0.000618327
-0.0123733
-0.000624381
-0.0120785
-0.00063037
-0.0117838
-0.000636289
-0.0114889
-0.000642151
-0.0111938
-0.000647948
-0.0108986
-0.000653707
-0.010603
-0.00065942
-0.0103071
-0.000665099
-0.0100108
-0.000670746
-0.00971401
-0.000676409
-0.00941661
-0.000682089
-0.00911849
-0.00068782
-0.00881955
-0.000693649
-0.00851955
-0.000699677
-0.00821828
-0.000705841
-0.0079155
-0.000712218
-0.00761092
-0.000718842
-0.00730425
-0.000725762
-0.0069951
-0.000733003
-0.00668318
-0.000740553
-0.00636815
-0.000748502
-0.00604969
-0.000756868
-0.00572745
-0.000765737
-0.00540104
-0.00077525
-0.00506996
-0.000785558
-0.00473353
-0.00079666
-0.00439096
-0.000808641
-0.0040417
-0.000821127
-0.00368661
-0.000833086
-0.00332925
-0.00084253
-0.00297601
-0.000847267
-0.00263165
-0.000849297
-0.0022872
-0.000864587
-0.0019052
-0.000928454
-0.00142439
-0.00107416
-0.000824324
-0.00124957
-0.000224949
-0.00120832
-0.000577957
-0.000404425
0.000565333
-0.000770849
0.000395855
-0.0011859
0.000466285
-0.00160762
0.000484941
-0.00202553
0.000481725
-0.00243679
0.000476779
-0.00283935
0.000469283
-0.00323072
0.000458877
-0.0036085
0.00044552
-0.00397048
0.000429134
-0.00431475
0.00040977
-0.00463974
0.000387538
-0.00494441
0.000362798
-0.00522817
0.000335992
-0.0054909
0.000307629
-0.00573298
0.000278349
-0.00595509
0.000248707
-0.00615821
0.000219145
-0.00634333
0.00019003
-0.00651137
0.000161608
-0.00666354
0.000133886
-0.00680066
0.000106999
-0.0069234
8.093e-05
-0.00703204
5.55753e-05
-0.00712664
3.06488e-05
-0.00720623
5.18586e-06
-0.00726926
-2.20809e-05
-0.00731543
-5.02478e-05
-0.00734429
-8.15272e-05
-0.00735697
-0.000116194
-0.00735674
-0.000153266
-0.00734794
-0.000190978
-0.00733464
-0.000226742
-0.00732071
-0.000257783
-0.0073089
-0.000282088
-0.00729825
-0.000299561
-0.00728192
-0.000312247
-0.00724661
-0.0003236
-0.00717681
-0.000339086
-0.00705759
-0.000365653
-0.00687568
-0.000412126
-0.00662284
-0.00048382
-0.00629829
-0.000579823
-0.00591058
-0.00069314
-0.00547607
-0.000812261
-0.00501405
-0.000923548
-0.00454095
-0.00102118
-0.00406586
-0.00110316
-0.00359376
-0.00116857
-0.00312725
-0.00122158
-0.00266689
-0.00126532
-0.00221165
-0.00130326
-0.00176098
-0.0013364
-0.00131495
-0.0013652
-0.000873922
-0.00139024
-0.000437173
-0.00141305
1.12144e-07
-0.00143468
0.000438218
-0.00146022
0.000878949
-0.00149152
0.00132418
-0.0015311
0.00177402
-0.00157864
0.00222833
-0.00163188
0.00268595
-0.00168599
0.00314883
-0.00173874
0.00361898
-0.00178238
0.00410396
-0.00181393
0.00461075
-0.0018321
0.00514486
-0.00183932
0.00570861
-0.00183971
0.00630025
-0.00183907
0.00691542
-0.00184175
0.00754925
-0.0018493
0.00819737
-0.00186177
0.00885719
-0.00187823
0.00952698
-0.00189721
0.0102058
-0.00191793
0.0108927
-0.0019399
0.0115866
-0.0019628
0.0122867
-0.00198635
0.0129923
-0.00201013
0.0137028
-0.00203375
0.0144178
-0.00205692
0.015137
-0.00207939
0.0158601
-0.00210099
0.0165871
-0.00212154
0.0173178
-0.00214091
0.0180525
-0.002159
0.0187914
-0.00217572
0.0195346
-0.00219106
0.0202818
-0.00220506
0.0210325
-0.00221774
0.0217853
-0.00222898
0.0225389
-0.00223845
0.0232916
-0.00224554
0.0240426
-0.00224946
0.024792
-0.00224936
0.0255409
-0.00224462
0.0262912
-0.00223515
0.0270446
-0.00222179
0.027802
-0.00220635
0.0285624
-0.00219142
0.0293224
-0.00217966
0.030076
-0.00217293
0.0308161
-0.00217145
0.0315356
-0.00217311
0.0322295
-0.00217309
0.032897
-0.00216378
0.0335425
-0.00213558
0.034175
-0.00207887
0.0348059
-0.00198742
0.0354453
-0.00186174
0.0360991
-0.00171102
0.0367674
-0.00155204
0.0374451
-0.00140452
0.0381242
-0.00128512
0.0387962
-0.00120294
0.0394537
-0.00115837
0.0400905
-0.00114498
0.0407025
-0.00115291
0.0412873
-0.00117227
0.0418442
-0.00119521
0.0423741
-0.0012167
0.0428789
-0.00123427
0.043361
-0.00124728
0.043823
-0.00125606
0.0442673
-0.00126131
0.044696
-0.00126371
0.0451109
-0.00126379
0.0455133
-0.00126187
0.0459044
-0.0012582
0.0462849
-0.00125295
0.0466556
-0.00124632
0.0470171
-0.00123854
0.04737
-0.00122992
0.047715
-0.00122074
0.0480528
-0.00121132
0.0483839
-0.00120193
0.0487091
-0.00119277
0.049029
-0.00118403
0.049344
-0.00117584
0.0496548
-0.00116831
0.0499619
-0.00116155
0.0502658
-0.00115564
0.0505669
-0.00115068
0.0508656
-0.0011467
0.0511621
-0.00114367
0.0514565
-0.00114148
0.0517488
-0.00113991
0.0520387
-0.00113871
0.0523261
-0.00113769
0.0526109
-0.00113679
0.0528938
-0.00113629
0.053176
-0.00113681
0.0534597
-0.00113939
0.0537479
-0.00114534
0.0540442
-0.00115602
0.0543526
-0.00117258
0.0546765
-0.00119562
0.0550184
-0.00122499
0.055379
-0.00125972
0.0557578
-0.0012981
0.0561522
-0.00133799
0.0565584
-0.00137718
0.0569719
-0.0014138
0.0573878
-0.00144663
0.0578017
-0.00147519
0.05821
-0.00149983
0.0586101
-0.00152147
0.0590006
-0.0015414
0.0593806
-0.00156094
0.0597506
-0.00158116
0.060111
-0.00160262
0.060463
-0.00162516
0.060808
-0.0016478
0.0611478
-0.00166873
0.0614844
-0.00168536
0.061821
-0.00169445
0.0621621
-0.00169217
0.0625156
-0.00167454
0.062892
-0.00163863
0.0633002
-0.00158446
0.0637441
-0.00151564
0.064218
-0.00144475
0.0647095
-0.0013871
0.0652122
-0.0013438
0.0657263
-0.00130617
0.0662547
-0.00126709
0.0668001
-0.00122415
0.0673649
-0.00117766
0.0679512
-0.00112875
0.0685618
-0.00107847
0.0692001
-0.00102702
0.0698635
-0.000972538
0.0705462
-0.000912307
0.071239
-0.000845301
0.0719304
-0.000772591
0.0726067
-0.000699076
0.0732655
-0.000631219
0.0738988
-0.00058039
0.0745044
-0.000553391
0.0750814
-0.00055499
0.0756355
-0.000585665
0.0761695
-0.000641285
0.0766841
-0.000713447
0.0771794
-0.00079131
0.0776551
-0.000865462
0.0781113
-0.000929233
0.0785487
-0.000979177
0.0789689
-0.0010147
0.0793735
-0.00103706
0.0797644
-0.00104831
0.0801433
-0.00105058
0.0805117
-0.00104562
0.0808706
-0.00103476
0.0812207
-0.00101893
0.0815626
-0.000998787
0.0818968
-0.000974798
0.0822234
-0.000947337
0.0825428
-0.000916711
0.0828552
-0.000883199
0.0831609
-0.000847077
0.08346
-0.000808634
0.0837526
-0.000768161
0.0840382
-0.000725783
0.0843169
-0.000680978
0.0845886
-0.000633576
0.0848532
-0.000584344
0.0851108
-0.000533759
0.0853614
-0.000482169
0.0856054
-0.000430122
0.0858432
-0.00037841
0.0860751
-0.000328045
0.0863013
-0.000280203
0.0865222
-0.000235952
0.0867346
-0.000196909
0.0869383
-0.000161648
0.0871309
-0.000129674
0.0873096
-9.95599e-05
0.0874717
-6.91318e-05
0.0876149
-3.55896e-05
0.0877379
1.89753e-06
0.0878388
4.54825e-05
0.0879158
9.50571e-05
0.0879663
0.000149466
0.0879875
0.000207286
0.0879767
0.000267495
0.0879315
0.000330103
0.08785
0.000396261
0.0877315
0.0004679
0.0875761
0.000546918
0.0873842
0.000634195
0.0871561
0.000729257
0.0868917
0.0008304
0.0865906
0.000935192
0.0862524
0.00104115
0.0858769
0.0011463
0.0854642
0.00124942
0.0850145
0.00135002
0.0845284
0.00144814
0.0840068
0.00154411
0.0834503
0.00163832
0.0828595
0.00173111
0.0822352
0.00182272
0.081578
0.00191328
0.0808883
0.00200283
0.0801667
0.00209135
0.0794138
0.00217878
0.0786301
0.00226505
0.0778162
0.00235002
0.0769728
0.00243359
0.0761005
0.00251562
0.0752
0.00259596
0.074272
0.00267447
0.0733175
0.002751
0.0723372
0.00282542
0.0713321
0.00289757
0.0703031
0.00296733
0.0692511
0.00303458
0.0681773
0.0030992
0.0670826
0.00316108
0.0659681
0.00322013
0.064835
0.00327624
0.0636843
0.00332936
0.0625173