/*--------------------------------*- C++ -*----------------------------------*\
| =========                 |                                                 |
| \\      /  F ield         | OpenFOAM: The Open Source CFD Toolbox           |
|  \\    /   O peration     | Version:  v2006                                 |
|   \\  /    A nd           | Website:  www.openfoam.com                      |
|    \\/     M anipulation  |                                                 |
\*---------------------------------------------------------------------------*/
FoamFile
{
    version     2.0;
    format      ascii;
    class       volScalarField;
    location    "0";
    object      f;
}
// * * * * * * * * * * * * * * * * * * * * * * * * * * * * * * * * * * * * * //

dimensions      [0 0 0 0 0 0 0];


internalField   nonuniform List<scalar> 
2500
(
-6.3305e-18
-6.33045e-18
-6.33692e-18
-6.35199e-18
-6.41717e-18
-6.56626e-18
-6.80491e-18
-7.38553e-18
-8.88554e-18
-1.02583e-17
-8.29289e-18
-1.46737e-18
7.70556e-18
1.48632e-17
1.68959e-17
1.26245e-17
3.84628e-18
-4.98051e-18
-8.83866e-18
-6.41631e-18
5.1469e-20
6.59185e-18
8.80727e-18
5.63696e-18
4.5393e-19
-2.71632e-18
-2.74532e-18
-1.13082e-18
2.6929e-19
7.77589e-19
6.61749e-19
3.60752e-19
1.1879e-19
-9.00905e-21
-5.19284e-20
-5.19594e-20
-3.78028e-20
-2.32519e-20
-1.27121e-20
-6.30768e-21
-2.8619e-21
-1.1852e-21
-4.42713e-22
-1.4489e-22
-3.86621e-23
-6.49978e-24
6.91803e-25
1.08835e-24
3.97391e-25
-5.71343e-26
-1.09251e-17
-1.09249e-17
-1.09416e-17
-1.09897e-17
-1.11913e-17
-1.1605e-17
-1.20842e-17
-1.30713e-17
-1.6707e-17
-2.11521e-17
-1.75649e-17
-1.20991e-18
2.19293e-17
4.07319e-17
4.76377e-17
3.81009e-17
1.48491e-17
-1.12961e-17
-2.39342e-17
-1.90571e-17
-2.99528e-18
1.53087e-17
2.34768e-17
1.57608e-17
1.11624e-18
-7.88007e-18
-7.5486e-18
-2.50726e-18
1.45825e-18
2.56415e-18
1.95289e-18
1.00054e-18
3.27556e-19
6.8208e-22
-1.02207e-19
-1.02497e-19
-7.22437e-20
-4.25418e-20
-2.20198e-20
-1.01733e-20
-4.17314e-21
-1.4727e-21
-4.04131e-22
-4.8934e-23
3.54395e-23
3.62668e-23
2.12823e-23
9.44601e-24
3.07057e-24
3.9421e-25
-1.79137e-17
-1.79126e-17
-1.7952e-17
-1.80946e-17
-1.86676e-17
-1.97332e-17
-2.05173e-17
-2.13601e-17
-2.94631e-17
-4.28681e-17
-3.80773e-17
-1.14995e-18
5.56021e-17
1.04544e-16
1.2812e-16
1.08806e-16
4.80855e-17
-2.9546e-17
-6.85929e-17
-5.67471e-17
-1.65349e-17
3.38185e-17
6.39991e-17
4.6215e-17
4.04226e-18
-2.22956e-17
-2.05899e-17
-5.03293e-18
6.0562e-18
8.01148e-18
5.42339e-18
2.53991e-18
7.7415e-19
7.19508e-21
-2.06082e-19
-1.95914e-19
-1.29975e-19
-7.12963e-20
-3.36499e-20
-1.35414e-20
-4.31137e-21
-7.35286e-22
3.21497e-22
4.43126e-22
3.1323e-22
1.73357e-22
8.08463e-23
3.16273e-23
9.43065e-24
1.0746e-24
-2.77775e-17
-2.77733e-17
-2.78567e-17
-2.82481e-17
-2.97707e-17
-3.23736e-17
-3.31896e-17
-3.04249e-17
-4.71353e-17
-8.41657e-17
-8.36518e-17
-7.05951e-18
1.27092e-16
2.54508e-16
3.39118e-16
3.0515e-16
1.45126e-16
-8.46195e-17
-2.08215e-16
-1.65776e-16
-6.14493e-17
6.9819e-17
1.84981e-16
1.44195e-16
1.70138e-17
-6.35296e-17
-5.75446e-17
-9.31117e-18
2.20124e-17
2.37873e-17
1.40186e-17
5.74967e-18
1.49002e-18
-8.7393e-20
-4.30429e-19
-3.5737e-19
-2.12816e-19
-1.02789e-19
-3.98101e-20
-1.02606e-20
8.09993e-22
3.45156e-21
3.04802e-21
1.98656e-21
1.09493e-21
5.29534e-22
2.2484e-22
8.07762e-23
2.12178e-23
6.48586e-25
-4.0483e-17
-4.04689e-17
-4.06211e-17
-4.16007e-17
-4.54197e-17
-5.18934e-17
-5.1343e-17
-3.14375e-17
-6.69518e-17
-1.53857e-16
-1.83135e-16
-4.19114e-17
2.59849e-16
5.95606e-16
9.36324e-16
9.07394e-16
4.34595e-16
-2.52729e-16
-7.27567e-16
-4.60682e-16
-1.61453e-16
1.83525e-16
7.21251e-16
5.0724e-16
6.91936e-17
-1.92183e-16
-1.71801e-16
-1.79894e-17
7.44754e-17
6.77743e-17
3.30168e-17
1.08457e-17
1.86804e-18
-6.62885e-19
-9.05803e-19
-5.95119e-19
-2.89742e-19
-1.02677e-19
-1.40101e-20
1.71599e-20
2.16418e-20
1.68488e-20
1.07212e-20
5.97545e-21
2.98486e-21
1.33886e-21
5.29231e-22
1.73071e-22
3.60699e-23
-6.61679e-24
-5.50037e-17
-5.49676e-17
-5.51797e-17
-5.73413e-17
-6.62976e-17
-8.51983e-17
-7.87231e-17
1.38712e-18
-1.05278e-16
-2.51203e-16
-4.37871e-16
-1.85866e-16
7.08498e-16
1.59753e-15
2.63711e-15
3.14083e-15
1.182e-15
-5.11982e-15
-3.58221e-15
-1.03071e-15
8.5728e-17
7.81325e-15
5.4622e-15
2.06153e-15
2.2068e-16
-8.24279e-16
-5.92293e-16
-4.63287e-17
2.53239e-16
1.90523e-16
6.71559e-17
1.3259e-17
-1.00244e-18
-2.69859e-18
-1.75643e-18
-7.87937e-19
-2.1732e-19
3.75908e-20
1.14275e-19
1.10769e-19
8.16222e-20
5.1699e-20
2.93055e-20
1.50916e-20
7.07328e-21
2.98363e-21
1.09374e-21
3.12384e-22
3.49226e-23
-3.89494e-23
-6.88802e-17
-6.88381e-17
-6.89441e-17
-7.2919e-17
-9.13926e-17
-1.57289e-16
-1.34339e-16
1.25348e-16
-1.10847e-15
-3.80874e-15
-2.18747e-15
-6.76917e-16
9.54678e-15
8.08101e-15
4.93756e-15
8.65228e-15
-5.18228e-14
-4.73506e-14
-1.16075e-14
3.21557e-14
8.007e-14
5.77787e-14
2.03943e-14
5.17024e-15
-1.12555e-14
-6.81015e-15
-2.36046e-15
-1.20738e-16
1.18918e-15
5.60499e-16
9.47225e-17
-1.1443e-17
-1.54501e-17
-7.47995e-18
-2.49173e-18
-3.05051e-19
4.53775e-19
5.9439e-19
5.04988e-19
3.59303e-19
2.27769e-19
1.31522e-19
6.97468e-20
3.39782e-20
1.5087e-20
5.97075e-21
1.98314e-21
4.40975e-22
-5.01625e-23
-1.45544e-22
-7.79626e-17
-7.80587e-17
-7.76499e-17
-8.32153e-17
-1.11926e-16
-2.96758e-16
-2.99504e-16
3.33746e-15
-1.59806e-14
-4.14113e-14
-1.06481e-14
6.77925e-14
4.83799e-14
2.9673e-14
-2.23046e-13
-4.51712e-13
-4.23731e-13
-1.49801e-13
5.16737e-13
6.65056e-13
4.40698e-13
1.28557e-13
-7.87718e-16
-1.486e-13
-8.85498e-14
-2.6096e-14
-5.71492e-15
1.50254e-14
7.97446e-15
1.42435e-15
-1.12081e-16
-1.53585e-16
-5.3916e-17
-1.18395e-17
3.90887e-19
2.94358e-18
2.83735e-18
2.15435e-18
1.46999e-18
9.27774e-19
5.44659e-19
2.97171e-19
1.50149e-19
6.973e-20
2.92882e-20
1.07082e-20
3.0396e-21
3.16555e-22
-4.06835e-22
-4.4411e-22
1.36312e-14
1.66118e-14
3.5387e-14
1.65838e-14
3.9053e-16
1.33102e-14
1.01885e-13
4.8119e-14
-6.39363e-14
-1.58814e-13
8.79977e-14
4.08175e-13
5.34574e-14
-1.1339e-12
-3.16737e-12
-3.36134e-12
-1.22682e-12
2.67641e-12
3.51715e-12
2.14536e-12
9.2697e-13
-2.37365e-12
-2.11308e-12
-9.83133e-13
-2.03775e-13
-2.3239e-14
2.13807e-13
1.18771e-13
2.17799e-14
-1.99782e-15
-2.46118e-15
-6.47487e-16
-8.00362e-17
1.3011e-17
1.92925e-17
1.39393e-17
9.05156e-18
5.71283e-18
3.51776e-18
2.0834e-18
1.16829e-18
6.12577e-19
2.97115e-19
1.31462e-19
5.16527e-20
1.68179e-20
3.43291e-21
-7.45776e-22
-1.47827e-21
-1.18802e-21
6.35705e-13
6.5866e-13
7.11848e-13
5.89592e-13
4.51806e-13
6.55414e-13
7.29829e-13
2.17868e-13
-1.59237e-13
-2.74909e-13
5.50535e-13
1.07194e-12
-4.36835e-12
-1.1083e-11
-1.09855e-11
-7.7708e-12
1.03731e-11
1.73597e-11
7.25744e-12
7.01372e-13
-3.16705e-11
-2.44351e-11
-9.89813e-12
-2.10209e-12
1.36002e-12
3.02094e-12
1.51752e-12
2.89381e-13
-4.82447e-14
-4.69577e-14
-1.31999e-14
-9.51457e-16
3.19763e-16
1.72582e-16
7.95911e-17
3.96104e-17
2.15485e-17
1.24267e-17
7.29781e-18
4.19874e-18
2.29554e-18
1.16812e-18
5.44467e-19
2.27615e-19
8.15166e-20
2.15761e-20
7.71903e-22
-4.33216e-21
-4.18393e-21
-2.86725e-21
2.83832e-12
2.86274e-12
2.70048e-12
2.54163e-12
2.67932e-12
2.82878e-12
1.69463e-12
5.62079e-13
-3.60049e-13
3.87826e-12
1.29771e-12
-6.96029e-12
-2.11999e-11
-2.40907e-11
-1.84609e-11
4.2435e-11
1.43466e-10
4.76069e-11
-6.92394e-11
-2.75747e-10
-1.93124e-10
-5.77266e-11
-1.62361e-11
2.50352e-11
3.29782e-11
1.62857e-11
3.38429e-12
-7.4405e-13
-6.73132e-13
-2.07353e-13
-2.01465e-14
7.98107e-15
2.73567e-15
5.51994e-16
1.74141e-16
7.59112e-17
3.95951e-17
2.26775e-17
1.34007e-17
7.74262e-18
4.19825e-18
2.08283e-18
9.273e-19
3.58966e-19
1.10553e-19
1.70309e-20
-1.0333e-20
-1.35801e-20
-1.01931e-20
-6.31733e-21
6.8053e-12
6.77485e-12
5.80353e-12
6.10778e-12
7.66182e-12
6.16024e-12
8.11652e-13
5.0527e-12
1.72092e-11
6.26582e-11
-9.75485e-12
-1.0374e-10
-5.26526e-11
2.26567e-10
1.08026e-09
1.77732e-09
5.41617e-10
-7.2133e-10
-1.85618e-09
-1.42555e-09
-4.13247e-10
2.47648e-10
4.73609e-10
3.25478e-10
1.41301e-10
3.18733e-11
-8.583e-12
-7.91299e-12
-2.55839e-12
-2.86907e-13
1.08018e-13
4.40278e-14
5.51092e-15
3.22998e-16
1.45065e-16
8.8387e-17
5.56326e-17
3.53034e-17
2.23195e-17
1.33994e-17
7.29624e-18
3.51641e-18
1.46899e-18
5.0433e-19
1.1387e-19
-1.42447e-20
-3.9939e-20
-3.37176e-20
-2.20539e-20
-1.27286e-20
1.14266e-11
1.12317e-11
8.66473e-12
1.05512e-11
1.57926e-11
7.9765e-12
-7.03172e-12
5.56516e-11
1.07645e-10
2.20407e-10
-3.30515e-11
-4.47474e-10
8.86352e-10
5.64198e-09
8.5924e-09
7.73674e-09
1.8499e-11
-8.44912e-09
-8.16136e-09
-3.00803e-09
4.84096e-09
5.31363e-09
3.04271e-09
1.14715e-09
2.5453e-10
-1.04631e-10
-9.11605e-11
-2.76746e-11
-3.24713e-12
1.11572e-12
5.01758e-13
7.37104e-14
-2.08609e-15
-6.48658e-16
-5.05727e-17
6.72407e-17
6.67002e-17
4.97398e-17
3.53004e-17
2.26736e-17
1.24231e-17
5.71014e-18
2.1525e-18
5.93214e-19
3.68884e-20
-1.03074e-19
-1.03004e-19
-7.14076e-20
-4.25972e-20
-2.32785e-20
1.4623e-11
1.422e-11
9.80041e-12
1.42823e-11
2.52879e-11
1.73339e-12
-1.537e-11
1.69453e-10
2.63431e-10
3.85542e-10
-6.75639e-11
-4.98303e-10
7.09474e-09
1.94959e-08
2.70895e-08
1.49339e-08
-2.37717e-08
-2.83898e-08
-1.71445e-08
3.63138e-08
3.84452e-08
1.92997e-08
6.69981e-09
1.82429e-09
-1.64817e-09
-1.28688e-09
-3.26185e-10
-3.07549e-11
9.70291e-12
4.69266e-12
8.35474e-13
-1.2086e-14
-7.61126e-15
-1.63977e-15
-8.61959e-17
1.07663e-16
8.88564e-17
6.66942e-17
5.56241e-17
3.95868e-17
2.15418e-17
9.04678e-18
2.83422e-18
4.51842e-19
-2.1845e-19
-2.90372e-19
-2.13152e-19
-1.30147e-19
-7.23287e-20
-3.78432e-20
1.50271e-11
1.45817e-11
9.43653e-12
1.51321e-11
2.93122e-11
-1.9467e-11
-2.14605e-11
2.33468e-10
3.48755e-10
-1.41592e-09
-1.59429e-09
9.25982e-09
2.54208e-08
2.84684e-08
4.88158e-08
-1.75799e-07
-1.18965e-07
-3.18703e-08
1.81071e-07
2.29602e-07
8.80146e-08
2.782e-08
-3.43894e-09
-3.25208e-08
-2.09615e-08
-4.90312e-09
-3.33744e-10
7.1757e-11
3.69405e-11
7.83822e-12
1.82789e-13
-2.17532e-14
-1.09044e-14
-1.32791e-15
5.67712e-16
3.21453e-16
1.07654e-16
6.72258e-17
8.83706e-17
7.58961e-17
3.9599e-17
1.39316e-17
2.93872e-18
-3.07978e-19
-7.89623e-19
-5.96049e-19
-3.57861e-19
-1.96165e-19
-1.0262e-19
-5.20174e-20
-1.47907e-07
-1.47463e-07
-1.45606e-07
-1.49179e-07
-1.55462e-07
-1.42377e-07
-1.22159e-07
-1.35035e-07
-2.23666e-07
-2.55095e-07
-8.76051e-08
2.04153e-08
5.82091e-08
-3.14382e-07
-1.33748e-06
-1.32183e-06
-2.49608e-07
1.84884e-06
2.28909e-06
6.70426e-07
-1.95458e-07
-7.29672e-07
-6.40763e-07
-3.11196e-07
-7.78603e-08
-5.54636e-09
4.59893e-10
2.47496e-10
6.14235e-11
3.74028e-12
-9.65415e-14
-3.56749e-14
1.46378e-15
7.24917e-15
3.35476e-15
5.67699e-16
-8.62175e-17
-5.05975e-17
1.45039e-16
1.74116e-16
7.9573e-17
1.92812e-17
3.84021e-19
-2.49581e-18
-1.75876e-18
-9.07083e-19
-4.31103e-19
-2.06423e-19
-1.02374e-19
-5.20068e-20
-1.39699e-06
-1.39687e-06
-1.39607e-06
-1.40047e-06
-1.4053e-06
-1.38279e-06
-1.38413e-06
-1.48501e-06
-1.48425e-06
-1.26045e-06
-6.7359e-07
-1.42216e-07
-1.55517e-06
-5.30498e-06
-7.79878e-06
-4.42159e-06
3.4606e-06
9.33231e-06
8.26525e-06
5.989e-07
-6.22174e-06
-5.59175e-06
-2.99818e-06
-9.76212e-07
-1.25309e-07
2.11622e-09
1.26857e-09
4.12878e-10
4.85819e-11
-7.16049e-13
-2.61744e-13
1.88258e-14
6.83264e-14
3.63421e-14
7.24914e-15
-1.32794e-15
-1.6398e-15
-6.48687e-16
3.22963e-16
5.51945e-16
1.72553e-16
1.29962e-17
-1.18481e-17
-7.48512e-18
-2.70157e-18
-6.64533e-19
-8.82601e-20
6.75803e-21
4.70214e-22
-9.10815e-21
-4.26753e-06
-4.27116e-06
-4.28434e-06
-4.26954e-06
-4.23064e-06
-4.26341e-06
-4.4641e-06
-4.71404e-06
-4.12664e-06
-2.78593e-06
-2.12963e-06
-3.55272e-06
-1.04029e-05
-1.96438e-05
-2.08347e-05
-7.30932e-06
1.51934e-05
2.42465e-05
1.4742e-05
-1.98721e-05
-2.59207e-05
-1.57376e-05
-6.60258e-06
-1.69425e-06
-9.5891e-08
2.33778e-09
1.61208e-09
4.91017e-10
3.09228e-11
-5.47059e-13
-1.52346e-13
1.97938e-13
1.79878e-13
6.83264e-14
1.46369e-15
-1.09045e-14
-7.61132e-15
-2.0861e-15
5.51062e-15
2.73549e-15
3.1972e-16
-8.00507e-17
-5.3925e-17
-1.54561e-17
-1.00602e-18
1.86603e-18
1.48897e-18
7.73624e-19
3.27304e-19
1.18673e-19
-7.6045e-06
-7.61523e-06
-7.65411e-06
-7.59746e-06
-7.4688e-06
-7.63553e-06
-8.19939e-06
-8.61768e-06
-7.04805e-06
-3.57468e-06
-4.18825e-06
-1.25397e-05
-2.73453e-05
-4.20257e-05
-3.19349e-05
2.81531e-05
3.40361e-05
3.62176e-05
-3.34418e-05
-0.00010533
-4.892e-05
-2.10276e-05
-7.78892e-06
-1.81117e-06
-4.40113e-08
2.56041e-09
1.59616e-09
4.92589e-10
4.93269e-11
1.08114e-11
2.30443e-11
3.76499e-12
1.9794e-13
1.88265e-14
-3.56747e-14
-2.17535e-14
-1.20863e-14
7.37073e-14
4.40258e-14
7.98065e-15
-9.51435e-16
-6.47477e-16
-1.53591e-16
-1.14495e-17
1.32547e-17
1.08433e-17
5.74844e-18
2.53931e-18
1.00026e-18
3.60625e-19
-8.39173e-06
-8.40574e-06
-8.45547e-06
-8.37809e-06
-8.20664e-06
-8.43953e-06
-9.17991e-06
-9.61493e-06
-7.67586e-06
-1.24183e-06
-3.58568e-06
-2.32396e-05
-3.96628e-05
-5.22804e-05
0.000115486
0.000212014
1.63432e-05
-0.000572826
-0.000877757
-0.000298304
0.000562081
0.00170272
0.00241188
0.00238323
0.0018454
0.00109707
0.000475531
0.00012399
5.8481e-06
9.4777e-10
3.09448e-10
2.30445e-11
-1.5235e-13
-2.61741e-13
-9.654e-14
1.82778e-13
8.35444e-13
5.01739e-13
1.08014e-13
-2.01455e-14
-1.31993e-14
-2.46108e-15
-1.1209e-16
9.4712e-17
6.71499e-17
3.30139e-17
1.40173e-17
5.42278e-18
1.95262e-18
6.61629e-19
0.000154296
0.000153781
0.000152845
0.00015617
0.000161038
0.000150924
0.000132049
0.000145852
0.00020446
0.000224139
0.000114687
-2.03699e-05
-4.08405e-06
0.000567018
0.00113213
0.000718628
-0.00144317
-0.00407129
-0.00404405
0.000793818
0.0115732
0.0244647
0.0336503
0.0351095
0.0307439
0.0223227
0.013222
0.00609596
0.00189333
0.000204719
9.4778e-10
1.08116e-11
-5.47077e-13
-7.16037e-13
3.74014e-12
7.83797e-12
4.6925e-12
1.11568e-12
-2.86892e-13
-2.07343e-13
-4.69555e-14
-1.99775e-15
1.42427e-15
5.60471e-16
1.90514e-16
6.7771e-17
2.3786e-17
8.01096e-18
2.56394e-18
7.77501e-19
0.000984087
0.000981759
0.000979095
0.000994284
0.00100821
0.000959408
0.000898372
0.000999298
0.00121402
0.00114267
0.00059224
0.000119217
0.000940621
0.00294771
0.00395304
0.00123409
-0.00580148
-0.0123608
-0.0105389
0.00835993
0.0450414
0.0884441
0.120719
0.128164
0.115354
0.0874345
0.0549753
0.0276819
0.0101355
0.00189333
5.84813e-06
4.93253e-11
3.09207e-11
4.85801e-11
6.14219e-11
3.69395e-11
9.7026e-12
-3.24694e-12
-2.55826e-12
-6.73103e-13
-4.82431e-14
2.17791e-14
7.97412e-15
1.18914e-15
2.53233e-16
7.44735e-17
2.20118e-17
6.056e-18
1.45819e-18
2.69269e-19
0.00274593
0.00274012
0.00273517
0.00277331
0.00279908
0.00267246
0.0025499
0.00284244
0.00332817
0.00297372
0.0014896
0.000934551
0.00341636
0.00790807
0.00888719
0.00135323
-0.0142992
-0.0267225
-0.0187472
0.0257304
0.107452
0.203854
0.277491
0.297583
0.271645
0.210226
0.135856
0.0710328
0.0276819
0.00609596
0.00012399
4.926e-10
4.91014e-10
4.12871e-10
2.47489e-10
7.17548e-11
-3.07529e-11
-2.76733e-11
-7.91266e-12
-7.44023e-13
2.89372e-13
1.18767e-13
1.50248e-14
-1.20721e-16
-4.63222e-17
-1.79871e-17
-9.31031e-18
-5.03257e-18
-2.5071e-18
-1.13074e-18
0.00526278
0.00525219
0.0052448
0.00531478
0.00535281
0.00511504
0.0049217
0.00550494
0.00634099
0.00547036
0.00275047
0.00219864
0.00732373
0.0151239
0.015382
0.000392108
-0.0267731
-0.0450056
-0.0270666
0.0523025
0.193742
0.360698
0.49121
0.531338
0.490287
0.385107
0.253573
0.135856
0.0549753
0.013222
0.000475531
1.59621e-09
1.61209e-09
1.26855e-09
4.59881e-10
-3.33725e-10
-3.26172e-10
-9.11574e-11
-8.58273e-12
3.38418e-12
1.51747e-12
2.138e-13
-5.71473e-15
-2.36036e-15
-5.92272e-16
-1.71795e-16
-5.75426e-17
-2.05891e-17
-7.54825e-18
-2.74517e-18
0.00765888
0.00764359
0.00763394
0.00773565
0.00778449
0.00743291
0.00717521
0.00806872
0.00923864
0.00780251
0.00377635
0.00336213
0.011445
0.0224986
0.0215707
-0.00177071
-0.0400875
-0.0626742
-0.0332915
0.0814604
0.282518
0.521143
0.712202
0.777309
0.724346
0.576127
0.385107
0.210226
0.0874345
0.0223227
0.00109707
2.56049e-09
2.33782e-09
2.11618e-09
-5.54611e-09
-4.90296e-09
-1.28684e-09
-1.04629e-10
3.18724e-11
1.62852e-11
3.02083e-12
-2.32399e-14
-2.6095e-14
-6.80981e-15
-8.24254e-16
-1.92181e-16
-6.35285e-17
-2.22949e-17
-7.87972e-18
-2.71614e-18
0.00867674
0.0086587
0.00864691
0.0087677
0.00882589
0.00840436
0.00809971
0.00918583
0.0105877
0.00879013
0.00390611
0.00357261
0.0136581
0.0268105
0.0248299
-0.00418222
-0.0494918
-0.0741095
-0.0366672
0.100816
0.341497
0.630795
0.86863
0.957471
0.900731
0.724346
0.490287
0.271645
0.115354
0.0307439
0.0018454
-4.40074e-08
-9.58852e-08
-1.25305e-07
-7.78581e-08
-2.0961e-08
-1.64814e-09
2.54524e-10
1.41298e-10
3.29771e-11
1.35994e-12
-2.03764e-13
-8.85449e-14
-1.12549e-14
2.20651e-16
6.91841e-17
1.70118e-17
4.04214e-18
1.11643e-18
4.5409e-19
0.00738423
0.00736644
0.00735155
0.0074716
0.00754293
0.00712268
0.00677834
0.0078603
0.0093617
0.00760994
0.00250626
0.00202178
0.0123224
0.0258777
0.0239878
-0.0052412
-0.0507934
-0.0757928
-0.0388353
0.100238
0.346319
0.647882
0.903669
1.00818
0.957471
0.777309
0.531338
0.297583
0.128164
0.0351095
0.00238323
-1.81112e-06
-1.69421e-06
-9.76191e-07
-3.11189e-07
-3.252e-08
1.82426e-09
1.14713e-09
3.2547e-10
2.50342e-11
-2.10198e-12
-9.83076e-13
-1.48591e-13
5.17e-15
2.06142e-15
5.07219e-16
1.44192e-16
4.62149e-17
1.57611e-17
5.6372e-18
0.00340333
0.00339031
0.00337232
0.00346046
0.0035436
0.00323765
0.00289141
0.00364637
0.00496843
0.00390368
-0.000125083
-0.00122646
0.00612848
0.0174845
0.0177645
-0.00363952
-0.0411363
-0.0663266
-0.0424248
0.0692789
0.281374
0.553468
0.794672
0.903669
0.86863
0.712202
0.49121
0.277491
0.120719
0.0336503
0.00241188
-7.78879e-06
-6.60248e-06
-2.99813e-06
-6.4075e-07
-3.43852e-09
6.69976e-09
3.04266e-09
4.73597e-10
-1.62354e-11
-9.89767e-12
-2.11295e-12
-7.83659e-16
2.03936e-14
5.46187e-15
7.21226e-16
1.84982e-16
6.40011e-17
2.3478e-17
8.80788e-18
-0.00100409
-0.00100967
-0.00102784
-0.000990178
-0.000909639
-0.00103168
-0.00131552
-0.00107906
-0.000207348
-0.000221205
-0.00228877
-0.0041076
-0.00166319
0.00522375
0.00925305
0.0013042
-0.0218522
-0.0472481
-0.0454167
0.0177219
0.162349
0.36409
0.553468
0.647882
0.630795
0.521143
0.360698
0.203854
0.088444
0.0244647
0.00170272
-2.10274e-05
-1.57374e-05
-5.59166e-06
-7.29657e-07
2.78198e-08
1.92995e-08
5.31356e-09
2.47641e-10
-5.77245e-11
-2.44341e-11
-2.37349e-12
1.28552e-13
5.77762e-14
7.81277e-15
1.83537e-16
6.98308e-17
3.38251e-17
1.53118e-17
6.59317e-18
-0.00324657
-0.00324556
-0.00325939
-0.00326667
-0.00320757
-0.0031683
-0.003338
-0.00353876
-0.00320869
-0.00241123
-0.00260437
-0.00459633
-0.00641049
-0.0043253
0.00250628
0.00670889
-0.0020479
-0.0252371
-0.0435432
-0.02727
0.0445744
0.162349
0.281374
0.346319
0.341497
0.282518
0.193742
0.107452
0.0450414
0.0115732
0.00056208
-4.89195e-05
-2.59204e-05
-6.22165e-06
-1.95449e-07
8.80138e-08
3.84447e-08
4.84087e-09
-4.13235e-10
-1.93118e-10
-3.1669e-11
9.26953e-13
4.40683e-13
8.00659e-14
8.55644e-17
-1.61436e-16
-6.14308e-17
-1.6524e-17
-2.99017e-18
5.36034e-20
-0.00263586
-0.00263117
-0.00263654
-0.00266903
-0.00264825
-0.00252305
-0.00255114
-0.0029417
-0.00305359
-0.00215781
-0.00107484
-0.00241227
-0.00617243
-0.00706809
-0.000755082
0.00906958
0.00972532
-0.00662683
-0.0324716
-0.0443186
-0.02727
0.0177219
0.0692789
0.100238
0.100816
0.0814605
0.0523025
0.0257304
0.00835994
0.000793825
-0.000298302
-0.00010533
-1.98719e-05
5.98926e-07
6.70422e-07
2.29599e-07
3.63131e-08
-3.00799e-09
-1.42552e-09
-2.75738e-10
7.01892e-13
2.14539e-12
6.65034e-13
3.21504e-14
-1.03071e-15
-4.60664e-16
-1.65755e-16
-5.67345e-17
-1.9051e-17
-6.41372e-18
-0.00036229
-0.00035792
-0.00035457
-0.000384028
-0.000400712
-0.000295742
-0.000211468
-0.000481619
-0.000850976
-0.000375503
0.000812825
0.000630268
-0.00210162
-0.00428813
-0.00126419
0.00667012
0.0111091
0.00458618
-0.0130523
-0.0324716
-0.0435432
-0.0454167
-0.0424248
-0.0388353
-0.0366672
-0.0332914
-0.0270666
-0.0187472
-0.0105389
-0.00404404
-0.000877753
-3.34413e-05
1.47419e-05
8.26518e-06
2.28907e-06
1.81069e-07
-1.71442e-08
-8.1612e-09
-1.85614e-09
-6.92356e-11
7.25738e-12
3.51711e-12
5.16716e-13
-1.1607e-14
-3.58218e-15
-7.27554e-16
-2.08198e-16
-6.8582e-17
-2.39288e-17
-8.8363e-18
0.00104736
0.00104877
0.00105576
0.0010458
0.00101407
0.00104372
0.00115336
0.00111459
0.000819948
0.00071437
0.00127332
0.00192435
0.00145856
-0.000155157
-0.000854576
0.00127942
0.00544522
0.00784533
0.00458618
-0.00662683
-0.0252371
-0.0472481
-0.0663266
-0.0757928
-0.0741095
-0.0626742
-0.0450056
-0.0267225
-0.0123608
-0.00407129
-0.000572824
3.62171e-05
2.42462e-05
9.33222e-06
1.84882e-06
-3.18694e-08
-2.83892e-08
-8.44895e-09
-7.21314e-10
4.76055e-11
1.73593e-11
2.67635e-12
-1.49795e-13
-4.7349e-14
-5.11977e-15
-2.52731e-16
-8.46103e-17
-2.95395e-17
-1.12926e-17
-4.97886e-18
0.000630442
0.000629235
0.000634357
0.000643177
0.000621545
0.000585202
0.000640938
0.000774202
0.000692775
0.0003186
0.000179426
0.000912018
0.0018653
0.00144859
-0.000825541
-0.00264253
-0.000747523
0.00544522
0.0111091
0.00972531
-0.0020479
-0.0218522
-0.0411363
-0.0507934
-0.0494918
-0.0400875
-0.0267731
-0.0142992
-0.00580149
-0.00144317
1.63413e-05
3.40354e-05
1.51932e-05
3.46055e-06
-2.49602e-07
-1.18962e-07
-2.3771e-08
1.85063e-11
5.41605e-10
1.43463e-10
1.03727e-11
-1.22679e-12
-4.23717e-13
-5.18209e-14
1.18201e-15
4.34601e-16
1.4513e-16
4.80882e-17
1.48508e-17
3.84733e-18
-0.000761381
-0.000763627
-0.000762453
-0.000747538
-0.000751047
-0.00080539
-0.000808888
-0.000663504
-0.000572484
-0.000870321
-0.00126015
-0.000967158
3.20993e-05
0.000339655
-0.00105976
-0.00296849
-0.00264252
0.00127942
0.00667012
0.00906957
0.00670888
0.00130421
-0.00363949
-0.00524118
-0.00418222
-0.00177073
0.000392084
0.0013532
0.00123407
0.000718618
0.00021201
2.81521e-05
-7.30941e-06
-4.42162e-06
-1.32182e-06
-1.75794e-07
1.49336e-08
7.73659e-09
1.77729e-09
4.24338e-11
-7.77074e-12
-3.36129e-12
-4.51693e-13
8.65218e-15
3.14083e-15
9.07399e-16
3.05153e-16
1.08808e-16
3.81025e-17
1.26256e-17
-0.00154055
-0.0015422
-0.00154229
-0.00153205
-0.00153073
-0.00156456
-0.00157868
-0.00149945
-0.00142767
-0.0015273
-0.00174459
-0.00177317
-0.00155279
-0.00133097
-0.00123819
-0.00105975
-0.000825534
-0.000854574
-0.0012642
-0.000755097
0.00250628
0.00925307
0.0177645
0.0239878
0.0248299
0.0215707
0.0153819
0.00888715
0.00395301
0.00113212
0.000115482
-3.19352e-05
-2.08349e-05
-7.79884e-06
-1.33748e-06
4.88158e-08
2.70892e-08
8.59225e-09
1.08023e-09
-1.8461e-11
-1.09854e-11
-3.1673e-12
-2.23036e-13
4.93766e-15
2.63716e-15
9.36336e-16
3.39124e-16
1.28124e-16
4.76403e-17
1.68976e-17
-0.0014527
-0.00145352
-0.00145193
-0.00144712
-0.00145276
-0.00146943
-0.00145416
-0.00141709
-0.00143244
-0.00148776
-0.00147395
-0.00145849
-0.00167207
-0.00191497
-0.00133097
0.000339658
0.0014486
-0.000155155
-0.00428814
-0.00706811
-0.0043253
0.00522376
0.0174846
0.0258778
0.0268105
0.0224986
0.0151239
0.00790804
0.00294768
0.000567007
-5.22828e-05
-4.20271e-05
-1.96443e-05
-5.30507e-06
-3.1437e-07
2.84689e-08
1.94961e-08
5.64192e-09
2.26542e-10
-2.40915e-11
-1.1083e-11
-1.13384e-12
2.96725e-14
8.08097e-15
1.59755e-15
5.9562e-16
2.54517e-16
1.0455e-16
4.07361e-17
1.48657e-17
-0.00125849
-0.00125943
-0.00125613
-0.00125038
-0.00126408
-0.00128429
-0.00124836
-0.0011869
-0.00124673
-0.00139053
-0.00134667
-0.00112667
-0.00120705
-0.00167207
-0.00155279
3.21011e-05
0.00186531
0.00145857
-0.00210163
-0.00617244
-0.00641049
-0.00166317
0.00612851
0.0123224
0.0136581
0.011445
0.00732369
0.00341633
0.000940599
-4.09226e-06
-3.96665e-05
-2.73473e-05
-1.04036e-05
-1.55527e-06
5.82069e-08
2.54207e-08
7.09497e-09
8.86406e-10
-5.26506e-11
-2.12005e-11
-4.36849e-12
5.34623e-14
4.83824e-14
9.54694e-15
7.08493e-16
2.59866e-16
1.27106e-16
5.56116e-17
2.19354e-17
7.70914e-18
-0.00138333
-0.00138491
-0.00138155
-0.0013718
-0.0013855
-0.00141917
-0.00138794
-0.00129046
-0.00131877
-0.00154001
-0.00160103
-0.00131704
-0.00112667
-0.00145849
-0.00177317
-0.000967156
0.000912024
0.00192436
0.00063026
-0.00241229
-0.00459633
-0.00410758
-0.00122643
0.00202181
0.00357262
0.00336211
0.00219861
0.000934513
0.000119189
-2.03767e-05
-2.32438e-05
-1.25418e-05
-3.55341e-06
-1.42302e-07
2.04127e-08
9.25983e-09
-4.98012e-10
-4.47375e-10
-1.03732e-10
-6.96339e-12
1.07193e-12
4.08174e-13
6.77937e-14
-6.7658e-16
-1.8578e-16
-4.18767e-17
-7.03847e-18
-1.13659e-18
-1.20179e-18
-1.46272e-18
-0.00155154
-0.0015533
-0.00155081
-0.00153945
-0.00154923
-0.00158748
-0.00156957
-0.0014655
-0.00146024
-0.00166248
-0.001798
-0.00160103
-0.00134667
-0.00147395
-0.00174459
-0.00126015
0.000179432
0.00127332
0.000812817
-0.00107485
-0.00260438
-0.00228875
-0.000125049
0.00250628
0.00390611
0.00377633
0.00275043
0.00148956
0.000592213
0.000114675
-3.58825e-06
-4.18982e-06
-2.1303e-06
-6.73728e-07
-8.75996e-08
-1.59387e-09
-6.75221e-11
-3.30531e-11
-9.75929e-12
1.29717e-12
5.50461e-13
8.80057e-14
-1.0646e-14
-2.1871e-15
-4.37794e-16
-1.83092e-16
-8.36248e-17
-3.80608e-17
-1.75552e-17
-8.28741e-18
-0.00147561
-0.00147712
-0.00147512
-0.00146568
-0.00147314
-0.001505
-0.0014924
-0.0014077
-0.0013985
-0.00155231
-0.00166247
-0.00154001
-0.00139052
-0.00148776
-0.0015273
-0.000870317
0.000318607
0.000714372
-0.000375512
-0.00215783
-0.00241123
-0.000221189
0.00390371
0.00760996
0.00879013
0.00780249
0.00547032
0.00297369
0.00114264
0.000224126
-1.24347e-06
-3.57548e-06
-2.78642e-06
-1.26062e-06
-2.55107e-07
-1.41416e-09
3.85511e-10
2.20388e-10
6.26555e-11
3.87849e-12
-2.74914e-13
-1.5882e-13
-4.14134e-14
-3.80878e-15
-2.51139e-16
-1.53814e-16
-8.41375e-17
-4.28504e-17
-2.11417e-17
-1.02524e-17
-0.0013109
-0.00131216
-0.00130999
-0.00130201
-0.00131071
-0.00133759
-0.00131956
-0.00124673
-0.00125405
-0.0013985
-0.00146024
-0.00131877
-0.00124673
-0.00143244
-0.00142767
-0.00057248
0.000692781
0.000819951
-0.000850985
-0.0030536
-0.00320869
-0.000207331
0.00496847
0.00936173
0.0105877
0.00923862
0.00634096
0.00332813
0.00121399
0.000204448
-7.67694e-06
-7.0489e-06
-4.12712e-06
-1.48441e-06
-2.23684e-07
3.48716e-10
2.63441e-10
1.07651e-10
1.72108e-11
-3.60091e-13
-1.59263e-13
-6.39471e-14
-1.59828e-14
-1.1084e-15
-1.05215e-16
-6.69124e-17
-4.71084e-17
-2.94456e-17
-1.66964e-17
-8.87947e-18
-0.00130285
-0.00130417
-0.00130161
-0.00129331
-0.00130347
-0.00133176
-0.00130945
-0.00123139
-0.00124673
-0.0014077
-0.0014655
-0.00129046
-0.0011869
-0.00141709
-0.00149945
-0.0006635
0.000774209
0.00111459
-0.000481628
-0.00294171
-0.00353877
-0.00107905
0.0036464
0.00786033
0.00918583
0.0080687
0.0055049
0.0028424
0.000999271
0.00014584
-9.61635e-06
-8.61886e-06
-4.71461e-06
-1.48516e-06
-1.35043e-07
2.33435e-10
1.69436e-10
5.56509e-11
5.05388e-12
5.62092e-13
2.1788e-13
4.81202e-14
3.33694e-15
1.25367e-16
1.4245e-18
-3.14029e-17
-3.03989e-17
-2.13427e-17
-1.30606e-17
-7.37936e-18
-0.00138504
-0.00138648
-0.00138392
-0.00137479
-0.00138497
-0.00141606
-0.00139461
-0.00130945
-0.00131956
-0.0014924
-0.00156956
-0.00138793
-0.00124835
-0.00145416
-0.00157868
-0.000808884
0.000640945
0.00115336
-0.000211476
-0.00255116
-0.003338
-0.0013155
0.00289144
0.00677837
0.00809971
0.00717519
0.00492166
0.00254986
0.000898345
0.000132037
-9.18159e-06
-8.20079e-06
-4.46477e-06
-1.3843e-06
-1.22162e-07
-2.14728e-11
-1.53825e-11
-7.03652e-12
8.10789e-13
1.69463e-12
7.29896e-13
1.01902e-13
-2.9933e-16
-1.34256e-16
-7.86688e-17
-5.13035e-17
-3.31621e-17
-2.04994e-17
-1.20733e-17
-6.79863e-18
-0.00140497
-0.00140643
-0.00140403
-0.0013949
-0.00140434
-0.00143531
-0.00141606
-0.00133176
-0.00133759
-0.001505
-0.00158747
-0.00141917
-0.00128429
-0.00146943
-0.00156455
-0.000805386
0.000585209
0.00104373
-0.00029575
-0.00252307
-0.0031683
-0.00103167
0.00323768
0.00712271
0.00840437
0.00743289
0.005115
0.00267242
0.000959383
0.000150912
-8.4413e-06
-7.63703e-06
-4.26414e-06
-1.38297e-06
-1.4238e-07
-1.94659e-11
1.73457e-12
7.9771e-12
6.1603e-12
2.82878e-12
6.55435e-13
1.33188e-14
-2.96488e-16
-1.57187e-16
-8.51433e-17
-5.1854e-17
-3.23461e-17
-1.97153e-17
-1.15941e-17
-6.55993e-18
-0.00137482
-0.00137623
-0.00137385
-0.00136502
-0.00137439
-0.00140434
-0.00138497
-0.00130347
-0.00131071
-0.00147314
-0.00154923
-0.0013855
-0.00126408
-0.00145275
-0.00153072
-0.000751043
0.000621552
0.00101407
-0.00040072
-0.00264826
-0.00320757
-0.000909623
0.00354364
0.00754296
0.00882589
0.00778447
0.00535277
0.00279905
0.00100819
0.000161027
-8.20823e-06
-7.47017e-06
-4.23132e-06
-1.40548e-06
-1.55467e-07
2.93224e-11
2.52966e-11
1.57968e-11
7.66307e-12
2.67947e-12
4.51719e-13
3.88303e-16
-1.11908e-16
-9.13524e-17
-6.62527e-17
-4.5382e-17
-2.97434e-17
-1.86497e-17
-1.11803e-17
-6.41083e-18
-0.00136524
-0.00136664
-0.00136422
-0.00135542
-0.00136502
-0.0013949
-0.00137479
-0.00129331
-0.00130201
-0.00146568
-0.00153945
-0.0013718
-0.00125038
-0.00144712
-0.00153205
-0.000747534
0.000643184
0.0010458
-0.000384036
-0.00266904
-0.00326668
-0.000990162
0.00346049
0.00747163
0.0087677
0.00773563
0.00531475
0.00277327
0.000994258
0.000156158
-8.37945e-06
-7.59863e-06
-4.27013e-06
-1.40063e-06
-1.49188e-07
1.51383e-11
1.4287e-11
1.05532e-11
6.10835e-12
2.5417e-12
5.89558e-13
1.65747e-14
-8.31537e-17
-7.28594e-17
-5.72899e-17
-4.1561e-17
-2.82203e-17
-1.80765e-17
-1.09787e-17
-6.34564e-18
-0.00137413
-0.00137554
-0.0013731
-0.00136422
-0.00137385
-0.00140403
-0.00138392
-0.00130161
-0.00130999
-0.00147512
-0.00155081
-0.00138155
-0.00125613
-0.00145193
-0.00154229
-0.000762449
0.000634364
0.00105576
-0.000354579
-0.00263655
-0.0032594
-0.00102782
0.00337235
0.00735158
0.00864691
0.00763392
0.00524476
0.00273514
0.000979069
0.000152833
-8.45669e-06
-7.65515e-06
-4.28487e-06
-1.39622e-06
-1.45616e-07
9.43416e-12
9.79959e-12
8.66495e-12
5.80401e-12
2.70073e-12
7.1189e-13
3.53823e-14
-7.75798e-17
-6.8879e-17
-5.51258e-17
-4.05806e-17
-2.78286e-17
-1.79338e-17
-1.09306e-17
-6.33057e-18
-0.00137655
-0.00137796
-0.00137554
-0.00136664
-0.00137623
-0.00140643
-0.00138648
-0.00130417
-0.00131216
-0.00147712
-0.0015533
-0.00138491
-0.00125943
-0.00145351
-0.0015422
-0.000763624
0.000629242
0.00104877
-0.000357928
-0.00263119
-0.00324557
-0.00100965
0.00339034
0.00736647
0.0086587
0.00764357
0.00525215
0.00274009
0.000981733
0.00015377
-8.40697e-06
-7.61628e-06
-4.27169e-06
-1.39703e-06