/*--------------------------------*- C++ -*----------------------------------*\
| =========                 |                                                 |
| \\      /  F ield         | OpenFOAM: The Open Source CFD Toolbox           |
|  \\    /   O peration     | Version:  v2006                                 |
|   \\  /    A nd           | Website:  www.openfoam.com                      |
|    \\/     M anipulation  |                                                 |
\*---------------------------------------------------------------------------*/
FoamFile
{
    version     2.0;
    format      ascii;
    class       volVectorField;
    location    "0";
    object      U;
}
// * * * * * * * * * * * * * * * * * * * * * * * * * * * * * * * * * * * * * //

dimensions      [0 1 -1 0 0 0 0];


internalField   nonuniform List<vector> 
20000
(
(1 3.0328e-11 0)
(1 4.87651e-11 0)
(1 5.45371e-11 0)
(1 5.64532e-11 0)
(1 5.15483e-11 0)
(1 4.01946e-11 0)
(1 2.48849e-11 0)
(1 6.10843e-12 0)
(1 -1.99748e-11 0)
(1 -5.85698e-11 0)
(1 -1.14985e-10 0)
(1 -1.947e-10 0)
(1 -3.03653e-10 0)
(1 -4.48788e-10 0)
(1 -6.38771e-10 0)
(1 -8.84673e-10 0)
(1 -1.20061e-09 0)
(1 -1.60413e-09 0)
(1 -2.1162e-09 0)
(1 -2.76103e-09 0)
(1 -3.56636e-09 0)
(1 -4.56517e-09 0)
(1 -5.7993e-09 0)
(1 -7.32428e-09 0)
(1 -9.21286e-09 0)
(1 -1.15547e-08 0)
(1 -1.44509e-08 0)
(1 -1.80043e-08 0)
(1 -2.23084e-08 0)
(1 -2.74393e-08 0)
(1 -3.34527e-08 0)
(1 -4.03867e-08 0)
(1 -4.82671e-08 0)
(1 -5.71075e-08 0)
(1 -6.69007e-08 0)
(1 -7.75942e-08 0)
(1 -8.90412e-08 0)
(1 -1.00925e-07 0)
(1 -1.1266e-07 0)
(1.00001 -1.23305e-07 0)
(1.00001 -1.31537e-07 0)
(1.00001 -1.35776e-07 0)
(1.00001 -1.34496e-07 0)
(1.00001 -1.26633e-07 0)
(1.00001 -1.11859e-07 0)
(1.00001 -9.07315e-08 0)
(1.00001 -6.55973e-08 0)
(1.00001 -4.36718e-08 0)
(1.00001 -4.06576e-08 0)
(1.00001 -7.41574e-08 0)
(1.00001 -1.28602e-07 0)
(1.00001 -1.07712e-07 0)
(1.00001 1.0197e-07 0)
(1.00001 4.07014e-07 0)
(1.00001 6.93241e-07 0)
(1.00001 8.97778e-07 0)
(1.00001 1.00675e-06 0)
(1.00001 1.029e-06 0)
(1.00001 9.80553e-07 0)
(1 8.84696e-07 0)
(1 7.61346e-07 0)
(0.999998 6.20007e-07 0)
(0.999996 4.65231e-07 0)
(0.999994 3.02026e-07 0)
(0.999992 1.37145e-07 0)
(0.99999 -2.09075e-08 0)
(0.999988 -1.62878e-07 0)
(0.999987 -2.8007e-07 0)
(0.999985 -3.6555e-07 0)
(0.999984 -4.15014e-07 0)
(0.999983 -4.27265e-07 0)
(0.999983 -4.04242e-07 0)
(0.999983 -3.52597e-07 0)
(0.999982 -2.88724e-07 0)
(0.999982 -2.47253e-07 0)
(0.999983 -2.46677e-07 0)
(0.999984 -2.78865e-07 0)
(0.999985 -3.29592e-07 0)
(0.999988 -3.84587e-07 0)
(0.99999 -4.30948e-07 0)
(0.999993 -4.58649e-07 0)
(0.999997 -4.61015e-07 0)
(1 -4.32956e-07 0)
(1.00001 -3.64247e-07 0)
(1.00001 -2.24072e-07 0)
(1.00001 4.81485e-08 0)
(1.00002 5.22012e-07 0)
(1.00002 1.11558e-06 0)
(1.00002 1.56074e-06 0)
(1.00002 1.83473e-06 0)
(1.00001 1.96893e-06 0)
(1.00001 1.99506e-06 0)
(1.00001 1.92854e-06 0)
(1 1.77371e-06 0)
(0.999998 1.54454e-06 0)
(0.999993 1.25713e-06 0)
(0.999988 9.22733e-07 0)
(0.999983 5.56388e-07 0)
(0.999978 1.80096e-07 0)
(0.999974 -1.81523e-07 0)
(0.99997 -5.04624e-07 0)
(0.999966 -7.68878e-07 0)
(0.999963 -9.59721e-07 0)
(0.99996 -1.07e-06 0)
(0.999958 -1.10021e-06 0)
(0.999957 -1.05669e-06 0)
(0.999956 -9.51941e-07 0)
(0.999955 -8.03595e-07 0)
(0.999954 -6.33965e-07 0)
(0.999954 -4.7908e-07 0)
(0.999955 -3.87068e-07 0)
(0.999955 -3.56058e-07 0)
(0.999957 -3.69418e-07 0)
(0.999959 -4.09399e-07 0)
(0.999961 -4.56519e-07 0)
(0.999964 -4.91291e-07 0)
(0.999967 -4.98197e-07 0)
(0.999971 -4.70849e-07 0)
(0.999974 -4.14618e-07 0)
(0.999976 -3.44314e-07 0)
(0.999978 -2.77318e-07 0)
(0.99998 -2.26026e-07 0)
(0.999981 -1.94454e-07 0)
(0.999982 -1.80002e-07 0)
(0.999984 -1.77149e-07 0)
(0.999985 -1.80139e-07 0)
(0.999986 -1.84305e-07 0)
(0.999987 -1.86576e-07 0)
(0.999988 -1.85417e-07 0)
(0.99999 -1.80456e-07 0)
(0.999991 -1.72065e-07 0)
(0.999992 -1.61002e-07 0)
(0.999993 -1.48148e-07 0)
(0.999994 -1.34345e-07 0)
(0.999995 -1.20306e-07 0)
(0.999996 -1.06581e-07 0)
(0.999996 -9.35612e-08 0)
(0.999997 -8.14942e-08 0)
(0.999997 -7.05142e-08 0)
(0.999998 -6.06688e-08 0)
(0.999998 -5.19442e-08 0)
(0.999998 -4.42861e-08 0)
(0.999999 -3.76159e-08 0)
(0.999999 -3.18425e-08 0)
(0.999999 -2.68713e-08 0)
(0.999999 -2.26089e-08 0)
(0.999999 -1.89673e-08 0)
(1 -1.58654e-08 0)
(1 -1.32298e-08 0)
(1 -1.09957e-08 0)
(1 -9.10676e-09 0)
(1 -7.51445e-09 0)
(1 -6.17627e-09 0)
(1 -5.05277e-09 0)
(1 -4.10423e-09 0)
(1 -3.28885e-09 0)
(1 -2.56425e-09 0)
(1 -1.89049e-09 0)
(1 -1.24152e-09 0)
(1 -6.11088e-10 0)
(1 -2.08463e-11 0)
(1 4.72613e-10 0)
(1 7.53795e-10 0)
(1 8.0772e-10 0)
(1 7.37446e-10 0)
(1 6.2331e-10 0)
(1 5.04763e-10 0)
(1 3.98901e-10 0)
(1 3.09349e-10 0)
(1 2.34323e-10 0)
(1 1.71892e-10 0)
(1 1.20275e-10 0)
(1 7.78298e-11 0)
(1 4.31239e-11 0)
(1 1.4918e-11 0)
(1 -7.85329e-12 0)
(1 -2.60946e-11 0)
(1 -4.0588e-11 0)
(1 -5.19855e-11 0)
(1 -6.08414e-11 0)
(1 -6.76271e-11 0)
(1 -7.27397e-11 0)
(1 -7.65166e-11 0)
(1 -7.92422e-11 0)
(1 -8.11503e-11 0)
(1 -8.24469e-11 0)
(1 -8.33052e-11 0)
(1 -8.38649e-11 0)
(1 -8.42473e-11 0)
(1 -8.45606e-11 0)
(1 -8.48951e-11 0)
(1 -8.53344e-11 0)
(1 -8.59586e-11 0)
(1 -8.68351e-11 0)
(1 -8.80955e-11 0)
(1 -8.97217e-11 0)
(1 -9.30094e-11 0)
(1 -9.17923e-11 0)
(1 -1.03306e-10 0)
(1 -8.36071e-11 0)
(1 8.46863e-11 0)
(1 1.21899e-10 0)
(1 1.26397e-10 0)
(1 1.30462e-10 0)
(1 1.25044e-10 0)
(1 1.08301e-10 0)
(1 7.97959e-11 0)
(1 3.37843e-11 0)
(1 -4.05888e-11 0)
(1 -1.56487e-10 0)
(1 -3.28002e-10 0)
(1 -5.70241e-10 0)
(1 -9.00071e-10 0)
(1 -1.33773e-09 0)
(1 -1.90892e-09 0)
(1 -2.64689e-09 0)
(1 -3.59416e-09 0)
(1 -4.80361e-09 0)
(1 -6.33835e-09 0)
(1 -8.27114e-09 0)
(1 -1.06852e-08 0)
(1 -1.36793e-08 0)
(1 -1.73788e-08 0)
(1 -2.19503e-08 0)
(1 -2.76118e-08 0)
(1 -3.46323e-08 0)
(1 -4.33146e-08 0)
(1 -5.39667e-08 0)
(1 -6.68693e-08 0)
(1 -8.22518e-08 0)
(1 -1.00283e-07 0)
(1 -1.2108e-07 0)
(1 -1.44719e-07 0)
(1 -1.71237e-07 0)
(1 -2.00604e-07 0)
(1 -2.32651e-07 0)
(1 -2.66942e-07 0)
(1 -3.02573e-07 0)
(1 -3.37901e-07 0)
(1.00001 -3.7027e-07 0)
(1.00001 -3.95866e-07 0)
(1.00001 -4.09924e-07 0)
(1.00001 -4.07447e-07 0)
(1.00001 -3.84494e-07 0)
(1.00001 -3.399e-07 0)
(1.00001 -2.77198e-07 0)
(1.00001 -2.06456e-07 0)
(1.00001 -1.45608e-07 0)
(1.00001 -1.1932e-07 0)
(1.00001 -1.50369e-07 2.87142e-42)
(1.00001 -2.3603e-07 8.16305e-42)
(1.00001 -3.18047e-07 0)
(1.00001 -3.16872e-07 0)
(1.00002 -2.76765e-07 0)
(1.00002 -2.13268e-07 0)
(1.00002 -1.18063e-07 0)
(1.00003 1.24762e-08 0)
(1.00003 1.71585e-07 0)
(1.00004 3.57114e-07 0)
(1.00004 5.32505e-07 0)
(1.00004 6.88063e-07 0)
(1.00004 8.27663e-07 0)
(1.00004 9.53033e-07 0)
(1.00003 1.06207e-06 0)
(1.00003 1.15006e-06 0)
(1.00002 1.20985e-06 0)
(1.00002 1.23315e-06 0)
(1.00001 1.21403e-06 0)
(1.00001 1.15162e-06 0)
(1 1.04935e-06 0)
(0.999998 9.12207e-07 0)
(0.999993 7.45712e-07 0)
(0.999989 5.55397e-07 0)
(0.999987 3.43262e-07 0)
(0.999985 9.84626e-08 0)
(0.999984 -1.78622e-07 0)
(0.999985 -4.72518e-07 0)
(0.999986 -7.70145e-07 0)
(0.999988 -1.06098e-06 0)
(0.99999 -1.33593e-06 0)
(0.999994 -1.58711e-06 0)
(0.999998 -1.80701e-06 0)
(1 -1.98711e-06 0)
(1.00001 -2.11487e-06 0)
(1.00001 -2.16622e-06 0)
(1.00002 -2.10076e-06 0)
(1.00003 -1.86863e-06 0)
(1.00004 -1.51589e-06 0)
(1.00005 -1.21157e-06 0)
(1.00006 -9.22917e-07 0)
(1.00007 -6.11962e-07 0)
(1.00008 -2.58425e-07 0)
(1.00009 1.43791e-07 0)
(1.00009 6.13993e-07 0)
(1.00009 1.10031e-06 0)
(1.00009 1.57718e-06 0)
(1.00009 2.02714e-06 0)
(1.00009 2.42642e-06 0)
(1.00008 2.74983e-06 0)
(1.00007 2.97513e-06 0)
(1.00005 3.08642e-06 0)
(1.00004 3.07665e-06 0)
(1.00003 2.94873e-06 0)
(1.00001 2.71495e-06 0)
(1 2.39553e-06 0)
(0.999988 2.01733e-06 0)
(0.999978 1.60972e-06 0)
(0.99997 1.20148e-06 0)
(0.999964 8.14181e-07 0)
(0.99996 4.48931e-07 0)
(0.999958 8.58872e-08 0)
(0.999958 -2.73743e-07 0)
(0.999958 -6.15761e-07 0)
(0.999959 -9.29715e-07 0)
(0.999962 -1.19296e-06 0)
(0.999964 -1.37205e-06 0)
(0.999968 -1.4373e-06 0)
(0.999971 -1.3807e-06 0)
(0.999974 -1.22577e-06 0)
(0.999976 -1.02196e-06 0)
(0.999978 -8.24692e-07 0)
(0.99998 -6.73056e-07 0)
(0.999981 -5.79928e-07 0)
(0.999982 -5.37784e-07 0)
(0.999984 -5.30138e-07 0)
(0.999985 -5.39759e-07 0)
(0.999986 -5.52684e-07 0)
(0.999987 -5.59741e-07 0)
(0.999988 -5.56375e-07 0)
(0.99999 -5.4152e-07 0)
(0.999991 -5.16325e-07 0)
(0.999992 -4.83089e-07 0)
(0.999993 -4.44476e-07 0)
(0.999994 -4.03021e-07 0)
(0.999995 -3.60867e-07 0)
(0.999996 -3.19667e-07 0)
(0.999996 -2.8059e-07 0)
(0.999997 -2.4438e-07 0)
(0.999997 -2.11438e-07 0)
(0.999998 -1.81905e-07 0)
(0.999998 -1.55738e-07 0)
(0.999998 -1.32771e-07 0)
(0.999999 -1.1277e-07 0)
(0.999999 -9.54587e-08 0)
(0.999999 -8.05536e-08 0)
(0.999999 -6.77745e-08 0)
(0.999999 -5.68568e-08 0)
(1 -4.75576e-08 0)
(1 -3.96574e-08 0)
(1 -3.29613e-08 0)
(1 -2.72981e-08 0)
(1 -2.25182e-08 0)
(1 -1.84917e-08 0)
(1 -1.51056e-08 0)
(1 -1.22607e-08 0)
(1 -9.8697e-09 0)
(1 -7.85633e-09 0)
(1 -6.15326e-09 0)
(1 -4.70573e-09 0)
(1 -3.47065e-09 0)
(1 -2.42058e-09 0)
(1 -1.54789e-09 0)
(1 -9.01008e-10 0)
(1 -4.64781e-10 0)
(1 -1.5753e-10 0)
(1 8.17727e-11 0)
(1 2.7515e-10 0)
(1 4.21957e-10 0)
(1 5.32512e-10 0)
(1 6.14032e-10 0)
(1 6.71429e-10 0)
(1 7.09025e-10 0)
(1 7.30459e-10 0)
(1 7.3882e-10 0)
(1 7.36705e-10 0)
(1 7.26281e-10 0)
(1 7.09364e-10 0)
(1 6.87433e-10 0)
(1 6.61724e-10 0)
(1 6.33254e-10 0)
(1 6.02841e-10 0)
(1 5.7115e-10 0)
(1 5.38714e-10 0)
(1 5.05952e-10 0)
(1 4.73203e-10 0)
(1 4.40715e-10 0)
(1 4.0867e-10 0)
(1 3.77209e-10 0)
(1 3.46425e-10 0)
(1 3.16363e-10 0)
(1 2.87048e-10 0)
(1 2.58471e-10 0)
(1 2.30599e-10 0)
(1 2.03387e-10 0)
(1 1.76732e-10 0)
(1 1.50531e-10 0)
(1 1.24155e-10 0)
(1 1.01282e-10 0)
(1 7.28787e-11 0)
(1 5.97273e-11 0)
(1 1.3512e-10 0)
(1 1.84931e-10 0)
(1 1.87702e-10 0)
(1 1.97968e-10 0)
(1 1.98508e-10 0)
(1 1.82653e-10 0)
(1 1.43977e-10 0)
(1 7.05959e-11 0)
(1 -5.35614e-11 0)
(1 -2.48151e-10 0)
(1 -5.35505e-10 0)
(1 -9.40234e-10 0)
(1 -1.49022e-09 0)
(1 -2.2191e-09 0)
(1 -3.16968e-09 0)
(1 -4.39738e-09 0)
(1 -5.97311e-09 0)
(1 -7.98496e-09 0)
(1 -1.0538e-08 0)
(1 -1.37535e-08 0)
(1 -1.77697e-08 0)
(1 -2.27511e-08 0)
(1 -2.89066e-08 0)
(1 -3.6513e-08 0)
(1 -4.59335e-08 0)
(1 -5.76159e-08 0)
(1 -7.20644e-08 0)
(1 -8.97919e-08 0)
(1 -1.11267e-07 0)
(1 -1.36871e-07 0)
(1 -1.6689e-07 0)
(1 -2.01518e-07 0)
(1 -2.40889e-07 0)
(1 -2.85068e-07 0)
(1 -3.34014e-07 0)
(1 -3.87455e-07 0)
(1 -4.44689e-07 0)
(1 -5.04246e-07 0)
(1 -5.63438e-07 0)
(1.00001 -6.17879e-07 0)
(1.00001 -6.61216e-07 0)
(1.00001 -6.85408e-07 0)
(1.00001 -6.81884e-07 0)
(1.00001 -6.43746e-07 0)
(1.00001 -5.68935e-07 0)
(1.00001 -4.6379e-07 0)
(1.00001 -3.45715e-07 0)
(1.00001 -2.42856e-07 0)
(1.00001 -1.8913e-07 0)
(1.00001 -2.16103e-07 0)
(1.00001 -3.47719e-07 0)
(1.00001 -5.96658e-07 0)
(1.00001 -9.34482e-07 0)
(1.00002 -1.24129e-06 0)
(1.00002 -1.38868e-06 0)
(1.00002 -1.31552e-06 0)
(1.00002 -1.04047e-06 0)
(1.00002 -6.30509e-07 0)
(1.00002 -1.62513e-07 0)
(1.00002 3.12469e-07 0)
(1.00002 7.73035e-07 0)
(1.00002 1.21469e-06 0)
(1.00002 1.63345e-06 0)
(1.00001 2.01954e-06 0)
(1.00001 2.35637e-06 0)
(1.00001 2.621e-06 0)
(1 2.78809e-06 0)
(1 2.83888e-06 0)
(0.999997 2.76782e-06 0)
(0.999993 2.58069e-06 0)
(0.99999 2.28858e-06 0)
(0.999988 1.90475e-06 0)
(0.999986 1.44559e-06 0)
(0.999984 9.32044e-07 0)
(0.999984 3.89783e-07 0)
(0.999983 -1.60501e-07 0)
(0.999984 -7.07316e-07 0)
(0.999985 -1.24323e-06 0)
(0.999987 -1.76171e-06 0)
(0.99999 -2.25607e-06 0)
(0.999994 -2.71845e-06 0)
(0.999997 -3.13912e-06 0)
(1 -3.50676e-06 0)
(1.00001 -3.81049e-06 0)
(1.00001 -4.0448e-06 0)
(1.00002 -4.21317e-06 0)
(1.00002 -4.3213e-06 0)
(1.00003 -4.33339e-06 0)
(1.00003 -4.16438e-06 0)
(1.00004 -3.78739e-06 0)
(1.00004 -3.20743e-06 0)
(1.00004 -2.43957e-06 0)
(1.00005 -1.49972e-06 0)
(1.00005 -4.02293e-07 0)
(1.00005 8.04056e-07 0)
(1.00004 2.0685e-06 0)
(1.00004 3.33046e-06 0)
(1.00004 4.5152e-06 0)
(1.00003 5.54427e-06 0)
(1.00002 6.34627e-06 0)
(1.00001 6.86604e-06 0)
(1 7.07206e-06 0)
(0.999995 6.96032e-06 0)
(0.999986 6.55363e-06 0)
(0.999979 5.89748e-06 0)
(0.999972 5.05439e-06 0)
(0.999967 4.09833e-06 0)
(0.999962 3.10538e-06 0)
(0.999959 2.13895e-06 0)
(0.999957 1.24152e-06 0)
(0.999956 4.3483e-07 0)
(0.999956 -2.83875e-07 0)
(0.999957 -9.28041e-07 0)
(0.999959 -1.49723e-06 0)
(0.999961 -1.96428e-06 0)
(0.999964 -2.27973e-06 0)
(0.999968 -2.39716e-06 0)
(0.999971 -2.30509e-06 0)
(0.999974 -2.04484e-06 0)
(0.999976 -1.70145e-06 0)
(0.999978 -1.36974e-06 0)
(0.99998 -1.116e-06 0)
(0.999981 -9.61462e-07 0)
(0.999982 -8.92743e-07 0)
(0.999984 -8.81657e-07 0)
(0.999985 -8.99073e-07 0)
(0.999986 -9.21551e-07 0)
(0.999987 -9.33808e-07 0)
(0.999988 -9.28348e-07 0)
(0.99999 -9.03512e-07 0)
(0.999991 -8.61318e-07 0)
(0.999992 -8.05677e-07 0)
(0.999993 -7.4108e-07 0)
(0.999994 -6.7178e-07 0)
(0.999995 -6.01359e-07 0)
(0.999996 -5.32575e-07 0)
(0.999996 -4.67371e-07 0)
(0.999997 -4.0698e-07 0)
(0.999997 -3.52061e-07 0)
(0.999998 -3.02842e-07 0)
(0.999998 -2.59245e-07 0)
(0.999998 -2.20991e-07 0)
(0.999999 -1.87681e-07 0)
(0.999999 -1.58858e-07 0)
(0.999999 -1.34044e-07 0)
(0.999999 -1.12772e-07 0)
(0.999999 -9.45997e-08 0)
(1 -7.91228e-08 0)
(1 -6.59755e-08 0)
(1 -5.48327e-08 0)
(1 -4.54083e-08 0)
(1 -3.74527e-08 0)
(1 -3.07498e-08 0)
(1 -2.51136e-08 0)
(1 -2.03859e-08 0)
(1 -1.64332e-08 0)
(1 -1.31427e-08 0)
(1 -1.0419e-08 0)
(1 -8.17881e-09 0)
(1 -6.34709e-09 0)
(1 -4.85272e-09 0)
(1 -3.62514e-09 0)
(1 -2.58738e-09 0)
(1 -1.69579e-09 0)
(1 -9.4466e-10 0)
(1 -3.32502e-10 0)
(1 1.59411e-10 0)
(1 5.44381e-10 0)
(1 8.41147e-10 0)
(1 1.06535e-09 0)
(1 1.22977e-09 0)
(1 1.34523e-09 0)
(1 1.42075e-09 0)
(1 1.46387e-09 0)
(1 1.48089e-09 0)
(1 1.47706e-09 0)
(1 1.45674e-09 0)
(1 1.42354e-09 0)
(1 1.38045e-09 0)
(1 1.32993e-09 0)
(1 1.274e-09 0)
(1 1.21429e-09 0)
(1 1.15215e-09 0)
(1 1.08862e-09 0)
(1 1.02456e-09 0)
(1 9.60644e-10 0)
(1 8.97364e-10 0)
(1 8.35109e-10 0)
(1 7.74164e-10 0)
(1 7.14714e-10 0)
(1 6.56876e-10 0)
(1 6.00718e-10 0)
(1 5.4625e-10 0)
(1 4.93455e-10 0)
(1 4.42303e-10 0)
(1 3.926e-10 0)
(1 3.45113e-10 0)
(1 2.96289e-10 0)
(1 2.59389e-10 0)
(1 1.89157e-10 0)
(1 1.88651e-10 0)
(1 2.61666e-10 0)
(1 2.70405e-10 0)
(1 2.87593e-10 0)
(1 2.88262e-10 0)
(1 2.62999e-10 0)
(1 2.04617e-10 0)
(1 9.9431e-11 0)
(1 -7.46767e-11 0)
(1 -3.45704e-10 0)
(1 -7.45487e-10 0)
(1 -1.30886e-09 0)
(1 -2.07506e-09 0)
(1 -3.09119e-09 0)
(1 -4.41708e-09 0)
(1 -6.13008e-09 0)
(1 -8.32918e-09 0)
(1 -1.11374e-08 0)
(1 -1.47014e-08 0)
(1 -1.91903e-08 0)
(1 -2.47977e-08 0)
(1 -3.17531e-08 0)
(1 -4.03483e-08 0)
(1 -5.09703e-08 0)
(1 -6.41267e-08 0)
(1 -8.04431e-08 0)
(1 -1.00625e-07 0)
(1 -1.25389e-07 0)
(1 -1.55391e-07 0)
(1 -1.91169e-07 0)
(1 -2.33121e-07 0)
(1 -2.81529e-07 0)
(1 -3.36587e-07 0)
(1 -3.98403e-07 0)
(1 -4.6694e-07 0)
(1 -5.41851e-07 0)
(1 -6.22189e-07 0)
(1 -7.0594e-07 0)
(1 -7.89368e-07 0)
(1.00001 -8.66321e-07 0)
(1.00001 -9.27829e-07 0)
(1.00001 -9.62497e-07 0)
(1.00001 -9.58136e-07 0)
(1.00001 -9.04848e-07 0)
(1.00001 -7.99325e-07 0)
(1.00001 -6.49699e-07 0)
(1.00001 -4.79764e-07 0)
(1.00001 -3.30568e-07 0)
(1.00001 -2.56199e-07 0)
(1.00001 -3.09554e-07 0)
(1.00001 -5.15994e-07 0)
(1.00001 -8.43782e-07 0)
(1.00001 -1.19671e-06 0)
(1.00002 -1.43914e-06 0)
(1.00002 -1.47186e-06 0)
(1.00002 -1.26036e-06 0)
(1.00002 -8.41883e-07 0)
(1.00002 -2.99804e-07 0)
(1.00002 2.79402e-07 0)
(1.00002 8.47791e-07 0)
(1.00002 1.3847e-06 0)
(1.00002 1.887e-06 0)
(1.00002 2.35316e-06 0)
(1.00001 2.77382e-06 0)
(1.00001 3.13109e-06 0)
(1.00001 3.39918e-06 0)
(1 3.54901e-06 0)
(1 3.55983e-06 0)
(0.999997 3.42764e-06 0)
(0.999993 3.1622e-06 0)
(0.99999 2.77841e-06 0)
(0.999988 2.29191e-06 0)
(0.999986 1.71969e-06 0)
(0.999984 1.08029e-06 0)
(0.999983 3.93444e-07 0)
(0.999983 -3.22939e-07 0)
(0.999984 -1.05187e-06 0)
(0.999985 -1.77599e-06 0)
(0.999987 -2.47936e-06 0)
(0.99999 -3.14707e-06 0)
(0.999993 -3.76444e-06 0)
(0.999997 -4.31624e-06 0)
(1 -4.78591e-06 0)
(1.00001 -5.15446e-06 0)
(1.00001 -5.39953e-06 0)
(1.00002 -5.49588e-06 0)
(1.00002 -5.4219e-06 0)
(1.00003 -5.16335e-06 0)
(1.00003 -4.70937e-06 0)
(1.00004 -4.07055e-06 0)
(1.00004 -3.24278e-06 0)
(1.00004 -2.22318e-06 0)
(1.00005 -1.02169e-06 0)
(1.00005 3.22413e-07 0)
(1.00005 1.78411e-06 0)
(1.00004 3.30297e-06 0)
(1.00004 4.79544e-06 0)
(1.00004 6.16959e-06 0)
(1.00003 7.33428e-06 0)
(1.00002 8.20855e-06 0)
(1.00001 8.73215e-06 0)
(1 8.87406e-06 0)
(0.999995 8.6363e-06 0)
(0.999986 8.05206e-06 0)
(0.999979 7.17987e-06 0)
(0.999972 6.09795e-06 0)
(0.999966 4.89804e-06 0)
(0.999962 3.6714e-06 0)
(0.999959 2.4893e-06 0)
(0.999957 1.39064e-06 0)
(0.999956 3.8407e-07 0)
(0.999956 -5.37225e-07 0)
(0.999957 -1.38677e-06 0)
(0.999959 -2.15468e-06 0)
(0.999961 -2.79476e-06 0)
(0.999964 -3.22998e-06 0)
(0.999968 -3.38879e-06 0)
(0.999971 -3.25132e-06 0)
(0.999974 -2.87526e-06 0)
(0.999976 -2.38268e-06 0)
(0.999978 -1.90995e-06 0)
(0.99998 -1.5515e-06 0)
(0.999981 -1.33606e-06 0)
(0.999982 -1.24281e-06 0)
(0.999984 -1.23065e-06 0)
(0.999985 -1.25786e-06 0)
(0.999986 -1.29123e-06 0)
(0.999987 -1.30939e-06 0)
(0.999988 -1.30202e-06 0)
(0.99999 -1.26705e-06 0)
(0.999991 -1.20753e-06 0)
(0.999992 -1.12909e-06 0)
(0.999993 -1.03813e-06 0)
(0.999994 -9.40666e-07 0)
(0.999995 -8.41728e-07 0)
(0.999996 -7.45181e-07 0)
(0.999996 -6.53735e-07 0)
(0.999997 -5.69099e-07 0)
(0.999997 -4.92179e-07 0)
(0.999998 -4.23278e-07 0)
(0.999998 -3.62274e-07 0)
(0.999998 -3.08766e-07 0)
(0.999999 -2.62189e-07 0)
(0.999999 -2.21895e-07 0)
(0.999999 -1.87214e-07 0)
(0.999999 -1.57488e-07 0)
(0.999999 -1.32098e-07 0)
(1 -1.10476e-07 0)
(1 -9.21111e-08 0)
(1 -7.65471e-08 0)
(1 -6.33849e-08 0)
(1 -5.22761e-08 0)
(1 -4.29186e-08 0)
(1 -3.50514e-08 0)
(1 -2.84489e-08 0)
(1 -2.29167e-08 0)
(1 -1.82877e-08 0)
(1 -1.44192e-08 0)
(1 -1.11913e-08 0)
(1 -8.50565e-09 0)
(1 -6.28294e-09 0)
(1 -4.46112e-09 0)
(1 -2.98274e-09 0)
(1 -1.79815e-09 0)
(1 -8.59908e-10 0)
(1 -1.22969e-10 0)
(1 4.51642e-10 0)
(1 8.99262e-10 0)
(1 1.24191e-09 0)
(1 1.4977e-09 0)
(1 1.68214e-09 0)
(1 1.80819e-09 0)
(1 1.88668e-09 0)
(1 1.92668e-09 0)
(1 1.93576e-09 0)
(1 1.92023e-09 0)
(1 1.88534e-09 0)
(1 1.8354e-09 0)
(1 1.77402e-09 0)
(1 1.70414e-09 0)
(1 1.62816e-09 0)
(1 1.54803e-09 0)
(1 1.46534e-09 0)
(1 1.38134e-09 0)
(1 1.29702e-09 0)
(1 1.21316e-09 0)
(1 1.13033e-09 0)
(1 1.04898e-09 0)
(1 9.69408e-10 0)
(1 8.91816e-10 0)
(1 8.16316e-10 0)
(1 7.42957e-10 0)
(1 6.71724e-10 0)
(1 6.02557e-10 0)
(1 5.35378e-10 0)
(1 4.69989e-10 0)
(1 4.06749e-10 0)
(1 3.4307e-10 0)
(1 2.90561e-10 0)
(1 1.96734e-10 0)
(1 2.42862e-10 0)
(1 3.3742e-10 0)
(1 3.48079e-10 0)
(1 3.69031e-10 0)
(1 3.6924e-10 0)
(1 3.37426e-10 0)
(1 2.6483e-10 0)
(1 1.32957e-10 0)
(1 -8.74216e-11 0)
(1 -4.32536e-10 0)
(1 -9.43117e-10 0)
(1 -1.66358e-09 0)
(1 -2.64398e-09 0)
(1 -3.94453e-09 0)
(1 -5.64177e-09 0)
(1 -7.83485e-09 0)
(1 -1.06506e-08 0)
(1 -1.42468e-08 0)
(1 -1.88115e-08 0)
(1 -2.45615e-08 0)
(1 -3.17449e-08 0)
(1 -4.0656e-08 0)
(1 -5.16687e-08 0)
(1 -6.52796e-08 0)
(1 -8.21396e-08 0)
(1 -1.03051e-07 0)
(1 -1.2892e-07 0)
(1 -1.60667e-07 0)
(1 -1.99134e-07 0)
(1 -2.45015e-07 0)
(1 -2.98829e-07 0)
(1 -3.60946e-07 0)
(1 -4.31629e-07 0)
(1 -5.11043e-07 0)
(1 -5.99172e-07 0)
(1 -6.95619e-07 0)
(1 -7.99237e-07 0)
(1 -9.07529e-07 0)
(1 -1.01579e-06 0)
(1.00001 -1.11618e-06 0)
(1.00001 -1.19708e-06 0)
(1.00001 -1.24359e-06 0)
(1.00001 -1.23949e-06 0)
(1.00001 -1.17135e-06 0)
(1.00001 -1.03421e-06 0)
(1.00001 -8.38274e-07 0)
(1.00001 -6.14495e-07 0)
(1.00001 -4.16049e-07 0)
(1.00001 -3.11788e-07 0)
(1.00001 -3.6889e-07 0)
(1.00001 -6.2559e-07 0)
(1.00001 -1.06035e-06 0)
(1.00001 -1.57136e-06 0)
(1.00002 -1.98675e-06 0)
(1.00002 -2.14217e-06 0)
(1.00002 -1.95651e-06 0)
(1.00002 -1.4621e-06 0)
(1.00002 -7.61946e-07 0)
(1.00002 2.75227e-08 0)
(1.00002 8.15859e-07 0)
(1.00002 1.56619e-06 0)
(1.00002 2.27629e-06 0)
(1.00002 2.94543e-06 0)
(1.00001 3.5599e-06 0)
(1.00001 4.0935e-06 0)
(1.00001 4.50829e-06 0)
(1 4.76086e-06 0)
(1 4.81924e-06 0)
(0.999997 4.67553e-06 0)
(0.999993 4.34177e-06 0)
(0.99999 3.83779e-06 0)
(0.999988 3.18555e-06 0)
(0.999985 2.41076e-06 0)
(0.999984 1.54375e-06 0)
(0.999983 6.16763e-07 0)
(0.999983 -3.41333e-07 0)
(0.999984 -1.30648e-06 0)
(0.999985 -2.25897e-06 0)
(0.999987 -3.18231e-06 0)
(0.99999 -4.06123e-06 0)
(0.999993 -4.87976e-06 0)
(0.999997 -5.61978e-06 0)
(1 -6.26036e-06 0)
(1.00001 -6.77836e-06 0)
(1.00001 -7.15025e-06 0)
(1.00002 -7.35347e-06 0)
(1.00002 -7.36675e-06 0)
(1.00003 -7.16227e-06 0)
(1.00003 -6.70258e-06 0)
(1.00004 -5.96578e-06 0)
(1.00004 -4.93617e-06 0)
(1.00005 -3.61266e-06 0)
(1.00005 -2.0106e-06 0)
(1.00005 -1.63643e-07 0)
(1.00005 1.8616e-06 0)
(1.00005 3.97386e-06 0)
(1.00004 6.06475e-06 0)
(1.00004 8.01133e-06 0)
(1.00003 9.68552e-06 0)
(1.00002 1.09705e-05 0)
(1.00001 1.1777e-05 0)
(1 1.20556e-05 0)
(0.999995 1.18035e-05 0)
(0.999986 1.10617e-05 0)
(0.999978 9.90853e-06 0)
(0.999971 8.45124e-06 0)
(0.999966 6.81736e-06 0)
(0.999961 5.13616e-06 0)
(0.999958 3.51223e-06 0)
(0.999957 2.00682e-06 0)
(0.999956 6.39709e-07 0)
(0.999956 -6.02793e-07 0)
(0.999957 -1.73591e-06 0)
(0.999958 -2.75446e-06 0)
(0.999961 -3.60297e-06 0)
(0.999964 -4.18083e-06 0)
(0.999967 -4.39238e-06 0)
(0.999971 -4.21037e-06 0)
(0.999974 -3.71182e-06 0)
(0.999977 -3.06076e-06 0)
(0.999979 -2.44009e-06 0)
(0.99998 -1.97465e-06 0)
(0.999981 -1.69983e-06 0)
(0.999982 -1.58541e-06 0)
(0.999984 -1.57577e-06 0)
(0.999985 -1.61571e-06 0)
(0.999986 -1.66195e-06 0)
(0.999987 -1.68701e-06 0)
(0.999988 -1.678e-06 0)
(0.99999 -1.6327e-06 0)
(0.999991 -1.5554e-06 0)
(0.999992 -1.45362e-06 0)
(0.999993 -1.33578e-06 0)
(0.999994 -1.20971e-06 0)
(0.999995 -1.0819e-06 0)
(0.999996 -9.57349e-07 0)
(0.999996 -8.39504e-07 0)
(0.999997 -7.30537e-07 0)
(0.999997 -6.31585e-07 0)
(0.999998 -5.4301e-07 0)
(0.999998 -4.64633e-07 0)
(0.999998 -3.9592e-07 0)
(0.999999 -3.36132e-07 0)
(0.999999 -2.84428e-07 0)
(0.999999 -2.39938e-07 0)
(0.999999 -2.01813e-07 0)
(0.999999 -1.69257e-07 0)
(1 -1.41537e-07 0)
(1 -1.17994e-07 0)
(1 -9.80454e-08 0)
(1 -8.11763e-08 0)
(1 -6.69394e-08 0)
(1 -5.49465e-08 0)
(1 -4.48634e-08 0)
(1 -3.64038e-08 0)
(1 -2.93231e-08 0)
(1 -2.34131e-08 0)
(1 -1.84965e-08 0)
(1 -1.44213e-08 0)
(1 -1.10559e-08 0)
(1 -8.28554e-09 0)
(1 -6.00974e-09 0)
(1 -4.14114e-09 0)
(1 -2.61018e-09 0)
(1 -1.36521e-09 0)
(1 -3.57623e-10 0)
(1 4.45251e-10 0)
(1 1.07402e-09 0)
(1 1.55732e-09 0)
(1 1.92065e-09 0)
(1 2.18517e-09 0)
(1 2.36864e-09 0)
(1 2.486e-09 0)
(1 2.54977e-09 0)
(1 2.5704e-09 0)
(1 2.55663e-09 0)
(1 2.51571e-09 0)
(1 2.45365e-09 0)
(1 2.37541e-09 0)
(1 2.28509e-09 0)
(1 2.18603e-09 0)
(1 2.08094e-09 0)
(1 1.97203e-09 0)
(1 1.86106e-09 0)
(1 1.74942e-09 0)
(1 1.63818e-09 0)
(1 1.5282e-09 0)
(1 1.42008e-09 0)
(1 1.31427e-09 0)
(1 1.21107e-09 0)
(1 1.11064e-09 0)
(1 1.01309e-09 0)
(1 9.18405e-10 0)
(1 8.26524e-10 0)
(1 7.37367e-10 0)
(1 6.50647e-10 0)
(1 5.66885e-10 0)
(1 4.82784e-10 0)
(1 4.1235e-10 0)
(1 2.90169e-10 0)
(1 2.96984e-10 0)
(1 4.12964e-10 0)
(1 4.26589e-10 0)
(1 4.53388e-10 0)
(1 4.55416e-10 0)
(1 4.18686e-10 0)
(1 3.32141e-10 0)
(1 1.73058e-10 0)
(1 -9.38626e-11 0)
(1 -5.12386e-10 0)
(1 -1.13191e-09 0)
(1 -2.00647e-09 0)
(1 -3.19706e-09 0)
(1 -4.77705e-09 0)
(1 -6.83966e-09 0)
(1 -9.50559e-09 0)
(1 -1.29293e-08 0)
(1 -1.73028e-08 0)
(1 -2.2855e-08 0)
(1 -2.98501e-08 0)
(1 -3.85899e-08 0)
(1 -4.94329e-08 0)
(1 -6.28346e-08 0)
(1 -7.93997e-08 0)
(1 -9.99218e-08 0)
(1 -1.25379e-07 0)
(1 -1.56876e-07 0)
(1 -1.95534e-07 0)
(1 -2.42387e-07 0)
(1 -2.98282e-07 0)
(1 -3.63861e-07 0)
(1 -4.39591e-07 0)
(1 -5.25818e-07 0)
(1 -6.22779e-07 0)
(1 -7.30508e-07 0)
(1 -8.48597e-07 0)
(1 -9.75753e-07 0)
(1 -1.10906e-06 0)
(1 -1.2429e-06 0)
(1.00001 -1.36771e-06 0)
(1.00001 -1.46918e-06 0)
(1.00001 -1.52866e-06 0)
(1.00001 -1.52567e-06 0)
(1.00001 -1.44288e-06 0)
(1.00001 -1.27317e-06 0)
(1.00001 -1.02798e-06 0)
(1.00001 -7.44684e-07 0)
(1.00001 -4.89575e-07 0)
(1.00001 -3.51514e-07 0)
(1.00001 -4.20613e-07 0)
(1.00001 -7.49694e-07 0)
(1.00001 -1.30714e-06 0)
(1.00001 -1.94849e-06 0)
(1.00002 -2.44535e-06 0)
(1.00002 -2.59065e-06 0)
(1.00002 -2.29885e-06 0)
(1.00002 -1.62916e-06 0)
(1.00002 -7.30929e-07 0)
(1.00002 2.36942e-07 0)
(1.00002 1.18055e-06 0)
(1.00002 2.06894e-06 0)
(1.00002 2.90478e-06 0)
(1.00002 3.68871e-06 0)
(1.00001 4.40496e-06 0)
(1.00001 5.0229e-06 0)
(1.00001 5.4971e-06 0)
(1 5.77468e-06 0)
(1 5.81767e-06 0)
(0.999997 5.61926e-06 0)
(0.999993 5.19718e-06 0)
(0.99999 4.5769e-06 0)
(0.999987 3.78453e-06 0)
(0.999985 2.84965e-06 0)
(0.999984 1.80669e-06 0)
(0.999983 6.91269e-07 0)
(0.999983 -4.64352e-07 0)
(0.999983 -1.63225e-06 0)
(0.999985 -2.78768e-06 0)
(0.999987 -3.9086e-06 0)
(0.99999 -4.97423e-06 0)
(0.999993 -5.96328e-06 0)
(0.999997 -6.85267e-06 0)
(1 -7.61682e-06 0)
(1.00001 -8.22754e-06 0)
(1.00001 -8.65445e-06 0)
(1.00002 -8.86607e-06 0)
(1.00002 -8.83147e-06 0)
(1.00003 -8.51896e-06 0)
(1.00003 -7.89678e-06 0)
(1.00004 -6.94708e-06 0)
(1.00004 -5.65984e-06 0)
(1.00005 -4.0369e-06 0)
(1.00005 -2.0976e-06 0)
(1.00005 1.12386e-07 0)
(1.00005 2.52639e-06 0)
(1.00005 5.04355e-06 0)
(1.00004 7.53189e-06 0)
(1.00004 9.8398e-06 0)
(1.00003 1.1812e-05 0)
(1.00002 1.33089e-05 0)
(1.00001 1.42251e-05 0)
(1 1.45048e-05 0)
(0.999994 1.41486e-05 0)
(0.999986 1.32103e-05 0)
(0.999978 1.17867e-05 0)
(0.999971 1.00083e-05 0)
(0.999965 8.02988e-06 0)
(0.999961 6.00828e-06 0)
(0.999958 4.06822e-06 0)
(0.999956 2.27781e-06 0)
(0.999955 6.51874e-07 0)
(0.999955 -8.28244e-07 0)
(0.999956 -2.18947e-06 0)
(0.999958 -3.42719e-06 0)
(0.999961 -4.46922e-06 0)
(0.999964 -5.18291e-06 0)
(0.999967 -5.44045e-06 0)
(0.999971 -5.20239e-06 0)
(0.999974 -4.56516e-06 0)
(0.999977 -3.73918e-06 0)
(0.999979 -2.95926e-06 0)
(0.99998 -2.38282e-06 0)
(0.999981 -2.05023e-06 0)
(0.999982 -1.91886e-06 0)
(0.999984 -1.91631e-06 0)
(0.999985 -1.97274e-06 0)
(0.999986 -2.0343e-06 0)
(0.999987 -2.06748e-06 0)
(0.999988 -2.05712e-06 0)
(0.99999 -2.00117e-06 0)
(0.999991 -1.90546e-06 0)
(0.999992 -1.77963e-06 0)
(0.999993 -1.63421e-06 0)
(0.999994 -1.47894e-06 0)
(0.999995 -1.32183e-06 0)
(0.999996 -1.16895e-06 0)
(0.999996 -1.0245e-06 0)
(0.999997 -8.91094e-07 0)
(0.999997 -7.70071e-07 0)
(0.999998 -6.61834e-07 0)
(0.999998 -5.66127e-07 0)
(0.999998 -4.82273e-07 0)
(0.999999 -4.09348e-07 0)
(0.999999 -3.4631e-07 0)
(0.999999 -2.92087e-07 0)
(0.999999 -2.45635e-07 0)
(0.999999 -2.05978e-07 0)
(1 -1.72218e-07 0)
(1 -1.43551e-07 0)
(1 -1.19264e-07 0)
(1 -9.87285e-08 0)
(1 -8.13998e-08 0)
(1 -6.68052e-08 0)
(1 -5.45372e-08 0)
(1 -4.42451e-08 0)
(1 -3.56282e-08 0)
(1 -2.84289e-08 0)
(1 -2.24274e-08 0)
(1 -1.74373e-08 0)
(1 -1.3301e-08 0)
(1 -9.88623e-09 0)
(1 -7.08221e-09 0)
(1 -4.79151e-09 0)
(1 -2.93339e-09 0)
(1 -1.43866e-09 0)
(1 -2.512e-10 0)
(1 6.83467e-10 0)
(1 1.4115e-09 0)
(1 1.96898e-09 0)
(1 2.38571e-09 0)
(1 2.68676e-09 0)
(1 2.89314e-09 0)
(1 3.02245e-09 0)
(1 3.08937e-09 0)
(1 3.10617e-09 0)
(1 3.08307e-09 0)
(1 3.02855e-09 0)
(1 2.94964e-09 0)
(1 2.85213e-09 0)
(1 2.74081e-09 0)
(1 2.61956e-09 0)
(1 2.49155e-09 0)
(1 2.35933e-09 0)
(1 2.22495e-09 0)
(1 2.09002e-09 0)
(1 1.95579e-09 0)
(1 1.82321e-09 0)
(1 1.693e-09 0)
(1 1.56565e-09 0)
(1 1.44149e-09 0)
(1 1.32072e-09 0)
(1 1.20342e-09 0)
(1 1.08958e-09 0)
(1 9.79097e-10 0)
(1 8.71864e-10 0)
(1 7.67527e-10 0)
(1 6.66667e-10 0)
(1 5.65368e-10 0)
(1 4.8014e-10 0)
(1 3.3304e-10 0)
(1 3.51046e-10 0)
(1 4.889e-10 0)
(1 5.0615e-10 0)
(1 5.39232e-10 0)
(1 5.43265e-10 0)
(1 5.01758e-10 0)
(1 4.01868e-10 0)
(1 2.17101e-10 0)
(1 -9.39645e-11 0)
(1 -5.82903e-10 0)
(1 -1.30794e-09 0)
(1 -2.33271e-09 0)
(1 -3.72892e-09 0)
(1 -5.58279e-09 0)
(1 -8.00389e-09 0)
(1 -1.11341e-08 0)
(1 -1.51552e-08 0)
(1 -2.02928e-08 0)
(1 -2.68166e-08 0)
(1 -3.50371e-08 0)
(1 -4.53095e-08 0)
(1 -5.80556e-08 0)
(1 -7.38115e-08 0)
(1 -9.3289e-08 0)
(1 -1.17423e-07 0)
(1 -1.47365e-07 0)
(1 -1.84417e-07 0)
(1 -2.29902e-07 0)
(1 -2.8504e-07 0)
(1 -3.5084e-07 0)
(1 -4.28068e-07 0)
(1 -5.17296e-07 0)
(1 -6.18965e-07 0)
(1 -7.33404e-07 0)
(1 -8.60729e-07 0)
(1 -1.00056e-06 0)
(1 -1.15152e-06 0)
(1 -1.31038e-06 0)
(1 -1.47068e-06 0)
(1.00001 -1.62126e-06 0)
(1.00001 -1.74504e-06 0)
(1.00001 -1.81942e-06 0)
(1.00001 -1.81916e-06 0)
(1.00001 -1.72229e-06 0)
(1.00001 -1.51879e-06 0)
(1.00001 -1.22096e-06 0)
(1.00001 -8.72932e-07 0)
(1.00001 -5.54981e-07 0)
(1.00001 -3.76199e-07 0)
(1.00001 -4.49001e-07 -8.67412e-43)
(1.00001 -8.42464e-07 -4.74788e-42)
(1.00001 -1.52374e-06 0)
(1.00001 -2.32044e-06 0)
(1.00001 -2.95426e-06 0)
(1.00002 -3.16637e-06 0)
(1.00002 -2.84581e-06 0)
(1.00002 -2.06244e-06 0)
(1.00002 -9.9799e-07 0)
(1.00002 1.64499e-07 0)
(1.00002 1.2989e-06 0)
(1.00002 2.36466e-06 0)
(1.00002 3.36947e-06 0)
(1.00002 4.31752e-06 0)
(1.00001 5.19051e-06 0)
(1.00001 5.95151e-06 0)
(1.00001 6.54398e-06 0)
(1 6.90033e-06 0)
(1 6.97154e-06 0)
(0.999996 6.7489e-06 0)
(0.999993 6.25458e-06 0)
(0.99999 5.51943e-06 0)
(0.999987 4.57441e-06 0)
(0.999985 3.4555e-06 0)
(0.999983 2.20561e-06 0)
(0.999982 8.69199e-07 0)
(0.999982 -5.13529e-07 0)
(0.999983 -1.90819e-06 0)
(0.999984 -3.28573e-06 0)
(0.999986 -4.62143e-06 0)
(0.999989 -5.89251e-06 0)
(0.999993 -7.07549e-06 0)
(0.999997 -8.14414e-06 0)
(1 -9.06851e-06 0)
(1.00001 -9.81495e-06 0)
(1.00001 -1.03473e-05 0)
(1.00002 -1.06283e-05 0)
(1.00002 -1.06211e-05 0)
(1.00003 -1.02874e-05 0)
(1.00003 -9.58875e-06 0)
(1.00004 -8.49729e-06 0)
(1.00004 -6.99477e-06 0)
(1.00005 -5.07768e-06 0)
(1.00005 -2.76539e-06 0)
(1.00005 -1.07832e-07 0)
(1.00005 2.80798e-06 0)
(1.00005 5.85606e-06 0)
(1.00004 8.87647e-06 0)
(1.00004 1.16863e-05 0)
(1.00003 1.40969e-05 0)
(1.00002 1.59368e-05 0)
(1.00001 1.70754e-05 0)
(1 1.74427e-05 0)
(0.999994 1.70375e-05 0)
(0.999985 1.59232e-05 0)
(0.999977 1.42159e-05 0)
(0.99997 1.20734e-05 0)
(0.999965 9.68479e-06 0)
(0.99996 7.24468e-06 0)
(0.999957 4.90794e-06 0)
(0.999955 2.75799e-06 0)
(0.999955 8.11675e-07 0)
(0.999955 -9.5732e-07 0)
(0.999956 -2.58614e-06 0)
(0.999958 -4.07526e-06 0)
(0.99996 -5.33838e-06 0)
(0.999964 -6.20833e-06 0)
(0.999967 -6.52095e-06 0)
(0.999971 -6.22253e-06 0)
(0.999974 -5.43181e-06 0)
(0.999977 -4.41326e-06 0)
(0.999979 -3.46168e-06 0)
(0.99998 -2.7705e-06 0)