/*--------------------------------*- C++ -*----------------------------------*\
| =========                 |                                                 |
| \\      /  F ield         | OpenFOAM: The Open Source CFD Toolbox           |
|  \\    /   O peration     | Version:  v2006                                 |
|   \\  /    A nd           | Website:  www.openfoam.com                      |
|    \\/     M anipulation  |                                                 |
\*---------------------------------------------------------------------------*/
FoamFile
{
    version     2.0;
    format      ascii;
    class       volScalarField;
    location    "0";
    object      f;
}
// * * * * * * * * * * * * * * * * * * * * * * * * * * * * * * * * * * * * * //

dimensions      [0 0 0 0 0 0 0];


internalField   nonuniform List<scalar> 
2500
(
4.33696e-07
-2.19815e-07
-5.70468e-07
6.36095e-06
2.82469e-06
-2.32751e-05
-1.16762e-05
6.78865e-05
5.1565e-05
-0.000160063
-0.000229389
0.000275154
0.000709826
-0.000324864
-0.00205868
-0.000925184
0.00225404
-0.00689914
-0.0550408
-0.154157
-0.274389
-0.338782
-0.263812
-0.0393247
0.221292
0.279269
-0.139305
-1.18466
-2.76078
-4.48027
-5.76261
-6.04552
-5.05491
-2.94548
-0.252019
2.33395
4.22814
5.13518
5.07893
4.32394
3.23053
2.13183
1.24084
0.632945
0.280026
0.106271
0.0346652
0.0102444
0.00301076
0.00143834
1.2329e-07
-1.31382e-07
2.77056e-06
1.63922e-06
-1.28078e-05
-5.11671e-06
4.16174e-05
2.38923e-05
-0.000102782
-0.000112133
0.000214461
0.000391133
-0.00034959
-0.00123113
-0.00015006
0.00153616
-0.00447717
-0.0302787
-0.0747623
-0.116583
-0.122037
-0.0689652
0.0135139
0.0577998
-0.0286539
-0.308833
-0.761648
-1.30511
-1.8015
-2.12212
-2.21287
-2.13181
-2.01675
-2.00912
-2.15846
-2.4102
-2.63897
-2.72155
-2.58978
-2.25032
-1.77386
-1.25628
-0.792241
-0.439659
-0.211276
-0.0858108
-0.0283614
-0.00727614
-0.0013088
-0.000282908
3.24902e-07
6.23075e-07
2.90932e-06
-2.03831e-06
-1.26741e-05
7.94632e-06
4.13083e-05
-1.13525e-05
-0.000118468
-2.66676e-05
0.00026757
0.000185492
-0.000576193
-0.000911777
0.000285077
-0.000308845
-0.0136274
-0.0510553
-0.110682
-0.16793
-0.184146
-0.134674
-0.0341587
0.045162
-0.00998733
-0.311909
-0.925203
-1.80291
-2.78047
-3.61069
-4.05289
-3.96453
-3.35639
-2.38399
-1.28001
-0.274607
0.471314
0.895042
1.02507
0.945928
0.757403
0.542003
0.35094
0.20545
0.108138
0.0507064
0.0207875
0.00723431
0.0020812
0.000446823
5.43423e-07
1.47434e-06
2.741e-06
-8.36801e-06
-1.23332e-05
3.01078e-05
4.58741e-05
-7.41395e-05
-0.000153604
0.000112361
0.000424464
-1.37395e-05
-0.000997713
-0.00040036
0.00217936
-0.00116854
-0.0255118
-0.0783778
-0.143619
-0.181098
-0.152321
-0.0516428
0.0634994
0.0843647
-0.111699
-0.603908
-1.37423
-2.28906
-3.13181
-3.68389
-3.81426
-3.53159
-2.97183
-2.32436
-1.74809
-1.32475
-1.05516
-0.890066
-0.767038
-0.641884
-0.500411
-0.353228
-0.222463
-0.124077
-0.0605275
-0.0254899
-0.00929041
-0.00304167
-0.000907825
-0.000381395
1.048e-06
2.56546e-06
-3.36956e-07
-1.59258e-05
-2.64634e-08
5.84448e-05
1.35954e-05
-0.000161855
-9.63244e-05
0.000364536
0.00048814
-0.000412094
-0.000650391
0.00275555
0.00713413
-0.00140333
-0.0383039
-0.102266
-0.162723
-0.173731
-0.102206
0.032099
0.148955
0.12784
-0.148968
-0.736365
-1.58144
-2.51804
-3.31821
-3.77356
-3.77782
-3.36307
-2.67034
-1.88093
-1.15266
-0.580224
-0.19322
0.0296513
0.134742
0.167646
0.162614
0.138001
0.104185
0.0697132
0.0409024
0.0205281
0.00858093
0.00284369
0.000719809
6.95061e-05
1.91636e-06
2.66618e-06
-7.35635e-06
-1.8374e-05
2.73832e-05
7.52322e-05
-6.44502e-05
-0.000235398
0.000106045
0.000705676
0.000460501
-0.00028696
0.00239049
0.0110483
0.0172081
0.00163025
-0.0487541
-0.118959
-0.1638
-0.131785
-0.00364138
0.175722
0.301762
0.240043
-0.116632
-0.784869
-1.65746
-2.52753
-3.16278
-3.39954
-3.20499
-2.681
-2.00298
-1.34434
-0.81986
-0.469827
-0.273487
-0.178574
-0.132959
-0.102792
-0.0742558
-0.0493868
-0.0306266
-0.0182214
-0.0106977
-0.00632521
-0.00350594
-0.00170807
-0.000700987
-0.000271694
2.94502e-06
4.75862e-07
-1.69208e-05
-8.91887e-06
6.71276e-05
5.9691e-05
-0.000192553
-0.000197005
0.000540326
0.00112873
0.000671533
0.00204291
0.0113591
0.0277012
0.0342874
0.00813348
-0.0555699
-0.124251
-0.139151
-0.047718
0.150503
0.387664
0.538091
0.460737
0.0666285
-0.618728
-1.44869
-2.20079
-2.66705
-2.73741
-2.4363
-1.89605
-1.28563
-0.742806
-0.343952
-0.0992069
0.0230795
0.0702543
0.0807468
0.0777191
0.0670726
0.0519427
0.0356215
0.0210821
0.0105349
0.00437794
0.00148295
0.000421344
0.00010895
7.49969e-05
3.50151e-06
-5.48987e-06
-2.38236e-05
2.08594e-05
0.000101507
-1.60521e-05
-0.000310008
8.68769e-05
0.00124399
0.00173447
0.00234651
0.00961008
0.0297746
0.0542833
0.0576784
0.0166482
-0.0585144
-0.116138
-0.0820976
0.0891342
0.38127
0.701805
0.901215
0.834602
0.437345
-0.229237
-0.987144
-1.61307
-1.93375
-1.89342
-1.56358
-1.09212
-0.625197
-0.265083
-0.0453292
0.0520373
0.0719831
0.0583047
0.039519
0.0240868
0.012284
0.00399956
-0.0014055
-0.00400787
-0.00424668
-0.00309329
-0.00167217
-0.000714229
-0.000238153
-2.92906e-05
2.62938e-06
-1.4308e-05
-2.01304e-05
6.84877e-05
0.000103652
-0.000146644
-0.000299589
0.000745078
0.00223797
0.00315227
0.00765883
0.025574
0.0592999
0.0897001
0.0828386
0.0227771
-0.0601343
-0.0896528
0.0149057
0.293964
0.709866
1.13844
1.40763
1.3719
0.989129
0.354051
-0.335201
-0.866706
-1.10687
-1.04567
-0.780134
-0.442733
-0.150295
0.0391186
0.121842
0.130387
0.104827
0.0753636
0.0517773
0.0339071
0.0205691
0.0107
0.00403262
0.000706811
-0.000359391
-0.000154867
5.99627e-05
0.000142146
0.000112899
9.27822e-05
-2.5489e-07
-2.2636e-05
2.67781e-07
0.000120168
5.14398e-05
-0.000262806
-2.16784e-05
0.00181204
0.00368103
0.00647872
0.0187387
0.0513116
0.0983817
0.127655
0.102155
0.0202119
-0.0603126
-0.0435197
0.159307
0.576412
1.14024
1.69181
2.03503
2.024
1.6426
1.01821
0.362474
-0.130465
-0.36209
-0.353913
-0.202848
-0.0239943
0.104602
0.155762
0.144168
0.102622
0.0607584
0.0307503
0.0117433
0.00104274
-0.00401382
-0.0060301
-0.00565036
-0.004044
-0.00214647
-0.000891812
-0.000254093
-9.22972e-06
2.87343e-05
1.67671e-05
-4.83313e-06
-2.69821e-05
3.73868e-05
0.000156718
-4.81571e-05
-0.000304775
0.000574345
0.00318364
0.0057789
0.0124625
0.0359568
0.0847871
0.140413
0.158738
0.10587
0.00426092
-0.0617255
0.0237571
0.349326
0.923786
1.64319
2.30817
2.69791
2.67603
2.26021
1.61041
0.946171
0.442679
0.169652
0.0910425
0.116355
0.15886
0.169455
0.139936
0.0900704
0.0445005
0.0150447
-0.000278457
-0.00608338
-0.006601
-0.00591371
-0.00438275
-0.00261341
-0.00100898
-7.72086e-05
0.000282685
0.000299656
0.000168439
7.40054e-05
1.55613e-05
-1.1052e-05
-2.54092e-05
8.60222e-05
0.000165065
-0.000199213
-0.000265958
0.00135739
0.00453576
0.0079939
0.0200448
0.056658
0.119654
0.175598
0.171437
0.0867273
-0.0306368
-0.0685284
0.0998751
0.557878
1.28773
2.14086
2.87534
3.25734
3.17476
2.686
1.98281
1.28728
0.754997
0.43201
0.276695
0.210538
0.168587
0.119157
0.0639148
0.0180542
-0.00864803
-0.0189951
-0.0190573
-0.0143616
-0.010065
-0.00640927
-0.00353353
-0.00145469
-0.000253711
0.000220579
0.00027638
0.000144003
4.7163e-05
3.37436e-06
-2.14698e-05
-2.00776e-05
-1.84225e-05
0.000139611
0.00010357
-0.000487371
-0.000333105
0.00181303
0.00461326
0.00802009
0.0255931
0.0750385
0.14728
0.192966
0.157485
0.037728
-0.0908972
-0.0984841
0.148949
0.725105
1.57688
2.50855
3.24569
3.56047
3.37716
2.80048
2.04748
1.33474
0.794199
0.453816
0.265072
0.161074
0.0904389
0.0334169
-0.00813541
-0.0290733
-0.0328184
-0.0267019
-0.0169823
-0.00958988
-0.00462464
-0.00158958
4.18234e-05
0.000761643
0.00082236
0.000580739
0.000277784
8.97248e-05
5.77205e-06
-1.48126e-05
-1.48799e-05
-3.50664e-05
-6.24541e-06
0.000176667
-0.000154865
-0.00115817
-0.00100908
0.000615597
0.000559123
0.00148259
0.0238345
0.083948
0.159211
0.18583
0.112685
-0.0455945
-0.194253
-0.189456
0.109041
0.759191
1.67165
2.61058
3.28732
3.49501
3.20622
2.56728
1.80723
1.12561
0.628743
0.320869
0.151554
0.0590102
0.00301086
-0.0303693
-0.0435589
-0.040728
-0.0295085
-0.0162644
-0.00711538
-0.00189418
0.000547426
0.00130908
0.00136748
0.00101784
0.000572403
0.000209194
1.42296e-05
-4.78506e-05
-4.42037e-05
-2.36963e-05
-6.16432e-06
-6.0366e-05
7.59803e-06
7.46646e-05
-0.000879718
-0.00267282
-0.0033274
-0.00477195
-0.0119893
-0.0165692
0.00960132
0.0792701
0.152384
0.154167
0.0344937
-0.176707
-0.372568
-0.394181
-0.0973825
0.563201
1.46758
2.35474
2.93609
3.04053
2.68684
2.04931
1.35194
0.767881
0.368249
0.139797
0.0265721
-0.0258061
-0.0475333
-0.0513891
-0.0422411
-0.0271159
-0.0120437
-0.00244483
0.00207621
0.00327969
0.00281534
0.00201559
0.00119835
0.000548276
0.000138586
-5.10662e-05
-8.74979e-05
-5.87028e-05
-2.50162e-05
-6.22516e-06
4.92215e-06
-0.00010391
-5.32936e-05
-0.000354136
-0.00244598
-0.00570545
-0.00894457
-0.0176979
-0.0371087
-0.0490435
-0.0175142
0.062237
0.130791
0.0986999
-0.0812713
-0.374886
-0.660548
-0.765154
-0.531226
0.0806901
0.930265
1.74036
2.23634
2.28481
1.93998
1.38468
0.822346
0.388176
0.121991
-0.00605004
-0.0526786
-0.0608546
-0.0542126
-0.0390563
-0.0214293
-0.00626173
0.00256368
0.00567041
0.00531944
0.00357585
0.0020206
0.0009044
0.000220034
-0.000104926
-0.000198497
-0.000162218
-8.4334e-05
-2.97701e-05
-2.79159e-06
4.46536e-06
5.49269e-06
-0.00019476
-0.000264031
-0.00134082
-0.00521975
-0.0109867
-0.0195563
-0.0404992
-0.0755395
-0.0933573
-0.0513135
0.0418688
0.102647
0.0260762
-0.238947
-0.652012
-1.07923
-1.31926
-1.19187
-0.657304
0.127092
0.877368
1.33598
1.40011
1.14262
0.737335
0.354616
0.0915198
-0.0386542
-0.0771044
-0.0712889
-0.053441
-0.0329702
-0.0142653
-0.000517254
0.00657307
0.00795144
0.00611099
0.00337104
0.00137677
0.000239557
-0.000267115
-0.000389024
-0.000326602
-0.000201094
-8.18905e-05
-1.56888e-05
9.66177e-06
1.20101e-05
7.08945e-06
2.10504e-06
-0.000350038
-0.000693901
-0.00297198
-0.0092409
-0.0186559
-0.0352673
-0.0717432
-0.122161
-0.139538
-0.078909
0.0302193
0.0767492
-0.0588901
-0.432426
-0.999768
-1.60247
-2.00001
-1.98463
-1.5174
-0.772437
-0.0393853
0.440143
0.582926
0.464896
0.23825
0.0382755
-0.0712297
-0.0971659
-0.0778455
-0.0494399
-0.0249879
-0.00665923
0.00430704
0.00895549
0.0085177
0.00550745
0.00224817
0.000215934
-0.000648237
-0.000793678
-0.000634936
-0.000394725
-0.000187977
-4.9378e-05
1.33629e-05
2.74008e-05
1.97007e-05
8.74426e-06
2.53149e-06
-1.29386e-06
-0.000513964
-0.00119915
-0.00484712
-0.0136403
-0.0269913
-0.0525016
-0.10428
-0.165119
-0.173099
-0.0863535
0.0384417
0.065887
-0.135678
-0.627214
-1.35583
-2.12944
-2.66379
-2.72825
-2.29319
-1.55155
-0.796894
-0.259566
-0.0119787
0.0148487
-0.0507425
-0.105038
-0.109977
-0.0786904
-0.0418351
-0.0152151
0.00110389
0.00829169
0.0098671
0.00766409
0.00396664
0.000683213
-0.00102188
-0.00141372
-0.00112573
-0.00069492
-0.0003252
-8.80954e-05
2.70191e-05
5.98921e-05
4.93688e-05
2.62539e-05
8.94614e-06
6.43374e-07
-1.56951e-06
-1.86094e-06
-0.000419274
-0.00117021
-0.0056689
-0.015861
-0.0311585
-0.0631069
-0.126261
-0.190475
-0.180511
-0.0653787
0.0765876
0.0918076
-0.160824
-0.746325
-1.60039
-2.49588
-3.11259
-3.21056
-2.77623
-2.02018
-1.2379
-0.648122
-0.317644
-0.185207
-0.143685
-0.113766
-0.0716317
-0.0299065
-0.00352115
0.00917135
0.011767
0.00982905
0.00602945
0.00209112
-0.000775899
-0.00191667
-0.00178801
-0.00112153
-0.000514003
-0.000115599
7.64339e-05
0.000124101
0.000104059
6.22534e-05
2.46651e-05
3.77714e-06
-3.64803e-06
-3.92107e-06
-2.27741e-06
-5.34494e-07
0.000566794
0.000676032
-0.00295798
-0.0112403
-0.0233753
-0.0564524
-0.12573
-0.188495
-0.157898
-0.010545
0.159789
0.192052
-0.0619303
-0.676098
-1.58003
-2.52402
-3.16632
-3.26859
-2.83452
-2.08595
-1.31184
-0.718423
-0.363522
-0.19121
-0.108881
-0.0550292
-0.0133879
0.00982111
0.017365
0.0148767
0.00927502
0.00409557
0.000324854
-0.00181833
-0.00228198
-0.00168581
-0.000787731
-0.000150036
0.000166882
0.000247232
0.000200385
0.000121516
5.34625e-05
1.03425e-05
-7.4205e-06
-9.99011e-06
-6.36291e-06
-2.58431e-06
-5.88119e-07
5.50015e-07
0.00345488
0.0061879
0.00664889
0.00596291
0.00406854
-0.0249908
-0.0992213
-0.161389
-0.111419
0.0783793
0.309585
0.417332
0.243767
-0.306437
-1.17559
-2.10516
-2.74473
-2.86057
-2.46598
-1.78193
-1.08275
-0.555833
-0.246535
-0.0980512
-0.0292104
0.00759533
0.0241545
0.0251513
0.0174236
0.00831037
0.00204141
-0.00122549
-0.00239374
-0.00217409
-0.00124356
-0.000288471
0.00024701
0.000406257
0.000346159
0.000209674
9.13132e-05
1.63021e-05
-1.69335e-05
-2.24631e-05
-1.61943e-05
-7.55183e-06
-1.96323e-06
3.35181e-07
7.13505e-07
5.73832e-07
0.00927155
0.017033
0.0258946
0.0393019
0.0534026
0.0289428
-0.0554451
-0.123388
-0.0485216
0.206239
0.545009
0.804667
0.801788
0.397846
-0.377031
-1.2668
-1.91538
-2.08757
-1.7955
-1.24646
-0.692314
-0.295147
-0.08354
0.00329709
0.0322245
0.0383856
0.0315867
0.0188209
0.00684109
-6.20487e-05
-0.00256885
-0.00263882
-0.00178972
-0.000677999
0.000179403
0.000532923
0.000509186
0.00032475
0.000136855
1.55892e-05
-3.88484e-05
-4.69591e-05
-3.4129e-05
-1.76697e-05
-5.40181e-06
4.64444e-07
1.92461e-06
1.38897e-06
6.67503e-07
4.34993e-08
0.0181379
0.0331153
0.0540008
0.085479
0.11601
0.0899491
-0.0149023
-0.0921194
0.017447
0.36368
0.859807
1.33349
1.5592
1.34104
0.674556
-0.186945
-0.878659
-1.15824
-1.02528
-0.664662
-0.299329
-0.0627194
0.0379572
0.0583714
0.0509991
0.0355719
0.0184357
0.00480026
-0.00212229
-0.00373048
-0.00269182
-0.00131626
-0.000169415
0.000499908
0.000637079
0.000456289
0.00020088
1.05982e-05
-7.46979e-05
-8.71719e-05
-6.35618e-05
-3.35178e-05
-1.08302e-05
1.10353e-06
4.5191e-06
3.76867e-06
1.87808e-06
5.47429e-07
-6.3286e-10
-2.43141e-07
0.0279103
0.0505063
0.0835384
0.131165
0.172368
0.13527
0.00206125
-0.0817112
0.0696559
0.519887
1.18667
1.88344
2.33672
2.29344
1.71845
0.864128
0.103423
-0.310475
-0.357962
-0.197591
-0.0212515
0.0706926
0.0817358
0.0599919
0.036086
0.0157691
0.00205502
-0.00410613
-0.00463009
-0.00259422
-0.000823057
0.000255837
0.000671303
0.000591136
0.000306461
3.74372e-05
-0.000110709
-0.000137867
-0.000103592
-5.40211e-05
-1.63141e-05
4.06479e-06
1.01991e-05
8.53783e-06
4.7152e-06
1.58622e-06
3.72159e-08
-3.8e-07
-3.0219e-07
-1.31755e-07
0.0330819
0.0602023
0.0998134
0.155878
0.200259
0.14634
-0.0136972
-0.108669
0.0691029
0.590165
1.3778
2.23996
2.86845
2.96478
2.4677
1.62179
0.801927
0.272466
0.0724304
0.0687242
0.101904
0.0966236
0.0629358
0.0321188
0.0104498
-0.00152393
-0.00585051
-0.00512332
-0.00229528
-0.000295522
0.00060256
0.000738871
0.000468363
0.000132044
-0.00010082
-0.000179409
-0.000147769
-7.85421e-05
-1.95402e-05
1.17869e-05
2.06514e-05
1.70656e-05
9.71592e-06
3.49232e-06
9.29273e-08
-9.53792e-07
-8.3432e-07
-4.12635e-07
-1.33098e-07
5.02362e-08
0.0253083
0.0498392
0.0858303
0.141794
0.187863
0.122514
-0.0651631
-0.19448
-0.0487301
0.448897
1.24534
2.17196
2.90963
3.12443
2.72109
1.92387
1.09929
0.518559
0.236559
0.140774
0.0990044
0.0567589
0.0225893
0.00224369
-0.0060097
-0.00723982
-0.00504535
-0.00173173
0.000273867
0.000900191
0.000744358
0.000323849
-1.37584e-05
-0.000178435
-0.000183568
-0.000108162
-2.64784e-05
2.27658e-05
3.64711e-05
2.93919e-05
1.65941e-05
5.89313e-06
-1.95807e-07
-2.27253e-06
-2.03139e-06
-1.1e-06
-3.57075e-07
-5.74809e-09
7.81037e-08
7.92354e-08
-0.00311877
0.0098
0.0326307
0.0865551
0.144444
0.0798673
-0.151099
-0.371092
-0.35904
-0.0183978
0.655769
1.55202
2.35768
2.70184
2.44101
1.76282
1.01702
0.476262
0.200382
0.0902446
0.0384215
0.00658905
-0.00860996
-0.0112365
-0.00816807
-0.0042849
-0.00087663
0.000865093
0.00112425
0.000692058
0.000176945
-0.000121822
-0.000203394
-0.000145605
-4.83688e-05
2.46089e-05
5.16246e-05
4.44561e-05
2.4622e-05
7.67417e-06
-1.83547e-06
-4.86541e-06
-4.2722e-06
-2.45681e-06
-8.57703e-07
-1.92036e-08
2.19257e-07
1.73803e-07
8.74354e-08
8.65628e-09
-0.0528841
-0.0577454
-0.0502188
0.0107835
0.0974169
0.0340491
-0.271588
-0.657058
-0.885046
-0.815429
-0.357281
0.454425
1.31874
1.82035
1.75869
1.27381
0.692231
0.27623
0.0770595
0.00768868
-0.0157495
-0.0213702
-0.0165613
-0.00863
-0.0029626
0.000244574
0.00142905
0.00124321
0.000570048
1.96374e-05
-0.000204127
-0.000197643
-9.46865e-05
3.95761e-06
5.46986e-05
5.68012e-05
3.39878e-05
8.96944e-06
-5.1661e-06
-9.44496e-06
-7.76699e-06
-4.45363e-06
-1.60299e-06
1.21535e-08
5.33146e-07
4.61598e-07
2.29408e-07
6.56598e-08
-1.56779e-09
-2.99126e-08
-0.11141
-0.132682
-0.133101
-0.0516333
0.0726978
0.00265279
-0.411345
-1.00857
-1.52185
-1.7617
-1.54914
-0.841779
0.0745984
0.747404
0.917592
0.673166
0.309907
0.0625356
-0.030028
-0.042929
-0.034949
-0.0212055
-0.00857292
-0.00126199
0.0015648
0.00190015
0.00121757
0.000372599
-0.000144969
-0.000265354
-0.000176741
-4.63056e-05
3.73174e-05
6.1027e-05
4.31305e-05
1.35653e-05
-8.07618e-06
-1.4831e-05
-1.24581e-05
-6.87024e-06
-2.22592e-06
3.80008e-07
1.20675e-06
1.03274e-06
5.60369e-07
1.74701e-07
-7.0225e-09
-4.92158e-08
-3.60239e-08
-1.36329e-08
-0.152521
-0.181258
-0.179178
-0.0744973
0.0803265
0.00237895
-0.506067
-1.27407
-2.01428
-2.51523
-2.53622
-1.95693
-1.02537
-0.209699
0.17748
0.169673
0.0226655
-0.0664289
-0.070648
-0.04698
-0.0240087
-0.00761521
0.000778954
0.00294931
0.00220122
0.00103112
0.000106353
-0.000305629
-0.000301778
-0.000141525
-3.89237e-06
5.58411e-05
5.3025e-05
2.31571e-05
-4.86871e-06
-1.80601e-05
-1.67864e-05
-9.4337e-06
-2.42182e-06
1.41705e-06
2.49772e-06
2.01243e-06
1.10602e-06
3.56706e-07
-3.08448e-08
-1.30812e-07
-9.97688e-08
-4.43058e-08
-1.19659e-08
7.2484e-09
-0.14676
-0.173056
-0.169588
-0.0589377
0.120035
0.0752824
-0.42618
-1.22038
-2.04286
-2.71489
-2.96061
-2.56343
-1.69513
-0.813469
-0.279553
-0.11225
-0.103911
-0.0903497
-0.0536616
-0.0234512
-0.00506621
0.00292537
0.00411538
0.00223821
0.00068615
-0.000200301
-0.000437125
-0.000301086
-8.90754e-05
3.70091e-05
6.64127e-05
4.08828e-05
6.49372e-06
-1.51507e-05
-1.89919e-05
-1.17066e-05
-2.71975e-06
2.87661e-06
4.32804e-06
3.36593e-06
1.76384e-06
5.05785e-07
-1.51281e-07
-3.21736e-07
-2.47745e-07
-1.16372e-07
-2.87072e-08
6.33945e-09
1.13496e-08
8.31429e-09
-0.0804927
-0.103529
-0.118839
-0.029935
0.194484
0.289418
-0.0294184
-0.65701
-1.40536
-2.17128
-2.65329
-2.51259
-1.80966
-0.974954
-0.407487
-0.17032
-0.0948651
-0.0498174
-0.0173589
-0.000220054
0.00506101
0.0047071
0.00195699
0.000219946
-0.000497733
-0.000515267
-0.000257129
-2.30062e-05
7.45022e-05
7.05423e-05
2.81209e-05
-5.28807e-06
-1.81546e-05
-1.43469e-05
-4.40363e-06
3.35963e-06
5.92925e-06
4.78324e-06
2.34583e-06
4.42955e-07
-5.08235e-07
-6.89652e-07
-5.07022e-07
-2.44753e-07
-5.73571e-08
2.26117e-08
3.45983e-08
2.05673e-08
8.37748e-09
-8.79924e-10
0.0277319
-0.00373421
-0.0666729
-0.00900122
0.318217
0.68548
0.713438
0.392308
-0.180432
-0.987129
-1.7071
-1.87982
-1.43809
-0.772349
-0.294978
-0.0924112
-0.0294662
-0.00318235
0.00746422
0.00751768
0.00459106
0.00132772
-0.000346438
-0.00076423
-0.000529525
-0.000172825
5.01847e-05
0.000103528
6.65491e-05
1.37898e-05
-1.41675e-05
-1.76901e-05
-8.55462e-06
1.19327e-06
6.07373e-06
5.65072e-06
2.884e-06
2.09589e-07
-1.10082e-06
-1.26898e-06
-8.6324e-07
-3.92397e-07
-6.95277e-08
7.10616e-08
8.79451e-08
5.4516e-08
2.01276e-08
2.27678e-09
-2.86776e-09
-3.74139e-09
0.129165
0.0746632
-0.0464131
0.0044623
0.479291
1.18078
1.59834
1.60319
1.24793
0.471458
-0.434575
-0.926678
-0.806599
-0.401018
-0.0986259
0.00643362
0.0209999
0.0181521
0.0104361
0.00385149
0.000232182
-0.00100625
-0.000971823
-0.000466918
-5.12549e-05
0.000124039
0.000119048
5.2593e-05
-2.70921e-06
-2.14238e-05
-1.58366e-05
-3.92521e-06
4.01073e-06
5.75734e-06
3.36604e-06
2.83867e-07
-1.60132e-06
-1.85226e-06
-1.24235e-06
-4.94205e-07
-5.81525e-09
1.87478e-07
1.89998e-07
1.16032e-07
4.29124e-08
2.40792e-09
-9.75072e-09
-8.00261e-09
-4.0165e-09
-3.41556e-10
0.171405
0.0953895
-0.0563399
0.000941595
0.577314
1.51249
2.19805
2.45169
2.34816
1.728
0.752873
-0.000275774
-0.199011
-0.0692958
0.044958
0.0534969
0.0317679
0.0135093
0.00271378
-0.00126178
-0.00165904
-0.00105806
-0.00031322
9.89425e-05
0.000188022
0.000115623
2.84422e-05
-2.03574e-05
-2.61957e-05
-1.28162e-05
7.26769e-10
5.26874e-06
4.28678e-06
1.04053e-06
-1.43252e-06
-2.13443e-06
-1.5032e-06
-5.16699e-07
1.57262e-07
3.94566e-07
3.4266e-07
1.97492e-07
6.7857e-08
-4.95453e-09
-2.65421e-08
-2.15181e-08
-9.84185e-09
-2.32166e-09
4.74341e-10
1.44675e-09
0.135135
0.0678102
-0.0689016
-0.0622181
0.420189
1.32339
2.06539
2.47871
2.68253
2.37747
1.49192
0.602355
0.173304
0.0979186
0.0838176
0.0449913
0.0158104
0.00138838
-0.00283374
-0.00215074
-0.000973675
-8.25153e-05
0.00024847
0.000222469
8.92399e-05
-3.761e-06
-3.57387e-05
-2.671e-05
-7.61049e-06
3.96801e-06
5.97538e-06
2.85433e-06
-4.354e-07
-1.89743e-06
-1.59934e-06
-5.66638e-07
3.03523e-07
6.17216e-07
5.23021e-07
2.70961e-07
6.8756e-08
-3.70386e-08
-6.18794e-08
-4.64738e-08
-2.17731e-08
-4.56925e-09
2.11202e-09
2.77778e-09
1.63388e-09
3.37564e-10
0.0515611
0.0348171
-0.076175
-0.272207
-0.168634
0.40261
1.03617
1.55471
2.09306
2.2251
1.6015
0.754303
0.2564
0.103566
0.0500273
0.015316
-0.000530706
-0.00402881
-0.00238501
-0.000729916
0.000181083
0.000362578
0.000214408
4.45515e-05
-3.59824e-05
-4.39708e-05
-2.13723e-05
-3.86278e-07
7.54386e-06
5.86495e-06
1.46197e-06
-1.27359e-06
-1.66481e-06
-7.62975e-07
2.2055e-07
7.0417e-07
6.27586e-07
3.13377e-07
2.84372e-08
-1.05601e-07
-1.22112e-07
-8.25554e-08
-3.65966e-08
-5.43833e-09
6.99178e-09
7.58018e-09
4.14052e-09
1.30527e-09
5.16039e-11
-4.87997e-10
-0.0213335
0.0316657
-0.104704
-0.661895
-1.13314
-1.05198
-0.570857
-0.0171388
0.758626
1.35789
1.1556
0.546304
0.148667
0.0354062
0.00660612
-0.00444551
-0.00457204
-0.00212715
-0.000252523
0.000478074
0.000431451
0.000169259
-9.1318e-06
-6.12139e-05
-4.35006e-05
-1.17203e-05
6.79913e-06
9.37324e-06
4.60391e-06
-8.24194e-08
-1.79746e-06
-1.27583e-06
-1.40626e-07
5.48033e-07
6.24117e-07
3.18334e-07
-1.47057e-08
-1.87589e-07
-1.92372e-07
-1.1809e-07
-4.3347e-08
2.58261e-09
1.87555e-08
1.69471e-08
9.30853e-09
2.73838e-09
-2.72062e-10
-8.93968e-10
-6.00066e-10
-1.88646e-10
-0.0447731
0.0506093
-0.16521
-1.05034
-1.99738
-2.32827
-1.9823
-1.57344
-0.838779
0.133082
0.451439
0.208486
0.0092963
-0.0177257
-0.0121652
-0.00524188
-0.00114103
0.000535542
0.000788201
0.000427239
8.03622e-05
-7.01156e-05
-7.77748e-05
-3.58135e-05
1.26379e-07
1.2386e-05
9.13504e-06
2.42572e-06
-1.55942e-06
-2.02451e-06
-8.62432e-07
2.24668e-07
5.49331e-07
3.45815e-07
2.99243e-10
-2.15088e-07
-2.34243e-07
-1.41682e-07
-3.45016e-08
2.49294e-08
4.04319e-08
3.10205e-08
1.57206e-08
4.00891e-09
-1.54788e-09
-2.48834e-09
-1.56368e-09
-5.71444e-10
-8.50199e-11
1.53727e-10
-0.0264076
0.0563241
-0.166114
-0.895022
-1.76215
-2.23321
-2.06077
-2.13084
-1.96501
-0.93124
-0.145381
-0.0371498
-0.0568237
-0.0268214
-0.00702952
0.00046
0.00153282
0.00103706
0.000330213
-4.56126e-05
-0.000126369
-7.91387e-05
-1.91289e-05
1.31392e-05
1.59037e-05
7.02753e-06
-1.88002e-07
-2.66803e-06
-1.866e-06
-3.79592e-07
4.55567e-07
4.56035e-07
1.16545e-07
-1.51309e-07
-2.21729e-07
-1.37793e-07
-2.02176e-08
5.36331e-08
6.6334e-08
4.60042e-08
1.98133e-08
2.27948e-09
-5.20029e-09
-5.7814e-09
-3.52572e-09
-1.21587e-09
-4.2396e-11
2.67283e-10
2.04197e-10
7.99769e-11
-0.0016931
0.0321751
0.177983
-0.0879157
-0.66069
-0.975101
-1.08587
-1.29078
-1.7495
-1.34149
-0.400096
-0.106538
-0.0464425
-0.0108433
0.00179086
0.00254087
0.00119236
0.000174529
-0.000174101
-0.000160853
-6.18758e-05
3.91128e-06
2.35156e-05
1.56622e-05
2.96445e-06
-2.9061e-06
-3.17838e-06
-1.31663e-06
1.76361e-07
6.18308e-07
3.57031e-07
-1.47995e-08
-1.66407e-07
-1.32293e-07
-2.01905e-08
6.24299e-08
8.04006e-08
5.3849e-08
1.78147e-08
-5.2525e-09
-1.28504e-08
-1.08389e-08
-6.03882e-09
-1.88655e-09
2.91734e-10
7.86019e-10
5.47675e-10
2.15965e-10
4.32404e-11
-4.70111e-11
0.00616342
0.00295816
0.51335
0.917321
0.564053
0.0676915
-0.335953
-0.342445
-0.680423
-0.855378
-0.324695
-0.0590218
-0.0133238
0.00226085
0.0030895
0.00110719
-1.77403e-05
-0.000280232
-0.000167324
-3.16526e-05
2.63854e-05
2.7739e-05
1.09421e-05
-1.8799e-06
-4.81806e-06
-2.72802e-06
-3.75913e-07
7.16395e-07
6.59415e-07
2.19396e-07
-1.06339e-07
-1.49814e-07
-5.40522e-08
3.85816e-08
7.19054e-08
5.0714e-08
1.23638e-08
-1.47701e-08
-2.15624e-08
-1.62484e-08
-7.57426e-09
-1.4176e-09
1.47519e-09
1.91068e-09
1.23319e-09
4.58654e-10
4.09097e-11
-8.14238e-11
-6.71871e-11
-2.89265e-11
0.00217245
-0.00540363
0.5111
1.52505
1.60408
0.840856
0.328731
0.325693
0.271864
-0.0890114
-0.1204
-0.0014638
0.00395744
0.00242341
0.000423122
-0.000319042
-0.000344791
-0.000137434
8.17917e-06
4.35488e-05
2.52706e-05
3.51737e-06
-5.69917e-06
-5.03935e-06
-1.48174e-06
6.10491e-07
9.80241e-07
4.94969e-07
5.96111e-09
-1.89602e-07
-1.30673e-07
-8.78713e-09
4.79094e-08
4.45109e-08
1.02968e-08
-1.74647e-08
-2.59572e-08
-1.84468e-08
-6.94149e-09
1.06707e-09
3.97117e-09
3.56437e-09
2.06554e-09
6.9087e-10
-6.54987e-11
-2.51637e-10
-1.83032e-10
-7.37456e-11
-1.58561e-11
1.49091e-11
-0.000670742
-0.00065944
0.216603
1.2822
2.04716
1.67267
1.28877
1.28317
1.08306
0.408229
0.0204804
0.015313
0.00177446
-0.00107829
-0.000812519
-0.000350668
-5.42998e-05
5.70236e-05
5.21987e-05
1.64541e-05
-4.59749e-06
-7.89635e-06
-3.9251e-06
-1.04479e-07
1.21479e-06
8.78729e-07
1.78281e-07
-1.92493e-07
-2.09995e-07
-7.98505e-08
2.93904e-08
4.71034e-08
1.9569e-08
-1.01248e-08
-2.17565e-08
-1.64731e-08
-4.58732e-09
4.32771e-09
6.79243e-09
5.25407e-09
2.50589e-09
5.12715e-10
-4.47802e-10
-6.10476e-10
-3.9899e-10
-1.50347e-10
-1.40603e-11
2.63123e-11
2.18905e-11
9.7432e-12
-0.000700943
0.00227906
-0.0237916
0.429137
1.50332
2.0684
2.00425
1.71966
1.29282
0.604834
0.0492853
0.00571374
-0.00310384
-0.00163659
-0.000416044
4.49674e-05
0.000104415
4.59759e-05
2.65329e-06
-1.18262e-05
-7.84645e-06
-1.87126e-06
1.19087e-06
1.39422e-06
5.58687e-07
-1.15549e-07
-2.70408e-07
-1.48428e-07
-8.36733e-09
5.54256e-08
3.93342e-08
2.97481e-09
-1.42299e-08
-1.33472e-08
-3.21611e-09
5.19497e-09
7.89405e-09
5.61683e-09
2.06076e-09
-3.8474e-10
-1.25466e-09
-1.10886e-09
-6.40292e-10
-2.10147e-10
2.33063e-11
8.01708e-11
5.78242e-11
2.32788e-11
5.07626e-12
-4.80754e-12
-0.000739733
0.00041193
-0.0015975
-0.0442341
0.414699
1.21893
1.54223
1.32023
0.816382
0.294868
0.017804
-0.00344768
-0.002211
-0.000541503
0.000127409
0.000139527
3.26061e-05
-1.09226e-05
-1.43105e-05
-5.55152e-06
5.99253e-07
1.96272e-06
1.13058e-06
1.11025e-07
-3.14297e-07
-2.5109e-07
-6.21803e-08
4.30114e-08
5.43169e-08
2.18333e-08
-7.75494e-09
-1.23897e-08
-4.75847e-09
3.29353e-09
6.25118e-09
4.49668e-09
1.0815e-09
-1.44316e-09
-2.03522e-09
-1.49721e-09
-6.79766e-10
-1.12459e-10
1.51739e-10
1.8534e-10
1.18139e-10
4.30196e-11
3.11332e-12
-8.29725e-12
-6.72263e-12
-3.04342e-12
-0.00116284
-7.45218e-05
0.00146021
0.0018294
-0.0365636
0.158892
0.393408
0.423394
0.217194
-0.0120777
-0.00329126
-0.00128183
-0.000414672
0.000146053
0.000129465
1.38172e-05
-1.88627e-05
-1.1985e-05
-2.048e-06
2.28816e-06
1.89442e-06
4.66963e-07
-2.93516e-07
-3.62629e-07
-1.41724e-07
2.34945e-08
6.38164e-08
3.77041e-08
5.25425e-09
-1.12307e-08
-8.45593e-09
-2.42511e-10
3.54804e-09
3.02137e-09
3.98268e-10
-1.58596e-09
-2.09602e-09
-1.38901e-09
-4.16777e-10
1.77414e-10
3.57441e-10
2.92855e-10
1.58322e-10
4.62485e-11
-1.12363e-11
-2.3373e-11
-1.56968e-11
-6.21364e-12
-1.29849e-12
1.40256e-12
-0.0007939
0.000504351
-0.00196322
-0.000305971
0.0139888
-0.0216298
-0.0840079
-0.10874
-0.0701605
-0.00803336
0.00312183
0.00140777
0.000301696
5.59873e-05
-1.77995e-05
-1.73459e-05
-6.64833e-06
9.59216e-07
2.34042e-06
1.09638e-06
-1.54192e-07
-4.08245e-07
-2.19751e-07
-5.06914e-09
6.8654e-08
4.88606e-08
1.32637e-08
-6.65281e-09
-9.77388e-09
-4.57694e-09
1.00966e-09
1.93196e-09
5.56528e-10
-8.95437e-10
-1.31728e-09
-8.40644e-10
-1.12349e-10
3.76293e-10
4.43755e-10
2.95704e-10
1.20007e-10
5.77699e-12
-4.0054e-11
-4.0872e-11
-2.45206e-11
-8.02289e-12
4.35648e-14
2.08501e-12
1.5681e-12
6.68213e-13
-8.34512e-05
-0.000292899
0.00235107
-0.00857065
0.0124685
0.0129171
-0.0368378
-0.0790642
-0.0587096
0.00190888
0.00466658
0.000983444
-6.11803e-05
-5.22115e-05
-9.87591e-06
9.88365e-07
2.5485e-06
1.5892e-06
4.3321e-07
-2.28712e-07
-2.19715e-07
-3.18826e-08
5.32864e-08
5.06956e-08
1.59228e-08
-3.55017e-09
-8.10758e-09
-4.96558e-09
-1.17337e-09
1.0852e-09
9.25706e-10
-3.73209e-11
-4.59495e-10
-3.43127e-10
1.96245e-11
2.65681e-10
2.98505e-10
1.76986e-10
3.78366e-11
-3.71865e-11
-5.39353e-11
-3.95372e-11
-1.93115e-11
-4.03393e-12
2.9767e-12
3.85779e-12
2.27762e-12
8.30661e-13
1.27923e-13
-2.38282e-13
)
;

boundaryField
{
    movingWall
    {
        type            zeroGradient;
    }
    fixedWalls
    {
        type            zeroGradient;
    }
    frontAndBack
    {
        type            empty;
    }
}

