/*--------------------------------*- C++ -*----------------------------------*\
| =========                 |                                                 |
| \\      /  F ield         | OpenFOAM: The Open Source CFD Toolbox           |
|  \\    /   O peration     | Version:  v2006                                 |
|   \\  /    A nd           | Website:  www.openfoam.com                      |
|    \\/     M anipulation  |                                                 |
\*---------------------------------------------------------------------------*/
FoamFile
{
    version     2.0;
    format      ascii;
    class       surfaceScalarField;
    location    "18.7";
    object      phi;
}
// * * * * * * * * * * * * * * * * * * * * * * * * * * * * * * * * * * * * * //

dimensions      [0 3 -1 0 0 0 0];
oriented        oriented;


internalField   nonuniform List<scalar> 
99450
(
-4.52972e-06
4.52972e-06
1.00204e-05
-1.45501e-05
2.82564e-05
-1.8236e-05
4.36932e-05
-1.54368e-05
5.53384e-05
-1.16452e-05
6.43564e-05
-9.018e-06
7.20776e-05
-7.72121e-06
7.93296e-05
-7.25197e-06
8.64567e-05
-7.12713e-06
9.35112e-05
-7.05448e-06
0.000100422
-6.91046e-06
0.000107087
-6.66525e-06
0.000113415
-6.32769e-06
0.000119331
-5.91593e-06
0.000124783
-5.45213e-06
0.000129742
-4.95916e-06
0.0001342
-4.45796e-06
0.000138167
-3.96684e-06
0.000141694
-3.52702e-06
0.000144833
-3.13982e-06
0.000147651
-2.81706e-06
0.000150215
-2.56414e-06
0.000152602
-2.38718e-06
0.000154887
-2.28545e-06
0.000157141
-2.2534e-06
0.000159421
-2.27999e-06
0.00016182
-2.39897e-06
0.000164387
-2.56729e-06
0.000167134
-2.74734e-06
0.000170114
-2.97987e-06
0.00017334
-3.22616e-06
0.000176808
-3.46742e-06
0.000180477
-3.66961e-06
0.000184317
-3.83986e-06
0.000188193
-3.87561e-06
0.000191967
-3.77449e-06
0.000195478
-3.51029e-06
0.000198492
-3.01407e-06
0.000200772
-2.27984e-06
0.000202118
-1.34681e-06
0.000202487
-3.68179e-07
0.000201981
5.05323e-07
0.000200865
1.11612e-06
0.000199422
1.44328e-06
0.000197907
1.51458e-06
0.000196577
1.33008e-06
0.000195703
8.74583e-07
0.000195537
1.65456e-07
0.000196316
-7.78676e-07
0.000198329
-2.01357e-06
0.000201865
-3.53551e-06
0.000207179
-5.3146e-06
0.000214408
-7.22812e-06
0.000223492
-9.08484e-06
0.000234218
-1.07254e-05
0.000246318
-1.21004e-05
0.000259552
-1.32337e-05
0.00027374
-1.41883e-05
0.000288775
-1.50347e-05
0.00030458
-1.58054e-05
0.000321083
-1.65025e-05
0.000338214
-1.7131e-05
0.000355898
-1.76841e-05
0.000374073
-1.81756e-05
0.000392677
-1.86035e-05
0.000411643
-1.8966e-05
0.000430915
-1.92724e-05
0.000450433
-1.9518e-05
0.000470143
-1.97092e-05
0.000489989
-1.98468e-05
0.000509921
-1.9932e-05
0.000529889
-1.99677e-05
0.000549844
-1.99548e-05
0.000569737
-1.98933e-05
0.000589521
-1.97841e-05
0.000609153
-1.96317e-05
0.000628591
-1.94379e-05
0.000647789
-1.91979e-05
0.000666703
-1.89141e-05
0.00068529
-1.85865e-05
0.000703502
-1.82124e-05
0.000721286
-1.77841e-05
0.000738592
-1.73062e-05
0.000755366
-1.67741e-05
0.000771546
-1.61798e-05
0.000787077
-1.55308e-05
0.000801889
-1.48124e-05
0.00081591
-1.4021e-05
0.00082907
-1.31592e-05
0.000841276
-1.22065e-05
0.000852428
-1.11516e-05
0.000862401
-9.97307e-06
0.000871044
-8.64291e-06
0.000878165
-7.12113e-06
0.000883506
-5.34153e-06
0.000886705
-3.19815e-06
0.000887351
-6.4639e-07
0.000884847
2.50421e-06
0.000878929
5.91774e-06
0.000869609
9.31971e-06
0.000857182
1.24269e-05
0.000842198
1.49839e-05
0.000825266
1.69322e-05
0.000806942
1.83245e-05
0.000787713
1.92288e-05
0.000767992
1.9721e-05
0.000748194
1.97984e-05
0.00072884
1.93532e-05
0.000710607
1.82333e-05
0.00069427
1.63367e-05
0.000680498
1.37728e-05
0.000669493
1.10043e-05
0.000660788
8.70565e-06
0.000653447
7.34079e-06
0.000646512
6.93439e-06
0.000639285
7.22795e-06
0.000631354
7.93073e-06
0.000622538
8.81549e-06
0.000612782
9.75662e-06
0.000602082
1.06999e-05
0.000590447
1.16349e-05
0.000577887
1.25602e-05
0.000564421
1.34655e-05
0.000550073
1.43478e-05
0.000534874
1.51991e-05
0.000518857
1.60168e-05
0.000502057
1.68004e-05
0.000484509
1.75481e-05
0.000466249
1.82598e-05
0.000447311
1.89379e-05
0.000427727
1.95847e-05
0.000407531
2.01957e-05
0.000386763
2.07682e-05
0.000365469
2.12941e-05
0.000343703
2.1766e-05
0.000321523
2.21797e-05
0.000299002
2.25205e-05
0.000276209
2.27935e-05
0.000253213
2.29958e-05
0.000230085
2.31279e-05
0.000206892
2.31936e-05
0.000183699
2.31923e-05
0.000160585
2.31138e-05
0.000137644
2.29412e-05
0.000114952
2.26926e-05
9.25539e-05
2.23978e-05
7.03644e-05
2.21895e-05
4.84522e-05
2.19122e-05
2.62984e-05
2.21538e-05
2.62984e-05
-6.72883e-06
1.12586e-05
5.07625e-06
-2.63552e-05
2.0582e-05
-3.37418e-05
3.27388e-05
-2.75936e-05
4.01627e-05
-1.90691e-05
4.41473e-05
-1.30026e-05
4.64826e-05
-1.00565e-05
4.83261e-05
-9.09552e-06
5.00579e-05
-8.85888e-06
5.16088e-05
-8.60539e-06
5.27647e-05
-8.06632e-06
5.33338e-05
-7.23435e-06
5.31899e-05
-6.18388e-06
5.22632e-05
-4.98915e-06
5.05229e-05
-3.71188e-06
4.79756e-05
-2.41186e-06
4.46572e-05
-1.13958e-06
4.05732e-05
1.17169e-07
3.59053e-05
1.14095e-06
3.07587e-05
2.00678e-06
2.52693e-05
2.67235e-06
1.95867e-05
3.1184e-06
1.38628e-05
3.33671e-06
8.25087e-06
3.3265e-06
2.90568e-06
3.09179e-06
-2.01465e-06
2.64034e-06
-6.43897e-06
2.02535e-06
-1.02395e-05
1.23326e-06
-1.32546e-05
2.67688e-07
-1.53204e-05
-9.14001e-07
-1.63503e-05
-2.19625e-06
-1.62409e-05
-3.57688e-06
-1.48505e-05
-5.06002e-06
-1.21269e-05
-6.56342e-06
-7.90339e-06
-8.09914e-06
-2.11915e-06
-9.55873e-06
5.22965e-06
-1.08591e-05
1.4185e-05
-1.19694e-05
2.47174e-05
-1.28123e-05
3.6724e-05
-1.33534e-05
4.99617e-05
-1.36058e-05
6.41091e-05
-1.36422e-05
7.87887e-05
-1.35634e-05
9.37063e-05
-1.34744e-05
0.00010867
-1.34495e-05
0.000123551
-1.35507e-05
0.000138254
-1.38278e-05
0.000152775
-1.43563e-05
0.000167172
-1.51753e-05
0.000181448
-1.62895e-05
0.000195638
-1.77254e-05
0.000209748
-1.94248e-05
0.000223808
-2.12882e-05
0.000237911
-2.31877e-05
0.000252192
-2.50071e-05
0.000266773
-2.66805e-05
0.000281712
-2.8173e-05
0.000297017
-2.94934e-05
0.00031266
-3.06773e-05
0.000328581
-3.17271e-05
0.000344737
-3.26578e-05
0.000361089
-3.34834e-05
0.000377611
-3.42056e-05
0.000394262
-3.48271e-05
0.00041101
-3.53516e-05
0.000427833
-3.57887e-05
0.0004447
-3.61398e-05
0.000461592
-3.64095e-05
0.000478479
-3.65965e-05
0.000495337
-3.67051e-05
0.000512141
-3.67359e-05
0.000528866
-3.66927e-05
0.000545493
-3.65822e-05
0.000562006
-3.64063e-05
0.000578379
-3.61565e-05
0.00059459
-3.58433e-05
0.000610628
-3.54758e-05
0.000626478
-3.50474e-05
0.000642114
-3.45506e-05
0.000657529
-3.40016e-05
0.00067271
-3.33936e-05
0.000687633
-3.27066e-05
0.000702289
-3.19623e-05
0.000716641
-3.11262e-05
0.000730675
-3.02133e-05
0.000744358
-2.92142e-05
0.000757658
-2.81123e-05
0.000770537
-2.68996e-05
0.000782953
-2.55755e-05
0.000794864
-2.41181e-05
0.000806233
-2.25201e-05
0.000817008
-2.07486e-05
0.000827149
-1.87838e-05
0.000836624
-1.65956e-05
0.000845414
-1.41318e-05
0.000853551
-1.13356e-05
0.000861022
-8.11672e-06
0.000867898
-4.37159e-06
0.000873908
-9.24943e-08
0.000879007
4.22075e-06
0.000882884
8.54927e-06
0.000885528
1.23402e-05
0.000887175
1.52854e-05
0.000888306
1.71935e-05
0.000889511
1.8024e-05
0.000891327
1.79052e-05
0.000894172
1.6953e-05
0.000898219
1.53057e-05
0.000903337
1.31154e-05
0.000909067
1.06072e-05
0.000914703
8.13668e-06
0.000919532
6.17551e-06
0.000923085
5.15194e-06
0.000925184
5.2425e-06
0.000925762
6.35577e-06
0.000924745
8.24534e-06
0.000922062
1.06142e-05
0.000917679
1.31984e-05
0.000911602
1.58335e-05
0.000903852
1.84499e-05
0.000894461
2.10259e-05
0.000883463
2.35577e-05
0.000870887
2.60422e-05
0.000856746
2.84883e-05
0.000841042
3.09032e-05
0.000823764
3.32943e-05
0.000804913
3.56522e-05
0.000784487
3.79738e-05
0.00076249
4.02564e-05
0.000738931
4.24972e-05
0.000713814
4.47013e-05
0.000687136
4.68737e-05
0.000658894
4.90109e-05
0.000629086
5.11013e-05
0.000597729
5.31239e-05
0.000564849
5.50589e-05
0.000530489
5.6881e-05
0.000494721
5.85617e-05
0.000457641
6.00752e-05
0.000419346
6.14234e-05
0.000379973
6.25661e-05
0.000339651
6.35141e-05
0.000298505
6.42601e-05
0.000256632
6.48144e-05
0.000214106
6.52181e-05
0.000171026
6.54787e-05
0.000127445
6.577e-05
8.39903e-05
6.53669e-05
4.2266e-05
6.38781e-05
6.85644e-05
-7.86135e-06
1.91199e-05
4.7682e-06
-3.89847e-05
2.32201e-05
-5.21937e-05
3.94109e-05
-4.37844e-05
5.06449e-05
-3.03031e-05
5.75024e-05
-1.98601e-05
6.18185e-05
-1.43725e-05
6.52303e-05
-1.25073e-05
6.85782e-05
-1.22068e-05
7.19463e-05
-1.19735e-05
7.50665e-05
-1.11865e-05
7.75933e-05
-9.76117e-06
7.92716e-05
-7.86221e-06
7.99419e-05
-5.65942e-06
7.95337e-05
-3.30366e-06
7.80341e-05
-9.12342e-07
7.55183e-05
1.37628e-06
7.20904e-05
3.54503e-06
6.77927e-05
5.4387e-06
6.28083e-05
6.99112e-06
5.73205e-05
8.16021e-06
5.14919e-05
8.94697e-06
4.55085e-05
9.32013e-06
3.95431e-05
9.2919e-06
3.37392e-05
8.89563e-06
2.82305e-05
8.14912e-06
2.31692e-05
7.08663e-06
1.86619e-05
5.74054e-06
1.47868e-05
4.14274e-06
1.15725e-05
2.30039e-06
9.12056e-06
2.55644e-07
7.36923e-06
-1.82555e-06
6.41016e-06
-4.10095e-06
6.29383e-06
-6.44708e-06
7.01275e-06
-8.81805e-06
8.59866e-06
-1.11446e-05
1.11064e-05
-1.33668e-05
1.45867e-05
-1.54497e-05
1.91479e-05
-1.73735e-05
2.48916e-05
-1.9097e-05
3.18755e-05
-2.05897e-05
4.01078e-05
-2.18745e-05
4.95609e-05
-2.30166e-05
6.01742e-05
-2.40877e-05
7.18717e-05
-2.51469e-05
8.45595e-05
-2.62385e-05
9.81458e-05
-2.74141e-05
0.000112478
-2.86882e-05
0.000127371
-3.00691e-05
0.000142639
-3.15569e-05
0.000158116
-3.32022e-05
0.000173665
-3.49739e-05
0.000189229
-3.68523e-05
0.000204825
-3.87834e-05
0.000220515
-4.06979e-05
0.000236382
-4.25471e-05
0.000252485
-4.42757e-05
0.000268843
-4.58517e-05
0.000285431
-4.72651e-05
0.000302246
-4.85427e-05
0.000319267
-4.96783e-05
0.000336458
-5.06747e-05
0.000353802
-5.15493e-05
0.000371272
-5.22968e-05
0.000388853
-5.29332e-05
0.000406516
-5.3452e-05
0.000424237
-5.38607e-05
0.000441989
-5.41608e-05
0.00045974
-5.43475e-05
0.000477485
-5.44504e-05
0.000495195
-5.44457e-05
0.000512849
-5.43471e-05
0.000530419
-5.41515e-05
0.000547882
-5.38699e-05
0.000565221
-5.34954e-05
0.000582412
-5.30344e-05
0.000599433
-5.24966e-05
0.000616259
-5.1874e-05
0.00063288
-5.11712e-05
0.000649266
-5.03879e-05
0.000665397
-4.95243e-05
0.000681262
-4.85712e-05
0.000696824
-4.75251e-05
0.000712076
-4.63773e-05
0.000726986
-4.51239e-05
0.000741524
-4.37522e-05
0.000755672
-4.22601e-05
0.000769404
-4.0632e-05
0.000782689
-3.88604e-05
0.00079551
-3.6939e-05
0.000807836
-3.48462e-05
0.000819656
-3.25683e-05
0.000830959
-3.0087e-05
0.000841745
-2.73812e-05
0.000852042
-2.44293e-05
0.000861914
-2.1207e-05
0.000871476
-1.76794e-05
0.000880952
-1.38474e-05
0.000890587
-9.72774e-06
0.000900307
-5.49857e-06
0.000910168
-1.31199e-06
0.000920035
2.47358e-06
0.000929619
5.7009e-06
0.000938629
8.18315e-06
0.000946771
9.88288e-06
0.000953785
1.08905e-05
0.000959457
1.12813e-05
0.00096353
1.12329e-05
0.000965718
1.0927e-05
0.000965743
1.05817e-05
0.000963403
1.04768e-05
0.000958679
1.09003e-05
0.0009518
1.2031e-05
0.000943168
1.38741e-05
0.000933208
1.63155e-05
0.000922272
1.91817e-05
0.0009106
2.22863e-05
0.000898321
2.54772e-05
0.00088549
2.86652e-05
0.000872125
3.18148e-05
0.000858232
3.4919e-05
0.0008438
3.79893e-05
0.000828805
4.1037e-05
0.000813208
4.40855e-05
0.000796945
4.71662e-05
0.000779959
5.02803e-05
0.000762164
5.34473e-05
0.000743499
5.66388e-05
0.00072388
5.98754e-05
0.000703246
6.31311e-05
0.000681526
6.64211e-05
0.000658646
6.97543e-05
0.000634524
7.31322e-05
0.000609083
7.65426e-05
0.000582208
7.99989e-05
0.000553814
8.34527e-05
0.000523809
8.68861e-05
0.000492117
9.02534e-05
0.000458682
9.35107e-05
0.000423491
9.66147e-05
0.000386542
9.95147e-05
0.000347885
0.000102171
0.000307605
0.00010454
0.000265817
0.000106602
0.000222649
0.000108387
0.000178198
0.000109929
0.000132867
0.000111101
8.81319e-05
0.000110102
4.5885e-05
0.000106125
0.000114449
-9.26384e-06
2.83837e-05
3.05988e-06
-5.13085e-05
2.2418e-05
-7.15518e-05
4.06041e-05
-6.19706e-05
5.43633e-05
-4.40623e-05
6.36961e-05
-2.91928e-05
7.01559e-05
-2.08323e-05
7.54574e-05
-1.78088e-05
8.06617e-05
-1.74111e-05
8.60764e-05
-1.73882e-05
9.14814e-05
-1.65915e-05
9.6472e-05
-1.47518e-05
0.000100662
-1.20525e-05
0.000103794
-8.79088e-06
0.000105726
-5.2355e-06
0.000106411
-1.59826e-06
0.00010581
1.97732e-06
0.000104095
5.26016e-06
0.000101364
8.16984e-06
9.77661e-05
1.05891e-05
9.34733e-05
1.2453e-05
8.86845e-05
1.37358e-05
8.35775e-05
1.44271e-05
7.83254e-05
1.4544e-05
7.30979e-05
1.41231e-05
6.8036e-05
1.3211e-05
6.32742e-05
1.18484e-05
5.89184e-05
1.00964e-05
5.50587e-05
8.00245e-06
5.17339e-05
5.62521e-06
4.89668e-05
3.0227e-06
4.68415e-05
2.99769e-07
4.5439e-05
-2.69847e-06
4.46681e-05
-5.6762e-06
4.45226e-05
-8.67249e-06
4.50216e-05
-1.16436e-05
4.62016e-05
-1.45469e-05
4.81023e-05
-1.73504e-05
5.07704e-05
-2.00415e-05
5.42788e-05
-2.26054e-05
5.87293e-05
-2.50402e-05
6.42143e-05
-2.73595e-05
7.07889e-05
-2.95912e-05
7.84585e-05
-3.17573e-05
8.72048e-05
-3.38932e-05
9.69898e-05
-3.60235e-05
0.000107741
-3.81654e-05
0.000119386
-4.03326e-05
0.000131852
-4.25358e-05
0.000145051
-4.4756e-05
0.000158868
-4.70192e-05
0.000173191
-4.92963e-05
0.000187923
-5.15846e-05
0.000203011
-5.38712e-05
0.000218404
-5.60908e-05
0.000234083
-5.82259e-05
0.00025005
-6.02429e-05
0.000266317
-6.21189e-05
0.000282897
-6.38447e-05
0.000299765
-6.54112e-05
0.000316906
-6.68185e-05
0.000334309
-6.80783e-05
0.000351943
-6.91831e-05
0.000369788
-7.01415e-05
0.000387807
-7.09525e-05
0.000405973
-7.16174e-05
0.000424256
-7.21442e-05
0.000442629
-7.25342e-05
0.000461081
-7.27987e-05
0.000479547
-7.29171e-05
0.000498016
-7.29145e-05
0.000516455
-7.27859e-05
0.000534845
-7.25419e-05
0.000553135
-7.216e-05
0.000571308
-7.16678e-05
0.000589332
-7.10591e-05
0.000607181
-7.03454e-05
0.000624809
-6.9502e-05
0.000642193
-6.85553e-05
0.000659302
-6.74963e-05
0.000676105
-6.63277e-05
0.000692565
-6.50313e-05
0.000708659
-6.36183e-05
0.00072436
-6.20784e-05
0.000739636
-6.04004e-05
0.000754478
-5.8594e-05
0.000768843
-5.66256e-05
0.000782723
-5.45115e-05
0.000796098
-5.22357e-05
0.000808949
-4.97904e-05
0.000821268
-4.71648e-05
0.000833051
-4.43515e-05
0.000844301
-4.1337e-05
0.00085503
-3.81097e-05
0.000865262
-3.46618e-05
0.000875043
-3.09877e-05
0.000884454
-2.70905e-05
0.000893592
-2.29856e-05
0.000902598
-1.87331e-05
0.000911517
-1.44182e-05
0.000920359
-1.01536e-05
0.000928931
-6.09815e-06
0.00093699
-2.35846e-06
0.00094416
1.01322e-06
0.000950092
3.95092e-06
0.00095448
6.50207e-06
0.000956993
8.76844e-06
0.000957364
1.08628e-05
0.000955399
1.2891e-05
0.000951028
1.49529e-05
0.000944358
1.71471e-05
0.000935694
1.95641e-05
0.000925452
2.22729e-05
0.000914027
2.5299e-05
0.000901716
2.86269e-05
0.000888685
3.22128e-05
0.000874979
3.59917e-05
0.000860569
3.98876e-05
0.0008454
4.38341e-05
0.00082944
4.77744e-05
0.000812678
5.16812e-05
0.00079513
5.55377e-05
0.000776819
5.93474e-05
0.000757777
6.31279e-05
0.000738065
6.68779e-05
0.000717711
7.06343e-05
0.000696768
7.43904e-05
0.000675243
7.81635e-05
0.000653161
8.19578e-05
0.000630515
8.57772e-05
0.000607306
8.96301e-05
0.000583517
9.35427e-05
0.000559125
9.75241e-05
0.000534071
0.000101597
0.00050831
0.00010576
0.000481754
0.000110008
0.000454298
0.000114342
0.000425856
0.000118696
0.000396327
0.00012304
0.000365605
0.000127337
0.000333613
0.000131506
0.000300309
0.000135476
0.000265666
0.000139183
0.000229622
0.000142646
0.000192048
0.00014596
0.000153013
0.000148964
0.000113653
0.000150461
7.65525e-05
0.000147203
4.20464e-05
0.000140631
0.000156496
-1.13132e-05
3.96969e-05
-3.90781e-07
-6.22309e-05
1.88187e-05
-9.07613e-05
3.79752e-05
-8.11271e-05
5.31598e-05
-5.9247e-05
6.38478e-05
-3.98808e-05
7.14019e-05
-2.83865e-05
7.76088e-05
-2.40157e-05
8.37452e-05
-2.35475e-05
9.02772e-05
-2.39202e-05
9.70086e-05
-2.33229e-05
0.000103433
-2.1176e-05
0.000109026
-1.76453e-05
0.000113403
-1.31681e-05
0.000116343
-8.17527e-06
0.00011777
-3.02592e-06
0.00011773
2.01776e-06
0.000116331
6.65943e-06
0.000113729
1.07712e-05
0.000110137
1.41816e-05
0.000105745
1.68444e-05
0.000100747
1.87346e-05
9.53626e-05
1.98111e-05
8.97703e-05
2.01363e-05
8.41347e-05
1.97587e-05
7.86055e-05
1.87402e-05
7.33092e-05
1.71447e-05
6.83572e-05
1.50484e-05
6.38444e-05
1.25152e-05
5.98531e-05
9.61652e-06
5.64488e-05
6.42704e-06
5.37499e-05
2.99861e-06
5.16421e-05
-5.90663e-07
5.02528e-05
-4.28683e-06
4.96449e-05
-8.06463e-06
4.98565e-05
-1.18552e-05
5.09285e-05
-1.56189e-05
5.2901e-05
-1.93228e-05
5.58068e-05
-2.29473e-05
5.96731e-05
-2.64718e-05
6.45195e-05
-2.98867e-05
7.03513e-05
-3.31912e-05
7.71574e-05
-3.63973e-05
8.49116e-05
-3.95115e-05
9.35844e-05
-4.2566e-05
0.000103137
-4.5576e-05
0.000113524
-4.85529e-05
0.000124705
-5.15136e-05
0.000136641
-5.44718e-05
0.000149274
-5.73883e-05
0.000162552
-6.02974e-05
0.000176428
-6.31728e-05
0.000190841
-6.59974e-05
0.000205719
-6.87493e-05
0.000221028
-7.14e-05
0.000236734
-7.39315e-05
0.000252817
-7.63259e-05
0.000269259
-7.85609e-05
0.000286035
-8.06207e-05
0.00030313
-8.25064e-05
0.000320531
-8.42197e-05
0.000338208
-8.57553e-05
0.000356137
-8.71122e-05
0.000374287
-8.8291e-05
0.000392626
-8.92917e-05
0.000411134
-9.01252e-05
0.000429769
-9.07799e-05
0.000448506
-9.12712e-05
0.000467301
-9.15931e-05
0.000486132
-9.17485e-05
0.000504964
-9.17463e-05
0.000523761
-9.15833e-05
0.000542484
-9.12644e-05
0.000561109
-9.0785e-05
0.000579598
-9.01563e-05
0.000597917
-8.93786e-05
0.000616025
-8.84537e-05
0.000633901
-8.73776e-05
0.000651502
-8.61563e-05
0.000668796
-8.47904e-05
0.000685744
-8.32754e-05
0.000702327
-8.16143e-05
0.000718511
-7.98025e-05
0.000734267
-7.78339e-05
0.000749574
-7.57078e-05
0.000764403
-7.34226e-05
0.000778743
-7.09664e-05
0.000792577
-6.83448e-05
0.000805887
-6.55462e-05
0.000818665
-6.2568e-05
0.0008309
-5.94001e-05
0.000842586
-5.60378e-05
0.00085373
-5.24807e-05
0.000864339
-4.87191e-05
0.000874433
-4.47554e-05
0.000884033
-4.05881e-05
0.000893171
-3.62286e-05
0.000901893
-3.17067e-05
0.000910212
-2.70523e-05
0.000918113
-2.23197e-05
0.000925551
-1.75914e-05
0.000932392
-1.29393e-05
0.000938459
-8.42469e-06
0.000943574
-4.10248e-06
0.00094749
3.47544e-08
0.000950012
3.98076e-06
0.000951018
7.76258e-06
0.000950451
1.14298e-05
0.000948298
1.50432e-05
0.000944574
1.86777e-05
0.000939305
2.24162e-05
0.000932529
2.63401e-05
0.000924297
3.05047e-05
0.000914665
3.49307e-05
0.000903689
3.96031e-05
0.000891424
4.44772e-05
0.00087792
4.94965e-05
0.000863205
5.46025e-05
0.000847297
5.97421e-05
0.000830206
6.48652e-05
0.000811952
6.99351e-05
0.000792546
7.49438e-05
0.000772036
7.98574e-05
0.000750489
8.46749e-05
0.000727964
8.94032e-05
0.000704549
9.40491e-05
0.000680324
9.86155e-05
0.000655369
0.000103119
0.000629767
0.000107559
0.000603587
0.000111957
0.000576894
0.000116323
0.000549754
0.000120683
0.000522217
0.000125061
0.000494334
0.000129479
0.000466136
0.000133958
0.000437636
0.000138508
0.00040885
0.000143128
0.000379742
0.000147803
0.00035027
0.000152512
0.000320396
0.000157211
0.000290073
0.00016183
0.000259258
0.00016629
0.000227869
0.000170572
0.000195708
0.000174807
0.000162525
0.000179144
0.000128555
0.000182934
9.5621e-05
0.000183396
6.60742e-05
0.00017675
3.81329e-05
0.000168572
0.000194629
-1.41351e-05
5.3832e-05
-5.4883e-06
-7.08777e-05
1.29443e-05
-0.000109194
3.28475e-05
-0.00010103
4.96094e-05
-7.60089e-05
6.18645e-05
-5.21359e-05
7.06407e-05
-3.71626e-05
7.78398e-05
-3.12149e-05
8.50169e-05
-3.07245e-05
9.28094e-05
-3.17127e-05
0.000100989
-3.1502e-05
0.000108864
-2.90512e-05
0.00011568
-2.4462e-05
0.000120868
-1.83555e-05
0.000124123
-1.14308e-05
0.000125375
-4.27713e-06
0.0001247
2.69276e-06
0.000122332
9.02717e-06
0.000118586
1.45171e-05
0.000113686
1.90819e-05
0.000107921
2.26092e-05
0.000101587
2.5068e-05
9.4896e-05
2.65026e-05
8.80628e-05
2.69696e-05
8.12809e-05
2.65405e-05
7.47168e-05
2.53043e-05
6.85138e-05
2.33478e-05
6.27833e-05
2.07789e-05
5.76133e-05
1.76851e-05
5.30725e-05
1.41574e-05
4.92273e-05
1.02722e-05
4.61189e-05
6.10703e-06
4.37741e-05
1.75408e-06
4.23048e-05
-2.81752e-06
4.16775e-05
-7.43733e-06
4.19223e-05
-1.21e-05
4.30697e-05
-1.67663e-05
4.51425e-05
-2.13956e-05
4.81616e-05
-2.59664e-05
5.21478e-05
-3.04581e-05
5.71171e-05
-3.48559e-05
6.308e-05
-3.91541e-05
7.00391e-05
-4.33564e-05
7.79901e-05
-4.74626e-05
8.69044e-05
-5.14803e-05
9.67316e-05
-5.54032e-05
0.00010744
-5.92609e-05
0.000118969
-6.30429e-05
0.000131246
-6.6749e-05
0.000144234
-7.03765e-05
0.000157862
-7.39256e-05
0.000172076
-7.73866e-05
0.000186825
-8.07464e-05
0.000202059
-8.39835e-05
0.000217754
-8.70943e-05
0.000233859
-9.00368e-05
0.00025035
-9.2817e-05
0.000267205
-9.5416e-05
0.000284408
-9.78238e-05
0.000301931
-0.00010003
0.000319751
-0.000102039
0.000337837
-0.000103841
0.00035616
-0.000105436
0.000374693
-0.000106824
0.000393409
-0.000108007
0.000412274
-0.000108991
0.000431253
-0.000109759
0.000450314
-0.000110332
0.000469424
-0.000110703
0.000488559
-0.000110884
0.000507666
-0.000110853
0.000526721
-0.000110638
0.000545688
-0.000110232
0.000564543
-0.00010964
0.000583243
-0.000108856
0.000601754
-0.00010789
0.000620049
-0.000106749
0.000638091
-0.000105419
0.000655849
-0.000103914
0.000673293
-0.000102235
0.000690393
-0.000100375
0.000707116
-9.83376e-05
0.000723451
-9.61371e-05
0.000739357
-9.37401e-05
0.000754823
-9.11741e-05
0.000769827
-8.84265e-05
0.000784358
-8.54969e-05
0.000798393
-8.23799e-05
0.000811924
-7.90773e-05
0.000824945
-7.55894e-05
0.000837448
-7.1903e-05
0.000849422
-6.8011e-05
0.000860866
-6.39256e-05
0.000871789
-5.96418e-05
0.000882197
-5.51631e-05
0.000892085
-5.04766e-05
0.000901481
-4.56246e-05
0.000910366
-4.05916e-05
0.000918743
-3.54288e-05
0.000926591
-3.01683e-05
0.000933849
-2.48488e-05
0.000940432
-1.95231e-05
0.000946234
-1.42258e-05
0.000951116
-8.98524e-06
0.000954956
-3.80524e-06
0.000957627
1.31001e-06
0.000958994
6.3954e-06
0.000958944
1.14805e-05
0.000957381
1.66062e-05
0.000954241
2.18173e-05
0.000949501
2.7156e-05
0.000943186
3.2655e-05
0.000935354
3.83371e-05
0.000926081
4.42033e-05
0.000915442
5.02423e-05
0.000903486
5.6433e-05
0.000890247
6.27353e-05
0.00087575
6.91004e-05
0.000859997
7.54948e-05
0.00084298
8.18824e-05
0.000824709
8.82059e-05
0.000805194
9.44581e-05
0.000784442
0.00010061
0.000762468
0.000106649
0.000739323
0.000112548
0.000715064
0.000118308
0.000689762
0.000123918
0.000663488
0.000129392
0.000636316
0.000134732
0.000608337
0.000139936
0.000579638
0.000145023
0.000550313
0.000150008
0.000520464
0.00015491
0.000490189
0.000159755
0.00045959
0.000164558
0.000428758
0.00016934
0.000397777
0.000174109
0.000366713
0.000178867
0.000335619
0.000183606
0.000304535
0.000188295
0.000273492
0.000192873
0.000242502
0.00019728
0.000211506
0.000201568
0.000180342
0.00020597
0.000148843
0.000210643
0.000117423
0.000214354
8.77822e-05
0.000213036
6.14307e-05
0.000203101
3.58587e-05
0.000194144
0.000230487
-1.77503e-05
7.15823e-05
-1.29097e-05
-7.57183e-05
2.80102e-06
-0.000124905
2.26083e-05
-0.000120838
4.12073e-05
-9.46078e-05
5.59621e-05
-6.68908e-05
6.71797e-05
-4.83801e-05
7.66468e-05
-4.0682e-05
8.61018e-05
-4.01796e-05
9.6329e-05
-4.19399e-05
0.000107054
-4.22272e-05
0.000117327
-3.93242e-05
0.000126062
-3.31963e-05
0.000132426
-2.47197e-05
0.000135999
-1.50042e-05
0.000136762
-5.03964e-06
0.000134926
4.52846e-06
0.000130963
1.29903e-05
0.000125265
2.02148e-05
0.000118304
2.60434e-05
0.000110446
3.0467e-05
0.00010203
3.34835e-05
9.33723e-05
3.51606e-05
8.47522e-05
3.55897e-05
7.63704e-05
3.49223e-05
6.83918e-05
3.32829e-05
6.0953e-05
3.07866e-05
5.41766e-05
2.75553e-05
4.8136e-05
2.37257e-05
4.28986e-05
1.93948e-05
3.85142e-05
1.46566e-05
3.50234e-05
9.59784e-06
3.24941e-05
4.28332e-06
3.08568e-05
-1.18019e-06
3.01905e-05
-6.77102e-06
3.05095e-05
-1.2419e-05
3.18239e-05
-1.80807e-05
3.41357e-05
-2.37074e-05
3.74489e-05
-2.92796e-05
4.17692e-05
-3.47784e-05
4.70912e-05
-4.01778e-05
5.34124e-05
-4.54753e-05
6.07092e-05
-5.06533e-05
6.8946e-05
-5.56993e-05
7.81078e-05
-6.06421e-05
8.81696e-05
-6.5465e-05
9.90802e-05
-7.01715e-05
0.000110784
-7.47471e-05
0.000123251
-7.92157e-05
0.00013643
-8.35559e-05
0.000150272
-8.77675e-05
0.000164726
-9.18405e-05
0.000179745
-9.57649e-05
0.000195289
-9.95272e-05
0.000211305
-0.000103111
0.000227774
-0.000106505
0.000244655
-0.000109699
0.000261921
-0.000112682
0.000279538
-0.00011544
0.000297485
-0.000117977
0.000315726
-0.00012028
0.000334233
-0.000122348
0.000352974
-0.000124177
0.000371921
-0.00012577
0.00039104
-0.000127127
0.000410294
-0.000128245
0.000429659
-0.000129124
0.000449095
-0.000129768
0.000468572
-0.00013018
0.000488049
-0.000130362
0.000507503
-0.000130307
0.000526895
-0.00013003
0.000546191
-0.000129528
0.000565359
-0.000128807
0.000584366
-0.000127863
0.00060318
-0.000126704
0.000621778
-0.000125347
0.000640115
-0.000123756
0.00065817
-0.000121969
0.000675917
-0.000119981
0.00069332
-0.000117779
0.000710363
-0.00011538
0.000727015
-0.000112789
0.000743259
-0.000109984
0.000759074
-0.00010699
0.000774442
-0.000103794
0.000789347
-0.000100402
0.000803775
-9.68082e-05
0.000817727
-9.30289e-05
0.000831165
-8.90271e-05
0.000844095
-8.4833e-05
0.000856518
-8.0434e-05
0.000868423
-7.58304e-05
0.000879805
-7.10242e-05
0.000890654
-6.60124e-05
0.000900981
-6.08035e-05
0.000910763
-5.54059e-05
0.000919999
-4.98279e-05
0.000928662
-4.40918e-05
0.000936713
-3.8219e-05
0.000944095
-3.22309e-05
0.000950728
-2.6156e-05
0.000956518
-2.00165e-05
0.000961368
-1.38345e-05
0.000965166
-7.60331e-06
0.000967797
-1.32114e-06
0.000969146
5.04643e-06
0.000969154
1.14723e-05
0.000967761
1.7999e-05
0.000964929
2.46497e-05
0.000960635
3.14501e-05
0.000954872
3.84174e-05
0.000947657
4.5552e-05
0.000939003
5.28571e-05
0.000928933
6.03131e-05
0.000917471
6.78945e-05
0.000904652
7.55542e-05
0.000890479
8.32737e-05
0.000874978
9.09956e-05
0.000858182
9.86784e-05
0.000840078
0.00010631
0.000820697
0.000113839
0.000800061
0.000121246
0.000778201
0.000128509
0.000755144
0.000135605
0.000730921
0.00014253
0.000705575
0.000149264
0.000679164
0.000155804
0.000651749
0.000162146
0.000623395
0.00016829
0.000594179
0.000174238
0.000564186
0.000180001
0.000533509
0.000185587
0.000502251
0.000191012
0.000470521
0.000196288
0.000438433
0.000201427
0.000406099
0.000206444
0.000373625
0.000211341
0.000341115
0.000216116
0.000308658
0.000220753
0.000276333
0.000225197
0.000244207
0.000229407
0.000212297
0.000233478
0.000180556
0.000237711
0.000148949
0.000242251
0.000117795
0.000245507
8.81374e-05
0.000242694
6.11304e-05
0.000230108
3.50045e-05
0.00022027
0.000265492
-2.26672e-05
9.42495e-05
-2.45106e-05
-7.38749e-05
-1.38804e-05
-0.000135535
4.91373e-06
-0.000139632
2.47264e-05
-0.000114421
4.2186e-05
-8.43503e-05
5.71469e-05
-6.33411e-05
7.10554e-05
-5.45905e-05
8.52286e-05
-5.43528e-05
0.00010021
-5.6921e-05
0.000115495
-5.75125e-05
0.000129789
-5.36182e-05
0.000141594
-4.50018e-05
0.000149761
-3.28864e-05
0.000153787
-1.903e-05
0.000153779
-5.03151e-06
0.000150318
7.98954e-06
0.00014407
1.92382e-05
0.000135791
2.84938e-05
0.000126038
3.5796e-05
0.000115415
4.10902e-05
0.000104404
4.44944e-05
9.3351e-05
4.62137e-05
8.25343e-05
4.64064e-05
7.22272e-05
4.52294e-05
6.2596e-05
4.29141e-05
5.37547e-05
3.96279e-05
4.58098e-05
3.55002e-05
3.88191e-05
3.07164e-05
3.28392e-05
2.53747e-05
2.78937e-05
1.96021e-05
2.40066e-05
1.3485e-05
2.11637e-05
7.12628e-06
1.93809e-05
6.02545e-07
1.86839e-05
-6.07396e-06
1.90338e-05
-1.27689e-05
2.04366e-05
-1.94836e-05
2.28938e-05
-2.61645e-05
2.63816e-05
-3.27675e-05
3.09032e-05
-3.92999e-05
3.64265e-05
-4.57012e-05
4.29528e-05
-5.20016e-05
5.04503e-05
-5.81508e-05
5.89115e-05
-6.41604e-05
6.82911e-05
-7.00218e-05
7.85614e-05
-7.57353e-05
8.96841e-05
-8.12942e-05
0.000101628
-8.66914e-05
0.000114336
-9.19235e-05
0.000127763
-9.69827e-05
0.000141863
-0.000101867
0.000156596
-0.000106574
0.000171919
-0.000111087
0.000187778
-0.000115387
0.000204144
-0.000119477
0.00022098
-0.000123341
0.000238243
-0.000126963
0.000255906
-0.000130345
0.000273943
-0.000133477
0.000292311
-0.000136344
0.000310981
-0.00013895
0.000329922
-0.00014129
0.000349107
-0.000143362
0.000368494
-0.000145157
0.000388051
-0.000146683
0.000407746
-0.00014794
0.000427547
-0.000148925
0.000447417
-0.000149638
0.000467322
-0.000150084
0.00048723
-0.00015027
0.000507109
-0.000150186
0.000526919
-0.00014984
0.000546632
-0.000149241
0.000566214
-0.00014839
0.000585632
-0.000147281
0.000604857
-0.000145929
0.000623862
-0.000144351
0.000642604
-0.000142499
0.000661062
-0.000140427
0.00067922
-0.000138139
0.00069703
-0.000135589
0.000714481
-0.000132831
0.000731544
-0.000129852
0.000748205
-0.000126645
0.00076444
-0.000123226
0.000780235
-0.000119589
0.000795571
-0.000115738
0.000810435
-0.000111672
0.000824804
-0.000107398
0.000838684
-0.000102907
0.000852057
-9.82062e-05
0.000864926
-9.33035e-05
0.000877275
-8.81795e-05
0.000889085
-8.28343e-05
0.000900356
-7.72835e-05
0.000911082
-7.15289e-05
0.000921249
-6.55727e-05
0.000930824
-5.94036e-05
0.000939788
-5.30554e-05
0.000948088
-4.65194e-05
0.000955682
-3.98247e-05
0.000962487
-3.29611e-05
0.000968431
-2.59601e-05
0.000973411
-1.88152e-05
0.000977338
-1.15301e-05
0.000980116
-4.09869e-06
0.00098168
3.48231e-06
0.000981926
1.12259e-05
0.000980789
1.91361e-05
0.000978215
2.72233e-05
0.000974178
3.54879e-05
0.000968661
4.39339e-05
0.000961659
5.25541e-05
0.000953195
6.13208e-05
0.000943288
7.02208e-05
0.000931965
7.92175e-05
0.000919232
8.82866e-05
0.000905142
9.73644e-05
0.000889704
0.000106433
0.000872924
0.000115458
0.000854859
0.000124375
0.000835516
0.000133182
0.000814918
0.000141844
0.00079311
0.000150318
0.000770113
0.000158602
0.000745961
0.000166682
0.00072071
0.000174515
0.000694397
0.000182117
0.000667072
0.000189471
0.000638791
0.000196572
0.000609611
0.000203417
0.000579605
0.000210008
0.000548845
0.000216347
0.000517417
0.00022244
0.000485413
0.000228292
0.00045293
0.00023391
0.000420076
0.000239298
0.000386954
0.000244463
0.000353669
0.000249401
0.000320324
0.000254097
0.00028701
0.000258512
0.00025381
0.000262607
0.000220806
0.000266482
0.000188034
0.000270483
0.000155492
0.000274792
0.000123278
0.000277722