/*--------------------------------*- C++ -*----------------------------------*\
| =========                 |                                                 |
| \\      /  F ield         | OpenFOAM: The Open Source CFD Toolbox           |
|  \\    /   O peration     | Version:  v2006                                 |
|   \\  /    A nd           | Website:  www.openfoam.com                      |
|    \\/     M anipulation  |                                                 |
\*---------------------------------------------------------------------------*/
FoamFile
{
    version     2.0;
    format      ascii;
    class       surfaceScalarField;
    location    "10";
    object      phi;
}
// * * * * * * * * * * * * * * * * * * * * * * * * * * * * * * * * * * * * * //

dimensions      [0 3 -1 0 0 0 0];
oriented        oriented;


internalField   nonuniform List<scalar> 
99450
(
-1.40697e-05
1.40697e-05
-1.65639e-05
2.49425e-06
-2.13396e-05
4.77567e-06
-2.81471e-05
6.80745e-06
-3.545e-05
7.30291e-06
-4.27295e-05
7.27949e-06
-4.99536e-05
7.22415e-06
-5.7122e-05
7.16844e-06
-6.42646e-05
7.14253e-06
-7.13535e-05
7.08891e-06
-7.8379e-05
7.02551e-06
-8.53214e-05
6.94237e-06
-9.21667e-05
6.84532e-06
-9.89043e-05
6.73763e-06
-0.000105525
6.62055e-06
-0.000112022
6.4973e-06
-0.000118392
6.36937e-06
-0.00012463
6.23818e-06
-0.000130738
6.10806e-06
-0.000136714
5.97633e-06
-0.000142555
5.84091e-06
-0.000148262
5.70684e-06
-0.000153844
5.58212e-06
-0.000159306
5.46211e-06
-0.000164652
5.34583e-06
-0.000169888
5.23654e-06
-0.000175022
5.13312e-06
-0.000180064
5.04237e-06
-0.000185035
4.97111e-06
-0.00018996
4.92488e-06
-0.000194864
4.90433e-06
-0.000199775
4.91077e-06
-0.00020471
4.93455e-06
-0.000209661
4.95137e-06
-0.000214588
4.9269e-06
-0.000219419
4.83075e-06
-0.000224058
4.63937e-06
-0.000228399
4.34141e-06
-0.000232328
3.92878e-06
-0.000235772
3.44356e-06
-0.000238693
2.92165e-06
-0.000241087
2.39384e-06
-0.000242966
1.87897e-06
-0.000244334
1.36793e-06
-0.000245131
7.96863e-07
-0.000245204
7.26235e-08
-0.000244387
-8.16677e-07
-0.000242448
-1.93906e-06
-0.000239216
-3.23165e-06
-0.000234617
-4.59871e-06
-0.00022868
-5.9374e-06
-0.000221497
-7.1832e-06
-0.00021318
-8.31695e-06
-0.00020383
-9.35022e-06
-0.000193518
-1.03114e-05
-0.000182303
-1.12152e-05
-0.000170231
-1.20725e-05
-0.000157345
-1.28852e-05
-0.000143694
-1.36515e-05
-0.000129324
-1.43695e-05
-0.000114283
-1.50413e-05
-9.86162e-05
-1.56668e-05
-8.23724e-05
-1.62438e-05
-6.55996e-05
-1.67728e-05
-4.8346e-05
-1.72536e-05
-3.06589e-05
-1.76871e-05
-1.25871e-05
-1.80718e-05
5.82016e-06
-1.84073e-05
2.45144e-05
-1.86943e-05
4.34475e-05
-1.89331e-05
6.25721e-05
-1.91246e-05
8.18407e-05
-1.92686e-05
0.000101207
-1.93667e-05
0.000120627
-1.94201e-05
0.000140052
-1.94243e-05
0.000159434
-1.93818e-05
0.00017872
-1.9286e-05
0.000197865
-1.91459e-05
0.000216802
-1.89366e-05
0.000235465
-1.86632e-05
0.000253794
-1.83291e-05
0.000271719
-1.7925e-05
0.00028917
-1.74503e-05
0.000306074
-1.69047e-05
0.000322363
-1.62885e-05
0.000337984
-1.56208e-05
0.000352848
-1.48646e-05
0.000366876
-1.40273e-05
0.000379988
-1.31129e-05
0.000392105
-1.21163e-05
0.000403114
-1.1009e-05
0.000412929
-9.81566e-06
0.00042145
-8.52091e-06
0.000428552
-7.10184e-06
0.000434064
-5.51156e-06
0.000437765
-3.7009e-06
0.000439409
-1.6448e-06
0.000438742
6.67414e-07
0.000435853
2.88871e-06
0.000430967
4.88622e-06
0.000424513
6.45444e-06
0.000416963
7.54925e-06
0.000408728
8.23554e-06
0.000400139
8.58844e-06
0.000391419
8.72057e-06
0.000382707
8.71151e-06
0.00037411
8.59718e-06
0.000365737
8.37371e-06
0.000357675
8.06186e-06
0.000350006
7.66864e-06
0.000342895
7.11062e-06
0.000336533
6.36195e-06
0.000330988
5.54532e-06
0.00032616
4.82793e-06
0.000321853
4.30729e-06
0.000317855
3.99789e-06
0.000313975
3.87988e-06
0.000310038
3.93745e-06
0.000305919
4.11836e-06
0.000301499
4.42018e-06
0.000296691
4.80827e-06
0.000291443
5.24742e-06
0.000285737
5.70677e-06
0.000279544
6.19297e-06
0.000272867
6.67635e-06
0.000265704
7.16306e-06
0.000258063
7.64167e-06
0.000249944
8.11823e-06
0.000241376
8.56812e-06
0.000232367
9.0092e-06
0.000222937
9.43023e-06
0.000213116
9.82041e-06
0.000202932
1.01843e-05
0.000192402
1.05306e-05
0.000181554
1.08473e-05
0.000170416
1.11387e-05
0.000159006
1.14093e-05
0.000147354
1.16519e-05
0.000135496
1.1858e-05
0.000123471
1.20252e-05
0.000111326
1.21456e-05
9.91023e-05
1.22233e-05
8.68314e-05
1.2271e-05
7.45866e-05
1.22447e-05
6.24137e-05
1.21729e-05
5.05508e-05
1.18629e-05
3.8923e-05
1.16278e-05
2.80168e-05
1.09062e-05
1.67165e-05
1.13003e-05
1.67165e-05
-2.17096e-05
3.57793e-05
-3.63245e-05
1.71092e-05
-5.31992e-05
2.16504e-05
-7.18376e-05
2.54458e-05
-9.06307e-05
2.6096e-05
-0.000109097
2.57456e-05
-0.000127266
2.53931e-05
-0.000145203
2.51057e-05
-0.000162848
2.47878e-05
-0.000180185
2.44259e-05
-0.000197162
2.40021e-05
-0.000213747
2.35274e-05
-0.000229903
2.30016e-05
-0.000245592
2.24264e-05
-0.000260775
2.18032e-05
-0.000275418
2.11401e-05
-0.000289481
2.04328e-05
-0.000302933
1.96902e-05
-0.000315739
1.89142e-05
-0.000327872
1.81089e-05
-0.000339302
1.72707e-05
-0.000350001
1.64065e-05
-0.000359942
1.55225e-05
-0.000369096
1.46167e-05
-0.000377437
1.36868e-05
-0.000384933
1.27319e-05
-0.000391552
1.17525e-05
-0.000397262
1.0752e-05
-0.000402024
9.73377e-06
-0.000405799
8.69946e-06
-0.000408549
7.65413e-06
-0.000410238
6.6006e-06
-0.000410844
5.53985e-06
-0.000410363
4.47047e-06
-0.00040882
3.38431e-06
-0.000406262
2.27237e-06
-0.000402755
1.13268e-06
-0.000398415
1.53828e-09
-0.000393214
-1.27258e-06
-0.000387177
-2.59308e-06
-0.000380318
-3.93778e-06
-0.000372641
-5.28306e-06
-0.000364158
-6.60385e-06
-0.000354902
-7.88784e-06
-0.000344957
-9.1481e-06
-0.00033447
-1.04152e-05
-0.000323562
-1.17245e-05
-0.000312389
-1.31117e-05
-0.000301048
-1.4573e-05
-0.000289566
-1.60805e-05
-0.000277895
-1.76086e-05
-0.000265966
-1.91123e-05
-0.000253716
-2.05661e-05
-0.000241107
-2.19599e-05
-0.000228129
-2.32892e-05
-0.000214787
-2.45567e-05
-0.000201096
-2.57642e-05
-0.000187071
-2.69097e-05
-0.000172728
-2.79949e-05
-0.000158078
-2.90192e-05
-0.00014314
-2.99798e-05
-0.00012793
-3.0877e-05
-0.000112464
-3.17099e-05
-9.67581e-05
-3.24782e-05
-8.08289e-05
-3.31828e-05
-6.46967e-05
-3.38194e-05
-4.83805e-05
-3.43879e-05
-3.1895e-05
-3.48928e-05
-1.52626e-05
-3.53267e-05
1.50055e-06
-3.56962e-05
1.83712e-05
-3.59952e-05
3.53335e-05
-3.62309e-05
5.23648e-05
-3.63981e-05
6.9448e-05
-3.65032e-05
8.65664e-05
-3.65427e-05
0.000103704
-3.65196e-05
0.000120846
-3.64282e-05
0.000137973
-3.62726e-05
0.000155077
-3.60403e-05
0.000172147
-3.5734e-05
0.000189162
-3.53433e-05
0.000206103
-3.48662e-05
0.000222958
-3.4306e-05
0.000239696
-3.36419e-05
0.000256301
-3.28937e-05
0.00027273
-3.20502e-05
0.000288976
-3.11106e-05
0.00030501
-3.00608e-05
0.000320805
-2.89085e-05
0.000336334
-2.7645e-05
0.00035161
-2.62846e-05
0.00036659
-2.47958e-05
0.000381259
-2.31901e-05
0.000395625
-2.14675e-05
0.000409729
-1.9616e-05
0.000423663
-1.76352e-05
0.000437574
-1.55549e-05
0.00045168
-1.34393e-05
0.000465982
-1.14131e-05
0.000480464
-9.59603e-06
0.000494999
-8.08015e-06
0.000509476
-6.92748e-06
0.000523798
-6.08671e-06
0.000537899
-5.51217e-06
0.000551741
-5.12173e-06
0.000565268
-4.81548e-06
0.000578404
-4.53952e-06
0.000591044
-4.26592e-06
0.000603065
-3.95912e-06
0.000614338
-3.60449e-06
0.000624642
-3.19316e-06
0.000633708
-2.70367e-06
0.00064134
-2.08704e-06
0.000647475
-1.30662e-06
0.000652112
-3.2998e-07
0.000655353
7.57115e-07
0.000657272
1.96059e-06
0.000657871
3.33798e-06
0.000657136
4.85383e-06
0.000655053
6.50304e-06
0.000651595
8.26671e-06
0.000646743
1.00989e-05
0.000640466
1.19843e-05
0.000632744
1.39144e-05
0.000623572
1.58485e-05
0.000612955
1.77803e-05
0.000600883
1.97138e-05
0.000587363
2.16383e-05
0.000572392
2.35383e-05
0.000555988
2.54135e-05
0.000538165
2.7253e-05
0.000518946
2.90399e-05
0.000498359
3.07715e-05
0.000476451
3.24381e-05
0.000453272
3.40266e-05
0.000428863
3.55473e-05
0.000403288
3.69842e-05
0.000376616
3.83239e-05
0.000348908
3.95664e-05
0.000320237
4.06966e-05
0.00029067
4.17122e-05
0.000260284
4.26092e-05
0.00022916
4.33954e-05
0.000197327
4.40772e-05
0.00016477
4.47304e-05
0.000131315
4.53173e-05
9.7222e-05
4.57211e-05
6.42572e-05
4.3871e-05
3.49395e-05
4.0618e-05
5.1656e-05
-2.04396e-05
5.62188e-05
-3.19691e-05
2.86388e-05
-4.54415e-05
3.51228e-05
-6.16117e-05
4.1616e-05
-7.83105e-05
4.27948e-05
-9.46804e-05
4.21156e-05
-0.000110655
4.13672e-05
-0.000126362
4.08135e-05
-0.000141819
4.02442e-05
-0.000157009
3.96165e-05
-0.000171891
3.88843e-05
-0.000186432
3.8068e-05
-0.000200604
3.71731e-05
-0.000214379
3.62016e-05
-0.000227729
3.51532e-05
-0.000240624
3.40353e-05
-0.000253041
3.28499e-05
-0.000264954
3.16027e-05
-0.000276337
3.0298e-05
-0.000287166
2.89373e-05
-0.000297424
2.75292e-05
-0.000307087
2.60697e-05
-0.000316128
2.45631e-05
-0.000324533
2.30217e-05
-0.000332282
2.14353e-05
-0.000339362
1.98122e-05
-0.000345757
1.81479e-05
-0.000351458
1.64531e-05
-0.000356452
1.4727e-05
-0.000360725
1.29731e-05
-0.000364265
1.1194e-05
-0.000367059
9.3942e-06
-0.000369097
7.57852e-06
-0.000370377
5.7505e-06
-0.000370906
3.91239e-06
-0.000370687
2.05414e-06
-0.000369672
1.17846e-07
-0.00036787
-1.80135e-06
-0.000365395
-3.74758e-06
-0.000362245
-5.74296e-06
-0.000358407
-7.77558e-06
-0.00035386
-9.83037e-06
-0.000348575
-1.18881e-05
-0.000342535
-1.39279e-05
-0.000335749
-1.59344e-05
-0.000328256
-1.79079e-05
-0.000320116
-1.98647e-05
-0.000311397
-2.18313e-05
-0.000302146
-2.38236e-05
-0.000292385
-2.58416e-05
-0.00028212
-2.78731e-05
-0.000271343
-2.98894e-05
-0.000260045
-3.18646e-05
-0.000248218
-3.37864e-05
-0.000235873
-3.56341e-05
-0.000223021
-3.74087e-05
-0.000209683
-3.91028e-05
-0.000195874
-4.07179e-05
-0.000181616
-4.22536e-05
-0.00016693
-4.37045e-05
-0.000151843
-4.5067e-05
-0.000136373
-4.63472e-05
-0.000120543
-4.75396e-05
-0.000104385
-4.86362e-05
-8.79183e-05
-4.96498e-05
-7.11694e-05
-5.05683e-05
-5.41645e-05
-5.13928e-05
-3.69286e-05
-5.21287e-05
-1.94863e-05
-5.2769e-05
-1.86663e-06
-5.33159e-05
1.59088e-05
-5.37707e-05
3.38066e-05
-5.41287e-05
5.1808e-05
-5.43995e-05
6.98793e-05
-5.45745e-05
8.80006e-05
-5.4664e-05
0.000106142
-5.46614e-05
0.00012428
-5.45656e-05
0.000142396
-5.43888e-05
0.000160466
-5.41101e-05
0.000178464
-5.37323e-05
0.00019638
-5.32593e-05
0.000214191
-5.26771e-05
0.000231866
-5.19806e-05
0.000249406
-5.11821e-05
0.000266772
-5.026e-05
0.000283939
-4.92168e-05
0.000300891
-4.80624e-05
0.000317608
-4.67778e-05
0.000334079
-4.53794e-05
0.000350282
-4.38486e-05
0.000366212
-4.22148e-05
0.000381853
-4.04368e-05
0.0003972
-3.85364e-05
0.000412259
-3.65265e-05
0.000427046
-3.44037e-05
0.000441611
-3.21997e-05
0.000455985
-2.99294e-05
0.000470221
-2.76746e-05
0.000484264
-2.54561e-05
0.000498015
-2.33477e-05
0.00051132
-2.13844e-05
0.000523988
-1.9596e-05
0.000535885
-1.79831e-05
0.000546896
-1.65234e-05
0.000556923
-1.51489e-05
0.000565935
-1.38271e-05
0.000573907
-1.25118e-05
0.000580831
-1.11895e-05
0.00058672
-9.84819e-06
0.000591604
-8.48894e-06
0.000595475
-7.06381e-06
0.000598319
-5.54833e-06
0.000600149
-3.9162e-06
0.000601027
-2.18501e-06
0.0006011
-4.03159e-07
0.000600305
1.55195e-06
0.000598643
3.6231e-06
0.000596203
5.77772e-06
0.000593016
8.04061e-06
0.000589099
1.04199e-05
0.000584451
1.29149e-05
0.000579035
1.55155e-05
0.000572804
1.82148e-05
0.000565721
2.09978e-05
0.000557725
2.38439e-05
0.00054876
2.6746e-05
0.000538789
2.96847e-05
0.000527777
3.26502e-05
0.000515672
3.56427e-05
0.000502436
3.86498e-05
0.00048803
4.16585e-05
0.000472412
4.46582e-05
0.000455539
4.76442e-05
0.000437403
5.05746e-05
0.000417972
5.34575e-05
0.000397247
5.62721e-05
0.000375242
5.8989e-05
0.000351968
6.15983e-05
0.000327455
6.40797e-05
0.00030173
6.64215e-05
0.000274868
6.8574e-05
0.000246905
7.05717e-05
0.000217941
7.23597e-05
0.000187996
7.40218e-05
0.000157052
7.56749e-05
0.000124994
7.73757e-05
9.25791e-05
7.81356e-05
6.20237e-05
7.44263e-05
3.56263e-05
6.70154e-05
8.72823e-05
-1.88962e-05
7.5115e-05
-2.74353e-05
3.71778e-05
-3.78452e-05
4.55327e-05
-5.10854e-05
5.48563e-05
-6.5081e-05
5.67904e-05
-7.8941e-05
5.59756e-05
-9.25096e-05
5.49358e-05
-0.000105915
5.42194e-05
-0.000119203
5.3532e-05
-0.000132354
5.27669e-05
-0.000145345
5.1876e-05
-0.000158147
5.08698e-05
-0.000170737
4.97626e-05
-0.00018309
4.85552e-05
-0.000195187
4.72499e-05
-0.000207001
4.58493e-05
-0.000218508
4.43573e-05
-0.000229683
4.27769e-05
-0.000240494
4.11091e-05
-0.000250922
3.93658e-05
-0.000260936
3.75435e-05
-0.000270514
3.56468e-05
-0.000279627
3.36762e-05
-0.000288243
3.16379e-05
-0.000296339
2.95317e-05
-0.000303888
2.73611e-05
-0.000310871
2.51309e-05
-0.000317265
2.28467e-05
-0.000323049
2.05117e-05
-0.000328207
1.81312e-05
-0.000332722
1.57086e-05
-0.000336574
1.32467e-05
-0.000339744
1.07483e-05
-0.000342209
8.21547e-06
-0.000343943
5.6461e-06
-0.000344933
3.04456e-06
-0.000345269
4.53312e-07
-0.000344894
-2.17661e-06
-0.000343741
-4.89983e-06
-0.000341844
-7.64059e-06
-0.000339219
-1.03998e-05
-0.000335879
-1.31706e-05
-0.000331824
-1.59432e-05
-0.000327045
-1.87072e-05
-0.00032152
-2.14593e-05
-0.000315235
-2.41931e-05
-0.000308187
-2.69122e-05
-0.000300399
-2.96199e-05
-0.000291902
-3.23201e-05
-0.000282735
-3.50092e-05
-0.000272935
-3.76725e-05
-0.000262526
-4.02987e-05
-0.000251519
-4.28717e-05
-0.00023993
-4.53748e-05
-0.000227768
-4.77961e-05
-0.000215045
-5.01316e-05
-0.000201778
-5.23702e-05
-0.000187986
-5.45099e-05
-0.000173694
-5.65457e-05
-0.000158923
-5.84753e-05
-0.000143696
-6.02945e-05
-0.000128039
-6.20035e-05
-0.000111988
-6.35905e-05
-9.55595e-05
-6.5065e-05
-7.87932e-05
-6.64161e-05
-6.17119e-05
-6.76496e-05
-4.43458e-05
-6.8759e-05
-2.67277e-05
-6.97468e-05
-8.88811e-06
-7.06086e-05
9.14504e-06
-7.1349e-05
2.73339e-05
-7.19595e-05
4.56546e-05
-7.24494e-05
6.40649e-05
-7.28097e-05
8.25397e-05
-7.30493e-05
0.000101038
-7.31626e-05
0.000119533
-7.31561e-05
0.000137995
-7.30281e-05
0.000156374
-7.27671e-05
0.000174651
-7.23874e-05
0.000192796
-7.18774e-05
0.000210769
-7.12318e-05
0.000228552
-7.04603e-05
0.000246123
-6.95519e-05
0.000263447
-6.85055e-05
0.000280509
-6.7323e-05
0.000297284
-6.59911e-05
0.000313761
-6.45399e-05
0.000329901
-6.29171e-05
0.000345692
-6.11711e-05
0.000361136
-5.92923e-05
0.000376195
-5.72739e-05
0.000390887
-5.51288e-05
0.000405198
-5.28476e-05
0.000419117
-5.04456e-05
0.000432661
-4.79473e-05
0.000445802
-4.5341e-05
0.000458551
-4.26779e-05
0.000470857
-3.99806e-05
0.000482675
-3.72748e-05
0.000493941
-3.46136e-05
0.000504569
-3.20127e-05
0.000514459
-2.94858e-05
0.000523509
-2.70325e-05
0.000531645
-2.466e-05
0.00053883
-2.2334e-05
0.000545051
-2.00476e-05
0.000550316
-1.77765e-05
0.000554628
-1.5502e-05
0.000557979
-1.3199e-05
0.00056036
-1.08699e-05
0.000561785
-8.48921e-06
0.000562281
-6.04401e-06
0.000561875
-3.51007e-06
0.000560506
-8.16734e-07
0.000558184
1.91956e-06
0.000555042
4.69375e-06
0.00055108
7.58463e-06
0.000546281
1.05771e-05
0.000540662
1.366e-05
0.00053425
1.68312e-05
0.000527066
2.00989e-05
0.000519128
2.34544e-05
0.00051045
2.68928e-05
0.000501051
3.03967e-05
0.00049093
3.39647e-05
0.000480083
3.75933e-05
0.000468514
4.12535e-05
0.000456214
4.49496e-05
0.000443175
4.86818e-05
0.000429402
5.24236e-05
0.000414879
5.61811e-05
0.000399589
5.99482e-05
0.000383526
6.37067e-05
0.000366661
6.74405e-05
0.000348986
7.11323e-05
0.000330495
7.47624e-05
0.00031117
7.8314e-05
0.000291016
8.17531e-05
0.000270035
8.50601e-05
0.000248245
8.82117e-05
0.000225642
9.1177e-05
0.000202301
9.39126e-05
0.000178233
9.64277e-05
0.000153437
9.88184e-05
0.000127816
0.000101295
0.00010135
0.000103842
7.53465e-05
0.000104139
5.20087e-05
9.77642e-05
3.15256e-05
8.74984e-05
0.000118808
-1.86091e-05
9.37242e-05
-2.64391e-05
4.50078e-05
-3.61812e-05
5.52748e-05
-4.86244e-05
6.72995e-05
-6.18766e-05
7.00425e-05
-7.5101e-05
6.92e-05
-8.81522e-05
6.79871e-05
-0.00010112
6.7187e-05
-0.000114036
6.64478e-05
-0.000126883
6.56141e-05
-0.000139637
6.46298e-05
-0.000152276
6.35089e-05
-0.000164777
6.22633e-05
-0.000177114
6.08922e-05
-0.000189265
5.94012e-05
-0.000201198
5.77822e-05
-0.000212886
5.60455e-05
-0.000224301
5.41917e-05
-0.00023541
5.22188e-05
-0.000246183
5.01381e-05
-0.00025658
4.79409e-05
-0.000266573
4.56395e-05
-0.000276128
4.32318e-05
-0.000285216
4.07256e-05
-0.000293808
3.81235e-05
-0.000301871
3.54241e-05
-0.000309377
3.26373e-05
-0.000316298
2.97678e-05
-0.000322608
2.68215e-05
-0.000328279
2.38022e-05
-0.000333284
2.07137e-05
-0.000337598
1.75607e-05
-0.000341199
1.43496e-05
-0.000344069
1.10854e-05
-0.000346197
7.77367e-06
-0.000347573
4.42061e-06
-0.000348119
9.99192e-07
-0.000347794
-2.50118e-06
-0.000346727
-5.96745e-06
-0.000344893
-9.47473e-06
-0.000342285
-1.30075e-05
-0.000338901
-1.65549e-05
-0.00033474
-2.01035e-05
-0.000329805
-2.36427e-05
-0.000324099
-2.7165e-05
-0.000317628
-3.06641e-05
-0.000310399
-3.41408e-05
-0.000302425
-3.7594e-05
-0.000293734
-4.10111e-05
-0.000284357
-4.43864e-05
-0.000274314
-4.77158e-05
-0.000263629
-5.09832e-05
-0.00025232
-5.41811e-05
-0.000240409
-5.72857e-05
-0.000227917
-6.02878e-05
-0.000214854
-6.31946e-05
-0.000201249
-6.5976e-05
-0.000187117
-6.86413e-05
-0.000172478
-7.11846e-05
-0.00015737
-7.35841e-05
-0.000141804
-7.58605e-05
-0.000125821
-7.79866e-05
-0.00010944
-7.99712e-05
-9.26887e-05
-8.18162e-05
-7.56059e-05
-8.34989e-05
-5.82187e-05
-8.50368e-05
-4.05578e-05
-8.64198e-05
-2.26564e-05
-8.76482e-05
-4.5465e-06
-8.87186e-05
1.37381e-05
-8.96336e-05
3.21652e-05
-9.03866e-05
5.07018e-05
-9.0986e-05
6.93147e-05
-9.14226e-05
8.79697e-05
-9.17043e-05
0.000106634
-9.18268e-05
0.000125269
-9.17916e-05
0.000143844
-9.16022e-05
0.000162328
-9.12517e-05
0.000180686
-9.07452e-05
0.000198887
-9.0078e-05
0.000216905
-8.92498e-05
0.00023471
-8.82655e-05
0.000252274
-8.71163e-05
0.000269575
-8.58062e-05
0.000286582
-8.43301e-05
0.000303297
-8.27062e-05
0.000319662
-8.09046e-05
0.00033571
-7.8965e-05
0.000351407
-7.6868e-05
0.000366718
-7.46039e-05
0.000381642
-7.21973e-05
0.000396163
-6.96503e-05
0.000410271
-6.69559e-05
0.000423966
-6.41407e-05
0.000437234
-6.12147e-05
0.000450068
-5.81749e-05
0.000462448
-5.50579e-05
0.00047436
-5.18927e-05
0.000485764
-4.86788e-05
0.000496612
-4.5462e-05
0.000506837
-4.22373e-05
0.000516391
-3.90399e-05
0.000525221
-3.58627e-05
0.000533267
-3.27064e-05
0.000540492
-2.95591e-05
0.000546849
-2.64038e-05
0.000552298
-2.32261e-05
0.000556812
-2.00154e-05
0.000560366
-1.67537e-05
0.000562925
-1.34283e-05
0.000564467
-1.0031e-05
0.000564971
-6.54792e-06
0.00056445
-2.98909e-06
0.000563106
5.26618e-07
0.000560678
4.3475e-06
0.000557179
8.19264e-06
0.000552658
1.2106e-05
0.000547131
1.61042e-05
0.000540616
2.01745e-05
0.000533139
2.43089e-05
0.000524724
2.85134e-05
0.000515388
3.27904e-05
0.000505168
3.71133e-05
0.000494082
4.14821e-05
0.000482164
4.58831e-05
0.000469442
5.03156e-05
0.000455928
5.47672e-05
0.000441671
5.92065e-05
0.000426705
6.36478e-05
0.000411047
6.80816e-05
0.000394724
7.25041e-05
0.000377786
7.6886e-05
0.000360248
8.12445e-05
0.000342152
8.55369e-05
0.000323514
8.97706e-05
0.00030436
9.39164e-05
0.000284719
9.79545e-05
0.000264603
0.000101869
0.000244028
0.000105635
0.000223019
0.00010922
0.000201604
0.000112592
0.0001798
0.000115717
0.000157645
0.000118582
0.000135125
0.000121339
0.000112146
0.000124274
8.88649e-05
0.000127123
6.6423e-05
0.000126581
4.66283e-05
0.000117559
2.86644e-05
0.000105462
0.000147472
-1.87987e-05
0.000112523
-2.68327e-05
5.30418e-05
-3.68585e-05
6.53006e-05
-4.95644e-05
8.00053e-05
-6.30784e-05
8.35566e-05
-7.65724e-05
8.26939e-05
-8.99229e-05
8.13376e-05
-0.000103202
8.04657e-05
-0.000116443
7.96894e-05
-0.000129626
7.87967e-05
-0.000142727
7.77315e-05
-0.000155722
7.65036e-05
-0.000168578
7.51192e-05
-0.000181273
7.35873e-05
-0.000193775
7.19026e-05
-0.000206057
7.00646e-05
-0.000218086
6.80747e-05
-0.000229829
6.59349e-05
-0.000241253
6.36423e-05
-0.00025232
6.12051e-05
-0.000263001
5.86222e-05
-0.000273259
5.58974e-05
-0.000283064
5.30368e-05
-0.00029238
5.00411e-05
-0.000301173
4.69166e-05
-0.000309419
4.36706e-05
-0.000317088
4.03056e-05
-0.000324149
3.68289e-05
-0.000330571
3.32436e-05
-0.000336328
2.95597e-05
-0.000341399
2.57838e-05
-0.000345757
2.19189e-05
-0.000349383
1.7976e-05
-0.000352257
1.39592e-05
-0.000354358
9.87452e-06
-0.000355662
5.72521e-06
-0.000356188
1.52525e-06
-0.000356024
-2.66513e-06
-0.000355026
-6.96561e-06
-0.000353216
-1.12852e-05
-0.000350599
-1.56245e-05
-0.000347184
-1.99695e-05
-0.000342974
-2.43139e-05
-0.000337972
-2.86446e-05
-0.000332182
-3.29555e-05
-0.000325609
-3.72365e-05
-0.000318267
-4.14826e-05
-0.000310175
-4.56867e-05
-0.000301347
-4.98387e-05
-0.000291805
-5.39283e-05
-0.000281575
-5.79457e-05
-0.000270682
-6.18769e-05
-0.000259146
-6.57165e-05
-0.000246986
-6.94455e-05
-0.000234221
-7.30537e-05
-0.00022088
-7.65352e-05
-0.000206976
-7.98795e-05
-0.00019254
-8.30776e-05
-0.0001776
-8.61247e-05
-0.000162171
-8.9013e-05
-0.000146294
-9.17375e-05
-0.000129989
-9.42911e-05
-0.000113289
-9.66712e-05
-9.62305e-05
-9.8875e-05
-7.88314e-05
-0.000100898
-6.11331e-05
-0.000102735
-4.31644e-05
-0.000104389
-2.49612e-05
-0.000105851
-6.55384e-06
-0.000107126
1.20226e-05
-0.00010821
3.07361e-05
-0.0001091
4.95526e-05
-0.000109802
6.84385e-05
-0.000110309
8.73633e-05
-0.000110629
0.000106292
-0.000110755
0.000125192
-0.000110692
0.000144029
-0.000110439
0.000162774
-0.000109998
0.000181407
-0.000109378
0.000199874
-0.000108545
0.000218165
-0.00010754
0.000236248
-0.000106349
0.000254101
-0.000104969
0.000271703
-0.000103408
0.000289033
-0.00010166
0.000306063
-9.97361e-05
0.000322767
-9.76085e-05
0.000339134
-9.53319e-05
0.000355151
-9.28849e-05
0.0003708
-9.02527e-05
0.000386067
-8.74643e-05
0.000400931
-8.45147e-05
0.000415395
-8.14202e-05
0.000429436
-7.81811e-05
0.000443036
-7.48154e-05
0.000456176
-7.13148e-05
0.000468849
-6.77307e-05
0.000481016
-6.40593e-05
0.000492649
-6.03116e-05
0.0005037
-5.65134e-05
0.000514122
-5.26589e-05
0.000523866
-4.87845e-05
0.000532881
-4.48772e-05
0.000541109
-4.09347e-05
0.000548505
-3.69556e-05
0.000555036
-3.29339e-05
0.000560668
-2.88583e-05
0.000565377
-2.47245e-05
0.000569145
-2.05222e-05
0.000571961
-1.62441e-05
0.000573814
-1.18839e-05
0.000574711
-7.44525e-06
0.000574624
-2.90233e-06
0.000573333
1.81793e-06
0.000571169
6.51115e-06
0.000568028
1.13346e-05
0.000563874
1.62601e-05
0.000558711
2.1267e-05
0.000552533
2.63518e-05
0.000545335
3.15073e-05
0.000537119
3.67294e-05
0.00052791
4.19995e-05
0.000517717
4.73065e-05
0.000506547
5.26517e-05
0.000494436
5.79947e-05
0.000481397
6.33538e-05
0.000467471
6.8694e-05
0.000452666
7.40108e-05
0.000437023
7.92913e-05
0.000420582
8.45223e-05
0.000403402
8.96835e-05
0.000385508
9.47803e-05
0.000366972
9.97807e-05
0.000347826
0.000104683
0.000328131
0.000109465
0.000307935
0.000114112
0.000287284
0.000118606
0.000266231
0.000122923
0.000244819
0.000127046
0.000223088
0.000130952
0.000201073
0.000134607
0.000178828
0.000137962
0.000156392
0.000141019
0.000133775
0.000143955
0.000110928
0.00014712
8.79807e-05
0.000150071
6.57642e-05
0.000148798
4.58606e-05
0.000137463
2.7728e-05
0.000123595
0.0001752
-1.90752e-05
0.000131598
-2.73374e-05
6.1304e-05
-3.76107e-05
7.55738e-05
-5.06701e-05
9.30647e-05
-6.46053e-05
9.74917e-05
-7.85035e-05
9.65922e-05
-9.22481e-05
9.50822e-05
-0.000105912
9.41297e-05
-0.000119534
9.33117e-05
-0.000133103
9.23654e-05
-0.000146579
9.12076e-05
-0.000159938
8.98628e-05
-0.000173156
8.83371e-05
-0.000186201
8.66319e-05
-0.000199041
8.47429e-05
-0.000211646
8.26697e-05
-0.000223982
8.04106e-05
-0.000236016
7.79688e-05
-0.000247714
7.534e-05
-0.00025904
7.25317e-05
-0.000269963
6.95447e-05
-0.000280447
6.63819e-05
-0.000290459
6.30486e-05
-0.000299967
5.95491e-05
-0.000308941
5.58903e-05
-0.000317349
5.20785e-05
-0.000325158
4.81154e-05
-0.000332343
4.40139e-05
-0.00033888
3.97805e-05
-0.000344743
3.54222e-05
-0.000349906
3.09469e-05
-0.000354351
2.63635e-05
-0.000358055
2.16802e-05
-0.000361003
1.69072e-05
-0.000363181
1.20532e-05
-0.000364586
7.12992e-06
-0.00036521
2.14897e-06
-0.000364962
-2.91254e-06
-0.000363933
-7.99513e-06
-0.000362108
-1.31103e-05
-0.000359472
-1.82601e-05
-0.000356033
-2.34086e-05
-0.000351784
-2.85635e-05
-0.000346735
-3.36933e-05
-0.000340888
-3.88026e-05
-0.000334253
-4.38714e-05
-0.000326839
-4.88961e-05
-0.000318664
-5.38625e-05
-0.000309743
-5.87592e-05
-0.000300095
-6.3576e-05
-0.000289739
-6.83015e-05
-0.000278695
-7.29213e-05
-0.000266984
-7.74281e-05
-0.00025463
-8.17988e-05
-0.000241659
-8.60251e-05
-0.000228088
-9.01065e-05
-0.000213937
-9.40298e-05
-0.000199242
-9.7773e-05
-0.000184027
-0.00010134
-0.000168315
-0.000104725
-0.000152141
-0.000107911
-0.000135531
-0.000110901
-0.000118515
-0.000113687
-0.000101129
-0.000116261
-8.33964e-05
-0.000118631
-6.53628e-05
-0.000120769
-4.70481e-05
-0.000122703
-2.84993e-05
-0.0001244
-9.7415e-06
-0.000125884
9.18815e-06
-0.00012714
2.82631e-05
-0.000128175
4.74436e-05
-0.000128983
6.66938e-05
-0.000129559
8.59835e-05
-0.000129919
0.000105279
-0.00013005
0.00012455
-0.000129963
0.000143764
-0.000129653
0.000162888
-0.000129121
0.000181885
-0.000128375
0.000200753
-0.000127412
0.000219442
-0.000126229
0.000237929
-0.000124836
0.000256188
-0.000123228
0.000274187
-0.000121407
0.000291915
-0.000119389
0.000309329
-0.00011715
0.000326453
-0.000114733
0.000343229
-0.000112107
0.000359632
-0.000109288
0.000375674
-0.000106294
0.000391314
-0.000103104
0.000406538
-9.97392e-05
0.000421338
-9.62204e-05
0.000435685
-9.25279e-05
0.000449555
-8.86851e-05
0.000462954
-8.47139e-05
0.000475835
-8.06115e-05
0.000488166
-7.63901e-05
0.000499925
-7.20707e-05
0.000511072
-6.76604e-05
0.000521576
-6.31635e-05
0.000531389
-5.85969e-05
0.000540473
-5.39619e-05
0.000548792
-4.92531e-05
0.000556311
-4.44744e-05
0.000562996
-3.96195e-05
0.000568818
-3.46796e-05
0.000573748
-2.9655e-05
0.000577761
-2.45352e-05
0.000580835
-1.93183e-05
0.000582951
-1.39993e-05
0.000584081
-8.57572e-06
0.000584217
-3.0386e-06
0.000583481
2.55472e-06
0.000581683
8.30874e-06
0.000578877
1.41402e-05
0.000575064
2.00734e-05
0.000570245
2.60859e-05
0.000564414
3.21826e-05
0.000557568
3.83536e-05
0.000549714
4.45832e-05
0.000540862
5.08518e-05
0.000531008
5.71609e-05
0.000520167
6.34927e-05
0.000508338
6.98233e-05
0.000495546
7.61463e-05
0.000481804
8.24358e-05
0.00046713
8.86844e-05
0.000451568
9.48536e-05
0.000435124
0.000100966
0.00041784
0.000106967
0.000399777
0.000112843
0.00038096
0.000118598
0.000361447
0.000124196
0.00034129
0.000129622
0.000320526
0.000134877
0.00029924
0.000139892
0.000277468
0.000144694
0.00025527
0.000149244
0.000232697
0.000153525
0.000209807
0.000157497
0.00018665
0.000161119
0.000163268
0.0001644
0.000139718
0.000167505
0.00011597
0.000170869
9.20709e-05
0.00017397
6.86005e-05
0.000172268
4.72189e-05
0.000158844
2.79856e-05
0.000142828
0.000203186
-1.94214e-05
0.00015102
-2.77508e-05
6.96333e-05
-3.8062e-05
8.58851e-05
-5.13404e-05
0.000106343
-6.56134e-05
0.000111765
-7.98736e-05
0.000110852
-9.39595e-05
0.000109168
-0.000107968
0.000108139
-0.000121932
0.000107275
-0.000135837
0.000106271
-0.000149667
0.000105037
-0.00016338
0.000103576
-0.00017695
0.000101907
-0.000190343
0.000100025
-0.000203529
9.79292e-05
-0.000216475
9.5616e-05
-0.000229148
9.30835e-05
-0.000241511
9.03315e-05
-0.000253532
8.73606e-05
-0.000265174
8.41737e-05
-0.000276401
8.0772e-05
-0.000287181
7.71617e-05
-0.000297478
7.33465e-05
-0.000307261
6.93319e-05
-0.0003165
6.51286e-05
-0.000325155
6.07343e-05
-0.000333207
5.61671e-05
-0.000340619
5.14258e-05
-0.000347368
4.65298e-05
-0.000353427
4.14812e-05
-0.000358774
3.6293e-05
-0.000363384
3.09742e-05
-0.000367241
2.55371e-05
-0.000370326
1.99916e-05
-0.000372622
1.43495e-05
-0.000374112
8.62045e-06
-0.000374781
2.81716e-06
-0.000374676
-3.01668e-06
-0.000373726
-8.9455e-06
-0.000371939
-1.48975e-05
-0.000369326
-2.08726e-05
-0.000365881
-2.68539e-05
-0.000361615
-3.28297e-05
-0.000356522
-3.87862e-05
-0.000350614
-4.47105e-05
-0.000343896
-5.05893e-05
-0.000336382
-5.64102e-05
-0.000328084
-6.21607e-05
-0.000319017
-6.78264e-05
-0.000309201
-7.3392e-05
-0.000298655
-7.88468e-05
-0.000287402
-8.41744e-05
-0.000275469
-8.93608e-05
-0.000262868
-9.44002e-05
-0.00024962
-9.92731e-05
-0.000235754
-0.000103972
-0.000221305
-0.000108478
-0.000206287
-0.000112791
-0.00019073
-0.000116896
-0.00017467
-0.000120785
-0.000158132
-0.00012445
-0.000141146
-0.000127887
-0.000123746
-0.000131086
-0.000105966
-0.000134042
-8.78401e-05
-0.000136756
-6.93965e-05
-0.000139212
-5.06764e-05
-0.000141423
-3.17072e-05
-0.000143369
-1.25232e-05
-0.000145068
6.83399e-06
-0.000146497
2.63321e-05
-0.000147673
4.59345e-05
-0.000148585
6.56215e-05
-0.000149246
8.53459e-05
-0.000149643
0.000105076
-0.00014978
0.00012478
-0.000149667
0.000144425
-0.000149299
0.000163982
-0.000148678
0.000183421
-0.000147815
0.000202705
-0.000146697
0.000221815
-0.000145339
0.000240721
-0.000143742
0.000259391
-0.000141898
0.000277804
-0.00013982
0.000295934
-0.000137519
0.000313776
-0.000134993
0.00033128
-0.000132237
0.000348437
-0.000129264
0.000365224
-0.000126075
0.000381621
-0.000122691
0.000397611
-0.000119094
0.000413172
-0.0001153
0.000428277
-0.000111325
0.000442916
-0.000107167
0.00045706
-0.00010283
0.000470702
-9.83555e-05
0.000483803
-9.37129e-05
0.000496338
-8.89248e-05
0.000508276
-8.40092e-05
0.000519581
-7.89649e-05
0.000530242
-7.38245e-05
0.000540202
-6.85574e-05
0.000549425
-6.31846e-05
0.000557875
-5.77031e-05
0.000565521
-5.21207e-05
0.000572336
-4.64339e-05
0.000578287
-4.06312e-05
0.000583353
-3.47208e-05
0.000587513
-2.86951e-05
0.000590748
-2.25534e-05
0.00059305
-1.63016e-05
0.0005944
-9.92536e-06
0.000594793
-3.43148e-06
0.000594142
3.2053e-06
0.000592534
9.91723e-06
0.000589929
1.67452e-05
0.000586322
2.36805e-05
0.000581708
3.06995e-05
0.000576077
3.78134e-05
0.000569435
4.49962e-05
0.000561786
5.22315e-05
0.000553113
5.95253e-05
0.000543446
6.68272e-05
0.000532764
7.41749e-05
0.000521102
8.14853e-05
0.00050846
8.87891e-05
0.000494852
9.60436e-05
0.000480303
0.000103233
0.000464805
0.000110352