/*--------------------------------*- C++ -*----------------------------------*\
| =========                 |                                                 |
| \\      /  F ield         | OpenFOAM: The Open Source CFD Toolbox           |
|  \\    /   O peration     | Version:  v2006                                 |
|   \\  /    A nd           | Website:  www.openfoam.com                      |
|    \\/     M anipulation  |                                                 |
\*---------------------------------------------------------------------------*/
FoamFile
{
    version     2.0;
    format      ascii;
    class       volVectorField;
    location    "10";
    object      U;
}
// * * * * * * * * * * * * * * * * * * * * * * * * * * * * * * * * * * * * * //

dimensions      [0 1 -1 0 0 0 0];


internalField   nonuniform List<vector> 
50000
(
(-0.00120819 0.000559027 0)
(-0.00186457 -0.000768289 0)
(-0.0017818 -0.000616363 0)
(-0.00280238 -0.000379427 0)
(-0.00335666 -0.000294337 0)
(-0.00431074 -0.000275948 0)
(-0.00500696 -0.000270788 0)
(-0.00582945 -0.000264696 0)
(-0.00659374 -0.00024949 0)
(-0.00736895 -0.000236014 0)
(-0.00813816 -0.000220639 0)
(-0.00889615 -0.000205931 0)
(-0.00964549 -0.00019061 0)
(-0.0103841 -0.000174403 0)
(-0.0111103 -0.000157004 0)
(-0.0118231 -0.000137529 0)
(-0.0125222 -0.000115965 0)
(-0.0132073 -9.23032e-05 0)
(-0.0138784 -6.60732e-05 0)
(-0.0145352 -3.76385e-05 0)
(-0.0151773 -7.29043e-06 0)
(-0.0158047 2.5434e-05 0)
(-0.0164179 6.07643e-05 0)
(-0.017018 9.83235e-05 0)
(-0.0176054 0.000137363 0)
(-0.0181803 0.000178169 0)
(-0.0187434 0.000222643 0)
(-0.0192963 0.000271939 0)
(-0.0198405 0.000327206 0)
(-0.0203773 0.00038917 0)
(-0.0209106 0.00045816 0)
(-0.0214435 0.000534672 0)
(-0.0219783 0.000616913 0)
(-0.0225157 0.000700142 0)
(-0.0230538 0.000777524 0)
(-0.0235866 0.000842895 0)
(-0.0241044 0.000892038 0)
(-0.0245953 0.000923303 0)
(-0.0250473 0.00093545 0)
(-0.0254505 0.000932454 0)
(-0.0257976 0.000920326 0)
(-0.0260857 0.000904837 0)
(-0.0263179 0.000889937 0)
(-0.026495 0.00087531 0)
(-0.0266149 0.000850722 0)
(-0.0266682 0.000799382 0)
(-0.0266324 0.00070833 0)
(-0.0264884 0.000575582 0)
(-0.0262112 0.000408657 0)
(-0.0257862 0.000224367 0)
(-0.0252117 4.21083e-05 0)
(-0.0244954 -0.000124533 0)
(-0.0236499 -0.000271503 0)
(-0.0226874 -0.000401513 0)
(-0.0216172 -0.000519936 0)
(-0.020446 -0.00063088 0)
(-0.0191792 -0.000736071 0)
(-0.0178215 -0.00083594 0)
(-0.0163782 -0.000930286 0)
(-0.0148543 -0.00101873 0)
(-0.0132547 -0.00110114 0)
(-0.0115846 -0.00117758 0)
(-0.00984927 -0.00124821 0)
(-0.00805387 -0.00131307 0)
(-0.00620349 -0.00137205 0)
(-0.00430342 -0.00142517 0)
(-0.00235907 -0.0014724 0)
(-0.000375634 -0.00151357 0)
(0.0016417 -0.00154872 0)
(0.00368759 -0.00157798 0)
(0.00575676 -0.00160139 0)
(0.00784408 -0.00161899 0)
(0.00994459 -0.00163083 0)
(0.0120533 -0.00163706 0)
(0.0141648 -0.00163708 0)
(0.0162743 -0.00163083 0)
(0.0183779 -0.00161754 0)
(0.0204667 -0.00159777 0)
(0.022536 -0.00156882 0)
(0.0245814 -0.0015308 0)
(0.0265934 -0.00148423 0)
(0.0285646 -0.00142843 0)
(0.0304878 -0.00136337 0)
(0.0323567 -0.00128934 0)
(0.0341659 -0.00120679 0)
(0.0359031 -0.00111737 0)
(0.0375577 -0.0010175 0)
(0.0391287 -0.00090761 0)
(0.0406063 -0.000788291 0)
(0.0419795 -0.000659155 0)
(0.0432387 -0.000515529 0)
(0.0443746 -0.000360731 0)
(0.0453773 -0.000192967 0)
(0.0462289 -7.81368e-06 0)
(0.0469152 0.000203865 0)
(0.0474248 0.000452675 0)
(0.0477237 0.000744054 0)
(0.047784 0.00107498 0)
(0.0475886 0.00140435 0)
(0.0471493 0.00169462 0)
(0.046518 0.00191285 0)
(0.0457439 0.00205852 0)
(0.0448805 0.00214715 0)
(0.0439611 0.0021903 0)
(0.0430091 0.00220535 0)
(0.0420567 0.0021986 0)
(0.0411204 0.00217027 0)
(0.0401981 0.00211647 0)
(0.0392964 0.00203808 0)
(0.0384354 0.00193242 0)
(0.0376313 0.00177936 0)
(0.0368963 0.00157328 0)
(0.0362459 0.0013436 0)
(0.0356875 0.00112744 0)
(0.0351987 0.000943255 0)
(0.0347526 0.000793002 0)
(0.0343277 0.000667471 0)
(0.0339113 0.000563859 0)
(0.0334793 0.000475147 0)
(0.0330113 0.000403155 0)
(0.032511 0.000341899 0)
(0.0319674 0.000287683 0)
(0.0313715 0.000236022 0)
(0.0307272 0.000187975 0)
(0.0300294 0.000140203 0)
(0.0292745 9.68737e-05 0)
(0.0284691 5.51212e-05 0)
(0.0276148 1.6252e-05 0)
(0.0267089 -2.3647e-05 0)
(0.0257499 -6.02403e-05 0)
(0.0247479 -9.51873e-05 0)
(0.0237014 -0.000129697 0)
(0.0226129 -0.000161796 0)
(0.0214879 -0.000191 0)
(0.0203268 -0.000217836 0)
(0.0191306 -0.000242832 0)
(0.0179045 -0.000265558 0)
(0.0166506 -0.000286262 0)
(0.0153716 -0.000307179 0)
(0.0140733 -0.000329677 0)
(0.0127599 -0.000355911 0)
(0.0114344 -0.000383714 0)
(0.010103 -0.000411852 0)
(0.00877158 -0.000448318 0)
(0.00742089 -0.00050156 0)
(0.00617896 -0.00060233 0)
(0.00477677 -0.000682423 0)
(0.00371362 -0.000697827 0)
(0.00234873 -0.000423795 0)
(0.0013199 0.000165659 0)
(-0.00132732 0.00372711 0)
(-0.00342159 0.00155102 0)
(-0.00452365 0.00209311 0)
(-0.00696956 0.00247177 0)
(-0.00870328 0.00253651 0)
(-0.0109512 0.0025098 0)
(-0.0128001 0.00248708 0)
(-0.0148386 0.00246272 0)
(-0.0167373 0.00243827 0)
(-0.0186515 0.00240707 0)
(-0.0205166 0.00237077 0)
(-0.0223406 0.00232921 0)
(-0.024122 0.00228267 0)
(-0.025854 0.00223183 0)
(-0.0275326 0.00217681 0)
(-0.0291549 0.00211778 0)
(-0.0307162 0.00205512 0)
(-0.0322124 0.00198937 0)
(-0.0336407 0.0019211 0)
(-0.034997 0.00185015 0)
(-0.0362782 0.00177616 0)
(-0.037482 0.00170027 0)
(-0.0386049 0.00162405 0)
(-0.0396432 0.00154678 0)
(-0.0405949 0.00146791 0)
(-0.0414566 0.00138792 0)
(-0.0422248 0.00130733 0)
(-0.0428959 0.00122681 0)
(-0.0434661 0.00114718 0)
(-0.0439314 0.00106883 0)
(-0.0442872 0.000991543 0)
(-0.0445292 0.000915085 0)
(-0.0446543 0.000838095 0)
(-0.0446606 0.000757829 0)
(-0.0445493 0.000670645 0)
(-0.0443246 0.000573341 0)
(-0.043993 0.000463093 0)
(-0.0435651 0.000340609 0)
(-0.0430458 0.000209403 0)
(-0.0424347 7.1395e-05 0)
(-0.0417337 -6.91705e-05 0)
(-0.0409437 -0.000208224 0)
(-0.0400651 -0.00034377 0)
(-0.0390994 -0.000478094 0)
(-0.0380517 -0.000619735 0)
(-0.0369353 -0.000778422 0)
(-0.0357692 -0.000959446 0)
(-0.0345658 -0.00116179 0)
(-0.033341 -0.00137883 0)
(-0.0321014 -0.00160025 0)
(-0.0308449 -0.0018159 0)
(-0.0295641 -0.00201982 0)
(-0.0282511 -0.00221072 0)
(-0.0269006 -0.00238985 0)
(-0.02551 -0.002559 0)
(-0.0240791 -0.00271939 0)
(-0.0226094 -0.00287168 0)
(-0.0211029 -0.00301611 0)
(-0.0195609 -0.00315243 0)
(-0.0179848 -0.00328046 0)
(-0.0163764 -0.00340045 0)
(-0.0147375 -0.00351248 0)
(-0.0130702 -0.00361623 0)
(-0.0113759 -0.0037116 0)
(-0.00965627 -0.00379855 0)
(-0.00791366 -0.00387696 0)
(-0.00614996 -0.00394677 0)
(-0.00436705 -0.00400787 0)
(-0.00256703 -0.00406014 0)
(-0.000751978 -0.00410376 0)
(0.00107605 -0.00413886 0)
(0.00291494 -0.00416541 0)
(0.00476244 -0.0041836 0)
(0.00661689 -0.00419351 0)
(0.00847568 -0.004195 0)
(0.0103368 -0.004188 0)
(0.0121993 -0.0041721 0)
(0.0140612 -0.00414767 0)
(0.0159221 -0.00411208 0)
(0.0177794 -0.00406626 0)
(0.0196313 -0.00401 0)
(0.0214769 -0.00394161 0)
(0.0233136 -0.00386139 0)
(0.0251395 -0.00376798 0)
(0.026952 -0.00366317 0)
(0.0287484 -0.00354746 0)
(0.0305244 -0.00341743 0)
(0.0322785 -0.0032727 0)
(0.034008 -0.00311461 0)
(0.0357149 -0.00294181 0)
(0.0373907 -0.00275199 0)
(0.0390307 -0.00254656 0)
(0.0406415 -0.00232465 0)
(0.0422196 -0.00208409 0)
(0.0437653 -0.00182005 0)
(0.0452861 -0.00152895 0)
(0.0467969 -0.00121159 0)
(0.0483139 -0.000869973 0)
(0.0498597 -0.000530692 0)
(0.0514283 -0.000220909 0)
(0.0530045 3.27613e-05 0)
(0.0545828 0.000217234 0)
(0.0561518 0.000335421 0)
(0.0576992 0.000398132 0)
(0.0592186 0.000420801 0)
(0.0607064 0.00042178 0)
(0.0621589 0.000409939 0)
(0.0635636 0.000388633 0)
(0.0649088 0.000366197 0)
(0.06618 0.00034792 0)
(0.067358 0.00032826 0)
(0.0684191 0.00030456 0)
(0.0693301 0.000284921 0)
(0.070077 0.000282808 0)
(0.0706631 0.000310019 0)
(0.0710926 0.000373277 0)
(0.0713706 0.000469453 0)
(0.0715052 0.000594236 0)
(0.0714984 0.000739087 0)
(0.0713457 0.000902079 0)
(0.071046 0.00107986 0)
(0.0705961 0.0012662 0)
(0.0699902 0.00145656 0)
(0.0692284 0.00165146 0)
(0.0683114 0.00184489 0)
(0.0672365 0.0020354 0)
(0.0660036 0.00222277 0)
(0.0646128 0.00240719 0)
(0.0630642 0.00258551 0)
(0.0613586 0.00275818 0)
(0.0594982 0.0029245 0)
(0.0574845 0.00308178 0)
(0.0553192 0.00322981 0)
(0.0530085 0.00336823 0)
(0.0505584 0.00349561 0)
(0.0479698 0.00361369 0)
(0.0452511 0.00372281 0)
(0.0424112 0.00382154 0)
(0.0394541 0.00390884 0)
(0.0363879 0.00398595 0)
(0.0332205 0.00405185 0)
(0.0299634 0.00410638 0)
(0.02661 0.00415194 0)
(0.0232121 0.00418355 0)
(0.0196571 0.00421776 0)
(0.0161961 0.00422635 0)
(0.0123053 0.00423693 0)
(0.00886817 0.0040349 0)
(0.00504408 0.0038797 0)
(0.00261519 0.00493222 0)
(-0.00131534 0.0069915 0)
(-0.00314158 0.00358607 0)
(-0.00385359 0.00441049 0)
(-0.00596151 0.00516934 0)
(-0.00748454 0.00529239 0)
(-0.00949518 0.0052123 0)
(-0.0111219 0.00512612 0)
(-0.0129093 0.0050627 0)
(-0.0145721 0.00499168 0)
(-0.0162471 0.00491339 0)
(-0.0178832 0.00482153 0)
(-0.0194814 0.00471931 0)
(-0.021043 0.00460671 0)
(-0.0225631 0.00448419 0)
(-0.0240379 0.0043523 0)
(-0.025465 0.00421132 0)
(-0.0268416 0.00406197 0)
(-0.0281647 0.00390451 0)
(-0.0294313 0.0037397 0)
(-0.0306393 0.00356847 0)
(-0.0317863 0.00339091 0)
(-0.0328696 0.00320724 0)
(-0.0338867 0.00301828 0)
(-0.0348357 0.00282442 0)
(-0.035714 0.00262539 0)
(-0.0365202 0.00242068 0)
(-0.0372532 0.00221004 0)
(-0.0379112 0.00199389 0)
(-0.0384926 0.00177235 0)
(-0.0389966 0.00154567 0)
(-0.0394216 0.0013145 0)
(-0.0397661 0.00107961 0)
(-0.0400288 0.000842707 0)
(-0.0402092 0.000606052 0)
(-0.0403074 0.000370952 0)
(-0.0403238 0.000137395 0)
(-0.0402563 -9.55374e-05 0)
(-0.0401028 -0.000333565 0)
(-0.0398698 -0.000578285 0)
(-0.0395638 -0.000830164 0)
(-0.0391842 -0.00108818 0)
(-0.038729 -0.00134879 0)
(-0.0381951 -0.00160672 0)
(-0.0375796 -0.00185639 0)
(-0.0368817 -0.00209379 0)
(-0.0361041 -0.00231894 0)
(-0.0352529 -0.00253777 0)
(-0.0343349 -0.0027594 0)
(-0.033357 -0.00298961 0)
(-0.0323232 -0.00323003 0)
(-0.0312351 -0.00347809 0)
(-0.0300918 -0.00372867 0)
(-0.0288923 -0.00397605 0)
(-0.0276355 -0.00421601 0)
(-0.0263215 -0.00444634 0)
(-0.0249516 -0.00466645 0)
(-0.0235279 -0.00487638 0)
(-0.022052 -0.00507602 0)
(-0.020526 -0.0052653 0)
(-0.0189524 -0.0054442 0)
(-0.0173341 -0.00561247 0)
(-0.0156728 -0.0057698 0)
(-0.0139712 -0.00591601 0)
(-0.0122322 -0.00605088 0)
(-0.0104586 -0.0061745 0)
(-0.00865301 -0.00628691 0)
(-0.00681828 -0.00638782 0)
(-0.00495684 -0.00647729 0)
(-0.00307171 -0.00655522 0)
(-0.00116595 -0.0066215 0)
(0.000757895 -0.00667613 0)
(0.00269699 -0.00671926 0)
(0.00464837 -0.00675107 0)
(0.00660933 -0.00677174 0)
(0.00857652 -0.00678184 0)
(0.0105471 -0.00678066 0)
(0.0125188 -0.00676885 0)
(0.0144893 -0.00674567 0)
(0.016456 -0.00671082 0)
(0.0184158 -0.00666336 0)
(0.020368 -0.00660209 0)
(0.0223101 -0.00652684 0)
(0.0242401 -0.00643722 0)
(0.0261542 -0.00633261 0)
(0.0280497 -0.00621199 0)
(0.0299265 -0.00607574 0)
(0.0317811 -0.00592371 0)
(0.0336113 -0.00575419 0)
(0.0354148 -0.00556796 0)
(0.0371928 -0.00536375 0)
(0.03894 -0.00514578 0)
(0.040654 -0.00490725 0)
(0.0423386 -0.00465096 0)
(0.043991 -0.00437902 0)
(0.0456114 -0.00409103 0)
(0.0472048 -0.00379286 0)
(0.048777 -0.00349063 0)
(0.0503319 -0.00319782 0)
(0.0518707 -0.00292242 0)
(0.0533855 -0.00267504 0)
(0.0548604 -0.00245866 0)
(0.0562755 -0.00227989 0)
(0.0576177 -0.0021389 0)
(0.0588674 -0.00202606 0)
(0.0600118 -0.00192847 0)
(0.0610472 -0.00183512 0)
(0.061968 -0.00173758 0)
(0.0627759 -0.0016316 0)
(0.0634751 -0.00151494 0)
(0.064062 -0.00138814 0)
(0.0645369 -0.00124307 0)
(0.0649023 -0.00107126 0)
(0.0651536 -0.000867372 0)
(0.0652989 -0.000636634 0)
(0.06535 -0.000388599 0)
(0.0653081 -0.00013217 0)
(0.0651735 0.000136848 0)
(0.0649507 0.000423162 0)
(0.0646442 0.000727709 0)
(0.0642586 0.00105149 0)
(0.0637942 0.0013931 0)
(0.063247 0.00174884 0)
(0.0626166 0.00211715 0)
(0.0618965 0.00249618 0)
(0.0610765 0.00288068 0)
(0.0601546 0.00326703 0)
(0.059127 0.00365751 0)
(0.0579877 0.00404896 0)
(0.0567327 0.00443926 0)
(0.0553574 0.00482863 0)
(0.0538564 0.00521497 0)
(0.0522262 0.00559572 0)
(0.0504615 0.00596897 0)
(0.0485582 0.00633381 0)
(0.046517 0.00668709 0)
(0.0443362 0.00702741 0)
(0.0420137 0.00735432 0)
(0.0395524 0.00766365 0)
(0.0369547 0.00795325 0)
(0.0342236 0.00822101 0)
(0.0313637 0.00846627 0)
(0.0283839 0.0086875 0)
(0.0252812 0.00888486 0)
(0.0221045 0.00906322 0)
(0.0187408 0.00923005 0)
(0.0154377 0.00940625 0)
(0.0116934 0.00951666 0)
(0.00846677 0.00916454 0)
(0.00495501 0.00833235 0)
(0.00285473 0.0105764 0)
(-0.00133563 0.00986398 0)
(-0.00279208 0.00497451 0)
(-0.00321578 0.00608766 0)
(-0.0049519 0.00728139 0)
(-0.0061983 0.0075111 0)
(-0.00791027 0.00739405 0)
(-0.00928281 0.00725262 0)
(-0.0108027 0.00715608 0)
(-0.0122309 0.00705774 0)
(-0.0136728 0.00694967 0)
(-0.0150966 0.00682413 0)
(-0.0164975 0.00668372 0)
(-0.0178782 0.0065299 0)
(-0.0192349 0.00636256 0)
(-0.0205642 0.0061823 0)
(-0.0218642 0.00598956 0)
(-0.0231324 0.00578524 0)
(-0.0243659 0.0055702 0)
(-0.0255618 0.00534488 0)
(-0.026717 0.00510975 0)
(-0.0278285 0.00486573 0)
(-0.0288941 0.00461324 0)
(-0.0299109 0.00435221 0)
(-0.0308754 0.00408346 0)
(-0.0317843 0.00380744 0)
(-0.0326352 0.00352418 0)
(-0.0334257 0.00323465 0)
(-0.0341535 0.00294002 0)
(-0.034816 0.00264088 0)
(-0.035411 0.00233756 0)
(-0.0359369 0.00203076 0)
(-0.0363926 0.00172086 0)
(-0.0367751 0.0014079 0)
(-0.0370816 0.00109142 0)
(-0.0373101 0.000770711 0)
(-0.0374586 0.000444855 0)
(-0.0375303 0.000112893 0)
(-0.0375278 -0.000225438 0)
(-0.0374447 -0.000569138 0)
(-0.0372788 -0.000918374 0)
(-0.0370325 -0.00127256 0)
(-0.0367079 -0.00163061 0)
(-0.0363061 -0.00199141 0)
(-0.0358264 -0.00235373 0)
(-0.0352666 -0.00271659 0)
(-0.0346249 -0.0030795 0)
(-0.0339002 -0.00344194 0)
(-0.0330933 -0.00380359 0)
(-0.0322071 -0.00416431 0)
(-0.0312461 -0.00452353 0)
(-0.0302146 -0.00487995 0)
(-0.0291157 -0.00523169 0)
(-0.0279514 -0.00557603 0)
(-0.0267231 -0.00591066 0)
(-0.025432 -0.00623404 0)
(-0.0240792 -0.00654504 0)
(-0.0226662 -0.00684286 0)
(-0.0211951 -0.00712703 0)
(-0.0196684 -0.00739706 0)
(-0.0180883 -0.00765262 0)
(-0.0164573 -0.00789327 0)
(-0.0147784 -0.00811871 0)
(-0.0130545 -0.00832888 0)
(-0.0112886 -0.00852334 0)
(-0.00948417 -0.00870191 0)
(-0.007644 -0.00886458 0)
(-0.00577124 -0.00901112 0)
(-0.00386951 -0.00914148 0)
(-0.00194194 -0.00925563 0)
(8.1477e-06 -0.00935343 0)
(0.00197719 -0.00943478 0)
(0.00396182 -0.00949979 0)
(0.00595848 -0.00954854 0)
(0.00796354 -0.00958113 0)
(0.00997384 -0.0095978 0)
(0.0119848 -0.00959841 0)
(0.013993 -0.00958325 0)
(0.015995 -0.00955211 0)
(0.0179879 -0.00950479 0)
(0.019968 -0.00944024 0)
(0.0219312 -0.00935862 0)
(0.0238746 -0.00925946 0)
(0.0257956 -0.0091415 0)
(0.0276927 -0.00900594 0)
(0.0295624 -0.00885048 0)
(0.0314014 -0.00867525 0)
(0.0332086 -0.00848173 0)
(0.0349816 -0.00826668 0)
(0.0367176 -0.00803224 0)
(0.0384149 -0.00777874 0)
(0.0400741 -0.00750679 0)
(0.0416927 -0.00721332 0)
(0.0432676 -0.00690039 0)
(0.0448016 -0.00656988 0)
(0.0462938 -0.00622194 0)
(0.0477453 -0.00585813 0)
(0.0491539 -0.00548326 0)
(0.0505143 -0.00510292 0)
(0.0518262 -0.00472245 0)
(0.0530833 -0.0043489 0)
(0.0542763 -0.00398632 0)
(0.0553938 -0.00363747 0)
(0.0564264 -0.00330217 0)
(0.057363 -0.00298287 0)
(0.0581952 -0.00267325 0)
(0.058924 -0.00237421 0)
(0.0595517 -0.00208145 0)
(0.0600731 -0.00179352 0)
(0.0604859 -0.001509 0)
(0.0607957 -0.00122914 0)
(0.0610042 -0.000947602 0)
(0.0611094 -0.000664437 0)
(0.0611114 -0.000375642 0)
(0.0610156 -7.62722e-05 0)
(0.0608181 0.000242722 0)
(0.0605197 0.000576399 0)
(0.0601313 0.000923474 0)
(0.0596545 0.00128549 0)
(0.0590892 0.00166409 0)
(0.0584346 0.00205986 0)
(0.0576932 0.0024729 0)
(0.0568701 0.00290268 0)
(0.0559685 0.00334918 0)
(0.0549871 0.00380777 0)
(0.0539238 0.00427949 0)
(0.0527857 0.00476302 0)
(0.05157 0.00525553 0)
(0.0502702 0.00575415 0)
(0.0488923 0.00626048 0)
(0.0474366 0.00677154 0)
(0.0458992 0.00728572 0)
(0.0442792 0.00780184 0)
(0.0425758 0.00831739 0)
(0.0407872 0.0088304 0)
(0.0389108 0.00933749 0)
(0.0369456 0.00983485 0)
(0.0348909 0.0103212 0)
(0.0327456 0.0107914 0)
(0.03051 0.0112417 0)
(0.0281856 0.0116688 0)
(0.0257727 0.0120688 0)
(0.0232744 0.012439 0)
(0.0206943 0.0127775 0)
(0.018056 0.0130951 0)
(0.0152737 0.0134163 0)
(0.0125463 0.0137542 0)
(0.00944663 0.0138567 0)
(0.00696615 0.0131124 0)
(0.00428247 0.0117264 0)
(0.00263467 0.0155767 0)
(-0.00136958 0.0126722 0)
(-0.00270218 0.00617403 0)
(-0.00308904 0.00756663 0)
(-0.00471791 0.00917137 0)
(-0.00589301 0.00952356 0)
(-0.0075195 0.00939796 0)
(-0.00883926 0.00922655 0)
(-0.0103023 0.00911126 0)
(-0.0116894 0.00900319 0)
(-0.0130923 0.00888199 0)
(-0.0144872 0.00874042 0)
(-0.0158665 0.00858011 0)
(-0.017233 0.00840264 0)
(-0.018584 0.00820867 0)
(-0.0199159 0.00799833 0)
(-0.0212256 0.0077718 0)
(-0.02251 0.00752937 0)
(-0.0237664 0.00727155 0)
(-0.0249919 0.00699863 0)
(-0.0261821 0.00671123 0)
(-0.0273334 0.00640978 0)
(-0.0284427 0.0060945 0)
(-0.029506 0.00576598 0)
(-0.03052 0.00542457 0)
(-0.031482 0.00507051 0)
(-0.0323882 0.00470427 0)
(-0.0332352 0.00432661 0)
(-0.0340199 0.00393801 0)
(-0.0347397 0.00353904 0)
(-0.0353917 0.0031303 0)
(-0.0359727 0.00271231 0)
(-0.0364798 0.00228592 0)
(-0.0369105 0.0018521 0)
(-0.0372626 0.00141129 0)
(-0.0375346 0.000963761 0)
(-0.0377253 0.000510008 0)
(-0.03783 5.04091e-05 0)
(-0.0378422 -0.000411396 0)
(-0.0377665 -0.00087723 0)
(-0.0376086 -0.00134616 0)
(-0.0373669 -0.00181696 0)
(-0.0370408 -0.0022883 0)
(-0.0366304 -0.00275842 0)
(-0.0361359 -0.00322586 0)
(-0.0355575 -0.00368997 0)
(-0.0348956 -0.00415046 0)
(-0.0341506 -0.00460782 0)
(-0.0333238 -0.00506296 0)
(-0.0324177 -0.00551603 0)
(-0.0314349 -0.00596607 0)
(-0.0303786 -0.00641129 0)
(-0.0292514 -0.00684941 0)
(-0.0280555 -0.00727845 0)
(-0.0267932 -0.00769633 0)
(-0.0254665 -0.00810116 0)
(-0.0240771 -0.00849168 0)
(-0.0226274 -0.00886681 0)
(-0.0211193 -0.00922562 0)
(-0.0195551 -0.00956754 0)
(-0.0179377 -0.00989169 0)
(-0.0162701 -0.0101975 0)
(-0.0145551 -0.0104846 0)
(-0.0127954 -0.0107524 0)
(-0.0109941 -0.0110006 0)
(-0.00915481 -0.011229 0)
(-0.00728084 -0.0114368 0)
(-0.00537546 -0.0116239 0)
(-0.00344218 -0.0117902 0)
(-0.00148449 -0.0119356 0)
(0.000493992 -0.0120598 0)
(0.0024897 -0.0121627 0)
(0.00449905 -0.0122444 0)
(0.00651845 -0.012305 0)
(0.00854437 -0.0123444 0)
(0.0105731 -0.0123626 0)
(0.0126005 -0.0123601 0)
(0.0146231 -0.0123361 0)
(0.0166375 -0.012291 0)
(0.0186411 -0.0122245 0)
(0.0206282 -0.0121359 0)
(0.022596 -0.0120258 0)
(0.0245434 -0.0118939 0)
(0.0264659 -0.0117392 0)
(0.0283609 -0.0115619 0)
(0.030227 -0.0113617 0)
(0.0320594 -0.0111394 0)
(0.0338593 -0.0108939 0)
(0.0356235 -0.0106264 0)
(0.0373457 -0.0103373 0)
(0.039029 -0.0100259 0)
(0.0406734 -0.00969342 0)
(0.0422749 -0.00934127 0)
(0.0438305 -0.00896825 0)
(0.0453406 -0.0085777 0)
(0.0468065 -0.00817298 0)
(0.0482258 -0.0077523 0)
(0.0495965 -0.00732453 0)
(0.0509177 -0.00689085 0)
(0.0521859 -0.00645463 0)
(0.0533963 -0.00602105 0)
(0.0545436 -0.00559311 0)
(0.0556204 -0.0051742 0)
(0.0566208 -0.00476448 0)
(0.0575398 -0.00436422 0)
(0.0583708 -0.00396934 0)
(0.0591098 -0.00357666 0)
(0.0597534 -0.00318236 0)
(0.0602962 -0.00278373 0)
(0.0607345 -0.00237547 0)
(0.0610669 -0.00195562 0)
(0.0612912 -0.00152273 0)
(0.0614031 -0.00107381 0)
(0.0614012 -0.000608481 0)
(0.0612994 -0.000126849 0)
(0.0610949 0.000364291 0)
(0.0607727 0.000872421 0)
(0.0603368 0.00139432 0)
(0.0597906 0.00192974 0)
(0.0591357 0.00247546 0)
(0.0583751 0.0030303 0)
(0.0575106 0.00359664 0)
(0.0565454 0.00417331 0)
(0.0554819 0.00475889 0)
(0.0543228 0.00535134 0)
(0.053072 0.00595028 0)
(0.0517326 0.00655473 0)
(0.0503054 0.00716118 0)
(0.0487968 0.00777083 0)
(0.0472094 0.00838306 0)
(0.045542 0.00899528 0)
(0.0438022 0.00960761 0)
(0.0419943 0.0102202 0)
(0.0401202 0.0108302 0)
(0.0381831 0.0114357 0)
(0.0361866 0.012034 0)
(0.0341338 0.0126226 0)
(0.0320253 0.0131981 0)
(0.0298631 0.0137563 0)
(0.0276516 0.0142947 0)
(0.0253913 0.0148088 0)
(0.0230848 0.0152921 0)
(0.0207351 0.0157414 0)
(0.0183443 0.0161541 0)
(0.0159299 0.0165489 0)
(0.013422 0.0169685 0)
(0.0109927 0.0173837 0)
(0.00828584 0.0173693 0)
(0.00618158 0.0161998 0)
(0.0039055 0.0145028 0)
(0.00238718 0.0200467 0)
(-0.00139492 0.0154686 0)
(-0.00272154 0.00734892 0)
(-0.00315515 0.00903744 0)
(-0.00479927 0.0110399 0)
(-0.0060142 0.011511 0)
(-0.00765998 0.0113828 0)
(-0.00901652 0.0111897 0)
(-0.0105096 0.0110636 0)
(-0.0119336 0.0109497 0)
(-0.0133721 0.0108196 0)
(-0.014804 0.0106657 0)
(-0.0162219 0.0104894 0)
(-0.0176274 0.0102922 0)
(-0.0190169 0.0100742 0)
(-0.0203871 0.00983592 0)
(-0.021735 0.00957725 0)
(-0.0230572 0.00929805 0)
(-0.0243503 0.0089985 0)
(-0.0256105 0.00867911 0)
(-0.0268338 0.00834051 0)
(-0.0280168 0.00798284 0)
(-0.0291558 0.00760661 0)
(-0.0302472 0.00721243 0)
(-0.0312874 0.00680079 0)
(-0.0322731 0.00637224 0)
(-0.0332004 0.00592751 0)
(-0.0340661 0.00546757 0)
(-0.0348671 0.00499318 0)
(-0.0356004 0.0045051 0)
(-0.0362628 0.00400433 0)
(-0.0368519 0.00349182 0)
(-0.037365 0.00296843 0)
(-0.0377995 0.00243495 0)
(-0.0381531 0.00189227 0)
(-0.0384237 0.00134137 0)
(-0.038609 0.000783347 0)
(-0.0387084 0.00021915 0)
(-0.0387279 -0.000352922 0)
(-0.0386648 -0.000932494 0)
(-0.0385124 -0.00151788 0)
(-0.0382717 -0.00210771 0)
(-0.0379435 -0.00270003 0)
(-0.0375288 -0.00329306 0)
(-0.0370281 -0.0038852 0)
(-0.0364413 -0.00447528 0)
(-0.0357689 -0.00506195 0)
(-0.0350124 -0.00564418 0)
(-0.0341734 -0.00622098 0)
(-0.0332532 -0.00679117 0)
(-0.032254 -0.00735345 0)
(-0.0311787 -0.00790628 0)
(-0.0300303 -0.00844761 0)
(-0.0288109 -0.00897572 0)
(-0.0275224 -0.00948888 0)
(-0.0261672 -0.00998577 0)
(-0.0247479 -0.0104651 0)
(-0.0232664 -0.0109254 0)
(-0.0217258 -0.0113655 0)
(-0.0201287 -0.0117847 0)
(-0.0184775 -0.0121822 0)
(-0.0167755 -0.0125572 0)
(-0.0150257 -0.0129089 0)
(-0.0132315 -0.0132366 0)
(-0.0113962 -0.0135401 0)
(-0.00952276 -0.0138189 0)
(-0.00761462 -0.0140723 0)
(-0.00567558 -0.0143002 0)
(-0.00370918 -0.0145022 0)
(-0.00171896 -0.0146783 0)
(0.000291677 -0.0148284 0)
(0.00231885 -0.0149521 0)
(0.00435891 -0.0150498 0)
(0.00640844 -0.015121 0)
(0.00846376 -0.015166 0)
(0.0105213 -0.015185 0)
(0.0125775 -0.0151778 0)
(0.0146288 -0.0151443 0)
(0.0166716 -0.0150849 0)
(0.018704 -0.0149996 0)
(0.0207209 -0.0148876 0)
(0.0227183 -0.0147498 0)
(0.0246955 -0.0145859 0)
(0.0266491 -0.0143963 0)
(0.0285768 -0.0141803 0)
(0.030475 -0.0139389 0)
(0.0323422 -0.0136724 0)
(0.0341762 -0.0133775 0)
(0.0359733 -0.0130613 0)
(0.037734 -0.0127207 0)
(0.0394556 -0.0123526 0)
(0.0411358 -0.011963 0)
(0.0427761 -0.0115521 0)
(0.0443707 -0.0111184 0)
(0.0459168 -0.0106643 0)
(0.0474207 -0.0101926 0)
(0.0488758 -0.00970104 0)
(0.0502773 -0.00919695 0)
(0.0516276 -0.00868166 0)
(0.0529223 -0.00815722 0)
(0.0541569 -0.00762761 0)
(0.0553258 -0.00709136 0)
(0.0564228 -0.00655459 0)
(0.0574437 -0.00601603 0)
(0.0583827 -0.00547489 0)
(0.059233 -0.00493039 0)
(0.0599906 -0.00438182 0)
(0.0606534 -0.00382851 0)
(0.0612166 -0.00326968 0)
(0.0616768 -0.0027038 0)
(0.0620339 -0.00212965 0)
(0.0622899 -0.00154629 0)
(0.0624411 -0.000952167 0)
(0.0624826 -0.000345462 0)
(0.0624089 0.000274525 0)
(0.0622255 0.000904065 0)
(0.0619366 0.00154618 0)
(0.0615398 0.00220007 0)
(0.0610338 0.00286703 0)
(0.0604144 0.00354564 0)
(0.0596858 0.00423503 0)
(0.0588487 0.00493412 0)
(0.0579018 0.00564491 0)
(0.0568472 0.00636195 0)
(0.0556859 0.00708425 0)
(0.0544193 0.00781096 0)
(0.0530522 0.00854072 0)
(0.051587 0.00927004 0)
(0.0500244 0.00999845 0)
(0.0483681 0.0107231 0)
(0.0466229 0.0114432 0)
(0.044795 0.0121575 0)
(0.0428881 0.0128644 0)
(0.0409064 0.0135623 0)
(0.0388572 0.0142493 0)
(0.0367455 0.0149228 0)
(0.0345763 0.0155801 0)
(0.0323548 0.0162178 0)
(0.0300874 0.0168342 0)
(0.0277794 0.0174257 0)
(0.0254331 0.0179875 0)
(0.023055 0.0185158 0)
(0.0206493 0.0190035 0)
(0.0182183 0.0194496 0)
(0.0157797 0.0198797 0)
(0.0132793 0.0203417 0)
(0.0108662 0.0207784 0)
(0.00822086 0.0206313 0)
(0.00609749 0.0190903 0)
(0.00383091 0.0171546 0)
(0.00225553 0.0242238 0)
(-0.00142095 0.0183088 0)
(-0.00275848 0.00858257 0)
(-0.00322748 0.0105724 0)
(-0.00489063 0.0129807 0)
(-0.00616179 0.0135746 0)
(-0.00784451 0.0134414 0)
(-0.00925114 0.0132269 0)
(-0.010782 0.0130902 0)
(-0.0122497 0.01297 0)
(-0.0137293 0.012831 0)
(-0.0152024 0.0126647 0)
(-0.0166605 0.0124713 0)
(-0.0181058 0.012253 0)
(-0.0195342 0.01201 0)
(-0.0209417 0.011742 0)
(-0.0223255 0.0114487 0)
(-0.0236821 0.0111301 0)
(-0.0250079 0.0107865 0)
(-0.0262987 0.0104179 0)
(-0.027551 0.0100246 0)
(-0.0287612 0.009607 0)
(-0.0299257 0.0091656 0)
(-0.0310405 0.00870116 0)
(-0.0321023 0.00821441 0)
(-0.033108 0.00770594 0)
(-0.0340536 0.00717679 0)
(-0.0349356 0.00662765 0)
(-0.0357513 0.00605938 0)
(-0.0364979 0.0054731 0)
(-0.0371724 0.00486976 0)
(-0.0377723 0.00425046 0)
(-0.038295 0.00361636 0)
(-0.0387384 0.00296863 0)
(-0.0391002 0.00230828 0)
(-0.0393789 0.00163641 0)
(-0.0395739 0.000954091 0)
(-0.0396845 0.000261773 0)
(-0.0397049 -0.000438512 0)
(-0.0396353 -0.00114281 0)
(-0.0394801 -0.00185027 0)
(-0.0392377 -0.00255994 0)
(-0.0389073 -0.00327039 0)
(-0.038489 -0.00398012 0)
(-0.0379834 -0.00468796 0)
(-0.0373911 -0.00539214 0)
(-0.0367124 -0.00609167 0)
(-0.0359485 -0.0067852 0)
(-0.0351008 -0.00747112 0)
(-0.0341712 -0.00814791 0)
(-0.0331616 -0.00881417 0)
(-0.032074 -0.00946806 0)
(-0.0309102 -0.0101077 0)
(-0.0296728 -0.0107314 0)
(-0.0283645 -0.0113378 0)
(-0.0269878 -0.0119248 0)
(-0.0255445 -0.0124907 0)
(-0.0240372 -0.0130344 0)
(-0.022469 -0.0135548 0)
(-0.0208428 -0.0140501 0)
(-0.0191613 -0.0145197 0)
(-0.0174277 -0.0149627 0)
(-0.0156453 -0.0153781 0)
(-0.0138172 -0.0157651 0)
(-0.0119468 -0.016123 0)
(-0.0100376 -0.0164513 0)
(-0.00809308 -0.0167498 0)
(-0.00611688 -0.0170179 0)
(-0.00411289 -0.0172556 0)
(-0.00208481 -0.0174622 0)
(-3.55815e-05 -0.0176377 0)
(0.0020304 -0.017782 0)
(0.0041096 -0.0178952 0)
(0.00619878 -0.0179766 0)
(0.00829374 -0.0180273 0)
(0.0103912 -0.0180469 0)
(0.012488 -0.0180356 0)
(0.0145798 -0.0179933 0)
(0.0166632 -0.0179203 0)
(0.0187374 -0.0178167 0)
(0.0207961 -0.0176832 0)
(0.0228359 -0.017519 0)
(0.0248562 -0.0173249 0)
(0.0268535 -0.017101 0)
(0.0288244 -0.0168465 0)
(0.0307663 -0.0165646 0)
(0.0326802 -0.016252 0)
(0.0345578 -0.0159115 0)
(0.0363962 -0.0155441 0)
(0.0382024 -0.0151489 0)
(0.0399673 -0.0147268 0)
(0.0416865 -0.0142788 0)
(0.0433656 -0.013806 0)
(0.0449988 -0.0133108 0)
(0.0465805 -0.0127922 0)
(0.048118 -0.0122525 0)
(0.0496024 -0.0116942 0)
(0.0510269 -0.0111193 0)
(0.0523972 -0.0105296 0)
(0.0537069 -0.00992738 0)
(0.0549558 -0.00931578 0)
(0.0561352 -0.00869288 0)
(0.0572376 -0.00806376 0)
(0.0582653 -0.00742778 0)
(0.0592129 -0.00678377 0)
(0.0600745 -0.00613179 0)
(0.0608469 -0.00547052 0)
(0.0615277 -0.00479815 0)
(0.062113 -0.00411406 0)
(0.0625996 -0.00341666 0)
(0.0629851 -0.00270494 0)
(0.063268 -0.00197786 0)
(0.0634454 -0.00123738 0)
(0.0635143 -0.000481745 0)
(0.0634809 0.000289604 0)
(0.0633458 0.00107936 0)
(0.0630979 0.00188416 0)
(0.0627381 0.00270468 0)
(0.0622687 0.00353625 0)
(0.0616875 0.00437917 0)
(0.0609964 0.00523293 0)
(0.0602001 0.00609497 0)
(0.059294 0.00696467 0)
(0.0582745 0.00783843 0)
(0.0571483 0.0087152 0)
(0.0559173 0.00959265 0)
(0.0545797 0.0104697 0)
(0.0531359 0.0113424 0)
(0.0515915 0.0122089 0)
(0.049948 0.0130682 0)
(0.0482063 0.013917 0)
(0.0463721 0.0147533 0)
(0.0444505 0.0155752 0)
(0.0424453 0.0163801 0)
(0.0403609 0.0171652 0)
(0.0382033 0.0179285 0)
(0.035978 0.0186667 0)
(0.0336915 0.0193777 0)
(0.0313503 0.0200593 0)
(0.0289591 0.0207074 0)
(0.0265244 0.0213185 0)
(0.0240536 0.0218884 0)
(0.0215499 0.0224095 0)
(0.0190181 0.0228815 0)
(0.0164762 0.023335 0)
(0.0138798 0.0238229 0)
(0.0113588 0.0242732 0)
(0.00861576 0.0240416 0)
(0.00631637 0.02218 0)
(0.00391155 0.0199556 0)
(0.00223022 0.0283734 0)
(-0.00146017 0.0211947 0)
(-0.00279719 0.00983178 0)
(-0.00327838 0.0121225 0)
(-0.00493812 0.0149614 0)
(-0.00625777 0.0156934 0)
(-0.00796928 0.0155552 0)
(-0.00942139 0.015316 0)
(-0.0109852 0.0151668 0)
(-0.012492 0.0150398 0)
(-0.0140081 0.0148918 0)
(-0.0155186 0.0147122 0)
(-0.0170157 0.014501 0)
(-0.0184993 0.0142602 0)
(-0.0199656 0.0139908 0)
(-0.021411 0.0136917 0)
(-0.0228325 0.0133623 0)
(-0.0242258 0.0130025 0)
(-0.0255876 0.0126124 0)
(-0.0269142 0.0121926 0)
(-0.0282012 0.0117429 0)
(-0.0294451 0.0112639 0)
(-0.0306423 0.0107562 0)
(-0.0317886 0.0102202 0)
(-0.0328811 0.00965684 0)
(-0.0339159 0.00906716 0)
(-0.0348892 0.00845235 0)
(-0.0357981 0.00781325 0)
(-0.0366393 0.00715089 0)
(-0.0374097 0.00646665 0)
(-0.0381065 0.005762 0)
(-0.038727 0.00503806 0)
(-0.0392686 0.00429629 0)
(-0.0397293 0.00353832 0)
(-0.040107 0.00276551 0)
(-0.0403995 0.00197941 0)
(-0.0406054 0.00118173 0)
(-0.040723 0.000374437 0)
(-0.0407535 -0.00044037 0)
(-0.0406959 -0.0012633 0)
(-0.0405476 -0.0020922 0)
(-0.0403088 -0.00292477 0)
(-0.039979 -0.00375899 0)
(-0.0395595 -0.00459278 0)
(-0.0390505 -0.00542439 0)
(-0.0384523 -0.00625155 0)
(-0.0377658 -0.00707254 0)
(-0.036992 -0.00788566 0)
(-0.0361322 -0.00868914 0)
(-0.0351881 -0.00948108 0)
(-0.0341612 -0.0102595 0)
(-0.0330538 -0.0110225 0)
(-0.0318687 -0.0117684 0)
(-0.0306084 -0.0124951 0)
(-0.0292744 -0.0132007 0)
(-0.0278685 -0.0138831 0)
(-0.0263945 -0.014541 0)
(-0.0248553 -0.0151728 0)
(-0.023253 -0.0157772 0)
(-0.0215905 -0.0163525 0)
(-0.0198717 -0.0168977 0)
(-0.0180994 -0.0174118 0)
(-0.0162766 -0.0178935 0)
(-0.0144071 -0.018342 0)
(-0.0124945 -0.0187566 0)
(-0.0105424 -0.0191369 0)
(-0.00855428 -0.0194822 0)
(-0.00653393 -0.0197924 0)
(-0.00448485 -0.0200668 0)
(-0.00241062 -0.020305 0)
(-0.000315411 -0.0205069 0)
(0.00179685 -0.0206727 0)
(0.00392337 -0.0208018 0)
(0.00605929 -0.0208948 0)
(0.00820069 -0.0209517 0)
(0.0103451 -0.0209724 0)
(0.0124887 -0.0209573 0)
(0.0146278 -0.0209067 0)