/*--------------------------------*- C++ -*----------------------------------*\
| =========                 |                                                 |
| \\      /  F ield         | OpenFOAM: The Open Source CFD Toolbox           |
|  \\    /   O peration     | Version:  v2006                                 |
|   \\  /    A nd           | Website:  www.openfoam.com                      |
|    \\/     M anipulation  |                                                 |
\*---------------------------------------------------------------------------*/
FoamFile
{
    version     2.0;
    format      ascii;
    class       volVectorField;
    location    "0";
    object      U;
}
// * * * * * * * * * * * * * * * * * * * * * * * * * * * * * * * * * * * * * //

dimensions      [0 1 -1 0 0 0 0];


internalField   nonuniform List<vector> 
20000
(
(1 3.78229e-12 0)
(1 1.17274e-11 0)
(1 2.15164e-11 0)
(1 3.3464e-11 0)
(1 4.77199e-11 0)
(1 6.48246e-11 0)
(1 8.53152e-11 0)
(1 1.0931e-10 0)
(1 1.36387e-10 0)
(1 1.65768e-10 0)
(1 1.96603e-10 0)
(1 2.28129e-10 0)
(1 2.59645e-10 0)
(1 2.90367e-10 0)
(1 3.19271e-10 0)
(1 3.45027e-10 0)
(1 3.66038e-10 0)
(1 3.80616e-10 0)
(1 3.87236e-10 0)
(1 3.84736e-10 0)
(1 3.72278e-10 0)
(1 3.49468e-10 0)
(1 3.16782e-10 0)
(1 2.75558e-10 0)
(1 2.27725e-10 0)
(1 1.75444e-10 0)
(1 1.20773e-10 0)
(1 6.54391e-11 0)
(1 1.0841e-11 0)
(1 -4.16609e-11 0)
(1 -9.03561e-11 0)
(1 -1.32842e-10 0)
(1 -1.66158e-10 0)
(1 -1.87784e-10 0)
(1 -1.95697e-10 0)
(1 -1.88039e-10 0)
(1 -1.69147e-10 0)
(1 -1.61138e-10 0)
(1 -1.83201e-10 0)
(1 -2.43669e-10 0)
(1 -3.4675e-10 0)
(1 -4.9704e-10 0)
(1 -7.01056e-10 0)
(1 -9.67692e-10 0)
(1 -1.30851e-09 0)
(1 -1.73806e-09 0)
(1 -2.27419e-09 0)
(1 -2.93853e-09 0)
(1 -3.75725e-09 0)
(1 -4.76227e-09 0)
(1 -5.99271e-09 0)
(1 -7.49623e-09 0)
(1 -9.3302e-09 0)
(1 -1.15629e-08 0)
(1 -1.42745e-08 0)
(1 -1.7558e-08 0)
(1 -2.15174e-08 0)
(1 -2.62655e-08 0)
(1 -3.19205e-08 0)
(1 -3.86072e-08 0)
(1 -4.64651e-08 0)
(1 -5.56451e-08 0)
(1 -6.62677e-08 0)
(1 -7.83772e-08 0)
(1 -9.20265e-08 0)
(1 -1.07476e-07 0)
(1 -1.24944e-07 0)
(1.00001 -1.43324e-07 0)
(1.00001 -1.59525e-07 0)
(1.00001 -1.7269e-07 0)
(1.00001 -1.92758e-07 0)
(1.00001 -2.35981e-07 0)
(1.00001 -2.81122e-07 0)
(1.00001 -2.16576e-07 0)
(1.00001 6.96409e-08 0)
(1.00001 4.35484e-07 0)
(1.00001 7.417e-07 0)
(1.00001 9.45316e-07 0)
(1.00001 1.06757e-06 0)
(1.00001 1.14594e-06 0)
(1.00001 1.21197e-06 0)
(1 1.28681e-06 0)
(1 1.38132e-06 0)
(0.999999 1.49555e-06 0)
(0.999997 1.61847e-06 0)
(0.999994 1.72958e-06 0)
(0.999992 1.80349e-06 0)
(0.999989 1.81618e-06 0)
(0.999986 1.7516e-06 0)
(0.999983 1.60615e-06 0)
(0.99998 1.3885e-06 0)
(0.999977 1.11563e-06 0)
(0.999973 8.06202e-07 0)
(0.99997 4.75993e-07 0)
(0.999967 1.38005e-07 0)
(0.999964 -1.96256e-07 0)
(0.999962 -5.14914e-07 0)
(0.999959 -8.05043e-07 0)
(0.999957 -1.05333e-06 0)
(0.999955 -1.24708e-06 0)
(0.999953 -1.37541e-06 0)
(0.999952 -1.43052e-06 0)
(0.999951 -1.40812e-06 0)
(0.999951 -1.31003e-06 0)
(0.99995 -1.15114e-06 0)
(0.99995 -9.68618e-07 0)
(0.999951 -8.22892e-07 0)
(0.999952 -7.41313e-07 0)
(0.999953 -7.21614e-07 0)
(0.999956 -7.53238e-07 0)
(0.99996 -8.18826e-07 0)
(0.999965 -8.87243e-07 0)
(0.999971 -9.054e-07 0)
(0.999977 -7.95329e-07 0)
(0.999984 -4.64473e-07 0)
(0.999991 1.63865e-07 0)
(0.999996 1.10862e-06 0)
(0.999999 2.23895e-06 0)
(0.999999 3.19198e-06 0)
(0.999998 3.77585e-06 0)
(0.999996 4.05004e-06 0)
(0.999994 4.10885e-06 0)
(0.99999 4.00874e-06 0)
(0.999987 3.77436e-06 0)
(0.999983 3.41726e-06 0)
(0.999979 2.94671e-06 0)
(0.999975 2.37418e-06 0)
(0.99997 1.71838e-06 0)
(0.999965 1.00454e-06 0)
(0.99996 2.63105e-07 0)
(0.999955 -4.71197e-07 0)
(0.999951 -1.16148e-06 0)
(0.999946 -1.77217e-06 0)
(0.999942 -2.27255e-06 0)
(0.999939 -2.63972e-06 0)
(0.999936 -2.86071e-06 0)
(0.999933 -2.93337e-06 0)
(0.999931 -2.86591e-06 0)
(0.99993 -2.67522e-06 0)
(0.999929 -2.38513e-06 0)
(0.999928 -2.02852e-06 0)
(0.999928 -1.6524e-06 0)
(0.999928 -1.31449e-06 0)
(0.999929 -1.0754e-06 0)
(0.99993 -9.31632e-07 0)
(0.999932 -8.60157e-07 0)
(0.999935 -8.33485e-07 0)
(0.999939 -8.22512e-07 0)
(0.999943 -8.01821e-07 0)
(0.999947 -7.55984e-07 0)
(0.999951 -6.83381e-07 0)
(0.999955 -5.94921e-07 0)
(0.999959 -5.07491e-07 0)
(0.999962 -4.35397e-07 0)
(0.999964 -3.85062e-07 0)
(0.999967 -3.55371e-07 0)
(0.999969 -3.41115e-07 0)
(0.999971 -3.36063e-07 0)
(0.999973 -3.34648e-07 0)
(0.999976 -3.32752e-07 0)
(0.999978 -3.27882e-07 0)
(0.99998 -3.18931e-07 0)
(0.999982 -3.05797e-07 0)
(0.999984 -2.8901e-07 0)
(0.999986 -2.6943e-07 0)
(0.999988 -2.48024e-07 0)
(0.999989 -2.25718e-07 0)
(0.999991 -2.03315e-07 0)
(0.999992 -1.81462e-07 0)
(0.999993 -1.60643e-07 0)
(0.999994 -1.41188e-07 0)
(0.999995 -1.23297e-07 0)
(0.999996 -1.07064e-07 0)
(0.999996 -9.25013e-08 0)
(0.999997 -7.95616e-08 0)
(0.999998 -6.81578e-08 0)
(0.999998 -5.81779e-08 0)
(0.999998 -4.94963e-08 0)
(0.999999 -4.19835e-08 0)
(0.999999 -3.55113e-08 0)
(0.999999 -2.99573e-08 0)
(0.999999 -2.52063e-08 0)
(0.999999 -2.11519e-08 0)
(1 -1.76963e-08 0)
(1 -1.47504e-08 0)
(1 -1.22338e-08 0)
(1 -1.00752e-08 0)
(1 -8.21274e-09 0)
(1 -6.59503e-09 0)
(1 -5.18134e-09 0)
(1 -3.94248e-09 0)
(1 -2.86124e-09 0)
(1 -1.93219e-09 0)
(1 -1.1591e-09 0)
(1 -5.50159e-10 0)
(1 -1.08377e-10 0)
(1 1.71584e-10 0)
(1 3.07801e-10 0)
(1 3.78776e-10 0)
(1 2.45046e-10 0)
(1 6.32738e-12 0)
(1 1.86988e-11 0)
(1 3.27179e-11 0)
(1 4.86772e-11 0)
(1 6.62221e-11 0)
(1 8.53144e-11 0)
(1 1.06043e-10 0)
(1 1.28478e-10 0)
(1 1.52627e-10 0)
(1 1.78464e-10 0)
(1 2.05903e-10 0)
(1 2.34728e-10 0)
(1 2.64541e-10 0)
(1 2.94735e-10 0)
(1 3.24507e-10 0)
(1 3.52918e-10 0)
(1 3.79008e-10 0)
(1 4.01938e-10 0)
(1 4.21133e-10 0)
(1 4.36361e-10 0)
(1 4.47719e-10 0)
(1 4.55832e-10 0)
(1 4.61906e-10 0)
(1 4.67186e-10 0)
(1 4.72665e-10 0)
(1 4.78847e-10 0)
(1 4.85574e-10 0)
(1 4.91996e-10 0)
(1 4.96719e-10 0)
(1 4.98108e-10 0)
(1 4.94458e-10 0)
(1 4.83967e-10 0)
(1 4.64314e-10 0)
(1 4.3208e-10 0)
(1 3.83383e-10 0)
(1 3.14558e-10 0)
(1 2.17911e-10 0)
(1 7.26001e-11 0)
(1 -1.41293e-10 0)
(1 -4.36971e-10 0)
(1 -8.30352e-10 0)
(1 -1.34176e-09 0)
(1 -1.99666e-09 0)
(1 -2.82642e-09 0)
(1 -3.86932e-09 0)
(1 -5.17162e-09 0)
(1 -6.78879e-09 0)
(1 -8.78701e-09 0)
(1 -1.12457e-08 0)
(1 -1.42614e-08 5.81468e-43)
(1 -1.79517e-08 5.90131e-43)
(1 -2.246e-08 0)
(1 -2.79583e-08 0)
(1 -3.46514e-08 0)
(1 -4.27802e-08 0)
(1 -5.26231e-08 0)
(1 -6.44926e-08 0)
(1 -7.87268e-08 0)
(1 -9.56832e-08 0)
(1 -1.1574e-07 0)
(1 -1.39299e-07 0)
(1 -1.6678e-07 0)
(1 -1.9858e-07 0)
(1 -2.35013e-07 0)
(1 -2.76277e-07 0)
(1 -3.22419e-07 0)
(1 -3.73119e-07 0)
(1.00001 -4.27172e-07 0)
(1.00001 -4.82339e-07 0)
(1.00001 -5.3679e-07 0)
(1.00001 -5.91324e-07 0)
(1.00001 -6.4562e-07 0)
(1.00001 -6.78722e-07 0)
(1.00001 -6.28523e-07 0)
(1.00001 -4.47797e-07 0)
(1.00002 -2.56888e-07 0)
(1.00002 -1.21953e-07 0)
(1.00003 -4.02896e-08 0)
(1.00003 8.96367e-09 0)
(1.00003 3.66933e-08 0)
(1.00004 3.97473e-08 0)
(1.00004 8.91253e-09 0)
(1.00005 -6.09021e-08 0)
(1.00005 -1.61548e-07 0)
(1.00006 -2.66921e-07 0)
(1.00006 -3.36825e-07 0)
(1.00007 -3.31499e-07 0)
(1.00008 -2.28645e-07 0)
(1.00008 -3.22684e-08 0)
(1.00009 2.33009e-07 0)
(1.00009 5.39816e-07 0)
(1.00009 8.54381e-07 0)
(1.00009 1.16289e-06 0)
(1.00009 1.45838e-06 0)
(1.00008 1.73407e-06 0)
(1.00007 1.98062e-06 0)
(1.00006 2.18618e-06 0)
(1.00005 2.33721e-06 0)
(1.00004 2.41988e-06 0)
(1.00003 2.42372e-06 0)
(1.00002 2.34523e-06 0)
(1.00001 2.18816e-06 0)
(0.999994 1.96094e-06 0)
(0.999984 1.67347e-06 0)
(0.999975 1.33347e-06 0)
(0.999968 9.39981e-07 0)
(0.999963 4.77107e-07 0)
(0.99996 -4.76961e-08 0)
(0.999959 -6.12138e-07 0)
(0.99996 -1.19595e-06 0)
(0.999963 -1.78033e-06 0)
(0.999967 -2.34376e-06 0)
(0.999973 -2.85854e-06 0)
(0.99998 -3.28883e-06 0)
(0.99999 -3.59236e-06 0)
(1 -3.7283e-06 0)
(1.00002 -3.66709e-06 0)
(1.00003 -3.44407e-06 0)
(1.00005 -3.23879e-06 0)
(1.00008 -3.09906e-06 0)
(1.0001 -2.93387e-06 0)
(1.00012 -2.67615e-06 0)
(1.00014 -2.29998e-06 0)
(1.00016 -1.80203e-06 0)
(1.00018 -1.19309e-06 0)
(1.00019 -4.86086e-07 0)
(1.0002 2.99304e-07 0)
(1.0002 1.12685e-06 0)
(1.0002 1.95778e-06 0)
(1.00019 2.75197e-06 0)
(1.00018 3.46722e-06 0)
(1.00016 4.06348e-06 0)
(1.00014 4.50732e-06 0)
(1.00012 4.77575e-06 0)
(1.0001 4.85887e-06 0)
(1.00007 4.76058e-06 0)
(1.00005 4.49724e-06 0)
(1.00002 4.09525e-06 0)
(1 3.58875e-06 0)
(0.999985 3.01592e-06 0)
(0.999969 2.41132e-06 0)
(0.999957 1.79673e-06 0)
(0.999949 1.17865e-06 0)
(0.999943 5.46166e-07 0)
(0.99994 -7.501e-08 0)
(0.999938 -6.55091e-07 0)
(0.999939 -1.15974e-06 0)
(0.999941 -1.54804e-06 0)
(0.999945 -1.78363e-06 0)
(0.999948 -1.85253e-06 0)
(0.999952 -1.77528e-06 0)
(0.999956 -1.60417e-06 0)
(0.999959 -1.40451e-06 0)
(0.999962 -1.22969e-06 0)
(0.999965 -1.10609e-06 0)
(0.999967 -1.03502e-06 0)
(0.999969 -1.00398e-06 0)
(0.999971 -9.96376e-07 0)
(0.999973 -9.96908e-07 0)
(0.999976 -9.94178e-07 0)
(0.999978 -9.81351e-07 0)
(0.99998 -9.55539e-07 0)
(0.999982 -9.16717e-07 0)
(0.999984 -8.66662e-07 0)
(0.999986 -8.08071e-07 0)
(0.999988 -7.43913e-07 0)
(0.999989 -6.77008e-07 0)
(0.999991 -6.09796e-07 0)
(0.999992 -5.44229e-07 0)
(0.999993 -4.81765e-07 0)
(0.999994 -4.23397e-07 0)
(0.999995 -3.69725e-07 0)
(0.999996 -3.21032e-07 0)
(0.999996 -2.77352e-07 0)
(0.999997 -2.38544e-07 0)
(0.999998 -2.04346e-07 0)
(0.999998 -1.74419e-07 0)
(0.999998 -1.48386e-07 0)
(0.999999 -1.25857e-07 0)
(0.999999 -1.06447e-07 0)
(0.999999 -8.97882e-08 0)
(0.999999 -7.55388e-08 0)
(0.999999 -6.33864e-08 0)
(1 -5.30492e-08 0)
(1 -4.42762e-08 0)
(1 -3.68454e-08 0)
(1 -3.05624e-08 0)
(1 -2.52577e-08 0)
(1 -2.07851e-08 0)
(1 -1.70187e-08 0)
(1 -1.38517e-08 0)
(1 -1.1194e-08 0)
(1 -8.97085e-09 0)
(1 -7.12019e-09 0)
(1 -5.59006e-09 0)
(1 -4.33319e-09 0)
(1 -3.3097e-09 0)
(1 -2.46547e-09 0)
(1 -1.80092e-09 0)
(1 -1.02287e-09 0)
(1 6.52913e-12 0)
(1 1.87182e-11 0)
(1 3.22486e-11 0)
(1 4.70368e-11 0)
(1 6.22004e-11 0)
(1 7.70697e-11 0)
(1 9.14331e-11 0)
(1 1.05745e-10 0)
(1 1.20982e-10 0)
(1 1.38283e-10 0)
(1 1.58547e-10 0)
(1 1.82226e-10 0)
(1 2.09385e-10 0)
(1 2.39901e-10 0)
(1 2.7366e-10 0)
(1 3.10687e-10 0)
(1 3.51164e-10 0)
(1 3.95386e-10 0)
(1 4.43662e-10 0)
(1 4.96246e-10 0)
(1 5.53359e-10 0)
(1 6.15155e-10 0)
(1 6.81332e-10 0)
(1 7.50808e-10 0)
(1 8.21936e-10 0)
(1 8.9268e-10 0)
(1 9.60679e-10 0)
(1 1.02329e-09 0)
(1 1.07756e-09 0)
(1 1.12005e-09 0)
(1 1.14659e-09 0)
(1 1.15189e-09 0)
(1 1.12936e-09 0)
(1 1.07129e-09 0)
(1 9.68539e-10 0)
(1 8.09719e-10 0)
(1 5.82147e-10 0)
(1 2.74183e-10 0)
(1 -1.30477e-10 0)
(1 -6.55347e-10 0)
(1 -1.33141e-09 0)
(1 -2.19624e-09 0)
(1 -3.29479e-09 0)
(1 -4.68099e-09 0)
(1 -6.41962e-09 0)
(1 -8.58842e-09 0)
(1 -1.12802e-08 0)
(1 -1.46053e-08 0)
(1 -1.86963e-08 0)
(1 -2.37136e-08 0)
(1 -2.98534e-08 0)
(1 -3.73543e-08 0)
(1 -4.65027e-08 0)
(1 -5.76392e-08 0)
(1 -7.11647e-08 0)
(1 -8.75433e-08 0)
(1 -1.07295e-07 0)
(1 -1.30984e-07 0)
(1 -1.59206e-07 0)
(1 -1.9259e-07 0)
(1 -2.31805e-07 0)
(1 -2.77548e-07 0)
(1 -3.30497e-07 0)
(1 -3.91229e-07 0)
(1 -4.60063e-07 0)
(1 -5.36876e-07 0)
(1 -6.20999e-07 0)
(1.00001 -7.11309e-07 0)
(1.00001 -8.05929e-07 0)
(1.00001 -9.00358e-07 0)
(1.00001 -9.84682e-07 0)
(1.00001 -1.04571e-06 0)
(1.00001 -1.0824e-06 0)
(1.00001 -1.1235e-06 0)
(1.00001 -1.19875e-06 0)
(1.00002 -1.26434e-06 0)
(1.00002 -1.2705e-06 0)
(1.00002 -1.20956e-06 0)
(1.00002 -1.11042e-06 0)
(1.00002 -1.01676e-06 0)
(1.00002 -9.7464e-07 0)
(1.00002 -1.02323e-06 0)
(1.00002 -1.18174e-06 0)
(1.00002 -1.43283e-06 0)
(1.00003 -1.71126e-06 0)
(1.00003 -1.91252e-06 0)
(1.00003 -1.92836e-06 0)
(1.00003 -1.69222e-06 0)
(1.00003 -1.20446e-06 0)
(1.00003 -5.20283e-07 0)
(1.00003 2.79281e-07 0)
(1.00003 1.12655e-06 0)
(1.00003 1.97612e-06 0)
(1.00003 2.80204e-06 0)
(1.00002 3.58463e-06 0)
(1.00002 4.29999e-06 0)
(1.00001 4.91799e-06 0)
(1.00001 5.40338e-06 0)
(1 5.71919e-06 0)
(0.999993 5.83537e-06 0)
(0.999986 5.73733e-06 0)
(0.999979 5.42693e-06 0)
(0.999973 4.91677e-06 0)
(0.999967 4.22606e-06 0)
(0.999962 3.38215e-06 0)
(0.999959 2.42263e-06 0)
(0.999957 1.39221e-06 0)
(0.999956 3.26379e-07 0)
(0.999956 -7.5092e-07 0)
(0.999958 -1.82092e-06 0)
(0.999961 -2.86733e-06 0)
(0.999966 -3.87735e-06 0)
(0.999972 -4.84307e-06 0)
(0.999979 -5.76159e-06 0)
(0.999987 -6.63241e-06 0)
(0.999996 -7.4499e-06 0)
(1.00001 -8.19206e-06 0)
(1.00002 -8.79625e-06 0)
(1.00003 -9.14155e-06 0)
(1.00004 -9.1522e-06 0)
(1.00005 -8.82946e-06 0)
(1.00006 -8.19372e-06 0)
(1.00007 -7.25653e-06 0)
(1.00007 -6.02571e-06 0)
(1.00008 -4.51642e-06 0)
(1.00008 -2.7577e-06 0)
(1.00009 -7.97922e-07 0)
(1.00009 1.29301e-06 0)
(1.00008 3.42869e-06 0)
(1.00008 5.50747e-06 0)
(1.00007 7.41937e-06 0)
(1.00006 9.05745e-06 0)
(1.00005 1.03294e-05 0)
(1.00003 1.11682e-05 0)
(1.00002 1.15397e-05 0)
(1 1.1445e-05 0)
(0.999991 1.0918e-05 0)
(0.999978 1.00193e-05 0)
(0.999966 8.82967e-06 0)
(0.999956 7.44165e-06 0)
(0.999948 5.94837e-06 0)
(0.999942 4.43312e-06 0)
(0.999938 2.96243e-06 0)
(0.999935 1.585e-06 0)
(0.999934 3.24706e-07 0)
(0.999935 -7.97769e-07 0)
(0.999937 -1.74597e-06 0)
(0.99994 -2.46564e-06 0)
(0.999944 -2.90537e-06 0)
(0.999948 -3.04838e-06 0)
(0.999952 -2.93443e-06 0)
(0.999956 -2.65587e-06 0)
(0.999959 -2.32614e-06 0)
(0.999962 -2.03714e-06 0)
(0.999965 -1.83386e-06 0)
(0.999967 -1.71831e-06 0)
(0.999969 -1.66924e-06 0)
(0.999971 -1.65871e-06 0)
(0.999973 -1.66113e-06 0)
(0.999976 -1.65752e-06 0)
(0.999978 -1.63661e-06 0)
(0.99998 -1.5937e-06 0)
(0.999982 -1.5289e-06 0)
(0.999984 -1.44525e-06 0)
(0.999986 -1.34733e-06 0)
(0.999988 -1.24013e-06 0)
(0.999989 -1.12839e-06 0)
(0.999991 -1.01618e-06 0)
(0.999992 -9.06755e-07 0)
(0.999993 -8.02546e-07 0)
(0.999994 -7.05203e-07 0)
(0.999995 -6.1572e-07 0)
(0.999996 -5.34558e-07 0)
(0.999996 -4.61771e-07 0)
(0.999997 -3.97116e-07 0)
(0.999998 -3.40151e-07 0)
(0.999998 -2.9031e-07 0)
(0.999998 -2.4696e-07 0)
(0.999999 -2.09449e-07 0)
(0.999999 -1.77135e-07 0)
(0.999999 -1.49403e-07 0)
(0.999999 -1.25685e-07 0)
(0.999999 -1.05461e-07 0)
(1 -8.82637e-08 0)
(1 -7.36783e-08 0)
(1 -6.13386e-08 0)
(1 -5.09244e-08 0)
(1 -4.21567e-08 0)
(1 -3.47935e-08 0)
(1 -2.86249e-08 0)
(1 -2.34691e-08 0)
(1 -1.91683e-08 0)
(1 -1.55846e-08 0)
(1 -1.25975e-08 0)
(1 -1.01022e-08 0)
(1 -8.00887e-09 0)
(1 -6.24499e-09 0)
(1 -4.72821e-09 0)
(1 -3.53348e-09 0)
(1 -1.9375e-09 0)
(1 9.36076e-12 0)
(1 2.75925e-11 0)
(1 4.914e-11 0)
(1 7.3624e-11 0)
(1 9.99855e-11 0)
(1 1.27681e-10 0)
(1 1.56746e-10 0)
(1 1.87841e-10 0)
(1 2.21954e-10 0)
(1 2.60059e-10 0)
(1 3.0279e-10 0)
(1 3.50314e-10 0)
(1 4.02394e-10 0)
(1 4.58546e-10 0)
(1 5.18182e-10 0)
(1 5.80687e-10 0)
(1 6.45459e-10 0)
(1 7.11929e-10 0)
(1 7.79584e-10 0)
(1 8.47985e-10 0)
(1 9.16725e-10 0)
(1 9.85296e-10 0)
(1 1.05308e-09 0)
(1 1.11946e-09 0)
(1 1.18383e-09 0)
(1 1.24539e-09 0)
(1 1.30288e-09 0)
(1 1.3543e-09 0)
(1 1.39681e-09 0)
(1 1.4265e-09 0)
(1 1.43849e-09 0)
(1 1.42682e-09 0)
(1 1.38442e-09 0)
(1 1.30256e-09 0)
(1 1.16979e-09 0)
(1 9.71008e-10 0)
(1 6.8667e-10 0)
(1 2.92496e-10 0)
(1 -2.41188e-10 0)
(1 -9.50584e-10 0)
(1 -1.87777e-09 0)
(1 -3.07337e-09 0)
(1 -4.5987e-09 0)
(1 -6.528e-09 0)
(1 -8.95099e-09 0)
(1 -1.19757e-08 0)
(1 -1.57314e-08 0)
(1 -2.03722e-08 0)
(1 -2.60826e-08 0)
(1 -3.30869e-08 0)
(1 -4.1659e-08 0)
(1 -5.21324e-08 0)
(1 -6.49071e-08 0)
(1 -8.04587e-08 0)
(1 -9.93474e-08 0)
(1 -1.22222e-07 0)
(1 -1.4981e-07 0)
(1 -1.82902e-07 0)
(1 -2.22328e-07 0)
(1 -2.6897e-07 0)
(1 -3.2377e-07 0)
(1 -3.87715e-07 0)
(1 -4.6176e-07 0)
(1 -5.46694e-07 0)
(1 -6.42996e-07 0)
(1 -7.50678e-07 0)
(1 -8.68988e-07 0)
(1.00001 -9.95814e-07 0)
(1.00001 -1.12708e-06 0)
(1.00001 -1.25693e-06 0)
(1.00001 -1.37894e-06 0)
(1.00001 -1.48592e-06 0)
(1.00001 -1.56572e-06 0)
(1.00001 -1.597e-06 0)
(1.00001 -1.55777e-06 0)
(1.00002 -1.43644e-06 0)
(1.00002 -1.25895e-06 0)
(1.00002 -1.05852e-06 0)
(1.00002 -8.6564e-07 0)
(1.00002 -7.13675e-07 0)
(1.00002 -6.41942e-07 0)
(1.00002 -6.89135e-07 0)
(1.00002 -8.75519e-07 0)
(1.00002 -1.17904e-06 0)
(1.00003 -1.51825e-06 0)
(1.00003 -1.76201e-06 0)
(1.00003 -1.77511e-06 0)
(1.00003 -1.47838e-06 0)
(1.00003 -8.79396e-07 0)
(1.00003 -5.55663e-08 0)
(1.00003 8.91582e-07 0)
(1.00003 1.87853e-06 0)
(1.00003 2.85305e-06 0)
(1.00003 3.79023e-06 0)
(1.00002 4.67104e-06 0)
(1.00002 5.46912e-06 0)
(1.00001 6.14974e-06 0)
(1.00001 6.67163e-06 0)
(1 6.99098e-06 0)
(0.999993 7.07256e-06 0)
(0.999986 6.90128e-06 0)
(0.999979 6.48292e-06 0)
(0.999972 5.83598e-06 0)
(0.999967 4.98519e-06 0)
(0.999962 3.95909e-06 0)
(0.999959 2.78864e-06 0)
(0.999956 1.50691e-06 0)
(0.999955 1.45131e-07 0)
(0.999956 -1.26519e-06 0)
(0.999958 -2.69223e-06 0)
(0.999961 -4.10461e-06 0)
(0.999965 -5.46961e-06 0)
(0.999971 -6.75062e-06 0)
(0.999978 -7.90623e-06 0)
(0.999987 -8.89225e-06 0)
(0.999996 -9.6675e-06 0)
(1.00001 -1.02033e-05 0)
(1.00002 -1.04887e-05 0)
(1.00003 -1.05165e-05 0)
(1.00004 -1.02871e-05 0)
(1.00005 -9.78456e-06 0)
(1.00006 -8.97714e-06 0)
(1.00007 -7.84024e-06 0)
(1.00008 -6.36646e-06 0)
(1.00008 -4.5681e-06 0)
(1.00009 -2.48184e-06 0)
(1.00009 -1.67122e-07 0)
(1.00009 2.29527e-06 0)
(1.00008 4.79976e-06 0)
(1.00008 7.22287e-06 0)
(1.00007 9.43385e-06 0)
(1.00006 1.13069e-05 0)
(1.00005 1.27348e-05 0)
(1.00003 1.36415e-05 0)
(1.00002 1.39911e-05 0)
(1 1.379e-05 0)
(0.99999 1.3083e-05 0)
(0.999977 1.19457e-05 0)
(0.999966 1.04769e-05 0)
(0.999956 8.7888e-06 0)
(0.999948 6.99022e-06 0)
(0.999942 5.16887e-06 0)
(0.999938 3.38408e-06 0)
(0.999935 1.67609e-06 0)
(0.999934 7.35086e-08 0)
(0.999935 -1.38537e-06 0)
(0.999937 -2.63739e-06 0)
(0.99994 -3.59447e-06 0)
(0.999944 -4.17375e-06 0)
(0.999948 -4.34394e-06 0)
(0.999952 -4.15721e-06 0)
(0.999956 -3.74356e-06 0)
(0.999959 -3.26434e-06 0)
(0.999962 -2.84973e-06 0)
(0.999965 -2.56156e-06 0)
(0.999967 -2.40019e-06 0)
(0.999969 -2.33361e-06 0)
(0.999971 -2.32129e-06 0)
(0.999973 -2.32663e-06 0)
(0.999976 -2.32279e-06 0)
(0.999978 -2.29402e-06 0)
(0.99998 -2.23393e-06 0)
(0.999982 -2.14282e-06 0)
(0.999984 -2.02515e-06 0)
(0.999986 -1.88744e-06 0)
(0.999988 -1.73678e-06 0)
(0.999989 -1.57983e-06 0)
(0.999991 -1.42232e-06 0)
(0.999992 -1.26882e-06 0)
(0.999993 -1.12272e-06 0)
(0.999994 -9.86308e-07 0)
(0.999995 -8.60971e-07 0)
(0.999996 -7.47335e-07 0)
(0.999996 -6.45461e-07 0)
(0.999997 -5.54997e-07 0)
(0.999998 -4.75316e-07 0)
(0.999998 -4.05617e-07 0)
(0.999998 -3.45009e-07 0)
(0.999999 -2.92575e-07 0)
(0.999999 -2.47411e-07 0)
(0.999999 -2.08659e-07 0)
(0.999999 -1.7552e-07 0)
(0.999999 -1.47264e-07 0)
(1 -1.23235e-07 0)
(1 -1.02851e-07 0)
(1 -8.55971e-08 0)
(1 -7.10215e-08 0)
(1 -5.87324e-08 0)
(1 -4.83903e-08 0)
(1 -3.97025e-08 0)
(1 -3.2418e-08 0)
(1 -2.63222e-08 0)
(1 -2.12322e-08 0)
(1 -1.69922e-08 0)
(1 -1.34688e-08 0)
(1 -1.05457e-08 0)
(1 -8.12533e-09 0)
(1 -6.09157e-09 0)
(1 -4.50894e-09 0)
(1 -2.46891e-09 0)
(1 1.21197e-11 0)
(1 3.56269e-11 0)
(1 6.30892e-11 0)
(1 9.38595e-11 0)
(1 1.26466e-10 0)
(1 1.60011e-10 0)
(1 1.94261e-10 0)
(1 2.29858e-10 0)
(1 2.68085e-10 0)
(1 3.10406e-10 0)
(1 3.57948e-10 0)
(1 4.11203e-10 0)
(1 4.70062e-10 0)
(1 5.3404e-10 0)
(1 6.02519e-10 0)
(1 6.74936e-10 0)
(1 7.50874e-10 0)
(1 8.301e-10 0)
(1 9.12535e-10 0)
(1 9.98197e-10 0)
(1 1.08714e-09 0)
(1 1.1794e-09 0)
(1 1.27488e-09 0)
(1 1.37318e-09 0)
(1 1.47333e-09 0)
(1 1.57348e-09 0)
(1 1.67077e-09 0)
(1 1.76128e-09 0)
(1 1.83998e-09 0)
(1 1.9008e-09 0)
(1 1.93654e-09 0)
(1 1.93862e-09 0)
(1 1.89667e-09 0)
(1 1.7979e-09 0)
(1 1.62663e-09 0)
(1 1.36355e-09 0)
(1 9.85271e-10 0)
(1 4.63724e-10 0)
(1 -2.36111e-10 0)
(1 -1.15771e-09 0)
(1 -2.35462e-09 0)
(1 -3.89227e-09 0)
(1 -5.84995e-09 0)
(1 -8.32338e-09 0)
(1 -1.1428e-08 0)
(1 -1.53028e-08 0)
(1 -2.01136e-08 0)
(1 -2.6058e-08 0)
(1 -3.33728e-08 0)
(1 -4.23453e-08 0)
(1 -5.3327e-08 0)
(1 -6.67456e-08 0)
(1 -8.31141e-08 0)
(1 -1.03042e-07 0)
(1 -1.27247e-07 0)
(1 -1.56562e-07 0)
(1 -1.91923e-07 0)
(1 -2.34343e-07 0)
(1 -2.84892e-07 0)
(1 -3.447e-07 0)
(1 -4.14979e-07 0)
(1 -4.9701e-07 0)
(1 -5.92049e-07 0)
(1 -7.0116e-07 0)
(1 -8.24992e-07 0)
(1 -9.63501e-07 0)
(1 -1.11566e-06 0)
(1.00001 -1.27915e-06 0)
(1.00001 -1.44978e-06 0)
(1.00001 -1.62031e-06 0)
(1.00001 -1.77886e-06 0)
(1.00001 -1.90914e-06 0)
(1.00001 -1.9957e-06 0)
(1.00001 -2.03228e-06 0)
(1.00001 -2.02187e-06 0)
(1.00002 -1.96063e-06 0)
(1.00002 -1.84652e-06 0)
(1.00002 -1.68512e-06 0)
(1.00002 -1.50206e-06 0)
(1.00002 -1.34621e-06 0)
(1.00002 -1.28212e-06 0)
(1.00002 -1.37337e-06 0)
(1.00002 -1.65554e-06 0)
(1.00002 -2.10235e-06 0)
(1.00003 -2.60173e-06 0)
(1.00003 -2.96894e-06 0)
(1.00003 -3.01127e-06 0)
(1.00003 -2.61333e-06 0)
(1.00003 -1.78177e-06 0)
(1.00004 -6.20344e-07 0)
(1.00004 7.24865e-07 0)
(1.00003 2.13628e-06 0)
(1.00003 3.54041e-06 0)
(1.00003 4.90078e-06 0)
(1.00002 6.18881e-06 0)
(1.00002 7.36565e-06 0)
(1.00001 8.38096e-06 0)
(1.00001 9.17505e-06 0)
(1 9.684e-06 0)
(0.999993 9.85579e-06 0)
(0.999985 9.66708e-06 0)
(0.999979 9.12438e-06 0)
(0.999972 8.25265e-06 0)
(0.999966 7.08661e-06 0)
(0.999962 5.66964e-06 0)
(0.999958 4.05357e-06 0)
(0.999956 2.29461e-06 0)
(0.999955 4.44948e-07 0)
(0.999955 -1.44899e-06 0)
(0.999957 -3.34653e-06 0)
(0.99996 -5.21198e-06 0)
(0.999965 -7.01306e-06 0)
(0.999971 -8.71966e-06 0)
(0.999978 -1.03027e-05 0)
(0.999986 -1.17318e-05 0)
(0.999995 -1.29714e-05 0)
(1.00001 -1.39769e-05 0)
(1.00002 -1.46902e-05 0)
(1.00003 -1.50378e-05 0)
(1.00004 -1.49574e-05 0)
(1.00005 -1.44063e-05 0)
(1.00006 -1.33593e-05 0)
(1.00007 -1.18064e-05 0)
(1.00008 -9.75322e-06 0)
(1.00008 -7.22492e-06 0)
(1.00009 -4.27424e-06 0)
(1.00009 -9.84419e-07 0)
(1.00009 2.52714e-06 0)
(1.00008 6.11055e-06 0)
(1.00008 9.59183e-06 0)
(1.00007 1.27852e-05 0)
(1.00006 1.55104e-05 0)
(1.00005 1.76124e-05 0)
(1.00003 1.89796e-05 0)
(1.00002 1.95569e-05 0)
(1 1.93494e-05 0)
(0.99999 1.84174e-05 0)
(0.999977 1.68655e-05 0)
(0.999965 1.48324e-05 0)
(0.999955 1.2478e-05 0)
(0.999947 9.96002e-06 0)
(0.999941 7.41021e-06 0)
(0.999937 4.92355e-06 0)
(0.999934 2.56378e-06 0)
(0.999933 3.7251e-07 0)
(0.999934 -1.6053e-06 0)
(0.999936 -3.2939e-06 0)
(0.999939 -4.58207e-06 0)
(0.999943 -5.36259e-06 0)
(0.999948 -5.59546e-06 0)
(0.999952 -5.35183e-06 0)
(0.999956 -4.80729e-06 0)
(0.999959 -4.17903e-06 0)
(0.999962 -3.64042e-06 0)
(0.999965 -3.27132e-06 0)
(0.999967 -3.0693e-06 0)
(0.999969 -2.99031e-06 0)
(0.999971 -2.98043e-06 0)
(0.999973 -2.99174e-06 0)
(0.999976 -2.98954e-06 0)
(0.999978 -2.9538e-06 0)
(0.99998 -2.8767e-06 0)
(0.999982 -2.75902e-06 0)
(0.999984 -2.60682e-06 0)
(0.999986 -2.42874e-06 0)
(0.999988 -2.23404e-06 0)
(0.999989 -2.03137e-06 0)
(0.999991 -1.82815e-06 0)
(0.999992 -1.63027e-06 0)
(0.999993 -1.44205e-06 0)
(0.999994 -1.26645e-06 0)
(0.999995 -1.10519e-06 0)
(0.999996 -9.59068e-07 0)
(0.999997 -8.28132e-07 0)
(0.999997 -7.11913e-07 0)
(0.999998 -6.09584e-07 0)
(0.999998 -5.20105e-07 0)
(0.999998 -4.42319e-07 0)
(0.999999 -3.75041e-07 0)
(0.999999 -3.17105e-07 0)
(0.999999 -2.67403e-07 0)
(0.999999 -2.24907e-07 0)
(0.999999 -1.8868e-07 0)
(1 -1.57881e-07 0)
(1 -1.31761e-07 0)
(1 -1.09661e-07 0)
(1 -9.10061e-08 0)
(1 -7.52932e-08 0)
(1 -6.20877e-08 0)
(1 -5.10135e-08 0)
(1 -4.17464e-08 0)
(1 -3.40064e-08 0)
(1 -2.75524e-08 0)
(1 -2.21759e-08 0)
(1 -1.76971e-08 0)
(1 -1.39598e-08 0)
(1 -1.08368e-08 0)
(1 -8.17862e-09 0)
(1 -6.08876e-09 0)
(1 -3.34545e-09 0)
(1 1.48355e-11 0)
(1 4.34882e-11 0)
(1 7.69388e-11 0)
(1 1.14481e-10 0)
(1 1.54373e-10 0)
(1 1.95627e-10 0)
(1 2.38125e-10 0)
(1 2.82837e-10 0)
(1 3.31448e-10 0)
(1 3.85754e-10 0)
(1 4.4704e-10 0)
(1 5.15786e-10 0)
(1 5.91761e-10 0)
(1 6.74308e-10 0)
(1 7.62639e-10 0)
(1 8.56012e-10 0)
(1 9.5381e-10 0)
(1 1.05555e-09 0)
(1 1.16085e-09 0)
(1 1.2694e-09 0)
(1 1.3809e-09 0)
(1 1.49496e-09 0)
(1 1.61097e-09 0)
(1 1.72791e-09 0)
(1 1.84421e-09 0)
(1 1.95759e-09 0)
(1 2.06496e-09 0)
(1 2.16225e-09 0)
(1 2.24431e-09 0)
(1 2.30473e-09 0)
(1 2.33567e-09 0)
(1 2.32752e-09 0)
(1 2.26851e-09 0)
(1 2.14411e-09 0)
(1 1.9361e-09 0)
(1 1.62149e-09 0)
(1 1.17094e-09 0)
(1 5.48389e-10 0)
(1 -2.90411e-10 0)
(1 -1.39996e-09 0)
(1 -2.8461e-09 0)
(1 -4.70845e-09 0)
(1 -7.08323e-09 0)
(1 -1.00866e-08 0)
(1 -1.38588e-08 0)
(1 -1.85687e-08 0)
(1 -2.44183e-08 0)
(1 -3.1648e-08 0)
(1 -4.05454e-08 0)
(1 -5.14604e-08 0)
(1 -6.48215e-08 0)
(1 -8.11497e-08 0)
(1 -1.0107e-07 0)
(1 -1.25323e-07 0)
(1 -1.54783e-07 0)
(1 -1.90468e-07 0)
(1 -2.33519e-07 0)
(1 -2.85175e-07 0)
(1 -3.46738e-07 0)
(1 -4.19588e-07 0)
(1 -5.05214e-07 0)
(1 -6.05204e-07 0)
(1 -7.21125e-07 0)
(1 -8.54303e-07 0)
(1 -1.00557e-06 0)
(1 -1.17503e-06 0)
(1 -1.36163e-06 0)
(1.00001 -1.56253e-06 0)
(1.00001 -1.77199e-06 0)
(1.00001 -1.98059e-06 0)
(1.00001 -2.17529e-06 0)
(1.00001 -2.34073e-06 0)
(1.00001 -2.46068e-06 0)
(1.00001 -2.51911e-06 0)
(1.00001 -2.50018e-06 0)
(1.00002 -2.38862e-06 0)
(1.00002 -2.18626e-06 0)
(1.00002 -1.91681e-06 0)
(1.00002 -1.62524e-06 0)
(1.00002 -1.37618e-06 0)
(1.00002 -1.24818e-06 0)
(1.00002 -1.3182e-06 0)
(1.00002 -1.631e-06 0)
(1.00002 -2.15704e-06 0)
(1.00003 -2.75944e-06 0)
(1.00003 -3.20778e-06 0)
(1.00003 -3.26068e-06 0)
(1.00003 -2.77687e-06 0)
(1.00003 -1.77195e-06 0)
(1.00004 -3.85431e-07 0)
(1.00004 1.2066e-06 0)
(1.00003 2.85642e-06 0)
(1.00003 4.48159e-06 0)
(1.00003 6.04622e-06 0)
(1.00002 7.52226e-06 0)
(1.00002 8.86677e-06 0)
(1.00001 1.0022e-05 0)
(1.00001 1.09179e-05 0)
(1 1.14782e-05 0)
(0.999993 1.16407e-05 0)
(0.999985 1.13798e-05 0)
(0.999978 1.07062e-05 0)
(0.999972 9.65171e-06 0)
(0.999966 8.25717e-06 0)
(0.999961 6.57183e-06 0)
(0.999958 4.65355e-06 0)
(0.999955 2.56345e-06 0)
(0.999954 3.58945e-07 0)
(0.999955 -1.90809e-06 0)
(0.999956 -4.19007e-06 0)
(0.99996 -6.44213e-06 0)
(0.999964 -8.61972e-06 0)
(0.99997 -1.06759e-05 0)
(0.999977 -1.25596e-05 0)
(0.999986 -1.42162e-05 0)
(0.999995 -1.55901e-05 0)
(1.00001 -1.6628e-05 0)
(1.00002 -1.7281e-05 0)
(1.00003 -1.75005e-05 0)
(1.00004 -1.72467e-05 0)
(1.00005 -1.64857e-05 0)
(1.00006 -1.51861e-05 0)
(1.00007 -1.33261e-05 0)
(1.00008 -1.09019e-05 0)
(1.00008 -7.93756e-06 0)
(1.00009 -4.48854e-06 0)
(1.00009 -6.50728e-07 0)
(1.00009 3.43983e-06 0)
(1.00008 7.60918e-06 0)
(1.00008 1.1653e-05 0)
(1.00007 1.53522e-05 0)
(1.00006 1.84946e-05 0)
(1.00005 2.08982e-05 0)
(1.00003 2.24333e-05 0)
(1.00002 2.30383e-05 0)
(1 2.27234e-05 0)
(0.99999 2.15633e-05 0)
(0.999976 1.9684e-05 0)
(0.999965 1.7251e-05 0)
(0.999955 1.44542e-05 0)
(0.999947 1.14796e-05 0)
(0.99994 8.47819e-06 0)
(0.999936 5.55384e-06 0)
(0.999934 2.77194e-06 0)
(0.999933 1.7514e-07 0)
(0.999933 -2.18592e-06 0)
(0.999936 -4.21609e-06 0)
(0.999939 -5.76947e-06 0)
(0.999943 -6.70213e-06 0)
(0.999948 -6.95597e-06 0)
(0.999952 -6.61706e-06 0)
(0.999956 -5.90803e-06 0)
(0.99996 -5.10589e-06 0)
(0.999962 -4.4293e-06 0)
(0.999965 -3.97433e-06 0)
(0.999967 -3.73209e-06 0)
(0.999969 -3.64338e-06 0)
(0.999971 -3.63897e-06 0)
(0.999973 -3.65864e-06 0)
(0.999976 -3.65949e-06 0)
(0.999978 -3.61731e-06 0)
(0.99998 -3.52305e-06 0)
(0.999982 -3.37824e-06 0)
(0.999984 -3.19075e-06 0)
(0.999986 -2.97148e-06 0)
(0.999988 -2.73196e-06 0)
(0.999989 -2.48293e-06 0)
(0.999991 -2.23349e-06 0)
(0.999992 -1.99083e-06 0)
(0.999993 -1.76025e-06 0)
(0.999994 -1.5453e-06 0)
(0.999995 -1.34806e-06 0)
(0.999996 -1.16944e-06 0)
(0.999997 -1.00949e-06 0)
(0.999997 -8.67586e-07 0)
(0.999998 -7.42704e-07 0)
(0.999998 -6.33546e-07 0)
(0.999998 -5.38689e-07 0)
(0.999999 -4.56672e-07 0)
(0.999999 -3.86064e-07 0)
(0.999999 -3.25505e-07 0)
(0.999999 -2.73737e-07 0)
(0.999999 -2.29613e-07 0)
(1 -1.92104e-07 0)
(1 -1.60295e-07 0)
(1 -1.3338e-07 0)
(1 -1.10654e-07 0)
(1 -9.15037e-08 0)
(1 -7.53985e-08 0)
(1 -6.18807e-08 0)
(1 -5.05569e-08 0)
(1 -4.10898e-08 0)
(1 -3.31903e-08 0)
(1 -2.66106e-08 0)
(1 -2.11381e-08 0)
(1 -1.65878e-08 0)
(1 -1.28066e-08 0)
(1 -9.61364e-09 0)
(1 -7.11693e-09 0)
(1 -3.88583e-09 0)
(1 1.75271e-11 0)
(1 5.13361e-11 0)
(1 9.08246e-11 0)
(1 1.3518e-10 0)
(1 1.82326e-10 0)
(1 2.3108e-10 0)
(1 2.81259e-10 0)
(1 3.33913e-10 0)
(1 3.90927e-10 0)
(1 4.54348e-10 0)
(1 5.2567e-10 0)
(1 6.05482e-10 0)
(1 6.93548e-10 0)
(1 7.89125e-10 0)
(1 8.91293e-10 0)
(1 9.99177e-10 0)
(1 1.11206e-09 0)
(1 1.22941e-09 0)
(1 1.35088e-09 0)
(1 1.47627e-09 0)
(1 1.60541e-09 0)
(1 1.73809e-09 0)
(1 1.87388e-09 0)
(1 2.01199e-09 0)
(1 2.15098e-09 0)
(1 2.28851e-09 0)
(1 2.42108e-09 0)
(1 2.54376e-09 0)
(1 2.65008e-09 0)
(1 2.73192e-09 0)
(1 2.77935e-09 0)
(1 2.78043e-09 0)
(1 2.72067e-09 0)
(1 2.58236e-09 0)
(1 2.34351e-09 0)
(1 1.97686e-09 0)
(1 1.44818e-09 0)
(1 7.15651e-10 0)
(1 -2.71878e-10 0)
(1 -1.57734e-09 0)
(1 -3.27754e-09 0)
(1 -5.46594e-09 0)
(1 -8.2557e-09 0)
(1 -1.17835e-08 0)
(1 -1.62144e-08 0)
(1 -2.17472e-08 0)
(1 -2.86196e-08 0)
(1 -3.71146e-08 0)
(1 -4.75702e-08 0)
(1 -6.03979e-08 -2.94865e-43)
(1 -7.61022e-08 -3.0044e-43)
(1 -9.52973e-08 0)
(1 -1.18718e-07 0)
(1 -1.47235e-07 0)
(1 -1.81878e-07 0)
(1 -2.23844e-07 0)
(1 -2.74486e-07 0)
(1 -3.35263e-07 0)
(1 -4.0771e-07 0)
(1 -4.93453e-07 0)
(1 -5.9426e-07 0)
(1 -7.12033e-07 0)
(1 -8.48674e-07 0)
(1 -1.00583e-06 0)
(1 -1.18456e-06 0)
(1 -1.38504e-06 0)
(1 -1.60608e-06 0)
(1.00001 -1.84448e-06 0)
(1.00001 -2.094e-06 0)
(1.00001 -2.34414e-06 0)
(1.00001 -2.57924e-06 0)
(1.00001 -2.77877e-06 0)
(1.00001 -2.92008e-06 0)
(1.00001 -2.98342e-06 0)
(1.00001 -2.95537e-06 0)
(1.00002 -2.8284e-06 0)
(1.00002 -2.60797e-06 0)
(1.00002 -2.31678e-06 0)
(1.00002 -1.99989e-06 0)
(1.00002 -1.72941e-06 0)
(1.00002 -1.60035e-06 0)
(1.00002 -1.71094e-06 0)
(1.00002 -2.12296e-06 0)
(1.00002 -2.80629e-06 0)
(1.00003 -3.59349e-06 0)
(1.00003 -4.19414e-06 0)
(1.00003 -4.3004e-06 0)
(1.00003 -3.73176e-06 0)
(1.00004 -2.50847e-06 0)
(1.00004 -8.09284e-07 0)
(1.00004 1.14794e-06 0)
(1.00004 3.17377e-06 0)
(1.00003 5.16964e-06 0)
(1.00003 7.09669e-06 0)
(1.00003 8.92282e-06 0)
(1.00002 1.05951e-05 0)
(1.00001 1.20421e-05 0)
(1.00001 1.31768e-05 0)
(1 1.39023e-05 0)
(0.999993 1.41392e-05 0)
(0.999985 1.38546e-05 0)
(0.999978 1.30625e-05 0)
(0.999971 1.18023e-05 0)
(0.999965 1.0124e-05 0)
(0.999961 8.08912e-06 0)
(0.999957 5.77049e-06 0)
(0.999954 3.24504e-06 0)
(0.999953 5.852e-07 0)
(0.999954 -2.14371e-06 0)
(0.999956 -4.88334e-06 0)
(0.999959 -7.5812e-06 0)
(0.999964 -1.01879e-05 0)
(0.99997 -1.26544e-05 0)
(0.999977 -1.49296e-05 0)