/*--------------------------------*- C++ -*----------------------------------*\
| =========                 |                                                 |
| \\      /  F ield         | OpenFOAM: The Open Source CFD Toolbox           |
|  \\    /   O peration     | Version:  v2006                                 |
|   \\  /    A nd           | Website:  www.openfoam.com                      |
|    \\/     M anipulation  |                                                 |
\*---------------------------------------------------------------------------*/
FoamFile
{
    version     2.0;
    format      ascii;
    class       surfaceScalarField;
    location    "4.5";
    object      alphaPhi0.water;
}
// * * * * * * * * * * * * * * * * * * * * * * * * * * * * * * * * * * * * * //

dimensions      [0 3 -1 0 0 0 0];
oriented        oriented;


internalField   nonuniform List<scalar> 
299200
(
-0.000696208
0.000696208
-0.00116473
0.000468519
-0.00166564
0.000500909
-0.0022124
0.000546764
-0.00278009
0.000567687
-0.00335338
0.000573292
-0.00392918
0.000575799
-0.0045071
0.000577925
-0.00508795
0.000580847
-0.00567246
0.000584511
-0.00626158
0.000589116
-0.00685602
0.000594442
-0.00745646
0.000600438
-0.00806352
0.000607061
-0.00867781
0.000614287
-0.00929988
0.000622076
-0.00993026
0.000630379
-0.0105694
0.000639144
-0.0112177
0.000648338
-0.0118757
0.000657927
-0.0125435
0.000667858
-0.0132216
0.000678071
-0.0139101
0.000688522
-0.0146093
0.000699177
-0.0153193
0.000709998
-0.0160402
0.000720952
-0.0167723
0.000732017
-0.0175154
0.000743178
-0.0182699
0.000754423
-0.0190356
0.000765736
-0.0198127
0.000777096
-0.0206012
0.000788483
-0.0214011
0.000799883
-0.0222124
0.000811293
-0.0230351
0.000822722
-0.0238693
0.000834183
-0.0247149
0.000845667
-0.025572
0.000857108
-0.0264404
0.000868377
-0.0273198
0.000879351
-0.0282098
0.000890057
-0.0291106
0.0009008
-0.0300227
0.000912125
-0.0309473
0.000924538
-0.0318854
0.00093808
-0.0328374
0.000951986
-0.0338021
0.000964718
-0.0347765
0.000974461
-0.0357564
0.000979898
-0.0367373
0.000980829
-0.0377154
0.000978161
-0.0386889
0.000973481
-0.0396569
0.000968034
-0.0406188
0.000961887
-0.041573
0.000954197
-0.0425175
0.000944481
-0.0434516
0.000934076
-0.0443783
0.000926733
-0.045306
0.000927738
-0.0462476
0.000941508
-0.0472164
0.000968826
-0.0482222
0.00100585
-0.0492679
0.00104571
-0.0503496
0.00108161
-0.0514588
0.00110922
-0.0525861
0.00112728
-0.0537227
0.00113667
-0.0548618
0.00113909
-0.055998
0.00113623
-0.0571273
0.00112925
-0.0582465
0.00111925
-0.0593537
0.00110712
-0.0604472
0.0010935
-0.061526
0.00107889
-0.0625897
0.00106362
-0.0636376
0.00104794
-0.0646696
0.00103199
-0.0656855
0.00101586
-0.0666851
0.000999623
-0.0676684
0.000983295
-0.0686353
0.000966891
-0.0695857
0.00095041
-0.0705195
0.000933844
-0.0714367
0.000917185
-0.0723371
0.00090043
-0.0732207
0.000883579
-0.0740874
0.000866639
-0.074937
0.000849617
-0.0757695
0.000832524
-0.0765849
0.000815376
-0.0773831
0.000798191
-0.0781641
0.000780991
-0.0789279
0.000763799
-0.0796745
0.000746637
-0.080404
0.00072953
-0.0811165
0.0007125
-0.0818121
0.000695569
-0.0824909
0.000678759
-0.0831529
0.000662089
-0.0837985
0.000645575
-0.0844277
0.00062923
-0.0850408
0.00061306
-0.0856379
0.000597066
-0.0862191
0.000581245
-0.0867847
0.000565588
-0.0873348
0.000550081
-0.0878695
0.000534705
-0.0883889
0.000519437
-0.0888932
0.000504252
-0.0893823
0.00048912
-0.0898563
0.000474012
-0.0903152
0.000458894
-0.0907589
0.000443734
-0.0911874
0.0004285
-0.0916006
0.000413161
-0.0919983
0.000397688
-0.0923803
0.000382056
-0.0927466
0.000366246
-0.0930968
0.000350243
-0.0934309
0.000334037
-0.0937485
0.000317617
-0.0940494
0.00030096
-0.0943335
0.000284018
-0.0946002
0.000266757
-0.0948495
0.000249269
-0.0950814
0.000231953
-0.095297
0.000215508
-0.0954973
0.00020031
-0.0956823
0.000184996
-0.0958472
0.000164962
-0.0959795
0.000132241
-0.0960589
7.94432e-05
-0.0960671
8.20034e-06
-0.0960178
-4.93471e-05
-0.0959302
-8.75191e-05
-0.0958147
-0.000115504
-0.0956725
-0.00014219
-0.0955042
-0.000168377
-0.0953099
-0.000194225
-0.0950899
-0.000220032
-0.0948441
-0.000245848
-0.0945725
-0.000271606
-0.0942752
-0.000297221
-0.0939526
-0.000322604
-0.093605
-0.00034766
-0.0932327
-0.000372291
-0.0928363
-0.000396413
-0.0924163
-0.000419964
-0.0919734
-0.000442917
-0.0915081
-0.000465274
-0.0910211
-0.000487049
-0.0905128
-0.000508255
-0.0899839
-0.000528885
-0.089435
-0.000548908
-0.0888667
-0.00056828
-0.0882798
-0.000586947
-0.0876749
-0.000604862
-0.0870529
-0.000621982
-0.0864147
-0.000638278
-0.0857609
-0.000653728
-0.0850926
-0.000668323
-0.0844106
-0.000682058
-0.0837156
-0.000694925
-0.0830087
-0.000706889
-0.0822909
-0.000717873
-0.0815631
-0.000727751
-0.0808267
-0.000736375
-0.0800831
-0.000743615
-0.0793337
-0.000749424
-0.0785798
-0.000753871
-0.0778227
-0.000757143
-0.0770632
-0.000759499
-0.076302
-0.000761195
-0.0755396
-0.000762421
-0.0747763
-0.000763267
-0.0740126
-0.000763736
-0.0732488
-0.000763773
-0.0724855
-0.000763308
-0.0717232
-0.000762281
-0.0709626
-0.000760652
-0.0702042
-0.0007584
-0.0694486
-0.000755516
-0.0686967
-0.000751996
-0.0679488
-0.000747845
-0.0672057
-0.000743071
-0.066468
-0.000737689
-0.0657363
-0.00073172
-0.0650111
-0.000725192
-0.064293
-0.000718136
-0.0635824
-0.000710578
-0.0628799
-0.000702526
-0.0621859
-0.000693963
-0.0615011
-0.000684846
-0.060826
-0.000675121
-0.0601612
-0.00066477
-0.0595073
-0.000653873
-0.0588647
-0.000642666
-0.0582331
-0.000631552
-0.0576121
-0.000621029
-0.0570006
-0.000611522
-0.0563974
-0.00060316
-0.0558018
-0.000595583
-0.0552139
-0.00058789
-0.0546351
-0.00057878
-0.0540683
-0.000566855
-0.0535173
-0.000550979
-0.0529867
-0.000530573
-0.052481
-0.000505728
-0.0520038
-0.000477157
-0.0515578
-0.000446008
-0.0511442
-0.000413622
-0.0507629
-0.000381303
-0.0504128
-0.000350151
-0.0500918
-0.000320972
-0.0497975
-0.00029426
-0.0495273
-0.000270242
-0.0492783
-0.000248946
-0.0490481
-0.000230266
-0.0488341
-0.000214006
-0.0486342
-0.000199909
-0.0484465
-0.000187669
-0.0482695
-0.000176956
-0.0481021
-0.000167443
-0.0479433
-0.000158844
-0.0477923
-0.000150918
-0.0476489
-0.000143466
-0.0475125
-0.000136324
-0.0473832
-0.00012936
-0.0472607
-0.000122471
-0.0471451
-0.000115572
-0.0470365
-0.000108598
-0.046935
-0.000101499
-0.0468408
-9.42328e-05
-0.046754
-8.67689e-05
-0.046675
-7.90821e-05
-0.0466038
-7.11526e-05
-0.0465408
-6.29644e-05
-0.0464863
-5.45047e-05
-0.0464406
-4.57627e-05
-0.0464038
-3.67326e-05
-0.0463764
-2.74177e-05
-0.0463586
-1.78337e-05
-0.0463505
-8.11777e-06
-0.0463524
1.88283e-06
-0.0463633
1.09127e-05
-0.0463835
2.02285e-05
-0.0464133
2.98465e-05
-0.0464531
3.97806e-05
-0.0465031
5.0022e-05
-0.0465637
6.05517e-05
-0.046635
7.13437e-05
-0.0467174
8.23408e-05
-0.0468108
9.3378e-05
-0.046916
0.000105199
-0.047033
0.000117062
-0.0471621
0.000129054
-0.0473033
0.000141213
-0.0474568
0.00015354
-0.0476228
0.000166019
-0.0478015
0.000178621
-0.0479928
0.000191327
-0.0481969
0.00020413
-0.0484139
0.00021702
-0.0486439
0.000229986
-0.0488869
0.000242995
-0.0491429
0.00025598
-0.0494117
0.000268836
-0.0496932
0.000281455
-0.049987
0.000293783
-0.0502929
0.000305878
-0.0506108
0.000317964
-0.0509412
0.000330415
-0.0512848
0.000343588
-0.0516423
0.000357458
-0.0520135
0.000371246
-0.0523971
0.00038353
-0.0527904
0.000393309
-0.0531921
0.000401722
-0.0536049
0.000412856
-0.0540367
0.000431758
-0.0544965
0.000459837
-0.0549875
0.000490947
-0.0554995
0.000512062
-0.0560117
0.000512144
-0.056497
0.000485303
-0.0569347
0.00043774
-0.057321
0.000386252
-0.057666
0.00034497
-0.0579846
0.000318621
-0.0582887
0.000304157
-0.0585852
0.000296506
-0.0588775
0.000292271
-0.0591683
0.000290747
-0.0594589
0.000290674
-0.0597502
0.000291224
-0.0600421
0.000291961
-0.0603348
0.000292664
-0.060628
0.000293194
-0.0609214
0.00029346
-0.0612148
0.000293412
-0.0615079
0.000293027
-0.0618002
0.000292295
-0.0620914
0.00029122
-0.0623812
0.00028981
-0.0626693
0.000288081
-0.0629553
0.000286055
-0.0632391
0.000283753
-0.0635203
0.000281203
-0.0637987
0.000278432
-0.0640742
0.00027547
-0.0643465
0.000272346
-0.0646156
0.000269091
-0.0648814
0.000265736
-0.0651437
0.000262312
-0.0654025
0.00025885
-0.0656579
0.000255378
-0.0659098
0.000251928
-0.0661584
0.000248525
-0.0664036
0.000245199
-0.0666455
0.000241973
-0.0668844
0.000238872
-0.0671203
0.000235919
-0.0673535
0.000233135
-0.067584
0.000230542
-0.0678122
0.000228158
-0.0680382
0.000226002
-0.0682622
0.000224088
-0.0684847
0.00022243
-0.0687057
0.00022104
-0.0689256
0.000219925
-0.0691447
0.000219094
-0.0693633
0.000218553
-0.0695816
0.000218303
-0.0697999
0.000218347
-0.0700186
0.000218682
-0.0702379
0.000219302
-0.0704581
0.000220198
-0.0706795
0.000221356
-0.0709022
0.000222759
-0.0711266
0.000224392
-0.0713529
0.000226242
-0.0715812
0.000228297
-0.0718117
0.000230539
-0.0720447
0.00023295
-0.0722802
0.000235498
-0.0725183
0.000238143
-0.0727591
0.00024085
-0.0730027
0.000243588
-0.0732491
0.000246321
-0.0734981
0.000249014
-0.0737497
0.000251627
-0.0740038
0.000254125
-0.0742603
0.000256468
-0.0745189
0.000258618
-0.0747794
0.000260535
-0.0750416
0.000262171
-0.0753051
0.000263474
-0.0755695
0.000264386
-0.0758343
0.000264859
-0.0760992
0.000264877
-0.0763637
0.000264481
-0.0766275
0.000263778
-0.0768904
0.000262904
-0.0771523
0.000261902
-0.0774128
0.000260545
-0.077671
0.000258158
-0.0779246
0.000253573
-0.0781699
0.00024533
-0.078402
0.000232152
-0.0786156
0.000213529
-0.0788057
0.000190119
-0.0789694
0.000163698
-0.079106
0.00013663
-0.0792171
0.00011109
-0.0793056
8.84476e-05
-0.0793746
6.90847e-05
-0.0794273
5.26688e-05
-0.0794659
3.86236e-05
-0.0794923
2.63485e-05
-0.0795075
1.52038e-05
-0.0795124
4.88746e-06
-0.0795086
-3.75285e-06
-0.0794969
-1.16925e-05
-0.0794776
-1.92905e-05
-0.0794507
-2.69631e-05
-0.0794157
-3.49255e-05
-0.0793726
-4.31416e-05
-0.079321
-5.16498e-05
-0.0792605
-6.04589e-05
-0.0791909
-6.95677e-05
-0.079112
-7.89725e-05
-0.0790233
-8.86697e-05
-0.0789246
-9.86549e-05
-0.0788157
-0.000108923
-0.0786962
-0.000119467
-0.078566
-0.000130281
-0.0784246
-0.000141356
-0.0782719
-0.000152684
-0.0781077
-0.000164254
-0.0779316
-0.000176058
-0.0777435
-0.000188086
-0.0775432
-0.000200327
-0.0773304
-0.000212773
-0.077105
-0.000225414
-0.0768668
-0.000238242
-0.0766155
-0.000251248
-0.0763511
-0.000264427
-0.0760733
-0.000277771
-0.075782
-0.000291272
-0.0754771
-0.000304924
-0.0751584
-0.000318714
-0.0748258
-0.00033263
-0.0744791
-0.000346657
-0.0741183
-0.000360778
-0.0737434
-0.000374975
-0.0733541
-0.000389232
-0.0729506
-0.000403531
-0.0725327
-0.000417859
-0.0721005
-0.000432202
-0.071654
-0.000446549
-0.0711931
-0.000460887
-0.0707179
-0.000475208
-0.0702284
-0.0004895
-0.0697246
-0.000503756
-0.0692067
-0.000517965
-0.0686746
-0.000532122
-0.0681283
-0.000546219
-0.0675681
-0.000560251
-0.0669939
-0.00057421
-0.0664058
-0.000588091
-0.0658039
-0.000601889
-0.0651883
-0.000615599
-0.0645591
-0.000629214
-0.0639164
-0.00064273
-0.0632602
-0.000656144
-0.0625908
-0.000669451
-0.0619081
-0.000682648
-0.0612124
-0.000695733
-0.0605037
-0.000708702
-0.0597821
-0.000721553
-0.0590478
-0.000734282
-0.058301
-0.000746887
-0.0575416
-0.000759369
-0.0567699
-0.00077173
-0.0559859
-0.000783977
-0.0551898
-0.000796119
-0.0543816
-0.000808162
-0.0535615
-0.000820106
-0.0527295
-0.000831942
-0.0518859
-0.000843647
-0.0510307
-0.000855187
-0.0501642
-0.000866522
-0.0492866
-0.000877618
-0.0483981
-0.000888448
-0.0474991
-0.000899002
-0.0465898
-0.000909282
-0.0456705
-0.000919304
-0.0447414
-0.000929086
-0.0438028
-0.000938642
-0.0428548
-0.00094798
-0.0418977
-0.000957098
-0.0409317
-0.000965988
-0.0399571
-0.000974644
-0.038974
-0.000983061
-0.0379828
-0.00099124
-0.0369836
-0.000999184
-0.0359767
-0.0010069
-0.0349623
-0.00101438
-0.0339407
-0.00102162
-0.0329121
-0.00102862
-0.0318767
-0.00103537
-0.0308349
-0.00104186
-0.0297868
-0.00104811
-0.0287327
-0.0010541
-0.0276728
-0.00105985
-0.0266074
-0.00106536
-0.0255368
-0.00107063
-0.0244611
-0.00107566
-0.0233807
-0.00108046
-0.0222956
-0.00108505
-0.0212062
-0.00108945
-0.0201125
-0.00109366
-0.0190149
-0.00109762
-0.0179136
-0.00110127
-0.0168091
-0.00110452
-0.0157019
-0.00110727
-0.0145924
-0.00110947
-0.0134813
-0.00111112
-0.0123688
-0.00111244
-0.0112549
-0.00111392
-0.0101389
-0.00111599
-0.00901935
-0.00111957
-0.00789451
-0.00112483
-0.00676615
-0.00112837
-0.00562401
-0.00114214
-0.00444562
-0.00117839
-0.00325947
-0.00118615
-0.00210821
-0.00115125
-0.000968374
-0.00113984
-0.000968374
-0.000970892
0.0016671
-0.00171087
0.0012085
-0.00253121
0.00132126
-0.00342127
0.00143682
-0.00432718
0.0014736
-0.00523157
0.00147768
-0.00613374
0.00147797
-0.00703594
0.00148013
-0.00793891
0.00148382
-0.00884239
0.00148799
-0.00974586
0.00149258
-0.0106489
0.00149748
-0.0115512
0.00150271
-0.0124523
0.00150825
-0.0133521
0.00151407
-0.0142502
0.00152015
-0.0151463
0.00152644
-0.01604
0.00153291
-0.0169312
0.00153955
-0.0178196
0.00154633
-0.018705
0.00155323
-0.0195872
0.00156023
-0.0204659
0.0015673
-0.0213412
0.00157445
-0.0222129
0.00158166
-0.0230809
0.00158895
-0.0239452
0.00159631
-0.0248057
0.00160375
-0.0256626
0.00161128
-0.0265158
0.0016189
-0.0273653
0.0016266
-0.0282112
0.00163439
-0.0290536
0.00164228
-0.0298926
0.00165027
-0.0307282
0.00165837
-0.0315606
0.00166657
-0.0323898
0.00167486
-0.0332158
0.00168317
-0.0340389
0.00169145
-0.0348592
0.00169968
-0.0356771
0.00170792
-0.0364926
0.00171631
-0.0373055
0.00172497
-0.0381148
0.00173392
-0.0389197
0.00174293
-0.0397193
0.00175156
-0.0405138
0.00175927
-0.041305
0.00176567
-0.0420959
0.00177073
-0.0428898
0.00177482
-0.0436903
0.00177859
-0.0444994
0.00178261
-0.0453186
0.00178719
-0.0461492
0.0017925
-0.0469938
0.0017988
-0.047856
0.00180676
-0.0487393
0.00181737
-0.049644
0.00183138
-0.050565
0.00184871
-0.0514917
0.0018683
-0.0524113
0.00188844
-0.0533127
0.00190724
-0.0541901
0.00192308
-0.0550435
0.00193502
-0.0558771
0.00194283
-0.0566967
0.00194687
-0.0575077
0.00194765
-0.0583143
0.00194569
-0.0591195
0.00194145
-0.0599255
0.00193529
-0.0607338
0.0019275
-0.061545
0.00191835
-0.0623596
0.00190804
-0.0631774
0.00189668
-0.063998
0.00188431
-0.0648211
0.00187099
-0.0656458
0.00185672
-0.0664715
0.00184152
-0.0672973
0.00182539
-0.0681223
0.00180834
-0.0689458
0.00179036
-0.0697668
0.00177147
-0.0705847
0.00175168
-0.0713985
0.00173102
-0.0722076
0.0017095
-0.0730112
0.00168717
-0.0738086
0.00166405
-0.0745991
0.00164016
-0.0753821
0.00161555
-0.076157
0.00159024
-0.0769231
0.00156426
-0.0776797
0.00153763
-0.0784263
0.00151037
-0.0791622
0.00148253
-0.0798867
0.00145411
-0.0805994
0.00142515
-0.0812995
0.00139566
-0.0819864
0.00136565
-0.0826594
0.00133514
-0.083318
0.00130412
-0.0839614
0.00127261
-0.0845889
0.0012406
-0.0851999
0.0012081
-0.0857938
0.00117511
-0.0863698
0.00114163
-0.0869274
0.00110766
-0.0874659
0.0010732
-0.0879847
0.00103824
-0.0884833
0.00100279
-0.088961
0.000966848
-0.0894174
0.000930405
-0.089852
0.000893468
-0.0902643
0.000856039
-0.0906539
0.000818122
-0.0910205
0.000779723
-0.0913636
0.000740846
-0.0916831
0.000701496
-0.0919785
0.00066168
-0.0922497
0.000621404
-0.0924963
0.000580684
-0.0927182
0.00053954
-0.0929153
0.000497995
-0.0930873
0.000456059
-0.0932342
0.000413708
-0.0933559
0.000370876
-0.0934513
0.000327428
-0.093519
0.000283144
-0.0935564
0.000237741
-0.0935625
0.000191069
-0.0935411
0.000143552
-0.0935052
9.64244e-05
-0.0934769
5.11179e-05
-0.0934784
9.63282e-06
-0.0934934
-3.43173e-05
-0.0935018
-7.91046e-05
-0.0934927
-0.000124602
-0.0934641
-0.000170824
-0.093415
-0.000217467
-0.0933451
-0.000264064
-0.0932548
-0.000310358
-0.0931444
-0.000356232
-0.0930144
-0.000401604
-0.0928653
-0.000446393
-0.0926973
-0.000490516
-0.0925111
-0.000533893
-0.0923069
-0.000576463
-0.0920852
-0.000618182
-0.0918461
-0.000659036
-0.09159
-0.000699024
-0.0913171
-0.000738148
-0.0910278
-0.000776398
-0.0907223
-0.000813742
-0.090401
-0.000850129
-0.0900644
-0.000885503
-0.0897129
-0.000919807
-0.0893469
-0.000952996
-0.0889667
-0.000985034
-0.0885728
-0.00101589
-0.0881655
-0.00104555
-0.0877453
-0.00107398
-0.0873124
-0.00110114
-0.0868675
-0.00112701
-0.0864109
-0.00115153
-0.0859431
-0.00117467
-0.0854646
-0.00119639
-0.0849756
-0.00121669
-0.0844764
-0.00123557
-0.083967
-0.00125305
-0.0834473
-0.00126913
-0.0829173
-0.00128382
-0.0823774
-0.0012971
-0.0818279
-0.00130895
-0.0812697
-0.00131939
-0.0807037
-0.00132843
-0.0801309
-0.00133614
-0.079552
-0.00134255
-0.0789681
-0.0013477
-0.0783798
-0.0013516
-0.0777878
-0.00135427
-0.0771928
-0.0013557
-0.0765953
-0.0013559
-0.0759959
-0.00135488
-0.0753953
-0.00135265
-0.0747939
-0.00134923
-0.0741923
-0.00134463
-0.0735911
-0.00133887
-0.0729909
-0.00133198
-0.0723921
-0.00132399
-0.0717953
-0.00131496
-0.0712009
-0.00130494
-0.0706095
-0.00129394
-0.0700215
-0.00128192
-0.0694377
-0.00126867
-0.068859
-0.00125381
-0.0682869
-0.00123686
-0.0677235
-0.00121732
-0.0671712
-0.00119494
-0.0666329
-0.0011699
-0.0661109
-0.00114297
-0.065607
-0.00111549
-0.0651211
-0.00108905
-0.0646516
-0.00106508
-0.0641951
-0.00104437
-0.063747
-0.00102682
-0.0633025
-0.00101143
-0.0628568
-0.000996682
-0.0624063
-0.00098099
-0.0619489
-0.000963167
-0.0614834
-0.000942683
-0.0610097
-0.000919664
-0.0605286
-0.000894715
-0.0600413
-0.000868656
-0.0595491
-0.0008423
-0.0590538
-0.000816303
-0.058557
-0.000791111
-0.0580602
-0.000766961
-0.0575652
-0.000743932
-0.0570735
-0.000721988
-0.0565865
-0.000701025
-0.0561055
-0.000680901
-0.0556317
-0.000661459
-0.0551661
-0.000642533
-0.0547096
-0.000623965
-0.0542629
-0.00060561
-0.0538264
-0.000587346
-0.0534008
-0.000569074
-0.0529864
-0.000550718
-0.0525836
-0.000532219
-0.0521925
-0.000513533
-0.0518134
-0.000494629
-0.0514466
-0.000475488
-0.051092
-0.000456094
-0.0507498
-0.000436441
-0.05042
-0.000416524
-0.0501027
-0.000396342
-0.049798
-0.000375898
-0.0495058
-0.000355194
-0.049226
-0.000334235
-0.0489588
-0.000313026
-0.0487039
-0.000291572
-0.0484615
-0.000269881
-0.0482313
-0.000247961
-0.0480137
-0.000225804
-0.0478085
-0.00020323
-0.0476171
-0.000180511
-0.0474394
-0.00015752
-0.0472752
-0.000134322
-0.0471245
-0.000110922
-0.0469872
-8.73123e-05
-0.0468631
-6.34865e-05
-0.0467523
-3.94684e-05
-0.0466546
-1.53798e-05
-0.0465688
7.60583e-06
-0.0464966
3.29961e-05
-0.0464375
5.79349e-05
-0.0463914
8.29463e-05
-0.0463584
0.000108183
-0.0463385
0.000133647
-0.0463317
0.000159309
-0.0463383
0.000185138
-0.046358
0.000211066
-0.0463909
0.000237023
-0.0464368
0.00026292
-0.0464955
0.000288657
-0.0465666
0.000314126
-0.0466498
0.000339226
-0.0467449
0.000363875
-0.0468514
0.000388002
-0.0469692
0.000411532
-0.0470976
0.000434347
-0.047236
0.00045629
-0.0473828
0.000477207
-0.0475363
0.000497072
-0.047695
0.000516171
-0.0478589
0.000535146
-0.0480299
0.00055456
-0.0482102
0.000573641
-0.048397
0.000588494
-0.0485753
0.000591134
-0.0487148
0.000571327
-0.0487773
0.00052231
-0.048735
0.000448655
-0.0485924
0.000369425
-0.0483925
0.000312255
-0.0482107
0.000303468
-0.0481167
0.000343727
-0.0481456
0.000415245
-0.0482931
0.000492449
-0.048531
0.000556502
-0.0488289
0.000602087
-0.0491657
0.000633293
-0.0495286
0.000655142
-0.0499103
0.000672439
-0.0503068
0.000687194
-0.0507157
0.000700072
-0.0511351
0.000711355
-0.0515636
0.00072124
-0.0520003
0.000729897
-0.0524443
0.000737457
-0.0528949
0.000744007
-0.0533515
0.000749605
-0.0538135
0.00075429
-0.0542804
0.000758092
-0.0547516
0.000761035
-0.0552267
0.000763141
-0.055705
0.000764425
-0.0561862
0.000764904
-0.0566696
0.000764595
-0.0571546
0.000763512
-0.0576408
0.000761672
-0.0581276
0.000759092
-0.0586143
0.000755793
-0.0591003
0.000751794
-0.0595852
0.00074712
-0.0600681
0.000741796
-0.0605486
0.000735852
-0.061026
0.00072932
-0.0614997
0.000722232
-0.0619691
0.000714625
-0.0624337
0.000706535
-0.0628928
0.000698001
-0.0633459
0.000689063
-0.0637926
0.00067976
-0.0642322
0.000670133
-0.0646642
0.000660222
-0.0650883
0.000650066
-0.0655039
0.000639702
-0.0659106
0.000629169
-0.0663081
0.000618503
-0.0666959
0.000607739
-0.0670737
0.00059691
-0.0674412
0.000586046
-0.0677981
0.000575176
-0.0681441
0.000564322
-0.0684789
0.000553508
-0.0688023
0.00054275
-0.0691142
0.000532064
-0.0694143
0.000521462
-0.0697025
0.000510953
-0.0699787
0.000500544
-0.0702427
0.000490241
-0.0704944
0.000480044
-0.0707338
0.000469951
-0.0709608
0.00045996
-0.0711754
0.00045006
-0.0713775
0.000440237
-0.0715671
0.000430479
-0.0717443
0.000420771
-0.0719091
0.000411097
-0.0720615
0.000401437
-0.0722016
0.000391769
-0.0723296
0.000382067
-0.0724454
0.000372303
-0.0725492
0.000362448
-0.0726412
0.000352472
-0.0727214
0.000342342
-0.0727899
0.000332021
-0.072847
0.000321472
-0.0728928
0.000310656
-0.0729274
0.00029953
-0.072951
0.000288046
-0.0729634
0.000276155
-0.0729643
0.00026381
-0.0729534
0.000250997
-0.0729306
0.000237776
-0.0728968
0.000224335
-0.0728542
0.000211023
-0.0728072
0.00019831
-0.0727617
0.00018668
-0.0727247
0.000176454
-0.0727022
0.00016765
-0.0726984
0.000159945
-0.0727146
0.00015276
-0.0727489
0.000145445
-0.0727979
0.000137462
-0.0728573
0.000128487
-0.0729231
0.000118412
-0.0729917
0.000107252
-0.0730605
9.50809e-05
-0.0731273
8.20483e-05
-0.0731907
6.83328e-05
-0.0732484
5.38798e-05
-0.0732985
3.84081e-05
-0.07334
2.2237e-05
-0.0733725
5.56424e-06
-0.0733955
-1.1943e-05
-0.0734087
-2.99911e-05
-0.0734117
-4.86505e-05
-0.0734042
-6.7904e-05
-0.073386
-8.77365e-05
-0.0733569
-0.00010814
-0.0733164
-0.000129106
-0.0732645
-0.000150627
-0.0732007
-0.00017269
-0.0731249
-0.000195284
-0.0730368
-0.000218395
-0.0729361
-0.000242005
-0.0728227
-0.000266098
-0.0726963
-0.000290654
-0.0725567
-0.000315655
-0.0724037
-0.000341078
-0.0722371
-0.000366904
-0.0720568
-0.00039311
-0.0718625
-0.000419675
-0.0716542
-0.000446578
-0.0714317
-0.000473796
-0.0711948
-0.00050131
-0.0709435
-0.000529097
-0.0706776
-0.000557134
-0.0703971
-0.000585398
-0.070102
-0.000613862
-0.0697921
-0.000642496
-0.0694675
-0.000671269
-0.0691281
-0.000700148
-0.068774
-0.000729102
-0.0684051
-0.000758098
-0.0680216
-0.000787109
-0.0676233
-0.000816108
-0.0672104
-0.000845073
-0.066783
-0.000873985
-0.0663411
-0.000902825
-0.0658847
-0.000931578
-0.065414
-0.000960226
-0.064929
-0.000988752
-0.0644298
-0.00101714
-0.0639165
-0.00104538
-0.0633893
-0.00107344
-0.0628482
-0.00110133
-0.0622934
-0.00112901
-0.061725
-0.0011565
-0.0611432
-0.00118376
-0.0605479
-0.0012108
-0.0599396
-0.00123761
-0.0593181
-0.00126416
-0.0586838
-0.00129046
-0.0580367
-0.0013165
-0.0573771
-0.00134227
-0.0567051
-0.00136776
-0.0560208
-0.00139296
-0.0553245
-0.00141788
-0.0546163
-0.0014425
-0.0538963
-0.00146683
-0.0531649
-0.00149085
-0.052422
-0.00151457
-0.051668
-0.00153799
-0.050903
-0.00156111
-0.0501272
-0.00158394
-0.0493409
-0.00160646
-0.0485442
-0.00162866
-0.0477373
-0.00165052
-0.0469205
-0.00167202
-0.0460939
-0.00169311
-0.0452578
-0.00171374
-0.0444123
-0.00173388
-0.0435578
-0.00175348
-0.0426946
-0.00177254
-0.0418229
-0.00179104
-0.0409429
-0.001809
-0.0400551
-0.00182645
-0.0391597
-0.00184341
-0.0382569
-0.00185989
-0.037347
-0.00187589
-0.0364302
-0.0018914
-0.0355069
-0.00190643
-0.0345772
-0.00192095
-0.0336414
-0.00193497
-0.0326998
-0.00194849
-0.0317526
-0.00196151
-0.0308002
-0.00197403
-0.0298428
-0.00198604
-0.0288807
-0.00199753
-0.027914
-0.0020085
-0.0269432
-0.00201894
-0.0259684
-0.00202885
-0.02499
-0.00203825
-0.0240083
-0.00204714
-0.0230234
-0.00205552
-0.0220356
-0.00206342
-0.0210452
-0.00207083
-0.0200525
-0.00207779
-0.0190577
-0.0020843
-0.018061
-0.00209036
-0.0170626
-0.00209596
-0.0160628
-0.00210106
-0.0150618
-0.00210559
-0.0140595
-0.00210953
-0.013056
-0.00211294
-0.0120511
-0.00211601
-0.0110445
-0.00211906
-0.010036
-0.00212244
-0.00902538
-0.0021266
-0.00801327
-0.00213167
-0.00700214
-0.00213596
-0.00599467
-0.00213584
-0.00500227
-0.00213454
-0.00404818
-0.00213248
-0.0031057
-0.00212864
-0.00204876
-0.00220819
-0.000865662
-0.00232294
-0.00183404
-0.000928541
0.00259564
-0.00163131
0.00191127
-0.00242174
0.00211168
-0.00328898
0.00230406
-0.00417163
0.00235625
-0.00504902
0.00235507
-0.00592183
0.00235078
-0.00679353
0.00235183
-0.00766518
0.00235546
-0.00853611
0.00235892
-0.00940541
0.00236189
-0.0102724
0.00236443
-0.0111364
0.00236672
-0.0119969
0.00236882
-0.0128536
0.00237076
-0.013706
0.00237255
-0.0145538
0.00237423
-0.0153968
0.00237584
-0.0162346
0.00237742
-0.0170673
0.002379
-0.0178947
0.00238063
-0.0187168
0.00238237
-0.0195338
0.00238424
-0.0203456
0.00238631
-0.0211526
0.00238862
-0.0219549
0.00239122
-0.0227527
0.00239415
-0.0235464
0.00239745
-0.0243363
0.00240116
-0.0251227
0.00240532
-0.025906
0.00240994
-0.0266867
0.00241507
-0.0274652
0.00242072
-0.0282418
0.00242691
-0.0290171
0.00243364
-0.0297914
0.00244093
-0.0305653
0.00244876
-0.0313393
0.00245715
-0.0321139
0.0024661
-0.0328899
0.00247562
-0.0336676
0.00248564
-0.0344473
0.00249603
-0.035229
0.0025066
-0.0360123
0.00251722
-0.0367972
0.00252787
-0.0375843
0.00253869
-0.038375
0.0025499
-0.039171
0.00256168
-0.0399743
0.00257406
-0.0407864
0.00258693
-0.041608
0.00260016
-0.0424391
0.00261375
-0.0432799
0.00262796
-0.0441308
0.00264341
-0.0449928
0.00266077
-0.0458663
0.0026803
-0.0467504
0.00270142
-0.0476417
0.0027227
-0.0485354
0.0027424
-0.0494263
0.00275918
-0.0503105
0.00277266
-0.0511867
0.00278344
-0.0520561
0.0027925
-0.0529216
0.00280049
-0.053786
0.0028073
-0.0546515
0.00281236
-0.055519
0.00281506
-0.0563885
0.00281525
-0.0572602
0.00281313
-0.0581339
0.00280898
-0.0590094
0.00280297
-0.0598862
0.00279517
-0.0607637
0.0027856
-0.0616413
0.00277427
-0.0625182
0.0027612
-0.0633936
0.0027464
-0.0642668
0.00272988
-0.0651369
0.00271167
-0.0660033
0.00269177
-0.0668652
0.00267021
-0.0677218
0.00264701
-0.0685726
0.00262221
-0.0694167
0.00259586
-0.0702537
0.00256801
-0.071083
0.00253873
-0.0719039
0.00250806
-0.0727159
0.00247607
-0.0735185
0.00244282
-0.0743114
0.00240837
-0.0750939
0.00237278
-0.0758657
0.00233609
-0.0766265
0.00229837
-0.0773758
0.00225966
-0.0781132
0.00221999
-0.0788385
0.00217941
-0.0795513
0.00213794
-0.0802512
0.00209561
-0.080938
0.00205244
-0.0816113
0.00200844
-0.0822708
0.00196361
-0.0829162
0.00191795
-0.083547
0.00187145
-0.0841631
0.00182413
-0.0847639
0.00177596
-0.0853492
0.00172695
-0.0859186
0.00167709
-0.0864718
0.00162638
-0.0870084
0.0015748
-0.0875279
0.00152234
-0.0880301
0.00146901
-0.0885145
0.00141479
-0.0889807
0.00135969
-0.0894283
0.00130368
-0.089857
0.00124678
-0.0902662
0.00118897
-0.0906557
0.00113027
-0.0910248
0.00107067
-0.0913733
0.00101018
-0.0917007
0.000948786
-0.0920065
0.000886498
-0.0922903
0.000823321
-0.0925516
0.00075928
-0.09279
0.000694421
-0.0930051
0.000628802
-0.0931966
0.000562449
-0.0933645
0.000495294
-0.0935085
0.000427146
-0.0936286
0.000357838
-0.0937251
0.000287574
-0.0937988
0.000217205
-0.0938504
0.000148117
-0.0938812
8.19186e-05
-0.0938894
1.78064e-05
-0.0938774
-4.63833e-05
-0.0938428
-0.00011365
-0.0937843
-0.000183095
-0.0937035
-0.000251628
-0.0936018
-0.000319156
-0.0934799
-0.000386027
-0.093338
-0.000452258
-0.0931764
-0.000517757
-0.0929956
-0.000582432
-0.0927958
-0.000646199
-0.0925773
-0.000708986
-0.0923405
-0.000770729
-0.0920856
-0.000831387
-0.0918128
-0.00089093
-0.0915225
-0.000949336
-0.091215
-0.00100658
-0.0908905
-0.00106263
-0.0905495
-0.00111742
-0.0901923
-0.0011709
-0.0898194
-0.00122302
-0.0894312
-0.00127371
-0.0890281
-0.00132294
-0.0886104
-0.00137069
-0.0881785
-0.00141695
-0.0877327
-0.00146168
-0.0872734
-0.00150486
-0.0868009
-0.00154648
-0.0863155
-0.00158651
-0.0858176
-0.00162492
-0.0853074
-0.00166171
-0.0847852
-0.00169686
-0.0842513
-0.00173036
-0.0837057
-0.00176222
-0.0831489
-0.00179237
-0.0825812
-0.00182073
-0.0820032
-0.00184715
-0.0814156
-0.00187145
-0.0808192
-0.00189352
-0.0802149
-0.00191327
-0.0796035
-0.00193071
-0.078986
-0.00194592
-0.0783632
-0.001959
-0.0777357
-0.00197006
-0.0771042
-0.00197916
-0.0764695
-0.00198635
-0.0758321
-0.00199166
-0.0751927
-0.0019951
-0.0745519
-0.0019967
-0.0739103
-0.00199647
-0.0732685
-0.00199444
-0.0726271
-0.00199063
-0.0719867
-0.00198507
-0.0713478
-0.00197779
-0.0707109
-0.00196884
-0.0700766
-0.00195825
-0.0694455
-0.00194609
-0.0688181
-0.00193237
-0.0681949
-0.00191707
-0.0675768
-0.00190005
-0.0669644
-0.00188104
-0.0663586
-0.00185964
-0.06576
-0.00183545
-0.0651691
-0.00180823
-0.0645859
-0.00177814
-0.0640099
-0.00174592
-0.0634399
-0.00171292
-0.0628745
-0.00168088
-0.062312
-0.00165155
-0.0617509
-0.00162617
-0.0611903
-0.00160505
-0.0606296
-0.00158746
-0.0600693
-0.00157179
-0.0595099
-0.00155605
-0.0589525
-0.00153842
-0.058398
-0.00151767
-0.0578473
-0.00149332
-0.0573014
-0.00146555
-0.0567612
-0.001435
-0.0562274
-0.00140245
-0.055701
-0.00136866
-0.0551831
-0.00133423
-0.0546746
-0.0012996
-0.0541765
-0.00126507
-0.0536896
-0.0012308
-0.0532147
-0.0011969
-0.0527523
-0.00116341
-0.0523029
-0.00113033
-0.0518667
-0.00109761
-0.0514441
-0.00106518
-0.0510351
-0.00103297
-0.0506398
-0.00100088
-0.0502583
-0.000968857
-0.0498905
-0.000936837
-0.0495365
-0.000904775
-0.0491961
-0.000872637
-0.0488692
-0.000840393
-0.0485558
-0.000808025
-0.0482558
-0.000775519
-0.047969
-0.000742863
-0.0476954
-0.000710051
-0.0474348
-0.00067708
-0.0471872
-0.000643949
-0.0469525
-0.000610658
-0.0467305
-0.000577208
-0.0465211
-0.0005436
-0.0463243
-0.000509834
-0.0461399
-0.000475912
-0.045968
-0.000441835
-0.0458084
-0.000407603
-0.045661
-0.000373196
-0.0455256
-0.000338562
-0.0454024
-0.000303775
-0.0452911
-0.00026882
-0.0451917
-0.000233712
-0.0451041
-0.000198462
-0.0450284
-0.000163071
-0.0449643
-0.000127553
-0.0449118
-9.19398e-05
-0.0448709
-5.63113e-05
-0.0448425
-2.07926e-05
-0.0448257
1.61389e-05
-0.0448203
5.26056e-05
-0.0448266
8.92052e-05
-0.0448443
0.000125949
-0.0448736
0.000162854
-0.0449141
0.000199891
-0.044966
0.000237019
-0.0450291
0.000274151
-0.0451033
0.000311244
-0.0451887
0.000348254
-0.0452851
0.000385062
-0.0453925
0.000421597
-0.0455111
0.000457792
-0.0456408
0.000493607
-0.0457818
0.000528997
-0.0459342
0.000563871
-0.0460978
0.000598008
-0.0462726