/*--------------------------------*- C++ -*----------------------------------*\
| =========                 |                                                 |
| \\      /  F ield         | OpenFOAM: The Open Source CFD Toolbox           |
|  \\    /   O peration     | Version:  v2006                                 |
|   \\  /    A nd           | Website:  www.openfoam.com                      |
|    \\/     M anipulation  |                                                 |
\*---------------------------------------------------------------------------*/
FoamFile
{
    version     2.0;
    format      ascii;
    class       volScalarField;
    location    "4.5";
    object      p_rgh;
}
// * * * * * * * * * * * * * * * * * * * * * * * * * * * * * * * * * * * * * //

dimensions      [1 -1 -2 0 0 0 0];


internalField   nonuniform List<scalar> 
150000
(
-1041.12
-1041.54
-1042.2
-1043.13
-1044.38
-1045.97
-1047.88
-1050.12
-1052.68
-1055.55
-1058.73
-1062.2
-1065.97
-1070.01
-1074.32
-1078.89
-1083.7
-1088.73
-1093.98
-1099.43
-1105.06
-1110.85
-1116.78
-1122.84
-1129
-1135.25
-1141.56
-1147.92
-1154.29
-1160.67
-1167.01
-1173.31
-1179.53
-1185.65
-1191.65
-1197.49
-1203.17
-1208.64
-1213.89
-1218.89
-1223.62
-1228.04
-1232.14
-1235.89
-1239.26
-1242.22
-1244.75
-1246.83
-1248.43
-1249.55
-1250.18
-1250.28
-1249.83
-1248.83
-1247.25
-1245.08
-1242.31
-1238.95
-1234.97
-1230.35
-1225.05
-1219.05
-1212.33
-1204.9
-1196.76
-1187.93
-1178.42
-1168.24
-1157.38
-1145.85
-1133.64
-1120.74
-1107.17
-1092.92
-1077.98
-1062.37
-1046.08
-1029.13
-1011.51
-993.221
-974.281
-954.692
-934.461
-913.595
-892.104
-869.995
-847.279
-823.967
-800.068
-775.595
-750.559
-724.974
-698.851
-672.205
-645.049
-617.398
-589.265
-560.665
-531.612
-502.12
-472.205
-441.878
-411.155
-380.049
-348.572
-316.737
-284.554
-252.037
-219.194
-186.036
-152.572
-118.809
-84.757
-50.4213
-15.8088
19.0749
54.2245
89.6355
125.304
161.225
197.396
233.814
270.476
307.377
344.513
381.881
419.48
457.315
495.392
533.72
572.284
611.012
649.826
688.641
727.825
767.238
806.831
846.581
886.469
926.48
966.597
1006.8
1047.08
1087.42
1127.78
1168.16
1208.52
1248.85
1289.12
1329.31
1369.38
1409.32
1449.09
1488.67
1528.02
1567.12
1605.94
1644.45
1682.61
1720.4
1757.78
1794.74
1831.22
1867.22
1902.68
1937.6
1971.93
2005.66
2038.74
2071.17
2102.9
2133.93
2164.22
2193.75
2222.5
2250.45
2277.58
2303.87
2329.32
2353.89
2377.58
2400.38
2422.27
2443.25
2463.31
2482.44
2500.64
2517.91
2534.23
2549.63
2564.08
2577.61
2590.2
2601.88
2612.63
2622.49
2631.44
2639.51
2646.71
2653.05
2658.54
2663.2
2667.05
2670.1
2672.38
2673.9
2674.68
2674.77
2674.18
2672.94
2671.07
2668.6
2665.55
2661.95
2657.82
2653.18
2648.07
2642.5
2636.5
2630.1
2623.33
2616.21
2608.77
2601.05
2593.06
2584.84
2576.41
2567.81
2559.05
2550.18
2541.21
2532.17
2523.09
2513.99
2504.91
2495.86
2486.87
2477.96
2469.16
2460.49
2451.97
2443.63
2435.47
2427.52
2419.81
2412.35
2405.16
2398.26
2391.66
2385.38
2379.43
2373.82
2368.56
2363.69
2359.2
2355.1
2351.4
2348.11
2345.23
2342.77
2340.74
2339.14
2337.97
2337.23
2336.93
2337.06
2337.63
2338.64
2340.07
2341.92
2344.2
2346.88
2349.98
2353.47
2357.35
2361.61
2366.24
2371.21
2376.51
2382.13
2388.08
2394.36
2400.94
2407.78
2414.85
2422.11
2429.56
2437.21
2445.06
2453.11
2461.33
2469.67
2478.11
2486.63
2495.19
2503.78
2512.37
2520.93
2529.45
2537.9
2546.26
2554.5
2562.61
2570.56
2578.33
2585.9
2593.24
2600.34
2607.17
2613.72
2619.96
2625.88
2631.45
2636.66
2641.5
2645.94
2649.97
2653.58
2656.75
2659.47
2661.72
2663.51
2664.81
2665.62
2665.93
2665.73
2665.02
2663.8
2662.05
2659.78
2656.99
2653.67
2649.82
2645.46
2640.58
2635.18
2629.27
2622.85
2615.94
2608.54
2600.66
2592.3
2583.49
2574.22
2564.52
2554.39
2543.84
2532.9
2521.57
2509.88
2497.83
2485.45
2472.74
2459.73
2446.43
2432.87
2419.05
2404.99
2390.73
2376.26
2361.61
2346.8
2331.85
2316.77
2301.59
2286.33
2271
2255.62
2240.21
2224.78
2209.35
2193.93
2178.53
2163.19
2147.92
2132.74
2117.66
2102.71
2087.89
2073.21
2058.68
2044.33
2030.16
2016.21
2002.47
1988.94
1975.65
1962.61
1949.81
1937.28
1925.02
1913.05
1901.36
1889.97
1878.89
1868.12
1857.67
1847.55
1837.75
1828.29
1819.17
1810.4
1801.97
1793.89
1786.17
1778.79
1771.78
1765.12
1758.82
1752.88
1747.3
1742.07
1737.2
1732.69
1728.53
1724.71
1721.25
1718.13
1715.35
1712.91
1710.8
1709.02
1707.56
1706.43
1705.6
1705.09
1704.87
1704.96
1705.33
1705.98
1706.91
1708.11
1709.57
1711.28
1713.24
1715.44
1717.87
1720.52
1723.38
1726.44
1729.7
1733.15
1736.77
1740.57
1744.52
1748.62
1752.86
1757.24
1761.73
1766.34
1771.05
1775.85
1780.74
1785.7
1790.72
1795.8
1800.92
1806.08
1811.27
1816.47
1821.68
1826.89
1832.09
1837.27
1842.42
1847.54
1852.62
1857.64
1862.6
1867.49
1872.31
1877.04
1881.68
1886.23
1890.66
1894.99
1899.2
1903.28
1907.23
1911.04
1914.72
1918.24
1921.61
1924.82
1927.87
1930.75
1933.46
1935.99
1938.35
1940.52
1942.51
1944.31
1945.92
1947.34
1948.58
1949.58
1950.39
1951.1
1951.28
1951.36
-1040.92
-1041.36
-1042
-1042.91
-1044.17
-1045.75
-1047.67
-1049.91
-1052.47
-1055.35
-1058.53
-1062.02
-1065.79
-1069.84
-1074.16
-1078.74
-1083.55
-1088.6
-1093.86
-1099.32
-1104.96
-1110.77
-1116.71
-1122.79
-1128.97
-1135.23
-1141.56
-1147.94
-1154.33
-1160.72
-1167.08
-1173.4
-1179.64
-1185.78
-1191.8
-1197.67
-1203.36
-1208.86
-1214.13
-1219.15
-1223.89
-1228.34
-1232.46
-1236.22
-1239.61
-1242.6
-1245.17
-1247.29
-1248.94
-1250.1
-1250.75
-1250.87
-1250.45
-1249.46
-1247.89
-1245.71
-1242.92
-1239.5
-1235.44
-1230.72
-1225.36
-1219.34
-1212.65
-1205.29
-1197.24
-1188.51
-1179.08
-1168.95
-1158.14
-1146.64
-1134.45
-1121.57
-1108
-1093.75
-1078.82
-1063.2
-1046.91
-1029.95
-1012.32
-994.033
-975.086
-955.489
-935.25
-914.376
-892.876
-870.758
-848.032
-824.71
-800.8
-776.316
-751.269
-725.671
-699.536
-672.878
-645.709
-618.045
-589.899
-561.286
-532.22
-502.716
-472.788
-442.45
-411.716
-380.599
-349.113
-317.269
-285.079
-252.555
-219.707
-186.544
-153.077
-119.312
-85.258
-50.9217
-16.3093
18.5736
53.7219
89.1311
124.797
160.716
196.885
233.299
269.957
306.856
343.992
381.364
418.964
456.778
494.789
532.983
571.367
609.991
648.909
688.295
727.653
767.124
806.739
846.496
886.39
926.406
966.529
1006.74
1047.03
1087.37
1127.74
1168.12
1208.5
1248.84
1289.12
1329.31
1369.4
1409.34
1449.13
1488.71
1528.08
1567.19
1606.02
1644.54
1682.72
1720.52
1757.92
1794.89
1831.39
1867.4
1902.88
1937.81
1972.16
2005.9
2039.01
2071.45
2103.2
2134.24
2164.54
2194.09
2222.86
2250.82
2277.97
2304.27
2329.73
2354.31
2378.02
2400.83
2422.73
2443.72
2463.79
2482.92
2501.13
2518.4
2534.74
2550.13
2564.59
2578.12
2590.72
2602.39
2613.15
2623
2631.96
2640.03
2647.23
2653.56
2659.05
2663.7
2667.54
2670.58
2672.84
2674.35
2675.14
2675.22
2674.63
2673.38
2671.51
2669.03
2665.97
2662.35
2658.2
2653.55
2648.41
2642.82
2636.8
2630.38
2623.59
2616.45
2608.99
2601.24
2593.23
2584.99
2576.54
2567.92
2559.15
2550.25
2541.27
2532.21
2523.11
2514
2504.9
2495.83
2486.83
2477.9
2469.09
2460.4
2451.87
2443.51
2435.35
2427.4
2419.69
2412.23
2405.03
2398.13
2391.52
2385.24
2379.29
2373.68
2368.41
2363.53
2359.04
2354.93
2351.23
2347.93
2345.05
2342.59
2340.56
2338.95
2337.78
2337.05
2336.75
2336.88
2337.46
2338.46
2339.89
2341.76
2344.04
2346.74
2349.84
2353.34
2357.23
2361.49
2366.13
2371.13
2376.49
2382.18
2388.14
2394.33
2400.72
2407.34
2414.18
2421.34
2428.86
2436.68
2444.72
2452.91
2461.21
2469.61
2478.09
2486.63
2495.21
2503.82
2512.42
2521
2529.53
2537.99
2546.37
2554.62
2562.75
2570.71
2578.49
2586.07
2593.43
2600.54
2607.38
2613.94
2620.19
2626.12
2631.7
2636.93
2641.77
2646.22
2650.26
2653.88
2657.06
2659.79
2662.05
2663.85
2665.15
2665.97
2666.28
2666.09
2665.39
2664.16
2662.42
2660.15
2657.36
2654.04
2650.2
2645.83
2640.95
2635.54
2629.63
2623.21
2616.29
2608.88
2600.99
2592.63
2583.8
2574.53
2564.81
2554.67
2544.11
2533.16
2521.82
2510.11
2498.05
2485.65
2472.92
2459.89
2446.58
2432.99
2419.16
2405.08
2390.79
2376.31
2361.64
2346.81
2331.83
2316.73
2301.52
2286.2
2270.81
2255.35
2239.85
2224.35
2208.86
2193.42
2178.04
2162.73
2147.51
2132.38
2117.35
2102.43
2087.64
2072.99
2058.5
2044.18
2030.04
2016.08
2002.33
1988.8
1975.5
1962.45
1949.65
1937.11
1924.85
1912.86
1901.17
1889.78
1878.69
1867.92
1857.46
1847.33
1837.53
1828.07
1818.95
1810.17
1801.73
1793.65
1785.92
1778.55
1771.53
1764.87
1758.57
1752.63
1747.04
1741.81
1736.94
1732.43
1728.26
1724.45
1720.98
1717.86
1715.08
1712.64
1710.53
1708.75
1707.29
1706.15
1705.33
1704.81
1704.6
1704.68
1705.05
1705.7
1706.63
1707.83
1709.29
1711
1712.96
1715.16
1717.58
1720.23
1723.09
1726.16
1729.42
1732.87
1736.49
1740.28
1744.24
1748.34
1752.58
1756.95
1761.45
1766.06
1770.76
1775.57
1780.45
1785.41
1790.43
1795.51
1800.63
1805.79
1810.98
1816.18
1821.39
1826.6
1831.8
1836.98
1842.14
1847.25
1852.33
1857.35
1862.31
1867.2
1872.02
1876.75
1881.39
1885.94
1890.38
1894.7
1898.91
1902.99
1906.94
1910.76
1914.43
1917.95
1921.32
1924.54
1927.59
1930.47
1933.18
1935.71
1938.07
1940.25
1942.23
1944.03
1945.64
1947.05
1948.28
1949.27
1950.1
1950.84
1951.04
1951.12
-1040.85
-1041.28
-1041.9
-1042.82
-1044.08
-1045.68
-1047.6
-1049.85
-1052.43
-1055.31
-1058.51
-1062.01
-1065.79
-1069.86
-1074.2
-1078.8
-1083.64
-1088.71
-1093.99
-1099.48
-1105.14
-1110.97
-1116.95
-1123.06
-1129.27
-1135.57
-1141.93
-1148.34
-1154.76
-1161.19
-1167.59
-1173.94
-1180.22
-1186.4
-1192.46
-1198.37
-1204.11
-1209.64
-1214.96
-1220.02
-1224.8
-1229.29
-1233.45
-1237.25
-1240.68
-1243.7
-1246.29
-1248.44
-1250.12
-1251.31
-1251.99
-1252.14
-1251.74
-1250.78
-1249.24
-1247.1
-1244.36
-1240.99
-1236.99
-1232.34
-1227.02
-1221.01
-1214.32
-1206.94
-1198.87
-1190.11
-1180.66
-1170.53
-1159.71
-1148.19
-1135.99
-1123.09
-1109.51
-1095.25
-1080.3
-1064.67
-1048.36
-1031.38
-1013.73
-995.416
-976.447
-956.826
-936.562
-915.663
-894.136
-871.99
-849.236
-825.883
-801.944
-777.428
-752.349
-726.718
-700.55
-673.858
-646.655
-618.956
-590.775
-562.127
-533.026
-503.487
-473.524
-443.152
-412.383
-381.233
-349.713
-317.836
-285.614
-253.059
-220.18
-186.988
-153.492
-119.699
-85.6187
-51.2569
-16.6201
18.2861
53.4566
88.887
124.573
160.512
196.699
233.133
269.809
306.725
343.879
381.268
418.888
456.738
494.813
533.101
571.58
610.258
649.174
688.188
727.455
766.909
806.531
846.305
886.216
926.249
966.39
1006.62
1046.93
1087.29
1127.68
1168.09
1208.48
1248.85
1289.15
1329.37
1369.48
1409.46
1449.27
1488.89
1528.28
1567.43
1606.29
1644.84
1683.05
1720.88
1758.31
1795.31
1831.85
1867.89
1903.4
1938.37
1972.75
2006.52
2039.65
2072.13
2103.91
2134.98
2165.31
2194.88
2223.67
2251.66
2278.83
2305.16
2330.64
2355.24
2378.96
2401.79
2423.71
2444.71
2464.79
2483.94
2502.15
2519.43
2535.77
2551.17
2565.63
2579.16
2591.76
2603.43
2614.18
2624.03
2632.97
2641.03
2648.21
2654.53
2660
2664.64
2668.46
2671.49
2673.75
2675.25
2676.02
2676.09
2675.48
2674.21
2672.3
2669.79
2666.7
2663.04
2658.86
2654.16
2648.99
2643.36
2637.3
2630.84
2624.01
2616.83
2609.33
2601.55
2593.5
2585.22
2576.74
2568.08
2559.27
2550.34
2541.32
2532.23
2523.1
2513.95
2504.82
2495.72
2486.68
2477.73
2468.88
2460.17
2451.61
2443.22
2435.03
2427.05
2419.31
2411.82
2404.6
2397.66
2391.03
2384.72
2378.74
2373.1
2367.84
2362.95
2358.44
2354.32
2350.6
2347.29
2344.39
2341.92
2339.88
2338.26
2337.08
2336.34
2336.03
2336.16
2336.73
2337.73
2339.17
2341.03
2343.31
2346.01
2349.11
2352.62
2356.51
2360.79
2365.44
2370.44
2375.79
2381.48
2387.5
2393.82
2400.4
2407.2
2414.21
2421.44
2428.9
2436.59
2444.52
2452.65
2460.94
2469.35
2477.85
2486.41
2495.02
2503.65
2512.29
2520.9
2529.46
2537.96
2546.36
2554.65
2562.81
2570.8
2578.62
2586.23
2593.61
2600.75
2607.63
2614.22
2620.5
2626.45
2632.06
2637.31
2642.18
2646.66
2650.72
2654.36
2657.56
2660.31
2662.59
2664.4
2665.72
2666.55
2666.88
2666.7
2666.01
2664.79
2663.05
2660.79
2658
2654.69
2650.85
2646.48
2641.59
2636.19
2630.27
2623.85
2616.93
2609.51
2601.61
2593.24
2584.4
2575.12
2565.39
2555.23
2544.66
2533.69
2522.34
2510.61
2498.53
2486.12
2473.38
2460.33
2447
2433.4
2419.54
2405.45
2391.14
2376.64
2361.96
2347.11
2332.12
2317.01
2301.79
2286.49
2271.11
2255.68
2240.21
2224.72
2209.24
2193.77
2178.33
2162.96
2147.66
2132.45
2117.36
2102.38
2087.53
2072.84
2058.3
2043.95
2029.78
2015.8
2002.04
1988.49
1975.18
1962.11
1949.3
1936.75
1924.47
1912.47
1900.77
1889.37
1878.27
1867.48
1857.02
1846.88
1837.07
1827.6
1818.47
1809.68
1801.24
1793.15
1785.42
1778.04
1771.02
1764.35
1758.05
1752.1
1746.51
1741.28
1736.4
1731.88
1727.71
1723.9
1720.43
1717.3
1714.52
1712.08
1709.96
1708.18
1706.72
1705.58
1704.76
1704.24
1704.03
1704.11
1704.48
1705.13
1706.06
1707.26
1708.72
1710.43
1712.39
1714.59
1717.01
1719.66
1722.53
1725.59
1728.85
1732.3
1735.93
1739.72
1743.68
1747.78
1752.02
1756.4
1760.9
1765.51
1770.22
1775.02
1779.91
1784.87
1789.9
1794.98
1800.1
1805.26
1810.45
1815.65
1820.87
1826.08
1831.28
1836.47
1841.62
1846.75
1851.82
1856.85
1861.81
1866.71
1871.53
1876.26
1880.91
1885.45
1889.9
1894.23
1898.44
1902.52
1906.48
1910.29
1913.97
1917.49
1920.87
1924.08
1927.14
1930.02
1932.73
1935.27
1937.63
1939.81
1941.8
1943.6
1945.2
1946.62
1947.85
1948.85
1949.67
1950.42
1950.61
1950.68
-1040.74
-1041.17
-1041.8
-1042.72
-1043.98
-1045.58
-1047.52
-1049.78
-1052.37
-1055.27
-1058.48
-1061.99
-1065.8
-1069.89
-1074.25
-1078.87
-1083.74
-1088.84
-1094.16
-1099.67
-1105.38
-1111.24
-1117.26
-1123.4
-1129.66
-1136
-1142.41
-1148.86
-1155.34
-1161.82
-1168.27
-1174.67
-1181.01
-1187.24
-1193.35
-1199.32
-1205.11
-1210.71
-1216.08
-1221.2
-1226.05
-1230.59
-1234.81
-1238.67
-1242.16
-1245.25
-1247.91
-1250.11
-1251.85
-1253.1
-1253.83
-1254.03
-1253.68
-1252.76
-1251.25
-1249.14
-1246.42
-1243.06
-1239.07
-1234.43
-1229.13
-1223.16
-1216.51
-1209.16
-1201.13
-1192.39
-1182.96
-1172.83
-1162.01
-1150.5
-1138.29
-1125.39
-1111.79
-1097.51
-1082.55
-1066.9
-1050.57
-1033.56
-1015.89
-997.55
-978.552
-958.9
-938.604
-917.669
-896.106
-873.922
-851.129
-827.735
-803.753
-779.193
-754.069
-728.392
-702.177
-675.437
-648.186
-620.439
-592.21
-563.513
-534.365
-504.779
-474.77
-444.352
-413.54
-382.347
-350.786
-318.87
-286.611
-254.02
-221.108
-187.885
-154.359
-120.539
-86.4337
-52.0486
-17.3905
17.5353
52.7238
88.1705
123.872
159.824
196.023
232.467
269.153
306.078
343.239
380.633
418.254
456.098
494.16
532.438
570.937
609.661
648.595
687.776
727.1
766.588
806.234
846.031
885.966
926.026
966.195
1006.46
1046.79
1087.19
1127.61
1168.06
1208.49
1248.89
1289.24
1329.5
1369.66
1409.68
1449.53
1489.2
1528.64
1567.83
1606.74
1645.34
1683.6
1721.49
1758.97
1796.02
1832.6
1868.69
1904.25
1939.27
1973.69
2007.51
2040.69
2073.21
2105.04
2136.15
2166.52
2196.13
2224.96
2252.98
2280.18
2306.54
2332.05
2356.68
2380.42
2403.27
2425.21
2446.23
2466.32
2485.49
2503.71
2521
2537.34
2552.74
2567.2
2580.73
2593.32
2604.98
2615.73
2625.57
2634.5
2642.54
2649.71
2656.01
2661.46
2666.07
2669.87
2672.87
2675.09
2676.56
2677.29
2677.32
2676.67
2675.35
2673.4
2670.84
2667.7
2663.99
2659.75
2655.01
2649.77
2644.09
2637.97
2631.46
2624.57
2617.33
2609.78
2601.94
2593.85
2585.51
2576.98
2568.27
2559.41
2550.43
2541.36
2532.22
2523.04
2513.85
2504.66
2495.52
2486.44
2477.44
2468.55
2459.8
2451.2
2442.77
2434.54
2426.53
2418.75
2411.23
2403.98
2397.01
2390.35
2384.01
2378.01
2372.36
2367.07
2362.14
2357.61
2353.47
2349.74
2346.41
2343.51
2341.02
2338.97
2337.35
2336.16
2335.42
2335.11
2335.24
2335.81
2336.82
2338.26
2340.13
2342.43
2345.14
2348.26
2351.78
2355.7
2359.99
2364.66
2369.7
2375.08
2380.79
2386.79
2393.08
2399.63
2406.42
2413.47
2420.78
2428.37
2436.19
2444.21
2452.39
2460.71
2469.15
2477.68
2486.29
2494.94
2503.61
2512.29
2520.94
2529.54
2538.08
2546.53
2554.87
2563.06
2571.1
2578.96
2586.62
2594.04
2601.23
2608.14
2614.77
2621.09
2627.08
2632.73
2638.02
2642.92
2647.43
2651.52
2655.19
2658.42
2661.19
2663.5
2665.33
2666.67
2667.52
2667.87
2667.7
2667.02
2665.81
2664.08
2661.82
2659.04
2655.72
2651.88
2647.51
2642.61
2637.2
2631.27
2624.83
2617.89
2610.46
2602.54
2594.15
2585.29
2575.97
2566.21
2556.03
2545.43
2534.42
2523.03
2511.27
2499.16
2486.7
2473.92
2460.83
2447.46
2433.81
2419.91
2405.78
2391.43
2376.88
2362.15
2347.26
2332.22
2317.06
2301.79
2286.43
2271
2255.51
2240
2224.47
2208.96
2193.48
2178.05
2162.68
2147.39
2132.18
2117.08
2102.09
2087.22
2072.51
2057.95
2043.57
2029.37
2015.37
2001.57
1988
1974.67
1961.58
1948.74
1936.17
1923.88
1911.86
1900.14
1888.72
1877.61
1866.81
1856.33
1846.17
1836.35
1826.87
1817.72
1808.92
1800.47
1792.38
1784.63
1777.24
1770.21
1763.54
1757.23
1751.27
1745.67
1740.44
1735.56
1731.03
1726.86
1723.04
1719.56
1716.44
1713.65
1711.2
1709.09
1707.3
1705.84
1704.7
1703.87
1703.36
1703.14
1703.22
1703.59
1704.24
1705.17
1706.37
1707.83
1709.55
1711.51
1713.7
1716.13
1718.78
1721.65
1724.72
1727.98
1731.43
1735.06
1738.86
1742.81
1746.92
1751.17
1755.55
1760.05
1764.66
1769.37
1774.18
1779.07
1784.04
1789.07
1794.15
1799.28
1804.45
1809.64
1814.85
1820.07
1825.28
1830.49
1835.68
1840.84
1845.97
1851.05
1856.08
1861.05
1865.95
1870.78
1875.52
1880.17
1884.72
1889.16
1893.5
1897.72
1901.81
1905.77
1909.59
1913.27
1916.8
1920.18
1923.4
1926.46
1929.35
1932.06
1934.61
1936.97
1939.15
1941.14
1942.95
1944.55
1945.97
1947.22
1948.22
1949.05
1949.8
1949.98
1950.04
-1040.59
-1041.02
-1041.66
-1042.58
-1043.86
-1045.46
-1047.41
-1049.69
-1052.29
-1055.21
-1058.45
-1061.98
-1065.82
-1069.94
-1074.33
-1078.99
-1083.89
-1089.03
-1094.39
-1099.95
-1105.7
-1111.61
-1117.68
-1123.88
-1130.19
-1136.59
-1143.06
-1149.58
-1156.12
-1162.66
-1169.18
-1175.66
-1182.06
-1188.37
-1194.56
-1200.6
-1206.47
-1212.15
-1217.6
-1222.79
-1227.72
-1232.34
-1236.63
-1240.57
-1244.14
-1247.3
-1250.03
-1252.31
-1254.12
-1255.43
-1256.23
-1256.5
-1256.21
-1255.35
-1253.9
-1251.85
-1249.18
-1245.88
-1241.93
-1237.32
-1232.03
-1226.08
-1219.43
-1212.1
-1204.08
-1195.36
-1185.94
-1175.83
-1165.01
-1153.49
-1141.28
-1128.37
-1114.77
-1100.48
-1085.49
-1069.82
-1053.47
-1036.44
-1018.74
-1000.37
-981.333
-961.644
-941.308
-920.331
-898.722
-876.491
-853.647
-830.201
-806.164
-781.548
-756.365
-730.628
-704.352
-677.549
-650.234
-622.422
-594.128
-565.366
-536.152
-506.501
-476.428
-445.947
-415.072
-383.818
-352.198
-320.224
-287.909
-255.264
-222.3
-189.027
-155.455
-121.59
-87.4422
-53.0171
-18.3211
16.6401
51.862
87.3402
123.071
159.051
195.277
231.748
268.459
305.409
342.595
380.014
417.664
455.54
493.637
531.948
570.467
609.195
648.136
687.269
726.599
766.108
805.783
845.611
885.58
925.675
965.881
1006.18
1046.56
1087
1127.47
1167.96
1208.45
1248.9
1289.3
1329.62
1369.83
1409.91
1449.83
1489.56
1529.07
1568.32
1607.3
1645.97
1684.29
1722.24
1759.79
1796.91
1833.56
1869.71
1905.34
1940.42
1974.91
2008.79
2042.03
2074.61
2106.49
2137.66
2168.09
2197.75
2226.63
2254.7
2281.95
2308.35
2333.89
2358.56
2382.34
2405.22
2427.18
2448.23
2468.34
2487.52
2505.76
2523.06
2539.41
2554.81
2569.28
2582.8
2595.38
2607.04
2617.77
2627.59
2636.5
2644.52
2651.66
2657.93
2663.34
2667.92
2671.68
2674.64
2676.82
2678.24
2678.93
2678.91
2678.21
2676.84
2674.83
2672.22
2669.01
2665.25
2660.94
2656.13
2650.83
2645.08
2638.9
2632.32
2625.36
2618.06
2610.44
2602.53
2594.36
2585.96
2577.35
2568.57
2559.65
2550.6
2541.46
2532.26
2523.01
2513.76
2504.51
2495.31
2486.16
2477.11
2468.16
2459.35
2450.69
2442.21
2433.93
2425.87
2418.04
2410.47
2403.18
2396.17
2389.47
2383.09
2377.05
2371.36
2366.03
2361.07
2356.52
2352.36
2348.6
2345.25
2342.33
2339.83
2337.76
2336.12
2334.93
2334.18
2333.86
2333.99
2334.56
2335.57
2337.02
2338.9
2341.2
2343.92
2347.06
2350.6
2354.54
2358.86
2363.56
2368.62
2374.03
2379.79
2385.87
2392.24
2398.89
2405.79
2412.92
2420.28
2427.88
2435.7
2443.73
2451.94
2460.3
2468.78
2477.36
2486.01
2494.72
2503.44
2512.17
2520.88
2529.55
2538.15
2546.65
2555.05
2563.31
2571.4
2579.32
2587.03
2594.52
2601.76
2608.73
2615.41
2621.78
2627.83
2633.52
2638.86
2643.81
2648.36
2652.5
2656.21
2659.47
2662.28
2664.62
2666.49
2667.86
2668.73
2669.1
2668.95
2668.29
2667.1
2665.38
2663.13
2660.36
2657.04
2653.2
2648.83
2643.93
2638.51
2632.57
2626.12
2619.17
2611.71
2603.77
2595.36
2586.47
2577.13
2567.34
2557.13
2546.49
2535.45
2524.03
2512.23
2500.07
2487.58
2474.76
2461.63
2448.21
2434.52
2420.58
2406.41
2392.01
2377.42
2362.65
2347.71
2332.64
2317.43
2302.13
2286.73
2271.26
2255.74
2240.18
2224.61
2209.05
2193.5
2178
2162.56
2147.19
2131.93
2116.77
2101.73
2086.82
2072.06
2057.47
2043.05
2028.81
2014.78
2000.95
1987.35
1973.99
1960.87
1948
1935.4
1923.08
1911.04
1899.3
1887.85
1876.72
1865.9
1855.4
1845.23
1835.39
1825.88
1816.72
1807.91
1799.45
1791.33
1783.58
1776.18
1769.13
1762.45
1756.13
1750.16
1744.56
1739.31
1734.43
1729.89
1725.71
1721.89
1718.41
1715.28
1712.49
1710.03
1707.92
1706.13
1704.67
1703.52
1702.69
1702.17
1701.96
1702.04
1702.41
1703.06
1703.99
1705.19
1706.65
1708.36
1710.33
1712.53
1714.96
1717.61
1720.48
1723.55
1726.82
1730.27
1733.9
1737.71
1741.67
1745.78
1750.03
1754.41
1758.92
1763.54
1768.26
1773.07
1777.97
1782.94
1787.97
1793.06
1798.2
1803.37
1808.57
1813.78
1819.01
1824.23
1829.44
1834.64
1839.81
1844.94
1850.03
1855.06
1860.04
1864.95
1869.78
1874.53
1879.18
1883.74
1888.19
1892.53
1896.76
1900.85
1904.82
1908.65
1912.33
1915.87
1919.26
1922.48
1925.54
1928.44
1931.16
1933.71
1936.08
1938.26
1940.26
1942.07
1943.68
1945.1
1946.35
1947.36
1948.18
1948.94
1949.11
1949.18
-1040.38
-1040.82
-1041.47
-1042.4
-1043.68
-1045.3
-1047.27
-1049.56
-1052.18
-1055.13
-1058.39
-1061.96
-1065.83
-1069.99
-1074.42
-1079.12
-1084.07
-1089.26
-1094.67
-1100.29
-1106.1
-1112.08
-1118.21
-1124.48
-1130.86
-1137.34
-1143.88
-1150.48
-1157.11
-1163.73
-1170.34
-1176.9
-1183.4
-1189.8
-1196.08
-1202.22
-1208.18
-1213.95
-1219.5
-1224.8
-1229.82
-1234.54
-1238.93
-1242.97
-1246.63
-1249.88
-1252.71
-1255.08
-1256.98
-1258.38
-1259.26
-1259.61
-1259.4
-1258.61
-1257.23
-1255.24
-1252.63
-1249.38
-1245.48
-1240.92
-1235.68
-1229.76
-1223.15
-1215.85
-1207.85
-1199.14
-1189.74
-1179.63
-1168.81
-1157.3
-1145.08
-1132.16
-1118.54
-1104.23
-1089.22
-1073.52
-1057.14
-1040.07
-1022.33
-1003.92
-984.84
-965.102
-944.713
-923.681
-902.013
-879.719
-856.81
-833.296
-809.188
-784.498
-759.239
-733.425
-707.069
-680.186
-652.789
-624.895
-596.518
-567.674
-538.377
-508.645
-478.491
-447.931
-416.979
-385.65
-353.957
-321.913
-289.53
-256.82
-223.795
-190.463
-156.835
-122.919
-88.7214
-54.2506
-19.5119
15.4891
50.748
86.2605
122.023
158.033
194.287
230.783
267.518
304.49
341.698
379.137
416.806
454.701
492.82
531.159
569.714
608.485
647.467
686.647
726.012
765.554
805.263
845.129
885.138
925.276
965.529
1005.88
1046.31
1086.8
1127.33
1167.88
1208.43
1248.95
1289.42
1329.81
1370.1
1410.25
1450.25
1490.05
1529.64
1568.98
1608.03
1646.78
1685.19
1723.23
1760.86
1798.06
1834.79
1871.03
1906.74
1941.9
1976.47
2010.43
2043.75
2076.4
2108.36
2139.59
2170.09
2199.81
2228.75
2256.88
2284.19
2310.64
2336.23
2360.95
2384.77
2407.68
2429.68
2450.75
2470.9
2490.1
2508.35
2525.66
2542.02
2557.43
2571.89
2585.41
2597.99
2609.63
2620.35
2630.14
2639.03
2647.02
2654.13
2660.36
2665.74
2670.27
2673.99
2676.9
2679.03
2680.4
2681.03
2680.95
2680.17
2678.74
2676.66
2673.96
2670.68
2666.83
2662.44
2657.54
2652.16
2646.32
2640.05
2633.38
2626.33
2618.94
2611.23
2603.23
2594.98
2586.49
2577.8
2568.93
2559.92
2550.79
2541.57
2532.28
2522.95
2513.62
2504.29
2495.01
2485.79
2476.66
2467.64
2458.76
2450.04
2441.49
2433.14
2425.02
2417.13
2409.5
2402.15
2395.09
2388.34
2381.91
2375.83
2370.1
2364.72
2359.68
2355.14
2350.95
2347.16
2343.79
2340.84
2338.32
2336.23
2334.59
2333.38
2332.62
2332.3
2332.43
2333
2334.02
2335.47
2337.36
2339.68
2342.42
2345.58
2349.14
2353.11
2357.46
2362.19
2367.29
2372.74
2378.52
2384.62
2391.02
2397.71
2404.66
2411.88
2419.35
2427.05
2434.97
2443.07
2451.35
2459.78
2468.33
2476.97
2485.7
2494.47
2503.27
2512.07
2520.86
2529.6
2538.27
2546.85
2555.32
2563.65
2571.83
2579.82
2587.6
2595.16
2602.47
2609.51
2616.26
2622.7
2628.81
2634.57
2639.97
2644.97
2649.58
2653.77
2657.53
2660.85
2663.7
2666.08
2667.98
2669.39
2670.3
2670.69
2670.57
2669.92
2668.75
2667.05
2664.81
2662.04
2658.73
2654.88
2650.51
2645.6
2640.16
2634.21
2627.74
2620.76
2613.28
2605.31
2596.86
2587.94
2578.56
2568.73
2558.47
2547.78
2536.7
2525.22
2513.37
2501.15
2488.6
2475.72
2462.53
2449.05
2435.3
2421.29
2407.05
2392.59
2377.93
2363.09
2348.09
2332.94
2317.68
2302.3
2286.84
2271.31
2255.74
2240.13
2224.51
2208.91
2193.33
2177.79
2162.31
2146.9
2131.58
2116.37
2101.28
2086.32
2071.51
2056.87
2042.4
2028.12
2014.05
2000.18
1986.54
1973.14
1959.98
1947.08
1934.45
1922.09
1910.02
1898.25
1886.78
1875.61
1864.76
1854.24
1844.04
1834.18
1824.66
1815.48
1806.65
1798.17
1790.04
1782.26
1774.85
1767.79
1761.09
1754.76
1748.78
1743.17
1737.91
1733.01
1728.47
1724.29
1720.45
1716.97
1713.83
1711.03
1708.58
1706.45
1704.66
1703.2
1702.05
1701.22
1700.7
1700.48
1700.56
1700.93
1701.58
1702.51
1703.71
1705.17
1706.89
1708.85
1711.06
1713.49
1716.15
1719.02
1722.09
1725.37
1728.82
1732.46
1736.27
1740.23
1744.35
1748.61
1753
1757.51
1762.13
1766.86
1771.68
1776.58
1781.56
1786.6
1791.7
1796.84
1802.02
1807.23
1812.45
1817.68
1822.92
1828.14
1833.34
1838.52
1843.66
1848.75
1853.8
1858.78
1863.69
1868.53
1873.29
1877.95
1882.52
1886.98
1891.33
1895.56
1899.66
1903.63
1907.47
1911.16
1914.71
1918.1
1921.33
1924.4
1927.3
1930.03
1932.58
1934.95
1937.14
1939.14
1940.96
1942.58
1944
1945.25
1946.27
1947.09
1947.85
1948.02
1948.09
-1040.12
-1040.56
-1041.22
-1042.17
-1043.46
-1045.09
-1047.07
-1049.39
-1052.04
-1055.02
-1058.32
-1061.93
-1065.84
-1070.04
-1074.52
-1079.28
-1084.29
-1089.54
-1095.01
-1100.7
-1106.58
-1112.64
-1118.85
-1125.2
-1131.67
-1138.24
-1144.88
-1151.57
-1158.29
-1165.02
-1171.73
-1178.4
-1185.01
-1191.52
-1197.91
-1204.16
-1210.24
-1216.12
-1221.79
-1227.2
-1232.34
-1237.17
-1241.68
-1245.84
-1249.61
-1252.98
-1255.92
-1258.4
-1260.41
-1261.91
-1262.9
-1263.34
-1263.22
-1262.52
-1261.22
-1259.3
-1256.76
-1253.57
-1249.73
-1245.22
-1240.03
-1234.15
-1227.58
-1220.31
-1212.34
-1203.66
-1194.27
-1184.17
-1173.36
-1161.84
-1149.62
-1136.69
-1123.05
-1108.72
-1093.69
-1077.96
-1061.54
-1044.44
-1026.65
-1008.19
-989.058
-969.263
-948.812
-927.713
-905.975
-883.607
-860.62
-837.024
-812.831
-788.053
-762.704
-736.796
-710.344
-683.363
-655.868
-627.875
-599.398
-570.453
-541.058
-511.226
-480.975
-450.319
-419.274
-387.853
-356.071
-323.941
-291.476
-258.688
-225.587
-192.184
-158.488
-124.507
-90.2501
-55.7229
-20.9317
14.1185
49.4231
84.9783
120.781
156.828
193.117
229.646
266.413
303.416
340.653
378.122
415.82
453.745
491.893
530.261
568.846
607.644
646.651
685.858
725.258
764.84
804.593
844.504
884.563
924.753
965.062
1005.47
1045.96
1086.52
1127.12
1167.75
1208.37
1248.97
1289.52
1329.99
1370.37
1410.61
1450.7
1490.6
1530.28
1569.72
1608.87
1647.72
1686.23
1724.37
1762.1
1799.4
1836.24
1872.58
1908.39
1943.64
1978.31
2012.36
2045.77
2078.51
2110.56
2141.88
2172.46
2202.26
2231.28
2259.48
2286.85
2313.37
2339.02
2363.79
2387.66
2410.62
2432.66
2453.77
2473.94
2493.17
2511.45
2528.77
2545.14
2560.56
2575.02
2588.53
2601.1
2612.73
2623.42
2633.2
2642.05
2650.01
2657.07
2663.26
2668.59
2673.07
2676.72
2679.57
2681.64
2682.94
2683.5
2683.34
2682.49
2680.98
2678.81
2676.03
2672.66
2668.71
2664.23
2659.24
2653.75
2647.81
2641.44
2634.66
2627.51
2620.02
2612.2
2604.1
2595.74
2587.15
2578.35
2569.38
2560.27
2551.04
2541.71
2532.32
2522.9
2513.47
2504.05
2494.67
2485.36
2476.14
2467.04
2458.07
2449.26
2440.64
2432.21
2424.01
2416.05
2408.35
2400.93
2393.81
2387
2380.52
2374.38
2368.6
2363.2
2358.23
2353.53
2349.28
2345.45
2342.04
2339.07
2336.52
2334.41
2332.75
2331.53
2330.76
2330.44
2330.56
2331.14
2332.16
2333.62
2335.53
2337.86
2340.63
2343.81
2347.41
2351.41
2355.8
2360.58
2365.72
2371.23
2377.07
2383.25
2389.73
2396.5
2403.53
2410.82
2418.36
2426.12
2434.1
2442.28
2450.63
2459.13
2467.76
2476.48
2485.29
2494.14
2503.03
2511.92
2520.79
2529.62
2538.39
2547.06
2555.62
2564.04
2572.31
2580.38
2588.26
2595.9
2603.3
2610.43
2617.26
2623.78
2629.97
2635.81
2641.27
2646.35
2651.03
2655.29
2659.11
2662.48
2665.39
2667.82
2669.77
2671.22
2672.16
2672.59
2672.5
2671.88
2670.73
2669.04
2666.82
2664.05
2660.75
2656.9
2652.52
2647.6
2642.16
2636.18
2629.69
2622.69
2615.18
2607.17
2598.68
2589.72
2580.3
2570.42
2560.11
2549.37
2538.23
2526.69
2514.78
2502.5
2489.88
2476.94
2463.68
2450.13
2436.31
2422.23
2407.92
2393.39
2378.66
2363.75
2348.67
2333.46
2318.12
2302.67
2287.14
2271.54
2255.89
2240.21
2224.52
2208.83
2193.18
2177.56
2162.01
2146.54
2131.16
2115.88
2100.73
2085.71
2070.85
2056.15
2041.63
2027.29
2013.16
1999.25
1985.56
1972.11
1958.91
1945.97
1933.3
1920.9
1908.8
1896.98
1885.48
1874.28
1863.4
1852.85
1842.62
1832.74
1823.19
1813.98
1805.13
1796.62
1788.48
1780.68
1773.25
1766.18
1759.46
1753.11
1747.12
1741.5
1736.23
1731.32
1726.77
1722.57
1718.73
1715.24
1712.09
1709.29
1706.83
1704.7
1702.9
1701.43
1700.28
1699.45
1698.93
1698.71
1698.78
1699.15
1699.81
1700.74
1701.94
1703.4
1705.12
1707.09
1709.29
1711.73
1714.39
1717.27
1720.35
1723.62
1727.09
1730.73
1734.54
1738.52
1742.64
1746.91
1751.3
1755.82
1760.45
1765.19
1770.02
1774.93
1779.92
1784.97
1790.07
1795.22
1800.41
1805.63
1810.86
1816.1
1821.34
1826.57
1831.78
1836.97
1842.12
1847.22
1852.28
1857.27
1862.19
1867.04
1871.8
1876.48
1881.05
1885.52
1889.88
1894.12
1898.23
1902.21
1906.05
1909.75
1913.31
1916.71
1919.94
1923.02
1925.93
1928.66
1931.22
1933.6
1935.79
1937.8
1939.62
1941.24
1942.67
1943.93
1944.95
1945.77
1946.53
1946.71
1946.77
-1039.81
-1040.26
-1040.92
-1041.87
-1043.18
-1044.83
-1046.84
-1049.18
-1051.87
-1054.88
-1058.22
-1061.87
-1065.83
-1070.09
-1074.64
-1079.45
-1084.53
-1089.85
-1095.41
-1101.18
-1107.14
-1113.29
-1119.6
-1126.05
-1132.62
-1139.29
-1146.04
-1152.84
-1159.68
-1166.53
-1173.36
-1180.15
-1186.88
-1193.52
-1200.05
-1206.43
-1212.64
-1218.66
-1224.46
-1230.01
-1235.28
-1240.26
-1244.9
-1249.19
-1253.1
-1256.6
-1259.66
-1262.28
-1264.41
-1266.03
-1267.13
-1267.69
-1267.68
-1267.08
-1265.88
-1264.05
-1261.59
-1258.48
-1254.71
-1250.26
-1245.13
-1239.3
-1232.77
-1225.54
-1217.6
-1208.94
-1199.57
-1189.48
-1178.68
-1167.16
-1154.93
-1141.99
-1128.34
-1113.98
-1098.92
-1083.15
-1066.7
-1049.55
-1031.71
-1013.19