/*--------------------------------*- C++ -*----------------------------------*\
| =========                 |                                                 |
| \\      /  F ield         | OpenFOAM: The Open Source CFD Toolbox           |
|  \\    /   O peration     | Version:  v2006                                 |
|   \\  /    A nd           | Website:  www.openfoam.com                      |
|    \\/     M anipulation  |                                                 |
\*---------------------------------------------------------------------------*/
FoamFile
{
    version     2.0;
    format      ascii;
    class       surfaceScalarField;
    location    "3.4";
    object      alphaPhi0.water;
}
// * * * * * * * * * * * * * * * * * * * * * * * * * * * * * * * * * * * * * //

dimensions      [0 3 -1 0 0 0 0];
oriented        oriented;


internalField   nonuniform List<scalar> 
104500
(
4.92414e-05
-4.92414e-05
0.000117301
-6.80592e-05
0.000181106
-6.38053e-05
0.0002417
-6.05946e-05
0.000301536
-5.98354e-05
0.000361318
-5.97824e-05
0.000421031
-5.97131e-05
0.000480577
-5.95452e-05
0.000539899
-5.93229e-05
0.000598971
-5.90714e-05
0.000657766
-5.87955e-05
0.000716261
-5.84947e-05
0.000774429
-5.81681e-05
0.000832245
-5.78159e-05
0.000889684
-5.74385e-05
0.00094672
-5.70362e-05
0.00100333
-5.66094e-05
0.00105949
-5.61586e-05
0.00111517
-5.56841e-05
0.00117036
-5.51865e-05
0.00122502
-5.46662e-05
0.00127915
-5.41236e-05
0.00133271
-5.35594e-05
0.00138568
-5.29741e-05
0.00143805
-5.23682e-05
0.00148979
-5.17423e-05
0.00154089
-5.1097e-05
0.00159132
-5.0433e-05
0.00164107
-4.97509e-05
0.00169012
-4.90514e-05
0.00173846
-4.8335e-05
0.00178606
-4.76026e-05
0.00183292
-4.68548e-05
0.00187901
-4.60923e-05
0.00192432
-4.53159e-05
0.00196885
-4.45263e-05
0.00201258
-4.37242e-05
0.00205549
-4.29105e-05
0.00209757
-4.20858e-05
0.00213882
-4.1251e-05
0.00217923
-4.04069e-05
0.00221878
-3.95542e-05
0.00225748
-3.86938e-05
0.0022953
-3.78264e-05
0.00233226
-3.69528e-05
0.00236833
-3.60739e-05
0.00240352
-3.51905e-05
0.00243782
-3.43033e-05
0.00247124
-3.34131e-05
0.00250376
-3.25208e-05
0.00253539
-3.16271e-05
0.00256612
-3.07329e-05
0.00259596
-2.98389e-05
0.0026249
-2.8946e-05
0.00265296
-2.80548e-05
0.00268012
-2.71663e-05
0.00270641
-2.62811e-05
0.00273181
-2.54e-05
0.00275633
-2.45238e-05
0.00277998
-2.36532e-05
0.00280277
-2.2789e-05
0.0028247
-2.19318e-05
0.00284579
-2.10824e-05
0.00286603
-2.02414e-05
0.00288544
-1.94097e-05
0.00290402
-1.85878e-05
0.0029218
-1.77765e-05
0.00293878
-1.69763e-05
0.00295497
-1.6188e-05
0.00297038
-1.54121e-05
0.00298503
-1.46493e-05
0.00299893
-1.39002e-05
0.00301209
-1.31654e-05
0.00302454
-1.24455e-05
0.00303628
-1.17409e-05
0.00304733
-1.10523e-05
0.00305771
-1.03799e-05
0.00306744
-9.72429e-06
0.00307652
-9.08543e-06
0.00308498
-8.46315e-06
0.00309284
-7.85659e-06
0.0031001
-7.26346e-06
0.00310678
-6.67829e-06
0.00311287
-6.08617e-06
0.00311836
-5.49304e-06
0.00312325
-4.88528e-06
0.00312747
-4.22202e-06
0.00313092
-3.4557e-06
0.00313353
-2.60911e-06
0.0031353
-1.77087e-06
0.00313631
-1.00904e-06
0.00313666
-3.47641e-07
0.00313637
2.90253e-07
0.0031355
8.6645e-07
0.00313414
1.36905e-06
0.00313232
1.81479e-06
0.00313012
2.19586e-06
0.00312761
2.51327e-06
0.00312482
2.78897e-06
0.00312179
3.03143e-06
0.00311855
3.24448e-06
0.00311512
3.4298e-06
0.00311153
3.58795e-06
0.00310781
3.71909e-06
0.00310399
3.82337e-06
0.00310009
3.90119e-06
0.00309613
3.95321e-06
0.00309215
3.98031e-06
0.00308817
3.9835e-06
0.0030842
3.96391e-06
0.00308028
3.92282e-06
0.00307642
3.86168e-06
0.00307264
3.78196e-06
0.00306895
3.68495e-06
0.00306538
3.57164e-06
0.00306194
3.44277e-06
0.00305864
3.29899e-06
0.0030555
3.14093e-06
0.00305253
2.96904e-06
0.00304975
2.78352e-06
0.00304716
2.58425e-06
0.00304479
2.37093e-06
0.00304265
2.14334e-06
0.00304075
1.90144e-06
0.0030391
1.64547e-06
0.00303772
1.37607e-06
0.00303663
1.09453e-06
0.00303583
8.00754e-07
0.00303534
4.89673e-07
0.00303518
1.62648e-07
0.00303534
-1.65806e-07
0.00303584
-4.98807e-07
0.00303668
-8.34229e-07
0.00303785
-1.17519e-06
0.00303938
-1.52672e-06
0.00304126
-1.88495e-06
0.0030435
-2.2412e-06
0.00304611
-2.60565e-06
0.00304908
-2.97117e-06
0.00305242
-3.34249e-06
0.00305614
-3.71369e-06
0.00306022
-4.0878e-06
0.00306469
-4.46245e-06
0.00306952
-4.8379e-06
0.00307474
-5.21247e-06
0.00308032
-5.58413e-06
0.00308627
-5.95285e-06
0.00309259
-6.31745e-06
0.00309927
-6.67815e-06
0.0031063
-7.03425e-06
0.00311369
-7.38538e-06
0.00312142
-7.73152e-06
0.00312949
-8.07147e-06
0.0031379
-8.40487e-06
0.00314663
-8.72964e-06
0.00315567
-9.0445e-06
0.00316502
-9.34935e-06
0.00317466
-9.64312e-06
0.00318459
-9.92442e-06
0.00319478
-1.01923e-05
0.00320523
-1.04465e-05
0.00321591
-1.06858e-05
0.00322682
-1.09098e-05
0.00323794
-1.11177e-05
0.00324925
-1.13092e-05
0.00326073
-1.14841e-05
0.00327238
-1.16421e-05
0.00328416
-1.17828e-05
0.00329606
-1.19059e-05
0.00330808
-1.20111e-05
0.00332017
-1.2098e-05
0.00333234
-1.21662e-05
0.00334456
-1.22158e-05
0.0033568
-1.22464e-05
0.00336906
-1.22581e-05
0.00338131
-1.22508e-05
0.00339354
-1.22248e-05
0.00340572
-1.218e-05
0.00341783
-1.21166e-05
0.00342987
-1.20349e-05
0.0034418
-1.19351e-05
0.00345362
-1.18179e-05
0.0034653
-1.16839e-05
0.00347684
-1.1534e-05
0.00348821
-1.13691e-05
0.0034994
-1.11906e-05
0.0035104
-1.10007e-05
0.0035212
-1.0803e-05
0.0035318
-1.06025e-05
0.00354221
-1.04057e-05
0.00355243
-1.02187e-05
0.00356247
-1.00464e-05
0.00357237
-9.89253e-06
0.00358214
-9.76784e-06
0.00359184
-9.70149e-06
0.00360159
-9.75055e-06
0.00361158
-9.9911e-06
0.00362206
-1.04817e-05
0.00363327
-1.12134e-05
0.00364536
-1.20816e-05
0.00365827
-1.29103e-05
0.00367179
-1.35203e-05
0.00368559
-1.38028e-05
0.00369934
-1.37551e-05
0.00371281
-1.34623e-05
0.00372585
-1.30444e-05
0.00373845
-1.2604e-05
0.00375065
-1.21989e-05
0.0037625
-1.18444e-05
0.00377403
-1.15326e-05
0.00378528
-1.12506e-05
0.00379627
-1.09895e-05
0.00380702
-1.07448e-05
0.00381753
-1.05126e-05
0.00382782
-1.02882e-05
0.00383788
-1.00659e-05
0.00384772
-9.84067e-06
0.00385733
-9.60933e-06
0.0038667
-9.37085e-06
0.00387583
-9.12556e-06
0.0038847
-8.87422e-06
0.00389332
-8.61747e-06
0.00390168
-8.35563e-06
0.00390976
-8.08884e-06
0.00391758
-7.81707e-06
0.00392512
-7.54017e-06
0.00393238
-7.25787e-06
0.00393935
-6.96987e-06
0.00394603
-6.67588e-06
0.0039524
-6.37564e-06
0.00395847
-6.06885e-06
0.00396422
-5.75509e-06
0.00396966
-5.43374e-06
0.00397476
-5.1042e-06
0.00397953
-4.76628e-06
0.00398395
-4.42105e-06
0.00398802
-4.06779e-06
0.00399172
-3.70184e-06
0.00399505
-3.3262e-06
0.00399799
-2.93909e-06
0.00400052
-2.53972e-06
0.00400265
-2.12993e-06
0.00400436
-1.70649e-06
0.00400563
-1.27061e-06
0.00400645
-8.2049e-07
0.00400681
-3.54679e-07
0.00400667
1.34188e-07
0.00400603
6.38926e-07
0.00400487
1.16061e-06
0.00400317
1.70426e-06
0.0040009
2.27203e-06
0.00399805
2.85166e-06
0.00399459
3.45652e-06
0.00399051
4.08348e-06
0.00398577
4.73671e-06
0.00398036
5.41005e-06
0.00397425
6.1117e-06
0.00396741
6.8379e-06
0.00395982
7.59005e-06
0.00395145
8.37285e-06
0.00394226
9.18706e-06
0.00393223
1.00317e-05
0.00392131
1.09131e-05
0.00390948
1.18317e-05
0.00389669
1.27918e-05
0.00388289
1.37977e-05
0.00386804
1.48542e-05
0.00385207
1.59672e-05
0.00383493
1.71434e-05
0.00381654
1.839e-05
0.00379682
1.97154e-05
0.00377569
2.11286e-05
0.00375305
2.26411e-05
0.00372879
2.42658e-05
0.00370278
2.60087e-05
0.00367492
2.78607e-05
0.00364512
2.98e-05
0.00361331
3.18073e-05
0.00357943
3.38755e-05
0.00354343
3.60065e-05
0.00350523
3.81987e-05
0.00346479
4.04422e-05
0.00342207
4.27205e-05
0.00337706
4.50078e-05
0.00332981
4.72511e-05
0.00328045
4.93572e-05
0.00322924
5.12131e-05
0.0031765
5.27379e-05
0.00312257
5.39269e-05
0.00306773
5.48457e-05
0.00301215
5.55797e-05
0.00295597
5.61815e-05
0.00289932
5.66476e-05
0.00284239
5.69258e-05
0.00278546
5.69336e-05
0.00272888
5.65824e-05
0.00267305
5.58276e-05
0.00261832
5.4734e-05
0.00256485
5.34605e-05
0.00251257
5.22799e-05
0.0024611
5.14791e-05
0.00240987
5.1223e-05
0.00235838
5.14948e-05
0.00230627
5.2111e-05
0.00225344
5.28305e-05
0.00219996
5.34729e-05
0.002146
5.39683e-05
0.00209166
5.43321e-05
0.00203705
5.46097e-05
0.00198222
5.48354e-05
0.0019272
5.50222e-05
0.00187203
5.51683e-05
0.00181676
5.52678e-05
0.00176144
5.53186e-05
0.00170612
5.53215e-05
0.00165084
5.52778e-05
0.00159565
5.5189e-05
0.0015406
5.50562e-05
0.00148572
5.48806e-05
0.00143105
5.46631e-05
0.00137665
5.44047e-05
0.00132254
5.41068e-05
0.00126877
5.37717e-05
0.00121537
5.34017e-05
0.00116237
5.2999e-05
0.0011098
5.25653e-05
0.0010577
5.2102e-05
0.00100609
5.16115e-05
0.000954993
5.1097e-05
0.000904431
5.05624e-05
0.00085442
5.00113e-05
0.000804972
4.94479e-05
0.000756096
4.8876e-05
0.000707796
4.83001e-05
0.000660071
4.77246e-05
0.000612917
4.71543e-05
0.000566323
4.65938e-05
0.000520275
4.60479e-05
0.000474754
4.55214e-05
0.000429735
4.50191e-05
0.000385189
4.45457e-05
0.000341083
4.41054e-05
0.000297384
4.36999e-05
0.000254049
4.33344e-05
0.00021102
4.30295e-05
0.000168162
4.28582e-05
0.000125512
4.26491e-05
8.44784e-05
4.1034e-05
4.72961e-05
3.71823e-05
4.72961e-05
4.79333e-05
-9.71747e-05
0.000114536
-0.000134662
0.000176917
-0.000126186
0.000236091
-0.000119769
0.000294508
-0.000118252
0.000352874
-0.000118148
0.000411168
-0.000118007
0.000469292
-0.000117669
0.000527191
-0.000117222
0.000584836
-0.000116717
0.000642204
-0.000116163
0.000699267
-0.000115558
0.000756001
-0.000114902
0.000812379
-0.000114194
0.000868377
-0.000113436
0.000923969
-0.000112628
0.00097913
-0.000111771
0.00103384
-0.000110865
0.00108806
-0.000109912
0.00114179
-0.000108912
0.00119499
-0.000107867
0.00124764
-0.000106777
0.00129973
-0.000105644
0.00135122
-0.000104468
0.0014021
-0.000103251
0.00145236
-0.000101994
0.00150196
-0.000100699
0.00155089
-9.93651e-05
0.00159913
-9.79954e-05
0.00164667
-9.65907e-05
0.00169349
-9.51523e-05
0.00173957
-9.36818e-05
0.0017849
-9.21804e-05
0.00182945
-9.06497e-05
0.00187323
-8.90911e-05
0.00191621
-8.75061e-05
0.00195838
-8.58962e-05
0.00199973
-8.42629e-05
0.00204026
-8.26079e-05
0.00207994
-8.09327e-05
0.00211877
-7.92389e-05
0.00215674
-7.7528e-05
0.00219385
-7.58016e-05
0.00223009
-7.40614e-05
0.00226544
-7.2309e-05
0.00229991
-7.0546e-05
0.0023335
-6.8774e-05
0.00236619
-6.69946e-05
0.00239798
-6.52094e-05
0.00242888
-6.342e-05
0.00245889
-6.16281e-05
0.00248799
-5.98352e-05
0.00251619
-5.80428e-05
0.0025435
-5.62527e-05
0.00256991
-5.44662e-05
0.00259543
-5.2685e-05
0.00262006
-5.09106e-05
0.0026438
-4.91444e-05
0.00266667
-4.73881e-05
0.00268866
-4.56429e-05
0.00270978
-4.39104e-05
0.00273004
-4.2192e-05
0.00274944
-4.04891e-05
0.00276801
-3.8803e-05
0.00278573
-3.71351e-05
0.00280263
-3.54867e-05
0.00281871
-3.3859e-05
0.00283399
-3.22534e-05
0.00284847
-3.0671e-05
0.00286217
-2.91131e-05
0.00287511
-2.75808e-05
0.00288728
-2.60751e-05
0.00289871
-2.45973e-05
0.00290942
-2.31482e-05
0.0029194
-2.17289e-05
0.00292869
-2.03403e-05
0.00293729
-1.89833e-05
0.00294523
-1.76587e-05
0.00295251
-1.63674e-05
0.00295916
-1.51102e-05
0.00296519
-1.38884e-05
0.00297063
-1.27043e-05
0.00297552
-1.15639e-05
0.0029799
-1.04709e-05
0.00298383
-9.41824e-06
0.00298735
-8.40576e-06
0.00299056
-7.43557e-06
0.00299361
-6.50863e-06
0.00299663
-5.62205e-06
0.00299963
-4.77352e-06
0.00300258
-3.96347e-06
0.00300543
-3.19296e-06
0.00300817
-2.45396e-06
0.00301078
-1.74471e-06
0.00301322
-1.06639e-06
0.00301544
-4.01103e-07
0.00301748
1.52063e-07
0.00301935
6.39664e-07
0.00302101
1.13273e-06
0.00302244
1.59692e-06
0.00302366
2.02273e-06
0.00302469
2.40762e-06
0.00302552
2.75124e-06
0.00302619
3.05388e-06
0.0030267
3.31595e-06
0.00302706
3.53792e-06
0.00302729
3.72024e-06
0.00302741
3.86336e-06
0.00302743
3.96779e-06
0.00302736
4.03404e-06
0.00302722
4.06265e-06
0.00302702
4.05422e-06
0.0030268
4.00943e-06
0.00302655
3.92903e-06
0.00302631
3.81382e-06
0.00302609
3.66464e-06
0.0030259
3.48236e-06
0.00302578
3.26788e-06
0.00302572
3.02217e-06
0.00302576
2.74621e-06
0.0030259
2.44098e-06
0.00302617
2.10745e-06
0.00302656
1.7465e-06
0.00302711
1.3589e-06
0.00302781
9.45306e-07
0.00302868
5.06574e-07
0.00302972
5.0078e-08
0.00303094
-4.137e-07
0.00303235
-9.21573e-07
0.00303396
-1.45419e-06
0.0030358
-2.00159e-06
0.00303787
-2.56586e-06
0.00304017
-3.14032e-06
0.00304273
-3.72885e-06
0.00304553
-4.32616e-06
0.00304858
-4.94039e-06
0.00305192
-5.5767e-06
0.00305553
-6.22012e-06
0.00305942
-6.86428e-06
0.00306361
-7.52751e-06
0.00306809
-8.19737e-06
0.00307287
-8.86609e-06
0.00307796
-9.54841e-06
0.00308335
-1.02285e-05
0.00308905
-1.09101e-05
0.00309506
-1.15979e-05
0.00310139
-1.22813e-05
0.00310804
-1.29646e-05
0.003115
-1.3646e-05
0.00312229
-1.43222e-05
0.0031299
-1.49947e-05
0.00313783
-1.56615e-05
0.00314608
-1.63215e-05
0.00315465
-1.69725e-05
0.00316353
-1.76145e-05
0.00317274
-1.8248e-05
0.00318226
-1.88697e-05
0.00319209
-1.94789e-05
0.00320224
-2.00747e-05
0.00321271
-2.06562e-05
0.00322348
-2.12222e-05
0.00323457
-2.17717e-05
0.00324596
-2.23033e-05
0.00325766
-2.28168e-05
0.00326966
-2.33109e-05
0.00328196
-2.37851e-05
0.00329456
-2.42379e-05
0.00330745
-2.46688e-05
0.00332062
-2.50769e-05
0.00333407
-2.54613e-05
0.00334779
-2.58214e-05
0.00336178
-2.61565e-05
0.00337603
-2.64659e-05
0.00339053
-2.67489e-05
0.00340528
-2.70048e-05
0.00342026
-2.72332e-05
0.00343547
-2.74333e-05
0.0034509
-2.76047e-05
0.00346653
-2.7747e-05
0.00348235
-2.78599e-05
0.00349836
-2.79429e-05
0.00351454
-2.7996e-05
0.00353087
-2.80191e-05
0.00354735
-2.80123e-05
0.00356396
-2.79762e-05
0.00358068
-2.79112e-05
0.00359749
-2.78181e-05
0.00361439
-2.76979e-05
0.00363134
-2.75517e-05
0.00364831
-2.73815e-05
0.00366529
-2.71893e-05
0.00368222
-2.69778e-05
0.00369907
-2.67496e-05
0.00371581
-2.65082e-05
0.00373237
-2.62605e-05
0.00374864
-2.60186e-05
0.00376445
-2.57983e-05
0.00377958
-2.56131e-05
0.00379383
-2.54641e-05
0.00380708
-2.53338e-05
0.00381936
-2.51878e-05
0.00383083
-2.4987e-05
0.00384173
-2.47022e-05
0.0038523
-2.43238e-05
0.00386269
-2.38619e-05
0.00387299
-2.33384e-05
0.00388316
-2.27758e-05
0.00389315
-2.21902e-05
0.0039029
-2.1589e-05
0.00391234
-2.0974e-05
0.00392143
-2.03444e-05
0.00393014
-1.96995e-05
0.00393844
-1.90391e-05
0.00394629
-1.83635e-05
0.00395367
-1.76729e-05
0.00396057
-1.69668e-05
0.00396698
-1.62451e-05
0.00397288
-1.55076e-05
0.00397826
-1.47545e-05
0.00398312
-1.39863e-05
0.00398745
-1.32037e-05
0.00399124
-1.24074e-05
0.00399448
-1.15979e-05
0.00399717
-1.07758e-05
0.00399929
-9.94138e-06
0.00400085
-9.09506e-06
0.00400183
-8.2372e-06
0.00400222
-7.36812e-06
0.00400204
-6.4881e-06
0.00400126
-5.59735e-06
0.00399989
-4.69602e-06
0.00399792
-3.78408e-06
0.00399534
-2.86122e-06
0.00399216
-1.92654e-06
0.00398838
-9.7871e-07
0.00398399
-2.93526e-08
0.003979
9.15901e-07
0.0039734
1.89666e-06
0.0039672
2.873e-06
0.0039604
3.86403e-06
0.00395299
4.87325e-06
0.00394498
5.8764e-06
0.00393637
6.90437e-06
0.00392717
7.93253e-06
0.00391737
8.97488e-06
0.003907
1.00218e-05
0.00389604
1.10897e-05
0.00388452
1.21615e-05
0.00387243
1.32437e-05
0.0038598
1.43405e-05
0.00384663
1.54428e-05
0.00383291
1.65653e-05
0.00381868
1.76937e-05
0.00380392
1.88404e-05
0.00378866
1.99965e-05
0.00377291
2.11616e-05
0.00375667
2.23486e-05
0.00373997
2.35434e-05
0.0037228
2.47528e-05
0.0037052
2.59798e-05
0.00368716
2.72219e-05
0.00366872
2.84777e-05
0.00364988
2.97485e-05
0.00363068
3.10347e-05
0.00361113
3.23359e-05
0.00359128
3.36527e-05
0.00357115
3.49849e-05
0.00355078
3.63328e-05
0.00353023
3.76962e-05
0.00350954
3.90755e-05
0.00348879
4.04707e-05
0.00346803
4.18826e-05
0.00344736
4.33123e-05
0.00342687
4.47622e-05
0.00340664
4.62368e-05
0.00338676
4.77415e-05
0.00336728
4.92815e-05
0.00334822
5.08603e-05
0.00332962
5.24806e-05
0.00331148
5.41457e-05
0.00329382
5.58589e-05
0.00327664
5.76233e-05
0.00325992
5.94423e-05
0.0032436
6.13189e-05
0.0032276
6.32534e-05
0.00321172
6.5237e-05
0.00319569
6.72474e-05
0.00317918
6.92508e-05
0.00316189
7.12132e-05
0.00314362
7.31112e-05
0.00312427
7.49366e-05
0.00310376
7.66918e-05
0.00308202
7.83807e-05
0.00305895
8.00018e-05
0.00303434
8.15441e-05
0.00300794
8.29827e-05
0.00297949
8.42757e-05
0.00294885
8.5376e-05
0.00291601
8.62928e-05
0.00288121
8.70866e-05
0.00284483
8.78593e-05
0.00280733
8.87205e-05
0.00276909
8.97351e-05
0.0027303
9.09012e-05
0.00269096
9.21688e-05
0.00265096
9.34743e-05
0.00261016
9.47695e-05
0.00256846
9.60321e-05
0.00252581
9.72592e-05
0.00248219
9.84548e-05
0.00243759
9.96204e-05
0.00239201
0.000100754
0.00234542
0.000101852
0.00229783
0.000102912
0.00224922
0.000103932
0.00219958
0.000104911
0.00214893
0.000105848
0.00209724
0.000106742
0.00204453
0.000107592
0.00199079
0.000108397
0.00193604
0.000109156
0.00188028
0.000109868
0.00182352
0.000110535
0.00176576
0.000111156
0.00170703
0.000111731
0.00164734
0.00011226
0.0015867
0.000112744
0.00152513
0.000113183
0.00146265
0.000113578
0.00139928
0.00011393
0.00133505
0.000114242
0.00126998
0.000114515
0.0012041
0.000114751
0.00113745
0.000114952
0.00107006
0.00011512
0.00100195
0.000115258
0.000933179
0.000115369
0.000863772
0.000115455
0.000793775
0.000115518
0.000723231
0.000115563
0.000652186
0.000115591
0.000580685
0.000115606
0.000508782
0.000115604
0.00043653
0.000115586
0.000363964
0.000115596
0.000291031
0.000115791
0.000217802
0.000115878
0.000145826
0.00011301
7.81931e-05
0.000104816
0.000125489
4.86119e-05
-0.000145787
0.000116214
-0.000202264
0.000179608
-0.00018958
0.000239709
-0.00017987
0.00029901
-0.000177554
0.000358259
-0.000177397
0.000417443
-0.000177192
0.00047646
-0.000176686
0.000535252
-0.000176014
0.000593789
-0.000175254
0.000652047
-0.00017442
0.000709999
-0.000173511
0.000767621
-0.000172523
0.000824885
-0.000171459
0.000881767
-0.000170318
0.000938241
-0.000169102
0.000994282
-0.000167811
0.00104987
-0.000166449
0.00110497
-0.000165014
0.00115957
-0.00016351
0.00121364
-0.000161937
0.00126716
-0.000160297
0.00132011
-0.000158592
0.00137246
-0.000156823
0.0014242
-0.000154992
0.00147531
-0.0001531
0.00152576
-0.00015115
0.00157554
-0.000149144
0.00162462
-0.000147082
0.001673
-0.000144968
0.00172065
-0.000142804
0.00176756
-0.000140591
0.00181371
-0.000138332
0.00185909
-0.000136028
0.00190368
-0.000133683
0.00194748
-0.000131298
0.00199045
-0.000128875
0.00203261
-0.000126417
0.00207393
-0.000123927
0.0021144
-0.000121406
0.00215402
-0.000118857
0.00219278
-0.000116283
0.00223066
-0.000113685
0.00226766
-0.000111067
0.00230378
-0.00010843
0.00233902
-0.000105777
0.00237335
-0.000103111
0.00240679
-0.000100433
0.00243933
-9.77473e-05
0.00247096
-9.50551e-05
0.0025017
-9.2359e-05
0.00253152
-8.96615e-05
0.00256044
-8.69649e-05
0.00258846
-8.42717e-05
0.00261558
-8.1584e-05
0.0026418
-7.89044e-05
0.00266712
-7.6235e-05
0.00269156
-7.35781e-05
0.00271511
-7.09359e-05
0.00273777
-6.83108e-05
0.00275957
-6.57047e-05
0.0027805
-6.31199e-05
0.00280057
-6.05585e-05
0.00281978
-5.80226e-05
0.00283816
-5.5514e-05
0.00285571
-5.30349e-05
0.00287244
-5.05871e-05
0.00288836
-4.81726e-05
0.00290348
-4.57932e-05
0.00291782
-4.34506e-05
0.00293138
-4.11467e-05
0.00294419
-3.8883e-05
0.00295626
-3.66612e-05
0.00296759
-3.44828e-05
0.00297821
-3.23495e-05
0.00298813
-3.02625e-05
0.00299737
-2.82233e-05
0.00300595
-2.62332e-05
0.00301387
-2.42934e-05
0.00302117
-2.2405e-05
0.00302785
-2.05689e-05
0.00303393
-1.87852e-05
0.00303942
-1.70524e-05
0.00304431
-1.53663e-05
0.00304863
-1.3731e-05
0.00305238
-1.21569e-05
0.0030556
-1.06563e-05
0.00305833
-9.24394e-06
0.00306063
-7.91611e-06
0.00306251
-6.65026e-06
0.00306397
-5.43273e-06
0.00306504
-4.26274e-06
0.00306574
-3.14657e-06
0.00306608
-2.08992e-06
0.00306612
-1.10564e-06
0.00306595
-2.29214e-07
0.00306528
8.18739e-07
0.00306427
1.64932e-06
0.00306301
2.3965e-06
0.00306153
3.07986e-06
0.00305985
3.70306e-06
0.00305799
4.26614e-06
0.00305597
4.7688e-06
0.00305381
5.21107e-06
0.00305154
5.59323e-06
0.00304916
5.9158e-06
0.0030467
6.17934e-06
0.00304418
6.38455e-06
0.00304161
6.53216e-06
0.00303902
6.62299e-06
0.00303643
6.65785e-06
0.00303385
6.63761e-06
0.00303129
6.56315e-06
0.00302879
6.43546e-06
0.00302634
6.25565e-06
0.00302398
6.02491e-06
0.00302172
5.74449e-06
0.00301957
5.41563e-06
0.00301756
5.03966e-06
0.00301568
4.618e-06
0.00301397
4.15221e-06
0.00301244
3.644e-06
0.00301109
3.09513e-06
0.00300994
2.50761e-06
0.003009
1.8838e-06
0.00300828
1.22668e-06
0.00300779
5.37906e-07
0.00300761
-2.28375e-07
0.0030077
-1.01075e-06
0.00300803
-1.78388e-06
0.00300862
-2.59929e-06
0.0030095
-3.4378e-06
0.00301066
-4.30569e-06
0.00301213
-5.19983e-06
0.00301392
-6.1158e-06
0.00301604
-7.05812e-06
0.00301848
-8.01753e-06
0.00302124
-8.97721e-06
0.00302434
-9.96346e-06
0.00302778
-1.09736e-05
0.00303156
-1.19729e-05
0.00303569
-1.2996e-05
0.00304016
-1.4023e-05
0.00304499
-1.50599e-05
0.00305018
-1.60996e-05
0.00305573
-1.71406e-05
0.00306163
-1.81806e-05
0.00306788
-1.92194e-05
0.00307449
-2.02581e-05
0.00308146
-2.1288e-05
0.00308878
-2.23131e-05
0.00309645
-2.33324e-05
0.00310447
-2.4344e-05
0.00311284
-2.53453e-05
0.00312156
-2.63284e-05
0.00313061
-2.72991e-05
0.00313999
-2.82559e-05
0.00314971
-2.91956e-05
0.00315975
-3.01172e-05
0.00317012
-3.10188e-05
0.00318079
-3.18991e-05
0.00319178
-3.27587e-05
0.00320307
-3.35914e-05
0.00321465
-3.43997e-05
0.00322652
-3.51806e-05
0.00323867
-3.59334e-05
0.00325109
-3.66566e-05
0.00326377
-3.73484e-05
0.0032767
-3.80088e-05
0.00328987
-3.86349e-05
0.00330328
-3.92267e-05
0.0033169
-3.97829e-05
0.00333074
-4.03025e-05
0.00334478
-4.0784e-05
0.003359
-4.12271e-05
0.0033734
-4.16309e-05
0.00338796
-4.19947e-05
0.00340267
-4.2318e-05
0.00341752
-4.26e-05
0.0034325
-4.28405e-05
0.0034476
-4.30393e-05
0.0034628
-4.3196e-05
0.00347809
-4.33107e-05
0.00349346
-4.33835e-05
0.0035089
-4.34147e-05
0.0035244
-4.3405e-05
0.00353993
-4.33554e-05
0.0035555
-4.3267e-05
0.00357109
-4.31408e-05
0.00358669
-4.29782e-05
0.00360228
-4.2781e-05
0.00361785
-4.25519e-05
0.0036334
-4.22943e-05
0.0036489
-4.20101e-05
0.00366434
-4.16972e-05
0.00367966
-4.13466e-05
0.00369481
-4.09422e-05
0.00370966
-4.04653e-05
0.0037241
-3.99044e-05
0.00373803
-3.92641e-05
0.00375141
-3.85667e-05
0.00376427
-3.78433e-05
0.00377668
-3.71192e-05
0.00378876
-3.64037e-05
0.00380059
-3.56884e-05
0.00381221
-3.49554e-05
0.00382362
-3.41873e-05
0.0038348
-3.33745e-05
0.00384573
-3.25157e-05
0.00385637
-3.16144e-05
0.0038667
-3.06748e-05
0.0038767
-2.96999e-05
0.00388635
-2.86911e-05
0.00389564
-2.76494e-05
0.00390454
-2.65761e-05
0.00391305
-2.54729e-05
0.00392114
-2.43417e-05
0.00392882
-2.31842e-05
0.00393607
-2.20016e-05
0.00394288
-2.07948e-05
0.00394924
-1.95643e-05
0.00395514
-1.83109e-05
0.00396058
-1.70352e-05
0.00396554
-1.57379e-05
0.00397002
-1.44197e-05
0.00397401
-1.30815e-05
0.00397749
-1.17238e-05
0.00398047
-1.03477e-05
0.00398294
-8.95358e-06
0.00398488
-7.54227e-06
0.0039863
-6.11441e-06
0.00398719
-4.67082e-06
0.00398754
-3.21257e-06
0.00398735
-1.74062e-06
0.00398662
-2.46004e-07
0.00398531
1.27853e-06
0.00398344
2.7857e-06
0.00398102
4.32309e-06
0.00397804
5.85155e-06
0.00397449
7.41605e-06
0.00397037
8.98502e-06
0.00396569
1.05614e-05
0.00396043
1.21591e-05
0.00395461
1.37596e-05
0.0039482
1.53772e-05
0.00394122
1.70095e-05
0.00393366
1.86448e-05
0.00392552
2.03023e-05
0.0039168
2.19615e-05
0.00390751
2.36362e-05
0.00389763
2.53224e-05
0.00388717
2.7025e-05
0.00387613
2.87336e-05
0.00386451
3.04547e-05
0.00385232
3.21903e-05
0.00383954
3.39412e-05
0.00382618
3.57042e-05
0.00381225
3.74784e-05
0.00379774
3.92668e-05
0.00378264
4.10717e-05
0.00376697
4.28907e-05
0.00375073
4.47258e-05
0.0037339
4.65742e-05
0.0037165
4.84366e-05
0.00369852
5.03166e-05
0.00367996
5.22146e-05
0.00366081
5.41317e-05
0.00364107
5.60688e-05
0.00362075
5.80238e-05
0.00359982
5.99974e-05
0.00357831
6.19888e-05
0.00355619
6.3997e-05
0.00353348
6.602e-05
0.00351019
6.80549e-05
0.00348633
7.01003e-05
0.00346191
7.21594e-05
0.00343695
7.4239e-05
0.00341147
7.63445e-05
0.00338547
7.84757e-05
0.00335899
8.06291e-05
0.00333205
8.2801e-05
0.00330468
8.49892e-05
0.00327693
8.71906e-05
0.00324885
8.94021e-05
0.00322048
9.16269e-05
0.00319184
9.38778e-05
0.00316291
9.61698e-05
0.00313366
9.85056e-05
0.00310401
0.000100867
0.0030739
0.000103219
0.00304331
0.000105529
0.00301222
0.000107776
0.00298065
0.000109956
0.00294857
0.000112077
0.00291596
0.000114155
0.00288273
0.000116213
0.00284873
0.000118276
0.00281374
0.000120363
0.00277756
0.000122471
0.00274008
0.000124569
0.00270133
0.000126607
0.00266151
0.000128545
0.00262086
0.00013038
0.00257962
0.000132141
0.00253792
0.000133876
0.00249577
0.000135619
0.00245316
0.000137381
0.00241004
0.000139156
0.00236637
0.000140928
0.00232214
0.000142687
0.00227733
0.000144425
0.00223194
0.000146141
0.00218596
0.000147834
0.00213937
0.000149503
0.00209215
0.000151148
0.0020443
0.000152768
0.00199578
0.000154361
0.0019466
0.000155927
0.00189673
0.000157464
0.00184615
0.000158971
0.00179486
0.000160447
0.00174284
0.000161892
0.00169007
0.000163304
0.00163654
0.000164682
0.00158225
0.000166024
0.00152718
0.00016733
0.00147133
0.000168598
0.00141468
0.000169827
0.00135724
0.000171016
0.00129901
0.000172163
0.00123999
0.000173267
0.00118017
0.000174327
0.00111958
0.000175341
0.00105823
0.000176307
0.000996123
0.000177225
0.000933288
0.000178093
0.000869749
0.000178908
0.000805533
0.00017967
0.000740674
0.000180378
0.000675208
0.000181029
0.000609177
0.000181622
0.000542626
0.000182156
0.000475607
0.000182622
0.000408177
0.000183017
0.000340361
0.000183411
0.000272095
0.000184057
0.000203506
0.000184467
0.000136339
0.000180176
7.36318e-05
0.000167523
0.000199121
4.87644e-05
-0.000194551
0.000116693
-0.000270193
0.000180401
-0.000253288
0.00024079
-0.000240259
0.000300366
-0.00023713
0.000359886
-0.000236916
0.00041934
-0.000236646
0.000478626
-0.000235972
0.000537685
-0.000235073
0.000596488
-0.000234057
0.000655009
-0.000232942
0.000713223
-0.000231725
0.000771105
-0.000230405
0.000828627
-0.000228981
0.000885764
-0.000227455
0.00094249
-0.000225828
0.000998782
-0.000224103
0.00105461
-0.00022228
0.00110996
-0.000220362
0.0011648
-0.00021835
0.00121911
-0.000216246
0.00127287
-0.000214053
0.00132605
-0.000211772
0.00137863
-0.000209406
0.00143059
-0.000206957
0.00148192
-0.000204427
0.00153259
-0.000201819
0.00158258
-0.000199135
0.00163188
-0.000196378
0.00168046
-0.000193551
0.00172831
-0.000190656
0.00177541
-0.000187696
0.00182176
-0.000184674
0.00186732
-0.000181593
0.0019121
-0.000178456
0.00195606
-0.000175266
0.00199922
-0.000172026
0.00204154
-0.000168739
0.00208302
-0.000165408
0.00212365
-0.000162037
0.00216342
-0.000158628
0.00220232
-0.000155185
0.00224035
-0.000151711
0.00227749
-0.000148209
0.00231374
-0.000144683
0.0023491
-0.000141135
0.00238356
-0.000137569
0.00241711
-0.000133989
0.00244976
-0.000130397
0.00248151
-0.000126797
0.00251234
-0.000123191
0.00254226
-0.000119584
0.00257127
-0.000115978
0.00259938
-0.000112377
0.00262658
-0.000108784
0.00265288
-0.000105201
0.00267827
-0.000101631
0.00270277
-9.8079e-05
0.00272638
-9.45464e-05
0.00274911
-9.10366e-05
0.00277096
-8.75525e-05
0.00279193
-8.40968e-05
0.00281205
-8.06725e-05
0.00283131
-7.72823e-05
0.00284972
-7.39288e-05
0.0028673
-7.06148e-05
0.00288406
-6.73428e-05
0.0029
-6.41154e-05
0.00291514
-6.09349e-05
0.0029295
-5.78039e-05
0.00294307
-5.47246e-05
0.00295589
-5.16993e-05
0.00296796
-4.87302e-05
0.0029793
-4.58194e-05
0.00298992
-4.2969e-05
0.00299983
-4.01808e-05
0.00300907
-3.74567e-05
0.00301763
-3.47987e-05
0.00302555
-3.22082e-05
0.00303283
-2.96871e-05
0.0030395
-2.72368e-05
0.00304557
-2.48589e-05
0.00305107
-2.25557e-05
0.00305604
-2.0331e-05
0.0030605
-1.81906e-05
0.00306447
-1.6131e-05
0.00306796
-1.41473e-05
0.00307096
-1.22402e-05
0.00307345
-1.04101e-05
0.00307546
-8.65949e-06
0.00307702
-6.98755e-06
0.00307815
-5.39665e-06
0.00307889
-3.88212e-06
0.00307924
-2.44193e-06
0.00307919
-1.05676e-06
0.00307881
1.55368e-07
0.00307837
1.25654e-06
0.00307767
2.35069e-06
0.00307669
3.36875e-06
0.00307547
4.30018e-06
0.00307403
5.14501e-06
0.00307239
5.90491e-06
0.00307058
6.5814e-06
0.00306862
7.17565e-06
0.00306652
7.68865e-06
0.00306432
8.12134e-06
0.00306202
8.47465e-06
0.00305966
8.74958e-06
0.00305724
8.94717e-06
0.00305479
9.06853e-06
0.00305234
9.11485e-06
0.00304989
9.08741e-06
0.00304746
8.98753e-06
0.00304508
8.81667e-06
0.00304276
8.57632e-06
0.00304052
8.26808e-06
0.00303837
7.89361e-06
0.00303633
7.45463e-06
0.00303442
6.95295e-06
0.00303264
6.3904e-06
0.00303103
5.7689e-06
0.00302958
5.09038e-06
0.00302832
4.35673e-06
0.00302726
3.56973e-06
0.00302641
2.73082e-06
0.0030258
1.84068e-06
0.00302544
8.99381e-07
0.00302528
-7.68375e-08
0.00302532
-1.04346e-06
0.00302568
-2.14339e-06
0.00302632
-3.24792e-06
0.00302727
-4.3818e-06
0.00302851
-5.54758e-06
0.00303006
-6.74496e-06
0.00303191
-7.97288e-06
0.00303408
-9.22826e-06
0.00303657
-1.05055e-05
0.00303939
-1.17928e-05
0.00304255
-1.31264e-05
0.00304604
-1.44668e-05
0.00304988
-1.58055e-05
0.00305406
-1.71854e-05
0.00305859
-1.85483e-05
0.00306347
-1.99426e-05
0.00306871
-2.13338e-05
0.00307429
-2.27246e-05
0.00308022
-2.41107e-05
0.0030865
-2.55032e-05
0.00309315
-2.68986e-05
0.00310014
-2.82831e-05
0.00310748
-2.96576e-05
0.00311517
-3.10228e-05
0.00312321
-3.23763e-05
0.00313158
-3.37147e-05
0.00314028
-3.50287e-05
0.00314931
-3.63371e-05
0.00315868
-3.762e-05
0.00316836
-3.88804e-05
0.00317836
-4.01158e-05
0.00318867
-4.13248e-05
0.00319927
-4.25054e-05
0.00321017
-4.36564e-05
0.00322135
-4.47731e-05
0.00323281
-4.58568e-05
0.00324454
-4.69046e-05
0.00325652
-4.79148e-05
0.00326875
-4.88855e-05
0.00328121
-4.98148e-05
0.0032939
-5.07016e-05
0.00330681
-5.15433e-05
0.00331993
-5.234e-05
0.00333323
-5.309e-05
0.00334672
-5.37905e-05
0.00336038
-5.4441e-05
0.00337419
-5.50419e-05
0.00338815
-5.55904e-05
0.00340224
-5.60848e-05
0.00341645
-5.65269e-05
0.00343077
-5.69135e-05
0.00344517
-5.72449e-05
0.00345965
-5.7521e-05
0.0034742
-5.77404e-05
0.00348879
-5.79036e-05
0.00350342
-5.80107e-05
0.00351806
-5.80612e-05
0.00353271
-5.80558e-05
0.00354735
-5.79946e-05
0.00356196
-5.78786e-05
0.00357653
-5.77085e-05
0.00359104