/*--------------------------------*- C++ -*----------------------------------*\
| =========                 |                                                 |
| \\      /  F ield         | OpenFOAM: The Open Source CFD Toolbox           |
|  \\    /   O peration     | Version:  v2006                                 |
|   \\  /    A nd           | Website:  www.openfoam.com                      |
|    \\/     M anipulation  |                                                 |
\*---------------------------------------------------------------------------*/
FoamFile
{
    version     2.0;
    format      ascii;
    class       volVectorField;
    location    "0";
    object      U;
}
// * * * * * * * * * * * * * * * * * * * * * * * * * * * * * * * * * * * * * //

dimensions      [0 1 -1 0 0 0 0];


internalField   nonuniform List<vector> 
20000
(
(1 2.45625e-12 0)
(1 7.04103e-12 0)
(1 1.20204e-11 0)
(1 1.76317e-11 0)
(1 2.38436e-11 0)
(1 3.07109e-11 0)
(1 3.83634e-11 0)
(1 4.6991e-11 0)
(1 5.68318e-11 0)
(1 6.81618e-11 0)
(1 8.12738e-11 0)
(1 9.64549e-11 0)
(1 1.13994e-10 0)
(1 1.34183e-10 0)
(1 1.57301e-10 0)
(1 1.83584e-10 0)
(1 2.13162e-10 0)
(1 2.46023e-10 0)
(1 2.81984e-10 0)
(1 3.20686e-10 0)
(1 3.61604e-10 0)
(1 4.04055e-10 0)
(1 4.47189e-10 0)
(1 4.89982e-10 0)
(1 5.31239e-10 0)
(1 5.69631e-10 0)
(1 6.03761e-10 0)
(1 6.32283e-10 0)
(1 6.54028e-10 0)
(1 6.68131e-10 0)
(1 6.74125e-10 0)
(1 6.71978e-10 0)
(1 6.62055e-10 0)
(1 6.45018e-10 0)
(1 6.21719e-10 0)
(1 5.93102e-10 0)
(1 5.60112e-10 0)
(1 5.23588e-10 0)
(1 4.84184e-10 0)
(1 4.42365e-10 0)
(1 3.98434e-10 0)
(1 3.52589e-10 0)
(1 3.0498e-10 0)
(1 2.55775e-10 0)
(1 2.05217e-10 0)
(1 1.53633e-10 0)
(1 1.01466e-10 0)
(1 4.93061e-11 0)
(1 -2.04936e-12 0)
(1 -5.15186e-11 0)
(1 -9.77726e-11 0)
(1 -1.39315e-10 0)
(1 -1.74612e-10 0)
(1 -2.02143e-10 0)
(1 -2.19897e-10 0)
(1 -2.25967e-10 0)
(1 -2.2042e-10 0)
(1 -2.04484e-10 0)
(1 -1.82412e-10 0)
(1 -1.82809e-10 0)
(1 -2.5982e-10 0)
(1 -4.35442e-10 0)
(1 -7.09718e-10 0)
(1 -1.08665e-09 0)
(1 -1.57813e-09 0)
(1 -2.20258e-09 0)
(1 -2.98467e-09 0)
(1 -3.95574e-09 0)
(1 -5.15457e-09 0)
(1 -6.62804e-09 0)
(1 -8.43166e-09 0)
(1 -1.06305e-08 0)
(1 -1.33015e-08 0)
(1 -1.65379e-08 0)
(1 -2.04495e-08 0)
(1 -2.51532e-08 0)
(1 -3.07513e-08 0)
(1 -3.734e-08 0)
(1 -4.51026e-08 0)
(1 -5.4437e-08 0)
(1 -6.57865e-08 0)
(1 -7.87838e-08 0)
(1 -9.13387e-08 0)
(1 -1.01688e-07 0)
(1 -1.16067e-07 0)
(1.00001 -1.54161e-07 0)
(1.00001 -2.25859e-07 0)
(1.00001 -2.64053e-07 0)
(1.00001 -1.07555e-07 0)
(1.00001 2.69792e-07 0)
(1.00001 6.75967e-07 0)
(1.00001 1.0031e-06 0)
(1.00001 1.22826e-06 0)
(1 1.37389e-06 0)
(1 1.46803e-06 0)
(1 1.53026e-06 0)
(0.999997 1.57257e-06 0)
(0.999995 1.60325e-06 0)
(0.999992 1.62987e-06 0)
(0.99999 1.66038e-06 0)
(0.999987 1.70253e-06 0)
(0.999984 1.7619e-06 0)
(0.999982 1.83897e-06 0)
(0.999979 1.92643e-06 0)
(0.999976 2.00792e-06 0)
(0.999973 2.05961e-06 0)
(0.99997 2.05496e-06 0)
(0.999968 1.97193e-06 0)
(0.999964 1.79923e-06 0)
(0.999961 1.53893e-06 0)
(0.999958 1.20508e-06 0)
(0.999955 8.1836e-07 0)
(0.999951 3.99993e-07 0)
(0.999948 -3.14121e-08 0)
(0.999945 -4.59998e-07 0)
(0.999942 -8.70857e-07 0)
(0.99994 -1.24835e-06 0)
(0.999937 -1.57588e-06 0)
(0.999935 -1.8369e-06 0)
(0.999934 -2.01666e-06 0)
(0.999932 -2.10421e-06 0)
(0.999931 -2.09396e-06 0)
(0.99993 -1.98676e-06 0)
(0.99993 -1.79396e-06 0)
(0.99993 -1.54859e-06 0)
(0.99993 -1.32984e-06 0)
(0.999931 -1.18518e-06 0)
(0.999932 -1.11462e-06 0)
(0.999935 -1.09754e-06 0)
(0.99994 -1.1001e-06 0)
(0.999945 -1.07512e-06 0)
(0.999952 -9.64407e-07 0)
(0.999959 -7.04558e-07 0)
(0.999966 -2.34725e-07 0)
(0.999974 4.90815e-07 0)
(0.99998 1.48017e-06 0)
(0.999984 2.66897e-06 0)
(0.999986 3.83252e-06 0)
(0.999985 4.62109e-06 0)
(0.999984 5.03507e-06 0)
(0.999982 5.16682e-06 0)
(0.999979 5.09065e-06 0)
(0.999976 4.84407e-06 0)
(0.999972 4.44345e-06 0)
(0.999968 3.90041e-06 0)
(0.999964 3.22904e-06 0)
(0.999959 2.44842e-06 0)
(0.999954 1.58433e-06 0)
(0.999949 6.69023e-07 0)
(0.999945 -2.592e-07 0)
(0.99994 -1.15832e-06 0)
(0.999935 -1.98562e-06 0)
(0.999931 -2.7013e-06 0)
(0.999927 -3.27216e-06 0)
(0.999924 -3.67466e-06 0)
(0.999921 -3.89713e-06 0)
(0.999919 -3.94061e-06 0)
(0.999917 -3.81832e-06 0)
(0.999915 -3.55357e-06 0)
(0.999915 -3.17636e-06 0)
(0.999914 -2.72269e-06 0)
(0.999914 -2.24709e-06 0)
(0.999914 -1.8389e-06 0)
(0.999915 -1.53643e-06 0)
(0.999916 -1.33274e-06 0)
(0.999919 -1.20585e-06 0)
(0.999922 -1.12778e-06 0)
(0.999927 -1.06883e-06 0)
(0.999931 -1.00423e-06 0)
(0.999936 -9.20665e-07 0)
(0.999941 -8.19079e-07 0)
(0.999945 -7.1169e-07 0)
(0.999949 -6.14262e-07 0)
(0.999952 -5.37992e-07 0)
(0.999956 -4.85948e-07 0)
(0.999959 -4.54793e-07 0)
(0.999961 -4.38341e-07 0)
(0.999964 -4.30122e-07 0)
(0.999967 -4.24691e-07 0)
(0.99997 -4.18196e-07 0)
(0.999973 -4.08401e-07 0)
(0.999975 -3.94388e-07 0)
(0.999978 -3.76169e-07 0)
(0.99998 -3.54338e-07 0)
(0.999983 -3.29781e-07 0)
(0.999985 -3.03474e-07 0)
(0.999987 -2.76348e-07 0)
(0.999988 -2.49214e-07 0)
(0.99999 -2.22728e-07 0)
(0.999991 -1.97384e-07 0)
(0.999993 -1.73522e-07 0)
(0.999994 -1.5135e-07 0)
(0.999995 -1.3096e-07 0)
(0.999995 -1.12359e-07 0)
(0.999996 -9.5485e-08 0)
(0.999997 -8.02126e-08 0)
(0.999997 -6.64515e-08 0)
(0.999998 -5.37384e-08 0)
(0.999998 -4.33435e-08 0)
(0.999998 -2.77515e-08 0)
(1 4.64928e-12 0)
(1 1.25986e-11 0)
(1 2.03553e-11 0)
(1 2.84044e-11 0)
(1 3.6702e-11 0)
(1 4.53134e-11 0)
(1 5.4386e-11 0)
(1 6.40912e-11 0)
(1 7.45935e-11 0)
(1 8.60528e-11 0)
(1 9.86456e-11 0)
(1 1.12558e-10 0)
(1 1.2798e-10 0)
(1 1.45073e-10 0)
(1 1.63951e-10 0)
(1 1.84679e-10 0)
(1 2.07281e-10 0)
(1 2.31737e-10 0)
(1 2.57978e-10 0)
(1 2.85864e-10 0)
(1 3.15176e-10 0)
(1 3.45611e-10 0)
(1 3.7679e-10 0)
(1 4.08287e-10 0)
(1 4.39663e-10 0)
(1 4.70515e-10 0)
(1 5.00511e-10 0)
(1 5.29447e-10 0)
(1 5.57281e-10 0)
(1 5.84159e-10 0)
(1 6.10427e-10 0)
(1 6.36605e-10 0)
(1 6.63335e-10 0)
(1 6.91322e-10 0)
(1 7.21264e-10 0)
(1 7.53782e-10 0)
(1 7.89355e-10 0)
(1 8.28255e-10 0)
(1 8.7056e-10 0)
(1 9.16193e-10 0)
(1 9.64949e-10 0)
(1 1.0165e-09 0)
(1 1.07038e-09 0)
(1 1.12599e-09 0)
(1 1.18253e-09 0)
(1 1.23894e-09 0)
(1 1.29387e-09 0)
(1 1.34562e-09 0)
(1 1.39213e-09 0)
(1 1.43091e-09 5.45158e-43)
(1 1.45889e-09 5.86848e-43)
(1 1.47226e-09 0)
(1 1.46644e-09 0)
(1 1.43611e-09 0)
(1 1.37554e-09 0)
(1 1.27789e-09 0)
(1 1.13426e-09 0)
(1 9.35258e-10 0)
(1 6.69329e-10 0)
(1 3.01773e-10 0)
(1 -2.2443e-10 0)
(1 -9.44734e-10 0)
(1 -1.88813e-09 0)
(1 -3.09505e-09 0)
(1 -4.61822e-09 0)
(1 -6.52297e-09 0)
(1 -8.88933e-09 0)
(1 -1.1815e-08 0)
(1 -1.54186e-08 0)
(1 -1.98417e-08 0)
(1 -2.52518e-08 0)
(1 -3.18464e-08 0)
(1 -3.98595e-08 0)
(1 -4.95655e-08 0)
(1 -6.12787e-08 0)
(1 -7.53453e-08 0)
(1 -9.21358e-08 0)
(1 -1.12054e-07 0)
(1 -1.35568e-07 0)
(1 -1.63235e-07 0)
(1 -1.95605e-07 0)
(1 -2.32935e-07 0)
(1 -2.7496e-07 0)
(1 -3.21677e-07 0)
(1 -3.75643e-07 0)
(1.00001 -4.42509e-07 0)
(1.00001 -5.19689e-07 0)
(1.00001 -5.67485e-07 0)
(1.00001 -5.07355e-07 0)
(1.00001 -3.57837e-07 0)
(1.00001 -2.5153e-07 0)
(1.00002 -2.13567e-07 0)
(1.00003 -2.20494e-07 0)
(1.00003 -2.39478e-07 0)
(1.00004 -2.49367e-07 0)
(1.00004 -2.4224e-07 0)
(1.00005 -2.18699e-07 0)
(1.00005 -1.84719e-07 0)
(1.00006 -1.50245e-07 0)
(1.00006 -1.28096e-07 0)
(1.00007 -1.31808e-07 0)
(1.00007 -1.71438e-07 0)
(1.00008 -2.47398e-07 0)
(1.00009 -3.44116e-07 0)
(1.00009 -4.27898e-07 0)
(1.0001 -4.54357e-07 0)
(1.00011 -3.85133e-07 0)
(1.00011 -2.05222e-07 0)
(1.00012 7.4511e-08 0)
(1.00012 4.24162e-07 0)
(1.00012 8.09213e-07 0)
(1.00012 1.20449e-06 0)
(1.00012 1.59455e-06 0)
(1.00011 1.969e-06 0)
(1.0001 2.31668e-06 0)
(1.00009 2.62349e-06 0)
(1.00008 2.8732e-06 0)
(1.00007 3.04871e-06 0)
(1.00005 3.13414e-06 0)
(1.00003 3.11863e-06 0)
(1.00002 2.99902e-06 0)
(1 2.77951e-06 0)
(0.999986 2.46954e-06 0)
(0.999973 2.0808e-06 0)
(0.999963 1.61929e-06 0)
(0.999955 1.06215e-06 0)
(0.999949 4.15858e-07 0)
(0.999946 -2.96194e-07 0)
(0.999945 -1.04188e-06 0)
(0.999947 -1.7928e-06 0)
(0.999951 -2.52062e-06 0)
(0.999957 -3.19496e-06 0)
(0.999966 -3.7833e-06 0)
(0.999978 -4.25083e-06 0)
(0.999992 -4.56225e-06 0)
(1.00001 -4.68785e-06 0)
(1.00003 -4.6181e-06 0)
(1.00006 -4.43289e-06 0)
(1.00008 -4.30719e-06 0)
(1.00011 -4.1653e-06 0)
(1.00014 -3.92633e-06 0)
(1.00017 -3.5492e-06 0)
(1.00019 -3.02346e-06 0)
(1.00022 -2.35496e-06 0)
(1.00023 -1.55899e-06 0)
(1.00025 -6.56528e-07 0)
(1.00026 3.23474e-07 0)
(1.00026 1.34029e-06 0)
(1.00026 2.3498e-06 0)
(1.00025 3.30464e-06 0)
(1.00023 4.15651e-06 0)
(1.00021 4.86077e-06 0)
(1.00019 5.3812e-06 0)
(1.00016 5.69441e-06 0)
(1.00013 5.79259e-06 0)
(1.0001 5.68355e-06 0)
(1.00007 5.38803e-06 0)
(1.00004 4.93615e-06 0)
(1.00001 4.36461e-06 0)
(0.999991 3.71445e-06 0)
(0.999972 3.0251e-06 0)
(0.999957 2.31867e-06 0)
(0.999945 1.58179e-06 0)
(0.999938 8.30625e-07 0)
(0.999933 9.85038e-08 0)
(0.99993 -5.80692e-07 0)
(0.99993 -1.16368e-06 0)
(0.999932 -1.60512e-06 0)
(0.999935 -1.87124e-06 0)
(0.999939 -1.95718e-06 0)
(0.999943 -1.8952e-06 0)
(0.999946 -1.74596e-06 0)
(0.99995 -1.57572e-06 0)
(0.999953 -1.43241e-06 0)
(0.999956 -1.3357e-06 0)
(0.999959 -1.28312e-06 0)
(0.999962 -1.2616e-06 0)
(0.999964 -1.25566e-06 0)
(0.999967 -1.25179e-06 0)
(0.99997 -1.24044e-06 0)
(0.999973 -1.2163e-06 0)
(0.999975 -1.17759e-06 0)
(0.999978 -1.12502e-06 0)
(0.99998 -1.06082e-06 0)
(0.999983 -9.87929e-07 0)
(0.999985 -9.09479e-07 0)
(0.999987 -8.28383e-07 0)
(0.999988 -7.4715e-07 0)
(0.99999 -6.67795e-07 0)
(0.999991 -5.91829e-07 0)
(0.999993 -5.2029e-07 0)
(0.999994 -4.53807e-07 0)
(0.999995 -3.92669e-07 0)
(0.999995 -3.36892e-07 0)
(0.999996 -2.86293e-07 0)
(0.999997 -2.40498e-07 0)
(0.999997 -1.99233e-07 0)
(0.999998 -1.61113e-07 0)
(0.999998 -1.29935e-07 0)
(0.999998 -8.32049e-08 0)
(1 5.35823e-12 0)
(1 1.43914e-11 0)
(1 2.28073e-11 0)
(1 3.11537e-11 0)
(1 3.94407e-11 0)
(1 4.77356e-11 0)
(1 5.61381e-11 0)
(1 6.4718e-11 0)
(1 7.34978e-11 0)
(1 8.24718e-11 0)
(1 9.16685e-11 0)
(1 1.01164e-10 0)
(1 1.11056e-10 0)
(1 1.21417e-10 0)
(1 1.32284e-10 0)
(1 1.43701e-10 0)
(1 1.5578e-10 0)
(1 1.6873e-10 0)
(1 1.82865e-10 0)
(1 1.98556e-10 0)
(1 2.16198e-10 0)
(1 2.36187e-10 0)
(1 2.5893e-10 0)
(1 2.84888e-10 0)
(1 3.14618e-10 0)
(1 3.48785e-10 0)
(1 3.88136e-10 0)
(1 4.33442e-10 0)
(1 4.85414e-10 0)
(1 5.44617e-10 0)
(1 6.1142e-10 0)
(1 6.85963e-10 0)
(1 7.68174e-10 0)
(1 8.57813e-10 0)
(1 9.54519e-10 0)
(1 1.05786e-09 0)
(1 1.16735e-09 0)
(1 1.28255e-09 0)
(1 1.4031e-09 0)
(1 1.52867e-09 0)
(1 1.65895e-09 0)
(1 1.79354e-09 0)
(1 1.93182e-09 0)
(1 2.07289e-09 0)
(1 2.21547e-09 0)
(1 2.35773e-09 0)
(1 2.49734e-09 0)
(1 2.63125e-09 0)
(1 2.75562e-09 0)
(1 2.86555e-09 0)
(1 2.95493e-09 0)
(1 3.0161e-09 0)
(1 3.03966e-09 0)
(1 3.01393e-09 0)
(1 2.92418e-09 0)
(1 2.75226e-09 0)
(1 2.47672e-09 0)
(1 2.07224e-09 0)
(1 1.50861e-09 0)
(1 7.53182e-10 0)
(1 -2.27533e-10 0)
(1 -1.48344e-09 0)
(1 -3.08275e-09 0)
(1 -5.10647e-09 0)
(1 -7.64909e-09 0)
(1 -1.08226e-08 0)
(1 -1.47619e-08 0)
(1 -1.96306e-08 0)
(1 -2.56265e-08 0)
(1 -3.29856e-08 0)
(1 -4.19866e-08 0)
(1 -5.29587e-08 0)
(1 -6.62916e-08 0)
(1 -8.24416e-08 0)
(1 -1.01929e-07 0)
(1 -1.2533e-07 0)
(1 -1.53278e-07 0)
(1 -1.86467e-07 0)
(1 -2.25646e-07 0)
(1 -2.71588e-07 0)
(1 -3.25086e-07 0)
(1 -3.87081e-07 0)
(1 -4.58753e-07 0)
(1 -5.40709e-07 0)
(1 -6.30473e-07 0)
(1.00001 -7.20749e-07 0)
(1.00001 -8.06841e-07 0)
(1.00001 -9.07983e-07 0)
(1.00001 -1.07097e-06 0)
(1.00001 -1.29725e-06 0)
(1.00001 -1.51776e-06 0)
(1.00001 -1.68194e-06 0)
(1.00002 -1.77649e-06 0)
(1.00002 -1.80898e-06 0)
(1.00002 -1.79015e-06 0)
(1.00002 -1.72889e-06 0)
(1.00002 -1.6343e-06 0)
(1.00002 -1.52004e-06 0)
(1.00003 -1.4075e-06 0)
(1.00003 -1.32631e-06 0)
(1.00003 -1.31009e-06 0)
(1.00003 -1.38617e-06 0)
(1.00003 -1.55954e-06 0)
(1.00003 -1.79536e-06 0)
(1.00003 -2.01154e-06 0)
(1.00004 -2.09502e-06 0)
(1.00004 -1.94329e-06 0)
(1.00004 -1.507e-06 0)
(1.00004 -8.06933e-07 0)
(1.00004 8.64514e-08 0)
(1.00004 1.08984e-06 0)
(1.00004 2.13371e-06 0)
(1.00004 3.17226e-06 0)
(1.00003 4.17583e-06 0)
(1.00003 5.11652e-06 0)
(1.00002 5.96031e-06 0)
(1.00001 6.66692e-06 0)
(1 7.1918e-06 0)
(0.999993 7.49175e-06 0)
(0.999984 7.53498e-06 0)
(0.999975 7.30865e-06 0)
(0.999966 6.8178e-06 0)
(0.999958 6.07986e-06 0)
(0.999951 5.12219e-06 0)
(0.999946 3.98381e-06 0)
(0.999942 2.71966e-06 0)
(0.999939 1.37844e-06 0)
(0.999939 -2.91612e-09 0)
(0.99994 -1.39978e-06 0)
(0.999943 -2.79103e-06 0)
(0.999947 -4.15863e-06 0)
(0.999954 -5.48698e-06 0)
(0.999962 -6.76137e-06 0)
(0.999972 -7.96619e-06 0)
(0.999983 -9.08255e-06 0)
(0.999995 -1.00824e-05 0)
(1.00001 -1.09182e-05 0)
(1.00002 -1.15015e-05 0)
(1.00004 -1.17168e-05 0)
(1.00005 -1.15374e-05 0)
(1.00006 -1.09773e-05 0)
(1.00007 -1.00521e-05 0)
(1.00009 -8.77146e-06 0)
(1.0001 -7.14954e-06 0)
(1.0001 -5.21385e-06 0)
(1.00011 -3.00927e-06 0)
(1.00011 -6.00998e-07 0)
(1.00011 1.92455e-06 0)
(1.0001 4.46414e-06 0)
(1.0001 6.90076e-06 0)
(1.00009 9.1119e-06 0)
(1.00007 1.09809e-05 0)
(1.00006 1.24097e-05 0)
(1.00004 1.33305e-05 0)
(1.00003 1.37137e-05 0)
(1.00001 1.357e-05 0)
(0.999993 1.29448e-05 0)
(0.999978 1.19099e-05 0)
(0.999964 1.05553e-05 0)
(0.999952 8.98028e-06 0)
(0.999942 7.28133e-06 0)
(0.999935 5.54495e-06 0)
(0.999929 3.84872e-06 0)
(0.999926 2.24485e-06 0)
(0.999924 7.66369e-07 0)
(0.999924 -5.51874e-07 0)
(0.999926 -1.65804e-06 0)
(0.999929 -2.48917e-06 0)
(0.999933 -2.99777e-06 0)
(0.999937 -3.18297e-06 0)
(0.999942 -3.10504e-06 0)
(0.999946 -2.8713e-06 0)
(0.99995 -2.59723e-06 0)
(0.999953 -2.36577e-06 0)
(0.999956 -2.21082e-06 0)
(0.999959 -2.12838e-06 0)
(0.999961 -2.09659e-06 0)
(0.999964 -2.08971e-06 0)
(0.999967 -2.0853e-06 0)
(0.99997 -2.06762e-06 0)
(0.999973 -2.02803e-06 0)
(0.999975 -1.96375e-06 0)
(0.999978 -1.87609e-06 0)
(0.99998 -1.76889e-06 0)
(0.999983 -1.64716e-06 0)
(0.999985 -1.51614e-06 0)
(0.999987 -1.38074e-06 0)
(0.999988 -1.24514e-06 0)
(0.99999 -1.11272e-06 0)
(0.999991 -9.85994e-07 0)
(0.999993 -8.66687e-07 0)
(0.999994 -7.55841e-07 0)
(0.999995 -6.53932e-07 0)
(0.999995 -5.60981e-07 0)
(0.999996 -4.76677e-07 0)
(0.999997 -4.00391e-07 0)
(0.999997 -3.31664e-07 0)
(0.999998 -2.68186e-07 0)
(0.999998 -2.16271e-07 0)
(0.999998 -1.38482e-07 0)
(1 7.41834e-12 0)
(1 2.07265e-11 0)
(1 3.38269e-11 0)
(1 4.72753e-11 0)
(1 6.10645e-11 0)
(1 7.52796e-11 0)
(1 9.00661e-11 0)
(1 1.05577e-10 0)
(1 1.21953e-10 0)
(1 1.39324e-10 0)
(1 1.57878e-10 0)
(1 1.77863e-10 0)
(1 1.99564e-10 0)
(1 2.23238e-10 0)
(1 2.49096e-10 0)
(1 2.77324e-10 0)
(1 3.08139e-10 0)
(1 3.41807e-10 0)
(1 3.78626e-10 0)
(1 4.18881e-10 0)
(1 4.6279e-10 0)
(1 5.10482e-10 0)
(1 5.62018e-10 0)
(1 6.17436e-10 0)
(1 6.76817e-10 0)
(1 7.4031e-10 0)
(1 8.08145e-10 0)
(1 8.80598e-10 0)
(1 9.57953e-10 0)
(1 1.04046e-09 0)
(1 1.12831e-09 0)
(1 1.22164e-09 0)
(1 1.32053e-09 0)
(1 1.42504e-09 0)
(1 1.53523e-09 0)
(1 1.65119e-09 0)
(1 1.77306e-09 0)
(1 1.90101e-09 0)
(1 2.03521e-09 0)
(1 2.17571e-09 0)
(1 2.32241e-09 0)
(1 2.47497e-09 0)
(1 2.6327e-09 0)
(1 2.79451e-09 0)
(1 2.95877e-09 0)
(1 3.12326e-09 0)
(1 3.28503e-09 0)
(1 3.44026e-09 0)
(1 3.58409e-09 0)
(1 3.71044e-09 0)
(1 3.8118e-09 0)
(1 3.8788e-09 0)
(1 3.89969e-09 0)
(1 3.85973e-09 0)
(1 3.74058e-09 0)
(1 3.51967e-09 0)
(1 3.16899e-09 0)
(1 2.65305e-09 0)
(1 1.92714e-09 0)
(1 9.38632e-10 0)
(1 -3.75273e-10 0)
(1 -2.09219e-09 0)
(1 -4.30281e-09 0)
(1 -7.11423e-09 0)
(1 -1.06549e-08 0)
(1 -1.50791e-08 0)
(1 -2.05742e-08 0)
(1 -2.7368e-08 0)
(1 -3.57367e-08 0)
(1 -4.60101e-08 0)
(1 -5.8577e-08 0)
(1 -7.38966e-08 0)
(1 -9.25127e-08 0)
(1 -1.15064e-07 0)
(1 -1.42283e-07 0)
(1 -1.74974e-07 0)
(1 -2.14011e-07 0)
(1 -2.60345e-07 0)
(1 -3.15052e-07 0)
(1 -3.79342e-07 0)
(1 -4.54448e-07 0)
(1 -5.41345e-07 0)
(1 -6.40479e-07 0)
(1 -7.51966e-07 0)
(1 -8.76632e-07 0)
(1.00001 -1.01652e-06 0)
(1.00001 -1.17144e-06 0)
(1.00001 -1.33083e-06 0)
(1.00001 -1.47161e-06 0)
(1.00001 -1.57e-06 0)
(1.00001 -1.62191e-06 0)
(1.00001 -1.64695e-06 0)
(1.00002 -1.65372e-06 0)
(1.00002 -1.63883e-06 0)
(1.00002 -1.59383e-06 0)
(1.00002 -1.51267e-06 0)
(1.00002 -1.39662e-06 0)
(1.00002 -1.25746e-06 0)
(1.00003 -1.11937e-06 0)
(1.00003 -1.01821e-06 0)
(1.00003 -9.95957e-07 0)
(1.00003 -1.08799e-06 0)
(1.00003 -1.30269e-06 0)
(1.00003 -1.59847e-06 0)
(1.00003 -1.8731e-06 0)
(1.00004 -1.98452e-06 0)
(1.00004 -1.80525e-06 0)
(1.00004 -1.27986e-06 0)
(1.00004 -4.39877e-07 0)
(1.00004 6.21842e-07 0)
(1.00004 1.7989e-06 0)
(1.00004 3.008e-06 0)
(1.00004 4.1998e-06 0)
(1.00003 5.34489e-06 0)
(1.00003 6.41346e-06 0)
(1.00002 7.36632e-06 0)
(1.00001 8.15601e-06 0)
(1 8.72966e-06 0)
(0.999993 9.03597e-06 0)
(0.999984 9.03851e-06 0)
(0.999975 8.72486e-06 0)
(0.999966 8.1041e-06 0)
(0.999958 7.19832e-06 0)
(0.999951 6.03708e-06 0)
(0.999946 4.65538e-06 0)
(0.999941 3.09476e-06 0)
(0.999939 1.39573e-06 0)
(0.999938 -3.97069e-07 0)
(0.999939 -2.2383e-06 0)
(0.999942 -4.08188e-06 0)
(0.999947 -5.88185e-06 0)
(0.999954 -7.59187e-06 0)
(0.999962 -9.16476e-06 0)
(0.999971 -1.05533e-05 0)
(0.999983 -1.17122e-05 0)
(0.999995 -1.26032e-05 0)
(1.00001 -1.32011e-05 0)
(1.00002 -1.3492e-05 0)
(1.00004 -1.34564e-05 0)
(1.00005 -1.30864e-05 0)
(1.00006 -1.23506e-05 0)
(1.00008 -1.12202e-05 0)
(1.00009 -9.68277e-06 0)
(1.0001 -7.74712e-06 0)
(1.0001 -5.4442e-06 0)
(1.00011 -2.82916e-06 0)
(1.00011 1.84357e-08 0)
(1.00011 2.99644e-06 0)
(1.0001 5.98016e-06 0)
(1.0001 8.82938e-06 0)
(1.00009 1.13984e-05 0)
(1.00007 1.35494e-05 0)
(1.00006 1.51676e-05 0)
(1.00004 1.61757e-05 0)
(1.00003 1.65435e-05 0)
(1.00001 1.6289e-05 0)
(0.999993 1.54713e-05 0)
(0.999977 1.41796e-05 0)
(0.999964 1.25226e-05 0)
(0.999952 1.06184e-05 0)
(0.999942 8.57809e-06 0)
(0.999934 6.49214e-06 0)
(0.999929 4.42847e-06 0)
(0.999925 2.43434e-06 0)
(0.999924 5.54027e-07 0)
(0.999924 -1.1534e-06 0)
(0.999926 -2.60379e-06 0)
(0.999929 -3.69654e-06 0)
(0.999933 -4.35431e-06 0)
(0.999937 -4.56855e-06 0)
(0.999942 -4.42081e-06 0)
(0.999946 -4.06222e-06 0)
(0.99995 -3.65639e-06 0)
(0.999953 -3.31953e-06 0)
(0.999956 -3.09691e-06 0)
(0.999959 -2.98005e-06 0)
(0.999962 -2.93608e-06 0)
(0.999964 -2.92755e-06 0)
(0.999967 -2.92231e-06 0)
(0.99997 -2.89802e-06 0)
(0.999973 -2.84259e-06 0)
(0.999975 -2.75223e-06 0)
(0.999978 -2.62893e-06 0)
(0.99998 -2.47818e-06 0)
(0.999983 -2.30708e-06 0)
(0.999985 -2.12305e-06 0)
(0.999987 -1.93297e-06 0)
(0.999988 -1.74273e-06 0)
(0.99999 -1.55704e-06 0)
(0.999991 -1.37942e-06 0)
(0.999993 -1.21227e-06 0)
(0.999994 -1.05704e-06 0)
(0.999995 -9.14375e-07 0)
(0.999995 -7.84289e-07 0)
(0.999996 -6.6634e-07 0)
(0.999997 -5.59635e-07 0)
(0.999997 -4.63527e-07 0)
(0.999998 -3.74778e-07 0)
(0.999998 -3.02207e-07 0)
(0.999998 -1.93486e-07 0)
(1 9.58814e-12 0)
(1 2.67445e-11 0)
(1 4.3476e-11 0)
(1 6.03982e-11 0)
(1 7.74965e-11 0)
(1 9.48858e-11 0)
(1 1.12747e-10 0)
(1 1.31261e-10 0)
(1 1.50567e-10 0)
(1 1.70777e-10 0)
(1 1.92052e-10 0)
(1 2.1464e-10 0)
(1 2.38819e-10 0)
(1 2.64819e-10 0)
(1 2.92794e-10 0)
(1 3.22869e-10 0)
(1 3.55226e-10 0)
(1 3.90154e-10 0)
(1 4.28037e-10 0)
(1 4.69295e-10 0)
(1 5.14314e-10 0)
(1 5.63427e-10 0)
(1 6.16933e-10 0)
(1 6.75179e-10 0)
(1 7.38631e-10 0)
(1 8.07919e-10 0)
(1 8.83829e-10 0)
(1 9.67244e-10 0)
(1 1.05905e-09 0)
(1 1.16006e-09 0)
(1 1.27091e-09 0)
(1 1.39208e-09 0)
(1 1.52383e-09 0)
(1 1.6663e-09 0)
(1 1.8195e-09 0)
(1 1.98336e-09 0)
(1 2.15775e-09 0)
(1 2.3425e-09 0)
(1 2.53734e-09 0)
(1 2.74189e-09 0)
(1 2.95562e-09 0)
(1 3.17775e-09 0)
(1 3.40712e-09 0)
(1 3.64207e-09 0)
(1 3.88022e-09 0)
(1 4.1184e-09 0)
(1 4.35241e-09 0)
(1 4.57689e-09 0)
(1 4.78506e-09 0)
(1 4.96851e-09 0)
(1 5.11676e-09 0)
(1 5.21678e-09 0)
(1 5.25243e-09 0)
(1 5.20386e-09 0)
(1 5.04682e-09 0)
(1 4.75172e-09 0)
(1 4.28245e-09 0)
(1 3.59495e-09 0)
(1 2.63565e-09 0)
(1 1.34046e-09 0)
(1 -3.67957e-10 0)
(1 -2.58527e-09 0)
(1 -5.42774e-09 0)
(1 -9.03483e-09 0)
(1 -1.35728e-08 0)
(1 -1.92407e-08 0)
(1 -2.6279e-08 0)
(1 -3.49806e-08 0)
(1 -4.57e-08 0)
(1 -5.88603e-08 0)
(1 -7.496e-08 0)
(1 -9.45871e-08 0)
(1 -1.18439e-07 0)
(1 -1.47335e-07 0)
(1 -1.82215e-07 0)
(1 -2.24114e-07 0)
(1 -2.74159e-07 0)
(1 -3.33583e-07 0)
(1 -4.03751e-07 0)
(1 -4.8615e-07 0)
(1 -5.8231e-07 0)
(1 -6.93736e-07 0)
(1 -8.21809e-07 0)
(1 -9.6736e-07 0)
(1 -1.12948e-06 0)
(1.00001 -1.30418e-06 0)
(1.00001 -1.48573e-06 0)
(1.00001 -1.67235e-06 0)
(1.00001 -1.87023e-06 0)
(1.00001 -2.08119e-06 0)
(1.00001 -2.28919e-06 0)
(1.00001 -2.47064e-06 0)
(1.00002 -2.60098e-06 0)
(1.00002 -2.66448e-06 0)
(1.00002 -2.65468e-06 0)
(1.00002 -2.57306e-06 0)
(1.00002 -2.42985e-06 0)
(1.00002 -2.24711e-06 0)
(1.00003 -2.06197e-06 0)
(1.00003 -1.92653e-06 0)
(1.00003 -1.90094e-06 0)
(1.00003 -2.03595e-06 0)
(1.00003 -2.34462e-06 0)
(1.00003 -2.76972e-06 0)
(1.00003 -3.16773e-06 0)
(1.00004 -3.33681e-06 0)
(1.00004 -3.09387e-06 0)
(1.00004 -2.35553e-06 0)
(1.00004 -1.16586e-06 0)
(1.00004 3.46598e-07 0)
(1.00004 2.03313e-06 0)
(1.00004 3.77563e-06 0)
(1.00004 5.50248e-06 0)
(1.00003 7.16992e-06 0)
(1.00003 8.73373e-06 0)
(1.00002 1.01369e-05 0)
(1.00001 1.13112e-05 0)
(1 1.21806e-05 0)
(0.999993 1.26706e-05 0)
(0.999984 1.27275e-05 0)
(0.999974 1.23317e-05 0)
(0.999966 1.14945e-05 0)
(0.999958 1.02477e-05 0)
(0.999951 8.63664e-06 0)
(0.999945 6.71995e-06 0)
(0.999941 4.56713e-06 0)
(0.999938 2.24892e-06 0)
(0.999938 -1.73342e-07 0)
(0.999939 -2.64122e-06 0)
(0.999942 -5.10475e-06 0)
(0.999946 -7.51967e-06 0)
(0.999953 -9.84408e-06 0)
(0.999961 -1.20355e-05 0)
(0.999971 -1.40484e-05 0)
(0.999982 -1.58321e-05 0)
(0.999994 -1.73294e-05 0)
(1.00001 -1.84751e-05 0)
(1.00002 -1.91952e-05 0)
(1.00004 -1.94107e-05 0)
(1.00005 -1.90702e-05 0)
(1.00006 -1.81387e-05 0)
(1.00008 -1.66005e-05 0)
(1.00009 -1.44574e-05 0)
(1.0001 -1.17318e-05 0)
(1.0001 -8.47162e-06 0)
(1.00011 -4.75561e-06 0)
(1.00011 -6.95663e-07 0)
(1.00011 3.56176e-06 0)
(1.0001 7.8395e-06 0)
(1.0001 1.19382e-05 0)
(1.00009 1.565e-05 0)
(1.00007 1.87772e-05 0)
(1.00006 2.11539e-05 0)
(1.00004 2.26668e-05 0)
(1.00003 2.32689e-05 0)
(1.00001 2.29823e-05 0)
(0.999992 2.18873e-05 0)
(0.999977 2.01079e-05 0)
(0.999963 1.77979e-05 0)
(0.999951 1.51268e-05 0)
(0.999941 1.22582e-05 0)
(0.999933 9.32982e-06 0)
(0.999928 6.44743e-06 0)
(0.999924 3.68649e-06 0)
(0.999923 1.108e-06 0)
(0.999923 -1.21695e-06 0)
(0.999925 -3.18333e-06 0)
(0.999929 -4.66279e-06 0)
(0.999933 -5.55558e-06 0)
(0.999937 -5.85261e-06 0)
(0.999942 -5.66516e-06 0)
(0.999946 -5.19776e-06 0)
(0.99995 -4.67054e-06 0)
(0.999953 -4.23773e-06 0)
(0.999956 -3.95687e-06 0)
(0.999959 -3.81428e-06 0)
(0.999962 -3.76539e-06 0)
(0.999964 -3.76072e-06 0)
(0.999967 -3.75842e-06 0)
(0.99997 -3.7298e-06 0)
(0.999973 -3.65965e-06 0)
(0.999975 -3.54352e-06 0)
(0.999978 -3.38438e-06 0)
(0.99998 -3.18958e-06 0)
(0.999983 -2.9685e-06 0)
(0.999985 -2.73084e-06 0)
(0.999987 -2.48552e-06 0)
(0.999988 -2.24016e-06 0)
(0.99999 -2.00084e-06 0)
(0.999991 -1.77206e-06 0)
(0.999993 -1.55689e-06 0)
(0.999994 -1.35718e-06 0)
(0.999995 -1.17372e-06 0)
(0.999995 -1.00652e-06 0)
(0.999996 -8.54979e-07 0)
(0.999997 -7.1794e-07 0)
(0.999997 -5.94552e-07 0)
(0.999998 -4.80649e-07 0)
(0.999998 -3.87524e-07 0)
(0.999998 -2.48069e-07 0)
(1 1.17402e-11 0)
(1 3.26505e-11 0)
(1 5.30301e-11 0)
(1 7.36776e-11 0)
(1 9.4613e-11 0)
(1 1.1601e-10 0)
(1 1.38106e-10 0)
(1 1.61137e-10 0)
(1 1.85293e-10 0)
(1 2.10738e-10 0)
(1 2.3771e-10 0)
(1 2.66546e-10 0)
(1 2.9763e-10 0)
(1 3.31299e-10 0)
(1 3.67813e-10 0)
(1 4.07409e-10 0)
(1 4.50388e-10 0)
(1 4.9717e-10 0)
(1 5.48269e-10 0)
(1 6.04221e-10 0)
(1 6.65497e-10 0)
(1 7.32469e-10 0)
(1 8.05438e-10 0)
(1 8.84713e-10 0)
(1 9.70697e-10 0)
(1 1.06394e-09 0)
(1 1.16512e-09 0)
(1 1.27501e-09 0)
(1 1.39434e-09 0)
(1 1.52377e-09 0)
(1 1.66374e-09 0)
(1 1.81456e-09 0)
(1 1.97632e-09 0)
(1 2.14901e-09 0)
(1 2.33251e-09 0)
(1 2.52669e-09 0)
(1 2.73139e-09 0)
(1 2.94652e-09 0)
(1 3.17194e-09 0)
(1 3.40745e-09 0)
(1 3.6527e-09 0)
(1 3.90705e-09 0)
(1 4.16937e-09 0)
(1 4.43793e-09 0)
(1 4.71015e-09 0)
(1 4.9825e-09 0)
(1 5.25028e-09 0)
(1 5.50743e-09 0)
(1 5.74626e-09 0)
(1 5.95711e-09 0)
(1 6.1279e-09 0)
(1 6.24354e-09 0)
(1 6.2852e-09 0)
(1 6.22939e-09 0)
(1 6.0469e-09 0)
(1 5.7017e-09 0)
(1 5.14946e-09 0)
(1 4.33565e-09 0)
(1 3.1935e-09 0)
(1 1.64269e-09 0)
(1 -4.13406e-10 0)
(1 -3.09234e-09 0)
(1 -6.53559e-09 0)
(1 -1.09121e-08 0)
(1 -1.64235e-08 0)
(1 -2.3311e-08 0)
(1 -3.18667e-08 0)
(1 -4.24471e-08 0)
(1 -5.54844e-08 0)
(1 -7.1494e-08 0)
(1 -9.10824e-08 0)
(1 -1.14964e-07 0)
(1 -1.43987e-07 0)
(1 -1.79153e-07 0)
(1 -2.21612e-07 0)
(1 -2.72628e-07 0)
(1 -3.33566e-07 0)
(1 -4.05917e-07 0)
(1 -4.91362e-07 0)
(1 -5.91799e-07 0)
(1 -7.09218e-07 0)
(1 -8.45384e-07 0)
(1 -1.00146e-06 0)
(1 -1.1778e-06 0)
(1 -1.37416e-06 0)
(1.00001 -1.58991e-06 0)
(1.00001 -1.82353e-06 0)
(1.00001 -2.07042e-06 0)
(1.00001 -2.32004e-06 0)
(1.00001 -2.55227e-06 0)
(1.00001 -2.74289e-06 0)
(1.00001 -2.87767e-06 0)
(1.00002 -2.94933e-06 0)
(1.00002 -2.95348e-06 0)
(1.00002 -2.88678e-06 0)
(1.00002 -2.74878e-06 0)
(1.00002 -2.54695e-06 0)
(1.00002 -2.30289e-06 0)
(1.00003 -2.05756e-06 0)
(1.00003 -1.87206e-06 0)
(1.00003 -1.81981e-06 0)
(1.00003 -1.96581e-06 0)
(1.00003 -2.3312e-06 0)
(1.00003 -2.85071e-06 0)
(1.00003 -3.34935e-06 0)
(1.00004 -3.57642e-06 0)
(1.00004 -3.30421e-06 0)
(1.00004 -2.43163e-06 0)
(1.00004 -1.02147e-06 0)
(1.00004 7.60711e-07 0)
(1.00004 2.73064e-06 0)
(1.00004 4.74717e-06 0)
(1.00004 6.73135e-06 0)
(1.00003 8.63965e-06 0)
(1.00003 1.04257e-05 0)
(1.00002 1.20251e-05 0)
(1.00001 1.33592e-05 0)
(1 1.43382e-05 0)
(0.999993 1.48734e-05 0)
(0.999984 1.49011e-05 0)
(0.999974 1.44004e-05 0)
(0.999965 1.33877e-05 0)
(0.999957 1.19011e-05 0)
(0.99995 9.9922e-06 0)
(0.999944 7.72545e-06 0)
(0.99994 5.17579e-06 0)
(0.999938 2.4185e-06 0)
(0.999937 -4.71432e-07 0)
(0.999938 -3.42597e-06 0)
(0.999941 -6.37971e-06 0)
(0.999946 -9.26905e-06 0)
(0.999952 -1.20307e-05 0)
(0.999961 -1.46004e-05 0)
(0.99997 -1.69125e-05 0)
(0.999982 -1.8901e-05 0)
(0.999994 -2.05016e-05 0)
(1.00001 -2.16538e-05 0)
(1.00002 -2.22991e-05 0)
(1.00004 -2.23807e-05 0)
(1.00005 -2.18553e-05 0)
(1.00006 -2.0685e-05 0)
(1.00008 -1.88425e-05 0)
(1.00009 -1.63192e-05 0)
(1.0001 -1.31334e-05 0)
(1.0001 -9.33593e-06 0)
(1.00011 -5.01568e-06 0)
(1.00011 -3.0174e-07 0)
(1.00011 4.63681e-06 0)
(1.00011 9.5939e-06 0)
(1.0001 1.43364e-05 0)
(1.00009 1.86205e-05 0)
(1.00008 2.22142e-05 0)
(1.00006 2.49231e-05 0)
(1.00004 2.66158e-05 0)
(1.00003 2.72407e-05 0)
(1.00001 2.68285e-05 0)
(0.999992 2.54781e-05 0)
(0.999976 2.33382e-05 0)
(0.999962 2.05912e-05 0)
(0.99995 1.7437e-05 0)
(0.99994 1.40659e-05 0)
(0.999933 1.06334e-05 0)
(0.999927 7.25351e-06 0)
(0.999924 4.0061e-06 0)
(0.999922 9.56446e-07 0)
(0.999923 -1.81126e-06 0)
(0.999925 -4.16442e-06 0)
(0.999928 -5.93446e-06 0)
(0.999933 -6.98657e-06 0)
(0.999937 -7.3023e-06 0)
(0.999942 -7.01952e-06 0)
(0.999946 -6.39795e-06 0)
(0.99995 -5.71726e-06 0)
(0.999953 -5.16978e-06 0)
(0.999956 -4.82204e-06 0)
(0.999959 -4.65092e-06 0)
(0.999962 -4.59707e-06 0)
(0.999964 -4.59711e-06 0)
(0.999967 -4.59848e-06 0)
(0.99997 -4.56578e-06 0)
(0.999973 -4.48067e-06 0)
(0.999975 -4.33818e-06 0)
(0.999978 -4.14238e-06 0)
(0.99998 -3.90267e-06 0)
(0.999983 -3.6308e-06 0)
(0.999985 -3.33878e-06 0)
(0.999987 -3.03764e-06 0)
(0.999989 -2.73672e-06 0)
(0.99999 -2.44345e-06 0)
(0.999992 -2.16331e-06 0)
(0.999993 -1.90003e-06 0)
(0.999994 -1.65581e-06 0)
(0.999995 -1.4316e-06 0)
(0.999996 -1.22736e-06 0)
(0.999996 -1.04235e-06 0)
(0.999997 -8.75107e-07 0)
(0.999997 -7.24583e-07 0)
(0.999998 -5.85681e-07 0)
(0.999998 -4.72143e-07 0)
(0.999998 -3.02188e-07 0)
(1 1.38742e-11 0)
(1 3.85399e-11 0)
(1 6.25966e-11 0)
(1 8.69924e-11 0)
(1 1.11727e-10 0)
(1 1.36988e-10 0)
(1 1.63044e-10 0)
(1 1.90156e-10 0)
(1 2.18537e-10 0)
(1 2.48364e-10 0)
(1 2.79895e-10 0)
(1 3.13511e-10 0)
(1 3.49643e-10 0)
(1 3.88664e-10 0)
(1 4.30841e-10 0)
(1 4.76408e-10 0)
(1 5.25669e-10 0)
(1 5.79069e-10 0)
(1 6.37172e-10 0)
(1 7.0057e-10 0)
(1 7.69791e-10 0)
(1 8.4525e-10 0)
(1 9.27296e-10 0)
(1 1.01632e-09 0)
(1 1.11284e-09 0)
(1 1.2176e-09 0)
(1 1.33155e-09 0)
(1 1.45573e-09 0)
(1 1.59124e-09 0)
(1 1.73902e-09 0)
(1 1.89985e-09 0)
(1 2.07429e-09 0)
(1 2.26265e-09 0)
(1 2.4651e-09 0)
(1 2.68168e-09 0)
(1 2.91237e-09 0)
(1 3.15713e-09 0)
(1 3.41591e-09 0)
(1 3.68856e-09 0)
(1 3.9748e-09 0)
(1 4.2741e-09 0)
(1 4.58555e-09 0)
(1 4.90767e-09 0)
(1 5.2382e-09 0)
(1 5.57388e-09 0)
(1 5.91031e-09 0)
(1 6.24165e-09 0)
(1 6.56043e-09 0)
(1 6.85716e-09 0)
(1 7.12e-09 -2.70051e-43)
(1 7.33426e-09 -2.90747e-43)
(1 7.48169e-09 0)
(1 7.53959e-09 0)
(1 7.4799e-09 0)
(1 7.26814e-09 0)
(1 6.86213e-09 0)
(1 6.21023e-09 0)
(1 5.24922e-09 0)
(1 3.90191e-09 0)
(1 2.07493e-09 0)
(1 -3.446e-10 0)
(1 -3.49417e-09 0)
(1 -7.53993e-09 0)
(1 -1.26809e-08 0)
(1 -1.91544e-08 0)
(1 -2.72443e-08 0)
(1 -3.72942e-08 0)
(1 -4.97238e-08 0)
(1 -6.50427e-08 0)
(1 -8.38581e-08 0)
(1 -1.06883e-07 0)
(1 -1.34956e-07 0)
(1 -1.69075e-07 0)
(1 -2.10421e-07 0)
(1 -2.60353e-07 0)
(1 -3.20363e-07 0)
(1 -3.92061e-07 0)
(1 -4.77207e-07 0)
(1 -5.7779e-07 0)
(1 -6.96038e-07 0)
(1 -8.34284e-07 0)
(1 -9.94702e-07 0)
(1 -1.17903e-06 0)
(1 -1.38827e-06 0)
(1 -1.62222e-06 0)
(1.00001 -1.87862e-06 0)
(1.00001 -2.15261e-06 0)
(1.00001 -2.43729e-06 0)
(1.00001 -2.72465e-06 0)
(1.00001 -3.00273e-06 0)
(1.00001 -3.25419e-06 0)
(1.00001 -3.46089e-06 0)
(1.00002 -3.60384e-06 0)
(1.00002 -3.66592e-06 0)
(1.00002 -3.63526e-06 0)
(1.00002 -3.50802e-06 0)
(1.00002 -3.29285e-06 0)
(1.00002 -3.01696e-06 0)
(1.00003 -2.73189e-06 0)
(1.00003 -2.51459e-06 0)
(1.00003 -2.45841e-06 0)
(1.00003 -2.6481e-06 0)
(1.00003 -3.11553e-06 0)
(1.00003 -3.78446e-06 0)
(1.00003 -4.4372e-06 0)
(1.00004 -4.75533e-06 0)
(1.00004 -4.44714e-06 0)
(1.00004 -3.38638e-06 0)
(1.00004 -1.64974e-06 0)
(1.00004 5.51973e-07 0)
(1.00004 2.98471e-06 0)
(1.00004 5.4741e-06 0)
(1.00004 7.92667e-06 0)
(1.00003 1.02927e-05 0)
(1.00003 1.25159e-05 0)
(1.00002 1.45164e-05 0)
(1.00001 1.61964e-05 0)
(1 1.74437e-05 0)
(0.999993 1.81455e-05 0)
(0.999984 1.82212e-05 0)
(0.999974 1.76444e-05 0)
(0.999965 1.64363e-05 0)
(0.999957 1.46443e-05 0)
(0.999949 1.2333e-05 0)
(0.999943 9.58452e-06 0)
(0.999939 6.49427e-06 0)
(0.999937 3.15982e-06 0)