/*--------------------------------*- C++ -*----------------------------------*\
| =========                 |                                                 |
| \\      /  F ield         | OpenFOAM: The Open Source CFD Toolbox           |
|  \\    /   O peration     | Version:  v2006                                 |
|   \\  /    A nd           | Website:  www.openfoam.com                      |
|    \\/     M anipulation  |                                                 |
\*---------------------------------------------------------------------------*/
FoamFile
{
    version     2.0;
    format      ascii;
    class       surfaceScalarField;
    location    "3.5";
    object      phi;
}
// * * * * * * * * * * * * * * * * * * * * * * * * * * * * * * * * * * * * * //

dimensions      [0 3 -1 0 0 0 0];
oriented        oriented;


internalField   nonuniform List<scalar> 
104500
(
3.25737e-05
-3.25737e-05
8.50471e-05
-5.24734e-05
0.000133573
-4.85254e-05
0.000178535
-4.49624e-05
0.000222564
-4.40288e-05
0.000266552
-4.39886e-05
0.000310536
-4.39842e-05
0.000354416
-4.388e-05
0.000398135
-4.37184e-05
0.000441667
-4.35319e-05
0.000484995
-4.33285e-05
0.000528103
-4.31078e-05
0.000570972
-4.28689e-05
0.000613584
-4.26116e-05
0.00065592
-4.2336e-05
0.000697962
-4.20426e-05
0.000739694
-4.17317e-05
0.000781098
-4.14037e-05
0.000822156
-4.10588e-05
0.000862854
-4.06975e-05
0.000903174
-4.03201e-05
0.000943101
-3.99271e-05
0.00098262
-3.95189e-05
0.00102172
-3.90959e-05
0.00106037
-3.86586e-05
0.00109858
-3.82076e-05
0.00113633
-3.77433e-05
0.00117359
-3.72662e-05
0.00121037
-3.67769e-05
0.00124664
-3.6276e-05
0.00128241
-3.5764e-05
0.00131765
-3.52415e-05
0.00135236
-3.47091e-05
0.00138653
-3.41674e-05
0.00142014
-3.36171e-05
0.0014532
-3.30589e-05
0.0014857
-3.24932e-05
0.00151762
-3.19209e-05
0.00154896
-3.13425e-05
0.00157972
-3.07587e-05
0.00160989
-3.01703e-05
0.00163947
-2.95779e-05
0.00166845
-2.89821e-05
0.00169683
-2.83838e-05
0.00172462
-2.77835e-05
0.0017518
-2.7182e-05
0.00177838
-2.658e-05
0.00180436
-2.59781e-05
0.00182973
-2.53769e-05
0.00185451
-2.47773e-05
0.00187869
-2.41798e-05
0.00190227
-2.35852e-05
0.00192527
-2.29941e-05
0.00194768
-2.24071e-05
0.0019695
-2.18249e-05
0.00199075
-2.12482e-05
0.00201143
-2.06775e-05
0.00203154
-2.01135e-05
0.0020511
-1.95567e-05
0.0020701
-1.90078e-05
0.00208857
-1.84674e-05
0.00210651
-1.7936e-05
0.00212392
-1.74142e-05
0.00214082
-1.69024e-05
0.00215723
-1.64013e-05
0.00217314
-1.59113e-05
0.00218857
-1.54329e-05
0.00220354
-1.49666e-05
0.00221805
-1.45129e-05
0.00223212
-1.40722e-05
0.00224577
-1.36449e-05
0.002259
-1.32315e-05
0.00227183
-1.28323e-05
0.00228428
-1.24478e-05
0.00229636
-1.20783e-05
0.00230808
-1.17241e-05
0.00231947
-1.13855e-05
0.00233053
-1.10628e-05
0.00234128
-1.0756e-05
0.00235175
-1.0465e-05
0.00236194
-1.01893e-05
0.00237187
-9.92779e-06
0.00238154
-9.67759e-06
0.00239098
-9.43123e-06
0.00240016
-9.18572e-06
0.0024091
-8.93793e-06
0.00241777
-8.67093e-06
0.00242611
-8.34224e-06
0.00243403
-7.91402e-06
0.00244143
-7.40705e-06
0.00244833
-6.89138e-06
0.00245475
-6.42707e-06
0.00246079
-6.03542e-06
0.0024665
-5.71412e-06
0.00247196
-5.45769e-06
0.00247722
-5.26327e-06
0.00248235
-5.12797e-06
0.0024874
-5.04649e-06
0.00249241
-5.01095e-06
0.00249742
-5.01395e-06
0.00250247
-5.04875e-06
0.00250758
-5.11097e-06
0.00251278
-5.19783e-06
0.00251809
-5.30709e-06
0.00252353
-5.43842e-06
0.00252912
-5.59103e-06
0.00253488
-5.76389e-06
0.00254084
-5.95643e-06
0.002547
-6.16715e-06
0.0025534
-6.39524e-06
0.00256004
-6.63933e-06
0.00256694
-6.89802e-06
0.00257411
-7.1698e-06
0.00258156
-7.45257e-06
0.0025893
-7.746e-06
0.00259735
-8.04797e-06
0.00260571
-8.35852e-06
0.00261439
-8.67589e-06
0.00262339
-8.99994e-06
0.00263272
-9.33074e-06
0.00264238
-9.66689e-06
0.00265239
-1.00092e-05
0.00266275
-1.03572e-05
0.00267346
-1.07116e-05
0.00268453
-1.10722e-05
0.00269597
-1.14389e-05
0.00270778
-1.18113e-05
0.00271997
-1.21886e-05
0.00273254
-1.25711e-05
0.0027455
-1.29584e-05
0.00275885
-1.33499e-05
0.0027726
-1.37424e-05
0.00278673
-1.41336e-05
0.00280125
-1.45239e-05
0.00281617
-1.49142e-05
0.00283147
-1.53027e-05
0.00284716
-1.56866e-05
0.00286322
-1.60676e-05
0.00287967
-1.64438e-05
0.00289648
-1.68168e-05
0.00291367
-1.71846e-05
0.00293122
-1.75472e-05
0.00294912
-1.79039e-05
0.00296737
-1.82544e-05
0.00298597
-1.85978e-05
0.00300491
-1.8933e-05
0.00302416
-1.92589e-05
0.00304374
-1.95746e-05
0.00306362
-1.98795e-05
0.00308379
-2.0173e-05
0.00310425
-2.0455e-05
0.00312497
-2.07252e-05
0.00314595
-2.09833e-05
0.00316718
-2.12287e-05
0.00318864
-2.14606e-05
0.00321032
-2.16776e-05
0.0032322
-2.18789e-05
0.00325426
-2.20637e-05
0.0032765
-2.22309e-05
0.00329888
-2.23797e-05
0.00332138
-2.25093e-05
0.003344
-2.2619e-05
0.00336671
-2.2708e-05
0.00338949
-2.27758e-05
0.00341231
-2.28219e-05
0.00343516
-2.2846e-05
0.003458
-2.28478e-05
0.00348083
-2.28272e-05
0.00350361
-2.27838e-05
0.00352633
-2.27174e-05
0.00354896
-2.26277e-05
0.00357147
-2.25144e-05
0.00359385
-2.23775e-05
0.00361607
-2.22166e-05
0.0036381
-2.20317e-05
0.00365992
-2.18229e-05
0.00368151
-2.15901e-05
0.00370285
-2.13334e-05
0.0037239
-2.10531e-05
0.00374465
-2.07493e-05
0.00376507
-2.04222e-05
0.00378514
-2.00722e-05
0.00380484
-1.96999e-05
0.00382415
-1.93059e-05
0.00384304
-1.8891e-05
0.0038615
-1.84562e-05
0.0038795
-1.80027e-05
0.00389703
-1.75325e-05
0.00391408
-1.70487e-05
0.00393063
-1.65555e-05
0.00394669
-1.6059e-05
0.00396226
-1.55652e-05
0.00397734
-1.50796e-05
0.00399194
-1.4606e-05
0.0040061
-1.41519e-05
0.00401983
-1.37377e-05
0.00403324
-1.34074e-05
0.00404647
-1.32274e-05
0.00405973
-1.32634e-05
0.00407327
-1.3538e-05
0.00408726
-1.39943e-05
0.00410176
-1.44947e-05
0.00411662
-1.48653e-05
0.00413159
-1.49646e-05
0.00414633
-1.47357e-05
0.00416054
-1.4217e-05
0.00417405
-1.35093e-05
0.00418678
-1.27245e-05
0.00419872
-1.19451e-05
0.00420993
-1.12103e-05
0.00422046
-1.05249e-05
0.00423033
-9.87771e-06
0.00423959
-9.25653e-06
0.00424824
-8.65357e-06
0.00425631
-8.06458e-06
0.00426379
-7.48583e-06
0.00427071
-6.91273e-06
0.00427705
-6.34036e-06
0.00428281
-5.76485e-06
0.004288
-5.18423e-06
0.00429259
-4.59832e-06
0.0042966
-4.00806e-06
0.00430002
-3.41501e-06
0.00430284
-2.82121e-06
0.00430507
-2.22758e-06
0.00430669
-1.62658e-06
0.00430772
-1.02265e-06
0.00430813
-4.14271e-07
0.00430793
2.05024e-07
0.0043071
8.29774e-07
0.00430564
1.45907e-06
0.00430355
2.08816e-06
0.00430083
2.71615e-06
0.00429749
3.34344e-06
0.00429352
3.97011e-06
0.00428892
4.59544e-06
0.0042837
5.22019e-06
0.00427786
5.8463e-06
0.00427138
6.4725e-06
0.00426428
7.10023e-06
0.00425656
7.72851e-06
0.0042482
8.35794e-06
0.00423921
8.98894e-06
0.00422959
9.62172e-06
0.00421933
1.02571e-05
0.00420843
1.08956e-05
0.0041969
1.15375e-05
0.00418471
1.21832e-05
0.00417188
1.28331e-05
0.00415839
1.34886e-05
0.00414424
1.41501e-05
0.00412942
1.48176e-05
0.00411393
1.54927e-05
0.00409776
1.61761e-05
0.00408089
1.68687e-05
0.00406332
1.75713e-05
0.00404503
1.82853e-05
0.00402602
1.90116e-05
0.00400627
1.97507e-05
0.00398576
2.05043e-05
0.00396449
2.1274e-05
0.00394243
2.20613e-05
0.00391956
2.28688e-05
0.00389586
2.36994e-05
0.0038713
2.4556e-05
0.00384586
2.54424e-05
0.0038195
2.63634e-05
0.00379217
2.73243e-05
0.00376384
2.83314e-05
0.00373445
2.93918e-05
0.00370394
3.05135e-05
0.00367223
3.17052e-05
0.00363926
3.29761e-05
0.00360492
3.43373e-05
0.00356912
3.58002e-05
0.00353175
3.73704e-05
0.00349271
3.90406e-05
0.00345192
4.07915e-05
0.00340931
4.26033e-05
0.00336485
4.44652e-05
0.00331847
4.63749e-05
0.00327014
4.83296e-05
0.00321982
5.03193e-05
0.0031675
5.23249e-05
0.00311318
5.43151e-05
0.00305695
5.6233e-05
0.00299896
5.79865e-05
0.0029395
5.94676e-05
0.0028789
6.05992e-05
0.00281752
6.13767e-05
0.00275566
6.18643e-05
0.00269351
6.21488e-05
0.00263122
6.22843e-05
0.00256896
6.22665e-05
0.00250692
6.20362e-05
0.00244542
6.15025e-05
0.0023848
6.06173e-05
0.00232544
5.93638e-05
0.00226764
5.77931e-05
0.00221155
5.60918e-05
0.002157
5.45511e-05
0.00210355
5.3455e-05
0.00205061
5.29409e-05
0.00199767
5.29386e-05
0.00194444
5.32309e-05
0.00189086
5.35739e-05
0.00183706
5.38012e-05
0.0017832
5.38623e-05
0.00172941
5.37868e-05
0.00167578
5.36264e-05
0.00162237
5.3417e-05
0.0015692
5.31707e-05
0.00151631
5.28868e-05
0.00146375
5.25618e-05
0.00141156
5.21936e-05
0.00135977
5.17817e-05
0.00130845
5.13269e-05
0.00125762
5.08305e-05
0.00120732
5.02942e-05
0.0011576
4.97197e-05
0.00110849
4.9109e-05
0.00106003
4.84639e-05
0.00101224
4.77871e-05
0.000965161
4.70814e-05
0.000918811
4.63499e-05
0.000873216
4.5595e-05
0.000828397
4.48187e-05
0.000784374
4.40235e-05
0.000741161
4.32128e-05
0.00069877
4.23908e-05
0.000657208
4.15619e-05
0.000616478
4.07305e-05
0.000576576
3.99013e-05
0.000537497
3.9079e-05
0.000499229
3.82684e-05
0.000461754
3.74749e-05
0.00042505
3.67037e-05
0.000389091
3.59598e-05
0.000353842
3.52486e-05
0.000319267
3.45753e-05
0.000285322
3.39451e-05
0.000251959
3.33627e-05
0.000219128
3.28305e-05
0.000186775
3.23532e-05
0.000154827
3.19481e-05
0.000123141
3.16856e-05
9.17018e-05
3.14397e-05
6.17793e-05
2.99225e-05
3.55796e-05
2.61998e-05
3.55796e-05
3.13402e-05
-6.3914e-05
8.24538e-05
-0.000103587
0.000129644
-9.57152e-05
0.000173268
-8.85867e-05
0.00021596
-8.67207e-05
0.000258614
-8.66426e-05
0.000301262
-8.66322e-05
0.000343803
-8.64207e-05
0.000386179
-8.60946e-05
0.000428365
-8.57185e-05
0.000470345
-8.53085e-05
0.000512101
-8.48635e-05
0.000553614
-8.43817e-05
0.000594865
-8.38627e-05
0.000635836
-8.33072e-05
0.000676509
-8.27156e-05
0.000716866
-8.20888e-05
0.00075689
-8.14273e-05
0.000796563
-8.0732e-05
0.000835869
-8.00035e-05
0.000874792
-7.92426e-05
0.000913315
-7.84503e-05
0.000951423
-7.76273e-05
0.000989102
-7.67747e-05
0.00102634
-7.58933e-05
0.00106311
-7.49841e-05
0.00109942
-7.40482e-05
0.00113524
-7.30866e-05
0.00117056
-7.21005e-05
0.00120538
-7.10909e-05
0.00123967
-7.00591e-05
0.00127344
-6.90061e-05
0.00130666
-6.79334e-05
0.00133934
-6.6842e-05
0.00137145
-6.57333e-05
0.001403
-6.46085e-05
0.00143398
-6.3469e-05
0.00146437
-6.23161e-05
0.00149418
-6.11512e-05
0.0015234
-5.99755e-05
0.00155202
-5.87906e-05
0.00158004
-5.75977e-05
0.00160745
-5.63983e-05
0.00163426
-5.51937e-05
0.00166047
-5.39854e-05
0.00168606
-5.27747e-05
0.00171104
-5.1563e-05
0.00173542
-5.03517e-05
0.00175918
-4.91422e-05
0.00178234
-4.79358e-05
0.00180489
-4.67339e-05
0.00182685
-4.55379e-05
0.0018482
-4.43491e-05
0.00186896
-4.31687e-05
0.00188914
-4.19981e-05
0.00190873
-4.08385e-05
0.00192774
-3.96912e-05
0.00194618
-3.85574e-05
0.00196407
-3.74383e-05
0.00198139
-3.6335e-05
0.00199817
-3.52488e-05
0.00201442
-3.41806e-05
0.00203014
-3.31317e-05
0.00204534
-3.21029e-05
0.00206003
-3.10953e-05
0.00207423
-3.011e-05
0.00208794
-2.91477e-05
0.00210119
-2.82095e-05
0.00211397
-2.72962e-05
0.00212631
-2.64087e-05
0.00213821
-2.55476e-05
0.00214969
-2.47138e-05
0.00216077
-2.3908e-05
0.00217145
-2.31308e-05
0.00218176
-2.23828e-05
0.0021917
-2.16647e-05
0.00220129
-2.09768e-05
0.00221054
-2.03198e-05
0.00221948
-1.9694e-05
0.00222812
-1.91e-05
0.00223647
-1.85385e-05
0.00224455
-1.80106e-05
0.00225239
-1.75195e-05
0.00226003
-1.70689e-05
0.0022675
-1.66558e-05
0.00227484
-1.62795e-05
0.00228211
-1.59401e-05
0.00228941
-1.56388e-05
0.00229687
-1.53748e-05
0.0023046
-1.51444e-05
0.00231266
-1.49443e-05
0.002321
-1.47735e-05
0.0023296
-1.46318e-05
0.00233841
-1.45197e-05
0.00234738
-1.44373e-05
0.00235651
-1.4385e-05
0.00236574
-1.43627e-05
0.00237507
-1.43705e-05
0.00238446
-1.44087e-05
0.00239393
-1.44773e-05
0.00240345
-1.45765e-05
0.00241305
-1.47058e-05
0.00242272
-1.48649e-05
0.00243246
-1.50534e-05
0.00244229
-1.52709e-05
0.00245222
-1.55166e-05
0.00246225
-1.57902e-05
0.00247238
-1.60911e-05
0.00248263
-1.64185e-05
0.00249301
-1.67714e-05
0.00250352
-1.71493e-05
0.00251417
-1.75515e-05
0.00252498
-1.7977e-05
0.00253595
-1.8425e-05
0.0025471
-1.88945e-05
0.00255844
-1.93845e-05
0.00256997
-1.98941e-05
0.00258172
-2.04224e-05
0.00259369
-2.09685e-05
0.00260589
-2.15313e-05
0.00261833
-2.21091e-05
0.00263102
-2.27011e-05
0.00264397
-2.33067e-05
0.00265718
-2.3924e-05
0.00267066
-2.4553e-05
0.00268442
-2.51912e-05
0.00269845
-2.58391e-05
0.00271275
-2.64953e-05
0.00272734
-2.7156e-05
0.0027422
-2.78235e-05
0.00275735
-2.84961e-05
0.00277278
-2.91731e-05
0.0027885
-2.98517e-05
0.0028045
-3.05308e-05
0.0028208
-3.12073e-05
0.00283738
-3.18826e-05
0.00285425
-3.25591e-05
0.00287141
-3.32321e-05
0.00288887
-3.3899e-05
0.00290662
-3.4563e-05
0.00292465
-3.52198e-05
0.00294297
-3.58672e-05
0.00296157
-3.65081e-05
0.00298046
-3.71372e-05
0.00299961
-3.77548e-05
0.00301904
-3.83614e-05
0.00303874
-3.89536e-05
0.00305869
-3.95318e-05
0.00307891
-4.00947e-05
0.00309938
-4.06411e-05
0.00312009
-4.11702e-05
0.00314105
-4.16806e-05
0.00316224
-4.21715e-05
0.00318365
-4.26415e-05
0.00320528
-4.30899e-05
0.00322712
-4.35164e-05
0.00324916
-4.39198e-05
0.00327139
-4.42992e-05
0.00329382
-4.46533e-05
0.00331642
-4.49812e-05
0.00333919
-4.52821e-05
0.00336213
-4.55551e-05
0.00338522
-4.57993e-05
0.00340846
-4.6014e-05
0.00343183
-4.61984e-05
0.00345534
-4.63518e-05
0.00347896
-4.64734e-05
0.0035027
-4.65623e-05
0.00352653
-4.6618e-05
0.00355046
-4.66396e-05
0.00357445
-4.66267e-05
0.00359852
-4.65787e-05
0.00362264
-4.6495e-05
0.00364679
-4.63749e-05
0.00367098
-4.62181e-05
0.00369518
-4.6024e-05
0.00371938
-4.57922e-05
0.00374357
-4.55222e-05
0.00376773
-4.52138e-05
0.00379185
-4.48667e-05
0.00381591
-4.44807e-05
0.00383989
-4.40555e-05
0.00386378
-4.35913e-05
0.00388757
-4.3088e-05
0.00391122
-4.25459e-05
0.00393473
-4.19656e-05
0.00395808
-4.13477e-05
0.00398124
-4.06931e-05
0.00400419
-4.0003e-05
0.00402691
-3.92786e-05
0.00404938
-3.85218e-05
0.00407155
-3.7735e-05
0.00409339
-3.69209e-05
0.00411486
-3.60822e-05
0.00413593
-3.52225e-05
0.00415654
-3.43471e-05
0.0041766
-3.34657e-05
0.00419597
-3.25916e-05
0.00421444
-3.17383e-05
0.00423181
-3.09117e-05
0.00424792
-3.01029e-05
0.00426272
-2.92866e-05
0.00427628
-2.84283e-05
0.00428881
-2.74962e-05
0.00430055
-2.64725e-05
0.00431169
-2.53585e-05
0.00432235
-2.41703e-05
0.00433255
-2.29299e-05
0.00434227
-2.16572e-05
0.00435142
-2.03644e-05
0.00435995
-1.90565e-05
0.00436781
-1.7734e-05
0.00437495
-1.63961e-05
0.00438134
-1.50425e-05
0.00438695
-1.36735e-05
0.00439175
-1.22897e-05
0.00439573
-1.08916e-05
0.00439887
-9.47942e-06
0.00440116
-8.05356e-06
0.00440259
-6.61448e-06
0.00440315
-5.16286e-06
0.00440284
-3.6993e-06
0.00440165
-2.22427e-06
0.00439957
-7.42751e-07
0.00439663
7.1642e-07
0.00439278
2.22166e-06
0.00438804
3.72177e-06
0.0043824
5.226e-06
0.00437588
6.72634e-06
0.00436848
8.22763e-06
0.00436021
9.72641e-06
0.00435107
1.12253e-05
0.00434107
1.27229e-05
0.00433019
1.42163e-05
0.00431846
1.5708e-05
0.00430586
1.7194e-05
0.0042924
1.8676e-05
0.0042781
2.01511e-05
0.00426295
2.16176e-05
0.00424697
2.30765e-05
0.00423018
2.45281e-05
0.00421257
2.59677e-05
0.00419415
2.73999e-05
0.00417496
2.88197e-05
0.00415499
3.02287e-05
0.00413426
3.16245e-05
0.00411278
3.30095e-05
0.00409059
3.43806e-05
0.00406768
3.57388e-05
0.00404409
3.7084e-05
0.00401982
3.84143e-05
0.00399491
3.9732e-05
0.00396937
4.10345e-05
0.00394322
4.23238e-05
0.00391649
4.35983e-05
0.0038892
4.48578e-05
0.00386138
4.61041e-05
0.00383306
4.73356e-05
0.00380426
4.85537e-05
0.003775
4.97587e-05
0.00374532
5.09508e-05
0.00371526
5.21298e-05
0.00368483
5.32965e-05
0.00365408
5.44511e-05
0.00362304
5.55941e-05
0.00359175
5.67259e-05
0.00356027
5.78469e-05
0.00352864
5.89576e-05
0.00349691
6.00585e-05
0.00346515
6.11506e-05
0.00343343
6.22349e-05
0.00340182
6.33129e-05
0.00337041
6.43866e-05
0.00333929
6.54587e-05
0.00330856
6.65338e-05
0.00327831
6.76179e-05
0.00324863
6.8718e-05
0.00321958
6.98404e-05
0.0031912
7.09898e-05
0.00316349
7.21703e-05
0.00313648
7.33857e-05
0.00311017
7.46401e-05
0.00308455
7.5937e-05
0.0030596
7.72795e-05
0.00303524
7.86695e-05
0.00301137
8.01045e-05
0.00298779
8.15713e-05
0.00296421
8.30413e-05
0.00294034
8.4475e-05
0.00291588
8.58341e-05
0.00289065
8.70937e-05
0.00286455
8.82473e-05
0.00283754
8.92999e-05
0.00280955
9.02577e-05
0.00278046
9.11215e-05
0.00275008
9.18817e-05
0.0027182
9.24944e-05
0.00268465
9.29157e-05
0.00264931
9.31341e-05
0.00261223
9.3176e-05
0.00257366
9.31179e-05
0.00253404
9.30718e-05
0.00249384
9.31448e-05
0.00245338
9.33933e-05
0.00241281
9.38037e-05
0.00237207
9.43133e-05
0.00233102
9.48505e-05
0.00228952
9.5366e-05
0.00224747
9.58407e-05
0.00220482
9.62759e-05
0.00216155
9.6679e-05
0.00211767
9.7054e-05
0.00207316
9.74008e-05
0.002028
9.77175e-05
0.00198219
9.80016e-05
0.00193572
9.82519e-05
0.00188858
9.84672e-05
0.00184077
9.86473e-05
0.00179227
9.87922e-05
0.00174309
9.89021e-05
0.00169322
9.89775e-05
0.00164266
9.9019e-05
0.00159142
9.90274e-05
0.0015395
9.9004e-05
0.0014869
9.89498e-05
0.00143363
9.88661e-05
0.00137969
9.87539e-05
0.0013251
9.86146e-05
0.00126986
9.84498e-05
0.00121399
9.82616e-05
0.0011575
9.80526e-05
0.00110041
9.78254e-05
0.00104273
9.75828e-05
0.000984478
9.73277e-05
0.000925684
9.7063e-05
0.000866366
9.6792e-05
0.000806552
9.6518e-05
0.000746268
9.62442e-05
0.000685542
9.5974e-05
0.000624407
9.57108e-05
0.000562894
9.54581e-05
0.000501038
9.52183e-05
0.000438878
9.49907e-05
0.000376456
9.47747e-05
0.000313803
9.46018e-05
0.000250864
9.46247e-05
0.000187652
9.46512e-05
0.000125519
9.20559e-05
6.75941e-05
8.41242e-05
0.000103174
3.19259e-05
-9.58398e-05
8.39591e-05
-0.00015562
0.000132099
-0.000143855
0.000176586
-0.000133073
0.000220088
-0.000130223
0.000263547
-0.000130102
0.000307009
-0.000130094
0.000350368
-0.00012978
0.000393563
-0.00012929
0.000436568
-0.000128723
0.000479365
-0.000128106
0.000521938
-0.000127436
0.000564267
-0.000126711
0.000606333
-0.000125929
0.000648119
-0.000125093
0.000689605
-0.000124202
0.000730774
-0.000123258
0.000771609
-0.000122262
0.000812092
-0.000121215
0.000852206
-0.000120118
0.000891935
-0.000118972
0.000931263
-0.000117778
0.000970175
-0.000116539
0.00100865
-0.000115255
0.00104669
-0.000113927
0.00108426
-0.000112558
0.00112136
-0.000111148
0.00115797
-0.000109699
0.00119409
-0.000108214
0.00122969
-0.000106693
0.00126477
-0.000105139
0.00129932
-0.000103553
0.00133332
-0.000101937
0.00136677
-0.000100293
0.00139966
-9.86224e-05
0.00143198
-9.6928e-05
0.00146372
-9.52114e-05
0.00149488
-9.34745e-05
0.00152545
-9.17195e-05
0.00155542
-8.99484e-05
0.00158479
-8.81632e-05
0.00161356
-8.63661e-05
0.00164172
-8.45591e-05
0.00166927
-8.27444e-05
0.00169621
-8.09239e-05
0.00172254
-7.90999e-05
0.00174825
-7.72744e-05
0.00177335
-7.54496e-05
0.00179783
-7.36274e-05
0.00182171
-7.181e-05
0.00184497
-6.99994e-05
0.00186763
-6.81976e-05
0.00188969
-6.64066e-05
0.00191115
-6.46285e-05
0.00193202
-6.28651e-05
0.0019523
-6.11183e-05
0.00197199
-5.93901e-05
0.00199112
-5.76822e-05
0.00200968
-5.59965e-05
0.00202768
-5.43348e-05
0.00204513
-5.26987e-05
0.00206204
-5.10899e-05
0.00207841
-4.951e-05
0.00209427
-4.79607e-05
0.00210962
-4.64434e-05
0.00212447
-4.49596e-05
0.00213883
-4.35108e-05
0.00215272
-4.20982e-05
0.00216615
-4.07232e-05
0.00217913
-3.9387e-05
0.00219167
-3.80909e-05
0.00220379
-3.68359e-05
0.00221551
-3.56232e-05
0.00222683
-3.44536e-05
0.00223778
-3.33282e-05
0.00224836
-3.22478e-05
0.0022586
-3.12133e-05
0.0022685
-3.02253e-05
0.00227809
-2.92845e-05
0.00228738
-2.83916e-05
0.00229639
-2.75467e-05
0.00230513
-2.67498e-05
0.00231361
-2.59996e-05
0.00232184
-2.52934e-05
0.00232981
-2.4632e-05
0.00233755
-2.40188e-05
0.00234507
-2.34588e-05
0.00235239
-2.29642e-05
0.00235957
-2.25458e-05
0.00236662
-2.21982e-05
0.00237358
-2.19037e-05
0.00238045
-2.16486e-05
0.00238725
-2.14308e-05
0.00239399
-2.12534e-05
0.00240067
-2.11196e-05
0.00240731
-2.10307e-05
0.00241394
-2.09874e-05
0.00242056
-2.09906e-05
0.00242719
-2.10414e-05
0.00243386
-2.11404e-05
0.00244057
-2.12878e-05
0.00244734
-2.14831e-05
0.0024542
-2.17254e-05
0.00246116
-2.20137e-05
0.00246824
-2.23465e-05
0.00247545
-2.27227e-05
0.0024828
-2.31409e-05
0.00249031
-2.35994e-05
0.00249798
-2.40976e-05
0.00250585
-2.46346e-05
0.00251391
-2.52084e-05
0.00252217
-2.58186e-05
0.00253066
-2.64638e-05
0.00253938
-2.71433e-05
0.00254834
-2.7855e-05
0.00255755
-2.85981e-05
0.00256703
-2.93705e-05
0.00257678
-3.01708e-05
0.00258681
-3.09974e-05
0.00259712
-3.18481e-05
0.00260774
-3.27238e-05
0.00261866
-3.36215e-05
0.00262989
-3.45379e-05
0.00264144
-3.54737e-05
0.00265331
-3.64243e-05
0.00266551
-3.73921e-05
0.00267804
-3.83711e-05
0.00269091
-3.9361e-05
0.00270412
-4.03648e-05
0.00271767
-4.13741e-05
0.00273156
-4.23903e-05
0.0027458
-4.34103e-05
0.00276038
-4.44341e-05
0.00277531
-4.54602e-05
0.00279059
-4.6487e-05
0.00280622
-4.75144e-05
0.0028222
-4.85389e-05
0.00283853
-4.95546e-05
0.00285519
-5.05665e-05
0.0028722
-5.1573e-05
0.00288955
-5.25638e-05
0.00290723
-5.35471e-05
0.00292524
-5.45163e-05
0.00294357
-5.54723e-05
0.00296223
-5.64117e-05
0.0029812
-5.73329e-05
0.00300048
-5.82346e-05
0.00302006
-5.91154e-05
0.00303994
-5.99744e-05
0.00306011
-6.08082e-05
0.00308056
-6.16166e-05
0.00310128
-6.23987e-05
0.00312226
-6.31531e-05
0.00314349
-6.3878e-05
0.00316497
-6.45705e-05
0.00318669
-6.52307e-05
0.00320863
-6.5857e-05
0.00323077
-6.64478e-05
0.00325312
-6.70027e-05
0.00327566
-6.75203e-05
0.00329838
-6.7999e-05
0.00332126
-6.84382e-05
0.0033443
-6.88357e-05
0.00336748
-6.91911e-05
0.00339078
-6.95028e-05
0.0034142
-6.97697e-05
0.00343772
-6.99907e-05
0.00346132
-7.01646e-05
0.00348499
-7.02907e-05
0.00350872
-7.03676e-05
0.00353249
-7.03945e-05
0.00355628
-7.03704e-05
0.00358008
-7.02946e-05
0.00360387
-7.01662e-05
0.00362764
-6.99845e-05
0.00365136
-6.97489e-05
0.00367503
-6.94587e-05
0.00369862
-6.91137e-05
0.00372212
-6.87133e-05
0.00374551
-6.82572e-05
0.00376877
-6.77453e-05
0.00379189
-6.71776e-05
0.00381486
-6.6554e-05
0.00383764
-6.58749e-05
0.00386024
-6.51405e-05
0.00388262
-6.43514e-05
0.00390479
-6.35085e-05
0.00392671
-6.26128e-05
0.00394837
-6.16659e-05
0.00396976
-6.06689e-05
0.00399086
-5.96236e-05
0.00401166
-5.85317e-05
0.00403213
-5.73961e-05
0.00405227
-5.62202e-05
0.00407205
-5.50071e-05
0.00409146
-5.37573e-05
0.00411047
-5.2466e-05
0.00412899
-5.1121e-05
0.00414696
-4.97051e-05
0.00416425
-4.82025e-05
0.00418076
-4.6609e-05
0.00419641
-4.49366e-05
0.00421119
-4.32115e-05
0.00422516
-4.14629e-05
0.0042384
-3.97103e-05
0.00425099
-3.79572e-05
0.00426302
-3.61925e-05
0.00427449
-3.43998e-05
0.00428539
-3.25652e-05
0.00429571
-3.06828e-05
0.00430541
-2.87534e-05
0.00431446
-2.67814e-05
0.00432283
-2.47712e-05
0.00433052
-2.2726e-05
0.00433749
-2.06476e-05
0.00434374
-1.85379e-05
0.00434925
-1.63991e-05
0.004354
-1.42336e-05
0.00435799
-1.20442e-05
0.00436121
-9.8335e-06
0.00436365
-7.60377e-06
0.00436531
-5.35751e-06
0.00436618
-3.09685e-06
0.00436625
-8.13152e-07
0.00436546
1.51235e-06
0.00436388
3.79675e-06
0.00436149
6.10929e-06
0.00435829
8.42931e-06
0.00435426
1.0756e-05
0.0043494
1.30871e-05
0.00434371
1.5418e-05
0.00433718
1.77513e-05
0.00432982
2.0082e-05
0.00432163
2.24111e-05
0.0043126
2.47339e-05
0.00430275
2.70507e-05
0.00429206
2.93596e-05
0.00428055
3.16597e-05
0.00426823
3.39462e-05
0.00425508
3.62222e-05
0.00424113
3.84829e-05
0.00422637
4.07266e-05
0.00421081
4.29539e-05
0.00419447
4.5161e-05
0.00417735
4.73487e-05
0.00415946
4.95155e-05
0.00414081
5.1659e-05
0.00412141
5.37809e-05
0.00410127
5.58766e-05
0.00408041
5.79475e-05
0.00405883
5.99925e-05
0.00403655
6.20116e-05
0.00401358
6.40024e-05
0.00398994
6.59649e-05
0.00396564
6.78997e-05
0.00394069
6.98067e-05
0.00391511
7.1685e-05
0.00388891
7.35341e-05
0.00386211
7.53546e-05
0.00383472
7.7147e-05
0.00380676
7.8911e-05
0.00377825
8.06473e-05
0.00374919
8.23556e-05
0.0037196
8.40367e-05
0.0036895
8.56916e-05
0.00365891
8.73211e-05
0.00362783
8.89264e-05
0.00359628
9.05085e-05
0.00356427
9.20676e-05
0.00353181
9.36049e-05
0.00349893
9.51206e-05
0.00346563
9.66151e-05
0.00343192
9.80884e-05
0.00339784
9.95398e-05
0.00336341
0.000100968
0.00332865
0.000102373
0.00329361
0.00010376
0.00325832
0.000105136
0.0032228
0.000106508
0.00318709
0.000107879
0.00315123
0.000109247
0.00311526
0.00011061
0.00307923
0.000111965
0.0030432
0.000113311
0.00300722
0.000114646
0.00297135
0.000115976
0.00293561
0.000117311
0.00289999
0.000118666
0.00286442
0.000120042
0.00282884
0.000121419
0.00279317
0.000122763
0.00275737
0.000124041
0.00272144
0.000125231
0.00268537
0.000126332
0.00264914
0.000127353
0.0026127
0.000128315
0.00257596
0.000129241
0.00253871
0.00013016
0.00250075
0.000131093
0.00246189
0.000132037
0.00242205
0.000132958
0.00238131
0.000133809
0.0023399
0.000134559
0.00229808
0.000135209
0.00225609
0.000135796
0.00221404
0.000136364
0.00217194
0.000136948
0.00212975
0.000137556
0.00208742
0.000138179
0.00204489
0.000138804
0.00200215
0.000139421
0.00195917
0.000140025
0.00191596
0.000140617
0.00187248
0.000141196
0.00182872
0.000141763
0.00178465
0.00014232
0.00174025
0.000142865
0.0016955
0.0001434
0.00165037
0.000143923
0.00160483
0.000144436
0.00155887
0.000144938
0.00151246
0.00014543
0.00146558
0.000145911
0.0014182
0.000146382
0.00137031
0.000146843
0.00132188
0.000147293
0.0012729
0.000147732
0.00122336
0.00014816
0.00117323
0.000148577
0.00112251
0.000148982
0.00107119
0.000149374
0.00101926
0.000149754
0.000966723
0.00015012
0.000913578
0.000150472
0.000859832
0.000150809
0.000805494
0.00015113
0.000750577
0.000151434
0.000695101
0.000151721
0.000639088
0.000151987
0.000582564
0.000152234
0.000525562
0.00015246
0.000468117
0.000152663
0.000410271
0.000152837
0.000352071
0.000152974
0.000293543
0.00015313
0.000234619
0.000153549
0.000175373
0.000153898
0.000117387
0.000150041
6.37735e-05
0.000137738
0.000166947
3.1998e-05
-0.000127838
8.42881e-05
-0.00020791
0.000132681
-0.000192249
0.000177389
-0.00017778
0.000221095
-0.000173929
0.000264753
-0.00017376
0.000308413
-0.000173753
0.000351969
-0.000173336
0.000395361
-0.000172681
0.000438561
-0.000171924
0.000481552
-0.000171098
0.000524318
-0.000170201
0.000566838
-0.000169231
0.000609094
-0.000168185
0.000651067
-0.000167066
0.00069274
-0.000165875
0.000734094
-0.000164612
0.000775111
-0.000163279
0.000815774
-0.000161878
0.000856066
-0.00016041
0.000895971
-0.000158877
0.000935473
-0.00015728
0.000974555
-0.000155621
0.0010132
-0.000153903
0.0010514
-0.000152127
0.00108914
-0.000150294
0.0011264
-0.000148408
0.00116317
-0.00014647
0.00119944
-0.000144482
0.00123519
-0.000142447
0.00127042
-0.000140366
0.00130511
-0.000138244
0.00133925
-0.000136081
0.00137284
-0.000133881
0.00140586
-0.000131645
0.00143831
-0.000129378
0.00147018
-0.00012708
0.00150146
-0.000124756
0.00153215
-0.000122407
0.00156224
-0.000120037
0.00159172
-0.000117647
0.0016206
-0.000115242
0.00164887
-0.000112824
0.00167652
-0.000110395
0.00170355
-0.000107959
0.00172997
-0.000105518
0.00175577
-0.000103074
0.00178095
-0.000100632
0.00180552
-9.81937e-05
0.00182947
-9.57615e-05
0.00185281
-9.33385e-05
0.00187554
-9.09274e-05
0.00189766
-8.85307e-05
0.00191918
-8.61513e-05
0.00194011
-8.37916e-05
0.00196045
-8.14543e-05
0.0019802
-7.91418e-05
0.00199937
-7.68567e-05
0.00201798
-7.46012e-05
0.00203602
-7.23779e-05
0.00205351
-7.0189e-05
0.00207046
-6.80366e-05
0.00208687
-6.59231e-05
0.00210276
-6.38505e-05
0.00211814
-6.18208e-05
0.00213302
-5.9836e-05
0.0021474
-5.7898e-05
0.00216131
-5.60087e-05
0.00217476
-5.41697e-05
0.00218776
-5.23828e-05
0.00220031
-5.06495e-05
0.00221245
-4.89714e-05
0.00222418
-4.73499e-05
0.00223551
-4.57863e-05
0.00224646
-4.4282e-05
0.00225705
-4.28381e-05
0.0022673
-4.14557e-05
0.00227721
-4.01358e-05
0.0022868
-3.88793e-05
0.0022961
-3.76871e-05
0.00230511
-3.656e-05
0.00231386
-3.54987e-05
0.00232236
-3.45044e-05
0.00233065
-3.35794e-05
0.00233874
-3.2727e-05
0.00234667
-3.19462e-05
0.00235445
-3.12341e-05
0.00236207
-3.05885e-05
0.00236953
-3.0008e-05
0.00237683
-2.94931e-05
0.00238397
-2.90442e-05
0.00239098
-2.86622e-05
0.0023979
-2.83471e-05
0.00240474
-2.80988e-05
0.00241154
-2.79168e-05
0.00241831
-2.78007e-05
0.00242507
-2.77502e-05
0.00243185
-2.77644e-05
0.00243865
-2.78429e-05
0.00244549
-2.79855e-05
0.0024524
-2.81912e-05
0.00245937
-2.8459e-05
0.00246644
-2.87875e-05
0.0024736
-2.91756e-05
0.00248087
-2.96227e-05
0.00248828
-3.01263e-05
0.00249582
-3.06871e-05
0.00250353
-3.13023e-05
0.0025114
-3.19705e-05
0.00251945
-3.26897e-05
0.0025277
-3.34583e-05
0.00253616
-3.4276e-05
0.00254484
-3.51395e-05
0.00255374
-3.60484e-05
0.00256289
-3.69993e-05
0.00257228
-3.79909e-05
0.00258193
-3.90218e-05
0.00259185
-4.00902e-05
0.00260205
-4.1194e-05
0.00261253
-4.23306e-05
0.00262331
-4.34995e-05
0.00263438
-4.46954e-05
0.00264576
-4.59172e-05
0.00265745
-4.71669e-05
0.00266946
-4.84367e-05
0.0026818
-4.97281e-05
0.00269447
-5.10395e-05
0.00270747
-5.23605e-05
0.0027208
-5.36991e-05
0.00273448
-5.50517e-05
0.0027485
-5.64115e-05
0.00276287
-5.77778e-05
0.00277758
-5.91484e-05
0.00279264
-6.05215e-05
0.00280805
-6.18955e-05
0.00282381
-6.32682e-05
0.0028399
-6.46364e-05
0.00285634
-6.59954e-05
0.00287313
-6.73522e-05
0.00289025
-6.86957e-05
0.00290771
-7.00224e-05
0.00292551
-7.13417e-05
0.00294363
-7.26359e-05
0.00296207
-7.39172e-05
0.00298083
-7.51748e-05
0.00299991
-7.64076e-05
0.00301929
-7.76124e-05
0.00303896
-7.87915e-05
0.00305893
-7.99431e-05
0.00307918
-8.10619e-05
0.00309972
-8.21467e-05
0.00312051
-8.3196e-05
0.00314157
-8.42073e-05
0.00316287
-8.5178e-05
0.0031844
-8.61045e-05
0.00320616
-8.69918e-05
0.00322814
-8.78333e-05
0.00325032
-8.86283e-05
0.00327269
-8.93745e-05
0.00329524
-9.00701e-05
0.00331795
-9.07139e-05
0.00334082
-9.13044e-05
0.00336382
-9.1839e-05
0.00338695
-9.23173e-05
0.00341019
-9.27377e-05
0.00343351
-9.30985e-05
0.00345692
-9.33981e-05
0.00348039
-9.36351e-05
0.00350391
-9.38081e-05
0.00352746
-9.39156e-05
0.00355102
-9.39569e-05
0.00357458
-9.39309e-05
0.00359812
-9.38359e-05
0.00362163
-9.36711e-05
0.00364508
-9.3436e-05
0.00366846
-9.31297e-05
0.00369175
-9.27509e-05
0.00371494
-9.22994e-05
0.003738
-9.17744e-05
0.00376092
-9.11755e-05
0.00378367
-9.05027e-05
0.00380625
-8.97553e-05
0.00382863
-8.89334e-05
0.00385079
-8.80372e-05
0.00387272
-8.7067e-05