/*--------------------------------*- C++ -*----------------------------------*\
| =========                 |                                                 |
| \\      /  F ield         | OpenFOAM: The Open Source CFD Toolbox           |
|  \\    /   O peration     | Version:  v2006                                 |
|   \\  /    A nd           | Website:  www.openfoam.com                      |
|    \\/     M anipulation  |                                                 |
\*---------------------------------------------------------------------------*/
FoamFile
{
    version     2.0;
    format      ascii;
    class       volVectorField;
    location    "3.5";
    object      U;
}
// * * * * * * * * * * * * * * * * * * * * * * * * * * * * * * * * * * * * * //

dimensions      [0 1 -1 0 0 0 0];


internalField   nonuniform List<vector> 
52500
(
(0.00113478 -0.00303804 0)
(0.00601878 -0.0048457 0)
(0.0119577 -0.00449253 0)
(0.0167937 -0.0041671 0)
(0.0214832 -0.00407906 0)
(0.0261952 -0.00407368 0)
(0.030916 -0.00407253 0)
(0.0356255 -0.00406251 0)
(0.0403186 -0.0040472 0)
(0.0449933 -0.00402961 0)
(0.0496474 -0.00401057 0)
(0.0542787 -0.00399004 0)
(0.0588853 -0.00396794 0)
(0.0634654 -0.00394425 0)
(0.0680169 -0.003919 0)
(0.072538 -0.00389222 0)
(0.0770266 -0.00386394 0)
(0.081481 -0.00383417 0)
(0.0858994 -0.00380296 0)
(0.0902799 -0.00377033 0)
(0.0946207 -0.00373632 0)
(0.0989204 -0.00370097 0)
(0.103177 -0.00366431 0)
(0.107389 -0.00362639 0)
(0.111555 -0.00358725 0)
(0.115674 -0.00354691 0)
(0.119743 -0.00350543 0)
(0.123762 -0.00346284 0)
(0.127729 -0.00341918 0)
(0.131643 -0.00337451 0)
(0.135503 -0.00332887 0)
(0.139307 -0.00328233 0)
(0.143055 -0.00323492 0)
(0.146745 -0.0031867 0)
(0.150377 -0.00313772 0)
(0.153949 -0.00308804 0)
(0.157461 -0.00303772 0)
(0.160912 -0.0029868 0)
(0.164301 -0.00293536 0)
(0.167629 -0.00288345 0)
(0.170893 -0.00283114 0)
(0.174094 -0.00277848 0)
(0.177231 -0.00272553 0)
(0.180305 -0.00267236 0)
(0.183314 -0.00261902 0)
(0.186259 -0.00256558 0)
(0.189139 -0.00251209 0)
(0.191954 -0.00245862 0)
(0.194706 -0.00240524 0)
(0.197393 -0.00235201 0)
(0.200015 -0.00229897 0)
(0.202574 -0.00224621 0)
(0.20507 -0.00219377 0)
(0.207502 -0.00214171 0)
(0.209871 -0.00209008 0)
(0.212179 -0.00203896 0)
(0.214425 -0.00198838 0)
(0.21661 -0.00193841 0)
(0.218735 -0.00188909 0)
(0.220801 -0.00184049 0)
(0.222808 -0.00179266 0)
(0.224758 -0.00174565 0)
(0.226652 -0.00169951 0)
(0.22849 -0.00165429 0)
(0.230274 -0.00161004 0)
(0.232004 -0.00156681 0)
(0.233683 -0.00152463 0)
(0.235312 -0.00148357 0)
(0.23689 -0.00144366 0)
(0.238421 -0.00140496 0)
(0.239906 -0.00136751 0)
(0.241345 -0.00133136 0)
(0.242741 -0.00129656 0)
(0.244095 -0.00126316 0)
(0.245409 -0.00123119 0)
(0.246683 -0.00120071 0)
(0.247921 -0.00117176 0)
(0.249123 -0.00114435 0)
(0.250292 -0.00111851 0)
(0.251428 -0.00109422 0)
(0.252534 -0.00107142 0)
(0.253611 -0.00104992 0)
(0.254661 -0.0010293 0)
(0.255685 -0.00100872 0)
(0.256682 -0.000986243 0)
(0.257653 -0.000959056 0)
(0.258598 -0.000921988 0)
(0.259512 -0.000864432 0)
(0.260385 -0.000777202 0)
(0.261207 -0.000665367 0)
(0.261972 -0.000546762 0)
(0.262684 -0.000437467 0)
(0.263349 -0.00034378 0)
(0.263977 -0.000265617 0)
(0.264574 -0.000201851 0)
(0.265146 -0.000151939 0)
(0.265701 -0.000115245 0)
(0.266245 -9.04331e-05 0)
(0.266782 -7.55965e-05 0)
(0.267318 -6.87365e-05 0)
(0.267857 -6.81376e-05 0)
(0.2684 -7.25547e-05 0)
(0.268952 -8.11767e-05 0)
(0.269514 -9.35449e-05 0)
(0.270089 -0.000109405 0)
(0.270679 -0.000128555 0)
(0.271286 -0.000150801 0)
(0.271914 -0.0001759 0)
(0.272562 -0.000203573 0)
(0.273235 -0.000233511 0)
(0.273933 -0.000265384 0)
(0.274657 -0.000298856 0)
(0.27541 -0.000333576 0)
(0.276193 -0.000369207 0)
(0.277007 -0.000405446 0)
(0.277853 -0.000442077 0)
(0.278731 -0.000478971 0)
(0.279644 -0.000516037 0)
(0.28059 -0.000553197 0)
(0.281572 -0.000590372 0)
(0.282589 -0.000627566 0)
(0.283643 -0.000664874 0)
(0.284734 -0.000702437 0)
(0.285862 -0.000740374 0)
(0.287029 -0.000778754 0)
(0.288234 -0.00081761 0)
(0.28948 -0.000856944 0)
(0.290765 -0.000896729 0)
(0.292091 -0.000936836 0)
(0.293458 -0.000977153 0)
(0.294868 -0.00101763 0)
(0.296319 -0.00105825 0)
(0.297812 -0.00109891 0)
(0.299347 -0.00113937 0)
(0.300924 -0.00117933 0)
(0.302543 -0.00121867 0)
(0.304203 -0.00125756 0)
(0.305904 -0.00129608 0)
(0.307645 -0.00133414 0)
(0.309427 -0.0013717 0)
(0.311248 -0.00140881 0)
(0.313109 -0.00144537 0)
(0.315008 -0.00148128 0)
(0.316945 -0.00151646 0)
(0.31892 -0.00155079 0)
(0.32093 -0.00158415 0)
(0.322976 -0.00161641 0)
(0.325057 -0.00164739 0)
(0.327171 -0.00167698 0)
(0.329316 -0.00170511 0)
(0.331493 -0.00173181 0)
(0.333699 -0.00175708 0)
(0.335934 -0.00178091 0)
(0.338195 -0.00180324 0)
(0.340482 -0.00182393 0)
(0.342794 -0.00184285 0)
(0.345127 -0.00185986 0)
(0.347482 -0.00187474 0)
(0.349855 -0.00188729 0)
(0.352245 -0.00189736 0)
(0.35465 -0.00190481 0)
(0.357068 -0.00190948 0)
(0.359497 -0.00191124 0)
(0.361934 -0.00191001 0)
(0.364377 -0.00190573 0)
(0.366824 -0.00189838 0)
(0.369273 -0.00188793 0)
(0.37172 -0.00187437 0)
(0.374164 -0.00185765 0)
(0.376602 -0.00183776 0)
(0.379032 -0.00181467 0)
(0.381451 -0.00178838 0)
(0.383856 -0.00175888 0)
(0.386246 -0.00172619 0)
(0.388617 -0.00169032 0)
(0.390966 -0.00165128 0)
(0.393293 -0.00160911 0)
(0.395593 -0.00156386 0)
(0.397864 -0.00151559 0)
(0.400104 -0.00146441 0)
(0.40231 -0.00141041 0)
(0.40448 -0.00135376 0)
(0.406611 -0.00129461 0)
(0.408701 -0.00123318 0)
(0.410748 -0.00116971 0)
(0.412749 -0.00110451 0)
(0.414703 -0.00103792 0)
(0.416607 -0.000970464 0)
(0.418459 -0.000902956 0)
(0.42026 -0.000836574 0)
(0.422007 -0.000772843 0)
(0.423701 -0.000713392 0)
(0.425342 -0.000659609 0)
(0.426932 -0.000612648 0)
(0.428472 -0.00057451 0)
(0.429964 -0.00055034 0)
(0.431416 -0.000550757 0)
(0.432837 -0.000591302 0)
(0.43425 -0.00068641 0)
(0.43568 -0.000839203 0)
(0.437151 -0.00103342 0)
(0.438679 -0.00123456 0)
(0.440257 -0.00140165 0)
(0.441864 -0.00150356 0)
(0.443464 -0.00153029 0)
(0.445021 -0.00149363 0)
(0.44651 -0.00141825 0)
(0.447916 -0.00132961 0)
(0.449237 -0.00124542 0)
(0.450476 -0.00117333 0)
(0.451639 -0.00111367 0)
(0.452731 -0.00106379 0)
(0.453756 -0.0010211 0)
(0.454715 -0.000984 0)
(0.45561 -0.000951495 0)
(0.456443 -0.000922564 0)
(0.457214 -0.000895949 0)
(0.457925 -0.000870387 0)
(0.458573 -0.000844933 0)
(0.45916 -0.000819112 0)
(0.459684 -0.00079285 0)
(0.460145 -0.000766287 0)
(0.460543 -0.000739625 0)
(0.460878 -0.000713089 0)
(0.461148 -0.000686901 0)
(0.461355 -0.000660395 0)
(0.461497 -0.000633711 0)
(0.461574 -0.000606578 0)
(0.461586 -0.000578552 0)
(0.461531 -0.000549325 0)
(0.461408 -0.000519302 0)
(0.461218 -0.000488757 0)
(0.460961 -0.000457772 0)
(0.460636 -0.00042636 0)
(0.460245 -0.000394431 0)
(0.459786 -0.000361816 0)
(0.45926 -0.00032836 0)
(0.458668 -0.000294026 0)
(0.458008 -0.000258795 0)
(0.457281 -0.000222574 0)
(0.456487 -0.000185218 0)
(0.455625 -0.000146585 0)
(0.454696 -0.000106567 0)
(0.453699 -6.50391e-05 0)
(0.452635 -2.18903e-05 0)
(0.451502 2.29662e-05 0)
(0.4503 6.966e-05 0)
(0.44903 0.000118364 0)
(0.44769 0.000169235 0)
(0.44628 0.000222448 0)
(0.4448 0.000278141 0)
(0.443249 0.000336451 0)
(0.441625 0.000397625 0)
(0.439929 0.00046188 0)
(0.43816 0.000529386 0)
(0.436315 0.000600299 0)
(0.434395 0.000674845 0)
(0.432397 0.000753277 0)
(0.430321 0.000835789 0)
(0.428165 0.000922615 0)
(0.425928 0.00101406 0)
(0.423607 0.00111047 0)
(0.421201 0.0012123 0)
(0.418707 0.00132009 0)
(0.416123 0.00143449 0)
(0.413446 0.00155629 0)
(0.410672 0.00168649 0)
(0.407797 0.00182632 0)
(0.404817 0.00197729 0)
(0.401727 0.00214118 0)
(0.398519 0.00232007 0)
(0.395189 0.00251623 0)
(0.391726 0.00273213 0)
(0.388123 0.0029706 0)
(0.384369 0.00323455 0)
(0.380452 0.00352564 0)
(0.376361 0.00384237 0)
(0.372087 0.00418012 0)
(0.367621 0.00453351 0)
(0.362958 0.00489901 0)
(0.358093 0.0052753 0)
(0.353021 0.00566139 0)
(0.347738 0.00605463 0)
(0.342239 0.0064503 0)
(0.336526 0.00684095 0)
(0.3306 0.00721391 0)
(0.324475 0.00754915 0)
(0.318174 0.00782271 0)
(0.311733 0.0080168 0)
(0.30519 0.00812951 0)
(0.298582 0.00817536 0)
(0.291935 0.00817541 0)
(0.285265 0.00814456 0)
(0.278587 0.00808475 0)
(0.271921 0.00798568 0)
(0.265293 0.00782969 0)
(0.25874 0.00759742 0)
(0.252303 0.00727853 0)
(0.246023 0.00688545 0)
(0.239925 0.00646156 0)
(0.234009 0.00607303 0)
(0.228238 0.00578322 0)
(0.222553 0.00562276 0)
(0.21689 0.00557553 0)
(0.211205 0.00559128 0)
(0.205482 0.00561577 0)
(0.199726 0.00561566 0)
(0.193955 0.00558392 0)
(0.188186 0.00552935 0)
(0.18243 0.00546314 0)
(0.176695 0.00539171 0)
(0.170984 0.00531648 0)
(0.165302 0.0052365 0)
(0.159651 0.00515054 0)
(0.154039 0.00505783 0)
(0.148468 0.00495805 0)
(0.142943 0.00485117 0)
(0.137469 0.00473736 0)
(0.132051 0.00461696 0)
(0.126693 0.00449035 0)
(0.121397 0.0043579 0)
(0.11617 0.00422007 0)
(0.111013 0.00407746 0)
(0.10593 0.00393071 0)
(0.100924 0.00378043 0)
(0.0959984 0.00362708 0)
(0.0911545 0.0034711 0)
(0.0863948 0.00331303 0)
(0.0817212 0.0031536 0)
(0.0771352 0.00299366 0)
(0.0726378 0.00283402 0)
(0.0682293 0.00267548 0)
(0.0639099 0.00251884 0)
(0.059679 0.00236492 0)
(0.0555357 0.00221459 0)
(0.0514784 0.00206873 0)
(0.047505 0.00192819 0)
(0.0436128 0.00179382 0)
(0.0397985 0.00166647 0)
(0.0360585 0.00154701 0)
(0.0323882 0.00143624 0)
(0.0287827 0.00133487 0)
(0.0252377 0.00124336 0)
(0.0217434 0.00116283 0)
(0.0183106 0.00109553 0)
(0.0148762 0.00104722 0)
(0.011538 0.00099636 0)
(0.00804852 0.000821133 0)
(0.00511708 0.000510046 0)
(0.00260088 0.00140726 0)
(0.00106535 -0.00841644 0)
(0.00581899 -0.0135857 0)
(0.0116095 -0.0125498 0)
(0.0162966 -0.0116236 0)
(0.0208462 -0.0113832 0)
(0.0254172 -0.0113728 0)
(0.0299945 -0.0113705 0)
(0.0345603 -0.0113421 0)
(0.0391097 -0.0112991 0)
(0.0436406 -0.0112496 0)
(0.0481503 -0.0111958 0)
(0.0526369 -0.0111374 0)
(0.0570985 -0.0110742 0)
(0.061533 -0.0110062 0)
(0.0659385 -0.0109335 0)
(0.0703131 -0.0108561 0)
(0.0746547 -0.0107741 0)
(0.0789615 -0.0106876 0)
(0.0832317 -0.0105967 0)
(0.0874634 -0.0105015 0)
(0.0916549 -0.0104021 0)
(0.0958044 -0.0102986 0)
(0.0999103 -0.0101911 0)
(0.103971 -0.0100797 0)
(0.107985 -0.0099646 0)
(0.11195 -0.00984588 0)
(0.115866 -0.00972369 0)
(0.11973 -0.00959817 0)
(0.123542 -0.00946946 0)
(0.1273 -0.00933771 0)
(0.131003 -0.00920307 0)
(0.134649 -0.00906568 0)
(0.138238 -0.00892572 0)
(0.141769 -0.00878335 0)
(0.14524 -0.00863872 0)
(0.148651 -0.00849202 0)
(0.152001 -0.0083434 0)
(0.155289 -0.00819305 0)
(0.158515 -0.00804113 0)
(0.161677 -0.00788781 0)
(0.164776 -0.00773328 0)
(0.16781 -0.00757772 0)
(0.17078 -0.00742131 0)
(0.173686 -0.00726422 0)
(0.176526 -0.00710664 0)
(0.1793 -0.00694875 0)
(0.18201 -0.00679073 0)
(0.184654 -0.00663277 0)
(0.187233 -0.00647503 0)
(0.189747 -0.00631771 0)
(0.192196 -0.00616096 0)
(0.19458 -0.00600498 0)
(0.1969 -0.00584993 0)
(0.199157 -0.00569598 0)
(0.201349 -0.00554331 0)
(0.20348 -0.00539207 0)
(0.205548 -0.00524243 0)
(0.207554 -0.00509456 0)
(0.2095 -0.0049486 0)
(0.211386 -0.0048047 0)
(0.213213 -0.00466302 0)
(0.214982 -0.00452371 0)
(0.216694 -0.00438689 0)
(0.21835 -0.00425272 0)
(0.219952 -0.00412132 0)
(0.221499 -0.00399282 0)
(0.222994 -0.00386735 0)
(0.224438 -0.00374503 0)
(0.225832 -0.00362598 0)
(0.227178 -0.00351029 0)
(0.228476 -0.00339809 0)
(0.229728 -0.00328945 0)
(0.230936 -0.00318449 0)
(0.232102 -0.00308329 0)
(0.233226 -0.00298592 0)
(0.23431 -0.00289246 0)
(0.235356 -0.00280298 0)
(0.236365 -0.00271753 0)
(0.237339 -0.00263615 0)
(0.23828 -0.00255885 0)
(0.23919 -0.00248563 0)
(0.24007 -0.0024164 0)
(0.240922 -0.00235106 0)
(0.24175 -0.00228946 0)
(0.242558 -0.00223133 0)
(0.24335 -0.00217646 0)
(0.244131 -0.0021238 0)
(0.244907 -0.00206937 0)
(0.245694 -0.00200915 0)
(0.246507 -0.00194498 0)
(0.247353 -0.00188371 0)
(0.248232 -0.00183081 0)
(0.249141 -0.00178762 0)
(0.250074 -0.00175339 0)
(0.251028 -0.00172734 0)
(0.251998 -0.00170912 0)
(0.252982 -0.00169836 0)
(0.253977 -0.00169452 0)
(0.25498 -0.00169688 0)
(0.25599 -0.00170472 0)
(0.257008 -0.00171748 0)
(0.258032 -0.00173479 0)
(0.259063 -0.00175645 0)
(0.260103 -0.00178236 0)
(0.261152 -0.00181248 0)
(0.26221 -0.00184676 0)
(0.263278 -0.00188511 0)
(0.264358 -0.00192745 0)
(0.26545 -0.00197365 0)
(0.266554 -0.00202359 0)
(0.267673 -0.00207713 0)
(0.268806 -0.00213411 0)
(0.269955 -0.00219433 0)
(0.271122 -0.00225764 0)
(0.272306 -0.00232383 0)
(0.27351 -0.00239269 0)
(0.274735 -0.00246409 0)
(0.275982 -0.00253785 0)
(0.277252 -0.00261384 0)
(0.278546 -0.00269189 0)
(0.279866 -0.00277193 0)
(0.281212 -0.00285392 0)
(0.282585 -0.00293773 0)
(0.283987 -0.00302325 0)
(0.285416 -0.0031104 0)
(0.286875 -0.00319907 0)
(0.288363 -0.00328915 0)
(0.28988 -0.00338044 0)
(0.291428 -0.00347283 0)
(0.293006 -0.00356614 0)
(0.294613 -0.00366008 0)
(0.296251 -0.00375449 0)
(0.297919 -0.00384935 0)
(0.299619 -0.00394451 0)
(0.301349 -0.00403971 0)
(0.30311 -0.00413466 0)
(0.304901 -0.00422908 0)
(0.306725 -0.00432273 0)
(0.308579 -0.00441554 0)
(0.310465 -0.00450749 0)
(0.312382 -0.00459836 0)
(0.314329 -0.004688 0)
(0.316307 -0.00477636 0)
(0.318315 -0.0048633 0)
(0.320353 -0.00494862 0)
(0.32242 -0.00503211 0)
(0.324516 -0.00511353 0)
(0.32664 -0.00519268 0)
(0.328792 -0.00526943 0)
(0.330971 -0.00534362 0)
(0.333178 -0.00541519 0)
(0.33541 -0.00548408 0)
(0.337668 -0.00555021 0)
(0.33995 -0.00561342 0)
(0.342256 -0.00567353 0)
(0.344585 -0.00573031 0)
(0.346935 -0.00578359 0)
(0.349307 -0.00583323 0)
(0.3517 -0.0058791 0)
(0.354112 -0.00592103 0)
(0.356543 -0.0059589 0)
(0.358992 -0.00599256 0)
(0.361457 -0.00602189 0)
(0.363939 -0.00604679 0)
(0.366437 -0.00606715 0)
(0.368948 -0.0060829 0)
(0.371473 -0.00609396 0)
(0.374011 -0.00610026 0)
(0.376559 -0.00610174 0)
(0.379118 -0.00609831 0)
(0.381685 -0.00608991 0)
(0.38426 -0.00607647 0)
(0.386842 -0.00605792 0)
(0.389428 -0.00603421 0)
(0.392018 -0.00600529 0)
(0.394611 -0.00597111 0)
(0.397204 -0.00593167 0)
(0.399797 -0.00588693 0)
(0.402387 -0.00583688 0)
(0.404974 -0.00578149 0)
(0.407555 -0.00572075 0)
(0.410129 -0.00565463 0)
(0.412694 -0.00558316 0)
(0.415249 -0.00550634 0)
(0.41779 -0.00542424 0)
(0.420317 -0.00533693 0)
(0.422828 -0.00524451 0)
(0.42532 -0.00514713 0)
(0.427791 -0.00504503 0)
(0.430238 -0.00493859 0)
(0.43266 -0.00482834 0)
(0.435052 -0.00471485 0)
(0.437411 -0.0045986 0)
(0.439732 -0.00447989 0)
(0.442012 -0.00435934 0)
(0.444247 -0.00423902 0)
(0.446429 -0.00412373 0)
(0.448545 -0.00402123 0)
(0.450578 -0.00394011 0)
(0.452504 -0.0038851 0)
(0.454301 -0.00385238 0)
(0.455956 -0.0038281 0)
(0.457471 -0.00379225 0)
(0.458862 -0.0037263 0)
(0.460156 -0.00362039 0)
(0.461377 -0.00347626 0)
(0.462543 -0.00330456 0)
(0.463662 -0.00311904 0)
(0.46473 -0.00293093 0)
(0.465743 -0.00274631 0)
(0.466692 -0.0025665 0)
(0.467571 -0.00239026 0)
(0.468375 -0.00221589 0)
(0.469101 -0.00204227 0)
(0.469745 -0.00186889 0)
(0.470303 -0.00169549 0)
(0.470774 -0.00152171 0)
(0.471156 -0.00134708 0)
(0.471447 -0.00117119 0)
(0.471646 -0.000993818 0)
(0.471753 -0.000814923 0)
(0.471767 -0.00063459 0)
(0.471687 -0.000452867 0)
(0.471512 -0.000269698 0)
(0.471243 -8.52548e-05 0)
(0.47088 9.8372e-05 0)
(0.47042 0.000282027 0)
(0.469863 0.000466004 0)
(0.469211 0.000650626 0)
(0.468465 0.000835999 0)
(0.467626 0.00102168 0)
(0.466694 0.00120736 0)
(0.465669 0.00139281 0)
(0.46455 0.00157787 0)
(0.463339 0.00176245 0)
(0.462035 0.00194647 0)
(0.46064 0.00212995 0)
(0.459152 0.00231288 0)
(0.457575 0.0024952 0)
(0.455907 0.00267686 0)
(0.454151 0.00285779 0)
(0.452308 0.00303797 0)
(0.450378 0.0032174 0)
(0.448363 0.00339608 0)
(0.446265 0.003574 0)
(0.444084 0.00375119 0)
(0.441823 0.00392767 0)
(0.439483 0.00410341 0)
(0.437067 0.00427851 0)
(0.434575 0.00445301 0)
(0.432011 0.00462696 0)
(0.429376 0.00480039 0)
(0.426673 0.00497341 0)
(0.423903 0.00514606 0)
(0.42107 0.00531846 0)
(0.418176 0.00549078 0)
(0.415224 0.00566318 0)
(0.412216 0.00583571 0)
(0.409155 0.00600848 0)
(0.406044 0.00618169 0)
(0.402886 0.00635553 0)
(0.399685 0.00653021 0)
(0.396444 0.00670605 0)
(0.393166 0.00688339 0)
(0.389855 0.00706258 0)
(0.386515 0.00724407 0)
(0.383152 0.00742841 0)
(0.379769 0.00761616 0)
(0.376374 0.00780795 0)
(0.372971 0.00800445 0)
(0.369568 0.00820637 0)
(0.366174 0.00841449 0)
(0.362796 0.00862967 0)
(0.359443 0.00885313 0)
(0.356127 0.00908631 0)
(0.352859 0.00933013 0)
(0.349647 0.00958411 0)
(0.3465 0.0098466 0)
(0.343422 0.0101161 0)
(0.340417 0.0103923 0)
(0.337486 0.0106759 0)
(0.33463 0.0109676 0)
(0.331849 0.011267 0)
(0.329141 0.0115731 0)
(0.326502 0.0118838 0)
(0.323924 0.012193 0)
(0.321389 0.0124895 0)
(0.318871 0.0127589 0)
(0.316336 0.0129897 0)
(0.313753 0.0131791 0)
(0.311095 0.0133327 0)
(0.308346 0.0134596 0)
(0.305502 0.013566 0)
(0.302558 0.0136514 0)
(0.299505 0.0137094 0)
(0.296326 0.0137295 0)
(0.292997 0.0136999 0)
(0.289496 0.0136126 0)
(0.285806 0.0134705 0)
(0.281921 0.013294 0)
(0.277859 0.0131197 0)
(0.273658 0.0129891 0)
(0.269371 0.0129314 0)
(0.265044 0.0129502 0)
(0.260703 0.0130234 0)
(0.25635 0.0131173 0)
(0.251973 0.0132032 0)
(0.247554 0.0132669 0)
(0.243079 0.0133081 0)
(0.238543 0.0133328 0)
(0.23394 0.0133468 0)
(0.229272 0.013353 0)
(0.224537 0.0133517 0)
(0.219734 0.0133422 0)
(0.214861 0.0133238 0)
(0.209918 0.0132963 0)
(0.204903 0.0132597 0)
(0.199817 0.0132142 0)
(0.194657 0.0131602 0)
(0.189424 0.0130978 0)
(0.184118 0.0130275 0)
(0.178739 0.0129496 0)
(0.173285 0.0128644 0)
(0.167759 0.0127725 0)
(0.162159 0.0126743 0)
(0.156487 0.0125702 0)
(0.150744 0.0124606 0)
(0.14493 0.0123459 0)
(0.139046 0.0122266 0)
(0.133094 0.0121033 0)
(0.127074 0.0119769 0)
(0.120989 0.0118481 0)
(0.114839 0.0117178 0)
(0.108628 0.0115867 0)
(0.102358 0.0114559 0)
(0.0960295 0.0113264 0)
(0.0896467 0.011199 0)
(0.083212 0.0110748 0)
(0.0767283 0.0109549 0)
(0.070199 0.0108402 0)
(0.0636274 0.0107317 0)
(0.0570167 0.0106305 0)
(0.0503723 0.0105369 0)
(0.0436929 0.0104514 0)
(0.0370022 0.0103781 0)
(0.0302524 0.0103359 0)
(0.023537 0.0103017 0)
(0.0166465 0.00994149 0)
(0.0100912 0.0089307 0)
(0.00454549 0.0113681 0)
(0.00108472 -0.0139254 0)
(0.00592648 -0.0226248 0)
(0.0118247 -0.0209105 0)
(0.0166064 -0.0193445 0)
(0.0212449 -0.0189327 0)
(0.0259031 -0.0189167 0)
(0.0305671 -0.0189163 0)
(0.0352202 -0.0188715 0)
(0.0398574 -0.0188013 0)
(0.0444759 -0.01872 0)
(0.0490733 -0.0186312 0)
(0.0536474 -0.0185347 0)
(0.0581964 -0.01843 0)
(0.0627184 -0.0183172 0)
(0.0672112 -0.0181964 0)
(0.0716729 -0.0180676 0)
(0.0761016 -0.017931 0)
(0.0804953 -0.0177868 0)
(0.0848523 -0.0176351 0)
(0.0891706 -0.0174762 0)
(0.0934486 -0.0173101 0)
(0.0976844 -0.017137 0)
(0.101876 -0.0169573 0)
(0.106023 -0.016771 0)
(0.110123 -0.0165783 0)
(0.114174 -0.0163795 0)
(0.118174 -0.0161749 0)
(0.122124 -0.0159646 0)
(0.12602 -0.0157488 0)
(0.129863 -0.0155279 0)
(0.13365 -0.0153021 0)
(0.13738 -0.0150717 0)
(0.141053 -0.0148368 0)
(0.144667 -0.0145979 0)
(0.148221 -0.0143551 0)
(0.151715 -0.0141088 0)
(0.155147 -0.0138593 0)
(0.158517 -0.0136067 0)
(0.161824 -0.0133516 0)
(0.165068 -0.013094 0)
(0.168247 -0.0128344 0)
(0.171362 -0.0125731 0)
(0.174412 -0.0123103 0)
(0.177397 -0.0120463 0)
(0.180316 -0.0117816 0)
(0.18317 -0.0115163 0)
(0.185958 -0.0112507 0)
(0.18868 -0.0109853 0)
(0.191336 -0.0107202 0)
(0.193927 -0.0104558 0)
(0.196452 -0.0101924 0)
(0.198912 -0.00993033 0)
(0.201308 -0.00966978 0)
(0.203639 -0.00941108 0)
(0.205907 -0.00915453 0)
(0.208111 -0.00890039 0)
(0.210252 -0.00864893 0)
(0.212332 -0.00840044 0)
(0.214351 -0.00815516 0)
(0.216309 -0.00791336 0)
(0.218208 -0.00767528 0)
(0.220048 -0.00744116 0)
(0.221832 -0.00721125 0)
(0.223558 -0.00698575 0)
(0.22523 -0.00676491 0)
(0.226847 -0.00654892 0)
(0.228412 -0.00633798 0)
(0.229925 -0.00613231 0)
(0.231388 -0.00593208 0)
(0.232802 -0.00573747 0)
(0.234169 -0.00554866 0)
(0.23549 -0.0053658 0)
(0.236767 -0.00518906 0)
(0.238001 -0.00501857 0)
(0.239193 -0.00485446 0)
(0.240346 -0.00469685 0)
(0.241461 -0.00454587 0)
(0.24254 -0.00440159 0)
(0.243584 -0.00426413 0)
(0.244595 -0.00413357 0)
(0.245575 -0.00401002 0)
(0.246525 -0.00389363 0)
(0.247447 -0.00378461 0)
(0.248342 -0.00368334 0)
(0.24921 -0.00359059 0)
(0.250051 -0.00350725 0)
(0.250868 -0.0034352 0)
(0.251662 -0.00337891 0)
(0.252438 -0.00334211 0)
(0.253199 -0.0033219 0)
(0.253949 -0.00331027 0)
(0.25469 -0.00330094 0)
(0.255422 -0.00329237 0)
(0.256147 -0.00328541 0)
(0.256865 -0.00328097 0)
(0.257579 -0.00327944 0)
(0.258289 -0.0032812 0)
(0.258998 -0.00328686 0)
(0.259707 -0.00329717 0)
(0.260419 -0.00331287 0)
(0.261135 -0.00333449 0)
(0.261857 -0.00336229 0)
(0.262587 -0.00339634 0)
(0.263327 -0.00343655 0)
(0.264078 -0.0034828 0)
(0.264843 -0.00353493 0)
(0.265622 -0.00359279 0)
(0.266418 -0.00365629 0)
(0.267231 -0.00372526 0)
(0.268063 -0.00379956 0)
(0.268915 -0.00387909 0)
(0.269789 -0.00396375 0)
(0.270687 -0.00405341 0)
(0.271608 -0.00414795 0)
(0.272554 -0.00424722 0)
(0.273528 -0.00435107 0)
(0.274528 -0.0044593 0)
(0.275558 -0.00457173 0)
(0.276617 -0.00468813 0)
(0.277707 -0.00480828 0)
(0.278828 -0.0049319 0)
(0.279981 -0.00505866 0)
(0.281167 -0.00518827 0)
(0.282387 -0.00532052 0)
(0.283642 -0.00545514 0)
(0.284931 -0.00559184 0)
(0.286256 -0.0057304 0)
(0.287616 -0.00587056 0)
(0.289012 -0.0060121 0)
(0.290446 -0.00615495 0)
(0.291916 -0.00629885 0)
(0.293423 -0.00644344 0)
(0.294966 -0.00658846 0)
(0.296547 -0.00673378 0)
(0.298165 -0.00687928 0)
(0.299821 -0.00702467 0)
(0.301514 -0.00716955 0)
(0.303245 -0.00731362 0)
(0.305012 -0.00745679 0)
(0.306816 -0.00759873 0)
(0.308656 -0.00773906 0)
(0.310533 -0.0078777 0)
(0.312444 -0.0080144 0)
(0.314391 -0.00814889 0)
(0.316373 -0.00828106 0)
(0.318389 -0.00841068 0)
(0.320438 -0.00853755 0)
(0.32252 -0.00866158 0)
(0.324634 -0.00878269 0)
(0.326779 -0.00890061 0)
(0.328955 -0.00901496 0)
(0.331161 -0.00912543 0)
(0.333395 -0.00923174 0)
(0.335656 -0.00933372 0)
(0.337945 -0.00943123 0)
(0.340259 -0.00952417 0)
(0.342598 -0.00961243 0)
(0.344959 -0.0096958 0)
(0.347343 -0.00977406 0)
(0.349748 -0.00984705 0)
(0.352173 -0.00991461 0)
(0.354616 -0.00997657 0)
(0.357076 -0.0100328 0)
(0.359552 -0.010083 0)
(0.362043 -0.0101272 0)
(0.364546 -0.0101651 0)
(0.36706 -0.0101964 0)
(0.369585 -0.0102211 0)
(0.372118 -0.010239 0)
(0.374657 -0.0102498 0)
(0.377202 -0.0102536 0)
(0.37975 -0.01025 0)
(0.3823 -0.0102391 0)
(0.38485 -0.0102205 0)
(0.387398 -0.0101943 0)
(0.389943 -0.0101603 0)
(0.392482 -0.0101184 0)
(0.395014 -0.0100685 0)
(0.397537 -0.0100105 0)
(0.400049 -0.00994441 0)
(0.402549 -0.00987008 0)
(0.405034 -0.0097875 0)
(0.407504 -0.00969665 0)
(0.409955 -0.00959754 0)
(0.412386 -0.0094902 0)
(0.414796 -0.00937471 0)
(0.417183 -0.0092512 0)
(0.419545 -0.00911982 0)
(0.42188 -0.00898072 0)
(0.424187 -0.008834 0)
(0.426464 -0.00867978 0)
(0.428709 -0.00851826 0)
(0.43092 -0.00834988 0)
(0.433096 -0.00817521 0)
(0.435235 -0.00799472 0)
(0.437336 -0.00780817 0)
(0.439394 -0.00761403 0)
(0.441407 -0.00740926 0)
(0.443365 -0.00719021 0)
(0.445257 -0.00695446 0)
(0.44707 -0.00670304 0)
(0.448794 -0.00644112 0)
(0.450424 -0.0061765 0)
(0.451962 -0.00591632 0)
(0.453417 -0.00566395 0)
(0.454799 -0.00541789 0)
(0.456116 -0.00517308 0)
(0.457375 -0.00492365 0)
(0.458574 -0.00466537 0)
(0.459712 -0.00439661 0)
(0.460785 -0.00411786 0)
(0.46179 -0.00383058 0)
(0.462724 -0.00353618 0)
(0.463585 -0.00323564 0)
(0.46437 -0.00292956 0)
(0.465079 -0.00261843 0)
(0.465709 -0.00230276 0)
(0.46626 -0.00198309 0)
(0.466728 -0.00165996 0)
(0.467115 -0.00133381 0)
(0.467418 -0.00100497 0)
(0.467638 -0.000673755 0)
(0.467774 -0.000340536 0)
(0.467825 -5.74367e-06 0)
(0.467786 0.000330504 0)
(0.467659 0.000669294 0)
(0.467447 0.00100975 0)
(0.467148 0.00135116 0)
(0.466761 0.00169309 0)
(0.466285 0.00203509 0)
(0.46572 0.00237702 0)
(0.465065 0.00271877 0)
(0.464321 0.00306012 0)
(0.463488 0.0034008 0)
(0.462566 0.00374062 0)
(0.461554 0.00407927 0)
(0.460454 0.00441641 0)
(0.459265 0.00475184 0)
(0.457988 0.00508536 0)
(0.456624 0.00541675 0)
(0.455172 0.00574572 0)
(0.453634 0.00607206 0)
(0.45201 0.00639561 0)
(0.450301 0.00671611 0)
(0.448508 0.00703341 0)
(0.446633 0.00734735 0)
(0.444675 0.00765771 0)
(0.442637 0.00796436 0)
(0.440518 0.00826719 0)
(0.438322 0.00856604 0)
(0.436048 0.00886081 0)
(0.433698 0.00915138 0)
(0.431274 0.0094376 0)
(0.428777 0.00971939 0)
(0.426209 0.00999664 0)
(0.42357 0.0102693 0)
(0.420863 0.0105372 0)
(0.418089 0.0108005 0)
(0.41525 0.011059 0)
(0.412347 0.0113128 0)
(0.409381 0.0115618 0)
(0.406356 0.011806 0)
(0.403271 0.0120453 0)
(0.400129 0.0122797 0)
(0.396932 0.012509 0)
(0.39368 0.0127331 0)
(0.390376 0.0129517 0)
(0.387021 0.0131645 0)
(0.383616 0.0133712 0)
(0.380162 0.0135713 0)
(0.376662 0.0137645 0)
(0.373116 0.0139504 0)
(0.369526 0.0141286 0)
(0.365895 0.0142985 0)
(0.362224 0.0144596 0)
(0.358517 0.0146125 0)
(0.354777 0.0147591 0)
(0.351008 0.014903 0)
(0.347214 0.0150473 0)
(0.343398 0.0151937 0)
(0.339563 0.0153424 0)
(0.335714 0.015494 0)
(0.331856 0.0156491 0)
(0.327994 0.0158089 0)
(0.324135 0.0159753 0)
(0.320285 0.0161522 0)
(0.316449 0.0163457 0)
(0.312627 0.016561 0)
(0.308815 0.0167983 0)
(0.305006 0.0170502 0)
(0.30119 0.0173043 0)
(0.297363 0.0175494 0)
(0.293521 0.0177797 0)
(0.289663 0.0179952 0)
(0.285791 0.0181998 0)
(0.2819 0.0183992 0)
(0.277983 0.0185989 0)
(0.274026 0.0188016 0)
(0.270003 0.0190046 0)
(0.265893 0.0191991 0)
(0.261677 0.0193732 0)
(0.257356 0.0195175 0)
(0.252948 0.0196302 0)
(0.248482 0.0197193 0)
(0.243987 0.0197989 0)
(0.239483 0.0198823 0)
(0.234976 0.0199766 0)
(0.230463 0.0200816 0)
(0.225936 0.0201931 0)
(0.221391 0.0203067 0)
(0.216823 0.0204192 0)
(0.212232 0.0205293 0)
(0.207615 0.0206366 0)
(0.202971 0.0207412 0)
(0.198299 0.020843 0)
(0.193594 0.0209419 0)
(0.188856 0.0210378 0)
(0.18408 0.0211306 0)
(0.179266 0.0212201 0)
(0.17441 0.0213062 0)
(0.169509 0.0213889 0)
(0.164561 0.021468 0)
(0.159564 0.0215435 0)
(0.154515 0.0216154 0)
(0.149411 0.0216835 0)
(0.144252 0.0217477 0)
(0.139034 0.0218081 0)
(0.133757 0.0218646 0)
(0.128418 0.0219172 0)
(0.123015 0.021966 0)
(0.117549 0.022011 0)
(0.112018 0.0220524 0)
(0.106422 0.0220902 0)
(0.10076 0.0221245 0)
(0.0950334 0.0221554 0)
(0.0892428 0.0221831 0)
(0.0833893 0.0222076 0)
(0.0774747 0.0222291 0)
(0.0715012 0.0222478 0)
(0.0654713 0.0222638 0)
(0.0593884 0.0222772 0)
(0.0532555 0.0222881 0)
(0.0470784 0.0222958 0)
(0.0408559 0.0222994 0)
(0.0346117 0.0223063 0)
(0.0282987 0.0223505 0)
(0.0220109 0.0223889 0)
(0.0155632 0.0218406 0)
(0.00944058 0.0200878 0)
(0.00436071 0.0242588 0)
(0.00108027 -0.0195833 0)
(0.00594624 -0.0318134 0)
(0.0118767 -0.0294126 0)
(0.0166792 -0.027205 0)
(0.0213413 -0.0266196 0)
(0.0260222 -0.0265945 0)
(0.0307074 -0.0265931 0)
(0.0353814 -0.0265291 0)
(0.0400397 -0.0264289 0)
(0.0446793 -0.0263131 0)
(0.0492975 -0.0261869 0)
(0.0538923 -0.0260499 0)
(0.0584619 -0.0259015 0)
(0.0630042 -0.0257417 0)
(0.0675172 -0.0255706 0)
(0.071999 -0.0253884 0)
(0.0764475 -0.0251954 0)
(0.0808609 -0.0249916 0)
(0.0852373 -0.0247774 0)
(0.0895749 -0.0245531 0)
(0.0938718 -0.0243187 0)
(0.0981263 -0.0240746 0)
(0.102337 -0.0238211 0)
(0.106502 -0.0235585 0)
(0.110619 -0.0232869 0)
(0.114688 -0.0230069 0)
(0.118706 -0.0227185 0)
(0.122672 -0.0224223 0)
(0.126585 -0.0221185 0)
(0.130444 -0.0218075 0)
(0.134247 -0.0214897 0)
(0.137993 -0.0211653 0)
(0.141681 -0.0208348 0)
(0.14531 -0.0204986 0)
(0.148879 -0.020157 0)
(0.152387 -0.0198105 0)
(0.155833 -0.0194595 0)
(0.159216 -0.0191043 0)
(0.162536 -0.0187454 0)
(0.165792 -0.0183833 0)
(0.168984 -0.0180182 0)
(0.172111 -0.0176507 0)
(0.175172 -0.0172812 0)
(0.178168 -0.0169102 0)
(0.181097 -0.0165379 0)
(0.183961 -0.016165 0)
(0.186758 -0.0157917 0)
(0.18949 -0.0154186 0)
(0.192155 -0.015046 0)
(0.194754 -0.0146744 0)
(0.197288 -0.0143042 0)
(0.199756 -0.0139358 0)
(0.202159 -0.0135696 0)
(0.204497 -0.0132061 0)
(0.206771 -0.0128455 0)
(0.208981 -0.0124884 0)
(0.211129 -0.0121351 0)
(0.213214 -0.0117859 0)
(0.215238 -0.0114413 0)
(0.217201 -0.0111016 0)
(0.219104 -0.0107671 0)
(0.220949 -0.0104383 0)
(0.222736 -0.0101153 0)
(0.224466 -0.00979861 0)
(0.226141 -0.00948848 0)
(0.227761 -0.00918521 0)
(0.229329 -0.00888909 0)
(0.230844 -0.00860042 0)
(0.23231 -0.00831944 0)
(0.233726 -0.00804643 0)
(0.235095 -0.00778163 0)
(0.236417 -0.00752526 0)
(0.237695 -0.00727755 0)
(0.23893 -0.0070387 0)
(0.240124 -0.00680891 0)
(0.241277 -0.00658836 0)
(0.242393 -0.00637722 0)
(0.243472 -0.00617566 0)
(0.244517 -0.0059838 0)
(0.245528 -0.00580179 0)
(0.246509 -0.00562972 0)
(0.24746 -0.00546766 0)
(0.248383 -0.00531559 0)
(0.249282 -0.00517332 0)
(0.250159 -0.00504031 0)
(0.251016 -0.00491572 0)
(0.251857 -0.00479854 0)
(0.252682 -0.00468793 0)
(0.253491 -0.00458384 0)
(0.254281 -0.00448726 0)
(0.255054 -0.00439994 0)
(0.255811 -0.0043235 0)
(0.256557 -0.00425888 0)
(0.257293 -0.00420647 0)
(0.258024 -0.00416639 0)
(0.25875 -0.00413867 0)
(0.259474 -0.00412321 0)
(0.260199 -0.00411975 0)
(0.260925 -0.0041279 0)
(0.261656 -0.00414725 0)
(0.262392 -0.00417735 0)
(0.263135 -0.00421788 0)
(0.263887 -0.00426846 0)
(0.264648 -0.00432879 0)
(0.265421 -0.00439858 0)
(0.266207 -0.00447756 0)
(0.267007 -0.00456545 0)
(0.267824 -0.00466196 0)
(0.268658 -0.0047668 0)
(0.26951 -0.00487974 0)
(0.270383 -0.00500043 0)
(0.271278 -0.00512861 0)
(0.272195 -0.00526398 0)
(0.273137 -0.0054062 0)
(0.274103 -0.00555504 0)
(0.275096 -0.00571012 0)
(0.276116 -0.00587103 0)
(0.277164 -0.00603747 0)
(0.278241 -0.00620911 0)
(0.279348 -0.00638577 0)
(0.280487 -0.00656728 0)
(0.281657 -0.00675307 0)
(0.28286 -0.00694294 0)
(0.284095 -0.0071365 0)
(0.285365 -0.00733344 0)
(0.286669 -0.0075334 0)
(0.288008 -0.00773606 0)
(0.289383 -0.00794123 0)
(0.290793 -0.00814831 0)
(0.29224 -0.0083569 0)
(0.293724 -0.00856703 0)
(0.295244 -0.00877845 0)
(0.296802 -0.00899059 0)
(0.298397 -0.00920286 0)
(0.300029 -0.0094149 0)
(0.301698 -0.00962645 0)
(0.303405 -0.00983741 0)
(0.305148 -0.0100477 0)
(0.306927 -0.0102569 0)
(0.308744 -0.0104642 0)
(0.310596 -0.0106696 0)
(0.312485 -0.0108728 0)