/*--------------------------------*- C++ -*----------------------------------*\
| =========                 |                                                 |
| \\      /  F ield         | OpenFOAM: The Open Source CFD Toolbox           |
|  \\    /   O peration     | Version:  v2006                                 |
|   \\  /    A nd           | Website:  www.openfoam.com                      |
|    \\/     M anipulation  |                                                 |
\*---------------------------------------------------------------------------*/
FoamFile
{
    version     2.0;
    format      ascii;
    class       surfaceScalarField;
    location    "17.5";
    object      alphaPhi0.water;
}
// * * * * * * * * * * * * * * * * * * * * * * * * * * * * * * * * * * * * * //

dimensions      [0 3 -1 0 0 0 0];
oriented        oriented;


internalField   nonuniform List<scalar> 
299200
(
-0.000641393
0.000641393
-0.000978588
0.000337195
-0.0013138
0.000335208
-0.00168087
0.000367073
-0.00205748
0.000376613
-0.00244225
0.00038477
-0.00284258
0.00040033
-0.00326668
0.000424093
-0.00371879
0.000452115
-0.00419978
0.000480994
-0.00470761
0.000507829
-0.00523803
0.00053042
-0.0057856
0.000547567
-0.00634454
0.000558942
-0.00690923
0.000564688
-0.00747482
0.000565587
-0.00803759
0.000562778
-0.00859517
0.000557576
-0.00914643
0.000551262
-0.00969133
0.0005449
-0.0102306
0.000539232
-0.0107653
0.000534739
-0.0112969
0.00053157
-0.0118263
0.000529467
-0.0123543
0.00052795
-0.0128807
0.000526405
-0.0134048
0.000524139
-0.0139253
0.000520502
-0.0144404
0.000515019
-0.0149479
0.000507518
-0.0154461
0.000498185
-0.0159337
0.000487608
-0.0164104
0.000476785
-0.0168775
0.000467008
-0.017337
0.000459574
-0.0177925
0.000455439
-0.0182474
0.00045494
-0.018705
0.000457619
-0.0191673
0.000462221
-0.0196342
0.000466943
-0.0201042
0.000469972
-0.0205737
0.000469495
-0.0210379
0.000464251
-0.021492
0.000454111
-0.0219317
0.000439633
-0.0223536
0.000421894
-0.0227558
0.000402213
-0.0231376
0.00038183
-0.0234993
0.000361702
-0.0238417
0.000342367
-0.0241656
0.000323918
-0.0244717
0.000306097
-0.0247602
0.000288495
-0.0250309
0.00027071
-0.0252833
0.00025239
-0.0255166
0.000233284
-0.0257299
0.000213338
-0.0259226
0.000192719
-0.0260944
0.00017174
-0.0262451
0.000150758
-0.0263752
0.000130104
-0.0264853
0.000110067
-0.0265762
9.08675e-05
-0.0266488
7.26255e-05
-0.0267041
5.53297e-05
-0.0267429
3.88011e-05
-0.0267657
2.27839e-05
-0.0267732
7.52221e-06
-0.0267657
-7.46747e-06
-0.026743
-2.27593e-05
-0.0267045
-3.84378e-05
-0.0266497
-5.48659e-05
-0.0265774
-7.2315e-05
-0.0264864
-9.0971e-05
-0.0263755
-0.000110928
-0.0262433
-0.000132159
-0.0260888
-0.0001545
-0.0259112
-0.000177649
-0.0257099
-0.000201225
-0.025485
-0.000224888
-0.0252367
-0.000248395
-0.0249651
-0.000271586
-0.0246707
-0.000294395
-0.0243538
-0.000316884
-0.0240146
-0.000339208
-0.0236531
-0.000361515
-0.0232692
-0.000383911
-0.0228627
-0.000406477
-0.0224334
-0.000429247
-0.0219812
-0.000452229
-0.0215058
-0.000475442
-0.0210069
-0.00049889
-0.0204843
-0.000522529
-0.019938
-0.000546369
-0.0193675
-0.000570518
-0.0187724
-0.000595035
-0.0181524
-0.000620004
-0.0175069
-0.000645497
-0.0168353
-0.000671572
-0.0161369
-0.000698403
-0.0154109
-0.000726073
-0.0146561
-0.000754788
-0.0138718
-0.000784292
-0.0130576
-0.000814238
-0.0122144
-0.000843192
-0.0113447
-0.000869648
-0.0104529
-0.000891844
-0.00954476
-0.000908108
-0.00862767
-0.000917087
-0.00770789
-0.000919785
-0.00679131
-0.000916576
-0.00588133
-0.000909984
-0.00497902
-0.000902309
-0.00408055
-0.000898471
-0.00318124
-0.000899313
-0.00227477
-0.000906469
-0.00135587
-0.000918901
-0.000418488
-0.000937378
0.000540573
-0.000959061
0.00152415
-0.000983577
0.00253273
-0.00100858
0.00356604
-0.00103331
0.00462351
-0.00105747
0.00570479
-0.00108128
0.00681029
-0.0011055
0.00794101
-0.00113072
0.00909725
-0.00115624
0.0102771
-0.00117985
0.0114742
-0.00119709
0.0126789
-0.00120469
0.0138824
-0.00120353
0.0150864
-0.00120403
0.0163164
-0.00123
0.0176321
-0.00131566
0.0191162
-0.00148412
0.0208389
-0.0017227
0.0227828
-0.00194391
0.0247501
-0.00196729
0.026337
-0.00158685
0.0271149
-0.000777939
0.0270716
4.33265e-05
0.0267123
0.000359244
0.0266093
0.000103069
0.0269831
-0.000373798
0.0278118
-0.000828716
0.0289719
-0.00116016
0.0303251
-0.00135312
0.0317801
-0.00145503
0.0332928
-0.00151274
0.0348478
-0.00155497
0.0364317
-0.00158388
0.0380106
-0.0015789
0.0395355
-0.00152494
0.0409541
-0.00141853
0.0422273
-0.0012732
0.043344
-0.00111678
0.0443257
-0.000981624
0.0452161
-0.000890397
0.0460669
-0.000850842
0.0469222
-0.00085529
0.0478091
-0.000886873
0.0487372
-0.000928169
0.0497033
-0.000966035
0.0506959
-0.000992642
0.0517004
-0.00100451
0.0527014
-0.00100102
0.0536848
-0.000983398
0.0546395
-0.000954648
0.0555585
-0.000919024
0.0564397
-0.000881249
0.0572853
-0.000845588
0.0581004
-0.000815083
0.0588916
-0.000791223
0.0596657
-0.000774056
0.0604283
-0.00076261
0.0611837
-0.000755394
0.0619345
-0.000750821
0.062682
-0.000747478
0.0634263
-0.000744255
0.0641666
-0.00074037
0.064902
-0.000735348
0.0656309
-0.000728972
0.0663522
-0.000721255
0.0670646
-0.0007124
0.0677674
-0.000702784
0.0684603
-0.00069291
0.0691436
-0.000683335
0.0698182
-0.000674574
0.0704852
-0.000666981
0.0711458
-0.000660651
0.0718012
-0.000655373
0.0724518
-0.000650628
0.0730975
-0.000645665
0.0737371
-0.000639624
0.0743688
-0.00063171
0.0749902
-0.000621411
0.075599
-0.000608703
0.0761932
-0.000594202
0.0767724
-0.000579227
0.077338
-0.000565646
0.0778935
-0.000555459
0.0784436
-0.000550147
0.0789936
-0.000549925
0.0795467
-0.000553162
0.0801031
-0.000556333
0.0806578
-0.000554727
0.0812017
-0.000543902
0.0817231
-0.000521374
0.0822109
-0.000487862
0.0826584
-0.000447455
0.0830649
-0.000406491
0.0834363
-0.000371455
0.083783
-0.000346665
0.0841158
-0.000332785
0.0844428
-0.000327055
0.0847682
-0.000325412
0.0850937
-0.000325422
0.0854218
-0.000328098
0.0857587
-0.000336974
0.0861132
-0.000354473
0.0864918
-0.000378563
0.0868947
-0.000402939
0.0873148
-0.000420105
0.0877417
-0.000426889
0.0881702
-0.000428495
0.0886053
-0.000435093
0.0890499
-0.000444629
0.0894635
-0.000413548
0.0897181
-0.000254668
0.0896898
2.8333e-05
0.089379
0.000310783
0.088965
0.000414061
0.0885766
0.000388334
0.0882512
0.00032547
0.0879729
0.000278227
0.0877077
0.000265261
0.0874274
0.000280277
0.0871144
0.000313002
0.0867568
0.000357542
0.0863439
0.000412985
0.0858628
0.000481072
0.0852998
0.000562943
0.0846417
0.000658163
0.083877
0.000764664
0.0829985
0.000878513
0.0820052
0.000993281
0.080906
0.00109919
0.0797234
0.00118266
0.0784956
0.00122775
0.0772727
0.00122296
0.0761096
0.00116306
0.0750645
0.00104512
0.0741889
0.000875547
0.0735195
0.00066941
0.0730699
0.000449626
0.0728267
0.000243223
0.0727478
7.88886e-05
0.0727823
-3.44859e-05
0.0728829
-0.000100628
0.0730159
-0.000133032
0.0731608
-0.000144873
0.0733011
-0.000140262
0.0734281
-0.000126986
0.0735418
-0.000113727
0.0736474
-0.000105575
0.0737496
-0.000102206
0.0738552
-0.000105652
0.0739675
-0.000112239
0.074087
-0.00011954
0.0742134
-0.000126442
0.0743464
-0.00013293
0.0744859
-0.000139515
0.0746325
-0.000146575
0.0747866
-0.000154107
0.0749484
-0.000161854
0.0751179
-0.000169504
0.0752948
-0.000176841
0.0754785
-0.00018378
0.0756689
-0.000190327
0.0758654
-0.00019651
0.0760677
-0.000202333
0.0762755
-0.000207766
0.0764882
-0.000212751
0.0767054
-0.000217213
0.0769265
-0.000221078
0.0771508
-0.000224276
0.0773775
-0.000226751
0.077606
-0.000228463
0.0778354
-0.000229391
0.0780649
-0.000229533
0.0782938
-0.000228909
0.0785214
-0.000227551
0.0787469
-0.000225504
0.0789697
-0.000222811
0.0791892
-0.000219512
0.0794049
-0.000215639
0.0796161
-0.000211215
0.0798223
-0.000206249
0.0800231
-0.00020075
0.0802178
-0.000194721
0.080406
-0.000188161
0.080587
-0.000181073
0.0807605
-0.000173454
0.0809258
-0.000165296
0.0810824
-0.000156586
0.0812297
-0.000147301
0.0813671
-0.000137409
0.0814939
-0.000126854
0.0816095
-0.000115553
0.0817128
-0.000103361
0.0818029
-9.00398e-05
0.081878
-7.51452e-05
0.081936
-5.79419e-05
0.0819739
-3.79103e-05
0.0819889
-1.49864e-05
0.0819804
8.42253e-06
0.0819521
2.83538e-05
0.0819074
4.47146e-05
0.081847
6.03524e-05
0.0817709
7.61509e-05
0.0816787
9.21243e-05
0.0815706
0.000108143
0.0814465
0.000124114
0.0813065
0.000139972
0.0811509
0.000155657
0.0809798
0.000171111
0.0807935
0.000186274
0.0805924
0.000201093
0.0803769
0.000215515
0.0801474
0.000229495
0.0799044
0.000242992
0.0796484
0.000255973
0.07938
0.000268412
0.0790997
0.00028029
0.0788081
0.000291598
0.0785058
0.000302333
0.0781933
0.000312502
0.0778712
0.000322122
0.0775399
0.000331213
0.0772001
0.000339804
0.0768522
0.000347931
0.0764966
0.000355632
0.0761336
0.00036295
0.0757637
0.000369925
0.0753871
0.000376596
0.0750041
0.000382993
0.074615
0.00038913
0.07422
0.000394999
0.0738194
0.000400559
0.0734137
0.000405731
0.0730033
0.000410397
0.0725889
0.000414407
0.0721713
0.000417601
0.0717514
0.000419838
0.0713304
0.000421024
0.0709092
0.000421197
0.0704886
0.000420623
0.0700687
0.000419885
0.0696489
0.000419863
0.0692273
0.000421533
0.0688017
0.000425595
0.0683696
0.00043208
0.0679294
0.000440254
0.0674806
0.000448822
0.0670242
0.000456337
0.0665624
0.000461847
0.066097
0.000465388
0.0656289
0.000468144
0.0651568
0.000472105
0.0646776
0.000479189
0.0641869
0.000490651
0.0636804
0.000506501
0.0631549
0.00052547
0.0626093
0.00054566
0.0620438
0.000565452
0.0614596
0.000584238
0.0608569
0.000602643
0.0602347
0.000622245
0.0595897
0.000645018
0.0589169
0.000672758
0.0582104
0.000706508
0.0574646
0.000745814
0.0566768
0.000787791
0.0558502
0.000826594
0.054996
0.00085425
0.0541315
0.000864441
0.0532778
0.00085373
0.0524543
0.000823534
0.051672
0.000782282
0.0509296
0.000742388
0.0502142
0.000715369
0.0495069
0.000707368
0.0487896
0.000717238
0.0480517
0.000737921
0.0472908
0.000760855
0.0465127
0.000778161
0.0457279
0.000784797
0.0449489
0.000779027
0.0441872
0.00076169
0.0434518
0.000735397
0.0427486
0.000703153
0.0420809
0.000667705
0.0414491
0.000631796
0.0408503
0.00059883
0.0402772
0.000573085
0.0397184
0.000558829
0.0391599
0.000558467
0.0385892
0.000570738
0.0379984
0.000590778
0.0373859
0.000612475
0.0367557
0.000630166
0.0361147
0.000641019
0.0354693
0.000645406
0.0348239
0.000645387
0.0341807
0.000643206
0.0335407
0.000640037
0.0329048
0.000635913
0.0322744
0.000630411
0.031651
0.00062335
0.031036
0.000615064
0.0304297
0.000606251
0.0298321
0.000597654
0.0292422
0.000589809
0.0286593
0.000582964
0.0280822
0.00057712
0.02751
0.000572137
0.0269422
0.000567834
0.0263781
0.000564057
0.0258174
0.000560708
0.0252597
0.000557741
0.0247045
0.000555136
0.0241517
0.000552868
0.0236008
0.000550867
0.0230518
0.000548981
0.0225049
0.000546955
0.0219605
0.000544416
0.0214195
0.000540941
0.0208833
0.000536243
0.0203528
0.000530438
0.0198286
0.000524208
0.01931
0.000518584
0.0187957
0.00051436
0.0182842
0.000511516
0.017775
0.000509158
0.0172689
0.000506061
0.0167676
0.000501358
0.0162727
0.000494858
0.0157858
0.000486922
0.0153078
0.000478046
0.0148392
0.000468537
0.0143808
0.000458457
0.013933
0.00044774
0.0134967
0.000436282
0.0130728
0.000423965
0.0126622
0.000410601
0.0122663
0.000395857
0.0118871
0.00037918
0.0115274
0.00035979
0.0111906
0.000336771
0.0108813
0.000309288
0.0106045
0.000276827
0.010365
0.000239449
0.010167
0.000198056
0.0100127
0.000154274
0.00990246
0.000110231
0.0098312
7.1256e-05
0.00977618
5.50186e-05
0.00969729
7.88857e-05
0.00956229
0.000135005
0.00936853
0.000193762
0.00913008
0.000238443
0.00885809
0.000271998
0.00855549
0.000302595
0.00822008
0.000335407
0.00784797
0.000372115
0.00743673
0.000411238
0.00698625
0.00045048
0.00649775
0.000488503
0.00597464
0.000523111
0.00542168
0.000552958
0.00484525
0.000576424
0.00425411
0.000591143
0.00365841
0.000595703
0.00306899
0.000589418
0.00249674
0.000572249
0.00195212
0.000544621
0.00144501
0.000507111
0.000984917
0.000460092
0.000581297
0.00040362
0.000243744
0.000337553
-1.79603e-05
0.000261704
-0.000195802
0.000177842
-0.000283079
8.72769e-05
-0.000279817
-3.26159e-06
-0.000190509
-8.93088e-05
-4.81847e-05
-0.000142324
9.53343e-05
-0.000143519
0.000171182
-7.58474e-05
0.00013477
3.64113e-05
0.00013477
-0.000890251
0.00153164
-0.00149201
0.000938957
-0.00215451
0.000997701
-0.00288421
0.00109677
-0.0036563
0.00114871
-0.00446969
0.00119816
-0.0053299
0.00126054
-0.00623455
0.00132875
-0.0071745
0.00139206
-0.00813642
0.00144291
-0.00910538
0.00147679
-0.0100667
0.00149177
-0.0110082
0.00148908
-0.0119213
0.00147198
-0.0128013
0.00144465
-0.0136472
0.00141149
-0.0144608
0.00137642
-0.0152457
0.00134244
-0.0160059
0.00131148
-0.0167453
0.00128433
-0.0174669
0.00126085
-0.0181725
0.00124031
-0.0188625
0.00122157
-0.0195365
0.00120346
-0.0201935
0.00118499
-0.0208327
0.00116562
-0.0214539
0.00114532
-0.022058
0.00112458
-0.0226473
0.00110435
-0.0232257
0.00108589
-0.023798
0.0010705
-0.0243696
0.00105918
-0.0249451
0.00105224
-0.025527
0.00104895
-0.0261148
0.00104742
-0.0267042
0.00104477
-0.027287
0.0010378
-0.0278533
0.00102387
-0.0283927
0.00100164
-0.0288972
0.000971477
-0.0293626
0.00093531
-0.029789
0.000895912
-0.0301808
0.000856092
-0.0305448
0.000818112
-0.0308884
0.000783206
-0.031218
0.000751528
-0.0315382
0.000722391
-0.0318509
0.00069454
-0.0321559
0.000666622
-0.0324509
0.000637461
-0.0327332
0.000606216
-0.0329996
0.000572451
-0.0332472
0.00053614
-0.0334741
0.00049758
-0.033679
0.000457237
-0.0338613
0.000415657
-0.0340214
0.00037344
-0.0341599
0.000331221
-0.0342778
0.000289617
-0.0343762
0.000249157
-0.0344564
0.000210274
-0.0345196
0.000173238
-0.0345669
0.000138181
-0.0345993
0.000105084
-0.0346178
7.37611e-05
-0.0346226
4.36741e-05
-0.0346139
1.40844e-05
-0.0345929
-1.35128e-05
-0.0345583
-4.2107e-05
-0.0345096
-7.13855e-05
-0.0344464
-0.000101653
-0.034368
-0.00013326
-0.0342739
-0.000166464
-0.0341634
-0.000201429
-0.0340361
-0.000238246
-0.0338913
-0.000276939
-0.0337283
-0.000317471
-0.0335463
-0.000359719
-0.033344
-0.000403484
-0.0331204
-0.000448532
-0.0328742
-0.000494606
-0.0326044
-0.000541388
-0.0323102
-0.000588526
-0.0319914
-0.000635691
-0.031648
-0.000682603
-0.0312805
-0.000729026
-0.0308896
-0.000774814
-0.0304762
-0.000819926
-0.030041
-0.000864419
-0.0295848
-0.000908442
-0.029108
-0.000952199
-0.028611
-0.00099587
-0.028094
-0.00103957
-0.0275569
-0.00108347
-0.0269997
-0.00112769
-0.0264224
-0.00117232
-0.0258249
-0.00121753
-0.0252069
-0.00126355
-0.0245676
-0.00131081
-0.0239064
-0.00135961
-0.0232221
-0.0014104
-0.0225136
-0.00146326
-0.0217801
-0.00151781
-0.0210214
-0.00157298
-0.0202376
-0.00162691
-0.0194304
-0.00167692
-0.0186022
-0.00172004
-0.0177571
-0.00175322
-0.0168998
-0.00177436
-0.0160367
-0.00178287
-0.0151738
-0.0017795
-0.0143168
-0.00176696
-0.0134693
-0.00174982
-0.0126336
-0.00173415
-0.011808
-0.00172491
-0.0109881
-0.00172637
-0.0101658
-0.0017412
-0.00933371
-0.00176947
-0.00848156
-0.0018112
-0.00760148
-0.00186366
-0.00668556
-0.0019245
-0.00572738
-0.00199148
-0.00472244
-0.00206242
-0.00366842
-0.0021353
-0.00256557
-0.00220835
-0.00141745
-0.00227884
-0.000232333
-0.00234136
0.000975374
-0.00238756
0.00218684
-0.00240855
0.00338059
-0.00239844
0.00454294
-0.00236588
0.00567658
-0.00233768
0.00680768
-0.00236109
0.00798564
-0.00249362
0.00928076
-0.00277924
0.0107725
-0.00321446
0.0125384
-0.00370977
0.01464
-0.0040689
0.0170884
-0.00403528
0.0198024
-0.00349189
0.0224504
-0.00260469
0.0245588
-0.00174916
0.0258749
-0.00121298
0.026422
-0.000920913
0.0263481
-0.000754875
0.0258951
-0.000707119
0.0253613
-0.000819379
0.0250135
-0.00110716
0.0250328
-0.00153202
0.025476
-0.00199822
0.0262878
-0.00239568
0.0273829
-0.00267397
0.0286749
-0.00281695
0.0300907
-0.00283432
0.0315679
-0.00275045
0.0330499
-0.0025988
0.034485
-0.00241672
0.0358339
-0.00223924
0.0370754
-0.00209233
0.0382086
-0.00198854
0.0392519
-0.0019301
0.0402356
-0.00191189
0.0411936
-0.00192401
0.0421546
-0.00195372
0.0431379
-0.00198774
0.0441517
-0.00201487
0.0451955
-0.00202714
0.0462614
-0.00202056
0.0473372
-0.00199481
0.0484083
-0.00195238
0.0494601
-0.0018974
0.0504795
-0.00183453
0.0514564
-0.00176813
0.0523842
-0.00170181
0.0532599
-0.00163833
0.0540842
-0.00157964
0.0548604
-0.00152704
0.0555941
-0.00148123
0.0562924
-0.0014425
0.0569627
-0.00141071
0.0576128
-0.00138545
0.05825
-0.0013661
0.0588807
-0.00135197
0.0595107
-0.00134243
0.0601448
-0.0013369
0.0607868
-0.00133482
0.061439
-0.00133555
0.0621026
-0.00133818
0.062777
-0.00134145
0.0634601
-0.00134369
0.0641476
-0.00134293
0.064834
-0.00133703
0.0655123
-0.00132397
0.0661749
-0.00130219
0.0668142
-0.001271
0.0674239
-0.00123111
0.0680003
-0.00118509
0.0685436
-0.0011375
0.0690588
-0.00109442
0.0695554
-0.00106228
0.0700461
-0.00104611
0.0705436
-0.00104767
0.0710578
-0.00106419
0.071593
-0.00108834
0.0721463
-0.00110961
0.0727086
-0.00111702
0.0732669
-0.00110222
0.0738078
-0.00106228
0.0743211
-0.00100113
0.0748024
-0.000928825
0.0752543
-0.000858329
0.0756833
-0.000800452
0.0760955
-0.000758843
0.0764905
-0.000727818
0.0768586
-0.000695153
0.0771827
-0.000649507
0.0774457
-0.000588434
0.0776386
-0.000521044
0.0777636
-0.000461896
0.0778285
-0.000419391
0.0778382
-0.000388265
0.0777903
-0.000355032
0.0776808
-0.000310633
0.0775191
-0.000265184
0.077341
-0.000250364
0.0772098
-0.000303929
0.0772092
-0.000443987
0.0774361
-0.000640488
0.0779938
-0.000812338
0.0788814
-0.000859273
0.079915
-0.000722873
0.0807983
-0.0004692
0.081382
-0.000195398
0.0816703
3.72327e-05
0.0817355
0.000212976
0.0816667
0.000334108
0.0815289
0.000418041
0.0813632
0.000478738
0.0812008
0.000519895
0.0810713
0.00054252
0.0810042
0.000548129
0.0810272
0.000539998
0.0811618
0.000523546
0.0814209
0.000505598
0.081806
0.000493336
0.0823062
0.000493148
0.082896
0.000509363
0.0835354
0.000543196
0.0841701
0.000593086
0.0847384
0.000654652
0.0851906
0.000710865
0.0854827
0.000753076
0.0855843
0.000773897
0.085481
0.000772698
0.085175
0.000755637
0.0846856
0.000732685
0.084052
0.000712414
0.0833213
0.000696194
0.0825408
0.00067989
0.0817553
0.000652509
0.0810148
0.000595633
0.0803763
0.000498244
0.0798893
0.000359953
0.0795865
0.000189145
0.0794737
7.14459e-06
0.0795256
-0.000154073
0.079709
-0.000289
0.0799803
-0.000383627
0.0803002
-0.000439362
0.0806379
-0.00046413
0.0809736
-0.000468672
0.081297
-0.000462958
0.0816047
-0.000454258
0.0818974
-0.000446817
0.082178
-0.000442443
0.0824499
-0.000441349
0.0827159
-0.000442896
0.0829783
-0.00044611
0.0832379
-0.000450002
0.0834952
-0.00045374
0.0837496
-0.00045673
0.0840004
-0.000458603
0.0842468
-0.000459169
0.0844879
-0.000458337
0.0847229
-0.000456053
0.0849509
-0.000452267
0.0851711
-0.000446919
0.0853826
-0.000439956
0.0855845
-0.000431344
0.0857761
-0.000421086
0.0859564
-0.000409233
0.0861247
-0.000395879
0.0862804
-0.000381166
0.0864228
-0.000365267
0.0865517
-0.000348376
0.0866668
-0.000330692
0.0867679
-0.000312405
0.0868554
-0.000293687
0.0869293
-0.000274683
0.0869901
-0.000255506
0.0870382
-0.000236235
0.087074
-0.000216928
0.0870982
-0.000197616
0.0871112
-0.000178312
0.0871136
-0.000159018
0.0871061
-0.00013973
0.0870891
-0.000120429
0.0870633
-0.000101101
0.0870295
-8.17281e-05
0.0869884
-6.22725e-05
0.0869411
-4.27626e-05
0.0868891
-2.3076e-05
0.086834
-2.90049e-06
0.0867799
1.6249e-05
0.0867294
3.5437e-05
0.0866834
5.44326e-05
0.0866377
7.41093e-05
0.0865881
9.42769e-05
0.0865336
0.000114843
0.086474
0.000135755
0.0864092
0.000156988
0.0863388
0.000178533
0.0862625
0.000200382
0.08618
0.00022252
0.0860907
0.000244923
0.0859942
0.000267555
0.0858902
0.000290364
0.085778
0.000313292
0.0856572
0.000336265
0.0855275
0.000359199
0.0853885
0.000382
0.0852399
0.000404568
0.0850815
0.000426795
0.0849132
0.000448575
0.084735
0.000469803
0.084547
0.000490382
0.0843493
0.000510227
0.0841421
0.00052927
0.0839259
0.000547465
0.0837009
0.000564789
0.0834676
0.000581246
0.0832263
0.000596869
0.0829776
0.000611714
0.0827216
0.00062586
0.0824588
0.000639403
0.0821894
0.000652452
0.0819134
0.000665119
0.0816308
0.000677515
0.0813417
0.000689742
0.0810455
0.000701889
0.0807419
0.00071402
0.0804301
0.000726177
0.0801094
0.000738359
0.0797787
0.000750525
0.0794371
0.000762574
0.079084
0.000774339
0.078719
0.000785591
0.0783428
0.000796069
0.0779572
0.000805534
0.0775648
0.000813858
0.0771693
0.000821136
0.0767736
0.000827785
0.0763793
0.000834564
0.0759857
0.000842419
0.0755899
0.000852154
0.0751876
0.00086414
0.0747748
0.000878175
0.0743493
0.000893622
0.0739116
0.000909816
0.0734642
0.000926604
0.0730099
0.000944953
0.0725494
0.000966955
0.0720797
0.000995166
0.0715937
0.00103166
0.0710821
0.00107705
0.0705363
0.00113004
0.069951
0.00118796
0.0693255
0.00124775
0.0686633
0.00130722
0.0679705
0.00136551
0.0672541
0.00142292
0.06652
0.00147995
0.0657716
0.00153614
0.0650089
0.00158934
0.0642278
0.00163537
0.0634242
0.00166801
0.0625977
0.00168025
0.0617544
0.00166684
0.0609102
0.00162647
0.0600897
0.00156292
0.0593199
0.00148512
0.0586212
0.00140607
0.0579978
0.00134064
0.0574337
0.00130202
0.0568969
0.00129769
0.0563491
0.00132589
0.0557581
0.00137582
0.0551059
0.00143123
0.0543917
0.00147595
0.0536286
0.00149847
0.0528377
0.00149407
0.052041
0.00146443
0.051257
0.00141576
0.0504992
0.00135662
0.0497761
0.00129619
0.049092
0.00124298
0.0484464
0.00120404
0.047833
0.0011841
0.0472393
0.00118449
0.0466491
0.0012027
0.0460463
0.0012329
0.0454199
0.00126749
0.0447658
0.00129945
0.0440871
0.00132411
0.0433903
0.00134004
0.0426821
0.00134826
0.0419672
0.00135077
0.0412485
0.00134915
0.0405278
0.00134401
0.0398076
0.00133527
0.039091
0.00132282
0.0383816
0.00130707
0.0376824
0.00128903
0.0369953
0.00127003
0.0363211
0.00125132
0.0356595
0.00123378
0.0350095
0.00121783
0.03437
0.00120349
0.0337402
0.00119054
0.0331193
0.00117869
0.0325067
0.00116766
0.0319023
0.00115729
0.0313057
0.00114749
0.0307164
0.00113826
0.0301337
0.00112962
0.0295566
0.00112159
0.0289833
0.00111421
0.0284119
0.0011076
0.0278402
0.0011022
0.0272654
0.00109898
0.0266845
0.00109945
0.0260938
0.00110512
0.0254886
0.00111674
0.0248639
0.0011338
0.0242153
0.00115469
0.0235392
0.00117744
0.0228338
0.00120028
0.0220989
0.00122183
0.021336
0.00124094
0.0205479
0.00125657
0.0197385
0.0012679
0.0189119
0.0012743
0.0180732
0.00127503
0.0172283
0.0012689
0.0163848
0.00125406
0.0155525
0.00122812
0.0147433
0.00118843
0.0139706
0.00113243
0.0132493
0.00105808
0.0125942
0.00096443
0.0120189
0.000852105
0.0115347
0.00072366
0.0111492
0.000583618
0.0108654
0.000438075
0.0106817
0.000293835
0.0105943
0.000158743
0.0106079
4.13601e-05
0.0107413
-5.45084e-05
0.0109955
-0.00011919
0.011339
-0.000149736
0.0117244
-0.000146962
0.0121088
-0.000112425
0.0124592
-4.7795e-05
0.0127533
4.13522e-05
0.0129794
0.000146031
0.0131313
0.000259261
0.0132064
0.000375408
0.0132036
0.000491337
0.0131234
0.000603284
0.0129681
0.000708296
0.0127405
0.000803941
0.0124433
0.000888384
0.0120784
0.000960622
0.0116473
0.00102051
0.011151
0.0010685
0.0105904
0.00110522
0.00996674
0.00113081
0.00928251
0.00114433
0.00854238
0.00114375
0.00775378
0.00112615
0.00692745
0.00108803
0.00607884
0.00102646
0.0052249
0.000941213
0.0043854
0.00083624
0.00357725
0.000718841
0.00282485
0.000610081
0.00212642
0.000554905
0.00144563
0.000604942
0.000751419
0.000730625
0.000886189
-0.000906579
0.00243822
-0.00152721
0.00155959
-0.00225023
0.00172073
-0.00310662
0.00195316
-0.00404483
0.00208692
-0.00503271
0.00218603
-0.00605544
0.00228328
-0.00709566
0.00236896
-0.00813249
0.00242888
-0.00914552
0.00245594
-0.0101186
0.00244991
-0.0110419
0.00241509
-0.0119116
0.00235877
-0.0127291
0.00228943
-0.0134995
0.00221505
-0.0142301
0.00214213
-0.0149288
0.00207509
-0.0156025
0.00201614
-0.0162566
0.00196561
-0.0168947
0.00192243
-0.0175186
0.00188474
-0.0181288
0.00185048
-0.0187251
0.00181786
-0.0193073
0.00178571
-0.019876
0.00175366
-0.0204325
0.00172217
-0.0209795
0.00169233
-0.0215205
0.00166554
-0.0220593
0.00164315
-0.0225994
0.00162604
-0.0231431
0.00161417
-0.0236902
0.00160628
-0.0242377
0.00159971
-0.0247794
0.00159064
-0.0253066
0.00157467
-0.0258096
0.00154779
-0.0262794
0.00150756
-0.0267095
0.00145402
-0.0270978
0.00138995
-0.0274467
0.00132036
-0.0277626
0.00125117
-0.0280544
0.00118772
-0.0283319
0.00113358
-0.0286037
0.0010899
-0.0288761
0.0010556
-0.0291524
0.00102791
-0.0294333
0.00100331
-0.0297171
0.000978309
-0.0300006
0.000950127
-0.0302801
0.000916987
-0.0305521
0.000878166
-0.0308135
0.000833824
-0.0310621
0.000784729
-0.0312964
0.000731953
-0.0315158
0.000676616
-0.0317199
0.000619733
-0.0319086
0.000562159
-0.032082
0.000504609
-0.03224
0.000447636
-0.0323825
0.000391666
-0.0325092
0.00033698
-0.0326197
0.000283708
-0.0327134
0.000231854
-0.0327897
0.000181383
-0.0328479
0.000132009
-0.0328875
8.33005e-05
-0.0329087
3.52815e-05
-0.0329087
-1.35136e-05
-0.0328885
-6.23119e-05
-0.0328484
-0.000111495
-0.0327887
-0.000161403
-0.0327098
-0.000212147
-0.0326124
-0.000263884
-0.032497
-0.000316838
-0.0323639
-0.000371309
-0.0322132
-0.00042764
-0.0320445
-0.00048616
-0.0318571
-0.000547101
-0.0316501
-0.000610536
-0.0314223
-0.00067632
-0.0311728
-0.000744059
-0.0309011
-0.000813102
-0.030607
-0.000882633
-0.0302909
-0.000951774
-0.0299538
-0.0010197
-0.0295971
-0.00108578
-0.0292223
-0.00114962
-0.0288311
-0.00121114
-0.0284249
-0.00127054
-0.0280052
-0.00132822
-0.0275727
-0.00138469
-0.0271281
-0.00144044
-0.0266718
-0.0014959
-0.0262038
-0.00155144
-0.0257242
-0.0016073
-0.0252328
-0.00166369
-0.0247295
-0.00172081
-0.0242141
-0.00177896
-0.0236864
-0.00183851
-0.0231461
-0.00189996
-0.0225928
-0.00196363
-0.0220264
-0.00202968
-0.0214464
-0.00209788
-0.0208518
-0.0021675
-0.0202417
-0.00223708
-0.019614
-0.00230457
-0.0189666
-0.00236752
-0.0182965
-0.00242332
-0.0176009
-0.00246991
-0.0168776
-0.00250621
-0.0161245
-0.00253252
-0.0153406
-0.00255089
-0.0145253
-0.0025651
-0.0136794
-0.00258004
-0.012804
-0.00260038
-0.0119
-0.00263033
-0.0109687
-0.00267253
-0.0100101
-0.00272809
-0.00902514
-0.00279614
-0.00801466
-0.00287414
-0.00698047
-0.00295869
-0.00592585
-0.0030461
-0.00485596
-0.00313231
-0.0037778
-0.00321347
-0.00269946
-0.00328668
-0.00163033
-0.00334797
-0.000580125
-0.00339157
0.000439703
-0.00340739
0.00141408
-0.00338293
0.00232301
-0.00330737
0.00314162
-0.00318448
0.00384924
-0.00304531
0.00444225
-0.0029541
0.00494423
-0.0029956
0.00540539
-0.00324041
0.00588991
-0.00369898
0.00646543
-0.00428529
0.00720848
-0.00481196
0.00820591
-0.00503271
0.00948378
-0.00476976
0.0109299
-0.00405084
0.0123022
-0.00312145
0.0133808
-0.00229157
0.0141908
-0.00173089
0.0149279
-0.00149198
0.0157914
-0.00157064
0.0168714
-0.0018994
0.018122
-0.0023577
0.0194307
-0.0028408
0.0207064
-0.00327389
0.0219126
-0.00360188
0.0230496
-0.00381094
0.0241405
-0.00390792
0.0252152
-0.00390902
0.0262987
-0.00383392
0.0274051
-0.00370514
0.0285363
-0.00354793
0.029686
-0.00338893
0.0308443
-0.00325063
0.0320028
-0.00314714
0.0331561
-0.00308337
0.0343005
-0.00305624
0.0354335
-0.00305709
0.0365542
-0.00307434
0.0376625
-0.00309605
0.0387596
-0.00311197
0.0398473
-0.00311485
0.0409277
-0.00310094
0.0420024
-0.00306956
0.0430724
-0.00302238
0.0441374
-0.00296244
0.0451963
-0.00289342
0.0462472
-0.00281902
0.047288
-0.00274256
0.0483165
-0.00266687
0.0493311
-0.00259427
0.0503307
-0.00252658
0.0513147
-0.0024652
0.0522833
-0.00241112
0.0532375
-0.00236492
0.0541788
-0.0023268
0.0551092
-0.00229649
0.0560306
-0.00227332
0.0569443
-0.00225614
0.0578507
-0.00224335
0.0587488
-0.00223286
0.0596355
-0.00222224
0.0605061
-0.00220878
0.0613543
-0.00218969
0.062173
-0.00216243
0.0629551
-0.00212499
0.0636943
-0.00207626
0.0643866
-0.00201625
0.0650309
-0.00194643
0.0656297
-0.00186981
0.0661896
-0.00179101
0.0667205
-0.00171601
0.0672345
-0.00165149
0.0677437
-0.00160366
0.0682581
-0.00157665
0.0687831
-0.00157116
0.0693191
-0.0015836
0.0698614
-0.00160651
0.070403
-0.00162993
0.0709369
-0.00164355
0.071459
-0.00163906
0.0719688
-0.00161205
0.0724699
-0.00156338
0.0729682
-0.00149945
0.0734704
-0.001431
0.0739819
-0.00136979
0.0745047
-0.00132328
0.0750346
-0.00128875
0.0755566
-0.00124987
0.0760406
-0.00117916
0.0764392
-0.0010481
0.0766928
-0.000841996
0.0767434
-0.000571687
0.0765542
-0.000272664
0.0761235
1.13159e-05
0.0754911
0.000244139
0.0747376
0.000398437
0.0739704
0.000456551
0.0733038
0.000401451
0.0728299
0.000223561
0.072585
-5.90592e-05
0.0725406
-0.000399573
0.0726301
-0.000729984
0.0727904
-0.000972681
0.0729842
-0.00105302
0.0731999
-0.000938581
0.0734187
-0.000688059
0.073624
-0.000400633
0.0738036
-0.000142382
0.0739633
5.32517e-05
0.0740985
0.00019893
0.0742023
0.000314239
0.0742707
0.000410337
0.0743044
0.000486153
0.0743088
0.000538126
0.0742928
0.000564164
0.0742674
0.000565434
0.0742438
0.00054712
0.0742326
0.000516756
0.0742438
0.000482187
0.0742871
0.000449819
0.0743729
0.00042358
0.0745115
0.000404551
0.0747136
0.000391015
0.0749891
0.000379178
0.0753358
0.000364158
0.07574
0.000348826
0.0761853
0.000328613
0.0766545
0.000303501
0.0771339
0.000276271
0.077614
0.000252553
0.078089
0.000237489
0.0785551
0.000230096
0.0790089
0.000225997
0.0794466
0.000214881
0.0798624
0.000179795
0.0802526
0.000108104
0.0806108
1.75132e-06
0.0809369
-0.000137009
0.0812188
-0.000274743
0.0814581
-0.000393364
0.0816519
-0.000482819
0.0818079
-0.000539634
0.0819377
-0.00056915
0.0820539
-0.00058036
0.0821673
-0.000582003
0.0822848
-0.000580449
0.0824098
-0.000579287
0.082543
-0.000580009
0.0826834
-0.000582901
0.0828298
-0.000587686
0.0829807
-0.000593848
0.0831354
-0.000600767
0.0832932
-0.000607803
0.0834538
-0.000614378
0.0836171
-0.000620041
0.083783
-0.000624488
0.0839514
-0.000627526
0.0841221
-0.000629017
0.0842948
-0.000628822
0.0844693
-0.000626766
0.084645
-0.000622638
0.0848213
-0.000616215
0.0849972
-0.000607293
0.0851719
-0.000595723
0.0853441
-0.000581439
0.0855127
-0.000564472
0.0856765
-0.000544954
0.0858343
-0.000523105
0.0859852
-0.000499221
0.0861281
-0.000473643
0.0862624
-0.000446726
0.0863876
-0.000418814
0.0865031
-0.000390211
0.0866087
-0.000361169
0.0867044
-0.000331879
0.0867899
-0.000302474
0.0868654
-0.000273039
0.0869307