/*--------------------------------*- C++ -*----------------------------------*\
| =========                 |                                                 |
| \\      /  F ield         | OpenFOAM: The Open Source CFD Toolbox           |
|  \\    /   O peration     | Version:  v2006                                 |
|   \\  /    A nd           | Website:  www.openfoam.com                      |
|    \\/     M anipulation  |                                                 |
\*---------------------------------------------------------------------------*/
FoamFile
{
    version     2.0;
    format      ascii;
    class       volScalarField;
    location    "7.25";
    object      r;
}
// * * * * * * * * * * * * * * * * * * * * * * * * * * * * * * * * * * * * * //

dimensions      [1 2 0 0 0 0 0];


internalField   nonuniform List<scalar> 
500
(
1.55998e-54
7.10515e-54
2.13429e-53
5.79949e-53
1.52261e-52
3.94141e-52
1.013e-51
2.59143e-51
6.6044e-51
1.67737e-50
4.24598e-50
1.07125e-49
2.69385e-49
6.75185e-49
1.68669e-48
4.19961e-48
1.04217e-47
2.57762e-47
6.354e-47
1.56106e-46
3.82235e-46
9.32774e-46
2.26858e-45
5.49867e-45
1.32827e-44
3.19765e-44
7.67168e-44
1.83426e-43
4.37057e-43
1.03781e-42
2.45581e-42
5.79117e-42
1.36091e-41
3.18696e-41
7.43714e-41
1.72947e-40
4.00771e-40
9.25441e-40
2.12945e-39
4.88257e-39
1.11555e-38
2.53969e-38
5.76137e-38
1.30232e-37
2.93326e-37
6.583e-37
1.47208e-36
3.27999e-36
7.28181e-36
1.61076e-35
3.55012e-35
7.79599e-35
1.70574e-34
3.71846e-34
8.07643e-34
1.74774e-33
3.7682e-33
8.09443e-33
1.73233e-32
3.6937e-32
7.84652e-32
1.66063e-31
3.50146e-31
7.35526e-31
1.53928e-30
3.20927e-30
6.6659e-30
1.37934e-29
2.84344e-29
5.83945e-29
1.19468e-28
2.43488e-28
4.94369e-28
9.99924e-28
2.01476e-27
4.04404e-27
8.08614e-27
1.61064e-26
3.19583e-26
6.31677e-26
1.24374e-25
2.4394e-25
4.76601e-25
9.27557e-25
1.79821e-24
3.47254e-24
6.6798e-24
1.27992e-23
2.44291e-23
4.64441e-23
8.79532e-23
1.65909e-22
3.11731e-22
5.83421e-22
1.08761e-21
2.01954e-21
3.73523e-21
6.88122e-21
1.26269e-20
2.30784e-20
4.20139e-20
7.61829e-20
1.37593e-19
2.4752e-19
4.435e-19
7.91495e-19
1.40693e-18
2.49094e-18
4.39258e-18
7.71511e-18
1.34967e-17
2.35167e-17
4.0812e-17
7.05438e-17
1.21448e-16
2.08247e-16
3.55654e-16
6.04969e-16
1.02493e-15
1.72947e-15
2.90661e-15
4.86537e-15
8.11146e-15
1.3469e-14
2.22756e-14
3.66922e-14
6.01968e-14
9.83617e-14
1.60078e-13
2.59473e-13
4.18895e-13
6.73554e-13
1.07868e-12
1.72056e-12
2.73338e-12
4.325e-12
6.81598e-12
1.06986e-11
1.67256e-11
2.60432e-11
4.03892e-11
6.23873e-11
9.59815e-11
1.47075e-10
2.24468e-10
3.41219e-10
5.16627e-10
7.79088e-10
1.17021e-09
1.75069e-09
2.60871e-09
3.87181e-09
5.72369e-09
8.42778e-09
1.23603e-08
1.8056e-08
2.62721e-08
3.80761e-08
5.49661e-08
7.9036e-08
1.13199e-07
1.61493e-07
2.29488e-07
3.24834e-07
4.57996e-07
6.43226e-07
8.99851e-07
1.25396e-06
1.74064e-06
2.40683e-06
3.31511e-06
4.54851e-06
6.21673e-06
8.4641e-06
1.14796e-05
1.55098e-05
2.08748e-05
2.79882e-05
3.73827e-05
4.97408e-05
6.59333e-05
8.70664e-05
0.000114539
0.000150113
0.000195998
0.000254948
0.000330391
0.000426562
0.000548681
0.000703146
0.000897766
0.00114203
0.00144742
0.00182776
0.00229961
0.00288275
0.00360067
0.00448111
0.00555676
0.00686589
0.00845309
0.0103701
0.0126768
0.0154418
0.0187436
0.0226716
0.0273271
0.032824
0.0392902
0.0468681
0.0557158
0.0660077
0.0779351
0.0917067
0.107549
0.125706
0.14644
0.170029
0.196769
0.22697
0.260955
0.29906
0.341629
0.389015
0.441571
0.499652
0.563609
0.633785
0.710509
0.794093
0.884829
0.982979
1.08878
1.20241
1.32404
1.45376
1.59164
1.73767
1.89181
2.05393
2.22386
2.40137
2.58614
2.77784
2.97602
3.18022
3.3899
3.60447
3.82331
4.04576
4.2711
4.49862
4.72756
4.95716
5.18665
5.41527
5.64227
5.86691
6.08846
6.30625
6.51962
6.72796
6.93071
7.12735
7.3174
7.50046
7.67615
7.84417
8.00425
8.15619
8.29982
8.43503
8.56174
8.67991
8.78954
8.89064
8.98325
9.06744
9.14327
9.21083
9.27018
9.32142
9.36459
9.39978
9.42701
9.44633
9.45773
9.46123
9.45678
9.44434
9.42386
9.39525
9.35842
9.31327
9.25968
9.19755
9.12677
9.04722
8.95884
8.86153
8.75526
8.63999
8.51575
8.38259
8.2406
8.08992
7.93074
7.76331
7.58792
7.40494
7.21475
7.01783
6.81469
6.60589
6.39204
6.17379
5.95183
5.72688
5.49966
5.27095
5.04151
4.81212
4.58353
4.3565
4.13178
3.91006
3.69204
3.47834
3.26957
3.06627
2.86895
2.67803
2.49392
2.31693
2.14734
1.98535
1.83111
1.68472
1.54621
1.41558
1.29275
1.17763
1.07007
0.969876
0.876841
0.790716
0.711235
0.638109
0.571035
0.5097
0.453783
0.40296
0.356905
0.315298
0.27782
0.244163
0.214028
0.187125
0.163179
0.141929
0.123125
0.106535
0.0919416
0.0791411
0.0679459
0.0581832
0.049694
0.0423335
0.0359699
0.0304838
0.0257678
0.0217251
0.0182694
0.0153239
0.0128202
0.010698
0.0089042
0.00739221
0.00612127
0.00505591
0.00416532
0.00342287
0.00280562
0.00229385
0.00187068
0.00152173
0.00123475
0.000999365
0.000806825
0.000649749
0.000521944
0.000418233
0.000334295
0.000266539
0.00021199
0.000168188
0.000133107
0.000105084
8.27573e-05
6.50145e-05
5.09509e-05
3.98322e-05
3.10642e-05
2.41674e-05
1.87564e-05
1.45218e-05
1.12161e-05
8.64216e-06
6.64296e-06
5.09404e-06
3.89697e-06
2.97413e-06
2.26445e-06
1.72004e-06
1.30343e-06
9.85414e-07
7.4324e-07
5.59273e-07
4.19861e-07
3.14468e-07
2.34985e-07
1.75186e-07
1.30303e-07
9.6697e-08
7.15936e-08
5.28861e-08
3.8978e-08
2.86621e-08
2.10287e-08
1.53934e-08
1.12429e-08
8.193e-09
5.95711e-09
4.32172e-09
3.12831e-09
2.25943e-09
1.62826e-09
1.17082e-09
8.40038e-10
6.01387e-10
4.29593e-10
3.06205e-10
2.17782e-10
1.54557e-10
1.0945e-10
7.73401e-11
5.4533e-11
3.83691e-11
2.69386e-11
1.88731e-11
1.31943e-11
9.20471e-12
6.40789e-12
4.45148e-12
3.0859e-12
2.13476e-12
1.4737e-12
1.01523e-12
6.97939e-13
4.7882e-13
3.27816e-13
2.23972e-13
1.5271e-13
1.03909e-13
7.05588e-14
4.78153e-14
3.23372e-14
2.18252e-14
1.47008e-14
9.88213e-15
6.62963e-15
4.43876e-15
2.96598e-15
1.97794e-15
1.31643e-15
8.7443e-16
5.79693e-16
3.83548e-16
2.53274e-16
1.66922e-16
1.09798e-16
7.20829e-17
4.72314e-17
3.08882e-17
2.01613e-17
1.31345e-17
8.54041e-18
5.54264e-18
3.59029e-18
2.32124e-18
1.49793e-18
9.64819e-19
6.20276e-19
3.98026e-19
2.54937e-19
1.62994e-19
1.04055e-19
6.64567e-20
4.29608e-20
3.00621e-20
)
;

boundaryField
{
    right
    {
        type            zeroGradient;
    }
    left
    {
        type            inletOutlet;
        inletValue      uniform 0;
        value           uniform 0;
    }
    top
    {
        type            zeroGradient;
    }
    bottom
    {
        type            zeroGradient;
    }
    empty
    {
        type            empty;
    }
}


// ************************************************************************* //
