/*--------------------------------*- C++ -*----------------------------------*\
| =========                 |                                                 |
| \\      /  F ield         | OpenFOAM: The Open Source CFD Toolbox           |
|  \\    /   O peration     | Version:  v2006                                 |
|   \\  /    A nd           | Website:  www.openfoam.com                      |
|    \\/     M anipulation  |                                                 |
\*---------------------------------------------------------------------------*/
FoamFile
{
    version     2.0;
    format      ascii;
    class       volVectorField;
    location    "0";
    object      U;
}
// * * * * * * * * * * * * * * * * * * * * * * * * * * * * * * * * * * * * * //

dimensions      [0 1 -1 0 0 0 0];


internalField   nonuniform List<vector> 
20000
(
(1 2.50737e-12 0)
(1 7.1391e-12 0)
(1 1.21613e-11 0)
(1 1.77633e-11 0)
(1 2.38747e-11 0)
(1 3.05151e-11 0)
(1 3.77927e-11 0)
(1 4.58721e-11 0)
(1 5.49569e-11 0)
(1 6.52891e-11 0)
(1 7.71492e-11 0)
(1 9.08352e-11 0)
(1 1.06653e-10 0)
(1 1.24902e-10 0)
(1 1.45867e-10 0)
(1 1.69816e-10 0)
(1 1.96968e-10 0)
(1 2.27457e-10 0)
(1 2.61287e-10 0)
(1 2.98297e-10 0)
(1 3.38143e-10 0)
(1 3.80309e-10 0)
(1 4.24103e-10 0)
(1 4.68674e-10 0)
(1 5.13014e-10 0)
(1 5.55968e-10 0)
(1 5.96262e-10 0)
(1 6.3257e-10 0)
(1 6.63603e-10 0)
(1 6.88228e-10 0)
(1 7.05583e-10 0)
(1 7.15173e-10 0)
(1 7.16908e-10 0)
(1 7.11092e-10 0)
(1 6.98344e-10 0)
(1 6.79489e-10 0)
(1 6.55437e-10 0)
(1 6.27091e-10 0)
(1 5.95263e-10 0)
(1 5.60607e-10 0)
(1 5.23596e-10 0)
(1 4.84533e-10 0)
(1 4.43589e-10 0)
(1 4.00859e-10 0)
(1 3.56419e-10 0)
(1 3.10363e-10 0)
(1 2.62839e-10 0)
(1 2.14075e-10 0)
(1 1.64404e-10 0)
(1 1.14327e-10 0)
(1 6.45494e-11 0)
(1 1.59637e-11 0)
(1 -3.03839e-11 0)
(1 -7.33917e-11 0)
(1 -1.11811e-10 0)
(1 -1.43998e-10 0)
(1 -1.68474e-10 0)
(1 -1.84393e-10 0)
(1 -1.90403e-10 0)
(1 -1.85319e-10 0)
(1 -1.71467e-10 0)
(1 -1.57939e-10 0)
(1 -1.88e-10 0)
(1 -3.2085e-10 0)
(1 -5.69407e-10 0)
(1 -9.32115e-10 0)
(1 -1.41592e-09 0)
(1 -2.03698e-09 0)
(1 -2.8192e-09 0)
(1 -3.79398e-09 0)
(1 -5.00057e-09 0)
(1 -6.48639e-09 0)
(1 -8.3073e-09 0)
(1 -1.0529e-08 0)
(1 -1.32308e-08 0)
(1 -1.65091e-08 0)
(1 -2.04747e-08 0)
(1 -2.52352e-08 0)
(1 -3.08814e-08 0)
(1 -3.75308e-08 0)
(1 -4.54571e-08 0)
(1 -5.51404e-08 0)
(1 -6.67922e-08 0)
(1 -7.92573e-08 0)
(1 -8.99892e-08 0)
(1 -9.97841e-08 0)
(1 -1.21899e-07 0)
(1.00001 -1.77896e-07 0)
(1.00001 -2.49436e-07 0)
(1.00001 -2.12423e-07 0)
(1.00001 7.60454e-08 0)
(1.00001 4.80045e-07 0)
(1.00001 8.5286e-07 0)
(1.00001 1.12987e-06 0)
(1 1.31622e-06 0)
(1 1.43926e-06 0)
(1 1.52216e-06 0)
(0.999998 1.57918e-06 0)
(0.999995 1.61885e-06 0)
(0.999993 1.64759e-06 0)
(0.99999 1.67205e-06 0)
(0.999988 1.69978e-06 0)
(0.999985 1.73842e-06 0)
(0.999982 1.79364e-06 0)
(0.999979 1.86628e-06 0)
(0.999977 1.94951e-06 0)
(0.999974 2.0274e-06 0)
(0.999971 2.07629e-06 0)
(0.999968 2.06954e-06 0)
(0.999965 1.98488e-06 0)
(0.999962 1.81008e-06 0)
(0.999959 1.54595e-06 0)
(0.999956 1.20631e-06 0)
(0.999952 8.12206e-07 0)
(0.999949 3.85379e-07 0)
(0.999946 -5.49797e-08 0)
(0.999943 -4.92502e-07 0)
(0.99994 -9.11913e-07 0)
(0.999938 -1.29725e-06 0)
(0.999935 -1.63162e-06 0)
(0.999933 -1.89838e-06 0)
(0.999931 -2.08276e-06 0)
(0.99993 -2.17353e-06 0)
(0.999929 -2.16446e-06 0)
(0.999928 -2.05621e-06 0)
(0.999928 -1.86129e-06 0)
(0.999927 -1.6145e-06 0)
(0.999928 -1.38839e-06 0)
(0.999928 -1.2374e-06 0)
(0.99993 -1.1606e-06 0)
(0.999933 -1.13626e-06 0)
(0.999937 -1.12958e-06 0)
(0.999943 -1.09313e-06 0)
(0.99995 -9.69809e-07 0)
(0.999957 -6.97572e-07 0)
(0.999965 -2.175e-07 0)
(0.999972 5.14754e-07 0)
(0.999978 1.50718e-06 0)
(0.999983 2.69826e-06 0)
(0.999985 3.88172e-06 0)
(0.999984 4.69815e-06 0)
(0.999983 5.13011e-06 0)
(0.999981 5.27046e-06 0)
(0.999978 5.19701e-06 0)
(0.999975 4.94949e-06 0)
(0.999971 4.54544e-06 0)
(0.999967 3.99668e-06 0)
(0.999963 3.31747e-06 0)
(0.999959 2.52716e-06 0)
(0.999954 1.65127e-06 0)
(0.999949 7.21772e-07 0)
(0.999944 -2.22917e-07 0)
(0.999939 -1.14047e-06 0)
(0.999934 -1.9877e-06 0)
(0.99993 -2.72415e-06 0)
(0.999926 -3.31569e-06 0)
(0.999922 -3.73774e-06 0)
(0.999919 -3.97763e-06 0)
(0.999917 -4.0356e-06 0)
(0.999915 -3.92421e-06 0)
(0.999914 -3.66514e-06 0)
(0.999913 -3.28805e-06 0)
(0.999912 -2.83276e-06 0)
(0.999912 -2.35251e-06 0)
(0.999912 -1.92841e-06 0)
(0.999913 -1.61006e-06 0)
(0.999915 -1.39304e-06 0)
(0.999917 -1.25533e-06 0)
(0.999921 -1.16905e-06 0)
(0.999925 -1.10447e-06 0)
(0.99993 -1.03625e-06 0)
(0.999934 -9.5019e-07 0)
(0.999939 -8.46328e-07 0)
(0.999944 -7.36316e-07 0)
(0.999948 -6.35886e-07 0)
(0.999951 -5.5658e-07 0)
(0.999954 -5.0185e-07 0)
(0.999957 -4.68556e-07 0)
(0.99996 -4.50531e-07 0)
(0.999963 -4.41226e-07 0)
(0.999966 -4.35071e-07 0)
(0.999969 -4.28081e-07 0)
(0.999972 -4.17903e-07 0)
(0.999974 -4.03532e-07 0)
(0.999977 -3.84918e-07 0)
(0.99998 -3.62618e-07 0)
(0.999982 -3.37499e-07 0)
(0.999984 -3.10529e-07 0)
(0.999986 -2.82642e-07 0)
(0.999988 -2.54651e-07 0)
(0.999989 -2.27218e-07 0)
(0.999991 -2.0084e-07 0)
(0.999992 -1.75861e-07 0)
(0.999993 -1.52483e-07 0)
(0.999994 -1.30798e-07 0)
(0.999995 -1.10783e-07 0)
(0.999996 -9.24451e-08 0)
(0.999996 -7.52345e-08 0)
(0.999997 -6.10408e-08 0)
(0.999997 -3.93788e-08 0)
(1 4.7593e-12 0)
(1 1.27504e-11 0)
(1 2.05901e-11 0)
(1 2.87018e-11 0)
(1 3.69973e-11 0)
(1 4.55174e-11 0)
(1 5.43877e-11 0)
(1 6.3766e-11 0)
(1 7.38196e-11 0)
(1 8.47175e-11 0)
(1 9.66296e-11 0)
(1 1.0972e-10 0)
(1 1.24167e-10 0)
(1 1.40151e-10 0)
(1 1.57836e-10 0)
(1 1.7735e-10 0)
(1 1.98769e-10 0)
(1 2.22112e-10 0)
(1 2.47352e-10 0)
(1 2.74406e-10 0)
(1 3.0314e-10 0)
(1 3.33359e-10 0)
(1 3.64786e-10 0)
(1 3.97073e-10 0)
(1 4.29816e-10 0)
(1 4.62591e-10 0)
(1 4.94995e-10 0)
(1 5.26705e-10 0)
(1 5.57528e-10 0)
(1 5.87442e-10 0)
(1 6.16624e-10 0)
(1 6.45457e-10 0)
(1 6.74492e-10 0)
(1 7.04406e-10 0)
(1 7.35935e-10 0)
(1 7.69792e-10 0)
(1 8.06608e-10 0)
(1 8.4688e-10 0)
(1 8.90934e-10 0)
(1 9.38919e-10 0)
(1 9.90834e-10 0)
(1 1.04655e-09 0)
(1 1.10584e-09 0)
(1 1.16838e-09 0)
(1 1.23371e-09 0)
(1 1.30122e-09 0)
(1 1.37008e-09 0)
(1 1.43921e-09 0)
(1 1.50724e-09 0)
(1 1.57245e-09 5.9257e-43)
(1 1.63275e-09 6.38959e-43)
(1 1.68549e-09 0)
(1 1.7274e-09 0)
(1 1.75448e-09 0)
(1 1.76206e-09 0)
(1 1.74483e-09 0)
(1 1.69629e-09 0)
(1 1.60872e-09 0)
(1 1.47436e-09 0)
(1 1.28389e-09 0)
(1 1.0244e-09 0)
(1 6.77832e-10 0)
(1 1.95933e-10 0)
(1 -4.87083e-10 0)
(1 -1.40677e-09 0)
(1 -2.59855e-09 0)
(1 -4.11291e-09 0)
(1 -6.01505e-09 0)
(1 -8.38598e-09 0)
(1 -1.13252e-08 0)
(1 -1.49532e-08 0)
(1 -1.94139e-08 0)
(1 -2.48769e-08 0)
(1 -3.15426e-08 0)
(1 -3.96485e-08 0)
(1 -4.94735e-08 0)
(1 -6.13354e-08 0)
(1 -7.55817e-08 0)
(1 -9.25851e-08 0)
(1 -1.12761e-07 0)
(1 -1.36608e-07 0)
(1 -1.64702e-07 0)
(1 -1.97521e-07 0)
(1 -2.35119e-07 0)
(1 -2.77215e-07 0)
(1 -3.24771e-07 0)
(1 -3.82463e-07 0)
(1.00001 -4.5497e-07 0)
(1.00001 -5.25497e-07 0)
(1.00001 -5.28854e-07 0)
(1.00001 -4.04947e-07 0)
(1.00001 -2.77339e-07 0)
(1.00002 -2.12487e-07 0)
(1.00002 -2.08099e-07 0)
(1.00003 -2.32516e-07 0)
(1.00003 -2.5747e-07 0)
(1.00004 -2.68339e-07 0)
(1.00004 -2.60926e-07 0)
(1.00005 -2.37202e-07 0)
(1.00006 -2.03269e-07 0)
(1.00006 -1.68702e-07 0)
(1.00007 -1.45876e-07 0)
(1.00007 -1.48061e-07 0)
(1.00008 -1.85434e-07 0)
(1.00008 -2.59e-07 0)
(1.00009 -3.54163e-07 0)
(1.0001 -4.38048e-07 0)
(1.0001 -4.66447e-07 0)
(1.00011 -3.99879e-07 0)
(1.00012 -2.22485e-07 0)
(1.00012 5.80255e-08 0)
(1.00013 4.11731e-07 0)
(1.00013 8.03188e-07 0)
(1.00013 1.20649e-06 0)
(1.00012 1.60565e-06 0)
(1.00012 1.98993e-06 0)
(1.00011 2.34798e-06 0)
(1.0001 2.66544e-06 0)
(1.00008 2.92578e-06 0)
(1.00007 3.11143e-06 0)
(1.00005 3.20565e-06 0)
(1.00004 3.19663e-06 0)
(1.00002 3.08059e-06 0)
(1 2.86164e-06 0)
(0.999987 2.54907e-06 0)
(0.999973 2.15337e-06 0)
(0.999962 1.68043e-06 0)
(0.999954 1.11447e-06 0)
(0.999948 4.53434e-07 0)
(0.999945 -2.73281e-07 0)
(0.999944 -1.03493e-06 0)
(0.999945 -1.80274e-06 0)
(0.999949 -2.54762e-06 0)
(0.999956 -3.23913e-06 0)
(0.999965 -3.84474e-06 0)
(0.999977 -4.33005e-06 0)
(0.999991 -4.65975e-06 0)
(1.00001 -4.80425e-06 0)
(1.00003 -4.75276e-06 0)
(1.00006 -4.57136e-06 0)
(1.00009 -4.44303e-06 0)
(1.00012 -4.30271e-06 0)
(1.00014 -4.06606e-06 0)
(1.00017 -3.68925e-06 0)
(1.0002 -3.16059e-06 0)
(1.00022 -2.48565e-06 0)
(1.00024 -1.67876e-06 0)
(1.00025 -7.61809e-07 0)
(1.00026 2.37472e-07 0)
(1.00027 1.2788e-06 0)
(1.00026 2.31705e-06 0)
(1.00025 3.30416e-06 0)
(1.00024 4.19048e-06 0)
(1.00022 4.92909e-06 0)
(1.00019 5.48109e-06 0)
(1.00016 5.82054e-06 0)
(1.00013 5.93774e-06 0)
(1.0001 5.83968e-06 0)
(1.00007 5.54738e-06 0)
(1.00004 5.09237e-06 0)
(1.00002 4.51386e-06 0)
(0.999993 3.85359e-06 0)
(0.999974 3.14913e-06 0)
(0.999958 2.42602e-06 0)
(0.999946 1.67918e-06 0)
(0.999937 9.15876e-07 0)
(0.999932 1.69066e-07 0)
(0.99993 -5.25767e-07 0)
(0.999929 -1.12614e-06 0)
(0.999931 -1.58626e-06 0)
(0.999934 -1.87086e-06 0)
(0.999937 -1.97296e-06 0)
(0.999941 -1.92277e-06 0)
(0.999945 -1.78005e-06 0)
(0.999949 -1.61173e-06 0)
(0.999952 -1.46747e-06 0)
(0.999955 -1.36873e-06 0)
(0.999958 -1.31413e-06 0)
(0.999961 -1.29104e-06 0)
(0.999963 -1.28408e-06 0)
(0.999966 -1.27961e-06 0)
(0.999969 -1.26785e-06 0)
(0.999972 -1.24331e-06 0)
(0.999975 -1.20403e-06 0)
(0.999977 -1.15062e-06 0)
(0.99998 -1.08523e-06 0)
(0.999982 -1.0108e-06 0)
(0.999984 -9.3046e-07 0)
(0.999986 -8.47142e-07 0)
(0.999988 -7.6338e-07 0)
(0.999989 -6.81212e-07 0)
(0.999991 -6.02166e-07 0)
(0.999992 -5.27286e-07 0)
(0.999993 -4.57197e-07 0)
(0.999994 -3.9218e-07 0)
(0.999995 -3.32169e-07 0)
(0.999996 -2.77182e-07 0)
(0.999996 -2.25577e-07 0)
(0.999997 -1.83013e-07 0)
(0.999997 -1.18062e-07 0)
(1 5.51657e-12 0)
(1 1.45497e-11 0)
(1 2.30869e-11 0)
(1 3.16177e-11 0)
(1 4.01047e-11 0)
(1 4.86092e-11 0)
(1 5.72048e-11 0)
(1 6.59563e-11 0)
(1 7.49152e-11 0)
(1 8.4112e-11 0)
(1 9.35574e-11 0)
(1 1.03261e-10 0)
(1 1.13268e-10 0)
(1 1.23657e-10 0)
(1 1.34518e-10 0)
(1 1.45935e-10 0)
(1 1.5798e-10 0)
(1 1.7076e-10 0)
(1 1.84455e-10 0)
(1 1.99341e-10 0)
(1 2.15785e-10 0)
(1 2.34209e-10 0)
(1 2.5506e-10 0)
(1 2.78794e-10 0)
(1 3.05892e-10 0)
(1 3.36891e-10 0)
(1 3.72401e-10 0)
(1 4.13113e-10 0)
(1 4.59761e-10 0)
(1 5.13062e-10 0)
(1 5.73643e-10 0)
(1 6.41977e-10 0)
(1 7.18338e-10 0)
(1 8.02793e-10 0)
(1 8.95231e-10 0)
(1 9.95398e-10 0)
(1 1.10295e-09 0)
(1 1.21753e-09 0)
(1 1.33879e-09 0)
(1 1.46642e-09 0)
(1 1.60022e-09 0)
(1 1.73999e-09 0)
(1 1.88553e-09 0)
(1 2.0365e-09 0)
(1 2.19238e-09 0)
(1 2.3523e-09 0)
(1 2.51504e-09 0)
(1 2.67888e-09 0)
(1 2.84154e-09 0)
(1 3.00003e-09 0)
(1 3.15052e-09 0)
(1 3.28817e-09 0)
(1 3.4069e-09 0)
(1 3.4992e-09 0)
(1 3.55561e-09 0)
(1 3.56416e-09 0)
(1 3.51007e-09 0)
(1 3.37549e-09 0)
(1 3.13848e-09 0)
(1 2.77181e-09 0)
(1 2.24372e-09 0)
(1 1.51801e-09 0)
(1 5.57509e-10 0)
(1 -6.80997e-10 0)
(1 -2.26259e-09 0)
(1 -4.27058e-09 0)
(1 -6.80263e-09 0)
(1 -9.97356e-09 0)
(1 -1.39212e-08 0)
(1 -1.88126e-08 0)
(1 -2.48493e-08 0)
(1 -3.22707e-08 0)
(1 -4.13598e-08 0)
(1 -5.24504e-08 0)
(1 -6.59376e-08 0)
(1 -8.22838e-08 0)
(1 -1.02016e-07 0)
(1 -1.2572e-07 0)
(1 -1.54037e-07 0)
(1 -1.87667e-07 0)
(1 -2.27351e-07 0)
(1 -2.73862e-07 0)
(1 -3.28073e-07 0)
(1 -3.91144e-07 0)
(1 -4.64323e-07 0)
(1 -5.47334e-07 0)
(1 -6.35444e-07 0)
(1.00001 -7.20817e-07 0)
(1.00001 -8.08149e-07 0)
(1.00001 -9.34622e-07 0)
(1.00001 -1.13988e-06 0)
(1.00001 -1.37787e-06 0)
(1.00001 -1.58493e-06 0)
(1.00001 -1.72925e-06 0)
(1.00002 -1.81024e-06 0)
(1.00002 -1.83717e-06 0)
(1.00002 -1.81822e-06 0)
(1.00002 -1.7594e-06 0)
(1.00002 -1.66777e-06 0)
(1.00002 -1.55555e-06 0)
(1.00003 -1.44312e-06 0)
(1.00003 -1.35937e-06 0)
(1.00003 -1.33769e-06 0)
(1.00003 -1.40604e-06 0)
(1.00003 -1.57121e-06 0)
(1.00003 -1.80113e-06 0)
(1.00004 -2.01637e-06 0)
(1.00004 -2.10441e-06 0)
(1.00004 -1.95996e-06 0)
(1.00004 -1.52969e-06 0)
(1.00004 -8.30378e-07 0)
(1.00004 6.96705e-08 0)
(1.00004 1.08627e-06 0)
(1.00004 2.14777e-06 0)
(1.00004 3.20644e-06 0)
(1.00003 4.23145e-06 0)
(1.00003 5.19429e-06 0)
(1.00002 6.06053e-06 0)
(1.00001 6.7892e-06 0)
(1 7.33491e-06 0)
(0.999993 7.65317e-06 0)
(0.999983 7.71051e-06 0)
(0.999974 7.4924e-06 0)
(0.999965 7.00273e-06 0)
(0.999957 6.25849e-06 0)
(0.99995 5.28757e-06 0)
(0.999944 4.12999e-06 0)
(0.99994 2.84044e-06 0)
(0.999938 1.47117e-06 0)
(0.999937 5.7801e-08 0)
(0.999938 -1.37342e-06 0)
(0.999941 -2.80042e-06 0)
(0.999946 -4.20438e-06 0)
(0.999952 -5.5688e-06 0)
(0.99996 -6.8781e-06 0)
(0.99997 -8.11566e-06 0)
(0.999981 -9.26169e-06 0)
(0.999994 -1.02878e-05 0)
(1.00001 -1.11469e-05 0)
(1.00002 -1.17546e-05 0)
(1.00004 -1.19931e-05 0)
(1.00005 -1.183e-05 0)
(1.00006 -1.12786e-05 0)
(1.00008 -1.03552e-05 0)
(1.00009 -9.07004e-06 0)
(1.0001 -7.43689e-06 0)
(1.0001 -5.48233e-06 0)
(1.00011 -3.25066e-06 0)
(1.00011 -8.05756e-07 0)
(1.00011 1.76693e-06 0)
(1.00011 4.36408e-06 0)
(1.0001 6.86758e-06 0)
(1.00009 9.15199e-06 0)
(1.00008 1.1096e-05 0)
(1.00006 1.25956e-05 0)
(1.00005 1.35771e-05 0)
(1.00003 1.40068e-05 0)
(1.00001 1.38932e-05 0)
(0.999994 1.3282e-05 0)
(0.999979 1.22475e-05 0)
(0.999965 1.08822e-05 0)
(0.999953 9.28738e-06 0)
(0.999942 7.56298e-06 0)
(0.999934 5.79782e-06 0)
(0.999928 4.06878e-06 0)
(0.999925 2.43089e-06 0)
(0.999923 9.1828e-07 0)
(0.999923 -4.34251e-07 0)
(0.999925 -1.57579e-06 0)
(0.999928 -2.44309e-06 0)
(0.999932 -2.98653e-06 0)
(0.999936 -3.20178e-06 0)
(0.99994 -3.14582e-06 0)
(0.999944 -2.92453e-06 0)
(0.999948 -2.65471e-06 0)
(0.999952 -2.42239e-06 0)
(0.999955 -2.26456e-06 0)
(0.999958 -2.17913e-06 0)
(0.99996 -2.14503e-06 0)
(0.999963 -2.13666e-06 0)
(0.999966 -2.13141e-06 0)
(0.999969 -2.11318e-06 0)
(0.999972 -2.073e-06 0)
(0.999975 -2.00781e-06 0)
(0.999977 -1.91877e-06 0)
(0.99998 -1.80962e-06 0)
(0.999982 -1.68532e-06 0)
(0.999984 -1.55116e-06 0)
(0.999986 -1.41205e-06 0)
(0.999988 -1.27224e-06 0)
(0.99999 -1.13512e-06 0)
(0.999991 -1.00326e-06 0)
(0.999992 -8.78382e-07 0)
(0.999993 -7.61525e-07 0)
(0.999994 -6.53152e-07 0)
(0.999995 -5.53147e-07 0)
(0.999996 -4.61533e-07 0)
(0.999996 -3.75573e-07 0)
(0.999997 -3.0468e-07 0)
(0.999997 -1.96528e-07 0)
(1 7.65108e-12 0)
(1 2.09721e-11 0)
(1 3.42565e-11 0)
(1 4.79592e-11 0)
(1 6.1983e-11 0)
(1 7.63863e-11 0)
(1 9.1264e-11 0)
(1 1.06744e-10 0)
(1 1.22981e-10 0)
(1 1.40133e-10 0)
(1 1.5836e-10 0)
(1 1.77834e-10 0)
(1 1.98776e-10 0)
(1 2.21449e-10 0)
(1 2.46132e-10 0)
(1 2.73081e-10 0)
(1 3.02518e-10 0)
(1 3.34654e-10 0)
(1 3.69723e-10 0)
(1 4.07988e-10 0)
(1 4.49728e-10 0)
(1 4.95199e-10 0)
(1 5.44596e-10 0)
(1 5.98042e-10 0)
(1 6.55612e-10 0)
(1 7.17373e-10 0)
(1 7.83433e-10 0)
(1 8.53971e-10 0)
(1 9.29242e-10 0)
(1 1.00955e-09 0)
(1 1.09524e-09 0)
(1 1.18662e-09 0)
(1 1.284e-09 0)
(1 1.38761e-09 0)
(1 1.4977e-09 0)
(1 1.61445e-09 0)
(1 1.73806e-09 0)
(1 1.86876e-09 0)
(1 2.00678e-09 0)
(1 2.15237e-09 0)
(1 2.3057e-09 0)
(1 2.46686e-09 0)
(1 2.63575e-09 0)
(1 2.81204e-09 0)
(1 2.99507e-09 0)
(1 3.18376e-09 0)
(1 3.37655e-09 0)
(1 3.57123e-09 0)
(1 3.76488e-09 0)
(1 3.95367e-09 0)
(1 4.13278e-09 0)
(1 4.29613e-09 0)
(1 4.43614e-09 0)
(1 4.54331e-09 0)
(1 4.60563e-09 0)
(1 4.6082e-09 0)
(1 4.53267e-09 0)
(1 4.35621e-09 0)
(1 4.05015e-09 0)
(1 3.57923e-09 0)
(1 2.8999e-09 0)
(1 1.95738e-09 0)
(1 6.8671e-10 0)
(1 -9.89129e-10 0)
(1 -3.16425e-09 0)
(1 -5.94828e-09 0)
(1 -9.47137e-09 0)
(1 -1.38904e-08 0)
(1 -1.93962e-08 0)
(1 -2.62211e-08 0)
(1 -3.46463e-08 0)
(1 -4.50063e-08 0)
(1 -5.76957e-08 0)
(1 -7.31798e-08 0)
(1 -9.20109e-08 0)
(1 -1.14838e-07 0)
(1 -1.42399e-07 0)
(1 -1.7551e-07 0)
(1 -2.1505e-07 0)
(1 -2.61992e-07 0)
(1 -3.17443e-07 0)
(1 -3.82639e-07 0)
(1 -4.58785e-07 0)
(1 -5.46736e-07 0)
(1 -6.46881e-07 0)
(1 -7.59746e-07 0)
(1 -8.87142e-07 0)
(1.00001 -1.03144e-06 0)
(1.00001 -1.18925e-06 0)
(1.00001 -1.34383e-06 0)
(1.00001 -1.47189e-06 0)
(1.00001 -1.55383e-06 0)
(1.00001 -1.60474e-06 0)
(1.00001 -1.63916e-06 0)
(1.00002 -1.65853e-06 0)
(1.00002 -1.65496e-06 0)
(1.00002 -1.61882e-06 0)
(1.00002 -1.54441e-06 0)
(1.00002 -1.4334e-06 0)
(1.00002 -1.29743e-06 0)
(1.00003 -1.16012e-06 0)
(1.00003 -1.05666e-06 0)
(1.00003 -1.02872e-06 0)
(1.00003 -1.11237e-06 0)
(1.00003 -1.31809e-06 0)
(1.00003 -1.60772e-06 0)
(1.00004 -1.88227e-06 0)
(1.00004 -2.00062e-06 0)
(1.00004 -1.83217e-06 0)
(1.00004 -1.31363e-06 0)
(1.00004 -4.7414e-07 0)
(1.00004 5.95452e-07 0)
(1.00004 1.78846e-06 0)
(1.00004 3.019e-06 0)
(1.00004 4.23513e-06 0)
(1.00003 5.40606e-06 0)
(1.00003 6.50152e-06 0)
(1.00002 7.48181e-06 0)
(1.00001 8.29872e-06 0)
(1 8.89838e-06 0)
(0.999993 9.22787e-06 0)
(0.999983 9.24829e-06 0)
(0.999974 8.94488e-06 0)
(0.999965 8.32544e-06 0)
(0.999957 7.41195e-06 0)
(0.99995 6.2346e-06 0)
(0.999944 4.82925e-06 0)
(0.99994 3.23767e-06 0)
(0.999937 1.50312e-06 0)
(0.999937 -3.29822e-07 0)
(0.999938 -2.21376e-06 0)
(0.999941 -4.10133e-06 0)
(0.999945 -5.94565e-06 0)
(0.999952 -7.69971e-06 0)
(0.99996 -9.3158e-06 0)
(0.99997 -1.0746e-05 0)
(0.999981 -1.19447e-05 0)
(0.999994 -1.28724e-05 0)
(1.00001 -1.35022e-05 0)
(1.00002 -1.382e-05 0)
(1.00004 -1.38047e-05 0)
(1.00005 -1.34485e-05 0)
(1.00006 -1.27206e-05 0)
(1.00008 -1.15919e-05 0)
(1.00009 -1.00488e-05 0)
(1.0001 -8.09897e-06 0)
(1.0001 -5.77255e-06 0)
(1.00011 -3.12302e-06 0)
(1.00011 -2.28725e-07 0)
(1.00011 2.80907e-06 0)
(1.00011 5.86574e-06 0)
(1.0001 8.79938e-06 0)
(1.00009 1.14604e-05 0)
(1.00008 1.37048e-05 0)
(1.00006 1.54103e-05 0)
(1.00005 1.6492e-05 0)
(1.00003 1.69145e-05 0)
(1.00001 1.66937e-05 0)
(0.999994 1.58895e-05 0)
(0.999978 1.4594e-05 0)
(0.999964 1.292e-05 0)
(0.999952 1.09897e-05 0)
(0.999942 8.91761e-06 0)
(0.999934 6.79595e-06 0)
(0.999928 4.69347e-06 0)
(0.999924 2.65979e-06 0)
(0.999923 7.39398e-07 0)
(0.999923 -1.01015e-06 0)
(0.999924 -2.50517e-06 0)
(0.999927 -3.64477e-06 0)
(0.999931 -4.34852e-06 0)
(0.999936 -4.60271e-06 0)
(0.99994 -4.48398e-06 0)
(0.999945 -4.14128e-06 0)
(0.999948 -3.74e-06 0)
(0.999952 -3.40082e-06 0)
(0.999955 -3.17339e-06 0)
(0.999958 -3.05183e-06 0)
(0.99996 -3.00431e-06 0)
(0.999963 -2.99353e-06 0)
(0.999966 -2.98702e-06 0)
(0.999969 -2.96191e-06 0)
(0.999972 -2.90562e-06 0)
(0.999975 -2.81399e-06 0)
(0.999977 -2.68875e-06 0)
(0.99998 -2.53525e-06 0)
(0.999982 -2.36056e-06 0)
(0.999984 -2.17212e-06 0)
(0.999986 -1.97685e-06 0)
(0.999988 -1.7807e-06 0)
(0.99999 -1.58844e-06 0)
(0.999991 -1.40363e-06 0)
(0.999992 -1.22869e-06 0)
(0.999993 -1.06505e-06 0)
(0.999994 -9.13345e-07 0)
(0.999995 -7.73396e-07 0)
(0.999996 -6.45225e-07 0)
(0.999996 -5.24996e-07 0)
(0.999997 -4.25857e-07 0)
(0.999997 -2.74659e-07 0)
(1 9.88815e-12 0)
(1 2.70619e-11 0)
(1 4.40244e-11 0)
(1 6.12672e-11 0)
(1 7.86679e-11 0)
(1 9.63163e-11 0)
(1 1.14336e-10 0)
(1 1.32886e-10 0)
(1 1.52143e-10 0)
(1 1.72274e-10 0)
(1 1.93413e-10 0)
(1 2.15705e-10 0)
(1 2.39343e-10 0)
(1 2.64574e-10 0)
(1 2.91654e-10 0)
(1 3.20802e-10 0)
(1 3.52194e-10 0)
(1 3.86006e-10 0)
(1 4.22476e-10 0)
(1 4.61935e-10 0)
(1 5.04791e-10 0)
(1 5.51485e-10 0)
(1 6.02439e-10 0)
(1 6.58042e-10 0)
(1 7.18678e-10 0)
(1 7.8479e-10 0)
(1 8.56935e-10 0)
(1 9.35819e-10 0)
(1 1.02228e-09 0)
(1 1.11723e-09 0)
(1 1.22159e-09 0)
(1 1.33618e-09 0)
(1 1.46168e-09 0)
(1 1.59861e-09 0)
(1 1.74729e-09 0)
(1 1.90792e-09 0)
(1 2.08056e-09 0)
(1 2.26521e-09 0)
(1 2.46182e-09 0)
(1 2.67025e-09 0)
(1 2.89033e-09 0)
(1 3.12179e-09 0)
(1 3.36418e-09 0)
(1 3.61683e-09 0)
(1 3.87868e-09 0)
(1 4.14814e-09 0)
(1 4.42294e-09 0)
(1 4.69997e-09 0)
(1 4.97513e-09 0)
(1 5.24311e-09 0)
(1 5.49721e-09 0)
(1 5.72901e-09 0)
(1 5.92797e-09 0)
(1 6.081e-09 0)
(1 6.17181e-09 0)
(1 6.18037e-09 0)
(1 6.08213e-09 0)
(1 5.84693e-09 0)
(1 5.43811e-09 0)
(1 4.81112e-09 0)
(1 3.91146e-09 0)
(1 2.67266e-09 0)
(1 1.01579e-09 0)
(1 -1.15446e-09 0)
(1 -3.956e-09 0)
(1 -7.53056e-09 0)
(1 -1.20473e-08 0)
(1 -1.77089e-08 0)
(1 -2.47608e-08 0)
(1 -3.35018e-08 0)
(1 -4.42931e-08 0)
(1 -5.75641e-08 0)
(1 -7.38201e-08 0)
(1 -9.36574e-08 0)
(1 -1.17784e-07 0)
(1 -1.47031e-07 0)
(1 -1.82349e-07 0)
(1 -2.24788e-07 0)
(1 -2.75486e-07 0)
(1 -3.35693e-07 0)
(1 -4.06788e-07 0)
(1 -4.90275e-07 0)
(1 -5.87739e-07 0)
(1 -7.00803e-07 0)
(1 -8.3092e-07 0)
(1 -9.78584e-07 0)
(1 -1.14188e-06 0)
(1.00001 -1.31609e-06 0)
(1.00001 -1.49735e-06 0)
(1.00001 -1.68932e-06 0)
(1.00001 -1.90091e-06 0)
(1.00001 -2.12447e-06 0)
(1.00001 -2.34169e-06 0)
(1.00001 -2.52625e-06 0)
(1.00002 -2.65652e-06 0)
(1.00002 -2.71996e-06 0)
(1.00002 -2.7116e-06 0)
(1.00002 -2.63288e-06 0)
(1.00002 -2.49306e-06 0)
(1.00002 -2.31273e-06 0)
(1.00003 -2.12737e-06 0)
(1.00003 -1.98765e-06 0)
(1.00003 -1.953e-06 0)
(1.00003 -2.07502e-06 0)
(1.00003 -2.36971e-06 0)
(1.00003 -2.78473e-06 0)
(1.00003 -3.18119e-06 0)
(1.00004 -3.35844e-06 0)
(1.00004 -3.12899e-06 0)
(1.00004 -2.40227e-06 0)
(1.00004 -1.21326e-06 0)
(1.00004 3.11951e-07 0)
(1.00004 2.02215e-06 0)
(1.00004 3.79552e-06 0)
(1.00004 5.55715e-06 0)
(1.00003 7.26147e-06 0)
(1.00003 8.86353e-06 0)
(1.00002 1.03056e-05 0)
(1.00001 1.15183e-05 0)
(1 1.24242e-05 0)
(0.999993 1.29466e-05 0)
(0.999983 1.30284e-05 0)
(0.999974 1.26467e-05 0)
(0.999965 1.18114e-05 0)
(0.999957 1.05539e-05 0)
(0.999949 8.92011e-06 0)
(0.999944 6.97026e-06 0)
(0.999939 4.77497e-06 0)
(0.999937 2.4058e-06 0)
(0.999936 -7.15715e-08 0)
(0.999937 -2.59846e-06 0)
(0.99994 -5.12368e-06 0)
(0.999945 -7.60143e-06 0)
(0.999951 -9.9884e-06 0)
(0.99996 -1.22408e-05 0)
(0.999969 -1.4312e-05 0)
(0.999981 -1.61503e-05 0)
(0.999993 -1.76973e-05 0)
(1.00001 -1.88873e-05 0)
(1.00002 -1.96461e-05 0)
(1.00004 -1.98934e-05 0)
(1.00005 -1.9576e-05 0)
(1.00006 -1.8658e-05 0)
(1.00008 -1.71227e-05 0)
(1.00009 -1.49715e-05 0)
(1.0001 -1.22259e-05 0)
(1.00011 -8.93263e-06 0)
(1.00011 -5.16867e-06 0)
(1.00011 -1.04416e-06 0)
(1.00011 3.2958e-06 0)
(1.00011 7.67412e-06 0)
(1.0001 1.18894e-05 0)
(1.00009 1.57286e-05 0)
(1.00008 1.89857e-05 0)
(1.00006 2.14846e-05 0)
(1.00005 2.31015e-05 0)
(1.00003 2.37822e-05 0)
(1.00001 2.3545e-05 0)
(0.999994 2.24714e-05 0)
(0.999978 2.06895e-05 0)
(0.999964 1.83584e-05 0)
(0.999951 1.56528e-05 0)
(0.999941 1.27402e-05 0)
(0.999933 9.76101e-06 0)
(0.999927 6.82343e-06 0)
(0.999924 4.00582e-06 0)
(0.999922 1.36997e-06 0)
(0.999922 -1.01368e-06 0)
(0.999924 -3.04164e-06 0)
(0.999927 -4.58524e-06 0)
(0.999931 -5.54059e-06 0)
(0.999936 -5.89181e-06 0)
(0.99994 -5.74363e-06 0)
(0.999945 -5.29772e-06 0)
(0.999948 -4.77673e-06 0)
(0.999952 -4.34105e-06 0)
(0.999955 -4.05413e-06 0)
(0.999958 -3.90569e-06 0)
(0.99996 -3.85246e-06 0)
(0.999963 -3.84512e-06 0)
(0.999966 -3.84139e-06 0)
(0.999969 -3.81188e-06 0)
(0.999972 -3.74074e-06 0)
(0.999975 -3.62304e-06 0)
(0.999977 -3.46143e-06 0)
(0.99998 -3.26312e-06 0)
(0.999982 -3.03744e-06 0)
(0.999984 -2.79409e-06 0)
(0.999986 -2.54208e-06 0)
(0.999988 -2.28911e-06 0)
(0.99999 -2.04133e-06 0)
(0.999991 -1.8033e-06 0)
(0.999992 -1.57811e-06 0)
(0.999993 -1.36759e-06 0)
(0.999994 -1.17251e-06 0)
(0.999995 -9.92642e-07 0)
(0.999996 -8.27979e-07 0)
(0.999996 -6.73581e-07 0)
(0.999997 -5.46294e-07 0)
(0.999997 -3.52261e-07 0)
(1 1.21068e-11 0)
(1 3.30387e-11 0)
(1 5.36999e-11 0)
(1 7.4741e-11 0)
(1 9.6049e-11 0)
(1 1.17764e-10 0)
(1 1.40052e-10 0)
(1 1.63116e-10 0)
(1 1.87184e-10 0)
(1 2.12474e-10 0)
(1 2.39181e-10 0)
(1 2.67519e-10 0)
(1 2.97768e-10 0)
(1 3.30279e-10 0)
(1 3.65422e-10 0)
(1 4.03532e-10 0)
(1 4.44903e-10 0)
(1 4.89834e-10 0)
(1 5.38686e-10 0)
(1 5.91915e-10 0)
(1 6.50045e-10 0)
(1 7.13607e-10 0)
(1 7.83078e-10 0)
(1 8.58862e-10 0)
(1 9.41315e-10 0)
(1 1.03082e-09 0)
(1 1.12784e-09 0)
(1 1.23299e-09 0)
(1 1.34697e-09 0)
(1 1.47057e-09 0)
(1 1.60455e-09 0)
(1 1.74958e-09 0)
(1 1.90622e-09 0)
(1 2.07483e-09 0)
(1 2.25564e-09 0)
(1 2.44877e-09 0)
(1 2.65425e-09 0)
(1 2.8721e-09 0)
(1 3.10234e-09 0)
(1 3.34501e-09 0)
(1 3.60011e-09 0)
(1 3.86756e-09 0)
(1 4.14711e-09 0)
(1 4.4382e-09 0)
(1 4.73978e-09 0)
(1 5.05019e-09 0)
(1 5.36693e-09 0)
(1 5.68654e-09 0)
(1 6.00441e-09 0)
(1 6.31453e-09 0)
(1 6.60923e-09 0)
(1 6.87883e-09 0)
(1 7.11121e-09 0)
(1 7.29118e-09 0)
(1 7.39968e-09 0)
(1 7.41287e-09 0)
(1 7.30125e-09 0)
(1 7.02839e-09 0)
(1 6.54943e-09 0)
(1 5.80919e-09 0)
(1 4.74004e-09 0)
(1 3.25975e-09 0)
(1 1.26975e-09 0)
(1 -1.34853e-09 0)
(1 -4.73906e-09 0)
(1 -9.07381e-09 0)
(1 -1.45576e-08 0)
(1 -2.1436e-08 0)
(1 -3.0007e-08 0)
(1 -4.06344e-08 0)
(1 -5.37582e-08 0)
(1 -6.99016e-08 0)
(1 -8.9679e-08 0)
(1 -1.13815e-07 0)
(1 -1.43171e-07 0)
(1 -1.78764e-07 0)
(1 -2.21757e-07 0)
(1 -2.73428e-07 0)
(1 -3.35153e-07 0)
(1 -4.0845e-07 0)
(1 -4.95042e-07 0)
(1 -5.9687e-07 0)
(1 -7.15936e-07 0)
(1 -8.5395e-07 0)
(1 -1.01198e-06 0)
(1 -1.19039e-06 0)
(1 -1.38922e-06 0)
(1.00001 -1.60833e-06 0)
(1.00001 -1.84623e-06 0)
(1.00001 -2.09757e-06 0)
(1.00001 -2.34938e-06 0)
(1.00001 -2.57799e-06 0)
(1.00001 -2.76502e-06 0)
(1.00001 -2.8997e-06 0)
(1.00002 -2.9755e-06 0)
(1.00002 -2.98689e-06 0)
(1.00002 -2.92893e-06 0)
(1.00002 -2.7999e-06 0)
(1.00002 -2.60603e-06 0)
(1.00002 -2.36756e-06 0)
(1.00003 -2.12389e-06 0)
(1.00003 -1.93467e-06 0)
(1.00003 -1.87259e-06 0)
(1.00003 -2.00367e-06 0)
(1.00003 -2.35267e-06 0)
(1.00003 -2.86051e-06 0)
(1.00003 -3.35863e-06 0)
(1.00004 -3.59758e-06 0)
(1.00004 -3.34377e-06 0)
(1.00004 -2.48694e-06 0)
(1.00004 -1.0789e-06 0)
(1.00004 7.17409e-07 0)
(1.00004 2.71458e-06 0)
(1.00004 4.76683e-06 0)
(1.00004 6.79105e-06 0)
(1.00003 8.74159e-06 0)
(1.00003 1.05714e-05 0)
(1.00002 1.22156e-05 0)
(1.00001 1.35941e-05 0)
(1 1.46158e-05 0)
(0.999993 1.51891e-05 0)
(0.999983 1.52462e-05 0)
(0.999974 1.47624e-05 0)
(0.999964 1.3752e-05 0)
(0.999956 1.22529e-05 0)
(0.999949 1.03175e-05 0)
(0.999943 8.0114e-06 0)
(0.999939 5.41125e-06 0)
(0.999936 2.59599e-06 0)
(0.999935 -3.59145e-07 0)
(0.999936 -3.3832e-06 0)
(0.999939 -6.40859e-06 0)
(0.999944 -9.37014e-06 0)
(0.999951 -1.22033e-05 0)
(0.999959 -1.48428e-05 0)
(0.999969 -1.72218e-05 0)
(0.99998 -1.92734e-05 0)
(0.999993 -2.0932e-05 0)
(1.00001 -2.21356e-05 0)
(1.00002 -2.28252e-05 0)
(1.00004 -2.2942e-05 0)
(1.00005 -2.24418e-05 0)
(1.00006 -2.12862e-05 0)
(1.00008 -1.9447e-05 0)
(1.00009 -1.69149e-05 0)
(1.0001 -1.37067e-05 0)
(1.00011 -9.87185e-06 0)
(1.00011 -5.49703e-06 0)
(1.00011 -7.08608e-07 0)
(1.00011 4.32582e-06 0)
(1.00011 9.40062e-06 0)
(1.0001 1.42804e-05 0)
(1.00009 1.87151e-05 0)
(1.00008 2.24625e-05 0)
(1.00006 2.53155e-05 0)
(1.00005 2.71302e-05 0)
(1.00003 2.78458e-05 0)
(1.00001 2.74888e-05 0)
(0.999993 2.61602e-05 0)
(0.999977 2.40141e-05 0)
(0.999963 2.12398e-05 0)
(0.99995 1.80433e-05 0)
(0.99994 1.46196e-05 0)
(0.999932 1.11278e-05 0)
(0.999926 7.68437e-06 0)
(0.999923 4.37191e-06 0)
(0.999921 1.25698e-06 0)
(0.999921 -1.57862e-06 0)
(0.999923 -4.00385e-06 0)
(0.999927 -5.85006e-06 0)
(0.999931 -6.97734e-06 0)
(0.999936 -7.35843e-06 0)
(0.999941 -7.1226e-06 0)
(0.999945 -6.52575e-06 0)
(0.999949 -5.85087e-06 0)
(0.999952 -5.29829e-06 0)
(0.999955 -4.94202e-06 0)
(0.999958 -4.76311e-06 0)
(0.99996 -4.70362e-06 0)
(0.999963 -4.70028e-06 0)
(0.999966 -4.69989e-06 0)
(0.999969 -4.66612e-06 0)
(0.999972 -4.57983e-06 0)
(0.999975 -4.43544e-06 0)
(0.999977 -4.23666e-06 0)
(0.99998 -3.99267e-06 0)
(0.999982 -3.71517e-06 0)
(0.999984 -3.4162e-06 0)
(0.999986 -3.10688e-06 0)
(0.999988 -2.79667e-06 0)
(0.99999 -2.49306e-06 0)
(0.999991 -2.20162e-06 0)
(0.999992 -1.9261e-06 0)
(0.999993 -1.66868e-06 0)
(0.999994 -1.43029e-06 0)
(0.999995 -1.2106e-06 0)
(0.999996 -1.00958e-06 0)
(0.999996 -8.2117e-07 0)
(0.999997 -6.65883e-07 0)
(0.999997 -4.2929e-07 0)
(1 1.43068e-11 0)
(1 3.89986e-11 0)
(1 6.3388e-11 0)
(1 8.82487e-11 0)
(1 1.13423e-10 0)
(1 1.39059e-10 0)
(1 1.65339e-10 0)
(1 1.92488e-10 0)
(1 2.20765e-10 0)
(1 2.50416e-10 0)
(1 2.81659e-10 0)
(1 3.14728e-10 0)
(1 3.4993e-10 0)
(1 3.87657e-10 0)
(1 4.28316e-10 0)
(1 4.7227e-10 0)
(1 5.19819e-10 0)
(1 5.71263e-10 0)
(1 6.26977e-10 0)
(1 6.87449e-10 0)
(1 7.53258e-10 0)
(1 8.25001e-10 0)
(1 9.03226e-10 0)
(1 9.88407e-10 0)
(1 1.08099e-09 0)
(1 1.18147e-09 0)
(1 1.29048e-09 0)
(1 1.40887e-09 0)
(1 1.53762e-09 0)
(1 1.67785e-09 0)
(1 1.83068e-09 0)
(1 1.99714e-09 0)
(1 2.17809e-09 0)
(1 2.37417e-09 0)
(1 2.58585e-09 0)
(1 2.81343e-09 0)
(1 3.05709e-09 0)
(1 3.31696e-09 0)
(1 3.59314e-09 0)
(1 3.88567e-09 0)
(1 4.19454e-09 0)
(1 4.51955e-09 0)
(1 4.86028e-09 0)
(1 5.21592e-09 0)
(1 5.58509e-09 0)
(1 5.9656e-09 0)
(1 6.35434e-09 0)
(1 6.74699e-09 0)
(1 7.13783e-09 0)
(1 7.51945e-09 -2.93339e-43)
(1 7.8824e-09 -3.16333e-43)
(1 8.21489e-09 0)
(1 8.50217e-09 0)
(1 8.72583e-09 0)
(1 8.86295e-09 0)
(1 8.88512e-09 0)
(1 8.75748e-09 0)
(1 8.43731e-09 0)
(1 7.87224e-09 0)
(1 6.99817e-09 0)
(1 5.73676e-09 0)
(1 3.99268e-09 0)
(1 1.6509e-09 0)
(1 -1.42764e-09 0)
(1 -5.41168e-09 0)
(1 -1.05035e-08 0)
(1 -1.69441e-08 0)
(1 -2.50226e-08 0)
(1 -3.50894e-08 0)
(1 -4.75731e-08 0)
(1 -6.29926e-08 0)
(1 -8.19643e-08 0)
(1 -1.0521e-07 0)
(1 -1.3358e-07 0)
(1 -1.68089e-07 0)
(1 -2.09935e-07 0)
(1 -2.60493e-07 0)
(1 -3.21273e-07 0)
(1 -3.93901e-07 0)
(1 -4.80166e-07 0)
(1 -5.8209e-07 0)
(1 -7.01936e-07 0)
(1 -8.42078e-07 0)
(1 -1.00474e-06 0)
(1 -1.1917e-06 0)
(1 -1.40387e-06 0)
(1 -1.64069e-06 0)
(1.00001 -1.8995e-06 0)
(1.00001 -2.17566e-06 0)
(1.00001 -2.46373e-06 0)
(1.00001 -2.75664e-06 0)
(1.00001 -3.0407e-06 0)
(1.00001 -3.29945e-06 0)
(1.00001 -3.51386e-06 0)
(1.00002 -3.66409e-06 0)
(1.00002 -3.7332e-06 0)
(1.00002 -3.70973e-06 0)
(1.00002 -3.58988e-06 0)
(1.00002 -3.38154e-06 0)
(1.00002 -3.11039e-06 0)
(1.00003 -2.82589e-06 0)
(1.00003 -2.60294e-06 0)
(1.00003 -2.53371e-06 0)
(1.00003 -2.7039e-06 0)
(1.00003 -3.14976e-06 0)
(1.00003 -3.80281e-06 0)
(1.00003 -4.45346e-06 0)
(1.00004 -4.78581e-06 0)
(1.00004 -4.50097e-06 0)
(1.00004 -3.45799e-06 0)
(1.00004 -1.72311e-06 0)
(1.00004 4.96366e-07 0)
(1.00004 2.96366e-06 0)
(1.00004 5.4982e-06 0)
(1.00004 8.00096e-06 0)
(1.00003 1.04196e-05 0)
(1.00003 1.26974e-05 0)
(1.00002 1.47536e-05 0)
(1.00001 1.64888e-05 0)
(1 1.77892e-05 0)
(0.999993 1.85387e-05 0)
(0.999983 1.8651e-05 0)
(0.999973 1.80954e-05 0)
(0.999964 1.68902e-05 0)
(0.999956 1.50828e-05 0)
(0.999948 1.27388e-05 0)
(0.999942 9.94212e-06 0)
(0.999938 6.79073e-06 0)
(0.999935 3.38438e-06 0)
(0.999934 -1.83501e-07 0)
(0.999935 -3.82733e-06 0)