/*--------------------------------*- C++ -*----------------------------------*\
| =========                 |                                                 |
| \\      /  F ield         | OpenFOAM: The Open Source CFD Toolbox           |
|  \\    /   O peration     | Version:  v2006                                 |
|   \\  /    A nd           | Website:  www.openfoam.com                      |
|    \\/     M anipulation  |                                                 |
\*---------------------------------------------------------------------------*/
FoamFile
{
    version     2.0;
    format      ascii;
    class       surfaceScalarField;
    location    "14.5";
    object      alphaPhi0.water;
}
// * * * * * * * * * * * * * * * * * * * * * * * * * * * * * * * * * * * * * //

dimensions      [0 3 -1 0 0 0 0];
oriented        oriented;


internalField   nonuniform List<scalar> 
299200
(
-0.00104313
0.00104313
-0.00198176
0.000938624
-0.00287635
0.000894594
-0.00374618
0.000869832
-0.00460227
0.000856084
-0.00545897
0.000856708
-0.00632312
0.000864147
-0.0071982
0.000875082
-0.00808555
0.000887345
-0.00898524
0.000899695
-0.00989662
0.000911373
-0.0108181
0.000921516
-0.0117475
0.000929343
-0.0126817
0.000934249
-0.0136175
0.000935773
-0.0145514
0.000933904
-0.0154805
0.000929082
-0.0164026
0.000922105
-0.0173164
0.000913779
-0.0182208
0.000904471
-0.0191149
0.000894102
-0.0199975
0.000882533
-0.0208675
0.000870024
-0.0217247
0.000857159
-0.022569
0.00084433
-0.0234005
0.000831544
-0.0242191
0.000818614
-0.0250245
0.000805312
-0.0258159
0.000791414
-0.0265926
0.000776738
-0.0273538
0.000761223
-0.0280989
0.000745033
-0.0288274
0.00072856
-0.0295398
0.000712376
-0.0302369
0.000697128
-0.0309203
0.000683342
-0.0315915
0.000671205
-0.0322519
0.00066047
-0.0329026
0.000650637
-0.0335439
0.000641328
-0.0341765
0.000632553
-0.034801
0.000624566
-0.0354184
0.000617375
-0.0360287
0.00061031
-0.0366307
0.000602021
-0.0372217
0.000590928
-0.0377974
0.000575759
-0.0383533
0.000555842
-0.0388843
0.000531065
-0.039386
0.000501664
-0.0398542
0.000468245
-0.0402859
0.000431682
-0.0406789
0.000392968
-0.041032
0.000353074
-0.0413448
0.000312853
-0.0416178
0.000272987
-0.0418518
0.000233983
-0.042048
0.000196206
-0.0422079
0.000159905
-0.0423331
0.000125252
-0.0424255
9.23598e-05
-0.0424868
6.12836e-05
-0.0425187
3.19399e-05
-0.0425222
3.51971e-06
-0.0424989
-2.33417e-05
-0.0424509
-4.80097e-05
-0.0423803
-7.05532e-05
-0.0422896
-9.07231e-05
-0.0421808
-0.000108861
-0.0420553
-0.000125478
-0.0419141
-0.000141221
-0.0417572
-0.00015689
-0.0415857
-0.000171512
-0.0414004
-0.000185299
-0.0412027
-0.000197679
-0.0409948
-0.00020787
-0.0407795
-0.000215358
-0.0405593
-0.000220131
-0.0403369
-0.000222459
-0.0401144
-0.000222443
-0.0398946
-0.0002198
-0.0396807
-0.000213963
-0.0394761
-0.000204515
-0.0392844
-0.000191776
-0.0391071
-0.000177297
-0.0389431
-0.00016396
-0.0387875
-0.000155616
-0.0386311
-0.000156379
-0.0384621
-0.00016906
-0.0382681
-0.000193914
-0.0380403
-0.000227799
-0.0377753
-0.000265073
-0.0374756
-0.000299684
-0.0371486
-0.000327009
-0.0368038
-0.000344746
-0.0364512
-0.000352662
-0.0360994
-0.000351773
-0.0357558
-0.000343592
-0.0354262
-0.000329602
-0.0351152
-0.000311015
-0.0348264
-0.000288764
-0.0345627
-0.000263712
-0.0343257
-0.000236964
-0.0341157
-0.000210042
-0.033931
-0.000184723
-0.0337684
-0.000162611
-0.0336226
-0.000145756
-0.0334878
-0.000134861
-0.0333581
-0.000129698
-0.0332284
-0.000129629
-0.0330951
-0.000133282
-0.0329573
-0.000137825
-0.032819
-0.000138316
-0.0326906
-0.000128442
-0.0325883
-0.000102265
-0.0325272
-6.10559e-05
-0.0325113
-1.58971e-05
-0.0325222
1.08827e-05
-0.0325219
-3.52117e-07
-0.0324582
-6.36894e-05
-0.0323082
-0.000150012
-0.032076
-0.000232199
-0.0317916
-0.000284381
-0.0314872
-0.000304434
-0.0311892
-0.000297965
-0.0309177
-0.000271455
-0.0306848
-0.000232968
-0.030495
-0.000189796
-0.030347
-0.000148019
-0.0302345
-0.000112497
-0.0301477
-8.67947e-05
-0.0300748
-7.28273e-05
-0.0300044
-7.04707e-05
-0.0299267
-7.76584e-05
-0.0298357
-9.0994e-05
-0.0297291
-0.000106622
-0.0296078
-0.000121251
-0.0294751
-0.000132731
-0.029335
-0.000140089
-0.0291918
-0.000143245
-0.0290491
-0.000142682
-0.0289099
-0.000139194
-0.0287762
-0.00013371
-0.028649
-0.000127202
-0.0285284
-0.000120615
-0.0284137
-0.000114713
-0.0283036
-0.000110106
-0.0281963
-0.000107298
-0.0280897
-0.000106599
-0.0279815
-0.000108126
-0.0278697
-0.000111826
-0.0277522
-0.000117524
-0.0276272
-0.000124966
-0.0274933
-0.000133864
-0.0273494
-0.000143913
-0.0271946
-0.000154807
-0.0270284
-0.000166229
-0.0268506
-0.000177837
-0.0266613
-0.000189252
-0.0264613
-0.000200055
-0.0262515
-0.000209798
-0.0260334
-0.000218051
-0.0258089
-0.000224462
-0.0255801
-0.000228836
-0.0253489
-0.000231204
-0.0251171
-0.000231842
-0.0248858
-0.000231245
-0.0246558
-0.000230042
-0.0244268
-0.000228934
-0.0241983
-0.000228578
-0.0239687
-0.000229565
-0.0237362
-0.000232475
-0.0234984
-0.000237796
-0.0232527
-0.000245716
-0.0229967
-0.000255987
-0.0227292
-0.000267511
-0.0224512
-0.000278032
-0.022167
-0.000284218
-0.0218847
-0.000282287
-0.0216156
-0.000269111
-0.0213721
-0.000243513
-0.0211647
-0.000207369
-0.0209986
-0.000166036
-0.020871
-0.000127684
-0.0207696
-0.000101396
-0.0206755
-9.40796e-05
-0.0205664
-0.000109115
-0.0204219
-0.00014448
-0.0202287
-0.000193146
-0.0199825
-0.000246266
-0.019687
-0.000295445
-0.0193526
-0.000334406
-0.0189932
-0.000359457
-0.0186241
-0.000369038
-0.0182613
-0.000362837
-0.0179201
-0.000341204
-0.0176168
-0.00030327
-0.0173688
-0.000248002
-0.0171923
-0.00017653
-0.0170983
-9.39738e-05
-0.01709
-8.3353e-06
-0.0171563
6.62771e-05
-0.0172896
0.000133338
-0.0174814
0.000191781
-0.0177225
0.00024112
-0.018004
0.000281484
-0.0183174
0.000313446
-0.0186547
0.000337251
-0.0190076
0.000352879
-0.0193683
0.000360735
-0.0197301
0.000361773
-0.0200879
0.000357854
-0.0204388
0.000350888
-0.0207809
0.000342077
-0.0211152
0.000334273
-0.0214444
0.000329243
-0.0217717
0.000327313
-0.022099
0.000327319
-0.0224259
0.000326883
-0.0227493
0.000323409
-0.0230648
0.000315513
-0.0233686
0.000303797
-0.0236595
0.000290831
-0.0239397
0.00028026
-0.024215
0.000275312
-0.0244934
0.000278314
-0.0247833
0.000289941
-0.0250917
0.000308405
-0.0254223
0.000330571
-0.0257755
0.000353226
-0.0261501
0.000374608
-0.0265455
0.000395446
-0.0269642
0.000418641
-0.0274117
0.000447555
-0.0278957
0.000483998
-0.028423
0.000527258
-0.0289975
0.000574502
-0.0296192
0.000621655
-0.0302829
0.000663765
-0.030978
0.000695057
-0.0316881
0.000710122
-0.0323955
0.000707384
-0.0330888
0.000693319
-0.0337716
0.000682829
-0.0344642
0.000692603
-0.0351894
0.000725206
-0.0359458
0.000756308
-0.0366926
0.000746883
-0.0373516
0.000658942
-0.0378519
0.000500308
-0.0381793
0.000327441
-0.0383793
0.000199992
-0.038518
0.000138704
-0.0386412
0.000123178
-0.0387622
0.000120988
-0.0388818
0.000119626
-0.0390014
0.000119557
-0.039122
0.000120596
-0.0392441
0.000122125
-0.0393679
0.000123821
-0.0394933
0.000125419
-0.0396201
0.000126801
-0.0397481
0.000127955
-0.039877
0.000128908
-0.0400067
0.000129719
-0.0401372
0.000130452
-0.0402683
0.000131167
-0.0404002
0.000131909
-0.040533
0.000132708
-0.0406665
0.000133571
-0.040801
0.000134486
-0.0409364
0.000135428
-0.0410728
0.000136355
-0.04121
0.000137225
-0.041348
0.000137992
-0.0414866
0.000138615
-0.0416257
0.000139056
-0.041765
0.000139287
-0.0419043
0.000139287
-0.0420433
0.000139052
-0.0421819
0.000138593
-0.0423198
0.000137943
-0.042457
0.000137153
-0.0425933
0.000136289
-0.0427287
0.000135423
-0.0428633
0.000134628
-0.0429973
0.000133973
-0.0431308
0.000133518
-0.0432641
0.000133316
-0.0433976
0.000133409
-0.0435314
0.00013383
-0.043666
0.000134603
-0.0438017
0.000135742
-0.043939
0.000137257
-0.0440781
0.000139149
-0.0442195
0.000141416
-0.0443636
0.00014405
-0.0445106
0.00014704
-0.044661
0.000150376
-0.0448151
0.000154042
-0.0449731
0.000158027
-0.0451354
0.000162315
-0.0453023
0.000166887
-0.045474
0.000171724
-0.0456508
0.000176807
-0.0458329
0.000182114
-0.0460205
0.000187621
-0.0462139
0.000193302
-0.046413
0.000199125
-0.046618
0.000205055
-0.0468291
0.000211057
-0.0470462
0.000217093
-0.0472693
0.000223123
-0.0474984
0.000229104
-0.0477334
0.00023499
-0.0479741
0.000240734
-0.0482204
0.000246288
-0.048472
0.000251604
-0.0487287
0.00025664
-0.04899
0.000261355
-0.0492557
0.000265715
-0.0495254
0.000269692
-0.0497987
0.000273262
-0.0500751
0.000276415
-0.0503542
0.000279143
-0.0506357
0.000281449
-0.050919
0.000283338
-0.0512039
0.000284821
-0.0514898
0.000285908
-0.0517764
0.000286604
-0.0520632
0.000286873
-0.0523499
0.000286704
-0.052636
0.000286081
-0.052921
0.000284979
-0.0532044
0.000283372
-0.0534856
0.000281233
-0.0537642
0.000278539
-0.0540394
0.000275275
-0.0543109
0.000271433
-0.0545779
0.000267015
-0.0548399
0.000262034
-0.0550964
0.000256513
-0.0553469
0.000250487
-0.0555909
0.000244001
-0.055828
0.00023711
-0.0560579
0.000229874
-0.0562803
0.000222359
-0.0564949
0.000214632
-0.0567016
0.00020675
-0.0569004
0.000198762
-0.0570911
0.000190692
-0.0572736
0.00018254
-0.0574479
0.000174272
-0.0576137
0.000165819
-0.0577708
0.000157081
-0.0579187
0.000147938
-0.058057
0.000138272
-0.058185
0.000127998
-0.0583021
0.000117096
-0.0584078
0.000105657
-0.0585017
9.38976e-05
-0.0585837
8.20432e-05
-0.0586541
7.03883e-05
-0.0587126
5.85158e-05
-0.0587582
4.55574e-05
-0.0587864
2.82622e-05
-0.0587892
2.7443e-06
-0.0587672
-2.19435e-05
-0.0587276
-3.96739e-05
-0.0586784
-4.91162e-05
-0.0586234
-5.50704e-05
-0.0585632
-6.0174e-05
-0.0584983
-6.48631e-05
-0.058429
-6.93451e-05
-0.058355
-7.40347e-05
-0.0582757
-7.92852e-05
-0.0581905
-8.51788e-05
-0.0580991
-9.13423e-05
-0.0580023
-9.68289e-05
-0.0579021
-0.000100227
-0.057802
-0.000100056
-0.0577067
-9.53315e-05
-0.0576203
-8.64116e-05
-0.0575446
-7.56466e-05
-0.0574772
-6.74559e-05
-0.0574097
-6.74387e-05
-0.0573293
-8.03994e-05
-0.0572214
-0.000107981
-0.0570741
-0.000147226
-0.056883
-0.000191162
-0.0566516
-0.000231346
-0.0563905
-0.000261143
-0.0561124
-0.000278069
-0.0558284
-0.00028402
-0.0555447
-0.000283699
-0.0552623
-0.000282371
-0.0549782
-0.000284112
-0.0546872
-0.000290997
-0.0543841
-0.000303173
-0.0540646
-0.00031949
-0.0537262
-0.000338357
-0.0533676
-0.000358571
-0.0529878
-0.00037987
-0.0525848
-0.000402977
-0.0521557
-0.000429079
-0.0516968
-0.000458908
-0.0512049
-0.000491872
-0.0506792
-0.000525703
-0.0501224
-0.000556865
-0.0495408
-0.000581574
-0.0489438
-0.000596977
-0.0483418
-0.000601983
-0.0477443
-0.000597479
-0.0471584
-0.000585933
-0.0465878
-0.000570574
-0.0460333
-0.000554497
-0.0454933
-0.000540023
-0.0449649
-0.000528464
-0.0444446
-0.000520242
-0.0439294
-0.000515188
-0.0434166
-0.000512837
-0.042904
-0.000512625
-0.04239
-0.000513967
-0.0418737
-0.000516306
-0.0413545
-0.000519164
-0.0408323
-0.000522207
-0.040307
-0.000525276
-0.0397787
-0.000528369
-0.0392471
-0.000531607
-0.0387119
-0.000535159
-0.0381727
-0.000539193
-0.0376289
-0.000543833
-0.0370797
-0.000549155
-0.0365245
-0.000555202
-0.0359625
-0.000562014
-0.0353929
-0.000569643
-0.0348147
-0.000578172
-0.034227
-0.0005877
-0.0336287
-0.000598326
-0.0330185
-0.00061013
-0.0323954
-0.000623156
-0.031758
-0.000637397
-0.0311052
-0.000652797
-0.0304359
-0.000669242
-0.0297494
-0.000686573
-0.0290448
-0.000704591
-0.0283217
-0.000723076
-0.0275799
-0.000741795
-0.0268194
-0.000760518
-0.0260404
-0.000779013
-0.0252433
-0.000797048
-0.0244289
-0.000814393
-0.0235981
-0.000830824
-0.022752
-0.000846126
-0.0218919
-0.000860101
-0.0210193
-0.000872565
-0.020136
-0.000883347
-0.0192437
-0.00089229
-0.0183444
-0.00089925
-0.0174403
-0.000904091
-0.0165337
-0.000906683
-0.0156268
-0.000906891
-0.0147222
-0.000904566
-0.0138227
-0.00089955
-0.012931
-0.000891678
-0.0120502
-0.000880814
-0.0111833
-0.000866893
-0.0103333
-0.000849929
-0.00950333
-0.000830008
-0.00869609
-0.000807241
-0.00791435
-0.000781737
-0.00716077
-0.000753587
-0.00643793
-0.000722839
-0.00574841
-0.00068952
-0.00509465
-0.000653756
-0.00447902
-0.000615633
-0.00390342
-0.000575604
-0.00336968
-0.000533738
-0.00287857
-0.000491104
-0.00243095
-0.000447621
-0.00202716
-0.000403794
-0.00166696
-0.000360201
-0.00134984
-0.000317122
-0.00107461
-0.000275224
-0.000839812
-0.000234799
-0.000643496
-0.000196316
-0.000483136
-0.000160359
-0.000356416
-0.000126721
-0.000260233
-9.6183e-05
-0.000191859
-6.83734e-05
-0.000147802
-4.40575e-05
-0.000122742
-2.50594e-05
-0.000110693
-1.20491e-05
-0.000103104
-7.58953e-06
-9.0465e-05
-1.26385e-05
-6.00581e-05
-3.04069e-05
5.50779e-06
-6.55659e-05
0.000119439
-0.000113931
0.000197517
-7.80786e-05
0.000197517
-0.00140577
0.00244891
-0.00273273
0.00226557
-0.00407818
0.00224005
-0.00543067
0.00222232
-0.00679186
0.00221727
-0.00817071
0.00223556
-0.00956725
0.00226069
-0.0109775
0.00228533
-0.012396
0.00230586
-0.0138163
0.00231999
-0.0152309
0.00232598
-0.0166324
0.00232302
-0.0180144
0.0023113
-0.0193718
0.00229168
-0.0207013
0.0022653
-0.022001
0.00223353
-0.0232698
0.00219788
-0.0245077
0.00216009
-0.0257157
0.00212177
-0.0268952
0.00208393
-0.0280478
0.00204667
-0.0291747
0.00200949
-0.0302765
0.00197177
-0.0313523
0.00193302
-0.0324008
0.00189284
-0.0334204
0.00185114
-0.0344101
0.00180832
-0.0353701
0.00176523
-0.0363018
0.00172312
-0.0372086
0.00168359
-0.0380959
0.00164845
-0.0389702
0.00161935
-0.0398387
0.00159709
-0.0407071
0.00158074
-0.041577
0.00156705
-0.0424443
0.00155066
-0.0432988
0.00152575
-0.0441271
0.00148875
-0.044917
0.0014405
-0.0456619
0.0013862
-0.0463621
0.00133281
-0.0470231
0.00128555
-0.0476516
0.00124584
-0.0482528
0.00121153
-0.0488295
0.00117872
-0.0493823
0.00114374
-0.0499107
0.00110417
-0.0504139
0.00105904
-0.0508914
0.00100854
-0.0513433
0.000953563
-0.0517705
0.000895415
-0.0521743
0.000835514
-0.0525565
0.000775183
-0.052919
0.000715533
-0.0532635
0.00065741
-0.0535919
0.000601383
-0.0539057
0.000547784
-0.0542062
0.000496729
-0.0544945
0.000448141
-0.054771
0.000401754
-0.0550358
0.000357167
-0.0552884
0.000313948
-0.0555283
0.000271825
-0.0557557
0.000230898
-0.055971
0.000191997
-0.0561749
0.000155813
-0.0563684
0.000122947
-0.0565531
9.40234e-05
-0.0567307
6.86765e-05
-0.0569015
4.53894e-05
-0.0570646
2.18638e-05
-0.0572154
-6.10511e-06
-0.0573513
-3.56288e-05
-0.0574674
-6.91501e-05
-0.0575596
-0.000105495
-0.0576246
-0.000142835
-0.0576602
-0.000179842
-0.0576642
-0.000216094
-0.0576351
-0.000251604
-0.0575716
-0.000285877
-0.057474
-0.00031739
-0.0573442
-0.000343748
-0.0571863
-0.000362443
-0.0570064
-0.000371694
-0.0568123
-0.00037136
-0.0566133
-0.000363037
-0.0564192
-0.000349656
-0.0562407
-0.00033487
-0.0560871
-0.00032271
-0.0559643
-0.00031668
-0.0558731
-0.000319021
-0.0558083
-0.000329905
-0.0557604
-0.000347521
-0.0557187
-0.000368713
-0.0556736
-0.000389852
-0.0556188
-0.000407462
-0.0555519
-0.000418716
-0.0554736
-0.000421901
-0.0553862
-0.00041699
-0.0552909
-0.000406287
-0.0551849
-0.000394794
-0.0550587
-0.000389901
-0.0548956
-0.000400015
-0.0546738
-0.000431888
-0.0543713
-0.000487159
-0.0539745
-0.00055948
-0.0534854
-0.000634821
-0.0529258
-0.000694455
-0.0523349
-0.000720569
-0.0517625
-0.000702068
-0.0512582
-0.000637592
-0.050862
-0.000533992
-0.0505993
-0.000401074
-0.0504806
-0.000247132
-0.050505
-7.78891e-05
-0.0506659
9.98629e-05
-0.0509506
0.00026878
-0.0513327
0.000392987
-0.0517672
0.000434212
-0.0522033
0.000372377
-0.0525772
0.000223853
-0.0528341
2.47098e-05
-0.0529621
-0.000156301
-0.052975
-0.000291572
-0.052903
-0.000369931
-0.0527725
-0.000401993
-0.0526025
-0.000402933
-0.0524061
-0.000386246
-0.0521914
-0.000362695
-0.0519634
-0.000340498
-0.0517246
-0.000325644
-0.0514755
-0.000321841
-0.0512158
-0.000330267
-0.0509438
-0.000349631
-0.050658
-0.000376762
-0.0503571
-0.000407502
-0.0500405
-0.000437878
-0.0497084
-0.000464865
-0.0493618
-0.000486619
-0.0490027
-0.000502347
-0.0486334
-0.000512052
-0.0482562
-0.000516316
-0.0478738
-0.00051614
-0.0474882
-0.000512832
-0.0471009
-0.000507885
-0.0467128
-0.000502806
-0.046324
-0.000498969
-0.0459338
-0.000497504
-0.0455412
-0.000499167
-0.045145
-0.000504281
-0.0447441
-0.00051272
-0.0443377
-0.000523988
-0.0439253
-0.000537332
-0.0435073
-0.000551873
-0.0430845
-0.00056672
-0.0426582
-0.000581055
-0.0422303
-0.000594204
-0.0418024
-0.000605672
-0.0413765
-0.000615183
-0.0409538
-0.000622729
-0.040535
-0.000628624
-0.0401195
-0.000633533
-0.0397055
-0.000638439
-0.0392899
-0.000644511
-0.0388682
-0.000652858
-0.0384359
-0.000664194
-0.0379886
-0.000678511
-0.0375238
-0.000694876
-0.0370412
-0.000711457
-0.036544
-0.000725778
-0.0360384
-0.000735176
-0.0355336
-0.000737341
-0.0350406
-0.000730733
-0.0345715
-0.000714836
-0.0341376
-0.000689897
-0.0337485
-0.000656636
-0.0334105
-0.000616035
-0.0331253
-0.000569344
-0.0328893
-0.000518369
-0.0326925
-0.000465891
-0.0325201
-0.000415922
-0.0323539
-0.000373544
-0.0321757
-0.000344189
-0.031971
-0.000332454
-0.0317316
-0.000340728
-0.0314578
-0.000367942
-0.0311565
-0.000410358
-0.0308388
-0.000462197
-0.0305152
-0.000516755
-0.0301935
-0.000567997
-0.0298775
-0.000611399
-0.0295679
-0.000643984
-0.0292638
-0.000663635
-0.0289648
-0.000668012
-0.0286742
-0.000653477
-0.028401
-0.000614385
-0.0281615
-0.000542703
-0.0279788
-0.000430776
-0.0278788
-0.000276518
-0.0278842
-8.85115e-05
-0.0280126
0.000120075
-0.0282813
0.000334916
-0.0286887
0.000540725
-0.0292172
0.000720356
-0.0298388
0.000862647
-0.0305199
0.000962602
-0.0312252
0.00101871
-0.0319174
0.00102946
-0.0325591
0.000994636
-0.0331181
0.000919742
-0.0335727
0.000816363
-0.0339152
0.000700341
-0.0341518
0.000587436
-0.0342992
0.000489549
-0.0343785
0.000413575
-0.0344104
0.000361158
-0.0344128
0.000329699
-0.0344001
0.000314558
-0.0343831
0.000309894
-0.0343695
0.000309786
-0.0343646
0.000310647
-0.0343721
0.000311353
-0.0343942
0.000312909
-0.0344315
0.000317519
-0.0344835
0.000327347
-0.0345489
0.000343688
-0.0346252
0.00036629
-0.0347099
0.000393037
-0.0348
0.000420744
-0.0348932
0.000446359
-0.0349868
0.000468188
-0.0350779
0.000486564
-0.0351627
0.000503458
-0.0352363
0.00052119
-0.0352934
0.000541019
-0.0353286
0.000562458
-0.0353376
0.00058352
-0.0353173
0.000601409
-0.0352668
0.000613201
-0.0351882
0.000616531
-0.0350886
0.000610524
-0.0349777
0.000596418
-0.0348605
0.000576123
-0.0347254
0.000547771
-0.0345339
0.000501113
-0.0342279
0.000419165
-0.033758
0.000286398
-0.0331291
0.000117972
-0.0324418
-2.8286e-05
-0.0318151
-0.000126474
-0.0313641
-0.000123516
-0.0311167
-4.74395e-05
-0.0310173
3.93694e-05
-0.0309931
9.89172e-05
-0.0310089
0.000136782
-0.0310504
0.000161166
-0.0311093
0.000178427
-0.0311802
0.000191476
-0.0312601
0.000202061
-0.0313476
0.000211307
-0.0314417
0.000219591
-0.0315421
0.000227121
-0.0316482
0.000234044
-0.0317597
0.000240487
-0.0318766
0.000246557
-0.0319985
0.000252345
-0.0321252
0.00025793
-0.0322567
0.000263386
-0.0323928
0.000268783
-0.0325334
0.000274193
-0.0326786
0.000279692
-0.0328285
0.000285359
-0.0329835
0.000291281
-0.0331438
0.00029754
-0.03331
0.000304207
-0.0334827
0.000311335
-0.0336626
0.000318942
-0.0338503
0.000327016
-0.0340465
0.000335504
-0.0342518
0.000344317
-0.0344666
0.000353339
-0.0346911
0.000362436
-0.0349254
0.00037147
-0.0351694
0.00038032
-0.0354229
0.000388892
-0.0356854
0.000397134
-0.0359564
0.000405032
-0.0362355
0.00041261
-0.0365221
0.000419912
-0.0368157
0.000426998
-0.0371158
0.000433929
-0.037422
0.000440763
-0.0377338
0.000447546
-0.0380508
0.00045431
-0.0383728
0.000461077
-0.0386992
0.000467857
-0.0390298
0.000474651
-0.0393642
0.000481457
-0.0397021
0.000488267
-0.0400431
0.000495072
-0.040387
0.000501858
-0.0407333
0.000508608
-0.0410817
0.000515305
-0.0414319
0.000521929
-0.0417835
0.000528457
-0.0421363
0.000534865
-0.0424898
0.000541124
-0.0428437
0.000547209
-0.0431977
0.000553094
-0.0435514
0.000558752
-0.0439045
0.000564159
-0.0442567
0.000569288
-0.0446076
0.000574114
-0.0449572
0.000578611
-0.0453049
0.000582752
-0.0456507
0.000586509
-0.0459943
0.000589853
-0.0463354
0.000592755
-0.046674
0.000595184
-0.0470097
0.000597107
-0.0473425
0.000598492
-0.0476721
0.0005993
-0.0479983
0.000599489
-0.0483209
0.000599012
-0.0486396
0.000597816
-0.048954
0.000595843
-0.0492637
0.000593031
-0.0495682
0.000589325
-0.0498669
0.000584672
-0.0501594
0.000579018
-0.0504448
0.000572319
-0.0507226
0.000564554
-0.0509923
0.000555724
-0.0512532
0.000545854
-0.0515048
0.000534989
-0.0517468
0.000523203
-0.0519788
0.000510585
-0.0522008
0.000497243
-0.0524126
0.000483293
-0.0526145
0.000468854
-0.0528065
0.000454041
-0.0529889
0.000438959
-0.0531621
0.000423694
-0.0533264
0.000408314
-0.0534822
0.000392855
-0.0536296
0.000377318
-0.0537689
0.000361664
-0.0539001
0.000345805
-0.054023
0.000329602
-0.0541371
0.000312866
-0.0542417
0.00029537
-0.0543361
0.000276867
-0.0544189
0.000257122
-0.054489
0.00023595
-0.0545452
0.000213255
-0.0545864
0.00018907
-0.0546116
0.000163568
-0.0546207
0.000137066
-0.0546136
0.000109992
-0.0545908
8.28359e-05
-0.0545531
5.61936e-05
-0.0545018
3.07166e-05
-0.0544388
7.4383e-06
-0.0543651
-1.51717e-05
-0.0542818
-3.77612e-05
-0.0541958
-5.77218e-05
-0.0541183
-7.48e-05
-0.0540521
-8.81553e-05
-0.0539919
-9.9829e-05
-0.0539303
-0.000110698
-0.0538646
-0.000120786
-0.053795
-0.000129763
-0.0537225
-0.000137376
-0.0536483
-0.000143564
-0.053574
-0.000148376
-0.0535013
-0.000151916
-0.0534322
-0.00015435
-0.0533675
-0.000155996
-0.0533068
-0.00015754
-0.0532467
-0.000160315
-0.0531802
-0.000166526
-0.0530963
-0.000179239
-0.0529806
-0.000202096
-0.0528178
-0.000238462
-0.0525947
-0.000290532
-0.0523038
-0.000358372
-0.0519452
-0.000439023
-0.051527
-0.00052613
-0.0510637
-0.000610593
-0.0505722
-0.000682618
-0.0500689
-0.000734627
-0.0495665
-0.000763598
-0.0490727
-0.000771879
-0.0485906
-0.00076611
-0.0481195
-0.000754806
-0.0476561
-0.00074577
-0.0471959
-0.000744327
-0.0467341
-0.000752734
-0.0462667
-0.000770576
-0.0457905
-0.000795704
-0.0453035
-0.000825345
-0.044805
-0.000857074
-0.0442955
-0.000889413
-0.0437765
-0.000921947
-0.0432506
-0.000954932
-0.042721
-0.000988583
-0.0421905
-0.00102237
-0.0416615
-0.00105465
-0.0411356
-0.00108283
-0.0406131
-0.00110403
-0.0400942
-0.00111585
-0.0395791
-0.00111715
-0.0390682
-0.0011084
-0.0385624
-0.00109168
-0.0380628
-0.00107015
-0.0375701
-0.00104727
-0.0370841
-0.00102598
-0.0366044
-0.00100818
-0.0361301
-0.000994559
-0.0356604
-0.000984888
-0.0351947
-0.000978477
-0.0347328
-0.000974573
-0.0342742
-0.000972559
-0.0338185
-0.000971959
-0.0333653
-0.000972391
-0.032914
-0.000973544
-0.032464
-0.000975209
-0.0320151
-0.00097732
-0.0315667
-0.000979972
-0.0311185
-0.000983389
-0.0306698
-0.000987849
-0.0302201
-0.000993611
-0.0297684
-0.00100086
-0.0293139
-0.00100967
-0.0288559
-0.00102004
-0.0283936
-0.00103195
-0.0279264
-0.00104538
-0.0274536
-0.00106042
-0.0269747
-0.00107723
-0.0264888
-0.00109608
-0.0259947
-0.00111726
-0.025491
-0.00114109
-0.024976
-0.0011678
-0.0244477
-0.00119749
-0.0239042
-0.00123014
-0.0233433
-0.0012655
-0.0227631
-0.00130319
-0.0221622
-0.00134269
-0.0215394
-0.0013834
-0.0208937
-0.00142465
-0.020225
-0.0014658
-0.0195332
-0.0015062
-0.0188187
-0.00154526
-0.0180824
-0.00158243
-0.0173253
-0.00161721
-0.0165487
-0.00164917
-0.0157542
-0.0016779
-0.0149434
-0.00170305
-0.0141184
-0.00172425
-0.0132813
-0.00174121
-0.0124344
-0.00175362
-0.01158
-0.00176123
-0.0107208
-0.00176374
-0.00985954
-0.00176086
-0.00899892
-0.00175229
-0.00814208
-0.00173766
-0.00729234
-0.00171664
-0.0064533
-0.00168897
-0.00562878
-0.00165452
-0.00482269
-0.00161333
-0.0040389
-0.00156553
-0.00328126
-0.00151123
-0.00255357
-0.00145053
-0.00185952
-0.00138357
-0.00120261
-0.00131067
-0.000585463
-0.00123278
-1.1808e-05
-0.00114926
0.000516045
-0.00106159
0.000992923
-0.000967982
0.00141636
-0.000871056
0.00178408
-0.000771518
0.00209411
-0.00067023
0.00234464
-0.000567654
0.00253466
-0.000465244
0.00266367
-0.000363804
0.00273169
-0.000264339
0.00273912
-0.000167792
0.00268617
-7.3766e-05
0.00257372
1.6268e-05
0.00240484
0.000100503
0.00218492
0.000175868
0.00191837
0.000241483
0.00161321
0.000293118
0.00128329
0.000322326
0.000950047
0.000320606
0.000654217
0.000265423
0.000460051
0.0001286
0.000403351
-5.72305e-05
0.000372721
-4.74488e-05
0.000570238
-0.00145061
0.00389952
-0.00283579
0.00365076
-0.00430464
0.0037089
-0.00582926
0.00374694
-0.00737297
0.00376098
-0.00892565
0.00378825
-0.0104785
0.00381356
-0.0120211
0.00382787
-0.013544
0.00382884
-0.0150394
0.00381539
-0.0165007
0.00378725
-0.0179234
0.0037457
-0.0193054
0.00369333
-0.020647
0.00363323
-0.0219499
0.00356827
-0.0232171
0.00350068
-0.0244514
0.00343221
-0.0256557
0.00336433
-0.0268322
0.00329827
-0.0279826
0.00323441
-0.029108
0.00317204
-0.0302082
0.00310964
-0.0312821
0.00304569
-0.0323284
0.0029793
-0.033346
0.00291044
-0.0343349
0.00284008
-0.0352966
0.00277
-0.0362338
0.00270248
-0.0371506
0.0026399
-0.0380513
0.00258427
-0.0389396
0.00253673
-0.0398171
0.00249687
-0.0406819
0.00246191
-0.0415275
0.00242637
-0.0423431
0.00238257
-0.0431152
0.0023228
-0.0438322
0.00224273
-0.0444879
0.00214446
-0.0450844
0.00203701
-0.0456312
0.00193305
-0.0461419
0.00184347
-0.0466295
0.00177312
-0.0471038
0.0017202
-0.047571
0.00167868
-0.0480339
0.00164168
-0.048494
0.00160383
-0.0489518
0.00156195
-0.0494075
0.00151475
-0.0498613
0.00146228
-0.0503131
0.0014054
-0.050763
0.00134531
-0.0512108
0.00128331
-0.0516562
0.00122056
-0.0520985
0.0011579
-0.052537
0.00109588
-0.0529703
0.00103471
-0.0533969
0.000974315
-0.0538145
0.000914407
-0.054221
0.000854573
-0.0546136
0.000794374
-0.0549899
0.000733486
-0.0553478
0.000671881
-0.055686
0.000610008
-0.056004
0.000548877
-0.056302
0.00048995
-0.0565805
0.000434378
-0.0568401
0.00038256
-0.0570799
0.000333839
-0.0572976
0.000286304
-0.0574895
0.000237333
-0.0576523
0.000184641
-0.0577855
0.00012711
-0.0578881
6.69615e-05
-0.0579632
5.95859e-06
-0.0580149
-5.38417e-05
-0.0580455
-0.000112229
-0.0580574
-0.000167923
-0.0580514
-0.000222058
-0.0580284
-0.000274602
-0.05799
-0.000324285
-0.0579393
-0.000368088
-0.0578803
-0.000402726
-0.057817
-0.000425795
-0.0577522
-0.000436484
-0.0576872
-0.000436345
-0.0576219
-0.000428396
-0.0575546
-0.000416898
-0.0574835
-0.000405959
-0.0574066
-0.000399657
-0.0573219
-0.000401314
-0.057228
-0.00041296
-0.0571232
-0.00043467
-0.0570063
-0.000464492
-0.0568765
-0.000498498
-0.0567343
-0.000531988
-0.0565814
-0.000560431
-0.0564194
-0.000580703
-0.0562491
-0.000592167
-0.0560687
-0.000597446
-0.0558723
-0.000602658
-0.0556504
-0.000616681
-0.055391
-0.000649284
-0.0550829
-0.000708186
-0.0547191
-0.000795661
-0.0543006
-0.000905654
-0.0538374
-0.00102266
-0.0533494
-0.00112283
-0.0528665
-0.0011774
-0.0524283
-0.00115868
-0.0520823
-0.00104813
-0.0518757
-0.000844154
-0.0518435
-0.00056625
-0.0519931
-0.000251486
-0.0522959
5.56947e-05
-0.0526899
0.000316084
-0.0530908
0.000500839
-0.0534116
0.00058956
-0.0535902
0.000571549
-0.0536049
0.000448916
-0.0534728
0.000240299
-0.0532434
-5.51338e-06
-0.0529633
-0.000255455
-0.0526704
-0.00044915
-0.0523801
-0.000581919
-0.0520872
-0.000662848
-0.0517832
-0.000705992
-0.0514609
-0.000725183
-0.051116
-0.000731113
-0.0507474
-0.000731365
-0.0503565
-0.000731391
-0.0499469
-0.00073522
-0.0495233
-0.000745464
-0.0490906
-0.000762985
-0.0486533
-0.000786866
-0.0482153
-0.000814821
-0.0477789
-0.000843891
-0.0473455
-0.000871288
-0.0469154
-0.00089493
-0.0464884
-0.000913591
-0.0460639
-0.000926848
-0.045641
-0.000934961
-0.0452186
-0.000938736
-0.0447954
-0.000939386
-0.0443698
-0.000938381
-0.0439404
-0.000937269
-0.0435058
-0.000937471
-0.0430646
-0.0009401
-0.0426163
-0.000945829
-0.0421607
-0.000954799
-0.0416983
-0.000966626
-0.0412306
-0.000980481
-0.0407593
-0.000995245
-0.0402869
-0.00100969
-0.0398162
-0.00102265
-0.0393497
-0.00103319
-0.0388901
-0.00104064
-0.0384396
-0.00104473
-0.0379997
-0.00104552
-0.0375714
-0.00104351
-0.0371546
-0.00103952
-0.0367485
-0.00103478
-0.0363512
-0.00103075
-0.0359607
-0.00102898
-0.0355744
-0.00103077
-0.0351905
-0.00103685
-0.0348077
-0.00104693
-0.0344267
-0.0010595
-0.0340498
-0.00107183
-0.033681
-0.00108029
-0.0333257
-0.00108098
-0.0329904
-0.00107052
-0.032681
-0.00104675
-0.0324024
-0.00100934
-0.0321573
-0.000959933
-0.0319454
-0.000901837
-0.0317625
-0.000839505
-0.0316007
-0.000777819
-0.0314488
-0.000721293
-0.0312936
-0.000673475
-0.0311229
-0.000636668
-0.0309268
-0.000611975
-0.0307008
-0.000599542
-0.0304462
-0.000598831
-0.0301698
-0.000608788
-0.0298827
-0.000627851
-0.0295968
-0.000653845
-0.029323
-0.000684193
-0.029069
-0.0007162
-0.0288383
-0.000747389
-0.0286304
-0.000775914
-0.0284411
-0.000800715
-0.0282638
-0.000821334
-0.02809
-0.000837384
-0.0279104
-0.000847661
-0.0277148
-0.000849039
-0.0274939
-0.000835261
-0.0272407
-0.00079593
-0.0269546
-0.000716862
-0.0266495
-0.000581594
-0.0263639
-0.000374172
-0.0261572
-8.66049e-05
-0.0260827
0.000260438
-0.0261745
0.000632535
-0.0264317
0.000977487
-0.0268239
0.00125485
-0.0272962
0.0014349
-0.0277819
0.00150445
-0.0282201
0.00146761
-0.028569
0.00134355
-0.0288126
0.00116333
-0.0289573
0.000961082
-0.029023
0.000766062
-0.0290337
0.000598125
-0.0290109
0.000466735
-0.0289705
0.000373208
-0.0289232
0.0003138
-0.0288758
0.00028239
-0.0288334
0.000272072
-0.0287993
0.000275831
-0.028777
0.000287523
-0.0287695
0.000303095
-0.0287786
0.000320462
-0.0288049
0.00033918
-0.0288472
0.000359843
-0.028903
0.00038317
-0.0289685
0.000409135
-0.0290388
0.000436683
-0.0291097
0.0004639
-0.0291777
0.000488728
-0.0292411
0.000509808
-0.0292999
0.000526992
-0.0293546
0.000541241
-0.0294052
0.000554074
-0.0294507
0.000566696
-0.0294891
0.000579378
-0.029518
0.000591375
-0.0295358
0.000601304
-0.0295421
0.000607698
-0.0295385
0.000609608
-0.0295292
0.000607207
-0.0295206
0.000601909
-0.0295193
0.00059516
-0.0295286
0.000585372
-0.0295468
0.000565973
-0.0295704
0.000524781
-0.0296004
0.000449098
-0.0296509
0.000336891
-0.0297402
0.000207322
-0.029861
9.25632e-05
-0.0300252
3.767e-05
-0.0302151
6.63869e-05
-0.0304051
0.000142526
-0.0305784
0.00021269
-0.0307354
0.000255963
-0.0308794