/*--------------------------------*- C++ -*----------------------------------*\
| =========                 |                                                 |
| \\      /  F ield         | OpenFOAM: The Open Source CFD Toolbox           |
|  \\    /   O peration     | Version:  v2006                                 |
|   \\  /    A nd           | Website:  www.openfoam.com                      |
|    \\/     M anipulation  |                                                 |
\*---------------------------------------------------------------------------*/
FoamFile
{
    version     2.0;
    format      ascii;
    class       volScalarField;
    location    "0";
    object      f;
}
// * * * * * * * * * * * * * * * * * * * * * * * * * * * * * * * * * * * * * //

dimensions      [0 0 0 0 0 0 0];


internalField   nonuniform List<scalar> 
2500
(
1.65251e-69
-1.13779e-55
-1.91369e-48
1.79536e-43
6.45157e-40
2.26183e-37
1.67489e-34
1.99838e-32
6.63164e-31
1.04798e-29
1.15808e-28
9.19761e-28
4.96588e-27
1.83286e-26
4.68385e-26
8.33005e-26
2.58083e-25
1.45859e-24
5.51909e-24
1.33506e-23
2.26287e-23
2.82351e-23
2.54409e-23
1.37253e-23
-1.6881e-24
-1.32809e-23
-1.71098e-23
-1.46521e-23
-9.77158e-24
-5.38652e-24
-2.52749e-24
-1.0229e-24
-3.56439e-25
-1.04179e-25
-2.31867e-26
-2.16913e-27
1.41328e-27
1.17068e-27
5.88868e-28
2.44421e-28
9.06334e-29
3.10592e-29
1.00142e-29
3.0697e-30
9.00261e-31
2.53561e-31
6.87396e-32
1.796e-32
4.52598e-33
4.37555e-34
1.92588e-67
-4.01979e-54
-4.52425e-47
2.54478e-42
7.0314e-39
1.07894e-36
1.00082e-33
1.1194e-31
3.36848e-30
4.7033e-29
4.63508e-28
3.374e-27
1.68628e-26
5.66637e-26
1.26703e-25
1.74981e-25
5.33219e-25
3.57491e-24
1.39356e-23
3.32683e-23
5.48813e-23
6.63331e-23
5.76744e-23
2.92126e-23
-6.2642e-24
-3.17012e-23
-3.89573e-23
-3.23467e-23
-2.10102e-23
-1.13216e-23
-5.22189e-24
-2.09711e-24
-7.37743e-25
-2.25631e-25
-5.79626e-26
-1.10604e-26
-5.68676e-28
8.13008e-28
5.52027e-28
2.52181e-28
9.7578e-29
3.41961e-29
1.11772e-29
3.45968e-30
1.02263e-30
2.89996e-31
7.90903e-32
2.07713e-32
5.25653e-33
5.79375e-34
1.7925e-65
-1.13292e-52
-8.98787e-46
3.04272e-41
6.79065e-38
1.10197e-36
5.06516e-33
5.69402e-31
1.60952e-29
2.03847e-28
1.83255e-27
1.25267e-26
5.94907e-26
1.85472e-25
3.63224e-25
3.39874e-25
1.06797e-24
9.79099e-24
4.02999e-23
9.65048e-23
1.57322e-22
1.87014e-22
1.59618e-22
7.81208e-23
-2.11865e-23
-9.09151e-23
-1.09103e-22
-8.90339e-23
-5.68979e-23
-3.02032e-23
-1.37605e-23
-5.48619e-24
-1.93296e-24
-6.01772e-25
-1.62949e-25
-3.63775e-26
-5.41151e-27
3.43506e-28
7.17973e-28
3.88497e-28
1.60864e-28
5.84899e-29
1.95878e-29
6.17524e-30
1.85308e-30
5.32347e-31
1.46828e-31
3.89365e-32
9.93473e-33
1.18165e-33
1.55465e-63
-2.96043e-51
-1.69922e-44
3.49668e-40
6.52997e-37
-4.28313e-35
2.2789e-32
2.77016e-30
7.46742e-29
8.62061e-28
7.06944e-27
4.54995e-26
2.06864e-25
5.97324e-25
9.90885e-25
3.08439e-25
1.22279e-24
2.54229e-23
1.1324e-22
2.735e-22
4.41627e-22
5.1715e-22
4.34465e-22
2.07246e-22
-6.47053e-23
-2.52617e-22
-2.97693e-22
-2.39088e-22
-1.50277e-22
-7.84735e-23
-3.52366e-23
-1.39027e-23
-4.88266e-24
-1.53422e-24
-4.29262e-25
-1.04515e-25
-2.05693e-26
-2.31707e-27
5.09824e-28
4.94265e-28
2.37179e-28
9.24278e-29
3.22915e-29
1.04923e-29
3.2237e-30
9.44119e-31
2.64601e-31
7.11048e-32
1.8341e-32
2.33792e-33
1.22079e-61
-6.98466e-50
-3.03046e-43
3.83651e-39
6.23317e-36
-6.60357e-34
8.17491e-32
1.27421e-29
3.35231e-28
3.55156e-27
2.65735e-26
1.6163e-25
7.11768e-25
1.90759e-24
2.56971e-24
-1.55549e-24
-3.13519e-24
6.15487e-23
3.08381e-22
7.56338e-22
1.21294e-21
1.40155e-21
1.16223e-21
5.45629e-22
-1.82639e-22
-6.80654e-22
-7.91739e-22
-6.26625e-22
-3.87213e-22
-1.98616e-22
-8.77022e-23
-3.41452e-23
-1.19072e-23
-3.75337e-24
-1.07189e-24
-2.75262e-25
-6.18527e-26
-1.11502e-26
-1.02144e-27
3.59486e-28
2.85484e-28
1.29959e-28
4.91899e-29
1.68256e-29
5.36434e-30
1.61604e-30
4.63055e-31
1.26631e-31
3.31172e-32
4.50117e-33
8.12383e-60
-1.41196e-48
-5.02396e-42
3.9836e-38
5.87997e-35
-6.94104e-33
1.26381e-31
5.43085e-29
1.44946e-27
1.42249e-26
9.71135e-26
5.60963e-25
2.43342e-24
6.10512e-24
6.39032e-24
-1.25671e-23
-3.10885e-23
1.34539e-22
8.11262e-22
2.03811e-21
3.25636e-21
3.71948e-21
3.05317e-21
1.42557e-21
-4.80423e-22
-1.77878e-21
-2.0529e-21
-1.60324e-21
-9.73466e-22
-4.89674e-22
-2.12137e-22
-8.12682e-23
-2.8045e-23
-8.8276e-24
-2.55241e-24
-6.78543e-25
-1.64466e-25
-3.53463e-26
-6.17558e-27
-5.60464e-28
1.86851e-28
1.48493e-28
6.71836e-29
2.52177e-29
8.52474e-30
2.67443e-30
7.89252e-31
2.20626e-31
5.86591e-32
8.46754e-33
3.62953e-58
-2.13718e-47
-7.53085e-41
3.86617e-37
5.45254e-34
-6.16296e-32
-1.46854e-30
2.0585e-28
5.99876e-27
5.52471e-26
3.43822e-25
1.8977e-24
8.29461e-24
1.98089e-23
1.57627e-23
-6.04665e-23
-1.57254e-22
2.45565e-22
2.05304e-21
5.34342e-21
8.53703e-21
9.65724e-21
7.86948e-21
3.69412e-21
-1.17693e-21
-4.50716e-21
-5.18955e-21
-4.00468e-21
-2.38775e-21
-1.17566e-21
-4.98395e-22
-1.87321e-22
-6.37681e-23
-1.99694e-23
-5.81309e-24
-1.58152e-24
-4.0187e-25
-9.44321e-26
-1.99308e-26
-3.46757e-27
-3.2793e-28
9.43598e-29
7.77436e-29
3.50919e-29
1.30107e-29
4.31473e-30
1.32069e-30
3.78628e-31
1.02492e-31
1.56552e-32
-8.52057e-57
-1.1404e-46
-9.57852e-40
3.44078e-36
4.9422e-33
-4.90341e-31
-2.14085e-29
6.21511e-28
2.35619e-26
2.07451e-25
1.17272e-24
6.22993e-24
2.82253e-23
6.57265e-23
4.17323e-23
-2.38991e-22
-6.44574e-22
2.7284e-22
4.96944e-21
1.36059e-20
2.18327e-20
2.45086e-20
1.98816e-20
9.48346e-21
-2.6597e-21
-1.10632e-20
-1.27879e-20
-9.76619e-21
-5.71335e-21
-2.74735e-21
-1.13627e-21
-4.17624e-22
-1.39807e-22
-4.34233e-23
-1.2675e-23
-3.50234e-24
-9.17422e-25
-2.26599e-25
-5.19591e-26
-1.06552e-26
-1.75652e-27
-1.26678e-28
6.73974e-29
4.61025e-29
1.95672e-29
6.93434e-30
2.20582e-30
6.47994e-31
1.78276e-31
2.8679e-32
-4.86481e-54
5.35284e-45
-8.29177e-39
2.71551e-35
4.35411e-32
-3.57672e-30
-1.94285e-28
8.03822e-28
8.67888e-26
7.50936e-25
3.82032e-24
1.96948e-23
9.56901e-23
2.23289e-22
1.30989e-22
-8.34368e-22
-2.34858e-21
-4.44153e-22
1.14096e-20
3.3578e-20
5.44067e-20
6.07385e-20
4.918e-20
2.40761e-20
-5.4113e-21
-2.62664e-20
-3.07076e-20
-2.32518e-20
-1.33327e-20
-6.24416e-21
-2.51033e-21
-8.98842e-22
-2.9493e-22
-9.0614e-23
-2.64455e-23
-7.38205e-24
-1.97054e-24
-4.99722e-25
-1.18759e-25
-2.57535e-26
-4.78818e-27
-6.12541e-28
3.36912e-29
6.35678e-29
3.10073e-29
1.15822e-29
3.78111e-30
1.12702e-30
3.12789e-31
5.26068e-32
-7.98819e-52
9.81892e-44
2.99616e-38
1.76655e-34
3.7087e-31
-2.41353e-29
-1.48433e-27
-7.88371e-27
2.94652e-25
2.616e-24
1.17241e-23
5.91762e-23
3.21287e-22
7.70353e-22
4.94426e-22
-2.63259e-21
-7.86578e-21
-4.48402e-21
2.45205e-20
8.012e-20
1.31958e-19
1.46847e-19
1.18969e-19
6.03047e-20
-9.31741e-21
-6.0183e-20
-7.18258e-20
-5.40443e-20
-3.03342e-20
-1.37883e-20
-5.36373e-21
-1.86232e-21
-5.96752e-22
-1.80947e-22
-5.26983e-23
-1.48004e-23
-3.98813e-24
-1.01953e-24
-2.43185e-25
-5.26694e-26
-9.75544e-27
-1.25603e-27
5.2774e-29
1.18089e-28
5.74663e-29
2.12815e-29
6.88805e-30
2.038e-30
5.62214e-31
9.77626e-32
-9.90735e-50
-1.13491e-41
3.76816e-36
7.36585e-34
3.03899e-30
-1.50798e-28
-1.03675e-26
-9.5134e-26
8.98862e-25
8.79045e-24
3.31223e-23
1.6515e-22
1.05803e-21
2.6578e-21
2.04371e-21
-7.52416e-21
-2.4567e-20
-2.04733e-20
4.81723e-20
1.84281e-19
3.11119e-19
3.46016e-19
2.81063e-19
1.48595e-19
-1.08545e-20
-1.32629e-19
-1.63553e-19
-1.22636e-19
-6.72626e-20
-2.95405e-20
-1.10527e-20
-3.69918e-21
-1.15263e-21
-3.44279e-22
-9.99591e-23
-2.81463e-23
-7.58102e-24
-1.9155e-24
-4.42975e-25
-9.00387e-26
-1.45018e-26
-1.03802e-27
4.89431e-28
3.22802e-28
1.30947e-28
4.45156e-29
1.36691e-29
3.90176e-30
1.04916e-30
1.85915e-31
-1.04692e-47
-1.17979e-39
1.19985e-34
-1.97517e-33
2.38454e-29
-8.65778e-28
-6.91004e-26
-7.05442e-25
2.38034e-24
2.88438e-23
8.2468e-23
4.08969e-22
3.37302e-21
9.00325e-21
8.41068e-21
-1.9193e-20
-7.19676e-20
-7.44602e-20
8.22112e-20
4.07037e-19
7.12149e-19
7.9386e-19
6.47516e-19
3.58988e-19
5.89656e-21
-2.79707e-19
-3.62301e-19
-2.71724e-19
-1.45302e-19
-6.12864e-20
-2.18764e-20
-7.00079e-21
-2.11003e-21
-6.20105e-22
-1.79539e-22
-5.04924e-23
-1.34122e-23
-3.25233e-24
-6.86671e-25
-1.13293e-25
-8.09104e-27
3.93861e-27
2.55638e-27
1.02043e-27
3.41481e-28
1.03624e-28
2.94238e-29
7.93119e-30
2.04318e-30
3.6351e-31
-9.71071e-46
-7.23737e-38
2.90313e-33
-8.97249e-32
1.78354e-28
-4.45572e-27
-4.53442e-25
-4.30521e-24
5.40639e-24
9.55081e-23
1.62886e-22
7.97018e-22
1.02398e-20
2.94057e-20
3.27962e-20
-4.17786e-20
-1.97805e-19
-2.38918e-19
1.04496e-19
8.59187e-19
1.58065e-18
1.77186e-18
1.45231e-18
8.47032e-19
9.42767e-20
-5.60082e-19
-7.80042e-19
-5.88097e-19
-3.05672e-19
-1.22801e-19
-4.13354e-20
-1.25002e-20
-3.61937e-21
-1.04696e-21
-3.02959e-22
-8.4619e-23
-2.16528e-23
-4.74436e-24
-7.67053e-25
-2.65752e-26
4.52932e-26
2.53057e-26
9.65622e-27
3.12723e-27
9.19701e-28
2.53531e-28
6.66493e-29
1.68659e-29
4.12679e-30
7.28744e-31
-7.85115e-44
-3.56671e-36
6.13108e-32
-1.37575e-30
1.26527e-27
-1.89584e-26
-2.99656e-24
-2.32135e-23
1.37476e-23
3.39497e-22
1.58599e-22
6.02126e-22
2.89505e-20
9.0995e-20
1.18782e-19
-6.71281e-20
-5.07779e-19
-7.01101e-19
1.75762e-20
1.72239e-18
3.39839e-18
3.84459e-18
3.16537e-18
1.94346e-18
4.07881e-19
-1.05078e-18
-1.63029e-18
-1.24425e-18
-6.26018e-19
-2.36731e-19
-7.3825e-20
-2.07047e-20
-5.70337e-21
-1.63081e-21
-4.74506e-22
-1.30172e-22
-3.04748e-23
-5.0099e-24
1.37288e-26
4.52421e-25
2.43725e-25
9.3413e-26
3.03467e-26
8.87699e-27
2.41193e-27
6.20671e-28
1.53272e-28
3.66372e-29
8.51935e-30
1.48414e-30
-5.24887e-42
-1.54058e-34
1.19291e-30
-1.93513e-29
8.44991e-27
-4.28051e-26
-2.01084e-23
-1.14076e-22
7.92749e-23
1.38819e-21
-5.38002e-22
-4.6705e-21
7.35313e-20
2.61744e-19
3.96014e-19
-1.89444e-20
-1.20421e-18
-1.91039e-18
-4.87132e-19
3.25432e-18
7.07458e-18
8.10656e-18
6.69039e-18
4.31492e-18
1.34447e-18
-1.8011e-18
-3.30143e-18
-2.57679e-18
-1.24789e-18
-4.36461e-19
-1.22456e-19
-3.07689e-20
-7.93688e-21
-2.27878e-21
-6.76417e-22
-1.77327e-22
-3.25134e-23
1.59919e-25
3.55646e-24
2.04601e-24
8.27798e-25
2.80379e-25
8.44361e-26
2.33212e-26
6.02672e-27
1.47866e-27
3.48356e-28
7.94856e-29
1.76715e-29
3.03293e-30
-2.33289e-40
-6.06227e-33
2.21648e-29
-3.27933e-28
5.22152e-26
3.76283e-25
-1.35597e-22
-5.25972e-22
6.82224e-22
6.63554e-21
-3.65212e-21
-3.4618e-20
1.54856e-19
6.81309e-19
1.20582e-18
4.33221e-19
-2.58006e-18
-4.86128e-18
-2.23036e-18
5.75281e-18
1.4274e-17
1.66127e-17
1.36806e-17
9.21778e-18
3.84679e-18
-2.66203e-18
-6.45794e-18
-5.23462e-18
-2.42128e-18
-7.61991e-19
-1.81948e-19
-3.77573e-20
-8.81029e-21
-2.695e-21
-8.47436e-22
-1.9473e-22
-7.33953e-24
2.15083e-23
1.44613e-23
6.43653e-24
2.34138e-24
7.45254e-25
2.14683e-25
5.71536e-26
1.42755e-26
3.38571e-27
7.70137e-28
1.69426e-28
3.6288e-29
6.14495e-30
4.74541e-39
-2.22002e-31
4.06215e-28
-6.50119e-27
2.81847e-25
8.00345e-24
-8.95362e-22
-2.39551e-21
5.07263e-21
3.51548e-20
-9.64811e-21
-1.62684e-19
1.95311e-19
1.52194e-18
3.31096e-18
2.37584e-18
-4.7522e-18
-1.15475e-17
-7.1027e-18
9.52076e-18
2.80176e-17
3.31134e-17
2.69862e-17
1.88188e-17
9.97054e-18
-2.79458e-18
-1.21348e-17
-1.04652e-17
-4.57504e-18
-1.23651e-18
-2.20032e-19
-2.68949e-20
-4.70292e-21
-2.28511e-21
-8.66597e-22
-1.08857e-22
9.35623e-23
8.37668e-23
4.2976e-23
1.72653e-23
5.93284e-24
1.81669e-24
5.07753e-25
1.31669e-25
3.20762e-26
7.41703e-27
1.64257e-27
3.51159e-28
7.29649e-29
1.22224e-29
2.82656e-36
-7.66744e-30
7.54807e-27
-1.27798e-25
9.78385e-25
9.9908e-23
-5.59475e-21
-1.17235e-20
3.02585e-20
1.92562e-19
1.22743e-20
-6.54761e-19
-4.13076e-19
2.47913e-18
7.99002e-18
8.69688e-18
-6.48625e-18
-2.54437e-17
-1.87821e-17
1.52744e-17
5.39262e-17
6.42732e-17
5.11598e-17
3.64e-17
2.38232e-17
5.76321e-19
-2.16713e-17
-2.06889e-17
-8.42905e-18
-1.79049e-18
-1.34073e-19
3.70526e-20
1.12781e-20
-2.54119e-22
-5.78845e-22
2.29329e-22
3.75571e-22
2.39868e-22
1.10464e-22
4.19302e-23
1.38817e-23
4.13372e-24
1.12906e-24
2.86823e-25
6.8509e-26
1.55272e-26
3.36654e-27
7.03439e-28
1.42598e-28
2.36914e-29
4.49796e-34
-2.52061e-28
1.43969e-25
-2.26166e-24
-6.46053e-24
1.03703e-21
-3.17639e-20
-6.58893e-20
1.43279e-19
1.03221e-18
3.15676e-19
-2.53555e-18
-4.88545e-18
1.74618e-19
1.58857e-17
2.53409e-17
-1.53543e-18
-5.12326e-17
-4.25847e-17
2.67793e-17
1.02948e-16
1.21438e-16
9.26805e-17
6.58896e-17
5.27817e-17
1.50982e-17
-3.59853e-17
-4.07151e-17
-1.51874e-17
-2.05333e-18
3.42647e-19
2.26578e-19
4.93024e-20
3.61302e-21
6.14833e-23
1.10018e-21
1.05478e-21
5.96748e-22
2.58937e-22
9.46017e-23
3.04521e-23
8.86688e-24
2.37593e-24
5.93211e-25
1.39363e-25
3.10636e-26
6.61833e-27
1.35715e-27
2.69566e-28
4.45207e-29
5.40338e-32
-7.94002e-27
2.78971e-24
-3.46275e-23
-2.46498e-22
9.34902e-21
-1.54093e-19
-4.14303e-19
5.08788e-19
5.13069e-18
2.35845e-18
-9.82601e-18
-2.90169e-17
-2.26911e-17
2.02358e-17
5.97818e-17
3.09807e-17
-9.1223e-17
-8.07016e-17
6.04232e-17
1.96265e-16
2.21287e-16
1.58785e-16
1.09442e-16
1.08028e-16
5.99897e-17
-5.2805e-17
-8.04515e-17
-2.69474e-17
-8.2033e-19
1.83151e-18
6.71389e-19
1.17784e-19
6.4552e-21
6.22024e-22
3.02361e-21
2.55751e-21
1.35995e-21
5.66597e-22
2.00891e-22
6.31556e-23
1.80322e-23
4.7504e-24
1.16792e-24
2.70398e-25
5.94029e-26
1.24682e-26
2.5164e-27
4.91334e-28
8.08107e-29
5.58907e-30
-2.40907e-25
5.34207e-23
-4.43834e-22
-4.89905e-21
7.15923e-20
-5.41173e-19
-2.72571e-18
1.06207e-18
2.16795e-17
1.33133e-17
-3.46816e-17
-1.55773e-16
-1.45143e-16
-2.07385e-17
1.08551e-16
1.50617e-16
-1.32017e-16
-1.16476e-16
1.70578e-16
3.67106e-16
3.73248e-16
2.5156e-16
1.61005e-16
2.00523e-16
1.81889e-16
-5.87562e-17
-1.61082e-16
-4.78654e-17
5.28543e-18
5.67439e-18
1.5627e-18
2.03845e-19
-3.63805e-21
-4.42434e-22
7.00842e-21
5.70213e-21
2.90652e-21
1.17113e-21
4.04367e-22
1.24403e-22
3.48793e-23
9.04431e-24
2.19211e-24
5.00778e-25
1.08589e-25
2.24929e-26
4.47744e-27
8.61481e-28
1.41295e-28
5.20485e-28
-7.07463e-24
9.78374e-22
-4.4176e-21
-8.21705e-20
4.37155e-19
-3.45251e-20
-1.87457e-17
-1.12697e-18
6.49991e-17
6.65049e-17
-1.03767e-16
-1.18914e-15
-8.71649e-16
-3.15094e-16
1.35382e-16
6.2507e-16
-1.10192e-16
-1.02857e-16
5.16863e-16
6.29846e-16
5.11268e-16
3.4879e-16
1.95928e-16
3.22469e-16
5.01503e-16
-1.09605e-17
-3.28136e-16
-8.84014e-17
2.52316e-17
1.45847e-17
3.07586e-18
2.19337e-19
-5.91932e-20
-6.33347e-21
1.51686e-20
1.2023e-20
5.89557e-21
2.30092e-21
7.74342e-22
2.33283e-22
6.42655e-23
1.64129e-23
3.9245e-24
8.85372e-25
1.89693e-25
3.88268e-26
7.63497e-27
1.45031e-27
2.37454e-28
4.46359e-26
-2.02463e-22
1.65924e-20
-2.36373e-20
-1.22693e-18
1.85224e-18
2.50092e-17
-2.05538e-16
-2.12059e-17
7.42223e-16
3.65181e-16
-4.49372e-15
-9.21827e-15
-5.05752e-15
-2.17121e-15
2.55761e-16
5.98627e-15
1.46892e-16
2.78326e-15
1.73181e-15
8.73768e-16
-1.35518e-16
3.57438e-16
1.72222e-16
4.15669e-16
1.49343e-15
2.03344e-16
-6.86857e-16
-1.83346e-16
8.29884e-17
3.3641e-17
5.0161e-18
-1.23148e-19
-2.30639e-19
-2.07921e-20
3.21944e-20
2.43181e-20
1.14184e-20
4.30945e-21
1.41274e-21
4.16733e-22
1.12819e-22
2.83881e-23
6.69968e-24
1.49357e-24
3.1643e-25
6.40633e-26
1.24599e-26
2.34021e-27
3.82787e-28
3.59509e-24
-5.7168e-21
2.50003e-19
3.247e-19
-1.70071e-17
3.20861e-18
3.87123e-16
-6.72598e-15
1.4139e-14
3.36475e-14
2.63112e-15
-1.83901e-13
-2.67112e-14
-1.11512e-14
-8.37026e-15
1.55787e-13
3.55992e-14
-1.80494e-16
3.24083e-14
5.24559e-15
-8.1598e-14
-2.15784e-14
6.66507e-17
8.50876e-17
1.04692e-15
6.02673e-15
7.2171e-16
-2.52953e-15
-4.76959e-16
2.48403e-16
7.11327e-17
5.6718e-18
-1.55018e-18
-6.39796e-19
-4.09871e-20
6.85301e-20
4.7485e-20
2.11627e-20
7.69841e-21
2.45503e-21
7.08741e-22
1.8855e-22
4.67544e-23
1.0895e-23
2.40136e-24
5.03418e-25
1.00896e-25
1.94289e-26
3.61257e-27
5.90714e-28
2.80139e-22
-1.62505e-19
3.05846e-18
1.60267e-17
-5.68349e-16
1.26845e-15
2.18246e-15
-3.92361e-14
5.67412e-13
1.76163e-13
-1.69367e-12
-1.28017e-12
3.2623e-11
2.84319e-11
4.75061e-12
9.99107e-13
7.10687e-14
-1.1205e-12
8.7461e-14
-1.47461e-12
-1.96196e-12
-1.11975e-13
1.42421e-12
7.18214e-14
6.05981e-14
2.20596e-14
-1.67822e-15
-2.02132e-14
-1.30127e-15
7.80057e-16
1.35178e-16
-1.34798e-18
-5.57996e-18
-1.43095e-18
-3.52455e-20
1.46315e-19
8.95622e-20
3.75051e-20
1.30982e-20
4.05667e-21
1.14549e-21
2.99456e-22
7.31951e-23
1.68483e-23
3.67344e-24
7.62493e-25
1.51396e-25
2.88899e-26
5.32356e-27
8.70652e-28
2.22078e-20
-4.77837e-18
2.70787e-17
3.68421e-16
-1.19566e-14
2.2505e-13
-2.2655e-12
5.0265e-12
2.64414e-12
-3.20856e-11
-4.1451e-11
8.3028e-11
3.67445e-10
2.77791e-10
9.40983e-11
3.37198e-12
-1.33309e-11
-7.03742e-11
-7.17964e-12
-4.87189e-11
-7.99594e-12
1.28394e-10
1.98255e-11
8.8763e-13
3.52865e-13
4.37421e-14
-3.45959e-13
-9.20097e-14
4.17117e-16
2.86757e-15
1.96603e-16
-3.45738e-17
-1.46771e-17
-2.59405e-18
1.08546e-19
3.08271e-19
1.62453e-19
6.33329e-20
2.1154e-20
6.35366e-21
1.75422e-21
4.50722e-22
1.08642e-22
2.47159e-23
5.33382e-24
1.0969e-24
2.15915e-25
4.08612e-26
7.46876e-27
1.22221e-27
1.89753e-18
-1.7773e-16
3.40707e-15
-2.79107e-14
3.18139e-14
1.06436e-12
-1.51079e-11
2.06738e-10
-5.7222e-10
-1.24894e-09
-2.18764e-10
3.63717e-09
2.87035e-09
5.8313e-10
5.12853e-10
-2.03578e-08
-3.13693e-09
-2.86094e-10
-3.55562e-09
-7.92963e-10
3.23346e-09
1.43128e-09
5.98198e-11
4.07889e-12
1.00547e-12
-2.32706e-12
-1.83153e-12
-1.81983e-13
3.98254e-14
1.07008e-14
-1.37548e-17
-1.35198e-16
-3.06923e-17
-3.43399e-18
6.72715e-19
6.25839e-19
2.80894e-19
1.01258e-19
3.22554e-20
9.3878e-21
2.53483e-21
6.40503e-22
1.52361e-22
3.42832e-23
7.32813e-24
1.49409e-24
2.91747e-25
5.4792e-26
9.94144e-27
1.62821e-27
1.28836e-16
-3.52115e-15
6.44443e-14
-1.15582e-12
1.71068e-11
-1.60682e-10
3.36808e-10
8.74575e-10
-1.01025e-08
-6.38408e-09
9.67356e-08
1.74046e-07
3.19998e-08
-1.24349e-06
-5.31562e-07
-2.64416e-07
-1.82766e-08
-2.36187e-09
-1.7828e-08
-3.51688e-09
8.5203e-08
5.22357e-09
2.20492e-11
1.29601e-11
-1.12482e-14
-2.49057e-11
-5.27741e-12
9.42845e-14
2.04269e-13
2.24093e-14
-1.29544e-15
-3.58219e-16
-4.74802e-17
-1.52616e-18
2.20112e-18
1.19342e-18
4.57012e-19
1.51834e-19
4.60764e-20
1.30007e-20
3.43692e-21
8.55173e-22
2.00998e-22
4.47781e-23
9.48807e-24
1.91906e-24
3.7192e-25
6.9347e-26
1.2495e-26
2.04804e-27
7.75821e-16
-9.0261e-15
1.95212e-13
-4.56078e-12
8.39596e-11
-1.22305e-09
1.70017e-08
-5.5106e-08
-3.98166e-08
3.5284e-07
1.46923e-06
7.76914e-07
-8.12e-06
-9.11179e-06
-7.04813e-06
-7.36786e-07
-1.65331e-08
-5.75571e-08
7.54805e-06
7.34552e-06
4.21643e-07
-5.85649e-10
9.64463e-11
3.02826e-11
-2.76684e-10
-1.03507e-10
-6.50924e-12
2.85638e-12
6.75453e-13
1.24467e-14
-4.32899e-15
-6.59966e-16
-3.72514e-17
8.13311e-18
5.4294e-18
2.08226e-18
6.87518e-19
2.10724e-19
6.10175e-20
1.67314e-20
4.34188e-21
1.06625e-21
2.48053e-22
5.47806e-23
1.15155e-23
2.31154e-24
4.44682e-25
8.23124e-26
1.47258e-26
2.41401e-27
-6.83989e-13
8.04489e-12
-7.85613e-11
5.64851e-10
-2.84969e-09
2.63261e-09
6.96262e-08
-6.56478e-07
3.06077e-07
5.93809e-06
5.35162e-06
-5.50541e-05
-7.88711e-05
-1.84325e-05
-1.43946e-05
0.0016785
0.00316828
0.00258749
0.000964533
8.33062e-05
-3.27302e-08
-1.88258e-09
4.6581e-10
-9.55491e-10
-1.48481e-09
-2.29121e-10
2.4634e-11
1.22685e-11
1.05439e-12
-4.34238e-14
-1.59667e-14
-7.31342e-16
5.19246e-17
3.13223e-17
1.07531e-17
3.22982e-18
9.3454e-19
2.65881e-19
7.38782e-20
1.97967e-20
5.06662e-21
1.23227e-21
2.84404e-22
6.23398e-23
1.30059e-23
2.59032e-24
4.94251e-25
9.07184e-26
1.60917e-26
2.63323e-27
-2.29573e-11
8.46048e-11
-4.82333e-10
4.79845e-09
-5.43402e-08
3.59135e-07
-9.53908e-07
-1.9231e-06
9.02225e-06
2.2189e-05
-0.000157046
-0.000493663
-0.0003332
0.00531742
0.0205101
0.0323598
0.0295634
0.0166773
0.00486846
0.000277627
-2.5891e-09
-9.08951e-12
1.0599e-09
-1.55819e-08
-4.53606e-09
-1.78945e-10
1.33259e-10
3.17887e-11
5.02484e-13
-2.12163e-13
-3.89786e-14
1.46475e-16
2.25862e-16
6.74768e-17
1.71505e-17
4.29995e-18
1.11261e-18
2.97719e-19
8.03603e-20
2.12629e-20
5.40745e-21
1.30861e-21
3.00309e-22
6.53644e-23
1.35212e-23
2.66637e-24
5.03116e-25
9.12303e-26
1.59776e-26
2.59729e-27
-2.01716e-10
2.06457e-10
-6.38198e-10
7.41219e-09
-1.65286e-07
1.64756e-06
-1.26275e-05
1.98966e-05
5.36772e-05
-1.52248e-05
-0.00136942
-0.00139708
0.0179805
0.0667956
0.113586
0.12568
0.0960061
0.0483793
0.0131355
0.00062976
1.7709e-09
-2.22123e-08
-1.70916e-07
-7.35611e-08
-6.46032e-09
1.12481e-09
4.87642e-10
4.05577e-11
-1.86446e-12
-7.79073e-13
-4.89841e-14
1.64443e-15
5.2116e-16
1.04553e-16
2.15062e-17
4.67163e-18
1.10846e-18
2.86447e-19
7.69765e-20
2.04735e-20
5.22791e-21
1.26457e-21
2.88656e-22
6.22223e-23
1.26992e-23
2.46255e-24
4.55543e-25
8.07687e-26
1.38031e-26
2.19989e-27
-3.15832e-10
-1.40712e-09
1.78585e-08
-1.8006e-07
1.22321e-06
3.65882e-07
-3.63454e-05
0.000197061
0.000169378
-0.00226991
-0.00404541
0.0208106
0.108981
0.231096
0.309162
0.296394
0.206689
0.0983704
0.0258704
0.00116515
-6.94043e-07
-1.75109e-06
-1.01886e-06
-1.90603e-07
4.34946e-09
4.94718e-09
1.14099e-09
1.7048e-11
-7.41438e-12
-1.73498e-12
-2.6389e-14
4.58597e-15
8.61228e-16
1.14137e-16
1.93553e-17
3.72979e-18
8.54532e-19
2.27911e-19
6.41472e-20
1.76166e-20
4.55915e-21
1.10092e-21
2.48035e-22
5.2296e-23
1.03565e-23
1.93319e-24
3.41318e-25
5.722e-26
9.15628e-27
1.36097e-27
1.1632e-07
-1.49023e-07
2.90579e-07
-5.38213e-07
7.30994e-06
-5.14315e-05
4.20535e-05
0.000651237
-0.00191136
-0.00913338
0.00276958
0.105075
0.301296
0.505623
0.589384
0.519317
0.340081
0.155459
0.0399599
0.00172256
-9.91541e-06
-8.51407e-06
-3.08082e-06
-2.59169e-07
3.1023e-08
1.59541e-08
1.8228e-09
-5.22954e-11
-2.32932e-11
-2.11224e-12
4.1955e-14
1.39082e-14
9.10806e-16
5.58482e-17
7.59896e-18
1.45025e-18
4.35569e-19
1.50763e-19
4.86791e-20
1.40474e-20
3.63816e-21
8.54453e-22
1.83428e-22
3.61382e-23
6.53055e-24
1.0752e-24
1.58496e-25
2.00624e-26
1.92627e-27
5.35281e-29
8.45747e-07
-1.80971e-06
2.79667e-06
2.54224e-06
-2.03009e-05
-0.000157659
0.000815965
0.000709042
-0.00933827
-0.0152621
0.0606229
0.269612
0.573631
0.825732
0.871418
0.718625
0.447799
0.197282
0.0490686
0.00191544
-3.69126e-05
-2.4963e-05
-6.12856e-06
-6.95495e-08
1.03123e-07
3.35873e-08
1.45501e-09
-1.8127e-10
-4.52429e-11
-1.19322e-12
1.38172e-13
2.46836e-14
1.33578e-16
-5.26275e-17
-9.77493e-18
-9.30737e-19
1.54431e-19
1.18447e-19
4.25098e-20
1.18349e-20
2.80122e-21
5.77432e-22
1.02834e-22
1.50023e-23
1.43122e-24
-7.32788e-26
-8.55047e-26
-2.92152e-26
-7.58806e-27
-1.6716e-27
-2.46199e-06
-7.92422e-06
2.20623e-05
-6.36237e-06
-0.000221422
0.000682284
0.00236936
-0.00723568
-0.0246641
0.011165
0.174194
0.480074
0.837033
1.06319
1.04461
0.812748
0.482432
0.203481
0.0482891
0.0013622
-0.000103693
-5.19683e-05
-7.6133e-06
4.95675e-07
2.70782e-07
4.41028e-08
-1.30002e-09
-5.17616e-10
-4.86256e-11
1.25148e-12
3.86351e-13
1.51256e-14
-1.18931e-15
-1.78199e-16
-1.98132e-17
-9.05962e-19
4.39302e-19
1.98459e-19
5.54928e-20
1.23198e-20
2.22492e-21
2.95123e-22
1.08823e-23
-1.00219e-23
-4.66089e-24
-1.44168e-24
-3.73995e-25
-8.69131e-26
-1.86141e-26
-3.66928e-27
-4.18382e-05
-2.95438e-06
0.000131774
-0.000395431
-0.000386167
0.00417906
0.000758549
-0.0273379
-0.0350306
0.063006
0.309994
0.657145
0.981256
1.13044
1.04825
0.767829
0.425417
0.164284
0.0326539
-1.52492e-05
-0.000243796
-7.59823e-05
-3.13599e-06
1.30349e-06
4.53686e-07
2.63161e-08
-3.1344e-09
-7.87321e-10
-1.91559e-11
3.17757e-12
5.07099e-13
-1.95704e-14
-3.52229e-15
-1.6178e-16
-3.35408e-18
3.78193e-18
1.50869e-18
3.98899e-19
8.43829e-20
1.43385e-20
1.66023e-21
-3.10032e-23
-9.58174e-23
-3.85335e-23
-1.14446e-23
-2.93069e-24
-6.81146e-25
-1.47118e-25
-2.99089e-26
-5.70028e-27
-1.02953e-05
0.000311698
0.000318475
-0.00179312
0.000764839
0.00950515
-0.00673483
-0.0505825
-0.037905
0.119026
0.401134
0.724088
0.974507
1.01892
0.872831
0.583169
0.28724
0.0916614
0.0100837
-0.000996268
-0.000459141
-7.45293e-05
5.57172e-06
2.75197e-06
4.43586e-07
-2.11894e-08
-7.15948e-09
-4.56738e-10
3.38638e-11
6.77013e-12
-1.27361e-13
-6.12586e-14
-4.11556e-15
1.29352e-16
4.3357e-17
1.2231e-17
2.96156e-18
6.15144e-19
1.06781e-19
1.37142e-20
4.28093e-22
-4.92607e-22
-2.25581e-22
-7.0216e-23
-1.85073e-23
-4.40275e-24
-9.71911e-25
-2.02011e-25
-3.98712e-26
-7.45809e-27
0.000639212
0.00114781
-0.000551976
-0.0043841
0.0036833
0.0140614
-0.016223
-0.066973
-0.0356575
0.137235
0.398185
0.652748
0.79218
0.773016
0.599926
0.348097
0.136084
0.0237892
-0.00447711
-0.00217675
-0.000495796
1.12276e-06
1.01035e-05
2.93853e-06
7.59276e-08
-3.38511e-08
-6.52415e-09
3.68794e-10
7.66965e-11
-1.52096e-13
-8.80664e-13
-1.25031e-13
1.58026e-15
3.8134e-16
8.3173e-17
1.83292e-17
3.72109e-18
6.56448e-19
9.04296e-20
5.43978e-21
-2.14663e-21
-1.15775e-21
-3.79483e-22
-1.03143e-22
-2.51325e-23
-5.66966e-24
-1.20378e-24
-2.4283e-25
-4.68103e-26
-8.62895e-27
-0.00109654
-0.0011043
-0.00474862
-0.00660972
0.0092868
0.0189722
-0.0189704
-0.0673004
-0.0360794
0.0950247
0.274343
0.443188
0.520121
0.47069
0.315152
0.138601
0.0232499
-0.0138367
-0.00734893
-0.00224964
-0.000173927
4.88276e-05
1.44496e-05
3.10366e-07
-3.07483e-07
-6.02705e-08
4.88521e-09
1.38956e-09
6.45288e-11
-9.08458e-12
-1.89376e-12
-4.2131e-15
1.47071e-15
3.67126e-16
7.79483e-17
1.60072e-17
2.85912e-18
3.89529e-19
1.84123e-20
-1.20549e-20
-6.05351e-21
-1.97021e-21
-5.38073e-22
-1.32341e-22
-3.02156e-23
-6.50664e-24
-1.33384e-24
-2.61798e-25
-4.93765e-26
-8.97887e-27
-0.00453459
-0.00416581
-0.00650533
-0.00110849
0.020168
0.0266869
-0.00868182
-0.0473704
-0.040325
0.0113564
0.0979253
0.195489
0.230407
0.180525
0.0790355
-0.00317123
-0.0302653
-0.0178531
-0.00617467
-0.000642461
0.000268679
7.15254e-05
-4.10266e-06
-2.92189e-06
-4.68451e-07
3.47603e-08
1.32469e-08
1.38929e-09
-5.66131e-11
-1.78382e-11
-7.15195e-13
7.95518e-15
1.41407e-15
2.19013e-16
4.36059e-17
7.37601e-18
7.33222e-19
-1.04264e-19
-8.90938e-20
-3.39919e-20
-1.02442e-20
-2.71629e-21
-6.60599e-22
-1.50496e-22
-3.25173e-23
-6.71561e-24
-1.33238e-24
-2.54767e-25
-4.70449e-26
-8.44036e-27
0.00855985
0.00940151
0.00868374
0.0135312
0.0272318
0.0286789
0.00825339
-0.0161899
-0.0348312
-0.0421424
-0.0222836
0.0137355
0.0117861
-0.0217305
-0.0546802
-0.054746
-0.0299605
-0.00858763
0.000223341
0.00112563
0.000334273
-1.54828e-05
-1.78828e-05
-4.61268e-06
-1.42079e-08
5.20874e-08
1.32096e-08
1.26164e-10
-7.48391e-11
-1.41995e-11
5.93858e-14
1.56373e-14
4.46718e-16
1.68521e-17
-2.07901e-18
-3.33357e-18
-1.65173e-18
-6.01729e-19
-1.85924e-19
-5.14366e-20
-1.30959e-20
-3.11989e-21
-7.03393e-22
-1.51312e-22
-3.12462e-23
-6.22111e-24
-1.1978e-24
-2.23439e-25
-4.04239e-26
-7.15588e-27
0.0117274
0.0119105
0.0100265
0.0092965
0.0122169
0.0134591
0.0125719
0.00720625
-0.0124258
-0.0346623
-0.0425472
-0.0512175
-0.0669268
-0.0774032
-0.0626738
-0.0297182
-0.00284882
0.00678922
0.00419595
0.00120408
4.82146e-06
-5.76682e-05
-2.34698e-05
-2.11121e-06
2.60685e-07
7.17331e-08
3.25449e-09
-5.37976e-10
-1.19012e-10
6.75413e-13
2.82739e-14
-3.05543e-15
-6.36744e-16
-1.35077e-16
-3.69249e-17
-1.07725e-17
-3.11483e-18
-8.65033e-19
-2.27864e-19
-5.67686e-20
-1.34019e-20
-3.01063e-21
-6.46766e-22
-1.33533e-22
-2.66126e-23
-5.13771e-24
-9.63181e-25
-1.75608e-25
-3.11567e-26
-5.44332e-27
0.00381482
0.00356884
0.00148886
-0.00172936
-0.00472037
-0.00389774
0.00366702
0.00953859
0.0062001
3.04018e-05
-0.00912252
-0.0258494
-0.0376661
-0.028875
-0.00398467
0.016051
0.0193513
0.011625
0.00394956
0.000343026
-0.000135789
-6.58454e-05
-8.99036e-06
1.54626e-06
4.05167e-07
4.39471e-09
-3.27493e-09
-7.16734e-10
5.70213e-11
1.22892e-11
1.40842e-13
-5.74439e-15
-1.02077e-15
-1.68414e-16
-4.04389e-17
-1.08304e-17
-2.95407e-18
-7.87021e-19
-2.00637e-19
-4.85653e-20
-1.1155e-20
-2.43879e-21
-5.09914e-22
-1.02492e-22
-1.99011e-23
-3.74824e-24
-6.86824e-25
-1.22668e-25
-2.13713e-26
-3.68678e-27
-0.00221157
-0.00268738
-0.00307793
-0.00389645
-0.00571552
-0.00572972
-0.00291046
0.000400476
0.00551503
0.0114022
0.010839
0.0042864
0.00626859
0.0198699
0.0316609
0.0293867
0.018715
0.00733084
0.00128643
-0.000196199
-0.000105482
-1.62004e-05
4.86041e-06
1.46951e-06
-3.13121e-08
-1.8654e-08
-2.19402e-09
5.08165e-10
1.2785e-10
4.66582e-12
-9.19181e-14
-1.25087e-14
-6.72844e-17
-2.90853e-17
-1.35932e-17
-5.04776e-18
-1.64767e-18
-4.85405e-19
-1.30736e-19
-3.25268e-20
-7.5474e-21
-1.64813e-21
-3.41587e-22
-6.77162e-23
-1.29279e-23
-2.39035e-24
-4.2988e-25
-7.54061e-26
-1.29202e-26
-2.20235e-27
-0.000978867
-0.00102574
-0.00040695
0.000661039
0.00129484
0.000956435
-0.00106644
-0.00290364
-0.00079035
0.0030158
0.00241292
0.00171977
0.00676411
0.0169334
0.0194271
0.0147003
0.00731657
0.00197564
-7.32652e-06
3.9051e-05
3.28044e-05
1.19264e-05
1.36701e-06
-5.3868e-07
-1.49132e-07
-1.01291e-08
1.7259e-09
4.29531e-10
-8.18652e-12
-2.16723e-12
-1.59663e-13
5.79593e-15
7.69115e-16
7.70151e-17
8.42929e-18
4.68839e-20
-4.28793e-19
-1.93961e-19
-6.24195e-20
-1.69825e-20
-4.12919e-21
-9.22396e-22
-1.92666e-22
-3.81188e-23
-7.21649e-24
-1.31782e-24
-2.33557e-25
-4.03438e-26
-6.80924e-27
-1.14772e-27
0.000747984
0.000865116
0.000992375
0.00118048
0.00154845
0.00168394
0.000538487
-0.000796855
-2.59861e-06
5.2042e-05
-0.00419842
-0.00954255
-0.00894312
-0.00359134
0.00137354
0.00254168
0.00182497
0.000915506
0.000495194
0.000160898
2.40419e-05
-3.9051e-06
-1.69531e-06
-2.84129e-07
1.67266e-08
6.54734e-09
1.04807e-09
-1.21743e-10
-3.24953e-11
-2.06531e-12
6.8923e-14
1.0567e-14
2.83474e-16
3.95644e-17
7.96862e-18
1.18615e-18
5.73729e-20
-4.26621e-20
-2.15691e-20
-6.93696e-21
-1.83082e-21
-4.26883e-22
-9.10571e-23
-1.81488e-23
-3.43035e-24
-6.2173e-25
-1.0896e-25
-1.85751e-26
-3.09218e-27
-5.15592e-28
-0.000352344
-0.000392094
-0.000701953
-0.00129234
-0.00117025
-0.000629697
-0.00131336
-0.00121959
0.00267496
0.00529472
5.6496e-05
-0.00839133
-0.0104425
-0.00611649
-0.000485081
0.00212317
0.0020854
0.00140749
0.000538589
7.49454e-05
-1.43925e-05
-6.19873e-06
-8.46824e-07
1.26822e-07
4.50754e-08
4.04018e-09
-4.49129e-10
-1.18587e-10
-2.38373e-13
5.20037e-13
8.6467e-14
-1.47246e-15
-1.67213e-16
-1.43194e-17
-3.68998e-19
2.15119e-19
3.91601e-20
-6.30704e-21
-6.10811e-21
-2.35211e-21
-6.77576e-22
-1.65638e-22
-3.62213e-23
-7.29732e-24
-1.38101e-24
-2.48986e-25
-4.32183e-26
-7.27818e-27
-1.19538e-27
-1.97102e-28
6.79763e-05
-6.69758e-06