/*--------------------------------*- C++ -*----------------------------------*\
| =========                 |                                                 |
| \\      /  F ield         | OpenFOAM: The Open Source CFD Toolbox           |
|  \\    /   O peration     | Version:  v2006                                 |
|   \\  /    A nd           | Website:  www.openfoam.com                      |
|    \\/     M anipulation  |                                                 |
\*---------------------------------------------------------------------------*/
FoamFile
{
    version     2.0;
    format      ascii;
    class       surfaceScalarField;
    location    "10.8";
    object      alphaPhi0.water;
}
// * * * * * * * * * * * * * * * * * * * * * * * * * * * * * * * * * * * * * //

dimensions      [0 3 -1 0 0 0 0];
oriented        oriented;


internalField   nonuniform List<scalar> 
104500
(
1.15138e-06
-1.15138e-06
1.11374e-05
-9.98605e-06
1.86892e-05
-7.55178e-06
2.42168e-05
-5.52762e-06
2.93098e-05
-5.09291e-06
3.44338e-05
-5.12401e-06
3.96405e-05
-5.20669e-06
4.48829e-05
-5.24248e-06
5.01469e-05
-5.26397e-06
5.54392e-05
-5.29235e-06
6.07775e-05
-5.33823e-06
6.61809e-05
-5.4034e-06
7.16688e-05
-5.48796e-06
7.72607e-05
-5.59186e-06
8.29765e-05
-5.71575e-06
8.88379e-05
-5.86145e-06
9.48593e-05
-6.02136e-06
0.000101058
-6.19877e-06
0.000107446
-6.38795e-06
0.000114013
-6.56736e-06
0.000120762
-6.74856e-06
0.000127696
-6.93388e-06
0.000134816
-7.12013e-06
0.000142119
-7.30344e-06
0.000149606
-7.48701e-06
0.000157263
-7.65682e-06
0.000165082
-7.81887e-06
0.000173055
-7.97292e-06
0.000181175
-8.11957e-06
0.000189434
-8.25913e-06
0.00019783
-8.39594e-06
0.000206346
-8.51667e-06
0.000214967
-8.62038e-06
0.000223666
-8.69976e-06
0.000232416
-8.74969e-06
0.000241188
-8.77204e-06
0.000249966
-8.77742e-06
0.000258746
-8.7801e-06
0.000267542
-8.79649e-06
0.000276381
-8.83897e-06
0.000285295
-8.91416e-06
0.000294315
-9.01957e-06
0.000303461
-9.14644e-06
0.000312741
-9.28003e-06
0.000322148
-9.40676e-06
0.000331672
-9.52398e-06
0.000341326
-9.65392e-06
0.000351166
-9.83997e-06
0.000361316
-1.01496e-05
0.000371959
-1.06437e-05
0.000383323
-1.13636e-05
0.00039563
-1.23077e-05
0.000409067
-1.34366e-05
0.000423749
-1.46819e-05
0.000439721
-1.5972e-05
0.00045697
-1.7249e-05
0.000475441
-1.84714e-05
0.000495062
-1.96204e-05
0.000515746
-2.06842e-05
0.000537413
-2.16673e-05
0.000559989
-2.25753e-05
0.000583403
-2.34148e-05
0.000607597
-2.41932e-05
0.000632514
-2.49177e-05
0.000658109
-2.55942e-05
0.000684337
-2.62282e-05
0.00071116
-2.6823e-05
0.000738538
-2.73781e-05
0.000766436
-2.78979e-05
0.000794818
-2.83819e-05
0.00082365
-2.88321e-05
0.000852903
-2.9253e-05
0.000882553
-2.96506e-05
0.000912584
-3.00311e-05
0.000942984
-3.03995e-05
0.000973743
-3.07595e-05
0.00100485
-3.11109e-05
0.00103631
-3.14508e-05
0.00106808
-3.17733e-05
0.00110015
-3.2071e-05
0.00113249
-3.23368e-05
0.00116505
-3.2565e-05
0.0011978
-3.27527e-05
0.0012307
-3.29003e-05
0.00126372
-3.30112e-05
0.00129681
-3.30904e-05
0.00132995
-3.31438e-05
0.00136313
-3.31771e-05
0.00139632
-3.31948e-05
0.00142952
-3.32e-05
0.00146272
-3.31947e-05
0.0014959
-3.31798e-05
0.00152905
-3.31554e-05
0.00156217
-3.31216e-05
0.00159525
-3.3078e-05
0.00162827
-3.30238e-05
0.00166123
-3.29585e-05
0.00169411
-3.28814e-05
0.00172691
-3.2792e-05
0.0017596
-3.26896e-05
0.00179217
-3.25737e-05
0.00182461
-3.24441e-05
0.00185691
-3.23005e-05
0.00188906
-3.21429e-05
0.00192103
-3.19713e-05
0.00195281
-3.17857e-05
0.0019844
-3.15861e-05
0.00201577
-3.13725e-05
0.00204692
-3.11451e-05
0.00207782
-3.09036e-05
0.00210847
-3.06485e-05
0.00213885
-3.03798e-05
0.00216895
-3.00974e-05
0.00219875
-2.98016e-05
0.00222824
-2.94922e-05
0.00225741
-2.91683e-05
0.00228624
-2.88301e-05
0.00231472
-2.84774e-05
0.00234283
-2.81104e-05
0.00237056
-2.77286e-05
0.00239789
-2.73315e-05
0.00242481
-2.69206e-05
0.0024513
-2.64955e-05
0.00247736
-2.60553e-05
0.00250296
-2.56011e-05
0.00252809
-2.5133e-05
0.00255274
-2.46504e-05
0.0025769
-2.4153e-05
0.00260054
-2.36406e-05
0.00262365
-2.31127e-05
0.00264622
-2.25693e-05
0.00266823
-2.20125e-05
0.00268968
-2.14453e-05
0.00271055
-2.08724e-05
0.00273085
-2.03023e-05
0.0027506
-1.97447e-05
0.0027698
-1.92063e-05
0.00278849
-1.86839e-05
0.00280665
-1.8162e-05
0.00282426
-1.76139e-05
0.00284127
-1.70068e-05
0.00285758
-1.63101e-05
0.00287308
-1.55049e-05
0.00288767
-1.45899e-05
0.00290125
-1.35814e-05
0.00291376
-1.25083e-05
0.00292517
-1.14034e-05
0.00293546
-1.02948e-05
0.00294466
-9.20003e-06
0.00295279
-8.12628e-06
0.00295986
-7.07281e-06
0.00296589
-6.03378e-06
0.00297089
-4.99967e-06
0.00297485
-3.95625e-06
0.00297773
-2.87816e-06
0.00297945
-1.71751e-06
0.00297995
-5.03271e-07
0.00297908
8.71274e-07
0.00297669
2.38524e-06
0.00297288
3.80837e-06
0.00296786
5.02374e-06
0.0029618
6.05786e-06
0.00295482
6.98407e-06
0.00294697
7.8446e-06
0.00293832
8.65171e-06
0.00292892
9.39957e-06
0.00291886
1.006e-05
0.00290829
1.05769e-05
0.00289741
1.08794e-05
0.00288649
1.09169e-05
0.00287579
1.06956e-05
0.0028655
1.02986e-05
0.00285565
9.84193e-06
0.00284622
9.4299e-06
0.00283709
9.131e-06
0.00282811
8.97754e-06
0.00281914
8.9736e-06
0.00281004
9.10569e-06
0.00280068
9.35225e-06
0.00279099
9.68873e-06
0.0027809
1.00901e-05
0.00277037
1.05335e-05
0.00275937
1.10002e-05
0.0027479
1.1475e-05
0.00273595
1.19459e-05
0.00272354
1.24048e-05
0.0027107
1.28454e-05
0.00269744
1.32609e-05
0.00268379
1.36449e-05
0.0026698
1.39904e-05
0.00265551
1.42884e-05
0.00264099
1.45271e-05
0.00262629
1.46939e-05
0.00261152
1.47781e-05
0.00259674
1.47784e-05
0.00258204
1.46999e-05
0.00256748
1.45565e-05
0.0025531
1.43768e-05
0.0025389
1.42013e-05
0.00252483
1.40763e-05
0.00251078
1.40457e-05
0.00249664
1.41421e-05
0.00248226
1.43753e-05
0.00246752
1.47418e-05
0.0024523
1.52201e-05
0.00243653
1.57751e-05
0.00242016
1.6365e-05
0.00240321
1.69486e-05
0.00238572
1.74921e-05
0.00236775
1.79745e-05
0.00234936
1.83873e-05
0.00233063
1.87334e-05
0.0023116
1.9023e-05
0.00229233
1.92686e-05
0.00227285
1.94833e-05
0.00225317
1.96768e-05
0.00223332
1.98559e-05
0.00221329
2.00237e-05
0.00219311
2.01816e-05
0.00217278
2.03298e-05
0.00215231
2.04683e-05
0.00213172
2.05978e-05
0.002111
2.07195e-05
0.00209016
2.08347e-05
0.00206922
2.09451e-05
0.00204817
2.10519e-05
0.00202701
2.11555e-05
0.00200575
2.1256e-05
0.0019844
2.1354e-05
0.00196295
2.14495e-05
0.00194141
2.15424e-05
0.00191978
2.16327e-05
0.00189806
2.17203e-05
0.00187625
2.18054e-05
0.00185436
2.18878e-05
0.00183239
2.19681e-05
0.00181035
2.20464e-05
0.00178822
2.21228e-05
0.00176603
2.21979e-05
0.00174376
2.22717e-05
0.00172141
2.23447e-05
0.00169899
2.24174e-05
0.0016765
2.24904e-05
0.00165394
2.25646e-05
0.0016313
2.26403e-05
0.00160858
2.27185e-05
0.00158578
2.28004e-05
0.00156289
2.28905e-05
0.0015399
2.29896e-05
0.0015168
2.30986e-05
0.00149358
2.32213e-05
0.00147022
2.33606e-05
0.0014467
2.35192e-05
0.001423
2.37e-05
0.00139909
2.3906e-05
0.00137495
2.41387e-05
0.00135056
2.43972e-05
0.00132588
2.46753e-05
0.00130092
2.49593e-05
0.00127568
2.52406e-05
0.00125017
2.55086e-05
0.00122442
2.57542e-05
0.00119844
2.59788e-05
0.00117224
2.61964e-05
0.00114582
2.64262e-05
0.00111913
2.66924e-05
0.00109211
2.70179e-05
0.00106469
2.74173e-05
0.00103679
2.78972e-05
0.00100832
2.8471e-05
0.000979181
2.91405e-05
0.000949275
2.99062e-05
0.000918498
3.07776e-05
0.000886747
3.17512e-05
0.000853922
3.28243e-05
0.000819942
3.398e-05
0.000784749
3.51929e-05
0.000748325
3.64246e-05
0.000710701
3.7624e-05
0.000671932
3.87685e-05
0.000632069
3.98632e-05
0.000591171
4.08979e-05
0.000549336
4.18351e-05
0.000506716
4.26203e-05
0.000463512
4.32039e-05
0.000419972
4.35401e-05
0.000376312
4.36594e-05
0.000332972
4.33404e-05
0.000290578
4.23937e-05
0.000249927
4.06511e-05
0.000211917
3.80103e-05
0.000177383
3.45338e-05
0.000146875
3.05074e-05
0.000120441
2.64341e-05
9.75789e-05
2.28625e-05
7.74e-05
2.01789e-05
5.8993e-05
1.8407e-05
4.1638e-05
1.73549e-05
2.48943e-05
1.67438e-05
8.58147e-06
1.63128e-05
-7.31848e-06
1.58999e-05
-2.27168e-05
1.53983e-05
-3.74892e-05
1.47724e-05
-5.15129e-05
1.40238e-05
-6.46854e-05
1.31724e-05
-7.69252e-05
1.22398e-05
-8.81699e-05
1.12447e-05
-9.83768e-05
1.02069e-05
-0.000107529
9.15184e-06
-0.000115636
8.10739e-06
-0.000122734
7.09834e-06
-0.000128875
6.14101e-06
-0.000134117
5.24156e-06
-0.000138516
4.39877e-06
-0.000142124
3.60848e-06
-0.000144992
2.86773e-06
-0.000147168
2.1757e-06
-0.000148699
1.53148e-06
-0.00014963
9.31369e-07
-0.000150002
3.71194e-07
-0.000149863
-1.38348e-07
-0.000149242
-6.20921e-07
-0.000148159
-1.0839e-06
-0.000146634
-1.52427e-06
-0.000144693
-1.94102e-06
-0.000142359
-2.33397e-06
-0.000139656
-2.70345e-06
-0.000136605
-3.05059e-06
-0.000133227
-3.37835e-06
-0.000129536
-3.69067e-06
-0.000125546
-3.99049e-06
-0.000121265
-4.28061e-06
-0.000116701
-4.5641e-06
-0.000111857
-4.8444e-06
-0.000106733
-5.12327e-06
-0.000101333
-5.40078e-06
-9.56552e-05
-5.67735e-06
-8.97022e-05
-5.95295e-06
-8.3477e-05
-6.22527e-06
-7.69858e-05
-6.49113e-06
-7.02423e-05
-6.74356e-06
-6.32686e-05
-6.97367e-06
-5.60918e-05
-7.17681e-06
-4.87238e-05
-7.36801e-06
-4.11242e-05
-7.59954e-06
-3.3136e-05
-7.98824e-06
-2.45527e-05
-8.58333e-06
-1.47185e-05
-9.83422e-06
-3.93306e-06
-1.07854e-05
-3.93306e-06
-1.49646e-05
1.38132e-05
-2.24057e-05
-2.54497e-06
-3.37682e-05
3.81077e-06
-4.68089e-05
7.51307e-06
-5.98006e-05
7.89871e-06
-7.24184e-05
7.49382e-06
-8.47567e-05
7.13158e-06
-9.68219e-05
6.82274e-06
-0.000108554
6.46804e-06
-0.000119889
6.04283e-06
-0.000130778
5.55058e-06
-0.000141177
4.99536e-06
-0.000151043
4.37888e-06
-0.000160338
3.70287e-06
-0.000169024
2.96973e-06
-0.000177066
2.18065e-06
-0.000184428
1.34049e-06
-0.000191064
4.37384e-07
-0.000196896
-5.56228e-07
-0.000201993
-1.46979e-06
-0.000206307
-2.43453e-06
-0.000209806
-3.43532e-06
-0.000212456
-4.46981e-06
-0.00021424
-5.51947e-06
-0.000215147
-6.57958e-06
-0.000215159
-7.64503e-06
-0.000214267
-8.71132e-06
-0.000212461
-9.77896e-06
-0.000209735
-1.08455e-05
-0.000206086
-1.19079e-05
-0.000201518
-1.29639e-05
-0.000196034
-1.40009e-05
-0.00018964
-1.50143e-05
-0.000182344
-1.59957e-05
-0.000174149
-1.69443e-05
-0.00016506
-1.78612e-05
-0.000155082
-1.87555e-05
-0.000144221
-1.96412e-05
-0.000132488
-2.05293e-05
-0.000119898
-2.1429e-05
-0.000106468
-2.23444e-05
-9.2212e-05
-2.32753e-05
-7.71391e-05
-2.42194e-05
-6.1247e-05
-2.51722e-05
-4.45216e-05
-2.61321e-05
-2.69369e-05
-2.71087e-05
-8.4741e-06
-2.81167e-05
1.08643e-05
-2.91784e-05
3.10297e-05
-3.0315e-05
5.19278e-05
-3.15418e-05
7.34198e-05
-3.28555e-05
9.53458e-05
-3.42336e-05
0.000117559
-3.56499e-05
0.000139943
-3.70656e-05
0.000162455
-3.8484e-05
0.000185074
-3.98684e-05
0.000207809
-4.12064e-05
0.000230683
-4.24944e-05
0.000253728
-4.37296e-05
0.000276975
-4.4914e-05
0.000300449
-4.60496e-05
0.000324172
-4.71375e-05
0.000348159
-4.81797e-05
0.000372423
-4.9182e-05
0.000396972
-5.01435e-05
0.000421813
-5.10693e-05
0.000446951
-5.19603e-05
0.00047238
-5.28074e-05
0.000498109
-5.36267e-05
0.000524137
-5.44101e-05
0.000550464
-5.51588e-05
0.000577088
-5.58777e-05
0.000604006
-5.65688e-05
0.000631212
-5.72364e-05
0.000658694
-5.78819e-05
0.000686441
-5.85063e-05
0.000714437
-5.91067e-05
0.000742664
-5.96782e-05
0.000771105
-6.02143e-05
0.000799742
-6.07076e-05
0.000828556
-6.11511e-05
0.000857531
-6.15404e-05
0.000886652
-6.18732e-05
0.000915902
-6.21506e-05
0.000945267
-6.23762e-05
0.000974732
-6.25547e-05
0.00100428
-6.26912e-05
0.00103389
-6.27909e-05
0.00106356
-6.2858e-05
0.00109325
-6.28958e-05
0.00112296
-6.2907e-05
0.00115268
-6.28929e-05
0.00118238
-6.28547e-05
0.00121205
-6.2793e-05
0.00124168
-6.2708e-05
0.00127125
-6.25999e-05
0.00130076
-6.24684e-05
0.0013302
-6.23136e-05
0.00135954
-6.21354e-05
0.00138878
-6.19341e-05
0.00141792
-6.17098e-05
0.00144694
-6.14626e-05
0.00147583
-6.1193e-05
0.00150459
-6.0901e-05
0.00153321
-6.0587e-05
0.00156167
-6.02514e-05
0.00158998
-5.98946e-05
0.00161812
-5.95168e-05
0.0016461
-5.91184e-05
0.00167389
-5.86997e-05
0.00170151
-5.8261e-05
0.00172893
-5.78023e-05
0.00175615
-5.73239e-05
0.00178318
-5.68254e-05
0.00180999
-5.63077e-05
0.0018366
-5.57706e-05
0.00186298
-5.52134e-05
0.00188914
-5.46371e-05
0.00191507
-5.40415e-05
0.00194077
-5.34253e-05
0.00196623
-5.27913e-05
0.00199145
-5.21389e-05
0.00201642
-5.1467e-05
0.00204114
-5.07781e-05
0.00206561
-5.00723e-05
0.00208983
-4.93496e-05
0.00211379
-4.8611e-05
0.00213749
-4.78579e-05
0.00216094
-4.7092e-05
0.00218415
-4.63153e-05
0.00220711
-4.55309e-05
0.00222984
-4.47398e-05
0.00225234
-4.39462e-05
0.00227462
-4.31539e-05
0.00229668
-4.23632e-05
0.00231851
-4.15709e-05
0.00234007
-4.07672e-05
0.00236132
-3.99398e-05
0.00238223
-3.90723e-05
0.00240277
-3.81478e-05
0.00242291
-3.7152e-05
0.00244268
-3.60777e-05
0.0024621
-3.49262e-05
0.00248122
-3.3709e-05
0.00250008
-3.24411e-05
0.00251871
-3.11385e-05
0.00253712
-2.98152e-05
0.00255531
-2.8482e-05
0.00257325
-2.71453e-05
0.00259094
-2.58086e-05
0.00260834
-2.44748e-05
0.00262545
-2.31462e-05
0.00264228
-2.18251e-05
0.00265883
-2.05121e-05
0.00267516
-1.92076e-05
0.00269136
-1.79114e-05
0.00270748
-1.66262e-05
0.00272368
-1.53341e-05
0.00274008
-1.40111e-05
0.00275654
-1.2652e-05
0.00277284
-1.12742e-05
0.0027888
-9.8985e-06
0.00280431
-8.53427e-06
0.00281934
-7.18429e-06
0.00283384
-5.85077e-06
0.00284778
-4.53682e-06
0.00286109
-3.24767e-06
0.00287366
-1.9919e-06
0.00288532
-7.79545e-07
0.00289588
3.50788e-07
0.00290519
1.38901e-06
0.0029131
2.38324e-06
0.00291961
3.33793e-06
0.00292477
4.26878e-06
0.0029287
5.20138e-06
0.00293152
6.15558e-06
0.00293335
7.14318e-06
0.00293429
8.16808e-06
0.00293441
9.22849e-06
0.00293378
1.03193e-05
0.00293244
1.14331e-05
0.00293041
1.25613e-05
0.00292772
1.36953e-05
0.00292436
1.48274e-05
0.00292036
1.59498e-05
0.00291571
1.7056e-05
0.00291041
1.81405e-05
0.00290448
1.91973e-05
0.0028979
2.02198e-05
0.00289069
2.12012e-05
0.00288285
2.21342e-05
0.00287436
2.30104e-05
0.00286523
2.38223e-05
0.00285545
2.45643e-05
0.00284499
2.52356e-05
0.00283385
2.5841e-05
0.00282201
2.63929e-05
0.00280948
2.69122e-05
0.00279625
2.74269e-05
0.00278236
2.79688e-05
0.00276784
2.85683e-05
0.00275273
2.92495e-05
0.00273708
3.00239e-05
0.00272093
3.08914e-05
0.00270431
3.18382e-05
0.00268725
3.28391e-05
0.00266975
3.38623e-05
0.00265183
3.48747e-05
0.00263347
3.58455e-05
0.00261469
3.6753e-05
0.0025955
3.75851e-05
0.00257589
3.83398e-05
0.00255589
3.90223e-05
0.00253552
3.96433e-05
0.00251479
4.02143e-05
0.00249371
4.07473e-05
0.00247232
4.12507e-05
0.00245061
4.17317e-05
0.0024286
4.21945e-05
0.00240629
4.26414e-05
0.00238368
4.3074e-05
0.00236079
4.34934e-05
0.00233761
4.39005e-05
0.00231414
4.42967e-05
0.00229041
4.46829e-05
0.0022664
4.50599e-05
0.00224212
4.54285e-05
0.00221759
4.57892e-05
0.0021928
4.61409e-05
0.00216777
4.64838e-05
0.00214249
4.68176e-05
0.00211699
4.71413e-05
0.00209125
4.74537e-05
0.0020653
4.77551e-05
0.00203915
4.80449e-05
0.00201279
4.83217e-05
0.00198625
4.8586e-05
0.00195954
4.88364e-05
0.00193266
4.90725e-05
0.00190564
4.92939e-05
0.00187849
4.94995e-05
0.00185122
4.96889e-05
0.00182384
4.98621e-05
0.00179639
5.00171e-05
0.00176888
5.01555e-05
0.00174132
5.02755e-05
0.00171374
5.03789e-05
0.00168617
5.0462e-05
0.00165863
5.05265e-05
0.00163116
5.05721e-05
0.00160378
5.05994e-05
0.00157653
5.06085e-05
0.00154945
5.05998e-05
0.00152258
5.05725e-05
0.00149596
5.05269e-05
0.00146964
5.04619e-05
0.00144365
5.03874e-05
0.00141802
5.02966e-05
0.0013928
5.01868e-05
0.00136797
5.00645e-05
0.00134355
4.99351e-05
0.0013195
4.97979e-05
0.00129582
4.96634e-05
0.00127248
4.95382e-05
0.00124947
4.94304e-05
0.00122682
4.93486e-05
0.00120453
4.93062e-05
0.00118264
4.93049e-05
0.00116117
4.93648e-05
0.00114016
4.94874e-05
0.00111961
4.96846e-05
0.00109955
4.99707e-05
0.00107997
5.03543e-05
0.00106088
5.08422e-05
0.00104226
5.14437e-05
0.00102408
5.2159e-05
0.00100629
5.29857e-05
0.000988805
5.39087e-05
0.000971519
5.49097e-05
0.000954321
5.59667e-05
0.000937138
5.70456e-05
0.000919944
5.80918e-05
0.000902751
5.90281e-05
0.000885606
5.97658e-05
0.000868613
6.01964e-05
0.000851959
6.01945e-05
0.000836064
5.95544e-05
0.000821179
5.82257e-05
0.00080736
5.62125e-05
0.000794544
5.34665e-05
0.00078245
5.01042e-05
0.000770602
4.63824e-05
0.000758453
4.26564e-05
0.000745584
3.93031e-05
0.000731842
3.66046e-05
0.000717438
3.45823e-05
0.000702804
3.30412e-05
0.000688356
3.18036e-05
0.000674364
3.07355e-05
0.000660961
2.97156e-05
0.000648176
2.8685e-05
0.000635938
2.76366e-05
0.000624115
2.65951e-05
0.000612548
2.55905e-05
0.000601087
2.46339e-05
0.000589611
2.37155e-05
0.000578049
2.28069e-05
0.000566377
2.18787e-05
0.000554615
2.09138e-05
0.000542813
1.99099e-05
0.000531038
1.88729e-05
0.00051936
1.7819e-05
0.000507836
1.67657e-05
0.000496506
1.57292e-05
0.000485386
1.47279e-05
0.000474476
1.37776e-05
0.00046376
1.28916e-05
0.000453213
1.20789e-05
0.0004428
1.13438e-05
0.000432487
1.06844e-05
0.000422252
1.00972e-05
0.000412056
9.57492e-06
0.000401857
9.11447e-06
0.000391615
8.71786e-06
0.000381285
8.38959e-06
0.000370817
8.13367e-06
0.000360161
7.9528e-06
0.000349262
7.84826e-06
0.000338065
7.81823e-06
0.000326516
7.85916e-06
0.000314558
7.96715e-06
0.000302142
8.13493e-06
0.000289226
8.35253e-06
0.000275775
8.60643e-06
0.000261766
8.88559e-06
0.000247186
9.17929e-06
0.000232033
9.47535e-06
0.000216317
9.7632e-06
0.000200057
1.00352e-05
0.000183282
1.02831e-05
0.000166039
1.05e-05
0.000148388
1.06773e-05
0.000130404
1.0807e-05
0.000112158
1.0878e-05
9.36795e-05
1.08791e-05
7.48631e-05
1.08282e-05
5.53669e-05
1.09129e-05
3.55066e-05
1.00261e-05
1.78811e-05
6.8401e-06
1.3948e-05
-1.56479e-05
2.94611e-05
-2.25744e-05
4.38161e-06
-3.35193e-05
1.47556e-05
-4.67785e-05
2.07723e-05
-6.01698e-05
2.129e-05
-7.30149e-05
2.03389e-05
-8.53658e-05
1.94825e-05
-9.72799e-05
1.87368e-05
-0.000108727
1.79148e-05
-0.000119647
1.69634e-05
-0.00012999
1.58933e-05
-0.000139711
1.47162e-05
-0.000148769
1.34367e-05
-0.000157124
1.2058e-05
-0.000164737
1.05834e-05
-0.000171574
9.0171e-06
-0.000177597
7.36381e-06
-0.000182789
5.62881e-06
-0.00018717
3.82496e-06
-0.000190624
1.98484e-06
-0.000193209
1.50469e-07
-0.000194875
-1.76947e-06
-0.00019555
-3.79546e-06
-0.000195244
-5.82525e-06
-0.000193947
-7.87622e-06
-0.000191655
-9.93687e-06
-0.000188362
-1.20044e-05
-0.000184072
-1.4069e-05
-0.000178786
-1.61322e-05
-0.000172511
-1.81829e-05
-0.000165261
-2.02132e-05
-0.000157048
-2.22144e-05
-0.000147885
-2.41776e-05
-0.000137783
-2.60972e-05
-0.000126761
-2.79666e-05
-0.000114835
-2.97872e-05
-0.000102023
-3.15675e-05
-8.83512e-05
-3.33128e-05
-7.38482e-05
-3.50322e-05
-5.85452e-05
-3.6732e-05
-4.2476e-05
-3.84136e-05
-2.56752e-05
-4.00762e-05
-8.16925e-06
-4.17253e-05
1.00157e-05
-4.33571e-05
2.88547e-05
-4.49712e-05
4.83091e-05
-4.6563e-05
6.83318e-05
-4.81394e-05
8.88579e-05
-4.97044e-05
0.000109804
-5.12609e-05
0.000131092
-5.28303e-05
0.000152645
-5.44087e-05
0.000174411
-5.59991e-05
0.000196359
-5.75981e-05
0.000218513
-5.92196e-05
0.000240866
-6.0837e-05
0.00026345
-6.24526e-05
0.000286302
-6.40583e-05
0.000309451
-6.56436e-05
0.000332925
-6.72034e-05
0.000356746
-6.87346e-05
0.000380927
-7.0231e-05
0.000405476
-7.16865e-05
0.000430399
-7.31031e-05
0.000455699
-7.44812e-05
0.00048137
-7.58143e-05
0.000507407
-7.71068e-05
0.000533801
-7.83543e-05
0.00056056
-7.95663e-05
0.000587662
-8.07287e-05
0.000615099
-8.18474e-05
0.000642865
-8.29246e-05
0.000670946
-8.39592e-05
0.00069933
-8.49521e-05
0.000728
-8.59065e-05
0.00075694
-8.68224e-05
0.000786133
-8.76989e-05
0.00081556
-8.85339e-05
0.000845205
-8.9323e-05
0.000875051
-9.006e-05
0.000905082
-9.07383e-05
0.000935284
-9.13536e-05
0.000965645
-9.19015e-05
0.000996154
-9.23815e-05
0.0010268
-9.27946e-05
0.00105756
-9.31434e-05
0.00108844
-9.34319e-05
0.00111941
-9.36642e-05
0.00115047
-9.38448e-05
0.00118159
-9.39769e-05
0.00121275
-9.40633e-05
0.00124395
-9.41063e-05
0.00127517
-9.41074e-05
0.00130638
-9.40679e-05
0.00133758
-9.39887e-05
0.00136874
-9.38706e-05
0.00139985
-9.37141e-05
0.00143091
-9.35202e-05
0.00146188
-9.32891e-05
0.00149277
-9.30215e-05
0.00152355
-9.2718e-05
0.00155422
-9.2379e-05
0.00158476
-9.20055e-05
0.00161517
-9.15977e-05
0.00164542
-9.11566e-05
0.00167552
-9.06828e-05
0.00170545
-9.0177e-05
0.00173519
-8.96397e-05
0.00176475
-8.90714e-05
0.0017941
-8.84726e-05
0.00182324
-8.78438e-05
0.00185217
-8.71851e-05
0.00188086
-8.64971e-05
0.00190932
-8.57805e-05
0.00193753
-8.50353e-05
0.00196548
-8.42613e-05
0.00199317
-8.34581e-05
0.00202058
-8.2628e-05
0.00204772
-8.17698e-05
0.00207456
-8.08837e-05
0.0021011
-7.99708e-05
0.00212734
-7.90293e-05
0.00215326
-7.8061e-05
0.00217887
-7.70676e-05
0.00220413
-7.60472e-05
0.00222906
-7.50012e-05
0.00225364
-7.39311e-05
0.00227787
-7.28375e-05
0.00230173
-7.17214e-05
0.00232523
-7.05839e-05
0.00234834
-6.94261e-05
0.00237106
-6.82494e-05
0.00239337
-6.7056e-05
0.00241527
-6.58467e-05
0.00243674
-6.46216e-05
0.00245776
-6.33782e-05
0.0024783
-6.21117e-05
0.00249834
-6.08133e-05
0.00251787
-5.94713e-05
0.00253687
-5.8073e-05
0.00255534
-5.66087e-05
0.00257326
-5.50741e-05
0.00259065
-5.34715e-05
0.00260753
-5.18089e-05
0.00262392
-5.00975e-05
0.00263983
-4.835e-05
0.00265527
-4.65773e-05
0.00267024
-4.47865e-05
0.00268474
-4.29808e-05
0.00269876
-4.1161e-05
0.00271227
-3.93275e-05
0.00272528
-3.74813e-05
0.00273776
-3.56241e-05
0.00274969
-3.3758e-05
0.00276107
-3.18852e-05
0.00277187
-3.00089e-05
0.00278209
-2.81322e-05
0.00279172
-2.62629e-05
0.00280081
-2.4418e-05
0.00280939
-2.25979e-05
0.00281751
-2.07714e-05
0.00282516
-1.89178e-05
0.00283231
-1.70511e-05
0.00283897
-1.51962e-05
0.00284516
-1.33692e-05
0.00285088
-1.1578e-05
0.00285617
-9.826e-06
0.00286104
-8.11222e-06
0.00286548
-6.43005e-06
0.00286947
-4.76964e-06
0.00287294
-3.12261e-06
0.00287582
-1.48961e-06
0.00287807
1.27193e-07
0.00287963
1.78603e-06
0.0028805
3.39777e-06
0.00288071
4.98823e-06
0.0028803
6.56743e-06
0.0028793
8.14548e-06
0.00287774
9.72836e-06
0.00287565
1.13188e-05
0.00287305
1.29167e-05
0.00286996
1.45206e-05
0.00286639
1.61279e-05
0.00286235
1.77355e-05
0.00285784
1.93404e-05
0.00285285
2.09385e-05
0.00284738
2.25254e-05
0.00284143
2.40961e-05
0.00283498
2.56461e-05
0.00282803
2.71704e-05
0.00282056
2.8664e-05
0.00281258
3.01215e-05
0.00280405
3.15371e-05
0.00279497
3.29058e-05
0.00278531
3.42243e-05
0.00277505
3.5492e-05
0.00276418
3.67125e-05
0.00275268
3.78954e-05
0.00274053
3.90552e-05
0.00272775
4.02117e-05
0.00271433
4.13869e-05
0.0027003
4.2601e-05
0.00268568
4.38703e-05
0.0026705
4.52011e-05
0.0026548
4.65901e-05
0.00263862
4.8023e-05
0.00262198
4.94767e-05
0.00260492
5.09236e-05
0.00258746
5.23358e-05
0.00256961
5.36901e-05
0.00255139
5.4971e-05
0.00253281
5.6172e-05
0.00251385
5.72945e-05
0.00249453
5.83461e-05
0.00247484
5.93369e-05
0.00245477
6.02777e-05
0.00243434
6.11778e-05
0.00241355
6.20437e-05
0.0023924
6.28808e-05
0.0023709
6.36915e-05
0.00234907
6.44779e-05
0.0023269
6.52416e-05
0.00230441
6.59838e-05
0.0022816
6.67056e-05
0.00225849
6.7409e-05
0.00223508
6.80949e-05
0.00221137
6.87633e-05
0.00218739
6.94146e-05
0.00216313
7.00483e-05
0.00213861
7.0664e-05
0.00211383
7.12618e-05
0.00208881
7.18405e-05
0.00206355
7.23995e-05
0.00203806
7.29383e-05
0.00201236
7.34554e-05
0.00198646
7.39511e-05
0.00196035
7.44246e-05
0.00193407
7.48737e-05
0.0019076
7.52993e-05
0.00188098
7.57e-05
0.0018542
7.6074e-05
0.00182727
7.64209e-05
0.00180022
7.67404e-05
0.00177305
7.70317e-05
0.00174578
7.72926e-05
0.00171841
7.7524e-05
0.00169096
7.77224e-05
0.00166345
7.78908e-05
0.00163588
7.80281e-05
0.00160828
7.813e-05
0.00158066
7.81972e-05
0.00155302
7.82305e-05
0.00152541
7.82275e-05
0.00149782
7.81886e-05
0.00147028
7.81119e-05
0.00144281
7.7996e-05
0.00141542
7.7848e-05
0.00138815
7.76578e-05
0.00136102
7.74301e-05
0.00133403
7.7171e-05
0.00130722
7.68831e-05
0.00128058
7.65708e-05
0.00125413
7.62454e-05
0.00122789
7.59064e-05
0.00120186
7.55636e-05
0.00117607
7.52194e-05
0.00115055
7.48738e-05
0.00112532
7.45339e-05
0.00110043
7.42015e-05
0.00107592
7.38734e-05
0.00105184
7.35608e-05
0.00102826
7.32671e-05
0.00100523
7.29988e-05
0.000982828
7.27589e-05
0.000961117
7.25536e-05
0.000940176
7.23841e-05
0.000920082
7.22534e-05
0.000900907
7.21602e-05
0.00088271
7.21066e-05
0.000865533
7.20865e-05
0.000849404
7.20952e-05
0.000834342
7.21082e-05
0.00082034
7.20933e-05
0.000807356
7.20119e-05
0.000795312
7.18098e-05
0.000784082
7.14267e-05
0.00077345
7.08262e-05
0.000763058
6.99473e-05
0.000752682
6.86014e-05
0.000742151
6.6743e-05
0.00073123
6.43884e-05
0.000719687
6.16472e-05
0.000707349
5.87202e-05
0.000694133
5.58725e-05
0.000680065
5.3371e-05
0.000665297
5.13726e-05
0.000650096
4.97824e-05
0.000634778
4.83595e-05
0.000619616
4.69662e-05
0.000604808
4.55433e-05
0.000590473
4.40501e-05
0.000576672
4.24863e-05
0.000563427
4.08815e-05
0.000550728
3.92937e-05
0.000538532
3.77867e-05
0.000526755
3.64109e-05
0.000515293
3.51775e-05
0.000504037
3.40628e-05
0.000492905
3.3011e-05
0.000481852
3.19673e-05
0.000470876
3.08857e-05
0.000460014
2.97348e-05
0.000449311
2.85222e-05
0.000438804
2.72723e-05
0.000428517
2.60159e-05
0.000418462
2.47836e-05
0.000408634
2.36049e-05
0.000399034
2.24922e-05
0.000389657
2.1456e-05
0.000380502
2.04988e-05
0.000371559
1.96272e-05
0.000362812
1.88438e-05
0.000354239
1.81481e-05
0.000345805
1.75491e-05
0.000337474
1.70489e-05
0.000329207
1.66559e-05
0.000320961
1.63796e-05
0.00031269
1.62243e-05
0.000304344
1.6194e-05
0.000295866
1.62968e-05
0.000287191
1.65335e-05
0.000278253
1.69057e-05
0.000268978
1.74095e-05
0.000259294
1.80363e-05
0.000249129
1.8772e-05
0.00023841
1.96045e-05
0.000227074
2.05156e-05
0.000215059
2.14896e-05
0.000202315
2.25071e-05
0.000188805
2.35456e-05
0.000174507
2.4581e-05
0.000159419
2.55884e-05
0.000143552
2.65442e-05
0.000126939
2.74193e-05
0.000109633
2.81848e-05
9.16635e-05
2.88482e-05
7.30209e-05
2.94708e-05
5.40279e-05
2.99059e-05
3.61218e-05
2.79321e-05
2.08279e-05
2.2134e-05
3.47759e-05
-1.30246e-05
4.24857e-05
-1.614e-05
7.497e-06
-2.31534e-05
2.17691e-05
-3.28063e-05
3.04251e-05
-4.27742e-05
3.12579e-05
-5.22295e-05
2.97942e-05
-6.11896e-05
2.84426e-05
-6.97483e-05
2.72956e-05
-7.79036e-05
2.607e-05
-8.56089e-05
2.46688e-05
-9.2819e-05
2.31035e-05
-9.94966e-05
2.13937e-05
-0.000105608
1.95482e-05
-0.000111122
1.75716e-05
-0.000116008
1.54694e-05
-0.000120239
1.32488e-05
-0.000123794
1.09187e-05
-0.000126655
8.48966e-06
-0.000128806
5.97572e-06
-0.000130214
3.39298e-06
-0.000130801
7.37642e-07
-0.000130535
-2.0353e-06
-0.000129517
-4.81354e-06
-0.000127739
-7.60378e-06
-0.000125172
-1.04432e-05
-0.000121802
-1.33064e-05
-0.000117644
-1.61623e-05
-0.000112693
-1.902e-05
-0.000106971
-2.18544e-05
-0.000100481
-2.46724e-05
-9.3236e-05
-2.74586e-05
-8.52541e-05
-3.01963e-05
-7.65391e-05
-3.28927e-05
-6.71127e-05
-3.55236e-05
-5.69725e-05
-3.81068e-05
-4.61285e-05
-4.06312e-05
-3.45983e-05
-4.30977e-05
-2.23872e-05
-4.5524e-05
-9.51617e-06
-4.79032e-05
3.99355e-06
-5.02417e-05
1.81251e-05
-5.25452e-05
3.28647e-05
-5.48158e-05
4.81856e-05
-5.70462e-05
6.40803e-05
-5.92518e-05
8.05283e-05
-6.14191e-05
9.75203e-05
-6.3555e-05
0.000115042
-6.56616e-05
0.000133068
-6.77299e-05
0.00015161
-6.98034e-05
0.000170646
-7.18662e-05
0.000190168
-7.3931e-05
0.000210178
-7.60085e-05
0.000230677
-7.8097e-05
0.000251653
-8.01954e-05
0.000273111
-8.22957e-05
0.00029505
-8.43916e-05
0.000317462
-8.64703e-05
0.000340343
-8.85244e-05
0.00036369
-9.05499e-05
0.000387492
-9.25364e-05
0.000411745
-9.44844e-05
0.000436435
-9.63764e-05
0.000461567
-9.82352e-05
0.000487126
-0.00010004
0.000513108
-0.000101796
0.0005395
-0.000103498
0.000566292
-0.000105147
0.000593466
-0.00010674
0.000621014
-0.000108277
0.000648924
-0.000109757
0.000677178
-0.000111179
0.000705762
-0.000112543
0.000734657
-0.000113847
0.000763845
-0.000115094
0.000793304
-0.000116282
0.000823014
-0.000117409
0.000852954
-0.000118474
0.000883106
-0.000119475
0.000913452
-0.000120406
0.000943979
-0.000121266
0.000974676
-0.00012205
0.00100553
-0.000122758
0.00103654
-0.000123386
0.00106768
-0.000123937
0.00109895
-0.000124412
0.00113033
-0.000124813
0.00116181
-0.000125145
0.00119337
-0.000125408
0.001225
-0.000125606
0.00125668
-0.00012574
0.00128839
-0.000125814
0.00132011
-0.000125828
0.00135182
-0.000125785
0.00138352
-0.000125685
0.00141518
-0.000125531
0.00144679
-0.000125322
0.00147833
-0.000125061
0.00150979
-0.000124747
0.00154115
-0.000124382
0.0015724
-0.000123967
0.00160352
-0.000123503
0.00163451
-0.000122991
0.00166534
-0.000122431
0.00169601
-0.000121825
0.0017265
-0.000121174
0.0017568
-0.000120479
0.0017869
-0.000119739
0.00181679
-0.000118956
0.00184645
-0.000118131
0.00187587
-0.000117264
0.00190504
-0.000116357
0.00193395
-0.000115409
0.00196259
-0.000114421
0.00199095
-0.000113393
0.00201901
-0.000112327
0.00204678
-0.000111222
0.00207423
-0.000110079
0.00210136
-0.000108897
0.00212815
-0.000107679
0.0021546
-0.000106423
0.0021807
-0.000105131
0.00220645
-0.000103803
0.00223182
-0.000102439
0.00225681
-0.00010104
0.00228142
-9.96073e-05
0.00230563
-9.8141e-05
0.00232943
-9.66416e-05
0.00235282
-9.51104e-05
0.00237578
-9.35478e-05
0.00239831
-9.19548e-05
0.0024204
-9.03321e-05
0.00244202
-8.86798e-05
0.00246317
-8.69971e-05
0.00248383
-8.52824e-05
0.00250399
-8.35346e-05
0.00252362
-8.17496e-05
0.00254273
-7.99227e-05
0.00256131
-7.80476e-05
0.00257936
-7.61207e-05
0.00259689
-7.41396e-05
0.00261392
-7.21036e-05
0.00263046
-7.00142e-05
0.00264653
-6.78755e-05
0.00266212
-6.56933e-05
0.00267725
-6.34732e-05
0.00269189
-6.12201e-05
0.00270604
-5.89395e-05
0.0027197
-5.66357e-05
0.00273285
-5.43121e-05
0.00274549
-5.19713e-05
0.00275763
-4.9616e-05
0.00276925
-4.72484e-05
0.00278036
-4.48701e-05
0.00279096
-4.24822e-05
0.00280104
-4.00865e-05
0.00281059
-3.76854e-05
0.00281961
-3.52815e-05
0.00282807
-3.28771e-05
0.00283594
-3.04701e-05
0.00284323
-2.80566e-05
0.00284995
-2.56385e-05
0.00285612
-2.32233e-05
0.00286174
-2.08182e-05
0.0028668
-1.8428e-05
0.00287128
-1.60566e-05
0.00287516
-1.37071e-05
0.00287843
-1.13823e-05
0.00288108
-9.0852e-06
0.00288313
-6.81832e-06