/*--------------------------------*- C++ -*----------------------------------*\
| =========                 |                                                 |
| \\      /  F ield         | OpenFOAM: The Open Source CFD Toolbox           |
|  \\    /   O peration     | Version:  v2006                                 |
|   \\  /    A nd           | Website:  www.openfoam.com                      |
|    \\/     M anipulation  |                                                 |
\*---------------------------------------------------------------------------*/
FoamFile
{
    version     2.0;
    format      ascii;
    class       surfaceScalarField;
    location    "15";
    object      alphaPhi0.water;
}
// * * * * * * * * * * * * * * * * * * * * * * * * * * * * * * * * * * * * * //

dimensions      [0 3 -1 0 0 0 0];
oriented        oriented;


internalField   nonuniform List<scalar> 
104500
(
1.26919e-05
-1.26919e-05
3.16259e-05
-1.8934e-05
4.90784e-05
-1.74525e-05
6.54083e-05
-1.63299e-05
8.14813e-05
-1.6073e-05
9.74928e-05
-1.60115e-05
0.000113479
-1.59864e-05
0.000129406
-1.59267e-05
0.000145225
-1.58191e-05
0.0001609
-1.56753e-05
0.000176405
-1.55048e-05
0.000191719
-1.53135e-05
0.000206819
-1.51003e-05
0.000221681
-1.48624e-05
0.00023628
-1.4599e-05
0.000250587
-1.43068e-05
0.000264572
-1.39848e-05
0.000278201
-1.36289e-05
0.000291438
-1.32373e-05
0.000304245
-1.28068e-05
0.000316586
-1.23406e-05
0.00032843
-1.18442e-05
0.000339757
-1.13271e-05
0.000350557
-1.07999e-05
0.000360819
-1.02625e-05
0.000370538
-9.71885e-06
0.00037971
-9.17217e-06
0.000388333
-8.62242e-06
0.000396404
-8.07105e-06
0.00040392
-7.51664e-06
0.00041088
-6.95945e-06
0.000417271
-6.39071e-06
0.000423077
-5.80642e-06
0.000428281
-5.20356e-06
0.000432866
-4.58582e-06
0.000436827
-3.96105e-06
0.000440166
-3.339e-06
0.000442893
-2.72656e-06
0.000445015
-2.12222e-06
0.000446531
-1.51584e-06
0.000447419
-8.87801e-07
0.000447644
-2.24943e-07
0.0004471
5.4367e-07
0.00044578
1.31998e-06
0.000443706
2.07444e-06
0.000440976
2.7296e-06
0.000437745
3.23108e-06
0.000434168
3.57705e-06
0.000430462
3.70642e-06
0.000426845
3.61705e-06
0.000423503
3.34175e-06
0.000420587
2.91532e-06
0.000418205
2.38249e-06
0.000416421
1.78413e-06
0.00041527
1.1506e-06
0.000414762
5.08238e-07
0.000414879
-1.16637e-07
0.000415653
-7.74749e-07
0.000417073
-1.42004e-06
0.000419144
-2.07075e-06
0.000421888
-2.74353e-06
0.000425348
-3.46029e-06
0.000429554
-4.20593e-06
0.000434534
-4.9802e-06
0.000440304
-5.76998e-06
0.000446875
-6.57093e-06
0.000454248
-7.37284e-06
0.000462425
-8.17751e-06
0.000471405
-8.97923e-06
0.000481188
-9.78297e-06
0.000491772
-1.05848e-05
0.000503157
-1.13845e-05
0.000515339
-1.21817e-05
0.000528313
-1.29744e-05
0.000542065
-1.37516e-05
0.000556577
-1.45123e-05
0.000571828
-1.52506e-05
0.000587797
-1.59691e-05
0.000604447
-1.66507e-05
0.00062175
-1.73022e-05
0.000639679
-1.79299e-05
0.000658201
-1.85212e-05
0.000677285
-1.90842e-05
0.000696908
-1.96233e-05
0.000717046
-2.01382e-05
0.000737678
-2.06313e-05
0.000758786
-2.11086e-05
0.000780351
-2.15644e-05
0.000802355
-2.20046e-05
0.000824789
-2.24339e-05
0.000847646
-2.28567e-05
0.00087092
-2.32741e-05
0.000894614
-2.36943e-05
0.000918728
-2.41139e-05
0.000943258
-2.45294e-05
0.000968187
-2.49299e-05
0.00099349
-2.53023e-05
0.00101913
-2.5636e-05
0.00104505
-2.59245e-05
0.00107122
-2.61672e-05
0.00109759
-2.63697e-05
0.00112413
-2.65439e-05
0.00115083
-2.66992e-05
0.00117768
-2.68451e-05
0.00120466
-2.69856e-05
0.00123178
-2.71225e-05
0.00125904
-2.72569e-05
0.00128643
-2.73879e-05
0.00131394
-2.75167e-05
0.00134159
-2.76404e-05
0.00136934
-2.77593e-05
0.00139722
-2.78723e-05
0.0014252
-2.79798e-05
0.00145328
-2.8079e-05
0.00148145
-2.81706e-05
0.0015097
-2.8254e-05
0.00153803
-2.8327e-05
0.00156642
-2.83903e-05
0.00159486
-2.84427e-05
0.00162334
-2.84837e-05
0.00165186
-2.85129e-05
0.00168039
-2.85289e-05
0.00170892
-2.85311e-05
0.00173744
-2.85186e-05
0.00176593
-2.84905e-05
0.00179437
-2.84464e-05
0.00182276
-2.83854e-05
0.00185107
-2.83083e-05
0.00187928
-2.82161e-05
0.00190739
-2.81113e-05
0.00193539
-2.7998e-05
0.00196327
-2.78814e-05
0.00199104
-2.77673e-05
0.0020187
-2.76605e-05
0.00204626
-2.75625e-05
0.00207373
-2.74709e-05
0.00210111
-2.73771e-05
0.00212838
-2.72662e-05
0.0021555
-2.71191e-05
0.00218241
-2.69152e-05
0.00220905
-2.6636e-05
0.00223532
-2.62679e-05
0.00226112
-2.58042e-05
0.00228637
-2.5246e-05
0.00231097
-2.4601e-05
0.00233485
-2.38807e-05
0.00235794
-2.30963e-05
0.0023802
-2.22553e-05
0.00240156
-2.13578e-05
0.00242195
-2.0394e-05
0.0024413
-1.93456e-05
0.00245949
-1.81906e-05
0.0024764
-1.69106e-05
0.0024919
-1.54997e-05
0.00250587
-1.39726e-05
0.00251824
-1.23664e-05
0.00252897
-1.07356e-05
0.00253811
-9.14231e-06
0.00254576
-7.64611e-06
0.00255206
-6.3009e-06
0.00255721
-5.15333e-06
0.00256146
-4.24798e-06
0.00256509
-3.62489e-06
0.0025684
-3.31337e-06
0.00257172
-3.31836e-06
0.00257533
-3.61366e-06
0.00257947
-4.13615e-06
0.00258426
-4.79344e-06
0.00258974
-5.47842e-06
0.00259583
-6.09257e-06
0.00260239
-6.55958e-06
0.00260924
-6.84181e-06
0.00261617
-6.93161e-06
0.00262302
-6.85022e-06
0.00262965
-6.63646e-06
0.00263599
-6.33627e-06
0.00264198
-5.99193e-06
0.00264762
-5.63943e-06
0.00265293
-5.30517e-06
0.00265793
-5.00777e-06
0.00266269
-4.75721e-06
0.00266725
-4.55938e-06
0.00267167
-4.41613e-06
0.00267599
-4.32478e-06
0.00268027
-4.28088e-06
0.00268455
-4.275e-06
0.00268884
-4.29414e-06
0.00269316
-4.31755e-06
0.00269748
-4.32179e-06
0.00270176
-4.27812e-06
0.00270592
-4.15955e-06
0.00270986
-3.94272e-06
0.00271347
-3.61178e-06
0.00271663
-3.16115e-06
0.00271923
-2.59444e-06
0.00272116
-1.92672e-06
0.00272234
-1.17996e-06
0.00272273
-3.94083e-07
0.00272222
5.10273e-07
0.00272084
1.37947e-06
0.00271862
2.21858e-06
0.0027156
3.01871e-06
0.00271184
3.76659e-06
0.00270738
4.45425e-06
0.0027023
5.08137e-06
0.00269665
5.65504e-06
0.00269046
6.18734e-06
0.00268377
6.69212e-06
0.00267658
7.18226e-06
0.00266892
7.66788e-06
0.00266076
8.15553e-06
0.00265211
8.64855e-06
0.00264296
9.14692e-06
0.00263332
9.64944e-06
0.00262316
1.01547e-05
0.0026125
1.06613e-05
0.00260133
1.11679e-05
0.00258966
1.16736e-05
0.00257748
1.21785e-05
0.0025648
1.26823e-05
0.00255161
1.31856e-05
0.00253792
1.36876e-05
0.00252374
1.41877e-05
0.00250905
1.46859e-05
0.00249387
1.51821e-05
0.00247819
1.56759e-05
0.00246203
1.61666e-05
0.00244537
1.66536e-05
0.00242824
1.71367e-05
0.00241062
1.76161e-05
0.00239253
1.80914e-05
0.00237396
1.85629e-05
0.00235493
1.90301e-05
0.00233544
1.94941e-05
0.00231549
1.99542e-05
0.00229508
2.041e-05
0.00227421
2.08628e-05
0.0022529
2.13136e-05
0.00223114
2.17629e-05
0.00220893
2.22116e-05
0.00218626
2.26612e-05
0.00216315
2.31132e-05
0.00213958
2.35701e-05
0.00211555
2.40357e-05
0.00209103
2.45146e-05
0.00206602
2.50097e-05
0.0020405
2.55224e-05
0.00201445
2.60514e-05
0.00198785
2.65934e-05
0.00196071
2.71442e-05
0.00193301
2.77003e-05
0.00190475
2.82606e-05
0.00187592
2.88251e-05
0.00184653
2.93938e-05
0.00181656
2.99652e-05
0.00178603
3.05361e-05
0.00175492
3.11041e-05
0.00172325
3.16698e-05
0.00169102
3.2239e-05
0.00165819
3.28241e-05
0.00162475
3.34418e-05
0.00159064
3.41109e-05
0.00155579
3.48489e-05
0.00152012
3.56689e-05
0.00148354
3.65789e-05
0.00144596
3.75821e-05
0.00140728
3.86775e-05
0.00136742
3.98589e-05
0.00132631
4.11137e-05
0.00128389
4.24212e-05
0.00124014
4.37501e-05
0.00119508
4.50581e-05
0.00114879
4.62929e-05
0.00110139
4.74023e-05
0.00105303
4.83544e-05
0.00100386
4.91688e-05
0.000953935
4.99265e-05
0.000903147
5.07886e-05
0.000851533
5.16136e-05
0.000799381
5.21527e-05
0.000747491
5.18899e-05
0.000697236
5.02546e-05
0.000650297
4.69387e-05
0.000608195
4.21023e-05
0.000571796
3.63987e-05
0.00054113
3.06663e-05
0.000515496
2.56346e-05
0.00049378
2.17157e-05
0.000474774
1.90057e-05
0.000457437
1.73367e-05
0.000441031
1.64063e-05
0.000425125
1.59059e-05
0.000409519
1.56063e-05
0.00039419
1.53292e-05
0.00037921
1.49798e-05
0.000364699
1.45113e-05
0.000350768
1.39311e-05
0.000337492
1.32756e-05
0.000324903
1.25891e-05
0.000312984
1.19184e-05
0.000301685
1.13e-05
0.000290934
1.07504e-05
0.000280658
1.02761e-05
0.000270794
9.86375e-06
0.000261296
9.49811e-06
0.000252131
9.16542e-06
0.000243293
8.83771e-06
0.000234759
8.53368e-06
0.00022651
8.24965e-06
0.000218546
7.96401e-06
0.000210843
7.70311e-06
0.00020338
7.46293e-06
0.000196141
7.23859e-06
0.000189111
7.03019e-06
0.000182268
6.84301e-06
0.000175599
6.66854e-06
0.000169088
6.51099e-06
0.000162724
6.36463e-06
0.000156489
6.23435e-06
0.000150371
6.11787e-06
0.000144359
6.01205e-06
0.000138435
5.92426e-06
0.000132596
5.83923e-06
0.000126824
5.77207e-06
0.000121113
5.71068e-06
0.000115447
5.66665e-06
0.00010982
5.62646e-06
0.000104211
5.60896e-06
9.86133e-05
5.59784e-06
9.30254e-05
5.58785e-06
8.74428e-05
5.58257e-06
8.18695e-05
5.57332e-06
7.63042e-05
5.56534e-06
7.07591e-05
5.54508e-06
6.52497e-05
5.50943e-06
5.98036e-05
5.44609e-06
5.44289e-05
5.37467e-06
4.91478e-05
5.28114e-06
4.39867e-05
5.16104e-06
3.89473e-05
5.03945e-06
3.40492e-05
4.89812e-06
2.93144e-05
4.7348e-06
2.4797e-05
4.5174e-06
2.0566e-05
4.23097e-06
1.67725e-05
3.79349e-06
1.35518e-05
3.22074e-06
1.10263e-05
2.52547e-06
9.61499e-06
1.41129e-06
8.91598e-06
6.99013e-07
8.91598e-06
-1.11212e-05
-1.57067e-06
-2.01425e-05
-9.91266e-06
-3.1907e-05
-5.68804e-06
-4.38781e-05
-4.35885e-06
-5.55358e-05
-4.41528e-06
-6.70824e-05
-4.46498e-06
-7.86159e-05
-4.45293e-06
-9.00944e-05
-4.44815e-06
-0.000101452
-4.46111e-06
-0.00011265
-4.47789e-06
-0.000123643
-4.51148e-06
-0.000134405
-4.55139e-06
-0.000144916
-4.58976e-06
-0.000155135
-4.64345e-06
-0.000165044
-4.68977e-06
-0.000174604
-4.74732e-06
-0.00018379
-4.79813e-06
-0.000192577
-4.84234e-06
-0.000200924
-4.88985e-06
-0.000208813
-4.91753e-06
-0.000216207
-4.94698e-06
-0.000223091
-4.96075e-06
-0.000229445
-4.97214e-06
-0.000235269
-4.97651e-06
-0.000240577
-4.95412e-06
-0.000245379
-4.9172e-06
-0.000249692
-4.85872e-06
-0.000253538
-4.77725e-06
-0.000256938
-4.67075e-06
-0.000259916
-4.53803e-06
-0.000262498
-4.37807e-06
-0.000264695
-4.1936e-06
-0.000266516
-3.9857e-06
-0.000267962
-3.75755e-06
-0.000269029
-3.51883e-06
-0.000269715
-3.27435e-06
-0.00027002
-3.03455e-06
-0.000269939
-2.80738e-06
-0.000269467
-2.59381e-06
-0.000268595
-2.38778e-06
-0.000267303
-2.18038e-06
-0.000265567
-1.96119e-06
-0.000263306
-1.71668e-06
-0.000260519
-1.46687e-06
-0.000257198
-1.24683e-06
-0.000253376
-1.09241e-06
-0.00024908
-1.06476e-06
-0.000244306
-1.19715e-06
-0.000239092
-1.50739e-06
-0.00023347
-2.00516e-06
-0.000227445
-2.68304e-06
-0.000221004
-3.52554e-06
-0.000214118
-4.5036e-06
-0.00020675
-5.58474e-06
-0.000198861
-6.73834e-06
-0.000190413
-7.93899e-06
-0.000181359
-9.17082e-06
-0.000171708
-1.04258e-05
-0.00016144
-1.16877e-05
-0.000150564
-1.29474e-05
-0.0001391
-1.42076e-05
-0.000127089
-1.54715e-05
-0.000114556
-1.67383e-05
-0.000101525
-1.80111e-05
-8.80086e-05
-1.92866e-05
-7.40163e-05
-2.05633e-05
-5.95524e-05
-2.18367e-05
-4.46253e-05
-2.31046e-05
-2.92428e-05
-2.43617e-05
-1.34205e-05
-2.56053e-05
2.82375e-06
-2.68291e-05
1.94705e-05
-2.80313e-05
3.6497e-05
-2.92082e-05
5.38934e-05
-3.03708e-05
7.16358e-05
-3.1494e-05
8.97156e-05
-3.25922e-05
0.000108129
-3.36639e-05
0.000126855
-3.46948e-05
0.00014591
-3.57065e-05
0.000165299
-3.66909e-05
0.000185016
-3.76464e-05
0.000205066
-3.85718e-05
0.000225453
-3.94707e-05
0.000246175
-4.03453e-05
0.000267231
-4.11944e-05
0.000288622
-4.20224e-05
0.000310337
-4.28233e-05
0.000332384
-4.3612e-05
0.000354766
-4.43861e-05
0.000377484
-4.5152e-05
0.00040053
-4.59026e-05
0.000423903
-4.66476e-05
0.0004476
-4.73908e-05
0.000471605
-4.81193e-05
0.000495914
-4.88378e-05
0.00052051
-4.95267e-05
0.000545396
-5.0188e-05
0.000570564
-5.0804e-05
0.000596013
-5.13739e-05
0.000621746
-5.18998e-05
0.000647761
-5.23844e-05
0.000674051
-5.28344e-05
0.000700605
-5.32527e-05
0.000727407
-5.36472e-05
0.000754442
-5.40211e-05
0.0007817
-5.43801e-05
0.000809169
-5.47258e-05
0.000836838
-5.50571e-05
0.000864694
-5.53731e-05
0.000892731
-5.56775e-05
0.000920943
-5.5971e-05
0.000949319
-5.62486e-05
0.000977854
-5.65141e-05
0.00100654
-5.67682e-05
0.00103538
-5.70063e-05
0.00106436
-5.72316e-05
0.00109347
-5.74442e-05
0.00112272
-5.76399e-05
0.0011521
-5.78235e-05
0.00118161
-5.79899e-05
0.00121124
-5.8142e-05
0.00124099
-5.82779e-05
0.00127086
-5.83997e-05
0.00130084
-5.85054e-05
0.00133095
-5.85979e-05
0.00136118
-5.86763e-05
0.00139154
-5.87436e-05
0.00142203
-5.88012e-05
0.00145267
-5.88499e-05
0.00148344
-5.88907e-05
0.00151437
-5.89241e-05
0.00154544
-5.89481e-05
0.00157663
-5.89602e-05
0.00160792
-5.89543e-05
0.00163928
-5.89217e-05
0.00167066
-5.88519e-05
0.00170202
-5.87332e-05
0.00173331
-5.85529e-05
0.00176449
-5.82976e-05
0.00179553
-5.79575e-05
0.00182642
-5.75254e-05
0.00185715
-5.69992e-05
0.00188772
-5.63804e-05
0.00191815
-5.56744e-05
0.00194844
-5.48884e-05
0.00197859
-5.40291e-05
0.0020086
-5.31027e-05
0.00203845
-5.21119e-05
0.00206815
-5.10553e-05
0.00209769
-4.99296e-05
0.00212707
-4.87314e-05
0.00215634
-4.74581e-05
0.00218554
-4.61118e-05
0.00221474
-4.47018e-05
0.00224402
-4.32478e-05
0.00227343
-4.17772e-05
0.00230301
-4.03228e-05
0.00233279
-3.89174e-05
0.00236273
-3.75902e-05
0.0023928
-3.63647e-05
0.0024229
-3.52587e-05
0.00245294
-3.42858e-05
0.00248277
-3.3455e-05
0.00251223
-3.27696e-05
0.00254113
-3.22223e-05
0.00256931
-3.17917e-05
0.00259661
-3.14387e-05
0.00262293
-3.11094e-05
0.0026482
-3.07464e-05
0.00267241
-3.03033e-05
0.0026956
-2.97523e-05
0.00271784
-2.90854e-05
0.00273922
-2.83097e-05
0.00275981
-2.74423e-05
0.00277968
-2.65045e-05
0.00279886
-2.55171e-05
0.00281737
-2.44983e-05
0.00283519
-2.34622e-05
0.0028523
-2.24187e-05
0.00286867
-2.13742e-05
0.00288425
-2.03323e-05
0.00289898
-1.92944e-05
0.00291283
-1.82606e-05
0.00292573
-1.72287e-05
0.00293764
-1.61955e-05
0.00294853
-1.5156e-05
0.00295834
-1.41043e-05
0.00296705
-1.30335e-05
0.00297467
-1.19387e-05
0.0029812
-1.08129e-05
0.0029867
-9.65226e-06
0.00299121
-8.45756e-06
0.00299483
-7.23167e-06
0.00299765
-5.9811e-06
0.00299976
-4.70214e-06
0.00300122
-3.39354e-06
0.0030021
-2.05969e-06
0.00300237
-6.62355e-07
0.00300224
6.46687e-07
0.00300155
2.07005e-06
0.00300023
3.52964e-06
0.00299825
5.00463e-06
0.00299553
6.48349e-06
0.00299203
7.95532e-06
0.0029877
9.40954e-06
0.00298252
1.08375e-05
0.00297647
1.22332e-05
0.00296957
1.35938e-05
0.00296184
1.49189e-05
0.00295329
1.62102e-05
0.00294398
1.74708e-05
0.00293392
1.87043e-05
0.00292315
1.99172e-05
0.00291169
2.11136e-05
0.00289955
2.22972e-05
0.00288674
2.34713e-05
0.00287326
2.46389e-05
0.00285914
2.58016e-05
0.00284436
2.69597e-05
0.00282892
2.81136e-05
0.00281285
2.92631e-05
0.00279612
3.04099e-05
0.00277876
3.15531e-05
0.00276075
3.26912e-05
0.00274211
3.38236e-05
0.00272284
3.49501e-05
0.00270293
3.60705e-05
0.0026824
3.71834e-05
0.00266125
3.82875e-05
0.00263949
3.93821e-05
0.00261711
4.04661e-05
0.00259414
4.15385e-05
0.00257057
4.25985e-05
0.00254642
4.36444e-05
0.0025217
4.46759e-05
0.00249641
4.56919e-05
0.00247059
4.66916e-05
0.00244423
4.76739e-05
0.00241735
4.86381e-05
0.00238998
4.95836e-05
0.00236213
5.05106e-05
0.00233382
5.1418e-05
0.00230509
5.23053e-05
0.00227595
5.3172e-05
0.00224645
5.40183e-05
0.00221662
5.48427e-05
0.0021865
5.56434e-05
0.00215613
5.64184e-05
0.00212556
5.71662e-05
0.00209481
5.78862e-05
0.00206394
5.85789e-05
0.00203295
5.92464e-05
0.00200188
5.98903e-05
0.00197076
6.05131e-05
0.00193961
6.11169e-05
0.00190844
6.17048e-05
0.00187727
6.22828e-05
0.00184607
6.28604e-05
0.00181486
6.34512e-05
0.00178361
6.40722e-05
0.00175231
6.47429e-05
0.00172094
6.5483e-05
0.00168948
6.63106e-05
0.00165791
6.72409e-05
0.0016262
6.82844e-05
0.00159434
6.94469e-05
0.00156229
7.07269e-05
0.00153003
7.21146e-05
0.00149756
7.3589e-05
0.00146486
7.51154e-05
0.00143197
7.66431e-05
0.00139892
7.81065e-05
0.00136579
7.94282e-05
0.00133266
8.05235e-05
0.00129971
8.13092e-05
0.00126717
8.1706e-05
0.00123548
8.16232e-05
0.00120534
8.09231e-05
0.00117763
7.93259e-05
0.001153
7.67797e-05
0.00113182
7.30717e-05
0.001114
6.80716e-05
0.001099
6.19386e-05
0.00108591
5.51947e-05
0.00107376
4.85549e-05
0.00106174
4.26861e-05
0.00104937
3.79962e-05
0.00103651
3.45812e-05
0.0010232
3.23175e-05
0.00100956
3.09683e-05
0.000995677
3.02941e-05
0.000981497
3.0086e-05
0.000966935
3.01679e-05
0.000951883
3.03811e-05
0.000936284
3.05794e-05
0.000920156
3.06392e-05
0.000903607
3.04795e-05
0.000886807
3.00759e-05
0.000869937
2.94594e-05
0.000853155
2.86998e-05
0.000836574
2.78813e-05
0.000820243
2.70818e-05
0.000804164
2.63551e-05
0.000788304
2.57232e-05
0.000772615
2.51875e-05
0.000757055
2.47256e-05
0.000741578
2.43142e-05
0.000726184
2.39282e-05
0.000710878
2.35554e-05
0.000695668
2.31741e-05
0.000680588
2.27823e-05
0.00066567
2.23816e-05
0.000650931
2.19774e-05
0.000636382
2.15793e-05
0.000622038
2.11865e-05
0.000607878
2.08294e-05
0.000593897
2.04915e-05
0.000580064
2.01973e-05
0.000566349
1.99497e-05
0.000552725
1.97421e-05
0.000539159
1.95782e-05
0.000525635
1.94483e-05
0.000512094
1.93794e-05
0.000498511
1.93558e-05
0.000484833
1.93886e-05
0.000471016
1.94832e-05
0.000456999
1.96434e-05
0.000442728
1.98807e-05
0.000428131
2.01941e-05
0.000413137
2.05821e-05
0.000397673
2.10465e-05
0.000381682
2.15645e-05
0.000365102
2.2145e-05
0.000347875
2.27721e-05
0.000329965
2.342e-05
0.000311341
2.40692e-05
0.000291991
2.47253e-05
0.000271937
2.53352e-05
0.000251208
2.58895e-05
0.000229857
2.63904e-05
0.000207966
2.67891e-05
0.000185613
2.70882e-05
0.000162861
2.7269e-05
0.000139785
2.73078e-05
0.000116379
2.7199e-05
9.25682e-05
2.70316e-05
6.83081e-05
2.67856e-05
4.41778e-05
2.55415e-05
2.23797e-05
2.24972e-05
3.12957e-05
-1.55672e-05
1.39965e-05
-2.75658e-05
2.08594e-06
-4.2882e-05
9.62812e-06
-5.91099e-05
1.18691e-05
-7.50967e-05
1.15715e-05
-9.07787e-05
1.12171e-05
-0.0001062
1.09685e-05
-0.000121312
1.0664e-05
-0.00013605
1.02763e-05
-0.000150351
9.82339e-06
-0.000164175
9.31286e-06
-0.000177475
8.7484e-06
-0.000190199
8.13369e-06
-0.000202313
7.47137e-06
-0.000213771
6.76737e-06
-0.000224543
6.02562e-06
-0.000234596
5.25412e-06
-0.000243898
4.45961e-06
-0.000252433
3.64566e-06
-0.000260172
2.82143e-06
-0.000267113
1.99386e-06
-0.000273245
1.17175e-06
-0.000278577
3.59102e-07
-0.000283088
-4.65463e-07
-0.000286829
-1.21247e-06
-0.000289833
-1.91399e-06
-0.00029213
-2.56154e-06
-0.00029375
-3.1572e-06
-0.000294719
-3.70112e-06
-0.000295075
-4.18254e-06
-0.000294814
-4.63914e-06
-0.000293953
-5.05448e-06
-0.000292498
-5.4409e-06
-0.000290449
-5.80639e-06
-0.000287823
-6.14471e-06
-0.00028463
-6.46759e-06
-0.000280884
-6.78007e-06
-0.000276601
-7.09069e-06
-0.00027178
-7.41466e-06
-0.00026641
-7.75832e-06
-0.000260461
-8.12854e-06
-0.000253895
-8.5273e-06
-0.000246654
-8.95772e-06
-0.000238698
-9.42353e-06
-0.000229999
-9.9451e-06
-0.000220566
-1.05259e-05
-0.000210455
-1.11755e-05
-0.000199739
-1.19129e-05
-0.000188494
-1.27528e-05
-0.000176795
-1.37046e-05
-0.000164709
-1.4769e-05
-0.000152296
-1.59384e-05
-0.000139601
-1.71988e-05
-0.000126653
-1.85323e-05
-0.000113469
-1.9922e-05
-0.000100055
-2.13533e-05
-8.64107e-05
-2.28152e-05
-7.25349e-05
-2.43016e-05
-5.84198e-05
-2.58028e-05
-4.40537e-05
-2.73135e-05
-2.94302e-05
-2.8831e-05
-1.45433e-05
-3.03584e-05
6.16278e-07
-3.18979e-05
1.60561e-05
-3.34509e-05
3.17849e-05
-3.50154e-05
4.78115e-05
-3.65899e-05
6.41443e-05
-3.81695e-05
8.07869e-05
-3.97472e-05
9.77438e-05
-4.13186e-05
0.000115016
-4.28774e-05
0.000132604
-4.44174e-05
0.00015051
-4.59369e-05
0.000168734
-4.74326e-05
0.000187256
-4.88923e-05
0.000206098
-5.03358e-05
0.000225258
-5.17528e-05
0.000244737
-5.31425e-05
0.000264548
-5.45063e-05
0.000284689
-5.58466e-05
0.000305161
-5.7163e-05
0.000325957
-5.84428e-05
0.000347091
-5.97059e-05
0.000368561
-6.094e-05
0.000390364
-6.21491e-05
0.000412498
-6.33277e-05
0.000434955
-6.44799e-05
0.000457736
-6.56046e-05
0.000480828
-6.67036e-05
0.00050422
-6.77779e-05
0.000527897
-6.88291e-05
0.000551849
-6.98545e-05
0.000576058
-7.08572e-05
0.000600504
-7.18367e-05
0.000625176
-7.27908e-05
0.000650053
-7.37154e-05
0.000675132
-7.46053e-05
0.000700401
-7.54567e-05
0.000725862
-7.62655e-05
0.000751518
-7.70299e-05
0.00077737
-7.77515e-05
0.000803418
-7.8433e-05
0.000829662
-7.90779e-05
0.000856099
-7.96899e-05
0.000882724
-8.02722e-05
0.000909531
-8.08277e-05
0.000936509
-8.13587e-05
0.000963649
-8.18655e-05
0.000990942
-8.235e-05
0.00101838
-8.28129e-05
0.00104596
-8.32558e-05
0.00107367
-8.36767e-05
0.0011015
-8.4078e-05
0.00112944
-8.44613e-05
0.0011575
-8.48212e-05
0.00118565
-8.51628e-05
0.00121391
-8.5486e-05
0.00124225
-8.57863e-05
0.00127068
-8.60681e-05
0.00129918
-8.6329e-05
0.00132776
-8.65696e-05
0.00135641
-8.67902e-05
0.00138512
-8.69895e-05
0.00141389
-8.71696e-05
0.00144271
-8.73271e-05
0.00147158
-8.74652e-05
0.00150048
-8.75804e-05
0.00152942
-8.76759e-05
0.00155836
-8.7748e-05
0.00158731
-8.77979e-05
0.00161624
-8.78218e-05
0.00164514
-8.78184e-05
0.00167397
-8.77816e-05
0.00170272
-8.7708e-05
0.00173135
-8.7591e-05
0.00175986
-8.74224e-05
0.0017882
-8.71959e-05
0.00181637
-8.69041e-05
0.00184436
-8.65404e-05
0.00187216
-8.6099e-05
0.00189978
-8.55774e-05
0.00192723
-8.49739e-05
0.00195452
-8.42899e-05
0.00198167
-8.35282e-05
0.00200868
-8.26917e-05
0.00203558
-8.17839e-05
0.00206236
-8.08083e-05
0.00208902
-7.97649e-05
0.00211556
-7.86546e-05
0.00214199
-7.74775e-05
0.00216829
-7.62326e-05
0.00219448
-7.49205e-05
0.00222056
-7.35439e-05
0.00224656
-7.2109e-05
0.00227248
-7.06251e-05
0.00229834
-6.9105e-05
0.00232413
-6.75651e-05
0.00234983
-6.60249e-05
0.00237542
-6.45036e-05
0.00240085
-6.30201e-05
0.00242607
-6.15901e-05
0.00245104
-6.02241e-05
0.00247568
-5.89263e-05
0.00249992
-5.7694e-05
0.00252367
-5.65173e-05
0.00254682
-5.53801e-05
0.00256929
-5.42611e-05
0.00259099
-5.31366e-05
0.00261186
-5.19838e-05
0.0026319
-5.07859e-05
0.00265114
-4.95341e-05
0.00266961
-4.82274e-05
0.0026874
-4.68705e-05
0.00270456
-4.54698e-05
0.00272114
-4.40313e-05
0.0027372
-4.25592e-05
0.00275274
-4.10565e-05
0.00276777
-3.95249e-05
0.00278227
-3.79656e-05
0.00279623
-3.63798e-05
0.00280963
-3.47695e-05
0.00282243
-3.31355e-05
0.00283461
-3.14785e-05
0.00284615
-2.97976e-05
0.00285701
-2.80927e-05
0.00286718
-2.63622e-05
0.00287663
-2.4603e-05
0.00288533
-2.28102e-05
0.00289329
-2.09861e-05
0.00290047
-1.91211e-05
0.00290688
-1.72225e-05
0.00291252
-1.52966e-05
0.00291741
-1.33491e-05
0.00292157
-1.13841e-05
0.00292499
-9.40831e-06
0.00292773
-7.44116e-06
0.00292978
-5.44469e-06
0.00293117
-3.45108e-06
0.00293196
-1.45e-06
0.00293201
5.99911e-07
0.00293141
2.66626e-06
0.00293017
4.77458e-06
0.00292825
6.91781e-06
0.00292565
9.08704e-06
0.00292234
1.12713e-05
0.00291829
1.34581e-05
0.00291349
1.56346e-05
0.00290793
1.77892e-05
0.00290162
1.99119e-05
0.00289454
2.19964e-05
0.00288671
2.4039e-05
0.00287814
2.60403e-05
0.00286884
2.80033e-05
0.00285883
2.99324e-05
0.00284811
3.18334e-05
0.00283669
3.37115e-05
0.00282459
3.55717e-05
0.00281181
3.74172e-05
0.00279836
3.92504e-05
0.00278425
4.10728e-05
0.00276948
4.28854e-05
0.00275405
4.46878e-05
0.00273798
4.64796e-05
0.00272128
4.82616e-05
0.00270393
5.00341e-05
0.00268596
5.17954e-05
0.00266737
5.3545e-05
0.00264816
5.52819e-05
0.00262833
5.7005e-05
0.00260791
5.87131e-05
0.00258688
6.04054e-05
0.00256527
6.20799e-05
0.00254307
6.37355e-05
0.0025203
6.53702e-05
0.00249697
6.69814e-05
0.00247307
6.85692e-05
0.00244863
7.01326e-05
0.00242365
7.16677e-05
0.00239816
7.31734e-05
0.00237215
7.46479e-05
0.00234564
7.60891e-05
0.00231866
7.7494e-05
0.00229121
7.88619e-05
0.00226333
8.01907e-05
0.00223502
8.1477e-05
0.00220632
8.27174e-05
0.00217726
8.39081e-05
0.00214786
8.50448e-05
0.00211815
8.61239e-05
0.00208817
8.71431e-05
0.00205796
8.81019e-05
0.00202754
8.9001e-05
0.00199694
8.98414e-05
0.00196621
9.06244e-05
0.00193537
9.13499e-05
0.00190447
9.20198e-05
0.00187353
9.26373e-05
0.00184261
9.32079e-05
0.00181173
9.37402e-05
0.00178094
9.42455e-05
0.00175027
9.47345e-05
0.00171979
9.52214e-05
0.00168956
9.57173e-05
0.00165964
9.62299e-05
0.00163011
9.67682e-05
0.00160106
9.73377e-05
0.00157257
9.7941e-05
0.00154471
9.85789e-05
0.00151758
9.92459e-05
0.00149124
9.99285e-05
0.00146576
0.000100604
0.00144116
0.000101237
0.00141748
0.000101784
0.00139472
0.000102189
0.00137285
0.000102395
0.00135181
0.000102348
0.00133153
0.000101988
0.0013119
0.00010125
0.00129278
0.000100044
0.00127386
9.82495e-05
0.00125496
9.56808e-05
0.00123587
9.21564e-05
0.00121627
8.76704e-05
0.00119575
8.24658e-05
0.00117391
7.7031e-05
0.00115055
7.19171e-05
0.00112571
6.75233e-05
0.00109971
6.39931e-05
0.00107305
6.12431e-05
0.00104628
5.90926e-05
0.00101987
5.73735e-05
0.000994176
5.59896e-05
0.000969368
5.4894e-05
0.000945491
5.40457e-05
0.000922489
5.3383e-05
0.000900245
5.28231e-05
0.000878649
5.22354e-05
0.000857592
5.15365e-05
0.000837005
5.06627e-05
0.000816852
4.96127e-05
0.000797124
4.84272e-05
0.000777821
4.71842e-05
0.000758946
4.59577e-05
0.000740489
4.48117e-05
0.000722425
4.37866e-05
0.00070472
4.28933e-05
0.000687324
4.21217e-05
0.000670196
4.14413e-05
0.000653323
4.08015e-05
0.000636708
4.01706e-05
0.000620334
3.95481e-05
0.000604227
3.88892e-05
0.000588411
3.81979e-05
0.000572896
3.74919e-05
0.000557697
3.6779e-05
0.000542812
3.60713e-05
0.000528258
3.53837e-05
0.000514003
3.47456e-05
0.000500081
3.41195e-05
0.000486459
3.35716e-05
0.000473158
3.30433e-05
0.000460147
3.25892e-05
0.000447399
3.21966e-05
0.000434905
3.18737e-05
0.000422626
3.16344e-05
0.000410522
3.14925e-05
0.000398592
3.14129e-05
0.000386754
3.14818e-05
0.000374978
3.16569e-05
0.000363208
3.19634e-05
0.000351375
3.2416e-05
0.000339415
3.30058e-05
0.000327226
3.37538e-05
0.000314715
3.46558e-05
0.00030178
3.57078e-05
0.000288326
3.68736e-05
0.000274251
3.81443e-05
0.000259478
3.94976e-05
0.00024391
4.09034e-05
0.000227473
4.23267e-05
0.000210133
4.37303e-05
0.000191846
4.50763e-05
0.000172609
4.63252e-05
0.000152425
4.74528e-05
0.000131311
4.84218e-05
0.000109324
4.91862e-05
8.67666e-05
4.9589e-05
6.45943e-05
4.89579e-05
4.43515e-05
4.57843e-05
2.594e-05
4.09087e-05
5.72357e-05
-1.23575e-05
2.6354e-05
-1.9036e-05
8.7645e-06
-2.9508e-05
2.01e-05
-4.16341e-05
2.39952e-05
-5.35459e-05
2.34833e-05
-6.49537e-05
2.26249e-05
-7.598e-05
2.19948e-05
-8.66414e-05
2.13254e-05
-9.68845e-05
2.05194e-05
-0.000106656
1.95949e-05
-0.000115914
1.85709e-05
-0.000124621
1.74553e-05
-0.000132741
1.6254e-05
-0.000140245
1.49749e-05
-0.000147105
1.36274e-05
-0.000153301
1.2222e-05
-0.000158818
1.0771e-05
-0.000163646
9.28745e-06
-0.000167785
7.78486e-06
-0.000171241
6.27756e-06
-0.000174026
4.77901e-06
-0.000176157
3.30264e-06
-0.00017766
1.86149e-06
-0.000178595
4.69983e-07
-0.000178961
-8.46284e-07
-0.000178785
-2.09019e-06
-0.000178098
-3.24918e-06
-0.000176929
-4.32529e-06
-0.00017531
-5.32095e-06
-0.000173246
-6.24634e-06
-0.00017077
-7.11468e-06
-0.00016789
-7.93456e-06
-0.000164613
-8.71764e-06
-0.000160951
-9.4688e-06
-0.000156904
-1.0192e-05
-0.000152483
-1.08886e-05
-0.000147697
-1.15662e-05
-0.000142554
-1.22334e-05
-0.000137079
-1.28894e-05
-0.000131283
-1.35547e-05
-0.000125167
-1.42443e-05
-0.000118734
-1.49603e-05
-0.000111965
-1.57267e-05
-0.000104849
-1.654e-05
-9.73737e-05
-1.74199e-05
-8.9535e-05
-1.83646e-05
-8.13288e-05
-1.93817e-05
-7.27671e-05
-2.04745e-05
-6.38719e-05
-2.1648e-05
-5.46707e-05
-2.29057e-05
-4.51917e-05
-2.4248e-05
-3.54588e-05
-2.56714e-05
-2.54872e-05
-2.71703e-05
-1.52816e-05
-2.87379e-05
-4.83617e-06
-3.03675e-05
5.8629e-06
-3.20524e-05
1.68329e-05
-3.37852e-05
2.80891e-05
-3.55577e-05
3.96528e-05
-3.73666e-05
5.15476e-05
-3.92083e-05
6.37877e-05
-4.10711e-05
7.63911e-05
-4.29618e-05
8.93626e-05
-4.48694e-05
0.000102715
-4.68028e-05
0.000116448
-4.87492e-05
0.000130576
-5.07173e-05
0.000145086
-5.268e-05
0.000159988
-5.46493e-05
0.000175301
-5.66314e-05
0.00019101
-5.85867e-05
0.000207126
-6.0533e-05
0.000223643
-6.24534e-05
0.000240573
-6.43631e-05
0.00025793
-6.62495e-05
0.000275706
-6.81117e-05
0.000293898
-6.99445e-05
0.000312508
-7.17522e-05
0.000331531
-7.35298e-05
0.000350966
-7.52816e-05
0.000370806
-7.70028e-05
0.000391054
-7.8691e-05
0.000411694
-8.03457e-05
0.000432721
-8.1967e-05
0.000454122
-8.35498e-05
0.000475894
-8.50999e-05
0.000498025
-8.66113e-05
0.000520511
-8.80902e-05
0.000543335
-8.95275e-05
0.000566487
-9.09302e-05
0.000589949
-9.22913e-05
0.000613712
-9.36172e-05
0.000637757
-9.49023e-05
0.000662066
-9.61454e-05
0.000686625
-9.73505e-05
0.000711421
-9.85109e-05
0.000736442
-9.96262e-05
0.000761681
-0.000100695
0.000787132
-0.000101717
0.000812794
-0.000102692
0.000838662
-0.00010362
0.000864732
-0.000104503
0.000890998
-0.000105344
0.000917452
-0.000106144
0.000944086
-0.000106906
0.00097089
-0.000107631
0.000997852
-0.000108321
0.00102496
-0.000108978
0.00105222
-0.000109603
0.0010796
-0.000110195
0.0011071
-0.000110758
0.00113472
-0.000111291
0.00116243
-0.000111795
0.00119024
-0.00011227
0.00121814
-0.000112717
0.00124611
-0.000113136
0.00127415
-0.000113527
0.00130226
-0.00011389
0.00133041
-0.000114225
0.00135862
-0.000114532
0.00138686
-0.00011481
0.00141513
-0.00011506
0.00144342
-0.000115282
0.00147172
-0.000115474
0.00150003
-0.000115636
0.00152834
-0.000115769
0.00155663
-0.00011587
0.00158489
-0.000115938
0.00161311
-0.000115972
0.00164128
-0.00011597
0.00166939
-0.000115928
0.00169741
-0.00011584
0.00172534
-0.000115705
0.00175315
-0.000115517
0.00178083
-0.000115271
0.00180837
-0.000114962
0.00183576
-0.000114586
0.00186299
-0.00011414
0.00189007
-0.00011362
0.001917
-0.000113025
0.00194377
-0.000112354
0.0019704
-0.000111605
0.00199689
-0.000110779
0.00202324
-0.000109875
0.00204944
-0.000108895
0.0020755
-0.000107838
0.00210139
-0.000106705
0.00212712
-0.000105496
0.00215268
-0.000104212
0.00217806
-0.000102853
0.00220325
-0.000101422
0.00222825
-9.9922e-05
0.00225306
-9.83552e-05
0.00227768
-9.67272e-05
0.0023021
-9.50461e-05
0.00232632
-9.33215e-05
0.00235031
-9.15629e-05
0.00237407
-8.9783e-05
0.00239756
-8.7993e-05
0.00242075
-8.62035e-05
0.00244358
-8.44229e-05
0.00246601
-8.26575e-05
0.002488
-8.09105e-05
0.00250948