/*--------------------------------*- C++ -*----------------------------------*\
| =========                 |                                                 |
| \\      /  F ield         | OpenFOAM: The Open Source CFD Toolbox           |
|  \\    /   O peration     | Version:  v2006                                 |
|   \\  /    A nd           | Website:  www.openfoam.com                      |
|    \\/     M anipulation  |                                                 |
\*---------------------------------------------------------------------------*/
FoamFile
{
    version     2.0;
    format      ascii;
    class       volScalarField;
    location    "15";
    object      p;
}
// * * * * * * * * * * * * * * * * * * * * * * * * * * * * * * * * * * * * * //

dimensions      [1 -1 -2 0 0 0 0];


internalField   nonuniform List<scalar> 
52500
(
31576.9
31576.7
31576.4
31576
31575.4
31574.7
31573.9
31572.9
31571.8
31570.5
31569.1
31567.6
31565.9
31564.1
31562.2
31560.2
31558
31555.6
31553.2
31550.6
31547.9
31545.1
31542.2
31539.1
31535.9
31532.6
31529.2
31525.7
31522.1
31518.4
31514.6
31510.6
31506.6
31502.5
31498.2
31493.9
31489.5
31485
31480.5
31475.8
31471.1
31466.2
31461.4
31456.4
31451.4
31446.3
31441.1
31435.9
31430.6
31425.2
31419.8
31414.4
31408.9
31403.3
31397.8
31392.1
31386.5
31380.8
31375
31369.2
31363.4
31357.6
31351.8
31345.9
31340
31334.1
31328.2
31322.3
31316.3
31310.4
31304.5
31298.5
31292.6
31286.7
31280.7
31274.8
31268.9
31263
31257.1
31251.3
31245.4
31239.6
31233.8
31228
31222.3
31216.6
31210.9
31205.2
31199.6
31194
31188.4
31182.9
31177.4
31172
31166.6
31161.2
31155.9
31150.6
31145.4
31140.2
31135.1
31130
31124.9
31119.9
31115
31110.1
31105.3
31100.5
31095.7
31091.1
31086.4
31081.8
31077.3
31072.8
31068.4
31064
31059.7
31055.4
31051.1
31046.9
31042.8
31038.7
31034.6
31030.6
31026.6
31022.7
31018.8
31015
31011.1
31007.3
31003.6
30999.8
30996.1
30992.5
30988.8
30985.2
30981.5
30977.9
30974.3
30970.8
30967.2
30963.6
30960
30956.5
30952.9
30949.3
30945.7
30942.1
30938.5
30934.8
30931.2
30927.5
30923.8
30920
30916.3
30912.4
30908.6
30904.7
30900.7
30896.7
30892.6
30888.5
30884.3
30880
30875.7
30871.3
30866.8
30862.2
30857.5
30852.7
30847.9
30842.9
30837.8
30832.6
30827.3
30821.9
30816.4
30810.8
30805
30799.1
30793
30786.9
30780.5
30774.1
30767.5
30760.7
30753.8
30746.7
30739.4
30732
30724.4
30716.7
30708.7
30700.6
30692.3
30683.9
30675.2
30666.3
30657.3
30648
30638.5
30628.9
30619
30608.9
30598.6
30588.1
30577.3
30566.4
30555.2
30543.8
30532.2
30520.3
30508.2
30495.9
30483.4
30470.6
30457.6
30444.4
30430.9
30417.2
30403.2
30389
30374.6
30359.9
30345
30329.9
30314.5
30298.9
30283
30266.9
30250.6
30234
30217.2
30200.2
30182.9
30165.4
30147.7
30129.8
30111.6
30093.2
30074.6
30055.7
30036.7
30017.4
29997.9
29978.3
29958.4
29938.3
29918
29897.6
29876.9
29856.1
29835.1
29813.9
29792.5
29771
29749.4
29727.6
29705.6
29683.5
29661.3
29638.9
29616.4
29593.8
29571.2
29548.4
29525.5
29502.5
29479.5
29456.4
29433.2
29409.9
29386.7
29363.3
29340
29316.6
29293.2
29269.8
29246.4
29223
29199.6
29176.3
29153
29129.8
29106.6
29083.6
29060.6
29037.8
29015.1
28992.5
28970
28947.7
28925.5
28903.5
28881.6
28860
28838.5
28817.2
28796.1
28775.2
28754.5
28734.1
28714
28694
28674.4
28655
28635.9
28617.1
28598.6
28580.4
28562.6
28545
28527.8
28511
28494.5
28478.3
28462.5
28447.1
28432.1
28417.5
28403.2
28389.4
28376
28363
28350.4
28338.3
28326.6
28315.3
28304.5
28294.1
28284.2
28274.8
28265.9
28257.4
28249.4
28241.8
28234.8
28228.2
28222.2
28216.6
28211.6
28207
28202.9
28199.4
28196.3
28193.8
28191.7
28190.2
28189.2
28188.7
31119.4
31119.3
31119
31118.6
31118
31117.3
31116.5
31115.5
31114.4
31113.1
31111.7
31110.2
31108.5
31106.7
31104.8
31102.7
31100.5
31098.2
31095.7
31093.1
31090.4
31087.6
31084.7
31081.6
31078.4
31075.2
31071.7
31068.2
31064.6
31060.9
31057
31053.1
31049.1
31044.9
31040.7
31036.4
31032
31027.5
31022.9
31018.2
31013.5
31008.6
31003.7
30998.8
30993.7
30988.6
30983.5
30978.2
30972.9
30967.6
30962.2
30956.7
30951.2
30945.7
30940.1
30934.4
30928.7
30923
30917.3
30911.5
30905.7
30899.9
30894
30888.1
30882.2
30876.3
30870.4
30864.5
30858.5
30852.6
30846.6
30840.7
30834.8
30828.8
30822.9
30817
30811
30805.1
30799.3
30793.4
30787.5
30781.7
30775.9
30770.1
30764.4
30758.6
30752.9
30747.3
30741.6
30736
30730.5
30724.9
30719.5
30714
30708.6
30703.2
30697.9
30692.6
30687.4
30682.2
30677.1
30672
30667
30662
30657
30652.1
30647.3
30642.5
30637.8
30633.1
30628.4
30623.9
30619.3
30614.8
30610.4
30606
30601.7
30597.4
30593.2
30589
30584.8
30580.7
30576.7
30572.7
30568.7
30564.8
30560.9
30557
30553.2
30549.4
30545.7
30541.9
30538.2
30534.6
30530.9
30527.3
30523.7
30520.1
30516.5
30512.9
30509.3
30505.8
30502.2
30498.7
30495.1
30491.5
30487.9
30484.3
30480.7
30477.1
30473.5
30469.8
30466.1
30462.3
30458.6
30454.8
30450.9
30447
30443.1
30439.1
30435
30430.9
30426.7
30422.4
30418.1
30413.7
30409.2
30404.6
30399.9
30395.2
30390.3
30385.4
30380.3
30375.1
30369.8
30364.4
30358.9
30353.3
30347.5
30341.6
30335.6
30329.4
30323.1
30316.7
30310.1
30303.3
30296.4
30289.3
30282.1
30274.7
30267.1
30259.3
30251.4
30243.3
30235
30226.5
30217.9
30209
30199.9
30190.7
30181.2
30171.5
30161.7
30151.6
30141.3
30130.8
30120.1
30109.1
30097.9
30086.6
30074.9
30063.1
30051
30038.7
30026.2
30013.4
30000.4
29987.2
29973.7
29960
29946
29931.8
29917.4
29902.7
29887.8
29872.7
29857.3
29841.7
29825.8
29809.7
29793.4
29776.8
29760
29743
29725.7
29708.2
29690.5
29672.5
29654.4
29635.9
29617.3
29598.5
29579.4
29560.1
29540.7
29521
29501.1
29481
29460.7
29440.2
29419.6
29398.7
29377.7
29356.5
29335.2
29313.6
29291.9
29270.1
29248.1
29226
29203.8
29181.4
29158.9
29136.3
29113.6
29090.8
29067.9
29044.9
29021.8
28998.7
28975.5
28952.2
28928.9
28905.5
28882.2
28858.8
28835.3
28811.9
28788.5
28765.1
28741.7
28718.3
28695
28671.7
28648.5
28625.5
28602.5
28579.6
28556.9
28534.3
28511.8
28489.5
28467.3
28445.2
28423.4
28401.6
28380.1
28358.8
28337.7
28316.8
28296.1
28275.7
28255.5
28235.5
28215.9
28196.5
28177.4
28158.5
28140
28121.8
28103.9
28086.3
28069.1
28052.2
28035.7
28019.5
28003.7
27988.3
27973.2
27958.6
27944.3
27930.5
27917.1
27904
27891.5
27879.3
27867.6
27856.3
27845.5
27835.1
27825.2
27815.8
27806.8
27798.3
27790.3
27782.7
27775.7
27769.1
27763.1
27757.5
27752.4
27747.8
27743.8
27740.2
27737.2
27734.6
27732.6
27731
27730
27729.5
30662.3
30662.2
30661.9
30661.5
30660.9
30660.2
30659.4
30658.4
30657.3
30656
30654.6
30653.1
30651.4
30649.6
30647.6
30645.6
30643.4
30641
30638.6
30636
30633.3
30630.5
30627.5
30624.5
30621.3
30618
30614.6
30611
30607.4
30603.7
30599.8
30595.9
30591.8
30587.7
30583.4
30579.1
30574.7
30570.2
30565.6
30560.9
30556.1
30551.3
30546.4
30541.4
30536.3
30531.2
30526
30520.7
30515.4
30510.1
30504.6
30499.2
30493.6
30488.1
30482.5
30476.8
30471.1
30465.4
30459.6
30453.8
30448
30442.1
30436.3
30430.4
30424.5
30418.6
30412.6
30406.7
30400.7
30394.8
30388.8
30382.8
30376.9
30370.9
30365
30359.1
30353.1
30347.2
30341.3
30335.4
30329.6
30323.7
30317.9
30312.1
30306.4
30300.6
30294.9
30289.2
30283.6
30278
30272.4
30266.9
30261.4
30255.9
30250.5
30245.1
30239.8
30234.5
30229.3
30224.1
30218.9
30213.8
30208.8
30203.8
30198.9
30194
30189.1
30184.3
30179.6
30174.9
30170.3
30165.7
30161.1
30156.7
30152.2
30147.9
30143.5
30139.2
30135
30130.8
30126.7
30122.6
30118.5
30114.5
30110.6
30106.7
30102.8
30098.9
30095.1
30091.3
30087.6
30083.9
30080.2
30076.5
30072.9
30069.3
30065.7
30062.1
30058.5
30055
30051.4
30047.9
30044.3
30040.8
30037.2
30033.7
30030.1
30026.6
30023
30019.4
30015.7
30012.1
30008.4
30004.7
30000.9
29997.1
29993.3
29989.4
29985.5
29981.5
29977.5
29973.4
29969.2
29965
29960.7
29956.3
29951.8
29947.2
29942.6
29937.9
29933
29928.1
29923.1
29917.9
29912.6
29907.3
29901.8
29896.2
29890.4
29884.5
29878.5
29872.4
29866.1
29859.7
29853.1
29846.3
29839.4
29832.4
29825.2
29817.8
29810.2
29802.5
29794.6
29786.5
29778.2
29769.8
29761.1
29752.3
29743.2
29734
29724.5
29714.9
29705
29694.9
29684.6
29674.1
29663.4
29652.5
29641.3
29629.9
29618.3
29606.5
29594.4
29582.1
29569.6
29556.8
29543.8
29530.6
29517.1
29503.4
29489.5
29475.3
29460.8
29446.2
29431.3
29416.1
29400.7
29385.1
29369.2
29353.1
29336.8
29320.2
29303.4
29286.4
29269.1
29251.6
29233.8
29215.8
29197.6
29179.2
29160.6
29141.7
29122.6
29103.3
29083.8
29064.1
29044.2
29024.1
29003.8
28983.3
28962.6
28941.7
28920.7
28899.5
28878.1
28856.5
28834.8
28812.9
28790.9
28768.8
28746.5
28724.1
28701.5
28678.9
28656.1
28633.2
28610.3
28587.2
28564.1
28540.9
28517.7
28494.4
28471
28447.6
28424.2
28400.8
28377.3
28353.9
28330.4
28307
28283.6
28260.2
28236.9
28213.6
28190.5
28167.4
28144.3
28121.4
28098.6
28075.9
28053.4
28030.9
28008.7
27986.6
27964.6
27942.9
27921.3
27899.9
27878.7
27857.8
27837.1
27816.6
27796.3
27776.3
27756.6
27737.2
27718
27699.1
27680.6
27662.3
27644.4
27626.7
27609.5
27592.5
27576
27559.7
27543.9
27528.4
27513.4
27498.7
27484.4
27470.5
27457
27444
27431.3
27419.2
27407.4
27396.1
27385.2
27374.8
27364.9
27355.4
27346.4
27337.9
27329.9
27322.3
27315.3
27308.7
27302.6
27297
27291.9
27287.3
27283.3
27279.7
27276.6
27274.1
27272
27270.5
27269.5
27269
30205.6
30205.5
30205.2
30204.8
30204.2
30203.5
30202.7
30201.7
30200.5
30199.3
30197.9
30196.3
30194.6
30192.8
30190.9
30188.8
30186.6
30184.3
30181.8
30179.2
30176.5
30173.6
30170.7
30167.6
30164.4
30161.1
30157.7
30154.1
30150.5
30146.7
30142.9
30138.9
30134.8
30130.7
30126.4
30122
30117.6
30113.1
30108.4
30103.7
30099
30094.1
30089.2
30084.1
30079.1
30073.9
30068.7
30063.4
30058.1
30052.7
30047.3
30041.8
30036.2
30030.6
30025
30019.3
30013.6
30007.8
30002
29996.2
29990.4
29984.5
29978.6
29972.7
29966.8
29960.8
29954.9
29948.9
29942.9
29936.9
29931
29925
29919
29913
29907.1
29901.1
29895.2
29889.2
29883.3
29877.4
29871.5
29865.7
29859.8
29854
29848.2
29842.5
29836.8
29831.1
29825.4
29819.8
29814.2
29808.7
29803.1
29797.7
29792.3
29786.9
29781.5
29776.2
29771
29765.8
29760.6
29755.5
29750.5
29745.5
29740.5
29735.6
29730.8
29726
29721.2
29716.6
29711.9
29707.3
29702.8
29698.3
29693.9
29689.5
29685.2
29680.9
29676.7
29672.5
29668.4
29664.3
29660.3
29656.3
29652.3
29648.4
29644.5
29640.7
29636.9
29633.1
29629.4
29625.7
29622
29618.4
29614.8
29611.2
29607.6
29604
29600.5
29597
29593.4
29589.9
29586.4
29582.9
29579.4
29575.8
29572.3
29568.8
29565.2
29561.6
29558
29554.4
29550.8
29547.1
29543.4
29539.6
29535.8
29531.9
29528
29524.1
29520.1
29516
29511.9
29507.7
29503.4
29499
29494.6
29490.1
29485.5
29480.8
29476
29471.1
29466.1
29460.9
29455.7
29450.4
29444.9
29439.3
29433.6
29427.8
29421.8
29415.7
29409.4
29403
29396.5
29389.8
29382.9
29375.9
29368.7
29361.3
29353.8
29346.1
29338.2
29330.2
29321.9
29313.5
29304.8
29296
29287
29277.8
29268.3
29258.7
29248.9
29238.8
29228.6
29218.1
29207.4
29196.4
29185.3
29173.9
29162.3
29150.5
29138.4
29126.2
29113.6
29100.9
29087.9
29074.7
29061.2
29047.5
29033.5
29019.3
29004.9
28990.2
28975.3
28960.2
28944.8
28929.1
28913.3
28897.2
28880.8
28864.2
28847.4
28830.3
28813
28795.5
28777.7
28759.7
28741.5
28723.1
28704.4
28685.5
28666.4
28647.1
28627.6
28607.8
28587.9
28567.7
28547.4
28526.8
28506.1
28485.2
28464.1
28442.8
28421.4
28399.8
28378
28356.1
28334.1
28311.9
28289.5
28267
28244.4
28221.7
28198.9
28176
28153
28129.9
28106.7
28083.4
28060.1
28036.7
28013.3
27989.9
27966.4
27942.9
27919.3
27895.8
27872.3
27848.8
27825.3
27801.9
27778.5
27755.2
27731.9
27708.7
27685.6
27662.6
27639.8
27617
27594.4
27571.9
27549.6
27527.4
27505.3
27483.5
27461.9
27440.4
27419.2
27398.1
27377.3
27356.8
27336.4
27316.4
27296.6
27277.1
27257.8
27238.9
27220.2
27201.9
27183.9
27166.2
27148.9
27131.9
27115.2
27099
27083.1
27067.5
27052.4
27037.6
27023.3
27009.4
26995.8
26982.7
26970.1
26957.8
26946
26934.7
26923.8
26913.3
26903.4
26893.9
26884.8
26876.3
26868.2
26860.6
26853.5
26846.9
26840.8
26835.2
26830.1
26825.5
26821.4
26817.8
26814.7
26812.1
26810.1
26808.5
26807.5
26807
29749.3
29749.1
29748.9
29748.4
29747.9
29747.2
29746.3
29745.3
29744.2
29742.9
29741.5
29739.9
29738.2
29736.4
29734.5
29732.4
29730.2
29727.8
29725.3
29722.7
29720
29717.1
29714.1
29711
29707.8
29704.5
29701.1
29697.5
29693.8
29690.1
29686.2
29682.2
29678.1
29673.9
29669.6
29665.2
29660.8
29656.2
29651.6
29646.8
29642
29637.1
29632.2
29627.1
29622
29616.8
29611.6
29606.3
29600.9
29595.5
29590
29584.5
29578.9
29573.3
29567.6
29561.9
29556.1
29550.3
29544.5
29538.7
29532.8
29526.9
29521
29515
29509.1
29503.1
29497.1
29491.1
29485.1
29479.1
29473.1
29467.1
29461.1
29455.1
29449.1
29443.1
29437.1
29431.2
29425.2
29419.3
29413.4
29407.5
29401.7
29395.8
29390
29384.3
29378.5
29372.8
29367.1
29361.5
29355.9
29350.3
29344.8
29339.3
29333.8
29328.5
29323.1
29317.8
29312.5
29307.3
29302.2
29297
29292
29287
29282
29277.1
29272.3
29267.5
29262.7
29258
29253.4
29248.8
29244.3
29239.8
29235.4
29231
29226.7
29222.4
29218.2
29214
29209.9
29205.8
29201.8
29197.8
29193.9
29190
29186.1
29182.3
29178.5
29174.8
29171.1
29167.4
29163.8
29160.1
29156.6
29153
29149.4
29145.9
29142.4
29138.9
29135.4
29131.9
29128.4
29124.9
29121.5
29118
29114.5
29111
29107.4
29103.9
29100.4
29096.8
29093.2
29089.5
29085.8
29082.1
29078.4
29074.6
29070.7
29066.8
29062.8
29058.8
29054.7
29050.6
29046.3
29042
29037.6
29033.1
29028.6
29023.9
29019.2
29014.3
29009.4
29004.3
28999.1
28993.8
28988.4
28982.9
28977.2
28971.4
28965.5
28959.4
28953.2
28946.8
28940.3
28933.6
28926.8
28919.8
28912.7
28905.4
28897.9
28890.2
28882.4
28874.3
28866.1
28857.7
28849.1
28840.3
28831.3
28822.1
28812.7
28803.1
28793.3
28783.3
28773
28762.6
28751.9
28741
28729.9
28718.5
28706.9
28695.1
28683.1
28670.8
28658.3
28645.6
28632.6
28619.3
28605.9
28592.2
28578.2
28564
28549.6
28534.9
28520
28504.9
28489.5
28473.8
28457.9
28441.8
28425.4
28408.8
28392
28374.9
28357.6
28340
28322.2
28304.2
28286
28267.5
28248.8
28229.9
28210.7
28191.3
28171.8
28152
28132
28111.8
28091.4
28070.8
28050
28029.1
28007.9
27986.6
27965.1
27943.4
27921.6
27899.6
27877.5
27855.2
27832.8
27810.3
27787.6
27764.8
27741.9
27718.9
27695.8
27672.6
27649.4
27626
27602.6
27579.2
27555.6
27532.1
27508.5
27484.9
27461.3
27437.7
27414.1
27390.5
27366.9
27343.4
27319.9
27296.5
27273.2
27249.9
27226.7
27203.6
27180.6
27157.8
27135
27112.5
27090
27067.7
27045.6
27023.6
27001.9
26980.3
26959
26937.8
26916.9
26896.3
26875.8
26855.7
26835.8
26816.2
26796.8
26777.8
26759.1
26740.6
26722.5
26704.8
26687.3
26670.3
26653.5
26637.2
26621.2
26605.6
26590.4
26575.5
26561.1
26547.1
26533.5
26520.3
26507.6
26495.3
26483.4
26472
26461.1
26450.6
26440.6
26431
26421.9
26413.3
26405.2
26397.6
26390.4
26383.8
26377.6
26372
26366.9
26362.2
26358.1
26354.5
26351.4
26348.8
26346.8
26345.2
26344.2
26343.7
29293.3
29293.2
29292.9
29292.5
29291.9
29291.2
29290.3
29289.3
29288.2
29286.9
29285.5
29283.9
29282.2
29280.4
29278.4
29276.3
29274.1
29271.7
29269.2
29266.6
29263.8
29261
29258
29254.8
29251.6
29248.2
29244.8
29241.2
29237.5
29233.7
29229.8
29225.8
29221.6
29217.4
29213.1
29208.7
29204.2
29199.6
29194.9
29190.1
29185.3
29180.4
29175.3
29170.3
29165.1
29159.9
29154.6
29149.3
29143.9
29138.4
29132.9
29127.3
29121.7
29116
29110.3
29104.6
29098.8
29092.9
29087.1
29081.2
29075.3
29069.3
29063.4
29057.4
29051.4
29045.4
29039.4
29033.3
29027.3
29021.3
29015.2
29009.2
29003.1
28997.1
28991.1
28985.1
28979.1
28973.1
28967.1
28961.1
28955.2
28949.3
28943.4
28937.5
28931.7
28925.9
28920.1
28914.4
28908.7
28903
28897.4
28891.8
28886.3
28880.8
28875.3
28869.9
28864.5
28859.2
28853.9
28848.7
28843.5
28838.4
28833.3
28828.3
28823.3
28818.4
28813.5
28808.7
28804
28799.3
28794.6
28790.1
28785.5
28781.1
28776.6
28772.3
28768
28763.7
28759.5
28755.3
28751.2
28747.2
28743.2
28739.2
28735.3
28731.4
28727.6
28723.8
28720
28716.3
28712.6
28709
28705.4
28701.8
28698.2
28694.7
28691.2
28687.7
28684.2
28680.7
28677.3
28673.8
28670.4
28667
28663.5
28660.1
28656.6
28653.2
28649.7
28646.2
28642.7
28639.2
28635.6
28632
28628.4
28624.7
28621
28617.3
28613.5
28609.6
28605.7
28601.7
28597.7
28593.6
28589.4
28585.2
28580.8
28576.4
28571.9
28567.3
28562.6
28557.8
28552.9
28547.9
28542.8
28537.5
28532.2
28526.7
28521.1
28515.3
28509.5
28503.4
28497.3
28491
28484.5
28477.9
28471.1
28464.2
28457.1
28449.8
28442.4
28434.8
28427
28419
28410.8
28402.4
28393.9
28385.1
28376.2
28367
28357.7
28348.1
28338.3
28328.3
28318.1
28307.7
28297
28286.2
28275.1
28263.7
28252.2
28240.4
28228.3
28216.1
28203.6
28190.8
28177.9
28164.7
28151.2
28137.5
28123.6
28109.4
28094.9
28080.3
28065.3
28050.2
28034.7
28019.1
28003.2
27987
27970.7
27954
27937.2
27920.1
27902.7
27885.1
27867.3
27849.2
27831
27812.4
27793.7
27774.7
27755.5
27736.1
27716.5
27696.7
27676.6
27656.4
27635.9
27615.3
27594.4
27573.4
27552.2
27530.8
27509.2
27487.5
27465.6
27443.5
27421.3
27398.9
27376.4
27353.8
27331
27308.1
27285.2
27262.1
27238.9
27215.6
27192.2
27168.7
27145.2
27121.7
27098
27074.4
27050.7
27027
27003.3
26979.5
26955.8
26932.1
26908.4
26884.8
26861.2
26837.6
26814.2
26790.8
26767.4
26744.2
26721.1
26698.1
26675.3
26652.5
26630
26607.5
26585.3
26563.2
26541.3
26519.7
26498.2
26476.9
26455.9
26435.1
26414.5
26394.3
26374.2
26354.5
26335
26315.9
26297
26278.5
26260.3
26242.4
26224.9
26207.7
26190.8
26174.4
26158.3
26142.6
26127.3
26112.3
26097.8
26083.7
26070.1
26056.8
26044
26031.6
26019.7
26008.2
25997.2
25986.6
25976.5
25966.9
25957.7
25949.1
25940.9
25933.2
25926
25919.3
25913.2
25907.5
25902.3
25897.6
25893.5
25889.9
25886.7
25884.1
25882.1
25880.5
25879.5
25878.9
28837.8
28837.6
28837.3
28836.9
28836.3
28835.6
28834.7
28833.7
28832.6
28831.3
28829.8
28828.3
28826.5
28824.7
28822.7
28820.6
28818.3
28816
28813.4
28810.8
28808
28805.1
28802.1
28798.9
28795.7
28792.3
28788.8
28785.2
28781.4
28777.6
28773.6
28769.6
28765.4
28761.2
28756.8
28752.4
28747.8
28743.2
28738.5
28733.7
28728.8
28723.8
28718.7
28713.6
28708.4
28703.2
28697.8
28692.4
28687
28681.5
28675.9
28670.3
28664.6
28658.9
28653.1
28647.3
28641.5
28635.6
28629.7
28623.8
28617.8
28611.8
28605.8
28599.8
28593.8
28587.7
28581.6
28575.6
28569.5
28563.4
28557.3
28551.2
28545.2
28539.1
28533
28527
28520.9
28514.9
28508.9
28502.9
28496.9
28491
28485
28479.2
28473.3
28467.4
28461.6
28455.9
28450.1
28444.4
28438.8
28433.2
28427.6
28422.1
28416.6
28411.1
28405.7
28400.4
28395.1
28389.9
28384.7
28379.5
28374.4
28369.4
28364.4
28359.5
28354.6
28349.8
28345.1
28340.4
28335.7
28331.1
28326.6
28322.1
28317.7
28313.4
28309.1
28304.8
28300.6
28296.5
28292.4
28288.3
28284.3
28280.4
28276.5
28272.7
28268.9
28265.1
28261.4
28257.7
28254
28250.4
28246.9
28243.3
28239.8
28236.3
28232.8
28229.4
28225.9
28222.5
28219.1
28215.7
28212.3
28208.9
28205.6
28202.2
28198.8
28195.4
28192
28188.5
28185.1
28181.6
28178.1
28174.6
28171
28167.4
28163.8
28160.1
28156.4
28152.6
28148.7
28144.8
28140.8
28136.8
28132.7
28128.5
28124.2
28119.9
28115.5
28110.9
28106.3
28101.6
28096.7
28091.8
28086.7
28081.6
28076.3
28070.9
28065.3
28059.6
28053.8
28047.9
28041.8
28035.5
28029.1
28022.6
28015.9
28009
28002
27994.8
27987.4
27979.8
27972.1
27964.1
27956
27947.7
27939.2
27930.5
27921.6
27912.5
27903.2
27893.6
27883.9
27873.9
27863.8
27853.4
27842.8
27831.9
27820.8
27809.5
27798
27786.2
27774.2
27762
27749.5
27736.8
27723.8
27710.6
27697.1
27683.5
27669.5
27655.3
27640.9
27626.2
27611.3
27596.1
27580.7
27565
27549.1
27532.9
27516.5
27499.9
27483
27465.8
27448.4
27430.8
27413
27394.9
27376.5
27358
27339.2
27320.2
27300.9
27281.4
27261.8
27241.9
27221.8
27201.4
27180.9
27160.2
27139.3
27118.2
27096.9
27075.4
27053.7
27031.9
27009.9
26987.7
26965.4
26942.9
26920.3
26897.6
26874.7
26851.7
26828.6
26805.4
26782.1
26758.7
26735.2
26711.6
26687.9
26664.2
26640.5
26616.7
26592.9
26569
26545.2
26521.3
26497.4
26473.6
26449.8
26426
26402.2
26378.5
26354.9
26331.4
26307.9
26284.5
26261.3
26238.1
26215.1
26192.2
26169.5
26146.9
26124.5
26102.3
26080.2
26058.4
26036.8
26015.4
25994.2
25973.2
25952.5
25932.1
25911.9
25892
25872.4
25853.1
25834.2
25815.5
25797.1
25779.1
25761.4
25744.1
25727.2
25710.6
25694.4
25678.5
25663.1
25648.1
25633.4
25619.2
25605.4
25592.1
25579.2
25566.7
25554.7
25543.1
25532
25521.3
25511.2
25501.5
25492.2
25483.5
25475.3
25467.5
25460.3
25453.5
25447.3
25441.6
25436.4
25431.7
25427.5
25423.8
25420.7
25418.1
25416
25414.4
25413.3
25412.8
28382.6
28382.4
28382.1
28381.7
28381.1
28380.4
28379.5
28378.5
28377.3
28376
28374.6
28373
28371.3
28369.4
28367.4
28365.2
28363
28360.6
28358
28355.3
28352.5
28349.6
28346.5
28343.4
28340.1
28336.6
28333.1
28329.4
28325.7
28321.8
28317.8
28313.7
28309.5
28305.2
28300.8
28296.3
28291.7
28287
28282.3
28277.4
28272.5
28267.4
28262.3
28257.1
28251.9
28246.6
28241.2
28235.7
28230.2
28224.7
28219.1
28213.4
28207.7
28201.9
28196.1
28190.2
28184.3
28178.4
28172.4
28166.4
28160.4
28154.4
28148.3
28142.2
28136.2
28130
28123.9
28117.8
28111.7
28105.5
28099.4
28093.3
28087.1
28081
28074.9
28068.8
28062.7
28056.6
28050.6
28044.6
28038.5
28032.5
28026.6
28020.6
28014.7
28008.9
28003
27997.2
27991.5
27985.7
27980
27974.4
27968.8
27963.2
27957.7
27952.2
27946.8
27941.4
27936.1
27930.9
27925.6
27920.5
27915.4
27910.3
27905.3
27900.4
27895.5
27890.7
27885.9
27881.2
27876.6
27872
27867.5
27863
27858.6
27854.3
27850
27845.7
27841.5
27837.4
27833.3
27829.3
27825.4
27821.4
27817.6
27813.8
27810
27806.3
27802.6
27798.9
27795.3
27791.7
27788.2
27784.7
27781.2
27777.8
27774.4
27771
27767.6
27764.2
27760.9
27757.5
27754.2
27750.9
27747.5
27744.2
27740.9
27737.6
27734.2
27730.8
27727.5
27724.1
27720.6
27717.2
27713.7
27710.2
27706.6
27703
27699.3
27695.6
27691.9
27688
27684.1
27680.2
27676.1
27672
27667.9
27663.6
27659.2
27654.8
27650.2
27645.6
27640.8
27636
27631
27625.9
27620.7
27615.4
27609.9
27604.3
27598.6
27592.7
27586.7
27580.5
27574.2
27567.7
27561.1
27554.3
27547.3
27540.2
27532.8
27525.3
27517.7
27509.8
27501.7
27493.5
27485
27476.4
27467.5
27458.5
27449.2
27439.7
27430
27420.1
27410
27399.7
27389.1
27378.3
27367.2
27356
27344.4
27332.7
27320.7
27308.5
27296
27283.3
27270.4
27257.2
27243.7
27230
27216.1
27201.9
27187.5
27172.8
27157.9
27142.7
27127.2
27111.5
27095.6
27079.4
27063
27046.3
27029.4
27012.2
26994.8
26977.1
26959.2
26941.1
26922.7
26904.1
26885.2
26866.1
26846.8
26827.3
26807.5
26787.6
26767.4
26747
26726.4
26705.6
26684.6
26663.4
26642
26620.4
26598.6
26576.7
26554.6
26532.3
26509.9
26487.3
26464.5
26441.7
26418.7
26395.5
26372.3
26348.9
26325.5
26301.9
26278.3
26254.6
26230.8
26206.9
26183
26159.1
26135.1
26111.1
26087
26063
26039
26014.9
25991
25967
25943.1
25919.2
25895.4
25871.7
25848
25824.5
25801.1
25777.7
25754.5
25731.5
25708.6
25685.8
25663.2
25640.8
25618.6
25596.6
25574.7
25553.1
25531.8
25510.7
25489.8
25469.2
25448.9
25428.8
25409
25389.6
25370.4
25351.6
25333.1
25314.9
25297.1
25279.6
25262.5
25245.7
25229.4
25213.4
25197.8
25182.7
25167.9
25153.6
25139.7
25126.2
25113.2
25100.6
25088.4
25076.8
25065.5
25054.8
25044.5
25034.7
25025.4
25016.6
25008.3
25000.5
24993.2
24986.4
24980.1
24974.3
24969.1
24964.3
24960.1
24956.4
24953.2
24950.6
24948.5
24946.9
24945.8
24945.3
27927.8
27927.6
27927.3
27926.9
27926.3
27925.5
27924.7
27923.6
27922.5
27921.1
27919.7
27918.1
27916.3
27914.4
27912.4
27910.2
27907.9
27905.5
27902.9
27900.2
27897.4
27894.4
27891.3
27888.1
27884.8
27881.3
27877.7
27874
27870.2
27866.3
27862.2
27858.1
27853.9
27849.5
27845
27840.5
27835.8
27831.1
27826.3
27821.4
27816.4
27811.3
27806.1
27800.9
27795.6
27790.2
27784.7
27779.2
27773.7
27768
27762.3
27756.6
27750.8
27745
27739.1
27733.2
27727.2
27721.2
27715.2
27709.2
27703.1
27697
27690.9
27684.7
27678.6
27672.4
27666.2
27660
27653.8
27647.6
27641.5
27635.3
27629.1
27622.9
27616.7
27610.6
27604.4
27598.3
27592.2
27586.1
27580.1
27574
27568
27562
27556.1
27550.2
27544.3
27538.4
27532.6
27526.9
27521.1
27515.4
27509.8
27504.2
27498.7
27493.2
27487.7
27482.3
27477
27471.7
27466.4
27461.3
27456.1
27451.1
27446.1
27441.1
27436.2
27431.4
27426.6
27421.9
27417.3
27412.7
27408.2
27403.7
27399.3
27395
27390.7
27386.5
27382.3
27378.2
27374.1
27370.1
27366.2
27362.3
27358.5
27354.7
27350.9
27347.2
27343.6
27340
27336.4
27332.9
27329.4
27326
27322.5
27319.1
27315.8
27312.4
27309.1
27305.8
27302.5
27299.3
27296
27292.7
27289.5
27286.2
27283
27279.7
27276.5
27273.2
27269.9
27266.6
27263.2
27259.8
27256.4
27253
27249.5
27246
27242.4
27238.8
27235.1
27231.4
27227.6
27223.7
27219.8
27215.8
27211.7
27207.5
27203.2
27198.9
27194.4
27189.9
27185.2
27180.4
27175.5
27170.5
27165.4
27160.2
27154.8
27149.3
27143.7
27137.9
27131.9
27125.9
27119.6
27113.2
27106.7
27100
27093.1
27086
27078.8
27071.3
27063.7
27055.9
27048
27039.8
27031.4
27022.8
27014
27005
26995.8
26986.4
26976.8
26966.9
26956.8
26946.5
26936
26925.2
26914.2
26903
26891.5
26879.8
26867.8
26855.7
26843.2
26830.5
26817.6
26804.4
26791
26777.3
26763.3
26749.2
26734.7
26720
26705.1
26689.9
26674.4
26658.7
26642.8
26626.5
26610.1
26593.4
26576.4
26559.2
26541.7
26524
26506.1
26487.9
26469.4
26450.7
26431.8
26412.7
26393.3
26373.7
26353.9
26333.8
26313.5
26293
26272.3
26251.4
26230.3
26209
26187.5
26165.8
26143.9
26121.9
26099.6
26077.2
26054.7
26031.9
26009.1
25986.1
25962.9
25939.6
25916.2
25892.7
25869.1
25845.4
25821.6
25797.7
25773.7
25749.7
25725.6
25701.4
25677.3
25653.1
25628.9
25604.6
25580.4
25556.2
25532
25507.9
25483.7
25459.7
25435.7
25411.7
25387.9
25364.1
25340.5
25317
25293.6
25270.3
25247.2
25224.2
25201.4
25178.8
25156.3
25134.1
25112.1
25090.3
25068.7
25047.4
25026.3
25005.5
24985
24964.8
24944.8
24925.1
24905.8
24886.8
24868.1
24849.7
24831.7
24814.1
24796.8
24779.9
24763.4
24747.2
24731.5
24716.2
24701.3
24686.8
24672.7
24659.1
24645.9
24633.2
24621
24609.2
24597.8
24587
24576.6
24566.7
24557.3
24548.4
24540
24532.1
24524.8
24517.9
24511.5
24505.7
24500.4
24495.6
24491.3
24487.6
24484.4
24481.7
24479.6
24478
24476.9
24476.3
27473.4
27473.2
27472.9
27472.5
27471.9
27471.1
27470.2
27469.2
27468
27466.6
27465.2
27463.5
27461.8
27459.9
27457.8
27455.6
27453.3
27450.8
27448.2
27445.5
27442.6
27439.6
27436.4
27433.2
27429.8
27426.3
27422.7
27418.9
27415
27411.1
27407
27402.8
27398.5
27394.1
27389.5
27384.9
27380.2
27375.4
27370.5
27365.5
27360.5
27355.3
27350.1
27344.8
27339.4
27334
27328.4
27322.9
27317.2
27311.5
27305.8
27299.9
27294.1
27288.2
27282.2
27276.2
27270.2
27264.2
27258.1
27251.9
27245.8
27239.6
27233.4
27227.2
27221
27214.8
27208.5
27202.3
27196
27189.7
27183.5
27177.2
27171
27164.8
27158.5
27152.3
27146.1
27139.9
27133.8
27127.6
27121.5
27115.4
27109.3
27103.3
27097.3
27091.3
27085.4
27079.5
27073.7
27067.8
27062.1
27056.3
27050.7
27045
27039.4
27033.9
27028.4
27023
27017.6
27012.3
27007
27001.8
26996.7
26991.6
26986.6
26981.6
26976.7
26971.9
26967.1
26962.4
26957.7
26953.1
26948.6
26944.2
26939.8
26935.4
26931.2
26927
26922.8
26918.7
26914.7
26910.7
26906.8
26903
26899.2
26895.4
26891.7
26888.1
26884.5
26880.9
26877.4
26873.9
26870.5
26867.1
26863.7
26860.4
26857.1
26853.8
26850.6
26847.3
26844.1
26840.9
26837.7
26834.6
26831.4
26828.2
26825.1
26821.9
26818.7
26815.5
26812.3
26809.1
26805.8
26802.5
26799.2
26795.9
26792.5
26789.1
26785.6
26782.1
26778.5
26774.9
26771.2
26767.4
26763.6
26759.7
26755.7
26751.6
26747.4
26743.2
26738.8
26734.4
26729.8
26725.2
26720.4
26715.5
26710.5
26705.3
26700.1
26694.7
26689.1
26683.4
26677.6
26671.6
26665.5
26659.2
26652.7
26646.1
26639.3
26632.3
26625.2
26617.8
26610.3
26602.6
26594.7
26586.6
26578.3
26569.8
26561.1
26552.2
26543
26533.7
26524.1
26514.3
26504.3
26494
26483.5
26472.8
26461.8
26450.6
26439.2
26427.5
26415.6
26403.4
26391
26378.4
26365.4
26352.3
26338.9
26325.2
26311.2
26297.1
26282.6
26267.9
26253
26237.7
26222.3
26206.5
26190.6
26174.3
26157.8
26141.1
26124.1
26106.8
26089.3
26071.5
26053.5
26035.3
26016.7
25998
25979
25959.8
25940.3
25920.6
25900.7
25880.6
25860.2
25839.6
25818.8
25797.8
25776.5
25755.1
25733.5
25711.7
25689.6
25667.4
25645.1
25622.5
25599.8
25576.9
25553.9
25530.7
25507.4
25484
25460.4
25436.7
25412.9
25389
25365
25340.9
25316.7
25292.5
25268.2
25243.9
25219.5
25195.1
25170.7
25146.2
25121.8
25097.4
25072.9
25048.6
25024.2
24999.9
24975.7
24951.5
24927.4
24903.5
24879.6
24855.8
24832.2
24808.7
24785.3
24762.1
24739.1
24716.2
24693.6
24671.1
24648.8
24626.8
24605
24583.5
24562.2
24541.1
24520.4
24499.9
24479.7
24459.8
24440.3
24421.1
24402.2
24383.6
24365.4
24347.5
24330.1
24313
24296.3
24279.9
24264
24248.5
24233.5
24218.8
24204.6
24190.8
24177.5
24164.7
24152.3
24140.3
24128.9
24117.9
24107.4
24097.4
24087.9
24078.9
24070.4
24062.4
24054.9
24048
24041.6
24035.7
24030.3
24025.4
24021.1
24017.3
24014.1
24011.4
24009.2
24007.6
24006.5
24006
27019.4
27019.2
27018.9
27018.4
27017.8
27017.1
27016.2
27015.1
27013.9
27012.5
27011
27009.4
27007.6
27005.7
27003.6
27001.3
26999
26996.5
26993.8
26991
26988.1
26985.1
26981.9
26978.6
26975.2
26971.6
26967.9
26964.1
26960.2
26956.2
26952
26947.7
26943.4
26938.9
26934.3
26929.6
26924.8
26920
26915
26910
26904.8
26899.6
26894.3
26888.9
26883.4
26877.9
26872.3
26866.7
26860.9
26855.2
26849.3
26843.4
26837.5
26831.5
26825.5
26819.4
26813.3
26807.2
26801
26794.8
26788.5
26782.3
26776
26769.7
26763.4
26757.1
26750.8
26744.5
26738.2
26731.8
26725.5
26719.2
26712.9
26706.5
26700.2
26694
26687.7
26681.5
26675.2
26669
26662.8
26656.7
26650.6
26644.5
26638.4
26632.4
26626.4
26620.4
26614.5
26608.7
26602.9
26597.1
26591.3
26585.7
26580
26574.5
26568.9
26563.5
26558.1
26552.7
26547.4
26542.2
26537
26531.9
26526.9
26521.9
26517
26512.1
26507.3
26502.6
26498
26493.4
26488.9
26484.4
26480
26475.7
26471.5
26467.3
26463.1
26459.1
26455.1
26451.1
26447.3
26443.4
26439.7
26436
26432.3
26428.7
26425.2
26421.7
26418.2
26414.8
26411.4
26408.1
26404.8
26401.5
26398.3
26395.1
26391.9
26388.8
26385.6
26382.5
26379.4
26376.3
26373.2
26370.2
26367.1
26364
26360.9
26357.8
26354.7
26351.6
26348.4
26345.3
26342.1
26338.8
26335.5
26332.2
26328.9
26325.5
26322
26318.5
26314.9
26311.3
26307.5
26303.7
26299.9
26295.9
26291.9
26287.7
26283.5
26279.2
26274.7
26270.2
26265.5
26260.8
26255.9
26250.8
26245.7
26240.4
26235
26229.4
26223.7
26217.8
26211.8
26205.6
26199.2
26192.7
26186
26179.1
26172.1
26164.8
26157.4
26149.8
26142
26133.9
26125.7
26117.3
26108.7
26099.8
26090.8
26081.5
26072
26062.2
26052.3
26042.1
26031.7
26021
26010.1
25998.9
25987.5
25975.9
25964
25951.9
25939.5
25926.9
25914
25900.8
25887.4
25873.7
25859.8
25845.6
25831.2
25816.5
25801.5
25786.3
25770.8
25755
25739