/*--------------------------------*- C++ -*----------------------------------*\
| =========                 |                                                 |
| \\      /  F ield         | OpenFOAM: The Open Source CFD Toolbox           |
|  \\    /   O peration     | Version:  v2006                                 |
|   \\  /    A nd           | Website:  www.openfoam.com                      |
|    \\/     M anipulation  |                                                 |
\*---------------------------------------------------------------------------*/
FoamFile
{
    version     2.0;
    format      ascii;
    class       volScalarField;
    location    "15";
    object      p_rgh;
}
// * * * * * * * * * * * * * * * * * * * * * * * * * * * * * * * * * * * * * //

dimensions      [1 -1 -2 0 0 0 0];


internalField   nonuniform List<scalar> 
52500
(
2375.75
2375.61
2375.33
2374.91
2374.34
2373.64
2372.8
2371.82
2370.7
2369.44
2368.04
2366.51
2364.85
2363.05
2361.12
2359.05
2356.86
2354.54
2352.09
2349.52
2346.82
2344
2341.06
2338.01
2334.83
2331.55
2328.15
2324.64
2321.02
2317.29
2313.46
2309.53
2305.5
2301.37
2297.15
2292.83
2288.43
2283.93
2279.36
2274.69
2269.95
2265.14
2260.25
2255.29
2250.25
2245.15
2239.99
2234.76
2229.48
2224.14
2218.74
2213.29
2207.8
2202.25
2196.66
2191.03
2185.36
2179.65
2173.91
2168.14
2162.34
2156.52
2150.67
2144.8
2138.92
2133.02
2127.1
2121.18
2115.25
2109.31
2103.38
2097.44
2091.5
2085.57
2079.64
2073.72
2067.82
2061.92
2056.04
2050.18
2044.33
2038.51
2032.71
2026.93
2021.18
2015.46
2009.77
2004.1
1998.48
1992.88
1987.32
1981.8
1976.32
1970.87
1965.47
1960.11
1954.79
1949.51
1944.28
1939.1
1933.97
1928.88
1923.84
1918.85
1913.91
1909.02
1904.18
1899.39
1894.65
1889.96
1885.32
1880.74
1876.2
1871.72
1867.29
1862.9
1858.57
1854.28
1850.04
1845.85
1841.7
1837.6
1833.54
1829.52
1825.55
1821.61
1817.72
1813.86
1810.03
1806.24
1802.48
1798.75
1795.04
1791.36
1787.7
1784.07
1780.44
1776.84
1773.24
1769.66
1766.08
1762.51
1758.94
1755.36
1751.79
1748.21
1744.61
1741.01
1737.39
1733.75
1730.08
1726.4
1722.68
1718.93
1715.15
1711.33
1707.47
1703.56
1699.6
1695.59
1691.52
1687.39
1683.2
1678.93
1674.58
1670.16
1665.66
1661.07
1656.39
1651.62
1646.75
1641.79
1636.72
1631.54
1626.25
1620.84
1615.32
1609.67
1603.89
1597.98
1591.94
1585.76
1579.44
1572.97
1566.36
1559.59
1552.67
1545.58
1538.33
1530.92
1523.34
1515.58
1507.65
1499.54
1491.24
1482.76
1474.09
1465.23
1456.18
1446.91
1437.44
1427.77
1417.88
1407.79
1397.48
1386.96
1376.22
1365.27
1354.09
1342.69
1331.07
1319.22
1307.14
1294.83
1282.29
1269.52
1256.51
1243.27
1229.79
1216.08
1202.13
1187.94
1173.51
1158.84
1143.94
1128.79
1113.41
1097.79
1081.93
1065.84
1049.5
1032.94
1016.13
999.1
981.833
964.335
946.61
928.657
910.48
892.08
873.461
854.624
835.572
816.308
796.836
777.159
757.279
737.201
716.928
696.465
675.816
654.985
633.977
612.797
591.449
569.94
548.275
526.459
504.498
482.399
460.169
437.812
415.337
392.749
370.056
347.264
324.38
301.412
278.367
255.252
232.073
208.84
185.558
162.237
138.883
115.506
92.1136
68.7133
45.3117
21.9173
-1.45968
-24.8062
-48.1058
-71.3402
-94.4913
-117.544
-140.489
-163.319
-186.03
-208.617
-231.075
-253.398
-275.577
-297.601
-319.46
-341.145
-362.642
-383.943
-405.037
-425.913
-446.562
-466.975
-487.142
-507.054
-526.702
-546.076
-565.168
-583.967
-602.466
-620.654
-638.525
-656.067
-673.275
-690.138
-706.649
-722.799
-738.582
-753.988
-769.011
-783.643
-797.877
-811.705
-825.121
-838.119
-850.691
-862.831
-874.534
-885.793
-896.603
-906.958
-916.854
-926.284
-935.245
-943.732
-951.741
-959.267
-966.307
-972.858
-978.916
-984.479
-989.544
-994.109
-998.172
-1001.73
-1004.78
-1007.33
-1009.37
-1010.9
-1011.91
-1012.43
2376.11
2375.97
2375.69
2375.27
2374.7
2374
2373.16
2372.17
2371.05
2369.79
2368.4
2366.86
2365.2
2363.4
2361.46
2359.4
2357.2
2354.88
2352.42
2349.85
2347.15
2344.33
2341.38
2338.32
2335.14
2331.85
2328.45
2324.93
2321.31
2317.58
2313.74
2309.81
2305.77
2301.64
2297.41
2293.09
2288.67
2284.17
2279.59
2274.92
2270.17
2265.34
2260.44
2255.46
2250.42
2245.32
2240.15
2234.93
2229.64
2224.29
2218.89
2213.44
2207.93
2202.38
2196.78
2191.13
2185.45
2179.73
2173.98
2168.2
2162.39
2156.55
2150.7
2144.82
2138.93
2133.02
2127.1
2121.17
2115.23
2109.29
2103.35
2097.4
2091.46
2085.52
2079.59
2073.66
2067.75
2061.85
2055.96
2050.09
2044.24
2038.41
2032.61
2026.82
2021.07
2015.34
2009.64
2003.97
1998.34
1992.74
1987.18
1981.65
1976.16
1970.71
1965.31
1959.94
1954.62
1949.34
1944.11
1938.93
1933.79
1928.7
1923.66
1918.66
1913.72
1908.83
1903.99
1899.2
1894.46
1889.77
1885.14
1880.55
1876.02
1871.54
1867.1
1862.72
1858.39
1854.1
1849.86
1845.67
1841.53
1837.43
1833.38
1829.37
1825.4
1821.47
1817.57
1813.72
1809.9
1806.11
1802.36
1798.63
1794.93
1791.26
1787.61
1783.98
1780.37
1776.77
1773.18
1769.61
1766.04
1762.48
1758.92
1755.36
1751.79
1748.22
1744.64
1741.04
1737.43
1733.81
1730.16
1726.48
1722.77
1719.04
1715.27
1711.46
1707.6
1703.7
1699.75
1695.75
1691.69
1687.57
1683.38
1679.12
1674.79
1670.38
1665.88
1661.3
1656.64
1651.87
1647.01
1642.06
1636.99
1631.83
1626.54
1621.15
1615.63
1609.99
1604.23
1598.33
1592.3
1586.13
1579.82
1573.36
1566.75
1560
1553.08
1546.01
1538.77
1531.36
1523.79
1516.04
1508.11
1500.01
1491.71
1483.23
1474.56
1465.69
1456.6
1447.35
1437.9
1428.24
1418.37
1408.29
1397.99
1387.48
1376.76
1365.81
1354.64
1343.25
1331.63
1319.79
1307.71
1295.41
1282.87
1270.11
1257.1
1243.86
1230.39
1216.68
1202.73
1188.54
1174.11
1159.45
1144.54
1129.4
1114.02
1098.4
1082.54
1066.44
1050.11
1033.54
1016.73
999.693
982.423
964.922
947.192
929.234
911.051
892.646
874.019
855.175
836.116
816.844
797.362
777.675
757.785
737.696
717.413
696.938
676.276
655.432
634.411
613.217
591.855
570.33
548.649
526.816
504.838
482.721
460.471
438.094
415.598
392.989
370.273
347.458
324.552
301.561
278.492
255.353
232.152
208.894
185.589
162.243
138.865
115.462
92.0417
68.6133
45.1842
21.763
-1.64105
-25.0153
-48.3424
-71.6025
-94.7763
-117.848
-140.809
-163.652
-186.378
-208.983
-231.463
-253.81
-276.013
-298.063
-319.948
-341.657
-363.179
-384.504
-405.622
-426.522
-447.196
-467.633
-487.825
-507.762
-527.434
-546.833
-565.948
-584.772
-603.294
-621.506
-639.399
-656.965
-674.194
-691.08
-707.612
-723.784
-739.588
-755.015
-770.058
-784.709
-798.962
-812.809
-826.244
-839.259
-851.848
-864.005
-875.724
-886.999
-897.823
-908.193
-918.101
-927.545
-936.518
-945.016
-953.035
-960.571
-967.62
-974.179
-980.245
-985.814
-990.886
-995.456
-999.523
-1003.09
-1006.14
-1008.69
-1010.73
-1012.26
-1013.28
-1013.79
2376.84
2376.69
2376.42
2375.99
2375.43
2374.72
2373.88
2372.89
2371.77
2370.5
2369.1
2367.57
2365.89
2364.09
2362.15
2360.08
2357.88
2355.55
2353.09
2350.51
2347.8
2344.97
2342.03
2338.96
2335.77
2332.47
2329.05
2325.53
2321.9
2318.16
2314.31
2310.36
2306.32
2302.17
2297.93
2293.59
2289.17
2284.66
2280.06
2275.38
2270.61
2265.77
2260.86
2255.87
2250.81
2245.69
2240.5
2235.25
2229.94
2224.57
2219.15
2213.67
2208.14
2202.57
2196.96
2191.3
2185.6
2179.87
2174.11
2168.31
2162.49
2156.64
2150.77
2144.88
2138.97
2133.05
2127.12
2121.17
2115.22
2109.26
2103.31
2097.35
2091.39
2085.44
2079.49
2073.55
2067.63
2061.72
2055.82
2049.94
2044.08
2038.23
2032.42
2026.62
2020.86
2015.12
2009.41
2003.73
1998.09
1992.48
1986.91
1981.37
1975.87
1970.42
1965
1959.63
1954.3
1949.02
1943.78
1938.59
1933.44
1928.35
1923.3
1918.31
1913.36
1908.47
1903.62
1898.83
1894.09
1889.4
1884.77
1880.18
1875.65
1871.17
1866.74
1862.36
1858.03
1853.74
1849.51
1845.33
1841.19
1837.1
1833.05
1829.04
1825.08
1821.16
1817.27
1813.43
1809.62
1805.84
1802.1
1798.38
1794.7
1791.04
1787.4
1783.78
1780.18
1776.6
1773.03
1769.47
1765.92
1762.37
1758.83
1755.29
1751.74
1748.19
1744.63
1741.05
1737.47
1733.86
1730.23
1726.58
1722.89
1719.18
1715.43
1711.65
1707.82
1703.94
1700.01
1696.03
1691.99
1687.89
1683.72
1679.48
1675.17
1670.78
1666.3
1661.74
1657.1
1652.36
1647.52
1642.59
1637.55
1632.4
1627.15
1621.77
1616.28
1610.66
1604.92
1599.05
1593.04
1586.89
1580.6
1574.16
1567.58
1560.84
1553.94
1546.88
1539.67
1532.28
1524.72
1516.99
1509.08
1500.99
1492.71
1484.25
1475.6
1466.75
1457.71
1448.46
1439.01
1429.35
1419.49
1409.42
1399.13
1388.63
1377.92
1366.98
1355.82
1344.43
1332.82
1320.99
1308.92
1296.62
1284.09
1271.33
1258.33
1245.09
1231.62
1217.91
1203.96
1189.77
1175.34
1160.67
1145.77
1130.62
1115.23
1099.61
1083.74
1067.64
1051.29
1034.72
1017.9
1000.85
983.571
966.057
948.314
930.342
912.144
893.723
875.079
856.217
837.139
817.847
798.345
778.635
758.723
738.61
718.301
697.8
677.111
656.239
635.189
613.964
592.571
571.014
549.299
527.432
505.418
483.263
460.974
438.557
416.018
393.365
370.603
347.742
324.787
301.747
278.628
255.44
232.188
208.883
185.531
162.141
138.721
115.279
91.8246
68.3669
44.916
21.4824
-1.92219
-25.2877
-48.6034
-71.859
-95.0443
-118.15
-141.165
-164.081
-186.888
-209.575
-232.133
-254.553
-276.823
-298.935
-320.877
-342.641
-364.217
-385.594
-406.765
-427.718
-448.444
-468.934
-489.179
-509.167
-528.891
-548.34
-567.505
-586.377
-604.947
-623.206
-641.146
-658.757
-676.031
-692.961
-709.536
-725.751
-741.595
-757.063
-772.145
-786.836
-801.126
-815.01
-828.48
-841.53
-854.153
-866.343
-878.093
-889.398
-900.253
-910.651
-920.587
-930.056
-939.054
-947.576
-955.617
-963.174
-970.243
-976.82
-982.902
-988.487
-993.571
-998.153
-1002.23
-1005.8
-1008.87
-1011.42
-1013.47
-1015
-1016.03
-1016.54
2377.94
2377.8
2377.52
2377.09
2376.52
2375.81
2374.96
2373.97
2372.84
2371.57
2370.17
2368.62
2366.94
2365.13
2363.18
2361.1
2358.89
2356.55
2354.08
2351.49
2348.77
2345.93
2342.96
2339.89
2336.69
2333.38
2329.95
2326.41
2322.77
2319.01
2315.15
2311.19
2307.12
2302.96
2298.7
2294.34
2289.9
2285.36
2280.75
2276.04
2271.26
2266.4
2261.46
2256.45
2251.37
2246.22
2241.01
2235.73
2230.4
2225.01
2219.56
2214.06
2208.51
2202.92
2197.28
2191.59
2185.87
2180.12
2174.33
2168.51
2162.66
2156.79
2150.9
2144.99
2139.06
2133.11
2127.15
2121.19
2115.22
2109.24
2103.26
2097.28
2091.3
2085.33
2079.36
2073.41
2067.46
2061.53
2055.61
2049.71
2043.84
2037.98
2032.14
2026.33
2020.55
2014.79
2009.07
2003.38
1997.72
1992.09
1986.51
1980.96
1975.45
1969.98
1964.55
1959.17
1953.83
1948.53
1943.29
1938.09
1932.94
1927.83
1922.78
1917.78
1912.83
1907.93
1903.08
1898.29
1893.54
1888.85
1884.21
1879.63
1875.1
1870.62
1866.19
1861.81
1857.48
1853.21
1848.98
1844.8
1840.67
1836.59
1832.55
1828.56
1824.6
1820.69
1816.82
1812.99
1809.2
1805.43
1801.71
1798.01
1794.34
1790.7
1787.08
1783.48
1779.9
1776.34
1772.79
1769.26
1765.73
1762.21
1758.7
1755.18
1751.66
1748.14
1744.61
1741.06
1737.5
1733.93
1730.33
1726.71
1723.05
1719.37
1715.65
1711.89
1708.09
1704.24
1700.35
1696.39
1692.39
1688.31
1684.18
1679.97
1675.69
1671.33
1666.9
1662.37
1657.76
1653.06
1648.26
1643.36
1638.35
1633.24
1628.01
1622.67
1617.21
1611.63
1605.92
1600.08
1594.1
1587.99
1581.73
1575.33
1568.77
1562.07
1555.2
1548.18
1540.99
1533.63
1526.1
1518.4
1510.52
1502.45
1494.2
1485.77
1477.14
1468.32
1459.29
1450.07
1440.65
1431.01
1421.17
1411.12
1400.85
1390.37
1379.67
1368.75
1357.6
1346.23
1334.63
1322.8
1310.75
1298.46
1285.94
1273.18
1260.18
1246.95
1233.48
1219.78
1205.83
1191.64
1177.21
1162.54
1147.63
1132.48
1117.08
1101.45
1085.57
1069.46
1053.11
1036.52
1019.69
1002.62
985.325
967.793
950.03
932.038
913.818
895.373
876.705
857.816
838.71
819.389
799.857
780.116
760.17
740.023
719.678
699.14
678.412
657.5
636.408
615.141
593.703
572.1
550.338
528.422
506.357
484.151
461.808
439.336
416.742
394.031
371.211
348.29
325.274
302.17
278.987
255.733
232.415
209.041
185.621
162.161
138.672
115.162
91.6405
68.1167
44.6002
21.1
-2.37482
-25.8141
-49.2067
-72.5406
-95.8039
-118.985
-142.072
-165.058
-187.932
-210.686
-233.313
-255.804
-278.147
-300.333
-322.352
-344.192
-365.845
-387.3
-408.546
-429.576
-450.378
-470.944
-491.263
-511.326
-531.124
-550.646
-569.884
-588.827
-607.468
-625.797
-643.805
-661.483
-678.824
-695.818
-712.458
-728.735
-744.641
-760.169
-775.31
-790.058
-804.404
-818.343
-831.866
-844.967
-857.64
-869.879
-881.676
-893.027
-903.925
-914.365
-924.341
-933.85
-942.884
-951.442
-959.516
-967.105
-974.204
-980.808
-986.916
-992.525
-997.631
-1002.23
-1006.33
-1009.91
-1012.99
-1015.56
-1017.61
-1019.15
-1020.18
-1020.69
2379.39
2379.25
2378.97
2378.54
2377.96
2377.25
2376.4
2375.4
2374.27
2372.99
2371.58
2370.03
2368.34
2366.52
2364.56
2362.47
2360.25
2357.9
2355.42
2352.81
2350.08
2347.22
2344.24
2341.15
2337.93
2334.6
2331.16
2327.6
2323.93
2320.15
2316.27
2312.28
2308.19
2304
2299.72
2295.34
2290.87
2286.31
2281.66
2276.93
2272.12
2267.22
2262.26
2257.22
2252.1
2246.93
2241.68
2236.37
2231.01
2225.58
2220.1
2214.57
2208.99
2203.36
2197.69
2191.98
2186.23
2180.44
2174.62
2168.77
2162.89
2156.99
2151.07
2145.12
2139.17
2133.19
2127.21
2121.21
2115.21
2109.2
2103.2
2097.19
2091.18
2085.19
2079.19
2073.21
2067.24
2061.28
2055.34
2049.42
2043.51
2037.63
2031.77
2025.94
2020.14
2014.36
2008.61
2002.9
1997.22
1991.58
1985.97
1980.41
1974.88
1969.39
1963.95
1958.55
1953.2
1947.89
1942.63
1937.42
1932.25
1927.14
1922.08
1917.07
1912.11
1907.21
1902.35
1897.55
1892.81
1888.12
1883.48
1878.89
1874.36
1869.88
1865.46
1861.08
1856.76
1852.49
1848.28
1844.11
1839.99
1835.91
1831.89
1827.91
1823.97
1820.08
1816.22
1812.41
1808.63
1804.89
1801.19
1797.51
1793.87
1790.25
1786.66
1783.09
1779.54
1776.01
1772.49
1768.99
1765.49
1762
1758.52
1755.04
1751.56
1748.07
1744.58
1741.07
1737.55
1734.01
1730.45
1726.87
1723.26
1719.62
1715.94
1712.22
1708.47
1704.66
1700.81
1696.9
1692.94
1688.91
1684.82
1680.66
1676.43
1672.11
1667.72
1663.24
1658.68
1654.02
1649.27
1644.41
1639.45
1634.38
1629.21
1623.91
1618.5
1612.96
1607.29
1601.49
1595.56
1589.49
1583.28
1576.91
1570.4
1563.74
1556.91
1549.93
1542.78
1535.46
1527.97
1520.3
1512.45
1504.42
1496.21
1487.81
1479.21
1470.42
1461.43
1452.23
1442.84
1433.23
1423.42
1413.39
1403.15
1392.69
1382.01
1371.11
1359.98
1348.63
1337.05
1325.23
1313.19
1300.91
1288.4
1275.65
1262.67
1249.44
1235.98
1222.27
1208.32
1194.14
1179.71
1165.03
1150.12
1134.96
1119.56
1103.91
1088.02
1071.9
1055.53
1038.92
1022.07
1004.99
987.668
970.112
952.323
934.303
916.053
897.577
878.876
859.952
840.809
821.449
801.876
782.093
762.102
741.909
721.516
700.928
680.148
659.183
638.035
616.709
595.212
573.548
551.722
529.74
507.609
485.333
462.919
440.375
417.705
394.918
372.019
349.018
325.92
302.733
279.465
256.125
232.72
209.258
185.749
162.201
138.622
115.023
91.4112
67.7976
44.1915
20.6027
-2.9583
-26.481
-49.9554
-73.372
-96.7214
-119.994
-143.18
-166.269
-189.25
-212.115
-234.851
-257.449
-279.9
-302.192
-324.316
-346.262
-368.019
-389.578
-410.928
-432.06
-452.964
-473.631
-494.05
-514.212
-534.108
-553.727
-573.061
-592.1
-610.834
-629.256
-647.355
-665.124
-682.553
-699.635
-716.359
-732.72
-748.708
-764.315
-779.535
-794.358
-808.779
-822.789
-836.383
-849.552
-862.291
-874.593
-886.452
-897.862
-908.818
-919.313
-929.342
-938.901
-947.985
-956.588
-964.707
-972.337
-979.475
-986.117
-992.26
-997.9
-1003.04
-1007.66
-1011.78
-1015.39
-1018.49
-1021.07
-1023.13
-1024.68
-1025.72
-1026.23
2381.23
2381.08
2380.8
2380.37
2379.79
2379.08
2378.22
2377.22
2376.08
2374.79
2373.37
2371.81
2370.11
2368.28
2366.31
2364.21
2361.97
2359.6
2357.11
2354.48
2351.73
2348.86
2345.86
2342.74
2339.5
2336.14
2332.67
2329.08
2325.39
2321.58
2317.67
2313.65
2309.53
2305.31
2300.99
2296.58
2292.08
2287.48
2282.8
2278.03
2273.18
2268.25
2263.25
2258.17
2253.02
2247.8
2242.52
2237.17
2231.77
2226.3
2220.78
2215.21
2209.59
2203.92
2198.21
2192.46
2186.67
2180.84
2174.99
2169.1
2163.18
2157.24
2151.28
2145.3
2139.3
2133.29
2127.27
2121.24
2115.2
2109.16
2103.12
2097.07
2091.04
2085
2078.98
2072.96
2066.96
2060.97
2055
2049.04
2043.11
2037.2
2031.31
2025.45
2019.61
2013.81
2008.04
2002.3
1996.6
1990.93
1985.3
1979.71
1974.16
1968.65
1963.19
1957.77
1952.4
1947.08
1941.8
1936.57
1931.4
1926.27
1921.2
1916.18
1911.21
1906.3
1901.44
1896.63
1891.88
1887.19
1882.55
1877.96
1873.43
1868.96
1864.54
1860.17
1855.86
1851.6
1847.39
1843.23
1839.12
1835.07
1831.06
1827.09
1823.17
1819.3
1815.47
1811.68
1807.93
1804.21
1800.53
1796.89
1793.27
1789.68
1786.13
1782.59
1779.08
1775.58
1772.1
1768.64
1765.18
1761.74
1758.3
1754.86
1751.42
1747.98
1744.53
1741.07
1737.6
1734.11
1730.6
1727.07
1723.51
1719.92
1716.29
1712.63
1708.92
1705.17
1701.37
1697.52
1693.61
1689.64
1685.6
1681.49
1677.31
1673.06
1668.72
1664.3
1659.79
1655.19
1650.49
1645.7
1640.8
1635.79
1630.66
1625.43
1620.07
1614.59
1608.98
1603.24
1597.36
1591.34
1585.18
1578.87
1572.42
1565.8
1559.03
1552.1
1545
1537.73
1530.28
1522.66
1514.86
1506.88
1498.71
1490.35
1481.79
1473.04
1464.09
1454.94
1445.58
1436.01
1426.23
1416.23
1406.02
1395.59
1384.94
1374.06
1362.96
1351.63
1340.07
1328.27
1316.25
1303.98
1291.49
1278.75
1265.77
1252.56
1239.1
1225.39
1211.45
1197.26
1182.83
1168.15
1153.23
1138.06
1122.65
1106.99
1091.09
1074.95
1058.56
1041.93
1025.06
1007.95
990.602
973.016
955.195
937.141
918.855
900.339
881.597
862.63
843.441
824.033
804.41
784.573
764.528
744.277
723.824
703.173
682.329
661.296
640.079
618.682
597.111
575.37
553.465
531.402
509.187
486.826
464.324
441.689
418.927
396.045
373.051
349.95
326.752
303.463
280.091
256.645
233.133
209.563
185.944
162.284
138.593
114.88
91.1548
67.4259
43.7036
19.9976
-3.68221
-27.326
-50.9238
-74.4655
-97.9407
-121.339
-144.651
-167.865
-190.973
-213.963
-236.826
-259.552
-282.13
-304.55
-326.803
-348.877
-370.762
-392.449
-413.927
-435.187
-456.218
-477.01
-497.554
-517.839
-537.857
-557.598
-577.052
-596.209
-615.061
-633.598
-651.811
-669.692
-687.232
-704.421
-721.253
-737.717
-753.807
-769.514
-784.831
-799.75
-814.263
-828.364
-842.045
-855.3
-868.121
-880.503
-892.439
-903.923
-914.95
-925.513
-935.609
-945.23
-954.374
-963.034
-971.207
-978.888
-986.074
-992.761
-998.946
-1004.63
-1009.8
-1014.46
-1018.61
-1022.24
-1025.36
-1027.96
-1030.04
-1031.6
-1032.64
-1033.16
2383.45
2383.3
2383.03
2382.58
2382.01
2381.28
2380.42
2379.41
2378.26
2376.97
2375.53
2373.96
2372.25
2370.4
2368.41
2366.29
2364.04
2361.65
2359.14
2356.49
2353.71
2350.81
2347.79
2344.64
2341.37
2337.99
2334.48
2330.87
2327.14
2323.29
2319.35
2315.29
2311.14
2306.88
2302.52
2298.07
2293.52
2288.89
2284.16
2279.35
2274.46
2269.49
2264.44
2259.32
2254.12
2248.86
2243.53
2238.13
2232.68
2227.17
2221.6
2215.98
2210.31
2204.6
2198.84
2193.04
2187.2
2181.33
2175.42
2169.49
2163.53
2157.54
2151.53
2145.51
2139.46
2133.41
2127.34
2121.27
2115.19
2109.1
2103.02
2096.93
2090.85
2084.78
2078.71
2072.66
2066.62
2060.59
2054.58
2048.59
2042.62
2036.67
2030.75
2024.85
2018.98
2013.15
2007.34
2001.57
1995.84
1990.14
1984.49
1978.87
1973.29
1967.76
1962.27
1956.83
1951.44
1946.09
1940.8
1935.55
1930.36
1925.22
1920.13
1915.1
1910.12
1905.2
1900.33
1895.52
1890.76
1886.07
1881.42
1876.84
1872.31
1867.84
1863.42
1859.06
1854.76
1850.51
1846.31
1842.17
1838.08
1834.04
1830.05
1826.11
1822.21
1818.36
1814.56
1810.8
1807.07
1803.39
1799.74
1796.13
1792.55
1789
1785.48
1781.99
1778.52
1775.07
1771.63
1768.22
1764.81
1761.41
1758.02
1754.64
1751.25
1747.87
1744.47
1741.07
1737.66
1734.23
1730.78
1727.3
1723.8
1720.28
1716.71
1713.11
1709.47
1705.79
1702.05
1698.26
1694.42
1690.51
1686.55
1682.51
1678.4
1674.21
1669.94
1665.59
1661.15
1656.62
1651.99
1647.27
1642.43
1637.49
1632.44
1627.27
1621.98
1616.56
1611.02
1605.35
1599.54
1593.58
1587.49
1581.24
1574.85
1568.3
1561.59
1554.71
1547.67
1540.46
1533.08
1525.51
1517.77
1509.84
1501.72
1493.41
1484.9
1476.2
1467.3
1458.19
1448.87
1439.34
1429.6
1419.65
1409.47
1399.07
1388.45
1377.61
1366.54
1355.23
1343.7
1331.93
1319.92
1307.68
1295.19
1282.47
1269.51
1256.3
1242.85
1229.15
1215.21
1201.02
1186.58
1171.9
1156.97
1141.8
1126.37
1110.7
1094.78
1078.62
1062.21
1045.55
1028.66
1011.52
994.134
976.513
958.654
940.558
922.229
903.667
884.875
865.857
846.613
827.148
807.464
787.565
767.454
747.134
726.61
705.885
684.964
663.851
642.55
621.068
599.407
577.575
555.576
533.416
511.101
488.636
466.029
443.286
420.413
397.418
374.307
351.089
327.769
304.358
280.861
257.288
233.646
209.945
186.194
162.4
138.573
114.723
90.8592
66.9906
43.1272
19.2789
-4.54464
-28.3333
-52.0769
-75.7655
-99.389
-122.937
-146.4
-169.767
-193.028
-216.173
-239.191
-262.072
-284.806
-307.383
-329.791
-352.021
-374.061
-395.903
-417.535
-438.947
-460.13
-481.074
-501.768
-522.202
-542.368
-562.254
-581.852
-601.152
-620.145
-638.821
-657.171
-675.187
-692.859
-710.179
-727.138
-743.729
-759.941
-775.769
-791.203
-806.237
-820.862
-835.071
-848.858
-862.214
-875.135
-887.613
-899.641
-911.215
-922.327
-932.973
-943.147
-952.844
-962.059
-970.788
-979.025
-986.767
-994.01
-1000.75
-1006.99
-1012.71
-1017.92
-1022.62
-1026.81
-1030.47
-1033.62
-1036.24
-1038.34
-1039.91
-1040.96
-1041.49
2386.06
2385.91
2385.63
2385.18
2384.6
2383.87
2383
2381.98
2380.82
2379.51
2378.07
2376.48
2374.75
2372.88
2370.88
2368.74
2366.46
2364.05
2361.51
2358.83
2356.03
2353.1
2350.05
2346.87
2343.56
2340.14
2336.6
2332.95
2329.18
2325.3
2321.31
2317.21
2313.01
2308.71
2304.3
2299.8
2295.21
2290.53
2285.75
2280.89
2275.95
2270.93
2265.83
2260.65
2255.4
2250.08
2244.7
2239.25
2233.74
2228.17
2222.55
2216.88
2211.15
2205.38
2199.57
2193.71
2187.82
2181.89
2175.93
2169.94
2163.93
2157.89
2151.83
2145.75
2139.65
2133.54
2127.43
2121.3
2115.17
2109.03
2102.9
2096.77
2090.64
2084.52
2078.4
2072.3
2066.21
2060.14
2054.09
2048.05
2042.04
2036.05
2030.08
2024.15
2018.24
2012.37
2006.53
2000.72
1994.95
1989.22
1983.53
1977.88
1972.27
1966.71
1961.2
1955.73
1950.31
1944.94
1939.62
1934.35
1929.14
1923.98
1918.88
1913.83
1908.84
1903.9
1899.03
1894.21
1889.45
1884.74
1880.1
1875.52
1870.99
1866.52
1862.11
1857.76
1853.47
1849.23
1845.05
1840.92
1836.85
1832.83
1828.86
1824.94
1821.08
1817.26
1813.48
1809.75
1806.06
1802.42
1798.81
1795.24
1791.7
1788.2
1784.72
1781.28
1777.85
1774.45
1771.07
1767.71
1764.36
1761.02
1757.69
1754.37
1751.05
1747.72
1744.39
1741.06
1737.71
1734.35
1730.97
1727.56
1724.14
1720.68
1717.19
1713.66
1710.1
1706.49
1702.83
1699.12
1695.35
1691.52
1687.63
1683.67
1679.64
1675.54
1671.35
1667.08
1662.72
1658.27
1653.72
1649.08
1644.32
1639.46
1634.49
1629.4
1624.19
1618.86
1613.39
1607.8
1602.06
1596.19
1590.17
1584
1577.68
1571.21
1564.57
1557.76
1550.79
1543.65
1536.33
1528.84
1521.16
1513.29
1505.23
1496.98
1488.54
1479.89
1471.04
1461.99
1452.72
1443.24
1433.55
1423.64
1413.51
1403.15
1392.57
1381.76
1370.72
1359.45
1347.94
1336.2
1324.22
1312
1299.53
1286.83
1273.88
1260.68
1247.24
1233.55
1219.61
1205.42
1190.98
1176.29
1161.35
1146.16
1130.73
1115.04
1099.1
1082.91
1066.48
1049.79
1032.86
1015.69
998.269
980.607
962.703
944.561
926.18
907.565
888.717
869.638
850.331
830.799
811.046
791.073
770.886
750.486
729.879
709.067
688.056
666.85
645.453
623.871
602.107
580.168
558.059
535.786
513.354
490.77
468.04
445.171
422.169
399.042
375.796
352.439
328.979
305.424
281.781
258.06
234.267
210.413
186.506
162.554
138.568
114.557
90.5292
66.4952
42.4648
18.4476
-5.54635
-29.507
-53.4243
-77.288
-101.088
-124.814
-148.455
-172.002
-195.443
-218.769
-241.969
-265.032
-287.947
-310.705
-333.294
-355.705
-377.926
-399.948
-421.759
-443.351
-464.711
-485.831
-506.7
-527.309
-547.646
-567.703
-587.47
-606.937
-626.094
-644.933
-663.443
-681.617
-699.444
-716.916
-734.025
-750.762
-767.119
-783.087
-798.659
-813.826
-828.582
-842.919
-856.829
-870.306
-883.343
-895.933
-908.07
-919.747
-930.96
-941.702
-951.968
-961.753
-971.052
-979.86
-988.172
-995.985
-1003.29
-1010.1
-1016.39
-1022.17
-1027.43
-1032.17
-1036.39
-1040.09
-1043.27
-1045.91
-1048.03
-1049.62
-1050.68
-1051.21
2389.06
2388.91
2388.62
2388.17
2387.58
2386.85
2385.96
2384.94
2383.76
2382.44
2380.98
2379.37
2377.62
2375.74
2373.71
2371.54
2369.24
2366.8
2364.23
2361.52
2358.69
2355.72
2352.63
2349.41
2346.07
2342.61
2339.03
2335.33
2331.51
2327.59
2323.55
2319.4
2315.15
2310.8
2306.34
2301.79
2297.14
2292.4
2287.57
2282.66
2277.65
2272.57
2267.41
2262.17
2256.86
2251.48
2246.04
2240.53
2234.95
2229.32
2223.64
2217.9
2212.11
2206.28
2200.4
2194.48
2188.52
2182.53
2176.51
2170.46
2164.38
2158.28
2152.16
2146.02
2139.86
2133.69
2127.52
2121.33
2115.14
2108.95
2102.76
2096.57
2090.38
2084.21
2078.04
2071.89
2065.74
2059.62
2053.51
2047.43
2041.37
2035.33
2029.32
2023.34
2017.39
2011.47
2005.58
1999.73
1993.92
1988.15
1982.42
1976.74
1971.1
1965.5
1959.95
1954.45
1949
1943.6
1938.26
1932.97
1927.73
1922.55
1917.43
1912.36
1907.36
1902.41
1897.52
1892.69
1887.93
1883.22
1878.57
1873.99
1869.47
1865
1860.6
1856.26
1851.98
1847.75
1843.59
1839.48
1835.43
1831.43
1827.49
1823.6
1819.76
1815.98
1812.24
1808.55
1804.9
1801.29
1797.73
1794.2
1790.72
1787.26
1783.84
1780.45
1777.08
1773.74
1770.42
1767.12
1763.84
1760.57
1757.3
1754.05
1750.8
1747.54
1744.29
1741.03
1737.76
1734.47
1731.17
1727.85
1724.51
1721.13
1717.73
1714.29
1710.81
1707.28
1703.71
1700.09
1696.41
1692.68
1688.88
1685.01
1681.07
1677.06
1672.96
1668.79
1664.52
1660.16
1655.71
1651.15
1646.49
1641.73
1636.85
1631.85
1626.73
1621.49
1616.11
1610.61
1604.96
1599.18
1593.24
1587.16
1580.93
1574.53
1567.98
1561.26
1554.37
1547.31
1540.07
1532.65
1525.04
1517.25
1509.26
1501.08
1492.7
1484.12
1475.33
1466.34
1457.13
1447.71
1438.07
1428.21
1418.13
1407.82
1397.29
1386.52
1375.52
1364.29
1352.81
1341.1
1329.15
1316.95
1304.51
1291.82
1278.89
1265.7
1252.27
1238.58
1224.65
1210.46
1196.02
1181.33
1166.38
1151.18
1135.72
1120.01
1104.05
1087.84
1071.38
1054.66
1037.69
1020.48
1003.01
985.306
967.352
949.156
930.718
912.041
893.128
873.981
854.602
834.995
815.162
795.106
774.831
754.341
733.638
712.728
691.615
670.302
648.795
627.099
605.217
583.157
560.922
538.519
515.955
493.234
470.364
447.35
424.201
400.922
377.522
354.007
330.386
306.666
282.856
258.964
234.998
210.968
186.882
162.749
138.58
114.382
90.1657
65.9411
41.7179
17.5059
-6.68461
-30.8437
-54.961
-79.0263
-103.029
-126.959
-150.806
-174.559
-198.207
-221.74
-245.148
-268.419
-291.543
-314.509
-337.307
-359.926
-382.355
-404.583
-426.6
-448.397
-469.961
-491.284
-512.354
-533.161
-553.696
-573.949
-593.909
-613.567
-632.913
-651.939
-670.633
-688.987
-706.993
-724.64
-741.921
-758.826
-775.348
-791.478
-807.207
-822.529
-837.434
-851.917
-865.969
-879.583
-892.753
-905.472
-917.733
-929.531
-940.859
-951.711
-962.083
-971.969
-981.363
-990.262
-998.66
-1006.55
-1013.94
-1020.81
-1027.17
-1033.01
-1038.32
-1043.12
-1047.38
-1051.12
-1054.33
-1057
-1059.14
-1060.75
-1061.81
-1062.35
2392.45
2392.3
2392.01
2391.56
2390.96
2390.21
2389.32
2388.28
2387.09
2385.75
2384.27
2382.64
2380.87
2378.96
2376.9
2374.71
2372.38
2369.91
2367.3
2364.56
2361.69
2358.68
2355.55
2352.29
2348.9
2345.39
2341.76
2338.01
2334.15
2330.17
2326.08
2321.88
2317.57
2313.16
2308.64
2304.03
2299.32
2294.52
2289.62
2284.64
2279.57
2274.42
2269.2
2263.89
2258.51
2253.06
2247.54
2241.96
2236.32
2230.62
2224.86
2219.05
2213.19
2207.28
2201.33
2195.34
2189.32
2183.25
2177.16
2171.04
2164.89
2158.72
2152.52
2146.32
2140.09
2133.86
2127.61
2121.36
2115.1
2108.85
2102.59
2096.34
2090.09
2083.85
2077.62
2071.41
2065.21
2059.03
2052.86
2046.72
2040.6
2034.51
2028.45
2022.41
2016.41
2010.44
2004.51
1998.61
1992.75
1986.94
1981.17
1975.44
1969.76
1964.12
1958.53
1953
1947.52
1942.09
1936.71
1931.39
1926.13
1920.93
1915.78
1910.7
1905.67
1900.71
1895.81
1890.97
1886.19
1881.48
1876.83
1872.25
1867.73
1863.27
1858.88
1854.55
1850.28
1846.07
1841.92
1837.84
1833.81
1829.84
1825.93
1822.07
1818.27
1814.52
1810.82
1807.17
1803.56
1800.01
1796.49
1793.02
1789.59
1786.19
1782.83
1779.5
1776.2
1772.92
1769.67
1766.44
1763.23
1760.03
1756.85
1753.67
1750.5
1747.33
1744.16
1740.98
1737.8
1734.6
1731.39
1728.16
1724.91
1721.63
1718.32
1714.97
1711.59
1708.17
1704.7
1701.17
1697.6
1693.96
1690.27
1686.5
1682.67
1678.76
1674.77
1670.69
1666.53
1662.28
1657.93
1653.48
1648.93
1644.27
1639.49
1634.6
1629.58
1624.44
1619.17
1613.77
1608.22
1602.54
1596.71
1590.72
1584.58
1578.29
1571.83
1565.2
1558.4
1551.43
1544.27
1536.94
1529.42
1521.71
1513.8
1505.7
1497.4
1488.89
1480.18
1471.25
1462.11
1452.76
1443.18
1433.38
1423.35
1413.1
1402.61
1391.89
1380.94
1369.74
1358.31
1346.63
1334.71
1322.54
1310.13
1297.46
1284.54
1271.38
1257.95
1244.28
1230.34
1216.16
1201.71
1187.01
1172.05
1156.84
1141.37
1125.64
1109.65
1093.41
1076.91
1060.16
1043.15
1025.89
1008.38
990.618
972.608
954.351
935.849
917.104
898.119
878.895
859.435
839.743
819.82
799.671
779.298
758.706
737.897
716.876
695.648
674.216
652.585
630.76
608.746
586.548
564.173
541.625
518.91
496.035
473.007
449.831
426.515
403.066
379.492
355.799
331.996
308.091
284.092
260.007
235.846
211.616
187.328
162.99
138.612
114.204
89.774
65.3333
40.8915
16.4588
-7.95478
-32.3388
-56.6831
-80.9768
-105.21
-129.371
-153.45
-177.436
-201.319
-225.088
-248.731
-272.238
-295.598
-318.8
-341.833
-364.686
-387.35
-409.812
-432.062
-454.089
-475.884
-497.435
-518.733
-539.765
-560.524
-580.997
-601.176
-621.051
-640.61
-659.846
-678.748
-697.307
-715.514
-733.359
-750.834
-767.93
-784.638
-800.95
-816.858
-832.353
-847.429
-862.076
-876.288
-890.058
-903.379
-916.243
-928.645
-940.578
-952.036
-963.013
-973.504
-983.503
-993.005
-1002.01
-1010.5
-1018.49
-1025.96
-1032.91
-1039.34
-1045.24
-1050.62
-1055.47
-1059.78
-1063.57
-1066.81
-1069.51
-1071.68
-1073.31
-1074.38
-1074.93
2396.25
2396.1
2395.8
2395.34
2394.73
2393.97
2393.07
2392.01
2390.8
2389.45
2387.94
2386.29
2384.5
2382.56
2380.47
2378.25
2375.88
2373.37
2370.73
2367.95
2365.03
2361.98
2358.8
2355.49
2352.06
2348.5
2344.81
2341.01
2337.09
2333.05
2328.9
2324.64
2320.26
2315.79
2311.21
2306.53
2301.75
2296.87
2291.91
2286.85
2281.71
2276.49
2271.18
2265.8
2260.35
2254.82
2249.22
2243.56
2237.84
2232.06
2226.22
2220.33
2214.39
2208.4
2202.37
2196.3
2190.19
2184.05
2177.88
2171.67
2165.45
2159.2
2152.93
2146.64
2140.34
2134.03
2127.71
2121.38
2115.05
2108.72
2102.4
2096.07
2089.75
2083.45
2077.15
2070.87
2064.6
2058.35
2052.12
2045.92
2039.74
2033.59
2027.46
2021.37
2015.31
2009.29
2003.3
1997.35
1991.44
1985.57
1979.75
1973.98
1968.25
1962.57
1956.94
1951.37
1945.84
1940.38
1934.97
1929.62
1924.33
1919.1
1913.93
1908.82
1903.77
1898.79
1893.88