/*--------------------------------*- C++ -*----------------------------------*\
| =========                 |                                                 |
| \\      /  F ield         | OpenFOAM: The Open Source CFD Toolbox           |
|  \\    /   O peration     | Version:  v2006                                 |
|   \\  /    A nd           | Website:  www.openfoam.com                      |
|    \\/     M anipulation  |                                                 |
\*---------------------------------------------------------------------------*/
FoamFile
{
    version     2.0;
    format      ascii;
    class       volScalarField;
    location    "2";
    object      r;
}
// * * * * * * * * * * * * * * * * * * * * * * * * * * * * * * * * * * * * * //

dimensions      [1 2 0 0 0 0 0];


internalField   nonuniform List<scalar> 
350
(
1.41079e-214
4.72529e-211
1.5698e-207
5.17148e-204
1.68897e-200
5.46702e-197
1.75336e-193
5.57e-190
1.75211e-186
5.4556e-183
1.68092e-179
5.12283e-176
1.54369e-172
4.59746e-169
1.35266e-165
3.92979e-162
1.12679e-158
3.18698e-155
8.88657e-152
2.44144e-148
6.60447e-145
1.75796e-141
4.6009e-138
1.18303e-134
2.98604e-131
7.39176e-128
1.79276e-124
4.25551e-121
9.8749e-118
2.23724e-114
4.94186e-111
1.06269e-107
2.22091e-104
4.50262e-101
8.83724e-98
1.6753e-94
3.05972e-91
5.36816e-88
9.0178e-85
1.44503e-81
2.19922e-78
3.16292e-75
4.27312e-72
5.38453e-69
6.27386e-66
6.68709e-63
6.43142e-60
5.48158e-57
4.03849e-54
2.47913e-51
1.19414e-48
4.00922e-46
6.52827e-44
-7.84981e-42
-3.11883e-39
7.84627e-37
-9.13087e-35
7.01449e-33
-4.00016e-31
1.79697e-29
-6.59152e-28
2.02217e-26
-5.27693e-25
1.18588e-23
-2.31623e-22
3.95877e-21
-5.95011e-20
7.89127e-19
-9.25312e-18
9.59901e-17
-8.80301e-16
7.11998e-15
-5.05693e-14
3.13187e-13
-1.67267e-12
7.56674e-12
-2.80955e-11
8.02658e-11
-1.46313e-10
-8.22111e-14
1.04485e-09
-3.42522e-09
3.1893e-09
1.29085e-08
-4.71339e-08
1.73229e-08
2.23099e-07
-3.82933e-07
-6.79255e-07
2.33349e-06
1.68608e-06
-1.05745e-05
-5.44615e-06
4.13631e-05
3.1273e-05
-0.000137212
-0.000194984
0.000311951
0.000936735
5.01404e-05
-0.00281667
-0.00411754
0.00178741
0.0146568
0.0217651
0.00287541
-0.0517204
-0.121316
-0.148445
-0.052979
0.239958
0.772761
1.54119
2.49723
3.5647
4.65936
5.70624
6.6503
7.45975
8.12396
8.64832
9.04829
9.34411
9.55693
9.70622
9.80857
9.87727
9.92251
9.95177
9.97038
9.98204
9.98924
9.99362
9.99626
9.99783
9.99875
9.99929
9.9996
9.99979
9.99988
9.99989
9.99993
10.0001
10.0002
9.99968
9.99906
9.99995
10.0028
10.0041
9.99821
9.98534
9.97823
9.99712
10.0517
10.1213
10.1484
10.053
9.76004
9.22724
8.45881
7.50277
6.4353
5.34064
4.29376
3.3497
2.54025
1.87604
1.35168
0.951714
0.655886
0.443071
0.293782
0.191434
0.122728
0.0774895
0.0482311
0.0296189
0.01796
0.0107611
0.00637528
0.00373682
0.00216824
0.00124606
0.000709578
0.000400576
0.00022427
0.000124572
6.86732e-05
3.75851e-05
2.04285e-05
1.103e-05
5.91764e-06
3.15548e-06
1.67274e-06
8.81723e-07
4.62242e-07
2.4106e-07
1.25077e-07
6.45817e-08
3.3188e-08
1.69776e-08
8.6465e-09
4.38482e-09
2.21443e-09
1.11381e-09
5.58085e-10
2.78544e-10
1.38532e-10
6.86457e-11
3.38957e-11
1.66865e-11
8.18072e-12
4.00383e-12
1.94925e-12
9.48553e-13
4.59162e-13
2.21801e-13
1.07104e-13
5.11863e-14
2.47353e-14
1.17038e-14
5.61615e-15
2.68779e-15
1.23032e-15
6.33014e-16
2.54529e-16
1.5219e-16
5.16347e-17
3.40143e-17
1.29324e-17
5.25137e-18
4.71274e-18
-1.32541e-19
1.63774e-18
-1.44644e-19
1.55741e-19
3.01899e-19
-3.14193e-19
3.55927e-19
-2.76438e-19
2.04959e-19
-1.24418e-19
6.6328e-20
-2.51646e-20
2.72725e-21
7.37723e-21
-9.17457e-21
7.05313e-21
-3.60924e-21
5.00012e-22
1.6418e-21
-2.71636e-21
2.9453e-21
-2.63512e-21
2.07255e-21
-1.46501e-21
9.35105e-22
-5.34116e-22
2.657e-22
-1.07695e-22
2.89498e-23
3.24729e-25
-3.51487e-24
-3.63358e-24
1.21181e-23
-1.78893e-23
1.99914e-23
-1.90483e-23
1.62284e-23
-1.26531e-23
9.13968e-24
-6.15425e-24
3.87312e-24
-2.2798e-24
1.25688e-24
-6.54448e-25
3.31902e-25
-1.77559e-25
1.13121e-25
-8.97047e-26
8.04995e-26
-7.32161e-26
6.39044e-26
-5.26151e-26
4.07602e-26
-2.9758e-26
2.05155e-26
-1.33711e-26
8.2376e-27
-4.78991e-27
2.62111e-27
-1.34452e-27
6.44242e-28
-2.88924e-28
1.24034e-28
-5.49968e-29
2.89993e-29
-1.95321e-29
1.50399e-29
-1.15102e-29
8.15217e-30
-5.18627e-30
2.90424e-30
-1.39583e-30
5.62416e-31
-2.12251e-31
1.46041e-31
-2.05751e-31
2.89755e-31
-3.46934e-31
3.61901e-31
-3.39548e-31
2.92999e-31
-2.36009e-31
1.79255e-31
-1.29302e-31
8.90609e-32
-5.88463e-32
3.74731e-32
-2.31282e-32
1.39437e-32
-8.30418e-33
4.96011e-33
-3.02448e-33
1.91186e-33
-1.26084e-33
8.62135e-34
-6.01713e-34
4.20746e-34
-2.89861e-34
1.94074e-34
-1.248e-34
7.60991e-35
-4.3188e-35
2.20061e-35
-9.16142e-36
1.95009e-36
1.66501e-36
-3.13079e-36
3.41472e-36
-3.12369e-36
2.61185e-36
-2.06787e-36
1.57937e-36
-1.17696e-36
8.62215e-37
-6.24124e-37
4.47963e-37
-3.19547e-37
2.31569e-37
)
;

boundaryField
{
    right
    {
        type            zeroGradient;
    }
    left
    {
        type            inletOutlet;
        inletValue      uniform 0;
        value           uniform 0;
    }
    top
    {
        type            zeroGradient;
    }
    bottom
    {
        type            zeroGradient;
    }
    empty
    {
        type            empty;
    }
}


// ************************************************************************* //
