/*--------------------------------*- C++ -*----------------------------------*\
| =========                 |                                                 |
| \\      /  F ield         | OpenFOAM: The Open Source CFD Toolbox           |
|  \\    /   O peration     | Version:  v2006                                 |
|   \\  /    A nd           | Website:  www.openfoam.com                      |
|    \\/     M anipulation  |                                                 |
\*---------------------------------------------------------------------------*/
FoamFile
{
    version     2.0;
    format      ascii;
    class       volScalarField;
    location    "0";
    object      shifted_f;
}
// * * * * * * * * * * * * * * * * * * * * * * * * * * * * * * * * * * * * * //

dimensions      [0 0 0 0 0 0 0];


internalField   nonuniform List<scalar> 
2500
(
0.000205416
0.00020539
0.000205401
0.00020539
0.000205342
0.000205345
0.000205331
0.000205319
0.000205319
0.000205349
0.000205319
0.000205297
0.000205297
0.000205267
0.00020523
0.000205263
0.000205293
0.000205193
0.000205223
0.000205226
0.000205241
0.000205245
0.000205256
0.000205256
0.000205189
0.000202999
0.000202972
0.000202965
0.000203002
0.000202898
0.000202917
0.000202943
0.000202972
0.00020298
0.00020295
0.000202924
0.000202902
0.000202935
0.000202876
0.000202872
0.000202857
0.000202876
0.000202842
0.000202868
0.000202809
0.000202853
0.000202846
0.000202775
0.000202741
0.000202753
0.000202749
0.000202738
0.000202697
0.000202693
0.000202697
0.00020266
0.000202693
0.000202652
0.000202663
0.000202648
0.00020266
0.00020266
0.000202641
0.00020266
0.000202574
0.0002026
0.000202578
0.000202525
0.000202563
0.00020257
0.00020254
0.000202514
0.000202563
0.000202518
0.000202466
0.00020247
0.000202533
0.000202443
0.000202473
0.00020247
0.000202443
0.00020244
0.00020247
0.000202473
0.000202391
0.000202402
0.000202399
0.000202421
0.000202384
0.000202339
0.000202369
0.000202313
0.000202354
0.00020235
0.000202373
0.000202339
0.000202294
0.00020222
0.000202313
0.000202313
0.000202291
0.000202235
0.000202239
0.000202246
0.00020225
0.000202253
0.000202201
0.000202198
0.000202209
0.000202212
0.000202183
0.000202168
0.000202116
0.000202168
0.000202168
0.000202134
0.000202112
0.000202082
0.000202134
0.00020209
0.000202075
0.000202041
0.00020209
0.000202056
0.000202052
0.000202019
0.000200078
0.000200022
0.000200048
0.0002
0.0002
0.000199992
0.000199966
0.00019997
0.000199962
0.000200007
0.00019994
0.000199962
0.000199914
0.000199921
0.000199929
0.000199929
0.000199929
0.000199884
0.000199933
0.000199873
0.000199888
0.00019988
0.000199873
0.000199828
0.000199877
0.000199851
0.000199806
0.000199769
0.000199787
0.000199776
0.000199813
0.000199769
0.000199769
0.000199739
0.000199702
0.00019972
0.000199698
0.000199731
0.000199709
0.000199713
0.000199687
0.000199635
0.000199653
0.000199683
0.00019969
0.00019969
0.000199631
0.000199646
0.000199635
0.000199661
0.000199609
0.000199597
0.00019962
0.000199594
0.000199549
0.000199575
0.000199549
0.000199553
0.00019956
0.00019956
0.000199571
0.000199568
0.0001995
0.000199489
0.000199489
0.000199452
0.000199467
0.000199419
0.000199459
0.000199508
0.000199426
0.00019943
0.000199422
0.00019943
0.000199411
0.000199389
0.000199392
0.000199359
0.000199333
0.000199366
0.000199299
0.000199314
0.000199292
0.000199303
0.000199303
0.000199292
0.000199307
0.000199273
0.000199266
0.00019927
0.000199288
0.000199202
0.000199236
0.000199217
0.00019924
0.000199247
0.000199277
0.000199188
0.000199229
0.000199221
0.000199202
0.000197444
0.000197429
0.000197429
0.000197399
0.000197377
0.000197377
0.000197332
0.000197329
0.000197358
0.000197336
0.000197299
0.00019731
0.000197265
0.000197288
0.00019725
0.00019725
0.000197228
0.000197228
0.000197269
0.000197232
0.000197254
0.000197206
0.000197235
0.000197191
0.000197254
0.000197209
0.000197221
0.000197228
0.000197154
0.000197161
0.000197187
0.000197154
0.000197161
0.000197135
0.000197075
0.000197154
0.000197109
0.00019709
0.00019712
0.000197098
0.000197124
0.000197079
0.000197008
0.000197068
0.000197053
0.000197038
0.000197008
0.000197012
0.00019699
0.000196956
0.000196952
0.000196964
0.000196975
0.000196915
0.000196949
0.00019696
0.000196915
0.000196952
0.000196941
0.00019693
0.000196889
0.000196908
0.0001969
0.000196874
0.000196896
0.000196915
0.000196841
0.000196826
0.000196837
0.000196826
0.000196844
0.000196844
0.000196852
0.000196841
0.00019677
0.000196811
0.000196859
0.000196822
0.000196878
0.000196811
0.000196762
0.00019677
0.00019674
0.000196807
0.000196762
0.000196729
0.000196751
0.000196718
0.000196718
0.000196781
0.000196707
0.000196766
0.000196785
0.00019674
0.000196733
0.000196643
0.000196721
0.000196647
0.000196643
0.000196662
0.000196625
0.000195242
0.000195224
0.000195138
0.000195127
0.000195112
0.000195075
0.000195123
0.000195138
0.000195172
0.000195052
0.000195067
0.000195097
0.000195131
0.000195105
0.00019509
0.000195075
0.000195052
0.000195056
0.000195
0.000195023
0.000194948
0.000195015
0.000195004
0.000194993
0.00019503
0.000194974
0.000195008
0.000194989
0.000194974
0.000194922
0.000194937
0.000194944
0.000194978
0.000194982
0.000194967
0.000194971
0.000194971
0.000195008
0.000194889
0.000194874
0.000194866
0.000194836
0.000194903
0.000194814
0.00019481
0.000194833
0.000194851
0.000194836
0.000194814
0.000194807
0.00019481
0.000194855
0.000194844
0.000194844
0.00019474
0.000194725
0.000194725
0.000194758
0.000194713
0.000194747
0.000194781
0.000194706
0.000194706
0.00019471
0.000194721
0.000194687
0.000194702
0.000194639
0.000194639
0.000194672
0.000194635
0.000194635
0.000194628
0.000194628
0.00019468
0.000194617
0.000194672
0.000194706
0.000194624
0.000194591
0.000194602
0.000194598
0.000194576
0.000194576
0.000194553
0.000194535
0.000194535
0.000194523
0.00019455
0.000194546
0.00019452
0.000194538
0.000194576
0.000194531
0.000194531
0.00019452
0.000194553
0.000194535
0.000194512
0.000194512
0.000194468
0.000193339
0.00019335
0.000193324
0.000193346
0.00019338
0.000193387
0.00019338
0.000193417
0.00019335
0.000193294
0.000193305
0.000193287
0.000193309
0.000193276
0.000193242
0.000193249
0.000193257
0.00019329
0.000193294
0.000193235
0.000193186
0.000193197
0.000193227
0.000193227
0.000193208
0.000193197
0.000193223
0.000193186
0.000193205
0.000193194
0.00019316
0.000193182
0.000193216
0.000193149
0.000193182
0.000193112
0.000193167
0.000193171
0.000193153
0.000193134
0.000193089
0.00019316
0.000193074
0.000193115
0.000193089
0.000193156
0.000193045
0.000193041
0.000193052
0.000193089
0.000193033
0.000193041
0.000193041
0.000193037
0.000193026
0.000193041
0.000192974
0.000193011
0.000192996
0.000192966
0.000193018
0.000192981
0.000193
0.000192974
0.000192933
0.000192955
0.000192992
0.000192944
0.000192944
0.000192959
0.00019291
0.000192922
0.000192937
0.000192925
0.000192877
0.000192877
0.000192922
0.000192966
0.000192933
0.000192899
0.000192858
0.000192873
0.000192888
0.000192881
0.000192851
0.000192858
0.000192795
0.000192828
0.000192828
0.000192862
0.000192817
0.000192787
0.000192821
0.000192828
0.000192806
0.000192832
0.000192787
0.000192799
0.000192825
0.000192814
0.000192787
0.000192266
0.000192147
0.000192143
0.000192117
0.000192143
0.000192121
0.000192083
0.000192076
0.000192072
0.000192124
0.000192098
0.000192057
0.000192117
0.000192147
0.00019208
0.000192087
0.000192065
0.000192098
0.000192016
0.000192035
0.000192046
0.000192087
0.000191979
0.000192005
0.000192013
0.000192005
0.000192013
0.000191968
0.000191942
0.000191998
0.000192013
0.000191957
0.000191953
0.000191938
0.000191975
0.000191987
0.000191908
0.000191916
0.000191975
0.000191916
0.000191934
0.00019192
0.00019196
0.000191931
0.00019196
0.000191879
0.00019186
0.00019186
0.000191897
0.000191916
0.000191856
0.000191882
0.000191886
0.000191819
0.000191886
0.000191841
0.000191908
0.000191819
0.000191823
0.000191856
0.000191856
0.000191864
0.000191826
0.000191804
0.000191815
0.000191867
0.000191811
0.000191826
0.000191811
0.000191815
0.000191845
0.00019177
0.000191797
0.000191737
0.000191737
0.000191759
0.000191811
0.000191819
0.000191763
0.00019173
0.000191767
0.000191778
0.000191752
0.000191756
0.000191741
0.000191681
0.000191737
0.000191793
0.000191811
0.000191726
0.000191737
0.000191715
0.000191715
0.000191715
0.000191715
0.000191733
0.000191718
0.000191741
0.000191677
0.000191681
0.000191707
0.000191443
0.000191364
0.000191398
0.000191417
0.000191428
0.000191383
0.000191402
0.000191402
0.000191342
0.000191379
0.000191383
0.000191372
0.000191364
0.000191316
0.000191342
0.00019132
0.000191383
0.000191357
0.00019135
0.000191327
0.000191372
0.000191309
0.00019135
0.000191301
0.000191215
0.000191264
0.000191316
0.000191335
0.00019129
0.000191297
0.000191294
0.000191312
0.000191305
0.000191316
0.00019129
0.000191297
0.000191297
0.000191268
0.000191309
0.000191245
0.000191238
0.000191215
0.000191249
0.00019123
0.000191282
0.000191223
0.000191245
0.00019123
0.000191242
0.000191253
0.000191253
0.00019123
0.000191245
0.000191197
0.000191208
0.000191156
0.000191197
0.000191141
0.00019123
0.000191174
0.000191212
0.000191148
0.000191126
0.00019113
0.000191163
0.000191145
0.000191119
0.000191152
0.000191189
0.000191122
0.000191115
0.000191115
0.00019113
0.000191119
0.000191115
0.000191115
0.000191141
0.000191152
0.000191096
0.000191055
0.000191122
0.000191089
0.000191096
0.000191059
0.0001911
0.000191022
0.00019107
0.000191063
0.00019113
0.000191111
0.000191048
0.000191059
0.000191085
0.000191104
0.000191063
0.000191007
0.000191085
0.000191104
0.000191085
0.0001911
0.000191063
0.000191242
0.000191282
0.000191268
0.000191253
0.00019129
0.000191201
0.000191219
0.000191215
0.000191193
0.00019126
0.000191215
0.000191171
0.000191234
0.000191279
0.000191189
0.000191193
0.000191174
0.000191156
0.000191137
0.000191156
0.000191189
0.000191171
0.000191208
0.000191204
0.000191167
0.00019116
0.000191193
0.000191201
0.000191201
0.000191178
0.000191156
0.000191186
0.000191197
0.000191215
0.000191111
0.000191152
0.000191182
0.000191152
0.0001911
0.00019113
0.000191148
0.000191089
0.000191119
0.00019113
0.000191141
0.000191141
0.000191145
0.000191104
0.000191081
0.000191119
0.00019113
0.000191107
0.000191092
0.000191089
0.000191063
0.000191104
0.000191081
0.000191081
0.000191111
0.00019107
0.000191089
0.00019104
0.000191078
0.000191081
0.000191081
0.000191089
0.000191044
0.000191022
0.000191085
0.000191022
0.000191063
0.000191029
0.00019107
0.000191052
0.000191059
0.000191048
0.000191104
0.000191052
0.000191059
0.000191048
0.000191107
0.00019107
0.000191104
0.000191044
0.000191089
0.000191081
0.00019097
0.000190999
0.000191011
0.000191022
0.000191063
0.000191003
0.000191052
0.000191066
0.000190984
0.000191022
0.000191048
0.000190996
0.000191014
0.000191055
0.000191104
0.00019173
0.000191718
0.000191696
0.00019167
0.000191689
0.000191707
0.000191707
0.000191759
0.00019167
0.000191741
0.000191662
0.000191759
0.000191718
0.000191633
0.000191696
0.000191648
0.00019167
0.000191715
0.000191659
0.000191651
0.00019164
0.000191715
0.000191715
0.000191655
0.000191685
0.000191644
0.00019167
0.000191703
0.000191681
0.00019167
0.000191674
0.000191692
0.000191651
0.000191644
0.000191625
0.000191662
0.000191662
0.000191618
0.000191648
0.000191636
0.000191662
0.000191648
0.000191689
0.00019167
0.000191651
0.000191599
0.000191655
0.000191692
0.00019167
0.000191674
0.000191666
0.000191662
0.000191636
0.00019164
0.00019164
0.00019161
0.000191633
0.000191614
0.000191636
0.000191566
0.000191566
0.000191636
0.000191584
0.000191558
0.000191625
0.000191573
0.000191577
0.000191581
0.000191603
0.000191607
0.000191588
0.000191543
0.000191603
0.000191577
0.000191584
0.000191618
0.00019161
0.000191603
0.00019164
0.000191629
0.000191588
0.000191588
0.00019164
0.000191648
0.00019161
0.000191629
0.000191584
0.000191618
0.000191618
0.000191528
0.000191573
0.000191603
0.000191607
0.000191577
0.000191614
0.000191566
0.000191603
0.000191581
0.000191577
0.000191577
0.000191603
0.000192642
0.000192676
0.000192683
0.000192653
0.000192683
0.000192676
0.000192702
0.000192706
0.000192653
0.000192672
0.000192683
0.000192631
0.000192676
0.000192638
0.000192642
0.000192609
0.000192624
0.000192609
0.000192609
0.00019262
0.000192638
0.000192687
0.000192627
0.000192631
0.000192657
0.000192676
0.000192624
0.000192668
0.000192653
0.000192635
0.000192672
0.000192612
0.000192594
0.000192709
0.000192672
0.000192642
0.000192627
0.000192646
0.00019265
0.000192624
0.000192631
0.000192638
0.000192631
0.000192638
0.000192679
0.000192653
0.000192683
0.000192642
0.000192668
0.000192612
0.000192653
0.00019262
0.000192627
0.000192642
0.000192646
0.000192653
0.000192627
0.000192601
0.000192642
0.000192616
0.000192668
0.000192642
0.000192571
0.000192586
0.000192601
0.000192609
0.00019262
0.000192586
0.000192609
0.000192609
0.000192631
0.000192638
0.000192642
0.000192586
0.000192635
0.000192627
0.000192609
0.000192624
0.000192683
0.000192661
0.000192598
0.000192687
0.000192624
0.000192638
0.000192672
0.000192653
0.000192642
0.000192627
0.000192635
0.000192646
0.000192601
0.000192717
0.000192687
0.000192698
0.000192702
0.000192706
0.000192672
0.000192724
0.000192776
0.000192728
0.000192713
0.00019424
0.000194207
0.000194255
0.000194229
0.000194263
0.000194255
0.000194173
0.000194207
0.000194266
0.000194252
0.000194259
0.000194211
0.000194229
0.000194214
0.000194263
0.000194222
0.000194255
0.000194322
0.00019424
0.000194225
0.000194263
0.0001943
0.000194285
0.0001943
0.000194233
0.000194281
0.000194218
0.000194196
0.00019417
0.000194255
0.000194263
0.000194203
0.000194259
0.000194266
0.000194274
0.000194278
0.000194278
0.000194255
0.000194259
0.00019424
0.000194266
0.0001943
0.000194263
0.00019427
0.00019427
0.00019433
0.00019424
0.000194278
0.000194248
0.000194252
0.000194285
0.000194218
0.000194266
0.000194293
0.000194229
0.000194259
0.000194315
0.000194278
0.000194237
0.000194274
0.000194274
0.000194289
0.000194289
0.000194285
0.000194274
0.000194263
0.000194225
0.00019427
0.000194304
0.000194289
0.000194289
0.000194274
0.000194296
0.000194229
0.000194278
0.000194266
0.00019427
0.000194278
0.000194259
0.000194285
0.000194356
0.00019433
0.000194281
0.000194311
0.000194333
0.000194319
0.000194296
0.000194289
0.00019436
0.000194393
0.000194337
0.000194401
0.000194412
0.000194397
0.000194393
0.000194397
0.00019436
0.000194378
0.000194382
0.000194393
0.000194427
0.000196286
0.00019633
0.000196308
0.000196308
0.000196263
0.000196289
0.000196282
0.000196256
0.000196345
0.000196293
0.000196274
0.00019636
0.00019639
0.000196341
0.000196353
0.000196349
0.000196315
0.000196323
0.000196349
0.000196412
0.000196401
0.000196438
0.000196364
0.000196364
0.000196368
0.000196386
0.000196408
0.00019642
0.00019639
0.000196382
0.000196394
0.000196401
0.000196382
0.000196449
0.00019642
0.000196382
0.000196442
0.000196375
0.000196431
0.000196427
0.00019639
0.000196435
0.000196379
0.000196368
0.000196446
0.000196461
0.000196479
0.000196498
0.000196423
0.000196446
0.000196453
0.000196416
0.000196524
0.000196438
0.000196427
0.000196509
0.000196468
0.000196431
0.000196446
0.000196453
0.000196394
0.000196446
0.000196517
0.000196431
0.000196464
0.000196509
0.000196498
0.000196476
0.000196502
0.000196472
0.00019649
0.000196483
0.000196468
0.000196483
0.000196498
0.000196505
0.000196517
0.000196461
0.000196539
0.000196483
0.000196483
0.000196557
0.000196528
0.000196494
0.000196517
0.000196509
0.00019652
0.000196535
0.000196468
0.000196502
0.000196565
0.000196513
0.000196513
0.000196554
0.000196565
0.000196513
0.000196572
0.000196543
0.000196543
0.00019658
0.000196554
0.000198867
0.000198871
0.000198882
0.000198882
0.000198867
0.000198893
0.000198901
0.000198897
0.000198882
0.000198927
0.000198938
0.000198912
0.000198897
0.000198908
0.000198919
0.000198878
0.000198897
0.000198931
0.000198886
0.000198934
0.000198904
0.000198919
0.000198931
0.000198938
0.000198934
0.000198923
0.000198975
0.000198998
0.000198934
0.000198964
0.000198934
0.000198886
0.000198979
0.000199012
0.000198953
0.000198942
0.000198979
0.000199009
0.000198979
0.000199001
0.000199027
0.000199061
0.000199009
0.000198971
0.000199016
0.00019896
0.000199001
0.000199039
0.000198979
0.00019899
0.000199005
0.000199009
0.000199016
0.000199083
0.000198979
0.000198986
0.000199031
0.000199027
0.000199005
0.000198994
0.000199057
0.00019908
0.000199053
0.000199132
0.000199061
0.000199106
0.000199124
0.000199147
0.00019908
0.00019912
0.000199098
0.000199143
0.00019912
0.000199124
0.000199176
0.00019918
0.000199128
0.000199158
0.000199106
0.000199128
0.000199165
0.000199202
0.000199173
0.000199161
0.000199195
0.000199165
0.000199109
0.000199176
0.00019915
0.00019912
0.00019915
0.000199199
0.000199165
0.000199124
0.000199176
0.000199158
0.000199199
0.000199214
0.00019921
0.000199214
0.000199247
0.000201914
0.000201926
0.000201929
0.000201896
0.000201996
0.000201914
0.000201963
0.000201967
0.000201944
0.000201937
0.000201974
0.000202
0.000202022
0.000202037
0.000201982
0.000202004
0.000201989
0.000201993
0.000202049
0.000202
0.000202071
0.00020197
0.000202019
0.000202041
0.000202071
0.000202071
0.000202078
0.00020203
0.000201996
0.000202004
0.000202071
0.000202041
0.000202078
0.000202078
0.000202071
0.000202045
0.000202052
0.000202067
0.000202108
0.000202127
0.000202082
0.000202041
0.000202049
0.000202052
0.000202101
0.000202071
0.000202116
0.000202071
0.000202071
0.00020209
0.000202101
0.000202104
0.000202127
0.000202119
0.000202145
0.000202104
0.000202153
0.000202205
0.000202145
0.000202164
0.000202149
0.000202149
0.000202212
0.000202194
0.000202145
0.000202227
0.000202205
0.000202209
0.000202227
0.000202253
0.000202231
0.000202205
0.000202242
0.000202242
0.00020219
0.000202257
0.00020219
0.000202209
0.000202209
0.000202276
0.00020228
0.000202287
0.000202261
0.000202302
0.000202302
0.000202302
0.00020225
0.000202231
0.000202257
0.000202302
0.000202268
0.000202294
0.000202294
0.000202276
0.000202317
0.000202257
0.000202321
0.000202317
0.000202324
0.000202324
0.000202321
0.000205401
0.000205372
0.000205405
0.000205357
0.000205349
0.000205424
0.000205461
0.000205379
0.00020542
0.000205472
0.000205427
0.000205446
0.000205468
0.000205506
0.000205476
0.000205483
0.000205517
0.000205491
0.00020548
0.000205442
0.000205416
0.00020545
0.000205517
0.000205539
0.000205517
0.000205543
0.000205513
0.000205524
0.000205558
0.000205506
0.000205535
0.00020558
0.000205521
0.000205509
0.00020555
0.000205565
0.000205573
0.00020558
0.000205535
0.000205584
0.000205591
0.000205595
0.000205632
0.000205588
0.00020558
0.000205565
0.000205602
0.00020561
0.000205617
0.000205599
0.000205636
0.000205573
0.000205625
0.000205681
0.000205707
0.000205573
0.000205599
0.000205651
0.000205647
0.000205707
0.00020564
0.000205655
0.000205632
0.000205651
0.00020564
0.000205681
0.00020567
0.000205651
0.000205744
0.00020577
0.000205759
0.000205774
0.000205748
0.000205763
0.000205781
0.000205729
0.000205826
0.000205744
0.000205785
0.000205748
0.000205826
0.000205781
0.000205755
0.000205837
0.000205807
0.000205807
0.000205785
0.000205807
0.000205819
0.00020586
0.000205807
0.000205819
0.00020583
0.000205826
0.000205856
0.000205819
0.000205908
0.000205919
0.000205886
0.000205945
0.000205953
0.000209201
0.000209209
0.000209272
0.000209343
0.000209305
0.000209283
0.000209302
0.000209324
0.000209343
0.00020938
0.000209358
0.00020932
0.000209413
0.000209343
0.000209372
0.00020935
0.000209361
0.000209335
0.000209354
0.000209343
0.000209365
0.000209328
0.000209402
0.000209365
0.00020941
0.000209387
0.000209395
0.00020941
0.000209406
0.000209406
0.000209384
0.000209343
0.000209428
0.000209428
0.000209395
0.000209484
0.000209443
0.000209425
0.000209466
0.000209488
0.000209514
0.000209447
0.000209495
0.000209477
0.000209462
0.000209481
0.000209484
0.000209473
0.000209466
0.000209529
0.000209477
0.000209514
0.000209488
0.000209529
0.000209507
0.000209555
0.000209585
0.000209596
0.000209551
0.0002096
0.000209562
0.000209603
0.0002096
0.000209611
0.000209574
0.000209596
0.000209615
0.000209618
0.000209633
0.000209659
0.000209697
0.000209633
0.00020973
0.000209734
0.000209711
0.000209767
0.000209749
0.000209767
0.000209752
0.000209797
0.000209719
0.000209741
0.000209771
0.000209801
0.000209771
0.000209812
0.000209745
0.000209775
0.000209786
0.000209793
0.000209834
0.000209797
0.000209805
0.00020979
0.000209816
0.000209808
0.000209816
0.000209786
0.000209879
0.000209864
0.000209875
0.00021353
0.000213485
0.000213541
0.000213567
0.000213563
0.000213545
0.00021356
0.000213608
0.000213552
0.000213549
0.000213563
0.000213552
0.000213552
0.000213556
0.000213575
0.000213604
0.000213619
0.000213645
0.00021363
0.00021363
0.000213608
0.000213604
0.00021363
0.000213649
0.000213657
0.000213657
0.00021366
0.000213698
0.000213664
0.000213608
0.000213709
0.000213664
0.000213671
0.000213705
0.000213694
0.000213686
0.000213746
0.000213761
0.00021382
0.000213791
0.00021385
0.000213813
0.00021385
0.00021382
0.000213839
0.000213832
0.000213817
0.000213873
0.000213865
0.000213858
0.000213832
0.000213921
0.000213873
0.000213876
0.000213947
0.000213943
0.000213929
0.000213899
0.000213888
0.000213925
0.000213969
0.000213888
0.000213955
0.000213932
0.000213981
0.000213988
0.000214007
0.000214007
0.000213958
0.000213977
0.000213973
0.000213969
0.00021394
0.00021404
0.000214014
0.000213984
0.000213992
0.00021404
0.000214029
0.000214044
0.000214048
0.000214037
0.00021407
0.00021401
0.000214107
0.00021404
0.000214044
0.000214107
0.0002141
0.000214126
0.000214189
0.000214182
0.000214186
0.000214171
0.000214193
0.000214193
0.000214256
0.000214227
0.00021423
0.000214241
0.000214256
0.000218164
0.000218149
0.000218187
0.000218127
0.000218175
0.000218198
0.000218216
0.000218209
0.000218242
0.000218216
0.000218283
0.000218261
0.000218231
0.000218216
0.000218187
0.000218257
0.000218306
0.000218257
0.000218313
0.000218313
0.000218268
0.000218339
0.000218302
0.000218328
0.000218298
0.000218332
0.000218399
0.000218388
0.00021835
0.000218388
0.00021835
0.000218444
0.000218447
0.000218436
0.000218499
0.000218429
0.000218537
0.000218499
0.000218499
0.000218533
0.000218499
0.000218447
0.000218563
0.000218462
0.000218507
0.000218574
0.000218529
0.000218511
0.000218518
0.000218567
0.000218544
0.000218522
0.000218552
0.000218604
0.000218611
0.000218634
0.000218596
0.000218622
0.000218648
0.000218607
0.000218738
0.000218663
0.000218667
0.000218716
0.000218656
0.000218738
0.000218775
0.000218775
0.000218779
0.000218786
0.000218708
0.00021879
0.000218775
0.000218812
0.000218749
0.000218756
0.000218827
0.000218812
0.000218879
0.000218812
0.000218872
0.000218857
0.00021882
0.00021885
0.00021885
0.000218883
0.000218861
0.000218842
0.000218857
0.000218913
0.000218917
0.00021895
0.000218939
0.000218946
0.000218902
0.000218969
0.000218984
0.000218961
0.000218999
0.00021892
0.000219014
0.000223231
0.000223245
0.000223245
0.000223212
0.000223208
0.00022326
0.000223264
0.000223249
0.000223212
0.000223368
0.000223335
0.000223383
0.000223361
0.000223316
0.000223365
0.000223376
0.00022338
0.000223346
0.000223365
0.000223409
0.000223428
0.000223394
0.000223462
0.000223409
0.000223387
0.000223432
0.000223462
0.000223465
0.000223506
0.00022345
0.000223443
0.000223462
0.000223484
0.000223558
0.000223555
0.000223532
0.000223555
0.000223551
0.000223581
0.000223573
0.000223577
0.000223648
0.000223611
0.000223614
0.000223693
0.000223693
0.000223611
0.000223663
0.000223629
0.000223652
0.000223715
0.000223685
0.000223663
0.000223752
0.000223685
0.000223737
0.000223733
0.000223752
0.000223737
0.000223752
0.00022376
0.000223767
0.000223778
0.000223748
0.000223771
0.000223774
0.000223733
0.000223793
0.000223856
0.000223868
0.000223827
0.000223946
0.000223916
0.000223923
0.000223897
0.000223901
0.000223882
0.000223968
0.00022395
0.000223957
0.000223972
0.000224013
0.000223968
0.000224009
0.00022402
0.00022405
0.000224028
0.000224076
0.000223998
0.00022402
0.000224039
0.000224039
0.000224043
0.000224087
0.00022405
0.000224087
0.000224136
0.000224069
0.000224102
0.000224151
0.00022408
0.000228658
0.000228662
0.000228722
0.000228699
0.000228737
0.000228792
0.000228785
0.000228804
0.0002288
0.000228796
0.000228789
0.000228845
0.000228789
0.000228792
0.000228833
0.000228859
0.000228837
0.000228815
0.0002289
0.000228893
0.000228837
0.000228882
0.000228859
0.0002289
0.0002289
0.000228941
0.000228886
0.000228968
0.000228938
0.000229038
0.000228964
0.000228982
0.000229035
0.000229005
0.000229061
0.000229068
0.000229049
0.000229016
0.000229109
0.000229087
0.000229061
0.000229098
0.00022915
0.000229139
0.000229169
0.000229117
0.000229139
0.000229146
0.000229161
0.000229146
0.000229206
0.000229239
0.000229228
0.000229288
0.000229288
0.000229284
0.000229299
0.000229254
0.000229307
0.000229318
0.000229344
0.000229277
0.000229359
0.000229325
0.000229355
0.000229344
0.00022934
0.000229392
0.000229359
0.000229366
0.0002294
0.000229396
0.000229407
0.000229381
0.000229467
0.000229485
0.000229485
0.000229523
0.000229459
0.000229526
0.000229504
0.000229556
0.000229534
0.000229511
0.00022953
0.000229601
0.000229523
0.000229552
0.000229593
0.000229526
0.000229608
0.000229657
0.000229657
0.000229698
0.00022966
0.000229612
0.000229709
0.00022972
0.000229739
0.000229727
0.00022978
0.000234548
0.000234567
0.000234537
0.000234611
0.000234637
0.000234671
0.000234663
0.000234596
0.000234704
0.000234667
0.000234678
0.000234682
0.000234675
0.000234757
0.000234753
0.000234768
0.00023476
0.000234786
0.000234742
0.000234772
0.000234753
0.000234824
0.000234861
0.000234876
0.000234853
0.00023485
0.000234909
0.000234909
0.000234883
0.000234913
0.000234865
0.000234891
0.000234958
0.000234976
0.000234943
0.000234876
0.00023495
0.000234988
0.000234995
0.000234999
0.00023507
0.000235077
0.000235066
0.000235055
0.000235092
0.000235148
0.000235129
0.000235148
0.000235129
0.000235114
0.000235151
0.000235151
0.000235207
0.000235219
0.000235196
0.000235148
0.000235181
0.000235163
0.00023523
0.000235256
0.000235301
0.00023533
0.00023533
0.000235327
0.000235289
0.000235323
0.000235334
0.000235356
0.000235286
0.000235338
0.000235412
0.000235338
0.000235386
0.000235416
0.000235338
0.00023542
0.000235412
0.000235505
0.000235509
0.000235513
0.000235546
0.000235517
0.000235539
0.000235558
0.000235524
0.000235558
0.000235606
0.00023558
0.000235591
0.000235617
0.00023561
0.000235584
0.000235632
0.000235658
0.000235647
0.000235744
0.00023571
0.000235755
0.000235714
0.000235736
0.000235695
0.000240907
0.000240903
0.000240911
0.000240896
0.000240948
0.000240956
0.000241019
0.000241019
0.000240996
0.000241037
0.000240982
0.000241019
0.000241093
0.000241037
0.000241093
0.000241082
0.000241082
0.000241123
0.000241123
0.000241097
0.000241108
0.000241242
0.000241186
0.00024122
0.000241198
0.000241239
0.000241291
0.000241261
0.000241231
0.000241254
0.000241321
0.000241268
0.000241317
0.000241309
0.000241343
0.000241362
0.000241347
0.000241395
0.000241403
0.000241395
0.000241399
0.000241455
0.000241406
0.000241477
0.000241492
0.000241451
0.000241492
0.000241455
0.00024147
0.000241544
0.000241611
0.000241593
0.000241559
0.000241615
0.000241622
0.000241637
0.000241622
0.000241626
0.000241648
0.000241682
0.000241671
0.000241626
0.000241611
0.00024173
0.00024173
0.000241734
0.000241742
0.000241786
0.000241771
0.000241823
0.00024182
0.000241805
0.000241857
0.000241805
0.000241809
0.000241876
0.00024185
0.000241943
0.000241861
0.000241861
0.000241872
0.000241932
0.000241894
0.000241976
0.000241976
0.000242013
0.000241969
0.000242058
0.00024204
0.000242006
0.000242043
0.000242107
0.000242118
0.000242114
0.000242062
0.000242129
0.000242133
0.000242166
0.000242162
0.000242189
0.000242207
0.000247747
0.000247743
0.000247803
0.000247777
0.00024778
0.000247765
0.000247888
0.000247836
0.000247892
0.000247885
0.000247937
0.000247929
0.000247892
0.000247892
0.000247944
0.000247959
0.000247903
0.000248019
0.000248007
0.00024803
0.000248063
0.000248052
0.000248086
0.000248045
0.000248063
0.000248063
0.000248112
0.000248078
0.000248116
0.000248212
0.000248194
0.000248194
0.000248235
0.000248201
0.000248235
0.000248212
0.000248235
0.000248238
0.000248253
0.000248242
0.000248328
0.000248298
0.000248332
0.000248298
0.000248332
0.000248302
0.000248317
0.000248343
0.000248361
0.000248414
0.000248395
0.000248473
0.000248522
0.000248544
0.000248548
0.000248503
0.000248581
0.000248533
0.00024857
0.000248574
0.000248577
0.000248607
0.000248641
0.000248678
0.000248604
0.000248682
0.000248667
0.00024876
0.000248749
0.000248697
0.000248704
0.000248745
0.00024882
0.000248812
0.000248827
0.000248838
0.000248805
0.000248849
0.000248838
0.000248831
0.000248883
0.000248898
0.00024889
0.000248894
0.000248928
0.00024892
0.000248965
0.00024901
0.000249006
0.000249013
0.000249032
0.000249017
0.000249054
0.000249092
0.000249114
0.000249088
0.000249114
0.000249173
0.00024917
0.000249188
0.000249129
0.00025513
0.000255171
0.000255138
0.000255175
0.000255235
0.000255149
0.000255201
0.000255272
0.000255313
0.000255227
0.000255227
0.000255283
0.000255309
0.000255272
0.000255294
0.000255372
0.00025538
0.000255425
0.000255432
0.000255372
0.000255402
0.000255443
0.000255458
0.000255417
0.000255439
0.000255566
0.000255521
0.00025557
0.000255566
0.000255596
0.000255588
0.000255577
0.000255585
0.000255618
0.000255637
0.00025567
0.000255693
0.000255696
0.000255719
0.000255723
0.000255737
0.00025576
0.00025579
0.000255831
0.000255782
0.000255778
0.000255782
0.000255805
0.000255872
0.000255894
0.000255879
0.000255976
0.000255916
0.000255886
0.000255957
0.000256013
0.000255976
0.000256002
0.000256065
0.000256099
0.000256125
0.000256073
0.000256136
0.000256132
0.000256125
0.000256144
0.000256125
0.000256181
0.000256237
0.000256211
0.000256229
0.000256214
0.000256281
0.000256252
0.000256229
0.000256293
0.000256345
0.000256337
0.000256341
0.000256404
0.000256386
0.000256404
0.000256397
0.000256419
0.000256516
0.00025652
0.000256542
0.000256501
0.000256531
0.000256542
0.000256505
0.000256576
0.000256579
0.000256553
0.00025665
0.000256635
0.000256658
0.000256635
0.000256632
0.000256643
0.000256673
0.000263151
0.000263121
0.000263102
0.000263151
0.000263162