/*--------------------------------*- C++ -*----------------------------------*\
| =========                 |                                                 |
| \\      /  F ield         | OpenFOAM: The Open Source CFD Toolbox           |
|  \\    /   O peration     | Version:  v2006                                 |
|   \\  /    A nd           | Website:  www.openfoam.com                      |
|    \\/     M anipulation  |                                                 |
\*---------------------------------------------------------------------------*/
FoamFile
{
    version     2.0;
    format      ascii;
    class       volVectorField;
    location    "0";
    object      U_new;
}
// * * * * * * * * * * * * * * * * * * * * * * * * * * * * * * * * * * * * * //

dimensions      [0 1 -1 0 0 0 0];


internalField   nonuniform List<vector> 
2500
(
(0.00052 -0.0338 0)
(0.00052 -0.1014 0)
(0.00052 -0.169 0)
(0.00052 -0.2366 0)
(0.00052 -0.3042 0)
(0.00052 -0.3718 0)
(0.00052 -0.4394 0)
(0.00052 -0.507 0)
(0.00052 -0.5746 0)
(0.00052 -0.6422 0)
(0.00052 -0.7098 0)
(0.00052 -0.7774 0)
(0.00052 -0.845 0)
(0.00052 -0.9126 0)
(0.00052 -0.9802 0)
(0.00052 -1.0478 0)
(0.00052 -1.1154 0)
(0.00052 -1.183 0)
(0.00052 -1.2506 0)
(0.00052 -1.3182 0)
(0.00052 -1.3858 0)
(0.00052 -1.4534 0)
(0.00052 -1.521 0)
(0.00052 -1.5886 0)
(0.00052 -1.6562 0)
(0.00052 -1.7238 0)
(0.00052 -1.7914 0)
(0.00052 -1.859 0)
(0.00052 -1.9266 0)
(0.00052 -1.9942 0)
(0.00052 -2.0618 0)
(0.00052 -2.1294 0)
(0.00052 -2.197 0)
(0.00052 -2.2646 0)
(0.00052 -2.3322 0)
(0.00052 -2.3998 0)
(0.00052 -2.4674 0)
(0.00052 -2.535 0)
(0.00052 -2.6026 0)
(0.00052 -2.6702 0)
(0.00052 -2.7378 0)
(0.00052 -2.8054 0)
(0.00052 -2.873 0)
(0.00052 -2.9406 0)
(0.00052 -3.0082 0)
(0.00052 -3.0758 0)
(0.00052 -3.1434 0)
(0.00052 -3.211 0)
(0.00052 -3.2786 0)
(0.00052 -3.3462 0)
(0.00468 -0.0338 0)
(0.00468 -0.1014 0)
(0.00468 -0.169 0)
(0.00468 -0.2366 0)
(0.00468 -0.3042 0)
(0.00468 -0.3718 0)
(0.00468 -0.4394 0)
(0.00468 -0.507 0)
(0.00468 -0.5746 0)
(0.00468 -0.6422 0)
(0.00468 -0.7098 0)
(0.00468 -0.7774 0)
(0.00468 -0.845 0)
(0.00468 -0.9126 0)
(0.00468 -0.9802 0)
(0.00468 -1.0478 0)
(0.00468 -1.1154 0)
(0.00468 -1.183 0)
(0.00468 -1.2506 0)
(0.00468 -1.3182 0)
(0.00468 -1.3858 0)
(0.00468 -1.4534 0)
(0.00468 -1.521 0)
(0.00468 -1.5886 0)
(0.00468 -1.6562 0)
(0.00468 -1.7238 0)
(0.00468 -1.7914 0)
(0.00468 -1.859 0)
(0.00468 -1.9266 0)
(0.00468 -1.9942 0)
(0.00468 -2.0618 0)
(0.00468 -2.1294 0)
(0.00468 -2.197 0)
(0.00468 -2.2646 0)
(0.00468 -2.3322 0)
(0.00468 -2.3998 0)
(0.00468 -2.4674 0)
(0.00468 -2.535 0)
(0.00468 -2.6026 0)
(0.00468 -2.6702 0)
(0.00468 -2.7378 0)
(0.00468 -2.8054 0)
(0.00468 -2.873 0)
(0.00468 -2.9406 0)
(0.00468 -3.0082 0)
(0.00468 -3.0758 0)
(0.00468 -3.1434 0)
(0.00468 -3.211 0)
(0.00468 -3.2786 0)
(0.00468 -3.3462 0)
(0.013 -0.0338 0)
(0.013 -0.1014 0)
(0.013 -0.169 0)
(0.013 -0.2366 0)
(0.013 -0.3042 0)
(0.013 -0.3718 0)
(0.013 -0.4394 0)
(0.013 -0.507 0)
(0.013 -0.5746 0)
(0.013 -0.6422 0)
(0.013 -0.7098 0)
(0.013 -0.7774 0)
(0.013 -0.845 0)
(0.013 -0.9126 0)
(0.013 -0.9802 0)
(0.013 -1.0478 0)
(0.013 -1.1154 0)
(0.013 -1.183 0)
(0.013 -1.2506 0)
(0.013 -1.3182 0)
(0.013 -1.3858 0)
(0.013 -1.4534 0)
(0.013 -1.521 0)
(0.013 -1.5886 0)
(0.013 -1.6562 0)
(0.013 -1.7238 0)
(0.013 -1.7914 0)
(0.013 -1.859 0)
(0.013 -1.9266 0)
(0.013 -1.9942 0)
(0.013 -2.0618 0)
(0.013 -2.1294 0)
(0.013 -2.197 0)
(0.013 -2.2646 0)
(0.013 -2.3322 0)
(0.013 -2.3998 0)
(0.013 -2.4674 0)
(0.013 -2.535 0)
(0.013 -2.6026 0)
(0.013 -2.6702 0)
(0.013 -2.7378 0)
(0.013 -2.8054 0)
(0.013 -2.873 0)
(0.013 -2.9406 0)
(0.013 -3.0082 0)
(0.013 -3.0758 0)
(0.013 -3.1434 0)
(0.013 -3.211 0)
(0.013 -3.2786 0)
(0.013 -3.3462 0)
(0.02548 -0.0338 0)
(0.02548 -0.1014 0)
(0.02548 -0.169 0)
(0.02548 -0.2366 0)
(0.02548 -0.3042 0)
(0.02548 -0.3718 0)
(0.02548 -0.4394 0)
(0.02548 -0.507 0)
(0.02548 -0.5746 0)
(0.02548 -0.6422 0)
(0.02548 -0.7098 0)
(0.02548 -0.7774 0)
(0.02548 -0.845 0)
(0.02548 -0.9126 0)
(0.02548 -0.9802 0)
(0.02548 -1.0478 0)
(0.02548 -1.1154 0)
(0.02548 -1.183 0)
(0.02548 -1.2506 0)
(0.02548 -1.3182 0)
(0.02548 -1.3858 0)
(0.02548 -1.4534 0)
(0.02548 -1.521 0)
(0.02548 -1.5886 0)
(0.02548 -1.6562 0)
(0.02548 -1.7238 0)
(0.02548 -1.7914 0)
(0.02548 -1.859 0)
(0.02548 -1.9266 0)
(0.02548 -1.9942 0)
(0.02548 -2.0618 0)
(0.02548 -2.1294 0)
(0.02548 -2.197 0)
(0.02548 -2.2646 0)
(0.02548 -2.3322 0)
(0.02548 -2.3998 0)
(0.02548 -2.4674 0)
(0.02548 -2.535 0)
(0.02548 -2.6026 0)
(0.02548 -2.6702 0)
(0.02548 -2.7378 0)
(0.02548 -2.8054 0)
(0.02548 -2.873 0)
(0.02548 -2.9406 0)
(0.02548 -3.0082 0)
(0.02548 -3.0758 0)
(0.02548 -3.1434 0)
(0.02548 -3.211 0)
(0.02548 -3.2786 0)
(0.02548 -3.3462 0)
(0.04212 -0.0338 0)
(0.04212 -0.1014 0)
(0.04212 -0.169 0)
(0.04212 -0.2366 0)
(0.04212 -0.3042 0)
(0.04212 -0.3718 0)
(0.04212 -0.4394 0)
(0.04212 -0.507 0)
(0.04212 -0.5746 0)
(0.04212 -0.6422 0)
(0.04212 -0.7098 0)
(0.04212 -0.7774 0)
(0.04212 -0.845 0)
(0.04212 -0.9126 0)
(0.04212 -0.9802 0)
(0.04212 -1.0478 0)
(0.04212 -1.1154 0)
(0.04212 -1.183 0)
(0.04212 -1.2506 0)
(0.04212 -1.3182 0)
(0.04212 -1.3858 0)
(0.04212 -1.4534 0)
(0.04212 -1.521 0)
(0.04212 -1.5886 0)
(0.04212 -1.6562 0)
(0.04212 -1.7238 0)
(0.04212 -1.7914 0)
(0.04212 -1.859 0)
(0.04212 -1.9266 0)
(0.04212 -1.9942 0)
(0.04212 -2.0618 0)
(0.04212 -2.1294 0)
(0.04212 -2.197 0)
(0.04212 -2.2646 0)
(0.04212 -2.3322 0)
(0.04212 -2.3998 0)
(0.04212 -2.4674 0)
(0.04212 -2.535 0)
(0.04212 -2.6026 0)
(0.04212 -2.6702 0)
(0.04212 -2.7378 0)
(0.04212 -2.8054 0)
(0.04212 -2.873 0)
(0.04212 -2.9406 0)
(0.04212 -3.0082 0)
(0.04212 -3.0758 0)
(0.04212 -3.1434 0)
(0.04212 -3.211 0)
(0.04212 -3.2786 0)
(0.04212 -3.3462 0)
(0.06292 -0.0338 0)
(0.06292 -0.1014 0)
(0.06292 -0.169 0)
(0.06292 -0.2366 0)
(0.06292 -0.3042 0)
(0.06292 -0.3718 0)
(0.06292 -0.4394 0)
(0.06292 -0.507 0)
(0.06292 -0.5746 0)
(0.06292 -0.6422 0)
(0.06292 -0.7098 0)
(0.06292 -0.7774 0)
(0.06292 -0.845 0)
(0.06292 -0.9126 0)
(0.06292 -0.9802 0)
(0.06292 -1.0478 0)
(0.06292 -1.1154 0)
(0.06292 -1.183 0)
(0.06292 -1.2506 0)
(0.06292 -1.3182 0)
(0.06292 -1.3858 0)
(0.06292 -1.4534 0)
(0.06292 -1.521 0)
(0.06292 -1.5886 0)
(0.06292 -1.6562 0)
(0.06292 -1.7238 0)
(0.06292 -1.7914 0)
(0.06292 -1.859 0)
(0.06292 -1.9266 0)
(0.06292 -1.9942 0)
(0.06292 -2.0618 0)
(0.06292 -2.1294 0)
(0.06292 -2.197 0)
(0.06292 -2.2646 0)
(0.06292 -2.3322 0)
(0.06292 -2.3998 0)
(0.06292 -2.4674 0)
(0.06292 -2.535 0)
(0.06292 -2.6026 0)
(0.06292 -2.6702 0)
(0.06292 -2.7378 0)
(0.06292 -2.8054 0)
(0.06292 -2.873 0)
(0.06292 -2.9406 0)
(0.06292 -3.0082 0)
(0.06292 -3.0758 0)
(0.06292 -3.1434 0)
(0.06292 -3.211 0)
(0.06292 -3.2786 0)
(0.06292 -3.3462 0)
(0.08788 -0.0338 0)
(0.08788 -0.1014 0)
(0.08788 -0.169 0)
(0.08788 -0.2366 0)
(0.08788 -0.3042 0)
(0.08788 -0.3718 0)
(0.08788 -0.4394 0)
(0.08788 -0.507 0)
(0.08788 -0.5746 0)
(0.08788 -0.6422 0)
(0.08788 -0.7098 0)
(0.08788 -0.7774 0)
(0.08788 -0.845 0)
(0.08788 -0.9126 0)
(0.08788 -0.9802 0)
(0.08788 -1.0478 0)
(0.08788 -1.1154 0)
(0.08788 -1.183 0)
(0.08788 -1.2506 0)
(0.08788 -1.3182 0)
(0.08788 -1.3858 0)
(0.08788 -1.4534 0)
(0.08788 -1.521 0)
(0.08788 -1.5886 0)
(0.08788 -1.6562 0)
(0.08788 -1.7238 0)
(0.08788 -1.7914 0)
(0.08788 -1.859 0)
(0.08788 -1.9266 0)
(0.08788 -1.9942 0)
(0.08788 -2.0618 0)
(0.08788 -2.1294 0)
(0.08788 -2.197 0)
(0.08788 -2.2646 0)
(0.08788 -2.3322 0)
(0.08788 -2.3998 0)
(0.08788 -2.4674 0)
(0.08788 -2.535 0)
(0.08788 -2.6026 0)
(0.08788 -2.6702 0)
(0.08788 -2.7378 0)
(0.08788 -2.8054 0)
(0.08788 -2.873 0)
(0.08788 -2.9406 0)
(0.08788 -3.0082 0)
(0.08788 -3.0758 0)
(0.08788 -3.1434 0)
(0.08788 -3.211 0)
(0.08788 -3.2786 0)
(0.08788 -3.3462 0)
(0.117 -0.0338 0)
(0.117 -0.1014 0)
(0.117 -0.169 0)
(0.117 -0.2366 0)
(0.117 -0.3042 0)
(0.117 -0.3718 0)
(0.117 -0.4394 0)
(0.117 -0.507 0)
(0.117 -0.5746 0)
(0.117 -0.6422 0)
(0.117 -0.7098 0)
(0.117 -0.7774 0)
(0.117 -0.845 0)
(0.117 -0.9126 0)
(0.117 -0.9802 0)
(0.117 -1.0478 0)
(0.117 -1.1154 0)
(0.117 -1.183 0)
(0.117 -1.2506 0)
(0.117 -1.3182 0)
(0.117 -1.3858 0)
(0.117 -1.4534 0)
(0.117 -1.521 0)
(0.117 -1.5886 0)
(0.117 -1.6562 0)
(0.117 -1.7238 0)
(0.117 -1.7914 0)
(0.117 -1.859 0)
(0.117 -1.9266 0)
(0.117 -1.9942 0)
(0.117 -2.0618 0)
(0.117 -2.1294 0)
(0.117 -2.197 0)
(0.117 -2.2646 0)
(0.117 -2.3322 0)
(0.117 -2.3998 0)
(0.117 -2.4674 0)
(0.117 -2.535 0)
(0.117 -2.6026 0)
(0.117 -2.6702 0)
(0.117 -2.7378 0)
(0.117 -2.8054 0)
(0.117 -2.873 0)
(0.117 -2.9406 0)
(0.117 -3.0082 0)
(0.117 -3.0758 0)
(0.117 -3.1434 0)
(0.117 -3.211 0)
(0.117 -3.2786 0)
(0.117 -3.3462 0)
(0.15028 -0.0338 0)
(0.15028 -0.1014 0)
(0.15028 -0.169 0)
(0.15028 -0.2366 0)
(0.15028 -0.3042 0)
(0.15028 -0.3718 0)
(0.15028 -0.4394 0)
(0.15028 -0.507 0)
(0.15028 -0.5746 0)
(0.15028 -0.6422 0)
(0.15028 -0.7098 0)
(0.15028 -0.7774 0)
(0.15028 -0.845 0)
(0.15028 -0.9126 0)
(0.15028 -0.9802 0)
(0.15028 -1.0478 0)
(0.15028 -1.1154 0)
(0.15028 -1.183 0)
(0.15028 -1.2506 0)
(0.15028 -1.3182 0)
(0.15028 -1.3858 0)
(0.15028 -1.4534 0)
(0.15028 -1.521 0)
(0.15028 -1.5886 0)
(0.15028 -1.6562 0)
(0.15028 -1.7238 0)
(0.15028 -1.7914 0)
(0.15028 -1.859 0)
(0.15028 -1.9266 0)
(0.15028 -1.9942 0)
(0.15028 -2.0618 0)
(0.15028 -2.1294 0)
(0.15028 -2.197 0)
(0.15028 -2.2646 0)
(0.15028 -2.3322 0)
(0.15028 -2.3998 0)
(0.15028 -2.4674 0)
(0.15028 -2.535 0)
(0.15028 -2.6026 0)
(0.15028 -2.6702 0)
(0.15028 -2.7378 0)
(0.15028 -2.8054 0)
(0.15028 -2.873 0)
(0.15028 -2.9406 0)
(0.15028 -3.0082 0)
(0.15028 -3.0758 0)
(0.15028 -3.1434 0)
(0.15028 -3.211 0)
(0.15028 -3.2786 0)
(0.15028 -3.3462 0)
(0.18772 -0.0338 0)
(0.18772 -0.1014 0)
(0.18772 -0.169 0)
(0.18772 -0.2366 0)
(0.18772 -0.3042 0)
(0.18772 -0.3718 0)
(0.18772 -0.4394 0)
(0.18772 -0.507 0)
(0.18772 -0.5746 0)
(0.18772 -0.6422 0)
(0.18772 -0.7098 0)
(0.18772 -0.7774 0)
(0.18772 -0.845 0)
(0.18772 -0.9126 0)
(0.18772 -0.9802 0)
(0.18772 -1.0478 0)
(0.18772 -1.1154 0)
(0.18772 -1.183 0)
(0.18772 -1.2506 0)
(0.18772 -1.3182 0)
(0.18772 -1.3858 0)
(0.18772 -1.4534 0)
(0.18772 -1.521 0)
(0.18772 -1.5886 0)
(0.18772 -1.6562 0)
(0.18772 -1.7238 0)
(0.18772 -1.7914 0)
(0.18772 -1.859 0)
(0.18772 -1.9266 0)
(0.18772 -1.9942 0)
(0.18772 -2.0618 0)
(0.18772 -2.1294 0)
(0.18772 -2.197 0)
(0.18772 -2.2646 0)
(0.18772 -2.3322 0)
(0.18772 -2.3998 0)
(0.18772 -2.4674 0)
(0.18772 -2.535 0)
(0.18772 -2.6026 0)
(0.18772 -2.6702 0)
(0.18772 -2.7378 0)
(0.18772 -2.8054 0)
(0.18772 -2.873 0)
(0.18772 -2.9406 0)
(0.18772 -3.0082 0)
(0.18772 -3.0758 0)
(0.18772 -3.1434 0)
(0.18772 -3.211 0)
(0.18772 -3.2786 0)
(0.18772 -3.3462 0)
(0.22932 -0.0338 0)
(0.22932 -0.1014 0)
(0.22932 -0.169 0)
(0.22932 -0.2366 0)
(0.22932 -0.3042 0)
(0.22932 -0.3718 0)
(0.22932 -0.4394 0)
(0.22932 -0.507 0)
(0.22932 -0.5746 0)
(0.22932 -0.6422 0)
(0.22932 -0.7098 0)
(0.22932 -0.7774 0)
(0.22932 -0.845 0)
(0.22932 -0.9126 0)
(0.22932 -0.9802 0)
(0.22932 -1.0478 0)
(0.22932 -1.1154 0)
(0.22932 -1.183 0)
(0.22932 -1.2506 0)
(0.22932 -1.3182 0)
(0.22932 -1.3858 0)
(0.22932 -1.4534 0)
(0.22932 -1.521 0)
(0.22932 -1.5886 0)
(0.22932 -1.6562 0)
(0.22932 -1.7238 0)
(0.22932 -1.7914 0)
(0.22932 -1.859 0)
(0.22932 -1.9266 0)
(0.22932 -1.9942 0)
(0.22932 -2.0618 0)
(0.22932 -2.1294 0)
(0.22932 -2.197 0)
(0.22932 -2.2646 0)
(0.22932 -2.3322 0)
(0.22932 -2.3998 0)
(0.22932 -2.4674 0)
(0.22932 -2.535 0)
(0.22932 -2.6026 0)
(0.22932 -2.6702 0)
(0.22932 -2.7378 0)
(0.22932 -2.8054 0)
(0.22932 -2.873 0)
(0.22932 -2.9406 0)
(0.22932 -3.0082 0)
(0.22932 -3.0758 0)
(0.22932 -3.1434 0)
(0.22932 -3.211 0)
(0.22932 -3.2786 0)
(0.22932 -3.3462 0)
(0.27508 -0.0338 0)
(0.27508 -0.1014 0)
(0.27508 -0.169 0)
(0.27508 -0.2366 0)
(0.27508 -0.3042 0)
(0.27508 -0.3718 0)
(0.27508 -0.4394 0)
(0.27508 -0.507 0)
(0.27508 -0.5746 0)
(0.27508 -0.6422 0)
(0.27508 -0.7098 0)
(0.27508 -0.7774 0)
(0.27508 -0.845 0)
(0.27508 -0.9126 0)
(0.27508 -0.9802 0)
(0.27508 -1.0478 0)
(0.27508 -1.1154 0)
(0.27508 -1.183 0)
(0.27508 -1.2506 0)
(0.27508 -1.3182 0)
(0.27508 -1.3858 0)
(0.27508 -1.4534 0)
(0.27508 -1.521 0)
(0.27508 -1.5886 0)
(0.27508 -1.6562 0)
(0.27508 -1.7238 0)
(0.27508 -1.7914 0)
(0.27508 -1.859 0)
(0.27508 -1.9266 0)
(0.27508 -1.9942 0)
(0.27508 -2.0618 0)
(0.27508 -2.1294 0)
(0.27508 -2.197 0)
(0.27508 -2.2646 0)
(0.27508 -2.3322 0)
(0.27508 -2.3998 0)
(0.27508 -2.4674 0)
(0.27508 -2.535 0)
(0.27508 -2.6026 0)
(0.27508 -2.6702 0)
(0.27508 -2.7378 0)
(0.27508 -2.8054 0)
(0.27508 -2.873 0)
(0.27508 -2.9406 0)
(0.27508 -3.0082 0)
(0.27508 -3.0758 0)
(0.27508 -3.1434 0)
(0.27508 -3.211 0)
(0.27508 -3.2786 0)
(0.27508 -3.3462 0)
(0.325 -0.0338 0)
(0.325 -0.1014 0)
(0.325 -0.169 0)
(0.325 -0.2366 0)
(0.325 -0.3042 0)
(0.325 -0.3718 0)
(0.325 -0.4394 0)
(0.325 -0.507 0)
(0.325 -0.5746 0)
(0.325 -0.6422 0)
(0.325 -0.7098 0)
(0.325 -0.7774 0)
(0.325 -0.845 0)
(0.325 -0.9126 0)
(0.325 -0.9802 0)
(0.325 -1.0478 0)
(0.325 -1.1154 0)
(0.325 -1.183 0)
(0.325 -1.2506 0)
(0.325 -1.3182 0)
(0.325 -1.3858 0)
(0.325 -1.4534 0)
(0.325 -1.521 0)
(0.325 -1.5886 0)
(0.325 -1.6562 0)
(0.325 -1.7238 0)
(0.325 -1.7914 0)
(0.325 -1.859 0)
(0.325 -1.9266 0)
(0.325 -1.9942 0)
(0.325 -2.0618 0)
(0.325 -2.1294 0)
(0.325 -2.197 0)
(0.325 -2.2646 0)
(0.325 -2.3322 0)
(0.325 -2.3998 0)
(0.325 -2.4674 0)
(0.325 -2.535 0)
(0.325 -2.6026 0)
(0.325 -2.6702 0)
(0.325 -2.7378 0)
(0.325 -2.8054 0)
(0.325 -2.873 0)
(0.325 -2.9406 0)
(0.325 -3.0082 0)
(0.325 -3.0758 0)
(0.325 -3.1434 0)
(0.325 -3.211 0)
(0.325 -3.2786 0)
(0.325 -3.3462 0)
(0.37908 -0.0338 0)
(0.37908 -0.1014 0)
(0.37908 -0.169 0)
(0.37908 -0.2366 0)
(0.37908 -0.3042 0)
(0.37908 -0.3718 0)
(0.37908 -0.4394 0)
(0.37908 -0.507 0)
(0.37908 -0.5746 0)
(0.37908 -0.6422 0)
(0.37908 -0.7098 0)
(0.37908 -0.7774 0)
(0.37908 -0.845 0)
(0.37908 -0.9126 0)
(0.37908 -0.9802 0)
(0.37908 -1.0478 0)
(0.37908 -1.1154 0)
(0.37908 -1.183 0)
(0.37908 -1.2506 0)
(0.37908 -1.3182 0)
(0.37908 -1.3858 0)
(0.37908 -1.4534 0)
(0.37908 -1.521 0)
(0.37908 -1.5886 0)
(0.37908 -1.6562 0)
(0.37908 -1.7238 0)
(0.37908 -1.7914 0)
(0.37908 -1.859 0)
(0.37908 -1.9266 0)
(0.37908 -1.9942 0)
(0.37908 -2.0618 0)
(0.37908 -2.1294 0)
(0.37908 -2.197 0)
(0.37908 -2.2646 0)
(0.37908 -2.3322 0)
(0.37908 -2.3998 0)
(0.37908 -2.4674 0)
(0.37908 -2.535 0)
(0.37908 -2.6026 0)
(0.37908 -2.6702 0)
(0.37908 -2.7378 0)
(0.37908 -2.8054 0)
(0.37908 -2.873 0)
(0.37908 -2.9406 0)
(0.37908 -3.0082 0)
(0.37908 -3.0758 0)
(0.37908 -3.1434 0)
(0.37908 -3.211 0)
(0.37908 -3.2786 0)
(0.37908 -3.3462 0)
(0.43732 -0.0338 0)
(0.43732 -0.1014 0)
(0.43732 -0.169 0)
(0.43732 -0.2366 0)
(0.43732 -0.3042 0)
(0.43732 -0.3718 0)
(0.43732 -0.4394 0)
(0.43732 -0.507 0)
(0.43732 -0.5746 0)
(0.43732 -0.6422 0)
(0.43732 -0.7098 0)
(0.43732 -0.7774 0)
(0.43732 -0.845 0)
(0.43732 -0.9126 0)
(0.43732 -0.9802 0)
(0.43732 -1.0478 0)
(0.43732 -1.1154 0)
(0.43732 -1.183 0)
(0.43732 -1.2506 0)
(0.43732 -1.3182 0)
(0.43732 -1.3858 0)
(0.43732 -1.4534 0)
(0.43732 -1.521 0)
(0.43732 -1.5886 0)
(0.43732 -1.6562 0)
(0.43732 -1.7238 0)
(0.43732 -1.7914 0)
(0.43732 -1.859 0)
(0.43732 -1.9266 0)
(0.43732 -1.9942 0)
(0.43732 -2.0618 0)
(0.43732 -2.1294 0)
(0.43732 -2.197 0)
(0.43732 -2.2646 0)
(0.43732 -2.3322 0)
(0.43732 -2.3998 0)
(0.43732 -2.4674 0)
(0.43732 -2.535 0)
(0.43732 -2.6026 0)
(0.43732 -2.6702 0)
(0.43732 -2.7378 0)
(0.43732 -2.8054 0)
(0.43732 -2.873 0)
(0.43732 -2.9406 0)
(0.43732 -3.0082 0)
(0.43732 -3.0758 0)
(0.43732 -3.1434 0)
(0.43732 -3.211 0)
(0.43732 -3.2786 0)
(0.43732 -3.3462 0)
(0.49972 -0.0338 0)
(0.49972 -0.1014 0)
(0.49972 -0.169 0)
(0.49972 -0.2366 0)
(0.49972 -0.3042 0)
(0.49972 -0.3718 0)
(0.49972 -0.4394 0)
(0.49972 -0.507 0)
(0.49972 -0.5746 0)
(0.49972 -0.6422 0)
(0.49972 -0.7098 0)
(0.49972 -0.7774 0)
(0.49972 -0.845 0)
(0.49972 -0.9126 0)
(0.49972 -0.9802 0)
(0.49972 -1.0478 0)
(0.49972 -1.1154 0)
(0.49972 -1.183 0)
(0.49972 -1.2506 0)
(0.49972 -1.3182 0)
(0.49972 -1.3858 0)
(0.49972 -1.4534 0)
(0.49972 -1.521 0)
(0.49972 -1.5886 0)
(0.49972 -1.6562 0)
(0.49972 -1.7238 0)
(0.49972 -1.7914 0)
(0.49972 -1.859 0)
(0.49972 -1.9266 0)
(0.49972 -1.9942 0)
(0.49972 -2.0618 0)
(0.49972 -2.1294 0)
(0.49972 -2.197 0)
(0.49972 -2.2646 0)
(0.49972 -2.3322 0)
(0.49972 -2.3998 0)
(0.49972 -2.4674 0)
(0.49972 -2.535 0)
(0.49972 -2.6026 0)
(0.49972 -2.6702 0)
(0.49972 -2.7378 0)
(0.49972 -2.8054 0)
(0.49972 -2.873 0)
(0.49972 -2.9406 0)
(0.49972 -3.0082 0)
(0.49972 -3.0758 0)
(0.49972 -3.1434 0)
(0.49972 -3.211 0)
(0.49972 -3.2786 0)
(0.49972 -3.3462 0)
(0.56628 -0.0338 0)
(0.56628 -0.1014 0)
(0.56628 -0.169 0)
(0.56628 -0.2366 0)
(0.56628 -0.3042 0)
(0.56628 -0.3718 0)
(0.56628 -0.4394 0)
(0.56628 -0.507 0)
(0.56628 -0.5746 0)
(0.56628 -0.6422 0)
(0.56628 -0.7098 0)
(0.56628 -0.7774 0)
(0.56628 -0.845 0)
(0.56628 -0.9126 0)
(0.56628 -0.9802 0)
(0.56628 -1.0478 0)
(0.56628 -1.1154 0)
(0.56628 -1.183 0)
(0.56628 -1.2506 0)
(0.56628 -1.3182 0)
(0.56628 -1.3858 0)
(0.56628 -1.4534 0)
(0.56628 -1.521 0)
(0.56628 -1.5886 0)
(0.56628 -1.6562 0)
(0.56628 -1.7238 0)
(0.56628 -1.7914 0)
(0.56628 -1.859 0)
(0.56628 -1.9266 0)
(0.56628 -1.9942 0)
(0.56628 -2.0618 0)
(0.56628 -2.1294 0)
(0.56628 -2.197 0)
(0.56628 -2.2646 0)
(0.56628 -2.3322 0)
(0.56628 -2.3998 0)
(0.56628 -2.4674 0)
(0.56628 -2.535 0)
(0.56628 -2.6026 0)
(0.56628 -2.6702 0)
(0.56628 -2.7378 0)
(0.56628 -2.8054 0)
(0.56628 -2.873 0)
(0.56628 -2.9406 0)
(0.56628 -3.0082 0)
(0.56628 -3.0758 0)
(0.56628 -3.1434 0)
(0.56628 -3.211 0)
(0.56628 -3.2786 0)
(0.56628 -3.3462 0)
(0.637 -0.0338 0)
(0.637 -0.1014 0)
(0.637 -0.169 0)
(0.637 -0.2366 0)
(0.637 -0.3042 0)
(0.637 -0.3718 0)
(0.637 -0.4394 0)
(0.637 -0.507 0)
(0.637 -0.5746 0)
(0.637 -0.6422 0)
(0.637 -0.7098 0)
(0.637 -0.7774 0)
(0.637 -0.845 0)
(0.637 -0.9126 0)
(0.637 -0.9802 0)
(0.637 -1.0478 0)
(0.637 -1.1154 0)
(0.637 -1.183 0)
(0.637 -1.2506 0)
(0.637 -1.3182 0)
(0.637 -1.3858 0)
(0.637 -1.4534 0)
(0.637 -1.521 0)
(0.637 -1.5886 0)
(0.637 -1.6562 0)
(0.637 -1.7238 0)
(0.637 -1.7914 0)
(0.637 -1.859 0)
(0.637 -1.9266 0)
(0.637 -1.9942 0)
(0.637 -2.0618 0)
(0.637 -2.1294 0)
(0.637 -2.197 0)
(0.637 -2.2646 0)
(0.637 -2.3322 0)
(0.637 -2.3998 0)
(0.637 -2.4674 0)
(0.637 -2.535 0)
(0.637 -2.6026 0)
(0.637 -2.6702 0)
(0.637 -2.7378 0)
(0.637 -2.8054 0)
(0.637 -2.873 0)
(0.637 -2.9406 0)
(0.637 -3.0082 0)
(0.637 -3.0758 0)
(0.637 -3.1434 0)
(0.637 -3.211 0)
(0.637 -3.2786 0)
(0.637 -3.3462 0)
(0.71188 -0.0338 0)
(0.71188 -0.1014 0)
(0.71188 -0.169 0)
(0.71188 -0.2366 0)
(0.71188 -0.3042 0)
(0.71188 -0.3718 0)
(0.71188 -0.4394 0)
(0.71188 -0.507 0)
(0.71188 -0.5746 0)
(0.71188 -0.6422 0)
(0.71188 -0.7098 0)
(0.71188 -0.7774 0)
(0.71188 -0.845 0)
(0.71188 -0.9126 0)
(0.71188 -0.9802 0)
(0.71188 -1.0478 0)
(0.71188 -1.1154 0)
(0.71188 -1.183 0)
(0.71188 -1.2506 0)
(0.71188 -1.3182 0)
(0.71188 -1.3858 0)
(0.71188 -1.4534 0)
(0.71188 -1.521 0)
(0.71188 -1.5886 0)
(0.71188 -1.6562 0)
(0.71188 -1.7238 0)
(0.71188 -1.7914 0)
(0.71188 -1.859 0)
(0.71188 -1.9266 0)
(0.71188 -1.9942 0)
(0.71188 -2.0618 0)
(0.71188 -2.1294 0)
(0.71188 -2.197 0)
(0.71188 -2.2646 0)
(0.71188 -2.3322 0)
(0.71188 -2.3998 0)
(0.71188 -2.4674 0)
(0.71188 -2.535 0)
(0.71188 -2.6026 0)
(0.71188 -2.6702 0)
(0.71188 -2.7378 0)
(0.71188 -2.8054 0)
(0.71188 -2.873 0)
(0.71188 -2.9406 0)
(0.71188 -3.0082 0)
(0.71188 -3.0758 0)
(0.71188 -3.1434 0)
(0.71188 -3.211 0)
(0.71188 -3.2786 0)
(0.71188 -3.3462 0)
(0.79092 -0.0338 0)
(0.79092 -0.1014 0)
(0.79092 -0.169 0)
(0.79092 -0.2366 0)
(0.79092 -0.3042 0)
(0.79092 -0.3718 0)
(0.79092 -0.4394 0)
(0.79092 -0.507 0)
(0.79092 -0.5746 0)
(0.79092 -0.6422 0)
(0.79092 -0.7098 0)
(0.79092 -0.7774 0)
(0.79092 -0.845 0)
(0.79092 -0.9126 0)
(0.79092 -0.9802 0)
(0.79092 -1.0478 0)
(0.79092 -1.1154 0)
(0.79092 -1.183 0)
(0.79092 -1.2506 0)
(0.79092 -1.3182 0)
(0.79092 -1.3858 0)
(0.79092 -1.4534 0)
(0.79092 -1.521 0)
(0.79092 -1.5886 0)
(0.79092 -1.6562 0)
(0.79092 -1.7238 0)
(0.79092 -1.7914 0)
(0.79092 -1.859 0)
(0.79092 -1.9266 0)
(0.79092 -1.9942 0)
(0.79092 -2.0618 0)
(0.79092 -2.1294 0)
(0.79092 -2.197 0)
(0.79092 -2.2646 0)
(0.79092 -2.3322 0)
(0.79092 -2.3998 0)
(0.79092 -2.4674 0)
(0.79092 -2.535 0)
(0.79092 -2.6026 0)
(0.79092 -2.6702 0)
(0.79092 -2.7378 0)
(0.79092 -2.8054 0)
(0.79092 -2.873 0)
(0.79092 -2.9406 0)
(0.79092 -3.0082 0)
(0.79092 -3.0758 0)
(0.79092 -3.1434 0)
(0.79092 -3.211 0)
(0.79092 -3.2786 0)
(0.79092 -3.3462 0)
(0.87412 -0.0338 0)
(0.87412 -0.1014 0)
(0.87412 -0.169 0)
(0.87412 -0.2366 0)
(0.87412 -0.3042 0)
(0.87412 -0.3718 0)
(0.87412 -0.4394 0)
(0.87412 -0.507 0)
(0.87412 -0.5746 0)
(0.87412 -0.6422 0)
(0.87412 -0.7098 0)
(0.87412 -0.7774 0)
(0.87412 -0.845 0)
(0.87412 -0.9126 0)
(0.87412 -0.9802 0)
(0.87412 -1.0478 0)
(0.87412 -1.1154 0)
(0.87412 -1.183 0)
(0.87412 -1.2506 0)
(0.87412 -1.3182 0)
(0.87412 -1.3858 0)
(0.87412 -1.4534 0)
(0.87412 -1.521 0)
(0.87412 -1.5886 0)
(0.87412 -1.6562 0)
(0.87412 -1.7238 0)
(0.87412 -1.7914 0)
(0.87412 -1.859 0)
(0.87412 -1.9266 0)
(0.87412 -1.9942 0)
(0.87412 -2.0618 0)
(0.87412 -2.1294 0)
(0.87412 -2.197 0)
(0.87412 -2.2646 0)
(0.87412 -2.3322 0)
(0.87412 -2.3998 0)
(0.87412 -2.4674 0)
(0.87412 -2.535 0)
(0.87412 -2.6026 0)
(0.87412 -2.6702 0)
(0.87412 -2.7378 0)
(0.87412 -2.8054 0)
(0.87412 -2.873 0)
(0.87412 -2.9406 0)
(0.87412 -3.0082 0)
(0.87412 -3.0758 0)
(0.87412 -3.1434 0)
(0.87412 -3.211 0)
(0.87412 -3.2786 0)
(0.87412 -3.3462 0)
(0.96148 -0.0338 0)
(0.96148 -0.1014 0)
(0.96148 -0.169 0)
(0.96148 -0.2366 0)
(0.96148 -0.3042 0)
(0.96148 -0.3718 0)
(0.96148 -0.4394 0)
(0.96148 -0.507 0)
(0.96148 -0.5746 0)
(0.96148 -0.6422 0)
(0.96148 -0.7098 0)
(0.96148 -0.7774 0)
(0.96148 -0.845 0)
(0.96148 -0.9126 0)
(0.96148 -0.9802 0)
(0.96148 -1.0478 0)
(0.96148 -1.1154 0)
(0.96148 -1.183 0)
(0.96148 -1.2506 0)
(0.96148 -1.3182 0)
(0.96148 -1.3858 0)
(0.96148 -1.4534 0)
(0.96148 -1.521 0)
(0.96148 -1.5886 0)
(0.96148 -1.6562 0)
(0.96148 -1.7238 0)
(0.96148 -1.7914 0)
(0.96148 -1.859 0)
(0.96148 -1.9266 0)
(0.96148 -1.9942 0)
(0.96148 -2.0618 0)
(0.96148 -2.1294 0)
(0.96148 -2.197 0)
(0.96148 -2.2646 0)
(0.96148 -2.3322 0)
(0.96148 -2.3998 0)
(0.96148 -2.4674 0)
(0.96148 -2.535 0)
(0.96148 -2.6026 0)
(0.96148 -2.6702 0)
(0.96148 -2.7378 0)
(0.96148 -2.8054 0)
(0.96148 -2.873 0)
(0.96148 -2.9406 0)
(0.96148 -3.0082 0)
(0.96148 -3.0758 0)
(0.96148 -3.1434 0)
(0.96148 -3.211 0)
(0.96148 -3.2786 0)
(0.96148 -3.3462 0)
(1.053 -0.0338 0)
(1.053 -0.1014 0)
(1.053 -0.169 0)
(1.053 -0.2366 0)
(1.053 -0.3042 0)
(1.053 -0.3718 0)
(1.053 -0.4394 0)
(1.053 -0.507 0)
(1.053 -0.5746 0)
(1.053 -0.6422 0)
(1.053 -0.7098 0)
(1.053 -0.7774 0)
(1.053 -0.845 0)
(1.053 -0.9126 0)
(1.053 -0.9802 0)
(1.053 -1.0478 0)
(1.053 -1.1154 0)
(1.053 -1.183 0)
(1.053 -1.2506 0)
(1.053 -1.3182 0)
(1.053 -1.3858 0)
(1.053 -1.4534 0)
(1.053 -1.521 0)
(1.053 -1.5886 0)
(1.053 -1.6562 0)
(1.053 -1.7238 0)
(1.053 -1.7914 0)
(1.053 -1.859 0)
(1.053 -1.9266 0)
(1.053 -1.9942 0)
(1.053 -2.0618 0)
(1.053 -2.1294 0)
(1.053 -2.197 0)
(1.053 -2.2646 0)
(1.053 -2.3322 0)
(1.053 -2.3998 0)
(1.053 -2.4674 0)
(1.053 -2.535 0)
(1.053 -2.6026 0)
(1.053 -2.6702 0)
(1.053 -2.7378 0)
(1.053 -2.8054 0)
(1.053 -2.873 0)
(1.053 -2.9406 0)
(1.053 -3.0082 0)
(1.053 -3.0758 0)
(1.053 -3.1434 0)
(1.053 -3.211 0)
(1.053 -3.2786 0)
(1.053 -3.3462 0)
(1.14868 -0.0338 0)
(1.14868 -0.1014 0)
(1.14868 -0.169 0)
(1.14868 -0.2366 0)
(1.14868 -0.3042 0)
(1.14868 -0.3718 0)
(1.14868 -0.4394 0)
(1.14868 -0.507 0)
(1.14868 -0.5746 0)
(1.14868 -0.6422 0)
(1.14868 -0.7098 0)
(1.14868 -0.7774 0)
(1.14868 -0.845 0)
(1.14868 -0.9126 0)
(1.14868 -0.9802 0)
(1.14868 -1.0478 0)
(1.14868 -1.1154 0)
(1.14868 -1.183 0)
(1.14868 -1.2506 0)
(1.14868 -1.3182 0)
(1.14868 -1.3858 0)
(1.14868 -1.4534 0)
(1.14868 -1.521 0)
(1.14868 -1.5886 0)
(1.14868 -1.6562 0)
(1.14868 -1.7238 0)
(1.14868 -1.7914 0)
(1.14868 -1.859 0)
(1.14868 -1.9266 0)
(1.14868 -1.9942 0)
(1.14868 -2.0618 0)
(1.14868 -2.1294 0)
(1.14868 -2.197 0)
(1.14868 -2.2646 0)
(1.14868 -2.3322 0)
(1.14868 -2.3998 0)
(1.14868 -2.4674 0)
(1.14868 -2.535 0)
(1.14868 -2.6026 0)
(1.14868 -2.6702 0)
(1.14868 -2.7378 0)
(1.14868 -2.8054 0)
(1.14868 -2.873 0)
(1.14868 -2.9406 0)
(1.14868 -3.0082 0)
(1.14868 -3.0758 0)
(1.14868 -3.1434 0)
(1.14868 -3.211 0)
(1.14868 -3.2786 0)
(1.14868 -3.3462 0)
(1.24852 -0.0338 0)
(1.24852 -0.1014 0)
(1.24852 -0.169 0)
(1.24852 -0.2366 0)
(1.24852 -0.3042 0)
(1.24852 -0.3718 0)
(1.24852 -0.4394 0)
(1.24852 -0.507 0)
(1.24852 -0.5746 0)
(1.24852 -0.6422 0)
(1.24852 -0.7098 0)
(1.24852 -0.7774 0)
(1.24852 -0.845 0)
(1.24852 -0.9126 0)
(1.24852 -0.9802 0)
(1.24852 -1.0478 0)
(1.24852 -1.1154 0)
(1.24852 -1.183 0)
(1.24852 -1.2506 0)
(1.24852 -1.3182 0)
(1.24852 -1.3858 0)
(1.24852 -1.4534 0)
(1.24852 -1.521 0)
(1.24852 -1.5886 0)
(1.24852 -1.6562 0)
(1.24852 -1.7238 0)
(1.24852 -1.7914 0)
(1.24852 -1.859 0)
(1.24852 -1.9266 0)
(1.24852 -1.9942 0)
(1.24852 -2.0618 0)
(1.24852 -2.1294 0)
(1.24852 -2.197 0)
(1.24852 -2.2646 0)
(1.24852 -2.3322 0)
(1.24852 -2.3998 0)
(1.24852 -2.4674 0)
(1.24852 -2.535 0)
(1.24852 -2.6026 0)
(1.24852 -2.6702 0)
(1.24852 -2.7378 0)
(1.24852 -2.8054 0)
(1.24852 -2.873 0)
(1.24852 -2.9406 0)
(1.24852 -3.0082 0)
(1.24852 -3.0758 0)
(1.24852 -3.1434 0)
(1.24852 -3.211 0)
(1.24852 -3.2786 0)
(1.24852 -3.3462 0)
(1.35252 -0.0338 0)
(1.35252 -0.1014 0)
(1.35252 -0.169 0)
(1.35252 -0.2366 0)
(1.35252 -0.3042 0)
(1.35252 -0.3718 0)
(1.35252 -0.4394 0)
(1.35252 -0.507 0)
(1.35252 -0.5746 0)
(1.35252 -0.6422 0)
(1.35252 -0.7098 0)
(1.35252 -0.7774 0)
(1.35252 -0.845 0)
(1.35252 -0.9126 0)
(1.35252 -0.9802 0)
(1.35252 -1.0478 0)
(1.35252 -1.1154 0)
(1.35252 -1.183 0)
(1.35252 -1.2506 0)
(1.35252 -1.3182 0)
(1.35252 -1.3858 0)
(1.35252 -1.4534 0)
(1.35252 -1.521 0)
(1.35252 -1.5886 0)
(1.35252 -1.6562 0)
(1.35252 -1.7238 0)
(1.35252 -1.7914 0)
(1.35252 -1.859 0)
(1.35252 -1.9266 0)
(1.35252 -1.9942 0)
(1.35252 -2.0618 0)
(1.35252 -2.1294 0)
(1.35252 -2.197 0)
(1.35252 -2.2646 0)
(1.35252 -2.3322 0)
(1.35252 -2.3998 0)
(1.35252 -2.4674 0)
(1.35252 -2.535 0)
(1.35252 -2.6026 0)
(1.35252 -2.6702 0)
(1.35252 -2.7378 0)
(1.35252 -2.8054 0)
(1.35252 -2.873 0)
(1.35252 -2.9406 0)
(1.35252 -3.0082 0)
(1.35252 -3.0758 0)
(1.35252 -3.1434 0)
(1.35252 -3.211 0)
(1.35252 -3.2786 0)
(1.35252 -3.3462 0)
(1.46068 -0.0338 0)
(1.46068 -0.1014 0)
(1.46068 -0.169 0)
(1.46068 -0.2366 0)
(1.46068 -0.3042 0)
(1.46068 -0.3718 0)
(1.46068 -0.4394 0)
(1.46068 -0.507 0)
(1.46068 -0.5746 0)
(1.46068 -0.6422 0)
(1.46068 -0.7098 0)
(1.46068 -0.7774 0)
(1.46068 -0.845 0)
(1.46068 -0.9126 0)
(1.46068 -0.9802 0)
(1.46068 -1.0478 0)
(1.46068 -1.1154 0)
(1.46068 -1.183 0)
(1.46068 -1.2506 0)
(1.46068 -1.3182 0)
(1.46068 -1.3858 0)
(1.46068 -1.4534 0)
(1.46068 -1.521 0)
(1.46068 -1.5886 0)
(1.46068 -1.6562 0)
(1.46068 -1.7238 0)
(1.46068 -1.7914 0)
(1.46068 -1.859 0)
(1.46068 -1.9266 0)
(1.46068 -1.9942 0)
(1.46068 -2.0618 0)
(1.46068 -2.1294 0)
(1.46068 -2.197 0)
(1.46068 -2.2646 0)
(1.46068 -2.3322 0)
(1.46068 -2.3998 0)
(1.46068 -2.4674 0)
(1.46068 -2.535 0)
(1.46068 -2.6026 0)
(1.46068 -2.6702 0)
(1.46068 -2.7378 0)
(1.46068 -2.8054 0)
(1.46068 -2.873 0)
(1.46068 -2.9406 0)
(1.46068 -3.0082 0)
(1.46068 -3.0758 0)
(1.46068 -3.1434 0)
(1.46068 -3.211 0)
(1.46068 -3.2786 0)
(1.46068 -3.3462 0)
(1.573 -0.0338 0)
(1.573 -0.1014 0)
(1.573 -0.169 0)
(1.573 -0.2366 0)
(1.573 -0.3042 0)
(1.573 -0.3718 0)
(1.573 -0.4394 0)
(1.573 -0.507 0)
(1.573 -0.5746 0)
(1.573 -0.6422 0)
(1.573 -0.7098 0)
(1.573 -0.7774 0)
(1.573 -0.845 0)
(1.573 -0.9126 0)
(1.573 -0.9802 0)
(1.573 -1.0478 0)
(1.573 -1.1154 0)
(1.573 -1.183 0)
(1.573 -1.2506 0)
(1.573 -1.3182 0)
(1.573 -1.3858 0)
(1.573 -1.4534 0)
(1.573 -1.521 0)
(1.573 -1.5886 0)
(1.573 -1.6562 0)
(1.573 -1.7238 0)
(1.573 -1.7914 0)
(1.573 -1.859 0)
(1.573 -1.9266 0)
(1.573 -1.9942 0)
(1.573 -2.0618 0)
(1.573 -2.1294 0)
(1.573 -2.197 0)
(1.573 -2.2646 0)
(1.573 -2.3322 0)
(1.573 -2.3998 0)
(1.573 -2.4674 0)
(1.573 -2.535 0)
(1.573 -2.6026 0)
(1.573 -2.6702 0)
(1.573 -2.7378 0)
(1.573 -2.8054 0)
(1.573 -2.873 0)
(1.573 -2.9406 0)
(1.573 -3.0082 0)
(1.573 -3.0758 0)
(1.573 -3.1434 0)
(1.573 -3.211 0)
(1.573 -3.2786 0)
(1.573 -3.3462 0)
(1.68948 -0.0338 0)
(1.68948 -0.1014 0)
(1.68948 -0.169 0)
(1.68948 -0.2366 0)
(1.68948 -0.3042 0)
(1.68948 -0.3718 0)
(1.68948 -0.4394 0)
(1.68948 -0.507 0)
(1.68948 -0.5746 0)
(1.68948 -0.6422 0)
(1.68948 -0.7098 0)
(1.68948 -0.7774 0)
(1.68948 -0.845 0)
(1.68948 -0.9126 0)
(1.68948 -0.9802 0)
(1.68948 -1.0478 0)
(1.68948 -1.1154 0)
(1.68948 -1.183 0)
(1.68948 -1.2506 0)
(1.68948 -1.3182 0)
(1.68948 -1.3858 0)
(1.68948 -1.4534 0)
(1.68948 -1.521 0)
(1.68948 -1.5886 0)
(1.68948 -1.6562 0)
(1.68948 -1.7238 0)
(1.68948 -1.7914 0)
(1.68948 -1.859 0)
(1.68948 -1.9266 0)
(1.68948 -1.9942 0)
(1.68948 -2.0618 0)
(1.68948 -2.1294 0)
(1.68948 -2.197 0)
(1.68948 -2.2646 0)
(1.68948 -2.3322 0)
(1.68948 -2.3998 0)
(1.68948 -2.4674 0)
(1.68948 -2.535 0)
(1.68948 -2.6026 0)
(1.68948 -2.6702 0)
(1.68948 -2.7378 0)
(1.68948 -2.8054 0)
(1.68948 -2.873 0)
(1.68948 -2.9406 0)
(1.68948 -3.0082 0)
(1.68948 -3.0758 0)
(1.68948 -3.1434 0)
(1.68948 -3.211 0)
(1.68948 -3.2786 0)
(1.68948 -3.3462 0)
(1.81012 -0.0338 0)
(1.81012 -0.1014 0)
(1.81012 -0.169 0)
(1.81012 -0.2366 0)
(1.81012 -0.3042 0)
(1.81012 -0.3718 0)
(1.81012 -0.4394 0)
(1.81012 -0.507 0)
(1.81012 -0.5746 0)
(1.81012 -0.6422 0)
(1.81012 -0.7098 0)
(1.81012 -0.7774 0)
(1.81012 -0.845 0)
(1.81012 -0.9126 0)
(1.81012 -0.9802 0)
(1.81012 -1.0478 0)
(1.81012 -1.1154 0)
(1.81012 -1.183 0)
(1.81012 -1.2506 0)
(1.81012 -1.3182 0)
(1.81012 -1.3858 0)
(1.81012 -1.4534 0)
(1.81012 -1.521 0)
(1.81012 -1.5886 0)
(1.81012 -1.6562 0)
(1.81012 -1.7238 0)
(1.81012 -1.7914 0)
(1.81012 -1.859 0)
(1.81012 -1.9266 0)
(1.81012 -1.9942 0)
(1.81012 -2.0618 0)
(1.81012 -2.1294 0)
(1.81012 -2.197 0)
(1.81012 -2.2646 0)
(1.81012 -2.3322 0)
(1.81012 -2.3998 0)
(1.81012 -2.4674 0)
(1.81012 -2.535 0)
(1.81012 -2.6026 0)
(1.81012 -2.6702 0)
(1.81012 -2.7378 0)
(1.81012 -2.8054 0)
(1.81012 -2.873 0)
(1.81012 -2.9406 0)
(1.81012 -3.0082 0)
(1.81012 -3.0758 0)
(1.81012 -3.1434 0)
(1.81012 -3.211 0)
(1.81012 -3.2786 0)
(1.81012 -3.3462 0)
(1.93492 -0.0338 0)
(1.93492 -0.1014 0)