/*--------------------------------*- C++ -*----------------------------------*\
| =========                 |                                                 |
| \\      /  F ield         | OpenFOAM: The Open Source CFD Toolbox           |
|  \\    /   O peration     | Version:  v2006                                 |
|   \\  /    A nd           | Website:  www.openfoam.com                      |
|    \\/     M anipulation  |                                                 |
\*---------------------------------------------------------------------------*/
FoamFile
{
    version     2.0;
    format      ascii;
    class       volScalarField;
    location    "0";
    object      f;
}
// * * * * * * * * * * * * * * * * * * * * * * * * * * * * * * * * * * * * * //

dimensions      [0 0 0 0 0 0 0];


internalField   nonuniform List<scalar> 
2500
(
1.19696e-89
-1.16385e-74
-1.56924e-67
2.42763e-60
-4.28219e-57
-1.90964e-53
-7.93061e-51
-7.61492e-49
-2.10043e-47
8.30524e-47
1.00854e-44
2.30189e-43
2.5812e-42
1.69226e-41
3.3036e-43
-8.12314e-40
-6.94543e-39
-3.52318e-38
-1.34599e-37
-4.17728e-37
-9.75509e-37
-1.17867e-36
2.00831e-36
1.54453e-35
4.81493e-35
1.05175e-34
1.80452e-34
2.55215e-34
3.06094e-34
3.17976e-34
2.91143e-34
2.38069e-34
1.74626e-34
1.12965e-34
5.94303e-35
1.61876e-35
-1.63577e-35
-3.8291e-35
-5.01622e-35
-5.33347e-35
-4.99898e-35
-4.26889e-35
-3.37993e-35
-2.50876e-35
-1.75929e-35
-1.17238e-35
-7.45756e-36
-4.54417e-36
-2.65976e-36
-9.40715e-37
3.71942e-87
-8.11782e-73
-4.10181e-65
1.0143e-58
-1.03176e-55
-4.63492e-52
-1.72887e-49
-1.49426e-47
-3.69041e-46
8.67732e-46
1.26814e-43
2.81997e-42
3.16801e-41
2.26761e-40
4.1308e-40
-5.51967e-39
-5.45783e-38
-2.80491e-37
-1.05743e-36
-3.23273e-36
-7.56056e-36
-9.95136e-36
9.57721e-36
9.50766e-35
3.02059e-34
6.57933e-34
1.11925e-33
1.56575e-33
1.85411e-33
1.89838e-33
1.71041e-33
1.37449e-33
9.90202e-34
6.29586e-34
3.26937e-34
9.0723e-35
-8.0918e-35
-1.92161e-34
-2.48979e-34
-2.60833e-34
-2.40546e-34
-2.01976e-34
-1.57183e-34
-1.14658e-34
-7.90192e-35
-5.17544e-35
-3.23608e-35
-1.93859e-35
-1.11569e-35
-4.06426e-36
1.05202e-84
-3.55557e-71
-4.04213e-63
3.91362e-57
-2.12301e-54
-1.04448e-50
-3.5702e-48
-2.8144e-46
-6.19654e-45
9.90779e-45
1.57575e-42
3.3593e-41
3.75535e-40
2.86416e-39
8.31006e-39
-3.07184e-38
-4.20181e-37
-2.25127e-36
-8.48959e-36
-2.57751e-35
-6.06077e-35
-8.54185e-35
3.85391e-35
6.12588e-34
2.0052e-33
4.38171e-33
7.42877e-33
1.03293e-32
1.21335e-32
1.23006e-32
1.09548e-32
8.69034e-33
6.1764e-33
3.87722e-33
1.99667e-33
5.67172e-34
-4.43912e-34
-1.08001e-33
-1.3907e-33
-1.44153e-33
-1.31328e-33
-1.08844e-33
-8.35735e-34
-6.01368e-34
-4.08811e-34
-2.64132e-34
-1.62942e-34
-9.63163e-35
-5.4704e-35
-2.04611e-35
2.87807e-82
7.99967e-70
-3.07792e-61
1.45617e-55
-3.68957e-53
-2.25019e-49
-7.1602e-47
-5.1865e-45
-1.00625e-43
1.54412e-43
1.96341e-41
3.86323e-40
4.23325e-39
3.38802e-38
1.22751e-37
-6.30654e-38
-2.95283e-36
-1.72062e-35
-6.57511e-35
-1.99289e-34
-4.71841e-34
-7.04663e-34
3.9977e-35
3.77344e-33
1.2887e-32
2.8359e-32
4.80279e-32
6.64989e-32
7.76117e-32
7.80122e-32
6.87567e-32
5.38991e-32
3.78282e-32
2.34695e-32
1.20036e-32
3.50222e-33
-2.35963e-33
-5.94588e-33
-7.62472e-33
-7.82825e-33
-7.04997e-33
-5.77008e-33
-4.37267e-33
-3.10455e-33
-2.0822e-33
-1.32732e-33
-8.07964e-34
-4.71332e-34
-2.64226e-34
-1.01486e-34
7.60797e-80
4.60994e-67
-2.04828e-59
5.21697e-54
-4.49954e-52
-4.60276e-48
-1.3949e-45
-9.37522e-44
-1.58492e-42
3.23048e-42
2.50839e-40
4.31158e-39
4.53245e-38
3.77212e-37
1.56075e-36
1.59817e-36
-1.79259e-35
-1.23831e-34
-4.89195e-34
-1.4912e-33
-3.56293e-33
-5.59386e-33
-1.4187e-33
2.20583e-32
8.00026e-32
1.78109e-31
3.02093e-31
4.17366e-31
4.84822e-31
4.83892e-31
4.22586e-31
3.27705e-31
2.27339e-31
1.3954e-31
7.09768e-32
2.13168e-32
-1.21151e-32
-3.20445e-32
-4.10137e-32
-4.17536e-32
-3.71967e-32
-3.0078e-32
-2.25039e-32
-1.57684e-32
-1.04359e-32
-6.56459e-33
-3.94355e-33
-2.27064e-33
-1.25656e-33
-4.95496e-34
1.94101e-77
7.60766e-65
-1.2419e-57
1.79639e-52
2.69867e-52
-8.8385e-47
-2.6405e-44
-1.66722e-42
-2.43268e-41
7.26602e-41
3.34941e-39
4.71556e-38
4.60253e-37
3.95936e-36
1.79345e-35
3.4318e-35
-7.89387e-35
-8.22974e-34
-3.47545e-33
-1.07703e-32
-2.6057e-32
-4.27553e-32
-2.14562e-32
1.20964e-31
4.78434e-31
1.08366e-30
1.8462e-30
2.5509e-30
2.95484e-30
2.93305e-30
2.54139e-30
1.95175e-30
1.33968e-30
8.14306e-31
4.12419e-31
1.27657e-31
-5.98127e-32
-1.68937e-31
-2.16328e-31
-2.18626e-31
-1.92803e-31
-1.54104e-31
-1.13868e-31
-7.87605e-32
-5.14442e-32
-3.19367e-32
-1.89359e-32
-1.07627e-32
-5.88032e-33
-2.37941e-33
4.77314e-75
9.63131e-63
-6.98533e-56
5.93131e-51
2.25591e-49
-1.56055e-45
-4.85856e-43
-2.92597e-41
-3.6641e-40
1.54553e-39
4.69874e-38
5.13281e-37
4.42884e-36
3.9152e-35
1.8995e-34
4.73626e-34
9.13263e-36
-4.85464e-33
-2.33611e-32
-7.48301e-32
-1.84244e-31
-3.14657e-31
-2.21291e-31
6.09935e-31
2.74665e-30
6.37456e-30
1.09458e-29
1.51635e-29
1.75519e-29
1.7357e-29
1.49425e-29
1.1378e-29
7.73509e-30
4.66045e-30
2.35282e-30
7.50903e-31
-2.82031e-31
-8.70478e-31
-1.11819e-30
-1.12322e-30
-9.81298e-31
-7.7565e-31
-5.66199e-31
-3.86667e-31
-2.49293e-31
-1.52752e-31
-8.94002e-32
-5.01644e-32
-2.70622e-32
-1.12285e-32
1.12965e-72
1.06389e-60
-3.67468e-54
1.87227e-49
7.77469e-48
-2.42231e-44
-8.69177e-42
-5.08173e-40
-5.46616e-39
3.00636e-38
6.83515e-37
5.67289e-36
4.04453e-35
3.6377e-34
1.86907e-33
5.44526e-33
5.8013e-33
-2.28741e-32
-1.46307e-31
-4.97762e-31
-1.2569e-30
-2.22889e-30
-1.937e-30
2.71456e-30
1.50688e-29
3.61696e-29
6.28477e-29
8.75449e-29
1.01496e-28
1.0018e-28
8.58192e-29
6.48711e-29
4.37238e-29
2.61375e-29
1.31662e-29
4.332e-30
-1.25634e-30
-4.37953e-30
-5.66037e-30
-5.65888e-30
-4.90158e-30
-3.83337e-30
-2.76523e-30
-1.86483e-30
-1.18688e-30
-7.17858e-31
-4.14742e-31
-2.29767e-31
-1.224e-31
-5.20273e-32
2.56859e-70
1.07033e-58
-1.81256e-52
5.6272e-48
1.29772e-46
-2.90041e-43
-1.51149e-40
-8.7492e-39
-8.16147e-38
5.33273e-37
1.00645e-35
6.48511e-35
3.53239e-34
3.16176e-33
1.71111e-32
5.56797e-32
9.2606e-32
-4.8756e-32
-8.29299e-31
-3.14822e-30
-8.25087e-30
-1.51847e-29
-1.52981e-29
9.549e-30
7.85131e-29
1.97393e-28
3.48754e-28
4.90109e-28
5.70621e-28
5.6333e-28
4.8098e-28
3.61397e-28
2.41759e-28
1.43521e-28
7.21997e-29
2.44769e-29
-5.1862e-30
-2.14898e-29
-2.80402e-29
-2.79401e-29
-2.40143e-29
-1.85916e-29
-1.3257e-29
-8.83006e-30
-5.54829e-30
-3.31259e-30
-1.88935e-30
-1.03347e-30
-5.43692e-31
-2.36491e-31
5.60016e-68
9.98917e-57
-8.36767e-51
1.60119e-46
-1.87663e-45
-9.91755e-43
-2.55245e-39
-1.49329e-37
-1.23054e-36
8.6468e-36
1.46388e-34
7.72353e-34
3.01253e-33
2.55548e-32
1.45224e-31
5.18396e-31
1.07153e-30
6.3971e-31
-3.97509e-30
-1.87286e-29
-5.19388e-29
-9.93744e-29
-1.11804e-28
1.41196e-29
3.8498e-28
1.03245e-27
1.8659e-27
2.65577e-27
3.11448e-27
3.08239e-27
2.62779e-27
1.96536e-27
1.30634e-27
7.70861e-28
3.87593e-28
1.35279e-28
-1.90663e-29
-1.02704e-28
-1.3582e-28
-1.35103e-28
-1.15328e-28
-8.84339e-29
-6.23519e-29
-4.10239e-29
-2.54497e-29
-1.49994e-29
-8.44557e-30
-4.56147e-30
-2.36996e-30
-1.05361e-30
1.16818e-65
8.7186e-55
-3.59008e-49
4.27674e-45
-2.66171e-43
8.86692e-41
-4.17569e-38
-2.52121e-36
-1.88072e-35
1.28205e-34
2.06357e-33
9.49058e-33
2.61587e-32
1.90837e-31
1.13203e-30
4.42627e-30
1.05727e-29
1.22356e-29
-1.26005e-29
-1.02847e-28
-3.12061e-28
-6.23721e-28
-7.65467e-28
-1.65329e-28
1.75089e-27
5.15175e-27
9.59655e-27
1.38993e-26
1.64758e-26
1.63898e-26
1.39788e-26
1.04224e-26
6.89131e-27
4.04591e-27
2.03479e-27
7.30417e-28
-5.60604e-29
-4.77308e-28
-6.42678e-28
-6.39311e-28
-5.42554e-28
-4.12295e-28
-2.87519e-28
-1.86884e-28
-1.14465e-28
-6.6594e-29
-3.70159e-29
-1.97402e-29
-1.01294e-29
-4.59649e-30
2.3262e-63
7.13154e-53
-1.40937e-47
1.05766e-43
-1.4237e-41
4.01923e-39
-6.58846e-37
-4.19283e-35
-2.90329e-34
1.73022e-33
2.78218e-32
1.17707e-31
2.44846e-31
1.31335e-30
7.95724e-30
3.45606e-29
9.32407e-29
1.40679e-28
2.63751e-29
-5.02013e-28
-1.77745e-27
-3.74642e-27
-4.9409e-27
-2.28856e-27
7.19509e-27
2.43714e-26
4.72718e-26
7.00795e-26
8.43151e-26
8.45587e-26
7.231e-26
5.38338e-26
3.54525e-26
2.07285e-26
1.04346e-26
3.84813e-27
-7.22345e-29
-2.15293e-27
-2.96772e-27
-2.95817e-27
-2.49854e-27
-1.88275e-27
-1.29898e-27
-8.34175e-28
-5.04428e-28
-2.89668e-28
-1.58937e-28
-8.36876e-29
-4.24126e-29
-1.96166e-29
4.41395e-61
5.45074e-51
-4.89064e-46
2.36341e-42
-5.87917e-40
1.22629e-37
-9.95182e-36
-6.82647e-34
-4.48038e-33
2.09797e-32
3.55434e-31
1.43751e-30
2.55626e-30
8.47088e-30
4.85824e-29
2.43434e-28
7.4656e-28
1.32737e-27
9.65928e-28
-1.97337e-27
-9.49695e-27
-2.14738e-26
-3.01632e-26
-1.95612e-26
2.52254e-26
1.08329e-25
2.21956e-25
3.39337e-25
4.16491e-25
4.22571e-25
3.63209e-25
2.70488e-25
1.77653e-25
1.03543e-25
5.22057e-26
1.9757e-26
6.63389e-28
-9.40295e-27
-1.33582e-26
-1.33725e-26
-1.12547e-26
-8.41517e-27
-5.74566e-27
-3.64554e-27
-2.17624e-27
-1.23336e-27
-6.67936e-28
-3.47229e-28
-1.73798e-28
-8.18136e-29
7.98275e-59
3.85603e-49
-1.36696e-44
4.53377e-41
-2.1213e-38
3.15218e-36
-1.42222e-34
-1.08012e-32
-6.81594e-32
2.21761e-31
4.27077e-30
1.69249e-29
2.90263e-29
5.53692e-29
2.34687e-28
1.49675e-27
5.4311e-27
1.10449e-26
1.15181e-26
-3.80805e-27
-4.67453e-26
-1.17005e-25
-1.74374e-25
-1.38058e-25
6.28096e-26
4.46118e-25
9.86898e-25
1.57184e-24
1.98063e-24
2.04146e-24
1.76863e-24
1.32017e-24
8.65967e-25
5.03632e-25
2.54488e-25
9.87208e-26
7.98384e-27
-3.96493e-26
-5.85341e-26
-5.90011e-26
-4.95481e-26
-3.67863e-26
-2.48627e-26
-1.5586e-26
-9.18367e-27
-5.13567e-27
-2.74465e-27
-1.40852e-27
-6.96257e-28
-3.33082e-28
1.38488e-56
2.47109e-47
-1.95813e-43
6.44949e-40
-7.01271e-37
7.2358e-35
-1.88677e-33
-1.64718e-31
-1.00748e-30
1.88825e-30
4.79105e-29
1.88936e-28
3.36874e-28
4.36697e-28
5.97333e-28
7.36103e-27
3.54657e-26
8.30225e-26
1.05379e-25
3.25069e-26
-2.04449e-25
-6.0282e-25
-9.54572e-25
-8.64305e-25
-1.38181e-26
1.66058e-24
4.11614e-24
6.92936e-24
9.0389e-24
9.51238e-24
8.33383e-24
6.24888e-24
4.1001e-24
2.3819e-24
1.20695e-24
4.79385e-25
5.92852e-26
-1.60814e-25
-2.49323e-25
-2.53811e-25
-2.13007e-25
-1.57151e-25
-1.05166e-25
-6.51321e-26
-3.78716e-26
-2.08916e-26
-1.10155e-26
-5.57967e-27
-2.72374e-27
-1.32218e-27
2.35724e-54
1.36237e-45
1.00132e-41
1.9674e-39
-2.17467e-35
1.51177e-33
-2.24707e-32
-2.39896e-30
-1.42786e-29
9.29586e-30
4.97358e-28
1.97164e-27
3.78109e-27
4.61627e-27
-3.76612e-27
1.95704e-26
2.01136e-25
5.66914e-25
8.33543e-25
5.38252e-25
-7.24275e-25
-2.91402e-24
-4.94371e-24
-4.93421e-24
-1.56064e-24
5.30191e-24
1.58629e-23
2.88687e-23
3.94289e-23
4.26355e-23
3.79195e-23
2.86342e-23
1.88249e-23
1.09357e-23
5.55985e-24
2.25864e-24
3.66995e-25
-6.24294e-25
-1.03057e-24
-1.06332e-24
-8.93371e-25
-6.55527e-25
-4.34462e-25
-2.65794e-25
-1.5246e-25
-8.29334e-26
-4.31287e-26
-2.15579e-26
-1.03915e-26
-5.11084e-27
4.16172e-52
5.46971e-44
1.20071e-39
-2.82438e-37
-6.40578e-34
2.88111e-32
-2.23532e-31
-3.30175e-29
-1.91723e-28
-7.37698e-29
4.7186e-27
1.89466e-26
3.96066e-26
5.68339e-26
-6.96474e-26
-1.2692e-25
9.04437e-25
3.49298e-24
5.91765e-24
5.12583e-24
-1.34313e-24
-1.30559e-23
-2.41862e-23
-2.60149e-23
-1.36007e-23
1.24155e-23
5.49808e-23
1.12493e-22
1.63558e-22
1.83224e-22
1.662e-22
1.26761e-22
8.36562e-23
4.86508e-23
2.48302e-23
1.03062e-23
2.03858e-24
-2.30386e-24
-4.12588e-24
-4.33273e-24
-3.65185e-24
-2.66765e-24
-1.75143e-24
-1.05817e-24
-5.98494e-25
-3.20873e-25
-1.64512e-25
-8.11258e-26
-3.86097e-26
-1.92115e-26
8.34569e-50
5.35265e-44
7.96236e-38
-1.24217e-35
-1.80297e-32
4.9563e-31
-1.45864e-30
-4.23799e-28
-2.41073e-27
-3.00442e-27
4.0124e-26
1.64169e-25
3.77919e-25
6.89165e-25
-5.67569e-25
-2.68134e-24
2.09482e-24
1.89942e-23
3.81726e-23
3.97613e-23
8.16433e-24
-5.30578e-23
-1.11596e-22
-1.27481e-22
-8.55999e-23
3.47037e-24
1.61543e-22
4.03267e-22
6.40747e-22
7.51971e-22
6.99706e-22
5.40855e-22
3.5906e-22
2.0929e-22
1.07278e-22
4.54489e-23
1.0456e-23
-8.00066e-24
-1.59619e-23
-1.71473e-23
-1.4534e-23
-1.05813e-23
-6.88331e-24
-4.10561e-24
-2.28825e-24
-1.20835e-24
-6.10456e-25
-2.9689e-25
-1.39492e-25
-7.01218e-26
2.0212e-47
-3.0495e-40
4.24738e-36
-3.0541e-34
-4.85444e-31
7.4802e-30
5.00313e-30
-4.97796e-27
-2.80174e-26
-5.51351e-26
2.955e-25
1.23464e-24
3.20311e-24
7.67127e-24
-2.17541e-24
-2.82318e-23
-1.50276e-23
8.61833e-23
2.23662e-22
2.71437e-22
1.27008e-22
-1.86819e-22
-4.85165e-22
-5.82844e-22
-4.54637e-22
-1.91918e-22
3.32687e-22
1.29018e-21
2.34736e-21
2.93274e-21
2.82005e-21
2.2182e-21
1.48486e-21
8.68533e-22
4.47283e-22
1.93218e-22
5.0175e-23
-2.57198e-23
-5.95107e-23
-6.58074e-23
-5.62565e-23
-4.08723e-23
-2.63485e-23
-1.5507e-23
-8.50965e-24
-4.42233e-24
-2.19999e-24
-1.0548e-24
-4.89201e-25
-2.48121e-25
5.66092e-45
-4.37339e-38
1.97115e-34
-2.56477e-33
-1.24708e-29
9.20889e-29
3.81457e-28
-5.18168e-26
-2.95739e-25
-7.67101e-25
1.75451e-24
7.34566e-24
2.30824e-23
7.68899e-23
1.58065e-23
-2.2624e-22
-2.76753e-22
2.70224e-22
1.17712e-21
1.67448e-21
1.08136e-21
-4.98273e-22
-1.98983e-21
-2.49624e-21
-2.13644e-21
-1.54634e-21
-9.31447e-23
3.43836e-21
7.92029e-21
1.07999e-20
1.08372e-20
8.71749e-21
5.89998e-21
3.46752e-21
1.79454e-21
7.89613e-22
2.26665e-22
-7.42421e-23
-2.13095e-22
-2.44458e-22
-2.11527e-22
-1.53603e-22
-9.8142e-23
-5.69503e-23
-3.07365e-23
-1.57024e-23
-7.6857e-24
-3.63114e-24
-1.66219e-24
-8.49633e-25
1.66603e-42
-4.46937e-36
8.15389e-33
2.06928e-31
-3.03911e-28
7.00206e-28
7.95401e-27
-4.46043e-25
-2.75691e-24
-8.75929e-24
6.80193e-24
2.29771e-23
1.25806e-22
6.89392e-22
4.30562e-22
-1.47108e-21
-2.68494e-21
-1.20252e-22
5.41225e-21
9.40812e-21
7.44917e-21
-3.3254e-22
-7.74496e-21
-1.00891e-20
-9.06343e-21
-8.57606e-21
-5.92071e-21
5.98137e-21
2.39717e-20
3.72327e-20
3.9519e-20
3.27104e-20
2.24546e-20
1.32769e-20
6.90529e-21
3.09129e-21
9.66272e-22
-1.79327e-22
-7.29628e-22
-8.77081e-22
-7.71656e-22
-5.61128e-22
-3.55374e-22
-2.03117e-22
-1.07654e-22
-5.39869e-23
-2.59718e-23
-1.2085e-23
-5.46003e-24
-2.81014e-24
4.80758e-40
-3.84099e-34
3.01905e-31
1.53894e-29
-6.96486e-27
-5.04412e-27
1.11443e-25
-2.51873e-24
-2.14802e-23
-8.15273e-23
-1.66109e-24
-1.86485e-22
2.52317e-22
5.47934e-21
5.48213e-21
-7.60985e-21
-2.02936e-20
-1.09754e-20
2.02729e-20
4.79893e-20
4.51564e-20
8.01644e-21
-2.90024e-20
-3.90678e-20
-3.51464e-20
-3.92779e-20
-4.17599e-20
-6.31076e-21
6.15892e-20
1.18727e-19
1.35944e-19
1.16693e-19
8.15676e-20
4.85858e-20
2.53867e-20
1.15468e-20
3.887e-21
-2.79986e-22
-2.37424e-21
-3.03118e-21
-2.72746e-21
-1.99094e-21
-1.24986e-21
-7.02611e-22
-3.64958e-22
-1.7932e-22
-8.46793e-23
-3.87857e-23
-1.72974e-23
-8.95899e-24
1.31435e-37
-2.90132e-32
9.92219e-30
6.99462e-28
-1.48301e-25
-3.53743e-25
1.00386e-24
6.32979e-24
-1.20275e-22
-5.5906e-22
-1.87363e-22
-4.42945e-21
-5.35223e-21
3.78506e-20
5.24519e-20
-2.74918e-20
-1.29863e-19
-1.16597e-19
4.73958e-20
2.19078e-19
2.48121e-19
7.97678e-20
-1.06604e-19
-1.48847e-19
-1.2643e-19
-1.56109e-19
-2.11517e-19
-1.24815e-19
1.14067e-19
3.43868e-19
4.37904e-19
3.938e-19
2.81703e-19
1.69274e-19
8.87812e-20
4.09522e-20
1.47261e-20
3.37614e-22
-7.27535e-21
-1.00549e-20
-9.32638e-21
-6.85613e-21
-4.26623e-21
-2.35401e-21
-1.19502e-21
-5.73858e-22
-2.65578e-22
-1.19677e-22
-5.27053e-23
-2.74711e-23
3.34782e-35
-1.94866e-30
2.82932e-28
2.5577e-26
-2.8843e-24
-9.17801e-24
5.90305e-27
4.46191e-22
-1.42078e-22
-1.41655e-21
1.57699e-21
-5.13848e-20
-1.00673e-19
2.17594e-19
4.12849e-19
-2.13138e-20
-7.36501e-19
-9.10664e-19
-9.6522e-20
8.66879e-19
1.24734e-18
5.49163e-19
-3.88212e-19
-5.77397e-19
-4.32913e-19
-5.47847e-19
-8.91252e-19
-7.55823e-19
1.8589e-20
8.77401e-19
1.30831e-18
1.24916e-18
9.2103e-19
5.59271e-19
2.9389e-19
1.37101e-19
5.23501e-20
5.58543e-21
-2.06734e-20
-3.18542e-20
-3.07981e-20
-2.29028e-20
-1.41244e-20
-7.62791e-21
-3.77e-21
-1.76339e-21
-7.98213e-22
-3.5376e-22
-1.53983e-22
-8.08336e-23
7.85546e-33
-1.16015e-28
6.63983e-27
8.03748e-25
-4.9909e-23
-1.73419e-22
-2.37472e-22
7.82994e-21
7.02279e-21
3.33746e-20
8.49209e-20
-4.29786e-19
-1.15967e-18
9.3026e-19
2.76636e-18
6.79503e-19
-4.03295e-18
-6.24872e-18
-2.21063e-18
2.76317e-18
5.69643e-18
3.27968e-18
-1.34105e-18
-2.33396e-18
-1.47091e-18
-1.70922e-18
-3.25226e-18
-3.37998e-18
-1.10433e-18
1.85595e-18
3.57721e-18
3.69236e-18
2.83795e-18
1.74602e-18
9.16003e-19
4.30164e-19
1.73625e-19
3.22809e-20
-5.28873e-20
-9.56479e-20
-9.80018e-20
-7.41952e-20
-4.5343e-20
-2.38699e-20
-1.14233e-20
-5.18046e-21
-2.28815e-21
-9.97416e-22
-4.2988e-22
-2.2774e-22
1.67848e-30
-6.04076e-27
1.08939e-25
2.20448e-23
-7.32383e-22
-2.59357e-21
-6.44736e-21
9.23165e-20
1.0008e-19
7.16392e-19
1.61895e-18
-2.67697e-18
-1.07084e-17
1.6748e-18
1.62091e-17
7.81378e-18
-2.56825e-17
-4.11127e-17
-1.8819e-17
5.62579e-18
2.26809e-17
1.83212e-17
-3.68668e-18
-9.79473e-18
-5.1855e-18
-4.76888e-18
-1.03722e-17
-1.2467e-17
-6.55888e-18
2.74639e-18
8.75743e-18
1.00318e-17
8.20169e-18
5.14082e-18
2.67445e-18
1.25339e-18
5.32624e-19
1.42794e-19
-1.13494e-19
-2.68827e-19
-2.99598e-19
-2.33122e-19
-1.41165e-19
-7.20154e-20
-3.31087e-20
-1.44637e-20
-6.21623e-21
-2.66803e-21
-1.14251e-21
-6.13152e-22
3.21746e-28
-2.68377e-25
1.00432e-25
5.19857e-22
-8.10527e-21
-3.03002e-20
-1.2178e-19
7.517e-19
5.79658e-19
8.74441e-18
2.22462e-17
-1.17827e-17
-8.70963e-17
-1.60742e-17
8.3913e-17
6.97643e-17
-2.71549e-16
-2.94773e-16
-1.26709e-16
-3.25827e-18
6.94895e-17
1.03566e-16
-2.84322e-18
-4.22958e-17
-1.93033e-17
-1.2052e-17
-2.86743e-17
-3.87427e-17
-2.58052e-17
4.42747e-19
1.83169e-17
2.43976e-17
2.20931e-17
1.43116e-17
7.28841e-18
3.34942e-18
1.49057e-18
5.42646e-19
-1.56948e-19
-6.9139e-19
-8.75959e-19
-7.10788e-19
-4.26535e-19
-2.09051e-19
-9.12478e-20
-3.80418e-20
-1.58624e-20
-6.72633e-21
-2.88016e-21
-1.57556e-21
5.41749e-26
-9.7468e-24
-8.43495e-23
9.89194e-21
-3.71235e-20
-2.50729e-19
-1.86893e-18
3.10801e-18
-4.74739e-18
9.94638e-17
2.84849e-16
-9.30416e-17
-8.78499e-16
-1.96989e-16
1.47658e-15
5.64889e-16
-4.68221e-15
-2.44389e-15
-6.72242e-16
-7.91023e-17
1.19424e-15
7.46747e-16
3.96737e-17
-2.06314e-16
-7.49852e-17
-2.81723e-17
-6.66835e-17
-9.97711e-17
-7.83255e-17
-1.33931e-17
2.83231e-17
4.96419e-17
5.46783e-17
3.81916e-17
1.85581e-17
8.04809e-18
3.71109e-18
1.8348e-18
1.77973e-19
-1.55193e-18
-2.43143e-18
-2.10494e-18
-1.25292e-18
-5.82207e-19
-2.3683e-19
-9.2912e-20
-3.75129e-20
-1.5854e-20
-6.86813e-21
-3.86483e-21
7.76053e-24
-2.65703e-22
-4.39359e-21
1.17051e-19
1.0175e-18
-9.5592e-19
-2.28551e-17
-1.02912e-17
-1.79491e-16
4.06267e-15
2.63224e-15
-1.09972e-14
-9.89168e-15
3.26816e-14
3.95211e-14
-8.02434e-15
-1.89852e-14
-8.03558e-15
1.57914e-14
5.75466e-14
3.37649e-14
4.1776e-15
-4.92646e-16
-2.6907e-15
-3.4958e-16
-6.05799e-17
-1.19746e-16
-2.00657e-16
-1.83207e-16
-4.6548e-17
1.16292e-17
6.30804e-17
1.18456e-16
1.01969e-16
4.47174e-17
1.66933e-17
7.76693e-18
5.55121e-18
2.51821e-18
-2.66594e-18
-6.32317e-18
-6.06032e-18
-3.58979e-18
-1.54799e-18
-5.68426e-19
-2.05087e-19
-8.04138e-20
-3.46237e-20
-1.5501e-20
-9.07499e-21
8.96746e-22
-4.17514e-21
-1.50056e-19
-1.15811e-18
4.02527e-17
6.50907e-18
-1.69476e-16
-3.62093e-15
4.98293e-15
3.0191e-14
-9.13736e-14
-2.88954e-13
-5.19951e-14
9.38773e-13
3.85367e-13
-5.07556e-12
2.92767e-12
5.67086e-12
3.77737e-12
1.12282e-12
1.50038e-13
-1.90367e-13
-2.38135e-13
-2.44555e-14
-4.23389e-15
-5.21733e-16
-2.44793e-16
-3.2308e-16
-3.12271e-16
-1.03141e-16
-4.95142e-16
-1.43842e-16
1.96461e-16
3.16157e-16
1.0594e-16
2.63074e-17
1.13116e-17
1.47507e-17
1.24202e-17
-1.40099e-18
-1.5008e-17
-1.6959e-17
-1.01037e-17
-3.89253e-18
-1.21059e-18
-3.84113e-19
-1.4986e-19
-6.96148e-20
-3.34062e-20
-2.05272e-20
7.52761e-20
4.24493e-20
-3.12967e-18
-1.45565e-16
2.86036e-15
-7.79092e-15
-2.47479e-15
-4.75882e-14
5.18663e-13
-1.3732e-13
-3.76806e-12
-3.20668e-12
3.24471e-11
8.57132e-12
-4.66325e-11
-2.97069e-11
6.51444e-11
5.45899e-11
1.72878e-11
3.28219e-12
-2.00019e-12
-7.50804e-12
-1.50294e-12
-3.13818e-14
-9.39742e-14
-1.17073e-13
-1.99279e-13
-1.33414e-14
-1.18737e-15
-2.15429e-14
-1.95274e-14
-1.76572e-15
1.06101e-15
2.13583e-15
2.52185e-16
8.81901e-18
-2.47424e-18
3.25199e-17
4.39189e-17
1.50052e-17
-3.05514e-17
-4.58105e-17
-2.8426e-17
-9.07485e-18
-2.01646e-18
-4.89571e-19
-2.20369e-19
-1.30246e-19
-7.05575e-20
-4.5145e-20
8.33014e-18
7.99298e-18
-6.61122e-16
-1.56836e-15
2.34836e-14
-7.87509e-14
-3.14468e-13
1.90927e-12
5.47345e-12
-4.20304e-11
-3.66655e-11
1.62481e-10
1.84799e-10
-3.75052e-10
-7.83273e-10
3.91808e-11
1.91854e-10
1.3731e-10
-6.93236e-10
-4.7781e-10
-3.58381e-10
-5.6866e-11
-6.28628e-13
-3.76035e-12
-8.75652e-13
-6.04725e-12
-7.67284e-12
-2.16594e-12
-1.20539e-12
-7.59058e-13
-1.02921e-13
2.61604e-14
1.36906e-13
1.49801e-14
9.48224e-18
-1.86257e-16
-1.03829e-16
5.13406e-17
1.1477e-16
9.75355e-17
-4.27522e-17
-1.15119e-16
-8.36279e-17
-1.86452e-17
-9.70749e-19
2.53629e-19
-1.79342e-19
-2.44132e-19
-1.53427e-19
-9.71499e-20
9.7657e-15
-1.90786e-14
-5.52348e-14
6.12815e-13
-1.60387e-12
-5.53768e-13
-3.91248e-12
5.11284e-11
-6.60789e-11
-3.28e-10
8.1562e-10
2.47664e-09
-1.36912e-09
-7.90173e-09
-5.159e-09
3.4849e-08
-1.92769e-09
-7.53146e-08
-6.53291e-08
-3.00577e-08
-7.40645e-09
-1.66945e-10
5.5933e-12
-1.55631e-11
-4.97585e-12
-2.701e-11
-2.8677e-11
-2.51434e-11
-1.62883e-11
-3.06772e-12
1.4171e-12
6.16501e-12
1.17855e-12
-1.64647e-18
-7.47552e-16
-1.09552e-15
-5.2817e-16
3.68964e-17
2.48075e-16
5.93362e-16
3.24183e-17
-2.57757e-16
-2.92505e-16
-2.74916e-17
1.29983e-17
4.62308e-18
1.51439e-19
-5.55651e-19
-3.61296e-19
-2.02023e-19
7.25326e-14
-1.53258e-13
-1.43904e-14
4.08922e-12
-1.56895e-11
-9.24261e-12
3.04991e-10
4.7761e-10
-4.11561e-09
-9.61753e-11
1.98214e-08
2.05727e-08
-1.78767e-07
-7.69441e-08
2.6417e-07
2.88923e-07
-1.43336e-07
-4.76903e-07
-3.06514e-07
-1.33677e-07
-2.33294e-08
2.14521e-09
1.64596e-09
2.25258e-10
-4.14147e-12
-4.22391e-11
-3.5622e-11
-7.77182e-11
-4.50374e-11
4.53566e-11
1.03938e-10
4.49099e-11
2.60648e-12
-1.74805e-14
-1.81039e-14
-7.85436e-15
-2.14363e-15
3.58507e-16
1.12535e-14
7.55267e-15
6.18587e-16
-4.90369e-15
-1.59638e-15
3.73795e-17
9.27023e-17
1.95985e-17
7.64878e-20
-1.74453e-18
-9.13654e-19
-3.80699e-19
-1.04223e-11
3.46762e-12
4.67489e-11
-1.4596e-10
-8.26748e-11
1.32085e-10
3.79165e-09
-1.53956e-08
-3.0806e-08
9.56224e-08
1.66122e-07
-6.00936e-07
-9.08533e-07
1.0023e-06
3.86134e-06
1.03028e-06
-8.82057e-07
-9.11046e-07
-4.73656e-07
-2.29665e-07
-3.51453e-08
2.79219e-05
5.10511e-05
2.40316e-05
1.60308e-08
1.26807e-08
4.901e-09
2.14602e-10
6.39866e-10
1.72207e-09
9.47469e-10
1.4045e-10
-1.38642e-13
-7.2394e-14
-7.16205e-14
-5.55288e-14
-1.10043e-14
2.647e-13
2.28395e-13
3.70161e-14
-1.32127e-13
-6.50558e-14
-6.15096e-15
1.75896e-15
4.9568e-16
4.63495e-17
-7.85104e-18
-6.26166e-18
-2.2426e-18
-5.14299e-19
-7.34879e-11
7.54192e-11
2.87032e-10
-1.58148e-09
4.97635e-10
1.55102e-08
-1.2781e-09
-1.96958e-07
2.51461e-07
8.86858e-07
1.15264e-07
-5.44174e-06
9.13889e-07
1.90763e-05
1.76636e-05
-0.000130454
-0.000367752
0.000467605
0.0044549
0.0127597
0.0238785
0.0336806
0.0376765
0.0348527
0.0263044
0.0155644
0.00660757
0.00149513
1.04817e-05
2.04722e-08
5.50091e-09
2.21217e-10
-1.12583e-13
7.81222e-12
3.21184e-13
-3.09317e-13
5.16444e-12
4.73422e-12
9.44812e-13
-2.41179e-12
-1.66913e-12
-2.26997e-13
2.7873e-14
1.54024e-14
1.49693e-15
-6.43515e-17
-6.0021e-17
-1.97577e-17
-4.33863e-18
2.39126e-19
2.05592e-09
2.66351e-09
-7.52646e-09
-7.63457e-09
4.36842e-08
1.15362e-07
-5.30442e-07
-6.54792e-07
3.38341e-06
4.03297e-06
-1.90754e-05
-2.6802e-05
0.000169387
0.000350677
-0.000757597
-0.00383968
-0.00534532
0.00297049
0.0307555
0.0795847
0.138371
0.187038
0.20604
0.194386
0.157802
0.108821
0.0622549
0.0279169
0.00827871
0.00077761
7.62129e-08
3.93025e-13
9.66345e-10
3.48422e-10
4.4613e-11
8.32213e-11
7.60995e-11
1.80541e-11
-3.53932e-11
-3.29317e-11
-6.06962e-12
2.49418e-13
3.08314e-13
5.26951e-14
-7.69397e-16
-9.83814e-16
-2.32498e-16
-4.02731e-17
-2.49286e-18
5.09823e-18
2.17962e-08
3.19273e-09
-7.14076e-08
6.64741e-08
4.57562e-07
-9.47123e-07
-4.0792e-06
1.59514e-05
3.72595e-05
-9.66656e-05
-0.000318805
0.000158421
0.0016654
0.00171903
-0.00394494
-0.0152894
-0.0196306
0.00378966
0.0756128
0.197289
0.342145
0.464727
0.519816
0.502046
0.425662
0.314701
0.200717
0.107943
0.0464917
0.0139395
0.0015471
8.38134e-08
1.37135e-08
1.10843e-09
1.01043e-09
8.76418e-10
2.57775e-10
-3.33059e-10
-6.01874e-10
-1.51054e-10
-3.83607e-12
6.67257e-12
1.80538e-12
5.70024e-14
-2.35003e-14
-5.92133e-15
-3.86366e-16
1.2752e-18
2.3864e-17
2.19142e-17
2.45383e-07
-1.08072e-06
-3.08958e-07
9.13141e-06
-3.35601e-06
-5.39535e-05
1.92735e-06
0.000244461
0.000180717
-0.000727249
-0.00135101
0.000706513
0.00520193
0.00522986
-0.00717234
-0.0306489
-0.0417991
-0.00740939
0.101831
0.28801
0.517968
0.728539
0.850421
0.850794
0.760362
0.601167
0.417721
0.251757
0.128017
0.0517203
0.014037
0.00111712
4.73785e-08
1.75593e-09
3.84839e-09
2.42524e-09
-3.44005e-09
-9.86204e-09
-3.13062e-09
-2.62729e-10
1.17596e-10
4.67489e-11
4.0608e-12
-4.23832e-13
-1.67597e-13
-1.36635e-14
6.1989e-16
2.83048e-16
1.088e-16
5.90355e-17
-8.8774e-07
-1.05405e-05
9.93067e-06
5.63885e-05
-3.84486e-05
-0.000233248
1.83496e-05
0.000768401
0.000557639
-0.00168626
-0.00320909
0.000695541
0.00942215
0.0115952
-0.00436997
-0.0368713
-0.0586587
-0.0329209
0.0737679
0.269399
0.523189
0.77839
0.971723
1.03707
0.985333
0.841118
0.635289
0.421556
0.241188
0.114458
0.0413773
0.0085955
0.00014717
2.23568e-09
-1.72422e-08
-1.87573e-07
-1.78367e-07
-6.18295e-08
-6.06819e-09
1.73887e-09
8.46657e-10
1.10631e-10
-5.65426e-12
-2.99086e-12
-3.99439e-13
7.03475e-15
3.22393e-15
7.74332e-16
2.20055e-16
1.02655e-16
-2.91209e-06
-2.19698e-05
2.16448e-05
0.000110825
-4.63012e-05
-0.000396663
-8.54241e-05
0.00110265
0.00109447
-0.00189093
-0.00481778
-0.00115866
0.0102091
0.01778
0.00728364
-0.024162
-0.0559877
-0.0539571
0.0041506
0.132945
0.326535
0.558339
0.784231
0.945083
0.979524
0.902394
0.739056
0.531934
0.334279
0.177158
0.0747623
0.0215607
0.00204368
-2.10542e-06
-3.31916e-06
-2.50158e-06
-9.94081e-07
-1.45214e-07
1.81389e-08
1.15023e-08
2.35657e-09
-2.32328e-11
-4.0491e-11
-1.00845e-11
-1.54836e-13
3.99746e-14
1.13547e-14
1.02678e-15
2.17295e-16
1.0723e-16
1.39246e-06
-1.55254e-05
-8.66465e-06
7.78055e-05
5.18196e-05
-0.000269544
-0.000294754
0.00065177
0.00141591
-0.000490969
-0.00452047
-0.004409
0.00433393
0.016496
0.0168911
-0.000642363
-0.0302556
-0.0513547
-0.0450871
-0.00158494
0.0906406
0.236339
0.42217
0.607459
0.730872
0.741428
0.665204
0.51921
0.346783
0.19677
0.0911739
0.030834
0.00490834
-1.59447e-05
-1.63451e-05
-9.24005e-06
-2.29377e-06
1.55717e-08
1.07569e-07
3.60194e-08
2.52723e-09
-3.982e-10
-1.74812e-10
-1.77829e-11
3.64041e-13
1.63807e-13
2.0386e-14
7.91148e-17
5.79269e-17
5.44342e-17
3.69845e-06
-8.82341e-06
-2.89132e-05
4.29243e-05
0.000133052
-9.14915e-05
-0.000493482
-0.000104318
0.00132722
0.00153481
-0.00136856
-0.00505856
-0.00381396
0.00395357
0.0122437
0.0118014
0.000114312
-0.0204391
-0.0429928
-0.0550484
-0.0422541
0.0140104
0.12044
0.257449
0.379393
0.431363
0.410663
0.33738
0.237685
0.141638
0.0692474
0.0256166
0.00501721
-3.1669e-05
-4.29551e-05
-1.63932e-05
-1.30428e-06
9.95015e-07
4.27993e-07
5.61961e-08
-3.84404e-09
-1.97101e-09
-3.45596e-10
3.33586e-12
1.69315e-12
3.27063e-13
1.60656e-15
-1.94761e-17
3.15101e-18
2.11733e-17
3.89417e-06
6.15657e-06
-3.05355e-05
-3.68032e-05
0.00010096
0.000175991
-0.00016701
-0.000595906
-0.000163238
0.0011743
0.00166236
-9.90253e-05
-0.00326135
-0.00455959
-0.0016481
0.00531559
0.0120027
0.0108157
-0.00431166
-0.0324889
-0.0594136
-0.063128
-0.0353508
0.0209594
0.0841539
0.122846
0.122842
0.100347
0.0669277
0.0360684
0.0148359
0.00388728
-0.000380908
-0.00023971
-6.87744e-05
1.05495e-05
1.25484e-05
4.83591e-06
6.73057e-07
-3.21464e-08
-1.75563e-08
-4.23541e-09
-1.53626e-10
8.06476e-12
3.56616e-12
3.4367e-13
-3.23997e-17
1.32034e-17
2.78631e-17
4.4119e-17
-6.35079e-07
7.65095e-06
5.69119e-06
-3.4162e-05
-3.95795e-05
7.33635e-05
0.000174453
-1.14167e-05
-0.000448875
-0.000504782
0.000327664
0.00157578
0.00150483
-0.000969318
-0.00437819
-0.00443342
0.00127881
0.0104834
0.0147003
0.0080846
-0.00926113
-0.0298241
-0.0438847
-0.0478629
-0.0458097
-0.0426488
-0.0428844
-0.0421438
-0.03791
-0.0298785
-0.0197699
-0.0103518
-0.00373449
-0.000696337
0.000173614
0.000137618
5.34267e-05
8.6287e-06
-1.91465e-07
-1.1089e-07
-3.44399e-08
-3.64188e-09
3.87081e-11
1.93048e-11
4.21731e-12
6.11183e-14
1.49954e-16
1.35601e-16
1.15444e-16
1.30138e-16
-4.69562e-07
-2.89233e-06
3.6482e-06
1.59259e-05
-7.40519e-06
-5.84787e-05
-2.03732e-05
0.000148124
0.000186881
-0.000147218
-0.000581663
-0.000391082
0.000656051
0.00155602
0.000930668
-0.00135624
-0.00337327
-0.00254928
0.00184376
0.00808968
0.0125205
0.0120279
0.00525225
-0.00747949
-0.023688
-0.0385715
-0.0452162
-0.0434176
-0.0352706
-0.0236841
-0.0122418
-0.00414683
1.60555e-05
0.00114699
0.00083309
0.00035761
8.24929e-05
1.89322e-06
-3.26352e-07
-1.715e-07
-3.64956e-08
-2.04579e-10
5.51967e-11
1.6998e-11
1.61109e-12
9.1199e-15
1.52951e-15
5.65095e-16
2.97757e-16
2.74033e-16
6.02311e-07
4.60446e-07
-4.31675e-06
-3.19047e-06
1.56644e-05
1.85787e-05
-3.34822e-05
-7.67745e-05
1.55798e-05
0.000195914
0.000167134
-0.000215299
-0.000556102
-0.000290798
0.000601652
0.00120793
0.00059989
-0.00132239
-0.00335246
-0.00344017
-0.000660344
0.0044451
0.00937022
0.0112298
0.00965144
0.00595886
0.00404375
0.00519554
0.00794402
0.0101615
0.0106273
0.00905417
0.0062038
0.00345573
0.00153832
0.000484636
5.67827e-05
-4.83007e-07
-3.42906e-07
-1.27227e-07
-1.5881e-08
-5.27072e-11
-2.95849e-11
-9.01236e-12
-3.98391e-13
4.43651e-14
1.28081e-14
1.39252e-15
4.79509e-16
4.13968e-16
-1.88728e-07
-8.44719e-08
1.45458e-06
3.57253e-07
-5.87435e-06
-3.11255e-06
1.75627e-05
1.93056e-05
-3.06979e-05
-7.54522e-05
-4.19398e-06
0.000163385
0.000182086
-9.4127e-05
-0.000436121
-0.00033447
0.00033312
0.000948636
0.000694599
-0.00055084
-0.00204322
-0.0028565
-0.00271072
-0.00175801
0.000124165
0.00340972
0.00753673
0.0119336
0.0150063
0.0151595
0.0130457
0.0095836
0.006018
0.0031683
0.00133422
0.000385499
3.46764e-05
-3.10165e-08
-2.99093e-08
-8.76201e-09
2.76201e-10