/*--------------------------------*- C++ -*----------------------------------*\
| =========                 |                                                 |
| \\      /  F ield         | OpenFOAM: The Open Source CFD Toolbox           |
|  \\    /   O peration     | Version:  v2006                                 |
|   \\  /    A nd           | Website:  www.openfoam.com                      |
|    \\/     M anipulation  |                                                 |
\*---------------------------------------------------------------------------*/
FoamFile
{
    version     2.0;
    format      ascii;
    class       volVectorField;
    location    "0";
    object      U_new;
}
// * * * * * * * * * * * * * * * * * * * * * * * * * * * * * * * * * * * * * //

dimensions      [0 1 -1 0 0 0 0];


internalField   nonuniform List<vector> 
2500
(
(0.000568 -0.040328 0)
(0.000568 -0.120984 0)
(0.000568 -0.20164 0)
(0.000568 -0.282296 0)
(0.000568 -0.362952 0)
(0.000568 -0.443608 0)
(0.000568 -0.524264 0)
(0.000568 -0.60492 0)
(0.000568 -0.685576 0)
(0.000568 -0.766232 0)
(0.000568 -0.846888 0)
(0.000568 -0.927544 0)
(0.000568 -1.0082 0)
(0.000568 -1.08886 0)
(0.000568 -1.16951 0)
(0.000568 -1.25017 0)
(0.000568 -1.33082 0)
(0.000568 -1.41148 0)
(0.000568 -1.49214 0)
(0.000568 -1.57279 0)
(0.000568 -1.65345 0)
(0.000568 -1.7341 0)
(0.000568 -1.81476 0)
(0.000568 -1.89542 0)
(0.000568 -1.97607 0)
(0.000568 -2.05673 0)
(0.000568 -2.13738 0)
(0.000568 -2.21804 0)
(0.000568 -2.2987 0)
(0.000568 -2.37935 0)
(0.000568 -2.46001 0)
(0.000568 -2.54066 0)
(0.000568 -2.62132 0)
(0.000568 -2.70198 0)
(0.000568 -2.78263 0)
(0.000568 -2.86329 0)
(0.000568 -2.94394 0)
(0.000568 -3.0246 0)
(0.000568 -3.10526 0)
(0.000568 -3.18591 0)
(0.000568 -3.26657 0)
(0.000568 -3.34722 0)
(0.000568 -3.42788 0)
(0.000568 -3.50854 0)
(0.000568 -3.58919 0)
(0.000568 -3.66985 0)
(0.000568 -3.7505 0)
(0.000568 -3.83116 0)
(0.000568 -3.91182 0)
(0.000568 -3.99247 0)
(0.005112 -0.040328 0)
(0.005112 -0.120984 0)
(0.005112 -0.20164 0)
(0.005112 -0.282296 0)
(0.005112 -0.362952 0)
(0.005112 -0.443608 0)
(0.005112 -0.524264 0)
(0.005112 -0.60492 0)
(0.005112 -0.685576 0)
(0.005112 -0.766232 0)
(0.005112 -0.846888 0)
(0.005112 -0.927544 0)
(0.005112 -1.0082 0)
(0.005112 -1.08886 0)
(0.005112 -1.16951 0)
(0.005112 -1.25017 0)
(0.005112 -1.33082 0)
(0.005112 -1.41148 0)
(0.005112 -1.49214 0)
(0.005112 -1.57279 0)
(0.005112 -1.65345 0)
(0.005112 -1.7341 0)
(0.005112 -1.81476 0)
(0.005112 -1.89542 0)
(0.005112 -1.97607 0)
(0.005112 -2.05673 0)
(0.005112 -2.13738 0)
(0.005112 -2.21804 0)
(0.005112 -2.2987 0)
(0.005112 -2.37935 0)
(0.005112 -2.46001 0)
(0.005112 -2.54066 0)
(0.005112 -2.62132 0)
(0.005112 -2.70198 0)
(0.005112 -2.78263 0)
(0.005112 -2.86329 0)
(0.005112 -2.94394 0)
(0.005112 -3.0246 0)
(0.005112 -3.10526 0)
(0.005112 -3.18591 0)
(0.005112 -3.26657 0)
(0.005112 -3.34722 0)
(0.005112 -3.42788 0)
(0.005112 -3.50854 0)
(0.005112 -3.58919 0)
(0.005112 -3.66985 0)
(0.005112 -3.7505 0)
(0.005112 -3.83116 0)
(0.005112 -3.91182 0)
(0.005112 -3.99247 0)
(0.0142 -0.040328 0)
(0.0142 -0.120984 0)
(0.0142 -0.20164 0)
(0.0142 -0.282296 0)
(0.0142 -0.362952 0)
(0.0142 -0.443608 0)
(0.0142 -0.524264 0)
(0.0142 -0.60492 0)
(0.0142 -0.685576 0)
(0.0142 -0.766232 0)
(0.0142 -0.846888 0)
(0.0142 -0.927544 0)
(0.0142 -1.0082 0)
(0.0142 -1.08886 0)
(0.0142 -1.16951 0)
(0.0142 -1.25017 0)
(0.0142 -1.33082 0)
(0.0142 -1.41148 0)
(0.0142 -1.49214 0)
(0.0142 -1.57279 0)
(0.0142 -1.65345 0)
(0.0142 -1.7341 0)
(0.0142 -1.81476 0)
(0.0142 -1.89542 0)
(0.0142 -1.97607 0)
(0.0142 -2.05673 0)
(0.0142 -2.13738 0)
(0.0142 -2.21804 0)
(0.0142 -2.2987 0)
(0.0142 -2.37935 0)
(0.0142 -2.46001 0)
(0.0142 -2.54066 0)
(0.0142 -2.62132 0)
(0.0142 -2.70198 0)
(0.0142 -2.78263 0)
(0.0142 -2.86329 0)
(0.0142 -2.94394 0)
(0.0142 -3.0246 0)
(0.0142 -3.10526 0)
(0.0142 -3.18591 0)
(0.0142 -3.26657 0)
(0.0142 -3.34722 0)
(0.0142 -3.42788 0)
(0.0142 -3.50854 0)
(0.0142 -3.58919 0)
(0.0142 -3.66985 0)
(0.0142 -3.7505 0)
(0.0142 -3.83116 0)
(0.0142 -3.91182 0)
(0.0142 -3.99247 0)
(0.027832 -0.040328 0)
(0.027832 -0.120984 0)
(0.027832 -0.20164 0)
(0.027832 -0.282296 0)
(0.027832 -0.362952 0)
(0.027832 -0.443608 0)
(0.027832 -0.524264 0)
(0.027832 -0.60492 0)
(0.027832 -0.685576 0)
(0.027832 -0.766232 0)
(0.027832 -0.846888 0)
(0.027832 -0.927544 0)
(0.027832 -1.0082 0)
(0.027832 -1.08886 0)
(0.027832 -1.16951 0)
(0.027832 -1.25017 0)
(0.027832 -1.33082 0)
(0.027832 -1.41148 0)
(0.027832 -1.49214 0)
(0.027832 -1.57279 0)
(0.027832 -1.65345 0)
(0.027832 -1.7341 0)
(0.027832 -1.81476 0)
(0.027832 -1.89542 0)
(0.027832 -1.97607 0)
(0.027832 -2.05673 0)
(0.027832 -2.13738 0)
(0.027832 -2.21804 0)
(0.027832 -2.2987 0)
(0.027832 -2.37935 0)
(0.027832 -2.46001 0)
(0.027832 -2.54066 0)
(0.027832 -2.62132 0)
(0.027832 -2.70198 0)
(0.027832 -2.78263 0)
(0.027832 -2.86329 0)
(0.027832 -2.94394 0)
(0.027832 -3.0246 0)
(0.027832 -3.10526 0)
(0.027832 -3.18591 0)
(0.027832 -3.26657 0)
(0.027832 -3.34722 0)
(0.027832 -3.42788 0)
(0.027832 -3.50854 0)
(0.027832 -3.58919 0)
(0.027832 -3.66985 0)
(0.027832 -3.7505 0)
(0.027832 -3.83116 0)
(0.027832 -3.91182 0)
(0.027832 -3.99247 0)
(0.046008 -0.040328 0)
(0.046008 -0.120984 0)
(0.046008 -0.20164 0)
(0.046008 -0.282296 0)
(0.046008 -0.362952 0)
(0.046008 -0.443608 0)
(0.046008 -0.524264 0)
(0.046008 -0.60492 0)
(0.046008 -0.685576 0)
(0.046008 -0.766232 0)
(0.046008 -0.846888 0)
(0.046008 -0.927544 0)
(0.046008 -1.0082 0)
(0.046008 -1.08886 0)
(0.046008 -1.16951 0)
(0.046008 -1.25017 0)
(0.046008 -1.33082 0)
(0.046008 -1.41148 0)
(0.046008 -1.49214 0)
(0.046008 -1.57279 0)
(0.046008 -1.65345 0)
(0.046008 -1.7341 0)
(0.046008 -1.81476 0)
(0.046008 -1.89542 0)
(0.046008 -1.97607 0)
(0.046008 -2.05673 0)
(0.046008 -2.13738 0)
(0.046008 -2.21804 0)
(0.046008 -2.2987 0)
(0.046008 -2.37935 0)
(0.046008 -2.46001 0)
(0.046008 -2.54066 0)
(0.046008 -2.62132 0)
(0.046008 -2.70198 0)
(0.046008 -2.78263 0)
(0.046008 -2.86329 0)
(0.046008 -2.94394 0)
(0.046008 -3.0246 0)
(0.046008 -3.10526 0)
(0.046008 -3.18591 0)
(0.046008 -3.26657 0)
(0.046008 -3.34722 0)
(0.046008 -3.42788 0)
(0.046008 -3.50854 0)
(0.046008 -3.58919 0)
(0.046008 -3.66985 0)
(0.046008 -3.7505 0)
(0.046008 -3.83116 0)
(0.046008 -3.91182 0)
(0.046008 -3.99247 0)
(0.068728 -0.040328 0)
(0.068728 -0.120984 0)
(0.068728 -0.20164 0)
(0.068728 -0.282296 0)
(0.068728 -0.362952 0)
(0.068728 -0.443608 0)
(0.068728 -0.524264 0)
(0.068728 -0.60492 0)
(0.068728 -0.685576 0)
(0.068728 -0.766232 0)
(0.068728 -0.846888 0)
(0.068728 -0.927544 0)
(0.068728 -1.0082 0)
(0.068728 -1.08886 0)
(0.068728 -1.16951 0)
(0.068728 -1.25017 0)
(0.068728 -1.33082 0)
(0.068728 -1.41148 0)
(0.068728 -1.49214 0)
(0.068728 -1.57279 0)
(0.068728 -1.65345 0)
(0.068728 -1.7341 0)
(0.068728 -1.81476 0)
(0.068728 -1.89542 0)
(0.068728 -1.97607 0)
(0.068728 -2.05673 0)
(0.068728 -2.13738 0)
(0.068728 -2.21804 0)
(0.068728 -2.2987 0)
(0.068728 -2.37935 0)
(0.068728 -2.46001 0)
(0.068728 -2.54066 0)
(0.068728 -2.62132 0)
(0.068728 -2.70198 0)
(0.068728 -2.78263 0)
(0.068728 -2.86329 0)
(0.068728 -2.94394 0)
(0.068728 -3.0246 0)
(0.068728 -3.10526 0)
(0.068728 -3.18591 0)
(0.068728 -3.26657 0)
(0.068728 -3.34722 0)
(0.068728 -3.42788 0)
(0.068728 -3.50854 0)
(0.068728 -3.58919 0)
(0.068728 -3.66985 0)
(0.068728 -3.7505 0)
(0.068728 -3.83116 0)
(0.068728 -3.91182 0)
(0.068728 -3.99247 0)
(0.095992 -0.040328 0)
(0.095992 -0.120984 0)
(0.095992 -0.20164 0)
(0.095992 -0.282296 0)
(0.095992 -0.362952 0)
(0.095992 -0.443608 0)
(0.095992 -0.524264 0)
(0.095992 -0.60492 0)
(0.095992 -0.685576 0)
(0.095992 -0.766232 0)
(0.095992 -0.846888 0)
(0.095992 -0.927544 0)
(0.095992 -1.0082 0)
(0.095992 -1.08886 0)
(0.095992 -1.16951 0)
(0.095992 -1.25017 0)
(0.095992 -1.33082 0)
(0.095992 -1.41148 0)
(0.095992 -1.49214 0)
(0.095992 -1.57279 0)
(0.095992 -1.65345 0)
(0.095992 -1.7341 0)
(0.095992 -1.81476 0)
(0.095992 -1.89542 0)
(0.095992 -1.97607 0)
(0.095992 -2.05673 0)
(0.095992 -2.13738 0)
(0.095992 -2.21804 0)
(0.095992 -2.2987 0)
(0.095992 -2.37935 0)
(0.095992 -2.46001 0)
(0.095992 -2.54066 0)
(0.095992 -2.62132 0)
(0.095992 -2.70198 0)
(0.095992 -2.78263 0)
(0.095992 -2.86329 0)
(0.095992 -2.94394 0)
(0.095992 -3.0246 0)
(0.095992 -3.10526 0)
(0.095992 -3.18591 0)
(0.095992 -3.26657 0)
(0.095992 -3.34722 0)
(0.095992 -3.42788 0)
(0.095992 -3.50854 0)
(0.095992 -3.58919 0)
(0.095992 -3.66985 0)
(0.095992 -3.7505 0)
(0.095992 -3.83116 0)
(0.095992 -3.91182 0)
(0.095992 -3.99247 0)
(0.1278 -0.040328 0)
(0.1278 -0.120984 0)
(0.1278 -0.20164 0)
(0.1278 -0.282296 0)
(0.1278 -0.362952 0)
(0.1278 -0.443608 0)
(0.1278 -0.524264 0)
(0.1278 -0.60492 0)
(0.1278 -0.685576 0)
(0.1278 -0.766232 0)
(0.1278 -0.846888 0)
(0.1278 -0.927544 0)
(0.1278 -1.0082 0)
(0.1278 -1.08886 0)
(0.1278 -1.16951 0)
(0.1278 -1.25017 0)
(0.1278 -1.33082 0)
(0.1278 -1.41148 0)
(0.1278 -1.49214 0)
(0.1278 -1.57279 0)
(0.1278 -1.65345 0)
(0.1278 -1.7341 0)
(0.1278 -1.81476 0)
(0.1278 -1.89542 0)
(0.1278 -1.97607 0)
(0.1278 -2.05673 0)
(0.1278 -2.13738 0)
(0.1278 -2.21804 0)
(0.1278 -2.2987 0)
(0.1278 -2.37935 0)
(0.1278 -2.46001 0)
(0.1278 -2.54066 0)
(0.1278 -2.62132 0)
(0.1278 -2.70198 0)
(0.1278 -2.78263 0)
(0.1278 -2.86329 0)
(0.1278 -2.94394 0)
(0.1278 -3.0246 0)
(0.1278 -3.10526 0)
(0.1278 -3.18591 0)
(0.1278 -3.26657 0)
(0.1278 -3.34722 0)
(0.1278 -3.42788 0)
(0.1278 -3.50854 0)
(0.1278 -3.58919 0)
(0.1278 -3.66985 0)
(0.1278 -3.7505 0)
(0.1278 -3.83116 0)
(0.1278 -3.91182 0)
(0.1278 -3.99247 0)
(0.164152 -0.040328 0)
(0.164152 -0.120984 0)
(0.164152 -0.20164 0)
(0.164152 -0.282296 0)
(0.164152 -0.362952 0)
(0.164152 -0.443608 0)
(0.164152 -0.524264 0)
(0.164152 -0.60492 0)
(0.164152 -0.685576 0)
(0.164152 -0.766232 0)
(0.164152 -0.846888 0)
(0.164152 -0.927544 0)
(0.164152 -1.0082 0)
(0.164152 -1.08886 0)
(0.164152 -1.16951 0)
(0.164152 -1.25017 0)
(0.164152 -1.33082 0)
(0.164152 -1.41148 0)
(0.164152 -1.49214 0)
(0.164152 -1.57279 0)
(0.164152 -1.65345 0)
(0.164152 -1.7341 0)
(0.164152 -1.81476 0)
(0.164152 -1.89542 0)
(0.164152 -1.97607 0)
(0.164152 -2.05673 0)
(0.164152 -2.13738 0)
(0.164152 -2.21804 0)
(0.164152 -2.2987 0)
(0.164152 -2.37935 0)
(0.164152 -2.46001 0)
(0.164152 -2.54066 0)
(0.164152 -2.62132 0)
(0.164152 -2.70198 0)
(0.164152 -2.78263 0)
(0.164152 -2.86329 0)
(0.164152 -2.94394 0)
(0.164152 -3.0246 0)
(0.164152 -3.10526 0)
(0.164152 -3.18591 0)
(0.164152 -3.26657 0)
(0.164152 -3.34722 0)
(0.164152 -3.42788 0)
(0.164152 -3.50854 0)
(0.164152 -3.58919 0)
(0.164152 -3.66985 0)
(0.164152 -3.7505 0)
(0.164152 -3.83116 0)
(0.164152 -3.91182 0)
(0.164152 -3.99247 0)
(0.205048 -0.040328 0)
(0.205048 -0.120984 0)
(0.205048 -0.20164 0)
(0.205048 -0.282296 0)
(0.205048 -0.362952 0)
(0.205048 -0.443608 0)
(0.205048 -0.524264 0)
(0.205048 -0.60492 0)
(0.205048 -0.685576 0)
(0.205048 -0.766232 0)
(0.205048 -0.846888 0)
(0.205048 -0.927544 0)
(0.205048 -1.0082 0)
(0.205048 -1.08886 0)
(0.205048 -1.16951 0)
(0.205048 -1.25017 0)
(0.205048 -1.33082 0)
(0.205048 -1.41148 0)
(0.205048 -1.49214 0)
(0.205048 -1.57279 0)
(0.205048 -1.65345 0)
(0.205048 -1.7341 0)
(0.205048 -1.81476 0)
(0.205048 -1.89542 0)
(0.205048 -1.97607 0)
(0.205048 -2.05673 0)
(0.205048 -2.13738 0)
(0.205048 -2.21804 0)
(0.205048 -2.2987 0)
(0.205048 -2.37935 0)
(0.205048 -2.46001 0)
(0.205048 -2.54066 0)
(0.205048 -2.62132 0)
(0.205048 -2.70198 0)
(0.205048 -2.78263 0)
(0.205048 -2.86329 0)
(0.205048 -2.94394 0)
(0.205048 -3.0246 0)
(0.205048 -3.10526 0)
(0.205048 -3.18591 0)
(0.205048 -3.26657 0)
(0.205048 -3.34722 0)
(0.205048 -3.42788 0)
(0.205048 -3.50854 0)
(0.205048 -3.58919 0)
(0.205048 -3.66985 0)
(0.205048 -3.7505 0)
(0.205048 -3.83116 0)
(0.205048 -3.91182 0)
(0.205048 -3.99247 0)
(0.250488 -0.040328 0)
(0.250488 -0.120984 0)
(0.250488 -0.20164 0)
(0.250488 -0.282296 0)
(0.250488 -0.362952 0)
(0.250488 -0.443608 0)
(0.250488 -0.524264 0)
(0.250488 -0.60492 0)
(0.250488 -0.685576 0)
(0.250488 -0.766232 0)
(0.250488 -0.846888 0)
(0.250488 -0.927544 0)
(0.250488 -1.0082 0)
(0.250488 -1.08886 0)
(0.250488 -1.16951 0)
(0.250488 -1.25017 0)
(0.250488 -1.33082 0)
(0.250488 -1.41148 0)
(0.250488 -1.49214 0)
(0.250488 -1.57279 0)
(0.250488 -1.65345 0)
(0.250488 -1.7341 0)
(0.250488 -1.81476 0)
(0.250488 -1.89542 0)
(0.250488 -1.97607 0)
(0.250488 -2.05673 0)
(0.250488 -2.13738 0)
(0.250488 -2.21804 0)
(0.250488 -2.2987 0)
(0.250488 -2.37935 0)
(0.250488 -2.46001 0)
(0.250488 -2.54066 0)
(0.250488 -2.62132 0)
(0.250488 -2.70198 0)
(0.250488 -2.78263 0)
(0.250488 -2.86329 0)
(0.250488 -2.94394 0)
(0.250488 -3.0246 0)
(0.250488 -3.10526 0)
(0.250488 -3.18591 0)
(0.250488 -3.26657 0)
(0.250488 -3.34722 0)
(0.250488 -3.42788 0)
(0.250488 -3.50854 0)
(0.250488 -3.58919 0)
(0.250488 -3.66985 0)
(0.250488 -3.7505 0)
(0.250488 -3.83116 0)
(0.250488 -3.91182 0)
(0.250488 -3.99247 0)
(0.300472 -0.040328 0)
(0.300472 -0.120984 0)
(0.300472 -0.20164 0)
(0.300472 -0.282296 0)
(0.300472 -0.362952 0)
(0.300472 -0.443608 0)
(0.300472 -0.524264 0)
(0.300472 -0.60492 0)
(0.300472 -0.685576 0)
(0.300472 -0.766232 0)
(0.300472 -0.846888 0)
(0.300472 -0.927544 0)
(0.300472 -1.0082 0)
(0.300472 -1.08886 0)
(0.300472 -1.16951 0)
(0.300472 -1.25017 0)
(0.300472 -1.33082 0)
(0.300472 -1.41148 0)
(0.300472 -1.49214 0)
(0.300472 -1.57279 0)
(0.300472 -1.65345 0)
(0.300472 -1.7341 0)
(0.300472 -1.81476 0)
(0.300472 -1.89542 0)
(0.300472 -1.97607 0)
(0.300472 -2.05673 0)
(0.300472 -2.13738 0)
(0.300472 -2.21804 0)
(0.300472 -2.2987 0)
(0.300472 -2.37935 0)
(0.300472 -2.46001 0)
(0.300472 -2.54066 0)
(0.300472 -2.62132 0)
(0.300472 -2.70198 0)
(0.300472 -2.78263 0)
(0.300472 -2.86329 0)
(0.300472 -2.94394 0)
(0.300472 -3.0246 0)
(0.300472 -3.10526 0)
(0.300472 -3.18591 0)
(0.300472 -3.26657 0)
(0.300472 -3.34722 0)
(0.300472 -3.42788 0)
(0.300472 -3.50854 0)
(0.300472 -3.58919 0)
(0.300472 -3.66985 0)
(0.300472 -3.7505 0)
(0.300472 -3.83116 0)
(0.300472 -3.91182 0)
(0.300472 -3.99247 0)
(0.355 -0.040328 0)
(0.355 -0.120984 0)
(0.355 -0.20164 0)
(0.355 -0.282296 0)
(0.355 -0.362952 0)
(0.355 -0.443608 0)
(0.355 -0.524264 0)
(0.355 -0.60492 0)
(0.355 -0.685576 0)
(0.355 -0.766232 0)
(0.355 -0.846888 0)
(0.355 -0.927544 0)
(0.355 -1.0082 0)
(0.355 -1.08886 0)
(0.355 -1.16951 0)
(0.355 -1.25017 0)
(0.355 -1.33082 0)
(0.355 -1.41148 0)
(0.355 -1.49214 0)
(0.355 -1.57279 0)
(0.355 -1.65345 0)
(0.355 -1.7341 0)
(0.355 -1.81476 0)
(0.355 -1.89542 0)
(0.355 -1.97607 0)
(0.355 -2.05673 0)
(0.355 -2.13738 0)
(0.355 -2.21804 0)
(0.355 -2.2987 0)
(0.355 -2.37935 0)
(0.355 -2.46001 0)
(0.355 -2.54066 0)
(0.355 -2.62132 0)
(0.355 -2.70198 0)
(0.355 -2.78263 0)
(0.355 -2.86329 0)
(0.355 -2.94394 0)
(0.355 -3.0246 0)
(0.355 -3.10526 0)
(0.355 -3.18591 0)
(0.355 -3.26657 0)
(0.355 -3.34722 0)
(0.355 -3.42788 0)
(0.355 -3.50854 0)
(0.355 -3.58919 0)
(0.355 -3.66985 0)
(0.355 -3.7505 0)
(0.355 -3.83116 0)
(0.355 -3.91182 0)
(0.355 -3.99247 0)
(0.414072 -0.040328 0)
(0.414072 -0.120984 0)
(0.414072 -0.20164 0)
(0.414072 -0.282296 0)
(0.414072 -0.362952 0)
(0.414072 -0.443608 0)
(0.414072 -0.524264 0)
(0.414072 -0.60492 0)
(0.414072 -0.685576 0)
(0.414072 -0.766232 0)
(0.414072 -0.846888 0)
(0.414072 -0.927544 0)
(0.414072 -1.0082 0)
(0.414072 -1.08886 0)
(0.414072 -1.16951 0)
(0.414072 -1.25017 0)
(0.414072 -1.33082 0)
(0.414072 -1.41148 0)
(0.414072 -1.49214 0)
(0.414072 -1.57279 0)
(0.414072 -1.65345 0)
(0.414072 -1.7341 0)
(0.414072 -1.81476 0)
(0.414072 -1.89542 0)
(0.414072 -1.97607 0)
(0.414072 -2.05673 0)
(0.414072 -2.13738 0)
(0.414072 -2.21804 0)
(0.414072 -2.2987 0)
(0.414072 -2.37935 0)
(0.414072 -2.46001 0)
(0.414072 -2.54066 0)
(0.414072 -2.62132 0)
(0.414072 -2.70198 0)
(0.414072 -2.78263 0)
(0.414072 -2.86329 0)
(0.414072 -2.94394 0)
(0.414072 -3.0246 0)
(0.414072 -3.10526 0)
(0.414072 -3.18591 0)
(0.414072 -3.26657 0)
(0.414072 -3.34722 0)
(0.414072 -3.42788 0)
(0.414072 -3.50854 0)
(0.414072 -3.58919 0)
(0.414072 -3.66985 0)
(0.414072 -3.7505 0)
(0.414072 -3.83116 0)
(0.414072 -3.91182 0)
(0.414072 -3.99247 0)
(0.477688 -0.040328 0)
(0.477688 -0.120984 0)
(0.477688 -0.20164 0)
(0.477688 -0.282296 0)
(0.477688 -0.362952 0)
(0.477688 -0.443608 0)
(0.477688 -0.524264 0)
(0.477688 -0.60492 0)
(0.477688 -0.685576 0)
(0.477688 -0.766232 0)
(0.477688 -0.846888 0)
(0.477688 -0.927544 0)
(0.477688 -1.0082 0)
(0.477688 -1.08886 0)
(0.477688 -1.16951 0)
(0.477688 -1.25017 0)
(0.477688 -1.33082 0)
(0.477688 -1.41148 0)
(0.477688 -1.49214 0)
(0.477688 -1.57279 0)
(0.477688 -1.65345 0)
(0.477688 -1.7341 0)
(0.477688 -1.81476 0)
(0.477688 -1.89542 0)
(0.477688 -1.97607 0)
(0.477688 -2.05673 0)
(0.477688 -2.13738 0)
(0.477688 -2.21804 0)
(0.477688 -2.2987 0)
(0.477688 -2.37935 0)
(0.477688 -2.46001 0)
(0.477688 -2.54066 0)
(0.477688 -2.62132 0)
(0.477688 -2.70198 0)
(0.477688 -2.78263 0)
(0.477688 -2.86329 0)
(0.477688 -2.94394 0)
(0.477688 -3.0246 0)
(0.477688 -3.10526 0)
(0.477688 -3.18591 0)
(0.477688 -3.26657 0)
(0.477688 -3.34722 0)
(0.477688 -3.42788 0)
(0.477688 -3.50854 0)
(0.477688 -3.58919 0)
(0.477688 -3.66985 0)
(0.477688 -3.7505 0)
(0.477688 -3.83116 0)
(0.477688 -3.91182 0)
(0.477688 -3.99247 0)
(0.545848 -0.040328 0)
(0.545848 -0.120984 0)
(0.545848 -0.20164 0)
(0.545848 -0.282296 0)
(0.545848 -0.362952 0)
(0.545848 -0.443608 0)
(0.545848 -0.524264 0)
(0.545848 -0.60492 0)
(0.545848 -0.685576 0)
(0.545848 -0.766232 0)
(0.545848 -0.846888 0)
(0.545848 -0.927544 0)
(0.545848 -1.0082 0)
(0.545848 -1.08886 0)
(0.545848 -1.16951 0)
(0.545848 -1.25017 0)
(0.545848 -1.33082 0)
(0.545848 -1.41148 0)
(0.545848 -1.49214 0)
(0.545848 -1.57279 0)
(0.545848 -1.65345 0)
(0.545848 -1.7341 0)
(0.545848 -1.81476 0)
(0.545848 -1.89542 0)
(0.545848 -1.97607 0)
(0.545848 -2.05673 0)
(0.545848 -2.13738 0)
(0.545848 -2.21804 0)
(0.545848 -2.2987 0)
(0.545848 -2.37935 0)
(0.545848 -2.46001 0)
(0.545848 -2.54066 0)
(0.545848 -2.62132 0)
(0.545848 -2.70198 0)
(0.545848 -2.78263 0)
(0.545848 -2.86329 0)
(0.545848 -2.94394 0)
(0.545848 -3.0246 0)
(0.545848 -3.10526 0)
(0.545848 -3.18591 0)
(0.545848 -3.26657 0)
(0.545848 -3.34722 0)
(0.545848 -3.42788 0)
(0.545848 -3.50854 0)
(0.545848 -3.58919 0)
(0.545848 -3.66985 0)
(0.545848 -3.7505 0)
(0.545848 -3.83116 0)
(0.545848 -3.91182 0)
(0.545848 -3.99247 0)
(0.618552 -0.040328 0)
(0.618552 -0.120984 0)
(0.618552 -0.20164 0)
(0.618552 -0.282296 0)
(0.618552 -0.362952 0)
(0.618552 -0.443608 0)
(0.618552 -0.524264 0)
(0.618552 -0.60492 0)
(0.618552 -0.685576 0)
(0.618552 -0.766232 0)
(0.618552 -0.846888 0)
(0.618552 -0.927544 0)
(0.618552 -1.0082 0)
(0.618552 -1.08886 0)
(0.618552 -1.16951 0)
(0.618552 -1.25017 0)
(0.618552 -1.33082 0)
(0.618552 -1.41148 0)
(0.618552 -1.49214 0)
(0.618552 -1.57279 0)
(0.618552 -1.65345 0)
(0.618552 -1.7341 0)
(0.618552 -1.81476 0)
(0.618552 -1.89542 0)
(0.618552 -1.97607 0)
(0.618552 -2.05673 0)
(0.618552 -2.13738 0)
(0.618552 -2.21804 0)
(0.618552 -2.2987 0)
(0.618552 -2.37935 0)
(0.618552 -2.46001 0)
(0.618552 -2.54066 0)
(0.618552 -2.62132 0)
(0.618552 -2.70198 0)
(0.618552 -2.78263 0)
(0.618552 -2.86329 0)
(0.618552 -2.94394 0)
(0.618552 -3.0246 0)
(0.618552 -3.10526 0)
(0.618552 -3.18591 0)
(0.618552 -3.26657 0)
(0.618552 -3.34722 0)
(0.618552 -3.42788 0)
(0.618552 -3.50854 0)
(0.618552 -3.58919 0)
(0.618552 -3.66985 0)
(0.618552 -3.7505 0)
(0.618552 -3.83116 0)
(0.618552 -3.91182 0)
(0.618552 -3.99247 0)
(0.6958 -0.040328 0)
(0.6958 -0.120984 0)
(0.6958 -0.20164 0)
(0.6958 -0.282296 0)
(0.6958 -0.362952 0)
(0.6958 -0.443608 0)
(0.6958 -0.524264 0)
(0.6958 -0.60492 0)
(0.6958 -0.685576 0)
(0.6958 -0.766232 0)
(0.6958 -0.846888 0)
(0.6958 -0.927544 0)
(0.6958 -1.0082 0)
(0.6958 -1.08886 0)
(0.6958 -1.16951 0)
(0.6958 -1.25017 0)
(0.6958 -1.33082 0)
(0.6958 -1.41148 0)
(0.6958 -1.49214 0)
(0.6958 -1.57279 0)
(0.6958 -1.65345 0)
(0.6958 -1.7341 0)
(0.6958 -1.81476 0)
(0.6958 -1.89542 0)
(0.6958 -1.97607 0)
(0.6958 -2.05673 0)
(0.6958 -2.13738 0)
(0.6958 -2.21804 0)
(0.6958 -2.2987 0)
(0.6958 -2.37935 0)
(0.6958 -2.46001 0)
(0.6958 -2.54066 0)
(0.6958 -2.62132 0)
(0.6958 -2.70198 0)
(0.6958 -2.78263 0)
(0.6958 -2.86329 0)
(0.6958 -2.94394 0)
(0.6958 -3.0246 0)
(0.6958 -3.10526 0)
(0.6958 -3.18591 0)
(0.6958 -3.26657 0)
(0.6958 -3.34722 0)
(0.6958 -3.42788 0)
(0.6958 -3.50854 0)
(0.6958 -3.58919 0)
(0.6958 -3.66985 0)
(0.6958 -3.7505 0)
(0.6958 -3.83116 0)
(0.6958 -3.91182 0)
(0.6958 -3.99247 0)
(0.777592 -0.040328 0)
(0.777592 -0.120984 0)
(0.777592 -0.20164 0)
(0.777592 -0.282296 0)
(0.777592 -0.362952 0)
(0.777592 -0.443608 0)
(0.777592 -0.524264 0)
(0.777592 -0.60492 0)
(0.777592 -0.685576 0)
(0.777592 -0.766232 0)
(0.777592 -0.846888 0)
(0.777592 -0.927544 0)
(0.777592 -1.0082 0)
(0.777592 -1.08886 0)
(0.777592 -1.16951 0)
(0.777592 -1.25017 0)
(0.777592 -1.33082 0)
(0.777592 -1.41148 0)
(0.777592 -1.49214 0)
(0.777592 -1.57279 0)
(0.777592 -1.65345 0)
(0.777592 -1.7341 0)
(0.777592 -1.81476 0)
(0.777592 -1.89542 0)
(0.777592 -1.97607 0)
(0.777592 -2.05673 0)
(0.777592 -2.13738 0)
(0.777592 -2.21804 0)
(0.777592 -2.2987 0)
(0.777592 -2.37935 0)
(0.777592 -2.46001 0)
(0.777592 -2.54066 0)
(0.777592 -2.62132 0)
(0.777592 -2.70198 0)
(0.777592 -2.78263 0)
(0.777592 -2.86329 0)
(0.777592 -2.94394 0)
(0.777592 -3.0246 0)
(0.777592 -3.10526 0)
(0.777592 -3.18591 0)
(0.777592 -3.26657 0)
(0.777592 -3.34722 0)
(0.777592 -3.42788 0)
(0.777592 -3.50854 0)
(0.777592 -3.58919 0)
(0.777592 -3.66985 0)
(0.777592 -3.7505 0)
(0.777592 -3.83116 0)
(0.777592 -3.91182 0)
(0.777592 -3.99247 0)
(0.863928 -0.040328 0)
(0.863928 -0.120984 0)
(0.863928 -0.20164 0)
(0.863928 -0.282296 0)
(0.863928 -0.362952 0)
(0.863928 -0.443608 0)
(0.863928 -0.524264 0)
(0.863928 -0.60492 0)
(0.863928 -0.685576 0)
(0.863928 -0.766232 0)
(0.863928 -0.846888 0)
(0.863928 -0.927544 0)
(0.863928 -1.0082 0)
(0.863928 -1.08886 0)
(0.863928 -1.16951 0)
(0.863928 -1.25017 0)
(0.863928 -1.33082 0)
(0.863928 -1.41148 0)
(0.863928 -1.49214 0)
(0.863928 -1.57279 0)
(0.863928 -1.65345 0)
(0.863928 -1.7341 0)
(0.863928 -1.81476 0)
(0.863928 -1.89542 0)
(0.863928 -1.97607 0)
(0.863928 -2.05673 0)
(0.863928 -2.13738 0)
(0.863928 -2.21804 0)
(0.863928 -2.2987 0)
(0.863928 -2.37935 0)
(0.863928 -2.46001 0)
(0.863928 -2.54066 0)
(0.863928 -2.62132 0)
(0.863928 -2.70198 0)
(0.863928 -2.78263 0)
(0.863928 -2.86329 0)
(0.863928 -2.94394 0)
(0.863928 -3.0246 0)
(0.863928 -3.10526 0)
(0.863928 -3.18591 0)
(0.863928 -3.26657 0)
(0.863928 -3.34722 0)
(0.863928 -3.42788 0)
(0.863928 -3.50854 0)
(0.863928 -3.58919 0)
(0.863928 -3.66985 0)
(0.863928 -3.7505 0)
(0.863928 -3.83116 0)
(0.863928 -3.91182 0)
(0.863928 -3.99247 0)
(0.954808 -0.040328 0)
(0.954808 -0.120984 0)
(0.954808 -0.20164 0)
(0.954808 -0.282296 0)
(0.954808 -0.362952 0)
(0.954808 -0.443608 0)
(0.954808 -0.524264 0)
(0.954808 -0.60492 0)
(0.954808 -0.685576 0)
(0.954808 -0.766232 0)
(0.954808 -0.846888 0)
(0.954808 -0.927544 0)
(0.954808 -1.0082 0)
(0.954808 -1.08886 0)
(0.954808 -1.16951 0)
(0.954808 -1.25017 0)
(0.954808 -1.33082 0)
(0.954808 -1.41148 0)
(0.954808 -1.49214 0)
(0.954808 -1.57279 0)
(0.954808 -1.65345 0)
(0.954808 -1.7341 0)
(0.954808 -1.81476 0)
(0.954808 -1.89542 0)
(0.954808 -1.97607 0)
(0.954808 -2.05673 0)
(0.954808 -2.13738 0)
(0.954808 -2.21804 0)
(0.954808 -2.2987 0)
(0.954808 -2.37935 0)
(0.954808 -2.46001 0)
(0.954808 -2.54066 0)
(0.954808 -2.62132 0)
(0.954808 -2.70198 0)
(0.954808 -2.78263 0)
(0.954808 -2.86329 0)
(0.954808 -2.94394 0)
(0.954808 -3.0246 0)
(0.954808 -3.10526 0)
(0.954808 -3.18591 0)
(0.954808 -3.26657 0)
(0.954808 -3.34722 0)
(0.954808 -3.42788 0)
(0.954808 -3.50854 0)
(0.954808 -3.58919 0)
(0.954808 -3.66985 0)
(0.954808 -3.7505 0)
(0.954808 -3.83116 0)
(0.954808 -3.91182 0)
(0.954808 -3.99247 0)
(1.05023 -0.040328 0)
(1.05023 -0.120984 0)
(1.05023 -0.20164 0)
(1.05023 -0.282296 0)
(1.05023 -0.362952 0)
(1.05023 -0.443608 0)
(1.05023 -0.524264 0)
(1.05023 -0.60492 0)
(1.05023 -0.685576 0)
(1.05023 -0.766232 0)
(1.05023 -0.846888 0)
(1.05023 -0.927544 0)
(1.05023 -1.0082 0)
(1.05023 -1.08886 0)
(1.05023 -1.16951 0)
(1.05023 -1.25017 0)
(1.05023 -1.33082 0)
(1.05023 -1.41148 0)
(1.05023 -1.49214 0)
(1.05023 -1.57279 0)
(1.05023 -1.65345 0)
(1.05023 -1.7341 0)
(1.05023 -1.81476 0)
(1.05023 -1.89542 0)
(1.05023 -1.97607 0)
(1.05023 -2.05673 0)
(1.05023 -2.13738 0)
(1.05023 -2.21804 0)
(1.05023 -2.2987 0)
(1.05023 -2.37935 0)
(1.05023 -2.46001 0)
(1.05023 -2.54066 0)
(1.05023 -2.62132 0)
(1.05023 -2.70198 0)
(1.05023 -2.78263 0)
(1.05023 -2.86329 0)
(1.05023 -2.94394 0)
(1.05023 -3.0246 0)
(1.05023 -3.10526 0)
(1.05023 -3.18591 0)
(1.05023 -3.26657 0)
(1.05023 -3.34722 0)
(1.05023 -3.42788 0)
(1.05023 -3.50854 0)
(1.05023 -3.58919 0)
(1.05023 -3.66985 0)
(1.05023 -3.7505 0)
(1.05023 -3.83116 0)
(1.05023 -3.91182 0)
(1.05023 -3.99247 0)
(1.1502 -0.040328 0)
(1.1502 -0.120984 0)
(1.1502 -0.20164 0)
(1.1502 -0.282296 0)
(1.1502 -0.362952 0)
(1.1502 -0.443608 0)
(1.1502 -0.524264 0)
(1.1502 -0.60492 0)
(1.1502 -0.685576 0)
(1.1502 -0.766232 0)
(1.1502 -0.846888 0)
(1.1502 -0.927544 0)
(1.1502 -1.0082 0)
(1.1502 -1.08886 0)
(1.1502 -1.16951 0)
(1.1502 -1.25017 0)
(1.1502 -1.33082 0)
(1.1502 -1.41148 0)
(1.1502 -1.49214 0)
(1.1502 -1.57279 0)
(1.1502 -1.65345 0)
(1.1502 -1.7341 0)
(1.1502 -1.81476 0)
(1.1502 -1.89542 0)
(1.1502 -1.97607 0)
(1.1502 -2.05673 0)
(1.1502 -2.13738 0)
(1.1502 -2.21804 0)
(1.1502 -2.2987 0)
(1.1502 -2.37935 0)
(1.1502 -2.46001 0)
(1.1502 -2.54066 0)
(1.1502 -2.62132 0)
(1.1502 -2.70198 0)
(1.1502 -2.78263 0)
(1.1502 -2.86329 0)
(1.1502 -2.94394 0)
(1.1502 -3.0246 0)
(1.1502 -3.10526 0)
(1.1502 -3.18591 0)
(1.1502 -3.26657 0)
(1.1502 -3.34722 0)
(1.1502 -3.42788 0)
(1.1502 -3.50854 0)
(1.1502 -3.58919 0)
(1.1502 -3.66985 0)
(1.1502 -3.7505 0)
(1.1502 -3.83116 0)
(1.1502 -3.91182 0)
(1.1502 -3.99247 0)
(1.25471 -0.040328 0)
(1.25471 -0.120984 0)
(1.25471 -0.20164 0)
(1.25471 -0.282296 0)
(1.25471 -0.362952 0)
(1.25471 -0.443608 0)
(1.25471 -0.524264 0)
(1.25471 -0.60492 0)
(1.25471 -0.685576 0)
(1.25471 -0.766232 0)
(1.25471 -0.846888 0)
(1.25471 -0.927544 0)
(1.25471 -1.0082 0)
(1.25471 -1.08886 0)
(1.25471 -1.16951 0)
(1.25471 -1.25017 0)
(1.25471 -1.33082 0)
(1.25471 -1.41148 0)
(1.25471 -1.49214 0)
(1.25471 -1.57279 0)
(1.25471 -1.65345 0)
(1.25471 -1.7341 0)
(1.25471 -1.81476 0)
(1.25471 -1.89542 0)
(1.25471 -1.97607 0)
(1.25471 -2.05673 0)
(1.25471 -2.13738 0)
(1.25471 -2.21804 0)
(1.25471 -2.2987 0)
(1.25471 -2.37935 0)
(1.25471 -2.46001 0)
(1.25471 -2.54066 0)
(1.25471 -2.62132 0)
(1.25471 -2.70198 0)
(1.25471 -2.78263 0)
(1.25471 -2.86329 0)
(1.25471 -2.94394 0)
(1.25471 -3.0246 0)
(1.25471 -3.10526 0)
(1.25471 -3.18591 0)
(1.25471 -3.26657 0)
(1.25471 -3.34722 0)
(1.25471 -3.42788 0)
(1.25471 -3.50854 0)
(1.25471 -3.58919 0)
(1.25471 -3.66985 0)
(1.25471 -3.7505 0)
(1.25471 -3.83116 0)
(1.25471 -3.91182 0)
(1.25471 -3.99247 0)
(1.36377 -0.040328 0)
(1.36377 -0.120984 0)
(1.36377 -0.20164 0)
(1.36377 -0.282296 0)
(1.36377 -0.362952 0)
(1.36377 -0.443608 0)
(1.36377 -0.524264 0)
(1.36377 -0.60492 0)
(1.36377 -0.685576 0)
(1.36377 -0.766232 0)
(1.36377 -0.846888 0)
(1.36377 -0.927544 0)
(1.36377 -1.0082 0)
(1.36377 -1.08886 0)
(1.36377 -1.16951 0)
(1.36377 -1.25017 0)
(1.36377 -1.33082 0)
(1.36377 -1.41148 0)
(1.36377 -1.49214 0)
(1.36377 -1.57279 0)
(1.36377 -1.65345 0)
(1.36377 -1.7341 0)
(1.36377 -1.81476 0)
(1.36377 -1.89542 0)
(1.36377 -1.97607 0)
(1.36377 -2.05673 0)
(1.36377 -2.13738 0)
(1.36377 -2.21804 0)
(1.36377 -2.2987 0)
(1.36377 -2.37935 0)
(1.36377 -2.46001 0)
(1.36377 -2.54066 0)
(1.36377 -2.62132 0)
(1.36377 -2.70198 0)
(1.36377 -2.78263 0)
(1.36377 -2.86329 0)
(1.36377 -2.94394 0)
(1.36377 -3.0246 0)
(1.36377 -3.10526 0)
(1.36377 -3.18591 0)
(1.36377 -3.26657 0)
(1.36377 -3.34722 0)
(1.36377 -3.42788 0)
(1.36377 -3.50854 0)
(1.36377 -3.58919 0)
(1.36377 -3.66985 0)
(1.36377 -3.7505 0)
(1.36377 -3.83116 0)
(1.36377 -3.91182 0)
(1.36377 -3.99247 0)
(1.47737 -0.040328 0)
(1.47737 -0.120984 0)
(1.47737 -0.20164 0)
(1.47737 -0.282296 0)
(1.47737 -0.362952 0)
(1.47737 -0.443608 0)
(1.47737 -0.524264 0)
(1.47737 -0.60492 0)
(1.47737 -0.685576 0)
(1.47737 -0.766232 0)
(1.47737 -0.846888 0)
(1.47737 -0.927544 0)
(1.47737 -1.0082 0)
(1.47737 -1.08886 0)
(1.47737 -1.16951 0)
(1.47737 -1.25017 0)
(1.47737 -1.33082 0)
(1.47737 -1.41148 0)
(1.47737 -1.49214 0)
(1.47737 -1.57279 0)
(1.47737 -1.65345 0)
(1.47737 -1.7341 0)
(1.47737 -1.81476 0)
(1.47737 -1.89542 0)
(1.47737 -1.97607 0)
(1.47737 -2.05673 0)
(1.47737 -2.13738 0)
(1.47737 -2.21804 0)
(1.47737 -2.2987 0)
(1.47737 -2.37935 0)
(1.47737 -2.46001 0)
(1.47737 -2.54066 0)
(1.47737 -2.62132 0)
(1.47737 -2.70198 0)
(1.47737 -2.78263 0)
(1.47737 -2.86329 0)
(1.47737 -2.94394 0)
(1.47737 -3.0246 0)
(1.47737 -3.10526 0)
(1.47737 -3.18591 0)
(1.47737 -3.26657 0)
(1.47737 -3.34722 0)
(1.47737 -3.42788 0)
(1.47737 -3.50854 0)
(1.47737 -3.58919 0)
(1.47737 -3.66985 0)
(1.47737 -3.7505 0)
(1.47737 -3.83116 0)
(1.47737 -3.91182 0)
(1.47737 -3.99247 0)
(1.59551 -0.040328 0)
(1.59551 -0.120984 0)
(1.59551 -0.20164 0)
(1.59551 -0.282296 0)
(1.59551 -0.362952 0)
(1.59551 -0.443608 0)
(1.59551 -0.524264 0)
(1.59551 -0.60492 0)
(1.59551 -0.685576 0)
(1.59551 -0.766232 0)
(1.59551 -0.846888 0)
(1.59551 -0.927544 0)
(1.59551 -1.0082 0)
(1.59551 -1.08886 0)
(1.59551 -1.16951 0)
(1.59551 -1.25017 0)
(1.59551 -1.33082 0)
(1.59551 -1.41148 0)
(1.59551 -1.49214 0)
(1.59551 -1.57279 0)
(1.59551 -1.65345 0)
(1.59551 -1.7341 0)
(1.59551 -1.81476 0)
(1.59551 -1.89542 0)
(1.59551 -1.97607 0)
(1.59551 -2.05673 0)
(1.59551 -2.13738 0)
(1.59551 -2.21804 0)
(1.59551 -2.2987 0)
(1.59551 -2.37935 0)
(1.59551 -2.46001 0)
(1.59551 -2.54066 0)
(1.59551 -2.62132 0)
(1.59551 -2.70198 0)
(1.59551 -2.78263 0)
(1.59551 -2.86329 0)
(1.59551 -2.94394 0)
(1.59551 -3.0246 0)
(1.59551 -3.10526 0)
(1.59551 -3.18591 0)
(1.59551 -3.26657 0)
(1.59551 -3.34722 0)
(1.59551 -3.42788 0)
(1.59551 -3.50854 0)
(1.59551 -3.58919 0)
(1.59551 -3.66985 0)
(1.59551 -3.7505 0)
(1.59551 -3.83116 0)
(1.59551 -3.91182 0)
(1.59551 -3.99247 0)
(1.7182 -0.040328 0)
(1.7182 -0.120984 0)
(1.7182 -0.20164 0)
(1.7182 -0.282296 0)
(1.7182 -0.362952 0)