/*--------------------------------*- C++ -*----------------------------------*\
| =========                 |                                                 |
| \\      /  F ield         | OpenFOAM: The Open Source CFD Toolbox           |
|  \\    /   O peration     | Version:  v2006                                 |
|   \\  /    A nd           | Website:  www.openfoam.com                      |
|    \\/     M anipulation  |                                                 |
\*---------------------------------------------------------------------------*/
FoamFile
{
    version     2.0;
    format      ascii;
    class       volScalarField;
    location    "4";
    object      r;
}
// * * * * * * * * * * * * * * * * * * * * * * * * * * * * * * * * * * * * * //

dimensions      [1 2 0 0 0 0 0];


internalField   nonuniform List<scalar> 
350
(
1.72324e-116
1.34774e-113
9.76464e-111
6.48226e-108
3.89521e-105
2.08486e-102
9.71845e-100
3.81351e-97
1.18812e-94
2.586e-92
2.32196e-90
-6.28819e-88
-2.04243e-85
1.00305e-83
9.27846e-81
-9.90284e-79
-2.78969e-76
1.03301e-73
-1.79144e-71
2.15809e-69
-2.0223e-67
1.55656e-65
-1.01647e-63
5.75485e-62
-2.86916e-60
1.27459e-58
-5.09196e-57
1.84297e-55
-6.08008e-54
1.8376e-52
-5.10968e-51
1.31191e-49
-3.11979e-48
6.88979e-47
-1.41623e-45
2.71494e-44
-4.86191e-43
8.14503e-42
-1.27801e-40
1.88001e-39
-2.59482e-38
3.3623e-37
-4.09193e-36
4.67824e-35
-5.02477e-34
5.06952e-33
-4.80261e-32
4.26969e-31
-3.55925e-30
2.77891e-29
-2.02908e-28
1.38297e-27
-8.77714e-27
5.17091e-26
-2.81637e-25
1.41054e-24
-6.44856e-24
2.66291e-23
-9.77466e-23
3.10411e-22
-8.08053e-22
1.48786e-21
-6.07461e-22
-8.74998e-21
4.14245e-20
-1.01022e-19
8.44581e-20
4.04896e-19
-1.93727e-18
3.44499e-18
2.29681e-18
-2.8198e-17
5.96714e-17
2.35538e-17
-4.03657e-16
7.20387e-16
8.40061e-16
-5.44445e-15
4.58092e-15
2.13073e-14
-5.25964e-14
-4.01217e-14
2.99002e-13
-1.04118e-13
-1.29246e-12
1.42159e-12
4.83446e-12
-8.57349e-12
-1.71185e-11
4.03032e-11
6.24691e-11
-1.64391e-10
-2.4862e-10
5.94021e-10
1.06609e-09
-1.83155e-09
-4.59765e-09
4.12467e-09
1.83762e-08
-1.45288e-09
-6.24241e-08
-4.84188e-08
1.55769e-07
3.11092e-07
-1.44818e-07
-1.12113e-06
-9.59783e-07
2.05571e-06
5.6627e-06
2.38256e-06
-1.23857e-05
-2.65287e-05
-1.02419e-05
5.43568e-05
0.000125735
9.10363e-05
-0.00015392
-0.000544491
-0.000727279
-0.000157246
0.00149477
0.00375242
0.00493085
0.00237583
-0.00637559
-0.0216321
-0.0393436
-0.049474
-0.0357099
0.0231208
0.15008
0.366254
0.686912
1.11858
1.65761
2.29055
2.99587
3.74691
4.51501
5.27265
5.99585
6.66579
7.26949
7.79981
8.25474
8.63647
8.95022
9.20312
9.40329
9.55901
9.67819
9.768
9.8347
9.88355
9.91885
9.94403
9.96179
9.97419
9.98273
9.98853
9.99239
9.99495
9.99672
9.99811
9.99924
9.9999
9.99964
9.99818
9.99605
9.99495
9.99755
10.0063
10.0216
10.0393
10.0495
10.0357
9.97688
9.84992
9.63375
9.31309
8.88142
8.34239
7.70945
7.00413
6.25309
5.48499
4.72735
4.00415
3.33421
2.73051
2.20019
1.74526
1.36353
1.04978
0.796877
0.596708
0.44099
0.321812
0.231998
0.165299
0.116453
0.0811527
0.0559626
0.0382032
0.0258264
0.0172958
0.0114781
0.00755071
0.00492518
0.00318637
0.00204515
0.00130264
0.000823556
0.000516937
0.000322221
0.000199495
0.000122704
7.49936e-05
4.55515e-05
2.75026e-05
1.65085e-05
9.85326e-06
5.84862e-06
3.45298e-06
2.02799e-06
1.18501e-06
6.89013e-07
3.98682e-07
2.29608e-07
1.31625e-07
7.51196e-08
4.26823e-08
2.41497e-08
1.36056e-08
7.6353e-09
4.26646e-09
2.37602e-09
1.31693e-09
7.28396e-10
4.00287e-10
2.20224e-10
1.1979e-10
6.57914e-11
3.52376e-11
1.95026e-11
1.01303e-11
5.79551e-12
2.79557e-12
1.77059e-12
6.98072e-13
5.87668e-13
1.20231e-13
2.31398e-13
-2.52335e-14
1.15325e-13
-5.16492e-14
7.04151e-14
-4.77105e-14
4.8129e-14
-3.78704e-14
3.4379e-14
-2.84905e-14
2.48314e-14
-2.09051e-14
1.78939e-14
-1.5096e-14
1.27862e-14
-1.07494e-14
9.03038e-15
-7.54956e-15
6.29699e-15
-5.23246e-15
4.33539e-15
-3.5793e-15
2.94476e-15
-2.41291e-15
1.96863e-15
-1.59856e-15
1.2916e-15
-1.0381e-15
8.29772e-16
-6.59362e-16
5.20583e-16
-4.0802e-16
3.17086e-16
-2.43939e-16
1.85401e-16
-1.38848e-16
1.02106e-16
-7.33653e-17
5.11074e-17
-3.40597e-17
2.11613e-17
-1.15382e-17
4.4806e-18
5.80455e-19
-4.09692e-18
6.42679e-18
-7.85413e-18
8.60517e-18
-8.8602e-18
8.76211e-18
-8.4226e-18
7.9273e-18
-7.34025e-18
6.70811e-18
-6.06407e-18
5.43117e-18
-4.82499e-18
4.25569e-18
-3.7294e-18
3.24926e-18
-2.8161e-18
2.42905e-18
-2.08603e-18
1.78416e-18
-1.52012e-18
1.29039e-18
-1.0915e-18
9.20092e-19
-7.73019e-19
6.47356e-19
-5.40418e-19
4.49762e-19
-3.73186e-19
3.08724e-19
-2.54637e-19
2.09396e-19
-1.71673e-19
1.40317e-19
-1.14333e-19
9.28698e-20
-7.5196e-20
6.06883e-20
-4.88169e-20
3.91332e-20
-3.1259e-20
2.4877e-20
-1.97215e-20
1.55712e-20
-1.22421e-20
9.58148e-21
-7.4634e-21
5.78394e-21
-4.45782e-21
3.41526e-21
-2.59941e-21
1.96412e-21
-1.47247e-21
1.11548e-21
)
;

boundaryField
{
    right
    {
        type            zeroGradient;
    }
    left
    {
        type            inletOutlet;
        inletValue      uniform 0;
        value           uniform 0;
    }
    top
    {
        type            zeroGradient;
    }
    bottom
    {
        type            zeroGradient;
    }
    empty
    {
        type            empty;
    }
}


// ************************************************************************* //
