/*--------------------------------*- C++ -*----------------------------------*\
| =========                 |                                                 |
| \\      /  F ield         | OpenFOAM: The Open Source CFD Toolbox           |
|  \\    /   O peration     | Version:  v2006                                 |
|   \\  /    A nd           | Website:  www.openfoam.com                      |
|    \\/     M anipulation  |                                                 |
\*---------------------------------------------------------------------------*/
FoamFile
{
    version     2.0;
    format      ascii;
    class       volVectorField;
    location    "0";
    object      U;
}
// * * * * * * * * * * * * * * * * * * * * * * * * * * * * * * * * * * * * * //

dimensions      [0 1 -1 0 0 0 0];


internalField   nonuniform List<vector> 
67500
(
(-0.0125512 0.0169216 0)
(-0.0428195 0.010369 0)
(-0.0565871 -0.0379205 0)
(-0.0101537 -0.05504 0)
(-0.0270566 -0.0540234 0)
(-0.0500273 -0.0569657 0)
(-0.0510251 -0.0101416 0)
(-0.0483424 -0.00934152 0)
(-0.00748703 -0.0355627 0)
(0.0467224 -0.0372748 0)
(0.104086 -0.0332149 0)
(0.152835 -0.0296693 0)
(0.188983 -0.0274648 0)
(0.216132 -0.0259439 0)
(0.242342 -0.0251067 0)
(0.272611 -0.021926 0)
(0.296496 -0.0146275 0)
(0.292966 -0.00277218 0)
(0.249176 0.0103031 0)
(0.195603 0.00884479 0)
(0.164624 -0.00427494 0)
(0.154641 -0.0140051 0)
(0.153867 -0.0165078 0)
(0.161269 -0.0147823 0)
(0.171873 -0.0136743 0)
(0.182647 -0.0128896 0)
(0.192066 -0.0113667 0)
(0.199183 -0.00892078 0)
(0.204542 -0.00630494 0)
(0.209364 -0.00433457 0)
(0.213871 -0.00301788 0)
(0.217316 -0.00230528 0)
(0.219694 -0.00207853 0)
(0.222029 -0.00199528 0)
(0.22509 -0.00176131 0)
(0.228847 -0.00133393 0)
(0.233039 -0.00086131 0)
(0.237666 -0.000520986 0)
(0.242982 -0.000499593 0)
(0.249278 -0.000912843 0)
(0.256705 -0.00169676 0)
(0.265167 -0.00265107 0)
(0.274334 -0.00355823 0)
(0.283754 -0.00427636 0)
(0.292986 -0.00476486 0)
(0.301701 -0.00505354 0)
(0.309744 -0.00518392 0)
(0.317122 -0.00517312 0)
(0.32397 -0.00502573 0)
(0.3305 -0.00476724 0)
(0.336945 -0.00446027 0)
(0.343517 -0.00418269 0)
(0.350358 -0.00398934 0)
(0.357515 -0.00389554 0)
(0.36493 -0.003883 0)
(0.372465 -0.00391301 0)
(0.379958 -0.00393985 0)
(0.387271 -0.00392253 0)
(0.394332 -0.0038368 0)
(0.401149 -0.00368584 0)
(0.407798 -0.00350291 0)
(0.414403 -0.00334104 0)
(0.421097 -0.00325374 0)
(0.427997 -0.00327494 0)
(0.435179 -0.0034073 0)
(0.442667 -0.00362259 0)
(0.450436 -0.00387242 0)
(0.458422 -0.00410354 0)
(0.466539 -0.00427217 0)
(0.474707 -0.00435322 0)
(0.482865 -0.00434283 0)
(0.490982 -0.00425648 0)
(0.499051 -0.00412568 0)
(0.507075 -0.00398606 0)
(0.515036 -0.00384955 0)
(0.52281 -0.00367715 0)
(0.530226 -0.00347934 0)
(0.537296 -0.00336958 0)
(0.544207 -0.00335798 0)
(0.551068 -0.00338979 0)
(0.557881 -0.00342777 0)
(0.564626 -0.00345669 0)
(0.571289 -0.00347236 0)
(0.577863 -0.0034764 0)
(0.584359 -0.00347276 0)
(0.590808 -0.00346521 0)
(0.597251 -0.00345761 0)
(0.603735 -0.00345287 0)
(0.610297 -0.00345067 0)
(0.616955 -0.00344485 0)
(0.623689 -0.00341959 0)
(0.63044 -0.0033678 0)
(0.637166 -0.00332277 0)
(0.643893 -0.00330684 0)
(0.650664 -0.00331214 0)
(0.657496 -0.00332806 0)
(0.664394 -0.0033493 0)
(0.671356 -0.00337204 0)
(0.67837 -0.0033915 0)
(0.685413 -0.00340208 0)
(0.692446 -0.00339799 0)
(0.699415 -0.00337379 0)
(0.706267 -0.00333525 0)
(0.712994 -0.00330506 0)
(0.719639 -0.00329545 0)
(0.726251 -0.00329837 0)
(0.73285 -0.00330121 0)
(0.73943 -0.003294 0)
(0.745969 -0.00327037 0)
(0.752437 -0.00323187 0)
(0.75882 -0.0031901 0)
(0.76513 -0.0031554 0)
(0.771389 -0.00312711 0)
(0.777603 -0.00309915 0)
(0.783767 -0.00306732 0)
(0.789866 -0.00303185 0)
(0.795895 -0.00299633 0)
(0.801856 -0.00296307 0)
(0.807752 -0.00293065 0)
(0.813582 -0.00289673 0)
(0.819341 -0.00286065 0)
(0.825025 -0.00282308 0)
(0.830632 -0.0027844 0)
(0.83616 -0.00274409 0)
(0.841606 -0.00270173 0)
(0.846966 -0.00265745 0)
(0.852235 -0.00261147 0)
(0.857412 -0.00256382 0)
(0.862491 -0.00251446 0)
(0.86747 -0.00246353 0)
(0.872345 -0.00241117 0)
(0.877114 -0.00235747 0)
(0.881775 -0.00230256 0)
(0.886324 -0.00224661 0)
(0.89076 -0.00218979 0)
(0.895082 -0.00213228 0)
(0.899288 -0.00207424 0)
(0.903378 -0.00201584 0)
(0.90735 -0.00195724 0)
(0.911205 -0.00189856 0)
(0.914943 -0.00183994 0)
(0.918564 -0.00178148 0)
(0.922067 -0.00172329 0)
(0.925455 -0.00166546 0)
(0.928728 -0.00160809 0)
(0.931886 -0.00155124 0)
(0.934931 -0.001495 0)
(0.937864 -0.00143945 0)
(0.940687 -0.00138468 0)
(0.943401 -0.00133078 0)
(0.946008 -0.00127785 0)
(0.94851 -0.00122597 0)
(0.95091 -0.00117524 0)
(0.953209 -0.00112573 0)
(0.955411 -0.00107753 0)
(0.957518 -0.00103068 0)
(0.959532 -0.000985252 0)
(0.961457 -0.000941267 0)
(0.963295 -0.000898758 0)
(0.96505 -0.000857742 0)
(0.966724 -0.000818226 0)
(0.968321 -0.000780212 0)
(0.969843 -0.000743693 0)
(0.971294 -0.000708656 0)
(0.972676 -0.00067508 0)
(0.973993 -0.000642942 0)
(0.975246 -0.000612211 0)
(0.97644 -0.000582854 0)
(0.977576 -0.000554832 0)
(0.978658 -0.000528107 0)
(0.979687 -0.000502633 0)
(0.980667 -0.000478366 0)
(0.9816 -0.000455261 0)
(0.982487 -0.000433269 0)
(0.983332 -0.000412345 0)
(0.984135 -0.00039244 0)
(0.9849 -0.000373509 0)
(0.985628 -0.000355505 0)
(0.986321 -0.000338384 0)
(0.986981 -0.000322102 0)
(0.987609 -0.000306615 0)
(0.988207 -0.000291882 0)
(0.988776 -0.000277861 0)
(0.989317 -0.000264512 0)
(0.989833 -0.000251798 0)
(0.990324 -0.000239679 0)
(0.990791 -0.000228123 0)
(0.991236 -0.000217094 0)
(0.991659 -0.000206563 0)
(0.992061 -0.000196502 0)
(0.992444 -0.000186886 0)
(0.992809 -0.000177694 0)
(0.993155 -0.000168907 0)
(0.993484 -0.000160509 0)
(0.993796 -0.000152485 0)
(0.994093 -0.000144825 0)
(0.994375 -0.000137516 0)
(0.994643 -0.000130549 0)
(0.994897 -0.000123915 0)
(0.995138 -0.000117604 0)
(0.995367 -0.000111607 0)
(0.995585 -0.000105915 0)
(0.995791 -0.000100516 0)
(0.995986 -9.54009e-05 0)
(0.996172 -9.05586e-05 0)
(0.996349 -8.59775e-05 0)
(0.996516 -8.16463e-05 0)
(0.996675 -7.75532e-05 0)
(0.996826 -7.36866e-05 0)
(0.99697 -7.00349e-05 0)
(0.997106 -6.65865e-05 0)
(0.997236 -6.33301e-05 0)
(0.997359 -6.02548e-05 0)
(0.997477 -5.73498e-05 0)
(0.997589 -5.46047e-05 0)
(0.997695 -5.20094e-05 0)
(0.997797 -4.95542e-05 0)
(0.997893 -4.72297e-05 0)
(0.997986 -4.50271e-05 0)
(0.998074 -4.29378e-05 0)
(0.998157 -4.09537e-05 0)
(0.998237 -3.90673e-05 0)
(0.998314 -3.72713e-05 0)
(0.998386 -3.55591e-05 0)
(0.998456 -3.39246e-05 0)
(0.998522 -3.23621e-05 0)
(0.998585 -3.08665e-05 0)
(0.998645 -2.94331e-05 0)
(0.998703 -2.8058e-05 0)
(0.998758 -2.67373e-05 0)
(0.99881 -2.5468e-05 0)
(0.998859 -2.42472e-05 0)
(0.998907 -2.30726e-05 0)
(0.998952 -2.19421e-05 0)
(0.998994 -2.0854e-05 0)
(0.999035 -1.98069e-05 0)
(0.999074 -1.87993e-05 0)
(0.99911 -1.78304e-05 0)
(0.999145 -1.68992e-05 0)
(0.999178 -1.60047e-05 0)
(0.999209 -1.51465e-05 0)
(0.999238 -1.43237e-05 0)
(0.999266 -1.35358e-05 0)
(0.999292 -1.27821e-05 0)
(0.999317 -1.20621e-05 0)
(0.999341 -1.13752e-05 0)
(0.999363 -1.07207e-05 0)
(0.999383 -1.00981e-05 0)
(0.999403 -9.50666e-06 0)
(0.999421 -8.94571e-06 0)
(0.999439 -8.41453e-06 0)
(0.999455 -7.91238e-06 0)
(0.99947 -7.4385e-06 0)
(0.999485 -6.99207e-06 0)
(0.999498 -6.5723e-06 0)
(0.999511 -6.17832e-06 0)
(0.999523 -5.80929e-06 0)
(0.999534 -5.46435e-06 0)
(0.999545 -5.1426e-06 0)
(0.999555 -4.84315e-06 0)
(0.999564 -4.56513e-06 0)
(0.999573 -4.30764e-06 0)
(0.999581 -4.06977e-06 0)
(0.999589 -3.85065e-06 0)
(0.999597 -3.64938e-06 0)
(0.999604 -3.46508e-06 0)
(0.999611 -3.2969e-06 0)
(0.999617 -3.14395e-06 0)
(0.999623 -3.0054e-06 0)
(0.999629 -2.88041e-06 0)
(0.999635 -2.76814e-06 0)
(0.99964 -2.6678e-06 0)
(0.999645 -2.57859e-06 0)
(0.99965 -2.49974e-06 0)
(0.999655 -2.43049e-06 0)
(0.99966 -2.3701e-06 0)
(0.999665 -2.31787e-06 0)
(0.999669 -2.27311e-06 0)
(0.999674 -2.23515e-06 0)
(0.999678 -2.20335e-06 0)
(0.999683 -2.1771e-06 0)
(0.999687 -2.1558e-06 0)
(0.999691 -2.13889e-06 0)
(0.999696 -2.12585e-06 0)
(0.9997 -2.11615e-06 0)
(0.999704 -2.10933e-06 0)
(0.999708 -2.10491e-06 0)
(0.999712 -2.10248e-06 0)
(0.999717 -2.10162e-06 0)
(0.999721 -2.10196e-06 0)
(0.999725 -2.10315e-06 0)
(0.999729 -2.10483e-06 0)
(0.999733 -2.10671e-06 0)
(0.999738 -2.10849e-06 0)
(0.999742 -2.10989e-06 0)
(0.999746 -2.11065e-06 0)
(0.99975 -2.11053e-06 0)
(0.999755 -2.10931e-06 0)
(0.999759 -2.10677e-06 0)
(0.999763 -2.10271e-06 0)
(0.999767 -2.09694e-06 0)
(0.999771 -2.08929e-06 0)
(0.999776 -2.07959e-06 0)
(0.99978 -2.06769e-06 0)
(0.999784 -2.05345e-06 0)
(0.999788 -2.03675e-06 0)
(0.999792 -2.01747e-06 0)
(0.999796 -1.99552e-06 0)
(0.9998 -1.97082e-06 0)
(0.999804 -1.94331e-06 0)
(0.999808 -1.91295e-06 0)
(0.999812 -1.87972e-06 0)
(0.999815 -1.84363e-06 0)
(0.999819 -1.80473e-06 0)
(0.999823 -1.76308e-06 0)
(0.999826 -1.71878e-06 0)
(0.999829 -1.67197e-06 0)
(0.999833 -1.62282e-06 0)
(0.999836 -1.57154e-06 0)
(0.999839 -1.51836e-06 0)
(0.999842 -1.46357e-06 0)
(0.999845 -1.40748e-06 0)
(0.999848 -1.35043e-06 0)
(0.99985 -1.29277e-06 0)
(0.999853 -1.23488e-06 0)
(0.999855 -1.17714e-06 0)
(0.999857 -1.11995e-06 0)
(0.99986 -1.06368e-06 0)
(0.999862 -1.00868e-06 0)
(0.999864 -9.5531e-07 0)
(0.999866 -9.03865e-07 0)
(0.999867 -8.54626e-07 0)
(0.999869 -8.07837e-07 0)
(0.999871 -7.63705e-07 0)
(0.999872 -7.22411e-07 0)
(0.999873 -6.84107e-07 0)
(0.999875 -6.4892e-07 0)
(0.999876 -6.16963e-07 0)
(0.999877 -5.88332e-07 0)
(0.999878 -5.63111e-07 0)
(0.999879 -5.41368e-07 0)
(0.999881 -5.23151e-07 0)
(0.999882 -5.08478e-07 0)
(0.999883 -4.97324e-07 0)
(0.999883 -4.89609e-07 0)
(0.999884 -4.8518e-07 0)
(0.999885 -4.83796e-07 0)
(0.999886 -4.85116e-07 0)
(0.999887 -4.8869e-07 0)
(0.999888 -4.93963e-07 0)
(0.999889 -5.00283e-07 0)
(0.99989 -5.06925e-07 0)
(0.999891 -5.13124e-07 0)
(0.999892 -5.18124e-07 0)
(0.999893 -5.21228e-07 0)
(0.999894 -5.21864e-07 0)
(0.999895 -5.19635e-07 0)
(0.999896 -5.14371e-07 0)
(0.999897 -5.06154e-07 0)
(0.999898 -4.95328e-07 0)
(0.999899 -4.82484e-07 0)
(0.9999 -4.68416e-07 0)
(0.999901 -4.54063e-07 0)
(0.999902 -4.40434e-07 0)
(0.999903 -4.28526e-07 0)
(0.999904 -4.19242e-07 0)
(0.999905 -4.13328e-07 0)
(0.999906 -4.11318e-07 0)
(0.999907 -4.13502e-07 0)
(0.999908 -4.19924e-07 0)
(0.999909 -4.30389e-07 0)
(0.99991 -4.44493e-07 0)
(0.999911 -4.61669e-07 0)
(0.999912 -4.81229e-07 0)
(0.999913 -5.02418e-07 0)
(0.999914 -5.24461e-07 0)
(0.999915 -5.46601e-07 0)
(0.999916 -5.6814e-07 0)
(0.999917 -5.8846e-07 0)
(0.999919 -6.07041e-07 0)
(0.99992 -6.23469e-07 0)
(0.999921 -6.37441e-07 0)
(0.999922 -6.48757e-07 0)
(0.999924 -6.57315e-07 0)
(0.999925 -6.63098e-07 0)
(0.999926 -6.6616e-07 0)
(0.999928 -6.66618e-07 0)
(0.999929 -6.64629e-07 0)
(0.99993 -6.60387e-07 0)
(0.999932 -6.54106e-07 0)
(0.999933 -6.46013e-07 0)
(0.999934 -6.36337e-07 0)
(0.999936 -6.25305e-07 0)
(0.999937 -6.13136e-07 0)
(0.999938 -6.00037e-07 0)
(0.999939 -5.862e-07 0)
(0.99994 -5.71802e-07 0)
(0.999942 -5.57001e-07 0)
(0.999943 -5.4194e-07 0)
(0.999944 -5.26743e-07 0)
(0.999945 -5.11519e-07 0)
(0.999946 -4.96362e-07 0)
(0.999947 -4.81351e-07 0)
(0.999948 -4.66554e-07 0)
(0.999949 -4.52024e-07 0)
(0.999949 -4.37806e-07 0)
(0.99995 -4.23936e-07 0)
(0.999951 -4.10441e-07 0)
(0.999952 -3.9734e-07 0)
(0.999953 -3.84648e-07 0)
(0.999953 -3.72374e-07 0)
(0.999954 -3.60521e-07 0)
(0.999955 -3.4909e-07 0)
(0.999956 -3.38079e-07 0)
(0.999956 -3.27482e-07 0)
(0.999957 -3.17292e-07 0)
(0.999958 -3.075e-07 0)
(0.999958 -2.98096e-07 0)
(0.999959 -2.89068e-07 0)
(0.999959 -2.80405e-07 0)
(0.99996 -2.72094e-07 0)
(0.99996 -2.64122e-07 0)
(0.999961 -2.56477e-07 0)
(0.999961 -2.49144e-07 0)
(0.999962 -2.4211e-07 0)
(0.999962 -2.35364e-07 0)
(0.999963 -2.28893e-07 0)
(0.999963 -2.22683e-07 0)
(0.999964 -2.16723e-07 0)
(0.999964 -2.11001e-07 0)
(0.999965 -2.05506e-07 0)
(0.999965 -2.00227e-07 0)
(0.999965 -1.95153e-07 0)
(0.999966 -1.90274e-07 0)
(0.999966 -1.85581e-07 0)
(0.999966 -1.81063e-07 0)
(0.999967 -1.76713e-07 0)
(0.999967 -1.72521e-07 0)
(0.999967 -1.6848e-07 0)
(0.999968 -1.64581e-07 0)
(0.999968 -1.60818e-07 0)
(0.999968 -1.57183e-07 0)
(0.999969 -1.53669e-07 0)
(0.999969 -1.5027e-07 0)
(0.999969 -1.46981e-07 0)
(0.99997 -1.43789e-07 0)
(0.99997 -1.4072e-07 0)
(0.99997 -1.37635e-07 0)
(0.99997 -1.35109e-07 0)
(0.999971 -1.30599e-07 0)
(-0.0105014 0.0337237 0)
(-0.023973 0.0305398 0)
(-0.00144687 -0.00104601 0)
(-0.0185395 -0.0113836 0)
(0.0226958 0.0963695 0)
(-0.0325308 0.0846875 0)
(-0.0931342 0.00627121 0)
(-0.163375 -0.0518571 0)
(-0.184123 -0.0742285 0)
(-0.116113 -0.0937168 0)
(-0.0361386 -0.0765078 0)
(0.0167638 -0.0536226 0)
(0.0446858 -0.0384819 0)
(0.0617369 -0.0333916 0)
(0.0890109 -0.0392974 0)
(0.129966 -0.0480055 0)
(0.19265 -0.00851463 0)
(0.262206 0.036733 0)
(0.286469 0.0677219 0)
(0.279644 0.0691893 0)
(0.26435 0.0510608 0)
(0.253089 0.0274243 0)
(0.24665 0.00862004 0)
(0.238941 -0.00392933 0)
(0.229437 -0.00934308 0)
(0.21912 -0.00860878 0)
(0.211532 -0.00604023 0)
(0.209711 -0.00460288 0)
(0.213731 -0.00523321 0)
(0.222636 -0.00638548 0)
(0.233835 -0.00513525 0)
(0.244612 -0.00321052 0)
(0.254792 -0.00276978 0)
(0.265339 -0.00383931 0)
(0.276592 -0.00518355 0)
(0.288198 -0.00634618 0)
(0.299732 -0.00766595 0)
(0.311181 -0.00922822 0)
(0.322571 -0.0109489 0)
(0.333615 -0.0126768 0)
(0.344009 -0.0141141 0)
(0.353586 -0.0149624 0)
(0.362353 -0.0150576 0)
(0.37041 -0.0143989 0)
(0.377854 -0.0131302 0)
(0.384749 -0.0115217 0)
(0.391168 -0.0099205 0)
(0.397234 -0.00864539 0)
(0.403113 -0.00791667 0)
(0.408965 -0.00780871 0)
(0.414907 -0.00824241 0)
(0.420978 -0.00902491 0)
(0.427141 -0.00990161 0)
(0.433304 -0.0106255 0)
(0.439364 -0.0110216 0)
(0.445246 -0.0110298 0)
(0.450921 -0.010715 0)
(0.456406 -0.0102343 0)
(0.461763 -0.00977647 0)
(0.467085 -0.0095004 0)
(0.472474 -0.00949234 0)
(0.478012 -0.00974753 0)
(0.483727 -0.0101889 0)
(0.48958 -0.0107071 0)
(0.495478 -0.0111985 0)
(0.501304 -0.0115878 0)
(0.506938 -0.0118386 0)
(0.51229 -0.0119557 0)
(0.5173 -0.0119808 0)
(0.521957 -0.0119772 0)
(0.526295 -0.0120053 0)
(0.530376 -0.0120958 0)
(0.534286 -0.0122382 0)
(0.53813 -0.0123709 0)
(0.542027 -0.0123614 0)
(0.54596 -0.0119723 0)
(0.549778 -0.0113421 0)
(0.553519 -0.0109621 0)
(0.557457 -0.0107553 0)
(0.5617 -0.0105611 0)
(0.566205 -0.0103396 0)
(0.570935 -0.0100915 0)
(0.575869 -0.00983321 0)
(0.580996 -0.00959554 0)
(0.586311 -0.00941547 0)
(0.591811 -0.00932344 0)
(0.5975 -0.00933245 0)
(0.603385 -0.00943498 0)
(0.609472 -0.00960891 0)
(0.615766 -0.00981484 0)
(0.622229 -0.00997253 0)
(0.628741 -0.0100087 0)
(0.63523 -0.0100333 0)
(0.641758 -0.0101173 0)
(0.648395 -0.0102371 0)
(0.655157 -0.0103665 0)
(0.66204 -0.0104928 0)
(0.66904 -0.0106046 0)
(0.676147 -0.0106842 0)
(0.683333 -0.0107084 0)
(0.690551 -0.0106535 0)
(0.697728 -0.0104982 0)
(0.704773 -0.0102702 0)
(0.711664 -0.0100758 0)
(0.718468 -0.00996724 0)
(0.725254 -0.00991365 0)
(0.732039 -0.0098746 0)
(0.738807 -0.00982136 0)
(0.745521 -0.00973261 0)
(0.75213 -0.00960922 0)
(0.758611 -0.00948858 0)
(0.76499 -0.00940204 0)
(0.771306 -0.00934049 0)
(0.777574 -0.00927801 0)
(0.78378 -0.00919689 0)
(0.789907 -0.00909689 0)
(0.795949 -0.0089928 0)
(0.801914 -0.00889449 0)
(0.807814 -0.00879732 0)
(0.813648 -0.0086937 0)
(0.819409 -0.00858265 0)
(0.825093 -0.00846795 0)
(0.8307 -0.00835129 0)
(0.836229 -0.00823054 0)
(0.841677 -0.00810386 0)
(0.847038 -0.00797159 0)
(0.85231 -0.00783433 0)
(0.857489 -0.0076918 0)
(0.862572 -0.00754383 0)
(0.867554 -0.00739091 0)
(0.872432 -0.00723359 0)
(0.877204 -0.0070722 0)
(0.881868 -0.0069072 0)
(0.886419 -0.00673915 0)
(0.890858 -0.00656854 0)
(0.895182 -0.00639586 0)
(0.899389 -0.00622163 0)
(0.90348 -0.00604634 0)
(0.907454 -0.00587042 0)
(0.911309 -0.00569431 0)
(0.915047 -0.00551837 0)
(0.918668 -0.00534295 0)
(0.922172 -0.00516834 0)
(0.925559 -0.00499483 0)
(0.928831 -0.00482267 0)
(0.931988 -0.00465209 0)
(0.935033 -0.00448334 0)
(0.937965 -0.00431667 0)
(0.940787 -0.00415233 0)
(0.943499 -0.0039906 -1.90436e-41)
(0.946105 -0.00383175 -1.97456e-41)
(0.948605 -0.00367609 0)
(0.951003 -0.00352386 0)
(0.9533 -0.00337533 0)
(0.9555 -0.0032307 0)
(0.957604 -0.00309017 0)
(0.959616 -0.00295387 0)
(0.961538 -0.00282193 0)
(0.963374 -0.00269442 0)
(0.965126 -0.0025714 0)
(0.966797 -0.00245289 0)
(0.968391 -0.00233888 0)
(0.969911 -0.00222937 0)
(0.971359 -0.0021243 0)
(0.972739 -0.00202362 0)
(0.974052 -0.00192726 0)
(0.975304 -0.00183512 0)
(0.976495 -0.0017471 0)
(0.977629 -0.00166309 0)
(0.978708 -0.00158297 0)
(0.979735 -0.00150661 0)
(0.980713 -0.00143387 0)
(0.981643 -0.00136461 0)
(0.982528 -0.00129869 0)
(0.983371 -0.00123597 0)
(0.984173 -0.00117631 0)
(0.984936 -0.00111956 0)
(0.985662 -0.0010656 0)
(0.986354 -0.00101428 0)
(0.987012 -0.000965471 0)
(0.987638 -0.000919048 0)
(0.988235 -0.000874883 0)
(0.988802 -0.000832853 0)
(0.989343 -0.000792838 0)
(0.989857 -0.000754722 0)
(0.990347 -0.000718395 0)
(0.990813 -0.00068375 0)
(0.991257 -0.000650689 0)
(0.991679 -0.000619121 0)
(0.992081 -0.000588964 0)
(0.992463 -0.000560144 0)
(0.992826 -0.000532597 0)
(0.993172 -0.000506266 0)
(0.9935 -0.000481102 0)
(0.993812 -0.000457064 0)
(0.994108 -0.000434115 0)
(0.994389 -0.000412222 0)
(0.994656 -0.000391354 0)
(0.99491 -0.000371484 0)
(0.99515 -0.000352582 0)
(0.995379 -0.000334619 0)
(0.995596 -0.000317567 0)
(0.995801 -0.000301395 0)
(0.995996 -0.00028607 0)
(0.996182 -0.000271561 0)
(0.996357 -0.000257833 0)
(0.996524 -0.000244851 0)
(0.996683 -0.000232582 0)
(0.996834 -0.000220989 0)
(0.996977 -0.00021004 0)
(0.997113 -0.000199698 0)
(0.997242 -0.000189932 0)
(0.997365 -0.000180708 0)
(0.997483 -0.000171994 0)
(0.997594 -0.000163759 0)
(0.9977 -0.000155973 0)
(0.997802 -0.000148608 0)
(0.997898 -0.000141634 0)
(0.99799 -0.000135027 0)
(0.998078 -0.00012876 0)
(0.998161 -0.000122809 0)
(0.998241 -0.000117151 0)
(0.998317 -0.000111764 0)
(0.99839 -0.000106629 0)
(0.998459 -0.000101727 0)
(0.998525 -9.70414e-05 0)
(0.998588 -9.25562e-05 0)
(0.998648 -8.82576e-05 0)
(0.998705 -8.41333e-05 0)
(0.99876 -8.01724e-05 0)
(0.998812 -7.63652e-05 0)
(0.998862 -7.27034e-05 0)
(0.998909 -6.91799e-05 0)
(0.998954 -6.57886e-05 0)
(0.998997 -6.25243e-05 0)
(0.999037 -5.93826e-05 0)
(0.999076 -5.63598e-05 0)
(0.999112 -5.34528e-05 0)
(0.999147 -5.06587e-05 0)
(0.999179 -4.79753e-05 0)
(0.999211 -4.54004e-05 0)
(0.99924 -4.2932e-05 0)
(0.999268 -4.05684e-05 0)
(0.999294 -3.83076e-05 0)
(0.999319 -3.61481e-05 0)
(0.999342 -3.40878e-05 0)
(0.999364 -3.21252e-05 0)
(0.999385 -3.02581e-05 0)
(0.999404 -2.84847e-05 0)
(0.999423 -2.68028e-05 0)
(0.99944 -2.52103e-05 0)
(0.999456 -2.3705e-05 0)
(0.999471 -2.22845e-05 0)
(0.999486 -2.09465e-05 0)
(0.999499 -1.96883e-05 0)
(0.999512 -1.85076e-05 0)
(0.999524 -1.74017e-05 0)
(0.999535 -1.63681e-05 0)
(0.999545 -1.5404e-05 0)
(0.999555 -1.45068e-05 0)
(0.999565 -1.36738e-05 0)
(0.999574 -1.29024e-05 0)
(0.999582 -1.21899e-05 0)
(0.99959 -1.15335e-05 0)
(0.999597 -1.09307e-05 0)
(0.999604 -1.03788e-05 0)
(0.999611 -9.87518e-06 0)
(0.999617 -9.41726e-06 0)
(0.999623 -9.0025e-06 0)
(0.999629 -8.62837e-06 0)
(0.999635 -8.29242e-06 0)
(0.99964 -7.99221e-06 0)
(0.999646 -7.72537e-06 0)
(0.999651 -7.48957e-06 0)
(0.999655 -7.28256e-06 0)
(0.99966 -7.10213e-06 0)
(0.999665 -6.94614e-06 0)
(0.999669 -6.81252e-06 0)
(0.999674 -6.69928e-06 0)
(0.999678 -6.6045e-06 0)
(0.999683 -6.52632e-06 0)
(0.999687 -6.46299e-06 0)
(0.999691 -6.41281e-06 0)
(0.999696 -6.37419e-06 0)
(0.9997 -6.34558e-06 0)
(0.999704 -6.32555e-06 0)
(0.999708 -6.31274e-06 0)
(0.999712 -6.30584e-06 0)
(0.999717 -6.30366e-06 0)
(0.999721 -6.30504e-06 0)
(0.999725 -6.30892e-06 0)
(0.999729 -6.3143e-06 0)
(0.999733 -6.32023e-06 0)
(0.999738 -6.32584e-06 0)
(0.999742 -6.3303e-06 0)
(0.999746 -6.33283e-06 0)
(0.99975 -6.3327e-06 0)
(0.999755 -6.32925e-06 0)
(0.999759 -6.32182e-06 0)
(0.999763 -6.30983e-06 0)
(0.999767 -6.29269e-06 0)
(0.999771 -6.2699e-06 0)
(0.999776 -6.24095e-06 0)
(0.99978 -6.20539e-06 0)
(0.999784 -6.16281e-06 0)
(0.999788 -6.11282e-06 0)
(0.999792 -6.05509e-06 0)
(0.999796 -5.98932e-06 0)
(0.9998 -5.91528e-06 0)
(0.999804 -5.83278e-06 0)
(0.999808 -5.7417e-06 0)
(0.999812 -5.64199e-06 0)
(0.999815 -5.53369e-06 0)
(0.999819 -5.41689e-06 0)
(0.999823 -5.29181e-06 0)
(0.999826 -5.15875e-06 0)
(0.999829 -5.01811e-06 0)
(0.999833 -4.87041e-06 0)
(0.999836 -4.71627e-06 0)
(0.999839 -4.55641e-06 0)
(0.999842 -4.39168e-06 0)
(0.999845 -4.223e-06 0)
(0.999848 -4.05138e-06 0)
(0.99985 -3.87791e-06 0)
(0.999853 -3.70372e-06 0)
(0.999855 -3.52998e-06 0)
(0.999858 -3.35787e-06 0)
(0.99986 -3.18853e-06 0)
(0.999862 -3.02307e-06 0)
(0.999864 -2.86254e-06 0)
(0.999866 -2.70787e-06 0)
(0.999867 -2.55993e-06 0)
(0.999869 -2.41942e-06 0)
(0.999871 -2.28695e-06 0)
(0.999872 -2.16301e-06 0)
(0.999873 -2.04795e-06 0)
(0.999875 -1.94206e-06 0)
(0.999876 -1.84553e-06 0)
(0.999877 -1.7585e-06 0)
(0.999878 -1.68108e-06 0)
(0.999879 -1.61336e-06 0)
(0.999881 -1.5554e-06 0)
(0.999882 -1.50725e-06 0)
(0.999883 -1.46894e-06 0)
(0.999884 -1.44041e-06 0)
(0.999884 -1.42147e-06 0)
(0.999885 -1.41178e-06 0)
(0.999886 -1.41079e-06 0)
(0.999887 -1.41764e-06 0)
(0.999888 -1.43121e-06 0)
(0.999889 -1.45003e-06 0)
(0.99989 -1.47239e-06 0)
(0.999891 -1.49635e-06 0)
(0.999892 -1.51986e-06 0)
(0.999893 -1.5409e-06 0)
(0.999894 -1.55763e-06 0)
(0.999895 -1.56856e-06 0)
(0.999896 -1.57268e-06 0)
(0.999897 -1.56958e-06 0)
(0.999898 -1.55949e-06 0)
(0.999899 -1.54333e-06 0)
(0.9999 -1.52259e-06 0)
(0.999901 -1.49922e-06 0)
(0.999902 -1.47549e-06 0)
(0.999903 -1.45375e-06 0)
(0.999904 -1.43628e-06 0)
(0.999905 -1.42504e-06 0)
(0.999906 -1.42159e-06 0)
(0.999907 -1.42694e-06 0)
(0.999908 -1.44154e-06 0)
(0.999909 -1.46525e-06 0)
(0.99991 -1.49738e-06 0)
(0.999911 -1.53682e-06 0)
(0.999912 -1.58208e-06 0)
(0.999913 -1.63147e-06 0)
(0.999914 -1.68316e-06 0)
(0.999915 -1.73533e-06 0)
(0.999916 -1.78623e-06 0)
(0.999917 -1.83427e-06 0)
(0.999919 -1.87809e-06 0)
(0.99992 -1.91658e-06 0)
(0.999921 -1.94888e-06 0)
(0.999922 -1.97438e-06 0)
(0.999924 -1.99276e-06 0)
(0.999925 -2.00389e-06 0)
(0.999926 -2.00785e-06 0)
(0.999928 -2.00489e-06 0)
(0.999929 -1.99538e-06 0)
(0.99993 -1.9798e-06 0)
(0.999932 -1.95869e-06 0)
(0.999933 -1.93264e-06 0)
(0.999934 -1.90226e-06 0)
(0.999936 -1.86815e-06 0)
(0.999937 -1.8309e-06 0)
(0.999938 -1.79109e-06 0)
(0.999939 -1.74925e-06 0)
(0.99994 -1.70585e-06 0)
(0.999942 -1.66136e-06 0)
(0.999943 -1.61617e-06 0)
(0.999944 -1.57063e-06 0)
(0.999945 -1.52506e-06 0)
(0.999946 -1.47972e-06 0)
(0.999947 -1.43485e-06 0)
(0.999948 -1.39063e-06 0)
(0.999949 -1.34722e-06 0)
(0.999949 -1.30476e-06 0)
(0.99995 -1.26334e-06 0)
(0.999951 -1.22305e-06 0)
(0.999952 -1.18394e-06 0)
(0.999953 -1.14605e-06 0)
(0.999953 -1.10941e-06 0)
(0.999954 -1.07403e-06 0)
(0.999955 -1.03992e-06 0)
(0.999956 -1.00705e-06 0)
(0.999956 -9.7543e-07 0)
(0.999957 -9.45022e-07 0)
(0.999958 -9.15803e-07 0)
(0.999958 -8.87742e-07 0)
(0.999959 -8.60807e-07 0)
(0.999959 -8.3496e-07 0)
(0.99996 -8.10164e-07 0)
(0.99996 -7.86381e-07 0)
(0.999961 -7.63572e-07 0)
(0.999961 -7.41697e-07 0)
(0.999962 -7.20718e-07 0)
(0.999962 -7.00596e-07 0)
(0.999963 -6.81293e-07 0)
(0.999963 -6.62773e-07 0)
(0.999964 -6.44998e-07 0)
(0.999964 -6.27935e-07 0)
(0.999965 -6.11549e-07 0)
(0.999965 -5.95807e-07 0)
(0.999965 -5.80678e-07 0)
(0.999966 -5.66132e-07 0)
(0.999966 -5.52139e-07 0)
(0.999966 -5.38672e-07 0)
(0.999967 -5.25703e-07 0)
(0.999967 -5.13208e-07 0)
(0.999967 -5.01162e-07 0)
(0.999968 -4.89542e-07 0)
(0.999968 -4.78325e-07 0)
(0.999968 -4.67491e-07 0)
(0.999969 -4.57019e-07 0)
(0.999969 -4.46889e-07 0)
(0.999969 -4.37089e-07 0)
(0.99997 -4.27578e-07 0)
(0.99997 -4.18434e-07 0)
(0.99997 -4.09241e-07 0)
(0.99997 -4.01712e-07 0)
(0.999971 -3.88335e-07 0)
(-0.0153245 0.0497087 0)
(-0.0122726 0.0226053 0)
(-0.0632589 -0.0214075 0)
(-0.1593 -0.022152 0)
(-0.177899 -0.0185169 0)
(-0.161325 0.0392355 0)
(-0.137387 0.0842497 0)
(-0.242169 0.0673561 0)
(-0.149325 -0.067182 0)
(0.00632484 -0.171856 0)
(0.154898 -0.121204 0)
(0.262135 -0.0541432 0)
(0.0733466 -0.0752329 0)
(0.0575569 -0.0780071 0)
(0.0762442 -0.0830167 0)
(0.0864518 -0.102137 0)
(0.0956406 -0.091615 0)
(0.113056 -0.052514 0)
(0.136727 -0.00110789 0)
(0.172395 0.0199452 0)
(0.194183 0.0168556 0)
(0.212141 0.00329997 0)
(0.218529 -7.64511e-06 0)
(0.218466 0.0038405 0)
(0.216667 0.00740889 0)
(0.217237 0.00668604 0)
(0.222093 0.000568839 0)
(0.228974 -0.00758129 0)
(0.235657 -0.015857 0)
(0.240405 -0.023002 0)
(0.245077 -0.0237176 0)
(0.249917 -0.0224208 0)
(0.254631 -0.0220918 0)
(0.2599 -0.0237765 0)
(0.264733 -0.0255257 0)
(0.268891 -0.0256537 0)
(0.271331 -0.0249912 0)
(0.273225 -0.024159 0)
(0.274411 -0.0233068 0)
(0.274446 -0.0224418 0)
(0.273554 -0.0216039 0)
(0.272654 -0.0208235 0)
(0.273223 -0.0201588 0)
(0.276848 -0.019665 0)
(0.284499 -0.0193265 0)
(0.295898 -0.0190495 0)
(0.309902 -0.0187637 0)
(0.325153 -0.0184544 0)
(0.340442 -0.0181138 0)
(0.354917 -0.0177368 0)
(0.368118 -0.0173289 0)
(0.379967 -0.0169063 0)
(0.390711 -0.016499 0)
(0.400881 -0.0161435 0)
(0.411136 -0.0158633 0)
(0.422056 -0.0156566 0)
(0.433959 -0.0155044 0)
(0.446799 -0.0153895 0)
(0.460196 -0.01531 0)
(0.473588 -0.0152773 0)
(0.486427 -0.0153013 0)
(0.498325 -0.0153751 0)
(0.509091 -0.015471 0)
(0.518723 -0.0155489 0)
(0.527368 -0.0155649 0)
(0.535264 -0.0154769 0)
(0.54267 -0.0152497 0)
(0.549788 -0.014859 0)
(0.556708 -0.0142991 0)
(0.563394 -0.0135911 0)
(0.569726 -0.0127844 0)
(0.575603 -0.0119626 0)
(0.581035 -0.011239 0)
(0.586121 -0.0107745 0)
(0.591212 -0.0106949 0)
(0.596143 -0.0105423 0)
(0.600521 -0.0098359 0)
(0.604017 -0.00989429 0)
(0.607197 -0.0105582 0)
(0.610213 -0.0113196 0)
(0.613044 -0.0120291 0)
(0.615754 -0.0126958 0)
(0.61844 -0.0133301 0)
(0.621197 -0.0139274 0)
(0.624113 -0.0144839 0)
(0.627254 -0.0150082 0)
(0.630652 -0.0155133 0)
(0.634305 -0.0159951 0)
(0.638198 -0.0164533 0)
(0.642324 -0.0168515 0)
(0.646657 -0.0170198 0)
(0.651014 -0.0168044 0)
(0.65526 -0.0167016 0)
(0.659529 -0.0168023 0)
(0.663937 -0.0169739 0)
(0.668504 -0.0171587 0)
(0.673242 -0.017342 0)
(0.678188 -0.017507 0)
(0.683378 -0.0176304 0)
(0.68883 -0.0176916 0)
(0.694539 -0.0176651 0)
(0.700431 -0.0174827 0)
(0.706341 -0.0171402 0)
(0.712222 -0.0168802 0)
(0.718223 -0.0168065 0)
(0.724451 -0.0168295 0)
(0.730893 -0.016851 0)
(0.737497 -0.016805 0)
(0.744181 -0.0166404 0)
(0.750829 -0.0163574 0)
(0.757369 -0.0160706 0)
(0.763839 -0.0158685 0)
(0.770299 -0.0157239 0)
(0.776754 -0.0155796 0)
(0.783158 -0.0154018 0)
(0.789459 -0.0151937 0)
(0.795638 -0.0149931 0)
(0.801715 -0.0148207 0)
(0.807714 -0.0146597 0)
(0.813631 -0.0144885 0)
(0.819454 -0.014303 0)
(0.82518 -0.0141127 0)
(0.830817 -0.0139213 0)
(0.836369 -0.0137223 0)
(0.841833 -0.0135115 0)
(0.847205 -0.0132908 0)
(0.852485 -0.0130623 0)
(0.85767 -0.012825 0)
(0.862758 -0.0125785 0)
(0.867745 -0.0123238 0)
(0.872628 -0.0120618 0)
(0.877404 -0.0117927 0)
(0.882071 -0.0115174 0)
(0.886627 -0.0112368 0)
(0.891069 -0.0109519 0)
(0.895395 -0.0106635 0)
(0.899605 -0.0103725 0)
(0.903698 -0.0100798 0)
(0.907673 -0.00978606 0)
(0.911529 -0.00949207 0)
(0.915267 -0.00919841 0)
(0.918888 -0.00890564 0)
(0.922391 -0.00861427 0)
(0.925777 -0.00832475 0)
(0.929048 -0.00803749 0)
(0.932204 -0.00775288 0)
(0.935246 -0.00747131 0)
(0.938176 -0.00719318 0)
(0.940995 -0.00691893 0)
(0.943704 -0.00664901 0)
(0.946306 -0.00638392 0)
(0.948803 -0.00612412 0)
(0.951196 -0.0058701 0)
(0.953489 -0.00562225 0)
(0.955683 -0.00538095 0)
(0.957782 -0.00514652 0)
(0.959789 -0.00491918 0)
(0.961706 -0.00469915 0)
(0.963536 -0.00448653 0)
(0.965282 -0.00428142 0)
(0.966948 -0.00408385 0)
(0.968536 -0.00389383 0)
(0.97005 -0.0037113 0)
(0.971493 -0.00353621 0)
(0.972867 -0.00336846 0)
(0.974175 -0.00320792 0)
(0.975421 -0.00305443 0)
(0.976607 -0.00290783 0)
(0.977736 -0.00276792 0)
(0.97881 -0.0026345 0)
(0.979832 -0.00250735 0)
(0.980805 -0.00238624 0)
(0.981731 -0.00227094 0)
(0.982612 -0.00216121 0)
(0.983451 -0.00205681 0)
(0.984249 -0.00195751 0)
(0.985008 -0.00186307 0)
(0.985731 -0.00177327 0)
(0.986419 -0.00168787 0)
(0.987074 -0.00160666 0)
(0.987698 -0.00152942 0)
(0.988291 -0.00145594 0)
(0.988856 -0.00138602 0)
(0.989394 -0.00131946 0)
(0.989906 -0.00125605 0)
(0.990394 -0.00119562 0)
(0.990858 -0.00113798 0)
(0.991299 -0.00108298 0)
(0.99172 -0.00103045 0)
(0.99212 -0.00098026 0)
(0.9925 -0.000932286 0)
(0.992862 -0.00088642 0)
(0.993206 -0.000842571 0)
(0.993532 -0.000800657 0)
(0.993843 -0.000760612 0)
(0.994138 -0.000722377 0)
(0.994418 -0.000685898 0)
(0.994683 -0.000651127 0)
(0.994936 -0.000618019 0)
(0.995175 -0.000586528 0)
(0.995402 -0.000556606 0)
(0.995618 -0.000528205 0)
(0.995822 -0.000501274 0)
(0.996016 -0.000475761 0)
(0.9962 -0.00045161 0)
(0.996375 -0.000428765 0)
(0.996541 -0.000407167 0)
(0.996699 -0.000386758 0)
(0.996849 -0.00036748 0)
(0.996991 -0.000349273 0)
(0.997126 -0.000332081 0)
(0.997255 -0.000315848 0)
(0.997377 -0.000300517 0)
(0.997494 -0.000286037 0)
(0.997605 -0.000272353 0)
(0.99771 -0.000259417 0)
(0.997811 -0.00024718 0)
(0.997907 -0.000235596 0)
(0.997998 -0.000224618 0)
(0.998086 -0.000214206 0)
(0.998169 -0.000204318 0)
(0.998248 -0.000194917 0)
(0.998324 -0.000185966 0)
(0.998396 -0.000177432 0)
(0.998465 -0.000169284 0)
(0.998531 -0.000161495 0)
(0.998594 -0.000154037 0)
(0.998654 -0.000146889 0)
(0.998711 -0.000140029 0)
(0.998765 -0.00013344 0)
(0.998817 -0.000127106 0)
(0.998867 -0.000121013 0)
(0.998914 -0.000115149 0)
(0.998958 -0.000109504 0)
(0.999001 -0.000104069 0)
(0.999041 -9.88387e-05 0)
(0.99908 -9.38055e-05 0)
(0.999116 -8.89645e-05 0)
(0.99915 -8.43114e-05 0)
(0.999183 -7.98422e-05 0)
(0.999214 -7.55535e-05 0)
(0.999243 -7.14421e-05 0)
(0.999271 -6.7505e-05 0)
(0.999297 -6.37393e-05 0)
(0.999321 -6.0142e-05 0)
(0.999345 -5.67104e-05 0)
(0.999366 -5.34412e-05 0)
(0.999387 -5.03314e-05 0)
(0.999406 -4.73777e-05 0)
(0.999425 -4.45766e-05 0)
(0.999442 -4.19246e-05 0)
(0.999458 -3.9418e-05 0)
(0.999473 -3.70528e-05 0)
(0.999487 -3.4825e-05 0)
(0.999501 -3.27305e-05 0)
(0.999513 -3.07652e-05 0)
(0.999525 -2.89246e-05 0)