/*--------------------------------*- C++ -*----------------------------------*\
| =========                 |                                                 |
| \\      /  F ield         | OpenFOAM: The Open Source CFD Toolbox           |
|  \\    /   O peration     | Version:  v2006                                 |
|   \\  /    A nd           | Website:  www.openfoam.com                      |
|    \\/     M anipulation  |                                                 |
\*---------------------------------------------------------------------------*/
FoamFile
{
    version     2.0;
    format      ascii;
    class       volVectorField;
    location    "0";
    object      U;
}
// * * * * * * * * * * * * * * * * * * * * * * * * * * * * * * * * * * * * * //

dimensions      [0 1 -1 0 0 0 0];


internalField   nonuniform List<vector> 
67500
(
(-0.0111143 -0.00455725 0)
(-0.00995829 -0.00493767 0)
(0.00157956 0.0127155 0)
(-0.0152794 0.0294441 0)
(-0.0143984 0.00639883 0)
(0.0134415 0.00125358 0)
(0.0290499 0.00554475 0)
(0.0420317 0.00693269 0)
(0.0320852 0.0118883 0)
(0.0101259 0.00762263 0)
(-0.00474888 0.00273119 0)
(-0.0125559 0.00100597 0)
(-0.0221489 0.00162695 0)
(-0.0388563 0.00310678 0)
(-0.0567187 0.00301691 0)
(-0.0684461 0.000578027 0)
(-0.0672665 -0.0040631 0)
(-0.0504926 -0.00840706 0)
(-0.0246753 -0.00867248 0)
(-0.00214179 -0.00378249 0)
(0.00917978 0.00366211 0)
(0.0062457 0.00880755 0)
(-0.00380072 0.0086533 0)
(-0.0130993 0.00511044 0)
(-0.0190004 0.00177317 0)
(-0.0221292 0.000252075 0)
(-0.0232007 -0.000271479 0)
(-0.0228773 -0.000665126 0)
(-0.021772 -0.000969408 0)
(-0.0202578 -0.0012635 0)
(-0.018286 -0.00139834 0)
(-0.0159401 -0.00117325 0)
(-0.0137196 -0.000818792 0)
(-0.0119795 -0.000615331 0)
(-0.0107041 -0.000639983 0)
(-0.00974138 -0.000771487 0)
(-0.00904419 -0.000864327 0)
(-0.00865381 -0.000848929 0)
(-0.00859231 -0.000704898 0)
(-0.00883002 -0.00043776 0)
(-0.00929374 -9.93141e-05 0)
(-0.0098601 0.000220016 0)
(-0.0103596 0.000434675 0)
(-0.0106191 0.000504522 0)
(-0.0105178 0.000441948 0)
(-0.0100203 0.00029356 0)
(-0.00917629 0.0001169 0)
(-0.00809604 -4.32953e-05 0)
(-0.00691084 -0.000165365 0)
(-0.00573712 -0.000248393 0)
(-0.00465669 -0.000301747 0)
(-0.00371285 -0.00033764 0)
(-0.00291597 -0.000365505 0)
(-0.00225491 -0.000388172 0)
(-0.00170894 -0.000403702 0)
(-0.00125754 -0.000406961 0)
(-0.000887941 -0.000392888 0)
(-0.000598565 -0.000359426 0)
(-0.000398682 -0.000307247 0)
(-0.000305907 -0.000238981 0)
(-0.000341173 -0.000158931 0)
(-0.000522755 -7.18009e-05 0)
(-0.000861995 1.83702e-05 0)
(-0.00136009 0.000106817 0)
(-0.0020052 0.000187168 0)
(-0.00277096 0.000251764 0)
(-0.00361738 0.000293699 0)
(-0.00449488 0.000309152 0)
(-0.0053494 0.000296379 0)
(-0.00612852 0.000257733 0)
(-0.00679015 0.000198644 0)
(-0.00730675 0.000123895 0)
(-0.00766553 3.9171e-05 0)
(-0.00786789 -4.86813e-05 0)
(-0.00792562 -0.000134101 0)
(-0.00785796 -0.00020998 0)
(-0.00768885 -0.000273066 0)
(-0.00744191 -0.000321149 0)
(-0.0071377 -0.000353637 0)
(-0.00679383 -0.000368754 0)
(-0.00642607 -0.000366645 0)
(-0.00604712 -0.00034915 0)
(-0.0056668 -0.000318766 0)
(-0.00529368 -0.000278632 0)
(-0.00493542 -0.000232804 0)
(-0.00459898 -0.000184945 0)
(-0.00429123 -0.000138234 0)
(-0.00401837 -9.53157e-05 0)
(-0.00378535 -5.77066e-05 0)
(-0.00359597 -2.59135e-05 0)
(-0.00345255 -2.97826e-07 0)
(-0.00335483 1.89723e-05 0)
(-0.00330038 3.26729e-05 0)
(-0.00328524 4.1245e-05 0)
(-0.00330445 4.55086e-05 0)
(-0.00335236 4.61915e-05 0)
(-0.00342225 4.35337e-05 0)
(-0.00350711 3.88619e-05 0)
(-0.00360092 3.33155e-05 0)
(-0.00369834 2.77129e-05 0)
(-0.0037944 2.25128e-05 0)
(-0.00388545 1.84307e-05 0)
(-0.00396986 1.58303e-05 0)
(-0.00404753 1.47863e-05 0)
(-0.00411949 1.52517e-05 0)
(-0.00418759 1.71067e-05 0)
(-0.00425416 2.02303e-05 0)
(-0.00432153 2.43542e-05 0)
(-0.0043918 2.92583e-05 0)
(-0.00446669 3.4742e-05 0)
(-0.00454757 4.06479e-05 0)
(-0.00463574 4.70627e-05 0)
(-0.00473274 5.41138e-05 0)
(-0.00484016 6.17339e-05 0)
(-0.00495913 6.95837e-05 0)
(-0.00508991 7.72883e-05 0)
(-0.00523223 8.44334e-05 0)
(-0.00538488 9.0247e-05 0)
(-0.00554501 9.39051e-05 0)
(-0.00570885 9.53399e-05 0)
(-0.00587329 9.49941e-05 0)
(-0.00603636 9.32787e-05 0)
(-0.00619688 9.04902e-05 0)
(-0.00635395 8.68374e-05 0)
(-0.00650668 8.24368e-05 0)
(-0.00665404 7.73788e-05 0)
(-0.00679473 7.16346e-05 0)
(-0.00692679 6.49855e-05 0)
(-0.00704754 5.73198e-05 0)
(-0.00715431 4.89093e-05 0)
(-0.00724531 4.01764e-05 0)
(-0.00731963 3.13967e-05 0)
(-0.00737682 2.26682e-05 0)
(-0.00741655 1.396e-05 0)
(-0.00743842 5.13211e-06 0)
(-0.0074418 -3.96226e-06 0)
(-0.00742602 -1.3321e-05 0)
(-0.00739067 -2.28033e-05 0)
(-0.0073358 -3.22556e-05 0)
(-0.00726177 -4.15725e-05 0)
(-0.00716908 -5.07029e-05 0)
(-0.00705825 -5.96233e-05 0)
(-0.0069298 -6.82837e-05 0)
(-0.00678438 -7.65954e-05 0)
(-0.00662279 -8.44716e-05 0)
(-0.00644596 -9.18609e-05 0)
(-0.0062549 -9.87441e-05 0)
(-0.00605059 -0.00010511 0)
(-0.00583407 -0.000110942 0)
(-0.00560642 -0.000116228 0)
(-0.00536873 -0.000120967 0)
(-0.0051221 -0.000125161 0)
(-0.00486762 -0.000128813 0)
(-0.00460639 -0.000131925 0)
(-0.00433948 -0.000134504 0)
(-0.00406796 -0.000136558 0)
(-0.00379286 -0.000138096 0)
(-0.00351521 -0.000139132 0)
(-0.00323599 -0.00013968 0)
(-0.00295617 -0.000139756 0)
(-0.00267667 -0.000139379 0)
(-0.00239838 -0.000138569 0)
(-0.00212215 -0.000137345 0)
(-0.00184877 -0.00013573 0)
(-0.00157902 -0.000133748 0)
(-0.0013136 -0.000131425 0)
(-0.00105317 -0.000128788 0)
(-0.000798315 -0.000125869 0)
(-0.000549583 -0.000122702 0)
(-0.00030743 -0.000119324 0)
(-7.22401e-05 -0.000115773 0)
(0.000155681 -0.00011209 0)
(0.000376109 -0.000108314 0)
(0.000588897 -0.000104483 0)
(0.000793975 -0.000100632 0)
(0.000991339 -9.67935e-05 0)
(0.00118104 -9.29943e-05 0)
(0.0013632 -8.9258e-05 0)
(0.00153794 -8.56033e-05 0)
(0.00170547 -8.20449e-05 0)
(0.00186598 -7.85937e-05 0)
(0.0020197 -7.52575e-05 0)
(0.00216687 -7.20411e-05 0)
(0.00230772 -6.89471e-05 0)
(0.00244251 -6.59762e-05 0)
(0.00257149 -6.31276e-05 0)
(0.00269489 -6.03991e-05 0)
(0.00281296 -5.77878e-05 0)
(0.00292592 -5.529e-05 0)
(0.003034 -5.29015e-05 0)
(0.00313742 -5.06177e-05 0)
(0.00323636 -4.84338e-05 0)
(0.00333104 -4.63449e-05 0)
(0.00342164 -4.4346e-05 0)
(0.00350832 -4.24321e-05 0)
(0.00359126 -4.05982e-05 0)
(0.00367061 -3.88396e-05 0)
(0.00374652 -3.71517e-05 0)
(0.00381911 -3.553e-05 0)
(0.00388853 -3.39705e-05 0)
(0.0039549 -3.24692e-05 0)
(0.00401831 -3.10225e-05 0)
(0.00407889 -2.96271e-05 0)
(0.00413672 -2.828e-05 0)
(0.00419191 -2.69787e-05 0)
(0.00424454 -2.57207e-05 0)
(0.0042947 -2.45041e-05 0)
(0.00434248 -2.33274e-05 0)
(0.00438794 -2.21891e-05 0)
(0.00443116 -2.10884e-05 0)
(0.00447223 -2.00247e-05 0)
(0.00451121 -1.89975e-05 0)
(0.00454817 -1.80067e-05 0)
(0.0045832 -1.70526e-05 0)
(0.00461636 -1.61352e-05 0)
(0.00464773 -1.5255e-05 0)
(0.00467738 -1.44123e-05 0)
(0.00470538 -1.36075e-05 0)
(0.00473182 -1.28408e-05 0)
(0.00475677 -1.21125e-05 0)
(0.00478031 -1.14225e-05 0)
(0.0048025 -1.07707e-05 0)
(0.00482344 -1.01567e-05 0)
(0.00484318 -9.57997e-06 0)
(0.00486181 -9.03966e-06 0)
(0.0048794 -8.53483e-06 0)
(0.00489601 -8.06431e-06 0)
(0.00491171 -7.62679e-06 0)
(0.00492657 -7.2208e-06 0)
(0.00494065 -6.84475e-06 0)
(0.00495401 -6.49697e-06 0)
(0.00496669 -6.1757e-06 0)
(0.00497876 -5.87917e-06 0)
(0.00499026 -5.60554e-06 0)
(0.00500123 -5.35302e-06 0)
(0.00501171 -5.11979e-06 0)
(0.00502174 -4.9041e-06 0)
(0.00503136 -4.70421e-06 0)
(0.00504059 -4.5185e-06 0)
(0.00504946 -4.34537e-06 0)
(0.005058 -4.18336e-06 0)
(0.00506622 -4.03105e-06 0)
(0.00507415 -3.88719e-06 0)
(0.00508179 -3.75058e-06 0)
(0.00508917 -3.62017e-06 0)
(0.00509628 -3.49502e-06 0)
(0.00510316 -3.37428e-06 0)
(0.00510979 -3.25724e-06 0)
(0.0051162 -3.14328e-06 0)
(0.00512237 -3.03191e-06 0)
(0.00512833 -2.9227e-06 0)
(0.00513407 -2.81533e-06 0)
(0.0051396 -2.70957e-06 0)
(0.00514491 -2.60525e-06 0)
(0.00515002 -2.50226e-06 0)
(0.00515492 -2.40056e-06 0)
(0.00515962 -2.30013e-06 0)
(0.00516412 -2.20102e-06 0)
(0.00516842 -2.10326e-06 0)
(0.00517253 -2.00695e-06 0)
(0.00517645 -1.91216e-06 0)
(0.00518018 -1.81898e-06 0)
(0.00518372 -1.72751e-06 0)
(0.00518708 -1.63784e-06 0)
(0.00519027 -1.55004e-06 0)
(0.00519328 -1.46419e-06 0)
(0.00519612 -1.38034e-06 0)
(0.00519879 -1.29857e-06 0)
(0.00520131 -1.21889e-06 0)
(0.00520366 -1.14137e-06 0)
(0.00520587 -1.06601e-06 0)
(0.00520792 -9.92852e-07 0)
(0.00520983 -9.2191e-07 0)
(0.0052116 -8.53204e-07 0)
(0.00521324 -7.86752e-07 0)
(0.00521475 -7.22572e-07 0)
(0.00521613 -6.60686e-07 0)
(0.00521739 -6.01116e-07 0)
(0.00521853 -5.43885e-07 0)
(0.00521956 -4.89022e-07 0)
(0.00522048 -4.36555e-07 0)
(0.0052213 -3.86513e-07 0)
(0.00522202 -3.38927e-07 0)
(0.00522265 -2.93826e-07 0)
(0.0052232 -2.51237e-07 0)
(0.00522365 -2.11186e-07 0)
(0.00522404 -1.73692e-07 0)
(0.00522435 -1.38773e-07 0)
(0.00522459 -1.06439e-07 0)
(0.00522477 -7.6692e-08 0)
(0.00522489 -4.95292e-08 0)
(0.00522497 -2.49383e-08 0)
(0.00522499 -2.89875e-09 0)
(0.00522497 1.66186e-08 0)
(0.00522492 3.36519e-08 0)
(0.00522484 4.82477e-08 0)
(0.00522473 6.04617e-08 0)
(0.00522459 7.03577e-08 0)
(0.00522444 7.80074e-08 0)
(0.00522428 8.34906e-08 0)
(0.00522411 8.68942e-08 0)
(0.00522393 8.83122e-08 0)
(0.00522375 8.78453e-08 0)
(0.00522358 8.56008e-08 0)
(0.00522341 8.16915e-08 0)
(0.00522325 7.62364e-08 0)
(0.0052231 6.93591e-08 0)
(0.00522297 6.1188e-08 0)
(0.00522286 5.18551e-08 0)
(0.00522276 4.14955e-08 0)
(0.00522269 3.02465e-08 0)
(0.00522264 1.82463e-08 0)
(0.00522261 5.6338e-09 0)
(0.00522262 -7.45316e-09 0)
(0.00522264 -2.08779e-08 0)
(0.0052227 -3.4506e-08 0)
(0.00522278 -4.82057e-08 0)
(0.00522289 -6.18488e-08 0)
(0.00522303 -7.53111e-08 0)
(0.00522319 -8.84728e-08 0)
(0.00522338 -1.0122e-07 0)
(0.00522359 -1.13443e-07 0)
(0.00522383 -1.25042e-07 0)
(0.00522409 -1.35922e-07 0)
(0.00522437 -1.45998e-07 0)
(0.00522468 -1.55195e-07 0)
(0.005225 -1.63448e-07 0)
(0.00522533 -1.70705e-07 0)
(0.00522568 -1.76923e-07 0)
(0.00522604 -1.82076e-07 0)
(0.00522641 -1.86149e-07 0)
(0.00522679 -1.8914e-07 0)
(0.00522718 -1.91061e-07 0)
(0.00522756 -1.91936e-07 0)
(0.00522795 -1.918e-07 0)
(0.00522834 -1.90702e-07 0)
(0.00522873 -1.88699e-07 0)
(0.00522911 -1.85856e-07 0)
(0.00522948 -1.82248e-07 0)
(0.00522985 -1.77955e-07 0)
(0.00523021 -1.7306e-07 0)
(0.00523056 -1.67651e-07 0)
(0.00523089 -1.61817e-07 0)
(0.00523122 -1.55645e-07 0)
(0.00523153 -1.49221e-07 0)
(0.00523183 -1.42627e-07 0)
(0.00523211 -1.35939e-07 0)
(0.00523238 -1.29227e-07 0)
(0.00523264 -1.22553e-07 0)
(0.00523288 -1.15967e-07 0)
(0.0052331 -1.09512e-07 0)
(0.00523331 -1.03218e-07 0)
(0.00523351 -9.71033e-08 0)
(0.00523369 -9.11773e-08 0)
(0.00523386 -8.54368e-08 0)
(0.00523401 -7.98688e-08 0)
(0.00523415 -7.44518e-08 0)
(0.00523428 -6.91563e-08 0)
(0.0052344 -6.39467e-08 0)
(0.0052345 -5.8783e-08 0)
(0.00523459 -5.36222e-08 0)
(0.00523466 -4.84199e-08 0)
(0.00523473 -4.31322e-08 0)
(0.00523478 -3.77167e-08 0)
(0.00523482 -3.21347e-08 0)
(0.00523485 -2.63518e-08 0)
(0.00523487 -2.034e-08 0)
(0.00523487 -1.40788e-08 0)
(0.00523487 -7.55679e-09 0)
(0.00523485 -7.72941e-10 0)
(0.00523482 6.26169e-09 0)
(0.00523477 1.35226e-08 0)
(0.00523472 2.09707e-08 0)
(0.00523466 2.8551e-08 0)
(0.00523458 3.61917e-08 0)
(0.0052345 4.38042e-08 0)
(0.0052344 5.12833e-08 0)
(0.00523429 5.85086e-08 0)
(0.00523418 6.53466e-08 0)
(0.00523405 7.16545e-08 0)
(0.00523392 7.7285e-08 0)
(0.00523378 8.20921e-08 0)
(0.00523364 8.59377e-08 0)
(0.0052335 8.86988e-08 0)
(0.00523335 9.02739e-08 0)
(0.0052332 9.059e-08 0)
(0.00523306 8.9607e-08 0)
(0.00523291 8.73216e-08 0)
(0.00523278 8.37683e-08 0)
(0.00523265 7.9019e-08 0)
(0.00523253 7.31796e-08 0)
(0.00523243 6.63855e-08 0)
(0.00523233 5.87954e-08 0)
(0.00523225 5.05836e-08 0)
(0.00523219 4.1933e-08 0)
(0.00523214 3.30271e-08 0)
(0.0052321 2.40436e-08 0)
(0.00523208 1.51483e-08 0)
(0.00523208 6.49042e-09 0)
(0.00523209 -1.80051e-09 0)
(0.00523211 -9.61702e-09 0)
(0.00523215 -1.68744e-08 0)
(0.0052322 -2.35103e-08 0)
(0.00523226 -2.94839e-08 0)
(0.00523233 -3.47739e-08 0)
(0.00523241 -3.93765e-08 0)
(0.0052325 -4.33025e-08 0)
(0.00523259 -4.65749e-08 0)
(0.00523269 -4.92267e-08 0)
(0.00523279 -5.12976e-08 0)
(0.00523289 -5.28326e-08 0)
(0.005233 -5.38794e-08 0)
(0.00523311 -5.44873e-08 0)
(0.00523322 -5.47051e-08 0)
(0.00523333 -5.45808e-08 0)
(0.00523344 -5.41598e-08 0)
(0.00523354 -5.34853e-08 0)
(0.00523365 -5.25973e-08 0)
(0.00523375 -5.15322e-08 0)
(0.00523385 -5.03233e-08 0)
(0.00523395 -4.90004e-08 0)
(0.00523404 -4.75898e-08 0)
(0.00523414 -4.61149e-08 0)
(0.00523423 -4.45958e-08 0)
(0.00523431 -4.305e-08 0)
(0.0052344 -4.14923e-08 0)
(0.00523448 -3.99355e-08 0)
(0.00523455 -3.83901e-08 0)
(0.00523463 -3.68648e-08 0)
(0.0052347 -3.53668e-08 0)
(0.00523477 -3.39019e-08 0)
(0.00523483 -3.24744e-08 0)
(0.0052349 -3.10879e-08 0)
(0.00523496 -2.97448e-08 0)
(0.00523501 -2.84469e-08 0)
(0.00523507 -2.71953e-08 0)
(0.00523512 -2.59905e-08 0)
(0.00523517 -2.48325e-08 0)
(0.00523522 -2.37213e-08 0)
(0.00523526 -2.2656e-08 0)
(0.00523531 -2.16359e-08 0)
(0.00523535 -2.06599e-08 0)
(0.00523539 -1.97267e-08 0)
(0.00523543 -1.88349e-08 0)
(0.00523546 -1.79833e-08 0)
(0.0052355 -1.71691e-08 0)
(0.00523553 -1.63968e-08 0)
(0.00523556 -1.56373e-08 0)
(0.00523559 -1.5014e-08 0)
(0.00523563 -1.39544e-08 0)
(-0.00992455 -0.012472 0)
(-0.00422391 -0.0132345 0)
(-0.0182112 -0.000435069 0)
(-0.0442479 0.00444774 0)
(-0.0271839 -0.0274187 0)
(-0.061978 -0.0403571 0)
(-0.0462672 -0.0413846 0)
(-0.0065201 -0.0260376 0)
(0.0723518 0.0172585 0)
(0.0557018 0.0252292 0)
(0.0363912 0.0180354 0)
(0.0326091 0.0202216 0)
(0.0237474 0.0250859 0)
(0.0149793 0.0285282 0)
(0.00722727 0.0251452 0)
(-0.00612983 0.0116128 0)
(-0.022647 -0.0105494 0)
(-0.0380586 -0.0308 0)
(-0.0437281 -0.0394902 0)
(-0.0373756 -0.0318314 0)
(-0.0260086 -0.0148252 0)
(-0.0158604 0.00222104 0)
(-0.0115382 0.0106373 0)
(-0.00974088 0.0111054 0)
(-0.00869245 0.00763503 0)
(-0.00877313 0.00386705 0)
(-0.00979043 0.00136507 0)
(-0.0111645 -0.000493855 0)
(-0.0133162 -0.00143155 0)
(-0.0157491 -0.00212442 0)
(-0.0165269 -0.00313897 0)
(-0.0153073 -0.003322 0)
(-0.013836 -0.00290151 0)
(-0.0126413 -0.00224493 0)
(-0.0121173 -0.00154731 0)
(-0.012194 -0.000816836 0)
(-0.0126974 -6.84107e-05 0)
(-0.0135378 0.000589987 0)
(-0.0145754 0.00103192 0)
(-0.0155869 0.00121018 0)
(-0.0163996 0.00112242 0)
(-0.0169203 0.000781107 0)
(-0.017131 0.00022031 0)
(-0.0170809 -0.000476177 0)
(-0.0168668 -0.00119035 0)
(-0.0165903 -0.00180619 0)
(-0.0163104 -0.00222683 0)
(-0.0160259 -0.00240851 0)
(-0.0156832 -0.00236526 0)
(-0.0152106 -0.00215505 0)
(-0.0145565 -0.00184763 0)
(-0.0137157 -0.00150646 0)
(-0.0127284 -0.0011783 0)
(-0.0116666 -0.000886624 0)
(-0.0106125 -0.000643663 0)
(-0.00963861 -0.000446319 0)
(-0.00880023 -0.000279831 0)
(-0.00813331 -0.00012658 0)
(-0.00765205 3.24139e-05 0)
(-0.00735019 0.000212605 0)
(-0.00720294 0.000419174 0)
(-0.00716682 0.000646194 0)
(-0.00718316 0.000882892 0)
(-0.00718545 0.00111138 0)
(-0.00710966 0.00131041 0)
(-0.00690278 0.0014571 0)
(-0.00653488 0.00153281 0)
(-0.00600444 0.0015319 0)
(-0.00533477 0.00144962 0)
(-0.00455312 0.00129487 0)
(-0.00369377 0.00109168 0)
(-0.00279102 0.000862219 0)
(-0.0018775 0.000628691 0)
(-0.000980644 0.000411588 0)
(-0.000125889 0.000217503 0)
(0.000669073 5.99288e-05 0)
(0.00138501 -6.53655e-05 0)
(0.0020121 -0.000160899 0)
(0.00254047 -0.000236372 0)
(0.00296601 -0.000295251 0)
(0.00328531 -0.000343159 0)
(0.00349917 -0.000385338 0)
(0.00361203 -0.000422798 0)
(0.0036295 -0.000453465 0)
(0.00355925 -0.000475732 0)
(0.00341059 -0.00048462 0)
(0.00319251 -0.000477279 0)
(0.00291423 -0.000453614 0)
(0.00258585 -0.000413952 0)
(0.00221651 -0.000359313 0)
(0.00181496 -0.000294613 0)
(0.00139141 -0.000226458 0)
(0.000955666 -0.000156944 0)
(0.000516388 -9.04956e-05 0)
(8.20893e-05 -2.88567e-05 0)
(-0.00034094 2.61684e-05 0)
(-0.000746547 7.02376e-05 0)
(-0.00112979 0.000104756 0)
(-0.00148953 0.000129295 0)
(-0.00182613 0.000143358 0)
(-0.00214001 0.000146961 0)
(-0.00243226 0.000143739 0)
(-0.00270541 0.000136698 0)
(-0.00296221 0.000128588 0)
(-0.00320519 0.000121398 0)
(-0.00343647 0.000116408 0)
(-0.00365782 0.000114789 0)
(-0.00387058 0.000116318 0)
(-0.00407542 0.000120765 0)
(-0.00427286 0.000127716 0)
(-0.00446297 0.00013643 0)
(-0.004646 0.000147065 0)
(-0.00482312 0.000159785 0)
(-0.00499616 0.00017408 0)
(-0.00516666 0.000188863 0)
(-0.00533555 0.000203208 0)
(-0.00550387 0.000216583 0)
(-0.00567215 0.000227497 0)
(-0.00583853 0.000233528 0)
(-0.00599981 0.000234722 0)
(-0.00615415 0.000232869 0)
(-0.0063014 0.000229522 0)
(-0.00644206 0.000225522 0)
(-0.00657676 0.000221008 0)
(-0.00670591 0.000215573 0)
(-0.00682964 0.000208819 0)
(-0.00694776 0.000199907 0)
(-0.00705904 0.00018728 0)
(-0.00716071 0.000170008 0)
(-0.00724984 0.000148931 0)
(-0.00732478 0.000125504 0)
(-0.00738499 0.000100659 0)
(-0.00743025 7.48531e-05 0)
(-0.00746037 4.82651e-05 0)
(-0.00747486 2.07432e-05 0)
(-0.00747275 -7.92937e-06 0)
(-0.00745283 -3.74869e-05 0)
(-0.00741428 -6.72558e-05 0)
(-0.00735697 -9.66143e-05 0)
(-0.00728113 -0.000125183 0)
(-0.00718719 -0.000152857 0)
(-0.00707548 -0.000179688 0)
(-0.00694633 -0.000205627 0)
(-0.00680023 -0.00023046 0)
(-0.00663794 -0.000253965 0)
(-0.0064604 -0.000276026 0)
(-0.00626859 -0.000296614 0)
(-0.0060635 -0.000315701 0)
(-0.00584613 -0.000333219 0)
(-0.00561757 -0.000349109 4.73907e-42)
(-0.00537893 -0.000363351 4.62173e-42)
(-0.00513131 -0.000375947 0)
(-0.00487582 -0.000386902 0)
(-0.00461356 -0.000396225 0)
(-0.00434561 -0.00040394 0)
(-0.00407305 -0.000410075 0)
(-0.00379693 -0.000414665 0)
(-0.00351827 -0.000417749 0)
(-0.00323808 -0.000419369 0)
(-0.00295731 -0.000419577 0)
(-0.00267689 -0.000418425 0)
(-0.00239772 -0.000415971 0)
(-0.00212066 -0.000412279 0)
(-0.00184649 -0.000407413 0)
(-0.001576 -0.000401444 0)
(-0.00130988 -0.000394449 0)
(-0.00104882 -0.000386513 0)
(-0.000793397 -0.000377728 0)
(-0.000544166 -0.000368197 0)
(-0.000301589 -0.000358031 0)
(-6.60535e-05 -0.000347347 0)
(0.000162134 -0.000336267 0)
(0.000382752 -0.000324909 0)
(0.000595657 -0.000313389 0)
(0.000800784 -0.000301813 0)
(0.000998136 -0.000290278 0)
(0.00118778 -0.000278866 0)
(0.00136983 -0.000267646 0)
(0.00154444 -0.000256674 0)
(0.0017118 -0.000245994 0)
(0.00187212 -0.000235639 0)
(0.00202564 -0.000225631 0)
(0.0021726 -0.000215983 0)
(0.00231325 -0.000206704 0)
(0.00244783 -0.000197796 0)
(0.00257659 -0.000189254 0)
(0.00269979 -0.000181072 0)
(0.00281765 -0.000173242 0)
(0.00293042 -0.000165753 0)
(0.00303831 -0.00015859 0)
(0.00314154 -0.000151742 0)
(0.00324032 -0.000145192 0)
(0.00333484 -0.000138927 0)
(0.00342528 -0.000132932 0)
(0.00351182 -0.000127191 0)
(0.00359462 -0.00012169 0)
(0.00367384 -0.000116415 0)
(0.00374963 -0.000111351 0)
(0.00382211 -0.000106487 0)
(0.00389143 -0.000101809 0)
(0.00395769 -9.73056e-05 0)
(0.00402101 -9.29668e-05 0)
(0.0040815 -8.87825e-05 0)
(0.00413925 -8.47439e-05 0)
(0.00419436 -8.08433e-05 0)
(0.00424691 -7.70737e-05 0)
(0.004297 -7.34295e-05 0)
(0.0043447 -6.99056e-05 0)
(0.0043901 -6.64984e-05 0)
(0.00443325 -6.32048e-05 0)
(0.00447425 -6.00229e-05 0)
(0.00451316 -5.69514e-05 0)
(0.00455006 -5.39899e-05 0)
(0.00458502 -5.11383e-05 0)
(0.00461811 -4.83972e-05 0)
(0.00464941 -4.57674e-05 0)
(0.00467899 -4.32497e-05 0)
(0.00470692 -4.0845e-05 0)
(0.00473329 -3.8554e-05 0)
(0.00475816 -3.6377e-05 0)
(0.00478162 -3.4314e-05 0)
(0.00480375 -3.23643e-05 0)
(0.00482461 -3.05269e-05 0)
(0.00484428 -2.88e-05 0)
(0.00486284 -2.71813e-05 0)
(0.00488036 -2.5668e-05 0)
(0.0048969 -2.42567e-05 0)
(0.00491254 -2.29436e-05 0)
(0.00492734 -2.17242e-05 0)
(0.00494137 -2.0594e-05 0)
(0.00495467 -1.95482e-05 0)
(0.0049673 -1.85815e-05 0)
(0.00497932 -1.76887e-05 0)
(0.00499078 -1.68645e-05 0)
(0.00500171 -1.61034e-05 0)
(0.00501215 -1.54003e-05 0)
(0.00502215 -1.47498e-05 0)
(0.00503174 -1.41468e-05 0)
(0.00504095 -1.35865e-05 0)
(0.0050498 -1.30641e-05 0)
(0.00505831 -1.25753e-05 0)
(0.00506651 -1.21157e-05 0)
(0.00507442 -1.16817e-05 0)
(0.00508205 -1.12696e-05 0)
(0.00508942 -1.08763e-05 0)
(0.00509653 -1.04989e-05 0)
(0.00510339 -1.01349e-05 0)
(0.00511002 -9.78204e-06 0)
(0.00511642 -9.43858e-06 0)
(0.00512259 -9.10294e-06 0)
(0.00512855 -8.77387e-06 0)
(0.00513428 -8.45042e-06 0)
(0.00513981 -8.13185e-06 0)
(0.00514512 -7.81766e-06 0)
(0.00515022 -7.50754e-06 0)
(0.00515512 -7.20136e-06 0)
(0.00515982 -6.89909e-06 0)
(0.00516432 -6.60084e-06 0)
(0.00516862 -6.30678e-06 0)
(0.00517272 -6.01713e-06 0)
(0.00517664 -5.73216e-06 0)
(0.00518036 -5.45214e-06 0)
(0.0051839 -5.17735e-06 0)
(0.00518726 -4.90804e-06 0)
(0.00519044 -4.64446e-06 0)
(0.00519345 -4.38681e-06 0)
(0.00519628 -4.13526e-06 0)
(0.00519895 -3.88998e-06 0)
(0.00520146 -3.65107e-06 0)
(0.00520381 -3.41865e-06 0)
(0.00520601 -3.19277e-06 0)
(0.00520806 -2.9735e-06 0)
(0.00520997 -2.7609e-06 0)
(0.00521174 -2.55501e-06 0)
(0.00521337 -2.35588e-06 0)
(0.00521487 -2.16356e-06 0)
(0.00521625 -1.97811e-06 0)
(0.0052175 -1.79959e-06 0)
(0.00521864 -1.62807e-06 0)
(0.00521966 -1.46363e-06 0)
(0.00522058 -1.30636e-06 0)
(0.0052214 -1.15635e-06 0)
(0.00522212 -1.01369e-06 0)
(0.00522274 -8.78464e-07 0)
(0.00522328 -7.50766e-07 0)
(0.00522373 -6.30668e-07 0)
(0.00522411 -5.18238e-07 0)
(0.00522441 -4.13525e-07 0)
(0.00522465 -3.16563e-07 0)
(0.00522483 -2.27364e-07 0)
(0.00522495 -1.45919e-07 0)
(0.00522501 -7.21933e-08 0)
(0.00522503 -6.12736e-09 0)
(0.00522501 5.23651e-08 0)
(0.00522495 1.03397e-07 0)
(0.00522486 1.47109e-07 0)
(0.00522475 1.83667e-07 0)
(0.00522461 2.13263e-07 0)
(0.00522446 2.36113e-07 0)
(0.00522429 2.52459e-07 0)
(0.00522411 2.62562e-07 0)
(0.00522393 2.66709e-07 0)
(0.00522375 2.65202e-07 0)
(0.00522357 2.58367e-07 0)
(0.0052234 2.46546e-07 0)
(0.00522324 2.30098e-07 0)
(0.00522309 2.09397e-07 0)
(0.00522295 1.84832e-07 0)
(0.00522284 1.56799e-07 0)
(0.00522274 1.25705e-07 0)
(0.00522267 9.19611e-08 0)
(0.00522261 5.59815e-08 0)
(0.00522259 1.81789e-08 0)
(0.00522259 -2.10371e-08 0)
(0.00522262 -6.12627e-08 0)
(0.00522267 -1.02102e-07 0)
(0.00522275 -1.4317e-07 0)
(0.00522286 -1.84092e-07 0)
(0.005223 -2.24506e-07 0)
(0.00522316 -2.64067e-07 0)
(0.00522335 -3.02443e-07 0)
(0.00522357 -3.39323e-07 0)
(0.00522381 -3.74413e-07 0)
(0.00522407 -4.07443e-07 0)
(0.00522436 -4.38167e-07 0)
(0.00522466 -4.66364e-07 0)
(0.00522498 -4.91845e-07 0)
(0.00522532 -5.14451e-07 0)
(0.00522567 -5.34054e-07 0)
(0.00522603 -5.50564e-07 0)
(0.00522641 -5.63923e-07 0)
(0.00522679 -5.74108e-07 0)
(0.00522717 -5.8113e-07 0)
(0.00522756 -5.85036e-07 0)
(0.00522795 -5.85902e-07 0)
(0.00522834 -5.83833e-07 0)
(0.00522873 -5.78961e-07 0)
(0.00522911 -5.71445e-07 0)
(0.00522949 -5.61459e-07 0)
(0.00522986 -5.492e-07 0)
(0.00523022 -5.34874e-07 0)
(0.00523057 -5.18701e-07 0)
(0.00523091 -5.00904e-07 0)
(0.00523123 -4.81711e-07 0)
(0.00523154 -4.61346e-07 0)
(0.00523184 -4.40032e-07 0)
(0.00523213 -4.17979e-07 0)
(0.00523239 -3.95388e-07 0)
(0.00523265 -3.72445e-07 0)
(0.00523289 -3.49315e-07 0)
(0.00523311 -3.26146e-07 0)
(0.00523333 -3.03064e-07 0)
(0.00523352 -2.80172e-07 0)
(0.0052337 -2.5755e-07 0)
(0.00523387 -2.35259e-07 0)
(0.00523402 -2.13339e-07 0)
(0.00523417 -1.91816e-07 0)
(0.00523429 -1.707e-07 0)
(0.00523441 -1.49994e-07 0)
(0.00523451 -1.29693e-07 0)
(0.0052346 -1.09793e-07 0)
(0.00523468 -9.0285e-08 0)
(0.00523474 -7.11664e-08 0)
(0.00523479 -5.24358e-08 0)
(0.00523483 -3.40958e-08 0)
(0.00523486 -1.61525e-08 0)
(0.00523488 1.38561e-09 0)
(0.00523489 1.85081e-08 0)
(0.00523488 3.52034e-08 0)
(0.00523486 5.14592e-08 0)
(0.00523483 6.72609e-08 0)
(0.00523479 8.25908e-08 0)
(0.00523474 9.74242e-08 0)
(0.00523467 1.11726e-07 0)
(0.0052346 1.25445e-07 0)
(0.00523451 1.38512e-07 0)
(0.00523441 1.50829e-07 0)
(0.00523431 1.62273e-07 0)
(0.00523419 1.72691e-07 0)
(0.00523407 1.819e-07 0)
(0.00523393 1.89693e-07 0)
(0.00523379 1.95848e-07 0)
(0.00523365 2.00137e-07 0)
(0.0052335 2.02339e-07 0)
(0.00523335 2.02257e-07 0)
(0.0052332 1.99733e-07 0)
(0.00523305 1.94661e-07 0)
(0.00523291 1.87e-07 0)
(0.00523277 1.76781e-07 0)
(0.00523264 1.64111e-07 0)
(0.00523252 1.49172e-07 0)
(0.00523241 1.32212e-07 0)
(0.00523232 1.13537e-07 0)
(0.00523224 9.35005e-08 0)
(0.00523217 7.24819e-08 0)
(0.00523212 5.08758e-08 0)
(0.00523208 2.90745e-08 0)
(0.00523207 7.45399e-09 0)
(0.00523206 -1.36382e-08 0)
(0.00523207 -3.38924e-08 0)
(0.0052321 -5.30437e-08 0)
(0.00523214 -7.08761e-08 0)
(0.00523219 -8.72237e-08 0)
(0.00523225 -1.0197e-07 0)
(0.00523232 -1.15045e-07 0)
(0.0052324 -1.26422e-07 0)
(0.00523249 -1.36111e-07 0)
(0.00523258 -1.44155e-07 0)
(0.00523268 -1.50621e-07 0)
(0.00523279 -1.55599e-07 0)
(0.00523289 -1.59193e-07 0)
(0.005233 -1.61517e-07 0)
(0.00523311 -1.62689e-07 0)
(0.00523322 -1.62832e-07 0)
(0.00523333 -1.62066e-07 0)
(0.00523344 -1.60507e-07 0)
(0.00523354 -1.58268e-07 0)
(0.00523365 -1.55453e-07 0)
(0.00523375 -1.52158e-07 0)
(0.00523385 -1.48473e-07 0)
(0.00523395 -1.44477e-07 0)
(0.00523405 -1.40243e-07 0)
(0.00523414 -1.35835e-07 0)
(0.00523423 -1.31307e-07 0)
(0.00523432 -1.26709e-07 0)
(0.0052344 -1.22083e-07 0)
(0.00523448 -1.17464e-07 0)
(0.00523456 -1.12882e-07 0)
(0.00523463 -1.08361e-07 0)
(0.0052347 -1.03923e-07 0)
(0.00523477 -9.95838e-08 0)
(0.00523484 -9.53562e-08 0)
(0.0052349 -9.12503e-08 0)
(0.00523496 -8.72733e-08 0)
(0.00523502 -8.34303e-08 0)
(0.00523507 -7.97246e-08 0)
(0.00523512 -7.61576e-08 0)
(0.00523517 -7.27297e-08 0)
(0.00523522 -6.944e-08 0)
(0.00523526 -6.62866e-08 0)
(0.00523531 -6.32669e-08 0)
(0.00523535 -6.03778e-08 0)
(0.00523539 -5.76156e-08 0)
(0.00523543 -5.49762e-08 0)
(0.00523546 -5.2456e-08 0)
(0.0052355 -5.00468e-08 0)
(0.00523553 -4.77618e-08 0)
(0.00523556 -4.55152e-08 0)
(0.00523559 -4.36707e-08 0)
(0.00523563 -4.05513e-08 0)
(-0.010697 -0.0236613 0)
(-0.0121504 -0.0103084 0)
(-0.0247063 0.0419882 0)
(-0.0381499 0.0168832 0)
(0.0231395 0.0162282 0)
(0.0444838 -0.0235107 0)
(0.126937 -0.0589057 0)
(0.137889 -0.0734512 0)
(0.172185 0.00216174 0)
(0.11273 0.0309113 0)
(0.072781 0.0200037 0)
(0.0535552 0.0175976 0)
(0.0480059 0.0221228 0)
(0.0589338 0.0244353 0)
(0.070028 0.0213364 0)
(0.0595403 0.0213982 0)
(0.0397604 0.0177316 0)
(0.0161727 0.00311854 0)
(-0.00385819 -0.0071146 0)
(-0.0260205 -0.012359 0)
(-0.0351021 -0.0109432 0)
(-0.0321869 -0.00469768 0)
(-0.0226365 -0.000253659 0)
(-0.0128436 0.00110174 0)
(-0.00810782 0.000826895 0)
(-0.00607457 0.000431843 0)
(-0.00498623 0.000805823 0)
(-0.00394473 0.0018126 0)
(-0.00338894 0.00263333 0)
(-0.00211441 0.000905071 0)
(-0.000740288 -0.00343546 0)
(-0.000471602 -0.0044594 0)
(-0.000575722 -0.00383733 0)
(-0.000729606 -0.00239986 0)
(-0.000337401 -0.00113584 0)
(0.000382016 -0.000343735 0)
(0.00181953 0.000178786 0)
(0.00336756 0.000600138 0)
(0.0048944 0.000928763 0)
(0.0062954 0.00113956 0)
(0.00723852 0.00119095 0)
(0.0073886 0.00107852 0)
(0.00646541 0.000842208 0)
(0.00430792 0.000565318 0)
(0.000872598 0.000334386 0)
(-0.00363596 0.0001438 0)
(-0.00869028 -5.95574e-05 0)
(-0.0136297 -0.000357824 0)
(-0.0178392 -0.000780896 0)
(-0.0210378 -0.00128948 0)
(-0.0232848 -0.00179262 0)
(-0.0248808 -0.00220267 0)
(-0.0262021 -0.00246787 0)
(-0.027586 -0.00254994 0)
(-0.0292823 -0.00246809 0)
(-0.031384 -0.00225154 0)
(-0.0338864 -0.00192993 0)
(-0.0367006 -0.00154754 0)
(-0.0396811 -0.00114437 0)
(-0.0426363 -0.000759094 0)
(-0.0453844 -0.000435048 0)
(-0.0477727 -0.000211685 0)
(-0.0496478 -0.000114421 0)
(-0.0508067 -0.000155999 0)
(-0.0511595 -0.000319324 0)
(-0.050721 -0.000573635 0)
(-0.0496166 -0.000869419 0)
(-0.0479413 -0.00115605 0)
(-0.0459753 -0.0014137 0)
(-0.0438808 -0.0016358 0)
(-0.041668 -0.00180172 0)
(-0.0393151 -0.00192102 0)
(-0.0368741 -0.00198586 0)
(-0.0342192 -0.00200099 0)
(-0.0314591 -0.00197009 0)
(-0.0284343 -0.00189144 0)
(-0.0252375 -0.0017718 0)
(-0.0218991 -0.00162168 0)
(-0.0186179 -0.00143893 0)
(-0.0154523 -0.00122365 0)
(-0.012456 -0.000983742 0)
(-0.00967702 -0.00072921 0)
(-0.00714684 -0.000469145 0)
(-0.00488024 -0.000209982 0)
(-0.00287756 3.26738e-05 0)
(-0.00112559 0.000258491 0)
(0.000392585 0.000462846 0)
(0.00169767 0.000636731 0)
(0.00281381 0.000778938 0)
(0.00375996 0.000892604 0)
(0.00454918 0.00097967 0)
(0.00519601 0.0010327 0)
(0.00571791 0.00106267 0)
(0.00611799 0.00106232 0)
(0.00641495 0.00103885 0)
(0.00661254 0.00100146 0)
(0.00671471 0.000941416 0)
(0.00673323 0.000873441 0)
(0.00666654 0.000801967 0)
(0.00651919 0.000733996 0)
(0.00629425 0.000668177 0)
(0.00599841 0.000610015 0)
(0.00563458 0.000560127 0)
(0.00520549 0.000519501 0)
(0.00471462 0.000486577 0)
(0.00416669 0.000458829 0)
(0.00356751 0.000436973 0)
(0.00292456 0.000418389 0)
(0.00224762 0.000402325 0)
(0.00154674 0.000388052 0)
(0.000832397 0.000374492 0)
(0.000115487 0.000364352 0)
(-0.000595316 0.000360373 0)
(-0.00129245 0.000362106 0)
(-0.00196834 0.000368447 0)
(-0.00261574 0.000379077 0)
(-0.00322927 0.000392414 0)
(-0.00380601 0.000403804 0)
(-0.00434161 0.000406334 0)
(-0.00483031 0.000401688 0)
(-0.0052699 0.000393262 0)
(-0.00566175 0.000382577 0)
(-0.00600864 0.000370672 0)
(-0.00631393 0.000357692 0)
(-0.00658081 0.00034282 0)
(-0.00681261 0.000326217 0)
(-0.00701338 0.000307132 0)
(-0.00718563 0.000282785 0)
(-0.00732871 0.000251113 0)
(-0.00744172 0.000214111 0)
(-0.00752643 0.000175007 0)
(-0.00758605 0.000135552 0)
(-0.00762347 9.62193e-05 0)
(-0.00764112 5.68009e-05 0)
(-0.00764067 1.61862e-05 0)
(-0.00762238 -2.69332e-05 0)
(-0.0075856 -7.23623e-05 0)
(-0.00753017 -0.000118835 0)
(-0.00745674 -0.000165279 0)
(-0.00736632 -0.000211039 0)
(-0.00725979 -0.000255933 0)
(-0.00713755 -0.000300059 0)
(-0.00699961 -0.000343215 0)
(-0.00684612 -0.000384795 0)
(-0.00667767 -0.00042421 0)
(-0.0064951 -0.000461172 0)
(-0.0062992 -0.000495646 0)
(-0.0060907 -0.0005276 0)
(-0.00587038 -0.000556903 0)
(-0.00563919 -0.000583446 0)
(-0.00539817 -0.000607222 0)
(-0.00514833 -0.000628257 0)
(-0.00489071 -0.000646555 0)
(-0.00462637 -0.000662125 0)
(-0.00435639 -0.000675001 0)
(-0.00408182 -0.000685232 0)