/*--------------------------------*- C++ -*----------------------------------*\
| =========                 |                                                 |
| \\      /  F ield         | OpenFOAM: The Open Source CFD Toolbox           |
|  \\    /   O peration     | Version:  v2006                                 |
|   \\  /    A nd           | Website:  www.openfoam.com                      |
|    \\/     M anipulation  |                                                 |
\*---------------------------------------------------------------------------*/
FoamFile
{
    version     2.0;
    format      ascii;
    class       volScalarField;
    location    "0";
    object      shifted_f;
}
// * * * * * * * * * * * * * * * * * * * * * * * * * * * * * * * * * * * * * //

dimensions      [0 0 0 0 0 0 0];


internalField   nonuniform List<scalar> 
2500
(
-2.41066e-16
1.40784e-21
-2.41066e-16
3.61601e-16
2.81498e-21
1.40277e-21
0
-5.73459e-21
-2.39769e-16
-6.00088e-21
0
-2.62551e-35
0
-1.16896e-15
-1.84341e-15
0
1.0464e-21
-1.37478e-15
2.48388e-22
1.32313e-36
3.00279e-14
0
-2.10691e-22
1.05921e-23
9.67365e-23
7.22704e-23
-2.87292e-13
-1.26912e-23
-1.31989e-23
-7.43784e-25
0
1.03094e-14
1.33243e-23
1.00416e-23
6.57919e-24
3.88208e-24
2.10513e-24
1.06251e-24
0
0
9.53735e-26
3.84115e-26
0
5.40378e-27
1.9005e-27
6.45803e-28
-3.27536e-20
7.13519e-29
2.43879e-29
8.82533e-30
0
-3.30273e-35
1.54833e-21
-3.77274e-16
-2.28344e-15
1.50541e-15
0
1.54236e-15
0
-1.38806e-20
-2.90711e-15
0
0
3.08259e-34
0
1.68906e-34
-3.31724e-16
0
2.54898e-14
5.59994e-15
0
-1.49202e-13
-5.72546e-14
-6.49448e-23
6.7115e-13
5.45876e-13
-5.37575e-13
-4.20723e-13
0
-4.35228e-13
-1.20535e-13
3.59767e-14
1.79347e-13
1.50161e-13
-3.74206e-43
3.01206e-14
6.55532e-15
-2.68222e-15
0
0
2.57247e-47
0
1.32873e-17
2.30472e-18
0
1.44671e-19
6.77975e-52
1.07716e-52
2.17411e-20
1.53286e-20
1.2998e-20
1.2998e-20
3.18401e-15
-7.96005e-16
-4.85529e-15
0
0
-2.67292e-20
3.36626e-15
-3.15163e-20
-5.84372e-15
4.04033e-21
-3.59362e-21
-1.04369e-14
1.50292e-33
1.33038e-14
-5.71365e-20
4.75346e-14
4.64598e-21
0
9.53769e-35
0
-7.82674e-12
-2.40799e-11
0
0
2.39697e-11
0
-2.5683e-12
-1.64211e-22
0
0
0
0
-2.36425e-42
0
0
0
0
0
7.89181e-25
-4.85963e-46
-8.23039e-25
-9.53353e-49
0
0
0
0
-1.55165e-27
0
2.59416e-20
2.59416e-20
6.48541e-21
3.7557e-15
2.5599e-15
0
2.55045e-20
-5.39781e-20
0
0
-8.91108e-15
1.59387e-21
-3.50232e-14
-1.74722e-14
-9.27679e-21
1.71499e-20
-1.40573e-19
3.38146e-20
1.44187e-20
-1.18071e-20
0
0
4.33854e-20
3.49292e-21
8.62877e-21
0
3.984e-11
-1.48203e-21
0
-6.34722e-22
6.34702e-23
0
3.64076e-22
2.70295e-22
0
9.28854e-23
-2.17627e-13
0
1.88818e-14
3.72347e-24
0
4.74393e-25
0
0
2.18052e-18
0
1.24901e-27
6.89976e-28
0
2.58463e-28
0
1.22601e-20
3.67804e-20
-1.40258e-15
2.87404e-15
5.57603e-15
0
0
0
0
-9.9199e-15
-1.48627e-20
-4.23421e-14
-2.04181e-14
0
0
-3.31891e-19
-5.30861e-13
0
0
0
0
-5.68554e-11
0
0
0
8.01102e-11
0
0
0
0
-1.21043e-10
0
0
-7.31337e-22
0
9.31831e-23
5.88741e-14
-9.93311e-14
0
0
-1.8756e-44
-1.00032e-24
0
0
0
0
0
0
0
0
-2.18405e-31
6.55309e-20
-1.25677e-11
8.8568e-20
0
0
-1.67868e-11
-1.68831e-11
0
0
0
0
0
0
0
0
0
0
4.9217e-11
-3.63689e-32
0
3.25514e-19
0
0
0
-8.60915e-11
0
0
-5.62369e-10
0
1.11397e-10
0
0
0
0
0
0
0
0
0
2.01255e-16
0
0
-4.06229e-19
0
0
0
0
0
0
-4.57252e-31
9.15709e-31
-2.05099e-10
-1.36747e-10
0
0
0
-2.73688e-10
0
0
0
0
0
0
0
0
-1.11279e-18
0
0
0
0
0
6.89718e-09
0
0
-6.37557e-09
0
0
0
0
0
0
0
0
0
0
0
0
0
0
0
1.15229e-23
0
0
0
0
0
0
0
-4.51402e-19
-8.28513e-30
-4.51402e-19
-7.46213e-10
-4.8052e-19
-9.95101e-10
0
0
-9.94168e-10
0
0
0
0
0
0
0
0
0
0
0
-9.84942e-31
0
0
2.27875e-08
0
0
0
0
0
0
0
0
0
0
0
0
0
0
0
0
0
0
0
0
0
0
0
0
0
0
0
4.21146e-09
8.00382e-20
-1.5793e-09
4.21157e-09
0
4.21318e-09
0
-2.1022e-09
-8.39192e-18
4.2347e-09
0
0
0
0
0
0
8.95601e-09
0
0
3.60062e-09
0
0
9.505e-08
0
0
-5.45578e-08
0
-5.12052e-09
0
0
0
0
0
0
0
0
-8.9693e-13
0
0
0
0
0
0
0
0
2.55278e-17
0
0
-2.65736e-17
1.1073e-08
-2.65809e-28
1.1073e-08
-2.07618e-09
-1.38412e-09
2.76933e-09
0
-2.76832e-09
-2.76137e-09
0
0
0
0
1.06121e-08
-1.06288e-27
1.23138e-08
0
1.14611e-08
0
0
2.19404e-08
0
5.71986e-08
0
0
0
-7.42021e-08
0
0
0
0
3.60221e-08
0
0
1.98067e-10
0
0
0
-6.94089e-13
0
0
-3.66945e-15
2.48803e-22
0
0
4.025e-16
0
0
0
0
0
-9.15621e-19
-9.15621e-19
-9.3937e-10
-1.50381e-08
0
0
0
3.81556e-09
-1.50596e-08
-7.13201e-09
0
0
0
0
-4.18636e-15
0
-2.91804e-08
0
0
-8.89003e-29
0
0
-8.86143e-07
0
0
0
0
0
-2.74661e-18
0
0
-1.09102e-19
0
0
1.03384e-20
0
0
0
0
0
0
1.26583e-22
0
0
0
0
0
0
0
0
-2.34117e-27
-7.64598e-16
1.05481e-07
2.10982e-07
0
0
0
1.41158e-07
0
0
0
0
0
0
0
0
-2.22603e-27
0
0
-3.25566e-28
0
-8.57514e-15
0
0
0
7.74909e-06
0
0
0
0
-3.11841e-33
0
0
0
0
0
0
0
0
0
0
0
0
0
0
0
0
0
0
0
-1.1072e-26
2.66425e-26
4.21633e-07
-2.24883e-06
0
0
1.10194e-15
5.6374e-07
0
0
0
0
0
0
0
0
-2.8144e-06
0
0
-2.48425e-07
0
0
-9.25683e-06
0
5.37697e-06
2.2347e-05
0
0
0
0
0
0
0
0
-0.000173672
0
0
0
-1.43188e-05
0
0
-4.78576e-13
0
0
0
0
4.72031e-15
1.7727e-14
6.47988e-15
1.02367e-13
-4.92182e-26
6.39793e-15
1.00448e-06
6.69679e-07
0
0
1.34129e-06
1.34257e-06
1.25413e-13
0
0
0
0
0
0
0
-1.32251e-05
-6.46855e-12
0
-1.47033e-06
0
0
-1.96302e-05
0
0
4.71594e-05
0
0
0
0
0
0
0
7.44519e-19
0
0
0
0
-3.59575e-05
0
0
0
0
0
0
0
0
0
0
1.76659e-13
-2.05061e-25
1.10412e-14
1.78821e-06
-1.19217e-06
4.67317e-14
0
3.28381e-13
0
0
-1.01183e-24
-1.72511e-12
-9.7919e-06
-4.74831e-06
0
0
-3.63456e-11
0
-3.93422e-11
9.4536e-26
-3.2309e-06
-1.08064e-05
8.3664e-12
-6.61939e-05
6.24761e-14
0
0
0
4.28397e-15
0
0
0
0
1.67158e-18
0
0
8.50983e-19
0
0
0
0
0
-7.34972e-12
-6.20086e-12
0
0
-3.73165e-22
0
0
0
0
-8.06945e-25
1.29101e-14
2.53623e-06
1.69086e-06
3.38004e-06
0
3.387e-06
3.38927e-06
7.34925e-13
0
0
0
0
0
0
0
0
0
0
-9.75078e-06
0
0
-4.63284e-05
0
0
0.000113866
0
0
0
0
0
0
0
0
0
0
0
0
-0.000107948
0
0
0
0
0
0
0
0
0
0
0
-3.14681e-24
1.13091e-14
2.91816e-06
-1.94549e-06
3.88895e-06
0
0
3.90004e-06
0
0
0
0
0
0
0
0
0
0
0
-5.37783e-06
0
0
-5.45978e-05
0
0
0.000138825
0
0
0
0
0
0
0
0
0
0
0
0
-0.00014333
0
0
0
0
0
0
0
0
0
0
2.25668e-22
0
-6.49505e-12
2.71899e-06
-1.81271e-06
0
0
-1.50348e-10
0
-2.21832e-10
0
0
0
-7.18164e-06
0
0
6.54068e-09
1.30552e-22
0
0
-3.76743e-06
-1.97149e-05
-2.04002e-09
-0.000109672
-5.57127e-26
0
-1.29168e-26
-4.6926e-27
0
0
0
-0.00274308
-0.00353811
0
0
0
3.34194e-18
-0.00109462
0
0
0
0
-8.01955e-20
5.42486e-09
2.52209e-09
0
0
0
0
0
0
-8.79325e-23
1.12939e-06
1.69556e-06
-1.12947e-06
0
0
0
2.26801e-06
0
0
0
-9.47162e-06
-4.51331e-06
0
0
9.86979e-08
0
-8.45844e-06
0
4.50941e-07
0
-8.34727e-09
0
0
0
0.000132576
0
0
0
0
0
0
0
0
0
0
0
0
0
0
0
-1.70751e-19
0
5.93007e-09
0
0
-4.40096e-39
-4.84017e-12
-7.17377e-13
0
-5.76144e-08
-3.6009e-09
2.95936e-07
1.92575e-07
0
-5.96692e-08
0
3.91854e-07
-1.7657e-08
0
0
-2.00609e-06
0
0
0
-2.17803e-06
2.09379e-07
-2.16136e-06
0
5.26617e-06
0
-1.59725e-05
0
0
5.90351e-05
9.55799e-05
0
0
0
1.22867e-14
0
0
0
0
-0.00104043
0
0
0
0
0
-3.75329e-19
0
3.31442e-08
8.98654e-09
0
0
-3.24803e-11
-7.19162e-12
0
-1.3423e-07
-1.3423e-07
-8.38936e-09
2.47462e-07
4.95064e-07
0
0
-6.64914e-08
0
0
1.38737e-19
0
0
1.76544e-06
0
0
4.80504e-06
2.16007e-07
-1.08434e-06
-7.70659e-07
7.89794e-06
8.68621e-06
-1.57967e-08
-1.87592e-05
0
0
0
0
0.000153533
0
0
0
0
0
0
0
3.66782e-16
0
0
-6.18555e-18
0
0
-2.60495e-19
4.41434e-08
0
0
0
0
0
9.64262e-13
0
-4.8844e-20
-1.08134e-08
-1.06896e-06
7.26962e-07
0
0
0
-1.45344e-06
0
0
0
0
0
0
0
0
-9.46548e-06
0
0
6.94303e-06
0
0
3.6724e-06
0
0
9.98115e-06
0
0
0
0
0
0
0
0
-0.000235162
0
0
0
-1.93204e-05
0
0
0
0
0
0
0
0
0
0
0
-3.40266e-19
5.014e-08
-7.84103e-07
4.54326e-07
0
0
-9.10693e-07
-9.1031e-07
5.53619e-07
0
0
0
0
0
0
0
-0.000101922
0
0
0.000569401
0
0
0.000335717
0
0
-1.26129e-05
0
0
0
0
0
0
0
0
0
0
0
0
1.37794e-05
0
0
0
0
0
0
0
0
0
0
3.56883e-17
-2.23052e-18
7.40897e-07
-1.52463e-06
-1.87536e-08
0
0
-3.84834e-08
-3.98165e-08
0
0
0
0
0
0
0
0
-0.00014759
0
0
0
0
0
0
-8.54522e-23
0
-1.7727e-05
0
-2.07298e-24
0
0
0
0
-4.70831e-27
0.000312392
0
0
0
0
-1.02125e-30
0
0
8.00194e-18
0
-1.92336e-08
0
0
8.05911e-11
2.70656e-11
-4.53945e-38
0
-2.70178e-17
2.5461e-06
-4.85586e-06
1.83294e-07
0
0
0
3.64987e-07
0
0
0
0
0
0
0
0
0
0
0
-2.63356e-06
0
0
0.00420034
0
0
-1.19414e-05
0
0
0
0
0
0
0
0
0
0
0
0
1.54982e-05
0
0
0
0
0
0
0
0
0
0
0
-6.9904e-17
5.40983e-06
-1.08058e-05
-5.69566e-08
0
0
0
1.13539e-07
0
0
0
0.000215119
0
0
0
-0.000682172
-0.000819078
0.000880128
0.00645223
-9.0628e-07
0
0.00883263
0
0
0.00773086
-3.30013e-06
0
0
0
3.30286e-11
0
0
0
0
8.17966e-05
0
0
1.0754e-05
0
0
0
0
-3.07085e-09
0
0
0
-3.58803e-35
-1.1015e-11
-4.36696e-12
3.77052e-06
0.000274941
8.35623e-06
-1.71705e-05
-2.35671e-07
4.71608e-07
3.77121e-06
-4.70261e-07
0
0
3.79022e-06
3.70615e-06
0.000346613
3.88376e-06
0
3.71371e-06
-0.000983592
3.34054e-06
0.00145833
0.00976383
1.99567e-06
0
0.0133397
0.012293
0
0.012281
1.60116e-06
0.00231164
0
-2.42164e-05
4.60736e-11
0
-3.95131e-05
0
0
-9.02663e-05
-7.22087e-05
0
-1.34945e-05
-1.12117e-05
0
-1.05959e-07
5.90606e-08
3.96399e-08
0
2.44813e-09
0
-1.06919e-34
-5.61909e-11
-1.07382e-11
0
0.000318637
9.74849e-06
-2.02488e-05
6.68576e-06
0
0
0
-8.35412e-07
0
0
0
0
0
0
0
0
-0.00104009
0.00187121
0
3.53816e-06
0
0.0334306
0.0155914
0
0
1.61872e-06
0
0.000671435
0
0
0
0
0
0
-9.26568e-05
0
0
0
0
0
0
0
4.55755e-08
0
0
-9.20748e-11
-3.00638e-34
0
0
0
2.95017e-12
-8.30951e-06
0.00027466
3.3852e-05
0
0
0
0
4.59525e-05
0
0
0
0.000932212
0
0
0
-0.000542927
0
0
-4.29424e-18
4.14604e-06
0
0
0
0
0
0
0
0
0
0
0
-9.10602e-05
0
0
-5.08626e-05
0
0
0
0
0
0
0
0
0
0
0
0
0
0
-1.33457e-12
3.51637e-06
-7.66319e-06
3.53789e-07
0
0
-7.06951e-07
-7.08121e-07
0
0
7.76175e-05
0
0
2.8443e-06
0
0
0
0
0
2.61971e-06
0
0
0.0151975
0
0
-2.61719e-06
0
0
0
0
0
0
0
0
0
0
0
0
-1.61042e-07
0
0
0
0
0
0
0
0
0
0
0
0
-1.6405e-06
2.73199e-06
-3.4366e-07
0
0
-6.64857e-07
-6.66102e-07
0
0
0
0
0
0
0
0
0
0
0
0.0124788
0
0
0
0
0.0120601
-2.63356e-06
0
0
0
0
0
0
0
0
0
0
0
0
1.52519e-08
0
0
1.44066e-08
0
0
0
0
2.90819e-12
2.18213e-12
6.76443e-13
0
-0.000117107
-3.84692e-06
7.09974e-06
3.54202e-07
0
0
-7.07532e-07
-7.08575e-07
-2.16933e-05
0
0
0
0
0
0
0
-0.00146363
0
0
2.73545e-06
0
0
0.0060201
0
0
-1.65316e-06
0
0
0
0
0
0
0
0
0
0
0
0
0
0
0
0
0
0
0
0
0
0
0
0
5.67931e-06
2.08754e-06
1.04476e-05
3.62497e-07
0
0
-7.24197e-07
-7.2508e-07
-9.34164e-06
0
0
0
0
0
0
0
-0.000532133
6.11043e-06
0
0
0
0
0.00187461
0
0
-9.63563e-07
-2.02993e-07
0
0
0
-4.32281e-06
0
0
-2.92363e-05
0
-1.88261e-05
0
0
-1.44873e-06
0
2.03844e-08
9.82017e-09
0
0
0
-1.95983e-12
-1.34594e-12
-6.65288e-13
-2.03916e-13
0
1.45432e-05
3.04171e-07
-1.89302e-06
1.67404e-06
2.26629e-06
0
5.4969e-06
0
0
6.17676e-05
0
0
0
0
0
0
-0.000171537
0
0
2.70652e-06
0
0
-0.00104009
0
-0.0008201
-1.08805e-06
-0.000295179
-9.31133e-05
0
0
0
0
0
-3.84674e-05
-3.31546e-05
-2.33859e-05
0
0
-1.46964e-06
0
0
1.7914e-08
0
0
0
-1.06167e-12
-8.55529e-13
-3.80256e-13
-9.2055e-14
0
-4.04602e-07
-3.87581e-06
-1.3431e-07
2.3569e-05
0
0.000185955
-6.57598e-07
-6.58573e-07
0
0
0
0
0
2.67057e-06
0
0
0
0
0
2.53071e-06
0
-0.00122592
-0.00118706
0
-0.00136434
0
0
0
0
0
0
0
0
0
-3.06717e-05
-2.1365e-05
0
0
0
0
-1.29437e-27
0
0
0
0
0
0
-8.93994e-14
0
0
4.66111e-06
5.68441e-06
3.40409e-05
3.36492e-07
-1.70162e-06
0
0
0
0
0
0
-0.0203419
0
0
0
0
0
0.000416192
0
2.57709e-06
2.757e-06
0
-0.000759818
-0.000591369
0
-1.67043e-06
-0.000120239
0
0
0
0
0
0
0
0
-1.81798e-05
0
0
0
0
0
0
0
0
0
0
1.70538e-14
2.66075e-14
9.6249e-15
0
-0.00084861
-1.1827e-06
0
0.000192642
0.955717
2.96775
4.12467
4.22527
3.26956
1.25752
0.100602
0
0
0
0
-0.00204665
0.000149846
0.000129509
5.78455e-06
2.70412e-06
0
2.4256e-05
3.06978e-05
0
0
-1.51623e-06
5.85801e-05
0
0
0
0
0
0
0
-2.5101e-05
-1.77615e-05
0
0
0
0
0
1.68381e-08
7.86402e-09
0
0
9.82775e-14
-1.46174e-31
9.69928e-15
-5.2853e-15
0
5.72312e-05
-1.51871e-06
0
2.22339
4.88806
5.2557
6.97842
7.61089
7.05528
6.89251
3.25858
0.201204
0
0
0
0
0
0
0
0
0
0
0
0
0
-1.39368e-06
0
0
0
0
0
0
0
0
0
0
0
0
-1.1499e-06
0
0
0
0
0
0
0
0
0
0
5.47968e-06
6.83679e-05
0.000178991
0.0719684
2.52112
5.088
2.33549
1.36731
2.22029
0.802282
4.64055
7.6531
3.2587
0.100602
2.78337e-06
0
2.21997e-05
-0.000341464
-0.000249268
0
0
0
0.000408369
0.000431619
0
0
-1.42606e-06
4.943e-07
1.81114e-05
1.17238e-05
8.27507e-06
-4.01231e-06
-1.88912e-05
-2.995e-05
-6.40317e-05
-1.33845e-22
-1.95837e-05
-1.1006e-05
-4.62762e-06
0
-6.69318e-08
-7.32967e-27
0
7.92156e-09
0
0
-1.69415e-13
-7.00632e-14
-3.73323e-14
-1.44203e-14
-3.59861e-05
-0.00116319
-1.45475
-0.584428
0.94969
-0.997536
-2.22539
-2.64216
0.407846
-2.04913
-4.96226
4.65438
6.88659
1.25757
0
4.4386e-05
8.64552e-05
0
-6.94919e-05
-0.000219613
0
0
0.000283128
0
0.000276564
0
-1.4866e-06
9.51219e-06
5.28265e-06
1.02233e-05
8.52121e-06
0
-1.83128e-05
-2.93252e-05
-3.14366e-05
0
-1.92308e-05
-1.07901e-05
0
0
-2.88739e-08
0
3.40235e-08
0
0
0
0
-3.46173e-14
-2.22177e-14
-1.05501e-14
0.0013315
-0.243475
-3.20013
-1.83275
3.03956
-2.16132
-5.38519
-0.52494
5.36573
5.48839
-2.06825
0.554917
7.05495
3.26955
0
0
-0.0101969
-0.000422195
-3.65902e-05
0
4.90697e-08
0
5.75291e-05
0.000107612
0.000102454
0
-1.48563e-06
4.64165e-06
0
1.09982e-05
8.53704e-06
-2.95947e-06
0
0
-3.08514e-05
-2.68235e-05
-1.8912e-05
0
-4.45267e-06
-1.11075e-06
0
-2.81501e-27
0
0
2.18235e-09
0
0
0
-2.33769e-14
0
0
-0.730537
-2.80781
-2.58815
4.3624
2.42642
-6.86649
-0.331295
7.99988
5.37445
0.352312
2.32337
7.65087
4.22533
0
0
0
0
0
0
-4.56772e-05
0
0
0
0
0
-1.46241e-06
0
0
0
0
-3.09281e-06
0
0
0
0
0
0
0
0
0
0
0
0
0
0
0
0
0
0
0
-0.974066
-1.39726
-1.94855
2.02596
6.11331
-3.16955
-6.736
-0.385597
-0.581361
-2.6873
1.44879
6.97491
4.12474
-0.0274889
0
1.66615e-05
7.13788e-05
-3.23819e-05
0
2.6644e-06
0
0.00016364
0
0
0
-1.45995e-06
0
0
0
-1.86953e-07
0
0
0
0
0
0
0
0
-1.12922e-06
0
0
0
7.95433e-09
2.18973e-09
0
0
0
0
0
0
-0.730627
-0.647256
0.819678
-0.614572
1.59114
3.41085
-3.17276
-6.85984
-5.45827
-2.17079
2.41753
5.30338
2.9678
0
0
0
0.0001235
0
0
2.65943e-06
0
0
0.000178799
0
0
-1.46755e-06
0
9.18292e-06
0
0
0
0
0
0
0
0
0
0
-1.12664e-06
0
0
1.685e-08
0
0
0
-4.82384e-14
0
0
0
0
-0.243468
-1.02616
1.25601
1.27066
-2.89366
1.55886
6.05584
2.33927
-2.10741
-0.984872
5.0766
4.93573
0.955732
0
0
5.26515e-06
5.50154e-06
-8.01988e-05
5.666e-06
2.66182e-06
0
0
0.000154277
0
-9.13024e-07
-1.46869e-06
2.94285e-07
0
1.16342e-05
8.46378e-06
-3.06406e-06
-1.80498e-05
-2.89808e-05
0
-2.70366e-05
-1.90624e-05
-1.07073e-05
0
-1.12391e-06
-5.9826e-08
2.21638e-08
3.371e-08
0
2.18716e-09
1.33727e-10
-8.7816e-14
-3.92342e-14
-2.50693e-14
-1.1973e-14
0
0
-0.732185
-1.08064
1.58595
1.30657
-0.72436
2.00961
4.30844
2.97928
0.947639
2.52772
2.23372
1.48461e-05
0
0
0
1.26265e-05
0
0
2.6633e-06
0
0
0.000153186
0
0
-1.4666e-06
0
8.69359e-06
0
0
0
0
0
-6.22232e-05
0
0
0
0
0
0
2.2158e-08
0
0
0
0
-8.92473e-14
0
0
0
0
-2.35328e-06
-2.58117e-06
-0.977856
-1.09819
1.25698
0.732446
-2.05825
-2.63163
-1.85076
-0.630911
0.0655395
0
0
0
0
-0.000284513
7.36706e-06
0
0
-4.80369e-09
2.82951e-06
0.00013373
0.000163246
0.000272166
0
-1.46636e-06
0
0
0
0
0
0
0
0
0
-1.90746e-05
0
0
0
0
2.21493e-08
1.68486e-08
0
2.18817e-09
1.34097e-10
0
-4.09701e-14
-1.03941e-19
0
0
-1.03406e-06
-1.44625e-06
4.19808e-06
-0.729808
-1.03688
-0.667135
-1.43848
-2.86593
-3.23022
-1.46288
0
0
0
0
0
0
0
0
0
2.66253e-06
0
0
0.000160319
0
0
-1.46667e-06
0
0
0
0
-3.19521e-06
0
0
0
0
0
0
0
0
0
0
0
0
0
0
-3.91993e-19
0
0
0
0
-1.39819e-05
-1.45e-06
2.83573e-06
-8.42109e-06
-0.244512
-0.735478
-0.977165
-0.72929
-0.245176
0.00125821
0
-0.00139528
0
0
0
4.47805e-05
4.86606e-05
-3.37379e-05
-0.000120174
-2.89067e-08
0
0.000132953
0
0
0.000172201
-1.46667e-06
2.25251e-17
0
0
-2.68496e-07
0
0
0
0
0
0
0
-4.49733e-06
0
0
0
0
7.96057e-09
0
0
3.45499e-31
5.05407e-32
0
9.86436e-34
0
-1.65376e-05
-1.45e-06
3.08906e-07
-5.05011e-06
0
0
-6.86549e-07
0
0
0
0
-0.001111
0
0
0
3.13879e-05
7.61779e-06
-3.50497e-05
-0.000120104
0
0
0.000132953
0.000162661
0
0.000172201
-1.46667e-06
0
0
0
-2.68496e-07
0
0
0
0
0
0
0
-4.49733e-06
0
0
0
0
7.96057e-09
0
0
0
5.2838e-32
0
0
)
;

boundaryField
{
    movingWall
    {
        type            zeroGradient;
    }
    fixedWalls
    {
        type            zeroGradient;
    }
    frontAndBack
    {
        type            empty;
    }
}

