/*--------------------------------*- C++ -*----------------------------------*\
| =========                 |                                                 |
| \\      /  F ield         | OpenFOAM: The Open Source CFD Toolbox           |
|  \\    /   O peration     | Version:  v2006                                 |
|   \\  /    A nd           | Website:  www.openfoam.com                      |
|    \\/     M anipulation  |                                                 |
\*---------------------------------------------------------------------------*/
FoamFile
{
    version     2.0;
    format      ascii;
    class       surfaceScalarField;
    location    "9";
    object      alphaPhi0.water;
}
// * * * * * * * * * * * * * * * * * * * * * * * * * * * * * * * * * * * * * //

dimensions      [0 3 -1 0 0 0 0];
oriented        oriented;


internalField   nonuniform List<scalar> 
99450
(
1.89071e-05
-1.89071e-05
5.10636e-05
-3.21565e-05
8.06445e-05
-2.9581e-05
0.000107697
-2.7052e-05
0.000133789
-2.60929e-05
0.000159564
-2.57746e-05
0.000185
-2.54356e-05
0.000210004
-2.50041e-05
0.000234496
-2.44924e-05
0.000258425
-2.39291e-05
0.000281746
-2.33208e-05
0.00030441
-2.26639e-05
0.000326372
-2.19621e-05
0.000347584
-2.12115e-05
0.000367996
-2.04121e-05
0.000387558
-1.95624e-05
0.000406222
-1.8664e-05
0.000423939
-1.77167e-05
0.000440656
-1.67175e-05
0.000456325
-1.5669e-05
0.000470898
-1.45724e-05
0.000484338
-1.34406e-05
0.000496601
-1.22629e-05
0.000507634
-1.10331e-05
0.000517397
-9.76312e-06
0.000525856
-8.4585e-06
0.000532975
-7.11949e-06
0.000538718
-5.7424e-06
0.000543047
-4.32972e-06
0.000545924
-2.87666e-06
0.000547299
-1.37497e-06
0.000547122
1.77547e-07
0.000545328
1.79313e-06
0.000541894
3.434e-06
0.000536811
5.08366e-06
0.000530109
6.702e-06
0.00052185
8.25866e-06
0.000512119
9.73059e-06
0.000501019
1.11003e-05
0.000488645
1.2374e-05
0.000475074
1.3571e-05
0.000460355
1.47187e-05
0.000444502
1.58533e-05
0.000427509
1.69934e-05
0.000409373
1.8136e-05
0.000390135
1.92374e-05
0.000369918
2.02174e-05
0.000348921
2.09968e-05
0.000327389
2.15322e-05
0.000305545
2.18439e-05
0.000283529
2.20159e-05
0.00026139
2.21392e-05
0.000239103
2.22869e-05
0.000216617
2.2486e-05
0.000193891
2.27255e-05
0.00017091
2.29817e-05
0.000147678
2.3232e-05
0.000124213
2.34644e-05
0.00010054
2.36736e-05
7.66778e-05
2.3862e-05
5.26468e-05
2.40309e-05
2.847e-05
2.41768e-05
4.17079e-06
2.42993e-05
-2.0228e-05
2.43988e-05
-4.47037e-05
2.44757e-05
-6.92326e-05
2.45289e-05
-9.37895e-05
2.45568e-05
-0.000118352
2.45625e-05
-0.000142898
2.45461e-05
-0.000167404
2.45063e-05
-0.000191846
2.44413e-05
-0.000216197
2.43516e-05
-0.000240435
2.42379e-05
-0.000264535
2.40996e-05
-0.000288468
2.39332e-05
-0.000312212
2.37437e-05
-0.000335751
2.35394e-05
-0.000359061
2.331e-05
-0.000382136
2.30752e-05
-0.000404973
2.28372e-05
-0.000427566
2.25928e-05
-0.000449915
2.23488e-05
-0.00047203
2.21149e-05
-0.00049393
2.18999e-05
-0.000515604
2.16746e-05
-0.000537065
2.1461e-05
-0.000558323
2.1258e-05
-0.000579412
2.10887e-05
-0.000600334
2.09214e-05
-0.000621117
2.07834e-05
-0.000641802
2.06847e-05
-0.000662418
2.06161e-05
-0.000683023
2.06049e-05
-0.000703683
2.06602e-05
-0.000724478
2.07956e-05
-0.000745523
2.10449e-05
-0.000766989
2.14655e-05
-0.00078907
2.20808e-05
-0.000811754
2.26847e-05
-0.000834783
2.30289e-05
-0.000857707
2.29234e-05
-0.000879991
2.22842e-05
-0.000901188
2.11972e-05
-0.000920937
1.97494e-05
-0.000938972
1.80347e-05
-0.000955139
1.61664e-05
-0.00096933
1.41913e-05
-0.000981433
1.21027e-05
-0.000991378
9.94588e-06
-0.000999055
7.67643e-06
-0.00100442
5.36511e-06
-0.00100741
2.9907e-06
-0.00100789
4.78657e-07
-0.00100588
-2.01139e-06
-0.00100139
-4.48937e-06
-0.000994526
-6.86218e-06
-0.000985443
-9.08301e-06
-0.000974309
-1.11345e-05
-0.000961293
-1.3016e-05
-0.000946557
-1.47355e-05
-0.000930214
-1.63439e-05
-0.000912364
-1.78492e-05
-0.000893087
-1.92772e-05
-0.000872446
-2.06408e-05
-0.000850495
-2.19513e-05
-0.000827281
-2.3214e-05
-0.000802849
-2.44322e-05
-0.000777248
-2.56012e-05
-0.000750512
-2.67351e-05
-0.000722686
-2.78262e-05
-0.00069381
-2.88763e-05
-0.000663914
-2.98964e-05
-0.000633035
-3.08784e-05
-0.000601205
-3.18306e-05
-0.00056847
-3.27345e-05
-0.000534886
-3.35838e-05
-0.000500486
-3.44001e-05
-0.000465324
-3.51617e-05
-0.000429433
-3.58913e-05
-0.000392862
-3.65709e-05
-0.000355626
-3.72366e-05
-0.000317755
-3.78707e-05
-0.000279307
-3.84476e-05
-0.000240276
-3.9031e-05
-0.000200731
-3.95456e-05
-0.000160416
-4.03148e-05
-0.000119601
-4.08148e-05
-7.76301e-05
-4.19711e-05
-3.60829e-05
-4.15472e-05
-3.60829e-05
1.26748e-05
-3.15819e-05
3.36836e-05
-5.31652e-05
5.25892e-05
-4.84866e-05
6.90023e-05
-4.34651e-05
8.48829e-05
-4.19735e-05
0.000100583
-4.14749e-05
0.000116269
-4.11212e-05
0.000131636
-4.03713e-05
0.000146739
-3.95951e-05
0.000161476
-3.8666e-05
0.000175839
-3.76837e-05
0.000189796
-3.66209e-05
0.000203316
-3.54824e-05
0.000216371
-3.42671e-05
0.000228937
-3.29774e-05
0.000240987
-3.16129e-05
0.000252497
-3.0174e-05
0.000263444
-2.86636e-05
0.000273813
-2.70858e-05
0.000283579
-2.54352e-05
0.00029272
-2.3714e-05
0.000301214
-2.19342e-05
0.00030904
-2.00889e-05
0.000316186
-1.81787e-05
0.000322633
-1.62101e-05
0.000328362
-1.41877e-05
0.000333363
-1.21208e-05
0.000337634
-1.00134e-05
0.000341174
-7.86924e-06
0.000343991
-5.69433e-06
0.000346109
-3.49254e-06
0.000347545
-1.25859e-06
0.00034829
1.048e-06
0.000348466
3.25854e-06
0.000348054
5.49562e-06
0.000347024
7.73165e-06
0.000345322
9.96086e-06
0.000342882
1.21701e-05
0.000339635
1.43477e-05
0.000335529
1.64802e-05
0.000330541
1.85593e-05
0.000324666
2.05938e-05
0.000317926
2.25925e-05
0.000310351
2.45683e-05
0.00030196
2.65279e-05
0.000292723
2.84738e-05
0.000282552
3.03885e-05
0.000271316
3.22324e-05
0.000258882
3.39665e-05
0.000245165
3.55609e-05
0.000230168
3.70127e-05
0.000213964
3.83437e-05
0.000196665
3.95854e-05
0.000178376
4.07759e-05
0.000159187
4.19143e-05
0.000139161
4.30078e-05
0.00011834
4.40527e-05
9.67651e-05
4.50391e-05
7.44787e-05
4.59599e-05
5.15268e-05
4.68139e-05
2.79591e-05
4.75987e-05
3.81937e-06
4.83165e-05
-2.08428e-05
4.89614e-05
-4.59735e-05
4.95296e-05
-7.15169e-05
5.0019e-05
-9.74261e-05
5.04382e-05
-0.000123643
5.07735e-05
-0.000150111
5.10307e-05
-0.000176775
5.12096e-05
-0.000203578
5.13097e-05
-0.000230463
5.13266e-05
-0.000257374
5.12625e-05
-0.000284253
5.11169e-05
-0.000311042
5.08885e-05
-0.000337685
5.05758e-05
-0.000364119
5.01779e-05
-0.000390279
4.96993e-05
-0.000416106
4.9137e-05
-0.000441538
4.85078e-05
-0.000466502
4.78012e-05
-0.000490949
4.7039e-05
-0.0005148
4.62003e-05
-0.00053801
4.53248e-05
-0.000560516
4.4406e-05
-0.000582283
4.34418e-05
-0.000603262
4.24395e-05
-0.000623409
4.14047e-05
-0.000642663
4.03435e-05
-0.000660999
3.9257e-05
-0.000678367
3.81516e-05
-0.000694717
3.70342e-05
-0.000710006
3.5905e-05
-0.000724173
3.47723e-05
-0.000737155
3.36422e-05
-0.000748875
3.25153e-05
-0.000759229
3.13995e-05
-0.000768047
3.02832e-05
-0.000775108
2.9142e-05
-0.000780291
2.78676e-05
-0.000783627
2.63653e-05
-0.000785207
2.45028e-05
-0.000785143
2.22206e-05
-0.000783492
1.95461e-05
-0.000780293
1.65502e-05
-0.000775587
1.3329e-05
-0.000769392
9.97107e-06
-0.000761781
6.58012e-06
-0.000752888
3.21048e-06
-0.000742982
3.94723e-08
-0.000731853
-3.4527e-06
-0.000719684
-6.80346e-06
-0.000706623
-1.00707e-05
-0.000692905
-1.32392e-05
-0.000678627
-1.62895e-05
-0.000663869
-1.92474e-05
-0.000648638
-2.20927e-05
-0.000632909
-2.48121e-05
-0.000616668
-2.73758e-05
-0.00059991
-2.97743e-05
-0.000582658
-3.1987e-05
-0.000564955
-3.40476e-05
-0.000546844
-3.59602e-05
-0.000528369
-3.77518e-05
-0.000509591
-3.94183e-05
-0.000490549
-4.09941e-05
-0.000471276
-4.24863e-05
-0.000451814
-4.38949e-05
-0.000432191
-4.52243e-05
-0.000412445
-4.64811e-05
-0.000392611
-4.76594e-05
-0.000372726
-4.87614e-05
-0.000352815
-4.98073e-05
-0.0003329
-5.07939e-05
-0.000313023
-5.17076e-05
-0.00029315
-5.26076e-05
-0.000273309
-5.34249e-05
-0.000253538
-5.41711e-05
-0.000233806
-5.48936e-05
-0.000214136
-5.55609e-05
-0.000194518
-5.61894e-05
-0.000174976
-5.67777e-05
-0.000155511
-5.73361e-05
-0.000136111
-5.78476e-05
-0.000116858
-5.82837e-05
-9.77916e-05
-5.86123e-05
-7.9311e-05
-5.87954e-05
-6.09955e-05
-5.91303e-05
-4.13427e-05
-6.16239e-05
-1.74056e-05
-6.54843e-05
-5.34885e-05
1.44392e-05
-4.60211e-05
3.92709e-05
-7.7997e-05
6.23148e-05
-7.15304e-05
8.21303e-05
-6.32806e-05
0.000100852
-6.06956e-05
0.000119458
-6.00804e-05
0.000137999
-5.96625e-05
0.00015631
-5.86818e-05
0.000174248
-5.75333e-05
0.000191776
-5.61938e-05
0.000208842
-5.47497e-05
0.000225422
-5.32011e-05
0.000241472
-5.15321e-05
0.000256954
-4.97494e-05
0.000271832
-4.78553e-05
0.000286071
-4.58519e-05
0.000299642
-4.37449e-05
0.000312511
-4.15331e-05
0.000324647
-3.92222e-05
0.000336025
-3.68126e-05
0.000346613
-3.43023e-05
0.000356383
-3.17042e-05
0.000365321
-2.90273e-05
0.000373408
-2.6265e-05
0.000380619
-2.3421e-05
0.00038694
-2.05091e-05
0.000392355
-1.75356e-05
0.000396844
-1.45024e-05
0.000400389
-1.14145e-05
0.000402977
-8.28199e-06
0.000404585
-5.10062e-06
0.000405218
-1.89172e-06
0.000405032
1.23415e-06
0.000403782
4.50813e-06
0.00040152
7.75779e-06
0.000398249
1.10028e-05
0.000393971
1.42389e-05
0.000388687
1.74536e-05
0.000382395
2.06405e-05
0.000375089
2.37855e-05
0.000366778
2.68702e-05
0.000357477
2.9895e-05
0.000347216
3.28536e-05
0.000336035
3.57499e-05
0.000323973
3.85893e-05
0.000311067
4.13796e-05
0.00029733
4.4126e-05
0.000282747
4.68153e-05
0.000267288
4.94257e-05
0.000250923
5.19259e-05
0.000233641
5.42949e-05
0.000215461
5.65235e-05
0.000196429
5.86176e-05
0.000176613
6.05911e-05
0.000156066
6.24614e-05
0.000134841
6.42334e-05
0.000112979
6.59147e-05
9.05215e-05
6.74963e-05
6.75058e-05
6.89757e-05
4.3969e-05
7.03507e-05
1.99511e-05
7.16166e-05
-4.5055e-06
7.2773e-05
-2.93581e-05
7.38139e-05
-5.4555e-05
7.47265e-05
-8.00618e-05
7.55258e-05
-0.000105834
7.62101e-05
-0.000131816
7.67562e-05
-0.000157967
7.71815e-05
-0.00018424
7.74825e-05
-0.000210572
7.76422e-05
-0.000236929
7.76835e-05
-0.000263252
7.75853e-05
-0.000289492
7.7357e-05
-0.000315608
7.70043e-05
-0.000341533
7.65003e-05
-0.000367225
7.58703e-05
-0.000392637
7.51115e-05
-0.00041771
7.42103e-05
-0.000442374
7.31711e-05
-0.00046659
7.20171e-05
-0.000490292
7.07412e-05
-0.000513456
6.93645e-05
-0.000536
6.78683e-05
-0.000557863
6.62691e-05
-0.000579016
6.45956e-05
-0.000599403
6.28259e-05
-0.000618979
6.09807e-05
-0.000637685
5.90502e-05
-0.000655499
5.70703e-05
-0.00067236
5.50127e-05
-0.000688225
5.28994e-05
-0.000703065
5.07444e-05
-0.000716822
4.85299e-05
-0.000729443
4.62629e-05
-0.000740881
4.39534e-05
-0.000751051
4.15699e-05
-0.000759872
3.91036e-05
-0.000767233
3.65028e-05
-0.000773097
3.37322e-05
-0.000777506
3.07742e-05
-0.000780601
2.75976e-05
-0.000782538
2.41576e-05
-0.000783451
2.04594e-05
-0.000783458
1.6557e-05
-0.00078262
1.24908e-05
-0.000780961
8.31273e-06
-0.000778443
4.06203e-06
-0.000774795
-4.37673e-07
-0.000770164
-4.59198e-06
-0.000764744
-8.87231e-06
-0.000758417
-1.31303e-05
-0.000751139
-1.73492e-05
-0.000742877
-2.15013e-05
-0.000733595
-2.55709e-05
-0.000723284
-2.95584e-05
-0.000711928
-3.34491e-05
-0.000699523
-3.72167e-05
-0.000686062
-4.08374e-05
-0.000671539
-4.42965e-05
-0.000655964
-4.75628e-05
-0.000639369
-5.06419e-05
-0.000621804
-5.35259e-05
-0.000603336
-5.62196e-05
-0.00058401
-5.8744e-05
-0.000563902
-6.1102e-05
-0.00054308
-6.33084e-05
-0.000521617
-6.53574e-05
-0.00049961
-6.7232e-05
-0.000477137
-6.89543e-05
-0.000454271
-7.05246e-05
-0.000431082
-7.19511e-05
-0.000407656
-7.32327e-05
-0.000384082
-7.43678e-05
-0.000360418
-7.5372e-05
-0.00033677
-7.62559e-05
-0.000313181
-7.70135e-05
-0.000289671
-7.7681e-05
-0.000266323
-7.82421e-05
-0.000243166
-7.87179e-05
-0.000220235
-7.91199e-05
-0.000197542
-7.94709e-05
-0.000175119
-7.97593e-05
-0.000152966
-8.00008e-05
-0.000131128
-8.01218e-05
-0.000109721
-8.00186e-05
-8.89923e-05
-7.95246e-05
-6.81159e-05
-8.00066e-05
-4.51361e-05
-8.46036e-05
-1.7525e-05
-9.30955e-05
-7.10135e-05
1.58788e-05
-6.18999e-05
4.36224e-05
-0.000105741
6.95108e-05
-9.74189e-05
9.21748e-05
-8.59447e-05
0.000113507
-8.20279e-05
0.000134594
-8.1167e-05
0.000155457
-8.05262e-05
0.000176029
-7.92533e-05
0.000196101
-7.76054e-05
0.000215646
-7.57391e-05
0.000234609
-7.37119e-05
0.000252954
-7.15469e-05
0.000270639
-6.92165e-05
0.000287619
-6.67299e-05
0.000303861
-6.40973e-05
0.000319328
-6.13183e-05
0.00033398
-5.83968e-05
0.000347788
-5.53419e-05
0.000360726
-5.21597e-05
0.000372766
-4.88522e-05
0.000383889
-4.54261e-05
0.000394072
-4.18869e-05
0.000403287
-3.82419e-05
0.000411522
-3.45008e-05
0.000418771
-3.06697e-05
0.000425022
-2.67603e-05
0.000430265
-2.27781e-05
0.000434488
-1.87256e-05
0.000437689
-1.46155e-05
0.000439868
-1.0461e-05
0.000441036
-6.26903e-06
0.000441193
-2.04849e-06
0.000440158
2.26887e-06
0.000438136
6.53015e-06
0.000435076
1.08177e-05
0.000430986
1.50929e-05
0.000425873
1.93519e-05
0.000419742
2.35851e-05
0.000412602
2.77804e-05
0.00040446
3.19273e-05
0.000395314
3.60163e-05
0.000385169
4.00396e-05
0.00037403
4.39929e-05
0.000361905
4.7875e-05
0.000348813
5.16812e-05
0.000334789
5.54035e-05
0.000319879
5.90363e-05
0.000304128
6.25663e-05
0.00028757
6.59837e-05
0.000270229
6.9267e-05
0.000252112
7.24116e-05
0.000233228
7.54072e-05
0.00021359
7.82555e-05
0.000193222
8.09589e-05
0.000172155
8.35291e-05
0.000150437
8.5951e-05
0.000128103
8.82485e-05
0.000105207
9.03925e-05
8.17858e-05
9.23971e-05
5.7882e-05
9.42545e-05
3.35369e-05
9.59617e-05
8.79422e-06
9.75158e-05
-1.63087e-05
9.89168e-05
-4.17283e-05
0.000100146
-6.74174e-05
0.000101215
-9.33264e-05
0.000102119
-0.000119426
0.000102856
-0.000145657
0.000103413
-0.000171989
0.000103814
-0.000198363
0.000104016
-0.000224746
0.000104067
-0.000251079
0.000103918
-0.000277328
0.000103606
-0.000303436
0.000103113
-0.000329373
0.000102437
-0.000355091
0.000101588
-0.00038054
0.000100561
-0.000405678
9.93483e-05
-0.000430487
9.79798e-05
-0.000454899
9.64293e-05
-0.000478877
9.47194e-05
-0.000502359
9.28465e-05
-0.000525311
9.08202e-05
-0.000547711
8.86683e-05
-0.000569485
8.63698e-05
-0.00059059
8.39316e-05
-0.000610982
8.13723e-05
-0.000630642
7.87099e-05
-0.000649491
7.59192e-05
-0.000667503
7.30247e-05
-0.000684619
7.00157e-05
-0.000700792
6.69174e-05
-0.00071599
6.37279e-05
-0.000730145
6.04179e-05
-0.000743214
5.70226e-05
-0.000755154
5.35095e-05
-0.000765949
4.9899e-05
-0.00077558
4.61342e-05
-0.00078407
4.22221e-05
-0.000791434
3.81377e-05
-0.000797687
3.38504e-05
-0.00080289
2.93615e-05
-0.000807112
2.46807e-05
-0.000810369
1.98139e-05
-0.000812664
1.47864e-05
-0.000813971
9.61898e-06
-0.000814269
4.36e-06
-0.000813931
-7.75555e-07
-0.000812379
-6.14372e-06
-0.000809758
-1.14929e-05
-0.000806061
-1.68277e-05
-0.0008013
-2.21098e-05
-0.00079546
-2.73416e-05
-0.000788535
-3.24964e-05
-0.000780556
-3.75371e-05
-0.000771532
-4.24735e-05
-0.000761447
-4.73012e-05
-0.000750293
-5.19918e-05
-0.000738087
-5.65022e-05
-0.000724799
-6.08503e-05
-0.000710415
-6.50259e-05
-0.000694944
-6.89975e-05
-0.000678404
-7.27599e-05
-0.000660811
-7.63365e-05
-0.000642199
-7.97138e-05
-0.000622627
-8.2881e-05
-0.000602148
-8.58361e-05
-0.000580787
-8.85933e-05
-0.000558561
-9.11804e-05
-0.000535557
-9.35282e-05
-0.000511835
-9.5673e-05
-0.000487462
-9.76063e-05
-0.000462506
-9.9323e-05
-0.000437037
-0.000100841
-0.000411123
-0.00010217
-0.000384803
-0.000103333
-0.000358177
-0.000104307
-0.000331291
-0.000105128
-0.000304214
-0.000105795
-0.000276995
-0.000106339
-0.000249687
-0.00010678
-0.000222319
-0.000107127
-0.000194943
-0.000107377
-0.000167618
-0.000107447
-0.000140543
-0.000107094
-0.000113741
-0.000106327
-8.62408e-05
-0.000107507
-5.57611e-05
-0.000115083
-2.22239e-05
-0.000126633
-9.32374e-05
1.63886e-05
-7.82885e-05
4.50819e-05
-0.000134434
7.18284e-05
-0.000124165
9.53944e-05
-0.000109511
0.000117664
-0.000104298
0.000139552
-0.000103055
0.000161172
-0.000102147
0.000182396
-0.000100477
0.000203095
-9.83045e-05
0.000223214
-9.58576e-05
0.000242708
-9.32065e-05
0.000261528
-9.03669e-05
0.000279635
-8.73231e-05
0.000296991
-8.40862e-05
0.000313553
-8.06595e-05
0.000329288
-7.70528e-05
0.000344168
-7.32767e-05
0.00035816
-6.93346e-05
0.00037124
-6.52396e-05
0.000383381
-6.09933e-05
0.000394567
-5.66118e-05
0.000404779
-5.20991e-05
0.000414005
-4.74677e-05
0.000422233
-4.27285e-05
0.000429446
-3.78833e-05
0.000435634
-3.2948e-05
0.000440783
-2.79273e-05
0.000444892
-2.28339e-05
0.000447956
-1.76802e-05
0.000449961
-1.2466e-05
0.000450903
-7.211e-06
0.000450767
-1.91165e-06
0.000449648
3.38731e-06
0.000447472
8.7067e-06
0.000444273
1.40159e-05
0.000440041
1.93249e-05
0.000434784
2.46097e-05
0.000428516
2.98524e-05
0.000421245
3.50514e-05
0.000412977
4.01961e-05
0.000403719
4.5274e-05
0.000393489
5.02696e-05
0.0003823
5.51814e-05
0.000370171
6.00045e-05
0.000357118
6.4734e-05
0.000343165
6.93561e-05
0.000328335
7.38665e-05
0.000312652
7.82495e-05
0.000296132
8.25035e-05
0.0002788
8.65989e-05
0.000260668
9.05441e-05
0.000241755
9.43196e-05
0.000222087
9.79239e-05
0.00020169
0.000101356
0.0001806
0.000104619
0.000158848
0.000107703
0.000136483
0.000110614
0.000113533
0.000113343
9.0043e-05
0.000115887
6.60538e-05
0.000118244
4.16074e-05
0.000120408
1.67468e-05
0.000122376
-8.48491e-06
0.000124149
-3.40508e-05
0.000125712
-5.99006e-05
0.000127065
-8.59933e-05
0.000128212
-0.000112296
0.000129158
-0.000138746
0.000129863
-0.000165307
0.000130375
-0.000191937
0.000130647
-0.000218592
0.000130721
-0.000245221
0.000130548
-0.000271792
0.000130177
-0.000298242
0.000129563
-0.00032454
0.000128735
-0.000350651
0.000127699
-0.000376505
0.000126415
-0.000402082
0.000124925
-0.000427326
0.000123224
-0.000452211
0.000121315
-0.000476674
0.000119182
-0.00050068
0.000116853
-0.00052419
0.00011433
-0.00054715
0.000111628
-0.000569506
0.000108726
-0.00059122
0.000105646
-0.000612247
0.000102399
-0.000632532
9.89945e-05
-0.000652024
9.54115e-05
-0.000670687
9.16874e-05
-0.000688478
8.78063e-05
-0.00070534
8.37802e-05
-0.00072122
7.96073e-05
-0.000736103
7.53012e-05
-0.000749929
7.08487e-05
-0.00076267
6.62502e-05
-0.00077426
6.1489e-05
-0.000784713
5.6587e-05
-0.000793992
5.15011e-05
-0.000802098
4.6244e-05
-0.000809055
4.08077e-05
-0.000814883
3.51892e-05
-0.000819601
2.93987e-05
-0.000823228
2.34413e-05
-0.000825796
1.73541e-05
-0.000827356
1.11785e-05
-0.00082792
4.92431e-06
-0.000827195
-1.50027e-06
-0.000825534
-7.80463e-06
-0.000822884
-1.4143e-05
-0.000819244
-2.0468e-05
-0.000814604
-2.67499e-05
-0.000808972
-3.29728e-05
-0.000802354
-3.91147e-05
-0.000794726
-4.5165e-05
-0.000786094
-5.11053e-05
-0.000776491
-5.69043e-05
-0.000765922
-6.25611e-05
-0.000754367
-6.80568e-05
-0.000741843
-7.33748e-05
-0.000728365
-7.85036e-05
-0.000713903
-8.34596e-05
-0.000698459
-8.82039e-05
-0.000682074
-9.27211e-05
-0.000664749
-9.70394e-05
-0.000646483
-0.000101147
-0.000627282
-0.000105037
-0.000607169
-0.000108706
-0.000586216
-0.000112133
-0.000564395
-0.00011535
-0.000541728
-0.00011834
-0.000518251
-0.000121083
-0.000493994
-0.00012358
-0.000468983
-0.000125853
-0.000443258
-0.000127895
-0.000416889
-0.000129702
-0.000389903
-0.000131293
-0.000362335
-0.000132697
-0.000334236
-0.000133894
-0.000305667
-0.000134908
-0.000276667
-0.000135779
-0.000247287
-0.000136507
-0.000217562
-0.000137101
-0.000187581
-0.000137428
-0.000157514
-0.000137161
-0.000127271
-0.000136569
-9.5949e-05
-0.000138829
-6.17445e-05
-0.000149288
-2.5474e-05
-0.000162903
-0.000118711
1.68334e-05
-9.5122e-05
4.59877e-05
-0.000163588
7.31601e-05
-0.000151338
9.70932e-05
-0.000133444
0.00011973
-0.000126935
0.00014196
-0.000125284
0.00016393
-0.000124117
0.000185471
-0.000122019
0.00020648
-0.000119313
0.000226897
-0.000116275
0.000246672
-0.000112981
0.000265766
-0.00010946
0.000284135
-0.000105692
0.000301743
-0.000101695
0.000318551
-9.74675e-05
0.00033453
-9.3031e-05
0.00034964
-8.83867e-05
0.000363859
-8.35544e-05
0.000377161
-7.8541e-05
0.000389523
-7.33556e-05
0.000400924
-6.80132e-05
0.000411347
-6.25218e-05
0.000420774
-5.68946e-05
0.000429187
-5.11414e-05
0.000436578
-4.52745e-05
0.000442934
-3.93036e-05
0.000448245
-3.32385e-05
0.000452504
-2.70931e-05
0.000455702
-2.08778e-05
0.000457847
-1.4611e-05
0.000458932
-8.29609e-06
0.00045897
-1.95001e-06
0.000457925
4.43277e-06
0.000455821
1.08104e-05
0.000452651
1.71859e-05
0.000448437
2.35391e-05
0.00044318
2.98661e-05
0.000436883
3.61496e-05
0.000429558
4.23762e-05
0.00042121
4.85445e-05
0.000411853
5.46308e-05
0.000401494
6.06284e-05
0.000390151
6.65246e-05
0.000377842
7.23134e-05
0.000364592
7.79843e-05
0.00035042
8.35285e-05
0.000335353
8.89329e-05
0.000319411
9.41915e-05
0.000302632
9.92827e-05
0.000285025
0.000104206
0.000266623
0.000108946
0.000247437
0.000113506
0.000227502
0.000117859
0.000206838
0.000122021
0.000185482
0.000125975
0.000163466
0.000129718
0.000140827
0.000133253
0.000117598
0.000136572
9.38265e-05
0.000139658
6.95482e-05
0.000142522
4.4803e-05
0.000145153
1.96323e-05
0.000147547
-5.92104e-06
0.000149702
-3.18223e-05
0.000151613
-5.80174e-05
0.00015326
-8.44685e-05
0.000154663
-0.000111133
0.000155823
-0.000137965
0.000156695
-0.000164913
0.000157323
-0.000191948
0.000157682
-0.000219005
0.000157778
-0.000246059
0.000157602
-0.00027306
0.000157178
-0.000299949
0.000156452
-0.000326694
0.000155479
-0.000353238
0.000154243
-0.000379546
0.000152723
-0.00040557
0.000150949
-0.000431266
0.00014892
-0.000456574
0.000146623
-0.000481464
0.000144071
-0.000505885
0.000141274
-0.000529789
0.000138235
-0.00055313
0.000134968
-0.000575848
0.000131444
-0.000597908
0.000127706
-0.000619253
0.000123744
-0.000639836
0.000119578
-0.000659616
0.000115191
-0.000678537
0.000110609
-0.000696557
0.000105826
-0.000713629
0.000100852
-0.000729713
9.5692e-05
-0.000744762
9.03497e-05
-0.000758745
8.48323e-05
-0.000771624
7.91292e-05
-0.000783354
7.32185e-05
-0.000793926
6.71592e-05
-0.000803347
6.09216e-05
-0.000811588
5.44854e-05
-0.000818663
4.78828e-05
-0.000824585
4.11112e-05
-0.000829361
3.4175e-05
-0.00083303
2.711e-05
-0.000835595
1.99185e-05
-0.000837039
1.26228e-05
-0.000837372
5.25765e-06
-0.000836811
-2.06164e-06
-0.000835103
-9.51229e-06
-0.000832308
-1.69379e-05
-0.00082845
-2.4326e-05
-0.00082352
-3.168e-05
-0.000817537
-3.89564e-05
-0.000810522
-4.613e-05
-0.000802482
-5.32043e-05
-0.000793439
-6.01486e-05
-0.000783398
-6.6945e-05
-0.000772376
-7.35832e-05
-0.000760379
-8.00534e-05
-0.000747421
-8.63331e-05
-0.000733516
-9.24088e-05
-0.000718713
-9.82628e-05
-0.000702987
-0.000103929
-0.000686354
-0.000109354
-0.000668835
-0.000114559
-0.000650461
-0.000119521
-0.000631242
-0.000124255
-0.000611197
-0.000128751
-0.000590329
-0.000133001
-0.000568677
-0.000137003
-0.000546231
-0.000140785
-0.000523033
-0.000144281
-0.000499059
-0.000147553
-0.000474372
-0.000150541
-0.000448971
-0.000153295
-0.000422852
-0.000155821
-0.000396057
-0.000158087
-0.000368636
-0.000160118
-0.000340584
-0.000161946
-0.00031196
-0.000163532
-0.000282812
-0.000164927
-0.000253141
-0.000166178
-0.000223005
-0.000167238
-0.000192471
-0.000167961
-0.000161651
-0.000167982
-0.000130537
-0.000167683
-9.84264e-05
-0.00017094
-6.37622e-05
-0.000183952
-2.7015e-05
-0.00019965
-0.000145726
1.73497e-05
-0.000112472
4.71939e-05
-0.000193432
7.50811e-05
-0.000179225
9.96028e-05
-0.000157965
0.000122711
-0.000150043
0.000145398
-0.000147971
0.000167833
-0.000146552
0.00018984
-0.000144026
0.000211313
-0.000140786
0.000232175
-0.000137137
0.000252382
-0.000133188
0.000271891
-0.000128969
0.000290666
-0.000124467
0.000308663
-0.000119691
0.000325849
-0.000114654
0.00034219
-0.000109372
0.000357655
-0.000103852
0.000372216
-9.8115e-05
0.000385843
-9.21685e-05
0.000398518
-8.60301e-05
0.000410215
-7.97103e-05
0.000420916
-7.32228e-05
0.000430604
-6.65823e-05
0.000439265
-5.9803e-05
0.000446888
-5.28971e-05
0.000453454
-4.58696e-05
0.000458958
-3.87428e-05
0.000463393
-3.15281e-05
0.000466751
-2.42361e-05
0.000469023
-1.68824e-05
0.000470205
-9.4787e-06
0.000470294
-2.03867e-06
0.000469302
5.42469e-06
0.000467223
1.28892e-05
0.000464065
2.0344e-05
0.000459821
2.77831e-05
0.000454509
3.51782e-05
0.000448132
4.25264e-05
0.000440696
4.98119e-05
0.000432219
5.70215e-05
0.000422711
6.4139e-05
0.000412181
7.11591e-05
0.000400644
7.80612e-05
0.000388125
8.48324e-05
0.00037464
9.14691e-05
0.000360211
9.79581e-05
0.000344859
0.000104284
0.000328613
0.000110437
0.000311491
0.000116405
0.000293521
0.000122177
0.000274724
0.000127742
0.000255132
0.000133098
0.000234772
0.000138219
0.000213678
0.000143116
0.000191878
0.000147774
0.000169411
0.000152186
0.00014631
0.000156354
0.000122622
0.00016026
9.83767e-05
0.000163904
7.36167e-05
0.000167282
4.83835e-05
0.000170386
2.27198e-05
0.000173211
-3.33104e-06
0.000175753
-2.97362e-05
0.000178018
-5.64427e-05
0.000179966
-8.34066e-05
0.000181627
-0.000110575
0.000182991
-0.000137927
0.000184046
-0.000165398
0.000184794
-0.000192955
0.000185239
-0.000220538
0.000185361
-0.000248114
0.000185179
-0.000275616
0.000184679
-0.000303023
0.000183859
-0.000330284
0.00018274
-0.000357329
0.000181288
-0.00038413
0.000179524
-0.000410639
0.000177458
-0.00043681
0.000175091
-0.000462577
0.00017239
-0.00048791
0.000169404
-0.000512756
0.00016612
-0.00053707
0.000162549
-0.000560794
0.000158692
-0.000583882
0.000154531
-0.000606292
0.000150116
-0.000627974
0.000145426
-0.000648876
0.00014048
-0.000668957
0.000135272
-0.000688169
0.000129821
-0.000706469
0.000124127
-0.00072381
0.000118192
-0.000740158
0.00011204
-0.000755468
0.000105659
-0.000769704
9.9068e-05
-0.000782839
9.22641e-05
-0.000794867
8.52473e-05
-0.00080574
7.80315e-05
-0.000815439
7.06212e-05
-0.000823987
6.30334e-05
-0.000831357
5.52529e-05
-0.00083754
4.72938e-05
-0.000842573
3.92076e-05
-0.000846447
3.0984e-05
-0.00084917
2.26424e-05
-0.000850748
1.42005e-05
-0.000851215
5.72454e-06
-0.000850432
-2.84441e-06
-0.000848568
-1.13769e-05
-0.000845592
-1.99134e-05
-0.000841498
-2.84197e-05
-0.000836312
-3.68668e-05
-0.000830038
-4.52294e-05
-0.00082267
-5.34983e-05
-0.000814219
-6.16556e-05
-0.000804718
-6.96496e-05
-0.000794176
-7.74869e-05
-0.000782618
-8.51415e-05
-0.000770051
-9.26201e-05
-0.000756493
-9.9891e-05
-0.000741962
-0.00010694
-0.000726464
-0.000113761
-0.000710071
-0.000120322
-0.000692769
-0.000126656
-0.000674587
-0.000132741
-0.000655536
-0.000138572
-0.000635654
-0.000144138
-0.00061497
-0.000149435
-0.0005935
-0.000154471
-0.000571265
-0.000159238
-0.000548313
-0.000163737
-0.000524638
-0.000167957
-0.000500275
-0.000171916
-0.000475216
-0.0001756
-0.000449486
-0.000179026
-0.000423141
-0.000182166
-0.00039616
-0.000185067
-0.000368586
-0.000187692
-0.000340437
-0.000190095
-0.00031176
-0.00019221
-0.000282545
-0.000194141
-0.000252875
-0.000195849
-0.000222735
-0.000197378
-0.000192196
-0.0001985
-0.000161362
-0.000198816
-0.000130304
-0.000198741
-9.84682e-05
-0.000202775
-6.42855e-05
-0.000218135
-2.75888e-05
-0.000236347
-0.000173315
1.79022e-05
-0.000130374
4.87263e-05
-0.000224256
7.76464e-05
-0.000208145
0.00010303
-0.000183349
0.000126821
-0.000173834
0.000150158
-0.000171308
0.000173225
-0.000169619
0.000195873
-0.000166674
0.000217957
-0.000162871
0.00023941
-0.00015859
0.000260183
-0.000153961
0.000280235
-0.000149022
0.000299533
-0.000143765
0.000318031
-0.000138189
0.000335692
-0.000132315
0.000352485
-0.000126164
0.000368377
-0.000119744
0.00038334
-0.000113079
0.000397348
-0.000106176
0.000410374
-9.90558e-05
0.000422403
-9.17392e-05
0.000433411
-8.42314e-05
0.000443383
-7.65542e-05
0.000452302
-6.87215e-05
0.000460148
-6.07434e-05
0.000466917
-5.26388e-05
0.000472597
-4.44227e-05
0.000477179
-3.61103e-05
0.000480659
-2.77153e-05
0.000483027
-1.92505e-05
0.000484284
-1.07354e-05
0.000484428
-2.18334e-06
0.000483457
6.39546e-06
0.000481372
1.49749e-05
0.000478168
2.35477e-05
0.000473867
3.20841e-05
0.000468469
4.05763e-05
0.000461974
4.90214e-05
0.000454398
5.73882e-05
0.000445753
6.56663e-05
0.000436046
7.38456e-05
0.000425297
8.19087e-05
0.000413518
8.98401e-05
0.000400727
9.76231e-05
0.000386948
0.000105248
0.000372203
0.000112703
0.000356513
0.000119975
0.0003399
0.000127051
0.000322394
0.000133911
0.000304018
0.000140552
0.000284802
0.000146958
0.000264772
0.000153127
0.000243961
0.00015903
0.0002224
0.000164677
0.000200114
0.00017006
0.000177155
0.000175145
0.000153543
0.000179965
0.000129336
0.000184467
0.00010456
0.00018868
7.92582e-05
0.000192584
5.34725e-05
0.000196172
2.72447e-05
0.000199439
6.19853e-07
0.000202378
-2.63488e-05
0.000204987
-5.36499e-05
0.000207267
-8.12023e-05
0.000209179
-0.000108971
0.00021076
-0.000136928
0.000212003
-0.000164998
0.000212863
-0.000193163
0.000213404
-0.000221347
0.000213545
-0.000249535
0.000213367
-0.000277642
0.000212786
-0.000305646
0.000211863
-0.000333498
0.000210593
-0.000361131
0.000208921
-0.000388522
0.000206914
-0.000415614
0.00020455
-0.000442338
0.000201815
-0.000468669
0.000198721
-0.000494551
0.000195285
-0.000519933
0.000191503
-0.000544772
0.000187389
-0.000569002
0.000182922
-0.000592584
0.000178113
-0.000615463
0.000172995
-0.00063761
0.000167573
-0.000658979
0.000161849
-0.000679514
0.000155807
-0.000699152
0.000149459
-0.000717877
0.000142852
-0.000735647
0.000135962
-0.000752398
0.000128792
-0.000768112
0.000121373
-0.000782735
0.000113691
-0.000796251
0.00010578
-0.000808641
9.76374e-05
-0.000819873
8.92633e-05
-0.000829932
8.06802e-05
-0.000838795
7.1896e-05
-0.000846473
6.29313e-05
-0.000852962
5.37822e-05
-0.000858249
4.44949e-05
-0.000862332
3.50665e-05
-0.000865215
2.55258e-05
-0.000866923
1.59081e-05
-0.000867421
6.22266e-06
-0.000866781
-3.4839e-06
-0.000864951
-1.32075e-05
-0.000861955
-2.29094e-05
-0.000857777
-3.25969e-05
-0.000852442
-4.22022e-05
-0.000845956
-5.17155e-05
-0.000838342
-6.11124e-05
-0.000829619
-7.03783e-05
-0.000819788
-7.94803e-05
-0.00080887
-8.84058e-05
-0.00079687
-9.71411e-05
-0.000783825
-0.000105665
-0.000769771
-0.000113946
-0.000754712
-0.000121999
-0.000738682
-0.00012979
-0.000721677
-0.000137327
-0.000703739
-0.000144594
-0.000684897
-0.000151583
-0.000665185