/*--------------------------------*- C++ -*----------------------------------*\
| =========                 |                                                 |
| \\      /  F ield         | OpenFOAM: The Open Source CFD Toolbox           |
|  \\    /   O peration     | Version:  v2006                                 |
|   \\  /    A nd           | Website:  www.openfoam.com                      |
|    \\/     M anipulation  |                                                 |
\*---------------------------------------------------------------------------*/
FoamFile
{
    version     2.0;
    format      ascii;
    class       volScalarField;
    location    "9";
    object      p;
}
// * * * * * * * * * * * * * * * * * * * * * * * * * * * * * * * * * * * * * //

dimensions      [1 -1 -2 0 0 0 0];


internalField   nonuniform List<scalar> 
50000
(
22076.1
22076.3
22076.8
22077.5
22078.5
22079.7
22081.1
22082.7
22084.6
22086.8
22089.1
22091.7
22094.5
22097.6
22100.8
22104.3
22108
22111.9
22116
22120.3
22124.8
22129.5
22134.4
22139.4
22144.7
22150.1
22155.6
22161.4
22167.3
22173.3
22179.5
22185.7
22192.2
22198.7
22205.3
22212.1
22218.9
22225.8
22232.7
22239.8
22246.8
22254
22261.1
22268.3
22275.5
22282.7
22289.9
22297.1
22304.3
22311.5
22318.6
22325.6
22332.7
22339.6
22346.5
22353.3
22360
22366.6
22373.1
22379.6
22385.8
22392
22398.1
22404
22409.7
22415.4
22420.8
22426.2
22431.3
22436.3
22441.1
22445.8
22450.2
22454.5
22458.7
22462.6
22466.3
22469.9
22473.3
22476.5
22479.5
22482.3
22484.9
22487.3
22489.6
22491.7
22493.5
22495.2
22496.8
22498.1
22499.3
22500.3
22501.2
22501.9
22502.4
22502.8
22503
22503.1
22503.1
22502.9
22502.6
22502.2
22501.6
22501
22500.2
22499.4
22498.4
22497.4
22496.3
22495.1
22493.9
22492.6
22491.3
22489.9
22488.5
22487
22485.5
22484
22482.5
22481
22479.5
22478
22476.5
22475
22473.5
22472.1
22470.7
22469.3
22467.9
22466.6
22465.3
22464.1
22462.9
22461.8
22460.7
22459.7
22458.7
22457.8
22456.9
22456.2
22455.5
22454.8
22454.2
22453.7
22453.3
22453
22452.7
22452.5
22452.3
22452.2
21624.3
21624.6
21625.1
21625.8
21626.7
21627.9
21629.3
21631
21632.9
21635
21637.4
21640
21642.8
21645.9
21649.1
21652.6
21656.3
21660.2
21664.3
21668.6
21673.2
21677.9
21682.8
21687.8
21693.1
21698.5
21704.1
21709.8
21715.7
21721.8
21728
21734.3
21740.7
21747.2
21753.9
21760.6
21767.4
21774.4
21781.3
21788.4
21795.5
21802.6
21809.8
21817
21824.2
21831.5
21838.7
21845.9
21853.1
21860.3
21867.4
21874.5
21881.5
21888.5
21895.4
21902.2
21908.9
21915.5
21922.1
21928.5
21934.8
21941
21947
21953
21958.7
21964.4
21969.9
21975.2
21980.3
21985.3
21990.2
21994.8
21999.3
22003.6
22007.7
22011.7
22015.4
22019
22022.4
22025.5
22028.5
22031.4
22034
22036.4
22038.7
22040.7
22042.6
22044.3
22045.8
22047.2
22048.4
22049.4
22050.2
22050.9
22051.4
22051.8
22052
22052.1
22052.1
22051.9
22051.6
22051.1
22050.6
22049.9
22049.1
22048.2
22047.3
22046.2
22045.1
22043.9
22042.7
22041.4
22040.1
22038.7
22037.3
22035.8
22034.3
22032.8
22031.3
22029.8
22028.3
22026.7
22025.2
22023.7
22022.2
22020.8
22019.3
22017.9
22016.6
22015.2
22013.9
22012.7
22011.5
22010.4
22009.3
22008.2
22007.3
22006.4
22005.5
22004.7
22004
22003.4
22002.8
22002.3
22001.8
22001.5
22001.2
22001
22000.8
22000.8
21172.1
21172.4
21172.8
21173.6
21174.5
21175.7
21177.2
21178.8
21180.7
21182.9
21185.2
21187.8
21190.7
21193.7
21197
21200.5
21204.2
21208.2
21212.3
21216.6
21221.2
21225.9
21230.8
21235.9
21241.2
21246.6
21252.2
21258
21263.9
21270
21276.2
21282.6
21289
21295.6
21302.3
21309
21315.9
21322.8
21329.9
21336.9
21344.1
21351.2
21358.4
21365.7
21372.9
21380.2
21387.4
21394.7
21401.9
21409.1
21416.3
21423.4
21430.4
21437.4
21444.4
21451.2
21458
21464.6
21471.2
21477.6
21484
21490.2
21496.2
21502.2
21508
21513.6
21519.1
21524.5
21529.7
21534.7
21539.5
21544.2
21548.7
21553
21557.1
21561
21564.8
21568.4
21571.8
21574.9
21577.9
21580.8
21583.4
21585.8
21588.1
21590.1
21592
21593.7
21595.2
21596.5
21597.7
21598.7
21599.5
21600.2
21600.7
21601.1
21601.3
21601.4
21601.3
21601.1
21600.7
21600.3
21599.7
21599
21598.3
21597.4
21596.4
21595.4
21594.2
21593
21591.7
21590.4
21589
21587.6
21586.2
21584.7
21583.2
21581.6
21580.1
21578.5
21577
21575.4
21573.9
21572.4
21570.9
21569.4
21567.9
21566.5
21565.1
21563.8
21562.5
21561.2
21560
21558.8
21557.7
21556.7
21555.7
21554.8
21553.9
21553.1
21552.4
21551.8
21551.2
21550.7
21550.2
21549.9
21549.6
21549.4
21549.2
21549.1
20719.4
20719.7
20720.2
20720.9
20721.8
20723
20724.5
20726.2
20728.1
20730.2
20732.6
20735.2
20738.1
20741.2
20744.5
20748
20751.7
20755.7
20759.8
20764.2
20768.8
20773.5
20778.5
20783.6
20788.9
20794.4
20800.1
20805.9
20811.9
20818
20824.2
20830.6
20837.1
20843.7
20850.4
20857.3
20864.2
20871.2
20878.2
20885.4
20892.5
20899.8
20907
20914.3
20921.6
20928.9
20936.2
20943.5
20950.8
20958
20965.2
20972.4
20979.5
20986.5
20993.5
21000.4
21007.2
21013.9
21020.5
21027
21033.3
21039.6
21045.7
21051.6
21057.5
21063.2
21068.7
21074
21079.3
21084.3
21089.1
21093.8
21098.3
21102.7
21106.8
21110.8
21114.5
21118.1
21121.5
21124.7
21127.7
21130.5
21133.1
21135.6
21137.8
21139.8
21141.7
21143.4
21144.9
21146.2
21147.4
21148.4
21149.2
21149.8
21150.3
21150.6
21150.8
21150.9
21150.8
21150.5
21150.2
21149.7
21149.1
21148.3
21147.5
21146.6
21145.6
21144.5
21143.3
21142.1
21140.8
21139.4
21138
21136.6
21135.1
21133.5
21132
21130.4
21128.9
21127.3
21125.7
21124.1
21122.5
21121
21119.4
21117.9
21116.4
21115
21113.6
21112.2
21110.9
21109.6
21108.4
21107.2
21106.1
21105
21104
21103.1
21102.2
21101.4
21100.7
21100
21099.4
21098.9
21098.5
21098.1
21097.8
21097.6
21097.4
21097.3
20266.2
20266.5
20267
20267.7
20268.7
20269.9
20271.3
20273
20275
20277.1
20279.6
20282.2
20285.1
20288.2
20291.5
20295
20298.8
20302.8
20307
20311.4
20316
20320.8
20325.8
20331
20336.4
20341.9
20347.6
20353.5
20359.5
20365.7
20372
20378.4
20385
20391.7
20398.4
20405.3
20412.3
20419.4
20426.5
20433.7
20440.9
20448.2
20455.5
20462.9
20470.3
20477.6
20485
20492.4
20499.7
20507
20514.3
20521.5
20528.6
20535.7
20542.8
20549.7
20556.6
20563.3
20570
20576.5
20582.9
20589.2
20595.3
20601.4
20607.2
20612.9
20618.5
20623.9
20629.1
20634.2
20639.1
20643.8
20648.3
20652.7
20656.8
20660.8
20664.6
20668.2
20671.6
20674.8
20677.8
20680.6
20683.2
20685.6
20687.9
20689.9
20691.8
20693.4
20694.9
20696.2
20697.4
20698.3
20699.1
20699.7
20700.2
20700.5
20700.6
20700.6
20700.5
20700.2
20699.8
20699.3
20698.6
20697.9
20697
20696
20695
20693.8
20692.6
20691.3
20690
20688.6
20687.1
20685.6
20684
20682.5
20680.9
20679.3
20677.6
20676
20674.4
20672.7
20671.1
20669.5
20667.9
20666.4
20664.9
20663.4
20661.9
20660.5
20659.2
20657.8
20656.6
20655.4
20654.2
20653.2
20652.1
20651.2
20650.3
20649.5
20648.8
20648.1
20647.5
20647
20646.5
20646.1
20645.8
20645.6
20645.4
20645.4
19812.6
19812.8
19813.3
19814.1
19815
19816.3
19817.7
19819.4
19821.4
19823.6
19826
19828.7
19831.6
19834.7
19838.1
19841.7
19845.5
19849.5
19853.8
19858.2
19862.9
19867.7
19872.8
19878
19883.5
19889.1
19894.8
19900.8
19906.9
19913.1
19919.5
19926
19932.6
19939.4
19946.3
19953.2
19960.3
19967.4
19974.6
19981.9
19989.2
19996.6
20004
20011.4
20018.9
20026.3
20033.8
20041.2
20048.6
20056
20063.4
20070.7
20077.9
20085.1
20092.2
20099.2
20106.1
20112.9
20119.6
20126.2
20132.7
20139
20145.2
20151.3
20157.2
20163
20168.6
20174
20179.3
20184.4
20189.3
20194.1
20198.6
20203
20207.2
20211.2
20215
20218.6
20222
20225.2
20228.2
20231
20233.6
20236
20238.3
20240.3
20242.1
20243.8
20245.3
20246.5
20247.7
20248.6
20249.3
20249.9
20250.3
20250.6
20250.7
20250.6
20250.5
20250.1
20249.7
20249.1
20248.4
20247.6
20246.6
20245.6
20244.5
20243.3
20242
20240.7
20239.2
20237.8
20236.2
20234.7
20233.1
20231.4
20229.8
20228.1
20226.4
20224.7
20223
20221.3
20219.6
20218
20216.4
20214.8
20213.2
20211.7
20210.2
20208.7
20207.3
20206
20204.7
20203.5
20202.3
20201.2
20200.1
20199.2
20198.3
20197.4
20196.7
20196
20195.4
20194.8
20194.4
20194
20193.7
20193.4
20193.3
20193.2
19358.4
19358.7
19359.2
19359.9
19360.9
19362.1
19363.6
19365.4
19367.3
19369.6
19372
19374.7
19377.7
19380.8
19384.2
19387.9
19391.7
19395.8
19400.1
19404.6
19409.3
19414.3
19419.4
19424.7
19430.2
19435.9
19441.7
19447.7
19453.9
19460.3
19466.7
19473.3
19480.1
19486.9
19493.9
19500.9
19508.1
19515.3
19522.6
19530
19537.4
19544.9
19552.4
19559.9
19567.5
19575
19582.6
19590.1
19597.6
19605.1
19612.6
19619.9
19627.3
19634.5
19641.7
19648.8
19655.8
19662.7
19669.5
19676.2
19682.7
19689.1
19695.4
19701.5
19707.5
19713.3
19719
19724.5
19729.8
19734.9
19739.9
19744.7
19749.3
19753.7
19757.9
19761.9
19765.7
19769.3
19772.7
19776
19779
19781.8
19784.4
19786.8
19789
19791
19792.9
19794.5
19795.9
19797.2
19798.3
19799.2
19799.9
19800.4
19800.8
19801
19801
19800.9
19800.7
19800.3
19799.8
19799.1
19798.4
19797.5
19796.5
19795.4
19794.2
19792.9
19791.6
19790.1
19788.6
19787.1
19785.5
19783.8
19782.1
19780.4
19778.7
19776.9
19775.2
19773.4
19771.6
19769.9
19768.1
19766.4
19764.7
19763.1
19761.4
19759.8
19758.3
19756.8
19755.4
19754
19752.6
19751.4
19750.2
19749
19748
19747
19746
19745.2
19744.4
19743.7
19743.1
19742.5
19742
19741.6
19741.3
19741.1
19740.9
19740.8
18903.7
18904
18904.5
18905.3
18906.3
18907.5
18909
18910.8
18912.8
18915
18917.5
18920.3
18923.2
18926.5
18929.9
18933.6
18937.5
18941.7
18946
18950.6
18955.4
18960.4
18965.6
18971
18976.6
18982.4
18988.3
18994.4
19000.7
19007.1
19013.7
19020.4
19027.3
19034.2
19041.3
19048.5
19055.7
19063.1
19070.5
19078
19085.6
19093.1
19100.8
19108.4
19116.1
19123.7
19131.4
19139.1
19146.7
19154.3
19161.8
19169.3
19176.7
19184.1
19191.4
19198.6
19205.7
19212.7
19219.5
19226.3
19232.9
19239.4
19245.8
19252
19258
19263.9
19269.6
19275.2
19280.6
19285.8
19290.8
19295.6
19300.2
19304.7
19308.9
19312.9
19316.8
19320.4
19323.8
19327.1
19330.1
19332.9
19335.5
19337.9
19340.1
19342.1
19343.9
19345.5
19347
19348.2
19349.2
19350.1
19350.7
19351.2
19351.5
19351.7
19351.7
19351.5
19351.2
19350.7
19350.1
19349.4
19348.6
19347.6
19346.5
19345.3
19344.1
19342.7
19341.2
19339.7
19338.1
19336.5
19334.8
19333
19331.3
19329.5
19327.6
19325.8
19323.9
19322.1
19320.2
19318.4
19316.6
19314.8
19313
19311.3
19309.6
19307.9
19306.3
19304.8
19303.3
19301.8
19300.5
19299.1
19297.9
19296.7
19295.6
19294.6
19293.6
19292.7
19291.9
19291.2
19290.6
19290
19289.5
19289.1
19288.8
19288.5
19288.4
19288.3
18448.6
18448.9
18449.4
18450.1
18451.1
18452.4
18453.9
18455.7
18457.7
18460
18462.6
18465.3
18468.4
18471.6
18475.2
18478.9
18482.9
18487.1
18491.5
18496.2
18501.1
18506.2
18511.5
18517
18522.6
18528.5
18534.6
18540.8
18547.2
18553.7
18560.4
18567.3
18574.2
18581.3
18588.5
18595.8
18603.2
18610.7
18618.3
18625.9
18633.6
18641.3
18649.1
18656.8
18664.6
18672.4
18680.2
18688
18695.8
18703.5
18711.2
18718.8
18726.3
18733.8
18741.2
18748.5
18755.7
18762.8
18769.8
18776.7
18783.4
18790
18796.4
18802.7
18808.8
18814.8
18820.6
18826.2
18831.7
18836.9
18842
18846.9
18851.5
18856
18860.3
18864.3
18868.2
18871.9
18875.3
18878.6
18881.6
18884.4
18887
18889.4
18891.6
18893.6
18895.4
18896.9
18898.3
18899.5
18900.5
18901.3
18901.9
18902.3
18902.6
18902.7
18902.6
18902.3
18902
18901.4
18900.7
18899.9
18899
18897.9
18896.7
18895.4
18894.1
18892.6
18891
18889.4
18887.7
18886
18884.2
18882.3
18880.4
18878.5
18876.6
18874.6
18872.7
18870.7
18868.8
18866.9
18865
18863.1
18861.2
18859.4
18857.6
18855.9
18854.2
18852.6
18851.1
18849.6
18848.1
18846.8
18845.5
18844.2
18843.1
18842
18841
18840.1
18839.3
18838.5
18837.9
18837.3
18836.8
18836.4
18836
18835.8
18835.6
18835.5
17992.9
17993.2
17993.7
17994.5
17995.5
17996.8
17998.3
18000.1
18002.2
18004.5
18007.1
18009.9
18013
18016.3
18019.9
18023.7
18027.8
18032.1
18036.6
18041.4
18046.3
18051.5
18056.9
18062.5
18068.3
18074.3
18080.5
18086.8
18093.4
18100
18106.9
18113.8
18121
18128.2
18135.5
18143
18150.5
18158.2
18165.9
18173.7
18181.5
18189.4
18197.3
18205.2
18213.2
18221.1
18229.1
18237
18244.9
18252.8
18260.6
18268.4
18276
18283.7
18291.2
18298.6
18306
18313.2
18320.3
18327.2
18334.1
18340.8
18347.3
18353.7
18359.9
18366
18371.9
18377.5
18383.1
18388.4
18393.5
18398.4
18403.2
18407.7
18412
18416.1
18420
18423.7
18427.2
18430.4
18433.4
18436.3
18438.9
18441.2
18443.4
18445.4
18447.1
18448.7
18450
18451.2
18452.1
18452.8
18453.4
18453.8
18453.9
18453.9
18453.8
18453.5
18453
18452.3
18451.6
18450.6
18449.6
18448.4
18447.1
18445.7
18444.2
18442.7
18441
18439.2
18437.4
18435.5
18433.6
18431.6
18429.6
18427.6
18425.6
18423.5
18421.4
18419.4
18417.3
18415.3
18413.3
18411.3
18409.3
18407.4
18405.6
18403.8
18402
18400.3
18398.7
18397.1
18395.6
18394.2
18392.9
18391.6
18390.4
18389.3
18388.3
18387.3
18386.5
18385.7
18385
18384.4
18383.9
18383.4
18383.1
18382.8
18382.7
18382.6
17536.7
17537
17537.5
17538.3
17539.3
17540.6
17542.2
17544
17546.1
17548.5
17551.1
17554
17557.2
17560.5
17564.2
17568.1
17572.2
17576.6
17581.2
17586.1
17591.2
17596.5
17602
17607.7
17613.6
17619.8
17626.1
17632.6
17639.2
17646
17653
17660.2
17667.4
17674.8
17682.3
17690
17697.7
17705.5
17713.4
17721.3
17729.3
17737.4
17745.5
17753.6
17761.7
17769.8
17777.9
17786
17794.1
17802.1
17810.1
17818
17825.9
17833.6
17841.3
17848.9
17856.4
17863.7
17871
17878.1
17885
17891.8
17898.5
17905
17911.3
17917.4
17923.4
17929.2
17934.8
17940.2
17945.4
17950.4
17955.2
17959.7
17964.1
17968.2
17972.2
17975.9
17979.4
17982.6
17985.7
17988.5
17991.1
17993.5
17995.6
17997.6
17999.3
18000.8
18002.1
18003.2
18004.1
18004.7
18005.2
18005.5
18005.6
18005.5
18005.3
18004.9
18004.3
18003.5
18002.6
18001.6
18000.4
17999.2
17997.7
17996.2
17994.6
17992.9
17991.1
17989.2
17987.2
17985.2
17983.1
17981
17978.9
17976.7
17974.5
17972.3
17970.1
17968
17965.8
17963.6
17961.5
17959.4
17957.3
17955.3
17953.4
17951.5
17949.6
17947.9
17946.1
17944.5
17943
17941.5
17940.1
17938.7
17937.5
17936.3
17935.3
17934.3
17933.4
17932.6
17931.9
17931.3
17930.7
17930.3
17929.9
17929.7
17929.5
17929.4
17079.9
17080.2
17080.7
17081.5
17082.6
17083.9
17085.5
17087.4
17089.5
17092
17094.6
17097.6
17100.8
17104.3
17108
17112
17116.2
17120.7
17125.4
17130.4
17135.5
17141
17146.6
17152.5
17158.5
17164.8
17171.3
17177.9
17184.8
17191.8
17198.9
17206.2
17213.7
17221.2
17228.9
17236.7
17244.6
17252.6
17260.7
17268.9
17277.1
17285.3
17293.6
17301.9
17310.2
17318.5
17326.8
17335.1
17343.3
17351.6
17359.7
17367.8
17375.8
17383.8
17391.6
17399.3
17407
17414.5
17421.9
17429.1
17436.2
17443.1
17449.9
17456.5
17463
17469.2
17475.3
17481.2
17486.8
17492.3
17497.6
17502.7
17507.5
17512.1
17516.6
17520.7
17524.7
17528.4
17532
17535.2
17538.3
17541.1
17543.7
17546.1
17548.2
17550.1
17551.8
17553.3
17554.5
17555.5
17556.4
17557
17557.4
17557.6
17557.6
17557.4
17557.1
17556.6
17555.9
17555
17554
17552.8
17551.5
17550.1
17548.5
17546.9
17545.1
17543.2
17541.3
17539.2
17537.1
17534.9
17532.7
17530.5
17528.2
17525.9
17523.5
17521.2
17518.8
17516.5
17514.2
17511.9
17509.6
17507.4
17505.2
17503.1
17501.1
17499.1
17497.1
17495.2
17493.4
17491.7
17490.1
17488.5
17487.1
17485.7
17484.4
17483.2
17482.1
17481.1
17480.1
17479.3
17478.6
17477.9
17477.4
17476.9
17476.6
17476.3
17476.1
17476
16622.6
16622.9
16623.4
16624.3
16625.3
16626.7
16628.3
16630.2
16632.4
16634.9
16637.6
16640.6
16643.9
16647.4
16651.2
16655.3
16659.7
16664.2
16669.1
16674.2
16679.5
16685
16690.8
16696.8
16703.1
16709.5
16716.1
16723
16730
16737.1
16744.5
16752
16759.6
16767.4
16775.3
16783.3
16791.4
16799.6
16807.9
16816.3
16824.7
16833.1
16841.6
16850.1
16858.7
16867.2
16875.7
16884.2
16892.6
16901.1
16909.4
16917.7
16925.9
16934
16942
16950
16957.8
16965.4
16973
16980.4
16987.6
16994.7
17001.6
17008.4
17014.9
17021.3
17027.5
17033.5
17039.2
17044.8
17050.2
17055.3
17060.2
17064.9
17069.4
17073.6
17077.6
17081.4
17084.9
17088.2
17091.3
17094.1
17096.7
17099.1
17101.2
17103.1
17104.7
17106.1
17107.3
17108.3
17109.1
17109.6
17109.9
17110
17109.9
17109.7
17109.2
17108.6
17107.7
17106.7
17105.6
17104.3
17102.8
17101.3
17099.5
17097.7
17095.8
17093.7
17091.6
17089.4
17087.1
17084.8
17082.4
17079.9
17077.5
17075
17072.5
17070
17067.5
17065
17062.5
17060.1
17057.7
17055.3
17053
17050.8
17048.6
17046.5
17044.4
17042.5
17040.6
17038.8
17037
17035.4
17033.9
17032.4
17031.1
17029.8
17028.7
17027.6
17026.7
17025.8
17025
17024.4
17023.8
17023.3
17022.9
17022.7
17022.5
17022.4
16164.7
16165
16165.6
16166.4
16167.5
16168.9
16170.5
16172.5
16174.7
16177.2
16180
16183.1
16186.5
16190.1
16194
16198.2
16202.6
16207.3
16212.3
16217.5
16223
16228.7
16234.6
16240.8
16247.2
16253.8
16260.6
16267.6
16274.8
16282.2
16289.7
16297.4
16305.3
16313.3
16321.4
16329.7
16338
16346.4
16355
16363.5
16372.2
16380.9
16389.6
16398.4
16407.1
16415.9
16424.6
16433.3
16442
16450.6
16459.2
16467.7
16476.1
16484.4
16492.7
16500.8
16508.8
16516.6
16524.3
16531.9
16539.3
16546.5
16553.6
16560.5
16567.2
16573.7
16580
16586.1
16592
16597.7
16603.1
16608.3
16613.3
16618.1
16622.6
16626.9
16631
16634.8
16638.3
16641.6
16644.7
16647.5
16650.1
16652.5
16654.6
16656.4
16658
16659.4
16660.5
16661.4
16662.1
16662.6
16662.8
16662.8
16662.6
16662.2
16661.6
16660.9
16659.9
16658.8
16657.5
16656
16654.4
16652.6
16650.7
16648.7
16646.6
16644.4
16642.1
16639.7
16637.2
16634.7
16632.1
16629.5
16626.8
16624.1
16621.4
16618.8
16616.1
16613.4
16610.8
16608.2
16605.6
16603.1
16600.7
16598.3
16595.9
16593.7
16591.5
16589.5
16587.5
16585.6
16583.8
16582.1
16580.5
16579
16577.5
16576.2
16575
16573.9
16572.9
16572
16571.3
16570.6
16570
16569.5
16569.1
16568.8
16568.6
16568.5
15706.2
15706.5
15707.1
15708
15709.1
15710.5
15712.2
15714.2
15716.5
15719
15721.9
15725
15728.5
15732.2
15736.2
15740.5
15745
15749.9
15755
15760.3
15765.9
15771.8
15777.9
15784.3
15790.9
15797.7
15804.7
15811.9
15819.3
15826.9
15834.7
15842.6
15850.7
15858.9
15867.3
15875.8
15884.4
15893.1
15901.8
15910.7
15919.6
15928.5
15937.5
15946.5
15955.5
15964.5
15973.5
15982.5
15991.4
16000.3
16009.1
16017.8
16026.5
16035
16043.5
16051.8
16060
16068
16075.9
16083.7
16091.3
16098.7
16105.9
16112.9
16119.8
16126.4
16132.9
16139.1
16145.1
16150.9
16156.4
16161.7
16166.8
16171.7
16176.2
16180.6
16184.7
16188.5
16192.1
16195.5
16198.6
16201.4
16204
16206.3
16208.4
16210.2
16211.7
16213.1
16214.1
16215
16215.6
16215.9
16216.1
16216
16215.7
16215.1
16214.4
16213.5
16212.4
16211.1
16209.6
16208
16206.2
16204.2
16202.2
16199.9
16197.6
16195.2
16192.7
16190.1
16187.4
16184.6
16181.8
16179
16176.1
16173.3
16170.4
16167.5
16164.6
16161.7
16158.9
16156.1
16153.4
16150.7
16148.1
16145.6
16143.1
16140.8
16138.5
16136.3
16134.2
16132.2
16130.3
16128.5
16126.8
16125.2
16123.8
16122.4
16121.2
16120
16119
16118
16117.2
16116.5
16115.9
16115.4
16115
16114.7
16114.5
16114.4
15247.1
15247.5
15248.1
15248.9
15250.1
15251.5
15253.2
15255.3
15257.6
15260.2
15263.1
15266.4
15269.9
15273.7
15277.8
15282.2
15286.9
15291.9
15297.1
15302.6
15308.4
15314.5
15320.8
15327.3
15334.1
15341.1
15348.3
15355.8
15363.4
15371.3
15379.3
15387.5
15395.8
15404.3
15412.9
15421.7
15430.6
15439.5
15448.6
15457.7
15466.9
15476.1
15485.4
15494.7
15503.9
15513.2
15522.5
15531.7
15540.9
15550
15559.1
15568.1
15577
15585.8
15594.4
15603
15611.4
15619.7
15627.8
15635.7
15643.5
15651.1
15658.5
15665.7
15672.7
15679.5
15686.1
15692.4
15698.6
15704.5
15710.1
15715.5
15720.7
15725.6
15730.3
15734.7
15738.9
15742.7
15746.4
15749.7
15752.8
15755.7
15758.2
15760.6
15762.6
15764.4
15765.9
15767.2
15768.2
15768.9
15769.4
15769.7
15769.7
15769.5
15769.1
15768.4
15767.5
15766.4
15765.2
15763.7
15762
15760.2
15758.2
15756.1
15753.8
15751.4
15748.8
15746.2
15743.4
15740.6
15737.7
15734.7
15731.6
15728.6
15725.5
15722.4
15719.3
15716.1
15713
15710
15707
15704
15701.1
15698.2
15695.4
15692.7
15690.1
15687.6
15685.2
15682.9
15680.6
15678.5
15676.5
15674.7
15672.9
15671.3
15669.7
15668.3
15667
15665.8
15664.7
15663.8
15662.9
15662.2
15661.6
15661.1
15660.6
15660.3
15660.1
15660
14787.4
14787.8
14788.4
14789.3
14790.4
14791.9
14793.6
14795.7
14798.1
14800.8
14803.8
14807.1
14810.7
14814.6
14818.8
14823.4
14828.2
14833.3
14838.7
14844.4
14850.4
14856.6
14863.1
14869.8
14876.8
14884.1
14891.6
14899.2
14907.1
14915.2
14923.5
14932
14940.6
14949.4
14958.3
14967.4
14976.5
14985.8
14995.1
15004.6
15014
15023.6
15033.1
15042.7
15052.3
15061.9
15071.5
15081
15090.5
15099.9
15109.2
15118.5
15127.6
15136.7
15145.6
15154.4
15163
15171.5
15179.9
15188
15196
15203.8
15211.4
15218.8
15226
15232.9
15239.7
15246.2
15252.4
15258.5
15264.2
15269.8
15275
15280
15284.8
15289.3
15293.5
15297.4
15301.1
15304.5
15307.6
15310.4
15313
15315.3
15317.3
15319
15320.5
15321.7
15322.6
15323.3
15323.7
15323.8
15323.8
15323.4
15322.8
15322
15321
15319.7
15318.3
15316.6
15314.7
15312.7
15310.5
15308.1
15305.6
15303
15300.2
15297.3
15294.3
15291.2
15288
15284.8
15281.5
15278.2
15274.8
15271.5
15268.1
15264.7
15261.4
15258.1
15254.9
15251.7
15248.5
15245.5
15242.5
15239.6
15236.9
15234.2
15231.6
15229.2
15226.8
15224.6
15222.5
15220.6
15218.7
15217
15215.4
15213.9
15212.6
15211.4
15210.2
15209.3
15208.4
15207.6
15207
15206.4
15206
15205.7
15205.5
15205.4
14327.1
14327.5
14328.1
14329
14330.2
14331.6
14333.4
14335.5
14338
14340.7
14343.8
14347.2
14350.9
14354.9
14359.3
14363.9
14368.9
14374.1
14379.7
14385.6
14391.7
14398.2
14404.9
14411.9
14419.1
14426.6
14434.3
14442.3
14450.5
14458.8
14467.4
14476.2
14485.1
14494.2
14503.4
14512.8
14522.3
14531.9
14541.5
14551.3
14561.1
14571
14580.8
14590.8
14600.7
14610.6
14620.5
14630.3
14640.1
14649.8
14659.4
14669
14678.4
14687.8
14697
14706
14714.9
14723.7
14732.3
14740.7
14748.9
14756.9
14764.7
14772.3
14779.6
14786.7
14793.6
14800.3
14806.7
14812.9
14818.8
14824.4
14829.8
14834.9
14839.7
14844.2
14848.5
14852.5
14856.2
14859.6
14862.8
14865.6
14868.2
14870.4
14872.4
14874.1
14875.5
14876.7
14877.5
14878.1
14878.4
14878.4
14878.2
14877.7
14877
14876
14874.8
14873.4
14871.7
14869.8
14867.8
14865.5
14863.1
14860.4
14857.7
14854.8
14851.7
14848.5
14845.3
14841.9
14838.4
14834.9
14831.4
14827.8
14824.1
14820.5
14816.9
14813.2
14809.7
14806.1
14802.6
14799.2
14795.8
14792.6
14789.4
14786.3
14783.4
14780.5
14777.8
14775.2
14772.8
14770.4
14768.2
14766.2
14764.2
14762.4
14760.8
14759.3
14757.9
14756.6
14755.5
14754.4
14753.5
14752.8
14752.1
14751.6
14751.1
14750.8
14750.6
14750.5
13866.1
13866.5
13867.1
13868
13869.2
13870.7
13872.5
13874.7
13877.2
13880
13883.1
13886.6
13890.4
13894.5
13899
13903.8
13908.9
13914.4
13920.1
13926.2
13932.6
13939.2
13946.2
13953.4
13960.9
13968.6
13976.6
13984.9
13993.3
14002
14010.9
14020
14029.2
14038.7
14048.2
14057.9
14067.8
14077.7
14087.7
14097.8
14108
14118.2
14128.5
14138.7
14149
14159.3
14169.5
14179.7
14189.8
14199.8
14209.8
14219.7
14229.4
14239.1
14248.5
14257.9
14267.1
14276.1
14284.9
14293.6
14302
14310.2
14318.3
14326.1
14333.6
14340.9
14348
14354.8
14361.4
14367.7
14373.7
14379.5
14385
14390.2
14395.1
14399.7
14404
14408.1
14411.8
14415.3
14418.4
14421.3
14423.8
14426.1
14428
14429.7
14431
14432.1
14432.9
14433.4
14433.6
14433.5
14433.1
14432.5
14431.6
14430.4
14429
14427.4
14425.5
14423.4
14421.1
14418.6
14415.9
14413
14410
14406.8
14403.4
14400
14396.4
14392.7
14389
14385.1
14381.3
14377.3
14373.4
14369.5
14365.5
14361.6
14357.8
14353.9
14350.2
14346.5
14342.9
14339.4
14336
14332.8
14329.6
14326.6
14323.7
14321
14318.4
14315.9
14313.6
14311.5
14309.4
14307.6
14305.9
14304.3
14302.8
14301.5
14300.4
14299.3
14298.4
14297.6
14296.9
14296.4
14296
14295.6
14295.4
14295.3
13404.4
13404.8
13405.4
13406.4
13407.6
13409.1
13410.9
13413.1
13415.6
13418.5
13421.7
13425.3
13429.2
13433.5
13438.1
13443
13448.3
13454
13459.9
13466.2
13472.8
13479.7
13486.8
13494.3
13502.1
13510.1
13518.4
13527
13535.8
13544.8
13554
13563.4
13573
13582.8
13592.7
13602.8
13613
13623.3
13633.7
13644.2
13654.8
13665.4
13676
13686.7
13697.3
13707.9
13718.5
13729.1
13739.6
13750
13760.3
13770.5
13780.6
13790.5
13800.3
13810
13819.5
13828.8
13837.9
13846.8
13855.5
13864
13872.2
13880.2
13888
13895.5
13902.8
13909.8
13916.5
13922.9
13929.1
13935
13940.6
13945.9
13950.9
13955.6
13960
13964.1
13967.9
13971.4
13974.6
13977.4
13980
13982.2
13984.1
13985.8
13987
13988
13988.7
13989.1
13989.2
13989
13988.4
13987.7
13986.6
13985.2
13983.6
13981.8
13979.7
13977.3
13974.8
13972
13969
13965.8
13962.5
13959
13955.3
13951.5
13947.6
13943.6
13939.5
13935.4
13931.2
13926.9
13922.6
13918.4
13914.1
13909.9
13905.7
13901.6
13897.6
13893.6
13889.7
13886
13882.4
13878.9
13875.5
13872.3
13869.3
13866.4
13863.6
13861.1
13858.6
13856.4
13854.3
13852.4
13850.6
13849
13847.5
13846.1
13845
13843.9
13843
13842.2
13841.5
13840.9
13840.5
13840.2
13839.9
13839.8
12941.9
12942.3
12943
12944
12945.2
12946.7
12948.6
12950.8
12953.4
12956.3
12959.6
12963.3
12967.3
12971.7
12976.5
12981.6
12987
12992.8
12999
13005.5
13012.3
13019.5
13026.9
13034.7
13042.8
13051.1
13059.7
13068.6
13077.7
13087.1
13096.7
13106.5
13116.4
13126.6
13136.9
13147.4
13158
13168.7
13179.5
13190.4
13201.4
13212.4
13223.5
13234.5
13245.6
13256.6
13267.6
13278.6
13289.4
13300.2
13310.9
13321.5
13331.9
13342.2
13352.4
13362.4
13372.1
13381.8
13391.2
13400.3
13409.3
13418
13426.5
13434.8
13442.8
13450.5
13458
13465.1
13472
13478.7
13485
13491
13496.7
13502.1
13507.3
13512.1
13516.5
13520.7
13524.5
13528.1
13531.3
13534.1
13536.7
13538.9
13540.8
13542.3
13543.6
13544.5
13545.1
13545.3
13545.3
13544.9
13544.3
13543.3
13542
13540.5
13538.7
13536.6
13534.2
13531.6
13528.8
13525.7
13522.4
13518.9
13515.2
13511.4
13507.4
13503.3
13499
13494.6
13490.2
13485.6
13481.1
13476.5
13471.8
13467.2
13462.6
13458
13453.5
13449
13444.7
13440.4
13436.3
13432.3
13428.4
13424.7
13421.1
13417.7
13414.5
13411.4
13408.5
13405.8
13403.3
13401
13398.8
13396.8
13395
13393.3
13391.8
13390.4
13389.2
13388.1
13387.2
13386.4
13385.7
13385.2
13384.7
13384.4
13384.2
13384
12478.7
12479.1
12479.9
12480.9
12482.1
12483.6
12485.5
12487.8
12490.4
12493.4
12496.8
12500.5
12504.7
12509.2
12514.1
12519.4
12525
12531
12537.4
12544.1
12551.2
12558.6
12566.4
12574.4
12582.8
12591.5
12600.4
12609.7
12619.2
12628.9
12638.9
12649.1
12659.4
12670
12680.8
12691.7
12702.7
12713.9
12725.1
12736.5
12747.9
12759.3
12770.8
12782.3
12793.8
12805.3
12816.7
12828.1
12839.4
12850.6
12861.7
12872.6
12883.5
12894.1
12904.6
12915
12925.1
12935
12944.7
12954.2
12963.5
12972.5
12981.2
12989.7
12998
13005.9
13013.6
13021
13028
13034.8
13041.3
13047.5
13053.3
13058.9
13064.1
13069
13073.5
13077.8
13081.7
13085.2
13088.5
13091.3
13093.9
13096.1
13097.9
13099.4
13100.6
13101.4
13101.9
13102.1
13101.9
13101.4
13100.5
13099.4
13097.9
13096.2
13094.1
13091.8
13089.1
13086.2
13083.1
13079.7
13076.1
13072.3
13068.2
13064
13059.7
13055.1
13050.5
13045.7
13040.9
13035.9
13031
13025.9
13020.9
13015.9
13010.9
13005.9
13001.1
12996.3
12991.6
12987
12982.5
12978.2
12974.1
12970.1
12966.3
12962.7
12959.3
12956
12953
12950.2
12947.5
12945.1
12942.9
12940.8
12938.9
12937.2
12935.7
12934.3
12933.1
12932
12931.1
12930.3
12929.6
12929.1
12928.7
12928.3
12928.1
12928
12014.6
12015.1
12015.9
12016.9
12018.2
12019.7
12021.6
12023.9
12026.5
12029.6
12033.1
12036.9
12041.2
12045.8
12050.9
12056.3
12062.2
12068.4
12075
12082
12089.4
12097.1
12105.1
12113.5
12122.2
12131.3
12140.6
12150.2
12160.1
12170.2
12180.6
12191.2
12202
12213.1
12224.3
12235.6
12247.1
12258.8
12270.5
12282.3
12294.2
12306.1
12318.1
12330.1
12342.1
12354
12365.9
12377.7
12389.4
12401.1
12412.6
12424
12435.2
12446.3
12457.2
12467.9
12478.4
12488.6
12498.7
12508.5
12518
12527.3
12536.4
12545.1
12553.6
12561.8
12569.6
12577.2
12584.5
12591.5
12598.1
12604.5
12610.4
12616.1
12621.4
12626.4
12631.1
12635.4
12639.4
12643
12646.2
12649.1
12651.6
12653.8
12655.6
12657.1
12658.2
12658.9
12659.3
12659.4
12659
12658.4
12657.4
12656
12654.3
12652.3
12650
12647.4
12644.5
12641.3
12637.8
12634.1
12630.1
12625.9
12621.5
12616.9
12612.1
12607.2
12602.1
12596.9
12591.6
12586.2
12580.8
12575.4
12569.9
12564.4
12559
12553.7
12548.4
12543.2
12538.1
12533.2
12528.4
12523.8
12519.3
12515.1
12511
12507.2
12503.6
12500.2
12497
12494.1
12491.3
12488.8
12486.5
12484.4
12482.5
12480.8
12479.2
12477.8
12476.6
12475.6
12474.7
12473.9
12473.2
12472.7
12472.3
12472
12471.8
12471.6
11549.7
11550.2
11551
11552.1
11553.4
11555
11556.8
11559.1
11561.9
11565
11568.5
11572.5
11576.8
11581.6
11586.9
11592.5
11598.6
11605
11611.9
11619.1
11626.8
11634.8
11643.2
11651.9
11661
11670.4
11680.1
11690.1
11700.4
11711
11721.8
11732.9
11744.2
11755.7
11767.4
11779.2
11791.2
11803.4
11815.6
11827.9
11840.3
11852.8
11865.3
11877.8
11890.2
11902.7
11915.1
11927.4
11939.6
11951.7
11963.7
11975.5
11987.2
11998.7
12010
12021.1
12031.9
12042.6
12053
12063.1
12073
12082.6
12091.9
12100.9
12109.6
12118.1
12126.2
12134
12141.5
12148.6
12155.5
12161.9
12168.1
12173.9
12179.3
12184.4
12189.2
12193.6
12197.6
12201.2
12204.5
12207.4
12210
12212.1
12213.9
12215.3
12216.4
12217
12217.3
12217.2
12216.7
12215.9
12214.7
12213.1
12211.2
12209
12206.4
12203.5
12200.2
12196.7
12192.9
12188.8
12184.4
12179.8
12175
12170
12164.8
12159.4
12153.8
12148.2
12142.4
12136.5
12130.6
12124.7
12118.8
12112.8
12106.9
12101.1
12095.4
12089.8
12084.3
12079
12073.8
12068.9
12064.1
12059.6
12055.3
12051.2
12047.4
12043.8
12040.5
12037.5
12034.6
12032
12029.7
12027.5
12025.6
12023.9
12022.3
12021
12019.8
12018.8
12017.9
12017.1
12016.5
12016
12015.6
12015.3
12015.1
12015
11083.8
11084.3
11085.3
11086.4
11087.7
11089.3
11091.2
11093.5
11096.3
11099.4
11103
11107.1
11111.6
11116.6
11121.9
11127.8
11134.1
11140.8
11147.9
11155.5
11163.4
11171.8
11180.5
11189.6
11199
11208.8
11219
11229.4
11240.2
11251.2
11262.5
11274
11285.8
11297.9
11310.1
11322.4
11335
11347.7
11360.5
11373.4
11386.3
11399.3
11412.4
11425.4
11438.4
11451.4
11464.3
11477.1
11489.9
11502.5
11515
11527.3
11539.4
11551.3
11563.1
11574.6
11585.9
11596.9
11607.6
11618.1
11628.3
11638.2
11647.9
11657.2
11666.2
11674.9
11683.2
11691.2
11698.9
11706.3
11713.3
11720
11726.3
11732.2
11737.8
11743
11747.8
11752.3
11756.4
11760.1
11763.4
11766.4
11768.9
11771.1
11772.8
11774.2
11775.1
11775.7
11775.8
11775.6
11775
11774
11772.6
11770.8
11768.6
11766.1
11763.2
11760
11756.5
11752.6
11748.4
11743.9
11739.1
11734.1
11728.8
11723.3
11717.6
11711.7
11705.7
11699.5
11693.2
11686.8
11680.4
11673.9
11667.5
11661
11654.6
11648.3
11642.1
11636
11630.1
11624.4
11618.8
11613.5
11608.4
11603.6
11599
11594.7
11590.7
11586.9
11583.5
11580.3
11577.4
11574.7
11572.3
11570.1
11568.2
11566.5
11565
11563.7