/*--------------------------------*- C++ -*----------------------------------*\
| =========                 |                                                 |
| \\      /  F ield         | OpenFOAM: The Open Source CFD Toolbox           |
|  \\    /   O peration     | Version:  v2006                                 |
|   \\  /    A nd           | Website:  www.openfoam.com                      |
|    \\/     M anipulation  |                                                 |
\*---------------------------------------------------------------------------*/
FoamFile
{
    version     2.0;
    format      ascii;
    class       volScalarField;
    location    "9";
    object      p_rgh;
}
// * * * * * * * * * * * * * * * * * * * * * * * * * * * * * * * * * * * * * //

dimensions      [1 -1 -2 0 0 0 0];


internalField   nonuniform List<scalar> 
50000
(
2681.71
2681.97
2682.44
2683.15
2684.1
2685.29
2686.72
2688.38
2690.27
2692.4
2694.76
2697.34
2700.16
2703.19
2706.45
2709.92
2713.61
2717.5
2721.61
2725.91
2730.41
2735.11
2739.99
2745.05
2750.29
2755.7
2761.28
2767.01
2772.89
2778.92
2785.08
2791.38
2797.79
2804.32
2810.96
2817.68
2824.5
2831.4
2838.36
2845.39
2852.47
2859.6
2866.76
2873.95
2881.15
2888.36
2895.57
2902.76
2909.94
2917.09
2924.21
2931.27
2938.29
2945.24
2952.12
2958.92
2965.63
2972.25
2978.77
2985.18
2991.48
2997.65
3003.69
3009.6
3015.37
3020.99
3026.47
3031.78
3036.94
3041.93
3046.75
3051.4
3055.87
3060.17
3064.28
3068.21
3071.96
3075.52
3078.9
3082.09
3085.09
3087.9
3090.52
3092.96
3095.22
3097.29
3099.17
3100.88
3102.41
3103.76
3104.95
3105.96
3106.82
3107.51
3108.04
3108.42
3108.66
3108.75
3108.71
3108.53
3108.23
3107.8
3107.26
3106.61
3105.86
3105.01
3104.07
3103.04
3101.94
3100.78
3099.54
3098.25
3096.91
3095.51
3094.09
3092.64
3091.16
3089.67
3088.17
3086.66
3085.14
3083.63
3082.13
3080.64
3079.17
3077.72
3076.29
3074.9
3073.54
3072.22
3070.94
3069.7
3068.52
3067.38
3066.3
3065.28
3064.32
3063.41
3062.57
3061.8
3061.09
3060.45
3059.88
3059.38
3058.94
3058.58
3058.3
3058.08
3057.93
3057.85
2681.22
2681.48
2681.95
2682.67
2683.62
2684.81
2686.24
2687.9
2689.8
2691.93
2694.3
2696.89
2699.71
2702.75
2706.02
2709.5
2713.19
2717.1
2721.21
2725.53
2730.04
2734.75
2739.64
2744.72
2749.97
2755.4
2760.99
2766.73
2772.63
2778.67
2784.84
2791.14
2797.57
2804.11
2810.76
2817.5
2824.33
2831.24
2838.23
2845.27
2852.37
2859.51
2866.69
2873.9
2881.12
2888.34
2895.57
2902.79
2909.98
2917.15
2924.28
2931.36
2938.39
2945.36
2952.25
2959.07
2965.8
2972.43
2978.96
2985.39
2991.69
2997.88
3003.93
3009.85
3015.63
3021.27
3026.75
3032.07
3037.23
3042.23
3047.06
3051.72
3056.19
3060.5
3064.61
3068.55
3072.3
3075.87
3079.24
3082.43
3085.43
3088.24
3090.87
3093.3
3095.55
3097.62
3099.5
3101.21
3102.73
3104.08
3105.26
3106.27
3107.11
3107.79
3108.32
3108.7
3108.92
3109.01
3108.95
3108.76
3108.44
3108
3107.44
3106.78
3106
3105.13
3104.17
3103.12
3101.99
3100.83
3099.6
3098.3
3096.96
3095.58
3094.16
3092.7
3091.22
3089.71
3088.2
3086.67
3085.15
3083.62
3082.11
3080.6
3079.12
3077.66
3076.22
3074.81
3073.44
3072.11
3070.82
3069.58
3068.39
3067.24
3066.16
3065.13
3064.15
3063.25
3062.4
3061.62
3060.9
3060.26
3059.68
3059.17
3058.74
3058.38
3058.09
3057.87
3057.72
3057.65
2680.26
2680.52
2681
2681.72
2682.67
2683.87
2685.3
2686.97
2688.88
2691.02
2693.4
2696
2698.83
2701.89
2705.16
2708.66
2712.38
2716.3
2720.43
2724.77
2729.3
2734.03
2738.95
2744.05
2749.33
2754.78
2760.39
2766.17
2772.09
2778.16
2784.37
2790.71
2797.16
2803.74
2810.41
2817.19
2824.05
2830.99
2838.01
2845.09
2852.21
2859.39
2866.6
2873.83
2881.08
2888.34
2895.6
2902.84
2910.07
2917.26
2924.42
2931.54
2938.6
2945.59
2952.51
2959.36
2966.11
2972.77
2979.33
2985.78
2992.11
2998.32
3004.39
3010.34
3016.13
3021.79
3027.28
3032.63
3037.8
3042.82
3047.66
3052.33
3056.82
3061.13
3065.25
3069.2
3072.95
3076.52
3079.9
3083.09
3086.1
3088.91
3091.53
3093.96
3096.21
3098.27
3100.15
3101.84
3103.36
3104.7
3105.87
3106.86
3107.69
3108.36
3108.87
3109.23
3109.44
3109.51
3109.43
3109.23
3108.89
3108.43
3107.86
3107.18
3106.4
3105.53
3104.56
3103.51
3102.39
3101.16
3099.89
3098.56
3097.18
3095.77
3094.31
3092.82
3091.31
3089.78
3088.24
3086.69
3085.14
3083.59
3082.05
3080.52
3079.02
3077.53
3076.08
3074.65
3073.26
3071.91
3070.61
3069.35
3068.14
3066.98
3065.88
3064.84
3063.86
3062.94
3062.08
3061.29
3060.57
3059.92
3059.33
3058.82
3058.38
3058.01
3057.72
3057.51
3057.35
3057.27
2678.83
2679.09
2679.57
2680.29
2681.25
2682.46
2683.9
2685.58
2687.5
2689.65
2692.04
2694.66
2697.51
2700.58
2703.88
2707.4
2711.14
2715.09
2719.25
2723.62
2728.18
2732.95
2737.9
2743.03
2748.35
2753.84
2759.49
2765.3
2771.27
2777.38
2783.63
2790.01
2796.51
2803.13
2809.86
2816.68
2823.59
2830.58
2837.64
2844.77
2851.95
2859.17
2866.43
2873.71
2881.01
2888.32
2895.62
2902.92
2910.19
2917.44
2924.64
2931.8
2938.9
2945.94
2952.91
2959.79
2966.59
2973.29
2979.88
2986.37
2992.74
2998.98
3005.09
3011.06
3016.89
3022.57
3028.09
3033.46
3038.66
3043.69
3048.56
3053.24
3057.75
3062.07
3066.22
3070.17
3073.94
3077.51
3080.9
3084.09
3087.1
3089.91
3092.53
3094.96
3097.2
3099.26
3101.13
3102.81
3104.31
3105.64
3106.79
3107.77
3108.58
3109.23
3109.71
3110.05
3110.23
3110.27
3110.17
3109.93
3109.56
3109.08
3108.47
3107.75
3106.93
3106.01
3105
3103.92
3102.75
3101.51
3100.2
3098.84
3097.42
3095.97
3094.48
3092.96
3091.41
3089.84
3088.26
3086.68
3085.09
3083.51
3081.94
3080.38
3078.84
3077.33
3075.84
3074.39
3072.98
3071.6
3070.28
3069
3067.77
3066.59
3065.47
3064.41
3063.42
3062.48
3061.61
3060.81
3060.08
3059.42
3058.83
3058.31
3057.86
3057.49
3057.2
3056.98
3056.82
3056.74
2676.91
2677.17
2677.66
2678.39
2679.35
2680.56
2682.02
2683.71
2685.65
2687.82
2690.23
2692.87
2695.74
2698.84
2702.17
2705.72
2709.49
2713.47
2717.67
2722.08
2726.68
2731.49
2736.49
2741.67
2747.03
2752.57
2758.28
2764.15
2770.17
2776.34
2782.65
2789.09
2795.65
2802.33
2809.12
2816
2822.98
2830.03
2837.16
2844.35
2851.6
2858.89
2866.21
2873.56
2880.92
2888.3
2895.67
2903.02
2910.36
2917.67
2924.93
2932.15
2939.31
2946.41
2953.43
2960.37
2967.22
2973.98
2980.62
2987.16
2993.57
2999.86
3006.01
3012.03
3017.9
3023.61
3029.17
3034.57
3039.81
3044.87
3049.76
3054.47
3059
3063.34
3067.5
3071.47
3075.25
3078.84
3082.23
3085.43
3088.44
3091.25
3093.87
3096.3
3098.53
3100.58
3102.43
3104.1
3105.59
3106.9
3108.03
3108.98
3109.77
3110.38
3110.84
3111.14
3111.29
3111.29
3111.15
3110.88
3110.47
3109.94
3109.29
3108.53
3107.67
3106.71
3105.65
3104.51
3103.29
3102
3100.64
3099.23
3097.76
3096.26
3094.71
3093.14
3091.54
3089.92
3088.29
3086.66
3085.03
3083.4
3081.78
3080.18
3078.6
3077.05
3075.52
3074.04
3072.59
3071.18
3069.82
3068.51
3067.26
3066.06
3064.92
3063.83
3062.82
3061.87
3060.98
3060.17
3059.42
3058.75
3058.15
3057.62
3057.17
3056.79
3056.49
3056.27
3056.11
3056.03
2674.5
2674.77
2675.26
2675.99
2676.97
2678.19
2679.66
2681.37
2683.32
2685.52
2687.95
2690.62
2693.52
2696.65
2700.02
2703.6
2707.42
2711.44
2715.69
2720.14
2724.8
2729.66
2734.71
2739.96
2745.38
2750.98
2756.76
2762.69
2768.79
2775.03
2781.41
2787.92
2794.56
2801.32
2808.19
2815.15
2822.21
2829.35
2836.56
2843.83
2851.16
2858.53
2865.93
2873.36
2880.81
2888.27
2895.72
2903.15
2910.57
2917.96
2925.3
2932.59
2939.83
2947
2954.1
2961.11
2968.02
2974.84
2981.55
2988.15
2994.62
3000.97
3007.18
3013.24
3019.16
3024.93
3030.53
3035.97
3041.25
3046.34
3051.27
3056.01
3060.57
3064.94
3069.12
3073.11
3076.9
3080.5
3083.91
3087.12
3090.13
3092.94
3095.56
3097.98
3100.2
3102.24
3104.08
3105.73
3107.2
3108.48
3109.58
3110.51
3111.26
3111.84
3112.26
3112.52
3112.62
3112.58
3112.39
3112.06
3111.61
3111.02
3110.32
3109.5
3108.58
3107.55
3106.43
3105.23
3103.95
3102.6
3101.18
3099.7
3098.17
3096.6
3094.99
3093.36
3091.69
3090.01
3088.32
3086.63
3084.94
3083.25
3081.58
3079.92
3078.29
3076.69
3075.12
3073.59
3072.09
3070.65
3069.25
3067.9
3066.61
3065.38
3064.21
3063.1
3062.06
3061.09
3060.18
3059.35
3058.59
3057.9
3057.29
3056.75
3056.29
3055.91
3055.6
3055.37
3055.21
3055.13
2671.6
2671.87
2672.36
2673.11
2674.09
2675.33
2676.82
2678.55
2680.52
2682.74
2685.2
2687.9
2690.84
2694.01
2697.42
2701.05
2704.91
2709
2713.3
2717.81
2722.53
2727.45
2732.58
2737.89
2743.39
2749.07
2754.92
2760.94
2767.12
2773.44
2779.91
2786.52
2793.25
2800.1
2807.07
2814.13
2821.28
2828.52
2835.83
2843.2
2850.62
2858.1
2865.6
2873.13
2880.68
2888.23
2895.78
2903.32
2910.83
2918.31
2925.74
2933.13
2940.46
2947.72
2954.9
2961.99
2968.99
2975.89
2982.68
2989.35
2995.89
3002.3
3008.58
3014.71
3020.69
3026.51
3032.17
3037.66
3042.98
3048.13
3053.09
3057.87
3062.46
3066.86
3071.07
3075.08
3078.9
3082.51
3085.93
3089.14
3092.16
3094.97
3097.59
3100
3102.22
3104.24
3106.06
3107.69
3109.13
3110.39
3111.45
3112.34
3113.06
3113.6
3113.97
3114.18
3114.23
3114.13
3113.89
3113.5
3112.98
3112.33
3111.56
3110.67
3109.68
3108.58
3107.39
3106.11
3104.76
3103.32
3101.83
3100.27
3098.67
3097.02
3095.33
3093.61
3091.88
3090.12
3088.36
3086.59
3084.83
3083.07
3081.33
3079.61
3077.92
3076.25
3074.63
3073.04
3071.49
3070
3068.55
3067.16
3065.83
3064.56
3063.36
3062.22
3061.15
3060.14
3059.22
3058.36
3057.58
3056.87
3056.25
3055.69
3055.22
3054.83
3054.52
3054.28
3054.12
3054.03
2668.2
2668.47
2668.97
2669.73
2670.72
2671.98
2673.48
2675.23
2677.23
2679.48
2681.98
2684.72
2687.7
2690.92
2694.37
2698.06
2701.98
2706.12
2710.49
2715.07
2719.86
2724.86
2730.06
2735.46
2741.05
2746.82
2752.76
2758.88
2765.15
2771.58
2778.16
2784.87
2791.71
2798.67
2805.75
2812.92
2820.19
2827.54
2834.97
2842.46
2850
2857.59
2865.21
2872.86
2880.52
2888.19
2895.86
2903.51
2911.13
2918.72
2926.27
2933.76
2941.2
2948.56
2955.84
2963.03
2970.13
2977.12
2984
2990.75
2997.38
3003.88
3010.23
3016.43
3022.48
3028.37
3034.09
3039.64
3045.02
3050.22
3055.23
3060.05
3064.68
3069.12
3073.36
3077.4
3081.23
3084.87
3088.3
3091.53
3094.55
3097.36
3099.97
3102.38
3104.58
3106.58
3108.39
3109.99
3111.4
3112.62
3113.65
3114.5
3115.17
3115.66
3115.98
3116.13
3116.12
3115.96
3115.64
3115.18
3114.59
3113.86
3113.01
3112.04
3110.96
3109.78
3108.5
3107.14
3105.69
3104.16
3102.58
3100.93
3099.23
3097.49
3095.71
3093.91
3092.08
3090.24
3088.38
3086.53
3084.68
3082.85
3081.03
3079.23
3077.47
3075.73
3074.04
3072.38
3070.78
3069.23
3067.73
3066.29
3064.91
3063.59
3062.35
3061.17
3060.06
3059.03
3058.07
3057.19
3056.38
3055.66
3055.01
3054.45
3053.96
3053.56
3053.23
3053
3052.83
3052.74
2664.28
2664.56
2665.07
2665.84
2666.85
2668.12
2669.64
2671.42
2673.45
2675.74
2678.27
2681.05
2684.08
2687.35
2690.86
2694.61
2698.6
2702.81
2707.25
2711.91
2716.79
2721.88
2727.17
2732.67
2738.35
2744.23
2750.28
2756.5
2762.89
2769.44
2776.14
2782.97
2789.94
2797.03
2804.23
2811.53
2818.93
2826.42
2833.98
2841.6
2849.28
2857.01
2864.77
2872.55
2880.35
2888.15
2895.95
2903.73
2911.48
2919.2
2926.87
2934.49
2942.05
2949.53
2956.92
2964.23
2971.44
2978.54
2985.52
2992.38
2999.1
3005.69
3012.13
3018.42
3024.55
3030.51
3036.31
3041.93
3047.37
3052.62
3057.69
3062.56
3067.24
3071.71
3075.99
3080.06
3083.92
3087.58
3091.03
3094.27
3097.29
3100.11
3102.72
3105.11
3107.3
3109.29
3111.07
3112.64
3114.02
3115.2
3116.19
3116.99
3117.6
3118.03
3118.29
3118.37
3118.29
3118.05
3117.66
3117.12
3116.44
3115.62
3114.68
3113.62
3112.44
3111.16
3109.78
3108.31
3106.76
3105.13
3103.43
3101.68
3099.87
3098.03
3096.14
3094.23
3092.3
3090.35
3088.4
3086.45
3084.51
3082.58
3080.67
3078.78
3076.93
3075.12
3073.34
3071.62
3069.94
3068.32
3066.76
3065.26
3063.83
3062.47
3061.17
3059.95
3058.8
3057.73
3056.74
3055.83
3055
3054.25
3053.59
3053
3052.5
3052.09
3051.75
3051.51
3051.34
3051.24
2659.85
2660.14
2660.65
2661.43
2662.46
2663.75
2665.3
2667.1
2669.17
2671.49
2674.07
2676.9
2679.98
2683.31
2686.89
2690.7
2694.76
2699.06
2703.58
2708.33
2713.3
2718.49
2723.89
2729.49
2735.29
2741.28
2747.46
2753.81
2760.33
2767.01
2773.84
2780.81
2787.92
2795.16
2802.5
2809.96
2817.51
2825.14
2832.86
2840.63
2848.47
2856.35
2864.26
2872.2
2880.15
2888.1
2896.05
2903.98
2911.88
2919.74
2927.56
2935.32
2943.01
2950.63
2958.16
2965.59
2972.93
2980.15
2987.24
2994.22
3001.05
3007.74
3014.29
3020.67
3026.89
3032.94
3038.82
3044.52
3050.03
3055.35
3060.48
3065.41
3070.14
3074.66
3078.98
3083.08
3086.98
3090.66
3094.12
3097.37
3100.41
3103.23
3105.83
3108.22
3110.39
3112.35
3114.1
3115.65
3116.99
3118.12
3119.06
3119.8
3120.36
3120.72
3120.91
3120.92
3120.76
3120.43
3119.95
3119.31
3118.53
3117.62
3116.57
3115.4
3114.11
3112.71
3111.22
3109.63
3107.95
3106.21
3104.39
3102.51
3100.59
3098.62
3096.61
3094.58
3092.53
3090.47
3088.4
3086.34
3084.29
3082.25
3080.24
3078.25
3076.31
3074.4
3072.54
3070.73
3068.98
3067.28
3065.65
3064.09
3062.59
3061.17
3059.82
3058.55
3057.36
3056.25
3055.23
3054.28
3053.42
3052.65
3051.96
3051.35
3050.84
3050.41
3050.07
3049.81
3049.63
3049.54
2654.89
2655.18
2655.71
2656.5
2657.54
2658.85
2660.43
2662.27
2664.37
2666.73
2669.36
2672.24
2675.38
2678.78
2682.42
2686.32
2690.46
2694.84
2699.46
2704.31
2709.39
2714.69
2720.21
2725.93
2731.86
2737.98
2744.29
2750.78
2757.45
2764.28
2771.26
2778.39
2785.66
2793.06
2800.57
2808.19
2815.91
2823.72
2831.6
2839.55
2847.56
2855.61
2863.69
2871.8
2879.92
2888.05
2896.17
2904.26
2912.33
2920.36
2928.34
2936.25
2944.1
2951.87
2959.55
2967.13
2974.6
2981.95
2989.18
2996.28
3003.24
3010.05
3016.7
3023.2
3029.52
3035.67
3041.64
3047.42
3053.01
3058.41
3063.61
3068.6
3073.39
3077.96
3082.32
3086.47
3090.4
3094.1
3097.59
3100.85
3103.9
3106.72
3109.32
3111.69
3113.85
3115.79
3117.51
3119.02
3120.31
3121.4
3122.28
3122.96
3123.45
3123.74
3123.84
3123.77
3123.52
3123.1
3122.51
3121.77
3120.88
3119.85
3118.68
3117.38
3115.97
3114.45
3112.82
3111.1
3109.29
3107.4
3105.45
3103.44
3101.37
3099.26
3097.12
3094.95
3092.77
3090.57
3088.38
3086.19
3084.01
3081.86
3079.73
3077.63
3075.58
3073.57
3071.61
3069.71
3067.87
3066.09
3064.38
3062.74
3061.18
3059.7
3058.29
3056.97
3055.73
3054.57
3053.51
3052.53
3051.64
3050.83
3050.12
3049.49
3048.96
3048.52
3048.16
3047.9
3047.72
3047.62
2649.39
2649.69
2650.23
2651.03
2652.09
2653.42
2655.02
2656.9
2659.04
2661.45
2664.13
2667.07
2670.27
2673.74
2677.47
2681.45
2685.68
2690.16
2694.88
2699.84
2705.04
2710.46
2716.11
2721.97
2728.04
2734.31
2740.77
2747.42
2754.25
2761.24
2768.39
2775.7
2783.14
2790.72
2798.42
2806.22
2814.13
2822.13
2830.2
2838.34
2846.54
2854.79
2863.06
2871.37
2879.68
2887.99
2896.3
2904.58
2912.84
2921.04
2929.2
2937.29
2945.31
2953.25
2961.09
2968.83
2976.46
2983.96
2991.34
2998.58
3005.67
3012.61
3019.39
3026.01
3032.44
3038.7
3044.77
3050.65
3056.33
3061.81
3067.08
3072.15
3077
3081.63
3086.04
3090.23
3094.19
3097.93
3101.44
3104.72
3107.77
3110.6
3113.19
3115.55
3117.69
3119.6
3121.29
3122.76
3124.01
3125.04
3125.86
3126.47
3126.88
3127.09
3127.11
3126.93
3126.58
3126.05
3125.35
3124.49
3123.48
3122.32
3121.02
3119.59
3118.03
3116.36
3114.59
3112.71
3110.75
3108.72
3106.61
3104.44
3102.22
3099.96
3097.66
3095.34
3093.01
3090.66
3088.32
3085.99
3083.68
3081.39
3079.13
3076.91
3074.74
3072.61
3070.55
3068.54
3066.6
3064.73
3062.94
3061.22
3059.58
3058.03
3056.56
3055.18
3053.89
3052.69
3051.58
3050.56
3049.64
3048.8
3048.06
3047.42
3046.86
3046.41
3046.04
3045.77
3045.58
3045.48
2643.33
2643.64
2644.19
2645.01
2646.08
2647.44
2649.07
2650.98
2653.17
2655.63
2658.36
2661.37
2664.64
2668.19
2672
2676.07
2680.4
2684.99
2689.83
2694.91
2700.24
2705.8
2711.58
2717.59
2723.82
2730.25
2736.88
2743.7
2750.71
2757.89
2765.23
2772.72
2780.36
2788.14
2796.04
2804.05
2812.17
2820.37
2828.66
2837.01
2845.42
2853.88
2862.37
2870.89
2879.41
2887.94
2896.45
2904.94
2913.4
2921.81
2930.16
2938.45
2946.65
2954.78
2962.8
2970.71
2978.51
2986.19
2993.72
3001.12
3008.36
3015.44
3022.36
3029.1
3035.67
3042.04
3048.22
3054.21
3059.99
3065.56
3070.92
3076.06
3080.98
3085.67
3090.14
3094.38
3098.38
3102.15
3105.69
3108.99
3112.05
3114.87
3117.46
3119.81
3121.93
3123.81
3125.46
3126.88
3128.08
3129.05
3129.8
3130.34
3130.66
3130.78
3130.7
3130.42
3129.96
3129.31
3128.48
3127.49
3126.34
3125.04
3123.59
3122
3120.29
3118.46
3116.52
3114.48
3112.35
3110.14
3107.86
3105.52
3103.13
3100.69
3098.23
3095.74
3093.24
3090.73
3088.23
3085.74
3083.27
3080.83
3078.43
3076.08
3073.77
3071.52
3069.33
3067.22
3065.17
3063.2
3061.31
3059.51
3057.79
3056.16
3054.63
3053.19
3051.84
3050.59
3049.43
3048.37
3047.41
3046.55
3045.78
3045.11
3044.54
3044.07
3043.69
3043.41
3043.21
3043.1
2636.7
2637.02
2637.59
2638.42
2639.51
2640.89
2642.56
2644.5
2646.73
2649.25
2652.04
2655.11
2658.47
2662.1
2666
2670.17
2674.61
2679.32
2684.28
2689.5
2694.96
2700.67
2706.62
2712.79
2719.18
2725.79
2732.61
2739.62
2746.82
2754.2
2761.75
2769.46
2777.31
2785.31
2793.43
2801.67
2810.01
2818.45
2826.97
2835.55
2844.2
2852.89
2861.62
2870.36
2879.12
2887.88
2896.62
2905.33
2914.01
2922.64
2931.21
2939.71
2948.13
2956.45
2964.68
2972.78
2980.77
2988.63
2996.34
3003.9
3011.31
3018.55
3025.62
3032.5
3039.2
3045.71
3052.01
3058.11
3064
3069.67
3075.12
3080.34
3085.34
3090.1
3094.63
3098.92
3102.97
3106.77
3110.34
3113.66
3116.73
3119.56
3122.14
3124.48
3126.57
3128.42
3130.03
3131.4
3132.54
3133.45
3134.12
3134.58
3134.81
3134.83
3134.64
3134.24
3133.65
3132.87
3131.91
3130.77
3129.47
3128.01
3126.39
3124.64
3122.75
3120.74
3118.62
3116.4
3114.08
3111.68
3109.21
3106.68
3104.1
3101.47
3098.81
3096.14
3093.45
3090.76
3088.08
3085.42
3082.78
3080.18
3077.62
3075.11
3072.66
3070.28
3067.96
3065.72
3063.55
3061.48
3059.49
3057.59
3055.79
3054.08
3052.47
3050.96
3049.56
3048.25
3047.05
3045.95
3044.95
3044.06
3043.26
3042.57
3041.98
3041.49
3041.1
3040.81
3040.61
3040.5
2629.49
2629.82
2630.4
2631.25
2632.36
2633.76
2635.46
2637.45
2639.72
2642.29
2645.15
2648.3
2651.73
2655.45
2659.45
2663.73
2668.29
2673.12
2678.22
2683.59
2689.21
2695.08
2701.19
2707.54
2714.12
2720.93
2727.94
2735.16
2742.57
2750.17
2757.95
2765.89
2773.98
2782.21
2790.58
2799.06
2807.66
2816.35
2825.12
2833.96
2842.86
2851.81
2860.79
2869.8
2878.81
2887.82
2896.81
2905.77
2914.69
2923.56
2932.37
2941.1
2949.74
2958.29
2966.73
2975.05
2983.24
2991.29
2999.2
3006.95
3014.53
3021.94
3029.17
3036.21
3043.06
3049.7
3056.14
3062.36
3068.36
3074.14
3079.69
3085.01
3090.09
3094.93
3099.52
3103.87
3107.97
3111.81
3115.41
3118.75
3121.83
3124.66
3127.24
3129.56
3131.63
3133.45
3135.01
3136.33
3137.41
3138.24
3138.83
3139.2
3139.33
3139.24
3138.93
3138.41
3137.68
3136.76
3135.64
3134.34
3132.87
3131.24
3129.44
3127.5
3125.42
3123.22
3120.9
3118.47
3115.94
3113.34
3110.65
3107.91
3105.11
3102.28
3099.41
3096.53
3093.63
3090.75
3087.87
3085.01
3082.19
3079.41
3076.68
3074.01
3071.4
3068.86
3066.4
3064.02
3061.74
3059.54
3057.45
3055.45
3053.55
3051.76
3050.08
3048.5
3047.03
3045.67
3044.42
3043.28
3042.24
3041.32
3040.49
3039.78
3039.17
3038.66
3038.26
3037.97
3037.76
3037.64
2621.67
2622.01
2622.61
2623.47
2624.61
2626.03
2627.76
2629.79
2632.12
2634.74
2637.67
2640.89
2644.41
2648.23
2652.34
2656.74
2661.42
2666.39
2671.64
2677.15
2682.94
2688.98
2695.28
2701.83
2708.61
2715.63
2722.86
2730.31
2737.95
2745.79
2753.81
2762
2770.35
2778.85
2787.48
2796.23
2805.1
2814.06
2823.11
2832.23
2841.41
2850.64
2859.9
2869.18
2878.47
2887.75
2897.02
2906.25
2915.44
2924.57
2933.63
2942.61
2951.5
2960.29
2968.96
2977.51
2985.92
2994.19
3002.3
3010.25
3018.03
3025.62
3033.03
3040.24
3047.24
3054.04
3060.62
3066.98
3073.11
3079
3084.66
3090.07
3095.24
3100.16
3104.83
3109.24
3113.39
3117.28
3120.91
3124.27
3127.37
3130.21
3132.78
3135.08
3137.12
3138.9
3140.42
3141.68
3142.69
3143.44
3143.95
3144.21
3144.23
3144.02
3143.58
3142.93
3142.05
3140.97
3139.69
3138.21
3136.56
3134.73
3132.74
3130.59
3128.31
3125.88
3123.34
3120.69
3117.94
3115.1
3112.18
3109.21
3106.18
3103.11
3100.01
3096.9
3093.78
3090.67
3087.58
3084.52
3081.49
3078.51
3075.59
3072.74
3069.96
3067.26
3064.64
3062.12
3059.7
3057.38
3055.17
3053.06
3051.07
3049.19
3047.43
3045.78
3044.25
3042.84
3041.54
3040.35
3039.28
3038.32
3037.47
3036.73
3036.1
3035.58
3035.17
3034.87
3034.65
3034.53
2613.23
2613.59
2614.2
2615.08
2616.23
2617.68
2619.44
2621.51
2623.89
2626.57
2629.57
2632.87
2636.49
2640.41
2644.63
2649.15
2653.97
2659.09
2664.49
2670.18
2676.14
2682.38
2688.88
2695.63
2702.64
2709.88
2717.35
2725.04
2732.94
2741.04
2749.32
2757.78
2766.41
2775.19
2784.11
2793.16
2802.32
2811.58
2820.93
2830.36
2839.84
2849.37
2858.94
2868.52
2878.11
2887.69
2897.25
2906.77
2916.25
2925.66
2935.01
2944.26
2953.42
2962.47
2971.39
2980.19
2988.84
2997.34
3005.67
3013.84
3021.82
3029.61
3037.21
3044.6
3051.78
3058.73
3065.47
3071.97
3078.23
3084.25
3090.03
3095.55
3100.82
3105.82
3110.56
3115.04
3119.25
3123.19
3126.85
3130.24
3133.36
3136.2
3138.76
3141.05
3143.06
3144.8
3146.27
3147.47
3148.4
3149.07
3149.48
3149.64
3149.54
3149.2
3148.62
3147.81
3146.77
3145.52
3144.06
3142.39
3140.54
3138.5
3136.29
3133.92
3131.4
3128.75
3125.96
3123.06
3120.06
3116.97
3113.8
3110.56
3107.28
3103.95
3100.6
3097.24
3093.88
3090.53
3087.2
3083.9
3080.65
3077.46
3074.34
3071.28
3068.32
3065.44
3062.66
3059.98
3057.42
3054.97
3052.63
3050.42
3048.32
3046.35
3044.51
3042.79
3041.19
3039.72
3038.37
3037.14
3036.04
3035.05
3034.17
3033.41
3032.77
3032.23
3031.81
3031.5
3031.28
3031.15
2604.15
2604.51
2605.15
2606.05
2607.21
2608.69
2610.47
2612.58
2615.01
2617.76
2620.83
2624.22
2627.93
2631.96
2636.3
2640.96
2645.92
2651.2
2656.77
2662.64
2668.8
2675.24
2681.95
2688.93
2696.17
2703.66
2711.38
2719.34
2727.51
2735.89
2744.47
2753.22
2762.15
2771.24
2780.47
2789.84
2799.32
2808.9
2818.58
2828.33
2838.14
2848
2857.9
2867.81
2877.72
2887.62
2897.5
2907.34
2917.13
2926.85
2936.5
2946.05
2955.49
2964.82
2974.02
2983.08
2991.99
3000.74
3009.31
3017.71
3025.91
3033.92
3041.72
3049.3
3056.66
3063.8
3070.69
3077.35
3083.76
3089.91
3095.81
3101.45
3106.82
3111.92
3116.74
3121.29
3125.56
3129.55
3133.25
3136.67
3139.8
3142.65
3145.21
3147.48
3149.46
3151.16
3152.57
3153.71
3154.56
3155.14
3155.45
3155.49
3155.26
3154.78
3154.05
3153.08
3151.86
3150.42
3148.76
3146.89
3144.82
3142.56
3140.11
3137.5
3134.72
3131.81
3128.76
3125.59
3122.31
3118.94
3115.49
3111.98
3108.41
3104.81
3101.18
3097.54
3093.91
3090.29
3086.7
3083.16
3079.66
3076.24
3072.89
3069.62
3066.45
3063.39
3060.43
3057.59
3054.87
3052.27
3049.81
3047.48
3045.28
3043.22
3041.29
3039.5
3037.84
3036.31
3034.91
3033.65
3032.51
3031.49
3030.59
3029.81
3029.15
3028.61
3028.18
3027.86
3027.64
3027.51
2594.39
2594.77
2595.43
2596.35
2597.53
2599.02
2600.84
2602.98
2605.47
2608.28
2611.42
2614.9
2618.71
2622.85
2627.32
2632.12
2637.24
2642.68
2648.44
2654.5
2660.87
2667.53
2674.47
2681.7
2689.19
2696.94
2704.94
2713.18
2721.65
2730.34
2739.22
2748.3
2757.55
2766.97
2776.54
2786.25
2796.08
2806.01
2816.04
2826.15
2836.32
2846.53
2856.78
2867.04
2877.31
2887.56
2897.79
2907.97
2918.09
2928.14
2938.11
2947.98
2957.73
2967.36
2976.86
2986.2
2995.39
3004.4
3013.24
3021.88
3030.32
3038.55
3046.57
3054.36
3061.92
3069.24
3076.31
3083.13
3089.7
3096
3102.03
3107.78
3113.27
3118.46
3123.38
3128.01
3132.34
3136.38
3140.13
3143.58
3146.73
3149.58
3152.13
3154.39
3156.34
3157.99
3159.35
3160.41
3161.18
3161.66
3161.86
3161.78
3161.41
3160.78
3159.89
3158.74
3157.34
3155.69
3153.82
3151.72
3149.41
3146.9
3144.2
3141.32
3138.27
3135.07
3131.73
3128.27
3124.69
3121.02
3117.26
3113.44
3109.57
3105.65
3101.72
3097.78
3093.85
3089.95
3086.07
3082.25
3078.5
3074.82
3071.22
3067.73
3064.34
3061.07
3057.92
3054.9
3052.02
3049.28
3046.68
3044.23
3041.92
3039.76
3037.75
3035.89
3034.17
3032.59
3031.15
3029.84
3028.67
3027.63
3026.72
3025.92
3025.25
3024.7
3024.26
3023.94
3023.72
3023.58
2583.93
2584.33
2585.01
2585.95
2587.15
2588.66
2590.5
2592.68
2595.22
2598.09
2601.31
2604.88
2608.8
2613.06
2617.67
2622.62
2627.9
2633.52
2639.47
2645.74
2652.33
2659.22
2666.42
2673.9
2681.67
2689.71
2698.01
2706.56
2715.34
2724.35
2733.57
2742.99
2752.6
2762.38
2772.31
2782.39
2792.59
2802.9
2813.31
2823.8
2834.35
2844.95
2855.58
2866.23
2876.87
2887.5
2898.1
2908.65
2919.13
2929.54
2939.85
2950.06
2960.15
2970.11
2979.91
2989.57
2999.05
3008.35
3017.45
3026.36
3035.06
3043.53
3051.78
3059.79
3067.56
3075.08
3082.34
3089.33
3096.06
3102.51
3108.69
3114.57
3120.17
3125.48
3130.49
3135.2
3139.6
3143.7
3147.5
3150.98
3154.15
3157.01
3159.56
3161.79
3163.71
3165.32
3166.62
3167.61
3168.29
3168.66
3168.74
3168.52
3168.02
3167.22
3166.15
3164.81
3163.2
3161.34
3159.24
3156.89
3154.33
3151.55
3148.57
3145.4
3142.05
3138.54
3134.89
3131.1
3127.2
3123.19
3119.1
3114.94
3110.73
3106.48
3102.22
3097.95
3093.7
3089.47
3085.29
3081.17
3077.13
3073.17
3069.31
3065.57
3061.94
3058.45
3055.1
3051.89
3048.84
3045.94
3043.21
3040.63
3038.22
3035.96
3033.87
3031.94
3030.16
3028.53
3027.05
3025.72
3024.52
3023.46
3022.53
3021.73
3021.05
3020.5
3020.06
3019.73
3019.51
3019.37
2572.74
2573.16
2573.87
2574.83
2576.05
2577.57
2579.43
2581.65
2584.23
2587.17
2590.47
2594.13
2598.16
2602.55
2607.29
2612.4
2617.86
2623.67
2629.83
2636.32
2643.15
2650.3
2657.76
2665.52
2673.59
2681.93
2690.55
2699.42
2708.55
2717.91
2727.49
2737.28
2747.27
2757.43
2767.76
2778.23
2788.84
2799.56
2810.37
2821.28
2832.24
2843.25
2854.3
2865.36
2876.41
2887.44
2898.44
2909.38
2920.26
2931.05
2941.74
2952.31
2962.76
2973.06
2983.2
2993.18
3002.98
3012.58
3021.98
3031.17
3040.14
3048.87
3057.36
3065.61
3073.6
3081.33
3088.78
3095.97
3102.87
3109.48
3115.8
3121.83
3127.55
3132.97
3138.08
3142.88
3147.36
3151.53
3155.37
3158.89
3162.09
3164.96
3167.5
3169.71
3171.6
3173.16
3174.39
3175.3
3175.89
3176.16
3176.11
3175.75
3175.08
3174.12
3172.86
3171.31
3169.48
3167.39
3165.03
3162.43
3159.58
3156.51
3153.23
3149.74
3146.07
3142.23
3138.23
3134.09
3129.83
3125.46
3121
3116.48
3111.9
3107.28
3102.65
3098.02
3093.41
3088.84
3084.33
3079.88
3075.52
3071.26
3067.12
3063.1
3059.23
3055.5
3051.93
3048.53
3045.3
3042.24
3039.36
3036.66
3034.13
3031.78
3029.61
3027.61
3025.78
3024.11
3022.6
3021.24
3020.03
3018.96
3018.03
3017.22
3016.54
3015.99
3015.55
3015.23
3015
3014.86
2560.77
2561.21
2561.96
2562.95
2564.18
2565.71
2567.59
2569.84
2572.47
2575.47
2578.85
2582.61
2586.75
2591.27
2596.17
2601.44
2607.09
2613.11
2619.48
2626.21
2633.29
2640.71
2648.46
2656.52
2664.9
2673.57
2682.53
2691.76
2701.25
2710.99
2720.96
2731.15
2741.54
2752.12
2762.86
2773.77
2784.8
2795.96
2807.22
2818.57
2829.98
2841.44
2852.93
2864.43
2875.92
2887.39
2898.82
2910.19
2921.48
2932.68
2943.77
2954.73
2965.56
2976.23
2986.74
2997.06
3007.19
3017.12
3026.84
3036.32
3045.57
3054.58
3063.33
3071.83
3080.05
3088
3095.67
3103.04
3110.13
3116.91
3123.39
3129.57
3135.42
3140.96
3146.18
3151.07
3155.64
3159.87
3163.77
3167.33
3170.55
3173.43
3175.97
3178.17
3180.02
3181.53
3182.7
3183.52
3184.01
3184.16
3183.98
3183.47
3182.64
3181.49
3180.02
3178.26
3176.19
3173.84
3171.22
3168.33
3165.18
3161.8
3158.18
3154.36
3150.33
3146.13
3141.75
3137.23
3132.58
3127.82
3122.96
3118.03
3113.05
3108.03
3103
3097.98
3092.98
3088.03
3083.15
3078.35
3073.65
3069.06
3064.61
3060.3
3056.16
3052.18
3048.38
3044.77
3041.35
3038.12
3035.09
3032.26
3029.63
3027.2
3024.95
3022.89
3021.02
3019.32
3017.78
3016.41
3015.19
3014.12
3013.19
3012.39
3011.72
3011.17
3010.74
3010.42
3010.2
3010.06
2547.97
2548.45
2549.24
2550.27
2551.52
2553.06
2554.95
2557.22
2559.89
2562.96
2566.42
2570.28
2574.53
2579.19
2584.25
2589.7
2595.54
2601.77
2608.39
2615.37
2622.72
2630.43
2638.48
2646.87
2655.58
2664.61
2673.93
2683.54
2693.42
2703.56
2713.95
2724.56
2735.39
2746.41
2757.61
2768.97
2780.48
2792.11
2803.84
2815.67
2827.55
2839.49
2851.46
2863.44
2875.4
2887.34
2899.23
2911.05
2922.79
2934.43
2945.95
2957.34
2968.57
2979.64
2990.53
3001.22
3011.71
3021.99
3032.03
3041.83
3051.38
3060.68
3069.71
3078.46
3086.93
3095.11
3103
3110.58
3117.86
3124.83
3131.47
3137.8
3143.8
3149.47
3154.8
3159.79
3164.44
3168.75
3172.71
3176.31
3179.56
3182.46
3185
3187.18
3188.99
3190.45
3191.55
3192.29
3192.68
3192.71
3192.38
3191.71
3190.7
3189.35
3187.67
3185.67
3183.35
3180.73
3177.82
3174.62
3171.15
3167.42
3163.46
3159.26
3154.85
3150.25
3145.47
3140.53
3135.45
3130.26
3124.96
3119.59
3114.17
3108.72
3103.25
3097.8
3092.38
3087.01
3081.72
3076.53
3071.46
3066.52
3061.73
3057.12
3052.68
3048.43
3044.39
3040.56
3036.94
3033.54
3030.37
3027.41
3024.68
3022.16
3019.85
3017.75
3015.84
3014.11
3012.57
3011.2
3009.99
3008.93
3008.01
3007.23
3006.57
3006.04
3005.62
3005.32
3005.1
3004.96
2534.3
2534.8
2535.65
2536.74
2538.02
2539.57
2541.46
2543.75
2546.46
2549.59
2553.13
2557.08
2561.46
2566.26
2571.48
2577.12
2583.17
2589.64
2596.5
2603.76
2611.4
2619.42
2627.79
2636.52
2645.59
2654.99
2664.71
2674.72
2685.02
2695.6
2706.43
2717.5
2728.79
2740.29
2751.98
2763.83
2775.84
2787.97
2800.22
2812.55
2824.96
2837.41
2849.89
2862.38
2874.86
2887.3
2899.68
2912
2924.22
2936.33
2948.3
2960.14
2971.81
2983.3
2994.59
3005.68
3016.55
3027.19
3037.58
3047.71
3057.59
3067.18
3076.5
3085.53
3094.26
3102.68
3110.8
3118.6
3126.08
3133.24
3140.06
3146.55
3152.69
3158.5
3163.95
3169.05
3173.8
3178.18
3182.2
3185.86
3189.14
3192.05
3194.59
3196.76
3198.54
3199.95
3200.98
3201.63
3201.9
3201.81
3201.33
3200.5
3199.29
3197.74
3195.83
3193.57
3190.99
3188.07
3184.85
3181.32
3177.5
3173.4
3169.05
3164.45
3159.63
3154.59
3149.37
3143.98
3138.44
3132.77
3127
3121.15
3115.25
3109.31
3103.37
3097.44
3091.56
3085.74
3080.01
3074.4
3068.92
3063.6
3058.45
3053.49
3048.74
3044.21
3039.91
3035.84
3032.03
3028.46
3025.14
3022.06
3019.23
3016.64
3014.27
3012.13
3010.2
3008.48
3006.94
3005.58
3004.39
3003.36
3002.47
3001.72
3001.09
3000.59
3000.19
2999.9
2999.7
2999.56
2519.67
2520.21
2521.13
2522.29
2523.62
2525.18
2527.08
2529.39
2532.13
2535.31
2538.92
2542.97
2547.47
2552.42
2557.82
2563.66
2569.94
2576.65
2583.78
2591.33
2599.28
2607.62
2616.35
2625.45
2634.9
2644.7
2654.83
2665.27
2676.02
2687.06
2698.36
2709.92
2721.71
2733.72
2745.93
2758.32
2770.86
2783.54
2796.33
2809.22
2822.18
2835.19
2848.22
2861.26
2874.28
2887.26
2900.18
2913.02
2925.75
2938.37
2950.83
2963.14
2975.28
2987.22
2998.95
3010.45
3021.72
3032.74
3043.5
3053.99
3064.2
3074.11
3083.73
3093.05
3102.05
3110.73
3119.09
3127.12
3134.81
3142.16
3149.17
3155.82
3162.13
3168.07
3173.65
3178.87
3183.71
3188.18
3192.27
3195.98
3199.3
3202.24
3204.78
3206.93
3208.68
3210.04
3211
3211.56
3211.72
3211.49
3210.86
3209.84
3208.44
3206.66
3204.51
3201.99