/*--------------------------------*- C++ -*----------------------------------*\
| =========                 |                                                 |
| \\      /  F ield         | OpenFOAM: The Open Source CFD Toolbox           |
|  \\    /   O peration     | Version:  v2006                                 |
|   \\  /    A nd           | Website:  www.openfoam.com                      |
|    \\/     M anipulation  |                                                 |
\*---------------------------------------------------------------------------*/
FoamFile
{
    version     2.0;
    format      ascii;
    class       volScalarField;
    location    "8.75";
    object      r;
}
// * * * * * * * * * * * * * * * * * * * * * * * * * * * * * * * * * * * * * //

dimensions      [1 2 0 0 0 0 0];


internalField   nonuniform List<scalar> 
350
(
-1.25345e-137
6.91841e-136
-1.84111e-134
4.96253e-133
-1.32635e-131
3.5176e-130
-9.25546e-129
2.41578e-127
-6.25417e-126
1.60573e-124
-4.08793e-123
1.03182e-121
-2.5817e-120
6.40239e-119
-1.57342e-117
3.8313e-116
-9.24205e-115
2.2082e-113
-5.22491e-112
1.22407e-110
-2.83886e-109
6.51628e-108
-1.48009e-106
3.32596e-105
-7.39249e-104
1.62484e-102
-3.53083e-101
7.5837e-100
-1.60959e-98
3.37491e-97
-6.98888e-96
1.42898e-94
-2.88395e-93
5.74329e-92
-1.12825e-90
2.18562e-89
-4.17367e-88
7.8537e-87
-1.45572e-85
2.65678e-84
-4.77223e-83
8.43301e-82
-1.46534e-80
2.50249e-79
-4.19817e-78
6.91454e-77
-1.11745e-75
1.77087e-74
-2.75015e-73
4.18243e-72
-6.22415e-71
9.05657e-70
-1.28738e-68
1.78608e-67
-2.4161e-66
3.18328e-65
-4.08004e-64
5.08062e-63
-6.13778e-62
7.18217e-61
-8.12608e-60
8.87198e-59
-9.3259e-58
9.41377e-57
-9.09761e-56
8.38757e-55
-7.34566e-54
6.07891e-53
-4.72203e-52
3.41302e-51
-2.26778e-50
1.36057e-49
-7.15568e-49
3.11365e-48
-9.5816e-48
5.46419e-48
1.71249e-46
-1.29603e-45
4.49607e-45
2.6265e-45
-1.21281e-43
5.8541e-43
6.22813e-44
-1.486e-41
6.06299e-41
1.52483e-40
-2.10163e-39
2.22512e-39
5.09203e-38
-1.7084e-37
-1.11716e-36
6.2815e-36
2.6417e-35
-1.93988e-34
-7.77915e-34
5.44434e-33
2.85241e-32
-1.28322e-31
-1.12711e-30
1.44653e-30
4.03297e-29
8.62787e-29
-1.00887e-27
-7.28678e-27
-9.04381e-28
2.49133e-25
1.5205e-24
9.64195e-25
-4.9017e-23
-4.16199e-22
-1.61933e-21
1.54718e-21
7.90296e-20
7.5678e-19
5.12804e-18
2.87561e-17
1.41383e-16
6.27753e-16
2.56271e-15
9.73597e-15
3.47241e-14
1.17044e-13
3.74813e-13
1.14523e-12
3.35067e-12
9.41548e-12
2.54774e-11
6.65357e-11
1.68039e-10
4.11143e-10
9.76102e-10
2.25187e-09
5.05479e-09
1.10534e-08
2.35717e-08
4.90721e-08
9.98224e-08
1.98586e-07
3.86677e-07
7.37486e-07
1.37871e-06
2.52809e-06
4.54975e-06
8.04104e-06
1.3964e-05
2.38401e-05
4.00337e-05
6.61561e-05
0.000107631
0.000172472
0.000272328
0.000423864
0.000650564
0.000985004
0.00147171
0.00217065
0.0031614
0.00454805
0.00646486
0.00908251
0.012615
0.0173269
0.0235408
0.0316446
0.042098
0.0554386
0.0722859
0.0933437
0.1194
0.151322
0.190052
0.236597
0.29201
0.357375
0.433788
0.522322
0.62401
0.739807
0.870563
1.01699
1.17963
1.35883
1.55473
1.76722
1.99595
2.24032
2.49946
2.77227
3.0574
3.35331
3.65828
3.97041
4.28772
4.60815
4.92959
5.24996
5.56721
5.87939
6.18465
6.48129
6.76778
7.04275
7.30504
7.55368
7.78789
8.00707
8.21077
8.39871
8.57074
8.72677
8.86683
8.99097
9.09926
9.19176
9.26852
9.32953
9.37472
9.40395
9.41702
9.41365
9.39349
9.35618
9.3013
9.22846
9.13726
9.0274
8.89864
8.75088
8.58414
8.39865
8.19481
7.97323
7.73476
7.48047
7.21162
6.92971
6.63641
6.33356
6.02312
5.70717
5.38781
5.06721
4.74749
4.43071
4.11886
3.81378
3.51718
3.23056
2.95526
2.69239
2.44286
2.20733
1.9863
1.78002
1.58857
1.41186
1.24963
1.10148
0.966903
0.845283
0.735936
0.638122
0.55106
0.47395
0.405989
0.346379
0.294342
0.24913
0.210032
0.176375
0.147534
0.122931
0.102037
0.0843697
0.0694968
0.0570298
0.0466239
0.037975
0.0308162
0.0249153
0.0200711
0.0161103
0.0128848
0.0102684
0.00815438
0.00645292
0.00508873
0.00399909
0.00313202
0.00244462
0.00190165
0.00147434
0.00113925
0.000877429
0.000673572
0.000515403
0.00039311
0.000298876
0.000226516
0.000171133
0.000128892
9.67741e-05
7.24403e-05
5.40574e-05
4.02206e-05
2.98336e-05
2.20654e-05
1.62703e-05
1.19632e-05
8.77016e-06
6.41112e-06
4.67334e-06
3.39659e-06
2.46229e-06
1.77927e-06
1.283e-06
9.21718e-07
6.6126e-07
4.72264e-07
3.37164e-07
2.39381e-07
1.70089e-07
1.20069e-07
8.48939e-08
5.96181e-08
4.19149e-08
2.93213e-08
2.04642e-08
1.42947e-08
9.87472e-09
6.91382e-09
4.70674e-09
3.31964e-09
2.21579e-09
1.58202e-09
1.03146e-09
7.46815e-10
4.76611e-10
3.47422e-10
2.20406e-10
1.57716e-10
1.03375e-10
6.87306e-11
4.99443e-11
2.80242e-11
2.5081e-11
1.02677e-11
1.29789e-11
3.16933e-12
6.79966e-12
)
;

boundaryField
{
    right
    {
        type            zeroGradient;
    }
    left
    {
        type            inletOutlet;
        inletValue      uniform 0;
        value           uniform 0;
    }
    top
    {
        type            zeroGradient;
    }
    bottom
    {
        type            zeroGradient;
    }
    empty
    {
        type            empty;
    }
}


// ************************************************************************* //
