/*--------------------------------*- C++ -*----------------------------------*\
| =========                 |                                                 |
| \\      /  F ield         | OpenFOAM: The Open Source CFD Toolbox           |
|  \\    /   O peration     | Version:  v2006                                 |
|   \\  /    A nd           | Website:  www.openfoam.com                      |
|    \\/     M anipulation  |                                                 |
\*---------------------------------------------------------------------------*/
FoamFile
{
    version     2.0;
    format      ascii;
    class       volScalarField;
    location    "0";
    object      shifted_f;
}
// * * * * * * * * * * * * * * * * * * * * * * * * * * * * * * * * * * * * * //

dimensions      [0 0 0 0 0 0 0];


internalField   nonuniform List<scalar> 
2500
(
0.000207011
0.000207014
0.000207026
0.000207026
0.000207052
0.000207108
0.00020716
0.000207148
0.000207145
0.000207148
0.000207223
0.000207178
0.000207197
0.00020726
0.000207312
0.000207368
0.000207387
0.0002218
0.000221714
0.000221841
0.000221837
0.00022177
0.000221804
0.000221852
0.000221889
0.000221945
0.000221971
0.000221979
0.000222009
0.000222005
0.000221997
0.000222038
0.000222024
0.000222072
0.000222128
0.000222094
0.000222106
0.000222139
0.000222165
0.000222158
0.000222202
0.000222184
0.000222165
0.000222281
0.000222284
0.00022231
0.000222318
0.000222344
0.000222325
0.000222333
0.000222363
0.000222381
0.0002224
0.0002224
0.000222389
0.000222422
0.000222411
0.000222474
0.000222456
0.000222448
0.000222497
0.000222512
0.000222541
0.000222597
0.000222571
0.000222601
0.000222623
0.00022262
0.000222683
0.000222649
0.000222676
0.000222713
0.000222705
0.000222716
0.000222761
0.000222806
0.000222825
0.000222832
0.000222877
0.000222832
0.000222813
0.000222858
0.000222869
0.000222869
0.000222933
0.000222903
0.000222925
0.00022291
0.000223
0.000222966
0.000222925
0.000223029
0.000223015
0.000223041
0.000223052
0.000223059
0.000223063
0.000223108
0.000223115
0.000223108
0.000223145
0.000223171
0.00022319
0.000223231
0.000223223
0.000223264
0.000223253
0.000223264
0.000223272
0.000223245
0.000223335
0.000223324
0.00022329
0.00022332
0.000223342
0.000223398
0.000223402
0.000223432
0.000234295
0.000234269
0.000234302
0.000234313
0.000234313
0.000234332
0.000234313
0.000234384
0.00023438
0.00023438
0.000234436
0.000234414
0.000234403
0.000234455
0.000234473
0.000234459
0.000234496
0.000234462
0.000234529
0.000234496
0.000234563
0.000234589
0.000234608
0.00023463
0.000234626
0.000234637
0.00023466
0.000234682
0.000234727
0.000234686
0.000234682
0.000234727
0.000234783
0.00023479
0.000234753
0.000234749
0.000234742
0.000234734
0.000234779
0.000234794
0.000234839
0.000234868
0.000234917
0.000234857
0.000234883
0.000234924
0.00023495
0.000234973
0.000234932
0.000234924
0.000234976
0.000235032
0.000235047
0.00023501
0.000235014
0.00023501
0.000235006
0.000235036
0.000235043
0.00023504
0.000235107
0.000235144
0.000235144
0.00023514
0.000235103
0.000235151
0.000235215
0.000235204
0.000235215
0.000235215
0.000235274
0.000235274
0.000235271
0.000235308
0.000235241
0.000235271
0.000235237
0.000235293
0.000235323
0.000235327
0.000235304
0.000235345
0.000235405
0.000235405
0.000235368
0.000235394
0.000235412
0.000235423
0.00023542
0.000235416
0.000235461
0.000235502
0.000235468
0.000235464
0.000235483
0.000235479
0.00023552
0.000235494
0.000235539
0.000235528
0.000235498
0.000243239
0.000243302
0.000243269
0.000243302
0.000243321
0.000243362
0.000243369
0.000243369
0.000243414
0.000243351
0.000243448
0.000243403
0.000243369
0.000243407
0.000243433
0.000243463
0.000243414
0.00024344
0.000243504
0.000243459
0.000243556
0.000243511
0.000243496
0.000243567
0.000243556
0.000243593
0.000243634
0.000243578
0.000243578
0.000243586
0.000243645
0.000243627
0.000243656
0.000243649
0.000243757
0.000243686
0.000243723
0.000243708
0.000243694
0.000243731
0.000243742
0.000243794
0.000243802
0.000243787
0.000243813
0.000243835
0.000243846
0.000243846
0.000243828
0.000243846
0.00024391
0.000243824
0.00024382
0.000243824
0.000243869
0.000243869
0.000243921
0.00024398
0.000243951
0.000243913
0.000243995
0.000243939
0.000243936
0.000243969
0.000243951
0.000243958
0.000244055
0.000244047
0.000244059
0.000243999
0.000244059
0.000244059
0.000244077
0.000244025
0.000244085
0.000244092
0.0002441
0.000244115
0.000244066
0.000244107
0.0002441
0.0002441
0.000244167
0.000244163
0.000244163
0.000244215
0.000244167
0.000244144
0.000244182
0.000244204
0.000244204
0.000244211
0.000244211
0.000244211
0.000244241
0.000244174
0.000244174
0.000244182
0.000244226
0.000244234
0.000244249
0.000249561
0.000249509
0.000249509
0.000249486
0.000249501
0.000249542
0.000249505
0.000249542
0.000249598
0.000249606
0.000249639
0.000249643
0.000249654
0.00024965
0.000249647
0.000249665
0.000249695
0.000249717
0.000249662
0.000249699
0.000249706
0.000249691
0.000249691
0.000249699
0.000249729
0.000249751
0.000249699
0.000249743
0.000249777
0.000249844
0.000249799
0.000249781
0.000249844
0.000249848
0.000249837
0.000249814
0.000249837
0.000249874
0.000249825
0.000249892
0.000249926
0.000249904
0.000249926
0.000249937
0.000249911
0.00024993
0.000249974
0.00024996
0.000249971
0.000249997
0.000249989
0.000249997
0.000250001
0.000250001
0.000250049
0.00025003
0.000250015
0.000250027
0.000250064
0.000250015
0.00025006
0.000250094
0.000250075
0.00025006
0.000250079
0.000250097
0.000250086
0.000250068
0.000250068
0.000250101
0.000250183
0.000250142
0.000250086
0.00025015
0.000250138
0.000250109
0.000250112
0.000250157
0.000250142
0.000250127
0.000250183
0.000250213
0.000250168
0.000250153
0.000250224
0.000250209
0.000250194
0.000250243
0.000250284
0.000250202
0.000250228
0.000250317
0.000250228
0.000250205
0.000250265
0.000250295
0.00025028
0.000250321
0.000250291
0.000250325
0.000250269
0.000253253
0.000253271
0.000253331
0.000253342
0.000253316
0.000253323
0.000253316
0.000253312
0.000253305
0.000253376
0.000253376
0.000253387
0.000253383
0.000253398
0.000253402
0.000253435
0.000253495
0.000253439
0.000253469
0.000253458
0.000253454
0.000253495
0.000253495
0.000253465
0.00025348
0.000253547
0.000253502
0.000253517
0.00025354
0.000253562
0.000253562
0.000253566
0.000253592
0.00025361
0.000253595
0.000253614
0.000253651
0.000253625
0.000253599
0.000253618
0.000253644
0.000253625
0.000253629
0.000253681
0.000253644
0.000253659
0.000253662
0.000253662
0.000253636
0.000253715
0.000253681
0.000253681
0.000253722
0.000253711
0.000253789
0.000253759
0.000253864
0.000253752
0.000253703
0.000253741
0.000253789
0.000253778
0.000253756
0.000253785
0.00025383
0.000253793
0.000253808
0.000253785
0.000253826
0.000253834
0.000253819
0.000253808
0.000253834
0.000253811
0.000253785
0.000253819
0.000253815
0.000253819
0.000253875
0.00025386
0.000253804
0.000253834
0.000253856
0.000253856
0.000253867
0.00025389
0.000253867
0.000253905
0.00025392
0.000253968
0.000253934
0.000253975
0.000254001
0.000253979
0.000253882
0.00025392
0.000253912
0.000253946
0.000253968
0.000253912
0.00025392
0.000255037
0.000255104
0.000255067
0.000255086
0.000255074
0.00025513
0.000255127
0.000255127
0.000255086
0.000255138
0.000255197
0.000255141
0.000255223
0.000255171
0.000255141
0.000255208
0.000255201
0.000255287
0.000255231
0.000255223
0.000255264
0.000255231
0.000255276
0.00025532
0.000255283
0.000255339
0.000255283
0.000255276
0.000255324
0.000255302
0.000255276
0.000255339
0.00025541
0.000255376
0.000255432
0.000255313
0.00025535
0.00025535
0.000255391
0.000255417
0.000255376
0.00025541
0.000255395
0.000255439
0.000255387
0.000255369
0.000255454
0.000255425
0.000255417
0.000255447
0.000255439
0.000255447
0.000255425
0.000255454
0.000255458
0.000255458
0.000255369
0.000255417
0.000255466
0.000255499
0.000255417
0.000255458
0.000255525
0.000255469
0.000255547
0.000255492
0.000255559
0.000255566
0.000255559
0.000255488
0.000255566
0.000255566
0.000255514
0.000255488
0.000255525
0.000255525
0.000255529
0.000255559
0.000255551
0.000255574
0.000255562
0.000255574
0.000255581
0.000255555
0.00025554
0.000255555
0.000255514
0.000255566
0.000255562
0.000255566
0.000255574
0.000255618
0.000255603
0.000255562
0.000255551
0.000255644
0.000255603
0.000255615
0.000255592
0.000255607
0.000255618
0.000254951
0.000255033
0.000255037
0.000255093
0.000255089
0.000255112
0.000255123
0.000255123
0.000255052
0.000255145
0.000255078
0.000255082
0.000255115
0.000255089
0.000255104
0.000255153
0.000255145
0.000255149
0.000255164
0.000255149
0.00025522
0.000255127
0.000255179
0.000255186
0.000255197
0.000255194
0.000255212
0.000255242
0.000255257
0.000255201
0.000255216
0.000255272
0.000255223
0.000255268
0.000255253
0.000255261
0.00025529
0.000255283
0.000255287
0.000255294
0.000255305
0.000255246
0.000255309
0.000255324
0.000255261
0.000255276
0.000255294
0.000255276
0.000255279
0.00025535
0.00025535
0.00025535
0.000255387
0.000255335
0.000255369
0.000255357
0.000255328
0.000255413
0.000255357
0.000255276
0.000255339
0.000255365
0.00025538
0.000255466
0.00025541
0.000255436
0.000255451
0.000255436
0.000255451
0.000255451
0.000255462
0.000255469
0.000255454
0.000255428
0.000255439
0.000255458
0.000255398
0.000255469
0.000255529
0.000255484
0.000255473
0.000255454
0.000255529
0.000255469
0.000255506
0.000255432
0.00025551
0.000255499
0.000255488
0.000255473
0.000255469
0.000255447
0.00025548
0.000255484
0.000255495
0.000255492
0.00025548
0.000255395
0.000255477
0.000255477
0.000255454
0.000253476
0.000253454
0.000253506
0.000253499
0.000253495
0.000253543
0.000253502
0.000253551
0.000253532
0.00025354
0.00025354
0.000253551
0.000253566
0.000253562
0.000253566
0.000253562
0.000253569
0.000253562
0.000253584
0.000253554
0.000253607
0.000253618
0.000253588
0.000253599
0.000253502
0.000253603
0.000253625
0.000253644
0.000253659
0.000253633
0.000253666
0.00025367
0.000253677
0.000253614
0.000253651
0.00025367
0.000253674
0.00025373
0.000253689
0.000253715
0.000253689
0.000253685
0.000253715
0.000253759
0.000253703
0.000253703
0.00025367
0.000253722
0.000253666
0.000253767
0.00025373
0.000253711
0.000253748
0.000253744
0.000253752
0.0002537
0.000253741
0.000253707
0.000253748
0.000253748
0.000253722
0.000253797
0.000253793
0.00025373
0.0002538
0.000253771
0.000253748
0.000253778
0.00025373
0.0002538
0.000253789
0.000253741
0.000253767
0.000253726
0.000253744
0.000253778
0.000253785
0.000253737
0.000253759
0.000253752
0.000253726
0.000253744
0.000253804
0.000253737
0.000253748
0.000253752
0.000253771
0.000253778
0.000253759
0.000253767
0.000253778
0.000253789
0.000253793
0.000253756
0.000253778
0.000253804
0.000253748
0.000253804
0.000253763
0.000253744
0.000253774
0.000250485
0.000250489
0.000250567
0.000250567
0.000250574
0.000250604
0.000250638
0.000250585
0.000250656
0.000250597
0.000250608
0.000250619
0.000250634
0.000250697
0.000250638
0.000250652
0.000250693
0.000250667
0.000250671
0.000250679
0.000250727
0.000250679
0.000250712
0.000250667
0.000250652
0.000250649
0.000250712
0.000250652
0.00025069
0.000250664
0.000250697
0.000250667
0.000250734
0.000250712
0.000250719
0.000250719
0.000250731
0.000250768
0.000250772
0.000250723
0.000250652
0.000250757
0.000250723
0.000250742
0.000250742
0.000250764
0.000250828
0.000250749
0.000250757
0.000250805
0.000250742
0.000250731
0.000250757
0.000250716
0.000250749
0.000250701
0.000250753
0.000250749
0.00025076
0.000250693
0.000250697
0.000250731
0.000250768
0.000250775
0.000250768
0.000250764
0.000250824
0.000250701
0.000250712
0.000250734
0.000250716
0.000250798
0.000250727
0.000250727
0.000250794
0.000250738
0.000250772
0.000250805
0.000250746
0.000250783
0.000250768
0.000250727
0.000250775
0.000250764
0.000250753
0.000250787
0.000250727
0.000250809
0.000250749
0.000250783
0.000250801
0.000250742
0.000250764
0.000250783
0.000250783
0.000250775
0.000250787
0.000250798
0.000250716
0.000250764
0.000250779
0.000246562
0.000246536
0.000246566
0.000246573
0.000246536
0.000246558
0.000246543
0.000246562
0.000246596
0.000246532
0.000246555
0.00024657
0.000246588
0.000246622
0.000246618
0.000246517
0.000246596
0.000246607
0.000246629
0.000246603
0.000246625
0.000246581
0.00024667
0.000246596
0.000246607
0.000246648
0.000246663
0.000246633
0.00024667
0.000246663
0.000246625
0.000246633
0.000246622
0.000246625
0.000246648
0.000246648
0.000246715
0.000246581
0.000246681
0.000246618
0.000246648
0.000246692
0.000246663
0.000246629
0.000246689
0.000246618
0.000246596
0.000246666
0.000246655
0.000246644
0.000246681
0.0002467
0.000246655
0.000246618
0.000246659
0.000246625
0.000246629
0.000246637
0.000246704
0.000246678
0.000246678
0.0002467
0.000246666
0.000246689
0.000246625
0.000246663
0.000246618
0.000246685
0.000246715
0.000246689
0.000246678
0.000246696
0.000246666
0.000246674
0.000246685
0.000246715
0.0002467
0.000246715
0.000246733
0.00024667
0.000246692
0.000246752
0.000246715
0.000246719
0.000246696
0.000246692
0.000246674
0.000246715
0.000246767
0.000246678
0.00024667
0.000246692
0.000246678
0.000246666
0.00024673
0.00024667
0.0002467
0.000246633
0.000246651
0.000246648
0.000246637
0.0002416
0.000241674
0.000241619
0.000241656
0.000241663
0.000241619
0.000241611
0.000241697
0.000241626
0.000241663
0.000241686
0.000241686
0.000241745
0.000241753
0.00024173
0.000241715
0.000241701
0.00024176
0.000241667
0.000241715
0.000241652
0.000241727
0.00024173
0.000241771
0.000241682
0.000241745
0.000241663
0.000241704
0.000241686
0.000241712
0.000241719
0.000241786
0.00024173
0.000241727
0.000241727
0.000241652
0.000241771
0.00024179
0.000241704
0.000241768
0.000241734
0.000241783
0.000241753
0.000241686
0.000241674
0.000241756
0.000241753
0.000241723
0.000241678
0.000241686
0.000241738
0.000241715
0.000241734
0.000241701
0.000241768
0.000241715
0.000241663
0.00024173
0.000241827
0.000241768
0.000241764
0.000241745
0.000241775
0.000241771
0.000241715
0.000241734
0.000241771
0.000241775
0.000241835
0.000241783
0.000241723
0.000241786
0.000241708
0.000241723
0.000241768
0.000241682
0.000241753
0.000241745
0.000241753
0.000241749
0.000241697
0.000241745
0.000241745
0.000241715
0.000241738
0.000241756
0.000241753
0.000241727
0.000241708
0.000241734
0.000241708
0.000241723
0.000241742
0.000241727
0.000241686
0.000241723
0.000241704
0.000241727
0.000241734
0.000241734
0.000241674
0.000236079
0.000236087
0.00023612
0.000236087
0.000236124
0.000236135
0.000236094
0.000236142
0.000236154
0.000236131
0.000236131
0.000236154
0.000236146
0.000236124
0.000236206
0.000236221
0.000236154
0.000236142
0.000236142
0.000236169
0.00023612
0.000236157
0.000236157
0.000236101
0.00023615
0.000236154
0.000236169
0.000236206
0.000236161
0.000236161
0.000236139
0.000236131
0.000236157
0.000236191
0.000236135
0.000236105
0.000236083
0.000236124
0.000236142
0.000236128
0.000236135
0.000236195
0.000236228
0.000236209
0.000236169
0.000236198
0.000236169
0.000236195
0.00023612
0.000236206
0.000236146
0.000236187
0.000236187
0.000236228
0.000236202
0.000236165
0.000236172
0.00023615
0.000236146
0.000236165
0.000236161
0.000236135
0.000236172
0.000236221
0.000236142
0.000236113
0.000236139
0.00023612
0.000236116
0.000236109
0.000236128
0.000236128
0.000236139
0.00023618
0.000236128
0.00023615
0.000236135
0.000236169
0.000236146
0.000236131
0.000236142
0.000236172
0.000236135
0.000236169
0.000236161
0.000236142
0.000236142
0.00023615
0.000236206
0.000236142
0.00023612
0.00023612
0.000236135
0.00023609
0.000236209
0.000236169
0.00023612
0.000236042
0.000236128
0.000236146
0.000236113
0.000230059
0.00023016
0.000230182
0.000230122
0.000230107
0.000230189
0.000230145
0.000230167
0.000230201
0.000230137
0.000230178
0.000230141
0.00023016
0.000230085
0.000230134
0.00023013
0.000230178
0.000230152
0.000230115
0.000230134
0.000230145
0.000230283
0.000230223
0.000230204
0.000230134
0.000230134
0.000230175
0.000230189
0.000230193
0.000230167
0.000230242
0.000230141
0.000230152
0.000230163
0.000230189
0.000230122
0.000230148
0.000230156
0.000230122
0.00023016
0.000230171
0.000230141
0.000230204
0.000230204
0.000230204
0.000230215
0.000230227
0.000230134
0.000230189
0.00023026
0.000230197
0.000230152
0.000230104
0.000230175
0.000230137
0.000230167
0.000230186
0.000230115
0.000230115
0.000230186
0.000230107
0.0002301
0.000230122
0.000230107
0.000230163
0.000230175
0.000230175
0.000230178
0.000230182
0.000230115
0.00023013
0.000230145
0.000230134
0.000230171
0.000230137
0.000230163
0.000230055
0.000230085
0.00023013
0.00023013
0.000230145
0.000230126
0.000230122
0.000230093
0.000230115
0.000230115
0.0002301
0.000230066
0.000230145
0.000230115
0.000230078
0.000230111
0.000230115
0.00023016
0.000230111
0.00023013
0.000230085
0.000230093
0.00023013
0.000230066
0.000230085
0.000223909
0.000223935
0.000223856
0.000223886
0.000223916
0.000223886
0.000223946
0.000223953
0.000223931
0.000223931
0.00022395
0.000223901
0.000223961
0.000223897
0.000223946
0.000223886
0.000223853
0.00022392
0.000223905
0.000223894
0.00022392
0.000223964
0.000223987
0.000223942
0.00022389
0.00022389
0.000223905
0.000223897
0.000223961
0.000223905
0.000223901
0.000223905
0.000223927
0.000223875
0.000223935
0.000223875
0.000223964
0.000223879
0.000223953
0.000223916
0.000223923
0.000223905
0.000223968
0.000223912
0.000223864
0.000223953
0.000223901
0.000223976
0.00022395
0.000223979
0.000223909
0.000223864
0.000223897
0.000223842
0.000223871
0.000223923
0.000223909
0.000223961
0.000223871
0.000223868
0.000223845
0.000223871
0.000223901
0.000223994
0.000223916
0.000223938
0.000223912
0.000223901
0.000223916
0.000223886
0.000223916
0.00022389
0.000223871
0.000223901
0.000223909
0.000223871
0.000223875
0.000223875
0.000223909
0.000223957
0.000223931
0.000223879
0.00022386
0.000223905
0.000223894
0.000223879
0.000223838
0.000223868
0.00022386
0.000223871
0.000223886
0.00022386
0.000223886
0.000223834
0.000223823
0.000223912
0.000223853
0.000223886
0.000223845
0.000223786
0.000223849
0.000217643
0.000217695
0.000217706
0.000217628
0.000217635
0.000217643
0.000217717
0.000217687
0.000217713
0.000217658
0.000217624
0.000217609
0.00021765
0.000217635
0.000217658
0.000217646
0.000217728
0.000217684
0.00021765
0.000217672
0.000217687
0.000217665
0.000217594
0.000217617
0.00021768
0.000217639
0.000217639
0.000217687
0.000217631
0.000217658
0.000217672
0.000217602
0.000217572
0.00021768
0.00021768
0.000217665
0.000217691
0.00021768
0.000217643
0.000217594
0.000217646
0.000217587
0.00021759
0.000217658
0.000217661
0.000217605
0.000217654
0.000217639
0.00021762
0.000217609
0.000217602
0.000217628
0.000217605
0.000217643
0.000217661
0.000217598
0.000217628
0.00021765
0.000217609
0.000217628
0.000217598
0.000217564
0.000217628
0.000217687
0.000217643
0.000217568
0.000217628
0.000217579
0.000217598
0.000217576
0.000217553
0.00021762
0.000217605
0.000217598
0.000217654
0.000217628
0.000217613
0.000217579
0.000217635
0.000217609
0.000217587
0.000217613
0.00021762
0.000217583
0.000217531
0.000217509
0.000217587
0.000217617
0.000217605
0.000217576
0.000217546
0.000217572
0.000217542
0.000217516
0.000217572
0.000217512
0.000217523
0.000217609
0.000217557
0.000217572
0.000217479
0.000211518
0.000211526
0.000211541
0.000211623
0.000211544
0.00021163
0.000211593
0.000211526
0.000211567
0.000211582
0.000211567
0.000211563
0.00021157
0.000211533
0.000211552
0.000211556
0.000211604
0.000211574
0.0002116
0.000211563
0.000211541
0.000211518
0.000211544
0.000211585
0.000211567
0.000211563
0.000211466
0.000211548
0.0002116
0.000211556
0.000211585
0.000211537
0.000211507
0.000211541
0.000211522
0.000211556
0.000211578
0.000211541
0.000211511
0.000211541
0.000211485
0.000211552
0.000211593
0.000211563
0.000211556
0.000211533
0.000211511
0.000211466
0.000211544
0.000211507
0.000211548
0.000211563
0.000211488
0.000211518
0.000211552
0.000211585
0.000211529
0.000211529
0.000211518
0.000211503
0.000211518
0.000211526
0.000211496
0.000211537
0.000211533
0.000211533
0.000211503
0.000211488
0.000211522
0.000211481
0.000211537
0.000211544
0.000211544
0.000211533
0.000211503
0.000211492
0.000211548
0.000211429
0.000211537
0.000211429
0.000211459
0.00021147
0.000211414
0.000211433
0.000211459
0.000211474
0.000211429
0.000211481
0.000211436
0.000211474
0.000211444
0.000211414
0.000211433
0.000211436
0.000211515
0.000211503
0.000211451
0.000211436
0.000211395
0.000211481
0.000211425
0.000205904
0.000205886
0.000205964
0.000205934
0.000205901
0.000205819
0.000205848
0.000205912
0.000205901
0.000205852
0.000205889
0.000205897
0.000205867
0.000205845
0.000205833
0.000205945
0.000205919
0.000205927
0.000205863
0.000205852
0.000205867
0.000205867
0.000205886
0.000205856
0.000205897
0.000205856
0.000205882
0.000205874
0.000205874
0.000205904
0.000205893
0.000205893
0.000205871
0.000205934
0.000205938
0.000205964
0.000205904
0.000205811
0.000205953
0.000205953
0.000205889
0.00020583
0.000205856
0.000205893
0.000205893
0.000205893
0.000205874
0.000205807
0.000205878
0.000205897
0.000205841
0.000205856
0.000205796
0.000205893
0.000205837
0.000205863
0.000205837
0.000205781
0.000205893
0.000205897
0.000205867
0.000205807
0.000205837
0.000205901
0.000205807
0.000205807
0.000205863
0.000205889
0.000205893
0.000205841
0.000205863
0.000205856
0.000205744
0.000205841
0.000205863
0.000205841
0.000205852
0.000205792
0.000205822
0.000205807
0.000205807
0.000205763
0.000205822
0.000205766
0.000205837
0.000205856
0.000205748
0.000205785
0.000205796
0.000205845
0.000205807
0.000205811
0.00020574
0.000205759
0.000205759
0.000205845
0.000205845
0.000205785
0.000205725
0.000205759
0.000205711
0.000200912
0.000200931
0.000200935
0.000200935
0.000200912
0.000200961
0.000200972
0.000200901
0.000200871
0.000200916
0.000200901
0.000200938
0.000200845
0.000200979
0.000200924
0.000200901
0.000200931
0.000200871
0.000200868
0.000200916
0.000200868
0.000200894
0.000200927
0.000200924
0.000200834
0.000200897
0.000200901
0.000200864
0.000200894
0.00020092
0.000200935
0.000200909
0.000200916
0.00020089
0.000200916
0.000200972
0.000200916
0.000200931
0.000200871
0.000200946
0.00020092
0.00020089
0.000200972
0.000200905
0.000200916
0.000200942
0.000200886
0.000200946
0.000200927
0.000200901
0.000200912
0.000200935
0.000200924
0.000200886
0.000200976
0.000200883
0.000200924
0.000200894
0.000200916
0.000200883
0.000200953
0.00020089
0.000200905
0.000200938
0.000200912
0.00020089
0.000200875
0.000200931
0.000200927
0.000200883
0.000200868
0.000200916
0.000200894
0.000200864
0.00020092
0.000200886
0.000200886
0.000200916
0.000200909
0.000200976
0.000200871
0.000200849
0.000200931
0.000200883
0.000200871
0.000200875
0.000200849
0.000200871
0.000200894
0.000200823
0.00020086
0.000200871
0.000200864
0.000200815
0.00020089
0.000200886
0.000200793
0.000200793
0.00020092
0.000200856
0.000200853
0.000196915
0.000196941
0.000196882
0.000196915
0.000196937
0.000196893
0.000196874
0.000196952
0.000196882
0.000196882
0.000196874
0.000196975
0.000196896
0.0001969
0.000196896
0.000196878
0.000196945
0.000196915
0.00019696
0.000196867
0.000196885
0.000196919
0.000196919
0.000196882
0.000196911
0.00019687
0.000196911
0.000196863
0.000196937
0.00019687
0.000196945
0.000196937
0.000196915
0.000196908
0.000196904
0.000196937
0.000196896
0.000196923
0.000196915
0.000196878
0.000196949
0.000196908
0.000196952
0.000196949
0.000196919
0.000196923
0.000196964
0.000196952
0.000196971
0.000196893
0.00019696
0.000196874
0.00019696
0.00019696
0.000196867
0.00019699
0.000196885
0.000196949
0.000196952
0.000196911
0.000196896
0.00019696
0.0001969
0.000196982
0.000196949
0.000196949
0.000197019
0.000196904
0.000196982
0.000196964
0.000196952
0.00019693
0.000196908
0.0001969
0.00019696
0.000196937
0.000196971
0.000196945
0.000196967
0.000196975
0.000196926
0.000196941
0.000196952
0.000196915
0.000196982
0.000196978
0.000196874
0.000197012
0.000196964
0.000196867
0.000196986
0.000196915
0.000196923
0.000196956
0.000196896
0.000196967
0.000196908
0.000196949
0.00019693
0.000196952
0.000196904
0.000194151
0.000194184
0.000194069
0.000194114
0.000194114
0.000194106
0.000194132
0.000194095
0.000194136
0.000194136
0.000194121
0.000194166
0.00019411
0.000194173
0.000194121
0.000194196
0.000194184
0.000194158
0.00019417
0.000194162
0.000194136
0.000194184
0.000194192
0.000194184
0.000194144
0.000194196
0.000194088
0.000194129
0.000194218
0.000194162
0.000194181
0.000194084
0.000194173
0.000194229
0.000194155
0.000194203
0.000194166
0.000194211
0.000194225
0.000194307
0.000194117
0.000194173
0.000194199
0.000194184
0.000194248
0.000194214
0.000194203
0.000194188
0.000194203
0.000194184
0.000194207
0.000194173
0.00019424
0.000194285
0.00019424
0.00019424
0.000194196
0.000194203
0.000194203
0.000194259
0.000194259
0.000194237
0.000194166
0.000194218
0.000194255
0.000194255
0.000194177
0.000194274
0.000194196
0.000194218
0.000194173
0.000194203
0.00019417
0.000194218
0.000194326
0.000194259
0.000194307
0.000194248
0.000194274
0.00019427
0.000194333
0.00019427
0.000194263
0.000194281
0.000194289
0.00019424
0.000194252
0.000194155
0.000194315
0.000194285
0.000194211
0.000194274
0.000194229
0.000194196
0.000194188
0.000194274
0.000194263
0.000194259
0.000194278
0.000194307
0.00019424
0.000192899
0.000192776
0.000192732
0.000192776
0.000192832
0.000192799
0.000192832
0.000192855
0.000192776
0.000192814
0.000192862
0.000192814
0.000192918
0.000192877
0.000192825
0.000192873
0.000192802
0.000192899
0.000192858
0.000192825
0.000192869
0.000192866
0.000192903
0.00019294
0.000192884
0.000192899
0.000192951
0.000192937
0.000192929
0.000192884
0.000192899
0.000192892
0.000192948
0.000192929
0.000192896
0.000192884
0.00019291
0.000192959
0.00019291
0.000192937
0.000192907
0.00019291
0.000192869
0.000192855
0.000192907
0.000192948
0.000192892
0.00019294
0.000192959
0.000192981
0.000192929
0.000192989
0.000193018
0.000192996
0.000192966
0.000192992
0.000192966
0.000193015
0.000192944
0.00019303
0.000192955
0.000192989
0.000192966
0.000193045
0.000193004
0.000192981
0.000193022
0.000192944
0.000193026
0.000193007
0.000193048
0.000193015
0.000192966
0.000192966
0.000193033
0.000192974
0.00019303
0.000193052
0.000193011
0.000192981
0.000193056
0.000193078
0.000192989
0.000193033
0.000193063
0.000193037
0.000193056
0.000193086
0.000193074
0.000193033
0.000193067
0.000193037
0.000193093
0.00019313
0.000193045
0.000193097
0.000193086
0.000193052
0.000193037
0.000193071
0.000193078
0.000193071
0.000193086
0.000193007
0.000193015
0.000193071
0.000193041
0.000193108
0.000193074
0.000193153
0.000193074
0.000193115
0.000193063
0.000193115
0.000193097
0.000193141
0.00019313
0.000193112
0.000193153
0.000193175
0.000193153
0.000193156
0.000193086
0.000193138
0.00019319
0.000193145
0.000193164
0.000193182
0.000193145
0.00019319
0.000193164
0.000193156
0.00019313
0.000193153
0.000193223
0.000193197
0.000193212
0.000193167
0.00019313
0.000193212
0.000193294
0.000193231
0.000193242
0.000193182
0.000193223
0.000193257
0.000193264
0.00019319
0.000193223
0.000193261
0.000193223
0.000193276
0.000193272
0.000193309
0.000193268
0.000193261
0.000193276
0.000193309
0.000193294
0.000193335
0.000193276
0.000193313
0.000193324
0.000193354
0.000193346
0.000193316
0.000193376
0.000193387
0.000193406
0.000193372
0.000193361
0.000193335
0.000193268
0.000193294
0.000193294
0.000193324
0.000193369
0.000193339
0.000193361
0.00019338
0.000193361
0.000193425
0.000193346
0.000193421
0.000193462
0.000193417
0.000193406
0.000193395
0.000193384
0.000193365
0.000193384
0.000193365
0.000193402
0.000193384
0.000193503
0.00019341
0.000193365
0.000193413
0.000193451
0.000193499
0.000193428
0.000193521
0.000194814
0.0001949
0.000194822
0.000194892
0.000194892
0.000194911
0.000194941
0.000194978
0.00019493
0.0001949
0.000194948
0.000194956
0.000194896
0.000194903
0.000194971
0.000194944
0.000195015
0.000194889
0.000194948
0.000194963
0.000194974
0.000194989
0.000194978
0.000194952
0.000195008
0.000194937
0.000195004
0.000195008
0.000195011
0.000195011
0.000195079
0.000195101
0.00019506
0.000195041
0.000195075
0.000195067
0.000195064
0.000195101
0.000195049
0.000195127
0.000195056
0.000195038
0.000195008
0.000195075
0.000195131
0.000195116
0.000195075
0.000195138
0.000195071
0.000195127
0.000195127
0.00019512
0.000195127
0.000195134
0.000195123
0.00019519
0.000195127
0.000195142
0.000195146
0.000195142
0.000195179
0.000195105
0.000195209
0.000195201
0.000195201
0.000195269
0.000195235
0.000195231
0.000195149
0.000195157
0.000195201
0.000195201
0.000195231
0.000195201
0.000195269
0.000195272
0.000195198
0.000195254
0.000195209
0.000195239
0.00019522
0.000195194
0.000195228
0.000195269
0.000195239
0.000195272
0.000195321
0.000195276
0.000195321
0.000195276
0.000195313
0.000195347
0.000195324
0.000195235
0.000195373
0.000195295
0.000195302
0.000195298
0.000195354
0.000195336
0.000195287
0.000198018
0.000197973
0.000198036
0.000198014
0.000198025
0.000198025
0.000197999
0.000198066
0.000198089
0.000197995
0.000198115
0.000198051
0.000198044
0.000198036
0.000198036
0.000198074
0.0001981
0.00019804
0.000198036
0.000198137
0.000198096
0.000198144
0.000198126
0.000198115
0.000198103
0.000198152
0.000198122
0.000198137
0.000198193
0.000198096
0.000198226
0.000198148
0.000198141
0.000198174
0.000198212
0.000198163
0.000198103
0.000198193
0.000198167
0.000198197
0.000198122
0.000198234
0.000198238
0.000198174
0.000198226
0.0001982
0.000198234
0.000198167
0.000198226
0.00019823
0.00019823
0.00019823
0.000198286
0.000198301
0.000198334
0.000198267
0.000198234
0.000198282
0.000198323
0.000198308
0.000198282
0.000198342
0.000198279
0.00019829
0.000198323
0.000198327
0.000198282
0.00019839
0.000198312
0.000198301
0.000198308
0.000198349
0.000198331
0.000198331
0.000198331
0.000198331
0.000198372
0.000198312
0.000198338
0.000198323
0.000198383
0.00019839
0.000198439
0.000198409
0.00019845
0.000198372
0.000198361
0.000198383
0.000198402
0.000198398
0.000198342
0.000198361
0.000198457
0.000198457
0.000198413
0.000198413
0.000198487
0.000198454
0.000198405
0.000198442
0.000198532
0.000201952
0.000201967
0.000201937
0.000201941
0.000202004
0.000201937
0.000201967