/*--------------------------------*- C++ -*----------------------------------*\
| =========                 |                                                 |
| \\      /  F ield         | OpenFOAM: The Open Source CFD Toolbox           |
|  \\    /   O peration     | Version:  v2006                                 |
|   \\  /    A nd           | Website:  www.openfoam.com                      |
|    \\/     M anipulation  |                                                 |
\*---------------------------------------------------------------------------*/
FoamFile
{
    version     2.0;
    format      ascii;
    class       volScalarField;
    location    "5.2";
    object      p;
}
// * * * * * * * * * * * * * * * * * * * * * * * * * * * * * * * * * * * * * //

dimensions      [1 -1 -2 0 0 0 0];


internalField   nonuniform List<scalar> 
150000
(
23467.4
23467.2
23467
23466.6
23466
23465.4
23464.5
23463.4
23462.2
23460.8
23459.2
23457.4
23455.3
23453
23450.5
23447.6
23444.6
23441.2
23437.5
23433.5
23429.1
23424.4
23419.3
23413.8
23407.9
23401.6
23394.8
23387.6
23379.8
23371.6
23362.8
23353.5
23343.6
23333.1
23322.1
23310.4
23298.1
23285.1
23271.6
23257.3
23242.5
23226.9
23210.6
23193.6
23175.9
23157.4
23138.1
23118
23097
23075.2
23052.6
23029.2
23005.2
22980.5
22955.1
22929
22902.3
22874.8
22846.7
22817.7
22788.1
22757.7
22726.5
22694.6
22662
22628.7
22594.7
22560
22524.6
22488.6
22452
22414.7
22376.9
22338.4
22299.4
22259.9
22219.8
22179.3
22138.2
22096.7
22054.7
22012.3
21969.4
21926.2
21882.6
21838.7
21794.4
21749.8
21704.9
21659.8
21614.4
21568.8
21523
21477
21430.8
21384.5
21338.1
21291.6
21245
21198.3
21151.6
21104.9
21058.3
21011.6
20965
20918.4
20872
20825.7
20779.5
20733.6
20687.9
20642.6
20597.4
20552.6
20507.9
20463.6
20419.5
20375.8
20332.5
20289.5
20247.1
20205.1
20163.7
20122.9
20082.7
20043.2
20004.2
19966
19928.5
19891.7
19855.7
19820.4
19786
19752.5
19719.8
19688
19657.2
19627.3
19598.5
19570.6
19543.7
19517.9
19493.2
19469.6
19447.1
19425.7
19405.5
19386.5
19368.6
19351.9
19336.5
19322.3
19309.3
19297.6
19287.1
19277.9
19270
19263.3
19258
19253.9
19251.1
19249.6
19249.4
19250.5
19252.8
19256.4
19261.3
19267.5
19274.9
19283.6
19293.5
19304.6
19317
19330.5
19345.3
19361.2
19378.2
19396.4
19415.8
19436.2
19457.7
19480.2
19503.8
19528.4
19554
19580.5
19608
19636.4
19665.7
19695.8
19726.8
19758.5
19791.1
19824.4
19858.4
19893
19928.4
19964.3
20000.9
20038
20075.6
20113.8
20152.4
20191.4
20230.8
20270.6
20310.8
20351.2
20391.9
20432.8
20474
20515.3
20556.7
20598.3
20639.9
20681.5
20723.2
20764.8
20806.4
20847.9
20889.3
20930.5
20971.6
21012.5
21053.1
21093.4
21133.5
21173.2
21212.6
21251.6
21290.3
21328.5
21366.2
21403.5
21440.2
21476.5
21512.2
21547.3
21581.9
21615.8
21649.1
21681.7
21713.6
21744.9
21775.6
21805.5
21834.6
21863.1
21890.7
21917.6
21943.7
21969
21993.5
22017.1
22040
22062
22083.1
22103.5
22122.9
22141.5
22159.3
22176.2
22192.2
22207.4
22221.7
22235.1
22247.7
22259.5
22270.4
22280.5
22289.8
22298.3
22305.9
22312.6
22318.6
22323.7
22327.9
22331.3
22334
22336
22337.3
22337.9
22337.8
22337
22335.5
22333.4
22330.5
22327.1
22323
22318.4
22313.1
22307.2
22300.9
22293.9
22286.5
22278.5
22270
22261.1
22251.7
22241.9
22231.6
22220.9
22209.8
22198.3
22186.5
22174.3
22161.7
22148.8
22135.6
22122
22108.1
22094
22079.5
22064.8
22049.8
22034.5
22018.9
22003.1
21987
21970.6
21954
21937.2
21920.1
21902.7
21885.1
21867.2
21849
21830.6
21811.9
21793
21773.7
21754.2
21734.4
21714.3
21693.9
21673.2
21652.2
21630.8
21609.1
21587.1
21564.7
21542
21518.9
21495.5
21471.6
21447.4
21422.8
21397.8
21372.4
21346.5
21320.2
21293.5
21266.4
21238.8
21210.8
21182.3
21153.3
21123.9
21094
21063.7
21032.9
21001.6
20969.9
20937.8
20905.1
20872.1
20838.5
20804.5
20770
20735.1
20699.8
20664
20627.8
20591.1
20554
20516.5
20478.6
20440.3
20401.6
20362.5
20323.1
20283.3
20243.2
20202.7
20161.9
20120.8
20079.4
20037.7
19995.8
19953.6
19911.2
19868.5
19825.7
19782.6
19739.4
19696
19652.4
19608.8
19565
19521.1
19477.2
19433.2
19389.2
19345.1
19301
19256.9
19212.9
19168.9
19125
19081.1
19037.3
18993.7
18950.1
18906.8
18863.5
18820.5
18777.6
18734.9
18692.5
18650.3
18608.3
18566.6
18525.2
18484
18443.2
18402.7
18362.5
18322.7
18283.2
18244
18205.3
18166.9
18128.9
18091.4
18054.2
18017.5
17981.2
17945.4
17910
17875.1
17840.7
17806.7
17773.3
17740.3
17707.8
17675.8
17644.4
17613.5
17583.1
17553.2
17523.9
17495.1
17466.9
17439.2
17412.1
17385.6
17359.6
17334.2
17309.3
17285.1
17261.4
17238.4
17215.9
17194
17172.7
17152
17131.9
17112.4
17093.5
17075.2
17057.6
17040.5
17024.1
17008.2
16993
16978.4
16964.4
16951.1
16938.3
16926.2
16914.6
16903.7
16893.4
16883.7
16874.6
16866.1
16858.3
16851
16844.3
16838.2
16832.6
16827.7
16823.3
16819.5
16816.3
16813.6
16811.5
16810
16808.7
16808
23140.5
23140.3
23140
23139.7
23139.1
23138.4
23137.6
23136.6
23135.3
23133.9
23132.3
23130.5
23128.4
23126.2
23123.6
23120.8
23117.8
23114.4
23110.7
23106.7
23102.4
23097.7
23092.6
23087.1
23081.2
23074.9
23068.1
23060.9
23053.2
23044.9
23036.2
23026.9
23017
23006.5
22995.5
22983.8
22971.5
22958.6
22945
22930.8
22915.9
22900.3
22884
22867
22849.3
22830.8
22811.5
22791.4
22770.5
22748.7
22726.2
22702.9
22678.9
22654.2
22628.8
22602.8
22575.9
22548.4
22520.2
22491.2
22461.5
22431
22399.8
22367.9
22335.3
22301.9
22267.9
22233.2
22197.8
22161.8
22125.2
22087.9
22050
22011.6
21972.6
21933.1
21893
21852.4
21811.3
21769.8
21727.8
21685.3
21642.5
21599.3
21555.7
21511.7
21467.4
21422.8
21378
21332.8
21287.4
21241.8
21195.9
21149.9
21103.8
21057.4
21011
20964.5
20917.8
20871.2
20824.5
20777.8
20731.1
20684.4
20637.8
20591.3
20544.8
20498.5
20452.4
20406.4
20360.6
20314.9
20269.5
20224.4
20179.5
20135
20090.9
20047.2
20004
19961.2
19918.9
19877.1
19835.8
19795.1
19755
19715.4
19676.5
19638.3
19600.8
19564
19528
19492.8
19458.4
19424.8
19392.1
19360.4
19329.5
19299.6
19270.7
19242.8
19216
19190.2
19165.4
19141.8
19119.3
19097.9
19077.6
19058.6
19040.7
19024
19008.6
18994.4
18981.4
18969.6
18959.2
18950
18942
18935.4
18930
18925.9
18923.1
18921.6
18921.4
18922.5
18924.8
18928.5
18933.4
18939.5
18947
18955.6
18965.6
18976.7
18989.1
19002.6
19017.4
19033.3
19050.4
19068.6
19087.9
19108.3
19129.8
19152.4
19176
19200.6
19226.2
19252.8
19280.3
19308.7
19338
19368.1
19399.1
19430.9
19463.5
19496.8
19530.8
19565.5
19600.9
19636.9
19673.5
19710.6
19748.3
19786.4
19825.1
19864.1
19903.6
19943.4
19983.6
20024
20064.8
20105.7
20146.9
20188.2
20229.7
20271.2
20312.9
20354.6
20396.2
20437.9
20479.5
20521
20562.4
20603.7
20644.8
20685.7
20726.3
20766.7
20806.7
20846.5
20885.9
20924.9
20963.6
21001.8
21039.6
21076.8
21113.6
21149.9
21185.6
21220.8
21255.3
21289.3
21322.6
21355.3
21387.5
21418.8
21449.3
21479.2
21508.3
21536.8
21564.4
21591.3
21617.4
21642.7
21667.2
21690.8
21713.7
21735.7
21756.8
21777.1
21796.6
21815.2
21833
21849.8
21865.9
21881.1
21895.4
21908.8
21921.4
21933.2
21944.2
21954.3
21963.5
21971.8
21979.3
21985.9
21991.6
21996.6
22000.9
22004.5
22007.4
22009.4
22010.8
22011.4
22011.3
22010.5
22009
22006.8
22004
22000.5
21996.4
21991.7
21986.5
21980.6
21974.2
21967.3
21959.8
21951.8
21943.3
21934.4
21925
21915.1
21904.8
21894.1
21883
21871.6
21859.7
21847.5
21834.9
21822
21808.8
21795.2
21781.3
21767.2
21752.7
21737.9
21722.9
21707.6
21692.1
21676.2
21660.1
21643.8
21627.2
21610.3
21593.2
21575.8
21558.2
21540.3
21522.2
21503.8
21485.1
21466.1
21446.9
21427.4
21407.6
21387.5
21367.1
21346.4
21325.4
21304
21282.4
21260.4
21238
21215.3
21192.2
21168.7
21144.9
21120.7
21096.1
21071.1
21045.6
21019.8
20993.5
20966.8
20939.7
20912.1
20884.1
20855.6
20826.6
20797.2
20767.3
20737
20706.2
20674.9
20643.2
20611.1
20578.4
20545.4
20511.8
20477.8
20443.3
20408.4
20373.1
20337.3
20301
20264.4
20227.3
20189.8
20151.9
20113.6
20074.9
20035.8
19996.3
19956.5
19916.4
19875.9
19835.1
19794
19752.6
19710.9
19669
19626.8
19584.3
19541.7
19498.8
19455.7
19412.5
19369.1
19325.5
19281.9
19238.1
19194.2
19150.2
19106.2
19062.2
19018.1
18974
18929.9
18885.9
18841.9
18797.9
18754
18710.3
18666.6
18623
18579.6
18536.4
18493.3
18450.4
18407.8
18365.3
18323.1
18281.1
18239.4
18198
18156.8
18116
18075.4
18035.3
17995.4
17955.9
17916.8
17878
17839.6
17801.6
17764.1
17726.9
17690.2
17653.9
17618.1
17582.7
17547.8
17513.3
17479.4
17445.9
17412.9
17380.4
17348.4
17317
17286.1
17255.7
17225.8
17196.5
17167.7
17139.4
17111.8
17084.7
17058.1
17032.1
17006.7
16981.9
16957.6
16934
16910.9
16888.4
16866.5
16845.2
16824.5
16804.4
16784.9
16766
16747.7
16730
16713
16696.5
16680.7
16665.5
16650.9
16636.9
16623.5
16610.8
16598.6
16587.1
16576.2
16565.9
16556.2
16547.1
16538.6
16530.7
16523.4
16516.7
16510.6
16505.1
16500.1
16495.8
16492
16488.8
16486.1
16484
16482.5
16481.2
16480.5
22813
22812.8
22812.6
22812.3
22811.8
22811.1
22810.2
22809.2
22808
22806.6
22805
22803.2
22801.2
22798.9
22796.4
22793.6
22790.6
22787.2
22783.6
22779.6
22775.3
22770.6
22765.5
22760.1
22754.2
22747.9
22741.1
22733.9
22726.2
22718
22709.2
22699.9
22690.1
22679.7
22668.6
22657
22644.7
22631.8
22618.2
22604
22589.1
22573.6
22557.3
22540.2
22522.5
22504
22484.7
22464.6
22443.7
22422
22399.5
22376.3
22352.4
22327.7
22302.3
22276.2
22249.4
22221.8
22193.5
22164.5
22134.8
22104.3
22073.1
22041.2
22008.6
21975.2
21941.2
21906.5
21871.1
21835.1
21798.5
21761.2
21723.3
21684.9
21645.9
21606.3
21566.3
21525.7
21484.6
21443
21401
21358.6
21315.7
21272.5
21228.8
21184.9
21140.6
21096
21051.1
21005.9
20960.5
20914.8
20869
20822.9
20776.7
20730.4
20684
20637.4
20590.8
20544.1
20497.4
20450.6
20403.9
20357.2
20310.6
20264
20217.5
20171.2
20125.1
20079.1
20033.4
19987.9
19942.6
19897.5
19852.7
19808.3
19764.1
19720.3
19677
19634
19591.6
19549.6
19508.2
19467.4
19427.2
19387.6
19348.6
19310.4
19272.8
19236
19199.9
19164.6
19130.2
19096.6
19063.9
19032.1
19001.2
18971.3
18942.3
18914.4
18887.5
18861.7
18836.9
18813.2
18790.7
18769.3
18749
18729.9
18712
18695.3
18679.9
18665.6
18652.6
18640.9
18630.4
18621.2
18613.2
18606.6
18601.2
18597.1
18594.3
18592.8
18592.6
18593.6
18596
18599.6
18604.5
18610.7
18618.1
18626.8
18636.8
18647.9
18660.3
18673.9
18688.6
18704.6
18721.7
18739.9
18759.2
18779.7
18801.2
18823.8
18847.4
18872.1
18897.7
18924.3
18951.9
18980.3
19009.7
19039.9
19070.9
19102.7
19135.3
19168.7
19202.7
19237.5
19272.9
19308.9
19345.6
19382.8
19420.5
19458.7
19497.4
19536.5
19576
19615.9
19656.1
19696.6
19737.3
19778.3
19819.6
19860.9
19902.4
19944.1
19985.7
20027.5
20069.2
20110.9
20152.6
20194.1
20235.6
20276.9
20318
20358.9
20399.6
20440
20480.1
20519.9
20559.4
20598.4
20637.1
20675.4
20713.2
20750.5
20787.3
20823.6
20859.3
20894.5
20929.1
20963.1
20996.4
21029.1
21061.1
21092.4
21122.9
21152.9
21182.2
21210.7
21238.3
21265.2
21291.4
21316.7
21341.2
21364.9
21387.7
21409.7
21430.9
21451.2
21470.7
21489.3
21507
21523.9
21539.8
21555.1
21569.4
21582.9
21595.6
21607.3
21618.3
21628.4
21637.6
21646
21653.5
21660.2
21666.1
21671.1
21675.4
21678.9
21681.6
21683.6
21684.9
21685.4
21685.3
21684.4
21682.9
21680.7
21677.9
21674.4
21670.3
21665.6
21660.3
21654.4
21647.9
21641
21633.5
21625.5
21617
21608
21598.6
21588.7
21578.4
21567.7
21556.6
21545.1
21533.2
21520.9
21508.3
21495.4
21482.2
21468.6
21454.7
21440.5
21426.1
21411.3
21396.3
21381
21365.4
21349.6
21333.5
21317.1
21300.5
21283.6
21266.5
21249.2
21231.5
21213.7
21195.5
21177.1
21158.4
21139.5
21120.3
21100.8
21081
21060.9
21040.5
21019.8
20998.8
20977.5
20955.8
20933.8
20911.4
20888.7
20865.7
20842.2
20818.4
20794.2
20769.6
20744.6
20719.2
20693.3
20667.1
20640.4
20613.3
20585.7
20557.7
20529.2
20500.3
20470.9
20441
20410.7
20379.9
20348.6
20316.9
20284.7
20252.1
20219
20185.4
20151.4
20117
20082
20046.7
20010.9
19974.6
19937.9
19900.8
19863.3
19825.4
19787.1
19748.4
19709.3
19669.8
19630
19589.8
19549.3
19508.5
19467.4
19426
19384.3
19342.3
19300.1
19257.6
19214.9
19172
19129
19085.7
19042.3
18998.7
18955
18911.2
18867.3
18823.3
18779.3
18735.2
18691.1
18647
18602.9
18558.8
18514.8
18470.8
18426.9
18383.1
18339.4
18295.8
18252.4
18209.1
18166
18123.1
18080.4
18038
17995.7
17953.7
17912
17870.5
17829.4
17788.5
17748
17707.7
17667.9
17628.4
17589.2
17550.4
17512
17474
17436.4
17399.3
17362.5
17326.2
17290.4
17255
17220.1
17185.6
17151.6
17118.1
17085.1
17052.6
17020.6
16989.2
16958.2
16927.8
16897.9
16868.6
16839.8
16811.6
16783.9
16756.8
16730.2
16704.2
16678.8
16654
16629.7
16606
16582.9
16560.4
16538.5
16517.2
16496.5
16476.4
16456.9
16438
16419.7
16402.1
16385
16368.5
16352.7
16337.5
16322.9
16308.9
16295.5
16282.7
16270.6
16259.1
16248.2
16237.8
16228.2
16219.1
16210.6
16202.7
16195.4
16188.7
16182.6
16177.1
16172.1
16167.8
16164
16160.8
16158.1
16156
16154.5
16153.2
16152.5
22485.2
22485.1
22484.9
22484.5
22484
22483.4
22482.5
22481.5
22480.3
22479
22477.4
22475.6
22473.6
22471.4
22468.9
22466.2
22463.2
22459.9
22456.2
22452.3
22448
22443.4
22438.4
22433
22427.2
22420.9
22414.2
22407
22399.3
22391.2
22382.5
22373.2
22363.4
22353
22342
22330.4
22318.2
22305.3
22291.8
22277.6
22262.7
22247.1
22230.9
22213.9
22196.1
22177.6
22158.3
22138.3
22117.4
22095.8
22073.4
22050.2
22026.3
22001.7
21976.3
21950.2
21923.4
21895.8
21867.5
21838.5
21808.7
21778.2
21747
21715.1
21682.4
21649.1
21615.1
21580.3
21545
21508.9
21472.3
21435
21397.1
21358.6
21319.6
21280
21239.9
21199.3
21158.2
21116.6
21074.6
21032.1
20989.2
20945.9
20902.3
20858.3
20813.9
20769.3
20724.4
20679.2
20633.7
20588
20542.1
20496.1
20449.8
20403.4
20356.9
20310.3
20263.7
20216.9
20170.2
20123.4
20076.6
20029.9
19983.2
19936.6
19890.1
19843.7
19797.4
19751.4
19705.5
19659.8
19614.4
19569.2
19524.4
19479.9
19435.7
19392
19348.6
19305.8
19263.3
19221.4
19180
19139.1
19098.9
19059.2
19020.2
18981.9
18944.2
18907.4
18871.2
18835.9
18801.4
18767.8
18735
18703.1
18672.2
18642.2
18613.2
18585.3
18558.3
18532.4
18507.6
18483.9
18461.3
18439.9
18419.6
18400.4
18382.5
18365.8
18350.3
18336
18323
18311.2
18300.7
18291.4
18283.5
18276.8
18271.4
18267.3
18264.5
18263
18262.8
18263.8
18266.2
18269.8
18274.7
18280.9
18288.4
18297.1
18307
18318.2
18330.6
18344.2
18359
18375
18392.1
18410.3
18429.7
18450.2
18471.8
18494.4
18518.1
18542.8
18568.5
18595.1
18622.7
18651.2
18680.6
18710.9
18742
18773.9
18806.5
18840
18874.1
18908.9
18944.4
18980.5
19017.2
19054.5
19092.2
19130.5
19169.3
19208.5
19248.1
19288
19328.3
19368.9
19409.7
19450.8
19492.1
19533.5
19575.1
19616.8
19658.6
19700.4
19742.2
19783.9
19825.7
19867.3
19908.8
19950.2
19991.4
20032.4
20073.1
20113.6
20153.8
20193.6
20233.2
20272.3
20311
20349.3
20387.2
20424.5
20461.4
20497.8
20533.6
20568.8
20603.4
20637.5
20670.8
20703.6
20735.6
20767
20797.9
20827.8
20857
20885.4
20913.1
20940
20966.1
20991.5
21016
21039.7
21062.5
21084.6
21105.8
21126.1
21145.6
21164.2
21182.1
21199
21215
21230.1
21244.4
21257.8
21270.4
21282.2
21293
21303.1
21312.2
21320.5
21328
21334.7
21340.5
21345.5
21349.8
21353.3
21356.1
21358.1
21359.3
21359.9
21359.7
21358.8
21357.3
21355
21352.2
21348.6
21344.5
21339.7
21334.4
21328.5
21322
21315
21307.5
21299.5
21290.9
21281.9
21272.5
21262.6
21252.2
21241.5
21230.3
21218.8
21206.9
21194.6
21182
21169.1
21155.8
21142.2
21128.3
21114.1
21099.6
21084.8
21069.8
21054.5
21038.9
21023.1
21007
20990.6
20974
20957.1
20940
20922.7
20905
20887.2
20869
20850.6
20832
20813
20793.8
20774.3
20754.5
20734.5
20714.1
20693.4
20672.4
20651.1
20629.5
20607.5
20585.1
20562.4
20539.4
20516
20492.2
20468
20443.4
20418.4
20393
20367.2
20340.9
20314.2
20287.1
20259.5
20231.5
20203
20174.1
20144.7
20114.9
20084.5
20053.8
20022.5
19990.8
19958.6
19926
19892.9
19859.4
19825.3
19790.9
19755.9
19720.6
19684.7
19648.5
19611.8
19574.7
19537.1
19499.2
19460.9
19422.1
19383
19343.5
19303.7
19263.5
19223
19182.2
19141
19099.6
19057.8
19015.8
18973.6
18931.1
18888.3
18845.4
18802.3
18759
18715.5
18671.9
18628.2
18584.4
18540.4
18496.4
18452.4
18408.2
18364.1
18319.9
18275.8
18231.7
18187.6
18143.6
18099.7
18055.8
18012.1
17968.5
17925
17881.7
17838.6
17795.7
17753
17710.4
17668.2
17626.1
17584.4
17542.9
17501.7
17460.8
17420.2
17380
17340.1
17300.5
17261.4
17222.5
17184.1
17146.1
17108.5
17071.3
17034.5
16998.2
16962.3
16926.9
16892
16857.5
16823.5
16790
16757
16724.5
16692.5
16661
16630
16599.6
16569.7
16540.3
16511.5
16483.3
16455.6
16428.4
16401.9
16375.9
16350.4
16325.6
16301.3
16277.6
16254.5
16232
16210.1
16188.8
16168.1
16147.9
16128.4
16109.5
16091.2
16073.5
16056.5
16040
16024.2
16008.9
15994.3
15980.3
15966.9
15954.2
15942
15930.5
15919.6
15909.3
15899.6
15890.5
15882
15874.1
15866.9
15860.2
15854.1
15848.5
15843.6
15839.2
15835.5
15832.2
15829.6
15827.5
15826
15824.7
15824
22157.1
22157
22156.8
22156.4
22155.9
22155.3
22154.5
22153.5
22152.4
22151
22149.5
22147.8
22145.8
22143.7
22141.2
22138.5
22135.6
22132.3
22128.8
22124.9
22120.7
22116.1
22111.2
22105.8
22100.1
22093.9
22087.2
22080.1
22072.5
22064.4
22055.7
22046.5
22036.8
22026.4
22015.5
22003.9
21991.7
21978.9
21965.4
21951.3
21936.5
21920.9
21904.7
21887.7
21870
21851.5
21832.2
21812.2
21791.4
21769.8
21747.5
21724.4
21700.5
21675.9
21650.6
21624.5
21597.7
21570.1
21541.8
21512.8
21483
21452.5
21421.2
21389.3
21356.6
21323.2
21289.2
21254.4
21219
21183
21146.3
21109
21071.1
21032.6
20993.5
20953.9
20913.8
20873.1
20832
20790.3
20748.3
20705.8
20662.8
20619.5
20575.8
20531.8
20487.4
20442.7
20397.7
20352.5
20307
20261.3
20215.3
20169.2
20122.9
20076.5
20030
19983.3
19936.6
19889.8
19843
19796.2
19749.4
19702.6
19655.8
19609.2
19562.6
19516.2
19470
19423.9
19377.9
19332.2
19286.8
19241.6
19196.6
19152
19107.8
19063.9
19020.4
18977.4
18934.9
18892.9
18851.4
18810.4
18770.1
18730.4
18691.3
18652.9
18615.2
18578.2
18542
18506.6
18472
18438.3
18405.5
18373.5
18342.5
18312.5
18283.4
18255.4
18228.4
18202.4
18177.6
18153.8
18131.1
18109.6
18089.3
18070.1
18052.1
18035.4
18019.8
18005.5
17992.4
17980.6
17970.1
17960.8
17952.8
17946.1
17940.7
17936.6
17933.8
17932.3
17932.1
17933.1
17935.5
17939.1
17944
17950.2
17957.7
17966.4
17976.4
17987.6
18000
18013.6
18028.5
18044.5
18061.6
18080
18099.4
18119.9
18141.6
18164.3
18188
18212.8
18238.5
18265.2
18292.9
18321.5
18350.9
18381.3
18412.4
18444.4
18477.2
18510.7
18544.9
18579.8
18615.4
18651.6
18688.4
18725.7
18763.6
18802
18840.9
18880.1
18919.8
18959.9
19000.3
19040.9
19081.9
19123.1
19164.5
19206
19247.7
19289.5
19331.3
19373.2
19415.1
19457
19498.8
19540.6
19582.2
19623.6
19664.9
19706
19746.8
19787.4
19827.6
19867.6
19907.1
19946.4
19985.2
20023.5
20061.5
20098.9
20135.8
20172.2
20208.1
20243.4
20278.1
20312.2
20345.6
20378.4
20410.5
20442
20472.7
20502.7
20531.9
20560.4
20588.1
20615.1
20641.3
20666.6
20691.2
20714.9
20737.8
20759.8
20781
20801.4
20820.8
20839.4
20857.2
20874.2
20890.2
20905.4
20919.7
20933.1
20945.7
20957.5
20968.4
20978.4
20987.6
20995.9
21003.4
21010
21015.9
21020.9
21025.1
21028.6
21031.2
21033.2
21034.4
21034.9
21034.6
21033.7
21032.1
21029.8
21026.9
21023.3
21019.1
21014.3
21009
21003
20996.5
20989.4
20981.8
20973.8
20965.2
20956.1
20946.6
20936.7
20926.3
20915.5
20904.3
20892.8
20880.8
20868.5
20855.9
20842.9
20829.6
20816
20802
20787.8
20773.3
20758.5
20743.5
20728.1
20712.6
20696.7
20680.6
20664.2
20647.6
20630.8
20613.7
20596.3
20578.7
20560.8
20542.7
20524.3
20505.6
20486.7
20467.5
20448.1
20428.3
20408.2
20387.9
20367.2
20346.3
20325
20303.3
20281.4
20259.1
20236.4
20213.4
20190
20166.2
20142
20117.4
20092.5
20067.1
20041.3
20015.1
19988.4
19961.3
19933.7
19905.7
19877.3
19848.4
19819
19789.1
19758.8
19728.1
19696.8
19665.1
19632.9
19600.3
19567.2
19533.6
19499.6
19465.1
19430.1
19394.8
19358.9
19322.6
19285.9
19248.8
19211.2
19173.3
19134.9
19096.2
19057
19017.5
18977.6
18937.4
18896.9
18856
18814.8
18773.3
18731.5
18689.5
18647.2
18604.7
18561.9
18518.9
18475.8
18432.4
18388.9
18345.3
18301.5
18257.6
18213.6
18169.6
18125.4
18081.3
18037.1
17992.9
17948.7
17904.5
17860.4
17816.4
17772.4
17728.5
17684.7
17641.1
17597.6
17554.2
17511.1
17468.1
17425.3
17382.7
17340.4
17298.4
17256.6
17215
17173.8
17132.9
17092.3
17052
17012
16972.5
16933.2
16894.4
16855.9
16817.9
16780.2
16743
16706.2
16669.9
16634
16598.5
16563.5
16529
16495
16461.5
16428.4
16395.9
16363.9
16332.4
16301.4
16270.9
16241
16211.6
16182.8
16154.5
16126.8
16099.7
16073.1
16047
16021.6
15996.7
15972.4
15948.7
15925.6
15903.1
15881.2
15859.8
15839.1
15819
15799.4
15780.5
15762.2
15744.5
15727.4
15711
15695.1
15679.9
15665.3
15651.3
15637.9
15625.1
15613
15601.4
15590.5
15580.2
15570.5
15561.4
15552.9
15545.1
15537.8
15531.1
15525
15519.5
15514.6
15510.2
15506.4
15503.2
15500.6
15498.5
15497
15495.7
15495
21828.7
21828.5
21828.4
21828
21827.6
21827
21826.2
21825.3
21824.2
21822.9
21821.4
21819.7
21817.8
21815.7
21813.4
21810.7
21807.9
21804.7
21801.2
21797.4
21793.3
21788.8
21783.9
21778.6
21772.9
21766.8
21760.2
21753.2
21745.7
21737.6
21729
21719.9
21710.2
21700
21689.1
21677.6
21665.5
21652.7
21639.3
21625.2
21610.4
21594.9
21578.7
21561.8
21544.1
21525.6
21506.4
21486.5
21465.7
21444.2
21421.9
21398.9
21375.1
21350.5
21325.2
21299.1
21272.3
21244.7
21216.4
21187.3
21157.5
21127
21095.7
21063.8
21031.1
20997.7
20963.6
20928.8
20893.4
20857.3
20820.6
20783.2
20745.3
20706.7
20667.6
20628
20587.8
20547.1
20505.9
20464.2
20422.1
20379.6
20336.6
20293.2
20249.5
20205.4
20160.9
20116.2
20071.2
20025.9
19980.3
19934.5
19888.5
19842.4
19796
19749.5
19702.9
19656.2
19609.4
19562.6
19515.7
19468.8
19421.9
19375.1
19328.2
19281.5
19234.9
19188.3
19142
19095.8
19049.8
19004
18958.4
18913.2
18868.2
18823.5
18779.2
18735.3
18691.8
18648.7
18606.1
18564
18522.4
18481.3
18440.9
18401.1
18361.9
18323.4
18285.6
18248.5
18212.2
18176.7
18142.1
18108.3
18075.3
18043.3
18012.2
17982.1
17952.9
17924.8
17897.7
17871.7
17846.7
17822.9
17800.2
17778.6
17758.2
17739
17720.9
17704.1
17688.5
17674.1
17661
17649.2
17638.6
17629.3
17621.3
17614.6
17609.1
17605
17602.2
17600.6
17600.4
17601.5
17603.8
17607.5
17612.4
17618.6
17626.1
17634.8
17644.8
17656.1
17668.5
17682.2
17697.1
17713.1
17730.4
17748.7
17768.2
17788.8
17810.5
17833.3
17857.1
17881.9
17907.8
17934.6
17962.3
17991
18020.6
18051
18082.3
18114.3
18147.2
18180.8
18215.2
18250.2
18285.9
18322.2
18359.1
18396.6
18434.6
18473.1
18512.1
18551.5
18591.3
18631.5
18672
18712.8
18753.9
18795.2
18836.7
18878.3
18920.2
18962.1
19004
19046.1
19088.1
19130.1
19172
19213.8
19255.6
19297.1
19338.5
19379.7
19420.7
19461.3
19501.7
19541.7
19581.4
19620.7
19659.6
19698.1
19736.1
19773.6
19810.7
19847.1
19883.1
19918.4
19953.2
19987.4
20020.9
20053.7
20085.9
20117.4
20148.2
20178.3
20207.5
20236.1
20263.9
20290.9
20317.1
20342.5
20367.1
20390.8
20413.7
20435.8
20457
20477.4
20496.9
20515.6
20533.3
20550.2
20566.3
20581.4
20595.7
20609.2
20621.7
20633.4
20644.3
20654.2
20663.4
20671.7
20679.1
20685.7
20691.5
20696.5
20700.7
20704.1
20706.8
20708.7
20709.9
20710.3
20710
20709.1
20707.4
20705.1
20702.1
20698.5
20694.2
20689.3
20683.9
20677.9
20671.3
20664.2
20656.5
20648.4
20639.8
20630.7
20621.1
20611.1
20600.7
20589.8
20578.6
20567
20555
20542.7
20530
20516.9
20503.6
20490
20476
20461.8
20447.2
20432.4
20417.3
20402
20386.4
20370.5
20354.4
20338.1
20321.4
20304.6
20287.5
20270.1
20252.5
20234.6
20216.5
20198.1
20179.5
20160.6
20141.4
20122
20102.2
20082.2
20061.9
20041.2
20020.3
19999
19977.4
19955.5
19933.2
19910.6
19887.6
19864.2
19840.4
19816.3
19791.7
19766.8
19741.4
19715.7
19689.4
19662.8
19635.7
19608.2
19580.2
19551.8
19522.8
19493.5
19463.7
19433.4
19402.6
19371.4
19339.7
19307.5
19274.8
19241.7
19208.2
19174.1
19139.6
19104.7
19069.2
19033.4
18997.1
18960.4
18923.2
18885.6
18847.6
18809.2
18770.4
18731.3
18691.7
18651.8
18611.5
18570.9
18530
18488.8
18447.3
18405.4
18363.4
18321
18278.4
18235.6
18192.6
18149.4
18106
18062.4
18018.7
17974.9
17930.9
17886.9
17842.7
17798.6
17754.3
17710.1
17665.8
17621.6
17577.4
17533.2
17489.1
17445
17401.1
17357.3
17313.5
17270
17226.6
17183.3
17140.3
17097.5
17054.9
17012.5
16970.4
16928.5
16887
16845.7
16804.7
16764
16723.7
16683.7
16644.1
16604.8
16565.9
16527.5
16489.4
16451.7
16414.4
16377.6
16341.2
16305.2
16269.8
16234.7
16200.2
16166.1
16132.6
16099.5
16066.9
16034.9
16003.3
15972.3
15941.9
15911.9
15882.5
15853.7
15825.4
15797.6
15770.4
15743.8
15717.8
15692.3
15667.4
15643.1
15619.4
15596.2
15573.7
15551.8
15530.4
15509.7
15489.5
15470
15451
15432.7
15415
15397.9
15381.4
15365.6
15350.3
15335.7
15321.7
15308.3
15295.5
15283.4
15271.8
15260.9
15250.6
15240.9
15231.8
15223.3
15215.5
15208.2
15201.5
15195.4
15189.9
15185
15180.6
15176.9
15173.7
15171
15169
15167.4
15166.2
15165.5
21500.1
21499.9
21499.7
21499.4
21499
21498.4
21497.7
21496.8
21495.7
21494.5
21493.1
21491.5
21489.6
21487.6
21485.3
21482.8
21480
21476.9
21473.5
21469.8
21465.7
21461.3
21456.5
21451.4
21445.8
21439.8
21433.3
21426.3
21418.9
21410.9
21402.4
21393.4
21383.8
21373.6
21362.8
21351.4
21339.4
21326.7
21313.3
21299.3
21284.6
21269.1
21253
21236.1
21218.4
21200.1
21180.9
21161
21140.3
21118.9
21096.6
21073.6
21049.8
21025.3
21000
20973.9
20947.1
20919.6
20891.2
20862.2
20832.4
20801.8
20770.5
20738.5
20705.8
20672.4
20638.2
20603.4
20568
20531.8
20495.1
20457.7
20419.7
20381.1
20342
20302.3
20262
20221.3
20180
20138.3
20096.1
20053.5
20010.5
19967.1
19923.2
19879.1
19834.6
19789.8
19744.7
19699.3
19653.7
19607.9
19561.8
19515.6
19469.2
19422.6
19376
19329.2
19282.3
19235.4
19188.4
19141.5
19094.5
19047.6
19000.7
18953.9
18907.2
18860.6
18814.1
18767.8
18721.7
18675.8
18630.2
18584.8
18539.7
18494.9
18450.5
18406.4
18362.8
18319.6
18276.9
18234.6
18192.9
18151.8
18111.2
18071.3
18032
17993.4
17955.5
17918.3
17881.9
17846.3
17811.5
17777.6
17744.5
17712.4
17681.2
17651
17621.7
17593.5
17566.3
17540.2
17515.1
17491.2
17468.4
17446.7
17426.3
17407
17388.8
17372
17356.3
17341.9
17328.7
17316.8
17306.2
17296.8
17288.8
17282
17276.6
17272.4
17269.6
17268
17267.8
17268.9
17271.2
17274.9
17279.8
17286.1
17293.6
17302.3
17312.4
17323.6
17336.1
17349.9
17364.8
17380.9
17398.2
17416.6
17436.2
17456.9
17478.7
17501.5
17525.4
17550.3
17576.3
17603.2
17631
17659.8
17689.5
17720.1
17751.5
17783.7
17816.7
17850.4
17884.9
17920
17955.9
17992.3
18029.4
18067
18105.2
18143.8
18182.9
18222.5
18262.4
18302.8
18343.4
18384.4
18425.6
18467.1
18508.7
18550.6
18592.5
18634.6
18676.7
18718.9
18761
18803.2
18845.2
18887.2
18929.1
18970.8
19012.3
19053.6
19094.7
19135.5
19176
19216.1
19255.9
19295.4
19334.4
19373
19411.1
19448.7
19485.8
19522.4
19558.4
19593.9
19628.8
19663
19696.6
19729.5
19761.8
19793.3
19824.2
19854.3
19883.7
19912.3
19940.1
19967.2
19993.4
20018.9
20043.5
20067.3
20090.2
20112.3
20133.6
20153.9
20173.5
20192.1
20209.9
20226.8
20242.9
20258
20272.3
20285.7
20298.3
20310
20320.8
20330.8
20339.9
20348.2
20355.6
20362.1
20367.9
20372.8
20377
20380.4
20383
20384.8
20385.9
20386.3
20385.9
20384.9
20383.1
20380.7
20377.7
20374
20369.7
20364.7
20359.2
20353.1
20346.5
20339.3
20331.6
20323.4
20314.7
20305.5
20295.9
20285.8
20275.3
20264.4
20253.1
20241.4
20229.4
20217
20204.3
20191.2
20177.8
20164.1
20150.1
20135.9
20121.3
20106.5
20091.4
20076
20060.4
20044.5
20028.4
20012
19995.4
19978.5
19961.4
19944.1
19926.5
19908.6
19890.5
19872.2
19853.5
19834.7
19815.5
19796.1
19776.4
19756.4
19736.1
19715.5
19694.5
19673.3
19651.7
19629.8
19607.6
19585
19562
19538.7
19515
19490.9
19466.3
19441.4
19416.1
19390.3
19364.2
19337.5
19310.5
19283
19255
19226.6
19197.7
19168.4
19138.5
19108.3
19077.5
19046.3
19014.6
18982.4
18949.7
18916.6
18883
18849
18814.4
18779.5
18744
18708.2
18671.8
18635.1
18597.9
18560.3
18522.2
18483.8
18445
18405.8
18366.2
18326.2
18285.9
18245.3
18204.3
18163
18121.4
18079.5
18037.4
17995
17952.3
17909.4
17866.3
17823.1
17779.6
17736
17692.2
17648.3
17604.3
17560.2
17516
17471.7
17427.4
17383.1
17338.8
17294.4
17250.2
17205.9
17161.7
17117.6
17073.6
17029.7
16985.9
16942.3
16898.8
16855.5
16812.4
16769.5
16726.8
16684.4
16642.2
16600.3
16558.7
16517.3
16476.3
16435.6
16395.2
16355.1
16315.5
16276.1
16237.2
16198.7
16160.5
16122.8
16085.5
16048.6
16012.2
15976.2
15940.7
15905.6
15871
15836.9
15803.3
15770.2
15737.6
15705.5
15673.9
15642.9
15612.4
15582.4
15553
15524.1
15495.7
15468
15440.8
15414.1
15388
15362.6
15337.6
15313.3
15289.6
15266.4
15243.8
15221.9
15200.5
15179.7
15159.6
15140
15121.1
15102.7
15085
15067.9
15051.4
15035.5
15020.2
15005.6
14991.6
14978.2
14965.4
14953.2
14941.7
14930.8
14920.5
14910.8
14901.7
14893.2
14885.4
14878.1
14871.4
14865.3
14859.8
14854.9
14850.6
14846.8
14843.6
14841
14838.9
14837.4
14836.2
14835.5
21171.2
21171
21170.8
21170.5
21170.1
21169.6
21168.9
21168.1
21167.1
21165.9
21164.6
21163
21161.3
21159.3
21157.1
21154.7
21152
21149
21145.7
21142.1
21138.1
21133.8
21129.1
21124.1
21118.6
21112.7
21106.3
21099.4
21092.1
21084.3
21075.9
21066.9
21057.4
21047.4
21036.7
21025.3
21013.4
21000.8
20987.5
20973.6
20958.9
20943.5
20927.4
20910.6
20893.1
20874.7
20855.7
20835.8
20815.2
20793.8
20771.6
20748.6
20724.9
20700.4
20675.1
20649.1
20622.3
20594.7
20566.4
20537.3
20507.5
20476.9
20445.6
20413.5
20380.8
20347.3
20313.2
20278.3
20242.8
20206.7
20169.8
20132.4
20094.4
20055.7
20016.5
19976.8
19936.5
19895.7
19854.4
19812.6
19770.3
19727.6
19684.5
19641
19597.2
19552.9
19508.4
19463.5
19418.3
19372.9
19327.2
19281.3
19235.1
19188.8
19142.3
19095.7
19048.9
19002.1
18955.1
18908.1
18861.1
18814
18766.9
18719.9
18672.9
18626
18579.2
18532.5
18485.9
18439.5
18393.3
18347.3
18301.6
18256.1
18210.9
18166
18121.4
18077.3
18033.5
17990.2
17947.3
17905
17863.1
17821.9
17781.2
17741.1
17701.7
17662.9
17624.9
17587.6
17551
17515.3
17480.4
17446.3
17413.1
17380.9
17349.5
17319.2
17289.8
17261.5
17234.2
17207.9
17182.8
17158.7
17135.8
17114.1
17093.5
17074.1
17055.9
17039
17023.2
17008.7
16995.5
16983.6
16972.9
16963.5
16955.4
16948.6
16943.1
16938.9
16936.1
16934.5
16934.3
16935.3
16937.7
16941.3
16946.3
16952.6
16960.1
16968.9
16979
16990.3
17002.8
17016.6
17031.6
17047.8
17065.2
17083.7
17103.3
17124.1
17146
17168.9
17193
17218
17244
17271.1
17299
17328
17357.8
17388.5
17420
17452.4
17485.5
17519.4
17554
17589.3
17625.3
17662
17699.2
17737
17775.3
17814.1
17853.4
17893.2
17933.3
17973.8
18014.6
18055.8
18097.2
18138.8
18180.6
18222.6
18264.8
18307
18349.3
18391.6
18434
18476.3
18518.5
18560.6
18602.7
18644.5
18686.2
18727.7
18768.9
18809.8
18850.5
18890.8
18930.7
18970.3
19009.4
19048.1
19086.4
19124.1
19161.4
19198.1
19234.2
19269.8
19304.7
19339.1
19372.7