/*--------------------------------*- C++ -*----------------------------------*\
| =========                 |                                                 |
| \\      /  F ield         | OpenFOAM: The Open Source CFD Toolbox           |
|  \\    /   O peration     | Version:  v2006                                 |
|   \\  /    A nd           | Website:  www.openfoam.com                      |
|    \\/     M anipulation  |                                                 |
\*---------------------------------------------------------------------------*/
FoamFile
{
    version     2.0;
    format      ascii;
    class       volScalarField;
    location    "5.2";
    object      p_rgh;
}
// * * * * * * * * * * * * * * * * * * * * * * * * * * * * * * * * * * * * * //

dimensions      [1 -1 -2 0 0 0 0];


internalField   nonuniform List<scalar> 
150000
(
4010.91
4010.73
4010.47
4010.08
4009.55
4008.85
4007.99
4006.95
4005.73
4004.31
4002.69
4000.86
3998.8
3996.5
3993.96
3991.15
3988.06
3984.68
3980.99
3976.98
3972.63
3967.91
3962.82
3957.34
3951.43
3945.1
3938.32
3931.06
3923.32
3915.06
3906.29
3896.97
3887.08
3876.62
3865.55
3853.87
3841.57
3828.63
3815.06
3800.84
3785.96
3770.4
3754.13
3737.15
3719.42
3700.93
3681.63
3661.51
3640.53
3618.71
3596.1
3572.75
3548.7
3523.98
3498.6
3472.54
3445.8
3418.35
3390.16
3361.24
3331.58
3301.17
3270.02
3238.13
3205.52
3172.2
3138.19
3103.49
3068.13
3032.12
2995.48
2958.23
2920.37
2881.94
2842.94
2803.4
2763.34
2722.76
2681.7
2640.16
2598.18
2555.76
2512.93
2469.71
2426.12
2382.17
2337.9
2293.32
2248.44
2203.3
2157.91
2112.3
2066.48
2020.48
1974.31
1928.01
1881.58
1835.05
1788.45
1741.8
1695.12
1648.44
1601.76
1555.11
1508.49
1461.94
1415.49
1369.16
1323.02
1277.11
1231.45
1186.06
1140.93
1096.06
1051.44
1007.09
963.028
919.301
875.953
833.032
790.581
748.641
707.249
666.434
626.227
586.651
547.733
509.499
471.974
435.183
399.152
363.913
329.502
295.956
263.293
231.537
200.711
170.842
141.956
114.078
87.2305
61.436
36.7167
13.0937
-9.4128
-30.7837
-51.0008
-70.0469
-87.9062
-104.564
-120.006
-134.22
-147.194
-158.918
-169.384
-178.583
-186.509
-193.156
-198.521
-202.6
-205.391
-206.894
-207.111
-206.041
-203.69
-200.062
-195.161
-188.995
-181.571
-172.9
-162.99
-151.854
-139.504
-125.953
-111.217
-95.3117
-78.2526
-60.0577
-40.745
-20.3338
1.15607
23.7036
47.2869
71.883
97.4678
124.016
151.502
179.9
209.181
239.318
270.283
302.047
334.583
367.862
401.854
436.531
471.863
507.818
544.367
581.477
619.118
657.256
695.859
734.895
774.33
814.131
854.264
894.698
935.399
976.333
1017.47
1058.77
1100.21
1141.76
1183.37
1225.03
1266.69
1308.33
1349.92
1391.42
1432.8
1474.04
1515.1
1555.96
1596.58
1636.93
1676.99
1716.73
1756.12
1795.14
1833.76
1871.96
1909.7
1946.97
1983.74
2019.99
2055.69
2090.82
2125.37
2159.31
2192.61
2225.24
2257.13
2288.45
2319.06
2348.96
2378.14
2406.56
2434.22
2461.1
2487.19
2512.48
2536.97
2560.63
2583.47
2605.48
2626.64
2646.96
2666.42
2685.03
2702.77
2719.66
2735.68
2750.87
2765.19
2778.63
2791.23
2803
2813.93
2824.04
2833.32
2841.77
2849.38
2856.14
2862.07
2867.17
2871.41
2874.76
2877.46
2879.48
2880.79
2881.4
2881.29
2880.5
2879.01
2876.86
2874.05
2870.6
2866.53
2861.85
2856.59
2850.75
2844.35
2837.42
2829.96
2821.99
2813.53
2804.6
2795.2
2785.36
2775.09
2764.4
2753.31
2741.84
2729.99
2717.77
2705.2
2692.3
2679.06
2665.51
2651.65
2637.48
2623.03
2608.29
2593.26
2577.97
2562.41
2546.58
2530.49
2514.14
2497.53
2480.67
2463.56
2446.18
2428.55
2410.66
2392.51
2374.1
2355.41
2336.46
2317.22
2297.71
2277.9
2257.8
2237.4
2216.69
2195.66
2174.31
2152.63
2130.61
2108.24
2085.52
2062.44
2038.98
2015.14
1990.92
1966.3
1941.28
1915.85
1890
1863.73
1837.03
1809.88
1782.3
1754.26
1725.77
1696.82
1667.4
1637.53
1607.19
1576.4
1545.15
1513.44
1481.27
1448.65
1415.56
1382.01
1348.01
1313.55
1278.64
1243.28
1207.49
1171.26
1134.6
1097.51
1060.02
1022.11
983.808
945.117
906.049
866.613
826.82
786.682
746.211
705.419
664.319
622.925
581.249
539.307
497.112
454.679
412.023
369.159
326.104
282.873
239.482
195.948
152.286
108.515
64.6497
20.7082
-23.2928
-67.3362
-111.405
-155.482
-199.55
-243.592
-287.591
-331.531
-375.394
-419.163
-462.823
-506.357
-549.748
-592.982
-636.041
-678.912
-721.578
-764.024
-806.237
-848.201
-889.902
-931.327
-972.462
-1013.29
-1053.81
-1094
-1133.84
-1173.34
-1212.47
-1251.22
-1289.59
-1327.56
-1365.12
-1402.26
-1438.98
-1475.26
-1511.09
-1546.46
-1581.38
-1615.82
-1649.78
-1683.25
-1716.22
-1748.7
-1780.66
-1812.11
-1843.03
-1873.43
-1903.29
-1932.61
-1961.39
-1989.62
-2017.29
-2044.4
-2070.94
-2096.92
-2122.32
-2147.15
-2171.4
-2195.06
-2218.14
-2240.62
-2262.52
-2283.81
-2304.51
-2324.61
-2344.1
-2362.99
-2381.26
-2398.93
-2415.99
-2432.44
-2448.27
-2463.48
-2478.09
-2492.07
-2505.44
-2518.2
-2530.34
-2541.86
-2552.78
-2563.08
-2572.78
-2581.87
-2590.36
-2598.25
-2605.54
-2612.24
-2618.35
-2623.87
-2628.82
-2633.19
-2636.98
-2640.2
-2642.87
-2644.98
-2646.53
-2647.78
-2648.47
4010.96
4010.76
4010.53
4010.16
4009.63
4008.94
4008.08
4007.05
4005.84
4004.43
4002.82
4000.99
3998.95
3996.66
3994.13
3991.33
3988.26
3984.89
3981.22
3977.22
3972.87
3968.17
3963.1
3957.62
3951.74
3945.42
3938.65
3931.41
3923.68
3915.44
3906.67
3897.37
3887.5
3877.05
3866
3854.33
3842.04
3829.11
3815.54
3801.32
3786.42
3770.83
3754.54
3737.53
3719.78
3701.28
3681.98
3661.88
3640.96
3619.23
3596.71
3573.44
3549.44
3524.74
3499.35
3473.25
3446.45
3418.93
3390.67
3361.69
3331.96
3301.5
3270.31
3238.39
3205.76
3172.42
3138.39
3103.69
3068.32
3032.31
2995.66
2958.4
2920.54
2882.1
2843.1
2803.55
2763.48
2722.89
2681.82
2640.27
2598.28
2555.85
2513.01
2469.77
2426.17
2382.22
2337.93
2293.33
2248.45
2203.3
2157.9
2112.27
2066.44
2020.43
1974.25
1927.94
1881.5
1834.96
1788.35
1741.68
1694.97
1648.25
1601.55
1554.88
1508.28
1461.76
1415.34
1369.05
1322.89
1276.89
1231.06
1185.42
1140.01
1094.85
1050
1005.49
961.383
917.696
874.457
831.682
789.388
747.594
706.321
665.597
625.452
585.917
547.026
508.808
471.295
434.517
398.505
363.286
328.886
295.327
262.646
230.869
200.024
170.135
141.231
113.334
86.4687
60.6566
35.9203
12.2809
-10.2412
-31.627
-51.8582
-70.9177
-88.7894
-105.459
-120.911
-135.135
-148.119
-159.852
-170.326
-179.532
-187.464
-194.117
-199.486
-203.568
-206.362
-207.867
-208.084
-207.015
-204.663
-201.032
-196.128
-189.959
-182.53
-173.853
-163.937
-152.793
-140.434
-126.874
-112.127
-96.2084
-79.136
-60.9269
-41.5997
-21.1737
0.330623
22.8923
46.4892
71.0985
96.6967
123.259
150.76
179.175
208.475
238.634
269.624
301.416
333.982
367.292
401.317
436.028
471.392
507.381
543.962
581.104
618.775
656.943
695.575
734.637
774.099
813.925
854.084
894.543
935.267
976.226
1017.39
1058.71
1100.18
1141.74
1183.38
1225.06
1266.74
1308.4
1350.01
1391.53
1432.93
1474.19
1515.27
1556.15
1596.79
1637.16
1677.24
1717
1756.41
1795.45
1834.09
1872.3
1910.06
1947.34
1984.13
2020.39
2056.11
2091.26
2125.83
2159.78
2193.12
2225.84
2258.05
2289.32
2319.81
2349.68
2378.85
2407.26
2434.92
2461.8
2487.89
2513.18
2537.67
2561.33
2584.17
2606.17
2627.33
2647.65
2667.11
2685.72
2703.47
2720.34
2736.36
2751.57
2765.88
2779.3
2791.92
2803.72
2814.68
2824.77
2833.98
2842.3
2849.76
2856.35
2862.13
2867.13
2871.4
2875.03
2877.87
2879.94
2881.27
2881.87
2881.76
2880.95
2879.46
2877.29
2874.47
2871.01
2866.93
2862.24
2856.96
2851.11
2844.7
2837.75
2830.28
2822.3
2813.83
2804.88
2795.48
2785.63
2775.34
2764.65
2753.55
2742.06
2730.2
2717.98
2705.41
2692.49
2679.25
2665.69
2651.82
2637.66
2623.2
2608.45
2593.43
2578.13
2562.56
2546.73
2530.64
2514.29
2497.69
2480.83
2463.71
2446.34
2428.71
2410.83
2392.68
2374.27
2355.59
2336.64
2317.41
2297.9
2278.1
2258
2237.61
2216.9
2195.88
2174.54
2152.86
2130.85
2108.49
2085.77
2062.7
2039.25
2015.41
1991.2
1966.58
1941.57
1916.14
1890.3
1864.03
1837.33
1810.19
1782.6
1754.57
1726.07
1697.12
1667.7
1637.83
1607.49
1576.7
1545.45
1513.74
1481.57
1448.95
1415.86
1382.31
1348.3
1313.84
1278.93
1243.57
1207.77
1171.54
1134.87
1097.78
1060.28
1022.37
984.061
945.364
906.289
866.846
827.045
786.9
746.421
705.621
664.512
623.109
581.424
539.472
497.267
454.824
412.158
369.284
326.218
282.976
239.575
196.029
152.356
108.573
64.697
20.7439
-23.2688
-67.324
-111.404
-155.493
-199.573
-243.627
-287.638
-331.589
-375.464
-419.245
-462.916
-506.461
-549.864
-593.109
-636.18
-679.061
-721.738
-764.195
-806.418
-848.392
-890.104
-931.539
-972.684
-1013.53
-1054.05
-1094.25
-1134.1
-1173.61
-1212.75
-1251.51
-1289.88
-1327.86
-1365.43
-1402.58
-1439.31
-1475.59
-1511.43
-1546.82
-1581.74
-1616.18
-1650.15
-1683.63
-1716.61
-1749.09
-1781.06
-1812.51
-1843.45
-1873.85
-1903.72
-1933.04
-1961.83
-1990.06
-2017.73
-2044.85
-2071.4
-2097.38
-2122.79
-2147.62
-2171.87
-2195.54
-2218.62
-2241.11
-2263.01
-2284.31
-2305.01
-2325.11
-2344.61
-2363.5
-2381.78
-2399.45
-2416.51
-2432.96
-2448.79
-2464.01
-2478.62
-2492.6
-2505.97
-2518.73
-2530.87
-2542.4
-2553.32
-2563.62
-2573.32
-2582.41
-2590.9
-2598.78
-2606.07
-2612.77
-2618.88
-2624.41
-2629.36
-2633.73
-2637.52
-2640.75
-2643.41
-2645.5
-2647.03
-2648.29
-2648.98
4010.53
4010.35
4010.14
4009.78
4009.26
4008.58
4007.73
4006.71
4005.51
4004.11
4002.52
4000.71
3998.68
3996.41
3993.9
3991.12
3988.06
3984.71
3981.06
3977.08
3972.76
3968.08
3963.02
3957.57
3951.7
3945.4
3938.65
3931.42
3923.71
3915.49
3906.74
3897.45
3887.59
3877.16
3866.12
3854.48
3842.21
3829.3
3815.74
3801.53
3786.64
3771.05
3754.76
3737.75
3719.98
3701.46
3682.16
3662.06
3641.17
3619.49
3597.03
3573.82
3549.86
3525.19
3499.8
3473.69
3446.86
3419.31
3391.04
3362.03
3332.28
3301.81
3270.61
3238.69
3206.05
3172.72
3138.69
3103.99
3068.63
3032.61
2995.97
2958.71
2920.85
2882.4
2843.4
2803.84
2763.76
2723.16
2682.08
2640.52
2598.51
2556.07
2513.21
2469.96
2426.35
2382.37
2338.07
2293.46
2248.56
2203.39
2157.97
2112.33
2066.48
2020.44
1974.25
1927.91
1881.45
1834.9
1788.26
1741.57
1694.85
1648.12
1601.39
1554.7
1508.06
1461.5
1415.05
1368.74
1322.6
1276.64
1230.89
1185.36
1140.06
1095.02
1050.24
1005.76
961.616
917.836
874.462
831.533
789.083
747.145
705.749
664.922
624.691
585.084
546.128
507.852
470.286
433.458
397.399
362.136
327.695
294.102
261.385
229.574
198.696
168.778
139.84
111.911
85.0127
59.1696
34.4034
10.7352
-11.8148
-33.2273
-53.4842
-72.5682
-90.4634
-107.155
-122.629
-136.872
-149.874
-161.624
-172.112
-181.332
-189.276
-195.939
-201.317
-205.407
-208.206
-209.716
-209.935
-208.867
-206.514
-202.88
-197.973
-191.797
-184.361
-175.675
-165.748
-154.591
-142.218
-128.642
-113.878
-97.9403
-80.8466
-62.6143
-43.262
-22.809
-1.27567
21.3167
44.946
69.5893
95.2227
121.822
149.36
177.813
207.153
237.352
268.382
300.216
332.824
366.177
400.246
435
470.409
506.442
543.068
580.255
617.972
656.185
694.863
733.973
773.481
813.355
853.562
894.069
934.842
975.849
1017.06
1058.43
1099.94
1141.56
1183.24
1224.97
1266.7
1308.41
1350.06
1391.63
1433.08
1474.38
1515.5
1556.42
1597.09
1637.51
1677.63
1717.42
1756.87
1795.95
1834.62
1872.87
1910.67
1947.99
1984.81
2021.1
2056.85
2092.03
2126.62
2160.59
2193.93
2226.61
2258.56
2289.88
2320.42
2350.45
2379.72
2408.16
2435.85
2462.75
2488.86
2514.17
2538.67
2562.35
2585.2
2607.22
2628.39
2648.71
2668.18
2686.79
2704.53
2721.35
2737.31
2752.56
2766.9
2780.42
2793.05
2804.84
2815.79
2825.9
2835.14
2843.52
2851.05
2857.73
2863.59
2868.64
2872.9
2876.4
2879.12
2881.1
2882.37
2882.93
2882.78
2881.94
2880.41
2878.22
2875.37
2871.88
2867.77
2863.06
2857.75
2851.88
2845.44
2838.47
2830.97
2822.97
2814.47
2805.5
2796.07
2786.2
2775.89
2765.18
2754.06
2742.55
2730.67
2718.43
2705.84
2692.91
2679.65
2666.08
2652.2
2638.02
2623.55
2608.8
2593.76
2578.46
2562.89
2547.06
2530.96
2514.61
2498
2481.14
2464.03
2446.66
2429.04
2411.15
2393.01
2374.6
2355.93
2336.99
2317.76
2298.26
2278.47
2258.38
2238
2217.3
2196.29
2174.96
2153.29
2131.29
2108.94
2086.24
2063.17
2039.73
2015.91
1991.7
1967.1
1942.09
1916.67
1890.84
1864.58
1837.89
1810.76
1783.18
1755.16
1726.69
1697.75
1668.35
1638.49
1608.17
1577.38
1546.12
1514.41
1482.23
1449.6
1416.5
1382.94
1348.93
1314.46
1279.53
1244.17
1208.36
1172.11
1135.44
1098.34
1060.82
1022.9
984.579
945.869
906.78
867.322
827.507
787.345
746.85
706.032
664.906
623.484
581.781
539.809
497.584
455.121
412.434
369.539
326.452
283.188
239.763
196.195
152.5
108.694
64.7937
20.817
-23.2193
-67.2982
-111.403
-155.515
-199.619
-243.697
-287.731
-331.706
-375.604
-419.408
-463.103
-506.671
-550.097
-593.364
-636.457
-679.36
-722.059
-764.537
-806.781
-848.777
-890.509
-931.964
-973.129
-1013.99
-1054.53
-1094.75
-1134.62
-1174.15
-1213.3
-1252.08
-1290.47
-1328.47
-1366.05
-1403.22
-1439.96
-1476.26
-1512.12
-1547.51
-1582.45
-1616.91
-1650.89
-1684.38
-1717.38
-1749.87
-1781.85
-1813.32
-1844.26
-1874.67
-1904.55
-1933.89
-1962.68
-1990.92
-2018.61
-2045.73
-2072.29
-2098.28
-2123.7
-2148.54
-2172.8
-2196.48
-2219.56
-2242.06
-2263.97
-2285.27
-2305.98
-2326.09
-2345.59
-2364.48
-2382.77
-2400.45
-2417.51
-2433.97
-2449.8
-2465.03
-2479.63
-2493.62
-2507
-2519.76
-2531.9
-2543.43
-2554.35
-2564.65
-2574.35
-2583.44
-2591.92
-2599.81
-2607.1
-2613.79
-2619.9
-2625.42
-2630.37
-2634.73
-2638.52
-2641.74
-2644.4
-2646.49
-2648.02
-2649.29
-2649.98
4009.74
4009.57
4009.37
4009.02
4008.52
4007.85
4007.02
4006.02
4004.85
4003.48
4001.91
4000.13
3998.14
3995.9
3993.42
3990.68
3987.67
3984.36
3980.75
3976.81
3972.53
3967.9
3962.88
3957.48
3951.65
3945.4
3938.69
3931.51
3923.84
3915.66
3906.96
3897.71
3887.89
3877.5
3866.5
3854.9
3842.67
3829.79
3816.27
3802.08
3787.21
3771.65
3755.37
3738.37
3720.62
3702.12
3682.83
3662.77
3641.92
3620.3
3597.9
3574.74
3550.83
3526.19
3500.82
3474.72
3447.89
3420.32
3392.03
3363
3333.24
3302.75
3271.53
3239.59
3206.94
3173.59
3139.55
3104.83
3069.45
3033.42
2996.76
2959.48
2921.6
2883.14
2844.1
2804.53
2764.42
2723.8
2682.68
2641.1
2599.06
2556.59
2513.7
2470.43
2426.77
2382.77
2338.44
2293.79
2248.86
2203.65
2158.2
2112.52
2066.63
2020.56
1974.32
1927.95
1881.45
1834.85
1788.17
1741.44
1694.67
1647.89
1601.12
1554.38
1507.69
1461.08
1414.57
1368.18
1321.93
1275.85
1229.96
1184.3
1138.87
1093.73
1048.88
1004.38
960.233
916.481
873.145
830.251
787.824
745.891
704.481
663.625
623.354
583.699
544.691
506.361
468.739
431.854
395.736
360.414
325.915
292.265
259.494
227.629
196.697
166.725
137.737
109.758
82.8116
56.9215
32.1096
8.39732
-14.1951
-35.6484
-55.9441
-75.0652
-92.9955
-109.72
-125.225
-139.497
-152.526
-164.3
-174.812
-184.051
-192.013
-198.692
-204.083
-208.183
-210.991
-212.506
-212.729
-211.661
-209.307
-205.669
-200.755
-194.57
-187.122
-178.422
-168.477
-157.302
-144.906
-131.305
-116.513
-100.545
-83.4183
-65.1504
-45.7602
-25.2672
-3.69207
18.9437
42.6178
67.3072
92.9878
119.635
147.224
175.729
205.122
235.378
266.467
298.362
331.033
364.452
398.588
433.412
468.892
504.997
541.696
578.957
616.748
655.036
693.789
732.973
772.557
812.506
852.788
893.369
934.217
975.299
1016.58
1058.03
1099.62
1141.31
1183.06
1224.86
1266.67
1308.45
1350.17
1391.8
1433.32
1474.69
1515.88
1556.87
1597.61
1638.09
1678.28
1718.14
1757.65
1796.79
1835.52
1873.82
1911.67
1949.05
1985.92
2022.26
2058.06
2093.29
2127.93
2161.95
2195.35
2228.08
2260.13
2291.54
2322.36
2352.25
2381.49
2409.88
2437.57
2464.49
2490.63
2515.96
2540.48
2564.18
2587.05
2609.08
2630.27
2650.61
2670.1
2688.75
2706.58
2723.45
2739.52
2754.57
2768.87
2782.33
2794.93
2806.67
2817.55
2827.57
2836.73
2845.04
2852.52
2859.16
2865
2870.04
2874.31
2877.82
2880.57
2882.57
2883.83
2884.37
2884.2
2883.33
2881.77
2879.55
2876.66
2873.14
2869
2864.25
2858.91
2853
2846.53
2839.52
2831.99
2823.95
2815.42
2806.42
2796.96
2787.05
2776.72
2765.97
2754.82
2743.29
2731.38
2719.12
2706.5
2693.55
2680.27
2666.68
2652.78
2638.59
2624.1
2609.33
2594.29
2578.98
2563.4
2547.56
2531.46
2515.1
2498.49
2481.63
2464.52
2447.15
2429.53
2411.66
2393.52
2375.12
2356.46
2337.52
2318.31
2298.82
2279.04
2258.97
2238.6
2217.92
2196.92
2175.6
2153.95
2131.97
2109.63
2086.94
2063.89
2040.47
2016.66
1992.47
1967.88
1942.89
1917.48
1891.66
1865.41
1838.73
1811.6
1784.04
1756.02
1727.54
1698.61
1669.22
1639.36
1609.04
1578.27
1547.02
1515.32
1483.15
1450.52
1417.42
1383.86
1349.84
1315.36
1280.43
1245.06
1209.24
1172.98
1136.29
1099.17
1061.64
1023.7
985.363
946.633
907.523
868.043
828.204
788.018
747.498
706.654
665.501
624.051
582.319
540.318
498.062
455.568
412.849
369.922
326.801
283.504
240.045
196.443
152.712
108.871
64.9354
20.9231
-23.1492
-67.2641
-111.405
-155.553
-199.693
-243.807
-287.878
-331.888
-375.822
-419.662
-463.391
-506.994
-550.454
-593.755
-636.882
-679.818
-722.55
-765.06
-807.336
-849.363
-891.125
-932.611
-973.805
-1014.7
-1055.27
-1095.51
-1135.41
-1174.96
-1214.15
-1252.95
-1291.37
-1329.39
-1367
-1404.19
-1440.95
-1477.28
-1513.15
-1548.57
-1583.53
-1618.01
-1652.01
-1685.52
-1718.53
-1751.05
-1783.05
-1814.53
-1845.49
-1875.92
-1905.81
-1935.17
-1963.98
-1992.23
-2019.93
-2047.07
-2073.64
-2099.65
-2125.08
-2149.93
-2174.2
-2197.89
-2220.99
-2243.5
-2265.41
-2286.73
-2307.45
-2327.56
-2347.07
-2365.98
-2384.28
-2401.96
-2419.03
-2435.49
-2451.34
-2466.57
-2481.18
-2495.17
-2508.55
-2521.31
-2533.46
-2544.99
-2555.91
-2566.21
-2575.91
-2585
-2593.48
-2601.36
-2608.65
-2615.34
-2621.44
-2626.96
-2631.9
-2636.26
-2640.04
-2643.25
-2645.9
-2648
-2649.53
-2650.79
-2651.49
4008.62
4008.45
4008.26
4007.92
4007.44
4006.79
4005.99
4005.02
4003.88
4002.55
4001.02
3999.29
3997.34
3995.15
3992.73
3990.04
3987.08
3983.84
3980.28
3976.4
3972.19
3967.61
3962.66
3957.31
3951.55
3945.36
3938.71
3931.59
3923.98
3915.86
3907.21
3898.02
3888.26
3877.92
3866.98
3855.43
3843.24
3830.42
3816.94
3802.79
3787.95
3772.42
3756.16
3739.18
3721.46
3702.97
3683.73
3663.71
3642.91
3621.34
3599
3575.9
3552.04
3527.43
3502.09
3476
3449.17
3421.61
3393.3
3364.26
3334.48
3303.97
3272.74
3240.78
3208.11
3174.74
3140.68
3105.94
3070.53
3034.48
2997.79
2960.49
2922.58
2884.08
2845.02
2805.41
2765.27
2724.61
2683.47
2641.85
2599.77
2557.26
2514.34
2471.02
2427.33
2383.28
2338.91
2294.22
2249.24
2203.99
2158.5
2112.77
2066.84
2020.73
1974.45
1928.03
1881.48
1834.84
1788.12
1741.34
1694.52
1647.69
1600.87
1554.08
1507.35
1460.7
1414.15
1367.73
1321.45
1275.35
1229.44
1183.74
1138.28
1093.07
1048.15
1003.54
959.279
915.402
871.94
828.927
786.391
744.361
702.865
661.93
621.582
581.853
542.77
504.365
466.667
429.706
393.513
358.115
323.54
289.817
256.973
225.037
194.035
163.994
134.938
106.893
79.8828
53.9304
29.0581
5.28748
-17.3612
-38.8684
-59.2159
-78.3864
-96.3635
-113.132
-128.679
-142.99
-156.055
-167.862
-178.403
-187.67
-195.656
-202.355
-207.764
-211.879
-214.698
-216.221
-216.448
-215.382
-213.025
-209.382
-204.459
-198.262
-190.799
-182.079
-172.112
-160.911
-148.487
-134.853
-120.025
-104.019
-86.8501
-68.5373
-49.0989
-28.5547
-6.92526
15.7679
39.5024
64.2551
90.0021
116.719
144.38
172.959
202.429
232.764
263.935
295.914
328.671
362.178
396.403
431.318
466.89
503.089
539.883
577.24
615.127
653.513
692.365
731.648
771.332
811.381
851.763
892.445
933.394
974.576
1015.96
1057.51
1099.19
1140.98
1182.84
1224.73
1266.63
1308.51
1350.32
1392.05
1433.66
1475.12
1516.4
1557.46
1598.29
1638.85
1679.11
1719.05
1758.64
1797.85
1836.66
1875.04
1912.96
1950.4
1987.34
2023.75
2059.6
2094.89
2129.58
2163.66
2197.11
2229.89
2262.01
2293.45
2324.22
2354.19
2383.36
2411.86
2439.64
2466.61
2492.78
2518.14
2542.68
2566.41
2589.29
2611.34
2632.54
2652.88
2672.35
2690.95
2708.71
2725.7
2741.75
2756.89
2771.19
2784.65
2797.25
2809
2819.89
2829.93
2839.1
2847.43
2854.9
2861.54
2867.36
2872.37
2876.6
2880.05
2882.74
2884.68
2885.89
2886.37
2886.14
2885.22
2883.61
2881.34
2878.4
2874.84
2870.64
2865.84
2860.46
2854.5
2847.98
2840.92
2833.34
2825.26
2816.68
2807.64
2798.13
2788.18
2777.8
2767.01
2755.83
2744.26
2732.32
2720.01
2707.37
2694.39
2681.08
2667.46
2653.54
2639.32
2624.82
2610.03
2594.97
2579.65
2564.06
2548.21
2532.1
2515.74
2499.13
2482.27
2465.16
2447.8
2430.18
2412.31
2394.18
2375.8
2357.15
2338.22
2319.03
2299.56
2279.79
2259.74
2239.39
2218.73
2197.76
2176.46
2154.83
2132.87
2110.56
2087.89
2064.86
2041.46
2017.68
1993.51
1968.94
1943.97
1918.59
1892.79
1866.56
1839.89
1812.79
1785.24
1757.24
1728.79
1699.87
1670.49
1640.65
1610.34
1579.56
1548.32
1516.61
1484.43
1451.79
1418.68
1385.11
1351.08
1316.59
1281.65
1246.26
1210.42
1174.14
1137.43
1100.3
1062.74
1024.78
986.412
947.655
908.517
869.007
829.138
788.92
748.365
707.487
666.297
624.81
583.039
540.999
498.703
456.167
413.406
370.435
327.27
283.928
240.424
196.776
152.999
109.11
65.1277
21.0676
-23.0525
-67.2155
-111.404
-155.601
-199.789
-243.951
-288.07
-332.128
-376.109
-419.996
-463.772
-507.421
-550.927
-594.274
-637.445
-680.426
-723.201
-765.754
-808.072
-850.14
-891.944
-933.47
-974.704
-1015.63
-1056.24
-1096.53
-1136.46
-1176.05
-1215.27
-1254.11
-1292.56
-1330.61
-1368.25
-1405.48
-1442.27
-1478.62
-1514.53
-1549.98
-1584.96
-1619.47
-1653.5
-1687.03
-1720.07
-1752.61
-1784.63
-1816.14
-1847.12
-1877.58
-1907.49
-1936.87
-1965.7
-1993.97
-2021.69
-2048.85
-2075.44
-2101.46
-2126.91
-2151.78
-2176.07
-2199.77
-2222.88
-2245.41
-2267.34
-2288.67
-2309.4
-2329.53
-2349.05
-2367.97
-2386.27
-2403.97
-2421.05
-2437.52
-2453.38
-2468.61
-2483.23
-2497.24
-2510.62
-2523.39
-2535.54
-2547.07
-2557.99
-2568.29
-2577.99
-2587.07
-2595.56
-2603.44
-2610.72
-2617.4
-2623.5
-2629.01
-2633.95
-2638.3
-2642.07
-2645.28
-2647.92
-2650.01
-2651.54
-2652.8
-2653.5
4007.22
4007.05
4006.86
4006.54
4006.07
4005.46
4004.69
4003.76
4002.65
4001.37
3999.9
3998.22
3996.33
3994.21
3991.85
3989.24
3986.35
3983.18
3979.7
3975.89
3971.75
3967.26
3962.38
3957.11
3951.43
3945.31
3938.74
3931.7
3924.16
3916.12
3907.54
3898.42
3888.73
3878.46
3867.59
3856.1
3843.98
3831.22
3817.79
3803.69
3788.9
3773.41
3757.2
3740.26
3722.57
3704.14
3684.94
3664.97
3644.23
3622.72
3600.43
3577.38
3553.56
3528.99
3503.66
3477.59
3450.76
3423.19
3394.88
3365.82
3336.03
3305.5
3274.24
3242.26
3209.57
3176.17
3142.08
3107.31
3071.88
3035.79
2999.07
2961.72
2923.78
2885.24
2846.14
2806.49
2766.3
2725.6
2684.41
2642.74
2600.61
2558.06
2515.08
2471.71
2427.97
2383.87
2339.44
2294.7
2249.67
2204.36
2158.81
2113.03
2067.04
2020.87
1974.53
1928.05
1881.44
1834.73
1787.94
1741.1
1694.21
1647.32
1600.42
1553.56
1506.75
1460.01
1413.37
1366.85
1320.47
1274.27
1228.26
1182.47
1136.93
1091.65
1046.68
1002.02
957.718
913.793
870.274
827.19
784.573
742.454
700.863
659.83
619.386
579.559
540.38
501.879
464.085
427.028
390.738
355.245
320.575
286.759
253.824
221.797
190.706
160.578
131.437
103.308
76.217
50.1859
25.2374
1.39305
-21.3266
-42.9019
-63.3145
-82.5469
-100.583
-117.407
-133.006
-147.365
-160.475
-172.324
-182.903
-192.203
-200.219
-206.945
-212.375
-216.508
-219.341
-220.874
-221.107
-220.042
-217.682
-214.033
-209.098
-202.886
-195.403
-186.659
-176.665
-165.431
-152.97
-139.295
-124.422
-108.366
-91.1443
-72.7738
-53.2738
-32.6642
-10.9657
11.8
35.6105
60.4425
86.2719
113.074
140.823
169.494
199.059
229.492
260.763
292.846
325.709
359.325
393.662
428.69
464.378
500.694
537.607
575.084
613.093
651.602
690.576
729.984
769.791
809.966
850.473
891.28
932.354
973.662
1015.17
1056.84
1098.65
1140.56
1182.54
1224.56
1266.58
1308.57
1350.5
1392.35
1434.07
1475.64
1517.03
1558.21
1599.15
1639.82
1680.19
1720.23
1759.92
1799.22
1838.13
1876.59
1914.6
1952.13
1989.15
2025.65
2061.58
2096.95
2131.72
2165.87
2199.38
2232.23
2264.42
2295.92
2326.71
2356.76
2386.04
2414.64
2442.39
2469.38
2495.58
2520.98
2545.56
2569.31
2592.23
2614.3
2635.53
2655.92
2675.43
2694.07
2711.82
2728.75
2744.79
2759.95
2774.24
2787.67
2800.23
2811.93
2822.76
2832.74
2841.87
2850.15
2857.59
2864.21
2870.01
2875
2879.21
2882.64
2885.3
2887.21
2888.38
2888.82
2888.54
2887.57
2885.9
2883.57
2880.58
2876.95
2872.7
2867.84
2862.39
2856.37
2849.8
2842.68
2835.04
2826.9
2818.27
2809.17
2799.6
2789.6
2779.17
2768.34
2757.1
2745.48
2733.5
2721.15
2708.47
2695.45
2682.11
2668.46
2654.51
2640.26
2625.73
2610.92
2595.84
2580.5
2564.89
2549.03
2532.92
2516.55
2499.94
2483.08
2465.97
2448.61
2431
2413.14
2395.02
2376.65
2358.01
2339.11
2319.93
2300.48
2280.74
2260.71
2240.38
2219.74
2198.79
2177.53
2155.93
2133.99
2111.7
2089.07
2066.06
2042.69
2018.93
1994.79
1970.24
1945.3
1919.93
1894.15
1867.94
1841.3
1814.21
1786.68
1758.69
1730.25
1701.35
1671.98
1642.15
1611.86
1581.09
1549.86
1518.15
1485.98
1453.34
1420.23
1386.65
1352.61
1318.11
1283.15
1247.74
1211.89
1175.59
1138.86
1101.7
1064.11
1026.12
987.724
948.934
909.76
870.213
830.305
790.047
749.45
708.528
667.293
625.759
583.94
541.85
499.504
456.916
414.101
371.077
327.857
284.459
240.898
197.192
153.357
109.409
65.3675
21.2478
-22.9324
-67.1556
-111.405
-155.662
-199.91
-244.132
-288.311
-332.429
-376.469
-420.415
-464.25
-507.957
-551.52
-594.923
-638.151
-681.187
-724.016
-766.623
-808.994
-851.114
-892.969
-934.545
-975.828
-1016.81
-1057.47
-1097.79
-1137.78
-1177.41
-1216.67
-1255.55
-1294.04
-1332.14
-1369.82
-1407.08
-1443.92
-1480.31
-1516.25
-1551.74
-1586.75
-1621.3
-1655.36
-1688.93
-1722
-1754.57
-1786.62
-1818.16
-1849.17
-1879.65
-1909.59
-1938.99
-1967.85
-1996.15
-2023.89
-2051.07
-2077.69
-2103.73
-2129.2
-2154.09
-2178.4
-2202.12
-2225.26
-2247.8
-2269.74
-2291.09
-2311.84
-2331.99
-2351.52
-2370.46
-2388.78
-2406.49
-2423.58
-2440.06
-2455.93
-2471.18
-2485.81
-2499.82
-2513.21
-2525.98
-2538.13
-2549.67
-2560.59
-2570.9
-2580.59
-2589.68
-2598.16
-2606.03
-2613.31
-2619.99
-2626.08
-2631.58
-2636.51
-2640.85
-2644.62
-2647.81
-2650.45
-2652.54
-2654.07
-2655.32
-2656.02
4005.57
4005.39
4005.21
4004.91
4004.47
4003.89
4003.16
4002.27
4001.22
3999.99
3998.58
3996.97
3995.15
3993.1
3990.82
3988.29
3985.48
3982.39
3979
3975.29
3971.24
3966.83
3962.05
3956.87
3951.28
3945.25
3938.77
3931.82
3924.38
3916.42
3907.93
3898.9
3889.3
3879.11
3868.32
3856.91
3844.87
3832.18
3818.82
3804.79
3790.06
3774.62
3758.46
3741.58
3723.94
3705.56
3686.42
3666.51
3645.82
3624.37
3602.13
3579.13
3555.35
3530.81
3505.5
3479.44
3452.62
3425.05
3396.73
3367.66
3337.85
3307.3
3276.02
3244.01
3211.29
3177.87
3143.74
3108.94
3073.47
3037.35
3000.58
2963.2
2925.21
2886.63
2847.48
2807.77
2767.54
2726.78
2685.54
2643.81
2601.63
2559.01
2515.98
2472.55
2428.75
2384.59
2340.1
2295.3
2250.2
2204.84
2159.22
2113.38
2067.32
2021.08
1974.68
1928.13
1881.45
1834.67
1787.82
1740.9
1693.94
1646.97
1600.01
1553.07
1506.18
1459.37
1412.65
1366.05
1319.6
1273.31
1227.21
1181.31
1135.66
1090.27
1045.17
1000.4
955.97
911.926
868.294
825.1
782.375
740.147
698.445
657.299
616.741
576.799
537.504
498.887
460.977
423.805
387.4
351.792
317.01
283.082
250.036
217.9
186.703
156.469
127.226
98.9978
71.8092
45.6835
20.6436
-3.28913
-26.0938
-47.7508
-68.2415
-87.5482
-105.655
-122.545
-138.206
-152.625
-165.788
-177.687
-188.311
-197.652
-205.704
-212.46
-217.917
-222.072
-224.921
-226.466
-226.705
-225.642
-223.28
-219.622
-214.674
-208.443
-200.936
-192.164
-182.136
-170.863
-158.358
-144.635
-129.708
-113.594
-96.3086
-77.8702
-58.2977
-37.6109
-15.8306
7.02147
30.9227
55.8499
81.7788
108.685
136.542
165.324
195.005
225.556
256.95
289.158
322.151
355.898
390.369
425.534
461.361
497.819
534.875
572.497
610.652
649.308
688.432
727.989
767.947
808.272
848.931
889.89
931.116
972.574
1014.23
1056.06
1098.02
1140.07
1182.2
1224.36
1266.53
1308.66
1350.74
1392.72
1434.58
1476.29
1517.81
1559.12
1600.18
1640.98
1681.47
1721.63
1761.44
1800.86
1839.87
1878.45
1916.57
1954.2
1991.32
2027.91
2063.94
2099.4
2134.25
2168.49
2202.08
2235.02
2267.28
2298.84
2329.7
2359.81
2389.18
2417.8
2445.62
2472.67
2498.91
2524.35
2548.97
2572.76
2595.71
2617.81
2639.05
2659.43
2678.97
2697.63
2715.41
2732.32
2748.37
2763.53
2777.82
2791.24
2803.8
2815.5
2826.33
2836.29
2845.4
2853.66
2861.07
2867.64
2873.4
2878.34
2882.49
2885.86
2888.46
2890.3
2891.4
2891.77
2891.43
2890.38
2888.65
2886.25
2883.19
2879.49
2875.16
2870.23
2864.71
2858.62
2851.97
2844.78
2837.08
2828.86
2820.16
2810.99
2801.36
2791.3
2780.81
2769.91
2758.61
2746.94
2734.9
2722.5
2709.77
2696.71
2683.32
2669.63
2655.64
2641.36
2626.8
2611.97
2596.87
2581.5
2565.88
2550.01
2533.88
2517.51
2500.89
2484.03
2466.93
2449.57
2431.97
2414.12
2396.02
2377.66
2359.05
2340.16
2321.01
2301.58
2281.87
2261.87
2241.57
2220.97
2200.05
2178.81
2157.25
2135.35
2113.1
2090.49
2067.53
2044.19
2020.46
1996.35
1971.84
1946.93
1921.6
1895.85
1869.66
1843.05
1815.99
1788.48
1760.51
1732.09
1703.21
1673.86
1644.04
1613.75
1582.99
1551.76
1520.05
1487.87
1455.23
1422.11
1388.52
1354.46
1319.95
1284.97
1249.54
1213.66
1177.33
1140.57
1103.38
1065.76
1027.73
989.3
950.47
911.254
871.663
831.708
791.401
750.754
709.779
668.49
626.9
585.024
542.874
500.467
457.816
414.938
371.848
328.562
285.097
241.468
197.693
153.787
109.77
65.6564
21.4651
-22.7871
-67.0826
-111.404
-155.734
-200.055
-244.349
-288.6
-332.789
-376.901
-420.918
-464.823
-508.599
-552.232
-595.703
-638.997
-682.1
-724.994
-767.666
-810.101
-852.283
-894.199
-935.836
-977.178
-1018.21
-1058.93
-1099.31
-1139.35
-1179.04
-1218.35
-1257.29
-1295.83
-1333.97
-1371.7
-1409.01
-1445.89
-1482.33
-1518.32
-1553.85
-1588.91
-1623.49
-1657.59
-1691.2
-1724.31
-1756.91
-1789.01
-1820.58
-1851.62
-1882.14
-1912.11
-1941.54
-1970.43
-1998.76
-2026.53
-2053.74
-2080.38
-2106.45
-2131.95
-2156.86
-2181.2
-2204.94
-2228.1
-2250.66
-2272.63
-2294
-2314.77
-2334.93
-2354.49
-2373.44
-2391.78
-2409.51
-2426.62
-2443.12
-2458.99
-2474.25
-2488.89
-2502.91
-2516.32
-2529.1
-2541.26
-2552.8
-2563.72
-2574.03
-2583.72
-2592.8
-2601.28
-2609.15
-2616.42
-2623.09
-2629.17
-2634.67
-2639.58
-2643.92
-2647.67
-2650.86
-2653.49
-2655.57
-2657.1
-2658.34
-2659.05
4003.66
4003.49
4003.32
4003.04
4002.63
4002.08
4001.4
4000.56
3999.56
3998.4
3997.05
3995.52
3993.78
3991.81
3989.62
3987.18
3984.47
3981.47
3978.18
3974.57
3970.62
3966.32
3961.64
3956.57
3951.09
3945.17
3938.79
3931.95
3924.61
3916.76
3908.38
3899.44
3889.94
3879.85
3869.16
3857.85
3845.9
3833.29
3820.02
3806.06
3791.4
3776.04
3759.95
3743.13
3725.56
3707.24
3688.16
3668.3
3647.68
3626.27
3604.09
3581.13
3557.4
3532.89
3507.61
3481.57
3454.76
3427.19
3398.86
3369.79
3339.96
3309.39
3278.08
3246.05
3213.3
3179.84
3145.68
3110.84
3075.33
3039.16
3002.35
2964.92
2926.87
2888.24
2849.03
2809.27
2768.98