/*--------------------------------*- C++ -*----------------------------------*\
| =========                 |                                                 |
| \\      /  F ield         | OpenFOAM: The Open Source CFD Toolbox           |
|  \\    /   O peration     | Version:  v2006                                 |
|   \\  /    A nd           | Website:  www.openfoam.com                      |
|    \\/     M anipulation  |                                                 |
\*---------------------------------------------------------------------------*/
FoamFile
{
    version     2.0;
    format      ascii;
    class       volVectorField;
    location    "0";
    object      U_new;
}
// * * * * * * * * * * * * * * * * * * * * * * * * * * * * * * * * * * * * * //

dimensions      [0 1 -1 0 0 0 0];


internalField   nonuniform List<vector> 
2500
(
(0.000696 -0.060552 0)
(0.000696 -0.181656 0)
(0.000696 -0.30276 0)
(0.000696 -0.423864 0)
(0.000696 -0.544968 0)
(0.000696 -0.666072 0)
(0.000696 -0.787176 0)
(0.000696 -0.90828 0)
(0.000696 -1.02938 0)
(0.000696 -1.15049 0)
(0.000696 -1.27159 0)
(0.000696 -1.3927 0)
(0.000696 -1.5138 0)
(0.000696 -1.6349 0)
(0.000696 -1.75601 0)
(0.000696 -1.87711 0)
(0.000696 -1.99822 0)
(0.000696 -2.11932 0)
(0.000696 -2.24042 0)
(0.000696 -2.36153 0)
(0.000696 -2.48263 0)
(0.000696 -2.60374 0)
(0.000696 -2.72484 0)
(0.000696 -2.84594 0)
(0.000696 -2.96705 0)
(0.000696 -3.08815 0)
(0.000696 -3.20926 0)
(0.000696 -3.33036 0)
(0.000696 -3.45146 0)
(0.000696 -3.57257 0)
(0.000696 -3.69367 0)
(0.000696 -3.81478 0)
(0.000696 -3.93588 0)
(0.000696 -4.05698 0)
(0.000696 -4.17809 0)
(0.000696 -4.29919 0)
(0.000696 -4.4203 0)
(0.000696 -4.5414 0)
(0.000696 -4.6625 0)
(0.000696 -4.78361 0)
(0.000696 -4.90471 0)
(0.000696 -5.02582 0)
(0.000696 -5.14692 0)
(0.000696 -5.26802 0)
(0.000696 -5.38913 0)
(0.000696 -5.51023 0)
(0.000696 -5.63134 0)
(0.000696 -5.75244 0)
(0.000696 -5.87354 0)
(0.000696 -5.99465 0)
(0.006264 -0.060552 0)
(0.006264 -0.181656 0)
(0.006264 -0.30276 0)
(0.006264 -0.423864 0)
(0.006264 -0.544968 0)
(0.006264 -0.666072 0)
(0.006264 -0.787176 0)
(0.006264 -0.90828 0)
(0.006264 -1.02938 0)
(0.006264 -1.15049 0)
(0.006264 -1.27159 0)
(0.006264 -1.3927 0)
(0.006264 -1.5138 0)
(0.006264 -1.6349 0)
(0.006264 -1.75601 0)
(0.006264 -1.87711 0)
(0.006264 -1.99822 0)
(0.006264 -2.11932 0)
(0.006264 -2.24042 0)
(0.006264 -2.36153 0)
(0.006264 -2.48263 0)
(0.006264 -2.60374 0)
(0.006264 -2.72484 0)
(0.006264 -2.84594 0)
(0.006264 -2.96705 0)
(0.006264 -3.08815 0)
(0.006264 -3.20926 0)
(0.006264 -3.33036 0)
(0.006264 -3.45146 0)
(0.006264 -3.57257 0)
(0.006264 -3.69367 0)
(0.006264 -3.81478 0)
(0.006264 -3.93588 0)
(0.006264 -4.05698 0)
(0.006264 -4.17809 0)
(0.006264 -4.29919 0)
(0.006264 -4.4203 0)
(0.006264 -4.5414 0)
(0.006264 -4.6625 0)
(0.006264 -4.78361 0)
(0.006264 -4.90471 0)
(0.006264 -5.02582 0)
(0.006264 -5.14692 0)
(0.006264 -5.26802 0)
(0.006264 -5.38913 0)
(0.006264 -5.51023 0)
(0.006264 -5.63134 0)
(0.006264 -5.75244 0)
(0.006264 -5.87354 0)
(0.006264 -5.99465 0)
(0.0174 -0.060552 0)
(0.0174 -0.181656 0)
(0.0174 -0.30276 0)
(0.0174 -0.423864 0)
(0.0174 -0.544968 0)
(0.0174 -0.666072 0)
(0.0174 -0.787176 0)
(0.0174 -0.90828 0)
(0.0174 -1.02938 0)
(0.0174 -1.15049 0)
(0.0174 -1.27159 0)
(0.0174 -1.3927 0)
(0.0174 -1.5138 0)
(0.0174 -1.6349 0)
(0.0174 -1.75601 0)
(0.0174 -1.87711 0)
(0.0174 -1.99822 0)
(0.0174 -2.11932 0)
(0.0174 -2.24042 0)
(0.0174 -2.36153 0)
(0.0174 -2.48263 0)
(0.0174 -2.60374 0)
(0.0174 -2.72484 0)
(0.0174 -2.84594 0)
(0.0174 -2.96705 0)
(0.0174 -3.08815 0)
(0.0174 -3.20926 0)
(0.0174 -3.33036 0)
(0.0174 -3.45146 0)
(0.0174 -3.57257 0)
(0.0174 -3.69367 0)
(0.0174 -3.81478 0)
(0.0174 -3.93588 0)
(0.0174 -4.05698 0)
(0.0174 -4.17809 0)
(0.0174 -4.29919 0)
(0.0174 -4.4203 0)
(0.0174 -4.5414 0)
(0.0174 -4.6625 0)
(0.0174 -4.78361 0)
(0.0174 -4.90471 0)
(0.0174 -5.02582 0)
(0.0174 -5.14692 0)
(0.0174 -5.26802 0)
(0.0174 -5.38913 0)
(0.0174 -5.51023 0)
(0.0174 -5.63134 0)
(0.0174 -5.75244 0)
(0.0174 -5.87354 0)
(0.0174 -5.99465 0)
(0.034104 -0.060552 0)
(0.034104 -0.181656 0)
(0.034104 -0.30276 0)
(0.034104 -0.423864 0)
(0.034104 -0.544968 0)
(0.034104 -0.666072 0)
(0.034104 -0.787176 0)
(0.034104 -0.90828 0)
(0.034104 -1.02938 0)
(0.034104 -1.15049 0)
(0.034104 -1.27159 0)
(0.034104 -1.3927 0)
(0.034104 -1.5138 0)
(0.034104 -1.6349 0)
(0.034104 -1.75601 0)
(0.034104 -1.87711 0)
(0.034104 -1.99822 0)
(0.034104 -2.11932 0)
(0.034104 -2.24042 0)
(0.034104 -2.36153 0)
(0.034104 -2.48263 0)
(0.034104 -2.60374 0)
(0.034104 -2.72484 0)
(0.034104 -2.84594 0)
(0.034104 -2.96705 0)
(0.034104 -3.08815 0)
(0.034104 -3.20926 0)
(0.034104 -3.33036 0)
(0.034104 -3.45146 0)
(0.034104 -3.57257 0)
(0.034104 -3.69367 0)
(0.034104 -3.81478 0)
(0.034104 -3.93588 0)
(0.034104 -4.05698 0)
(0.034104 -4.17809 0)
(0.034104 -4.29919 0)
(0.034104 -4.4203 0)
(0.034104 -4.5414 0)
(0.034104 -4.6625 0)
(0.034104 -4.78361 0)
(0.034104 -4.90471 0)
(0.034104 -5.02582 0)
(0.034104 -5.14692 0)
(0.034104 -5.26802 0)
(0.034104 -5.38913 0)
(0.034104 -5.51023 0)
(0.034104 -5.63134 0)
(0.034104 -5.75244 0)
(0.034104 -5.87354 0)
(0.034104 -5.99465 0)
(0.056376 -0.060552 0)
(0.056376 -0.181656 0)
(0.056376 -0.30276 0)
(0.056376 -0.423864 0)
(0.056376 -0.544968 0)
(0.056376 -0.666072 0)
(0.056376 -0.787176 0)
(0.056376 -0.90828 0)
(0.056376 -1.02938 0)
(0.056376 -1.15049 0)
(0.056376 -1.27159 0)
(0.056376 -1.3927 0)
(0.056376 -1.5138 0)
(0.056376 -1.6349 0)
(0.056376 -1.75601 0)
(0.056376 -1.87711 0)
(0.056376 -1.99822 0)
(0.056376 -2.11932 0)
(0.056376 -2.24042 0)
(0.056376 -2.36153 0)
(0.056376 -2.48263 0)
(0.056376 -2.60374 0)
(0.056376 -2.72484 0)
(0.056376 -2.84594 0)
(0.056376 -2.96705 0)
(0.056376 -3.08815 0)
(0.056376 -3.20926 0)
(0.056376 -3.33036 0)
(0.056376 -3.45146 0)
(0.056376 -3.57257 0)
(0.056376 -3.69367 0)
(0.056376 -3.81478 0)
(0.056376 -3.93588 0)
(0.056376 -4.05698 0)
(0.056376 -4.17809 0)
(0.056376 -4.29919 0)
(0.056376 -4.4203 0)
(0.056376 -4.5414 0)
(0.056376 -4.6625 0)
(0.056376 -4.78361 0)
(0.056376 -4.90471 0)
(0.056376 -5.02582 0)
(0.056376 -5.14692 0)
(0.056376 -5.26802 0)
(0.056376 -5.38913 0)
(0.056376 -5.51023 0)
(0.056376 -5.63134 0)
(0.056376 -5.75244 0)
(0.056376 -5.87354 0)
(0.056376 -5.99465 0)
(0.084216 -0.060552 0)
(0.084216 -0.181656 0)
(0.084216 -0.30276 0)
(0.084216 -0.423864 0)
(0.084216 -0.544968 0)
(0.084216 -0.666072 0)
(0.084216 -0.787176 0)
(0.084216 -0.90828 0)
(0.084216 -1.02938 0)
(0.084216 -1.15049 0)
(0.084216 -1.27159 0)
(0.084216 -1.3927 0)
(0.084216 -1.5138 0)
(0.084216 -1.6349 0)
(0.084216 -1.75601 0)
(0.084216 -1.87711 0)
(0.084216 -1.99822 0)
(0.084216 -2.11932 0)
(0.084216 -2.24042 0)
(0.084216 -2.36153 0)
(0.084216 -2.48263 0)
(0.084216 -2.60374 0)
(0.084216 -2.72484 0)
(0.084216 -2.84594 0)
(0.084216 -2.96705 0)
(0.084216 -3.08815 0)
(0.084216 -3.20926 0)
(0.084216 -3.33036 0)
(0.084216 -3.45146 0)
(0.084216 -3.57257 0)
(0.084216 -3.69367 0)
(0.084216 -3.81478 0)
(0.084216 -3.93588 0)
(0.084216 -4.05698 0)
(0.084216 -4.17809 0)
(0.084216 -4.29919 0)
(0.084216 -4.4203 0)
(0.084216 -4.5414 0)
(0.084216 -4.6625 0)
(0.084216 -4.78361 0)
(0.084216 -4.90471 0)
(0.084216 -5.02582 0)
(0.084216 -5.14692 0)
(0.084216 -5.26802 0)
(0.084216 -5.38913 0)
(0.084216 -5.51023 0)
(0.084216 -5.63134 0)
(0.084216 -5.75244 0)
(0.084216 -5.87354 0)
(0.084216 -5.99465 0)
(0.117624 -0.060552 0)
(0.117624 -0.181656 0)
(0.117624 -0.30276 0)
(0.117624 -0.423864 0)
(0.117624 -0.544968 0)
(0.117624 -0.666072 0)
(0.117624 -0.787176 0)
(0.117624 -0.90828 0)
(0.117624 -1.02938 0)
(0.117624 -1.15049 0)
(0.117624 -1.27159 0)
(0.117624 -1.3927 0)
(0.117624 -1.5138 0)
(0.117624 -1.6349 0)
(0.117624 -1.75601 0)
(0.117624 -1.87711 0)
(0.117624 -1.99822 0)
(0.117624 -2.11932 0)
(0.117624 -2.24042 0)
(0.117624 -2.36153 0)
(0.117624 -2.48263 0)
(0.117624 -2.60374 0)
(0.117624 -2.72484 0)
(0.117624 -2.84594 0)
(0.117624 -2.96705 0)
(0.117624 -3.08815 0)
(0.117624 -3.20926 0)
(0.117624 -3.33036 0)
(0.117624 -3.45146 0)
(0.117624 -3.57257 0)
(0.117624 -3.69367 0)
(0.117624 -3.81478 0)
(0.117624 -3.93588 0)
(0.117624 -4.05698 0)
(0.117624 -4.17809 0)
(0.117624 -4.29919 0)
(0.117624 -4.4203 0)
(0.117624 -4.5414 0)
(0.117624 -4.6625 0)
(0.117624 -4.78361 0)
(0.117624 -4.90471 0)
(0.117624 -5.02582 0)
(0.117624 -5.14692 0)
(0.117624 -5.26802 0)
(0.117624 -5.38913 0)
(0.117624 -5.51023 0)
(0.117624 -5.63134 0)
(0.117624 -5.75244 0)
(0.117624 -5.87354 0)
(0.117624 -5.99465 0)
(0.1566 -0.060552 0)
(0.1566 -0.181656 0)
(0.1566 -0.30276 0)
(0.1566 -0.423864 0)
(0.1566 -0.544968 0)
(0.1566 -0.666072 0)
(0.1566 -0.787176 0)
(0.1566 -0.90828 0)
(0.1566 -1.02938 0)
(0.1566 -1.15049 0)
(0.1566 -1.27159 0)
(0.1566 -1.3927 0)
(0.1566 -1.5138 0)
(0.1566 -1.6349 0)
(0.1566 -1.75601 0)
(0.1566 -1.87711 0)
(0.1566 -1.99822 0)
(0.1566 -2.11932 0)
(0.1566 -2.24042 0)
(0.1566 -2.36153 0)
(0.1566 -2.48263 0)
(0.1566 -2.60374 0)
(0.1566 -2.72484 0)
(0.1566 -2.84594 0)
(0.1566 -2.96705 0)
(0.1566 -3.08815 0)
(0.1566 -3.20926 0)
(0.1566 -3.33036 0)
(0.1566 -3.45146 0)
(0.1566 -3.57257 0)
(0.1566 -3.69367 0)
(0.1566 -3.81478 0)
(0.1566 -3.93588 0)
(0.1566 -4.05698 0)
(0.1566 -4.17809 0)
(0.1566 -4.29919 0)
(0.1566 -4.4203 0)
(0.1566 -4.5414 0)
(0.1566 -4.6625 0)
(0.1566 -4.78361 0)
(0.1566 -4.90471 0)
(0.1566 -5.02582 0)
(0.1566 -5.14692 0)
(0.1566 -5.26802 0)
(0.1566 -5.38913 0)
(0.1566 -5.51023 0)
(0.1566 -5.63134 0)
(0.1566 -5.75244 0)
(0.1566 -5.87354 0)
(0.1566 -5.99465 0)
(0.201144 -0.060552 0)
(0.201144 -0.181656 0)
(0.201144 -0.30276 0)
(0.201144 -0.423864 0)
(0.201144 -0.544968 0)
(0.201144 -0.666072 0)
(0.201144 -0.787176 0)
(0.201144 -0.90828 0)
(0.201144 -1.02938 0)
(0.201144 -1.15049 0)
(0.201144 -1.27159 0)
(0.201144 -1.3927 0)
(0.201144 -1.5138 0)
(0.201144 -1.6349 0)
(0.201144 -1.75601 0)
(0.201144 -1.87711 0)
(0.201144 -1.99822 0)
(0.201144 -2.11932 0)
(0.201144 -2.24042 0)
(0.201144 -2.36153 0)
(0.201144 -2.48263 0)
(0.201144 -2.60374 0)
(0.201144 -2.72484 0)
(0.201144 -2.84594 0)
(0.201144 -2.96705 0)
(0.201144 -3.08815 0)
(0.201144 -3.20926 0)
(0.201144 -3.33036 0)
(0.201144 -3.45146 0)
(0.201144 -3.57257 0)
(0.201144 -3.69367 0)
(0.201144 -3.81478 0)
(0.201144 -3.93588 0)
(0.201144 -4.05698 0)
(0.201144 -4.17809 0)
(0.201144 -4.29919 0)
(0.201144 -4.4203 0)
(0.201144 -4.5414 0)
(0.201144 -4.6625 0)
(0.201144 -4.78361 0)
(0.201144 -4.90471 0)
(0.201144 -5.02582 0)
(0.201144 -5.14692 0)
(0.201144 -5.26802 0)
(0.201144 -5.38913 0)
(0.201144 -5.51023 0)
(0.201144 -5.63134 0)
(0.201144 -5.75244 0)
(0.201144 -5.87354 0)
(0.201144 -5.99465 0)
(0.251256 -0.060552 0)
(0.251256 -0.181656 0)
(0.251256 -0.30276 0)
(0.251256 -0.423864 0)
(0.251256 -0.544968 0)
(0.251256 -0.666072 0)
(0.251256 -0.787176 0)
(0.251256 -0.90828 0)
(0.251256 -1.02938 0)
(0.251256 -1.15049 0)
(0.251256 -1.27159 0)
(0.251256 -1.3927 0)
(0.251256 -1.5138 0)
(0.251256 -1.6349 0)
(0.251256 -1.75601 0)
(0.251256 -1.87711 0)
(0.251256 -1.99822 0)
(0.251256 -2.11932 0)
(0.251256 -2.24042 0)
(0.251256 -2.36153 0)
(0.251256 -2.48263 0)
(0.251256 -2.60374 0)
(0.251256 -2.72484 0)
(0.251256 -2.84594 0)
(0.251256 -2.96705 0)
(0.251256 -3.08815 0)
(0.251256 -3.20926 0)
(0.251256 -3.33036 0)
(0.251256 -3.45146 0)
(0.251256 -3.57257 0)
(0.251256 -3.69367 0)
(0.251256 -3.81478 0)
(0.251256 -3.93588 0)
(0.251256 -4.05698 0)
(0.251256 -4.17809 0)
(0.251256 -4.29919 0)
(0.251256 -4.4203 0)
(0.251256 -4.5414 0)
(0.251256 -4.6625 0)
(0.251256 -4.78361 0)
(0.251256 -4.90471 0)
(0.251256 -5.02582 0)
(0.251256 -5.14692 0)
(0.251256 -5.26802 0)
(0.251256 -5.38913 0)
(0.251256 -5.51023 0)
(0.251256 -5.63134 0)
(0.251256 -5.75244 0)
(0.251256 -5.87354 0)
(0.251256 -5.99465 0)
(0.306936 -0.060552 0)
(0.306936 -0.181656 0)
(0.306936 -0.30276 0)
(0.306936 -0.423864 0)
(0.306936 -0.544968 0)
(0.306936 -0.666072 0)
(0.306936 -0.787176 0)
(0.306936 -0.90828 0)
(0.306936 -1.02938 0)
(0.306936 -1.15049 0)
(0.306936 -1.27159 0)
(0.306936 -1.3927 0)
(0.306936 -1.5138 0)
(0.306936 -1.6349 0)
(0.306936 -1.75601 0)
(0.306936 -1.87711 0)
(0.306936 -1.99822 0)
(0.306936 -2.11932 0)
(0.306936 -2.24042 0)
(0.306936 -2.36153 0)
(0.306936 -2.48263 0)
(0.306936 -2.60374 0)
(0.306936 -2.72484 0)
(0.306936 -2.84594 0)
(0.306936 -2.96705 0)
(0.306936 -3.08815 0)
(0.306936 -3.20926 0)
(0.306936 -3.33036 0)
(0.306936 -3.45146 0)
(0.306936 -3.57257 0)
(0.306936 -3.69367 0)
(0.306936 -3.81478 0)
(0.306936 -3.93588 0)
(0.306936 -4.05698 0)
(0.306936 -4.17809 0)
(0.306936 -4.29919 0)
(0.306936 -4.4203 0)
(0.306936 -4.5414 0)
(0.306936 -4.6625 0)
(0.306936 -4.78361 0)
(0.306936 -4.90471 0)
(0.306936 -5.02582 0)
(0.306936 -5.14692 0)
(0.306936 -5.26802 0)
(0.306936 -5.38913 0)
(0.306936 -5.51023 0)
(0.306936 -5.63134 0)
(0.306936 -5.75244 0)
(0.306936 -5.87354 0)
(0.306936 -5.99465 0)
(0.368184 -0.060552 0)
(0.368184 -0.181656 0)
(0.368184 -0.30276 0)
(0.368184 -0.423864 0)
(0.368184 -0.544968 0)
(0.368184 -0.666072 0)
(0.368184 -0.787176 0)
(0.368184 -0.90828 0)
(0.368184 -1.02938 0)
(0.368184 -1.15049 0)
(0.368184 -1.27159 0)
(0.368184 -1.3927 0)
(0.368184 -1.5138 0)
(0.368184 -1.6349 0)
(0.368184 -1.75601 0)
(0.368184 -1.87711 0)
(0.368184 -1.99822 0)
(0.368184 -2.11932 0)
(0.368184 -2.24042 0)
(0.368184 -2.36153 0)
(0.368184 -2.48263 0)
(0.368184 -2.60374 0)
(0.368184 -2.72484 0)
(0.368184 -2.84594 0)
(0.368184 -2.96705 0)
(0.368184 -3.08815 0)
(0.368184 -3.20926 0)
(0.368184 -3.33036 0)
(0.368184 -3.45146 0)
(0.368184 -3.57257 0)
(0.368184 -3.69367 0)
(0.368184 -3.81478 0)
(0.368184 -3.93588 0)
(0.368184 -4.05698 0)
(0.368184 -4.17809 0)
(0.368184 -4.29919 0)
(0.368184 -4.4203 0)
(0.368184 -4.5414 0)
(0.368184 -4.6625 0)
(0.368184 -4.78361 0)
(0.368184 -4.90471 0)
(0.368184 -5.02582 0)
(0.368184 -5.14692 0)
(0.368184 -5.26802 0)
(0.368184 -5.38913 0)
(0.368184 -5.51023 0)
(0.368184 -5.63134 0)
(0.368184 -5.75244 0)
(0.368184 -5.87354 0)
(0.368184 -5.99465 0)
(0.435 -0.060552 0)
(0.435 -0.181656 0)
(0.435 -0.30276 0)
(0.435 -0.423864 0)
(0.435 -0.544968 0)
(0.435 -0.666072 0)
(0.435 -0.787176 0)
(0.435 -0.90828 0)
(0.435 -1.02938 0)
(0.435 -1.15049 0)
(0.435 -1.27159 0)
(0.435 -1.3927 0)
(0.435 -1.5138 0)
(0.435 -1.6349 0)
(0.435 -1.75601 0)
(0.435 -1.87711 0)
(0.435 -1.99822 0)
(0.435 -2.11932 0)
(0.435 -2.24042 0)
(0.435 -2.36153 0)
(0.435 -2.48263 0)
(0.435 -2.60374 0)
(0.435 -2.72484 0)
(0.435 -2.84594 0)
(0.435 -2.96705 0)
(0.435 -3.08815 0)
(0.435 -3.20926 0)
(0.435 -3.33036 0)
(0.435 -3.45146 0)
(0.435 -3.57257 0)
(0.435 -3.69367 0)
(0.435 -3.81478 0)
(0.435 -3.93588 0)
(0.435 -4.05698 0)
(0.435 -4.17809 0)
(0.435 -4.29919 0)
(0.435 -4.4203 0)
(0.435 -4.5414 0)
(0.435 -4.6625 0)
(0.435 -4.78361 0)
(0.435 -4.90471 0)
(0.435 -5.02582 0)
(0.435 -5.14692 0)
(0.435 -5.26802 0)
(0.435 -5.38913 0)
(0.435 -5.51023 0)
(0.435 -5.63134 0)
(0.435 -5.75244 0)
(0.435 -5.87354 0)
(0.435 -5.99465 0)
(0.507384 -0.060552 0)
(0.507384 -0.181656 0)
(0.507384 -0.30276 0)
(0.507384 -0.423864 0)
(0.507384 -0.544968 0)
(0.507384 -0.666072 0)
(0.507384 -0.787176 0)
(0.507384 -0.90828 0)
(0.507384 -1.02938 0)
(0.507384 -1.15049 0)
(0.507384 -1.27159 0)
(0.507384 -1.3927 0)
(0.507384 -1.5138 0)
(0.507384 -1.6349 0)
(0.507384 -1.75601 0)
(0.507384 -1.87711 0)
(0.507384 -1.99822 0)
(0.507384 -2.11932 0)
(0.507384 -2.24042 0)
(0.507384 -2.36153 0)
(0.507384 -2.48263 0)
(0.507384 -2.60374 0)
(0.507384 -2.72484 0)
(0.507384 -2.84594 0)
(0.507384 -2.96705 0)
(0.507384 -3.08815 0)
(0.507384 -3.20926 0)
(0.507384 -3.33036 0)
(0.507384 -3.45146 0)
(0.507384 -3.57257 0)
(0.507384 -3.69367 0)
(0.507384 -3.81478 0)
(0.507384 -3.93588 0)
(0.507384 -4.05698 0)
(0.507384 -4.17809 0)
(0.507384 -4.29919 0)
(0.507384 -4.4203 0)
(0.507384 -4.5414 0)
(0.507384 -4.6625 0)
(0.507384 -4.78361 0)
(0.507384 -4.90471 0)
(0.507384 -5.02582 0)
(0.507384 -5.14692 0)
(0.507384 -5.26802 0)
(0.507384 -5.38913 0)
(0.507384 -5.51023 0)
(0.507384 -5.63134 0)
(0.507384 -5.75244 0)
(0.507384 -5.87354 0)
(0.507384 -5.99465 0)
(0.585336 -0.060552 0)
(0.585336 -0.181656 0)
(0.585336 -0.30276 0)
(0.585336 -0.423864 0)
(0.585336 -0.544968 0)
(0.585336 -0.666072 0)
(0.585336 -0.787176 0)
(0.585336 -0.90828 0)
(0.585336 -1.02938 0)
(0.585336 -1.15049 0)
(0.585336 -1.27159 0)
(0.585336 -1.3927 0)
(0.585336 -1.5138 0)
(0.585336 -1.6349 0)
(0.585336 -1.75601 0)
(0.585336 -1.87711 0)
(0.585336 -1.99822 0)
(0.585336 -2.11932 0)
(0.585336 -2.24042 0)
(0.585336 -2.36153 0)
(0.585336 -2.48263 0)
(0.585336 -2.60374 0)
(0.585336 -2.72484 0)
(0.585336 -2.84594 0)
(0.585336 -2.96705 0)
(0.585336 -3.08815 0)
(0.585336 -3.20926 0)
(0.585336 -3.33036 0)
(0.585336 -3.45146 0)
(0.585336 -3.57257 0)
(0.585336 -3.69367 0)
(0.585336 -3.81478 0)
(0.585336 -3.93588 0)
(0.585336 -4.05698 0)
(0.585336 -4.17809 0)
(0.585336 -4.29919 0)
(0.585336 -4.4203 0)
(0.585336 -4.5414 0)
(0.585336 -4.6625 0)
(0.585336 -4.78361 0)
(0.585336 -4.90471 0)
(0.585336 -5.02582 0)
(0.585336 -5.14692 0)
(0.585336 -5.26802 0)
(0.585336 -5.38913 0)
(0.585336 -5.51023 0)
(0.585336 -5.63134 0)
(0.585336 -5.75244 0)
(0.585336 -5.87354 0)
(0.585336 -5.99465 0)
(0.668856 -0.060552 0)
(0.668856 -0.181656 0)
(0.668856 -0.30276 0)
(0.668856 -0.423864 0)
(0.668856 -0.544968 0)
(0.668856 -0.666072 0)
(0.668856 -0.787176 0)
(0.668856 -0.90828 0)
(0.668856 -1.02938 0)
(0.668856 -1.15049 0)
(0.668856 -1.27159 0)
(0.668856 -1.3927 0)
(0.668856 -1.5138 0)
(0.668856 -1.6349 0)
(0.668856 -1.75601 0)
(0.668856 -1.87711 0)
(0.668856 -1.99822 0)
(0.668856 -2.11932 0)
(0.668856 -2.24042 0)
(0.668856 -2.36153 0)
(0.668856 -2.48263 0)
(0.668856 -2.60374 0)
(0.668856 -2.72484 0)
(0.668856 -2.84594 0)
(0.668856 -2.96705 0)
(0.668856 -3.08815 0)
(0.668856 -3.20926 0)
(0.668856 -3.33036 0)
(0.668856 -3.45146 0)
(0.668856 -3.57257 0)
(0.668856 -3.69367 0)
(0.668856 -3.81478 0)
(0.668856 -3.93588 0)
(0.668856 -4.05698 0)
(0.668856 -4.17809 0)
(0.668856 -4.29919 0)
(0.668856 -4.4203 0)
(0.668856 -4.5414 0)
(0.668856 -4.6625 0)
(0.668856 -4.78361 0)
(0.668856 -4.90471 0)
(0.668856 -5.02582 0)
(0.668856 -5.14692 0)
(0.668856 -5.26802 0)
(0.668856 -5.38913 0)
(0.668856 -5.51023 0)
(0.668856 -5.63134 0)
(0.668856 -5.75244 0)
(0.668856 -5.87354 0)
(0.668856 -5.99465 0)
(0.757944 -0.060552 0)
(0.757944 -0.181656 0)
(0.757944 -0.30276 0)
(0.757944 -0.423864 0)
(0.757944 -0.544968 0)
(0.757944 -0.666072 0)
(0.757944 -0.787176 0)
(0.757944 -0.90828 0)
(0.757944 -1.02938 0)
(0.757944 -1.15049 0)
(0.757944 -1.27159 0)
(0.757944 -1.3927 0)
(0.757944 -1.5138 0)
(0.757944 -1.6349 0)
(0.757944 -1.75601 0)
(0.757944 -1.87711 0)
(0.757944 -1.99822 0)
(0.757944 -2.11932 0)
(0.757944 -2.24042 0)
(0.757944 -2.36153 0)
(0.757944 -2.48263 0)
(0.757944 -2.60374 0)
(0.757944 -2.72484 0)
(0.757944 -2.84594 0)
(0.757944 -2.96705 0)
(0.757944 -3.08815 0)
(0.757944 -3.20926 0)
(0.757944 -3.33036 0)
(0.757944 -3.45146 0)
(0.757944 -3.57257 0)
(0.757944 -3.69367 0)
(0.757944 -3.81478 0)
(0.757944 -3.93588 0)
(0.757944 -4.05698 0)
(0.757944 -4.17809 0)
(0.757944 -4.29919 0)
(0.757944 -4.4203 0)
(0.757944 -4.5414 0)
(0.757944 -4.6625 0)
(0.757944 -4.78361 0)
(0.757944 -4.90471 0)
(0.757944 -5.02582 0)
(0.757944 -5.14692 0)
(0.757944 -5.26802 0)
(0.757944 -5.38913 0)
(0.757944 -5.51023 0)
(0.757944 -5.63134 0)
(0.757944 -5.75244 0)
(0.757944 -5.87354 0)
(0.757944 -5.99465 0)
(0.8526 -0.060552 0)
(0.8526 -0.181656 0)
(0.8526 -0.30276 0)
(0.8526 -0.423864 0)
(0.8526 -0.544968 0)
(0.8526 -0.666072 0)
(0.8526 -0.787176 0)
(0.8526 -0.90828 0)
(0.8526 -1.02938 0)
(0.8526 -1.15049 0)
(0.8526 -1.27159 0)
(0.8526 -1.3927 0)
(0.8526 -1.5138 0)
(0.8526 -1.6349 0)
(0.8526 -1.75601 0)
(0.8526 -1.87711 0)
(0.8526 -1.99822 0)
(0.8526 -2.11932 0)
(0.8526 -2.24042 0)
(0.8526 -2.36153 0)
(0.8526 -2.48263 0)
(0.8526 -2.60374 0)
(0.8526 -2.72484 0)
(0.8526 -2.84594 0)
(0.8526 -2.96705 0)
(0.8526 -3.08815 0)
(0.8526 -3.20926 0)
(0.8526 -3.33036 0)
(0.8526 -3.45146 0)
(0.8526 -3.57257 0)
(0.8526 -3.69367 0)
(0.8526 -3.81478 0)
(0.8526 -3.93588 0)
(0.8526 -4.05698 0)
(0.8526 -4.17809 0)
(0.8526 -4.29919 0)
(0.8526 -4.4203 0)
(0.8526 -4.5414 0)
(0.8526 -4.6625 0)
(0.8526 -4.78361 0)
(0.8526 -4.90471 0)
(0.8526 -5.02582 0)
(0.8526 -5.14692 0)
(0.8526 -5.26802 0)
(0.8526 -5.38913 0)
(0.8526 -5.51023 0)
(0.8526 -5.63134 0)
(0.8526 -5.75244 0)
(0.8526 -5.87354 0)
(0.8526 -5.99465 0)
(0.952824 -0.060552 0)
(0.952824 -0.181656 0)
(0.952824 -0.30276 0)
(0.952824 -0.423864 0)
(0.952824 -0.544968 0)
(0.952824 -0.666072 0)
(0.952824 -0.787176 0)
(0.952824 -0.90828 0)
(0.952824 -1.02938 0)
(0.952824 -1.15049 0)
(0.952824 -1.27159 0)
(0.952824 -1.3927 0)
(0.952824 -1.5138 0)
(0.952824 -1.6349 0)
(0.952824 -1.75601 0)
(0.952824 -1.87711 0)
(0.952824 -1.99822 0)
(0.952824 -2.11932 0)
(0.952824 -2.24042 0)
(0.952824 -2.36153 0)
(0.952824 -2.48263 0)
(0.952824 -2.60374 0)
(0.952824 -2.72484 0)
(0.952824 -2.84594 0)
(0.952824 -2.96705 0)
(0.952824 -3.08815 0)
(0.952824 -3.20926 0)
(0.952824 -3.33036 0)
(0.952824 -3.45146 0)
(0.952824 -3.57257 0)
(0.952824 -3.69367 0)
(0.952824 -3.81478 0)
(0.952824 -3.93588 0)
(0.952824 -4.05698 0)
(0.952824 -4.17809 0)
(0.952824 -4.29919 0)
(0.952824 -4.4203 0)
(0.952824 -4.5414 0)
(0.952824 -4.6625 0)
(0.952824 -4.78361 0)
(0.952824 -4.90471 0)
(0.952824 -5.02582 0)
(0.952824 -5.14692 0)
(0.952824 -5.26802 0)
(0.952824 -5.38913 0)
(0.952824 -5.51023 0)
(0.952824 -5.63134 0)
(0.952824 -5.75244 0)
(0.952824 -5.87354 0)
(0.952824 -5.99465 0)
(1.05862 -0.060552 0)
(1.05862 -0.181656 0)
(1.05862 -0.30276 0)
(1.05862 -0.423864 0)
(1.05862 -0.544968 0)
(1.05862 -0.666072 0)
(1.05862 -0.787176 0)
(1.05862 -0.90828 0)
(1.05862 -1.02938 0)
(1.05862 -1.15049 0)
(1.05862 -1.27159 0)
(1.05862 -1.3927 0)
(1.05862 -1.5138 0)
(1.05862 -1.6349 0)
(1.05862 -1.75601 0)
(1.05862 -1.87711 0)
(1.05862 -1.99822 0)
(1.05862 -2.11932 0)
(1.05862 -2.24042 0)
(1.05862 -2.36153 0)
(1.05862 -2.48263 0)
(1.05862 -2.60374 0)
(1.05862 -2.72484 0)
(1.05862 -2.84594 0)
(1.05862 -2.96705 0)
(1.05862 -3.08815 0)
(1.05862 -3.20926 0)
(1.05862 -3.33036 0)
(1.05862 -3.45146 0)
(1.05862 -3.57257 0)
(1.05862 -3.69367 0)
(1.05862 -3.81478 0)
(1.05862 -3.93588 0)
(1.05862 -4.05698 0)
(1.05862 -4.17809 0)
(1.05862 -4.29919 0)
(1.05862 -4.4203 0)
(1.05862 -4.5414 0)
(1.05862 -4.6625 0)
(1.05862 -4.78361 0)
(1.05862 -4.90471 0)
(1.05862 -5.02582 0)
(1.05862 -5.14692 0)
(1.05862 -5.26802 0)
(1.05862 -5.38913 0)
(1.05862 -5.51023 0)
(1.05862 -5.63134 0)
(1.05862 -5.75244 0)
(1.05862 -5.87354 0)
(1.05862 -5.99465 0)
(1.16998 -0.060552 0)
(1.16998 -0.181656 0)
(1.16998 -0.30276 0)
(1.16998 -0.423864 0)
(1.16998 -0.544968 0)
(1.16998 -0.666072 0)
(1.16998 -0.787176 0)
(1.16998 -0.90828 0)
(1.16998 -1.02938 0)
(1.16998 -1.15049 0)
(1.16998 -1.27159 0)
(1.16998 -1.3927 0)
(1.16998 -1.5138 0)
(1.16998 -1.6349 0)
(1.16998 -1.75601 0)
(1.16998 -1.87711 0)
(1.16998 -1.99822 0)
(1.16998 -2.11932 0)
(1.16998 -2.24042 0)
(1.16998 -2.36153 0)
(1.16998 -2.48263 0)
(1.16998 -2.60374 0)
(1.16998 -2.72484 0)
(1.16998 -2.84594 0)
(1.16998 -2.96705 0)
(1.16998 -3.08815 0)
(1.16998 -3.20926 0)
(1.16998 -3.33036 0)
(1.16998 -3.45146 0)
(1.16998 -3.57257 0)
(1.16998 -3.69367 0)
(1.16998 -3.81478 0)
(1.16998 -3.93588 0)
(1.16998 -4.05698 0)
(1.16998 -4.17809 0)
(1.16998 -4.29919 0)
(1.16998 -4.4203 0)
(1.16998 -4.5414 0)
(1.16998 -4.6625 0)
(1.16998 -4.78361 0)
(1.16998 -4.90471 0)
(1.16998 -5.02582 0)
(1.16998 -5.14692 0)
(1.16998 -5.26802 0)
(1.16998 -5.38913 0)
(1.16998 -5.51023 0)
(1.16998 -5.63134 0)
(1.16998 -5.75244 0)
(1.16998 -5.87354 0)
(1.16998 -5.99465 0)
(1.2869 -0.060552 0)
(1.2869 -0.181656 0)
(1.2869 -0.30276 0)
(1.2869 -0.423864 0)
(1.2869 -0.544968 0)
(1.2869 -0.666072 0)
(1.2869 -0.787176 0)
(1.2869 -0.90828 0)
(1.2869 -1.02938 0)
(1.2869 -1.15049 0)
(1.2869 -1.27159 0)
(1.2869 -1.3927 0)
(1.2869 -1.5138 0)
(1.2869 -1.6349 0)
(1.2869 -1.75601 0)
(1.2869 -1.87711 0)
(1.2869 -1.99822 0)
(1.2869 -2.11932 0)
(1.2869 -2.24042 0)
(1.2869 -2.36153 0)
(1.2869 -2.48263 0)
(1.2869 -2.60374 0)
(1.2869 -2.72484 0)
(1.2869 -2.84594 0)
(1.2869 -2.96705 0)
(1.2869 -3.08815 0)
(1.2869 -3.20926 0)
(1.2869 -3.33036 0)
(1.2869 -3.45146 0)
(1.2869 -3.57257 0)
(1.2869 -3.69367 0)
(1.2869 -3.81478 0)
(1.2869 -3.93588 0)
(1.2869 -4.05698 0)
(1.2869 -4.17809 0)
(1.2869 -4.29919 0)
(1.2869 -4.4203 0)
(1.2869 -4.5414 0)
(1.2869 -4.6625 0)
(1.2869 -4.78361 0)
(1.2869 -4.90471 0)
(1.2869 -5.02582 0)
(1.2869 -5.14692 0)
(1.2869 -5.26802 0)
(1.2869 -5.38913 0)
(1.2869 -5.51023 0)
(1.2869 -5.63134 0)
(1.2869 -5.75244 0)
(1.2869 -5.87354 0)
(1.2869 -5.99465 0)
(1.4094 -0.060552 0)
(1.4094 -0.181656 0)
(1.4094 -0.30276 0)
(1.4094 -0.423864 0)
(1.4094 -0.544968 0)
(1.4094 -0.666072 0)
(1.4094 -0.787176 0)
(1.4094 -0.90828 0)
(1.4094 -1.02938 0)
(1.4094 -1.15049 0)
(1.4094 -1.27159 0)
(1.4094 -1.3927 0)
(1.4094 -1.5138 0)
(1.4094 -1.6349 0)
(1.4094 -1.75601 0)
(1.4094 -1.87711 0)
(1.4094 -1.99822 0)
(1.4094 -2.11932 0)
(1.4094 -2.24042 0)
(1.4094 -2.36153 0)
(1.4094 -2.48263 0)
(1.4094 -2.60374 0)
(1.4094 -2.72484 0)
(1.4094 -2.84594 0)
(1.4094 -2.96705 0)
(1.4094 -3.08815 0)
(1.4094 -3.20926 0)
(1.4094 -3.33036 0)
(1.4094 -3.45146 0)
(1.4094 -3.57257 0)
(1.4094 -3.69367 0)
(1.4094 -3.81478 0)
(1.4094 -3.93588 0)
(1.4094 -4.05698 0)
(1.4094 -4.17809 0)
(1.4094 -4.29919 0)
(1.4094 -4.4203 0)
(1.4094 -4.5414 0)
(1.4094 -4.6625 0)
(1.4094 -4.78361 0)
(1.4094 -4.90471 0)
(1.4094 -5.02582 0)
(1.4094 -5.14692 0)
(1.4094 -5.26802 0)
(1.4094 -5.38913 0)
(1.4094 -5.51023 0)
(1.4094 -5.63134 0)
(1.4094 -5.75244 0)
(1.4094 -5.87354 0)
(1.4094 -5.99465 0)
(1.53746 -0.060552 0)
(1.53746 -0.181656 0)
(1.53746 -0.30276 0)
(1.53746 -0.423864 0)
(1.53746 -0.544968 0)
(1.53746 -0.666072 0)
(1.53746 -0.787176 0)
(1.53746 -0.90828 0)
(1.53746 -1.02938 0)
(1.53746 -1.15049 0)
(1.53746 -1.27159 0)
(1.53746 -1.3927 0)
(1.53746 -1.5138 0)
(1.53746 -1.6349 0)
(1.53746 -1.75601 0)
(1.53746 -1.87711 0)
(1.53746 -1.99822 0)
(1.53746 -2.11932 0)
(1.53746 -2.24042 0)
(1.53746 -2.36153 0)
(1.53746 -2.48263 0)
(1.53746 -2.60374 0)
(1.53746 -2.72484 0)
(1.53746 -2.84594 0)
(1.53746 -2.96705 0)
(1.53746 -3.08815 0)
(1.53746 -3.20926 0)
(1.53746 -3.33036 0)
(1.53746 -3.45146 0)
(1.53746 -3.57257 0)
(1.53746 -3.69367 0)
(1.53746 -3.81478 0)
(1.53746 -3.93588 0)
(1.53746 -4.05698 0)
(1.53746 -4.17809 0)
(1.53746 -4.29919 0)
(1.53746 -4.4203 0)
(1.53746 -4.5414 0)
(1.53746 -4.6625 0)
(1.53746 -4.78361 0)
(1.53746 -4.90471 0)
(1.53746 -5.02582 0)
(1.53746 -5.14692 0)
(1.53746 -5.26802 0)
(1.53746 -5.38913 0)
(1.53746 -5.51023 0)
(1.53746 -5.63134 0)
(1.53746 -5.75244 0)
(1.53746 -5.87354 0)
(1.53746 -5.99465 0)
(1.6711 -0.060552 0)
(1.6711 -0.181656 0)
(1.6711 -0.30276 0)
(1.6711 -0.423864 0)
(1.6711 -0.544968 0)
(1.6711 -0.666072 0)
(1.6711 -0.787176 0)
(1.6711 -0.90828 0)
(1.6711 -1.02938 0)
(1.6711 -1.15049 0)
(1.6711 -1.27159 0)
(1.6711 -1.3927 0)
(1.6711 -1.5138 0)
(1.6711 -1.6349 0)
(1.6711 -1.75601 0)
(1.6711 -1.87711 0)
(1.6711 -1.99822 0)
(1.6711 -2.11932 0)
(1.6711 -2.24042 0)
(1.6711 -2.36153 0)
(1.6711 -2.48263 0)
(1.6711 -2.60374 0)
(1.6711 -2.72484 0)
(1.6711 -2.84594 0)
(1.6711 -2.96705 0)
(1.6711 -3.08815 0)
(1.6711 -3.20926 0)
(1.6711 -3.33036 0)
(1.6711 -3.45146 0)
(1.6711 -3.57257 0)
(1.6711 -3.69367 0)
(1.6711 -3.81478 0)
(1.6711 -3.93588 0)
(1.6711 -4.05698 0)
(1.6711 -4.17809 0)
(1.6711 -4.29919 0)
(1.6711 -4.4203 0)
(1.6711 -4.5414 0)
(1.6711 -4.6625 0)
(1.6711 -4.78361 0)
(1.6711 -4.90471 0)
(1.6711 -5.02582 0)
(1.6711 -5.14692 0)
(1.6711 -5.26802 0)
(1.6711 -5.38913 0)
(1.6711 -5.51023 0)
(1.6711 -5.63134 0)
(1.6711 -5.75244 0)
(1.6711 -5.87354 0)
(1.6711 -5.99465 0)
(1.8103 -0.060552 0)
(1.8103 -0.181656 0)
(1.8103 -0.30276 0)
(1.8103 -0.423864 0)
(1.8103 -0.544968 0)
(1.8103 -0.666072 0)
(1.8103 -0.787176 0)
(1.8103 -0.90828 0)
(1.8103 -1.02938 0)
(1.8103 -1.15049 0)
(1.8103 -1.27159 0)
(1.8103 -1.3927 0)
(1.8103 -1.5138 0)
(1.8103 -1.6349 0)
(1.8103 -1.75601 0)
(1.8103 -1.87711 0)
(1.8103 -1.99822 0)
(1.8103 -2.11932 0)
(1.8103 -2.24042 0)
(1.8103 -2.36153 0)
(1.8103 -2.48263 0)
(1.8103 -2.60374 0)
(1.8103 -2.72484 0)
(1.8103 -2.84594 0)
(1.8103 -2.96705 0)
(1.8103 -3.08815 0)
(1.8103 -3.20926 0)
(1.8103 -3.33036 0)
(1.8103 -3.45146 0)
(1.8103 -3.57257 0)
(1.8103 -3.69367 0)
(1.8103 -3.81478 0)
(1.8103 -3.93588 0)
(1.8103 -4.05698 0)
(1.8103 -4.17809 0)
(1.8103 -4.29919 0)
(1.8103 -4.4203 0)
(1.8103 -4.5414 0)
(1.8103 -4.6625 0)
(1.8103 -4.78361 0)
(1.8103 -4.90471 0)
(1.8103 -5.02582 0)
(1.8103 -5.14692 0)
(1.8103 -5.26802 0)
(1.8103 -5.38913 0)
(1.8103 -5.51023 0)
(1.8103 -5.63134 0)
(1.8103 -5.75244 0)
(1.8103 -5.87354 0)
(1.8103 -5.99465 0)
(1.95506 -0.060552 0)
(1.95506 -0.181656 0)
(1.95506 -0.30276 0)
(1.95506 -0.423864 0)
(1.95506 -0.544968 0)
(1.95506 -0.666072 0)
(1.95506 -0.787176 0)
(1.95506 -0.90828 0)
(1.95506 -1.02938 0)
(1.95506 -1.15049 0)
(1.95506 -1.27159 0)
(1.95506 -1.3927 0)
(1.95506 -1.5138 0)
(1.95506 -1.6349 0)
(1.95506 -1.75601 0)
(1.95506 -1.87711 0)
(1.95506 -1.99822 0)
(1.95506 -2.11932 0)
(1.95506 -2.24042 0)
(1.95506 -2.36153 0)
(1.95506 -2.48263 0)
(1.95506 -2.60374 0)
(1.95506 -2.72484 0)
(1.95506 -2.84594 0)
(1.95506 -2.96705 0)
(1.95506 -3.08815 0)
(1.95506 -3.20926 0)
(1.95506 -3.33036 0)
(1.95506 -3.45146 0)
(1.95506 -3.57257 0)
(1.95506 -3.69367 0)
(1.95506 -3.81478 0)
(1.95506 -3.93588 0)
(1.95506 -4.05698 0)
(1.95506 -4.17809 0)
(1.95506 -4.29919 0)
(1.95506 -4.4203 0)
(1.95506 -4.5414 0)
(1.95506 -4.6625 0)
(1.95506 -4.78361 0)
(1.95506 -4.90471 0)
(1.95506 -5.02582 0)
(1.95506 -5.14692 0)
(1.95506 -5.26802 0)
(1.95506 -5.38913 0)
(1.95506 -5.51023 0)
(1.95506 -5.63134 0)
(1.95506 -5.75244 0)
(1.95506 -5.87354 0)
(1.95506 -5.99465 0)
(2.1054 -0.060552 0)
(2.1054 -0.181656 0)
(2.1054 -0.30276 0)
(2.1054 -0.423864 0)
(2.1054 -0.544968 0)
(2.1054 -0.666072 0)
(2.1054 -0.787176 0)
(2.1054 -0.90828 0)
(2.1054 -1.02938 0)
(2.1054 -1.15049 0)
(2.1054 -1.27159 0)
(2.1054 -1.3927 0)
(2.1054 -1.5138 0)
(2.1054 -1.6349 0)
(2.1054 -1.75601 0)
(2.1054 -1.87711 0)
(2.1054 -1.99822 0)
(2.1054 -2.11932 0)
(2.1054 -2.24042 0)
(2.1054 -2.36153 0)
(2.1054 -2.48263 0)
(2.1054 -2.60374 0)
(2.1054 -2.72484 0)
(2.1054 -2.84594 0)