/*--------------------------------*- C++ -*----------------------------------*\
| =========                 |                                                 |
| \\      /  F ield         | OpenFOAM: The Open Source CFD Toolbox           |
|  \\    /   O peration     | Version:  v2006                                 |
|   \\  /    A nd           | Website:  www.openfoam.com                      |
|    \\/     M anipulation  |                                                 |
\*---------------------------------------------------------------------------*/
FoamFile
{
    version     2.0;
    format      ascii;
    class       volVectorField;
    location    "0";
    object      U_new;
}
// * * * * * * * * * * * * * * * * * * * * * * * * * * * * * * * * * * * * * //

dimensions      [0 1 -1 0 0 0 0];


internalField   nonuniform List<vector> 
2500
(
(0.00028 -0.0098 0)
(0.00028 -0.0294 0)
(0.00028 -0.049 0)
(0.00028 -0.0686 0)
(0.00028 -0.0882 0)
(0.00028 -0.1078 0)
(0.00028 -0.1274 0)
(0.00028 -0.147 0)
(0.00028 -0.1666 0)
(0.00028 -0.1862 0)
(0.00028 -0.2058 0)
(0.00028 -0.2254 0)
(0.00028 -0.245 0)
(0.00028 -0.2646 0)
(0.00028 -0.2842 0)
(0.00028 -0.3038 0)
(0.00028 -0.3234 0)
(0.00028 -0.343 0)
(0.00028 -0.3626 0)
(0.00028 -0.3822 0)
(0.00028 -0.4018 0)
(0.00028 -0.4214 0)
(0.00028 -0.441 0)
(0.00028 -0.4606 0)
(0.00028 -0.4802 0)
(0.00028 -0.4998 0)
(0.00028 -0.5194 0)
(0.00028 -0.539 0)
(0.00028 -0.5586 0)
(0.00028 -0.5782 0)
(0.00028 -0.5978 0)
(0.00028 -0.6174 0)
(0.00028 -0.637 0)
(0.00028 -0.6566 0)
(0.00028 -0.6762 0)
(0.00028 -0.6958 0)
(0.00028 -0.7154 0)
(0.00028 -0.735 0)
(0.00028 -0.7546 0)
(0.00028 -0.7742 0)
(0.00028 -0.7938 0)
(0.00028 -0.8134 0)
(0.00028 -0.833 0)
(0.00028 -0.8526 0)
(0.00028 -0.8722 0)
(0.00028 -0.8918 0)
(0.00028 -0.9114 0)
(0.00028 -0.931 0)
(0.00028 -0.9506 0)
(0.00028 -0.9702 0)
(0.00252 -0.0098 0)
(0.00252 -0.0294 0)
(0.00252 -0.049 0)
(0.00252 -0.0686 0)
(0.00252 -0.0882 0)
(0.00252 -0.1078 0)
(0.00252 -0.1274 0)
(0.00252 -0.147 0)
(0.00252 -0.1666 0)
(0.00252 -0.1862 0)
(0.00252 -0.2058 0)
(0.00252 -0.2254 0)
(0.00252 -0.245 0)
(0.00252 -0.2646 0)
(0.00252 -0.2842 0)
(0.00252 -0.3038 0)
(0.00252 -0.3234 0)
(0.00252 -0.343 0)
(0.00252 -0.3626 0)
(0.00252 -0.3822 0)
(0.00252 -0.4018 0)
(0.00252 -0.4214 0)
(0.00252 -0.441 0)
(0.00252 -0.4606 0)
(0.00252 -0.4802 0)
(0.00252 -0.4998 0)
(0.00252 -0.5194 0)
(0.00252 -0.539 0)
(0.00252 -0.5586 0)
(0.00252 -0.5782 0)
(0.00252 -0.5978 0)
(0.00252 -0.6174 0)
(0.00252 -0.637 0)
(0.00252 -0.6566 0)
(0.00252 -0.6762 0)
(0.00252 -0.6958 0)
(0.00252 -0.7154 0)
(0.00252 -0.735 0)
(0.00252 -0.7546 0)
(0.00252 -0.7742 0)
(0.00252 -0.7938 0)
(0.00252 -0.8134 0)
(0.00252 -0.833 0)
(0.00252 -0.8526 0)
(0.00252 -0.8722 0)
(0.00252 -0.8918 0)
(0.00252 -0.9114 0)
(0.00252 -0.931 0)
(0.00252 -0.9506 0)
(0.00252 -0.9702 0)
(0.007 -0.0098 0)
(0.007 -0.0294 0)
(0.007 -0.049 0)
(0.007 -0.0686 0)
(0.007 -0.0882 0)
(0.007 -0.1078 0)
(0.007 -0.1274 0)
(0.007 -0.147 0)
(0.007 -0.1666 0)
(0.007 -0.1862 0)
(0.007 -0.2058 0)
(0.007 -0.2254 0)
(0.007 -0.245 0)
(0.007 -0.2646 0)
(0.007 -0.2842 0)
(0.007 -0.3038 0)
(0.007 -0.3234 0)
(0.007 -0.343 0)
(0.007 -0.3626 0)
(0.007 -0.3822 0)
(0.007 -0.4018 0)
(0.007 -0.4214 0)
(0.007 -0.441 0)
(0.007 -0.4606 0)
(0.007 -0.4802 0)
(0.007 -0.4998 0)
(0.007 -0.5194 0)
(0.007 -0.539 0)
(0.007 -0.5586 0)
(0.007 -0.5782 0)
(0.007 -0.5978 0)
(0.007 -0.6174 0)
(0.007 -0.637 0)
(0.007 -0.6566 0)
(0.007 -0.6762 0)
(0.007 -0.6958 0)
(0.007 -0.7154 0)
(0.007 -0.735 0)
(0.007 -0.7546 0)
(0.007 -0.7742 0)
(0.007 -0.7938 0)
(0.007 -0.8134 0)
(0.007 -0.833 0)
(0.007 -0.8526 0)
(0.007 -0.8722 0)
(0.007 -0.8918 0)
(0.007 -0.9114 0)
(0.007 -0.931 0)
(0.007 -0.9506 0)
(0.007 -0.9702 0)
(0.01372 -0.0098 0)
(0.01372 -0.0294 0)
(0.01372 -0.049 0)
(0.01372 -0.0686 0)
(0.01372 -0.0882 0)
(0.01372 -0.1078 0)
(0.01372 -0.1274 0)
(0.01372 -0.147 0)
(0.01372 -0.1666 0)
(0.01372 -0.1862 0)
(0.01372 -0.2058 0)
(0.01372 -0.2254 0)
(0.01372 -0.245 0)
(0.01372 -0.2646 0)
(0.01372 -0.2842 0)
(0.01372 -0.3038 0)
(0.01372 -0.3234 0)
(0.01372 -0.343 0)
(0.01372 -0.3626 0)
(0.01372 -0.3822 0)
(0.01372 -0.4018 0)
(0.01372 -0.4214 0)
(0.01372 -0.441 0)
(0.01372 -0.4606 0)
(0.01372 -0.4802 0)
(0.01372 -0.4998 0)
(0.01372 -0.5194 0)
(0.01372 -0.539 0)
(0.01372 -0.5586 0)
(0.01372 -0.5782 0)
(0.01372 -0.5978 0)
(0.01372 -0.6174 0)
(0.01372 -0.637 0)
(0.01372 -0.6566 0)
(0.01372 -0.6762 0)
(0.01372 -0.6958 0)
(0.01372 -0.7154 0)
(0.01372 -0.735 0)
(0.01372 -0.7546 0)
(0.01372 -0.7742 0)
(0.01372 -0.7938 0)
(0.01372 -0.8134 0)
(0.01372 -0.833 0)
(0.01372 -0.8526 0)
(0.01372 -0.8722 0)
(0.01372 -0.8918 0)
(0.01372 -0.9114 0)
(0.01372 -0.931 0)
(0.01372 -0.9506 0)
(0.01372 -0.9702 0)
(0.02268 -0.0098 0)
(0.02268 -0.0294 0)
(0.02268 -0.049 0)
(0.02268 -0.0686 0)
(0.02268 -0.0882 0)
(0.02268 -0.1078 0)
(0.02268 -0.1274 0)
(0.02268 -0.147 0)
(0.02268 -0.1666 0)
(0.02268 -0.1862 0)
(0.02268 -0.2058 0)
(0.02268 -0.2254 0)
(0.02268 -0.245 0)
(0.02268 -0.2646 0)
(0.02268 -0.2842 0)
(0.02268 -0.3038 0)
(0.02268 -0.3234 0)
(0.02268 -0.343 0)
(0.02268 -0.3626 0)
(0.02268 -0.3822 0)
(0.02268 -0.4018 0)
(0.02268 -0.4214 0)
(0.02268 -0.441 0)
(0.02268 -0.4606 0)
(0.02268 -0.4802 0)
(0.02268 -0.4998 0)
(0.02268 -0.5194 0)
(0.02268 -0.539 0)
(0.02268 -0.5586 0)
(0.02268 -0.5782 0)
(0.02268 -0.5978 0)
(0.02268 -0.6174 0)
(0.02268 -0.637 0)
(0.02268 -0.6566 0)
(0.02268 -0.6762 0)
(0.02268 -0.6958 0)
(0.02268 -0.7154 0)
(0.02268 -0.735 0)
(0.02268 -0.7546 0)
(0.02268 -0.7742 0)
(0.02268 -0.7938 0)
(0.02268 -0.8134 0)
(0.02268 -0.833 0)
(0.02268 -0.8526 0)
(0.02268 -0.8722 0)
(0.02268 -0.8918 0)
(0.02268 -0.9114 0)
(0.02268 -0.931 0)
(0.02268 -0.9506 0)
(0.02268 -0.9702 0)
(0.03388 -0.0098 0)
(0.03388 -0.0294 0)
(0.03388 -0.049 0)
(0.03388 -0.0686 0)
(0.03388 -0.0882 0)
(0.03388 -0.1078 0)
(0.03388 -0.1274 0)
(0.03388 -0.147 0)
(0.03388 -0.1666 0)
(0.03388 -0.1862 0)
(0.03388 -0.2058 0)
(0.03388 -0.2254 0)
(0.03388 -0.245 0)
(0.03388 -0.2646 0)
(0.03388 -0.2842 0)
(0.03388 -0.3038 0)
(0.03388 -0.3234 0)
(0.03388 -0.343 0)
(0.03388 -0.3626 0)
(0.03388 -0.3822 0)
(0.03388 -0.4018 0)
(0.03388 -0.4214 0)
(0.03388 -0.441 0)
(0.03388 -0.4606 0)
(0.03388 -0.4802 0)
(0.03388 -0.4998 0)
(0.03388 -0.5194 0)
(0.03388 -0.539 0)
(0.03388 -0.5586 0)
(0.03388 -0.5782 0)
(0.03388 -0.5978 0)
(0.03388 -0.6174 0)
(0.03388 -0.637 0)
(0.03388 -0.6566 0)
(0.03388 -0.6762 0)
(0.03388 -0.6958 0)
(0.03388 -0.7154 0)
(0.03388 -0.735 0)
(0.03388 -0.7546 0)
(0.03388 -0.7742 0)
(0.03388 -0.7938 0)
(0.03388 -0.8134 0)
(0.03388 -0.833 0)
(0.03388 -0.8526 0)
(0.03388 -0.8722 0)
(0.03388 -0.8918 0)
(0.03388 -0.9114 0)
(0.03388 -0.931 0)
(0.03388 -0.9506 0)
(0.03388 -0.9702 0)
(0.04732 -0.0098 0)
(0.04732 -0.0294 0)
(0.04732 -0.049 0)
(0.04732 -0.0686 0)
(0.04732 -0.0882 0)
(0.04732 -0.1078 0)
(0.04732 -0.1274 0)
(0.04732 -0.147 0)
(0.04732 -0.1666 0)
(0.04732 -0.1862 0)
(0.04732 -0.2058 0)
(0.04732 -0.2254 0)
(0.04732 -0.245 0)
(0.04732 -0.2646 0)
(0.04732 -0.2842 0)
(0.04732 -0.3038 0)
(0.04732 -0.3234 0)
(0.04732 -0.343 0)
(0.04732 -0.3626 0)
(0.04732 -0.3822 0)
(0.04732 -0.4018 0)
(0.04732 -0.4214 0)
(0.04732 -0.441 0)
(0.04732 -0.4606 0)
(0.04732 -0.4802 0)
(0.04732 -0.4998 0)
(0.04732 -0.5194 0)
(0.04732 -0.539 0)
(0.04732 -0.5586 0)
(0.04732 -0.5782 0)
(0.04732 -0.5978 0)
(0.04732 -0.6174 0)
(0.04732 -0.637 0)
(0.04732 -0.6566 0)
(0.04732 -0.6762 0)
(0.04732 -0.6958 0)
(0.04732 -0.7154 0)
(0.04732 -0.735 0)
(0.04732 -0.7546 0)
(0.04732 -0.7742 0)
(0.04732 -0.7938 0)
(0.04732 -0.8134 0)
(0.04732 -0.833 0)
(0.04732 -0.8526 0)
(0.04732 -0.8722 0)
(0.04732 -0.8918 0)
(0.04732 -0.9114 0)
(0.04732 -0.931 0)
(0.04732 -0.9506 0)
(0.04732 -0.9702 0)
(0.063 -0.0098 0)
(0.063 -0.0294 0)
(0.063 -0.049 0)
(0.063 -0.0686 0)
(0.063 -0.0882 0)
(0.063 -0.1078 0)
(0.063 -0.1274 0)
(0.063 -0.147 0)
(0.063 -0.1666 0)
(0.063 -0.1862 0)
(0.063 -0.2058 0)
(0.063 -0.2254 0)
(0.063 -0.245 0)
(0.063 -0.2646 0)
(0.063 -0.2842 0)
(0.063 -0.3038 0)
(0.063 -0.3234 0)
(0.063 -0.343 0)
(0.063 -0.3626 0)
(0.063 -0.3822 0)
(0.063 -0.4018 0)
(0.063 -0.4214 0)
(0.063 -0.441 0)
(0.063 -0.4606 0)
(0.063 -0.4802 0)
(0.063 -0.4998 0)
(0.063 -0.5194 0)
(0.063 -0.539 0)
(0.063 -0.5586 0)
(0.063 -0.5782 0)
(0.063 -0.5978 0)
(0.063 -0.6174 0)
(0.063 -0.637 0)
(0.063 -0.6566 0)
(0.063 -0.6762 0)
(0.063 -0.6958 0)
(0.063 -0.7154 0)
(0.063 -0.735 0)
(0.063 -0.7546 0)
(0.063 -0.7742 0)
(0.063 -0.7938 0)
(0.063 -0.8134 0)
(0.063 -0.833 0)
(0.063 -0.8526 0)
(0.063 -0.8722 0)
(0.063 -0.8918 0)
(0.063 -0.9114 0)
(0.063 -0.931 0)
(0.063 -0.9506 0)
(0.063 -0.9702 0)
(0.08092 -0.0098 0)
(0.08092 -0.0294 0)
(0.08092 -0.049 0)
(0.08092 -0.0686 0)
(0.08092 -0.0882 0)
(0.08092 -0.1078 0)
(0.08092 -0.1274 0)
(0.08092 -0.147 0)
(0.08092 -0.1666 0)
(0.08092 -0.1862 0)
(0.08092 -0.2058 0)
(0.08092 -0.2254 0)
(0.08092 -0.245 0)
(0.08092 -0.2646 0)
(0.08092 -0.2842 0)
(0.08092 -0.3038 0)
(0.08092 -0.3234 0)
(0.08092 -0.343 0)
(0.08092 -0.3626 0)
(0.08092 -0.3822 0)
(0.08092 -0.4018 0)
(0.08092 -0.4214 0)
(0.08092 -0.441 0)
(0.08092 -0.4606 0)
(0.08092 -0.4802 0)
(0.08092 -0.4998 0)
(0.08092 -0.5194 0)
(0.08092 -0.539 0)
(0.08092 -0.5586 0)
(0.08092 -0.5782 0)
(0.08092 -0.5978 0)
(0.08092 -0.6174 0)
(0.08092 -0.637 0)
(0.08092 -0.6566 0)
(0.08092 -0.6762 0)
(0.08092 -0.6958 0)
(0.08092 -0.7154 0)
(0.08092 -0.735 0)
(0.08092 -0.7546 0)
(0.08092 -0.7742 0)
(0.08092 -0.7938 0)
(0.08092 -0.8134 0)
(0.08092 -0.833 0)
(0.08092 -0.8526 0)
(0.08092 -0.8722 0)
(0.08092 -0.8918 0)
(0.08092 -0.9114 0)
(0.08092 -0.931 0)
(0.08092 -0.9506 0)
(0.08092 -0.9702 0)
(0.10108 -0.0098 0)
(0.10108 -0.0294 0)
(0.10108 -0.049 0)
(0.10108 -0.0686 0)
(0.10108 -0.0882 0)
(0.10108 -0.1078 0)
(0.10108 -0.1274 0)
(0.10108 -0.147 0)
(0.10108 -0.1666 0)
(0.10108 -0.1862 0)
(0.10108 -0.2058 0)
(0.10108 -0.2254 0)
(0.10108 -0.245 0)
(0.10108 -0.2646 0)
(0.10108 -0.2842 0)
(0.10108 -0.3038 0)
(0.10108 -0.3234 0)
(0.10108 -0.343 0)
(0.10108 -0.3626 0)
(0.10108 -0.3822 0)
(0.10108 -0.4018 0)
(0.10108 -0.4214 0)
(0.10108 -0.441 0)
(0.10108 -0.4606 0)
(0.10108 -0.4802 0)
(0.10108 -0.4998 0)
(0.10108 -0.5194 0)
(0.10108 -0.539 0)
(0.10108 -0.5586 0)
(0.10108 -0.5782 0)
(0.10108 -0.5978 0)
(0.10108 -0.6174 0)
(0.10108 -0.637 0)
(0.10108 -0.6566 0)
(0.10108 -0.6762 0)
(0.10108 -0.6958 0)
(0.10108 -0.7154 0)
(0.10108 -0.735 0)
(0.10108 -0.7546 0)
(0.10108 -0.7742 0)
(0.10108 -0.7938 0)
(0.10108 -0.8134 0)
(0.10108 -0.833 0)
(0.10108 -0.8526 0)
(0.10108 -0.8722 0)
(0.10108 -0.8918 0)
(0.10108 -0.9114 0)
(0.10108 -0.931 0)
(0.10108 -0.9506 0)
(0.10108 -0.9702 0)
(0.12348 -0.0098 0)
(0.12348 -0.0294 0)
(0.12348 -0.049 0)
(0.12348 -0.0686 0)
(0.12348 -0.0882 0)
(0.12348 -0.1078 0)
(0.12348 -0.1274 0)
(0.12348 -0.147 0)
(0.12348 -0.1666 0)
(0.12348 -0.1862 0)
(0.12348 -0.2058 0)
(0.12348 -0.2254 0)
(0.12348 -0.245 0)
(0.12348 -0.2646 0)
(0.12348 -0.2842 0)
(0.12348 -0.3038 0)
(0.12348 -0.3234 0)
(0.12348 -0.343 0)
(0.12348 -0.3626 0)
(0.12348 -0.3822 0)
(0.12348 -0.4018 0)
(0.12348 -0.4214 0)
(0.12348 -0.441 0)
(0.12348 -0.4606 0)
(0.12348 -0.4802 0)
(0.12348 -0.4998 0)
(0.12348 -0.5194 0)
(0.12348 -0.539 0)
(0.12348 -0.5586 0)
(0.12348 -0.5782 0)
(0.12348 -0.5978 0)
(0.12348 -0.6174 0)
(0.12348 -0.637 0)
(0.12348 -0.6566 0)
(0.12348 -0.6762 0)
(0.12348 -0.6958 0)
(0.12348 -0.7154 0)
(0.12348 -0.735 0)
(0.12348 -0.7546 0)
(0.12348 -0.7742 0)
(0.12348 -0.7938 0)
(0.12348 -0.8134 0)
(0.12348 -0.833 0)
(0.12348 -0.8526 0)
(0.12348 -0.8722 0)
(0.12348 -0.8918 0)
(0.12348 -0.9114 0)
(0.12348 -0.931 0)
(0.12348 -0.9506 0)
(0.12348 -0.9702 0)
(0.14812 -0.0098 0)
(0.14812 -0.0294 0)
(0.14812 -0.049 0)
(0.14812 -0.0686 0)
(0.14812 -0.0882 0)
(0.14812 -0.1078 0)
(0.14812 -0.1274 0)
(0.14812 -0.147 0)
(0.14812 -0.1666 0)
(0.14812 -0.1862 0)
(0.14812 -0.2058 0)
(0.14812 -0.2254 0)
(0.14812 -0.245 0)
(0.14812 -0.2646 0)
(0.14812 -0.2842 0)
(0.14812 -0.3038 0)
(0.14812 -0.3234 0)
(0.14812 -0.343 0)
(0.14812 -0.3626 0)
(0.14812 -0.3822 0)
(0.14812 -0.4018 0)
(0.14812 -0.4214 0)
(0.14812 -0.441 0)
(0.14812 -0.4606 0)
(0.14812 -0.4802 0)
(0.14812 -0.4998 0)
(0.14812 -0.5194 0)
(0.14812 -0.539 0)
(0.14812 -0.5586 0)
(0.14812 -0.5782 0)
(0.14812 -0.5978 0)
(0.14812 -0.6174 0)
(0.14812 -0.637 0)
(0.14812 -0.6566 0)
(0.14812 -0.6762 0)
(0.14812 -0.6958 0)
(0.14812 -0.7154 0)
(0.14812 -0.735 0)
(0.14812 -0.7546 0)
(0.14812 -0.7742 0)
(0.14812 -0.7938 0)
(0.14812 -0.8134 0)
(0.14812 -0.833 0)
(0.14812 -0.8526 0)
(0.14812 -0.8722 0)
(0.14812 -0.8918 0)
(0.14812 -0.9114 0)
(0.14812 -0.931 0)
(0.14812 -0.9506 0)
(0.14812 -0.9702 0)
(0.175 -0.0098 0)
(0.175 -0.0294 0)
(0.175 -0.049 0)
(0.175 -0.0686 0)
(0.175 -0.0882 0)
(0.175 -0.1078 0)
(0.175 -0.1274 0)
(0.175 -0.147 0)
(0.175 -0.1666 0)
(0.175 -0.1862 0)
(0.175 -0.2058 0)
(0.175 -0.2254 0)
(0.175 -0.245 0)
(0.175 -0.2646 0)
(0.175 -0.2842 0)
(0.175 -0.3038 0)
(0.175 -0.3234 0)
(0.175 -0.343 0)
(0.175 -0.3626 0)
(0.175 -0.3822 0)
(0.175 -0.4018 0)
(0.175 -0.4214 0)
(0.175 -0.441 0)
(0.175 -0.4606 0)
(0.175 -0.4802 0)
(0.175 -0.4998 0)
(0.175 -0.5194 0)
(0.175 -0.539 0)
(0.175 -0.5586 0)
(0.175 -0.5782 0)
(0.175 -0.5978 0)
(0.175 -0.6174 0)
(0.175 -0.637 0)
(0.175 -0.6566 0)
(0.175 -0.6762 0)
(0.175 -0.6958 0)
(0.175 -0.7154 0)
(0.175 -0.735 0)
(0.175 -0.7546 0)
(0.175 -0.7742 0)
(0.175 -0.7938 0)
(0.175 -0.8134 0)
(0.175 -0.833 0)
(0.175 -0.8526 0)
(0.175 -0.8722 0)
(0.175 -0.8918 0)
(0.175 -0.9114 0)
(0.175 -0.931 0)
(0.175 -0.9506 0)
(0.175 -0.9702 0)
(0.20412 -0.0098 0)
(0.20412 -0.0294 0)
(0.20412 -0.049 0)
(0.20412 -0.0686 0)
(0.20412 -0.0882 0)
(0.20412 -0.1078 0)
(0.20412 -0.1274 0)
(0.20412 -0.147 0)
(0.20412 -0.1666 0)
(0.20412 -0.1862 0)
(0.20412 -0.2058 0)
(0.20412 -0.2254 0)
(0.20412 -0.245 0)
(0.20412 -0.2646 0)
(0.20412 -0.2842 0)
(0.20412 -0.3038 0)
(0.20412 -0.3234 0)
(0.20412 -0.343 0)
(0.20412 -0.3626 0)
(0.20412 -0.3822 0)
(0.20412 -0.4018 0)
(0.20412 -0.4214 0)
(0.20412 -0.441 0)
(0.20412 -0.4606 0)
(0.20412 -0.4802 0)
(0.20412 -0.4998 0)
(0.20412 -0.5194 0)
(0.20412 -0.539 0)
(0.20412 -0.5586 0)
(0.20412 -0.5782 0)
(0.20412 -0.5978 0)
(0.20412 -0.6174 0)
(0.20412 -0.637 0)
(0.20412 -0.6566 0)
(0.20412 -0.6762 0)
(0.20412 -0.6958 0)
(0.20412 -0.7154 0)
(0.20412 -0.735 0)
(0.20412 -0.7546 0)
(0.20412 -0.7742 0)
(0.20412 -0.7938 0)
(0.20412 -0.8134 0)
(0.20412 -0.833 0)
(0.20412 -0.8526 0)
(0.20412 -0.8722 0)
(0.20412 -0.8918 0)
(0.20412 -0.9114 0)
(0.20412 -0.931 0)
(0.20412 -0.9506 0)
(0.20412 -0.9702 0)
(0.23548 -0.0098 0)
(0.23548 -0.0294 0)
(0.23548 -0.049 0)
(0.23548 -0.0686 0)
(0.23548 -0.0882 0)
(0.23548 -0.1078 0)
(0.23548 -0.1274 0)
(0.23548 -0.147 0)
(0.23548 -0.1666 0)
(0.23548 -0.1862 0)
(0.23548 -0.2058 0)
(0.23548 -0.2254 0)
(0.23548 -0.245 0)
(0.23548 -0.2646 0)
(0.23548 -0.2842 0)
(0.23548 -0.3038 0)
(0.23548 -0.3234 0)
(0.23548 -0.343 0)
(0.23548 -0.3626 0)
(0.23548 -0.3822 0)
(0.23548 -0.4018 0)
(0.23548 -0.4214 0)
(0.23548 -0.441 0)
(0.23548 -0.4606 0)
(0.23548 -0.4802 0)
(0.23548 -0.4998 0)
(0.23548 -0.5194 0)
(0.23548 -0.539 0)
(0.23548 -0.5586 0)
(0.23548 -0.5782 0)
(0.23548 -0.5978 0)
(0.23548 -0.6174 0)
(0.23548 -0.637 0)
(0.23548 -0.6566 0)
(0.23548 -0.6762 0)
(0.23548 -0.6958 0)
(0.23548 -0.7154 0)
(0.23548 -0.735 0)
(0.23548 -0.7546 0)
(0.23548 -0.7742 0)
(0.23548 -0.7938 0)
(0.23548 -0.8134 0)
(0.23548 -0.833 0)
(0.23548 -0.8526 0)
(0.23548 -0.8722 0)
(0.23548 -0.8918 0)
(0.23548 -0.9114 0)
(0.23548 -0.931 0)
(0.23548 -0.9506 0)
(0.23548 -0.9702 0)
(0.26908 -0.0098 0)
(0.26908 -0.0294 0)
(0.26908 -0.049 0)
(0.26908 -0.0686 0)
(0.26908 -0.0882 0)
(0.26908 -0.1078 0)
(0.26908 -0.1274 0)
(0.26908 -0.147 0)
(0.26908 -0.1666 0)
(0.26908 -0.1862 0)
(0.26908 -0.2058 0)
(0.26908 -0.2254 0)
(0.26908 -0.245 0)
(0.26908 -0.2646 0)
(0.26908 -0.2842 0)
(0.26908 -0.3038 0)
(0.26908 -0.3234 0)
(0.26908 -0.343 0)
(0.26908 -0.3626 0)
(0.26908 -0.3822 0)
(0.26908 -0.4018 0)
(0.26908 -0.4214 0)
(0.26908 -0.441 0)
(0.26908 -0.4606 0)
(0.26908 -0.4802 0)
(0.26908 -0.4998 0)
(0.26908 -0.5194 0)
(0.26908 -0.539 0)
(0.26908 -0.5586 0)
(0.26908 -0.5782 0)
(0.26908 -0.5978 0)
(0.26908 -0.6174 0)
(0.26908 -0.637 0)
(0.26908 -0.6566 0)
(0.26908 -0.6762 0)
(0.26908 -0.6958 0)
(0.26908 -0.7154 0)
(0.26908 -0.735 0)
(0.26908 -0.7546 0)
(0.26908 -0.7742 0)
(0.26908 -0.7938 0)
(0.26908 -0.8134 0)
(0.26908 -0.833 0)
(0.26908 -0.8526 0)
(0.26908 -0.8722 0)
(0.26908 -0.8918 0)
(0.26908 -0.9114 0)
(0.26908 -0.931 0)
(0.26908 -0.9506 0)
(0.26908 -0.9702 0)
(0.30492 -0.0098 0)
(0.30492 -0.0294 0)
(0.30492 -0.049 0)
(0.30492 -0.0686 0)
(0.30492 -0.0882 0)
(0.30492 -0.1078 0)
(0.30492 -0.1274 0)
(0.30492 -0.147 0)
(0.30492 -0.1666 0)
(0.30492 -0.1862 0)
(0.30492 -0.2058 0)
(0.30492 -0.2254 0)
(0.30492 -0.245 0)
(0.30492 -0.2646 0)
(0.30492 -0.2842 0)
(0.30492 -0.3038 0)
(0.30492 -0.3234 0)
(0.30492 -0.343 0)
(0.30492 -0.3626 0)
(0.30492 -0.3822 0)
(0.30492 -0.4018 0)
(0.30492 -0.4214 0)
(0.30492 -0.441 0)
(0.30492 -0.4606 0)
(0.30492 -0.4802 0)
(0.30492 -0.4998 0)
(0.30492 -0.5194 0)
(0.30492 -0.539 0)
(0.30492 -0.5586 0)
(0.30492 -0.5782 0)
(0.30492 -0.5978 0)
(0.30492 -0.6174 0)
(0.30492 -0.637 0)
(0.30492 -0.6566 0)
(0.30492 -0.6762 0)
(0.30492 -0.6958 0)
(0.30492 -0.7154 0)
(0.30492 -0.735 0)
(0.30492 -0.7546 0)
(0.30492 -0.7742 0)
(0.30492 -0.7938 0)
(0.30492 -0.8134 0)
(0.30492 -0.833 0)
(0.30492 -0.8526 0)
(0.30492 -0.8722 0)
(0.30492 -0.8918 0)
(0.30492 -0.9114 0)
(0.30492 -0.931 0)
(0.30492 -0.9506 0)
(0.30492 -0.9702 0)
(0.343 -0.0098 0)
(0.343 -0.0294 0)
(0.343 -0.049 0)
(0.343 -0.0686 0)
(0.343 -0.0882 0)
(0.343 -0.1078 0)
(0.343 -0.1274 0)
(0.343 -0.147 0)
(0.343 -0.1666 0)
(0.343 -0.1862 0)
(0.343 -0.2058 0)
(0.343 -0.2254 0)
(0.343 -0.245 0)
(0.343 -0.2646 0)
(0.343 -0.2842 0)
(0.343 -0.3038 0)
(0.343 -0.3234 0)
(0.343 -0.343 0)
(0.343 -0.3626 0)
(0.343 -0.3822 0)
(0.343 -0.4018 0)
(0.343 -0.4214 0)
(0.343 -0.441 0)
(0.343 -0.4606 0)
(0.343 -0.4802 0)
(0.343 -0.4998 0)
(0.343 -0.5194 0)
(0.343 -0.539 0)
(0.343 -0.5586 0)
(0.343 -0.5782 0)
(0.343 -0.5978 0)
(0.343 -0.6174 0)
(0.343 -0.637 0)
(0.343 -0.6566 0)
(0.343 -0.6762 0)
(0.343 -0.6958 0)
(0.343 -0.7154 0)
(0.343 -0.735 0)
(0.343 -0.7546 0)
(0.343 -0.7742 0)
(0.343 -0.7938 0)
(0.343 -0.8134 0)
(0.343 -0.833 0)
(0.343 -0.8526 0)
(0.343 -0.8722 0)
(0.343 -0.8918 0)
(0.343 -0.9114 0)
(0.343 -0.931 0)
(0.343 -0.9506 0)
(0.343 -0.9702 0)
(0.38332 -0.0098 0)
(0.38332 -0.0294 0)
(0.38332 -0.049 0)
(0.38332 -0.0686 0)
(0.38332 -0.0882 0)
(0.38332 -0.1078 0)
(0.38332 -0.1274 0)
(0.38332 -0.147 0)
(0.38332 -0.1666 0)
(0.38332 -0.1862 0)
(0.38332 -0.2058 0)
(0.38332 -0.2254 0)
(0.38332 -0.245 0)
(0.38332 -0.2646 0)
(0.38332 -0.2842 0)
(0.38332 -0.3038 0)
(0.38332 -0.3234 0)
(0.38332 -0.343 0)
(0.38332 -0.3626 0)
(0.38332 -0.3822 0)
(0.38332 -0.4018 0)
(0.38332 -0.4214 0)
(0.38332 -0.441 0)
(0.38332 -0.4606 0)
(0.38332 -0.4802 0)
(0.38332 -0.4998 0)
(0.38332 -0.5194 0)
(0.38332 -0.539 0)
(0.38332 -0.5586 0)
(0.38332 -0.5782 0)
(0.38332 -0.5978 0)
(0.38332 -0.6174 0)
(0.38332 -0.637 0)
(0.38332 -0.6566 0)
(0.38332 -0.6762 0)
(0.38332 -0.6958 0)
(0.38332 -0.7154 0)
(0.38332 -0.735 0)
(0.38332 -0.7546 0)
(0.38332 -0.7742 0)
(0.38332 -0.7938 0)
(0.38332 -0.8134 0)
(0.38332 -0.833 0)
(0.38332 -0.8526 0)
(0.38332 -0.8722 0)
(0.38332 -0.8918 0)
(0.38332 -0.9114 0)
(0.38332 -0.931 0)
(0.38332 -0.9506 0)
(0.38332 -0.9702 0)
(0.42588 -0.0098 0)
(0.42588 -0.0294 0)
(0.42588 -0.049 0)
(0.42588 -0.0686 0)
(0.42588 -0.0882 0)
(0.42588 -0.1078 0)
(0.42588 -0.1274 0)
(0.42588 -0.147 0)
(0.42588 -0.1666 0)
(0.42588 -0.1862 0)
(0.42588 -0.2058 0)
(0.42588 -0.2254 0)
(0.42588 -0.245 0)
(0.42588 -0.2646 0)
(0.42588 -0.2842 0)
(0.42588 -0.3038 0)
(0.42588 -0.3234 0)
(0.42588 -0.343 0)
(0.42588 -0.3626 0)
(0.42588 -0.3822 0)
(0.42588 -0.4018 0)
(0.42588 -0.4214 0)
(0.42588 -0.441 0)
(0.42588 -0.4606 0)
(0.42588 -0.4802 0)
(0.42588 -0.4998 0)
(0.42588 -0.5194 0)
(0.42588 -0.539 0)
(0.42588 -0.5586 0)
(0.42588 -0.5782 0)
(0.42588 -0.5978 0)
(0.42588 -0.6174 0)
(0.42588 -0.637 0)
(0.42588 -0.6566 0)
(0.42588 -0.6762 0)
(0.42588 -0.6958 0)
(0.42588 -0.7154 0)
(0.42588 -0.735 0)
(0.42588 -0.7546 0)
(0.42588 -0.7742 0)
(0.42588 -0.7938 0)
(0.42588 -0.8134 0)
(0.42588 -0.833 0)
(0.42588 -0.8526 0)
(0.42588 -0.8722 0)
(0.42588 -0.8918 0)
(0.42588 -0.9114 0)
(0.42588 -0.931 0)
(0.42588 -0.9506 0)
(0.42588 -0.9702 0)
(0.47068 -0.0098 0)
(0.47068 -0.0294 0)
(0.47068 -0.049 0)
(0.47068 -0.0686 0)
(0.47068 -0.0882 0)
(0.47068 -0.1078 0)
(0.47068 -0.1274 0)
(0.47068 -0.147 0)
(0.47068 -0.1666 0)
(0.47068 -0.1862 0)
(0.47068 -0.2058 0)
(0.47068 -0.2254 0)
(0.47068 -0.245 0)
(0.47068 -0.2646 0)
(0.47068 -0.2842 0)
(0.47068 -0.3038 0)
(0.47068 -0.3234 0)
(0.47068 -0.343 0)
(0.47068 -0.3626 0)
(0.47068 -0.3822 0)
(0.47068 -0.4018 0)
(0.47068 -0.4214 0)
(0.47068 -0.441 0)
(0.47068 -0.4606 0)
(0.47068 -0.4802 0)
(0.47068 -0.4998 0)
(0.47068 -0.5194 0)
(0.47068 -0.539 0)
(0.47068 -0.5586 0)
(0.47068 -0.5782 0)
(0.47068 -0.5978 0)
(0.47068 -0.6174 0)
(0.47068 -0.637 0)
(0.47068 -0.6566 0)
(0.47068 -0.6762 0)
(0.47068 -0.6958 0)
(0.47068 -0.7154 0)
(0.47068 -0.735 0)
(0.47068 -0.7546 0)
(0.47068 -0.7742 0)
(0.47068 -0.7938 0)
(0.47068 -0.8134 0)
(0.47068 -0.833 0)
(0.47068 -0.8526 0)
(0.47068 -0.8722 0)
(0.47068 -0.8918 0)
(0.47068 -0.9114 0)
(0.47068 -0.931 0)
(0.47068 -0.9506 0)
(0.47068 -0.9702 0)
(0.51772 -0.0098 0)
(0.51772 -0.0294 0)
(0.51772 -0.049 0)
(0.51772 -0.0686 0)
(0.51772 -0.0882 0)
(0.51772 -0.1078 0)
(0.51772 -0.1274 0)
(0.51772 -0.147 0)
(0.51772 -0.1666 0)
(0.51772 -0.1862 0)
(0.51772 -0.2058 0)
(0.51772 -0.2254 0)
(0.51772 -0.245 0)
(0.51772 -0.2646 0)
(0.51772 -0.2842 0)
(0.51772 -0.3038 0)
(0.51772 -0.3234 0)
(0.51772 -0.343 0)
(0.51772 -0.3626 0)
(0.51772 -0.3822 0)
(0.51772 -0.4018 0)
(0.51772 -0.4214 0)
(0.51772 -0.441 0)
(0.51772 -0.4606 0)
(0.51772 -0.4802 0)
(0.51772 -0.4998 0)
(0.51772 -0.5194 0)
(0.51772 -0.539 0)
(0.51772 -0.5586 0)
(0.51772 -0.5782 0)
(0.51772 -0.5978 0)
(0.51772 -0.6174 0)
(0.51772 -0.637 0)
(0.51772 -0.6566 0)
(0.51772 -0.6762 0)
(0.51772 -0.6958 0)
(0.51772 -0.7154 0)
(0.51772 -0.735 0)
(0.51772 -0.7546 0)
(0.51772 -0.7742 0)
(0.51772 -0.7938 0)
(0.51772 -0.8134 0)
(0.51772 -0.833 0)
(0.51772 -0.8526 0)
(0.51772 -0.8722 0)
(0.51772 -0.8918 0)
(0.51772 -0.9114 0)
(0.51772 -0.931 0)
(0.51772 -0.9506 0)
(0.51772 -0.9702 0)
(0.567 -0.0098 0)
(0.567 -0.0294 0)
(0.567 -0.049 0)
(0.567 -0.0686 0)
(0.567 -0.0882 0)
(0.567 -0.1078 0)
(0.567 -0.1274 0)
(0.567 -0.147 0)
(0.567 -0.1666 0)
(0.567 -0.1862 0)
(0.567 -0.2058 0)
(0.567 -0.2254 0)
(0.567 -0.245 0)
(0.567 -0.2646 0)
(0.567 -0.2842 0)
(0.567 -0.3038 0)
(0.567 -0.3234 0)
(0.567 -0.343 0)
(0.567 -0.3626 0)
(0.567 -0.3822 0)
(0.567 -0.4018 0)
(0.567 -0.4214 0)
(0.567 -0.441 0)
(0.567 -0.4606 0)
(0.567 -0.4802 0)
(0.567 -0.4998 0)
(0.567 -0.5194 0)
(0.567 -0.539 0)
(0.567 -0.5586 0)
(0.567 -0.5782 0)
(0.567 -0.5978 0)
(0.567 -0.6174 0)
(0.567 -0.637 0)
(0.567 -0.6566 0)
(0.567 -0.6762 0)
(0.567 -0.6958 0)
(0.567 -0.7154 0)
(0.567 -0.735 0)
(0.567 -0.7546 0)
(0.567 -0.7742 0)
(0.567 -0.7938 0)
(0.567 -0.8134 0)
(0.567 -0.833 0)
(0.567 -0.8526 0)
(0.567 -0.8722 0)
(0.567 -0.8918 0)
(0.567 -0.9114 0)
(0.567 -0.931 0)
(0.567 -0.9506 0)
(0.567 -0.9702 0)
(0.61852 -0.0098 0)
(0.61852 -0.0294 0)
(0.61852 -0.049 0)
(0.61852 -0.0686 0)
(0.61852 -0.0882 0)
(0.61852 -0.1078 0)
(0.61852 -0.1274 0)
(0.61852 -0.147 0)
(0.61852 -0.1666 0)
(0.61852 -0.1862 0)
(0.61852 -0.2058 0)
(0.61852 -0.2254 0)
(0.61852 -0.245 0)
(0.61852 -0.2646 0)
(0.61852 -0.2842 0)
(0.61852 -0.3038 0)
(0.61852 -0.3234 0)
(0.61852 -0.343 0)
(0.61852 -0.3626 0)
(0.61852 -0.3822 0)
(0.61852 -0.4018 0)
(0.61852 -0.4214 0)
(0.61852 -0.441 0)
(0.61852 -0.4606 0)
(0.61852 -0.4802 0)
(0.61852 -0.4998 0)
(0.61852 -0.5194 0)
(0.61852 -0.539 0)
(0.61852 -0.5586 0)
(0.61852 -0.5782 0)
(0.61852 -0.5978 0)
(0.61852 -0.6174 0)
(0.61852 -0.637 0)
(0.61852 -0.6566 0)
(0.61852 -0.6762 0)
(0.61852 -0.6958 0)
(0.61852 -0.7154 0)
(0.61852 -0.735 0)
(0.61852 -0.7546 0)
(0.61852 -0.7742 0)
(0.61852 -0.7938 0)
(0.61852 -0.8134 0)
(0.61852 -0.833 0)
(0.61852 -0.8526 0)
(0.61852 -0.8722 0)
(0.61852 -0.8918 0)
(0.61852 -0.9114 0)
(0.61852 -0.931 0)
(0.61852 -0.9506 0)
(0.61852 -0.9702 0)
(0.67228 -0.0098 0)
(0.67228 -0.0294 0)
(0.67228 -0.049 0)
(0.67228 -0.0686 0)
(0.67228 -0.0882 0)
(0.67228 -0.1078 0)
(0.67228 -0.1274 0)
(0.67228 -0.147 0)
(0.67228 -0.1666 0)
(0.67228 -0.1862 0)
(0.67228 -0.2058 0)
(0.67228 -0.2254 0)
(0.67228 -0.245 0)
(0.67228 -0.2646 0)
(0.67228 -0.2842 0)
(0.67228 -0.3038 0)
(0.67228 -0.3234 0)
(0.67228 -0.343 0)
(0.67228 -0.3626 0)
(0.67228 -0.3822 0)
(0.67228 -0.4018 0)
(0.67228 -0.4214 0)
(0.67228 -0.441 0)
(0.67228 -0.4606 0)
(0.67228 -0.4802 0)
(0.67228 -0.4998 0)
(0.67228 -0.5194 0)
(0.67228 -0.539 0)
(0.67228 -0.5586 0)
(0.67228 -0.5782 0)
(0.67228 -0.5978 0)
(0.67228 -0.6174 0)
(0.67228 -0.637 0)
(0.67228 -0.6566 0)
(0.67228 -0.6762 0)
(0.67228 -0.6958 0)
(0.67228 -0.7154 0)
(0.67228 -0.735 0)
(0.67228 -0.7546 0)
(0.67228 -0.7742 0)
(0.67228 -0.7938 0)
(0.67228 -0.8134 0)
(0.67228 -0.833 0)
(0.67228 -0.8526 0)
(0.67228 -0.8722 0)
(0.67228 -0.8918 0)
(0.67228 -0.9114 0)
(0.67228 -0.931 0)
(0.67228 -0.9506 0)
(0.67228 -0.9702 0)
(0.72828 -0.0098 0)
(0.72828 -0.0294 0)
(0.72828 -0.049 0)
(0.72828 -0.0686 0)
(0.72828 -0.0882 0)
(0.72828 -0.1078 0)
(0.72828 -0.1274 0)
(0.72828 -0.147 0)
(0.72828 -0.1666 0)
(0.72828 -0.1862 0)
(0.72828 -0.2058 0)
(0.72828 -0.2254 0)
(0.72828 -0.245 0)
(0.72828 -0.2646 0)
(0.72828 -0.2842 0)
(0.72828 -0.3038 0)
(0.72828 -0.3234 0)
(0.72828 -0.343 0)
(0.72828 -0.3626 0)
(0.72828 -0.3822 0)
(0.72828 -0.4018 0)
(0.72828 -0.4214 0)
(0.72828 -0.441 0)
(0.72828 -0.4606 0)
(0.72828 -0.4802 0)
(0.72828 -0.4998 0)
(0.72828 -0.5194 0)
(0.72828 -0.539 0)
(0.72828 -0.5586 0)
(0.72828 -0.5782 0)
(0.72828 -0.5978 0)
(0.72828 -0.6174 0)
(0.72828 -0.637 0)
(0.72828 -0.6566 0)
(0.72828 -0.6762 0)
(0.72828 -0.6958 0)
(0.72828 -0.7154 0)
(0.72828 -0.735 0)
(0.72828 -0.7546 0)
(0.72828 -0.7742 0)
(0.72828 -0.7938 0)
(0.72828 -0.8134 0)
(0.72828 -0.833 0)
(0.72828 -0.8526 0)
(0.72828 -0.8722 0)
(0.72828 -0.8918 0)
(0.72828 -0.9114 0)
(0.72828 -0.931 0)
(0.72828 -0.9506 0)
(0.72828 -0.9702 0)
(0.78652 -0.0098 0)
(0.78652 -0.0294 0)
(0.78652 -0.049 0)
(0.78652 -0.0686 0)
(0.78652 -0.0882 0)
(0.78652 -0.1078 0)
(0.78652 -0.1274 0)
(0.78652 -0.147 0)
(0.78652 -0.1666 0)
(0.78652 -0.1862 0)
(0.78652 -0.2058 0)
(0.78652 -0.2254 0)
(0.78652 -0.245 0)
(0.78652 -0.2646 0)
(0.78652 -0.2842 0)
(0.78652 -0.3038 0)
(0.78652 -0.3234 0)
(0.78652 -0.343 0)
(0.78652 -0.3626 0)
(0.78652 -0.3822 0)
(0.78652 -0.4018 0)
(0.78652 -0.4214 0)
(0.78652 -0.441 0)
(0.78652 -0.4606 0)
(0.78652 -0.4802 0)
(0.78652 -0.4998 0)
(0.78652 -0.5194 0)
(0.78652 -0.539 0)
(0.78652 -0.5586 0)
(0.78652 -0.5782 0)
(0.78652 -0.5978 0)
(0.78652 -0.6174 0)
(0.78652 -0.637 0)
(0.78652 -0.6566 0)
(0.78652 -0.6762 0)
(0.78652 -0.6958 0)
(0.78652 -0.7154 0)
(0.78652 -0.735 0)
(0.78652 -0.7546 0)
(0.78652 -0.7742 0)
(0.78652 -0.7938 0)
(0.78652 -0.8134 0)
(0.78652 -0.833 0)
(0.78652 -0.8526 0)
(0.78652 -0.8722 0)
(0.78652 -0.8918 0)
(0.78652 -0.9114 0)
(0.78652 -0.931 0)
(0.78652 -0.9506 0)
(0.78652 -0.9702 0)
(0.847 -0.0098 0)
(0.847 -0.0294 0)
(0.847 -0.049 0)
(0.847 -0.0686 0)
(0.847 -0.0882 0)
(0.847 -0.1078 0)
(0.847 -0.1274 0)
(0.847 -0.147 0)
(0.847 -0.1666 0)
(0.847 -0.1862 0)
(0.847 -0.2058 0)
(0.847 -0.2254 0)
(0.847 -0.245 0)
(0.847 -0.2646 0)
(0.847 -0.2842 0)
(0.847 -0.3038 0)
(0.847 -0.3234 0)
(0.847 -0.343 0)
(0.847 -0.3626 0)
(0.847 -0.3822 0)
(0.847 -0.4018 0)
(0.847 -0.4214 0)
(0.847 -0.441 0)
(0.847 -0.4606 0)
(0.847 -0.4802 0)
(0.847 -0.4998 0)
(0.847 -0.5194 0)
(0.847 -0.539 0)
(0.847 -0.5586 0)
(0.847 -0.5782 0)
(0.847 -0.5978 0)
(0.847 -0.6174 0)
(0.847 -0.637 0)
(0.847 -0.6566 0)
(0.847 -0.6762 0)
(0.847 -0.6958 0)
(0.847 -0.7154 0)
(0.847 -0.735 0)
(0.847 -0.7546 0)
(0.847 -0.7742 0)
(0.847 -0.7938 0)
(0.847 -0.8134 0)
(0.847 -0.833 0)
(0.847 -0.8526 0)
(0.847 -0.8722 0)
(0.847 -0.8918 0)
(0.847 -0.9114 0)
(0.847 -0.931 0)
(0.847 -0.9506 0)
(0.847 -0.9702 0)
(0.90972 -0.0098 0)
(0.90972 -0.0294 0)
(0.90972 -0.049 0)
(0.90972 -0.0686 0)
(0.90972 -0.0882 0)
(0.90972 -0.1078 0)
(0.90972 -0.1274 0)
(0.90972 -0.147 0)
(0.90972 -0.1666 0)
(0.90972 -0.1862 0)
(0.90972 -0.2058 0)
(0.90972 -0.2254 0)
(0.90972 -0.245 0)
(0.90972 -0.2646 0)
(0.90972 -0.2842 0)
(0.90972 -0.3038 0)
(0.90972 -0.3234 0)
(0.90972 -0.343 0)
(0.90972 -0.3626 0)
(0.90972 -0.3822 0)
(0.90972 -0.4018 0)
(0.90972 -0.4214 0)
(0.90972 -0.441 0)
(0.90972 -0.4606 0)
(0.90972 -0.4802 0)
(0.90972 -0.4998 0)
(0.90972 -0.5194 0)
(0.90972 -0.539 0)
(0.90972 -0.5586 0)
(0.90972 -0.5782 0)
(0.90972 -0.5978 0)
(0.90972 -0.6174 0)
(0.90972 -0.637 0)
(0.90972 -0.6566 0)
(0.90972 -0.6762 0)
(0.90972 -0.6958 0)
(0.90972 -0.7154 0)
(0.90972 -0.735 0)
(0.90972 -0.7546 0)
(0.90972 -0.7742 0)
(0.90972 -0.7938 0)
(0.90972 -0.8134 0)
(0.90972 -0.833 0)
(0.90972 -0.8526 0)
(0.90972 -0.8722 0)
(0.90972 -0.8918 0)
(0.90972 -0.9114 0)
(0.90972 -0.931 0)
(0.90972 -0.9506 0)
(0.90972 -0.9702 0)
(0.97468 -0.0098 0)
(0.97468 -0.0294 0)
(0.97468 -0.049 0)
(0.97468 -0.0686 0)
(0.97468 -0.0882 0)
(0.97468 -0.1078 0)
(0.97468 -0.1274 0)
(0.97468 -0.147 0)
(0.97468 -0.1666 0)
(0.97468 -0.1862 0)
(0.97468 -0.2058 0)
(0.97468 -0.2254 0)
(0.97468 -0.245 0)
(0.97468 -0.2646 0)
(0.97468 -0.2842 0)
(0.97468 -0.3038 0)
(0.97468 -0.3234 0)
(0.97468 -0.343 0)
(0.97468 -0.3626 0)
(0.97468 -0.3822 0)
(0.97468 -0.4018 0)
(0.97468 -0.4214 0)
(0.97468 -0.441 0)
(0.97468 -0.4606 0)
(0.97468 -0.4802 0)
(0.97468 -0.4998 0)
(0.97468 -0.5194 0)
(0.97468 -0.539 0)
(0.97468 -0.5586 0)
(0.97468 -0.5782 0)
(0.97468 -0.5978 0)
(0.97468 -0.6174 0)
(0.97468 -0.637 0)
(0.97468 -0.6566 0)
(0.97468 -0.6762 0)
(0.97468 -0.6958 0)
(0.97468 -0.7154 0)
(0.97468 -0.735 0)
(0.97468 -0.7546 0)
(0.97468 -0.7742 0)
(0.97468 -0.7938 0)
(0.97468 -0.8134 0)
(0.97468 -0.833 0)
(0.97468 -0.8526 0)
(0.97468 -0.8722 0)
(0.97468 -0.8918 0)
(0.97468 -0.9114 0)
(0.97468 -0.931 0)
(0.97468 -0.9506 0)
(0.97468 -0.9702 0)
(1.04188 -0.0098 0)
(1.04188 -0.0294 0)