/*--------------------------------*- C++ -*----------------------------------*\
| =========                 |                                                 |
| \\      /  F ield         | OpenFOAM: The Open Source CFD Toolbox           |
|  \\    /   O peration     | Version:  v2006                                 |
|   \\  /    A nd           | Website:  www.openfoam.com                      |
|    \\/     M anipulation  |                                                 |
\*---------------------------------------------------------------------------*/
FoamFile
{
    version     2.0;
    format      ascii;
    class       volScalarField;
    location    "0";
    object      p;
}
// * * * * * * * * * * * * * * * * * * * * * * * * * * * * * * * * * * * * * //

dimensions      [1 -1 -2 0 0 0 0];


internalField   nonuniform List<scalar> 
20000
(
0.000161674
0.000162397
0.000163955
0.000166242
0.000169301
0.000173119
0.000177688
0.000182998
0.000189034
0.000195775
0.000203196
0.000211261
0.000219924
0.000229126
0.000238789
0.000248818
0.000259088
0.000269449
0.000279711
0.000289641
0.000298955
0.000307308
0.000314278
0.000319364
0.00032196
0.00032135
0.000316686
0.000306976
0.000291068
0.000267646
0.000235231
0.000192211
0.000136889
6.75796e-05
-1.72303e-05
-0.000118617
-0.000236841
-0.000370871
-0.000517855
-0.000672602
-0.000827258
-0.000971511
-0.00109397
-0.00118543
-0.00124434
-0.00128286
-0.00132587
-0.00138239
-0.00151079
-0.00169225
-0.00189266
-0.00207677
-0.00220033
-0.00224581
-0.00219597
-0.00204098
-0.00176989
-0.00137352
-0.000846022
-0.000185054
0.000605533
0.00151173
0.00250966
0.00357013
0.00466326
0.00576124
0.00683503
0.00785875
0.00880376
0.00965758
0.0104036
0.0110293
0.0115245
0.0118806
0.0120898
0.0121449
0.0120387
0.0117639
0.0113127
0.0106781
0.00986445
0.00885695
0.00761976
0.00616582
0.00449947
0.00262075
0.000577118
-0.00163573
-0.00395456
-0.00631995
-0.00866025
-0.0108924
-0.0129297
-0.0146895
-0.0161008
-0.0171116
-0.0176951
-0.0178517
-0.0176099
-0.0170232
-0.0161614
-0.0150973
-0.0138991
-0.0126425
-0.0113631
-0.0100956
-0.00886822
-0.00770807
-0.00664666
-0.00571525
-0.00493301
-0.00429674
-0.00377915
-0.00333866
-0.00293736
-0.00255429
-0.00218489
-0.00183279
-0.00150365
-0.00120281
-0.000933938
-0.000698472
-0.000495918
-0.000324475
-0.000181523
-6.40273e-05
3.11458e-05
0.000107032
0.000166455
0.000211971
0.000245841
0.00027004
0.000286274
0.000296002
0.00030046
0.000300695
0.000297585
0.000291862
0.000284138
0.000274916
0.000264612
0.000253567
0.000242059
0.000230311
0.000218502
0.000206777
0.000195245
0.000183992
0.000173085
0.00016257
0.00015248
0.000142836
0.000133652
0.000124934
0.000116715
0.000108896
0.000101526
9.45884e-05
8.80762e-05
8.19644e-05
7.62375e-05
7.08764e-05
6.5863e-05
6.1179e-05
5.68062e-05
5.2727e-05
4.89244e-05
4.53814e-05
4.20824e-05
3.90119e-05
3.61552e-05
3.34984e-05
3.10282e-05
2.87322e-05
2.65985e-05
2.46162e-05
2.27747e-05
2.10643e-05
1.94756e-05
1.79999e-05
1.66291e-05
1.53556e-05
1.41722e-05
1.30724e-05
1.20499e-05
1.10988e-05
1.02138e-05
9.3895e-06
8.62115e-06
7.90424e-06
7.23452e-06
6.60811e-06
6.02134e-06
5.47075e-06
4.95325e-06
4.46573e-06
4.00583e-06
3.56918e-06
3.15905e-06
2.75566e-06
0.000161604
0.000162327
0.000163886
0.000166174
0.000169234
0.000173052
0.000177622
0.000182933
0.000188971
0.000195714
0.000203138
0.000211207
0.000219876
0.000229085
0.000238757
0.000248797
0.000259081
0.000269459
0.000279742
0.000289698
0.000299044
0.000307435
0.000314451
0.000319591
0.000322253
0.000321719
0.000317145
0.000307539
0.000291749
0.00026846
0.000236189
0.000193319
0.000138144
6.89634e-05
-1.57611e-05
-0.000117139
-0.000235471
-0.000369771
-0.000517225
-0.000672668
-0.000828219
-0.000973435
-0.0010966
-0.00118795
-0.00124542
-0.00128134
-0.00132501
-0.00142102
-0.00156496
-0.00174703
-0.00193972
-0.00211365
-0.00222675
-0.00226481
-0.00220909
-0.00204819
-0.00177109
-0.00136876
-0.000835625
-0.000169589
0.000625181
0.00153428
0.00253357
0.00359422
0.00468679
0.00578157
0.00685037
0.00786876
0.00881372
0.00966794
0.0104147
0.0110411
0.0115369
0.0118934
0.012103
0.0121584
0.0120524
0.0117777
0.0113262
0.0106884
0.00984809
0.00880182
0.00755832
0.00610573
0.00444228
0.00256505
0.000530728
-0.00166998
-0.00397777
-0.00633181
-0.00865994
-0.0108807
-0.0129088
-0.0146621
-0.0160697
-0.0170794
-0.0176638
-0.0178228
-0.0175844
-0.0170004
-0.0161406
-0.0150826
-0.0138991
-0.0126418
-0.0113606
-0.0100913
-0.00886173
-0.00769901
-0.00663511
-0.00570225
-0.00492035
-0.00428635
-0.00377215
-0.00333479
-0.00293535
-0.00255284
-0.00218327
-0.00183073
-0.00150114
-0.00119998
-0.000930982
-0.000695546
-0.000493141
-0.000321925
-0.000179237
-6.20175e-05
3.2886e-05
0.00010852
0.000167714
0.000213026
0.000246718
0.000270764
0.000286866
0.000296481
0.000300845
0.000301
0.000297823
0.000292045
0.000284275
0.000275015
0.00026468
0.000253611
0.000242082
0.000230317
0.000218496
0.00020676
0.00019522
0.000183962
0.00017305
0.000162532
0.000152439
0.000142794
0.000133607
0.000124882
0.000116602
0.000108803
0.000101452
9.45286e-05
8.80278e-05
8.19234e-05
7.62019e-05
7.08453e-05
6.58357e-05
6.11551e-05
5.67852e-05
5.27086e-05
4.89081e-05
4.53671e-05
4.20697e-05
3.90007e-05
3.61453e-05
3.34896e-05
3.10204e-05
2.87253e-05
2.65924e-05
2.46108e-05
2.27699e-05
2.106e-05
1.94718e-05
1.79966e-05
1.66262e-05
1.5353e-05
1.417e-05
1.30705e-05
1.20482e-05
1.10975e-05
1.02127e-05
9.3886e-06
8.62045e-06
7.90375e-06
7.23424e-06
6.60803e-06
6.02146e-06
5.47107e-06
4.9538e-06
4.46658e-06
4.00712e-06
3.57103e-06
3.16178e-06
2.74974e-06
0.000161466
0.00016219
0.000163749
0.000166036
0.000169097
0.000172917
0.000177489
0.000182803
0.000188844
0.000195593
0.000203023
0.000211101
0.00021978
0.000229003
0.000238693
0.000248755
0.000259067
0.000269479
0.000279805
0.000289813
0.000299221
0.000307688
0.000314796
0.000320045
0.000322836
0.000322456
0.000318062
0.000308663
0.000293111
0.000270086
0.000238103
0.000195534
0.000140656
7.17379e-05
-1.28057e-05
-0.000114152
-0.000232687
-0.00036752
-0.000515923
-0.000672773
-0.000830115
-0.000977222
-0.00110183
-0.00119345
-0.00124951
-0.00128236
-0.00131965
-0.00139765
-0.00152799
-0.00171124
-0.00191548
-0.00209504
-0.00222503
-0.00226992
-0.00222096
-0.00206673
-0.00179606
-0.00139955
-0.000871188
-0.000208044
0.000586577
0.0014984
0.00250271
0.0035699
0.00466982
0.00577263
0.00685029
0.00787399
0.00882815
0.00968609
0.0104356
0.0110642
0.0115619
0.0119202
0.0121315
0.0121889
0.0120849
0.0118124
0.0113637
0.0107315
0.00990622
0.00887895
0.00764383
0.00619285
0.00452785
0.00268289
0.000592651
-0.00162065
-0.00394634
-0.00632345
-0.00867788
-0.0109263
-0.0129808
-0.0147569
-0.0161813
-0.0172004
-0.0177861
-0.0179383
-0.0176859
-0.0170829
-0.0162026
-0.0151248
-0.0139224
-0.012651
-0.0113607
-0.0100851
-0.00885001
-0.00768149
-0.00661225
-0.00567625
-0.00489495
-0.00426552
-0.00375818
-0.00332715
-0.00293144
-0.00255003
-0.00218007
-0.00182662
-0.00149612
-0.00119432
-0.000925057
-0.000689685
-0.000487583
-0.00031682
-0.000174664
-5.79982e-05
3.63648e-05
0.000111494
0.00017023
0.000215135
0.000248471
0.000272208
0.000288047
0.000297438
0.000301613
0.000301609
0.000298299
0.000292411
0.000284549
0.000275213
0.000264817
0.000253697
0.000242127
0.00023033
0.000218483
0.000206726
0.000195171
0.000183901
0.00017298
0.000162456
0.00015236
0.000142714
0.00013353
0.000124813
0.00011655
0.000108754
0.000101397
9.44758e-05
8.79652e-05
8.18602e-05
7.6139e-05
7.07834e-05
6.57754e-05
6.10965e-05
5.67288e-05
5.26545e-05
4.88564e-05
4.53179e-05
4.20231e-05
3.89565e-05
3.61035e-05
3.34503e-05
3.09834e-05
2.86905e-05
2.65598e-05
2.45802e-05
2.27414e-05
2.10333e-05
1.94469e-05
1.79734e-05
1.66046e-05
1.53329e-05
1.41513e-05
1.30531e-05
1.20321e-05
1.10825e-05
1.01987e-05
9.37568e-06
8.60847e-06
7.89267e-06
7.22398e-06
6.59855e-06
6.01269e-06
5.46298e-06
4.94634e-06
4.4597e-06
4.00075e-06
3.56516e-06
3.15526e-06
2.74483e-06
0.000161259
0.000161983
0.000163542
0.000165831
0.000168893
0.000172716
0.00017729
0.000182608
0.000188654
0.00019541
0.00020285
0.00021094
0.000219636
0.00022888
0.000238597
0.000248691
0.000259045
0.000269509
0.000279897
0.000289983
0.000299486
0.000308066
0.000315311
0.000320724
0.00032371
0.000323559
0.000319433
0.000310346
0.000295149
0.000272523
0.000240973
0.000198859
0.000144429
7.59073e-05
-8.36536e-06
-0.000109668
-0.000228511
-0.000364139
-0.000513954
-0.000672909
-0.00083298
-0.000983066
-0.00110998
-0.00120166
-0.00125381
-0.00127888
-0.00130943
-0.00138728
-0.00152882
-0.00172491
-0.00194016
-0.00212935
-0.00225821
-0.00230476
-0.00225637
-0.00210226
-0.00183091
-0.00143273
-0.000901756
-0.000234556
0.000566167
0.00148578
0.00249838
0.00357323
0.00467976
0.00578832
0.00687062
0.00790187
0.00885505
0.00971619
0.0104685
0.0110995
0.0115992
0.0119592
0.0121719
0.0122304
0.0121275
0.011856
0.0114081
0.010775
0.00994648
0.00891417
0.00767437
0.0062208
0.00455202
0.00266451
0.000611688
-0.00161049
-0.0039478
-0.00633876
-0.00870869
-0.0109731
-0.013043
-0.0148322
-0.0162659
-0.0172893
-0.0178734
-0.0180182
-0.0177534
-0.017135
-0.016239
-0.0151469
-0.0139324
-0.0126525
-0.0113549
-0.0100729
-0.00883089
-0.00765435
-0.00657731
-0.00563667
-0.00485636
-0.00423398
-0.00373725
-0.00331592
-0.00292583
-0.00254596
-0.00217533
-0.00182046
-0.00148856
-0.00118579
-0.000916133
-0.000680866
-0.000479227
-0.000309153
-0.0001678
-5.19702e-05
4.15795e-05
0.000115949
0.000173998
0.000218292
0.000251094
0.000274371
0.000289815
0.00029887
0.000302761
0.00030252
0.000299011
0.000292957
0.000284957
0.000275509
0.00026502
0.000253825
0.000242194
0.000230348
0.000218462
0.000206675
0.000195096
0.000183809
0.000172875
0.000162342
0.000152239
0.000142588
0.0001334
0.000124677
0.000116414
0.000108616
0.000101265
9.43468e-05
8.78496e-05
8.17519e-05
7.60375e-05
7.06886e-05
6.56867e-05
6.10138e-05
5.66516e-05
5.25824e-05
4.87893e-05
4.52554e-05
4.19649e-05
3.89024e-05
3.60533e-05
3.34036e-05
3.094e-05
2.86502e-05
2.65225e-05
2.45456e-05
2.27093e-05
2.10037e-05
1.94194e-05
1.79479e-05
1.65811e-05
1.53112e-05
1.41312e-05
1.30346e-05
1.2015e-05
1.10668e-05
1.01843e-05
9.36242e-06
8.5963e-06
7.88152e-06
7.2138e-06
6.58926e-06
6.00426e-06
5.45535e-06
4.93946e-06
4.45354e-06
3.99525e-06
3.56016e-06
3.15082e-06
2.74155e-06
0.000160984
0.000161707
0.000163267
0.000165557
0.000168621
0.000172446
0.000177024
0.000182347
0.000188401
0.000195166
0.000202619
0.000210726
0.000219444
0.000228715
0.000238467
0.000248606
0.000259015
0.000269547
0.000280019
0.000290207
0.000299835
0.000308567
0.000315993
0.000321624
0.000324869
0.000325024
0.000321256
0.000312584
0.000297862
0.000275767
0.000244797
0.000203292
0.000149467
8.14855e-05
-2.40494e-06
-0.000103619
-0.000222841
-0.000359506
-0.000511203
-0.000673
-0.000836771
-0.000990876
-0.00112094
-0.00121301
-0.00126103
-0.00127744
-0.00129797
-0.00136812
-0.00150941
-0.00171149
-0.00193645
-0.002137
-0.0022775
-0.00233138
-0.00228872
-0.00214019
-0.00187377
-0.00147951
-0.000951201
-0.000284183
0.000520227
0.00144726
0.0024695
0.00355486
0.00467231
0.00579197
0.00688468
0.00792212
0.00888626
0.00975371
0.0105109
0.0111459
0.0116489
0.012012
0.0122278
0.0122895
0.0121901
0.0119223
0.0114784
0.0108499
0.0100271
0.0090011
0.00776579
0.00631354
0.00464353
0.00276823
0.000683625
-0.00155893
-0.00392027
-0.00634032
-0.0087434
-0.011043
-0.0131473
-0.0149667
-0.0164233
-0.0174595
-0.0180449
-0.0181796
-0.0178945
-0.0172488
-0.0163226
-0.015202
-0.0139631
-0.0126644
-0.0113524
-0.0100594
-0.00880703
-0.0076189
-0.00653073
-0.0055834
-0.00480428
-0.00419156
-0.00370946
-0.00330143
-0.00291885
-0.00254086
-0.00216914
-0.00181227
-0.00147843
-0.00117435
-0.00090417
-0.000669059
-0.000468053
-0.000298913
-0.000158644
-4.39352e-05
4.85255e-05
0.000121881
0.000179011
0.000222491
0.000254582
0.000277245
0.000292163
0.000300772
0.000304286
0.000303728
0.000299955
0.00029368
0.000285499
0.000275901
0.000265289
0.000253993
0.000242282
0.000230371
0.000218433
0.000206606
0.000194996
0.000183685
0.000172735
0.000162189
0.000152079
0.000142425
0.000133236
0.000124517
0.00011626
0.000108466
0.00010112
9.42075e-05
8.77116e-05
8.1618e-05
7.59086e-05
7.0565e-05
6.55688e-05
6.09015e-05
5.65451e-05
5.24816e-05
4.86941e-05
4.51658e-05
4.18806e-05
3.88233e-05
3.5979e-05
3.3334e-05
3.0875e-05
2.85895e-05
2.64658e-05
2.44928e-05
2.26601e-05
2.09579e-05
1.93769e-05
1.79084e-05
1.65443e-05
1.52771e-05
1.40997e-05
1.30054e-05
1.1988e-05
1.10418e-05
1.01612e-05
9.34109e-06
8.57664e-06
7.86342e-06
7.19717e-06
6.574e-06
5.99028e-06
5.44259e-06
4.92785e-06
4.44298e-06
3.98568e-06
3.55146e-06
3.14301e-06
2.73481e-06
0.000160639
0.000161362
0.000162922
0.000165214
0.000168281
0.000172109
0.000176691
0.000182021
0.000188083
0.000194861
0.000202329
0.000210457
0.000219202
0.000228507
0.000238303
0.000248497
0.000258974
0.000269591
0.000280168
0.000290484
0.000300268
0.000309187
0.000316841
0.000322743
0.00032631
0.000326847
0.000323525
0.000315371
0.000301243
0.000279815
0.000249574
0.000208837
0.000155779
8.84887e-05
5.09375e-06
-9.59927e-05
-0.00021567
-0.000353615
-0.000507651
-0.00067301
-0.000841493
-0.00100087
-0.00113526
-0.00122809
-0.00127031
-0.00127405
-0.00128029
-0.00134287
-0.00148965
-0.00170727
-0.00195143
-0.00216881
-0.00231872
-0.00237831
-0.00234003
-0.0021957
-0.00193241
-0.00153977
-0.00101145
-0.000341425
0.000470596
0.00140937
0.00244527
0.00354438
0.004675
0.005807
0.00691074
0.00796001
0.00892921
0.00980302
0.0105655
0.0112048
0.0117115
0.0120777
0.0122963
0.0123606
0.0122638
0.0119986
0.0115574
0.0109317
0.0101115
0.00908766
0.00785289
0.00639952
0.00472543
0.00283452
0.000744799
-0.0015154
-0.00390154
-0.00635245
-0.00879091
-0.0111279
-0.0132683
-0.0151191
-0.0165987
-0.0176466
-0.0182312
-0.0183524
-0.0180427
-0.017365
-0.0164046
-0.0152532
-0.013989
-0.012671
-0.0113444
-0.01004
-0.0087759
-0.00757365
-0.00647137
-0.00551541
-0.00473781
-0.00413776
-0.00367484
-0.0032841
-0.00291093
-0.00253498
-0.0021616
-0.00180204
-0.00146568
-0.00115992
-0.000889108
-0.000654218
-0.000454035
-0.000286087
-0.00014719
-3.3895e-05
5.71969e-05
0.00012928
0.000185261
0.000227723
0.000258926
0.000280822
0.000295085
0.000303138
0.000306182
0.00030523
0.000301127
0.000294579
0.000286171
0.000276386
0.000265621
0.000254201
0.000242389
0.000230397
0.000218396
0.000206519
0.00019487
0.00018353
0.000172558
0.000161998
0.000151878
0.000142218
0.000133026
0.000124305
0.000116051
0.000108261
0.000100919
9.40114e-05
8.75271e-05
8.14426e-05
7.57423e-05
7.04076e-05
6.54202e-05
6.07615e-05
5.64134e-05
5.2358e-05
4.85782e-05
4.50572e-05
4.1779e-05
3.87283e-05
3.58904e-05
3.32514e-05
3.07979e-05
2.85178e-05
2.6399e-05
2.44308e-05
2.26025e-05
2.09044e-05
1.93272e-05
1.78623e-05
1.65017e-05
1.52376e-05
1.40631e-05
1.29716e-05
1.19568e-05
1.1013e-05
1.01346e-05
9.31662e-06
8.55413e-06
7.84273e-06
7.17819e-06
6.55663e-06
5.97443e-06
5.42816e-06
4.91476e-06
4.43115e-06
3.975e-06
3.54187e-06
3.13446e-06
2.7274e-06
0.000160225
0.000160948
0.000162509
0.000164802
0.000167872
0.000171704
0.000176292
0.000181629
0.000187702
0.000194493
0.000201981
0.000210133
0.00021891
0.000228256
0.000238104
0.000248363
0.000258922
0.00026964
0.000280342
0.000290811
0.00030078
0.000309925
0.000317849
0.000324075
0.000328028
0.000329021
0.000326234
0.000318702
0.000305287
0.000284661
0.0002553
0.000215493
0.000163369
9.69327e-05
1.41684e-05
-8.6717e-05
-0.000206886
-0.000346315
-0.000503135
-0.000672813
-0.000847106
-0.00101308
-0.00115304
-0.0012471
-0.00128247
-0.00127071
-0.00125924
-0.00131211
-0.00146364
-0.00169712
-0.00196099
-0.00219641
-0.0023591
-0.0024267
-0.00239484
-0.00225698
-0.00199904
-0.00161011
-0.00108388
-0.000412357
0.000407098
0.0013588
0.00241034
0.00352553
0.00467201
0.00581944
0.00693735
0.00799748
0.0089785
0.00986079
0.0106301
0.0112748
0.0117862
0.0121566
0.0123792
0.0124476
0.0123551
0.0120947
0.0116585
0.011038
0.0102233
0.00920453
0.00797305
0.00652031
0.00484266
0.00294642
0.000836146
-0.00144938
-0.00386874
-0.00636022
-0.00884497
-0.0112311
-0.0134194
-0.0153123
-0.0168233
-0.0178883
-0.0184734
-0.0185787
-0.0182385
-0.0175199
-0.0165157
-0.0153242
-0.014027
-0.0126832
-0.0113376
-0.0100186
-0.00873991
-0.0075198
-0.00639945
-0.00543224
-0.00465627
-0.00407216
-0.0036336
-0.00326453
-0.00290268
-0.00252867
-0.00215285
-0.00178978
-0.00145025
-0.00114243
-0.000870874
-0.000636292
-0.000437137
-0.000270656
-0.000133433
-2.18531e-05
6.75854e-05
0.000138136
0.000192736
0.000233977
0.000264115
0.000285093
0.000298572
0.000305959
0.000308443
0.000307019
0.000302523
0.000295647
0.000286968
0.000276961
0.000266013
0.000254445
0.000242513
0.000230425
0.000218348
0.000206411
0.000194717
0.000183342
0.000172345
0.000161767
0.000151636
0.000141969
0.000132776
0.000124057
0.000115808
0.000108023
0.00010069
9.37935e-05
8.73134e-05
8.12377e-05
7.55466e-05
7.02212e-05
6.52432e-05
6.05939e-05
5.6255e-05
5.22087e-05
4.84377e-05
4.49252e-05
4.16552e-05
3.86123e-05
3.57819e-05
3.31499e-05
3.07032e-05
2.84294e-05
2.63167e-05
2.43542e-05
2.25312e-05
2.08381e-05
1.92657e-05
1.78052e-05
1.64487e-05
1.51885e-05
1.40177e-05
1.29295e-05
1.19179e-05
1.09771e-05
1.01015e-05
9.28603e-06
8.52596e-06
7.81682e-06
7.1544e-06
6.53483e-06
5.9545e-06
5.41001e-06
4.89826e-06
4.4162e-06
3.96149e-06
3.52971e-06
3.12359e-06
2.7179e-06
0.000159742
0.000160465
0.000162026
0.000164322
0.000167395
0.000171231
0.000175825
0.000181171
0.000187256
0.000194064
0.000201573
0.000209754
0.000218567
0.000227961
0.000237869
0.000248203
0.000258857
0.000269692
0.000280538
0.000291184
0.000301369
0.000310774
0.000319013
0.000325615
0.000330017
0.00033154
0.000329375
0.000322567
0.000309986
0.0002903
0.000261971
0.000223262
0.00017225
0.000106843
2.48597e-05
-7.57371e-05
-0.000196423
-0.000337534
-0.000497575
-0.00067233
-0.000853574
-0.00102766
-0.00117478
-0.00127096
-0.00129825
-0.00126689
-0.00123238
-0.00127271
-0.00143059
-0.00168532
-0.0019757
-0.00223451
-0.00241217
-0.00248809
-0.00246293
-0.00233214
-0.00207985
-0.00169456
-0.00117023
-0.000496339
0.000332876
0.00130102
0.00237195
0.00350656
0.00467186
0.00583731
0.00697152
0.00804586
0.00903803
0.00992963
0.0107064
0.0113574
0.0118739
0.0122488
0.0124758
0.0125483
0.01246
0.012204
0.0117726
0.0111571
0.0103476
0.00933354
0.00810508
0.00665248
0.00497023
0.00305869
0.000935303
-0.00137766
-0.00383398
-0.00637122
-0.00890867
-0.011351
-0.0135943
-0.0155354
-0.0170823
-0.0181663
-0.0187512
-0.0188369
-0.0184599
-0.0176928
-0.016637
-0.0153993
-0.0140648
-0.0126926
-0.0113264
-0.00999216
-0.00869741
-0.00745625
-0.00631379
-0.00533251
-0.00455834
-0.00399401
-0.00358587
-0.00324347
-0.00289482
-0.00252232
-0.00214302
-0.00177548
-0.00143204
-0.00112177
-0.000849375
-0.000615212
-0.000417319
-0.000252601
-0.000117367
-7.81329e-06
7.96811e-05
0.000148437
0.000201422
0.000241237
0.000270135
0.000290046
0.000302614
0.000309228
0.000311059
0.000309089
0.000304136
0.000296881
0.000287888
0.000277622
0.000266464
0.000254723
0.000242652
0.000230454
0.000218288
0.000206282
0.000194535
0.000183121
0.000172095
0.000161496
0.000151352
0.000141678
0.000132482
0.000123764
0.00011552
0.000107741
0.000100415
9.35278e-05
8.70592e-05
8.09949e-05
7.53155e-05
7.0002e-05
6.50357e-05
6.03979e-05
5.60703e-05
5.20349e-05
4.82744e-05
4.47721e-05
4.15118e-05
3.84782e-05
3.56565e-05
3.30328e-05
3.0594e-05
2.83277e-05
2.6222e-05
2.42661e-05
2.24493e-05
2.0762e-05
1.9195e-05
1.77397e-05
1.63879e-05
1.51322e-05
1.39656e-05
1.28814e-05
1.18734e-05
1.0936e-05
1.00635e-05
9.25108e-06
8.49379e-06
7.78725e-06
7.12726e-06
6.50998e-06
5.9318e-06
5.38933e-06
4.87948e-06
4.3992e-06
3.94615e-06
3.51594e-06
3.1113e-06
2.70712e-06
0.00015919
0.000159913
0.000161475
0.000163773
0.000166849
0.00017069
0.000175292
0.000180647
0.000186745
0.000193571
0.000201105
0.000209318
0.000218173
0.00022762
0.000237596
0.000248016
0.000258777
0.000269745
0.000280754
0.000291601
0.00030203
0.000311732
0.000320326
0.000327356
0.000332268
0.000334395
0.000332939
0.000326959
0.00031533
0.000296722
0.000269581
0.000232143
0.000182429
0.00011824
3.72112e-05
-6.29775e-05
-0.000184165
-0.000327109
-0.000490777
-0.000671378
-0.000860817
-0.00104473
-0.00120091
-0.00130035
-0.00131834
-0.00126287
-0.00119956
-0.00122443
-0.00139025
-0.0016706
-0.00199219
-0.00227773
-0.00247197
-0.00255658
-0.00253886
-0.00241656
-0.0021711
-0.00179043
-0.00126918
-0.000593527
0.000246531
0.00123368
0.00232694
0.00348371
0.00467048
0.00585668
0.00700978
0.00810022
0.00910562
0.0100081
0.0107936
0.0114515
0.0119739
0.0123542
0.0125861
0.0126636
0.0125806
0.0123302
0.0119049
0.0112961
0.0104934
0.00948565
0.00826163
0.00681011
0.00512356
0.00320116
0.00105588
-0.00128923
-0.00378901
-0.00638018
-0.00897981
-0.0114886
-0.0137973
-0.0157959
-0.0173858
-0.0184928
-0.019078
-0.019141
-0.0187207
-0.0178958
-0.0167787
-0.0154866
-0.0141089
-0.0127036
-0.0113138
-0.00996289
-0.00865007
-0.00738377
-0.00621414
-0.00521519
-0.00444273
-0.00390256
-0.00353196
-0.00322194
-0.00288829
-0.00251643
-0.00213227
-0.00175911
-0.00141095
-0.00109781
-0.000824505
-0.000590905
-0.000394534
-0.000231899
-9.89889e-05
8.21798e-06
9.34716e-05
0.000160166
0.000211302
0.000249489
0.000276972
0.000295667
0.000307197
0.000312931
0.000314022
0.00031143
0.000305959
0.000298274
0.000288925
0.000278366
0.000266968
0.000255033
0.000242804
0.00023048
0.000218215
0.000206131
0.000194324
0.000182865
0.000171806
0.000161185
0.000151026
0.000141344
0.000132146
0.00012343
0.000115191
0.00010742
0.000100104
9.32277e-05
8.67715e-05
8.07197e-05
7.50531e-05
6.97526e-05
6.47993e-05
6.01744e-05
5.58594e-05
5.18363e-05
4.80878e-05
4.45969e-05
4.13476e-05
3.83245e-05
3.55127e-05
3.28985e-05
3.04687e-05
2.82109e-05
2.61132e-05
2.41648e-05
2.23552e-05
2.06746e-05
1.91138e-05
1.76643e-05
1.6318e-05
1.50675e-05
1.39057e-05
1.2826e-05
1.18222e-05
1.08886e-05
1.00199e-05
9.21081e-06
8.45671e-06
7.75316e-06
7.09597e-06
6.48132e-06
5.90562e-06
5.36547e-06
4.8578e-06
4.37957e-06
3.92844e-06
3.50004e-06
3.0971e-06
2.69463e-06
0.000158569
0.000159292
0.000160854
0.000163154
0.000166235
0.000170081
0.00017469
0.000180056
0.00018617
0.000193016
0.000200576
0.000208825
0.000217726
0.000227232
0.000237283
0.000247799
0.000258679
0.000269795
0.000280987
0.000292057
0.000302759
0.000312791
0.000321784
0.000329292
0.000334774
0.000337576
0.000336916
0.000331864
0.000321309
0.000303918
0.000278125
0.000242135
0.000193915
0.000131153
5.12769e-05
-4.83539e-05
-0.000169996
-0.000314894
-0.000482569
-0.000669789
-0.000868737
-0.0010644
-0.00123197
-0.00133636
-0.00134396
-0.00125901
-0.00115952
-0.00116492
-0.00134051
-0.00165218
-0.00201156
-0.0023289
-0.00254183
-0.00263518
-0.00262538
-0.00251291
-0.0022752
-0.00189971
-0.00138251
-0.000705378
0.000147326
0.00115701
0.00227642
0.00345861
0.00466983
0.00587968
0.0070542
0.00816269
0.00918282
0.0100973
0.0108924
0.011558
0.0120869
0.0124729
0.0127103
0.0127933
0.0127159
0.0124715
0.0120528
0.011451
0.0106557
0.00965492
0.00843598
0.00698595
0.00529507
0.00336028
0.00119134
-0.00118914
-0.00373737
-0.00638918
-0.00905916
-0.0116436
-0.014027
-0.0160917
-0.017731
-0.0188646
-0.0194497
-0.0194862
-0.0190152
-0.0181227
-0.0169343
-0.0155803
-0.0141542
-0.0127124
-0.0112973
-0.00992943
-0.00859741
-0.00730183
-0.00609933
-0.0050785
-0.00430754
-0.00379672
-0.0034722
-0.00320122
-0.00288422
-0.00251153
-0.00212072
-0.00174062
-0.00138682
-0.00107037
-0.000796132
-0.00056328
-0.000368731
-0.000208527
-7.82928e-05
2.62332e-05
0.000108942
0.000173304
0.000222356
0.000258713
0.000284608
0.000301939
0.000312307
0.000317058
0.000317321
0.000314035
0.000307985
0.000299819
0.000290073
0.000279188
0.000267522
0.00025537
0.000242966
0.000230502
0.000218126
0.000205956
0.000194082
0.000182573
0.000171478
0.000160832
0.000150658
0.000140967
0.000131766
0.000123053
0.00011482
0.000107058
9.97528e-05
9.28884e-05
8.64461e-05
8.04086e-05
7.47569e-05
6.94713e-05
6.45329e-05
5.99227e-05
5.56221e-05
5.1613e-05
4.7878e-05
4.44001e-05
4.11632e-05
3.81519e-05
3.53514e-05
3.27479e-05
3.03282e-05
2.80799e-05
2.59913e-05
2.40514e-05
2.22497e-05
2.05766e-05
1.90228e-05
1.75799e-05
1.62398e-05
1.4995e-05
1.38386e-05
1.27639e-05
1.17649e-05
1.08357e-05
9.97099e-06
9.16577e-06
8.41525e-06
7.71503e-06
7.06099e-06
6.44928e-06
5.87635e-06
5.33881e-06
4.83358e-06
4.35764e-06
3.90866e-06
3.48228e-06
3.08125e-06
2.68069e-06
0.000157878
0.000158601
0.000160164
0.000162467
0.000165551
0.000169404
0.000174021
0.000179399
0.000185528
0.000192396
0.000199986
0.000208273
0.000217225
0.000226796
0.00023693
0.00024755
0.000258561
0.000269839
0.000281231
0.000292548
0.00030355
0.000313946
0.000323378
0.000331413
0.000337526
0.000341074
0.000341293
0.000337271
0.000327909
0.000311878
0.000287594
0.000253235
0.000206716
0.000145608
6.71105e-05
-3.17751e-05
-0.000153779
-0.000300702
-0.000472715
-0.000667312
-0.000877169
-0.00108678
-0.00126855
-0.00138024
-0.00137649
-0.00125561
-0.00111092
-0.00109211
-0.00127998
-0.00162976
-0.00203421
-0.00238849
-0.0026216
-0.00272289
-0.00272122
-0.00262017
-0.00239121
-0.00202161
-0.00150995
-0.000832237
3.47501e-05
0.00107067
0.00222006
0.00343077
0.00466926
0.00590568
0.00710419
0.00823273
0.00926923
0.010197
0.0110026
0.0116766
0.0122126
0.0126049
0.0128483
0.0129373
0.0128662
0.0126286
0.0122174
0.0116238
0.0108372
0.00984473
0.00863221
0.00718469
0.00548984
0.00354184
0.00134723
-0.00107265
-0.00367522
-0.00639547
-0.00914529
-0.0118161
-0.0142851
-0.0164259
-0.0181226
-0.0192868
-0.0198722
-0.019878
-0.0193483
-0.0183772
-0.0171062
-0.0156819
-0.0142019
-0.0127196
-0.0112774
-0.00989286
-0.00854068
-0.00721094
-0.00596866
-0.00492067
-0.00415064
-0.00367525
-0.00340715
-0.00318296
-0.00288398
-0.00250823
-0.00210853
-0.00171992
-0.00135945
-0.00103927
-0.00076411
-0.000532239
-0.000339852
-0.00018246
-5.52765e-05
4.62214e-05
0.000126074
0.000187832
0.000234564
0.000268887
0.000293023
0.000308845
0.000317929
0.000321594
0.000320943
0.000316892
0.000310204
0.000301509
0.000291326
0.000280081
0.000268122
0.000255731
0.000243135
0.000230517
0.000218019
0.000205755
0.000193808
0.000182245
0.000171111
0.000160438
0.000150246
0.000140547
0.000131343
0.000122632
0.000114406
0.000106655
9.93622e-05
9.25118e-05
8.6085e-05
8.00635e-05
7.44282e-05
6.91592e-05
6.42373e-05
5.96433e-05
5.53587e-05
5.13651e-05
4.7645e-05
4.41815e-05
4.09584e-05
3.79602e-05
3.51722e-05
3.25806e-05
3.01721e-05
2.79345e-05
2.58559e-05
2.39254e-05
2.21326e-05
2.04677e-05
1.89217e-05
1.74861e-05
1.61528e-05
1.49145e-05
1.37641e-05
1.2695e-05
1.17011e-05
1.07768e-05
9.91668e-06
9.11571e-06
8.36916e-06
7.67266e-06
7.0221e-06
6.41367e-06
5.84382e-06
5.30917e-06
4.80666e-06
4.33326e-06
3.88667e-06
3.46255e-06
3.06363e-06
2.66517e-06
0.000157118
0.000157841
0.000159405
0.000161711
0.000164799
0.000168658
0.000173283
0.000178674
0.00018482
0.000191712
0.000199333
0.000207662
0.000216668
0.00022631
0.000236534
0.000247267
0.00025842
0.000269874
0.000281485
0.000293069
0.000304398
0.00031519
0.000325101
0.000333711
0.000340511
0.000344876
0.000346057
0.000343165
0.000335118
0.000320587
0.000297977
0.000265439
0.00022084
0.000161633
8.47737e-05
-1.31375e-05
-0.000135361
-0.000284324
-0.000460954
-0.000663667
-0.000885908
-0.00111195
-0.00131138
-0.00143352
-0.00141778
-0.00125326
-0.00105211
-0.0010032
-0.00120648
-0.0016025
-0.00206059
-0.00245785
-0.00271247
-0.00282018
-0.00282674
-0.00273905
-0.00251984
-0.00215675
-0.00165254
-0.00097553
-9.2356e-05
0.000974195
0.00215795
0.00340043
0.00466915
0.00593525
0.00716046
0.00831104
0.00936542
0.0103076
0.0111245
0.0118076
0.0123511
0.0127503
0.0130001
0.0130956
0.0130313
0.0128012
0.0123981
0.0118136
0.0110366
0.0100537
0.00884879
0.00740479
0.00570637
0.00374455
0.00152249
-0.000940478
-0.00360295
-0.00639923
-0.00923828
-0.0120061
-0.0145721
-0.0167996
-0.0185616
-0.0197608
-0.0203464
-0.0203174
-0.0197201
-0.0186577
-0.0172918
-0.0157885
-0.0142497
-0.0127232
-0.0112525
-0.00985293
-0.00848046
-0.00711114
-0.00582087
-0.00473933
-0.00396926
-0.00353651
-0.00333749
-0.00316927
-0.00288924
-0.00250717
-0.00209577
-0.00169687
-0.00132861
-0.00100428
-0.000728266
-0.000497669
-0.000307835
-0.000153672
-2.99379e-05
6.81701e-05
0.000144847
0.000203724
0.000247898
0.000279987
0.000302194
0.000316364
0.000324045
0.000326524
0.000324875
0.000319991
0.000312608
0.000303336
0.000292677
0.000281041
0.000268762
0.000256111
0.000243307
0.000230522
0.000217892
0.000205525
0.000193501
0.000181879
0.000170702
0.00016
0.00014979
0.000140081
0.000130875
0.000122168
0.000113951
0.00010621
9.89316e-05
9.20969e-05
8.56871e-05
7.96835e-05
7.40663e-05
6.88156e-05
6.3912e-05
5.93361e-05
5.5069e-05
5.10925e-05
4.73889e-05
4.39413e-05
4.07333e-05
3.77496e-05
3.49754e-05
3.23968e-05
3.00007e-05
2.77747e-05
2.57072e-05
2.3787e-05
2.20039e-05
2.03482e-05
1.88108e-05
1.73831e-05
1.60574e-05
1.48261e-05
1.36822e-05
1.26193e-05
1.16312e-05
1.07122e-05
9.85709e-06
9.06079e-06
8.31859e-06
7.62618e-06
6.97945e-06
6.37461e-06
5.80813e-06
5.27665e-06
4.77712e-06
4.30653e-06
3.86256e-06
3.44091e-06
3.04431e-06
2.64815e-06
0.000156289
0.000157011
0.000158576
0.000160885
0.000163978
0.000167843
0.000172477
0.000177881
0.000184045
0.000190962
0.000198617
0.000206991
0.000216055
0.000225773
0.000236092
0.000246948
0.000258252
0.000269897
0.000281742
0.000293614
0.000305296
0.000316516
0.000326943
0.000336175
0.00034372
0.000348969
0.000351194
0.000349529
0.000342917
0.000330032
0.000309262
0.000278739
0.00023629
0.000179256
0.000104329
7.66792e-06
-0.000114579
-0.000265529
-0.000446978
-0.000658492
-0.00089465
-0.0011399
-0.00136119
-0.00149806
-0.00147016
-0.00125274
-0.000980984
-0.000894726
-0.00111758
-0.00156968
-0.00209153
-0.00253862
-0.00281555
-0.00292696
-0.00294156
-0.00286962
-0.00266109
-0.00230501
-0.00181078
-0.00113641
-0.000234981
0.000867285
0.00209021
0.00336771
0.00466956
0.00596857
0.00722324
0.0083978
0.00947157
0.0104293
0.0112584
0.0119511
0.0125026
0.012909
0.0131658
0.0132683
0.0132113
0.0129891
0.012595
0.0120206
0.0112546
0.0102826
0.00908695
0.00764787
0.00594673
0.00397087
0.00171966
-0.000790024