/*--------------------------------*- C++ -*----------------------------------*\
| =========                 |                                                 |
| \\      /  F ield         | OpenFOAM: The Open Source CFD Toolbox           |
|  \\    /   O peration     | Version:  v2006                                 |
|   \\  /    A nd           | Website:  www.openfoam.com                      |
|    \\/     M anipulation  |                                                 |
\*---------------------------------------------------------------------------*/
FoamFile
{
    version     2.0;
    format      ascii;
    class       volScalarField;
    location    "9.5";
    object      r;
}
// * * * * * * * * * * * * * * * * * * * * * * * * * * * * * * * * * * * * * //

dimensions      [1 2 0 0 0 0 0];


internalField   nonuniform List<scalar> 
350
(
-5.87038e-138
3.14724e-136
-7.88007e-135
2.00434e-133
-5.05267e-132
1.26353e-130
-3.13395e-129
7.70867e-128
-1.88014e-126
4.54634e-125
-1.08976e-123
2.58901e-122
-6.09537e-121
1.42188e-119
-3.28588e-118
7.52126e-117
-1.70492e-115
3.82663e-114
-8.50246e-113
1.86984e-111
-4.06923e-110
8.76146e-109
-1.86597e-107
3.9301e-106
-8.18412e-105
1.68464e-103
-3.42692e-102
6.88734e-101
-1.36721e-99
2.67999e-98
-5.18588e-97
9.9032e-96
-1.86576e-94
3.46676e-93
-6.35085e-92
1.14664e-90
-2.03961e-89
3.57296e-88
-6.16154e-87
1.04556e-85
-1.74506e-84
2.86332e-83
-4.61647e-82
7.3098e-81
-1.13609e-79
1.73212e-78
-2.58897e-77
3.79118e-76
-5.43512e-75
7.62261e-74
-1.04497e-72
1.39903e-71
-1.82754e-70
2.32689e-69
-2.88451e-68
3.47719e-67
-4.07064e-66
4.621e-65
-5.07851e-64
5.39345e-63
-5.52367e-62
5.44243e-61
-5.14492e-60
4.6516e-59
-4.00699e-58
3.27365e-57
-2.5221e-56
1.81896e-55
-1.21605e-54
7.43185e-54
-4.06404e-53
1.91565e-52
-7.18119e-52
1.6262e-51
2.67749e-51
-5.08133e-50
2.67923e-49
-5.29209e-49
-2.8993e-48
2.78089e-47
-7.46328e-47
-3.0502e-46
3.16773e-45
-5.44256e-45
-5.93955e-44
3.41489e-43
5.09385e-43
-1.04109e-41
1.03619e-41
2.64352e-40
-7.00271e-40
-6.61466e-39
2.5239e-38
1.81606e-37
-7.42145e-37
-5.71616e-36
1.78101e-35
1.97452e-34
-2.2862e-34
-6.72429e-33
-9.62049e-33
1.9092e-31
9.73621e-31
-2.6488e-30
-4.50182e-29
-1.26533e-28
9.24581e-28
1.00621e-26
3.0514e-26
-1.68965e-25
-2.48209e-24
-1.37396e-23
-2.01559e-23
3.94776e-22
5.06404e-21
3.96284e-20
2.47143e-19
1.32973e-18
6.40478e-18
2.82102e-17
1.15208e-16
4.40538e-16
1.58884e-15
5.43566e-15
1.7721e-14
5.52623e-14
1.65371e-13
4.7617e-13
1.3224e-12
3.54944e-12
9.22472e-12
2.32516e-11
5.69251e-11
1.35545e-10
3.14284e-10
7.10404e-10
1.56704e-09
3.37641e-09
7.11237e-09
1.46593e-08
2.95858e-08
5.85107e-08
1.13464e-07
2.15888e-07
4.03277e-07
7.39988e-07
1.33452e-06
2.36659e-06
4.12881e-06
7.08972e-06
1.19874e-05
1.99659e-05
3.27714e-05
5.30281e-05
8.46214e-05
0.000133219
0.000206972
0.000317435
0.000480758
0.000719214
0.0010631
0.00155307
0.002243
0.0032033
0.00452488
0.00632353
0.00874499
0.0119703
0.0162215
0.0217677
0.0289308
0.038091
0.0496918
0.0642442
0.0823286
0.104596
0.131768
0.16463
0.204027
0.250856
0.306049
0.370561
0.44535
0.531358
0.629486
0.740571
0.865362
1.00449
1.15846
1.32759
1.51205
1.71179
1.92657
2.15592
2.39917
2.65542
2.92359
3.20239
3.49039
3.78599
4.08749
4.39311
4.70101
5.00933
5.31622
5.61988
5.91858
6.2107
6.4947
6.76922
7.03302
7.28501
7.52429
7.75007
7.96173
8.15877
8.34082
8.50761
8.65894
8.79468
8.91473
9.01901
9.10747
9.18001
9.23652
9.27686
9.30085
9.30826
9.29885
9.27235
9.22846
9.16693
9.08749
8.98995
8.8742
8.7402
8.58805
8.41798
8.23037
8.0258
7.80498
7.56885
7.31851
7.05524
6.78046
6.49577
6.20286
5.90355
5.59969
5.29319
4.98597
4.67991
4.37683
4.07849
3.78651
3.5024
3.22749
2.96297
2.70983
2.4689
2.24081
2.02602
1.82479
1.63724
1.46333
1.30287
1.15556
1.02097
0.898615
0.787902
0.6882
0.598833
0.5191
0.448289
0.385684
0.330583
0.2823
0.240177
0.203587
0.171939
0.144682
0.121305
0.101339
0.0843565
0.0699701
0.057832
0.0476317
0.0390936
0.0319748
0.0260622
0.0211703
0.0171382
0.0138272
0.0111185
0.00891072
0.00711772
0.00566687
0.00449706
0.0035572
0.00280473
0.00220438
0.00172707
0.00134885
0.00105018
0.000815102
0.000630723
0.000486536
0.000374206
0.000286911
0.000219362
0.00016718
0.000127078
9.62713e-05
7.27639e-05
5.4797e-05
4.11888e-05
3.08345e-05
2.30531e-05
1.7156e-05
1.27593e-05
9.44049e-06
6.98375e-06
5.13947e-06
3.77983e-06
2.76965e-06
2.02211e-06
1.47883e-06
1.06829e-06
7.83545e-07
5.564e-07
4.12954e-07
2.84869e-07
2.17214e-07
1.42744e-07
1.14477e-07
6.95981e-08
6.06277e-08
3.28277e-08
3.22239e-08
1.49842e-08
1.69983e-08
6.7931e-09
8.63294e-09
3.35895e-09
3.91913e-09
2.12631e-09
1.23647e-09
1.79129e-09
-2.42763e-10
1.81494e-09
)
;

boundaryField
{
    right
    {
        type            zeroGradient;
    }
    left
    {
        type            inletOutlet;
        inletValue      uniform 0;
        value           uniform 0;
    }
    top
    {
        type            zeroGradient;
    }
    bottom
    {
        type            zeroGradient;
    }
    empty
    {
        type            empty;
    }
}


// ************************************************************************* //
