/*--------------------------------*- C++ -*----------------------------------*\
| =========                 |                                                 |
| \\      /  F ield         | OpenFOAM: The Open Source CFD Toolbox           |
|  \\    /   O peration     | Version:  v2006                                 |
|   \\  /    A nd           | Website:  www.openfoam.com                      |
|    \\/     M anipulation  |                                                 |
\*---------------------------------------------------------------------------*/
FoamFile
{
    version     2.0;
    format      ascii;
    class       surfaceScalarField;
    location    "7.1";
    object      phi;
}
// * * * * * * * * * * * * * * * * * * * * * * * * * * * * * * * * * * * * * //

dimensions      [0 3 -1 0 0 0 0];
oriented        oriented;


internalField   nonuniform List<scalar> 
104500
(
4.94008e-05
-4.94008e-05
0.000113451
-6.40502e-05
0.000175072
-6.16209e-05
0.000233109
-5.80376e-05
0.000289775
-5.66657e-05
0.000346162
-5.63867e-05
0.000402392
-5.62303e-05
0.000458348
-5.59554e-05
0.00051393
-5.55825e-05
0.000569085
-5.51551e-05
0.000623777
-5.46919e-05
0.000677969
-5.41916e-05
0.000731627
-5.36578e-05
0.000784716
-5.30898e-05
0.000837206
-5.24896e-05
0.000889065
-5.18592e-05
0.000940265
-5.11996e-05
0.000990779
-5.05146e-05
0.00104058
-4.9805e-05
0.00108966
-4.90727e-05
0.00113798
-4.83212e-05
0.00118553
-4.75521e-05
0.0012323
-4.67665e-05
0.00127826
-4.59669e-05
0.00132342
-4.51542e-05
0.00136775
-4.43316e-05
0.00141125
-4.35011e-05
0.00145391
-4.26642e-05
0.00149574
-4.18218e-05
0.00153671
-4.09753e-05
0.00157684
-4.01261e-05
0.00161611
-3.92756e-05
0.00165454
-3.84241e-05
0.00169211
-3.75724e-05
0.00172883
-3.67216e-05
0.0017647
-3.58713e-05
0.00179972
-3.50193e-05
0.00183389
-3.41627e-05
0.00186718
-3.32979e-05
0.00189961
-3.24227e-05
0.00193115
-3.15401e-05
0.00196181
-3.06607e-05
0.00199161
-2.98012e-05
0.00202058
-2.8975e-05
0.00204877
-2.81873e-05
0.0020762
-2.74345e-05
0.00210291
-2.67102e-05
0.00212892
-2.60087e-05
0.00215425
-2.53265e-05
0.00217891
-2.4662e-05
0.00220293
-2.40136e-05
0.0022263
-2.33791e-05
0.00224906
-2.27566e-05
0.00227121
-2.21488e-05
0.00229278
-2.15679e-05
0.00231382
-2.10387e-05
0.00233441
-2.05918e-05
0.00235466
-2.02483e-05
0.00237466
-2.00036e-05
0.00239448
-1.98234e-05
0.00241414
-1.96554e-05
0.00243359
-1.94507e-05
0.00245277
-1.91812e-05
0.00247162
-1.88441e-05
0.00249007
-1.84538e-05
0.0025081
-1.80302e-05
0.00252569
-1.75892e-05
0.00254283
-1.71403e-05
0.00255952
-1.66879e-05
0.00257575
-1.62343e-05
0.00259153
-1.57807e-05
0.00260686
-1.53283e-05
0.00262174
-1.48783e-05
0.00263617
-1.44314e-05
0.00265016
-1.39884e-05
0.00266371
-1.35498e-05
0.00267682
-1.3116e-05
0.00268951
-1.26875e-05
0.00270178
-1.22647e-05
0.00271362
-1.18485e-05
0.00272507
-1.14404e-05
0.00273611
-1.10425e-05
0.00274677
-1.06575e-05
0.00275705
-1.02873e-05
0.00276698
-9.93079e-06
0.00277657
-9.58238e-06
0.0027858
-9.23102e-06
0.00279466
-8.86246e-06
0.00280312
-8.46354e-06
0.00281115
-8.0271e-06
0.0028187
-7.5551e-06
0.00282576
-7.05824e-06
0.00283232
-6.55218e-06
0.00283837
-6.05286e-06
0.00284394
-5.573e-06
0.00284906
-5.1203e-06
0.00285376
-4.69795e-06
0.00285807
-4.3062e-06
0.00286201
-3.94382e-06
0.00286562
-3.60896e-06
0.00286892
-3.29949e-06
0.00287193
-3.01305e-06
0.00287468
-2.74724e-06
0.00287718
-2.4998e-06
0.00287945
-2.26906e-06
0.0028815
-2.05453e-06
0.00288336
-1.85785e-06
0.00288503
-1.67006e-06
0.00288652
-1.49482e-06
0.00288786
-1.33239e-06
0.00288904
-1.18252e-06
0.00289008
-1.04503e-06
0.002891
-9.19211e-07
0.00289181
-8.04551e-07
0.00289251
-7.00316e-07
0.00289311
-6.05936e-07
0.00289363
-5.20858e-07
0.00289408
-4.44473e-07
0.00289446
-3.76159e-07
0.00289477
-3.15204e-07
0.00289503
-2.60984e-07
0.00289524
-2.12996e-07
0.00289542
-1.7066e-07
0.00289555
-1.33709e-07
0.00289565
-1.01844e-07
0.00289573
-7.47691e-08
0.00289578
-5.23432e-08
0.00289581
-3.44058e-08
0.00289583
-2.09425e-08
0.00289585
-1.19034e-08
0.00289585
-7.48723e-09
0.00289586
-7.72469e-09
0.00289587
-1.23373e-08
0.00289589
-2.06576e-08
0.00289592
-3.13721e-08
0.00289596
-3.97459e-08
0.00289601
-4.68379e-08
0.00289607
-5.39719e-08
0.00289612
-5.36374e-08
0.00289616
-3.83003e-08
0.00289616
-2.0251e-09
0.00289606
9.62428e-08
0.00289576
2.98318e-07
0.00289507
6.91754e-07
0.00289376
1.31171e-06
0.00289174
2.01779e-06
0.00288915
2.59021e-06
0.00288623
2.92333e-06
0.00288318
3.05454e-06
0.00288011
3.07021e-06
0.00287707
3.03631e-06
0.00287408
2.9842e-06
0.00287116
2.92204e-06
0.00286831
2.84948e-06
0.00286555
2.7658e-06
0.00286288
2.67126e-06
0.00286031
2.56609e-06
0.00285786
2.44994e-06
0.00285554
2.32206e-06
0.00285336
2.18162e-06
0.00285133
2.02804e-06
0.00284947
1.86098e-06
0.00284779
1.6802e-06
0.0028463
1.48551e-06
0.00284503
1.27668e-06
0.00284397
1.05326e-06
0.00284316
8.14304e-07
0.0028426
5.5798e-07
0.00284232
2.83705e-07
0.00284232
5.66512e-10
0.00284262
-3.09091e-07
0.00284327
-6.47388e-07
0.00284429
-1.0165e-06
0.00284571
-1.42368e-06
0.00284758
-1.87197e-06
0.00284994
-2.35901e-06
0.00285282
-2.87358e-06
0.00285621
-3.3959e-06
0.00286011
-3.90044e-06
0.00286447
-4.36168e-06
0.00286923
-4.75976e-06
0.00287432
-5.0877e-06
0.00287967
-5.34941e-06
0.00288523
-5.5547e-06
0.00289095
-5.71913e-06
0.0028968
-5.85337e-06
0.00290277
-5.9679e-06
0.00290884
-6.06878e-06
0.002915
-6.16138e-06
0.00292125
-6.25132e-06
0.00292759
-6.34069e-06
0.00293402
-6.43557e-06
0.00294057
-6.54241e-06
0.00294724
-6.66947e-06
0.00295406
-6.82664e-06
0.00296109
-7.02697e-06
0.00296838
-7.28805e-06
0.00297601
-7.63246e-06
0.0029841
-8.08501e-06
0.00299276
-8.66502e-06
0.00300214
-9.3753e-06
0.00301233
-1.01917e-05
0.00302339
-1.10589e-05
0.00303528
-1.1896e-05
0.0030479
-1.26132e-05
0.00306103
-1.31332e-05
0.00307444
-1.34127e-05
0.00308789
-1.34531e-05
0.00310119
-1.32991e-05
0.00311422
-1.30232e-05
0.00312692
-1.27044e-05
0.00313933
-1.24081e-05
0.0031515
-1.21737e-05
0.00316352
-1.20131e-05
0.00317543
-1.19174e-05
0.0031873
-1.18677e-05
0.00319915
-1.18449e-05
0.00321098
-1.18358e-05
0.00322282
-1.1834e-05
0.00323465
-1.18383e-05
0.0032465
-1.18494e-05
0.00325837
-1.18676e-05
0.00327026
-1.18911e-05
0.00328218
-1.19167e-05
0.00329412
-1.19398e-05
0.00330607
-1.19564e-05
0.00331804
-1.19627e-05
0.00332999
-1.19562e-05
0.00334193
-1.19352e-05
0.00335383
-1.18984e-05
0.00336567
-1.18447e-05
0.00337745
-1.17733e-05
0.00338913
-1.16833e-05
0.0034007
-1.1574e-05
0.00341215
-1.14446e-05
0.00342344
-1.12947e-05
0.00343457
-1.11238e-05
0.0034455
-1.09312e-05
0.00345621
-1.07165e-05
0.00346669
-1.04792e-05
0.00347691
-1.0219e-05
0.00348685
-9.93558e-06
0.00349648
-9.62847e-06
0.00350577
-9.29748e-06
0.00351472
-8.94216e-06
0.00352328
-8.56225e-06
0.00353143
-8.15672e-06
0.00353916
-7.72524e-06
0.00354643
-7.26725e-06
0.00355321
-6.78226e-06
0.00355948
-6.26916e-06
0.0035652
-5.72637e-06
0.00357036
-5.1517e-06
0.0035749
-4.54198e-06
0.00357879
-3.89438e-06
0.003582
-3.20641e-06
0.00358447
-2.47163e-06
0.00358615
-1.68346e-06
0.00358699
-8.38161e-07
0.00358696
3.31006e-08
0.00358595
1.00902e-06
0.00358401
1.93942e-06
0.00358114
2.87045e-06
0.00357731
3.82579e-06
0.0035725
4.81673e-06
0.00356665
5.85097e-06
0.00355971
6.93568e-06
0.00355163
8.07796e-06
0.00354235
9.28547e-06
0.00353178
1.05668e-05
0.00351985
1.19314e-05
0.00350646
1.33892e-05
0.00349151
1.49503e-05
0.00347489
1.6624e-05
0.00345647
1.8417e-05
0.00343614
2.03323e-05
0.00341377
2.23673e-05
0.00338926
2.45137e-05
0.0033625
2.67587e-05
0.00333341
2.90866e-05
0.00330193
3.14812e-05
0.003268
3.39249e-05
0.00323161
3.6394e-05
0.00319276
3.88519e-05
0.00315152
4.12408e-05
0.00310804
4.34792e-05
0.00306257
4.54711e-05
0.00301544
4.71277e-05
0.00296705
4.83929e-05
0.00291779
4.92527e-05
0.00286805
4.97433e-05
0.00281816
4.98883e-05
0.00276855
4.96115e-05
0.00271974
4.88079e-05
0.00267229
4.74546e-05
0.00262656
4.57314e-05
0.00258254
4.40149e-05
0.00253983
4.27146e-05
0.00249774
4.20831e-05
0.00245561
4.21379e-05
0.00241289
4.27145e-05
0.00236931
4.35775e-05
0.0023248
4.45147e-05
0.00227942
4.53832e-05
0.0022333
4.6117e-05
0.00218659
4.67068e-05
0.00213942
4.71712e-05
0.00209189
4.75334e-05
0.00204408
4.78135e-05
0.00199605
4.80294e-05
0.00194785
4.81997e-05
0.0018995
4.83433e-05
0.00185103
4.84759e-05
0.00180242
4.86064e-05
0.00175368
4.87363e-05
0.00170482
4.88635e-05
0.00165584
4.89852e-05
0.00160674
4.90992e-05
0.00155753
4.92051e-05
0.00150823
4.93046e-05
0.00145883
4.94002e-05
0.00140933
4.94941e-05
0.00135975
4.9587e-05
0.00131007
4.96782e-05
0.0012603
4.97664e-05
0.00121045
4.9851e-05
0.00116052
4.99329e-05
0.0011105
5.00141e-05
0.00106041
5.00956e-05
0.00101023
5.0175e-05
0.000959983
5.02489e-05
0.000909667
5.03166e-05
0.000859288
5.03787e-05
0.000808852
5.0436e-05
0.000758365
5.04873e-05
0.000707832
5.05322e-05
0.000657262
5.0571e-05
0.000606657
5.0604e-05
0.000556026
5.06313e-05
0.000505375
5.06515e-05
0.00045471
5.06646e-05
0.000404037
5.06733e-05
0.00035335
5.06872e-05
0.000302634
5.07162e-05
0.000251879
5.07549e-05
0.00020116
5.0719e-05
0.000150725
5.04351e-05
0.00010195
4.87748e-05
5.51677e-05
4.6782e-05
5.51677e-05
4.35042e-05
-9.29049e-05
0.000101802
-0.000122348
0.000156968
-0.000116787
0.000208481
-0.00010955
0.000258758
-0.000106943
0.000308915
-0.000106544
0.000359031
-0.000106346
0.000408947
-0.000105872
0.000458569
-0.000105204
0.000507858
-0.000104445
0.000556794
-0.000103627
0.000605352
-0.00010275
0.000653508
-0.000101814
0.000701238
-0.00010082
0.00074852
-9.97719e-05
0.000795333
-9.86719e-05
0.000841659
-9.75251e-05
0.00088748
-9.63358e-05
0.000932782
-9.51068e-05
0.000977551
-9.38421e-05
0.00102178
-9.25457e-05
0.00106544
-9.12215e-05
0.00110855
-8.98728e-05
0.00115109
-8.85037e-05
0.00119305
-8.71167e-05
0.00123443
-8.57146e-05
0.00127523
-8.4302e-05
0.00131545
-8.28822e-05
0.00135509
-8.14573e-05
0.00139414
-8.00293e-05
0.00143262
-7.86014e-05
0.00147052
-7.71734e-05
0.00150784
-7.57494e-05
0.0015446
-7.43311e-05
0.0015808
-7.29214e-05
0.00161645
-7.15189e-05
0.00165155
-7.01253e-05
0.00168613
-6.87402e-05
0.00172019
-6.73624e-05
0.00175376
-6.59909e-05
0.00178685
-6.46246e-05
0.00181945
-6.32623e-05
0.00185155
-6.19036e-05
0.00188313
-6.05502e-05
0.00191414
-5.92047e-05
0.00194458
-5.78704e-05
0.00197442
-5.65496e-05
0.00200365
-5.5243e-05
0.00203228
-5.395e-05
0.00206028
-5.26701e-05
0.00208767
-5.14022e-05
0.00211444
-5.01453e-05
0.00214058
-4.88988e-05
0.0021661
-4.7664e-05
0.00219097
-4.64435e-05
0.00221518
-4.52427e-05
0.00223865
-4.40678e-05
0.00226133
-4.29241e-05
0.00228314
-4.18119e-05
0.00230404
-4.07266e-05
0.00232404
-3.96593e-05
0.00234319
-3.86001e-05
0.00236155
-3.75411e-05
0.00237919
-3.64774e-05
0.00239614
-3.5408e-05
0.00241244
-3.43337e-05
0.00242811
-3.32568e-05
0.00244315
-3.21795e-05
0.00245757
-3.11036e-05
0.00247136
-3.00306e-05
0.00248454
-2.89618e-05
0.00249711
-2.78983e-05
0.00250908
-2.68412e-05
0.00252044
-2.57916e-05
0.0025312
-2.47504e-05
0.00254137
-2.37187e-05
0.00255095
-2.26974e-05
0.00255995
-2.16876e-05
0.00256838
-2.06907e-05
0.00257623
-1.97081e-05
0.00258354
-1.87417e-05
0.00259029
-1.7794e-05
0.0025965
-1.6868e-05
0.00260218
-1.59666e-05
0.00260734
-1.50919e-05
0.002612
-1.42439e-05
0.00261619
-1.34195e-05
0.00261994
-1.26128e-05
0.00262329
-1.18164e-05
0.00262629
-1.10229e-05
0.00262896
-1.02277e-05
0.00263133
-9.42967e-06
0.00263341
-8.6318e-06
0.0026352
-7.83973e-06
0.00263669
-7.06034e-06
0.00263787
-6.29997e-06
0.00263873
-5.56367e-06
0.00263928
-4.85504e-06
0.00263951
-4.17646e-06
0.00263943
-3.52941e-06
0.00263905
-2.91462e-06
0.00263837
-2.33226e-06
0.0026374
-1.78197e-06
0.00263616
-1.26279e-06
0.00263467
-7.73014e-07
0.00263293
-3.11234e-07
0.00263099
8.19663e-08
0.00262883
4.84606e-07
0.00262649
8.49692e-07
0.00262397
1.18209e-06
0.0026213
1.48769e-06
0.0026185
1.75947e-06
0.00261557
2.00328e-06
0.00261255
2.21787e-06
0.00260945
2.40266e-06
0.00260628
2.55926e-06
0.00260308
2.68813e-06
0.00259984
2.79011e-06
0.0025966
2.8635e-06
0.00259338
2.9107e-06
0.00259018
2.93259e-06
0.00258704
2.92872e-06
0.00258397
2.90116e-06
0.00258099
2.84887e-06
0.00257811
2.77358e-06
0.00257536
2.6755e-06
0.00257275
2.55549e-06
0.0025703
2.41395e-06
0.00256803
2.25138e-06
0.00256595
2.06782e-06
0.00256408
1.86476e-06
0.00256243
1.64267e-06
0.00256102
1.40032e-06
0.00255986
1.13984e-06
0.00255897
8.57938e-07
0.00255837
5.56745e-07
0.00255808
2.42189e-07
0.00255813
-1.0282e-07
0.00255854
-4.65937e-07
0.00255935
-8.46313e-07
0.00256059
-1.24623e-06
0.00256235
-1.66307e-06
0.00256475
-2.09717e-06
0.00256798
-2.54284e-06
0.00257228
-2.98705e-06
0.00257772
-3.41571e-06
0.00258413
-3.82493e-06
0.00259128
-4.22422e-06
0.00259896
-4.62518e-06
0.00260706
-5.03307e-06
0.00261555
-5.44785e-06
0.0026244
-5.86775e-06
0.00263361
-6.29124e-06
0.00264318
-6.7177e-06
0.00265309
-7.14695e-06
0.00266334
-7.57865e-06
0.00267392
-8.01221e-06
0.00268482
-8.44697e-06
0.00269602
-8.8824e-06
0.00270752
-9.31817e-06
0.0027193
-9.75417e-06
0.00273135
-1.01903e-05
0.00274366
-1.06264e-05
0.00275621
-1.10623e-05
0.00276898
-1.14974e-05
0.00278197
-1.19314e-05
0.00279514
-1.23635e-05
0.0028085
-1.27934e-05
0.002822
-1.32201e-05
0.00283564
-1.36432e-05
0.0028494
-1.40645e-05
0.00286323
-1.44832e-05
0.00287712
-1.4898e-05
0.002891
-1.53091e-05
0.00290485
-1.57189e-05
0.00291862
-1.61302e-05
0.00293229
-1.65424e-05
0.00294585
-1.69544e-05
0.00295931
-1.73608e-05
0.0029727
-1.77571e-05
0.00298608
-1.8134e-05
0.00299948
-1.84869e-05
0.00301294
-1.88113e-05
0.00302649
-1.91056e-05
0.00304014
-1.93707e-05
0.0030539
-1.96076e-05
0.00306775
-1.98186e-05
0.00308168
-2.00048e-05
0.00309569
-2.0167e-05
0.00310975
-2.03098e-05
0.00312384
-2.04379e-05
0.00313796
-2.0556e-05
0.00315209
-2.06695e-05
0.00316621
-2.07847e-05
0.00318029
-2.09091e-05
0.00319431
-2.10523e-05
0.00320825
-2.12262e-05
0.00322206
-2.14442e-05
0.0032357
-2.17198e-05
0.0032491
-2.20623e-05
0.00326219
-2.24715e-05
0.00327493
-2.29323e-05
0.00328729
-2.34129e-05
0.00329926
-2.38683e-05
0.0033109
-2.42496e-05
0.00332228
-2.45158e-05
0.00333351
-2.46438e-05
0.00334469
-2.46336e-05
0.0033559
-2.45061e-05
0.00336717
-2.42964e-05
0.00337851
-2.40444e-05
0.00338989
-2.37852e-05
0.00340126
-2.35433e-05
0.00341257
-2.33304e-05
0.0034238
-2.31469e-05
0.00343492
-2.29858e-05
0.00344591
-2.2837e-05
0.00345677
-2.26911e-05
0.00346748
-2.25415e-05
0.00347802
-2.23839e-05
0.00348839
-2.2216e-05
0.00349856
-2.2036e-05
0.00350851
-2.18417e-05
0.00351822
-2.16304e-05
0.00352768
-2.1399e-05
0.00353687
-2.11444e-05
0.00354577
-2.0864e-05
0.00355437
-2.0556e-05
0.00356265
-2.02191e-05
0.00357061
-1.98524e-05
0.00357822
-1.94552e-05
0.00358547
-1.9027e-05
0.00359236
-1.85675e-05
0.00359886
-1.80763e-05
0.00360497
-1.7553e-05
0.00361067
-1.69973e-05
0.00361595
-1.64094e-05
0.00362081
-1.57889e-05
0.00362523
-1.51357e-05
0.0036292
-1.44507e-05
0.00363272
-1.37335e-05
0.00363577
-1.29845e-05
0.00363834
-1.22042e-05
0.00364044
-1.1393e-05
0.00364205
-1.0551e-05
0.00364316
-9.67983e-06
0.00364379
-8.7797e-06
0.00364391
-7.84971e-06
0.00364354
-6.89136e-06
0.00364266
-5.90462e-06
0.00364128
-4.89003e-06
0.0036394
-3.84823e-06
0.00363703
-2.779e-06
0.00363416
-1.67744e-06
0.00363081
-5.39778e-07
0.003627
5.97877e-07
0.00362278
1.75735e-06
0.00361815
2.94405e-06
0.00361316
4.15184e-06
0.00360781
5.37677e-06
0.00360219
6.63318e-06
0.00359621
7.92184e-06
0.00358984
9.24027e-06
0.00358308
1.05879e-05
0.00357593
1.1966e-05
0.0035684
1.33766e-05
0.00356051
1.48227e-05
0.00355228
1.63086e-05
0.00354373
1.784e-05
0.00353487
1.94239e-05
0.00352573
2.10694e-05
0.00351633
2.27874e-05
0.00350669
2.45915e-05
0.00349682
2.64976e-05
0.00348671
2.85234e-05
0.00347636
3.06871e-05
0.00346572
3.30056e-05
0.00345474
3.54919e-05
0.00344335
3.81529e-05
0.00343145
4.09889e-05
0.00341894
4.39921e-05
0.00340571
4.71457e-05
0.00339169
5.04217e-05
0.00337676
5.37767e-05
0.00336085
5.71484e-05
0.00334388
6.04528e-05
0.00332576
6.3588e-05
0.00330645
6.64441e-05
0.00328592
6.89173e-05
0.00326423
7.09483e-05
0.00324145
7.25194e-05
0.00321771
7.3634e-05
0.00319301
7.43034e-05
0.00316726
7.45609e-05
0.00314022
7.44978e-05
0.00311166
7.4293e-05
0.00308148
7.41912e-05
0.00304977
7.44263e-05
0.00301671
7.51421e-05
0.00298249
7.63587e-05
0.00294721
7.79897e-05
0.0029109
7.98871e-05
0.00287353
8.18919e-05
0.00283504
8.38724e-05
0.00279541
8.57445e-05
0.00275464
8.74709e-05
0.00271277
8.90476e-05
0.00266981
9.0488e-05
0.00262581
9.18126e-05
0.0025808
9.30467e-05
0.00253478
9.42179e-05
0.00248777
9.53531e-05
0.00243977
9.64744e-05
0.00239078
9.75955e-05
0.0023408
9.87203e-05
0.00228981
9.98466e-05
0.00223783
0.00010097
0.00218484
0.000102089
0.00213084
0.000103201
0.00207584
0.000104309
0.00201982
0.000105417
0.00196279
0.000106525
0.00190475
0.000107634
0.00184568
0.000108745
0.00178559
0.000109858
0.00172447
0.000110973
0.00166231
0.00011209
0.00159912
0.000113207
0.00153489
0.000114322
0.00146964
0.000115427
0.00140337
0.000116514
0.00133611
0.000117575
0.00126788
0.000118611
0.0011987
0.000119618
0.00112859
0.000120592
0.0010576
0.00012153
0.00098574
0.000122427
0.000913065
0.000123279
0.000839615
0.000124081
0.000765439
0.000124827
0.00069059
0.000125513
0.000615127
0.000126137
0.000539128
0.000126686
0.000462692
0.000127152
0.000385899
0.000127548
0.000308656
0.000127962
0.000230797
0.000128294
0.0001534
0.000126172
7.92178e-05
0.000120964
0.000134385
4.51211e-05
-0.000138026
0.000106006
-0.000183233
0.000164183
-0.000174964
0.00021834
-0.000163707
0.000270918
-0.000159521
0.000323296
-0.000158922
0.00037566
-0.00015871
0.000427842
-0.000158054
0.000479716
-0.000157078
0.000531225
-0.000155955
0.000582341
-0.000154743
0.000633038
-0.000153447
0.000683287
-0.000152063
0.000733061
-0.000150594
0.000782331
-0.000149042
0.000831076
-0.000147417
0.000879275
-0.000145724
0.000926904
-0.000143965
0.000973948
-0.000142151
0.00102039
-0.000140283
0.00106621
-0.00013837
0.00111141
-0.000136415
0.00115596
-0.000134426
0.00119986
-0.000132404
0.0012431
-0.000130357
0.00128568
-0.00012829
0.00132758
-0.000126206
0.00136881
-0.00012411
0.00140936
-0.000122005
0.00144922
-0.000119895
0.0014884
-0.000117784
0.0015269
-0.000115674
0.00156472
-0.000113567
0.00160186
-0.000111468
0.00163831
-0.000109376
0.00167409
-0.000107295
0.00170919
-0.000105227
0.00174363
-0.000103174
0.0017774
-0.000101136
0.00181052
-9.91136e-05
0.001843
-9.71037e-05
0.00187484
-9.51026e-05
0.00190605
-9.31087e-05
0.00193662
-9.11238e-05
0.00196657
-8.91517e-05
0.00199589
-8.71964e-05
0.0020246
-8.52601e-05
0.0020527
-8.3343e-05
0.0020802
-8.14444e-05
0.00210709
-7.95631e-05
0.00213339
-7.76985e-05
0.00215909
-7.58498e-05
0.00218421
-7.4016e-05
0.00220874
-7.2195e-05
0.00223268
-7.03823e-05
0.00225601
-6.85723e-05
0.0022787
-6.6761e-05
0.00230073
-6.49496e-05
0.00232206
-6.31459e-05
0.0023427
-6.13617e-05
0.00236264
-5.96072e-05
0.00238193
-5.78861e-05
0.00240058
-5.61945e-05
0.00241863
-5.45241e-05
0.00243609
-5.28661e-05
0.00245297
-5.12142e-05
0.00246928
-4.9566e-05
0.00248502
-4.79213e-05
0.0025002
-4.62813e-05
0.00251481
-4.46476e-05
0.00252887
-4.30212e-05
0.00254238
-4.14035e-05
0.00255533
-3.97957e-05
0.00256774
-3.81989e-05
0.00257961
-3.66146e-05
0.00259093
-3.5044e-05
0.00260172
-3.34886e-05
0.00261198
-3.195e-05
0.00262172
-3.04299e-05
0.00263095
-2.893e-05
0.00263966
-2.7452e-05
0.00264786
-2.59978e-05
0.00265556
-2.45697e-05
0.00266276
-2.31706e-05
0.00266948
-2.1804e-05
0.00267571
-2.0473e-05
0.00268147
-1.91793e-05
0.00268678
-1.79219e-05
0.00269166
-1.66964e-05
0.00269613
-1.54965e-05
0.00270022
-1.43157e-05
0.00270394
-1.31495e-05
0.0027073
-1.19972e-05
0.00271032
-1.08611e-05
0.00271301
-9.74584e-06
0.00271537
-8.65693e-06
0.0027174
-7.59926e-06
0.00271912
-6.57685e-06
0.00272054
-5.59277e-06
0.00272166
-4.64938e-06
0.00272249
-3.74846e-06
0.00272305
-2.89137e-06
0.00272335
-2.07932e-06
0.0027234
-1.31372e-06
0.00272322
-5.95997e-07
0.0027228
1.12932e-07
0.00272214
7.37364e-07
0.00272131
1.31583e-06
0.0027203
1.86043e-06
0.00271912
2.36411e-06
0.00271779
2.81743e-06
0.00271632
3.22863e-06
0.00271473
3.59486e-06
0.00271303
3.91601e-06
0.00271124
4.19607e-06
0.00270937
4.43114e-06
0.00270743
4.62277e-06
0.00270545
4.77136e-06
0.00270344
4.8769e-06
0.0027014
4.94285e-06
0.00269937
4.96832e-06
0.00269735
4.95207e-06
0.00269535
4.8993e-06
0.00269339
4.80516e-06
0.00269149
4.67531e-06
0.00268965
4.51003e-06
0.0026879
4.30904e-06
0.00268624
4.07428e-06
0.00268469
3.80435e-06
0.00268325
3.50478e-06
0.00268194
3.17229e-06
0.00268078
2.81067e-06
0.00267976
2.41944e-06
0.0026789
2.00105e-06
0.0026782
1.55389e-06
0.00267767
1.08746e-06
0.00267732
5.95186e-07
0.00267715
6.11319e-08
0.00267714
-4.54385e-07
0.00267731
-1.01189e-06
0.00267765
-1.59045e-06
0.00267818
-2.19191e-06
0.00267891
-2.82866e-06
0.00267989
-3.52375e-06
0.00268118
-4.27927e-06
0.00268282
-5.04814e-06
0.00268476
-5.77278e-06
0.00268698
-6.43832e-06
0.00268942
-7.0698e-06
0.00269209
-7.69876e-06
0.00269498
-8.34348e-06
0.00269812
-9.00864e-06
0.00270153
-9.69191e-06
0.0027052
-1.03895e-05
0.00270915
-1.10984e-05
0.00271339
-1.18163e-05
0.00271792
-1.25414e-05
0.00272274
-1.32721e-05
0.00272786
-1.40069e-05
0.00273329
-1.47444e-05
0.00273902
-1.54836e-05
0.00274505
-1.62236e-05
0.00275139
-1.69634e-05
0.00275803
-1.77024e-05
0.00276497
-1.84398e-05
0.00277222
-1.91748e-05
0.00277976
-1.99066e-05
0.0027876
-2.06343e-05
0.00279574
-2.13568e-05
0.00280417
-2.20732e-05
0.00281289
-2.27824e-05
0.00282189
-2.34827e-05
0.00283116
-2.41718e-05
0.0028407
-2.4847e-05
0.00285048
-2.55059e-05
0.0028605
-2.61473e-05
0.00287073
-2.67708e-05
0.00288115
-2.73775e-05
0.00289176
-2.79701e-05
0.00290255
-2.85499e-05
0.00291354
-2.91179e-05
0.00292472
-2.96716e-05
0.00293612
-3.02087e-05
0.00294774
-3.07238e-05
0.00295958
-3.12146e-05
0.00297165
-3.16785e-05
0.00298395
-3.21152e-05
0.00299647
-3.25251e-05
0.00300921
-3.29111e-05
0.00302218
-3.32737e-05
0.00303536
-3.36156e-05
0.00304874
-3.39388e-05
0.00306231
-3.42455e-05
0.00307607
-3.45401e-05
0.00308999
-3.48268e-05
0.00310405
-3.51107e-05
0.00311822
-3.53974e-05
0.00313247
-3.56922e-05
0.00314674
-3.59988e-05
0.003161
-3.6316e-05
0.00317516
-3.66358e-05
0.00318917
-3.69407e-05
0.00320296
-3.72055e-05
0.0032165
-3.74017e-05
0.00322975
-3.75051e-05
0.00324274
-3.75039e-05
0.0032555
-3.74026e-05
0.00326809
-3.72216e-05
0.00328057
-3.69902e-05
0.00329301
-3.67373e-05
0.00330545
-3.6485e-05
0.00331791
-3.62443e-05
0.00333038
-3.60158e-05
0.00334285
-3.57933e-05
0.00335527
-3.55676e-05
0.00336761
-3.53296e-05
0.00337985
-3.50729e-05
0.00339195
-3.47927e-05
0.00340389
-3.44861e-05
0.00341566
-3.41507e-05
0.00342723
-3.37839e-05
0.00343858
-3.33834e-05
0.00344968
-3.29463e-05
0.00346052
-3.24705e-05
0.00347108
-3.19536e-05
0.00348133
-3.13944e-05
0.00349125
-3.07921e-05
0.00350084
-3.01458e-05
0.00351008
-2.94551e-05
0.00351895
-2.87198e-05
0.00352743
-2.79398e-05
0.00353552
-2.71151e-05
0.0035432
-2.62456e-05
0.00355045
-2.53317e-05
0.00355727
-2.4374e-05
0.00356365
-2.33719e-05
0.00356957
-2.23278e-05
0.00357502
-2.12409e-05
0.00357999
-2.01115e-05
0.00358449
-1.89424e-05
0.00358849
-1.77323e-05
0.00359198
-1.64831e-05
0.00359498
-1.51951e-05
0.00359745
-1.38708e-05
0.00359941
-1.25106e-05
0.00360085
-1.11167e-05
0.00360176
-9.69057e-06
0.00360214
-8.23e-06
0.00360199
-6.74051e-06
0.00360131
-5.22057e-06
0.00360009
-3.67416e-06
0.00359834
-2.10245e-06
0.00359608
-5.15316e-07
0.00359327
1.13527e-06
0.00358993
2.79638e-06
0.00358605
4.47701e-06
0.00358163
6.17879e-06
0.00357667
7.90262e-06
0.00357118
9.6467e-06
0.00356514
1.14132e-05
0.00355856
1.32119e-05
0.00355144
1.50465e-05
0.00354376
1.69137e-05
0.00353554
1.88116e-05
0.00352677
2.07413e-05
0.00351744
2.2705e-05
0.00350755
2.47055e-05
0.00349712
2.67463e-05
0.00348613
2.88313e-05
0.00347458
3.09653e-05
0.0034625
3.31539e-05
0.00344988
3.54038e-05
0.00343675
3.7723e-05
0.00342313
4.01216e-05
0.00340904
4.26119e-05
0.00339452
4.52074e-05
0.0033796
4.79219e-05
0.00336433
5.07673e-05
0.00334873
5.37519e-05
0.00333284
5.6878e-05
0.00331669
6.01407e-05
0.00330031
6.3527e-05
0.00328372
6.70152e-05
0.00326692
7.05739e-05
0.00324991
7.41612e-05
0.00323263
7.77238e-05
0.00321502
8.1201e-05
0.00319693
8.45309e-05
0.00317819
8.76568e-05
0.00315861
9.0535e-05
0.00313799
9.31348e-05
0.00311619
9.54379e-05
0.00309305
9.74427e-05
0.00306843
9.91826e-05
0.00304218
0.000100748
0.00301419
0.000102284
0.00298443
0.000103951
0.00295298
0.000105873
0.00292001
0.000108113
0.0028857
0.000110671
0.00285019
0.000113494
0.0028136
0.000116481
0.00277599
0.000119504
0.00273742
0.000122441
0.00269795
0.000125211
0.00265764
0.000127787
0.00261649
0.000130192
0.00257451
0.000132473
0.00253164
0.000134677
0.00248785
0.000136841
0.00244308
0.000138983
0.00239733
0.000141109
0.00235058
0.000143221
0.00230286
0.000145317
0.00225418
0.000147399
0.00220456
0.000149469
0.002154
0.000151527
0.00210251
0.000153577
0.00205009
0.000155619
0.00199675
0.000157655
0.00194248
0.000159688
0.00188728
0.000161719
0.00183117
0.00016375
0.00177413
0.00016578
0.00171618
0.00016781
0.00165731
0.000169842
0.00159753
0.000171873
0.00153683
0.000173903
0.00147523
0.000175928
0.00141271
0.000177943
0.00134928
0.000179942
0.00128494
0.000181918
0.00121968
0.000183867
0.00115352
0.00018578
0.00108646
0.000187651
0.00101852
0.000189471
0.000949718
0.00019123
0.000880079
0.000192918
0.000809632
0.000194529
0.000738414
0.000196046
0.000666465
0.000197462
0.000593842
0.000198761
0.000520602
0.000199926
0.000446809
0.000200945
0.000372436
0.000201921
0.000297359
0.000203039
0.000222113
0.00020354
0.000148759
0.000199527
7.88445e-05
0.000190878
0.00021323
4.65582e-05
-0.000184584
0.000108468
-0.000245143
0.000167928
-0.000234423
0.000223503
-0.000219282
0.000277497
-0.000213515
0.000331213
-0.000212638
0.000384853
-0.00021235
0.000438269
-0.00021147
0.00049134
-0.000210149
0.000544008
-0.000208623
0.000596238
-0.000206973
0.000648002
-0.000205211
0.00069927
-0.00020333
0.000750011
-0.000201335
0.000800197
-0.000199228
0.000849802
-0.000197021
0.000898801
-0.000194723
0.000947175
-0.000192339
0.000994903
-0.000189879
0.00104197
-0.000187348
0.00108835
-0.000184757
0.00113405
-0.000182111
0.00117904
-0.000179418
0.00122332
-0.000176686
0.00126689
-0.000173921
0.00130973
-0.000171129
0.00135184
-0.000168316
0.00139321
-0.000165489
0.00143386
-0.000162652
0.00147378
-0.000159811
0.00151296
-0.000156969
0.00155142
-0.000154131
0.00158915
-0.000151301
0.00162617
-0.000148481
0.00166247
-0.000145676
0.00169806
-0.000142885
0.00173294
-0.000140113
0.00176713
-0.000137358
0.00180061
-0.000134623
0.00183341
-0.000131908
0.00186552
-0.000129211
0.00189695
-0.000126535
0.00192772
-0.000123879
0.00195784
-0.000121246
0.00198733
-0.000118637
0.00201618
-0.000116053
0.00204442
-0.000113494
0.00207203
-0.00011096
0.00209904
-0.000108448
0.00212543
-0.000105959
0.00215122
-0.00010349
0.00217642
-0.00010104
0.00220101
-9.86083e-05
0.00222501
-9.6193e-05
0.00224842
-9.37921e-05
0.00227125
-9.14036e-05
0.00229351
-8.90268e-05
0.00231523
-8.66625e-05
0.00233639
-8.43132e-05
0.00235701
-8.19825e-05
0.00237708
-7.96733e-05
0.00239658
-7.73866e-05
0.00241551
-7.51208e-05
0.00243385
-7.28727e-05
0.00245163
-7.06386e-05
0.00246883
-6.84157e-05
0.00248547
-6.62025e-05
0.00250154
-6.39987e-05
0.00251707
-6.18048e-05
0.00253204
-5.96216e-05
0.00254647
-5.74502e-05
0.00256036
-5.52917e-05
0.00257371
-5.31474e-05
0.00258653
-5.10187e-05
0.00259882
-4.89069e-05
0.00261059
-4.68137e-05
0.00262184
-4.47406e-05
0.00263258
-4.26895e-05
0.00264281
-4.06623e-05
0.00265255
-3.8661e-05
0.00266178
-3.66875e-05
0.00267053
-3.47439e-05
0.00267879
-3.28323e-05
0.00268657
-3.0955e-05
0.00269388
-2.91141e-05
0.00270072
-2.73115e-05
0.00270709
-2.55484e-05
0.00271299
-2.38246e-05
0.00271844
-2.21388e-05
0.00272343
-2.0489e-05
0.00272799
-1.88731e-05
0.00273213
-1.72899e-05
0.00273587
-1.57397e-05
0.00273923
-1.42244e-05
0.00274223
-1.27469e-05
0.00274489
-1.13106e-05
0.00274721
-9.91876e-06
0.0027492
-8.57447e-06
0.00275089
-7.28022e-06
0.00275228
-6.03809e-06
0.00275338
-4.84967e-06
0.00275421
-3.716e-06
0.00275476
-2.63739e-06
0.00275506
-1.61307e-06
0.00275511
-6.42087e-07
0.00275499
2.32483e-07
0.00275464
1.08511e-06
0.00275408
1.87503e-06
0.00275334
2.60564e-06
0.00275243
3.27759e-06
0.00275135
3.89426e-06
0.00275013
4.44733e-06
0.00274878
4.94339e-06
0.00274732
5.37776e-06
0.00274576
5.75922e-06
0.00274411
6.08168e-06
0.00274238
6.34838e-06
0.00274059
6.55917e-06
0.00273875
6.71627e-06
0.00273688
6.81435e-06
0.00273499
6.86118e-06
0.00273309
6.85482e-06
0.00273119
6.79686e-06
0.00272931
6.68789e-06
0.00272745
6.53089e-06
0.00272564
6.32352e-06
0.00272388
6.0678e-06
0.00272218
5.76791e-06
0.00272057
5.42116e-06
0.00271904
5.03338e-06
0.00271761
4.60078e-06
0.00271629
4.13071e-06
0.00271509
3.6186e-06
0.00271403
3.06552e-06
0.0027131
2.47836e-06
0.00271234
1.8503e-06
0.00271175
1.1851e-06
0.00271132
4.93177e-07
0.00271111
-2.4248e-07
0.0027111
-1.00936e-06
0.00271132
-1.80391e-06
0.00271175
-2.62556e-06
0.00271239
-3.471e-06
0.0027132
-4.33597e-06
0.00271414
-5.21484e-06
0.00271519
-6.10125e-06
0.00271641
-6.99089e-06
0.00271786
-7.88386e-06
0.00271957
-8.78366e-06
0.00272157
-9.69448e-06
0.00272384
-1.06194e-05
0.00272639
-1.15597e-05
0.00272922
-1.25145e-05
0.00273231
-1.3482e-05
0.00273567
-1.44602e-05
0.0027393
-1.54473e-05
0.0027432
-1.64416e-05
0.00274737
-1.74417e-05
0.00275181
-1.8446e-05
0.00275652
-1.94531e-05
0.0027615
-2.04615e-05
0.00276674
-2.14699e-05
0.00277226
-2.24769e-05
0.00277804
-2.34814e-05
0.00278408
-2.44821e-05
0.00279038
-2.54779e-05
0.00279694
-2.64676e-05
0.00280376
-2.745e-05
0.00281082
-2.84239e-05
0.00281814
-2.93881e-05
0.0028257
-3.03417e-05
0.0028335
-3.12834e-05
0.00284154
-3.22121e-05
0.00284982
-3.31266e-05
0.00285834
-3.40256e-05
0.0028671
-3.49078e-05
0.0028761
-3.57722e-05
0.00288534
-3.66172e-05
0.00289481
-3.74421e-05
0.00290451
-3.82448e-05
0.00291442
-3.90253e-05
0.00292452
-3.97799e-05
0.00293482
-4.05092e-05
0.00294531
-4.12104e-05
0.00295598
-4.1882e-05
0.00296682
-4.2525e-05
0.00297785
-4.31371e-05
0.00298904
-4.37192e-05