/*--------------------------------*- C++ -*----------------------------------*\
| =========                 |                                                 |
| \\      /  F ield         | OpenFOAM: The Open Source CFD Toolbox           |
|  \\    /   O peration     | Version:  v2006                                 |
|   \\  /    A nd           | Website:  www.openfoam.com                      |
|    \\/     M anipulation  |                                                 |
\*---------------------------------------------------------------------------*/
FoamFile
{
    version     2.0;
    format      ascii;
    class       volScalarField;
    location    "0";
    object      shifted_f;
}
// * * * * * * * * * * * * * * * * * * * * * * * * * * * * * * * * * * * * * //

dimensions      [0 0 0 0 0 0 0];


internalField   nonuniform List<scalar> 
2500
(
-0.637974
-0.638059
-0.63862
-0.639826
-0.639956
-0.639975
-0.640191
-0.640463
-0.640656
-0.640145
-0.640539
-0.640841
-0.641188
-0.641425
-0.641696
-0.642131
-0.642407
-0.642693
-0.643027
-0.643424
-0.643871
-0.644221
-0.644719
-0.645218
-0.645477
-0.646159
-0.652881
-0.662934
-0.653779
-2.09199
-1.41058
4.69292
1.03622
1.25783
1.2585
1.25838
1.2586
1.25883
1.25891
1.25914
1.25948
1.25976
1.25982
1.26005
1.26042
1.26066
1.26089
1.26111
1.26146
1.26193
1.26201
1.26168
1.26196
1.26156
1.26193
1.26193
1.26226
1.26191
1.26256
1.26209
1.26222
1.2626
1.26296
1.2634
1.26374
1.26401
1.26449
1.26464
1.26507
1.26539
1.26576
1.26608
1.26638
1.26681
1.26705
1.26751
1.26678
1.26637
1.24516
2.30466
1.33864
-3.10113
13.5632
-0.580068
-0.657038
-0.656778
-0.656869
-0.65674
-0.656696
-0.656452
-0.656655
-0.656748
-0.656639
-0.656885
-0.656748
-0.656756
-0.657148
-0.657019
-0.657098
-0.657248
-0.65733
-0.65755
-0.657911
-0.658082
-0.65904
-0.659393
-0.659301
-0.659711
-0.659947
-0.660153
-0.660493
-0.661078
-0.661524
-0.661802
-0.66226
-0.662646
-0.663016
-0.663391
-0.663892
-0.664422
-0.664942
-0.665382
-0.665942
-0.666404
-0.666903
-0.6675
-0.668142
-0.678092
-0.686272
-0.70669
-1.83235
-5.21672
1.47572
-1.26427
-1.14733
-1.14876
-1.14887
-1.14902
-1.14889
-1.1489
-1.1487
-1.14858
-1.14864
-1.14829
-1.14815
-1.14807
-1.14776
-1.14757
-1.14738
-1.14732
-1.14697
-1.14678
-1.14622
-1.14594
-1.14572
-1.1453
-1.14566
-1.1451
-1.14535
-1.14525
-1.14521
-1.1453
-1.14505
-1.14461
-1.14435
-1.14405
-1.14347
-1.14317
-1.14291
-1.14253
-1.142
-1.14167
-1.14127
-1.14072
-1.14032
-1.14004
-1.13967
-1.13942
-1.13766
-1.15646
-0.443
1.17725
-4.67174
9.05472
0.858421
0.837278
0.837452
0.837439
0.837439
0.837506
0.837728
0.837645
0.837666
0.837632
0.83761
0.837734
0.837657
0.837616
0.837484
0.837473
0.837416
0.837201
0.837087
0.836869
0.837259
0.836856
0.836462
0.836738
0.83641
0.836189
0.835885
0.83489
0.834557
0.834057
0.833873
0.833476
0.833039
0.832708
0.83225
0.832
0.831513
0.831196
0.830737
0.830208
0.829837
0.829276
0.82881
0.828139
0.817419
0.813082
0.789623
0.111386
-5.41685
0.559895
-1.17208
-1.12206
-1.12414
-1.12445
-1.1247
-1.12504
-1.12514
-1.12545
-1.12531
-1.12556
-1.12568
-1.12564
-1.12554
-1.12568
-1.12563
-1.12577
-1.12579
-1.12576
-1.12586
-1.12507
-1.12505
-1.12404
-1.12378
-1.12449
-1.12408
-1.12418
-1.12502
-1.1238
-1.12418
-1.12401
-1.12396
-1.12372
-1.12358
-1.12335
-1.12309
-1.12294
-1.12272
-1.12257
-1.1224
-1.12212
-1.12181
-1.12162
-1.12127
-1.12117
-1.12018
-1.11626
-1.13133
-0.992033
1.4486
-4.21364
5.26312
1.26703
1.27164
1.27194
1.27199
1.27193
1.27216
1.27227
1.27231
1.27252
1.27278
1.27271
1.27295
1.27307
1.27312
1.27327
1.27317
1.27331
1.27343
1.27346
1.27341
1.27373
1.27459
1.27463
1.27497
1.27491
1.27477
1.27483
1.2737
1.27351
1.27336
1.2732
1.27301
1.2729
1.27278
1.27274
1.27255
1.27228
1.27208
1.27185
1.27163
1.27151
1.27119
1.27093
1.27051
1.26342
1.26346
1.26144
1.83595
-3.5132
0.941283
0.0187133
0.0337599
0.0316834
0.0315969
0.0311219
0.0307036
0.0303714
0.0301307
0.0299242
0.0295535
0.0293812
0.0291101
0.0288609
0.0287413
0.0284133
0.0282157
0.0280712
0.0277063
0.0275228
0.0276671
0.0275148
0.0284677
0.0281361
0.0273716
0.0275203
0.0276188
0.0263
0.0283326
0.0281544
0.0280178
0.0280696
0.027914
0.0278381
0.0277783
0.0277122
0.0277426
0.0277781
0.0277336
0.0275388
0.027593
0.0276426
0.0274821
0.0275869
0.0276213
0.0291183
0.0334997
0.0187138
-0.472451
0.217141
-4.19518
1.28502
-0.297593
-0.285347
-0.285162
-0.285217
-0.285252
-0.285005
-0.285051
-0.284851
-0.284616
-0.284549
-0.284344
-0.284209
-0.284035
-0.28391
-0.283779
-0.283831
-0.283568
-0.283461
-0.283328
-0.283275
-0.283267
-0.281648
-0.281372
-0.280892
-0.280784
-0.280756
-0.280641
-0.28105
-0.28082
-0.28088
-0.280778
-0.28086
-0.280836
-0.280701
-0.280654
-0.280636
-0.280584
-0.280543
-0.280584
-0.280429
-0.280442
-0.280498
-0.280503
-0.280486
-0.280039
-0.276502
-0.252702
2.63188
-1.15121
1.62243
1.21509
1.21531
1.21394
1.21403
1.2134
1.21327
1.21299
1.2127
1.2124
1.21218
1.21191
1.21165
1.21137
1.21119
1.21092
1.21064
1.2104
1.21019
1.20988
1.20944
1.20922
1.20903
1.20842
1.20728
1.20721
1.20825
1.20662
1.20763
1.20761
1.20745
1.20712
1.20698
1.20674
1.20653
1.20634
1.20622
1.20579
1.20569
1.20555
1.20536
1.20513
1.20497
1.20479
1.20465
1.20639
1.21003
1.19221
0.234888
-1.18302
-4.03571
-1.42243
-1.85618
-1.84515
-1.84535
-1.84565
-1.84588
-1.84588
-1.84593
-1.846
-1.84617
-1.84612
-1.84624
-1.84624
-1.84632
-1.84636
-1.84628
-1.84646
-1.84647
-1.8464
-1.8464
-1.84669
-1.84718
-1.84613
-1.84577
-1.84537
-1.8454
-1.84542
-1.84543
-1.84456
-1.84431
-1.84436
-1.84443
-1.84442
-1.8444
-1.84438
-1.84424
-1.84427
-1.84433
-1.84427
-1.84429
-1.84425
-1.8442
-1.84411
-1.84422
-1.84415
-1.83649
-1.83023
-1.79956
2.52106
0.405358
1.81354
1.67338
1.66913
1.66858
1.66892
1.6687
1.66866
1.6686
1.66849
1.66834
1.66821
1.66805
1.66799
1.66793
1.66769
1.66761
1.6675
1.66726
1.66727
1.66712
1.66672
1.6666
1.66533
1.6646
1.66321
1.66302
1.66523
1.66473
1.66115
1.66176
1.66159
1.66152
1.66133
1.66118
1.66094
1.6608
1.66063
1.66057
1.66036
1.66008
1.66
1.65971
1.65964
1.65944
1.65926
1.66096
1.66378
1.64687
0.638585
-1.29863
-2.77909
-1.7927
-1.77834
-1.7716
-1.77187
-1.77237
-1.77261
-1.77268
-1.77286
-1.77313
-1.77336
-1.77347
-1.77372
-1.7739
-1.77398
-1.77422
-1.77436
-1.77452
-1.77469
-1.77475
-1.77492
-1.77534
-1.77581
-1.77663
-1.77601
-1.77637
-1.77645
-1.77655
-1.77655
-1.77449
-1.77426
-1.77442
-1.77449
-1.77463
-1.77473
-1.77474
-1.7749
-1.77488
-1.775
-1.77502
-1.77504
-1.7751
-1.77514
-1.77518
-1.7753
-1.77538
-1.76511
-1.75597
-1.74507
1.4672
0.590671
1.1454
1.11974
1.11568
1.11584
1.1162
1.11616
1.11636
1.11648
1.11656
1.11651
1.11656
1.11655
1.11655
1.11674
1.11664
1.1166
1.1166
1.11665
1.11666
1.11662
1.11671
1.11661
1.11545
1.11513
1.11393
1.1128
1.1155
1.11936
1.11189
1.11277
1.11282
1.11265
1.1127
1.11256
1.11254
1.11256
1.11246
1.11245
1.11235
1.11235
1.11222
1.11222
1.11218
1.11211
1.112
1.11317
1.11525
1.11075
0.592939
-0.881583
-1.44078
-1.19552
-1.06136
-1.05918
-1.05941
-1.05985
-1.05999
-1.06009
-1.06017
-1.06032
-1.06053
-1.06062
-1.06081
-1.06106
-1.06117
-1.06131
-1.0615
-1.06168
-1.06177
-1.06198
-1.06212
-1.06243
-1.06248
-1.06414
-1.06346
-1.06486
-1.06487
-1.06501
-1.06481
-1.06283
-1.06258
-1.0627
-1.0627
-1.06284
-1.06293
-1.06301
-1.06316
-1.06318
-1.0633
-1.06332
-1.06342
-1.06347
-1.06356
-1.06353
-1.0636
-1.06377
-1.05203
-1.04228
-1.0628
0.438895
0.329917
0.477007
0.490133
0.487694
0.488247
0.488647
0.488571
0.488762
0.488987
0.489074
0.48907
0.489021
0.489087
0.489081
0.489013
0.489146
0.48913
0.489121
0.48912
0.489156
0.489198
0.489413
0.489371
0.489492
0.489588
0.489609
0.487348
0.485566
0.497659
0.495304
0.496149
0.496223
0.496219
0.496064
0.496117
0.496131
0.496099
0.496048
0.49598
0.49608
0.496029
0.495892
0.49584
0.495897
0.495813
0.495693
0.496736
0.496609
0.51262
0.579721
-0.457853
-0.580457
-0.606259
-0.486203
-0.487685
-0.487831
-0.488084
-0.488185
-0.488201
-0.488235
-0.488433
-0.488469
-0.488716
-0.488759
-0.488911
-0.489044
-0.489104
-0.489251
-0.489411
-0.489497
-0.489601
-0.489722
-0.489844
-0.489766
-0.490116
-0.490049
-0.493015
-0.493053
-0.492966
-0.492941
-0.492499
-0.492106
-0.492069
-0.492175
-0.49231
-0.49231
-0.492442
-0.492479
-0.492557
-0.492674
-0.492701
-0.492835
-0.49291
-0.492909
-0.493024
-0.493088
-0.493104
-0.481162
-0.478627
-0.523291
0.236399
0.380125
0.378351
0.397878
0.397278
0.397898
0.398082
0.398122
0.398338
0.39848
0.398578
0.398509
0.398463
0.398603
0.39856
0.398553
0.398563
0.398511
0.398482
0.398558
0.398445
0.398439
0.398696
0.39866
0.399923
0.399956
0.404271
0.40205
0.3844
0.392869
0.404691
0.406277
0.406282
0.406288
0.406228
0.406203
0.40615
0.406087
0.406001
0.405963
0.406087
0.405938
0.405866
0.405907
0.405818
0.405761
0.405638
0.406082
0.404165
0.431796
0.568104
0.00497526
0.0200191
-0.0702825
-0.00666823
-0.010459
-0.0105062
-0.0107092
-0.010652
-0.0105606
-0.0105605
-0.0106869
-0.0107571
-0.0107718
-0.0107712
-0.0109341
-0.0110738
-0.0111541
-0.0112206
-0.0113385
-0.0114052
-0.0114799
-0.0115343
-0.0115359
-0.0113625
-0.00997633
-0.0106443
-0.0145941
-0.0147001
-0.0145665
-0.0153361
-0.0136974
-0.0136133
-0.0135327
-0.0136743
-0.0137287
-0.0137886
-0.0138335
-0.0139138
-0.0140155
-0.0140569
-0.0141593
-0.0141721
-0.0141855
-0.0142466
-0.0142839
-0.0143614
-0.0144578
-0.00887038
-0.0168851
-0.0569794
0.248231
0.362846
0.325707
0.339839
0.340693
0.341242
0.341411
0.341477
0.341712
0.341865
0.341815
0.341887
0.341995
0.341923
0.341833
0.341822
0.341924
0.341858
0.341847
0.341732
0.341738
0.341813
0.341828
0.341778
0.343051
0.343033
0.352471
0.356641
0.327847
0.301348
0.321517
0.322808
0.322748
0.322755
0.322773
0.32282
0.322768
0.322773
0.322779
0.322708
0.322712
0.322665
0.322635
0.322746
0.322633
0.322671
0.322639
0.322449
0.321657
0.341345
0.412386
0.25987
0.294018
0.217685
0.224208
0.219549
0.219387
0.219442
0.21957
0.219669
0.219687
0.219668
0.219702
0.219602
0.219537
0.219522
0.219405
0.219372
0.219382
0.219308
0.219236
0.219157
0.21919
0.219346
0.219388
0.220622
0.219261
0.220425
0.22024
0.219873
0.218346
0.22124
0.220662
0.220564
0.22053
0.220447
0.220428
0.220434
0.220496
0.220383
0.22035
0.220272
0.220254
0.22024
0.220185
0.220108
0.220005
0.220015
0.217427
0.213025
0.19183
0.140654
0.184978
0.154305
0.160397
0.162076
0.162498
0.162408
0.162546
0.162796
0.162931
0.162836
0.162871
0.162768
0.16279
0.162757
0.162693
0.162651
0.162639
0.162645
0.162595
0.162627
0.162617
0.162338
0.162293
0.162404
0.162381
0.16874
0.182323
0.197729
0.12665
0.13936
0.137862
0.13804
0.137958
0.138019
0.138024
0.137996
0.137967
0.137992
0.137921
0.137939
0.137901
0.137879
0.137974
0.137934
0.137906
0.137868
0.138294
0.139632
0.149205
0.248045
0.288632
0.307137
0.266806
0.232517
0.228041
0.227976
0.228114
0.228349
0.22851
0.22846
0.228299
0.228281
0.228236
0.228184
0.22821
0.228093
0.228102
0.228063
0.228118
0.228074
0.228057
0.228022
0.228103
0.227887
0.228212
0.227367
0.237047
0.237054
0.235765
0.234334
0.232354
0.231835
0.231795
0.231812
0.231783
0.2317
0.23173
0.23176
0.231631
0.231659
0.231553
0.231573
0.231538
0.23153
0.23156
0.231481
0.23143
0.232797
0.240148
0.226757
0.0566682
0.0555294
0.0424604
0.0417961
0.0437433
0.0439593
0.0436911
0.0437762
0.0440538
0.0440721
0.0437675
0.0436326
0.0435726
0.0435862
0.0435403
0.0435162
0.0434657
0.0433892
0.0433864
0.0433743
0.0432598
0.0432707
0.0427298
0.0426667
0.0417721
0.041301
0.0401667
0.0502601
0.139786
0.0576567
0.0440667
0.0386446
0.0388835
0.038811
0.0388226
0.0388589
0.0388039
0.0386769
0.0387124
0.0386577
0.0387789
0.0386611
0.0386108
0.0385739
0.0385464
0.0385931
0.0385331
0.0396133
0.0365526
0.0442827
0.148421
0.23788
0.236593
0.229775
0.175732
0.172514
0.172494
0.172795
0.172966
0.173032
0.172503
0.172493
0.172443
0.172478
0.172356
0.172436
0.17236
0.172293
0.172322
0.172328
0.172282
0.172205
0.172293
0.172405
0.172018
0.172529
0.171707
0.185237
0.185429
0.184022
0.184911
0.178447
0.178808
0.178806
0.178774
0.178774
0.178781
0.17872
0.178748
0.178668
0.178615
0.178634
0.178604
0.178572
0.178603
0.178661
0.17858
0.178584
0.182954
0.186799
0.176525
0.0257516
0.00117176
0.00407946
-0.000429975
0.00136195
0.00130596
0.000938308
0.00104378
0.00131093
0.000107374
9.65832e-05
-2.63168e-05
-4.30658e-05
-0.000108945
-0.000127625
-0.000142858
-0.000185519
-0.000254134
-0.000166709
-0.000265301
-0.0002384
-0.00026335
-0.000890753
-0.000850317
-0.00192599
-0.0021643
-0.0120945
-0.0173232
0.0992566
0.121935
-0.00597371
-0.00990843
-0.00968754
-0.00979369
-0.00984208
-0.00978188
-0.00983027
-0.00989276
-0.00992742
-0.00994722
-0.00997099
-0.00998504
-0.0100081
-0.0100256
-0.0100843
-0.0100646
-0.0101903
-0.0112932
-0.0173513
-0.0115752
0.0655423
0.151057
0.135543
0.150093
0.0971597
0.0956169
0.0956273
0.0959411
0.0962143
0.0950039
0.0950823
0.0950079
0.0950171
0.0949633
0.0949905
0.0949875
0.094893
0.0948802
0.0949114
0.0949071
0.0949349
0.0949541
0.0949535
0.0949411
0.0946107
0.0955526
0.0937513
0.10446
0.104706
0.104642
0.113056
0.120298
0.121154
0.121034
0.121093
0.121071
0.121022
0.121098
0.121058
0.12105
0.121047
0.121081
0.121068
0.121084
0.121001
0.121059
0.121089
0.121064
0.106236
0.104351
0.0968696
-4.22423e-05
-0.034397
-0.0215401
-0.0268302
-0.0257634
-0.0259678
-0.0264263
-0.026253
-0.027947
-0.0280067
-0.0279983
-0.0280996
-0.0280562
-0.028148
-0.0281049
-0.0281498
-0.028105
-0.0281553
-0.0282122
-0.0281384
-0.0281225
-0.0281928
-0.0285825
-0.0286097
-0.02873
-0.0278358
-0.0524912
-0.0768357
-0.0275159
0.293866
-0.105761
-0.103764
-0.103892
-0.10398
-0.104076
-0.104104
-0.104187
-0.104167
-0.104233
-0.104289
-0.10432
-0.104347
-0.104335
-0.1044
-0.104428
-0.104487
-0.104422
-0.106443
-0.108162
-0.104688
-0.0598986
0.0088126
-0.0126277
0.00932934
-0.0254536
-0.0248115
-0.0247918
-0.0245266
-0.0256279
-0.0256757
-0.0257187
-0.0257831
-0.0257392
-0.0257693
-0.0257512
-0.0257532
-0.025753
-0.0256956
-0.0257073
-0.0256049
-0.0256501
-0.0256152
-0.0255876
-0.0256531
-0.0258157
-0.0254739
-0.0270024
-0.0299998
-0.0297976
-0.0264218
-0.00540949
0.0338282
0.0342569
0.0341983
0.0342357
0.0341581
0.0342772
0.0342947
0.0343436
0.034347
0.0343833
0.0344448
0.0344935
0.0345125
0.0345162
0.0345579
0.034558
0.0345554
0.0167382
0.0154125
0.0103896
-0.0387903
-0.0733184
-0.0575155
-0.0608999
-0.0607361
-0.061232
-0.0617271
-0.0624277
-0.0626269
-0.0625025
-0.0625817
-0.0625483
-0.0624987
-0.0625265
-0.0624606
-0.0624983
-0.0624301
-0.0624606
-0.062404
-0.062395
-0.0624216
-0.0624018
-0.0625933
-0.0625973
-0.0615732
-0.0592436
-0.0959072
-0.129653
-0.272066
0.489437
-0.178411
-0.174811
-0.175136
-0.175197
-0.175197
-0.175343
-0.175353
-0.175443
-0.175498
-0.17559
-0.175625
-0.175684
-0.175709
-0.175749
-0.175786
-0.175812
-0.17592
-0.174092
-0.173148
-0.170809
-0.150588
-0.101307
-0.121573
-0.104548
-0.10822
-0.105425
-0.105247
-0.106399
-0.10659
-0.106547
-0.106587
-0.106535
-0.106502
-0.10654
-0.106444
-0.106412
-0.106474
-0.106388
-0.106397
-0.1064
-0.106358
-0.106377
-0.106306
-0.106305
-0.106268
-0.107608
-0.104977
-0.12934
-0.129433
-0.120874
-0.0883546
-0.0214571
-0.0219015
-0.0217978
-0.0217851
-0.0216941
-0.021696
-0.0216399
-0.0215933
-0.0215165
-0.0214743
-0.0213911
-0.0213972
-0.0212971
-0.0212362
-0.0211347
-0.0211238
-0.021064
-0.0193142
-0.0188023
-0.0219669
-0.0358032
-0.0632408
-0.0502153
-0.049688
-0.0505783
-0.0512798
-0.0495131
-0.0495961
-0.0495134
-0.0494063
-0.0494715
-0.049328
-0.0492839
-0.0491975
-0.0491338
-0.0490629
-0.0489973
-0.0489692
-0.0489183
-0.0488563
-0.0487915
-0.0487559
-0.0486127
-0.048474
-0.0467886
-0.0439849
-0.0686425
-0.0916322
-0.53889
0.638095
-0.11231
-0.111134
-0.11147
-0.111559
-0.111621
-0.111714
-0.111838
-0.111918
-0.112061
-0.11202
-0.112118
-0.112148
-0.112292
-0.112299
-0.112354
-0.112414
-0.112478
-0.111393
-0.111084
-0.109212
-0.104853
-0.0777234
-0.0914303
-0.0887884
-0.0522747
-0.047219
-0.0473509
-0.0474478
-0.0474983
-0.0474245
-0.0474051
-0.0473461
-0.0473532
-0.0472966
-0.0473303
-0.0472514
-0.0471594
-0.0471816
-0.047123
-0.0470929
-0.0470613
-0.0470395
-0.0470327
-0.0469827
-0.0465828
-0.0504985
-0.0411247
-0.0795207
-0.0801224
-0.0665296
-0.0293874
0.0339599
0.0333359
0.0334205
0.0335295
0.0335809
0.0336984
0.0337408
0.0339203
0.0339328
0.0340024
0.0340655
0.0341128
0.0342249
0.0343549
0.0343886
0.0344619
0.0345914
0.0437194
0.0444912
0.0427353
0.0558581
0.0410581
0.0473769
0.0533155
0.0512612
0.0533461
0.0534767
0.0534953
0.0537491
0.053818
0.0538577
0.0540521
0.0540886
0.0543156
0.0542367
0.0543602
0.0544103
0.0545349
0.0545971
0.0546975
0.0548014
0.0548749
0.0553915
0.0554738
0.0573469
0.0581549
0.0775487
0.0810744
-0.669052
0.699994
0.0177374
0.016915
0.0167361
0.0166493
0.0165303
0.0164266
0.0163405
0.0162253
0.0161376
0.016052
0.0159361
0.0158434
0.0158281
0.0157598
0.0157275
0.0156187
0.0155552
0.0125873
0.0118028
0.0135053
0.00792008
0.00845586
0.00423024
-0.0132898
0.0692284
0.0567711
0.056805
0.0567265
0.0568299
0.0569191
0.0569232
0.056972
0.0569067
0.0570524
0.0570064
0.0570409
0.0570945
0.0570648
0.0571655
0.0571447
0.0572487
0.0572825
0.0573175
0.057454
0.0580507
0.0516318
0.0644352
0.0247191
0.0235599
0.0393839
0.0713262
0.103101
0.10303
0.103048
0.103179
0.103244
0.103377
0.103465
0.103463
0.103543
0.10366
0.103821
0.103856
0.103965
0.104052
0.104213
0.104307
0.104407
0.107718
0.107926
0.107019
0.143787
0.146152
0.143706
0.155865
0.160481
0.160702
0.160813
0.160933
0.161281
0.161306
0.161475
0.161639
0.16176
0.161892
0.161974
0.162113
0.162224
0.162277
0.162457
0.162502
0.162634
0.162724
0.163476
0.163625
0.164802
0.16103
0.237237
0.271885
-0.646217
0.572143
0.166137
0.166072
0.165944
0.165866
0.165834
0.165679
0.165543
0.165535
0.165442
0.165387
0.165314
0.165206
0.165205
0.165122
0.165092
0.165055
0.165007
0.161425
0.160459
0.161894
0.149028
0.117966
0.124908
0.0843616
-0.0708949
-0.0715063
-0.0715769
-0.0717089
-0.0716433
-0.0716264
-0.071652
-0.071686
-0.0717083
-0.0717177
-0.0718514
-0.0718075
-0.071887
-0.0718927
-0.0719443
-0.0719506
-0.0719974
-0.072048
-0.0720834
-0.0720988
-0.0713672
-0.078314
-0.0715936
-0.108645
-0.110245
-0.0958711
-0.0786213
-0.0854248
-0.0850722
-0.0850498
-0.08503
-0.0850075
-0.0849644
-0.0848889
-0.0848636
-0.0848196
-0.0847684
-0.0847238
-0.084647
-0.0846171
-0.0845618
-0.0845411
-0.0845369
-0.0844289
-0.0873347
-0.0877624
-0.0880306
-0.0274746
-0.00412592
-0.0163874
-0.0407433
-0.0403127
-0.0402384
-0.0401076
-0.0400219
-0.0397896
-0.0397476
-0.0395744
-0.0395304
-0.0394296
-0.0393871
-0.0393829
-0.0393346
-0.0392091
-0.0391707
-0.0390913
-0.039045
-0.038979
-0.0389008
-0.0381222
-0.0380557
-0.0386837
-0.0466851
0.0938788
0.165398
-0.758831
-0.0639393
-0.0154646
-0.014569
-0.0145747
-0.014712
-0.0148441
-0.0148988
-0.0150467
-0.0151289
-0.0152577
-0.0153857
-0.0154169
-0.0155281
-0.0155728
-0.0157198
-0.0157838
-0.0159147
-0.0159967
-0.017484
-0.018076
-0.0170612
-0.0369121
-0.104313
-0.0858477
-0.00908702
-0.0224787
-0.0228495
-0.0229294
-0.0229855
-0.0228805
-0.022976
-0.0229651
-0.0230133
-0.0230163
-0.0231554
-0.0231709
-0.0232402
-0.023314
-0.0233545
-0.0234136
-0.0234656
-0.0234817
-0.0235906
-0.0236409
-0.0237274
-0.02307
-0.0256874
-0.0327153
-0.0522567
-0.0542507
-0.0448561
-0.0460397
-0.0800853
-0.0797163
-0.079654
-0.0796619
-0.0796142
-0.0796047
-0.079608
-0.0795925
-0.0796047
-0.0795709
-0.0795462
-0.079537
-0.079508
-0.079489
-0.079464
-0.0794453
-0.0794524
-0.0839135
-0.0847059
-0.0842644
0.00203513
0.0491931
0.054697
0.0528731
0.0531242
0.0531619
0.0531831
0.0533721
0.0534335
0.0536107
0.0537526
0.0537611
0.0538555
0.0538299
0.0538687
0.0539085
0.0539621
0.0539752
0.0540074
0.0540843
0.0540998
0.0540767
0.0548491
0.0548619
0.0515052
0.0443313
0.23558
0.362675
-0.369228
-0.348797
0.105159
0.105105
0.105177
0.105082
0.105
0.104889
0.104753
0.104653
0.104578
0.104514
0.104385
0.104335
0.104247
0.104144
0.104111
0.104011
0.103984
0.1043
0.104152
0.104679
0.0767421
-0.030466
-0.0436735
-0.0355242
-0.0451503
-0.0451377
-0.0452457
-0.0452376
-0.0452341
-0.0453109
-0.0452112
-0.0454435
-0.0454194
-0.0455352
-0.0455997
-0.0457122
-0.0457405
-0.0458046
-0.0459223
-0.0459965
-0.0460492
-0.0461228
-0.046234
-0.0464783
-0.0459515
-0.0397011
-0.0612666
-0.0235618
-0.0256393
-0.0231797
-0.0410476
-0.0895357
-0.0893952
-0.0893679
-0.0893235
-0.0893275
-0.0893791
-0.0894091
-0.0894508
-0.0894116
-0.0895062
-0.089479
-0.089485
-0.0895121
-0.0895034
-0.0895479
-0.0895194
-0.0895576
-0.0925205
-0.0933098
-0.0920933
0.0223609
-0.0592
-0.05539
-0.056822
-0.0567699
-0.0568202
-0.0568344
-0.0567401
-0.0568114
-0.0566172
-0.0566289
-0.0565818
-0.056622
-0.0566176
-0.0566043
-0.0566075
-0.0566279
-0.0566149
-0.0566357
-0.0566762
-0.056687
-0.0567016
-0.0562351
-0.0562302
-0.0621429
-0.0653688
0.0715644
0.248273
-0.128894
-0.658565
-0.00422499
-0.00614672
-0.00601644
-0.00605616
-0.00617037
-0.00621471
-0.00631498
-0.00643109
-0.00645908
-0.00657675
-0.00663496
-0.00673662
-0.00678179
-0.0068407
-0.00691168
-0.00700821
-0.00704414
-0.00608624
-0.0059636
-0.00613803
-0.0437626
0.125132
0.120208
0.126758
0.122147
0.122532
0.12251
0.122581
0.122544
0.122587
0.122616
0.1226
0.12258
0.122511
0.122488
0.122445
0.122403
0.122352
0.122332
0.122234
0.122185
0.122136
0.122076
0.121762
0.121936
0.136062
0.106824
0.216336
0.214763
0.210612
0.182495
0.130088
0.129989
0.130209
0.130185
0.130157
0.130182
0.130115
0.130108
0.130079
0.130064
0.130065
0.130042
0.13007
0.130042
0.13003
0.12999
0.129998
0.129218
0.128791
0.130995
-0.0668912
-0.0747902
-0.071835
-0.0727176
-0.0728924
-0.0729656
-0.0730946
-0.0730029
-0.0730793
-0.0728543
-0.0729395
-0.0728846
-0.0729597
-0.0729839
-0.0729666
-0.0729866
-0.07303
-0.0730521
-0.0730583
-0.0730941
-0.0731351
-0.0731439
-0.0731351
-0.0731954
-0.0791777
-0.0806947
-0.0816881
0.101893
0.132262
-0.756234
-0.096107
-0.0986111
-0.0984051
-0.0984895
-0.0985092
-0.0985651
-0.0986263
-0.0986708
-0.0987152
-0.0987657
-0.098818
-0.0988458
-0.0989401
-0.0989751
-0.0990027
-0.0990308
-0.0990951
-0.0983829
-0.098169
-0.0991633
-0.0324949
-0.0250595
-0.0285945
-0.0244221
-0.0229104
-0.0223094
-0.0223538
-0.0221999
-0.0222645
-0.022136
-0.0222523
-0.0222129
-0.022306
-0.0223423
-0.0223396
-0.0223918
-0.0224345
-0.0224772
-0.0225149
-0.0225413
-0.0225902
-0.0226609
-0.0226858
-0.023022
-0.0234879
-0.00541038
-0.0333787
0.119418
0.118669
0.109892
0.0793826
0.0342206
0.0340942
0.0343406
0.0343127
0.0342883
0.0342856
0.0342214
0.0342127
0.0341834
0.0341644
0.0341635
0.0341572
0.0341337
0.0341268
0.0340991
0.0340947
0.0340988
0.0347467
0.0348852
0.0339889
0.0293377
0.0246725
0.026488
0.0263909
0.0260297
0.0260044
0.025759
0.0257976
0.0258347
0.0258761
0.0259058
0.0258947
0.0258428
0.0258671
0.0258254
0.0258273
0.0258053
0.0257814
0.0257806
0.0257342
0.0257354
0.025713
0.0252156
0.0251364
0.0231175
0.0244592
-0.0823975
0.0551655
0.449902
-0.605403
-0.0619103
-0.0634088
-0.0632595
-0.063294
-0.0633079
-0.0633268
-0.0633476
-0.0633924
-0.0634214
-0.0634385
-0.0634628
-0.0634943
-0.0634887
-0.0635376
-0.0635421
-0.0635575
-0.063588
-0.0633777
-0.0632313
-0.0656699
-0.057476
-0.0544931
-0.0562082
-0.0552564
-0.0469723
-0.0463168
-0.046342
-0.0462683
-0.0463345
-0.0462079
-0.0462743
-0.0462391
-0.046327
-0.0463431
-0.0463856
-0.0463875
-0.0464322
-0.0464403
-0.046514
-0.0465396
-0.0465718
-0.0466246
-0.0466418
-0.0467967
-0.0481502
-0.0269241
-0.0497113
0.101403
0.101674
0.0902212
0.0634743
0.0335906
0.033604
0.0338324
0.033809
0.0338049
0.0337778
0.0337559
0.033746
0.0337164
0.0337108
0.0336924
0.0337013
0.0336652
0.0336625
0.0336484
0.0336657
0.0336442
0.0348115
0.0364695
0.0336479
0.027073
0.0262476
0.0264674
0.0273193
0.0268741
0.0268238
0.0266112
0.0265408
0.0266994
0.0265597
0.0266596
0.0266142
0.0265964
0.0266241
0.0265942
0.0266164
0.0265878
0.0265937
0.0265551
0.0265591
0.0265812
0.0265621
0.0255587
0.0254988
0.028862
0.0378526
-0.111332
-0.0584909
0.589076
-0.428742
-0.0538962
-0.0537423
-0.053633
-0.053616
-0.0536584
-0.0536664
-0.0536705
-0.0536928
-0.0536851
-0.0537047
-0.0537302
-0.0537275
-0.0537138
-0.0537536
-0.0537504
-0.0537741
-0.0537602
-0.0539527
-0.0553392
-0.0515538
-0.0369886
-0.0371236
-0.0365969
-0.0397211
-0.0251456
-0.0247452
-0.0247349
-0.0247641
-0.0247664
-0.0248554
-0.0248357
-0.0248983
-0.024923
-0.0249239
-0.0249524
-0.0250046
-0.0250076
-0.0250576
-0.0251037
-0.0250874
-0.0251115
-0.0251582
-0.0251853
-0.0250298
-0.0270766
-0.00917709
-0.027331
0.0724752
0.0735902
0.061406
0.0417061
0.028218
0.0283982
0.0285409
0.0285161
0.0284942
0.0284715
0.0284915
0.0284763
0.0284562
0.0284782
0.0284443
0.0284672
0.0284838
0.028478
0.0284839
0.0284771
0.0284691
0.030686
0.029704
0.0264803
0.0138155
0.0169185
0.0152049
0.0170444
0.016646
0.0165604
0.0164749
0.0164641
0.016467
0.0164239
0.0164841
0.0164484
0.0164309
0.016475
0.0164653
0.0164894
0.0164953
0.0164962
0.0164985
0.0164887
0.0165115
0.0164878
0.0153851
0.0153211
0.0219105
0.0372716
-0.0905077
-0.132901
0.635685
-0.184537
0.0291839
0.0307531
0.0307592
0.0307579
0.0307428
0.0307287
0.0307381
0.0307139
0.030711
0.0307069
0.0307101
0.0307169
0.0307145
0.0306884
0.0306797
0.0306904
0.0306764
)
;

boundaryField
{
    movingWall
    {
        type            zeroGradient;
    }
    fixedWalls
    {
        type            zeroGradient;
    }
    frontAndBack
    {
        type            empty;
    }
}

