/*--------------------------------*- C++ -*----------------------------------*\
| =========                 |                                                 |
| \\      /  F ield         | OpenFOAM: The Open Source CFD Toolbox           |
|  \\    /   O peration     | Version:  v2006                                 |
|   \\  /    A nd           | Website:  www.openfoam.com                      |
|    \\/     M anipulation  |                                                 |
\*---------------------------------------------------------------------------*/
FoamFile
{
    version     2.0;
    format      ascii;
    class       volScalarField;
    location    "0";
    object      f;
}
// * * * * * * * * * * * * * * * * * * * * * * * * * * * * * * * * * * * * * //

dimensions      [0 0 0 0 0 0 0];


internalField   nonuniform List<scalar> 
2500
(
7.62258e-78
-4.20333e-62
2.11595e-55
1.40623e-48
1.56877e-44
2.68585e-41
1.03484e-38
9.9376e-37
2.92186e-35
5.26754e-34
5.97749e-33
4.2344e-32
2.00383e-31
6.87702e-31
1.84382e-30
4.12232e-30
8.79865e-30
1.88884e-29
3.71442e-29
6.16213e-29
8.45033e-29
9.69667e-29
9.53326e-29
8.24072e-29
6.40894e-29
4.56057e-29
2.99808e-29
1.82768e-29
1.03388e-29
5.42628e-30
2.6437e-30
1.19743e-30
5.05411e-31
1.99377e-31
7.37466e-32
2.56606e-32
8.42623e-33
2.61904e-33
7.72676e-34
2.16919e-34
5.80812e-35
1.48632e-35
3.64194e-36
8.5592e-37
1.9323e-37
4.19627e-38
8.77716e-39
1.77036e-39
3.44717e-40
3.30316e-41
1.52132e-75
-2.53194e-60
6.10776e-54
2.65349e-47
2.16394e-43
2.98445e-40
9.68591e-38
8.02526e-36
2.0927e-34
3.37727e-33
3.50229e-32
2.29949e-31
1.01661e-30
3.27383e-30
8.25453e-30
1.73895e-29
3.55792e-29
7.46127e-29
1.43289e-28
2.3024e-28
3.03587e-28
3.33113e-28
3.11953e-28
2.56481e-28
1.9007e-28
1.29543e-28
8.21479e-29
4.8656e-29
2.68987e-29
1.38532e-29
6.63919e-30
2.96208e-30
1.23235e-30
4.79345e-31
1.74855e-31
6.00104e-32
1.94394e-32
5.96164e-33
1.7358e-33
4.81058e-34
1.27195e-34
3.21529e-35
7.78515e-36
1.8086e-36
4.03747e-37
8.67302e-38
1.79505e-38
3.58373e-39
6.90904e-40
7.11463e-41
2.68267e-73
-1.34611e-58
1.34143e-52
4.43865e-46
2.65243e-42
2.98855e-39
8.32998e-37
6.06342e-35
1.4267e-33
2.09261e-32
2.01439e-31
1.24533e-30
5.22301e-30
1.60174e-29
3.85193e-29
7.75083e-29
1.54182e-28
3.20139e-28
6.07207e-28
9.549e-28
1.22344e-27
1.29735e-27
1.16934e-27
9.23388e-28
6.57975e-28
4.3324e-28
2.67323e-28
1.55213e-28
8.46163e-29
4.314e-29
2.05097e-29
9.08532e-30
3.75385e-30
1.44999e-30
5.25163e-31
1.78927e-31
5.75342e-32
1.75143e-32
5.06204e-33
1.39273e-33
3.65631e-34
9.17855e-35
2.20742e-35
5.09463e-36
1.13012e-36
2.41278e-37
4.96415e-38
9.85395e-39
1.88921e-39
2.03957e-40
4.60519e-71
-6.94856e-57
2.05921e-51
7.29308e-45
3.15884e-41
2.89865e-38
6.96513e-36
4.46304e-34
9.48178e-33
1.26226e-31
1.12739e-30
6.56588e-30
2.61449e-29
7.64098e-29
1.75334e-28
3.3702e-28
6.53363e-28
1.34822e-27
2.52993e-27
3.89548e-27
4.84922e-27
4.96654e-27
4.30197e-27
3.25404e-27
2.22148e-27
1.40812e-27
8.43493e-28
4.79855e-28
2.58218e-28
1.30547e-28
6.16842e-29
2.71766e-29
1.11672e-29
4.28826e-30
1.54339e-30
5.22353e-31
1.66804e-31
5.042e-32
1.44692e-32
3.95284e-33
1.0305e-33
2.56924e-34
6.13781e-35
1.40741e-35
3.10238e-36
6.58324e-37
1.34649e-37
2.65758e-38
5.06703e-39
5.70093e-40
7.69092e-69
-3.47976e-55
-5.12686e-51
1.17886e-43
3.65301e-40
2.71608e-37
5.65561e-35
3.19873e-33
6.14085e-32
7.40705e-31
6.13358e-30
3.36655e-29
1.27366e-28
3.54998e-28
7.7756e-28
1.42775e-27
2.70492e-27
5.57005e-27
1.03587e-26
1.56222e-26
1.88926e-26
1.86773e-26
1.55218e-26
1.12103e-26
7.29828e-27
4.43195e-27
2.56904e-27
1.43105e-27
7.61253e-28
3.82617e-28
1.80158e-28
7.9127e-29
3.23959e-29
1.23848e-29
4.43403e-30
1.49184e-30
4.73367e-31
1.42133e-31
4.0511e-32
1.09914e-32
2.84593e-33
7.04783e-34
1.67263e-34
3.81081e-35
8.34797e-36
1.76074e-36
3.58023e-37
7.02628e-38
1.3323e-38
1.55437e-39
1.24843e-66
-1.68878e-53
-2.18368e-48
1.87738e-42
4.10109e-39
2.45009e-36
4.45298e-34
2.23112e-32
3.8745e-31
4.22556e-30
3.24046e-29
1.67664e-28
6.03072e-28
1.60416e-27
3.35478e-27
5.88377e-27
1.09281e-26
2.25614e-26
4.1655e-26
6.15484e-26
7.23023e-26
6.89513e-26
5.48777e-26
3.76975e-26
2.32621e-26
1.34407e-26
7.50319e-27
4.08885e-27
2.15536e-27
1.08117e-27
5.09275e-28
2.2371e-28
9.14848e-29
3.48818e-29
1.24392e-29
4.16441e-30
1.31385e-30
3.92057e-31
1.11021e-31
2.99229e-32
7.69634e-33
1.89343e-33
4.46454e-34
1.01074e-34
2.20049e-35
4.61348e-36
9.32642e-37
1.82003e-37
3.43223e-38
4.13473e-39
1.96747e-64
-7.93177e-52
-1.2101e-46
2.94902e-41
4.47116e-38
2.11729e-35
3.39328e-33
1.51357e-31
2.3809e-30
2.34204e-29
1.66067e-28
8.10021e-28
2.77137e-27
7.03935e-27
1.40575e-26
2.35408e-26
4.30256e-26
8.95273e-26
1.64395e-25
2.38047e-25
2.71602e-25
2.497e-25
1.89938e-25
1.23513e-25
7.16448e-26
3.89852e-26
2.07992e-26
1.10736e-26
5.80839e-27
2.92614e-27
1.38711e-27
6.12274e-28
2.50952e-28
9.56607e-29
3.4035e-29
1.13506e-29
3.56343e-30
1.05734e-30
2.97587e-31
7.96987e-32
2.03671e-32
4.97844e-33
1.16642e-33
2.62423e-34
5.6785e-35
1.18349e-35
2.37874e-36
4.61614e-37
8.65799e-38
1.07306e-38
3.00622e-62
-3.59919e-50
-4.98255e-45
4.57078e-40
4.74036e-37
1.74017e-34
2.49622e-32
9.97918e-31
1.42466e-29
1.2605e-28
8.2465e-28
3.79104e-27
1.23398e-26
2.99408e-26
5.70856e-26
9.1213e-26
1.6479e-25
3.47714e-25
6.36222e-25
9.03063e-25
1.00064e-24
8.8631e-25
6.42886e-25
3.93407e-25
2.12018e-25
1.06878e-25
5.37638e-26
2.79017e-26
1.46772e-26
7.50849e-27
3.61681e-27
1.61563e-27
6.66908e-28
2.54972e-28
9.06991e-29
3.01741e-29
9.43518e-30
2.78556e-30
7.7956e-31
2.0752e-31
5.27027e-32
1.28018e-32
2.98073e-33
6.66507e-34
1.4336e-34
2.9704e-35
5.93639e-36
1.14564e-36
2.13721e-37
2.71665e-38
4.44634e-60
-1.57459e-48
-1.7754e-43
6.98426e-39
4.90239e-36
1.34489e-33
1.76646e-31
6.38807e-30
8.2989e-29
6.58468e-28
3.96382e-27
1.71638e-26
5.31361e-26
1.23153e-25
2.24035e-25
3.41119e-25
6.12581e-25
1.32028e-24
2.4122e-24
3.35725e-24
3.61245e-24
3.08082e-24
2.12547e-24
1.21474e-24
5.97755e-25
2.71174e-25
1.25106e-25
6.29874e-26
3.38072e-26
1.79527e-26
8.93934e-27
4.08714e-27
1.7112e-27
6.59047e-28
2.35037e-28
7.81384e-29
2.43631e-29
7.16203e-30
1.99402e-30
5.27797e-31
1.33243e-31
3.21693e-32
7.44477e-33
1.65471e-33
3.5382e-34
7.28898e-35
1.44855e-35
2.78027e-36
5.15912e-37
6.70746e-38
6.3536e-58
-6.62384e-47
-5.74925e-42
1.04959e-37
4.97331e-35
9.58484e-33
1.19636e-30
3.96484e-29
4.70466e-28
3.33763e-27
1.8425e-26
7.50689e-26
2.20804e-25
4.88455e-25
8.46588e-25
1.22554e-24
2.20339e-24
4.8941e-24
8.95008e-24
1.22185e-23
1.27669e-23
1.04774e-23
6.85526e-24
3.62291e-24
1.58353e-24
6.09202e-25
2.39525e-25
1.15383e-25
6.64626e-26
3.86556e-26
2.05984e-26
9.83018e-27
4.22023e-27
1.64752e-27
5.91199e-28
1.96836e-28
6.12795e-29
1.79529e-29
4.97547e-30
1.31e-30
3.28838e-31
7.89283e-32
1.81584e-32
4.01237e-33
8.53011e-34
1.74737e-34
3.45348e-35
6.59285e-36
1.21699e-36
1.6145e-37
8.75131e-56
-2.6702e-45
-1.72819e-40
1.54481e-36
4.99327e-34
6.05904e-32
7.69415e-30
2.3811e-28
2.59412e-27
1.64126e-26
8.27628e-26
3.16803e-25
8.83359e-25
1.86131e-24
3.06456e-24
4.20074e-24
7.63612e-24
1.76797e-23
3.24566e-23
4.34854e-23
4.41245e-23
3.48279e-23
2.15398e-23
1.03862e-23
3.84245e-24
1.06893e-24
2.49475e-25
1.03759e-25
8.81575e-26
6.88155e-26
4.28528e-26
2.21806e-26
9.94136e-27
3.9697e-27
1.44032e-27
4.81584e-28
1.49946e-28
4.38241e-29
1.20977e-29
3.16982e-30
7.91442e-31
1.889e-31
4.32118e-32
9.49414e-33
2.00711e-33
4.0889e-34
8.03781e-35
1.52639e-35
2.80316e-36
3.7868e-37
1.15857e-53
-1.0267e-43
-4.87138e-39
2.21337e-35
5.02154e-33
3.07295e-31
4.63953e-29
1.37937e-27
1.38986e-26
7.82919e-26
3.59116e-25
1.28911e-24
3.39407e-24
6.78203e-24
1.05477e-23
1.3588e-23
2.53438e-23
6.21055e-23
1.14875e-22
1.51159e-22
1.48974e-22
1.13044e-22
6.58371e-23
2.84255e-23
8.06786e-24
6.1123e-25
-7.59631e-25
-4.33566e-25
-6.59139e-26
6.9717e-26
7.44514e-26
4.58383e-26
2.21601e-26
9.17834e-27
3.38993e-27
1.14231e-27
3.5642e-28
1.04043e-28
2.86296e-29
7.46903e-30
1.85559e-30
4.40541e-31
1.00227e-31
2.19009e-32
4.6049e-33
9.3312e-34
1.82471e-34
3.44744e-35
6.29939e-36
8.65001e-37
1.46883e-51
-3.74028e-42
-1.29357e-37
3.06255e-34
5.1237e-32
7.58007e-31
2.56355e-28
7.67106e-27
7.2229e-26
3.62248e-25
1.50541e-24
5.05878e-24
1.2497e-23
2.34807e-23
3.41188e-23
4.06987e-23
7.98161e-23
2.11575e-22
3.96191e-22
5.1254e-22
4.90761e-22
3.57898e-22
1.9545e-22
7.35048e-23
1.2185e-23
-6.42377e-24
-6.79909e-24
-3.43185e-24
-1.11034e-24
-1.5997e-25
7.88917e-26
8.23746e-26
4.6039e-26
2.024e-26
7.6833e-27
2.62133e-27
8.2162e-28
2.39879e-28
6.58542e-29
1.71158e-29
4.23288e-30
9.99951e-31
2.26327e-31
4.91979e-32
1.02908e-32
2.07464e-33
4.03656e-34
7.58864e-35
1.37992e-35
1.92303e-36
1.77434e-49
-1.27783e-40
-3.23954e-36
4.0501e-33
5.35134e-31
-8.37043e-30
1.23637e-27
4.06412e-26
3.63031e-25
1.62506e-24
6.10097e-24
1.91787e-23
4.40462e-23
7.65894e-23
1.01683e-22
1.08645e-22
2.34964e-22
6.96641e-22
1.32912e-21
1.69286e-21
1.57551e-21
1.10411e-21
5.62653e-22
1.76519e-22
-2.04699e-24
-4.37167e-23
-3.29621e-23
-1.59177e-23
-5.64613e-24
-1.39611e-24
-1.20301e-25
1.09897e-25
8.66867e-26
4.21954e-26
1.67022e-26
5.80492e-27
1.83322e-27
5.36184e-28
1.47e-28
3.80878e-29
9.38122e-30
2.20607e-30
4.96925e-31
1.07493e-31
2.23748e-32
4.48896e-33
8.69227e-34
1.62642e-34
2.94375e-35
4.15773e-36
2.0275e-47
-4.02414e-39
-7.63804e-35
5.04906e-32
5.71834e-30
-1.74691e-28
4.51894e-27
2.02475e-25
1.75634e-24
7.05992e-24
2.39322e-23
7.05318e-23
1.48874e-22
2.3264e-22
2.68486e-22
2.33949e-22
6.28918e-22
2.2075e-21
4.32854e-21
5.4384e-21
4.92261e-21
3.31548e-21
1.56819e-21
3.80843e-22
-1.21099e-22
-1.98027e-22
-1.30791e-22
-6.11137e-23
-2.21794e-23
-6.22141e-24
-1.16e-24
1.47602e-26
1.38834e-25
8.20122e-26
3.4637e-26
1.23668e-26
3.94977e-27
1.15955e-27
3.17834e-28
8.21593e-29
2.01662e-29
4.72305e-30
1.05927e-30
2.28115e-31
4.72693e-32
9.4409e-33
1.81995e-33
3.39026e-34
6.10922e-35
8.73506e-36
2.16647e-45
-1.1304e-37
-1.68729e-33
5.81596e-31
6.18075e-29
-2.07767e-27
3.75568e-27
9.25873e-25
8.11721e-24
2.96251e-23
9.09725e-23
2.53363e-22
4.86627e-22
6.47854e-22
5.68383e-22
2.45796e-22
1.43856e-21
6.69444e-21
1.36549e-20
1.69668e-20
1.49484e-20
9.68081e-21
4.22542e-21
6.809e-22
-6.79055e-22
-7.60161e-22
-4.63832e-22
-2.10361e-22
-7.63737e-23
-2.24225e-23
-5.02244e-24
-6.04502e-25
1.52184e-25
1.44972e-25
6.80092e-26
2.52448e-26
8.19339e-27
2.41997e-27
6.64079e-28
1.71424e-28
4.19621e-29
9.79431e-30
2.18841e-30
4.69434e-31
9.68871e-32
1.92731e-32
3.70031e-33
6.86507e-34
1.23204e-34
1.7816e-35
2.12176e-43
-2.61957e-36
-3.45966e-32
5.98583e-30
6.63031e-28
-1.98325e-26
-1.42311e-25
3.68358e-24
3.53966e-23
1.19458e-22
3.35059e-22
8.97011e-22
1.57151e-21
1.62407e-21
5.93671e-22
-1.18457e-21
2.28453e-21
1.92834e-20
4.16257e-20
5.13229e-20
4.40541e-20
2.74576e-20
1.09939e-20
7.22962e-22
-2.82447e-21
-2.63943e-21
-1.51978e-21
-6.69409e-22
-2.40509e-22
-7.16722e-23
-1.72712e-23
-2.93878e-24
-6.37598e-26
2.20983e-25
1.24987e-25
4.91123e-26
1.63008e-26
4.85794e-27
1.33687e-27
3.45023e-28
8.43091e-29
1.96285e-29
4.37281e-30
9.35037e-31
1.92346e-31
3.81317e-32
7.29547e-33
1.34866e-33
2.4115e-34
3.52404e-35
1.82841e-41
-3.69958e-35
-6.46744e-31
5.1279e-29
6.91058e-27
-1.63467e-25
-1.87678e-24
1.07921e-23
1.42563e-22
4.58627e-22
1.19107e-21
3.15448e-21
5.21932e-21
3.64628e-21
-2.53969e-21
-1.07452e-20
-1.0606e-21
5.22003e-20
1.22301e-19
1.5028e-19
1.25807e-19
7.55726e-20
2.76072e-20
-1.28325e-21
-1.01894e-20
-8.51493e-21
-4.67333e-21
-1.9978e-21
-7.05535e-22
-2.10086e-22
-5.22301e-23
-1.01262e-23
-1.06721e-24
2.46817e-25
2.10833e-25
9.03381e-26
3.09363e-26
9.33837e-27
2.5828e-27
6.67505e-28
1.63044e-28
3.79089e-29
8.42982e-30
1.79869e-30
3.69128e-31
7.29893e-32
1.39259e-32
2.56676e-33
4.57516e-34
6.75269e-35
1.24431e-39
6.40462e-34
-1.06132e-29
2.89617e-28
6.85902e-26
-1.18889e-24
-1.66995e-23
1.25524e-24
5.08992e-22
1.6501e-21
4.03856e-21
1.10238e-20
1.87624e-20
8.06397e-21
-2.1826e-20
-5.63862e-20
-3.05484e-20
1.30633e-19
3.45352e-19
4.25302e-19
3.47584e-19
2.01646e-19
6.69595e-20
-1.19518e-20
-3.35064e-20
-2.58661e-20
-1.35973e-20
-5.63218e-21
-1.94487e-21
-5.72995e-22
-1.43899e-22
-2.96561e-23
-4.26532e-24
1.88088e-26
3.13841e-25
1.55123e-25
5.55537e-26
1.70789e-26
4.76248e-27
1.23541e-27
3.02233e-28
7.03031e-29
1.563e-29
3.33272e-30
6.83206e-31
1.34898e-31
2.56913e-32
4.72519e-33
8.4018e-34
1.25197e-34
3.73623e-38
8.01262e-32
-1.38168e-28
-7.1937e-28
6.36663e-25
-7.64585e-24
-1.22965e-22
-3.17849e-22
1.46076e-21
5.41388e-21
1.26973e-20
3.77694e-20
7.50569e-20
2.54706e-20
-1.03381e-19
-2.41495e-19
-1.75971e-19
2.9374e-19
9.34297e-19
1.16175e-18
9.2757e-19
5.21082e-19
1.57337e-19
-5.21011e-20
-1.02664e-19
-7.45456e-20
-3.76004e-20
-1.50505e-20
-5.05675e-21
-1.46325e-21
-3.66496e-22
-7.77826e-23
-1.28097e-23
-9.8289e-25
3.71269e-25
2.42912e-25
9.31401e-26
2.94207e-26
8.31311e-27
2.17251e-27
5.33977e-28
1.24606e-28
2.77641e-29
5.92862e-30
1.21629e-30
2.40183e-31
4.572e-32
8.39994e-33
1.49121e-33
2.24309e-34
-7.09131e-36
4.10461e-30
-8.49579e-28
-5.10263e-26
5.43362e-24
-4.30357e-23
-7.88763e-22
-3.35575e-21
2.26412e-21
1.54093e-20
3.44864e-20
1.22805e-19
3.25685e-19
1.36666e-19
-3.78046e-19
-9.13371e-19
-7.55979e-19
5.58853e-19
2.41246e-18
3.05998e-18
2.38704e-18
1.30269e-18
3.60596e-19
-1.80072e-19
-2.96526e-19
-2.04774e-19
-9.90523e-20
-3.81612e-20
-1.24082e-20
-3.50375e-21
-8.67534e-22
-1.8638e-22
-3.30238e-23
-3.90559e-24
1.9753e-25
3.29326e-25
1.42201e-25
4.69256e-26
1.3558e-26
3.59279e-27
8.91876e-28
2.09718e-28
4.70099e-29
1.00851e-29
2.07612e-30
4.10918e-31
7.83196e-32
1.43942e-32
2.55414e-33
3.87855e-34
-1.84443e-33
1.545e-28
2.50484e-26
-8.8483e-25
4.19167e-23
-2.07091e-22
-4.46986e-21
-2.49227e-20
-7.24883e-21
3.42642e-20
6.2271e-20
3.5622e-19
1.44161e-18
8.24168e-19
-1.11381e-18
-3.14859e-18
-2.78588e-18
7.4657e-19
5.91513e-18
7.76943e-18
5.91474e-18
3.14632e-18
8.16008e-19
-5.4305e-19
-8.1301e-19
-5.37881e-19
-2.48821e-19
-9.17297e-20
-2.86752e-20
-7.84977e-21
-1.90817e-21
-4.10893e-22
-7.62197e-23
-1.10093e-23
-6.53474e-25
3.28111e-25
1.86911e-25
6.70156e-26
2.01846e-26
5.49357e-27
1.39076e-27
3.32088e-28
7.53555e-29
1.63224e-29
3.38501e-30
6.73604e-31
1.28858e-31
2.37342e-32
4.21532e-33
6.46425e-34
-2.79957e-31
4.45739e-27
1.2728e-24
-9.98329e-24
2.87088e-22
-8.13627e-22
-2.23632e-20
-1.5173e-19
-6.96981e-20
4.45239e-20
-9.13145e-20
7.95128e-19
6.10274e-18
4.42467e-18
-2.49845e-18
-1.00802e-17
-9.22313e-18
-8.47449e-20
1.36611e-17
1.90356e-17
1.40939e-17
7.32655e-18
1.85705e-18
-1.47197e-18
-2.12639e-18
-1.35457e-18
-5.95943e-19
-2.0844e-19
-6.21016e-20
-1.63575e-20
-3.88105e-21
-8.33449e-22
-1.60156e-22
-2.63388e-23
-3.13608e-24
1.45289e-26
1.76367e-25
7.89221e-26
2.61197e-26
7.52422e-27
1.98246e-27
4.87803e-28
1.13272e-28
2.49733e-29
5.2487e-30
1.05477e-30
2.03174e-31
3.75932e-32
6.69436e-33
1.03732e-33
-3.32415e-29
8.11255e-26
3.60973e-23
-6.80778e-23
1.71503e-21
-2.34781e-21
-9.86593e-20
-7.72942e-19
-1.28564e-19
1.62454e-20
-1.79821e-18
5.11507e-19
2.32091e-17
2.03806e-17
-3.11408e-18
-3.04137e-17
-2.80856e-17
-5.05942e-18
2.93013e-17
4.51665e-17
3.22778e-17
1.63908e-17
4.34257e-18
-3.60218e-18
-5.32777e-18
-3.27936e-18
-1.35912e-18
-4.45242e-19
-1.24875e-19
-3.13492e-20
-7.22408e-21
-1.54733e-21
-3.08605e-22
-5.66023e-23
-9.14141e-24
-1.11519e-24
-1.36526e-26
5.44817e-26
2.55141e-26
8.57847e-27
2.47887e-27
6.48961e-28
1.57436e-28
3.58203e-29
7.70126e-30
1.5729e-30
3.06415e-31
5.71251e-32
1.02202e-32
1.60149e-33
-3.24811e-27
-7.95382e-25
7.81072e-22
6.91769e-23
8.83102e-21
-3.23064e-21
-4.05051e-19
-3.2085e-18
2.07176e-18
7.44478e-19
-1.23751e-17
-7.41481e-18
7.28554e-17
8.16795e-17
5.19426e-18
-8.65017e-17
-8.03417e-17
-2.22922e-17
5.68939e-17
1.04666e-16
7.11193e-17
3.50007e-17
1.06104e-17
-7.8299e-18
-1.28488e-17
-7.65875e-18
-2.94255e-18
-8.8475e-19
-2.29197e-19
-5.41216e-20
-1.2075e-20
-2.60246e-21
-5.47688e-22
-1.12467e-22
-2.22093e-23
-4.07273e-24
-6.40631e-25
-6.57217e-26
5.82303e-27
6.22497e-27
2.44821e-27
7.45881e-28
1.97835e-28
4.76472e-29
1.06376e-29
2.22842e-30
4.41562e-31
8.32426e-32
1.49964e-32
2.37842e-33
-2.58154e-25
-1.68981e-22
1.34759e-20
9.55292e-21
3.93892e-20
1.1021e-20
-2.19135e-18
-1.01936e-17
2.29186e-17
1.19005e-17
-6.31815e-17
-5.15371e-17
1.60565e-16
3.10322e-16
4.83772e-17
-2.22965e-16
-2.25077e-16
-6.89221e-17
9.55839e-17
2.40675e-16
1.51416e-16
7.04637e-17
2.72007e-17
-1.42993e-17
-3.0007e-17
-1.73475e-17
-6.00993e-18
-1.60218e-18
-3.70897e-19
-8.06825e-20
-1.74848e-20
-3.90455e-21
-9.01579e-22
-2.11002e-22
-4.85915e-23
-1.0676e-23
-2.16534e-24
-3.87067e-25
-5.50286e-26
-3.79854e-27
1.13107e-27
6.54119e-28
2.15888e-28
5.79779e-29
1.3778e-29
2.9987e-30
6.08619e-31
1.16471e-31
2.1173e-32
3.40096e-33
-1.5376e-23
-1.04711e-20
1.84797e-19
1.42235e-19
1.51389e-19
1.1229e-19
-2.79546e-17
-2.26056e-17
2.46031e-16
1.18488e-16
-3.13946e-16
-1.76772e-16
5.91849e-16
1.72598e-15
1.82108e-16
-1.91861e-15
-6.97007e-16
-1.71581e-16
1.29547e-16
5.69462e-16
3.15441e-16
1.30532e-16
7.26374e-17
-1.77991e-17
-6.83029e-17
-3.84718e-17
-1.1426e-17
-2.52353e-18
-4.85165e-19
-9.31213e-20
-2.02583e-20
-5.13319e-21
-1.40154e-21
-3.80406e-22
-9.833e-23
-2.37246e-23
-5.27148e-24
-1.06128e-24
-1.88051e-25
-2.73541e-26
-2.49722e-27
2.08687e-28
1.87328e-28
6.36083e-29
1.67568e-29
3.85129e-30
8.06368e-31
1.57134e-31
2.8858e-32
4.69393e-33
-4.20611e-22
-4.7941e-19
2.11945e-18
1.03613e-18
5.11824e-19
1.49062e-18
-5.67593e-16
2.82241e-14
1.40681e-14
9.19671e-16
-2.31938e-15
9.55209e-14
1.19445e-13
9.88558e-15
-7.40832e-14
-2.78091e-14
-1.95686e-15
-3.19195e-16
1.42793e-16
1.8857e-15
6.63536e-16
2.10961e-16
2.00693e-16
7.76851e-18
-1.51428e-16
-8.51233e-17
-1.95887e-17
-3.00058e-18
-3.54434e-19
-4.80672e-20
-1.4524e-20
-5.92837e-21
-2.1376e-21
-6.65497e-22
-1.84402e-22
-4.63805e-23
-1.06631e-23
-2.23477e-24
-4.2168e-25
-6.95596e-26
-9.28003e-27
-7.15477e-28
9.59845e-29
6.28464e-29
1.94673e-29
4.79403e-30
1.03913e-30
2.06192e-31
3.82093e-32
6.28157e-33
5.63633e-20
-1.91069e-17
1.11324e-16
-9.45571e-16
9.42679e-15
-5.5677e-14
2.9741e-13
2.64531e-13
9.08201e-14
-1.28603e-12
1.63924e-12
5.1852e-12
1.85796e-12
-1.12052e-12
-1.43475e-12
-1.20189e-13
3.23674e-15
-5.72601e-16
8.71492e-15
1.21992e-14
1.32974e-15
2.56736e-16
6.14356e-16
1.61561e-16
-3.17686e-16
-1.96159e-16
-2.7471e-17
-7.4842e-19
5.28332e-19
1.23777e-19
4.36048e-21
-6.85765e-21
-3.3692e-21
-1.11795e-21
-3.13535e-22
-7.9075e-23
-1.82743e-23
-3.87435e-24
-7.46886e-25
-1.28277e-25
-1.873e-26
-2.01005e-27
-3.50684e-29
6.03146e-29
2.27693e-29
5.97409e-30
1.32989e-30
2.66876e-31
4.96212e-32
8.2058e-33
1.32646e-17
-1.06577e-15
1.35563e-14
-8.74249e-14
2.4132e-13
-4.7134e-13
5.3864e-12
-4.44898e-11
-5.57218e-11
-9.74523e-12
1.19243e-10
2.93815e-11
5.37795e-12
-5.3838e-11
-5.88107e-12
-4.27052e-14
1.80408e-13
1.15402e-13
2.17785e-13
5.57164e-14
9.44949e-16
1.76644e-16
3.517e-15
8.2833e-16
-8.68855e-16
-5.26288e-16
-1.65337e-17
1.04303e-17
3.00019e-18
4.59701e-19
2.42163e-20
-1.16173e-20
-5.56727e-21
-1.71236e-21
-4.53264e-22
-1.1072e-22
-2.5308e-23
-5.37579e-24
-1.04502e-24
-1.81603e-25
-2.69662e-26
-3.00771e-27
-9.41688e-29
7.41272e-29
2.9489e-29
7.81111e-30
1.73714e-30
3.46687e-31
6.39474e-32
1.05482e-32
-5.92265e-15
-8.99915e-15
6.78717e-14
-3.50442e-13
7.57033e-14
3.51137e-11
-9.98201e-11
-5.59055e-10
-4.1686e-10
7.20348e-09
7.01467e-10
1.0459e-10
-3.87041e-09
-3.97869e-10
6.7539e-13
1.38765e-14
7.92766e-13
2.18143e-12
1.21016e-12
1.29335e-13
-6.23504e-15
4.01201e-15
2.15076e-14
2.5286e-15
-1.33684e-14
-1.81403e-15
1.1086e-16
4.4169e-17
7.5128e-18
7.41866e-19
-1.83325e-20
-2.92184e-20
-8.79569e-21
-2.04388e-21
-4.48062e-22
-9.99496e-23
-2.25441e-23
-4.90023e-24
-9.76585e-25
-1.70264e-25
-2.40634e-26
-2.10102e-27
1.71272e-28
1.42736e-28
4.52669e-29
1.10954e-29
2.36532e-30
4.58392e-31
8.25804e-32
1.34349e-32
-1.44673e-12
1.45475e-11
-1.16841e-10
5.07757e-10
-1.18711e-09
5.71067e-10
-1.37219e-08
1.36651e-08
1.70891e-07
4.81353e-08
-5.58298e-07
-4.50645e-07
-6.65706e-08
-5.37403e-10
4.19093e-12
2.65047e-12
2.96723e-12
1.00858e-11
3.52982e-12
1.37169e-13
-2.1631e-14
4.60774e-13
6.49779e-14
-2.04762e-13
-8.59767e-14
-3.66467e-15
7.52092e-16
1.14236e-16
1.05402e-17
-1.10398e-20
-2.74115e-19
-6.90677e-20
-9.94037e-21
-5.73259e-22
1.42976e-22
5.52452e-23
1.07857e-23
1.4196e-24
1.3227e-25
1.73353e-26
7.73649e-27
3.44382e-27
1.16947e-27
3.25184e-28
7.83303e-29
1.69215e-29
3.35153e-30
6.17781e-31
1.07115e-31
1.69929e-32
-8.5814e-12
1.12063e-10
-9.75148e-10
5.9323e-09
-9.22454e-09
-6.73058e-08
-5.43313e-08
2.31954e-06
1.19874e-06
-1.72567e-05
-1.04139e-05
-2.57627e-06
-1.90367e-07
2.78026e-08
9.62555e-09
3.79317e-10
1.44e-11
2.67963e-11
6.3921e-12
7.54781e-14
6.2276e-12
2.62247e-12
-1.60988e-12
-2.15464e-12
-2.30755e-13
1.1761e-14
2.92727e-15
1.30965e-16
-4.71732e-18
-4.00431e-18
-9.13354e-19
-1.10993e-19
4.37156e-21
6.71604e-21
2.26624e-21
5.49058e-22
1.10846e-22
1.98367e-23
3.30084e-24
5.3965e-25
9.21263e-26
1.70524e-26
3.3801e-27
6.86328e-28
1.37082e-28
2.63178e-29
4.8117e-30
8.3629e-31
1.38401e-31
2.12386e-32
9.48071e-10
-6.84626e-09
2.9492e-08
-1.30699e-08
-1.69403e-10
-5.23292e-07
5.10434e-06
1.11276e-05
-7.67346e-05
-0.000164701
-4.14714e-05
0.000395104
0.002984
0.00492101
0.00398471
0.00155511
0.000157954
7.49006e-11
3.1986e-11
9.68719e-11
4.32231e-11
6.31492e-12
-4.46165e-11
-8.44564e-12
5.90385e-14
8.02548e-14
6.50112e-15
-2.3703e-16
-6.59835e-17
-1.27638e-17
-1.69305e-18
-2.98516e-20
6.89067e-20
2.76726e-20
7.48543e-21
1.66513e-21
3.25245e-22
5.78255e-23
9.63605e-24
1.55233e-24
2.49973e-25
4.13921e-26
7.12595e-27
1.26241e-27
2.25112e-28
3.95524e-29
6.74824e-30
1.1093e-30
1.75144e-31
2.59244e-32
6.32568e-09
-6.30183e-08
5.42083e-07
-3.41367e-06
1.57848e-06
5.5751e-06
2.19343e-05
-7.24492e-05
-0.000521317
-0.000222802
0.0145068
0.0430887
0.0628363
0.0593949
0.0370574
0.0134464
0.00160033
8.13847e-10
8.69069e-10
5.28829e-10
1.07141e-10
-6.5513e-10
-2.1615e-10
-1.18335e-11
1.60704e-12
3.0003e-13
-3.89358e-16
-9.51647e-16
-1.53264e-16
-1.96874e-17
-1.10168e-18
4.89268e-19
2.44344e-19
7.31463e-20
1.75989e-20
3.67859e-21
6.92561e-22
1.20277e-22
1.96809e-23
3.10346e-24
4.83309e-25
7.60273e-26
1.22421e-26
2.01595e-27
3.3526e-28
5.5383e-29
8.95962e-30
1.40593e-30
2.12856e-31
3.04413e-32
-4.996e-07
8.12921e-07
1.61894e-06
-1.5824e-05
5.49941e-05
3.1825e-05
-9.3207e-06
-0.00183544
-0.00165132
0.0371331
0.121643
0.210915
0.243006
0.202242
0.117377
0.042047
0.00545823
1.22361e-08
3.49283e-09
1.04723e-09
-6.44306e-09
-4.27144e-09
-4.37348e-10
2.11505e-11
7.31589e-12
3.54645e-13
-1.80592e-14
-3.29967e-15
-1.68754e-16
-7.14173e-18
3.60798e-18
1.8596e-18
5.88962e-19
1.50487e-19
3.3344e-20
6.62156e-21
1.20306e-21
2.03346e-22
3.25087e-23
5.00768e-24
7.58766e-25
1.15353e-25
1.78324e-26
2.80902e-27
4.46969e-28
7.08384e-29
1.10306e-29
1.67032e-30
2.44355e-31
3.39199e-32
-3.33961e-06
1.31476e-05
-4.74356e-05
2.5353e-05
0.00032404
-0.000176061
-0.0039751
-0.00635999
0.0399445
0.171216
0.36569
0.524674
0.543223
0.426494
0.24004
0.0863837
0.0121949
6.11254e-08
6.89911e-09
-6.28587e-08
-7.69487e-08
-1.33433e-08
1.41685e-10
1.33799e-10
1.72e-11
-2.26208e-13
-8.93522e-14
-5.07333e-15
9.2166e-17
3.96382e-17
1.38064e-17
4.13755e-18
1.08228e-18
2.51089e-19
5.24468e-20
9.99443e-21
1.75893e-21
2.89459e-22
4.51709e-23
6.79688e-24
1.00527e-24
1.48948e-25
2.24101e-26
3.43419e-27
5.31918e-28
8.21466e-29
1.24744e-29
1.8423e-30
2.6264e-31
3.56047e-32
4.86612e-05
5.26484e-05
-0.000313221
0.000842722
0.00131261
-0.00639933
-0.0168616
0.0210536
0.160436
0.408448
0.697671
0.884944
0.867003
0.654563
0.362073
0.13135
0.0198637
1.93136e-07
-1.11314e-06
-1.20804e-06
-3.25438e-07
-1.47842e-08
1.86844e-09
5.25816e-10
1.80876e-11
-1.1396e-12
-2.40615e-13
-2.12363e-15
3.19492e-16
9.4069e-17
2.51523e-17
6.48571e-18
1.55586e-18
3.41826e-19
6.87009e-20
1.26995e-20
2.17731e-21
3.49878e-22
5.33909e-23
7.86515e-24
1.14048e-24
1.66e-25
2.45922e-26
3.71838e-27
5.68914e-28
8.67904e-29
1.30069e-29
1.89265e-30
2.65233e-31
3.53678e-32
0.000457526
-0.000491184
-0.000965866
0.00372861
0.00109039
-0.0258643
-0.0247888
0.0926657
0.343094
0.663202
0.96632
1.12208
1.0531
0.774854
0.423262
0.153548
0.0239223
-7.55e-06
-1.17107e-05
-5.22102e-06
-6.42597e-07
1.58941e-08
8.43882e-09
9.79086e-10
-1.10529e-11
-4.45738e-12
-3.02643e-13
3.56813e-15
8.77702e-16
1.42611e-16
3.13626e-17
7.54069e-18
1.75178e-18
3.76788e-19
7.4345e-20
1.34986e-20
2.27312e-21
3.58844e-22
5.38478e-23
7.81868e-24
1.12203e-24
1.62497e-25
2.40743e-26
3.65067e-27
5.60157e-28
8.55137e-29
1.27851e-29
1.85001e-30
2.57011e-31
3.3983e-32
-0.00157625
-0.00367744
-0.00174008
0.00880139
-0.00573324
-0.0496519
-0.0203773
0.180794
0.498153
0.804751
1.04838
1.14257
1.04128
0.74726
0.397148
0.139604
0.0204869
-5.82209e-05
-4.42888e-05
-1.24654e-05
-5.39453e-07
7.21421e-08
2.22735e-08
1.09077e-09
-4.28875e-11
-9.24947e-12
-9.72325e-14
1.28384e-14
1.41231e-15
1.1013e-16
2.38463e-17
6.14739e-18
1.49741e-18
3.29502e-19
6.55163e-20
1.18885e-20
1.99285e-21
3.12932e-22
4.68183e-23
6.81498e-24
9.88245e-25
1.45772e-25
2.20924e-26
3.42327e-27
5.3394e-28
8.23277e-29
1.2363e-29
1.78956e-30
2.48029e-31
3.27673e-32
-0.00652071
-0.00688809
0.00380481
0.0155456
-0.0146228
-0.0660686
-0.0121304
0.219796
0.527412
0.792353
0.961877
0.994211
0.860781
0.579547
0.283557
0.0880635
0.00916374
-0.000185528
-0.000103372
-1.76473e-05
5.16064e-07
2.52915e-07
3.17161e-08
-4.56986e-10
-1.47518e-10
-7.09651e-12
2.89357e-13
3.63337e-14
-5.055e-16
-4.52948e-17
3.08906e-18
2.82365e-18
9.10808e-19
2.2293e-19
4.65739e-20
8.68727e-21
1.48582e-21
2.38219e-22
3.66234e-23
5.53236e-24
8.40276e-25
1.30233e-25
2.06194e-26
3.29772e-27
5.24059e-28
8.15097e-29
1.22721e-29
1.776e-30
2.45964e-31
3.26055e-32
0.00867932
0.0112296
0.0235967
0.0279673
-0.0140498
-0.0676588
-0.0211216
0.16381
0.402038
0.618301
0.759855
0.759203
0.605929
0.359385
0.145142
0.0307096
-0.000520811
-0.000420858
-0.00013693
-7.42429e-06
1.67466e-06
4.58782e-07
1.84224e-08
-1.29945e-09
-2.17324e-10
4.7029e-12
7.60428e-13
-1.3992e-14
-1.88492e-15
-1.03992e-16
-7.29555e-18
5.19897e-19
4.11081e-19
1.22045e-19
2.79389e-20
5.55275e-21
1.00651e-21
1.71811e-22
2.83578e-23
4.62601e-24
7.56716e-25
1.24624e-25
2.05485e-26
3.35574e-27
5.36748e-28
8.33398e-29
1.24853e-29
1.7979e-30
2.48282e-31
3.3029e-32
0.0136007
0.0144935
0.0245949
0.0304935
-0.00111388
-0.0482619
-0.0423813
0.0364954
0.174208
0.349089
0.46769
0.45113
0.314108
0.145119
0.0322768
-0.00612847
-0.00258625
-0.000627219
-6.10542e-05
1.2736e-05
4.05526e-06
2.53885e-07
-1.80738e-08
-3.38625e-09
5.00607e-11
9.54524e-12
-7.52926e-14
-2.45745e-14
-1.08015e-15
3.83293e-18
1.74128e-18
7.73666e-19
2.59905e-19
7.09109e-20
1.6686e-20
3.52739e-21
6.90693e-22
1.28383e-22
2.30939e-23
4.07299e-24
7.08502e-25
1.2151e-25
2.04554e-26
3.3605e-27
5.35906e-28
8.26248e-29
1.2283e-29
1.75773e-30
2.41896e-31
3.22757e-32
0.00449484
0.00272894
0.00646733
0.0146986
0.00971264
-0.0111883
-0.0365053
-0.0458948
-0.00489188
0.0893801
0.146863
0.123796
0.0512823
-0.0079861
-0.0246501
-0.0125594
-0.00320713
-0.000219849
5.89375e-05
2.00175e-05
1.64774e-06
-1.65845e-07
-3.36496e-08
9.31779e-10
1.93802e-10
1.31127e-12
-2.26559e-13
-2.78061e-14
4.89728e-16
7.29259e-17
9.86799e-18
1.39818e-18
2.29291e-19
4.49625e-20
9.64829e-21
2.07402e-21
4.31032e-22
8.62346e-23
1.66918e-23
3.13986e-24
5.74662e-25
1.02175e-25
1.75998e-26
2.9291e-27
4.70041e-28
7.26405e-29
1.08049e-29
1.54673e-30
2.13113e-31
2.8593e-32
-0.00364851
-0.00555356
-0.00680045
-0.00325136
0.00658654
0.0106355
-0.00705149
-0.0372473
-0.0470219
-0.03654
-0.0435866
-0.0590667
-0.0655365
-0.0488667
-0.0227751
-0.00567067
-2.98816e-05
0.00021352
5.9677e-05
-4.07851e-06
-1.82415e-06
-2.35033e-07
1.93679e-08
4.33249e-09
1.25658e-10
-4.20557e-12
-5.80296e-13
1.30669e-14
1.73705e-15
1.05671e-16
1.07753e-17
1.00738e-18
7.03394e-20
1.904e-21
-2.73519e-22
1.64654e-23
3.80196e-23
1.60644e-23
4.83734e-24
1.22364e-24
2.75245e-25
5.6554e-26
1.07783e-26
1.92459e-27
3.243e-28
5.18475e-29
7.89791e-30
1.1501e-30
1.60516e-31
2.18191e-32
-0.00146419
-0.0013522
-0.00279215
-0.0046857
-0.000963706
0.00607291
0.00805904
0.00354493
-0.00754031
-0.0291094
-0.0497807
-0.0519427
-0.0346257
-0.0100113
0.00308346
0.00441531
0.00180006
0.000258667
-6.16251e-05
-2.54403e-05
-2.87643e-06
1.41456e-07
4.22055e-08
2.39813e-09
-7.26597e-11
-1.29047e-11
1.01992e-13
2.93289e-14
1.27639e-15
1.92481e-18
-1.59889e-18
-8.91241e-19
-2.77959e-19
-6.82429e-20
-1.45324e-20
-2.77847e-21
-4.81729e-22
-7.54848e-23
-1.05101e-23
-1.243e-24
-1.07835e-25
-1.35571e-27
2.20757e-27
6.78028e-28
1.45863e-28
2.6723e-29
4.42491e-30
6.80075e-31
9.84201e-32
1.37578e-32
0.00157888
0.00243569
0.00293168
0.0014527
-0.00139929
-0.00222044
0.0017207
0.00863475
0.010249
0.00505001
0.00308745
0.0114421
0.0222289
0.0230377
0.014804
0.00540651
0.000854652
-0.000173612
-8.81911e-05
-1.71847e-05
3.02101e-07
1.49291e-07
1.54752e-08
-6.67407e-10
-1.39086e-10
-1.8345e-12
6.01324e-14
1.68642e-14
6.50412e-16
-2.11732e-17
-9.09146e-18
-2.48392e-18
-5.88963e-19
-1.28608e-19
-2.61383e-20
-4.94311e-21
-8.68544e-22
-1.41604e-22
-2.13757e-23
-2.97332e-24
-3.7704e-25
-4.25403e-26
-4.01106e-27
-2.49389e-28
9.48891e-30
7.01242e-30
1.63479e-30
2.94549e-31
4.65652e-32
6.88924e-33
-0.000824986
-0.00116057
-0.000977916
6.41004e-05
0.00037049
-0.000871738
-0.00181418
-0.00141104
-0.00191898
-0.000248029
0.00965354
0.0243572
0.0282299
0.0211037
0.00956912
0.00202578
-0.000279703
-0.000178167
-4.57867e-05
-1.7215e-08
1.2705e-07
2.87274e-08
-2.39774e-09
-5.78165e-10
3.93039e-12
5.59233e-13
4.63735e-14
-2.72298e-15
-4.03771e-16
-6.62124e-17
-1.37962e-17
-2.98212e-18
-6.43415e-19
-1.34902e-19
-2.68865e-20
-5.02931e-21
-8.78439e-22
-1.4312e-22
-2.1759e-23
-3.0868e-24
-4.07843e-25
-4.99102e-26
-5.58549e-27
-5.55193e-28
-4.5331e-29
-2.16236e-30
1.88737e-31
7.84901e-32
1.58084e-32
2.6276e-33
0.00017532
0.000182102
0.000160623
1.30258e-05
-0.000405268
-6.7475e-05
0.00250598
0.00221497
-0.00588246
-0.0119526
-0.00498133
0.00820226
0.01331
0.0100271
0.00433993
0.000696865
2.70149e-05
6.64101e-06
2.93723e-06
-5.42287e-07
-2.96728e-07
-3.75629e-08
5.8454e-10
2.61339e-10
3.38229e-11
-4.00538e-14
-4.26718e-14
-1.08835e-14
-7.55209e-16
-6.6045e-17
-1.12683e-17