/*--------------------------------*- C++ -*----------------------------------*\
| =========                 |                                                 |
| \\      /  F ield         | OpenFOAM: The Open Source CFD Toolbox           |
|  \\    /   O peration     | Version:  v2006                                 |
|   \\  /    A nd           | Website:  www.openfoam.com                      |
|    \\/     M anipulation  |                                                 |
\*---------------------------------------------------------------------------*/
FoamFile
{
    version     2.0;
    format      ascii;
    class       volScalarField;
    location    "18";
    object      p_rgh;
}
// * * * * * * * * * * * * * * * * * * * * * * * * * * * * * * * * * * * * * //

dimensions      [1 -1 -2 0 0 0 0];


internalField   nonuniform List<scalar> 
150000
(
2883.68
2882.73
2880.87
2878.04
2874.25
2869.51
2863.83
2857.21
2849.68
2841.25
2831.96
2821.81
2810.79
2798.93
2786.2
2772.62
2758.18
2742.88
2726.73
2709.72
2691.87
2673.19
2653.69
2633.38
2612.25
2590.31
2567.57
2544.04
2519.71
2494.59
2468.69
2442.01
2414.61
2386.48
2357.62
2328.07
2297.84
2266.95
2235.41
2203.23
2170.41
2136.97
2102.91
2068.24
2032.98
1997.15
1960.77
1923.86
1886.43
1848.52
1810.15
1771.32
1732.07
1692.42
1652.38
1611.98
1571.24
1530.17
1488.81
1447.16
1405.23
1363.08
1320.72
1278.17
1235.43
1192.55
1149.52
1106.39
1063.16
1019.85
976.489
933.089
889.672
846.257
802.864
759.513
716.227
673.024
629.926
586.954
544.129
501.469
458.997
416.73
374.69
332.896
291.368
250.125
209.189
168.578
128.312
88.4115
48.8955
9.78376
-28.9042
-67.1486
-104.929
-142.225
-179.03
-215.322
-251.075
-286.276
-320.909
-354.959
-388.407
-421.233
-453.417
-484.938
-515.775
-545.907
-575.314
-603.978
-631.884
-659.019
-685.369
-710.922
-735.668
-759.591
-782.679
-804.918
-826.297
-846.801
-866.421
-885.145
-902.965
-919.874
-935.866
-950.934
-965.063
-978.228
-990.397
-1001.53
-1011.57
-1020.5
-1028.28
-1034.96
-1040.62
-1045.45
-1049.72
-1053.62
-1057.16
-1059.88
-1060.66
-1059.25
-1056.4
-1052.59
-1047.87
-1041.91
-1035.12
-1027.32
-1018.68
-1009.19
-998.832
-987.578
-975.448
-962.443
-948.564
-933.817
-918.197
-901.69
-884.274
-865.924
-846.636
-826.408
-805.264
-783.242
-760.389
-736.747
-712.349
-687.225
-661.399
-634.889
-607.717
-579.903
-551.464
-522.419
-492.785
-462.583
-431.831
-400.552
-368.769
-336.505
-303.789
-270.646
-237.105
-203.192
-168.935
-134.362
-99.4997
-64.3747
-29.014
6.55551
42.3074
78.2149
114.252
150.391
186.607
222.872
259.161
295.447
331.705
367.911
404.04
440.07
475.98
511.75
547.362
582.8
618.046
653.088
687.91
722.497
756.833
790.898
824.671
858.128
891.247
924.003
956.376
988.349
1019.91
1051.06
1081.79
1112.1
1141.97
1171.41
1200.39
1228.9
1256.92
1284.44
1311.47
1338.01
1364.04
1389.54
1414.48
1438.82
1462.57
1485.76
1508.46
1530.68
1552.38
1573.46
1593.84
1613.66
1633.26
1652.48
1670.47
1687.86
1705.01
1721.77
1737.93
1753.4
1768.18
1782.28
1795.57
1808.11
1819.87
1830.88
1841.12
1850.71
1859.81
1868.57
1877.13
1885.62
1893.94
1901.75
1908.85
1915.44
1921.59
1927.28
1932.52
1937.34
1941.7
1945.62
1949.1
1952.17
1954.83
1957.13
1959.1
1960.81
1962.29
1963.56
1964.65
1965.56
1966.31
1966.89
1967.33
1967.64
1967.84
1967.97
1968.03
1968.05
1968.06
1968.06
1968.08
1968.12
1968.22
1968.37
1968.59
1968.91
1969.32
1969.83
1970.47
1971.23
1972.12
1973.16
1974.34
1975.68
1977.17
1978.82
1980.63
1982.6
1984.73
1987.02
1989.47
1992.08
1994.85
1997.76
2000.82
2004.03
2007.37
2010.84
2014.44
2018.15
2021.98
2025.92
2029.96
2034.11
2038.35
2042.71
2047.21
2051.8
2056.17
2060.51
2064.95
2069.52
2074.16
2078.82
2083.5
2088.19
2092.89
2097.61
2102.34
2107.08
2111.82
2116.57
2121.32
2126.06
2130.81
2135.55
2140.29
2145.02
2149.74
2154.45
2159.15
2163.83
2168.5
2173.15
2177.78
2182.38
2186.96
2191.51
2196.03
2200.52
2204.98
2209.4
2213.79
2218.14
2222.44
2226.69
2230.88
2234.99
2239.01
2242.94
2246.77
2250.5
2254.12
2257.65
2261.06
2264.34
2267.47
2270.44
2273.21
2275.79
2278.17
2280.34
2282.3
2284.04
2285.53
2286.75
2287.69
2288.31
2288.64
2288.69
2288.51
2288.14
2287.59
2286.83
2285.78
2284.35
2282.44
2280.02
2277.12
2273.8
2270.12
2266.13
2261.84
2257.25
2252.33
2247.05
2241.37
2235.25
2228.67
2221.59
2213.99
2205.87
2197.24
2188.11
2178.52
2168.46
2157.96
2147.02
2135.63
2123.79
2111.51
2098.79
2085.63
2072.04
2058.02
2043.58
2028.73
2013.47
1997.82
1981.8
1965.41
1948.68
1931.62
1914.25
1896.59
1878.65
1860.45
1842.02
1823.39
1804.56
1785.57
1766.42
1747.15
1727.76
1708.29
1688.75
1669.17
1649.57
1629.96
1610.35
1590.76
1571.19
1551.64
1532.14
1512.7
1493.33
1474.07
1454.95
1436.04
1417.38
1399.04
1381.11
1363.66
1346.77
1330.48
1314.83
1299.84
1285.53
1271.91
1259
1246.78
1235.23
1224.32
1213.99
1204.22
1194.96
1186.19
1177.88
1170
1162.55
1155.53
1148.93
1142.77
1137.07
1131.83
1127.08
1122.83
1119.1
1115.9
1113.21
1111.01
1109.27
1107.9
1106.87
1106.15
1105.79
2884.33
2883.33
2881.5
2878.65
2874.88
2870.14
2864.45
2857.83
2850.3
2841.87
2832.59
2822.43
2811.41
2799.54
2786.81
2773.23
2758.78
2743.48
2727.32
2710.31
2692.46
2673.78
2654.28
2633.95
2612.82
2590.88
2568.13
2544.59
2520.26
2495.15
2469.26
2442.61
2415.19
2387.03
2358.15
2328.57
2298.31
2267.41
2235.85
2203.66
2170.83
2137.38
2103.31
2068.64
2033.37
1997.53
1961.13
1924.21
1886.77
1848.84
1810.45
1771.61
1732.34
1692.68
1652.62
1612.21
1571.45
1530.37
1488.99
1447.33
1405.4
1363.23
1320.86
1278.29
1235.54
1192.64
1149.6
1106.45
1063.2
1019.88
976.502
933.086
889.653
846.222
802.814
759.449
716.147
672.93
629.817
586.831
543.991
501.318
458.832
416.551
374.498
332.69
291.148
249.892
208.941
168.317
128.037
88.1226
48.5927
9.46693
-29.2353
-67.4947
-105.292
-142.605
-179.425
-215.733
-251.495
-286.705
-321.346
-355.4
-388.85
-421.677
-453.862
-485.384
-516.222
-546.358
-575.773
-604.451
-632.376
-659.535
-685.916
-711.503
-736.281
-760.236
-783.353
-805.62
-827.023
-847.55
-867.188
-885.927
-903.757
-920.672
-936.664
-951.728
-965.852
-979.015
-991.189
-1002.34
-1012.41
-1021.38
-1029.22
-1035.96
-1041.7
-1046.6
-1050.92
-1054.8
-1058.26
-1061.14
-1062.27
-1060.72
-1056.98
-1052.48
-1047.39
-1041.68
-1035.07
-1027.38
-1019.15
-1010.12
-1000.09
-989.029
-976.933
-963.871
-949.9
-935.046
-919.312
-902.691
-885.164
-866.718
-847.341
-827.043
-805.857
-783.823
-760.982
-737.368
-713.006
-687.916
-662.115
-635.621
-608.454
-580.631
-552.172
-523.099
-493.432
-463.194
-432.405
-401.09
-369.275
-336.983
-304.243
-271.08
-237.522
-203.594
-169.325
-134.74
-99.8652
-64.728
-29.3545
6.22854
41.9946
77.917
113.969
150.124
186.355
222.636
258.94
295.242
331.517
367.74
403.887
439.936
475.866
511.658
547.293
582.754
618.025
653.09
687.933
722.538
756.887
790.961
824.738
858.198
891.318
924.078
956.46
988.448
1020.03
1051.2
1081.95
1112.28
1142.18
1171.63
1200.63
1229.14
1257.16
1284.68
1311.7
1338.22
1364.23
1389.72
1414.65
1439.01
1462.78
1486.02
1508.79
1531.08
1552.81
1573.84
1594.1
1613.64
1632.58
1651.23
1669.91
1687.82
1704.75
1720.94
1736.61
1751.85
1766.64
1780.94
1794.5
1807.48
1819.76
1831.35
1842.31
1852.65
1862.34
1871.43
1880
1887.9
1895.38
1902.56
1909.44
1915.9
1921.92
1927.53
1932.75
1937.61
1941.97
1945.92
1949.43
1952.51
1955.19
1957.49
1959.44
1961.11
1962.55
1963.79
1964.84
1965.72
1966.43
1966.98
1967.39
1967.67
1967.86
1967.97
1968.01
1968.03
1968.02
1968.01
1968.01
1968.05
1968.13
1968.27
1968.49
1968.79
1969.19
1969.7
1970.32
1971.08
1971.97
1973
1974.18
1975.51
1977
1978.65
1980.46
1982.43
1984.56
1986.86
1989.31
1991.93
1994.7
1997.62
2000.68
2003.89
2007.24
2010.72
2014.32
2018.04
2021.88
2025.82
2029.86
2034
2038.22
2042.49
2046.72
2050.94
2055.37
2059.93
2064.49
2069.12
2073.74
2078.37
2083.05
2087.74
2092.46
2097.19
2101.93
2106.68
2111.44
2116.19
2120.95
2125.71
2130.46
2135.22
2139.96
2144.7
2149.43
2154.15
2158.85
2163.55
2168.22
2172.88
2177.52
2182.14
2186.73
2191.3
2195.84
2200.34
2204.82
2209.25
2213.65
2218
2222.3
2226.54
2230.71
2234.81
2238.84
2242.78
2246.62
2250.37
2254
2257.52
2260.91
2264.17
2267.27
2270.2
2272.97
2275.54
2277.92
2280.1
2282.07
2283.81
2285.32
2286.58
2287.59
2288.34
2288.83
2289.06
2289.04
2288.78
2288.26
2287.46
2286.33
2284.79
2282.82
2280.4
2277.54
2274.29
2270.68
2266.75
2262.5
2257.92
2252.99
2247.68
2241.94
2235.74
2229.07
2221.9
2214.25
2206.1
2197.47
2188.36
2178.78
2168.75
2158.27
2147.34
2135.96
2124.12
2111.84
2099.11
2085.95
2072.34
2058.31
2043.85
2028.98
2013.7
1998.04
1981.99
1965.59
1948.85
1931.77
1914.38
1896.71
1878.75
1860.55
1842.11
1823.46
1804.62
1785.6
1766.44
1747.15
1727.76
1708.28
1688.74
1669.16
1649.56
1629.96
1610.35
1590.75
1571.16
1551.6
1532.08
1512.61
1493.22
1473.92
1454.77
1435.82
1417.13
1398.75
1380.78
1363.28
1346.31
1329.95
1314.25
1299.24
1284.94
1271.35
1258.45
1246.25
1234.71
1223.81
1213.5
1203.75
1194.52
1185.77
1177.48
1169.62
1162.18
1155.16
1148.57
1142.41
1136.71
1131.47
1126.72
1122.48
1118.77
1115.58
1112.93
1110.79
1109.06
1107.69
1106.65
1105.91
1105.55
2885.56
2884.59
2882.78
2879.94
2876.16
2871.42
2865.73
2859.1
2851.57
2843.15
2833.83
2823.65
2812.61
2800.72
2787.98
2774.38
2759.93
2744.63
2728.46
2711.45
2693.59
2674.91
2655.41
2635.09
2613.96
2592.01
2569.26
2545.71
2521.37
2496.24
2470.34
2443.67
2416.24
2388.07
2359.17
2329.56
2299.3
2268.38
2236.81
2204.59
2171.74
2138.26
2104.16
2069.46
2034.16
1998.29
1961.86
1924.91
1887.44
1849.48
1811.06
1772.19
1732.89
1693.19
1653.11
1612.66
1571.87
1530.76
1489.35
1447.65
1405.7
1363.51
1321.1
1278.5
1235.73
1192.79
1149.73
1106.55
1063.27
1019.92
976.506
933.059
889.596
846.135
802.698
759.304
715.975
672.732
629.594
586.583
543.718
501.02
458.509
416.203
374.123
332.289
290.72
249.437
208.459
167.807
127.5
87.5575
47.9994
8.84527
-29.8858
-68.1747
-106.003
-143.358
-180.212
-216.566
-252.348
-287.583
-322.25
-356.329
-389.801
-422.649
-454.853
-486.394
-517.253
-547.412
-576.852
-605.556
-633.508
-660.692
-687.094
-712.701
-737.498
-761.473
-784.612
-806.901
-828.326
-848.876
-868.541
-887.31
-905.172
-922.117
-938.134
-953.214
-967.343
-980.506
-992.683
-1003.86
-1014.02
-1023.16
-1031.27
-1038.35
-1044.41
-1049.52
-1053.75
-1057.19
-1059.92
-1061.71
-1062.07
-1060.74
-1058.03
-1054.46
-1050.03
-1044.5
-1037.65
-1030.03
-1021.43
-1012.06
-1001.85
-990.711
-978.634
-965.618
-951.676
-936.819
-921.052
-904.377
-886.79
-868.291
-848.885
-828.586
-807.413
-785.394
-762.559
-738.938
-714.558
-689.442
-663.611
-637.082
-609.876
-582.013
-553.514
-524.398
-494.687
-464.404
-433.571
-402.211
-370.35
-338.013
-305.227
-272.017
-238.412
-204.438
-170.122
-135.491
-100.571
-65.3909
-29.9755
5.64807
41.4533
77.4138
113.503
149.694
185.96
222.276
258.614
294.949
331.256
367.51
403.688
439.768
475.73
511.554
547.22
582.712
618.013
653.107
687.976
722.606
756.977
791.071
824.868
858.348
891.489
924.272
956.68
988.698
1020.31
1051.52
1082.31
1112.67
1142.61
1172.09
1201.12
1229.66
1257.71
1285.25
1312.29
1338.84
1364.89
1390.42
1415.4
1439.78
1463.52
1486.66
1509.26
1531.38
1553.07
1574.26
1594.93
1615.07
1634.64
1653.52
1671.71
1689.21
1706.13
1722.56
1738.48
1753.82
1768.53
1782.53
1796.02
1808.75
1820.81
1832.21
1842.95
1853.05
1862.55
1871.54
1880.06
1888.26
1896.03
1903.35
1910.24
1916.68
1922.66
1928.22
1933.34
1938
1942.32
1946.22
1949.69
1952.75
1955.39
1957.65
1959.61
1961.28
1962.72
1963.94
1964.98
1965.83
1966.51
1967.04
1967.42
1967.69
1967.86
1967.95
1967.98
1967.97
1967.94
1967.91
1967.89
1967.91
1967.97
1968.09
1968.29
1968.58
1968.97
1969.46
1970.08
1970.83
1971.71
1972.73
1973.91
1975.24
1976.72
1978.37
1980.18
1982.15
1984.29
1986.59
1989.05
1991.67
1994.44
1997.37
2000.44
2003.66
2007.01
2010.5
2014.11
2017.84
2021.68
2025.63
2029.68
2033.82
2038.05
2042.37
2046.78
2051.25
2055.75
2060.23
2064.77
2069.29
2073.89
2078.55
2083.23
2087.92
2092.62
2097.34
2102.07
2106.8
2111.54
2116.28
2121.03
2125.77
2130.51
2135.24
2139.97
2144.7
2149.41
2154.12
2158.81
2163.49
2168.15
2172.8
2177.42
2182.03
2186.61
2191.17
2195.69
2200.19
2204.65
2209.07
2213.45
2217.79
2222.08
2226.32
2230.49
2234.59
2238.62
2242.56
2246.4
2250.15
2253.78
2257.29
2260.68
2263.93
2267.03
2269.97
2272.74
2275.32
2277.7
2279.87
2281.83
2283.56
2285.07
2286.34
2287.37
2288.14
2288.66
2288.93
2288.93
2288.68
2288.16
2287.35
2286.22
2284.72
2282.81
2280.47
2277.72
2274.56
2271.02
2267.12
2262.87
2258.27
2253.32
2247.98
2242.23
2236.05
2229.4
2222.28
2214.67
2206.56
2197.95
2188.85
2179.27
2169.21
2158.71
2147.75
2136.35
2124.5
2112.21
2099.47
2086.29
2072.67
2058.62
2044.14
2029.25
2013.96
1998.27
1982.21
1965.78
1949.01
1931.91
1914.49
1896.79
1878.81
1860.57
1842.1
1823.42
1804.54
1785.49
1766.29
1746.95
1727.51
1707.99
1688.42
1668.8
1649.17
1629.52
1609.89
1590.26
1570.64
1551.05
1531.5
1511.99
1492.55
1473.21
1454.01
1435
1416.24
1397.81
1379.78
1362.23
1345.23
1328.85
1313.12
1298.1
1283.79
1270.21
1257.34
1245.15
1233.64
1222.76
1212.48
1202.75
1193.54
1184.81
1176.54
1168.71
1161.3
1154.31
1147.74
1141.6
1135.91
1130.69
1125.97
1121.77
1118.1
1114.96
1112.34
1110.19
1108.45
1107.06
1105.98
1105.19
1104.81
2887.48
2886.51
2884.72
2881.88
2878.08
2873.33
2867.61
2860.97
2853.4
2844.95
2835.62
2825.42
2814.38
2802.48
2789.74
2776.15
2761.71
2746.4
2730.23
2713.2
2695.32
2676.63
2657.14
2636.81
2615.66
2593.7
2570.94
2547.37
2523.01
2497.86
2471.93
2445.24
2417.78
2389.6
2360.69
2331
2300.72
2269.79
2238.2
2205.96
2173.06
2139.54
2105.41
2070.66
2035.32
1999.41
1962.94
1925.94
1888.44
1850.44
1811.97
1773.06
1733.71
1693.97
1653.84
1613.34
1572.51
1531.35
1489.89
1448.16
1406.16
1363.93
1321.48
1278.84
1236.02
1193.04
1149.94
1106.71
1063.39
1020
976.548
933.06
889.555
846.053
802.575
759.141
715.771
672.487
629.309
586.257
543.352
500.613
458.059
415.712
373.591
331.715
290.105
248.781
207.762
167.069
126.721
86.7384
47.1403
7.94633
-30.8242
-69.1523
-107.019
-144.407
-181.29
-217.635
-253.478
-288.76
-323.466
-357.582
-391.088
-423.968
-456.203
-487.774
-518.666
-548.858
-578.335
-607.08
-635.077
-662.31
-688.763
-714.421
-739.269
-763.293
-786.48
-808.817
-830.291
-850.888
-870.598
-889.407
-907.305
-924.28
-940.321
-955.416
-969.554
-982.721
-994.905
-1006.1
-1016.32
-1025.55
-1033.81
-1041.08
-1047.35
-1052.61
-1056.86
-1060.12
-1062.4
-1063.57
-1063.45
-1061.96
-1059.27
-1055.63
-1051.1
-1045.67
-1039.32
-1032.14
-1023.99
-1014.84
-1004.74
-993.639
-981.547
-968.492
-954.496
-939.573
-923.731
-906.974
-889.305
-870.73
-851.257
-830.907
-809.7
-787.664
-764.822
-741.198
-716.813
-691.686
-665.836
-639.282
-612.042
-584.137
-555.587
-526.415
-496.643
-466.295
-435.395
-403.967
-372.037
-339.632
-306.779
-273.504
-239.834
-205.796
-171.418
-136.727
-101.748
-66.5092
-31.0368
4.64256
40.5025
76.5164
112.658
148.901
185.219
221.586
257.976
294.365
330.728
367.04
403.28
439.424
475.451
511.342
547.076
582.635
617.999
653.151
688.072
722.746
757.153
791.275
825.096
858.596
891.758
924.566
957.003
989.056
1020.71
1051.96
1082.8
1113.2
1143.18
1172.7
1201.76
1230.35
1258.44
1286.03
1313.11
1339.69
1365.78
1391.35
1416.36
1440.75
1464.5
1487.62
1510.18
1532.26
1553.85
1574.96
1595.54
1615.61
1635.15
1654.16
1672.59
1690.32
1707.32
1723.66
1739.39
1754.56
1769.15
1783.14
1796.6
1809.42
1821.58
1833.08
1843.95
1854.22
1863.92
1873.09
1881.74
1889.9
1897.56
1904.76
1911.54
1917.9
1923.83
1929.33
1934.4
1939.03
1943.26
1947.07
1950.45
1953.44
1956.04
1958.29
1960.22
1961.86
1963.25
1964.41
1965.37
1966.15
1966.76
1967.22
1967.55
1967.76
1967.88
1967.93
1967.92
1967.88
1967.81
1967.75
1967.7
1967.69
1967.72
1967.82
1968
1968.26
1968.62
1969.1
1969.7
1970.44
1971.31
1972.32
1973.49
1974.82
1976.3
1977.95
1979.76
1981.74
1983.88
1986.19
1988.66
1991.29
1994.07
1997.01
2000.1
2003.33
2006.7
2010.2
2013.83
2017.57
2021.43
2025.39
2029.45
2033.6
2037.83
2042.13
2046.46
2050.83
2055.27
2059.78
2064.33
2068.87
2073.57
2078.24
2082.91
2087.62
2092.34
2097.07
2101.82
2106.57
2111.32
2116.08
2120.83
2125.58
2130.33
2135.07
2139.81
2144.54
2149.26
2153.96
2158.66
2163.34
2168
2172.65
2177.28
2181.88
2186.46
2191.02
2195.55
2200.04
2204.51
2208.93
2213.32
2217.66
2221.94
2226.18
2230.34
2234.44
2238.46
2242.39
2246.24
2249.98
2253.62
2257.13
2260.52
2263.77
2266.87
2269.81
2272.57
2275.15
2277.54
2279.72
2281.69
2283.43
2284.95
2286.23
2287.27
2288.07
2288.62
2288.92
2288.97
2288.76
2288.28
2287.51
2286.4
2284.94
2283.08
2280.82
2278.15
2275.07
2271.62
2267.78
2263.56
2258.98
2254.02
2248.67
2242.91
2236.73
2230.09
2222.97
2215.36
2207.25
2198.65
2189.55
2179.98
2169.92
2159.41
2148.45
2137.03
2125.16
2112.85
2100.09
2086.88
2073.24
2059.16
2044.66
2029.74
2014.41
1998.7
1982.6
1966.13
1949.32
1932.18
1914.73
1896.98
1878.95
1860.67
1842.15
1823.42
1804.49
1785.38
1766.13
1746.74
1727.24
1707.65
1688.01
1668.32
1648.61
1628.89
1609.17
1589.46
1569.77
1550.1
1530.47
1510.89
1491.37
1471.95
1452.67
1433.58
1414.75
1396.25
1378.15
1360.55
1343.51
1327.09
1311.35
1296.33
1282.05
1268.51
1255.7
1243.6
1232.19
1221.41
1211.21
1201.56
1192.41
1183.72
1175.48
1167.66
1160.25
1153.24
1146.65
1140.47
1134.72
1129.44
1124.64
1120.37
1116.65
1113.48
1110.86
1108.74
1107.04
1105.67
1104.58
1103.76
1103.36
2890.03
2889.08
2887.28
2884.45
2880.63
2875.84
2870.09
2863.41
2855.82
2847.35
2838.01
2827.81
2816.77
2804.89
2792.15
2778.56
2764.11
2748.8
2732.64
2715.63
2697.8
2679.08
2659.51
2639.13
2617.94
2595.95
2573.15
2549.55
2525.16
2499.98
2474.02
2447.3
2419.83
2391.63
2362.76
2332.89
2302.65
2271.69
2240.07
2207.78
2174.81
2141.24
2107.04
2072.25
2036.85
2000.89
1964.37
1927.32
1889.76
1851.7
1813.18
1774.2
1734.8
1695
1654.81
1614.25
1573.35
1532.13
1490.62
1448.82
1406.77
1364.48
1321.97
1279.27
1236.4
1193.37
1150.21
1106.93
1063.56
1020.11
976.605
933.064
889.506
845.951
802.421
758.934
715.511
672.174
628.942
585.836
542.875
500.08
457.471
415.068
372.891
330.959
289.294
247.915
206.841
166.094
125.692
85.6563
46.0051
6.75842
-32.0645
-70.4447
-108.363
-145.8
-182.734
-219.145
-255.031
-290.363
-325.119
-359.285
-392.843
-425.774
-458.061
-489.683
-520.625
-550.866
-580.392
-609.183
-637.226
-664.505
-691.004
-716.71
-741.608
-765.683
-788.921
-811.308
-832.832
-853.479
-873.237
-892.093
-910.036
-927.054
-943.133
-958.261
-972.425
-985.614
-997.82
-1009.04
-1019.3
-1028.58
-1036.91
-1044.26
-1050.61
-1055.93
-1060.23
-1063.47
-1065.62
-1066.65
-1066.48
-1065.1
-1062.65
-1059.23
-1054.85
-1049.47
-1043.07
-1035.74
-1027.49
-1018.29
-1008.14
-997.021
-984.938
-971.896
-957.907
-942.98
-927.121
-910.337
-892.637
-874.029
-854.526
-834.146
-812.909
-790.838
-767.958
-744.29
-719.857
-694.679
-668.775
-642.164
-614.865
-586.9
-558.288
-529.052
-499.214
-468.798
-437.827
-406.327
-374.323
-341.841
-308.909
-275.553
-241.8
-207.679
-173.215
-138.438
-103.373
-68.0478
-32.4898
3.27456
39.2186
75.3158
111.54
147.865
184.264
220.713
257.185
293.655
330.1
366.494
402.816
439.041
475.149
511.118
546.927
582.558
617.99
653.205
688.186
722.916
757.376
791.55
825.421
858.971
892.183
925.041
957.53
989.635
1021.34
1052.64
1083.53
1113.98
1144
1173.56
1202.67
1231.3
1259.46
1287.12
1314.28
1340.95
1367.11
1392.75
1417.81
1442.25
1466.04
1489.2
1511.8
1533.92
1555.59
1576.79
1597.48
1617.62
1637.15
1656.05
1674.31
1691.92
1708.92
1725.34
1741.2
1756.47
1771.12
1785.14
1798.54
1811.29
1823.39
1834.84
1845.67
1855.89
1865.52
1874.6
1883.15
1891.22
1898.84
1906.01
1912.75
1919.05
1924.9
1930.31
1935.29
1939.84
1943.99
1947.73
1951.06
1954
1956.57
1958.78
1960.67
1962.28
1963.64
1964.77
1965.7
1966.44
1967.01
1967.43
1967.71
1967.88
1967.96
1967.96
1967.9
1967.81
1967.7
1967.59
1967.5
1967.44
1967.44
1967.5
1967.64
1967.87
1968.21
1968.66
1969.24
1969.95
1970.81
1971.81
1972.97
1974.29
1975.77
1977.42
1979.23
1981.21
1983.36
1985.68
1988.16
1990.81
1993.61
1996.56
1999.67
2002.92
2006.31
2009.83
2013.47
2017.24
2021.12
2025.1
2029.18
2033.35
2037.6
2041.93
2046.32
2050.78
2055.3
2059.85
2064.43
2069.08
2073.66
2078.32
2083.01
2087.72
2092.44
2097.16
2101.9
2106.64
2111.39
2116.14
2120.88
2125.63
2130.36
2135.1
2139.82
2144.54
2149.24
2153.94
2158.62
2163.29
2167.94
2172.58
2177.19
2181.79
2186.36
2190.91
2195.43
2199.91
2204.37
2208.79
2213.16
2217.49
2221.77
2225.99
2230.15
2234.24
2238.26
2242.19
2246.04
2249.78
2253.42
2256.94
2260.33
2263.58
2266.68
2269.63
2272.41
2275
2277.41
2279.61
2281.6
2283.37
2284.91
2286.22
2287.29
2288.12
2288.69
2289.02
2289.09
2288.89
2288.4
2287.62
2286.52
2285.07
2283.26
2281.07
2278.49
2275.52
2272.15
2268.39
2264.22
2259.66
2254.71
2249.35
2243.58
2237.38
2230.74
2223.63
2216.05
2207.97
2199.4
2190.34
2180.79
2170.75
2160.24
2149.27
2137.83
2125.94
2113.6
2100.81
2087.57
2073.89
2059.78
2045.24
2030.28
2014.92
1999.16
1983.02
1966.52
1949.66
1932.47
1914.96
1897.16
1879.08
1860.74
1842.17
1823.37
1804.38
1785.22
1765.89
1746.44
1726.87
1707.21
1687.48
1667.71
1647.9
1628.08
1608.25
1588.43
1568.63
1548.85
1529.11
1509.42
1489.8
1470.28
1450.91
1431.73
1412.81
1394.22
1376.05
1358.38
1341.29
1324.84
1309.08
1294.07
1279.81
1266.32
1253.58
1241.58
1230.27
1219.6
1209.52
1199.97
1190.92
1182.31
1174.13
1166.35
1158.96
1151.96
1145.34
1139.12
1133.32
1127.95
1123.04
1118.64
1114.78
1111.49
1108.76
1106.57
1104.85
1103.48
1102.4
1101.56
1101.14
2893.21
2892.28
2890.49
2887.67
2883.79
2878.95
2873.18
2866.47
2858.87
2850.39
2841.05
2830.86
2819.82
2807.93
2795.19
2781.59
2767.12
2751.79
2735.6
2718.57
2700.69
2681.95
2662.37
2641.97
2620.75
2598.72
2575.88
2552.25
2527.82
2502.61
2476.62
2449.86
2422.36
2394.12
2365.16
2335.42
2305.07
2274.06
2242.38
2210.04
2176.95
2143.33
2109.08
2074.22
2038.76
2002.73
1966.15
1929.03
1891.4
1853.28
1814.68
1775.63
1736.16
1696.28
1656.01
1615.38
1574.41
1533.11
1491.52
1449.65
1407.53
1365.17
1322.59
1279.83
1236.88
1193.79
1150.56
1107.21
1063.77
1020.25
976.682
933.074
889.448
845.826
802.228
758.674
715.183
671.778
628.477
585.301
542.271
499.406
456.727
414.254
372.007
330.007
288.273
246.825
205.684
164.869
124.401
84.2987
44.5819
5.27007
-33.6175
-72.0616
-110.043
-147.543
-184.541
-221.019
-256.965
-292.36
-327.174
-361.4
-395.017
-428.007
-460.351
-492.033
-523.033
-553.335
-582.922
-611.778
-639.886
-667.23
-693.796
-719.568
-744.532
-768.672
-791.976
-814.429
-836.017
-856.727
-876.545
-895.459
-913.457
-930.525
-946.651
-961.822
-976.027
-989.255
-1001.5
-1012.77
-1023.06
-1032.38
-1040.75
-1048.13
-1054.51
-1059.87
-1064.19
-1067.44
-1069.59
-1070.59
-1070.43
-1069.12
-1066.73
-1063.32
-1058.95
-1053.61
-1047.3
-1040.05
-1031.84
-1022.67
-1012.53
-1001.41
-989.323
-976.264
-962.246
-947.282
-931.38
-914.549
-896.799
-878.142
-858.592
-838.167
-816.886
-794.772
-771.848
-748.133
-723.65
-698.416
-672.452
-645.776
-618.407
-590.367
-561.676
-532.356
-502.43
-471.923
-440.858
-409.261
-377.159
-344.577
-311.543
-278.084
-244.227
-210.001
-175.432
-140.548
-105.377
-69.9464
-34.2825
1.58734
37.6362
73.8375
110.165
146.592
183.093
219.643
256.215
292.786
329.331
365.826
402.248
438.574
474.781
510.849
546.755
582.48
618.003
653.305
688.368
723.173
757.705
791.945
825.878
859.488
892.76
925.678
958.228
990.395
1022.17
1053.53
1084.48
1114.99
1145.06
1174.68
1203.83
1232.52
1260.73
1288.45
1315.67
1342.4
1368.62
1394.31
1419.43
1443.95
1467.84
1491.11
1513.78
1535.91
1557.53
1578.63
1599.21
1619.25
1638.74
1657.67
1676.02
1693.74
1710.82
1727.26
1743.07
1758.26
1772.83
1786.78
1800.13
1812.85
1824.95
1836.43
1847.29
1857.55
1867.25
1876.39
1885.02
1893.14
1900.78
1907.93
1914.6
1920.82
1926.59
1931.92
1936.82
1941.29
1945.34
1948.99
1952.24
1955.1
1957.6
1959.75
1961.58
1963.12
1964.4
1965.45
1966.29
1966.93
1967.41
1967.75
1967.95
1968.04
1968.04
1967.97
1967.85
1967.7
1967.53
1967.37
1967.22
1967.12
1967.06
1967.08
1967.18
1967.37
1967.68
1968.1
1968.65
1969.34
1970.18
1971.17
1972.31
1973.62
1975.1
1976.75
1978.56
1980.55
1982.71
1985.04
1987.54
1990.2
1993.02
1996
1999.13
2002.4
2005.82
2009.36
2013.04
2016.83
2020.73
2024.74
2028.85
2033.04
2037.31
2041.65
2046.05
2050.5
2055
2059.55
2064.15
2068.79
2073.44
2078.12
2082.82
2087.54
2092.27
2097.02
2101.77
2106.53
2111.29
2116.04
2120.79
2125.54
2130.28
2135.01
2139.74
2144.45
2149.15
2153.84
2158.52
2163.18
2167.83
2172.46
2177.07
2181.65
2186.22
2190.76
2195.27
2199.76
2204.2
2208.62
2212.99
2217.31
2221.59
2225.81
2229.97
2234.06
2238.07
2242
2245.84
2249.58
2253.22
2256.74
2260.14
2263.4
2266.51
2269.47
2272.26
2274.87
2277.29
2279.52
2281.53
2283.33
2284.91
2286.25
2287.35
2288.21
2288.82
2289.17
2289.27
2289.09
2288.63
2287.87
2286.8
2285.4
2283.64
2281.51
2279
2276.09
2272.79
2269.08
2264.96
2260.44
2255.51
2250.18
2244.42
2238.23
2231.6
2224.5
2216.92
2208.86
2200.3
2191.25
2181.71
2171.69
2161.19
2150.21
2138.77
2126.86
2114.5
2101.68
2088.41
2074.69
2060.54
2045.96
2030.95
2015.54
1999.73
1983.54
1966.98
1950.06
1932.81
1915.24
1897.37
1879.22
1860.81
1842.16
1823.29
1804.22
1784.98
1765.57
1746.03
1726.38
1706.63
1686.8
1666.93
1647.01
1627.07
1607.13
1587.19
1567.26
1547.35
1527.49
1507.67
1487.93
1468.29
1448.8
1429.5
1410.45
1391.75
1373.46
1355.69
1338.51
1322
1306.21
1291.19
1276.97
1263.55
1250.92
1239.05
1227.88
1217.37
1207.44
1198.04
1189.1
1180.6
1172.49
1164.76
1157.4
1150.4
1143.78
1137.53
1131.67
1126.22
1121.21
1116.67
1112.64
1109.17
1106.26
1103.91
1102.07
1100.63
1099.52
1098.67
1098.25
2897.01
2896.1
2894.29
2891.38
2887.54
2882.69
2876.89
2870.17
2862.56
2854.09
2844.75
2834.56
2823.52
2811.62
2798.85
2785.22
2770.73
2755.37
2739.16
2722.09
2704.17
2685.41
2665.8
2645.36
2624.11
2602.04
2579.16
2555.49
2531.02
2505.76
2479.73
2452.94
2425.4
2397.11
2368.1
2338.36
2307.95
2276.87
2245.12
2212.71
2179.53
2145.85
2111.52
2076.59
2041.05
2004.95
1968.28
1931.09
1893.37
1855.16
1816.48
1777.35
1737.78
1697.81
1657.45
1616.73
1575.67
1534.29
1492.61
1450.65
1408.44
1366
1323.34
1280.49
1237.46
1194.29
1150.97
1107.55
1064.02
1020.43
976.773
933.083
889.376
845.672
801.992
758.356
714.783
671.295
627.911
584.652
541.539
498.591
455.829
413.273
370.943
328.86
287.044
245.515
204.293
163.398
122.85
82.6687
42.8733
3.48348
-35.4815
-74.0024
-112.06
-149.636
-186.711
-223.266
-259.285
-294.745
-329.643
-363.945
-397.637
-430.701
-463.119
-494.874
-525.948
-556.324
-585.985
-614.915
-643.097
-670.516
-697.157
-723.005
-748.045
-772.262
-795.642
-818.17
-839.832
-860.614
-880.503
-899.486
-917.548
-934.677
-950.86
-966.085
-980.341
-993.62
-1005.92
-1017.23
-1027.57
-1036.95
-1045.35
-1052.77
-1059.19
-1064.59
-1068.94
-1072.22
-1074.39
-1075.42
-1075.31
-1074.08
-1071.78
-1068.45
-1064.13
-1058.82
-1052.53
-1045.28
-1037.07
-1027.89
-1017.73
-1006.6
-994.496
-981.42
-967.382
-952.391
-936.457
-919.589
-901.798
-883.098
-863.502
-843.029
-821.698
-799.531
-776.547
-752.769
-728.215
-702.907
-676.863
-650.102
-622.645
-594.512
-565.725
-536.306
-506.277
-475.664
-444.49
-412.781
-380.564
-347.865
-314.711
-281.13
-247.15
-212.797
-178.101
-143.089
-107.789
-72.2283
-36.4345
-0.434972
35.7433
72.0734
108.529
145.084
181.711
218.387
255.084
291.779
328.447
365.063
401.604
438.047
474.37
510.55
546.565
582.395
618.019
653.42
688.577
723.475
758.095
792.422
826.44
860.133
893.486
926.483
959.111
991.355
1023.2
1054.64
1085.65
1116.23
1146.37
1176.05
1205.27
1234.02
1262.29
1290.08
1317.38
1344.17
1370.46
1396.2
1421.38
1445.97
1469.95
1493.31
1516.08
1538.29
1559.97
1581.11
1601.73
1621.79
1641.28
1660.18
1678.46
1696.13
1713.17
1729.61
1745.44
1760.67
1775.28
1789.27
1802.63
1815.36
1827.45
1838.91
1849.75
1859.99
1869.65
1878.74
1887.29
1895.32
1902.85
1909.89
1916.47
1922.6
1928.27
1933.5
1938.3
1942.68
1946.64
1950.2
1953.36
1956.14
1958.56
1960.64
1962.41
1963.88
1965.1
1966.08
1966.85
1967.43
1967.84
1968.1
1968.23
1968.25
1968.18
1968.03
1967.84
1967.61
1967.37
1967.13
1966.93
1966.76
1966.65
1966.61
1966.65
1966.8
1967.06
1967.45
1967.97
1968.63
1969.44
1970.41
1971.54
1972.84
1974.31
1975.96
1977.78
1979.77
1981.94
1984.28
1986.8
1989.48
1992.32
1995.32
1998.48
2001.78
2005.23
2008.81
2012.51
2016.34
2020.27
2024.31
2028.45
2032.67
2036.98
2041.36
2045.8
2050.3
2054.85
2059.45
2064.08
2068.73
2073.4
2078.1
2082.83
2087.56
2092.3
2097.05
2101.8
2106.55
2111.31
2116.06
2120.81
2125.55
2130.28
2135.01
2139.72
2144.42
2149.11
2153.79
2158.46
2163.11
2167.74
2172.35
2176.95
2181.53
2186.08
2190.61
2195.11
2199.59
2204.03
2208.43
2212.79
2217.11
2221.38
2225.6
2229.75
2233.83
2237.84
2241.77
2245.62
2249.36
2253
2256.53
2259.93
2263.2
2266.32
2269.29
2272.1
2274.73
2277.18
2279.44
2281.49
2283.33
2284.94
2286.32
2287.47
2288.37
2289.02
2289.41
2289.54
2289.39
2288.96
2288.23
2287.19
2285.82
2284.09
2282.01
2279.55
2276.7
2273.46
2269.81
2265.76
2261.3
2256.41
2251.11
2245.38
2239.2
2232.58
2225.48
2217.92
2209.87
2201.33
2192.3
2182.78
2172.76
2162.27
2151.29
2139.84
2127.92
2115.53
2102.68
2089.38
2075.62
2061.42
2046.79
2031.74
2016.27
2000.4
1984.14
1967.51
1950.53
1933.2
1915.56
1897.61
1879.37
1860.88
1842.14
1823.18
1804.01
1784.67
1765.16
1745.52
1725.76
1705.9
1685.96
1665.97
1645.93
1625.87
1605.79
1585.72
1565.65
1545.61
1525.61
1505.65
1485.77
1465.98
1446.33
1426.87
1407.65
1388.78
1370.33
1352.42
1335.14
1318.56
1302.74
1287.74
1273.56
1260.23
1247.73
1236.02
1225.05
1214.72
1204.98
1195.74
1186.94
1178.54
1170.51
1162.83
1155.49
1148.51
1141.87
1135.59
1129.69
1124.17
1119.07
1114.41
1110.22
1106.55
1103.44
1100.88
1098.85
1097.29
1096.1
1095.22
1094.79
2901.43
2900.53
2898.72
2895.82
2891.93
2887.05
2881.23
2874.51
2866.91
2858.43
2849.1
2838.9
2827.84
2815.92
2803.12
2789.46
2774.94
2759.55
2743.3
2726.2
2708.24
2689.44
2669.8
2649.32
2628.03
2605.91
2582.99
2559.27
2534.75
2509.45
2483.37
2456.53
2428.94
2400.6
2371.54
2341.76
2311.29
2280.13
2248.3
2215.77
2182.58
2148.79
2114.38
2079.35
2043.73
2007.53
1970.77
1933.48
1895.67
1857.36
1818.58
1779.34
1739.67
1699.6
1659.14
1618.31
1577.15
1535.66
1493.88
1451.82
1409.51
1366.97
1324.21
1281.26
1238.14
1194.87
1151.46
1107.94
1064.32
1020.63
976.879
933.093
889.29
845.49
801.713
757.98
714.31
670.724
627.243
583.887
540.676
497.631
454.772
412.12
369.694
327.515
285.604
243.981
202.665
161.676
121.035
80.7616
40.8745
1.39355
-37.662
-76.2731
-114.421
-152.085
-189.249
-225.894
-262.002
-297.554
-332.532