/*--------------------------------*- C++ -*----------------------------------*\
| =========                 |                                                 |
| \\      /  F ield         | OpenFOAM: The Open Source CFD Toolbox           |
|  \\    /   O peration     | Version:  v2006                                 |
|   \\  /    A nd           | Website:  www.openfoam.com                      |
|    \\/     M anipulation  |                                                 |
\*---------------------------------------------------------------------------*/
FoamFile
{
    version     2.0;
    format      ascii;
    class       surfaceScalarField;
    location    "18";
    object      phi;
}
// * * * * * * * * * * * * * * * * * * * * * * * * * * * * * * * * * * * * * //

dimensions      [0 3 -1 0 0 0 0];
oriented        oriented;


internalField   nonuniform List<scalar> 
299200
(
0.000119038
-0.000119038
0.000489404
-0.000370366
0.000875402
-0.000385998
0.0012443
-0.000368898
0.00161845
-0.000374154
0.00198801
-0.000369551
0.00234138
-0.000353373
0.00266567
-0.000324294
0.00295306
-0.000287384
0.00320135
-0.000248298
0.00341073
-0.000209378
0.00358504
-0.00017431
0.00373037
-0.000145323
0.00385419
-0.000123821
0.00396309
-0.000108908
0.00406289
-9.97968e-05
0.00415762
-9.47247e-05
0.00424928
-9.16618e-05
0.00433867
-8.93941e-05
0.00442473
-8.60539e-05
0.00450539
-8.06632e-05
0.00457875
-7.33654e-05
0.00464314
-6.43816e-05
0.00469715
-5.40107e-05
0.00474095
-4.38014e-05
0.0047746
-3.3651e-05
0.00479962
-2.50221e-05
0.00481785
-1.82257e-05
0.00483113
-1.32859e-05
0.00484026
-9.12575e-06
0.00484512
-4.85723e-06
0.0048446
5.19568e-07
0.00483604
8.55267e-06
0.00481527
2.07782e-05
0.00477746
3.78022e-05
0.00471899
5.84772e-05
0.0046372
8.17891e-05
0.0045313
0.000105902
0.00440233
0.000128968
0.00425321
0.000149115
0.00408805
0.000165162
0.00391132
0.000176727
0.0037273
0.000184025
0.00353938
0.000187915
0.00334948
0.000189905
0.00315813
0.000191344
0.00296495
0.000193189
0.00276908
0.000195863
0.0025692
0.000199885
0.00236438
0.000204821
0.00215423
0.000210149
0.00193972
0.000214513
0.00172048
0.00021924
0.00149769
0.000222786
0.00127237
0.000225314
0.00104585
0.000226526
0.000818886
0.000226963
0.000591623
0.000227264
0.000364218
0.000227405
0.000136512
0.000227705
-9.18654e-05
0.000228378
-0.000321632
0.000229766
-0.000553331
0.000231699
-0.000787396
0.000234065
-0.00102405
0.000236656
-0.00126327
0.000239219
-0.00150475
0.000241481
-0.0017479
0.000243151
-0.00199183
0.000243929
-0.00223536
0.000243533
-0.00247709
0.000241723
-0.00271543
0.000238345
-0.00294882
0.000233387
-0.00317582
0.000227004
-0.00339532
0.000219497
-0.00360654
0.000211223
-0.00380907
0.00020253
-0.00400277
0.000193692
-0.00418765
0.000184885
-0.00436384
0.000176186
-0.00453142
0.000167587
-0.00469045
0.000159024
-0.00484087
0.000150419
-0.00498259
0.000141719
-0.00511547
0.000132888
-0.00523937
0.000123896
-0.00535408
0.000114711
-0.00545939
0.000105306
-0.00555504
9.56509e-05
-0.00564074
8.5705e-05
-0.00571618
7.54322e-05
-0.00578096
6.47859e-05
-0.00583466
5.36942e-05
-0.00587672
4.2068e-05
-0.00590653
2.98032e-05
-0.00592326
1.67378e-05
-0.00592592
2.65481e-06
-0.00591372
-1.22039e-05
-0.00588493
-2.87821e-05
-0.00583799
-4.69401e-05
-0.00577153
-6.64668e-05
-0.00568481
-8.67188e-05
-0.00557806
-0.000106745
-0.00545292
-0.000125144
-0.00531233
-0.000140588
-0.00516042
-0.00015191
-0.00500216
-0.00015826
-0.00484272
-0.000159436
-0.00468657
-0.00015615
-0.00453663
-0.000149945
-0.00439382
-0.000142811
-0.00425694
-0.000136884
-0.00412277
-0.000134164
-0.00398672
-0.000136048
-0.00384366
-0.000143061
-0.00368841
-0.000155255
-0.00351746
-0.000170953
-0.00332644
-0.00019102
-0.00311226
-0.000214179
-0.00287289
-0.000239362
-0.002607
-0.000265891
-0.00231364
-0.000293362
-0.00199192
-0.000321725
-0.00164077
-0.00035115
-0.00125922
-0.000381547
-0.000846269
-0.000412952
-0.000403056
-0.000443213
6.61393e-05
-0.000469195
0.000552247
-0.000486107
0.00104316
-0.000490917
0.00152473
-0.000481561
0.00198432
-0.000459591
0.00242049
-0.00043617
0.00285061
-0.000430124
0.0033207
-0.000470094
0.00390301
-0.000582305
0.00468743
-0.000784419
0.00574827
-0.00106084
0.00709594
-0.00134767
0.00862489
-0.00152894
0.0101055
-0.00148057
0.0111572
-0.00105176
0.0114107
-0.000253472
0.0108873
0.000523375
0.0101868
0.000700521
0.00978737
0.000399423
0.00978426
3.10909e-06
0.0101178
-0.00033354
0.0106523
-0.000534455
0.0113028
-0.00065059
0.0120313
-0.000728505
0.0128171
-0.000785734
0.0136711
-0.000854007
0.0145968
-0.000925738
0.0155915
-0.000994721
0.0166454
-0.00105388
0.0177407
-0.00109524
0.0188531
-0.00111247
0.0199547
-0.00110159
0.0210169
-0.00106221
0.0220165
-0.000999568
0.0229386
-0.000922094
0.0237793
-0.000840709
0.0245494
-0.000770119
0.0252704
-0.000721004
0.0259686
-0.000698169
0.0266684
-0.000699815
0.027388
-0.000719615
0.0281378
-0.000749775
0.0289211
-0.000783309
0.0297363
-0.000815162
0.0305788
-0.000842548
0.0314424
-0.000863559
0.0323195
-0.00087709
0.0332023
-0.00088286
0.0340836
-0.000881268
0.034957
-0.000873338
0.0358175
-0.000860554
0.0366621
-0.00084463
0.0374896
-0.000827462
0.0383004
-0.000810757
0.0390962
-0.000795825
0.0398797
-0.000783473
0.0406537
-0.000774001
0.041421
-0.000767297
0.0421839
-0.000762982
0.0429445
-0.000760558
0.043704
-0.000759506
0.0444633
-0.000759333
0.045223
-0.000759632
0.0459831
-0.000760098
0.0467436
-0.000760521
0.0475044
-0.000760784
0.0482652
-0.000760845
0.0490259
-0.000760734
0.0497865
-0.000760533
0.0505468
-0.000760355
0.0513072
-0.000760323
0.0520677
-0.000760535
0.0528287
-0.000761039
0.0535905
-0.0007618
0.0543532
-0.000762687
0.0551167
-0.000763459
0.0558805
-0.000763776
0.0566437
-0.000763221
0.057405
-0.000761346
0.0581628
-0.00075775
0.0589149
-0.000752179
0.0596596
-0.000744634
0.060395
-0.000735467
0.0611205
-0.000725434
0.0618362
-0.000715674
0.0625437
-0.000707553
0.0632461
-0.00070242
0.0639474
-0.00070128
0.0646518
-0.000704434
0.065363
-0.000711191
0.0660828
-0.000719802
0.0668105
-0.000727668
0.0675424
-0.00073186
0.0682722
-0.000729833
0.0689923
-0.000720146
0.0696953
-0.000702948
0.0703753
-0.000680011
0.0710295
-0.000654233
0.0716582
-0.000628699
0.0722639
-0.000605659
0.0728498
-0.000585927
0.073419
-0.000569143
0.0739739
-0.000554912
0.0745181
-0.000544177
0.0750577
-0.000539667
0.0756023
-0.000544542
0.0761618
-0.000559534
0.0767423
-0.000580509
0.0773413
-0.000598993
0.0779481
-0.000606793
0.0785505
-0.000602396
0.0791454
-0.000594887
0.0797465
-0.000601152
0.0803754
-0.000628872
0.0810277
-0.000652331
0.0816326
-0.00060484
0.0820495
-0.000416916
0.0821691
-0.000119578
0.0820273
0.000141801
0.0817952
0.000232092
0.0815793
0.000215899
0.0813734
0.000205843
0.0811223
0.000251097
0.0807761
0.000346242
0.0803115
0.000464568
0.0797274
0.00058414
0.0790322
0.000695144
0.078242
0.000790233
0.0773765
0.000865544
0.0764675
0.000908915
0.0755569
0.00091066
0.074689
0.000867917
0.0739153
0.000773647
0.0732842
0.000631073
0.0728327
0.000451563
0.0725772
0.000255443
0.0725004
7.68352e-05
0.0725687
-6.83182e-05
0.0727394
-0.000170719
0.0729862
-0.000246787
0.0732903
-0.000304063
0.0736355
-0.000345199
0.0740102
-0.000374713
0.0744056
-0.00039542
0.0748139
-0.000408246
0.0752267
-0.0004128
0.0756362
-0.000409482
0.0760343
-0.000398136
0.0764139
-0.000379616
0.0767704
-0.000356498
0.0771033
-0.000332913
0.0774173
-0.000313933
0.0777212
-0.000303908
0.0780251
-0.000303915
0.0783371
-0.00031204
0.0786613
-0.000324149
0.0789971
-0.00033587
0.0793414
-0.0003443
0.07969
-0.000348604
0.0800396
-0.000349575
0.0803883
-0.000348722
0.0807358
-0.000347439
0.0810823
-0.000346578
0.0814288
-0.000346417
0.0817756
-0.000346856
0.0821233
-0.000347641
0.0824718
-0.000348522
0.0828211
-0.000349319
0.083171
-0.000349924
0.0835213
-0.000350276
0.0838716
-0.000350332
0.0842217
-0.000350056
0.0845711
-0.000349409
0.0849195
-0.000348355
0.0852663
-0.000346861
0.0856112
-0.000344899
0.0859537
-0.000342452
0.0862932
-0.000339513
0.0866293
-0.00033609
0.0869615
-0.000332199
0.0872893
-0.000327869
0.0876125
-0.000323134
0.0879305
-0.000318029
0.0882431
-0.000312585
0.0885499
-0.000306826
0.0888507
-0.000300765
0.0891451
-0.000294404
0.0894328
-0.000287735
0.0897136
-0.000280739
0.0899869
-0.000273388
0.0902526
-0.000265649
0.0905101
-0.000257484
0.0907589
-0.000248847
0.0909986
-0.000239685
0.0912285
-0.000229933
0.0914481
-0.000219509
0.0916563
-0.000208297
0.0918525
-0.000196117
0.0920351
-0.000182662
0.0922025
-0.000167395
0.0923519
-0.000149334
0.0924774
-0.000125554
0.0925637
-8.63256e-05
0.0925854
-2.16309e-05
0.0925255
5.98502e-05
0.0924063
0.000119225
0.0922577
0.000148571
0.0920955
0.000162243
0.0919221
0.000173332
0.0917331
0.000189052
0.0915245
0.000208582
0.091295
0.000229484
0.091045
0.000250016
0.0907754
0.000269613
0.090487
0.000288443
0.0901802
0.000306787
0.0898554
0.000324779
0.089513
0.000342424
0.0891533
0.000359691
0.0887767
0.000376565
0.0883837
0.000393055
0.0879745
0.000409187
0.0875495
0.00042499
0.087109
0.000440494
0.0866533
0.000455721
0.0861826
0.000470691
0.0856972
0.000485408
0.0851973
0.000499864
0.0846833
0.000514026
0.0841554
0.00052784
0.0836142
0.000541223
0.0830601
0.000554066
0.0824939
0.000566239
0.0819163
0.000577608
0.0813282
0.000588052
0.0807307
0.000597496
0.0801248
0.000605945
0.0795113
0.000613526
0.0788908
0.000620504
0.0782635
0.000627274
0.0776292
0.000634321
0.076987
0.000642142
0.0763359
0.000651143
0.0756744
0.000661497
0.0750014
0.000673027
0.0743162
0.000685183
0.073619
0.000697181
0.0729107
0.000708316
0.0721924
0.000718321
0.0714648
0.000727605
0.0707275
0.000737228
0.0699789
0.000748601
0.069216
0.000762978
0.068435
0.000780914
0.0676331
0.000801936
0.0668084
0.000824665
0.065961
0.000847396
0.0650922
0.000868835
0.0642036
0.000888611
0.0632964
0.000907232
0.0623709
0.000925492
0.0614274
0.000943478
0.0604678
0.0009596
0.0594971
0.000970698
0.0585242
0.000972914
0.0575627
0.000961487
0.0566297
0.000933027
0.055742
0.000887645
0.0549114
0.000830604
0.0541392
0.000772223
0.0534142
0.000724976
0.0527158
0.000698417
0.0520214
0.000694412
0.0513157
0.0007057
0.0505966
0.000719052
0.0498754
0.000721263
0.049171
0.000704394
0.0485032
0.00066779
0.0478865
0.000616733
0.0473272
0.000559265
0.046824
0.000503194
0.0463695
0.000454493
0.0459524
0.000417147
0.0455587
0.000393619
0.0451737
0.000385074
0.0447827
0.000391006
0.0443741
0.000408594
0.0439416
0.000432492
0.0434855
0.000456042
0.0430116
0.000473953
0.042528
0.000483609
0.0420427
0.000485322
0.0415611
0.000481544
0.0410857
0.000475413
0.0406164
0.000469279
0.0401523
0.000464127
0.0396923
0.000459959
0.0392357
0.000456593
0.0387815
0.0004542
0.0383282
0.000453292
0.0378739
0.000454383
0.0374162
0.00045768
0.0369532
0.000463006
0.0364832
0.000469936
0.0360052
0.000477993
0.0355185
0.000486777
0.0350224
0.000496022
0.0345169
0.000505566
0.0340016
0.000515299
0.0334765
0.000525093
0.0329417
0.000534754
0.0323977
0.000543993
0.0318453
0.000552459
0.0312855
0.000559829
0.0307195
0.000565997
0.0301482
0.000571249
0.0295719
0.000576276
0.0289901
0.000581834
0.0284019
0.000588182
0.0278073
0.000594657
0.0272075
0.000599807
0.0266054
0.000602103
0.0260046
0.000600756
0.0254085
0.000596075
0.0248194
0.000589161
0.0242381
0.0005813
0.0236645
0.000573535
0.0230979
0.000566619
0.0225367
0.000561198
0.0219788
0.000557929
0.0214214
0.000557404
0.0208614
0.000559926
0.0202962
0.000565245
0.0197238
0.000572386
0.0191441
0.000579669
0.0185592
0.000584981
0.0179728
0.000586325
0.0173904
0.000582455
0.0168173
0.000573068
0.0162572
0.000560144
0.0157044
0.000552803
0.0151376
0.000566815
0.0145333
0.000604303
0.0138825
0.000650746
0.0131981
0.00068444
0.0125012
0.000696861
0.0118061
0.000695061
0.0111158
0.000690295
0.0104257
0.000690099
0.00972884
0.000696914
0.00902048
0.000708356
0.00829882
0.000721657
0.00756428
0.000734542
0.00681952
0.00074476
0.00606963
0.000749892
0.0053219
0.000747727
0.00458519
0.000736711
0.00386908
0.000716112
0.00318318
0.000685897
0.00253694
0.000646239
0.00193983
0.000597107
0.00140161
0.000538226
0.000932075
0.000469533
0.00054199
0.000390085
0.000244252
0.000297738
5.34217e-05
0.00019083
-1.98265e-05
7.32481e-05
9.88905e-06
-2.97155e-05
0.000101822
-9.1933e-05
0.000208791
-0.000106969
0.000252089
-4.32977e-05
0.000178743
7.33456e-05
0.000178743
-0.000145428
2.63898e-05
-6.45437e-05
-0.00045125
-4.29572e-05
-0.000407584
-6.26437e-05
-0.000349212
-0.000114038
-0.00032276
-0.000209586
-0.000274003
-0.00036092
-0.000202039
-0.000567634
-0.00011758
-0.000820487
-3.45314e-05
-0.00110273
3.39502e-05
-0.00139763
8.55198e-05
-0.00168893
0.000116986
-0.0019629
0.000128653
-0.00221141
0.000124686
-0.00243121
0.000110885
-0.00262335
9.23473e-05
-0.00279161
7.35337e-05
-0.00294077
5.74978e-05
-0.00307571
4.55452e-05
-0.00320005
3.82914e-05
-0.00331588
3.5164e-05
-0.00342405
3.48072e-05
-0.00352454
3.61021e-05
-0.00361686
3.8309e-05
-0.00370154
4.08878e-05
-0.00377981
4.46143e-05
-0.00385502
5.01911e-05
-0.00393223
5.89832e-05
-0.00401798
7.24648e-05
-0.00411894
9.18298e-05
-0.00424076
0.00011696
-0.00438649
0.000146256
-0.00455482
0.000176883
-0.00473942
0.000205372
-0.00493
0.000228387
-0.00511514
0.000243612
-0.00528453
0.00025118
-0.00543195
0.000253325
-0.00555646
0.000253473
-0.00566217
0.000254827
-0.00575649
0.000259484
-0.00584781
0.000268053
-0.00594364
0.000279847
-0.00604921
0.000293492
-0.00616687
0.000307563
-0.00629639
0.00032086
-0.00643575
0.000332551
-0.00658212
0.000342234
-0.00673225
0.000350016
-0.00688352
0.00035609
-0.00703407
0.000360696
-0.00718356
0.000364005
-0.00733113
0.000366809
-0.00747746
0.000369116
-0.00762335
0.000371206
-0.00777011
0.000373281
-0.00791891
0.000375765
-0.0080707
0.000379054
-0.00822656
0.000383262
-0.00838732
0.000388468
-0.00855357
0.000394627
-0.0087254
0.000401592
-0.00890266
0.000408965
-0.00908488
0.000416279
-0.00927126
0.000423044
-0.00946085
0.000428805
-0.00965256
0.000433186
-0.00984529
0.00043589
-0.010038
0.000436681
-0.0102299
0.000435371
-0.01042
0.000431801
-0.0106075
0.000425839
-0.0107915
0.000417413
-0.010971
0.000406554
-0.011145
0.000393416
-0.011312
0.000378276
-0.011471
0.000361517
-0.0116209
0.000343602
-0.0117611
0.000325038
-0.0118912
0.000306318
-0.0120115
0.000287863
-0.0121224
0.000269976
-0.0122248
0.000252811
-0.0123195
0.000236384
-0.0124072
0.000220596
-0.0124885
0.00020526
-0.0125639
0.000190101
-0.0126336
0.000174925
-0.0126974
0.000159519
-0.0127554
0.000143709
-0.0128074
0.000127442
-0.0128532
0.000110516
-0.0128923
9.27854e-05
-0.0129241
7.39317e-05
-0.012948
5.36478e-05
-0.0129627
3.1491e-05
-0.0129669
6.88161e-06
-0.01296
-1.91249e-05
-0.0129408
-4.80381e-05
-0.0129084
-7.93446e-05
-0.0128623
-0.000112506
-0.012803
-0.000146067
-0.0127312
-0.000178486
-0.0126485
-0.000207884
-0.0125567
-0.000232351
-0.0124584
-0.00025021
-0.0123563
-0.000260346
-0.0122532
-0.000262597
-0.0121513
-0.000258054
-0.0120522
-0.000249068
-0.011956
-0.000238961
-0.0118613
-0.000231569
-0.0117648
-0.000230638
-0.0116618
-0.00023912
-0.0115461
-0.00025872
-0.0114116
-0.000289803
-0.0112511
-0.000331463
-0.0110597
-0.000382341
-0.0108332
-0.000440743
-0.0105691
-0.000503453
-0.0102666
-0.000568334
-0.00992627
-0.000633728
-0.00954982
-0.000698176
-0.00914064
-0.000760332
-0.00870355
-0.000818631
-0.00824619
-0.00087031
-0.00777909
-0.000910319
-0.00731652
-0.000931764
-0.0068753
-0.000927327
-0.00647221
-0.000894011
-0.00611782
-0.00083595
-0.0058101
-0.000767309
-0.00553148
-0.000714788
-0.00524798
-0.000713622
-0.00491336
-0.00080472
-0.00447078
-0.00102488
-0.003871
-0.0013842
-0.00307755
-0.0018543
-0.00207277
-0.00235245
-0.000849455
-0.00275226
0.000590685
-0.00292071
0.00221493
-0.00267601
0.00398914
-0.00202768
0.00571446
-0.00120195
0.00700536
-0.000590379
0.00771862
-0.000313833
0.00787983
-0.000158109
0.00757849
-3.2193e-05
0.0070224
2.16353e-05
0.00643468
-6.28756e-05
0.00601854
-0.000312362
0.00591873
-0.000685924
0.00613773
-0.00107301
0.00662056
-0.00140857
0.00729546
-0.00166962
0.00809908
-0.0018575
0.00898679
-0.00198296
0.00993008
-0.00205576
0.0109107
-0.00208225
0.0119156
-0.00206702
0.0129315
-0.00201547
0.0139445
-0.00193515
0.0149436
-0.00183976
0.0159173
-0.00174382
0.0168566
-0.0016603
0.0177575
-0.00159914
0.0186231
-0.00156539
0.0194626
-0.00155912
0.0202893
-0.00157647
0.021117
-0.00161101
0.0219569
-0.00165506
0.0228159
-0.00170151
0.0236971
-0.00174476
0.0246006
-0.00178062
0.0255241
-0.00180638
0.0264636
-0.0018207
0.0274137
-0.00182348
0.0283687
-0.00181559
0.0293227
-0.00179863
0.0302699
-0.00177461
0.0312048
-0.0017457
0.032123
-0.00171401
0.033021
-0.00168141
0.0338964
-0.00164945
0.0347484
-0.00161935
0.0355775
-0.00159202
0.036385
-0.00156811
0.0371736
-0.00154805
0.0379463
-0.00153208
0.0387069
-0.00152024
0.0394593
-0.00151242
0.0402071
-0.00150838
0.0409541
-0.00150776
0.0417034
-0.00151012
0.0424575
-0.00151491
0.0432185
-0.00152152
0.0439874
-0.00152927
0.0447645
-0.00153741
0.0455491
-0.0015451
0.0463395
-0.00155147
0.0471334
-0.00155562
0.0479273
-0.00155668
0.0487177
-0.00155385
0.0495004
-0.00154646
0.0502713
-0.00153409
0.0510266
-0.00151661
0.0517632
-0.00149437
0.0524793
-0.00146833
0.0531749
-0.00144017
0.0538517
-0.00141233
0.0545141
-0.00138777
0.055168
-0.00136957
0.0558207
-0.0013603
0.0564797
-0.00136139
0.057151
-0.00137256
0.0578381
-0.00139156
0.0585413
-0.00141442
0.0592575
-0.00143603
0.059981
-0.00145108
0.0607043
-0.00145516
0.0614202
-0.00144583
0.0621234
-0.0014233
0.062811
-0.00139057
0.0634836
-0.00135254
0.0641435
-0.00131423
0.0647934
-0.00127858
0.0654324
-0.00124465
0.0660541
-0.00120762
0.0666461
-0.00116118
0.067193
-0.00110177
0.0676811
-0.00103231
0.0681037
-0.000962276
0.0684619
-0.000902688
0.0687605
-0.000858177
0.0690022
-0.00082217
0.069184
-0.000780779
0.0693028
-0.000725576
0.069369
-0.00066859
0.0694205
-0.000646422
0.0695256
-0.000706312
0.0697761
-0.000879321
0.0702694
-0.00114558
0.0710874
-0.0014229
0.0722696
-0.00159913
0.0737469
-0.00159688
0.0753077
-0.001419
0.0766935
-0.00115367
0.0778073
-0.000897919
0.0787012
-0.000688021
0.0794699
-0.000517621
0.0801886
-0.0003725
0.0808968
-0.000243635
0.0816084
-0.000127406
0.0823232
-1.96593e-05
0.0830534
5.99864e-05
0.0837901
0.000128821
0.0845171
0.000181944
0.085209
0.000218814
0.085847
0.000229906
0.0864098
0.000210812
0.0868776
0.000163251
0.0872378
9.14176e-05
0.0874915
1.70435e-06
0.0876359
-6.75976e-05
0.0876998
-0.000132155
0.0877061
-0.000177064
0.0876557
-0.000196396
0.087544
-0.000192289
0.0873651
-0.00016635
0.0871118
-0.000121437
0.0867793
-6.28708e-05
0.0863692
1.82301e-06
0.0858918
6.46091e-05
0.0853703
0.000111984
0.0848387
0.00013347
0.0843409
0.00011823
0.0839251
5.93358e-05
0.0836331
-4.09815e-05
0.0834957
-0.000176529
0.0835254
-0.000333602
0.0837127
-0.000491157
0.0840305
-0.000629855
0.0844428
-0.000736451
0.0849131
-0.000806188
0.0854107
-0.000841863
0.0859131
-0.000851058
0.0864066
-0.00084302
0.086884
-0.000826202
0.0873435
-0.000806904
0.0877859
-0.000788958
0.0882136
-0.00077409
0.0886293
-0.000762585
0.0890356
-0.000753931
0.0894344
-0.000747303
0.0898269
-0.000741859
0.0902139
-0.000736882
0.0905954
-0.000731829
0.0909714
-0.000726325
0.0913415
-0.000720138
0.0917052
-0.000713135
0.0920621
-0.000705249
0.0924117
-0.000696438
0.0927534
-0.000686667
0.0930869
-0.000675892
0.0934114
-0.000664067
0.0937265
-0.000651153
0.0940314
-0.000637126
0.0943256
-0.000621989
0.0946082
-0.000605779
0.0948787
-0.000588564
0.0951366
-0.000570442
0.0953813
-0.000551528
0.0956125
-0.000531948
0.0958299
-0.000511829
0.0960334
-0.000491285
0.0962231
-0.000470411
0.096399
-0.000449279
0.0965613
-0.000427931
0.0967102
-0.000406384
0.096846
-0.000384625
0.0969689
-0.000362619
0.0970793
-0.000340306
0.0971774
-0.000317601
0.0972635
-0.00029439
0.0973379
-0.000270522
0.097401
-0.000245805
0.0974536
-0.000220031
0.0974973
-0.000192992
0.0975362
-0.000164454
0.0975847
-0.00013481
0.0976687
-0.000105626
0.0978059
-7.73659e-05
0.097976
-5.08906e-05
0.0981508
-2.61668e-05
0.0983127
3.23563e-07
0.0984618
2.42454e-05
0.0985983
5.24947e-05
0.098724
8.28659e-05
0.0988383
0.000115176
0.0989396
0.000148767
0.099026
0.000183192
0.0990961
0.000218308
0.0991489
0.000254075
0.0991832
0.000290456
0.0991982
0.000327392
0.0991931
0.000364804
0.0991671
0.000402599
0.0991194
0.000440677
0.0990497
0.000478933
0.0989574
0.000517259
0.0988424
0.000555541
0.0987044
0.000593664
0.0985436
0.000631513
0.09836
0.000668978
0.098154
0.000705957
0.0979256
0.000742357
0.0976754
0.000778101
0.0974035
0.000813124
0.0971101
0.00084738
0.0967955
0.000880841
0.0964597
0.000913495
0.0961024
0.000945358
0.0957234
0.00097647
0.0953224
0.0010069
0.0948992
0.00103674
0.0944536
0.00106613
0.0939856
0.00109524
0.0934957
0.00112423
0.0929846
0.00115323
0.0924535
0.00118225
0.0919038
0.00121117
0.0913372
0.00123963
0.0907553
0.00126709
0.0901596
0.00129287
0.0895516
0.00131637
0.0889325
0.00133734
0.088304
0.00135613
0.0876675
0.00137373
0.0870245
0.00139159
0.0863763
0.00141116
0.0857239
0.00143339
0.0850674
0.00145843
0.0844064
0.00148568
0.0837394
0.00151439
0.0830637
0.00154445
0.0823756
0.00157679
0.0816696
0.00161319
0.0809398
0.00165531
0.0801799
0.00170339
0.079384
0.00175545
0.0785473
0.0018074
0.0776661
0.00185414
0.076737
0.00189061
0.0757567
0.00191332
0.0747231
0.00192121
0.0736381
0.00191561
0.0725111
0.00189919
0.0713619
0.00187417
0.0702199
0.00184049
0.069119
0.00179527
0.0680905
0.00173422
0.0671548
0.00165473
0.0663169
0.00155921
0.0655646
0.00145661
0.0648717
0.00136073
0.064203
0.00128547
0.0635233
0.00123894
0.0628068
0.00121968
0.0620441
0.0012172
0.0612446
0.00121663
0.0604332
0.00120503
0.0596424
0.00117593
0.0589028
0.00113053
0.0582357
0.00107575
0.0576473
0.00102087
0.0571287
0.000974687
0.0566588
0.00094379
0.0562109
0.000931575
0.0557582
0.000937956
0.0552802
0.000959576
0.054765
0.000990554
0.0542104
0.00102396
0.0536206
0.00105387
0.0530036
0.001077
0.0523671
0.00109312
0.0517174
0.0011039
0.0510593
0.00111137
0.0503969
0.00111678
0.049734
0.0011206
0.0490739
0.0011231
0.0484189
0.00112491
0.0477698
0.00112712
0.0471257
0.00113085
0.0464848
0.00113687
0.045845
0.00114538
0.0452043
0.00115603
0.0445611
0.00116826
0.0439144
0.00118144
0.0432633
0.00119511
0.0426068
0.00120894
0.0419439
0.00122282
0.041273
0.00123685
0.0405928
0.00125147
0.0399015
0.0012676
0.0391967
0.00128656
0.0384751
0.00130982
0.0377314
0.00133839
0.0369589
0.00137229
0.0361507
0.00141033
0.0353009
0.00145056
0.0344061
0.00149086
0.0334658
0.00152946
0.032482
0.00156512
0.0314584
0.00159707
0.0303999
0.0016251
0.0293117
0.00164948
0.028199
0.0016706
0.0270681
0.00168834
0.0259264
0.0017016
0.0247835
0.0017081
0.0236513
0.00170462
0.0225435
0.00168744
0.0214754
0.00165309
0.0204626
0.00159918
0.0195197
0.00152535
0.0186592
0.00143351
0.0178918
0.00132761
0.0172295
0.0012151
0.0166913
0.00110504
0.0162903
0.00100529
0.0160209
0.000920076
0.0158563
0.000849101
0.0157607
0.00079241
0.0157009
0.000754909
0.0156496
0.000741594
0.0155842
0.000755491
0.0154881
0.000792985
0.0153481
0.000848395
0.0151536
0.000916143
0.0148974
0.000990746
0.0145755
0.00106663
0.0141869
0.00113849
0.0137325
0.00120212
0.0132143
0.00125495
0.0126342
0.00129622
0.0119935
0.00132662
0.0112927
0.00134701
0.0105324
0.00135741
0.0097154
0.00135522
0.00884483
0.00134011
0.00792873
0.00130618
0.00697977
0.0012467
0.00601226
0.00115835
0.00504198
0.00104352
0.00409892
0.000913342
0.00321963
0.000787364
0.00241243
0.000700227
0.00164484
0.000724291
0.000853241
0.000864946
0.00103198
-0.000189803
0.000216193
-0.000155489
-0.000485564
-0.000233694
-0.00032938
-0.000425655
-0.00015725
-0.000685777
-6.2638e-05
-0.000999429
3.96491e-05
-0.00135896
0.000157493
-0.00174475
0.000268208
-0.00213149
0.000352209
-0.00249638
0.000398839
-0.00281916
0.000408302
-0.00308859
0.000386415
-0.00330245
0.000342515
-0.0034651
0.000287336
-0.0035848
0.000230583
-0.00367167
0.000179221
-0.00373526
0.000137122
-0.00378326
0.0001055
-0.00382114
8.34259e-05
-0.00385189
6.90424e-05
-0.00387682
6.00869e-05
-0.00389658
5.45746e-05
-0.00391207
5.15905e-05
-0.00392508
5.13202e-05
-0.00393914
5.49411e-05
-0.0039586
6.40753e-05
-0.00398891
8.0498e-05
-0.00403499
0.000105069
-0.00410029
0.000137759
-0.00418507
0.000176616
-0.00428569
0.000217581
-0.00439455
0.000255115
-0.00450108
0.000283407
-0.00459349
0.000297788
-0.00466169
0.00029658
-0.00470015
0.000282072
-0.00470907
0.0002601
-0.00469448
0.000238741
-0.00466647
0.000225466
-0.00463678
0.000225134
-0.00461627
0.000238973
-0.00461325
0.000265033
-0.00463288
0.00029948
-0.00467675
0.000337353
-0.00474349
0.000374303
-0.00482988
0.00040726
-0.00493198
0.000434651
-0.00504602
0.000456267
-0.0051689
0.000472896
-0.00529856
0.000485757
-0.00543397
0.000496106
-0.00557499
0.000505025
-0.00572163
0.000513443
-0.0058743
0.000521788
-0.00603341
0.000530312
-0.00619923
0.000539104
-0.00637167
0.000548211
-0.00655022
0.000557598
-0.00673405
0.00056709
-0.00692203
0.000576456
-0.00711282
0.00058541
-0.00730486
0.000593638
-0.00749669
0.000600794
-0.007687
0.000606589
-0.00787478
0.000610825
-0.00805938
0.000613407
-0.0082405
0.000614305
-0.00841811
0.000613494
-0.00859231
0.000610882
-0.00876321
0.000606276
-0.00893079
0.000599378
-0.00909479
0.000589835
-0.0092547
0.00057733
-0.00940982
0.000561675
-0.00955932
0.000542912
-0.00970241
0.000521372
-0.00983857
0.00049767
-0.00996762
0.000472653
-0.0100899
0.00044729
-0.0102061
0.000422554
-0.0103175
0.000399212
-0.0104253
0.00037782
-0.0105311
0.000358592
-0.0106361
0.000341378
-0.0107414
0.000325892
-0.0108477
0.000311591
-0.0109555
0.000297923
-0.0110649
0.000284323
-0.0111757
0.00027033
-0.0112876
0.000255583
-0.0113999
0.000239726
-0.0115119
0.000222518
-0.0116228
0.000203652
-0.0117316
0.000182779
-0.0118374
0.000159481
-0.0119394
0.00013342
-0.0120367
0.000104213
-0.0121277
7.18756e-05
-0.0122119
3.62094e-05
-0.0122881
-3.15459e-06
-0.0123551
-4.55638e-05
-0.012412
-8.9175e-05
-0.0124574
-0.00013304
-0.0124898
-0.000175528
-0.0125072
-0.000214944
-0.0125076
-0.00024981
-0.0124887
-0.000279186
-0.0124484
-0.000302984
-0.0123842
-0.000322172
-0.0122945
-0.000338771
-0.0121778
-0.000355645
-0.0120333
-0.000376095
-0.0118607
-0.000403275
-0.0116602
-0.000439591
-0.0114327
-0.000486264
-0.0111793
-0.000543169
-0.0109017
-0.000609044
-0.0106024
-0.00068164
-0.0102849
-0.000758303
-0.00995217
-0.000836143
-0.00960848
-0.000912025
-0.00925875
-0.000983464
-0.0089083
-0.00104862
-0.00856253
-0.0011061
-0.00822671
-0.00115445
-0.00790613
-0.00119089
-0.00760639
-0.00121006
-0.00733469
-0.00120346
-0.00710101
-0.00116101
-0.00691853
-0.00107649
-0.00679926
-0.000955224
-0.0067451
-0.000821469
-0.00674008
-0.000719801
-0.00674731
-0.000706394
-0.00672132
-0.000830709
-0.00662724
-0.00111897
-0.00645287
-0.00155856
-0.00621031
-0.00209687
-0.00591651
-0.00264625
-0.00557754
-0.00309122
-0.00518979
-0.00330846
-0.00469552
-0.00317028
-0.00405651
-0.00266669
-0.00329975
-0.00195871
-0.00254501
-0.00134511
-0.00187408
-0.000984764
-0.00119207
-0.000840117
-0.000382856
-0.000841412
0.000599435
-0.000960656
0.00172689
-0.00119033
0.0029023
-0.00148778
0.00401208
-0.0017957
0.00503288
-0.00209381
0.00595948
-0.00233517
0.00680296
-0.0025131
0.00758231
-0.00263684
0.00831807
-0.00271872
0.0090298
-0.00276749
0.00973514
-0.0027876
0.0104498
-0.00278169
0.0111872
-0.00275287
0.011957
-0.00270493
0.0127631
-0.00264591
0.0136056
-0.00258626
0.0144811
-0.00253584
0.0153839
-0.00250196
0.0163065
-0.00248801
0.0172409
-0.00249351
0.0181796
-0.00251514
0.0191166
-0.002548
0.0200481
-0.0025866
0.0209723
-0.00262566
0.0218885
-0.002661
0.0227975
-0.00268962
0.0237009
-0.00270974
0.0246008
-0.00272061
0.0254996
-0.00272226
0.0263993
-0.00271536
0.0273017
-0.00270099
0.0282076
-0.00268052
0.0291174
-0.00265548
0.0300308
-0.00262738
0.030947
-0.00259769
0.0318653
-0.00256769
0.0327845
-0.00253851
0.0337035
-0.0025111
0.0346217
-0.00248625
0.0355382
-0.00246459
0.0364527
-0.00244657
0.0373649
-0.00243245
0.0382748
-0.00242227
0.0391822
-0.00241583
0.0400872
-0.00241271
0.0409893
-0.0024122
0.0418877
-0.00241339
0.0427813
-0.00241512
0.0436682
-0.00241611
0.0445457
-0.00241497
0.0454109
-0.00241029
0.0462602
-0.00240078
0.04709
-0.00238537
0.0478966
-0.00236334
0.0486772
-0.00233445
0.0494298
-0.00229904
0.0501538
-0.00225811
0.0508506
-0.00221337
0.0515234
-0.00216718
0.0521775
-0.00212241
0.0528195
-0.00208223
0.0534569
-0.00204971
0.0540966
-0.00202741
0.0547438
-0.00201682
0.0554015
-0.00201801
0.0560695
-0.00202937
0.0567448
-0.00204783
0.0574224
-0.00206917
0.0580967
-0.00208877
0.058763
-0.0021023
0.0594183
-0.00210643
0.0600626
-0.00209944
0.0606984
-0.00208164
0.0613307
-0.00205556
0.0619657
-0.00202556
0.0626099
-0.00199672
0.0632683
-0.00197269
0.0639426
-0.00195289
0.064628
-0.00193005
0.06531
-0.00188958
0.0659612
-0.00181239
0.0665409
-0.00168146
0.0669989
-0.00149034
0.0672859
-0.00124923
0.0673675
-0.000984288
0.0672387
-0.00072935
0.066932
-0.000515551
0.066518
-0.000366795
0.0660951
-0.000302625
0.0657686
-0.000342107
0.0656225
-0.000500307
0.0656925
-0.000776268
0.0659542
-0.00114111
0.0663412
-0.00153256
0.0667825
-0.00186417
0.0672349
-0.00205153
0.0676846
-0.00204661
0.06813
-0.00186438
0.0685617
-0.00158541
0.0689684
-0.00130454
0.0693543
-0.00107393
0.0697353
-0.00089864
0.070123
-0.000760239
0.0705194
-0.000640013
0.0709214
-0.000529447
0.0713304
-0.000428667
0.0717362
-0.000345773
0.0721474
-0.000282342
0.0725706
-0.000241279
0.0730131
-0.000223643
0.0734731
-0.000230132
0.0739428
-0.000258918
0.0744116
-0.00030548
0.0748709
-0.000367901
0.0753133
-0.00044069
0.0757603
-0.000514615
0.0762157
-0.000587559
0.0766905
-0.000651912
0.0771943
-0.000700124
0.077731
-0.000729024
0.0783018
-0.000737126
0.0789042
-0.000723851
0.0795317
-0.000690371
0.0801735
-0.000640032
0.0808176
-0.000579412
0.0814508
-0.000521288
0.0820654
-0.000481096
0.0826576
-0.000473938
0.0832265
-0.000509585
0.0837732
-0.000587737
0.0842945
-0.000697781
0.0847831
-0.000822227
0.0852332
-0.000941206
0.0856423
-0.00103894
0.0860128
-0.00110696
0.0863511
-0.00114454
0.086666
-0.00115676
0.0869665