/*--------------------------------*- C++ -*----------------------------------*\
| =========                 |                                                 |
| \\      /  F ield         | OpenFOAM: The Open Source CFD Toolbox           |
|  \\    /   O peration     | Version:  v2006                                 |
|   \\  /    A nd           | Website:  www.openfoam.com                      |
|    \\/     M anipulation  |                                                 |
\*---------------------------------------------------------------------------*/
FoamFile
{
    version     2.0;
    format      ascii;
    class       volVectorField;
    location    "0";
    object      U;
}
// * * * * * * * * * * * * * * * * * * * * * * * * * * * * * * * * * * * * * //

dimensions      [0 1 -1 0 0 0 0];


internalField   nonuniform List<vector> 
20000
(
(1 2.72369e-12 0)
(1 7.86395e-12 0)
(1 1.33515e-11 0)
(1 1.93383e-11 0)
(1 2.56974e-11 0)
(1 3.23523e-11 0)
(1 3.9316e-11 0)
(1 4.66525e-11 0)
(1 5.44521e-11 0)
(1 6.28341e-11 0)
(1 7.19594e-11 0)
(1 8.20257e-11 0)
(1 9.32724e-11 0)
(1 1.0597e-10 0)
(1 1.20411e-10 0)
(1 1.3691e-10 0)
(1 1.5579e-10 0)
(1 1.77377e-10 0)
(1 2.01978e-10 0)
(1 2.29862e-10 0)
(1 2.61238e-10 0)
(1 2.9623e-10 0)
(1 3.34857e-10 0)
(1 3.77002e-10 0)
(1 4.22396e-10 0)
(1 4.70603e-10 0)
(1 5.21006e-10 0)
(1 5.72817e-10 0)
(1 6.25093e-10 0)
(1 6.7677e-10 0)
(1 7.26717e-10 0)
(1 7.73792e-10 0)
(1 8.16914e-10 0)
(1 8.55143e-10 0)
(1 8.87754e-10 0)
(1 9.14289e-10 0)
(1 9.34597e-10 0)
(1 9.48835e-10 0)
(1 9.57438e-10 0)
(1 9.61054e-10 0)
(1 9.60463e-10 0)
(1 9.56485e-10 0)
(1 9.49896e-10 0)
(1 9.4137e-10 0)
(1 9.31439e-10 0)
(1 9.20478e-10 0)
(1 9.0871e-10 0)
(1 8.96229e-10 0)
(1 8.83012e-10 0)
(1 8.68955e-10 0)
(1 8.53883e-10 0)
(1 8.37573e-10 0)
(1 8.19779e-10 0)
(1 8.00246e-10 0)
(1 7.78725e-10 0)
(1 7.54973e-10 0)
(1 7.28744e-10 0)
(1 6.99796e-10 0)
(1 6.67888e-10 0)
(1 6.32764e-10 0)
(1 5.9415e-10 0)
(1 5.51851e-10 0)
(1 5.05848e-10 0)
(1 4.56393e-10 0)
(1 4.04086e-10 0)
(1 3.49862e-10 0)
(1 2.95078e-10 0)
(1 2.41033e-10 0)
(1 1.88851e-10 0)
(1 1.40796e-10 0)
(1 9.86337e-11 0)
(1 6.08262e-11 0)
(1 2.30484e-11 0)
(1 -4.42425e-11 0)
(1 -2.42687e-10 0)
(1 -6.70914e-10 0)
(1 -1.33739e-09 0)
(1 -2.23801e-09 0)
(1 -3.39387e-09 0)
(1 -4.84547e-09 0)
(1 -6.64857e-09 0)
(1 -8.87527e-09 0)
(1 -1.16128e-08 0)
(1 -1.49513e-08 0)
(1 -1.89687e-08 0)
(1 -2.37571e-08 0)
(1 -2.95403e-08 0)
(1 -3.67755e-08 0)
(1 -4.58004e-08 0)
(1 -5.56929e-08 0)
(1 -6.367e-08 0)
(1 -6.95545e-08 0)
(1 -8.65728e-08 0)
(1 -1.3951e-07 0)
(1 -2.09354e-07 0)
(1.00001 -1.57018e-07 0)
(1.00001 1.34711e-07 0)
(1.00001 5.14369e-07 0)
(1 8.65546e-07 0)
(1 1.13355e-06 0)
(1 1.32393e-06 0)
(0.999998 1.46103e-06 0)
(0.999996 1.56442e-06 0)
(0.999994 1.64487e-06 0)
(0.999992 1.70708e-06 0)
(0.999989 1.75311e-06 0)
(0.999987 1.78493e-06 0)
(0.999984 1.80574e-06 0)
(0.999981 1.82054e-06 0)
(0.999979 1.83606e-06 0)
(0.999976 1.85969e-06 0)
(0.999973 1.89764e-06 0)
(0.99997 1.95222e-06 0)
(0.999967 2.01879e-06 0)
(0.999965 2.08363e-06 0)
(0.999962 2.12425e-06 0)
(0.999959 2.11332e-06 0)
(0.999956 2.02528e-06 0)
(0.999953 1.84391e-06 0)
(0.99995 1.56719e-06 0)
(0.999947 1.20706e-06 0)
(0.999944 7.84986e-07 0)
(0.999941 3.25049e-07 0)
(0.999938 -1.50897e-07 0)
(0.999935 -6.24436e-07 0)
(0.999932 -1.07905e-06 0)
(0.999929 -1.49798e-06 0)
(0.999927 -1.8635e-06 0)
(0.999925 -2.15787e-06 0)
(0.999924 -2.3648e-06 0)
(0.999922 -2.47145e-06 0)
(0.999921 -2.47079e-06 0)
(0.99992 -2.36355e-06 0)
(0.99992 -2.16032e-06 0)
(0.99992 -1.89436e-06 0)
(0.99992 -1.63213e-06 0)
(0.999921 -1.4445e-06 0)
(0.999923 -1.33264e-06 0)
(0.999926 -1.27191e-06 0)
(0.99993 -1.22557e-06 0)
(0.999936 -1.14659e-06 0)
(0.999942 -9.8058e-07 0)
(0.99995 -6.70666e-07 0)
(0.999958 -1.64142e-07 0)
(0.999966 5.78012e-07 0)
(0.999972 1.56877e-06 0)
(0.999977 2.77007e-06 0)
(0.99998 4.02831e-06 0)
(0.99998 4.99275e-06 0)
(0.999979 5.52745e-06 0)
(0.999977 5.71912e-06 0)
(0.999974 5.66703e-06 0)
(0.999971 5.42464e-06 0)
(0.999968 5.01458e-06 0)
(0.999964 4.44931e-06 0)
(0.999959 3.74259e-06 0)
(0.999955 2.91248e-06 0)
(0.99995 1.98345e-06 0)
(0.999945 9.87724e-07 0)
(0.99994 -3.59468e-08 0)
(0.999935 -1.04392e-06 0)
(0.99993 -1.99009e-06 0)
(0.999925 -2.8294e-06 0)
(0.999921 -3.52196e-06 0)
(0.999917 -4.0371e-06 0)
(0.999914 -4.35658e-06 0)
(0.999911 -4.47623e-06 0)
(0.999909 -4.40541e-06 0)
(0.999908 -4.16531e-06 0)
(0.999907 -3.78644e-06 0)
(0.999906 -3.30894e-06 0)
(0.999906 -2.7886e-06 0)
(0.999906 -2.29568e-06 0)
(0.999907 -1.90972e-06 0)
(0.999908 -1.63524e-06 0)
(0.99991 -1.45129e-06 0)
(0.999914 -1.33071e-06 0)
(0.999918 -1.24333e-06 0)
(0.999923 -1.1612e-06 0)
(0.999928 -1.06593e-06 0)
(0.999933 -9.53356e-07 0)
(0.999938 -8.32522e-07 0)
(0.999942 -7.18982e-07 0)
(0.999946 -6.25926e-07 0)
(0.999949 -5.5871e-07 0)
(0.999953 -5.15213e-07 0)
(0.999956 -4.89357e-07 0)
(0.999959 -4.74176e-07 0)
(0.999962 -4.63475e-07 0)
(0.999965 -4.52598e-07 0)
(0.999968 -4.38605e-07 0)
(0.999971 -4.20034e-07 0)
(0.999973 -3.96505e-07 0)
(0.999976 -3.68343e-07 0)
(0.999978 -3.36277e-07 0)
(0.99998 -3.01118e-07 0)
(0.999982 -2.64035e-07 0)
(0.999984 -2.24405e-07 0)
(0.999985 -1.89573e-07 0)
(0.999987 -1.28406e-07 0)
(1 5.04382e-12 0)
(1 1.40105e-11 0)
(1 2.26748e-11 0)
(1 3.14287e-11 0)
(1 4.02512e-11 0)
(1 4.91348e-11 0)
(1 5.81446e-11 0)
(1 6.73795e-11 0)
(1 7.69568e-11 0)
(1 8.70081e-11 0)
(1 9.76816e-11 0)
(1 1.09127e-10 0)
(1 1.21505e-10 0)
(1 1.34986e-10 0)
(1 1.49743e-10 0)
(1 1.65956e-10 0)
(1 1.83797e-10 0)
(1 2.03434e-10 0)
(1 2.25018e-10 0)
(1 2.48677e-10 0)
(1 2.74511e-10 0)
(1 3.02581e-10 0)
(1 3.32892e-10 0)
(1 3.65385e-10 0)
(1 3.99945e-10 0)
(1 4.36403e-10 0)
(1 4.74539e-10 0)
(1 5.14103e-10 0)
(1 5.54812e-10 0)
(1 5.96374e-10 0)
(1 6.38511e-10 0)
(1 6.81e-10 0)
(1 7.23717e-10 0)
(1 7.66687e-10 0)
(1 8.10127e-10 0)
(1 8.54459e-10 0)
(1 9.00298e-10 0)
(1 9.4842e-10 0)
(1 9.99685e-10 0)
(1 1.05498e-09 0)
(1 1.11514e-09 0)
(1 1.18088e-09 0)
(1 1.25281e-09 0)
(1 1.33136e-09 0)
(1 1.41686e-09 0)
(1 1.50952e-09 0)
(1 1.60946e-09 0)
(1 1.71677e-09 0)
(1 1.83146e-09 0)
(1 1.9535e-09 4.65221e-43)
(1 2.08279e-09 5.02466e-43)
(1 2.21912e-09 0)
(1 2.36216e-09 0)
(1 2.51137e-09 0)
(1 2.66603e-09 0)
(1 2.82507e-09 0)
(1 2.98708e-09 0)
(1 3.15021e-09 0)
(1 3.31211e-09 0)
(1 3.46985e-09 0)
(1 3.61982e-09 0)
(1 3.75766e-09 0)
(1 3.87823e-09 0)
(1 3.97553e-09 0)
(1 4.04255e-09 0)
(1 4.07101e-09 0)
(1 4.0511e-09 0)
(1 3.97082e-09 0)
(1 3.81574e-09 0)
(1 3.57051e-09 0)
(1 3.21593e-09 0)
(1 2.72712e-09 0)
(1 2.07577e-09 0)
(1 1.21097e-09 0)
(1 1.46884e-11 0)
(1 -1.63707e-09 0)
(1 -3.81399e-09 0)
(1 -6.5969e-09 0)
(1 -1.01023e-08 0)
(1 -1.44768e-08 0)
(1 -1.98971e-08 0)
(1 -2.65742e-08 0)
(1 -3.47594e-08 0)
(1 -4.47434e-08 0)
(1 -5.68501e-08 0)
(1 -7.14388e-08 0)
(1 -8.89333e-08 0)
(1 -1.09849e-07 0)
(1 -1.34688e-07 0)
(1 -1.63631e-07 0)
(1 -1.96462e-07 0)
(1 -2.34167e-07 0)
(1 -2.82011e-07 0)
(1 -3.4645e-07 0)
(1 -4.09419e-07 0)
(1 -3.97249e-07 0)
(1.00001 -2.72154e-07 0)
(1.00001 -1.66808e-07 0)
(1.00001 -1.25283e-07 0)
(1.00002 -1.44679e-07 0)
(1.00002 -1.9564e-07 0)
(1.00003 -2.51266e-07 0)
(1.00004 -2.96543e-07 0)
(1.00004 -3.25333e-07 0)
(1.00005 -3.36173e-07 0)
(1.00005 -3.29855e-07 0)
(1.00006 -3.08819e-07 0)
(1.00007 -2.77702e-07 0)
(1.00007 -2.44119e-07 0)
(1.00008 -2.18799e-07 0)
(1.00008 -2.14311e-07 0)
(1.00009 -2.4172e-07 0)
(1.0001 -3.04931e-07 0)
(1.0001 -3.93927e-07 0)
(1.00011 -4.80133e-07 0)
(1.00012 -5.20245e-07 0)
(1.00012 -4.70586e-07 0)
(1.00013 -3.05727e-07 0)
(1.00014 -2.9033e-08 0)
(1.00014 3.33203e-07 0)
(1.00014 7.44914e-07 0)
(1.00014 1.17613e-06 0)
(1.00014 1.60715e-06 0)
(1.00013 2.02525e-06 0)
(1.00012 2.41832e-06 0)
(1.00011 2.7713e-06 0)
(1.00009 3.06667e-06 0)
(1.00008 3.28579e-06 0)
(1.00006 3.41062e-06 0)
(1.00004 3.42757e-06 0)
(1.00002 3.33112e-06 0)
(1.00001 3.1237e-06 0)
(0.99999 2.81336e-06 0)
(0.999975 2.4118e-06 0)
(0.999962 1.92462e-06 0)
(0.999952 1.34155e-06 0)
(0.999945 6.49935e-07 0)
(0.999941 -1.19706e-07 0)
(0.999939 -9.33531e-07 0)
(0.99994 -1.76001e-06 0)
(0.999944 -2.56816e-06 0)
(0.999951 -3.32641e-06 0)
(0.99996 -4.00216e-06 0)
(0.999973 -4.56161e-06 0)
(0.999988 -4.97075e-06 0)
(1.00001 -5.19703e-06 0)
(1.00003 -5.21893e-06 0)
(1.00006 -5.06888e-06 0)
(1.00009 -4.91713e-06 0)
(1.00012 -4.779e-06 0)
(1.00015 -4.55821e-06 0)
(1.00018 -4.19336e-06 0)
(1.00021 -3.66509e-06 0)
(1.00024 -2.97751e-06 0)
(1.00026 -2.14419e-06 0)
(1.00027 -1.18738e-06 0)
(1.00029 -1.32141e-07 0)
(1.00029 9.83709e-07 0)
(1.00029 2.1109e-06 0)
(1.00028 3.19956e-06 0)
(1.00027 4.19682e-06 0)
(1.00025 5.0506e-06 0)
(1.00022 5.71546e-06 0)
(1.00019 6.15845e-06 0)
(1.00016 6.36356e-06 0)
(1.00013 6.33345e-06 0)
(1.00009 6.08777e-06 0)
(1.00006 5.65884e-06 0)
(1.00003 5.08652e-06 0)
(1 4.41418e-06 0)
(0.999982 3.6826e-06 0)
(0.999963 2.92032e-06 0)
(0.999949 2.13931e-06 0)
(0.999938 1.33089e-06 0)
(0.999931 5.27361e-07 0)
(0.999927 -2.33514e-07 0)
(0.999926 -9.09061e-07 0)
(0.999926 -1.45136e-06 0)
(0.999929 -1.81876e-06 0)
(0.999932 -1.99431e-06 0)
(0.999936 -1.99851e-06 0)
(0.99994 -1.88628e-06 0)
(0.999943 -1.72701e-06 0)
(0.999947 -1.57816e-06 0)
(0.99995 -1.46938e-06 0)
(0.999953 -1.40443e-06 0)
(0.999956 -1.37261e-06 0)
(0.999959 -1.35866e-06 0)
(0.999962 -1.3481e-06 0)
(0.999965 -1.32999e-06 0)
(0.999968 -1.29769e-06 0)
(0.999971 -1.24835e-06 0)
(0.999973 -1.18192e-06 0)
(0.999976 -1.10011e-06 0)
(0.999978 -1.00563e-06 0)
(0.99998 -9.01249e-07 0)
(0.999982 -7.90699e-07 0)
(0.999984 -6.72261e-07 0)
(0.999985 -5.68038e-07 0)
(0.999987 -3.84796e-07 0)
(1 5.66281e-12 0)
(1 1.59643e-11 0)
(1 2.55768e-11 0)
(1 3.49618e-11 0)
(1 4.43308e-11 0)
(1 5.37812e-11 0)
(1 6.33816e-11 0)
(1 7.31958e-11 0)
(1 8.32982e-11 0)
(1 9.37597e-11 0)
(1 1.04635e-10 0)
(1 1.15953e-10 0)
(1 1.2773e-10 0)
(1 1.39985e-10 0)
(1 1.52738e-10 0)
(1 1.66021e-10 0)
(1 1.79871e-10 0)
(1 1.94337e-10 0)
(1 2.09486e-10 0)
(1 2.25422e-10 0)
(1 2.42289e-10 0)
(1 2.60273e-10 0)
(1 2.79602e-10 0)
(1 3.00552e-10 0)
(1 3.23455e-10 0)
(1 3.48715e-10 0)
(1 3.76812e-10 0)
(1 4.08303e-10 0)
(1 4.43799e-10 0)
(1 4.83954e-10 0)
(1 5.29435e-10 0)
(1 5.80913e-10 0)
(1 6.39051e-10 0)
(1 7.04498e-10 0)
(1 7.77884e-10 0)
(1 8.598e-10 0)
(1 9.50788e-10 0)
(1 1.05131e-09 0)
(1 1.16176e-09 0)
(1 1.28244e-09 0)
(1 1.41356e-09 0)
(1 1.55531e-09 0)
(1 1.70787e-09 0)
(1 1.87141e-09 0)
(1 2.04616e-09 0)
(1 2.23242e-09 0)
(1 2.43055e-09 0)
(1 2.64094e-09 0)
(1 2.86402e-09 0)
(1 3.10017e-09 0)
(1 3.34974e-09 0)
(1 3.61292e-09 0)
(1 3.88973e-09 0)
(1 4.17989e-09 0)
(1 4.48279e-09 0)
(1 4.79736e-09 0)
(1 5.12199e-09 0)
(1 5.45442e-09 0)
(1 5.79161e-09 0)
(1 6.12954e-09 0)
(1 6.46295e-09 0)
(1 6.78496e-09 0)
(1 7.08663e-09 0)
(1 7.35654e-09 0)
(1 7.5802e-09 0)
(1 7.73946e-09 0)
(1 7.81159e-09 0)
(1 7.7686e-09 0)
(1 7.57654e-09 0)
(1 7.19354e-09 0)
(1 6.56887e-09 0)
(1 5.64322e-09 0)
(1 4.34694e-09 0)
(1 2.60198e-09 0)
(1 3.27965e-10 0)
(1 -2.57631e-09 0)
(1 -6.26125e-09 0)
(1 -1.09146e-08 0)
(1 -1.67548e-08 0)
(1 -2.40358e-08 0)
(1 -3.30545e-08 0)
(1 -4.41617e-08 0)
(1 -5.77736e-08 0)
(1 -7.43796e-08 0)
(1 -9.45394e-08 0)
(1 -1.18865e-07 0)
(1 -1.47994e-07 0)
(1 -1.82584e-07 0)
(1 -2.23434e-07 0)
(1 -2.71787e-07 0)
(1 -3.29359e-07 0)
(1 -3.96731e-07 0)
(1 -4.69773e-07 0)
(1 -5.40438e-07 0)
(1 -6.15244e-07 0)
(1.00001 -7.39305e-07 0)
(1.00001 -9.48072e-07 0)
(1.00001 -1.19211e-06 0)
(1.00001 -1.41752e-06 0)
(1.00001 -1.59832e-06 0)
(1.00001 -1.73388e-06 0)
(1.00001 -1.83049e-06 0)
(1.00002 -1.89224e-06 0)
(1.00002 -1.91971e-06 0)
(1.00002 -1.91167e-06 0)
(1.00002 -1.86738e-06 0)
(1.00002 -1.78924e-06 0)
(1.00003 -1.68565e-06 0)
(1.00003 -1.57345e-06 0)
(1.00003 -1.47867e-06 0)
(1.00003 -1.4338e-06 0)
(1.00003 -1.46964e-06 0)
(1.00003 -1.60093e-06 0)
(1.00003 -1.80807e-06 0)
(1.00004 -2.02372e-06 0)
(1.00004 -2.13891e-06 0)
(1.00004 -2.03819e-06 0)
(1.00004 -1.6481e-06 0)
(1.00004 -9.66193e-07 0)
(1.00005 -5.18746e-08 0)
(1.00004 1.00751e-06 0)
(1.00004 2.13051e-06 0)
(1.00004 3.2595e-06 0)
(1.00003 4.35783e-06 0)
(1.00003 5.39507e-06 0)
(1.00002 6.33596e-06 0)
(1.00001 7.13855e-06 0)
(1 7.75613e-06 0)
(0.999993 8.14165e-06 0)
(0.999983 8.25729e-06 0)
(0.999973 8.0838e-06 0)
(0.999964 7.62188e-06 0)
(0.999955 6.88691e-06 0)
(0.999947 5.90445e-06 0)
(0.999941 4.71223e-06 0)
(0.999936 3.36254e-06 0)
(0.999933 1.91186e-06 0)
(0.999931 3.99317e-07 0)
(0.999932 -1.14564e-06 0)
(0.999935 -2.69753e-06 0)
(0.999939 -4.23336e-06 0)
(0.999946 -5.73218e-06 0)
(0.999955 -7.17376e-06 0)
(0.999965 -8.53702e-06 0)
(0.999977 -9.79825e-06 0)
(0.99999 -1.09286e-05 0)
(1 -1.18869e-05 0)
(1.00002 -1.26017e-05 0)
(1.00003 -1.2954e-05 0)
(1.00005 -1.288e-05 0)
(1.00006 -1.23871e-05 0)
(1.00008 -1.14969e-05 0)
(1.00009 -1.02221e-05 0)
(1.0001 -8.57527e-06 0)
(1.00011 -6.57922e-06 0)
(1.00012 -4.27412e-06 0)
(1.00012 -1.72013e-06 0)
(1.00012 1.00074e-06 0)
(1.00012 3.78496e-06 0)
(1.00011 6.51267e-06 0)
(1.0001 9.05174e-06 0)
(1.00009 1.12688e-05 0)
(1.00007 1.30434e-05 0)
(1.00006 1.42831e-05 0)
(1.00004 1.49366e-05 0)
(1.00002 1.49995e-05 0)
(1 1.45117e-05 0)
(0.999985 1.35469e-05 0)
(0.999969 1.22006e-05 0)
(0.999955 1.05788e-05 0)
(0.999944 8.78794e-06 0)
(0.999934 6.92567e-06 0)
(0.999927 5.07558e-06 0)
(0.999922 3.30578e-06 0)
(0.999919 1.65613e-06 0)
(0.999918 1.60989e-07 0)
(0.999919 -1.13129e-06 0)
(0.999922 -2.15611e-06 0)
(0.999926 -2.85413e-06 0)
(0.99993 -3.20482e-06 0)
(0.999934 -3.24924e-06 0)
(0.999939 -3.0856e-06 0)
(0.999943 -2.83542e-06 0)
(0.999946 -2.59855e-06 0)
(0.99995 -2.42627e-06 0)
(0.999953 -2.32534e-06 0)
(0.999956 -2.27807e-06 0)
(0.999959 -2.25909e-06 0)
(0.999962 -2.24449e-06 0)
(0.999965 -2.21624e-06 0)
(0.999968 -2.16352e-06 0)
(0.999971 -2.08182e-06 0)
(0.999973 -1.97126e-06 0)
(0.999976 -1.83484e-06 0)
(0.999978 -1.67717e-06 0)
(0.99998 -1.50297e-06 0)
(0.999982 -1.31847e-06 0)
(0.999984 -1.12085e-06 0)
(0.999985 -9.46962e-07 0)
(0.999987 -6.41369e-07 0)
(1 7.84116e-12 0)
(1 2.30367e-11 0)
(1 3.79717e-11 0)
(1 5.30138e-11 0)
(1 6.83678e-11 0)
(1 8.40889e-11 0)
(1 1.0021e-10 0)
(1 1.168e-10 0)
(1 1.33971e-10 0)
(1 1.51859e-10 0)
(1 1.70603e-10 0)
(1 1.90339e-10 0)
(1 2.11214e-10 0)
(1 2.33395e-10 0)
(1 2.5707e-10 0)
(1 2.82449e-10 0)
(1 3.09759e-10 0)
(1 3.39238e-10 0)
(1 3.71145e-10 0)
(1 4.05761e-10 0)
(1 4.43387e-10 0)
(1 4.84328e-10 0)
(1 5.28887e-10 0)
(1 5.77346e-10 0)
(1 6.29978e-10 0)
(1 6.87049e-10 0)
(1 7.4883e-10 0)
(1 8.15597e-10 0)
(1 8.87623e-10 0)
(1 9.65167e-10 0)
(1 1.04847e-09 0)
(1 1.13777e-09 0)
(1 1.23333e-09 0)
(1 1.33546e-09 0)
(1 1.44455e-09 0)
(1 1.56111e-09 0)
(1 1.68577e-09 0)
(1 1.81926e-09 0)
(1 1.96239e-09 0)
(1 2.116e-09 0)
(1 2.28099e-09 0)
(1 2.4582e-09 0)
(1 2.64849e-09 0)
(1 2.85265e-09 0)
(1 3.07144e-09 0)
(1 3.30559e-09 0)
(1 3.55578e-09 0)
(1 3.82265e-09 0)
(1 4.10677e-09 0)
(1 4.40862e-09 0)
(1 4.72856e-09 0)
(1 5.06673e-09 0)
(1 5.42298e-09 0)
(1 5.79681e-09 0)
(1 6.18724e-09 0)
(1 6.59267e-09 0)
(1 7.01081e-09 0)
(1 7.43842e-09 0)
(1 7.87123e-09 0)
(1 8.30361e-09 0)
(1 8.72829e-09 0)
(1 9.13591e-09 0)
(1 9.51456e-09 0)
(1 9.84932e-09 0)
(1 1.01217e-08 0)
(1 1.03088e-08 0)
(1 1.03823e-08 0)
(1 1.03073e-08 0)
(1 1.00405e-08 0)
(1 9.52779e-09 0)
(1 8.70367e-09 0)
(1 7.4883e-09 0)
(1 5.78263e-09 0)
(1 3.46669e-09 0)
(1 4.01412e-10 0)
(1 -3.58174e-09 0)
(1 -8.68926e-09 0)
(1 -1.51674e-08 0)
(1 -2.3311e-08 0)
(1 -3.34697e-08 0)
(1 -4.60564e-08 0)
(1 -6.15612e-08 0)
(1 -8.05673e-08 0)
(1 -1.03756e-07 0)
(1 -1.31895e-07 0)
(1 -1.65832e-07 0)
(1 -2.06507e-07 0)
(1 -2.54993e-07 0)
(1 -3.12456e-07 0)
(1 -3.79968e-07 0)
(1 -4.58353e-07 0)
(1 -5.48697e-07 0)
(1 -6.53742e-07 0)
(1 -7.77598e-07 0)
(1 -9.1939e-07 0)
(1.00001 -1.06487e-06 0)
(1.00001 -1.19199e-06 0)
(1.00001 -1.28756e-06 0)
(1.00001 -1.37209e-06 0)
(1.00001 -1.45924e-06 0)
(1.00001 -1.54908e-06 0)
(1.00001 -1.63146e-06 0)
(1.00002 -1.69343e-06 0)
(1.00002 -1.72397e-06 0)
(1.00002 -1.71557e-06 0)
(1.00002 -1.66473e-06 0)
(1.00002 -1.5732e-06 0)
(1.00003 -1.45056e-06 0)
(1.00003 -1.31694e-06 0)
(1.00003 -1.204e-06 0)
(1.00003 -1.15195e-06 0)
(1.00003 -1.19983e-06 0)
(1.00003 -1.36771e-06 0)
(1.00003 -1.6329e-06 0)
(1.00004 -1.91196e-06 0)
(1.00004 -2.06807e-06 0)
(1.00004 -1.95692e-06 0)
(1.00004 -1.49035e-06 0)
(1.00004 -6.72406e-07 0)
(1.00005 4.15547e-07 0)
(1.00004 1.66153e-06 0)
(1.00004 2.96687e-06 0)
(1.00004 4.26728e-06 0)
(1.00003 5.52555e-06 0)
(1.00003 6.70989e-06 0)
(1.00002 7.77997e-06 0)
(1.00001 8.68634e-06 0)
(1 9.37352e-06 0)
(0.999993 9.78533e-06 0)
(0.999983 9.87739e-06 0)
(0.999973 9.62932e-06 0)
(0.999963 9.04544e-06 0)
(0.999955 8.14567e-06 0)
(0.999947 6.95755e-06 0)
(0.99994 5.51482e-06 0)
(0.999935 3.85717e-06 0)
(0.999932 2.02948e-06 0)
(0.999931 7.86964e-08 0)
(0.999932 -1.94323e-06 0)
(0.999934 -3.98361e-06 0)
(0.999939 -5.9904e-06 0)
(0.999946 -7.91205e-06 0)
(0.999954 -9.69709e-06 0)
(0.999965 -1.12945e-05 0)
(0.999977 -1.26552e-05 0)
(0.99999 -1.37354e-05 0)
(1 -1.45017e-05 0)
(1.00002 -1.4935e-05 0)
(1.00003 -1.50153e-05 0)
(1.00005 -1.47321e-05 0)
(1.00007 -1.40605e-05 0)
(1.00008 -1.29683e-05 0)
(1.00009 -1.14366e-05 0)
(1.0001 -9.46778e-06 0)
(1.00011 -7.08717e-06 0)
(1.00012 -4.34346e-06 0)
(1.00012 -1.31242e-06 0)
(1.00012 1.908e-06 0)
(1.00012 5.19542e-06 0)
(1.00011 8.40403e-06 0)
(1.0001 1.13752e-05 0)
(1.00009 1.39501e-05 0)
(1.00007 1.59862e-05 0)
(1.00006 1.73759e-05 0)
(1.00004 1.80625e-05 0)
(1.00002 1.80471e-05 0)
(1 1.73835e-05 0)
(0.999984 1.6165e-05 0)
(0.999969 1.45087e-05 0)
(0.999955 1.25426e-05 0)
(0.999943 1.03904e-05 0)
(0.999934 8.15652e-06 0)
(0.999926 5.91902e-06 0)
(0.999922 3.73641e-06 0)
(0.999919 1.65578e-06 0)
(0.999918 -2.6705e-07 0)
(0.999919 -1.95247e-06 0)
(0.999922 -3.29709e-06 0)
(0.999925 -4.20585e-06 0)
(0.99993 -4.64106e-06 0)
(0.999934 -4.65575e-06 0)
(0.999939 -4.38718e-06 0)
(0.999943 -4.00737e-06 0)
(0.999946 -3.65684e-06 0)
(0.99995 -3.40562e-06 0)
(0.999953 -3.26009e-06 0)
(0.999956 -3.19276e-06 0)
(0.999959 -3.16634e-06 0)
(0.999962 -3.14633e-06 0)
(0.999965 -3.10699e-06 0)
(0.999968 -3.03305e-06 0)
(0.999971 -2.91826e-06 0)
(0.999973 -2.76286e-06 0)
(0.999976 -2.5712e-06 0)
(0.999978 -2.34981e-06 0)
(0.99998 -2.10532e-06 0)
(0.999982 -1.84653e-06 0)
(0.999984 -1.56948e-06 0)
(0.999985 -1.32574e-06 0)
(0.999987 -8.97657e-07 0)
(1 1.01436e-11 0)
(1 2.97258e-11 0)
(1 4.87862e-11 0)
(1 6.77021e-11 0)
(1 8.67534e-11 0)
(1 1.06048e-10 0)
(1 1.25657e-10 0)
(1 1.45688e-10 0)
(1 1.66306e-10 0)
(1 1.87691e-10 0)
(1 2.10014e-10 0)
(1 2.33422e-10 0)
(1 2.58056e-10 0)
(1 2.84067e-10 0)
(1 3.11617e-10 0)
(1 3.40884e-10 0)
(1 3.72054e-10 0)
(1 4.05321e-10 0)
(1 4.40904e-10 0)
(1 4.79051e-10 0)
(1 5.20044e-10 0)
(1 5.64193e-10 0)
(1 6.11825e-10 0)
(1 6.63285e-10 0)
(1 7.18952e-10 0)
(1 7.79259e-10 0)
(1 8.44711e-10 0)
(1 9.15889e-10 0)
(1 9.93432e-10 0)
(1 1.07802e-09 0)
(1 1.17036e-09 0)
(1 1.2712e-09 0)
(1 1.38131e-09 0)
(1 1.50156e-09 0)
(1 1.63289e-09 0)
(1 1.77635e-09 0)
(1 1.93305e-09 0)
(1 2.10415e-09 0)
(1 2.29079e-09 0)
(1 2.49403e-09 0)
(1 2.71485e-09 0)
(1 2.95414e-09 0)
(1 3.21266e-09 0)
(1 3.4911e-09 0)
(1 3.7901e-09 0)
(1 4.1103e-09 0)
(1 4.45233e-09 0)
(1 4.81681e-09 0)
(1 5.20434e-09 0)
(1 5.61547e-09 0)
(1 6.05059e-09 0)
(1 6.50985e-09 0)
(1 6.99305e-09 0)
(1 7.49949e-09 0)
(1 8.02786e-09 0)
(1 8.57603e-09 0)
(1 9.14086e-09 0)
(1 9.71804e-09 0)
(1 1.03018e-08 0)
(1 1.08847e-08 0)
(1 1.14569e-08 0)
(1 1.20061e-08 0)
(1 1.25163e-08 0)
(1 1.29679e-08 0)
(1 1.33361e-08 0)
(1 1.35906e-08 0)
(1 1.36937e-08 0)
(1 1.3599e-08 0)
(1 1.32495e-08 0)
(1 1.25757e-08 0)
(1 1.14936e-08 0)
(1 9.90079e-09 0)
(1 7.67402e-09 0)
(1 4.66674e-09 0)
(1 7.05877e-10 0)
(1 -4.41987e-09 0)
(1 -1.09731e-08 0)
(1 -1.92736e-08 0)
(1 -2.97036e-08 0)
(1 -4.27142e-08 0)
(1 -5.88347e-08 0)
(1 -7.86921e-08 0)
(1 -1.03034e-07 0)
(1 -1.32739e-07 0)
(1 -1.68806e-07 0)
(1 -2.12326e-07 0)
(1 -2.64468e-07 0)
(1 -3.26507e-07 0)
(1 -3.99916e-07 0)
(1 -4.86511e-07 0)
(1 -5.88403e-07 0)
(1 -7.07228e-07 0)
(1 -8.42431e-07 0)
(1 -9.90575e-07 0)
(1 -1.14975e-06 0)
(1.00001 -1.32775e-06 0)
(1.00001 -1.53824e-06 0)
(1.00001 -1.77933e-06 0)
(1.00001 -2.03834e-06 0)
(1.00001 -2.29163e-06 0)
(1.00001 -2.5177e-06 0)
(1.00001 -2.70092e-06 0)
(1.00002 -2.83073e-06 0)
(1.00002 -2.9003e-06 0)
(1.00002 -2.90547e-06 0)
(1.00002 -2.84523e-06 0)
(1.00002 -2.72417e-06 0)
(1.00003 -2.55685e-06 0)
(1.00003 -2.37208e-06 0)
(1.00003 -2.21474e-06 0)
(1.00003 -2.14172e-06 0)
(1.00003 -2.20857e-06 0)
(1.00003 -2.44459e-06 0)
(1.00003 -2.81949e-06 0)
(1.00004 -3.21667e-06 0)
(1.00004 -3.44292e-06 0)
(1.00004 -3.29202e-06 0)
(1.00004 -2.63502e-06 0)
(1.00005 -1.474e-06 0)
(1.00005 7.85914e-08 0)
(1.00005 1.86556e-06 0)
(1.00004 3.74722e-06 0)
(1.00004 5.63091e-06 0)
(1.00003 7.46162e-06 0)
(1.00003 9.19204e-06 0)
(1.00002 1.07632e-05 0)
(1.00001 1.21039e-05 0)
(1 1.31343e-05 0)
(0.999993 1.37733e-05 0)
(0.999983 1.39558e-05 0)
(0.999973 1.36511e-05 0)
(0.999963 1.28641e-05 0)
(0.999954 1.16229e-05 0)
(0.999946 9.97041e-06 0)
(0.99994 7.96309e-06 0)
(0.999935 5.66981e-06 0)
(0.999931 3.16514e-06 0)
(0.99993 5.19023e-07 0)
(0.999931 -2.20399e-06 0)
(0.999934 -4.9457e-06 0)
(0.999938 -7.65294e-06 0)
(0.999945 -1.02753e-05 0)
(0.999954 -1.27624e-05 0)
(0.999964 -1.5062e-05 0)
(0.999976 -1.71176e-05 0)
(0.999989 -1.88676e-05 0)
(1 -2.02444e-05 0)
(1.00002 -2.1174e-05 0)
(1.00003 -2.1574e-05 0)
(1.00005 -2.13813e-05 0)
(1.00007 -2.05552e-05 0)
(1.00008 -1.90756e-05 0)
(1.00009 -1.69403e-05 0)
(1.0001 -1.4167e-05 0)
(1.00011 -1.07977e-05 0)
(1.00012 -6.90227e-06 0)
(1.00012 -2.58616e-06 0)
(1.00012 2.01076e-06 0)
(1.00012 6.71299e-06 0)
(1.00011 1.13145e-05 0)
(1.0001 1.55904e-05 0)
(1.00009 1.93142e-05 0)
(1.00007 2.22813e-05 0)
(1.00006 2.4336e-05 0)
(1.00004 2.53937e-05 0)
(1.00002 2.54515e-05 0)
(1 2.45815e-05 0)
(0.999984 2.2913e-05 0)
(0.999968 2.06104e-05 0)
(0.999954 1.78558e-05 0)
(0.999942 1.48286e-05 0)
(0.999933 1.16863e-05 0)
(0.999926 8.55177e-06 0)
(0.999921 5.51775e-06 0)
(0.999918 2.65238e-06 0)
(0.999917 2.47935e-08 0)
(0.999918 -2.26656e-06 0)
(0.999921 -4.09035e-06 0)
(0.999925 -5.32412e-06 0)
(0.99993 -5.92039e-06 0)
(0.999934 -5.95243e-06 0)
(0.999939 -5.60649e-06 0)
(0.999943 -5.11474e-06 0)
(0.999947 -4.66486e-06 0)
(0.99995 -4.34787e-06 0)
(0.999953 -4.16952e-06 0)
(0.999956 -4.09194e-06 0)
(0.999959 -4.06565e-06 0)
(0.999962 -4.04558e-06 0)
(0.999965 -3.99858e-06 0)
(0.999968 -3.90534e-06 0)
(0.999971 -3.75828e-06 0)
(0.999974 -3.55815e-06 0)
(0.999976 -3.31091e-06 0)
(0.999978 -3.02524e-06 0)
(0.999981 -2.70986e-06 0)
(0.999982 -2.37616e-06 0)
(0.999984 -2.01913e-06 0)
(0.999985 -1.7051e-06 0)
(0.999987 -1.15407e-06 0)
(1 1.24238e-11 0)
(1 3.62897e-11 0)
(1 5.95099e-11 0)
(1 8.25997e-11 0)
(1 1.05938e-10 0)
(1 1.29686e-10 0)
(1 1.53938e-10 0)
(1 1.78828e-10 0)
(1 2.04551e-10 0)
(1 2.31323e-10 0)
(1 2.59347e-10 0)
(1 2.88809e-10 0)
(1 3.19893e-10 0)
(1 3.52808e-10 0)
(1 3.87785e-10 0)
(1 4.25084e-10 0)
(1 4.64987e-10 0)
(1 5.07797e-10 0)
(1 5.53849e-10 0)
(1 6.03522e-10 0)
(1 6.57237e-10 0)
(1 7.1545e-10 0)
(1 7.78629e-10 0)
(1 8.47254e-10 0)
(1 9.21824e-10 0)
(1 1.00288e-09 0)
(1 1.09099e-09 0)
(1 1.18681e-09 0)
(1 1.29099e-09 0)
(1 1.40421e-09 0)
(1 1.52713e-09 0)
(1 1.66041e-09 0)
(1 1.80474e-09 0)
(1 1.96086e-09 0)
(1 2.12963e-09 0)
(1 2.31201e-09 0)
(1 2.50904e-09 0)
(1 2.72187e-09 0)
(1 2.95168e-09 0)
(1 3.19963e-09 0)
(1 3.46685e-09 0)
(1 3.75444e-09 0)
(1 4.06341e-09 0)
(1 4.39473e-09 0)
(1 4.74937e-09 0)
(1 5.12828e-09 0)
(1 5.53245e-09 0)
(1 5.96282e-09 0)
(1 6.42029e-09 0)
(1 6.90566e-09 0)
(1 7.41955e-09 0)
(1 7.96227e-09 0)
(1 8.5337e-09 0)
(1 9.13315e-09 0)
(1 9.75917e-09 0)
(1 1.04094e-08 0)
(1 1.10803e-08 0)
(1 1.17669e-08 0)
(1 1.24626e-08 0)
(1 1.31587e-08 0)
(1 1.38439e-08 0)
(1 1.45036e-08 0)
(1 1.51191e-08 0)
(1 1.56666e-08 0)
(1 1.61169e-08 0)
(1 1.64332e-08 0)
(1 1.65704e-08 0)
(1 1.6472e-08 0)
(1 1.60692e-08 0)
(1 1.52771e-08 0)
(1 1.39921e-08 0)
(1 1.20888e-08 0)
(1 9.41631e-09 0)
(1 5.7941e-09 0)
(1 1.00809e-09 0)
(1 -5.20117e-09 0)
(1 -1.31526e-08 0)
(1 -2.32341e-08 0)
(1 -3.59103e-08 0)
(1 -5.17288e-08 0)
(1 -7.13327e-08 0)
(1 -9.54848e-08 0)
(1 -1.25097e-07 0)
(1 -1.6124e-07 0)
(1 -2.05128e-07 0)
(1 -2.58084e-07 0)
(1 -3.21557e-07 0)
(1 -3.97182e-07 0)
(1 -4.86822e-07 0)
(1 -5.9247e-07 0)
(1 -7.15973e-07 0)
(1 -8.5884e-07 0)
(1 -1.02247e-06 0)
(1 -1.20864e-06 0)
(1 -1.41914e-06 0)
(1 -1.65374e-06 0)
(1.00001 -1.90492e-06 0)
(1.00001 -2.1553e-06 0)
(1.00001 -2.39302e-06 0)
(1.00001 -2.61015e-06 0)
(1.00001 -2.79941e-06 0)
(1.00001 -2.95151e-06 0)
(1.00002 -3.05565e-06 0)
(1.00002 -3.10155e-06 0)
(1.00002 -3.08092e-06 0)
(1.00002 -2.9891e-06 0)
(1.00002 -2.82841e-06 0)
(1.00003 -2.6135e-06 0)
(1.00003 -2.37689e-06 0)
(1.00003 -2.17169e-06 0)
(1.00003 -2.06747e-06 0)
(1.00003 -2.13478e-06 0)
(1.00003 -2.41461e-06 0)
(1.00003 -2.87568e-06 0)
(1.00004 -3.37825e-06 0)
(1.00004 -3.68293e-06 0)
(1.00004 -3.532e-06 0)
(1.00004 -2.76805e-06 0)
(1.00005 -1.39968e-06 0)
(1.00005 4.26803e-07 0)
(1.00005 2.514e-06 0)
(1.00004 4.69236e-06 0)
(1.00004 6.85658e-06 0)
(1.00004 8.95041e-06 0)
(1.00003 1.09253e-05 0)
(1.00002 1.27157e-05 0)
(1.00001 1.42398e-05 0)
(1 1.54043e-05 0)
(0.999994 1.61127e-05 0)
(0.999983 1.62877e-05 0)
(0.999973 1.58947e-05 0)
(0.999963 1.49422e-05 0)
(0.999954 1.34648e-05 0)
(0.999946 1.15111e-05 0)
(0.999939 9.14228e-06 0)
(0.999934 6.43245e-06 0)
(0.999931 3.46241e-06 0)
(0.999929 3.12748e-07 0)
(0.99993 -2.93772e-06 0)
(0.999933 -6.2128e-06 0)
(0.999938 -9.4387e-06 0)
(0.999944 -1.25431e-05 0)
(0.999953 -1.5454e-05 0)
(0.999963 -1.80986e-05 0)
(0.999975 -2.04048e-05 0)
(0.999989 -2.2302e-05 0)
(1 -2.37236e-05 0)
(1.00002 -2.46071e-05 0)
(1.00003 -2.48911e-05 0)
(1.00005 -2.45256e-05 0)
(1.00007 -2.34703e-05 0)
(1.00008 -2.16942e-05 0)
(1.00009 -1.91828e-05 0)
(1.00011 -1.59466e-05 0)
(1.00011 -1.20279e-05 0)
(1.00012 -7.50594e-06 0)
(1.00012 -2.49856e-06 0)
(1.00012 2.83159e-06 0)
(1.00012 8.28075e-06 0)
(1.00011 1.36092e-05 0)
(1.0001 1.85531e-05 0)
(1.00009 2.28457e-05 0)
(1.00008 2.62461e-05 0)
(1.00006 2.85715e-05 0)
(1.00004 2.97248e-05 0)
(1.00002 2.97074e-05 0)
(1 2.86104e-05 0)
(0.999983 2.65907e-05 0)
(0.999967 2.38447e-05 0)
(0.999953 2.05872e-05 0)
(0.999941 1.70282e-05 0)
(0.999932 1.33464e-05 0)
(0.999925 9.67687e-06 0)
(0.99992 6.1167e-06 0)
(0.999917 2.73898e-06 0)
(0.999917 -3.77144e-07 0)
(0.999918 -3.11004e-06 0)
(0.999921 -5.28948e-06 0)
(0.999925 -6.75206e-06 0)
(0.99993 -7.42949e-06 0)
(0.999935 -7.4099e-06 0)
(0.999939 -6.92887e-06 0)
(0.999943 -6.28174e-06 0)
(0.999947 -5.70449e-06 0)
(0.99995 -5.30638e-06 0)
(0.999953 -5.08804e-06 0)
(0.999956 -4.99742e-06 0)
(0.999959 -4.97043e-06 0)
(0.999962 -4.95007e-06 0)
(0.999965 -4.89512e-06 0)
(0.999968 -4.78206e-06 0)
(0.999971 -4.60199e-06 0)
(0.999974 -4.3563e-06 0)
(0.999976 -4.05265e-06 0)
(0.999979 -3.70195e-06 0)
(0.999981 -3.31505e-06 0)
(0.999983 -2.90597e-06 0)
(0.999984 -2.46862e-06 0)
(0.999985 -2.08407e-06 0)
(0.999987 -1.40993e-06 0)
(1 1.46836e-11 0)
(1 4.28368e-11 0)
(1 7.02483e-11 0)
(1 9.75304e-11 0)
(1 1.25102e-10 0)
(1 1.53136e-10 0)
(1 1.81727e-10 0)
(1 2.11022e-10 0)
(1 2.4124e-10 0)
(1 2.72635e-10 0)
(1 3.05442e-10 0)
(1 3.39881e-10 0)
(1 3.76167e-10 0)
(1 4.14535e-10 0)
(1 4.5525e-10 0)
(1 4.98599e-10 0)
(1 5.4489e-10 0)
(1 5.9445e-10 0)
(1 6.47638e-10 0)
(1 7.04859e-10 0)
(1 7.66566e-10 0)
(1 8.33244e-10 0)
(1 9.05394e-10 0)
(1 9.83529e-10 0)
(1 1.06819e-09 0)
(1 1.15998e-09 0)
(1 1.25955e-09 0)
(1 1.36767e-09 0)
(1 1.48515e-09 0)
(1 1.61283e-09 0)
(1 1.75156e-09 0)
(1 1.90226e-09 0)
(1 2.06585e-09 0)
(1 2.24339e-09 0)
(1 2.43607e-09 0)
(1 2.64523e-09 0)
(1 2.87236e-09 0)
(1 3.11902e-09 0)
(1 3.38681e-09 0)
(1 3.6773e-09 0)
(1 3.99197e-09 0)
(1 4.3322e-09 0)
(1 4.69924e-09 0)
(1 5.09427e-09 0)
(1 5.51839e-09 0)
(1 5.97268e-09 0)
(1 6.4582e-09 0)
(1 6.97598e-09 0)
(1 7.52699e-09 0)
(1 8.11206e-09 -2.30161e-43)
(1 8.73184e-09 -2.48596e-43)
(1 9.38658e-09 0)
(1 1.00761e-08 0)
(1 1.07993e-08 0)
(1 1.15546e-08 0)
(1 1.23388e-08 0)
(1 1.31476e-08 0)
(1 1.3975e-08 0)
(1 1.48128e-08 0)
(1 1.56505e-08 0)
(1 1.64744e-08 0)
(1 1.72668e-08 0)
(1 1.80054e-08 0)
(1 1.86619e-08 0)
(1 1.92017e-08 0)
(1 1.95817e-08 0)
(1 1.97486e-08 0)
(1 1.96366e-08 0)
(1 1.91648e-08 0)
(1 1.8234e-08 0)
(1 1.67233e-08 0)
(1 1.44863e-08 0)
(1 1.13464e-08 0)
(1 7.09255e-09 0)
(1 1.47336e-09 0)
(1 -5.81585e-09 0)
(1 -1.51497e-08 0)
(1 -2.69855e-08 0)
(1 -4.18716e-08 0)
(1 -6.0453e-08 0)
(1 -8.34843e-08 0)
(1 -1.11861e-07 0)
(1 -1.46655e-07 0)
(1 -1.89135e-07 0)
(1 -2.40743e-07 0)
(1 -3.03045e-07 0)
(1 -3.77728e-07 0)
(1 -4.66659e-07 0)
(1 -5.71996e-07 0)
(1 -6.96235e-07 0)
(1 -8.42068e-07 0)
(1 -1.01188e-06 0)
(1 -1.20692e-06 0)
(1 -1.42669e-06 0)
(1 -1.66974e-06 0)
(1 -1.93588e-06 0)
(1.00001 -2.22506e-06 0)
(1.00001 -2.53233e-06 0)
(1.00001 -2.84981e-06 0)
(1.00001 -3.16272e-06 0)
(1.00001 -3.45065e-06 0)
(1.00001 -3.69212e-06 0)
(1.00002 -3.86838e-06 0)
(1.00002 -3.96516e-06 0)
(1.00002 -3.97276e-06 0)
(1.00002 -3.88645e-06 0)
(1.00002 -3.70984e-06 0)
(1.00003 -3.46128e-06 0)
(1.00003 -3.181e-06 0)
(1.00003 -2.93487e-06 0)
(1.00003 -2.81017e-06 0)
(1.00003 -2.8972e-06 0)
(1.00003 -3.25175e-06 0)
(1.00003 -3.84039e-06 0)
(1.00004 -4.49139e-06 0)
(1.00004 -4.90243e-06 0)
(1.00004 -4.74442e-06 0)
(1.00004 -3.81538e-06 0)
(1.00005 -2.12727e-06 0)
(1.00005 1.33481e-07 0)
(1.00005 2.71721e-06 0)
(1.00004 5.41264e-06 0)
(1.00004 8.09242e-06 0)
(1.00004 1.06913e-05 0)
(1.00003 1.31514e-05 0)
(1.00002 1.53912e-05 0)
(1.00001 1.73089e-05 0)
(1 1.87879e-05 0)
(0.999994 1.97062e-05 0)
(0.999983 1.99652e-05 0)
(0.999973 1.95217e-05 0)
(0.999962 1.83872e-05 0)
(0.999953 1.66056e-05 0)
(0.999945 1.42378e-05 0)
(0.999938 1.13621e-05 0)
(0.999933 8.07335e-06 0)
(0.99993 4.47432e-06 0)
(0.999928 6.652e-07 0)
(0.999929 -3.25947e-06 0)
(0.999932 -7.21213e-06 0)
(0.999936 -1.11116e-05 0)
(0.999943 -1.48802e-05 0)
(0.999952 -1.84401e-05 0)
(0.999962 -2.17113e-05 0)
(0.999975 -2.46096e-05 0)
(0.999988 -2.70467e-05 0)
(1 -2.89318e-05 0)
(1.00002 -3.01721e-05 0)
(1.00003 -3.06759e-05 0)
(1.00005 -3.03645e-05 0)
(1.00007 -2.91778e-05 0)
(1.00008 -2.7076e-05 0)