/*--------------------------------*- C++ -*----------------------------------*\
| =========                 |                                                 |
| \\      /  F ield         | OpenFOAM: The Open Source CFD Toolbox           |
|  \\    /   O peration     | Version:  v2006                                 |
|   \\  /    A nd           | Website:  www.openfoam.com                      |
|    \\/     M anipulation  |                                                 |
\*---------------------------------------------------------------------------*/
FoamFile
{
    version     2.0;
    format      ascii;
    class       volVectorField;
    location    "0";
    object      U_new;
}
// * * * * * * * * * * * * * * * * * * * * * * * * * * * * * * * * * * * * * //

dimensions      [0 1 -1 0 0 0 0];


internalField   nonuniform List<vector> 
2500
(
(0.00064 -0.0512 0)
(0.00064 -0.1536 0)
(0.00064 -0.256 0)
(0.00064 -0.3584 0)
(0.00064 -0.4608 0)
(0.00064 -0.5632 0)
(0.00064 -0.6656 0)
(0.00064 -0.768 0)
(0.00064 -0.8704 0)
(0.00064 -0.9728 0)
(0.00064 -1.0752 0)
(0.00064 -1.1776 0)
(0.00064 -1.28 0)
(0.00064 -1.3824 0)
(0.00064 -1.4848 0)
(0.00064 -1.5872 0)
(0.00064 -1.6896 0)
(0.00064 -1.792 0)
(0.00064 -1.8944 0)
(0.00064 -1.9968 0)
(0.00064 -2.0992 0)
(0.00064 -2.2016 0)
(0.00064 -2.304 0)
(0.00064 -2.4064 0)
(0.00064 -2.5088 0)
(0.00064 -2.6112 0)
(0.00064 -2.7136 0)
(0.00064 -2.816 0)
(0.00064 -2.9184 0)
(0.00064 -3.0208 0)
(0.00064 -3.1232 0)
(0.00064 -3.2256 0)
(0.00064 -3.328 0)
(0.00064 -3.4304 0)
(0.00064 -3.5328 0)
(0.00064 -3.6352 0)
(0.00064 -3.7376 0)
(0.00064 -3.84 0)
(0.00064 -3.9424 0)
(0.00064 -4.0448 0)
(0.00064 -4.1472 0)
(0.00064 -4.2496 0)
(0.00064 -4.352 0)
(0.00064 -4.4544 0)
(0.00064 -4.5568 0)
(0.00064 -4.6592 0)
(0.00064 -4.7616 0)
(0.00064 -4.864 0)
(0.00064 -4.9664 0)
(0.00064 -5.0688 0)
(0.00576 -0.0512 0)
(0.00576 -0.1536 0)
(0.00576 -0.256 0)
(0.00576 -0.3584 0)
(0.00576 -0.4608 0)
(0.00576 -0.5632 0)
(0.00576 -0.6656 0)
(0.00576 -0.768 0)
(0.00576 -0.8704 0)
(0.00576 -0.9728 0)
(0.00576 -1.0752 0)
(0.00576 -1.1776 0)
(0.00576 -1.28 0)
(0.00576 -1.3824 0)
(0.00576 -1.4848 0)
(0.00576 -1.5872 0)
(0.00576 -1.6896 0)
(0.00576 -1.792 0)
(0.00576 -1.8944 0)
(0.00576 -1.9968 0)
(0.00576 -2.0992 0)
(0.00576 -2.2016 0)
(0.00576 -2.304 0)
(0.00576 -2.4064 0)
(0.00576 -2.5088 0)
(0.00576 -2.6112 0)
(0.00576 -2.7136 0)
(0.00576 -2.816 0)
(0.00576 -2.9184 0)
(0.00576 -3.0208 0)
(0.00576 -3.1232 0)
(0.00576 -3.2256 0)
(0.00576 -3.328 0)
(0.00576 -3.4304 0)
(0.00576 -3.5328 0)
(0.00576 -3.6352 0)
(0.00576 -3.7376 0)
(0.00576 -3.84 0)
(0.00576 -3.9424 0)
(0.00576 -4.0448 0)
(0.00576 -4.1472 0)
(0.00576 -4.2496 0)
(0.00576 -4.352 0)
(0.00576 -4.4544 0)
(0.00576 -4.5568 0)
(0.00576 -4.6592 0)
(0.00576 -4.7616 0)
(0.00576 -4.864 0)
(0.00576 -4.9664 0)
(0.00576 -5.0688 0)
(0.016 -0.0512 0)
(0.016 -0.1536 0)
(0.016 -0.256 0)
(0.016 -0.3584 0)
(0.016 -0.4608 0)
(0.016 -0.5632 0)
(0.016 -0.6656 0)
(0.016 -0.768 0)
(0.016 -0.8704 0)
(0.016 -0.9728 0)
(0.016 -1.0752 0)
(0.016 -1.1776 0)
(0.016 -1.28 0)
(0.016 -1.3824 0)
(0.016 -1.4848 0)
(0.016 -1.5872 0)
(0.016 -1.6896 0)
(0.016 -1.792 0)
(0.016 -1.8944 0)
(0.016 -1.9968 0)
(0.016 -2.0992 0)
(0.016 -2.2016 0)
(0.016 -2.304 0)
(0.016 -2.4064 0)
(0.016 -2.5088 0)
(0.016 -2.6112 0)
(0.016 -2.7136 0)
(0.016 -2.816 0)
(0.016 -2.9184 0)
(0.016 -3.0208 0)
(0.016 -3.1232 0)
(0.016 -3.2256 0)
(0.016 -3.328 0)
(0.016 -3.4304 0)
(0.016 -3.5328 0)
(0.016 -3.6352 0)
(0.016 -3.7376 0)
(0.016 -3.84 0)
(0.016 -3.9424 0)
(0.016 -4.0448 0)
(0.016 -4.1472 0)
(0.016 -4.2496 0)
(0.016 -4.352 0)
(0.016 -4.4544 0)
(0.016 -4.5568 0)
(0.016 -4.6592 0)
(0.016 -4.7616 0)
(0.016 -4.864 0)
(0.016 -4.9664 0)
(0.016 -5.0688 0)
(0.03136 -0.0512 0)
(0.03136 -0.1536 0)
(0.03136 -0.256 0)
(0.03136 -0.3584 0)
(0.03136 -0.4608 0)
(0.03136 -0.5632 0)
(0.03136 -0.6656 0)
(0.03136 -0.768 0)
(0.03136 -0.8704 0)
(0.03136 -0.9728 0)
(0.03136 -1.0752 0)
(0.03136 -1.1776 0)
(0.03136 -1.28 0)
(0.03136 -1.3824 0)
(0.03136 -1.4848 0)
(0.03136 -1.5872 0)
(0.03136 -1.6896 0)
(0.03136 -1.792 0)
(0.03136 -1.8944 0)
(0.03136 -1.9968 0)
(0.03136 -2.0992 0)
(0.03136 -2.2016 0)
(0.03136 -2.304 0)
(0.03136 -2.4064 0)
(0.03136 -2.5088 0)
(0.03136 -2.6112 0)
(0.03136 -2.7136 0)
(0.03136 -2.816 0)
(0.03136 -2.9184 0)
(0.03136 -3.0208 0)
(0.03136 -3.1232 0)
(0.03136 -3.2256 0)
(0.03136 -3.328 0)
(0.03136 -3.4304 0)
(0.03136 -3.5328 0)
(0.03136 -3.6352 0)
(0.03136 -3.7376 0)
(0.03136 -3.84 0)
(0.03136 -3.9424 0)
(0.03136 -4.0448 0)
(0.03136 -4.1472 0)
(0.03136 -4.2496 0)
(0.03136 -4.352 0)
(0.03136 -4.4544 0)
(0.03136 -4.5568 0)
(0.03136 -4.6592 0)
(0.03136 -4.7616 0)
(0.03136 -4.864 0)
(0.03136 -4.9664 0)
(0.03136 -5.0688 0)
(0.05184 -0.0512 0)
(0.05184 -0.1536 0)
(0.05184 -0.256 0)
(0.05184 -0.3584 0)
(0.05184 -0.4608 0)
(0.05184 -0.5632 0)
(0.05184 -0.6656 0)
(0.05184 -0.768 0)
(0.05184 -0.8704 0)
(0.05184 -0.9728 0)
(0.05184 -1.0752 0)
(0.05184 -1.1776 0)
(0.05184 -1.28 0)
(0.05184 -1.3824 0)
(0.05184 -1.4848 0)
(0.05184 -1.5872 0)
(0.05184 -1.6896 0)
(0.05184 -1.792 0)
(0.05184 -1.8944 0)
(0.05184 -1.9968 0)
(0.05184 -2.0992 0)
(0.05184 -2.2016 0)
(0.05184 -2.304 0)
(0.05184 -2.4064 0)
(0.05184 -2.5088 0)
(0.05184 -2.6112 0)
(0.05184 -2.7136 0)
(0.05184 -2.816 0)
(0.05184 -2.9184 0)
(0.05184 -3.0208 0)
(0.05184 -3.1232 0)
(0.05184 -3.2256 0)
(0.05184 -3.328 0)
(0.05184 -3.4304 0)
(0.05184 -3.5328 0)
(0.05184 -3.6352 0)
(0.05184 -3.7376 0)
(0.05184 -3.84 0)
(0.05184 -3.9424 0)
(0.05184 -4.0448 0)
(0.05184 -4.1472 0)
(0.05184 -4.2496 0)
(0.05184 -4.352 0)
(0.05184 -4.4544 0)
(0.05184 -4.5568 0)
(0.05184 -4.6592 0)
(0.05184 -4.7616 0)
(0.05184 -4.864 0)
(0.05184 -4.9664 0)
(0.05184 -5.0688 0)
(0.07744 -0.0512 0)
(0.07744 -0.1536 0)
(0.07744 -0.256 0)
(0.07744 -0.3584 0)
(0.07744 -0.4608 0)
(0.07744 -0.5632 0)
(0.07744 -0.6656 0)
(0.07744 -0.768 0)
(0.07744 -0.8704 0)
(0.07744 -0.9728 0)
(0.07744 -1.0752 0)
(0.07744 -1.1776 0)
(0.07744 -1.28 0)
(0.07744 -1.3824 0)
(0.07744 -1.4848 0)
(0.07744 -1.5872 0)
(0.07744 -1.6896 0)
(0.07744 -1.792 0)
(0.07744 -1.8944 0)
(0.07744 -1.9968 0)
(0.07744 -2.0992 0)
(0.07744 -2.2016 0)
(0.07744 -2.304 0)
(0.07744 -2.4064 0)
(0.07744 -2.5088 0)
(0.07744 -2.6112 0)
(0.07744 -2.7136 0)
(0.07744 -2.816 0)
(0.07744 -2.9184 0)
(0.07744 -3.0208 0)
(0.07744 -3.1232 0)
(0.07744 -3.2256 0)
(0.07744 -3.328 0)
(0.07744 -3.4304 0)
(0.07744 -3.5328 0)
(0.07744 -3.6352 0)
(0.07744 -3.7376 0)
(0.07744 -3.84 0)
(0.07744 -3.9424 0)
(0.07744 -4.0448 0)
(0.07744 -4.1472 0)
(0.07744 -4.2496 0)
(0.07744 -4.352 0)
(0.07744 -4.4544 0)
(0.07744 -4.5568 0)
(0.07744 -4.6592 0)
(0.07744 -4.7616 0)
(0.07744 -4.864 0)
(0.07744 -4.9664 0)
(0.07744 -5.0688 0)
(0.10816 -0.0512 0)
(0.10816 -0.1536 0)
(0.10816 -0.256 0)
(0.10816 -0.3584 0)
(0.10816 -0.4608 0)
(0.10816 -0.5632 0)
(0.10816 -0.6656 0)
(0.10816 -0.768 0)
(0.10816 -0.8704 0)
(0.10816 -0.9728 0)
(0.10816 -1.0752 0)
(0.10816 -1.1776 0)
(0.10816 -1.28 0)
(0.10816 -1.3824 0)
(0.10816 -1.4848 0)
(0.10816 -1.5872 0)
(0.10816 -1.6896 0)
(0.10816 -1.792 0)
(0.10816 -1.8944 0)
(0.10816 -1.9968 0)
(0.10816 -2.0992 0)
(0.10816 -2.2016 0)
(0.10816 -2.304 0)
(0.10816 -2.4064 0)
(0.10816 -2.5088 0)
(0.10816 -2.6112 0)
(0.10816 -2.7136 0)
(0.10816 -2.816 0)
(0.10816 -2.9184 0)
(0.10816 -3.0208 0)
(0.10816 -3.1232 0)
(0.10816 -3.2256 0)
(0.10816 -3.328 0)
(0.10816 -3.4304 0)
(0.10816 -3.5328 0)
(0.10816 -3.6352 0)
(0.10816 -3.7376 0)
(0.10816 -3.84 0)
(0.10816 -3.9424 0)
(0.10816 -4.0448 0)
(0.10816 -4.1472 0)
(0.10816 -4.2496 0)
(0.10816 -4.352 0)
(0.10816 -4.4544 0)
(0.10816 -4.5568 0)
(0.10816 -4.6592 0)
(0.10816 -4.7616 0)
(0.10816 -4.864 0)
(0.10816 -4.9664 0)
(0.10816 -5.0688 0)
(0.144 -0.0512 0)
(0.144 -0.1536 0)
(0.144 -0.256 0)
(0.144 -0.3584 0)
(0.144 -0.4608 0)
(0.144 -0.5632 0)
(0.144 -0.6656 0)
(0.144 -0.768 0)
(0.144 -0.8704 0)
(0.144 -0.9728 0)
(0.144 -1.0752 0)
(0.144 -1.1776 0)
(0.144 -1.28 0)
(0.144 -1.3824 0)
(0.144 -1.4848 0)
(0.144 -1.5872 0)
(0.144 -1.6896 0)
(0.144 -1.792 0)
(0.144 -1.8944 0)
(0.144 -1.9968 0)
(0.144 -2.0992 0)
(0.144 -2.2016 0)
(0.144 -2.304 0)
(0.144 -2.4064 0)
(0.144 -2.5088 0)
(0.144 -2.6112 0)
(0.144 -2.7136 0)
(0.144 -2.816 0)
(0.144 -2.9184 0)
(0.144 -3.0208 0)
(0.144 -3.1232 0)
(0.144 -3.2256 0)
(0.144 -3.328 0)
(0.144 -3.4304 0)
(0.144 -3.5328 0)
(0.144 -3.6352 0)
(0.144 -3.7376 0)
(0.144 -3.84 0)
(0.144 -3.9424 0)
(0.144 -4.0448 0)
(0.144 -4.1472 0)
(0.144 -4.2496 0)
(0.144 -4.352 0)
(0.144 -4.4544 0)
(0.144 -4.5568 0)
(0.144 -4.6592 0)
(0.144 -4.7616 0)
(0.144 -4.864 0)
(0.144 -4.9664 0)
(0.144 -5.0688 0)
(0.18496 -0.0512 0)
(0.18496 -0.1536 0)
(0.18496 -0.256 0)
(0.18496 -0.3584 0)
(0.18496 -0.4608 0)
(0.18496 -0.5632 0)
(0.18496 -0.6656 0)
(0.18496 -0.768 0)
(0.18496 -0.8704 0)
(0.18496 -0.9728 0)
(0.18496 -1.0752 0)
(0.18496 -1.1776 0)
(0.18496 -1.28 0)
(0.18496 -1.3824 0)
(0.18496 -1.4848 0)
(0.18496 -1.5872 0)
(0.18496 -1.6896 0)
(0.18496 -1.792 0)
(0.18496 -1.8944 0)
(0.18496 -1.9968 0)
(0.18496 -2.0992 0)
(0.18496 -2.2016 0)
(0.18496 -2.304 0)
(0.18496 -2.4064 0)
(0.18496 -2.5088 0)
(0.18496 -2.6112 0)
(0.18496 -2.7136 0)
(0.18496 -2.816 0)
(0.18496 -2.9184 0)
(0.18496 -3.0208 0)
(0.18496 -3.1232 0)
(0.18496 -3.2256 0)
(0.18496 -3.328 0)
(0.18496 -3.4304 0)
(0.18496 -3.5328 0)
(0.18496 -3.6352 0)
(0.18496 -3.7376 0)
(0.18496 -3.84 0)
(0.18496 -3.9424 0)
(0.18496 -4.0448 0)
(0.18496 -4.1472 0)
(0.18496 -4.2496 0)
(0.18496 -4.352 0)
(0.18496 -4.4544 0)
(0.18496 -4.5568 0)
(0.18496 -4.6592 0)
(0.18496 -4.7616 0)
(0.18496 -4.864 0)
(0.18496 -4.9664 0)
(0.18496 -5.0688 0)
(0.23104 -0.0512 0)
(0.23104 -0.1536 0)
(0.23104 -0.256 0)
(0.23104 -0.3584 0)
(0.23104 -0.4608 0)
(0.23104 -0.5632 0)
(0.23104 -0.6656 0)
(0.23104 -0.768 0)
(0.23104 -0.8704 0)
(0.23104 -0.9728 0)
(0.23104 -1.0752 0)
(0.23104 -1.1776 0)
(0.23104 -1.28 0)
(0.23104 -1.3824 0)
(0.23104 -1.4848 0)
(0.23104 -1.5872 0)
(0.23104 -1.6896 0)
(0.23104 -1.792 0)
(0.23104 -1.8944 0)
(0.23104 -1.9968 0)
(0.23104 -2.0992 0)
(0.23104 -2.2016 0)
(0.23104 -2.304 0)
(0.23104 -2.4064 0)
(0.23104 -2.5088 0)
(0.23104 -2.6112 0)
(0.23104 -2.7136 0)
(0.23104 -2.816 0)
(0.23104 -2.9184 0)
(0.23104 -3.0208 0)
(0.23104 -3.1232 0)
(0.23104 -3.2256 0)
(0.23104 -3.328 0)
(0.23104 -3.4304 0)
(0.23104 -3.5328 0)
(0.23104 -3.6352 0)
(0.23104 -3.7376 0)
(0.23104 -3.84 0)
(0.23104 -3.9424 0)
(0.23104 -4.0448 0)
(0.23104 -4.1472 0)
(0.23104 -4.2496 0)
(0.23104 -4.352 0)
(0.23104 -4.4544 0)
(0.23104 -4.5568 0)
(0.23104 -4.6592 0)
(0.23104 -4.7616 0)
(0.23104 -4.864 0)
(0.23104 -4.9664 0)
(0.23104 -5.0688 0)
(0.28224 -0.0512 0)
(0.28224 -0.1536 0)
(0.28224 -0.256 0)
(0.28224 -0.3584 0)
(0.28224 -0.4608 0)
(0.28224 -0.5632 0)
(0.28224 -0.6656 0)
(0.28224 -0.768 0)
(0.28224 -0.8704 0)
(0.28224 -0.9728 0)
(0.28224 -1.0752 0)
(0.28224 -1.1776 0)
(0.28224 -1.28 0)
(0.28224 -1.3824 0)
(0.28224 -1.4848 0)
(0.28224 -1.5872 0)
(0.28224 -1.6896 0)
(0.28224 -1.792 0)
(0.28224 -1.8944 0)
(0.28224 -1.9968 0)
(0.28224 -2.0992 0)
(0.28224 -2.2016 0)
(0.28224 -2.304 0)
(0.28224 -2.4064 0)
(0.28224 -2.5088 0)
(0.28224 -2.6112 0)
(0.28224 -2.7136 0)
(0.28224 -2.816 0)
(0.28224 -2.9184 0)
(0.28224 -3.0208 0)
(0.28224 -3.1232 0)
(0.28224 -3.2256 0)
(0.28224 -3.328 0)
(0.28224 -3.4304 0)
(0.28224 -3.5328 0)
(0.28224 -3.6352 0)
(0.28224 -3.7376 0)
(0.28224 -3.84 0)
(0.28224 -3.9424 0)
(0.28224 -4.0448 0)
(0.28224 -4.1472 0)
(0.28224 -4.2496 0)
(0.28224 -4.352 0)
(0.28224 -4.4544 0)
(0.28224 -4.5568 0)
(0.28224 -4.6592 0)
(0.28224 -4.7616 0)
(0.28224 -4.864 0)
(0.28224 -4.9664 0)
(0.28224 -5.0688 0)
(0.33856 -0.0512 0)
(0.33856 -0.1536 0)
(0.33856 -0.256 0)
(0.33856 -0.3584 0)
(0.33856 -0.4608 0)
(0.33856 -0.5632 0)
(0.33856 -0.6656 0)
(0.33856 -0.768 0)
(0.33856 -0.8704 0)
(0.33856 -0.9728 0)
(0.33856 -1.0752 0)
(0.33856 -1.1776 0)
(0.33856 -1.28 0)
(0.33856 -1.3824 0)
(0.33856 -1.4848 0)
(0.33856 -1.5872 0)
(0.33856 -1.6896 0)
(0.33856 -1.792 0)
(0.33856 -1.8944 0)
(0.33856 -1.9968 0)
(0.33856 -2.0992 0)
(0.33856 -2.2016 0)
(0.33856 -2.304 0)
(0.33856 -2.4064 0)
(0.33856 -2.5088 0)
(0.33856 -2.6112 0)
(0.33856 -2.7136 0)
(0.33856 -2.816 0)
(0.33856 -2.9184 0)
(0.33856 -3.0208 0)
(0.33856 -3.1232 0)
(0.33856 -3.2256 0)
(0.33856 -3.328 0)
(0.33856 -3.4304 0)
(0.33856 -3.5328 0)
(0.33856 -3.6352 0)
(0.33856 -3.7376 0)
(0.33856 -3.84 0)
(0.33856 -3.9424 0)
(0.33856 -4.0448 0)
(0.33856 -4.1472 0)
(0.33856 -4.2496 0)
(0.33856 -4.352 0)
(0.33856 -4.4544 0)
(0.33856 -4.5568 0)
(0.33856 -4.6592 0)
(0.33856 -4.7616 0)
(0.33856 -4.864 0)
(0.33856 -4.9664 0)
(0.33856 -5.0688 0)
(0.4 -0.0512 0)
(0.4 -0.1536 0)
(0.4 -0.256 0)
(0.4 -0.3584 0)
(0.4 -0.4608 0)
(0.4 -0.5632 0)
(0.4 -0.6656 0)
(0.4 -0.768 0)
(0.4 -0.8704 0)
(0.4 -0.9728 0)
(0.4 -1.0752 0)
(0.4 -1.1776 0)
(0.4 -1.28 0)
(0.4 -1.3824 0)
(0.4 -1.4848 0)
(0.4 -1.5872 0)
(0.4 -1.6896 0)
(0.4 -1.792 0)
(0.4 -1.8944 0)
(0.4 -1.9968 0)
(0.4 -2.0992 0)
(0.4 -2.2016 0)
(0.4 -2.304 0)
(0.4 -2.4064 0)
(0.4 -2.5088 0)
(0.4 -2.6112 0)
(0.4 -2.7136 0)
(0.4 -2.816 0)
(0.4 -2.9184 0)
(0.4 -3.0208 0)
(0.4 -3.1232 0)
(0.4 -3.2256 0)
(0.4 -3.328 0)
(0.4 -3.4304 0)
(0.4 -3.5328 0)
(0.4 -3.6352 0)
(0.4 -3.7376 0)
(0.4 -3.84 0)
(0.4 -3.9424 0)
(0.4 -4.0448 0)
(0.4 -4.1472 0)
(0.4 -4.2496 0)
(0.4 -4.352 0)
(0.4 -4.4544 0)
(0.4 -4.5568 0)
(0.4 -4.6592 0)
(0.4 -4.7616 0)
(0.4 -4.864 0)
(0.4 -4.9664 0)
(0.4 -5.0688 0)
(0.46656 -0.0512 0)
(0.46656 -0.1536 0)
(0.46656 -0.256 0)
(0.46656 -0.3584 0)
(0.46656 -0.4608 0)
(0.46656 -0.5632 0)
(0.46656 -0.6656 0)
(0.46656 -0.768 0)
(0.46656 -0.8704 0)
(0.46656 -0.9728 0)
(0.46656 -1.0752 0)
(0.46656 -1.1776 0)
(0.46656 -1.28 0)
(0.46656 -1.3824 0)
(0.46656 -1.4848 0)
(0.46656 -1.5872 0)
(0.46656 -1.6896 0)
(0.46656 -1.792 0)
(0.46656 -1.8944 0)
(0.46656 -1.9968 0)
(0.46656 -2.0992 0)
(0.46656 -2.2016 0)
(0.46656 -2.304 0)
(0.46656 -2.4064 0)
(0.46656 -2.5088 0)
(0.46656 -2.6112 0)
(0.46656 -2.7136 0)
(0.46656 -2.816 0)
(0.46656 -2.9184 0)
(0.46656 -3.0208 0)
(0.46656 -3.1232 0)
(0.46656 -3.2256 0)
(0.46656 -3.328 0)
(0.46656 -3.4304 0)
(0.46656 -3.5328 0)
(0.46656 -3.6352 0)
(0.46656 -3.7376 0)
(0.46656 -3.84 0)
(0.46656 -3.9424 0)
(0.46656 -4.0448 0)
(0.46656 -4.1472 0)
(0.46656 -4.2496 0)
(0.46656 -4.352 0)
(0.46656 -4.4544 0)
(0.46656 -4.5568 0)
(0.46656 -4.6592 0)
(0.46656 -4.7616 0)
(0.46656 -4.864 0)
(0.46656 -4.9664 0)
(0.46656 -5.0688 0)
(0.53824 -0.0512 0)
(0.53824 -0.1536 0)
(0.53824 -0.256 0)
(0.53824 -0.3584 0)
(0.53824 -0.4608 0)
(0.53824 -0.5632 0)
(0.53824 -0.6656 0)
(0.53824 -0.768 0)
(0.53824 -0.8704 0)
(0.53824 -0.9728 0)
(0.53824 -1.0752 0)
(0.53824 -1.1776 0)
(0.53824 -1.28 0)
(0.53824 -1.3824 0)
(0.53824 -1.4848 0)
(0.53824 -1.5872 0)
(0.53824 -1.6896 0)
(0.53824 -1.792 0)
(0.53824 -1.8944 0)
(0.53824 -1.9968 0)
(0.53824 -2.0992 0)
(0.53824 -2.2016 0)
(0.53824 -2.304 0)
(0.53824 -2.4064 0)
(0.53824 -2.5088 0)
(0.53824 -2.6112 0)
(0.53824 -2.7136 0)
(0.53824 -2.816 0)
(0.53824 -2.9184 0)
(0.53824 -3.0208 0)
(0.53824 -3.1232 0)
(0.53824 -3.2256 0)
(0.53824 -3.328 0)
(0.53824 -3.4304 0)
(0.53824 -3.5328 0)
(0.53824 -3.6352 0)
(0.53824 -3.7376 0)
(0.53824 -3.84 0)
(0.53824 -3.9424 0)
(0.53824 -4.0448 0)
(0.53824 -4.1472 0)
(0.53824 -4.2496 0)
(0.53824 -4.352 0)
(0.53824 -4.4544 0)
(0.53824 -4.5568 0)
(0.53824 -4.6592 0)
(0.53824 -4.7616 0)
(0.53824 -4.864 0)
(0.53824 -4.9664 0)
(0.53824 -5.0688 0)
(0.61504 -0.0512 0)
(0.61504 -0.1536 0)
(0.61504 -0.256 0)
(0.61504 -0.3584 0)
(0.61504 -0.4608 0)
(0.61504 -0.5632 0)
(0.61504 -0.6656 0)
(0.61504 -0.768 0)
(0.61504 -0.8704 0)
(0.61504 -0.9728 0)
(0.61504 -1.0752 0)
(0.61504 -1.1776 0)
(0.61504 -1.28 0)
(0.61504 -1.3824 0)
(0.61504 -1.4848 0)
(0.61504 -1.5872 0)
(0.61504 -1.6896 0)
(0.61504 -1.792 0)
(0.61504 -1.8944 0)
(0.61504 -1.9968 0)
(0.61504 -2.0992 0)
(0.61504 -2.2016 0)
(0.61504 -2.304 0)
(0.61504 -2.4064 0)
(0.61504 -2.5088 0)
(0.61504 -2.6112 0)
(0.61504 -2.7136 0)
(0.61504 -2.816 0)
(0.61504 -2.9184 0)
(0.61504 -3.0208 0)
(0.61504 -3.1232 0)
(0.61504 -3.2256 0)
(0.61504 -3.328 0)
(0.61504 -3.4304 0)
(0.61504 -3.5328 0)
(0.61504 -3.6352 0)
(0.61504 -3.7376 0)
(0.61504 -3.84 0)
(0.61504 -3.9424 0)
(0.61504 -4.0448 0)
(0.61504 -4.1472 0)
(0.61504 -4.2496 0)
(0.61504 -4.352 0)
(0.61504 -4.4544 0)
(0.61504 -4.5568 0)
(0.61504 -4.6592 0)
(0.61504 -4.7616 0)
(0.61504 -4.864 0)
(0.61504 -4.9664 0)
(0.61504 -5.0688 0)
(0.69696 -0.0512 0)
(0.69696 -0.1536 0)
(0.69696 -0.256 0)
(0.69696 -0.3584 0)
(0.69696 -0.4608 0)
(0.69696 -0.5632 0)
(0.69696 -0.6656 0)
(0.69696 -0.768 0)
(0.69696 -0.8704 0)
(0.69696 -0.9728 0)
(0.69696 -1.0752 0)
(0.69696 -1.1776 0)
(0.69696 -1.28 0)
(0.69696 -1.3824 0)
(0.69696 -1.4848 0)
(0.69696 -1.5872 0)
(0.69696 -1.6896 0)
(0.69696 -1.792 0)
(0.69696 -1.8944 0)
(0.69696 -1.9968 0)
(0.69696 -2.0992 0)
(0.69696 -2.2016 0)
(0.69696 -2.304 0)
(0.69696 -2.4064 0)
(0.69696 -2.5088 0)
(0.69696 -2.6112 0)
(0.69696 -2.7136 0)
(0.69696 -2.816 0)
(0.69696 -2.9184 0)
(0.69696 -3.0208 0)
(0.69696 -3.1232 0)
(0.69696 -3.2256 0)
(0.69696 -3.328 0)
(0.69696 -3.4304 0)
(0.69696 -3.5328 0)
(0.69696 -3.6352 0)
(0.69696 -3.7376 0)
(0.69696 -3.84 0)
(0.69696 -3.9424 0)
(0.69696 -4.0448 0)
(0.69696 -4.1472 0)
(0.69696 -4.2496 0)
(0.69696 -4.352 0)
(0.69696 -4.4544 0)
(0.69696 -4.5568 0)
(0.69696 -4.6592 0)
(0.69696 -4.7616 0)
(0.69696 -4.864 0)
(0.69696 -4.9664 0)
(0.69696 -5.0688 0)
(0.784 -0.0512 0)
(0.784 -0.1536 0)
(0.784 -0.256 0)
(0.784 -0.3584 0)
(0.784 -0.4608 0)
(0.784 -0.5632 0)
(0.784 -0.6656 0)
(0.784 -0.768 0)
(0.784 -0.8704 0)
(0.784 -0.9728 0)
(0.784 -1.0752 0)
(0.784 -1.1776 0)
(0.784 -1.28 0)
(0.784 -1.3824 0)
(0.784 -1.4848 0)
(0.784 -1.5872 0)
(0.784 -1.6896 0)
(0.784 -1.792 0)
(0.784 -1.8944 0)
(0.784 -1.9968 0)
(0.784 -2.0992 0)
(0.784 -2.2016 0)
(0.784 -2.304 0)
(0.784 -2.4064 0)
(0.784 -2.5088 0)
(0.784 -2.6112 0)
(0.784 -2.7136 0)
(0.784 -2.816 0)
(0.784 -2.9184 0)
(0.784 -3.0208 0)
(0.784 -3.1232 0)
(0.784 -3.2256 0)
(0.784 -3.328 0)
(0.784 -3.4304 0)
(0.784 -3.5328 0)
(0.784 -3.6352 0)
(0.784 -3.7376 0)
(0.784 -3.84 0)
(0.784 -3.9424 0)
(0.784 -4.0448 0)
(0.784 -4.1472 0)
(0.784 -4.2496 0)
(0.784 -4.352 0)
(0.784 -4.4544 0)
(0.784 -4.5568 0)
(0.784 -4.6592 0)
(0.784 -4.7616 0)
(0.784 -4.864 0)
(0.784 -4.9664 0)
(0.784 -5.0688 0)
(0.87616 -0.0512 0)
(0.87616 -0.1536 0)
(0.87616 -0.256 0)
(0.87616 -0.3584 0)
(0.87616 -0.4608 0)
(0.87616 -0.5632 0)
(0.87616 -0.6656 0)
(0.87616 -0.768 0)
(0.87616 -0.8704 0)
(0.87616 -0.9728 0)
(0.87616 -1.0752 0)
(0.87616 -1.1776 0)
(0.87616 -1.28 0)
(0.87616 -1.3824 0)
(0.87616 -1.4848 0)
(0.87616 -1.5872 0)
(0.87616 -1.6896 0)
(0.87616 -1.792 0)
(0.87616 -1.8944 0)
(0.87616 -1.9968 0)
(0.87616 -2.0992 0)
(0.87616 -2.2016 0)
(0.87616 -2.304 0)
(0.87616 -2.4064 0)
(0.87616 -2.5088 0)
(0.87616 -2.6112 0)
(0.87616 -2.7136 0)
(0.87616 -2.816 0)
(0.87616 -2.9184 0)
(0.87616 -3.0208 0)
(0.87616 -3.1232 0)
(0.87616 -3.2256 0)
(0.87616 -3.328 0)
(0.87616 -3.4304 0)
(0.87616 -3.5328 0)
(0.87616 -3.6352 0)
(0.87616 -3.7376 0)
(0.87616 -3.84 0)
(0.87616 -3.9424 0)
(0.87616 -4.0448 0)
(0.87616 -4.1472 0)
(0.87616 -4.2496 0)
(0.87616 -4.352 0)
(0.87616 -4.4544 0)
(0.87616 -4.5568 0)
(0.87616 -4.6592 0)
(0.87616 -4.7616 0)
(0.87616 -4.864 0)
(0.87616 -4.9664 0)
(0.87616 -5.0688 0)
(0.97344 -0.0512 0)
(0.97344 -0.1536 0)
(0.97344 -0.256 0)
(0.97344 -0.3584 0)
(0.97344 -0.4608 0)
(0.97344 -0.5632 0)
(0.97344 -0.6656 0)
(0.97344 -0.768 0)
(0.97344 -0.8704 0)
(0.97344 -0.9728 0)
(0.97344 -1.0752 0)
(0.97344 -1.1776 0)
(0.97344 -1.28 0)
(0.97344 -1.3824 0)
(0.97344 -1.4848 0)
(0.97344 -1.5872 0)
(0.97344 -1.6896 0)
(0.97344 -1.792 0)
(0.97344 -1.8944 0)
(0.97344 -1.9968 0)
(0.97344 -2.0992 0)
(0.97344 -2.2016 0)
(0.97344 -2.304 0)
(0.97344 -2.4064 0)
(0.97344 -2.5088 0)
(0.97344 -2.6112 0)
(0.97344 -2.7136 0)
(0.97344 -2.816 0)
(0.97344 -2.9184 0)
(0.97344 -3.0208 0)
(0.97344 -3.1232 0)
(0.97344 -3.2256 0)
(0.97344 -3.328 0)
(0.97344 -3.4304 0)
(0.97344 -3.5328 0)
(0.97344 -3.6352 0)
(0.97344 -3.7376 0)
(0.97344 -3.84 0)
(0.97344 -3.9424 0)
(0.97344 -4.0448 0)
(0.97344 -4.1472 0)
(0.97344 -4.2496 0)
(0.97344 -4.352 0)
(0.97344 -4.4544 0)
(0.97344 -4.5568 0)
(0.97344 -4.6592 0)
(0.97344 -4.7616 0)
(0.97344 -4.864 0)
(0.97344 -4.9664 0)
(0.97344 -5.0688 0)
(1.07584 -0.0512 0)
(1.07584 -0.1536 0)
(1.07584 -0.256 0)
(1.07584 -0.3584 0)
(1.07584 -0.4608 0)
(1.07584 -0.5632 0)
(1.07584 -0.6656 0)
(1.07584 -0.768 0)
(1.07584 -0.8704 0)
(1.07584 -0.9728 0)
(1.07584 -1.0752 0)
(1.07584 -1.1776 0)
(1.07584 -1.28 0)
(1.07584 -1.3824 0)
(1.07584 -1.4848 0)
(1.07584 -1.5872 0)
(1.07584 -1.6896 0)
(1.07584 -1.792 0)
(1.07584 -1.8944 0)
(1.07584 -1.9968 0)
(1.07584 -2.0992 0)
(1.07584 -2.2016 0)
(1.07584 -2.304 0)
(1.07584 -2.4064 0)
(1.07584 -2.5088 0)
(1.07584 -2.6112 0)
(1.07584 -2.7136 0)
(1.07584 -2.816 0)
(1.07584 -2.9184 0)
(1.07584 -3.0208 0)
(1.07584 -3.1232 0)
(1.07584 -3.2256 0)
(1.07584 -3.328 0)
(1.07584 -3.4304 0)
(1.07584 -3.5328 0)
(1.07584 -3.6352 0)
(1.07584 -3.7376 0)
(1.07584 -3.84 0)
(1.07584 -3.9424 0)
(1.07584 -4.0448 0)
(1.07584 -4.1472 0)
(1.07584 -4.2496 0)
(1.07584 -4.352 0)
(1.07584 -4.4544 0)
(1.07584 -4.5568 0)
(1.07584 -4.6592 0)
(1.07584 -4.7616 0)
(1.07584 -4.864 0)
(1.07584 -4.9664 0)
(1.07584 -5.0688 0)
(1.18336 -0.0512 0)
(1.18336 -0.1536 0)
(1.18336 -0.256 0)
(1.18336 -0.3584 0)
(1.18336 -0.4608 0)
(1.18336 -0.5632 0)
(1.18336 -0.6656 0)
(1.18336 -0.768 0)
(1.18336 -0.8704 0)
(1.18336 -0.9728 0)
(1.18336 -1.0752 0)
(1.18336 -1.1776 0)
(1.18336 -1.28 0)
(1.18336 -1.3824 0)
(1.18336 -1.4848 0)
(1.18336 -1.5872 0)
(1.18336 -1.6896 0)
(1.18336 -1.792 0)
(1.18336 -1.8944 0)
(1.18336 -1.9968 0)
(1.18336 -2.0992 0)
(1.18336 -2.2016 0)
(1.18336 -2.304 0)
(1.18336 -2.4064 0)
(1.18336 -2.5088 0)
(1.18336 -2.6112 0)
(1.18336 -2.7136 0)
(1.18336 -2.816 0)
(1.18336 -2.9184 0)
(1.18336 -3.0208 0)
(1.18336 -3.1232 0)
(1.18336 -3.2256 0)
(1.18336 -3.328 0)
(1.18336 -3.4304 0)
(1.18336 -3.5328 0)
(1.18336 -3.6352 0)
(1.18336 -3.7376 0)
(1.18336 -3.84 0)
(1.18336 -3.9424 0)
(1.18336 -4.0448 0)
(1.18336 -4.1472 0)
(1.18336 -4.2496 0)
(1.18336 -4.352 0)
(1.18336 -4.4544 0)
(1.18336 -4.5568 0)
(1.18336 -4.6592 0)
(1.18336 -4.7616 0)
(1.18336 -4.864 0)
(1.18336 -4.9664 0)
(1.18336 -5.0688 0)
(1.296 -0.0512 0)
(1.296 -0.1536 0)
(1.296 -0.256 0)
(1.296 -0.3584 0)
(1.296 -0.4608 0)
(1.296 -0.5632 0)
(1.296 -0.6656 0)
(1.296 -0.768 0)
(1.296 -0.8704 0)
(1.296 -0.9728 0)
(1.296 -1.0752 0)
(1.296 -1.1776 0)
(1.296 -1.28 0)
(1.296 -1.3824 0)
(1.296 -1.4848 0)
(1.296 -1.5872 0)
(1.296 -1.6896 0)
(1.296 -1.792 0)
(1.296 -1.8944 0)
(1.296 -1.9968 0)
(1.296 -2.0992 0)
(1.296 -2.2016 0)
(1.296 -2.304 0)
(1.296 -2.4064 0)
(1.296 -2.5088 0)
(1.296 -2.6112 0)
(1.296 -2.7136 0)
(1.296 -2.816 0)
(1.296 -2.9184 0)
(1.296 -3.0208 0)
(1.296 -3.1232 0)
(1.296 -3.2256 0)
(1.296 -3.328 0)
(1.296 -3.4304 0)
(1.296 -3.5328 0)
(1.296 -3.6352 0)
(1.296 -3.7376 0)
(1.296 -3.84 0)
(1.296 -3.9424 0)
(1.296 -4.0448 0)
(1.296 -4.1472 0)
(1.296 -4.2496 0)
(1.296 -4.352 0)
(1.296 -4.4544 0)
(1.296 -4.5568 0)
(1.296 -4.6592 0)
(1.296 -4.7616 0)
(1.296 -4.864 0)
(1.296 -4.9664 0)
(1.296 -5.0688 0)
(1.41376 -0.0512 0)
(1.41376 -0.1536 0)
(1.41376 -0.256 0)
(1.41376 -0.3584 0)
(1.41376 -0.4608 0)
(1.41376 -0.5632 0)
(1.41376 -0.6656 0)
(1.41376 -0.768 0)
(1.41376 -0.8704 0)
(1.41376 -0.9728 0)
(1.41376 -1.0752 0)
(1.41376 -1.1776 0)
(1.41376 -1.28 0)
(1.41376 -1.3824 0)
(1.41376 -1.4848 0)
(1.41376 -1.5872 0)
(1.41376 -1.6896 0)
(1.41376 -1.792 0)
(1.41376 -1.8944 0)
(1.41376 -1.9968 0)
(1.41376 -2.0992 0)
(1.41376 -2.2016 0)
(1.41376 -2.304 0)
(1.41376 -2.4064 0)
(1.41376 -2.5088 0)
(1.41376 -2.6112 0)
(1.41376 -2.7136 0)
(1.41376 -2.816 0)
(1.41376 -2.9184 0)
(1.41376 -3.0208 0)
(1.41376 -3.1232 0)
(1.41376 -3.2256 0)
(1.41376 -3.328 0)
(1.41376 -3.4304 0)
(1.41376 -3.5328 0)
(1.41376 -3.6352 0)
(1.41376 -3.7376 0)
(1.41376 -3.84 0)
(1.41376 -3.9424 0)
(1.41376 -4.0448 0)
(1.41376 -4.1472 0)
(1.41376 -4.2496 0)
(1.41376 -4.352 0)
(1.41376 -4.4544 0)
(1.41376 -4.5568 0)
(1.41376 -4.6592 0)
(1.41376 -4.7616 0)
(1.41376 -4.864 0)
(1.41376 -4.9664 0)
(1.41376 -5.0688 0)
(1.53664 -0.0512 0)
(1.53664 -0.1536 0)
(1.53664 -0.256 0)
(1.53664 -0.3584 0)
(1.53664 -0.4608 0)
(1.53664 -0.5632 0)
(1.53664 -0.6656 0)
(1.53664 -0.768 0)
(1.53664 -0.8704 0)
(1.53664 -0.9728 0)
(1.53664 -1.0752 0)
(1.53664 -1.1776 0)
(1.53664 -1.28 0)
(1.53664 -1.3824 0)
(1.53664 -1.4848 0)
(1.53664 -1.5872 0)
(1.53664 -1.6896 0)
(1.53664 -1.792 0)
(1.53664 -1.8944 0)
(1.53664 -1.9968 0)
(1.53664 -2.0992 0)
(1.53664 -2.2016 0)
(1.53664 -2.304 0)
(1.53664 -2.4064 0)
(1.53664 -2.5088 0)
(1.53664 -2.6112 0)
(1.53664 -2.7136 0)
(1.53664 -2.816 0)
(1.53664 -2.9184 0)
(1.53664 -3.0208 0)
(1.53664 -3.1232 0)
(1.53664 -3.2256 0)
(1.53664 -3.328 0)
(1.53664 -3.4304 0)
(1.53664 -3.5328 0)
(1.53664 -3.6352 0)
(1.53664 -3.7376 0)
(1.53664 -3.84 0)
(1.53664 -3.9424 0)
(1.53664 -4.0448 0)
(1.53664 -4.1472 0)
(1.53664 -4.2496 0)
(1.53664 -4.352 0)
(1.53664 -4.4544 0)
(1.53664 -4.5568 0)
(1.53664 -4.6592 0)
(1.53664 -4.7616 0)
(1.53664 -4.864 0)
(1.53664 -4.9664 0)
(1.53664 -5.0688 0)
(1.66464 -0.0512 0)
(1.66464 -0.1536 0)
(1.66464 -0.256 0)
(1.66464 -0.3584 0)
(1.66464 -0.4608 0)
(1.66464 -0.5632 0)
(1.66464 -0.6656 0)
(1.66464 -0.768 0)
(1.66464 -0.8704 0)
(1.66464 -0.9728 0)
(1.66464 -1.0752 0)
(1.66464 -1.1776 0)
(1.66464 -1.28 0)
(1.66464 -1.3824 0)
(1.66464 -1.4848 0)
(1.66464 -1.5872 0)
(1.66464 -1.6896 0)
(1.66464 -1.792 0)
(1.66464 -1.8944 0)
(1.66464 -1.9968 0)
(1.66464 -2.0992 0)
(1.66464 -2.2016 0)
(1.66464 -2.304 0)
(1.66464 -2.4064 0)
(1.66464 -2.5088 0)
(1.66464 -2.6112 0)
(1.66464 -2.7136 0)
(1.66464 -2.816 0)
(1.66464 -2.9184 0)
(1.66464 -3.0208 0)
(1.66464 -3.1232 0)
(1.66464 -3.2256 0)
(1.66464 -3.328 0)
(1.66464 -3.4304 0)
(1.66464 -3.5328 0)
(1.66464 -3.6352 0)
(1.66464 -3.7376 0)
(1.66464 -3.84 0)
(1.66464 -3.9424 0)
(1.66464 -4.0448 0)
(1.66464 -4.1472 0)
(1.66464 -4.2496 0)
(1.66464 -4.352 0)
(1.66464 -4.4544 0)
(1.66464 -4.5568 0)
(1.66464 -4.6592 0)
(1.66464 -4.7616 0)
(1.66464 -4.864 0)
(1.66464 -4.9664 0)
(1.66464 -5.0688 0)
(1.79776 -0.0512 0)
(1.79776 -0.1536 0)
(1.79776 -0.256 0)
(1.79776 -0.3584 0)
(1.79776 -0.4608 0)
(1.79776 -0.5632 0)
(1.79776 -0.6656 0)
(1.79776 -0.768 0)
(1.79776 -0.8704 0)
(1.79776 -0.9728 0)
(1.79776 -1.0752 0)
(1.79776 -1.1776 0)
(1.79776 -1.28 0)
(1.79776 -1.3824 0)
(1.79776 -1.4848 0)
(1.79776 -1.5872 0)
(1.79776 -1.6896 0)
(1.79776 -1.792 0)
(1.79776 -1.8944 0)
(1.79776 -1.9968 0)
(1.79776 -2.0992 0)
(1.79776 -2.2016 0)
(1.79776 -2.304 0)
(1.79776 -2.4064 0)
(1.79776 -2.5088 0)
(1.79776 -2.6112 0)
(1.79776 -2.7136 0)
(1.79776 -2.816 0)
(1.79776 -2.9184 0)
(1.79776 -3.0208 0)
(1.79776 -3.1232 0)
(1.79776 -3.2256 0)
(1.79776 -3.328 0)
(1.79776 -3.4304 0)
(1.79776 -3.5328 0)
(1.79776 -3.6352 0)
(1.79776 -3.7376 0)
(1.79776 -3.84 0)
(1.79776 -3.9424 0)
(1.79776 -4.0448 0)
(1.79776 -4.1472 0)
(1.79776 -4.2496 0)
(1.79776 -4.352 0)
(1.79776 -4.4544 0)
(1.79776 -4.5568 0)
(1.79776 -4.6592 0)
(1.79776 -4.7616 0)
(1.79776 -4.864 0)
(1.79776 -4.9664 0)
(1.79776 -5.0688 0)
(1.936 -0.0512 0)
(1.936 -0.1536 0)
(1.936 -0.256 0)
(1.936 -0.3584 0)
(1.936 -0.4608 0)
(1.936 -0.5632 0)
(1.936 -0.6656 0)
(1.936 -0.768 0)
(1.936 -0.8704 0)
(1.936 -0.9728 0)
(1.936 -1.0752 0)
(1.936 -1.1776 0)
(1.936 -1.28 0)
(1.936 -1.3824 0)
(1.936 -1.4848 0)
(1.936 -1.5872 0)
(1.936 -1.6896 0)
(1.936 -1.792 0)
(1.936 -1.8944 0)
(1.936 -1.9968 0)
(1.936 -2.0992 0)
(1.936 -2.2016 0)
(1.936 -2.304 0)
(1.936 -2.4064 0)
(1.936 -2.5088 0)
(1.936 -2.6112 0)
(1.936 -2.7136 0)
(1.936 -2.816 0)
(1.936 -2.9184 0)
(1.936 -3.0208 0)
(1.936 -3.1232 0)
(1.936 -3.2256 0)
(1.936 -3.328 0)
(1.936 -3.4304 0)
(1.936 -3.5328 0)
(1.936 -3.6352 0)
(1.936 -3.7376 0)
(1.936 -3.84 0)
(1.936 -3.9424 0)
(1.936 -4.0448 0)
(1.936 -4.1472 0)
(1.936 -4.2496 0)
(1.936 -4.352 0)
(1.936 -4.4544 0)
(1.936 -4.5568 0)
(1.936 -4.6592 0)
(1.936 -4.7616 0)
(1.936 -4.864 0)
(1.936 -4.9664 0)
(1.936 -5.0688 0)
(2.07936 -0.0512 0)
(2.07936 -0.1536 0)
(2.07936 -0.256 0)
(2.07936 -0.3584 0)
(2.07936 -0.4608 0)
(2.07936 -0.5632 0)
(2.07936 -0.6656 0)
(2.07936 -0.768 0)
(2.07936 -0.8704 0)
(2.07936 -0.9728 0)
(2.07936 -1.0752 0)
(2.07936 -1.1776 0)
(2.07936 -1.28 0)
(2.07936 -1.3824 0)
(2.07936 -1.4848 0)
(2.07936 -1.5872 0)
(2.07936 -1.6896 0)
(2.07936 -1.792 0)
(2.07936 -1.8944 0)
(2.07936 -1.9968 0)
(2.07936 -2.0992 0)
(2.07936 -2.2016 0)
(2.07936 -2.304 0)
(2.07936 -2.4064 0)
(2.07936 -2.5088 0)
(2.07936 -2.6112 0)
(2.07936 -2.7136 0)
(2.07936 -2.816 0)
(2.07936 -2.9184 0)
(2.07936 -3.0208 0)
(2.07936 -3.1232 0)
(2.07936 -3.2256 0)
(2.07936 -3.328 0)
(2.07936 -3.4304 0)
(2.07936 -3.5328 0)
(2.07936 -3.6352 0)
(2.07936 -3.7376 0)
(2.07936 -3.84 0)
(2.07936 -3.9424 0)
(2.07936 -4.0448 0)
(2.07936 -4.1472 0)
(2.07936 -4.2496 0)
(2.07936 -4.352 0)
(2.07936 -4.4544 0)
(2.07936 -4.5568 0)
(2.07936 -4.6592 0)
(2.07936 -4.7616 0)
(2.07936 -4.864 0)
(2.07936 -4.9664 0)
(2.07936 -5.0688 0)
(2.22784 -0.0512 0)
(2.22784 -0.1536 0)
(2.22784 -0.256 0)
(2.22784 -0.3584 0)
(2.22784 -0.4608 0)
(2.22784 -0.5632 0)
(2.22784 -0.6656 0)
(2.22784 -0.768 0)
(2.22784 -0.8704 0)
(2.22784 -0.9728 0)
(2.22784 -1.0752 0)
(2.22784 -1.1776 0)
(2.22784 -1.28 0)
(2.22784 -1.3824 0)
(2.22784 -1.4848 0)
(2.22784 -1.5872 0)
(2.22784 -1.6896 0)
(2.22784 -1.792 0)
(2.22784 -1.8944 0)
(2.22784 -1.9968 0)
(2.22784 -2.0992 0)
(2.22784 -2.2016 0)
(2.22784 -2.304 0)
(2.22784 -2.4064 0)
(2.22784 -2.5088 0)
(2.22784 -2.6112 0)
(2.22784 -2.7136 0)
(2.22784 -2.816 0)
(2.22784 -2.9184 0)
(2.22784 -3.0208 0)
(2.22784 -3.1232 0)
(2.22784 -3.2256 0)
(2.22784 -3.328 0)
(2.22784 -3.4304 0)
(2.22784 -3.5328 0)
(2.22784 -3.6352 0)
(2.22784 -3.7376 0)
(2.22784 -3.84 0)
(2.22784 -3.9424 0)
(2.22784 -4.0448 0)
(2.22784 -4.1472 0)
(2.22784 -4.2496 0)
(2.22784 -4.352 0)
(2.22784 -4.4544 0)
(2.22784 -4.5568 0)
(2.22784 -4.6592 0)
(2.22784 -4.7616 0)
(2.22784 -4.864 0)
(2.22784 -4.9664 0)
(2.22784 -5.0688 0)
(2.38144 -0.0512 0)
(2.38144 -0.1536 0)
(2.38144 -0.256 0)
(2.38144 -0.3584 0)
(2.38144 -0.4608 0)
(2.38144 -0.5632 0)
(2.38144 -0.6656 0)
(2.38144 -0.768 0)
(2.38144 -0.8704 0)
(2.38144 -0.9728 0)