/*--------------------------------*- C++ -*----------------------------------*\
| =========                 |                                                 |
| \\      /  F ield         | OpenFOAM: The Open Source CFD Toolbox           |
|  \\    /   O peration     | Version:  v2006                                 |
|   \\  /    A nd           | Website:  www.openfoam.com                      |
|    \\/     M anipulation  |                                                 |
\*---------------------------------------------------------------------------*/
FoamFile
{
    version     2.0;
    format      ascii;
    class       volVectorField;
    location    "0";
    object      U;
}
// * * * * * * * * * * * * * * * * * * * * * * * * * * * * * * * * * * * * * //

dimensions      [0 1 -1 0 0 0 0];


internalField   nonuniform List<vector> 
67500
(
(-0.0122144 0.0168583 0)
(-0.0426129 0.00859615 0)
(-0.0515556 -0.0386545 0)
(0.00388717 -0.0435044 0)
(-0.0271542 -0.0495202 0)
(-0.0547602 -0.0525462 0)
(-0.0552403 -0.00694377 0)
(-0.0520881 -0.0072036 0)
(-0.0150224 -0.0323374 0)
(0.0346295 -0.0353202 0)
(0.0868832 -0.0332272 0)
(0.134359 -0.0309233 0)
(0.172855 -0.0274915 0)
(0.201412 -0.0251693 0)
(0.228013 -0.023789 0)
(0.25942 -0.0212511 0)
(0.289452 -0.0141061 0)
(0.297481 -0.00345234 0)
(0.26064 0.00885124 0)
(0.206256 0.0110496 0)
(0.168935 -0.000666233 0)
(0.155832 -0.0124438 0)
(0.153256 -0.0165925 0)
(0.158566 -0.0155478 0)
(0.168594 -0.0138492 0)
(0.179285 -0.0128988 0)
(0.189118 -0.0115987 0)
(0.196918 -0.00944192 0)
(0.202848 -0.00687181 0)
(0.208066 -0.0047077 0)
(0.212956 -0.0031629 0)
(0.216797 -0.00230143 0)
(0.21939 -0.00201682 0)
(0.221666 -0.0019254 0)
(0.224482 -0.00168591 0)
(0.227951 -0.00134091 0)
(0.231918 -0.000971778 0)
(0.236368 -0.000643833 0)
(0.241457 -0.000517524 0)
(0.247418 -0.000777442 0)
(0.25444 -0.00143234 0)
(0.262523 -0.00232285 0)
(0.271428 -0.00323166 0)
(0.280746 -0.0039888 0)
(0.290028 -0.00452172 0)
(0.298894 -0.00485021 0)
(0.307117 -0.00503176 0)
(0.314644 -0.00509929 0)
(0.321567 -0.00504895 0)
(0.328074 -0.00487722 0)
(0.334393 -0.00461673 0)
(0.340749 -0.00433555 0)
(0.34732 -0.00410205 0)
(0.354203 -0.00395431 0)
(0.361391 -0.00389416 0)
(0.368785 -0.0038967 0)
(0.376231 -0.00392325 0)
(0.38357 -0.00393301 0)
(0.390689 -0.00389319 0)
(0.397547 -0.00378911 0)
(0.40418 -0.00363232 0)
(0.410687 -0.00346025 0)
(0.417198 -0.00332414 0)
(0.423842 -0.00327048 0)
(0.430723 -0.00332369 0)
(0.437896 -0.00347764 0)
(0.445367 -0.00369886 0)
(0.453092 -0.00393852 0)
(0.460998 -0.00414718 0)
(0.468996 -0.00428692 0)
(0.477012 -0.00433776 0)
(0.484995 -0.00429912 0)
(0.492924 -0.00418891 0)
(0.500801 -0.00403927 0)
(0.508639 -0.00388792 0)
(0.516442 -0.00375647 0)
(0.524134 -0.00361611 0)
(0.531528 -0.00342067 0)
(0.538541 -0.00328199 0)
(0.54533 -0.00325284 0)
(0.55205 -0.0032854 0)
(0.55873 -0.00333212 0)
(0.565351 -0.00337187 0)
(0.571897 -0.00339872 0)
(0.578362 -0.00341368 0)
(0.584758 -0.00342005 0)
(0.59111 -0.00342154 0)
(0.597459 -0.00342203 0)
(0.603849 -0.00342472 0)
(0.610318 -0.00343083 0)
(0.616894 -0.00343688 0)
(0.623579 -0.00343177 0)
(0.630328 -0.00339924 0)
(0.637069 -0.00334404 0)
(0.643774 -0.00330275 0)
(0.650479 -0.00328871 0)
(0.657221 -0.00329177 0)
(0.664017 -0.00330409 0)
(0.670869 -0.00332123 0)
(0.677775 -0.00333837 0)
(0.684717 -0.00335095 0)
(0.691669 -0.00335447 0)
(0.698588 -0.00334243 0)
(0.705421 -0.00331107 0)
(0.712129 -0.00327343 0)
(0.718724 -0.00325116 0)
(0.725258 -0.00324768 0)
(0.731769 -0.00325174 0)
(0.738267 -0.00325192 0)
(0.74474 -0.00323968 0)
(0.751162 -0.00321101 0)
(0.757508 -0.00317122 0)
(0.763774 -0.00313267 0)
(0.769976 -0.00310167 0)
(0.776133 -0.00307471 0)
(0.782246 -0.00304617 0)
(0.788304 -0.00301356 0)
(0.794297 -0.00297857 0)
(0.800221 -0.00294472 0)
(0.80608 -0.00291287 0)
(0.811877 -0.00288093 0)
(0.817607 -0.00284704 0)
(0.823266 -0.00281114 0)
(0.828852 -0.00277395 0)
(0.834361 -0.00273551 0)
(0.839792 -0.00269527 0)
(0.84514 -0.00265299 0)
(0.850402 -0.00260889 0)
(0.855575 -0.00256311 0)
(0.860655 -0.00251562 0)
(0.865638 -0.00246645 0)
(0.870521 -0.00241577 0)
(0.875301 -0.00236371 0)
(0.879976 -0.00231039 0)
(0.884542 -0.00225595 0)
(0.888999 -0.00220058 0)
(0.893344 -0.00214443 0)
(0.897576 -0.00208767 0)
(0.901693 -0.00203046 0)
(0.905696 -0.00197294 0)
(0.909584 -0.00191523 0)
(0.913356 -0.00185748 0)
(0.917012 -0.0017998 0)
(0.920553 -0.00174228 0)
(0.92398 -0.00168504 0)
(0.927292 -0.00162817 0)
(0.930491 -0.00157174 0)
(0.933577 -0.00151584 0)
(0.936552 -0.00146056 0)
(0.939418 -0.00140596 0)
(0.942175 -0.00135215 0)
(0.944825 -0.00129921 0)
(0.94737 -0.00124723 0)
(0.949812 -0.00119631 0)
(0.952153 -0.00114655 0)
(0.954396 -0.00109801 0)
(0.956543 -0.00105077 0)
(0.958597 -0.00100489 0)
(0.960561 -0.000960416 0)
(0.962437 -0.000917389 0)
(0.964228 -0.000875831 0)
(0.965938 -0.000835756 0)
(0.96757 -0.000797172 0)
(0.969125 -0.000760075 0)
(0.970608 -0.000724458 0)
(0.972021 -0.000690303 0)
(0.973368 -0.000657591 0)
(0.97465 -0.000626293 0)
(0.975871 -0.000596379 0)
(0.977034 -0.000567812 0)
(0.978141 -0.000540554 0)
(0.979195 -0.000514562 0)
(0.980198 -0.000489791 0)
(0.981153 -0.000466197 0)
(0.982062 -0.000443732 0)
(0.982927 -0.000422349 0)
(0.98375 -0.000402002 0)
(0.984534 -0.000382644 0)
(0.98528 -0.000364228 0)
(0.98599 -0.000346709 0)
(0.986666 -0.000330045 0)
(0.987309 -0.000314191 0)
(0.987921 -0.000299106 0)
(0.988505 -0.000284748 0)
(0.98906 -0.000271078 0)
(0.989588 -0.000258058 0)
(0.990091 -0.000245649 0)
(0.99057 -0.000233815 0)
(0.991026 -0.000222525 0)
(0.99146 -0.000211745 0)
(0.991872 -0.000201448 0)
(0.992265 -0.000191607 0)
(0.992638 -0.0001822 0)
(0.992993 -0.000173207 0)
(0.993331 -0.00016461 0)
(0.993651 -0.000156395 0)
(0.993956 -0.000148548 0)
(0.994245 -0.000141059 0)
(0.99452 -0.000133917 0)
(0.99478 -0.000127112 0)
(0.995028 -0.000120636 0)
(0.995263 -0.000114479 0)
(0.995485 -0.000108631 0)
(0.995697 -0.000103083 0)
(0.995898 -9.78237e-05 0)
(0.996088 -9.28435e-05 0)
(0.996269 -8.81309e-05 0)
(0.996441 -8.36745e-05 0)
(0.996603 -7.94626e-05 0)
(0.996758 -7.54836e-05 0)
(0.996905 -7.17258e-05 0)
(0.997045 -6.81776e-05 0)
(0.997178 -6.48276e-05 0)
(0.997304 -6.16646e-05 0)
(0.997425 -5.86776e-05 0)
(0.997539 -5.58561e-05 0)
(0.997648 -5.31897e-05 0)
(0.997752 -5.06685e-05 0)
(0.997851 -4.8283e-05 0)
(0.997945 -4.60239e-05 0)
(0.998035 -4.38825e-05 0)
(0.99812 -4.18505e-05 0)
(0.998202 -3.992e-05 0)
(0.99828 -3.80835e-05 0)
(0.998354 -3.6334e-05 0)
(0.998425 -3.46652e-05 0)
(0.998493 -3.30711e-05 0)
(0.998557 -3.15462e-05 0)
(0.998619 -3.00857e-05 0)
(0.998678 -2.86852e-05 0)
(0.998734 -2.73406e-05 0)
(0.998787 -2.60487e-05 0)
(0.998838 -2.48064e-05 0)
(0.998886 -2.36111e-05 0)
(0.998932 -2.24606e-05 0)
(0.998976 -2.13529e-05 0)
(0.999018 -2.02866e-05 0)
(0.999057 -1.92603e-05 0)
(0.999095 -1.82727e-05 0)
(0.99913 -1.73231e-05 0)
(0.999164 -1.64104e-05 0)
(0.999196 -1.5534e-05 0)
(0.999226 -1.46933e-05 0)
(0.999255 -1.38876e-05 0)
(0.999282 -1.31163e-05 0)
(0.999307 -1.2379e-05 0)
(0.999331 -1.1675e-05 0)
(0.999354 -1.10038e-05 0)
(0.999375 -1.03647e-05 0)
(0.999395 -9.75721e-06 0)
(0.999414 -9.18061e-06 0)
(0.999432 -8.63423e-06 0)
(0.999448 -8.11736e-06 0)
(0.999464 -7.62924e-06 0)
(0.999479 -7.1691e-06 0)
(0.999493 -6.73613e-06 0)
(0.999506 -6.32951e-06 0)
(0.999518 -5.94839e-06 0)
(0.99953 -5.59191e-06 0)
(0.99954 -5.25917e-06 0)
(0.999551 -4.9493e-06 0)
(0.99956 -4.6614e-06 0)
(0.999569 -4.39457e-06 0)
(0.999578 -4.14791e-06 0)
(0.999586 -3.92051e-06 0)
(0.999593 -3.71148e-06 0)
(0.999601 -3.51993e-06 0)
(0.999608 -3.34498e-06 0)
(0.999614 -3.18576e-06 0)
(0.99962 -3.04139e-06 0)
(0.999626 -2.91103e-06 0)
(0.999632 -2.79383e-06 0)
(0.999637 -2.68898e-06 0)
(0.999643 -2.59567e-06 0)
(0.999648 -2.51311e-06 0)
(0.999653 -2.44053e-06 0)
(0.999657 -2.37718e-06 0)
(0.999662 -2.32233e-06 0)
(0.999667 -2.27528e-06 0)
(0.999671 -2.23534e-06 0)
(0.999676 -2.20186e-06 0)
(0.99968 -2.17421e-06 0)
(0.999684 -2.15178e-06 0)
(0.999689 -2.13399e-06 0)
(0.999693 -2.1203e-06 0)
(0.999697 -2.11018e-06 0)
(0.999701 -2.10312e-06 0)
(0.999706 -2.09867e-06 0)
(0.99971 -2.09638e-06 0)
(0.999714 -2.09582e-06 0)
(0.999718 -2.09661e-06 0)
(0.999722 -2.09837e-06 0)
(0.999727 -2.10076e-06 0)
(0.999731 -2.10346e-06 0)
(0.999735 -2.10616e-06 0)
(0.999739 -2.10857e-06 0)
(0.999743 -2.11043e-06 0)
(0.999748 -2.11149e-06 0)
(0.999752 -2.11151e-06 0)
(0.999756 -2.11028e-06 0)
(0.99976 -2.10758e-06 0)
(0.999764 -2.10322e-06 0)
(0.999769 -2.09702e-06 0)
(0.999773 -2.08882e-06 0)
(0.999777 -2.07845e-06 0)
(0.999781 -2.06576e-06 0)
(0.999785 -2.05063e-06 0)
(0.999789 -2.03293e-06 0)
(0.999793 -2.01257e-06 0)
(0.999797 -1.98944e-06 0)
(0.999801 -1.96349e-06 0)
(0.999805 -1.93466e-06 0)
(0.999809 -1.90292e-06 0)
(0.999813 -1.86828e-06 0)
(0.999817 -1.83074e-06 0)
(0.99982 -1.79037e-06 0)
(0.999824 -1.74724e-06 0)
(0.999827 -1.70149e-06 0)
(0.999831 -1.65325e-06 0)
(0.999834 -1.60272e-06 0)
(0.999837 -1.55013e-06 0)
(0.99984 -1.49573e-06 0)
(0.999843 -1.43982e-06 0)
(0.999846 -1.38273e-06 0)
(0.999849 -1.32481e-06 0)
(0.999851 -1.26643e-06 0)
(0.999854 -1.20798e-06 0)
(0.999856 -1.14985e-06 0)
(0.999858 -1.09242e-06 0)
(0.99986 -1.03607e-06 0)
(0.999862 -9.81168e-07 0)
(0.999864 -9.28035e-07 0)
(0.999866 -8.76978e-07 0)
(0.999868 -8.28266e-07 0)
(0.999869 -7.82136e-07 0)
(0.999871 -7.38789e-07 0)
(0.999872 -6.98402e-07 0)
(0.999874 -6.61122e-07 0)
(0.999875 -6.27078e-07 0)
(0.999876 -5.96381e-07 0)
(0.999877 -5.69125e-07 0)
(0.999878 -5.45391e-07 0)
(0.999879 -5.25238e-07 0)
(0.999881 -5.087e-07 0)
(0.999882 -4.95774e-07 0)
(0.999882 -4.86403e-07 0)
(0.999883 -4.80469e-07 0)
(0.999884 -4.7777e-07 0)
(0.999885 -4.78007e-07 0)
(0.999886 -4.8078e-07 0)
(0.999887 -4.85578e-07 0)
(0.999888 -4.91788e-07 0)
(0.999889 -4.98709e-07 0)
(0.99989 -5.05584e-07 0)
(0.999891 -5.11636e-07 0)
(0.999892 -5.16122e-07 0)
(0.999893 -5.1839e-07 0)
(0.999894 -5.17936e-07 0)
(0.999895 -5.14462e-07 0)
(0.999896 -5.07909e-07 0)
(0.999897 -4.98483e-07 0)
(0.999898 -4.86649e-07 0)
(0.999899 -4.73102e-07 0)
(0.9999 -4.58722e-07 0)
(0.999901 -4.44499e-07 0)
(0.999902 -4.31459e-07 0)
(0.999903 -4.20579e-07 0)
(0.999904 -4.1271e-07 0)
(0.999905 -4.08517e-07 0)
(0.999906 -4.08438e-07 0)
(0.999907 -4.12657e-07 0)
(0.999908 -4.21111e-07 0)
(0.999909 -4.33509e-07 0)
(0.99991 -4.49366e-07 0)
(0.999911 -4.68049e-07 0)
(0.999912 -4.88828e-07 0)
(0.999913 -5.10925e-07 0)
(0.999914 -5.33557e-07 0)
(0.999915 -5.55983e-07 0)
(0.999916 -5.77525e-07 0)
(0.999917 -5.97598e-07 0)
(0.999919 -6.1572e-07 0)
(0.99992 -6.31519e-07 0)
(0.999921 -6.44732e-07 0)
(0.999922 -6.552e-07 0)
(0.999924 -6.62855e-07 0)
(0.999925 -6.67712e-07 0)
(0.999926 -6.69853e-07 0)
(0.999928 -6.69414e-07 0)
(0.999929 -6.66571e-07 0)
(0.999931 -6.61531e-07 0)
(0.999932 -6.54515e-07 0)
(0.999933 -6.45756e-07 0)
(0.999934 -6.35486e-07 0)
(0.999936 -6.23931e-07 0)
(0.999937 -6.11308e-07 0)
(0.999938 -5.97822e-07 0)
(0.999939 -5.83661e-07 0)
(0.99994 -5.68995e-07 0)
(0.999942 -5.5398e-07 0)
(0.999943 -5.38751e-07 0)
(0.999944 -5.23428e-07 0)
(0.999945 -5.08115e-07 0)
(0.999946 -4.92902e-07 0)
(0.999947 -4.77864e-07 0)
(0.999948 -4.63062e-07 0)
(0.999949 -4.48548e-07 0)
(0.999949 -4.34363e-07 0)
(0.99995 -4.2054e-07 0)
(0.999951 -4.07104e-07 0)
(0.999952 -3.94071e-07 0)
(0.999953 -3.81453e-07 0)
(0.999953 -3.69259e-07 0)
(0.999954 -3.57489e-07 0)
(0.999955 -3.46145e-07 0)
(0.999955 -3.35221e-07 0)
(0.999956 -3.24713e-07 0)
(0.999957 -3.14611e-07 0)
(0.999957 -3.04906e-07 0)
(0.999958 -2.95588e-07 0)
(0.999959 -2.86644e-07 0)
(0.999959 -2.78063e-07 0)
(0.99996 -2.69832e-07 0)
(0.99996 -2.61937e-07 0)
(0.999961 -2.54365e-07 0)
(0.999961 -2.47104e-07 0)
(0.999962 -2.40139e-07 0)
(0.999962 -2.33459e-07 0)
(0.999963 -2.2705e-07 0)
(0.999963 -2.209e-07 0)
(0.999963 -2.14997e-07 0)
(0.999964 -2.09329e-07 0)
(0.999964 -2.03886e-07 0)
(0.999965 -1.98655e-07 0)
(0.999965 -1.93627e-07 0)
(0.999965 -1.88792e-07 0)
(0.999966 -1.84139e-07 0)
(0.999966 -1.7966e-07 0)
(0.999967 -1.75345e-07 0)
(0.999967 -1.71187e-07 0)
(0.999967 -1.67177e-07 0)
(0.999968 -1.63307e-07 0)
(0.999968 -1.5957e-07 0)
(0.999968 -1.55959e-07 0)
(0.999969 -1.52468e-07 0)
(0.999969 -1.49085e-07 0)
(0.999969 -1.45834e-07 0)
(0.999969 -1.42571e-07 0)
(0.99997 -1.399e-07 0)
(0.99997 -1.35141e-07 0)
(-0.00892422 0.0329245 0)
(-0.0223749 0.0276117 0)
(0.00874762 -0.0169086 0)
(-0.016303 -0.00629826 0)
(0.024278 0.107387 0)
(-0.0460845 0.0806911 0)
(-0.102122 -4.90025e-05 0)
(-0.169561 -0.0494123 0)
(-0.16938 -0.0675661 0)
(-0.0988241 -0.0865331 0)
(-0.0284836 -0.0740886 0)
(0.0201213 -0.0529903 0)
(0.0387059 -0.042449 0)
(0.0430279 -0.0366147 0)
(0.0701169 -0.0396772 0)
(0.111155 -0.0556922 0)
(0.16562 -0.0332129 0)
(0.246251 0.0236392 0)
(0.286341 0.0606376 0)
(0.283733 0.0707764 0)
(0.268902 0.0552608 0)
(0.256137 0.0327017 0)
(0.248342 0.0120828 0)
(0.241875 0.000245542 0)
(0.232141 -0.00824642 0)
(0.221968 -0.00932866 0)
(0.213339 -0.00709845 0)
(0.209806 -0.00532461 0)
(0.212519 -0.00567717 0)
(0.220799 -0.00686538 0)
(0.231896 -0.00580101 0)
(0.242664 -0.00378656 0)
(0.252706 -0.00300466 0)
(0.263156 -0.00374988 0)
(0.274398 -0.00464945 0)
(0.286098 -0.00575009 0)
(0.297479 -0.00711107 0)
(0.308772 -0.00867414 0)
(0.320021 -0.0102934 0)
(0.330923 -0.0119607 0)
(0.341196 -0.0134748 0)
(0.350663 -0.0145466 0)
(0.359315 -0.0149621 0)
(0.367283 -0.0146442 0)
(0.374723 -0.0136475 0)
(0.38172 -0.0121614 0)
(0.38831 -0.0105004 0)
(0.394558 -0.00901513 0)
(0.400578 -0.00798059 0)
(0.406501 -0.00754451 0)
(0.412444 -0.00770317 0)
(0.418475 -0.00832275 0)
(0.424595 -0.00917974 0)
(0.430747 -0.0100208 0)
(0.436844 -0.0106288 0)
(0.442807 -0.0108756 0)
(0.448588 -0.0107491 0)
(0.454179 -0.0103491 0)
(0.459614 -0.00984687 0)
(0.464963 -0.00942394 0)
(0.47032 -0.00921877 0)
(0.475778 -0.009291 0)
(0.481397 -0.00961155 0)
(0.487177 -0.0100887 0)
(0.493053 -0.0106098 0)
(0.498922 -0.0110752 0)
(0.504664 -0.0114175 0)
(0.510172 -0.0116108 0)
(0.515365 -0.0116723 0)
(0.520203 -0.0116544 0)
(0.524687 -0.0116263 0)
(0.52886 -0.0116473 0)
(0.532791 -0.0117464 0)
(0.536562 -0.0119103 0)
(0.540269 -0.0120862 0)
(0.544031 -0.0121782 0)
(0.547907 -0.0119851 0)
(0.551728 -0.011341 0)
(0.555402 -0.0108551 0)
(0.559182 -0.0106116 0)
(0.563258 -0.0104197 0)
(0.567618 -0.0102051 0)
(0.572211 -0.00996489 0)
(0.577012 -0.00971437 0)
(0.582011 -0.00948317 0)
(0.5872 -0.00930622 0)
(0.592577 -0.00921082 0)
(0.598143 -0.00920937 0)
(0.603902 -0.00930002 0)
(0.60986 -0.00946674 0)
(0.616025 -0.00967882 0)
(0.622392 -0.00988479 0)
(0.628889 -0.0100006 0)
(0.635393 -0.010002 0)
(0.641864 -0.010016 0)
(0.648382 -0.0100906 0)
(0.655004 -0.0101969 0)
(0.66174 -0.0103126 0)
(0.66859 -0.0104243 0)
(0.675548 -0.0105151 0)
(0.682594 -0.0105654 0)
(0.689697 -0.0105557 0)
(0.696807 -0.010462 0)
(0.703841 -0.0102716 0)
(0.710726 -0.0100468 0)
(0.717476 -0.00988614 0)
(0.724169 -0.00980346 0)
(0.730856 -0.00975787 0)
(0.737538 -0.00971536 0)
(0.744191 -0.00965157 0)
(0.750774 -0.00955122 0)
(0.757243 -0.00942816 0)
(0.763592 -0.00932219 0)
(0.769858 -0.00924938 0)
(0.77607 -0.00919141 0)
(0.782231 -0.00912491 0)
(0.788327 -0.00903847 0)
(0.794341 -0.00893818 0)
(0.800274 -0.00883874 0)
(0.806138 -0.00874433 0)
(0.811939 -0.00864788 0)
(0.817672 -0.00854382 0)
(0.823333 -0.00843339 0)
(0.828918 -0.00832024 0)
(0.834427 -0.00820463 0)
(0.83986 -0.00808418 0)
(0.84521 -0.00795782 0)
(0.850474 -0.00782616 0)
(0.85565 -0.00768944 0)
(0.860732 -0.0075473 0)
(0.865718 -0.0073998 0)
(0.870605 -0.00724757 0)
(0.875388 -0.00709112 0)
(0.880065 -0.00693086 0)
(0.884634 -0.0067673 0)
(0.889093 -0.006601 0)
(0.89344 -0.00643242 0)
(0.897674 -0.00626203 0)
(0.901793 -0.00609029 0)
(0.905797 -0.00591762 0)
(0.909685 -0.00574443 0)
(0.913458 -0.0055711 0)
(0.917115 -0.00539798 0)
(0.920656 -0.00522539 0)
(0.924082 -0.00505364 0)
(0.927394 -0.00488298 0)
(0.930592 -0.00471367 0)
(0.933678 -0.00454595 0)
(0.936653 -0.00438007 0)
(0.939517 -0.00421625 -1.67618e-41)
(0.942273 -0.00405477 -1.72002e-41)
(0.944921 -0.0038959 0)
(0.947465 -0.00373994 0)
(0.949905 -0.00358715 0)
(0.952244 -0.00343781 0)
(0.954485 -0.00329217 0)
(0.95663 -0.00315044 0)
(0.958682 -0.0030128 0)
(0.960643 -0.00287939 0)
(0.962516 -0.00275032 0)
(0.964305 -0.00262567 0)
(0.966012 -0.00250547 0)
(0.967641 -0.00238975 0)
(0.969194 -0.0022785 0)
(0.970674 -0.00217169 0)
(0.972085 -0.00206927 0)
(0.973429 -0.00197118 0)
(0.974708 -0.00187734 0)
(0.975927 -0.00178766 0)
(0.977087 -0.00170201 0)
(0.978192 -0.00162029 0)
(0.979244 -0.00154237 0)
(0.980244 -0.00146812 0)
(0.981197 -0.00139739 0)
(0.982104 -0.00133006 0)
(0.982967 -0.00126596 0)
(0.983788 -0.00120497 0)
(0.98457 -0.00114695 0)
(0.985314 -0.00109175 0)
(0.986023 -0.00103924 0)
(0.986697 -0.000989284 0)
(0.987339 -0.00094176 0)
(0.98795 -0.00089654 0)
(0.988532 -0.000853501 0)
(0.989086 -0.000812522 0)
(0.989613 -0.000773488 0)
(0.990115 -0.000736288 0)
(0.990593 -0.000700814 0)
(0.991047 -0.000666967 0)
(0.99148 -0.000634654 0)
(0.991892 -0.000603788 0)
(0.992284 -0.000574293 0)
(0.992656 -0.0005461 0)
(0.99301 -0.000519151 0)
(0.993347 -0.000493392 0)
(0.993667 -0.00046878 0)
(0.993971 -0.000445274 0)
(0.994259 -0.000422841 0)
(0.994533 -0.00040145 0)
(0.994793 -0.00038107 0)
(0.99504 -0.000361673 0)
(0.995274 -0.000343232 0)
(0.995497 -0.000325717 0)
(0.995708 -0.000309098 0)
(0.995908 -0.000293344 0)
(0.996098 -0.000278423 0)
(0.996278 -0.000264301 0)
(0.996449 -0.000250946 0)
(0.996612 -0.000238321 0)
(0.996766 -0.000226392 0)
(0.996913 -0.000215125 0)
(0.997052 -0.000204484 0)
(0.997184 -0.000194437 0)
(0.99731 -0.000184949 0)
(0.99743 -0.000175989 0)
(0.997544 -0.000167524 0)
(0.997653 -0.000159524 0)
(0.997757 -0.00015196 0)
(0.997855 -0.000144803 0)
(0.997949 -0.000138025 0)
(0.998039 -0.000131601 0)
(0.998124 -0.000125505 0)
(0.998206 -0.000119713 0)
(0.998284 -0.000114205 0)
(0.998358 -0.000108957 0)
(0.998428 -0.000103952 0)
(0.998496 -9.91709e-05 0)
(0.99856 -9.45975e-05 0)
(0.998622 -9.02172e-05 0)
(0.99868 -8.60166e-05 0)
(0.998736 -8.19839e-05 0)
(0.99879 -7.81087e-05 0)
(0.99884 -7.43822e-05 0)
(0.998889 -7.07964e-05 0)
(0.998935 -6.73448e-05 0)
(0.998978 -6.40218e-05 0)
(0.99902 -6.08225e-05 0)
(0.999059 -5.77431e-05 0)
(0.999097 -5.478e-05 0)
(0.999132 -5.19305e-05 0)
(0.999166 -4.91922e-05 0)
(0.999198 -4.65628e-05 0)
(0.999228 -4.40404e-05 0)
(0.999256 -4.16232e-05 0)
(0.999283 -3.93096e-05 0)
(0.999308 -3.70979e-05 0)
(0.999332 -3.49863e-05 0)
(0.999355 -3.29732e-05 0)
(0.999376 -3.10568e-05 0)
(0.999396 -2.92351e-05 0)
(0.999415 -2.75063e-05 0)
(0.999433 -2.58682e-05 0)
(0.999449 -2.43187e-05 0)
(0.999465 -2.28556e-05 0)
(0.99948 -2.14764e-05 0)
(0.999494 -2.01787e-05 0)
(0.999507 -1.89601e-05 0)
(0.999519 -1.7818e-05 0)
(0.99953 -1.67498e-05 0)
(0.999541 -1.57528e-05 0)
(0.999551 -1.48244e-05 0)
(0.999561 -1.39618e-05 0)
(0.99957 -1.31625e-05 0)
(0.999578 -1.24236e-05 0)
(0.999586 -1.17425e-05 0)
(0.999594 -1.11164e-05 0)
(0.999601 -1.05428e-05 0)
(0.999608 -1.00189e-05 0)
(0.999614 -9.54215e-06 0)
(0.999621 -9.10995e-06 0)
(0.999626 -8.71975e-06 0)
(0.999632 -8.36903e-06 0)
(0.999638 -8.05532e-06 0)
(0.999643 -7.7762e-06 0)
(0.999648 -7.5293e-06 0)
(0.999653 -7.31232e-06 0)
(0.999658 -7.123e-06 0)
(0.999662 -6.95916e-06 0)
(0.999667 -6.81869e-06 0)
(0.999671 -6.69954e-06 0)
(0.999676 -6.59974e-06 0)
(0.99968 -6.51739e-06 0)
(0.999684 -6.45068e-06 0)
(0.999689 -6.39788e-06 0)
(0.999693 -6.35733e-06 0)
(0.999697 -6.32745e-06 0)
(0.999701 -6.30676e-06 0)
(0.999706 -6.29385e-06 0)
(0.99971 -6.28738e-06 0)
(0.999714 -6.2861e-06 0)
(0.999718 -6.28884e-06 0)
(0.999722 -6.29447e-06 0)
(0.999727 -6.30198e-06 0)
(0.999731 -6.31037e-06 0)
(0.999735 -6.31875e-06 0)
(0.999739 -6.32625e-06 0)
(0.999743 -6.33209e-06 0)
(0.999748 -6.3355e-06 0)
(0.999752 -6.33578e-06 0)
(0.999756 -6.33228e-06 0)
(0.99976 -6.32438e-06 0)
(0.999765 -6.31149e-06 0)
(0.999769 -6.29307e-06 0)
(0.999773 -6.26862e-06 0)
(0.999777 -6.23765e-06 0)
(0.999781 -6.19973e-06 0)
(0.999785 -6.15445e-06 0)
(0.999789 -6.10147e-06 0)
(0.999793 -6.04047e-06 0)
(0.999798 -5.97117e-06 0)
(0.999801 -5.89336e-06 0)
(0.999805 -5.80689e-06 0)
(0.999809 -5.71167e-06 0)
(0.999813 -5.60768e-06 0)
(0.999817 -5.495e-06 0)
(0.99982 -5.37377e-06 0)
(0.999824 -5.24425e-06 0)
(0.999827 -5.10679e-06 0)
(0.999831 -4.96184e-06 0)
(0.999834 -4.80998e-06 0)
(0.999837 -4.65188e-06 0)
(0.99984 -4.48832e-06 0)
(0.999843 -4.3202e-06 0)
(0.999846 -4.14848e-06 0)
(0.999849 -3.97423e-06 0)
(0.999851 -3.79857e-06 0)
(0.999854 -3.62267e-06 0)
(0.999856 -3.44771e-06 0)
(0.999858 -3.27487e-06 0)
(0.99986 -3.10532e-06 0)
(0.999862 -2.94014e-06 0)
(0.999864 -2.78036e-06 0)
(0.999866 -2.6269e-06 0)
(0.999868 -2.48057e-06 0)
(0.999869 -2.34206e-06 0)
(0.999871 -2.21193e-06 0)
(0.999872 -2.09063e-06 0)
(0.999874 -1.97849e-06 0)
(0.999875 -1.87577e-06 0)
(0.999876 -1.78264e-06 0)
(0.999877 -1.69924e-06 0)
(0.999878 -1.62567e-06 0)
(0.99988 -1.56202e-06 0)
(0.999881 -1.50835e-06 0)
(0.999882 -1.46471e-06 0)
(0.999882 -1.43109e-06 0)
(0.999883 -1.40736e-06 0)
(0.999884 -1.3933e-06 0)
(0.999885 -1.38846e-06 0)
(0.999886 -1.39214e-06 0)
(0.999887 -1.40336e-06 0)
(0.999888 -1.42083e-06 0)
(0.999889 -1.44295e-06 0)
(0.99989 -1.46787e-06 0)
(0.999891 -1.49356e-06 0)
(0.999892 -1.51794e-06 0)
(0.999893 -1.53903e-06 0)
(0.999894 -1.55508e-06 0)
(0.999895 -1.56477e-06 0)
(0.999896 -1.56731e-06 0)
(0.999897 -1.56253e-06 0)
(0.999898 -1.55096e-06 0)
(0.999899 -1.53376e-06 0)
(0.9999 -1.51262e-06 0)
(0.999901 -1.48967e-06 0)
(0.999902 -1.46723e-06 0)
(0.999903 -1.44767e-06 0)
(0.999904 -1.43315e-06 0)
(0.999905 -1.4255e-06 0)
(0.999906 -1.42609e-06 0)
(0.999907 -1.4357e-06 0)
(0.999908 -1.45454e-06 0)
(0.999909 -1.48226e-06 0)
(0.99991 -1.51799e-06 0)
(0.999911 -1.56044e-06 0)
(0.999912 -1.60806e-06 0)
(0.999913 -1.65905e-06 0)
(0.999914 -1.71159e-06 0)
(0.999915 -1.76387e-06 0)
(0.999916 -1.8142e-06 0)
(0.999917 -1.86107e-06 0)
(0.999919 -1.90321e-06 0)
(0.99992 -1.9396e-06 0)
(0.999921 -1.96949e-06 0)
(0.999922 -1.99239e-06 0)
(0.999924 -2.00803e-06 0)
(0.999925 -2.0164e-06 0)
(0.999926 -2.01763e-06 0)
(0.999928 -2.01203e-06 0)
(0.999929 -2.00002e-06 0)
(0.999931 -1.9821e-06 0)
(0.999932 -1.95885e-06 0)
(0.999933 -1.93086e-06 0)
(0.999934 -1.89875e-06 0)
(0.999936 -1.86312e-06 0)
(0.999937 -1.82457e-06 0)
(0.999938 -1.78364e-06 0)
(0.999939 -1.74086e-06 0)
(0.99994 -1.6967e-06 0)
(0.999942 -1.6516e-06 0)
(0.999943 -1.60593e-06 0)
(0.999944 -1.56004e-06 0)
(0.999945 -1.51423e-06 0)
(0.999946 -1.46875e-06 0)
(0.999947 -1.42381e-06 0)
(0.999948 -1.3796e-06 0)
(0.999949 -1.33626e-06 0)
(0.999949 -1.29391e-06 0)
(0.99995 -1.25265e-06 0)
(0.999951 -1.21254e-06 0)
(0.999952 -1.17365e-06 0)
(0.999953 -1.136e-06 0)
(0.999953 -1.09961e-06 0)
(0.999954 -1.06449e-06 0)
(0.999955 -1.03065e-06 0)
(0.999955 -9.98056e-07 0)
(0.999956 -9.66705e-07 0)
(0.999957 -9.3657e-07 0)
(0.999957 -9.07621e-07 0)
(0.999958 -8.79826e-07 0)
(0.999959 -8.5315e-07 0)
(0.999959 -8.27556e-07 0)
(0.99996 -8.03006e-07 0)
(0.99996 -7.79461e-07 0)
(0.999961 -7.56882e-07 0)
(0.999961 -7.35228e-07 0)
(0.999962 -7.14461e-07 0)
(0.999962 -6.94542e-07 0)
(0.999963 -6.75434e-07 0)
(0.999963 -6.57099e-07 0)
(0.999964 -6.39501e-07 0)
(0.999964 -6.22605e-07 0)
(0.999964 -6.06378e-07 0)
(0.999965 -5.90787e-07 0)
(0.999965 -5.75801e-07 0)
(0.999966 -5.61389e-07 0)
(0.999966 -5.47523e-07 0)
(0.999966 -5.34175e-07 0)
(0.999967 -5.21318e-07 0)
(0.999967 -5.08927e-07 0)
(0.999967 -4.96978e-07 0)
(0.999968 -4.85448e-07 0)
(0.999968 -4.74316e-07 0)
(0.999968 -4.63558e-07 0)
(0.999969 -4.5316e-07 0)
(0.999969 -4.43081e-07 0)
(0.999969 -4.334e-07 0)
(0.999969 -4.2368e-07 0)
(0.99997 -4.15721e-07 0)
(0.99997 -4.01612e-07 0)
(-0.0151789 0.0477589 0)
(-0.0117815 0.016315 0)
(-0.0728496 -0.0239557 0)
(-0.159382 -0.0184118 0)
(-0.164972 0.00190951 0)
(-0.142265 0.0693547 0)
(-0.147718 0.079442 0)
(-0.226931 0.057798 0)
(-0.0305222 -0.101086 0)
(0.151664 -0.16794 0)
(0.321676 -0.0992049 0)
(0.435373 -0.00628043 0)
(0.183614 -0.0391311 0)
(0.0882428 -0.0687183 0)
(0.0880994 -0.0800976 0)
(0.0981051 -0.102362 0)
(0.0987472 -0.101752 0)
(0.110568 -0.0651884 0)
(0.125833 -0.011452 0)
(0.163562 0.0186056 0)
(0.188636 0.018717 0)
(0.208517 0.0066386 0)
(0.217645 -0.00014879 0)
(0.218853 0.00296851 0)
(0.217054 0.00669562 0)
(0.216122 0.0077099 0)
(0.219112 0.00309285 0)
(0.224763 -0.00511631 0)
(0.230936 -0.0145411 0)
(0.235364 -0.0228888 0)
(0.239047 -0.0238036 0)
(0.242304 -0.0221735 0)
(0.245539 -0.0215011 0)
(0.249635 -0.0238172 0)
(0.253845 -0.0257126 0)
(0.257034 -0.0257166 0)
(0.258484 -0.0249342 0)
(0.259921 -0.0241555 0)
(0.261105 -0.0232881 0)
(0.261429 -0.0223666 0)
(0.260833 -0.0214492 0)
(0.259734 -0.0205666 0)
(0.259262 -0.0197976 0)
(0.261108 -0.0192495 0)
(0.266815 -0.0189636 0)
(0.276744 -0.0188395 0)
(0.289921 -0.018728 0)
(0.304969 -0.0185539 0)
(0.320621 -0.0183014 0)
(0.335878 -0.017975 0)
(0.35009 -0.0175904 0)
(0.362977 -0.0171687 0)
(0.374584 -0.0167377 0)
(0.385264 -0.0163347 0)
(0.395613 -0.0159958 0)
(0.406291 -0.0157384 0)
(0.417815 -0.0155567 0)
(0.430384 -0.0154341 0)
(0.44382 -0.015358 0)
(0.457653 -0.0153284 0)
(0.47129 -0.01535 0)
(0.484215 -0.0154165 0)
(0.4961 -0.0155047 0)
(0.506825 -0.0155806 0)
(0.51645 -0.0156094 0)
(0.525166 -0.0155587 0)
(0.533239 -0.0153994 0)
(0.540926 -0.0151054 0)
(0.548402 -0.0146599 0)
(0.555706 -0.0140648 0)
(0.562754 -0.013342 0)
(0.569413 -0.0125369 0)
(0.575571 -0.011721 0)
(0.581179 -0.0109995 0)
(0.586395 -0.0104912 0)
(0.591456 -0.0103389 0)
(0.596557 -0.0104791 0)
(0.60133 -0.00976327 0)
(0.605123 -0.00953073 0)
(0.608448 -0.0100691 0)
(0.61162 -0.0108441 0)
(0.614621 -0.01158 0)
(0.617485 -0.012258 0)
(0.620306 -0.0128979 0)
(0.623178 -0.0135037 0)
(0.626187 -0.0140732 0)
(0.629393 -0.01461 0)
(0.632818 -0.0151171 0)
(0.636464 -0.0156104 0)
(0.640309 -0.0160992 0)
(0.644337 -0.0165641 0)
(0.648541 -0.0169205 0)
(0.652861 -0.0169623 0)
(0.657126 -0.0167196 0)
(0.661277 -0.016644 0)
(0.665477 -0.0167405 0)
(0.669824 -0.0168918 0)
(0.674336 -0.0170564 0)
(0.679041 -0.017214 0)
(0.683973 -0.0173444 0)
(0.689155 -0.01743 0)
(0.694599 -0.0174527 0)
(0.700291 -0.0173702 0)
(0.70611 -0.017111 0)
(0.711909 -0.0167764 0)
(0.717726 -0.0165891 0)
(0.723717 -0.0165631 0)
(0.729937 -0.0165927 0)
(0.736348 -0.0165946 0)
(0.742891 -0.0165115 0)
(0.749473 -0.0163052 0)
(0.755986 -0.0160169 0)
(0.762401 -0.0157669 0)
(0.768773 -0.0155967 0)
(0.775143 -0.0154597 0)
(0.781494 -0.0153082 0)
(0.787776 -0.0151217 0)
(0.793948 -0.0149175 0)
(0.800005 -0.014732 0)
(0.805973 -0.0145706 0)
(0.811866 -0.0144117 0)
(0.817676 -0.0142389 0)
(0.823391 -0.0140546 0)
(0.829013 -0.0138677 0)
(0.834549 -0.0136779 0)
(0.840001 -0.0134787 0)
(0.845366 -0.013268 0)
(0.850641 -0.0130485 0)
(0.855823 -0.0128209 0)
(0.860912 -0.0125842 0)
(0.865904 -0.0123384 0)
(0.870794 -0.0120848 0)
(0.875582 -0.0118242 0)
(0.880263 -0.0115569 0)
(0.884836 -0.0112839 0)
(0.889298 -0.0110062 0)
(0.893648 -0.0107247 0)
(0.897885 -0.0104402 0)
(0.902006 -0.0101534 0)
(0.906012 -0.0098651 0)
(0.909901 -0.00957598 0)
(0.913674 -0.00928665 0)
(0.917331 -0.00899771 0)
(0.920872 -0.00870967 0)
(0.924298 -0.00842305 0)
(0.927609 -0.00813829 0)
(0.930806 -0.0078558 0)
(0.93389 -0.00757595 0)
(0.936862 -0.00729915 0)
(0.939724 -0.00702578 0)
(0.942477 -0.00675629 0)
(0.945123 -0.00649116 0)
(0.947663 -0.00623085 0)
(0.950099 -0.00597587 0)
(0.952434 -0.00572665 0)
(0.95467 -0.00548363 0)
(0.95681 -0.00524716 0)
(0.958856 -0.00501755 0)
(0.960812 -0.00479504 0)
(0.96268 -0.0045798 0)
(0.964464 -0.00437194 0)
(0.966165 -0.00417155 0)
(0.967788 -0.00397865 0)
(0.969335 -0.00379322 0)
(0.97081 -0.00361521 0)
(0.972215 -0.00344455 0)
(0.973553 -0.00328113 0)
(0.974828 -0.00312479 0)
(0.976041 -0.0029754 0)
(0.977196 -0.00283276 0)
(0.978296 -0.00269667 0)
(0.979343 -0.00256692 0)
(0.980339 -0.00244329 0)
(0.981287 -0.00232555 0)
(0.98219 -0.00221345 0)
(0.983049 -0.00210676 0)
(0.983866 -0.00200525 0)
(0.984644 -0.00190868 0)
(0.985385 -0.00181681 0)
(0.98609 -0.00172943 0)
(0.986761 -0.0016463 0)
(0.9874 -0.00156723 0)
(0.988008 -0.00149199 0)
(0.988587 -0.00142039 0)
(0.989138 -0.00135222 0)
(0.989663 -0.00128728 0)
(0.990163 -0.0012254 0)
(0.990638 -0.00116638 0)
(0.991091 -0.00111007 0)
(0.991522 -0.0010563 0)
(0.991932 -0.00100493 0)
(0.992322 -0.00095584 0)
(0.992693 -0.000908904 0)
(0.993045 -0.000864027 0)
(0.99338 -0.000821125 0)
(0.993699 -0.000780124 0)
(0.994001 -0.000740962 0)
(0.994288 -0.000703584 0)
(0.994561 -0.000667938 0)
(0.99482 -0.000633979 0)
(0.995065 -0.000601661 0)
(0.995298 -0.000570938 0)
(0.995519 -0.000541762 0)
(0.995729 -0.000514084 0)
(0.995928 -0.000487853 0)
(0.996117 -0.000463014 0)
(0.996296 -0.000439511 0)
(0.996466 -0.000417288 0)
(0.996628 -0.000396287 0)
(0.996781 -0.000376447 0)
(0.996927 -0.000357711 0)
(0.997066 -0.000340022 0)
(0.997197 -0.00032332 0)
(0.997323 -0.000307552 0)
(0.997442 -0.000292662 0)
(0.997555 -0.000278597 0)
(0.997663 -0.000265306 0)
(0.997766 -0.000252739 0)
(0.997864 -0.000240849 0)
(0.997958 -0.00022959 0)
(0.998047 -0.000218918 0)
(0.998132 -0.000208791 0)
(0.998213 -0.000199169 0)
(0.998291 -0.000190016 0)
(0.998365 -0.000181297 0)
(0.998435 -0.000172979 0)
(0.998502 -0.000165032 0)
(0.998566 -0.000157429 0)
(0.998628 -0.000150146 0)
(0.998686 -0.00014316 0)
(0.998742 -0.000136453 0)
(0.998795 -0.000130007 0)
(0.998845 -0.000123806 0)
(0.998893 -0.000117839 0)
(0.998939 -0.000112095 0)
(0.998983 -0.000106563 0)
(0.999024 -0.000101237 0)
(0.999063 -9.61096e-05 0)
(0.9991 -9.11757e-05 0)
(0.999136 -8.64304e-05 0)
(0.999169 -8.18698e-05 0)
(0.999201 -7.74904e-05 0)
(0.999231 -7.3289e-05 0)
(0.999259 -6.92628e-05 0)
(0.999286 -6.5409e-05 0)
(0.999311 -6.17248e-05 0)
(0.999335 -5.82075e-05 0)
(0.999358 -5.48542e-05 0)
(0.999379 -5.1662e-05 0)
(0.999399 -4.86278e-05 0)
(0.999417 -4.57484e-05 0)
(0.999435 -4.30203e-05 0)
(0.999452 -4.04398e-05 0)
(0.999467 -3.80034e-05 0)
(0.999482 -3.5707e-05 0)
(0.999495 -3.35466e-05 0)
(0.999508 -3.1518e-05 0)