/*--------------------------------*- C++ -*----------------------------------*\
| =========                 |                                                 |
| \\      /  F ield         | OpenFOAM: The Open Source CFD Toolbox           |
|  \\    /   O peration     | Version:  v2006                                 |
|   \\  /    A nd           | Website:  www.openfoam.com                      |
|    \\/     M anipulation  |                                                 |
\*---------------------------------------------------------------------------*/
FoamFile
{
    version     2.0;
    format      ascii;
    class       volScalarField;
    location    "0";
    object      p;
}
// * * * * * * * * * * * * * * * * * * * * * * * * * * * * * * * * * * * * * //

dimensions      [1 -1 -2 0 0 0 0];


internalField   nonuniform List<scalar> 
20000
(
1.60203e-05
1.61051e-05
1.62927e-05
1.65785e-05
1.69633e-05
1.7446e-05
1.80297e-05
1.87182e-05
1.95148e-05
2.04234e-05
2.14482e-05
2.25945e-05
2.38679e-05
2.52746e-05
2.68217e-05
2.85165e-05
3.03667e-05
3.23806e-05
3.45667e-05
3.69337e-05
3.9491e-05
4.22478e-05
4.52134e-05
4.84047e-05
5.1821e-05
5.54748e-05
5.9376e-05
6.3533e-05
6.79531e-05
7.26419e-05
7.76031e-05
8.28378e-05
8.8344e-05
9.41149e-05
0.000100139
0.000106397
0.000112864
0.000119502
0.000126265
0.000133089
0.000139894
0.000146581
0.000153022
0.000159061
0.000164507
0.000169129
0.000172641
0.000174697
0.000174885
0.000172719
0.000167619
0.000158893
0.00014572
0.000127141
0.000102074
6.93151e-05
2.75298e-05
-2.47429e-05
-8.90277e-05
-0.00016676
-0.000259065
-0.000366475
-0.000488624
-0.000623574
-0.000761111
-0.000888027
-0.00103589
-0.0011762
-0.00128988
-0.00136268
-0.00138958
-0.00137954
-0.00135682
-0.00135117
-0.00137968
-0.00143414
-0.00148438
-0.0014873
-0.0014085
-0.00121954
-0.000903955
-0.000450489
0.000150045
0.000902993
0.00180809
0.00285935
0.00404312
0.0053352
0.00670218
0.00810721
0.00951569
0.0108975
0.0122272
0.0134777
0.0146339
0.0156875
0.0166297
0.0174541
0.0181548
0.0187259
0.0191614
0.0194548
0.0196002
0.0195912
0.0194334
0.0191491
0.0186095
0.0178823
0.0169556
0.0158145
0.014441
0.0128189
0.0109386
0.00880195
0.00642221
0.00384009
0.00111782
-0.00165816
-0.00438125
-0.00693422
-0.00920177
-0.0110843
-0.0125107
-0.0134462
-0.0138957
-0.0139011
-0.013533
-0.012873
-0.0120006
-0.0110035
-0.00993709
-0.00884384
-0.00775912
-0.00671693
-0.00575338
-0.00490359
-0.00419015
-0.00361288
-0.00314689
-0.00275224
-0.00239182
-0.00204514
-0.0017083
-0.00138565
-0.00108349
-0.000807626
-0.000562107
-0.000348647
-0.000166951
-1.53487e-05
0.000108696
0.000208164
0.000286156
0.000345689
0.000389572
0.000420347
0.000440264
0.00045128
0.000455081
0.000453103
0.00044656
0.000436469
0.00042368
0.000408895
0.000392693
0.000375548
0.000357845
0.000339894
0.000321942
0.000304184
0.000286772
0.000269822
0.00025342
0.000237627
0.000222484
0.000208018
0.00019424
0.000181152
0.000168747
0.000157013
0.000145931
0.00013548
0.000125638
0.000116383
0.000107681
9.94895e-05
9.17998e-05
8.45831e-05
7.78114e-05
7.14582e-05
6.54985e-05
5.99082e-05
5.46641e-05
4.97569e-05
4.51628e-05
4.08532e-05
3.68231e-05
3.30513e-05
2.95503e-05
2.62343e-05
1.60055e-05
1.60901e-05
1.62763e-05
1.65607e-05
1.69445e-05
1.74263e-05
1.80094e-05
1.86976e-05
1.94945e-05
2.0404e-05
2.14304e-05
2.25789e-05
2.38548e-05
2.52644e-05
2.68143e-05
2.85114e-05
3.03631e-05
3.23773e-05
3.45627e-05
3.69283e-05
3.9484e-05
4.22396e-05
4.52055e-05
4.83882e-05
5.18014e-05
5.54534e-05
5.93535e-05
6.35097e-05
6.79292e-05
7.26176e-05
7.75786e-05
8.28136e-05
8.83204e-05
9.40924e-05
0.000100118
0.000106379
0.000112849
0.000119492
0.00012626
0.000133091
0.000139906
0.000146604
0.000153059
0.000159115
0.000164583
0.000169231
0.000172774
0.000174868
0.0001751
0.000172986
0.000167949
0.000159298
0.00014621
0.000127729
0.00010277
7.01307e-05
2.84756e-05
-2.36584e-05
-8.78164e-05
-0.000165486
-0.000257814
-0.000365159
-0.0004868
-0.000621846
-0.000773789
-0.000940941
-0.00109316
-0.00122451
-0.00132651
-0.00139065
-0.00141285
-0.00140147
-0.00137956
-0.00137545
-0.00140476
-0.00145826
-0.00150578
-0.00150406
-0.00142024
-0.00122628
-0.000905826
-0.000447416
0.000158457
0.000917234
0.00182844
0.0028857
0.00407481
0.00537088
0.00673995
0.00814505
0.00955133
0.0109275
0.0122464
0.0134907
0.0146457
0.0156986
0.0166408
0.0174654
0.0181666
0.0187382
0.0191742
0.0194679
0.0196119
0.0195978
0.0194109
0.0190326
0.0185115
0.0178057
0.0168979
0.0157699
0.0144069
0.012795
0.0109247
0.00879868
0.00642941
0.00385641
0.00114162
-0.00162878
-0.00434837
-0.00689971
-0.00916705
-0.0110503
-0.0124778
-0.0134145
-0.0138654
-0.0138723
-0.0135053
-0.0128504
-0.0119943
-0.0110033
-0.00993589
-0.00884102
-0.00775419
-0.00670928
-0.00574305
-0.0048916
-0.0041783
-0.00360312
-0.0031404
-0.0027488
-0.0023902
-0.00204403
-0.00170695
-0.00138381
-0.00108117
-0.000804948
-0.000559272
-0.000345826
-0.000164268
-1.28825e-05
0.000110902
0.000210097
0.000287822
0.000347104
0.000390759
0.000421332
0.000441072
0.000451936
0.000455607
0.00045352
0.000446884
0.000436716
0.000423863
0.000409025
0.00039278
0.0003756
0.000357869
0.000339895
0.000321926
0.000304154
0.000286732
0.000269773
0.000253365
0.000237568
0.000222424
0.000207956
0.000194177
0.000181089
0.000168684
0.00015695
0.000145869
0.000135419
0.000125576
0.000116311
0.000107603
9.94282e-05
9.17508e-05
8.45431e-05
7.77785e-05
7.14312e-05
6.54769e-05
5.98923e-05
5.46567e-05
4.97456e-05
4.5142e-05
4.08319e-05
3.68033e-05
3.30301e-05
2.95547e-05
2.61758e-05
1.59902e-05
1.60748e-05
1.62617e-05
1.65467e-05
1.6931e-05
1.74132e-05
1.79964e-05
1.86845e-05
1.94809e-05
2.03895e-05
2.14145e-05
2.2561e-05
2.38345e-05
2.52411e-05
2.67875e-05
2.84809e-05
3.0329e-05
3.23401e-05
3.45229e-05
3.68866e-05
3.94409e-05
4.21954e-05
4.516e-05
4.83427e-05
5.17558e-05
5.54076e-05
5.93068e-05
6.3462e-05
6.78807e-05
7.25685e-05
7.75295e-05
8.2765e-05
8.82731e-05
9.40473e-05
0.000100076
0.000106342
0.000112818
0.00011947
0.00012625
0.000133095
0.000139929
0.00014665
0.000153133
0.000159224
0.000164734
0.000169434
0.00017304
0.000175208
0.000175529
0.00017352
0.000168608
0.000160106
0.00014719
0.000128903
0.000104162
7.17637e-05
3.03691e-05
-2.15031e-05
-8.5417e-05
-0.000162849
-0.000254984
-0.000362613
-0.000485954
-0.000623349
-0.000769482
-0.000919961
-0.00106334
-0.00119622
-0.0013044
-0.00137352
-0.00139666
-0.00138195
-0.00135484
-0.0013477
-0.00137929
-0.00144045
-0.00149641
-0.00150954
-0.00143545
-0.00124972
-0.000936303
-0.00048413
0.000116397
0.000870961
0.00177933
0.00283575
0.00402676
0.00532745
0.00670314
0.00811603
0.00953071
0.0109162
0.012246
0.0134997
0.0146601
0.0157163
0.0166606
0.0174869
0.0181894
0.0187623
0.0191994
0.0194946
0.0196422
0.0196375
0.0194746
0.0191342
0.0186262
0.0179173
0.0170021
0.0158679
0.0144992
0.0128811
0.0110034
0.00886119
0.00647605
0.00388109
0.00113905
-0.00166193
-0.00441313
-0.00699421
-0.00928635
-0.0111869
-0.0126223
-0.0135573
-0.0139974
-0.0139862
-0.0135972
-0.0129192
-0.0120393
-0.0110281
-0.00994853
-0.00884267
-0.00774829
-0.00669621
-0.00572363
-0.00486824
-0.0041549
-0.00358379
-0.00312759
-0.00274212
-0.00238711
-0.00204191
-0.0017043
-0.00138015
-0.0010765
-0.000799581
-0.00055359
-0.000340174
-0.000158894
-7.94668e-06
0.000115317
0.000213963
0.000291151
0.000349931
0.000393131
0.0004233
0.000442686
0.000453246
0.000456658
0.000454351
0.000447531
0.000437209
0.000424228
0.000409285
0.000392954
0.000375704
0.000357917
0.000339898
0.000321893
0.000304094
0.00028665
0.000269676
0.000253257
0.000237453
0.000222303
0.000207834
0.000194056
0.000180969
0.000168568
0.000156839
0.000145765
0.000135322
0.000125488
0.000116232
0.000107529
9.93531e-05
9.16739e-05
8.44658e-05
7.77021e-05
7.13566e-05
6.54044e-05
5.98221e-05
5.45879e-05
4.96788e-05
4.50781e-05
4.07714e-05
3.67462e-05
3.29778e-05
2.94951e-05
2.61226e-05
1.59647e-05
1.60491e-05
1.62354e-05
1.65196e-05
1.69028e-05
1.73838e-05
1.79657e-05
1.86524e-05
1.94473e-05
2.03543e-05
2.13777e-05
2.25228e-05
2.37949e-05
2.52004e-05
2.67459e-05
2.84385e-05
3.02858e-05
3.2296e-05
3.44776e-05
3.68396e-05
3.93916e-05
4.21433e-05
4.51045e-05
4.82842e-05
5.16937e-05
5.53421e-05
5.92386e-05
6.33917e-05
6.78086e-05
7.24954e-05
7.74561e-05
8.26923e-05
8.82021e-05
9.39796e-05
0.000100013
0.000106286
0.000112773
0.000119438
0.000126234
0.000133102
0.000139963
0.000146718
0.000153244
0.000159386
0.00016496
0.000169737
0.000173437
0.000175717
0.00017617
0.000174318
0.000169595
0.000161315
0.000148658
0.000130663
0.000106248
7.4208e-05
3.32054e-05
-1.8252e-05
-8.17741e-05
-0.00015896
-0.000251127
-0.000358885
-0.000481792
-0.000618446
-0.000767261
-0.000926074
-0.00108185
-0.00122324
-0.00133525
-0.00140463
-0.00142471
-0.0014039
-0.00136995
-0.00135899
-0.00139201
-0.00145893
-0.00152416
-0.00154053
-0.00146991
-0.00128505
-0.000971122
-0.000517819
8.48244e-05
0.000842831
0.001756
0.00281897
0.00401861
0.00532938
0.00671502
0.00813629
0.00955721
0.0109466
0.0122782
0.0135317
0.014692
0.0157485
0.0166936
0.0175208
0.0182246
0.018799
0.0192378
0.0195343
0.0196812
0.0196713
0.0194959
0.0191437
0.0186238
0.0179163
0.0170088
0.0158847
0.0145264
0.0129174
0.0110451
0.00890911
0.00652181
0.00391861
0.00116213
-0.0016589
-0.00443378
-0.0070392
-0.00935295
-0.0112692
-0.0127124
-0.0136465
-0.0140774
-0.0140513
-0.013645
-0.0129509
-0.0120576
-0.0110368
-0.00994715
-0.00883632
-0.00773432
-0.0066735
-0.00569244
-0.00483174
-0.00411877
-0.00355416
-0.00310818
-0.0027322
-0.00238267
-0.00203884
-0.00170038
-0.00137465
-0.00106947
-0.000791484
-0.000545028
-0.000331666
-0.000150814
-5.32242e-07
0.000121942
0.000219762
0.000296143
0.000354167
0.000396683
0.000426245
0.000445102
0.000455206
0.000458229
0.000455593
0.000448497
0.000437945
0.000424773
0.000409673
0.000393213
0.000375859
0.000357987
0.000339901
0.000321843
0.000304002
0.000286527
0.00026953
0.000253094
0.000237278
0.000222121
0.000207648
0.000193868
0.000180782
0.000168383
0.000156656
0.000145585
0.000135147
0.000125316
0.000116067
0.000107373
9.9207e-05
9.15396e-05
8.43424e-05
7.75886e-05
7.1252e-05
6.53078e-05
5.97326e-05
5.45045e-05
4.96015e-05
4.50065e-05
4.0704e-05
3.66821e-05
3.29151e-05
2.94313e-05
2.60636e-05
1.59306e-05
1.60148e-05
1.62008e-05
1.64845e-05
1.68673e-05
1.73476e-05
1.79288e-05
1.86144e-05
1.94082e-05
2.03139e-05
2.13358e-05
2.2479e-05
2.3749e-05
2.5152e-05
2.66947e-05
2.8384e-05
3.02278e-05
3.2234e-05
3.44115e-05
3.67695e-05
3.93175e-05
4.20655e-05
4.50232e-05
4.81999e-05
5.16063e-05
5.5252e-05
5.91459e-05
6.32966e-05
6.77117e-05
7.23973e-05
7.73578e-05
8.25949e-05
8.81072e-05
9.38889e-05
9.99294e-05
0.000106212
0.000112712
0.000119394
0.000126213
0.000133109
0.000140007
0.000146808
0.00015339
0.000159601
0.000165259
0.000170139
0.000173963
0.000176392
0.000177021
0.000175378
0.000170905
0.000162922
0.00015061
0.000133005
0.000109023
7.74663e-05
3.69906e-05
-1.39251e-05
-7.69475e-05
-0.000153717
-0.000245575
-0.000353351
-0.000477208
-0.000616173
-0.000767756
-0.000927047
-0.00108234
-0.00122359
-0.00133673
-0.00140617
-0.00142228
-0.00139269
-0.00134855
-0.00133225
-0.00136907
-0.00144792
-0.00152788
-0.00156157
-0.00150356
-0.00132771
-0.00102101
-0.000573896
2.42332e-05
0.000779938
0.00169319
0.0027595
0.0039667
0.00528865
0.00668715
0.00812125
0.00955429
0.0109549
0.0122963
0.0135579
0.0147244
0.0157855
0.016734
0.0175642
0.0182706
0.0188474
0.0192886
0.0195877
0.0197386
0.0197354
0.0195705
0.019234
0.0187256
0.0180271
0.0171251
0.0160044
0.0146479
0.0130382
0.011162
0.00901328
0.00660602
0.00397394
0.00117925
-0.00168732
-0.00451125
-0.00716421
-0.00951857
-0.0114637
-0.0129208
-0.0138527
-0.0142668
-0.0142124
-0.013772
-0.0130436
-0.0121192
-0.0110731
-0.00996586
-0.00883711
-0.00772128
-0.00664647
-0.00565246
-0.00478359
-0.00407057
-0.00351466
-0.00308264
-0.0027196
-0.00237733
-0.00203512
-0.0016953
-0.00136733
-0.00106005
-0.00078062
-0.000533547
-0.000320272
-0.000140008
9.37064e-06
0.000130781
0.000227491
0.00030279
0.000359806
0.000401408
0.000430161
0.000448313
0.00045781
0.000460315
0.000457242
0.000449779
0.000438921
0.000425496
0.000410187
0.000393556
0.000376063
0.000358079
0.000339903
0.000321775
0.000303879
0.000286362
0.000269334
0.000252876
0.000237045
0.000221879
0.000207402
0.000193622
0.00018054
0.000168146
0.000156428
0.000145367
0.000134938
0.000125119
0.00011588
0.000107195
9.90366e-05
9.13764e-05
8.41863e-05
7.74396e-05
7.11103e-05
6.51733e-05
5.96049e-05
5.43831e-05
4.94862e-05
4.4897e-05
4.0599e-05
3.65807e-05
3.28164e-05
2.93342e-05
2.59691e-05
1.58881e-05
1.5972e-05
1.61576e-05
1.64408e-05
1.68226e-05
1.73019e-05
1.78816e-05
1.85656e-05
1.93574e-05
2.02609e-05
2.12803e-05
2.24207e-05
2.36878e-05
2.50878e-05
2.66272e-05
2.83132e-05
3.01535e-05
3.21562e-05
3.43302e-05
3.66846e-05
3.92288e-05
4.19726e-05
4.49259e-05
4.80982e-05
5.15002e-05
5.51415e-05
5.90314e-05
6.31787e-05
6.75911e-05
7.2275e-05
7.72349e-05
8.24731e-05
8.79883e-05
9.37753e-05
9.9824e-05
0.000106118
0.000112634
0.000119338
0.000126185
0.000133118
0.000140061
0.000146919
0.00015357
0.000159867
0.00016563
0.000170638
0.000174618
0.000177232
0.000178079
0.000176697
0.000172535
0.000164924
0.000153042
0.000135924
0.000112486
8.153e-05
4.17146e-05
-8.50338e-06
-7.08523e-05
-0.000147102
-0.000238787
-0.000346866
-0.000471392
-0.000611262
-0.000764442
-0.000926899
-0.00108888
-0.00123882
-0.00135996
-0.00143361
-0.00144731
-0.00140814
-0.00135177
-0.00132873
-0.00136951
-0.00146157
-0.0015593
-0.00160678
-0.00155877
-0.00138833
-0.00108476
-0.000639758
-4.19083e-05
0.000715931
0.00163373
0.00270802
0.00392776
0.00526586
0.00668138
0.00813101
0.00957719
0.0109883
0.0123375
0.0136042
0.014774
0.0158375
0.016788
0.0176202
0.0183288
0.0189082
0.0193521
0.0196539
0.0198066
0.0198036
0.0196373
0.0192997
0.0187891
0.0180922
0.0171955
0.016083
0.0147356
0.0131337
0.0112612
0.00911124
0.00669213
0.00403704
0.00120794
-0.00170269
-0.00457627
-0.00727877
-0.00967616
-0.011652
-0.0131237
-0.0140528
-0.0144479
-0.0143624
-0.0138853
-0.0131215
-0.012167
-0.0110971
-0.00996773
-0.00882913
-0.00769949
-0.00660902
-0.0055996
-0.00472087
-0.00400824
-0.00346403
-0.00305054
-0.00270444
-0.00237137
-0.00203091
-0.00168911
-0.00135818
-0.00104818
-0.000766908
-0.000519079
-0.000305943
-0.000126443
2.17805e-05
0.000141842
0.000237152
0.000311091
0.00036684
0.000407299
0.00043504
0.000452311
0.00046105
0.00046291
0.000459292
0.000451372
0.000440132
0.000426391
0.000410822
0.000393978
0.000376312
0.000358189
0.000339903
0.000321686
0.000303723
0.000286154
0.000269088
0.000252602
0.000236752
0.000221575
0.000207092
0.00019331
0.00018023
0.000167841
0.00015613
0.000145076
0.000134658
0.000124849
0.000115622
0.00010695
9.88061e-05
9.11599e-05
8.39836e-05
7.72502e-05
7.09333e-05
6.50079e-05
5.94501e-05
5.42378e-05
4.93499e-05
4.47686e-05
4.04771e-05
3.6464e-05
3.27037e-05
2.9224e-05
2.58606e-05
1.5837e-05
1.59207e-05
1.61059e-05
1.63882e-05
1.67691e-05
1.7247e-05
1.78252e-05
1.85073e-05
1.9297e-05
2.0198e-05
2.12147e-05
2.23523e-05
2.36162e-05
2.50126e-05
2.65482e-05
2.82302e-05
3.00661e-05
3.20642e-05
3.42332e-05
3.65823e-05
3.9121e-05
4.18593e-05
4.4807e-05
4.7974e-05
5.13708e-05
5.50073e-05
5.88928e-05
6.30363e-05
6.74457e-05
7.21276e-05
7.7087e-05
8.23264e-05
8.78451e-05
9.36383e-05
9.96966e-05
0.000106005
0.00011254
0.00011927
0.000126151
0.000133125
0.000140123
0.000147049
0.000153784
0.000160183
0.00016607
0.000171232
0.000175397
0.000178232
0.000179341
0.000178269
0.00017448
0.000167314
0.000155949
0.000139417
0.000116629
8.63983e-05
4.73848e-05
-1.98684e-06
-6.35344e-05
-0.000139153
-0.000230492
-0.000338623
-0.000463841
-0.000605536
-0.000762057
-0.000929169
-0.00109725
-0.0012535
-0.00137977
-0.00145466
-0.00146206
-0.00140788
-0.00133356
-0.00130044
-0.00134608
-0.00145583
-0.00157633
-0.0016461
-0.00161407
-0.00145382
-0.00115799
-0.000719762
-0.000126345
0.000630249
0.00154996
0.0026308
0.00386352
0.00521994
0.00665559
0.00812426
0.00958739
0.0110131
0.0123742
0.0136499
0.0148264
0.0158951
0.0168499
0.0176858
0.018398
0.0189811
0.0194286
0.0197341
0.0198908
0.0198928
0.019733
0.0194047
0.0189033
0.0182166
0.0173302
0.0162275
0.0148884
0.0132915
0.0114185
0.00925808
0.00681606
0.00412395
0.00124339
-0.00173058
-0.0046739
-0.00744501
-0.00990153
-0.0119196
-0.0134116
-0.0143374
-0.0147075
-0.0145803
-0.0140535
-0.0132412
-0.0122448
-0.0111411
-0.00998945
-0.00882672
-0.00767834
-0.00656701
-0.00553709
-0.00464506
-0.00393231
-0.00340261
-0.00301252
-0.00268761
-0.00236556
-0.00202665
-0.00168199
-0.00134723
-0.0010338
-0.000750273
-0.000501557
-0.00028863
-0.000110091
3.67102e-05
0.000155125
0.000248736
0.000321032
0.000375257
0.000414341
0.000440868
0.000457083
0.000464915
0.000466004
0.000461734
0.000453267
0.000441573
0.000427455
0.000411575
0.000394478
0.000376605
0.000358316
0.000339898
0.000321577
0.000303532
0.000285902
0.00026879
0.000252271
0.0002364
0.000221209
0.00020672
0.000192938
0.000179862
0.000167482
0.000155781
0.00014474
0.000134336
0.000124541
0.000115329
0.000106672
9.85422e-05
9.09097e-05
8.3747e-05
7.70264e-05
7.0722e-05
6.48085e-05
5.92619e-05
5.406e-05
4.91818e-05
4.46092e-05
4.0325e-05
3.63181e-05
3.25624e-05
2.90857e-05
2.57235e-05
1.57775e-05
1.5861e-05
1.60455e-05
1.6327e-05
1.67067e-05
1.71831e-05
1.77595e-05
1.84394e-05
1.92265e-05
2.01246e-05
2.11381e-05
2.22721e-05
2.35321e-05
2.49243e-05
2.64553e-05
2.81324e-05
2.99631e-05
3.19559e-05
3.41193e-05
3.64626e-05
3.89954e-05
4.17276e-05
4.46691e-05
4.78301e-05
5.12209e-05
5.48515e-05
5.87317e-05
6.28705e-05
6.72761e-05
7.19556e-05
7.69141e-05
8.21548e-05
8.76774e-05
9.34777e-05
9.9547e-05
0.000105871
0.000112429
0.000119189
0.000126108
0.000133132
0.000140192
0.000147197
0.000154029
0.000160545
0.000166577
0.000171917
0.000176298
0.00017939
0.000180802
0.000180089
0.000176734
0.000170086
0.000159326
0.000143476
0.000121447
9.20628e-05
5.39902e-05
5.62453e-06
-5.49442e-05
-0.000129767
-0.000220691
-0.000328995
-0.000455152
-0.000598736
-0.000758321
-0.000930063
-0.00110523
-0.00127055
-0.00140595
-0.00148597
-0.00148905
-0.00141893
-0.00132399
-0.0012795
-0.00133193
-0.00146356
-0.00161183
-0.00170562
-0.00168971
-0.00153821
-0.00124832
-0.000815245
-0.000224249
0.000533552
0.00145771
0.00254815
0.00379801
0.00517766
0.00663802
0.00812924
0.00961169
0.0110534
0.0124269
0.0137112
0.0148936
0.0159665
0.0169246
0.0177637
0.0184794
0.0190661
0.0195175
0.0198268
0.0199873
0.0199925
0.0198358
0.0195112
0.0190138
0.0183329
0.0174549
0.0163624
0.0150342
0.0134462
0.0115765
0.00941027
0.00694846
0.00421967
0.00128521
-0.0017571
-0.00477701
-0.00762422
-0.0101466
-0.0122114
-0.0137253
-0.0146462
-0.0149865
-0.0148106
-0.0142267
-0.0133601
-0.0123182
-0.0111787
-0.00999945
-0.00881732
-0.0076496
-0.00651483
-0.0054608
-0.00455287
-0.00384022
-0.00332885
-0.00296821
-0.00266956
-0.00236047
-0.00202266
-0.00167403
-0.00133441
-0.00101679
-0.000730588
-0.000480872
-0.000268251
-9.08956e-05
5.41921e-05
0.000170647
0.000262249
0.000332611
0.000385048
0.000422524
0.000447634
0.000462619
0.000469395
0.000469586
0.000464559
0.000455458
0.000443235
0.000428679
0.00041244
0.000395049
0.000376938
0.000358457
0.000339885
0.000321443
0.000303305
0.000285604
0.000268439
0.000251883
0.000235986
0.000220781
0.000206284
0.000192501
0.000179429
0.000167057
0.000155367
0.000144339
0.000133949
0.000124171
0.000114976
0.000106337
9.82251e-05
9.06108e-05
8.34655e-05
7.67624e-05
7.04743e-05
6.45762e-05
5.90438e-05
5.3855e-05
4.89888e-05
4.44269e-05
4.01518e-05
3.61522e-05
3.24021e-05
2.89293e-05
2.55683e-05
1.57097e-05
1.57928e-05
1.59766e-05
1.62572e-05
1.66354e-05
1.71102e-05
1.76844e-05
1.83618e-05
1.9146e-05
2.00408e-05
2.10506e-05
2.21805e-05
2.34362e-05
2.48236e-05
2.63495e-05
2.80211e-05
2.98461e-05
3.18327e-05
3.39897e-05
3.63263e-05
3.88522e-05
4.15771e-05
4.45114e-05
4.76652e-05
5.10489e-05
5.46729e-05
5.8547e-05
6.26804e-05
6.70818e-05
7.17584e-05
7.67159e-05
8.19579e-05
8.74848e-05
9.3293e-05
9.93748e-05
0.000105717
0.0001123
0.000119094
0.000126056
0.000133136
0.000140267
0.000147361
0.000154303
0.000160953
0.000167148
0.00017269
0.000177317
0.000180701
0.000182456
0.000182151
0.000179288
0.000173233
0.000163165
0.000148094
0.000126932
9.85163e-05
6.15316e-05
1.43424e-05
-4.50756e-05
-0.000118962
-0.000209371
-0.000317753
-0.000444759
-0.000590322
-0.000753571
-0.000931291
-0.0011153
-0.00129143
-0.00143724
-0.00152243
-0.00151871
-0.00142672
-0.00130363
-0.00124291
-0.00130248
-0.00146036
-0.00164195
-0.00176573
-0.00176974
-0.00162921
-0.00134764
-0.000922645
-0.00033656
0.000420614
0.00134768
0.00244719
0.0037157
0.00512182
0.00661062
0.00812775
0.0096326
0.0110932
0.0124815
0.0137766
0.0149666
0.0160452
0.0170081
0.0178516
0.0185718
0.0191632
0.0196195
0.0199336
0.0200988
0.020109
0.0199583
0.0196412
0.0191525
0.0184825
0.0176171
0.0165386
0.0152237
0.0136461
0.0117789
0.00960295
0.00711578
0.00434114
0.00133979
-0.00178676
-0.00490079
-0.0078414
-0.0104446
-0.0125669
-0.014108
-0.0150236
-0.0153282
-0.0150932
-0.01444
-0.0135078
-0.0124112
-0.0112284
-0.010017
-0.00881129
-0.00762051
-0.00645713
-0.00537309
-0.00444496
-0.00373178
-0.00324267
-0.00291832
-0.00265155
-0.00235718
-0.00201949
-0.00166541
-0.00131973
-0.000997067
-0.000707738
-0.000456935
-0.000244752
-6.88322e-05
7.42291e-05
0.000188394
0.00027767
0.000345804
0.000396189
0.000431825
0.000455317
0.0004689
0.000474474
0.000473644
0.000467756
0.000457934
0.000445112
0.00043006
0.000413412
0.000395688
0.000377306
0.000358608
0.000339862
0.000321284
0.00030304
0.000285259
0.000268034
0.000251436
0.000235511
0.000220289
0.000205785
0.000192002
0.000178936
0.000166574
0.000154898
0.000143886
0.000133514
0.000123755
0.000114581
0.000105962
9.78693e-05
9.02743e-05
8.31483e-05
7.64634e-05
7.01928e-05
6.43112e-05
5.87944e-05
5.36199e-05
4.87669e-05
4.42167e-05
3.99517e-05
3.59605e-05
3.22168e-05
2.87484e-05
2.53885e-05
1.56334e-05
1.57162e-05
1.58993e-05
1.61787e-05
1.65554e-05
1.70282e-05
1.76e-05
1.82746e-05
1.90555e-05
1.99466e-05
2.09523e-05
2.20777e-05
2.33284e-05
2.47104e-05
2.62305e-05
2.78959e-05
2.97143e-05
3.16939e-05
3.38437e-05
3.61728e-05
3.86908e-05
4.14077e-05
4.43339e-05
4.74796e-05
5.08556e-05
5.4472e-05
5.83391e-05
6.24665e-05
6.68629e-05
7.15361e-05
7.64923e-05
8.17356e-05
8.72671e-05
9.30839e-05
9.91793e-05
0.000105542
0.000112153
0.000118984
0.000125994
0.000133136
0.000140347
0.00014754
0.000154604
0.000161402
0.00016778
0.000173547
0.00017845
0.000182161
0.000184298
0.000184447
0.000182135
0.000176746
0.000167457
0.000153264
0.000133074
0.00010575
7.00006e-05
2.41643e-05
-3.39096e-05
-0.000106675
-0.000196432
-0.000304846
-0.000432782
-0.00058053
-0.00074778
-0.000932036
-0.0011258
-0.00131444
-0.00147316
-0.00156607
-0.00155602
-0.00143865
-0.00128164
-0.00120166
-0.00127101
-0.00146152
-0.00168346
-0.00184203
-0.00186764
-0.00173745
-0.00146367
-0.00104693
-0.000465286
0.0002924
0.00122342
0.00233378
0.00362473
0.0050626
0.00658492
0.00813188
0.00966203
0.0111438
0.0125483
0.0138546
0.0150522
0.0161363
0.0171036
0.0179515
0.0186762
0.0192726
0.0197339
0.0200531
0.0202233
0.0202383
0.0200928
0.0197819
0.0193007
0.0186403
0.0177873
0.0167233
0.0154236
0.0138587
0.0119969
0.00981362
0.00730074
0.00447705
0.00140238
-0.00181801
-0.00503783
-0.00808394
-0.0107785
-0.0129655
-0.0145363
-0.0154445
-0.0157067
-0.0154025
-0.0146688
-0.0136622
-0.012505
-0.0112752
-0.0100296
-0.00880037
-0.00758578
-0.00639004
-0.00527051
-0.00431805
-0.00360409
-0.00314231
-0.00286277
-0.00263463
-0.0023567
-0.00201763
-0.00165622
-0.00130309
-0.000974423
-0.00068151
-0.000429566
-0.000217991
-4.37993e-05
9.68884e-05
0.000208409
0.00029502
0.000360617
0.000408676
0.000442235
0.000463905
0.000475912
0.000480137
0.000478163
0.000471312
0.000460684
0.000447192
0.000431586
0.000414483
0.000396387
0.000377704
0.000358763
0.000339825
0.000321096
0.000302734
0.000284864
0.000267574
0.000250929
0.000234973
0.000219733
0.000205221
0.000191438
0.000178378
0.000166027
0.000154366
0.000143372
0.00013302
0.000123283
0.00011413
0.000105534
9.74646e-05
8.98924e-05
8.27886e-05
7.61252e-05
6.98752e-05
6.4013e-05
5.85143e-05
5.33565e-05
4.85186e-05
4.3982e-05
3.97287e-05
3.57471e-05
3.20107e-05
2.85474e-05
2.51888e-05
1.55488e-05
1.56312e-05
1.58134e-05
1.60916e-05
1.64666e-05
1.69372e-05
1.75064e-05
1.81779e-05
1.89552e-05
1.98422e-05
2.08433e-05
2.19636e-05
2.32087e-05
2.45848e-05
2.60985e-05
2.77569e-05
2.9568e-05
3.154e-05
3.36817e-05
3.60023e-05
3.85116e-05
4.12196e-05
4.41367e-05
4.72734e-05
5.06405e-05
5.42485e-05
5.81078e-05
6.22283e-05
6.66191e-05
7.12884e-05
7.62429e-05
8.14875e-05
8.70239e-05
9.28499e-05
9.89601e-05
0.000105345
0.000111986
0.000118858
0.000125921
0.000133131
0.000140428
0.000147732
0.00015493
0.000161891
0.000168468
0.000174484
0.000179692
0.000183764
0.000186321
0.000186968
0.000185264
0.000180615
0.000172195
0.000158977
0.000139863
0.00011375
7.93891e-05
3.5098e-05
-2.14189e-05
-9.28701e-05
-0.000181839
-0.000290212
-0.000419038
-0.00056898
-0.000740465
-0.000932035
-0.0011371
-0.00134069
-0.00151542
-0.00161864
-0.00160164
-0.00145262
-0.00125203
-0.00114669
-0.00122711
-0.0014565
-0.00172611
-0.00192542
-0.00197517
-0.00185542
-0.00159033
-0.00118406
-0.000608391
0.000149005
0.00108283
0.00220379
0.00351965
0.00499392
0.00655443
0.00813479
0.00969311
0.0111985
0.0126211
0.0139399
0.015146
0.0162363
0.0172088
0.0180616
0.0187917
0.0193939
0.0198613
0.0201864
0.0203623
0.020383
0.0202437
0.0199404
0.0194687
0.0188205
0.0179828
0.0169367
0.0156555
0.0141061
0.012252
0.0100617
0.00751968
0.00463992
0.00148081
-0.00184833
-0.00519126
-0.00836042
-0.0111617
-0.0134242
-0.01503
-0.0159296
-0.0161423
-0.0157568
-0.0149289
-0.0138366
-0.0126109
-0.011328
-0.0100446
-0.00879049
-0.00755021
-0.00631663
-0.00515414
-0.00417156
-0.00345577
-0.00302694
-0.00280229
-0.00262057
-0.00236053
-0.00201774
-0.00164663
-0.00128445
-0.000948742
-0.000651797
-0.000398708
-0.000187962
-1.58264e-05
0.000122119
0.00023063
0.000314239
0.000376997
0.000422465
0.000453716
0.000473367
0.00048363
0.000486365
0.000483129
0.000475215
0.0004637
0.000449469
0.000433253
0.000415649
0.000397143
0.000378129
0.000358922
0.000339772
0.000320876
0.000302386
0.000284418
0.000267056
0.000250361
0.000234372
0.000219112
0.000204591
0.000190809
0.000177757
0.000165419
0.000153776
0.000142803
0.000132474
0.00012276
0.000113633
0.000105062
9.70181e-05
8.94709e-05
8.23914e-05
7.57513e-05
6.95236e-05
6.36825e-05
5.82035e-05
5.3064e-05
4.82428e-05
4.37211e-05
3.94806e-05
3.55096e-05
3.17814e-05
2.83239e-05
2.49667e-05
1.54558e-05
1.55378e-05
1.57192e-05
1.5996e-05
1.63691e-05
1.68373e-05
1.74036e-05
1.80716e-05
1.88449e-05
1.97274e-05
2.07235e-05
2.18382e-05
2.30773e-05
2.44468e-05
2.59534e-05
2.76042e-05
2.94072e-05
3.13707e-05
3.35035e-05
3.58149e-05
3.83146e-05
4.10127e-05
4.39197e-05
4.70465e-05
5.04039e-05
5.40025e-05
5.7853e-05
6.19658e-05
6.63504e-05
7.10152e-05
7.59676e-05
8.12133e-05
8.67547e-05
9.25906e-05
9.87164e-05
0.000105124
0.0001118
0.000118715
0.000125835
0.000133118
0.000140511
0.000147934
0.000155278
0.000162415
0.000169209
0.000175496
0.000181038
0.000185504
0.000188517
0.000189704
0.000188663
0.000184829
0.000177368
0.000165223
0.000147289
0.000122504
8.96853e-05
4.71396e-05
-7.58981e-06
-7.75055e-05
-0.000165515
-0.000273737
-0.000403397
-0.000555557
-0.000731523
-0.000931106
-0.00114885
-0.00136975
-0.00156388
-0.00168085
-0.00165715
-0.00147001
-0.0012152
-0.00107844
-0.00117308
-0.00145
-0.00177662
-0.00202348
-0.00209936
-0.00198875
-0.00173216
-0.00133792
-0.00076867
-1.10923e-05
0.000925224
0.0020573
0.00340186
0.00491875
0.00652329
0.00814114
0.00973065
0.0112622
0.0127045
0.0140365
0.0152512
0.0163477
0.0173253
0.0181833
0.0189191
0.0195275
0.0200014
0.0203329
0.0205148
0.0205413
0.0204083
0.0201124
0.0196502
0.0190146
0.0181933
0.0171667
0.0159065
0.0143758
0.0125323
0.0103367
0.00776484
0.00482466
0.00157228
-0.0018786
-0.00536036
-0.00866881
-0.0115909
-0.0139387
-0.0155831
-0.0164718
-0.0166265
-0.016146
-0.0152092
-0.0140201
-0.012719
-0.0113784
-0.0100553
-0.00877745
-0.00751144
-0.00623489
-0.00502135
-0.0040022
-0.00328351
-0.00289461
-0.00273739
-0.00261141
-0.0023703
-0.00202041
-0.00163663
-0.00126351
-0.000919591
-0.000618161
-0.000363987
-0.000154361
1.53209e-05
0.00015009
0.000255174
0.000335399
0.000394981
0.000437567
0.000466264
0.000483688
0.000492034
0.000493135
0.000488516
0.000479442
0.000466957
0.000451922
0.000435042
0.000416893
0.000397944
0.00037857
0.000359074
0.000339695
0.000320619
0.00030199
0.000283917
0.000266478
0.000249729
0.000233704
0.000218424
0.000203895
0.000190115
0.000177072
0.000164749
0.000153124
0.000142174
0.00013187
0.000122183
0.000113084
0.000104541
9.6525e-05
8.90056e-05
8.19532e-05
7.53393e-05
6.91366e-05
6.3319e-05
5.78621e-05
5.27429e-05
4.79403e-05
4.34351e-05
3.92089e-05
3.52499e-05
3.15308e-05
2.80797e-05
2.47242e-05
1.53546e-05
1.54362e-05
1.56166e-05
1.58918e-05
1.62629e-05
1.67285e-05
1.72916e-05
1.79558e-05
1.87248e-05
1.96023e-05
2.05929e-05
2.17017e-05
2.29341e-05
2.42964e-05
2.57952e-05
2.74378e-05
2.92321e-05
3.11863e-05
3.33094e-05
3.56106e-05
3.80997e-05
4.0787e-05
4.36831e-05
4.67989e-05
5.01455e-05
5.37338e-05
5.75747e-05
6.16789e-05
6.60565e-05
7.07161e-05
7.56659e-05
8.09125e-05
8.64592e-05
9.23052e-05
9.84476e-05
0.000104881
0.000111591
0.000118554
0.000125735
0.000133096
0.000140591
0.000148144
0.000155645
0.00016297
0.000169997
0.000176578
0.000182482
0.000187376
0.000190879
0.000192646
0.000192321
0.000189376
0.000182964
0.000171989
0.000155334
0.000131993
0.000100877
6.02977e-05
7.61441e-06
-6.05206e-05
-0.000147391
-0.000255354
-0.000385757
-0.000540051
-0.000720572
-0.000928725
-0.0011606
-0.00140157
-0.00161937
-0.00175479
-0.00172527
-0.00149193
-0.00116884
-0.00099228
-0.00110432
-0.00143843
-0.00183241
-0.00213437
-0.00223807
-0.00213435
-0.00188618
-0.00150656
-0.000944788
-0.000187074
0.000750201
0.00189269
0.00326942
0.00483548
0.00649007
0.00814923
0.00977274
0.0113329
0.0127967
0.0141425
0.0153662
0.0164691
0.017452
0.0183155
0.0190576
0.0196731
0.0201542
0.0204928