/*--------------------------------*- C++ -*----------------------------------*\
| =========                 |                                                 |
| \\      /  F ield         | OpenFOAM: The Open Source CFD Toolbox           |
|  \\    /   O peration     | Version:  v2006                                 |
|   \\  /    A nd           | Website:  www.openfoam.com                      |
|    \\/     M anipulation  |                                                 |
\*---------------------------------------------------------------------------*/
FoamFile
{
    version     2.0;
    format      ascii;
    class       volVectorField;
    location    "0";
    object      U;
}
// * * * * * * * * * * * * * * * * * * * * * * * * * * * * * * * * * * * * * //

dimensions      [0 1 -1 0 0 0 0];


internalField   nonuniform List<vector> 
20000
(
(1 9.3246e-12 0)
(1 2.61352e-11 0)
(1 4.46652e-11 0)
(1 6.56687e-11 0)
(1 8.86692e-11 0)
(1 1.13353e-10 0)
(1 1.39254e-10 0)
(1 1.65507e-10 0)
(1 1.9062e-10 0)
(1 2.12462e-10 0)
(1 2.28535e-10 0)
(1 2.36477e-10 0)
(1 2.34372e-10 0)
(1 2.20591e-10 0)
(1 1.94557e-10 0)
(1 1.57456e-10 0)
(1 1.12187e-10 0)
(1 6.30087e-11 0)
(1 1.49419e-11 0)
(1 -2.72619e-11 0)
(1 -5.94121e-11 0)
(1 -7.92008e-11 0)
(1 -8.71816e-11 0)
(1 -8.39759e-11 0)
(1 -8.70855e-11 0)
(1 -1.08803e-10 0)
(1 -1.55358e-10 0)
(1 -2.30647e-10 0)
(1 -3.38936e-10 0)
(1 -4.8581e-10 0)
(1 -6.78532e-10 0)
(1 -9.26383e-10 0)
(1 -1.24103e-09 0)
(1 -1.63686e-09 0)
(1 -2.13137e-09 0)
(1 -2.74552e-09 0)
(1 -3.50433e-09 0)
(1 -4.43785e-09 0)
(1 -5.58288e-09 0)
(1 -6.98501e-09 0)
(1 -8.70048e-09 0)
(1 -1.07975e-08 0)
(1 -1.33567e-08 0)
(1 -1.64708e-08 0)
(1 -2.02419e-08 0)
(1 -2.47784e-08 0)
(1 -3.01899e-08 0)
(1 -3.65862e-08 0)
(1 -4.40771e-08 0)
(1 -5.27714e-08 0)
(1 -6.277e-08 0)
(1 -7.41502e-08 0)
(1 -8.69424e-08 0)
(1 -1.01092e-07 0)
(1 -1.16386e-07 0)
(1.00001 -1.32385e-07 0)
(1.00001 -1.48569e-07 0)
(1.00001 -1.64453e-07 0)
(1.00001 -1.78485e-07 0)
(1.00001 -1.86348e-07 0)
(1.00001 -1.8499e-07 0)
(1.00001 -1.84302e-07 0)
(1.00001 -2.00209e-07 0)
(1.00001 -1.99726e-07 0)
(1.00002 -7.76659e-08 0)
(1.00002 1.62002e-07 0)
(1.00002 4.13538e-07 0)
(1.00001 6.28678e-07 0)
(1.00001 8.08037e-07 0)
(1.00001 9.69949e-07 0)
(1.00001 1.12775e-06 0)
(1.00001 1.28133e-06 0)
(1 1.41784e-06 0)
(1 1.51731e-06 0)
(1 1.56001e-06 0)
(0.999998 1.53323e-06 0)
(0.999995 1.43522e-06 0)
(0.999992 1.27521e-06 0)
(0.999989 1.06959e-06 0)
(0.999986 8.34521e-07 0)
(0.999983 5.82381e-07 0)
(0.999981 3.22151e-07 0)
(0.999978 6.12819e-08 0)
(0.999975 -1.92163e-07 0)
(0.999973 -4.28592e-07 0)
(0.999971 -6.3723e-07 0)
(0.999969 -8.06921e-07 0)
(0.999968 -9.27546e-07 0)
(0.999967 -9.91208e-07 0)
(0.999966 -9.93567e-07 0)
(0.999965 -9.35485e-07 0)
(0.999965 -8.2478e-07 0)
(0.999965 -6.89241e-07 0)
(0.999965 -5.83247e-07 0)
(0.999966 -5.30644e-07 0)
(0.999967 -5.25569e-07 0)
(0.99997 -5.55399e-07 0)
(0.999973 -6.08673e-07 0)
(0.999977 -6.75501e-07 0)
(0.999982 -7.40584e-07 0)
(0.999987 -7.68375e-07 0)
(0.999993 -6.86739e-07 0)
(0.999999 -3.86158e-07 0)
(1 2.41997e-07 0)
(1.00001 1.1966e-06 0)
(1.00001 2.19878e-06 0)
(1.00001 2.89437e-06 0)
(1.00001 3.27033e-06 0)
(1 3.41037e-06 0)
(1 3.38488e-06 0)
(0.999997 3.23027e-06 0)
(0.999993 2.96218e-06 0)
(0.999988 2.59117e-06 0)
(0.999983 2.12891e-06 0)
(0.999978 1.593e-06 0)
(0.999973 1.00595e-06 0)
(0.999968 3.94577e-07 0)
(0.999963 -2.10727e-07 0)
(0.999959 -7.78052e-07 0)
(0.999954 -1.27727e-06 0)
(0.99995 -1.68299e-06 0)
(0.999947 -1.97695e-06 0)
(0.999944 -2.14945e-06 0)
(0.999941 -2.20001e-06 0)
(0.999939 -2.13682e-06 0)
(0.999938 -1.97473e-06 0)
(0.999937 -1.73565e-06 0)
(0.999937 -1.44863e-06 0)
(0.999936 -1.14917e-06 0)
(0.999937 -9.08197e-07 0)
(0.999937 -7.5659e-07 0)
(0.999939 -6.83415e-07 0)
(0.999941 -6.65631e-07 0)
(0.999944 -6.77362e-07 0)
(0.999948 -6.92189e-07 0)
(0.999952 -6.88067e-07 0)
(0.999956 -6.52974e-07 0)
(0.99996 -5.88179e-07 0)
(0.999963 -5.06528e-07 0)
(0.999966 -4.25711e-07 0)
(0.999969 -3.59941e-07 0)
(0.999971 -3.1521e-07 0)
(0.999973 -2.90098e-07 0)
(0.999975 -2.7935e-07 0)
(0.999977 -2.76872e-07 0)
(0.999978 -2.7734e-07 0)
(0.99998 -2.76927e-07 0)
(0.999982 -2.73414e-07 0)
(0.999984 -2.65914e-07 0)
(0.999986 -2.54476e-07 0)
(0.999987 -2.39712e-07 0)
(0.999989 -2.22502e-07 0)
(0.99999 -2.03784e-07 0)
(0.999992 -1.84423e-07 0)
(0.999993 -1.65147e-07 0)
(0.999994 -1.46516e-07 0)
(0.999995 -1.28933e-07 0)
(0.999995 -1.12653e-07 0)
(0.999996 -9.78169e-08 0)
(0.999997 -8.44714e-08 0)
(0.999997 -7.25964e-08 0)
(0.999998 -6.21253e-08 0)
(0.999998 -5.29618e-08 0)
(0.999998 -4.49936e-08 0)
(0.999999 -3.81021e-08 0)
(0.999999 -3.21692e-08 0)
(0.999999 -2.70818e-08 0)
(0.999999 -2.27348e-08 0)
(0.999999 -1.90321e-08 0)
(1 -1.58861e-08 0)
(1 -1.32171e-08 0)
(1 -1.09523e-08 0)
(1 -9.02462e-09 0)
(1 -7.37314e-09 0)
(1 -5.94331e-09 0)
(1 -4.68892e-09 0)
(1 -3.57427e-09 0)
(1 -2.57546e-09 0)
(1 -1.67989e-09 0)
(1 -8.86531e-10 0)
(1 -2.07317e-10 0)
(1 3.39714e-10 0)
(1 7.28368e-10 0)
(1 9.23769e-10 0)
(1 9.18549e-10 0)
(1 7.74602e-10 0)
(1 5.82627e-10 0)
(1 3.92674e-10 0)
(1 2.22908e-10 0)
(1 7.72908e-11 0)
(1 -4.57537e-11 0)
(1 -1.49634e-10 0)
(1 -2.38764e-10 0)
(1 -3.09543e-10 0)
(1 -3.63322e-10 0)
(1 -4.00749e-10 0)
(1 -4.31176e-10 0)
(1 -4.34441e-10 0)
(1 -4.98601e-10 0)
(1 -4.3322e-10 0)
(1 1.65643e-11 0)
(1 4.53846e-11 0)
(1 7.43653e-11 0)
(1 1.04302e-10 0)
(1 1.34662e-10 0)
(1 1.65442e-10 0)
(1 1.96258e-10 0)
(1 2.2647e-10 0)
(1 2.5512e-10 0)
(1 2.81024e-10 0)
(1 3.02997e-10 0)
(1 3.20056e-10 0)
(1 3.31444e-10 0)
(1 3.36649e-10 0)
(1 3.36126e-10 0)
(1 3.30977e-10 0)
(1 3.22418e-10 0)
(1 3.11455e-10 0)
(1 2.98432e-10 0)
(1 2.82445e-10 0)
(1 2.61479e-10 0)
(1 2.31897e-10 0)
(1 1.88687e-10 0)
(1 1.28459e-10 0)
(1 3.39938e-11 0)
(1 -1.07868e-10 0)
(1 -3.07885e-10 0)
(1 -5.78643e-10 0)
(1 -9.35992e-10 0)
(1 -1.3996e-09 0)
(1 -1.99367e-09 0)
(1 -2.74795e-09 0)
(1 -3.69884e-09 0)
(1 -4.89054e-09 0)
(1 -6.37626e-09 0)
(1 -8.21943e-09 0)
(1 -1.04954e-08 0)
(1 -1.32945e-08 0)
(1 -1.67274e-08 0)
(1 -2.09308e-08 0)
(1 -2.60734e-08 0)
(1 -3.23597e-08 0)
(1 -4.00313e-08 0)
(1 -4.93661e-08 0)
(1 -6.06711e-08 0)
(1 -7.42709e-08 0)
(1 -9.04957e-08 0)
(1 -1.09675e-07 0)
(1 -1.32138e-07 0)
(1 -1.5821e-07 -4.11222e-43)
(1 -1.88186e-07 -7.87116e-43)
(1 -2.22293e-07 0)
(1 -2.60622e-07 0)
(1 -3.0303e-07 0)
(1 -3.48996e-07 0)
(1.00001 -3.97417e-07 0)
(1.00001 -4.46432e-07 0)
(1.00001 -4.93244e-07 0)
(1.00001 -5.33693e-07 0)
(1.00001 -5.62138e-07 0)
(1.00001 -5.73966e-07 0)
(1.00001 -5.70041e-07 0)
(1.00001 -5.51236e-07 0)
(1.00001 -4.93059e-07 0)
(1.00002 -3.44956e-07 0)
(1.00002 -1.4911e-07 0)
(1.00002 3.76633e-09 0)
(1.00002 8.55536e-08 0)
(1.00002 9.42263e-08 0)
(1.00003 3.77426e-08 0)
(1.00003 -6.50812e-08 0)
(1.00004 -1.80919e-07 0)
(1.00004 -2.66222e-07 0)
(1.00005 -2.81135e-07 0)
(1.00005 -2.05474e-07 0)
(1.00006 -4.49942e-08 0)
(1.00006 1.77089e-07 0)
(1.00007 4.3229e-07 0)
(1.00007 6.91512e-07 0)
(1.00007 9.4289e-07 0)
(1.00007 1.18135e-06 0)
(1.00006 1.40189e-06 0)
(1.00006 1.59698e-06 0)
(1.00005 1.75688e-06 0)
(1.00004 1.87046e-06 0)
(1.00003 1.92639e-06 0)
(1.00002 1.9167e-06 0)
(1.00001 1.83971e-06 0)
(1.00001 1.69975e-06 0)
(0.999996 1.5042e-06 0)
(0.999988 1.26115e-06 0)
(0.999982 9.80569e-07 0)
(0.999976 6.62984e-07 0)
(0.999973 2.90707e-07 0)
(0.999971 -1.30942e-07 0)
(0.999971 -5.81492e-07 0)
(0.999972 -1.04385e-06 0)
(0.999975 -1.50454e-06 0)
(0.999978 -1.9515e-06 0)
(0.999983 -2.37036e-06 0)
(0.999989 -2.73863e-06 0)
(0.999996 -3.01933e-06 0)
(1 -3.15967e-06 0)
(1.00001 -3.1027e-06 0)
(1.00003 -2.8353e-06 0)
(1.00004 -2.49898e-06 0)
(1.00006 -2.26452e-06 0)
(1.00008 -2.06203e-06 0)
(1.0001 -1.81372e-06 0)
(1.00011 -1.47984e-06 0)
(1.00013 -1.04996e-06 0)
(1.00014 -5.29348e-07 0)
(1.00015 6.61491e-08 0)
(1.00016 7.25791e-07 0)
(1.00016 1.40961e-06 0)
(1.00016 2.08612e-06 0)
(1.00015 2.72209e-06 0)
(1.00014 3.28198e-06 0)
(1.00012 3.7323e-06 0)
(1.00011 4.0454e-06 0)
(1.00009 4.20272e-06 0)
(1.00007 4.19714e-06 0)
(1.00005 4.03387e-06 0)
(1.00003 3.72961e-06 0)
(1.00001 3.31105e-06 0)
(0.999989 2.8129e-06 0)
(0.999975 2.27214e-06 0)
(0.999963 1.72226e-06 0)
(0.999955 1.1865e-06 0)
(0.999949 6.47123e-07 0)
(0.999945 1.07642e-07 0)
(0.999944 -4.13536e-07 0)
(0.999944 -8.92309e-07 0)
(0.999946 -1.29987e-06 0)
(0.999949 -1.59943e-06 0)
(0.999952 -1.75814e-06 0)
(0.999956 -1.76508e-06 0)
(0.99996 -1.64269e-06 0)
(0.999963 -1.44308e-06 0)
(0.999966 -1.22899e-06 0)
(0.999969 -1.04955e-06 0)
(0.999971 -9.26755e-07 0)
(0.999973 -8.58721e-07 0)
(0.999975 -8.3114e-07 0)
(0.999977 -8.26647e-07 0)
(0.999978 -8.29867e-07 0)
(0.99998 -8.29704e-07 0)
(0.999982 -8.19767e-07 0)
(0.999984 -7.97579e-07 0)
(0.999986 -7.63401e-07 0)
(0.999987 -7.19147e-07 0)
(0.999989 -6.67506e-07 0)
(0.99999 -6.11321e-07 0)
(0.999992 -5.53204e-07 0)
(0.999993 -4.95344e-07 0)
(0.999994 -4.3943e-07 0)
(0.999995 -3.86664e-07 0)
(0.999995 -3.37819e-07 0)
(0.999996 -2.93311e-07 0)
(0.999997 -2.53279e-07 0)
(0.999997 -2.17662e-07 0)
(0.999998 -1.86259e-07 0)
(0.999998 -1.58779e-07 0)
(0.999998 -1.34887e-07 0)
(0.999999 -1.14224e-07 0)
(0.999999 -9.64362e-08 0)
(0.999999 -8.11826e-08 0)
(0.999999 -6.81461e-08 0)
(0.999999 -5.70371e-08 0)
(1 -4.7595e-08 0)
(1 -3.95878e-08 0)
(1 -3.28108e-08 0)
(1 -2.70843e-08 0)
(1 -2.22519e-08 0)
(1 -1.81778e-08 0)
(1 -1.47453e-08 0)
(1 -1.18552e-08 0)
(1 -9.4237e-09 0)
(1 -7.38053e-09 0)
(1 -5.66804e-09 0)
(1 -4.24155e-09 0)
(1 -3.06477e-09 0)
(1 -2.11367e-09 0)
(1 -1.38051e-09 0)
(1 -8.53194e-10 0)
(1 -4.8374e-10 0)
(1 -2.10659e-10 0)
(1 -3.04961e-12 0)
(1 1.5328e-10 0)
(1 2.66937e-10 0)
(1 3.4442e-10 0)
(1 3.90962e-10 0)
(1 4.10604e-10 0)
(1 4.13882e-10 0)
(1 4.05701e-10 0)
(1 3.88769e-10 0)
(1 3.59568e-10 0)
(1 3.31557e-10 0)
(1 2.53213e-10 0)
(1 2.5011e-10 0)
(1 1.87984e-11 0)
(1 5.06348e-11 0)
(1 8.21698e-11 0)
(1 1.13082e-10 0)
(1 1.43186e-10 0)
(1 1.7329e-10 0)
(1 2.03516e-10 0)
(1 2.34129e-10 0)
(1 2.65664e-10 0)
(1 2.98893e-10 0)
(1 3.34692e-10 0)
(1 3.73722e-10 0)
(1 4.16196e-10 0)
(1 4.61974e-10 0)
(1 5.10297e-10 0)
(1 5.58896e-10 0)
(1 6.04003e-10 0)
(1 6.40774e-10 0)
(1 6.63617e-10 0)
(1 6.66644e-10 0)
(1 6.43714e-10 0)
(1 5.88452e-10 0)
(1 4.94122e-10 0)
(1 3.52111e-10 0)
(1 1.54196e-10 0)
(1 -1.12292e-10 0)
(1 -4.65754e-10 0)
(1 -9.29896e-10 0)
(1 -1.53336e-09 0)
(1 -2.31042e-09 0)
(1 -3.30241e-09 0)
(1 -4.55953e-09 0)
(1 -6.14282e-09 0)
(1 -8.12614e-09 0)
(1 -1.05982e-08 0)
(1 -1.36648e-08 0)
(1 -1.74514e-08 0)
(1 -2.21084e-08 0)
(1 -2.78197e-08 0)
(1 -3.48133e-08 0)
(1 -4.33699e-08 0)
(1 -5.38297e-08 0)
(1 -6.6595e-08 0)
(1 -8.21285e-08 0)
(1 -1.00941e-07 0)
(1 -1.23575e-07 0)
(1 -1.50579e-07 0)
(1 -1.82504e-07 0)
(1 -2.199e-07 0)
(1 -2.63308e-07 0)
(1 -3.1323e-07 0)
(1 -3.7005e-07 0)
(1 -4.33927e-07 0)
(1 -5.04645e-07 0)
(1 -5.81385e-07 0)
(1.00001 -6.62379e-07 0)
(1.00001 -7.44419e-07 0)
(1.00001 -8.2247e-07 0)
(1.00001 -8.90004e-07 0)
(1.00001 -9.39964e-07 0)
(1.00001 -9.64285e-07 0)
(1.00001 -9.51565e-07 0)
(1.00001 -8.92094e-07 0)
(1.00001 -7.99174e-07 0)
(1.00002 -7.18901e-07 0)
(1.00002 -6.73101e-07 0)
(1.00002 -6.54213e-07 0)
(1.00002 -6.753e-07 0)
(1.00002 -7.69773e-07 0)
(1.00002 -9.62215e-07 0)
(1.00002 -1.2404e-06 0)
(1.00002 -1.54279e-06 0)
(1.00002 -1.7694e-06 0)
(1.00003 -1.819e-06 0)
(1.00003 -1.63416e-06 0)
(1.00003 -1.22228e-06 0)
(1.00003 -6.41654e-07 0)
(1.00003 3.26303e-08 0)
(1.00003 7.37663e-07 0)
(1.00003 1.43678e-06 0)
(1.00002 2.11196e-06 0)
(1.00002 2.75019e-06 0)
(1.00002 3.334e-06 0)
(1.00001 3.83966e-06 0)
(1.00001 4.23776e-06 0)
(1 4.49644e-06 0)
(0.999997 4.58973e-06 0)
(0.999991 4.50577e-06 0)
(0.999986 4.24698e-06 0)
(0.999981 3.82466e-06 0)
(0.999977 3.25589e-06 0)
(0.999973 2.5634e-06 0)
(0.999971 1.77841e-06 0)
(0.999969 9.40296e-07 0)
(0.999968 8.01384e-08 0)
(0.999969 -7.83071e-07 0)
(0.999971 -1.63549e-06 0)
(0.999973 -2.46389e-06 0)
(0.999977 -3.25485e-06 0)
(0.999982 -3.99596e-06 0)
(0.999988 -4.67919e-06 0)
(0.999995 -5.30524e-06 0)
(1 -5.8841e-06 0)
(1.00001 -6.42421e-06 0)
(1.00002 -6.90053e-06 0)
(1.00003 -7.21171e-06 0)
(1.00004 -7.23972e-06 0)
(1.00004 -6.96071e-06 0)
(1.00005 -6.39437e-06 0)
(1.00006 -5.56173e-06 0)
(1.00006 -4.47765e-06 0)
(1.00007 -3.16022e-06 0)
(1.00007 -1.6384e-06 0)
(1.00007 4.43416e-08 0)
(1.00007 1.82424e-06 0)
(1.00007 3.62483e-06 0)
(1.00006 5.35641e-06 0)
(1.00005 6.92333e-06 0)
(1.00004 8.23396e-06 0)
(1.00003 9.21037e-06 0)
(1.00002 9.79724e-06 0)
(1.00001 9.96832e-06 0)
(0.999995 9.72886e-06 0)
(0.999983 9.11425e-06 0)
(0.999972 8.18587e-06 0)
(0.999963 7.02498e-06 0)
(0.999955 5.72357e-06 0)
(0.999949 4.37083e-06 0)
(0.999945 3.03861e-06 0)
(0.999942 1.78296e-06 0)
(0.999941 6.33139e-07 0)
(0.999941 -4.00739e-07 0)
(0.999942 -1.30876e-06 0)
(0.999945 -2.06094e-06 0)
(0.999948 -2.6074e-06 0)
(0.999952 -2.90066e-06 0)
(0.999956 -2.92746e-06 0)
(0.99996 -2.72938e-06 0)
(0.999963 -2.39749e-06 0)
(0.999966 -2.04002e-06 0)
(0.999969 -1.74104e-06 0)
(0.999971 -1.53765e-06 0)
(0.999973 -1.42622e-06 0)
(0.999975 -1.38228e-06 0)
(0.999977 -1.37652e-06 0)
(0.999978 -1.38312e-06 0)
(0.99998 -1.38359e-06 0)
(0.999982 -1.36736e-06 0)
(0.999984 -1.33041e-06 0)
(0.999986 -1.27329e-06 0)
(0.999987 -1.19929e-06 0)
(0.999989 -1.11296e-06 0)
(0.99999 -1.01906e-06 0)
(0.999992 -9.2199e-07 0)
(0.999993 -8.25389e-07 0)
(0.999994 -7.32078e-07 0)
(0.999995 -6.44057e-07 0)
(0.999995 -5.62606e-07 0)
(0.999996 -4.88409e-07 0)
(0.999997 -4.21694e-07 0)
(0.999997 -3.62352e-07 0)
(0.999998 -3.10041e-07 0)
(0.999998 -2.64275e-07 0)
(0.999998 -2.24489e-07 0)
(0.999999 -1.90086e-07 0)
(0.999999 -1.60474e-07 0)
(0.999999 -1.35082e-07 0)
(0.999999 -1.13383e-07 0)
(0.999999 -9.48923e-08 0)
(1 -7.91771e-08 0)
(1 -6.58528e-08 0)
(1 -5.45814e-08 0)
(1 -4.50689e-08 0)
(1 -3.70603e-08 0)
(1 -3.03359e-08 0)
(1 -2.47064e-08 0)
(1 -2.00085e-08 0)
(1 -1.61012e-08 0)
(1 -1.28624e-08 0)
(1 -1.01865e-08 0)
(1 -7.98011e-09 0)
(1 -6.16124e-09 0)
(1 -4.65667e-09 0)
(1 -3.40048e-09 0)
(1 -2.34383e-09 0)
(1 -1.46359e-09 0)
(1 -7.49323e-10 0)
(1 -1.84996e-10 0)
(1 2.5032e-10 0)
(1 5.77401e-10 0)
(1 8.14774e-10 0)
(1 9.78235e-10 0)
(1 1.08157e-09 0)
(1 1.13517e-09 0)
(1 1.14816e-09 0)
(1 1.1263e-09 0)
(1 1.07852e-09 0)
(1 9.9706e-10 0)
(1 9.39114e-10 0)
(1 7.70486e-10 0)
(1 2.70993e-11 0)
(1 7.36246e-11 0)
(1 1.22509e-10 0)
(1 1.72445e-10 0)
(1 2.22918e-10 0)
(1 2.74856e-10 0)
(1 3.28141e-10 0)
(1 3.827e-10 0)
(1 4.38502e-10 0)
(1 4.95426e-10 0)
(1 5.53214e-10 0)
(1 6.11353e-10 0)
(1 6.68949e-10 0)
(1 7.24501e-10 0)
(1 7.75659e-10 0)
(1 8.19446e-10 0)
(1 8.52589e-10 0)
(1 8.71664e-10 0)
(1 8.7302e-10 0)
(1 8.52574e-10 0)
(1 8.05257e-10 0)
(1 7.24329e-10 0)
(1 6.00192e-10 0)
(1 4.18638e-10 0)
(1 1.62319e-10 0)
(1 -1.91713e-10 0)
(1 -6.71223e-10 0)
(1 -1.30899e-09 0)
(1 -2.14408e-09 0)
(1 -3.22356e-09 0)
(1 -4.60456e-09 0)
(1 -6.35675e-09 0)
(1 -8.56502e-09 0)
(1 -1.13323e-08 0)
(1 -1.47824e-08 0)
(1 -1.9063e-08 0)
(1 -2.43491e-08 0)
(1 -3.08509e-08 0)
(1 -3.88253e-08 0)
(1 -4.85905e-08 0)
(1 -6.05391e-08 0)
(1 -7.51462e-08 0)
(1 -9.29741e-08 0)
(1 -1.14669e-07 0)
(1 -1.40947e-07 0)
(1 -1.72565e-07 0)
(1 -2.10293e-07 0)
(1 -2.54901e-07 0)
(1 -3.07162e-07 0)
(1 -3.67842e-07 0)
(1 -4.37657e-07 0)
(1 -5.17162e-07 0)
(1 -6.06605e-07 0)
(1 -7.05712e-07 0)
(1 -8.13357e-07 0)
(1.00001 -9.27079e-07 0)
(1.00001 -1.0425e-06 0)
(1.00001 -1.15285e-06 0)
(1.00001 -1.24869e-06 0)
(1.00001 -1.31831e-06 0)
(1.00001 -1.34963e-06 0)
(1.00001 -1.33427e-06 0)
(1.00001 -1.2702e-06 0)
(1.00001 -1.15875e-06 0)
(1.00002 -1.00276e-06 0)
(1.00002 -8.12946e-07 0)
(1.00002 -6.31163e-07 0)
(1.00002 -5.22395e-07 0)
(1.00002 -5.41542e-07 0)
(1.00002 -7.13778e-07 0)
(1.00002 -1.01585e-06 0)
(1.00002 -1.36376e-06 0)
(1.00002 -1.62638e-06 0)
(1.00003 -1.67386e-06 0)
(1.00003 -1.43559e-06 0)
(1.00003 -9.26066e-07 0)
(1.00003 -2.23552e-07 0)
(1.00003 5.75595e-07 0)
(1.00003 1.39704e-06 0)
(1.00003 2.19891e-06 0)
(1.00002 2.96473e-06 0)
(1.00002 3.68253e-06 0)
(1.00002 4.33261e-06 0)
(1.00001 4.88684e-06 0)
(1.00001 5.31005e-06 0)
(1 5.56392e-06 0)
(0.999997 5.61824e-06 0)
(0.999991 5.46172e-06 0)
(0.999986 5.10147e-06 0)
(0.999981 4.55493e-06 0)
(0.999976 3.84404e-06 0)
(0.999973 2.99366e-06 0)
(0.99997 2.03158e-06 0)
(0.999969 9.87382e-07 0)
(0.999968 -1.12574e-07 0)
(0.999969 -1.24248e-06 0)
(0.99997 -2.3768e-06 0)
(0.999973 -3.49206e-06 0)
(0.999977 -4.56597e-06 0)
(0.999982 -5.57482e-06 0)
(0.999988 -6.49006e-06 0)
(0.999994 -7.27579e-06 0)
(1 -7.89011e-06 0)
(1.00001 -8.29357e-06 0)
(1.00002 -8.46378e-06 0)
(1.00003 -8.39597e-06 0)
(1.00004 -8.0943e-06 0)
(1.00004 -7.56648e-06 0)
(1.00005 -6.79315e-06 0)
(1.00006 -5.75354e-06 0)
(1.00006 -4.44015e-06 0)
(1.00007 -2.86449e-06 0)
(1.00007 -1.05768e-06 0)
(1.00007 9.23383e-07 0)
(1.00007 3.00938e-06 0)
(1.00007 5.10637e-06 0)
(1.00006 7.10677e-06 0)
(1.00005 8.89844e-06 0)
(1.00004 1.03746e-05 0)
(1.00003 1.14455e-05 0)
(1.00002 1.20485e-05 0)
(1.00001 1.21562e-05 0)
(0.999994 1.17788e-05 0)
(0.999983 1.09619e-05 0)
(0.999972 9.78199e-06 0)
(0.999963 8.33929e-06 0)
(0.999955 6.74624e-06 0)
(0.999949 5.1064e-06 0)
(0.999945 3.49507e-06 0)
(0.999942 1.95921e-06 0)
(0.999941 5.20115e-07 0)
(0.999941 -8.0875e-07 0)
(0.999942 -2.00213e-06 0)
(0.999945 -3.00642e-06 0)
(0.999948 -3.74097e-06 0)
(0.999952 -4.12979e-06 0)
(0.999956 -4.14785e-06 0)
(0.99996 -3.85108e-06 0)
(0.999964 -3.36858e-06 0)
(0.999966 -2.85499e-06 0)
(0.999969 -2.42965e-06 0)
(0.999971 -2.14358e-06 0)
(0.999973 -1.9894e-06 0)
(0.999975 -1.93085e-06 0)
(0.999977 -1.92565e-06 0)
(0.999978 -1.93706e-06 0)
(0.99998 -1.93901e-06 0)
(0.999982 -1.91681e-06 0)
(0.999984 -1.86505e-06 0)
(0.999986 -1.78471e-06 0)
(0.999987 -1.68057e-06 0)
(0.999989 -1.55912e-06 0)
(0.99999 -1.42712e-06 0)
(0.999992 -1.29076e-06 0)
(0.999993 -1.15516e-06 0)
(0.999994 -1.02427e-06 0)
(0.999995 -9.00875e-07 0)
(0.999996 -7.8675e-07 0)
(0.999996 -6.82842e-07 0)
(0.999997 -5.89452e-07 0)
(0.999997 -5.06412e-07 0)
(0.999998 -4.33235e-07 0)
(0.999998 -3.69232e-07 0)
(0.999998 -3.13606e-07 0)
(0.999999 -2.65516e-07 0)
(0.999999 -2.24129e-07 0)
(0.999999 -1.88648e-07 0)
(0.999999 -1.5833e-07 0)
(0.999999 -1.325e-07 0)
(1 -1.10549e-07 0)
(1 -9.19373e-08 0)
(1 -7.61911e-08 0)
(1 -6.2895e-08 0)
(1 -5.16883e-08 0)
(1 -4.22594e-08 0)
(1 -3.43401e-08 0)
(1 -2.77013e-08 0)
(1 -2.2148e-08 0)
(1 -1.75154e-08 0)
(1 -1.36646e-08 0)
(1 -1.04789e-08 0)
(1 -7.86094e-09 0)
(1 -5.72859e-09 0)
(1 -4.01093e-09 0)
(1 -2.64315e-09 0)
(1 -1.56586e-09 0)
(1 -7.2628e-10 0)
(1 -7.86403e-11 0)
(1 4.12761e-10 0)
(1 7.75826e-10 0)
(1 1.03306e-09 0)
(1 1.20303e-09 0)
(1 1.30146e-09 0)
(1 1.34055e-09 0)
(1 1.33107e-09 0)
(1 1.28204e-09 0)
(1 1.20373e-09 0)
(1 1.09505e-09 0)
(1 1.00257e-09 0)
(1 7.71931e-10 0)
(1 3.50137e-11 0)
(1 9.49897e-11 0)
(1 1.57354e-10 0)
(1 2.20176e-10 0)
(1 2.82732e-10 0)
(1 3.4618e-10 0)
(1 4.10355e-10 0)
(1 4.75205e-10 0)
(1 5.40862e-10 0)
(1 6.07574e-10 0)
(1 6.75668e-10 0)
(1 7.45277e-10 0)
(1 8.16003e-10 0)
(1 8.86687e-10 0)
(1 9.55326e-10 0)
(1 1.01906e-09 0)
(1 1.07395e-09 0)
(1 1.11478e-09 0)
(1 1.13501e-09 0)
(1 1.12678e-09 0)
(1 1.08079e-09 0)
(1 9.86043e-10 0)
(1 8.29211e-10 0)
(1 5.93423e-10 0)
(1 2.58308e-10 0)
(1 -2.02752e-10 0)
(1 -8.23345e-10 0)
(1 -1.6449e-09 0)
(1 -2.71762e-09 0)
(1 -4.10209e-09 0)
(1 -5.87182e-09 0)
(1 -8.11638e-09 0)
(1 -1.09447e-08 0)
(1 -1.4489e-08 0)
(1 -1.89078e-08 0)
(1 -2.43907e-08 0)
(1 -3.1162e-08 0)
(1 -3.94911e-08 0)
(1 -4.97073e-08 0)
(1 -6.22188e-08 0)
(1 -7.75291e-08 0)
(1 -9.62474e-08 0)
(1 -1.19094e-07 0)
(1 -1.46899e-07 0)
(1 -1.80582e-07 0)
(1 -2.21116e-07 0)
(1 -2.6949e-07 0)
(1 -3.26695e-07 0)
(1 -3.93727e-07 0)
(1 -4.71587e-07 0)
(1 -5.61212e-07 0)
(1 -6.63348e-07 0)
(1 -7.78351e-07 0)
(1 -9.05928e-07 0)
(1 -1.04472e-06 0)
(1.00001 -1.19167e-06 0)
(1.00001 -1.34117e-06 0)
(1.00001 -1.48434e-06 0)
(1.00001 -1.60901e-06 0)
(1.00001 -1.70082e-06 0)
(1.00001 -1.74492e-06 0)
(1.00001 -1.7272e-06 0)
(1.00001 -1.63718e-06 0)
(1.00001 -1.47621e-06 0)
(1.00002 -1.26748e-06 0)
(1.00002 -1.05266e-06 0)
(1.00002 -8.86198e-07 0)
(1.00002 -8.30137e-07 0)
(1.00002 -9.42444e-07 0)
(1.00002 -1.25497e-06 0)
(1.00002 -1.73859e-06 0)
(1.00002 -2.27887e-06 0)
(1.00002 -2.69302e-06 0)
(1.00003 -2.79785e-06 0)
(1.00003 -2.4923e-06 0)
(1.00003 -1.79468e-06 0)
(1.00003 -8.12871e-07 0)
(1.00003 3.18109e-07 0)
(1.00003 1.48905e-06 0)
(1.00003 2.64066e-06 0)
(1.00003 3.74909e-06 0)
(1.00002 4.79604e-06 0)
(1.00002 5.75254e-06 0)
(1.00001 6.57838e-06 0)
(1.00001 7.22337e-06 0)
(1 7.63223e-06 0)
(0.999997 7.76069e-06 0)
(0.999991 7.59096e-06 0)
(0.999986 7.13115e-06 0)
(0.999981 6.40391e-06 0)
(0.999976 5.43897e-06 0)
(0.999973 4.27375e-06 0)
(0.99997 2.95328e-06 0)
(0.999968 1.52595e-06 0)
(0.999968 3.56337e-08 0)
(0.999968 -1.47978e-06 0)
(0.99997 -2.98846e-06 0)
(0.999973 -4.46278e-06 0)
(0.999977 -5.87653e-06 0)
(0.999982 -7.20336e-06 0)
(0.999987 -8.4169e-06 0)
(0.999994 -9.49184e-06 0)
(1 -1.04039e-05 0)
(1.00001 -1.11261e-05 0)
(1.00002 -1.16214e-05 0)
(1.00003 -1.18331e-05 0)
(1.00004 -1.1696e-05 0)
(1.00004 -1.11662e-05 0)
(1.00005 -1.02167e-05 0)
(1.00006 -8.8386e-06 0)
(1.00006 -7.03962e-06 0)
(1.00007 -4.8455e-06 0)
(1.00007 -2.30546e-06 0)
(1.00007 5.03586e-07 0)
(1.00007 3.47537e-06 0)
(1.00007 6.4771e-06 0)
(1.00006 9.35709e-06 0)
(1.00005 1.19551e-05 0)
(1.00004 1.41174e-05 0)
(1.00003 1.57133e-05 0)
(1.00002 1.66506e-05 0)
(1.00001 1.68869e-05 0)
(0.999994 1.64332e-05 0)
(0.999982 1.53511e-05 0)
(0.999972 1.37464e-05 0)
(0.999962 1.17599e-05 0)
(0.999954 9.55064e-06 0)
(0.999948 7.26871e-06 0)
(0.999944 5.02855e-06 0)
(0.999941 2.9035e-06 0)
(0.99994 9.2951e-07 0)
(0.99994 -8.727e-07 0)
(0.999942 -2.47877e-06 0)
(0.999944 -3.825e-06 0)
(0.999948 -4.80867e-06 0)
(0.999952 -5.33051e-06 0)
(0.999956 -5.35787e-06 0)
(0.99996 -4.96625e-06 0)
(0.999964 -4.32948e-06 0)
(0.999967 -3.6553e-06 0)
(0.999969 -3.10227e-06 0)
(0.999971 -2.73557e-06 0)
(0.999973 -2.54252e-06 0)
(0.999975 -2.47355e-06 0)
(0.999977 -2.47249e-06 0)
(0.999978 -2.49126e-06 0)
(0.99998 -2.49618e-06 0)
(0.999982 -2.46864e-06 0)
(0.999984 -2.4021e-06 0)
(0.999986 -2.29819e-06 0)
(0.999987 -2.16337e-06 0)
(0.999989 -2.00622e-06 0)
(0.99999 -1.83559e-06 0)
(0.999992 -1.65948e-06 0)
(0.999993 -1.48454e-06 0)
(0.999994 -1.31581e-06 0)
(0.999995 -1.15688e-06 0)
(0.999996 -1.00999e-06 0)
(0.999996 -8.76341e-07 0)
(0.999997 -7.56286e-07 0)
(0.999997 -6.49589e-07 0)
(0.999998 -5.55607e-07 0)
(0.999998 -4.73437e-07 0)
(0.999998 -4.02045e-07 0)
(0.999999 -3.40342e-07 0)
(0.999999 -2.87253e-07 0)
(0.999999 -2.41748e-07 0)
(0.999999 -2.02871e-07 0)
(0.999999 -1.69753e-07 0)
(1 -1.41612e-07 0)
(1 -1.17757e-07 0)
(1 -9.7578e-08 0)
(1 -8.05464e-08 0)
(1 -6.62022e-08 0)
(1 -5.41485e-08 0)
(1 -4.40441e-08 0)
(1 -3.55954e-08 0)
(1 -2.85505e-08 0)
(1 -2.26934e-08 0)
(1 -1.78383e-08 0)
(1 -1.38259e-08 0)
(1 -1.052e-08 0)
(1 -7.80469e-09 0)
(1 -5.58153e-09 0)
(1 -3.76937e-09 0)
(1 -2.3041e-09 0)
(1 -1.13472e-09 0)
(1 -2.16728e-10 0)
(1 4.89027e-10 0)
(1 1.01692e-09 0)
(1 1.3967e-09 0)
(1 1.6538e-09 0)
(1 1.80988e-09 0)
(1 1.88264e-09 0)
(1 1.88752e-09 0)
(1 1.83717e-09 0)
(1 1.74537e-09 0)
(1 1.61073e-09 0)
(1 1.48765e-09 0)
(1 1.1908e-09 0)
(1 4.2843e-11 0)
(1 1.16003e-10 0)
(1 1.92022e-10 0)
(1 2.68768e-10 0)
(1 3.45459e-10 0)
(1 4.23649e-10 0)
(1 5.03256e-10 0)
(1 5.84312e-10 0)
(1 6.67042e-10 0)
(1 7.5172e-10 0)
(1 8.38557e-10 0)
(1 9.27386e-10 0)
(1 1.01733e-09 0)
(1 1.10659e-09 0)
(1 1.19225e-09 0)
(1 1.27017e-09 0)
(1 1.33492e-09 0)
(1 1.37987e-09 0)
(1 1.3974e-09 0)
(1 1.37903e-09 0)
(1 1.31515e-09 0)
(1 1.19417e-09 0)
(1 1.00113e-09 0)
(1 7.15941e-10 0)
(1 3.12664e-10 0)
(1 -2.4238e-10 0)
(1 -9.9132e-10 0)
(1 -1.9852e-09 0)
(1 -3.28525e-09 0)
(1 -4.96516e-09 0)
(1 -7.11433e-09 0)
(1 -9.84164e-09 0)
(1 -1.32796e-08 0)
(1 -1.75889e-08 0)
(1 -2.29628e-08 0)
(1 -2.96317e-08 0)
(1 -3.78691e-08 0)
(1 -4.80025e-08 0)
(1 -6.04329e-08 0)
(1 -7.56578e-08 0)
(1 -9.42906e-08 0)
(1 -1.17073e-07 0)
(1 -1.44883e-07 0)
(1 -1.78732e-07 0)
(1 -2.19742e-07 0)
(1 -2.69103e-07 0)
(1 -3.28022e-07 0)
(1 -3.97711e-07 0)
(1 -4.79394e-07 0)
(1 -5.74312e-07 0)
(1 -6.83646e-07 0)
(1 -8.08351e-07 0)
(1 -9.48925e-07 0)
(1 -1.10509e-06 0)
(1 -1.27529e-06 0)
(1.00001 -1.45591e-06 0)
(1.00001 -1.64021e-06 0)
(1.00001 -1.81745e-06 0)
(1.00001 -1.97265e-06 0)
(1.00001 -2.08738e-06 0)
(1.00001 -2.142e-06 0)
(1.00001 -2.11958e-06 0)
(1.00001 -2.0112e-06 0)
(1.00001 -1.82127e-06 0)
(1.00002 -1.57064e-06 0)
(1.00002 -1.29604e-06 0)
(1.00002 -1.0557e-06 0)
(1.00002 -9.30872e-07 0)
(1.00002 -1.00552e-06 0)
(1.00002 -1.32976e-06 0)
(1.00002 -1.87469e-06 0)
(1.00002 -2.50199e-06 0)
(1.00002 -2.98385e-06 0)
(1.00003 -3.09048e-06 0)
(1.00003 -2.69839e-06 0)
(1.00003 -1.8372e-06 0)
(1.00003 -6.48375e-07 0)
(1.00003 6.97973e-07 0)
(1.00003 2.07283e-06 0)
(1.00003 3.41056e-06 0)
(1.00003 4.68942e-06 0)
(1.00002 5.8929e-06 0)
(1.00002 6.98924e-06 0)
(1.00001 7.93215e-06 0)
(1.00001 8.66231e-06 0)
(1 9.11278e-06 0)
(0.999997 9.23015e-06 0)
(0.999991 8.99487e-06 0)
(0.999985 8.4196e-06 0)
(0.99998 7.53328e-06 0)
(0.999976 6.37167e-06 0)
(0.999972 4.97766e-06 0)
(0.999969 3.40224e-06 0)
(0.999968 1.69926e-06 0)
(0.999967 -8.22137e-08 0)
(0.999968 -1.89951e-06 0)
(0.999969 -3.71472e-06 0)
(0.999972 -5.49361e-06 0)
(0.999976 -7.20358e-06 0)
(0.999981 -8.81096e-06 0)
(0.999987 -1.02785e-05 0)
(0.999994 -1.15638e-05 0)
(1 -1.26197e-05 0)
(1.00001 -1.33973e-05 0)
(1.00002 -1.38496e-05 0)
(1.00003 -1.39314e-05 0)
(1.00004 -1.36039e-05 0)
(1.00004 -1.28423e-05 0)
(1.00005 -1.16255e-05 0)
(1.00006 -9.93915e-06 0)
(1.00007 -7.78426e-06 0)
(1.00007 -5.18498e-06 0)
(1.00007 -2.19462e-06 0)
(1.00007 1.09745e-06 0)
(1.00007 4.57241e-06 0)
(1.00007 8.07567e-06 0)
(1.00006 1.14281e-05 0)
(1.00005 1.44407e-05 0)
(1.00004 1.69329e-05 0)
(1.00003 1.87516e-05 0)
(1.00002 1.979e-05 0)
(1.00001 2.00006e-05 0)
(0.999994 1.93993e-05 0)
(0.999982 1.80619e-05 0)
(0.999971 1.61155e-05 0)
(0.999962 1.37287e-05 0)
(0.999954 1.10926e-05 0)
(0.999948 8.38518e-06 0)
(0.999943 5.73818e-06 0)
(0.999941 3.22953e-06 0)
(0.99994 8.94524e-07 0)
(0.99994 -1.25101e-06 0)
(0.999941 -3.17838e-06 0)
(0.999944 -4.80685e-06 0)
(0.999948 -6.00096e-06 0)
(0.999952 -6.62711e-06 0)
(0.999956 -6.63713e-06 0)
(0.99996 -6.12349e-06 0)
(0.999964 -5.3074e-06 0)
(0.999967 -4.4544e-06 0)
(0.999969 -3.76455e-06 0)
(0.999971 -3.31566e-06 0)
(0.999973 -3.08633e-06 0)
(0.999975 -3.01094e-06 0)
(0.999977 -3.01778e-06 0)
(0.999978 -3.04667e-06 0)
(0.99998 -3.05617e-06 0)
(0.999982 -3.0239e-06 0)
(0.999984 -2.94244e-06 0)
(0.999986 -2.81442e-06 0)
(0.999987 -2.64818e-06 0)
(0.999989 -2.45456e-06 0)
(0.99999 -2.24458e-06 0)
(0.999992 -2.02814e-06 0)
(0.999993 -1.81338e-06 0)
(0.999994 -1.6065e-06 0)
(0.999995 -1.41182e-06 0)
(0.999996 -1.23206e-06 0)
(0.999996 -1.06863e-06 0)
(0.999997 -9.21927e-07 0)
(0.999997 -7.91629e-07 0)
(0.999998 -6.76919e-07 0)
(0.999998 -5.76674e-07 0)
(0.999999 -4.89612e-07 0)
(0.999999 -4.14392e-07 0)
(0.999999 -3.49692e-07 0)
(0.999999 -2.94249e-07 0)
(0.999999 -2.46893e-07 0)
(0.999999 -2.06559e-07 0)
(1 -1.72294e-07 0)
(1 -1.43249e-07 0)
(1 -1.18684e-07 0)
(1 -9.79477e-08 0)
(1 -8.04789e-08 0)
(1 -6.57913e-08 0)
(1 -5.3467e-08 0)
(1 -4.31483e-08 0)
(1 -3.45298e-08 0)
(1 -2.73517e-08 0)
(1 -2.13937e-08 0)
(1 -1.64688e-08 0)
(1 -1.24184e-08 0)
(1 -9.10717e-09 0)
(1 -6.41914e-09 0)
(1 -4.25465e-09 0)
(1 -2.52884e-09 0)
(1 -1.16963e-09 0)
(1 -1.14615e-10 0)
(1 6.88768e-10 0)
(1 1.28387e-09 0)
(1 1.70687e-09 0)
(1 1.98796e-09 0)
(1 2.15239e-09 0)
(1 2.22097e-09 0)
(1 2.21157e-09 0)
(1 2.13861e-09 0)
(1 2.01786e-09 0)
(1 1.84737e-09 0)
(1 1.69073e-09 0)
(1 1.32852e-09 0)
(1 5.06216e-11 0)
(1 1.37002e-10 0)
(1 2.26795e-10 0)
(1 3.17527e-10 0)
(1 4.08211e-10 0)
(1 5.00638e-10 0)
(1 5.94652e-10 0)
(1 6.9022e-10 0)
(1 7.87515e-10 0)
(1 8.86788e-10 0)
(1 9.88269e-10 0)
(1 1.09183e-09 0)
(1 1.1966e-09 0)
(1 1.30063e-09 0)
(1 1.4007e-09 0)
(1 1.49227e-09 0)
(1 1.56935e-09 0)
(1 1.6246e-09 0)
(1 1.64934e-09 0)
(1 1.6335e-09 0)
(1 1.56514e-09 0)
(1 1.42966e-09 0)
(1 1.20847e-09 0)
(1 8.77545e-10 0)
(1 4.06271e-10 0)
(1 -2.44449e-10 0)
(1 -1.1234e-09 0)
(1 -2.29011e-09 0)
(1 -3.81631e-09 0)
(1 -5.78855e-09 0)
(1 -8.31199e-09 0)
(1 -1.15147e-08 0)
(1 -1.55527e-08 0)
(1 -2.06147e-08 0)
(1 -2.69282e-08 0)
(1 -3.47644e-08 0)
(1 -4.44451e-08 0)
(1 -5.63553e-08 0)
(1 -7.09666e-08 0)
(1 -8.8865e-08 0)
(1 -1.10773e-07 0)
(1 -1.37563e-07 0)
(1 -1.70268e-07 0)
(1 -2.10079e-07 0)
(1 -2.58322e-07 0)
(1 -3.16402e-07 0)
(1 -3.85745e-07 0)
(1 -4.6778e-07 0)
(1 -5.63964e-07 0)
(1 -6.7579e-07 1.39758e-43)
(1 -8.04698e-07 3.14989e-43)
(1 -9.51881e-07 0)
(1 -1.11801e-06 0)
(1 -1.30288e-06 0)
(1 -1.50483e-06 0)
(1.00001 -1.71977e-06 0)
(1.00001 -1.93991e-06 0)
(1.00001 -2.1525e-06 0)
(1.00001 -2.33952e-06 0)
(1.00001 -2.47887e-06 0)
(1.00001 -2.54728e-06 0)
(1.00001 -2.52417e-06 0)
(1.00001 -2.39642e-06 0)
(1.00001 -2.16478e-06 0)
(1.00002 -1.85171e-06 0)
(1.00002 -1.50656e-06 0)
(1.00002 -1.20906e-06 0)
(1.00002 -1.06371e-06 0)
(1.00002 -1.17517e-06 0)
(1.00002 -1.60651e-06 0)
(1.00002 -2.32398e-06 0)
(1.00002 -3.15469e-06 0)
(1.00002 -3.80883e-06 0)
(1.00003 -3.99215e-06 0)
(1.00003 -3.54654e-06 0)
(1.00003 -2.51016e-06 0)
(1.00003 -1.06223e-06 0)
(1.00003 5.82917e-07 0)
(1.00003 2.26188e-06 0)
(1.00003 3.89611e-06 0)
(1.00003 5.46354e-06 0)
(1.00002 6.94608e-06 0)
(1.00002 8.30456e-06 0)
(1.00001 9.48186e-06 0)
(1.00001 1.04041e-05 0)
(1 1.09864e-05 0)
(0.999997 1.11605e-05 0)
(0.999991 1.0902e-05 0)
(0.999985 1.0227e-05 0)
(0.99998 9.17141e-06 0)
(0.999975 7.77819e-06 0)
(0.999972 6.10056e-06 0)
(0.999969 4.20246e-06 0)
(0.999967 2.15079e-06 0)
(0.999967 6.71268e-09 0)
(0.999967 -2.17654e-06 0)
(0.999969 -4.35324e-06 0)
(0.999972 -6.48347e-06 0)
(0.999976 -8.52964e-06 0)
(0.999981 -1.04532e-05 0)
(0.999987 -1.22129e-05 0)
(0.999993 -1.37641e-05 0)
(1 -1.50595e-05 0)
(1.00001 -1.6049e-05 0)
(1.00002 -1.66784e-05 0)
(1.00003 -1.68871e-05 0)
(1.00004 -1.66132e-05 0)
(1.00004 -1.58059e-05 0)
(1.00005 -1.44259e-05 0)
(1.00006 -1.24513e-05 0)
(1.00007 -9.88351e-06 0)
(1.00007 -6.75322e-06 0)
(1.00007 -3.12583e-06 0)
(1.00007 8.891e-07 0)