/*--------------------------------*- C++ -*----------------------------------*\
| =========                 |                                                 |
| \\      /  F ield         | OpenFOAM: The Open Source CFD Toolbox           |
|  \\    /   O peration     | Version:  v2006                                 |
|   \\  /    A nd           | Website:  www.openfoam.com                      |
|    \\/     M anipulation  |                                                 |
\*---------------------------------------------------------------------------*/
FoamFile
{
    version     2.0;
    format      ascii;
    class       volVectorField;
    location    "0";
    object      U;
}
// * * * * * * * * * * * * * * * * * * * * * * * * * * * * * * * * * * * * * //

dimensions      [0 1 -1 0 0 0 0];


internalField   nonuniform List<vector> 
67500
(
(-0.0168724 0.015841 0)
(-0.0385112 0.0202704 0)
(-0.068804 -0.0069521 0)
(-0.0709268 -0.0752097 0)
(-0.0516445 -0.100724 0)
(-0.0524862 -0.0968152 0)
(-0.0286673 -0.0830166 0)
(0.0394183 -0.065273 0)
(0.109855 -0.0670156 0)
(0.176457 -0.0561725 0)
(0.223194 -0.0478604 0)
(0.25333 -0.0454778 0)
(0.276216 -0.042378 0)
(0.297013 -0.0307534 0)
(0.308502 -0.0110167 0)
(0.301571 0.00717762 0)
(0.245849 0.0112163 0)
(0.194814 -0.00200316 0)
(0.168093 -0.0106392 0)
(0.157973 -0.012534 0)
(0.157169 -0.0128969 0)
(0.16461 -0.0147713 0)
(0.17716 -0.0154905 0)
(0.190056 -0.0137757 0)
(0.199681 -0.0105762 0)
(0.205575 -0.00744009 0)
(0.209202 -0.00536204 0)
(0.211798 -0.00432006 0)
(0.213907 -0.0037818 0)
(0.216023 -0.00342068 0)
(0.218754 -0.00320048 0)
(0.222315 -0.00297461 0)
(0.226441 -0.00251897 0)
(0.230856 -0.00178083 0)
(0.23558 -0.00104979 0)
(0.240895 -0.000765255 0)
(0.247169 -0.00114611 0)
(0.254646 -0.00205781 0)
(0.263295 -0.00318382 0)
(0.272785 -0.00424863 0)
(0.28263 -0.00506524 0)
(0.29238 -0.00552808 0)
(0.301736 -0.00562519 0)
(0.310571 -0.00542115 0)
(0.318911 -0.00503015 0)
(0.326892 -0.00458657 0)
(0.334713 -0.00420949 0)
(0.342578 -0.00397171 0)
(0.350628 -0.00389138 0)
(0.358892 -0.00393159 0)
(0.367285 -0.00401331 0)
(0.375665 -0.0040521 0)
(0.383903 -0.00399368 0)
(0.391937 -0.00383521 0)
(0.399784 -0.00362601 0)
(0.407529 -0.00344613 0)
(0.415306 -0.00337284 0)
(0.42326 -0.00345031 0)
(0.431522 -0.00367415 0)
(0.440171 -0.00399669 0)
(0.44922 -0.00434695 0)
(0.458609 -0.00464956 0)
(0.468187 -0.00482697 0)
(0.477707 -0.0048238 0)
(0.48698 -0.00471973 0)
(0.495993 -0.00459054 0)
(0.504797 -0.00446666 0)
(0.513429 -0.00436564 0)
(0.52192 -0.00429324 0)
(0.530299 -0.0042435 0)
(0.538583 -0.00420427 0)
(0.546772 -0.00416054 0)
(0.554847 -0.00409717 0)
(0.56277 -0.00400242 0)
(0.570485 -0.0038679 0)
(0.577926 -0.00369517 0)
(0.585066 -0.00352748 0)
(0.591997 -0.0034264 0)
(0.598875 -0.00339539 0)
(0.605808 -0.00340913 0)
(0.612842 -0.00345102 0)
(0.620002 -0.00351018 0)
(0.627299 -0.00357808 0)
(0.634737 -0.00364806 0)
(0.642308 -0.00371279 0)
(0.649987 -0.0037632 0)
(0.657728 -0.00378962 0)
(0.66546 -0.00378496 0)
(0.673114 -0.00375857 0)
(0.680673 -0.00373954 0)
(0.688184 -0.00374127 0)
(0.695693 -0.00375367 0)
(0.703212 -0.00376251 0)
(0.710721 -0.0037563 0)
(0.718184 -0.00372748 0)
(0.725558 -0.00367918 0)
(0.732826 -0.00362806 0)
(0.740005 -0.00358738 0)
(0.747123 -0.00355446 0)
(0.754188 -0.00352035 0)
(0.761187 -0.0034801 0)
(0.768102 -0.00343512 0)
(0.774927 -0.00339071 0)
(0.781667 -0.00334927 0)
(0.788326 -0.00330821 0)
(0.794901 -0.00326468 0)
(0.801385 -0.00321869 0)
(0.807775 -0.00317169 0)
(0.81407 -0.00312397 0)
(0.820269 -0.00307467 0)
(0.826367 -0.00302341 0)
(0.832361 -0.00297051 0)
(0.838248 -0.00291609 0)
(0.844025 -0.00285998 0)
(0.849688 -0.00280212 0)
(0.855233 -0.00274263 0)
(0.860658 -0.00268162 0)
(0.865959 -0.00261915 0)
(0.871134 -0.00255538 0)
(0.87618 -0.0024905 0)
(0.881095 -0.00242468 0)
(0.885877 -0.00235812 0)
(0.890526 -0.00229103 0)
(0.89504 -0.00222361 0)
(0.899419 -0.00215605 0)
(0.903662 -0.00208854 0)
(0.907771 -0.00202124 0)
(0.911745 -0.00195431 0)
(0.915586 -0.00188789 0)
(0.919295 -0.00182211 0)
(0.922872 -0.00175708 0)
(0.926321 -0.00169291 0)
(0.929642 -0.00162969 0)
(0.932837 -0.00156752 0)
(0.93591 -0.00150646 0)
(0.938861 -0.00144662 0)
(0.941694 -0.00138806 0)
(0.944411 -0.00133086 0)
(0.947015 -0.0012751 0)
(0.949509 -0.00122083 0)
(0.951896 -0.00116812 0)
(0.954179 -0.00111701 0)
(0.956362 -0.00106752 0)
(0.958447 -0.00101968 0)
(0.960438 -0.000973497 0)
(0.962339 -0.000928977 0)
(0.964152 -0.000886112 0)
(0.965881 -0.000844891 0)
(0.96753 -0.000805298 0)
(0.969101 -0.000767311 0)
(0.970597 -0.000730906 0)
(0.972023 -0.000696056 0)
(0.97338 -0.000662728 0)
(0.974672 -0.000630886 0)
(0.975902 -0.000600491 0)
(0.977072 -0.000571499 0)
(0.978186 -0.000543864 0)
(0.979246 -0.000517539 0)
(0.980255 -0.000492474 0)
(0.981215 -0.000468617 0)
(0.982128 -0.000445919 0)
(0.982997 -0.000424326 0)
(0.983825 -0.000403789 0)
(0.984612 -0.000384256 0)
(0.985361 -0.000365678 0)
(0.986073 -0.000348006 0)
(0.986752 -0.000331192 0)
(0.987397 -0.00031519 0)
(0.988012 -0.000299954 0)
(0.988596 -0.00028544 0)
(0.989153 -0.000271606 0)
(0.989682 -0.000258412 0)
(0.990186 -0.000245821 0)
(0.990665 -0.000233799 0)
(0.99112 -0.000222314 0)
(0.991553 -0.000211339 0)
(0.991965 -0.000200848 0)
(0.992356 -0.000190819 0)
(0.992728 -0.000181235 0)
(0.993081 -0.000172079 0)
(0.993416 -0.000163337 0)
(0.993734 -0.000154997 0)
(0.994035 -0.000147048 0)
(0.994321 -0.000139479 0)
(0.994593 -0.00013228 0)
(0.99485 -0.000125441 0)
(0.995094 -0.000118951 0)
(0.995326 -0.000112798 0)
(0.995545 -0.000106972 0)
(0.995753 -0.000101459 0)
(0.995951 -9.6248e-05 0)
(0.996138 -9.13244e-05 0)
(0.996316 -8.66754e-05 0)
(0.996485 -8.22875e-05 0)
(0.996645 -7.81473e-05 0)
(0.996797 -7.42414e-05 0)
(0.996942 -7.0557e-05 0)
(0.997079 -6.70814e-05 0)
(0.99721 -6.38021e-05 0)
(0.997334 -6.07073e-05 0)
(0.997452 -5.77855e-05 0)
(0.997565 -5.50257e-05 0)
(0.997672 -5.24173e-05 0)
(0.997775 -4.99502e-05 0)
(0.997872 -4.76147e-05 0)
(0.997965 -4.54017e-05 0)
(0.998054 -4.33024e-05 0)
(0.998138 -4.13086e-05 0)
(0.998219 -3.94128e-05 0)
(0.998296 -3.76076e-05 0)
(0.998369 -3.58864e-05 0)
(0.998439 -3.42432e-05 0)
(0.998506 -3.26723e-05 0)
(0.99857 -3.11687e-05 0)
(0.998631 -2.97278e-05 0)
(0.998689 -2.83456e-05 0)
(0.998744 -2.70186e-05 0)
(0.998797 -2.57435e-05 0)
(0.998847 -2.45177e-05 0)
(0.998895 -2.33387e-05 0)
(0.99894 -2.22045e-05 0)
(0.998983 -2.11135e-05 0)
(0.999025 -2.0064e-05 0)
(0.999064 -1.90547e-05 0)
(0.999101 -1.80845e-05 0)
(0.999136 -1.71525e-05 0)
(0.999169 -1.62576e-05 0)
(0.999201 -1.53992e-05 0)
(0.999231 -1.45765e-05 0)
(0.999259 -1.37887e-05 0)
(0.999286 -1.30352e-05 0)
(0.999311 -1.23154e-05 0)
(0.999335 -1.16285e-05 0)
(0.999358 -1.09739e-05 0)
(0.999379 -1.03509e-05 0)
(0.999399 -9.75877e-06 0)
(0.999418 -9.19682e-06 0)
(0.999436 -8.66429e-06 0)
(0.999453 -8.1604e-06 0)
(0.999469 -7.68435e-06 0)
(0.999483 -7.23535e-06 0)
(0.999497 -6.81255e-06 0)
(0.999511 -6.41512e-06 0)
(0.999523 -6.0422e-06 0)
(0.999535 -5.69291e-06 0)
(0.999546 -5.3664e-06 0)
(0.999556 -5.06179e-06 0)
(0.999566 -4.7782e-06 0)
(0.999575 -4.51476e-06 0)
(0.999584 -4.27058e-06 0)
(0.999592 -4.04482e-06 0)
(0.9996 -3.83659e-06 0)
(0.999608 -3.64506e-06 0)
(0.999615 -3.46937e-06 0)
(0.999622 -3.30869e-06 0)
(0.999628 -3.1622e-06 0)
(0.999634 -3.02909e-06 0)
(0.99964 -2.90856e-06 0)
(0.999646 -2.79983e-06 0)
(0.999651 -2.70213e-06 0)
(0.999657 -2.61473e-06 0)
(0.999662 -2.53689e-06 0)
(0.999667 -2.46792e-06 0)
(0.999672 -2.40711e-06 0)
(0.999676 -2.35382e-06 0)
(0.999681 -2.3074e-06 0)
(0.999686 -2.26723e-06 0)
(0.99969 -2.23273e-06 0)
(0.999695 -2.20332e-06 0)
(0.999699 -2.17847e-06 0)
(0.999703 -2.15766e-06 0)
(0.999708 -2.14041e-06 0)
(0.999712 -2.12624e-06 0)
(0.999716 -2.11471e-06 0)
(0.99972 -2.10542e-06 0)
(0.999725 -2.09798e-06 0)
(0.999729 -2.092e-06 0)
(0.999733 -2.08715e-06 0)
(0.999737 -2.08311e-06 0)
(0.999741 -2.07956e-06 0)
(0.999745 -2.07622e-06 0)
(0.99975 -2.07282e-06 0)
(0.999754 -2.06911e-06 0)
(0.999758 -2.06485e-06 0)
(0.999762 -2.05983e-06 0)
(0.999766 -2.05382e-06 0)
(0.99977 -2.04663e-06 0)
(0.999774 -2.03809e-06 0)
(0.999778 -2.02801e-06 0)
(0.999782 -2.01624e-06 0)
(0.999786 -2.00264e-06 0)
(0.99979 -1.98706e-06 0)
(0.999794 -1.96938e-06 0)
(0.999798 -1.9495e-06 0)
(0.999802 -1.92732e-06 0)
(0.999806 -1.90276e-06 0)
(0.99981 -1.87578e-06 0)
(0.999813 -1.84633e-06 0)
(0.999817 -1.8144e-06 0)
(0.999821 -1.77999e-06 0)
(0.999824 -1.74314e-06 0)
(0.999828 -1.70392e-06 0)
(0.999831 -1.66241e-06 0)
(0.999834 -1.61875e-06 0)
(0.999838 -1.57308e-06 0)
(0.999841 -1.52561e-06 0)
(0.999844 -1.47653e-06 0)
(0.999847 -1.42611e-06 0)
(0.999849 -1.37463e-06 0)
(0.999852 -1.32238e-06 0)
(0.999855 -1.26968e-06 0)
(0.999857 -1.21686e-06 0)
(0.99986 -1.16426e-06 0)
(0.999862 -1.11222e-06 0)
(0.999864 -1.06106e-06 0)
(0.999866 -1.01109e-06 0)
(0.999868 -9.62587e-07 0)
(0.99987 -9.15811e-07 0)
(0.999872 -8.70982e-07 0)
(0.999873 -8.28291e-07 0)
(0.999875 -7.87893e-07 0)
(0.999876 -7.49921e-07 0)
(0.999878 -7.1448e-07 0)
(0.999879 -6.81663e-07 0)
(0.999881 -6.51554e-07 0)
(0.999882 -6.2423e-07 0)
(0.999883 -5.9977e-07 0)
(0.999884 -5.78247e-07 0)
(0.999885 -5.59731e-07 0)
(0.999887 -5.44274e-07 0)
(0.999888 -5.31899e-07 0)
(0.999889 -5.2258e-07 0)
(0.99989 -5.1623e-07 0)
(0.999891 -5.12676e-07 0)
(0.999892 -5.11647e-07 0)
(0.999893 -5.12766e-07 0)
(0.999894 -5.15544e-07 0)
(0.999895 -5.19395e-07 0)
(0.999896 -5.23657e-07 0)
(0.999897 -5.27628e-07 0)
(0.999898 -5.30611e-07 0)
(0.999899 -5.31971e-07 0)
(0.9999 -5.3119e-07 0)
(0.999901 -5.27923e-07 0)
(0.999902 -5.22037e-07 0)
(0.999903 -5.13641e-07 0)
(0.999904 -5.03084e-07 0)
(0.999905 -4.90934e-07 0)
(0.999906 -4.77939e-07 0)
(0.999907 -4.64963e-07 0)
(0.999908 -4.52911e-07 0)
(0.999909 -4.42654e-07 0)
(0.99991 -4.34959e-07 0)
(0.999911 -4.30428e-07 0)
(0.999912 -4.29461e-07 0)
(0.999913 -4.32232e-07 0)
(0.999914 -4.38691e-07 0)
(0.999915 -4.48582e-07 0)
(0.999916 -4.61474e-07 0)
(0.999917 -4.76806e-07 0)
(0.999918 -4.93929e-07 0)
(0.999919 -5.12152e-07 0)
(0.99992 -5.30786e-07 0)
(0.999921 -5.49175e-07 0)
(0.999922 -5.66728e-07 0)
(0.999923 -5.82936e-07 0)
(0.999924 -5.97384e-07 0)
(0.999925 -6.09757e-07 0)
(0.999927 -6.19835e-07 0)
(0.999928 -6.27491e-07 0)
(0.999929 -6.32678e-07 0)
(0.99993 -6.35422e-07 0)
(0.999932 -6.35805e-07 0)
(0.999933 -6.33955e-07 0)
(0.999934 -6.30037e-07 0)
(0.999936 -6.24234e-07 0)
(0.999937 -6.16749e-07 0)
(0.999938 -6.07787e-07 0)
(0.999939 -5.97553e-07 0)
(0.99994 -5.86247e-07 0)
(0.999942 -5.74059e-07 0)
(0.999943 -5.61167e-07 0)
(0.999944 -5.47733e-07 0)
(0.999945 -5.33907e-07 0)
(0.999946 -5.19821e-07 0)
(0.999947 -5.05593e-07 0)
(0.999948 -4.91325e-07 0)
(0.999949 -4.77107e-07 0)
(0.99995 -4.63012e-07 0)
(0.999951 -4.49106e-07 0)
(0.999952 -4.3544e-07 0)
(0.999952 -4.22058e-07 0)
(0.999953 -4.08994e-07 0)
(0.999954 -3.96273e-07 0)
(0.999955 -3.83917e-07 0)
(0.999956 -3.71938e-07 0)
(0.999956 -3.60346e-07 0)
(0.999957 -3.49145e-07 0)
(0.999958 -3.38337e-07 0)
(0.999958 -3.2792e-07 0)
(0.999959 -3.17889e-07 0)
(0.99996 -3.08238e-07 0)
(0.99996 -2.98959e-07 0)
(0.999961 -2.90043e-07 0)
(0.999961 -2.81479e-07 0)
(0.999962 -2.73257e-07 0)
(0.999963 -2.65365e-07 0)
(0.999963 -2.57791e-07 0)
(0.999964 -2.50524e-07 0)
(0.999964 -2.4355e-07 0)
(0.999965 -2.36858e-07 0)
(0.999965 -2.30437e-07 0)
(0.999965 -2.24274e-07 0)
(0.999966 -2.18357e-07 0)
(0.999966 -2.12676e-07 0)
(0.999967 -2.0722e-07 0)
(0.999967 -2.01978e-07 0)
(0.999968 -1.9694e-07 0)
(0.999968 -1.92096e-07 0)
(0.999968 -1.87437e-07 0)
(0.999969 -1.82953e-07 0)
(0.999969 -1.78637e-07 0)
(0.999969 -1.74479e-07 0)
(0.99997 -1.70472e-07 0)
(0.99997 -1.66609e-07 0)
(0.99997 -1.62881e-07 0)
(0.999971 -1.59283e-07 0)
(0.999971 -1.55807e-07 0)
(0.999971 -1.52448e-07 0)
(0.999972 -1.49199e-07 0)
(0.999972 -1.46055e-07 0)
(0.999972 -1.43011e-07 0)
(0.999973 -1.40061e-07 0)
(0.999973 -1.372e-07 0)
(0.999973 -1.34425e-07 0)
(0.999973 -1.31731e-07 0)
(0.999974 -1.29113e-07 0)
(0.999974 -1.26569e-07 0)
(0.999974 -1.24093e-07 0)
(0.999974 -1.21683e-07 0)
(0.999975 -1.19335e-07 0)
(0.999975 -1.17046e-07 0)
(0.999975 -1.14813e-07 0)
(0.999975 -1.12634e-07 0)
(0.999976 -1.10506e-07 0)
(0.999976 -1.08422e-07 0)
(0.999976 -1.06401e-07 0)
(0.999976 -1.04348e-07 0)
(0.999976 -1.02662e-07 0)
(0.999977 -9.96005e-08 0)
(-0.0211565 0.0385261 0)
(-0.0320219 0.0320623 0)
(-0.0547796 0.0345623 0)
(-0.00243312 -0.0182528 0)
(-0.0268835 0.0707937 0)
(-0.000198476 0.0513891 0)
(-0.0589339 0.0112224 0)
(-0.0421491 -0.0657585 0)
(-0.0353174 -0.0873 0)
(0.0584136 -0.0659069 0)
(0.114633 -0.030648 0)
(0.130572 -0.0101305 0)
(0.14313 -0.016252 0)
(0.171112 -0.0164386 0)
(0.215162 0.00335191 0)
(0.249044 0.0403429 0)
(0.270866 0.075135 0)
(0.268835 0.0733788 0)
(0.261411 0.0513535 0)
(0.253615 0.0275941 0)
(0.245453 0.00605494 0)
(0.236242 -0.007128 0)
(0.224126 -0.0104116 0)
(0.213179 -0.00696729 0)
(0.207306 -0.00286378 0)
(0.207064 -0.000948267 0)
(0.210845 -0.000482754 0)
(0.217025 -0.000554388 0)
(0.225385 -0.000808056 0)
(0.235674 -0.00176715 0)
(0.246774 -0.00347254 0)
(0.257829 -0.00507075 0)
(0.268863 -0.00649166 0)
(0.280461 -0.00801107 0)
(0.292954 -0.00972683 0)
(0.306162 -0.0115631 0)
(0.319563 -0.0132795 0)
(0.332532 -0.0145163 0)
(0.344506 -0.0150436 0)
(0.355174 -0.0148269 0)
(0.364503 -0.0140177 0)
(0.372621 -0.0129122 0)
(0.379744 -0.0118421 0)
(0.386155 -0.0110731 0)
(0.392187 -0.0107532 0)
(0.398161 -0.0108935 0)
(0.404307 -0.0113838 0)
(0.410688 -0.0120235 0)
(0.417206 -0.0125803 0)
(0.423688 -0.0128713 0)
(0.429973 -0.0128433 0)
(0.435975 -0.0125901 0)
(0.441702 -0.0122897 0)
(0.447248 -0.0121039 0)
(0.452759 -0.0121155 0)
(0.458391 -0.0123285 0)
(0.46426 -0.0127003 0)
(0.470412 -0.0131682 0)
(0.476809 -0.0136655 0)
(0.483344 -0.0141313 0)
(0.489885 -0.0145104 0)
(0.496317 -0.0147361 0)
(0.502539 -0.0146792 0)
(0.508374 -0.0142244 0)
(0.513745 -0.0137874 0)
(0.518837 -0.0134752 0)
(0.523864 -0.013212 0)
(0.528957 -0.012966 0)
(0.534207 -0.0127305 0)
(0.539675 -0.0125009 0)
(0.545393 -0.0122695 0)
(0.551369 -0.0120237 0)
(0.557588 -0.0117515 0)
(0.564013 -0.0114501 0)
(0.570575 -0.0111118 0)
(0.577136 -0.0107115 0)
(0.583566 -0.010351 0)
(0.589933 -0.0102253 0)
(0.596421 -0.0103085 0)
(0.603114 -0.0104875 0)
(0.610016 -0.0107029 0)
(0.617124 -0.0109319 0)
(0.624436 -0.0111617 0)
(0.631949 -0.011381 0)
(0.63965 -0.0115722 0)
(0.647514 -0.0117058 0)
(0.655487 -0.0117439 0)
(0.663471 -0.0116536 0)
(0.671353 -0.0114714 0)
(0.679106 -0.0113277 0)
(0.686808 -0.0112744 0)
(0.694529 -0.0112667 0)
(0.702273 -0.011256 0)
(0.710011 -0.0112097 0)
(0.717686 -0.0111051 0)
(0.725227 -0.0109497 0)
(0.732606 -0.0108002 0)
(0.739862 -0.0106974 0)
(0.747048 -0.0106236 0)
(0.754175 -0.010543 0)
(0.761224 -0.0104355 0)
(0.768168 -0.0103053 0)
(0.775004 -0.0101738 0)
(0.781747 -0.0100514 0)
(0.78841 -0.00992883 0)
(0.794989 -0.00979631 0)
(0.801473 -0.00965554 0)
(0.807861 -0.00951305 0)
(0.814155 -0.00936983 0)
(0.820354 -0.00922224 0)
(0.826453 -0.0090688 0)
(0.832448 -0.00891064 0)
(0.838338 -0.00874804 0)
(0.844118 -0.00858005 0)
(0.849784 -0.00840647 0)
(0.855333 -0.00822787 0)
(0.860761 -0.0080446 0)
(0.866066 -0.00785693 0)
(0.871244 -0.00766538 0)
(0.876292 -0.00747053 0)
(0.88121 -0.0072729 0)
(0.885994 -0.00707308 0)
(0.890644 -0.00687168 0)
(0.895159 -0.00666929 0)
(0.899539 -0.00646649 0)
(0.903783 -0.00626384 0)
(0.907891 -0.00606185 0)
(0.911865 -0.00586098 0)
(0.915706 -0.00566167 0)
(0.919413 -0.00546428 0)
(0.92299 -0.00526916 0)
(0.926437 -0.00507662 0)
(0.929757 -0.00488694 0)
(0.932951 -0.00470039 0)
(0.936021 -0.00451722 0)
(0.93897 -0.00433768 0)
(0.941801 -0.00416199 0)
(0.944516 -0.00399039 0)
(0.947117 -0.0038231 0)
(0.949609 -0.00366031 0)
(0.951993 -0.00350218 0)
(0.954273 -0.00334885 0)
(0.956453 -0.00320042 0)
(0.958535 -0.00305693 0)
(0.960524 -0.00291843 0)
(0.962421 -0.00278492 0)
(0.964232 -0.00265637 0)
(0.965958 -0.00253276 0)
(0.967603 -0.00241403 0)
(0.969171 -0.00230012 -2.25795e-41)
(0.970665 -0.00219096 -2.18585e-41)
(0.972087 -0.00208647 0)
(0.973442 -0.00198654 0)
(0.974731 -0.00189108 0)
(0.975958 -0.00179995 0)
(0.977126 -0.00171303 0)
(0.978238 -0.00163019 0)
(0.979296 -0.00155128 0)
(0.980302 -0.00147615 0)
(0.98126 -0.00140464 0)
(0.982171 -0.0013366 0)
(0.983038 -0.00127188 0)
(0.983863 -0.00121033 0)
(0.984648 -0.00115178 0)
(0.985396 -0.0010961 0)
(0.986107 -0.00104313 0)
(0.986784 -0.000992741 0)
(0.987428 -0.000944778 0)
(0.988041 -0.00089911 0)
(0.988624 -0.000855606 0)
(0.989179 -0.000814138 0)
(0.989707 -0.000774589 0)
(0.99021 -0.000736845 0)
(0.990688 -0.000700805 0)
(0.991142 -0.000666374 0)
(0.991574 -0.000633469 0)
(0.991985 -0.000602016 0)
(0.992376 -0.000571951 0)
(0.992746 -0.000543218 0)
(0.993098 -0.000515769 0)
(0.993433 -0.000489564 0)
(0.99375 -0.000464565 0)
(0.994051 -0.00044074 0)
(0.994336 -0.000418056 0)
(0.994607 -0.000396482 0)
(0.994863 -0.000375988 0)
(0.995107 -0.00035654 0)
(0.995337 -0.000338105 0)
(0.995556 -0.000320647 0)
(0.995764 -0.00030413 0)
(0.995961 -0.000288514 0)
(0.996148 -0.00027376 0)
(0.996325 -0.000259828 0)
(0.996493 -0.000246677 0)
(0.996653 -0.000234269 0)
(0.996804 -0.000222562 0)
(0.996949 -0.000211519 0)
(0.997086 -0.0002011 0)
(0.997216 -0.00019127 0)
(0.99734 -0.000181993 0)
(0.997458 -0.000173234 0)
(0.99757 -0.000164961 0)
(0.997677 -0.000157142 0)
(0.997779 -0.000149746 0)
(0.997877 -0.000142745 0)
(0.997969 -0.000136111 0)
(0.998058 -0.000129819 0)
(0.998142 -0.000123843 0)
(0.998222 -0.00011816 0)
(0.998299 -0.000112749 0)
(0.998372 -0.000107591 0)
(0.998442 -0.000102665 0)
(0.998509 -9.79566e-05 0)
(0.998573 -9.34494e-05 0)
(0.998633 -8.91301e-05 0)
(0.998691 -8.49864e-05 0)
(0.998747 -8.10078e-05 0)
(0.998799 -7.71847e-05 0)
(0.998849 -7.3509e-05 0)
(0.998897 -6.99736e-05 0)
(0.998942 -6.65725e-05 0)
(0.998986 -6.33003e-05 0)
(0.999027 -6.01525e-05 0)
(0.999066 -5.71254e-05 0)
(0.999103 -5.42155e-05 0)
(0.999138 -5.14198e-05 0)
(0.999171 -4.87358e-05 0)
(0.999203 -4.6161e-05 0)
(0.999233 -4.36932e-05 0)
(0.999261 -4.13304e-05 0)
(0.999288 -3.90705e-05 0)
(0.999313 -3.69116e-05 0)
(0.999337 -3.48516e-05 0)
(0.999359 -3.28884e-05 0)
(0.99938 -3.10202e-05 0)
(0.9994 -2.92446e-05 0)
(0.999419 -2.75596e-05 0)
(0.999437 -2.59629e-05 0)
(0.999454 -2.44521e-05 0)
(0.99947 -2.3025e-05 0)
(0.999484 -2.16789e-05 0)
(0.999498 -2.04115e-05 0)
(0.999511 -1.92201e-05 0)
(0.999524 -1.81023e-05 0)
(0.999536 -1.70554e-05 0)
(0.999547 -1.60769e-05 0)
(0.999557 -1.5164e-05 0)
(0.999567 -1.43142e-05 0)
(0.999576 -1.35248e-05 0)
(0.999585 -1.27932e-05 0)
(0.999593 -1.21168e-05 0)
(0.999601 -1.1493e-05 0)
(0.999608 -1.09192e-05 0)
(0.999615 -1.0393e-05 0)
(0.999622 -9.91184e-06 0)
(0.999628 -9.47319e-06 0)
(0.999635 -9.07465e-06 0)
(0.99964 -8.71384e-06 0)
(0.999646 -8.38842e-06 0)
(0.999652 -8.09609e-06 0)
(0.999657 -7.83461e-06 0)
(0.999662 -7.60181e-06 0)
(0.999667 -7.39556e-06 0)
(0.999672 -7.21382e-06 0)
(0.999677 -7.05458e-06 0)
(0.999681 -6.91593e-06 0)
(0.999686 -6.79602e-06 0)
(0.99969 -6.69307e-06 0)
(0.999695 -6.6054e-06 0)
(0.999699 -6.53136e-06 0)
(0.999703 -6.46943e-06 0)
(0.999708 -6.41812e-06 0)
(0.999712 -6.37605e-06 0)
(0.999716 -6.3419e-06 0)
(0.99972 -6.31442e-06 0)
(0.999725 -6.29245e-06 0)
(0.999729 -6.27487e-06 0)
(0.999733 -6.26065e-06 0)
(0.999737 -6.24882e-06 0)
(0.999741 -6.23846e-06 0)
(0.999745 -6.22871e-06 0)
(0.99975 -6.21877e-06 0)
(0.999754 -6.20788e-06 0)
(0.999758 -6.19533e-06 0)
(0.999762 -6.18045e-06 0)
(0.999766 -6.16262e-06 0)
(0.99977 -6.14125e-06 0)
(0.999774 -6.11579e-06 0)
(0.999778 -6.08572e-06 0)
(0.999782 -6.05056e-06 0)
(0.999786 -6.00988e-06 0)
(0.99979 -5.96326e-06 0)
(0.999794 -5.91033e-06 0)
(0.999798 -5.85078e-06 0)
(0.999802 -5.78432e-06 0)
(0.999806 -5.71072e-06 0)
(0.99981 -5.62981e-06 0)
(0.999814 -5.54147e-06 0)
(0.999817 -5.44566e-06 0)
(0.999821 -5.3424e-06 0)
(0.999824 -5.23179e-06 0)
(0.999828 -5.11402e-06 0)
(0.999831 -4.98937e-06 0)
(0.999834 -4.85822e-06 0)
(0.999838 -4.72103e-06 0)
(0.999841 -4.57836e-06 0)
(0.999844 -4.43089e-06 0)
(0.999847 -4.27935e-06 0)
(0.999849 -4.12459e-06 0)
(0.999852 -3.9675e-06 0)
(0.999855 -3.80905e-06 0)
(0.999857 -3.65023e-06 0)
(0.99986 -3.49207e-06 0)
(0.999862 -3.33556e-06 0)
(0.999864 -3.18169e-06 0)
(0.999866 -3.0314e-06 0)
(0.999868 -2.88555e-06 0)
(0.99987 -2.74493e-06 0)
(0.999872 -2.61021e-06 0)
(0.999873 -2.48199e-06 0)
(0.999875 -2.36074e-06 0)
(0.999877 -2.24685e-06 0)
(0.999878 -2.1406e-06 0)
(0.999879 -2.04224e-06 0)
(0.999881 -1.95194e-06 0)
(0.999882 -1.86985e-06 0)
(0.999883 -1.79609e-06 0)
(0.999884 -1.7308e-06 0)
(0.999886 -1.67409e-06 0)
(0.999887 -1.62607e-06 0)
(0.999888 -1.58678e-06 0)
(0.999889 -1.55621e-06 0)
(0.99989 -1.5342e-06 0)
(0.999891 -1.5204e-06 0)
(0.999892 -1.51423e-06 0)
(0.999893 -1.51486e-06 0)
(0.999894 -1.52112e-06 0)
(0.999895 -1.53158e-06 0)
(0.999896 -1.54454e-06 0)
(0.999897 -1.55816e-06 0)
(0.999898 -1.57053e-06 0)
(0.999899 -1.57985e-06 0)
(0.9999 -1.58455e-06 0)
(0.999901 -1.5835e-06 0)
(0.999902 -1.57603e-06 0)
(0.999903 -1.56214e-06 0)
(0.999904 -1.54243e-06 0)
(0.999905 -1.5181e-06 0)
(0.999906 -1.49088e-06 0)
(0.999907 -1.46283e-06 0)
(0.999908 -1.43621e-06 0)
(0.999909 -1.41324e-06 0)
(0.99991 -1.39594e-06 0)
(0.999911 -1.38597e-06 0)
(0.999912 -1.38448e-06 0)
(0.999913 -1.3921e-06 0)
(0.999914 -1.40886e-06 0)
(0.999915 -1.43425e-06 0)
(0.999915 -1.46732e-06 0)
(0.999916 -1.50672e-06 0)
(0.999917 -1.55083e-06 0)
(0.999919 -1.59791e-06 0)
(0.99992 -1.64617e-06 0)
(0.999921 -1.69388e-06 0)
(0.999922 -1.73944e-06 0)
(0.999923 -1.78147e-06 0)
(0.999924 -1.81881e-06 0)
(0.999925 -1.85055e-06 0)
(0.999927 -1.87606e-06 0)
(0.999928 -1.89494e-06 0)
(0.999929 -1.90701e-06 0)
(0.99993 -1.91231e-06 0)
(0.999932 -1.91102e-06 0)
(0.999933 -1.90348e-06 0)
(0.999934 -1.89011e-06 0)
(0.999936 -1.87141e-06 0)
(0.999937 -1.84795e-06 0)
(0.999938 -1.82028e-06 0)
(0.999939 -1.78898e-06 0)
(0.99994 -1.75462e-06 0)
(0.999942 -1.71773e-06 0)
(0.999943 -1.67883e-06 0)
(0.999944 -1.63838e-06 0)
(0.999945 -1.59682e-06 0)
(0.999946 -1.55452e-06 0)
(0.999947 -1.51183e-06 0)
(0.999948 -1.46905e-06 0)
(0.999949 -1.42644e-06 0)
(0.99995 -1.38422e-06 0)
(0.999951 -1.34257e-06 0)
(0.999952 -1.30165e-06 0)
(0.999953 -1.26159e-06 0)
(0.999953 -1.22249e-06 0)
(0.999954 -1.18442e-06 0)
(0.999955 -1.14745e-06 0)
(0.999956 -1.1116e-06 0)
(0.999956 -1.07692e-06 0)
(0.999957 -1.04341e-06 0)
(0.999958 -1.01108e-06 0)
(0.999958 -9.79919e-07 0)
(0.999959 -9.49915e-07 0)
(0.99996 -9.21049e-07 0)
(0.99996 -8.93297e-07 0)
(0.999961 -8.66632e-07 0)
(0.999961 -8.41022e-07 0)
(0.999962 -8.16434e-07 0)
(0.999963 -7.92834e-07 0)
(0.999963 -7.70187e-07 0)
(0.999964 -7.48456e-07 0)
(0.999964 -7.27605e-07 0)
(0.999965 -7.07597e-07 0)
(0.999965 -6.88398e-07 0)
(0.999965 -6.69971e-07 0)
(0.999966 -6.52283e-07 0)
(0.999966 -6.35299e-07 0)
(0.999967 -6.18988e-07 0)
(0.999967 -6.03318e-07 0)
(0.999968 -5.88257e-07 0)
(0.999968 -5.73777e-07 0)
(0.999968 -5.5985e-07 0)
(0.999969 -5.46449e-07 0)
(0.999969 -5.33547e-07 0)
(0.999969 -5.21119e-07 0)
(0.99997 -5.09143e-07 0)
(0.99997 -4.97595e-07 0)
(0.99997 -4.86454e-07 0)
(0.999971 -4.75699e-07 0)
(0.999971 -4.65312e-07 0)
(0.999971 -4.55272e-07 0)
(0.999972 -4.45563e-07 0)
(0.999972 -4.36167e-07 0)
(0.999972 -4.27069e-07 0)
(0.999973 -4.18254e-07 0)
(0.999973 -4.09707e-07 0)
(0.999973 -4.01414e-07 0)
(0.999973 -3.93363e-07 0)
(0.999974 -3.85541e-07 0)
(0.999974 -3.77937e-07 0)
(0.999974 -3.70539e-07 0)
(0.999974 -3.63337e-07 0)
(0.999975 -3.56321e-07 0)
(0.999975 -3.49482e-07 0)
(0.999975 -3.42811e-07 0)
(0.999975 -3.36298e-07 0)
(0.999976 -3.2994e-07 0)
(0.999976 -3.23713e-07 0)
(0.999976 -3.17675e-07 0)
(0.999976 -3.11541e-07 0)
(0.999976 -3.06502e-07 0)
(0.999977 -2.97385e-07 0)
(-0.0196368 0.0630854 0)
(-0.0147328 0.0441222 0)
(-0.0475531 0.0142586 0)
(-0.059628 0.00969765 0)
(-0.144898 0.00138024 0)
(-0.162427 -0.0481619 0)
(-0.255376 -0.0891218 0)
(-0.378663 -0.122731 0)
(-0.348912 -0.183627 0)
(-0.212469 -0.169393 0)
(-0.0836911 -0.111512 0)
(0.0317128 -0.0727716 0)
(0.0737538 -0.0650833 0)
(0.110553 -0.0647657 0)
(0.127393 -0.0520187 0)
(0.136538 -0.018206 0)
(0.16454 0.00812968 0)
(0.194237 0.00982019 0)
(0.216344 0.00410248 0)
(0.22578 0.00163219 0)
(0.223124 0.00435575 0)
(0.214857 0.00720531 0)
(0.21266 0.00664143 0)
(0.219172 0.000890748 0)
(0.235512 -0.00676749 0)
(0.25375 -0.0127752 0)
(0.270932 -0.0154547 0)
(0.285279 -0.0174808 0)
(0.300147 -0.0206312 0)
(0.316271 -0.023116 0)
(0.328557 -0.0239403 0)
(0.33982 -0.0239417 0)
(0.349562 -0.023924 0)
(0.356846 -0.0241654 0)
(0.361409 -0.0246242 0)
(0.364463 -0.0250899 0)
(0.366416 -0.0254025 0)
(0.368557 -0.025518 0)
(0.371883 -0.0253515 0)
(0.377184 -0.024806 0)
(0.384818 -0.0238443 0)
(0.3946 -0.0225574 0)
(0.405865 -0.0211252 0)
(0.417723 -0.0197481 0)
(0.429332 -0.0185867 0)
(0.440098 -0.0177182 0)
(0.44978 -0.0171347 0)
(0.458527 -0.0167846 0)
(0.466802 -0.016594 0)
(0.475192 -0.0164629 0)
(0.48414 -0.0162838 0)
(0.493734 -0.0159808 0)
(0.50371 -0.0155543 0)
(0.513616 -0.0150968 0)
(0.523016 -0.0147574 0)
(0.531603 -0.0146639 0)
(0.539232 -0.0148565 0)
(0.545898 -0.0152641 0)
(0.551699 -0.0157344 0)
(0.556819 -0.0161018 0)
(0.561508 -0.0162717 0)
(0.566099 -0.0162703 0)
(0.570795 -0.0161418 0)
(0.575403 -0.0152086 0)
(0.579296 -0.0143438 0)
(0.582596 -0.0139179 0)
(0.58546 -0.0138497 0)
(0.587916 -0.0140829 0)
(0.590045 -0.0145616 0)
(0.591947 -0.0152066 0)
(0.593719 -0.0159343 0)
(0.59545 -0.0166654 0)
(0.597233 -0.0173181 0)
(0.599183 -0.0177885 0)
(0.601451 -0.0179312 0)
(0.604057 -0.0175576 0)
(0.606919 -0.0170177 0)
(0.610144 -0.0169021 0)
(0.61397 -0.0170765 0)
(0.618371 -0.0173511 0)
(0.623205 -0.0176785 0)
(0.628384 -0.0180406 0)
(0.633868 -0.0184188 0)
(0.639646 -0.0187912 0)
(0.645725 -0.0191316 0)
(0.65211 -0.0194099 0)
(0.658783 -0.019575 0)
(0.66563 -0.019523 0)
(0.672447 -0.0192548 0)
(0.679207 -0.0190784 0)
(0.686111 -0.0190976 0)
(0.693286 -0.0191962 0)
(0.700715 -0.0192623 0)
(0.708329 -0.0192201 0)
(0.716024 -0.019009 0)
(0.723646 -0.0186388 0)
(0.731115 -0.0182804 0)
(0.738498 -0.0180457 0)
(0.745879 -0.0178793 0)
(0.753251 -0.0177002 0)
(0.760548 -0.0174703 0)
(0.767703 -0.0172044 0)
(0.774699 -0.0169569 0)
(0.781572 -0.0167475 0)
(0.78835 -0.0165458 0)
(0.795023 -0.0163249 0)
(0.801572 -0.0160881 0)
(0.807999 -0.0158519 0)
(0.81432 -0.0156173 0)
(0.820538 -0.0153738 0)
(0.82665 -0.0151185 0)
(0.832653 -0.0148554 0)
(0.838547 -0.0145854 0)
(0.844332 -0.0143061 0)
(0.850003 -0.014017 0)
(0.855556 -0.0137196 0)
(0.860989 -0.0134143 0)
(0.866298 -0.0131013 0)
(0.871481 -0.0127816 0)
(0.876534 -0.0124563 0)
(0.881455 -0.0121262 0)
(0.886243 -0.0117924 0)
(0.890895 -0.011456 0)
(0.895412 -0.011118 0)
(0.899793 -0.0107793 0)
(0.904037 -0.0104409 0)
(0.908145 -0.0101037 0)
(0.912118 -0.00976838 0)
(0.915957 -0.00943571 0)
(0.919662 -0.00910629 0)
(0.923236 -0.00878069 0)
(0.926681 -0.00845942 0)
(0.929997 -0.00814294 0)
(0.933187 -0.00783168 0)
(0.936253 -0.00752607 0)
(0.939198 -0.0072265 0)
(0.942024 -0.00693338 0)
(0.944733 -0.00664709 0)
(0.94733 -0.00636801 0)
(0.949815 -0.00609645 0)
(0.952194 -0.00583271 0)
(0.954468 -0.005577 0)
(0.956642 -0.00532949 0)
(0.958718 -0.00509026 0)
(0.9607 -0.00485937 0)
(0.962591 -0.00463682 0)
(0.964395 -0.00442257 0)
(0.966115 -0.00421655 0)
(0.967754 -0.00401869 0)
(0.969316 -0.00382889 0)
(0.970804 -0.00364701 0)
(0.972221 -0.00347292 0)
(0.973569 -0.00330646 0)
(0.974853 -0.00314745 0)
(0.976075 -0.00299568 0)
(0.977237 -0.00285094 0)
(0.978344 -0.002713 0)
(0.979396 -0.00258162 0)
(0.980398 -0.00245654 0)
(0.981351 -0.0023375 0)
(0.982258 -0.00222426 0)
(0.983121 -0.00211654 0)
(0.983942 -0.0020141 0)
(0.984723 -0.00191667 0)
(0.985467 -0.00182402 0)
(0.986175 -0.00173589 0)
(0.986848 -0.00165204 0)
(0.987489 -0.00157224 0)
(0.988099 -0.00149627 0)
(0.98868 -0.0014239 0)
(0.989232 -0.00135491 0)
(0.989758 -0.00128911 0)
(0.990258 -0.00122632 0)
(0.990734 -0.00116635 0)
(0.991187 -0.00110906 0)
(0.991617 -0.00105429 0)
(0.992026 -0.00100194 0)
(0.992414 -0.000951883 0)
(0.992783 -0.000904039 0)
(0.993134 -0.000858328 0)
(0.993466 -0.000814681 0)
(0.993782 -0.00077304 0)
(0.994081 -0.000733352 0)
(0.994365 -0.000695565 0)
(0.994635 -0.000659629 0)
(0.99489 -0.000625494 0)
(0.995132 -0.000593106 0)
(0.995361 -0.000562409 0)
(0.995579 -0.000533344 0)
(0.995785 -0.00050585 0)
(0.995981 -0.000479861 0)
(0.996167 -0.000455311 0)
(0.996343 -0.000432133 0)
(0.99651 -0.000410259 0)
(0.996669 -0.000389622 0)
(0.99682 -0.000370156 0)
(0.996963 -0.000351794 0)
(0.997099 -0.000334473 0)
(0.997229 -0.000318132 0)
(0.997352 -0.000302712 0)
(0.997469 -0.000288154 0)
(0.997581 -0.000274404 0)
(0.997688 -0.000261409 0)
(0.997789 -0.000249118 0)
(0.997886 -0.000237483 0)
(0.997978 -0.000226458 0)
(0.998066 -0.000216 0)
(0.99815 -0.000206068 0)
(0.99823 -0.000196622 0)
(0.998306 -0.000187628 0)
(0.998379 -0.000179051 0)
(0.998449 -0.000170862 0)
(0.998515 -0.000163032 0)
(0.998579 -0.000155535 0)
(0.998639 -0.000148351 0)
(0.998697 -0.000141457 0)
(0.998752 -0.000134837 0)
(0.998804 -0.000128475 0)
(0.998854 -0.000122357 0)
(0.998902 -0.000116472 0)
(0.998947 -0.00011081 0)
(0.99899 -0.000105362 0)
(0.999031 -0.00010012 0)
(0.99907 -9.50791e-05 0)
(0.999106 -9.02329e-05 0)
(0.999141 -8.55767e-05 0)
(0.999175 -8.11063e-05 0)
(0.999206 -7.68177e-05 0)
(0.999236 -7.27073e-05 0)
(0.999264 -6.87717e-05 0)
(0.99929 -6.50075e-05 0)
(0.999316 -6.14115e-05 0)
(0.999339 -5.79803e-05 0)
(0.999362 -5.47107e-05 0)
(0.999383 -5.15992e-05 0)
(0.999403 -4.86423e-05 0)
(0.999421 -4.58363e-05 0)
(0.999439 -4.31776e-05 0)
(0.999456 -4.06621e-05 0)
(0.999471 -3.8286e-05 0)
(0.999486 -3.60452e-05 0)
(0.9995 -3.39355e-05 0)
(0.999513 -3.19527e-05 0)
(0.999525 -3.00924e-05 0)
(0.999537 -2.83504e-05 0)
(0.999548 -2.67223e-05 0)
(0.999558 -2.52037e-05 0)
(0.999568 -2.37901e-05 0)
(0.999577 -2.24773e-05 0)
(0.999586 -2.12608e-05 0)
(0.999594 -2.01363e-05 0)
(0.999602 -1.90995e-05 0)
(0.999609 -1.8146e-05 0)
(0.999616 -1.72718e-05 0)
(0.999623 -1.64725e-05 0)