/*--------------------------------*- C++ -*----------------------------------*\
| =========                 |                                                 |
| \\      /  F ield         | OpenFOAM: The Open Source CFD Toolbox           |
|  \\    /   O peration     | Version:  v2006                                 |
|   \\  /    A nd           | Website:  www.openfoam.com                      |
|    \\/     M anipulation  |                                                 |
\*---------------------------------------------------------------------------*/
FoamFile
{
    version     2.0;
    format      ascii;
    class       volScalarField;
    location    "8";
    object      p_rgh;
}
// * * * * * * * * * * * * * * * * * * * * * * * * * * * * * * * * * * * * * //

dimensions      [1 -1 -2 0 0 0 0];


internalField   nonuniform List<scalar> 
52500
(
-661.83
-661.433
-660.636
-659.42
-657.798
-655.77
-653.341
-650.515
-647.293
-643.68
-639.679
-635.295
-630.531
-625.394
-619.887
-614.016
-607.787
-601.205
-594.276
-587.005
-579.399
-571.464
-563.207
-554.632
-545.746
-536.557
-527.07
-517.291
-507.228
-496.887
-486.274
-475.395
-464.259
-452.871
-441.239
-429.369
-417.269
-404.944
-392.403
-379.652
-366.7
-353.552
-340.217
-326.701
-313.012
-299.159
-285.147
-270.986
-256.682
-242.244
-227.68
-212.996
-198.202
-183.305
-168.313
-153.234
-138.075
-122.846
-107.555
-92.2093
-76.818
-61.3915
-45.932
-30.4486
-14.9504
0.554194
16.0579
31.5528
47.0305
62.4831
77.9037
93.2847
108.618
123.897
139.113
154.26
169.331
184.319
199.217
214.019
228.718
243.308
257.782
272.135
286.362
300.456
314.412
328.225
341.89
355.403
368.759
381.953
394.981
407.84
420.527
433.036
445.367
457.515
469.478
481.254
492.841
504.236
515.438
526.446
537.258
547.874
558.292
568.512
578.535
588.359
597.986
607.415
616.647
625.684
634.526
643.175
651.632
659.9
667.979
675.873
683.584
691.114
698.466
705.644
712.65
719.488
726.161
732.673
739.029
745.231
751.285
757.195
762.964
768.599
774.103
779.482
784.741
789.884
794.917
799.846
804.676
809.413
814.061
818.628
823.118
827.538
831.894
836.191
840.437
844.636
848.795
852.922
857.022
861.102
865.168
869.225
873.281
877.34
881.408
885.493
889.599
893.735
897.904
902.115
906.372
910.682
915.051
919.483
923.987
928.566
933.226
937.974
942.814
947.752
952.793
957.941
963.203
968.582
974.082
979.706
985.483
991.389
997.432
1003.62
1009.95
1016.44
1023.09
1029.89
1036.86
1044
1051.3
1058.78
1066.44
1074.27
1082.28
1090.47
1098.85
1107.41
1116.17
1125.11
1134.24
1143.56
1153.08
1162.79
1172.7
1182.8
1193.09
1203.58
1214.27
1225.15
1236.24
1247.51
1258.99
1270.65
1282.52
1294.57
1306.81
1319.25
1331.87
1344.67
1357.65
1370.82
1384.16
1397.68
1411.37
1425.24
1439.27
1453.47
1467.84
1482.36
1497.05
1511.88
1526.87
1542.01
1557.28
1572.7
1588.26
1603.94
1619.75
1635.69
1651.75
1667.92
1684.2
1700.59
1717.08
1733.67
1750.35
1767.12
1783.97
1800.9
1817.91
1834.98
1852.11
1869.31
1886.55
1903.85
1921.18
1938.55
1955.96
1973.39
1990.85
2008.31
2025.79
2043.28
2060.76
2078.24
2095.71
2113.16
2130.58
2147.98
2165.34
2182.67
2199.95
2217.19
2234.37
2251.48
2268.54
2285.52
2302.42
2319.24
2335.98
2352.61
2369.15
2385.58
2401.9
2418.11
2434.18
2450.13
2465.94
2481.61
2497.13
2512.5
2527.71
2542.75
2557.63
2572.34
2586.87
2601.23
2615.41
2629.4
2643.22
2656.85
2670.29
2683.54
2696.58
2709.42
2722.03
2734.41
2746.57
2758.48
2770.16
2781.6
2792.8
2803.74
2814.43
2825.03
2835.21
2845.15
2854.82
2864.24
2873.38
2882.26
2890.86
2899.18
2907.22
2914.98
2922.45
2929.63
2936.52
2943.11
2949.41
2955.43
2961.14
2966.55
2971.64
2976.43
2980.91
2985.08
2988.93
2992.47
2995.69
2998.6
3001.19
3003.45
3005.4
3007.02
3008.32
3009.29
3009.94
3010.27
-662.932
-662.538
-661.735
-660.515
-658.887
-656.853
-654.417
-651.582
-648.352
-644.728
-640.716
-636.32
-631.544
-626.393
-620.873
-614.988
-608.744
-602.147
-595.203
-587.917
-580.295
-572.344
-564.07
-555.479
-546.577
-537.371
-527.867
-518.072
-507.991
-497.632
-487.002
-476.106
-464.951
-453.546
-441.895
-430.007
-417.887
-405.544
-392.984
-380.214
-367.242
-354.074
-340.719
-327.183
-313.474
-299.6
-285.568
-271.386
-257.061
-242.602
-228.017
-213.312
-198.497
-183.579
-168.566
-153.465
-138.286
-123.036
-107.723
-92.3557
-76.9418
-61.4865
-46.0025
-30.4969
-14.9776
0.547762
16.0713
31.5855
47.0823
62.554
77.993
93.3919
108.743
124.039
139.272
154.436
169.523
184.526
199.44
214.256
228.969
243.573
258.061
272.427
286.666
300.771
314.739
328.563
342.239
355.761
369.126
382.329
395.366
408.233
420.927
433.444
445.781
457.936
469.905
481.686
493.277
504.677
515.882
526.893
537.707
548.324
558.744
568.965
578.987
588.811
598.436
607.863
617.094
626.128
634.967
643.612
652.065
660.327
668.402
676.29
683.995
691.518
698.864
706.034
713.032
719.862
726.527
733.03
739.376
745.569
751.613
757.512
763.271
768.895
774.388
779.756
785.002
790.133
795.155
800.071
804.888
809.611
814.247
818.8
823.276
827.683
832.024
836.308
840.539
844.724
848.87
852.983
857.069
861.136
865.187
869.23
873.271
877.314
881.368
885.437
889.528
893.647
897.802
901.997
906.238
910.533
914.886
919.304
923.792
928.356
933.002
937.735
942.561
947.485
952.513
957.649
962.899
968.268
973.762
979.387
985.128
991.013
997.042
1003.22
1009.54
1016.02
1022.65
1029.45
1036.41
1043.53
1050.83
1058.3
1065.95
1073.77
1081.78
1089.96
1098.34
1106.9
1115.65
1124.58
1133.71
1143.04
1152.55
1162.26
1172.17
1182.27
1192.57
1203.06
1213.75
1224.64
1235.72
1247
1258.48
1270.15
1282.01
1294.06
1306.3
1318.74
1331.36
1344.16
1357.15
1370.32
1383.67
1397.2
1410.9
1424.78
1438.82
1453.03
1467.41
1481.94
1496.63
1511.48
1526.48
1541.62
1556.91
1572.34
1587.9
1603.6
1619.42
1635.37
1651.44
1667.62
1683.92
1700.32
1716.82
1733.42
1750.12
1766.9
1783.76
1800.7
1817.72
1834.8
1851.95
1869.15
1886.41
1903.72
1921.07
1938.45
1955.87
1973.31
1990.77
2008.25
2025.74
2043.24
2060.73
2078.22
2095.7
2113.16
2130.6
2148.02
2165.39
2182.73
2200.03
2217.28
2234.47
2251.6
2268.66
2285.65
2302.56
2319.4
2336.14
2352.79
2369.34
2385.78
2402.12
2418.33
2434.43
2450.39
2466.22
2481.91
2497.45
2512.84
2528.08
2543.15
2558.05
2572.79
2587.35
2601.73
2615.92
2629.94
2643.77
2657.42
2670.87
2684.13
2697.19
2710.04
2722.66
2735.05
2747.21
2759.14
2770.83
2782.28
2793.49
2804.46
2815.19
2825.69
2835.91
2845.86
2855.56
2864.98
2874.14
2883.02
2891.63
2899.97
2908.02
2915.78
2923.27
2930.46
2937.36
2943.97
2950.28
2956.28
2961.98
2967.38
2972.48
2977.27
2981.75
2985.93
2989.78
2993.33
2996.55
2999.46
3002.05
3004.32
3006.26
3007.89
3009.19
3010.16
3010.81
3011.14
-665.145
-664.746
-663.939
-662.711
-661.074
-659.028
-656.579
-653.728
-650.479
-646.836
-642.802
-638.383
-633.582
-628.406
-622.858
-616.946
-610.673
-604.047
-597.073
-589.756
-582.103
-574.121
-565.815
-557.191
-548.256
-539.016
-529.479
-519.649
-509.533
-499.139
-488.472
-477.54
-466.349
-454.905
-443.216
-431.289
-419.131
-406.748
-394.148
-381.337
-368.324
-355.114
-341.717
-328.138
-314.387
-300.47
-286.394
-272.169
-257.8
-243.297
-228.668
-213.92
-199.06
-184.097
-169.039
-153.895
-138.671
-123.377
-108.02
-92.609
-77.1516
-61.6559
-46.1305
-30.5835
-15.023
0.543019
16.1068
31.6606
47.1963
62.7063
78.1829
93.6184
109.005
124.337
139.604
154.802
169.922
184.957
199.901
214.748
229.49
244.122
258.637
273.03
287.294
301.424
315.415
329.261
342.958
356.5
369.884
383.105
396.159
409.042
421.751
434.282
446.632
458.797
470.777
482.567
494.167
505.573
516.785
527.801
538.619
549.239
559.66
569.881
579.903
589.725
599.348
608.772
617.998
627.026
635.858
644.495
652.94
661.193
669.256
677.133
684.825
692.336
699.667
706.822
713.804
720.617
727.264
733.749
740.076
746.249
752.272
758.15
763.887
769.488
774.958
780.301
785.524
790.63
795.625
800.515
805.306
810.002
814.61
819.135
823.584
827.962
832.276
836.531
840.733
844.89
849.006
853.089
857.145
861.179
865.199
869.209
873.217
877.229
881.25
885.288
889.347
893.436
897.559
901.723
905.935
910.199
914.522
918.91
923.369
927.904
932.522
937.227
942.025
946.922
951.923
957.033
962.257
967.601
973.068
978.664
984.391
990.256
996.263
1002.42
1008.72
1015.18
1021.8
1028.57
1035.52
1042.63
1049.91
1057.36
1064.99
1072.8
1080.8
1088.97
1097.34
1105.89
1114.63
1123.56
1132.68
1142
1151.51
1161.22
1171.12
1181.22
1191.52
1202.01
1212.7
1223.59
1234.68
1245.96
1257.44
1269.11
1280.98
1293.04
1305.29
1317.73
1330.36
1343.17
1356.17
1369.36
1382.72
1396.26
1409.98
1423.86
1437.92
1452.15
1466.54
1481.09
1495.8
1510.67
1525.68
1540.85
1556.15
1571.6
1587.19
1602.91
1618.75
1634.72
1650.81
1667.02
1683.34
1699.76
1716.29
1732.92
1749.64
1766.44
1783.33
1800.3
1817.34
1834.46
1851.63
1868.86
1886.15
1903.48
1920.86
1938.28
1955.72
1973.2
1990.69
2008.2
2025.73
2043.25
2060.78
2078.3
2095.81
2113.3
2130.77
2148.21
2165.62
2182.99
2200.31
2217.59
2234.81
2251.96
2269.06
2286.07
2303.01
2319.87
2336.64
2353.31
2369.88
2386.34
2402.69
2418.93
2435.04
2451.02
2466.87
2482.57
2498.14
2513.55
2528.81
2543.91
2558.84
2573.62
2588.22
2602.64
2616.89
2630.95
2644.82
2658.5
2671.98
2685.25
2698.32
2711.17
2723.81
2736.22
2748.4
2760.35
2772.07
2783.56
2794.8
2805.8
2816.55
2827.05
2837.29
2847.26
2856.98
2866.42
2875.6
2884.5
2893.12
2901.47
2909.53
2917.31
2924.8
2932
2938.91
2945.53
2951.84
2957.86
2963.57
2968.98
2974.08
2978.88
2983.37
2987.54
2991.41
2994.95
2998.19
3001.1
3003.69
3005.97
3007.92
3009.54
3010.84
3011.82
3012.47
3012.8
-668.476
-668.074
-667.261
-666.022
-664.371
-662.307
-659.836
-656.96
-653.683
-650.01
-645.943
-641.488
-636.651
-631.435
-625.847
-619.893
-613.577
-606.907
-599.887
-592.525
-584.825
-576.795
-568.441
-559.768
-550.783
-541.493
-531.904
-522.022
-511.853
-501.405
-490.684
-479.696
-468.448
-456.947
-445.201
-433.215
-420.996
-408.553
-395.891
-383.018
-369.942
-356.67
-343.208
-329.565
-315.749
-301.766
-287.625
-273.334
-258.899
-244.33
-229.634
-214.82
-199.893
-184.864
-169.74
-154.529
-139.24
-123.881
-108.459
-92.9837
-77.4622
-61.9032
-46.315
-30.7056
-15.0834
0.543309
16.1672
31.7804
47.3745
62.942
78.4749
93.9656
109.407
124.791
140.111
155.359
170.528
185.611
200.602
215.494
230.28
244.954
259.511
273.943
288.245
302.411
316.437
330.317
344.046
357.618
371.031
384.279
397.359
410.265
422.996
435.547
447.916
460.099
472.094
483.898
495.51
506.927
518.147
529.17
539.994
550.618
561.041
571.264
581.285
591.105
600.723
610.141
619.36
628.38
637.201
645.827
654.258
662.497
670.544
678.403
686.077
693.566
700.876
708.008
714.966
721.753
728.374
734.831
741.129
747.271
753.263
759.108
764.812
770.378
775.813
781.12
786.304
791.372
796.329
801.179
805.929
810.584
815.15
819.633
824.038
828.373
832.642
836.851
841.008
845.119
849.189
853.225
857.234
861.222
865.194
869.158
873.119
877.084
881.059
885.05
889.064
893.106
897.184
901.302
905.468
909.688
913.966
918.311
922.726
927.218
931.793
936.457
941.214
946.071
951.033
956.104
961.29
966.597
972.028
977.588
983.282
989.115
995.091
1001.21
1007.49
1013.92
1020.51
1027.26
1034.18
1041.26
1048.52
1055.95
1063.56
1071.36
1079.33
1087.49
1095.84
1104.38
1113.11
1122.03
1131.14
1140.45
1149.95
1159.65
1169.55
1179.65
1189.95
1200.44
1211.13
1222.03
1233.11
1244.4
1255.89
1267.57
1279.44
1291.51
1303.77
1316.22
1328.87
1341.7
1354.71
1367.91
1381.29
1394.85
1408.59
1422.5
1436.58
1450.83
1465.24
1479.82
1494.56
1509.45
1524.49
1539.68
1555.02
1570.5
1586.12
1601.87
1617.75
1633.75
1649.87
1666.12
1682.47
1698.93
1715.49
1732.16
1748.91
1765.76
1782.69
1799.69
1816.78
1833.93
1851.14
1868.41
1885.74
1903.11
1920.53
1937.99
1955.48
1972.99
1990.53
2008.08
2025.64
2043.21
2060.77
2078.34
2095.89
2113.42
2130.93
2148.42
2165.87
2183.28
2200.64
2217.96
2235.22
2252.42
2269.55
2286.62
2303.6
2320.5
2337.31
2354.02
2370.63
2387.14
2403.54
2419.82
2435.97
2452
2467.89
2483.65
2499.26
2514.72
2530.02
2545.17
2560.16
2574.97
2589.62
2604.08
2618.37
2632.47
2646.38
2660.1
2673.61
2686.93
2700.03
2712.92
2725.59
2738.03
2750.25
2762.24
2773.99
2785.51
2796.78
2807.81
2818.59
2829.11
2839.38
2849.38
2859.12
2868.59
2877.79
2886.72
2895.36
2903.73
2911.81
2919.61
2927.12
2934.34
2941.26
2947.89
2954.22
2960.24
2965.97
2971.39
2976.5
2981.31
2985.8
2989.99
2993.86
2997.41
3000.65
3003.56
3006.16
3008.44
3010.39
3012.02
3013.32
3014.3
3014.95
3015.28
-672.933
-672.527
-671.704
-670.451
-668.779
-666.69
-664.19
-661.28
-657.966
-654.25
-650.139
-645.636
-640.748
-635.48
-629.837
-623.827
-617.453
-610.723
-603.643
-596.22
-588.458
-580.364
-571.945
-563.207
-554.156
-544.799
-535.141
-525.189
-514.951
-504.431
-493.637
-482.575
-471.252
-459.675
-447.851
-435.786
-423.488
-410.963
-398.22
-385.264
-372.104
-358.747
-345.2
-331.471
-317.568
-303.498
-289.269
-274.889
-260.367
-245.709
-230.924
-216.021
-201.006
-185.888
-170.675
-155.376
-139.999
-124.552
-109.044
-93.4815
-77.8747
-62.2311
-46.5591
-30.8667
-15.1622
0.546054
16.25
31.9421
47.6142
63.2582
78.8663
94.4309
109.944
125.399
140.788
156.104
171.339
186.486
201.54
216.492
231.337
246.068
260.679
275.164
289.517
303.733
317.805
331.73
345.501
359.115
372.566
385.85
398.963
411.902
424.662
437.241
449.635
461.841
473.856
485.679
497.307
508.738
519.97
531.003
541.834
552.463
562.889
573.113
583.132
592.949
602.562
611.972
621.181
630.189
638.997
647.607
656.02
664.238
672.264
680.1
687.747
695.21
702.49
709.591
716.517
723.27
729.854
736.274
742.532
748.634
754.584
760.386
766.044
771.565
776.951
782.21
787.344
792.361
797.266
802.063
806.759
811.359
815.869
820.296
824.644
828.92
833.131
837.282
841.38
845.43
849.44
853.416
857.363
861.289
865.199
869.101
873
876.902
880.815
884.744
888.695
892.676
896.692
900.75
904.855
909.015
913.234
917.519
921.877
926.312
930.83
935.438
940.14
944.943
949.852
954.871
960.007
965.263
970.646
976.159
981.807
987.596
993.529
999.61
1005.84
1012.24
1018.79
1025.5
1032.39
1039.44
1046.67
1054.07
1061.66
1069.42
1077.38
1085.51
1093.84
1102.36
1111.07
1119.97
1129.07
1138.37
1147.87
1157.56
1167.45
1177.55
1187.84
1198.34
1209.03
1219.92
1231.02
1242.31
1253.8
1265.49
1277.38
1289.46
1301.74
1314.21
1326.87
1339.72
1352.75
1365.98
1379.38
1392.96
1406.73
1420.67
1434.78
1449.06
1463.51
1478.12
1492.89
1507.81
1522.9
1538.13
1553.5
1569.02
1584.68
1600.47
1616.4
1632.45
1648.62
1664.9
1681.31
1697.81
1714.43
1731.14
1747.94
1764.84
1781.82
1798.88
1816.01
1833.22
1850.49
1867.81
1885.2
1902.63
1920.1
1937.61
1955.16
1972.73
1990.32
2007.93
2025.55
2043.18
2060.81
2078.43
2096.04
2113.63
2131.2
2148.75
2166.26
2183.73
2201.15
2218.53
2235.85
2253.1
2270.3
2287.41
2304.45
2321.41
2338.27
2355.05
2371.71
2388.28
2404.73
2421.06
2437.27
2453.35
2469.3
2485.11
2500.77
2516.29
2531.65
2546.85
2561.89
2576.76
2591.46
2605.98
2620.32
2634.47
2648.44
2662.2
2675.77
2689.13
2702.28
2715.22
2727.93
2740.43
2752.69
2764.72
2776.52
2788.08
2799.39
2810.46
2821.28
2831.84
2842.14
2852.18
2861.96
2871.46
2880.69
2889.65
2898.33
2906.73
2914.84
2922.66
2930.2
2937.44
2944.38
2951.03
2957.38
2963.43
2969.17
2974.6
2979.73
2984.55
2989.05
2993.25
2997.12
3000.68
3003.93
3006.85
3009.45
3011.73
3013.68
3015.31
3016.62
3017.6
3018.25
3018.58
-678.529
-678.117
-677.282
-676.009
-674.312
-672.191
-669.652
-666.698
-663.335
-659.566
-655.397
-650.833
-645.88
-640.545
-634.833
-628.75
-622.304
-615.5
-608.344
-600.843
-593.003
-584.83
-576.331
-567.512
-558.379
-548.937
-539.195
-529.157
-518.83
-508.221
-497.336
-486.183
-474.766
-463.094
-451.173
-439.01
-426.612
-413.987
-401.141
-388.081
-374.816
-361.353
-347.7
-333.863
-319.851
-305.671
-291.333
-276.843
-262.209
-247.44
-232.543
-217.528
-202.402
-187.172
-171.849
-156.439
-140.951
-125.395
-109.777
-94.1071
-78.3925
-62.6421
-46.8642
-31.0672
-15.2594
0.551021
16.3558
32.1471
47.9169
63.657
79.3594
95.0166
110.621
126.165
141.64
157.04
172.358
187.586
202.718
217.746
232.665
247.467
262.146
276.697
291.114
305.391
319.523
333.503
347.328
360.992
374.491
387.821
400.977
413.955
426.753
439.366
451.791
464.026
476.067
487.913
499.561
511.01
522.257
533.302
544.142
554.778
565.208
575.432
585.451
595.263
604.869
614.27
623.467
632.46
641.25
649.84
658.231
666.425
674.424
682.23
689.845
697.274
704.518
711.58
718.465
725.175
731.714
738.087
744.296
750.347
756.244
761.992
767.594
773.056
778.383
783.58
788.653
793.605
798.444
803.175
807.803
812.334
816.773
821.128
825.404
829.607
833.744
837.82
841.842
845.816
849.749
853.647
857.516
861.364
865.196
869.018
872.839
876.663
880.497
884.348
888.222
892.125
896.064
900.045
904.075
908.159
912.303
916.515
920.799
925.162
929.61
934.147
938.781
943.516
948.359
953.313
958.385
963.58
968.902
974.356
979.948
985.681
991.56
997.59
1003.77
1010.12
1016.62
1023.29
1030.14
1037.15
1044.34
1051.71
1059.26
1066.99
1074.91
1083.03
1091.33
1099.82
1108.51
1117.4
1126.49
1135.77
1145.25
1154.94
1164.82
1174.91
1185.2
1195.7
1206.39
1217.29
1228.39
1239.69
1251.2
1262.9
1274.8
1286.9
1299.19
1311.68
1324.37
1337.24
1350.3
1363.55
1376.99
1390.6
1404.4
1418.37
1432.52
1446.84
1461.33
1475.98
1490.8
1505.77
1520.9
1536.18
1551.61
1567.18
1582.89
1598.73
1614.71
1630.81
1647.04
1663.39
1679.85
1696.42
1713.09
1729.86
1746.73
1763.69
1780.74
1797.86
1815.06
1832.33
1849.67
1867.06
1884.51
1902.01
1919.56
1937.14
1954.75
1972.39
1990.06
2007.74
2025.43
2043.13
2060.83
2078.52
2096.21
2113.87
2131.52
2149.13
2166.71
2184.26
2201.75
2219.2
2236.59
2253.92
2271.19
2288.38
2305.49
2322.52
2339.45
2356.29
2373.03
2389.67
2406.19
2422.6
2438.88
2455.03
2471.05
2486.93
2502.66
2518.25
2533.68
2548.95
2564.06
2579
2593.77
2608.36
2622.76
2636.98
2651.01
2664.84
2678.46
2691.88
2705.1
2718.09
2730.86
2743.41
2755.73
2767.82
2779.67
2791.28
2802.65
2813.77
2824.63
2835.24
2845.59
2855.68
2865.5
2875.05
2884.32
2893.32
2902.03
2910.47
2918.61
2926.47
2934.04
2941.31
2948.29
2954.96
2961.34
2967.41
2973.17
2978.63
2983.78
2988.61
2993.13
2997.34
3001.23
3004.8
3008.05
3010.98
3013.59
3015.88
3017.84
3019.47
3020.78
3021.76
3022.41
3022.74
-685.284
-684.865
-684.015
-682.717
-680.988
-678.826
-676.238
-673.229
-669.804
-665.968
-661.727
-657.087
-652.055
-646.637
-640.84
-634.67
-628.135
-621.241
-613.994
-606.4
-598.467
-590.2
-581.605
-572.688
-563.457
-553.915
-544.071
-533.93
-523.499
-512.783
-501.79
-490.526
-478.997
-467.21
-455.173
-442.892
-430.375
-417.628
-404.658
-391.474
-378.083
-364.492
-350.709
-336.742
-322.599
-308.288
-293.816
-279.192
-264.425
-249.522
-234.491
-219.34
-204.08
-188.716
-173.258
-157.715
-142.094
-126.405
-110.656
-94.8548
-79.0108
-63.1321
-47.2272
-31.3044
-15.3722
0.560798
16.4868
32.3976
48.2848
64.1405
79.9565
95.725
111.438
127.089
142.669
158.171
173.588
188.913
204.139
219.259
234.266
249.153
263.916
278.547
293.041
307.391
321.593
335.641
349.53
363.256
376.813
390.197
403.404
416.431
429.273
441.927
454.39
466.66
478.733
490.607
502.28
513.749
525.014
536.073
546.925
557.569
568.003
578.229
588.245
598.052
607.65
617.039
626.221
635.196
643.966
652.532
660.896
669.06
677.026
684.796
692.373
699.76
706.96
713.976
720.811
727.469
733.954
740.27
746.421
752.411
758.244
763.925
769.46
774.852
780.107
785.231
790.228
795.103
799.863
804.513
809.059
813.507
817.862
822.132
826.321
830.436
834.483
838.47
842.401
846.284
850.125
853.93
857.707
861.461
865.199
868.928
872.655
876.384
880.125
883.882
887.662
891.472
895.318
899.207
903.146
907.139
911.194
915.316
919.513
923.789
928.151
932.604
937.155
941.809
946.571
951.447
956.442
961.562
966.811
972.194
977.716
983.382
989.197
995.163
1001.29
1007.57
1014.02
1020.64
1027.43
1034.39
1041.54
1048.86
1056.37
1064.07
1071.95
1080.03
1088.3
1096.77
1105.43
1114.3
1123.36
1132.63
1142.1
1151.77
1161.65
1171.73
1182.02
1192.51
1203.21
1214.12
1225.22
1236.53
1248.05
1259.77
1271.69
1283.8
1296.12
1308.64
1321.35
1334.25
1347.34
1360.63
1374.1
1387.76
1401.59
1415.61
1429.8
1444.17
1458.71
1473.41
1488.28
1503.31
1518.49
1533.83
1549.32
1564.95
1580.72
1596.63
1612.67
1628.85
1645.14
1661.56
1678.09
1694.73
1711.48
1728.33
1745.27
1762.31
1779.43
1796.63
1813.91
1831.26
1848.68
1866.16
1883.69
1901.27
1918.9
1936.57
1954.27
1972
1989.75
2007.51
2025.29
2043.08
2060.87
2078.65
2096.42
2114.17
2131.9
2149.61
2167.28
2184.91
2202.49
2220.03
2237.51
2254.93
2272.28
2289.55
2306.75
2323.86
2340.89
2357.82
2374.64
2391.36
2407.97
2424.46
2440.82
2457.06
2473.16
2489.13
2504.94
2520.61
2536.13
2551.48
2566.67
2581.69
2596.54
2611.21
2625.69
2639.99
2654.09
2667.99
2681.69
2695.19
2708.47
2721.53
2734.38
2747
2759.38
2771.54
2783.45
2795.13
2806.56
2817.73
2828.66
2839.32
2849.73
2859.87
2869.74
2879.34
2888.66
2897.71
2906.47
2914.95
2923.14
2931.04
2938.65
2945.96
2952.97
2959.68
2966.09
2972.19
2977.99
2983.47
2988.64
2993.5
2998.04
3002.27
3006.17
3009.76
3013.02
3015.97
3018.59
3020.88
3022.85
3024.49
3025.8
3026.78
3027.43
3027.77
-693.221
-692.793
-691.925
-690.597
-688.826
-686.613
-683.966
-680.888
-677.387
-673.469
-669.139
-664.407
-659.279
-653.761
-647.863
-641.59
-634.951
-627.951
-620.597
-612.895
-604.853
-596.476
-587.77
-578.741
-569.396
-559.739
-549.777
-539.517
-528.964
-518.124
-507.005
-495.612
-483.952
-472.032
-459.86
-447.441
-434.783
-421.893
-408.779
-395.449
-381.91
-368.169
-354.235
-340.116
-325.819
-311.352
-296.725
-281.945
-267.02
-251.959
-236.771
-221.463
-206.044
-190.523
-174.908
-159.207
-143.431
-127.586
-111.683
-95.7287
-79.7325
-63.703
-47.6488
-31.5784
-15.5003
0.577045
16.6452
32.6959
48.7209
64.7121
80.6613
96.5604
112.402
128.177
143.88
159.502
175.035
190.474
205.81
221.036
236.147
251.135
265.995
280.719
295.303
309.74
324.025
338.152
352.116
365.913
379.538
392.986
406.253
419.336
432.231
444.933
457.441
469.751
481.86
493.767
505.468
516.963
528.249
539.325
550.19
560.842
571.282
581.509
591.523
601.324
610.912
620.288
629.452
638.406
647.152
655.69
664.022
672.151
680.078
687.807
695.339
702.677
709.826
716.787
723.564
730.162
736.583
742.832
748.914
754.832
760.59
766.195
771.65
776.96
782.131
787.168
792.076
796.861
801.528
806.084
810.534
814.884
819.14
823.308
827.395
831.406
835.349
839.23
843.054
846.829
850.562
854.258
857.925
861.569
865.196
868.815
872.43
876.049
879.679
883.325
886.996
890.696
894.434
898.215
902.045
905.932
909.882
913.9
917.993
922.167
926.429
930.784
935.237
939.795
944.464
949.248
954.153
959.185
964.349
969.649
975.09
980.678
986.416
992.31
998.362
1004.58
1010.96
1017.52
1024.25
1031.15
1038.24
1045.52
1052.98
1060.63
1068.47
1076.51
1084.75
1093.19
1101.82
1110.66
1119.7
1128.95
1138.4
1148.06
1157.93
1168.01
1178.29
1188.78
1199.48
1210.39
1221.51
1232.83
1244.36
1256.1
1268.04
1280.18
1292.52
1305.07
1317.81
1330.75
1343.88
1357.21
1370.72
1384.42
1398.31
1412.37
1426.62
1441.04
1455.64
1470.4
1485.33
1500.42
1515.67
1531.08
1546.63
1562.34
1578.18
1594.17
1610.29
1626.54
1642.92
1659.41
1676.03
1692.76
1709.59
1726.53
1743.56
1760.69
1777.9
1795.2
1812.57
1830.01
1847.53
1865.1
1882.73
1900.41
1918.13
1935.9
1953.7
1971.53
1989.38
2007.25
2025.13
2043.02
2060.91
2078.79
2096.66
2114.52
2132.35
2150.16
2167.93
2185.67
2203.35
2220.99
2238.58
2256.1
2273.55
2290.93
2308.23
2325.44
2342.57
2359.59
2376.52
2393.34
2410.05
2426.63
2443.1
2459.43
2475.64
2491.7
2507.61
2523.38
2538.99
2554.44
2569.72
2584.84
2599.78
2614.54
2629.11
2643.5
2657.69
2671.68
2685.46
2699.04
2712.41
2725.55
2738.48
2751.18
2763.64
2775.87
2787.86
2799.61
2811.11
2822.36
2833.35
2844.09
2854.56
2864.76
2874.69
2884.35
2893.74
2902.84
2911.66
2920.19
2928.43
2936.38
2944.03
2951.39
2958.44
2965.19
2971.64
2977.78
2983.6
2989.12
2994.32
2999.21
3003.78
3008.03
3011.96
3015.56
3018.84
3021.8
3024.43
3026.74
3028.72
3030.36
3031.68
3032.67
3033.33
3033.67
-702.37
-701.931
-701.041
-699.675
-697.854
-695.578
-692.857
-689.695
-686.1
-682.081
-677.646
-672.802
-667.559
-661.925
-655.908
-649.515
-642.754
-635.632
-628.156
-620.333
-612.167
-603.666
-594.834
-585.678
-576.204
-566.416
-556.322
-545.926
-535.234
-524.254
-512.991
-501.452
-489.642
-477.57
-465.242
-452.665
-439.846
-426.793
-413.513
-400.015
-386.305
-372.392
-358.284
-343.989
-329.515
-314.871
-300.064
-285.104
-269.998
-254.756
-239.385
-223.896
-208.295
-192.593
-176.797
-160.917
-144.96
-128.938
-112.856
-96.7255
-80.5546
-64.3523
-48.1267
-31.8866
-15.6407
0.602207
16.8333
33.0448
49.2282
65.375
81.477
97.526
113.514
129.434
145.277
161.036
176.703
192.272
207.734
223.084
238.314
253.417
268.388
283.22
297.907
312.443
326.823
341.041
355.092
368.971
382.673
396.195
409.531
422.678
435.633
448.391
460.95
473.306
485.458
497.402
509.136
520.659
531.969
543.064
553.944
564.607
575.053
585.282
595.293
605.086
614.663
624.023
633.167
642.098
650.815
659.32
667.616
675.704
683.587
691.268
698.748
706.031
713.12
720.018
726.729
733.257
739.605
745.777
751.779
757.614
763.287
768.803
774.166
779.382
784.456
789.394
794.2
798.881
803.442
807.889
812.228
816.466
820.608
824.66
828.629
832.522
836.345
840.104
843.806
847.458
851.066
854.637
858.178
861.696
865.197
868.689
872.177
875.669
879.172
882.692
886.236
889.811
893.424
897.081
900.788
904.552
908.38
912.279
916.253
920.311
924.457
928.698
933.039
937.487
942.048
946.727
951.529
956.459
961.524
966.728
972.077
977.574
983.224
989.033
995.004
1001.14
1007.45
1013.93
1020.59
1027.43
1034.46
1041.68
1049.08
1056.68
1064.48
1072.47
1080.67
1089.07
1097.67
1106.48
1115.49
1124.72
1134.15
1143.8
1153.66
1163.72
1174
1184.5
1195.2
1206.11
1217.24
1228.58
1240.13
1251.88
1263.84
1276.01
1288.39
1300.97
1313.75
1326.72
1339.9
1353.27
1366.83
1380.59
1394.53
1408.65
1422.96
1437.45
1452.11
1466.94
1481.94
1497.1
1512.43
1527.91
1543.55
1559.34
1575.27
1591.34
1607.55
1623.89
1640.36
1656.95
1673.66
1690.49
1707.42
1724.46
1741.59
1758.82
1776.14
1793.54
1811.02
1828.58
1846.2
1863.88
1881.62
1899.42
1917.25
1935.13
1953.05
1970.99
1988.96
2006.94
2024.94
2042.95
2060.95
2078.95
2096.94
2114.92
2132.87
2150.79
2168.68
2186.54
2204.34
2222.1
2239.8
2257.44
2275.01
2292.5
2309.92
2327.25
2344.49
2361.63
2378.67
2395.61
2412.43
2429.13
2445.71
2462.16
2478.47
2494.64
2510.67
2526.55
2542.27
2557.82
2573.22
2588.44
2603.48
2618.35
2633.02
2647.51
2661.8
2675.89
2689.78
2703.45
2716.91
2730.15
2743.17
2755.96
2768.51
2780.83
2792.91
2804.74
2816.32
2827.65
2838.72
2849.53
2860.08
2870.35
2880.36
2890.09
2899.54
2908.7
2917.58
2926.17
2934.47
2942.48
2950.19
2957.59
2964.7
2971.5
2977.99
2984.17
2990.04
2995.59
3000.83
3005.75
3010.35
3014.63
3018.58
3022.21
3025.51
3028.49
3031.14
3033.46
3035.45
3037.11
3038.43
3039.43
3040.09
3040.43
-712.766
-712.316
-711.399
-709.987
-708.104
-705.75
-702.936
-699.671
-695.962
-691.822
-687.258
-682.282
-676.903
-671.132
-664.977
-658.446
-651.548
-644.289
-636.676
-628.716
-620.413
-611.774
-602.804
-593.508
-583.89
-573.958
-563.715
-553.168
-542.323
-531.185
-519.761
-508.057
-496.079
-483.835
-471.332
-458.576
-445.575
-432.337
-418.87
-405.181
-391.279
-377.171
-362.865
-348.371
-333.696
-318.85
-303.84
-288.675
-273.364
-257.916
-242.34
-226.644
-210.838
-194.93
-178.93
-162.845
-146.685
-130.46
-114.178
-97.8481
-81.4792
-65.0802
-48.6603
-32.2281
-15.7925
0.637753
17.054
33.4475
49.81
66.1329
82.4078
98.6266
114.781
130.863
146.865
162.78
178.598
194.314
209.92
225.409
240.773
256.007
271.104
286.058
300.861
315.509
329.996
344.317
358.466
372.437
386.228
399.832
413.247
426.467
439.489
452.31
464.927
477.336
489.535
501.521
513.292
524.847
536.184
547.301
558.198
568.873
579.325
589.556
599.564
609.349
618.912
628.255
637.376
646.279
654.964
663.433
671.688
679.73
687.563
695.188
702.61
709.829
716.851
723.678
730.314
736.762
743.027
749.114
755.025
760.766
766.342
771.757
777.017
782.126
787.09
791.915
796.606
801.169
805.609
809.933
814.147
818.257
822.27
826.191
830.027
833.785
837.471
841.092
844.655
848.167
851.634
855.063
858.462
861.836
865.194
868.541
871.885
875.234
878.592
881.969
885.37
888.803
892.273
895.789
899.356
902.982
906.673
910.435
914.276
918.2
922.215
926.328
930.542
934.866
939.305
943.864
948.549
953.365
958.319
963.414
968.657
974.051
979.603
985.316
991.194
997.243
1003.47
1009.87
1016.45
1023.22
1030.17
1037.32
1044.67
1052.21
1059.95
1067.89
1076.04
1084.4
1092.97
1101.74
1110.73
1119.93
1129.34
1138.97
1148.81
1158.87
1169.15
1179.64
1190.35
1201.27
1212.41
1223.76
1235.33
1247.11
1259.1
1271.3
1283.71
1296.33
1309.15
1322.17
1335.4
1348.82
1362.44
1376.25
1390.26
1404.45
1418.82
1433.38
1448.11
1463.02
1478.11
1493.35
1508.77
1524.34
1540.07
1555.95
1571.97
1588.15
1604.45
1620.9
1637.47
1654.17
1670.99
1687.92
1704.97
1722.12
1739.37
1756.72
1774.15
1791.68
1809.28
1826.95
1844.7
1862.51
1880.37
1898.29
1916.26
1934.27
1952.31
1970.38
1988.48
2006.6
2024.73
2042.86
2061
2079.13
2097.26
2115.36
2133.45
2151.51
2169.53
2187.52
2205.46
2223.35
2241.18
2258.95
2276.65
2294.28
2311.83
2329.29
2346.66
2363.93
2381.11
2398.17
2415.12
2431.95
2448.66
2465.23
2481.67
2497.97
2514.12
2530.12
2545.96
2561.64
2577.16
2592.5
2607.66
2622.64
2637.44
2652.04
2666.44
2680.64
2694.64
2708.42
2721.99
2735.34
2748.46
2761.35
2774
2786.42
2798.59
2810.52
2822.19
2833.61
2844.77
2855.67
2866.3
2876.66
2886.74
2896.55
2906.07
2915.31
2924.26
2932.92
2941.29
2949.36
2957.13
2964.59
2971.75
2978.61
2985.15
2991.38
2997.29
3002.89
3008.17
3013.12
3017.76
3022.07
3026.05
3029.71
3033.04
3036.04
3038.71
3041.05
3043.05
3044.72
3046.06
3047.06
3047.72
3048.07
-724.458
-723.994
-723.044
-721.576
-719.615
-717.164
-714.236
-710.841
-706.993
-702.703
-697.985
-692.852
-687.314
-681.383
-675.07
-668.384
-661.332
-653.922
-646.159
-638.049
-629.598
-620.809
-611.689
-602.24
-592.467
-582.376
-571.972
-561.26
-550.245
-538.933
-527.33
-515.444
-503.278
-490.843
-478.144
-465.189
-451.985
-438.54
-424.862
-410.959
-396.841
-382.514
-367.988
-353.27
-338.37
-323.297
-308.059
-292.665
-277.125
-261.447
-245.64
-229.713
-213.676
-197.538
-181.307
-164.994
-148.607
-132.155
-115.648
-99.0947
-82.5038
-65.8853
-49.2481
-32.601
-15.9531
0.686817
17.3098
33.9071
50.4699
66.9897
83.4581
99.8667
116.207
132.471
148.651
164.739
180.727
196.607
212.373
228.017
243.533
258.912
274.15
289.239
304.173
318.947
333.554
347.989
362.247
376.323
390.211
403.908
417.41
430.712
443.81
456.701
469.382
481.849
494.101
506.135
517.948