/*--------------------------------*- C++ -*----------------------------------*\
| =========                 |                                                 |
| \\      /  F ield         | OpenFOAM: The Open Source CFD Toolbox           |
|  \\    /   O peration     | Version:  v2006                                 |
|   \\  /    A nd           | Website:  www.openfoam.com                      |
|    \\/     M anipulation  |                                                 |
\*---------------------------------------------------------------------------*/
FoamFile
{
    version     2.0;
    format      ascii;
    class       surfaceScalarField;
    location    "8";
    object      phi;
}
// * * * * * * * * * * * * * * * * * * * * * * * * * * * * * * * * * * * * * //

dimensions      [0 3 -1 0 0 0 0];
oriented        oriented;


internalField   nonuniform List<scalar> 
104500
(
-3.09003e-05
3.09003e-05
-3.56665e-05
4.76617e-06
-4.0852e-05
5.1855e-06
-5.1611e-05
1.07591e-05
-6.60582e-05
1.44471e-05
-8.19565e-05
1.58983e-05
-9.81171e-05
1.61605e-05
-0.000114254
1.6137e-05
-0.000130444
1.61898e-05
-0.000146809
1.63656e-05
-0.000163422
1.66122e-05
-0.000180304
1.68826e-05
-0.000197468
1.71642e-05
-0.000214914
1.7446e-05
-0.000232653
1.77381e-05
-0.000250686
1.80332e-05
-0.000269015
1.83291e-05
-0.000287631
1.86158e-05
-0.000306533
1.89024e-05
-0.000325719
1.91861e-05
-0.000345165
1.94453e-05
-0.000364847
1.96826e-05
-0.000384746
1.98986e-05
-0.000404833
2.00877e-05
-0.000425083
2.02493e-05
-0.000445453
2.03703e-05
-0.000465913
2.04601e-05
-0.000486422
2.05089e-05
-0.000506911
2.04886e-05
-0.000527365
2.04546e-05
-0.000547728
2.03627e-05
-0.000567967
2.02395e-05
-0.000588022
2.00546e-05
-0.000607853
1.98314e-05
-0.000627409
1.9556e-05
-0.000646638
1.92284e-05
-0.000665493
1.8855e-05
-0.000683963
1.84707e-05
-0.000701977
1.8014e-05
-0.000719495
1.75176e-05
-0.000736492
1.69966e-05
-0.000752898
1.64065e-05
-0.000768717
1.58192e-05
-0.00078393
1.52127e-05
-0.0007985
1.45697e-05
-0.000812409
1.39092e-05
-0.000825631
1.32226e-05
-0.000838131
1.24992e-05
-0.000849862
1.17313e-05
-0.000860821
1.09595e-05
-0.000870924
1.01028e-05
-0.000880129
9.20429e-06
-0.000888397
8.26876e-06
-0.000895707
7.30999e-06
-0.000902046
6.33908e-06
-0.000907378
5.33202e-06
-0.000911689
4.31092e-06
-0.000914962
3.27273e-06
-0.000917174
2.21166e-06
-0.000918293
1.11935e-06
-0.000918271
-2.18142e-08
-0.000917082
-1.18902e-06
-0.00091467
-2.41245e-06
-0.000910936
-3.73408e-06
-0.000905816
-5.12002e-06
-0.000899268
-6.54754e-06
-0.000891313
-7.95543e-06
-0.000881967
-9.34608e-06
-0.000871296
-1.06703e-05
-0.000859374
-1.19225e-05
-0.000846283
-1.3091e-05
-0.000832053
-1.42293e-05
-0.000816728
-1.53255e-05
-0.000800333
-1.63946e-05
-0.000782897
-1.7436e-05
-0.00076446
-1.84369e-05
-0.000745029
-1.94313e-05
-0.000724611
-2.04177e-05
-0.000703248
-2.13629e-05
-0.000680984
-2.2264e-05
-0.000657822
-2.31628e-05
-0.000633793
-2.40286e-05
-0.000608926
-2.48671e-05
-0.000583254
-2.56715e-05
-0.000556817
-2.6437e-05
-0.00052965
-2.71677e-05
-0.000501783
-2.78665e-05
-0.000473242
-2.85414e-05
-0.000444031
-2.92104e-05
-0.000414181
-2.98505e-05
-0.000383712
-3.04686e-05
-0.000352649
-3.10631e-05
-0.00032103
-3.16196e-05
-0.000288905
-3.21249e-05
-0.000256334
-3.25706e-05
-0.000223385
-3.29493e-05
-0.000190121
-3.32637e-05
-0.0001566
-3.35211e-05
-0.000122863
-3.37374e-05
-8.89369e-05
-3.39257e-05
-5.48364e-05
-3.41005e-05
-2.05662e-05
-3.42703e-05
1.38611e-05
-3.44272e-05
4.84521e-05
-3.4591e-05
8.31998e-05
-3.47477e-05
0.000118094
-3.48939e-05
0.000153121
-3.50272e-05
0.000188267
-3.51457e-05
0.000223514
-3.52472e-05
0.000258844
-3.53298e-05
0.000294235
-3.53919e-05
0.000329668
-3.54321e-05
0.000365118
-3.545e-05
0.000400563
-3.54453e-05
0.000435981
-3.54184e-05
0.000471351
-3.53695e-05
0.000506649
-3.52988e-05
0.000541856
-3.52064e-05
0.000576948
-3.50923e-05
0.000611905
-3.49568e-05
0.000646705
-3.48001e-05
0.000681327
-3.4622e-05
0.00071575
-3.44226e-05
0.000749952
-3.42018e-05
0.000783911
-3.39597e-05
0.000817607
-3.36962e-05
0.000851019
-3.34114e-05
0.000884124
-3.31056e-05
0.000916903
-3.27787e-05
0.000949334
-3.24312e-05
0.000981398
-3.20633e-05
0.00101307
-3.16757e-05
0.00104434
-3.12688e-05
0.00107519
-3.08433e-05
0.00110559
-3.03997e-05
0.00113552
-2.99384e-05
0.00116498
-2.946e-05
0.00119395
-2.89648e-05
0.0012224
-2.84529e-05
0.00125033
-2.79247e-05
0.00127771
-2.73802e-05
0.00130453
-2.68193e-05
0.00133077
-2.62414e-05
0.00135641
-2.56451e-05
0.00138144
-2.50281e-05
0.00140583
-2.43873e-05
0.00142955
-2.37183e-05
0.00145256
-2.30095e-05
0.00147479
-2.22355e-05
0.00149615
-2.13577e-05
0.00151649
-2.03427e-05
0.00153568
-1.91926e-05
0.00155365
-1.79629e-05
0.00157039
-1.67485e-05
0.00158604
-1.5641e-05
0.00160072
-1.46874e-05
0.0016146
-1.38772e-05
0.00162776
-1.31616e-05
0.00164025
-1.24861e-05
0.00165206
-1.18138e-05
0.00166319
-1.11309e-05
0.00167363
-1.04394e-05
0.00168338
-9.74642e-06
0.00169244
-9.05793e-06
0.00170081
-8.37698e-06
0.00170852
-7.70464e-06
0.00171556
-7.04144e-06
0.00172195
-6.38816e-06
0.00172769
-5.74606e-06
0.00173281
-5.11688e-06
0.00173731
-4.50272e-06
0.00174122
-3.90587e-06
0.00174455
-3.32848e-06
0.00174732
-2.77232e-06
0.00174956
-2.23879e-06
0.00175129
-1.72908e-06
0.00175253
-1.24452e-06
0.00175332
-7.86784e-07
0.00175368
-3.57567e-07
0.00175362
5.85198e-08
0.0017532
4.1393e-07
0.00175247
7.30304e-07
0.00175147
1.00827e-06
0.00175023
1.2408e-06
0.00174879
1.4396e-06
0.00174717
1.61247e-06
0.00174539
1.77962e-06
0.00174343
1.95886e-06
0.00174126
2.17354e-06
0.00173883
2.43581e-06
0.00173608
2.74396e-06
0.00173298
3.10174e-06
0.00172948
3.49552e-06
0.00172557
3.91536e-06
0.00172122
4.3468e-06
0.00171644
4.77949e-06
0.00171124
5.20737e-06
0.00170561
5.6249e-06
0.00169958
6.02834e-06
0.00169317
6.41333e-06
0.0016864
6.7721e-06
0.0016793
7.10103e-06
0.0016719
7.39183e-06
0.00166427
7.63253e-06
0.00165646
7.81489e-06
0.00164853
7.92272e-06
0.00164059
7.94223e-06
0.00163273
7.85874e-06
0.00162507
7.66339e-06
0.00161771
7.3606e-06
0.00161074
6.97068e-06
0.00160421
6.53221e-06
0.0015981
6.10201e-06
0.00159236
5.74236e-06
0.00158685
5.51177e-06
0.0015814
5.45181e-06
0.00157583
5.57248e-06
0.00156997
5.85581e-06
0.00156371
6.25833e-06
0.00155699
6.72018e-06
0.00154981
7.18006e-06
0.00154222
7.58892e-06
0.0015343
7.91796e-06
0.00152614
8.16001e-06
0.00151782
8.32454e-06
0.00150939
8.42941e-06
0.0015009
8.49336e-06
0.00149237
8.53042e-06
0.00148382
8.54855e-06
0.00147527
8.55071e-06
0.00146673
8.53692e-06
0.00145822
8.50682e-06
0.00144976
8.46105e-06
0.00144136
8.40136e-06
0.00143303
8.33086e-06
0.00142478
8.25326e-06
0.0014166
8.17166e-06
0.00140852
8.08866e-06
0.00140051
8.00603e-06
0.00139259
7.92508e-06
0.00138474
7.84666e-06
0.00137697
7.77164e-06
0.00136927
7.70083e-06
0.00136163
7.63533e-06
0.00135405
7.5762e-06
0.00134653
7.52452e-06
0.00133905
7.48156e-06
0.0013316
7.44872e-06
0.00132417
7.42746e-06
0.00131675
7.41917e-06
0.00130933
7.42529e-06
0.00130188
7.4474e-06
0.00129439
7.48735e-06
0.00128685
7.5471e-06
0.00127922
7.62869e-06
0.00127148
7.73468e-06
0.00126361
7.86857e-06
0.00125558
8.0349e-06
0.00124734
8.23889e-06
0.00123885
8.48597e-06
0.00123007
8.78154e-06
0.00122094
9.13049e-06
0.00121141
9.53645e-06
0.0012014
1.00014e-05
0.00119088
1.05261e-05
0.00117977
1.11088e-05
0.00116803
1.174e-05
0.00115563
1.23963e-05
0.00114259
1.30416e-05
0.00112895
1.36413e-05
0.00111477
1.41823e-05
0.00110008
1.46831e-05
0.0010849
1.5186e-05
0.00106916
1.5737e-05
0.00105279
1.63694e-05
0.00103569
1.7099e-05
0.00101776
1.79307e-05
0.000998896
1.88667e-05
0.000978985
1.99112e-05
0.000957914
2.10706e-05
0.000935564
2.23504e-05
0.000911811
2.37528e-05
0.000886537
2.52741e-05
0.000859634
2.69028e-05
0.000831016
2.8618e-05
0.000800627
3.03895e-05
0.000768449
3.21779e-05
0.000734512
3.39368e-05
0.000698898
3.5614e-05
0.000661747
3.71509e-05
0.00062327
3.8477e-05
0.000583765
3.95045e-05
0.000543645
4.01207e-05
0.000503419
4.02258e-05
0.000463518
3.9901e-05
0.000424445
3.90734e-05
0.000386675
3.77692e-05
0.000350633
3.6042e-05
0.000316711
3.39229e-05
0.00028529
3.14208e-05
0.0002567
2.85898e-05
0.000231083
2.56171e-05
0.000208248
2.28351e-05
0.000187634
2.06134e-05
0.000168445
1.91894e-05
0.000149887
1.85577e-05
0.000131403
1.84841e-05
0.000112779
1.86238e-05
9.41144e-05
1.86649e-05
7.56891e-05
1.84254e-05
5.78168e-05
1.78723e-05
4.07408e-05
1.7076e-05
2.46003e-05
1.61405e-05
9.45155e-06
1.51488e-05
-4.69126e-06
1.41428e-05
-1.78537e-05
1.31624e-05
-3.00141e-05
1.21604e-05
-4.11768e-05
1.11627e-05
-5.13556e-05
1.01789e-05
-6.05723e-05
9.21668e-06
-6.88503e-05
8.27802e-06
-7.62287e-05
7.3784e-06
-8.2717e-05
6.48831e-06
-8.83343e-05
5.6172e-06
-9.31033e-05
4.7691e-06
-9.70407e-05
3.93731e-06
-0.000100164
3.12299e-06
-0.000102506
2.34198e-06
-0.000104075
1.569e-06
-0.000104896
8.21133e-07
-0.000105011
1.15717e-07
-0.00010444
-5.71651e-07
-0.000103158
-1.28138e-06
-0.000101198
-1.96041e-06
-9.8582e-05
-2.61598e-06
-9.53316e-05
-3.25047e-06
-9.14671e-05
-3.86445e-06
-8.70096e-05
-4.45756e-06
-8.19933e-05
-5.01627e-06
-7.64377e-05
-5.5556e-06
-7.03815e-05
-6.05615e-06
-6.38515e-05
-6.53009e-06
-5.68911e-05
-6.96033e-06
-4.95625e-05
-7.3286e-06
-4.19464e-05
-7.61608e-06
-3.4066e-05
-7.88042e-06
-2.58279e-05
-8.23815e-06
-1.64305e-05
-9.3974e-06
-5.41212e-06
-1.10183e-05
-5.41212e-06
-3.41331e-05
6.50334e-05
-4.20601e-05
1.26931e-05
-5.07872e-05
1.39126e-05
-6.51984e-05
2.51703e-05
-8.35471e-05
3.27959e-05
-0.000103347
3.56983e-05
-0.000123349
3.61627e-05
-0.000143272
3.60596e-05
-0.000163231
3.61485e-05
-0.000183373
3.65076e-05
-0.000203773
3.70128e-05
-0.000224464
3.75733e-05
-0.000245447
3.81471e-05
-0.000266728
3.87269e-05
-0.000288301
3.93114e-05
-0.000310174
3.99059e-05
-0.000332338
4.04931e-05
-0.000354808
4.10863e-05
-0.000377556
4.165e-05
-0.000400553
4.21832e-05
-0.000423789
4.26812e-05
-0.000447236
4.31302e-05
-0.000470859
4.35212e-05
-0.00049462
4.38492e-05
-0.000518461
4.40898e-05
-0.000542361
4.42703e-05
-0.000566254
4.43531e-05
-0.000590066
4.43214e-05
-0.000613816
4.42383e-05
-0.000637385
4.40234e-05
-0.00066074
4.37175e-05
-0.000683782
4.32818e-05
-0.000706492
4.27644e-05
-0.000728805
4.21449e-05
-0.000750664
4.14147e-05
-0.000772024
4.05886e-05
-0.000792818
3.96493e-05
-0.000812956
3.86083e-05
-0.000832406
3.74638e-05
-0.000851113
3.62244e-05
-0.000869025
3.49089e-05
-0.000886153
3.35349e-05
-0.000902382
3.20481e-05
-0.000917662
3.04925e-05
-0.000931966
2.88742e-05
-0.000945256
2.71992e-05
-0.000957472
2.54385e-05
-0.000968636
2.36632e-05
-0.000978723
2.18181e-05
-0.000987709
1.99451e-05
-0.000995624
1.80184e-05
-0.00100248
1.60579e-05
-0.00100826
1.40483e-05
-0.00101295
1.20053e-05
-0.00101656
9.94868e-06
-0.00101907
7.84023e-06
-0.00102047
5.71328e-06
-0.00102077
3.56706e-06
-0.00101997
1.411e-06
-0.0010181
-7.44598e-07
-0.00101521
-2.91438e-06
-0.00101133
-5.07239e-06
-0.00100648
-7.26047e-06
-0.00100075
-9.46393e-06
-0.000994189
-1.16795e-05
-0.000986831
-1.39057e-05
-0.000978663
-1.61242e-05
-0.000969681
-1.83275e-05
-0.000959842
-2.05098e-05
-0.000949107
-2.26572e-05
-0.000937433
-2.47646e-05
-0.000924829
-2.6834e-05
-0.000911295
-2.88596e-05
-0.000896848
-3.08411e-05
-0.000881505
-3.27791e-05
-0.000865274
-3.46677e-05
-0.000848182
-3.65233e-05
-0.00083029
-3.83104e-05
-0.000811584
-4.00687e-05
-0.000792074
-4.17735e-05
-0.000771807
-4.34304e-05
-0.000750799
-4.50361e-05
-0.000729071
-4.65952e-05
-0.000706645
-4.80976e-05
-0.000683532
-4.95504e-05
-0.000659748
-5.09513e-05
-0.000635316
-5.22986e-05
-0.00061026
-5.35971e-05
-0.000584638
-5.48322e-05
-0.000558453
-5.60363e-05
-0.00053173
-5.71909e-05
-0.000504493
-5.83005e-05
-0.00047675
-5.93628e-05
-0.000448499
-6.03757e-05
-0.000419741
-6.13288e-05
-0.000390476
-6.22141e-05
-0.000360712
-6.3027e-05
-0.000330477
-6.37566e-05
-0.000299802
-6.44122e-05
-0.000268744
-6.49838e-05
-0.00023736
-6.54845e-05
-0.00020571
-6.59201e-05
-0.000173841
-6.62966e-05
-0.00014181
-6.6622e-05
-0.000109658
-6.68996e-05
-7.74151e-05
-6.71368e-05
-4.51136e-05
-6.73288e-05
-1.27812e-05
-6.74781e-05
1.95574e-05
-6.75858e-05
5.18815e-05
-6.7654e-05
8.41726e-05
-6.7683e-05
0.000116415
-6.76743e-05
0.00014859
-6.7625e-05
0.000180682
-6.75375e-05
0.000212675
-6.74114e-05
0.000244553
-6.72472e-05
0.000276299
-6.70451e-05
0.0003079
-6.68076e-05
0.000339342
-6.65345e-05
0.000370613
-6.62271e-05
0.000401699
-6.58859e-05
0.000432589
-6.55122e-05
0.000463272
-6.51064e-05
0.00049374
-6.46694e-05
0.000523983
-6.42021e-05
0.000553991
-6.37051e-05
0.000583759
-6.31791e-05
0.000613278
-6.26247e-05
0.000642542
-6.20426e-05
0.000671544
-6.14333e-05
0.000700279
-6.07976e-05
0.000728739
-6.01362e-05
0.00075692
-5.94501e-05
0.000784817
-5.87399e-05
0.000812424
-5.80067e-05
0.000839737
-5.72513e-05
0.000866751
-5.64746e-05
0.000893465
-5.5678e-05
0.000919875
-5.48629e-05
0.000945981
-5.4031e-05
0.000971785
-5.31842e-05
0.00099729
-5.23246e-05
0.0010225
-5.14548e-05
0.00104744
-5.05777e-05
0.0010721
-4.96945e-05
0.00109652
-4.88073e-05
0.00112072
-4.79181e-05
0.00114474
-4.70275e-05
0.00116864
-4.61332e-05
0.00119251
-4.52265e-05
0.00121646
-4.42908e-05
0.00124057
-4.33042e-05
0.00126485
-4.22495e-05
0.00128923
-4.11235e-05
0.00131353
-3.99406e-05
0.00133757
-3.87267e-05
0.0013612
-3.75078e-05
0.00138434
-3.63005e-05
0.00140696
-3.511e-05
0.00142908
-3.39333e-05
0.00145071
-3.27649e-05
0.00147188
-3.16004e-05
0.00149257
-3.04382e-05
0.00151279
-2.9278e-05
0.00153253
-2.81206e-05
0.00155179
-2.69668e-05
0.00157057
-2.58174e-05
0.00158885
-2.46734e-05
0.00160664
-2.35359e-05
0.00162393
-2.24059e-05
0.00164071
-2.12846e-05
0.00165698
-2.01733e-05
0.00167273
-1.9073e-05
0.00168794
-1.79847e-05
0.00170261
-1.69095e-05
0.00171673
-1.58483e-05
0.00173029
-1.48018e-05
0.00174327
-1.37708e-05
0.00175567
-1.27556e-05
0.00176748
-1.17566e-05
0.00177868
-1.07794e-05
0.00178923
-9.8216e-06
0.00179912
-8.88215e-06
0.00180832
-7.96176e-06
0.00181682
-7.05974e-06
0.00182461
-6.17518e-06
0.00183169
-5.3055e-06
0.0018381
-4.44739e-06
0.00184387
-3.59662e-06
0.00184906
-2.74985e-06
0.00185371
-1.90521e-06
0.00185787
-1.06081e-06
0.00186158
-2.16743e-07
0.00186486
6.34462e-07
0.00186773
1.47294e-06
0.00187021
2.30729e-06
0.00187228
3.13059e-06
0.00187396
3.94527e-06
0.00187525
4.74485e-06
0.00187613
5.52691e-06
0.00187662
6.28606e-06
0.0018767
7.01839e-06
0.00187638
7.717e-06
0.00187563
8.37645e-06
0.00187446
8.98955e-06
0.00187283
9.54688e-06
0.00187074
1.00398e-05
0.00186814
1.04602e-05
0.00186499
1.08049e-05
0.00186128
1.10756e-05
0.00185697
1.12837e-05
0.00185205
1.14508e-05
0.00184654
1.16098e-05
0.00184049
1.17928e-05
0.00183397
1.20331e-05
0.00182707
1.23527e-05
0.00181988
1.27595e-05
0.00181249
1.32426e-05
0.00180497
1.37827e-05
0.00179734
1.43475e-05
0.00178962
1.49045e-05
0.00178178
1.54302e-05
0.00177379
1.59035e-05
0.00176563
1.63161e-05
0.00175729
1.66685e-05
0.00174875
1.69673e-05
0.00174002
1.72229e-05
0.00173111
1.74453e-05
0.00172201
1.76424e-05
0.00171274
1.78197e-05
0.0017033
1.79807e-05
0.00169368
1.81269e-05
0.00168388
1.82608e-05
0.0016739
1.8384e-05
0.00166373
1.84989e-05
0.00165338
1.86083e-05
0.00164283
1.8714e-05
0.0016321
1.8818e-05
0.00162119
1.89217e-05
0.00161009
1.90262e-05
0.0015988
1.91322e-05
0.00158733
1.92397e-05
0.00157568
1.93492e-05
0.00156386
1.94606e-05
0.00155186
1.95741e-05
0.0015397
1.96899e-05
0.00152737
1.9808e-05
0.00151489
1.99287e-05
0.00150227
2.00518e-05
0.00148951
2.01772e-05
0.00147663
2.03049e-05
0.00146364
2.04345e-05
0.00145056
2.05659e-05
0.00143741
2.06987e-05
0.00142421
2.08327e-05
0.00141097
2.09676e-05
0.00139774
2.1103e-05
0.00138454
2.12388e-05
0.0013714
2.13747e-05
0.00135837
2.15109e-05
0.00134551
2.16476e-05
0.00133285
2.17853e-05
0.00132047
2.19248e-05
0.0013084
2.20669e-05
0.00129671
2.22125e-05
0.00128546
2.23625e-05
0.00127468
2.25181e-05
0.0012644
2.26804e-05
0.00125459
2.28501e-05
0.0012452
2.30275e-05
0.00123617
2.32132e-05
0.00122745
2.34094e-05
0.00121901
2.36212e-05
0.00121089
2.38563e-05
0.00120314
2.41238e-05
0.0011958
2.44331e-05
0.00118894
2.47942e-05
0.00118259
2.52182e-05
0.00117678
2.57179e-05
0.00117154
2.63088e-05
0.00116688
2.70086e-05
0.0011628
2.78369e-05
0.00115926
2.88141e-05
0.0011562
2.99599e-05
0.00115353
3.12909e-05
0.0011511
3.28174e-05
0.00114874
3.45404e-05
0.00114623
3.64491e-05
0.00114332
3.85206e-05
0.00113974
4.07291e-05
0.00113521
4.30108e-05
0.00112951
4.52063e-05
0.0011224
4.72265e-05
0.00111367
4.89613e-05
0.00110328
5.02907e-05
0.00109126
5.10928e-05
0.00107775
5.12741e-05
0.00106301
5.07817e-05
0.00104733
4.96051e-05
0.00103097
4.77827e-05
0.00101414
4.54219e-05
0.000997034
4.27192e-05
0.000979915
3.99544e-05
0.000963089
3.74391e-05
0.000946843
3.54351e-05
0.00093132
3.40808e-05
0.000916447
3.33571e-05
0.000901965
3.31062e-05
0.000887531
3.30984e-05
0.000872843
3.31138e-05
0.000857713
3.3002e-05
0.00084209
3.2699e-05
0.000826024
3.22062e-05
0.000809617
3.15564e-05
0.000792971
3.07886e-05
0.000776193
2.99401e-05
0.000759313
2.9041e-05
0.000742345
2.813e-05
0.000725281
2.72436e-05
0.000708089
2.64085e-05
0.00069073
2.56368e-05
0.000673178
2.49304e-05
0.000655387
2.42791e-05
0.000637325
2.36796e-05
0.000618961
2.31332e-05
0.000600256
2.2642e-05
0.00058117
2.22097e-05
0.000561668
2.18431e-05
0.0005417
2.15369e-05
0.000521228
2.12939e-05
0.000500229
2.1114e-05
0.00047867
2.09876e-05
0.000456486
2.09024e-05
0.000433673
2.0853e-05
0.000410228
2.08292e-05
0.000386154
2.08229e-05
0.00036146
2.08297e-05
0.000336158
2.08452e-05
0.000310272
2.08696e-05
0.000283824
2.08919e-05
0.000256854
2.09135e-05
0.000229399
2.09256e-05
0.000201509
2.09294e-05
0.000173258
2.09225e-05
0.000144744
2.08977e-05
0.000116021
2.08424e-05
8.68239e-05
2.09592e-05
5.70092e-05
2.04172e-05
2.8928e-05
1.70629e-05
2.35159e-05
-3.37667e-05
9.88001e-05
-3.97294e-05
1.86558e-05
-4.58382e-05
2.00214e-05
-5.78098e-05
3.71419e-05
-7.40857e-05
4.90718e-05
-9.21318e-05
5.37445e-05
-0.000110502
5.45327e-05
-0.000128757
5.43148e-05
-0.000147
5.43917e-05
-0.000165412
5.49195e-05
-0.000184093
5.56935e-05
-0.000203091
5.65711e-05
-0.000222411
5.74674e-05
-0.00024206
5.83763e-05
-0.00026205
5.93006e-05
-0.000282383
6.02392e-05
-0.000303057
6.11671e-05
-0.000324065
6.20944e-05
-0.000345396
6.29806e-05
-0.000367062
6.38496e-05
-0.000389014
6.46333e-05
-0.000411234
6.53501e-05
-0.000433692
6.59796e-05
-0.000456334
6.6491e-05
-0.000479147
6.69025e-05
-0.000502057
6.71807e-05
-0.000525026
6.73215e-05
-0.000548023
6.73184e-05
-0.000570949
6.71645e-05
-0.00059379
6.68641e-05
-0.000616429
6.63568e-05
-0.000638901
6.57538e-05
-0.000661069
6.49322e-05
-0.000682901
6.39774e-05
-0.000704332
6.28457e-05
-0.000725293
6.15499e-05
-0.000745763
6.01193e-05
-0.000765692
5.85364e-05
-0.000785033
5.68056e-05
-0.00080374
5.4931e-05
-0.000821747
5.29162e-05
-0.00083899
5.0777e-05
-0.000855434
4.84927e-05
-0.000871057
4.61149e-05
-0.000885819
4.36365e-05
-0.00089966
4.10401e-05
-0.000912618
3.83964e-05
-0.00092459
3.56354e-05
-0.000935592
3.28198e-05
-0.000945567
2.99206e-05
-0.00095452
2.69708e-05
-0.000962402
2.39402e-05
-0.000969217
2.08637e-05
-0.000974951
1.77387e-05
-0.000979577
1.45749e-05
-0.000983102
1.13656e-05
-0.000985517
8.12784e-06
-0.000986816
4.86649e-06
-0.000986998
1.59243e-06
-0.000986066
-1.67589e-06
-0.000984022
-4.95844e-06
-0.000980872
-8.22261e-06
-0.000976653
-1.14796e-05
-0.000971393
-1.47243e-05
-0.000965118
-1.79547e-05
-0.000957855
-2.11687e-05
-0.000949572
-2.44069e-05
-0.000940287
-2.76124e-05
-0.000929993
-3.08034e-05
-0.000918686
-3.39645e-05
-0.000906365
-3.70856e-05
-0.00089304
-4.01587e-05
-0.000878719
-4.31806e-05
-0.000863426
-4.6134e-05
-0.000847185
-4.90206e-05
-0.00083001
-5.18427e-05
-0.000811928
-5.4605e-05
-0.000792952
-5.72866e-05
-0.000773115
-5.9906e-05
-0.000752445
-6.24436e-05
-0.000730968
-6.49072e-05
-0.000708702
-6.73018e-05
-0.000685691
-6.96067e-05
-0.000661944
-7.18438e-05
-0.000637496
-7.39988e-05
-0.000612375
-7.60721e-05
-0.000586605
-7.80689e-05
-0.000560218
-7.99846e-05
-0.000533238
-8.18122e-05
-0.000505694
-8.35796e-05
-0.000477633
-8.52527e-05
-0.000449077
-8.68556e-05
-0.000420052
-8.83883e-05
-0.000390583
-8.98447e-05
-0.000360686
-9.12256e-05
-0.000330376
-9.25244e-05
-0.000299677
-9.37261e-05
-0.000268596
-9.48375e-05
-0.000237178
-9.58302e-05
-0.000205431
-9.67306e-05
-0.000173389
-9.75266e-05
-0.000141078
-9.82315e-05
-0.000108525
-9.88491e-05
-7.57622e-05
-9.9385e-05
-4.28194e-05
-9.98424e-05
-9.72712e-06
-0.000100229
2.34921e-05
-0.000100548
5.68131e-05
-0.000100799
9.02132e-05
-0.000100986
0.000123669
-0.00010111
0.000157156
-0.00010117
0.000190651
-0.000101169
0.00022413
-0.000101104
0.000257573
-0.00010098
0.000290958
-0.000100797
0.000324268
-0.000100557
0.000357485
-0.000100263
0.000390589
-9.99112e-05
0.000423562
-9.9508e-05
0.000456388
-9.90525e-05
0.000489048
-9.85465e-05
0.000521528
-9.79919e-05
0.000553812
-9.73898e-05
0.000585883
-9.67413e-05
0.000617729
-9.6048e-05
0.000649335
-9.5311e-05
0.000680688
-9.45316e-05
0.000711774
-9.37108e-05
0.000742581
-9.28497e-05
0.000773097
-9.19492e-05
0.000803309
-9.10103e-05
0.000833207
-9.00338e-05
0.000862778
-8.90207e-05
0.00089201
-8.79718e-05
0.000920891
-8.68884e-05
0.000949412
-8.57717e-05
0.00097756
-8.46229e-05
0.00100533
-8.34433e-05
0.0010327
-8.22339e-05
0.00105966
-8.09959e-05
0.00108621
-7.97305e-05
0.00111232
-7.84391e-05
0.00113799
-7.7123e-05
0.0011632
-7.57833e-05
0.00118792
-7.44222e-05
0.00121216
-7.30414e-05
0.00123588
-7.16429e-05
0.00125909
-7.02304e-05
0.00128176
-6.88109e-05
0.00130393
-6.73912e-05
0.00132561
-6.59685e-05
0.00134682
-6.45237e-05
0.0013676
-6.30257e-05
0.00138793
-6.14486e-05
0.00140777
-5.97878e-05
0.00142711
-5.80637e-05
0.00144591
-5.63104e-05
0.00146417
-5.45585e-05
0.00148189
-5.28252e-05
0.00149907
-5.11139e-05
0.00151572
-4.94197e-05
0.00153186
-4.77364e-05
0.00154748
-4.60599e-05
0.00156259
-4.43887e-05
0.00157719
-4.27228e-05
0.00159129
-4.10633e-05
0.00160488
-3.94111e-05
0.00161798
-3.77675e-05
0.00163057
-3.61335e-05
0.00164268
-3.45102e-05
0.00165429
-3.28989e-05
0.00166542
-3.13006e-05
0.00167606
-2.97164e-05
0.00168623
-2.81476e-05
0.00169591
-2.65954e-05
0.00170512
-2.50609e-05
0.00171387
-2.35453e-05
0.00172215
-2.20492e-05
0.00172996
-2.05733e-05
0.00173733
-1.91177e-05
0.00174423
-1.76828e-05
0.00175067
-1.62674e-05
0.00175666
-1.48703e-05
0.00176219
-1.34906e-05
0.00176726
-1.21279e-05
0.00177187
-1.07828e-05
0.00177602
-9.45636e-06
0.00177972
-8.15017e-06
0.00178299
-6.86543e-06
0.00178584
-5.60279e-06
0.0017883
-4.36216e-06
0.00179038
-3.14254e-06
0.00179211
-1.94242e-06
0.0017935
-7.60301e-07
0.00179457
4.03424e-07
0.00179533
1.54779e-06
0.00179579
2.66941e-06
0.00179596
3.77829e-06
0.00179585
4.85004e-06
0.00179547
5.90639e-06
0.00179483
6.92677e-06
0.00179393
7.92431e-06
0.00179277
8.8749e-06
0.00179135
9.79134e-06
0.00178968
1.06648e-05
0.00178774
1.1491e-05
0.00178551
1.22683e-05
0.00178298
1.29849e-05
0.00178013
1.36558e-05
0.00177693
1.42787e-05
0.00177335
1.48665e-05
0.00176935
1.54435e-05
0.00176493
1.6029e-05
0.00176008
1.66467e-05
0.0017548
1.73135e-05
0.00174912
1.8032e-05
0.00174309
1.87939e-05
0.00173675
1.95823e-05
0.00173016
2.03689e-05
0.00172338
2.11302e-05
0.00171644
2.18405e-05
0.00170938
2.24923e-05
0.0017022
2.30787e-05
0.00169491
2.36088e-05
0.00168749
2.40898e-05
0.00167992
2.45321e-05
0.0016722
2.49449e-05
0.00166431
2.53347e-05
0.00165625
2.57058e-05
0.00164801
2.60611e-05
0.00163959
2.64037e-05
0.00163098
2.67362e-05
0.00162218
2.70603e-05
0.00161318
2.73785e-05
0.00160399
2.76932e-05
0.00159459
2.80064e-05
0.00158498
2.832e-05
0.00157517
2.86351e-05
0.00156514
2.8952e-05
0.00155489
2.92719e-05
0.00154443
2.95942e-05
0.00153375
2.99196e-05
0.00152285
3.02479e-05
0.00151173
3.05792e-05
0.00150039
3.09134e-05
0.00148883
3.125e-05
0.00147705
3.15889e-05
0.00146505
3.19294e-05
0.00145283
3.2271e-05
0.0014404
3.26132e-05
0.00142775
3.29552e-05
0.00141488
3.32956e-05
0.00140182
3.36334e-05
0.00138855
3.39671e-05
0.00137509
3.42956e-05
0.00136144
3.46176e-05
0.00134761
3.49316e-05
0.00133361
3.5236e-05
0.00131946
3.55287e-05
0.00130516
3.58077e-05
0.00129074
3.60705e-05
0.00127621
3.63148e-05
0.00126159
3.65383e-05
0.00124692
3.67389e-05
0.00123222
3.69145e-05
0.00121752
3.70633e-05
0.00120285
3.71852e-05
0.00118825
3.72846e-05
0.00117373
3.7371e-05
0.0011593
3.74564e-05
0.00114496
3.7549e-05
0.00113072
3.76497e-05
0.00111659
3.77534e-05
0.00110259
3.78537e-05
0.00108877
3.79483e-05
0.00107516
3.80396e-05
0.00106182
3.81338e-05
0.0010488
3.82387e-05
0.00103616
3.83625e-05
0.00102395
3.85137e-05
0.00101226
3.87022e-05
0.00100115
3.89404e-05
0.000990724
3.92433e-05
0.000981055
3.9629e-05
0.000972228
4.01174e-05
0.000964317
4.0729e-05
0.000957376
4.14809e-05
0.000951442
4.23829e-05
0.000946531
4.34318e-05
0.000942646
4.46138e-05
0.000939715
4.59422e-05
0.000937555
4.73659e-05
0.000935955
4.88271e-05
0.000934667
5.02489e-05
0.00093342
5.15381e-05
0.000931924
5.25891e-05
0.000929903
5.3295e-05
0.000927119
5.35658e-05
0.00092338
5.33433e-05
0.000918553
5.26105e-05
0.000912572
5.14023e-05
0.000905474
4.98172e-05
0.000897407
4.80217e-05
0.000888614
4.62324e-05
0.000879375
4.46739e-05
0.000869934
4.35215e-05
0.000860435
4.28558e-05
0.000850895
4.26463e-05
0.000841225
4.27682e-05
0.000831295
4.30439e-05
0.000821001
4.32957e-05
0.000810309
4.33919e-05
0.000799242
4.32732e-05
0.000787848
4.29499e-05
0.000776159
4.24778e-05
0.000764172
4.19266e-05
0.000751858
4.13559e-05
0.00073918
4.08074e-05
0.000726118
4.03061e-05
0.00071266
3.98657e-05
0.000698803
3.94942e-05
0.000684536
3.91968e-05
0.000669839
3.89767e-05
0.00065468
3.88383e-05
0.000639026
3.87873e-05
0.000622838
3.88297e-05
0.000606077
3.89711e-05
0.000588704
3.92163e-05
0.000570673
3.95679e-05
0.000551939
4.00276e-05
0.000532458
4.05949e-05
0.000512181
4.12644e-05
0.000491058
4.20253e-05
0.000469047
4.2864e-05
0.000446111
4.37659e-05
0.000422217
4.47169e-05
0.000397343
4.57036e-05
0.000371476
4.67117e-05
0.00034462
4.7726e-05
0.000316783
4.87289e-05
0.000287994
4.97028e-05
0.00025829
5.06289e-05
0.000227729
5.14902e-05
0.000196389
5.22628e-05
0.000164368
5.29193e-05
0.000131694
5.3516e-05
9.83573e-05
5.42959e-05
6.50936e-05
5.3681e-05
3.42852e-05
4.78713e-05
5.78011e-05
-3.32881e-05
0.000132088
-3.88422e-05
2.42098e-05
-4.42881e-05
2.54673e-05
-5.54831e-05
4.83369e-05
-7.0955e-05
6.45437e-05
-8.82978e-05
7.10873e-05
-0.000106028
7.22626e-05
-0.000123717
7.20039e-05
-0.000141404
7.20784e-05
-0.000159261
7.27766e-05
-0.000177379
7.38115e-05
-0.000195811
7.50034e-05
-0.000214586
7.62421e-05
-0.000233717
7.75076e-05
-0.000253219
7.88022e-05
-0.000273067
8.00875e-05
-0.000293308
8.14081e-05
-0.000313943
8.27292e-05
-0.000334933
8.39706e-05
-0.000356269
8.51855e-05
-0.000377947
8.63119e-05
-0.000399954
8.7357e-05
-0.00042222
8.82457e-05
-0.000444744
8.9015e-05
-0.000467451
8.96093e-05
-0.000490306
9.00351e-05
-0.000513255
9.02706e-05
-0.000536273
9.03366e-05
-0.000559269
9.01606e-05
-0.000582178
8.97731e-05
-0.000604997
8.91754e-05
-0.000627588
8.83449e-05
-0.000649949
8.72933e-05
-0.000671984
8.60126e-05
-0.000693656
8.45173e-05
-0.000714911
8.28052e-05
-0.000735682
8.08904e-05
-0.000755911
7.87652e-05
-0.000775543
7.64381e-05
-0.000794535
7.39229e-05
-0.000812844
7.1225e-05
-0.000830414
6.83472e-05
-0.000847256
6.53345e-05
-0.000863286
6.21454e-05
-0.00087846
5.88104e-05
-0.000892772
5.53522e-05
-0.000906156
5.17806e-05
-0.000918583
4.8062e-05
-0.000930041
4.42776e-05
-0.000940463
4.03427e-05
-0.000949844
3.63518e-05
-0.00095822
3.23159e-05
-0.000965491
2.81354e-05
-0.000971677
2.39245e-05
-0.000976756
1.96538e-05
-0.00098073
1.53396e-05
-0.000983584
1.0982e-05
-0.000985316
6.59881e-06
-0.000985923
2.1993e-06
-0.000985376
-2.22282e-06
-0.000983702
-6.63266e-06
-0.000980877
-1.1048e-05
-0.000976897
-1.54598e-05
-0.000971766
-1.98545e-05
-0.000965482
-2.42389e-05
-0.00095805
-2.86011e-05
-0.000949541
-3.29157e-05
-0.000939924
-3.72289e-05
-0.000929237
-4.14903e-05
-0.000917498
-4.57034e-05
-0.000904724
-4.98597e-05
-0.000890926
-5.39572e-05
-0.000876134
-5.79729e-05
-0.000860351
-6.19167e-05
-0.000843587
-6.57843e-05
-0.000825867
-6.95627e-05
-0.00080723
-7.32427e-05
-0.000787677
-7.68388e-05
-0.000767237
-8.03461e-05
-0.000745938
-8.37424e-05
-0.000723807
-8.7039e-05
-0.000700858
-9.02507e-05
-0.000677125
-9.33397e-05
-0.000652645
-9.6324e-05
-0.000627425
-9.92185e-05
-0.000601509
-0.000101988
-0.000574926
-0.000104652
-0.000547706
-0.000107204
-0.000519867
-0.000109652
-0.000491472
-0.000111974
-0.000462522
-0.000114203
-0.000433052
-0.000116325
-0.000403107
-0.000118333
-0.00037272
-0.000120232
-0.000341926
-0.000122019
-0.00031076
-0.000123691
-0.000279242
-0.000125244
-0.000247408
-0.000126672
-0.000215255
-0.000127983
-0.000182814
-0.000129172
-0.000150095
-0.000130246
-0.000117125
-0.000131201
-8.39257e-05
-0.000132048
-5.05222e-05
-0.000132789
-1.69398e-05
-0.000133425
1.67938e-05
-0.000133963
5.06504e-05
-0.000134405
8.46037e-05
-0.000134752
0.000118626
-0.000135008
0.000152692
-0.000135176
0.000186776
-0.000135254
0.000220855
-0.000135248
0.000254911
-0.00013516
0.00028892
-0.000134989
0.000322861
-0.000134738
0.000356713
-0.000134409
0.000390453
-0.000134002
0.000424064
-0.000133523
0.000457527
-0.00013297
0.000490823
-0.000132348
0.000523934
-0.000131658
0.000556843
-0.000130901
0.000589533
-0.000130079
0.000621986
-0.000129195
0.000654187
-0.000128248
0.000686119
-0.000127243
0.000717766
-0.000126179
0.000749115
-0.000125059
0.00078015
-0.000123885
0.000810857
-0.000122657
0.000841224
-0.000121377
0.000871237
-0.000120047
0.000900885
-0.000118669
0.000930157
-0.000117244
0.000959042
-0.000115773
0.00098753
-0.000114259
0.00101561
-0.000112702
0.00104327
-0.000111104
0.0010705
-0.000109468
0.0010973
-0.000107795
0.00112366
-0.000106088
0.00114957
-0.000104347
0.00117502
-0.000102575
0.00120001
-0.000100774
0.00122453
-9.89435e-05
0.00124858
-9.70858e-05
0.00127213
-9.52007e-05
0.00129519
-9.3288e-05
0.00131773
-9.13464e-05
0.00133971
-8.93733e-05
0.00136111
-8.73649e-05
0.0013819
-8.53175e-05
0.0014021
-8.32289e-05
0.00142175
-8.11006e-05
0.0014409
-7.89379e-05