/*--------------------------------*- C++ -*----------------------------------*\
| =========                 |                                                 |
| \\      /  F ield         | OpenFOAM: The Open Source CFD Toolbox           |
|  \\    /   O peration     | Version:  v2006                                 |
|   \\  /    A nd           | Website:  www.openfoam.com                      |
|    \\/     M anipulation  |                                                 |
\*---------------------------------------------------------------------------*/
FoamFile
{
    version     2.0;
    format      ascii;
    class       volVectorField;
    location    "8";
    object      U;
}
// * * * * * * * * * * * * * * * * * * * * * * * * * * * * * * * * * * * * * //

dimensions      [0 1 -1 0 0 0 0];


internalField   nonuniform List<vector> 
52500
(
(-0.00270414 0.00233236 0)
(-0.00386521 -3.59063e-05 0)
(-0.00383829 -7.71642e-05 0)
(-0.0048741 0.00039119 0)
(-0.00621436 0.000733311 0)
(-0.007913 0.000888388 0)
(-0.00964349 0.00092936 0)
(-0.0113746 0.000933313 0)
(-0.0131014 0.00093716 0)
(-0.0148414 0.000951137 0)
(-0.0166055 0.000972594 0)
(-0.0183983 0.000998052 0)
(-0.0202209 0.00102469 0)
(-0.0220737 0.00105276 0)
(-0.0239573 0.00108149 0)
(-0.0258725 0.00111099 0)
(-0.0278196 0.00114179 0)
(-0.029798 0.00117143 0)
(-0.0318114 0.0012029 0)
(-0.0338513 0.00123403 0)
(-0.0359162 0.0012644 0)
(-0.0380122 0.00129336 0)
(-0.0401334 0.0013212 0)
(-0.0422772 0.00134759 0)
(-0.0444375 0.00137253 0)
(-0.0466132 0.00139417 0)
(-0.0488015 0.00141481 0)
(-0.0509968 0.001433 0)
(-0.0531942 0.00144549 0)
(-0.0553874 0.00145824 0)
(-0.0575784 0.00146705 0)
(-0.0597539 0.00147442 0)
(-0.0619107 0.0014765 0)
(-0.0640498 0.0014759 0)
(-0.0661592 0.00147103 0)
(-0.0682371 0.00146223 0)
(-0.0702863 0.0014509 0)
(-0.0722865 0.00144023 0)
(-0.074235 0.00142311 0)
(-0.0761391 0.00140461 0)
(-0.0779888 0.00138409 0)
(-0.0797802 0.0013588 0)
(-0.08151 0.00133706 0)
(-0.0831716 0.00131582 0)
(-0.0847646 0.00129347 0)
(-0.086292 0.0012721 0)
(-0.0877461 0.00124931 0)
(-0.0891245 0.00122164 0)
(-0.090431 0.00118698 0)
(-0.0916468 0.00114673 0)
(-0.0927746 0.00109269 0)
(-0.0938091 0.00103003 0)
(-0.0947425 0.000960334 0)
(-0.0955866 0.000885577 0)
(-0.096317 0.000807476 0)
(-0.0969359 0.000724785 0)
(-0.0974535 0.000639545 0)
(-0.0978603 0.000551567 0)
(-0.098155 0.000460268 0)
(-0.0983349 0.000364091 0)
(-0.0983963 0.000260082 0)
(-0.0983365 0.000142214 0)
(-0.0981448 1.33786e-05 0)
(-0.0978138 -0.000138521 0)
(-0.0973423 -0.000308594 0)
(-0.0967229 -0.000491281 0)
(-0.0959449 -0.000675005 0)
(-0.0950121 -0.000854239 0)
(-0.0939393 -0.00101886 0)
(-0.0927323 -0.00116652 0)
(-0.0913898 -0.00129716 0)
(-0.0899208 -0.00141907 0)
(-0.0883373 -0.00153311 0)
(-0.0866391 -0.0016429 0)
(-0.0848315 -0.00174927 0)
(-0.082908 -0.00185149 0)
(-0.0808742 -0.00195378 0)
(-0.0787397 -0.00205564 0)
(-0.076506 -0.00215255 0)
(-0.0741678 -0.00224525 0)
(-0.0717295 -0.00233828 0)
(-0.0692015 -0.00242793 0)
(-0.0665815 -0.00251471 0)
(-0.0638742 -0.00259749 0)
(-0.061082 -0.002675 0)
(-0.0582095 -0.00274758 0)
(-0.0552613 -0.0028161 0)
(-0.0522394 -0.00288251 0)
(-0.0491455 -0.00294942 0)
(-0.0459823 -0.00301374 0)
(-0.0427508 -0.00307623 0)
(-0.0394534 -0.00313575 0)
(-0.0360949 -0.00318943 0)
(-0.0326792 -0.00323435 0)
(-0.0292122 -0.0032682 0)
(-0.025701 -0.00328935 0)
(-0.0221529 -0.0032985 0)
(-0.0185744 -0.00329817 0)
(-0.0149709 -0.00329248 0)
(-0.0113461 -0.00328561 0)
(-0.00770214 -0.00328117 0)
(-0.00404169 -0.00328139 0)
(-0.000361922 -0.00328594 0)
(0.00333685 -0.00329611 0)
(0.007051 -0.00330983 0)
(0.0107815 -0.00332578 0)
(0.0145271 -0.00334282 0)
(0.0182862 -0.00335989 0)
(0.0220572 -0.0033762 0)
(0.025838 -0.00339119 0)
(0.0296268 -0.00340449 0)
(0.033421 -0.00341584 0)
(0.0372185 -0.00342506 0)
(0.0410166 -0.00343196 0)
(0.044813 -0.00343647 0)
(0.0486055 -0.00343856 0)
(0.0523915 -0.00343822 0)
(0.0561687 -0.00343542 0)
(0.059935 -0.00343015 0)
(0.0636879 -0.00342234 0)
(0.0674251 -0.0034119 0)
(0.0711445 -0.00339874 0)
(0.0748436 -0.00338276 0)
(0.0785202 -0.00336386 0)
(0.0821721 -0.00334193 0)
(0.0857968 -0.00331689 0)
(0.0893922 -0.00328867 0)
(0.092956 -0.00325723 0)
(0.0964859 -0.00322255 0)
(0.0999797 -0.00318462 0)
(0.103435 -0.00314349 0)
(0.10685 -0.00309925 0)
(0.110223 -0.00305197 0)
(0.11355 -0.00300174 0)
(0.116832 -0.00294857 0)
(0.120064 -0.00289246 0)
(0.123247 -0.00283341 0)
(0.126377 -0.00277138 0)
(0.129453 -0.00270633 0)
(0.132474 -0.00263815 0)
(0.135437 -0.00256664 0)
(0.138341 -0.00249147 0)
(0.141184 -0.00241218 0)
(0.143964 -0.00232806 0)
(0.146679 -0.00223802 0)
(0.149327 -0.00214063 0)
(0.151905 -0.00203412 0)
(0.15441 -0.00191582 0)
(0.156835 -0.00178074 0)
(0.159174 -0.00162095 0)
(0.161412 -0.00142884 0)
(0.163534 -0.00120387 0)
(0.165526 -0.000958363 0)
(0.167384 -0.000715789 0)
(0.169115 -0.000501016 0)
(0.170735 -0.000328826 0)
(0.172262 -0.000198731 0)
(0.173708 -9.86603e-05 0)
(0.175082 -1.34332e-05 0)
(0.176384 6.81804e-05 0)
(0.177614 0.000151094 0)
(0.17877 0.000235483 0)
(0.179851 0.000319627 0)
(0.180858 0.00040193 0)
(0.181792 0.000481587 0)
(0.182654 0.000558385 0)
(0.183443 0.00063232 0)
(0.184163 0.000703352 0)
(0.184812 0.000771319 0)
(0.185394 0.000835934 0)
(0.185909 0.000896805 0)
(0.186359 0.000953471 0)
(0.186746 0.00100548 0)
(0.187073 0.00105244 0)
(0.187341 0.00109405 0)
(0.187553 0.00113004 0)
(0.187711 0.0011601 0)
(0.18782 0.00118379 0)
(0.18788 0.00120046 0)
(0.187896 0.00120929 0)
(0.18787 0.00121039 0)
(0.187807 0.00120225 0)
(0.187713 0.00118397 0)
(0.187591 0.00115594 0)
(0.187447 0.00111979 0)
(0.187283 0.00107884 0)
(0.187102 0.00103756 0)
(0.186903 0.00100098 0)
(0.186683 0.000973463 0)
(0.186437 0.000958039 0)
(0.186161 0.000955907 0)
(0.185849 0.000966023 0)
(0.185497 0.000986021 0)
(0.185101 0.00101294 0)
(0.184658 0.00104373 0)
(0.18417 0.00107619 0)
(0.183635 0.00110867 0)
(0.183054 0.00114002 0)
(0.18243 0.00116926 0)
(0.181763 0.00119537 0)
(0.181056 0.00121735 0)
(0.180312 0.00123401 0)
(0.179534 0.00124384 0)
(0.178728 0.00124514 0)
(0.177899 0.00123561 0)
(0.177054 0.00121209 0)
(0.176201 0.00117078 0)
(0.175352 0.00110789 0)
(0.174518 0.00102096 0)
(0.17371 0.000910392 0)
(0.172941 0.000780908 0)
(0.172218 0.000642148 0)
(0.171542 0.000507742 0)
(0.170911 0.000392865 0)
(0.170312 0.000311136 0)
(0.16973 0.00027137 0)
(0.169144 0.000275368 0)
(0.168536 0.000317228 0)
(0.167889 0.000384878 0)
(0.167195 0.000463219 0)
(0.166449 0.000537896 0)
(0.165656 0.000598552 0)
(0.164823 0.000640324 0)
(0.16396 0.000663523 0)
(0.163075 0.000671975 0)
(0.162177 0.000670761 0)
(0.161269 0.000664286 0)
(0.160357 0.000655269 0)
(0.159442 0.000644667 0)
(0.158525 0.000632219 0)
(0.15761 0.000617228 0)
(0.156696 0.000599184 0)
(0.155787 0.000578064 0)
(0.154883 0.000554335 0)
(0.153987 0.000528732 0)
(0.153098 0.000502009 0)
(0.152219 0.000474782 0)
(0.151348 0.000447477 0)
(0.150486 0.000420367 0)
(0.149632 0.000393633 0)
(0.148788 0.000367431 0)
(0.147951 0.000341918 0)
(0.147122 0.000317266 0)
(0.146301 0.000293684 0)
(0.145486 0.000271388 0)
(0.144678 0.000250606 0)
(0.143874 0.000231616 0)
(0.143075 0.000214743 0)
(0.142278 0.000200332 0)
(0.141483 0.000188729 0)
(0.140689 0.000180292 0)
(0.139892 0.000175436 0)
(0.139093 0.000174641 0)
(0.138288 0.000178413 0)
(0.137476 0.000187288 0)
(0.136654 0.000201924 0)
(0.135819 0.000223221 0)
(0.134968 0.000252349 0)
(0.134097 0.000290661 0)
(0.133202 0.000339586 0)
(0.132279 0.000400544 0)
(0.131321 0.000474829 0)
(0.130322 0.000563414 0)
(0.129277 0.000666866 0)
(0.128179 0.000785417 0)
(0.127022 0.000918641 0)
(0.125799 0.00106412 0)
(0.124506 0.00121584 0)
(0.123142 0.00136459 0)
(0.121711 0.00150141 0)
(0.120219 0.0016225 0)
(0.118673 0.0017317 0)
(0.117074 0.00183854 0)
(0.115419 0.00195345 0)
(0.113702 0.00208383 0)
(0.111911 0.0022329 0)
(0.110038 0.00240115 0)
(0.108069 0.00258822 0)
(0.105995 0.00279394 0)
(0.103803 0.00301831 0)
(0.10148 0.00326087 0)
(0.0990141 0.00352013 0)
(0.096391 0.00379313 0)
(0.0935988 0.00407517 0)
(0.0906266 0.00435973 0)
(0.0874668 0.00463873 0)
(0.084115 0.00490299 0)
(0.0805718 0.00514303 0)
(0.076843 0.00534968 0)
(0.0729401 0.00551404 0)
(0.0688815 0.0056265 0)
(0.0646938 0.00567529 0)
(0.0604144 0.00564821 0)
(0.0560958 0.00553562 0)
(0.0517891 0.00533115 0)
(0.0475459 0.00504343 0)
(0.0434172 0.00469461 0)
(0.0394512 0.00430675 0)
(0.0356917 0.00388746 0)
(0.0321822 0.00343017 0)
(0.0289644 0.00293525 0)
(0.026067 0.0024361 0)
(0.0234877 0.00200231 0)
(0.0211821 0.00170863 0)
(0.0190709 0.00159139 0)
(0.0170628 0.00162604 0)
(0.0150832 0.00174045 0)
(0.013092 0.00185074 0)
(0.011087 0.00189523 0)
(0.00909222 0.00184986 0)
(0.0071419 0.00172379 0)
(0.00526632 0.00154402 0)
(0.00348537 0.00133985 0)
(0.00180858 0.00113338 0)
(0.000234482 0.000936794 0)
(-0.0012291 0.000756455 0)
(-0.00258141 0.000586669 0)
(-0.00383056 0.000425345 0)
(-0.00497369 0.000268313 0)
(-0.00601188 0.000112371 0)
(-0.00695133 -4.41807e-05 0)
(-0.00778989 -0.000199481 0)
(-0.00852945 -0.000355995 0)
(-0.00917868 -0.000511476 0)
(-0.00973499 -0.000664969 0)
(-0.0101996 -0.000817626 0)
(-0.010581 -0.000969806 0)
(-0.0108735 -0.00111948 0)
(-0.0110794 -0.00127113 0)
(-0.0112076 -0.001422 0)
(-0.0112571 -0.00157177 0)
(-0.011232 -0.00171877 0)
(-0.0111324 -0.00186075 0)
(-0.0109585 -0.0019981 0)
(-0.010713 -0.00213057 0)
(-0.0103984 -0.00225796 0)
(-0.0100166 -0.00238011 0)
(-0.00957292 -0.00249682 0)
(-0.00906484 -0.00260566 0)
(-0.00849763 -0.00270909 0)
(-0.0078754 -0.0028034 0)
(-0.00719827 -0.00289105 0)
(-0.00647465 -0.00296841 0)
(-0.0057078 -0.00303043 0)
(-0.00490534 -0.00307204 0)
(-0.00407894 -0.00310943 0)
(-0.00321183 -0.00320551 0)
(-0.00232077 -0.00347881 0)
(-0.00121345 -0.00362835 0)
(6.1579e-05 -0.00260758 0)
(-0.00296201 0.00843543 0)
(-0.00434283 0.00169724 0)
(-0.00471653 0.00188741 0)
(-0.0061143 0.00335488 0)
(-0.00788013 0.00430882 0)
(-0.00999716 0.00466258 0)
(-0.0121431 0.00471681 0)
(-0.0142812 0.00470706 0)
(-0.0164119 0.00472301 0)
(-0.0185555 0.00477118 0)
(-0.020725 0.00483594 0)
(-0.0229254 0.00490554 0)
(-0.0251567 0.00497704 0)
(-0.0274192 0.00504961 0)
(-0.0297143 0.00512318 0)
(-0.0320406 0.00519731 0)
(-0.0344015 0.00527064 0)
(-0.0367918 0.00534314 0)
(-0.0392142 0.00541367 0)
(-0.0416645 0.00548024 0)
(-0.0441385 0.00554245 0)
(-0.0466399 0.00559812 0)
(-0.0491614 0.00564699 0)
(-0.0517003 0.00568816 0)
(-0.0542515 0.00571846 0)
(-0.0568091 0.0057402 0)
(-0.059369 0.00575166 0)
(-0.0619324 0.00574791 0)
(-0.0644809 0.00573615 0)
(-0.0670105 0.00571061 0)
(-0.0695259 0.00567204 0)
(-0.0720128 0.00561885 0)
(-0.0744662 0.00555339 0)
(-0.0768824 0.00547528 0)
(-0.0792515 0.00538384 0)
(-0.0815662 0.00527827 0)
(-0.0838235 0.00515869 0)
(-0.0860164 0.00503005 0)
(-0.088137 0.00488506 0)
(-0.0901829 0.0047288 0)
(-0.092154 0.00456279 0)
(-0.094031 0.0043859 0)
(-0.0958127 0.00419967 0)
(-0.0975034 0.00400539 0)
(-0.099089 0.00380214 0)
(-0.100568 0.00359131 0)
(-0.101936 0.00337091 0)
(-0.103188 0.00314599 0)
(-0.104326 0.00291199 0)
(-0.105349 0.00267647 0)
(-0.106262 0.00243027 0)
(-0.107053 0.00217892 0)
(-0.107726 0.00192092 0)
(-0.108293 0.0016594 0)
(-0.108736 0.00139664 0)
(-0.109058 0.00112628 0)
(-0.109267 0.00085352 0)
(-0.109358 0.000578104 0)
(-0.109332 0.000299476 0)
(-0.109188 1.69973e-05 0)
(-0.108937 -0.000270717 0)
(-0.108573 -0.000565088 0)
(-0.108099 -0.000865425 0)
(-0.107532 -0.0011756 0)
(-0.106872 -0.00149097 0)
(-0.106126 -0.00180804 0)
(-0.105296 -0.0021199 0)
(-0.104378 -0.00242802 0)
(-0.103371 -0.0027279 0)
(-0.10227 -0.00301887 0)
(-0.10107 -0.00330012 0)
(-0.0997696 -0.00357707 0)
(-0.0983694 -0.00384742 0)
(-0.0968707 -0.00411221 0)
(-0.0952748 -0.00437068 0)
(-0.0935833 -0.00462128 0)
(-0.0918022 -0.00486887 0)
(-0.0899271 -0.00511016 0)
(-0.0879621 -0.00534487 0)
(-0.0859153 -0.00557101 0)
(-0.0837842 -0.00579313 0)
(-0.0815726 -0.00600774 0)
(-0.0792832 -0.00621577 0)
(-0.0769181 -0.00641574 0)
(-0.0744785 -0.00660774 0)
(-0.0719657 -0.00679212 0)
(-0.0693827 -0.00696945 0)
(-0.0667343 -0.00714106 0)
(-0.0640186 -0.00730754 0)
(-0.0612401 -0.00746882 0)
(-0.058406 -0.0076242 0)
(-0.0555154 -0.00777376 0)
(-0.0525705 -0.00791554 0)
(-0.0495716 -0.00804812 0)
(-0.0465182 -0.0081704 0)
(-0.0434102 -0.00828163 0)
(-0.040248 -0.00838197 0)
(-0.0370334 -0.00847132 0)
(-0.0337697 -0.00855167 0)
(-0.0304617 -0.0086229 0)
(-0.0271156 -0.00868686 0)
(-0.0237379 -0.00874429 0)
(-0.0203344 -0.00879465 0)
(-0.0169107 -0.00884019 0)
(-0.0134719 -0.00887996 0)
(-0.0100219 -0.00891421 0)
(-0.00656405 -0.008943 0)
(-0.0031014 -0.0089665 0)
(0.000363188 -0.00898465 0)
(0.00382723 -0.00899733 0)
(0.00728866 -0.00900448 0)
(0.0107457 -0.00900601 0)
(0.0141965 -0.00900194 0)
(0.0176394 -0.00899236 0)
(0.0210725 -0.00897742 0)
(0.0244941 -0.00895724 0)
(0.0279025 -0.0089319 0)
(0.0312961 -0.00890145 0)
(0.0346734 -0.00886595 0)
(0.0380329 -0.00882554 0)
(0.0413734 -0.00878034 0)
(0.0446935 -0.00873042 0)
(0.0479921 -0.00867586 0)
(0.051268 -0.00861676 0)
(0.0545203 -0.00855323 0)
(0.057748 -0.00848534 0)
(0.0609502 -0.00841318 0)
(0.0641263 -0.00833682 0)
(0.0672753 -0.00825634 0)
(0.0703967 -0.00817182 0)
(0.0734897 -0.00808336 0)
(0.0765537 -0.00799109 0)
(0.079588 -0.00789515 0)
(0.0825922 -0.00779566 0)
(0.0855656 -0.00769277 0)
(0.0885078 -0.00758666 0)
(0.0914181 -0.00747749 0)
(0.0942964 -0.00736542 0)
(0.0971422 -0.00725061 0)
(0.0999555 -0.00713328 0)
(0.102736 -0.00701369 0)
(0.105485 -0.00689212 0)
(0.108202 -0.00676884 0)
(0.110888 -0.00664411 0)
(0.113544 -0.0065182 0)
(0.116173 -0.00639143 0)
(0.118777 -0.00626371 0)
(0.121359 -0.00613348 0)
(0.123923 -0.00599668 0)
(0.12648 -0.00584751 0)
(0.129039 -0.00568177 0)
(0.131612 -0.00550067 0)
(0.134206 -0.00531173 0)
(0.136817 -0.00512525 0)
(0.13943 -0.00494896 0)
(0.142024 -0.00478483 0)
(0.14458 -0.00462966 0)
(0.147087 -0.00447833 0)
(0.149539 -0.00432673 0)
(0.151935 -0.004173 0)
(0.154279 -0.0040171 0)
(0.156572 -0.00385981 0)
(0.158814 -0.00370188 0)
(0.161006 -0.0035438 0)
(0.163147 -0.00338583 0)
(0.165237 -0.00322813 0)
(0.167275 -0.00307085 0)
(0.169261 -0.00291422 0)
(0.171194 -0.00275851 0)
(0.173073 -0.00260402 0)
(0.174899 -0.00245109 0)
(0.17667 -0.00230006 0)
(0.178385 -0.00215121 0)
(0.180044 -0.00200478 0)
(0.181645 -0.00186095 0)
(0.183188 -0.00171989 0)
(0.184671 -0.00158178 0)
(0.186093 -0.00144682 0)
(0.187453 -0.00131531 0)
(0.188751 -0.00118757 0)
(0.189984 -0.00106343 0)
(0.19115 -0.000943725 0)
(0.192246 -0.000829126 0)
(0.19327 -0.000719725 0)
(0.194219 -0.000615099 0)
(0.195091 -0.000514073 0)
(0.195888 -0.000414924 0)
(0.19661 -0.000315612 0)
(0.197261 -0.000214257 0)
(0.197847 -0.000109434 0)
(0.198373 -4.03048e-07 0)
(0.198844 0.000112581 0)
(0.199265 0.000228627 0)
(0.199639 0.00034648 0)
(0.199969 0.000465091 0)
(0.200255 0.000583261 0)
(0.200499 0.000700094 0)
(0.2007 0.000814904 0)
(0.200859 0.000926892 0)
(0.200976 0.00103562 0)
(0.20105 0.00114029 0)
(0.20108 0.00124006 0)
(0.201068 0.00133358 0)
(0.201011 0.00141951 0)
(0.200909 0.00149623 0)
(0.200759 0.00156181 0)
(0.200561 0.00161429 0)
(0.20031 0.00165193 0)
(0.200004 0.00167394 0)
(0.199637 0.00168075 0)
(0.199208 0.00167445 0)
(0.198714 0.00165922 0)
(0.198154 0.00164094 0)
(0.197534 0.00162651 0)
(0.196858 0.00162289 0)
(0.196137 0.00163577 0)
(0.19538 0.00166852 0)
(0.194597 0.0017214 0)
(0.193797 0.00179133 0)
(0.192985 0.00187264 0)
(0.192163 0.0019583 0)
(0.19133 0.00204139 0)
(0.190483 0.00211643 0)
(0.189619 0.00218019 0)
(0.188735 0.0022317 0)
(0.187831 0.00227178 0)
(0.186906 0.00230235 0)
(0.185961 0.00232566 0)
(0.184996 0.00234369 0)
(0.184012 0.00235783 0)
(0.18301 0.00236886 0)
(0.181989 0.00237714 0)
(0.180949 0.00238284 0)
(0.179889 0.00238614 0)
(0.17881 0.00238736 0)
(0.177711 0.002387 0)
(0.176591 0.00238557 0)
(0.175452 0.00238358 0)
(0.174292 0.00238142 0)
(0.173113 0.00237936 0)
(0.171914 0.00237757 0)
(0.170695 0.00237621 0)
(0.169456 0.00237537 0)
(0.168199 0.0023752 0)
(0.166923 0.00237583 0)
(0.165628 0.0023774 0)
(0.164316 0.00238005 0)
(0.162987 0.00238394 0)
(0.161642 0.00238925 0)
(0.160282 0.00239611 0)
(0.158908 0.00240466 0)
(0.157522 0.00241505 0)
(0.156125 0.00242742 0)
(0.15472 0.00244195 0)
(0.153307 0.00245878 0)
(0.151891 0.00247814 0)
(0.150472 0.0025003 0)
(0.149055 0.00252566 0)
(0.147643 0.00255467 0)
(0.14624 0.00258783 0)
(0.144852 0.00262563 0)
(0.143483 0.00266853 0)
(0.14214 0.0027169 0)
(0.140828 0.002771 0)
(0.139555 0.00283098 0)
(0.138324 0.00289684 0)
(0.137143 0.00296796 0)
(0.136015 0.00304242 0)
(0.13494 0.0031169 0)
(0.133914 0.00318803 0)
(0.132929 0.00325454 0)
(0.131978 0.00331852 0)
(0.131059 0.00338484 0)
(0.130171 0.00345905 0)
(0.129319 0.00354553 0)
(0.128509 0.00364688 0)
(0.127747 0.00376454 0)
(0.127039 0.00389981 0)
(0.126387 0.0040545 0)
(0.125794 0.00423098 0)
(0.125264 0.00443189 0)
(0.124796 0.00465974 0)
(0.124389 0.00491648 0)
(0.124038 0.00520309 0)
(0.123735 0.00551912 0)
(0.123466 0.00586231 0)
(0.123215 0.0062283 0)
(0.12296 0.00661045 0)
(0.122676 0.00699989 0)
(0.122336 0.00738568 0)
(0.121908 0.00775525 0)
(0.121366 0.00809348 0)
(0.120685 0.00838147 0)
(0.11984 0.00859848 0)
(0.118816 0.00872391 0)
(0.117612 0.00874213 0)
(0.116239 0.00864514 0)
(0.114717 0.00843218 0)
(0.113079 0.00810812 0)
(0.111355 0.00768376 0)
(0.109572 0.00717948 0)
(0.107752 0.00663014 0)
(0.105915 0.00608534 0)
(0.104091 0.00560085 0)
(0.102313 0.00522263 0)
(0.100607 0.00497108 0)
(0.0989803 0.00483399 0)
(0.0974138 0.0047729 0)
(0.0958729 0.00473991 0)
(0.0943199 0.00469623 0)
(0.0927267 0.00462256 0)
(0.0910802 0.00451785 0)
(0.0893809 0.00439003 0)
(0.0876384 0.00424638 0)
(0.0858649 0.00408942 0)
(0.0840723 0.00392159 0)
(0.0822683 0.00373952 0)
(0.080455 0.00355017 0)
(0.0786325 0.00336093 0)
(0.0767982 0.00317805 0)
(0.0749483 0.00300436 0)
(0.0730789 0.00284157 0)
(0.0711865 0.00268472 0)
(0.0692666 0.00253335 0)
(0.0673161 0.00238758 0)
(0.0653312 0.00224673 0)
(0.0633078 0.0021113 0)
(0.0612416 0.00198413 0)
(0.0591283 0.00186117 0)
(0.056963 0.00174399 0)
(0.0547424 0.00163241 0)
(0.0524634 0.00152656 0)
(0.0501206 0.00142665 0)
(0.0477103 0.00133084 0)
(0.0452322 0.0012376 0)
(0.0426865 0.00114614 0)
(0.0400736 0.00105641 0)
(0.0373948 0.000968489 0)
(0.0346519 0.000884438 0)
(0.0318474 0.000801607 0)
(0.0289846 0.000723069 0)
(0.0260677 0.000647074 0)
(0.0231009 0.000575771 0)
(0.0200916 0.000510408 0)
(0.0170447 0.000452721 0)
(0.0139824 0.000398832 0)
(0.0108808 0.000371524 0)
(0.00772466 0.000245404 0)
(0.00441202 -0.000166117 0)
(0.0018553 0.000752155 0)
(-0.0029578 0.0144017 0)
(-0.004235 0.00277175 0)
(-0.00433145 0.00300808 0)
(-0.00544865 0.00550068 0)
(-0.00696911 0.00721513 0)
(-0.00888318 0.00787651 0)
(-0.010852 0.00798052 0)
(-0.0128147 0.00795057 0)
(-0.0147639 0.00796408 0)
(-0.0167229 0.0080413 0)
(-0.0187084 0.00815386 0)
(-0.0207254 0.00827872 0)
(-0.0227758 0.00840698 0)
(-0.024862 0.00853657 0)
(-0.0269844 0.00866825 0)
(-0.0291445 0.00880082 0)
(-0.0313409 0.00893256 0)
(-0.0335719 0.00906447 0)
(-0.0358441 0.00918969 0)
(-0.0381472 0.00931053 0)
(-0.0404799 0.00942093 0)
(-0.0428469 0.00952102 0)
(-0.0452397 0.00960776 0)
(-0.0476599 0.0096801 0)
(-0.0500954 0.00973453 0)
(-0.0525414 0.00977256 0)
(-0.0550067 0.00979035 0)
(-0.0574699 0.00978322 0)
(-0.0599258 0.00976156 0)
(-0.0623786 0.0097133 0)
(-0.064822 0.00963916 0)
(-0.0672395 0.00954453 0)
(-0.0696252 0.00942495 0)
(-0.0719839 0.00928295 0)
(-0.0743035 0.00911857 0)
(-0.0765807 0.00892868 0)
(-0.0788065 0.00871719 0)
(-0.080973 0.00848424 0)
(-0.083077 0.00822951 0)
(-0.0851107 0.00795352 0)
(-0.0870741 0.00765844 0)
(-0.088963 0.00734733 0)
(-0.090769 0.00701153 0)
(-0.0924881 0.00666255 0)
(-0.0941166 0.0062977 0)
(-0.0956567 0.00591871 0)
(-0.0970923 0.00552804 0)
(-0.098426 0.00512749 0)
(-0.0996569 0.00471708 0)
(-0.100778 0.00429845 0)
(-0.101797 0.00387108 0)
(-0.102699 0.0034345 0)
(-0.103484 0.00298969 0)
(-0.104157 0.00253787 0)
(-0.104712 0.00208176 0)
(-0.105149 0.00161662 0)
(-0.105468 0.00114673 0)
(-0.105668 0.000673351 0)
(-0.105748 0.00019834 0)
(-0.105707 -0.000277077 0)
(-0.105547 -0.000750942 0)
(-0.105269 -0.00121771 0)
(-0.104873 -0.00168421 0)
(-0.104365 -0.00214689 0)
(-0.103748 -0.00260774 0)
(-0.103023 -0.00306924 0)
(-0.102189 -0.00353403 0)
(-0.101249 -0.00399722 0)
(-0.100201 -0.00446085 0)
(-0.0990445 -0.00492132 0)
(-0.0977785 -0.00537603 0)
(-0.0964043 -0.00582362 0)
(-0.0949232 -0.00626285 0)
(-0.0933375 -0.00669191 0)
(-0.0916478 -0.00711136 0)
(-0.089857 -0.00752084 0)
(-0.0879685 -0.00792162 0)
(-0.0859827 -0.00830931 0)
(-0.0839034 -0.00868963 0)
(-0.0817333 -0.00905792 0)
(-0.0794747 -0.00941541 0)
(-0.0771316 -0.0097626 0)
(-0.0747057 -0.0100982 0)
(-0.0722001 -0.0104232 0)
(-0.0696183 -0.010738 0)
(-0.0669622 -0.0110417 0)
(-0.0642357 -0.0113342 0)
(-0.0614417 -0.0116149 0)
(-0.0585822 -0.0118822 0)
(-0.0556609 -0.0121413 0)
(-0.0526821 -0.012388 0)
(-0.0496485 -0.0126258 0)
(-0.0465634 -0.0128549 0)
(-0.0434296 -0.013075 0)
(-0.0402494 -0.0132851 0)
(-0.0370249 -0.013483 0)
(-0.0337567 -0.0136662 0)
(-0.0304477 -0.013833 0)
(-0.0270994 -0.0139812 0)
(-0.0237141 -0.0141113 0)
(-0.0202968 -0.0142237 0)
(-0.0168491 -0.0143204 0)
(-0.0133742 -0.0144029 0)
(-0.00987512 -0.0144732 0)
(-0.0063551 -0.0145325 0)
(-0.00281719 -0.0145818 0)
(0.000735518 -0.0146216 0)
(0.0043002 -0.0146523 0)
(0.00787459 -0.0146742 0)
(0.0114562 -0.0146875 0)
(0.0150425 -0.0146922 0)
(0.018631 -0.0146885 0)
(0.0222191 -0.0146763 0)
(0.0258042 -0.0146559 0)
(0.0293843 -0.0146272 0)
(0.0329574 -0.0145903 0)
(0.0365214 -0.0145456 0)
(0.0400744 -0.0144931 0)
(0.0436145 -0.0144332 0)
(0.0471395 -0.0143661 0)
(0.0506477 -0.014292 0)
(0.0541375 -0.0142111 0)
(0.0576071 -0.0141236 0)
(0.0610548 -0.0140296 0)
(0.0644791 -0.0139294 0)
(0.0678785 -0.0138231 0)
(0.0712514 -0.0137109 0)
(0.0745964 -0.0135929 0)
(0.0779122 -0.0134693 0)
(0.0811975 -0.0133403 0)
(0.084451 -0.0132059 0)
(0.0876713 -0.0130663 0)
(0.0908573 -0.0129217 0)
(0.0940076 -0.0127721 0)
(0.0971211 -0.0126178 0)
(0.100196 -0.0124589 0)
(0.103232 -0.0122956 0)
(0.106228 -0.0121282 0)
(0.109182 -0.011957 0)
(0.112093 -0.0117822 0)
(0.11496 -0.0116042 0)
(0.117781 -0.0114233 0)
(0.120556 -0.0112399 0)
(0.123282 -0.0110546 0)
(0.125957 -0.0108678 0)
(0.12858 -0.0106804 0)
(0.13115 -0.0104932 0)
(0.133664 -0.0103081 0)
(0.136122 -0.0101285 0)
(0.138524 -0.00995753 0)
(0.140872 -0.00979398 0)
(0.143169 -0.00962975 0)
(0.145419 -0.00945163 0)
(0.147621 -0.00924799 0)
(0.149774 -0.00901536 0)
(0.151874 -0.00875986 0)
(0.153918 -0.00849298 0)
(0.155904 -0.00822538 0)
(0.157831 -0.00796301 0)
(0.1597 -0.00770692 0)
(0.161512 -0.00745546 0)
(0.163269 -0.00720651 0)
(0.16497 -0.00695871 0)
(0.166617 -0.00671154 0)
(0.168209 -0.00646502 0)
(0.169746 -0.00621931 0)
(0.171229 -0.00597457 0)
(0.172659 -0.00573097 0)
(0.174036 -0.00548864 0)
(0.175359 -0.00524771 0)
(0.17663 -0.00500828 0)
(0.177848 -0.00477045 0)
(0.179014 -0.00453431 0)
(0.180129 -0.0043 0)
(0.181192 -0.00406768 0)
(0.182205 -0.00383752 0)
(0.183167 -0.00360963 0)
(0.184079 -0.00338407 0)
(0.184941 -0.0031608 0)
(0.185754 -0.00293966 0)
(0.186519 -0.00272093 0)
(0.187234 -0.00250406 0)
(0.1879 -0.0022887 0)
(0.188518 -0.00207485 0)
(0.189086 -0.00186275 0)
(0.189604 -0.00165306 0)
(0.190073 -0.00144657 0)
(0.190494 -0.00124415 0)
(0.190867 -0.00104637 0)
(0.191195 -0.000853486 0)
(0.191479 -0.000665369 0)
(0.191722 -0.000481396 0)
(0.191925 -0.000300799 0)
(0.192092 -0.000122849 0)
(0.192224 5.32308e-05 0)
(0.192322 0.000227422 0)
(0.192387 0.000399422 0)
(0.192421 0.000569129 0)
(0.192424 0.00073629 0)
(0.192398 0.000900113 0)
(0.192343 0.00106004 0)
(0.192261 0.00121524 0)
(0.19215 0.0013652 0)
(0.192012 0.00150885 0)
(0.191847 0.00164511 0)
(0.191654 0.00177293 0)
(0.191431 0.00189118 0)
(0.191177 0.0019991 0)
(0.19089 0.00209624 0)
(0.190567 0.00218303 0)
(0.190204 0.00226178 0)
(0.189799 0.00233609 0)
(0.189349 0.00241075 0)
(0.188852 0.00249091 0)
(0.188309 0.00258076 0)
(0.187721 0.00268205 0)
(0.187093 0.00279381 0)
(0.186428 0.00291252 0)
(0.185734 0.00303322 0)
(0.185017 0.00315075 0)
(0.184281 0.00326087 0)
(0.183531 0.00336104 0)
(0.182768 0.00345047 0)
(0.181994 0.00352975 0)
(0.181206 0.00360032 0)
(0.180404 0.003664 0)
(0.179585 0.00372233 0)
(0.178749 0.00377645 0)
(0.177895 0.00382708 0)
(0.177022 0.0038747 0)
(0.176129 0.0039197 0)
(0.175217 0.00396251 0)
(0.174285 0.00400358 0)
(0.173332 0.00404343 0)
(0.172357 0.00408253 0)
(0.171362 0.00412125 0)
(0.170344 0.00415989 0)
(0.169303 0.00419865 0)
(0.16824 0.00423765 0)
(0.167154 0.00427697 0)
(0.166045 0.00431664 0)
(0.164912 0.00435663 0)
(0.163757 0.00439697 0)
(0.162577 0.0044376 0)
(0.161374 0.00447847 0)
(0.160148 0.00451951 0)
(0.158897 0.00456063 0)
(0.157623 0.00460168 0)
(0.156326 0.0046425 0)
(0.155005 0.00468288 0)
(0.153661 0.00472266 0)
(0.152294 0.0047616 0)
(0.150905 0.00479948 0)
(0.149494 0.00483606 0)
(0.148062 0.00487107 0)
(0.14661 0.00490424 0)
(0.145138 0.0049352 0)
(0.143647 0.00496347 0)
(0.142138 0.00498854 0)
(0.140614 0.00500987 0)
(0.139075 0.00502693 0)
(0.137523 0.00503931 0)
(0.135962 0.00504672 0)
(0.134392 0.00504902 0)
(0.132818 0.00504614 0)
(0.131242 0.00503814 0)
(0.129668 0.00502578 0)
(0.128099 0.00501125 0)
(0.126538 0.0049982 0)
(0.124987 0.00499044 0)
(0.123446 0.00499002 0)
(0.121916 0.00499615 0)
(0.120395 0.00500604 0)
(0.118887 0.00501676 0)
(0.117396 0.00502687 0)
(0.115925 0.0050368 0)
(0.114481 0.0050483 0)
(0.113067 0.00506367 0)
(0.111691 0.00508543 0)
(0.110358 0.00511633 0)
(0.109075 0.00515962 0)
(0.107852 0.0052193 0)
(0.106696 0.00530014 0)
(0.105617 0.00540761 0)
(0.104624 0.00554746 0)
(0.103726 0.00572504 0)
(0.102929 0.0059444 0)
(0.102238 0.00620744 0)
(0.101657 0.00651305 0)
(0.101187 0.00685661 0)
(0.100824 0.00722963 0)
(0.100555 0.00762052 0)
(0.10036 0.00801266 0)
(0.100214 0.00838457 0)
(0.100086 0.00871262 0)
(0.0999464 0.00897071 0)
(0.099765 0.00913412 0)
(0.0995135 0.00918412 0)
(0.0991687 0.00911093 0)
(0.0987129 0.00891544 0)
(0.0981349 0.00861144 0)
(0.0974325 0.00822793 0)
(0.0966148 0.00780866 0)
(0.0957038 0.007406 0)
(0.0947295 0.00706942 0)
(0.0937224 0.00683286 0)
(0.0927051 0.00670638 0)
(0.0916864 0.00667545 0)
(0.0906611 0.00670756 0)
(0.089615 0.00676308 0)
(0.0885338 0.00680648 0)
(0.0874095 0.00681421 0)
(0.0862424 0.00677738 0)
(0.0850378 0.00669955 0)
(0.0838007 0.00659168 0)
(0.0825328 0.00646695 0)
(0.0812318 0.0063363 0)
(0.0798937 0.00620836 0)
(0.0785152 0.00608867 0)
(0.0770946 0.0059802 0)
(0.0756314 0.00588412 0)
(0.0741251 0.00580064 0)
(0.0725741 0.00572928 0)
(0.0709755 0.00567022 0)
(0.0693257 0.00562407 0)
(0.0676209 0.00559164 0)
(0.0658568 0.00557373 0)
(0.0640292 0.00557097 0)
(0.0621337 0.00558344 0)
(0.0601654 0.0056114 0)
(0.0581194 0.00565478 0)
(0.0559907 0.00571223 0)
(0.0537741 0.00578133 0)
(0.0514645 0.00585988 0)
(0.0490575 0.00594524 0)
(0.0465495 0.00603519 0)
(0.0439374 0.00612806 0)
(0.0412194 0.00622227 0)
(0.0383948 0.00631616 0)
(0.0354642 0.00640778 0)
(0.0324297 0.00649524 0)
(0.0292948 0.00657657 0)
(0.0260641 0.00665036 0)
(0.022746 0.00671449 0)
(0.0193456 0.00676476 0)
(0.0158884 0.00680067 0)
(0.012341 0.00687005 0)
(0.00876096 0.00680648 0)
(0.00510845 0.00604893 0)
(0.00229845 0.00736383 0)
(-0.002921 0.0201978 0)
(-0.00417551 0.00376079 0)
(-0.00420253 0.00399365 0)
(-0.00524107 0.00748995 0)
(-0.00667105 0.00995149 0)
(-0.00850851 0.010929 0)
(-0.0104046 0.0110965 0)
(-0.012304 0.0110555 0)
(-0.0141937 0.0110677 0)
(-0.0160928 0.0111721 0)
(-0.0180173 0.011332 0)
(-0.019974 0.0115121 0)
(-0.0219663 0.0116978 0)
(-0.0239952 0.0118863 0)
(-0.0260634 0.0120772 0)
(-0.0281717 0.0122712 0)
(-0.0303183 0.0124666 0)
(-0.0325062 0.0126595 0)
(-0.0347362 0.0128463 0)
(-0.0370034 0.0130271 0)
(-0.0393076 0.0131924 0)
(-0.041648 0.0133428 0)
(-0.04402 0.0134758 0)
(-0.0464219 0.0135877 0)
(-0.0488449 0.0136745 0)
(-0.051284 0.0137348 0)
(-0.053746 0.0137666 0)
(-0.0562093 0.0137724 0)
(-0.0586683 0.0137429 0)
(-0.0611346 0.0136812 0)
(-0.0635855 0.0135866 0)
(-0.0660154 0.0134619 0)
(-0.0684245 0.0132989 0)
(-0.0708023 0.0131041 0)
(-0.0731489 0.0128754 0)
(-0.0754509 0.012614 0)
(-0.0777001 0.0123232 0)
(-0.079897 0.012001 0)
(-0.0820335 0.0116487 0)
(-0.0841032 0.0112677 0)
(-0.0861029 0.0108579 0)
(-0.0880323 0.0104229 0)
(-0.0898762 0.00996265 0)
(-0.0916324 0.00948007 0)
(-0.0933054 0.00897489 0)
(-0.0948867 0.00845041 0)
(-0.096371 0.0079101 0)
(-0.0977552 0.00734683 0)
(-0.099035 0.00677173 0)
(-0.100208 0.00617516 0)
(-0.101277 0.00556932 0)
(-0.102228 0.00495071 0)
(-0.10306 0.00431564 0)
(-0.103781 0.00367415 0)
(-0.104385 0.00302348 0)
(-0.104871 0.00236512 0)
(-0.105237 0.00170069 0)
(-0.105483 0.00103166 0)
(-0.105609 0.00035973 0)
(-0.105615 -0.000314548 0)
(-0.105496 -0.000990247 0)
(-0.105253 -0.00166509 0)
(-0.10489 -0.0023393 0)
(-0.104401 -0.00301157 0)
(-0.10379 -0.00368156 0)
(-0.103061 -0.00434777 0)
(-0.102206 -0.00501159 0)
(-0.101229 -0.00567182 0)
(-0.100142 -0.00632533 0)
(-0.0989402 -0.00697169 0)
(-0.0976274 -0.00760955 0)
(-0.0962053 -0.00823801 0)
(-0.0946732 -0.00885463 0)
(-0.0930341 -0.0094591 0)
(-0.0912906 -0.0100512 0)
(-0.0894451 -0.0106294 0)
(-0.0874974 -0.011194 0)
(-0.0854503 -0.0117445 0)
(-0.0833075 -0.0122814 0)
(-0.0810702 -0.0128012 0)
(-0.0787439 -0.0133061 0)
(-0.0763285 -0.0137974 0)
(-0.0738271 -0.0142698 0)
(-0.0712445 -0.014727 0)
(-0.068581 -0.0151689 0)
(-0.065841 -0.0155921 0)
(-0.0630291 -0.015999 0)
(-0.0601471 -0.016389 0)
(-0.0572 -0.0167624 0)
(-0.0541865 -0.0171195 0)
(-0.0511106 -0.0174601 0)
(-0.0479807 -0.0177848 0)
(-0.0447973 -0.0180929 0)
(-0.0415649 -0.0183846 0)
(-0.0382871 -0.0186593 0)
(-0.0349675 -0.0189166 0)
(-0.0316103 -0.0191557 0)
(-0.0282166 -0.0193769 0)
(-0.0247885 -0.019579 0)
(-0.0213282 -0.0197634 0)
(-0.0178373 -0.0199296 0)
(-0.0143183 -0.0200784 0)
(-0.0107729 -0.0202103 0)
(-0.0072048 -0.020326 0)
(-0.00361624 -0.0204259 0)
(-9.91564e-06 -0.0205105 0)
(0.00361121 -0.0205804 0)