/*--------------------------------*- C++ -*----------------------------------*\
| =========                 |                                                 |
| \\      /  F ield         | OpenFOAM: The Open Source CFD Toolbox           |
|  \\    /   O peration     | Version:  v2006                                 |
|   \\  /    A nd           | Website:  www.openfoam.com                      |
|    \\/     M anipulation  |                                                 |
\*---------------------------------------------------------------------------*/
FoamFile
{
    version     2.0;
    format      ascii;
    class       surfaceScalarField;
    location    "2.2";
    object      alphaPhi0.water;
}
// * * * * * * * * * * * * * * * * * * * * * * * * * * * * * * * * * * * * * //

dimensions      [0 3 -1 0 0 0 0];
oriented        oriented;


internalField   nonuniform List<scalar> 
99450
(
1.58156e-06
-1.58156e-06
1.18381e-05
-1.02566e-05
1.54162e-05
-3.57805e-06
2.39392e-05
-8.52306e-06
2.737e-05
-3.43075e-06
3.62666e-05
-8.89666e-06
3.90955e-05
-2.82887e-06
4.8886e-05
-9.79045e-06
5.08388e-05
-1.95281e-06
6.16239e-05
-1.07851e-05
6.31423e-05
-1.51844e-06
7.42828e-05
-1.11405e-05
7.62579e-05
-1.97507e-06
8.68435e-05
-1.05856e-05
9.02566e-05
-3.41313e-06
9.95953e-05
-9.33865e-06
0.000105077
-5.48211e-06
0.00011305
-7.97277e-06
0.000120214
-7.16353e-06
0.000127999
-7.78485e-06
0.000135934
-7.93586e-06
0.000144257
-8.32295e-06
0.00015292
-8.66235e-06
0.000162027
-9.10721e-06
0.000171584
-9.55746e-06
0.000181631
-1.00462e-05
0.000192235
-1.06048e-05
0.000203432
-1.11962e-05
0.000215282
-1.18504e-05
0.000227827
-1.25445e-05
0.000241109
-1.32823e-05
0.000255199
-1.40903e-05
0.000270124
-1.49247e-05
0.000285942
-1.58184e-05
0.000302682
-1.67397e-05
0.00032038
-1.76976e-05
0.000339059
-1.86798e-05
0.000358738
-1.9679e-05
0.000379416
-2.06779e-05
0.000401086
-2.16693e-05
0.000423732
-2.26461e-05
0.000447334
-2.36027e-05
0.000471866
-2.4532e-05
0.000497291
-2.54251e-05
0.000523569
-2.62771e-05
0.000550654
-2.7085e-05
0.000578497
-2.78437e-05
0.00060706
-2.85624e-05
0.000636282
-2.92223e-05
0.000666112
-2.98301e-05
0.000696497
-3.03848e-05
0.000727381
-3.08836e-05
0.000758706
-3.13256e-05
0.000790417
-3.17112e-05
0.000822454
-3.20368e-05
0.000854756
-3.23023e-05
0.000887263
-3.2507e-05
0.000919913
-3.265e-05
0.000952644
-3.273e-05
0.00098539
-3.27462e-05
0.00101809
-3.2698e-05
0.00105067
-3.25851e-05
0.00108308
-3.24055e-05
0.00111525
-3.2171e-05
0.00114711
-3.18599e-05
0.0011786
-3.14933e-05
0.00120966
-3.10555e-05
0.00124021
-3.05558e-05
0.0012702
-2.99817e-05
0.00129955
-2.93561e-05
0.00132824
-2.86856e-05
0.00135618
-2.79457e-05
0.00138333
-2.71427e-05
0.00140959
-2.62655e-05
0.00143489
-2.52939e-05
0.00145913
-2.42456e-05
0.00148223
-2.30951e-05
0.0015041
-2.18751e-05
0.00152468
-2.05785e-05
0.00154389
-1.92061e-05
0.00156167
-1.77809e-05
0.00157797
-1.63022e-05
0.00159274
-1.47733e-05
0.00160594
-1.31984e-05
0.00161754
-1.15985e-05
0.0016275
-9.96362e-06
0.00163579
-8.29228e-06
0.00164243
-6.63833e-06
0.00164737
-4.94146e-06
0.00165062
-3.24807e-06
0.00165222
-1.59577e-06
0.00165219
2.53208e-08
0.00165051
1.68676e-06
0.00164726
3.24756e-06
0.00164252
4.7342e-06
0.00163638
6.14575e-06
0.0016289
7.48376e-06
0.00162013
8.76403e-06
0.0016102
9.93181e-06
0.00159919
1.10077e-05
0.00158716
1.20288e-05
0.00157416
1.30076e-05
0.0015602
1.3957e-05
0.0015453
1.4902e-05
0.00152944
1.58601e-05
0.00151259
1.68415e-05
0.00149474
1.78508e-05
0.00147587
1.88697e-05
0.00145598
1.98939e-05
0.00143506
2.0917e-05
0.00141313
2.19378e-05
0.00139019
2.29337e-05
0.00136627
2.39221e-05
0.00134137
2.49026e-05
0.00131551
2.58561e-05
0.0012887
2.68066e-05
0.00126101
2.76984e-05
0.00123242
2.85864e-05
0.00120297
2.94533e-05
0.00117268
3.02856e-05
0.00114158
3.11047e-05
0.00110968
3.18912e-05
0.00107702
3.26676e-05
0.0010436
3.34131e-05
0.00100947
3.41317e-05
0.000974631
3.48418e-05
0.000939153
3.54777e-05
0.000903
3.61534e-05
0.00086624
3.67592e-05
0.000828866
3.73748e-05
0.000790949
3.79163e-05
0.000752485
3.8464e-05
0.00071352
3.89656e-05
0.000674058
3.9462e-05
0.000634124
3.99334e-05
0.000593776
4.03486e-05
0.000552993
4.07822e-05
0.000511782
4.12111e-05
0.000470214
4.15686e-05
0.000428204
4.20098e-05
0.000386333
4.18709e-05
0.000343633
4.27003e-05
0.000301302
4.23303e-05
0.000258903
4.23996e-05
0.000216223
4.268e-05
0.000173521
4.27021e-05
0.000132085
4.14352e-05
9.18872e-05
4.01982e-05
5.07768e-05
4.11104e-05
5.07768e-05
-6.16548e-06
4.58392e-06
-1.00958e-05
-6.32626e-06
-1.52378e-05
1.56399e-06
-1.99053e-05
-3.85554e-06
-2.61385e-05
2.8024e-06
-2.87832e-05
-6.252e-06
-3.50412e-05
3.42914e-06
-3.62959e-05
-8.53576e-06
-4.1524e-05
3.27534e-06
-4.19085e-05
-1.04006e-05
-4.53011e-05
1.87413e-06
-4.50404e-05
-1.14012e-05
-4.62514e-05
-7.64037e-07
-4.53066e-05
-1.15304e-05
-4.42221e-05
-4.4976e-06
-4.19619e-05
-1.15989e-05
-3.88412e-05
-8.6028e-06
-3.49897e-05
-1.18243e-05
-2.96325e-05
-1.25208e-05
-2.37879e-05
-1.36294e-05
-1.66219e-05
-1.51019e-05
-8.62769e-06
-1.63171e-05
4.28009e-07
-1.77181e-05
1.04121e-05
-1.90913e-05
2.13836e-05
-2.0529e-05
3.33229e-05
-2.19856e-05
4.62015e-05
-2.34833e-05
6.00025e-05
-2.49972e-05
7.46991e-05
-2.6547e-05
9.02645e-05
-2.811e-05
0.000106675
-2.96928e-05
0.000123884
-3.12995e-05
0.000141867
-3.29078e-05
0.000160582
-3.45336e-05
0.000179998
-3.61551e-05
0.000200068
-3.77676e-05
0.000220766
-3.93783e-05
0.000242061
-4.09737e-05
0.000263941
-4.25575e-05
0.000286384
-4.41127e-05
0.000309374
-4.56362e-05
0.000332891
-4.71193e-05
0.000356922
-4.85632e-05
0.000381454
-4.9957e-05
0.000406477
-5.13002e-05
0.000431978
-5.25863e-05
0.000457949
-5.38149e-05
0.000484364
-5.49767e-05
0.000511211
-5.60701e-05
0.000538476
-5.70948e-05
0.000566136
-5.80448e-05
0.00059417
-5.89176e-05
0.000622555
-5.97109e-05
0.000651264
-6.04198e-05
0.000680272
-6.10447e-05
0.000709551
-6.15816e-05
0.000739072
-6.20277e-05
0.000768803
-6.2381e-05
0.000798713
-6.26398e-05
0.000828768
-6.28018e-05
0.000858936
-6.28655e-05
0.00088918
-6.28296e-05
0.000919465
-6.26899e-05
0.000949749
-6.24553e-05
0.000980003
-6.21141e-05
0.00101019
-6.16757e-05
0.00104026
-6.11265e-05
0.00107017
-6.04695e-05
0.00109991
-5.97185e-05
0.00112941
-5.88545e-05
0.00115861
-5.78919e-05
0.00118749
-5.68247e-05
0.00121601
-5.56604e-05
0.00124413
-5.43852e-05
0.00127187
-5.30376e-05
0.0012992
-5.15735e-05
0.0013261
-4.99908e-05
0.00135254
-4.83175e-05
0.00137851
-4.65463e-05
0.00140398
-4.46787e-05
0.00142892
-4.27195e-05
0.00145328
-4.06645e-05
0.00147704
-3.85307e-05
0.00150016
-3.63202e-05
0.0015226
-3.40402e-05
0.00154431
-3.16788e-05
0.00156526
-2.92413e-05
0.00158539
-2.67643e-05
0.00160466
-2.42088e-05
0.00162302
-2.16117e-05
0.00164038
-1.89598e-05
0.00165668
-1.62663e-05
0.00167188
-1.35164e-05
0.00168586
-1.0737e-05
0.00169851
-7.91658e-06
0.00170971
-5.04484e-06
0.00171932
-2.12698e-06
0.00172734
7.39405e-07
0.00173371
3.56543e-06
0.00173824
6.47857e-06
0.00174083
9.43921e-06
0.00174142
1.24126e-05
0.00173999
1.53851e-05
0.00173654
1.83589e-05
0.00173108
2.1321e-05
0.00172363
2.42856e-05
0.00171427
2.7216e-05
0.00170301
3.01239e-05
0.0016899
3.30093e-05
0.00167496
3.58578e-05
0.00165821
3.86786e-05
0.00163974
4.14073e-05
0.00161953
4.41317e-05
0.00159761
4.68273e-05
0.00157401
4.94537e-05
0.00154881
5.20084e-05
0.00152198
5.45235e-05
0.00149354
5.70286e-05
0.00146357
5.9426e-05
0.00143207
6.17796e-05
0.00139909
6.40851e-05
0.00136466
6.63225e-05
0.00132886
6.84733e-05
0.00129169
7.05799e-05
0.00125319
7.2631e-05
0.00121343
7.46004e-05
0.0011724
7.65053e-05
0.00113022
7.83413e-05
0.00108687
8.01064e-05
0.00104245
8.17918e-05
0.000996963
8.34046e-05
0.000950479
8.49475e-05
0.000903028
8.64168e-05
0.000854668
8.78222e-05
0.000805458
8.91436e-05
0.000755444
9.03628e-05
0.000704699
9.15275e-05
0.000653308
9.26017e-05
0.000601311
9.35653e-05
0.000548817
9.45045e-05
0.000495408
9.52792e-05
0.000442033
9.60756e-05
0.000387561
9.6802e-05
0.000332494
9.74666e-05
0.000277222
9.79527e-05
0.000220886
9.90374e-05
0.000164113
9.82088e-05
0.000109509
9.48018e-05
6.475e-05
8.58696e-05
0.000115527
-3.33042e-06
7.91434e-06
-3.95064e-06
-5.70603e-06
-5.31249e-06
2.92583e-06
-8.04021e-06
-1.12782e-06
-9.39759e-06
4.15978e-06
-1.1392e-05
-4.25754e-06
-1.21086e-05
4.14573e-06
-1.35309e-05
-7.11348e-06
-1.32141e-05
2.9585e-06
-1.39945e-05
-9.62013e-06
-1.22345e-05
1.14131e-07
-1.22087e-05
-1.14271e-05
-9.23508e-06
-3.73765e-06
-8.65817e-06
-1.21073e-05
-3.70666e-06
-9.4491e-06
-2.33034e-06
-1.29752e-05
3.86417e-06
-1.47973e-05
7.88926e-06
-1.58494e-05
1.40187e-05
-1.86502e-05
2.05995e-05
-2.02102e-05
2.78858e-05
-2.23882e-05
3.60407e-05
-2.44721e-05
4.49624e-05
-2.66398e-05
5.47163e-05
-2.88452e-05
6.52898e-05
-3.11024e-05
7.67081e-05
-3.34039e-05
8.89614e-05
-3.57365e-05
0.000102061
-3.80971e-05
0.000115996
-4.0482e-05
0.000130768
-4.28817e-05
0.000146369
-4.52935e-05
0.00016278
-4.77109e-05
0.000180001
-5.01284e-05
0.000198006
-5.25389e-05
0.00021679
-5.49394e-05
0.000236343
-5.73205e-05
0.000256639
-5.96739e-05
0.000277666
-6.20014e-05
0.000299415
-6.43058e-05
0.000321849
-6.65467e-05
0.000344973
-6.87607e-05
0.000368765
-7.09108e-05
0.000393216
-7.30137e-05
0.000418298
-7.50397e-05
0.00044399
-7.69915e-05
0.000470275
-7.88717e-05
0.000497133
-8.06727e-05
0.000524529
-8.23732e-05
0.000552448
-8.39886e-05
0.000580859
-8.55057e-05
0.000609729
-8.69156e-05
0.000639029
-8.82171e-05
0.000668724
-8.94059e-05
0.000698779
-9.04749e-05
0.000729157
-9.1423e-05
0.000759822
-9.22457e-05
0.000790732
-9.29386e-05
0.00082185
-9.34985e-05
0.000853132
-9.39222e-05
0.000884537
-9.42067e-05
0.000916021
-9.43493e-05
0.000947539
-9.43474e-05
0.000979048
-9.41991e-05
0.0010105
-9.3904e-05
0.00104184
-9.34524e-05
0.00107301
-9.28543e-05
0.00110399
-9.21013e-05
0.00113471
-9.1188e-05
0.00116513
-9.01371e-05
0.00119519
-8.89141e-05
0.00122482
-8.75237e-05
0.00125398
-8.59861e-05
0.00128263
-8.4307e-05
0.0013107
-8.24589e-05
0.00133813
-8.04692e-05
0.00136489
-7.83379e-05
0.00139096
-7.60529e-05
0.00141626
-7.36194e-05
0.00144074
-7.10279e-05
0.00146436
-6.83022e-05
0.00148708
-6.54314e-05
0.00150882
-6.24104e-05
0.00152955
-5.92616e-05
0.00154922
-5.59848e-05
0.00156776
-5.25852e-05
0.00158514
-4.90609e-05
0.00160133
-4.54286e-05
0.00161625
-4.16815e-05
0.00162989
-3.7851e-05
0.00164221
-3.39283e-05
0.00165314
-2.98932e-05
0.00166268
-2.58049e-05
0.00167082
-2.16525e-05
0.00167752
-1.74423e-05
0.00168279
-1.3182e-05
0.0016866
-8.85839e-06
0.00168899
-4.51871e-06
0.00169
-2.73e-07
0.00168919
4.37613e-06
0.00168687
8.79837e-06
0.00168307
1.32388e-05
0.00167781
1.76785e-05
0.00167107
2.21225e-05
0.00166286
2.65704e-05
0.00165318
3.10004e-05
0.00164202
3.5443e-05
0.00162942
3.98233e-05
0.00161535
4.41896e-05
0.00159983
4.85247e-05
0.00158288
5.28085e-05
0.0015645
5.70646e-05
0.00154466
6.12499e-05
0.00152337
6.54121e-05
0.00150071
6.94883e-05
0.00147665
7.35175e-05
0.00145119
7.74645e-05
0.00142437
8.1352e-05
0.00139626
8.51334e-05
0.00136684
8.88485e-05
0.00133609
9.25236e-05
0.00130413
9.60522e-05
0.00127091
9.95418e-05
0.0012365
0.000102877
0.00120092
0.000106167
0.00116424
0.000109303
0.00112644
0.0001124
0.00108761
0.00011534
0.00104775
0.0001182
0.00100692
0.000120935
0.000965153
0.000123561
0.000922491
0.000126066
0.00087897
0.000128469
0.000834632
0.000130755
0.00078954
0.000132914
0.000743714
0.000134969
0.000697185
0.000136892
0.000650027
0.000138686
0.000602272
0.000140357
0.000553935
0.000141902
0.000505144
0.000143296
0.000455747
0.000144677
0.00040621
0.000145612
0.00035609
0.000146922
0.000305699
0.000147858
0.00025498
0.000148671
0.000203721
0.000150297
0.00015257
0.00014936
0.000103921
0.000143451
6.15359e-05
0.000128254
0.000177063
-3.10559e-06
1.10199e-05
-1.9304e-06
-6.88122e-06
-1.45486e-06
2.45029e-06
-3.20783e-06
6.25147e-07
-1.53143e-06
2.48338e-06
-3.97845e-06
-1.81052e-06
-1.0122e-06
1.17948e-06
-3.66897e-06
-4.45672e-06
2.16266e-07
-9.26733e-07
-1.98639e-06
-7.41748e-06
2.0003e-06
-3.87255e-06
1.71022e-06
-1.1137e-05
5.51535e-06
-7.54278e-06
8.02393e-06
-1.46159e-05
1.10887e-05
-1.25139e-05
1.58194e-05
-1.77059e-05
1.94506e-05
-1.84285e-05
2.51921e-05
-2.15909e-05
3.06328e-05
-2.40909e-05
3.71306e-05
-2.6708e-05
4.42338e-05
-2.94913e-05
5.20916e-05
-3.233e-05
6.069e-05
-3.52381e-05
7.00683e-05
-3.82235e-05
8.02223e-05
-4.12565e-05
9.116e-05
-4.43415e-05
0.000102904
-4.74804e-05
0.000115457
-5.06499e-05
0.000128831
-5.3856e-05
0.00014303
-5.7081e-05
0.000158061
-6.03241e-05
0.000173927
-6.35772e-05
0.000190625
-6.68269e-05
0.000208162
-7.00756e-05
0.000226527
-7.33046e-05
0.000245717
-7.65104e-05
0.000265729
-7.96852e-05
0.000286539
-8.2812e-05
0.00030814
-8.59065e-05
0.000330532
-8.89393e-05
0.000353677
-9.19053e-05
0.000377563
-9.47963e-05
0.000402154
-9.76048e-05
0.000427439
-0.000100326
0.000453404
-0.000102956
0.000480021
-0.000105489
0.000507248
-0.000107899
0.000535061
-0.000110186
0.000563426
-0.000112354
0.000592309
-0.000114388
0.000621676
-0.000116282
0.00065149
-0.000118031
0.000681711
-0.000119627
0.0007123
-0.000121064
0.000743215
-0.000122338
0.000774411
-0.000123442
0.000805846
-0.000124373
0.000837473
-0.000125125
0.000869245
-0.000125694
0.000901115
-0.000126076
0.000933033
-0.000126268
0.000964951
-0.000126265
0.000996818
-0.000126066
0.00102858
-0.000125668
0.00106019
-0.000125061
0.0010916
-0.000124259
0.00112274
-0.000123247
0.00115358
-0.000122031
0.00118407
-0.000120622
0.00121413
-0.000118975
0.00124373
-0.000117123
0.00127281
-0.000115068
0.00130133
-0.000112822
0.00132922
-0.000110353
0.00135644
-0.000107688
0.00138293
-0.000104827
0.00140863
-0.00010176
0.00143351
-9.84976e-05
0.00145752
-9.50346e-05
0.0014806
-9.13868e-05
0.00150272
-8.75476e-05
0.00152383
-8.35231e-05
0.00154389
-7.93164e-05
0.00156285
-7.49512e-05
0.00158067
-7.04051e-05
0.00159732
-6.57073e-05
0.00161276
-6.08706e-05
0.00162695
-5.58693e-05
0.00163986
-5.07589e-05
0.00165145
-4.55222e-05
0.00166172
-4.01568e-05
0.0016706
-3.46896e-05
0.00167807
-2.9126e-05
0.00168411
-2.34766e-05
0.00168868
-1.77569e-05
0.00169176
-1.19389e-05
0.00169331
-6.06265e-06
0.00169311
-7.1465e-08
0.0016919
5.57858e-06
0.00168916
1.15453e-05
0.00168482
1.75708e-05
0.00167892
2.35836e-05
0.00167145
2.9589e-05
0.00166244
3.55882e-05
0.00165186
4.15763e-05
0.00163978
4.75209e-05
0.00162615
5.34499e-05
0.00161098
5.93639e-05
0.00159432
6.51895e-05
0.00157615
7.09693e-05
0.00155653
7.66844e-05
0.00153546
8.23293e-05
0.00151298
8.78888e-05
0.00148909
9.33789e-05
0.00146382
9.87839e-05
0.00143722
0.000104063
0.00140932
0.000109259
0.00138012
0.000114332
0.00134966
0.000119307
0.00131805
0.000124136
0.00128521
0.000128884
0.0012513
0.000133457
0.00121626
0.000137921
0.00118016
0.000142264
0.00114302
0.000146446
0.00110492
0.000150495
0.00106586
0.000154403
0.00102592
0.000158141
0.000985099
0.000161752
0.000943457
0.000165204
0.000901022
0.000168501
0.000857837
0.000171654
0.000813954
0.000174638
0.00076941
0.000177458
0.000724235
0.000180144
0.000678485
0.000182642
0.000632184
0.000184986
0.000585378
0.000187163
0.0005381
0.00018918
0.000490375
0.000191021
0.000442392
0.00019266
0.000393743
0.000194261
0.000345278
0.000195387
0.000296057
0.000197079
0.000247167
0.000197562
0.000197273
0.00020019
0.000148891
0.000197742
0.000102065
0.000190277
5.92285e-05
0.000171091
0.000236291
-2.98018e-06
1.40001e-05
-1.89722e-06
-7.96418e-06
-1.61544e-06
2.16851e-06
-3.87279e-06
2.88249e-06
-2.66118e-06
1.27177e-06
-5.14481e-06
6.73114e-07
-2.98388e-06
-9.81454e-07
-5.29454e-06
-2.14606e-06
-2.25128e-06
-3.96999e-06
-4.03197e-06
-5.63679e-06
-1.87199e-07
-7.71732e-06
-1.32728e-06
-9.99691e-06
2.73343e-06
-1.16035e-05
4.18875e-06
-1.60712e-05
7.52931e-06
-1.58545e-05
1.17689e-05
-2.19455e-05
1.52973e-05
-2.19569e-05
2.08805e-05
-2.7174e-05
2.61212e-05
-2.93316e-05
3.23926e-05
-3.29794e-05
3.93537e-05
-3.64525e-05
4.70489e-05
-4.00251e-05
5.54903e-05
-4.36795e-05
6.46938e-05
-4.74271e-05
7.46833e-05
-5.1246e-05
8.54787e-05
-5.51369e-05
9.70932e-05
-5.90949e-05
0.000109536
-6.30926e-05
0.000122822
-6.71418e-05
0.000136953
-7.12122e-05
0.000151937
-7.53085e-05
0.000167773
-7.94128e-05
0.000184469
-8.35229e-05
0.00020201
-8.76164e-05
0.0002204
-9.16946e-05
0.000239632
-9.57425e-05
0.000259696
-9.97494e-05
0.000280597
-0.000103713
0.000302291
-0.0001076
0.000324785
-0.000111434
0.000348048
-0.000115169
0.000372078
-0.000118826
0.000396847
-0.000122374
0.000422324
-0.000125803
0.000448483
-0.000129115
0.000475297
-0.000132303
0.000502751
-0.000135353
0.000530809
-0.000138244
0.00055943
-0.000140975
0.000588578
-0.000143536
0.000618218
-0.000145923
0.000648315
-0.000148128
0.000678827
-0.000150139
0.000709714
-0.000151951
0.000740935
-0.000153558
0.000772445
-0.000154952
0.000804199
-0.000156128
0.000836151
-0.000157078
0.000868254
-0.000157797
0.000900458
-0.000158281
0.000932715
-0.000158525
0.000964973
-0.000158523
0.000997182
-0.000158275
0.00102929
-0.000157776
0.00106126
-0.000157029
0.00109302
-0.000156019
0.00112452
-0.000154746
0.00115571
-0.000153228
0.00118655
-0.000151457
0.00121696
-0.000149384
0.0012469
-0.000147062
0.00127632
-0.000144493
0.00130519
-0.000141691
0.00133342
-0.000138586
0.00136098
-0.000135241
0.00138782
-0.000131668
0.00141386
-0.0001278
0.00143906
-0.000123705
0.00146341
-0.00011938
0.00148682
-0.000114799
0.00150926
-0.000109985
0.00153069
-0.000104955
0.00155109
-9.97138e-05
0.00157038
-9.42392e-05
0.00158854
-8.85667e-05
0.00160553
-8.27005e-05
0.00162131
-7.66528e-05
0.00163585
-7.04077e-05
0.0016491
-6.4011e-05
0.00166104
-5.74572e-05
0.00167165
-5.07707e-05
0.0016809
-4.39387e-05
0.00168875
-3.69765e-05
0.00169519
-2.991e-05
0.00170017
-2.27453e-05
0.00170371
-1.54768e-05
0.0017058
-8.15373e-06
0.00170658
-8.4448e-07
0.0017053
6.85523e-06
0.0017025
1.43421e-05
0.00169821
2.18678e-05
0.00169237
2.94149e-05
0.00168499
3.69703e-05
0.00167605
4.45321e-05
0.00166555
5.20762e-05
0.00165346
5.96066e-05
0.00163982
6.70893e-05
0.0016247
7.44888e-05
0.00160802
8.18739e-05
0.00158982
8.91657e-05
0.00157011
9.63887e-05
0.00154894
0.000103507
0.0015263
0.000110528
0.00150225
0.00011743
0.00147683
0.000124202
0.00145002
0.000130869
0.00142188
0.000137403
0.00139242
0.000143791
0.00136172
0.000150006
0.00132975
0.000156103
0.00129663
0.000162012
0.00126233
0.000167753
0.0012269
0.000173348
0.00119044
0.000178727
0.00115292
0.000183969
0.00111442
0.000188989
0.00107496
0.000193868
0.0010346
0.000198501
0.000993345
0.000203005
0.000951288
0.000207261
0.000908443
0.000211346
0.000864808
0.00021529
0.0008205
0.000218946
0.000775518
0.00022244
0.000729951
0.000225712
0.000683791
0.000228802
0.000637073
0.000231704
0.000589859
0.000234377
0.000542164
0.000236875
0.000494044
0.000239142
0.000445636
0.000241067
0.000396635
0.000243262
0.000347748
0.000244274
0.000298099
0.000246728
0.000248874
0.000246787
0.000198504
0.00025056
0.000149573
0.000246673
0.000102067
0.000237784
5.95975e-05
0.00021356
0.000295889
-3.57275e-06
1.75729e-05
-3.14469e-06
-8.39224e-06
-3.56664e-06
2.59046e-06
-5.6975e-06
5.01335e-06
-5.40988e-06
9.84159e-07
-7.60743e-06
2.87066e-06
-6.56325e-06
-2.02564e-06
-8.51745e-06
-1.91856e-07
-6.72276e-06
-5.76468e-06
-8.01398e-06
-4.34558e-06
-5.53135e-06
-1.01999e-05
-5.89283e-06
-9.63543e-06
-2.29664e-06
-1.51997e-05
-2.16936e-06
-1.61985e-05
2.31976e-06
-2.03436e-05
4.65261e-06
-2.42784e-05
8.81175e-06
-2.6116e-05
1.37467e-05
-3.2109e-05
1.86826e-05
-3.42675e-05
2.4798e-05
-3.90948e-05
3.15508e-05
-4.32053e-05
3.90386e-05
-4.75129e-05
4.7304e-05
-5.19449e-05
5.63617e-05
-5.64847e-05
6.6233e-05
-6.11172e-05
7.69339e-05
-6.58379e-05
8.84675e-05
-7.06285e-05
0.000100864
-7.54889e-05
0.000114112
-8.03902e-05
0.000128232
-8.53323e-05
0.000143217
-9.02928e-05
0.000159083
-9.52796e-05
0.000175817
-0.000100257
0.000193425
-0.000105225
0.000211899
-0.000110168
0.000231232
-0.000115076
0.000251421
-0.000119939
0.000272439
-0.000124731
0.000294289
-0.00012945
0.000316951
-0.000134095
0.000340406
-0.000138624
0.000364625
-0.000143045
0.000389612
-0.000147361
0.000415315
-0.000151506
0.000441727
-0.000155527
0.000468809
-0.000159385
0.000496525
-0.00016307
0.00052486
-0.000166579
0.000553788
-0.000169903
0.000583265
-0.000173013
0.000613251
-0.000175909
0.000643699
-0.000178576
0.000674577
-0.000181017
0.000705845
-0.000183219
0.00073746
-0.000185173
0.000769375
-0.000186868
0.000801549
-0.000188301
0.000833931
-0.00018946
0.000866474
-0.00019034
0.00089913
-0.000190937
0.000931849
-0.000191244
0.000964581
-0.000191255
0.000997272
-0.000190966
0.00102987
-0.000190373
0.00106232
-0.000189477
0.00109457
-0.000188269
0.00112658
-0.000186756
0.00115828
-0.000184929
0.00118963
-0.000182806
0.00122057
-0.000180322
0.00125105
-0.000177547
0.00128101
-0.000174454
0.00131039
-0.000171069
0.00133915
-0.000167346
0.00136723
-0.000163321
0.00139458
-0.000159019
0.00142114
-0.000154357
0.00144689
-0.00014946
0.00147175
-0.000144237
0.00149568
-0.000138725
0.00151863
-0.000132935
0.00154056
-0.000126891
0.00156143
-0.000120575
0.00158117
-0.000113989
0.00159979
-0.000107183
0.00161721
-0.000100117
0.00163338
-9.28238e-05
0.0016483
-8.53322e-05
0.00166192
-7.76259e-05
0.00167418
-6.97172e-05
0.00168505
-6.16462e-05
0.00169452
-5.34055e-05
0.00170254
-4.49961e-05
0.00170909
-3.64545e-05
0.00171413
-2.77912e-05
0.00171767
-1.90118e-05
0.00171964
-1.01235e-05
0.00171989
-1.10049e-06
0.001719
7.75064e-06
0.00171647
1.68727e-05
0.00171233
2.60059e-05
0.00170659
3.5156e-05
0.00169925
4.43085e-05
0.00169032
5.34601e-05
0.00167981
6.25854e-05
0.00166773
7.16901e-05
0.00165409
8.07318e-05
0.00163888
8.96976e-05
0.00162214
9.86131e-05
0.00160387
0.00010743
0.00158409
0.000116175
0.00156281
0.00012478
0.00154011
0.000133233
0.00151595
0.000141593
0.00149037
0.000149782
0.00146338
0.000157855
0.00143506
0.000165723
0.00140544
0.000173412
0.0013745
0.000180942
0.00134237
0.000188239
0.001309
0.000195381
0.00127447
0.000202284
0.0012388
0.000209018
0.00120204
0.000215488
0.00116422
0.000221784
0.00112537
0.000227837
0.00108559
0.000233647
0.00104486
0.00023923
0.00100327
0.0002446
0.000960824
0.000249706
0.000917556
0.000254615
0.000873576
0.000259269
0.000828864
0.000263658
0.000783477
0.000267827
0.000737437
0.000271751
0.000690798
0.000275441
0.000643644
0.000278857
0.000595959
0.000282062
0.000547816
0.000285018
0.000499251
0.000287707
0.000450306
0.000290012
0.000400948
0.000292619
0.000351489
0.000293734
0.000301379
0.000296837
0.000251529
0.000296637
0.000200655
0.000301433
0.000151007
0.000296321
0.00010315
0.000285642
6.05282e-05
0.000256181
0.000356417
-3.97285e-06
2.15457e-05
-3.75567e-06
-8.60942e-06
-4.9334e-06
3.76819e-06
-7.44194e-06
7.5219e-06
-8.14302e-06
1.68524e-06
-1.05023e-05
5.22998e-06
-1.03997e-05
-2.12826e-06
-1.23994e-05
1.80782e-06
-1.16071e-05
-6.55695e-06
-1.27988e-05
-3.15392e-06
-1.12895e-05
-1.17092e-05
-1.14862e-05
-9.43876e-06
-9.12393e-06
-1.75619e-05
-8.28325e-06
-1.70392e-05
-4.59504e-06
-2.40318e-05
-3.00315e-06
-2.58703e-05
2.01144e-06
-3.11306e-05
5.61544e-06
-3.5713e-05
1.06478e-05
-3.92999e-05
1.65972e-05
-4.50442e-05
2.30591e-05
-4.96672e-05
3.03268e-05
-5.47806e-05
3.83961e-05
-6.00142e-05
4.72783e-05
-6.53669e-05
5.7e-05
-7.0839e-05
6.75681e-05
-7.64059e-05
7.90027e-05
-8.20631e-05
9.13036e-05
-8.77898e-05
0.000104491
-9.35777e-05
0.000118568
-9.94092e-05
0.000133542
-0.000105267
0.000149415
-0.000111152
0.000166174
-0.000117016
0.000183834
-0.000122885
0.000202385
-0.000128718
0.000221825
-0.000134516
0.000242128
-0.000140241
0.000263294
-0.000145898
0.000285318
-0.000151474
0.000308161
-0.000156938
0.000331835
-0.000162298
0.000356301
-0.00016751
0.000381531
-0.000172591
0.000407535
-0.00017751
0.00043425
-0.000182242
0.000461657
-0.000186792
0.000489734
-0.000191146
0.00051844
-0.000195285
0.000547732
-0.000199195
0.000577595
-0.000202875
0.000607996
-0.00020631
0.000638886
-0.000209466
0.000670223
-0.000212355
0.000701968
-0.000214964
0.000734075
-0.00021728
0.0007665
-0.000219293
0.000799188
-0.000220989
0.000832099
-0.000222371
0.000865185
-0.000223426
0.000898395
-0.000224147
0.000931677
-0.000224526
0.000964979
-0.000224557
0.000998252
-0.000224239
0.00103144
-0.000223563
0.00106449
-0.000222527
0.00109735
-0.000221126
0.00112996
-0.000219364
0.00116226
-0.000217236
0.00119422
-0.000214763
0.00122577
-0.00021187
0.00125684
-0.00020862
0.0012874
-0.000205008
0.00131737
-0.000201041
0.00134672
-0.000196695
0.00137538
-0.00019198
0.0014033
-0.000186943
0.00143044
-0.000181497
0.00145674
-0.000175763
0.00148214
-0.000169638
0.0015066
-0.000163183
0.00153007
-0.000156407
0.0015525
-0.00014932
0.00157385
-0.000141918
0.00159406
-0.000134206
0.00161311
-0.000126228
0.00163095
-0.000117959
0.00164751
-0.000109387
0.00166278
-0.000100602
0.00167674
-9.15825e-05
0.00168931
-8.22935e-05
0.00170049
-7.28216e-05
0.00171025
-6.31621e-05
0.00171855
-5.32983e-05
0.00172537
-4.3279e-05
0.00173069
-3.31119e-05
0.00173449
-2.28033e-05
0.00173676
-1.23998e-05
0.00173758
-1.92089e-06
0.00173652
8.80772e-06
0.00173393
1.94666e-05
0.00172978
3.01537e-05
0.00172404
4.09011e-05
0.00171668
5.16633e-05
0.00170771
6.24326e-05
0.00169712
7.31804e-05
0.00168497
8.38366e-05
0.00167121
9.44869e-05
0.00165587
0.000105045
0.00163892
0.000115557
0.00162043
0.000125926
0.00160046
0.000136137
0.00157897
0.000146275
0.00155596
0.000156239
0.0015315
0.000166055
0.0015056
0.000175689
0.00147835
0.000185099
0.00144972
0.000194356
0.00141975
0.000203382
0.00138847
0.000212215
0.00135594
0.000220778
0.00132219
0.000229123
0.00128723
0.000237251
0.00125119
0.000245058
0.001214
0.000252671
0.00117579
0.00026
0.00113655
0.000267079
0.00109634
0.000273849
0.00105519
0.000280388
0.00101316
0.000286623
0.000970271
0.000292599
0.000926611
0.000298274
0.000882139
0.00030374
0.000836988
0.00030881
0.000791144
0.00031367
0.000744664
0.000318232
0.000697587
0.000322518
0.000649938
0.000326507
0.000601796
0.000330203
0.000553186
0.000333628
0.000504124
0.000336769
0.000454661
0.000339475
0.000404846
0.000342435
0.000354841
0.000343738
0.000304333
0.000347346
0.000253851
0.00034712
0.000202539
0.000352745
0.000152318
0.000346542
0.000104287
0.000333672
6.14826e-05
0.000298986
0.0004179
-4.62675e-06
2.61725e-05
-5.00318e-06
-8.233e-06
-6.81396e-06
5.57897e-06
-9.66224e-06
1.03702e-05
-1.10713e-05
3.09427e-06
-1.36615e-05
7.82025e-06
-1.44411e-05
-1.34866e-06
-1.65366e-05
3.90328e-06
-1.66117e-05
-6.48183e-06
-1.79879e-05
-1.77771e-06
-1.72878e-05
-1.24094e-05
-1.76588e-05
-9.06767e-06
-1.60797e-05
-1.9141e-05
-1.52683e-05
-1.78506e-05
-1.26279e-05
-2.66722e-05
-1.06139e-05
-2.78842e-05
-6.56861e-06
-3.51759e-05
-3.48735e-06
-3.87942e-05
2.00111e-06
-4.47883e-05
7.27402e-06
-5.03171e-05
1.3337e-05
-5.57302e-05
2.03479e-05
-6.17916e-05
2.81686e-05
-6.78348e-05
3.68373e-05
-7.40356e-05
4.63585e-05
-8.03602e-05
5.67681e-05
-8.68155e-05
6.80512e-05
-9.33461e-05
8.02461e-05
-9.99847e-05
9.3351e-05
-0.000106683
0.000107368
-0.000113426
0.000122311
-0.00012021
0.000138171
-0.000127012
0.000154966
-0.000133811
0.00017268
-0.000140599
0.000191313
-0.000147351
0.00021085
-0.000154053
0.000231295
-0.000160687
0.000252634
-0.000167237
0.000274857
-0.000173696
0.00029793
-0.000180012
0.000321853
-0.000186221
0.000346597
-0.000192255
0.000372135
-0.000198129
0.000398462
-0.000203837
0.000425534
-0.000209314
0.000453332
-0.00021459
0.000481814
-0.000219629
0.000510958
-0.00022443
0.000540721
-0.000228958
0.000571069
-0.000233224
0.00060196
-0.000237201
0.000633363
-0.000240868
0.000665231
-0.000244223
0.000697528
-0.000247261
0.000730207
-0.000249958
0.000763217
-0.000252303
0.000796515
-0.000254287
0.00083005
-0.000255906
0.000863775
-0.000257151
0.000897641
-0.000258013
0.000931592
-0.000258476
0.000965568
-0.000258533
0.000999518
-0.000258189
0.00103339
-0.000257435
0.00106713
-0.000256268
0.00110069
-0.000254683
0.001134
-0.000252676
0.00116701
-0.000250247
0.00119966
-0.000247408
0.00123192
-0.000244134
0.00126369
-0.000240394
0.00129494
-0.000236255
0.0013256
-0.000231705
0.00135564
-0.000226736
0.00138499
-0.000221321
0.00141359
-0.000215548
0.00144139
-0.000209299
0.00146835
-0.000202718
0.00149438
-0.000195671
0.00151946
-0.000188263
0.00154355
-0.000180492
0.00156657
-0.000172347
0.00158849
-0.000163832
0.00160928
-0.000154998
0.00162885
-0.000145795
0.00164718
-0.000136293
0.00166424
-0.000126449
0.00167998
-0.000116343
0.00169437
-0.000105971
0.00170737
-9.52916e-05
0.00171893
-8.43841e-05
0.00172903
-7.32622e-05
0.00173764
-6.19062e-05
0.00174473
-5.03679e-05
0.00175027
-3.8656e-05
0.00175426
-2.6792e-05
0.00175666
-1.47928e-05
0.0017574
-2.6675e-06
0.00175663
9.58177e-06
0.0017542
2.18913e-05
0.00175012
3.42344e-05
0.0017444
4.66203e-05
0.00173705
5.90196e-05
0.00172803
7.14489e-05
0.00171739
8.38194e-05
0.0017051
9.61299e-05
0.00169118
0.000108406
0.00167563
0.000120595
0.00165855
0.000132634
0.00163988
0.000144599
0.00161961
0.000156404
0.0015978
0.00016809
0.00157448
0.000179556
0.00154972
0.000190817
0.00152349
0.00020192
0.00149581
0.000212775
0.00146677
0.000223394
0.00143637
0.000233784
0.0014047
0.000243889
0.00137169
0.000253787
0.00133747
0.000263343
0.00130208
0.000272638
0.0012655
0.000281639
0.00122785
0.000290327
0.00118909
0.000298758
0.00114936
0.000306803
0.00110863
0.000314583
0.00106695
0.000322068
0.0010244
0.000329176
0.000980994
0.000336002
0.000936779
0.000342489
0.0008918
0.000348719
0.000846094
0.000354516
0.000799728
0.000360036
0.00075271
0.00036525
0.000705097
0.00037013
0.000656925
0.000374679
0.000608232
0.000378896
0.000559075
0.000382785
0.000509492
0.000386352
0.000459494
0.000389473
0.000409141
0.000392788
0.000358547
0.000394332
0.000307523
0.000398369
0.000256421
0.000398222
0.000204659
0.000404507
0.000153868
0.000397333
0.000105612
0.000381927
6.25821e-05
0.000342017
0.000480482
-5.32159e-06
3.1494e-05
-6.247e-06
-7.30759e-06
-8.77002e-06
8.10198e-06
-1.21478e-05
1.3748e-05
-1.4361e-05
5.30743e-06
-1.73801e-05
1.08393e-05
-1.90187e-05
2.89999e-07
-2.15044e-05
6.38896e-06
-2.2409e-05
-5.57729e-06
-2.41141e-05
-7.25287e-08
-2.42212e-05
-1.23023e-05
-2.4874e-05
-8.41494e-06
-2.40713e-05
-1.99437e-05
-2.35082e-05