/*--------------------------------*- C++ -*----------------------------------*\
| =========                 |                                                 |
| \\      /  F ield         | OpenFOAM: The Open Source CFD Toolbox           |
|  \\    /   O peration     | Version:  v2006                                 |
|   \\  /    A nd           | Website:  www.openfoam.com                      |
|    \\/     M anipulation  |                                                 |
\*---------------------------------------------------------------------------*/
FoamFile
{
    version     2.0;
    format      ascii;
    class       volScalarField;
    location    "0";
    object      f;
}
// * * * * * * * * * * * * * * * * * * * * * * * * * * * * * * * * * * * * * //

dimensions      [0 0 0 0 0 0 0];


internalField   nonuniform List<scalar> 
2500
(
-8.86766e-98
9.3723e-80
-1.08144e-70
7.94578e-64
3.40767e-59
7.90167e-56
4.00457e-53
4.22821e-51
8.22794e-50
8.35221e-49
4.6575e-48
1.61678e-47
3.96442e-47
7.54135e-47
1.17728e-46
1.54935e-46
1.74338e-46
1.69719e-46
1.44411e-46
1.08092e-46
7.13615e-47
4.1598e-47
2.14431e-47
9.8041e-48
3.99346e-48
1.45698e-48
4.78931e-49
1.42694e-49
3.87604e-50
9.65233e-51
2.21511e-51
4.70729e-52
9.30435e-53
1.71756e-53
2.9722e-54
4.83807e-55
7.43132e-56
1.08024e-56
1.49001e-57
1.95501e-58
2.44557e-59
2.92282e-60
3.34394e-61
3.66893e-62
3.86702e-63
3.92153e-64
3.8319e-65
3.61287e-66
3.29103e-67
2.16419e-68
-3.39225e-95
1.19488e-77
-7.86264e-69
4.0307e-62
1.32384e-57
2.50197e-54
1.06717e-51
9.76494e-50
1.69793e-48
1.5716e-47
8.08294e-47
2.60681e-46
5.97279e-46
1.06737e-45
1.57382e-45
1.96651e-45
2.11075e-45
1.96808e-45
1.60953e-45
1.16137e-45
7.40974e-46
4.183e-46
2.092e-46
9.29454e-47
3.68409e-47
1.30965e-47
4.19963e-48
1.22196e-48
3.24484e-49
7.9069e-50
1.77714e-50
3.70176e-51
7.17745e-52
1.30064e-52
2.21095e-53
3.53756e-54
5.34427e-55
7.64496e-56
1.03827e-56
1.34198e-57
1.65447e-58
1.94963e-59
2.20019e-60
2.38212e-61
2.47848e-62
2.48199e-63
2.39574e-64
2.232e-65
2.00965e-66
1.34405e-67
-1.20636e-92
1.42361e-75
-5.35529e-67
1.92486e-60
4.86107e-56
7.53086e-53
2.7188e-50
2.16883e-48
3.39137e-47
2.88072e-46
1.3749e-45
4.14354e-45
8.92006e-45
1.50543e-44
2.10724e-44
2.51221e-44
2.58441e-44
2.31862e-44
1.83062e-44
1.2788e-44
7.91741e-45
4.34568e-45
2.11659e-45
9.17126e-46
3.54989e-46
1.23376e-46
3.87207e-47
1.10377e-47
2.87412e-48
6.87354e-49
1.51743e-49
3.10692e-50
5.92558e-51
1.05692e-51
1.7695e-52
2.79005e-53
4.15592e-54
5.86465e-55
7.86086e-56
1.00321e-56
1.22173e-57
1.42268e-58
1.58714e-59
1.6993e-60
1.74898e-61
1.73313e-62
1.65587e-63
1.52742e-64
1.362e-65
9.22913e-67
-4.1883e-90
1.65562e-73
-3.55738e-65
8.96726e-59
1.73891e-54
2.20843e-51
6.74887e-49
4.69443e-47
6.60558e-46
5.15348e-45
2.28426e-44
6.43682e-44
1.3026e-43
2.077e-43
2.76103e-43
3.1418e-43
3.09899e-43
2.67625e-43
2.04075e-43
1.3807e-43
8.29824e-44
4.42987e-44
2.10181e-44
8.88415e-45
3.3587e-45
1.14143e-45
3.50651e-46
9.79371e-47
2.50095e-47
5.87054e-48
1.27305e-48
2.56228e-49
4.80715e-50
8.43992e-51
1.39171e-51
2.16252e-52
3.1761e-53
4.42147e-54
5.84917e-55
7.37069e-56
8.86669e-57
1.02032e-57
1.12524e-58
1.19138e-59
1.213e-60
1.18942e-61
1.12483e-62
1.02729e-63
9.07197e-65
6.21457e-66
-1.41837e-87
1.87772e-71
-2.30253e-63
4.07187e-57
6.05394e-53
6.3033e-50
1.63066e-47
9.89285e-46
1.25347e-44
8.98978e-44
3.70351e-43
9.76436e-43
1.85844e-42
2.80087e-42
3.53735e-42
3.84349e-42
3.63649e-42
3.02423e-42
2.22821e-42
1.46068e-42
8.52547e-43
4.42794e-43
2.04718e-43
8.44328e-44
3.11833e-44
1.03641e-44
3.117e-45
8.53091e-46
2.13662e-46
4.92302e-47
1.04874e-47
2.07508e-48
3.82981e-49
6.61891e-50
1.07502e-50
1.64622e-51
2.38404e-52
3.27409e-53
4.2749e-54
5.3191e-55
6.32074e-56
7.18764e-57
7.83611e-58
8.20467e-59
8.26354e-60
8.01803e-61
7.50541e-62
6.78668e-63
5.93542e-64
4.10247e-65
-4.68089e-85
2.07478e-69
-1.4507e-61
1.80059e-55
2.04903e-51
1.74919e-48
3.83106e-46
2.02764e-44
2.315e-43
1.52766e-42
5.85427e-42
1.4451e-41
2.58819e-41
3.68851e-41
4.42757e-41
4.59551e-41
4.17247e-41
3.34309e-41
2.38106e-41
1.51305e-41
8.57963e-42
4.33697e-42
1.95444e-42
7.86722e-43
2.83909e-43
9.22992e-44
2.71794e-44
7.29019e-45
1.79096e-45
4.05099e-46
8.47809e-47
1.64922e-47
2.9945e-48
5.09461e-49
8.15033e-50
1.23006e-50
1.75652e-51
2.37984e-52
3.0669e-53
3.76805e-54
4.42313e-55
4.97048e-56
5.35699e-57
5.54675e-58
5.52639e-59
5.30607e-60
4.91627e-61
4.40142e-62
3.81219e-63
2.65406e-64
-1.50392e-82
2.23111e-67
-8.8875e-60
7.74658e-54
6.73464e-50
4.71403e-47
8.74194e-45
4.03744e-43
4.15668e-42
2.5263e-41
9.01351e-41
2.08456e-40
3.51515e-40
4.73921e-40
5.40924e-40
5.36555e-40
4.67711e-40
3.61213e-40
2.48816e-40
1.53339e-40
8.45101e-41
4.15933e-41
1.8276e-41
7.18186e-42
2.533e-42
8.05638e-43
2.32319e-43
6.10768e-44
1.47192e-44
3.26865e-45
6.72108e-46
1.28546e-46
2.29633e-47
3.8461e-48
6.06092e-49
9.01531e-50
1.26948e-50
1.69687e-51
2.15839e-52
2.61856e-53
3.03646e-54
3.37205e-55
3.59278e-56
3.67883e-57
3.62588e-58
3.44492e-59
3.15936e-60
2.80048e-61
2.40216e-62
1.68201e-63
-4.69914e-80
2.33231e-65
-5.28832e-58
3.23922e-52
2.14686e-48
1.23228e-45
1.9351e-43
7.80103e-42
7.24765e-41
4.06108e-40
1.35025e-39
2.92781e-39
4.65103e-39
5.93507e-39
6.44415e-39
6.11159e-39
5.1172e-39
3.8113e-39
2.54044e-39
1.51912e-39
8.14122e-40
3.90279e-40
1.67262e-40
6.41845e-41
2.21292e-41
6.88712e-42
1.94514e-42
5.01293e-43
1.18525e-43
2.58428e-44
5.22131e-45
9.81906e-46
1.72584e-46
2.84582e-47
4.41774e-48
6.4767e-49
8.99359e-50
1.18604e-50
1.48909e-51
1.78394e-52
2.04355e-53
2.24274e-54
2.36231e-55
2.39213e-56
2.33237e-57
2.19281e-58
1.9906e-59
1.74701e-60
1.48407e-61
1.04374e-62
-1.42633e-77
2.36719e-63
-3.05249e-56
1.31503e-50
6.62895e-47
3.12041e-44
4.14994e-42
1.46073e-40
1.22563e-39
6.33837e-39
1.96578e-38
3.99945e-38
5.98879e-38
7.23675e-38
7.4782e-38
6.78436e-38
5.45919e-38
3.92339e-38
2.53199e-38
1.46991e-38
7.66377e-39
3.57999e-39
1.497e-39
5.61118e-40
1.8916e-40
5.76169e-41
1.59404e-41
4.02761e-42
9.34376e-43
2.00052e-43
3.9718e-44
7.3448e-45
1.27026e-45
2.06228e-46
3.15382e-47
4.55745e-48
6.24099e-49
8.12044e-50
1.00637e-50
1.19057e-51
1.34733e-52
1.46132e-53
1.52172e-54
1.52392e-55
1.4699e-56
1.36753e-57
1.22881e-58
1.06778e-59
8.98332e-61
6.33834e-62
-4.20052e-75
2.32965e-61
-1.7069e-54
5.17708e-49
1.9798e-45
7.64344e-43
8.61023e-41
2.64706e-39
2.00745e-38
9.59247e-38
2.77792e-37
5.30719e-37
7.49551e-37
8.58139e-37
8.44384e-37
7.33164e-37
5.67287e-37
3.93627e-37
2.46101e-37
1.38784e-37
7.04329e-38
3.20747e-38
1.30912e-38
4.79449e-39
1.58074e-39
4.71321e-40
1.27754e-40
3.16511e-41
7.20561e-42
1.51504e-42
2.95606e-43
5.37579e-44
9.14887e-45
1.46251e-45
2.20348e-46
3.13868e-47
4.23888e-48
5.44196e-49
6.65741e-50
7.77786e-51
8.69576e-52
9.32112e-53
9.59626e-54
9.5042e-55
9.06915e-56
8.34965e-57
7.42667e-58
6.38972e-59
5.32397e-60
3.76458e-61
-1.19868e-72
2.2199e-59
-9.23306e-53
1.97397e-47
5.71042e-44
1.80831e-41
1.72569e-39
4.63533e-38
3.17991e-37
1.4057e-36
3.80526e-36
6.83235e-36
9.10715e-36
9.88384e-36
9.26543e-36
7.70403e-36
5.73538e-36
3.84478e-36
2.3303e-36
1.27736e-36
6.31354e-37
2.80423e-37
1.11757e-37
4.00039e-38
1.29025e-38
3.76664e-39
1.00045e-39
2.43073e-40
5.43099e-41
1.12154e-41
2.15072e-42
3.84668e-43
6.44255e-44
1.01413e-44
1.5054e-45
2.11382e-46
2.81558e-47
3.56675e-48
4.30739e-49
4.96985e-50
5.48954e-51
5.8157e-52
5.91962e-53
5.7984e-54
5.47389e-55
4.98725e-56
4.39109e-57
3.74076e-58
3.08689e-59
2.18544e-60
-3.30991e-70
2.045e-57
-4.82358e-51
7.27956e-46
1.58806e-42
4.12521e-40
3.3356e-38
7.83101e-37
4.86384e-36
1.99161e-35
5.04545e-35
8.52129e-35
1.07271e-34
1.10423e-34
9.86738e-35
7.86151e-35
5.63476e-35
3.65184e-35
2.14722e-35
1.14483e-35
5.51432e-36
2.39004e-36
9.30435e-37
3.25628e-37
1.02769e-37
2.93803e-38
7.64811e-39
1.82259e-39
3.99712e-40
8.10792e-41
1.5283e-41
2.68856e-42
4.43172e-43
6.8698e-44
1.0048e-44
1.39093e-45
1.82736e-46
2.28431e-47
2.7234e-48
3.10338e-49
3.38682e-50
3.54636e-51
3.56902e-52
3.45764e-53
3.22937e-54
2.9118e-55
2.53787e-56
2.14075e-57
1.74963e-58
1.23918e-59
-8.83051e-68
1.81817e-55
-2.42944e-49
2.59251e-44
4.25042e-41
9.05773e-39
6.20686e-37
1.27411e-35
7.17107e-35
2.7236e-34
6.46512e-34
1.02802e-33
1.22308e-33
1.19488e-33
1.01842e-33
7.77977e-34
5.37239e-34
3.3687e-34
1.92303e-34
9.98029e-35
4.68772e-35
1.98372e-35
7.54689e-36
2.5832e-36
7.97962e-37
2.23454e-37
5.70195e-38
1.33296e-38
2.86978e-39
5.7186e-40
1.05965e-40
1.83369e-41
2.97507e-42
4.54194e-43
6.5462e-44
8.93408e-45
1.15777e-45
1.42824e-46
1.68113e-47
1.8921e-48
2.04027e-49
2.11165e-50
2.10128e-51
2.01349e-52
1.86061e-53
1.66032e-54
1.43255e-55
1.19655e-56
9.68589e-58
6.85768e-59
-2.2725e-65
1.55723e-53
-1.17728e-47
8.90155e-43
1.09273e-39
1.91046e-37
1.10971e-35
1.99258e-34
1.01719e-33
3.58855e-33
7.99213e-33
1.19766e-32
1.34766e-32
1.25033e-32
1.01712e-32
7.45509e-33
4.96388e-33
3.01396e-33
1.67183e-33
8.45257e-34
3.8742e-34
1.6016e-34
5.95723e-35
1.995e-35
6.03354e-36
1.65534e-36
4.14135e-37
9.49867e-38
2.00785e-38
3.93101e-39
7.16136e-40
1.21915e-40
1.94711e-41
2.92783e-42
4.15854e-43
5.59595e-44
7.15367e-45
8.70948e-46
1.01219e-46
1.12525e-47
1.19897e-48
1.22663e-49
1.20695e-50
1.14397e-51
1.04594e-52
9.23749e-54
7.89045e-55
6.52622e-56
5.23255e-57
3.70092e-58
-5.63128e-63
1.28224e-51
-5.4764e-46
2.94126e-41
2.69261e-38
3.86243e-36
1.90219e-34
2.98895e-33
1.38523e-32
4.54635e-32
9.51331e-32
1.34494e-31
1.43247e-31
1.26298e-31
9.81295e-32
6.90653e-32
4.4378e-32
2.61159e-32
1.40897e-32
6.9458e-33
3.10897e-33
1.25633e-33
4.57094e-34
1.49821e-34
4.43746e-35
1.19306e-35
2.92697e-36
6.5878e-37
1.36743e-37
2.63069e-38
4.71231e-39
7.89299e-40
1.24102e-40
1.83818e-41
2.5732e-42
3.41442e-43
4.30618e-44
5.17455e-45
5.93805e-46
6.52097e-47
6.86613e-48
6.94409e-49
6.75674e-50
6.33492e-51
5.7312e-52
5.00986e-53
4.23665e-54
3.47008e-55
2.75583e-56
1.94602e-57
-1.34109e-60
1.01275e-49
-2.43876e-44
9.33297e-40
6.34441e-37
7.46716e-35
3.11878e-33
4.29049e-32
1.80696e-31
5.52605e-31
1.08811e-30
1.45288e-30
1.46593e-30
1.22918e-30
9.12867e-31
6.1748e-31
3.83251e-31
2.1882e-31
1.14943e-31
5.53025e-32
2.41934e-32
9.56275e-33
3.40494e-33
1.09272e-33
3.17056e-34
8.35565e-35
2.01061e-35
4.44146e-36
9.0543e-37
1.71186e-37
3.01552e-38
4.97014e-39
7.69418e-40
1.12272e-40
1.54914e-41
2.02716e-42
2.52247e-43
2.99201e-44
3.39059e-45
3.67839e-46
3.82767e-47
3.82708e-48
3.68268e-49
3.41569e-50
3.05787e-51
2.64581e-52
2.21527e-53
1.79689e-54
1.41357e-55
9.96046e-57
-3.06301e-58
7.65348e-48
-1.03626e-42
2.8373e-38
1.42573e-35
1.37682e-33
4.87834e-32
5.87838e-31
2.25198e-30
6.42848e-30
1.19312e-29
1.50643e-29
1.44121e-29
1.15017e-29
8.17178e-30
5.31746e-30
3.19138e-30
1.76991e-30
9.06252e-31
4.2601e-31
1.82311e-31
7.05336e-32
2.45909e-32
7.73007e-33
2.19789e-33
5.67904e-34
1.34062e-34
2.90708e-35
5.82131e-36
1.08181e-36
1.87427e-37
3.04014e-38
4.63445e-39
6.66288e-40
9.06285e-41
1.16967e-41
1.43618e-42
1.6817e-43
1.88211e-44
2.01736e-45
2.07479e-46
2.05105e-47
1.952e-48
1.79117e-49
1.58689e-50
1.35916e-51
1.12678e-52
9.05188e-54
7.05402e-55
4.95749e-56
-6.69384e-56
5.51816e-46
-4.1839e-41
8.24192e-37
3.0469e-34
2.4141e-32
7.25866e-31
7.66514e-30
2.67383e-29
7.1376e-29
1.25095e-28
1.4955e-28
1.35794e-28
1.03236e-28
7.02358e-29
4.40138e-29
2.55741e-29
1.37945e-29
6.89406e-30
3.17004e-30
1.32836e-30
5.03399e-31
1.71941e-31
5.29631e-32
1.47615e-32
3.74056e-33
8.66445e-34
1.84472e-34
3.62913e-35
6.63002e-36
1.12993e-36
1.80398e-37
2.70837e-38
3.83693e-39
5.1455e-40
6.55065e-41
7.93761e-42
9.1766e-43
1.0144e-43
1.07436e-44
1.0922e-45
1.06761e-46
1.005e-47
9.12432e-49
8.00044e-50
6.78357e-51
5.5687e-52
4.43085e-53
3.4207e-54
2.39673e-55
-1.39616e-53
3.78322e-44
-1.59623e-39
2.28062e-35
6.1725e-33
4.01212e-31
1.02408e-29
9.48194e-29
3.01484e-28
7.54066e-28
1.25053e-27
1.41758e-27
1.22297e-27
8.86535e-28
5.78184e-28
3.49359e-28
1.96795e-28
1.03394e-28
5.05101e-29
2.27484e-29
9.34345e-30
3.471e-30
1.16213e-30
3.50927e-31
9.59071e-32
2.384e-32
5.41979e-33
1.13317e-33
2.19056e-34
3.93483e-35
6.59765e-36
1.03695e-36
1.53345e-37
2.14103e-38
2.8312e-39
3.55587e-40
4.25277e-41
4.85483e-42
5.30139e-43
5.54859e-44
5.57629e-45
5.39028e-46
5.01947e-47
4.50937e-48
3.91356e-49
3.28528e-50
2.67074e-51
2.10489e-52
1.60997e-53
1.12419e-54
-2.77137e-51
2.45648e-42
-5.70954e-38
5.99013e-34
1.1811e-31
6.29714e-30
1.36501e-28
1.10869e-27
3.21656e-27
7.5538e-27
1.18808e-26
1.27909e-26
1.04965e-26
7.26297e-27
4.54626e-27
2.65245e-27
1.4508e-27
7.43711e-28
3.5573e-28
1.57145e-28
6.33355e-29
2.30832e-29
7.58027e-30
2.24491e-30
6.01798e-31
1.46782e-31
3.27583e-32
6.72737e-33
1.27814e-33
2.25782e-34
3.72526e-35
5.76483e-36
8.39871e-37
1.15589e-37
1.50744e-38
1.86812e-39
2.20556e-40
2.48653e-41
2.68263e-42
2.77503e-43
2.75738e-44
2.63616e-45
2.42864e-46
2.15919e-47
1.85496e-48
1.54182e-49
1.24136e-50
9.69159e-52
7.34476e-53
5.10949e-54
-5.21855e-49
1.50288e-40
-1.89184e-36
1.48724e-32
2.12605e-30
9.2956e-29
1.71191e-27
1.22031e-26
3.23396e-26
7.14655e-26
1.06884e-25
1.09485e-25
8.55699e-26
5.65839e-26
3.40413e-26
1.92085e-26
1.02205e-26
5.122e-27
2.40333e-27
1.04301e-27
4.1299e-28
1.47793e-28
4.76309e-29
1.38402e-29
3.64047e-30
8.71495e-31
1.9098e-31
3.85319e-32
7.19644e-33
1.25042e-33
2.03055e-34
3.09451e-35
4.44237e-36
6.0277e-37
7.75412e-38
9.48339e-39
1.10546e-39
1.23102e-40
1.31236e-41
1.34197e-42
1.31857e-43
1.24695e-44
1.13669e-45
1.00021e-46
8.50696e-48
7.00197e-49
5.58379e-50
4.31887e-51
3.24328e-52
2.24718e-53
-9.28675e-47
8.60222e-39
-5.69003e-35
3.47364e-31
3.58365e-29
1.28459e-27
2.01086e-26
1.25845e-25
3.04969e-25
6.35653e-25
9.06801e-25
8.85567e-25
6.60117e-25
4.17704e-25
2.41909e-25
1.32269e-25
6.86131e-26
3.36938e-26
1.55422e-26
6.63797e-27
2.58545e-27
9.09271e-28
2.87759e-28
8.20747e-29
2.119e-29
4.98015e-30
1.07189e-30
2.12515e-31
3.90255e-32
6.67128e-33
1.06649e-33
1.60095e-34
2.26513e-35
3.0308e-36
3.84669e-37
4.64382e-38
5.3457e-39
5.88115e-40
6.19655e-41
6.26463e-42
6.08779e-43
5.69568e-44
5.13812e-45
4.47549e-46
3.76893e-47
3.07229e-48
2.42699e-49
1.85993e-50
1.38416e-51
9.54965e-53
-1.55467e-44
4.55588e-37
-1.492e-33
7.58857e-30
5.62679e-28
1.65331e-26
2.20097e-25
1.20938e-24
2.6829e-24
5.28737e-24
7.22129e-24
6.73923e-24
4.79857e-24
2.90992e-24
1.62532e-24
8.63065e-25
4.37639e-25
2.11167e-25
9.5992e-26
4.04221e-26
1.55072e-26
5.3642e-27
1.668e-27
4.67177e-28
1.18427e-28
2.7333e-29
5.77948e-30
1.12628e-30
2.03412e-31
3.42191e-32
5.38655e-33
7.96685e-34
1.11122e-34
1.46656e-35
1.83689e-36
2.18943e-37
2.48949e-38
2.70642e-39
2.81887e-40
2.81816e-41
2.70904e-42
2.50795e-43
2.23932e-44
1.9311e-45
1.61043e-46
1.3003e-47
1.01765e-48
7.72803e-50
5.70007e-51
3.91507e-52
-2.4336e-42
2.18818e-35
-3.06871e-32
1.54012e-28
8.18024e-27
1.97044e-25
2.23241e-24
1.07636e-23
2.18803e-23
4.08758e-23
5.36927e-23
4.80159e-23
3.27133e-23
1.90429e-23
1.02804e-23
5.31594e-24
2.64378e-24
1.2576e-24
5.6492e-25
2.35008e-25
8.89137e-26
3.0277e-26
9.25535e-27
2.54658e-27
6.3403e-28
1.43746e-28
2.98683e-29
5.72274e-30
1.01676e-30
1.6837e-31
2.61052e-32
3.80522e-33
5.23383e-34
6.81513e-35
8.42621e-36
9.91873e-37
1.11429e-37
1.19735e-38
1.23309e-39
1.21935e-40
1.15973e-41
1.06258e-42
9.39251e-44
8.02045e-45
6.62467e-46
5.29896e-47
4.10923e-48
3.09261e-49
2.26105e-50
1.5458e-51
-3.5311e-40
9.10961e-34
-2.80783e-31
2.88028e-27
1.09365e-25
2.16158e-24
2.08673e-23
8.81007e-23
1.64215e-22
2.9155e-22
3.70507e-22
3.18521e-22
2.08024e-22
1.16455e-22
6.09183e-23
3.0776e-23
1.50776e-23
7.0995e-24
3.16086e-24
1.30153e-24
4.86211e-25
1.63101e-25
4.90383e-26
1.32596e-26
3.2434e-27
7.22538e-28
1.47574e-28
2.78079e-29
4.86188e-30
7.92761e-31
1.21105e-31
1.74036e-32
2.36127e-33
3.03458e-34
3.70484e-35
4.30828e-36
4.78343e-37
5.08184e-38
5.17618e-39
5.06401e-40
4.76657e-41
4.32329e-42
3.78393e-43
3.20018e-44
2.61847e-45
2.07525e-46
1.59485e-47
1.18972e-48
8.62306e-50
5.86713e-51
-4.68307e-38
2.84332e-32
1.55886e-29
4.91521e-26
1.33475e-24
2.17003e-23
1.78997e-22
6.58174e-22
1.12452e-21
1.90181e-21
2.35668e-21
1.95514e-21
1.22635e-21
6.6154e-22
3.36312e-22
1.66672e-22
8.09327e-23
3.79152e-23
1.67826e-23
6.85142e-24
2.52949e-24
8.36349e-25
2.47416e-25
6.57635e-26
1.58086e-26
3.4614e-27
6.95141e-28
1.28866e-28
2.21794e-29
3.56236e-30
5.36396e-31
7.60233e-32
1.01786e-32
1.29153e-33
1.55757e-34
1.78998e-35
1.96483e-36
2.06446e-37
2.08037e-38
2.01421e-39
1.87679e-40
1.68552e-41
1.46109e-42
1.22409e-43
9.9239e-45
7.79441e-46
5.93727e-47
4.39072e-48
3.15536e-49
2.13644e-50
-5.54103e-36
1.1663e-31
1.25716e-27
7.56331e-25
1.4774e-23
1.98506e-22
1.40883e-21
4.45721e-21
6.95773e-21
1.12251e-20
1.37124e-20
1.10284e-20
6.65609e-21
3.46681e-21
1.71867e-21
8.39841e-22
4.08007e-22
1.91409e-22
8.44563e-23
3.4214e-23
1.24876e-23
4.07052e-24
1.18505e-24
3.0971e-25
7.31839e-26
1.57544e-26
3.11204e-27
5.67783e-28
9.62381e-29
1.52327e-29
2.26173e-30
3.16291e-31
4.18077e-32
5.23995e-33
6.24497e-34
7.09535e-35
7.70303e-36
8.00763e-37
7.9861e-38
7.65452e-39
7.0625e-40
6.28216e-41
5.39481e-42
4.47842e-43
3.59819e-44
2.80124e-45
2.11538e-46
1.55109e-47
1.10539e-48
7.4473e-50
-5.63308e-34
-8.7945e-29
6.13753e-26
1.03446e-23
1.48046e-22
1.65274e-21
1.02638e-20
2.73042e-20
3.84969e-20
5.9156e-20
7.23719e-20
5.67368e-20
3.29991e-20
1.66251e-20
8.06799e-21
3.91336e-21
1.93224e-21
9.15141e-22
4.02927e-22
1.61826e-22
5.83469e-23
1.87438e-23
5.36999e-24
1.38009e-24
3.20644e-25
6.78864e-26
1.31952e-26
2.3704e-27
3.95869e-28
6.17796e-29
9.05025e-30
1.24946e-30
1.63136e-31
2.02069e-32
2.3811e-33
2.67591e-34
2.87451e-35
2.95767e-36
2.92043e-37
2.77208e-38
2.53351e-39
2.23275e-40
1.90001e-41
1.56325e-42
1.24504e-43
9.60967e-45
7.19564e-46
5.2324e-47
3.69842e-48
2.47925e-49
-5.00956e-32
-1.13811e-26
2.49083e-24
1.23739e-22
1.35359e-21
1.25446e-20
7.05655e-20
1.53376e-19
1.88896e-19
2.73404e-19
3.43218e-19
2.64056e-19
1.48106e-19
7.22466e-20
3.446e-20
1.67404e-20
8.64682e-21
4.17303e-21
1.82745e-21
7.24361e-22
2.57309e-22
8.13681e-23
2.29316e-23
5.7955e-24
1.32424e-24
2.75843e-25
5.27828e-26
9.34119e-27
1.538e-27
2.36803e-28
3.42476e-29
4.67074e-30
6.02764e-31
7.38309e-32
8.60681e-33
9.57244e-34
1.01799e-34
1.03724e-35
1.01445e-36
9.53992e-38
8.63971e-39
7.54623e-40
6.36545e-41
5.19218e-42
4.10026e-43
3.13835e-44
2.33066e-45
1.68104e-46
1.17871e-47
7.86181e-49
-7.18045e-30
-1.14156e-24
8.84205e-23
1.28269e-21
1.10147e-20
8.60796e-20
4.62037e-19
8.31257e-19
8.22902e-19
1.07272e-18
1.44529e-18
1.10194e-18
5.95578e-19
2.80966e-19
1.32204e-19
6.51369e-20
3.72216e-20
1.84379e-20
7.93162e-21
3.06888e-21
1.06782e-21
3.31603e-22
9.18596e-23
2.28285e-23
5.1314e-24
1.05213e-24
1.98317e-25
3.45998e-26
5.62052e-27
8.54434e-28
1.22093e-28
1.64617e-29
2.10132e-30
2.54704e-31
2.9394e-32
3.23742e-33
3.41035e-34
3.44284e-35
3.33689e-36
3.11029e-37
2.79235e-38
2.41811e-39
2.02258e-40
1.63609e-41
1.28143e-42
9.72878e-44
7.16725e-45
5.12873e-46
3.56812e-47
2.3679e-48
-2.84126e-27
-1.08808e-22
2.61723e-21
1.25089e-20
3.51008e-20
5.00087e-19
2.69581e-18
4.79444e-18
3.26342e-18
3.16792e-18
5.28927e-18
4.08237e-18
2.11965e-18
9.60582e-19
4.46638e-19
2.27505e-19
1.60099e-19
8.10461e-20
3.33015e-20
1.23156e-20
4.15458e-21
1.26205e-21
3.43261e-22
8.38812e-23
1.85563e-23
3.74762e-24
6.96392e-25
1.19883e-25
1.92318e-26
2.88945e-27
4.08331e-28
5.44795e-29
6.88487e-30
8.26525e-31
9.4501e-32
1.03145e-32
1.07699e-33
1.07789e-34
1.03587e-35
9.57465e-37
8.52507e-38
7.32236e-39
6.07528e-40
4.87516e-41
3.78821e-42
2.85355e-43
2.08593e-44
1.48119e-45
1.02265e-46
6.75258e-48
-1.11603e-24
-1.03955e-20
5.54772e-20
2.08561e-19
-2.80548e-18
1.87698e-18
1.09383e-17
3.22131e-17
1.23936e-17
2.01366e-19
1.58407e-17
1.32832e-17
6.57754e-18
2.80144e-18
1.28171e-18
6.9799e-19
7.27834e-19
3.64992e-19
1.36819e-19
4.67857e-20
1.50642e-20
4.45323e-21
1.18803e-21
2.85572e-22
6.22264e-23
1.23912e-23
2.27253e-24
3.8648e-25
6.13028e-26
9.1138e-27
1.27526e-27
1.68558e-28
2.11114e-29
2.51259e-30
2.84871e-31
3.0838e-32
3.194e-33
3.17119e-34
3.02353e-35
2.77282e-36
2.44966e-37
2.08781e-38
1.71892e-39
1.36882e-40
1.05555e-41
7.89108e-43
5.72507e-44
4.03499e-45
2.76525e-46
1.81681e-47
-2.71996e-22
-1.00539e-18
7.32877e-19
9.92128e-18
-3.38603e-16
-1.7558e-18
2.73732e-16
2.89312e-16
4.39504e-17
-1.63451e-16
3.16891e-17
3.80491e-17
1.74975e-17
6.53298e-18
2.87876e-18
1.80792e-18
3.63944e-18
1.70033e-18
5.50875e-19
1.66943e-19
5.03038e-20
1.44038e-20
3.77104e-21
8.93138e-22
1.92029e-22
3.77671e-23
6.84751e-24
1.15233e-24
1.81019e-25
2.66712e-26
3.70072e-27
4.85242e-28
6.03084e-29
7.12389e-30
8.0174e-31
8.61568e-32
8.85871e-33
8.73158e-34
8.26452e-35
7.52407e-36
6.59874e-37
5.58295e-38
4.56294e-39
3.60706e-40
2.76126e-41
2.04925e-42
1.47596e-43
1.03273e-44
7.02657e-46
4.59383e-47
-8.63121e-21
-9.5231e-17
5.43575e-15
5.24116e-16
-1.28304e-14
4.53652e-13
7.84479e-14
2.7255e-15
-3.76428e-14
-2.61525e-15
6.42081e-17
1.06403e-16
3.92792e-17
9.94245e-18
3.84001e-18
3.65738e-18
1.96361e-17
7.93246e-18
2.11909e-18
5.4422e-19
1.50674e-19
4.18583e-20
1.08194e-20
2.53748e-21
5.40308e-22
1.05258e-22
1.89139e-23
3.15678e-24
4.92162e-25
7.20087e-26
9.92557e-27
1.29318e-27
1.59721e-28
1.87497e-29
2.09694e-30
2.23917e-31
2.28754e-32
2.24e-33
2.10613e-34
1.90455e-35
1.65897e-36
1.39395e-37
1.13139e-38
8.88148e-40
6.75138e-41
4.97538e-42
3.55838e-43
2.47235e-44
1.67039e-45
1.08675e-46
-4.33451e-16
1.61704e-14
1.82937e-13
-3.66904e-12
2.54335e-11
5.09036e-12
3.89503e-13
-1.5978e-12
-3.07499e-13
4.91813e-15
2.2381e-15
3.54007e-16
6.81981e-17
-1.40598e-18
-2.90799e-18
5.02542e-18
1.09115e-16
3.43367e-17
7.24977e-18
1.50035e-18
3.79821e-19
1.0509e-19
2.74161e-20
6.45062e-21
1.37063e-21
2.65799e-22
4.75137e-23
7.88986e-24
1.2242e-24
1.783e-25
2.44675e-26
3.17354e-27
3.90154e-28
4.55794e-29
5.07174e-30
5.38693e-31
5.47268e-32
5.32791e-33
4.97945e-34
4.47504e-35
3.87332e-36
3.23355e-37
2.60726e-38
2.03312e-39
1.53514e-40
1.12367e-41
7.98199e-43
5.50819e-44
3.69618e-45
2.39314e-46
-5.4089e-14
1.92427e-12
-6.144e-11
-2.87876e-11
2.29153e-10
-3.36554e-09
-3.23087e-09
-5.73581e-10
1.78921e-12
1.20307e-12
2.14995e-13
2.88906e-16
1.85286e-17
-5.18832e-17
-3.07895e-17
1.70788e-15
6.46378e-16
1.18333e-16
1.86997e-17
2.71554e-18
6.62e-19
2.08468e-19
5.9015e-20
1.43809e-20
3.0947e-21
6.0228e-22
1.07683e-22
1.78645e-23
2.76812e-24
4.02507e-25
5.51249e-26
7.13269e-27
8.74347e-28
1.01797e-28
1.12832e-29
1.19323e-30
1.20647e-31
1.16854e-32
1.08619e-33
9.70606e-35
8.3513e-36
6.92939e-37
5.55239e-38
4.30218e-39
3.22747e-40
2.34701e-41
1.65624e-42
1.13539e-43
7.56836e-45
4.87691e-46
1.16688e-10
-2.26195e-09
-2.22172e-09
4.21309e-08
-1.68214e-07
-1.82459e-07
-6.12682e-08
-3.41487e-09
3.41938e-10
1.80868e-10
2.68772e-11
3.48867e-11
4.59173e-12
5.71721e-14
4.53174e-13
5.54076e-14
2.68338e-15
1.63579e-16
2.05695e-17
-2.05277e-18
-6.10941e-20
2.41521e-19
1.00794e-19
2.74795e-20
6.14758e-21
1.21464e-21
2.18682e-22
3.64215e-23
5.65764e-24
8.2389e-25
1.12897e-25
1.46024e-26
1.78774e-27
2.07702e-28
2.29559e-29
2.41913e-30
2.43597e-31
2.34863e-32
2.17227e-33
1.93082e-34
1.65205e-35
1.36281e-36
1.08546e-37
8.35902e-39
6.23177e-40
4.50306e-41
3.15742e-42
2.15054e-43
1.42426e-44
9.13434e-46
5.93172e-09
-1.3537e-07
2.88173e-06
5.06847e-07
-1.09248e-06
-6.88373e-07
-1.67244e-07
5.27097e-08
5.70706e-08
2.43279e-08
2.68317e-09
8.51804e-09
1.28519e-09
1.19303e-10
6.30162e-12
1.54129e-13
3.67956e-15
5.61551e-17
-2.25265e-17
-4.57401e-17
-6.20793e-18
-2.17278e-19
1.22354e-19
4.4745e-20
1.07488e-20
2.17772e-21
3.96891e-22
6.66246e-23
1.0409e-23
1.5221e-24
2.09127e-25
2.70829e-26
3.31557e-27
3.84758e-28
4.24334e-29
4.45842e-30
4.47306e-31
4.29448e-32
3.9534e-33
3.4962e-34
2.97538e-35
2.44069e-36
1.9327e-37
1.47947e-38
1.09626e-39
7.87262e-41
5.48558e-42
3.71273e-43
2.44327e-44
1.55962e-45
-3.39621e-06
1.41005e-05
7.12105e-05
-0.000845732
-1.63127e-05
0.00575714
0.0224752
0.0460152
0.0488033
0.0291272
0.00844026
0.000400599
1.14819e-08
6.61042e-10
1.70471e-11
2.24072e-13
1.50931e-15
2.33763e-16
-2.09475e-16
-3.34615e-16
-2.71784e-17
-1.54367e-18
1.22717e-19
6.82221e-20
1.71796e-20
3.52317e-21
6.47031e-22
1.09399e-22
1.72031e-23
2.52863e-24
3.48653e-25
4.52387e-26
5.54058e-27
6.424e-28
7.07093e-29
7.40821e-30
7.40603e-31
7.08087e-32
6.4884e-33
5.7094e-34
4.83318e-35
3.94272e-36
3.10424e-37
2.36234e-38
1.73997e-39
1.24194e-40
8.60051e-42
5.78488e-43
3.78316e-44
2.40361e-45
-0.000328385
0.0011676
-0.00226077
-0.00856222
0.0302773
0.113675
0.217029
0.310161
0.315607
0.217259
0.0908368
0.0166604
4.25398e-05
1.17885e-09
2.848e-11
2.00314e-13
4.10655e-14
1.30502e-15
-3.77916e-14
-2.29302e-15
-1.05326e-17
3.37002e-19
4.52947e-19
1.26007e-19
2.72203e-20
5.29475e-21
9.57107e-22
1.61587e-22
2.54894e-23
3.76034e-24
5.19864e-25
6.75373e-26
8.27029e-27
9.57575e-28
1.05149e-28
1.09813e-29
1.09358e-30
1.041e-31
9.49343e-33
8.31104e-34
6.99786e-35
5.67684e-36
4.44401e-37
3.36213e-38
2.46163e-39
1.74645e-40
1.20207e-41
8.03582e-43
5.22284e-44
3.30274e-45
-0.00118351
0.00439308
-0.0151127
-0.00372466
0.147498
0.39171
0.60594
0.758126
0.774783
0.582371
0.283672
0.0724326
0.00292034
3.49158e-09
4.18445e-11
4.37295e-12
2.10358e-13
-3.0782e-12
-2.51494e-13
1.2354e-15
1.18854e-16
1.29768e-17
1.70737e-18
2.53054e-19
4.17829e-20
7.30267e-21
1.27277e-21
2.12856e-22
3.35535e-23
4.95578e-24
6.85606e-25
8.90325e-26
1.08856e-26
1.25722e-27
1.37596e-28
1.43132e-29
1.41909e-30
1.34438e-31
1.21975e-32
1.06213e-33
8.89371e-35
7.17389e-36
5.58346e-37
4.19936e-38
3.05633e-39
2.15534e-40
1.47454e-41
9.79728e-43
6.3288e-44
3.98328e-45
0.0104354
-0.00619808
-0.0296778
0.0567475
0.317809
0.666016
0.897111
1.03113
1.09038
0.904306
0.498902
0.153126
0.0120688
7.83199e-09
3.51851e-10
1.8208e-11
-1.78701e-10
-1.8099e-11
7.26246e-14
8.07852e-15
5.65231e-17
9.92404e-18
1.66559e-18
2.64018e-19
4.4831e-20
8.015e-21
1.42258e-21
2.40835e-22
3.8227e-23
5.66276e-24
7.83583e-25
1.01589e-25
1.23849e-26
1.425e-27
1.5528e-28
1.60757e-29
1.58573e-30
1.49426e-31
1.3483e-32
1.16747e-33
9.71984e-35
7.79475e-36
6.03106e-37
4.50913e-38
3.26221e-39
2.28673e-40
1.555e-41
1.02695e-42
6.59362e-44
4.13036e-45
0.018688
-0.00937235
-0.0467983
0.0813991
0.426905
0.797317
0.972103
1.02987
1.08999
0.969906
0.58439
0.200092
0.0213133
1.10714e-08
1.16783e-09
-1.04354e-08
-1.31197e-09
2.67807e-12
6.95207e-13
9.94039e-15
-6.18162e-17
-8.91369e-18
-7.13201e-19
1.24406e-20
2.05519e-20
5.77816e-21
1.21836e-21
2.21425e-22
3.61905e-23
5.4204e-24
7.51966e-25
9.73411e-26
1.18247e-26
1.35427e-27
1.46808e-28
1.51153e-29
1.48256e-30
1.389e-31
1.24603e-32
1.07259e-33
8.87723e-35
7.0769e-36
5.44312e-37
4.04534e-38
2.90922e-39
2.02711e-40
1.37021e-41
8.99489e-43
5.74068e-44
3.57911e-45
0.0138913
0.000459811
-0.0507665
0.0347969
0.383296
0.770438
0.946764
0.994921
1.02473
0.894595
0.538404
0.18756
0.0212415
-1.11742e-07
-5.79092e-07
-1.3896e-07
-2.38486e-09
2.07832e-11
2.78578e-12
-2.22079e-15
-3.8685e-16
-3.54721e-17
-3.005e-18
-2.04696e-19
-2.92517e-21
2.89124e-21
8.24538e-22
1.64183e-22
2.77384e-23
4.19982e-24
5.83348e-25
7.52773e-26
9.09788e-27
1.03576e-27
1.11576e-28
1.14147e-29
1.11249e-30
1.03574e-31
9.23366e-33
7.89965e-34
6.4984e-35
5.14931e-36
3.93685e-37
2.90847e-38
2.07924e-39
1.44024e-40
9.6779e-42
6.31587e-43
4.00728e-44
2.48683e-45
0.00154708
0.00908208
-0.0271881
-0.0296867
0.164747
0.499544
0.786551
0.943534
0.93177
0.741556
0.410353
0.132591
0.0129181
-7.01295e-06
-4.02411e-06
-4.42019e-07
4.07191e-10
1.11672e-10
3.093e-12
-7.93896e-15
-1.13717e-15
-5.67651e-17
-3.51839e-18
-1.86387e-19
-1.82763e-21
2.10275e-21
5.56646e-22
1.06289e-22
1.74546e-23
2.5864e-24
3.52983e-25
4.4874e-26
5.35323e-27
6.02473e-28
6.42357e-29
6.51068e-30
6.29162e-31
5.81164e-32
5.14315e-33
4.36968e-34
3.5709e-35
2.81165e-36
2.13644e-37
1.56895e-38
1.11508e-39
7.6796e-41
5.13125e-42
3.32999e-43
2.10113e-44
1.29828e-45
-0.00339926
0.00408016
0.0041842
-0.0359655
-0.0232089
0.147663
0.439273
0.630272
0.615102
0.438493
0.209814
0.0554878
0.0031121
-4.09529e-05
-9.50435e-06
-2.60367e-07
6.28477e-10
1.45645e-10
2.13223e-12
-1.0535e-14
-9.74285e-16
-1.27585e-17
7.16145e-19
1.80286e-19
2.62167e-20
3.59698e-21
5.02699e-22
7.08777e-23
9.80669e-24
1.30506e-24
1.6546e-25
1.99269e-26
2.2803e-27
2.48319e-28
2.57823e-29
2.55723e-30
2.42751e-31
2.20931e-32
1.93096e-33
1.62326e-34
1.31446e-35
1.02674e-36
7.74668e-38
5.65278e-39
3.99422e-40
2.73606e-41
1.81896e-42
1.17483e-43
7.37928e-45
4.54489e-46
0.00105028
-0.00284792
0.00577611
0.00423701
-0.0329274
-0.0274745
0.0712631
0.18804
0.207053
0.127809
0.0371903
-0.00403385
-0.00157006
-0.000153993
2.66774e-06
5.33138e-07
2.77865e-09
-9.97601e-11
-7.83246e-12
1.13672e-14
1.45745e-15
5.7029e-17
3.92741e-18
3.23867e-19
3.16345e-20
3.50147e-21
4.11525e-22
4.90084e-23
5.74635e-24
6.53077e-25
7.14613e-26
7.51826e-27
7.61493e-28
7.44198e-29
7.03319e-30
6.43904e-31
5.71744e-32
4.92688e-33
4.12141e-34
3.34693e-35
2.63858e-36
2.01943e-37
1.50063e-38
1.08295e-39
7.59254e-41
5.17383e-42
3.42862e-43
2.21094e-44
1.38825e-45
8.56553e-47
-0.000177926
0.00070437
-0.00241912
0.00363437
0.00465979
-0.0111508
-0.0282728
-0.0303843
-0.0260896
-0.0263163
-0.0182796
-0.00614643
-0.00115756
2.14533e-05
6.24193e-06
2.10128e-07
-5.79621e-10
-1.33473e-10
-1.16676e-12
1.51191e-14
1.04495e-15
3.76069e-18
-4.0884e-19
-4.52701e-20
-2.82264e-22
7.15815e-22
1.61476e-22
2.49481e-23
3.20668e-24
3.65252e-25
3.79757e-26
3.66561e-27
3.32184e-28
2.85014e-29
2.33177e-30
1.83087e-31
1.38841e-32
1.02322e-33
7.37282e-35
5.22317e-36
3.65495e-37
2.53446e-38
1.74435e-39
1.19149e-40
8.06581e-42
5.39947e-43
3.56544e-44
2.3169e-45
1.47863e-46
9.34569e-48
1.86684e-05
-9.31537e-05
0.000402117
-0.000911693
-0.000207187
0.00425435
0.00301989
-0.00935759
-0.0208075
-0.0149637
-0.00320695
0.00104031
0.000564258
9.13214e-05
-1.31622e-06
-2.18354e-07
4.2232e-10
7.43549e-11
4.80756e-14
-8.68236e-15
-3.73106e-16
-1.74806e-17
-2.01776e-18
-2.06848e-19
-1.785e-20
-1.25008e-21
-5.89501e-23
7.28226e-25
6.37255e-25
1.04275e-25
1.27081e-26
1.33843e-27
1.28404e-28
1.15262e-29
9.8456e-31
8.09885e-32
6.47217e-33
5.05681e-34
3.87887e-35
2.9274e-36
2.17495e-37
1.58983e-38
1.14191e-39
8.04727e-41
5.55625e-42
3.75426e-43
2.48031e-44
1.60139e-45
1.01016e-46
6.29268e-48
-3.19059e-06
1.68019e-05
-7.85945e-05
0.000206021
-1.1642e-06
-0.00129665
-0.000194421
0.00654735