/*--------------------------------*- C++ -*----------------------------------*\
| =========                 |                                                 |
| \\      /  F ield         | OpenFOAM: The Open Source CFD Toolbox           |
|  \\    /   O peration     | Version:  v2006                                 |
|   \\  /    A nd           | Website:  www.openfoam.com                      |
|    \\/     M anipulation  |                                                 |
\*---------------------------------------------------------------------------*/
FoamFile
{
    version     2.0;
    format      ascii;
    class       volScalarField;
    location    "0";
    object      shifted_f;
}
// * * * * * * * * * * * * * * * * * * * * * * * * * * * * * * * * * * * * * //

dimensions      [0 0 0 0 0 0 0];


internalField   nonuniform List<scalar> 
2500
(
0.00022088
0.000220858
0.000220846
0.000220858
0.000220809
0.000220835
0.000220869
0.000220809
0.000220839
0.000220846
0.000220846
0.000220824
0.000220768
0.000220809
0.000220846
0.000220787
0.000220802
0.000220843
0.000220839
0.000220831
0.000220858
0.000220809
0.000220813
0.00022082
0.000220813
0.000220843
0.000220876
0.000220846
0.000220805
0.000220872
0.000220869
0.000220861
0.000220861
0.000220854
0.00022085
0.000220835
0.000220869
0.000220858
0.000220794
0.000220779
0.000220798
0.000220831
0.000220824
0.000220839
0.000220809
0.000220846
0.000220787
0.000220805
0.000220794
0.000220813
0.000220824
0.000220846
0.000220846
0.000220783
0.000220783
0.000220802
0.000220869
0.000220809
0.000220798
0.000220783
0.000220817
0.000220831
0.000220858
0.000220887
0.000220872
0.000220794
0.000220757
0.000220787
0.000220753
0.000220779
0.000220027
0.000219956
0.000220019
0.000219997
0.000219978
0.000220016
0.000220045
0.000220042
0.000220027
0.000220019
0.000220012
0.000220012
0.000220023
0.000220057
0.000220038
0.000220001
0.000219997
0.00021999
0.000219997
0.000220034
0.000220019
0.000219963
0.000220012
0.000220012
0.000220072
0.000220019
0.000220023
0.000220008
0.000220094
0.000220012
0.000220027
0.000220072
0.000220064
0.000220053
0.000220072
0.000220042
0.000220019
0.000220042
0.000219975
0.000220012
0.000220004
0.000220027
0.000220034
0.000220001
0.000219975
0.000220008
0.000220012
0.000220042
0.000220023
0.000220042
0.000220045
0.000220057
0.000220042
0.000219978
0.000219986
0.000220034
0.000219986
0.000220008
0.000220031
0.000220001
0.000220019
0.000220001
0.000220012
0.000220019
0.000220049
0.000220034
0.000219978
0.000220001
0.000219982
0.000219952
0.000219993
0.00021999
0.000219967
0.000219975
0.000219937
0.000219975
0.000219975
0.000219982
0.000219967
0.000219945
0.00021996
0.000219967
0.000219967
0.000220001
0.000220012
0.000219956
0.000219997
0.000220012
0.00021999
0.000219997
0.000219978
0.000219937
0.000219997
0.000219986
0.000219978
0.000219956
0.000219956
0.000219956
0.000219945
0.000219919
0.000219952
0.000218563
0.000218626
0.000218585
0.000218596
0.000218619
0.000218689
0.000218648
0.000218686
0.000218671
0.000218648
0.00021866
0.000218652
0.000218619
0.000218626
0.000218648
0.000218574
0.000218593
0.000218626
0.000218622
0.000218604
0.000218574
0.000218641
0.000218645
0.000218634
0.000218686
0.000218641
0.000218637
0.000218641
0.000218663
0.000218615
0.000218589
0.000218663
0.000218652
0.000218675
0.000218634
0.000218671
0.000218607
0.000218622
0.000218697
0.000218712
0.000218648
0.000218619
0.000218637
0.000218611
0.000218619
0.00021863
0.000218641
0.000218626
0.000218607
0.000218596
0.000218652
0.000218604
0.000218585
0.000218552
0.000218593
0.000218574
0.00021863
0.0002186
0.000218604
0.000218641
0.000218581
0.000218596
0.000218626
0.000218604
0.0002186
0.000218611
0.000218604
0.000218634
0.000218641
0.000218648
0.000218671
0.00021863
0.000218626
0.000218648
0.000218675
0.000218622
0.000218671
0.000218626
0.000218596
0.000218548
0.000218637
0.000218596
0.000218585
0.0002186
0.000218604
0.000218652
0.000218589
0.000218567
0.000218555
0.000218548
0.000218581
0.000218555
0.000218567
0.000218552
0.000218537
0.000218567
0.000218578
0.000218593
0.000218559
0.00021854
0.000218578
0.000216808
0.000216734
0.000216786
0.000216763
0.000216715
0.000216719
0.000216749
0.000216771
0.000216693
0.000216775
0.000216756
0.000216756
0.000216719
0.000216756
0.000216749
0.000216756
0.000216682
0.000216715
0.000216737
0.000216782
0.000216763
0.000216775
0.000216763
0.000216801
0.000216786
0.000216719
0.000216722
0.00021676
0.000216749
0.000216767
0.000216678
0.000216734
0.00021673
0.000216693
0.00021676
0.000216737
0.000216715
0.000216726
0.000216763
0.000216749
0.000216708
0.000216745
0.000216722
0.000216708
0.000216734
0.000216745
0.000216696
0.000216804
0.000216737
0.000216689
0.000216722
0.000216763
0.000216726
0.000216745
0.000216726
0.000216749
0.000216734
0.000216775
0.000216786
0.000216719
0.000216648
0.000216696
0.000216704
0.000216685
0.000216704
0.000216704
0.000216678
0.000216722
0.000216689
0.000216711
0.000216696
0.000216734
0.000216715
0.000216693
0.000216659
0.000216626
0.000216689
0.000216708
0.000216682
0.000216659
0.000216719
0.000216682
0.000216719
0.000216667
0.000216719
0.000216752
0.000216655
0.000216667
0.00021667
0.000216704
0.000216663
0.000216663
0.000216667
0.000216637
0.000216618
0.000216629
0.000216633
0.000216682
0.000216659
0.000216659
0.000216693
0.000214357
0.000214368
0.000214316
0.000214387
0.000214364
0.000214338
0.000214309
0.000214387
0.000214349
0.000214335
0.000214372
0.000214357
0.000214346
0.000214357
0.000214372
0.000214394
0.000214323
0.000214297
0.000214331
0.000214353
0.000214431
0.000214387
0.000214431
0.000214417
0.000214383
0.000214372
0.000214379
0.000214428
0.000214364
0.00021439
0.000214327
0.000214349
0.000214409
0.000214361
0.000214335
0.000214342
0.000214349
0.000214305
0.000214335
0.000214357
0.000214305
0.000214346
0.000214383
0.000214327
0.000214364
0.000214342
0.000214357
0.000214379
0.000214424
0.000214335
0.000214394
0.000214331
0.000214398
0.000214353
0.000214342
0.000214364
0.000214357
0.000214349
0.000214361
0.000214323
0.000214327
0.000214428
0.000214409
0.000214398
0.000214372
0.000214413
0.000214361
0.000214409
0.00021439
0.000214372
0.000214402
0.000214349
0.000214353
0.000214361
0.000214372
0.000214417
0.000214372
0.000214338
0.000214383
0.000214368
0.000214402
0.000214357
0.000214409
0.000214364
0.000214353
0.000214387
0.000214368
0.000214305
0.000214346
0.000214312
0.000214316
0.000214353
0.00021432
0.000214349
0.00021429
0.000214327
0.000214327
0.000214368
0.000214309
0.000214327
0.00021432
0.000211615
0.000211686
0.000211637
0.000211567
0.0002116
0.00021163
0.000211675
0.000211682
0.000211675
0.000211623
0.000211608
0.000211667
0.000211637
0.000211637
0.000211533
0.000211596
0.000211641
0.000211615
0.00021163
0.000211619
0.000211645
0.00021166
0.000211585
0.000211619
0.000211652
0.00021163
0.000211641
0.000211649
0.000211626
0.0002116
0.000211593
0.00021166
0.000211615
0.000211611
0.000211652
0.000211637
0.000211675
0.000211626
0.000211585
0.0002116
0.000211589
0.000211615
0.00021163
0.000211529
0.00021163
0.000211608
0.000211615
0.000211615
0.000211626
0.000211623
0.000211556
0.000211567
0.000211623
0.000211619
0.000211537
0.0002116
0.000211544
0.000211593
0.000211608
0.000211623
0.000211667
0.000211533
0.000211529
0.000211574
0.000211589
0.000211548
0.000211544
0.000211574
0.000211578
0.000211593
0.000211526
0.000211552
0.000211559
0.000211503
0.0002115
0.000211541
0.000211563
0.000211544
0.000211563
0.000211533
0.00021157
0.000211485
0.000211563
0.000211567
0.000211559
0.000211578
0.000211529
0.000211507
0.000211485
0.000211488
0.000211515
0.000211529
0.000211503
0.000211474
0.000211511
0.000211459
0.000211492
0.000211444
0.00021147
0.000211507
0.000211421
0.000208426
0.000208464
0.000208471
0.000208449
0.000208486
0.00020843
0.000208445
0.00020849
0.000208467
0.000208467
0.000208445
0.000208478
0.000208449
0.000208493
0.000208441
0.000208404
0.000208423
0.00020846
0.000208486
0.000208441
0.000208441
0.000208445
0.000208475
0.000208437
0.000208434
0.000208415
0.000208441
0.000208471
0.000208486
0.000208411
0.000208452
0.000208441
0.000208441
0.000208441
0.000208464
0.000208389
0.000208434
0.000208452
0.000208464
0.000208423
0.000208389
0.000208389
0.000208471
0.000208456
0.000208389
0.00020843
0.000208396
0.00020846
0.000208426
0.000208441
0.000208426
0.00020843
0.000208419
0.000208452
0.000208411
0.00020846
0.000208445
0.00020846
0.000208415
0.000208449
0.000208411
0.000208337
0.00020843
0.000208411
0.000208396
0.000208367
0.000208382
0.000208423
0.000208393
0.000208382
0.00020837
0.000208411
0.000208393
0.000208344
0.000208434
0.000208367
0.000208337
0.000208426
0.000208352
0.000208363
0.000208337
0.000208315
0.000208411
0.000208437
0.000208437
0.000208423
0.000208367
0.000208434
0.000208367
0.000208396
0.000208419
0.000208333
0.000208441
0.0002084
0.000208367
0.000208411
0.000208382
0.000208363
0.00020837
0.000208337
0.000208326
0.000205219
0.000205163
0.0002052
0.000205174
0.000205152
0.000205152
0.000205196
0.000205196
0.000205174
0.000205122
0.000205133
0.000205189
0.00020517
0.000205137
0.00020517
0.000205178
0.000205129
0.000205114
0.000205182
0.000205163
0.000205126
0.000205133
0.000205114
0.000205111
0.000205159
0.000205122
0.000205129
0.000205137
0.00020517
0.000205189
0.000205163
0.000205129
0.000205114
0.000205167
0.000205122
0.000205129
0.000205144
0.000205163
0.000205159
0.000205096
0.000205148
0.000205103
0.00020517
0.000205129
0.000205167
0.000205126
0.0002051
0.000205155
0.000205133
0.000205092
0.0002051
0.000205137
0.000205096
0.000205114
0.000205088
0.000205126
0.000205137
0.000205111
0.000205118
0.000205148
0.000205126
0.000205163
0.000205148
0.000205047
0.0002051
0.000205118
0.000205074
0.000205118
0.000205141
0.000205092
0.000205088
0.000205114
0.000205074
0.000205096
0.0002051
0.000205085
0.000205092
0.000205129
0.000205103
0.000205044
0.000205103
0.000205103
0.00020517
0.000205126
0.0002051
0.000205122
0.000205155
0.000205141
0.000205107
0.000205081
0.000205092
0.000205107
0.000205085
0.000205096
0.000205062
0.000205096
0.000205081
0.000205088
0.000205066
0.000205088
0.000205126
0.000201847
0.000201825
0.000201836
0.000201844
0.000201873
0.000201833
0.000201847
0.0002019
0.000201851
0.000201844
0.000201862
0.000201825
0.000201855
0.000201881
0.000201825
0.000201844
0.000201795
0.000201814
0.000201821
0.000201829
0.000201836
0.000201825
0.000201862
0.000201833
0.000201836
0.00020181
0.000201851
0.000201851
0.000201821
0.000201885
0.000201814
0.000201859
0.000201825
0.000201833
0.000201855
0.000201803
0.000201788
0.000201833
0.000201784
0.000201814
0.000201833
0.000201795
0.000201818
0.000201795
0.000201844
0.000201821
0.00020181
0.000201799
0.000201825
0.000201818
0.000201859
0.000201814
0.000201844
0.000201821
0.00020178
0.000201769
0.000201743
0.000201803
0.00020184
0.000201829
0.000201803
0.00020184
0.000201825
0.00020184
0.000201792
0.000201777
0.000201799
0.000201795
0.000201747
0.000201765
0.000201784
0.000201788
0.000201784
0.000201773
0.000201788
0.000201818
0.000201758
0.000201751
0.000201736
0.000201739
0.000201769
0.000201721
0.000201698
0.000201773
0.000201736
0.000201724
0.000201728
0.000201683
0.000201728
0.000201758
0.000201691
0.000201706
0.000201743
0.000201751
0.000201698
0.000201739
0.000201669
0.000201706
0.000201695
0.000201736
0.000201687
0.000198532
0.000198577
0.000198577
0.000198618
0.000198539
0.000198543
0.000198551
0.000198532
0.000198565
0.000198647
0.000198506
0.000198606
0.000198532
0.000198632
0.000198599
0.000198551
0.000198543
0.000198606
0.000198606
0.000198554
0.000198532
0.000198629
0.000198606
0.000198647
0.000198621
0.000198573
0.000198558
0.000198569
0.000198543
0.000198621
0.000198592
0.000198532
0.000198547
0.000198524
0.000198536
0.000198584
0.000198577
0.000198606
0.000198524
0.000198532
0.00019851
0.000198513
0.000198554
0.000198528
0.000198528
0.000198551
0.000198551
0.000198588
0.000198517
0.000198498
0.000198528
0.000198487
0.000198532
0.000198562
0.000198532
0.000198539
0.000198532
0.000198513
0.000198517
0.00019848
0.00019851
0.000198502
0.000198588
0.000198547
0.000198476
0.000198524
0.000198491
0.00019848
0.000198498
0.000198532
0.000198498
0.000198502
0.000198551
0.000198521
0.000198524
0.000198532
0.000198524
0.000198521
0.000198595
0.000198539
0.000198618
0.000198528
0.000198547
0.000198521
0.000198584
0.000198532
0.000198539
0.000198603
0.000198513
0.000198539
0.000198506
0.000198536
0.000198539
0.00019851
0.000198524
0.000198517
0.000198524
0.000198532
0.000198536
0.000198495
0.000198532
0.0001955
0.000195559
0.000195537
0.0001955
0.000195537
0.0001955
0.000195511
0.00019557
0.00019554
0.000195537
0.000195589
0.000195522
0.0001956
0.000195552
0.000195626
0.000195581
0.000195604
0.000195578
0.000195578
0.0001956
0.000195567
0.0001956
0.000195593
0.000195533
0.000195537
0.000195608
0.000195548
0.0001956
0.000195585
0.000195596
0.000195552
0.000195567
0.000195526
0.000195585
0.000195611
0.000195559
0.000195537
0.000195544
0.000195611
0.000195559
0.000195596
0.000195581
0.000195563
0.000195548
0.000195619
0.000195608
0.000195589
0.000195593
0.000195559
0.000195548
0.000195514
0.000195526
0.000195574
0.000195581
0.000195522
0.000195567
0.000195552
0.000195589
0.000195596
0.000195589
0.000195585
0.000195555
0.000195574
0.000195503
0.000195596
0.000195544
0.000195537
0.000195555
0.000195481
0.000195518
0.000195511
0.000195548
0.00019554
0.000195529
0.000195503
0.000195466
0.0001955
0.000195537
0.0001955
0.000195529
0.00019554
0.000195589
0.000195563
0.000195555
0.000195466
0.000195473
0.000195514
0.000195477
0.000195518
0.000195488
0.000195418
0.000195514
0.000195492
0.00019547
0.000195485
0.0001955
0.000195492
0.0001955
0.000195451
0.000195473
0.000195526
0.000192851
0.000192888
0.000192918
0.00019294
0.000192963
0.000192892
0.000192903
0.000192981
0.000192992
0.000192974
0.000192925
0.000192959
0.000192948
0.00019297
0.000192892
0.000192951
0.000192896
0.000192955
0.000192951
0.000192929
0.000192873
0.000192955
0.000192963
0.000192955
0.000192907
0.000192903
0.000192892
0.000192888
0.000192925
0.00019294
0.000192896
0.000192896
0.000192914
0.00019294
0.000192922
0.000193
0.000192963
0.000192899
0.000192929
0.000192855
0.000192918
0.000192884
0.000192884
0.000192884
0.000192937
0.00019291
0.000192903
0.000192944
0.000192877
0.000192933
0.00019294
0.000192888
0.00019291
0.000192951
0.000192896
0.000192914
0.000192918
0.000192866
0.000192907
0.000192892
0.000192922
0.000192951
0.000192896
0.000192929
0.000192933
0.000192903
0.000192922
0.00019291
0.000192869
0.000192914
0.000192858
0.000192907
0.000192918
0.000192959
0.000192963
0.000192933
0.000192944
0.000192914
0.000192955
0.000192899
0.000192966
0.00019294
0.00019294
0.000192922
0.000192951
0.000192914
0.000192877
0.000192907
0.000192989
0.000192918
0.000192929
0.000192918
0.000192899
0.000192862
0.000192858
0.00019291
0.000192851
0.000192862
0.000192899
0.000192884
0.000192869
0.000190776
0.000190713
0.000190731
0.00019075
0.000190686
0.000190709
0.000190716
0.00019072
0.000190705
0.000190735
0.000190746
0.000190772
0.000190731
0.000190772
0.000190731
0.000190727
0.00019072
0.000190664
0.000190739
0.000190746
0.000190716
0.000190727
0.000190672
0.000190686
0.000190705
0.000190724
0.000190724
0.000190709
0.000190653
0.000190783
0.00019075
0.000190672
0.000190705
0.00019078
0.000190783
0.000190783
0.000190742
0.000190813
0.00019078
0.000190787
0.000190806
0.000190735
0.000190806
0.000190824
0.00019075
0.000190776
0.00019078
0.000190746
0.000190701
0.000190757
0.000190731
0.000190794
0.000190794
0.000190776
0.000190776
0.000190776
0.000190768
0.000190757
0.00019072
0.000190724
0.000190716
0.000190709
0.000190716
0.000190716
0.000190731
0.000190742
0.000190716
0.000190768
0.000190724
0.000190757
0.000190776
0.000190668
0.000190746
0.00019069
0.000190739
0.000190724
0.00019069
0.000190731
0.000190694
0.000190713
0.000190649
0.000190701
0.000190675
0.000190731
0.000190765
0.000190772
0.000190765
0.000190753
0.000190727
0.000190761
0.000190772
0.000190735
0.000190746
0.000190791
0.000190757
0.00019075
0.000190768
0.000190768
0.000190757
0.000190783
0.000190757
0.000189107
0.00018907
0.000189029
0.00018904
0.000189036
0.000189044
0.000189025
0.000189062
0.000189088
0.000189129
0.000189092
0.000189107
0.000189111
0.000189081
0.000189088
0.000189137
0.000189103
0.000189066
0.000189085
0.00018907
0.00018904
0.000189073
0.000189066
0.000189122
0.000189122
0.000189055
0.000189107
0.000189085
0.000189081
0.000189066
0.000189103
0.00018907
0.000189096
0.000189058
0.000189096
0.000189062
0.000189103
0.000189055
0.000189025
0.000189096
0.00018907
0.000189073
0.00018914
0.000189189
0.000189148
0.000189137
0.000189167
0.000189126
0.000189148
0.00018914
0.000189103
0.000189111
0.000189148
0.000189122
0.000189122
0.000189107
0.000189103
0.000189193
0.000189137
0.000189167
0.000189096
0.000189118
0.000189099
0.000189047
0.000189137
0.000189062
0.000189103
0.000189032
0.000189077
0.000189066
0.000189092
0.000189107
0.000189114
0.000189092
0.000189111
0.000189058
0.000189088
0.000189096
0.000189133
0.00018914
0.000189204
0.000189122
0.000189111
0.000189144
0.000189081
0.00018914
0.000189152
0.000189092
0.000189096
0.000189118
0.000189107
0.000189167
0.000189155
0.000189122
0.000189148
0.000189088
0.000189129
0.000189099
0.000189118
0.000189137
0.000189129
0.000188053
0.000188001
0.000188056
0.000188041
0.000188027
0.000188027
0.000188071
0.000188023
0.000187997
0.000187971
0.000188027
0.000188027
0.000188038
0.000188094
0.000188082
0.000188101
0.000188064
0.000188097
0.000188034
0.000188082
0.000188071
0.000188123
0.000188079
0.00018806
0.000188079
0.000188086
0.000188101
0.00018809
0.000188064
0.000188034
0.000188045
0.000188038
0.000188123
0.000188041
0.000188012
0.000188079
0.000188101
0.000188105
0.000188168
0.000188164
0.000188179
0.000188116
0.000188112
0.000188164
0.000188049
0.00018809
0.00018812
0.000188157
0.000188094
0.000188194
0.000188161
0.000188116
0.000188086
0.000188157
0.000188082
0.000188075
0.000188112
0.000188097
0.000188116
0.000188079
0.000188109
0.000188157
0.000188153
0.000188138
0.000188179
0.000188131
0.000188071
0.00018819
0.000188146
0.000188123
0.000188153
0.000188101
0.000188135
0.000188127
0.000188131
0.000188123
0.000188116
0.000188082
0.000188123
0.000188131
0.000188138
0.000188082
0.000188094
0.000188094
0.000188045
0.00018806
0.000188079
0.00018812
0.000188123
0.00018815
0.000188135
0.000188146
0.000188179
0.000188161
0.00018815
0.000188131
0.000188097
0.000188079
0.00018806
0.000188138
0.00018815
0.000187736
0.000187688
0.000187658
0.000187691
0.000187691
0.000187736
0.000187773
0.000187762
0.000187747
0.000187758
0.000187721
0.000187661
0.000187781
0.00018771
0.000187747
0.000187725
0.00018771
0.000187658
0.00018774
0.000187647
0.000187706
0.000187736
0.000187695
0.000187751
0.000187714
0.000187706
0.000187796
0.000187758
0.000187714
0.000187695
0.00018771
0.000187706
0.000187729
0.000187714
0.000187661
0.000187717
0.000187758
0.000187758
0.000187766
0.000187758
0.000187747
0.000187773
0.000187784
0.000187743
0.000187736
0.000187695
0.000187762
0.000187729
0.000187721
0.000187788
0.000187781
0.00018777
0.000187706
0.000187676
0.000187751
0.000187811
0.000187818
0.000187714
0.000187855
0.000187833
0.000187781
0.000187792
0.000187848
0.000187751
0.000187736
0.000187796
0.000187781
0.000187729
0.000187751
0.00018784
0.000187755
0.000187766
0.00018784
0.000187814
0.000187717
0.000187833
0.000187799
0.000187825
0.000187833
0.000187803
0.000187781
0.000187796
0.000187833
0.000187803
0.000187796
0.000187833
0.000187788
0.000187788
0.000187792
0.000187792
0.000187796
0.000187762
0.00018774
0.000187866
0.000187792
0.000187844
0.000187833
0.000187851
0.000187822
0.000187848
0.000187855
0.000188086
0.000188127
0.000188161
0.000188097
0.000188153
0.000188086
0.000188056
0.000188101
0.000188086
0.000188131
0.000188112
0.000188123
0.000188127
0.000188146
0.000188153
0.000188109
0.000188082
0.00018812
0.000188172
0.000188168
0.00018815
0.000188101
0.000188168
0.000188157
0.000188161
0.000188071
0.000188135
0.000188176
0.000188075
0.00018809
0.000188123
0.000188213
0.000188172
0.00018819
0.000188202
0.000188123
0.000188138
0.000188135
0.000188168
0.000188135
0.000188183
0.000188146
0.00018822
0.000188246
0.00018815
0.000188183
0.000188161
0.000188187
0.000188146
0.00018819
0.000188183
0.000188198
0.000188228
0.000188179
0.000188153
0.000188194
0.000188213
0.000188231
0.000188239
0.000188187
0.000188213
0.000188183
0.000188198
0.000188202
0.00018819
0.000188146
0.000188161
0.000188086
0.000188202
0.00018825
0.000188246
0.000188243
0.000188153
0.000188172
0.000188194
0.000188213
0.000188213
0.000188231
0.000188172
0.00018819
0.00018815
0.00018819
0.000188258
0.000188213
0.000188231
0.000188224
0.00018825
0.000188276
0.000188198
0.000188224
0.000188246
0.00018822
0.000188161
0.000188209
0.000188183
0.000188235
0.000188265
0.000188261
0.000188258
0.000188295
0.000188235
0.000189349
0.00018936
0.000189349
0.00018933
0.000189319
0.000189323
0.000189327
0.000189375
0.000189338
0.000189379
0.000189338
0.000189368
0.000189345
0.000189316
0.00018933
0.000189345
0.000189368
0.000189368
0.000189289
0.000189316
0.000189349
0.000189357
0.000189338
0.00018936
0.000189435
0.00018939
0.000189386
0.000189438
0.000189386
0.00018936
0.000189397
0.000189353
0.000189342
0.00018939
0.000189394
0.000189371
0.000189401
0.000189386
0.000189412
0.00018939
0.000189383
0.00018936
0.000189446
0.000189453
0.000189409
0.000189465
0.000189472
0.00018945
0.000189424
0.000189345
0.000189401
0.000189412
0.000189446
0.000189472
0.000189442
0.000189409
0.00018939
0.000189465
0.000189353
0.000189412
0.00018945
0.000189476
0.000189498
0.000189479
0.000189517
0.000189479
0.000189498
0.000189401
0.000189427
0.000189427
0.000189468
0.000189498
0.000189494
0.000189532
0.000189502
0.000189506
0.000189509
0.000189498
0.000189479
0.00018945
0.000189494
0.000189472
0.000189494
0.000189509
0.000189513
0.000189546
0.000189494
0.000189509
0.000189491
0.000189427
0.000189539
0.00018952
0.000189479
0.000189498
0.000189532
0.00018955
0.000189517
0.000189569
0.000189494
0.000189524
0.000189472
0.000191506
0.000191472
0.000191502
0.000191484
0.000191487
0.000191491
0.000191521
0.000191536
0.000191521
0.000191502
0.000191566
0.000191428
0.000191543
0.000191521
0.000191554
0.000191528
0.000191525
0.000191532
0.000191461
0.000191543
0.000191566
0.000191581
0.000191517
0.000191528
0.000191543
0.000191581
0.000191621
0.000191588
0.000191577
0.000191554
0.000191607
0.000191577
0.000191655
0.000191644
0.000191543
0.000191528
0.000191558
0.000191603
0.000191551
0.000191562
0.000191581
0.000191614
0.000191554
0.000191595
0.000191599
0.000191651
0.000191595
0.000191588
0.000191618
0.000191595
0.000191618
0.000191558
0.00019164
0.000191662
0.000191633
0.000191607
0.00019161
0.000191644
0.000191644
0.0001917
0.000191659
0.000191666
0.000191584
0.00019164
0.000191659
0.000191707
0.000191569
0.000191685
0.000191659
0.000191677
0.000191681
0.0001917
0.000191636
0.00019161
0.000191711
0.000191715
0.000191685
0.000191696
0.000191629
0.000191677
0.00019164
0.000191774
0.000191655
0.000191756
0.000191677
0.000191685
0.000191726
0.000191752
0.000191752
0.000191759
0.000191692
0.000191737
0.000191767
0.000191744
0.00019167
0.000191726
0.000191726
0.000191748
0.000191759
0.00019177
0.00019177
0.000194691
0.000194665
0.000194687
0.000194687
0.000194643
0.000194702
0.000194728
0.000194672
0.000194691
0.000194695
0.000194725
0.000194713
0.000194732
0.000194732
0.000194684
0.000194684
0.000194643
0.000194676
0.000194695
0.000194762
0.00019474
0.000194725
0.000194773
0.000194695
0.000194777
0.000194713
0.000194777
0.000194725
0.000194762
0.000194754
0.000194728
0.000194766
0.000194702
0.000194717
0.000194747
0.000194781
0.000194784
0.000194754
0.000194758
0.000194836
0.000194825
0.00019474
0.000194736
0.000194799
0.000194822
0.000194784
0.000194788
0.000194792
0.000194725
0.00019481
0.000194825
0.000194833
0.000194833
0.000194777
0.000194792
0.000194866
0.000194807
0.000194825
0.000194822
0.000194829
0.000194822
0.000194911
0.000194795
0.000194818
0.000194859
0.000194911
0.000194877
0.000194903
0.000194848
0.000194844
0.000194911
0.000194911
0.000194889
0.000194855
0.000194862
0.000194848
0.0001949
0.000194956
0.000194859
0.000194874
0.000194848
0.000194896
0.000194915
0.000194926
0.000194918
0.000194918
0.000194952
0.000194956
0.000194974
0.00019493
0.000194896
0.000194948
0.000195
0.000194989
0.000194941
0.000194937
0.000195015
0.000194937
0.000194985
0.000194963
0.000194918
0.000198949
0.000198949
0.000199009
0.000199005
0.000198968
0.000198942
0.000198964
0.000198964
0.000199009
0.000198994
0.00019899
0.000199009
0.00019896
0.000198931
0.000199024
0.000199027
0.000198994
0.000199057
0.000199039
0.000199039
0.000199005
0.000199117
0.000199076
0.000199042
0.000199031
0.000199035
0.000199027
0.00019912
0.000199065
0.000199128
0.000199065
0.00019905
0.000199139
0.000199102
0.000199106
0.000199091
0.000199128
0.000199061
0.00019908
0.000199109
0.000199117
0.000199106
0.00019912
0.000199091
0.000199154
0.000199091
0.000199124
0.000199158
0.00019912
0.000199135
0.000199139
0.000199169
0.000199214
0.000199206
0.000199113
0.00019924
0.000199225
0.000199124
0.000199165
0.000199262
0.000199154
0.000199135
0.000199158
0.000199225
0.000199229
0.000199165
0.000199165
0.000199232
0.000199202
0.00019918
0.000199217
0.000199206
0.000199292
0.000199176
0.000199199
0.000199184
0.000199229
0.000199277
0.000199299
0.000199251
0.00019927
0.000199281
0.000199225
0.000199337
0.000199258
0.000199255
0.000199292
0.000199307
0.000199277
0.000199322
0.000199262
0.000199236
0.000199329
0.000199348
0.00019934
0.000199314
0.000199344
0.000199389
0.000199374
0.000199288
0.000199422
0.000204466
0.000204537
0.000204507
0.000204526
0.000204567
0.000204533
0.000204522
0.000204541
0.000204466
0.000204477
0.000204545
0.000204504
0.000204608
0.000204545
0.000204574
0.000204511
0.000204552
0.000204556
0.000204597
0.000204548
0.000204518
0.000204545
0.000204511
0.000204597
0.000204626
0.000204615
0.000204623
0.000204638
0.000204585
0.000204559
0.000204604
0.000204626
0.000204641
0.000204671
0.000204649
0.000204694
0.000204645
0.000204589
0.000204634
0.000204701
0.000204708
0.000204701
0.000204694
0.0002046
0.000204638
0.000204641
0.000204694
0.000204716
0.000204641
0.000204723
0.000204675
0.000204675
0.000204831
0.000204749
0.000204749
0.000204787
0.000204757
0.000204742
0.000204772
0.00020479
0.000204727
0.000204753
0.000204738
0.000204761
0.000204798
0.000204798
0.000204824
0.000204813
0.00020479
0.000204764
0.000204869
0.000204831
0.000204794
0.000204861
0.00020488
0.000204794
0.000204876
0.000204876
0.00020488
0.000204813
0.00020491
0.000204913
0.000204846
0.00020491
0.000204962
0.000204902
0.000204891
0.000204902
0.000204843
0.000204962
0.000204965
0.000204943
0.000204928
0.000204928
0.000204947
0.00020501
0.000204984
0.000204984
0.000204984
0.000204958
0.000204954
0.000211369
0.000211358
0.000211354
0.000211403
0.000211336
0.000211447
0.000211369
0.000211362
0.000211436
0.000211377
0.000211429
0.000211358
0.000211433
0.000211433
0.000211492
0.00021138
0.000211488
0.000211421
0.000211503
0.000211462
0.000211481
0.000211496
0.000211526
0.000211518
0.000211593
0.000211533
0.000211455
0.000211503
0.0002115
0.000211492
0.000211503
0.000211541
0.000211556
0.000211563
0.0002115
0.000211563
0.000211533
0.00021163
0.000211652
0.000211518
0.000211529
0.000211533
0.000211559
0.000211615
0.000211593
0.000211552
0.000211634
0.000211708
0.000211678
0.000211637
0.000211626
0.000211611
0.000211641
0.000211675
0.000211611
0.000211697
0.000211682
0.00021169
0.00021166
0.000211637
0.000211649
0.000211727
0.000211738
0.000211675
0.000211719
0.000211705
0.000211656
0.00021182
0.000211783
0.000211816
0.000211801
0.000211798
0.000211772
0.000211813
0.000211801
0.000211779
0.000211816
0.000211746
0.00021182
0.000211861
0.000211798
0.000211779
0.000211883
0.000211906
0.000211861
0.000211891
0.000211827
0.000211909
0.000211891
0.000211854
0.000211976
0.000211909
0.000211913
0.000211921
0.000211876
0.000211909
0.000211962
0.000212017
0.000211947
0.000211909
0.000212003
0.000219543
0.000219673
0.000219602
0.000219654
0.000219647
0.000219662
0.000219624
0.000219654
0.000219669
0.000219628
0.000219636
0.000219721
0.000219673
0.000219673
0.000219714
0.000219714
0.000219751
0.000219729
0.000219643
0.000219736
0.000219811
0.000219733
0.000219706
0.000219733
0.000219781
0.000219826
0.000219781
0.000219781
0.000219882
0.000219874
0.000219792
0.000219781
0.000219818
0.000219896
0.000219855
0.000219882
0.000219855
0.000219937
0.000219885
0.00021987
0.000219949
0.000219878
0.000219833
0.000219904
0.000219926
0.000219908
0.000219885
0.000219878
0.0002199
0.000219967
0.00021993
0.000219889
0.000219952
0.000219949
0.00021996
0.000219997
0.000219941
0.000219986
0.000220064
0.000220042
0.000219993
0.000220049
0.000220113
0.000220086
0.000220079
0.000220072
0.000220068
0.000220116
0.000220127
0.000220198
0.000220079
0.000220135
0.000220165
0.000220198
0.000220146
0.000220153
0.000220168
0.000220172
0.000220239
0.000220139
0.000220221
0.000220228
0.000220209
0.000220247
0.000220239
0.000220235
0.000220258
0.000220262
0.00022028
0.000220258
0.000220314
0.00022034
0.000220336
0.000220302
0.000220269
0.000220325
0.000220295
0.000220343
0.000220388
0.000220414
0.000220381
0.000229236
0.000229258
0.000229277
0.000229292
0.000229258
0.000229344
0.000229355
0.000229321
0.000229355
0.000229321
0.000229344
0.000229366
0.000229374
0.000229403
0.000229351
0.000229284
0.000229325
0.000229433
0.000229456
0.000229456
0.000229377
0.000229377
0.000229497
0.000229429
0.0002295
0.000229452
0.000229437
0.000229482
0.000229508
0.000229497
0.000229437
0.000229482
0.000229552
0.00022959
0.000229549
0.000229571
0.000229601
0.000229571
0.000229556
0.000229567
0.000229545
0.000229668
0.000229619
0.000229705
0.000229619
0.000229698
0.000229601
0.000229679
0.000229683
0.000229683
0.000229672
0.000229701
0.000229757
0.000229672
0.000229701
0.000229731
0.000229768