/*--------------------------------*- C++ -*----------------------------------*\
| =========                 |                                                 |
| \\      /  F ield         | OpenFOAM: The Open Source CFD Toolbox           |
|  \\    /   O peration     | Version:  v2006                                 |
|   \\  /    A nd           | Website:  www.openfoam.com                      |
|    \\/     M anipulation  |                                                 |
\*---------------------------------------------------------------------------*/
FoamFile
{
    version     2.0;
    format      ascii;
    class       volScalarField;
    location    "2.9";
    object      p;
}
// * * * * * * * * * * * * * * * * * * * * * * * * * * * * * * * * * * * * * //

dimensions      [1 -1 -2 0 0 0 0];


internalField   nonuniform List<scalar> 
52500
(
32056.9
32056.8
32056.4
32055.9
32055.3
32054.5
32053.5
32052.3
32051
32049.6
32048
32046.2
32044.3
32042.2
32040
32037.7
32035.2
32032.5
32029.8
32026.9
32023.9
32020.8
32017.6
32014.2
32010.8
32007.3
32003.6
31999.9
31996.1
31992.2
31988.3
31984.3
31980.2
31976.1
31971.9
31967.7
31963.5
31959.2
31955
31950.7
31946.4
31942.1
31937.8
31933.6
31929.3
31925.1
31921
31916.9
31912.8
31908.8
31904.9
31901
31897.3
31893.6
31890
31886.5
31883.2
31879.9
31876.8
31873.8
31871
31868.3
31865.8
31863.4
31861.2
31859.2
31857.3
31855.6
31854.2
31852.9
31851.8
31851
31850.3
31849.9
31849.7
31849.7
31849.9
31850.4
31851.2
31852.2
31853.4
31854.9
31856.6
31858.6
31860.9
31863.4
31866.2
31869.2
31872.5
31876.1
31880
31884.1
31888.6
31893.3
31898.2
31903.5
31909
31914.8
31920.8
31927.1
31933.7
31940.6
31947.7
31955.1
31962.7
31970.6
31978.8
31987.2
31995.9
32004.8
32014
32023.4
32033
32042.9
32052.9
32063.3
32073.8
32084.5
32095.5
32106.6
32118
32129.6
32141.3
32153.2
32165.3
32177.6
32190
32202.6
32215.3
32228.2
32241.2
32254.4
32267.7
32281.1
32294.6
32308.3
32322
32335.9
32349.8
32363.8
32377.9
32392.1
32406.4
32420.7
32435
32449.5
32463.9
32478.4
32493
32507.6
32522.2
32536.8
32551.4
32566.1
32580.8
32595.4
32610.1
32624.7
32639.4
32654
32668.6
32683.2
32697.8
32712.4
32726.9
32741.4
32755.8
32770.2
32784.6
32798.9
32813.2
32827.5
32841.7
32855.8
32869.9
32884
32898
32912
32925.9
32939.7
32953.5
32967.3
32980.9
32994.6
33008.2
33021.7
33035.2
33048.6
33062
33075.3
33088.6
33101.9
33115.1
33128.3
33141.5
33154.6
33167.6
33180.7
33193.7
33206.6
33219.6
33232.5
33245.4
33258.3
33271.2
33284.1
33296.9
33309.8
33322.7
33335.5
33348.4
33361.3
33374.2
33387.1
33400
33413
33426
33439
33452.1
33465.2
33478.4
33491.6
33504.9
33518.2
33531.6
33545.1
33558.7
33572.3
33586
33599.9
33613.8
33627.8
33642
33656.2
33670.6
33685.1
33699.8
33714.6
33729.5
33744.6
33759.8
33775.2
33790.8
33806.5
33822.4
33838.6
33854.9
33871.4
33888.1
33905
33922.2
33939.6
33957.2
33975
33993.1
34011.4
34030
34048.8
34067.9
34087.3
34106.9
34126.8
34147
34167.5
34188.3
34209.3
34230.7
34252.4
34274.3
34296.6
34319.2
34342
34365.2
34388.7
34412.5
34436.7
34461.1
34485.9
34511
34536.3
34561.9
34587.8
34614
34640.5
34667.2
34694.2
34721.4
34748.9
34776.6
34804.6
34832.7
34861.1
34889.6
34918.4
34947.4
34976.5
35005.8
35035.1
35064.6
35094.2
35123.8
35153.5
35183.2
35212.9
35242.5
35272.2
35301.8
35331.3
35360.7
35389.9
35419
35447.9
35476.6
35505
35533.1
35561
35588.5
35615.6
35642.4
35668.7
35694.6
35720
35744.8
35769.2
35792.9
35816
35838.5
35860.3
35881.4
35901.8
35921.4
35940.3
35958.3
35975.4
35991.7
36007.2
36021.7
36035.2
36047.8
36059.4
36070.1
36079.7
36088.2
36095.8
36102.3
36107.7
36112
36115.3
36117.5
36118.6
31599.1
31599
31598.7
31598.2
31597.5
31596.7
31595.7
31594.6
31593.3
31591.8
31590.2
31588.4
31586.5
31584.4
31582.2
31579.9
31577.4
31574.7
31572
31569.1
31566.1
31563
31559.7
31556.4
31552.9
31549.4
31545.7
31542
31538.2
31534.3
31530.4
31526.3
31522.3
31518.1
31514
31509.8
31505.5
31501.2
31497
31492.7
31488.4
31484.1
31479.8
31475.5
31471.3
31467
31462.9
31458.7
31454.7
31450.7
31446.7
31442.9
31439.1
31435.4
31431.8
31428.3
31424.9
31421.7
31418.6
31415.6
31412.7
31410
31407.5
31405.1
31402.9
31400.8
31399
31397.3
31395.8
31394.5
31393.4
31392.6
31391.9
31391.5
31391.2
31391.3
31391.5
31392
31392.7
31393.7
31394.9
31396.4
31398.1
31400.1
31402.4
31404.9
31407.7
31410.7
31414
31417.6
31421.5
31425.6
31430
31434.7
31439.6
31444.8
31450.3
31456.1
31462.1
31468.5
31475.1
31481.9
31489
31496.4
31504.1
31512
31520.2
31528.6
31537.3
31546.2
31555.4
31564.8
31574.4
31584.3
31594.4
31604.7
31615.3
31626
31637
31648.2
31659.6
31671.1
31682.9
31694.8
31706.9
31719.2
31731.7
31744.3
31757
31769.9
31783
31796.2
31809.5
31822.9
31836.5
31850.1
31863.9
31877.7
31891.7
31905.7
31919.9
31934.1
31948.3
31962.7
31977.1
31991.5
32006
32020.5
32035.1
32049.7
32064.3
32078.9
32093.6
32108.3
32122.9
32137.6
32152.3
32167
32181.6
32196.3
32210.9
32225.5
32240.1
32254.7
32269.2
32283.7
32298.1
32312.6
32327
32341.3
32355.6
32369.9
32384.1
32398.2
32412.3
32426.4
32440.4
32454.4
32468.3
32482.1
32495.9
32509.7
32523.4
32537
32550.6
32564.1
32577.6
32591.1
32604.5
32617.8
32631.1
32644.3
32657.5
32670.7
32683.8
32696.9
32709.9
32723
32736
32748.9
32761.9
32774.8
32787.7
32800.6
32813.4
32826.3
32839.1
32852
32864.8
32877.7
32890.5
32903.4
32916.3
32929.2
32942.1
32955.1
32968
32981.1
32994.1
33007.2
33020.4
33033.6
33046.8
33060.1
33073.5
33087
33100.5
33114.2
33127.9
33141.7
33155.6
33169.6
33183.8
33198
33212.4
33226.9
33241.5
33256.3
33271.2
33286.2
33301.5
33316.8
33332.4
33348.1
33364
33380.1
33396.4
33412.9
33429.6
33446.6
33463.7
33481.1
33498.6
33516.5
33534.5
33552.9
33571.4
33590.3
33609.3
33628.7
33648.3
33668.2
33688.4
33708.9
33729.7
33750.8
33772.1
33793.8
33815.7
33838
33860.6
33883.4
33906.6
33930.1
33953.9
33978
34002.3
34027
34052
34077.2
34102.8
34128.8
34155
34181.5
34208.2
34235.3
34262.5
34290.1
34317.9
34345.9
34374.1
34402.6
34431.2
34460
34489
34518.1
34547.3
34576.7
34606.2
34635.8
34665.4
34695.2
34724.9
34754.7
34784.4
34814.1
34843.8
34873.3
34902.8
34932.1
34961.2
34990.2
35019
35047.5
35075.7
35103.6
35131.2
35158.5
35185.3
35211.7
35237.7
35263.1
35288.1
35312.5
35336.3
35359.5
35382.1
35404
35425.2
35445.6
35465.3
35484.2
35502.3
35519.6
35536
35551.4
35566
35579.6
35592.3
35604
35614.6
35624.3
35632.9
35640.5
35647
35652.4
35656.8
35660.1
35662.3
35663.5
31141.4
31141.3
31141
31140.5
31139.8
31139
31138
31136.9
31135.5
31134.1
31132.5
31130.7
31128.7
31126.7
31124.4
31122.1
31119.6
31116.9
31114.2
31111.3
31108.2
31105.1
31101.8
31098.5
31095
31091.5
31087.8
31084.1
31080.2
31076.3
31072.3
31068.3
31064.2
31060.1
31055.9
31051.6
31047.4
31043.1
31038.8
31034.4
31030.1
31025.8
31021.5
31017.2
31012.9
31008.7
31004.5
31000.3
30996.2
30992.2
30988.2
30984.3
30980.5
30976.8
30973.2
30969.7
30966.3
30963
30959.8
30956.8
30953.9
30951.2
30948.7
30946.2
30944
30941.9
30940.1
30938.4
30936.8
30935.5
30934.4
30933.5
30932.9
30932.4
30932.2
30932.2
30932.4
30932.9
30933.6
30934.5
30935.7
30937.2
30938.9
30940.9
30943.1
30945.6
30948.4
30951.5
30954.8
30958.4
30962.2
30966.3
30970.7
30975.4
30980.4
30985.6
30991.1
30996.9
31003
31009.3
31015.9
31022.8
31029.9
31037.3
31045
31052.9
31061.1
31069.5
31078.2
31087.1
31096.3
31105.8
31115.4
31125.3
31135.4
31145.8
31156.4
31167.1
31178.1
31189.3
31200.7
31212.3
31224.1
31236
31248.2
31260.5
31273
31285.6
31298.4
31311.3
31324.4
31337.6
31351
31364.4
31378
31391.7
31405.5
31419.4
31433.4
31447.4
31461.6
31475.8
31490.1
31504.5
31518.9
31533.4
31547.9
31562.4
31577
31591.7
31606.3
31621
31635.7
31650.3
31665
31679.7
31694.4
31709.1
31723.8
31738.5
31753.1
31767.8
31782.4
31797
31811.5
31826
31840.5
31854.9
31869.3
31883.7
31898
31912.3
31926.5
31940.6
31954.8
31968.8
31982.8
31996.8
32010.7
32024.6
32038.4
32052.1
32065.8
32079.4
32093
32106.5
32120
32133.4
32146.8
32160.2
32173.5
32186.7
32199.9
32213.1
32226.2
32239.3
32252.3
32265.3
32278.3
32291.2
32304.2
32317.1
32329.9
32342.8
32355.6
32368.5
32381.3
32394.1
32407
32419.8
32432.6
32445.5
32458.3
32471.2
32484.1
32497
32509.9
32522.9
32536
32549
32562.1
32575.3
32588.6
32601.8
32615.2
32628.6
32642.2
32655.7
32669.4
32683.2
32697.1
32711.1
32725.2
32739.4
32753.7
32768.2
32782.8
32797.5
32812.4
32827.4
32842.6
32858
32873.5
32889.2
32905.1
32921.1
32937.4
32953.9
32970.5
32987.4
33004.5
33021.9
33039.4
33057.2
33075.3
33093.6
33112.1
33130.9
33150
33169.4
33189
33208.9
33229.1
33249.5
33270.3
33291.3
33312.7
33334.3
33356.3
33378.6
33401.1
33424
33447.2
33470.7
33494.5
33518.6
33543.1
33567.9
33592.9
33618.3
33644
33669.9
33696
33722.5
33749.3
33776.3
33803.6
33831.2
33859
33887
33915.3
33943.7
33972.4
34001.3
34030.3
34059.5
34088.9
34118.3
34147.9
34177.6
34207.3
34237.1
34266.9
34296.8
34326.6
34356.4
34386.2
34415.8
34445.4
34474.8
34504
34533.1
34562
34590.6
34618.9
34646.9
34674.7
34702
34728.9
34755.5
34781.5
34807.1
34832.2
34856.7
34880.6
34904
34926.6
34948.6
34969.9
34990.5
35010.3
35029.3
35047.5
35064.9
35081.3
35096.9
35111.5
35125.2
35138
35149.7
35160.4
35170.1
35178.8
35186.4
35193
35198.5
35202.9
35206.2
35208.4
35209.6
30683.8
30683.7
30683.4
30682.9
30682.2
30681.4
30680.4
30679.2
30677.9
30676.4
30674.8
30673
30671
30668.9
30666.7
30664.3
30661.8
30659.1
30656.3
30653.4
30650.4
30647.2
30643.9
30640.6
30637.1
30633.5
30629.8
30626
30622.1
30618.2
30614.2
30610.1
30606
30601.8
30597.6
30593.3
30589
30584.7
30580.3
30576
30571.6
30567.3
30562.9
30558.6
30554.3
30550
30545.7
30541.6
30537.4
30533.3
30529.3
30525.4
30521.6
30517.8
30514.1
30510.6
30507.2
30503.8
30500.7
30497.6
30494.7
30491.9
30489.3
30486.9
30484.6
30482.5
30480.6
30478.8
30477.3
30476
30474.8
30473.9
30473.2
30472.7
30472.5
30472.4
30472.6
30473.1
30473.8
30474.7
30475.9
30477.3
30479
30481
30483.2
30485.7
30488.5
30491.5
30494.8
30498.4
30502.2
30506.3
30510.7
30515.4
30520.4
30525.6
30531.1
30536.9
30543
30549.3
30555.9
30562.8
30569.9
30577.3
30585
30593
30601.2
30609.6
30618.3
30627.3
30636.5
30646
30655.7
30665.6
30675.7
30686.1
30696.7
30707.5
30718.6
30729.8
30741.2
30752.8
30764.7
30776.7
30788.8
30801.2
30813.7
30826.4
30839.2
30852.2
30865.3
30878.6
30892
30905.5
30919.1
30932.8
30946.7
30960.6
30974.7
30988.8
31003
31017.3
31031.6
31046
31060.5
31075
31089.6
31104.2
31118.8
31133.5
31148.2
31162.9
31177.6
31192.3
31207.1
31221.8
31236.6
31251.3
31266
31280.7
31295.4
31310.1
31324.7
31339.3
31353.9
31368.4
31382.9
31397.4
31411.8
31426.2
31440.5
31454.8
31469
31483.2
31497.3
31511.4
31525.4
31539.4
31553.3
31567.2
31581
31594.7
31608.4
31622
31635.6
31649.2
31662.6
31676.1
31689.4
31702.8
31716
31729.3
31742.5
31755.6
31768.7
31781.7
31794.8
31807.7
31820.7
31833.6
31846.5
31859.4
31872.2
31885.1
31897.9
31910.7
31923.5
31936.3
31949.1
31961.9
31974.6
31987.5
32000.3
32013.1
32026
32038.8
32051.8
32064.7
32077.7
32090.7
32103.8
32116.9
32130.1
32143.3
32156.7
32170
32183.5
32197.1
32210.7
32224.4
32238.2
32252.2
32266.2
32280.4
32294.7
32309.1
32323.6
32338.3
32353.1
32368.1
32383.3
32398.6
32414.1
32429.7
32445.5
32461.6
32477.8
32494.2
32510.8
32527.7
32544.8
32562.1
32579.6
32597.3
32615.3
32633.6
32652.1
32670.9
32689.9
32709.2
32728.8
32748.7
32768.9
32789.3
32810
32831.1
32852.4
32874.1
32896
32918.3
32940.8
32963.7
32986.9
33010.4
33034.2
33058.3
33082.8
33107.5
33132.5
33157.8
33183.5
33209.4
33235.8
33262.3
33289.2
33316.3
33343.7
33371.3
33399.2
33427.3
33455.6
33484.2
33513
33541.9
33571.1
33600.4
33629.8
33659.4
33689.1
33718.9
33748.8
33778.7
33808.7
33838.7
33868.7
33898.6
33928.5
33958.3
33988
34017.6
34047
34076.3
34105.3
34134.1
34162.6
34190.8
34218.7
34246.2
34273.4
34300.1
34326.3
34352.1
34377.3
34402
34426.2
34449.7
34472.5
34494.7
34516.1
34536.9
34556.8
34576
34594.3
34611.8
34628.4
34644.1
34658.9
34672.7
34685.5
34697.4
34708.2
34718
34726.8
34734.4
34741
34746.6
34751
34754.3
34756.6
34757.8
30226.2
30226.2
30225.8
30225.3
30224.6
30223.8
30222.8
30221.6
30220.3
30218.8
30217.1
30215.3
30213.3
30211.2
30209
30206.6
30204
30201.3
30198.5
30195.6
30192.5
30189.3
30186
30182.6
30179
30175.4
30171.7
30167.9
30164
30160
30155.9
30151.8
30147.7
30143.4
30139.2
30134.8
30130.5
30126.1
30121.7
30117.3
30112.9
30108.5
30104.1
30099.7
30095.3
30091
30086.7
30082.5
30078.3
30074.2
30070.1
30066.1
30062.2
30058.4
30054.7
30051.1
30047.6
30044.2
30041
30037.9
30034.9
30032.1
30029.5
30027
30024.6
30022.5
30020.5
30018.8
30017.2
30015.8
30014.6
30013.7
30012.9
30012.4
30012.1
30012
30012.2
30012.6
30013.3
30014.2
30015.3
30016.8
30018.4
30020.4
30022.6
30025
30027.8
30030.8
30034.1
30037.7
30041.5
30045.6
30050
30054.7
30059.6
30064.9
30070.4
30076.2
30082.2
30088.6
30095.2
30102.1
30109.3
30116.7
30124.4
30132.4
30140.6
30149.1
30157.8
30166.8
30176.1
30185.5
30195.3
30205.2
30215.4
30225.8
30236.5
30247.4
30258.4
30269.7
30281.2
30292.9
30304.7
30316.8
30329
30341.4
30354
30366.8
30379.7
30392.7
30405.9
30419.2
30432.6
30446.2
30459.9
30473.7
30487.6
30501.6
30515.7
30529.9
30544.2
30558.5
30572.9
30587.4
30601.9
30616.5
30631.1
30645.8
30660.5
30675.2
30690
30704.7
30719.5
30734.3
30749.1
30763.9
30778.7
30793.5
30808.2
30823
30837.7
30852.4
30867.1
30881.7
30896.3
30910.9
30925.4
30939.9
30954.4
30968.8
30983.1
30997.4
31011.7
31025.9
31040
31054.1
31068.2
31082.1
31096.1
31109.9
31123.7
31137.5
31151.2
31164.8
31178.4
31191.9
31205.4
31218.8
31232.1
31245.5
31258.7
31271.9
31285.1
31298.2
31311.3
31324.3
31337.3
31350.2
31363.2
31376.1
31388.9
31401.8
31414.6
31427.4
31440.1
31452.9
31465.6
31478.4
31491.1
31503.9
31516.6
31529.4
31542.1
31554.9
31567.7
31580.5
31593.4
31606.3
31619.2
31632.2
31645.2
31658.2
31671.4
31684.6
31697.8
31711.1
31724.5
31738
31751.6
31765.3
31779
31792.9
31806.9
31821
31835.2
31849.5
31864
31878.6
31893.4
31908.3
31923.4
31938.6
31954
31969.6
31985.4
32001.4
32017.5
32033.9
32050.5
32067.2
32084.3
32101.5
32119
32136.7
32154.6
32172.8
32191.3
32210
32229
32248.3
32267.9
32287.7
32307.8
32328.2
32349
32370
32391.3
32412.9
32434.9
32457.1
32479.7
32502.5
32525.7
32549.3
32573.1
32597.2
32621.7
32646.5
32671.6
32697
32722.8
32748.8
32775.1
32801.7
32828.6
32855.8
32883.2
32910.9
32938.9
32967.1
32995.6
33024.2
33053.1
33082.2
33111.5
33140.9
33170.5
33200.2
33230.1
33260
33290.1
33320.2
33350.3
33380.5
33410.7
33440.8
33470.9
33500.9
33530.9
33560.7
33590.3
33619.8
33649
33678.1
33706.8
33735.3
33763.4
33791.2
33818.5
33845.5
33872
33898
33923.5
33948.4
33972.8
33996.5
34019.6
34042
34063.7
34084.6
34104.8
34124.2
34142.7
34160.4
34177.2
34193.1
34208
34222
34235
34246.9
34257.9
34267.8
34276.6
34284.4
34291.1
34296.7
34301.2
34304.5
34306.8
34308
29768.7
29768.7
29768.3
29767.8
29767.1
29766.3
29765.2
29764.1
29762.7
29761.2
29759.5
29757.7
29755.7
29753.6
29751.3
29748.8
29746.3
29743.5
29740.7
29737.7
29734.6
29731.4
29728
29724.5
29721
29717.3
29713.5
29709.7
29705.7
29701.7
29697.6
29693.4
29689.2
29684.9
29680.6
29676.2
29671.8
29667.3
29662.9
29658.4
29653.9
29649.5
29645
29640.6
29636.1
29631.7
29627.4
29623.1
29618.8
29614.6
29610.5
29606.4
29602.5
29598.6
29594.8
29591.2
29587.6
29584.2
29580.9
29577.7
29574.7
29571.8
29569.1
29566.5
29564.2
29562
29559.9
29558.1
29556.5
29555
29553.8
29552.8
29552
29551.4
29551.1
29551
29551.1
29551.5
29552.1
29553
29554.1
29555.5
29557.1
29559
29561.2
29563.7
29566.4
29569.4
29572.6
29576.2
29580
29584.1
29588.5
29593.2
29598.2
29603.4
29608.9
29614.7
29620.8
29627.1
29633.8
29640.7
29647.9
29655.3
29663.1
29671
29679.3
29687.8
29696.6
29705.6
29714.9
29724.5
29734.2
29744.2
29754.5
29765
29775.7
29786.6
29797.7
29809.1
29820.6
29832.3
29844.3
29856.4
29868.7
29881.2
29893.8
29906.7
29919.6
29932.7
29946
29959.4
29972.9
29986.6
30000.3
30014.2
30028.2
30042.3
30056.5
30070.7
30085.1
30099.5
30114
30128.6
30143.2
30157.8
30172.5
30187.2
30202
30216.8
30231.6
30246.5
30261.3
30276.2
30291
30305.9
30320.7
30335.6
30350.4
30365.2
30380
30394.8
30409.5
30424.2
30438.8
30453.4
30468
30482.6
30497
30511.5
30525.9
30540.2
30554.5
30568.7
30582.9
30597
30611
30625
30638.9
30652.8
30666.6
30680.4
30694.1
30707.7
30721.3
30734.8
30748.2
30761.6
30775
30788.3
30801.5
30814.7
30827.8
30840.9
30854
30867
30879.9
30892.8
30905.7
30918.6
30931.4
30944.2
30956.9
30969.7
30982.4
30995.1
31007.8
31020.5
31033.2
31045.8
31058.5
31071.2
31083.9
31096.6
31109.4
31122.1
31134.9
31147.7
31160.6
31173.5
31186.4
31199.4
31212.5
31225.6
31238.7
31252
31265.3
31278.7
31292.2
31305.8
31319.5
31333.3
31347.1
31361.2
31375.3
31389.6
31404
31418.5
31433.2
31448
31463
31478.2
31493.5
31509
31524.7
31540.6
31556.7
31573
31589.5
31606.2
31623.1
31640.3
31657.7
31675.3
31693.2
31711.4
31729.8
31748.4
31767.4
31786.6
31806.1
31825.9
31846
31866.4
31887
31908
31929.3
31950.9
31972.8
31995.1
32017.6
32040.5
32063.7
32087.2
32111.1
32135.3
32159.8
32184.6
32209.7
32235.2
32260.9
32287
32313.4
32340.1
32367.1
32394.3
32421.9
32449.7
32477.8
32506.1
32534.7
32563.5
32592.6
32621.8
32651.3
32680.9
32710.7
32740.6
32770.6
32800.8
32831.1
32861.4
32891.8
32922.2
32952.6
32983
33013.3
33043.6
33073.8
33103.9
33133.8
33163.6
33193.1
33222.4
33251.5
33280.2
33308.6
33336.7
33364.4
33391.6
33418.4
33444.8
33470.6
33495.8
33520.5
33544.5
33567.9
33590.6
33612.5
33633.8
33654.2
33673.8
33692.6
33710.6
33727.6
33743.7
33758.8
33773
33786.2
33798.3
33809.5
33819.5
33828.5
33836.4
33843.2
33848.8
33853.4
33856.8
33859.1
33860.3
29311.3
29311.2
29310.9
29310.3
29309.7
29308.8
29307.8
29306.6
29305.2
29303.7
29302
29300.1
29298.1
29295.9
29293.6
29291.1
29288.5
29285.7
29282.9
29279.8
29276.7
29273.4
29270
29266.5
29262.8
29259.1
29255.3
29251.4
29247.4
29243.3
29239.1
29234.9
29230.6
29226.2
29221.8
29217.4
29212.9
29208.4
29203.9
29199.3
29194.8
29190.2
29185.7
29181.1
29176.6
29172.2
29167.7
29163.3
29159
29154.7
29150.5
29146.4
29142.4
29138.4
29134.5
29130.8
29127.2
29123.7
29120.3
29117
29113.9
29111
29108.2
29105.6
29103.1
29100.8
29098.7
29096.8
29095.1
29093.6
29092.4
29091.3
29090.4
29089.8
29089.4
29089.2
29089.3
29089.6
29090.2
29091
29092.1
29093.5
29095.1
29097
29099.1
29101.5
29104.2
29107.2
29110.4
29114
29117.8
29121.9
29126.3
29130.9
29135.9
29141.1
29146.7
29152.5
29158.6
29164.9
29171.6
29178.5
29185.7
29193.2
29201
29209
29217.3
29225.9
29234.7
29243.8
29253.1
29262.7
29272.5
29282.6
29292.9
29303.4
29314.2
29325.2
29336.4
29347.8
29359.4
29371.3
29383.3
29395.5
29407.9
29420.4
29433.2
29446.1
29459.1
29472.3
29485.7
29499.2
29512.8
29526.6
29540.4
29554.4
29568.5
29582.7
29596.9
29611.3
29625.8
29640.3
29654.9
29669.5
29684.2
29698.9
29713.7
29728.6
29743.4
29758.3
29773.2
29788.1
29803.1
29818
29833
29847.9
29862.8
29877.7
29892.6
29907.5
29922.3
29937.2
29952
29966.7
29981.4
29996.1
30010.7
30025.3
30039.8
30054.3
30068.7
30083.1
30097.4
30111.6
30125.8
30140
30154
30168
30182
30195.9
30209.7
30223.4
30237.1
30250.8
30264.3
30277.8
30291.3
30304.7
30318
30331.2
30344.4
30357.6
30370.7
30383.8
30396.8
30409.7
30422.6
30435.5
30448.3
30461.1
30473.9
30486.6
30499.3
30512
30524.7
30537.3
30550
30562.6
30575.2
30587.8
30600.4
30613
30625.6
30638.3
30650.9
30663.6
30676.3
30689
30701.8
30714.6
30727.4
30740.3
30753.3
30766.3
30779.4
30792.5
30805.8
30819.1
30832.5
30845.9
30859.5
30873.2
30887
30900.9
30915
30929.1
30943.4
30957.9
30972.5
30987.2
31002.1
31017.1
31032.4
31047.8
31063.4
31079.2
31095.2
31111.4
31127.8
31144.4
31161.2
31178.3
31195.6
31213.2
31231
31249.1
31267.4
31286
31304.9
31324.1
31343.5
31363.3
31383.3
31403.6
31424.3
31445.2
31466.5
31488.1
31510
31532.2
31554.7
31577.6
31600.8
31624.4
31648.2
31672.4
31697
31721.8
31747
31772.5
31798.4
31824.5
31851
31877.8
31904.9
31932.2
31959.9
31987.9
32016.1
32044.6
32073.3
32102.3
32131.5
32161
32190.6
32220.4
32250.4
32280.5
32310.8
32341.2
32371.8
32402.3
32433
32463.7
32494.4
32525.1
32555.7
32586.3
32616.8
32647.2
32677.5
32707.6
32737.5
32767.1
32796.6
32825.7
32854.5
32882.9
32910.9
32938.6
32965.7
32992.4
33018.6
33044.2
33069.2
33093.6
33117.4
33140.4
33162.7
33184.3
33205.1
33225
33244.1
33262.3
33279.7
33296
33311.4
33325.9
33339.3
33351.6
33362.9
33373.2
33382.3
33390.3
33397.2
33403
33407.6
33411.1
33413.5
33414.7
28854
28853.9
28853.5
28853
28852.3
28851.4
28850.3
28849.1
28847.7
28846.2
28844.4
28842.6
28840.5
28838.3
28835.9
28833.4
28830.8
28828
28825
28821.9
28818.7
28815.4
28811.9
28808.4
28804.7
28800.9
28797
28793
28788.9
28784.7
28780.5
28776.2
28771.8
28767.4
28762.9
28758.4
28753.8
28749.2
28744.6
28740
28735.3
28730.7
28726.1
28721.5
28716.9
28712.3
28707.8
28703.3
28698.9
28694.5
28690.2
28686
28681.8
28677.8
28673.8
28670
28666.3
28662.7
28659.2
28655.9
28652.7
28649.6
28646.8
28644.1
28641.5
28639.2
28637
28635
28633.2
28631.7
28630.3
28629.1
28628.2
28627.5
28627.1
28626.8
28626.9
28627.1
28627.6
28628.4
28629.4
28630.7
28632.3
28634.2
28636.3
28638.7
28641.3
28644.3
28647.5
28651
28654.8
28658.9
28663.3
28667.9
28672.9
28678.1
28683.7
28689.5
28695.6
28702
28708.6
28715.6
28722.8
28730.4
28738.2
28746.2
28754.6
28763.2
28772.1
28781.2
28790.6
28800.2
28810.1
28820.3
28830.6
28841.3
28852.1
28863.2
28874.5
28886
28897.7
28909.6
28921.7
28934
28946.5
28959.2
28972
28985
28998.2
29011.5
29025
29038.6
29052.3
29066.2
29080.1
29094.2
29108.4
29122.7
29137.1
29151.6
29166.1
29180.8
29195.5
29210.2
29225
29239.9
29254.8
29269.7
29284.7
29299.7
29314.7
29329.7
29344.8
29359.8
29374.8
29389.9
29404.9
29419.9
29434.9
29449.8
29464.7
29479.6
29494.5
29509.3
29524.1
29538.8
29553.5
29568.1
29582.7
29597.2
29611.7
29626.1
29640.5
29654.7
29669
29683.1
29697.2
29711.2
29725.2
29739.1
29752.9
29766.7
29780.3
29794
29807.5
29821
29834.4
29847.8
29861.1
29874.3
29887.5
29900.6
29913.7
29926.7
29939.7
29952.6
29965.4
29978.3
29991
30003.8
30016.5
30029.2
30041.8
30054.4
30067
30079.6
30092.1
30104.6
30117.2
30129.7
30142.2
30154.7
30167.3
30179.8
30192.4
30204.9
30217.5
30230.2
30242.8
30255.5
30268.3
30281.1
30293.9
30306.8
30319.8
30332.8
30345.9
30359.1
30372.4
30385.8
30399.3
30412.8
30426.5
30440.3
30454.2
30468.3
30482.5
30496.8
30511.2
30525.9
30540.6
30555.6
30570.7
30586
30601.5
30617.2
30633
30649.1
30665.4
30681.9
30698.7
30715.7
30732.9
30750.4
30768.1
30786.1
30804.3
30822.8
30841.6
30860.7
30880.1
30899.8
30919.7
30940
30960.6
30981.5
31002.7
31024.3
31046.2
31068.4
31090.9
31113.8
31137
31160.6
31184.5
31208.7
31233.3
31258.2
31283.4
31309
31334.9
31361.1
31387.7
31414.6
31441.8
31469.3
31497.1
31525.2
31553.6
31582.3
31611.2
31640.4
31669.8
31699.4
31729.3
31759.4
31789.6
31820
31850.6
31881.3
31912.1
31943
31974
32005
32036
32067.1
32098.1
32129.1
32159.9
32190.7
32221.4
32251.9
32282.2
32312.3
32342.1
32371.6
32400.8
32429.7
32458.2
32486.2
32513.9
32541
32567.6
32593.6
32619.1
32643.9
32668.1
32691.5
32714.2
32736.2
32757.4
32777.7
32797.2
32815.8
32833.4
32850.1
32865.8
32880.5
32894.2
32906.8
32918.4
32928.8
32938.1
32946.3
32953.4
32959.3
32964
32967.5
32969.9
32971.2
28396.7
28396.6
28396.2
28395.7
28394.9
28394.1
28393
28391.7
28390.3
28388.7
28387
28385
28383
28380.7
28378.3
28375.7
28373
28370.2
28367.2
28364
28360.8
28357.4
28353.8
28350.2
28346.4
28342.6
28338.6
28334.5
28330.4
28326.1
28321.8
28317.4
28312.9
28308.4
28303.8
28299.2
28294.6
28289.9
28285.2
28280.4
28275.7
28270.9
28266.2
28261.5
28256.8
28252.1
28247.5
28242.9
28238.4
28233.9
28229.5
28225.1
28220.9
28216.7
28212.7
28208.8
28204.9
28201.2
28197.6
28194.2
28190.9
28187.8
28184.8
28182
28179.4
28176.9
28174.6
28172.6
28170.7
28169
28167.6
28166.3
28165.3
28164.6
28164
28163.7
28163.7
28163.9
28164.3
28165.1
28166
28167.3
28168.8
28170.6
28172.7
28175
28177.6
28180.6
28183.8
28187.3
28191
28195.1
28199.5
28204.1
28209.1
28214.3
28219.9
28225.7
28231.8
28238.2
28244.9
28251.9
28259.2
28266.7
28274.6
28282.7
28291.1
28299.8
28308.7
28317.9
28327.4
28337.1
28347
28357.3
28367.7
28378.4
28389.4
28400.5
28411.9
28423.5
28435.3
28447.4
28459.6
28472
28484.6
28497.4
28510.3
28523.5
28536.8
28550.2
28563.8
28577.5
28591.4
28605.4
28619.5
28633.7
28648
28662.5
28677
28691.6
28706.3
28721
28735.9
28750.8
28765.7
28780.7
28795.7
28810.8
28825.9
28841
28856.1
28871.2
28886.4
28901.5
28916.7
28931.8
28946.9
28962
28977.1
28992.1
29007.2
29022.1
29037.1
29052
29066.8
29081.6
29096.4
29111.1
29125.7
29140.3
29154.8
29169.3
29183.7
29198
29212.2
29226.4
29240.5
29254.6
29268.5
29282.4
29296.3
29310
29323.7
29337.3
29350.9
29364.4
29377.8
29391.1
29404.4
29417.6
29430.7
29443.8
29456.8
29469.8
29482.7
29495.6
29508.4
29521.1
29533.8
29546.5
29559.1
29571.7
29584.3
29596.8
29609.3
29621.8
29634.3
29646.7
29659.1
29671.6
29684
29696.4
29708.8
29721.3
29733.7
29746.2
29758.7
29771.2
29783.7
29796.3
29808.9
29821.6
29834.3
29847.1
29859.9
29872.8
29885.8
29898.9
29912
29925.3
29938.6
29952.1
29965.6
29979.3
29993
30007
30021
30035.2
30049.5
30064
30078.7
30093.5
30108.5
30123.6
30139
30154.5
30170.3
30186.2
30202.4
30218.8
30235.4
30252.3
30269.4
30286.8
30304.4
30322.3
30340.4
30358.8
30377.5
30396.5
30415.8
30435.4
30455.3
30475.5
30496.1
30516.9
30538.1
30559.6
30581.5
30603.6
30626.2
30649
30672.3
30695.8
30719.7
30744
30768.6
30793.6
30818.9
30844.5
30870.5
30896.9
30923.6
30950.6
30977.9
31005.5
31033.5
31061.8
31090.4
31119.2
31148.4
31177.8
31207.4
31237.3
31267.4
31297.8
31328.3
31359
31389.9
31420.9
31452.1
31483.3
31514.7
31546.1
31577.5
31608.9
31640.4
31671.8
31703.1
31734.3
31765.4
31796.4
31827.1
31857.7
31888
31918
31947.7
31977.1
32006.1
32034.7
32062.8
32090.4
32117.5
32144
32170
32195.3
32220
32243.9
32267.1
32289.5
32311.2
32331.9
32351.8
32370.8
32388.9
32405.9
32422
32437
32451
32463.9
32475.8
32486.4
32496
32504.4
32511.6
32517.6
32522.4
32526.1
32528.5
32529.8
27939.4
27939.4
27939
27938.4
27937.7
27936.8
27935.7
27934.4
27933
27931.3
27929.6
27927.6
27925.5
27923.2
27920.7
27918.1
27915.3
27912.4
27909.3
27906.1
27902.8
27899.3
27895.7
27892
27888.2
27884.2
27880.2
27876
27871.7
27867.4
27863
27858.5
27853.9
27849.3
27844.6
27839.9
27835.1
27830.3
27825.5
27820.6
27815.8
27810.9
27806.1
27801.2
27796.4
27791.6
27786.9
27782.2
27777.5
27772.9
27768.4
27763.9
27759.6
27755.3
27751.1
27747
27743.1
27739.3
27735.6
27732
27728.6
27725.4
27722.3
27719.4
27716.6
27714
27711.7
27709.5
27707.5
27705.8
27704.2
27702.9
27701.8
27700.9
27700.3
27699.9
27699.8
27699.9
27700.3
27701
27701.9
27703.1
27704.5
27706.3
27708.3
27710.6
27713.2
27716.1
27719.3
27722.7
27726.5
27730.5
27734.9
27739.5
27744.5
27749.7
27755.3
27761.1
27767.3
27773.7
27780.4
27787.5
27794.8
27802.4
27810.2
27818.4
27826.9
27835.6
27844.6
27853.9
27863.4
27873.2
27883.3
27893.6
27904.1
27914.9
27926
27937.2
27948.7
27960.5
27972.4
27984.5
27996.9
28009.4
28022.2
28035.1
28048.2
28061.4
28074.9
28088.4
28102.2
28116.1
28130.1
28144.2
28158.5
28172.8
28187.3
28201.9
28216.6
28231.3
28246.2
28261.1
28276
28291.1
28306.2
28321.3
28336.5
28351.7
28366.9
28382.1
28397.4
28412.7
28427.9
28443.2
28458.5
28473.7
28489
28504.2
28519.4
28534.5
28549.6
28564.7
28579.7
28594.7
28609.7
28624.6
28639.4
28654.1
28668.8
28683.5
28698.1
28712.6
28727
28741.4
28755.7
28769.9
28784
28798.1
28812.1
28826
28839.8
28853.6
28867.3
28880.9
28894.4
28907.9
28921.3
28934.6
28947.8
28961
28974.1
28987.1
29000.1
29013
29025.9
29038.7
29051.4
29064.1
29076.7
29089.3
29101.9
29114.4
29126.8
29139.3
29151.7
29164.1
29176.4
29188.8
29201.1
29213.4
29225.7
29238
29250.3
29262.6
29274.9
29287.3
29299.6
29312
29324.4
29336.9
29349.4
29361.9
29374.5
29387.1
29399.8
29412.6
29425.4
29438.3
29451.3
29464.4
29477.6
29490.9
29504.3
29517.8
29531.4
29545.2
29559.1
29573.1
29587.3
29601.6
29616.1
29630.8
29645.6
29660.6
29675.9
29691.3
29706.9
29722.7
29738.7
29755
29771.5
29788.2
29805.2
29822.4
29839.9
29857.6
29875.7
29894
29912.6
29931.5
29950.7
29970.2
29990
30010.1
30030.6
30051.4
30072.5
30094
30115.8
30138
30160.5
30183.3
30206.5
30230.1
30254.1
30278.3
30303
30328
30353.4
30379.1
30405.2
30431.7
30458.5
30485.6
30513.1
30540.9
30569
30597.5
30626.3
30655.4
30684.7
30714.4
30744.3
30774.5
30804.9
30835.6
30866.4
30897.5
30928.7
30960.1
30991.6
31023.3
31055
31086.9
31118.7
31150.6
31182.5
31214.4
31246.2
31277.9
31309.6
31341
31372.3
31403.4
31434.3
31464.9
31495.1
31525.1
31554.6
31583.8
31612.4
31640.7
31668.3
31695.4
31722
31747.8
31773.1
31797.5
31821.3
31844.3
31866.4
31887.7
31908
31927.5
31946
31963.5
31980
31995.4
32009.8
32023
32035.1
32046.1
32055.9
32064.5
32071.9
32078.1
32083
32086.8
32089.3
32090.7
27482.3
27482.2
27481.8
27481.3
27480.5
27479.6
27478.5
27477.2
27475.7
27474
27472.2
27470.2
27468
27465.7
27463.1
27460.5
27457.6
27454.7
27451.5
27448.2
27444.8
27441.3
27437.6
27433.8
27429.8
27425.8
27421.6
27417.4
27413
27408.6
27404
27399.4
27394.8
27390
27385.2
27380.4
27375.5
27370.6
27365.6
27360.6
27355.6
27350.7
27345.7
27340.7
27335.8
27330.8
27325.9
27321.1
27316.3
27311.6
27306.9
27302.3
27297.8
27293.4
27289.1
27284.9
27280.8
27276.8
27273
27269.3
27265.8
27262.4
27259.2
27256.2
27253.3
27250.6
27248.1
27245.8
27243.7
27241.9
27240.2
27238.8
27237.6
27236.6
27235.9
27235.4
27235.2
27235.3
27235.6
27236.1
27237
27238.1
27239.5
27241.2
27243.1
27245.4
27248
27250.8
27253.9
27257.4
27261.1
27265.1
27269.5
27274.1
27279.1
27284.3
27289.9
27295.7
27301.9
27308.4
27315.1
27322.2
27329.5
27337.2
27345.1
27353.4
27361.9
27370.7
27379.7
27389.1
27398.7
27408.6
27418.8
27429.2
27439.8
27450.8
27461.9
27473.3
27484.9
27496.8
27508.8
27521.1
27533.6
27546.3
27559.2
27572.2
27585.5
27598.9
27612.5
27626.2
27640.1
27654.2
27668.3
27682.6
27697.1
27711.6
27726.2
27741
27755.8
27770.8
27785.8
27800.8
27816
27831.2
27846.4
27861.7
27877.1
27892.4
27907.8
27923.2
27938.6
27954
27969.4
27984.9
28000.3
28015.7
28031
28046.4
28061.7
28076.9
28092.2
28107.4
28122.5
28137.6
28152.6
28167.6
28182.5
28197.3
28212.1
28226.8
28241.5
28256
28270.5
28284.9
28299.3
28313.5
28327.7
28341.8
28355.8
28369.7
28383.6
28397.3
28411
28424.6
28438.1
28451.6
28464.9
28478.2
28491.4
28504.6
28517.6
28530.6
28543.5
28556.4
28569.2
28581.9
28594.6
28607.2
28619.7
28632.2
28644.7
28657.1
28669.5
28681.8
28694.1
28706.4
28718.6
28730.8
28743
28755.2
28767.4
28779.6
28791.7
28803.9
28816.1
28828.3
28840.5
28852.7
28865
28877.3
28889.6
28902
28914.4
28926.9
28939.4
28952.1
28964.7
28977.5
28990.3
29003.2
29016.3
29029.4
29042.6
29055.9
29069.4
29083
29096.7
29110.6
29124.6
29138.7
29153.1