/*--------------------------------*- C++ -*----------------------------------*\
| =========                 |                                                 |
| \\      /  F ield         | OpenFOAM: The Open Source CFD Toolbox           |
|  \\    /   O peration     | Version:  v2006                                 |
|   \\  /    A nd           | Website:  www.openfoam.com                      |
|    \\/     M anipulation  |                                                 |
\*---------------------------------------------------------------------------*/
FoamFile
{
    version     2.0;
    format      ascii;
    class       volScalarField;
    location    "2.25";
    object      r;
}
// * * * * * * * * * * * * * * * * * * * * * * * * * * * * * * * * * * * * * //

dimensions      [1 2 0 0 0 0 0];


internalField   nonuniform List<scalar> 
350
(
-2.63049e-149
2.17187e-147
-1.16831e-145
6.28326e-144
-3.36657e-142
1.79703e-140
-9.55554e-139
5.06126e-137
-2.67013e-135
1.40296e-133
-7.34111e-132
3.82516e-130
-1.9846e-128
1.02517e-126
-5.272e-125
2.69884e-123
-1.37518e-121
6.97396e-120
-3.51961e-118
1.7675e-116
-8.83138e-115
4.38988e-113
-2.17061e-111
1.0675e-109
-5.22096e-108
2.5391e-106
-1.22771e-104
5.9012e-103
-2.81935e-101
1.33863e-99
-6.31546e-98
2.96015e-96
-1.37821e-94
6.37283e-93
-2.92609e-91
1.33382e-89
-6.03503e-88
2.70983e-86
-1.20723e-84
5.33497e-83
-2.3381e-81
1.01596e-79
-4.37581e-78
1.86766e-76
-7.8971e-75
3.30706e-73
-1.37115e-71
5.62674e-70
-2.28458e-68
9.17437e-67
-3.64252e-65
1.42925e-63
-5.54001e-62
2.12038e-60
-8.0096e-59
2.98457e-57
-1.09646e-55
3.96917e-54
-1.41493e-52
4.96382e-51
-1.71255e-49
5.80623e-48
-1.93296e-46
6.31326e-45
-2.02111e-43
6.33568e-42
-1.94266e-40
5.81957e-39
-1.70105e-37
4.84471e-36
-1.34238e-34
3.61248e-33
-9.4242e-32
2.37841e-30
-5.79321e-29
1.35833e-27
-3.05671e-26
6.57949e-25
-1.34934e-23
2.62461e-22
-4.81598e-21
8.28292e-20
-1.32477e-18
1.95109e-17
-2.61258e-16
3.12669e-15
-3.26366e-14
2.85986e-13
-1.96306e-12
8.91799e-12
-8.86044e-12
-1.92791e-10
9.04827e-10
4.08768e-09
-2.77432e-08
-1.82429e-07
2.5117e-07
7.94713e-06
5.40776e-05
0.000243602
0.000860514
0.00255533
0.00662848
0.0153942
0.0325676
0.0635777
0.115686
0.197798
0.319913
0.492212
0.723899
1.02196
1.39005
1.8277
2.32997
2.88768
3.48806
4.11584
4.75451
5.38765
6.00011
6.57897
7.11414
7.59864
8.02858
8.40291
8.72294
8.99182
9.21398
9.39464
9.53932
9.65347
9.74229
9.81045
9.86208
9.90069
9.92922
9.95006
9.9651
9.97584
9.98343
9.98873
9.99241
9.99493
9.99663
9.99774
9.99831
9.99821
9.99685
9.99299
9.98436
9.96728
9.93633
9.88426
9.80217
9.68006
9.50777
9.27609
8.97803
8.60994
8.1723
7.67003
7.11232
6.51194
5.88416
5.24549
4.61235
3.99989
3.42103
2.88586
2.40136
1.97142
1.59709
1.27706
1.00818
0.786016
0.605356
0.460684
0.346526
0.257712
0.189551
0.137923
0.099308
0.0707769
0.049943
0.0349018
0.0241614
0.0165731
0.0112668
0.00759295
0.00507379
0.0033625
0.0022105
0.00144181
0.000933246
0.000599572
0.000382404
0.000242168
0.0001523
9.51356e-05
5.90358e-05
3.63986e-05
2.23006e-05
1.35792e-05
8.21893e-06
4.9454e-06
2.95862e-06
1.76008e-06
1.04132e-06
6.12768e-07
3.58689e-07
2.08881e-07
1.21027e-07
6.97777e-08
4.00354e-08
2.28616e-08
1.29941e-08
7.35192e-09
4.14105e-09
2.32226e-09
1.2967e-09
7.20997e-10
3.9923e-10
2.20163e-10
1.20927e-10
6.6161e-11
3.60579e-11
1.95774e-11
1.05898e-11
5.70731e-12
3.06489e-12
1.64003e-12
8.74574e-13
4.6475e-13
2.46172e-13
1.29935e-13
6.83812e-14
3.58557e-14
1.87526e-14
9.77049e-15
5.07854e-15
2.63062e-15
1.35824e-15
7.0046e-16
3.58575e-16
1.8471e-16
9.33653e-17
4.83015e-17
2.39771e-17
1.251e-17
6.10567e-18
3.17599e-18
1.57341e-18
7.64922e-19
4.29076e-19
1.60826e-19
1.29693e-19
2.34531e-20
4.19512e-20
6.16568e-22
1.17393e-20
9.55644e-22
7.47878e-22
2.79759e-21
-2.33463e-21
2.81091e-21
-2.19232e-21
1.78363e-21
-1.18012e-21
7.26831e-22
-3.36182e-22
7.79094e-23
8.87217e-23
-1.70227e-22
1.96733e-22
-1.86235e-22
1.57329e-22
-1.21411e-22
8.65144e-23
-5.65721e-23
3.32336e-23
-1.64331e-23
5.30689e-24
1.36983e-24
-4.82049e-24
6.11456e-24
-6.09222e-24
5.36548e-24
-4.3463e-24
3.28985e-24
-2.33685e-24
1.55058e-24
-9.45657e-25
5.09087e-25
-2.14515e-25
3.13529e-26
6.98777e-26
-1.1476e-25
1.23871e-25
-1.12697e-25
9.21273e-26
-6.9227e-26
4.81043e-26
-3.07335e-26
1.76718e-26
-8.63437e-27
2.91995e-27
3.00146e-28
-1.80707e-27
2.24639e-27
-2.10018e-27
1.69576e-27
-1.23302e-27
8.17715e-28
-4.92662e-28
2.63317e-28
-1.16317e-28
3.15996e-29
1.06633e-29
-2.67969e-29
2.86909e-29
-2.4134e-29
1.76894e-29
-1.16677e-29
6.97133e-30
-3.72692e-30
1.70664e-30
-5.77388e-31
2.73153e-32
1.8494e-31
-2.23667e-31
1.88812e-31
-1.34221e-31
8.44686e-32
-4.76356e-32
2.38072e-32
-1.0067e-32
3.05132e-33
-3.68174e-36
-9.74427e-34
1.03065e-33
-7.7638e-34
4.90525e-34
-2.71011e-34
1.31308e-34
-5.41209e-35
1.70104e-35
-2.03505e-36
-2.38889e-36
2.75869e-36
)
;

boundaryField
{
    right
    {
        type            zeroGradient;
    }
    left
    {
        type            inletOutlet;
        inletValue      uniform 0;
        value           uniform 0;
    }
    top
    {
        type            zeroGradient;
    }
    bottom
    {
        type            zeroGradient;
    }
    empty
    {
        type            empty;
    }
}


// ************************************************************************* //
