/*--------------------------------*- C++ -*----------------------------------*\
| =========                 |                                                 |
| \\      /  F ield         | OpenFOAM: The Open Source CFD Toolbox           |
|  \\    /   O peration     | Version:  v2006                                 |
|   \\  /    A nd           | Website:  www.openfoam.com                      |
|    \\/     M anipulation  |                                                 |
\*---------------------------------------------------------------------------*/
FoamFile
{
    version     2.0;
    format      ascii;
    class       volScalarField;
    location    "19.1";
    object      p_rgh;
}
// * * * * * * * * * * * * * * * * * * * * * * * * * * * * * * * * * * * * * //

dimensions      [1 -1 -2 0 0 0 0];


internalField   nonuniform List<scalar> 
52500
(
2823.12
2822.9
2822.44
2821.76
2820.85
2819.72
2818.35
2816.77
2814.95
2812.92
2810.66
2808.17
2805.46
2802.54
2799.39
2796.01
2792.42
2788.61
2784.58
2780.34
2775.87
2771.2
2766.3
2761.19
2755.87
2750.34
2744.6
2738.64
2732.48
2726.12
2719.55
2712.77
2705.8
2698.63
2691.26
2683.7
2675.94
2668
2659.86
2651.54
2643.04
2634.36
2625.51
2616.48
2607.28
2597.92
2588.4
2578.72
2568.89
2558.91
2548.78
2538.51
2528.1
2517.56
2506.87
2496.06
2485.12
2474.06
2462.88
2451.58
2440.18
2428.66
2417.05
2405.34
2393.54
2381.64
2369.67
2357.61
2345.48
2333.28
2321.01
2308.68
2296.3
2283.86
2271.38
2258.85
2246.29
2233.69
2221.06
2208.41
2195.74
2183.06
2170.36
2157.66
2144.96
2132.26
2119.57
2106.88
2094.22
2081.57
2068.95
2056.36
2043.8
2031.27
2018.79
2006.34
1993.95
1981.61
1969.32
1957.09
1944.92
1932.81
1920.78
1908.82
1896.93
1885.13
1873.4
1861.76
1850.21
1838.75
1827.38
1816.11
1804.94
1793.88
1782.91
1772.05
1761.31
1750.67
1740.15
1729.74
1719.45
1709.28
1699.24
1689.31
1679.52
1669.85
1660.3
1650.89
1641.61
1632.46
1623.45
1614.57
1605.83
1597.22
1588.76
1580.42
1572.23
1564.17
1556.25
1548.46
1540.82
1533.32
1525.95
1518.72
1511.62
1504.67
1497.85
1491.17
1484.62
1478.21
1471.93
1465.78
1459.77
1453.88
1448.11
1442.47
1436.94
1431.54
1426.24
1421.06
1415.99
1411.03
1406.17
1401.43
1396.79
1392.27
1387.85
1383.54
1379.32
1375.19
1371.14
1367.18
1363.3
1359.49
1355.76
1352.1
1348.5
1344.97
1341.5
1338.08
1334.72
1331.4
1328.13
1324.9
1321.71
1318.55
1315.42
1312.32
1309.24
1306.17
1303.12
1300.07
1297.03
1293.99
1290.95
1287.9
1284.83
1281.76
1278.66
1275.54
1272.39
1269.22
1266.01
1262.76
1259.47
1256.14
1252.76
1249.33
1245.85
1242.31
1238.7
1235.03
1231.3
1227.49
1223.61
1219.66
1215.62
1211.5
1207.3
1203
1198.62
1194.14
1189.57
1184.9
1180.12
1175.25
1170.27
1165.18
1159.98
1154.68
1149.26
1143.73
1138.08
1132.31
1126.43
1120.44
1114.32
1108.08
1101.73
1095.25
1088.66
1081.95
1075.11
1068.16
1061.09
1053.9
1046.6
1039.18
1031.65
1024.01
1016.26
1008.39
1000.43
992.352
984.175
975.898
967.523
959.054
950.493
941.843
933.108
924.29
915.394
906.421
897.375
888.259
879.077
869.831
860.524
851.159
841.741
832.272
822.756
813.199
803.602
793.971
784.311
774.632
764.942
755.253
745.58
735.933
726.321
716.744
707.204
697.698
688.229
678.796
669.403
660.052
650.748
641.495
632.297
623.161
614.093
605.09
596.16
587.309
578.546
569.878
561.307
552.837
544.473
536.218
528.075
520.049
512.144
504.362
496.708
489.186
481.8
474.552
467.448
460.491
453.683
447.028
440.529
434.189
428.01
421.997
416.151
410.475
404.972
399.643
394.492
389.52
384.731
380.125
375.705
371.474
367.432
363.582
359.925
356.464
353.199
350.133
347.266
344.601
342.139
339.88
337.825
335.975
334.331
332.894
331.662
330.637
329.817
329.201
328.792
328.58
2823.63
2823.4
2822.94
2822.26
2821.35
2820.21
2818.85
2817.26
2815.45
2813.41
2811.15
2808.67
2805.96
2803.03
2799.88
2796.51
2792.91
2789.1
2785.07
2780.82
2776.36
2771.68
2766.78
2761.67
2756.35
2750.81
2745.06
2739.11
2732.95
2726.58
2720
2713.23
2706.25
2699.08
2691.7
2684.14
2676.38
2668.43
2660.29
2651.97
2643.47
2634.79
2625.93
2616.9
2607.7
2598.33
2588.8
2579.12
2569.28
2559.29
2549.16
2538.88
2528.46
2517.9
2507.21
2496.39
2485.44
2474.36
2463.17
2451.86
2440.44
2428.92
2417.29
2405.57
2393.75
2381.85
2369.86
2357.79
2345.64
2333.43
2321.15
2308.81
2296.41
2283.96
2271.46
2258.93
2246.35
2233.74
2221.1
2208.44
2195.76
2183.06
2170.35
2157.64
2144.93
2132.21
2119.51
2106.82
2094.14
2081.49
2068.86
2056.25
2043.68
2031.15
2018.65
2006.2
1993.8
1981.45
1969.15
1956.91
1944.74
1932.63
1920.59
1908.62
1896.72
1884.91
1873.18
1861.53
1849.98
1838.51
1827.14
1815.86
1804.68
1793.61
1782.64
1771.78
1761.02
1750.38
1739.86
1729.44
1719.15
1708.98
1698.93
1689
1679.2
1669.52
1659.98
1650.56
1641.28
1632.13
1623.11
1614.22
1605.47
1596.86
1588.38
1580.04
1571.84
1563.77
1555.84
1548.05
1540.4
1532.89
1525.52
1518.28
1511.18
1504.22
1497.39
1490.7
1484.15
1477.72
1471.43
1465.28
1459.25
1453.36
1447.6
1441.97
1436.47
1431.09
1425.83
1420.69
1415.66
1410.75
1405.94
1401.24
1396.63
1392.11
1387.69
1383.37
1379.13
1374.99
1370.94
1366.98
1363.1
1359.3
1355.57
1351.92
1348.33
1344.81
1341.35
1337.94
1334.59
1331.28
1328.02
1324.8
1321.62
1318.46
1315.34
1312.24
1309.17
1306.11
1303.06
1300.02
1296.99
1293.96
1290.92
1287.88
1284.83
1281.76
1278.67
1275.56
1272.43
1269.26
1266.06
1262.82
1259.55
1256.23
1252.86
1249.43
1245.96
1242.42
1238.83
1235.17
1231.44
1227.64
1223.77
1219.82
1215.79
1211.68
1207.48
1203.2
1198.82
1194.35
1189.78
1185.12
1180.35
1175.48
1170.51
1165.43
1160.23
1154.93
1149.52
1143.99
1138.35
1132.59
1126.71
1120.71
1114.6
1108.37
1102.01
1095.54
1088.94
1082.23
1075.39
1068.44
1061.37
1054.18
1046.87
1039.45
1031.92
1024.27
1016.51
1008.64
1000.67
992.585
984.401
976.116
967.734
959.256
950.686
942.027
933.282
924.455
915.548
906.564
897.508
888.381
879.187
869.929
860.609
851.232
841.799
832.317
822.789
813.224
803.61
793.95
784.239
774.483
764.706
754.948
745.244
735.604
726.024
716.491
706.993
697.522
688.075
678.653
669.263
659.908
650.596
641.331
632.12
622.967
613.876
604.859
595.916
587.049
578.286
569.616
561.042
552.568
544.196
535.931
527.777
519.739
511.821
504.028
496.363
488.83
481.433
474.175
467.061
460.093
453.276
446.611
440.102
433.753
427.566
421.543
415.688
410.004
404.492
399.155
393.996
389.017
384.22
379.607
375.181
370.943
366.895
363.038
359.376
355.91
352.64
349.57
346.699
344.031
341.564
339.302
337.244
335.391
333.744
332.303
331.068
330.04
329.218
328.602
328.194
327.986
2824.72
2824.5
2824.04
2823.36
2822.44
2821.31
2819.94
2818.35
2816.54
2814.5
2812.23
2809.74
2807.03
2804.1
2800.94
2797.57
2793.97
2790.15
2786.12
2781.87
2777.4
2772.71
2767.81
2762.69
2757.36
2751.82
2746.06
2740.1
2733.93
2727.55
2720.97
2714.19
2707.2
2700.02
2692.64
2685.06
2677.29
2669.33
2661.19
2652.86
2644.35
2635.65
2626.79
2617.75
2608.54
2599.16
2589.62
2579.93
2570.07
2560.07
2549.91
2539.61
2529.17
2518.59
2507.87
2497.02
2486.05
2474.95
2463.73
2452.4
2440.96
2429.41
2417.76
2406.01
2394.16
2382.23
2370.22
2358.12
2345.95
2333.71
2321.41
2309.04
2296.62
2284.15
2271.62
2259.06
2246.46
2233.83
2221.16
2208.48
2195.77
2183.05
2170.32
2157.59
2144.85
2132.12
2119.4
2106.68
2093.99
2081.31
2068.66
2056.03
2043.44
2030.89
2018.38
2005.91
1993.49
1981.12
1968.8
1956.55
1944.35
1932.23
1920.17
1908.19
1896.28
1884.45
1872.7
1861.04
1849.47
1837.99
1826.61
1815.32
1804.13
1793.04
1782.06
1771.19
1760.43
1749.77
1739.24
1728.82
1718.51
1708.33
1698.27
1688.34
1678.53
1668.85
1659.3
1649.87
1640.58
1631.43
1622.4
1613.51
1604.76
1596.14
1587.66
1579.32
1571.12
1563.06
1555.13
1547.35
1539.72
1532.21
1524.83
1517.59
1510.5
1503.55
1496.73
1490.05
1483.5
1477.1
1470.82
1464.68
1458.66
1452.78
1447.03
1441.4
1435.89
1430.5
1425.24
1420.09
1415.05
1410.13
1405.31
1400.6
1396
1391.5
1387.1
1382.8
1378.6
1374.48
1370.46
1366.52
1362.66
1358.88
1355.17
1351.54
1347.97
1344.47
1341.02
1337.64
1334.3
1331.02
1327.78
1324.58
1321.42
1318.29
1315.19
1312.11
1309.05
1306.01
1302.99
1299.97
1296.96
1293.95
1290.93
1287.91
1284.87
1281.82
1278.75
1275.66
1272.54
1269.39
1266.21
1262.99
1259.73
1256.42
1253.07
1249.66
1246.2
1242.68
1239.1
1235.46
1231.74
1227.96
1224.1
1220.16
1216.15
1212.05
1207.86
1203.59
1199.22
1194.76
1190.2
1185.54
1180.79
1175.92
1170.96
1165.88
1160.69
1155.4
1149.99
1144.46
1138.82
1133.06
1127.19
1121.19
1115.08
1108.84
1102.49
1096.01
1089.41
1082.69
1075.86
1068.9
1061.82
1054.62
1047.3
1039.87
1032.33
1024.67
1016.89
1009.01
1001.02
992.92
984.719
976.416
968.015
959.519
950.929
942.249
933.483
924.633
915.703
906.695
897.615
888.464
879.247
869.967
860.628
851.234
841.787
832.293
822.755
813.178
803.564
793.921
784.254
774.578
764.903
755.234
745.578
735.938
726.315
716.711
707.131
697.577
688.055
678.569
669.123
659.722
650.369
641.069
631.827
622.647
613.535
604.497
595.539
586.674
577.878
569.176
560.572
552.076
543.669
535.369
527.186
519.122
511.18
503.364
495.676
488.121
480.703
473.425
466.291
459.303
452.466
445.783
439.256
432.889
426.685
420.646
414.775
409.075
403.549
398.198
393.026
388.033
383.224
378.599
374.162
369.913
365.854
361.989
358.317
354.842
351.564
348.486
345.609
342.934
340.462
338.195
336.133
334.276
332.627
331.184
329.948
328.919
328.097
327.479
327.066
326.856
2826.42
2826.19
2825.74
2825.05
2824.13
2822.99
2821.63
2820.03
2818.21
2816.17
2813.9
2811.4
2808.69
2805.75
2802.58
2799.2
2795.6
2791.77
2787.73
2783.46
2778.98
2774.29
2769.37
2764.24
2758.9
2753.35
2747.58
2741.61
2735.42
2729.03
2722.43
2715.64
2708.63
2701.43
2694.04
2686.44
2678.66
2670.68
2662.52
2654.17
2645.64
2636.93
2628.05
2618.99
2609.76
2600.36
2590.8
2581.08
2571.2
2561.17
2550.98
2540.66
2530.18
2519.57
2508.83
2497.95
2486.94
2475.81
2464.56
2453.19
2441.71
2430.13
2418.44
2406.66
2394.78
2382.81
2370.76
2358.63
2346.42
2334.15
2321.81
2309.4
2296.94
2284.43
2271.87
2259.27
2246.64
2233.97
2221.27
2208.55
2195.81
2183.05
2170.29
2157.52
2144.75
2131.98
2119.23
2106.48
2093.75
2081.04
2068.36
2055.71
2043.09
2030.5
2017.96
2005.46
1993.01
1980.61
1968.27
1955.99
1943.77
1931.62
1919.54
1907.53
1895.6
1883.75
1871.98
1860.3
1848.7
1837.2
1825.8
1814.49
1803.28
1792.18
1781.18
1770.28
1759.5
1748.84
1738.28
1727.85
1717.53
1707.34
1697.26
1687.32
1677.5
1667.8
1658.24
1648.81
1639.51
1630.35
1621.31
1612.42
1603.66
1595.04
1586.55
1578.21
1570
1561.94
1554.01
1546.22
1538.57
1531.05
1523.7
1516.48
1509.39
1502.44
1495.63
1488.95
1482.41
1476.01
1469.74
1463.6
1457.59
1451.72
1445.97
1440.35
1434.86
1429.49
1424.24
1419.11
1414.1
1409.2
1404.41
1399.73
1395.15
1390.68
1386.3
1382.03
1377.84
1373.75
1369.75
1365.84
1362.01
1358.25
1354.58
1350.97
1347.43
1343.96
1340.55
1337.19
1333.89
1330.63
1327.42
1324.25
1321.12
1318.02
1314.95
1311.9
1308.88
1305.87
1302.88
1299.89
1296.9
1293.92
1290.94
1287.94
1284.94
1281.91
1278.87
1275.81
1272.72
1269.6
1266.44
1263.25
1260.01
1256.73
1253.4
1250.02
1246.58
1243.09
1239.53
1235.91
1232.21
1228.45
1224.61
1220.69
1216.7
1212.61
1208.44
1204.19
1199.84
1195.39
1190.85
1186.2
1181.46
1176.61
1171.65
1166.59
1161.41
1156.12
1150.72
1145.2
1139.56
1133.81
1127.93
1121.94
1115.82
1109.59
1103.23
1096.75
1090.15
1083.42
1076.57
1069.61
1062.52
1055.31
1047.98
1040.54
1032.98
1025.3
1017.51
1009.61
1001.6
993.483
985.262
976.939
968.516
959.996
951.383
942.678
933.886
925.01
916.052
907.017
897.909
888.729
879.484
870.175
860.808
851.387
841.915
832.397
822.838
813.243
803.616
793.962
784.287
774.596
764.893
755.186
745.486
735.801
726.138
716.5
706.891
697.312
687.763
678.247
668.769
659.332
649.942
640.603
631.322
622.103
612.954
603.878
594.881
585.968
577.139
568.4
559.755
551.202
542.769
534.443
526.239
518.148
510.176
502.329
494.611
487.026
479.578
472.271
465.108
458.093
451.229
444.518
437.966
431.573
425.345
419.282
413.388
407.666
402.118
396.747
391.555
386.544
381.717
377.076
372.622
368.358
364.286
360.407
356.723
353.237
349.948
346.86
343.974
341.291
338.811
336.537
334.469
332.608
330.954
329.507
328.27
327.24
326.418
325.801
325.384
325.166
2828.71
2828.49
2828.03
2827.34
2826.42
2825.28
2823.9
2822.31
2820.48
2818.43
2816.15
2813.65
2810.92
2807.97
2804.8
2801.41
2797.79
2793.95
2789.9
2785.62
2781.12
2776.41
2771.48
2766.34
2760.98
2755.41
2749.62
2743.63
2737.43
2731.01
2724.4
2717.58
2710.56
2703.33
2695.91
2688.3
2680.49
2672.49
2664.3
2655.93
2647.37
2638.63
2629.72
2620.63
2611.37
2601.94
2592.34
2582.59
2572.67
2562.6
2552.38
2542.02
2531.5
2520.85
2510.06
2499.14
2488.09
2476.91
2465.62
2454.21
2442.68
2431.05
2419.32
2407.49
2395.56
2383.55
2371.45
2359.27
2347.01
2334.69
2322.3
2309.85
2297.34
2284.78
2272.17
2259.53
2246.84
2234.13
2221.38
2208.61
2195.83
2183.03
2170.22
2157.4
2144.59
2131.78
2118.98
2106.19
2093.42
2080.67
2067.94
2055.25
2042.59
2029.97
2017.38
2004.85
1992.36
1979.93
1967.55
1955.23
1942.98
1930.8
1918.68
1906.64
1894.68
1882.8
1871
1859.29
1847.66
1836.14
1824.7
1813.37
1802.14
1791.01
1779.98
1769.07
1758.27
1747.58
1737.01
1726.55
1716.22
1706.01
1695.92
1685.96
1676.12
1666.42
1656.84
1647.4
1638.09
1628.91
1619.87
1610.97
1602.2
1593.58
1585.09
1576.74
1568.53
1560.46
1552.54
1544.75
1537.1
1529.6
1522.23
1515.01
1507.93
1500.99
1494.18
1487.52
1480.99
1474.59
1468.34
1462.21
1456.22
1450.36
1444.64
1439.03
1433.56
1428.21
1422.98
1417.87
1412.88
1408
1403.23
1398.58
1394.03
1389.58
1385.24
1380.99
1376.84
1372.79
1368.82
1364.94
1361.14
1357.43
1353.79
1350.22
1346.72
1343.28
1339.91
1336.59
1333.33
1330.11
1326.94
1323.82
1320.73
1317.67
1314.64
1311.63
1308.65
1305.68
1302.73
1299.78
1296.84
1293.89
1290.95
1287.99
1285.02
1282.04
1279.04
1276.01
1272.95
1269.87
1266.75
1263.59
1260.39
1257.14
1253.85
1250.5
1247.09
1243.63
1240.1
1236.5
1232.84
1229.1
1225.29
1221.4
1217.43
1213.37
1209.23
1204.99
1200.66
1196.24
1191.71
1187.09
1182.36
1177.53
1172.58
1167.53
1162.37
1157.09
1151.69
1146.18
1140.55
1134.8
1128.93
1122.94
1116.83
1110.59
1104.23
1097.74
1091.13
1084.4
1077.54
1070.56
1063.46
1056.24
1048.89
1041.43
1033.85
1026.16
1018.34
1010.42
1002.39
994.246
985.999
977.648
969.197
960.648
952.004
943.269
934.445
925.535
916.544
907.475
898.331
889.116
879.835
870.49
861.088
851.631
842.124
832.573
822.98
813.353
803.695
794.012
784.308
774.591
764.866
755.139
745.416
735.7
725.996
716.309
706.643
697.003
687.395
677.821
668.288
658.798
649.356
639.968
630.638
621.372
612.174
603.049
594.003
585.04
576.164
567.378
558.689
550.101
541.622
533.257
524.996
516.855
508.837
500.947
493.187
485.561
478.072
470.726
463.524
456.471
449.57
442.824
436.236
429.81
423.549
417.454
411.53
405.778
400.202
394.804
389.586
384.551
379.7
375.037
370.562
366.279
362.188
358.293
354.594
351.093
347.791
344.691
341.794
339.101
336.613
334.331
332.256
330.388
328.729
327.279
326.039
325.009
324.188
323.569
323.148
322.925
2831.6
2831.37
2830.91
2830.22
2829.3
2828.15
2826.77
2825.16
2823.33
2821.27
2818.98
2816.47
2813.73
2810.77
2807.59
2804.18
2800.55
2796.69
2792.62
2788.32
2783.81
2779.08
2774.13
2768.96
2763.58
2757.99
2752.18
2746.17
2739.94
2733.5
2726.86
2720.01
2712.96
2705.71
2698.26
2690.62
2682.78
2674.75
2666.53
2658.12
2649.53
2640.75
2631.8
2622.67
2613.37
2603.9
2594.27
2584.47
2574.51
2564.4
2554.13
2543.71
2533.15
2522.45
2511.61
2500.64
2489.53
2478.3
2466.95
2455.49
2443.91
2432.22
2420.43
2408.54
2396.55
2384.48
2372.32
2360.08
2347.77
2335.38
2322.93
2310.42
2297.85
2285.23
2272.56
2259.86
2247.11
2234.34
2221.53
2208.7
2195.86
2183
2170.14
2157.27
2144.4
2131.53
2118.67
2105.83
2093.01
2080.2
2067.43
2054.68
2041.97
2029.3
2016.67
2004.09
1991.55
1979.07
1966.65
1954.29
1942
1929.77
1917.61
1905.53
1893.53
1881.61
1869.77
1858.02
1846.37
1834.8
1823.34
1811.97
1800.71
1789.55
1778.5
1767.55
1756.72
1746.01
1735.41
1724.93
1714.58
1704.34
1694.23
1684.25
1674.4
1664.67
1655.08
1645.62
1636.3
1627.11
1618.06
1609.15
1600.37
1591.74
1583.24
1574.89
1566.67
1558.6
1550.67
1542.89
1535.24
1527.74
1520.38
1513.16
1506.09
1499.15
1492.36
1485.7
1479.19
1472.81
1466.57
1460.46
1454.48
1448.64
1442.93
1437.35
1431.9
1426.57
1421.36
1416.28
1411.32
1406.47
1401.73
1397.11
1392.6
1388.19
1383.88
1379.68
1375.57
1371.56
1367.64
1363.8
1360.05
1356.38
1352.78
1349.26
1345.81
1342.43
1339.1
1335.84
1332.62
1329.46
1326.34
1323.26
1320.23
1317.22
1314.24
1311.29
1308.36
1305.44
1302.54
1299.64
1296.75
1293.85
1290.96
1288.05
1285.13
1282.2
1279.24
1276.26
1273.25
1270.21
1267.14
1264.02
1260.86
1257.66
1254.4
1251.09
1247.73
1244.3
1240.81
1237.25
1233.62
1229.92
1226.15
1222.29
1218.35
1214.32
1210.21
1206
1201.7
1197.3
1192.8
1188.2
1183.49
1178.68
1173.75
1168.72
1163.57
1158.3
1152.92
1147.42
1141.8
1136.05
1130.19
1124.19
1118.08
1111.84
1105.47
1098.98
1092.37
1085.62
1078.75
1071.76
1064.64
1057.4
1050.04
1042.56
1034.95
1027.23
1019.4
1011.45
1003.38
995.211
986.932
978.548
970.062
961.477
952.796
944.022
935.159
926.21
917.177
908.066
898.88
889.622
880.298
870.91
861.463
851.961
842.41
832.814
823.178
813.505
803.803
794.075
784.327
774.564
764.792
755.015
745.238
735.468
725.709
715.966
706.244
696.546
686.879
677.246
667.652
658.101
648.599
639.151
629.761
620.435
611.177
601.993
592.887
583.864
574.929
566.086
557.34
548.696
540.158
531.731
523.416
515.22
507.152
499.21
491.399
483.722
476.184
468.789
461.539
454.439
447.492
440.702
434.071
427.602
421.3
415.166
409.203
403.414
397.803
392.37
387.12
382.053
377.173
372.482
367.981
363.672
359.559
355.641
351.922
348.402
345.084
341.969
339.057
336.351
333.852
331.559
329.475
327.599
325.932
324.476
323.231
322.198
321.373
320.752
320.328
320.101
2835.06
2834.84
2834.38
2833.68
2832.75
2831.59
2830.21
2828.6
2826.76
2824.69
2822.39
2819.86
2817.11
2814.14
2810.94
2807.51
2803.86
2799.99
2795.9
2791.58
2787.05
2782.29
2777.32
2772.13
2766.72
2761.1
2755.27
2749.22
2742.97
2736.5
2729.83
2722.95
2715.87
2708.58
2701.1
2693.42
2685.54
2677.47
2669.21
2660.76
2652.13
2643.31
2634.31
2625.14
2615.79
2606.27
2596.58
2586.73
2576.72
2566.55
2556.23
2545.75
2535.13
2524.37
2513.46
2502.43
2491.26
2479.96
2468.55
2457.01
2445.37
2433.61
2421.75
2409.79
2397.73
2385.59
2373.36
2361.04
2348.66
2336.2
2323.68
2311.09
2298.45
2285.76
2273.02
2260.24
2247.43
2234.58
2221.7
2208.81
2195.89
2182.96
2170.03
2157.09
2144.15
2131.22
2118.3
2105.39
2092.51
2079.64
2066.8
2054
2041.22
2028.49
2015.81
2003.16
1990.58
1978.04
1965.57
1953.15
1940.8
1928.53
1916.32
1904.19
1892.14
1880.18
1868.3
1856.5
1844.8
1833.2
1821.69
1810.29
1798.99
1787.79
1776.7
1765.73
1754.86
1744.12
1733.49
1722.98
1712.6
1702.34
1692.2
1682.2
1672.32
1662.58
1652.96
1643.49
1634.15
1624.94
1615.88
1606.95
1598.17
1589.52
1581.02
1572.66
1564.44
1556.37
1548.44
1540.65
1533.01
1525.51
1518.16
1510.94
1503.88
1496.95
1490.17
1483.52
1477.02
1470.66
1464.43
1458.35
1452.39
1446.58
1440.89
1435.34
1429.91
1424.61
1419.44
1414.39
1409.46
1404.65
1399.96
1395.38
1390.9
1386.54
1382.28
1378.12
1374.06
1370.1
1366.22
1362.44
1358.74
1355.13
1351.59
1348.12
1344.73
1341.4
1338.14
1334.93
1331.78
1328.68
1325.62
1322.61
1319.63
1316.68
1313.77
1310.88
1308.01
1305.15
1302.31
1299.48
1296.64
1293.81
1290.97
1288.13
1285.27
1282.39
1279.49
1276.56
1273.61
1270.62
1267.6
1264.54
1261.43
1258.28
1255.07
1251.81
1248.49
1245.11
1241.67
1238.15
1234.57
1230.91
1227.17
1223.36
1219.45
1215.46
1211.38
1207.21
1202.94
1198.57
1194.1
1189.53
1184.85
1180.06
1175.16
1170.14
1165.01
1159.76
1154.39
1148.9
1143.29
1137.55
1131.69
1125.71
1119.59
1113.35
1106.98
1100.48
1093.85
1087.1
1080.22
1073.21
1066.07
1058.81
1051.43
1043.92
1036.29
1028.54
1020.67
1012.69
1004.59
996.384
988.067
979.643
971.116
962.489
953.764
944.945
936.036
927.039
917.958
908.797
899.561
890.252
880.875
871.434
861.934
852.379
842.774
833.123
823.431
813.703
803.944
794.159
784.354
774.532
764.7
754.861
745.023
735.188
725.363
715.552
705.76
695.993
686.254
676.549
666.883
657.26
647.686
638.166
628.704
619.307
609.977
600.722
591.545
582.451
573.446
564.534
555.719
547.007
538.401
529.907
521.529
513.273
505.135
497.128
489.253
481.515
473.917
466.462
459.155
451.999
444.997
438.153
431.47
424.951
418.599
412.417
406.409
400.576
394.921
389.448
384.157
379.053
374.137
369.411
364.878
360.539
356.396
352.452
348.707
345.164
341.824
338.689
335.759
333.037
330.522
328.216
326.119
324.233
322.557
321.092
319.839
318.798
317.968
317.343
316.918
316.69
2839.1
2838.87
2838.41
2837.71
2836.78
2835.62
2834.22
2832.6
2830.75
2828.67
2826.36
2823.82
2821.06
2818.07
2814.85
2811.4
2807.74
2803.84
2799.73
2795.39
2790.83
2786.05
2781.05
2775.84
2770.4
2764.75
2758.89
2752.81
2746.52
2740.02
2733.31
2726.4
2719.27
2711.95
2704.43
2696.7
2688.78
2680.66
2672.36
2663.86
2655.17
2646.3
2637.25
2628.02
2618.62
2609.04
2599.29
2589.38
2579.3
2569.07
2558.68
2548.14
2537.45
2526.61
2515.64
2504.52
2493.28
2481.91
2470.42
2458.8
2447.07
2435.24
2423.29
2411.25
2399.11
2386.88
2374.57
2362.17
2349.7
2337.16
2324.55
2311.88
2299.15
2286.38
2273.55
2260.69
2247.79
2234.86
2221.9
2208.92
2195.93
2182.92
2169.9
2156.88
2143.87
2130.86
2117.86
2104.88
2091.92
2078.98
2066.07
2053.19
2040.35
2027.55
2014.79
2002.08
1989.43
1976.83
1964.29
1951.82
1939.41
1927.07
1914.81
1902.62
1890.52
1878.5
1866.56
1854.72
1842.97
1831.32
1819.77
1808.31
1796.97
1785.73
1774.6
1763.58
1752.68
1741.9
1731.24
1720.69
1710.28
1699.99
1689.82
1679.79
1669.89
1660.12
1650.48
1640.99
1631.63
1622.4
1613.32
1604.38
1595.58
1586.93
1578.42
1570.05
1561.83
1553.75
1545.82
1538.03
1530.38
1522.89
1515.54
1508.34
1501.28
1494.37
1487.6
1480.97
1474.48
1468.14
1461.93
1455.87
1449.94
1444.15
1438.49
1432.97
1427.58
1422.31
1417.18
1412.16
1407.28
1402.51
1397.86
1393.32
1388.9
1384.59
1380.38
1376.28
1372.27
1368.37
1364.56
1360.84
1357.2
1353.65
1350.18
1346.78
1343.46
1340.2
1337
1333.87
1330.79
1327.76
1324.77
1321.83
1318.93
1316.06
1313.22
1310.4
1307.6
1304.82
1302.05
1299.29
1296.53
1293.76
1291
1288.22
1285.43
1282.62
1279.78
1276.92
1274.04
1271.11
1268.15
1265.15
1262.1
1259.01
1255.86
1252.66
1249.39
1246.07
1242.68
1239.21
1235.68
1232.07
1228.38
1224.61
1220.75
1216.8
1212.77
1208.63
1204.4
1200.07
1195.64
1191.09
1186.44
1181.68
1176.81
1171.82
1166.71
1161.48
1156.12
1150.65
1145.05
1139.32
1133.46
1127.48
1121.36
1115.12
1108.74
1102.24
1095.6
1088.83
1081.94
1074.91
1067.75
1060.47
1053.06
1045.52
1037.86
1030.08
1022.18
1014.15
1006.02
997.767
989.406
980.937
972.363
963.686
954.911
946.039
937.076
928.024
918.887
909.668
900.372
891.003
881.566
872.063
862.5
852.881
843.211
833.495
823.737
813.942
804.115
794.261
784.385
774.491
764.586
754.674
744.759
734.848
724.944
715.053
705.181
695.332
685.511
675.723
665.974
656.268
646.61
637.007
627.462
617.98
608.568
599.229
589.97
580.794
571.707
562.714
553.819
545.027
536.342
527.77
519.315
510.98
502.768
494.689
486.742
478.933
471.265
463.742
456.368
449.146
442.08
435.173
428.43
421.852
415.442
409.205
403.143
397.258
391.553
386.031
380.695
375.547
370.588
365.822
361.25
356.875
352.698
348.721
344.946
341.375
338.008
334.848
331.896
329.153
326.619
324.295
322.183
320.283
318.595
317.119
315.856
314.806
313.968
313.339
312.914
312.685
2843.71
2843.48
2843.02
2842.31
2841.38
2840.21
2838.81
2837.18
2835.32
2833.23
2830.9
2828.35
2825.57
2822.56
2819.33
2815.86
2812.17
2808.26
2804.12
2799.76
2795.17
2790.36
2785.34
2780.09
2774.62
2768.94
2763.04
2756.92
2750.6
2744.06
2737.31
2730.35
2723.19
2715.82
2708.24
2700.47
2692.5
2684.33
2675.97
2667.41
2658.67
2649.74
2640.63
2631.33
2621.86
2612.22
2602.4
2592.42
2582.27
2571.96
2561.49
2550.87
2540.1
2529.18
2518.12
2506.93
2495.6
2484.14
2472.55
2460.85
2449.03
2437.1
2425.06
2412.93
2400.69
2388.37
2375.96
2363.46
2350.89
2338.25
2325.55
2312.78
2299.96
2287.08
2274.16
2261.2
2248.2
2235.18
2222.12
2209.05
2195.96
2182.86
2169.75
2156.64
2143.53
2130.44
2117.35
2104.28
2091.23
2078.21
2065.22
2052.26
2039.33
2026.45
2013.62
2000.84
1988.11
1975.43
1962.82
1950.28
1937.8
1925.4
1913.07
1900.82
1888.65
1876.57
1864.57
1852.67
1840.87
1829.16
1817.55
1806.05
1794.65
1783.36
1772.18
1761.12
1750.18
1739.35
1728.65
1718.07
1707.61
1697.29
1687.09
1677.02
1667.09
1657.29
1647.63
1638.11
1628.73
1619.49
1610.39
1601.43
1592.62
1583.95
1575.43
1567.05
1558.82
1550.74
1542.8
1535.02
1527.38
1519.89
1512.54
1505.35
1498.3
1491.4
1484.64
1478.03
1471.56
1465.24
1459.06
1453.02
1447.12
1441.36
1435.74
1430.25
1424.9
1419.67
1414.58
1409.61
1404.77
1400.05
1395.46
1390.98
1386.61
1382.35
1378.21
1374.17
1370.23
1366.39
1362.65
1359
1355.44
1351.96
1348.56
1345.24
1342
1338.82
1335.7
1332.65
1329.65
1326.7
1323.8
1320.95
1318.13
1315.34
1312.58
1309.85
1307.14
1304.44
1301.75
1299.07
1296.4
1293.72
1291.03
1288.33
1285.62
1282.88
1280.13
1277.34
1274.53
1271.68
1268.79
1265.86
1262.88
1259.85
1256.77
1253.63
1250.43
1247.17
1243.84
1240.43
1236.96
1233.4
1229.77
1226.05
1222.25
1218.35
1214.36
1210.27
1206.08
1201.8
1197.4
1192.9
1188.28
1183.55
1178.71
1173.74
1168.66
1163.45
1158.12
1152.66
1147.07
1141.35
1135.5
1129.52
1123.41
1117.16
1110.78
1104.26
1097.61
1090.83
1083.92
1076.87
1069.69
1062.38
1054.93
1047.37
1039.67
1031.85
1023.91
1015.84
1007.66
999.363
990.952
982.431
973.803
965.07
956.237
947.306
938.281
929.165
919.963
910.679
901.315
891.877
882.369
872.795
863.159
853.466
843.721
833.928
824.092
814.218
804.311
794.375
784.417
774.439
764.449
754.45
744.448
734.447
724.454
714.472
704.508
694.565
684.651
674.769
664.925
655.124
645.371
635.672
626.031
616.455
606.947
597.514
588.16
578.89
569.71
560.624
551.637
542.754
533.979
525.318
516.774
508.353
500.059
491.893
483.862
475.971
468.223
460.621
453.17
445.874
438.735
431.757
424.944
418.298
411.823
405.523
399.399
393.454
387.692
382.116
376.726
371.527
366.52
361.707
357.091
352.674
348.457
344.443
340.633
337.028
333.631
330.442
327.463
324.695
322.138
319.794
317.663
315.746
314.043
312.555
311.28
310.22
309.375
308.741
308.314
308.085
2848.91
2848.67
2848.2
2847.5
2846.55
2845.38
2843.97
2842.33
2840.46
2838.36
2836.02
2833.45
2830.66
2827.63
2824.37
2820.89
2817.18
2813.24
2809.07
2804.68
2800.07
2795.23
2790.17
2784.89
2779.39
2773.67
2767.73
2761.57
2755.2
2748.62
2741.83
2734.82
2727.6
2720.18
2712.56
2704.73
2696.7
2688.47
2680.05
2671.43
2662.62
2653.62
2644.44
2635.07
2625.53
2615.81
2605.91
2595.84
2585.61
2575.22
2564.66
2553.95
2543.09
2532.08
2520.93
2509.64
2498.21
2486.65
2474.97
2463.16
2451.24
2439.2
2427.06
2414.82
2402.47
2390.04
2377.52
2364.92
2352.24
2339.49
2326.67
2313.79
2300.85
2287.87
2274.84
2261.77
2248.66
2235.53
2222.36
2209.18
2195.99
2182.78
2169.57
2156.36
2143.15
2129.95
2116.76
2103.6
2090.45
2077.33
2064.25
2051.19
2038.18
2025.21
2012.29
1999.42
1986.61
1973.85
1961.16
1948.53
1935.98
1923.5
1911.09
1898.77
1886.53
1874.38
1862.32
1850.35
1838.48
1826.71
1815.04
1803.48
1792.02
1780.68
1769.45
1758.34
1747.34
1736.47
1725.72
1715.09
1704.6
1694.23
1684
1673.89
1663.93
1654.1
1644.41
1634.86
1625.45
1616.19
1607.06
1598.09
1589.26
1580.58
1572.04
1563.65
1555.42
1547.33
1539.39
1531.61
1523.97
1516.48
1509.14
1501.96
1494.92
1488.03
1481.29
1474.7
1468.26
1461.96
1455.8
1449.8
1443.93
1438.2
1432.62
1427.17
1421.86
1416.68
1411.63
1406.72
1401.93
1397.27
1392.73
1388.31
1384.01
1379.82
1375.74
1371.78
1367.91
1364.15
1360.48
1356.91
1353.44
1350.04
1346.73
1343.5
1340.34
1337.25
1334.23
1331.27
1328.37
1325.51
1322.71
1319.95
1317.22
1314.53
1311.87
1309.24
1306.62
1304.02
1301.43
1298.84
1296.26
1293.67
1291.07
1288.46
1285.84
1283.19
1280.52
1277.82
1275.09
1272.33
1269.52
1266.66
1263.76
1260.81
1257.8
1254.74
1251.61
1248.42
1245.15
1241.82
1238.41
1234.92
1231.35
1227.69
1223.94
1220.1
1216.16
1212.13
1207.99
1203.75
1199.4
1194.94
1190.36
1185.67
1180.86
1175.93
1170.87
1165.69
1160.37
1154.93
1149.36
1143.65
1137.81
1131.83
1125.72
1119.47
1113.08
1106.56
1099.9
1093.1
1086.16
1079.09
1071.88
1064.54
1057.06
1049.46
1041.72
1033.86
1025.87
1017.76
1009.53
1001.17
992.707
984.127
975.438
966.642
957.743
948.745
939.65
930.464
921.188
911.829
902.389
892.872
883.284
873.628
863.909
854.132
844.301
834.42
824.496
814.531
804.533
794.504
784.451
774.378
764.29
754.193
744.091
733.989
723.893
713.809
703.74
693.693
683.672
673.684
663.733
653.825
643.965
634.158
624.41
614.726
605.111
595.571
586.111
576.735
567.449
558.259
549.168
540.182
531.306
522.543
513.9
505.381
496.989
488.729
480.605
472.622
464.784
457.094
449.557
442.176
434.954
427.896
421.004
414.283
407.734
401.362
395.169
389.158
383.331
377.692
372.243
366.986
361.924
357.059
352.393
347.929
343.667
339.61
335.76
332.117
328.685
325.463
322.453
319.656
317.074
314.706
312.554
310.617
308.898
307.394
306.108
305.038
304.185
303.545
303.115
302.884
2854.68
2854.45
2853.97
2853.26
2852.32
2851.13
2849.72
2848.07
2846.18
2844.07
2841.72
2839.13
2836.32
2833.27
2829.99
2826.49
2822.75
2818.79
2814.59
2810.17
2805.53
2800.66
2795.56
2790.24
2784.7
2778.94
2772.96
2766.76
2760.34
2753.71
2746.87
2739.81
2732.54
2725.06
2717.37
2709.48
2701.38
2693.09
2684.6
2675.91
2667.02
2657.95
2648.69
2639.24
2629.61
2619.81
2609.82
2599.67
2589.34
2578.85
2568.2
2557.39
2546.43
2535.32
2524.06
2512.66
2501.12
2489.45
2477.65
2465.73
2453.7
2441.54
2429.28
2416.92
2404.46
2391.9
2379.26
2366.53
2353.73
2340.85
2327.91
2314.91
2301.85
2288.74
2275.59
2262.39
2249.16
2235.91
2222.62
2209.32
2196.01
2182.68
2169.36
2156.03
2142.71
2129.4
2116.1
2102.82
2089.57
2076.34
2063.15
2050
2036.88
2023.81
2010.8
1997.83
1984.92
1972.07
1959.29
1946.58
1933.93
1921.37
1908.88
1896.48
1884.16
1871.93
1859.79
1847.75
1835.81
1823.97
1812.23
1800.6
1789.09
1777.68
1766.39
1755.22
1744.17
1733.24
1722.44
1711.77
1701.23
1690.81
1680.54
1670.39
1660.39
1650.53
1640.8
1631.22
1621.78
1612.49
1603.35
1594.35
1585.5
1576.8
1568.25
1559.86
1551.61
1543.52
1535.58
1527.79
1520.15
1512.67
1505.34
1498.16
1491.14
1484.27
1477.55
1470.98
1464.56
1458.29
1452.16
1446.19
1440.36
1434.67
1429.12
1423.72
1418.46
1413.33
1408.34
1403.48
1398.75
1394.15
1389.68
1385.33
1381.1
1376.99
1372.99
1369.1
1365.32
1361.64
1358.06
1354.58
1351.2
1347.9
1344.68
1341.55
1338.49
1335.51
1332.59
1329.73
1326.93
1324.19
1321.49
1318.83
1316.22
1313.64
1311.09
1308.56
1306.05
1303.55
1301.07
1298.59
1296.11