/*--------------------------------*- C++ -*----------------------------------*\
| =========                 |                                                 |
| \\      /  F ield         | OpenFOAM: The Open Source CFD Toolbox           |
|  \\    /   O peration     | Version:  v2006                                 |
|   \\  /    A nd           | Website:  www.openfoam.com                      |
|    \\/     M anipulation  |                                                 |
\*---------------------------------------------------------------------------*/
FoamFile
{
    version     2.0;
    format      ascii;
    class       surfaceScalarField;
    location    "5.3";
    object      phi;
}
// * * * * * * * * * * * * * * * * * * * * * * * * * * * * * * * * * * * * * //

dimensions      [0 3 -1 0 0 0 0];
oriented        oriented;


internalField   nonuniform List<scalar> 
99450
(
6.1882e-05
-6.1882e-05
0.000136675
-7.47935e-05
0.00020657
-6.9895e-05
0.000275735
-6.91644e-05
0.000343721
-6.79861e-05
0.000411786
-6.80646e-05
0.000478817
-6.70316e-05
0.000545425
-6.66077e-05
0.000611052
-6.56271e-05
0.000675863
-6.48113e-05
0.000739678
-6.38149e-05
0.00080243
-6.27523e-05
0.000864032
-6.16014e-05
0.000924389
-6.03576e-05
0.00098341
-5.90203e-05
0.00104101
-5.75984e-05
0.00109709
-5.60861e-05
0.00115159
-5.44909e-05
0.0012044
-5.28189e-05
0.00125547
-5.10685e-05
0.00130472
-4.92464e-05
0.00135208
-4.73649e-05
0.00139751
-4.54273e-05
0.00144095
-4.34347e-05
0.00148235
-4.13994e-05
0.00152167
-3.93268e-05
0.00155889
-3.72179e-05
0.00159397
-3.50772e-05
0.00162688
-3.29139e-05
0.00165761
-3.07327e-05
0.00168616
-2.85428e-05
0.00171251
-2.63491e-05
0.00173667
-2.41606e-05
0.00175865
-2.19825e-05
0.00177847
-1.98192e-05
0.00179615
-1.76788e-05
0.0018117
-1.55536e-05
0.00182514
-1.34417e-05
0.00183648
-1.13351e-05
0.0018457
-9.21952e-06
0.00185278
-7.08096e-06
0.00185769
-4.91065e-06
0.00186041
-2.7236e-06
0.00186103
-6.21292e-07
0.00185961
1.4278e-06
0.00185633
3.27598e-06
0.00185141
4.91922e-06
0.00184507
6.33839e-06
0.00183748
7.59474e-06
0.00182866
8.81309e-06
0.00181858
1.00884e-05
0.00180714
1.14373e-05
0.00179431
1.28243e-05
0.0017801
1.42131e-05
0.00176452
1.55846e-05
0.00174759
1.69288e-05
0.00172934
1.82461e-05
0.00170981
1.95302e-05
0.00168904
2.07759e-05
0.00166705
2.19864e-05
0.00164389
2.31592e-05
0.0016196
2.42906e-05
0.00159421
2.53846e-05
0.00156778
2.64309e-05
0.00154035
2.74373e-05
0.00151195
2.84006e-05
0.00148263
2.93205e-05
0.00145243
3.01996e-05
0.00142139
3.10388e-05
0.00138955
3.18323e-05
0.00135697
3.25808e-05
0.00132369
3.32851e-05
0.00128975
3.39422e-05
0.00125519
3.45544e-05
0.00122007
3.51265e-05
0.0011844
3.56626e-05
0.00114823
3.61708e-05
0.00111157
3.66579e-05
0.00107444
3.71294e-05
0.00103686
3.75875e-05
0.000998826
3.8031e-05
0.000960369
3.84574e-05
0.000921504
3.88649e-05
0.000882256
3.92484e-05
0.000842643
3.96127e-05
0.000802687
3.99563e-05
0.000762412
4.02748e-05
0.000721837
4.05752e-05
0.000680989
4.08477e-05
0.00063989
4.10991e-05
0.000598561
4.13294e-05
0.000557011
4.155e-05
0.000515273
4.17376e-05
0.000473359
4.19136e-05
0.000431279
4.20801e-05
0.000389021
4.22585e-05
0.000346582
4.2439e-05
0.000303983
4.25985e-05
0.000261396
4.25869e-05
0.000219106
4.22901e-05
0.000177512
4.15944e-05
0.000136941
4.0571e-05
9.76666e-05
3.92743e-05
5.97894e-05
3.78773e-05
2.34121e-05
3.63773e-05
-1.14136e-05
3.48257e-05
-4.46174e-05
3.32038e-05
-7.61681e-05
3.15508e-05
-0.000106036
2.98674e-05
-0.000134174
2.81388e-05
-0.000160539
2.63651e-05
-0.000185067
2.45275e-05
-0.000207708
2.26415e-05
-0.000228386
2.06772e-05
-0.00024707
1.8684e-05
-0.000263717
1.66469e-05
-0.000278316
1.4599e-05
-0.00029087
1.2554e-05
-0.00030142
1.05501e-05
-0.000310021
8.6018e-06
-0.000316741
6.71993e-06
-0.000321678
4.93672e-06
-0.000324903
3.22494e-06
-0.000326494
1.59052e-06
-0.000326526
3.20015e-08
-0.000325123
-1.40213e-06
-0.000322305
-2.81873e-06
-0.000318147
-4.15769e-06
-0.000312703
-5.44434e-06
-0.000306042
-6.66059e-06
-0.00029819
-7.85163e-06
-0.000289224
-8.96645e-06
-0.000279194
-1.00296e-05
-0.000268157
-1.1037e-05
-0.000256174
-1.19833e-05
-0.000243309
-1.28647e-05
-0.000229622
-1.36871e-05
-0.000215174
-1.44481e-05
-0.000200032
-1.51426e-05
-0.000184145
-1.58865e-05
-0.000167826
-1.63187e-05
-0.000150512
-1.73141e-05
-0.000133185
-1.73271e-05
-0.000114537
-1.86478e-05
-9.62923e-05
-1.8245e-05
-7.65626e-05
-1.97298e-05
-5.67138e-05
-1.98488e-05
-3.47865e-05
-2.19272e-05
-1.45078e-05
-2.02787e-05
-1.45078e-05
5.44305e-05
-0.000116312
0.000115151
-0.000135514
0.000174136
-0.000128881
0.000230894
-0.000125922
0.000287822
-0.000124915
0.000344233
-0.000124476
0.000400672
-0.00012347
0.000456447
-0.000122383
0.000511938
-0.000121118
0.000566779
-0.000119652
0.000621072
-0.000118108
0.000674701
-0.000116381
0.000727616
-0.000114517
0.000779769
-0.000112511
0.000831104
-0.000110355
0.000881563
-0.000108057
0.000931093
-0.000105616
0.000979643
-0.000103041
0.00102716
-0.000100333
0.00107358
-9.74907e-05
0.00111886
-9.45232e-05
0.00116293
-9.14385e-05
0.00120574
-8.82423e-05
0.00124726
-8.4946e-05
0.00128741
-8.15499e-05
0.00132615
-7.80697e-05
0.00136343
-7.45008e-05
0.00139923
-7.0875e-05
0.0014335
-6.71845e-05
0.00146621
-6.34371e-05
0.00149731
-5.96441e-05
0.00152677
-5.58147e-05
0.00155457
-5.19603e-05
0.00158068
-4.80857e-05
0.00160506
-4.42004e-05
0.00162769
-4.03104e-05
0.00164856
-3.64215e-05
0.00166766
-3.25496e-05
0.00168502
-2.8695e-05
0.00170066
-2.4856e-05
0.00171462
-2.10427e-05
0.00172697
-1.72585e-05
0.00173775
-1.35026e-05
0.0017469
-9.77679e-06
0.00175438
-6.04781e-06
0.00175995
-2.28928e-06
0.00176354
1.32364e-06
0.00176504
4.84078e-06
0.00176427
8.36498e-06
0.00176123
1.1854e-05
0.00175603
1.5287e-05
0.0017488
1.86647e-05
0.00173964
2.19844e-05
0.00172861
2.52391e-05
0.00171578
2.84244e-05
0.00170117
3.15336e-05
0.00168485
3.45645e-05
0.00166688
3.7507e-05
0.00164729
4.03637e-05
0.00162614
4.31322e-05
0.0016035
4.5804e-05
0.00157941
4.83763e-05
0.00155395
5.08435e-05
0.00152717
5.32153e-05
0.00149913
5.54762e-05
0.0014699
5.76284e-05
0.00143955
5.96731e-05
0.00140814
6.16055e-05
0.00137576
6.34162e-05
0.00134247
6.51318e-05
0.00130833
6.6719e-05
0.00127343
6.81824e-05
0.00123784
6.9537e-05
0.00120163
7.07645e-05
0.00116488
7.18706e-05
0.00112769
7.28563e-05
0.00109014
7.37231e-05
0.00105232
7.44776e-05
0.00101432
7.51232e-05
0.000976244
7.56652e-05
0.000938167
7.61077e-05
0.000900171
7.64539e-05
0.000862334
7.67016e-05
0.000824724
7.68587e-05
0.000787418
7.6918e-05
0.000750491
7.6884e-05
0.000714013
7.67529e-05
0.000678055
7.65328e-05
0.000642673
7.62297e-05
0.00060794
7.58318e-05
0.000573928
7.53419e-05
0.000540718
7.47602e-05
0.000508364
7.40908e-05
0.000476956
7.33214e-05
0.000446562
7.24741e-05
0.000417326
7.14946e-05
0.000389333
7.04322e-05
0.00036274
6.91912e-05
0.000337584
6.77432e-05
0.000313866
6.6008e-05
0.000291436
6.40246e-05
0.00027023
6.17765e-05
0.000250124
5.93808e-05
0.000231095
5.6906e-05
0.000213064
5.44082e-05
0.000196061
5.18286e-05
0.000180069
4.91966e-05
0.000165088
4.65318e-05
0.000151096
4.3859e-05
0.000138084
4.11506e-05
0.000126017
3.84326e-05
0.00011488
3.5664e-05
0.000104582
3.29392e-05
9.5019e-05
3.02406e-05
8.6175e-05
2.7528e-05
7.79041e-05
2.49178e-05
7.01409e-05
2.23622e-05
6.28145e-05
1.98804e-05
5.58877e-05
1.74769e-05
4.93292e-05
1.51603e-05
4.31278e-05
1.29213e-05
3.73103e-05
1.07543e-05
3.18888e-05
8.6464e-06
2.68628e-05
6.61653e-06
2.22341e-05
4.66076e-06
1.80363e-05
2.79568e-06
1.41888e-05
1.02873e-06
1.07706e-05
-7.39497e-07
7.72667e-06
-2.40041e-06
5.05772e-06
-3.99164e-06
2.69197e-06
-5.48588e-06
6.64979e-07
-6.93946e-06
-1.05563e-06
-8.30895e-06
-2.48696e-06
-9.60567e-06
-3.64644e-06
-1.08239e-05
-4.5506e-06
-1.19605e-05
-5.20898e-06
-1.30287e-05
-5.65533e-06
-1.40017e-05
-5.83184e-06
-1.49661e-05
-5.99883e-06
-1.57195e-05
-5.66383e-06
-1.66537e-05
-5.73332e-06
-1.72446e-05
-5.10247e-06
-1.7958e-05
-5.25487e-06
-1.84954e-05
-4.66587e-06
-1.8834e-05
-5.41251e-06
-1.89831e-05
-5.6114e-06
-1.96499e-05
-4.47043e-06
-2.30682e-05
3.66746e-06
-2.84166e-05
-1.08404e-05
5.70313e-05
-0.000173344
0.000122191
-0.000200673
0.00018501
-0.000191699
0.000245331
-0.000186243
0.000305643
-0.000185227
0.0003655
-0.000184333
0.000425216
-0.000183186
0.000484361
-0.000181528
0.000543012
-0.000179769
0.000601047
-0.000177687
0.000658377
-0.000175438
0.000714953
-0.000172957
0.000770691
-0.000170255
0.000825527
-0.000167347
0.000879398
-0.000164227
0.000932243
-0.000160901
0.000984007
-0.00015738
0.00103462
-0.000153655
0.00108402
-0.000149735
0.00113217
-0.000145635
0.00117899
-0.000141346
0.00122444
-0.000136888
0.00126847
-0.000132272
0.00131102
-0.000127495
0.00135204
-0.000122571
0.00139149
-0.00011752
0.00142933
-0.000112346
0.00146551
-0.000107052
0.00149998
-0.00010165
0.00153269
-9.61558e-05
0.00156363
-9.05816e-05
0.00159275
-8.49316e-05
0.00162001
-7.92209e-05
0.00164538
-7.34581e-05
0.00166884
-6.76576e-05
0.00169036
-6.18286e-05
0.00170991
-5.59788e-05
0.00172748
-5.01159e-05
0.00174304
-4.42529e-05
0.00175659
-3.84062e-05
0.00176813
-3.25789e-05
0.00177765
-2.67837e-05
0.00178519
-2.10386e-05
0.00179075
-1.53411e-05
0.00179439
-9.68557e-06
0.0017962
-4.09988e-06
0.00179598
1.54713e-06
0.00179364
7.18116e-06
0.00178933
1.2674e-05
0.00178313
1.80531e-05
0.0017751
2.33158e-05
0.0017653
2.84606e-05
0.00175379
3.34956e-05
0.00174061
3.84249e-05
0.00172579
4.3239e-05
0.00170939
4.79374e-05
0.00169144
5.25105e-05
0.001672
5.69525e-05
0.0016511
6.1259e-05
0.00162881
6.54247e-05
0.00160517
6.94433e-05
0.00158024
7.33094e-05
0.00155406
7.7018e-05
0.00152672
8.05609e-05
0.00149824
8.39494e-05
0.00146871
8.71618e-05
0.00143817
9.02097e-05
0.0014067
9.30818e-05
0.00137434
9.57732e-05
0.00134118
9.82889e-05
0.00130728
0.000100624
0.00127268
0.000102778
0.00123747
0.000104744
0.00120171
0.000106526
0.00116546
0.000108119
0.00112879
0.000109524
0.00109178
0.000110739
0.00105449
0.000111768
0.00101699
0.000112617
0.000979374
0.000113286
0.000941698
0.000113783
0.000904035
0.000114117
0.000866453
0.000114284
0.00082902
0.000114291
0.000791795
0.000114143
0.000754844
0.000113835
0.000718214
0.000113382
0.000681972
0.000112775
0.000646179
0.000112023
0.000610889
0.000111121
0.000576151
0.00011008
0.000542025
0.000108886
0.000508563
0.000107553
0.000475827
0.000106058
0.000443877
0.000104424
0.000412739
0.000102633
0.000382538
0.000100633
0.000353292
9.84372e-05
0.000325023
9.60125e-05
0.000297667
9.3364e-05
0.000271177
9.05143e-05
0.000245473
8.74801e-05
0.000220528
8.4326e-05
0.00019644
8.09937e-05
0.000173244
7.76045e-05
0.000150953
7.41201e-05
0.000129579
7.05699e-05
0.000109161
6.69503e-05
8.97572e-05
6.32628e-05
7.13742e-05
5.95336e-05
5.40414e-05
5.57654e-05
3.77012e-05
5.20042e-05
2.24309e-05
4.82095e-05
8.22406e-06
4.44474e-05
-4.98546e-06
4.07375e-05
-1.71116e-05
3.70439e-05
-2.81795e-05
3.34302e-05
-3.81968e-05
2.98977e-05
-4.71721e-05
2.64522e-05
-5.51126e-05
2.31009e-05
-6.20352e-05
1.98438e-05
-6.79668e-05
1.66859e-05
-7.29429e-05
1.36224e-05
-7.69884e-05
1.0662e-05
-8.0141e-05
7.81341e-06
-8.24328e-05
5.08742e-06
-8.38648e-05
2.46074e-06
-8.45911e-05
-1.31747e-08
-8.46363e-05
-2.35519e-06
-8.4025e-05
-4.60301e-06
-8.27918e-05
-6.71903e-06
-8.10195e-05
-8.71173e-06
-7.87551e-05
-1.05734e-05
-7.60493e-05
-1.23115e-05
-7.29496e-05
-1.39235e-05
-6.9492e-05
-1.54182e-05
-6.57258e-05
-1.67948e-05
-6.1663e-05
-1.80645e-05
-5.73846e-05
-1.92445e-05
-5.28789e-05
-2.02253e-05
-4.82026e-05
-2.13301e-05
-4.34569e-05
-2.19903e-05
-3.84385e-05
-2.29764e-05
-3.36769e-05
-2.32569e-05
-2.8701e-05
-2.381e-05
-2.43623e-05
-2.33218e-05
-1.93315e-05
-2.46807e-05
-1.19809e-05
-3.04188e-05
1.12931e-06
-4.15268e-05
-9.71107e-06
5.84197e-05
-0.000231763
0.000126859
-0.000269113
0.000192216
-0.000257056
0.000255512
-0.000249539
0.00031842
-0.000248134
0.000380926
-0.000246838
0.000443001
-0.000245261
0.000504513
-0.00024304
0.000565301
-0.000240557
0.000625381
-0.000237767
0.000684617
-0.000234674
0.000742967
-0.000231307
0.00080035
-0.000227638
0.000856691
-0.000223688
0.000911929
-0.000219464
0.000965987
-0.000214959
0.0010188
-0.000210189
0.00107031
-0.000205166
0.00112046
-0.000199891
0.0011692
-0.000194372
0.00121647
-0.00018862
0.00126223
-0.000182647
0.00130642
-0.000176461
0.001349
-0.000170075
0.00138994
-0.000163506
0.00142917
-0.000156758
0.00146667
-0.000149846
0.00150241
-0.000142791
0.00153636
-0.000135598
0.00156849
-0.000128282
0.00159876
-0.000120853
0.00162716
-0.000113336
0.00165368
-0.000105733
0.00167828
-9.80616e-05
0.00170095
-9.03319e-05
0.00172168
-8.25586e-05
0.00174046
-7.47576e-05
0.00175729
-6.69396e-05
0.00177215
-5.91157e-05
0.00178504
-5.12984e-05
0.00179596
-4.34968e-05
0.0018049
-3.57282e-05
0.00181186
-2.79984e-05
0.00181683
-2.0304e-05
0.00181979
-1.26509e-05
0.00182072
-5.02992e-06
0.00181989
2.38331e-06
0.00181733
9.74053e-06
0.00181296
1.70356e-05
0.0018068
2.42158e-05
0.00179885
3.12649e-05
0.00178914
3.81708e-05
0.0017777
4.49416e-05
0.00176456
5.15572e-05
0.00174978
5.80224e-05
0.0017334
6.43227e-05
0.00171546
7.04514e-05
0.001696
7.64074e-05
0.00167508
8.21762e-05
0.00165276
8.77501e-05
0.00162907
9.31263e-05
0.00160409
9.82984e-05
0.00157784
0.000103262
0.00155039
0.00010801
0.00152181
0.00011253
0.00149215
0.000116827
0.00146146
0.000120892
0.00142982
0.000124726
0.00139727
0.000128321
0.00136389
0.000131672
0.00132972
0.00013479
0.00129485
0.000137654
0.00125932
0.000140276
0.00122319
0.00014265
0.00118654
0.000144772
0.00114942
0.000146645
0.00111189
0.000148271
0.00107401
0.000149645
0.00103585
0.000150777
0.000997468
0.000151668
0.00095893
0.000152321
0.000920304
0.000152743
0.000881651
0.000152937
0.000843036
0.000152906
0.000804528
0.000152651
0.000766176
0.000152187
0.000728059
0.000151499
0.000690226
0.000150608
0.000652752
0.000149497
0.000615674
0.000148199
0.000579072
0.000146682
0.000543012
0.000144946
0.000507533
0.000143032
0.000472674
0.000140916
0.000438518
0.00013858
0.0004051
0.00013605
0.000372453
0.000133281
0.000340589
0.0001303
0.000309514
0.000127088
0.000279246
0.000123632
0.000249786
0.000119974
0.000221173
0.000116093
0.000193462
0.000112037
0.00016664
0.000107816
0.00014081
0.000103434
0.000115983
9.89466e-05
9.21909e-05
9.43625e-05
6.94703e-05
8.96708e-05
4.78059e-05
8.49271e-05
2.72198e-05
8.01198e-05
7.72472e-06
7.52605e-05
-1.06645e-05
7.03934e-05
-2.79486e-05
6.54937e-05
-4.41038e-05
6.06025e-05
-5.91027e-05
5.57364e-05
-7.29579e-05
5.08992e-05
-8.56506e-05
4.61229e-05
-9.71661e-05
4.14132e-05
-0.000107508
3.67941e-05
-0.000116677
3.22694e-05
-0.000124688
2.78549e-05
-0.000131561
2.35594e-05
-0.00013732
1.93815e-05
-0.000141992
1.53333e-05
-0.0001456
1.14219e-05
-0.000148156
7.64349e-06
-0.000149715
4.02e-06
-0.000150265
5.36544e-07
-0.000149877
-2.74348e-06
-0.000148598
-5.88216e-06
-0.000146467
-8.84976e-06
-0.000143528
-1.16507e-05
-0.000139818
-1.42831e-05
-0.000135386
-1.67436e-05
-0.000130275
-1.90343e-05
-0.000124531
-2.11629e-05
-0.000118203
-2.31221e-05
-0.000111336
-2.49322e-05
-0.000104
-2.658e-05
-9.61637e-05
-2.80618e-05
-8.80145e-05
-2.94793e-05
-7.94067e-05
-3.05981e-05
-7.05779e-05
-3.18052e-05
-6.1383e-05
-3.24519e-05
-5.21114e-05
-3.30816e-05
-4.2816e-05
-3.26172e-05
-3.24878e-05
-3.50088e-05
-1.93324e-05
-4.35742e-05
-3.34619e-06
-5.7513e-05
-1.30573e-05
5.90614e-05
-0.000290825
0.000128662
-0.000338714
0.000194982
-0.000323376
0.000259237
-0.000313794
0.000323037
-0.000311934
0.000386428
-0.00031023
0.000449336
-0.000308169
0.000511634
-0.000305338
0.000573209
-0.000302132
0.000634012
-0.00029857
0.000693946
-0.000294607
0.000752941
-0.000290303
0.000810929
-0.000285626
0.000867836
-0.000280595
0.000923588
-0.000275216
0.000978123
-0.000269494
0.00103138
-0.000263448
0.0010833
-0.000257085
0.00113382
-0.000250411
0.00118289
-0.000243436
0.00123045
-0.000236187
0.00127647
-0.000228665
0.00132089
-0.000220879
0.00136367
-0.000212856
0.00140477
-0.000204603
0.00144414
-0.000196135
0.00148177
-0.000187474
0.00151761
-0.000178627
0.00155163
-0.000169615
0.00158379
-0.000160449
0.00161409
-0.00015115
0.00164249
-0.000141735
0.00166897
-0.000132216
0.00169352
-0.00012261
0.00171612
-0.000112935
0.00173677
-0.000103206
0.00175545
-9.34398e-05
0.00177216
-8.36514e-05
0.0017869
-7.38545e-05
0.00179967
-6.40642e-05
0.00181047
-5.42995e-05
0.00181932
-4.4573e-05
0.00182621
-3.48935e-05
0.00183118
-2.52759e-05
0.00183427
-1.57377e-05
0.00183555
-6.30643e-06
0.0018348
3.12537e-06
0.00183215
1.2394e-05
0.00182767
2.15215e-05
0.00182137
3.05129e-05
0.00181328
3.93537e-05
0.00180342
4.80276e-05
0.00179184
5.65228e-05
0.00177856
6.48399e-05
0.00176362
7.29581e-05
0.00174707
8.08741e-05
0.00172895
8.85746e-05
0.0017093
9.60519e-05
0.00168818
0.000103296
0.00166563
0.000110299
0.00164171
0.000117053
0.00161646
0.00012355
0.00158993
0.000129787
0.0015622
0.000135745
0.0015333
0.000141428
0.00150329
0.000146832
0.00147224
0.000151943
0.00144021
0.000156758
0.00140725
0.00016128
0.00137342
0.000165501
0.0013388
0.000169414
0.00130343
0.00017302
0.00126739
0.000176319
0.00123073
0.000179305
0.00119352
0.00018198
0.00115583
0.000184339
0.00111771
0.000186388
0.00107923
0.000188129
0.00104045
0.000189555
0.00100144
0.000190678
0.000962261
0.000191502
0.000922981
0.000192023
0.00088367
0.000192248
0.000844383
0.000192192
0.000805205
0.000191829
0.000766191
0.000191201
0.000727415
0.000190276
0.00068893
0.000189093
0.000650807
0.00018762
0.000613122
0.000185884
0.000575921
0.000183884
0.000539251
0.000181615
0.000503194
0.000179089
0.000467807
0.000176304
0.000433131
0.000173257
0.000399226
0.000169955
0.000366105
0.000166402
0.000333837
0.000162568
0.000302443
0.000158482
0.000271896
0.000154179
0.000242267
0.000149603
0.000213546
0.000144814
0.000185752
0.00013983
0.000158905
0.000134664
0.000133015
0.000129324
0.000108119
0.000123842
8.42453e-05
0.000118237
6.13744e-05
0.000112542
3.9576e-05
0.000106726
1.88564e-05
0.000100839
-7.81672e-07
9.48986e-05
-1.93118e-05
8.89235e-05
-3.67381e-05
8.292e-05
-5.30506e-05
7.6915e-05
-6.82401e-05
7.09259e-05
-8.231e-05
6.49691e-05
-9.52553e-05
5.90682e-05
-0.000107077
5.3235e-05
-0.000117765
4.74823e-05
-0.000127333
4.18372e-05
-0.000135775
3.62963e-05
-0.000143092
3.08764e-05
-0.000149304
2.55937e-05
-0.000154426
2.04558e-05
-0.000158471
1.54664e-05
-0.000161466
1.06384e-05
-0.000163428
5.98199e-06
-0.000164399
1.50761e-06
-0.000164369
-2.77348e-06
-0.000163387
-6.8642e-06
-0.000161479
-1.07572e-05
-0.000158677
-1.44525e-05
-0.00015502
-1.79401e-05
-0.000150542
-2.12217e-05
-0.000145281
-2.42951e-05
-0.000139283
-2.71616e-05
-0.000132578
-2.98272e-05
-0.000125217
-3.22933e-05
-0.000117252
-3.45449e-05
-0.000108698
-3.66157e-05
-9.96918e-05
-3.84852e-05
-9.01504e-05
-4.01395e-05
-8.023e-05
-4.17256e-05
-6.98973e-05
-4.27846e-05
-5.92956e-05
-4.36832e-05
-4.84952e-05
-4.34176e-05
-3.66238e-05
-4.68803e-05
-2.20879e-05
-5.81101e-05
-5.26472e-06
-7.43362e-05
-1.8322e-05
5.97876e-05
-0.000350612
0.000129959
-0.000408885
0.000196933
-0.00039035
0.000261809
-0.000378671
0.000326253
-0.000376378
0.000390246
-0.000374223
0.000453818
-0.000371742
0.000516712
-0.000368232
0.000578925
-0.000364345
0.000640327
-0.000359972
0.000700874
-0.000355154
0.000760467
-0.000349896
0.000819044
-0.000344203
0.000876528
-0.000338079
0.000932852
-0.000331539
0.000987953
-0.000324596
0.00104177
-0.000317263
0.00109423
-0.000309542
0.00114527
-0.00030146
0.00119486
-0.000293026
0.00124293
-0.000284256
0.00128943
-0.000275165
0.00133432
-0.00026577
0.00137755
-0.000256082
0.00141908
-0.000246129
0.00145886
-0.000235922
0.00149687
-0.000225477
0.00153305
-0.000214816
0.0015674
-0.000203959
0.00159987
-0.000192922
0.00163045
-0.000181731
0.00165911
-0.000170392
0.00168583
-0.000158934
0.00171059
-0.000147369
0.00173338
-0.000135727
0.00175419
-0.000124015
0.001773
-0.000112255
0.00178982
-0.000100465
0.00180463
-8.86647e-05
0.00181743
-7.68707e-05
0.00182823
-6.50987e-05
0.00183702
-5.33635e-05
0.00184381
-4.16826e-05
0.00184861
-3.00735e-05
0.00185141
-1.85436e-05
0.00185222
-7.1109e-06
0.00185122
4.12803e-06
0.00184833
1.52757e-05
0.00184358
2.62798e-05
0.00183697
3.71167e-05
0.00182855
4.7772e-05
0.00181835
5.82352e-05
0.00180639
6.84804e-05
0.00179272
7.85056e-05
0.00177739
8.8295e-05
0.00176042
9.78422e-05
0.00174186
0.00010713
0.00172177
0.000116144
0.00170018
0.000124883
0.00167715
0.000133331
0.00165273
0.000141477
0.00162697
0.000149313
0.00159992
0.000156832
0.00157164
0.000164023
0.00154219
0.000170878
0.00151164
0.000177387
0.00148003
0.000183555
0.00144742
0.000189366
0.00141388
0.000194822
0.00137947
0.000199905
0.00134426
0.000204626
0.0013083
0.000208977
0.00127167
0.000212951
0.00123443
0.00021655
0.00119663
0.000219777
0.00115835
0.000222617
0.00111966
0.000225082
0.00108061
0.000227173
0.00104128
0.000228891
0.00100173
0.000230227
0.00096203
0.0002312
0.000922241
0.000231812
0.000882441
0.000232048
0.000842694
0.00023194
0.00080306
0.000231463
0.000763612
0.000230649
0.000724412
0.000229476
0.000685531
0.000227975
0.000647026
0.000226124
0.000608962
0.000223948
0.000571402
0.000221444
0.00053438
0.000218638
0.000497977
0.000215492
0.000462247
0.000212034
0.000427226
0.000208277
0.000392968
0.000204213
0.000359506
0.000199864
0.000326875
0.0001952
0.000295106
0.00019025
0.000264232
0.000185054
0.000234264
0.000179571
0.000205227
0.000173851
0.000177151
0.000167906
0.000150057
0.000161758
0.000123992
0.000155389
9.89516e-05
0.000148882
7.49888e-05
0.000142199
5.21136e-05
0.000135417
3.03323e-05
0.000128507
9.66901e-06
0.000121503
-9.88227e-06
0.00011445
-2.82961e-05
0.000107337
-4.55677e-05
0.000100192
-6.1695e-05
9.30424e-05
-7.66695e-05
8.59003e-05
-9.04912e-05
7.87909e-05
-0.000103154
7.17314e-05
-0.000114664
6.47443e-05
-0.000125022
5.78409e-05
-0.000134241
5.10556e-05
-0.000142321
4.43764e-05
-0.000149285
3.78409e-05
-0.000155149
3.14575e-05
-0.000159928
2.52344e-05
-0.000163634
1.91722e-05
-0.000166304
1.33092e-05
-0.000167953
7.63083e-06
-0.000168605
2.15901e-06
-0.000168313
-3.06543e-06
-0.000167075
-8.10155e-06
-0.000164931
-1.29013e-05
-0.000161908
-1.7476e-05
-0.000158046
-2.18017e-05
-0.000153376
-2.58916e-05
-0.000147935
-2.9736e-05
-0.000141762
-3.3335e-05
-0.000134901
-3.66886e-05
-0.000127388
-3.98054e-05
-0.00011927
-4.26639e-05
-0.0001106
-4.52848e-05
-0.000101387
-4.76984e-05
-9.17134e-05
-4.98132e-05
-8.15548e-05
-5.18843e-05
-7.10563e-05
-5.32831e-05
-6.02418e-05
-5.44977e-05
-4.92945e-05
-5.43649e-05
-3.74564e-05
-5.87184e-05
-2.30632e-05
-7.25033e-05
-5.83115e-06
-9.15683e-05
-2.41531e-05
6.06105e-05
-0.000411223
0.00013171
-0.000479985
0.000199609
-0.000458248
0.000265317
-0.000444379
0.000330584
-0.000441646
0.000395404
-0.000439043
0.000459808
-0.000436145
0.000523538
-0.000431962
0.000586571
-0.000427378
0.000648793
-0.000422194
0.000710145
-0.000416506
0.000770538
-0.000410289
0.0008299
-0.000403564
0.000888158
-0.000396337
0.000945242
-0.000388623
0.00100108
-0.000380434
0.00105561
-0.000371794
0.00110877
-0.000362703
0.0011605
-0.000353189
0.00121074
-0.000343269
0.00125944
-0.000332953
0.00130654
-0.000322266
0.001352
-0.000311232
0.00139577
-0.000299852
0.00143781
-0.000288161
0.00147806
-0.00027618
0.00151651
-0.000263926
0.00155312
-0.000251421
0.00158785
-0.000238687
0.00162066
-0.000225739
0.00165154
-0.000212608
0.00168046
-0.000199314
0.0017074
-0.000185876
0.00173235
-0.000172319
0.00175529
-0.000158658
0.00177619
-0.000144923
0.00179507
-0.00013113
0.00181191
-0.000117302
0.0018267
-0.000103461
0.00183945
-8.96203e-05
0.00185017
-7.58122e-05
0.00185885
-6.20525e-05
0.00186552
-4.83508e-05
0.00187019
-3.47368e-05
0.00187287
-2.12251e-05
0.00187361
-7.85592e-06
0.00187233
5.4063e-06
0.00186913
1.84825e-05
0.00186402
3.13868e-05
0.00185704
4.41e-05
0.00184821
5.65979e-05
0.00183758
6.88623e-05
0.00182518
8.08891e-05
0.00181103
9.26524e-05
0.00179518
0.000104143
0.00177769
0.000115337
0.00175858
0.000126232
0.00173791
0.000136816
0.00171573
0.000147062
0.0016921
0.000156967
0.00166705
0.00016652
0.00164065
0.000175714
0.00161295
0.00018453
0.00158402
0.000192957
0.0015539
0.000200995
0.00152266
0.000208631
0.00149035
0.000215861
0.00145705
0.000222669
0.00142281
0.000229063
0.00138769
0.000235019
0.00135177
0.000240547
0.0013151
0.000245648
0.00127776
0.000250296
0.0012398
0.000254507
0.0012013
0.000258275
0.00116232
0.000261601
0.00112293
0.000264474
0.00108319
0.000266908
0.00104318
0.000268905
0.00100295
0.00027045
0.000962592
0.000271563
0.000922155
0.000272249
0.000881713
0.000272491
0.000841338
0.000272314
0.000801082
0.000271719
0.000761018
0.000270713
0.000721215
0.000269279
0.000681738
0.000267452
0.000642641
0.000265221
0.00060399
0.000262599
0.000565839
0.000259594
0.000528265
0.000256212
0.000491295
0.000252462
0.000455003
0.000248326
0.000419436
0.000243844
0.000384635
0.000239015
0.000350659
0.000233839
0.000317515
0.000228345
0.000285226
0.000222539
0.000253877
0.000216403
0.000223463
0.000209984
0.000194033
0.000203281
0.00016561
0.00019633
0.000138221
0.000189147
0.000111857
0.000181753
8.65803e-05
0.000174159
6.23995e-05
0.00016638
3.93467e-05
0.00015847
1.7437e-05
0.000150417
-3.34211e-06
0.000142282
-2.2943e-05
0.000134051
-4.136e-05
0.000125754
-5.85923e-05
0.000117424
-7.46257e-05
0.000109076
-8.94612e-05
0.000100736
-0.000103102
9.24314e-05
-0.000115545
8.41747e-05
-0.000126796
7.59955e-05
-0.000136868
6.79122e-05
-0.000145753
5.99412e-05
-0.000153479
5.21021e-05
-0.000160053
4.44145e-05
-0.000165489
3.68939e-05
-0.000169812
2.95577e-05
-0.000173057
2.24172e-05
-0.000175245
1.54967e-05
-0.00017641
8.7962e-06
-0.000176582
2.33132e-06
-0.000175764
-3.88366e-06
-0.000174014
-9.85114e-06
-0.000171359
-1.55565e-05
-0.000167844
-2.09912e-05
-0.000163497
-2.61488e-05
-0.000158357
-3.10313e-05
-0.000152463
-3.56302e-05
-0.000145859
-3.99394e-05
-0.00013858
-4.3967e-05
-0.000130679
-4.77064e-05
-0.000122189
-5.11546e-05
-0.00011316
-5.43131e-05
-0.000103608
-5.72508e-05
-9.36436e-05
-5.97775e-05
-8.32019e-05
-6.2326e-05
-7.24801e-05
-6.40049e-05
-6.14234e-05
-6.55544e-05
-5.03599e-05
-6.54284e-05
-3.84158e-05
-7.06625e-05
-2.38346e-05
-8.70844e-05
-6.03752e-06
-0.000109365
-3.01907e-05
6.15165e-05
-0.000472739
0.00013387
-0.000552338
0.000202959
-0.000527337
0.000269765
-0.000511185
0.000336075
-0.000507956
0.000401972
-0.000504939
0.000467418
-0.000501592
0.000532203
-0.000496747
0.000596262
-0.000491437
0.000659501
-0.000485433
0.000721843
-0.000478848
0.000783213
-0.000471659
0.000843526
-0.000463878
0.000902715
-0.000455525
0.000960701
-0.000446609
0.00101742
-0.000437154
0.0010728
-0.000427174
0.00112678
-0.000416679
0.00117929
-0.0004057
0.00123028
-0.000394259
0.0012797
-0.000382371
0.00132748
-0.000370049
0.00137358
-0.000357327
0.00141795
-0.000344223
0.00146055
-0.000330765
0.00150134
-0.000316965
0.00154027
-0.000302858
0.00157731
-0.000288465
0.00161243
-0.000273805
0.0016456
-0.000258913
0.0016768
-0.000243808
0.001706
-0.000228511
0.00173318
-0.000213053
0.00175831
-0.000197455
0.0017814
-0.000181745
0.00180242
-0.000165945
0.00182137
-0.000150082
0.00183824
-0.000134175
0.00185303
-0.000118252
0.00186575
-0.00010234
0.00187639
-8.64524e-05
0.00188496
-7.06156e-05
0.00189146
-5.48545e-05
0.00189592
-3.91917e-05
0.00189834
-2.36441e-05
0.00189872
-8.24127e-06
0.00189716
6.96415e-06
0.00189363
2.20135e-05
0.00188816
3.68588e-05
0.00188078
5.14772e-05
0.00187153
6.5853e-05
0.00186042
7.99665e-05
0.00184752
9.37955e-05
0.00183285
0.000107324
0.00181645
0.000120535
0.00179838
0.000133415
0.00177866
0.000145944
0.00175737
0.000158107
0.00173454
0.00016989
0.00171023
0.000181282
0.00168449
0.000192263
0.00165738
0.000202823
0.00162895
0.000212957
0.00159926
0.00022265
0.00156837
0.00023188
0.00153635
0.000240656
0.00150325
0.00024896
0.00146914
0.000256778
0.00143409
0.000264119
0.00139815
0.000270958
0.00136139
0.000277304
0.00132389
0.000283147
0.00128571
0.000288481
0.00124691
0.000293305
0.00120756
0.00029762
0.00116774
0.000301425
0.0011275
0.000304709
0.00108693
0.000307483
0.00104609
0.000309747
0.00100503
0.000311507
0.000963845
0.000312748
0.000922597
0.000313497
0.000881344
0.000313743
0.000840165
0.000313493
0.000799122
0.000312762
0.000758289
0.000311546
0.000717723
0.000309845
0.000677486
0.000307689
0.000637635
0.000305071
0.000598254
0.00030198
0.000559391
0.000298458
0.000521104
0.000294499
0.000483456
0.00029011
0.000446469
0.000285313
0.000410225
0.000280088
0.000374758
0.000274482
0.000340109
0.000268487
0.000306342
0.000262112
0.000273488
0.000255393
0.000241565
0.000248327
0.000210628
0.00024092
0.000180685
0.000233224
0.000151787
0.000225227
0.00012396
0.000216974
9.72342e-05
0.00020848
7.16376e-05
0.000199755
4.71422e-05
0.000190875
2.38228e-05
0.000181789
1.6968e-06
0.000172542
-1.92286e-05
0.000163207
-3.89435e-05
0.000153766
-5.74343e-05
0.000144245
-7.46892e-05
0.000134679
-9.0708e-05
0.000125095
-0.000105485
0.000115513
-0.000119019
0.000105965
-0.00013131
9.64654e-05
-0.000142366
8.7052e-05
-0.000152195
7.77411e-05
-0.000160811
6.85568e-05
-0.000168232
5.95231e-05
-0.000174466
5.06492e-05
-0.000179542
4.19697e-05
-0.000183465
3.34808e-05
-0.000186274
2.52256e-05
-0.000187998
1.72211e-05
-0.000188664
9.46193e-06
-0.000188302
1.97009e-06
-0.00018695
-5.23612e-06
-0.000184652
-1.21496e-05
-0.000181438
-1.877e-05
-0.000177348
-2.50808e-05
-0.000172421
-3.10758e-05
-0.000166702
-3.67503e-05
-0.000160235
-4.20972e-05
-0.000153059
-4.71156e-05
-0.00014522
-5.18059e-05
-0.000136757
-5.61699e-05
-0.000127715
-6.01966e-05
-0.000118145
-6.38824e-05
-0.000108085
-6.73114e-05
-9.75949e-05
-7.02673e-05
-8.66354e-05
-7.32854e-05
-7.54187e-05
-7.52216e-05
-6.39392e-05
-7.70339e-05
-5.24449e-05
-7.69228e-05
-4.00406e-05
-8.30668e-05
-2.48391e-05
-0.000102286
-6.34396e-06
-0.000127861
-3.65346e-05
6.25621e-05
-0.000535302
0.00013639
-0.000626166
0.000206878
-0.000597825
0.000275
-0.000579307
0.000342539
-0.000575496
0.000409687
-0.000572087
0.00047635
-0.000568254
0.00054236
-0.000562756
0.000607614
-0.000556691
0.000672026
-0.000549845
0.000735515
-0.000542337
0.000798009
-0.000534154
0.000859423
-0.000525292
0.000919683
-0.000515785