/*--------------------------------*- C++ -*----------------------------------*\
| =========                 |                                                 |
| \\      /  F ield         | OpenFOAM: The Open Source CFD Toolbox           |
|  \\    /   O peration     | Version:  v2006                                 |
|   \\  /    A nd           | Website:  www.openfoam.com                      |
|    \\/     M anipulation  |                                                 |
\*---------------------------------------------------------------------------*/
FoamFile
{
    version     2.0;
    format      ascii;
    class       volVectorField;
    location    "5.3";
    object      U;
}
// * * * * * * * * * * * * * * * * * * * * * * * * * * * * * * * * * * * * * //

dimensions      [0 1 -1 0 0 0 0];


internalField   nonuniform List<vector> 
50000
(
(0.00407306 -0.00529557 0)
(0.0096284 -0.00677816 0)
(0.0197395 -0.0062372 0)
(0.0254774 -0.00620625 0)
(0.0341852 -0.00607135 0)
(0.0407577 -0.00607097 0)
(0.048587 -0.00595918 0)
(0.0556032 -0.00590428 0)
(0.0628917 -0.0057986 0)
(0.0699535 -0.005702 0)
(0.076942 -0.00559354 0)
(0.0838289 -0.00547598 0)
(0.0905845 -0.00535074 0)
(0.0972138 -0.00521539 0)
(0.103705 -0.00506971 0)
(0.110045 -0.00491444 0)
(0.116226 -0.00474999 0)
(0.122238 -0.00457739 0)
(0.128072 -0.00439724 0)
(0.13372 -0.00421047 0)
(0.139174 -0.00401825 0)
(0.144427 -0.00382142 0)
(0.149472 -0.00362134 0)
(0.154302 -0.00341821 0)
(0.158914 -0.00321329 0)
(0.163303 -0.00300634 0)
(0.167464 -0.00279821 0)
(0.171395 -0.00258972 0)
(0.17509 -0.00238174 0)
(0.17855 -0.00217416 0)
(0.181772 -0.001968 0)
(0.184756 -0.00176407 0)
(0.187501 -0.00156292 0)
(0.190008 -0.00136546 0)
(0.19228 -0.00117149 0)
(0.194318 -0.000981334 0)
(0.196123 -0.00079525 0)
(0.197699 -0.000612999 0)
(0.199046 -0.000431351 0)
(0.200164 -0.000247651 0)
(0.201051 -5.81041e-05 0)
(0.201705 0.000140991 0)
(0.202123 0.000348391 0)
(0.202303 0.00054956 0)
(0.202248 0.000718853 0)
(0.201988 0.000849244 0)
(0.201538 0.000937626 0)
(0.200921 0.000984979 0)
(0.200162 0.00100393 0)
(0.199272 0.0010173 0)
(0.198247 0.00104508 0)
(0.197078 0.00109223 0)
(0.195759 0.00115282 0)
(0.194289 0.00122016 0)
(0.19267 0.00129048 0)
(0.190902 0.00136177 0)
(0.18899 0.00143358 0)
(0.186937 0.00150573 0)
(0.184745 0.00157747 0)
(0.182418 0.00164851 0)
(0.179964 0.00171883 0)
(0.177385 0.00178807 0)
(0.174684 0.00185703 0)
(0.171866 0.00192504 0)
(0.168937 0.00199137 0)
(0.165902 0.00205652 0)
(0.162764 0.00212028 0)
(0.159528 0.00218223 0)
(0.156198 0.00224349 0)
(0.15278 0.00230327 0)
(0.149279 0.00236063 0)
(0.145698 0.00241682 0)
(0.142043 0.00247133 0)
(0.138319 0.00252391 0)
(0.134532 0.00257588 0)
(0.130684 0.00262822 0)
(0.126779 0.00268239 0)
(0.122821 0.00273989 0)
(0.118811 0.0028018 0)
(0.114751 0.00286849 0)
(0.110641 0.00293971 0)
(0.106485 0.00301463 0)
(0.102283 0.00309294 0)
(0.0980375 0.0031732 0)
(0.0937513 0.0032559 0)
(0.0894267 0.0033411 0)
(0.0850665 0.00342824 0)
(0.0806724 0.00351769 0)
(0.0762467 0.00360778 0)
(0.0717929 0.00369967 0)
(0.0673119 0.00379334 0)
(0.0628072 0.00389065 0)
(0.0582822 0.00398804 0)
(0.0537351 0.00408879 0)
(0.0491701 0.00419338 0)
(0.0445876 0.00430792 0)
(0.0399848 0.00442894 0)
(0.0353629 0.00455095 0)
(0.0307284 0.00464448 0)
(0.0261054 0.00468393 0)
(0.021537 0.00464941 0)
(0.0170638 0.00455349 0)
(0.0127198 0.00441089 0)
(0.00851991 0.00424722 0)
(0.00447985 0.00407222 0)
(0.000616336 0.00389253 0)
(-0.00307603 0.00370665 0)
(-0.00659543 0.00351742 0)
(-0.00993382 0.00332325 0)
(-0.0130873 0.00312158 0)
(-0.0160504 0.00291085 0)
(-0.0188175 0.00268932 0)
(-0.0213822 0.00245553 0)
(-0.0237374 0.00220704 0)
(-0.0258767 0.00194954 0)
(-0.0277969 0.00168049 0)
(-0.0294958 0.00140658 0)
(-0.030971 0.0011324 0)
(-0.0322246 0.000862798 0)
(-0.0332637 0.000602547 0)
(-0.0340942 0.000354081 0)
(-0.0347248 0.000120171 0)
(-0.0351667 -9.95389e-05 0)
(-0.0354265 -0.000308495 0)
(-0.0355119 -0.000507836 0)
(-0.035435 -0.000698203 0)
(-0.035204 -0.000880705 0)
(-0.0348234 -0.0010539 0)
(-0.0343004 -0.00121883 0)
(-0.0336415 -0.00137502 0)
(-0.0328514 -0.00152625 0)
(-0.0319367 -0.00166818 0)
(-0.0309027 -0.00180334 0)
(-0.0297561 -0.001931 0)
(-0.0285046 -0.00204925 0)
(-0.0271521 -0.00215851 0)
(-0.0257073 -0.00225928 0)
(-0.0241827 -0.00235174 0)
(-0.0225693 -0.00243659 0)
(-0.0208795 -0.00252624 0)
(-0.0191733 -0.0025874 0)
(-0.0172368 -0.0027051 0)
(-0.0155771 -0.0027407 0)
(-0.0132438 -0.00288583 0)
(-0.0118115 -0.00288139 0)
(-0.0089457 -0.00309399 0)
(-0.00787853 -0.00318977 0)
(-0.00428519 -0.00329118 0)
(-0.00339493 -0.00267234 0)
(0.000293461 -0.00240324 0)
(0.00445406 -0.0133733 0)
(0.00761175 -0.01577 0)
(0.0171007 -0.0148541 0)
(0.0210449 -0.0146504 0)
(0.0288913 -0.0144389 0)
(0.0338844 -0.0144447 0)
(0.0407815 -0.0142563 0)
(0.0464276 -0.0141605 0)
(0.0527118 -0.0139814 0)
(0.0586055 -0.0138125 0)
(0.0645668 -0.0136201 0)
(0.0704307 -0.0134084 0)
(0.0762146 -0.0131802 0)
(0.0819265 -0.0129347 0)
(0.0875528 -0.0126709 0)
(0.0930858 -0.0123908 0)
(0.0985215 -0.0120926 0)
(0.103853 -0.0117777 0)
(0.109075 -0.0114479 0)
(0.114182 -0.0111016 0)
(0.119168 -0.0107405 0)
(0.124025 -0.0103672 0)
(0.128749 -0.0099811 0)
(0.133334 -0.00958246 0)
(0.137774 -0.00917341 0)
(0.142064 -0.00875594 0)
(0.146197 -0.00832878 0)
(0.15017 -0.00789349 0)
(0.153979 -0.00745205 0)
(0.15762 -0.00700563 0)
(0.161089 -0.00655535 0)
(0.164382 -0.00610236 0)
(0.167495 -0.00564874 0)
(0.170426 -0.00519538 0)
(0.173172 -0.00474335 0)
(0.175727 -0.00429405 0)
(0.17809 -0.00384634 0)
(0.180264 -0.00340133 0)
(0.182248 -0.00295943 0)
(0.184039 -0.0025186 0)
(0.185645 -0.00207673 0)
(0.187072 -0.00163293 0)
(0.188327 -0.00118803 0)
(0.189412 -0.000749632 0)
(0.190327 -0.000328213 0)
(0.19104 7.51245e-05 0)
(0.19154 0.000464764 0)
(0.191822 0.000839124 0)
(0.191862 0.00119671 0)
(0.191651 0.00154882 0)
(0.1912 0.00190265 0)
(0.190523 0.00225896 0)
(0.189631 0.00261391 0)
(0.188533 0.0029637 0)
(0.187234 0.00330642 0)
(0.185741 0.00364084 0)
(0.184059 0.00396723 0)
(0.182196 0.00428414 0)
(0.180151 0.00459127 0)
(0.177935 0.00488924 0)
(0.175554 0.00517712 0)
(0.173014 0.00545429 0)
(0.17032 0.00572053 0)
(0.167478 0.00597647 0)
(0.164496 0.00622131 0)
(0.161382 0.00645473 0)
(0.158143 0.00667661 0)
(0.154785 0.00688669 0)
(0.151317 0.0070846 0)
(0.147745 0.0072712 0)
(0.144078 0.00744531 0)
(0.140325 0.00760662 0)
(0.136491 0.00775585 0)
(0.132586 0.00789256 0)
(0.12862 0.00801699 0)
(0.124599 0.00812981 0)
(0.120534 0.00823166 0)
(0.116436 0.00832335 0)
(0.112314 0.00840561 0)
(0.108178 0.0084787 0)
(0.104037 0.0085427 0)
(0.0999015 0.00859775 0)
(0.0957784 0.00864358 0)
(0.0916762 0.00868024 0)
(0.0876045 0.00870811 0)
(0.0835689 0.00872723 0)
(0.0795779 0.00873671 0)
(0.0756378 0.00873825 0)
(0.0717565 0.00873108 0)
(0.0679453 0.00871515 0)
(0.0642102 0.00869087 0)
(0.0605556 0.00865944 0)
(0.0569906 0.0086187 0)
(0.0535224 0.00857027 0)
(0.0501618 0.00851576 0)
(0.046917 0.00845276 0)
(0.0438028 0.00838595 0)
(0.0408359 0.00830838 0)
(0.0380233 0.00820745 0)
(0.0353662 0.00806897 0)
(0.0328614 0.00788437 0)
(0.0304939 0.00765539 0)
(0.028252 0.0073899 0)
(0.0261266 0.00710774 0)
(0.0241123 0.0068165 0)
(0.022214 0.00651533 0)
(0.0204211 0.00620523 0)
(0.0187373 0.00588998 0)
(0.0171643 0.00557319 0)
(0.015698 0.00525078 0)
(0.0143352 0.00492513 0)
(0.0130762 0.0045904 0)
(0.0119077 0.00425685 0)
(0.0108314 0.00391856 0)
(0.00983847 0.00357688 0)
(0.00890923 0.00323889 0)
(0.00804061 0.00290244 0)
(0.0072249 0.00256937 0)
(0.00644909 0.00224502 0)
(0.00571367 0.00192955 0)
(0.00502102 0.00162415 0)
(0.00436991 0.00133175 0)
(0.00376004 0.00104772 0)
(0.00319075 0.000775809 0)
(0.00266471 0.000515254 0)
(0.00218192 0.000267056 0)
(0.00174632 3.28079e-05 0)
(0.00135356 -0.00019116 0)
(0.00100382 -0.000408655 0)
(0.000689241 -0.000620553 0)
(0.000416361 -0.00082507 0)
(0.000183956 -0.00102307 0)
(-1.92923e-05 -0.00121167 0)
(-0.000189065 -0.00139149 0)
(-0.000330181 -0.00156209 0)
(-0.000442412 -0.00172207 0)
(-0.000526322 -0.00187251 0)
(-0.000586056 -0.00201177 0)
(-0.000659363 -0.00214286 0)
(-0.000563449 -0.00226756 0)
(-0.00079953 -0.00236001 0)
(-0.000358647 -0.00250916 0)
(-0.000972758 -0.00252429 0)
(-4.64926e-05 -0.00272798 0)
(-0.00119144 -0.00266804 0)
(0.000269737 -0.00285412 0)
(-0.00154127 -0.0028407 0)
(0.000410947 -0.00332084 0)
(-0.00144921 -0.00347603 0)
(0.00227497 -0.00199378 0)
(0.00441797 -0.0215398 0)
(0.00821826 -0.0249083 0)
(0.0180232 -0.0237883 0)
(0.0224787 -0.0231441 0)
(0.030602 -0.0230035 0)
(0.0360434 -0.0229136 0)
(0.0432477 -0.0227569 0)
(0.0492983 -0.0225662 0)
(0.0559073 -0.0223445 0)
(0.0621677 -0.0220918 0)
(0.0684552 -0.0218156 0)
(0.0746514 -0.0215113 0)
(0.0807486 -0.0211787 0)
(0.0867597 -0.0208214 0)
(0.0926694 -0.0204371 0)
(0.0984706 -0.0200271 0)
(0.104159 -0.0195928 0)
(0.109723 -0.0191338 0)
(0.11516 -0.0186505 0)
(0.120464 -0.018144 0)
(0.125626 -0.0176134 0)
(0.130642 -0.0170611 0)
(0.135507 -0.0164887 0)
(0.140214 -0.0158974 0)
(0.144757 -0.0152871 0)
(0.149132 -0.0146605 0)
(0.153336 -0.0140185 0)
(0.15736 -0.0133635 0)
(0.161199 -0.0126946 0)
(0.164851 -0.0120146 0)
(0.168313 -0.0113253 0)
(0.171578 -0.0106274 0)
(0.174643 -0.00992259 0)
(0.177504 -0.00921117 0)
(0.180159 -0.00849564 0)
(0.182605 -0.0077773 0)
(0.184839 -0.00705654 0)
(0.186857 -0.00633572 0)
(0.188657 -0.00561701 0)
(0.19024 -0.00490195 0)
(0.191604 -0.00419317 0)
(0.192749 -0.0034928 0)
(0.193675 -0.00280145 0)
(0.194386 -0.00211474 0)
(0.194887 -0.00142257 0)
(0.195184 -0.000723192 0)
(0.19527 -1.92676e-05 0)
(0.195131 0.000690042 0)
(0.194769 0.00139929 0)
(0.194196 0.00209688 0)
(0.193421 0.00277427 0)
(0.192451 0.00343175 0)
(0.191292 0.00407205 0)
(0.189949 0.00469679 0)
(0.188426 0.00530652 0)
(0.186728 0.00590084 0)
(0.18486 0.00647949 0)
(0.182826 0.00704076 0)
(0.180632 0.0075845 0)
(0.178284 0.00811098 0)
(0.175786 0.00861896 0)
(0.173145 0.00910777 0)
(0.170366 0.00957597 0)
(0.167457 0.0100239 0)
(0.164421 0.0104517 0)
(0.161267 0.0108578 0)
(0.158001 0.0112427 0)
(0.154628 0.0116059 0)
(0.151158 0.0119456 0)
(0.147596 0.0122636 0)
(0.143949 0.0125594 0)
(0.140224 0.0128314 0)
(0.136429 0.0130802 0)
(0.13257 0.0133061 0)
(0.128655 0.0135077 0)
(0.124691 0.0136852 0)
(0.120684 0.013839 0)
(0.116644 0.0139695 0)
(0.112578 0.0140771 0)
(0.108495 0.014163 0)
(0.104401 0.0142279 0)
(0.100306 0.0142727 0)
(0.0962151 0.0142974 0)
(0.0921372 0.0143033 0)
(0.0880789 0.0142897 0)
(0.0840452 0.0142567 0)
(0.080045 0.014205 0)
(0.0760847 0.0141344 0)
(0.0721678 0.0140468 0)
(0.0683032 0.0139403 0)
(0.064497 0.0138151 0)
(0.0607535 0.0136708 0)
(0.0570791 0.0135085 0)
(0.0534807 0.0133249 0)
(0.0499601 0.0131233 0)
(0.0465297 0.0128953 0)
(0.0431984 0.012642 0)
(0.0399669 0.0123521 0)
(0.0368413 0.0120253 0)
(0.0338206 0.0116587 0)
(0.0308982 0.0112673 0)
(0.0280571 0.0108536 0)
(0.0253055 0.0104286 0)
(0.0226459 0.00998961 0)
(0.0200714 0.00954771 0)
(0.0175945 0.00909293 0)
(0.0152191 0.00862887 0)
(0.0129525 0.00815759 0)
(0.0107925 0.00768035 0)
(0.00873922 0.00719756 0)
(0.00679213 0.00671257 0)
(0.0049631 0.00622532 0)
(0.00324987 0.00574197 0)
(0.0016412 0.00526831 0)
(0.000155872 0.00480111 0)
(-0.00121327 0.00434928 0)
(-0.0024738 0.00391312 0)
(-0.0036181 0.0034937 0)
(-0.00464905 0.00308813 0)
(-0.00556889 0.00269811 0)
(-0.00637477 0.00231937 0)
(-0.00707329 0.00195161 0)
(-0.00766625 0.0015925 0)
(-0.00815461 0.00124561 0)
(-0.00854535 0.000910684 0)
(-0.00883957 0.000590368 0)
(-0.00904214 0.000285767 0)
(-0.00915803 -5.78485e-06 0)
(-0.00919745 -0.000283917 0)
(-0.00916596 -0.000549435 0)
(-0.0090651 -0.000799478 0)
(-0.00890015 -0.0010387 0)
(-0.00867998 -0.0012629 0)
(-0.00840981 -0.00147382 0)
(-0.00809343 -0.00167035 0)
(-0.00773741 -0.00185299 0)
(-0.00734205 -0.00202333 0)
(-0.00692174 -0.0021795 0)
(-0.00648374 -0.00232943 0)
(-0.00594172 -0.00245194 0)
(-0.00561244 -0.00259708 0)
(-0.00478273 -0.00268313 0)
(-0.00476208 -0.00281 0)
(-0.00348315 -0.00284942 0)
(-0.0039586 -0.00292267 0)
(-0.0021557 -0.00286806 0)
(-0.00326738 -0.00299868 0)
(-0.000813282 -0.00362322 0)
(-0.00188283 -0.00501856 0)
(0.00213975 -0.00126713 0)
(0.00428467 -0.0304064 0)
(0.00865778 -0.0352224 0)
(0.0185944 -0.0336596 0)
(0.0234761 -0.0326743 0)
(0.0318138 -0.0325084 0)
(0.0376134 -0.0323368 0)
(0.045029 -0.032144 0)
(0.0513833 -0.0318513 0)
(0.0582055 -0.0315363 0)
(0.0647122 -0.0311728 0)
(0.0712043 -0.0307732 0)
(0.077604 -0.0303373 0)
(0.0838877 -0.0298621 0)
(0.0900699 -0.0293501 0)
(0.0961375 -0.0288017 0)
(0.102078 -0.0282166 0)
(0.107886 -0.027597 0)
(0.113558 -0.0269423 0)
(0.119084 -0.0262532 0)
(0.124461 -0.0255326 0)
(0.129682 -0.0247802 0)
(0.134739 -0.023997 0)
(0.139627 -0.0231861 0)
(0.144345 -0.022348 0)
(0.148886 -0.0214843 0)
(0.153244 -0.0205968 0)
(0.157415 -0.0196879 0)
(0.161397 -0.0187594 0)
(0.165186 -0.0178115 0)
(0.168778 -0.0168468 0)
(0.172169 -0.0158668 0)
(0.175359 -0.014874 0)
(0.178344 -0.0138692 0)
(0.181123 -0.0128549 0)
(0.183693 -0.0118326 0)
(0.186053 -0.0108037 0)
(0.1882 -0.00977127 0)
(0.190136 -0.00873645 0)
(0.191859 -0.00769928 0)
(0.193367 -0.00666288 0)
(0.194661 -0.00562775 0)
(0.195742 -0.00459536 0)
(0.196606 -0.00356834 0)
(0.197253 -0.00254792 0)
(0.197684 -0.00153767 0)
(0.197895 -0.000541561 0)
(0.197898 0.00043689 0)
(0.197712 0.00139361 0)
(0.197337 0.00233247 0)
(0.196765 0.00325549 0)
(0.195998 0.00416364 0)
(0.195039 0.00505553 0)
(0.193888 0.00593163 0)
(0.192551 0.00679017 0)
(0.191032 0.00762967 0)
(0.189337 0.00844903 0)
(0.18747 0.00924618 0)
(0.185437 0.0100211 0)
(0.183241 0.0107728 0)
(0.18089 0.0114993 0)
(0.178388 0.0121999 0)
(0.175741 0.0128744 0)
(0.172955 0.0135217 0)
(0.170036 0.0141409 0)
(0.166989 0.0147312 0)
(0.163822 0.0152923 0)
(0.160542 0.0158233 0)
(0.157152 0.0163237 0)
(0.153662 0.0167936 0)
(0.150078 0.0172318 0)
(0.146404 0.0176388 0)
(0.14265 0.0180141 0)
(0.138822 0.0183568 0)
(0.134926 0.0186673 0)
(0.130969 0.0189454 0)
(0.126958 0.0191905 0)
(0.1229 0.0194029 0)
(0.1188 0.0195832 0)
(0.114667 0.0197315 0)
(0.110506 0.0198484 0)
(0.106324 0.0199349 0)
(0.102129 0.0199915 0)
(0.0979283 0.0200191 0)
(0.0937278 0.0200184 0)
(0.0895349 0.0199891 0)
(0.0853562 0.0199326 0)
(0.081199 0.0198499 0)
(0.0770703 0.0197395 0)
(0.0729755 0.0196036 0)
(0.068922 0.0194424 0)
(0.0649178 0.019256 0)
(0.0609676 0.019042 0)
(0.0570761 0.0188049 0)
(0.0532533 0.018542 0)
(0.0495032 0.0182526 0)
(0.0458297 0.0179387 0)
(0.0422399 0.0175925 0)
(0.0387342 0.017217 0)
(0.0353121 0.0168096 0)
(0.0319782 0.0163663 0)
(0.0287339 0.0158921 0)
(0.0255744 0.0153838 0)
(0.0225083 0.0148488 0)
(0.0195483 0.0142833 0)
(0.0166906 0.0136987 0)
(0.0139357 0.0130979 0)
(0.0112934 0.012485 0)
(0.00876622 0.0118596 0)
(0.00635462 0.0112251 0)
(0.00405884 0.0105831 0)
(0.00188006 0.00993407 0)
(-0.000176855 0.00928544 0)
(-0.00211254 0.00862984 0)
(-0.00392942 0.00797551 0)
(-0.00562214 0.00732497 0)
(-0.00719109 0.00667479 0)
(-0.00863356 0.00603252 0)
(-0.00994854 0.00539926 0)
(-0.011136 0.00477902 0)
(-0.0121958 0.00417242 0)
(-0.01313 0.00358355 0)
(-0.0139392 0.00301188 0)
(-0.0146246 0.00245957 0)
(-0.01519 0.00192524 0)
(-0.0156389 0.00141145 0)
(-0.015974 0.000917269 0)
(-0.0161975 0.000441851 0)
(-0.0163104 -1.26031e-05 0)
(-0.0163184 -0.000443255 0)
(-0.0162283 -0.000847337 0)
(-0.0160428 -0.00122566 0)
(-0.0157652 -0.00158032 0)
(-0.0154028 -0.00191186 0)
(-0.0149599 -0.00221999 0)
(-0.0144407 -0.00250473 0)
(-0.0138499 -0.00276863 0)
(-0.0131907 -0.00300985 0)
(-0.0124807 -0.00323231 0)
(-0.0117098 -0.00343478 0)
(-0.0108536 -0.00361274 0)
(-0.0101015 -0.00379015 0)
(-0.00894955 -0.00391407 0)
(-0.00840949 -0.00407148 0)
(-0.00681784 -0.00412236 0)
(-0.00665465 -0.00421264 0)
(-0.00453698 -0.00411711 0)
(-0.0049118 -0.00439742 0)
(-0.00201374 -0.00549283 0)
(-0.0022919 -0.00741962 0)
(0.00159864 -0.00163446 0)
(0.00424753 -0.0391551 0)
(0.00883606 -0.045554 0)
(0.0188079 -0.0434981 0)
(0.023862 -0.0422074 0)
(0.0322403 -0.0419683 0)
(0.038186 -0.0417358 0)
(0.0456577 -0.0414689 0)
(0.0521261 -0.0410861 0)
(0.0590164 -0.0406631 0)
(0.0656152 -0.0401861 0)
(0.0721816 -0.0396587 0)
(0.0786535 -0.0390834 0)
(0.085007 -0.038458 0)
(0.091252 -0.0377846 0)
(0.0973769 -0.037065 0)
(0.103372 -0.0362989 0)
(0.109232 -0.0354881 0)
(0.11495 -0.0346344 0)
(0.120518 -0.0337392 0)
(0.125933 -0.0328028 0)
(0.131187 -0.0318289 0)
(0.136273 -0.0308194 0)
(0.141189 -0.0297736 0)
(0.145931 -0.0286941 0)
(0.15049 -0.027585 0)
(0.154864 -0.0264467 0)
(0.15905 -0.0252808 0)
(0.163045 -0.0240901 0)
(0.166842 -0.0228772 0)
(0.17044 -0.0216443 0)
(0.173836 -0.0203923 0)
(0.177027 -0.0191246 0)
(0.18001 -0.0178434 0)
(0.182784 -0.0165516 0)
(0.185348 -0.0152511 0)
(0.187698 -0.0139441 0)
(0.189835 -0.0126331 0)
(0.19176 -0.0113193 0)
(0.193469 -0.0100059 0)
(0.194964 -0.00869443 0)
(0.196246 -0.00738595 0)
(0.197313 -0.00608377 0)
(0.198167 -0.00478914 0)
(0.198812 -0.00350141 0)
(0.19925 -0.0022204 0)
(0.199488 -0.000946661 0)
(0.199519 0.000320813 0)
(0.199333 0.00157994 0)
(0.198944 0.00282248 0)
(0.198357 0.00404489 0)
(0.197574 0.00524528 0)
(0.196598 0.0064206 0)
(0.195433 0.00757095 0)
(0.194081 0.0086953 0)
(0.192546 0.00979284 0)
(0.190833 0.0108626 0)
(0.188947 0.0119025 0)
(0.186895 0.0129123 0)
(0.184678 0.0138909 0)
(0.182302 0.0148361 0)
(0.179775 0.015747 0)
(0.177101 0.0166231 0)
(0.174286 0.0174637 0)
(0.171336 0.0182677 0)
(0.168256 0.0190334 0)
(0.165053 0.0197617 0)
(0.161733 0.0204506 0)
(0.158303 0.0210993 0)
(0.154769 0.0217083 0)
(0.151138 0.0222767 0)
(0.147417 0.0228038 0)
(0.14361 0.0232896 0)
(0.139728 0.0237338 0)
(0.135775 0.0241357 0)
(0.13176 0.0244956 0)
(0.127687 0.0248135 0)
(0.123566 0.025089 0)
(0.119402 0.0253226 0)
(0.115201 0.0255152 0)
(0.110972 0.0256666 0)
(0.106722 0.0257773 0)
(0.102456 0.0258485 0)
(0.0981836 0.0258801 0)
(0.0939105 0.0258731 0)
(0.0896449 0.0258269 0)
(0.0853944 0.0257436 0)
(0.0811646 0.0256231 0)
(0.0769641 0.0254653 0)
(0.0727998 0.0252714 0)
(0.0686786 0.0250413 0)
(0.0646048 0.0247758 0)
(0.060589 0.0244723 0)
(0.0566384 0.0241354 0)
(0.0527539 0.0237634 0)
(0.0489454 0.0233545 0)
(0.0452154 0.0229103 0)
(0.0415722 0.0224289 0)
(0.038021 0.0219108 0)
(0.0345557 0.0213553 0)
(0.0311892 0.0207655 0)
(0.0279237 0.0201409 0)
(0.0247515 0.019485 0)
(0.0216802 0.0188033 0)
(0.0187125 0.0180982 0)
(0.0158465 0.0173698 0)
(0.0130849 0.0166239 0)
(0.0104299 0.0158622 0)
(0.00789039 0.0150852 0)
(0.00546773 0.0142956 0)
(0.00315693 0.0134965 0)
(0.000965432 0.0126888 0)
(-0.00110618 0.0118784 0)
(-0.00306008 0.0110643 0)
(-0.00489328 0.010251 0)
(-0.00660408 0.00944195 0)
(-0.00819378 0.00863831 0)
(-0.00966282 0.00784459 0)
(-0.0110078 0.0070614 0)
(-0.0122317 0.00629183 0)
(-0.0133333 0.00553684 0)
(-0.0143097 0.00479751 0)
(-0.0151668 0.00407675 0)
(-0.0159031 0.00337325 0)
(-0.0165181 0.00268951 0)
(-0.0170149 0.00202651 0)
(-0.017397 0.00138499 0)
(-0.0176661 0.000766519 0)
(-0.0178253 0.000173046 0)
(-0.0178757 -0.000394788 0)
(-0.0178204 -0.000936287 0)
(-0.017663 -0.0014502 0)
(-0.0174069 -0.00193711 0)
(-0.0170563 -0.00239611 0)
(-0.0166129 -0.00282648 0)
(-0.0160835 -0.00322886 0)
(-0.0154707 -0.00360341 0)
(-0.014777 -0.00395002 0)
(-0.0140188 -0.00427007 0)
(-0.0131845 -0.00456158 0)
(-0.0122647 -0.00482665 0)
(-0.0114033 -0.00507255 0)
(-0.0101953 -0.00527733 0)
(-0.00948956 -0.00549305 0)
(-0.00784282 -0.00560811 0)
(-0.0074746 -0.00573487 0)
(-0.00528274 -0.00566572 0)
(-0.00539733 -0.00612733 0)
(-0.00243093 -0.00760465 0)
(-0.00247003 -0.00985613 0)
(0.00136229 -0.00229412 0)
(0.0042601 -0.0480996 0)
(0.00898335 -0.056063 0)
(0.0189448 -0.0535204 0)
(0.0241412 -0.0519307 0)
(0.0325301 -0.0516169 0)
(0.0385848 -0.0513271 0)
(0.0460984 -0.0509853 0)
(0.0526512 -0.0505079 0)
(0.0596011 -0.0499758 0)
(0.0662696 -0.0493778 0)
(0.0729016 -0.0487205 0)
(0.0794394 -0.0480021 0)
(0.0858572 -0.0472234 0)
(0.0921651 -0.0463871 0)
(0.0983541 -0.0454925 0)
(0.104412 -0.0445418 0)
(0.110332 -0.0435377 0)
(0.116108 -0.042482 0)
(0.121736 -0.0413755 0)
(0.127208 -0.0402195 0)
(0.132516 -0.0390175 0)
(0.137656 -0.0377717 0)
(0.142626 -0.0364828 0)
(0.147416 -0.0351544 0)
(0.152022 -0.0337888 0)
(0.156444 -0.032388 0)
(0.160672 -0.0309548 0)
(0.164705 -0.0294919 0)
(0.168539 -0.028002 0)
(0.172172 -0.0264868 0)
(0.1756 -0.0249503 0)
(0.17882 -0.0233943 0)
(0.181831 -0.0218216 0)
(0.184629 -0.020234 0)
(0.187214 -0.0186346 0)
(0.189583 -0.0170258 0)
(0.191737 -0.0154096 0)
(0.193674 -0.0137894 0)
(0.195393 -0.012167 0)
(0.196895 -0.0105443 0)
(0.198177 -0.00892549 0)
(0.199241 -0.00731255 0)
(0.200088 -0.00570607 0)
(0.200719 -0.00410959 0)
(0.201132 -0.00252697 0)
(0.201327 -0.000961174 0)
(0.201314 0.000582823 0)
(0.201103 0.00210583 0)
(0.200688 0.00360916 0)
(0.200071 0.00509037 0)
(0.199253 0.00654681 0)
(0.19824 0.00797749 0)
(0.197035 0.00937952 0)
(0.195641 0.0107512 0)
(0.194065 0.0120911 0)
(0.192307 0.0133976 0)
(0.190375 0.0146696 0)
(0.188275 0.0159048 0)
(0.186008 0.0171013 0)
(0.183581 0.0182586 0)
(0.181 0.0193751 0)
(0.178272 0.0204493 0)
(0.175401 0.0214798 0)
(0.172392 0.0224653 0)
(0.169253 0.0234052 0)
(0.165992 0.0242987 0)
(0.162611 0.0251444 0)
(0.159118 0.0259416 0)
(0.155522 0.0266895 0)
(0.151829 0.0273878 0)
(0.148042 0.0280354 0)
(0.144173 0.0286324 0)
(0.140226 0.0291786 0)
(0.136209 0.0296728 0)
(0.132129 0.0301154 0)
(0.127993 0.0305068 0)
(0.123808 0.0308463 0)
(0.119582 0.0311342 0)
(0.115321 0.0313709 0)
(0.111032 0.031557 0)
(0.106724 0.0316927 0)
(0.102403 0.0317786 0)
(0.0980764 0.0318152 0)
(0.0937507 0.0318032 0)
(0.089435 0.0317427 0)
(0.0851368 0.0316349 0)
(0.0808607 0.0314804 0)
(0.0766163 0.0312795 0)
(0.072409 0.0310333 0)
(0.0682461 0.030742 0)
(0.0641324 0.0304057 0)
(0.0600782 0.0300268 0)
(0.05609 0.0296037 0)
(0.0521684 0.029138 0)
(0.0483225 0.0286302 0)
(0.0445562 0.0280809 0)
(0.0408754 0.0274919 0)
(0.037283 0.0268594 0)
(0.0337822 0.0261862 0)
(0.0303784 0.0254796 0)
(0.0270721 0.0247303 0)
(0.0238646 0.023947 0)
(0.0207603 0.0231317 0)
(0.0177628 0.0222868 0)
(0.0148735 0.0214103 0)
(0.0120961 0.0205124 0)
(0.00943243 0.0195911 0)
(0.00688665 0.018655 0)
(0.00446162 0.0177003 0)
(0.00215461 0.0167329 0)
(-2.93865e-05 0.0157578 0)
(-0.00208941 0.014775 0)
(-0.00402826 0.0137877 0)
(-0.00584275 0.0127999 0)
(-0.0075327 0.0118128 0)
(-0.00909781 0.0108301 0)
(-0.0105366 0.00985467 0)
(-0.0118502 0.00888949 0)
(-0.0130379 0.00793544 0)
(-0.0141018 0.00699886 0)
(-0.015041 0.00607768 0)
(-0.0158587 0.00517636 0)
(-0.0165561 0.00429684 0)
(-0.0171332 0.003441 0)
(-0.0175942 0.00260978 0)
(-0.0179411 0.00180496 0)
(-0.0181753 0.00102898 0)
(-0.0182999 0.000281343 0)
(-0.0183186 -0.000435483 0)
(-0.0182346 -0.00112242 0)
(-0.0180507 -0.00177647 0)
(-0.0177694 -0.0023988 0)
(-0.0173942 -0.00298666 0)
(-0.01693 -0.00354112 0)
(-0.016381 -0.00406215 0)
(-0.0157491 -0.00454833 0)
(-0.0150384 -0.00500101 0)
(-0.014263 -0.00542112 0)
(-0.0134118 -0.00580617 0)
(-0.0124779 -0.00615841 0)
(-0.0115992 -0.006483 0)
(-0.0103737 -0.00676617 0)
(-0.0096414 -0.00703887 0)
(-0.00798915 -0.00723308 0)
(-0.00756841 -0.00738447 0)
(-0.00540553 -0.0073665 0)
(-0.00543849 -0.00794998 0)
(-0.00257845 -0.00982906 0)
(-0.00252907 -0.0124567 0)
(0.00129633 -0.00320243 0)
(0.00426494 -0.057119 0)
(0.00915991 -0.0666369 0)
(0.0191503 -0.0636177 0)
(0.024511 -0.0617004 0)
(0.0329297 -0.0613267 0)
(0.0391193 -0.0609669 0)
(0.0466918 -0.0605637 0)
(0.0533551 -0.0599849 0)
(0.060384 -0.0593501 0)
(0.0671477 -0.0586313 0)
(0.0738657 -0.0578431 0)
(0.0804914 -0.056983 0)
(0.0869952 -0.0560513 0)
(0.0933885 -0.0550502 0)
(0.0996611 -0.0539815 0)
(0.105799 -0.0528472 0)
(0.111798 -0.0516488 0)
(0.117652 -0.0503888 0)
(0.123355 -0.0490696 0)
(0.1289 -0.0476947 0)
(0.134277 -0.0462645 0)
(0.139485 -0.0447812 0)
(0.144517 -0.0432497 0)
(0.149368 -0.0416724 0)
(0.154032 -0.0400502 0)
(0.158506 -0.0383871 0)
(0.162785 -0.036687 0)
(0.166865 -0.0349509 0)
(0.170743 -0.0331826 0)
(0.174415 -0.0313854 0)
(0.177877 -0.0295628 0)
(0.181127 -0.027717 0)
(0.184165 -0.0258513 0)
(0.186985 -0.0239687 0)
(0.189588 -0.0220728 0)
(0.191971 -0.0201663 0)
(0.194133 -0.0182524 0)
(0.196075 -0.016334 0)
(0.197795 -0.014414 0)
(0.199292 -0.0124958 0)
(0.200566 -0.0105819 0)
(0.201621 -0.00867434 0)
(0.202456 -0.00677612 0)
(0.203071 -0.00488978 0)
(0.203469 -0.00301698 0)
(0.203656 -0.00115877 0)
(0.203627 0.000683887 0)
(0.203382 0.00250477 0)
(0.20293 0.00429991 0)
(0.202273 0.00606758 0)
(0.201413 0.00780547 0)
(0.200356 0.00951142 0)
(0.199103 0.0111827 0)
(0.197658 0.0128177 0)
(0.196027 0.0144142 0)
(0.194214 0.0159703 0)
(0.192223 0.0174843 0)
(0.190061 0.018954 0)
(0.18773 0.0203777 0)
(0.185239 0.0217542 0)
(0.182592 0.0230815 0)
(0.179795 0.0243584 0)
(0.176853 0.0255833 0)
(0.173774 0.0267542 0)
(0.170563 0.0278711 0)
(0.167226 0.0289322 0)
(0.163771 0.0299362 0)
(0.160203 0.0308829 0)
(0.156531 0.0317712 0)
(0.15276 0.0325996 0)
(0.148897 0.0333681 0)
(0.144951 0.0340767 0)
(0.140926 0.0347243 0)
(0.136832 0.0353102 0)
(0.132676 0.0358345 0)
(0.128463 0.0362974 0)
(0.124202 0.0366987 0)
(0.1199 0.0370384 0)
(0.115564 0.0373164 0)
(0.111202 0.037534 0)
(0.106821 0.0376911 0)
(0.102429 0.0377876 0)
(0.098032 0.037825 0)
(0.0936372 0.0378034 0)
(0.0892533 0.0377242 0)
(0.0848882 0.0375866 0)
(0.080546 0.0373928 0)
(0.076236 0.0371425 0)
(0.0719649 0.0368366 0)
(0.0677379 0.0364771 0)
(0.0635622 0.0360634 0)
(0.0594459 0.0355984 0)
(0.0553942 0.0350807 0)
(0.0514113 0.0345101 0)
(0.0475052 0.0338903 0)
(0.0436803 0.033222 0)
(0.0399385 0.0325054 0)
(0.0362864 0.0317413 0)
(0.0327337 0.0309319 0)
(0.0292767 0.03008 0)
(0.0259187 0.0291851 0)
(0.0226685 0.0282522 0)
(0.0195256 0.0272839 0)
(0.0164887 0.0262831 0)
(0.0135669 0.0252513 0)
(0.0107618 0.0241948 0)
(0.00807319 0.0231111 0)
(0.00550754 0.0220115 0)
(0.00306257 0.0208911 0)
(0.000745348 0.0197579 0)
(-0.00144489 0.0186143 0)
(-0.00351017 0.0174619 0)
(-0.00544694 0.0163038 0)
(-0.00725446 0.0151451 0)
(-0.00893202 0.0139872 0)
(-0.0104791 0.0128351 0)
(-0.0118968 0.0116907 0)
(-0.0131849 0.0105574 0)
(-0.0143422 0.0094379 0)
(-0.0153718 0.0083346 0)
(-0.0162744 0.00725005 0)
(-0.0170507 0.00618598 0)
(-0.0177033 0.00514544 0)
(-0.0182334 0.00413037 0)
(-0.0186445 0.00314309 0)
(-0.0189386 0.00218429 0)
(-0.0191202 0.00125856 0)
(-0.0191921 0.00036423 0)
(-0.0191566 -0.000495977 0)
(-0.0190171 -0.00132141 0)
(-0.0187775 -0.00210913 0)
(-0.0184414 -0.00286028 0)
(-0.0180128 -0.00357189 0)
(-0.017497 -0.00424583 0)
(-0.016897 -0.0048797 0)
(-0.0162166 -0.00547406 0)
(-0.0154611 -0.0060291 0)
(-0.0146417 -0.00654499 0)
(-0.0137475 -0.00701965 0)
(-0.012778 -0.00745452 0)
(-0.0118536 -0.00785666 0)
(-0.0106039 -0.00820367 0)
(-0.00982582 -0.00855571 0)
(-0.00816974 -0.00878403 0)
(-0.0076886 -0.008997 0)
(-0.0055505 -0.00897691 0)
(-0.00551772 -0.00969996 0)
(-0.00271259 -0.0119579 0)
(-0.00255913 -0.0150563 0)
(0.00127936 -0.00407275 0)
(0.00425968 -0.0662778 0)
(0.00936606 -0.0773879 0)
(0.019413 -0.0738857 0)
(0.0249716 -0.0716341 0)
(0.033441 -0.0711903 0)
(0.0397962 -0.0707662 0)
(0.0474478 -0.0702984 0)
(0.0542495 -0.0696204 0)
(0.0613765 -0.0688786 0)
(0.0682597 -0.0680389 0)
(0.0750836 -0.0671174 0)
(0.0818161 -0.0661135 0)
(0.0884262 -0.0650255 0)
(0.094921 -0.0638566 0)
(0.101292 -0.0626102 0)
(0.107529 -0.0612877 0)
(0.113623 -0.0598916 0)
(0.119567 -0.0584239 0)
(0.125356 -0.0568875 0)
(0.130983 -0.055286 0)
(0.136442 -0.0536218 0)
(0.141726 -0.0518976 0)
(0.146829 -0.0501162 0)
(0.151747 -0.0482813 0)
(0.156476 -0.0463967 0)
(0.161009 -0.0444645 0)
(0.165342 -0.0424882 0)
(0.169472 -0.0404719 0)
(0.173395 -0.0384189 0)
(0.177107 -0.0363326 0)
(0.180606 -0.0342163 0)
(0.18389 -0.0320735 0)
(0.186955 -0.0299076 0)
(0.189798 -0.0277222 0)
(0.192419 -0.0255207 0)
(0.194817 -0.0233068 0)
(0.19699 -0.0210837 0)
(0.198937 -0.0188546 0)
(0.200658 -0.0166232 0)
(0.202153 -0.0143927 0)
(0.203423 -0.0121659 0)
(0.204466 -0.00994573 0)
(0.205285 -0.00773621 0)
(0.205881 -0.00554095 0)
(0.206255 -0.00336272 0)
(0.206407 -0.00120496 0)
(0.206342 0.000927808 0)
(0.206065 0.00303505 0)
(0.205575 0.00511417 0)
(0.204877 0.00716189 0)
(0.203972 0.00917569 0)
(0.202864 0.0111522 0)
(0.201558 0.0130892 0)
(0.200059 0.0149845 0)
(0.19837 0.0168355 0)
(0.196495 0.0186398 0)
(0.19444 0.0203955 0)
(0.192212 0.0220998 0)
(0.189812 0.023751 0)
(0.187248 0.0253476 0)
(0.184526 0.0268872 0)
(0.181653 0.0283682 0)
(0.178632 0.0297884 0)
(0.175472 0.031147 0)
(0.172178 0.0324423 0)
(0.168757 0.0336728 0)
(0.165216 0.0348371 0)
(0.161562 0.0359346 0)
(0.157801 0.036964 0)
(0.153941 0.0379241 0)
(0.149989 0.0388148 0)
(0.145952 0.0396352 0)
(0.141836 0.0403847 0)
(0.13765 0.041063 0)
(0.133402 0.0416694 0)
(0.129098 0.0422037 0)
(0.124745 0.0426668 0)
(0.120352 0.0430583 0)
(0.115925 0.0433778 0)
(0.111473 0.0436265 0)
(0.107002 0.0438046 0)
(0.102521 0.043912 0)
(0.0980358 0.0439503 0)
(0.0935542 0.0439192 0)
(0.089084 0.0438208 0)
(0.0846332 0.043654 0)
(0.0802069 0.0434213 0)
(0.0758131 0.0431231 0)
(0.0714603 0.0427598 0)
(0.0671536 0.0423335 0)
(0.0628988 0.0418453 0)
(0.0587054 0.0412959 0)
(0.0545752 0.0406866 0)
(0.0505162 0.0400175 0)
(0.0465383 0.03929 0)
(0.0426406 0.0385084 0)
(0.0388295 0.0376719 0)
(0.0351109 0.0367843 0)
(0.0314906 0.0358459 0)
(0.0279701 0.0348572 0)
(0.0245531 0.0338217 0)
(0.0212453 0.0327444 0)
(0.0180479 0.0316249 0)
(0.0149632 0.0304673 0)
(0.011998 0.0292783 0)
(0.00915012 0.0280549 0)
(0.0064284 0.0268053 0)
(0.00383392 0.0255312 0)
(0.00136476 0.0242343 0)
(-0.00097122 0.0229239 0)
(-0.00317814 0.0215978 0)
(-0.00525405 0.020262 0)
(-0.0071964 0.0189199 0)
(-0.00900447 0.0175752 0)
(-0.010678 0.0162316 0)
(-0.012216 0.0148923 0)
(-0.0136192 0.0135604 0)
(-0.0148877 0.0122412 0)
(-0.0160221 0.0109365 0)
(-0.0170248 0.00964959 0)
(-0.0178958 0.00838425 0)
(-0.0186376 0.007142 0)
(-0.0192514 0.00592714 0)
(-0.019739 0.00474164 0)
(-0.020106 0.00358784 0)
(-0.0203512 0.00246587 0)
(-0.0204792 0.00138094 0)
(-0.020496 0.000334485 0)
(-0.0204028 -0.0006737 0)