/*--------------------------------*- C++ -*----------------------------------*\
| =========                 |                                                 |
| \\      /  F ield         | OpenFOAM: The Open Source CFD Toolbox           |
|  \\    /   O peration     | Version:  v2006                                 |
|   \\  /    A nd           | Website:  www.openfoam.com                      |
|    \\/     M anipulation  |                                                 |
\*---------------------------------------------------------------------------*/
FoamFile
{
    version     2.0;
    format      ascii;
    class       volScalarField;
    location    "0";
    object      f;
}
// * * * * * * * * * * * * * * * * * * * * * * * * * * * * * * * * * * * * * //

dimensions      [0 0 0 0 0 0 0];


internalField   nonuniform List<scalar> 
2500
(
-2.38374e-16
-2.38459e-16
-2.3842e-16
-2.40798e-16
-2.42938e-16
-2.64573e-16
-3.10372e-16
-4.02936e-16
-5.24767e-16
-5.76747e-15
-5.89775e-15
2.02576e-14
3.86843e-14
-1.15723e-14
-7.7965e-14
-4.34732e-14
1.01605e-13
2.24392e-13
1.93288e-13
-2.71513e-13
-1.74839e-12
-2.74532e-12
-2.38349e-12
8.38892e-14
2.78349e-12
2.41229e-12
7.43271e-13
-3.51236e-13
-1.36821e-12
-1.14371e-12
-6.15937e-13
-2.37041e-13
-5.31376e-14
5.39828e-14
8.67424e-14
4.43913e-14
8.51571e-15
4.45005e-16
1.1733e-16
2.06366e-16
1.86579e-16
1.26014e-16
7.49173e-17
4.24126e-17
2.38507e-17
1.36392e-17
7.97816e-18
4.72646e-18
2.78582e-18
1.60558e-18
3.83777e-14
3.73621e-14
4.01302e-14
3.95143e-14
3.10937e-14
3.38683e-14
4.7907e-14
4.95414e-14
3.29086e-14
-9.32935e-15
5.83941e-14
2.17433e-13
1.00747e-13
-1.7253e-13
-2.76612e-13
1.34243e-14
6.56134e-13
5.80297e-13
-1.64691e-13
-7.64893e-12
-1.23797e-11
-1.37319e-11
-6.28101e-12
1.89955e-11
1.95366e-11
7.00117e-12
-2.7049e-12
-1.49197e-11
-1.17195e-11
-5.51331e-12
-1.77345e-12
-4.83432e-13
7.76368e-13
1.05282e-12
5.32585e-13
1.14858e-13
-3.98872e-15
-4.2102e-15
-5.17564e-16
4.48173e-16
4.33353e-16
2.59773e-16
1.4013e-16
7.44806e-17
4.04411e-17
2.28699e-17
1.34553e-17
8.07211e-18
4.80951e-18
2.78564e-18
5.3731e-13
5.35335e-13
5.46941e-13
5.31585e-13
5.01451e-13
5.48109e-13
6.03933e-13
5.51268e-13
4.2313e-13
3.66602e-13
8.5422e-13
7.31722e-13
-2.57759e-13
-5.96423e-13
-8.1526e-14
2.53753e-12
2.05268e-12
-6.12618e-12
-3.73162e-11
-3.86273e-11
-2.97086e-11
-2.47028e-11
9.49546e-11
9.67907e-11
4.33151e-11
-2.23148e-11
-1.0045e-10
-7.32512e-11
-2.92584e-11
-8.99565e-12
3.06336e-12
1.07478e-11
9.18629e-12
4.28065e-12
9.95306e-13
-1.22038e-13
-8.92133e-14
-1.78083e-14
9.73467e-16
2.51576e-15
1.22147e-15
5.04145e-16
2.33125e-16
1.15725e-16
6.14413e-17
3.51677e-17
2.13543e-17
1.3239e-17
8.07167e-18
4.72591e-18
2.53072e-12
2.54257e-12
2.53659e-12
2.48313e-12
2.53196e-12
2.66484e-12
2.66963e-12
2.3383e-12
2.11758e-12
3.02561e-12
3.46869e-12
1.05319e-12
-2.16018e-12
-8.39926e-13
1.56896e-11
2.63357e-11
-1.06595e-11
-1.31219e-10
-1.88819e-10
-8.63685e-11
2.34332e-10
6.6136e-10
5.88961e-10
2.04745e-10
-3.35292e-10
-7.1847e-10
-4.87896e-10
-1.52751e-10
-2.53066e-12
1.40073e-10
1.38482e-10
8.12916e-11
3.32076e-11
7.43803e-12
-2.2462e-12
-1.40508e-12
-2.9294e-13
6.38965e-15
2.87672e-14
1.23046e-14
2.60485e-15
6.94543e-16
3.01317e-16
1.48375e-16
8.11875e-17
4.9641e-17
3.25026e-17
2.13533e-17
1.34539e-17
7.97693e-18
7.51163e-12
7.57956e-12
7.43698e-12
7.42937e-12
7.84844e-12
7.88549e-12
7.48614e-12
6.63273e-12
7.2927e-12
1.05457e-11
8.31614e-12
-4.06121e-12
-5.58091e-12
3.14859e-11
9.47951e-11
8.52457e-11
-1.68129e-10
-5.34297e-10
-4.21673e-10
1.34659e-09
3.9884e-09
4.18066e-09
1.46463e-09
-2.3148e-09
-4.27843e-09
-3.09874e-09
-9.91282e-10
5.61414e-10
1.72881e-09
1.27569e-09
6.25844e-10
2.34292e-10
5.48306e-11
-3.03274e-11
-1.82694e-11
-4.01257e-12
-3.33047e-15
2.86771e-13
1.37954e-13
2.72721e-14
2.11561e-15
5.06129e-16
2.64301e-16
1.47146e-16
9.27632e-17
6.65907e-17
4.96389e-17
3.51647e-17
2.2867e-17
1.36368e-17
1.66991e-11
1.68741e-11
1.63802e-11
1.68432e-11
1.78523e-11
1.7107e-11
1.58913e-11
1.50037e-11
1.85079e-11
2.51602e-11
1.14805e-11
-1.82587e-11
2.83508e-11
1.65485e-10
2.7536e-10
9.84571e-11
-6.40478e-10
-1.05074e-09
3.54989e-09
1.11418e-08
1.62164e-08
1.21174e-08
-3.86339e-09
-1.70159e-08
-1.50473e-08
-5.86966e-09
4.62398e-09
1.32043e-08
9.24879e-09
3.90472e-09
1.24249e-09
3.36372e-10
-3.56415e-10
-2.08477e-10
-4.55224e-11
-9.53284e-13
2.20197e-12
1.19586e-12
2.81344e-13
1.82282e-14
-1.53462e-16
1.04389e-16
1.40764e-16
1.1292e-16
9.84352e-17
9.2759e-17
8.11815e-17
6.14351e-17
4.04358e-17
2.38466e-17
2.93509e-11
2.96193e-11
2.8674e-11
3.04265e-11
3.1399e-11
2.88247e-11
2.74566e-11
2.81855e-11
3.63031e-11
4.20362e-11
-2.30812e-12
-2.85486e-11
1.87413e-10
4.35338e-10
4.45272e-10
-1.57023e-10
-1.86057e-09
7.18758e-09
2.57955e-08
3.72738e-08
3.4627e-08
1.51557e-08
-4.14517e-08
-4.84593e-08
-2.65443e-08
2.7832e-08
8.53873e-08
5.87292e-08
2.05083e-08
5.76648e-09
-7.84784e-10
-4.65692e-09
-2.37435e-09
-4.71403e-10
-9.38087e-12
1.47402e-11
8.46922e-12
2.25533e-12
1.93781e-13
-1.05578e-14
-3.34676e-15
-3.00528e-16
4.61764e-17
7.79539e-17
1.12914e-16
1.47135e-16
1.48363e-16
1.15714e-16
7.44715e-17
4.2406e-17
-9.27434e-09
-9.2768e-09
-9.25884e-09
-9.24658e-09
-9.29399e-09
-9.3558e-09
-9.24919e-09
-9.01149e-09
-9.13582e-09
-1.0061e-08
-1.02333e-08
-7.90823e-09
-6.02403e-09
-7.02975e-09
-1.83164e-08
-3.7644e-08
-1.1279e-08
5.22973e-08
7.57141e-08
6.79261e-08
-6.59526e-08
-2.92161e-07
-1.82376e-07
-5.24891e-08
2.1403e-07
5.31791e-07
3.54787e-07
1.13039e-07
-2.12047e-08
-8.15286e-08
-6.93507e-08
-2.92232e-08
-5.47958e-09
-5.56742e-11
8.88272e-11
5.35631e-11
1.58342e-11
1.7061e-12
-1.02419e-13
-4.16712e-14
-5.5504e-15
2.21134e-16
1.28372e-16
4.61696e-17
1.4075e-16
2.64281e-16
3.01295e-16
2.33106e-16
1.40115e-16
7.49072e-17
-2.56902e-07
-2.56912e-07
-2.56751e-07
-2.56791e-07
-2.57262e-07
-2.57263e-07
-2.55882e-07
-2.5537e-07
-2.58829e-07
-2.62969e-07
-2.56629e-07
-2.37908e-07
-2.41953e-07
-2.89021e-07
-3.58879e-07
-3.17254e-07
-3.30698e-08
1.54822e-07
8.57174e-08
-8.52307e-07
-2.14823e-06
-1.96154e-06
-3.79155e-07
1.77283e-06
3.00689e-06
2.24984e-06
6.16021e-07
-7.62054e-07
-1.12038e-06
-7.66384e-07
-3.22025e-07
-7.23102e-08
-2.88243e-09
4.57638e-10
2.92624e-10
1.00696e-10
1.56565e-11
-4.74523e-13
-2.574e-13
-5.44482e-14
7.79065e-16
1.4093e-15
2.21128e-16
-3.00529e-16
1.04372e-16
5.06099e-16
6.94504e-16
5.04112e-16
2.5975e-16
1.25999e-16
-1.47748e-06
-1.47748e-06
-1.47729e-06
-1.47782e-06
-1.47849e-06
-1.47605e-06
-1.47339e-06
-1.4812e-06
-1.49214e-06
-1.47617e-06
-1.44001e-06
-1.43317e-06
-1.5585e-06
-1.73865e-06
-1.67291e-06
-1.00994e-06
-4.72583e-08
2.15437e-07
-2.82557e-06
-7.46939e-06
-9.51831e-06
-5.78212e-06
3.8473e-06
1.20666e-05
1.13083e-05
4.42528e-06
-4.52597e-06
-7.30234e-06
-5.28073e-06
-2.47598e-06
-7.3576e-07
-8.64772e-08
1.91719e-09
1.27148e-09
5.20227e-10
1.20757e-10
5.08059e-12
-6.78011e-13
-2.19529e-13
9.34305e-15
8.44297e-15
7.79204e-16
-5.55019e-15
-3.34664e-15
-1.53469e-16
2.11551e-15
2.60472e-15
1.2214e-15
4.33322e-16
1.8656e-16
-4.69271e-06
-4.69283e-06
-4.6935e-06
-4.69455e-06
-4.69232e-06
-4.68354e-06
-4.69036e-06
-4.72593e-06
-4.72067e-06
-4.61144e-06
-4.5651e-06
-4.77285e-06
-5.22481e-06
-5.37268e-06
-4.31431e-06
-1.85264e-06
-1.58952e-07
-5.23154e-06
-1.66851e-05
-2.54622e-05
-2.3579e-05
-5.05729e-06
2.45691e-05
3.48862e-05
2.28223e-05
-6.25753e-06
-2.88201e-05
-2.35617e-05
-1.25355e-05
-4.65217e-06
-1.02793e-06
-5.14831e-08
3.35626e-09
1.87059e-09
6.48951e-10
1.10545e-10
2.70847e-12
1.50888e-13
3.16939e-13
1.70289e-13
9.34421e-15
-5.44464e-14
-4.16699e-14
-1.05574e-14
1.82274e-14
2.7271e-14
1.23041e-14
2.51563e-15
4.4814e-16
2.06346e-16
-1.02534e-05
-1.02543e-05
-1.0257e-05
-1.02559e-05
-1.0245e-05
-1.02338e-05
-1.02777e-05
-1.03409e-05
-1.02338e-05
-9.9736e-06
-1.01362e-05
-1.09128e-05
-1.16029e-05
-1.09186e-05
-7.18917e-06
-2.10894e-06
-6.25727e-06
-2.70388e-05
-4.8442e-05
-5.28515e-05
-3.16788e-05
3.92755e-05
7.37399e-05
5.95522e-05
4.95209e-06
-0.000110244
-7.62246e-05
-4.10287e-05
-1.75884e-05
-5.52663e-06
-9.75319e-07
-2.26683e-08
4.16383e-09
2.06733e-09
6.64981e-10
1.58227e-10
3.98758e-11
4.66268e-12
1.40388e-12
3.1694e-13
-2.19525e-13
-2.57394e-13
-1.02416e-13
1.93774e-13
2.81334e-13
1.37949e-13
2.8766e-14
9.73386e-16
-5.1757e-16
1.17315e-16
-1.35449e-05
-1.35466e-05
-1.35529e-05
-1.35495e-05
-1.35194e-05
-1.35046e-05
-1.36295e-05
-1.37383e-05
-1.33981e-05
-1.28972e-05
-1.35734e-05
-1.54053e-05
-1.63887e-05
-1.28873e-05
-2.51073e-06
4.34604e-06
-2.38189e-05
-7.29925e-05
-8.81807e-05
-5.75403e-05
0.000120557
0.000250813
0.00012841
-0.000250174
-0.000783451
-0.000569768
-5.56853e-05
0.000693714
0.00140464
0.00176136
0.00171804
0.00140083
0.000950192
0.000528199
0.000229597
6.80072e-05
8.06662e-06
6.01165e-12
4.66265e-12
1.50887e-13
-6.78002e-13
-4.74518e-13
1.70604e-12
2.25526e-12
1.19582e-12
2.86761e-13
6.38914e-15
-1.78081e-14
-4.21014e-15
4.44987e-16
0.00010819
0.000108192
0.000108098
0.00010808
0.000108489
0.000108634
0.000107341
0.000106349
0.000109541
0.000113889
0.000108887
9.42143e-05
9.04172e-05
0.000124932
0.000178683
0.000151746
-4.49457e-06
-0.000123895
-5.63588e-05
0.000537002
0.00115462
0.000830243
-0.000888157
-0.00347501
-0.00394141
-0.00153963
0.00448374
0.0126301
0.0197823
0.023148
0.0223472
0.0185515
0.0131377
0.00782756
0.00378357
0.00135075
0.000267337
8.06662e-06
3.98751e-11
2.7081e-12
5.08023e-12
1.56559e-11
1.58337e-11
8.46896e-12
2.2019e-12
-3.33366e-15
-2.92937e-13
-8.92125e-14
-3.98878e-15
8.51545e-15
0.000795807
0.000795759
0.000795274
0.00079562
0.000797727
0.000796807
0.00078976
0.00078984
0.000809392
0.000819964
0.000778717
0.00071992
0.000763345
0.000952189
0.00104522
0.000737408
0.000156074
-7.8308e-05
0.00122954
0.00342511
0.00401121
0.000676999
-0.00707942
-0.0131247
-0.0112597
0.00393379
0.0328482
0.0674569
0.0952211
0.10641
0.100514
0.0824097
0.0581172
0.0347208
0.016958
0.00621725
0.00135075
6.80073e-05
1.58223e-10
1.10541e-10
1.20753e-10
1.00693e-10
5.35616e-11
1.47398e-11
-9.53264e-13
-4.01252e-12
-1.40506e-12
-1.22038e-13
1.14854e-13
4.43899e-14
0.00278417
0.00278383
0.00278268
0.00278499
0.00279007
0.00278245
0.00276402
0.00278019
0.00283852
0.00282846
0.00267436
0.00258078
0.00286521
0.00335974
0.00323352
0.00201804
0.000595864
0.00176266
0.00622282
0.0103676
0.00829033
-0.00497594
-0.0234371
-0.033007
-0.0160916
0.0388617
0.126356
0.221186
0.290553
0.312554
0.288315
0.23213
0.1615
0.0954909
0.0462911
0.016958
0.00378358
0.000229597
6.64971e-10
6.48936e-10
5.20214e-10
2.92616e-10
8.88246e-11
-9.38037e-12
-4.55216e-11
-1.82692e-11
-2.24619e-12
9.95278e-13
5.3257e-13
8.67397e-14
0.00689453
0.00689352
0.0068922
0.00689903
0.00690503
0.0068809
0.00685521
0.00691891
0.00701952
0.00690469
0.0065712
0.00660359
0.00742809
0.00815118
0.00706303
0.00403349
0.00296759
0.00795375
0.0171695
0.0217236
0.00907717
-0.0219228
-0.055
-0.0573726
0.00560604
0.147728
0.34625
0.543408
0.674366
0.701405
0.631964
0.49908
0.341737
0.19931
0.0954909
0.0347208
0.00782756
0.000528199
2.06732e-09
1.87057e-09
1.27145e-09
4.57626e-10
-5.56669e-11
-4.71393e-10
-2.08473e-10
-3.03271e-11
7.43782e-12
4.28054e-12
1.05279e-12
5.39809e-14
0.0135463
0.0135444
0.0135447
0.0135572
0.0135565
0.0135103
0.0135011
0.0136389
0.0137268
0.0133999
0.0129546
0.0134379
0.0149417
0.0152955
0.0120843
0.00770841
0.00936047
0.0206382
0.034568
0.0323444
-0.000252511
-0.0559082
-0.0968329
-0.0623074
0.0970711
0.387488
0.752561
1.0868
1.28545
1.29628
1.14121
0.883669
0.594902
0.341737
0.1615
0.0581172
0.0131377
0.000950192
4.16382e-09
3.35623e-09
1.91715e-09
-2.88226e-09
-5.47944e-09
-2.3743e-09
-3.5641e-10
5.48293e-11
3.32069e-11
9.18608e-12
7.76345e-13
-5.31352e-14
0.0221649
0.0221627
0.0221666
0.0221816
0.0221645
0.0221061
0.0221488
0.022345
0.0223093
0.0217444
0.0214549
0.0226859
0.0245276
0.0233267
0.0177361
0.0139726
0.0212144
0.039985
0.0531158
0.0346599
-0.026589
-0.104094
-0.127437
-0.00949386
0.305272
0.799284
1.36646
1.84507
2.09183
2.04847
1.76202
1.3368
0.883669
0.49908
0.23213
0.0824097
0.0185515
0.00140083
-2.26661e-08
-5.14801e-08
-8.64741e-08
-7.23084e-08
-2.92226e-08
-4.65685e-09
3.36366e-10
2.34289e-10
8.12902e-11
1.07476e-11
-4.83414e-13
-2.37032e-13
0.0309321
0.0309306
0.0309391
0.0309493
0.030911
0.030867
0.0309853
0.0311663
0.0309033
0.0302312
0.0304746
0.0324582
0.0336456
0.0300036
0.0231559
0.0228856
0.0380641
0.0613619
0.0652483
0.0203965
-0.0707446
-0.151296
-0.11863
0.132591
0.648265
1.36994
2.13268
2.72229
2.97015
2.82668
2.37393
1.76202
1.14121
0.631964
0.288315
0.100514
0.0223472
0.00171804
-9.75291e-07
-1.0279e-06
-7.35745e-07
-3.22019e-07
-6.93495e-08
-7.84765e-10
1.24248e-09
6.25835e-10
1.38479e-10
3.06328e-12
-1.77339e-12
-6.15914e-13
0.0367186
0.0367193
0.0367315
0.0367271
0.0366713
0.0366785
0.0368685
0.0369237
0.0363845
0.0358845
0.0369955
0.0392596
0.0386637
0.032442
0.0263396
0.0328278
0.0564872
0.0785822
0.0624428
-0.0145644
-0.126948
-0.184857
-0.0605522
0.354961
1.08022
2.00459
2.90783
3.54021
3.72942
3.45085
2.82668
2.04847
1.29628
0.701405
0.312554
0.10641
0.023148
0.00176136
-5.52654e-06
-4.6521e-06
-2.47595e-06
-7.66372e-07
-8.1527e-08
5.76642e-09
3.90467e-09
1.27568e-09
1.4007e-10
-8.9954e-12
-5.51314e-12
-1.14366e-12
0.0361469
0.0361516
0.0361637
0.0361327
0.0360752
0.0361798
0.0364057
0.0361817
0.0353906
0.0354891
0.0376663
0.0394935
0.0358291
0.0271347
0.0249459
0.0422075
0.0734323
0.0852409
0.03925
-0.0746455
-0.200224
-0.219123
0.011183
0.585172
1.4804
2.53325
3.48374
4.07293
4.15002
3.72942
2.97015
2.09183
1.28545
0.674366
0.290553
0.0952211
0.0197823
0.00140464
-1.75882e-05
-1.25354e-05
-5.28067e-06
-1.12036e-06
-2.12038e-08
2.05081e-08
9.24868e-09
1.72878e-09
-2.53098e-12
-2.92576e-11
-1.17191e-11
-1.36815e-12
0.0275434
0.0275534
0.0275543
0.0274866
0.0274742
0.0277246
0.0278538
0.02715
0.0263545
0.0276837
0.0309946
0.0307328
0.0221524
0.0127952
0.0201381
0.0526712
0.0870353
0.0780858
-0.0152666
-0.178521
-0.325734
-0.312785
0.00374532
0.690526
1.67876
2.76108
3.65938
4.13248
4.07293
3.54021
2.72229
1.84507
1.0868
0.543408
0.221186
0.0674569
0.0126301
0.000693713
-4.10283e-05
-2.35615e-05
-7.30225e-06
-7.62041e-07
1.13038e-07
5.87285e-08
1.32041e-08
5.61403e-10
-1.52747e-10
-7.32493e-11
-1.49192e-11
-3.51211e-13
0.0119933
0.0120059
0.0119756
0.0118877
0.0120125
0.0123733
0.0121017
0.0108654
0.0107946
0.014183
0.0174155
0.0118431
-0.00180057
-0.00655839
0.0191797
0.068147
0.0974066
0.041977
-0.128426
-0.373963
-0.573782
-0.564508
-0.209734
0.523873
1.52331
2.55097
3.33059
3.65938
3.48374
2.90783
2.13268
1.36646
0.752561
0.34625
0.126356
0.0328482
0.00448374
-5.56841e-05
-7.6224e-05
-2.88198e-05
-4.52592e-06
6.16016e-07
3.54783e-07
8.53861e-08
4.62386e-09
-9.91264e-10
-4.87885e-10
-1.00447e-10
-2.70466e-12
7.43245e-13
-0.00701798
-0.00701417
-0.00708893
-0.00711997
-0.00678595
-0.00656792
-0.00757241
-0.00885721
-0.00686591
-0.00160016
-0.00224533
-0.0154005
-0.0307435
-0.0192791
0.0315121
0.0925512
0.088035
-0.0551066
-0.353355
-0.730515
-1.03051
-1.07157
-0.726897
0.00279815
0.964389
1.90021
2.55097
2.76108
2.53325
2.00459
1.36994
0.799284
0.387488
0.147728
0.0388617
0.00393379
-0.00153962
-0.000569766
-0.000110243
-6.25739e-06
4.42525e-06
2.24982e-06
5.31784e-07
2.78311e-08
-5.86956e-09
-3.09869e-09
-7.18455e-10
-2.23133e-11
7.00103e-12
2.41221e-12
-0.0248689
-0.02489
-0.0249826
-0.024846
-0.0243963
-0.0247482
-0.0264458
-0.0264497
-0.0214291
-0.01747
-0.0257831
-0.045993
-0.0515559
-0.0129204
0.0640405
0.111315
0.0266056
-0.264328
-0.748474
-1.30685
-1.74381
-1.859
-1.53807
-0.819113
0.105461
0.964389
1.52331
1.67876
1.4804
1.08022
0.648265
0.305272
0.0970711
0.00560605
-0.0160916
-0.0112596
-0.0039414
-0.000783448
4.95236e-06
2.28222e-05
1.13082e-05
3.00686e-06
2.14024e-07
-2.65439e-08
-1.5047e-08
-4.27836e-09
-3.35282e-10
4.33143e-11
1.95362e-11
2.78341e-12
-0.0376907
-0.0377416
-0.0377809
-0.0374327
-0.0371673
-0.0384003
-0.0399623
-0.0370902
-0.0307265
-0.03202
-0.0502303
-0.0696889
-0.0528712
0.0202529
0.106158
0.0963923
-0.127922
-0.623155
-1.33421
-2.09099
-2.65681
-2.81861
-2.48499
-1.74084
-0.819113
0.00279814
0.523873
0.690525
0.585172
0.354961
0.132591
-0.00949385
-0.0623073
-0.0573726
-0.033007
-0.0131247
-0.00347501
-0.000250174
5.95518e-05
3.48859e-05
1.20665e-05
1.77282e-06
-5.24882e-08
-4.84585e-08
-1.70156e-08
-2.31475e-09
2.04742e-10
9.67883e-11
1.89948e-11
8.3837e-14
-0.0432923
-0.043359
-0.0432706
-0.0427882
-0.0430847
-0.0450481
-0.0450689
-0.0393878
-0.0342313
-0.0446666
-0.0704246
-0.0783474
-0.0273471
0.0745535
0.13839
0.024617
-0.383111
-1.10643
-2.0368
-2.95038
-3.57756
-3.7098
-3.29827
-2.48499
-1.53807
-0.726897
-0.209734
0.00374533
0.011183
-0.0605522
-0.11863
-0.127437
-0.0968329
-0.055
-0.0234371
-0.00707942
-0.00088816
0.000128408
7.37389e-05
2.45688e-05
3.84722e-06
-3.79156e-07
-1.82374e-07
-4.14507e-08
-3.86317e-09
1.46462e-09
5.88952e-10
9.49519e-11
-6.28108e-12
-2.38348e-12
-0.0411264
-0.0411837
-0.0409044
-0.0404708
-0.0416382
-0.0437182
-0.0412804
-0.0329671
-0.0328852
-0.0551982
-0.0830367
-0.0665472
0.0239853
0.142993
0.160549
-0.0778503
-0.668021
-1.58549
-2.66618
-3.64123
-4.22731
-4.24577
-3.7098
-2.81861
-1.859
-1.07157
-0.564508
-0.312785
-0.219123
-0.184857
-0.151296
-0.104094
-0.0559082
-0.0219229
-0.00497597
0.00067698
0.000830234
0.000250809
3.92744e-05
-5.05742e-06
-5.78215e-06
-1.96154e-06
-2.92157e-07
1.51559e-08
1.21173e-08
4.18061e-09
6.61342e-10
-2.47026e-11
-1.37317e-11
-2.74526e-12
-0.0317327
-0.0317268
-0.0311942
-0.0311442
-0.0334592
-0.0349731
-0.0279661
-0.0189975
-0.0294751
-0.0657825
-0.0861206
-0.0324314
0.109322
0.250586
0.230631
-0.103572
-0.818287
-1.84395
-2.97068
-3.90143
-4.36241
-4.22731
-3.57756
-2.65681
-1.74381
-1.03051
-0.573782
-0.325734
-0.200224
-0.126948
-0.0707446
-0.026589
-0.000252571
0.00907711
0.00829028
0.00401118
0.00115461
0.000120552
-3.1679e-05
-2.35791e-05
-9.51837e-06
-2.14823e-06
-6.59509e-08
3.46268e-08
1.62163e-08
3.98834e-09
2.34325e-10
-2.97084e-11
-1.23796e-11
-1.74838e-12
-0.0165436
-0.0163509
-0.0156334
-0.0166658
-0.0204859
-0.0182541
-0.00558123
-0.000792789
-0.0315122
-0.0796368
-0.0779532
0.0477349
0.276563
0.478868
0.474507
0.117586
-0.633113
-1.6742
-2.76239
-3.587
-3.90143
-3.64123
-2.95038
-2.09099
-1.30685
-0.730514
-0.373963
-0.178521
-0.0746454
-0.0145643
0.0203964
0.0346598
0.0323443
0.0217236
0.0103676
0.00342508
0.000536986
-5.75421e-05
-5.28518e-05
-2.54624e-05
-7.46948e-06
-8.52322e-07
6.79243e-08
3.72734e-08
1.11417e-08
1.34657e-09
-8.63678e-11
-3.86272e-11
-7.64894e-12
-2.7152e-13
0.00183312
0.00233034
0.00273146
-0.000582597
-0.0035285
0.00639203
0.0228458
0.00922337
-0.0484432
-0.097736
-0.0229816
0.23592
0.615773
0.947475
1.03285
0.726672
0.00112994
-1.01292
-2.04005
-2.76239
-2.97068
-2.66618
-2.0368
-1.33421
-0.748474
-0.353354
-0.128426
-0.0152665
0.03925
0.0624427
0.0652482
0.0531156
0.0345678
0.0171694
0.00622276
0.00122951
-5.63748e-05
-8.8181e-05
-4.84425e-05
-1.66855e-05
-2.82569e-06
8.56926e-08
7.57111e-08
2.57955e-08
3.55005e-09
-4.21645e-10
-1.88814e-10
-3.73161e-11
-1.6481e-13
1.93276e-13
0.0196178
0.0203398
0.019205
0.0139071
0.0169543
0.0362913
0.0436362
-0.00226848
-0.0848106
-0.0813704
0.142006
0.613529
1.2149
1.73405
1.94981
1.70854
0.995688
-0.0171034
-1.01292
-1.6742
-1.84395
-1.58549
-1.10643
-0.623155
-0.264328
-0.0551065
0.0419771
0.0780858
0.0852409
0.0785822
0.0613618
0.0399848
0.0206381
0.00795365
0.0017626
-7.83376e-05
-0.000123904
-7.29977e-05
-2.70413e-05
-5.23226e-06
2.1534e-07
1.54805e-07
5.22963e-08
7.18849e-09
-1.0506e-09
-5.34271e-10
-1.31224e-10
-6.12791e-12
5.80287e-13
2.24384e-13
0.0326004
0.0330057
0.0293399
0.0261735
0.0391407
0.0610776
0.0426239
-0.0440292
-0.109507
0.0220416
0.475373
1.21712
2.06457
2.76421
3.07079
2.8276
2.0569
0.995688
0.00113
-0.633113
-0.818287
-0.668021
-0.383111
-0.127922
0.0266056
0.0880351
0.0974067
0.0870354
0.0734323
0.0564871
0.038064
0.0212143
0.00936034
0.00296749
0.000595807
0.000156045
-4.50843e-06
-2.38238e-05
-6.25885e-06
-1.59441e-07
-4.73907e-08
-3.3087e-08
-1.12743e-08
-1.85975e-09
-6.40374e-10
-1.68138e-10
-1.06708e-11
2.0524e-12
6.56163e-13
1.01607e-13
0.0373089
0.036674
0.0321433
0.0344484
0.0571391
0.0687977
0.00850496
-0.0987217
-0.0889043
0.237076
0.950935
1.94128
2.97241
3.76306
4.05474
3.71255
2.8276
1.70854
0.726672
0.117586
-0.103572
-0.0778504
0.0246169
0.0963922
0.111315
0.0925512
0.0681471
0.0526713
0.0422075
0.0328277
0.0228854
0.0139724
0.00770827
0.00403339
0.00201798
0.000737374
0.000151732
4.34254e-06
-2.10999e-06
-1.85315e-06
-1.0101e-06
-3.17272e-07
-3.76396e-08
-1.57047e-10
9.83911e-11
8.52247e-11
2.63341e-11
2.53768e-12
1.34576e-14
-4.34613e-14
0.0322006
0.030857
0.0261116
0.0367219
0.0656956
0.0509938
-0.053991
-0.157717
-0.0400007
0.473671
1.37768
2.50261
3.5932
4.35823
4.54121
4.05474
3.07079
1.94981
1.03285
0.474507
0.230631
0.160549
0.138389
0.106158
0.0640405
0.0315122
0.0191798
0.0201383
0.0249459
0.0263395
0.0231558
0.017736
0.0120841
0.00706292
0.00323346
0.00104519
0.000178671
-2.51319e-06
-7.19027e-06
-4.31483e-06
-1.67307e-06
-3.58908e-07
-1.83181e-08
4.45181e-10
2.7533e-10
9.47917e-11
1.5691e-11
-8.11674e-14
-2.7656e-13
-7.7958e-14
0.0183617
0.0153901
0.0113055
0.0353081
0.0635999
0.00521337
-0.165174
-0.282961
-0.105454
0.488068
1.43553
2.56115
3.61755
4.30044
4.35823
3.76306
2.76421
1.73405
0.947475
0.478868
0.250586
0.142993
0.0745534
0.0202529
-0.0129203
-0.0192789
-0.00655823
0.0127953
0.0271347
0.032442
0.0300035
0.0233266
0.0152953
0.00815108
0.00335968
0.000952159
0.000124922
-1.28899e-05
-1.092e-05
-5.37331e-06
-1.73883e-06
-2.89047e-07
-7.0297e-09
4.35348e-10
1.6549e-10
3.14869e-11
-8.40434e-13
-5.96505e-13
-1.7252e-13
-1.15668e-14
-0.00253102
-0.00960527
-0.00831342
0.0386673
0.0518126
-0.114882
-0.427238
-0.646775
-0.530356
-0.00100944
0.878559
1.96377
2.99337
3.61755
3.5932
2.97241
2.06457
1.2149
0.615773
0.276563
0.109322
0.0239853
-0.0273471
-0.0528712
-0.0515558
-0.0307434
-0.0018004
0.0221525
0.0358291
0.0386637
0.0336455
0.0245274
0.0149416
0.00742799
0.00286515
0.000763317
9.0407e-05
-1.63919e-05
-1.16046e-05
-5.22552e-06
-1.5587e-06
-2.41975e-07
-6.02365e-09
1.87416e-10
2.83507e-11
-5.58096e-12
-2.16011e-12
-2.57654e-13
1.00751e-13
3.86853e-14
-0.0278262
-0.038564
-0.011847
0.0587869
-0.0360496
-0.440499
-1.01496
-1.43898
-1.47619
-1.0628
-0.223231
0.899583
1.96377
2.56115
2.50261
1.94128
1.21712
0.613529
0.23592
0.0477349
-0.0324315
-0.0665472
-0.0783474
-0.0696889
-0.0459928
-0.0154003
0.0118432
0.0307329
0.0394935
0.0392596
0.0324581
0.0226857
0.0134378
0.00660349
0.00258072
0.000719891
9.42034e-05
-1.54087e-05
-1.09146e-05
-4.77357e-06
-1.43336e-06
-2.37931e-07
-7.9079e-09
-2.85476e-11
-1.82578e-11
-4.06051e-12
1.05337e-12
7.31773e-13
2.17443e-13
2.02581e-14
-0.0501415
-0.0549322
0.0186055
0.0326582
-0.335729
-1.12164
-2.01699
-2.63778
-2.78327
-2.3904
-1.46417
-0.223231
0.878559
1.43553
1.37768
0.950934
0.475373
0.142006
-0.0229815
-0.0779532
-0.0861207
-0.0830368
-0.0704245
-0.0502303
-0.0257829
-0.00224513
0.0174157
0.0309947
0.0376663
0.0369955
0.0304745
0.0214548
0.0129545
0.0065711
0.0026743
0.000778687
0.000108876
-1.35769e-05
-1.01379e-05
-4.56579e-06
-1.4402e-06
-2.56653e-07
-1.0233e-08
-2.30374e-12
1.14821e-11
8.31648e-12
3.46863e-12
8.54156e-13
5.83755e-14
-5.89896e-15
-0.0579869
-0.031802
0.0608779
-0.158873
-0.945677
-2.11126
-3.18778
-3.84629
-3.96559
-3.46943
-2.3904
-1.0628
-0.00100952
0.488068
0.473671
0.237076
0.0220417
-0.0813703
-0.0977359
-0.0796369
-0.0657826
-0.0551982
-0.0446666
-0.0320199
-0.0174698
-0.00159997
0.0141832
0.0276839
0.0354891
0.0358845
0.0302311
0.0217443
0.0133997
0.00690459
0.0028284
0.000819934
0.000113878
-1.29005e-05
-9.97515e-06
-4.61207e-06
-1.47634e-06
-2.62992e-07
-1.0061e-08
4.20415e-11
2.5163e-11
1.05466e-11
3.02571e-12
3.66526e-13
-9.34278e-15
-5.76966e-15
-0.0398772
0.0187407
-0.00685531
-0.467954
-1.48084
-2.77066
-3.74438
-4.39881
-4.56536
-3.96559
-2.78327
-1.47619
-0.530356
-0.105453
-0.0400006
-0.0889041
-0.109507
-0.0848106
-0.0484433
-0.0315123
-0.0294753
-0.0328852
-0.0342312
-0.0307264
-0.021429
-0.00686572
0.0107948
0.0263546
0.0353906
0.0363845
0.0309032
0.0223092
0.0137267
0.00701942
0.00283846
0.000809362
0.00010953
-1.34012e-05
-1.02352e-05
-4.72125e-06
-1.4923e-06
-2.5885e-07
-9.13584e-09
3.63124e-11
1.85119e-11
7.29374e-12
2.11763e-12
4.23083e-13
3.2897e-14
-5.24868e-16
-0.00890777
0.0288394
-0.0593882
-0.615853
-1.62225
-2.68605
-3.42998
-4.08179
-4.39881
-3.84629
-2.63778
-1.43898
-0.646774
-0.282961
-0.157717
-0.0987216
-0.0440291
-0.00226851
0.00922325
-0.000792925
-0.0189976
-0.0329671
-0.0393878
-0.0370901
-0.0264495
-0.00885699
0.0108656
0.0271502
0.0361817
0.0369236
0.0311661
0.0223448
0.0136387
0.00691882
0.00278013
0.000789811
0.000106338
-1.37412e-05
-1.03422e-05
-4.72649e-06
-1.48136e-06
-2.55391e-07
-9.0115e-09
2.8192e-11
1.50058e-11
6.63309e-12
2.33834e-12
5.5127e-13
4.95406e-14
-4.02875e-16
0.000792154
0.00766316
-0.0533205
-0.534321
-1.37355
-2.12268
-2.78579
-3.42998
-3.74438
-3.18778
-2.01699
-1.01496
-0.427238
-0.165174
-0.0539909
0.00850505
0.0426239
0.0436362
0.0228456
-0.00558136
-0.0279662
-0.0412804
-0.0450689
-0.0399622
-0.0264456
-0.00757216
0.0121019
0.027854
0.0364057
0.0368685
0.0309852
0.0221486
0.013501
0.00685511
0.00276396
0.000789732
0.000107331
-1.36323e-05
-1.02791e-05
-4.69093e-06
-1.47355e-06
-2.55904e-07
-9.24917e-09
2.74603e-11
1.58928e-11
7.48665e-12
2.66979e-12
6.0396e-13
4.79061e-14
-3.10229e-16
-0.00309463
-0.00855055
-0.0146551
-0.27252
-0.837385
-1.46531
-2.12268
-2.68605
-2.77066
-2.11126
-1.12164
-0.440499
-0.114882
0.00521337
0.0509939
0.0687978
0.0610776
0.0362912
0.00639187
-0.0182542
-0.0349732
-0.0437182
-0.0450482
-0.0384002
-0.024748
-0.00656766
0.0123735
0.0277247
0.0361799
0.0366785
0.0308669
0.0221059
0.0135101
0.00688081
0.00278239
0.000796778
0.000108624
-1.35075e-05
-1.02352e-05
-4.68412e-06
-1.47622e-06
-2.57285e-07
-9.3558e-09
2.88306e-11
1.711e-11
7.88647e-12
2.66502e-12
5.4809e-13
3.3855e-14
-2.64386e-16
-0.0076761
-0.00762334
0.000401921
-0.0347233
-0.325504
-0.837385
-1.37355
-1.62225
-1.48084
-0.945677
-0.335729
-0.0360497
0.0518126
0.0636
0.0656957
0.0571392
0.0391406
0.0169542
-0.00352868
-0.020486
-0.0334593
-0.0416382
-0.0430849
-0.037167
-0.0243961
-0.00678572
0.0120127
0.0274743
0.0360752
0.0366713
0.0309109
0.0221644
0.0135563
0.00690494
0.00279001
0.000797698
0.000108479
-1.35224e-05
-1.02464e-05
-4.6929e-06
-1.47865e-06
-2.57284e-07
-9.29394e-09
3.14064e-11
1.78556e-11
7.84936e-12
2.53206e-12
5.01413e-13
3.1082e-14
-2.42725e-16
-0.00729359
-0.00523044
-0.0131539
0.00435137
-0.0347233
-0.27252
-0.534321
-0.615853
-0.467954
-0.158873
0.0326578
0.0587867
0.0386673
0.0353082
0.036722
0.0344484
0.0261734
0.0139069
-0.000582777
-0.016666
-0.0311444
-0.0404709
-0.0427881
-0.0374325
-0.0248458
-0.00711979
0.0118879
0.0274867
0.0361327
0.0367271
0.0309492
0.0221815
0.013557
0.00689893
0.00278493
0.000795591
0.000108069
-1.35524e-05
-1.02573e-05
-4.69513e-06
-1.47798e-06
-2.56812e-07
-9.24654e-09
3.04332e-11
1.68459e-11
7.43011e-12
2.48323e-12
5.31572e-13
3.95067e-14
-2.40581e-16
-0.00712204
-0.00984922
-0.00515591
-0.0131539
0.000401925
-0.014655
-0.0533206
-0.059388
-0.00685521
0.0608777
0.0186054
-0.0118469
-0.00831324
0.0113057
0.0261117
0.0321433
0.0293398
0.0192049
0.00273125
-0.0156336
-0.0311944
-0.0409044
-0.0432706
-0.0377808
-0.0249825
-0.00708872
0.0119758
0.0275545
0.0361637
0.0367315
0.030939
0.0221665
0.0135445
0.0068921
0.00278262
0.000795245
0.000108087
-1.35558e-05
-1.02584e-05
-4.69407e-06
-1.47745e-06
-2.56773e-07
-9.25881e-09
2.86799e-11
1.63828e-11
7.43775e-12
2.53673e-12
5.46937e-13
4.01232e-14
-2.38201e-16
-0.00857658
-0.00808551
-0.00984921
-0.00523044
-0.00762331
-0.00855056
0.00766308
0.0288398
0.0187405
-0.0318022
-0.0549323
-0.038564
-0.00960517
0.0153902
0.0308571
0.036674
0.0330056
0.0203396
0.00233013
-0.0163511
-0.0317269
-0.0411837
-0.0433589
-0.0377415
-0.0248898
-0.00701397
0.0120061
0.0275536
0.0361517
0.0367192
0.0309305
0.0221626
0.0135443
0.00689342
0.00278377
0.00079573
0.000108182
-1.35495e-05
-1.02557e-05
-4.6934e-06
-1.47765e-06
-2.56934e-07
-9.27677e-09
2.96254e-11
1.68768e-11
7.58038e-12
2.54271e-12
5.35328e-13
3.73544e-14
-2.3824e-16
-0.00633588
-0.00857657
-0.00712203
-0.00729359
-0.00767605
-0.00309471
0.000792294
-0.00890786
-0.0398773
-0.057987
-0.0501415
-0.0278261
-0.00253084
0.0183619
0.0322008
0.0373089
0.0326003
0.0196176
0.00183291
-0.0165438
-0.0317328
-0.0411265
-0.0432923
-0.0376906
-0.0248688
-0.00701778
0.0119935
0.0275435
0.036147
0.0367185
0.030932
0.0221648
0.0135462
0.00689443
0.00278411
0.000795778
0.000108179
-1.35478e-05
-1.02548e-05
-4.69328e-06
-1.47765e-06
-2.56924e-07
-9.27431e-09
2.93571e-11
1.67019e-11
7.51246e-12
2.53086e-12
5.37302e-13
3.837e-14
-2.38155e-16
)
;

boundaryField
{
    movingWall
    {
        type            zeroGradient;
    }
    fixedWalls
    {
        type            zeroGradient;
    }
    frontAndBack
    {
        type            empty;
    }
}

