/*--------------------------------*- C++ -*----------------------------------*\
| =========                 |                                                 |
| \\      /  F ield         | OpenFOAM: The Open Source CFD Toolbox           |
|  \\    /   O peration     | Version:  v2006                                 |
|   \\  /    A nd           | Website:  www.openfoam.com                      |
|    \\/     M anipulation  |                                                 |
\*---------------------------------------------------------------------------*/
FoamFile
{
    version     2.0;
    format      ascii;
    class       volVectorField;
    location    "0";
    object      U;
}
// * * * * * * * * * * * * * * * * * * * * * * * * * * * * * * * * * * * * * //

dimensions      [0 1 -1 0 0 0 0];


internalField   nonuniform List<vector> 
20000
(
(0.000854362 3.49128e-09 0)
(0.000854317 1.12817e-08 0)
(0.000854218 1.93093e-08 0)
(0.000854062 2.74684e-08 0)
(0.00085385 3.57565e-08 0)
(0.000853583 4.40119e-08 0)
(0.000853263 5.20501e-08 0)
(0.000852891 5.96204e-08 0)
(0.000852471 6.63697e-08 0)
(0.00085201 7.17977e-08 0)
(0.000851519 7.52429e-08 0)
(0.000851012 7.57492e-08 0)
(0.000850513 7.21765e-08 0)
(0.000850051 6.33775e-08 0)
(0.000849664 4.85712e-08 0)
(0.00084939 2.74081e-08 0)
(0.000849272 4.93069e-10 0)
(0.000849345 -3.09228e-08 0)
(0.000849639 -6.53837e-08 0)
(0.000850175 -1.01158e-07 0)
(0.000850958 -1.36401e-07 0)
(0.000851978 -1.69331e-07 0)
(0.00085321 -1.98848e-07 0)
(0.000854631 -2.25388e-07 0)
(0.000856218 -2.48469e-07 0)
(0.000857946 -2.67509e-07 0)
(0.000859783 -2.81213e-07 0)
(0.000861691 -2.88427e-07 0)
(0.000863626 -2.88887e-07 0)
(0.000865545 -2.83123e-07 0)
(0.000867411 -2.72373e-07 0)
(0.000869199 -2.59668e-07 0)
(0.000870906 -2.46384e-07 0)
(0.000872517 -2.3497e-07 0)
(0.000874036 -2.28399e-07 0)
(0.000875475 -2.2083e-07 0)
(0.000876792 -2.05618e-07 0)
(0.000877921 -1.72012e-07 0)
(0.000878757 -1.01453e-07 0)
(0.000879132 1.7997e-08 0)
(0.000878874 1.9562e-07 0)
(0.000877796 4.51108e-07 0)
(0.000875593 7.96201e-07 0)
(0.000872031 1.22522e-06 0)
(0.000866867 1.7318e-06 0)
(0.000859899 2.26547e-06 0)
(0.000851091 2.80644e-06 0)
(0.000840375 3.30033e-06 0)
(0.000827919 3.65699e-06 0)
(0.000814201 3.79887e-06 0)
(0.000799842 3.66461e-06 0)
(0.000785614 3.19338e-06 0)
(0.000772467 2.35012e-06 0)
(0.000761398 1.12524e-06 0)
(0.000753473 -4.52203e-07 0)
(0.000749552 -2.27933e-06 0)
(0.000750243 -4.20024e-06 0)
(0.00075577 -6.01802e-06 0)
(0.000765911 -7.49576e-06 0)
(0.000779878 -8.39195e-06 0)
(0.000796542 -8.56209e-06 0)
(0.000814795 -7.95296e-06 0)
(0.000833628 -6.61667e-06 0)
(0.000852347 -4.74903e-06 0)
(0.000870917 -2.64528e-06 0)
(0.000889749 -5.8753e-07 0)
(0.000909428 1.17446e-06 0)
(0.000930637 2.4933e-06 0)
(0.00095356 3.36875e-06 0)
(0.000977682 3.89661e-06 0)
(0.00100175 4.23394e-06 0)
(0.00102398 4.53197e-06 0)
(0.0010424 4.91011e-06 0)
(0.00105499 5.39869e-06 0)
(0.00106025 5.89088e-06 0)
(0.00105756 6.2273e-06 0)
(0.00104736 6.26183e-06 0)
(0.00103069 5.86918e-06 0)
(0.00100912 5.0108e-06 0)
(0.000984421 3.93621e-06 0)
(0.000957203 3.02847e-06 0)
(0.000926906 2.67874e-06 0)
(0.000892307 3.10823e-06 0)
(0.000852035 4.20777e-06 0)
(0.000805774 5.49092e-06 0)
(0.000754891 6.24062e-06 0)
(0.000702612 5.77756e-06 0)
(0.000653402 3.78051e-06 0)
(0.000611499 3.18054e-07 0)
(0.000580253 -3.99606e-06 0)
(0.000560925 -8.31066e-06 0)
(0.00055316 -1.21396e-05 0)
(0.00055675 -1.52647e-05 0)
(0.000572047 -1.77331e-05 0)
(0.000599676 -1.95244e-05 0)
(0.000639343 -2.01225e-05 0)
(0.000687958 -1.88336e-05 0)
(0.000740004 -1.5318e-05 0)
(0.000789756 -9.99892e-06 0)
(0.000833475 -3.51927e-06 0)
(0.000868447 3.40011e-06 0)
(0.000893246 1.00792e-05 0)
(0.000907527 1.58374e-05 0)
(0.000912532 1.99882e-05 0)
(0.000910941 2.20959e-05 0)
(0.000905928 2.1964e-05 0)
(0.000900731 1.96408e-05 0)
(0.00089808 1.53857e-05 0)
(0.000899898 9.82338e-06 0)
(0.000906501 3.6933e-06 0)
(0.000916827 -2.2315e-06 0)
(0.000928963 -7.1567e-06 0)
(0.000939975 -1.04209e-05 0)
(0.000946687 -1.16143e-05 0)
(0.000946349 -1.06867e-05 0)
(0.000936875 -7.92487e-06 0)
(0.000917469 -4.02934e-06 0)
(0.000889332 9.34837e-08 0)
(0.000855141 3.64299e-06 0)
(0.000818695 5.90258e-06 0)
(0.000784474 6.51994e-06 0)
(0.000756638 5.51583e-06 0)
(0.000738282 3.28323e-06 0)
(0.000730797 4.37804e-07 0)
(0.000733499 -2.22494e-06 0)
(0.000743606 -4.11888e-06 0)
(0.000757508 -5.0813e-06 0)
(0.000771798 -5.20283e-06 0)
(0.000783854 -4.83973e-06 0)
(0.000792668 -4.50931e-06 0)
(0.000798812 -4.56975e-06 0)
(0.000803909 -5.12839e-06 0)
(0.000809778 -6.03422e-06 0)
(0.000817681 -6.82637e-06 0)
(0.000827768 -6.98725e-06 0)
(0.000838856 -6.08035e-06 0)
(0.000848927 -3.95325e-06 0)
(0.000855681 -7.11721e-07 0)
(0.000857201 3.12861e-06 0)
(0.000852765 6.77692e-06 0)
(0.00084357 9.37462e-06 0)
(0.000832426 1.03007e-05 0)
(0.000823026 9.32065e-06 0)
(0.000818916 6.7622e-06 0)
(0.000822174 3.34266e-06 0)
(0.000832859 -3.30054e-08 0)
(0.000848764 -2.53601e-06 0)
(0.000866331 -3.80567e-06 0)
(0.000881859 -3.88101e-06 0)
(0.000892572 -3.15971e-06 0)
(0.000897414 -2.18475e-06 0)
(0.000896866 -1.17736e-06 0)
(0.00089168 -2.2064e-07 0)
(0.000882971 5.68024e-07 0)
(0.000872406 1.06837e-06 0)
(0.0008619 1.23802e-06 0)
(0.000853342 1.09405e-06 0)
(0.000848122 7.4789e-07 0)
(0.000846809 3.62453e-07 0)
(0.00084899 1.08444e-07 0)
(0.000853467 9.34972e-08 0)
(0.000858479 3.70618e-07 0)
(0.00086223 8.75222e-07 0)
(0.000863394 1.4486e-06 0)
(0.000861528 1.88296e-06 0)
(0.000857086 2.01181e-06 0)
(0.000851372 1.72023e-06 0)
(0.000846023 1.03843e-06 0)
(0.000842481 1.19726e-07 0)
(0.0008415 -8.06713e-07 0)
(0.000842872 -1.4951e-06 0)
(0.000845585 -1.80205e-06 0)
(0.000848215 -1.71053e-06 0)
(0.00084949 -1.3338e-06 0)
(0.000848747 -8.48642e-07 0)
(0.000846157 -4.29556e-07 0)
(0.000842454 -1.61659e-07 0)
(0.000838664 -6.6908e-08 0)
(0.000835747 -1.14044e-07 0)
(0.000834295 -2.35865e-07 0)
(0.000834395 -3.59114e-07 0)
(0.000835699 -4.3208e-07 0)
(0.000837644 -4.37453e-07 0)
(0.000839687 -3.87642e-07 0)
(0.000841466 -3.09261e-07 0)
(0.00084283 -2.27506e-07 0)
(0.000843787 -1.58066e-07 0)
(0.000844424 -1.07001e-07 0)
(0.000844848 -7.41278e-08 0)
(0.000845159 -5.61286e-08 0)
(0.000845428 -4.86673e-08 0)
(0.000845702 -4.7662e-08 0)
(0.000846004 -4.98813e-08 0)
(0.000846339 -5.30405e-08 0)
(0.000846703 -5.56679e-08 0)
(0.000847084 -5.68476e-08 0)
(0.000847462 -5.62703e-08 0)
(0.000847841 -5.32753e-08 0)
(0.000848133 -5.01837e-08 0)
(0.000848569 -3.87861e-08 0)
(0.000854363 1.04618e-08 0)
(0.000854317 3.38723e-08 0)
(0.000854218 5.79848e-08 0)
(0.000854062 8.24115e-08 0)
(0.00085385 1.07126e-07 0)
(0.000853585 1.31656e-07 0)
(0.000853267 1.55488e-07 0)
(0.000852898 1.77959e-07 0)
(0.000852481 1.98091e-07 0)
(0.000852022 2.14447e-07 0)
(0.000851532 2.25042e-07 0)
(0.000851024 2.27224e-07 0)
(0.00085052 2.17847e-07 0)
(0.000850045 1.93673e-07 0)
(0.000849635 1.52043e-07 0)
(0.00084933 9.14978e-08 0)
(0.000849178 1.27312e-08 0)
(0.000849224 -8.13934e-08 0)
(0.000849502 -1.86268e-07 0)
(0.000850029 -2.95843e-07 0)
(0.000850806 -4.03765e-07 0)
(0.00085182 -5.04482e-07 0)
(0.000853051 -5.94824e-07 0)
(0.000854467 -6.74609e-07 0)
(0.000856041 -7.43477e-07 0)
(0.000857751 -7.9995e-07 0)
(0.000859573 -8.41012e-07 0)
(0.000861471 -8.6376e-07 0)
(0.000863406 -8.67186e-07 0)
(0.000865332 -8.52754e-07 0)
(0.000867213 -8.23949e-07 0)
(0.000869017 -7.85661e-07 0)
(0.000870698 -7.39667e-07 0)
(0.000872232 -6.8832e-07 0)
(0.000873573 -6.31627e-07 0)
(0.000874668 -5.6692e-07 0)
(0.000875522 -4.89048e-07 0)
(0.000876171 -3.90289e-07 0)
(0.000876703 -2.62704e-07 0)
(0.000877281 -1.05063e-07 0)
(0.000878064 9.06475e-08 0)
(0.000879217 3.39969e-07 0)
(0.000880968 6.50348e-07 0)
(0.000883404 1.02161e-06 0)
(0.000886548 1.47127e-06 0)
(0.0008903 1.97352e-06 0)
(0.000894315 2.5288e-06 0)
(0.000898231 3.12816e-06 0)
(0.000901425 3.72258e-06 0)
(0.000902978 4.25922e-06 5.86249e-40)
(0.000901905 4.72133e-06 6.92151e-40)
(0.000897194 5.06078e-06 0)
(0.000887807 5.23394e-06 0)
(0.000872872 5.20397e-06 0)
(0.000851736 4.94651e-06 0)
(0.000824314 4.46849e-06 0)
(0.000791197 3.76877e-06 0)
(0.000753808 2.8544e-06 0)
(0.000714456 1.74557e-06 0)
(0.000676387 4.6466e-07 0)
(0.000643428 -1.01003e-06 0)
(0.000619413 -2.71031e-06 0)
(0.000607867 -4.65479e-06 0)
(0.000611527 -6.86324e-06 0)
(0.000631716 -9.31825e-06 0)
(0.000668344 -1.19064e-05 0)
(0.000720034 -1.44578e-05 0)
(0.000784133 -1.67315e-05 0)
(0.000857363 -1.84303e-05 0)
(0.000936143 -1.92825e-05 0)
(0.00101687 -1.9069e-05 0)
(0.00109602 -1.76969e-05 0)
(0.00117026 -1.52062e-05 0)
(0.00123671 -1.17673e-05 0)
(0.00129279 -7.66838e-06 0)
(0.00133623 -3.27403e-06 0)
(0.001365 1.08891e-06 0)
(0.00137782 5.12402e-06 0)
(0.0013741 8.6507e-06 0)
(0.0013541 1.17154e-05 0)
(0.00131988 1.44067e-05 0)
(0.00127494 1.68795e-05 0)
(0.00122338 1.92358e-05 0)
(0.00116903 2.13837e-05 0)
(0.00111401 2.31346e-05 0)
(0.00105818 2.42641e-05 0)
(0.00099911 2.45853e-05 0)
(0.00093306 2.40822e-05 0)
(0.000856869 2.27972e-05 0)
(0.000769027 2.09381e-05 0)
(0.000671227 1.86602e-05 0)
(0.000567955 1.57811e-05 0)
(0.000464558 1.20658e-05 0)
(0.000366456 7.36015e-06 0)
(0.000278797 1.78723e-06 0)
(0.000206912 -4.13288e-06 0)
(0.000157506 -9.70173e-06 0)
(0.000137775 -1.44128e-05 0)
(0.000152826 -1.82607e-05 0)
(0.000203571 -2.11656e-05 0)
(0.000288146 -2.31038e-05 0)
(0.00040215 -2.40953e-05 0)
(0.000539418 -2.42564e-05 0)
(0.000691963 -2.37857e-05 0)
(0.000850412 -2.27977e-05 0)
(0.00100509 -2.12943e-05 0)
(0.00114646 -1.92296e-05 0)
(0.00126568 -1.65487e-05 0)
(0.00135514 -1.30993e-05 0)
(0.00140968 -8.85448e-06 0)
(0.00142711 -3.96355e-06 0)
(0.00140839 1.29335e-06 0)
(0.00135833 6.52672e-06 0)
(0.00128495 1.12888e-05 0)
(0.00119822 1.51509e-05 0)
(0.00110882 1.78495e-05 0)
(0.00102624 1.91621e-05 0)
(0.000956889 1.90266e-05 0)
(0.000903971 1.76022e-05 0)
(0.000867577 1.50577e-05 0)
(0.000845249 1.16983e-05 0)
(0.000833258 7.88584e-06 0)
(0.000827566 4.07439e-06 0)
(0.000824634 7.04484e-07 0)
(0.000821996 -1.76082e-06 0)
(0.000818625 -3.04576e-06 0)
(0.000814041 -3.19644e-06 0)
(0.000807795 -2.39961e-06 0)
(0.000799429 -1.01587e-06 0)
(0.000788025 4.72177e-07 0)
(0.000772467 1.67994e-06 0)
(0.000751982 2.34312e-06 0)
(0.000726738 2.35276e-06 0)
(0.000698257 1.82641e-06 0)
(0.000669526 9.39541e-07 0)
(0.000644779 -8.42715e-08 0)
(0.000628599 -1.08686e-06 0)
(0.000625066 -1.91139e-06 0)
(0.0006369 -2.57066e-06 0)
(0.000664574 -3.17919e-06 0)
(0.000705678 -3.89325e-06 0)
(0.000755432 -4.80086e-06 0)
(0.000807652 -5.89831e-06 0)
(0.000856067 -6.98827e-06 0)
(0.000895884 -7.78659e-06 0)
(0.00092451 -7.99165e-06 0)
(0.000941941 -7.34344e-06 0)
(0.000949925 -5.85891e-06 0)
(0.000950829 -3.71848e-06 0)
(0.000946692 -1.28142e-06 0)
(0.000938539 1.02805e-06 0)
(0.000926737 3.00219e-06 0)
(0.000912355 4.48758e-06 0)
(0.000896987 5.30795e-06 0)
(0.000882302 5.30597e-06 0)
(0.000869949 4.50795e-06 0)
(0.000861274 3.04149e-06 0)
(0.000857172 1.19699e-06 0)
(0.000857939 -6.61309e-07 0)
(0.000863225 -2.15623e-06 0)
(0.000871999 -3.01959e-06 0)
(0.000882837 -3.10773e-06 0)
(0.000894131 -2.4781e-06 0)
(0.00090436 -1.36458e-06 0)
(0.000912283 -1.07436e-07 0)
(0.0009172 9.63285e-07 0)
(0.000918873 1.58222e-06 0)
(0.000917565 1.66968e-06 0)
(0.00091388 1.32787e-06 0)
(0.000908566 7.96312e-07 0)
(0.000902339 3.76172e-07 0)
(0.000895644 2.84968e-07 0)
(0.000888617 5.98841e-07 0)
(0.00088116 1.20735e-06 0)
(0.000873172 1.87923e-06 0)
(0.00086474 2.34383e-06 0)
(0.000856408 2.42819e-06 0)
(0.000849009 2.08911e-06 0)
(0.000843336 1.42596e-06 0)
(0.000839824 6.36425e-07 0)
(0.000838413 -6.89473e-08 0)
(0.000838622 -5.47097e-07 0)
(0.000839771 -7.59523e-07 0)
(0.00084123 -7.56798e-07 0)
(0.000842576 -6.30691e-07 0)
(0.000843616 -4.6647e-07 0)
(0.000844332 -3.18577e-07 0)
(0.000844792 -2.10654e-07 0)
(0.000845092 -1.46085e-07 0)
(0.000845317 -1.17718e-07 0)
(0.000845532 -1.14449e-07 0)
(0.000845776 -1.25327e-07 0)
(0.000846064 -1.41539e-07 0)
(0.000846396 -1.56905e-07 0)
(0.000846762 -1.67611e-07 0)
(0.000847148 -1.71617e-07 0)
(0.000847529 -1.68626e-07 0)
(0.000847907 -1.57648e-07 0)
(0.000848197 -1.45276e-07 0)
(0.000848618 -1.09019e-07 0)
(0.000854362 1.74096e-08 0)
(0.000854317 5.64088e-08 0)
(0.000854219 9.65679e-08 0)
(0.000854063 1.37194e-07 0)
(0.000853852 1.78247e-07 0)
(0.000853588 2.1897e-07 0)
(0.00085327 2.5855e-07 0)
(0.000852901 2.95948e-07 0)
(0.000852483 3.29586e-07 0)
(0.000852023 3.57095e-07 0)
(0.00085153 3.75158e-07 0)
(0.000851021 3.79512e-07 0)
(0.000850515 3.65105e-07 0)
(0.000850041 3.26577e-07 0)
(0.000849636 2.59083e-07 0)
(0.00084934 1.59674e-07 0)
(0.000849198 2.86081e-08 0)
(0.000849252 -1.29676e-07 0)
(0.000849534 -3.06691e-07 0)
(0.000850065 -4.914e-07 0)
(0.000850847 -6.72574e-07 0)
(0.000851868 -8.41176e-07 0)
(0.000853102 -9.92138e-07 0)
(0.000854525 -1.12421e-06 0)
(0.000856109 -1.23777e-06 0)
(0.000857832 -1.33106e-06 0)
(0.000859666 -1.39958e-06 0)
(0.000861575 -1.43843e-06 0)
(0.000863515 -1.44539e-06 0)
(0.000865443 -1.42278e-06 0)
(0.00086732 -1.3761e-06 0)
(0.000869118 -1.3101e-06 0)
(0.000870815 -1.22695e-06 0)
(0.000872391 -1.12712e-06 0)
(0.000873826 -1.00906e-06 0)
(0.000875099 -8.75651e-07 0)
(0.000876192 -7.29764e-07 0)
(0.00087709 -5.76797e-07 0)
(0.000877782 -4.28435e-07 0)
(0.000878265 -2.92215e-07 0)
(0.000878538 -1.65215e-07 0)
(0.000878587 -3.97314e-08 0)
(0.000878374 1.01409e-07 0)
(0.000877831 2.90784e-07 0)
(0.000876845 5.61036e-07 0)
(0.000875264 9.53028e-07 0)
(0.000872903 1.50876e-06 0)
(0.000869542 2.25444e-06 0)
(0.000864943 3.21363e-06 0)
(0.000858893 4.39541e-06 0)
(0.00085121 5.77382e-06 0)
(0.000841759 7.31544e-06 0)
(0.000830492 8.95157e-06 0)
(0.000817471 1.05856e-05 0)
(0.000802896 1.20823e-05 0)
(0.000787143 1.32617e-05 0)
(0.000770797 1.38955e-05 0)
(0.000754677 1.37529e-05 0)
(0.000739823 1.26047e-05 0)
(0.000727465 1.02589e-05 0)
(0.000718964 6.62721e-06 0)
(0.000715714 1.72751e-06 0)
(0.000719015 -4.26921e-06 0)
(0.000729934 -1.10485e-05 0)
(0.000749169 -1.81792e-05 0)
(0.00077692 -2.5151e-05 0)
(0.000812808 -3.14459e-05 0)
(0.000855851 -3.65776e-05 0)
(0.000904475 -4.01471e-05 0)
(0.000956583 -4.18588e-05 0)
(0.00100968 -4.15406e-05 0)
(0.00106106 -3.91681e-05 0)
(0.00110798 -3.48597e-05 0)
(0.00114797 -2.88668e-05 0)
(0.00117896 -2.15224e-05 0)
(0.00119949 -1.32521e-05 0)
(0.00120878 -4.52243e-06 0)
(0.00120673 4.1914e-06 0)
(0.00119391 1.24749e-05 0)
(0.00117131 1.9929e-05 0)
(0.0011403 2.6224e-05 0)
(0.00110238 3.12132e-05 0)
(0.00105899 3.49186e-05 0)
(0.00101136 3.75605e-05 0)
(0.000960461 3.95293e-05 0)
(0.000906937 4.12607e-05 0)
(0.000851184 4.30453e-05 0)
(0.000793523 4.49202e-05 0)
(0.00073442 4.66255e-05 0)
(0.000674709 4.76067e-05 0)
(0.000615769 4.71522e-05 0)
(0.000559641 4.46748e-05 0)
(0.000508983 3.98137e-05 0)
(0.000466817 3.25076e-05 0)
(0.000436146 2.29469e-05 0)
(0.000419559 1.14231e-05 0)
(0.000418889 -1.60319e-06 0)
(0.000434936 -1.54255e-05 0)
(0.000467411 -2.90581e-05 0)
(0.000514958 -4.15183e-05 0)
(0.000575263 -5.19913e-05 0)
(0.000645369 -5.99153e-05 0)
(0.00072197 -6.4945e-05 0)
(0.000801657 -6.68953e-05 0)
(0.000881067 -6.57235e-05 0)
(0.000956923 -6.14644e-05 0)
(0.00102602 -5.42365e-05 0)
(0.00108524 -4.42506e-05 0)
(0.00113166 -3.1921e-05 0)
(0.00116275 -1.79123e-05 0)
(0.00117677 -3.17945e-06 0)
(0.00117318 1.10731e-05 0)
(0.00115295 2.3561e-05 0)
(0.00111857 3.31511e-05 0)
(0.00107381 3.91149e-05 0)
(0.00102315 4.12626e-05 0)
(0.000971075 3.99796e-05 0)
(0.000921533 3.60456e-05 0)
(0.000877503 3.0392e-05 0)
(0.000840909 2.39278e-05 0)
(0.000812717 1.73904e-05 0)
(0.000793077 1.13265e-05 0)
(0.000781455 6.13054e-06 0)
(0.00077672 2.06838e-06 0)
(0.000777253 -7.18248e-07 0)
(0.00078109 -2.16716e-06 0)
(0.000786145 -2.2982e-06 0)
(0.000790469 -1.26151e-06 0)
(0.000792488 6.71812e-07 0)
(0.000791228 3.13579e-06 0)
(0.000786414 5.67485e-06 0)
(0.000778471 7.80233e-06 0)
(0.000768425 9.09113e-06 0)
(0.0007577 9.19687e-06 0)
(0.000747908 7.92756e-06 0)
(0.000740636 5.28534e-06 0)
(0.00073724 1.48081e-06 0)
(0.000738669 -3.10016e-06 0)
(0.000745353 -7.93096e-06 0)
(0.000757175 -1.24218e-05 0)
(0.000773504 -1.60236e-05 0)
(0.000793295 -1.8336e-05 0)
(0.000815233 -1.91627e-05 0)
(0.000837884 -1.85495e-05 0)
(0.000859828 -1.67233e-05 0)
(0.000879772 -1.40132e-05 0)
(0.000896605 -1.07539e-05 0)
(0.000909432 -7.19786e-06 0)
(0.000917611 -3.52852e-06 0)
(0.000920785 1.06322e-07 0)
(0.000918962 3.53859e-06 0)
(0.00091257 6.47138e-06 0)
(0.000902503 8.55744e-06 0)
(0.000890109 9.51105e-06 0)
(0.000877094 9.16978e-06 0)
(0.000865304 7.57168e-06 0)
(0.000856418 4.95944e-06 0)
(0.000851639 1.77087e-06 0)
(0.000851427 -1.43206e-06 0)
(0.000855386 -4.07623e-06 0)
(0.000862353 -5.71216e-06 0)
(0.000870659 -6.1194e-06 0)
(0.000878518 -5.34948e-06 0)
(0.000884438 -3.70576e-06 0)
(0.000887545 -1.65362e-06 0)
(0.00088772 3.0289e-07 0)
(0.00088554 1.7656e-06 0)
(0.000882024 2.53519e-06 0)
(0.000878262 2.65535e-06 0)
(0.000875053 2.37797e-06 0)
(0.000872656 2.05675e-06 0)
(0.000870759 2.01764e-06 0)
(0.000868658 2.41405e-06 0)
(0.000865607 3.17291e-06 0)
(0.000861184 4.01431e-06 0)
(0.000855523 4.57142e-06 0)
(0.000849309 4.54539e-06 0)
(0.000843535 3.84601e-06 0)
(0.000839134 2.6306e-06 0)
(0.00083665 1.22763e-06 0)
(0.00083608 -1.08848e-08 0)
(0.000836966 -8.47657e-07 0)
(0.000838638 -1.22323e-06 0)
(0.000840478 -1.22873e-06 0)
(0.000842084 -1.02343e-06 0)
(0.000843294 -7.53399e-07 0)
(0.000844118 -5.10853e-07 0)
(0.000844647 -3.35287e-07 0)
(0.00084499 -2.31991e-07 0)
(0.000845244 -1.88703e-07 0)
(0.000845476 -1.86642e-07 0)
(0.000845731 -2.07395e-07 0)
(0.000846025 -2.36238e-07 0)
(0.000846361 -2.62881e-07 0)
(0.000846729 -2.81065e-07 0)
(0.000847115 -2.87594e-07 0)
(0.000847499 -2.82101e-07 0)
(0.000847881 -2.63238e-07 0)
(0.000848174 -2.41469e-07 0)
(0.000848606 -1.80833e-07 0)
(0.000854363 2.43202e-08 0)
(0.000854317 7.87926e-08 0)
(0.00085422 1.34894e-07 0)
(0.000854065 1.91672e-07 0)
(0.000853856 2.49092e-07 0)
(0.000853592 3.06114e-07 0)
(0.000853276 3.61618e-07 0)
(0.000852908 4.14152e-07 0)
(0.00085249 4.61515e-07 0)
(0.00085203 5.00395e-07 0)
(0.000851537 5.26163e-07 0)
(0.000851025 5.3283e-07 0)
(0.000850514 5.1324e-07 0)
(0.000850034 4.59667e-07 0)
(0.00084962 3.65101e-07 0)
(0.000849314 2.25192e-07 0)
(0.000849164 4.03752e-08 0)
(0.000849211 -1.82706e-07 0)
(0.00084949 -4.31587e-07 0)
(0.000850021 -6.90621e-07 0)
(0.000850805 -9.44217e-07 0)
(0.00085183 -1.17986e-06 0)
(0.00085307 -1.39055e-06 0)
(0.000854496 -1.57498e-06 0)
(0.000856084 -1.73391e-06 0)
(0.000857811 -1.86511e-06 0)
(0.000859651 -1.9619e-06 0)
(0.000861568 -2.01673e-06 0)
(0.000863515 -2.02617e-06 0)
(0.000865449 -1.99363e-06 0)
(0.00086733 -1.92699e-06 0)
(0.000869133 -1.83337e-06 0)
(0.000870834 -1.71682e-06 0)
(0.000872414 -1.57857e-06 0)
(0.000873853 -1.4202e-06 0)
(0.000875132 -1.24151e-06 0)
(0.00087623 -1.04499e-06 0)
(0.000877133 -8.35842e-07 0)
(0.000877832 -6.19155e-07 0)
(0.000878323 -3.94808e-07 0)
(0.00087861 -1.56894e-07 0)
(0.000878683 1.15614e-07 0)
(0.000878507 4.59498e-07 0)
(0.000878011 9.17218e-07 0)
(0.00087708 1.52384e-06 0)
(0.000875564 2.31826e-06 0)
(0.000873267 3.33233e-06 0)
(0.000869959 4.57861e-06 0)
(0.000865403 6.04211e-06 0)
(0.000859369 7.69158e-06 0)
(0.000851666 9.45598e-06 0)
(0.000842164 1.12582e-05 0)
(0.000830809 1.29938e-05 0)
(0.000817654 1.45288e-05 0)
(0.000802895 1.56972e-05 0)
(0.000786912 1.62993e-05 0)
(0.000770304 1.61297e-05 0)
(0.000753906 1.49925e-05 0)
(0.000738778 1.2715e-05 0)
(0.000726179 9.18681e-06 0)
(0.000717491 4.37032e-06 0)
(0.000714126 -1.66136e-06 0)
(0.000717394 -8.72734e-06 0)
(0.000728358 -1.65383e-05 0)
(0.000747709 -2.46989e-05 0)
(0.000775638 -3.27359e-05 0)
(0.000811764 -4.01159e-05 0)
(0.000855104 -4.62869e-05 0)
(0.000904089 -5.07118e-05 0)
(0.000956627 -5.29139e-05 0)
(0.00101021 -5.25492e-05 0)
(0.00106211 -4.9452e-05 0)
(0.00110955 -4.36827e-05 0)
(0.00115 -3.55383e-05 0)
(0.00118133 -2.5549e-05 0)
(0.00120206 -1.43829e-05 0)
(0.00121136 -2.7837e-06 0)
(0.00120916 8.54079e-06 0)
(0.00119604 1.89816e-05 0)
(0.00117308 2.81134e-05 0)
(0.00114173 3.57645e-05 0)
(0.00110354 4.1962e-05 0)
(0.00105998 4.68951e-05 0)
(0.00101228 5.08666e-05 0)
(0.000961314 5.41501e-05 0)
(0.000907645 5.69013e-05 0)
(0.000851603 5.91258e-05 0)
(0.000793498 6.06576e-05 0)
(0.000733832 6.12048e-05 0)
(0.000673505 6.03548e-05 0)
(0.000613967 5.7646e-05 0)
(0.000557294 5.26257e-05 0)
(0.000506136 4.49058e-05 0)
(0.000463516 3.43038e-05 0)
(0.000432511 2.09758e-05 0)
(0.000415823 5.53122e-06 0)
(0.000415359 -1.10412e-05 0)
(0.000431948 -2.75648e-05 0)
(0.000465215 -4.28483e-05 0)
(0.000513651 -5.59744e-05 0)
(0.000574832 -6.62841e-05 0)
(0.000645708 -7.3412e-05 0)
(0.000722911 -7.72589e-05 0)
(0.000803011 -7.79024e-05 0)
(0.000882668 -7.54913e-05 0)
(0.000958655 -7.01726e-05 0)
(0.00102784 -6.20369e-05 0)
(0.00108716 -5.11679e-05 0)
(0.0011337 -3.77836e-05 0)
(0.00116492 -2.23692e-05 0)
(0.00117903 -5.78576e-06 0)
(0.00117544 1.07484e-05 0)
(0.00115506 2.58184e-05 0)
(0.00112038 3.80815e-05 0)
(0.0010752 4.65571e-05 0)
(0.00102404 5.08058e-05 0)
(0.000971441 5.09901e-05 0)
(0.000921359 4.77199e-05 0)
(0.000876796 4.18376e-05 0)
(0.0008397 3.42416e-05 0)
(0.000811083 2.57579e-05 0)
(0.000791161 1.71582e-05 0)
(0.000779466 9.16548e-06 0)
(0.000774906 2.46082e-06 0)
(0.000775843 -2.40286e-06 0)
(0.00078023 -5.08729e-06 0)
(0.000785862 -5.539e-06 0)
(0.000790666 -4.042e-06 0)
(0.000792979 -1.15916e-06 0)
(0.000791786 2.36851e-06 0)
(0.000786844 5.74967e-06 0)
(0.00077866 8.30533e-06 0)
(0.000768355 9.55991e-06 0)
(0.000757441 9.27715e-06 0)
(0.000747579 7.47157e-06 0)
(0.000740359 4.35206e-06 0)
(0.000737092 2.84499e-07 0)
(0.000738663 -4.298e-06 0)
(0.000745432 -8.93647e-06 0)
(0.000757232 -1.32226e-05 0)
(0.000773428 -1.68309e-05 0)
(0.000793023 -1.9525e-05 0)
(0.000814782 -2.11416e-05 0)
(0.000837357 -2.15833e-05 0)
(0.000859394 -2.07982e-05 0)
(0.000879607 -1.87824e-05 0)
(0.000896835 -1.56104e-05 0)
(0.000910089 -1.14388e-05 0)
(0.000918618 -6.54892e-06 0)
(0.000921983 -1.32794e-06 0)
(0.000920154 3.7472e-06 0)
(0.000913569 8.14743e-06 0)
(0.000903157 1.13669e-05 0)
(0.000890326 1.29823e-05 0)
(0.00087685 1.27529e-05 0)
(0.000864654 1.0682e-05 0)
(0.000855496 7.10771e-06 0)
(0.000850637 2.66406e-06 0)
(0.000850554 -1.8142e-06 0)
(0.000854823 -5.48417e-06 0)
(0.000862204 -7.68303e-06 0)
(0.000870928 -8.09512e-06 0)
(0.000879104 -6.82072e-06 0)
(0.000885165 -4.34259e-06 0)
(0.000888208 -1.38287e-06 0)
(0.000888148 1.29914e-06 0)
(0.00088564 3.1209e-06 0)
(0.000881808 3.82569e-06 0)
(0.000877839 3.54594e-06 0)
(0.000874593 2.73319e-06 0)
(0.000872331 1.97957e-06 0)
(0.000870674 1.79409e-06 0)
(0.00086882 2.39335e-06 0)
(0.000865925 3.62121e-06 0)
(0.000861507 5.00704e-06 0)
(0.000855705 5.97258e-06 0)
(0.000849264 6.06949e-06 0)
(0.000843267 5.16851e-06 0)
(0.000838728 3.50328e-06 0)
(0.000836229 1.55437e-06 0)
(0.000835751 -1.66269e-07 0)
(0.000836785 -1.31592e-06 0)
(0.000838599 -1.81114e-06 0)
(0.000840538 -1.78597e-06 0)
(0.000842187 -1.47062e-06 0)
(0.000843399 -1.07321e-06 0)
(0.000844203 -7.22381e-07 0)
(0.000844704 -4.71062e-07 0)
(0.000845022 -3.24329e-07 0)
(0.000845255 -2.63315e-07 0)
(0.000845476 -2.60665e-07 0)
(0.000845724 -2.9007e-07 0)
(0.000846016 -3.30746e-07 0)
(0.000846353 -3.68278e-07 0)
(0.000846725 -3.93959e-07 0)
(0.000847115 -4.03357e-07 0)
(0.000847503 -3.95967e-07 0)
(0.000847889 -3.69796e-07 0)
(0.000848185 -3.3963e-07 0)
(0.00084862 -2.54851e-07 0)
(0.000854363 3.11718e-08 0)
(0.000854318 1.01006e-07 0)
(0.000854221 1.72949e-07 0)
(0.000854068 2.4579e-07 0)
(0.00085386 3.19495e-07 0)
(0.000853598 3.92749e-07 0)
(0.000853284 4.6414e-07 0)
(0.000852917 5.31845e-07 0)
(0.000852501 5.93084e-07 0)
(0.000852041 6.43651e-07 0)
(0.000851546 6.77631e-07 0)
(0.00085103 6.87297e-07 0)
(0.000850513 6.63318e-07 0)
(0.000850024 5.95543e-07 0)
(0.000849598 4.74694e-07 0)
(0.000849281 2.94943e-07 0)
(0.000849118 5.67733e-08 0)
(0.000849157 -2.31178e-07 0)
(0.000849431 -5.52667e-07 0)
(0.000849961 -8.87259e-07 0)
(0.000850749 -1.21473e-06 0)
(0.00085178 -1.51857e-06 0)
(0.000853026 -1.78981e-06 0)
(0.000854458 -2.02726e-06 0)
(0.000856051 -2.23226e-06 0)
(0.000857784 -2.40181e-06 0)
(0.000859632 -2.52701e-06 0)
(0.000861558 -2.59774e-06 0)
(0.000863515 -2.60944e-06 0)
(0.000865456 -2.56678e-06 0)
(0.000867344 -2.48053e-06 0)
(0.000869151 -2.36038e-06 0)
(0.000870857 -2.21132e-06 0)
(0.000872444 -2.03468e-06 0)
(0.00087389 -1.83088e-06 0)
(0.000875177 -1.60025e-06 0)
(0.000876284 -1.34535e-06 0)
(0.000877194 -1.07304e-06 0)
(0.000877898 -7.92935e-07 0)
(0.000878396 -5.11343e-07 0)
(0.000878691 -2.22902e-07 0)
(0.00087878 9.51056e-08 0)
(0.000878629 4.81718e-07 0)
(0.00087817 9.83711e-07 0)
(0.000877288 1.65805e-06 0)
(0.000875831 2.55808e-06 0)
(0.000873604 3.72394e-06 0)
(0.000870375 5.20128e-06 0)
(0.000865894 6.99122e-06 0)
(0.00085993 9.05798e-06 0)
(0.000852287 1.13576e-05 0)
(0.000842823 1.38017e-05 0)
(0.000831473 1.62685e-05 0)
(0.000818279 1.85932e-05 0)
(0.000803423 2.05629e-05 0)
(0.000787268 2.19072e-05 0)
(0.000770401 2.23222e-05 0)
(0.00075365 2.14813e-05 0)
(0.00073808 1.90867e-05 0)
(0.000724963 1.48935e-05 0)
(0.000715713 8.77176e-06 0)
(0.00071179 7.51301e-07 0)
(0.000714558 -8.96352e-06 0)
(0.00072515 -1.99573e-05 0)
(0.000744318 -3.16174e-05 0)
(0.000772303 -4.31896e-05 0)
(0.000808751 -5.38362e-05 0)
(0.000852681 -6.27135e-05 0)
(0.000902494 -6.90433e-05 0)
(0.000956037 -7.21908e-05 0)
(0.00101072 -7.1736e-05 0)
(0.00106372 -6.75348e-05 0)
(0.00111215 -5.97603e-05 0)
(0.0011534 -4.88826e-05 0)
(0.0011853 -3.56167e-05 0)
(0.0012063 -2.08326e-05 0)
(0.00121563 -5.45839e-06 0)
(0.00121324 9.62789e-06 0)
(0.00119975 2.36724e-05 0)
(0.00117632 3.61175e-05 0)
(0.00114444 4.66377e-05 0)
(0.0011057 5.51401e-05 0)
(0.00106164 6.17767e-05 0)
(0.00101353 6.68777e-05 0)
(0.00096227 7.08714e-05 0)
(0.000908432 7.41682e-05 0)
(0.000852315 7.70311e-05 0)
(0.000794149 7.94449e-05 0)
(0.000734325 8.10735e-05 0)
(0.000673629 8.12667e-05 0)
(0.000613428 7.91498e-05 0)
(0.000555788 7.38326e-05 0)
(0.000503449 6.46142e-05 0)
(0.000459599 5.12222e-05 0)
(0.00042748 3.39248e-05 0)
(0.000409934 1.3496e-05 0)
(0.00040896 -8.8794e-06 0)
(0.00042542 -3.17567e-05 0)
(0.000458944 -5.36354e-05 0)
(0.000508011 -7.31201e-05 0)
(0.00057014 -8.90927e-05 0)
(0.0006422 -0.000100811 0)
(0.000720752 -0.0001079 0)
(0.00080231 -0.000110247 0)
(0.000883491 -0.000107893 0)
(0.000961037 -0.000100926 0)
(0.00103176 -8.94516e-05 0)
(0.00109252 -7.36602e-05 0)
(0.00114027 -5.40004e-05 0)
(0.00117227 -3.13588e-05 0)
(0.00118659 -7.16066e-06 0)
(0.00118253 1.66848e-05 0)
(0.001161 3.8036e-05 0)
(0.00112464 5.4931e-05 0)
(0.00107748 6.60113e-05 0)
(0.00102435 7.08057e-05 0)
(0.000970052 6.97357e-05 0)
(0.000918734 6.39214e-05 0)
(0.000873457 5.48014e-05 0)
(0.000836134 4.38084e-05 0)
(0.000807683 3.21781e-05 0)
(0.000788219 2.093e-05 0)
(0.000777174 1.09139e-05 0)
(0.000773365 2.83633e-06 0)
(0.000775071 -2.78666e-06 0)
(0.00078018 -5.68474e-06 0)
(0.000786428 -5.8808e-06 0)
(0.00079169 -3.73437e-06 0)
(0.000794267 1.00378e-07 0)
(0.000793123 4.76261e-06 0)
(0.000788011 9.31056e-06 0)
(0.000779454 1.28709e-05 0)
(0.000768607 1.47616e-05 0)
(0.000757034 1.456e-05 0)
(0.00074647 1.21369e-05 0)
(0.000738595 7.64919e-06 0)
(0.000734818 1.53271e-06 0)
(0.000736107 -5.5776e-06 0)
(0.000742881 -1.29218e-05 0)
(0.000754984 -1.97316e-05 0)
(0.000771741 -2.53339e-05 0)
(0.000792072 -2.92316e-05 0)
(0.000814631 -3.11432e-05 0)
(0.000837961 -3.10139e-05 0)
(0.00086062 -2.8972e-05 0)
(0.000881279 -2.52698e-05 0)
(0.000898772 -2.02267e-05 0)
(0.000912133 -1.41849e-05 0)
(0.000920639 -7.52082e-06 0)
(0.000923868 -6.75965e-07 0)
(0.000921782 5.83373e-06 0)
(0.000914809 1.14085e-05 0)
(0.000903881 1.54283e-05 0)
(0.000890437 1.73583e-05 0)
(0.00087632 1.68793e-05 0)
(0.00086355 1.4013e-05 0)
(0.00085399 9.20462e-06 0)
(0.000848982 3.2845e-06 0)
(0.000849038 -2.66457e-06 0)
(0.000853703 -7.54521e-06 0)
(0.000861653 -1.04962e-05 0)
(0.000870991 -1.11001e-05 0)
(0.000879694 -9.47818e-06 0)
(0.000886092 -6.24752e-06 0)
(0.000889229 -2.33751e-06 0)
(0.000889036 1.26872e-06 0)
(0.000886244 3.80302e-06 0)
(0.000882086 4.9137e-06 0)
(0.000877865 4.74626e-06 0)
(0.000874516 3.85916e-06 0)
(0.000872315 3.0024e-06 0)
(0.000870833 2.82762e-06 0)
(0.000869167 3.63138e-06 0)
(0.000866361 5.21897e-06 0)
(0.000861868 6.99071e-06 0)
(0.000855827 8.19565e-06 0)
(0.000849057 8.24941e-06 0)
(0.000842758 6.98577e-06 0)
(0.000838046 4.72085e-06 0)
(0.000835546 2.09931e-06 0)
(0.000835217 -1.96078e-07 0)
(0.000836471 -1.7142e-06 0)
(0.000838497 -2.35418e-06 0)
(0.00084058 -2.30533e-06 0)
(0.000842298 -1.88071e-06 0)
(0.000843519 -1.35746e-06 0)
(0.000844299 -9.02481e-07 0)
(0.000844767 -5.81404e-07 0)
(0.000845053 -3.97875e-07 0)
(0.000845263 -3.25468e-07 0)
(0.000845468 -3.27638e-07 0)
(0.00084571 -3.69901e-07 0)
(0.000846001 -4.25365e-07 0)
(0.000846342 -4.75588e-07 0)
(0.000846718 -5.09581e-07 0)
(0.000847115 -5.21876e-07 0)
(0.000847508 -5.12057e-07 0)
(0.0008479 -4.7776e-07 0)
(0.0008482 -4.38267e-07 0)
(0.000848639 -3.28105e-07 0)
(0.000854363 3.79503e-08 0)
(0.000854318 1.22997e-07 0)
(0.000854223 2.10638e-07 0)
(0.000854071 2.99411e-07 0)
(0.000853865 3.89303e-07 0)
(0.000853606 4.78745e-07 0)
(0.000853294 5.66067e-07 0)
(0.000852929 6.49103e-07 0)
(0.000852514 7.24528e-07 0)
(0.000852055 7.87268e-07 0)
(0.000851558 8.30122e-07 0)
(0.000851037 8.43601e-07 0)
(0.000850512 8.16124e-07 0)
(0.000850011 7.3497e-07 0)
(0.000849572 5.88349e-07 0)
(0.000849238 3.68659e-07 0)
(0.000849061 7.62514e-08 0)
(0.000849088 -2.78123e-07 0)
(0.000849356 -6.74117e-07 0)
(0.000849886 -1.08592e-06 0)
(0.000850679 -1.48818e-06 0)
(0.000851717 -1.86043e-06 0)
(0.000852971 -2.19186e-06 0)
(0.00085441 -2.48169e-06 0)
(0.000856009 -2.73233e-06 0)
(0.000857749 -2.9403e-06 0)
(0.000859607 -3.09425e-06 0)
(0.000861545 -3.18107e-06 0)
(0.000863515 -3.19474e-06 0)
(0.000865466 -3.14128e-06 0)
(0.000867362 -3.03478e-06 0)
(0.000869175 -2.88764e-06 0)
(0.000870887 -2.70563e-06 0)