/*--------------------------------*- C++ -*----------------------------------*\
| =========                 |                                                 |
| \\      /  F ield         | OpenFOAM: The Open Source CFD Toolbox           |
|  \\    /   O peration     | Version:  v2006                                 |
|   \\  /    A nd           | Website:  www.openfoam.com                      |
|    \\/     M anipulation  |                                                 |
\*---------------------------------------------------------------------------*/
FoamFile
{
    version     2.0;
    format      ascii;
    class       volScalarField;
    location    "0";
    object      f;
}
// * * * * * * * * * * * * * * * * * * * * * * * * * * * * * * * * * * * * * //

dimensions      [0 0 0 0 0 0 0];


internalField   nonuniform List<scalar> 
2500
(
-4.57064e-254
7.38307e-232
-3.60659e-222
2.7531e-212
1.61829e-207
4.65879e-204
3.71978e-201
3.15276e-199
5.01273e-199
6.13306e-197
3.83079e-197
9.59222e-198
1.33319e-198
1.19268e-199
7.50536e-201
3.52948e-202
1.2966e-203
3.85012e-205
9.49527e-207
1.98856e-208
3.60258e-210
5.73559e-212
8.13534e-214
1.04054e-215
1.21328e-217
1.30268e-219
1.30002e-221
1.21659e-223
1.07662e-225
9.08037e-228
7.35128e-230
5.74774e-232
4.36137e-234
3.22288e-236
2.32411e-238
1.63696e-240
1.12615e-242
7.56342e-245
4.95593e-247
3.16636e-249
1.97177e-251
1.1966e-253
7.07763e-256
4.0814e-258
2.29577e-260
1.26043e-262
6.75915e-265
3.54311e-267
1.81697e-269
6.62507e-272
-4.84616e-248
2.62928e-226
-7.70495e-217
4.20115e-207
1.9207e-202
4.52409e-199
3.05652e-196
2.24534e-194
3.15774e-194
3.47416e-192
1.96768e-192
4.50793e-193
5.77542e-194
4.79275e-195
2.81284e-196
1.23943e-197
4.28376e-199
1.20105e-200
2.80572e-202
5.58166e-204
9.63022e-206
1.46354e-207
1.98573e-209
2.43419e-211
2.72505e-213
2.81363e-215
2.70426e-217
2.44069e-219
2.08572e-221
1.70078e-223
1.33273e-225
1.00964e-227
7.43032e-230
5.33015e-232
3.73454e-234
2.55773e-236
1.7123e-238
1.1199e-240
7.15092e-243
4.45506e-245
2.7069e-247
1.60378e-249
9.2662e-252
5.22246e-254
2.87256e-256
1.54293e-258
8.09854e-261
4.15702e-263
2.0884e-265
7.53736e-268
-5.06602e-242
9.23073e-221
-1.6227e-211
6.31987e-202
2.24729e-197
4.33099e-194
2.4759e-191
1.57642e-189
1.96147e-189
1.94146e-187
9.97281e-188
2.0908e-188
2.46962e-189
1.9014e-190
1.04091e-191
4.29827e-193
1.39786e-194
3.70102e-196
8.19045e-198
1.54797e-199
2.54379e-201
3.69061e-203
4.7904e-205
5.62854e-207
6.05016e-209
6.00778e-211
5.56155e-213
4.84128e-215
3.99543e-217
3.15018e-219
2.38942e-221
1.75401e-223
1.25202e-225
8.71925e-228
5.93587e-230
3.9533e-232
2.57555e-234
1.64048e-236
1.02081e-238
6.20169e-241
3.67678e-243
2.12683e-245
1.2004e-247
6.61248e-250
3.55668e-252
1.86904e-254
9.60242e-257
4.8267e-259
2.37554e-261
8.48757e-264
-5.27506e-236
3.22728e-215
-3.4033e-206
9.46766e-197
2.6185e-192
4.12894e-189
1.99727e-186
1.10221e-184
1.21362e-184
1.08118e-182
5.03797e-183
9.66729e-184
1.05294e-184
7.52246e-186
3.84189e-187
1.48691e-188
4.5507e-190
1.13792e-191
2.38589e-193
4.28437e-195
6.70646e-197
9.28964e-199
1.15364e-200
1.29933e-202
1.34115e-204
1.28088e-206
1.14215e-208
9.58997e-211
7.64377e-213
5.82752e-215
4.27888e-217
3.04376e-219
2.10743e-221
1.42488e-223
9.42568e-226
6.10472e-228
3.87064e-230
2.40103e-232
1.45607e-234
8.62652e-237
4.99054e-239
2.8185e-241
1.55403e-243
8.36712e-246
4.40103e-248
2.26276e-250
1.13792e-252
5.60124e-255
2.70076e-257
9.55277e-260
-5.46937e-230
1.12328e-209
-7.10568e-201
1.41196e-191
3.03732e-187
3.91863e-184
1.60392e-181
7.67186e-180
7.47716e-180
5.9984e-178
2.53603e-178
4.45494e-179
4.47513e-180
2.9672e-181
1.41398e-182
5.12992e-184
1.4777e-185
3.49021e-187
6.93416e-189
1.18321e-190
1.76443e-192
2.33368e-194
2.773e-196
2.99408e-198
2.96786e-200
2.72644e-202
2.34193e-204
1.89684e-206
1.46029e-208
1.07659e-210
7.65266e-213
5.27545e-215
3.54315e-217
2.32594e-219
1.49515e-221
9.41754e-224
5.81139e-226
3.511e-228
2.07512e-230
1.19895e-232
6.76835e-235
3.73229e-237
2.01038e-239
1.058e-241
5.44222e-244
2.73766e-246
1.34764e-248
6.49626e-251
3.06878e-253
1.07457e-255
-5.64471e-224
3.89069e-204
-1.47635e-195
2.09545e-186
3.50596e-182
3.70092e-179
1.28177e-176
5.314e-175
4.58554e-175
3.31442e-173
1.27171e-173
2.04553e-174
1.89548e-175
1.16661e-176
5.18813e-178
1.76471e-179
4.78517e-181
1.06771e-182
2.01028e-184
3.25995e-186
4.63166e-188
5.84995e-190
6.65184e-192
6.88593e-194
6.55547e-196
5.79315e-198
4.79394e-200
3.74581e-202
2.7855e-204
1.986e-206
1.36675e-208
9.13129e-211
5.94947e-213
3.79225e-215
2.36897e-217
1.45123e-219
8.71618e-222
5.12901e-224
2.95456e-226
1.66485e-228
9.17156e-231
4.93825e-233
2.59868e-235
1.3368e-237
6.72483e-240
3.30993e-242
1.59495e-244
7.52945e-247
3.48479e-249
1.20804e-251
-5.79655e-218
1.34051e-198
-3.05121e-190
3.09338e-181
4.02552e-177
3.47684e-174
1.01891e-171
3.66138e-170
2.79816e-170
1.82333e-168
6.35062e-169
9.3555e-170
7.99876e-171
4.57068e-172
1.89729e-173
6.05153e-175
1.54493e-176
3.25701e-178
5.81227e-180
8.95862e-182
1.21284e-183
1.46301e-185
1.59209e-187
1.5803e-189
1.44506e-191
1.22855e-193
9.79514e-196
7.38409e-198
5.30444e-200
3.65775e-202
2.43727e-204
1.57825e-206
9.97625e-209
6.17481e-211
3.74879e-213
2.23365e-215
1.30581e-217
7.48454e-220
4.20236e-222
2.30951e-224
1.24163e-226
6.52798e-229
3.35623e-231
1.68767e-233
8.30312e-236
3.99878e-238
1.88627e-240
8.72085e-243
3.95453e-245
1.35716e-247
-5.92016e-212
4.59223e-193
-6.2698e-185
4.54032e-176
4.59553e-172
3.24757e-169
8.05308e-167
2.50826e-165
1.69823e-165
9.98275e-164
3.15711e-164
4.26069e-165
3.36185e-166
1.78394e-167
6.91335e-169
2.0681e-170
4.97171e-172
9.90476e-174
1.67555e-175
2.45502e-177
3.16748e-179
3.64956e-181
3.80136e-183
3.61834e-185
3.17837e-187
2.59989e-189
1.99734e-191
1.45282e-193
1.00827e-195
6.72496e-198
4.33904e-200
2.7235e-202
1.67032e-204
1.00398e-206
5.92417e-209
3.43344e-211
1.95386e-213
1.09089e-215
5.97037e-218
3.20032e-220
1.67917e-222
8.62093e-225
4.33051e-227
2.1287e-229
1.02429e-231
4.82694e-234
2.22901e-236
1.0093e-238
4.48427e-241
1.52358e-243
-6.01072e-206
1.56338e-187
-1.28031e-179
6.62245e-171
5.21349e-167
3.01448e-164
6.32512e-162
1.70759e-160
1.02461e-160
5.4373e-159
1.56185e-159
1.93147e-160
1.40682e-161
6.93403e-163
2.50923e-164
7.04139e-166
1.59429e-167
3.00196e-169
4.81477e-171
6.7072e-173
8.24815e-175
9.0787e-177
9.05226e-179
8.26377e-181
6.97386e-183
5.48923e-185
4.06382e-187
2.85239e-189
1.91267e-191
1.23404e-193
7.71061e-196
4.69161e-198
2.79197e-200
1.62982e-202
9.34782e-205
5.27011e-207
2.91952e-209
1.58793e-211
8.47168e-214
4.42946e-216
2.2683e-218
1.13725e-220
5.58178e-223
2.68229e-225
1.26237e-227
5.82126e-230
2.63169e-232
1.16711e-234
5.08083e-237
1.70899e-239
-6.06349e-200
5.28635e-182
-2.59664e-174
9.59376e-166
5.87434e-162
2.77911e-159
4.93417e-157
1.15462e-155
6.14226e-156
2.94491e-154
7.68569e-155
8.71199e-156
5.85916e-157
2.68309e-158
9.06854e-160
2.38773e-161
5.09273e-163
9.06507e-165
1.37871e-166
1.82632e-168
2.14099e-170
2.25157e-172
2.14937e-174
1.88209e-176
1.52611e-178
1.15602e-180
8.24824e-183
5.58727e-185
3.62028e-187
2.25971e-189
1.36744e-191
8.06645e-194
4.65829e-196
2.64119e-198
1.47256e-200
8.07653e-203
4.3559e-205
2.30812e-207
1.20044e-209
6.12265e-212
3.06028e-214
1.49843e-216
7.18633e-219
3.37611e-221
1.55415e-223
7.01327e-226
3.10409e-228
1.34833e-230
5.75157e-233
1.91524e-235
-6.07394e-194
1.77431e-176
-5.22732e-169
1.37952e-160
6.56994e-157
2.54315e-154
3.8206e-152
7.7495e-151
3.65644e-151
1.58526e-149
3.76027e-150
3.90819e-151
2.42766e-152
1.03314e-153
3.26221e-155
8.06097e-157
1.61996e-158
2.72641e-160
3.93284e-162
4.95478e-164
5.53803e-166
5.56538e-168
5.08719e-170
4.27339e-172
3.32989e-174
2.42773e-176
1.66965e-178
1.09164e-180
6.83566e-183
4.12819e-185
2.41969e-187
1.38396e-189
7.7565e-192
4.27192e-194
2.31548e-196
1.23559e-198
6.48816e-201
3.34964e-203
1.69847e-205
8.45082e-208
4.12308e-210
1.9717e-212
9.24036e-215
4.24424e-217
1.91113e-219
8.43987e-222
3.65733e-224
1.55607e-226
6.50437e-229
2.1442e-231
-6.03797e-188
5.9073e-171
-1.04381e-163
1.96763e-155
7.2885e-152
2.30841e-149
2.93444e-147
5.15929e-146
2.16008e-146
8.47686e-145
1.8282e-145
1.74281e-146
1.00021e-147
3.9569e-149
1.16756e-150
2.70824e-152
5.12925e-154
8.16395e-156
1.11715e-157
1.33883e-159
1.42701e-161
1.37059e-163
1.19982e-165
9.67033e-168
7.24219e-170
5.08271e-172
3.3698e-174
2.1268e-176
1.28719e-178
7.52223e-181
4.27113e-183
2.36887e-185
1.28865e-187
6.89481e-190
3.63353e-192
1.88661e-194
9.64643e-197
4.85259e-199
2.39907e-201
1.16456e-203
5.54645e-206
2.59064e-208
1.18648e-210
5.32838e-213
2.34705e-215
1.0144e-217
4.30403e-220
1.79376e-222
7.34756e-225
2.39785e-227
-5.95219e-182
1.94944e-165
-2.06591e-158
2.78167e-150
8.01424e-147
2.07684e-144
2.23392e-142
3.40457e-141
1.26548e-141
4.50003e-140
8.82773e-141
7.7216e-142
4.09566e-143
1.50665e-144
4.15553e-146
9.05073e-148
1.61586e-149
2.43281e-151
3.15872e-153
3.60167e-155
3.66148e-157
3.36168e-159
2.81879e-161
2.18017e-163
1.56949e-165
1.06048e-167
6.77888e-170
4.13059e-172
2.4166e-174
1.36674e-176
7.5186e-179
4.04417e-181
2.13562e-183
1.11018e-185
5.68904e-188
2.8745e-190
1.43128e-192
7.01621e-195
3.38237e-197
1.60196e-199
7.44849e-202
3.39831e-204
1.52107e-206
6.6794e-209
2.87825e-211
1.21754e-213
5.05833e-216
2.0651e-218
8.28983e-221
2.67813e-223
-5.81414e-176
6.37132e-160
-4.04931e-153
3.89447e-145
8.72707e-142
1.85045e-139
1.6842e-137
2.22497e-136
7.34633e-137
2.37003e-135
4.2308e-136
3.3969e-137
1.66583e-138
5.70016e-140
1.47002e-141
3.0071e-143
5.06217e-145
7.21112e-147
8.88576e-149
9.64187e-151
9.35087e-153
8.20831e-155
6.59383e-157
4.89489e-159
3.38784e-161
2.20422e-163
1.35871e-165
7.99429e-168
4.52181e-170
2.47538e-172
1.3195e-174
6.88423e-177
3.52949e-179
1.78289e-181
8.88507e-184
4.36922e-186
2.11882e-188
1.01225e-190
4.75881e-193
2.19928e-195
9.98382e-198
4.44969e-200
1.94661e-202
8.35896e-205
3.524e-207
1.45909e-209
5.93599e-212
2.3741e-214
9.34009e-217
2.98697e-219
-5.62257e-170
2.06035e-154
-7.85284e-148
5.39469e-140
9.40264e-137
1.63128e-134
1.25632e-132
1.43871e-131
4.22215e-132
1.23745e-130
2.01113e-131
1.48281e-132
6.72556e-134
2.14144e-135
5.16539e-137
9.92718e-139
1.57617e-140
2.12492e-142
2.48558e-144
2.56725e-146
2.3757e-148
1.99427e-150
1.53508e-152
1.09395e-154
7.2806e-157
4.56212e-159
2.71225e-161
1.54118e-163
8.42945e-166
4.46731e-168
2.30781e-170
1.16808e-172
5.81512e-175
2.85481e-177
1.38378e-179
6.62351e-182
3.12867e-184
1.45688e-186
6.67989e-189
3.01264e-191
1.33538e-193
5.8145e-196
2.48636e-198
1.04413e-200
4.30686e-203
1.74555e-205
6.95435e-208
2.72496e-210
1.05072e-212
3.3262e-215
-5.37772e-164
6.58551e-149
-1.50519e-142
7.38591e-135
1.00127e-131
1.42135e-129
9.26244e-128
9.19505e-127
2.40002e-127
6.40014e-126
9.47458e-127
6.41779e-128
2.69341e-129
7.98291e-131
1.80164e-132
3.25407e-134
4.87436e-136
6.22089e-138
6.90947e-140
6.7946e-142
6.00097e-144
4.8184e-146
3.55471e-148
2.43231e-150
1.55692e-152
9.39758e-155
5.38956e-157
2.95822e-159
1.56484e-161
8.02997e-164
4.021e-166
1.97473e-168
9.54774e-171
4.55614e-173
2.14838e-175
1.00109e-177
4.6067e-180
2.0911e-182
9.35217e-185
4.11655e-187
1.78187e-189
7.58061e-192
3.16881e-194
1.30149e-196
5.25301e-199
2.08418e-201
8.1322e-204
3.12205e-206
1.17997e-208
3.6974e-211
-5.08155e-158
2.07811e-143
-2.84817e-137
9.98275e-130
1.0526e-126
1.22261e-124
6.74162e-123
5.80173e-122
1.34782e-122
3.27596e-121
4.41979e-122
2.7518e-123
1.06904e-124
2.95058e-126
6.23277e-128
1.05833e-129
1.4961e-131
1.80808e-133
1.90738e-135
1.78628e-137
1.50609e-139
1.15697e-141
8.1824e-144
5.37699e-146
3.31101e-148
1.92554e-150
1.0655e-152
5.65034e-155
2.89133e-157
1.4369e-159
6.97595e-162
3.32481e-164
1.56153e-166
7.24446e-169
3.32369e-171
1.50801e-173
6.76127e-176
2.99228e-178
1.30553e-180
5.60929e-183
2.37131e-185
9.85783e-188
4.02865e-190
1.61846e-192
6.39246e-195
2.48308e-197
9.48954e-200
3.56977e-202
1.32254e-204
4.10184e-207
-4.73794e-152
6.46554e-138
-5.31342e-132
1.33024e-124
1.09097e-121
1.03684e-119
4.83774e-118
3.6092e-117
7.46861e-118
1.65781e-116
2.03957e-117
1.16779e-118
4.20147e-120
1.08031e-121
2.13675e-123
3.41215e-125
4.5537e-127
5.21289e-129
5.2246e-131
4.66102e-133
3.75266e-135
2.75878e-137
1.87085e-139
1.181e-141
6.99751e-144
3.92175e-146
2.09434e-148
1.07328e-150
5.31396e-153
2.55821e-155
1.20439e-157
5.57208e-160
2.54266e-162
1.14709e-164
5.12156e-167
2.263e-169
9.88778e-172
4.26709e-174
1.8165e-176
7.61929e-179
3.14622e-181
1.27821e-183
5.10759e-186
2.00725e-188
7.75913e-191
2.95102e-193
1.10471e-195
4.07236e-198
1.47906e-200
4.54028e-203
-4.35283e-146
1.98039e-132
-9.75815e-127
1.74501e-119
1.11313e-116
8.65611e-115
3.41751e-113
2.21037e-112
4.07777e-113
8.28484e-112
9.30017e-113
4.89954e-114
1.63328e-115
3.91409e-117
7.2518e-119
1.08947e-120
1.3731e-122
1.48942e-124
1.41867e-126
1.20603e-128
9.27471e-131
6.52683e-133
4.24527e-135
2.57503e-137
1.46847e-139
7.93337e-142
4.0898e-144
2.02592e-146
9.70789e-149
4.52838e-151
2.06795e-153
9.28951e-156
4.11965e-158
1.80772e-160
7.85644e-163
3.38145e-165
1.4401e-167
6.06133e-170
2.51803e-172
1.03127e-174
4.16012e-177
1.65196e-179
6.45513e-182
2.48192e-184
9.3906e-187
3.49734e-189
1.28257e-191
4.63365e-194
1.64998e-196
5.01277e-199
-3.93415e-140
5.96176e-127
-1.76121e-121
2.24964e-114
1.11617e-111
7.10214e-110
2.37263e-108
1.33042e-107
2.19016e-108
4.08346e-107
4.18516e-108
2.02982e-109
6.27264e-111
1.40165e-112
2.43359e-114
3.44103e-116
4.09714e-118
4.21259e-120
3.81463e-122
3.09109e-124
2.27131e-126
1.5305e-128
9.55096e-131
5.5682e-133
3.05711e-135
1.59252e-137
7.92737e-140
3.79692e-142
1.7614e-144
7.96348e-147
3.52857e-149
1.5395e-151
6.63696e-154
2.83348e-156
1.19901e-158
5.02809e-161
2.08772e-163
8.57196e-166
3.47577e-168
1.39018e-170
5.47945e-173
2.12705e-175
8.12905e-178
3.05829e-180
1.13276e-182
4.13161e-185
1.48451e-187
5.25675e-190
1.83541e-192
5.51839e-195
-3.49174e-134
1.76051e-121
-3.1179e-116
2.8447e-109
1.0978e-106
5.71571e-105
1.61572e-103
7.85494e-103
1.15505e-103
1.98217e-102
1.85602e-103
8.29202e-105
2.37664e-106
4.9543e-108
8.06441e-110
1.07364e-111
1.20817e-113
1.17791e-115
1.0144e-117
7.83797e-120
5.50468e-122
3.55294e-124
2.1279e-126
1.19275e-128
6.30659e-131
3.16873e-133
1.5236e-135
7.05825e-138
3.17095e-140
1.38999e-142
5.97792e-145
2.534e-147
1.06234e-149
4.41405e-152
1.81919e-154
7.4351e-157
3.01057e-159
1.20614e-161
4.77467e-164
1.86536e-166
7.18531e-169
2.72716e-171
1.01953e-173
3.75376e-176
1.36125e-178
4.86319e-181
1.71223e-183
5.94351e-186
2.03503e-188
6.05493e-191
-3.03699e-128
5.08843e-116
-5.40209e-111
3.52054e-104
1.05674e-101
4.50199e-100
1.07685e-98
4.53909e-98
5.96851e-99
9.46044e-98
8.09837e-99
3.33474e-100
8.86964e-102
1.7257e-103
2.63472e-105
3.30412e-107
3.51545e-109
3.25124e-111
2.6638e-113
1.96332e-115
1.31838e-117
8.15358e-120
4.68826e-122
2.5275e-124
1.28748e-126
6.24171e-129
2.89993e-131
1.29986e-133
5.65744e-136
2.40537e-138
1.00447e-140
4.13847e-143
1.68785e-145
6.82792e-148
2.74172e-150
1.09245e-152
4.3151e-155
1.68734e-157
6.52282e-160
2.48976e-162
9.37458e-165
3.47962e-167
1.27272e-169
4.5867e-172
1.62878e-174
5.70048e-177
1.96695e-179
6.69402e-182
2.24796e-184
6.61851e-187
-2.58237e-122
1.43584e-110
-9.13697e-106
4.25326e-99
9.93019e-97
3.46168e-95
7.00638e-94
2.56072e-93
3.01443e-94
4.43127e-93
3.47013e-94
1.3178e-95
3.25439e-97
5.91268e-99
8.47105e-101
1.00112e-102
1.00751e-104
8.84261e-107
6.89545e-109
4.84973e-111
3.11498e-113
1.84664e-115
1.0198e-117
5.28984e-120
2.59695e-122
1.21527e-124
5.45796e-127
2.36812e-129
9.98959e-132
4.12142e-134
1.67191e-136
6.69823e-139
2.65879e-141
1.04763e-143
4.1003e-146
1.59343e-148
6.1419e-151
2.34487e-153
8.85459e-156
3.30303e-158
1.21598e-160
4.41491e-163
1.58026e-165
5.57554e-168
1.93919e-170
6.64993e-173
2.24914e-175
7.50572e-178
2.4725e-180
7.20309e-183
-2.14073e-116
3.94392e-105
-1.50417e-100
5.00139e-94
9.08246e-92
2.59079e-90
4.43705e-89
1.40618e-88
1.48378e-89
2.03266e-88
1.45711e-89
5.10609e-91
1.17142e-92
1.98837e-94
2.67447e-96
2.97994e-98
2.83794e-100
2.36475e-102
1.75582e-104
1.17892e-106
7.24588e-109
4.11924e-111
2.18574e-113
1.09134e-115
5.16587e-118
2.33448e-120
1.01397e-122
4.26065e-125
1.74284e-127
6.981e-130
2.75249e-132
1.07287e-134
4.14697e-137
1.59239e-139
6.07764e-142
2.30455e-144
8.6719e-147
3.23369e-149
1.19321e-151
4.35128e-154
1.56667e-156
5.56552e-159
1.94996e-161
6.73716e-164
2.2955e-166
7.71457e-169
2.55809e-171
8.3725e-174
2.70594e-176
7.79999e-179
-1.72452e-110
1.05087e-99
-2.40187e-95
5.70447e-89
8.05764e-87
1.8808e-85
2.72559e-84
7.49043e-84
7.09405e-85
9.10875e-84
5.9807e-85
1.93497e-86
4.12594e-88
6.54624e-90
8.27036e-92
8.69194e-94
7.83679e-96
6.20247e-98
4.387e-100
2.81326e-102
1.65532e-104
9.02828e-107
4.60509e-109
2.21432e-111
1.0111e-113
4.41472e-116
1.85544e-118
7.55463e-121
2.99837e-123
1.16673e-125
4.47396e-128
1.69771e-130
6.394e-133
2.3941e-135
8.91569e-138
3.30041e-140
1.21301e-142
4.41986e-145
1.59428e-147
5.68571e-150
2.00281e-152
6.96357e-155
2.38887e-157
8.08447e-160
2.69916e-162
8.89214e-165
2.89143e-167
9.28348e-170
2.94432e-172
8.39725e-175
-1.34488e-104
2.70529e-94
-3.70501e-90
6.28534e-84
6.90565e-82
1.31902e-80
1.61743e-79
3.85477e-79
3.28127e-80
3.97627e-79
2.39252e-80
7.15015e-82
1.41773e-83
2.10351e-85
2.49729e-87
2.47675e-89
2.11509e-91
1.59074e-93
1.07229e-95
6.5705e-98
3.70293e-100
1.93856e-102
9.51006e-105
4.4061e-107
1.94188e-109
8.19678e-112
3.33549e-114
1.31682e-116
5.07444e-119
1.91959e-121
7.16414e-124
2.64854e-126
9.72667e-129
3.55381e-131
1.29218e-133
4.67269e-136
1.67834e-138
5.97869e-141
2.10915e-143
7.35918e-146
2.53714e-148
8.63695e-151
2.90204e-153
9.62296e-156
3.14913e-158
1.01726e-160
3.24454e-163
1.02216e-165
3.18207e-168
8.97904e-171
-1.01071e-98
6.69612e-89
-5.49437e-85
6.65779e-79
5.68976e-77
8.89327e-76
9.22763e-75
1.90729e-74
1.46129e-75
1.68531e-74
9.29622e-76
2.56727e-77
4.73539e-79
6.57315e-81
7.33626e-83
6.86912e-85
5.55867e-87
3.97456e-89
2.55459e-91
1.49648e-93
8.08197e-96
4.06346e-98
1.9183e-100
8.56868e-103
3.64726e-105
1.48933e-107
5.87207e-110
2.24952e-112
8.4235e-115
3.10042e-117
1.12718e-119
4.06346e-122
1.45641e-124
5.19685e-127
1.84643e-129
6.52717e-132
2.29268e-134
7.98946e-137
2.75804e-139
9.4198e-142
3.17992e-144
1.06032e-146
3.49085e-149
1.13459e-151
3.6406e-154
1.15349e-156
3.60984e-159
1.11622e-161
3.41175e-164
9.52499e-167
-7.28004e-93
1.58437e-83
-7.78764e-80
6.7405e-74
4.48072e-72
5.73119e-71
5.03186e-70
9.02073e-70
6.22963e-71
6.90856e-70
3.49405e-71
8.91878e-73
1.53083e-74
1.98866e-76
2.08741e-78
1.84598e-80
1.41616e-82
9.63131e-85
5.90546e-87
3.309e-89
1.71349e-91
8.27868e-94
3.76331e-96
1.62175e-98
6.67166e-101
2.63753e-103
1.00843e-105
3.75207e-108
1.36659e-110
4.89917e-113
1.7369e-115
6.11233e-118
2.14035e-120
7.4664e-123
2.59465e-125
8.97429e-128
3.0851e-130
1.05245e-132
3.55752e-135
1.19004e-137
3.93574e-140
1.28606e-142
4.15056e-145
1.32281e-147
4.1635e-150
1.29439e-152
3.97598e-155
1.20712e-157
3.62372e-160
1.00097e-162
-4.99227e-87
3.55832e-78
-1.04755e-74
6.47643e-69
3.3488e-67
3.5053e-66
2.60412e-65
4.04942e-65
2.52431e-66
2.72645e-65
1.26412e-66
2.98255e-68
4.76443e-70
5.79383e-72
5.72128e-74
4.78045e-76
3.4782e-78
2.25104e-80
1.31737e-82
7.06452e-85
3.50968e-87
1.63053e-89
7.14214e-92
2.97159e-94
1.18249e-96
4.52999e-99
1.68125e-101
6.08215e-104
2.15727e-106
7.54203e-109
2.61089e-111
8.98091e-114
3.07645e-116
1.05046e-118
3.57452e-121
1.21094e-123
4.07804e-126
1.36304e-128
4.51491e-131
1.48025e-133
4.79912e-136
1.53767e-138
4.86727e-141
1.52187e-143
4.70072e-146
1.43459e-148
4.32707e-151
1.29037e-153
3.80597e-156
1.04026e-158
-3.23239e-81
7.51936e-73
-1.3256e-69
5.85392e-64
2.35453e-62
2.01692e-61
1.26788e-60
1.71026e-60
9.63706e-62
1.03018e-60
4.37618e-62
9.54091e-64
1.41835e-65
1.61472e-67
1.50035e-69
1.18482e-71
8.17903e-74
5.03942e-76
2.81636e-78
1.44625e-80
6.89774e-83
3.08359e-85
1.30254e-87
5.23697e-90
2.01778e-92
7.49866e-95
2.70477e-97
9.52666e-100
3.29534e-102
1.12528e-104
3.80986e-107
1.28306e-109
4.30638e-112
1.44143e-114
4.80954e-117
1.59785e-119
5.27732e-122
1.72995e-124
5.62028e-127
1.80745e-129
5.74877e-132
1.80731e-134
5.61442e-137
1.72325e-139
5.22636e-142
1.56655e-144
4.64203e-147
1.36035e-149
3.94404e-152
1.06678e-154
-1.95548e-75
1.47864e-67
-1.56063e-64
4.92279e-59
1.54021e-57
1.07976e-56
5.74332e-56
6.72103e-56
3.42773e-57
3.70197e-56
1.43897e-57
2.8968e-59
4.00604e-61
4.269e-63
3.7326e-65
2.78636e-67
1.82551e-69
1.07125e-71
5.72005e-74
2.81448e-76
1.28956e-78
5.55169e-81
2.26354e-83
8.80343e-86
3.28805e-88
1.18697e-90
4.16729e-93
1.43146e-95
4.83784e-98
1.61674e-100
5.36431e-103
1.77228e-105
5.8396e-108
1.91959e-110
6.29097e-113
2.05271e-115
6.6579e-118
2.14307e-120
6.83606e-123
2.1585e-125
6.74087e-128
2.08101e-130
6.3491e-133
1.91428e-135
5.70423e-138
1.68029e-140
4.89442e-143
1.41028e-145
4.02131e-148
1.07656e-150
-1.09038e-69
2.66729e-62
-1.68504e-59
3.79665e-54
9.24034e-53
5.30163e-52
2.38611e-51
2.42263e-51
1.11949e-52
1.2548e-51
4.45293e-53
8.26569e-55
1.06246e-56
1.05931e-58
8.71401e-61
6.14932e-63
3.82438e-65
2.13823e-67
1.09138e-69
5.14858e-72
2.26798e-74
9.41128e-77
3.70766e-79
1.39663e-81
5.06399e-84
1.77875e-86
6.09022e-89
2.04462e-91
6.76748e-94
2.21889e-96
7.23362e-99
2.35051e-101
7.62164e-104
2.466e-106
7.95382e-109
2.55357e-111
8.14662e-114
2.57849e-116
8.08579e-119
2.50951e-121
7.70282e-124
2.33728e-126
7.0095e-129
2.07766e-131
6.08747e-134
1.76352e-136
5.05295e-139
1.4325e-141
4.01978e-144
1.06542e-146
-5.50258e-64
4.33023e-57
-1.63695e-54
2.63454e-49
4.98795e-48
2.34224e-47
8.91976e-47
7.85784e-47
3.29266e-48
3.97061e-47
1.28156e-48
2.18831e-50
2.61055e-52
2.43302e-54
1.88208e-56
1.25531e-58
7.4114e-61
3.9491e-63
1.9277e-65
8.72468e-68
3.6981e-70
1.48073e-72
5.64389e-75
2.06233e-77
7.27293e-80
2.49123e-82
8.3396e-85
2.7443e-87
8.92387e-90
2.88017e-92
9.25623e-95
2.96778e-97
9.49876e-100
3.03333e-102
9.65241e-105
3.0556e-107
9.60632e-110
2.99466e-112
9.24529e-115
2.82406e-117
8.52983e-120
2.54667e-122
7.51487e-125
2.19186e-127
6.32017e-130
1.80216e-132
5.08342e-135
1.41902e-137
3.92164e-140
1.02941e-142
-2.44988e-58
6.16096e-52
-1.39322e-49
1.60167e-44
2.35901e-43
9.0665e-43
2.92143e-42
2.2332e-42
8.48866e-44
1.15751e-42
3.37713e-44
5.28434e-46
5.83634e-48
5.07675e-50
3.68951e-52
2.32473e-54
1.30283e-56
6.61709e-59
3.09047e-61
1.34291e-63
5.48269e-66
2.12107e-68
7.83515e-71
2.78318e-73
9.57082e-76
3.20678e-78
1.05333e-80
3.41113e-83
1.09447e-85
3.49268e-88
1.11141e-90
3.53069e-93
1.11964e-95
3.54063e-98
1.11476e-100
3.48828e-103
1.08303e-105
3.33154e-108
1.01427e-110
3.05379e-113
9.08861e-116
2.67326e-118
7.7708e-121
2.23272e-123
6.3424e-126
1.78184e-128
4.95272e-131
1.36256e-133
3.71188e-136
9.65459e-139
-9.2661e-53
7.38741e-47
-9.98975e-45
8.20348e-40
9.39955e-39
2.95685e-38
8.0614e-38
5.34739e-38
1.84337e-39
3.05482e-38
7.97556e-40
1.13664e-41
1.15777e-43
9.37613e-46
6.39181e-48
3.80135e-50
2.02141e-52
9.78701e-55
4.37556e-57
1.82709e-59
7.1946e-62
2.69425e-64
9.66889e-67
3.34914e-69
1.12738e-71
3.71198e-74
1.20274e-76
3.85559e-79
1.22814e-81
3.89901e-84
1.23564e-86
3.90976e-89
1.23409e-91
3.87975e-94
1.21263e-96
3.76132e-99
1.15603e-101
3.51635e-104
1.05763e-106
3.14387e-109
9.23362e-112
2.67939e-114
7.68262e-117
2.1772e-119
6.10018e-122
1.69048e-124
4.63533e-127
1.25819e-129
3.38218e-132
8.72233e-135
-2.80093e-47
7.01136e-42
-5.66731e-40
3.32442e-35
2.9634e-34
7.6302e-34
1.76008e-33
1.01313e-33
3.16382e-35
7.12599e-34
1.63635e-35
2.10308e-37
1.96369e-39
1.47491e-41
9.40891e-44
5.27417e-46
2.65951e-48
1.22753e-50
5.25701e-53
2.11233e-55
8.03963e-58
2.92312e-60
1.02327e-62
3.47427e-65
1.15215e-67
3.75613e-70
1.21075e-72
3.87678e-75
1.23706e-77
3.94039e-80
1.25312e-82
3.97497e-85
1.25554e-87
3.94122e-90
1.2272e-92
3.78425e-95
1.15421e-97
3.47901e-100
1.03577e-102
3.04509e-105
8.84019e-108
2.53462e-110
7.17914e-113
2.00953e-115
5.56103e-118
1.52213e-120
4.12268e-123
1.10546e-125
2.93595e-128
7.51344e-131
-6.03903e-42
4.69099e-37
-2.26541e-35
9.49267e-31
6.58327e-30
1.38744e-29
2.70778e-29
1.35246e-29
3.81722e-31
1.41944e-29
2.77682e-31
3.16514e-33
2.68304e-35
1.85804e-37
1.10521e-39
5.82765e-42
2.7845e-44
1.22567e-46
5.03578e-49
1.95257e-51
7.21402e-54
2.56211e-56
8.81936e-59
2.96509e-61
9.8052e-64
3.20867e-66
1.04393e-68
3.38675e-71
1.09692e-73
3.54555e-76
1.14199e-78
3.65771e-81
1.16248e-83
3.65883e-86
1.13867e-88
3.49991e-91
1.06172e-93
3.1775e-96
9.38095e-99
2.73236e-101
7.85367e-104
2.22848e-106
6.24504e-109
1.72926e-111
4.73367e-114
1.28166e-116
3.434e-119
9.10966e-122
2.39379e-124
6.08523e-127
-6.99906e-37
1.66279e-32
-4.79499e-31
1.43551e-26
7.7487e-26
1.33698e-25
2.20824e-25
9.56293e-26
2.42887e-27
2.28846e-25
3.56146e-27
3.49163e-29
2.6442e-31
1.6731e-33
9.23307e-36
4.56933e-38
2.06895e-40
8.70599e-43
3.44888e-45
1.30091e-47
4.72067e-50
1.66375e-52
5.74487e-55
1.95817e-57
6.62725e-60
2.23536e-62
7.52545e-65
2.52742e-67
8.45241e-70
2.8077e-72
9.2401e-75
3.00598e-77
9.65002e-80
3.05344e-82
9.51618e-85
2.92023e-87
8.82374e-90
2.62582e-92
7.69866e-95
2.22491e-97
6.34145e-100
1.78359e-102
4.95322e-105
1.35901e-107
3.68597e-110
9.88833e-113
2.62527e-115
6.90132e-118
1.79729e-120
4.54417e-123
-3.40056e-31
5.3105e-26
-9.29216e-23
2.04786e-18
8.61365e-18
1.21921e-17
1.70323e-17
6.45055e-18
1.71254e-19
2.72e-21
2.75035e-23
2.17162e-25
1.42765e-27
8.14304e-30
4.14868e-32
1.93037e-34
8.35367e-37
3.41572e-39
1.33859e-41
5.09322e-44
1.90271e-46
7.03975e-49
2.59348e-51
9.53164e-54
3.49093e-56
1.27036e-58
4.57673e-61
1.62685e-63
5.69023e-66
1.95472e-68
6.58762e-71
2.17697e-73
7.05421e-76
2.24207e-78
6.99334e-81
2.14211e-83
6.44831e-86
1.90913e-88
5.56356e-91
1.59713e-93
4.51994e-96
1.26197e-98
3.47854e-101
9.47264e-104
2.55006e-106
6.79044e-109
1.78964e-111
4.67079e-114
1.2078e-116
3.04179e-119
-9.42281e-13
2.82832e-10
-5.18059e-08
2.70509e-06
9.12718e-06
1.05641e-05
1.25711e-05
4.17e-06
1.85102e-08
1.64417e-18
9.90683e-23
2.84147e-24
4.60036e-26
5.74857e-28
5.80551e-30
4.93785e-32
3.65368e-34
2.41019e-36
1.44398e-38
7.96982e-41
4.09779e-43
1.98012e-45
9.0563e-48
3.94305e-50
1.64214e-52
6.56784e-55
2.53133e-57
9.42905e-60
3.40328e-62
1.19297e-64
4.06955e-67
1.35347e-69
4.39601e-72
1.3965e-74
4.34512e-77
1.32587e-79
3.97242e-82
1.16988e-84
3.39003e-87
9.67508e-90
2.72193e-92
7.55485e-95
2.07032e-97
5.60556e-100
1.50059e-102
3.97413e-105
1.04186e-107
2.70521e-110
6.96058e-113
1.74922e-115
-3.45198e-08
7.91717e-06
-0.00132299
0.114565
0.247537
0.262524
0.263894
0.148003
0.015015
-5.46123e-19
-7.55147e-21
-6.54472e-23
3.54042e-23
1.26841e-24
1.86401e-26
1.91638e-28
1.58029e-30
1.11329e-32
6.94921e-35
3.93572e-37
2.05619e-39
1.00302e-41
4.61039e-44
2.01111e-46
8.37276e-49
3.34228e-51
1.28419e-53
4.7648e-56
1.71204e-58
5.97177e-61
2.02657e-63
6.70407e-66
2.16569e-68
6.84272e-71
2.11772e-73
6.42827e-76
1.91619e-78
5.61552e-81
1.61958e-83
4.60143e-86
1.28899e-88
3.56313e-91
9.72688e-94
2.62413e-96
7.00097e-99
1.84825e-101
4.83108e-104
1.25097e-106
3.21058e-109
8.06777e-112
9.29838e-06
-0.00138158
0.11297
0.360099
0.624333
0.76086
0.763929
0.651003
0.286601
0.0168493
3.71844e-08
7.72252e-15
8.52983e-19
8.4223e-21
9.55198e-23
8.49414e-25
6.37748e-27
4.21468e-29
2.51719e-31
1.38305e-33
7.07931e-36
3.40705e-38
1.55252e-40
6.73541e-43
2.79458e-45
1.11313e-47
4.27049e-50
1.58261e-52
5.6801e-55
1.97899e-57
6.70745e-60
2.21585e-62
7.14759e-65
2.25488e-67
6.96749e-70
2.11162e-72
6.28474e-75
1.83906e-77
5.29672e-80
1.50296e-82
4.20551e-85
1.1614e-87
3.16797e-90
8.54142e-93
2.27782e-95
6.01207e-98
1.57143e-100
4.06975e-103
1.04487e-105
2.63212e-108
2.04711e-05
-0.00290283
0.226818
0.60681
0.87465
0.99855
0.999979
1.00438
0.658946
0.156825
0.00105661
1.47706e-10
1.06717e-14
7.62194e-19
8.71723e-21
1.52718e-22
1.86114e-24
1.77136e-26
1.40244e-28
9.60977e-31
5.85533e-33
3.23527e-35
1.6452e-37
7.78886e-40
3.46477e-42
1.45904e-44
5.85258e-47
2.24785e-49
8.30319e-52
2.96087e-54
1.02261e-56
3.43047e-59
1.12056e-61
3.57197e-64
1.11333e-66
3.39892e-69
1.01797e-71
2.9951e-74
8.66813e-77
2.47043e-79
6.94072e-82
1.92413e-84
5.26788e-87
1.42546e-89
3.81514e-92
1.01062e-94
2.65131e-97
6.89243e-100
1.77645e-102
4.5001e-105
2.23827e-05
-0.00302598
0.224774
0.721813
0.996222
1
0.999979
1.00303
0.77523
0.278194
0.00378209
6.02719e-10
4.5617e-14
3.45237e-18
2.52273e-22
8.71625e-24
1.58954e-25
2.01996e-27
2.00641e-29
1.65871e-31
1.18722e-33
7.55839e-36
4.36467e-38
2.32011e-40
1.14839e-42
5.34174e-45
2.3525e-47
9.86994e-50
3.96542e-52
1.53237e-54
5.7171e-57
2.06605e-59
7.25259e-62
2.47921e-64
8.27093e-67
2.69814e-69
8.62183e-72
2.70292e-74
8.32481e-77
2.52215e-79
7.5252e-82
2.21344e-84
6.4244e-87
1.84156e-89
5.21758e-92
1.46218e-94
4.05575e-97
1.11416e-99
3.033e-102
8.11159e-105
1.21164e-05
-0.00155763
0.108905
0.588062
0.980211
1
0.999977
1.00316
0.775799
0.278919
0.00396803
6.61148e-10
5.23663e-14
4.14762e-18
3.16654e-22
1.14393e-23
2.18242e-25
2.90178e-27
3.0159e-29
2.60889e-31
1.95394e-33
1.30169e-35
7.86555e-38
4.37509e-40
2.26607e-42
1.10298e-44
5.08301e-47
2.23157e-49
9.38188e-52
3.79376e-54
1.48111e-56
5.60091e-59
2.05738e-61
7.35937e-64
2.56914e-66
8.77008e-69
2.93254e-71
9.62016e-74
3.10048e-76
9.82945e-79
3.0689e-81
9.44577e-84
2.86884e-86
8.60523e-89
2.55124e-91
7.48148e-94
2.17151e-96
6.24223e-99
1.77816e-101
4.97693e-104
-1.38075e-07
2.50613e-05
-0.00330272
0.223752
0.708161
0.982746
1.00159
0.888218
0.643296
0.263465
0.00438321
7.73829e-10
6.40744e-14
5.30523e-18
4.22721e-22
1.59497e-23
3.18005e-25
4.41935e-27
4.801e-29
4.34111e-31
3.39856e-33
2.36663e-35
1.49484e-37
8.69155e-40
4.70573e-42
2.39424e-44
1.15335e-46
5.29292e-49
2.32604e-51
9.83195e-54
4.01235e-56
1.58602e-58
6.08985e-61
2.27704e-63
8.30913e-66
2.96489e-68
1.03629e-70
3.5535e-73
1.19711e-75
3.96706e-78
1.29465e-80
4.16521e-83
1.32231e-85
4.14588e-88
1.28479e-90
3.93814e-93
1.19478e-95
3.58993e-98
1.0689e-100
3.12752e-103
6.68241e-10
-1.50425e-07
2.74224e-05
-0.00346078
0.224873
0.594161
0.736897
0.626584
0.379418
0.126898
0.00183959
3.34453e-10
2.89296e-14
2.50199e-18
2.0786e-22
8.18527e-24
1.70388e-25
2.47255e-27
2.80495e-29
2.64857e-31
2.16535e-33
1.57467e-35
1.03869e-37
6.30691e-40
3.56597e-42
1.89474e-44
9.53183e-47
4.56816e-49
2.0965e-51
9.2544e-54
3.94401e-56
1.62809e-58