/*--------------------------------*- C++ -*----------------------------------*\
| =========                 |                                                 |
| \\      /  F ield         | OpenFOAM: The Open Source CFD Toolbox           |
|  \\    /   O peration     | Version:  v2006                                 |
|   \\  /    A nd           | Website:  www.openfoam.com                      |
|    \\/     M anipulation  |                                                 |
\*---------------------------------------------------------------------------*/
FoamFile
{
    version     2.0;
    format      ascii;
    class       surfaceScalarField;
    location    "8.8";
    object      alphaPhi0.water;
}
// * * * * * * * * * * * * * * * * * * * * * * * * * * * * * * * * * * * * * //

dimensions      [0 3 -1 0 0 0 0];
oriented        oriented;


internalField   nonuniform List<scalar> 
99450
(
2.7231e-05
-2.7231e-05
6.72942e-05
-4.00632e-05
0.000104549
-3.72546e-05
0.000139469
-3.49208e-05
0.000173504
-3.40342e-05
0.000207238
-3.37341e-05
0.000240563
-3.33252e-05
0.000273419
-3.28558e-05
0.000305702
-3.22832e-05
0.000337368
-3.16656e-05
0.000368361
-3.09933e-05
0.000398627
-3.02658e-05
0.000428111
-2.94847e-05
0.000456758
-2.86468e-05
0.000484511
-2.77525e-05
0.00051131
-2.6799e-05
0.000537099
-2.57895e-05
0.000561823
-2.47239e-05
0.00058542
-2.35968e-05
0.000607834
-2.24145e-05
0.000629013
-2.11784e-05
0.000648915
-1.9902e-05
0.000667483
-1.85685e-05
0.000684664
-1.71802e-05
0.000700416
-1.57521e-05
0.000714701
-1.42849e-05
0.000727479
-1.27788e-05
0.000738711
-1.12312e-05
0.000748361
-9.65045e-06
0.000756395
-8.03399e-06
0.00076278
-6.38476e-06
0.000767488
-4.70815e-06
0.000770494
-3.00569e-06
0.00077177
-1.2765e-06
0.000771311
4.593e-07
0.000769091
2.22009e-06
0.000765174
3.91678e-06
0.000759636
5.53787e-06
0.000752569
7.06675e-06
0.000744056
8.51284e-06
0.000734161
9.89501e-06
0.00072292
1.12419e-05
0.000710329
1.25902e-05
0.000696379
1.39502e-05
0.000681067
1.5312e-05
0.000664449
1.66182e-05
0.000646666
1.77827e-05
0.000627929
1.87376e-05
0.00060847
1.94587e-05
0.00058849
1.99797e-05
0.000568111
2.03796e-05
0.000547361
2.07499e-05
0.000526208
2.11527e-05
0.000504604
2.16038e-05
0.000482518
2.20862e-05
0.00045994
2.25782e-05
0.000436881
2.30587e-05
0.000413362
2.35187e-05
0.00038941
2.39529e-05
0.000365046
2.43633e-05
0.000340296
2.47506e-05
0.000315185
2.51104e-05
0.000289743
2.54422e-05
0.000263997
2.57458e-05
0.000237975
2.60218e-05
0.000211709
2.62669e-05
0.000185227
2.64819e-05
0.000158559
2.66678e-05
0.000131734
2.68253e-05
0.000104781
2.69523e-05
7.77342e-05
2.7047e-05
5.06245e-05
2.71097e-05
2.34834e-05
2.71411e-05
-3.65817e-06
2.71416e-05
-3.0762e-05
2.71038e-05
-5.77971e-05
2.70352e-05
-8.47464e-05
2.69492e-05
-0.00011157
2.68232e-05
-0.000138255
2.66856e-05
-0.000164794
2.65387e-05
-0.000191165
2.63715e-05
-0.000217365
2.61991e-05
-0.000243389
2.60243e-05
-0.000269259
2.587e-05
-0.000294946
2.56868e-05
-0.000320457
2.55118e-05
-0.00034579
2.53323e-05
-0.000370986
2.5196e-05
-0.000396026
2.50397e-05
-0.000420929
2.49033e-05
-0.000445736
2.48068e-05
-0.000470457
2.47214e-05
-0.00049515
2.46925e-05
-0.00051987
2.47209e-05
-0.000544681
2.48108e-05
-0.000569678
2.49966e-05
-0.000594983
2.53055e-05
-0.000620811
2.58277e-05
-0.000647215
2.64035e-05
-0.000674025
2.68106e-05
-0.000700868
2.68425e-05
-0.000727191
2.63236e-05
-0.000752522
2.53311e-05
-0.000776475
2.39523e-05
-0.000798735
2.22605e-05
-0.000819126
2.03907e-05
-0.00083756
1.84336e-05
-0.000853898
1.63388e-05
-0.000868093
1.41943e-05
-0.000880067
1.1974e-05
-0.000889762
9.69564e-06
-0.000897137
7.37489e-06
-0.000902167
5.03e-06
-0.000904833
2.66553e-06
-0.000905095
2.62427e-07
-0.000903047
-2.04772e-06
-0.000898718
-4.32915e-06
-0.000892219
-6.49953e-06
-0.000883673
-8.5454e-06
-0.000873248
-1.04257e-05
-0.00086105
-1.21975e-05
-0.000847196
-1.38537e-05
-0.000831769
-1.54273e-05
-0.000814834
-1.69354e-05
-0.000796451
-1.83824e-05
-0.000776676
-1.97757e-05
-0.000755549
-2.11265e-05
-0.000733128
-2.24215e-05
-0.000709444
-2.36834e-05
-0.000684544
-2.49006e-05
-0.000658474
-2.60694e-05
-0.000631267
-2.72073e-05
-0.000602959
-2.83076e-05
-0.000573578
-2.93809e-05
-0.000543181
-3.03979e-05
-0.000511826
-3.13547e-05
-0.000479542
-3.22835e-05
-0.000446402
-3.31399e-05
-0.000412438
-3.39645e-05
-0.000377713
-3.47253e-05
-0.000342241
-3.54719e-05
-0.000306053
-3.61873e-05
-0.000269225
-3.68282e-05
-0.000231731
-3.7494e-05
-0.000193708
-3.80235e-05
-0.000154805
-3.89029e-05
-0.000115467
-3.93382e-05
-7.48804e-05
-4.05863e-05
-3.50506e-05
-3.98298e-05
-3.50506e-05
2.049e-05
-4.77209e-05
4.87578e-05
-6.8331e-05
7.4826e-05
-6.33228e-05
9.85561e-05
-5.86509e-05
0.000121928
-5.74063e-05
0.000145083
-5.68886e-05
0.000168232
-5.64742e-05
0.000191013
-5.56367e-05
0.000213532
-5.48026e-05
0.000235659
-5.37926e-05
0.000257394
-5.27281e-05
0.000278693
-5.1565e-05
0.000299524
-5.03163e-05
0.000319854
-4.89764e-05
0.00033965
-4.75483e-05
0.000358883
-4.60323e-05
0.00037752
-4.44265e-05
0.000395531
-4.2735e-05
0.000412898
-4.09639e-05
0.000429588
-3.91037e-05
0.000445568
-3.71585e-05
0.00046081
-3.51443e-05
0.00047529
-3.30486e-05
0.000488985
-3.08754e-05
0.000501866
-2.86333e-05
0.000513908
-2.63263e-05
0.000525094
-2.39653e-05
0.000535416
-2.15527e-05
0.000544858
-1.90928e-05
0.000553413
-1.65892e-05
0.000561071
-1.40426e-05
0.000567828
-1.14652e-05
0.000573693
-8.87055e-06
0.000578678
-6.26164e-06
0.000582795
-3.65726e-06
0.000586035
-1.02006e-06
0.000588345
1.60626e-06
0.000589746
4.13716e-06
0.000590154
6.65839e-06
0.000589525
9.14209e-06
0.000587839
1.15808e-05
0.000585094
1.39874e-05
0.000581315
1.6369e-05
0.000576528
1.87375e-05
0.000570747
2.10923e-05
0.000563932
2.34336e-05
0.000555977
2.57382e-05
0.000546748
2.79657e-05
0.000536121
3.00861e-05
0.000524027
3.20736e-05
0.000510474
3.39329e-05
0.000495535
3.56889e-05
0.000479324
3.73636e-05
0.000461935
3.89923e-05
0.000443458
4.05638e-05
0.000423951
4.20853e-05
0.000403456
4.35537e-05
0.000382016
4.49582e-05
0.000359678
4.62908e-05
0.000336491
4.75509e-05
0.000312506
4.87354e-05
0.000287769
4.98479e-05
0.000262331
5.08797e-05
0.00023625
5.18266e-05
0.000209587
5.26855e-05
0.000182385
5.34687e-05
0.00015471
5.41565e-05
0.00012662
5.47577e-05
9.81729e-05
5.52727e-05
6.94302e-05
5.56951e-05
4.04505e-05
5.60267e-05
1.12942e-05
5.6266e-05
-1.79782e-05
5.64135e-05
-4.73041e-05
5.64675e-05
-7.66258e-05
5.64255e-05
-0.000105877
5.62865e-05
-0.000134985
5.60569e-05
-0.000163891
5.57291e-05
-0.00019253
5.53247e-05
-0.000220817
5.48259e-05
-0.000248708
5.42625e-05
-0.000276105
5.35965e-05
-0.000302966
5.28847e-05
-0.000329214
5.2118e-05
-0.000354816
5.12889e-05
-0.000379709
5.04052e-05
-0.000403851
4.94739e-05
-0.000427157
4.85022e-05
-0.000449608
4.74903e-05
-0.000471146
4.64417e-05
-0.000491706
4.53667e-05
-0.000511246
4.42618e-05
-0.000529693
4.31393e-05
-0.000546977
4.20045e-05
-0.000563018
4.08523e-05
-0.000577718
3.96964e-05
-0.000590927
3.85146e-05
-0.000602436
3.73364e-05
-0.000612095
3.60627e-05
-0.000619917
3.46324e-05
-0.000626005
3.29312e-05
-0.000630536
3.08543e-05
-0.00063359
2.8385e-05
-0.000635198
2.55605e-05
-0.000635419
2.24812e-05
-0.000634223
1.91946e-05
-0.000631613
1.58237e-05
-0.000627684
1.24097e-05
-0.000622457
8.96715e-06
-0.000616043
5.56032e-06
-0.000608574
2.22658e-06
-0.00060018
-1.01923e-06
-0.000590742
-4.40733e-06
-0.000580418
-7.6589e-06
-0.00056933
-1.08256e-05
-0.000557521
-1.38566e-05
-0.000545068
-1.67819e-05
-0.000532006
-1.95618e-05
-0.000518351
-2.22005e-05
-0.000504135
-2.46414e-05
-0.000489407
-2.69262e-05
-0.000474209
-2.90517e-05
-0.000458586
-3.10497e-05
-0.000442627
-3.28943e-05
-0.000426367
-3.46426e-05
-0.000409841
-3.63022e-05
-0.000393089
-3.78781e-05
-0.000376143
-3.9368e-05
-0.000359047
-4.07789e-05
-0.00034184
-4.21079e-05
-0.000324561
-4.33486e-05
-0.000307242
-4.45257e-05
-0.000289905
-4.56451e-05
-0.000272606
-4.668e-05
-0.000255289
-4.77143e-05
-0.000237992
-4.86522e-05
-0.00022077
-4.95052e-05
-0.000203572
-5.03377e-05
-0.000186432
-5.11051e-05
-0.00016933
-5.18269e-05
-0.000152302
-5.25002e-05
-0.000135344
-5.31447e-05
-0.000118439
-5.37336e-05
-0.00010169
-5.42428e-05
-8.50671e-05
-5.46466e-05
-6.90595e-05
-5.49105e-05
-5.32252e-05
-5.51724e-05
-3.64304e-05
-5.73811e-05
-1.51643e-05
-6.1096e-05
-5.02149e-05
2.23249e-05
-7.00458e-05
5.44417e-05
-0.000100448
8.45773e-05
-9.34583e-05
0.000111655
-8.57282e-05
0.000137827
-8.3579e-05
0.000163925
-8.29857e-05
0.000189931
-8.24804e-05
0.000215677
-8.13834e-05
0.000241038
-8.01635e-05
0.000265976
-7.87302e-05
0.000290434
-7.71861e-05
0.000314385
-7.55158e-05
0.000337774
-7.37059e-05
0.000360562
-7.17644e-05
0.000382705
-6.96911e-05
0.000404161
-6.74882e-05
0.000424895
-6.51605e-05
0.000444866
-6.27061e-05
0.000464034
-6.01319e-05
0.000482368
-5.74369e-05
0.000499827
-5.46175e-05
0.000516373
-5.16908e-05
0.000531991
-4.86665e-05
0.00054665
-4.55341e-05
0.000560316
-4.22994e-05
0.00057297
-3.89804e-05
0.000584586
-3.55815e-05
0.000595136
-3.21024e-05
0.000604596
-2.85531e-05
0.000612957
-2.49506e-05
0.000620202
-2.12875e-05
0.000626316
-1.75792e-05
0.000631281
-1.3835e-05
0.000635075
-1.00558e-05
0.00063767
-6.25191e-06
0.000639106
-2.456e-06
0.000639468
1.24354e-06
0.00063853
5.07582e-06
0.000636341
8.84699e-06
0.000632908
1.25751e-05
0.000628242
1.62465e-05
0.000622359
1.98705e-05
0.000615291
2.34369e-05
0.000607077
2.69519e-05
0.000597752
3.0417e-05
0.000587348
3.38379e-05
0.000575869
3.72173e-05
0.000563299
4.05357e-05
0.000549614
4.37711e-05
0.000534795
4.6892e-05
0.000518847
4.98816e-05
0.000501802
5.27341e-05
0.000483709
5.54561e-05
0.000464641
5.80601e-05
0.000444644
6.05614e-05
0.00042377
6.29588e-05
0.000402063
6.52607e-05
0.000379567
6.74543e-05
0.000356321
6.95367e-05
0.000332365
7.15066e-05
0.000307743
7.3358e-05
0.000282499
7.50915e-05
0.000256679
7.66999e-05
0.00023034
7.81651e-05
0.000203518
7.95078e-05
0.00017626
8.07269e-05
0.000148626
8.179e-05
0.000120662
8.27224e-05
9.24157e-05
8.35187e-05
6.39511e-05
8.41597e-05
3.53085e-05
8.46693e-05
6.55167e-06
8.50229e-05
-2.2268e-05
8.52331e-05
-5.11088e-05
8.53083e-05
-7.98945e-05
8.52111e-05
-0.000108585
8.49772e-05
-0.000137131
8.46025e-05
-0.000165467
8.40651e-05
-0.000193512
8.33697e-05
-0.000221235
8.25492e-05
-0.00024856
8.15878e-05
-0.000275475
8.05108e-05
-0.000301876
7.92861e-05
-0.000327694
7.7936e-05
-0.000352908
7.65031e-05
-0.000377447
7.49444e-05
-0.000401266
7.32924e-05
-0.000424288
7.15245e-05
-0.000446498
6.97006e-05
-0.000467826
6.77692e-05
-0.000488217
6.57581e-05
-0.000507647
6.36916e-05
-0.000526051
6.15426e-05
-0.000543361
5.93147e-05
-0.000559548
5.70396e-05
-0.000574523
5.46711e-05
-0.000588231
5.22227e-05
-0.000600538
4.96439e-05
-0.000611371
4.68952e-05
-0.000620706
4.39675e-05
-0.000628621
4.08462e-05
-0.000635237
3.74708e-05
-0.000640676
3.3824e-05
-0.000645066
2.99502e-05
-0.00064845
2.5865e-05
-0.000650875
2.162e-05
-0.000652356
1.73047e-05
-0.000652892
1.2945e-05
-0.000652465
8.54098e-06
-0.000651024
4.11867e-06
-0.000648346
-4.51498e-07
-0.000644603
-4.76229e-06
-0.000639895
-9.11494e-06
-0.000634124
-1.34296e-05
-0.000627261
-1.76892e-05
-0.000619266
-2.18512e-05
-0.000610153
-2.58953e-05
-0.000599909
-2.98053e-05
-0.000588536
-3.35735e-05
-0.000576037
-3.71408e-05
-0.000562443
-4.05204e-05
-0.000547801
-4.36932e-05
-0.000532197
-4.6654e-05
-0.000515652
-4.94391e-05
-0.000498252
-5.20422e-05
-0.000480074
-5.44805e-05
-0.000461205
-5.67473e-05
-0.000441758
-5.88152e-05
-0.000421811
-6.07255e-05
-0.000401448
-6.24706e-05
-0.000380736
-6.40611e-05
-0.000359768
-6.54935e-05
-0.000338648
-6.67648e-05
-0.000317436
-6.78923e-05
-0.000296263
-6.8887e-05
-0.00027517
-6.97458e-05
-0.000254165
-7.051e-05
-0.000233352
-7.115e-05
-0.000212761
-7.16966e-05
-0.00019243
-7.21582e-05
-0.000172365
-7.25649e-05
-0.00015261
-7.28998e-05
-0.000133158
-7.31854e-05
-0.00011404
-7.33606e-05
-9.534e-05
-7.33467e-05
-7.73541e-05
-7.28965e-05
-5.93754e-05
-7.31511e-05
-3.96835e-05
-7.7073e-05
-1.51253e-05
-8.56541e-05
-6.53402e-05
2.39452e-05
-9.3991e-05
5.91546e-05
-0.000135657
9.22766e-05
-0.00012658
0.000122341
-0.000115793
0.000151257
-0.000112495
0.000179978
-0.000111706
0.00020844
-0.000110943
0.000236581
-0.000109524
0.000264189
-0.000107772
0.00029125
-0.000105791
0.000317695
-0.000103632
0.000343492
-0.000101312
0.000368585
-9.87989e-05
0.000392924
-9.61037e-05
0.000416471
-9.32381e-05
0.000439182
-9.0199e-05
0.00046101
-8.69883e-05
0.000481921
-8.36172e-05
0.000501879
-8.00905e-05
0.000520851
-7.64085e-05
0.000538812
-7.25788e-05
0.000555729
-6.86079e-05
0.000571566
-6.45035e-05
0.000586308
-6.02757e-05
0.000599941
-5.5932e-05
0.000612446
-5.14856e-05
0.000623804
-4.69395e-05
0.000633999
-4.22975e-05
0.00064302
-3.75738e-05
0.000650849
-3.27801e-05
0.000657483
-2.79208e-05
0.000662914
-2.30106e-05
0.000667135
-1.80559e-05
0.000670152
-1.30725e-05
0.000671974
-8.07434e-06
0.000672585
-3.06702e-06
0.000671807
2.02185e-06
0.000669893
6.98956e-06
0.000666784
1.19556e-05
0.00066247
1.68895e-05
0.000656939
2.17771e-05
0.0006502
2.66097e-05
0.000642255
3.13823e-05
0.000633113
3.60937e-05
0.000622793
4.0737e-05
0.000611331
4.53002e-05
0.000598772
4.9776e-05
0.000585161
5.4147e-05
0.000570525
5.84072e-05
0.000554887
6.253e-05
0.000538252
6.65161e-05
0.000520633
7.03529e-05
0.000502047
7.40429e-05
0.00048252
7.75872e-05
0.000462083
8.09982e-05
0.000440792
8.42492e-05
0.000418678
8.73748e-05
0.0003958
9.03323e-05
0.000372195
9.31419e-05
0.000347908
9.57936e-05
0.000322982
9.82834e-05
0.000297466
0.000100608
0.000271398
0.000102768
0.000244825
0.000104738
0.000217799
0.000106534
0.000190376
0.00010815
0.000162581
0.000109585
0.000134483
0.000110821
0.000106115
0.000111887
7.75422e-05
0.000112732
4.87983e-05
0.000113413
1.99502e-05
0.000113871
-8.96634e-06
0.00011415
-3.78858e-05
0.000114228
-6.67776e-05
0.000114103
-9.55878e-05
0.000113787
-0.000124258
0.000113273
-0.000152742
0.000112548
-0.000181026
0.000111654
-0.000209029
0.000110552
-0.000236709
0.000109268
-0.000263993
0.000107794
-0.000290848
0.000106142
-0.000317259
0.000104347
-0.000343129
0.000102373
-0.000368414
0.000100229
-0.00039306
9.79391e-05
-0.000417064
9.55287e-05
-0.000440316
9.29522e-05
-0.000462796
9.02489e-05
-0.000484434
8.73966e-05
-0.000505179
8.44361e-05
-0.000525002
8.13659e-05
-0.000543817
7.81301e-05
-0.000561579
7.48013e-05
-0.000578229
7.13211e-05
-0.000593753
6.77469e-05
-0.000608105
6.39959e-05
-0.000621305
6.00953e-05
-0.000633358
5.60207e-05
-0.000644244
5.17322e-05
-0.000654007
4.72337e-05
-0.000662718
4.25347e-05
-0.000670391
3.7623e-05
-0.000677059
3.25328e-05
-0.000682723
2.72838e-05
-0.000687329
2.19113e-05
-0.000690834
1.64499e-05
-0.00069322
1.09267e-05
-0.000694479
5.3777e-06
-0.000694885
-4.57069e-08
-0.000694025
-5.62225e-06
-0.000691992
-1.11475e-05
-0.000688792
-1.66297e-05
-0.000684477
-2.20038e-05
-0.000679041
-2.72874e-05
-0.000672463
-3.24739e-05
-0.000664735
-3.75328e-05
-0.000655904
-4.24043e-05
-0.000645918
-4.71272e-05
-0.000634759
-5.16796e-05
-0.000622429
-5.60226e-05
-0.000608946
-6.01374e-05
-0.000594324
-6.40611e-05
-0.000578602
-6.77642e-05
-0.000561847
-7.12358e-05
-0.00054412
-7.44737e-05
-0.000525441
-7.74945e-05
-0.000505818
-8.03484e-05
-0.000485367
-8.29216e-05
-0.000464147
-8.52815e-05
-0.000442232
-8.74083e-05
-0.000419709
-8.92875e-05
-0.000396648
-9.09539e-05
-0.000373127
-9.24077e-05
-0.000349186
-9.36863e-05
-0.000324948
-9.47487e-05
-0.000300455
-9.56428e-05
-0.000275787
-9.63645e-05
-0.000250998
-9.69472e-05
-0.000226145
-9.74183e-05
-0.000201263
-9.7782e-05
-0.000176406
-9.8042e-05
-0.000151612
-9.81541e-05
-0.00012705
-9.7909e-05
-0.000102823
-9.71235e-05
-7.81478e-05
-9.78265e-05
-5.07745e-05
-0.000104446
-2.01067e-05
-0.000116322
-8.54469e-05
2.45498e-05
-0.000118541
6.08041e-05
-0.000171912
9.4873e-05
-0.000160649
0.000125935
-0.000146855
0.00015589
-0.00014245
0.000185494
-0.00014131
0.000214802
-0.000140251
0.000243674
-0.000138395
0.000271988
-0.000136086
0.000299692
-0.000133495
0.000326737
-0.000130677
0.000353065
-0.00012764
0.00037863
-0.000124364
0.000403393
-0.000120866
0.0004273
-0.000117145
0.000450313
-0.000113211
0.000472398
-0.000109074
0.000493516
-0.000104735
0.000513636
-0.00010021
0.000532723
-9.54956e-05
0.000550758
-9.06136e-05
0.000567713
-8.55633e-05
0.000583571
-8.03612e-05
0.000598313
-7.50182e-05
0.000611916
-6.95352e-05
0.000624362
-6.39314e-05
0.00063563
-5.82071e-05
0.000645712
-5.23797e-05
0.000654602
-4.64642e-05
0.000662279
-4.04571e-05
0.000668747
-3.43887e-05
0.00067399
-2.82539e-05
0.00067802
-2.20851e-05
0.000680822
-1.58747e-05
0.000682385
-9.63707e-06
0.000682702
-3.38441e-06
0.00068192
2.80413e-06
0.000679883
9.02588e-06
0.000676631
1.52077e-05
0.000672173
2.13476e-05
0.000666518
2.74325e-05
0.000659683
3.34441e-05
0.00065168
3.93854e-05
0.000642526
4.52479e-05
0.000632237
5.10262e-05
0.000620836
5.67011e-05
0.000608342
6.22698e-05
0.000594778
6.77114e-05
0.000580156
7.30287e-05
0.000564504
7.81825e-05
0.00054783
8.31902e-05
0.000530157
8.80254e-05
0.000511514
9.26861e-05
0.000491929
9.71718e-05
0.000471445
0.000101482
0.000450089
0.000105606
0.000427916
0.000109548
0.000404951
0.000113298
0.000381244
0.000116849
0.000356837
0.0001202
0.000331776
0.000123345
0.000306105
0.000126278
0.000279873
0.000129
0.000253117
0.000131495
0.000225891
0.000133759
0.000198241
0.0001358
0.000170202
0.000137624
0.000141845
0.000139177
0.000113207
0.000140524
8.43358e-05
0.000141604
5.52796e-05
0.000142469
2.60939e-05
0.000143057
-3.18717e-06
0.000143431
-3.24879e-05
0.000143529
-6.17777e-05
0.000143393
-9.10202e-05
0.00014303
-0.000120128
0.000142381
-0.000149085
0.000141505
-0.000177824
0.000140394
-0.000206323
0.000139051
-0.0002345
0.000137445
-0.000262324
0.000135618
-0.000289749
0.000133567
-0.000316715
0.000131313
-0.000343159
0.000128817
-0.000369043
0.000126113
-0.000394317
0.000123212
-0.000418914
0.000120126
-0.00044278
0.000116819
-0.000465878
0.000113347
-0.000488161
0.000109679
-0.000509562
0.000105837
-0.000530011
0.000101815
-0.000549518
9.76374e-05
-0.000567995
9.32784e-05
-0.000585428
8.87539e-05
-0.000601707
8.4026e-05
-0.000616863
7.91517e-05
-0.000630834
7.40662e-05
-0.000643608
6.87943e-05
-0.000655203
6.33274e-05
-0.000665627
5.76581e-05
-0.000674887
5.17941e-05
-0.000682991
4.57276e-05
-0.000689956
3.94975e-05
-0.000695823
3.31511e-05
-0.000700581
2.66686e-05
-0.00070427
2.01388e-05
-0.0007069
1.35565e-05
-0.000708469
6.94757e-06
-0.000708759
2.43397e-07
-0.000707996
-6.38451e-06
-0.000706198
-1.2946e-05
-0.00070336
-1.94673e-05
-0.000699451
-2.59128e-05
-0.000694464
-3.22745e-05
-0.000688438
-3.84996e-05
-0.000681374
-4.45974e-05
-0.000673245
-5.05328e-05
-0.000664079
-5.62934e-05
-0.000653897
-6.18613e-05
-0.000642655
-6.7265e-05
-0.000630353
-7.24395e-05
-0.000617056
-7.7358e-05
-0.000602746
-8.20744e-05
-0.000587417
-8.65649e-05
-0.00057108
-9.08106e-05
-0.000553756
-9.48181e-05
-0.000535552
-9.85518e-05
-0.00051641
-0.000102064
-0.00049636
-0.000105332
-0.000475446
-0.000108322
-0.000453701
-0.000111032
-0.000431153
-0.000113502
-0.000407851
-0.000115709
-0.000383884
-0.000117653
-0.000359277
-0.000119356
-0.000334059
-0.00012086
-0.000308295
-0.000122129
-0.000282051
-0.000123192
-0.000255368
-0.000124101
-0.00022831
-0.00012484
-0.000200909
-0.000125443
-0.000173238
-0.000125825
-0.000145463
-0.000125684
-0.000117564
-0.000125022
-8.87781e-05
-0.000126613
-5.73182e-05
-0.000135906
-2.36171e-05
-0.000150023
-0.000109064
2.50532e-05
-0.000143594
6.17819e-05
-0.00020864
9.62808e-05
-0.000195148
0.000127733
-0.000178308
0.000158099
-0.000172816
0.000188092
-0.000171303
0.000217798
-0.000169957
0.000247032
-0.000167629
0.000275704
-0.000164758
0.000303757
-0.000161548
0.000331134
-0.000158054
0.00035779
-0.000154296
0.000383674
-0.000150248
0.000408745
-0.000145937
0.000432955
-0.000141356
0.000456273
-0.000136529
0.00047865
-0.00013145
0.000500058
-0.000126144
0.000520463
-0.000120614
0.000539837
-0.00011487
0.000558151
-0.000108928
0.000575382
-0.000102794
0.000591504
-9.64835e-05
0.000606492
-9.00064e-05
0.000620335
-8.33776e-05
0.000633007
-7.66034e-05
0.000644496
-6.96961e-05
0.000654788
-6.26722e-05
0.000663865
-5.55409e-05
0.000671734
-4.83259e-05
0.000678373
-4.10278e-05
0.000683788
-3.36695e-05
0.000687954
-2.62505e-05
0.000690886
-1.88069e-05
0.000692593
-1.13436e-05
0.000693082
-3.8737e-06
0.000692246
3.63952e-06
0.000690196
1.1076e-05
0.000686923
1.84813e-05
0.000682416
2.58547e-05
0.00067669
3.31586e-05
0.000669745
4.03883e-05
0.000661603
4.75278e-05
0.000652277
5.45741e-05
0.000641792
6.15107e-05
0.000630165
6.83284e-05
0.000617423
7.50114e-05
0.00060358
8.15545e-05
0.000588682
8.79266e-05
0.000572731
9.41341e-05
0.000555765
0.000100156
0.000537791
0.000106
0.000518852
0.000111625
0.000498964
0.000117059
0.000478173
0.000122273
0.000456511
0.000127268
0.000434015
0.000132044
0.00041072
0.000136592
0.000386681
0.000140888
0.000361933
0.000144948
0.000336519
0.000148759
0.000310484
0.000152313
0.000283875
0.00015561
0.000256727
0.000158643
0.000229102
0.000161384
0.000201042
0.00016386
0.000172589
0.000166077
0.000143798
0.000167969
0.000114724
0.000169599
8.53977e-05
0.00017093
5.58949e-05
0.000171972
2.62387e-05
0.000172713
-3.51424e-06
0.000173184
-3.32969e-05
0.000173311
-6.30743e-05
0.00017317
-9.27833e-05
0.000172739
-0.000122384
0.000171982
-0.000151827
0.000170947
-0.00018106
0.000169628
-0.00021001
0.000168001
-0.00023865
0.000166085
-0.000266925
0.000163892
-0.000294781
0.000161423
-0.000322166
0.000158698
-0.000349008
0.000155659
-0.000375276
0.000152381
-0.000400905
0.000148842
-0.000425842
0.000145063
-0.000450041
0.000141018
-0.000473441
0.000136747
-0.000495995
0.000132233
-0.00051765
0.000127492
-0.000538362
0.000122528
-0.000558073
0.000117348
-0.000576753
0.000111959
-0.000594356
0.000106356
-0.000610813
0.000100483
-0.000626116
9.44548e-05
-0.000640277
8.82272e-05
-0.000653233
8.17495e-05
-0.000664993
7.50881e-05
-0.000675566
6.82307e-05
-0.000684936
6.11641e-05
-0.000693157
5.39493e-05
-0.000700236
4.65764e-05
-0.000706143
3.90579e-05
-0.000710929
3.14543e-05
-0.000714537
2.37475e-05
-0.000716977
1.59959e-05
-0.000718227
8.1981e-06
-0.000718468
4.84285e-07
-0.000717597
-7.25587e-06
-0.000715542
-1.50005e-05
-0.000712374
-2.26358e-05
-0.000708088
-3.01985e-05
-0.000702714
-3.76489e-05
-0.000696264
-4.49487e-05
-0.000688763
-5.2099e-05
-0.000680202
-5.90934e-05
-0.000670599
-6.58962e-05
-0.000659972
-7.24885e-05
-0.000648399
-7.88379e-05
-0.000635821
-8.5018e-05
-0.000622259
-9.09199e-05
-0.000607743
-9.65901e-05
-0.000592319
-0.000101989
-0.000575984
-0.000107146
-0.00055876
-0.000112043
-0.000540647
-0.000116665
-0.0005217
-0.000121011
-0.0005019
-0.000125132
-0.00048131
-0.000128912
-0.000459883
-0.000132459
-0.000437715
-0.00013567
-0.00041479
-0.000138635
-0.000391091
-0.000141351
-0.000366685
-0.000143763
-0.000341626
-0.000145919
-0.000315895
-0.00014786
-0.000289566
-0.000149521
-0.000262699
-0.000150968
-0.000235283
-0.000152256
-0.000207385
-0.000153342
-0.000179065
-0.000154145
-0.000150427
-0.000154322
-0.000121514
-0.000153934
-9.17371e-05
-0.00015639
-5.95892e-05
-0.000168054
-2.5288e-05
-0.000184324
-0.000134352
2.56439e-05
-0.000169238
6.30609e-05
-0.000246057
9.82471e-05
-0.000230334
0.000130284
-0.000210345
0.000161146
-0.000203678
0.000191638
-0.000201795
0.000221857
-0.000200176
0.000251603
-0.000197376
0.000280793
-0.000193947
0.000309346
-0.000190101
0.000337216
-0.000185923
0.000364351
-0.000181431
0.000390712
-0.000176609
0.000416244
-0.000171469
0.00044091
-0.000166023
0.000464669
-0.000160288
0.000487484
-0.000154266
0.000509319
-0.000147978
0.000530134
-0.00014143
0.000549907
-0.000134642
0.000568602
-0.000127623
0.000586195
-0.000120387
0.000602662
-0.000112951
0.000617985
-0.000105329
0.000632141
-9.75337e-05
0.000645104
-8.95663e-05
0.000656865
-8.14575e-05
0.000667409
-7.32158e-05
0.000676722
-6.48538e-05
0.000684786
-5.63905e-05
0.000691596
-4.78373e-05
0.000697137
-3.92112e-05
0.000701423
-3.05356e-05
0.000704431
-2.18153e-05
0.000706166
-1.30786e-05
0.000706606
-4.31424e-06
0.000705813
4.43287e-06
0.000703736
1.31527e-05
0.000700388
2.18298e-05
0.00069579
3.04526e-05
0.000689948
3.90011e-05
0.000682863
4.74731e-05
0.000674552
5.58388e-05
0.00066504
6.40855e-05
0.00065434
7.22113e-05
0.000642471
8.01975e-05
0.000629455
8.80269e-05
0.000615321
9.56882e-05
0.000600083
0.000103165
0.00058377
0.000110447
0.000566406
0.00011752
0.000548023
0.000124383
0.000528649
0.000130999
0.000508321
0.000137387
0.000487068
0.000143526
0.000464932
0.000149404
0.000441948
0.000155028
0.000418169
0.000160371
0.000393622
0.000165434
0.000368357
0.000170214
0.000342416
0.000174699
0.000315848
0.000178881
0.000288699
0.000182758
0.000261002
0.00018634
0.000232819
0.000189567
0.000204196
0.000192483
0.000175195
0.000195078
0.000145833
0.000197331
0.000116185
0.000199247
8.6283e-05
0.000200831
5.61989e-05
0.000202056
2.59642e-05
0.000202948
-4.33856e-06
0.000203486
-3.46964e-05
0.000203669
-6.50523e-05
0.000203526
-9.5318e-05
0.000203005
-0.000125472
0.000202136
-0.000155459
0.000200935
-0.000185231
0.0001994
-0.000214706
0.000197476
-0.000243857
0.000195237
-0.000272627
0.000192662
-0.000300967
0.000189762
-0.000328807
0.000186538
-0.000356097
0.000182949
-0.000382793
0.000179078
-0.000408839
0.000174887
-0.000434177
0.000170401
-0.000458761
0.000165601
-0.000482535
0.000160521
-0.000505455
0.000155153
-0.000527458
0.000149495
-0.000548517
0.000143586
-0.000568566
0.000137397
-0.000587565
0.000130958
-0.000605479
0.000124271
-0.000622316
0.00011732
-0.000637991
0.00011013
-0.000652476
0.000102713
-0.000665807
9.50801e-05
-0.000677927
8.72085e-05
-0.000688809
7.91122e-05
-0.000698514
7.08691e-05
-0.000707007
6.24427e-05
-0.000714287
5.38563e-05
-0.000720328
4.50992e-05
-0.000725162
3.62878e-05
-0.000728792
2.73783e-05
-0.000731254
1.84571e-05
-0.000732531
9.47513e-06
-0.000732555
5.08159e-07
-0.000731351
-8.45979e-06
-0.000729008
-1.73435e-05
-0.00072549
-2.6153e-05
-0.000720803
-3.48858e-05
-0.000714993
-4.34586e-05
-0.000708051
-5.18913e-05
-0.000700005
-6.01452e-05
-0.000690861
-6.82369e-05
-0.000680641
-7.61162e-05
-0.000669365
-8.3765e-05
-0.000657027
-9.11753e-05
-0.000643751
-9.82946e-05
-0.000629486
-0.000105184
-0.000614268
-0.000111809
-0.000598101
-0.000118155
-0.000581037
-0.00012421
-0.000563115
-0.000129965
-0.000544348
-0.000135431
-0.00052476
-0.000140599
-0.000504425
-0.000145467
-0.000483315
-0.000150022
-0.00046148
-0.000154295
-0.000438898
-0.000158252
-0.000415607
-0.000161926
-0.000391684
-0.000165275
-0.000367075
-0.000168371
-0.000341844
-0.00017115
-0.000316013
-0.000173691
-0.000289631
-0.000175903
-0.000262674
-0.000177925
-0.000235254
-0.000179676
-0.000207337
-0.000181259
-0.000178992
-0.000182489
-0.000150313
-0.000183002
-0.000121408
-0.000182839
-9.18386e-05
-0.00018596
-6.01449e-05
-0.000199748
-2.59019e-05
-0.000218567
-0.000160254
2.62877e-05
-0.000195526
6.46952e-05
-0.000284465
0.000100888
-0.000266527
0.000133781
-0.000243238
0.000165358
-0.000235255
0.000196556
-0.000232994
0.000227465
-0.000231084
0.000257915
-0.000227826
0.000287778
-0.00022381
0.000316992
-0.000219315
0.000345501
-0.000214433
0.000373259
-0.000209189
0.000400226
-0.000203576
0.000426347
-0.00019759
0.00045158
-0.000191256
0.000475885
-0.000184592
0.000499221
-0.000177602
0.000521554
-0.000170312
0.000542848
-0.000162724
0.000563068
-0.000154862
0.000582195
-0.000146749
0.000600193
-0.000138385
0.00061704
-0.000129798
0.000632712
-0.000121
0.000647179
-0.000112001
0.000660434
-0.000102822
0.000672456
-9.34793e-05
0.000683228
-8.39883e-05
0.000692741
-7.43667e-05
0.000700977
-6.46265e-05
0.000707931
-5.4791e-05
0.000713596
-4.48767e-05
0.000717963
-3.49026e-05
0.000721026
-2.48784e-05
0.000722778
-1.483e-05
0.000723239
-4.77574e-06
0.000722391
5.28074e-06
0.000720238
1.53062e-05
0.000716793
2.52741e-05
0.000712067
3.51794e-05
0.000706057
4.50109e-05
0.000698784
5.47462e-05
0.000690256
6.43661e-05
0.000680492
7.38496e-05
0.000669515
8.31888e-05
0.000657343
9.23691e-05
0.000643997
0.000101373
0.000629498
0.000110188
0.000613878
0.000118785
0.000597159
0.000127166
0.000579371
0.000135307
0.000560544
0.000143211
0.000540709
0.000150833
0.000519902
0.000158195
0.000498143
0.000165285
0.000475497
0.00017205
0.000451977
0.000178548
0.000427651
0.000184697
0.000402545
0.000190541
0.000376705
0.000196054
0.000350177
0.000201228
0.000323005
0.000206053
0.00029524
0.000210523
0.000266942
0.000214638
0.000238114
0.000218396
0.000208855
0.000221742
0.000179201
0.000224732
0.000149178
0.000227354
0.000118878
0.000229547
8.83102e-05
0.000231399
5.75674e-05
0.000232799
2.66562e-05
0.000233859
-4.31721e-06
0.00023446
-3.53372e-05
0.000234689
-6.63499e-05
0.000234538
-9.72731e-05
0.000233928
-0.000128092
0.000232955
-0.000158743
0.000231586
-0.000189138
0.000229794
-0.00021926
0.000227598
-0.000249043
0.00022502
-0.000278435
0.000222054
-0.00030739
0.000218718
-0.000335819
0.000214967
-0.000363689
0.00021082
-0.000390937
0.000206325
-0.000417536
0.000201487
-0.000443439
0.000196304
-0.000468577
0.000190739
-0.000492862
0.000184806
-0.000516298
0.000178588
-0.000538831
0.000172029
-0.000560376
0.000165132
-0.000580924
0.000157944
-0.000600399
0.000150433
-0.000618776
0.000142648
-0.000636045
0.000134589
-0.000652158
0.000126243
-0.000667082
0.000117637
-0.000680785
0.000108783
-0.000693289
9.97126e-05
-0.000704571
9.03941e-05
-0.000714602
8.09003e-05
-0.000723371
7.12108e-05
-0.000730878
6.13638e-05
-0.000737176
5.13969e-05
-0.000742209
4.13211e-05
-0.000745965
3.11337e-05
-0.000748434
2.09264e-05
-0.000749677
1.07182e-05
-0.000749661
4.91993e-07
-0.00074844
-9.68007e-06
-0.000745962
-1.98216e-05
-0.000742251
-2.98644e-05
-0.000737329
-3.98076e-05
-0.000731197
-4.95907e-05
-0.000723883
-5.92058e-05
-0.000715387
-6.86409e-05
-0.000705757
-7.78666e-05
-0.000695038
-8.68354e-05
-0.00068322
-9.55837e-05
-0.000670344
-0.000104051
-0.000656394
-0.000112245
-0.000641428
-0.00012015
-0.00062548
-0.000127757
-0.000608592
-0.000135043
-0.000590788
-0.000142014
-0.000572092