/*--------------------------------*- C++ -*----------------------------------*\
| =========                 |                                                 |
| \\      /  F ield         | OpenFOAM: The Open Source CFD Toolbox           |
|  \\    /   O peration     | Version:  v2006                                 |
|   \\  /    A nd           | Website:  www.openfoam.com                      |
|    \\/     M anipulation  |                                                 |
\*---------------------------------------------------------------------------*/
FoamFile
{
    version     2.0;
    format      ascii;
    class       volScalarField;
    location    "4.25";
    object      r;
}
// * * * * * * * * * * * * * * * * * * * * * * * * * * * * * * * * * * * * * //

dimensions      [1 2 0 0 0 0 0];


internalField   nonuniform List<scalar> 
350
(
-5.17617e-182
8.10768e-179
-8.55292e-176
-5.45176e-173
6.50125e-169
-2.6299e-165
7.72191e-162
-2.13091e-158
4.86443e-155
-1.19254e-151
2.15342e-148
-5.37052e-145
5.64104e-142
-2.19293e-138
-1.37615e-135
-1.10278e-131
-3.68924e-128
-9.21601e-125
-4.10806e-121
-9.89383e-118
-3.93251e-114
-1.03958e-110
-3.5821e-107
-1.0046e-103
-3.13517e-100
-8.91572e-97
-2.60359e-93
-7.28545e-90
-2.02086e-86
-5.4669e-83
-1.44546e-79
-3.73813e-76
-9.39078e-73
-2.30054e-69
-5.45057e-66
-1.25224e-62
-2.76774e-59
-5.8856e-56
-1.19482e-52
-2.30821e-49
-4.20559e-46
-7.17116e-43
-1.12995e-39
-1.6192e-36
-2.0621e-33
-2.25152e-30
-1.99398e-27
-1.2607e-24
-4.24389e-22
4.12178e-20
-2.95736e-19
7.92388e-19
-3.15668e-18
1.1658e-17
-5.84191e-17
2.04856e-16
-4.71496e-16
7.20365e-16
-6.48767e-16
-1.43098e-15
8.10736e-15
-1.63146e-14
2.10582e-14
-2.69004e-14
3.65595e-14
-1.61967e-14
1.67285e-14
-2.69194e-14
1.68719e-14
1.21183e-14
-3.86755e-14
6.2414e-14
-3.10266e-13
8.97275e-13
-1.24241e-12
1.21113e-12
-2.17858e-12
2.40414e-12
-3.52016e-12
-1.161e-11
4.46976e-11
-6.74368e-11
1.17185e-10
-1.13047e-10
-6.2613e-11
3.37979e-10
-4.59384e-10
2.50334e-10
-2.14619e-12
1.60344e-10
-1.06605e-09
1.00452e-09
9.51235e-10
3.5714e-10
-2.18436e-09
1.53224e-09
-6.01482e-10
4.01991e-09
-1.34046e-08
4.24707e-09
8.60776e-09
-6.19831e-08
1.05221e-08
-4.79335e-08
-2.77219e-08
-6.05938e-08
2.91492e-07
-9.05078e-07
-7.80656e-07
1.19975e-06
-1.52632e-06
-5.94259e-07
-4.13488e-06
1.14129e-06
9.01864e-06
1.14529e-05
-7.32695e-06
-4.08585e-05
-1.73553e-05
4.11614e-05
-6.25309e-06
-7.53227e-05
-0.000197232
-3.22098e-05
0.000229762
3.09126e-05
-0.00124761
-0.00140298
0.00109627
0.0106375
0.0344999
0.0832386
0.170434
0.311666
0.522737
0.817393
1.20493
1.6882
2.26238
2.9149
3.62643
4.37284
5.12781
5.86548
6.56288
7.20174
7.76951
8.25956
8.67074
9.00639
9.27315
9.4797
9.63557
9.75028
9.83262
9.89029
9.9297
9.95599
9.9731
9.98396
9.99068
9.99473
9.99712
9.99846
9.99923
9.99959
9.99991
9.99995
10.0001
10.0002
10.0001
9.99975
10
10.0012
10.0014
9.99902
9.9897
9.96618
9.9179
9.83124
9.69057
9.47997
9.1856
8.79807
8.31448
7.73965
7.08621
6.3736
5.62606
4.87008
4.13163
3.43376
2.79477
2.22719
1.73757
1.32699
0.992002
0.725874
0.519877
0.364428
0.250011
0.167837
0.110233
0.0708104
0.0444695
0.027286
0.0163438
0.00954471
0.00542523
0.00299492
0.00159993
0.000824434
0.000401928
0.000186579
6.9805e-05
2.60774e-05
1.9885e-07
1.10375e-07
3.53803e-08
2.706e-08
1.75391e-08
1.00297e-08
5.04644e-09
2.3977e-09
6.96617e-10
2.65249e-10
1.30614e-11
1.08933e-11
8.22786e-12
5.78825e-12
3.82238e-12
2.35244e-12
1.32045e-12
6.24878e-13
2.10409e-13
-1.30828e-13
-1.8383e-13
-2.01871e-13
-1.96373e-13
-1.81298e-13
-1.63357e-13
-1.4526e-13
-1.27579e-13
-1.10088e-13
-9.25667e-14
-7.51074e-14
-5.81389e-14
-4.23014e-14
-2.83066e-14
-1.67696e-14
-8.16218e-15
-2.71049e-15
-8.93236e-17
5.54508e-16
-1.85511e-16
-2.5689e-15
-6.29021e-15
-1.06346e-14
-1.46451e-14
-1.75249e-14
-1.90203e-14
-1.93818e-14
-1.87256e-14
-1.6809e-14
-1.36799e-14
-9.56059e-15
-4.74143e-15
4.66729e-16
5.71536e-15
1.05819e-14
1.45852e-14
1.73548e-14
1.88287e-14
1.92406e-14
1.87521e-14
1.71791e-14
1.47057e-14
1.18418e-14
9.21144e-15
7.25877e-15
6.08843e-15
5.56174e-15
5.46604e-15
5.62944e-15
5.8608e-15
5.97523e-15
5.85048e-15
5.29209e-15
4.1574e-15
2.41993e-15
2.3686e-16
-2.10323e-15
-4.28644e-15
-6.0744e-15
-7.3626e-15
-8.1639e-15
-8.55018e-15
-8.61394e-15
-8.40426e-15
-7.96738e-15
-7.3845e-15
-6.73474e-15
-6.09352e-15
-5.50457e-15
-4.99486e-15
-4.57018e-15
-4.22356e-15
-3.94026e-15
-3.7009e-15
-3.48395e-15
-3.26757e-15
-3.03127e-15
-2.7579e-15
-2.43655e-15
-2.06491e-15
-1.65123e-15
-1.21339e-15
-7.75863e-16
-3.64716e-16
-2.79464e-18
2.93639e-16
5.16212e-16
6.63896e-16
7.41369e-16
7.57433e-16
7.22089e-16
6.46394e-16
5.43769e-16
4.26646e-16
3.06886e-16
1.93137e-16
9.16743e-17
6.10165e-18
-6.22255e-17
-1.13525e-16
-1.49234e-16
-1.71252e-16
-1.82058e-16
-1.83765e-16
-1.78718e-16
-1.68646e-16
-1.55289e-16
-1.39917e-16
-1.23599e-16
-1.0717e-16
-9.11895e-17
-7.61491e-17
-6.22893e-17
-4.98566e-17
-3.88676e-17
)
;

boundaryField
{
    right
    {
        type            zeroGradient;
    }
    left
    {
        type            inletOutlet;
        inletValue      uniform 0;
        value           uniform 0;
    }
    top
    {
        type            zeroGradient;
    }
    bottom
    {
        type            zeroGradient;
    }
    empty
    {
        type            empty;
    }
}


// ************************************************************************* //
