/*--------------------------------*- C++ -*----------------------------------*\
| =========                 |                                                 |
| \\      /  F ield         | OpenFOAM: The Open Source CFD Toolbox           |
|  \\    /   O peration     | Version:  v2006                                 |
|   \\  /    A nd           | Website:  www.openfoam.com                      |
|    \\/     M anipulation  |                                                 |
\*---------------------------------------------------------------------------*/
FoamFile
{
    version     2.0;
    format      ascii;
    class       volScalarField;
    location    "18.1";
    object      p;
}
// * * * * * * * * * * * * * * * * * * * * * * * * * * * * * * * * * * * * * //

dimensions      [1 -1 -2 0 0 0 0];


internalField   nonuniform List<scalar> 
52500
(
31945.2
31945.1
31945
31944.8
31944.5
31944.2
31943.8
31943.3
31942.7
31942.1
31941.4
31940.7
31939.8
31938.9
31938
31936.9
31935.8
31934.7
31933.4
31932.1
31930.7
31929.3
31927.7
31926.1
31924.5
31922.7
31920.9
31919
31917.1
31915
31912.9
31910.7
31908.4
31906.1
31903.7
31901.2
31898.6
31895.9
31893.1
31890.3
31887.4
31884.3
31881.2
31878.1
31874.8
31871.4
31867.9
31864.4
31860.7
31857
31853.1
31849.2
31845.1
31840.9
31836.7
31832.3
31827.8
31823.1
31818.4
31813.5
31808.5
31803.4
31798.2
31792.8
31787.3
31781.7
31775.9
31770
31763.9
31757.7
31751.4
31744.9
31738.3
31731.5
31724.6
31717.5
31710.3
31702.9
31695.3
31687.6
31679.7
31671.6
31663.4
31655
31646.5
31637.7
31628.8
31619.7
31610.5
31601
31591.4
31581.6
31571.6
31561.4
31551.1
31540.5
31529.8
31518.9
31507.8
31496.5
31485
31473.3
31461.5
31449.4
31437.2
31424.7
31412.1
31399.3
31386.3
31373.1
31359.7
31346.2
31332.4
31318.5
31304.4
31290.1
31275.6
31260.9
31246.1
31231
31215.9
31200.5
31184.9
31169.2
31153.4
31137.3
31121.1
31104.8
31088.3
31071.6
31054.8
31037.8
31020.7
31003.4
30986.1
30968.5
30950.9
30933.1
30915.2
30897.2
30879
30860.8
30842.4
30824
30805.4
30786.8
30768
30749.2
30730.3
30711.3
30692.2
30673.1
30653.9
30634.7
30615.4
30596.1
30576.8
30557.4
30538
30518.6
30499.1
30479.6
30460.1
30440.6
30421.1
30401.6
30382.1
30362.6
30343.2
30323.8
30304.4
30285.1
30265.8
30246.6
30227.5
30208.4
30189.3
30170.4
30151.5
30132.7
30114.1
30095.5
30077
30058.6
30040.4
30022.2
30004.2
29986.4
29968.6
29951
29933.6
29916.3
29899.1
29882.2
29865.4
29848.7
29832.3
29816
29799.9
29784
29768.3
29752.8
29737.6
29722.5
29707.6
29693
29678.5
29664.4
29650.4
29636.7
29623.2
29609.9
29596.9
29584.2
29571.7
29559.5
29547.5
29535.8
29524.3
29513.2
29502.3
29491.7
29481.3
29471.3
29461.5
29452
29442.9
29434
29425.4
29417
29409
29401.3
29393.9
29386.8
29380
29373.5
29367.2
29361.3
29355.7
29350.4
29345.4
29340.6
29336.2
29332.1
29328.2
29324.7
29321.4
29318.4
29315.7
29313.3
29311.2
29309.3
29307.7
29306.3
29305.3
29304.4
29303.9
29303.6
29303.5
29303.6
29304
29304.7
29305.5
29306.6
29307.8
29309.4
29311.1
29312.9
29315
29317.3
29319.7
29322.3
29325.1
29328
29331.1
29334.4
29337.7
29341.2
29344.8
29348.6
29352.5
29356.4
29360.5
29364.8
29369.1
29373.6
29378.2
29382.8
29387.6
29392.4
29397.2
29402.1
29407
29411.9
29416.9
29421.9
29427
29432
29437.1
29442.1
29447.2
29452.2
29457.3
29462.3
29467.3
29472.3
29477.2
29482.2
29487
29491.9
29496.6
29501.3
29506
29510.6
29515.1
29519.6
29524
29528.3
29532.5
29536.6
29540.6
29544.5
29548.3
29552.1
29555.7
29559.2
29562.6
29565.8
29569
29572
29574.9
29577.7
29580.3
29582.8
29585.2
29587.5
29589.6
29591.5
29593.3
29595
29596.5
29597.9
29599.2
29600.2
29601.2
29601.9
29602.6
29603
29603.4
29603.5
31487.6
31487.5
31487.4
31487.2
31486.9
31486.6
31486.2
31485.7
31485.1
31484.5
31483.8
31483.1
31482.2
31481.3
31480.4
31479.3
31478.2
31477
31475.8
31474.5
31473.1
31471.6
31470.1
31468.5
31466.9
31465.1
31463.3
31461.4
31459.5
31457.4
31455.3
31453.1
31450.9
31448.5
31446.1
31443.6
31441
31438.3
31435.6
31432.7
31429.8
31426.8
31423.7
31420.5
31417.2
31413.9
31410.4
31406.9
31403.2
31399.5
31395.6
31391.7
31387.6
31383.4
31379.2
31374.8
31370.3
31365.6
31360.9
31356
31351
31345.9
31340.7
31335.3
31329.8
31324.2
31318.4
31312.5
31306.5
31300.3
31294
31287.5
31280.9
31274.1
31267.2
31260.1
31252.9
31245.5
31237.9
31230.2
31222.3
31214.2
31206
31197.6
31189.1
31180.4
31171.4
31162.4
31153.1
31143.7
31134
31124.2
31114.3
31104.1
31093.7
31083.2
31072.5
31061.6
31050.5
31039.2
31027.7
31016
31004.1
30992.1
30979.8
30967.4
30954.8
30942
30929
30915.8
30902.4
30888.8
30875.1
30861.1
30847
30832.7
30818.2
30803.5
30788.7
30773.6
30758.4
30743.1
30727.5
30711.8
30695.9
30679.9
30663.7
30647.3
30630.8
30614.1
30597.3
30580.3
30563.2
30545.9
30528.5
30511
30493.3
30475.5
30457.6
30439.6
30421.4
30403.2
30384.8
30366.4
30347.8
30329.1
30310.4
30291.6
30272.7
30253.7
30234.6
30215.5
30196.3
30177.1
30157.8
30138.4
30119.1
30099.6
30080.2
30060.7
30041.2
30021.7
30002.2
29982.7
29963.2
29943.7
29924.2
29904.8
29885.3
29865.9
29846.5
29827.2
29807.9
29788.6
29769.5
29750.3
29731.3
29712.3
29693.5
29674.7
29655.9
29637.3
29618.8
29600.5
29582.2
29564
29546
29528.1
29510.4
29492.7
29475.3
29458
29440.8
29423.8
29407
29390.4
29373.9
29357.6
29341.5
29325.6
29309.9
29294.4
29279.1
29264
29249.1
29234.5
29220
29205.8
29191.9
29178.1
29164.6
29151.4
29138.4
29125.6
29113.1
29100.9
29088.9
29077.2
29065.7
29054.6
29043.7
29033
29022.7
29012.6
29002.9
28993.4
28984.2
28975.3
28966.7
28958.4
28950.4
28942.7
28935.2
28928.1
28921.3
28914.8
28908.6
28902.7
28897.1
28891.7
28886.7
28882
28877.6
28873.5
28869.6
28866.1
28862.8
28859.8
28857.2
28854.7
28852.6
28850.7
28849.2
28847.8
28846.8
28846
28845.4
28845.1
28845
28845.2
28845.6
28846.3
28847.1
28848.2
28849.5
28851
28852.7
28854.6
28856.7
28859
28861.5
28864.1
28866.9
28869.8
28872.9
28876.2
28879.6
28883.1
28886.7
28890.4
28894.3
28898.2
28902.4
28906.7
28911.1
28915.6
28920.2
28924.9
28929.6
28934.4
28939.2
28944.1
28949.1
28954
28959
28964
28969.1
28974.1
28979.2
28984.3
28989.3
28994.4
28999.5
29004.5
29009.5
29014.5
29019.5
29024.4
29029.3
29034.2
29039
29043.7
29048.4
29053
29057.5
29062
29066.4
29070.7
29074.9
29079
29083
29087
29090.8
29094.5
29098.2
29101.7
29105.1
29108.3
29111.5
29114.5
29117.4
29120.2
29122.9
29125.4
29127.8
29130
29132.1
29134.1
29135.9
29137.6
29139.1
29140.5
29141.8
29142.9
29143.8
29144.6
29145.2
29145.7
29146
29146.1
31030.1
31030.1
31029.9
31029.7
31029.5
31029.1
31028.7
31028.2
31027.7
31027
31026.3
31025.6
31024.8
31023.9
31022.9
31021.9
31020.8
31019.6
31018.3
31017
31015.6
31014.2
31012.7
31011.1
31009.4
31007.7
31005.9
31004
31002
31000
30997.9
30995.7
30993.5
30991.1
30988.7
30986.2
30983.6
30981
30978.2
30975.4
30972.5
30969.5
30966.4
30963.2
30959.9
30956.5
30953.1
30949.5
30945.9
30942.1
30938.3
30934.3
30930.3
30926.1
30921.8
30917.4
30912.9
30908.3
30903.6
30898.7
30893.7
30888.6
30883.4
30878.1
30872.6
30867
30861.2
30855.3
30849.3
30843.1
30836.8
30830.3
30823.7
30816.9
30810
30803
30795.7
30788.4
30780.8
30773.1
30765.2
30757.2
30749
30740.6
30732.1
30723.3
30714.4
30705.4
30696.1
30686.7
30677.1
30667.3
30657.3
30647.2
30636.8
30626.3
30615.6
30604.6
30593.5
30582.3
30570.8
30559.1
30547.3
30535.2
30523
30510.5
30497.9
30485.1
30472.1
30458.9
30445.5
30431.9
30418.2
30404.2
30390.1
30375.8
30361.3
30346.6
30331.8
30316.7
30301.5
30286.1
30270.6
30254.9
30239
30222.9
30206.7
30190.3
30173.8
30157.1
30140.2
30123.3
30106.1
30088.9
30071.4
30053.9
30036.2
30018.4
30000.5
29982.4
29964.3
29946
29927.6
29909.1
29890.5
29871.8
29853
29834.2
29815.2
29796.2
29777.1
29758
29738.8
29719.5
29700.2
29680.9
29661.5
29642
29622.6
29603.1
29583.5
29564
29544.5
29524.9
29505.4
29485.8
29466.3
29446.8
29427.3
29407.8
29388.4
29369
29349.7
29330.4
29311.2
29292.1
29273
29254
29235.1
29216.2
29197.5
29178.9
29160.3
29141.9
29123.6
29105.4
29087.4
29069.4
29051.6
29034
29016.5
28999.2
28982
28965
28948.1
28931.4
28914.9
28898.6
28882.5
28866.6
28850.8
28835.3
28820
28804.9
28790
28775.3
28760.8
28746.6
28732.6
28718.9
28705.3
28692.1
28679
28666.3
28653.8
28641.5
28629.5
28617.8
28606.3
28595.1
28584.2
28573.6
28563.2
28553.2
28543.4
28533.9
28524.7
28515.8
28507.2
28498.9
28490.9
28483.1
28475.7
28468.6
28461.8
28455.3
28449.1
28443.2
28437.6
28432.3
28427.3
28422.6
28418.1
28414
28410.2
28406.7
28403.4
28400.5
28397.8
28395.4
28393.3
28391.5
28389.9
28388.6
28387.5
28386.8
28386.2
28386
28385.9
28386.1
28386.6
28387.2
28388.1
28389.2
28390.6
28392.1
28393.8
28395.8
28397.9
28400.2
28402.7
28405.3
28408.2
28411.2
28414.3
28417.6
28421
28424.6
28428.3
28432.1
28436.1
28440.2
28444.3
28448.6
28453
28457.5
28462.1
28466.7
28471.5
28476.3
28481.1
28486.1
28491
28496
28501
28506.1
28511.2
28516.2
28521.3
28526.5
28531.6
28536.7
28541.7
28546.8
28551.9
28556.9
28561.9
28566.8
28571.8
28576.6
28581.4
28586.2
28590.9
28595.5
28600.1
28604.6
28609
28613.3
28617.6
28621.7
28625.8
28629.7
28633.6
28637.3
28640.9
28644.5
28647.9
28651.2
28654.3
28657.4
28660.3
28663.1
28665.8
28668.3
28670.7
28672.9
28675.1
28677
28678.9
28680.6
28682.1
28683.5
28684.7
28685.8
28686.8
28687.6
28688.2
28688.7
28689
28689.1
30572.7
30572.7
30572.5
30572.3
30572.1
30571.7
30571.3
30570.8
30570.3
30569.7
30569
30568.2
30567.4
30566.5
30565.5
30564.5
30563.4
30562.2
30561
30559.7
30558.3
30556.9
30555.4
30553.8
30552.1
30550.4
30548.6
30546.7
30544.8
30542.8
30540.7
30538.5
30536.2
30533.9
30531.5
30529
30526.4
30523.8
30521
30518.2
30515.3
30512.3
30509.2
30506.1
30502.8
30499.4
30496
30492.4
30488.8
30485
30481.2
30477.3
30473.2
30469.1
30464.8
30460.4
30455.9
30451.3
30446.6
30441.7
30436.8
30431.7
30426.5
30421.1
30415.7
30410.1
30404.3
30398.4
30392.4
30386.3
30380
30373.5
30366.9
30360.2
30353.3
30346.2
30339
30331.7
30324.1
30316.4
30308.6
30300.6
30292.4
30284
30275.5
30266.8
30257.9
30248.8
30239.6
30230.2
30220.6
30210.8
30200.9
30190.7
30180.4
30169.8
30159.1
30148.2
30137.1
30125.9
30114.4
30102.7
30090.9
30078.8
30066.6
30054.2
30041.5
30028.7
30015.7
30002.5
29989.1
29975.6
29961.8
29947.9
29933.7
29919.4
29904.9
29890.2
29875.3
29860.3
29845.1
29829.7
29814.1
29798.4
29782.5
29766.4
29750.1
29733.7
29717.2
29700.5
29683.6
29666.6
29649.4
29632.1
29614.7
29597.1
29579.4
29561.6
29543.6
29525.5
29507.3
29489
29470.6
29452.1
29433.4
29414.7
29395.9
29377
29358
29339
29319.9
29300.7
29281.4
29262.1
29242.7
29223.3
29203.9
29184.4
29164.9
29145.3
29125.7
29106.2
29086.6
29067
29047.4
29027.8
29008.2
28988.7
28969.1
28949.6
28930.2
28910.7
28891.3
28872
28852.8
28833.5
28814.4
28795.4
28776.4
28757.5
28738.7
28720
28701.4
28683
28664.6
28646.4
28628.3
28610.3
28592.4
28574.8
28557.2
28539.8
28522.6
28505.5
28488.6
28471.9
28455.4
28439
28422.9
28406.9
28391.1
28375.6
28360.2
28345
28330.1
28315.4
28300.9
28286.7
28272.6
28258.8
28245.3
28232
28218.9
28206.1
28193.6
28181.3
28169.3
28157.6
28146.1
28134.9
28123.9
28113.3
28102.9
28092.8
28083.1
28073.6
28064.3
28055.4
28046.8
28038.5
28030.5
28022.8
28015.4
28008.2
28001.4
27994.9
27988.7
27982.8
27977.2
27972
27967
27962.3
27957.9
27953.8
27950
27946.5
27943.3
27940.3
27937.7
27935.3
27933.3
27931.4
27929.9
27928.6
27927.6
27926.9
27926.4
27926.2
27926.2
27926.4
27926.9
27927.6
27928.5
27929.7
27931.1
27932.6
27934.4
27936.4
27938.6
27940.9
27943.5
27946.2
27949.1
27952.1
27955.3
27958.6
27962.1
27965.7
27969.5
27973.3
27977.3
27981.4
27985.7
27990
27994.5
27999
28003.6
28008.4
28013.2
28018
28022.9
28027.9
28032.9
28037.9
28043
28048.1
28053.2
28058.3
28063.5
28068.6
28073.8
28078.9
28084.1
28089.2
28094.3
28099.3
28104.4
28109.4
28114.3
28119.2
28124.1
28128.9
28133.6
28138.3
28142.9
28147.4
28151.8
28156.2
28160.5
28164.6
28168.7
28172.7
28176.6
28180.4
28184
28187.6
28191
28194.3
28197.5
28200.6
28203.5
28206.3
28209
28211.5
28213.9
28216.2
28218.3
28220.3
28222.2
28223.9
28225.4
28226.8
28228.1
28229.2
28230.1
28230.9
28231.6
28232
28232.3
28232.5
30115.5
30115.4
30115.3
30115.1
30114.8
30114.5
30114
30113.6
30113
30112.4
30111.7
30111
30110.2
30109.3
30108.3
30107.3
30106.2
30105
30103.8
30102.5
30101.2
30099.7
30098.2
30096.7
30095
30093.3
30091.5
30089.6
30087.7
30085.7
30083.6
30081.4
30079.2
30076.9
30074.5
30072
30069.4
30066.8
30064
30061.2
30058.3
30055.4
30052.3
30049.1
30045.9
30042.5
30039.1
30035.5
30031.9
30028.2
30024.4
30020.4
30016.4
30012.2
30008
30003.6
29999.2
29994.6
29989.9
29985
29980.1
29975
29969.8
29964.5
29959.1
29953.5
29947.8
29941.9
29935.9
29929.8
29923.5
29917.1
29910.5
29903.8
29896.9
29889.9
29882.7
29875.3
29867.8
29860.2
29852.3
29844.3
29836.2
29827.8
29819.3
29810.6
29801.8
29792.7
29783.5
29774.1
29764.5
29754.8
29744.8
29734.7
29724.4
29713.9
29703.2
29692.3
29681.2
29669.9
29658.5
29646.8
29635
29622.9
29610.7
29598.3
29585.7
29572.8
29559.8
29546.6
29533.3
29519.7
29505.9
29492
29477.8
29463.5
29449
29434.3
29419.4
29404.3
29389.1
29373.7
29358.1
29342.3
29326.4
29310.3
29294
29277.6
29261
29244.3
29227.4
29210.3
29193.1
29175.8
29158.3
29140.7
29123
29105.1
29087.1
29068.9
29050.7
29032.3
29013.9
28995.3
28976.6
28957.9
28939
28920.1
28901
28881.9
28862.7
28843.5
28824.2
28804.8
28785.4
28765.9
28746.4
28726.9
28707.3
28687.7
28668.1
28648.4
28628.7
28609.1
28589.4
28569.8
28550.1
28530.5
28510.9
28491.3
28471.8
28452.3
28432.8
28413.4
28394.1
28374.8
28355.6
28336.5
28317.4
28298.5
28279.6
28260.8
28242.2
28223.6
28205.2
28186.9
28168.7
28150.7
28132.8
28115
28097.4
28080
28062.7
28045.6
28028.6
28011.8
27995.2
27978.8
27962.6
27946.6
27930.8
27915.2
27899.7
27884.5
27869.6
27854.8
27840.3
27826
27811.9
27798.1
27784.5
27771.2
27758.1
27745.2
27732.7
27720.4
27708.3
27696.5
27685
27673.8
27662.8
27652.2
27641.8
27631.7
27621.9
27612.4
27603.1
27594.2
27585.6
27577.3
27569.3
27561.5
27554.1
27547
27540.2
27533.7
27527.5
27521.7
27516.1
27510.8
27505.8
27501.2
27496.8
27492.7
27489
27485.5
27482.3
27479.4
27476.8
27474.5
27472.4
27470.7
27469.2
27468
27467
27466.3
27465.9
27465.7
27465.7
27466
27466.6
27467.3
27468.3
27469.6
27471
27472.6
27474.5
27476.5
27478.8
27481.2
27483.8
27486.6
27489.5
27492.6
27495.9
27499.3
27502.8
27506.5
27510.3
27514.3
27518.4
27522.6
27526.9
27531.3
27535.8
27540.4
27545.1
27549.8
27554.7
27559.6
27564.6
27569.6
27574.6
27579.7
27584.9
27590
27595.2
27600.4
27605.6
27610.8
27616
27621.2
27626.4
27631.6
27636.8
27641.9
27647
27652
27657
27662
27666.9
27671.7
27676.5
27681.2
27685.9
27690.4
27694.9
27699.3
27703.6
27707.9
27712
27716
27719.9
27723.7
27727.4
27731
27734.5
27737.8
27741
27744.1
27747.1
27749.9
27752.6
27755.2
27757.6
27759.9
27762
27764
27765.9
27767.6
27769.1
27770.6
27771.8
27772.9
27773.9
27774.7
27775.3
27775.8
27776.1
27776.3
29658.3
29658.3
29658.1
29657.9
29657.7
29657.3
29656.9
29656.5
29655.9
29655.3
29654.6
29653.9
29653.1
29652.2
29651.3
29650.3
29649.2
29648
29646.8
29645.5
29644.2
29642.7
29641.2
29639.7
29638
29636.3
29634.6
29632.7
29630.8
29628.8
29626.7
29624.5
29622.3
29620
29617.6
29615.1
29612.6
29610
29607.2
29604.4
29601.6
29598.6
29595.5
29592.4
29589.1
29585.8
29582.4
29578.9
29575.3
29571.6
29567.7
29563.8
29559.8
29555.7
29551.5
29547.1
29542.7
29538.1
29533.4
29528.6
29523.7
29518.7
29513.5
29508.2
29502.8
29497.2
29491.5
29485.7
29479.7
29473.6
29467.4
29461
29454.4
29447.7
29440.9
29433.9
29426.7
29419.4
29411.9
29404.3
29396.5
29388.5
29380.4
29372.1
29363.6
29354.9
29346.1
29337.1
29327.9
29318.5
29308.9
29299.2
29289.3
29279.2
29268.8
29258.4
29247.7
29236.8
29225.7
29214.5
29203
29191.4
29179.5
29167.5
29155.3
29142.9
29130.2
29117.4
29104.4
29091.2
29077.8
29064.3
29050.5
29036.5
29022.4
29008
28993.5
28978.8
28963.9
28948.8
28933.5
28918.1
28902.5
28886.7
28870.7
28854.6
28838.3
28821.9
28805.2
28788.5
28771.5
28754.4
28737.2
28719.8
28702.3
28684.6
28666.8
28648.9
28630.9
28612.7
28594.4
28576
28557.4
28538.8
28520.1
28501.3
28482.3
28463.3
28444.2
28425.1
28405.8
28386.5
28367.1
28347.7
28328.2
28308.6
28289
28269.4
28249.7
28230
28210.3
28190.6
28170.9
28151.1
28131.4
28111.6
28091.9
28072.2
28052.5
28032.8
28013.2
27993.6
27974.1
27954.6
27935.2
27915.8
27896.5
27877.3
27858.1
27839.1
27820.2
27801.3
27782.6
27763.9
27745.4
27727
27708.8
27690.7
27672.7
27654.8
27637.1
27619.6
27602.3
27585.1
27568
27551.2
27534.5
27518
27501.8
27485.7
27469.8
27454.1
27438.6
27423.4
27408.3
27393.5
27378.9
27364.6
27350.5
27336.6
27323
27309.6
27296.4
27283.6
27270.9
27258.6
27246.5
27234.7
27223.1
27211.9
27200.9
27190.2
27179.8
27169.7
27159.8
27150.3
27141.1
27132.1
27123.5
27115.2
27107.2
27099.4
27092
27084.9
27078.1
27071.6
27065.5
27059.6
27054
27048.8
27043.9
27039.2
27034.9
27030.8
27027.1
27023.7
27020.5
27017.7
27015.1
27012.9
27010.9
27009.2
27007.7
27006.6
27005.7
27005
27004.7
27004.5
27004.7
27005
27005.6
27006.5
27007.5
27008.8
27010.3
27012.1
27014
27016.1
27018.4
27020.9
27023.6
27026.5
27029.5
27032.7
27036
27039.5
27043.2
27046.9
27050.9
27054.9
27059
27063.3
27067.7
27072.2
27076.8
27081.5
27086.2
27091.1
27096
27101
27106
27111.1
27116.3
27121.5
27126.7
27131.9
27137.2
27142.4
27147.7
27153
27158.3
27163.6
27168.8
27174.1
27179.3
27184.5
27189.7
27194.8
27199.9
27204.9
27209.8
27214.8
27219.6
27224.4
27229.1
27233.7
27238.2
27242.7
27247.1
27251.3
27255.5
27259.6
27263.5
27267.4
27271.1
27274.7
27278.2
27281.6
27284.9
27288
27291
27293.9
27296.6
27299.2
27301.6
27303.9
27306.1
27308.1
27310
27311.7
27313.3
27314.7
27316
27317.1
27318
27318.8
27319.5
27320
27320.3
27320.4
29201.4
29201.3
29201.2
29201
29200.7
29200.4
29200
29199.5
29199
29198.4
29197.7
29197
29196.2
29195.3
29194.4
29193.4
29192.3
29191.2
29189.9
29188.7
29187.3
29185.9
29184.4
29182.9
29181.2
29179.6
29177.8
29175.9
29174
29172
29170
29167.8
29165.6
29163.3
29160.9
29158.5
29155.9
29153.3
29150.6
29147.8
29145
29142
29139
29135.9
29132.6
29129.3
29125.9
29122.4
29118.8
29115.1
29111.4
29107.5
29103.5
29099.4
29095.2
29090.9
29086.4
29081.9
29077.2
29072.5
29067.6
29062.6
29057.4
29052.2
29046.8
29041.2
29035.6
29029.8
29023.8
29017.8
29011.6
29005.2
28998.7
28992
28985.2
28978.2
28971.1
28963.8
28956.4
28948.8
28941
28933.1
28925
28916.7
28908.2
28899.6
28890.8
28881.8
28872.6
28863.3
28853.8
28844
28834.1
28824.1
28813.8
28803.3
28792.6
28781.8
28770.7
28759.5
28748.1
28736.4
28724.6
28712.6
28700.4
28687.9
28675.3
28662.5
28649.5
28636.3
28622.9
28609.3
28595.5
28581.6
28567.4
28553
28538.5
28523.8
28508.9
28493.7
28478.5
28463
28447.4
28431.5
28415.5
28399.4
28383
28366.5
28349.9
28333.1
28316.1
28299
28281.7
28264.2
28246.7
28228.9
28211.1
28193.1
28175
28156.7
28138.4
28119.9
28101.3
28082.6
28063.8
28044.9
28025.9
28006.8
27987.6
27968.4
27949
27929.6
27910.2
27890.6
27871
27851.4
27831.7
27812
27792.3
27772.5
27752.7
27732.8
27713
27693.1
27673.3
27653.4
27633.6
27613.8
27594
27574.2
27554.5
27534.8
27515.1
27495.6
27476
27456.5
27437.1
27417.8
27398.6
27379.4
27360.4
27341.4
27322.6
27303.8
27285.2
27266.7
27248.4
27230.2
27212.1
27194.1
27176.4
27158.7
27141.3
27124
27106.9
27089.9
27073.2
27056.6
27040.3
27024.1
27008.1
26992.4
26976.8
26961.5
26946.4
26931.5
26916.9
26902.4
26888.3
26874.3
26860.6
26847.2
26834
26821.1
26808.4
26796
26783.9
26772
26760.4
26749.1
26738.1
26727.4
26716.9
26706.8
26696.9
26687.4
26678.1
26669.2
26660.5
26652.2
26644.2
26636.5
26629
26621.9
26615.2
26608.7
26602.5
26596.7
26591.2
26585.9
26581
26576.4
26572.1
26568.1
26564.4
26561
26558
26555.2
26552.7
26550.5
26548.5
26546.9
26545.5
26544.4
26543.6
26543
26542.7
26542.7
26542.9
26543.4
26544.1
26545
26546.1
26547.5
26549.1
26550.9
26552.9
26555.2
26557.6
26560.2
26563
26565.9
26569
26572.3
26575.8
26579.4
26583.1
26587
26591
26595.2
26599.4
26603.8
26608.3
26612.9
26617.6
26622.4
26627.2
26632.2
26637.2
26642.3
26647.4
26652.6
26657.8
26663.1
26668.4
26673.7
26679.1
26684.5
26689.8
26695.2
26700.6
26706
26711.3
26716.6
26721.9
26727.2
26732.5
26737.7
26742.8
26747.9
26753
26757.9
26762.9
26767.7
26772.5
26777.2
26781.8
26786.3
26790.7
26795.1
26799.3
26803.4
26807.4
26811.3
26815.1
26818.8
26822.4
26825.8
26829.1
26832.2
26835.3
26838.2
26840.9
26843.6
26846
26848.4
26850.6
26852.6
26854.5
26856.2
26857.8
26859.3
26860.5
26861.7
26862.6
26863.4
26864.1
26864.5
26864.9
26865
28744.5
28744.5
28744.3
28744.1
28743.9
28743.5
28743.2
28742.7
28742.2
28741.6
28740.9
28740.2
28739.4
28738.5
28737.6
28736.6
28735.6
28734.4
28733.2
28732
28730.6
28729.2
28727.8
28726.2
28724.6
28722.9
28721.2
28719.3
28717.4
28715.4
28713.4
28711.3
28709.1
28706.8
28704.4
28702
28699.5
28696.9
28694.2
28691.4
28688.6
28685.6
28682.6
28679.5
28676.3
28673
28669.7
28666.2
28662.6
28659
28655.2
28651.3
28647.4
28643.3
28639.1
28634.9
28630.5
28626
28621.3
28616.6
28611.7
28606.8
28601.7
28596.4
28591.1
28585.6
28580
28574.2
28568.3
28562.3
28556.1
28549.8
28543.3
28536.7
28529.9
28523
28515.9
28508.6
28501.2
28493.7
28485.9
28478
28470
28461.7
28453.3
28444.7
28435.9
28427
28417.8
28408.5
28399
28389.3
28379.5
28369.4
28359.2
28348.7
28338.1
28327.2
28316.2
28305
28293.6
28281.9
28270.1
28258.1
28245.9
28233.5
28220.9
28208.1
28195.1
28181.9
28168.5
28154.9
28141.1
28127.1
28112.9
28098.5
28084
28069.2
28054.3
28039.2
28023.8
28008.3
27992.7
27976.8
27960.8
27944.6
27928.2
27911.7
27894.9
27878.1
27861
27843.9
27826.5
27809
27791.4
27773.6
27755.7
27737.6
27719.4
27701.1
27682.7
27664.1
27645.4
27626.6
27607.8
27588.8
27569.7
27550.5
27531.2
27511.9
27492.4
27472.9
27453.4
27433.7
27414
27394.3
27374.5
27354.7
27334.8
27314.9
27295
27275
27255.1
27235.1
27215.1
27195.2
27175.2
27155.3
27135.4
27115.5
27095.6
27075.8
27056
27036.3
27016.6
26997
26977.5
26958.1
26938.7
26919.4
26900.3
26881.2
26862.2
26843.4
26824.6
26806
26787.5
26769.2
26751
26732.9
26715.1
26697.3
26679.8
26662.4
26645.2
26628.1
26611.3
26594.6
26578.1
26561.9
26545.8
26530
26514.4
26498.9
26483.8
26468.8
26454.1
26439.6
26425.3
26411.3
26397.5
26384
26370.8
26357.8
26345.1
26332.6
26320.4
26308.5
26296.9
26285.5
26274.5
26263.7
26253.2
26243
26233.2
26223.6
26214.3
26205.3
26196.7
26188.3
26180.3
26172.6
26165.2
26158.1
26151.3
26144.9
26138.7
26132.9
26127.4
26122.2
26117.3
26112.8
26108.5
26104.6
26100.9
26097.6
26094.6
26091.8
26089.4
26087.3
26085.4
26083.8
26082.6
26081.5
26080.8
26080.3
26080.1
26080.2
26080.5
26081
26081.8
26082.9
26084.1
26085.6
26087.3
26089.2
26091.4
26093.7
26096.2
26098.9
26101.8
26104.9
26108.1
26111.5
26115.1
26118.8
26122.7
26126.7
26130.8
26135.1
26139.5
26144
26148.6
26153.3
26158.1
26163
26168
26173.1
26178.2
26183.4
26188.6
26193.9
26199.3
26204.7
26210.1
26215.5
26221
26226.5
26231.9
26237.4
26242.9
26248.4
26253.8
26259.3
26264.7
26270
26275.4
26280.7
26285.9
26291.1
26296.2
26301.3
26306.3
26311.2
26316.1
26320.9
26325.5
26330.1
26334.6
26339
26343.3
26347.5
26351.6
26355.6
26359.4
26363.2
26366.8
26370.3
26373.6
26376.8
26379.9
26382.8
26385.7
26388.3
26390.8
26393.2
26395.4
26397.5
26399.4
26401.2
26402.8
26404.2
26405.5
26406.6
26407.6
26408.4
26409.1
26409.6
26409.9
26410.1
28287.8
28287.8
28287.7
28287.5
28287.2
28286.9
28286.5
28286
28285.5
28284.9
28284.3
28283.6
28282.8
28281.9
28281
28280
28279
28277.9
28276.7
28275.4
28274.1
28272.7
28271.3
28269.7
28268.1
28266.4
28264.7
28262.9
28261
28259
28257
28254.9
28252.7
28250.4
28248.1
28245.7
28243.2
28240.6
28237.9
28235.2
28232.4
28229.5
28226.5
28223.4
28220.2
28217
28213.6
28210.2
28206.6
28203
28199.3
28195.4
28191.5
28187.5
28183.3
28179.1
28174.7
28170.3
28165.7
28161
28156.2
28151.2
28146.2
28141
28135.7
28130.2
28124.6
28118.9
28113.1
28107.1
28101
28094.7
28088.2
28081.7
28074.9
28068.1
28061
28053.8
28046.5
28038.9
28031.2
28023.4
28015.4
28007.2
27998.8
27990.2
27981.5
27972.6
27963.5
27954.2
27944.7
27935.1
27925.2
27915.2
27905
27894.6
27884
27873.2
27862.1
27850.9
27839.5
27827.9
27816.1
27804.1
27791.9
27779.5
27766.9
27754.1
27741.1
27727.9
27714.5
27700.9
27687.1
27673.1
27658.9
27644.5
27629.9
27615.2
27600.2
27585
27569.7
27554.2
27538.4
27522.5
27506.5
27490.2
27473.8
27457.2
27440.4
27423.5
27406.4
27389.2
27371.7
27354.2
27336.5
27318.6
27300.6
27282.5
27264.2
27245.8
27227.3
27208.6
27189.9
27171
27152
27132.9
27113.7
27094.4
27075
27055.6
27036
27016.4
26996.7
26977
26957.2
26937.3
26917.4
26897.4
26877.4
26857.4
26837.4
26817.3
26797.2
26777.1
26757
26736.9
26716.8
26696.7
26676.6
26656.6
26636.6
26616.6
26596.7
26576.9
26557
26537.3
26517.6
26498
26478.5
26459.1
26439.8
26420.6
26401.5
26382.5
26363.6
26344.8
26326.2
26307.8
26289.4
26271.3
26253.2
26235.4
26217.7
26200.2
26182.8
26165.7
26148.7
26132
26115.4
26099
26082.9
26066.9
26051.2
26035.7
26020.4
26005.3
25990.5
25975.9
25961.6
25947.5
25933.7
25920.1
25906.8
25893.7
25880.9
25868.4
25856.1
25844.2
25832.5
25821.1
25810
25799.2
25788.6
25778.4
25768.5
25758.9
25749.6
25740.6
25731.9
25723.6
25715.5
25707.8
25700.4
25693.3
25686.6
25680.1
25674
25668.2
25662.7
25657.6
25652.7
25648.2
25644
25640.1
25636.6
25633.3
25630.3
25627.7
25625.3
25623.3
25621.5
25620
25618.8
25617.9
25617.3
25616.9
25616.8
25617
25617.4
25618
25619
25620.1
25621.5
25623.1
25624.9
25627
25629.2
25631.7
25634.3
25637.2
25640.2
25643.4
25646.8
25650.3
25654
25657.9
25661.9
25666
25670.3
25674.7
25679.2
25683.9
25688.6
25693.5
25698.4
25703.4
25708.6
25713.7
25719
25724.3
25729.7
25735.1
25740.6
25746.1
25751.7
25757.2
25762.8
25768.4
25774
25779.6
25785.2
25790.8
25796.4
25801.9
25807.5
25812.9
25818.4
25823.8
25829.1
25834.4
25839.7
25844.8
25849.9
25855
25859.9
25864.8
25869.6
25874.2
25878.8
25883.3
25887.7
25891.9
25896.1
25900.1
25904.1
25907.9
25911.5
25915.1
25918.5
25921.8
25924.9
25927.9
25930.7
25933.4
25936
25938.4
25940.7
25942.8
25944.7
25946.5
25948.1
25949.6
25950.9
25952
25953
25953.9
25954.5
25955
25955.3
25955.5
27831.3
27831.3
27831.1
27830.9
27830.7
27830.4
27830
27829.5
27829
27828.4
27827.8
27827.1
27826.3
27825.5
27824.6
27823.6
27822.6
27821.4
27820.3
27819
27817.7
27816.3
27814.9
27813.4
27811.8
27810.1
27808.4
27806.6
27804.7
27802.8
27800.7
27798.7
27796.5
27794.2
27791.9
27789.5
27787
27784.5
27781.9
27779.1
27776.3
27773.5
27770.5
27767.4
27764.3
27761.1
27757.8
27754.4
27750.9
27747.3
27743.6
27739.8
27735.9
27731.9
27727.8
27723.6
27719.3
27714.8
27710.3
27705.7
27700.9
27696
27691
27685.8
27680.6
27675.2
27669.6
27664
27658.2
27652.2
27646.1
27639.9
27633.5
27627
27620.3
27613.5
27606.5
27599.4
27592.1
27584.6
27576.9
27569.1
27561.2
27553
27544.7
27536.2
27527.5
27518.6
27509.6
27500.3
27490.9
27481.3
27471.5
27461.5
27451.3
27440.9
27430.3
27419.6
27408.6
27397.4
27386
27374.4
27362.6
27350.7
27338.5
27326.1
27313.5
27300.7
27287.7
27274.5
27261.1
27247.4
27233.6
27219.6
27205.4
27191
27176.4
27161.6
27146.6
27131.4
27116
27100.4
27084.7
27068.7
27052.6
27036.3
27019.8
27003.2
26986.3
26969.3
26952.2
26934.9
26917.4
26899.7
26881.9
26864
26845.9
26827.7
26809.3
26790.8
26772.2
26753.4
26734.6
26715.6
26696.5
26677.3
26658
26638.6
26619.1
26599.5
26579.8
26560.1
26540.2
26520.4
26500.4
26480.4
26460.4
26440.3
26420.1
26399.9
26379.7
26359.5
26339.3
26319
26298.7
26278.5
26258.2
26238
26217.8
26197.6
26177.4
26157.3
26137.2
26117.2
26097.2
26077.3
26057.5
26037.7
26018
25998.5
25979
25959.6
25940.3
25921.2
25902.1
25883.2
25864.5
25845.8
25827.4
25809
25790.9
25772.9
25755.1
25737.4
25719.9
25702.7
25685.6
25668.7
25652
25635.5
25619.2
25603.2
25587.3
25571.7
25556.3
25541.2
25526.2
25511.6
25497.1
25483
25469
25455.4
25441.9
25428.8
25415.9
25403.3
25391
25379
25367.2
25355.8
25344.6
25333.7
25323.2
25312.9
25302.9
25293.3
25284
25275
25266.3
25257.9
25249.8
25242.1
25234.7
25227.6
25220.9
25214.5
25208.4
25202.6
25197.2
25192.1
25187.3
25182.8
25178.7
25174.8
25171.3
25168.2
25165.3
25162.7
25160.4
25158.5
25156.8
25155.4
25154.3
25153.5
25153
25152.8
25152.8
25153.1
25153.6
25154.4
25155.4
25156.7
25158.2
25160
25161.9
25164.1
25166.5
25169.1
25171.9
25174.9
25178.1
25181.5
25185
25188.7
25192.5
25196.6
25200.7
25205
25209.4
25214
25218.7
25223.5
25228.4
25233.4
25238.5
25243.6
25248.9
25254.2
25259.7
25265.1
25270.7
25276.2
25281.9
25287.5
25293.2
25298.9
25304.6
25310.4
25316.1
25321.9
25327.6
25333.3
25339
25344.7
25350.3
25356
25361.5
25367
25372.5
25377.9
25383.3
25388.6
25393.8
25398.9
25404
25408.9
25413.8
25418.6
25423.3
25427.8
25432.3
25436.7
25440.9
25445
25449
25452.9
25456.6
25460.2
25463.7
25467
25470.2
25473.3
25476.2
25478.9
25481.5
25484
25486.3
25488.4
25490.4
25492.2
25493.9
25495.4
25496.7
25497.9
25498.9
25499.7
25500.4
25500.9
25501.2
25501.4
27374.9
27374.9
27374.8
27374.6
27374.3
27374
27373.6
27373.2
27372.7
27372.1
27371.5
27370.8
27370
27369.2
27368.3
27367.3
27366.3
27365.2
27364
27362.8
27361.5
27360.1
27358.7
27357.2
27355.6
27353.9
27352.2
27350.4
27348.6
27346.7
27344.7
27342.6
27340.4
27338.2
27335.9
27333.5
27331.1
27328.6
27326
27323.3
27320.5
27317.7
27314.7
27311.7
27308.6
27305.4
27302.1
27298.8
27295.3
27291.7
27288.1
27284.3
27280.5
27276.5
27272.5
27268.3
27264.1
27259.7
27255.2
27250.6
27245.9
27241
27236.1
27231
27225.8
27220.4
27214.9
27209.3
27203.6
27197.7
27191.7
27185.5
27179.2
27172.7
27166.1
27159.3
27152.4
27145.3
27138
27130.6
27123
27115.3
27107.4
27099.3
27091
27082.5
27073.9
27065.1
27056.1
27046.9
27037.5
27027.9
27018.2
27008.2
26998.1
26987.7
26977.2
26966.4
26955.5
26944.3
26933
26921.4
26909.6
26897.7
26885.5
26873.1
26860.5
26847.7
26834.7
26821.5
26808.1
26794.5
26780.7
26766.6
26752.4
26738
26723.3
26708.5
26693.5
26678.2
26662.8
26647.2
26631.4
26615.4
26599.2
26582.8
26566.3
26549.6
26532.7
26515.6
26498.4
26481
26463.4
26445.7
26427.8
26409.8
26391.6
26373.2
26354.8
26336.2
26317.4
26298.6
26279.6
26260.5
26241.3
26221.9
26202.5
26182.9
26163.3
26143.6
26123.8
26103.9
26083.9
26063.9
26043.8
26023.6
26003.4
25983.2
25962.9
25942.5
25922.2
25901.8
25881.3
25860.9
25840.5
25820
25799.6
25779.2
25758.8
25738.4
25718.1
25697.8
25677.5
25657.3
25637.2
25617.1
25597
25577.1
25557.2
25537.5
25517.8
25498.3
25478.8
25459.5
25440.3
25421.2
25402.3
25383.5
25364.8
25346.3
25328
25309.8
25291.9
25274
25256.4
25239
25221.8
25204.7
25187.9
25171.3
25154.9
25138.7
25122.7
25107
25091.5
25076.2
25061.2
25046.4
25031.9
25017.6
25003.6
24989.8
24976.3
24963.1
24950.1
24937.4
24925
24912.9
24901.1
24889.6
24878.3
24867.4
24856.8
24846.5
24836.5
24826.8
24817.4
24808.4
24799.7
24791.3
24783.2
24775.5
24768.1
24761
24754.3
24747.9
24741.8
24736.1
24730.7