/*--------------------------------*- C++ -*----------------------------------*\
| =========                 |                                                 |
| \\      /  F ield         | OpenFOAM: The Open Source CFD Toolbox           |
|  \\    /   O peration     | Version:  v2006                                 |
|   \\  /    A nd           | Website:  www.openfoam.com                      |
|    \\/     M anipulation  |                                                 |
\*---------------------------------------------------------------------------*/
FoamFile
{
    version     2.0;
    format      ascii;
    class       volVectorField;
    location    "18.1";
    object      U;
}
// * * * * * * * * * * * * * * * * * * * * * * * * * * * * * * * * * * * * * //

dimensions      [0 1 -1 0 0 0 0];


internalField   nonuniform List<vector> 
52500
(
(-0.000742567 -0.000575448 0)
(-0.000902715 -0.00171099 0)
(-0.00105842 -0.00170266 0)
(-0.0014514 -0.00149148 0)
(-0.00184925 -0.00138176 0)
(-0.002283 -0.00134484 0)
(-0.00272639 -0.00134264 0)
(-0.00318061 -0.00134321 0)
(-0.00364938 -0.00133324 0)
(-0.00413807 -0.00131136 0)
(-0.00465146 -0.0012806 0)
(-0.00519288 -0.00124405 0)
(-0.00576468 -0.00120337 0)
(-0.00636861 -0.00115906 0)
(-0.00700607 -0.00111103 0)
(-0.00767842 -0.00105919 0)
(-0.00838698 -0.00100345 0)
(-0.00913307 -0.000943571 0)
(-0.00991797 -0.000879319 0)
(-0.0107429 -0.000810363 0)
(-0.011609 -0.00073638 0)
(-0.0125176 -0.000657348 0)
(-0.0134701 -0.000573789 0)
(-0.0144676 -0.000486956 0)
(-0.0155113 -0.00039844 0)
(-0.0166023 -0.000309491 0)
(-0.0177421 -0.000220834 0)
(-0.0189326 -0.000132894 0)
(-0.0201758 -4.58944e-05 0)
(-0.0214738 4.02651e-05 0)
(-0.0228285 0.000125898 0)
(-0.024242 0.00021141 0)
(-0.0257159 0.000297627 0)
(-0.0272523 0.000385855 0)
(-0.0288534 0.000477355 0)
(-0.0305228 0.000572774 0)
(-0.0322646 0.000671739 0)
(-0.0340836 0.000772876 0)
(-0.0359849 0.000874437 0)
(-0.0379735 0.000975479 0)
(-0.0400548 0.00107725 0)
(-0.0422351 0.00118415 0)
(-0.0445226 0.00130345 0)
(-0.046928 0.00144354 0)
(-0.0494635 0.0016107 0)
(-0.052141 0.00180556 0)
(-0.0549689 0.00202096 0)
(-0.0579495 0.00224261 0)
(-0.0610761 0.00245302 0)
(-0.0643341 0.00263749 0)
(-0.067704 0.00278844 0)
(-0.0711646 0.00290639 0)
(-0.074697 0.00299748 0)
(-0.0782857 0.00306958 0)
(-0.0819196 0.00312966 0)
(-0.0855907 0.0031826 0)
(-0.0892935 0.00323108 0)
(-0.0930237 0.00327572 0)
(-0.0967772 0.00331553 0)
(-0.10055 0.00334868 0)
(-0.104336 0.00337338 0)
(-0.108131 0.00338863 0)
(-0.111928 0.00339448 0)
(-0.115722 0.00339188 0)
(-0.119509 0.00338214 0)
(-0.123283 0.00336649 0)
(-0.127043 0.00334575 0)
(-0.130785 0.00332025 0)
(-0.134506 0.00328996 0)
(-0.138204 0.0032547 0)
(-0.141877 0.00321441 0)
(-0.145521 0.00316935 0)
(-0.149136 0.00312016 0)
(-0.15272 0.00306782 0)
(-0.156269 0.00301353 0)
(-0.159785 0.00295855 0)
(-0.163266 0.00290404 0)
(-0.166712 0.00285101 0)
(-0.170124 0.00280023 0)
(-0.173502 0.00275232 0)
(-0.176849 0.00270779 0)
(-0.180164 0.00266716 0)
(-0.183448 0.00263093 0)
(-0.186704 0.00259958 0)
(-0.189931 0.00257328 0)
(-0.19313 0.00255182 0)
(-0.196302 0.00253442 0)
(-0.199447 0.00251995 0)
(-0.202563 0.00250703 0)
(-0.205651 0.0024942 0)
(-0.208709 0.00248004 0)
(-0.211735 0.00246352 0)
(-0.214729 0.0024444 0)
(-0.217688 0.00242356 0)
(-0.220614 0.00240278 0)
(-0.223505 0.002384 0)
(-0.226364 0.00236856 0)
(-0.229193 0.00235668 0)
(-0.231992 0.00234763 0)
(-0.234764 0.00234013 0)
(-0.237508 0.00233283 0)
(-0.240225 0.00232465 0)
(-0.242913 0.00231488 0)
(-0.245571 0.00230316 0)
(-0.248198 0.00228933 0)
(-0.250792 0.00227338 0)
(-0.253351 0.00225536 0)
(-0.255873 0.00223531 0)
(-0.258355 0.00221335 0)
(-0.260797 0.00218963 0)
(-0.263196 0.0021644 0)
(-0.265551 0.00213788 0)
(-0.267859 0.00211032 0)
(-0.270119 0.00208194 0)
(-0.272329 0.00205298 0)
(-0.274488 0.00202377 0)
(-0.276595 0.00199467 0)
(-0.278649 0.00196613 0)
(-0.280647 0.00193868 0)
(-0.282591 0.00191292 0)
(-0.284478 0.00188946 0)
(-0.286307 0.00186886 0)
(-0.288079 0.00185153 0)
(-0.289793 0.00183758 0)
(-0.291448 0.00182668 0)
(-0.293044 0.00181793 0)
(-0.294581 0.00180981 0)
(-0.296055 0.00180025 0)
(-0.297467 0.00178687 0)
(-0.298812 0.00176728 0)
(-0.300088 0.00173956 0)
(-0.301291 0.00170267 0)
(-0.302418 0.0016567 0)
(-0.303464 0.00160305 0)
(-0.304428 0.00154425 0)
(-0.305308 0.00148358 0)
(-0.306104 0.00142448 0)
(-0.30682 0.00136998 0)
(-0.307458 0.00132209 0)
(-0.308021 0.00128142 0)
(-0.308515 0.00124598 0)
(-0.308942 0.00121208 0)
(-0.309307 0.0011777 0)
(-0.309611 0.00114106 0)
(-0.309858 0.00110233 0)
(-0.310052 0.00106487 0)
(-0.310199 0.00103548 0)
(-0.310308 0.00102351 0)
(-0.310392 0.00103913 0)
(-0.310466 0.00109109 0)
(-0.310546 0.00118431 0)
(-0.31065 0.00131923 0)
(-0.310791 0.0014928 0)
(-0.310981 0.0016971 0)
(-0.311224 0.00192024 0)
(-0.311516 0.00214834 0)
(-0.311851 0.00236789 0)
(-0.312213 0.00256481 0)
(-0.312578 0.00272067 0)
(-0.312911 0.00280984 0)
(-0.313169 0.0027902 0)
(-0.313295 0.0026137 0)
(-0.313196 0.00227832 0)
(-0.312825 0.00185368 0)
(-0.312173 0.00140579 0)
(-0.311244 0.000975116 0)
(-0.310059 0.000584694 0)
(-0.308643 0.000244194 0)
(-0.307024 -4.64782e-05 0)
(-0.305227 -0.000293481 0)
(-0.303273 -0.000505874 0)
(-0.301177 -0.000693307 0)
(-0.298949 -0.000864617 0)
(-0.296598 -0.00102714 0)
(-0.294125 -0.00118649 0)
(-0.291533 -0.00134661 0)
(-0.288822 -0.00150998 0)
(-0.285993 -0.00167774 0)
(-0.283044 -0.00184996 0)
(-0.279977 -0.00202567 0)
(-0.276792 -0.00220312 0)
(-0.273492 -0.00237984 0)
(-0.270082 -0.00255289 0)
(-0.266564 -0.00271907 0)
(-0.262947 -0.00287518 0)
(-0.259238 -0.00301831 0)
(-0.255445 -0.00314602 0)
(-0.251576 -0.00325653 0)
(-0.247641 -0.00334879 0)
(-0.243648 -0.00342249 0)
(-0.239607 -0.00347803 0)
(-0.235524 -0.00351643 0)
(-0.231407 -0.00353931 0)
(-0.227263 -0.0035488 0)
(-0.223097 -0.00354746 0)
(-0.218913 -0.00353813 0)
(-0.214715 -0.00352383 0)
(-0.210505 -0.00350758 0)
(-0.206286 -0.00349217 0)
(-0.202059 -0.00347995 0)
(-0.197824 -0.00347263 0)
(-0.193583 -0.00347111 0)
(-0.189334 -0.00347546 0)
(-0.185079 -0.00348498 0)
(-0.180818 -0.00349835 0)
(-0.176553 -0.00351386 0)
(-0.172285 -0.00352969 0)
(-0.168017 -0.00354413 0)
(-0.163752 -0.00355575 0)
(-0.159492 -0.00356347 0)
(-0.155241 -0.00356667 0)
(-0.151002 -0.00356507 0)
(-0.146779 -0.00355869 0)
(-0.142576 -0.0035478 0)
(-0.138396 -0.00353277 0)
(-0.134242 -0.00351401 0)
(-0.130117 -0.00349192 0)
(-0.126025 -0.00346684 0)
(-0.121969 -0.00343907 0)
(-0.117951 -0.00340882 0)
(-0.113974 -0.00337628 0)
(-0.110041 -0.00334159 0)
(-0.106154 -0.0033049 0)
(-0.102316 -0.00326635 0)
(-0.0985296 -0.00322609 0)
(-0.0947958 -0.00318425 0)
(-0.0911169 -0.003141 0)
(-0.0874946 -0.00309645 0)
(-0.0839305 -0.00305074 0)
(-0.080426 -0.00300396 0)
(-0.0769824 -0.00295619 0)
(-0.0736006 -0.00290751 0)
(-0.0702818 -0.00285796 0)
(-0.0670268 -0.00280756 0)
(-0.0638364 -0.00275627 0)
(-0.0607113 -0.00270405 0)
(-0.0576521 -0.00265079 0)
(-0.0546595 -0.00259637 0)
(-0.051734 -0.0025406 0)
(-0.0488764 -0.00248326 0)
(-0.0460873 -0.00242401 0)
(-0.0433677 -0.0023624 0)
(-0.0407184 -0.00229785 0)
(-0.0381408 -0.00222956 0)
(-0.0356366 -0.00215654 0)
(-0.0332079 -0.00207751 0)
(-0.0308575 -0.00199072 0)
(-0.0285887 -0.00189362 0)
(-0.0264065 -0.00178251 0)
(-0.0243169 -0.00165244 0)
(-0.0223282 -0.00149813 0)
(-0.0204506 -0.00131601 0)
(-0.0186958 -0.00110707 0)
(-0.0170755 -0.000878251 0)
(-0.0155986 -0.000641685 0)
(-0.0142688 -0.000411586 0)
(-0.0130846 -0.000199024 0)
(-0.0120405 -8.52956e-06 0)
(-0.0111308 0.000162303 0)
(-0.0103515 0.000319594 0)
(-0.0097023 0.000469701 0)
(-0.00918649 0.000617397 0)
(-0.0088097 0.000765085 0)
(-0.00857938 0.000913716 0)
(-0.00850717 0.00106318 0)
(-0.00859933 0.00121672 0)
(-0.00885849 0.00137067 0)
(-0.00929189 0.00152279 0)
(-0.00990366 0.00166847 0)
(-0.0106941 0.00180255 0)
(-0.011658 0.00191739 0)
(-0.0127874 0.00200699 0)
(-0.0140683 0.00206912 0)
(-0.0154722 0.00212417 0)
(-0.0169797 0.00221165 0)
(-0.0185999 0.00237912 0)
(-0.020334 0.00267018 0)
(-0.0221969 0.00308324 0)
(-0.0241951 0.0034878 0)
(-0.0262671 0.00359041 0)
(-0.0282356 0.00305455 0)
(-0.0297455 0.00182223 0)
(-0.0303836 0.000329463 0)
(-0.030188 -0.000930363 0)
(-0.0293749 -0.00173868 0)
(-0.0280903 -0.00210354 0)
(-0.0264974 -0.00212399 0)
(-0.0247332 -0.00192394 0)
(-0.0228988 -0.00161941 0)
(-0.0210667 -0.00130121 0)
(-0.0192861 -0.00102775 0)
(-0.0175857 -0.0008282 0)
(-0.0159815 -0.000710086 0)
(-0.0144731 -0.000671621 0)
(-0.0130651 -0.000696881 0)
(-0.0117586 -0.000763275 0)
(-0.0105392 -0.000849204 0)
(-0.00939084 -0.000939588 0)
(-0.0083003 -0.00102182 0)
(-0.00726709 -0.00109 0)
(-0.00628198 -0.00113724 0)
(-0.00532517 -0.00116735 0)
(-0.00440354 -0.00118447 0)
(-0.00351637 -0.0011873 0)
(-0.00265363 -0.0011815 0)
(-0.00182423 -0.0011712 0)
(-0.00103372 -0.00115676 0)
(-0.000279325 -0.00114146 0)
(0.000430715 -0.0011271 0)
(0.00109265 -0.00111132 0)
(0.00171231 -0.00109511 0)
(0.00228802 -0.00107821 0)
(0.00282111 -0.00106165 0)
(0.00331296 -0.00104465 0)
(0.00376881 -0.00102553 0)
(0.00418337 -0.0010081 0)
(0.0045536 -0.000987325 0)
(0.00488876 -0.000967252 0)
(0.00518462 -0.000948735 0)
(0.00544039 -0.000932433 0)
(0.0056566 -0.000918508 0)
(0.00583091 -0.000906738 0)
(0.00596239 -0.00089687 0)
(0.00605156 -0.000889645 0)
(0.00609804 -0.000885534 0)
(0.00610144 -0.000885173 0)
(0.00606068 -0.000889409 0)
(0.00597603 -0.000898178 0)
(0.00584931 -0.000912647 0)
(0.00568086 -0.000933937 0)
(0.00547176 -0.000963252 0)
(0.00522408 -0.00100022 0)
(0.00494273 -0.00104491 0)
(0.00462907 -0.00109819 0)
(0.00428655 -0.00115748 0)
(0.003923 -0.00122285 0)
(0.00354339 -0.00129101 0)
(0.00315573 -0.00135819 0)
(0.00276856 -0.00142141 0)
(0.00238753 -0.00147858 0)
(0.00201962 -0.00152766 0)
(0.00167178 -0.00157034 0)
(0.0013508 -0.00161298 0)
(0.00106626 -0.00166758 0)
(0.000833442 -0.00174902 0)
(0.000651812 -0.00187498 0)
(0.000585257 -0.00204975 0)
(0.000479391 -0.00228068 0)
(0.00075717 -0.0021699 0)
(0.000720342 -0.000474739 0)
(-0.0017339 0.00329906 0)
(-0.00446752 0.00230071 0)
(-0.0077847 0.00266582 0)
(-0.0110637 0.00279191 0)
(-0.0143088 0.00279555 0)
(-0.017519 0.00282179 0)
(-0.0207429 0.00285803 0)
(-0.023972 0.00290054 0)
(-0.0272022 0.00294827 0)
(-0.0304274 0.00300083 0)
(-0.0336427 0.00305746 0)
(-0.0368441 0.00311738 0)
(-0.0400279 0.00317968 0)
(-0.0431902 0.0032434 0)
(-0.046327 0.00330789 0)
(-0.0494342 0.0033728 0)
(-0.052508 0.00343782 0)
(-0.0555447 0.00350261 0)
(-0.0585413 0.00356682 0)
(-0.0614956 0.00363019 0)
(-0.0644061 0.00369248 0)
(-0.0672726 0.00375361 0)
(-0.070096 0.00381397 0)
(-0.0728786 0.00387471 0)
(-0.0756241 0.00393757 0)
(-0.0783369 0.00400453 0)
(-0.0810219 0.00407742 0)
(-0.0836841 0.00415755 0)
(-0.0863285 0.00424556 0)
(-0.0889603 0.0043413 0)
(-0.0915841 0.00444402 0)
(-0.0942046 0.00455269 0)
(-0.0968255 0.00466655 0)
(-0.0994494 0.00478562 0)
(-0.102078 0.00491113 0)
(-0.104712 0.00504541 0)
(-0.107353 0.0051914 0)
(-0.110003 0.0053518 0)
(-0.112667 0.00552856 0)
(-0.115353 0.00572276 0)
(-0.118067 0.00593502 0)
(-0.12082 0.00616587 0)
(-0.123617 0.00641561 0)
(-0.126465 0.00668345 0)
(-0.129363 0.00696616 0)
(-0.132312 0.00725702 0)
(-0.135308 0.00754603 0)
(-0.138347 0.00782176 0)
(-0.141425 0.00807386 0)
(-0.144538 0.00829485 0)
(-0.147684 0.00848142 0)
(-0.15086 0.00863429 0)
(-0.154062 0.00875696 0)
(-0.157286 0.00885436 0)
(-0.160529 0.00893154 0)
(-0.163789 0.00899299 0)
(-0.167062 0.00904208 0)
(-0.170346 0.00908091 0)
(-0.173639 0.00911035 0)
(-0.176938 0.00913041 0)
(-0.180242 0.0091408 0)
(-0.18355 0.00914137 0)
(-0.186862 0.00913245 0)
(-0.190178 0.00911489 0)
(-0.193497 0.00908988 0)
(-0.196818 0.00905872 0)
(-0.200143 0.00902259 0)
(-0.203472 0.0089824 0)
(-0.206804 0.00893875 0)
(-0.21014 0.00889197 0)
(-0.213481 0.00884228 0)
(-0.216825 0.00878983 0)
(-0.220174 0.00873486 0)
(-0.223527 0.00867769 0)
(-0.226883 0.00861877 0)
(-0.230242 0.00855859 0)
(-0.233602 0.00849769 0)
(-0.236963 0.00843653 0)
(-0.240322 0.00837544 0)
(-0.243677 0.00831452 0)
(-0.247028 0.00825361 0)
(-0.25037 0.00819224 0)
(-0.253701 0.00812974 0)
(-0.257018 0.00806529 0)
(-0.260316 0.00799806 0)
(-0.263591 0.00792736 0)
(-0.26684 0.00785274 0)
(-0.270057 0.00777408 0)
(-0.27324 0.00769155 0)
(-0.276385 0.00760553 0)
(-0.279491 0.00751654 0)
(-0.282558 0.00742524 0)
(-0.285586 0.0073325 0)
(-0.288574 0.00723935 0)
(-0.291524 0.00714694 0)
(-0.294436 0.00705623 0)
(-0.297307 0.00696776 0)
(-0.300137 0.00688149 0)
(-0.302923 0.00679682 0)
(-0.305663 0.00671273 0)
(-0.308356 0.00662806 0)
(-0.310998 0.00654166 0)
(-0.313588 0.00645257 0)
(-0.316123 0.00636004 0)
(-0.318603 0.00626352 0)
(-0.321024 0.00616267 0)
(-0.323385 0.00605724 0)
(-0.325684 0.00594711 0)
(-0.32792 0.00583226 0)
(-0.330089 0.00571273 0)
(-0.332192 0.00558867 0)
(-0.334224 0.00546024 0)
(-0.336186 0.0053276 0)
(-0.338074 0.0051909 0)
(-0.339888 0.00505025 0)
(-0.341625 0.00490572 0)
(-0.343282 0.00475731 0)
(-0.344859 0.00460492 0)
(-0.346352 0.00444839 0)
(-0.34776 0.00428752 0)
(-0.349079 0.00412208 0)
(-0.350308 0.00395191 0)
(-0.351444 0.00377692 0)
(-0.352484 0.00359714 0)
(-0.353425 0.00341268 0)
(-0.354267 0.00322375 0)
(-0.355005 0.00303056 0)
(-0.355641 0.00283336 0)
(-0.356173 0.00263238 0)
(-0.356602 0.0024279 0)
(-0.35693 0.00222029 0)
(-0.357159 0.00201009 0)
(-0.357293 0.00179809 0)
(-0.357336 0.00158534 0)
(-0.357292 0.00137309 0)
(-0.357163 0.0011627 0)
(-0.356953 0.000955506 0)
(-0.356661 0.000752725 0)
(-0.35629 0.00055534 0)
(-0.35584 0.000364182 0)
(-0.355312 0.000183274 0)
(-0.354704 1.40633e-05 0)
(-0.354013 -0.000144364 0)
(-0.353244 -0.000291469 0)
(-0.352403 -0.000425712 0)
(-0.351495 -0.000545047 0)
(-0.350524 -0.000647348 0)
(-0.349493 -0.000730983 0)
(-0.348399 -0.000795438 0)
(-0.347235 -0.000842025 0)
(-0.34599 -0.000874746 0)
(-0.344643 -0.000900528 0)
(-0.343172 -0.00092794 0)
(-0.341551 -0.000966841 0)
(-0.339757 -0.00102701 0)
(-0.337766 -0.00111724 0)
(-0.335557 -0.00124447 0)
(-0.33312 -0.00141341 0)
(-0.330456 -0.00162776 0)
(-0.327576 -0.00189211 0)
(-0.324509 -0.00221723 0)
(-0.321304 -0.00261506 0)
(-0.318056 -0.00307395 0)
(-0.31482 -0.00355228 0)
(-0.311608 -0.0040176 0)
(-0.30843 -0.0044527 0)
(-0.305278 -0.00484972 0)
(-0.302139 -0.0052075 0)
(-0.298996 -0.00552952 0)
(-0.295834 -0.0058218 0)
(-0.292641 -0.00609121 0)
(-0.289405 -0.00634421 0)
(-0.286119 -0.00658616 0)
(-0.28278 -0.00682103 0)
(-0.279386 -0.00705137 0)
(-0.275936 -0.00727853 0)
(-0.272434 -0.00750281 0)
(-0.268882 -0.0077238 0)
(-0.265284 -0.00794052 0)
(-0.261642 -0.00815162 0)
(-0.257963 -0.00835559 0)
(-0.254249 -0.00855083 0)
(-0.250504 -0.00873589 0)
(-0.24673 -0.00890953 0)
(-0.242932 -0.00907088 0)
(-0.239109 -0.0092195 0)
(-0.235262 -0.00935543 0)
(-0.231393 -0.00947913 0)
(-0.227499 -0.00959144 0)
(-0.22358 -0.00969342 0)
(-0.219633 -0.00978624 0)
(-0.215657 -0.00987106 0)
(-0.211648 -0.00994884 0)
(-0.207606 -0.0100203 0)
(-0.203527 -0.010086 0)
(-0.199412 -0.0101461 0)
(-0.195261 -0.0102007 0)
(-0.191074 -0.0102496 0)
(-0.186854 -0.0102926 0)
(-0.182605 -0.0103296 0)
(-0.178331 -0.0103603 0)
(-0.174038 -0.0103846 0)
(-0.169732 -0.0104024 0)
(-0.165418 -0.0104136 0)
(-0.161102 -0.010418 0)
(-0.15679 -0.0104156 0)
(-0.152486 -0.0104065 0)
(-0.148195 -0.0103906 0)
(-0.14392 -0.0103679 0)
(-0.139664 -0.0103384 0)
(-0.13543 -0.0103022 0)
(-0.13122 -0.0102593 0)
(-0.127035 -0.0102095 0)
(-0.122878 -0.0101528 0)
(-0.118752 -0.0100891 0)
(-0.114657 -0.0100184 0)
(-0.110597 -0.00994063 0)
(-0.106574 -0.00985583 0)
(-0.102591 -0.00976405 0)
(-0.0986503 -0.00966543 0)
(-0.0947541 -0.0095602 0)
(-0.0909053 -0.0094486 0)
(-0.0871063 -0.00933098 0)
(-0.0833595 -0.0092077 0)
(-0.079667 -0.00907915 0)
(-0.076031 -0.00894573 0)
(-0.0724534 -0.00880785 0)
(-0.068936 -0.0086659 0)
(-0.0654803 -0.00852029 0)
(-0.062088 -0.0083714 0)
(-0.0587603 -0.00821961 0)
(-0.0554985 -0.00806527 0)
(-0.0523035 -0.00790873 0)
(-0.0491763 -0.00775031 0)
(-0.0461175 -0.00759029 0)
(-0.0431278 -0.00742894 0)
(-0.0402075 -0.00726646 0)
(-0.0373568 -0.00710302 0)
(-0.034576 -0.00693874 0)
(-0.0318651 -0.00677367 0)
(-0.0292237 -0.00660779 0)
(-0.0266518 -0.006441 0)
(-0.0241488 -0.00627309 0)
(-0.0217142 -0.00610375 0)
(-0.0193471 -0.00593254 0)
(-0.0170464 -0.0057589 0)
(-0.014811 -0.0055821 0)
(-0.0126388 -0.00540128 0)
(-0.0105272 -0.00521532 0)
(-0.00847249 -0.0050228 0)
(-0.00646879 -0.00482188 0)
(-0.00450838 -0.00461064 0)
(-0.00258139 -0.00438762 0)
(-0.000676835 -0.00415248 0)
(0.001214 -0.00390661 0)
(0.00309541 -0.0036531 0)
(0.00496631 -0.00339529 0)
(0.00682074 -0.00313575 0)
(0.00864981 -0.00287372 0)
(0.0104439 -0.00260637 0)
(0.0121954 -0.0023282 0)
(0.0138982 -0.00203387 0)
(0.0155466 -0.00171932 0)
(0.0171353 -0.0013808 0)
(0.0186625 -0.00101865 0)
(0.0201197 -0.000629993 0)
(0.0214965 -0.000216924 0)
(0.0227867 0.000216518 0)
(0.023983 0.000664708 0)
(0.0250811 0.00111914 0)
(0.0260802 0.00156812 0)
(0.0269704 0.00199409 0)
(0.0277458 0.00238185 0)
(0.0284123 0.0027171 0)
(0.0289747 0.00298828 0)
(0.0294853 0.00318019 0)
(0.030007 0.00327559 0)
(0.030622 0.00326073 0)
(0.031415 0.0031211 0)
(0.0324583 0.00283302 0)
(0.0336782 0.00232215 0)
(0.0350528 0.00151051 0)
(0.0362535 0.000454229 0)
(0.0371573 -0.00069332 0)
(0.037984 -0.00177919 0)
(0.0387777 -0.00271322 0)
(0.0395933 -0.00345969 0)
(0.0405015 -0.00401623 0)
(0.0415457 -0.00439604 0)
(0.0427424 -0.00461486 0)
(0.0440808 -0.00468429 0)
(0.0455296 -0.00461422 0)
(0.0470328 -0.00442341 0)
(0.0485275 -0.00414023 0)
(0.0499642 -0.00380266 0)
(0.0513045 -0.00344518 0)
(0.0525214 -0.00309785 0)
(0.0536006 -0.0027814 0)
(0.0545411 -0.00250704 0)
(0.0553478 -0.00227982 0)
(0.056027 -0.00209548 0)
(0.0565905 -0.00194692 0)
(0.0570542 -0.00182727 0)
(0.0574343 -0.0017239 0)
(0.0577466 -0.00162522 0)
(0.0580045 -0.00152357 0)
(0.0582152 -0.00141311 0)
(0.0583804 -0.00129154 0)
(0.058499 -0.00116212 0)
(0.0585652 -0.0010283 0)
(0.0585733 -0.000894869 0)
(0.058518 -0.000766088 0)
(0.0583962 -0.000642854 0)
(0.0582063 -0.000524305 0)
(0.0579498 -0.00040905 0)
(0.0576312 -0.000297998 0)
(0.0572544 -0.000187399 0)
(0.0568229 -7.52725e-05 0)
(0.0563396 3.89862e-05 0)
(0.0558056 0.000156319 0)
(0.0552191 0.000277269 0)
(0.0545797 0.00040204 0)
(0.0538858 0.000530884 0)
(0.0531347 0.00066414 0)
(0.0523235 0.000801241 0)
(0.0514488 0.000942159 0)
(0.0505062 0.00108713 0)
(0.0494901 0.00123618 0)
(0.048395 0.00138903 0)
(0.0472137 0.00154542 0)
(0.0459379 0.00170458 0)
(0.0445595 0.00186492 0)
(0.0430695 0.00202376 0)
(0.0414592 0.00217806 0)
(0.0397202 0.00232253 0)
(0.0378454 0.0024522 0)
(0.0358318 0.00256257 0)
(0.03368 0.00264949 0)
(0.0313939 0.00270835 0)
(0.0289811 0.00273656 0)
(0.0264551 0.00273397 0)
(0.0238335 0.00270087 0)
(0.0211343 0.00263918 0)
(0.0183748 0.00255268 0)
(0.0155712 0.00244912 0)
(0.0127316 0.00234568 0)
(0.0098515 0.00227066 0)
(0.00688145 0.0020979 0)
(0.00398418 0.00172062 0)
(0.00138824 0.00296666 0)
(-0.00220516 0.00947387 0)
(-0.00551069 0.00837837 0)
(-0.00946708 0.00906961 0)
(-0.0134491 0.00919399 0)
(-0.0174343 0.00918186 0)
(-0.0213664 0.00920115 0)
(-0.0252834 0.00921886 0)
(-0.0291637 0.00922673 0)
(-0.0330012 0.00922685 0)
(-0.0367878 0.00922042 0)
(-0.0405167 0.00920726 0)
(-0.0441812 0.00918672 0)
(-0.0477758 0.00915799 0)
(-0.0512953 0.00912039 0)
(-0.0547356 0.0090737 0)
(-0.0580936 0.00901839 0)
(-0.0613672 0.00895565 0)
(-0.0645558 0.00888732 0)
(-0.06766 0.00881588 0)
(-0.0706822 0.00874434 0)
(-0.0736263 0.00867615 0)
(-0.0764976 0.00861495 0)
(-0.0793031 0.00856417 0)
(-0.0820505 0.00852651 0)
(-0.0847478 0.00850367 0)
(-0.0874026 0.0084964 0)
(-0.0900215 0.00850484 0)
(-0.0926103 0.00852886 0)
(-0.0951738 0.00856833 0)
(-0.0977161 0.00862301 0)
(-0.100242 0.00869223 0)
(-0.102754 0.00877459 0)
(-0.105258 0.00886802 0)
(-0.107756 0.00897028 0)
(-0.110252 0.00907984 0)
(-0.112749 0.00919679 0)
(-0.115246 0.00932326 0)
(-0.117743 0.0094632 0)
(-0.120239 0.00962162 0)
(-0.122735 0.00980366 0)
(-0.125229 0.0100137 0)
(-0.127721 0.0102547 0)
(-0.130211 0.0105271 0)
(-0.132697 0.0108284 0)
(-0.135176 0.0111521 0)
(-0.137646 0.0114874 0)
(-0.140102 0.0118213 0)
(-0.142541 0.0121399 0)
(-0.144965 0.0124314 0)
(-0.147377 0.012688 0)
(-0.149784 0.0129068 0)
(-0.152194 0.0130897 0)
(-0.154613 0.0132416 0)
(-0.157048 0.0133691 0)
(-0.159502 0.0134782 0)
(-0.161981 0.0135734 0)
(-0.164485 0.0136574 0)
(-0.167015 0.013731 0)
(-0.169572 0.0137939 0)
(-0.172156 0.0138457 0)
(-0.174766 0.0138863 0)
(-0.177403 0.0139161 0)
(-0.180067 0.0139363 0)
(-0.182759 0.0139485 0)
(-0.18548 0.0139543 0)
(-0.18823 0.013955 0)
(-0.19101 0.0139516 0)
(-0.193819 0.0139444 0)
(-0.196657 0.0139334 0)
(-0.199524 0.0139184 0)
(-0.202417 0.0138989 0)
(-0.205335 0.0138749 0)
(-0.208278 0.0138462 0)
(-0.211242 0.0138129 0)
(-0.214227 0.0137751 0)
(-0.21723 0.0137332 0)
(-0.220249 0.0136873 0)
(-0.22328 0.0136374 0)
(-0.226321 0.0135834 0)
(-0.22937 0.0135251 0)
(-0.232422 0.013462 0)
(-0.235476 0.0133935 0)
(-0.238527 0.0133188 0)
(-0.241574 0.0132371 0)
(-0.244614 0.0131474 0)
(-0.247645 0.0130487 0)
(-0.250665 0.0129407 0)
(-0.253672 0.0128236 0)
(-0.256665 0.0126983 0)
(-0.259642 0.0125664 0)
(-0.262603 0.0124296 0)
(-0.265546 0.0122896 0)
(-0.268468 0.0121476 0)
(-0.271369 0.0120044 0)
(-0.274246 0.0118604 0)
(-0.277095 0.0117154 0)
(-0.279913 0.0115687 0)
(-0.282697 0.0114192 0)
(-0.285443 0.0112657 0)
(-0.288149 0.0111072 0)
(-0.29081 0.0109427 0)
(-0.293425 0.0107715 0)
(-0.295991 0.0105932 0)
(-0.298507 0.0104074 0)
(-0.30097 0.0102142 0)
(-0.303379 0.0100132 0)
(-0.305732 0.00980456 0)
(-0.308027 0.00958821 0)
(-0.310263 0.00936423 0)
(-0.312439 0.00913268 0)
(-0.314553 0.00889364 0)
(-0.316602 0.00864718 0)
(-0.318587 0.00839341 0)
(-0.320505 0.00813242 0)
(-0.322355 0.0078643 0)
(-0.324134 0.00758916 0)
(-0.325843 0.00730709 0)
(-0.327479 0.00701824 0)
(-0.329041 0.00672279 0)
(-0.330528 0.00642099 0)
(-0.331939 0.0061132 0)
(-0.333274 0.00579984 0)
(-0.334532 0.00548136 0)
(-0.335715 0.00515823 0)
(-0.336821 0.00483085 0)
(-0.337853 0.00449955 0)
(-0.338809 0.00416458 0)
(-0.339692 0.00382625 0)
(-0.340503 0.00348495 0)
(-0.341241 0.00314128 0)
(-0.341907 0.00279611 0)
(-0.342501 0.00245059 0)
(-0.343023 0.00210603 0)
(-0.343472 0.00176378 0)
(-0.343847 0.00142503 0)
(-0.344145 0.00109064 0)
(-0.344364 0.000761056 0)
(-0.344504 0.000436322 0)
(-0.344561 0.000116316 0)
(-0.344528 -0.000198983 0)
(-0.344403 -0.000510056 0)
(-0.34419 -0.000814583 0)
(-0.343891 -0.00111126 0)
(-0.343499 -0.00139771 0)
(-0.343012 -0.00167145 0)
(-0.342426 -0.00193043 0)
(-0.341736 -0.00217418 0)
(-0.340937 -0.00240467 0)
(-0.340023 -0.00262683 0)
(-0.33899 -0.0028485 0)
(-0.337832 -0.00307918 0)
(-0.33655 -0.00332928 0)
(-0.335143 -0.0036094 0)
(-0.333614 -0.00392823 0)
(-0.33197 -0.00429144 0)
(-0.330221 -0.00470124 0)
(-0.328377 -0.00515672 0)
(-0.326448 -0.00565292 0)
(-0.324442 -0.006179 0)
(-0.322366 -0.00671759 0)
(-0.32023 -0.00724162 0)
(-0.318042 -0.00772038 0)
(-0.315808 -0.00814303 0)
(-0.313531 -0.0085291 0)
(-0.31121 -0.00889573 0)
(-0.308838 -0.00925148 0)
(-0.306407 -0.00960163 0)
(-0.303909 -0.00994973 0)
(-0.301337 -0.0102979 0)
(-0.298686 -0.0106472 0)
(-0.295954 -0.0109977 0)
(-0.293141 -0.0113487 0)
(-0.290246 -0.0116992 0)
(-0.287272 -0.0120478 0)
(-0.284222 -0.012393 0)
(-0.281098 -0.0127333 0)
(-0.277904 -0.0130672 0)
(-0.274641 -0.0133932 0)
(-0.271314 -0.0137099 0)
(-0.267924 -0.0140158 0)
(-0.264473 -0.0143094 0)
(-0.260962 -0.0145893 0)
(-0.257395 -0.0148543 0)
(-0.25377 -0.0151034 0)
(-0.25009 -0.015336 0)
(-0.246355 -0.0155519 0)
(-0.242567 -0.0157517 0)
(-0.238725 -0.0159361 0)
(-0.234833 -0.0161068 0)
(-0.23089 -0.0162653 0)
(-0.226899 -0.0164134 0)
(-0.222862 -0.0165529 0)
(-0.218781 -0.016685 0)
(-0.214658 -0.0168105 0)
(-0.210497 -0.0169298 0)
(-0.206299 -0.0170426 0)
(-0.202069 -0.0171481 0)
(-0.197808 -0.0172454 0)
(-0.193522 -0.0173332 0)
(-0.189212 -0.0174102 0)
(-0.184883 -0.0174752 0)
(-0.180539 -0.017527 0)
(-0.176183 -0.0175646 0)
(-0.171819 -0.0175876 0)
(-0.167452 -0.0175956 0)
(-0.163084 -0.0175887 0)
(-0.15872 -0.0175671 0)
(-0.154363 -0.0175315 0)
(-0.150017 -0.0174826 0)
(-0.145685 -0.017421 0)
(-0.141371 -0.0173474 0)
(-0.137077 -0.0172624 0)
(-0.132807 -0.0171661 0)
(-0.128564 -0.017059 0)
(-0.124351 -0.0169408 0)
(-0.12017 -0.0168117 0)
(-0.116026 -0.0166715 0)
(-0.11192 -0.0165202 0)
(-0.107856 -0.0163578 0)
(-0.103835 -0.0161845 0)
(-0.0998619 -0.0160006 0)
(-0.0959375 -0.0158063 0)
(-0.0920646 -0.0156022 0)
(-0.0882453 -0.0153889 0)
(-0.0844819 -0.0151668 0)
(-0.0807761 -0.0149366 0)
(-0.0771299 -0.0146989 0)
(-0.0735449 -0.0144543 0)
(-0.0700227 -0.0142034 0)
(-0.0665645 -0.0139468 0)
(-0.0631717 -0.0136852 0)
(-0.0598453 -0.0134191 0)
(-0.0565862 -0.0131491 0)
(-0.0533952 -0.0128756 0)
(-0.0502731 -0.0125993 0)
(-0.0472203 -0.0123206 0)
(-0.0442373 -0.0120399 0)
(-0.0413242 -0.0117575 0)
(-0.0384813 -0.0114739 0)
(-0.0357084 -0.0111892 0)
(-0.0330055 -0.0109037 0)
(-0.0303723 -0.0106175 0)
(-0.0278082 -0.0103305 0)
(-0.0253127 -0.0100427 0)
(-0.0228848 -0.00975409 0)
(-0.0205235 -0.00946438 0)
(-0.0182273 -0.00917338 0)
(-0.0159945 -0.00888085 0)
(-0.013823 -0.00858686 0)
(-0.0117102 -0.00829208 0)
(-0.00965279 -0.00799829 0)
(-0.00764704 -0.00770843 0)
(-0.00568833 -0.00742606 0)
(-0.0037716 -0.00715417 0)
(-0.001892 -0.00689359 0)
(-4.49936e-05 -0.00664135 0)
(0.00177197 -0.0063913 0)
(0.00356106 -0.00613582 0)
(0.0053233 -0.00586796 0)
(0.00706067 -0.00558462 0)
(0.00877755 -0.00528408 0)
(0.0104783 -0.00496611 0)
(0.0121713 -0.00463016 0)
(0.0138614 -0.00427479 0)
(0.0155558 -0.00389789 0)
(0.0172647 -0.00350085 0)
(0.018993 -0.00308203 0)
(0.0207467 -0.00264369 0)
(0.0225305 -0.0021888 0)
(0.0243457 -0.00172484 0)
(0.0261866 -0.00126135 0)
(0.0280533 -0.000814555 0)
(0.0299434 -0.000391352 0)
(0.0318429 -8.498e-06 0)
(0.0337377 0.000317662 0)
(0.0356113 0.000567476 0)
(0.0374409 0.000715387 0)
(0.0391914 0.000717017 0)
(0.0408381 0.000502827 0)
(0.0423737 -9.86814e-06 0)
(0.043782 -0.000853551 0)
(0.0450258 -0.00184846 0)
(0.0460336 -0.00275477 0)
(0.0467729 -0.00347948 0)
(0.0472789 -0.00403063 0)
(0.0476068 -0.00443299 0)
(0.0478166 -0.00473059 0)
(0.0479615 -0.00498182 0)
(0.0480803 -0.00521957 0)
(0.0481973 -0.00543646 0)
(0.0483274 -0.00559728 0)
(0.0484765 -0.00566136 0)
(0.0486478 -0.00560779 0)
(0.0488485 -0.00543772 0)
(0.0490854 -0.00517469 0)
(0.0493581 -0.00485127 0)
(0.0496595 -0.00449743 0)
(0.0499801 -0.00413132 0)
(0.0503061 -0.00376481 0)
(0.0506203 -0.00340704 0)
(0.0509066 -0.00306672 0)
(0.0511538 -0.00275359 0)
(0.0513558 -0.00247624 0)
(0.0515104 -0.00223813 0)
(0.0516192 -0.00203666 0)
(0.0516873 -0.00186077 0)
(0.0517192 -0.00169843 0)
(0.0517183 -0.00153543 0)
(0.0516861 -0.00136022 0)
(0.0516204 -0.00116754 0)
(0.0515181 -0.000958022 0)
(0.0513768 -0.000736231 0)
(0.0511932 -0.000508868 0)
(0.0509666 -0.00028254 0)
(0.0506957 -6.30538e-05 0)
(0.0503815 0.000146848 0)
(0.0500263 0.000345758 0)
(0.0496319 0.000535255 0)
(0.0492031 0.000718449 0)
(0.0487425 0.000898712 0)
(0.0482512 0.00108084 0)
(0.0477296 0.00126613 0)
(0.047179 0.00145626 0)
(0.0465988 0.00165372 0)
(0.0459881 0.00185988 0)
(0.0453458 0.00207575 0)
(0.0446693 0.00230261 0)
(0.0439549 0.00254306 0)
(0.0431982 0.00279901 0)
(0.0423931 0.00307197 0)
(0.0415314 0.00336388 0)
(0.040604 0.00367656 0)
(0.0396018 0.00401026 0)
(0.0385094 0.0043639 0)
(0.0373096 0.004734 0)
(0.0359896 0.00511596 0)
(0.0345333 0.00550265 0)
(0.0329234 0.00588443 0)
(0.0311459 0.00625022 0)
(0.0291905 0.00658873 0)
(0.0270498 0.00688767 0)
(0.0247218 0.00713792 0)
(0.0222109 0.00732968 0)
(0.0195278 0.00745553 0)
(0.0166901 0.00751447 0)
(0.0137213 0.0075242 0)
(0.010651 0.00752958 0)
(0.0075498 0.0074297 0)
(0.00462478 0.00685649 0)
(0.00186724 0.00830011 0)
(-0.00220243 0.0156615 0)
(-0.00498007 0.0141391 0)
(-0.00842541 0.0153414 0)
(-0.0120348 0.0155937 0)
(-0.015677 0.0155198 0)
(-0.019226 0.0154654 0)
(-0.0227356 0.0154097 0)
(-0.0261903 0.01533 0)
(-0.0295846 0.0152283 0)
(-0.0329103 0.0151076 0)
(-0.0361618 0.0149695 0)
(-0.0393347 0.0148148 0)
(-0.0424255 0.0146449 0)
(-0.0454323 0.0144616 0)
(-0.0483545 0.0142671 0)
(-0.0511933 0.0140644 0)
(-0.0539515 0.0138571 0)
(-0.0566333 0.0136492 0)
(-0.0592439 0.0134453 0)
(-0.0617899 0.0132501 0)
(-0.0642784 0.0130686 0)
(-0.0667173 0.0129057 0)
(-0.0691146 0.0127659 0)
(-0.0714782 0.0126522 0)
(-0.0738156 0.0125661 0)
(-0.0761337 0.0125074 0)
(-0.0784384 0.0124747 0)
(-0.0807347 0.0124663 0)
(-0.0830266 0.0124804 0)
(-0.0853174 0.0125156 0)
(-0.0876097 0.0125709 0)
(-0.0899061 0.0126451 0)
(-0.0922091 0.0127368 0)
(-0.0945219 0.0128446 0)
(-0.0968476 0.0129667 0)
(-0.0991895 0.013102 0)
(-0.10155 0.0132498 0)
(-0.103931 0.0134104 0)
(-0.10633 0.0135851 0)
(-0.108747 0.0137753 0)
(-0.111178 0.0139826 0)
(-0.113616 0.0142075 0)
(-0.116057 0.0144495 0)
(-0.118495 0.0147063 0)
(-0.120924 0.0149739 0)
(-0.123341 0.0152468 0)
(-0.125746 0.0155187 0)
(-0.12814 0.0157835 0)
(-0.130528 0.0160356 0)
(-0.132918 0.0162714 0)
(-0.135316 0.0164894 0)
(-0.137731 0.0166901 0)
(-0.140168 0.0168752 0)
(-0.142633 0.0170469 0)
(-0.145126 0.017207 0)
(-0.147651 0.0173566 0)
(-0.150207 0.0174961 0)
(-0.152794 0.0176254 0)
(-0.155413 0.0177442 0)
(-0.158063 0.0178523 0)
(-0.160744 0.0179502 0)
(-0.163457 0.0180385 0)
(-0.166203 0.0181182 0)
(-0.168979 0.0181906 0)
(-0.171788 0.0182565 0)
(-0.174626 0.0183166 0)
(-0.177494 0.0183712 0)
(-0.18039 0.0184202 0)
(-0.183311 0.0184631 0)
(-0.186257 0.0184994 0)
(-0.189226 0.0185286 0)
(-0.192216 0.01855 0)
(-0.195225 0.0185635 0)
(-0.198251 0.0185686 0)
(-0.201293 0.0185654 0)
(-0.204348 0.0185537 0)
(-0.207413 0.0185334 0)
(-0.210488 0.0185045 0)
(-0.213569 0.0184668 0)
(-0.216654 0.01842 0)
(-0.219741 0.0183638 0)
(-0.222828 0.0182979 0)
(-0.225913 0.018222 0)
(-0.228993 0.0181359 0)
(-0.232068 0.0180397 0)
(-0.235137 0.0179334 0)
(-0.238197 0.0178174 0)
(-0.241249 0.0176923 0)
(-0.244292 0.0175587 0)
(-0.247324 0.0174172 0)
(-0.250344 0.0172681 0)