/*--------------------------------*- C++ -*----------------------------------*\
| =========                 |                                                 |
| \\      /  F ield         | OpenFOAM: The Open Source CFD Toolbox           |
|  \\    /   O peration     | Version:  v2006                                 |
|   \\  /    A nd           | Website:  www.openfoam.com                      |
|    \\/     M anipulation  |                                                 |
\*---------------------------------------------------------------------------*/
FoamFile
{
    version     2.0;
    format      ascii;
    class       volScalarField;
    location    "0";
    object      f;
}
// * * * * * * * * * * * * * * * * * * * * * * * * * * * * * * * * * * * * * //

dimensions      [0 0 0 0 0 0 0];


internalField   nonuniform List<scalar> 
2500
(
-5.31645e-17
-5.3151e-17
-5.31235e-17
-5.3828e-17
-5.5024e-17
-5.69062e-17
-6.34937e-17
-6.35845e-17
-1.20893e-16
-2.63842e-15
-1.60466e-15
5.43974e-15
8.80414e-15
-9.64665e-15
-2.8657e-14
-6.23666e-15
5.80026e-14
9.18873e-14
4.20196e-14
-8.34857e-14
-3.63619e-13
-6.45252e-13
-3.62254e-13
-4.75266e-14
3.16533e-13
3.60422e-13
1.4363e-13
6.10747e-14
-1.4149e-13
-1.74446e-13
-9.90074e-14
-3.97095e-14
-8.11372e-15
4.73592e-15
1.1657e-14
5.46408e-15
9.95916e-16
2.1494e-16
1.16249e-16
8.7355e-17
6.02048e-17
3.72938e-17
2.17066e-17
1.23609e-17
7.08855e-18
4.14646e-18
2.46278e-18
1.46204e-18
8.52233e-19
4.80871e-19
-5.61547e-17
-5.61306e-17
-5.6068e-17
-5.70243e-17
-5.89971e-17
-6.08477e-17
-6.7996e-17
-5.35869e-17
5.61881e-16
-7.28255e-15
1.31551e-14
6.53017e-14
3.10216e-14
-7.50728e-14
-1.27798e-13
3.36747e-14
2.11384e-13
2.56025e-13
-1.92966e-13
-2.92877e-12
-4.3652e-12
-4.0839e-12
-1.09995e-12
5.47802e-12
5.03724e-12
1.34736e-12
-7.37077e-13
-2.82235e-12
-2.38529e-12
-1.29276e-12
-4.69587e-13
-9.89663e-14
1.0209e-13
1.75857e-13
8.71402e-14
1.5764e-14
-6.46697e-17
-1.94232e-16
1.14487e-16
1.70528e-16
1.24931e-16
7.44317e-17
4.11962e-17
2.25124e-17
1.25882e-17
7.29897e-18
4.34373e-18
2.59136e-18
1.51404e-18
8.52172e-19
9.63987e-14
9.54879e-14
1.03179e-13
8.83007e-14
7.56036e-14
1.10536e-13
1.26794e-13
9.3549e-14
4.25625e-14
2.27252e-14
2.50941e-13
2.40474e-13
-6.92675e-14
-2.5793e-13
-2.17813e-13
3.83733e-13
3.1466e-13
-5.43525e-14
-7.45396e-12
-1.13209e-11
-1.43974e-11
-8.55176e-12
1.8579e-11
2.69795e-11
1.44512e-11
3.42453e-13
-2.17064e-11
-1.75068e-11
-8.22937e-12
-2.53555e-12
-7.4015e-13
1.15077e-12
1.61708e-12
8.27285e-13
1.81023e-13
-9.3962e-15
-8.25108e-15
-1.49621e-15
3.38869e-16
4.61449e-16
2.74161e-16
1.41323e-16
7.13749e-17
3.69769e-17
2.02807e-17
1.18557e-17
7.20568e-18
4.38437e-18
2.59121e-18
1.46185e-18
9.06336e-13
9.06466e-13
9.13365e-13
8.94052e-13
8.82662e-13
9.52711e-13
9.74103e-13
8.23436e-13
7.5473e-13
9.9062e-13
1.03755e-12
3.83981e-13
-6.19375e-13
-4.25064e-13
3.7193e-12
2.79512e-12
-9.72188e-12
-3.8408e-11
-3.81901e-11
-1.81515e-11
-2.74648e-11
1.07865e-10
1.12543e-10
5.01999e-11
-1.72671e-12
-1.28115e-10
-9.74039e-11
-3.91062e-11
-1.23017e-11
4.63096e-12
1.68575e-11
1.39844e-11
6.61193e-12
1.56033e-12
-1.97196e-13
-1.48414e-13
-3.12627e-14
7.18403e-16
3.62532e-15
1.57129e-15
5.53252e-16
2.29299e-16
1.04761e-16
5.21504e-17
2.8957e-17
1.77659e-17
1.13937e-17
7.20532e-18
4.34328e-18
2.46236e-18
2.94343e-12
2.95793e-12
2.90327e-12
2.96892e-12
3.05079e-12
3.01313e-12
2.94947e-12
2.63467e-12
3.01154e-12
4.0172e-12
2.29475e-12
-1.73887e-12
-1.43516e-12
1.54004e-11
3.88655e-11
1.45117e-11
-1.03563e-10
-1.89293e-10
-9.23258e-11
3.6032e-10
1.02014e-09
8.71381e-10
2.75602e-10
-4.88348e-10
-1.01044e-09
-6.76348e-10
-1.91683e-10
9.36636e-12
2.47386e-10
2.27068e-10
1.26999e-10
5.14263e-11
1.17748e-11
-3.59378e-12
-2.26817e-12
-4.79069e-13
8.4106e-15
4.76084e-14
2.00372e-14
3.44364e-15
6.48693e-16
2.50088e-16
1.13567e-16
5.86025e-17
3.60236e-17
2.51196e-17
1.77652e-17
1.18547e-17
7.29797e-18
4.14564e-18
6.33947e-12
6.39922e-12
6.15885e-12
6.46817e-12
6.83123e-12
6.34744e-12
6.0232e-12
5.713e-12
7.41743e-12
1.03327e-11
2.67606e-12
-8.89266e-12
1.68809e-11
7.75968e-11
1.29999e-10
3.74297e-11
-3.65624e-10
-4.44939e-10
1.4476e-09
4.68415e-09
6.25676e-09
3.01555e-09
-2.86551e-09
-6.08849e-09
-4.58e-09
-1.41703e-09
8.74672e-10
2.77921e-09
1.99568e-09
9.69968e-10
3.57067e-10
8.6284e-11
-4.96931e-11
-3.02122e-11
-6.64843e-12
-2.24072e-14
4.56849e-13
2.23547e-13
4.36582e-14
1.93435e-15
1.56867e-16
1.17199e-16
7.13111e-17
4.78017e-17
4.03705e-17
3.60221e-17
2.89548e-17
2.02785e-17
1.25864e-17
7.08712e-18
1.02281e-11
1.0364e-11
9.82587e-12
1.05147e-11
1.13248e-11
1.00183e-11
9.28046e-12
9.31525e-12
1.35703e-11
1.94206e-11
-2.11709e-12
-1.69657e-11
6.98208e-11
1.91153e-10
2.64918e-10
4.61753e-11
-6.92179e-10
1.50421e-09
8.62188e-09
1.53991e-08
1.64718e-08
5.20021e-09
-1.68823e-08
-1.93886e-08
-8.3733e-09
3.20996e-09
1.81879e-08
1.34608e-08
5.50056e-09
1.68294e-09
5.11117e-10
-5.84756e-10
-3.49104e-10
-7.73181e-11
-2.12616e-12
3.33079e-12
1.85263e-12
4.45514e-13
2.69157e-14
-1.08789e-15
-2.83479e-16
-3.77963e-17
6.56973e-18
2.60973e-17
4.77993e-17
5.85987e-17
5.2146e-17
3.6973e-17
2.25092e-17
1.23586e-17
1.1811e-11
1.19909e-11
1.1301e-11
1.21791e-11
1.31999e-11
1.14588e-11
1.04804e-11
1.08193e-11
1.6754e-11
2.41286e-11
-1.57453e-11
-1.57552e-11
1.19673e-10
2.52442e-10
3.53059e-10
-6.36598e-10
3.44329e-09
1.93782e-08
2.65895e-08
2.31711e-08
2.38598e-08
-2.97465e-08
-4.16543e-08
-3.07524e-08
1.95975e-08
1.17093e-07
8.26007e-08
2.62257e-08
7.05648e-09
-1.98563e-09
-7.79786e-09
-4.06693e-09
-8.15211e-10
-2.09811e-11
2.17972e-11
1.26198e-11
3.4229e-12
3.01648e-13
-1.63373e-14
-5.0421e-15
-5.09868e-16
-3.46319e-17
-2.542e-17
6.5675e-18
7.13061e-17
1.1356e-16
1.04754e-16
7.13684e-17
4.11914e-17
2.17031e-17
-1.94432e-08
-1.94275e-08
-1.93699e-08
-1.94598e-08
-1.96128e-08
-1.95012e-08
-1.89114e-08
-1.89223e-08
-2.06764e-08
-2.21068e-08
-1.78632e-08
-1.17061e-08
-1.47702e-08
-3.49742e-08
-6.42227e-08
-5.09975e-08
3.20084e-08
6.93872e-08
5.13209e-08
-1.73106e-07
-4.68998e-07
-3.16642e-07
-1.91865e-08
2.63521e-07
7.2477e-07
5.49968e-07
1.63772e-07
-6.07912e-08
-1.64632e-07
-1.27472e-07
-5.2807e-08
-1.00338e-08
-1.41815e-10
1.28829e-10
7.8181e-11
2.34304e-11
2.58401e-12
-1.52284e-13
-6.21481e-14
-7.28491e-15
1.09931e-15
4.25571e-16
-3.46312e-17
-3.77986e-17
1.17192e-16
2.50076e-16
2.29286e-16
1.41313e-16
7.44245e-17
3.7289e-17
-4.79023e-07
-4.79001e-07
-4.78766e-07
-4.79105e-07
-4.79628e-07
-4.7867e-07
-4.77183e-07
-4.7941e-07
-4.84231e-07
-4.82339e-07
-4.66852e-07
-4.54768e-07
-5.04038e-07
-5.71983e-07
-5.51594e-07
-2.9062e-07
7.14871e-08
1.04455e-07
-1.18157e-06
-2.90044e-06
-3.29437e-06
-1.083e-06
2.70567e-06
4.29389e-06
3.24359e-06
1.04043e-06
-1.30596e-06
-1.94583e-06
-1.32391e-06
-5.6818e-07
-1.37366e-07
-7.16307e-09
6.20773e-10
4.05093e-10
1.46816e-10
2.47807e-11
-7.41617e-13
-3.71993e-13
-8.09516e-14
5.01684e-15
4.41609e-15
1.09931e-15
-5.09849e-16
-2.83472e-16
1.56863e-16
6.48671e-16
5.53227e-16
2.74145e-16
1.24921e-16
6.01985e-17
-1.90424e-06
-1.90443e-06
-1.90442e-06
-1.9043e-06
-1.90384e-06
-1.90149e-06
-1.90566e-06
-1.9161e-06
-1.90562e-06
-1.87001e-06
-1.87928e-06
-1.96089e-06
-2.1081e-06
-2.09942e-06
-1.6322e-06
-7.27922e-07
3.20816e-08
-2.19843e-06
-7.01241e-06
-1.04899e-05
-9.51087e-06
-7.11621e-07
1.1876e-05
1.52778e-05
7.27439e-06
-5.38552e-06
-1.03831e-05
-7.87436e-06
-3.86574e-06
-1.26304e-06
-1.87974e-07
2.25302e-09
1.50329e-09
6.86754e-10
1.88106e-10
1.11934e-11
-5.39089e-13
-2.65775e-13
3.56001e-14
2.05857e-14
5.01702e-15
-7.28459e-15
-5.0419e-15
-1.08785e-15
1.93425e-15
3.44348e-15
1.57122e-15
4.61425e-16
1.70516e-16
8.73476e-17
-4.21612e-06
-4.21683e-06
-4.21777e-06
-4.21603e-06
-4.2122e-06
-4.20863e-06
-4.22848e-06
-4.25377e-06
-4.19915e-06
-4.08905e-06
-4.18794e-06
-4.49219e-06
-4.76532e-06
-4.56002e-06
-2.87649e-06
-9.69048e-07
-2.7703e-06
-1.00438e-05
-1.87164e-05
-2.25196e-05
-1.42817e-05
9.13263e-06
2.63011e-05
2.79877e-05
9.045e-06
-3.23108e-05
-2.91725e-05
-1.63363e-05
-6.5804e-06
-1.76724e-06
-1.46096e-07
2.11861e-09
1.79804e-09
8.51717e-10
2.07624e-10
5.89217e-12
4.71408e-13
8.12897e-13
4.30923e-13
3.56016e-14
-8.09493e-14
-6.21461e-14
-1.63367e-14
2.69145e-14
4.36564e-14
2.00364e-14
3.62515e-15
3.38852e-16
1.14479e-16
1.16242e-16
-5.79461e-06
-5.79583e-06
-5.79841e-06
-5.79465e-06
-5.78484e-06
-5.7814e-06
-5.8247e-06
-5.86649e-06
-5.74568e-06
-5.54542e-06
-5.7712e-06
-6.41493e-06
-6.80494e-06
-6.16478e-06
-3.27016e-06
-7.18427e-07
-9.221e-06
-2.3707e-05
-3.01067e-05
-2.98094e-05
8.73254e-06
4.85336e-05
3.60184e-05
4.3943e-06
-0.000154861
-8.58222e-05
-4.2002e-05
-1.87724e-05
-6.94552e-06
-1.74928e-06
-7.53243e-08
2.4703e-09
1.89423e-09
9.12225e-10
2.43008e-10
1.27733e-11
3.95084e-12
2.77352e-12
8.12899e-13
-2.65771e-13
-3.71985e-13
-1.5228e-13
3.01637e-13
4.45498e-13
2.23539e-13
4.76064e-14
7.18331e-16
-1.49617e-15
-1.94226e-16
2.14932e-16
3.01162e-06
3.00867e-06
2.98845e-06
3.00615e-06
3.08523e-06
3.0625e-06
2.78577e-06
2.67945e-06
3.48117e-06
4.30538e-06
2.91073e-06
-3.19294e-07
-8.05035e-07
6.93457e-06
2.05429e-05
1.73429e-05
-1.42207e-05
-3.31309e-05
-1.59888e-05
0.000163018
0.000310847
0.000123737
-0.000492177
-0.001196
-0.00104855
-4.76032e-05
0.00172069
0.00353939
0.00456031
0.0045332
0.00376487
0.00258817
0.00144796
0.000624338
0.000174996
1.30171e-05
1.213e-11
3.95082e-12
4.71394e-13
-5.3909e-13
-7.41605e-13
2.58393e-12
3.4228e-12
1.85257e-12
4.56834e-13
8.41004e-15
-3.12621e-14
-8.2509e-15
-6.46541e-17
9.95888e-16
0.000258023
0.000257973
0.000257782
0.000258128
0.000258929
0.000257872
0.000255056
0.00025682
0.000265664
0.00026618
0.000245625
0.000226917
0.000255271
0.000330315
0.000342916
0.000207685
4.77348e-06
-1.09323e-05
0.000597286
0.00141317
0.00138901
-0.000342413
-0.00350719
-0.00542635
-0.00347808
0.00430486
0.016949
0.0301071
0.0384208
0.0391446
0.0344091
0.0257411
0.0162113
0.00833162
0.00321515
0.000701056
1.30171e-05
1.27723e-11
5.8913e-12
1.11927e-11
2.47799e-11
2.34297e-11
1.26195e-11
3.33069e-12
-2.24106e-14
-4.79063e-13
-1.48412e-13
-9.39615e-15
1.57635e-14
5.4639e-15
0.0010925
0.0010923
0.00109174
0.00109313
0.00109557
0.00109093
0.00108216
0.00109232
0.0011205
0.00111068
0.00103405
0.00100213
0.00114594
0.00135358
0.00126625
0.000708576
0.000143956
0.000671172
0.00258978
0.00440733
0.00352122
-0.00209954
-0.0104426
-0.0146286
-0.00713613
0.0173649
0.0556134
0.0954029
0.121473
0.124845
0.111516
0.0854308
0.0555402
0.0298349
0.0123741
0.00321515
0.000174997
2.43004e-10
2.07617e-10
1.881e-10
1.46812e-10
7.81788e-11
2.17966e-11
-2.1261e-12
-6.64834e-12
-2.26814e-12
-1.97196e-13
1.81017e-13
8.71375e-14
1.16566e-14
0.00266309
0.00266259
0.00266144
0.00266483
0.00266992
0.00265831
0.00263971
0.0026673
0.00272905
0.00269086
0.00251276
0.00248217
0.00285537
0.00327131
0.00289845
0.00153244
0.000718985
0.00232828
0.00648908
0.00960803
0.00652201
-0.00578046
-0.0224146
-0.0291731
-0.0112498
0.0418685
0.123307
0.208221
0.265139
0.274096
0.247018
0.191673
0.126676
0.0695541
0.0298349
0.00833162
0.000624338
9.12228e-10
8.51705e-10
6.86739e-10
4.05083e-10
1.28825e-10
-2.098e-11
-7.73166e-11
-3.02117e-11
-3.59377e-12
1.56029e-12
8.27262e-13
1.75851e-13
4.73564e-15
0.00479853
0.00479762
0.00479572
0.00480194
0.00481039
0.00478884
0.00475757
0.00481095
0.00491725
0.00483239
0.00451555
0.00450659
0.00521894
0.00587821
0.00500589
0.0026043
0.00154479
0.00486233
0.0120834
0.0164622
0.0098879
-0.0115117
-0.0384062
-0.0472607
-0.0145765
0.0767179
0.215362
0.360657
0.460052
0.478231
0.433953
0.339925
0.227292
0.126676
0.0555402
0.0162113
0.00144796
1.89427e-09
1.79804e-09
1.50327e-09
6.20757e-10
-1.41799e-10
-8.15192e-10
-3.49098e-10
-4.96926e-11
1.17745e-11
6.61177e-12
1.61704e-12
1.02085e-13
-8.11332e-15
0.00684645
0.0068451
0.00684242
0.00685162
0.00686347
0.00683138
0.00678739
0.0068687
0.00702054
0.00688199
0.00642143
0.00644749
0.00753341
0.00840922
0.00696493
0.00346686
0.00229669
0.00758641
0.017944
0.0232662
0.0125998
-0.0182283
-0.0549709
-0.0649825
-0.0165514
0.114251
0.312332
0.521589
0.667743
0.698376
0.637657
0.503552
0.339925
0.191673
0.0854308
0.0257411
0.00258817
2.47038e-09
2.11862e-09
2.25297e-09
-7.1627e-09
-1.00336e-08
-4.06685e-09
-5.84748e-10
8.62825e-11
5.14253e-11
1.3984e-11
1.15073e-12
-9.89616e-14
-3.97075e-14
0.00788593
0.0078843
0.00788106
0.0078922
0.00790646
0.0078674
0.00781468
0.00791478
0.00809764
0.00792166
0.00736293
0.00741743
0.00876188
0.00978463
0.00791841
0.00364107
0.00247347
0.00922494
0.0217904
0.0275234
0.0137285
-0.0237357
-0.0671379
-0.0776953
-0.0179046
0.141689
0.384399
0.643679
0.82882
0.87273
0.801643
0.637657
0.433953
0.247018
0.111516
0.0344091
0.00376487
-7.53167e-08
-1.46088e-07
-1.87968e-07
-1.37362e-07
-5.28058e-08
-7.79774e-09
5.1111e-10
3.57062e-10
1.26997e-10
1.68571e-11
-7.40123e-13
-4.69568e-13
-9.90028e-14
0.00730561
0.00730393
0.00730036
0.00731184
0.00732752
0.00728709
0.00722948
0.00733386
0.00753031
0.00734678
0.00674953
0.00680276
0.00823652
0.00932754
0.0073391
0.00274516
0.00158061
0.00881792
0.021855
0.0275975
0.0130858
-0.0256114
-0.0706826
-0.0822084
-0.0202889
0.147261
0.405567
0.685841
0.890687
0.944822
0.87273
0.698376
0.478231
0.274096
0.124845
0.0391446
0.0045332
-1.74923e-06
-1.76721e-06
-1.26302e-06
-5.68169e-07
-1.27469e-07
-1.98558e-09
1.68292e-09
9.69955e-10
2.27064e-10
4.63078e-12
-2.53547e-12
-1.29272e-12
-1.74438e-13
0.00445299
0.00445168
0.00444828
0.00445726
0.00447215
0.00444049
0.00438754
0.00446763
0.00464197
0.00451069
0.00399554
0.0039893
0.00516961
0.0061967
0.00465566
0.000784704
-0.000540359
0.00519968
0.0163993
0.0221863
0.011132
-0.0220952
-0.0634166
-0.0775657
-0.026289
0.123392
0.362306
0.628671
0.830025
0.890687
0.82882
0.667743
0.460052
0.265139
0.121473
0.0384207
0.00456031
-6.94543e-06
-6.58031e-06
-3.86568e-06
-1.32389e-06
-1.64628e-07
7.05642e-09
5.5005e-09
1.99566e-09
2.47381e-10
-1.23013e-11
-8.22913e-12
-2.3852e-12
-1.41482e-13
0.000607893
0.000607264
0.000604621
0.000609026
0.000620527
0.000605304
0.000566269
0.000601249
0.000720164
0.000682661
0.00036241
0.000253688
0.000896435
0.00169297
0.00111183
-0.00122052
-0.00279212
-0.000246925
0.00686273
0.0129021
0.00864312
-0.0125055
-0.044788
-0.0630818
-0.0345981
0.0706345
0.251528
0.462335
0.628671
0.685841
0.643679
0.521589
0.360657
0.208221
0.0954029
0.0301071
0.00353939
-1.87722e-05
-1.63361e-05
-7.87427e-06
-1.9458e-06
-6.0789e-08
2.62254e-08
1.34606e-08
2.77917e-09
9.3651e-12
-3.91054e-11
-1.75063e-11
-2.82223e-12
6.10733e-14
-0.00226129
-0.00226124
-0.00226275
-0.00226295
-0.00225645
-0.00225502
-0.00227513
-0.00228506
-0.00223517
-0.00218395
-0.00227532
-0.00246475
-0.00241069
-0.00191904
-0.00154462
-0.00218041
-0.00384442
-0.00466097
-0.0020571
0.00370073
0.00677105
-0.00091707
-0.021991
-0.0433676
-0.0397399
0.0123701
0.11846
0.251528
0.362306
0.405567
0.384399
0.312332
0.215362
0.123307
0.0556134
0.016949
0.00172068
-4.20017e-05
-2.91722e-05
-1.0383e-05
-1.30594e-06
1.6377e-07
8.25996e-08
1.81877e-08
8.7466e-10
-1.91679e-10
-9.74015e-11
-2.17057e-11
-7.3702e-13
1.43628e-13
-0.00292947
-0.00292903
-0.00292937
-0.00293237
-0.00293094
-0.0029195
-0.00292177
-0.00295782
-0.00296528
-0.00287089
-0.00279554
-0.0029841
-0.00331069
-0.00314519
-0.00222668
-0.00170623
-0.00310934
-0.00591864
-0.00652866
-0.00199178
0.00562673
0.00750544
-0.00301039
-0.0231464
-0.0367122
-0.0270215
0.0123701
0.0706345
0.123392
0.147261
0.141689
0.114251
0.0767179
0.0418685
0.0173649
0.00430486
-4.7602e-05
-8.58216e-05
-3.23106e-05
-5.38546e-06
1.04042e-06
5.49961e-07
1.17092e-07
3.20984e-09
-1.41701e-09
-6.76333e-10
-1.28111e-10
3.42726e-13
1.34733e-12
3.60406e-13
-0.00169264
-0.00169218
-0.00169159
-0.00169496
-0.00169741
-0.00168511
-0.00167488
-0.00171035
-0.00175133
-0.00167444
-0.00152787
-0.00162396
-0.00205145
-0.00215556
-0.0012961
-0.000260651
-0.000953594
-0.00390939
-0.00599443
-0.00332683
0.00406088
0.00987258
0.00723302
-0.00594827
-0.023897
-0.0367122
-0.0397399
-0.0345981
-0.026289
-0.0202889
-0.0179046
-0.0165514
-0.0145764
-0.0112498
-0.00713612
-0.00347807
-0.00104854
-0.000154861
9.04507e-06
7.27436e-06
3.24356e-06
7.2476e-07
1.95965e-08
-8.37321e-09
-4.57993e-09
-1.01041e-09
-1.72488e-12
1.44511e-11
5.03711e-12
3.16514e-13
8.0431e-05
8.0654e-05
8.15773e-05
7.98992e-05
7.59412e-05
8.1866e-05
9.5464e-05
8.11303e-05
3.86294e-05
5.75844e-05
0.000176505
0.000199405
-5.80093e-05
-0.000297484
4.92956e-05
0.000830456
0.000924529
-0.000495887
-0.00230698
-0.00204004
0.00157967
0.00663069
0.0088055
0.00505869
-0.00594827
-0.0231464
-0.0433676
-0.0630818
-0.0775657
-0.0822084
-0.0776953
-0.0649825
-0.0472607
-0.0291731
-0.0146286
-0.00542634
-0.001196
4.39447e-06
2.79876e-05
1.52777e-05
4.29386e-06
2.63516e-07
-3.0752e-08
-1.93884e-08
-6.0884e-09
-4.88334e-10
5.01986e-11
2.69787e-11
5.47781e-12
-4.75307e-14
0.00078535
0.000785289
0.000785939
0.000786358
0.000783435
0.000781708
0.000790839
0.000798416
0.000776056
0.000746055
0.000785238
0.000878278
0.000861711
0.00065055
0.000499127
0.000761216
0.00130099
0.00149306
0.00076642
-0.000598519
-0.00102688
0.000984062
0.00529202
0.0088055
0.00723301
-0.00301039
-0.021991
-0.044788
-0.0634166
-0.0706826
-0.0671379
-0.0549709
-0.0384062
-0.0224146
-0.0104426
-0.00350719
-0.000492177
3.60179e-05
2.63008e-05
1.18759e-05
2.70565e-06
-1.9186e-08
-4.16535e-08
-1.68819e-08
-2.86543e-09
2.75595e-10
1.12539e-10
1.85783e-11
-1.09995e-12
-3.62249e-13
0.000146856
0.000146611
0.000146792
0.000148446
0.000147585
0.000141453
0.000143062
0.00016191
0.000163886
0.000116892
8.42621e-05
0.000175225
0.0003187
0.000237862
-0.000161087
-0.000343632
0.000214135
0.00117947
0.00120296
-0.000355384
-0.00242571
-0.00246948
0.000984063
0.00663069
0.00987258
0.00750543
-0.000917066
-0.0125055
-0.0220952
-0.0256113
-0.0237357
-0.0182283
-0.0115117
-0.00578048
-0.00209955
-0.00034242
0.000123734
4.85324e-05
9.13233e-06
-7.11687e-07
-1.083e-06
-3.16639e-07
-2.97455e-08
5.20031e-09
3.01556e-09
8.71365e-10
1.0786e-10
-8.55155e-12
-4.08382e-12
-6.45236e-13
-0.00104625
-0.00104651
-0.00104664
-0.0010449
-0.00104442
-0.00105053
-0.00105323
-0.00103671
-0.00102311
-0.00105859
-0.00111093
-0.00106145
-0.000912031
-0.000908431
-0.00118395
-0.00143532
-0.00120361
-0.000559436
-0.000310229
-0.0010025
-0.00219138
-0.00242571
-0.00102688
0.00157966
0.00406087
0.00562672
0.00677106
0.00864315
0.011132
0.0130858
0.0137285
0.0125998
0.00988787
0.00652198
0.0035212
0.00138899
0.000310843
8.73143e-06
-1.42818e-05
-9.51093e-06
-3.29437e-06
-4.6899e-07
2.38597e-08
1.64716e-08
6.25668e-09
1.02013e-09
-2.74642e-11
-1.43972e-11
-4.36515e-12
-3.63611e-13
-0.00168931
-0.00168949
-0.00168958
-0.00168837
-0.0016881
-0.00169207
-0.00169371
-0.00168363
-0.00167561
-0.0016955
-0.00172231
-0.00170119
-0.00163837
-0.00162734
-0.00169302
-0.00176826
-0.00179042
-0.0018364
-0.00188979
-0.0016846
-0.00100249
-0.000355378
-0.000598515
-0.00204005
-0.00332684
-0.00199179
0.00370073
0.0129021
0.0221864
0.0275975
0.0275234
0.0232661
0.0164622
0.009608
0.00440731
0.00141316
0.000163012
-2.98093e-05
-2.25199e-05
-1.04901e-05
-2.90046e-06
-1.73099e-07
2.31713e-08
1.53991e-08
4.68409e-09
3.60299e-10
-1.81516e-11
-1.1321e-11
-2.92877e-12
-8.34812e-14
-0.00162744
-0.00162758
-0.00162745
-0.00162666
-0.0016273
-0.00163006
-0.00162846
-0.00162124
-0.00162341
-0.00163978
-0.00163867
-0.00161399
-0.00160717
-0.00163785
-0.00163384
-0.00154706
-0.00157804
-0.00194061
-0.00231888
-0.00188979
-0.000310225
0.00120296
0.000766424
-0.00230698
-0.00599445
-0.00652867
-0.0020571
0.00686275
0.0163994
0.021855
0.0217904
0.017944
0.0120833
0.00648905
0.00258976
0.000597276
-1.59967e-05
-3.01051e-05
-1.87164e-05
-7.01266e-06
-1.18161e-06
5.13201e-08
2.65893e-08
8.62195e-09
1.4476e-09
-9.23244e-11
-3.81896e-11
-7.45392e-12
-1.92987e-13
4.20173e-14
-0.00137552
-0.00137568
-0.00137542
-0.0013744
-0.00137561
-0.00137907
-0.00137577
-0.00136616
-0.00137173
-0.00139547
-0.00139276
-0.00134335
-0.0013279
-0.00140317
-0.0014566
-0.0013531
-0.00125434
-0.00148865
-0.00194061
-0.0018364
-0.000559433
0.00117948
0.00149306
-0.000495892
-0.0039094
-0.00591865
-0.00466096
-0.000246901
0.00519971
0.00881794
0.00922493
0.00758639
0.0048623
0.00232825
0.000671151
-1.0942e-05
-3.3134e-05
-2.37092e-05
-1.00447e-05
-2.19863e-06
1.04442e-07
6.93833e-08
1.93784e-08
1.50442e-09
-4.44939e-10
-1.89294e-10
-3.84084e-11
-5.43304e-14
2.56017e-13
9.1882e-14
-0.0013436
-0.0013438
-0.00134355
-0.00134228
-0.00134328
-0.00134774
-0.00134544
-0.00133263
-0.00133484
-0.00136625
-0.00137376
-0.00131475
-0.00126599
-0.0013369
-0.00145664
-0.00142923
-0.00125671
-0.00125434
-0.00157804
-0.00179042
-0.00120361
0.000214141
0.00130099
0.000924525
-0.000953606
-0.00310935
-0.00384441
-0.0027921
-0.000540329
0.00158062
0.00247347
0.00229667
0.00154475
0.000718952
0.000143932
4.7655e-06
-1.42245e-05
-9.22286e-06
-2.77105e-06
3.19258e-08
7.14458e-08
3.20059e-08
3.44524e-09
-6.92165e-10
-3.65625e-10
-1.03571e-10
-9.72469e-12
3.14622e-13
2.1137e-13
5.80009e-14
-0.00144237
-0.00144257
-0.00144243
-0.00144109
-0.00144165
-0.00144634
-0.00144542
-0.00143216
-0.00143073
-0.00146076
-0.001478
-0.0014272
-0.00136319
-0.00140653
-0.00153974
-0.00156474
-0.00142922
-0.0013531
-0.00154706
-0.00176826
-0.00143531
-0.000343625
0.00076122
0.000830452
-0.000260664
-0.00170624
-0.00218041
-0.00122049
0.000784733
0.00274517
0.00364107
0.00346683
0.00260426
0.0015324
0.000708552
0.000207672
1.73395e-05
-7.1931e-07
-9.69646e-07
-7.28151e-07
-2.90655e-07
-5.09886e-08
-6.36181e-10
4.61858e-11
3.74175e-11
1.45041e-11
2.79405e-12
3.83695e-13
3.36905e-14
-6.23289e-15
-0.00145018
-0.00145037
-0.00145026
-0.00144902
-0.00144947
-0.00145375
-0.00145313
-0.00144129
-0.00143938
-0.0014655
-0.00148194
-0.0014399
-0.00138451
-0.00141554
-0.00151998
-0.00153974
-0.00145663
-0.00145659
-0.00163384
-0.00169302
-0.00118394
-0.00016108
0.000499132
4.92906e-05
-0.00129611
-0.00222669
-0.00154461
0.00111185
0.00465569
0.00733912
0.00791841
0.00696491
0.00500586
0.00289842
0.00126622
0.000342903
2.05397e-05
-3.27061e-06
-2.8769e-06
-1.63242e-06
-5.51654e-07
-6.42219e-08
3.52968e-10
2.64866e-10
1.29987e-10
3.88655e-11
3.72003e-12
-2.17786e-13
-1.27783e-13
-2.86541e-14
-0.00135688
-0.00135705
-0.00135691
-0.00135582
-0.00135642
-0.00136016
-0.00135896
-0.00134859
-0.00134864
-0.0013722
-0.00138218
-0.00134204
-0.00130226
-0.0013405
-0.00141554
-0.00140653
-0.0013369
-0.00140317
-0.00163785
-0.00162734
-0.000908427
0.000237869
0.000650554
-0.000297489
-0.00215557
-0.0031452
-0.00191903
0.001693
0.00619673
0.00932755
0.00978463
0.0084092
0.00587818
0.00327128
0.00135355
0.000330303
6.93218e-06
-6.16556e-06
-4.56054e-06
-2.09964e-06
-5.72039e-07
-3.49765e-08
2.52447e-10
1.91154e-10
7.75956e-11
1.53998e-11
-4.25148e-13
-2.57923e-13
-7.50639e-14
-9.64555e-15
-0.0013114
-0.00131157
-0.0013114
-0.0013103
-0.00131105
-0.00131485
-0.00131318
-0.00130256
-0.00130368
-0.00132874
-0.00133645
-0.00129179
-0.00125306
-0.00130226
-0.00138451
-0.00136319
-0.00126599
-0.0013279
-0.00160717
-0.00163837
-0.000912026
0.000318707
0.000861714
-5.80137e-05
-0.00205146
-0.0033107
-0.00241068
0.000896458
0.00516964
0.00823654
0.00876188
0.00753339
0.0052189
0.00285534
0.00114592
0.00025526
-8.07344e-07
-6.80604e-06
-4.76599e-06
-2.10836e-06
-5.04087e-07
-1.47691e-08
1.1969e-10
6.98263e-11
1.68811e-11
-1.43538e-12
-6.19445e-13
-6.92328e-14
3.10238e-14
8.80444e-15
-0.00135703
-0.00135721
-0.00135704
-0.00135586
-0.00135659
-0.00136069
-0.00135911
-0.00134763
-0.00134828
-0.00137514
-0.00138521
-0.00133755
-0.00129179
-0.00134204
-0.0014399
-0.0014272
-0.00131475
-0.00134334
-0.00161398
-0.00170119
-0.00106145
0.000175231
0.000878282
0.000199401
-0.00162397
-0.00298411
-0.00246475
0.000253712
0.00398933
0.00680278
0.00741742
0.00644747
0.00450656
0.00248214
0.00100211
0.000226906
-3.2183e-07
-6.41611e-06
-4.4929e-06
-1.96117e-06
-4.54817e-07
-1.17046e-08
-1.57544e-11
-1.69654e-11
-8.89218e-12
-1.73853e-12
3.84065e-13
2.40501e-13
6.53097e-14
5.44017e-15
-0.00140239
-0.00140257
-0.00140242
-0.00140121
-0.00140187
-0.00140606
-0.00140473
-0.00139302
-0.00139302
-0.0014199
-0.00143174
-0.00138521
-0.00133645
-0.00138218
-0.00148194
-0.001478
-0.00137376
-0.00139276
-0.00163867
-0.00172231
-0.00111093
8.42689e-05
0.000785242
0.0001765
-0.00152788
-0.00279555
-0.00227532
0.000362434
0.00399557
0.00674955
0.00736292
0.00642141
0.00451552
0.00251273
0.00103403
0.000245614
2.90804e-06
-5.77234e-06
-4.18867e-06
-1.87957e-06
-4.66904e-07
-1.78615e-08
-1.57421e-11
-2.11611e-12
2.67625e-12
2.29467e-12
1.03747e-12
2.50925e-13
1.31545e-14
-1.60492e-15
-0.00139159
-0.00139177
-0.00139162
-0.00139045
-0.00139108
-0.00139515
-0.00139388
-0.00138253
-0.0013825
-0.00140847
-0.0014199
-0.00137514
-0.00132874
-0.00137221
-0.0014655
-0.00146076
-0.00136625
-0.00139547
-0.00163978
-0.0016955
-0.00105859
0.0001169
0.00074606
5.75772e-05
-0.00167445
-0.0028709
-0.00218395
0.000682685
0.00451072
0.00734679
0.00792165
0.00688197
0.00483236
0.00269083
0.00111066
0.000266169
4.30281e-06
-5.54642e-06
-4.0897e-06
-1.87027e-06
-4.82392e-07
-2.21057e-08
2.41318e-11
1.94229e-11
1.03337e-11
4.01735e-12
9.90549e-13
2.26891e-14
-7.28708e-15
-2.6394e-15
-0.00136552
-0.0013657
-0.00136554
-0.00136439
-0.00136505
-0.00136904
-0.00136768
-0.00135653
-0.00135677
-0.0013825
-0.00139302
-0.00134828
-0.00130368
-0.00134864
-0.00143938
-0.00143073
-0.00133483
-0.00137173
-0.00162341
-0.0016756
-0.00102311
0.000163898
0.000776064
3.86133e-05
-0.00175136
-0.00296529
-0.00223515
0.000720193
0.004642
0.00753033
0.00809764
0.00702052
0.00491721
0.00272902
0.00112048
0.000265652
3.47875e-06
-5.74658e-06
-4.19973e-06
-1.90585e-06
-4.84279e-07
-2.06758e-08
1.67611e-11
1.3575e-11
7.41922e-12
3.01192e-12
7.54685e-13
4.25292e-14
5.61874e-16
-1.21037e-16
-0.0013653
-0.00136548
-0.00136532
-0.00136416
-0.00136484
-0.00136887
-0.00136745
-0.00135621
-0.00135653
-0.00138253
-0.00139302
-0.00134763
-0.00130256
-0.00134859
-0.00144129
-0.00143216
-0.00133263
-0.00136616
-0.00162124
-0.00168362
-0.00103672
0.000161926
0.000798428
8.11016e-05
-0.00171038
-0.00295782
-0.00228503
0.000601285
0.00446766
0.00733388
0.00791478
0.00686868
0.00481091
0.00266727
0.0010923
0.000256808
2.67713e-06
-5.86735e-06
-4.25431e-06
-1.91632e-06
-4.79454e-07
-1.8922e-08
1.08233e-11
9.31777e-12
5.71394e-12
2.63489e-12
8.23443e-13
9.35335e-14
-5.35096e-17
-6.35508e-17
-0.00137661
-0.00137679
-0.00137663
-0.00137546
-0.00137613
-0.0013802
-0.00137881
-0.00136745
-0.00136768
-0.00139388
-0.00140473
-0.00135911
-0.00131318
-0.00135896
-0.00145314
-0.00144542
-0.00134543
-0.00137576
-0.00162846
-0.0016937
-0.00105323
0.00014308
0.000790852
9.54319e-05
-0.00167492
-0.00292177
-0.0022751
0.000566305
0.00438758
0.0072295
0.00781467
0.00678736
0.00475753
0.00263968
0.00108213
0.000255044
2.78341e-06
-5.82557e-06
-4.22901e-06
-1.90588e-06
-4.77228e-07
-1.89111e-08
1.0482e-11
9.28138e-12
6.0235e-12
2.9496e-12
9.74159e-13
1.26807e-13
-6.79622e-17
-6.3459e-17
-0.00137798
-0.00137816
-0.00137801
-0.00137684
-0.0013775
-0.00138156
-0.0013802
-0.00136887
-0.00136904
-0.00139515
-0.00140606
-0.00136069
-0.00131485
-0.00136016
-0.00145375
-0.00144634
-0.00134773
-0.00137907
-0.00163006
-0.00169207
-0.00105053
0.000141463
0.000781714
8.18516e-05
-0.00168513
-0.00291951
-0.00225501
0.000605332
0.00444052
0.00728711
0.0078674
0.00683136
0.00478881
0.00265828
0.00109091
0.000257861
3.06011e-06
-5.78229e-06
-4.20919e-06
-1.90172e-06
-4.78717e-07
-1.95009e-08
1.14625e-11
1.00208e-11
6.34835e-12
3.01337e-12
9.52738e-13
1.10527e-13
-6.08088e-17
-5.68652e-17
-0.00137393
-0.00137411
-0.00137396
-0.00137279
-0.00137345
-0.0013775
-0.00137613
-0.00136484
-0.00136505
-0.00139108
-0.00140187
-0.00135659
-0.00131105
-0.00135642
-0.00144947
-0.00144165
-0.00134327
-0.00137561
-0.0016273
-0.0016881
-0.00104441
0.000147588
0.000783435
7.59458e-05
-0.00169742
-0.00293095
-0.00225645
0.000620545
0.00447218
0.00732753
0.00790646
0.00686345
0.00481036
0.00266988
0.00109555
0.000258917
3.08282e-06
-5.78574e-06
-4.21276e-06
-1.90407e-06
-4.79675e-07
-1.96123e-08
1.32048e-11
1.13281e-11
6.83245e-12
3.05106e-12
8.82653e-13
7.55774e-14
-5.89595e-17
-5.49825e-17
-0.00137327
-0.00137345
-0.00137329
-0.00137212
-0.00137279
-0.00137684
-0.00137546
-0.00136416
-0.00136439
-0.00139045
-0.00140121
-0.00135586
-0.0013103
-0.00135583
-0.00144902
-0.00144109
-0.00134228
-0.0013744
-0.00162666
-0.00168836
-0.00104489
0.000148452
0.000786362
7.98971e-05
-0.00169497
-0.00293238
-0.00226295
0.000609048
0.00445729
0.00731186
0.00789219
0.0068516
0.00480191
0.0026648
0.00109311
0.000258116
3.00376e-06
-5.79555e-06
-4.21659e-06
-1.90453e-06
-4.79151e-07
-1.94593e-08
1.21834e-11
1.05175e-11
6.46921e-12
2.96917e-12
8.9406e-13
8.82826e-14
-5.69774e-17
-5.3782e-17
-0.00137444
-0.00137462
-0.00137446
-0.00137329
-0.00137396
-0.00137801
-0.00137663
-0.00136532
-0.00136554
-0.00139162
-0.00140242
-0.00135704
-0.0013114
-0.00135691
-0.00145026
-0.00144243
-0.00134355
-0.00137541
-0.00162745
-0.00168958
-0.00104664
0.000146801
0.000785944
8.15682e-05
-0.00169161
-0.00292938
-0.00226275
0.000604647
0.00444831
0.00730038
0.00788106
0.0068424
0.00479569
0.00266141
0.00109172
0.000257771
2.98606e-06
-5.7993e-06
-4.21833e-06
-1.90465e-06
-4.78812e-07
-1.93694e-08
1.13047e-11
9.82826e-12
6.15976e-12
2.90351e-12
9.13395e-13
1.03168e-13
-5.60202e-17
-5.30767e-17
-0.00137459
-0.00137478
-0.00137462
-0.00137345
-0.00137411
-0.00137816
-0.00137679
-0.00136548
-0.0013657
-0.00139177
-0.00140257
-0.00135721
-0.00131157
-0.00135705
-0.00145037
-0.00144257
-0.0013438
-0.00137568
-0.00162757
-0.00168949
-0.0010465
0.000146617
0.000785293
8.06511e-05
-0.00169219
-0.00292904
-0.00226123
0.000607287
0.00445171
0.00730395
0.00788429
0.00684507
0.00479758
0.00266255
0.00109227
0.000257961
3.00628e-06
-5.79672e-06
-4.21739e-06
-1.90466e-06
-4.79047e-07
-1.94271e-08
1.19947e-11
1.03664e-11
6.40016e-12
2.95818e-12
9.06495e-13
9.54764e-14
-5.60827e-17
-5.31043e-17
-0.00137441
-0.00137459
-0.00137444
-0.00137327
-0.00137393
-0.00137798
-0.00137661
-0.0013653
-0.00136552
-0.00139159
-0.00140239
-0.00135703
-0.0013114
-0.00135688
-0.00145018