/*--------------------------------*- C++ -*----------------------------------*\
| =========                 |                                                 |
| \\      /  F ield         | OpenFOAM: The Open Source CFD Toolbox           |
|  \\    /   O peration     | Version:  v2006                                 |
|   \\  /    A nd           | Website:  www.openfoam.com                      |
|    \\/     M anipulation  |                                                 |
\*---------------------------------------------------------------------------*/
FoamFile
{
    version     2.0;
    format      ascii;
    class       volVectorField;
    location    "0";
    object      U;
}
// * * * * * * * * * * * * * * * * * * * * * * * * * * * * * * * * * * * * * //

dimensions      [0 1 -1 0 0 0 0];


internalField   nonuniform List<vector> 
67500
(
(-0.0118627 0.01466 0)
(-0.0336094 -0.00320405 0)
(-0.0134328 -0.0269281 0)
(-0.0109165 0.0135664 0)
(-0.0710595 -0.0144618 0)
(-0.0660651 -0.0206258 0)
(-0.06145 0.0117506 0)
(-0.0409328 -0.00174096 0)
(-0.00609668 -0.0291552 0)
(0.00999715 -0.0319451 0)
(0.0295437 -0.0352702 0)
(0.0479047 -0.0366661 0)
(0.0688798 -0.0344171 0)
(0.0966421 -0.0296134 0)
(0.125184 -0.0251679 0)
(0.148712 -0.0202088 0)
(0.171498 -0.0181536 0)
(0.206091 -0.0160015 0)
(0.240345 -0.00856779 0)
(0.272065 0.0092455 0)
(0.25057 0.0207187 0)
(0.202139 0.0176891 0)
(0.164812 0.00132643 0)
(0.151861 -0.014605 0)
(0.150058 -0.0183717 0)
(0.153889 -0.0169699 0)
(0.161513 -0.0142926 0)
(0.170443 -0.0114637 0)
(0.179897 -0.0100637 0)
(0.189967 -0.00909016 0)
(0.200069 -0.00748214 0)
(0.209244 -0.00511815 0)
(0.216062 -0.00274752 0)
(0.22014 -0.0011935 0)
(0.222351 -0.000366293 0)
(0.223787 -2.54225e-05 0)
(0.225386 -0.000102918 0)
(0.22784 -0.000592196 0)
(0.231393 -0.00118271 0)
(0.235864 -0.00153419 0)
(0.240952 -0.00163666 0)
(0.246558 -0.00171649 0)
(0.252794 -0.00195874 0)
(0.259784 -0.00239057 0)
(0.267512 -0.00291959 0)
(0.275802 -0.0034116 0)
(0.284348 -0.00376061 0)
(0.292809 -0.00392726 0)
(0.300901 -0.00394499 0)
(0.308438 -0.00390429 0)
(0.31535 -0.00390298 0)
(0.321675 -0.00398661 0)
(0.327541 -0.00412852 0)
(0.333117 -0.00426271 0)
(0.33858 -0.00433364 0)
(0.34409 -0.00432526 0)
(0.34978 -0.00426064 0)
(0.355733 -0.00418182 0)
(0.361975 -0.00412424 0)
(0.368476 -0.00410232 0)
(0.37516 -0.00410754 0)
(0.381929 -0.00410934 0)
(0.388645 -0.00405352 0)
(0.395115 -0.0039135 0)
(0.40123 -0.00381162 0)
(0.40707 -0.00374557 0)
(0.412767 -0.00367892 0)
(0.418436 -0.00360969 0)
(0.424192 -0.00355698 0)
(0.430135 -0.00354494 0)
(0.436328 -0.0035896 0)
(0.442791 -0.00369096 0)
(0.449497 -0.00383381 0)
(0.456383 -0.00399403 0)
(0.463367 -0.00414536 0)
(0.470365 -0.00426336 0)
(0.477311 -0.00432717 0)
(0.484163 -0.0043216 0)
(0.490912 -0.00424022 0)
(0.49757 -0.00408825 0)
(0.50416 -0.00388262 0)
(0.510706 -0.00364806 0)
(0.517228 -0.00341091 0)
(0.523737 -0.00319453 0)
(0.530237 -0.00301518 0)
(0.536722 -0.00287955 0)
(0.543186 -0.00278724 0)
(0.549617 -0.00273267 0)
(0.555965 -0.00269193 0)
(0.562111 -0.0026271 0)
(0.567994 -0.00259987 0)
(0.573711 -0.00264586 0)
(0.57938 -0.0027312 0)
(0.585041 -0.00281993 0)
(0.590702 -0.0028972 0)
(0.596377 -0.00296128 0)
(0.602087 -0.0030158 0)
(0.607855 -0.00306481 0)
(0.613703 -0.00310987 0)
(0.619644 -0.00314993 0)
(0.625681 -0.00318416 0)
(0.631809 -0.00321406 0)
(0.638026 -0.00324227 0)
(0.644328 -0.00326855 0)
(0.650711 -0.00328778 0)
(0.657163 -0.00329143 0)
(0.663647 -0.00326752 0)
(0.670098 -0.00320598 0)
(0.676445 -0.00312472 0)
(0.682682 -0.00306096 0)
(0.688862 -0.00302352 0)
(0.69503 -0.00300262 0)
(0.701205 -0.00299149 0)
(0.707391 -0.0029863 0)
(0.713585 -0.00298309 0)
(0.719772 -0.00297694 0)
(0.725923 -0.00296168 0)
(0.731997 -0.00293391 0)
(0.737965 -0.00290367 0)
(0.743839 -0.00288702 0)
(0.74966 -0.00288598 0)
(0.75546 -0.00289149 0)
(0.761248 -0.00289408 0)
(0.767015 -0.00288659 0)
(0.772742 -0.00286566 0)
(0.77841 -0.0028351 0)
(0.784014 -0.00280416 0)
(0.789565 -0.00277812 0)
(0.795078 -0.00275525 0)
(0.800555 -0.00273174 0)
(0.805989 -0.00270542 0)
(0.811371 -0.00267697 0)
(0.816699 -0.00264889 0)
(0.821972 -0.00262224 0)
(0.827193 -0.00259576 0)
(0.83236 -0.00256778 0)
(0.837467 -0.00253773 0)
(0.842512 -0.00250597 0)
(0.84749 -0.00247277 0)
(0.852401 -0.00243787 0)
(0.85724 -0.00240106 0)
(0.862004 -0.00236249 0)
(0.866689 -0.00232239 0)
(0.871293 -0.00228086 0)
(0.875813 -0.00223797 0)
(0.880246 -0.00219383 0)
(0.884589 -0.00214857 0)
(0.88884 -0.00210229 0)
(0.892997 -0.00205508 0)
(0.89706 -0.00200706 0)
(0.901025 -0.00195835 0)
(0.904892 -0.00190908 0)
(0.90866 -0.00185935 0)
(0.912329 -0.00180927 0)
(0.915896 -0.00175895 0)
(0.919363 -0.00170846 0)
(0.922729 -0.00165787 0)
(0.925994 -0.00160724 0)
(0.929157 -0.00155661 0)
(0.932219 -0.00150601 0)
(0.93518 -0.00145549 0)
(0.93804 -0.00140511 0)
(0.940799 -0.00135494 0)
(0.943458 -0.00130509 0)
(0.946018 -0.00125567 0)
(0.94848 -0.00120681 0)
(0.950844 -0.00115867 0)
(0.953113 -0.00111138 0)
(0.955288 -0.00106507 0)
(0.957372 -0.00101986 0)
(0.959366 -0.000975869 0)
(0.961273 -0.000933167 0)
(0.963097 -0.000891822 0)
(0.964839 -0.00085188 0)
(0.966502 -0.000813369 0)
(0.96809 -0.000776304 0)
(0.969606 -0.000740684 0)
(0.971051 -0.0007065 0)
(0.97243 -0.000673732 0)
(0.973745 -0.000642352 0)
(0.974998 -0.000612329 0)
(0.976193 -0.000583624 0)
(0.977331 -0.000556197 0)
(0.978416 -0.000530005 0)
(0.97945 -0.000505003 0)
(0.980435 -0.000481146 0)
(0.981373 -0.000458388 0)
(0.982267 -0.000436684 0)
(0.983119 -0.000415988 0)
(0.98393 -0.000396258 0)
(0.984703 -0.000377451 0)
(0.985439 -0.000359525 0)
(0.98614 -0.000342442 0)
(0.986808 -0.000326162 0)
(0.987444 -0.000310649 0)
(0.98805 -0.000295864 0)
(0.988627 -0.000281773 0)
(0.989176 -0.00026834 0)
(0.989699 -0.00025553 0)
(0.990197 -0.00024331 0)
(0.990672 -0.000231648 0)
(0.991123 -0.000220513 0)
(0.991553 -0.000209875 0)
(0.991962 -0.000199707 0)
(0.992352 -0.000189985 0)
(0.992722 -0.000180687 0)
(0.993074 -0.000171793 0)
(0.993409 -0.000163286 0)
(0.993727 -0.000155151 0)
(0.994029 -0.000147375 0)
(0.994316 -0.000139948 0)
(0.994588 -0.000132859 0)
(0.994847 -0.000126098 0)
(0.995093 -0.000119659 0)
(0.995326 -0.000113531 0)
(0.995547 -0.000107707 0)
(0.995757 -0.000102177 0)
(0.995956 -9.69326e-05 0)
(0.996144 -9.19635e-05 0)
(0.996324 -8.72596e-05 0)
(0.996494 -8.28104e-05 0)
(0.996655 -7.86052e-05 0)
(0.996808 -7.46328e-05 0)
(0.996954 -7.0882e-05 0)
(0.997092 -6.73417e-05 0)
(0.997223 -6.40008e-05 0)
(0.997348 -6.08481e-05 0)
(0.997467 -5.7873e-05 0)
(0.997579 -5.50649e-05 0)
(0.997687 -5.24133e-05 0)
(0.997789 -4.99085e-05 0)
(0.997887 -4.75406e-05 0)
(0.997979 -4.53003e-05 0)
(0.998068 -4.31789e-05 0)
(0.998152 -4.11676e-05 0)
(0.998233 -3.92585e-05 0)
(0.998309 -3.7444e-05 0)
(0.998382 -3.57168e-05 0)
(0.998452 -3.40703e-05 0)
(0.998519 -3.24984e-05 0)
(0.998582 -3.09955e-05 0)
(0.998643 -2.95564e-05 0)
(0.9987 -2.81767e-05 0)
(0.998755 -2.68522e-05 0)
(0.998808 -2.55793e-05 0)
(0.998858 -2.43551e-05 0)
(0.998905 -2.31767e-05 0)
(0.99895 -2.2042e-05 0)
(0.998993 -2.09489e-05 0)
(0.999034 -1.9896e-05 0)
(0.999073 -1.88819e-05 0)
(0.99911 -1.79056e-05 0)
(0.999144 -1.6966e-05 0)
(0.999177 -1.60624e-05 0)
(0.999209 -1.51943e-05 0)
(0.999238 -1.4361e-05 0)
(0.999266 -1.3562e-05 0)
(0.999292 -1.27969e-05 0)
(0.999317 -1.20653e-05 0)
(0.999341 -1.13666e-05 0)
(0.999363 -1.07004e-05 0)
(0.999383 -1.00661e-05 0)
(0.999403 -9.46336e-06 0)
(0.999421 -8.89145e-06 0)
(0.999438 -8.3498e-06 0)
(0.999454 -7.83773e-06 0)
(0.99947 -7.35456e-06 0)
(0.999484 -6.89955e-06 0)
(0.999497 -6.47191e-06 0)
(0.99951 -6.07085e-06 0)
(0.999521 -5.69553e-06 0)
(0.999532 -5.34509e-06 0)
(0.999543 -5.01866e-06 0)
(0.999552 -4.71534e-06 0)
(0.999562 -4.43422e-06 0)
(0.99957 -4.1744e-06 0)
(0.999578 -3.93497e-06 0)
(0.999586 -3.71499e-06 0)
(0.999593 -3.51356e-06 0)
(0.9996 -3.32976e-06 0)
(0.999606 -3.1627e-06 0)
(0.999613 -3.01146e-06 0)
(0.999618 -2.87517e-06 0)
(0.999624 -2.75294e-06 0)
(0.999629 -2.64393e-06 0)
(0.999635 -2.54728e-06 0)
(0.99964 -2.46217e-06 0)
(0.999644 -2.38778e-06 0)
(0.999649 -2.32333e-06 0)
(0.999654 -2.26805e-06 0)
(0.999658 -2.22119e-06 0)
(0.999663 -2.18203e-06 0)
(0.999667 -2.14987e-06 0)
(0.999671 -2.12404e-06 0)
(0.999675 -2.10389e-06 0)
(0.99968 -2.0888e-06 0)
(0.999684 -2.07819e-06 0)
(0.999688 -2.07148e-06 0)
(0.999692 -2.06815e-06 0)
(0.999696 -2.06768e-06 0)
(0.9997 -2.0696e-06 0)
(0.999704 -2.07346e-06 0)
(0.999709 -2.07882e-06 0)
(0.999713 -2.0853e-06 0)
(0.999717 -2.0925e-06 0)
(0.999721 -2.10009e-06 0)
(0.999725 -2.10773e-06 0)
(0.99973 -2.11512e-06 0)
(0.999734 -2.12196e-06 0)
(0.999738 -2.12798e-06 0)
(0.999742 -2.13294e-06 0)
(0.999747 -2.13659e-06 0)
(0.999751 -2.13871e-06 0)
(0.999755 -2.13909e-06 0)
(0.999759 -2.13754e-06 0)
(0.999764 -2.13386e-06 0)
(0.999768 -2.12788e-06 0)
(0.999772 -2.11945e-06 0)
(0.999776 -2.10841e-06 0)
(0.999781 -2.09462e-06 0)
(0.999785 -2.07796e-06 0)
(0.999789 -2.05831e-06 0)
(0.999793 -2.03559e-06 0)
(0.999797 -2.00971e-06 0)
(0.999801 -1.98063e-06 0)
(0.999805 -1.9483e-06 0)
(0.999809 -1.91272e-06 0)
(0.999813 -1.8739e-06 0)
(0.999816 -1.8319e-06 0)
(0.99982 -1.7868e-06 0)
(0.999824 -1.73873e-06 0)
(0.999827 -1.68783e-06 0)
(0.99983 -1.63431e-06 0)
(0.999834 -1.57841e-06 0)
(0.999837 -1.5204e-06 0)
(0.99984 -1.46059e-06 0)
(0.999842 -1.39934e-06 0)
(0.999845 -1.33703e-06 0)
(0.999848 -1.27407e-06 0)
(0.99985 -1.21087e-06 0)
(0.999853 -1.14787e-06 0)
(0.999855 -1.0855e-06 0)
(0.999857 -1.0242e-06 0)
(0.999859 -9.64384e-07 0)
(0.999861 -9.06443e-07 0)
(0.999863 -8.50748e-07 0)
(0.999864 -7.97634e-07 0)
(0.999866 -7.47407e-07 0)
(0.999867 -7.00338e-07 0)
(0.999869 -6.56661e-07 0)
(0.99987 -6.1658e-07 0)
(0.999871 -5.80266e-07 0)
(0.999872 -5.47862e-07 0)
(0.999873 -5.19476e-07 0)
(0.999874 -4.95185e-07 0)
(0.999875 -4.75031e-07 0)
(0.999876 -4.59007e-07 0)
(0.999877 -4.47058e-07 0)
(0.999878 -4.39066e-07 0)
(0.999879 -4.34835e-07 0)
(0.999879 -4.34088e-07 0)
(0.99988 -4.36451e-07 0)
(0.999881 -4.41448e-07 0)
(0.999882 -4.48503e-07 0)
(0.999883 -4.56942e-07 0)
(0.999884 -4.66015e-07 0)
(0.999885 -4.74916e-07 0)
(0.999886 -4.82823e-07 0)
(0.999887 -4.8895e-07 0)
(0.999887 -4.926e-07 0)
(0.999888 -4.9323e-07 0)
(0.999889 -4.905e-07 0)
(0.99989 -4.84316e-07 0)
(0.999891 -4.74858e-07 0)
(0.999892 -4.62582e-07 0)
(0.999893 -4.48198e-07 0)
(0.999894 -4.32622e-07 0)
(0.999895 -4.16918e-07 0)
(0.999896 -4.02209e-07 0)
(0.999897 -3.89597e-07 0)
(0.999898 -3.80074e-07 0)
(0.999899 -3.74455e-07 0)
(0.9999 -3.73322e-07 0)
(0.999901 -3.76989e-07 0)
(0.999902 -3.85499e-07 0)
(0.999903 -3.98634e-07 0)
(0.999904 -4.15944e-07 0)
(0.999905 -4.368e-07 0)
(0.999906 -4.60436e-07 0)
(0.999907 -4.8601e-07 0)
(0.999908 -5.1265e-07 0)
(0.999909 -5.39505e-07 0)
(0.99991 -5.65781e-07 0)
(0.999912 -5.90771e-07 0)
(0.999913 -6.13873e-07 0)
(0.999914 -6.34603e-07 0)
(0.999915 -6.52598e-07 0)
(0.999917 -6.67611e-07 0)
(0.999918 -6.79506e-07 0)
(0.99992 -6.88243e-07 0)
(0.999921 -6.93867e-07 0)
(0.999922 -6.96492e-07 0)
(0.999924 -6.96286e-07 0)
(0.999925 -6.93456e-07 0)
(0.999926 -6.88237e-07 0)
(0.999928 -6.80881e-07 0)
(0.999929 -6.71645e-07 0)
(0.999931 -6.60786e-07 0)
(0.999932 -6.48552e-07 0)
(0.999933 -6.35179e-07 0)
(0.999934 -6.20889e-07 0)
(0.999936 -6.05884e-07 0)
(0.999937 -5.9035e-07 0)
(0.999938 -5.7445e-07 0)
(0.999939 -5.58332e-07 0)
(0.99994 -5.42122e-07 0)
(0.999941 -5.25932e-07 0)
(0.999942 -5.09855e-07 0)
(0.999943 -4.9397e-07 0)
(0.999944 -4.78344e-07 0)
(0.999945 -4.6303e-07 0)
(0.999946 -4.4807e-07 0)
(0.999947 -4.33499e-07 0)
(0.999948 -4.19342e-07 0)
(0.999949 -4.05617e-07 0)
(0.999949 -3.92335e-07 0)
(0.99995 -3.79503e-07 0)
(0.999951 -3.67124e-07 0)
(0.999952 -3.55196e-07 0)
(0.999952 -3.43715e-07 0)
(0.999953 -3.32673e-07 0)
(0.999954 -3.22062e-07 0)
(0.999954 -3.11871e-07 0)
(0.999955 -3.02088e-07 0)
(0.999955 -2.927e-07 0)
(0.999956 -2.83694e-07 0)
(0.999957 -2.75055e-07 0)
(0.999957 -2.66771e-07 0)
(0.999958 -2.58825e-07 0)
(0.999958 -2.51205e-07 0)
(0.999959 -2.43895e-07 0)
(0.999959 -2.36882e-07 0)
(0.99996 -2.30152e-07 0)
(0.99996 -2.23691e-07 0)
(0.99996 -2.17489e-07 0)
(0.999961 -2.1152e-07 0)
(0.999961 -2.05827e-07 0)
(0.999962 -2.00162e-07 0)
(0.999962 -1.95538e-07 0)
(0.999963 -1.87438e-07 0)
(-0.00181895 0.025284 0)
(-0.0066515 0.00559362 0)
(0.00544138 -0.0125898 0)
(-0.0353918 0.051777 0)
(-0.0819914 0.0523437 0)
(-0.12184 0.00804016 0)
(-0.0936647 -0.0417047 0)
(0.1064 -0.0778558 0)
(0.260098 -0.0251534 0)
(0.307677 0.00994041 0)
(0.262731 0.0105193 0)
(0.265249 0.0160669 0)
(0.115944 -0.0216118 0)
(0.0811039 -0.0311448 0)
(0.0905655 -0.0305406 0)
(0.0963794 -0.0326508 0)
(0.112497 -0.0450392 0)
(0.135583 -0.0661885 0)
(0.163471 -0.0664327 0)
(0.217014 -0.0190329 0)
(0.282856 0.0321348 0)
(0.294053 0.0584104 0)
(0.281083 0.0543339 0)
(0.265444 0.033159 0)
(0.249866 0.0143256 0)
(0.23943 0.00364975 0)
(0.231691 -0.00170158 0)
(0.221311 -0.00892586 0)
(0.212969 -0.0114041 0)
(0.210649 -0.012563 0)
(0.217324 -0.0128227 0)
(0.229253 -0.0108719 0)
(0.240019 -0.00714045 0)
(0.249021 -0.00483881 0)
(0.258534 -0.00346929 0)
(0.269035 -0.00310551 0)
(0.280161 -0.00371819 0)
(0.29103 -0.00488981 0)
(0.30108 -0.00616181 0)
(0.310394 -0.00726862 0)
(0.31922 -0.0083004 0)
(0.327689 -0.00941993 0)
(0.33574 -0.0106332 0)
(0.343199 -0.0118007 0)
(0.349908 -0.0127248 0)
(0.355847 -0.0132171 0)
(0.361236 -0.0131869 0)
(0.366528 -0.0126886 0)
(0.372198 -0.0118409 0)
(0.378493 -0.0107554 0)
(0.385331 -0.00955414 0)
(0.392433 -0.00839424 0)
(0.399516 -0.00744463 0)
(0.406402 -0.00683923 0)
(0.413029 -0.00664388 0)
(0.419388 -0.006836 0)
(0.42548 -0.00730853 0)
(0.431278 -0.00790642 0)
(0.436762 -0.00847395 0)
(0.441948 -0.00889115 0)
(0.446933 -0.00910281 0)
(0.451912 -0.00912373 0)
(0.457071 -0.00894753 0)
(0.462479 -0.008354 0)
(0.467968 -0.00779105 0)
(0.473595 -0.00745327 0)
(0.479396 -0.0073609 0)
(0.485325 -0.00751476 0)
(0.491329 -0.00787765 0)
(0.497346 -0.008367 0)
(0.503299 -0.00887961 0)
(0.509109 -0.00931904 0)
(0.5147 -0.00961426 0)
(0.520008 -0.00973056 0)
(0.524988 -0.00967458 0)
(0.52962 -0.00949251 0)
(0.533903 -0.00925938 0)
(0.537862 -0.0090592 0)
(0.541539 -0.0089591 0)
(0.544987 -0.00898993 0)
(0.548263 -0.00914284 0)
(0.551425 -0.00938029 0)
(0.554525 -0.00965216 0)
(0.557609 -0.00991181 0)
(0.560719 -0.0101297 0)
(0.563892 -0.0102923 0)
(0.567157 -0.010386 0)
(0.570555 -0.0103869 0)
(0.57411 -0.0102094 0)
(0.577708 -0.00971322 0)
(0.581277 -0.00927956 0)
(0.584979 -0.00902352 0)
(0.588957 -0.0088439 0)
(0.593204 -0.00870006 0)
(0.597677 -0.00859843 0)
(0.602345 -0.00854887 0)
(0.607193 -0.00855677 0)
(0.612211 -0.00861979 0)
(0.617388 -0.00872548 0)
(0.622707 -0.00885458 0)
(0.628148 -0.0089887 0)
(0.633694 -0.00911735 0)
(0.639343 -0.00923899 0)
(0.645106 -0.00935519 0)
(0.650993 -0.009465 0)
(0.657005 -0.00955649 0)
(0.66312 -0.00959405 0)
(0.669254 -0.0095197 0)
(0.6753 -0.00936931 0)
(0.681263 -0.00927241 0)
(0.687239 -0.00925897 0)
(0.693283 -0.00929196 0)
(0.699402 -0.00934075 0)
(0.705593 -0.00938546 0)
(0.711845 -0.00940796 0)
(0.718139 -0.00938816 0)
(0.724435 -0.00930295 0)
(0.730666 -0.00914176 0)
(0.736775 -0.00895576 0)
(0.742776 -0.00881987 0)
(0.748728 -0.00874421 0)
(0.754672 -0.00869946 0)
(0.76061 -0.00866009 0)
(0.766526 -0.00860648 0)
(0.772387 -0.00852594 0)
(0.77816 -0.00842763 0)
(0.783838 -0.00834061 0)
(0.789446 -0.0082785 0)
(0.795006 -0.00823001 0)
(0.800525 -0.00817802 0)
(0.805992 -0.00811185 0)
(0.811397 -0.00803309 0)
(0.816735 -0.00795195 0)
(0.822014 -0.00787331 0)
(0.82724 -0.00779335 0)
(0.832411 -0.00770725 0)
(0.837522 -0.00761436 0)
(0.842568 -0.00751706 0)
(0.847547 -0.00741663 0)
(0.85246 -0.00731195 0)
(0.857301 -0.00720193 0)
(0.862067 -0.00708678 0)
(0.866754 -0.00696706 0)
(0.87136 -0.00684285 0)
(0.875882 -0.00671425 0)
(0.880317 -0.00658172 0)
(0.884663 -0.00644574 0)
(0.888916 -0.00630665 0)
(0.893076 -0.00616481 0)
(0.89714 -0.00602061 1.34746e-42)
(0.901107 -0.00587439 -5.41904e-43)
(0.904976 -0.00572648 0)
(0.908746 -0.00557722 0)
(0.912415 -0.00542693 0)
(0.915984 -0.0052759 0)
(0.919452 -0.00512439 0)
(0.922818 -0.0049726 0)
(0.926083 -0.00482071 0)
(0.929247 -0.00466881 0)
(0.93231 -0.00451701 0)
(0.935271 -0.00436544 0)
(0.938131 -0.00421426 0)
(0.94089 -0.0040637 0)
(0.943549 -0.00391406 0)
(0.946108 -0.00376571 0)
(0.948569 -0.00361906 0)
(0.950932 -0.00347453 0)
(0.953199 -0.00333257 0)
(0.955373 -0.00319356 0)
(0.957454 -0.00305789 0)
(0.959446 -0.00292587 0)
(0.961352 -0.00279774 0)
(0.963173 -0.00267369 0)
(0.964912 -0.00255387 0)
(0.966573 -0.00243836 0)
(0.968159 -0.00232719 0)
(0.969672 -0.00222037 0)
(0.971115 -0.00211786 0)
(0.972491 -0.00201961 0)
(0.973803 -0.00192552 0)
(0.975054 -0.00183551 0)
(0.976246 -0.00174945 0)
(0.977382 -0.00166723 0)
(0.978465 -0.00158872 0)
(0.979496 -0.00151377 0)
(0.980479 -0.00144225 0)
(0.981416 -0.00137404 0)
(0.982308 -0.00130897 0)
(0.983158 -0.00124694 0)
(0.983967 -0.0011878 0)
(0.984738 -0.00113142 0)
(0.985473 -0.00107768 0)
(0.986172 -0.00102647 0)
(0.986839 -0.000977668 0)
(0.987473 -0.000931159 0)
(0.988078 -0.000886835 0)
(0.988653 -0.000844589 0)
(0.989201 -0.000804316 0)
(0.989724 -0.000765913 0)
(0.990221 -0.000729279 0)
(0.990694 -0.00069432 0)
(0.991145 -0.000660944 0)
(0.991574 -0.000629062 0)
(0.991982 -0.000598596 0)
(0.99237 -0.00056947 0)
(0.99274 -0.00054162 0)
(0.993091 -0.000514985 0)
(0.993425 -0.000489514 0)
(0.993742 -0.000465162 0)
(0.994044 -0.000441889 0)
(0.99433 -0.00041966 0)
(0.994602 -0.000398445 0)
(0.99486 -0.000378214 0)
(0.995105 -0.000358942 0)
(0.995338 -0.000340601 0)
(0.995558 -0.000323165 0)
(0.995767 -0.000306608 0)
(0.995966 -0.0002909 0)
(0.996154 -0.000276014 0)
(0.996333 -0.000261918 0)
(0.996502 -0.000248581 0)
(0.996663 -0.000235971 0)
(0.996816 -0.000224055 0)
(0.996961 -0.0002128 0)
(0.997099 -0.000202174 0)
(0.997229 -0.000192143 0)
(0.997354 -0.000182675 0)
(0.997472 -0.000173739 0)
(0.997585 -0.000165302 0)
(0.997692 -0.000157334 0)
(0.997794 -0.000149807 0)
(0.997891 -0.000142691 0)
(0.997984 -0.000135958 0)
(0.998072 -0.000129583 0)
(0.998156 -0.000123539 0)
(0.998236 -0.000117803 0)
(0.998313 -0.000112351 0)
(0.998386 -0.000107163 0)
(0.998455 -0.000102217 0)
(0.998522 -9.74963e-05 0)
(0.998585 -9.29828e-05 0)
(0.998645 -8.86615e-05 0)
(0.998703 -8.45185e-05 0)
(0.998758 -8.05414e-05 0)
(0.99881 -7.67196e-05 0)
(0.99886 -7.30436e-05 0)
(0.998907 -6.95053e-05 0)
(0.998952 -6.60981e-05 0)
(0.998995 -6.28161e-05 0)
(0.999036 -5.96545e-05 0)
(0.999075 -5.66095e-05 0)
(0.999111 -5.36778e-05 0)
(0.999146 -5.08567e-05 0)
(0.999179 -4.81441e-05 0)
(0.99921 -4.55379e-05 0)
(0.99924 -4.30367e-05 0)
(0.999268 -4.06389e-05 0)
(0.999294 -3.83431e-05 0)
(0.999319 -3.61479e-05 0)
(0.999342 -3.4052e-05 0)
(0.999364 -3.20539e-05 0)
(0.999384 -3.01521e-05 0)
(0.999404 -2.83449e-05 0)
(0.999422 -2.66305e-05 0)
(0.999439 -2.5007e-05 0)
(0.999455 -2.34725e-05 0)
(0.999471 -2.20247e-05 0)
(0.999485 -2.06615e-05 0)
(0.999498 -1.93804e-05 0)
(0.99951 -1.81791e-05 0)
(0.999522 -1.7055e-05 0)
(0.999533 -1.60054e-05 0)
(0.999543 -1.50279e-05 0)
(0.999553 -1.41196e-05 0)
(0.999562 -1.32778e-05 0)
(0.999571 -1.24999e-05 0)
(0.999579 -1.1783e-05 0)
(0.999586 -1.11244e-05 0)
(0.999593 -1.05214e-05 0)
(0.9996 -9.97128e-06 0)
(0.999607 -9.47124e-06 0)
(0.999613 -9.01864e-06 0)
(0.999619 -8.61081e-06 0)
(0.999624 -8.24515e-06 0)
(0.99963 -7.91907e-06 0)
(0.999635 -7.63004e-06 0)
(0.99964 -7.37558e-06 0)
(0.999645 -7.15327e-06 0)
(0.999649 -6.96073e-06 0)
(0.999654 -6.79566e-06 0)
(0.999658 -6.65582e-06 0)
(0.999663 -6.53905e-06 0)
(0.999667 -6.44325e-06 0)
(0.999671 -6.36641e-06 0)
(0.999675 -6.30658e-06 0)
(0.99968 -6.26192e-06 0)
(0.999684 -6.23064e-06 0)
(0.999688 -6.21106e-06 0)
(0.999692 -6.20157e-06 0)
(0.999696 -6.20066e-06 0)
(0.9997 -6.20687e-06 0)
(0.999704 -6.21886e-06 0)
(0.999709 -6.23536e-06 0)
(0.999713 -6.25515e-06 0)
(0.999717 -6.27712e-06 0)
(0.999721 -6.30022e-06 0)
(0.999725 -6.32345e-06 0)
(0.99973 -6.34589e-06 0)
(0.999734 -6.36668e-06 0)
(0.999738 -6.38501e-06 0)
(0.999742 -6.40012e-06 0)
(0.999747 -6.41129e-06 0)
(0.999751 -6.41786e-06 0)
(0.999755 -6.41921e-06 0)
(0.999759 -6.41473e-06 0)
(0.999764 -6.40387e-06 0)
(0.999768 -6.38612e-06 0)
(0.999772 -6.36097e-06 0)
(0.999776 -6.32799e-06 0)
(0.999781 -6.28675e-06 0)
(0.999785 -6.23687e-06 0)
(0.999789 -6.17803e-06 0)
(0.999793 -6.10992e-06 0)
(0.999797 -6.03232e-06 0)
(0.999801 -5.94506e-06 0)
(0.999805 -5.84802e-06 0)
(0.999809 -5.74118e-06 0)
(0.999813 -5.6246e-06 0)
(0.999816 -5.49841e-06 0)
(0.99982 -5.36287e-06 0)
(0.999824 -5.21835e-06 0)
(0.999827 -5.06529e-06 0)
(0.99983 -4.90431e-06 0)
(0.999834 -4.73612e-06 0)
(0.999837 -4.56153e-06 0)
(0.99984 -4.3815e-06 0)
(0.999843 -4.19709e-06 0)
(0.999845 -4.00945e-06 0)
(0.999848 -3.8198e-06 0)
(0.99985 -3.62944e-06 0)
(0.999853 -3.43968e-06 0)
(0.999855 -3.25187e-06 0)
(0.999857 -3.06731e-06 0)
(0.999859 -2.88727e-06 0)
(0.999861 -2.71294e-06 0)
(0.999863 -2.5454e-06 0)
(0.999864 -2.38563e-06 0)
(0.999866 -2.23447e-06 0)
(0.999867 -2.0926e-06 0)
(0.999869 -1.96059e-06 0)
(0.99987 -1.83888e-06 0)
(0.999871 -1.72779e-06 0)
(0.999872 -1.62754e-06 0)
(0.999873 -1.53831e-06 0)
(0.999874 -1.4602e-06 0)
(0.999875 -1.39332e-06 0)
(0.999876 -1.33772e-06 0)
(0.999877 -1.29343e-06 0)
(0.999878 -1.26044e-06 0)
(0.999879 -1.23865e-06 0)
(0.999879 -1.22781e-06 0)
(0.99988 -1.22751e-06 0)
(0.999881 -1.23709e-06 0)
(0.999882 -1.2556e-06 0)
(0.999883 -1.28176e-06 0)
(0.999884 -1.31397e-06 0)
(0.999885 -1.35035e-06 0)
(0.999886 -1.38876e-06 0)
(0.999887 -1.42697e-06 0)
(0.999887 -1.46273e-06 0)
(0.999888 -1.49398e-06 0)
(0.999889 -1.51899e-06 0)
(0.99989 -1.53652e-06 0)
(0.999892 -1.54595e-06 0)
(0.999893 -1.54735e-06 0)
(0.999894 -1.54147e-06 0)
(0.999895 -1.52972e-06 0)
(0.999895 -1.51402e-06 0)
(0.999896 -1.49665e-06 0)
(0.999897 -1.48007e-06 0)
(0.999898 -1.46666e-06 0)
(0.999899 -1.45858e-06 0)
(0.9999 -1.45758e-06 0)
(0.999901 -1.46492e-06 0)
(0.999902 -1.48125e-06 0)
(0.999903 -1.50663e-06 0)
(0.999904 -1.54057e-06 0)
(0.999905 -1.58209e-06 0)
(0.999906 -1.62981e-06 0)
(0.999907 -1.68208e-06 0)
(0.999908 -1.73708e-06 0)
(0.999909 -1.79296e-06 0)
(0.99991 -1.84791e-06 0)
(0.999911 -1.90026e-06 0)
(0.999913 -1.94853e-06 0)
(0.999914 -1.99151e-06 0)
(0.999915 -2.0282e-06 0)
(0.999917 -2.05792e-06 0)
(0.999918 -2.08022e-06 0)
(0.99992 -2.09489e-06 0)
(0.999921 -2.10194e-06 0)
(0.999922 -2.10157e-06 0)
(0.999924 -2.09413e-06 0)
(0.999925 -2.08006e-06 0)
(0.999927 -2.05991e-06 0)
(0.999928 -2.03428e-06 0)
(0.999929 -2.0038e-06 0)
(0.999931 -1.96912e-06 0)
(0.999932 -1.93085e-06 0)
(0.999933 -1.88961e-06 0)
(0.999934 -1.84598e-06 0)
(0.999936 -1.80049e-06 0)
(0.999937 -1.75364e-06 0)
(0.999938 -1.70586e-06 0)
(0.999939 -1.65756e-06 0)
(0.99994 -1.60909e-06 0)
(0.999941 -1.56074e-06 0)
(0.999942 -1.51279e-06 0)
(0.999943 -1.46545e-06 0)
(0.999944 -1.4189e-06 0)
(0.999945 -1.37331e-06 0)
(0.999946 -1.32879e-06 0)
(0.999947 -1.28543e-06 0)
(0.999948 -1.24332e-06 0)
(0.999949 -1.20249e-06 0)
(0.999949 -1.16298e-06 0)
(0.99995 -1.12482e-06 0)
(0.999951 -1.08801e-06 0)
(0.999952 -1.05254e-06 0)
(0.999952 -1.01839e-06 0)
(0.999953 -9.85561e-07 0)
(0.999954 -9.54011e-07 0)
(0.999954 -9.2371e-07 0)
(0.999955 -8.94624e-07 0)
(0.999955 -8.66715e-07 0)
(0.999956 -8.39942e-07 0)
(0.999957 -8.14264e-07 0)
(0.999957 -7.89639e-07 0)
(0.999958 -7.66024e-07 0)
(0.999958 -7.43376e-07 0)
(0.999959 -7.21654e-07 0)
(0.999959 -7.00814e-07 0)
(0.99996 -6.80818e-07 0)
(0.99996 -6.61622e-07 0)
(0.99996 -6.43196e-07 0)
(0.999961 -6.25466e-07 0)
(0.999961 -6.08555e-07 0)
(0.999962 -5.91733e-07 0)
(0.999962 -5.7799e-07 0)
(0.999963 -5.54053e-07 0)
(-0.0116882 0.0295125 0)
(-0.0204066 -0.00858475 0)
(-0.0914253 0.0390374 0)
(-0.114159 0.0953105 0)
(-0.118493 0.0835366 0)
(-0.0696601 -0.00433214 0)
(0.18239 -0.210499 0)
(0.371002 -0.274419 0)
(0.39798 -0.208047 0)
(0.406883 -0.0977011 0)
(0.39604 0.0246026 0)
(0.371317 0.109614 0)
(0.206971 0.0919613 0)
(0.269906 -0.00324983 0)
(0.344388 -0.0310012 0)
(0.26372 -0.0287367 0)
(0.25639 -0.0378641 0)
(0.203434 -0.0745532 0)
(0.141992 -0.073593 0)
(0.121188 -0.063095 0)
(0.122577 -0.0343396 0)
(0.159866 0.00681792 0)
(0.199465 0.0243447 0)
(0.213148 0.0186891 0)
(0.220886 0.00718629 0)
(0.221657 0.0041937 0)
(0.217383 0.00843739 0)
(0.211715 0.00881234 0)
(0.20793 0.00283029 0)
(0.208353 -0.0149654 0)
(0.209144 -0.0294633 0)
(0.205413 -0.0302058 0)
(0.200063 -0.0245082 0)
(0.199308 -0.021435 0)
(0.198937 -0.0212082 0)
(0.198305 -0.0223461 0)
(0.198714 -0.0233877 0)
(0.199563 -0.0235324 0)
(0.199775 -0.0228236 0)
(0.20001 -0.0218539 0)
(0.201094 -0.0209595 0)
(0.202486 -0.0201076 0)
(0.202985 -0.0191437 0)
(0.201826 -0.0180131 0)
(0.198859 -0.0168091 0)
(0.194616 -0.0157932 0)
(0.190944 -0.0153378 0)
(0.190327 -0.0156321 0)
(0.1945 -0.016471 0)
(0.203567 -0.017406 0)
(0.216338 -0.0180692 0)
(0.231151 -0.0183411 0)
(0.246434 -0.0182774 0)
(0.261034 -0.0179895 0)
(0.274276 -0.0175694 0)
(0.285867 -0.0170633 0)
(0.295721 -0.0164913 0)
(0.303926 -0.0158805 0)
(0.310622 -0.0152915 0)
(0.315969 -0.0148239 0)
(0.320271 -0.0145854 0)
(0.324459 -0.0146416 0)
(0.33177 -0.0149711 0)
(0.349409 -0.0153775 0)
(0.368155 -0.0158351 0)
(0.385792 -0.0161527 0)
(0.402266 -0.0163185 0)
(0.417563 -0.0163461 0)
(0.431698 -0.0162558 0)
(0.444781 -0.0160699 0)
(0.457 -0.0158064 0)
(0.468607 -0.0154798 0)
(0.479883 -0.0151036 0)
(0.491085 -0.0146898 0)
(0.502378 -0.0142443 0)
(0.513769 -0.0137647 0)
(0.525111 -0.0132439 0)
(0.536156 -0.0126771 0)
(0.546655 -0.0120668 0)
(0.556424 -0.0114277 0)
(0.565366 -0.0107901 0)
(0.57348 -0.0101955 0)
(0.580848 -0.00968631 0)
(0.587597 -0.00928877 0)
(0.593846 -0.00900251 0)
(0.5997 -0.00881966 0)
(0.605248 -0.0087496 0)
(0.610649 -0.00883501 0)
(0.616018 -0.00912172 0)
(0.62118 -0.00889152 0)
(0.6257 -0.00893303 0)
(0.62987 -0.00952577 0)
(0.633976 -0.0102964 0)
(0.638046 -0.011005 0)
(0.64209 -0.0116174 0)
(0.646131 -0.0121575 0)
(0.650171 -0.0126466 0)
(0.654204 -0.0130947 0)
(0.658208 -0.0134973 0)
(0.662152 -0.013849 0)
(0.666002 -0.0141605 0)
(0.669741 -0.0144639 0)
(0.673367 -0.014791 0)
(0.676901 -0.0151394 0)
(0.680375 -0.0154899 0)
(0.683837 -0.0157965 0)
(0.687348 -0.0159521 0)
(0.690875 -0.015779 0)
(0.6943 -0.0154553 0)
(0.697664 -0.01532 0)
(0.701167 -0.0153296 0)
(0.704907 -0.0153795 0)
(0.708897 -0.0154354 0)
(0.713148 -0.0154834 0)
(0.717671 -0.015509 0)
(0.722467 -0.0154967 0)
(0.727507 -0.0154084 0)
(0.732675 -0.0151822 0)
(0.737851 -0.0149057 0)
(0.743061 -0.0147486 0)
(0.748419 -0.0147201 0)
(0.753961 -0.0147404 0)
(0.759658 -0.0147437 0)
(0.765463 -0.0146833 0)
(0.771306 -0.0145286 0)
(0.777103 -0.0143079 0)
(0.782826 -0.0141079 0)
(0.788511 -0.0139633 0)
(0.794189 -0.0138465 0)
(0.799854 -0.0137244 0)
(0.805473 -0.013578 0)
(0.811011 -0.0134142 0)
(0.816458 -0.013259 0)
(0.821829 -0.0131214 0)
(0.827137 -0.0129887 0)
(0.832378 -0.0128466 0)
(0.837543 -0.0126921 0)
(0.842628 -0.0125308 0)
(0.847636 -0.0123652 0)
(0.852571 -0.0121919 0)
(0.857428 -0.0120084 0)
(0.862206 -0.0118158 0)
(0.866902 -0.011616 0)
(0.871515 -0.0114089 0)
(0.876042 -0.0111946 0)
(0.880482 -0.0109738 0)
(0.88483 -0.0107474 0)
(0.889087 -0.0105156 0)
(0.89325 -0.010279 0)
(0.897317 -0.0100384 0)
(0.901287 -0.0097943 0)
(0.905158 -0.00954737 0)
(0.90893 -0.0092982 0)
(0.912601 -0.00904735 0)
(0.916171 -0.00879532 0)
(0.91964 -0.00854253 0)
(0.923008 -0.00828934 0)
(0.926274 -0.00803599 0)
(0.929438 -0.00778265 0)
(0.932501 -0.00752946 0)
(0.935462 -0.00727661 0)
(0.938322 -0.00702433 0)
(0.941081 -0.00677303 0)
(0.943739 -0.0065232 0)
(0.946296 -0.00627546 0)
(0.948755 -0.00603052 0)
(0.951116 -0.00578914 0)
(0.95338 -0.00555204 0)
(0.955549 -0.00531992 0)
(0.957627 -0.00509342 0)
(0.959614 -0.00487305 0)
(0.961514 -0.00465924 0)
(0.96333 -0.0044523 0)
(0.965064 -0.00425246 0)
(0.96672 -0.00405984 0)
(0.9683 -0.00387452 0)
(0.969807 -0.00369648 0)
(0.971245 -0.00352566 0)
(0.972616 -0.00336196 0)
(0.973922 -0.00320522 0)
(0.975168 -0.00305529 0)
(0.976355 -0.00291197 0)
(0.977487 -0.00277504 0)
(0.978565 -0.0026443 0)
(0.979592 -0.00251951 0)
(0.98057 -0.00240045 0)
(0.981503 -0.00228688 0)
(0.982391 -0.00217857 0)
(0.983237 -0.0020753 0)
(0.984043 -0.00197685 0)
(0.98481 -0.00188301 0)
(0.985541 -0.00179357 0)
(0.986238 -0.00170833 0)
(0.986901 -0.0016271 0)
(0.987533 -0.0015497 0)
(0.988134 -0.00147594 0)
(0.988707 -0.00140564 0)
(0.989253 -0.00133863 0)
(0.989773 -0.00127473 0)
(0.990268 -0.00121377 0)
(0.990739 -0.0011556 0)
(0.991188 -0.00110005 0)
(0.991615 -0.00104699 0)
(0.992021 -0.000996275 0)
(0.992408 -0.00094778 0)
(0.992775 -0.000901398 0)
(0.993125 -0.000857029 0)
(0.993458 -0.00081459 0)
(0.993774 -0.000774006 0)
(0.994074 -0.000735214 0)
(0.994359 -0.00069816 0)
(0.994629 -0.000662793 0)
(0.994886 -0.000629069 0)
(0.99513 -0.000596944 0)
(0.995361 -0.000566378 0)
(0.995581 -0.000537325 0)
(0.995789 -0.000509743 0)
(0.995986 -0.000483584 0)
(0.996173 -0.0004588 0)
(0.996351 -0.000435339 0)
(0.996519 -0.000413149 0)
(0.996679 -0.000392175 0)
(0.996831 -0.000372362 0)
(0.996975 -0.000353654 0)
(0.997112 -0.000335996 0)
(0.997242 -0.000319331 0)
(0.997366 -0.000303606 0)
(0.997484 -0.000288765 0)
(0.997596 -0.000274758 0)
(0.997702 -0.000261532 0)
(0.997804 -0.000249038 0)
(0.9979 -0.000237227 0)
(0.997992 -0.000226053 0)
(0.99808 -0.000215473 0)
(0.998164 -0.000205442 0)
(0.998244 -0.000195921 0)
(0.99832 -0.000186872 0)
(0.998392 -0.000178258 0)
(0.998462 -0.000170046 0)
(0.998528 -0.000162206 0)
(0.998591 -0.000154709 0)
(0.998651 -0.000147529 0)
(0.998708 -0.000140645 0)
(0.998763 -0.000134034 0)
(0.998815 -0.00012768 0)
(0.998865 -0.000121568 0)
(0.998912 -0.000115683 0)
(0.998957 -0.000110015 0)
(0.999 -0.000104554 0)
(0.99904 -9.92929e-05 0)
(0.999079 -9.42248e-05 0)
(0.999115 -8.93446e-05 0)
(0.99915 -8.46478e-05 0)
(0.999183 -8.0131e-05 0)
(0.999214 -7.57911e-05 0)
(0.999243 -7.16255e-05 0)
(0.999271 -6.76317e-05 0)
(0.999297 -6.38076e-05 0)
(0.999321 -6.0151e-05 0)
(0.999345 -5.66595e-05 0)