/*--------------------------------*- C++ -*----------------------------------*\
| =========                 |                                                 |
| \\      /  F ield         | OpenFOAM: The Open Source CFD Toolbox           |
|  \\    /   O peration     | Version:  v2006                                 |
|   \\  /    A nd           | Website:  www.openfoam.com                      |
|    \\/     M anipulation  |                                                 |
\*---------------------------------------------------------------------------*/
FoamFile
{
    version     2.0;
    format      ascii;
    class       volScalarField;
    location    "0";
    object      p;
}
// * * * * * * * * * * * * * * * * * * * * * * * * * * * * * * * * * * * * * //

dimensions      [1 -1 -2 0 0 0 0];


internalField   nonuniform List<scalar> 
20000
(
2.83944e-06
2.85397e-06
2.88786e-06
2.94068e-06
3.01174e-06
3.1009e-06
3.20886e-06
3.33651e-06
3.48463e-06
3.65407e-06
3.8458e-06
4.06094e-06
4.30079e-06
4.56676e-06
4.86042e-06
5.18351e-06
5.53791e-06
5.92566e-06
6.34903e-06
6.8105e-06
7.31279e-06
7.85888e-06
8.45199e-06
9.0956e-06
9.79352e-06
1.05499e-05
1.13692e-05
1.22564e-05
1.32167e-05
1.4256e-05
1.53805e-05
1.65966e-05
1.79115e-05
1.93328e-05
2.08687e-05
2.25278e-05
2.43198e-05
2.62546e-05
2.83433e-05
3.05975e-05
3.30298e-05
3.56536e-05
3.84831e-05
4.15338e-05
4.48217e-05
4.83644e-05
5.21801e-05
5.62883e-05
6.07097e-05
6.5466e-05
7.05802e-05
7.60765e-05
8.19805e-05
8.8321e-05
9.51303e-05
0.000102428
0.000110241
0.000118603
0.000127543
0.000137092
0.000147278
0.000158131
0.000169675
0.000181934
0.000194927
0.000208671
0.000223173
0.000238432
0.000254437
0.000271164
0.000288576
0.000306616
0.000325199
0.000344203
0.000363472
0.000382818
0.000402009
0.000420755
0.00043868
0.000455307
0.000470063
0.000482296
0.000491265
0.000496271
0.000496454
0.000493944
0.000518847
0.000493625
0.00045231
0.000399272
0.000339882
0.00027511
0.000205121
0.000132065
6.1089e-05
9.73622e-07
-3.57727e-05
-3.4e-05
2.10598e-05
0.000138211
0.000313457
0.000527406
0.000753916
0.000978192
0.00121074
0.00148583
0.00184791
0.00233961
0.00299219
0.00382519
0.00485106
0.00607806
0.00750841
0.00913616
0.010947
0.0129166
0.0150094
0.01718
0.0193809
0.0215682
0.0236998
0.0257626
0.0277012
0.0295066
0.0311611
0.0326474
0.033948
0.0350445
0.035917
0.036545
0.0369082
0.036987
0.0367675
0.0362744
0.0354126
0.0342102
0.0326832
0.0308452
0.028714
0.0263156
0.0236861
0.0208722
0.017931
0.0149299
0.0119432
0.00905079
0.00633015
0.00384937
0.00165862
-0.000216059
-0.00177474
-0.00303958
-0.00404561
-0.00482992
-0.0054246
-0.00585481
-0.00613877
-0.00629133
-0.0063073
-0.00622491
-0.00604119
-0.00577173
-0.00544074
-0.00508306
-0.00473776
-0.00443469
-0.00418283
-0.00396754
-0.00375972
-0.00353313
-0.00327741
-0.00299749
-0.00270502
-0.00241216
-0.0021294
-0.00186464
-0.0016227
-0.00140575
-0.00121413
-0.00104687
-0.000902203
-0.000777955
-0.000671792
-0.000581383
-0.000504485
-0.000438997
-0.000382969
-0.000334596
-0.000292205
-0.00025422
-0.000219142
-0.00018551
-0.000151865
-0.000116714
-7.85152e-05
-3.55169e-05
1.38335e-05
7.27953e-05
0.000139996
0.000238742
2.83626e-06
2.85072e-06
2.88418e-06
2.93655e-06
3.00719e-06
3.09589e-06
3.20333e-06
3.33036e-06
3.47777e-06
3.64638e-06
3.83717e-06
4.05127e-06
4.28996e-06
4.5547e-06
4.84709e-06
5.16891e-06
5.52207e-06
5.90869e-06
6.33108e-06
6.79177e-06
7.29354e-06
7.83941e-06
8.43265e-06
9.07677e-06
9.77557e-06
1.05331e-05
1.13539e-05
1.22426e-05
1.32046e-05
1.42454e-05
1.53711e-05
1.65883e-05
1.79038e-05
1.93255e-05
2.08613e-05
2.25202e-05
2.43116e-05
2.62459e-05
2.83339e-05
3.05873e-05
3.30189e-05
3.56418e-05
3.84706e-05
4.15205e-05
4.48078e-05
4.83498e-05
5.2165e-05
5.62728e-05
6.0694e-05
6.54504e-05
7.0565e-05
7.6062e-05
8.19667e-05
8.83042e-05
9.50996e-05
0.000102386
0.000110193
0.000118551
0.000127488
0.000137034
0.000147219
0.000158069
0.000169611
0.000181868
0.00019486
0.000208603
0.000223105
0.000238365
0.000254373
0.000271103
0.000288521
0.000306569
0.000325162
0.00034418
0.000363467
0.000382833
0.000402052
0.000420835
0.000438804
0.00045547
0.000470246
0.000482515
0.000491736
0.000497422
0.000498572
0.000490569
0.000453354
0.000423437
0.0003921
0.000355793
0.000309006
0.000251283
0.000184871
0.000113765
4.42132e-05
-1.45149e-05
-4.98627e-05
-4.69335e-05
8.61955e-06
0.000125212
0.000298733
0.000510144
0.000734171
0.000957149
0.0011904
0.00146836
0.00183494
0.00233188
0.00298974
0.00382781
0.00485874
0.00609114
0.00752732
0.00916113
0.0109779
0.0129529
0.0150495
0.0172222
0.0194231
0.021608
0.0237407
0.0257816
0.0277178
0.0295228
0.0311777
0.0326649
0.0339668
0.0350645
0.0359381
0.0365668
0.0369294
0.0370057
0.0367761
0.0362076
0.0353333
0.0341431
0.0326305
0.0308016
0.0286755
0.0262811
0.0236559
0.020847
0.0179114
0.0149164
0.0119368
0.00905237
0.00634064
0.00386953
0.00168874
-0.000176524
-0.00172733
-0.00298687
-0.003991
-0.00477715
-0.0053768
-0.00581392
-0.00610677
-0.00626668
-0.00630857
-0.0062291
-0.00604584
-0.0057754
-0.00544206
-0.00508151
-0.004734
-0.00443033
-0.0041797
-0.00396674
-0.00376102
-0.00353535
-0.00327936
-0.00299856
-0.00270507
-0.00241129
-0.00212784
-0.00186265
-0.00162049
-0.0014035
-0.00121196
-0.00104485
-0.000900367
-0.000776325
-0.00067037
-0.000580161
-0.000503452
-0.00043814
-0.000382275
-0.000334054
-0.000291805
-0.000253956
-0.000219011
-0.00018551
-0.000152
-0.000116991
-7.89433e-05
-3.61107e-05
1.30558e-05
7.18093e-05
0.000138775
0.000237219
2.83324e-06
2.84805e-06
2.88175e-06
2.93431e-06
3.00515e-06
3.09403e-06
3.20166e-06
3.32889e-06
3.47652e-06
3.64539e-06
3.83647e-06
4.05091e-06
4.28999e-06
4.55515e-06
4.84799e-06
5.17025e-06
5.52383e-06
5.9108e-06
6.33344e-06
6.79423e-06
7.29594e-06
7.84152e-06
8.43422e-06
9.07751e-06
9.77515e-06
1.05312e-05
1.13502e-05
1.22369e-05
1.31966e-05
1.42349e-05
1.53579e-05
1.65724e-05
1.78852e-05
1.93042e-05
2.08374e-05
2.24936e-05
2.42825e-05
2.62141e-05
2.82995e-05
3.05502e-05
3.29788e-05
3.55987e-05
3.84242e-05
4.14706e-05
4.47543e-05
4.82924e-05
5.21034e-05
5.62068e-05
6.06232e-05
6.53746e-05
7.0484e-05
7.59756e-05
8.18751e-05
8.82086e-05
9.50031e-05
0.000102288
0.000110093
0.000118446
0.000127378
0.00013692
0.000147099
0.000157945
0.000169482
0.000181736
0.000194725
0.000208467
0.000222969
0.000238232
0.000254244
0.000270981
0.000288409
0.000306473
0.000325088
0.000344135
0.000363456
0.000382865
0.000402136
0.000420983
0.000439037
0.000455825
0.000470781
0.00048323
0.000492304
0.000496834
0.000495988
0.000491055
0.000476821
0.000465328
0.000437855
0.000396017
0.000341792
0.000277799
0.000206622
0.000131538
5.80468e-05
-4.95166e-06
-4.47343e-05
-4.56216e-05
8.03861e-06
0.000125994
0.000304323
0.000521879
0.00074944
0.000970222
0.00119538
0.00146103
0.00181509
0.00230051
0.00294882
0.00377906
0.00480348
0.00603084
0.00746379
0.00909649
0.0109148
0.0128945
0.0149987
0.017181
0.0193924
0.0215885
0.0237329
0.0257881
0.0277339
0.0295452
0.0312049
0.0326964
0.0340025
0.0351048
0.0359835
0.036618
0.0369877
0.0370737
0.0368597
0.0363232
0.0354691
0.0342771
0.0327547
0.0309149
0.0287772
0.0263695
0.0237284
0.0209006
0.0179436
0.0149238
0.0119186
0.00900834
0.00627274
0.00378181
0.00158699
-0.000285592
-0.00183728
-0.0030927
-0.00408967
-0.00486711
-0.00545722
-0.00588436
-0.00616659
-0.00631547
-0.00634419
-0.00625588
-0.00606649
-0.00578934
-0.00544874
-0.00508091
-0.004728
-0.00442254
-0.00417404
-0.00396558
-0.00376399
-0.00354007
-0.00328343
-0.00300077
-0.0027052
-0.00240956
-0.00212472
-0.00185865
-0.00161607
-0.001399
-0.00120761
-0.0010408
-0.000896701
-0.000773071
-0.000667532
-0.000577723
-0.000501391
-0.00043643
-0.00038089
-0.000332971
-0.000291006
-0.000253428
-0.000218747
-0.00018551
-0.00015227
-0.000117543
-7.9798e-05
-3.72964e-05
1.15035e-05
6.98384e-05
0.000136344
0.00023417
2.82864e-06
2.84339e-06
2.87695e-06
2.92929e-06
2.99987e-06
3.08846e-06
3.19574e-06
3.32256e-06
3.46973e-06
3.63807e-06
3.82855e-06
4.0423e-06
4.28061e-06
4.54491e-06
4.83679e-06
5.158e-06
5.51046e-06
5.89624e-06
6.31763e-06
6.77715e-06
7.27755e-06
7.82185e-06
8.41327e-06
9.05533e-06
9.7518e-06
1.05068e-05
1.13247e-05
1.22105e-05
1.31693e-05
1.42067e-05
1.53289e-05
1.65424e-05
1.78543e-05
1.9272e-05
2.08038e-05
2.24585e-05
2.42455e-05
2.61749e-05
2.82578e-05
3.05057e-05
3.29312e-05
3.55478e-05
3.83697e-05
4.14122e-05
4.46916e-05
4.82251e-05
5.20312e-05
5.61294e-05
6.05403e-05
6.52858e-05
7.03888e-05
7.58736e-05
8.17654e-05
8.80905e-05
9.48759e-05
0.000102151
0.000109946
0.000118291
0.000127215
0.000136748
0.00014692
0.000157758
0.00016929
0.000181538
0.000194523
0.000208263
0.000222766
0.000238032
0.00025405
0.000270798
0.000288242
0.000306329
0.000324977
0.000344066
0.000363439
0.00038291
0.000402262
0.000421218
0.000439407
0.000456331
0.000471381
0.000483915
0.000493351
0.000499142
0.000500353
0.000494571
0.00047499
0.000449787
0.000414316
0.000370478
0.000318066
0.000256845
0.000187804
0.000113641
3.97395e-05
-2.4894e-05
-6.71971e-05
-7.07724e-05
-1.87312e-05
0.000100128
0.000282364
0.000504957
0.000735032
0.000953293
0.00117152
0.00142928
0.00177641
0.00225797
0.0029054
0.00373648
0.00476282
0.0059936
0.00743185
0.00907171
0.0108992
0.0128903
0.0150072
0.0172015
0.0194227
0.0216258
0.0237735
0.0258313
0.0277778
0.029591
0.0312534
0.0327485
0.0340587
0.0351652
0.0360479
0.0366854
0.0370562
0.0371399
0.0369182
0.0363723
0.0355049
0.0343078
0.0327845
0.0309441
0.0288042
0.0263921
0.0237446
0.0209084
0.0179409
0.0149103
0.011893
0.00897136
0.00622692
0.00373137
0.00153734
-0.000328993
-0.00187047
-0.00311443
-0.00410158
-0.00487266
-0.00546016
-0.00588791
-0.00617325
-0.00632721
-0.00635939
-0.00627384
-0.00608308
-0.00580186
-0.00545335
-0.00507629
-0.00471636
-0.00440898
-0.00416435
-0.00396325
-0.00376827
-0.00354711
-0.0032895
-0.00300403
-0.00270532
-0.00240689
-0.00211995
-0.00185258
-0.00160938
-0.00139221
-0.00120106
-0.00103471
-0.000891185
-0.000768179
-0.000663266
-0.000574061
-0.000498298
-0.000433863
-0.000378812
-0.000331347
-0.000289808
-0.000252637
-0.000218353
-0.00018551
-0.000152674
-0.000118369
-8.10774e-05
-3.90714e-05
9.17952e-06
6.68884e-05
0.000132703
0.000229604
2.82248e-06
2.83714e-06
2.87065e-06
2.92291e-06
2.99338e-06
3.08184e-06
3.18896e-06
3.3156e-06
3.46255e-06
3.63065e-06
3.82085e-06
4.03431e-06
4.27229e-06
4.53624e-06
4.82776e-06
5.14858e-06
5.50061e-06
5.88592e-06
6.30679e-06
6.76571e-06
7.26542e-06
7.80892e-06
8.3994e-06
9.04035e-06
9.73553e-06
1.0489e-05
1.13052e-05
1.2189e-05
1.31455e-05
1.41805e-05
1.52999e-05
1.65103e-05
1.78188e-05
1.92329e-05
2.07608e-05
2.24113e-05
2.41939e-05
2.61187e-05
2.81967e-05
3.04395e-05
3.28597e-05
3.54706e-05
3.82866e-05
4.13228e-05
4.45955e-05
4.81221e-05
5.19209e-05
5.60114e-05
6.04143e-05
6.51513e-05
7.02457e-05
7.57215e-05
8.16043e-05
8.79201e-05
9.46964e-05
0.000101962
0.000109748
0.000118082
0.000126995
0.000136518
0.00014668
0.00015751
0.000169033
0.000181274
0.000194254
0.000207991
0.000222494
0.000237764
0.000253791
0.000270552
0.000288017
0.000306136
0.000324827
0.000343972
0.000363414
0.00038297
0.000402426
0.000421513
0.000439867
0.000457009
0.000472361
0.000485266
0.000494953
0.000500442
0.000500666
0.00049444
0.000479203
0.000459739
0.000431216
0.000391323
0.000339716
0.000277195
0.00020554
0.000127747
4.9174e-05
-2.11428e-05
-6.97043e-05
-7.89616e-05
-3.00241e-05
9.05733e-05
0.00027995
0.00051169
0.000746463
0.000960234
0.00116532
0.0014051
0.00173444
0.00220153
0.00283815
0.00366093
0.00468081
0.0059077
0.00734531
0.00898805
0.0108227
0.0128257
0.0149584
0.01717
0.0194082
0.0216271
0.0237888
0.0258598
0.0278168
0.0296391
0.0313096
0.0328123
0.0341303
0.0352453
0.0361371
0.0367846
0.0371662
0.0372615
0.037052
0.0365198
0.0356606
0.034467
0.03294
0.0310905
0.0289373
0.0265078
0.0238385
0.0209762
0.0179785
0.0149133
0.0118598
0.0089025
0.0061261
0.00360576
0.00139679
-0.000473704
-0.00200988
-0.00324246
-0.00421619
-0.00497463
-0.00555108
-0.0059691
-0.00624571
-0.00639166
-0.00641482
-0.00632082
-0.00612134
-0.00582847
-0.00546585
-0.00507395
-0.00470292
-0.00439197
-0.00415217
-0.00396097
-0.0037749
-0.00355728
-0.00329806
-0.00300859
-0.00270553
-0.00240329
-0.00211353
-0.00184444
-0.00160043
-0.00138313
-0.00119232
-0.00102659
-0.000883844
-0.000761673
-0.000657596
-0.000569195
-0.000494186
-0.000430453
-0.000376049
-0.000329187
-0.000288215
-0.000251584
-0.000217826
-0.000185508
-0.000153208
-0.000119466
-8.27763e-05
-4.14292e-05
6.09162e-06
6.29681e-05
0.000127864
0.000223534
2.81477e-06
2.82938e-06
2.86281e-06
2.91495e-06
2.98523e-06
3.07344e-06
3.18024e-06
3.3065e-06
3.45301e-06
3.62058e-06
3.8102e-06
4.02298e-06
4.26021e-06
4.52333e-06
4.81391e-06
5.13369e-06
5.48458e-06
5.86863e-06
6.28811e-06
6.74554e-06
7.24364e-06
7.78538e-06
8.374e-06
9.01296e-06
9.70603e-06
1.04573e-05
1.12712e-05
1.21525e-05
1.31065e-05
1.41388e-05
1.52554e-05
1.64629e-05
1.77682e-05
1.91791e-05
2.07035e-05
2.23503e-05
2.41288e-05
2.60493e-05
2.81226e-05
3.03603e-05
3.2775e-05
3.53799e-05
3.81894e-05
4.12187e-05
4.4484e-05
4.80026e-05
5.17929e-05
5.58742e-05
6.02674e-05
6.49941e-05
7.00775e-05
7.55417e-05
8.14121e-05
8.77151e-05
9.44782e-05
0.00010173
0.000109502
0.000117822
0.000126722
0.000136232
0.000146381
0.000157199
0.000168712
0.000180944
0.000193917
0.00020765
0.000222154
0.000237429
0.000253466
0.000270245
0.000287735
0.000305892
0.000324638
0.000343853
0.00036338
0.000383038
0.000402625
0.000421888
0.000440469
0.00045787
0.000473467
0.000486583
0.000496562
0.000502729
0.000504205
0.000499324
0.000485091
0.000462989
0.00043043
0.00038658
0.000332202
0.000268003
0.000194941
0.000115104
3.31597e-05
-4.21364e-05
-9.69254e-05
-0.000112364
-6.71094e-05
5.53532e-05
0.0002533
0.000496409
0.000737363
0.000946455
0.00113708
0.00135849
0.00167118
0.00212672
0.00275712
0.0035768
0.00459549
0.00582398
0.00726671
0.00891812
0.0107657
0.0127867
0.0149407
0.0171738
0.019431
0.0216654
0.023839
0.0259194
0.0278834
0.0297117
0.0313884
0.0328978
0.0342233
0.0353463
0.0362461
0.0369009
0.0372882
0.037387
0.037178
0.0366448
0.0357814
0.0345825
0.0330494
0.0311923
0.0290289
0.0265858
0.0238993
0.0210155
0.0179921
0.0148987
0.0118146
0.00882759
0.00602577
0.00348805
0.0012725
-0.000593157
-0.00211526
-0.00332924
-0.00428525
-0.00503028
-0.00559811
-0.00601141
-0.00628634
-0.00643225
-0.00645452
-0.00635852
-0.00615402
-0.00585237
-0.00547497
-0.00506604
-0.00468206
-0.00436756
-0.00413494
-0.00395741
-0.00378335
-0.00357035
-0.00330892
-0.00301423
-0.00270561
-0.00239856
-0.00210527
-0.00183404
-0.00158907
-0.00137165
-0.00118129
-0.00101638
-0.000874621
-0.00075351
-0.00065049
-0.000563102
-0.000489043
-0.000426189
-0.000372599
-0.000326492
-0.000286227
-0.000250271
-0.000217169
-0.000185506
-0.000153874
-0.000120832
-8.48923e-05
-4.43659e-05
2.24571e-06
5.80853e-05
0.000121837
0.000215973
2.80552e-06
2.82007e-06
2.85341e-06
2.90539e-06
2.97544e-06
3.06336e-06
3.16981e-06
3.29566e-06
3.44169e-06
3.60872e-06
3.79773e-06
4.00984e-06
4.24632e-06
4.50861e-06
4.7983e-06
5.11711e-06
5.46693e-06
5.84984e-06
6.26808e-06
6.72416e-06
7.2208e-06
7.76096e-06
8.34784e-06
8.98491e-06
9.67591e-06
1.04249e-05
1.12363e-05
1.2115e-05
1.3066e-05
1.40951e-05
1.52081e-05
1.64118e-05
1.77129e-05
1.91192e-05
2.06387e-05
2.22801e-05
2.40529e-05
2.59671e-05
2.80337e-05
3.02643e-05
3.26714e-05
3.52682e-05
3.80691e-05
4.10893e-05
4.43449e-05
4.78533e-05
5.16328e-05
5.57028e-05
6.0084e-05
6.47983e-05
6.98687e-05
7.53193e-05
8.11757e-05
8.74641e-05
9.42122e-05
0.000101449
0.000109205
0.000117509
0.000126393
0.000135887
0.000146022
0.000156826
0.000168326
0.000180547
0.000193512
0.00020724
0.000221744
0.000237026
0.000253076
0.000269873
0.000287394
0.000305597
0.000324408
0.000343707
0.000363336
0.000383117
0.000402859
0.000422321
0.000441156
0.000458865
0.000474835
0.000488405
0.000498893
0.000505496
0.000507165
0.000502343
0.000489004
0.000467928
0.000437394
0.000395902
0.000343272
0.000279654
0.000205623
0.000122942
3.60159e-05
-4.64016e-05
-0.000109836
-0.000133741
-9.35684e-05
3.128e-05
0.000240722
0.000499202
0.000748454
0.000950991
0.00112172
0.00131688
0.00160457
0.00204133
0.00265928
0.00346994
0.00448176
0.00570698
0.00715116
0.00880881
0.0106687
0.0127091
0.0148881
0.0171476
0.0194291
0.0216847
0.0238764
0.0259721
0.0279486
0.0297878
0.0314749
0.0329948
0.0343313
0.035466
0.0363784
0.0370463
0.0374469
0.0375583
0.0373608
0.0368374
0.0359797
0.0347819
0.0332445
0.0313773
0.029198
0.0267331
0.0240186
0.0211007
0.0180372
0.0148979
0.0117652
0.0087302
0.00588577
0.00331603
0.0010831
-0.000783933
-0.00229378
-0.00348767
-0.0044226
-0.00514998
-0.00570419
-0.00610698
-0.00637389
-0.00651299
-0.00652754
-0.00642289
-0.00620834
-0.00589117
-0.00549253
-0.00506012
-0.00465833
-0.00433841
-0.00411448
-0.00395419
-0.00379519
-0.00358754
-0.00332281
-0.00302135
-0.00270577
-0.00239279
-0.00209522
-0.00182145
-0.00157536
-0.00135784
-0.00116807
-0.00100414
-0.000863592
-0.000743756
-0.000642004
-0.000555828
-0.000482902
-0.000421097
-0.000368476
-0.000323268
-0.000283847
-0.000248697
-0.000216378
-0.000185496
-0.000154663
-0.000122458
-8.74141e-05
-4.78685e-05
-2.34361e-06
5.22566e-05
0.00011464
0.000206943
2.79475e-06
2.80924e-06
2.84246e-06
2.89425e-06
2.96404e-06
3.05162e-06
3.15767e-06
3.28303e-06
3.42849e-06
3.59488e-06
3.78314e-06
3.99441e-06
4.22997e-06
4.49123e-06
4.77978e-06
5.09734e-06
5.44579e-06
5.82718e-06
6.24377e-06
6.69804e-06
7.19271e-06
7.73072e-06
8.31526e-06
8.94979e-06
9.63806e-06
1.03841e-05
1.11924e-05
1.20676e-05
1.3015e-05
1.40401e-05
1.5149e-05
1.63482e-05
1.76446e-05
1.90458e-05
2.05598e-05
2.21954e-05
2.3962e-05
2.58696e-05
2.79291e-05
3.01521e-05
3.2551e-05
3.51391e-05
3.79307e-05
4.09409e-05
4.41859e-05
4.76829e-05
5.14503e-05
5.55074e-05
5.9875e-05
6.45748e-05
6.96299e-05
7.50645e-05
8.0904e-05
8.71748e-05
9.39048e-05
0.000101123
0.00010886
0.000117145
0.00012601
0.000135485
0.000145602
0.00015639
0.000167875
0.000180083
0.000193038
0.00020676
0.000221265
0.000236555
0.000252618
0.000269437
0.000286992
0.000305248
0.000324135
0.000343533
0.000363279
0.0003832
0.000403118
0.000422817
0.000441965
0.000460051
0.000476426
0.000490395
0.000501304
0.00050848
0.000511034
0.000507461
0.00049567
0.00047509
0.000443978
0.000401025
0.000346391
0.000280486
0.000203616
0.000116877
2.39459e-05
-6.68139e-05
-0.000140511
-0.000174795
-0.000141278
-1.40358e-05
0.000209492
0.000487514
0.000747804
0.000942975
0.00109032
0.00125575
0.00151653
0.00193465
0.00254225
0.00334662
0.00435423
0.00557935
0.00702872
0.0086966
0.0105733
0.0126387
0.0148488
0.0171398
0.0194492
0.0217281
0.0239385
0.026049
0.0280369
0.029886
0.0315826
0.0331128
0.0344605
0.0356073
0.0365322
0.0372123
0.0376238
0.0377441
0.0375527
0.0370327
0.0361743
0.0349723
0.033427
0.0315478
0.0293519
0.0268652
0.0241232
0.0211715
0.0180677
0.0148831
0.0117015
0.00861816
0.00573155
0.00313175
0.00088553
-0.000976609
-0.00246652
-0.00363282
-0.00454121
-0.00524845
-0.00578915
-0.00618337
-0.00644561
-0.00658197
-0.00659279
-0.00648286
-0.00626012
-0.00592915
-0.00550741
-0.00504797
-0.00462551
-0.00429991
-0.00408782
-0.00394995
-0.0038101
-0.00360882
-0.00333957
-0.00302961
-0.00270559
-0.00238555
-0.00208296
-0.0018063
-0.00155898
-0.00134143
-0.00115242
-0.000989719
-0.000850618
-0.00073231
-0.000632064
-0.000547322
-0.000475732
-0.000415161
-0.000363675
-0.000319519
-0.000281083
-0.000246869
-0.000215462
-0.000185488
-0.000155582
-0.000124347
-9.03432e-05
-5.19353e-05
-7.67118e-06
4.54909e-05
0.000106287
0.000196461
2.78245e-06
2.79688e-06
2.82996e-06
2.88153e-06
2.95102e-06
3.03822e-06
3.14381e-06
3.26861e-06
3.41342e-06
3.57907e-06
3.76649e-06
3.97682e-06
4.21133e-06
4.47145e-06
4.75873e-06
5.0749e-06
5.42183e-06
5.80157e-06
6.21637e-06
6.66869e-06
7.16123e-06
7.69694e-06
8.27899e-06
8.91082e-06
9.59617e-06
1.03391e-05
1.11439e-05
1.20155e-05
1.29589e-05
1.39797e-05
1.5084e-05
1.62782e-05
1.75692e-05
1.89645e-05
2.04722e-05
2.2101e-05
2.38602e-05
2.576e-05
2.7811e-05
3.00249e-05
3.2414e-05
3.49917e-05
3.77721e-05
4.07704e-05
4.40027e-05
4.74863e-05
5.12394e-05
5.52816e-05
5.96333e-05
6.43165e-05
6.93541e-05
7.47705e-05
8.0591e-05
8.68421e-05
9.35517e-05
0.000100749
0.000108464
0.000116728
0.000125571
0.000135026
0.000145123
0.000155892
0.00016736
0.000179553
0.000192495
0.000206211
0.000220716
0.000236014
0.000252093
0.000268936
0.000286528
0.000304844
0.000323818
0.000343328
0.000363207
0.000383285
0.000403402
0.000423369
0.000442864
0.000461368
0.000478211
0.000492701
0.000504219
0.000512133
0.00051552
0.000512805
0.000501931
0.000481835
0.000451048
0.000408487
0.0003542
0.000288231
0.000210175
0.00012023
2.12658e-05
-7.87348e-05
-0.000164362
-0.000211127
-0.000185927
-5.58717e-05
0.00018554
0.000488835
0.000763678
0.000949725
0.00106752
0.00119562
0.00142235
0.00181665
0.00241032
0.00320488
0.00420445
0.00542634
0.00687884
0.00855569
0.0104494
0.0125425
0.0147881
0.0171158
0.0194579
0.0217642
0.0239973
0.0261262
0.0281289
0.0299909
0.0317
0.0332432
0.0346049
0.035767
0.036708
0.0374045
0.037832
0.037967
0.037788
0.0372775
0.0364241
0.0352216
0.0336702
0.0317783
0.0295628
0.0270491
0.0242722
0.0212776
0.0181228
0.0148793
0.0116345
0.00848806
0.00554538
0.00290408
0.000636932
-0.00122341
-0.00269231
-0.00382743
-0.00470527
-0.00538908
-0.00591336
-0.0062959
-0.00655035
-0.00668071
-0.00668404
-0.00656493
-0.00633155
-0.00598131
-0.00552996
-0.00503607
-0.00458716
-0.0042539
-0.00405626
-0.00394634
-0.00382999
-0.00363573
-0.00336013
-0.00303957
-0.00270544
-0.0023771
-0.00206873
-0.00178883
-0.0015402
-0.00132268
-0.00113459
-0.000973321
-0.00083589
-0.000719323
-0.000620789
-0.00053767
-0.000467592
-0.000408415
-0.000358214
-0.000315248
-0.000277927
-0.000244777
-0.000214405
-0.000185461
-0.000156608
-0.000126477
-9.36552e-05
-5.65411e-05
-1.37104e-05
3.78165e-05
9.68071e-05
0.00018456
2.76863e-06
2.78299e-06
2.81591e-06
2.86724e-06
2.9364e-06
3.02318e-06
3.12823e-06
3.25241e-06
3.3965e-06
3.56131e-06
3.74779e-06
3.95707e-06
4.19041e-06
4.44922e-06
4.73507e-06
5.04967e-06
5.39488e-06
5.77274e-06
6.18548e-06
6.63556e-06
7.12567e-06
7.65873e-06
8.23789e-06
8.86659e-06
9.54854e-06
1.02878e-05
1.10887e-05
1.1956e-05
1.28948e-05
1.39107e-05
1.50097e-05
1.61981e-05
1.74829e-05
1.88716e-05
2.03722e-05
2.19934e-05
2.37445e-05
2.56355e-05
2.76771e-05
2.9881e-05
3.22594e-05
3.48256e-05
3.75938e-05
4.0579e-05
4.37975e-05
4.72663e-05
5.10038e-05
5.50293e-05
5.93634e-05
6.4028e-05
6.9046e-05
7.44418e-05
8.02408e-05
8.64696e-05
9.3156e-05
0.000100329
0.00010802
0.000116259
0.000125078
0.000134509
0.000144583
0.00015533
0.000166779
0.000178955
0.000191883
0.000205591
0.000220096
0.000235403
0.000251499
0.000268368
0.000286001
0.000304382
0.000323454
0.00034309
0.000363118
0.000383368
0.000403702
0.000423966
0.00044386
0.000462852
0.000480231
0.000495277
0.000507393
0.000516044
0.000520413
0.000518958
0.000509525
0.000490442
0.000460015
0.000417179
0.000362027
0.00029454
0.000213817
0.000119158
1.24678e-05
-9.88776e-05
-0.000199111
-0.000261511
-0.000247435
-0.000115026
0.000148087
0.000483272
0.000776869
0.000952345
0.00103519
0.0011196
0.00130763
0.00167663
0.00225742
0.00304337
0.00403557
0.00525561
0.00671351
0.0084018
0.0103159
0.0124421
0.01473
0.0171005
0.0194797
0.0218165
0.0240742
0.0262223
0.0282398
0.0301146
0.0318363
0.0333929
0.0347695
0.0359479
0.0369061
0.0376198
0.0380633
0.038212
0.0380437
0.0375399
0.0366883
0.0354824
0.0339218
0.0320146
0.0297772
0.0272345
0.0244207
0.0213806
0.0181714
0.0148656
0.0115529
0.00833843
0.00533552
0.00265058
0.000363613
-0.00149017
-0.00293039
-0.00402588
-0.00486667
-0.00552381
-0.0060308
-0.00640211
-0.00665045
-0.0067771
-0.00677482
-0.00664814
-0.00640437
-0.00603653
-0.00555191
-0.00501776
-0.00453774
-0.00419592
-0.00401699
-0.00394246
-0.00385517
-0.00366858
-0.00338426
-0.00305059
-0.00270451
-0.00236656
-0.00205166
-0.00176823
-0.0015183
-0.00130099
-0.00111409
-0.000954554
-0.000819105
-0.000704578
-0.000608029
-0.000526779
-0.000458431
-0.000400842
-0.000352097
-0.000310475
-0.00027441
-0.000242452
-0.000213238
-0.000185446
-0.000157769
-0.000128869
-9.73662e-05
-6.16957e-05
-2.04649e-05
2.92364e-05
8.62108e-05
0.000171258
2.75329e-06
2.76758e-06
2.80034e-06
2.8514e-06
2.92018e-06
3.00648e-06
3.11096e-06
3.23445e-06
3.37773e-06
3.54161e-06
3.72705e-06
3.93516e-06
4.16719e-06
4.42456e-06
4.70883e-06
5.02169e-06
5.36499e-06
5.74077e-06
6.15124e-06
6.59886e-06
7.08628e-06
7.61642e-06
8.19242e-06
8.81768e-06
9.49592e-06
1.02312e-05
1.10277e-05
1.18904e-05
1.28242e-05
1.38347e-05
1.49278e-05
1.611e-05
1.7388e-05
1.87694e-05
2.02622e-05
2.1875e-05
2.3617e-05
2.54983e-05
2.75295e-05
2.97221e-05
3.20885e-05
3.46418e-05
3.73963e-05
4.03668e-05
4.35696e-05
4.70218e-05
5.07416e-05
5.47485e-05
5.90629e-05
6.37066e-05
6.87028e-05
7.40758e-05
7.9851e-05
8.60549e-05
9.27156e-05
9.98625e-05
0.000107526
0.000115738
0.00012453
0.000133934
0.000143982
0.000154706
0.000166133
0.00017829
0.000191202
0.000204899
0.000219405
0.000234721
0.000250835
0.000267731
0.000285407
0.00030386
0.00032304
0.000342818
0.000363009
0.000383444
0.000404012
0.000424604
0.000444944
0.000464478
0.000482446
0.000498105
0.000510909
0.000520445
0.000525976
0.000525898
0.000517835
0.000499631
0.000469467
0.00042648
0.000370972
0.000302815
0.000220358
0.000121662
7.3293e-06
-0.000116149
-0.000232816
-0.000313606
-0.000313371
-0.000178713
0.000111326
0.000487228
0.000805143
0.000968065
0.00100866
0.00104044
0.00118224
0.00152197
0.00208859
0.00286418
0.00384613
0.00506235
0.0065248
0.00822392
0.0101592
0.0123223
0.0146586
0.0170778
0.0194986
0.0218694
0.0241548
0.0263245
0.0283588
0.0302482
0.0319844
0.0335565
0.0349503
0.0361475
0.0371259
0.0378599
0.038323
0.0384893
0.0383355
0.0378421
0.0369957
0.0357886
0.0342199
0.0322971
0.0300358
0.0274604
0.0246045
0.021512
0.0182397
0.0148604
0.0114673
0.00817153
0.00509575
0.0023571
4.44769e-05
-0.00180336
-0.00321083
-0.00426034
-0.00505871
-0.00568631
-0.00617444
-0.00653297
-0.00677407
-0.00689586
-0.0068858
-0.00674924
-0.0064947
-0.00610519
-0.00558032
-0.00499679
-0.00447842
-0.0041258
-0.00397003
-0.00393974
-0.00388803
-0.00370947
-0.00341332
-0.00306368
-0.00270367
-0.00235474
-0.00203257
-0.00174533
-0.00149407
-0.00127708
-0.00109154
-0.000933947
-0.000800681
-0.000688386
-0.000594003
-0.000514791
-0.000448329
-0.000392473
-0.000345321
-0.000305173
-0.000270486
-0.000239842
-0.000211904
-0.000185385
-0.000159007
-0.000131468
-0.000101423
-6.73474e-05
-2.78841e-05
1.98007e-05
7.45487e-05
0.000156607
2.73646e-06
2.75067e-06
2.78324e-06
2.834e-06
2.90238e-06
2.98816e-06
3.09199e-06
3.21472e-06
3.35712e-06
3.51999e-06
3.70428e-06
3.9111e-06
4.1417e-06
4.39749e-06
4.68002e-06
4.99096e-06
5.33217e-06
5.70566e-06
6.11365e-06
6.55855e-06
7.04302e-06
7.56994e-06
8.14245e-06
8.76393e-06
9.43808e-06
1.01689e-05
1.09607e-05
1.18182e-05
1.27465e-05
1.3751e-05
1.48377e-05
1.60129e-05
1.72834e-05
1.86568e-05
2.01409e-05
2.17444e-05
2.34764e-05
2.5347e-05
2.73667e-05
2.9547e-05
3.19002e-05
3.44395e-05
3.71789e-05
4.01335e-05
4.33192e-05
4.67533e-05
5.04539e-05
5.44403e-05
5.87331e-05
6.33541e-05
6.83263e-05
7.36742e-05
7.94231e-05
8.55996e-05
9.22319e-05
9.93496e-05
0.000106983
0.000115165
0.000123927
0.000133301
0.000143321
0.000154019
0.000165422
0.000177556
0.00019045
0.000204136
0.000218641
0.000233968
0.000250102
0.000267025
0.000284744
0.000303274
0.000322575
0.000342509
0.000362878
0.000383509
0.000404324
0.000425268
0.000446101
0.000466242
0.00048487
0.000501197
0.000514725
0.000525188
0.000531982
0.00053347
0.000527031
0.000510024
0.000480362
0.000437279
0.000381311
0.000312254
0.000227655
0.000124192
9.59393e-07
-0.000136694
-0.000272864
-0.000376186
-0.000394048
-0.000258332
6.43465e-05
0.000491683
0.000840827
0.000988813
0.000978634
0.00094836
0.00103697
0.00134521
0.00189891
0.00266459
0.00363512
0.00484752
0.00631575
0.00802664
0.00998529
0.0121908
0.0145833
0.0170585
0.0195258
0.0219339
0.0242492
0.0264417
0.0284934
0.0303977
0.032149
0.0337375
0.0351498
0.0363676
0.0373679
0.0381241
0.0386082
0.038793
0.0386539
0.0381704
0.0373279
0.036118
0.0345391
0.0325982
0.0303105
0.0276996
0.0247983
0.0216493
0.0183085
0.0148496
0.0113682
0.0079825
0.00482587
0.00202806
-0.000311293
-0.00214893
-0.00351479
-0.00450788
-0.00525604
-0.00585081
-0.00631937
-0.00666517
-0.00690034
-0.00701919
-0.00700209
-0.00685646
-0.00659317
-0.00618213
-0.00561133
-0.0049694
-0.00440528
-0.00403983
-0.00391308
-0.00393811
-0.0039297
-0.00375882
-0.00344645
-0.00307721
-0.00270096
-0.00233957
-0.00200943
-0.0017183
-0.00146591
-0.00124961
-0.00106589
-0.000910675
-0.000780016
-0.000670337
-0.000578453
-0.000501569
-0.000437239
-0.000383327
-0.000337948
-0.000299427
-0.000266256
-0.000237049
-0.000210503
-0.000185368
-0.000160402
-0.000134341
-0.00010588
-7.35391e-05
-3.59987e-05
9.49091e-06
6.18138e-05
0.000140613
2.71813e-06
2.73225e-06
2.76462e-06
2.81506e-06
2.883e-06
2.9682e-06
3.07134e-06
3.19325e-06
3.33468e-06
3.49645e-06
3.67949e-06
3.88491e-06
4.11395e-06
4.36803e-06
4.64865e-06
4.95752e-06
5.29645e-06
5.66744e-06
6.07271e-06
6.51466e-06
6.99591e-06
7.51934e-06
8.08806e-06
8.70543e-06
9.37512e-06
1.01011e-05
1.08878e-05
1.17397e-05
1.26619e-05
1.366e-05
1.47396e-05
1.59073e-05
1.71697e-05
1.85344e-05
2.00091e-05
2.16025e-05
2.33237e-05
2.51826e-05
2.71898e-05
2.93567e-05
3.16956e-05
3.42195e-05
3.69425e-05
3.98795e-05
4.30466e-05
4.64608e-05
5.01403e-05
5.41045e-05
5.83736e-05
6.29696e-05
6.79157e-05
7.32362e-05
7.89564e-05
8.5103e-05
9.17043e-05
9.87899e-05
0.000106391
0.00011454
0.000123268
0.00013261
0.000142599
0.000153268
0.000164645
0.000176754
0.000189627
0.000203299
0.000217803
0.000233143
0.000249297
0.000266247
0.00028401
0.000302622
0.000322054
0.000342161
0.000362722
0.000383558
0.00040463
0.000425955
0.000447335
0.000468155
0.000487506
0.000504542
0.000518828
0.000530298
0.000538528
0.000541823
0.000537224
0.000521544
0.000492377
0.000449125
0.000392771
0.00032316
0.00023691
0.000129002
-3.3746e-06
-0.000156448
-0.000314777
-0.00044492
-0.000485875
-0.000350783
1.16023e-05
0.000504133
0.000893272
0.00102316
0.000951791