/*--------------------------------*- C++ -*----------------------------------*\
| =========                 |                                                 |
| \\      /  F ield         | OpenFOAM: The Open Source CFD Toolbox           |
|  \\    /   O peration     | Version:  v2006                                 |
|   \\  /    A nd           | Website:  www.openfoam.com                      |
|    \\/     M anipulation  |                                                 |
\*---------------------------------------------------------------------------*/
FoamFile
{
    version     2.0;
    format      ascii;
    class       volVectorField;
    location    "1";
    object      U;
}
// * * * * * * * * * * * * * * * * * * * * * * * * * * * * * * * * * * * * * //

dimensions      [0 1 -1 0 0 0 0];


internalField   nonuniform List<vector> 
150000
(
(0.0184453 0.00600279 0)
(-0.0452837 0.00487812 0)
(-0.0109125 0.00536188 0)
(-0.0635839 0.00534182 0)
(-0.0449583 0.00542666 0)
(-0.0820033 0.00532805 0)
(-0.0775091 0.00536839 0)
(-0.102323 0.00528704 0)
(-0.107469 0.00530181 0)
(-0.124558 0.0052274 0)
(-0.135131 0.00521447 0)
(-0.14828 0.0051548 0)
(-0.160497 0.00510669 0)
(-0.172769 0.00504871 0)
(-0.184844 0.00498638 0)
(-0.196762 0.00491817 0)
(-0.208502 0.0048443 0)
(-0.220047 0.00476431 0)
(-0.231381 0.00467803 0)
(-0.242492 0.00458546 0)
(-0.253363 0.00448655 0)
(-0.263978 0.00438109 0)
(-0.274324 0.00426901 0)
(-0.284387 0.00415096 0)
(-0.294146 0.00402762 0)
(-0.303588 0.00389809 0)
(-0.312702 0.00376197 0)
(-0.321473 0.00362029 0)
(-0.329884 0.00347307 0)
(-0.337925 0.00332056 0)
(-0.345583 0.00316282 0)
(-0.352845 0.00300032 0)
(-0.3597 0.00283335 0)
(-0.36614 0.00266194 0)
(-0.372154 0.00248635 0)
(-0.377732 0.00230716 0)
(-0.382867 0.00212476 0)
(-0.387554 0.00193937 0)
(-0.391784 0.00175171 0)
(-0.395551 0.00156165 0)
(-0.398854 0.00136906 0)
(-0.401685 0.00117415 0)
(-0.404041 0.000975999 0)
(-0.405913 0.00077131 0)
(-0.407291 0.000551788 0)
(-0.408154 0.00030759 0)
(-0.408457 4.26874e-05 0)
(-0.408148 -0.000214122 0)
(-0.407373 -0.000420417 0)
(-0.406125 -0.000613765 0)
(-0.404418 -0.000802071 0)
(-0.402264 -0.000987353 0)
(-0.399668 -0.00116995 0)
(-0.396637 -0.00134976 0)
(-0.393178 -0.00152662 0)
(-0.389298 -0.00170044 0)
(-0.385006 -0.00187103 0)
(-0.380308 -0.00203811 0)
(-0.375213 -0.00220163 0)
(-0.36973 -0.00236162 0)
(-0.363868 -0.00251815 0)
(-0.357634 -0.00267098 0)
(-0.351039 -0.00281964 0)
(-0.344092 -0.0029644 0)
(-0.336801 -0.00310518 0)
(-0.329179 -0.00324203 0)
(-0.321232 -0.00337479 0)
(-0.312972 -0.00350347 0)
(-0.304408 -0.00362811 0)
(-0.29555 -0.00374872 0)
(-0.286409 -0.00386525 0)
(-0.276992 -0.00397761 0)
(-0.267309 -0.00408605 0)
(-0.257372 -0.00419072 0)
(-0.247189 -0.00429136 0)
(-0.236768 -0.00438808 0)
(-0.22612 -0.00448113 0)
(-0.215252 -0.00457057 0)
(-0.204176 -0.00465631 0)
(-0.192897 -0.00473853 0)
(-0.181425 -0.00481727 0)
(-0.169769 -0.00489271 0)
(-0.157935 -0.00496499 0)
(-0.145931 -0.00503419 0)
(-0.133766 -0.00510018 0)
(-0.121445 -0.00516337 0)
(-0.108976 -0.00522378 0)
(-0.0963651 -0.00528151 0)
(-0.083619 -0.00533666 0)
(-0.0707434 -0.00538931 0)
(-0.0577439 -0.0054397 0)
(-0.0446263 -0.00548783 0)
(-0.0313956 -0.00553386 0)
(-0.0180561 -0.00557788 0)
(-0.00460752 -0.00562019 0)
(0.00893472 -0.00565992 0)
(0.022566 -0.00569861 0)
(0.0362947 -0.00573563 0)
(0.0501114 -0.00577112 0)
(0.0640121 -0.00580518 0)
(0.0779933 -0.00583788 0)
(0.0920519 -0.00586931 0)
(0.106185 -0.00589954 0)
(0.120389 -0.00592864 0)
(0.134663 -0.00595665 0)
(0.149003 -0.00598363 0)
(0.163406 -0.00600963 0)
(0.177872 -0.00603467 0)
(0.192396 -0.0060588 0)
(0.206978 -0.00608203 0)
(0.221615 -0.00610439 0)
(0.236305 -0.00612588 0)
(0.251045 -0.00614651 0)
(0.265835 -0.00616628 0)
(0.280671 -0.00618518 0)
(0.295552 -0.00620321 0)
(0.310475 -0.00622035 0)
(0.325438 -0.00623658 0)
(0.34044 -0.00625187 0)
(0.355478 -0.00626619 0)
(0.370549 -0.00627951 0)
(0.385651 -0.0062918 0)
(0.400781 -0.00630302 0)
(0.415938 -0.00631312 0)
(0.431117 -0.00632207 0)
(0.446317 -0.00632982 0)
(0.461535 -0.00633633 0)
(0.476766 -0.00634155 0)
(0.492009 -0.00634544 0)
(0.50726 -0.00634794 0)
(0.522515 -0.00634902 0)
(0.537772 -0.00634864 0)
(0.553026 -0.00634674 0)
(0.568273 -0.00634329 0)
(0.583511 -0.00633825 0)
(0.598735 -0.00633158 0)
(0.613941 -0.00632325 0)
(0.629125 -0.00631322 0)
(0.644284 -0.00630147 0)
(0.659412 -0.00628796 0)
(0.674506 -0.00627268 0)
(0.689561 -0.00625561 0)
(0.704573 -0.00623672 0)
(0.719538 -0.00621602 0)
(0.734451 -0.00619347 0)
(0.749308 -0.00616909 0)
(0.764104 -0.00614286 0)
(0.778835 -0.00611479 0)
(0.793497 -0.00608489 0)
(0.808085 -0.00605316 0)
(0.822595 -0.00601962 0)
(0.837022 -0.00598427 0)
(0.851362 -0.00594715 0)
(0.865611 -0.00590828 0)
(0.879764 -0.00586768 0)
(0.893818 -0.00582539 0)
(0.907769 -0.00578145 0)
(0.921612 -0.00573588 0)
(0.935344 -0.00568874 0)
(0.948961 -0.00564007 0)
(0.96246 -0.00558992 0)
(0.975836 -0.00553834 0)
(0.989087 -0.00548539 0)
(1.00221 -0.00543112 0)
(1.0152 -0.0053756 0)
(1.02805 -0.00531889 0)
(1.04077 -0.00526105 0)
(1.05335 -0.00520215 0)
(1.06579 -0.00514226 0)
(1.07808 -0.00508143 0)
(1.09022 -0.00501975 0)
(1.10221 -0.00495728 0)
(1.11406 -0.00489408 0)
(1.12575 -0.00483022 0)
(1.13728 -0.00476576 0)
(1.14866 -0.00470077 0)
(1.15989 -0.00463531 0)
(1.17096 -0.00456942 0)
(1.18186 -0.00450318 0)
(1.19261 -0.00443661 0)
(1.2032 -0.00436977 0)
(1.21363 -0.0043027 0)
(1.22389 -0.00423544 0)
(1.234 -0.004168 0)
(1.24394 -0.00410043 0)
(1.25372 -0.00403273 0)
(1.26333 -0.00396493 0)
(1.27279 -0.00389702 0)
(1.28208 -0.00382902 0)
(1.2912 -0.00376091 0)
(1.30017 -0.00369268 0)
(1.30896 -0.00362432 0)
(1.3176 -0.00355582 0)
(1.32607 -0.00348716 0)
(1.33437 -0.00341829 0)
(1.34251 -0.00334907 0)
(1.35048 -0.00327933 0)
(1.35828 -0.00320924 0)
(1.36592 -0.00313984 0)
(1.37338 -0.00307271 0)
(1.38068 -0.00300739 0)
(1.38781 -0.00293535 0)
(1.39475 -0.00283232 0)
(1.40148 -0.00265444 0)
(1.40791 -0.00234619 0)
(1.41392 -0.00186362 0)
(1.41936 -0.00120536 0)
(1.4241 -0.000432176 0)
(1.42808 0.000344247 0)
(1.43136 0.00100426 0)
(1.43405 0.00147101 0)
(1.43633 0.00173592 0)
(1.43834 0.00184502 0)
(1.44017 0.00186221 0)
(1.44186 0.0018377 0)
(1.44342 0.00179747 0)
(1.44487 0.00174958 0)
(1.44619 0.00169516 0)
(1.44741 0.00163528 0)
(1.44852 0.00157209 0)
(1.44952 0.00150752 0)
(1.45042 0.00144328 0)
(1.45122 0.00138053 0)
(1.45191 0.00132007 0)
(1.45249 0.00126272 0)
(1.45297 0.00120884 0)
(1.45334 0.00115883 0)
(1.45359 0.00111265 0)
(1.45375 0.00106686 0)
(1.45378 0.00101435 0)
(1.4537 0.000963584 0)
(1.4535 0.000919671 0)
(1.4532 0.000881467 0)
(1.45277 0.000848276 0)
(1.45223 0.000819377 0)
(1.45156 0.000795465 0)
(1.45078 0.000773633 0)
(1.44987 0.000758734 0)
(1.44884 0.000749022 0)
(1.44768 0.000743209 0)
(1.44639 0.00074088 0)
(1.44497 0.000741783 0)
(1.44342 0.000745716 0)
(1.44173 0.000752502 0)
(1.43992 0.000761968 0)
(1.43798 0.000773946 0)
(1.4359 0.000788268 0)
(1.43369 0.000804767 0)
(1.43136 0.000823281 0)
(1.42889 0.000843648 0)
(1.42629 0.000865711 0)
(1.42357 0.000889319 0)
(1.42072 0.000914326 0)
(1.41774 0.000940593 0)
(1.41464 0.000967989 0)
(1.41142 0.000996388 0)
(1.40808 0.00102567 0)
(1.40463 0.00105572 0)
(1.40106 0.00108643 0)
(1.39737 0.00111768 0)
(1.39358 0.00114938 0)
(1.38969 0.0011814 0)
(1.38569 0.00121362 0)
(1.38159 0.00124588 0)
(1.37739 0.00127803 0)
(1.3731 0.00130985 0)
(1.36872 0.00134113 0)
(1.36425 0.00137162 0)
(1.35971 0.00140115 0)
(1.35508 0.00142958 0)
(1.35038 0.0014569 0)
(1.34561 0.0014832 0)
(1.34077 0.0015087 0)
(1.33588 0.00153364 0)
(1.33092 0.00155825 0)
(1.3259 0.00158262 0)
(1.32083 0.00160675 0)
(1.31571 0.00163051 0)
(1.31054 0.00165371 0)
(1.30532 0.0016762 0)
(1.30006 0.0016979 0)
(1.29476 0.00171878 0)
(1.28943 0.00173885 0)
(1.28407 0.00175817 0)
(1.27867 0.00177676 0)
(1.27324 0.00179465 0)
(1.26779 0.00181184 0)
(1.26232 0.00182835 0)
(1.25683 0.00184417 0)
(1.25131 0.00185933 0)
(1.24578 0.00187385 0)
(1.24024 0.00188773 0)
(1.23469 0.00190101 0)
(1.22912 0.00191371 0)
(1.22355 0.00192585 0)
(1.21796 0.00193746 0)
(1.21238 0.00194857 0)
(1.20678 0.00195919 0)
(1.20119 0.00196937 0)
(1.19559 0.00197913 0)
(1.18999 0.0019885 0)
(1.1844 0.00199751 0)
(1.1788 0.00200618 0)
(1.17321 0.00201455 0)
(1.16761 0.00202265 0)
(1.16202 0.0020305 0)
(1.15644 0.00203815 0)
(1.15086 0.0020456 0)
(1.14528 0.0020529 0)
(1.13971 0.00206007 0)
(1.13414 0.00206714 0)
(1.12857 0.00207414 0)
(1.12301 0.00208109 0)
(1.11746 0.00208803 0)
(1.11191 0.00209497 0)
(1.10636 0.00210194 0)
(1.10082 0.00210897 0)
(1.09528 0.00211608 0)
(1.08975 0.0021233 0)
(1.08422 0.00213064 0)
(1.07869 0.00213813 0)
(1.07316 0.00214579 0)
(1.06763 0.00215364 0)
(1.06211 0.0021617 0)
(1.05658 0.00216999 0)
(1.05105 0.00217853 0)
(1.04552 0.00218733 0)
(1.03999 0.00219642 0)
(1.03445 0.00220581 0)
(1.02891 0.00221551 0)
(1.02336 0.00222555 0)
(1.01781 0.00223592 0)
(1.01224 0.00224666 0)
(1.00667 0.00225777 0)
(1.00109 0.00226926 0)
(0.995501 0.00228114 0)
(0.989897 0.00229343 0)
(0.984279 0.00230614 0)
(0.978647 0.00231927 0)
(0.972999 0.00233284 0)
(0.967334 0.00234685 0)
(0.961651 0.00236132 0)
(0.955948 0.00237624 0)
(0.950224 0.00239163 0)
(0.944478 0.0024075 0)
(0.938709 0.00242385 0)
(0.932915 0.0024407 0)
(0.927094 0.00245803 0)
(0.921247 0.00247587 0)
(0.91537 0.0024942 0)
(0.909464 0.00251304 0)
(0.903526 0.00253238 0)
(0.897555 0.00255221 0)
(0.891551 0.00257255 0)
(0.885511 0.00259338 0)
(0.879435 0.00261471 0)
(0.87332 0.00263652 0)
(0.867167 0.00265882 0)
(0.860973 0.00268159 0)
(0.854737 0.00270483 0)
(0.848458 0.00272854 0)
(0.842135 0.0027527 0)
(0.835767 0.00277731 0)
(0.829352 0.00280235 0)
(0.82289 0.00282782 0)
(0.816378 0.0028537 0)
(0.809817 0.00287998 0)
(0.803204 0.00290664 0)
(0.79654 0.00293367 0)
(0.789822 0.00296106 0)
(0.78305 0.00298879 0)
(0.776224 0.00301683 0)
(0.769341 0.00304518 0)
(0.762401 0.00307381 0)
(0.755404 0.0031027 0)
(0.748349 0.00313182 0)
(0.741234 0.00316117 0)
(0.73406 0.0031907 0)
(0.726826 0.0032204 0)
(0.71953 0.00325024 0)
(0.712173 0.00328019 0)
(0.704755 0.00331023 0)
(0.697274 0.00334032 0)
(0.68973 0.00337043 0)
(0.682124 0.00340053 0)
(0.674455 0.00343059 0)
(0.666724 0.00346058 0)
(0.658929 0.00349045 0)
(0.651071 0.00352017 0)
(0.64315 0.00354971 0)
(0.635167 0.00357902 0)
(0.627122 0.00360806 0)
(0.619015 0.0036368 0)
(0.610846 0.00366519 0)
(0.602617 0.00369318 0)
(0.594328 0.00372073 0)
(0.58598 0.0037478 0)
(0.577573 0.00377434 0)
(0.569109 0.0038003 0)
(0.560589 0.00382563 0)
(0.552015 0.00385027 0)
(0.543386 0.00387419 0)
(0.534706 0.00389733 0)
(0.525974 0.00391963 0)
(0.517195 0.00394104 0)
(0.508368 0.00396151 0)
(0.499496 0.00398098 0)
(0.490581 0.00399939 0)
(0.481625 0.00401669 0)
(0.472631 0.00403281 0)
(0.463601 0.0040477 0)
(0.454538 0.0040613 0)
(0.445443 0.00407354 0)
(0.436322 0.00408437 0)
(0.427175 0.00409372 0)
(0.418007 0.00410154 0)
(0.40882 0.00410775 0)
(0.399618 0.00411231 0)
(0.390405 0.00411514 0)
(0.381184 0.00411618 0)
(0.371959 0.00411538 0)
(0.362734 0.00411268 0)
(0.353513 0.00410801 0)
(0.344301 0.00410131 0)
(0.3351 0.00409254 0)
(0.325917 0.00408163 0)
(0.316756 0.00406852 0)
(0.30762 0.00405316 0)
(0.298515 0.00403551 0)
(0.289447 0.0040155 0)
(0.280419 0.0039931 0)
(0.271437 0.00396824 0)
(0.262506 0.0039409 0)
(0.253631 0.00391102 0)
(0.244818 0.00387857 0)
(0.236072 0.00384351 0)
(0.227399 0.0038058 0)
(0.218803 0.00376543 0)
(0.210292 0.00372234 0)
(0.201869 0.00367654 0)
(0.193541 0.00362798 0)
(0.185313 0.00357666 0)
(0.177191 0.00352256 0)
(0.169181 0.00346567 0)
(0.161288 0.00340599 0)
(0.153518 0.00334351 0)
(0.145876 0.00327824 0)
(0.138368 0.00321018 0)
(0.130998 0.00313935 0)
(0.123774 0.00306577 0)
(0.116699 0.00298944 0)
(0.109779 0.00291041 0)
(0.103019 0.00282869 0)
(0.0964237 0.00274433 0)
(0.089998 0.00265737 0)
(0.0837464 0.00256785 0)
(0.0776734 0.00247582 0)
(0.0717832 0.00238135 0)
(0.06608 0.00228448 0)
(0.0605674 0.0021853 0)
(0.0552492 0.00208388 0)
(0.0501288 0.00198029 0)
(0.0452092 0.00187463 0)
(0.0404934 0.00176699 0)
(0.035984 0.00165748 0)
(0.0316832 0.00154621 0)
(0.0275931 0.0014333 0)
(0.0237154 0.00131887 0)
(0.0200513 0.00120307 0)
(0.0166019 0.00108605 0)
(0.0133678 0.000967957 0)
(0.0103492 0.00084897 0)
(0.00754606 0.000729258 0)
(0.00495776 0.000608994 0)
(0.00258336 0.000488326 0)
(0.000420739 0.000367317 0)
(-0.00153207 0.000246625 0)
(-0.00327741 0.000126341 0)
(-0.00481932 7.22225e-06 0)
(-0.00615474 -0.000109036 0)
(-0.0072896 -0.000227713 0)
(-0.00824081 -0.000345875 0)
(-0.00899899 -0.000456773 0)
(-0.00957006 -0.000571706 0)
(-0.00997018 -0.000683535 0)
(-0.0101976 -0.000794369 0)
(-0.0102725 -0.000906417 0)
(-0.0101431 -0.00100264 0)
(-0.0102353 -0.0011535 0)
(-0.00883201 -0.000903049 0)
(-0.0112842 -0.00198689 0)
(-0.00370005 -8.68341e-05 0)
(-0.0165276 -0.003212 0)
(0.00626781 0.000681287 0)
(-0.0248366 -0.00372629 0)
(0.0180473 -6.4736e-05 0)
(-0.0311638 -0.00275347 0)
(0.0269689 -0.0029193 0)
(-0.0287712 -2.5614e-05 0)
(0.0272256 -0.00156477 0)
(0.0207514 0.018248 0)
(-0.0482548 0.0153668 0)
(-0.0114779 0.0164402 0)
(-0.067788 0.0165951 0)
(-0.0480293 0.0166213 0)
(-0.0873776 0.016479 0)
(-0.0827154 0.0164554 0)
(-0.108969 0.0162946 0)
(-0.114471 0.016243 0)
(-0.132509 0.0160584 0)
(-0.143638 0.0159527 0)
(-0.157466 0.0157687 0)
(-0.170244 0.0155914 0)
(-0.183047 0.0153895 0)
(-0.195592 0.0151699 0)
(-0.207927 0.0149325 0)
(-0.220023 0.0146768 0)
(-0.231863 0.0144013 0)
(-0.243431 0.0141062 0)
(-0.254713 0.0137924 0)
(-0.265694 0.0134594 0)
(-0.276354 0.0131069 0)
(-0.286683 0.0127354 0)
(-0.296667 0.0123457 0)
(-0.306289 0.0119384 0)
(-0.315536 0.0115135 0)
(-0.324397 0.0110713 0)
(-0.33286 0.0106129 0)
(-0.340913 0.010139 0)
(-0.348547 0.00965029 0)
(-0.355752 0.00914762 0)
(-0.362519 0.00863203 0)
(-0.36884 0.00810459 0)
(-0.37471 0.00756612 0)
(-0.380121 0.00701756 0)
(-0.385068 0.00646007 0)
(-0.389549 0.00589471 0)
(-0.393559 0.00532253 0)
(-0.397096 0.00474496 0)
(-0.400159 0.00416255 0)
(-0.402747 0.00357589 0)
(-0.404862 0.00298585 0)
(-0.406506 0.00239249 0)
(-0.407686 0.00179437 0)
(-0.408414 0.00118599 0)
(-0.40872 0.000560592 0)
(-0.408663 -7.24935e-05 0)
(-0.40829 -0.000690871 0)
(-0.407461 -0.00127968 0)
(-0.406192 -0.00185321 0)
(-0.404474 -0.00241701 0)
(-0.40231 -0.00297264 0)
(-0.399705 -0.00352027 0)
(-0.396664 -0.00405956 0)
(-0.393196 -0.00459005 0)
(-0.389306 -0.0051114 0)
(-0.385004 -0.00562307 0)
(-0.380295 -0.00612434 0)
(-0.37519 -0.00661502 0)
(-0.369696 -0.00709535 0)
(-0.363823 -0.00756503 0)
(-0.357577 -0.00802295 0)
(-0.350971 -0.00846872 0)
(-0.344013 -0.00890312 0)
(-0.336711 -0.00932546 0)
(-0.329077 -0.00973588 0)
(-0.321119 -0.0101341 0)
(-0.312848 -0.0105201 0)
(-0.304272 -0.010894 0)
(-0.295402 -0.0112557 0)
(-0.286249 -0.0116052 0)
(-0.27682 -0.0119426 0)
(-0.267126 -0.012268 0)
(-0.257177 -0.0125816 0)
(-0.246982 -0.0128836 0)
(-0.23655 -0.0131742 0)
(-0.22589 -0.0134534 0)
(-0.215011 -0.0137214 0)
(-0.203922 -0.0139788 0)
(-0.192632 -0.0142255 0)
(-0.181149 -0.0144619 0)
(-0.169481 -0.0146884 0)
(-0.157636 -0.0149052 0)
(-0.145621 -0.0151126 0)
(-0.133443 -0.0153109 0)
(-0.121112 -0.0155006 0)
(-0.108631 -0.0156823 0)
(-0.0960091 -0.0158555 0)
(-0.0832518 -0.0160212 0)
(-0.070365 -0.0161794 0)
(-0.0573544 -0.0163307 0)
(-0.0442257 -0.0164754 0)
(-0.0309839 -0.0166137 0)
(-0.0176334 -0.0167462 0)
(-0.00417329 -0.0168734 0)
(0.00938015 -0.0169925 0)
(0.0230221 -0.0171092 0)
(0.0367619 -0.0172207 0)
(0.0505898 -0.0173276 0)
(0.0645016 -0.0174301 0)
(0.078494 -0.0175287 0)
(0.0925639 -0.0176234 0)
(0.106708 -0.0177145 0)
(0.120924 -0.0178022 0)
(0.135209 -0.0178867 0)
(0.149561 -0.0179681 0)
(0.163976 -0.0180466 0)
(0.178453 -0.0181222 0)
(0.19299 -0.0181951 0)
(0.207583 -0.0182652 0)
(0.222232 -0.0183328 0)
(0.236935 -0.0183977 0)
(0.251688 -0.0184601 0)
(0.26649 -0.0185199 0)
(0.281339 -0.0185771 0)
(0.296233 -0.0186317 0)
(0.311169 -0.0186836 0)
(0.326146 -0.0187328 0)
(0.341162 -0.0187791 0)
(0.356213 -0.0188226 0)
(0.371298 -0.018863 0)
(0.386415 -0.0189003 0)
(0.40156 -0.0189345 0)
(0.416731 -0.0189652 0)
(0.431926 -0.0189925 0)
(0.447141 -0.0190162 0)
(0.462374 -0.0190362 0)
(0.477622 -0.0190523 0)
(0.492881 -0.0190644 0)
(0.508148 -0.0190723 0)
(0.52342 -0.0190759 0)
(0.538693 -0.0190752 0)
(0.553964 -0.0190698 0)
(0.569229 -0.0190599 0)
(0.584484 -0.0190451 0)
(0.599726 -0.0190254 0)
(0.61495 -0.0190008 0)
(0.630153 -0.018971 0)
(0.64533 -0.0189361 0)
(0.660476 -0.0188958 0)
(0.675589 -0.0188503 0)
(0.690663 -0.0187993 0)
(0.705695 -0.0187429 0)
(0.720679 -0.0186811 0)
(0.735612 -0.0186137 0)
(0.750489 -0.0185407 0)
(0.765305 -0.0184623 0)
(0.780056 -0.0183782 0)
(0.794738 -0.0182887 0)
(0.809347 -0.0181937 0)
(0.823877 -0.0180932 0)
(0.838325 -0.0179873 0)
(0.852686 -0.0178761 0)
(0.866956 -0.0177596 0)
(0.881131 -0.0176379 0)
(0.895206 -0.0175111 0)
(0.909178 -0.0173794 0)
(0.923043 -0.0172427 0)
(0.936797 -0.0171014 0)
(0.950435 -0.0169554 0)
(0.963955 -0.016805 0)
(0.977353 -0.0166503 0)
(0.990626 -0.0164914 0)
(1.00377 -0.0163286 0)
(1.01678 -0.016162 0)
(1.02966 -0.0159919 0)
(1.0424 -0.0158183 0)
(1.055 -0.0156415 0)
(1.06746 -0.0154618 0)
(1.07977 -0.0152792 0)
(1.09193 -0.0150941 0)
(1.10395 -0.0149066 0)
(1.11581 -0.0147169 0)
(1.12753 -0.0145252 0)
(1.13909 -0.0143317 0)
(1.15049 -0.0141365 0)
(1.16173 -0.01394 0)
(1.17282 -0.0137422 0)
(1.18375 -0.0135432 0)
(1.19452 -0.0133433 0)
(1.20513 -0.0131426 0)
(1.21558 -0.0129412 0)
(1.22587 -0.0127392 0)
(1.23599 -0.0125366 0)
(1.24596 -0.0123336 0)
(1.25576 -0.0121303 0)
(1.26539 -0.0119266 0)
(1.27487 -0.0117226 0)
(1.28418 -0.0115182 0)
(1.29333 -0.0113136 0)
(1.30231 -0.0111086 0)
(1.31113 -0.0109032 0)
(1.31978 -0.0106973 0)
(1.32827 -0.0104909 0)
(1.3366 -0.0102838 0)
(1.34476 -0.0100758 0)
(1.35275 -0.00986673 0)
(1.36057 -0.00965618 0)
(1.36823 -0.00944402 0)
(1.37571 -0.00923038 0)
(1.38302 -0.0090152 0)
(1.39016 -0.00879672 0)
(1.39713 -0.00856914 0)
(1.40396 -0.00832075 0)
(1.41073 -0.0080352 0)
(1.41755 -0.00769773 0)
(1.42455 -0.00730502 0)
(1.43187 -0.00687253 0)
(1.43954 -0.00643264 0)
(1.44752 -0.00602165 0)
(1.45569 -0.00566323 0)
(1.46388 -0.00535958 0)
(1.47196 -0.00509551 0)
(1.47983 -0.00485068 0)
(1.48746 -0.00461014 0)
(1.49482 -0.00436767 0)
(1.5019 -0.0041232 0)
(1.50869 -0.00387859 0)
(1.5152 -0.00363511 0)
(1.5214 -0.00339305 0)
(1.5273 -0.00315225 0)
(1.53288 -0.00291234 0)
(1.53816 -0.00267318 0)
(1.54312 -0.00243488 0)
(1.54776 -0.00219734 0)
(1.55208 -0.00196056 0)
(1.55609 -0.00172462 0)
(1.55978 -0.00148966 0)
(1.56315 -0.00125766 0)
(1.5662 -0.00103415 0)
(1.56894 -0.000813924 0)
(1.57136 -0.000593081 0)
(1.57346 -0.000371186 0)
(1.57523 -0.000148869 0)
(1.5767 7.42825e-05 0)
(1.57785 0.00029811 0)
(1.57869 0.000527712 0)
(1.57924 0.000754191 0)
(1.5795 0.000976681 0)
(1.57946 0.00119722 0)
(1.57913 0.00141624 0)
(1.57852 0.0016338 0)
(1.57763 0.0018498 0)
(1.57647 0.00206407 0)
(1.57505 0.0022764 0)
(1.57336 0.00248658 0)
(1.57141 0.00269438 0)
(1.56921 0.00289956 0)
(1.56677 0.00310189 0)
(1.56409 0.00330113 0)
(1.56118 0.00349707 0)
(1.55804 0.00368948 0)
(1.55468 0.00387816 0)
(1.5511 0.0040629 0)
(1.54732 0.00424353 0)
(1.54335 0.00441986 0)
(1.53918 0.00459173 0)
(1.53482 0.00475899 0)
(1.53029 0.00492149 0)
(1.52558 0.00507911 0)
(1.52072 0.00523171 0)
(1.51569 0.00537919 0)
(1.51052 0.00552141 0)
(1.50521 0.00565827 0)
(1.49976 0.00578964 0)
(1.49418 0.00591541 0)
(1.48848 0.00603547 0)
(1.48267 0.00614975 0)
(1.47674 0.00625822 0)
(1.47072 0.00636092 0)
(1.4646 0.00645797 0)
(1.45839 0.00654955 0)
(1.45209 0.00663588 0)
(1.44572 0.00671717 0)
(1.43928 0.00679358 0)
(1.43277 0.00686523 0)
(1.4262 0.00693217 0)
(1.41958 0.0069944 0)
(1.41292 0.00705197 0)
(1.40621 0.00710492 0)
(1.39946 0.00715335 0)
(1.39269 0.00719741 0)
(1.38588 0.00723724 0)
(1.37905 0.00727302 0)
(1.3722 0.00730491 0)
(1.36534 0.00733307 0)
(1.35847 0.00735764 0)
(1.35159 0.00737878 0)
(1.3447 0.00739665 0)
(1.33782 0.00741141 0)
(1.33093 0.00742321 0)
(1.32406 0.00743222 0)
(1.31719 0.00743859 0)
(1.31033 0.00744249 0)
(1.30349 0.00744407 0)
(1.29666 0.00744349 0)
(1.28985 0.00744091 0)
(1.28306 0.00743647 0)
(1.27629 0.00743033 0)
(1.26955 0.00742263 0)
(1.26283 0.00741352 0)
(1.25613 0.00740313 0)
(1.24947 0.00739162 0)
(1.24283 0.0073791 0)
(1.23622 0.00736571 0)
(1.22964 0.00735159 0)
(1.22309 0.00733685 0)
(1.21657 0.00732162 0)
(1.21008 0.007306 0)
(1.20362 0.00729013 0)
(1.1972 0.0072741 0)
(1.19081 0.00725801 0)
(1.18445 0.00724199 0)
(1.17812 0.00722611 0)
(1.17182 0.00721048 0)
(1.16555 0.00719519 0)
(1.15932 0.00718032 0)
(1.15311 0.00716596 0)
(1.14694 0.0071522 0)
(1.14079 0.0071391 0)
(1.13468 0.00712674 0)
(1.12859 0.0071152 0)
(1.12252 0.00710453 0)
(1.11649 0.00709482 0)
(1.11048 0.00708611 0)
(1.10449 0.00707846 0)
(1.09853 0.00707194 0)
(1.09259 0.00706659 0)
(1.08667 0.00706246 0)
(1.08078 0.00705961 0)
(1.0749 0.00705807 0)
(1.06904 0.00705789 0)
(1.06319 0.00705911 0)
(1.05736 0.00706177 0)
(1.05155 0.0070659 0)
(1.04575 0.00707153 0)
(1.03996 0.00707869 0)
(1.03417 0.00708741 0)
(1.0284 0.00709772 0)
(1.02264 0.00710964 0)
(1.01688 0.00712319 0)
(1.01112 0.0071384 0)
(1.00537 0.00715527 0)
(0.999619 0.00717382 0)
(0.993868 0.00719407 0)
(0.988116 0.00721603 0)
(0.98236 0.0072397 0)
(0.9766 0.0072651 0)
(0.970833 0.00729224 0)
(0.965059 0.00732111 0)
(0.959275 0.00735171 0)
(0.953481 0.00738406 0)
(0.947674 0.00741813 0)
(0.941853 0.00745394 0)
(0.936017 0.00749146 0)
(0.930165 0.0075307 0)
(0.924293 0.00757164 0)
(0.918402 0.00761428 0)
(0.91249 0.00765858 0)
(0.906554 0.00770455 0)
(0.900595 0.00775215 0)
(0.894609 0.00780137 0)
(0.888596 0.00785219 0)
(0.882555 0.00790457 0)
(0.876483 0.00795849 0)
(0.87038 0.00801392 0)
(0.864244 0.00807083 0)
(0.858073 0.00812917 0)
(0.851867 0.00818893 0)
(0.845625 0.00825004 0)
(0.839344 0.00831248 0)
(0.833023 0.00837619 0)
(0.826662 0.00844113 0)
(0.82026 0.00850724 0)
(0.813814 0.00857449 0)
(0.807325 0.00864279 0)
(0.80079 0.00871211 0)
(0.794209 0.00878238 0)
(0.787581 0.00885353 0)
(0.780905 0.00892549 0)
(0.77418 0.00899821 0)
(0.767406 0.00907159 0)
(0.760581 0.00914557 0)
(0.753704 0.00922006 0)
(0.746776 0.00929499 0)
(0.739795 0.00937026 0)
(0.732761 0.00944579 0)
(0.725673 0.00952149 0)
(0.718531 0.00959726 0)
(0.711335 0.00967299 0)
(0.704085 0.0097486 0)
(0.696779 0.00982396 0)
(0.689418 0.00989898 0)
(0.682002 0.00997354 0)
(0.674531 0.0100475 0)
(0.667006 0.0101208 0)
(0.659425 0.0101933 0)
(0.65179 0.0102648 0)
(0.644101 0.0103352 0)
(0.636358 0.0104045 0)
(0.628563 0.0104724 0)
(0.620715 0.0105388 0)
(0.612815 0.0106036 0)
(0.604865 0.0106666 0)
(0.596865 0.0107278 0)
(0.588817 0.0107868 0)
(0.580721 0.0108437 0)
(0.572579 0.0108981 0)
(0.564393 0.0109501 0)
(0.556164 0.0109993 0)
(0.547893 0.0110457 0)
(0.539583 0.0110891 0)
(0.531236 0.0111292 0)
(0.522854 0.0111661 0)
(0.514438 0.0111994 0)
(0.505991 0.011229 0)
(0.497516 0.0112548 0)
(0.489016 0.0112766 0)
(0.480492 0.0112941 0)
(0.471948 0.0113073 0)
(0.463387 0.011316 0)
(0.454812 0.01132 0)
(0.446227 0.0113191 0)
(0.437634 0.0113132 0)
(0.429037 0.0113021 0)
(0.42044 0.0112858 0)
(0.411846 0.0112639 0)
(0.40326 0.0112365 0)
(0.394685 0.0112032 0)
(0.386125 0.0111642 0)
(0.377585 0.0111191 0)
(0.369069 0.0110678 0)
(0.36058 0.0110104 0)
(0.352125 0.0109466 0)
(0.343706 0.0108764 0)
(0.335329 0.0107996 0)
(0.326998 0.0107163 0)
(0.318718 0.0106264 0)
(0.310494 0.0105298 0)
(0.30233 0.0104264 0)
(0.29423 0.0103163 0)
(0.2862 0.0101995 0)
(0.278244 0.0100759 0)
(0.270367 0.0099456 0)
(0.262572 0.0098086 0)
(0.254866 0.00966496 0)
(0.247252 0.00951476 0)
(0.239733 0.00935807 0)
(0.232316 0.00919499 0)
(0.225003 0.00902565 0)
(0.217798 0.00885018 0)
(0.210704 0.00866872 0)
(0.203727 0.00848146 0)
(0.196868 0.00828857 0)
(0.19013 0.00809026 0)
(0.183517 0.00788675 0)
(0.177031 0.00767828 0)
(0.170674 0.0074651 0)
(0.164447 0.00724749 0)
(0.158354 0.00702574 0)
(0.152394 0.00680015 0)
(0.146569 0.00657104 0)
(0.140879 0.00633876 0)
(0.135325 0.00610365 0)
(0.129906 0.0058661 0)
(0.124621 0.00562648 0)
(0.119471 0.00538521 0)
(0.114453 0.00514269 0)
(0.109566 0.00489935 0)
(0.104808 0.00465565 0)
(0.100177 0.00441203 0)
(0.0956683 0.00416897 0)
(0.0912805 0.00392693 0)
(0.0870095 0.00368638 0)
(0.0828515 0.00344774 0)
(0.0788021 0.00321137 0)
(0.0748569 0.00297839 0)
(0.0710113 0.00274919 0)
(0.0672606 0.00252493 0)
(0.0636011 0.00230759 0)
(0.060027 0.00209135 0)
(0.0565305 0.00187972 0)
(0.0531083 0.00168049 0)
(0.0497557 0.00148197 0)
(0.0464647 0.00129146 0)
(0.0432306 0.00110813 0)
(0.0400516 0.000930841 0)
(0.0369257 0.000776135 0)
(0.0337872 0.000566791 0)
(0.0310138 0.000802342 0)
(0.0263226 -0.000334889 0)
(0.0285732 0.00148683 0)
(0.0145953 -0.00126577 0)
(0.0299861 0.00183478 0)
(0.000884257 -0.00145367 0)
(0.0326437 0.000980573 0)
(-0.0135814 -0.00075696 0)
(0.0348189 -0.00107573 0)
(-0.0285756 0.00103342 0)
(0.035713 -0.000264234 0)
(0.0197853 0.0305427 0)
(-0.0470068 0.0262353 0)
(-0.0112506 0.0277329 0)
(-0.066028 0.0281787 0)
(-0.046813 0.0280268 0)
(-0.0851928 0.0279187 0)
(-0.0806438 0.0277479 0)
(-0.106299 0.0275545 0)
(-0.111671 0.0273798 0)
(-0.129326 0.0271077 0)
(-0.140217 0.0268716 0)
(-0.153786 0.0265608 0)
(-0.166325 0.026237 0)
(-0.178912 0.0258758 0)
(-0.191262 0.0254828 0)
(-0.203421 0.0250611 0)
(-0.215366 0.0246063 0)
(-0.227081 0.0241179 0)
(-0.238546 0.0235969 0)
(-0.249752 0.0230456 0)
(-0.260683 0.0224618 0)
(-0.27132 0.021846 0)
(-0.281651 0.021199 0)
(-0.291665 0.0205219 0)
(-0.301342 0.0198146 0)
(-0.310669 0.0190789 0)
(-0.319637 0.0183164 0)
(-0.328232 0.0175274 0)
(-0.33644 0.0167134 0)
(-0.344253 0.015876 0)
(-0.351658 0.0150168 0)
(-0.358646 0.0141371 0)
(-0.365208 0.0132389 0)
(-0.371336 0.0123241 0)
(-0.377023 0.0113944 0)
(-0.382261 0.0104514 0)
(-0.387046 0.00949681 0)
(-0.391372 0.00853257 0)
(-0.395235 0.00756044 0)
(-0.398633 0.00658219 0)
(-0.401562 0.00559956 0)
(-0.404022 0.00461421 0)
(-0.406011 0.003628 0)
(-0.40753 0.00264374 0)
(-0.408583 0.00166579 0)
(-0.409165 0.00069983 0)
(-0.409273 -0.000250205 0)
(-0.408918 -0.00119347 0)
(-0.408102 -0.00214975 0)
(-0.406828 -0.0030989 0)
(-0.405102 -0.00403711 0)
(-0.402929 -0.00496308 0)
(-0.400315 -0.00587601 0)
(-0.397265 -0.00677513 0)
(-0.393786 -0.00765966 0)
(-0.389886 -0.00852879 0)
(-0.385573 -0.00938177 0)
(-0.380853 -0.0102179 0)
(-0.375736 -0.0110366 0)
(-0.370231 -0.0118372 0)
(-0.364344 -0.0126193 0)
(-0.358086 -0.0133822 0)
(-0.351467 -0.0141259 0)
(-0.344496 -0.0148501 0)
(-0.337181 -0.0155544 0)
(-0.329533 -0.0162384 0)
(-0.321562 -0.0169022 0)
(-0.313277 -0.0175456 0)
(-0.304688 -0.0181687 0)
(-0.295805 -0.0187714 0)
(-0.286638 -0.0193539 0)
(-0.277196 -0.0199164 0)
(-0.267489 -0.0204587 0)
(-0.257527 -0.0209811 0)
(-0.24732 -0.0214845 0)
(-0.236875 -0.0219687 0)
(-0.226203 -0.0224336 0)
(-0.215312 -0.0228804 0)
(-0.204212 -0.0233091 0)
(-0.192911 -0.0237201 0)
(-0.181416 -0.0241139 0)
(-0.169737 -0.0244914 0)
(-0.157882 -0.0248525 0)
(-0.145857 -0.0251978 0)
(-0.13367 -0.0255281 0)
(-0.121329 -0.0258442 0)
(-0.10884 -0.0261471 0)
(-0.0962093 -0.0264353 0)
(-0.083444 -0.0267111 0)
(-0.0705496 -0.0269746 0)
(-0.0575319 -0.0272266 0)
(-0.0443964 -0.0274674 0)
(-0.0311482 -0.0276978 0)
(-0.0177919 -0.0279183 0)
(-0.00432471 -0.0281294 0)
(0.00923404 -0.0283297 0)
(0.0228796 -0.0285233 0)
(0.0366245 -0.0287089 0)
(0.0504568 -0.0288868 0)
(0.0643728 -0.0290576 0)
(0.0783691 -0.0292218 0)
(0.0924425 -0.0293795 0)
(0.10659 -0.0295313 0)
(0.120809 -0.0296775 0)
(0.135097 -0.0298183 0)
(0.149451 -0.0299539 0)
(0.163869 -0.0300846 0)
(0.178349 -0.0302106 0)
(0.192888 -0.0303321 0)
(0.207484 -0.0304491 0)
(0.222135 -0.0305617 0)
(0.236839 -0.03067 0)
(0.251595 -0.030774 0)
(0.266399 -0.0308737 0)
(0.28125 -0.0309691 0)
(0.296146 -0.0310602 0)
(0.311085 -0.0311468 0)
(0.326064 -0.0312289 0)
(0.341082 -0.0313062 0)
(0.356136 -0.0313788 0)
(0.371224 -0.0314463 0)
(0.386343 -0.0315087 0)
(0.401491 -0.0315657 0)
(0.416665 -0.0316171 0)
(0.431863 -0.0316628 0)
(0.447081 -0.0317025 0)
(0.462318 -0.0317359 0)
(0.477569 -0.0317629 0)
(0.492831 -0.0317832 0)
(0.508102 -0.0317966 0)
(0.523378 -0.0318028 0)
(0.538656 -0.0318017 0)
(0.553931 -0.031793 0)
(0.5692 -0.0317766 0)
(0.58446 -0.0317521 0)
(0.599707 -0.0317195 0)
(0.614935 -0.0316786 0)
(0.630143 -0.0316292 0)
(0.645325 -0.0315711 0)
(0.660477 -0.0315042 0)
(0.675595 -0.0314285 0)
(0.690674 -0.0313437 0)
(0.705711 -0.0312498 0)
(0.720701 -0.0311468 0)
(0.735639 -0.0310347 0)
(0.750521 -0.0309132 0)
(0.765343 -0.0307826 0)
(0.7801 -0.0306427 0)
(0.794787 -0.0304936 0)
(0.809401 -0.0303353 0)
(0.823937 -0.030168 0)
(0.83839 -0.0299916 0)
(0.852756 -0.0298063 0)
(0.867032 -0.0296122 0)
(0.881212 -0.0294095 0)
(0.895292 -0.0291983 0)
(0.909269 -0.0289787 0)
(0.923139 -0.0287511 0)
(0.936898 -0.0285155 0)
(0.950541 -0.0282723 0)
(0.964066 -0.0280216 0)
(0.977468 -0.0277638 0)
(0.990745 -0.0274991 0)
(1.00389 -0.0272277 0)
(1.01691 -0.0269501 0)
(1.02979 -0.0266665 0)
(1.04253 -0.0263773 0)
(1.05514 -0.0260827 0)
(1.0676 -0.0257831 0)
(1.07991 -0.0254789 0)
(1.09208 -0.0251703 0)
(1.1041 -0.0248577 0)
(1.11597 -0.0245415 0)
(1.12768 -0.024222 0)
(1.13924 -0.0238995 0)
(1.15065 -0.0235743 0)
(1.1619 -0.0232467 0)
(1.17298 -0.022917 0)
(1.18392 -0.0225855 0)
(1.19469 -0.0222523 0)
(1.2053 -0.0219178 0)
(1.21575 -0.0215821 0)
(1.22604 -0.0212454 0)
(1.23616 -0.0209078 0)
(1.24613 -0.0205695 0)
(1.25593 -0.0202306 0)
(1.26557 -0.0198912 0)
(1.27504 -0.0195512 0)
(1.28436 -0.0192106 0)
(1.2935 -0.0188696 0)
(1.30249 -0.0185279 0)
(1.31131 -0.0181856 0)
(1.31997 -0.0178425 0)
(1.32846 -0.0174985 0)
(1.33679 -0.0171533 0)
(1.34495 -0.0168068 0)
(1.35294 -0.0164589 0)
(1.36077 -0.0161091 0)
(1.36843 -0.0157569 0)
(1.37592 -0.0154011 0)
(1.38323 -0.0150402 0)
(1.39038 -0.0146746 0)
(1.39733 -0.0143081 0)
(1.4041 -0.0139499 0)
(1.41069 -0.0136134 0)
(1.41709 -0.0133105 0)
(1.42332 -0.0130439 0)
(1.4294 -0.012802 0)
(1.43534 -0.0125611 0)
(1.44114 -0.0122951 0)
(1.44679 -0.0119874 0)
(1.45227 -0.0116361 0)