/*--------------------------------*- C++ -*----------------------------------*\
| =========                 |                                                 |
| \\      /  F ield         | OpenFOAM: The Open Source CFD Toolbox           |
|  \\    /   O peration     | Version:  v2006                                 |
|   \\  /    A nd           | Website:  www.openfoam.com                      |
|    \\/     M anipulation  |                                                 |
\*---------------------------------------------------------------------------*/
FoamFile
{
    version     2.0;
    format      ascii;
    class       volVectorField;
    location    "0";
    object      U;
}
// * * * * * * * * * * * * * * * * * * * * * * * * * * * * * * * * * * * * * //

dimensions      [0 1 -1 0 0 0 0];


internalField   nonuniform List<vector> 
67500
(
(-0.00739285 0.00567051 0)
(-0.0136986 -0.00955826 0)
(0.028381 -0.0183574 0)
(0.0650907 -0.0194665 0)
(0.101185 -0.0173302 0)
(0.133314 -0.01476 0)
(0.161239 -0.0129905 0)
(0.186384 -0.012183 0)
(0.210381 -0.0120316 0)
(0.234423 -0.0121891 0)
(0.259011 -0.0124323 0)
(0.284146 -0.0126537 0)
(0.309665 -0.012812 0)
(0.335419 -0.0128971 0)
(0.361275 -0.0129117 0)
(0.387101 -0.0128607 0)
(0.412764 -0.0127476 0)
(0.438139 -0.0125751 0)
(0.463108 -0.0123473 0)
(0.487566 -0.0120699 0)
(0.511421 -0.0117501 0)
(0.534593 -0.0113961 0)
(0.557024 -0.0110162 0)
(0.57867 -0.010618 0)
(0.599502 -0.0102085 0)
(0.619504 -0.00979342 0)
(0.638671 -0.00937761 0)
(0.657005 -0.00896494 0)
(0.674518 -0.0085585 0)
(0.691224 -0.00816065 0)
(0.707144 -0.00777324 0)
(0.722299 -0.00739759 0)
(0.736716 -0.00703469 0)
(0.750419 -0.00668518 0)
(0.763438 -0.00634943 0)
(0.775798 -0.00602762 0)
(0.78753 -0.00571977 0)
(0.798659 -0.00542573 0)
(0.809215 -0.00514528 0)
(0.819224 -0.0048781 0)
(0.828712 -0.00462382 0)
(0.837704 -0.00438202 0)
(0.846225 -0.00415224 0)
(0.854299 -0.00393403 0)
(0.861948 -0.0037269 0)
(0.869194 -0.00353038 0)
(0.876058 -0.003344 0)
(0.882559 -0.00316729 0)
(0.888717 -0.00299978 0)
(0.894549 -0.00284104 0)
(0.900072 -0.00269063 0)
(0.905303 -0.00254815 0)
(0.910256 -0.00241318 0)
(0.914948 -0.00228536 0)
(0.91939 -0.0021643 0)
(0.923598 -0.00204967 0)
(0.927583 -0.00194113 0)
(0.931356 -0.00183836 0)
(0.93493 -0.00174106 0)
(0.938315 -0.00164894 0)
(0.941521 -0.00156173 0)
(0.944557 -0.00147917 0)
(0.947433 -0.00140102 0)
(0.950157 -0.00132703 0)
(0.952737 -0.00125698 0)
(0.955181 -0.00119067 0)
(0.957496 -0.0011279 0)
(0.959689 -0.00106847 0)
(0.961767 -0.00101221 0)
(0.963735 -0.000958944 0)
(0.9656 -0.000908516 0)
(0.967367 -0.000860772 0)
(0.96904 -0.000815566 0)
(0.970626 -0.000772762 0)
(0.972129 -0.000732228 0)
(0.973553 -0.000693843 0)
(0.974902 -0.000657487 0)
(0.976181 -0.000623049 0)
(0.977393 -0.000590426 0)
(0.978541 -0.000559516 0)
(0.979629 -0.000530227 0)
(0.98066 -0.000502469 0)
(0.981638 -0.00047616 0)
(0.982564 -0.000451222 0)
(0.983441 -0.000427581 0)
(0.984273 -0.000405169 0)
(0.985061 -0.000383922 0)
(0.985807 -0.00036378 0)
(0.986515 -0.000344687 0)
(0.987185 -0.000326588 0)
(0.98782 -0.000309435 0)
(0.988422 -0.000293179 0)
(0.988992 -0.000277775 0)
(0.989532 -0.00026318 0)
(0.990044 -0.000249354 0)
(0.990529 -0.000236258 0)
(0.990988 -0.000223855 0)
(0.991423 -0.00021211 0)
(0.991836 -0.000200989 0)
(0.992227 -0.000190462 0)
(0.992597 -0.000180497 0)
(0.992948 -0.000171067 0)
(0.993281 -0.000162145 0)
(0.993596 -0.000153704 0)
(0.993895 -0.000145722 0)
(0.994179 -0.000138173 0)
(0.994448 -0.000131037 0)
(0.994703 -0.000124292 0)
(0.994944 -0.000117917 0)
(0.995174 -0.000111893 0)
(0.995392 -0.000106202 0)
(0.995598 -0.000100825 0)
(0.995795 -9.5744e-05 0)
(0.995981 -9.09436e-05 0)
(0.996158 -8.64072e-05 0)
(0.996326 -8.21195e-05 0)
(0.996486 -7.80659e-05 0)
(0.996638 -7.42323e-05 0)
(0.996783 -7.06055e-05 0)
(0.996921 -6.7173e-05 0)
(0.997052 -6.39229e-05 0)
(0.997176 -6.08441e-05 0)
(0.997295 -5.79261e-05 0)
(0.997408 -5.51594e-05 0)
(0.997515 -5.25348e-05 0)
(0.997618 -5.00439e-05 0)
(0.997715 -4.76789e-05 0)
(0.997808 -4.54326e-05 0)
(0.997897 -4.32983e-05 0)
(0.997981 -4.12698e-05 0)
(0.998062 -3.93413e-05 0)
(0.998139 -3.75075e-05 0)
(0.998212 -3.57634e-05 0)
(0.998282 -3.41044e-05 0)
(0.998348 -3.25262e-05 0)
(0.998412 -3.10247e-05 0)
(0.998472 -2.95961e-05 0)
(0.99853 -2.82368e-05 0)
(0.998585 -2.69435e-05 0)
(0.998638 -2.57128e-05 0)
(0.998688 -2.45418e-05 0)
(0.998736 -2.34276e-05 0)
(0.998781 -2.23674e-05 0)
(0.998825 -2.13586e-05 0)
(0.998867 -2.03987e-05 0)
(0.998907 -1.94853e-05 0)
(0.998945 -1.86161e-05 0)
(0.998981 -1.7789e-05 0)
(0.999016 -1.70018e-05 0)
(0.999049 -1.62526e-05 0)
(0.999081 -1.55394e-05 0)
(0.999111 -1.48606e-05 0)
(0.99914 -1.42143e-05 0)
(0.999168 -1.35989e-05 0)
(0.999195 -1.30129e-05 0)
(0.99922 -1.24549e-05 0)
(0.999244 -1.19233e-05 0)
(0.999268 -1.1417e-05 0)
(0.99929 -1.09346e-05 0)
(0.999311 -1.04751e-05 0)
(0.999332 -1.00372e-05 0)
(0.999352 -9.61994e-06 0)
(0.99937 -9.22234e-06 0)
(0.999388 -8.84345e-06 0)
(0.999406 -8.48241e-06 0)
(0.999422 -8.13838e-06 0)
(0.999438 -7.81059e-06 0)
(0.999454 -7.4983e-06 0)
(0.999468 -7.20082e-06 0)
(0.999482 -6.9175e-06 0)
(0.999496 -6.64772e-06 0)
(0.999509 -6.39088e-06 0)
(0.999521 -6.14644e-06 0)
(0.999534 -5.91386e-06 0)
(0.999545 -5.69264e-06 0)
(0.999556 -5.4823e-06 0)
(0.999567 -5.28237e-06 0)
(0.999577 -5.09241e-06 0)
(0.999587 -4.91201e-06 0)
(0.999597 -4.74074e-06 0)
(0.999606 -4.57822e-06 0)
(0.999615 -4.42407e-06 0)
(0.999624 -4.27792e-06 0)
(0.999632 -4.1394e-06 0)
(0.999641 -4.00819e-06 0)
(0.999648 -3.88393e-06 0)
(0.999656 -3.7663e-06 0)
(0.999664 -3.65499e-06 0)
(0.999671 -3.54968e-06 0)
(0.999678 -3.45007e-06 0)
(0.999685 -3.35587e-06 0)
(0.999691 -3.2668e-06 0)
(0.999698 -3.18257e-06 0)
(0.999704 -3.10291e-06 0)
(0.99971 -3.02756e-06 0)
(0.999716 -2.95626e-06 0)
(0.999722 -2.88875e-06 0)
(0.999728 -2.82481e-06 0)
(0.999733 -2.76418e-06 0)
(0.999739 -2.70665e-06 0)
(0.999744 -2.65198e-06 0)
(0.999749 -2.59995e-06 0)
(0.999754 -2.55037e-06 0)
(0.999759 -2.50303e-06 0)
(0.999764 -2.45773e-06 0)
(0.999769 -2.41428e-06 0)
(0.999774 -2.37251e-06 0)
(0.999779 -2.33223e-06 0)
(0.999783 -2.29328e-06 0)
(0.999788 -2.2555e-06 0)
(0.999792 -2.21873e-06 0)
(0.999797 -2.18284e-06 0)
(0.999801 -2.14767e-06 0)
(0.999805 -2.1131e-06 0)
(0.99981 -2.079e-06 0)
(0.999814 -2.04527e-06 0)
(0.999818 -2.01179e-06 0)
(0.999822 -1.97847e-06 0)
(0.999826 -1.94523e-06 0)
(0.999829 -1.91199e-06 0)
(0.999833 -1.87868e-06 0)
(0.999837 -1.84525e-06 0)
(0.999841 -1.81165e-06 0)
(0.999844 -1.77786e-06 0)
(0.999848 -1.74384e-06 0)
(0.999851 -1.70959e-06 0)
(0.999855 -1.67508e-06 0)
(0.999858 -1.64034e-06 0)
(0.999861 -1.60537e-06 0)
(0.999864 -1.57018e-06 0)
(0.999867 -1.53481e-06 0)
(0.99987 -1.49929e-06 0)
(0.999873 -1.46367e-06 0)
(0.999876 -1.42801e-06 0)
(0.999879 -1.39237e-06 0)
(0.999882 -1.35684e-06 0)
(0.999885 -1.32151e-06 0)
(0.999887 -1.28648e-06 0)
(0.99989 -1.25186e-06 0)
(0.999892 -1.21778e-06 0)
(0.999895 -1.18434e-06 0)
(0.999897 -1.15167e-06 0)
(0.999899 -1.11986e-06 0)
(0.999901 -1.089e-06 0)
(0.999904 -1.05914e-06 0)
(0.999906 -1.03029e-06 0)
(0.999908 -1.00245e-06 0)
(0.99991 -9.75541e-07 0)
(0.999912 -9.49471e-07 0)
(0.999913 -9.2411e-07 0)
(0.999915 -8.99316e-07 0)
(0.999917 -8.74945e-07 0)
(0.999919 -8.50875e-07 0)
(0.99992 -8.2702e-07 0)
(0.999922 -8.03349e-07 0)
(0.999924 -7.79891e-07 0)
(0.999925 -7.5674e-07 0)
(0.999927 -7.34049e-07 0)
(0.999928 -7.1201e-07 0)
(0.99993 -6.9084e-07 0)
(0.999931 -6.70754e-07 0)
(0.999932 -6.51942e-07 0)
(0.999933 -6.34549e-07 0)
(0.999935 -6.18662e-07 0)
(0.999936 -6.043e-07 0)
(0.999937 -5.91417e-07 0)
(0.999938 -5.79904e-07 0)
(0.999939 -5.69606e-07 0)
(0.999941 -5.60333e-07 0)
(0.999942 -5.51874e-07 0)
(0.999943 -5.44013e-07 0)
(0.999944 -5.36545e-07 0)
(0.999945 -5.2928e-07 0)
(0.999946 -5.22052e-07 0)
(0.999947 -5.14727e-07 0)
(0.999948 -5.07199e-07 0)
(0.999949 -4.99395e-07 0)
(0.99995 -4.91269e-07 0)
(0.999951 -4.82799e-07 0)
(0.999952 -4.73986e-07 0)
(0.999953 -4.64848e-07 0)
(0.999954 -4.55416e-07 0)
(0.999955 -4.45729e-07 0)
(0.999956 -4.35836e-07 0)
(0.999957 -4.25785e-07 0)
(0.999957 -4.1563e-07 0)
(0.999958 -4.05419e-07 0)
(0.999959 -3.95202e-07 0)
(0.99996 -3.85022e-07 0)
(0.999961 -3.74922e-07 0)
(0.999961 -3.64938e-07 0)
(0.999962 -3.55101e-07 0)
(0.999963 -3.4544e-07 0)
(0.999963 -3.35977e-07 0)
(0.999964 -3.26732e-07 0)
(0.999965 -3.17719e-07 0)
(0.999965 -3.08951e-07 0)
(0.999966 -3.00435e-07 0)
(0.999966 -2.92176e-07 0)
(0.999967 -2.84179e-07 0)
(0.999968 -2.76444e-07 0)
(0.999968 -2.6897e-07 0)
(0.999969 -2.61754e-07 0)
(0.999969 -2.54792e-07 0)
(0.99997 -2.48081e-07 0)
(0.99997 -2.41613e-07 0)
(0.999971 -2.35383e-07 0)
(0.999971 -2.29384e-07 0)
(0.999972 -2.23608e-07 0)
(0.999972 -2.18048e-07 0)
(0.999972 -2.12695e-07 0)
(0.999973 -2.07543e-07 0)
(0.999973 -2.02583e-07 0)
(0.999974 -1.97808e-07 0)
(0.999974 -1.9321e-07 0)
(0.999974 -1.88781e-07 0)
(0.999975 -1.84514e-07 0)
(0.999975 -1.80402e-07 0)
(0.999976 -1.76438e-07 0)
(0.999976 -1.72615e-07 0)
(0.999976 -1.68927e-07 0)
(0.999977 -1.65368e-07 0)
(0.999977 -1.61931e-07 0)
(0.999977 -1.58611e-07 0)
(0.999978 -1.55403e-07 0)
(0.999978 -1.523e-07 0)
(0.999978 -1.49299e-07 0)
(0.999978 -1.46395e-07 0)
(0.999979 -1.43582e-07 0)
(0.999979 -1.40857e-07 0)
(0.999979 -1.38215e-07 0)
(0.99998 -1.35653e-07 0)
(0.99998 -1.33167e-07 0)
(0.99998 -1.30753e-07 0)
(0.99998 -1.28408e-07 0)
(0.999981 -1.26128e-07 0)
(0.999981 -1.23912e-07 0)
(0.999981 -1.21755e-07 0)
(0.999981 -1.19656e-07 0)
(0.999982 -1.17611e-07 0)
(0.999982 -1.15618e-07 0)
(0.999982 -1.13675e-07 0)
(0.999982 -1.1178e-07 0)
(0.999983 -1.0993e-07 0)
(0.999983 -1.08124e-07 0)
(0.999983 -1.0636e-07 0)
(0.999983 -1.04636e-07 0)
(0.999983 -1.0295e-07 0)
(0.999984 -1.013e-07 0)
(0.999984 -9.96862e-08 0)
(0.999984 -9.8106e-08 0)
(0.999984 -9.65582e-08 0)
(0.999984 -9.50416e-08 0)
(0.999985 -9.3555e-08 0)
(0.999985 -9.20971e-08 0)
(0.999985 -9.0667e-08 0)
(0.999985 -8.92635e-08 0)
(0.999985 -8.78856e-08 0)
(0.999985 -8.65325e-08 0)
(0.999986 -8.52032e-08 0)
(0.999986 -8.3897e-08 0)
(0.999986 -8.2613e-08 0)
(0.999986 -8.13503e-08 0)
(0.999986 -8.01084e-08 0)
(0.999986 -7.88864e-08 0)
(0.999987 -7.76839e-08 0)
(0.999987 -7.65e-08 0)
(0.999987 -7.53343e-08 0)
(0.999987 -7.41861e-08 0)
(0.999987 -7.3055e-08 0)
(0.999987 -7.19404e-08 0)
(0.999987 -7.08418e-08 0)
(0.999988 -6.97588e-08 0)
(0.999988 -6.86908e-08 0)
(0.999988 -6.76375e-08 0)
(0.999988 -6.65984e-08 0)
(0.999988 -6.55731e-08 0)
(0.999988 -6.45614e-08 0)
(0.999988 -6.35628e-08 0)
(0.999989 -6.25769e-08 0)
(0.999989 -6.16035e-08 0)
(0.999989 -6.06422e-08 0)
(0.999989 -5.96927e-08 0)
(0.999989 -5.87546e-08 0)
(0.999989 -5.78279e-08 0)
(0.999989 -5.6912e-08 0)
(0.999989 -5.60069e-08 0)
(0.999989 -5.51121e-08 0)
(0.99999 -5.42276e-08 0)
(0.99999 -5.33529e-08 0)
(0.99999 -5.2488e-08 0)
(0.99999 -5.16327e-08 0)
(0.99999 -5.07866e-08 0)
(0.99999 -4.99496e-08 0)
(0.99999 -4.91214e-08 0)
(0.99999 -4.8302e-08 0)
(0.99999 -4.7491e-08 0)
(0.999991 -4.66884e-08 0)
(0.999991 -4.58939e-08 0)
(0.999991 -4.51073e-08 0)
(0.999991 -4.43285e-08 0)
(0.999991 -4.35573e-08 0)
(0.999991 -4.27935e-08 0)
(0.999991 -4.20371e-08 0)
(0.999991 -4.12878e-08 0)
(0.999991 -4.05456e-08 0)
(0.999991 -3.98102e-08 0)
(0.999991 -3.90815e-08 0)
(0.999991 -3.83594e-08 0)
(0.999992 -3.76436e-08 0)
(0.999992 -3.69342e-08 0)
(0.999992 -3.62309e-08 0)
(0.999992 -3.55336e-08 0)
(0.999992 -3.48423e-08 0)
(0.999992 -3.41568e-08 0)
(0.999992 -3.34769e-08 0)
(0.999992 -3.28025e-08 0)
(0.999992 -3.21336e-08 0)
(0.999992 -3.14699e-08 0)
(0.999992 -3.08114e-08 0)
(0.999992 -3.0158e-08 0)
(0.999992 -2.95095e-08 0)
(0.999992 -2.88658e-08 0)
(0.999992 -2.82269e-08 0)
(0.999992 -2.75926e-08 0)
(0.999993 -2.69628e-08 0)
(0.999993 -2.63373e-08 0)
(0.999993 -2.57162e-08 0)
(0.999993 -2.50993e-08 0)
(0.999993 -2.44865e-08 0)
(0.999993 -2.38777e-08 0)
(0.999993 -2.32727e-08 0)
(0.999993 -2.26717e-08 0)
(0.999993 -2.20743e-08 0)
(0.999993 -2.14805e-08 0)
(0.999993 -2.08902e-08 0)
(0.999993 -2.03034e-08 0)
(0.999993 -1.97198e-08 0)
(0.999993 -1.91395e-08 0)
(0.999993 -1.85622e-08 0)
(0.999993 -1.7988e-08 0)
(0.999993 -1.74168e-08 0)
(0.999993 -1.68484e-08 0)
(0.999993 -1.62828e-08 0)
(0.999993 -1.57202e-08 0)
(0.999993 -1.51589e-08 0)
(0.999993 -1.46056e-08 0)
(0.999993 -1.40314e-08 0)
(0.999993 -1.35585e-08 0)
(0.999994 -1.26682e-08 0)
(-0.00786183 0.0171524 0)
(-0.014101 -0.0285867 0)
(0.0277874 -0.0551811 0)
(0.0644902 -0.0585087 0)
(0.100919 -0.0520131 0)
(0.133298 -0.0442841 0)
(0.161245 -0.038978 0)
(0.186307 -0.0365429 0)
(0.210224 -0.0360753 0)
(0.234212 -0.0365525 0)
(0.25877 -0.0373008 0)
(0.28391 -0.0379857 0)
(0.309476 -0.0384769 0)
(0.335314 -0.0387436 0)
(0.361278 -0.0387942 0)
(0.387224 -0.0386434 0)
(0.41301 -0.038302 0)
(0.438503 -0.0377795 0)
(0.463581 -0.0370885 0)
(0.488134 -0.0362473 0)
(0.512066 -0.0352787 0)
(0.5353 -0.0342078 0)
(0.557775 -0.0330598 0)
(0.579452 -0.0318582 0)
(0.600301 -0.0306236 0)
(0.62031 -0.0293735 0)
(0.639475 -0.0281223 0)
(0.6578 -0.0268814 0)
(0.675299 -0.0256599 0)
(0.691987 -0.0244649 0)
(0.707885 -0.0233017 0)
(0.723016 -0.0221742 0)
(0.737407 -0.0210853 0)
(0.751084 -0.0200368 0)
(0.764075 -0.0190298 0)
(0.776409 -0.0180649 0)
(0.788113 -0.0171418 0)
(0.799216 -0.0162604 0)
(0.809746 -0.0154197 0)
(0.819729 -0.0146189 0)
(0.829192 -0.0138568 0)
(0.83816 -0.0131321 0)
(0.846659 -0.0124435 0)
(0.854711 -0.0117896 0)
(0.862339 -0.0111689 0)
(0.869565 -0.01058 0)
(0.87641 -0.0100215 0)
(0.882893 -0.00949196 0)
(0.889033 -0.00899002 0)
(0.894848 -0.00851434 0)
(0.900356 -0.00806363 0)
(0.905572 -0.00763665 0)
(0.910511 -0.00723221 0)
(0.915189 -0.00684915 0)
(0.919619 -0.00648639 0)
(0.923815 -0.00614287 0)
(0.927788 -0.0058176 0)
(0.931551 -0.00550962 0)
(0.935115 -0.00521804 0)
(0.93849 -0.00494197 0)
(0.941687 -0.00468062 0)
(0.944714 -0.0044332 0)
(0.947582 -0.00419896 0)
(0.950298 -0.00397722 0)
(0.952871 -0.0037673 0)
(0.955308 -0.00356857 0)
(0.957616 -0.00338044 0)
(0.959803 -0.00320233 0)
(0.961874 -0.00303371 0)
(0.963837 -0.00287408 0)
(0.965696 -0.00272294 0)
(0.967458 -0.00257985 0)
(0.969127 -0.00244437 0)
(0.970708 -0.00231608 0)
(0.972207 -0.0021946 0)
(0.973627 -0.00207956 0)
(0.974972 -0.0019706 0)
(0.976247 -0.00186739 0)
(0.977455 -0.00176961 0)
(0.9786 -0.00167697 0)
(0.979686 -0.00158919 0)
(0.980714 -0.001506 0)
(0.981688 -0.00142714 0)
(0.982612 -0.0013524 0)
(0.983487 -0.00128154 0)
(0.984316 -0.00121437 0)
(0.985102 -0.00115069 0)
(0.985846 -0.00109031 0)
(0.986552 -0.00103308 0)
(0.98722 -0.000978837 0)
(0.987853 -0.000927423 0)
(0.988453 -0.000878698 0)
(0.989022 -0.000832527 0)
(0.98956 -0.000788783 0)
(0.990071 -0.000747343 0)
(0.990554 -0.000708091 0)
(0.991012 -0.000670916 0)
(0.991446 -0.000635713 0)
(0.991858 -0.000602382 0)
(0.992247 -0.000570828 0)
(0.992617 -0.000540962 0)
(0.992967 -0.000512699 0)
(0.993298 -0.000485957 0)
(0.993613 -0.00046066 0)
(0.993911 -0.000436734 0)
(0.994193 -0.000414111 0)
(0.994461 -0.000392723 0)
(0.994716 -0.000372507 0)
(0.994957 -0.000353402 0)
(0.995186 -0.00033535 0)
(0.995403 -0.000318293 0)
(0.995609 -0.000302178 0)
(0.995804 -0.000286953 0)
(0.99599 -0.000272568 0)
(0.996167 -0.000258974 0)
(0.996335 -0.000246125 0)
(0.996494 -0.000233978 0)
(0.996646 -0.000222491 0)
(0.99679 -0.000211623 0)
(0.996927 -0.000201337 0)
(0.997058 -0.000191598 0)
(0.997182 -0.000182372 0)
(0.9973 -0.000173627 0)
(0.997413 -0.000165336 0)
(0.99752 -0.000157471 0)
(0.997623 -0.000150006 0)
(0.99772 -0.000142918 0)
(0.997813 -0.000136186 0)
(0.997901 -0.000129789 0)
(0.997985 -0.000123709 0)
(0.998066 -0.000117929 0)
(0.998142 -0.000112433 0)
(0.998215 -0.000107205 0)
(0.998285 -0.000102233 0)
(0.998351 -9.7502e-05 0)
(0.998415 -9.30013e-05 0)
(0.998475 -8.87191e-05 0)
(0.998533 -8.46446e-05 0)
(0.998588 -8.07677e-05 0)
(0.99864 -7.70787e-05 0)
(0.99869 -7.35687e-05 0)
(0.998738 -7.02288e-05 0)
(0.998784 -6.70509e-05 0)
(0.998827 -6.4027e-05 0)
(0.998869 -6.11497e-05 0)
(0.998908 -5.84117e-05 0)
(0.998946 -5.58064e-05 0)
(0.998983 -5.3327e-05 0)
(0.999017 -5.09674e-05 0)
(0.999051 -4.87216e-05 -2.15372e-42)
(0.999082 -4.6584e-05 -2.21049e-42)
(0.999113 -4.45491e-05 0)
(0.999142 -4.26118e-05 0)
(0.999169 -4.07673e-05 0)
(0.999196 -3.90108e-05 0)
(0.999221 -3.7338e-05 0)
(0.999245 -3.57447e-05 0)
(0.999269 -3.4227e-05 0)
(0.999291 -3.27811e-05 0)
(0.999312 -3.14035e-05 0)
(0.999333 -3.00909e-05 0)
(0.999352 -2.88402e-05 0)
(0.999371 -2.76483e-05 0)
(0.999389 -2.65125e-05 0)
(0.999406 -2.54302e-05 0)
(0.999423 -2.43989e-05 0)
(0.999439 -2.34162e-05 0)
(0.999454 -2.24801e-05 0)
(0.999469 -2.15883e-05 0)
(0.999483 -2.0739e-05 0)
(0.999496 -1.99302e-05 0)
(0.999509 -1.91603e-05 0)
(0.999522 -1.84275e-05 0)
(0.999534 -1.77302e-05 0)
(0.999546 -1.7067e-05 0)
(0.999557 -1.64365e-05 0)
(0.999567 -1.58371e-05 0)
(0.999578 -1.52677e-05 0)
(0.999588 -1.47269e-05 0)
(0.999597 -1.42135e-05 0)
(0.999607 -1.37263e-05 0)
(0.999616 -1.32642e-05 0)
(0.999624 -1.28261e-05 0)
(0.999633 -1.24109e-05 0)
(0.999641 -1.20176e-05 0)
(0.999649 -1.16451e-05 0)
(0.999656 -1.12926e-05 0)
(0.999664 -1.0959e-05 0)
(0.999671 -1.06433e-05 0)
(0.999678 -1.03448e-05 0)
(0.999685 -1.00625e-05 0)
(0.999691 -9.79554e-06 0)
(0.999698 -9.54312e-06 0)
(0.999704 -9.30441e-06 0)
(0.99971 -9.07862e-06 0)
(0.999716 -8.86497e-06 0)
(0.999722 -8.66271e-06 0)
(0.999728 -8.47111e-06 0)
(0.999733 -8.28946e-06 0)
(0.999739 -8.11707e-06 0)
(0.999744 -7.95328e-06 0)
(0.999749 -7.79742e-06 0)
(0.999754 -7.64888e-06 0)
(0.999759 -7.50705e-06 0)
(0.999764 -7.37133e-06 0)
(0.999769 -7.24118e-06 0)
(0.999774 -7.11602e-06 0)
(0.999779 -6.99536e-06 0)
(0.999783 -6.87867e-06 0)
(0.999788 -6.76548e-06 0)
(0.999792 -6.65533e-06 0)
(0.999797 -6.54777e-06 0)
(0.999801 -6.4424e-06 0)
(0.999805 -6.33881e-06 0)
(0.99981 -6.23664e-06 0)
(0.999814 -6.13554e-06 0)
(0.999818 -6.03521e-06 0)
(0.999822 -5.93534e-06 0)
(0.999826 -5.83569e-06 0)
(0.99983 -5.73602e-06 0)
(0.999833 -5.63615e-06 0)
(0.999837 -5.5359e-06 0)
(0.999841 -5.43515e-06 0)
(0.999844 -5.3338e-06 0)
(0.999848 -5.23176e-06 0)
(0.999851 -5.129e-06 0)
(0.999855 -5.02549e-06 0)
(0.999858 -4.92126e-06 0)
(0.999861 -4.81631e-06 0)
(0.999864 -4.71073e-06 0)
(0.999868 -4.60458e-06 0)
(0.999871 -4.49797e-06 0)
(0.999874 -4.39106e-06 0)
(0.999876 -4.284e-06 0)
(0.999879 -4.17701e-06 0)
(0.999882 -4.07033e-06 0)
(0.999885 -3.96423e-06 0)
(0.999887 -3.85903e-06 0)
(0.99989 -3.75506e-06 0)
(0.999892 -3.65268e-06 0)
(0.999895 -3.55226e-06 0)
(0.999897 -3.45415e-06 0)
(0.999899 -3.35864e-06 0)
(0.999901 -3.26601e-06 0)
(0.999904 -3.17641e-06 0)
(0.999906 -3.0899e-06 0)
(0.999908 -3.00643e-06 0)
(0.99991 -2.9258e-06 0)
(0.999912 -2.84771e-06 0)
(0.999913 -2.77176e-06 0)
(0.999915 -2.69752e-06 0)
(0.999917 -2.62452e-06 0)
(0.999919 -2.55239e-06 0)
(0.99992 -2.48085e-06 0)
(0.999922 -2.4098e-06 0)
(0.999924 -2.33934e-06 0)
(0.999925 -2.26974e-06 0)
(0.999927 -2.20148e-06 0)
(0.999928 -2.13516e-06 0)
(0.99993 -2.07145e-06 0)
(0.999931 -2.01101e-06 0)
(0.999932 -1.95443e-06 0)
(0.999934 -1.90217e-06 0)
(0.999935 -1.85449e-06 0)
(0.999936 -1.81145e-06 0)
(0.999937 -1.7729e-06 0)
(0.999938 -1.73851e-06 0)
(0.99994 -1.7078e-06 0)
(0.999941 -1.68019e-06 0)
(0.999942 -1.65502e-06 0)
(0.999943 -1.63164e-06 0)
(0.999944 -1.60942e-06 0)
(0.999945 -1.58779e-06 0)
(0.999946 -1.56624e-06 0)
(0.999947 -1.54437e-06 0)
(0.999948 -1.52186e-06 0)
(0.999949 -1.4985e-06 0)
(0.99995 -1.47414e-06 0)
(0.999951 -1.44873e-06 0)
(0.999952 -1.42228e-06 0)
(0.999953 -1.39483e-06 0)
(0.999954 -1.3665e-06 0)
(0.999955 -1.33739e-06 0)
(0.999956 -1.30766e-06 0)
(0.999957 -1.27746e-06 0)
(0.999957 -1.24695e-06 0)
(0.999958 -1.21627e-06 0)
(0.999959 -1.18557e-06 0)
(0.99996 -1.15499e-06 0)
(0.999961 -1.12465e-06 0)
(0.999961 -1.09467e-06 0)
(0.999962 -1.06513e-06 0)
(0.999963 -1.03612e-06 0)
(0.999963 -1.00772e-06 0)
(0.999964 -9.79966e-07 0)
(0.999965 -9.52916e-07 0)
(0.999965 -9.26601e-07 0)
(0.999966 -9.01047e-07 0)
(0.999967 -8.76269e-07 0)
(0.999967 -8.52277e-07 0)
(0.999968 -8.29072e-07 0)
(0.999968 -8.06651e-07 0)
(0.999969 -7.85007e-07 0)
(0.999969 -7.64128e-07 0)
(0.99997 -7.43999e-07 0)
(0.99997 -7.24603e-07 0)
(0.999971 -7.0592e-07 0)
(0.999971 -6.87929e-07 0)
(0.999972 -6.70609e-07 0)
(0.999972 -6.53935e-07 0)
(0.999972 -6.37886e-07 0)
(0.999973 -6.22437e-07 0)
(0.999973 -6.07566e-07 0)
(0.999974 -5.93247e-07 0)
(0.999974 -5.7946e-07 0)
(0.999974 -5.6618e-07 0)
(0.999975 -5.53387e-07 0)
(0.999975 -5.41058e-07 0)
(0.999976 -5.29172e-07 0)
(0.999976 -5.1771e-07 0)
(0.999976 -5.06653e-07 0)
(0.999977 -4.95981e-07 0)
(0.999977 -4.85676e-07 0)
(0.999977 -4.75722e-07 0)
(0.999978 -4.66102e-07 0)
(0.999978 -4.568e-07 0)
(0.999978 -4.47802e-07 0)
(0.999978 -4.39093e-07 0)
(0.999979 -4.30659e-07 0)
(0.999979 -4.22488e-07 0)
(0.999979 -4.14567e-07 0)
(0.99998 -4.06884e-07 0)
(0.99998 -3.99428e-07 0)
(0.99998 -3.92189e-07 0)
(0.99998 -3.85157e-07 0)
(0.999981 -3.78322e-07 0)
(0.999981 -3.71676e-07 0)
(0.999981 -3.65208e-07 0)
(0.999981 -3.58912e-07 0)
(0.999982 -3.5278e-07 0)
(0.999982 -3.46804e-07 0)
(0.999982 -3.40977e-07 0)
(0.999982 -3.35294e-07 0)
(0.999983 -3.29747e-07 0)
(0.999983 -3.2433e-07 0)
(0.999983 -3.19039e-07 0)
(0.999983 -3.13868e-07 0)
(0.999983 -3.08812e-07 0)
(0.999984 -3.03866e-07 0)
(0.999984 -2.99025e-07 0)
(0.999984 -2.94286e-07 0)
(0.999984 -2.89644e-07 0)
(0.999984 -2.85095e-07 0)
(0.999985 -2.80636e-07 0)
(0.999985 -2.76264e-07 0)
(0.999985 -2.71974e-07 0)
(0.999985 -2.67765e-07 0)
(0.999985 -2.63632e-07 0)
(0.999985 -2.59574e-07 0)
(0.999986 -2.55587e-07 0)
(0.999986 -2.51669e-07 0)
(0.999986 -2.47817e-07 0)
(0.999986 -2.4403e-07 0)
(0.999986 -2.40305e-07 0)
(0.999986 -2.3664e-07 0)
(0.999987 -2.33033e-07 0)
(0.999987 -2.29482e-07 0)
(0.999987 -2.25986e-07 0)
(0.999987 -2.22542e-07 0)
(0.999987 -2.19149e-07 0)
(0.999987 -2.15806e-07 0)
(0.999987 -2.1251e-07 0)
(0.999988 -2.09262e-07 0)
(0.999988 -2.06058e-07 0)
(0.999988 -2.02899e-07 0)
(0.999988 -1.99782e-07 0)
(0.999988 -1.96706e-07 0)
(0.999988 -1.93671e-07 0)
(0.999988 -1.90676e-07 0)
(0.999989 -1.87719e-07 0)
(0.999989 -1.84799e-07 0)
(0.999989 -1.81915e-07 0)
(0.999989 -1.79067e-07 0)
(0.999989 -1.76253e-07 0)
(0.999989 -1.73473e-07 0)
(0.999989 -1.70726e-07 0)
(0.999989 -1.6801e-07 0)
(0.999989 -1.65326e-07 0)
(0.99999 -1.62673e-07 0)
(0.99999 -1.60049e-07 0)
(0.99999 -1.57455e-07 0)
(0.99999 -1.54889e-07 0)
(0.99999 -1.52351e-07 0)
(0.99999 -1.4984e-07 0)
(0.99999 -1.47356e-07 0)
(0.99999 -1.44897e-07 0)
(0.99999 -1.42465e-07 0)
(0.999991 -1.40057e-07 0)
(0.999991 -1.37673e-07 0)
(0.999991 -1.35314e-07 0)
(0.999991 -1.32978e-07 0)
(0.999991 -1.30664e-07 0)
(0.999991 -1.28373e-07 0)
(0.999991 -1.26104e-07 0)
(0.999991 -1.23856e-07 0)
(0.999991 -1.2163e-07 0)
(0.999991 -1.19424e-07 0)
(0.999991 -1.17238e-07 0)
(0.999991 -1.15071e-07 0)
(0.999992 -1.12924e-07 0)
(0.999992 -1.10796e-07 0)
(0.999992 -1.08687e-07 0)
(0.999992 -1.06595e-07 0)
(0.999992 -1.04521e-07 0)
(0.999992 -1.02465e-07 0)
(0.999992 -1.00425e-07 0)
(0.999992 -9.84021e-08 0)
(0.999992 -9.63953e-08 0)
(0.999992 -9.44044e-08 0)
(0.999992 -9.2429e-08 0)
(0.999992 -9.04688e-08 0)
(0.999992 -8.85235e-08 0)
(0.999992 -8.65926e-08 0)
(0.999992 -8.4676e-08 0)
(0.999992 -8.27732e-08 0)
(0.999993 -8.08839e-08 0)
(0.999993 -7.90078e-08 0)
(0.999993 -7.71446e-08 0)
(0.999993 -7.5294e-08 0)
(0.999993 -7.34556e-08 0)
(0.999993 -7.16293e-08 0)
(0.999993 -6.98147e-08 0)
(0.999993 -6.80115e-08 0)
(0.999993 -6.62195e-08 0)
(0.999993 -6.44382e-08 0)
(0.999993 -6.26675e-08 0)
(0.999993 -6.09069e-08 0)
(0.999993 -5.91563e-08 0)
(0.999993 -5.74154e-08 0)
(0.999993 -5.56838e-08 0)
(0.999993 -5.39613e-08 0)
(0.999993 -5.22478e-08 0)
(0.999993 -5.05428e-08 0)
(0.999993 -4.8846e-08 0)
(0.999993 -4.71582e-08 0)
(0.999993 -4.54743e-08 0)
(0.999993 -4.38145e-08 0)
(0.999993 -4.20919e-08 0)
(0.999993 -4.06733e-08 0)
(0.999994 -3.80027e-08 0)
(-0.00840681 0.029257 0)
(-0.0150726 -0.0473137 0)
(0.0265792 -0.0921382 0)
(0.0633741 -0.0977963 0)
(0.100375 -0.086899 0)
(0.133138 -0.0739506 0)
(0.16114 -0.0650103 0)
(0.186091 -0.0608425 0)
(0.209874 -0.0600059 0)
(0.233754 -0.0608217 0)
(0.258253 -0.0621366 0)
(0.283409 -0.0633532 0)
(0.309079 -0.0642348 0)
(0.335091 -0.0647267 0)
(0.361278 -0.0648422 0)
(0.387473 -0.0646057 0)
(0.413514 -0.0640368 0)
(0.439252 -0.0631541 0)
(0.464552 -0.0619824 0)
(0.489297 -0.0605553 0)
(0.513387 -0.0589137 0)
(0.536743 -0.0571017 0)
(0.559308 -0.0551631 0)
(0.581044 -0.053138 0)
(0.601927 -0.0510611 0)
(0.621948 -0.0489617 0)
(0.641108 -0.0468633 0)
(0.659415 -0.0447848 0)
(0.676884 -0.042741 0)
(0.693534 -0.0407431 0)
(0.709388 -0.0387998 0)
(0.72447 -0.0369173 0)
(0.738809 -0.0351002 0)
(0.752433 -0.0333513 0)
(0.765369 -0.0316724 0)
(0.777647 -0.0300639 0)
(0.789296 -0.0285259 0)
(0.800345 -0.0270574 0)
(0.810822 -0.0256573 0)
(0.820754 -0.0243238 0)
(0.830167 -0.0230549 0)
(0.839087 -0.0218485 0)
(0.847539 -0.0207023 0)
(0.855546 -0.0196139 0)
(0.863132 -0.018581 0)
(0.870317 -0.017601 0)
(0.877123 -0.0166716 0)
(0.883569 -0.0157905 0)
(0.889674 -0.0149553 0)
(0.895456 -0.0141639 0)
(0.900932 -0.013414 0)
(0.906117 -0.0127037 0)
(0.911028 -0.0120308 0)
(0.915679 -0.0113935 0)
(0.920083 -0.0107901 0)
(0.924254 -0.0102186 0)
(0.928204 -0.00967746 0)
(0.931945 -0.00916513 0)
(0.935488 -0.00868006 0)
(0.938843 -0.00822082 0)
(0.942021 -0.00778606 0)
(0.945031 -0.00737446 0)
(0.947882 -0.00698482 0)
(0.950582 -0.00661595 0)
(0.95314 -0.00626675 0)
(0.955563 -0.00593617 0)
(0.957857 -0.00562322 0)
(0.960031 -0.00532695 0)
(0.962091 -0.00504646 0)
(0.964042 -0.00478092 0)
(0.965891 -0.00452952 0)
(0.967642 -0.0042915 0)
(0.969301 -0.00406613 0)
(0.970873 -0.00385274 0)
(0.972363 -0.00365067 0)
(0.973775 -0.0034593 0)
(0.975113 -0.00327806 0)
(0.97638 -0.00310638 0)
(0.977582 -0.00294374 0)
(0.97872 -0.00278965 0)
(0.979799 -0.00264363 0)
(0.980821 -0.00250524 0)
(0.98179 -0.00237408 0)
(0.982708 -0.00224974 0)
(0.983578 -0.00213187 0)
(0.984403 -0.00202012 0)
(0.985184 -0.00191418 0)
(0.985924 -0.00181374 0)
(0.986626 -0.00171853 0)
(0.98729 -0.00162828 0)
(0.98792 -0.00154275 0)
(0.988516 -0.00146169 0)
(0.989081 -0.00138488 0)
(0.989617 -0.0013121 0)
(0.990124 -0.00124316 0)
(0.990605 -0.00117786 0)
(0.99106 -0.00111602 0)
(0.991492 -0.00105746 0)
(0.991901 -0.00100201 0)
(0.992288 -0.000949517 0)
(0.992655 -0.000899834 0)
(0.993003 -0.000852817 0)
(0.993333 -0.000808332 0)
(0.993645 -0.00076625 0)
(0.993942 -0.000726451 0)
(0.994223 -0.000688818 0)
(0.994489 -0.000653242 0)
(0.994742 -0.000619616 0)
(0.994981 -0.000587839 0)
(0.995209 -0.000557813 0)
(0.995425 -0.000529446 0)
(0.99563 -0.000502645 0)
(0.995824 -0.000477325 0)
(0.996009 -0.000453403 0)
(0.996184 -0.000430797 0)
(0.996351 -0.000409431 0)
(0.99651 -0.000389233 0)
(0.996661 -0.00037013 0)
(0.996804 -0.000352059 0)
(0.996941 -0.000334955 0)
(0.99707 -0.00031876 0)
(0.997194 -0.000303417 0)
(0.997312 -0.000288876 0)
(0.997424 -0.000275088 0)
(0.997531 -0.000262006 0)
(0.997632 -0.000249591 0)
(0.997729 -0.000237802 0)
(0.997821 -0.000226604 0)
(0.997909 -0.000215963 0)
(0.997993 -0.000205849 0)
(0.998073 -0.000196233 0)
(0.998149 -0.000187089 0)
(0.998222 -0.000178392 0)
(0.998291 -0.000170119 0)
(0.998357 -0.000162248 0)
(0.99842 -0.000154759 0)
(0.998481 -0.000147634 0)
(0.998538 -0.000140855 0)
(0.998593 -0.000134404 0)
(0.998645 -0.000128266 0)
(0.998695 -0.000122425 0)
(0.998742 -0.000116868 0)
(0.998788 -0.00011158 0)
(0.998831 -0.000106549 0)
(0.998872 -0.000101761 0)
(0.998912 -9.72056e-05 0)
(0.99895 -9.28705e-05 0)
(0.998986 -8.87452e-05 0)
(0.99902 -8.48191e-05 0)
(0.999053 -8.10825e-05 0)
(0.999085 -7.75258e-05 0)
(0.999115 -7.414e-05 0)
(0.999144 -7.09166e-05 0)
(0.999172 -6.78475e-05 0)
(0.999198 -6.4925e-05 0)
(0.999223 -6.21416e-05 0)
(0.999248 -5.94905e-05 0)
(0.999271 -5.69651e-05 0)
(0.999293 -5.45592e-05 0)
(0.999314 -5.2267e-05 0)
(0.999334 -5.00828e-05 0)
(0.999354 -4.80014e-05 0)
(0.999373 -4.60181e-05 0)
(0.999391 -4.4128e-05 0)
(0.999408 -4.23269e-05 0)
(0.999424 -4.06107e-05 0)
(0.99944 -3.89754e-05 0)
(0.999455 -3.74174e-05 0)
(0.99947 -3.59333e-05 0)
(0.999484 -3.45198e-05 0)
(0.999497 -3.31738e-05 0)
(0.99951 -3.18924e-05 0)
(0.999523 -3.06729e-05 0)
(0.999535 -2.95125e-05 0)
(0.999546 -2.84088e-05 0)
(0.999557 -2.73594e-05 0)
(0.999568 -2.6362e-05 0)
(0.999578 -2.54143e-05 0)
(0.999588 -2.45143e-05 0)
(0.999598 -2.366e-05 0)
(0.999607 -2.28493e-05 0)
(0.999616 -2.20804e-05 0)
(0.999625 -2.13514e-05 0)
(0.999633 -2.06605e-05 0)
(0.999641 -2.00061e-05 0)
(0.999649 -1.93865e-05 0)
(0.999657 -1.87999e-05 0)
(0.999664 -1.82449e-05 0)
(0.999671 -1.77199e-05 0)
(0.999678 -1.72233e-05 0)
(0.999685 -1.67537e-05 0)
(0.999692 -1.63098e-05 0)
(0.999698 -1.589e-05 0)
(0.999704 -1.5493e-05 0)
(0.99971 -1.51175e-05 0)
(0.999716 -1.47623e-05 0)
(0.999722 -1.4426e-05 0)
(0.999728 -1.41074e-05 0)
(0.999733 -1.38055e-05 0)
(0.999739 -1.35189e-05 0)
(0.999744 -1.32466e-05 0)
(0.999749 -1.29876e-05 0)
(0.999755 -1.27407e-05 0)
(0.99976 -1.25049e-05 0)
(0.999765 -1.22794e-05 0)
(0.999769 -1.2063e-05 0)
(0.999774 -1.1855e-05 0)
(0.999779 -1.16545e-05 0)
(0.999784 -1.14606e-05 0)
(0.999788 -1.12724e-05 0)
(0.999793 -1.10893e-05 0)
(0.999797 -1.09105e-05 0)
(0.999801 -1.07353e-05 0)
(0.999806 -1.05631e-05 0)
(0.99981 -1.03932e-05 0)
(0.999814 -1.0225e-05 0)
(0.999818 -1.00581e-05 0)
(0.999822 -9.89198e-06 0)
(0.999826 -9.72614e-06 0)
(0.99983 -9.56025e-06 0)
(0.999833 -9.39398e-06 0)
(0.999837 -9.22705e-06 0)
(0.999841 -9.05924e-06 0)
(0.999844 -8.8904e-06 0)
(0.999848 -8.72039e-06 0)
(0.999851 -8.54914e-06 0)
(0.999855 -8.37663e-06 0)
(0.999858 -8.20286e-06 0)
(0.999861 -8.02789e-06 0)
(0.999865 -7.85182e-06 0)
(0.999868 -7.67478e-06 0)
(0.999871 -7.49695e-06 0)
(0.999874 -7.31857e-06 0)
(0.999877 -7.13991e-06 0)
(0.999879 -6.96133e-06 0)
(0.999882 -6.78321e-06 0)
(0.999885 -6.60604e-06 0)
(0.999887 -6.43033e-06 0)
(0.99989 -6.25666e-06 0)
(0.999892 -6.08564e-06 0)
(0.999895 -5.9179e-06 0)
(0.999897 -5.75404e-06 0)
(0.999899 -5.5946e-06 0)
(0.999902 -5.44004e-06 0)