/*--------------------------------*- C++ -*----------------------------------*\
| =========                 |                                                 |
| \\      /  F ield         | OpenFOAM: The Open Source CFD Toolbox           |
|  \\    /   O peration     | Version:  v2006                                 |
|   \\  /    A nd           | Website:  www.openfoam.com                      |
|    \\/     M anipulation  |                                                 |
\*---------------------------------------------------------------------------*/
FoamFile
{
    version     2.0;
    format      ascii;
    class       volScalarField;
    location    "0";
    object      f;
}
// * * * * * * * * * * * * * * * * * * * * * * * * * * * * * * * * * * * * * //

dimensions      [0 0 0 0 0 0 0];


internalField   nonuniform List<scalar> 
2500
(
-1.9426e-49
6.27918e-40
-3.06477e-34
1.70613e-30
-1.94649e-28
-1.08873e-25
2.23639e-24
3.92487e-23
4.0578e-23
-2.27215e-20
4.88629e-20
3.81856e-19
-1.86008e-19
-5.69259e-18
-1.9728e-17
-2.04207e-17
2.33638e-17
2.3911e-16
2.95437e-16
-4.03587e-16
-1.80119e-15
-1.11325e-14
-1.37552e-15
2.04245e-14
1.08068e-13
1.12099e-13
2.91003e-15
-3.74775e-13
-2.80897e-14
4.63598e-13
3.94853e-14
-5.74603e-13
-1.45851e-13
1.15857e-13
8.99857e-14
-1.91491e-15
-1.04842e-14
1.56891e-15
1.72702e-15
8.98433e-17
-1.59558e-16
-6.97201e-17
-1.5973e-17
-1.15647e-18
1.02439e-18
7.00824e-19
2.98253e-19
1.01946e-19
2.94303e-20
2.32529e-21
-1.7934e-47
1.95577e-38
-5.77099e-33
2.12052e-29
-1.12392e-27
-7.12914e-25
3.20538e-24
2.70557e-22
1.71578e-21
-9.78638e-20
5.31383e-20
9.99848e-19
1.1653e-18
-6.56691e-18
-3.743e-17
-7.22981e-17
1.73694e-17
4.61119e-16
5.02902e-16
-7.55052e-17
-1.90249e-14
-6.09087e-14
-3.89148e-15
1.54594e-12
1.77397e-12
3.24756e-13
-4.40758e-12
-1.43412e-12
-2.94538e-14
1.58319e-12
-1.06303e-12
-2.40421e-12
-2.0031e-13
6.27548e-13
1.56375e-13
-1.89232e-15
-1.29298e-14
1.21652e-15
1.49647e-15
3.62963e-17
-1.57988e-16
-6.05865e-17
-1.19371e-17
-3.6673e-19
9.31749e-19
5.43544e-19
2.14365e-19
6.96823e-20
1.95582e-20
1.95227e-21
-1.28078e-45
5.19546e-37
-9.377e-32
2.17934e-28
-5.71542e-28
-3.85613e-24
-4.85241e-23
1.42635e-21
1.52262e-20
-3.77313e-19
-1.98739e-19
2.00286e-18
5.77209e-18
1.75092e-18
-6.8864e-17
-2.49998e-16
-2.11546e-17
1.8974e-15
1.37206e-15
-2.36191e-15
-9.93771e-14
-1.52541e-13
1.55928e-12
7.18809e-12
6.58032e-12
5.08975e-13
-2.9309e-11
-3.34259e-12
1.70675e-11
3.81608e-12
-1.39014e-11
-6.51587e-12
-2.56329e-13
2.02419e-12
2.74997e-13
-8.65954e-14
-4.42664e-14
2.03326e-15
2.58617e-15
3.3896e-17
-2.67147e-16
-9.46872e-17
-1.66248e-17
1.6502e-19
1.60187e-18
8.51221e-19
3.22331e-19
1.02312e-19
2.83955e-20
3.11625e-21
-8.90557e-44
1.47452e-35
-1.54672e-30
2.10817e-27
7.79502e-26
-1.81518e-23
-6.2808e-22
6.26921e-21
1.00886e-19
-1.30748e-18
-1.79597e-18
8.31186e-19
1.68198e-17
5.79607e-17
-9.8563e-17
-8.87429e-16
-1.4688e-16
1.63186e-14
4.16347e-15
-6.52275e-13
-3.40253e-13
1.7478e-13
1.64195e-11
1.61022e-11
1.31198e-11
-8.25862e-11
-9.39381e-11
-4.73327e-12
1.29691e-10
5.68765e-12
-5.30555e-11
-1.35663e-11
2.50896e-12
5.52989e-12
3.12944e-13
-4.20888e-13
-1.12984e-13
4.45103e-15
4.56473e-15
2.13986e-17
-4.45589e-16
-1.44528e-16
-2.18228e-17
1.51762e-18
2.71193e-18
1.31906e-18
4.7944e-19
1.48536e-19
4.0747e-20
4.84117e-21
-6.16544e-42
4.47996e-34
-2.53099e-29
1.83362e-26
1.30478e-24
-5.67247e-23
-5.17598e-21
2.23943e-20
5.77529e-19
-3.97033e-18
-8.49296e-18
-1.87354e-17
3.3281e-17
3.14854e-16
-1.125e-16
-3.60386e-15
4.06097e-14
7.25108e-14
-7.02418e-13
-3.36965e-12
-2.23265e-13
1.23259e-10
5.99534e-11
1.98874e-11
-6.6468e-11
-1.48901e-09
-1.71247e-10
1.18694e-09
4.65686e-10
-3.5955e-11
-1.45374e-10
-2.02507e-11
2.96438e-11
1.3429e-11
-9.09751e-13
-1.38541e-12
-2.45571e-13
1.32507e-14
9.11763e-15
-3.51301e-18
-7.3884e-16
-2.15625e-16
-2.64476e-17
4.33584e-18
4.48581e-18
2.0115e-18
7.02508e-19
2.12516e-19
5.76333e-20
7.32783e-21
-4.44944e-40
1.42709e-32
-4e-28
1.29546e-25
1.48697e-23
1.50906e-22
-3.47711e-20
5.46006e-20
2.98781e-18
-9.83307e-18
-2.91999e-17
-1.36134e-16
4.51099e-17
1.61219e-15
-3.30273e-14
-1.02244e-14
6.88908e-13
1.66297e-13
-1.05933e-11
-6.78187e-12
3.17802e-10
6.46033e-10
1.16586e-10
-6.79301e-09
-1.34195e-08
-6.49671e-09
1.74805e-09
9.46947e-09
1.17902e-09
-4.63059e-10
-3.20736e-10
-9.37069e-12
1.22087e-10
2.86207e-11
-5.73797e-12
-3.75258e-12
-4.64931e-13
3.83884e-14
2.04955e-14
-5.28019e-17
-1.22335e-15
-3.14073e-16
-2.82517e-17
9.58054e-18
7.21491e-18
3.00516e-18
1.01028e-18
2.98708e-19
8.01367e-20
1.08088e-20
-3.56992e-38
4.61488e-31
-5.9078e-27
4.7007e-25
1.35344e-22
5.09039e-21
-1.99867e-19
-2.40458e-20
1.41828e-17
-1.42877e-17
-6.91063e-17
-8.49865e-16
1.09824e-14
5.46326e-15
-3.43337e-13
2.84621e-12
1.99342e-12
-7.54598e-11
-2.97416e-11
5.52981e-10
1.70722e-09
1.30228e-09
-1.51349e-08
-7.21116e-08
-6.90475e-08
-1.74675e-08
8.64466e-08
3.33217e-08
1.93464e-09
-1.89519e-09
-5.54653e-10
4.59004e-10
3.9879e-10
5.24805e-11
-1.68172e-11
-8.65024e-12
-7.84281e-13
1.02372e-13
4.65637e-14
-2.33262e-16
-2.02724e-15
-4.45659e-16
-2.3197e-17
1.85831e-17
1.12488e-17
4.38252e-18
1.42138e-18
4.11316e-19
1.09273e-19
1.5532e-20
-3.31238e-36
1.46763e-29
-7.72577e-26
-6.01695e-24
9.831e-22
6.27785e-20
-9.81525e-19
-1.465e-18
6.18174e-17
4.05633e-17
-1.27039e-16
-4.91328e-15
1.31784e-13
-1.32271e-12
-9.48616e-13
3.95925e-11
-6.42829e-11
-4.87876e-10
1.19119e-09
8.13355e-09
3.55139e-09
-1.69311e-08
-1.81102e-07
-2.42985e-07
-1.92356e-07
-2.57122e-08
4.10763e-07
7.89769e-08
2.03027e-09
-6.67318e-09
-6.34548e-10
2.13721e-09
1.09699e-09
8.15844e-11
-3.88999e-11
-1.74294e-11
-1.14387e-12
2.6327e-13
9.91135e-14
-1.15209e-15
-3.42457e-15
-6.13883e-16
-4.65724e-18
3.30356e-17
1.69613e-17
6.21982e-18
1.95096e-18
5.53485e-19
1.45812e-19
2.17325e-20
-3.45378e-34
4.46095e-28
-7.77238e-25
-1.78759e-22
4.84373e-21
5.98721e-19
-3.98087e-18
-1.29051e-17
2.52509e-16
6.70487e-16
-1.68459e-14
-1.1092e-14
3.38669e-13
-9.23766e-12
5.56653e-11
1.0918e-10
-2.74901e-09
-1.19919e-09
4.69108e-08
2.71411e-08
-8.72881e-08
-7.86024e-07
-6.40128e-07
-5.02028e-07
-3.20303e-07
1.2815e-06
1.27443e-06
1.14093e-07
-1.90165e-08
-2.15261e-08
2.66507e-09
6.58965e-09
2.58941e-09
1.0343e-10
-8.03023e-11
-3.1582e-11
-1.29947e-12
6.48915e-13
1.92345e-13
-5.64121e-15
-6.11476e-15
-8.15235e-16
3.7236e-17
5.48469e-17
2.46809e-17
8.56846e-18
2.6064e-18
7.26329e-19
1.90055e-19
2.95938e-20
-3.77722e-32
1.25493e-26
-2.00142e-24
-2.85073e-21
-3.35502e-21
4.92358e-18
-1.22759e-17
-8.66556e-17
1.64725e-15
3.55324e-15
-1.88833e-13
3.10147e-12
-1.45016e-11
-2.46961e-11
9.49949e-10
-1.86985e-09
-1.31868e-08
8.19402e-08
2.06137e-07
-4.67643e-08
-4.12226e-06
-3.58444e-06
-1.57059e-06
-6.30799e-07
4.58525e-06
1.95829e-05
2.80993e-06
-1.62234e-08
-1.69539e-07
-6.25656e-08
1.49996e-08
1.6761e-08
5.44864e-09
9.62842e-11
-1.5459e-10
-5.22038e-11
-3.91382e-13
1.53027e-12
3.35101e-13
-1.96737e-14
-1.16032e-14
-1.02731e-15
1.14965e-16
8.57614e-17
3.45831e-17
1.14318e-17
3.38251e-18
9.27944e-19
2.41626e-19
3.92032e-20
-4.08539e-30
3.08671e-25
1.78718e-22
-3.47353e-20
-4.84536e-19
3.63986e-17
-2.42914e-17
-4.28559e-16
1.52723e-14
-1.58233e-13
-5.44021e-13
1.86869e-11
-2.65483e-10
8.74247e-10
2.79924e-09
-5.71412e-08
-3.05933e-08
9.12051e-07
4.45612e-07
-1.27083e-05
-1.83369e-05
-7.14459e-06
-3.25195e-06
0.000202794
0.000273198
8.41264e-05
3.19643e-06
-8.7812e-07
-6.60373e-07
-1.56115e-07
4.30992e-08
3.72067e-08
1.03465e-08
-1.18668e-11
-2.84011e-10
-7.91467e-11
3.02431e-12
3.40726e-12
5.17971e-13
-4.98919e-14
-2.15886e-14
-1.18231e-15
2.37744e-16
1.26539e-16
4.65543e-17
1.47429e-17
4.25781e-18
1.1527e-18
2.99296e-19
5.0506e-20
-4.21457e-28
5.5906e-24
6.65209e-21
-3.34934e-19
-8.14117e-18
2.85656e-16
-1.36942e-15
3.80697e-15
5.52442e-14
-1.97542e-12
2.17662e-11
3.47465e-11
-8.01539e-10
1.22189e-08
-1.19203e-08
-2.44799e-07
1.43628e-06
3.38552e-06
-1.73257e-05
-6.39867e-05
-3.48889e-05
0.000136547
0.00171927
0.00235206
0.00128999
0.000241916
-1.63618e-06
-3.43089e-06
-1.9758e-06
-3.47144e-07
9.92675e-08
7.33264e-08
1.7592e-08
-3.44655e-10
-5.09396e-10
-1.08735e-10
1.12839e-11
7.02295e-12
6.84292e-13
-1.02327e-13
-3.70912e-14
-1.12424e-15
3.94874e-16
1.75758e-16
6.00753e-17
1.83524e-17
5.1934e-18
1.39111e-18
3.60925e-19
6.32689e-20
-4.04877e-26
-9.17586e-25
1.65487e-19
-2.36425e-18
-9.73021e-17
3.18951e-15
-4.78314e-14
5.0569e-13
-3.24826e-12
-6.57111e-12
2.02142e-10
-2.16899e-09
1.73328e-09
4.01691e-08
-4.75722e-07
-4.8206e-07
9.47776e-06
6.09067e-06
-0.000156391
-0.000161713
0.000367018
0.00581381
0.0100859
0.00846003
0.00366635
0.000539151
-1.08659e-05
-1.00065e-05
-4.90604e-06
-6.75352e-07
1.96312e-07
1.29649e-07
2.65498e-08
-1.1256e-09
-9.00323e-10
-1.29808e-10
2.87861e-11
1.28811e-11
7.11662e-13
-2.00882e-13
-5.71597e-14
-4.95673e-16
5.75264e-16
2.29837e-16
7.42258e-17
2.20383e-17
6.13601e-18
1.63037e-18
4.23513e-19
7.70565e-20
-3.52908e-24
-7.06171e-21
3.37764e-18
-9.36886e-18
-5.33014e-16
1.35287e-14
-2.06162e-13
2.43464e-12
-2.30744e-11
1.14153e-10
5.25882e-10
-1.22937e-08
1.01057e-07
3.58371e-09
-2.04353e-06
9.37877e-06
2.89785e-05
-0.000162698
-0.000502717
-8.85643e-05
0.0104834
0.0256379
0.0299408
0.0210507
0.00817225
0.00103201
-2.67451e-05
-2.44338e-05
-1.06625e-05
-1.12456e-06
3.44011e-07
2.08543e-07
3.49172e-08
-2.67802e-09
-1.53556e-09
-1.25063e-10
6.14125e-11
2.06076e-11
2.15035e-13
-3.79744e-13
-7.57531e-14
9.39886e-16
7.96833e-16
2.83919e-16
8.78463e-17
2.55423e-17
7.02521e-18
1.85567e-18
4.83372e-19
9.12248e-20
-2.64974e-22
-4.80946e-19
6.44649e-17
-3.10706e-16
1.47076e-15
-4.72449e-15
-2.58905e-13
4.08259e-12
-5.22462e-11
8.46538e-10
-3.75393e-09
-2.51448e-08
4.37383e-07
-2.48599e-06
-4.09665e-06
6.49089e-05
3.81394e-05
-0.00088742
-0.000890578
0.0104911
0.0423817
0.0685
0.067014
0.0424804
0.0153627
0.0017326
-6.15566e-05
-5.27453e-05
-2.03837e-05
-1.55895e-06
5.73027e-07
3.07408e-07
3.76279e-08
-5.56934e-09
-2.44858e-09
-4.59816e-12
1.2209e-10
2.81175e-11
-9.21254e-13
-6.80267e-13
-8.39673e-14
2.29982e-15
1.05001e-15
3.32955e-16
9.9815e-17
2.86244e-17
7.8029e-18
2.05162e-18
5.36336e-19
1.0493e-19
-1.45906e-20
-2.27904e-17
1.64373e-15
-3.26652e-14
4.81712e-13
-5.69037e-12
5.22411e-11
-3.29579e-10
8.26084e-10
2.54904e-09
-5.16976e-08
2.75071e-07
8.06283e-07
-1.07179e-05
1.60764e-05
0.000194338
-0.000611649
-0.00251506
0.00260311
0.0464312
0.10864
0.142345
0.125388
0.0733652
0.0249891
0.00250847
-0.000127409
-0.000102134
-3.44492e-05
-1.66727e-06
9.29113e-07
4.11934e-07
2.53817e-08
-1.14318e-08
-3.47611e-09
2.62989e-10
2.23348e-10
3.21578e-11
-2.5208e-12
-1.08729e-12
-8.43978e-14
2.74736e-15
1.21814e-15
3.70173e-16
1.09327e-16
3.1115e-17
8.42076e-18
2.20326e-18
5.77939e-19
1.17152e-19
-6.44199e-19
-2.67238e-16
9.14586e-15
-1.73145e-13
2.43264e-12
-2.89731e-11
2.90557e-10
-2.35358e-09
1.26371e-08
-2.25739e-08
-1.58321e-07
2.09281e-06
-4.94262e-06
-2.23447e-05
0.000163656
0.000308303
-0.0029672
-0.00436109
0.0295634
0.121068
0.219413
0.250857
0.202039
0.110557
0.0354323
0.00305146
-0.000243446
-0.000178858
-5.08718e-05
-5.1861e-07
1.49308e-06
4.87686e-07
-1.03545e-08
-2.24973e-08
-3.86415e-09
7.51766e-10
3.6333e-10
2.83452e-11
-4.15407e-12
-1.4525e-12
-5.95117e-14
3.26462e-15
1.32679e-15
3.9376e-16
1.16224e-16
3.2944e-17
8.84138e-18
2.29605e-18
6.03547e-19
1.26749e-19
-9.50567e-17
1.46768e-15
-5.13151e-15
-2.41345e-13
4.02151e-12
-4.84054e-11
5.18108e-10
-5.03607e-09
4.84086e-08
-2.45825e-07
-7.98781e-09
5.34616e-06
-3.91394e-05
-1.67234e-06
0.000529611
-0.000735458
-0.00836126
-0.000597996
0.0883321
0.245313
0.374632
0.385122
0.286784
0.14667
0.0437288
0.00305905
-0.000435178
-0.00028202
-6.34043e-05
2.10799e-06
2.35553e-06
4.93148e-07
-7.07546e-08
-3.95578e-08
-2.58986e-09
1.46718e-09
4.90278e-10
1.05606e-11
-6.6545e-12
-1.68328e-12
-1.76865e-14
3.52812e-15
1.33059e-15
4.05234e-16
1.21069e-16
3.41162e-17
9.0301e-18
2.31487e-18
6.08531e-19
1.32556e-19
-7.87297e-15
1.07475e-13
-1.55952e-12
1.88918e-11
-1.93609e-10
1.48703e-09
-7.34396e-09
1.63412e-08
8.25802e-08
-8.78846e-07
5.54771e-06
3.80725e-06
-0.000119335
0.000367146
0.00105124
-0.00541719
-0.0166071
0.028412
0.190531
0.417313
0.555758
0.525145
0.361174
0.17164
0.0465806
0.00191939
-0.000731588
-0.000391884
-6.3873e-05
6.37401e-06
3.49944e-06
2.90615e-07
-1.59532e-07
-5.50901e-08
1.01473e-09
2.50873e-09
5.46453e-10
-1.13014e-11
-9.47321e-12
-1.5282e-12
9.81044e-15
3.39487e-15
1.22226e-15
4.13128e-16
1.24909e-16
3.46204e-17
8.93891e-18
2.24293e-18
5.887e-19
1.33572e-19
-3.39749e-14
4.28847e-13
-6.88885e-12
1.01442e-10
-1.23958e-09
1.12405e-08
-7.78557e-08
4.06473e-07
-1.18639e-06
-1.25215e-06
2.25385e-05
-7.73341e-05
-0.00018658
0.001323
0.00107275
-0.0151189
-0.0207331
0.0821531
0.335389
0.617142
0.732619
0.63707
0.403914
0.176632
0.0409874
-6.86235e-05
-0.00115368
-0.000459179
-3.38325e-05
1.22187e-05
4.30992e-06
-1.68351e-07
-2.80988e-07
-5.65817e-08
6.60335e-09
3.88209e-09
4.96469e-10
-2.34143e-11
-1.07821e-11
-1.21032e-12
-1.4706e-14
1.45124e-15
1.15005e-15
4.32459e-16
1.28409e-16
3.42821e-17
8.49049e-18
2.06255e-18
5.41273e-19
1.29237e-19
2.57181e-13
-9.77354e-13
-5.81891e-13
1.381e-10
-2.39577e-09
2.43939e-08
-2.19525e-07
1.52208e-06
-6.72203e-06
1.15547e-05
4.24725e-05
-0.000297749
7.31889e-05
0.0030309
-0.00284274
-0.0297287
-0.011455
0.167335
0.506452
0.806733
0.864633
0.690178
0.404143
0.154652
0.0255833
-0.00237652
-0.00165041
-0.000430705
1.90247e-05
2.20424e-05
4.10218e-06
-8.25884e-07
-4.42508e-07
-3.77552e-08
1.20095e-08
4.78351e-09
3.16382e-10
-1.95986e-11
-8.08214e-12
-8.16368e-13
-4.98856e-14
-7.29895e-17
1.17146e-15
4.65626e-16
1.30629e-16
3.26375e-17
7.57794e-18
1.76004e-18
4.66451e-19
1.19756e-19
3.39134e-12
-1.92226e-11
1.81771e-10
-1.47988e-09
7.87482e-09
-1.57557e-08
-2.36485e-07
2.62049e-06
-1.74542e-05
5.461e-05
8.31559e-06
-0.000645816
0.00120494
0.00480444
-0.0113773
-0.0435582
0.0157553
0.27651
0.672282
0.940532
0.91713
0.676822
0.345552
0.105721
0.00629642
-0.00375233
-0.00187695
-0.000213949
8.22141e-05
3.34702e-05
1.15723e-06
-1.52755e-06
-5.1936e-07
-3.59862e-09
1.60048e-08
4.58186e-09
1.12999e-10
-1.21414e-11
-3.80458e-12
-4.99019e-13
-1.28764e-13
-5.04275e-15
1.40448e-15
5.2071e-16
1.28941e-16
2.89447e-17
6.09624e-18
1.33586e-18
3.69294e-19
1.06322e-19
7.63309e-12
-4.23139e-11
5.04874e-10
-5.90553e-09
6.07272e-08
-4.08123e-07
1.57976e-06
-4.1117e-07
-2.47272e-05
0.000143707
-0.000266682
-0.000828578
0.00343045
0.00518238
-0.0255901
-0.0501578
0.0593727
0.388712
0.793246
0.980997
0.890063
0.568832
0.24091
0.0476247
-0.00726386
-0.00513704
-0.00140681
0.000155333
0.000141581
3.2781e-05
-2.90677e-06
-2.21751e-06
-4.08344e-07
3.0492e-08
1.92111e-08
3.24396e-09
1.93507e-11
1.33232e-11
1.26948e-12
-5.77899e-13
-2.46124e-13
-1.27703e-14
1.91026e-15
5.79594e-16
1.17505e-16
2.23385e-17
4.01201e-18
8.18084e-19
2.60956e-19
9.10346e-20
-1.90052e-10
7.32096e-10
-3.39047e-09
2.02194e-09
1.12926e-07
-1.08061e-06
6.7266e-06
-2.05041e-05
1.00981e-05
0.000227124
-0.000823686
-0.000331213
0.00665039
0.000491997
-0.0423674
-0.0472931
0.115573
0.480383
0.840692
0.936277
0.736592
0.399478
0.124574
0.000250419
-0.0114983
-0.00530773
-0.000250483
0.000490346
0.000201213
1.48875e-05
-6.23939e-06
-2.66156e-06
-2.15841e-07
3.66224e-08
1.5779e-08
1.64136e-09
1.80047e-10
5.08742e-11
2.57293e-12
-8.70729e-13
-3.12727e-13
-9.31407e-15
2.84187e-15
5.96982e-16
8.85125e-17
1.23603e-17
1.47011e-18
2.74012e-19
1.57929e-19
7.63027e-20
-1.11436e-09
3.6485e-09
-1.95596e-08
8.16449e-08
-1.58605e-07
-8.732e-07
1.0688e-05
-5.53478e-05
0.00013185
0.000166175
-0.00151804
0.00135281
0.00930115
-0.0080753
-0.0555114
-0.0364666
0.168326
0.52652
0.806468
0.770685
0.521602
0.220332
0.0288106
-0.0217267
-0.012175
-0.00194093
0.00119497
0.000728524
0.000164876
-7.32922e-06
-7.56678e-06
-1.92312e-06
1.98718e-09
2.84869e-08
6.04078e-09
3.62001e-10
3.07667e-10
9.03479e-11
2.35736e-12
-1.07749e-12
-2.43066e-13
1.09899e-14
4.54865e-15
4.64349e-16
3.67753e-17
-1.48814e-19
-1.10431e-18
-1.91187e-19
7.78483e-20
6.36885e-20
-1.5433e-09
4.82976e-09
-2.76946e-08
1.85591e-07
-1.0886e-06
4.6712e-06
-2.29134e-06
-7.2482e-05
0.000326891
-0.000342514
-0.00183288
0.00432598
0.00983543
-0.0201812
-0.0667453
-0.0195647
0.204858
0.522721
0.654321
0.55105
0.295931
0.0712401
-0.0268998
-0.0221683
-0.00740304
0.00175505
0.0021143
0.000814539
7.12519e-05
-1.81863e-05
-8.24036e-06
-9.26985e-07
5.33415e-08
9.73911e-09
-2.60657e-09
3.68385e-10
4.7283e-10
1.07893e-10
-1.74553e-12
-1.5149e-12
-8.58539e-14
3.01146e-14
5.89062e-15
1.30863e-16
-2.87464e-17
-1.21609e-17
-3.00638e-18
-4.62419e-19
3.13985e-20
5.24951e-20
2.34984e-08
-6.3017e-08
2.74401e-07
-5.06831e-07
-1.77393e-06
1.56351e-05
-5.19877e-05
1.58134e-05
0.00047172
-0.001263
-0.00112228
0.00803502
0.0061892
-0.0333382
-0.0721266
-0.00469513
0.214716
0.433792
0.461989
0.309348
0.105235
-0.021518
-0.0378288
-0.0161715
0.00203027
0.00491217
0.0025387
0.000530888
-2.14441e-05
-1.56713e-05
-3.91105e-06
-8.21893e-08
-4.30867e-08
-3.48827e-08
-6.53442e-09
1.15421e-09
6.21907e-10
6.89701e-11
-7.02743e-12
-1.94045e-12
6.19864e-14
3.81033e-14
3.08134e-15
-3.00784e-16
-8.50402e-17
-1.8766e-17
-3.50084e-18
-4.77433e-19
1.23784e-20
3.88456e-20
1.07185e-07
-2.9533e-07
1.25489e-06
-3.5222e-06
3.8353e-06
2.33532e-05
-0.000126792
0.000254042
0.000322562
-0.00227795
0.00078214
0.0110053
0.00181583
-0.0438285
-0.0726503
0.0037675
0.184479
0.290714
0.248728
0.109817
-0.0164835
-0.0541176
-0.0288717
-0.000871181
0.00837608
0.00578649
0.00202057
0.000177009
-3.5642e-05
-1.38681e-05
-3.87827e-07
6.81271e-08
-1.04163e-07
-5.15589e-08
-2.98224e-09
1.94125e-09
6.06654e-10
-1.67883e-12
-1.05881e-11
-1.29958e-12
1.42087e-13
3.65829e-14
-1.63372e-15
-5.55546e-16
-9.81723e-17
-1.58676e-17
-2.37057e-18
-3.02548e-19
-7.72579e-21
1.63439e-20
2.06364e-08
-5.30686e-07
2.13787e-06
-8.1156e-06
2.08739e-05
-8.33627e-06
-0.000164615
0.000581703
-0.000318708
-0.00295911
0.00365221
0.0132281
-0.00263306
-0.0492566
-0.0674121
0.00500713
0.112431
0.138302
0.0745566
-0.0209854
-0.0675534
-0.0469863
-0.0102926
0.0106624
0.0101555
0.00492913
0.000950093
-6.45354e-05
-1.7061e-05
4.22942e-06
1.82364e-06
-1.72237e-07
-2.27122e-07
-5.37583e-08
3.80682e-09
2.31029e-09
2.33075e-10
-4.79868e-11
-1.32186e-11
2.38637e-13
1.30459e-13
-7.1281e-15
-5.47037e-15
-6.66236e-16
-5.4704e-17
-4.32081e-18
-3.85242e-19
-1.55644e-19
-7.16733e-20
-2.09154e-20
-1.18901e-06
6.36049e-08
1.42437e-07
-1.0484e-05
4.72571e-05
-0.000113563
-1.96374e-05
0.000874311
-0.00143672
-0.00308996
0.00658081
0.0143856
-0.00470886
-0.048265
-0.0545117
-0.00817433
0.0350914
0.0207422
-0.0336414
-0.0742751
-0.0627162
-0.0228789
0.0082345
0.0138236
0.00837847
0.00238197
5.94332e-05
-3.94965e-05
2.44847e-06
9.10864e-06
1.75105e-06
-4.77033e-07
-2.44257e-07
-1.97122e-08
5.99178e-09
1.73266e-09
-8.65565e-11
-4.63076e-11
-2.36929e-12
1.22994e-12
1.42763e-13
-3.96378e-14
-7.0004e-15
-5.74994e-17
3.69177e-17
9.02596e-18
8.35596e-19
-3.11724e-19
-2.112e-19
-7.37085e-20
-3.57676e-06
3.02655e-06
-9.26289e-06
5.89233e-06
6.17918e-05
-0.000262926
0.000322128
0.000929303
-0.0026228
-0.00293217
0.00826805
0.0146663
-0.00424613
-0.0347645
-0.0366682
-0.0191347
-0.0184083
-0.0409655
-0.0677409
-0.0656902
-0.0319098
0.00272901
0.0156357
0.0111535
0.00390826
0.000272041
-0.000177216
1.03691e-07
3.53696e-05
1.04762e-05
-7.34533e-07
-7.21667e-07
-1.59818e-07
1.3695e-08
6.19586e-09
-6.10716e-11
-2.44115e-10
-4.71011e-11
6.16128e-12
1.54611e-12
-1.54778e-13
-5.23374e-14
-9.16043e-16
5.59208e-16
1.02998e-16
1.25074e-17
-2.75633e-19
-9.03487e-19
-4.15906e-19
-1.34369e-19
-9.01373e-07
9.12137e-06
-2.27504e-05
5.21036e-05
5.65957e-06
-0.000368611
0.000758805
0.000812823
-0.00349214
-0.00287755
0.00831869
0.01382
0.00133323
-0.0148488
-0.0177381
-0.0197714
-0.0306837
-0.047583
-0.0514559
-0.0297522
-0.000681406
0.015093
0.0119401
0.0046114
0.000123222
-0.000510096
-1.89376e-05
8.82119e-05
3.74552e-05
2.39366e-06
-2.00738e-06
-7.3604e-07
-7.84731e-10
2.04658e-08
3.30422e-09
-9.18123e-10
-2.42797e-10
2.2552e-11
8.59604e-12
1.04836e-13
-2.73056e-13
-3.59708e-14
5.87639e-15
9.03499e-16
7.44027e-17
-1.74162e-19
-3.74616e-18
-1.74136e-18
-6.22503e-19
-1.88771e-19
2.12173e-05
1.60647e-05
-2.90097e-05
0.000120237
-0.000129797
-0.000384441
0.00118737
0.000647708
-0.00399115
-0.00317109
0.00646955
0.0124409
0.00913068
0.00392736
-0.000973557
-0.00933419
-0.0195273
-0.0241278
-0.0148913
0.00238495
0.0137494
0.0111673
0.0033801
-0.0013328
-0.00139399
-0.000224505
0.00017723
0.00011355
2.36418e-05
-3.80897e-06
-2.09226e-06
-2.052e-07
7.12624e-08
1.65638e-08
-3.46212e-09
-1.29779e-09
-1.77498e-11
3.84883e-11
6.10006e-12
-1.58032e-12
-3.10622e-13
3.2962e-14
8.23042e-15
3.18888e-16
-4.01648e-17
-2.15423e-17
-7.39483e-18
-2.35181e-18
-7.47624e-19
-2.24976e-19
4.958e-05
-8.27056e-07
-1.59891e-05
0.000174638
-0.000315109
-0.000320626
0.00155488
0.000489397
-0.00416833
-0.00373259
0.00386952
0.011507
0.0147778
0.0140786
0.00931853
0.00360891
-0.000153402
0.0022337
0.00914584
0.0133216
0.00920498
0.00046377
-0.00415147
-0.00319385
-0.000868659
0.000269739
0.000253495
7.78523e-05
-5.34983e-06
-4.87378e-06
-9.61264e-07
1.77548e-07
5.52386e-08
-5.88635e-09
-3.89056e-09
-4.24545e-10
1.68378e-10
3.35059e-11
-6.96748e-12
-1.98665e-12
7.89302e-14
4.47471e-14
3.99219e-15
-6.13401e-16
-1.49624e-16
-3.35998e-17
-8.17626e-18
-2.32911e-18
-7.56672e-19
-2.43878e-19
3.22876e-07
-8.14432e-05
4.09519e-06
0.000177514
-0.000488855
-0.000170719
0.00173438
0.000200145
-0.00419744
-0.00398917
0.00249208
0.0107626
0.0153982
0.014361
0.0105519
0.00827011
0.00938706
0.0121014
0.0123773
0.0069368
-0.00216843
-0.00679924
-0.00541264
-0.00190238
0.0002556
0.000460476
0.000177219
1.75371e-06
-1.33445e-05
-3.58555e-06
5.36903e-07
2.42913e-07
1.59137e-08
-1.27082e-08
-2.70202e-09
6.99213e-10
1.80609e-10
-1.98795e-11
-9.14959e-12
-4.5979e-13
3.07979e-13
4.91309e-14
-6.59659e-15
-1.19918e-15
-1.42137e-16
-2.25205e-17
-5.09095e-18
-1.77736e-18
-7.14242e-19
-2.61763e-19
-0.000120593
-0.000180659
6.64339e-05
0.000148899
-0.000580222
5.13858e-05
0.00150112
-0.000509562
-0.00375756
-0.00260961
0.00333576
0.00942551
0.0105044
0.00722145
0.00456771
0.00517444
0.00747632
0.00819631
0.00434922
-0.00301745
-0.00769889
-0.00657968
-0.00256127
0.000270437
0.000709603
0.000287162
-7.97052e-07
-3.49357e-05
-9.09228e-06
1.57174e-06
8.5663e-07
1.13153e-07
-3.61531e-08
-7.4954e-09
2.54855e-09
9.23562e-10
2.18067e-11
-3.02061e-11
-4.95165e-12
1.69658e-12
3.39608e-13
-3.18486e-14
-8.59312e-15
-5.06851e-16
-1.6e-18
3.80957e-18
-9.82069e-19
-1.37927e-18
-7.50209e-19
-2.97549e-19
-0.000132388
-0.000115973
0.000253135
0.000172523
-0.000524092
0.000140691
0.000550489
-0.0013076
-0.00165236
0.00159525
0.00571722
0.00644724
0.00298027
-0.00115129
-0.0024622
-0.000872604
0.00150899
0.00138173
-0.00187973
-0.00531418
-0.00492302
-0.00191568
0.000551727
0.000921203
0.000326518
-5.04757e-05
-7.99749e-05
-2.16226e-05
2.92256e-06
2.44095e-06
4.77837e-07
-9.85917e-08
-2.91951e-08
3.4979e-09
2.41675e-09
2.66666e-10
-1.04036e-10
-1.22581e-11
8.24357e-12
2.07814e-12
-8.42336e-14
-4.34996e-14
-4.03174e-15
6.63603e-16
1.39845e-16
1.95096e-17
-5.46126e-19
-1.83835e-18
-9.38426e-19
-3.50802e-19
0.000202797
0.000267822
0.000559176
0.000194824
-0.000515025
-0.000709887
-0.000898062
-0.000380435
0.00269695
0.0063423
0.0065836
0.00263938
-0.00229009
-0.00486877
-0.00484929
-0.00335462
-0.00131569
-0.000662622
-0.0013833
-0.00109132
0.000317547
0.00133762
0.00106223
0.00021354
-0.000209775
-0.000174721
-4.83973e-05
6.80091e-06
7.01416e-06
1.52713e-06
-3.44699e-07
-1.37283e-07
-8.4677e-09
5.94226e-09
1.04137e-09
-4.53151e-10
-1.00839e-10
1.78594e-11
7.33675e-12
1.20572e-13
-2.68763e-13
-4.29722e-14
7.43526e-15
1.33945e-15
1.24038e-16
3.34853e-18
-5.74865e-18
-3.10408e-18
-1.18816e-18
-3.90547e-19
0.000676916
0.000556423
0.000357536
-0.000753466
-0.00178952
-0.00188923
-0.000725601
0.00305136
0.00736085
0.007823
0.00417028
-0.000575883
-0.00288365
-0.00311857
-0.00321335
-0.00272321
-0.00106184
0.000721655
0.00193926
0.0025488
0.00229974
0.00118685
-4.40819e-05
-0.000473786
-0.000321481
-7.96445e-05
2.10078e-05
1.68561e-05
3.48943e-06
-9.86177e-07
-4.44901e-07
-4.87574e-08
1.67473e-08
2.10766e-09
-1.65078e-09
-4.8369e-10
2.24942e-11
1.61541e-11
2.29523e-13
-1.39413e-12
-2.21732e-13
4.10112e-14
8.88853e-15
2.97567e-16
-6.12611e-17
-3.37585e-17
-1.26902e-17
-4.1586e-18
-1.2735e-18
-3.71943e-19
-0.00224323
-0.0023718
-0.00257509
-0.00287282
-0.00245549
-0.000171477
0.00368033
0.00753469
0.0082183
0.00469642
0.000264514
-0.00129149
-0.000254428
-0.00037332
-0.00187898
-0.00262109
-0.00128997
0.00108722
0.00262197
0.00242064
0.00106218
-0.000271149
-0.000699002
-0.000442132
-8.72365e-05
5.00753e-05
3.32524e-05
6.6874e-06
-2.15382e-06
-1.02656e-06
-1.19386e-07
5.96548e-08
1.15839e-08
-2.84788e-09
-1.14876e-09
-1.5003e-11
4.42515e-11
1.15924e-12
-5.59889e-12
-1.09938e-12
1.51854e-13
4.06471e-14
2.89655e-16
-8.98824e-16
-2.28855e-16
-5.68397e-17
-1.4747e-17
-3.85863e-18
-1.02117e-18
-2.73977e-19
-0.00358922
-0.00305679
-0.00201581
4.57522e-05
0.00301779
0.00600128
0.00805117
0.0077484
0.00392128
-0.000500174
-0.0018433
6.0258e-05
0.00138619
-0.000434396
-0.00427232
-0.00577678
-0.00407041
-0.000907688
0.000758011
0.000530275
-0.000273813
-0.000613755
-0.000354895
-1.75135e-05
0.000100032
5.48003e-05
7.69611e-06
-5.71886e-06
-2.50888e-06
-1.93349e-07
2.24208e-07
6.40566e-08
-1.45308e-09
-2.20801e-09
-7.79671e-11
2.24641e-10
2.95413e-11
-1.1391e-11
-2.39158e-12
6.12502e-13
1.71268e-13
1.52264e-15
-6.68835e-15
-1.39816e-15
-2.10155e-16
-4.25876e-17
-9.26383e-18
-2.06938e-18
-4.88078e-19
-1.2478e-19
0.00569894
0.00624533
0.00709629
0.00798064
0.00830155
0.00762198
0.00517034
0.00142386
-0.00162777
-0.00236514
-0.000770902
0.000611219
-0.00120724
-0.00640178
-0.0108579
-0.0107994
-0.00743164
-0.00317587
-0.000690971
-0.000249456
-0.000232504
-2.22306e-05
0.000155912
0.000163697
6.83786e-05
-1.00375e-06
-1.44211e-05
-5.56709e-06
-1.39344e-07
5.65949e-07
1.59015e-07
-6.81452e-09
-6.42746e-09
1.89757e-10
1.0661e-09
2.43758e-10
-6.07971e-12
-2.27502e-13
2.15971e-12
6.6251e-13
1.32846e-14
-2.9449e-14
-6.43546e-15
-4.14475e-16
-4.61475e-17
-6.50394e-18
-4.49795e-19
1.26125e-19
6.12686e-20
1.348e-20
0.00491537
0.0050381
0.00487342
0.00411164
0.00280572
0.000831664
-0.00126644
-0.00241043
-0.00173404
0.000546546
0.000451502
-0.00476602
-0.0126192
-0.0185478
-0.0195691
-0.015682
-0.0093159
-0.00371989
-0.000694691
0.000157216
0.00032124
0.000310728
0.000193274
4.88107e-05
-2.47953e-05
-2.59329e-05
-8.38721e-06
6.3666e-07
1.23256e-06
2.98342e-07
-4.05035e-08
-2.42238e-08
-1.53741e-09
2.44876e-09
7.16323e-10
-2.15731e-11
-3.90618e-12
4.14086e-12
1.97817e-12
5.48052e-14
-1.02652e-13
-1.77137e-14
1.14177e-15
2.77405e-16
6.90071e-17
1.89972e-17
5.33887e-18
1.45753e-18
3.74096e-19
9.00206e-20
0.000856832
0.000718032
0.000319536
-0.000344627
-0.000916809
-0.00151625
-0.00167615
-0.000633221
0.00261804
0.0027665
-0.00625059
-0.0220648
-0.0346173
-0.0370334
-0.0304891
-0.0196882
-0.00973603
-0.00314508
-0.000168363
0.000413434
0.000331978
0.000149552
-5.51179e-06
-5.84427e-05
-3.61567e-05
-7.68081e-06
3.33093e-06
2.40328e-06
5.14912e-07
-1.25491e-07
-6.42928e-08
-7.62597e-09
4.17483e-09
8.8339e-10
-2.88683e-10
-1.02415e-10
-8.38576e-12
1.89815e-12
1.40683e-14
-3.32395e-13
-6.48686e-14
4.08394e-15
1.19591e-15
3.08972e-16
8.11465e-17
2.16322e-17
5.83009e-18
1.55225e-18
3.97579e-19
9.82568e-20
-0.000565797
-0.000639308
-0.000814149
-0.000823967
-0.000678306
-0.000376785
-0.000550522
0.00164158
0.00483295
-0.00382432
-0.0286438
-0.0561887
-0.0684153
-0.0611545
-0.0420282
-0.0225805
-0.00924081
-0.00228904
5.67869e-05
0.000145148
4.87679e-05
-5.17476e-05
-7.1147e-05
-3.42532e-05
-1.071e-06
7.93433e-06
3.86742e-06
4.12081e-07
-4.02245e-07
-1.54785e-07
-1.06648e-08
1.01942e-08
1.73438e-09
-1.00635e-09
-4.72453e-10
-7.78347e-11
5.1342e-12
-2.33176e-13
-7.28821e-13
-1.58697e-13
8.96591e-15
1.911e-15
5.4558e-16
1.39336e-16
3.72003e-17
1.08879e-17
3.27925e-18
9.55999e-19
2.61735e-19
6.84384e-20
-0.000121195
-8.09264e-05
-0.000115094
0.000110106
0.000269582
0.000857514
-0.000435033
0.00305164
-0.00485088
-0.0323548
-0.0756773
-0.109268
-0.1095
-0.0844401
-0.0499926
-0.0231148
-0.00776613
-0.00134092
5.92385e-06
-1.86718e-05
-5.18893e-05
-4.24096e-05
-7.67331e-06
1.25557e-05
1.1797e-05
4.10482e-06
-3.31826e-07
-8.57333e-07
-2.67093e-07
1.20228e-08
2.59356e-08
4.08001e-09
-1.86926e-09
-8.62874e-10
-8.12872e-11
4.56192e-11
8.86949e-12
-1.14774e-13
5.98177e-14
5.97418e-14
8.08485e-15
3.16745e-16
-3.6622e-17
-1.29896e-17
3.8495e-19
1.88611e-18
1.02651e-18
3.90487e-19
1.23059e-19
3.52104e-20
6.99108e-05
0.000169274
-0.000131487
0.00093806
0.000415271
0.00212904
-0.0103509
-0.035899
-0.0628895
-0.103331
-0.150246
-0.169841
-0.147719
-0.0982153
-0.0510362
-0.0198331
-0.00528596
-0.000405581
-3.85947e-06
-6.54567e-06
3.34564e-06
1.81e-05
2.13187e-05
1.21016e-05
1.89993e-06
-1.82188e-06
-1.21e-06
-2.6508e-07
7.59836e-08
5.09098e-08
1.11021e-08
-1.27224e-09
-2.00367e-10
2.39639e-10
1.65475e-10
4.12232e-11
3.36832e-12
2.65819e-13
1.29203e-13
2.46142e-14
-1.02637e-15
-3.53581e-16
-1.08544e-16
-2.75706e-17
-5.27464e-18
-4.66296e-19
1.7186e-19
1.18457e-19
4.54393e-20
1.44419e-20
-4.35208e-05
0.000252688
-0.00150326
0.00280349
-0.0109634
-0.0827672
-0.164046
-0.204641
-0.211924
-0.2236
-0.236881
-0.220901
-0.165852
-0.0983608
-0.0438374
-0.0143843
-0.00290625
5.39414e-06
3.53313e-05
3.13462e-05
2.59153e-05
1.65236e-05
4.89843e-06
-1.92855e-06
-2.96502e-06
-1.2918e-06
-5.09261e-08
2.04857e-07
7.99825e-08
4.10748e-09
-7.71276e-09
-2.17012e-09
-1.25089e-11
1.42588e-10
3.89616e-11
-1.79006e-12
-1.66009e-12
-4.00151e-13
-6.94071e-14
-2.33645e-14
-3.03381e-15
-2.28969e-16
-4.77068e-17
-1.14122e-17
-2.38351e-18
-3.2393e-19
2.15767e-20
3.44803e-20
1.5125e-20
5.12808e-21
-0.00896879
-0.0405669
-0.097101
-0.181033
-0.320751
-0.50344
-0.604224
-0.560412
-0.448469
-0.361421
-0.305506
-0.240228
-0.157545
-0.0811497
-0.031798
-0.00907065
-0.00136665
1.19498e-05
1.25105e-05
1.11022e-05
4.937e-06
-1.34347e-06
-3.81626e-06
-2.55492e-06