/*--------------------------------*- C++ -*----------------------------------*\
| =========                 |                                                 |
| \\      /  F ield         | OpenFOAM: The Open Source CFD Toolbox           |
|  \\    /   O peration     | Version:  v2006                                 |
|   \\  /    A nd           | Website:  www.openfoam.com                      |
|    \\/     M anipulation  |                                                 |
\*---------------------------------------------------------------------------*/
FoamFile
{
    version     2.0;
    format      ascii;
    class       surfaceScalarField;
    location    "13.4";
    object      phi;
}
// * * * * * * * * * * * * * * * * * * * * * * * * * * * * * * * * * * * * * //

dimensions      [0 3 -1 0 0 0 0];
oriented        oriented;


internalField   nonuniform List<scalar> 
99450
(
-5.89285e-06
5.89285e-06
1.8228e-06
-7.71564e-06
8.5429e-06
-6.7201e-06
1.23932e-05
-3.85032e-06
1.45836e-05
-2.19033e-06
1.63615e-05
-1.77798e-06
1.80066e-05
-1.64507e-06
1.95939e-05
-1.58724e-06
2.11001e-05
-1.50622e-06
2.25144e-05
-1.41433e-06
2.38516e-05
-1.33719e-06
2.51366e-05
-1.28496e-06
2.63947e-05
-1.25815e-06
2.76589e-05
-1.26422e-06
2.89586e-05
-1.29966e-06
3.03214e-05
-1.36285e-06
3.17847e-05
-1.46326e-06
3.33692e-05
-1.58446e-06
3.51071e-05
-1.73798e-06
3.70286e-05
-1.92146e-06
3.91515e-05
-2.12294e-06
4.15014e-05
-2.34989e-06
4.41144e-05
-2.61301e-06
4.69957e-05
-2.8813e-06
5.01533e-05
-3.15759e-06
5.36006e-05
-3.44727e-06
5.73417e-05
-3.74106e-06
6.1371e-05
-4.02933e-06
6.56802e-05
-4.30921e-06
7.0248e-05
-4.56781e-06
7.5062e-05
-4.81401e-06
8.00532e-05
-4.99117e-06
8.51635e-05
-5.11035e-06
9.03257e-05
-5.16219e-06
9.54883e-05
-5.16254e-06
0.000100621
-5.1324e-06
0.00010568
-5.05904e-06
0.00011067
-4.99023e-06
0.000115617
-4.94685e-06
0.000120445
-4.82848e-06
0.000125184
-4.73864e-06
0.000129864
-4.68044e-06
0.000134689
-4.82461e-06
0.000139816
-5.12691e-06
0.000145411
-5.59492e-06
0.000151612
-6.20142e-06
0.000158567
-6.95435e-06
0.000166486
-7.9193e-06
0.000175624
-9.13829e-06
0.000186186
-1.05617e-05
0.000198295
-1.21096e-05
0.000211962
-1.36665e-05
0.000227097
-1.51355e-05
0.000243562
-1.64644e-05
0.000261208
-1.76465e-05
0.000279907
-1.86983e-05
0.00029957
-1.96633e-05
0.000320123
-2.05527e-05
0.000341494
-2.13719e-05
0.000363631
-2.2137e-05
0.000386473
-2.28416e-05
0.000409954
-2.34812e-05
0.000434012
-2.40581e-05
0.000458584
-2.45716e-05
0.000483609
-2.50252e-05
0.000509028
-2.54188e-05
0.000534778
-2.57498e-05
0.0005608
-2.60221e-05
0.000587033
-2.62334e-05
0.000613417
-2.63839e-05
0.000639895
-2.64774e-05
0.000666403
-2.65088e-05
0.000692888
-2.64849e-05
0.000719287
-2.63992e-05
0.000745549
-2.62617e-05
0.000771614
-2.60649e-05
0.00079742
-2.58064e-05
0.000822908
-2.54878e-05
0.000848014
-2.51059e-05
0.000872671
-2.46574e-05
0.000896804
-2.41323e-05
0.000920337
-2.35336e-05
0.000943191
-2.28541e-05
0.000965282
-2.20904e-05
0.000986527
-2.12455e-05
0.00100684
-2.03107e-05
0.00102612
-1.92848e-05
0.00104428
-1.81595e-05
0.00106121
-1.69317e-05
0.0010768
-1.55895e-05
0.00109093
-1.41231e-05
0.00110344
-1.25169e-05
0.00111419
-1.07475e-05
0.00112298
-8.79139e-06
0.00112959
-6.60924e-06
0.00113373
-4.13966e-06
0.00113508
-1.35118e-06
0.00113331
1.77452e-06
0.0011283
5.00703e-06
0.00112024
8.05982e-06
0.00110951
1.07359e-05
0.0010966
1.2901e-05
0.00108208
1.45227e-05
0.00106641
1.56742e-05
0.00104995
1.64555e-05
0.00103299
1.69581e-05
0.00101575
1.72393e-05
0.000998458
1.72966e-05
0.000981382
1.70756e-05
0.000964853
1.65296e-05
0.00094914
1.57126e-05
0.000934352
1.47879e-05
0.000920357
1.39951e-05
0.000906845
1.35115e-05
0.000893457
1.33881e-05
0.000879848
1.36092e-05
0.000865742
1.41062e-05
0.000850953
1.47887e-05
0.000835366
1.5587e-05
0.000818919
1.64477e-05
0.000801578
1.73408e-05
0.000783322
1.82558e-05
0.000764134
1.91875e-05
0.00074401
2.01246e-05
0.000722952
2.10579e-05
0.000700979
2.19729e-05
0.000678116
2.28634e-05
0.000654392
2.3724e-05
0.00062984
2.4552e-05
0.000604494
2.53456e-05
0.000578395
2.60993e-05
0.000551579
2.68154e-05
0.000524088
2.74909e-05
0.000495965
2.81238e-05
0.000467255
2.87093e-05
0.000438011
2.92442e-05
0.000408283
2.97285e-05
0.00037812
3.01623e-05
0.000347583
3.05371e-05
0.000316731
3.08524e-05
0.00028562
3.1111e-05
0.000254305
3.13151e-05
0.000222841
3.14641e-05
0.000191338
3.15029e-05
0.000159887
3.14512e-05
0.000128626
3.12603e-05
9.74998e-05
3.11264e-05
6.68051e-05
3.06948e-05
3.5919e-05
3.08861e-05
3.5919e-05
-1.06307e-05
1.65236e-05
-1.07689e-05
-7.57747e-06
-1.27124e-05
-4.77662e-06
-1.80029e-05
1.44023e-06
-2.46409e-05
4.4476e-06
-3.15392e-05
5.12038e-06
-3.83552e-05
5.17091e-06
-4.51859e-05
5.24344e-06
-5.20936e-05
5.40144e-06
-5.90775e-05
5.56962e-06
-6.60931e-05
5.67842e-06
-7.3097e-05
5.71888e-06
-8.00411e-05
5.68597e-06
-8.68741e-05
5.56879e-06
-9.35464e-05
5.37264e-06
-0.000100001
5.09204e-06
-0.000106178
4.71366e-06
-0.000112012
4.24984e-06
-0.000117447
3.69643e-06
-0.000122443
3.07432e-06
-0.000126923
2.35788e-06
-0.000130818
1.54453e-06
-0.000134109
6.77627e-07
-0.000136696
-2.9408e-07
-0.00013853
-1.32304e-06
-0.000139586
-2.39178e-06
-0.000139784
-3.5433e-06
-0.000139076
-4.7367e-06
-0.000137411
-5.97415e-06
-0.000134724
-7.25553e-06
-0.000130993
-8.54426e-06
-0.000126113
-9.87155e-06
-0.000120041
-1.1182e-05
-0.000112724
-1.24796e-05
-0.000104175
-1.37118e-05
-9.4406e-05
-1.4901e-05
-8.34126e-05
-1.60525e-05
-7.12187e-05
-1.71841e-05
-5.78769e-05
-1.82886e-05
-4.33177e-05
-1.93877e-05
-2.76122e-05
-2.04442e-05
-1.07926e-05
-2.15001e-05
6.93205e-06
-2.25492e-05
2.54279e-05
-2.36227e-05
4.45542e-05
-2.47212e-05
6.4194e-05
-2.58412e-05
8.42269e-05
-2.69873e-05
0.000104501
-2.81935e-05
0.000124895
-2.95318e-05
0.000145365
-3.10321e-05
0.000165892
-3.26366e-05
0.000186523
-3.42975e-05
0.000207341
-3.59531e-05
0.000228425
-3.75481e-05
0.000249828
-3.90498e-05
0.000271575
-4.04451e-05
0.000293653
-4.17414e-05
0.000316034
-4.29337e-05
0.0003387
-4.40379e-05
0.000361615
-4.50525e-05
0.000384747
-4.59736e-05
0.000408082
-4.68158e-05
0.000431585
-4.75615e-05
0.000455231
-4.82169e-05
0.000478998
-4.8793e-05
0.000502852
-4.92728e-05
0.000526776
-4.96738e-05
0.000550731
-4.9977e-05
0.0005747
-5.02022e-05
0.000598645
-5.03289e-05
0.000622545
-5.03772e-05
0.000646364
-5.0328e-05
0.000670076
-5.0197e-05
0.000693659
-4.99819e-05
0.000717067
-4.96699e-05
0.000740282
-4.92801e-05
0.00076328
-4.88041e-05
0.000786028
-4.82352e-05
0.000808499
-4.7577e-05
0.000830665
-4.68239e-05
0.000852502
-4.59687e-05
0.000873974
-4.50057e-05
0.000895053
-4.39336e-05
0.000915696
-4.27326e-05
0.000935864
-4.14145e-05
0.00095551
-3.99563e-05
0.000974589
-3.83637e-05
0.000993059
-3.66301e-05
0.00101087
-3.47392e-05
0.00102797
-3.26921e-05
0.00104431
-3.04658e-05
0.00105986
-2.80629e-05
0.00107457
-2.54636e-05
0.00108845
-2.26667e-05
0.0011015
-1.96567e-05
0.00111377
-1.64142e-05
0.00112535
-1.2934e-05
0.00113632
-9.196e-06
0.0011466
-5.26979e-06
0.001156
-1.33881e-06
0.00116455
2.18311e-06
0.00117219
5.26458e-06
0.00117899
7.71967e-06
0.00118513
9.53578e-06
0.00119077
1.08216e-05
0.00119602
1.17042e-05
0.00120094
1.23147e-05
0.00120549
1.27508e-05
0.00120948
1.30811e-05
0.00121264
1.33714e-05
0.00121463
1.37226e-05
0.00121516
1.42614e-05
0.00121403
1.51186e-05
0.00121117
1.6381e-05
0.0012065
1.80532e-05
0.00120003
2.00824e-05
0.00119175
2.23873e-05
0.00118166
2.48785e-05
0.00116975
2.74891e-05
0.00115602
3.01822e-05
0.00114042
3.29368e-05
0.00112294
3.57406e-05
0.00110355
3.85748e-05
0.00108227
4.14112e-05
0.0010591
4.42243e-05
0.00103408
4.69912e-05
0.00100724
4.96992e-05
0.000978618
5.23504e-05
0.000948229
5.49415e-05
0.000916104
5.74698e-05
0.000882265
5.99392e-05
0.000846742
6.23379e-05
0.000809573
6.46602e-05
0.00077081
6.68866e-05
0.000730507
6.90128e-05
0.000688719
7.10314e-05
0.000645517
7.29305e-05
0.000600982
7.46972e-05
0.000555201
7.63183e-05
0.000508264
7.77893e-05
0.000460269
7.91066e-05
0.000411312
8.02716e-05
0.000361496
8.12806e-05
0.000310882
8.21167e-05
0.000259478
8.28553e-05
0.000207237
8.35008e-05
0.000154336
8.40276e-05
0.000102136
8.28949e-05
5.27618e-05
8.02603e-05
8.86807e-05
-9.96626e-06
2.64898e-05
-7.14451e-06
-1.03992e-05
-5.05676e-06
-6.86438e-06
-6.99533e-06
3.37881e-06
-1.13102e-05
8.76244e-06
-1.63089e-05
1.01191e-05
-2.12053e-05
1.00674e-05
-2.60113e-05
1.00495e-05
-3.0884e-05
1.02741e-05
-3.58937e-05
1.05793e-05
-4.10449e-05
1.08297e-05
-4.62728e-05
1.09468e-05
-5.15225e-05
1.09356e-05
-5.67695e-05
1.08159e-05
-6.19419e-05
1.0545e-05
-6.69786e-05
1.01288e-05
-7.18589e-05
9.59398e-06
-7.64944e-05
8.88531e-06
-8.08454e-05
8.0474e-06
-8.484e-05
7.06893e-06
-8.84365e-05
5.95441e-06
-9.1587e-05
4.69501e-06
-9.42309e-05
3.32159e-06
-9.63481e-05
1.82303e-06
-9.78612e-05
1.90075e-07
-9.87401e-05
-1.51285e-06
-9.89788e-05
-3.30461e-06
-9.84885e-05
-5.22699e-06
-9.72716e-05
-7.19107e-06
-9.52984e-05
-9.22874e-06
-9.25314e-05
-1.13112e-05
-8.89812e-05
-1.34218e-05
-8.45977e-05
-1.55655e-05
-7.93424e-05
-1.77349e-05
-7.31889e-05
-1.98653e-05
-6.61438e-05
-2.19461e-05
-5.81702e-05
-2.4026e-05
-4.92836e-05
-2.60707e-05
-3.94655e-05
-2.81067e-05
-2.8664e-05
-3.01892e-05
-1.68211e-05
-3.2287e-05
-4.01808e-06
-3.43031e-05
9.70504e-06
-3.62724e-05
2.43622e-05
-3.82798e-05
3.99074e-05
-4.02665e-05
5.63109e-05
-4.22446e-05
7.35223e-05
-4.41987e-05
9.14659e-05
-4.61372e-05
0.000110019
-4.80848e-05
0.000129067
-5.00798e-05
0.000148543
-5.21126e-05
0.000168424
-5.41784e-05
0.00018871
-5.624e-05
0.000209417
-5.82544e-05
0.000230554
-6.0187e-05
0.000252126
-6.20174e-05
0.000274112
-6.37272e-05
0.000296505
-6.53265e-05
0.00031926
-6.67931e-05
0.000342356
-6.81488e-05
0.000365767
-6.93845e-05
0.000389457
-7.05053e-05
0.000413396
-7.15005e-05
0.000437555
-7.23763e-05
0.000461904
-7.31415e-05
0.000486403
-7.37725e-05
0.000511029
-7.42994e-05
0.000535749
-7.46968e-05
0.000560523
-7.49772e-05
0.000585328
-7.51332e-05
0.00061012
-7.5169e-05
0.000634876
-7.50846e-05
0.000659553
-7.4874e-05
0.000684117
-7.45458e-05
0.000708542
-7.40946e-05
0.000732782
-7.35197e-05
0.000756805
-7.28277e-05
0.00078058
-7.20105e-05
0.000804073
-7.10695e-05
0.00082725
-7.00004e-05
0.000850075
-6.87942e-05
0.000872518
-6.74488e-05
0.00089454
-6.59555e-05
0.000916113
-6.43055e-05
0.000937191
-6.24927e-05
0.000957747
-6.0512e-05
0.000977741
-5.83575e-05
0.000997135
-5.60243e-05
0.0010159
-5.34999e-05
0.001034
-5.07925e-05
0.00105141
-4.78823e-05
0.00106812
-4.47737e-05
0.00108411
-4.14507e-05
0.00109936
-3.79201e-05
0.00111389
-3.41837e-05
0.00112772
-3.02387e-05
0.00114089
-2.61076e-05
0.00115351
-2.18196e-05
0.0011657
-1.74612e-05
0.0011775
-1.31321e-05
0.00118869
-9.0087e-06
0.00119912
-5.16738e-06
0.00120853
-1.69074e-06
0.00121663
1.43898e-06
0.0012232
4.24527e-06
0.0012281
6.80446e-06
0.00123122
9.20159e-06
0.00123247
1.15016e-05
0.00123179
1.37587e-05
0.00122913
1.60308e-05
0.00122447
1.83839e-05
0.00121784
2.08896e-05
0.00120935
2.3609e-05
0.00119916
2.65755e-05
0.00118743
2.97822e-05
0.00117432
3.3187e-05
0.00115998
3.67308e-05
0.0011445
4.03596e-05
0.00112794
4.40418e-05
0.00111036
4.77674e-05
0.00109175
5.15426e-05
0.00107212
5.53746e-05
0.00105143
5.92658e-05
0.00102964
6.32037e-05
0.00100669
6.71661e-05
0.000982555
7.11297e-05
0.000957177
7.50775e-05
0.000930516
7.90118e-05
0.000902535
8.2922e-05
0.000873195
8.68101e-05
0.000842465
9.06687e-05
0.000810308
9.44951e-05
0.000776686
9.82826e-05
0.00074156
0.000102013
0.000704909
0.000105663
0.00066672
0.00010922
0.000626989
0.000112662
0.000585719
0.000115968
0.000542929
0.000119108
0.000498646
0.000122072
0.000452944
0.000124809
0.00040589
0.000127325
0.000357567
0.000129604
0.000308041
0.000131643
0.000257315
0.000133581
0.000205374
0.000135442
0.000152883
0.000136519
0.000101983
0.000133794
5.45505e-05
0.000127693
0.000143231
-8.95409e-06
3.54439e-05
-3.79698e-06
-1.55563e-05
1.0887e-06
-1.17501e-05
1.99153e-06
2.47598e-06
2.59064e-07
1.04949e-05
-2.47306e-06
1.28512e-05
-5.30242e-06
1.28967e-05
-8.11985e-06
1.28669e-05
-1.10499e-05
1.32042e-05
-1.41921e-05
1.37214e-05
-1.7549e-05
1.41866e-05
-2.11001e-05
1.44978e-05
-2.48083e-05
1.46438e-05
-2.86006e-05
1.46082e-05
-3.24479e-05
1.43923e-05
-3.62994e-05
1.39803e-05
-4.01016e-05
1.33961e-05
-4.38012e-05
1.2585e-05
-4.73583e-05
1.16045e-05
-5.07009e-05
1.04116e-05
-5.37644e-05
9.01783e-06
-5.65482e-05
7.4788e-06
-5.89273e-05
5.70071e-06
-6.08867e-05
3.78241e-06
-6.24062e-05
1.70965e-06
-6.33773e-05
-5.41729e-07
-6.37457e-05
-2.9363e-06
-6.3554e-05
-5.4186e-06
-6.27203e-05
-8.0248e-06
-6.12345e-05
-1.07146e-05
-5.90294e-05
-1.35163e-05
-5.60984e-05
-1.63528e-05
-5.2442e-05
-1.92218e-05
-4.80547e-05
-2.21223e-05
-4.28637e-05
-2.50563e-05
-3.68395e-05
-2.79703e-05
-2.99723e-05
-3.08932e-05
-2.22133e-05
-3.38298e-05
-1.35887e-05
-3.67313e-05
-4.1007e-06
-3.96773e-05
6.17088e-06
-4.25586e-05
1.73209e-05
-4.54531e-05
2.93629e-05
-4.83143e-05
4.22493e-05
-5.11662e-05
5.59819e-05
-5.39991e-05
7.05646e-05
-5.68274e-05
8.5993e-05
-5.96271e-05
0.000102261
-6.24048e-05
0.000119351
-6.51756e-05
0.00013719
-6.79185e-05
0.000155709
-7.06311e-05
0.000174842
-7.33123e-05
0.000194541
-7.59387e-05
0.00021477
-7.84838e-05
0.000235513
-8.09295e-05
0.000256755
-8.32593e-05
0.000278485
-8.54573e-05
0.000300681
-8.7523e-05
0.000323333
-8.94447e-05
0.000346399
-9.12148e-05
0.000369853
-9.28387e-05
0.000393662
-9.43136e-05
0.000417802
-9.56409e-05
0.000442237
-9.68108e-05
0.000466914
-9.78185e-05
0.000491818
-9.86772e-05
0.000516894
-9.93752e-05
0.000542112
-9.99147e-05
0.000567431
-0.000100297
0.000592815
-0.000100517
0.000618222
-0.000100576
0.000643608
-0.00010047
0.000668947
-0.000100213
0.000694177
-9.9776e-05
0.000719265
-9.91825e-05
0.00074417
-9.84251e-05
0.000768839
-9.74973e-05
0.000793234
-9.64048e-05
0.000817314
-9.51498e-05
0.000841021
-9.3707e-05
0.000864316
-9.20897e-05
0.000887158
-9.0291e-05
0.000909506
-8.83031e-05
0.000931319
-8.61185e-05
0.00095256
-8.37334e-05
0.000973189
-8.11418e-05
0.000993169
-7.83377e-05
0.00101246
-7.53185e-05
0.00103105
-7.2086e-05
0.00104889
-6.86307e-05
0.00106596
-6.49524e-05
0.00108224
-6.10518e-05
0.00109771
-5.6927e-05
0.00111238
-5.25891e-05
0.00112624
-4.80395e-05
0.00113929
-4.32958e-05
0.00115157
-3.83803e-05
0.00116308
-3.33368e-05
0.00117382
-2.81997e-05
0.00118375
-2.30563e-05
0.0011927
-1.79653e-05
0.00120054
-1.30047e-05
0.00120705
-8.19613e-06
0.00121205
-3.56556e-06
0.00121538
9.13176e-07
0.00121693
5.25491e-06
0.00121663
9.50623e-06
0.00121443
1.36966e-05
0.00121034
1.78562e-05
0.00120435
2.20141e-05
0.00119653
2.62029e-05
0.00118696
3.04599e-05
0.00117576
3.4816e-05
0.00116304
3.92902e-05
0.00114893
4.38883e-05
0.00113352
4.85995e-05
0.00111686
5.33981e-05
0.00109896
5.82542e-05
0.00107986
6.31432e-05
0.00105958
6.80481e-05
0.00103816
7.29619e-05
0.00101565
7.78885e-05
0.000992089
8.28224e-05
0.000967524
8.77686e-05
0.00094197
9.27194e-05
0.000915445
9.76548e-05
0.00088795
0.000102572
0.0008595
0.000107462
0.000830101
0.000112321
0.000799765
0.000117146
0.000768494
0.00012194
0.000736283
0.000126706
0.000703129
0.000131436
0.000669018
0.000136124
0.000633929
0.000140752
0.000597842
0.000145307
0.000560736
0.000149768
0.000522605
0.000154098
0.00048343
0.000158283
0.000443216
0.000162286
0.000401969
0.000166056
0.000359729
0.000169566
0.000316519
0.000172813
0.000272321
0.000175842
0.000227
0.000178903
0.000180608
0.000181834
0.000134556
0.00018257
9.12844e-05
0.000177066
5.07343e-05
0.000168243
0.000193965
-8.78532e-06
4.42293e-05
-2.92762e-06
-2.1414e-05
2.75944e-06
-1.74371e-05
4.65877e-06
5.76653e-07
3.71644e-06
1.14372e-05
1.70766e-06
1.486e-05
-5.78095e-07
1.51825e-05
-2.96709e-06
1.52559e-05
-5.56187e-06
1.5799e-05
-8.41107e-06
1.65706e-05
-1.15392e-05
1.73147e-05
-1.49416e-05
1.79002e-05
-1.85206e-05
1.82228e-05
-2.22702e-05
1.83579e-05
-2.61487e-05
1.82708e-05
-3.00896e-05
1.79211e-05
-3.40129e-05
1.73195e-05
-3.7928e-05
1.65001e-05
-4.17167e-05
1.53931e-05
-4.53531e-05
1.4048e-05
-4.87646e-05
1.24293e-05
-5.18587e-05
1.05728e-05
-5.46601e-05
8.50217e-06
-5.70558e-05
6.1781e-06
-5.89734e-05
3.62726e-06
-6.04241e-05
9.08942e-07
-6.13434e-05
-2.017e-06
-6.16544e-05
-5.10759e-06
-6.13256e-05
-8.3536e-06
-6.03036e-05
-1.17365e-05
-5.86049e-05
-1.5215e-05
-5.61603e-05
-1.87974e-05
-5.29032e-05
-2.2479e-05
-4.88506e-05
-2.61749e-05
-4.39686e-05
-2.99383e-05
-3.81839e-05
-3.3755e-05
-3.14973e-05
-3.75798e-05
-2.39169e-05
-4.14101e-05
-1.53899e-05
-4.52583e-05
-5.97835e-06
-4.90888e-05
4.37049e-06
-5.29074e-05
1.56755e-05
-5.67581e-05
2.79082e-05
-6.0547e-05
4.10371e-05
-6.42951e-05
5.50443e-05
-6.80063e-05
6.98885e-05
-7.16716e-05
8.55506e-05
-7.52892e-05
0.000102013
-7.88668e-05
0.000119239
-8.24017e-05
0.00013718
-8.58601e-05
0.000155814
-8.92645e-05
0.000175104
-9.26024e-05
0.000195011
-9.58454e-05
0.000215503
-9.89762e-05
0.000236552
-0.000101978
0.000258131
-0.000104838
0.000280214
-0.00010754
0.000302778
-0.000110087
0.000325795
-0.000112462
0.000349239
-0.000114659
0.000373078
-0.000116678
0.000397277
-0.000118513
0.000421799
-0.000120163
0.000446614
-0.000121625
0.000471685
-0.00012289
0.000496974
-0.000123966
0.000522439
-0.00012484
0.000548045
-0.000125521
0.000573748
-0.000126
0.000599504
-0.000126273
0.000625276
-0.000126349
0.000651026
-0.00012622
0.000676702
-0.000125888
0.000702265
-0.000125339
0.00072767
-0.000124587
0.00075287
-0.000123625
0.000777823
-0.00012245
0.000802479
-0.000121061
0.000826791
-0.000119462
0.000850714
-0.00011763
0.000874206
-0.000115582
0.000897218
-0.000113304
0.000919709
-0.000110794
0.000941637
-0.000108047
0.000962966
-0.000105062
0.000983655
-0.000101831
0.00100367
-9.83544e-05
0.00102299
-9.46335e-05
0.00104156
-9.06564e-05
0.00105936
-8.64307e-05
0.00107636
-8.19566e-05
0.00109254
-7.7235e-05
0.00110789
-7.22726e-05
0.00112238
-6.70741e-05
0.00113599
-6.16545e-05
0.00114872
-5.60247e-05
0.00116055
-5.02113e-05
0.00117146
-4.42445e-05
0.00118142
-3.81629e-05
0.00119038
-3.20137e-05
0.00119825
-2.58401e-05
0.00120494
-1.96911e-05
0.00121034
-1.35919e-05
0.00121434
-7.5739e-06
0.00121689
-1.63042e-06
0.00121785
4.29439e-06
0.00121721
1.01452e-05
0.00121494
1.59669e-05
0.00121101
2.1784e-05
0.0012054
2.76208e-05
0.00119811
3.35008e-05
0.00118912
3.94473e-05
0.00117846
4.54739e-05
0.00116616
5.15905e-05
0.00115226
5.77937e-05
0.00113678
6.40715e-05
0.00111978
7.03994e-05
0.00110128
7.67598e-05
0.0010813
8.31205e-05
0.00105988
8.94681e-05
0.00103705
9.57874e-05
0.00101287
0.00010207
0.000987391
0.000108305
0.000960678
0.000114482
0.000932796
0.000120601
0.000903799
0.000126652
0.000873748
0.000132623
0.000842702
0.000138509
0.000810715
0.000144308
0.000777842
0.000150018
0.000744139
0.000155642
0.000709663
0.000161183
0.00067446
0.000166639
0.000638576
0.000172008
0.00060205
0.000177278
0.000564916
0.000182441
0.000527202
0.000187482
0.000488925
0.000192375
0.000450106
0.000197102
0.000410765
0.000201626
0.000370915
0.000205907
0.000330584
0.000209896
0.00028981
0.000213587
0.000248477
0.000217174
0.000206464
0.000220916
0.000164025
0.000224273
0.000122655
0.00022394
8.43655e-05
0.000215356
4.76159e-05
0.000204993
0.000241581
-8.86022e-06
5.30895e-05
-2.64744e-06
-2.76268e-05
3.53179e-06
-2.36164e-05
5.75537e-06
-1.64692e-06
4.95628e-06
1.22363e-05
2.8569e-06
1.69593e-05
3.97506e-07
1.76419e-05
-2.24692e-06
1.79003e-05
-5.1237e-06
1.86757e-05
-8.33088e-06
1.97778e-05
-1.18647e-05
2.08485e-05
-1.56822e-05
2.17177e-05
-1.97589e-05
2.22996e-05
-2.40456e-05
2.26446e-05
-2.84403e-05
2.26654e-05
-3.29215e-05
2.24024e-05
-3.74398e-05
2.18377e-05
-4.1906e-05
2.09663e-05
-4.62564e-05
1.97435e-05
-5.04291e-05
1.82208e-05
-5.43739e-05
1.63741e-05
-5.80125e-05
1.42114e-05
-6.12639e-05
1.17536e-05
-6.41265e-05
9.04064e-06
-6.64922e-05
5.99298e-06
-6.83234e-05
2.7402e-06
-6.95647e-05
-7.75735e-07
-7.01495e-05
-4.52282e-06
-7.00485e-05
-8.45458e-06
-6.9236e-05
-1.2549e-05
-6.76733e-05
-1.67777e-05
-6.53182e-05
-2.11525e-05
-6.21548e-05
-2.56423e-05
-5.8129e-05
-3.02007e-05
-5.32113e-05
-3.48559e-05
-4.73937e-05
-3.95726e-05
-4.06753e-05
-4.42981e-05
-3.30217e-05
-4.90637e-05
-2.44543e-05
-5.38258e-05
-1.49385e-05
-5.86047e-05
-4.48887e-06
-6.3357e-05
6.8468e-06
-6.80938e-05
1.91404e-05
-7.28406e-05
3.23527e-05
-7.75075e-05
4.64678e-05
-8.21214e-05
6.14645e-05
-8.66684e-05
7.73162e-05
-9.11409e-05
9.40039e-05
-9.55545e-05
0.000111481
-9.98784e-05
0.000129732
-0.000104111
0.000148703
-0.000108236
0.000168344
-0.000112243
0.00018862
-0.000116122
0.000209505
-0.000119861
0.00023096
-0.000123433
0.000252956
-0.000126834
0.000275478
-0.000130063
0.000298484
-0.000133094
0.00032195
-0.000135927
0.000345839
-0.000138547
0.000370122
-0.000140961
0.000394763
-0.000143154
0.000419725
-0.000145125
0.000444972
-0.000146872
0.000470469
-0.000148387
0.000496176
-0.000149673
0.000522053
-0.000150717
0.000548062
-0.00015153
0.000574158
-0.000152096
0.000600308
-0.000152423
0.000626463
-0.000152503
0.000652579
-0.000152336
0.000678619
-0.000151928
0.000704539
-0.000151259
0.000730294
-0.000150342
0.00075584
-0.000149171
0.000781133
-0.000147743
0.00080613
-0.000146058
0.000830787
-0.000144119
0.000855056
-0.000141899
0.000878895
-0.00013942
0.000902264
-0.000136673
0.000925122
-0.000133652
0.000947428
-0.000130354
0.000969146
-0.00012678
0.000990237
-0.000122922
0.00101066
-0.00011878
0.00103039
-0.000114366
0.00104939
-0.000109656
0.00106763
-0.00010467
0.00108508
-9.94043e-05
0.00110172
-9.38714e-05
0.0011175
-8.80586e-05
0.00113242
-8.19924e-05
0.00114645
-7.56801e-05
0.00115956
-6.91371e-05
0.00117173
-6.23847e-05
0.00118294
-5.54489e-05
0.00119313
-4.83594e-05
0.00120227
-4.11509e-05
0.00121029
-3.38572e-05
0.00121711
-2.65098e-05
0.00122265
-1.91352e-05
0.00122681
-1.17377e-05
0.00122952
-4.33112e-06
0.00123073
3.07849e-06
0.00123037
1.05101e-05
0.00122837
1.79629e-05
0.0012247
2.54503e-05
0.00121935
3.29784e-05
0.00121229
4.05583e-05
0.00120354
4.81954e-05
0.00119312
5.58968e-05
0.00118105
6.36579e-05
0.00116737
7.14767e-05
0.0011521
7.93349e-05
0.00113528
8.72271e-05
0.00111692
9.51168e-05
0.00109704
0.000102998
0.00107567
0.000110841
0.00105282
0.000118637
0.00102852
0.000126365
0.00100281
0.000134021
0.000975724
0.000141566
0.000947318
0.000149007
0.000917646
0.000156324
0.000886759
0.000163511
0.000854721
0.000170546
0.000821592
0.000177437
0.000787442
0.000184168
0.000752343
0.000190742
0.000716373
0.000197153
0.000679614
0.000203398
0.000642147
0.000209475
0.000604048
0.000215377
0.000565393
0.000221096
0.000526254
0.000226622
0.000486691
0.000231938
0.000446767
0.000237026
0.000406528
0.000241865
0.00036603
0.000246405
0.000325326
0.0002506
0.000284434
0.000254479
0.000243329
0.00025828
0.00020195
0.000262295
0.000160564
0.000265659
0.000120296
0.000264207
8.26563e-05
0.000252996
4.62524e-05
0.000241397
0.000287834
-9.00161e-06
6.20911e-05
-2.29238e-06
-3.4336e-05
4.7811e-06
-3.06898e-05
7.6646e-06
-4.53042e-06
7.05587e-06
1.28451e-05
4.86019e-06
1.9155e-05
2.1445e-06
2.03576e-05
-7.88847e-07
2.08337e-05
-4.02597e-06
2.19129e-05
-7.64107e-06
2.33929e-05
-1.16515e-05
2.48589e-05
-1.60101e-05
2.60763e-05
-2.06563e-05
2.69458e-05
-2.55301e-05
2.75184e-05
-3.05906e-05
2.77258e-05
-3.57557e-05
2.75675e-05
-4.09137e-05
2.69957e-05
-4.6014e-05
2.60667e-05
-5.10377e-05
2.47672e-05
-5.58558e-05
2.30388e-05
-6.04026e-05
2.09209e-05
-6.46124e-05
1.84212e-05
-6.84361e-05
1.55773e-05
-7.17692e-05
1.23738e-05
-7.45955e-05
8.81926e-06
-7.68342e-05
4.97898e-06
-7.84539e-05
8.43907e-07
-7.93683e-05
-3.60839e-06
-7.95651e-05
-8.25777e-06
-7.8995e-05
-1.31191e-05
-7.76168e-05
-1.81559e-05
-7.54017e-05
-2.33677e-05
-7.23384e-05
-2.87056e-05
-6.83459e-05
-3.41932e-05
-6.34793e-05
-3.97225e-05
-5.77182e-05
-4.53337e-05
-5.09892e-05
-5.10271e-05
-4.33044e-05
-5.67485e-05
-3.466e-05
-6.24702e-05
-2.50506e-05
-6.8214e-05
-1.44984e-05
-7.39092e-05
-2.99766e-06
-7.95945e-05
9.39273e-06
-8.5231e-05
2.27515e-05
-9.08663e-05
3.70125e-05
-9.63823e-05
5.21619e-05
-0.000101818
6.81789e-05
-0.000107158
8.5021e-05
-0.000112397
0.000102665
-0.000117522
0.000121074
-0.00012252
0.000140222
-0.000127384
0.000160078
-0.000132098
0.000180602
-0.000136646
0.000201756
-0.000141015
0.00022352
-0.000145197
0.000245859
-0.000149172
0.00026873
-0.000152934
0.00029211
-0.000156474
0.000315957
-0.000159775
0.000340243
-0.000162833
0.000364934
-0.000165652
0.000389991
-0.000168211
0.00041538
-0.000170514
0.000441059
-0.000172551
0.000466993
-0.000174321
0.000493137
-0.000175817
0.000519458
-0.000177037
0.00054592
-0.000177992
0.000572467
-0.000178643
0.000599068
-0.000179023
0.000625679
-0.000179115
0.000652259
-0.000178916
0.000678763
-0.000178432
0.000705151
-0.000177648
0.000731379
-0.00017657
0.000757404
-0.000175196
0.000783182
-0.000173522
0.00080867
-0.000171546
0.00083383
-0.000169278
0.000858615
-0.000166684
0.000882983
-0.000163788
0.000906891
-0.000160581
0.000930301
-0.000157061
0.000953172
-0.000153225
0.000975463
-0.00014907
0.000997147
-0.000144606
0.00101817
-0.000139807
0.0010385
-0.000134696
0.00105811
-0.000129265
0.00107696
-0.000123519
0.00109502
-0.000117461
0.00111224
-0.000111095
0.00112861
-0.000104429
0.00114409
-9.74709e-05
0.00115865
-9.02361e-05
0.00117225
-8.27399e-05
0.00118486
-7.49999e-05
0.00119645
-6.70314e-05
0.00120696
-5.8869e-05
0.00121634
-5.0533e-05
0.00122453
-4.20537e-05
0.00123148
-3.34562e-05
0.0012371
-2.47579e-05
0.00124135
-1.59866e-05
0.00124415
-7.13213e-06
0.00124543
1.80044e-06
0.00124515
1.07932e-05
0.00124327
1.98404e-05
0.00123977
2.8952e-05
0.00123462
3.81245e-05
0.00122781
4.73678e-05
0.00121935
5.66615e-05
0.00120923
6.60159e-05
0.00119747
7.54195e-05
0.00118408
8.48647e-05
0.00116908
9.43345e-05
0.00115251
0.000103801
0.00113436
0.000113262
0.00111467
0.000122684
0.00109347
0.000132048
0.00107077
0.000141334
0.00104661
0.000150527
0.00102102
0.000159607
0.000994037
0.000168552
0.000965692
0.000177351
0.00093603
0.000185986
0.000905099
0.000194442
0.000872941
0.000202704
0.000839616
0.000210762
0.000805181
0.000218604
0.000769702
0.000226221
0.000733251
0.000233603
0.000695903
0.000240747
0.000657738
0.000247639
0.000618841
0.000254274
0.000579295
0.000260643
0.000539182
0.000266734
0.000498585
0.000272535
0.00045758
0.000278031
0.000416243
0.000283202
0.00037464
0.000288008
0.000332839
0.000292401
0.000290898
0.00029642
0.000248844
0.000300334
0.000206661
0.000304477
0.000164474
0.000307847
0.000123032
0.000305649
8.38046e-05
0.000292223
4.62119e-05
0.00027899
0.000334046
-9.26996e-06
7.1361e-05
-1.8555e-06
-4.17505e-05
6.55401e-06
-3.90994e-05
1.05661e-05
-8.54253e-06
1.05181e-05
1.28931e-05
8.34686e-06
2.13262e-05
5.41526e-06
2.32892e-05
2.17967e-06
2.40693e-05
-1.37851e-06
2.5471e-05
-5.4082e-06
2.74226e-05
-9.87974e-06
2.93305e-05
-1.4793e-05
3.09896e-05
-2.00702e-05
3.2223e-05
-2.56143e-05
3.30624e-05
-3.13665e-05
3.34781e-05
-3.72323e-05
3.34333e-05
-4.31675e-05
3.29309e-05
-4.90541e-05
3.19533e-05
-5.48136e-05
3.05267e-05
-6.03593e-05
2.85845e-05
-6.56537e-05
2.62153e-05
-7.05511e-05
2.33187e-05
-7.49945e-05
2.00207e-05
-7.8941e-05
1.63202e-05
-8.23413e-05
1.22196e-05
-8.51031e-05
7.74079e-06
-8.71943e-05
2.93506e-06
-8.85567e-05
-2.24601e-06
-8.91375e-05
-7.6769e-06
-8.88847e-05
-1.3372e-05
-8.77971e-05
-1.92435e-05
-8.58214e-05
-2.53434e-05
-8.29389e-05
-3.15881e-05
-7.91662e-05
-3.79659e-05
-7.44162e-05
-4.44725e-05
-6.86858e-05
-5.10641e-05
-6.19983e-05
-5.77147e-05
-5.43274e-05
-6.44194e-05
-4.5661e-05
-7.11366e-05
-3.6065e-05
-7.781e-05
-2.54317e-05
-8.45426e-05
-1.38566e-05
-9.11696e-05
-1.32751e-06
-9.77601e-05
1.21068e-05
-0.000104301
2.64998e-05
-0.000110775
4.18026e-05
-0.000117121
5.79842e-05
-0.000123339
7.50254e-05
-0.000129438
9.28898e-05
-0.000135387
0.000111552
-0.000141182
0.000130978
-0.000146811
0.000151123
-0.000152244
0.000171961
-0.000157484
0.000193457
-0.000162511
0.000215578
-0.000167318
0.000238294
-0.000171889
0.000261566
-0.000176205
0.000285356
-0.000180264
0.000309632
-0.000184051
0.000334369
-0.00018757
0.000359517
-0.0001908
0.000385043
-0.000193737
0.00041091
-0.000196381
0.000437079
-0.00019872
0.000463507
-0.000200749
0.000490162
-0.000202472
0.000516999
-0.000203874
0.000543977
-0.000204971
0.000571055
-0.000205721
0.000598194
-0.000206163
0.000625349
-0.00020627
0.000652477
-0.000206044
0.000679538
-0.000205492
0.000706489
-0.000204598
0.000733292
-0.000203373
0.000759897
-0.000201801
0.000786261
-0.000199886
0.000812346
-0.000197631
0.000838103
-0.000195035
0.000863495
-0.000192075
0.00088848
-0.000188773
0.000913015
-0.000185116
0.000937058
-0.000181104
0.000960567
-0.000176734
0.000983503
-0.000172007
0.00100582
-0.000166922
0.00102749
-0.000161479
0.00104847
-0.000155672
0.00106872
-0.000149518
0.0010882
-0.000143
0.00110688
-0.000136136
0.00112471
-0.000128928
0.00114166
-0.000121381
0.0011577
-0.00011351
0.00117279
-0.000105322
0.00118688
-9.68336e-05
0.00119994
-8.80556e-05
0.00121192
-7.9015e-05
0.00122278
-6.97283e-05
0.00123246
-6.0216e-05
0.00124091
-5.05063e-05
0.00124808
-4.06172e-05
0.00125388
-3.05657e-05
0.00125827
-2.03722e-05
0.00126118
-1.00461e-05
0.00126259
3.97605e-07
0.00126242
1.09542e-05
0.00126066
2.16073e-05
0.00125726
3.23524e-05
0.0012522
4.31795e-05
0.00124549
5.40785e-05
0.0012371
6.50501e-05
0.00122705
7.60693e-05
0.00121534
8.71326e-05
0.00120199
9.82098e-05
0.00118702
0.000109303
0.00117045
0.00012037
0.00115231
0.000131406
0.00113262
0.000142376
0.0011114
0.000153269
0.00108868
0.000164054
0.00106449
0.000174714
0.00103887
0.000185231
0.00101184
0.000195577
0.000983452
0.000205739
0.000953742
0.000215696
0.000922752
0.000225432
0.000890527
0.000234929
0.000857115
0.000244175
0.000822571
0.000253148
0.000786939
0.000261852
0.000750297
0.000270246
0.000712703
0.000278341
0.000674224
0.000286118
0.000634933
0.000293565
0.000594906
0.00030067
0.00055422
0.000307421
0.000512949
0.000313805
0.000471173
0.000319807
0.000428966
0.000325409
0.000386401
0.000330573
0.00034355
0.000335251
0.000300487
0.000339483
0.000257247
0.000343574
0.000213814
0.00034791
0.000170235
0.000351426
0.000127087
0.000348797
8.597e-05
0.00033334
4.69537e-05
0.000318006
0.000380999
-9.66773e-06
8.10288e-05