/*--------------------------------*- C++ -*----------------------------------*\
| =========                 |                                                 |
| \\      /  F ield         | OpenFOAM: The Open Source CFD Toolbox           |
|  \\    /   O peration     | Version:  v2006                                 |
|   \\  /    A nd           | Website:  www.openfoam.com                      |
|    \\/     M anipulation  |                                                 |
\*---------------------------------------------------------------------------*/
FoamFile
{
    version     2.0;
    format      ascii;
    class       volVectorField;
    location    "0";
    object      U;
}
// * * * * * * * * * * * * * * * * * * * * * * * * * * * * * * * * * * * * * //

dimensions      [0 1 -1 0 0 0 0];


internalField   nonuniform List<vector> 
20000
(
(1 1.17558e-11 0)
(1 2.91427e-11 0)
(1 4.76306e-11 0)
(1 6.90301e-11 0)
(1 9.25975e-11 0)
(1 1.17775e-10 0)
(1 1.436e-10 0)
(1 1.68453e-10 0)
(1 1.90008e-10 0)
(1 2.0559e-10 0)
(1 2.12782e-10 0)
(1 2.0968e-10 0)
(1 1.94691e-10 0)
(1 1.67482e-10 0)
(1 1.29633e-10 0)
(1 8.46078e-11 0)
(1 3.7217e-11 0)
(1 -6.83136e-12 0)
(1 -4.21806e-11 0)
(1 -6.50259e-11 0)
(1 -7.21379e-11 0)
(1 -7.07077e-11 0)
(1 -7.69492e-11 0)
(1 -1.00296e-10 0)
(1 -1.4629e-10 0)
(1 -2.19164e-10 0)
(1 -3.23434e-10 0)
(1 -4.64686e-10 0)
(1 -6.50043e-10 0)
(1 -8.88574e-10 0)
(1 -1.19169e-09 0)
(1 -1.57349e-09 0)
(1 -2.05113e-09 0)
(1 -2.64521e-09 0)
(1 -3.38019e-09 0)
(1 -4.28539e-09 0)
(1 -5.39657e-09 0)
(1 -6.75811e-09 0)
(1 -8.42513e-09 0)
(1 -1.04649e-08 0)
(1 -1.29574e-08 0)
(1 -1.59945e-08 0)
(1 -1.96778e-08 0)
(1 -2.41143e-08 0)
(1 -2.9412e-08 0)
(1 -3.56773e-08 0)
(1 -4.30151e-08 0)
(1 -5.1528e-08 0)
(1 -6.13109e-08 0)
(1 -7.24369e-08 0)
(1 -8.4934e-08 0)
(1 -9.8749e-08 0)
(1 -1.13691e-07 0)
(1.00001 -1.29348e-07 0)
(1.00001 -1.45057e-07 0)
(1.00001 -1.60092e-07 0)
(1.00001 -1.73555e-07 0)
(1.00001 -1.82859e-07 0)
(1.00001 -1.83062e-07 0)
(1.00001 -1.74722e-07 0)
(1.00001 -1.74207e-07 0)
(1.00001 -1.88122e-07 0)
(1.00002 -1.49743e-07 0)
(1.00002 2.64871e-08 0)
(1.00002 2.6062e-07 0)
(1.00001 4.92384e-07 0)
(1.00001 6.98729e-07 0)
(1.00001 8.85333e-07 0)
(1.00001 1.06168e-06 0)
(1.00001 1.22739e-06 0)
(1.00001 1.37066e-06 0)
(1 1.47265e-06 0)
(1 1.51536e-06 0)
(0.999999 1.48828e-06 0)
(0.999997 1.39121e-06 0)
(0.999994 1.23426e-06 0)
(0.999991 1.03447e-06 0)
(0.999988 8.07994e-07 0)
(0.999985 5.66604e-07 0)
(0.999982 3.18696e-07 0)
(0.99998 7.13185e-08 0)
(0.999977 -1.67799e-07 0)
(0.999975 -3.89523e-07 0)
(0.999973 -5.83728e-07 0)
(0.999971 -7.40244e-07 0)
(0.99997 -8.50034e-07 0)
(0.999968 -9.06394e-07 0)
(0.999967 -9.05894e-07 0)
(0.999967 -8.4799e-07 0)
(0.999966 -7.41069e-07 0)
(0.999966 -6.14903e-07 0)
(0.999967 -5.20223e-07 0)
(0.999967 -4.78668e-07 0)
(0.999969 -4.82124e-07 0)
(0.999971 -5.16991e-07 0)
(0.999974 -5.7135e-07 0)
(0.999977 -6.35785e-07 0)
(0.999982 -6.98089e-07 0)
(0.999987 -7.29016e-07 0)
(0.999993 -6.63369e-07 0)
(0.999999 -3.95036e-07 0)
(1 1.90252e-07 0)
(1.00001 1.10597e-06 0)
(1.00001 2.07998e-06 0)
(1.00001 2.75728e-06 0)
(1.00001 3.12405e-06 0)
(1 3.25978e-06 0)
(1 3.23257e-06 0)
(0.999997 3.07863e-06 0)
(0.999993 2.81434e-06 0)
(0.999989 2.44955e-06 0)
(0.999984 1.99659e-06 0)
(0.99998 1.4746e-06 0)
(0.999975 9.06072e-07 0)
(0.99997 3.17228e-07 0)
(0.999965 -2.61911e-07 0)
(0.999961 -8.00257e-07 0)
(0.999957 -1.26883e-06 0)
(0.999953 -1.64363e-06 0)
(0.99995 -1.90795e-06 0)
(0.999947 -2.05388e-06 0)
(0.999944 -2.08259e-06 0)
(0.999943 -2.00358e-06 0)
(0.999941 -1.8333e-06 0)
(0.99994 -1.5928e-06 0)
(0.99994 -1.30859e-06 0)
(0.99994 -1.02424e-06 0)
(0.99994 -8.06633e-07 0)
(0.99994 -6.77637e-07 0)
(0.999942 -6.2237e-07 0)
(0.999944 -6.17486e-07 0)
(0.999947 -6.37273e-07 0)
(0.99995 -6.5595e-07 0)
(0.999954 -6.52737e-07 0)
(0.999958 -6.17354e-07 0)
(0.999962 -5.52783e-07 0)
(0.999965 -4.72945e-07 0)
(0.999968 -3.95573e-07 0)
(0.99997 -3.34091e-07 0)
(0.999972 -2.9353e-07 0)
(0.999974 -2.71858e-07 0)
(0.999976 -2.63627e-07 0)
(0.999978 -2.62806e-07 0)
(0.99998 -2.6426e-07 0)
(0.999981 -2.6439e-07 0)
(0.999983 -2.61186e-07 0)
(0.999985 -2.53924e-07 0)
(0.999986 -2.42757e-07 0)
(0.999988 -2.28355e-07 0)
(0.999989 -2.1162e-07 0)
(0.999991 -1.93487e-07 0)
(0.999992 -1.74802e-07 0)
(0.999993 -1.56264e-07 0)
(0.999994 -1.38407e-07 0)
(0.999995 -1.21606e-07 0)
(0.999996 -1.06095e-07 0)
(0.999996 -9.1996e-08 0)
(0.999997 -7.93434e-08 0)
(0.999997 -6.81088e-08 0)
(0.999998 -5.82211e-08 0)
(0.999998 -4.95828e-08 0)
(0.999999 -4.20826e-08 0)
(0.999999 -3.56044e-08 0)
(0.999999 -3.00336e-08 0)
(0.999999 -2.52616e-08 0)
(0.999999 -2.11878e-08 0)
(0.999999 -1.77207e-08 0)
(1 -1.47774e-08 0)
(1 -1.22826e-08 0)
(1 -1.0167e-08 0)
(1 -8.36694e-09 0)
(1 -6.82391e-09 0)
(1 -5.48563e-09 0)
(1 -4.30727e-09 0)
(1 -3.25438e-09 0)
(1 -2.305e-09 0)
(1 -1.44951e-09 0)
(1 -6.89595e-10 0)
(1 -3.7119e-11 0)
(1 4.83481e-10 0)
(1 8.40311e-10 0)
(1 9.84463e-10 0)
(1 9.16463e-10 0)
(1 7.4992e-10 0)
(1 5.6066e-10 0)
(1 3.82904e-10 0)
(1 2.27797e-10 0)
(1 9.64365e-11 0)
(1 -1.34184e-11 0)
(1 -1.04789e-10 0)
(1 -1.80683e-10 0)
(1 -2.43905e-10 0)
(1 -2.97118e-10 0)
(1 -3.43055e-10 0)
(1 -3.78605e-10 0)
(1 -3.99766e-10 0)
(1 -4.17058e-10 0)
(1 -4.10171e-10 0)
(1 -4.60196e-10 0)
(1 -3.90899e-10 0)
(1 2.44799e-11 0)
(1 5.40182e-11 0)
(1 8.19738e-11 0)
(1 1.12363e-10 0)
(1 1.43225e-10 0)
(1 1.7419e-10 0)
(1 2.04632e-10 0)
(1 2.33505e-10 0)
(1 2.59547e-10 0)
(1 2.81481e-10 0)
(1 2.98198e-10 0)
(1 3.08773e-10 0)
(1 3.12558e-10 0)
(1 3.09991e-10 0)
(1 3.02134e-10 0)
(1 2.9021e-10 0)
(1 2.75184e-10 0)
(1 2.57398e-10 0)
(1 2.35704e-10 0)
(1 2.07402e-10 0)
(1 1.70106e-10 0)
(1 1.1414e-10 0)
(1 2.37582e-11 0)
(1 -1.1119e-10 0)
(1 -3.0114e-10 0)
(1 -5.58849e-10 0)
(1 -8.99978e-10 0)
(1 -1.3437e-09 0)
(1 -1.9135e-09 0)
(1 -2.63829e-09 0)
(1 -3.55352e-09 0)
(1 -4.7024e-09 0)
(1 -6.13706e-09 0)
(1 -7.91966e-09 0)
(1 -1.0124e-08 0)
(1 -1.2838e-08 0)
(1 -1.61693e-08 0)
(1 -2.0251e-08 0)
(1 -2.52483e-08 0)
(1 -3.1363e-08 0)
(1 -3.88346e-08 0)
(1 -4.79388e-08 0)
(1 -5.89803e-08 0)
(1 -7.22804e-08 0)
(1 -8.81637e-08 0)
(1 -1.0695e-07 0)
(1 -1.28955e-07 0)
(1 -1.54483e-07 0)
(1 -1.83815e-07 0)
(1 -2.17163e-07 4.56307e-43)
(1 -2.5461e-07 3.62825e-44)
(1 -2.96015e-07 0)
(1 -3.40873e-07 0)
(1.00001 -3.88101e-07 0)
(1.00001 -4.35805e-07 0)
(1.00001 -4.81148e-07 0)
(1.00001 -5.20245e-07 0)
(1.00001 -5.47899e-07 0)
(1.00001 -5.58256e-07 0)
(1.00001 -5.48924e-07 0)
(1.00001 -5.24234e-07 0)
(1.00001 -4.81187e-07 0)
(1.00002 -3.82593e-07 0)
(1.00002 -2.03212e-07 0)
(1.00002 -3.99538e-08 0)
(1.00002 6.13419e-08 0)
(1.00002 8.5378e-08 0)
(1.00003 3.70879e-08 0)
(1.00003 -6.1915e-08 0)
(1.00003 -1.74615e-07 0)
(1.00004 -2.55417e-07 0)
(1.00005 -2.64422e-07 0)
(1.00005 -1.84867e-07 0)
(1.00006 -2.40661e-08 0)
(1.00006 1.93577e-07 0)
(1.00006 4.41901e-07 0)
(1.00006 6.91731e-07 0)
(1.00006 9.33202e-07 0)
(1.00006 1.16241e-06 0)
(1.00006 1.3747e-06 0)
(1.00005 1.56272e-06 0)
(1.00005 1.71692e-06 0)
(1.00004 1.82619e-06 0)
(1.00003 1.8793e-06 0)
(1.00002 1.86839e-06 0)
(1.00001 1.79197e-06 0)
(1 1.65425e-06 0)
(0.999995 1.46242e-06 0)
(0.999988 1.22611e-06 0)
(0.999981 9.53406e-07 0)
(0.999977 6.42291e-07 0)
(0.999973 2.80251e-07 0)
(0.999972 -1.30669e-07 0)
(0.999972 -5.68004e-07 0)
(0.999973 -1.01487e-06 0)
(0.999975 -1.45856e-06 0)
(0.999979 -1.88792e-06 0)
(0.999984 -2.29021e-06 0)
(0.999989 -2.64537e-06 0)
(0.999996 -2.91862e-06 0)
(1 -3.05802e-06 0)
(1.00001 -3.00383e-06 0)
(1.00003 -2.73691e-06 0)
(1.00004 -2.39964e-06 0)
(1.00006 -2.1662e-06 0)
(1.00008 -1.9669e-06 0)
(1.00009 -1.72638e-06 0)
(1.00011 -1.40453e-06 0)
(1.00012 -9.91205e-07 0)
(1.00014 -4.90724e-07 0)
(1.00014 8.69089e-08 0)
(1.00015 7.23039e-07 0)
(1.00015 1.38079e-06 0)
(1.00015 2.03068e-06 0)
(1.00014 2.63958e-06 0)
(1.00013 3.17258e-06 0)
(1.00012 3.59742e-06 0)
(1.0001 3.88803e-06 0)
(1.00008 4.02759e-06 0)
(1.00006 4.01055e-06 0)
(1.00004 3.84302e-06 0)
(1.00002 3.54214e-06 0)
(1 3.1343e-06 0)
(0.999988 2.65291e-06 0)
(0.999974 2.13523e-06 0)
(0.999963 1.6139e-06 0)
(0.999955 1.10128e-06 0)
(0.99995 5.8116e-07 0)
(0.999947 5.99576e-08 0)
(0.999946 -4.41567e-07 0)
(0.999947 -9.00827e-07 0)
(0.999949 -1.28807e-06 0)
(0.999951 -1.56609e-06 0)
(0.999955 -1.70352e-06 0)
(0.999959 -1.69259e-06 0)
(0.999962 -1.55909e-06 0)
(0.999965 -1.35697e-06 0)
(0.999968 -1.14797e-06 0)
(0.99997 -9.7799e-07 0)
(0.999972 -8.65501e-07 0)
(0.999974 -8.06374e-07 0)
(0.999976 -7.85443e-07 0)
(0.999978 -7.85351e-07 0)
(0.99998 -7.91167e-07 0)
(0.999981 -7.92409e-07 0)
(0.999983 -7.83267e-07 0)
(0.999985 -7.61709e-07 0)
(0.999986 -7.28296e-07 0)
(0.999988 -6.85102e-07 0)
(0.999989 -6.34874e-07 0)
(0.999991 -5.80437e-07 0)
(0.999992 -5.24343e-07 0)
(0.999993 -4.68698e-07 0)
(0.999994 -4.15106e-07 0)
(0.999995 -3.64688e-07 0)
(0.999996 -3.1815e-07 0)
(0.999996 -2.75853e-07 0)
(0.999997 -2.37901e-07 0)
(0.999997 -2.04205e-07 0)
(0.999998 -1.74552e-07 0)
(0.999998 -1.48648e-07 0)
(0.999999 -1.26159e-07 0)
(0.999999 -1.06736e-07 0)
(0.999999 -9.00339e-08 0)
(0.999999 -7.57265e-08 0)
(0.999999 -6.35096e-08 0)
(0.999999 -5.31075e-08 0)
(1 -4.42725e-08 0)
(1 -3.67851e-08 0)
(1 -3.04515e-08 0)
(1 -2.51024e-08 0)
(1 -2.05901e-08 0)
(1 -1.67867e-08 0)
(1 -1.3582e-08 0)
(1 -1.08826e-08 0)
(1 -8.61014e-09 0)
(1 -6.69952e-09 0)
(1 -5.0968e-09 0)
(1 -3.75861e-09 0)
(1 -2.65489e-09 0)
(1 -1.76677e-09 0)
(1 -1.10205e-09 0)
(1 -6.48624e-10 0)
(1 -3.19827e-10 0)
(1 -6.95981e-11 0)
(1 1.22882e-10 0)
(1 2.68556e-10 0)
(1 3.74792e-10 0)
(1 4.47669e-10 0)
(1 4.92505e-10 0)
(1 5.13896e-10 0)
(1 5.15711e-10 0)
(1 5.0109e-10 0)
(1 4.72561e-10 0)
(1 4.37418e-10 0)
(1 4.01549e-10 0)
(1 3.58855e-10 0)
(1 3.21446e-10 0)
(1 2.41233e-10 0)
(1 2.27082e-10 0)
(1 3.25971e-11 0)
(1 6.52328e-11 0)
(1 9.42146e-11 0)
(1 1.25348e-10 0)
(1 1.55706e-10 0)
(1 1.85768e-10 0)
(1 2.16085e-10 0)
(1 2.47228e-10 0)
(1 2.80091e-10 0)
(1 3.15591e-10 0)
(1 3.54183e-10 0)
(1 3.95704e-10 0)
(1 4.39607e-10 0)
(1 4.84594e-10 0)
(1 5.27712e-10 0)
(1 5.64499e-10 0)
(1 5.89499e-10 0)
(1 5.96509e-10 0)
(1 5.78995e-10 0)
(1 5.30449e-10 0)
(1 4.43536e-10 0)
(1 3.11245e-10 0)
(1 1.26039e-10 0)
(1 -1.246e-10 0)
(1 -4.58875e-10 0)
(1 -8.9991e-10 0)
(1 -1.47552e-09 0)
(1 -2.21892e-09 0)
(1 -3.17016e-09 0)
(1 -4.37796e-09 0)
(1 -5.90174e-09 0)
(1 -7.81371e-09 0)
(1 -1.02008e-08 0)
(1 -1.31666e-08 0)
(1 -1.68338e-08 0)
(1 -2.13493e-08 0)
(1 -2.68916e-08 0)
(1 -3.36827e-08 0)
(1 -4.19975e-08 0)
(1 -5.21718e-08 0)
(1 -6.46043e-08 0)
(1 -7.97541e-08 0)
(1 -9.81285e-08 0)
(1 -1.20263e-07 0)
(1 -1.46699e-07 0)
(1 -1.7797e-07 0)
(1 -2.14602e-07 0)
(1 -2.57107e-07 0)
(1 -3.05956e-07 0)
(1 -3.6151e-07 0)
(1 -4.23918e-07 0)
(1 -4.92965e-07 0)
(1 -5.67842e-07 0)
(1.00001 -6.46803e-07 0)
(1.00001 -7.26722e-07 0)
(1.00001 -8.0265e-07 0)
(1.00001 -8.67811e-07 0)
(1.00001 -9.14577e-07 0)
(1.00001 -9.35684e-07 0)
(1.00001 -9.23077e-07 0)
(1.00001 -8.66735e-07 0)
(1.00001 -7.66527e-07 0)
(1.00002 -6.56251e-07 0)
(1.00002 -5.86911e-07 0)
(1.00002 -5.67466e-07 0)
(1.00002 -6.05816e-07 0)
(1.00002 -7.23602e-07 0)
(1.00002 -9.37882e-07 0)
(1.00002 -1.23095e-06 0)
(1.00002 -1.53695e-06 0)
(1.00002 -1.75506e-06 0)
(1.00002 -1.78888e-06 0)
(1.00003 -1.58818e-06 0)
(1.00003 -1.16824e-06 0)
(1.00003 -5.91581e-07 0)
(1.00003 6.82066e-08 0)
(1.00003 7.52084e-07 0)
(1.00003 1.42737e-06 0)
(1.00002 2.07845e-06 0)
(1.00002 2.69325e-06 0)
(1.00002 3.25481e-06 0)
(1.00001 3.73986e-06 0)
(1.00001 4.11942e-06 0)
(1 4.36241e-06 0)
(0.999997 4.44435e-06 0)
(0.999991 4.35491e-06 0)
(0.999986 4.0973e-06 0)
(0.999981 3.68287e-06 0)
(0.999977 3.12758e-06 0)
(0.999974 2.45343e-06 0)
(0.999971 1.69182e-06 0)
(0.99997 8.80347e-07 0)
(0.999969 5.01765e-08 0)
(0.99997 -7.81663e-07 0)
(0.999971 -1.60234e-06 0)
(0.999974 -2.39941e-06 0)
(0.999978 -3.16003e-06 0)
(0.999983 -3.87181e-06 0)
(0.999988 -4.52599e-06 0)
(0.999995 -5.12252e-06 0)
(1 -5.67186e-06 0)
(1.00001 -6.18532e-06 0)
(1.00002 -6.64302e-06 0)
(1.00003 -6.94605e-06 0)
(1.00003 -6.97574e-06 0)
(1.00004 -6.70714e-06 0)
(1.00005 -6.15813e-06 0)
(1.00006 -5.34863e-06 0)
(1.00006 -4.29342e-06 0)
(1.00007 -3.00982e-06 0)
(1.00007 -1.52671e-06 0)
(1.00007 1.1175e-07 0)
(1.00007 1.84202e-06 0)
(1.00006 3.58772e-06 0)
(1.00006 5.25919e-06 0)
(1.00005 6.76214e-06 0)
(1.00004 8.00759e-06 0)
(1.00003 8.92144e-06 0)
(1.00002 9.45293e-06 0)
(1.00001 9.58032e-06 0)
(0.999994 9.31261e-06 0)
(0.999983 8.68746e-06 0)
(0.999973 7.76703e-06 0)
(0.999964 6.63217e-06 0)
(0.999957 5.37214e-06 0)
(0.999951 4.07022e-06 0)
(0.999947 2.79449e-06 0)
(0.999945 1.59681e-06 0)
(0.999943 5.018e-07 0)
(0.999944 -4.83597e-07 0)
(0.999945 -1.34774e-06 0)
(0.999948 -2.05786e-06 0)
(0.999951 -2.56263e-06 0)
(0.999955 -2.81634e-06 0)
(0.999958 -2.81049e-06 0)
(0.999962 -2.59209e-06 0)
(0.999965 -2.25503e-06 0)
(0.999968 -1.90564e-06 0)
(0.999971 -1.6223e-06 0)
(0.999973 -1.43605e-06 0)
(0.999974 -1.3394e-06 0)
(0.999976 -1.30647e-06 0)
(0.999978 -1.30794e-06 0)
(0.99998 -1.31879e-06 0)
(0.999981 -1.32152e-06 0)
(0.999983 -1.30655e-06 0)
(0.999985 -1.27062e-06 0)
(0.999986 -1.21476e-06 0)
(0.999988 -1.14252e-06 0)
(0.99999 -1.05854e-06 0)
(0.999991 -9.67565e-07 0)
(0.999992 -8.73869e-07 0)
(0.999993 -7.80968e-07 0)
(0.999994 -6.91535e-07 0)
(0.999995 -6.07434e-07 0)
(0.999996 -5.29832e-07 0)
(0.999996 -4.59326e-07 0)
(0.999997 -3.96079e-07 0)
(0.999997 -3.3994e-07 0)
(0.999998 -2.90547e-07 0)
(0.999998 -2.47406e-07 0)
(0.999999 -2.09959e-07 0)
(0.999999 -1.77621e-07 0)
(0.999999 -1.49817e-07 0)
(0.999999 -1.26001e-07 0)
(0.999999 -1.05667e-07 0)
(0.999999 -8.83531e-08 0)
(1 -7.36483e-08 0)
(1 -6.11885e-08 0)
(1 -5.06546e-08 0)
(1 -4.17695e-08 0)
(1 -3.42935e-08 0)
(1 -2.80203e-08 0)
(1 -2.27723e-08 0)
(1 -1.83968e-08 0)
(1 -1.47615e-08 0)
(1 -1.17514e-08 0)
(1 -9.26657e-09 0)
(1 -7.2193e-09 0)
(1 -5.53132e-09 0)
(1 -4.1317e-09 0)
(1 -2.95514e-09 0)
(1 -1.95873e-09 0)
(1 -1.13379e-09 0)
(1 -4.69563e-10 0)
(1 5.2799e-11 0)
(1 4.54845e-10 0)
(1 7.56497e-10 0)
(1 9.7502e-10 0)
(1 1.125e-09 0)
(1 1.21863e-09 0)
(1 1.26613e-09 0)
(1 1.27611e-09 0)
(1 1.25617e-09 0)
(1 1.21193e-09 0)
(1 1.14638e-09 0)
(1 1.06613e-09 0)
(1 9.61328e-10 0)
(1 8.84182e-10 0)
(1 7.00608e-10 0)
(1 4.64922e-11 0)
(1 9.44681e-11 0)
(1 1.3973e-10 0)
(1 1.90088e-10 0)
(1 2.41248e-10 0)
(1 2.93604e-10 0)
(1 3.47387e-10 0)
(1 4.02496e-10 0)
(1 4.58845e-10 0)
(1 5.16125e-10 0)
(1 5.73519e-10 0)
(1 6.29637e-10 0)
(1 6.82376e-10 0)
(1 7.28714e-10 0)
(1 7.65023e-10 0)
(1 7.87481e-10 0)
(1 7.92208e-10 0)
(1 7.7517e-10 0)
(1 7.31916e-10 0)
(1 6.5656e-10 0)
(1 5.40108e-10 0)
(1 3.70033e-10 0)
(1 1.29316e-10 0)
(1 -2.04712e-10 0)
(1 -6.58999e-10 0)
(1 -1.26553e-09 0)
(1 -2.06243e-09 0)
(1 -3.09542e-09 0)
(1 -4.41988e-09 0)
(1 -6.10344e-09 0)
(1 -8.22882e-09 0)
(1 -1.08966e-08 0)
(1 -1.42281e-08 0)
(1 -1.8368e-08 0)
(1 -2.34876e-08 0)
(1 -2.97918e-08 0)
(1 -3.75302e-08 0)
(1 -4.70126e-08 0)
(1 -5.86235e-08 0)
(1 -7.2832e-08 0)
(1 -9.01951e-08 0)
(1 -1.11354e-07 0)
(1 -1.3702e-07 0)
(1 -1.67941e-07 0)
(1 -2.04875e-07 0)
(1 -2.48569e-07 0)
(1 -2.99763e-07 0)
(1 -3.5918e-07 0)
(1 -4.27493e-07 0)
(1 -5.05226e-07 0)
(1 -5.92611e-07 0)
(1 -6.89375e-07 0)
(1 -7.94421e-07 0)
(1.00001 -9.05326e-07 0)
(1.00001 -1.01774e-06 0)
(1.00001 -1.12488e-06 0)
(1.00001 -1.21742e-06 0)
(1.00001 -1.28385e-06 0)
(1.00001 -1.31184e-06 0)
(1.00001 -1.29148e-06 0)
(1.00001 -1.22002e-06 0)
(1.00001 -1.10306e-06 0)
(1.00002 -9.50393e-07 0)
(1.00002 -7.76762e-07 0)
(1.00002 -6.10462e-07 0)
(1.00002 -5.13429e-07 0)
(1.00002 -5.42831e-07 0)
(1.00002 -7.24264e-07 0)
(1.00002 -1.03086e-06 0)
(1.00002 -1.37347e-06 0)
(1.00002 -1.61912e-06 0)
(1.00002 -1.64267e-06 0)
(1.00003 -1.38323e-06 0)
(1.00003 -8.64188e-07 0)
(1.00003 -1.6688e-07 0)
(1.00003 6.13627e-07 0)
(1.00003 1.40869e-06 0)
(1.00003 2.18166e-06 0)
(1.00002 2.91913e-06 0)
(1.00002 3.61022e-06 0)
(1.00002 4.23573e-06 0)
(1.00001 4.76809e-06 0)
(1.00001 5.17252e-06 0)
(1 5.41147e-06 0)
(0.999997 5.45633e-06 0)
(0.999991 5.29728e-06 0)
(0.999986 4.94179e-06 0)
(0.999981 4.40649e-06 0)
(0.999977 3.71207e-06 0)
(0.999974 2.88319e-06 0)
(0.999971 1.94773e-06 0)
(0.999969 9.33964e-07 0)
(0.999969 -1.31708e-07 0)
(0.99997 -1.22415e-06 0)
(0.999971 -2.31848e-06 0)
(0.999974 -3.39219e-06 0)
(0.999978 -4.42427e-06 0)
(0.999982 -5.39276e-06 0)
(0.999988 -6.27146e-06 0)
(0.999994 -7.02693e-06 0)
(1 -7.6189e-06 0)
(1.00001 -8.00827e-06 0)
(1.00002 -8.17182e-06 0)
(1.00003 -8.10346e-06 0)
(1.00003 -7.80732e-06 0)
(1.00004 -7.29208e-06 0)
(1.00005 -6.53881e-06 0)
(1.00006 -5.52731e-06 0)
(1.00006 -4.24911e-06 0)
(1.00007 -2.71518e-06 0)
(1.00007 -9.5828e-07 0)
(1.00007 9.68093e-07 0)
(1.00007 2.99352e-06 0)
(1.00006 5.02363e-06 0)
(1.00006 6.95171e-06 0)
(1.00005 8.66748e-06 0)
(1.00004 1.00675e-05 0)
(1.00003 1.10668e-05 0)
(1.00002 1.16083e-05 0)
(1.00001 1.167e-05 0)
(0.999994 1.12664e-05 0)
(0.999983 1.04452e-05 0)
(0.999973 9.28319e-06 0)
(0.999964 7.87903e-06 0)
(0.999957 6.34068e-06 0)
(0.999951 4.76541e-06 0)
(0.999947 3.22308e-06 0)
(0.999944 1.75428e-06 0)
(0.999943 3.76941e-07 0)
(0.999943 -8.95691e-07 0)
(0.999945 -2.0365e-06 0)
(0.999947 -2.98839e-06 0)
(0.999951 -3.66887e-06 0)
(0.999955 -4.00491e-06 0)
(0.999959 -3.97878e-06 0)
(0.999962 -3.65468e-06 0)
(0.999966 -3.16606e-06 0)
(0.999968 -2.66497e-06 0)
(0.999971 -2.26259e-06 0)
(0.999973 -2.00121e-06 0)
(0.999974 -1.86807e-06 0)
(0.999976 -1.82503e-06 0)
(0.999978 -1.82995e-06 0)
(0.99998 -1.8472e-06 0)
(0.999981 -1.85222e-06 0)
(0.999983 -1.83171e-06 0)
(0.999985 -1.78132e-06 0)
(0.999986 -1.70271e-06 0)
(0.999988 -1.60101e-06 0)
(0.99999 -1.48286e-06 0)
(0.999991 -1.35496e-06 0)
(0.999992 -1.22335e-06 0)
(0.999993 -1.09295e-06 0)
(0.999994 -9.67503e-07 0)
(0.999995 -8.4961e-07 0)
(0.999996 -7.40887e-07 0)
(0.999996 -6.42154e-07 0)
(0.999997 -5.53623e-07 0)
(0.999998 -4.75071e-07 0)
(0.999998 -4.0598e-07 0)
(0.999998 -3.45652e-07 0)
(0.999999 -2.93298e-07 0)
(0.999999 -2.48096e-07 0)
(0.999999 -2.0924e-07 0)
(0.999999 -1.75961e-07 0)
(0.999999 -1.47551e-07 0)
(1 -1.23366e-07 0)
(1 -1.02827e-07 0)
(1 -8.54238e-08 0)
(1 -7.07087e-08 0)
(1 -5.82897e-08 0)
(1 -4.78274e-08 0)
(1 -3.90285e-08 0)
(1 -3.16412e-08 0)
(1 -2.54503e-08 0)
(1 -2.02733e-08 0)
(1 -1.59558e-08 0)
(1 -1.23685e-08 0)
(1 -9.40343e-09 0)
(1 -6.96993e-09 0)
(1 -4.99237e-09 0)
(1 -3.40275e-09 0)
(1 -2.13796e-09 0)
(1 -1.14427e-09 0)
(1 -3.69024e-10 0)
(1 2.29697e-10 0)
(1 6.84225e-10 0)
(1 1.02006e-09 0)
(1 1.25791e-09 0)
(1 1.41488e-09 0)
(1 1.50523e-09 0)
(1 1.54093e-09 0)
(1 1.53201e-09 0)
(1 1.48701e-09 0)
(1 1.4124e-09 0)
(1 1.31333e-09 0)
(1 1.19721e-09 0)
(1 1.06083e-09 0)
(1 9.47486e-10 0)
(1 7.01871e-10 0)
(1 5.99196e-11 0)
(1 1.21703e-10 0)
(1 1.7946e-10 0)
(1 2.42846e-10 0)
(1 3.06221e-10 0)
(1 3.70038e-10 0)
(1 4.3458e-10 0)
(1 4.99882e-10 0)
(1 5.66279e-10 0)
(1 6.34085e-10 0)
(1 7.03063e-10 0)
(1 7.72166e-10 0)
(1 8.39456e-10 0)
(1 9.0208e-10 0)
(1 9.56303e-10 0)
(1 9.97303e-10 0)
(1 1.01904e-09 0)
(1 1.01421e-09 0)
(1 9.74093e-10 0)
(1 8.8815e-10 0)
(1 7.43384e-10 0)
(1 5.24049e-10 0)
(1 2.10231e-10 0)
(1 -2.23959e-10 0)
(1 -8.11241e-10 0)
(1 -1.59207e-09 0)
(1 -2.61535e-09 0)
(1 -3.93991e-09 0)
(1 -5.63698e-09 0)
(1 -7.79347e-09 0)
(1 -1.05155e-08 0)
(1 -1.39323e-08 0)
(1 -1.81991e-08 0)
(1 -2.35017e-08 0)
(1 -3.00597e-08 0)
(1 -3.81357e-08 0)
(1 -4.80496e-08 0)
(1 -6.01987e-08 0)
(1 -7.50762e-08 0)
(1 -9.32836e-08 0)
(1 -1.15535e-07 0)
(1 -1.42653e-07 0)
(1 -1.75551e-07 0)
(1 -2.15191e-07 0)
(1 -2.62547e-07 0)
(1 -3.1858e-07 0)
(1 -3.84244e-07 0)
(1 -4.60483e-07 0)
(1 -5.4818e-07 0)
(1 -6.48038e-07 0)
(1 -7.60393e-07 0)
(1 -8.84955e-07 0)
(1 -1.02039e-06 0)
(1.00001 -1.1637e-06 0)
(1.00001 -1.30934e-06 0)
(1.00001 -1.44854e-06 0)
(1.00001 -1.56902e-06 0)
(1.00001 -1.6561e-06 0)
(1.00001 -1.69477e-06 0)
(1.00001 -1.67196e-06 0)
(1.00001 -1.57857e-06 0)
(1.00001 -1.41449e-06 0)
(1.00002 -1.19902e-06 0)
(1.00002 -9.76932e-07 0)
(1.00002 -8.07302e-07 0)
(1.00002 -7.58721e-07 0)
(1.00002 -8.88906e-07 0)
(1.00002 -1.22353e-06 0)
(1.00002 -1.72386e-06 0)
(1.00002 -2.26599e-06 0)
(1.00002 -2.66357e-06 0)
(1.00002 -2.73963e-06 0)
(1.00003 -2.40781e-06 0)
(1.00003 -1.69886e-06 0)
(1.00003 -7.25786e-07 0)
(1.00003 3.78658e-07 0)
(1.00003 1.51187e-06 0)
(1.00003 2.62198e-06 0)
(1.00002 3.68947e-06 0)
(1.00002 4.69738e-06 0)
(1.00002 5.61747e-06 0)
(1.00001 6.41026e-06 0)
(1.00001 7.0261e-06 0)
(1 7.41083e-06 0)
(0.999997 7.52255e-06 0)
(0.999991 7.34585e-06 0)
(0.999986 6.88971e-06 0)
(0.999981 6.17605e-06 0)
(0.999977 5.23355e-06 0)
(0.999973 4.09888e-06 0)
(0.999971 2.81639e-06 0)
(0.999969 1.4342e-06 0)
(0.999969 -7.045e-09 0)
(0.999969 -1.46975e-06 0)
(0.999971 -2.92337e-06 0)
(0.999974 -4.34195e-06 0)
(0.999977 -5.70084e-06 0)
(0.999982 -6.97498e-06 0)
(0.999988 -8.13884e-06 0)
(0.999994 -9.16779e-06 0)
(1 -1.00386e-05 0)
(1.00001 -1.07263e-05 0)
(1.00002 -1.11967e-05 0)
(1.00003 -1.13957e-05 0)
(1.00003 -1.12595e-05 0)
(1.00004 -1.07444e-05 0)
(1.00005 -9.82281e-06 0)
(1.00006 -8.48452e-06 0)
(1.00006 -6.73595e-06 0)
(1.00007 -4.60225e-06 0)
(1.00007 -2.1311e-06 0)
(1.00007 6.00953e-07 0)
(1.00007 3.48613e-06 0)
(1.00006 6.39206e-06 0)
(1.00006 9.16829e-06 0)
(1.00005 1.1657e-05 0)
(1.00004 1.37088e-05 0)
(1.00003 1.51999e-05 0)
(1.00002 1.6046e-05 0)
(1.00001 1.62123e-05 0)
(0.999994 1.57158e-05 0)
(0.999982 1.46216e-05 0)
(0.999972 1.30363e-05 0)
(0.999963 1.10988e-05 0)
(0.999956 8.96311e-06 0)
(0.99995 6.77106e-06 0)
(0.999946 4.62821e-06 0)
(0.999944 2.59934e-06 0)
(0.999943 7.15491e-07 0)
(0.999943 -1.00711e-06 0)
(0.999944 -2.53957e-06 0)
(0.999947 -3.81351e-06 0)
(0.99995 -4.7235e-06 0)
(0.999954 -5.17386e-06 0)
(0.999959 -5.14153e-06 0)
(0.999962 -4.71298e-06 0)
(0.999966 -4.06789e-06 0)
(0.999968 -3.41033e-06 0)
(0.999971 -2.88765e-06 0)
(0.999973 -2.55326e-06 0)
(0.999974 -2.38747e-06 0)
(0.999976 -2.3384e-06 0)
(0.999978 -2.35015e-06 0)
(0.99998 -2.37619e-06 0)
(0.999981 -2.38485e-06 0)
(0.999983 -2.35932e-06 0)
(0.999985 -2.29441e-06 0)
(0.999987 -2.19265e-06 0)
(0.999988 -2.06096e-06 0)
(0.99999 -1.90806e-06 0)
(0.999991 -1.74272e-06 0)
(0.999992 -1.57274e-06 0)
(0.999993 -1.40451e-06 0)
(0.999994 -1.24281e-06 0)
(0.999995 -1.09098e-06 0)
(0.999996 -9.51058e-07 0)
(0.999996 -8.24074e-07 0)
(0.999997 -7.10276e-07 0)
(0.999998 -6.09355e-07 0)
(0.999998 -5.20627e-07 0)
(0.999998 -4.43181e-07 0)
(0.999999 -3.75993e-07 0)
(0.999999 -3.18e-07 0)
(0.999999 -2.6816e-07 0)
(0.999999 -2.25482e-07 0)
(0.999999 -1.89054e-07 0)
(1 -1.58046e-07 0)
(1 -1.31716e-07 0)
(1 -1.09409e-07 0)
(1 -9.05521e-08 0)
(1 -7.46443e-08 0)
(1 -6.12536e-08 0)
(1 -5.00072e-08 0)
(1 -4.05846e-08 0)
(1 -3.27107e-08 0)
(1 -2.61492e-08 0)
(1 -2.06972e-08 0)
(1 -1.61807e-08 0)
(1 -1.24501e-08 0)
(1 -9.37701e-09 0)
(1 -6.85304e-09 0)
(1 -4.78599e-09 0)
(1 -3.10018e-09 0)
(1 -1.73898e-09 0)
(1 -6.54125e-10 0)
(1 1.96146e-10 0)
(1 8.48857e-10 0)
(1 1.33642e-09 0)
(1 1.68664e-09 0)
(1 1.92317e-09 0)
(1 2.06596e-09 0)
(1 2.13181e-09 0)
(1 2.13484e-09 0)
(1 2.08688e-09 0)
(1 1.99759e-09 0)
(1 1.87461e-09 0)
(1 1.72785e-09 0)
(1 1.55305e-09 0)
(1 1.40048e-09 0)
(1 1.08075e-09 0)
(1 7.32441e-11 0)
(1 1.48647e-10 0)
(1 2.19057e-10 0)
(1 2.96491e-10 0)
(1 3.74207e-10 0)
(1 4.52919e-10 0)
(1 5.33128e-10 0)
(1 6.14977e-10 0)
(1 6.98861e-10 0)
(1 7.84975e-10 0)
(1 8.72702e-10 0)
(1 9.60384e-10 0)
(1 1.04528e-09 0)
(1 1.12346e-09 0)
(1 1.1897e-09 0)
(1 1.23754e-09 0)
(1 1.25945e-09 0)
(1 1.24705e-09 0)
(1 1.19103e-09 0)
(1 1.08045e-09 0)
(1 9.01276e-10 0)
(1 6.34916e-10 0)
(1 2.56478e-10 0)
(1 -2.66812e-10 0)
(1 -9.76004e-10 0)
(1 -1.92094e-09 0)
(1 -3.16134e-09 0)
(1 -4.76875e-09 0)
(1 -6.82979e-09 0)
(1 -9.45018e-09 0)
(1 -1.2759e-08 0)
(1 -1.69133e-08 0)
(1 -2.21024e-08 0)
(1 -2.8552e-08 0)
(1 -3.65298e-08 0)
(1 -4.63554e-08 0)
(1 -5.8418e-08 0)
(1 -7.32018e-08 0)
(1 -9.13078e-08 0)
(1 -1.13469e-07 0)
(1 -1.40554e-07 0)
(1 -1.73567e-07 0)
(1 -2.13621e-07 0)
(1 -2.61893e-07 0)
(1 -3.19573e-07 0)
(1 -3.87835e-07 0)
(1 -4.67851e-07 0)
(1 -5.60792e-07 0)
(1 -6.67772e-07 0)
(1 -7.89693e-07 0)
(1 -9.27027e-07 0)
(1 -1.0795e-06 0)
(1 -1.2456e-06 0)
(1.00001 -1.42177e-06 0)
(1.00001 -1.60135e-06 0)
(1.00001 -1.77365e-06 0)
(1.00001 -1.92366e-06 0)
(1.00001 -2.03293e-06 0)
(1.00001 -2.08182e-06 0)
(1.00001 -2.0531e-06 0)
(1.00001 -1.93722e-06 0)
(1.00001 -1.73853e-06 0)
(1.00002 -1.48061e-06 0)
(1.00002 -1.20708e-06 0)
(1.00002 -9.78346e-07 0)
(1.00002 -8.74642e-07 0)
(1.00002 -9.76652e-07 0)
(1.00002 -1.32842e-06 0)
(1.00002 -1.89141e-06 0)
(1.00002 -2.51667e-06 0)
(1.00002 -2.97269e-06 0)
(1.00002 -3.03915e-06 0)
(1.00003 -2.60983e-06 0)
(1.00003 -1.73092e-06 0)
(1.00003 -5.50881e-07 0)
(1.00003 7.63635e-07 0)
(1.00003 2.09383e-06 0)
(1.00003 3.38342e-06 0)
(1.00002 4.61553e-06 0)
(1.00002 5.77485e-06 0)
(1.00002 6.83025e-06 0)
(1.00001 7.73632e-06 0)
(1.00001 8.43417e-06 0)
(1 8.85811e-06 0)
(0.999997 8.95767e-06 0)
(0.999991 8.71626e-06 0)
(0.999986 8.14734e-06 0)
(0.999981 7.27862e-06 0)
(0.999976 6.14415e-06 0)
(0.999973 4.78621e-06 0)
(0.99997 3.25517e-06 0)
(0.999969 1.60253e-06 0)
(0.999968 -1.21884e-07 0)
(0.999969 -1.87747e-06 0)
(0.99997 -3.6278e-06 0)
(0.999973 -5.34012e-06 0)
(0.999977 -6.98356e-06 0)
(0.999982 -8.52653e-06 0)
(0.999987 -9.93416e-06 0)
(0.999994 -1.11667e-05 0)
(1 -1.21796e-05 0)
(1.00001 -1.2926e-05 0)
(1.00002 -1.336e-05 0)
(1.00003 -1.34368e-05 0)
(1.00003 -1.31176e-05 0)
(1.00004 -1.23777e-05 0)
(1.00005 -1.11953e-05 0)
(1.00006 -9.55589e-06 0)
(1.00006 -7.45931e-06 0)
(1.00007 -4.92875e-06 0)
(1.00007 -2.01789e-06 0)
(1.00007 1.18588e-06 0)
(1.00007 4.56237e-06 0)
(1.00006 7.95687e-06 0)
(1.00006 1.1191e-05 0)
(1.00005 1.40786e-05 0)
(1.00004 1.64441e-05 0)
(1.00003 1.81425e-05 0)
(1.00002 1.90766e-05 0)
(1.00001 1.92078e-05 0)
(0.999993 1.85596e-05 0)
(0.999982 1.72114e-05 0)
(0.999971 1.52913e-05 0)
(0.999963 1.29657e-05 0)
(0.999955 1.04191e-05 0)
(0.99995 7.81929e-06 0)
(0.999946 5.2868e-06 0)
(0.999943 2.88986e-06 0)
(0.999942 6.57804e-07 0)
(0.999942 -1.39592e-06 0)
(0.999944 -3.23886e-06 0)
(0.999947 -4.78322e-06 0)
(0.99995 -5.88959e-06 0)
(0.999954 -6.42898e-06 0)
(0.999959 -6.36588e-06 0)
(0.999963 -5.80727e-06 0)
(0.999966 -4.98228e-06 0)
(0.999969 -4.15176e-06 0)
(0.999971 -3.50116e-06 0)
(0.999973 -3.09319e-06 0)
(0.999974 -2.89782e-06 0)
(0.999976 -2.84684e-06 0)
(0.999978 -2.86916e-06 0)
(0.99998 -2.90665e-06 0)
(0.999981 -2.92042e-06 0)
(0.999983 -2.89036e-06 0)
(0.999985 -2.81076e-06 0)
(0.999987 -2.68527e-06 0)
(0.999988 -2.52283e-06 0)
(0.99999 -2.33441e-06 0)
(0.999991 -2.13092e-06 0)
(0.999992 -1.92202e-06 0)
(0.999993 -1.71552e-06 0)
(0.999994 -1.51727e-06 0)
(0.999995 -1.3313e-06 0)
(0.999996 -1.16008e-06 0)
(0.999997 -1.00482e-06 0)
(0.999997 -8.65779e-07 0)
(0.999998 -7.42547e-07 0)
(0.999998 -6.34261e-07 0)
(0.999998 -5.39789e-07 0)
(0.999999 -4.57861e-07 0)
(0.999999 -3.87169e-07 0)
(0.999999 -3.26432e-07 0)
(0.999999 -2.74438e-07 0)
(0.999999 -2.30067e-07 0)
(1 -1.92305e-07 0)
(1 -1.60246e-07 0)
(1 -1.33089e-07 0)
(1 -1.10133e-07 0)
(1 -9.07667e-08 0)
(1 -7.44596e-08 0)
(1 -6.07554e-08 0)
(1 -4.92616e-08 0)
(1 -3.96425e-08 0)
(1 -3.16121e-08 0)
(1 -2.49271e-08 0)
(1 -1.93815e-08 0)
(1 -1.48003e-08 0)
(1 -1.10356e-08 0)
(1 -7.96078e-09 0)
(1 -5.46646e-09 0)
(1 -3.45905e-09 0)
(1 -1.8605e-09 0)
(1 -6.02413e-10 0)
(1 3.73655e-10 0)
(1 1.11651e-09 0)
(1 1.6665e-09 0)
(1 2.05713e-09 0)
(1 2.3163e-09 0)
(1 2.46731e-09 0)
(1 2.52964e-09 0)
(1 2.51962e-09 0)
(1 2.45085e-09 0)
(1 2.33464e-09 0)
(1 2.17987e-09 0)
(1 1.9976e-09 0)
(1 1.78252e-09 0)
(1 1.59333e-09 0)
(1 1.20653e-09 0)
(1 8.65092e-11 0)
(1 1.75563e-10 0)
(1 2.58758e-10 0)
(1 3.50337e-10 0)
(1 4.42283e-10 0)
(1 5.35386e-10 0)
(1 6.30158e-10 0)
(1 7.26667e-10 0)
(1 8.2529e-10 0)
(1 9.26229e-10 0)
(1 1.02882e-09 0)
(1 1.13124e-09 0)
(1 1.23044e-09 0)
(1 1.32198e-09 0)
(1 1.40003e-09 0)
(1 1.45742e-09 0)
(1 1.48571e-09 0)
(1 1.47525e-09 0)
(1 1.41488e-09 0)
(1 1.29097e-09 0)
(1 1.08611e-09 0)
(1 7.77598e-10 0)
(1 3.35878e-10 0)
(1 -2.77103e-10 0)
(1 -1.10896e-09 0)
(1 -2.21786e-09 0)
(1 -3.67373e-09 0)
(1 -5.56063e-09 0)
(1 -7.98042e-09 0)
(1 -1.10575e-08 0)
(1 -1.49436e-08 0)
(1 -1.98235e-08 0)
(1 -2.59198e-08 0)
(1 -3.34982e-08 0)
(1 -4.28738e-08 0)
(1 -5.44222e-08 0)
(1 -6.86013e-08 0)
(1 -8.59809e-08 0)
(1 -1.07269e-07 0)
(1 -1.33328e-07 0)
(1 -1.65181e-07 0)
(1 -2.0401e-07 0)
(1 -2.51127e-07 0)
(1 -3.07926e-07 0)
(1 -3.75809e-07 0)
(1 -4.56166e-07 0)
(1 -5.50388e-07 0)
(1 -6.59885e-07 0)
(1 -7.86016e-07 0)
(1 -9.2991e-07 -3.09768e-43)
(1 -1.09221e-06 -1.12224e-43)
(1 -1.27271e-06 0)
(1 -1.46979e-06 0)
(1 -1.67947e-06 0)
(1.00001 -1.89402e-06 0)
(1.00001 -2.10081e-06 0)
(1.00001 -2.2818e-06 0)
(1.00001 -2.41469e-06 0)
(1.00001 -2.47584e-06 0)
(1.00001 -2.4446e-06 0)
(1.00001 -2.30839e-06 0)
(1.00001 -2.06881e-06 0)
(1.00002 -1.74964e-06 0)
(1.00002 -1.40348e-06 0)
(1.00002 -1.11242e-06 0)
(1.00002 -9.83376e-07 0)
(1.00002 -1.12126e-06 0)
(1.00002 -1.58338e-06 0)
(1.00002 -2.32324e-06 0)
(1.00002 -3.1532e-06 0)
(1.00002 -3.77741e-06 0)
(1.00002 -3.91195e-06 0)
(1.00003 -3.42183e-06 0)
(1.00003 -2.36589e-06 0)
(1.00003 -9.3106e-07 0)
(1.00003 6.73373e-07 0)
(1.00003 2.29575e-06 0)
(1.00003 3.86929e-06 0)
(1.00002 5.37802e-06 0)
(1.00002 6.80504e-06 0)
(1.00002 8.11194e-06 0)
(1.00001 9.24264e-06 0)
(1.00001 1.01237e-05 0)
(1 1.06717e-05 0)
(0.999997 1.08222e-05 0)
(0.999991 1.05545e-05 0)
(0.999985 9.88599e-06 0)
(0.99998 8.85075e-06 0)
(0.999976 7.49006e-06 0)
(0.999972 5.85603e-06 0)
(0.99997 4.01165e-06 0)
(0.999968 2.02284e-06 0)
(0.999968 -5.12689e-08 0)
(0.999968 -2.15907e-06 0)
(0.99997 -4.25668e-06 0)
(0.999973 -6.30626e-06 0)
(0.999976 -8.27251e-06 0)
(0.999981 -1.01191e-05 0)
(0.999987 -1.1807e-05 0)
(0.999994 -1.32935e-05 0)
(1 -1.45334e-05 0)
(1.00001 -1.54788e-05 0)
(1.00002 -1.60779e-05 0)
(1.00003 -1.6272e-05 0)
(1.00003 -1.60011e-05 0)
(1.00004 -1.52149e-05 0)
(1.00005 -1.38739e-05 0)
(1.00006 -1.19552e-05 0)
(1.00006 -9.45845e-06 0)
(1.00007 -6.41301e-06 0)
(1.00007 -2.88389e-06 0)
(1.00007 1.0219e-06 0)
(1.00007 5.15261e-06 0)
(1.00007 9.31755e-06 0)
(1.00006 1.32978e-05 0)