/*--------------------------------*- C++ -*----------------------------------*\
| =========                 |                                                 |
| \\      /  F ield         | OpenFOAM: The Open Source CFD Toolbox           |
|  \\    /   O peration     | Version:  v2006                                 |
|   \\  /    A nd           | Website:  www.openfoam.com                      |
|    \\/     M anipulation  |                                                 |
\*---------------------------------------------------------------------------*/
FoamFile
{
    version     2.0;
    format      ascii;
    class       volScalarField;
    location    "0";
    object      f;
}
// * * * * * * * * * * * * * * * * * * * * * * * * * * * * * * * * * * * * * //

dimensions      [0 0 0 0 0 0 0];


internalField   nonuniform List<scalar> 
2500
(
-1.3183e-22
-1.31737e-22
-1.31031e-22
-1.28252e-22
-1.21287e-22
-1.08783e-22
-9.13994e-23
-7.11779e-23
-4.9492e-23
-2.68175e-23
-5.01771e-24
1.15329e-23
1.85041e-23
1.55558e-23
7.34831e-24
2.49663e-25
-2.15952e-24
-6.79649e-25
1.62618e-24
2.48812e-24
1.65188e-24
1.09761e-25
-1.13816e-24
-1.6835e-24
-1.62893e-24
-1.26798e-24
-8.51003e-25
-5.09462e-25
-2.77532e-25
-1.39361e-25
-6.50738e-26
-2.84264e-26
-1.16624e-26
-4.50312e-27
-1.63666e-27
-5.58631e-28
-1.77987e-28
-5.22583e-29
-1.37478e-29
-3.01471e-30
-4.11159e-31
6.81827e-32
8.82533e-32
4.87813e-32
2.15183e-32
8.45523e-33
3.08249e-33
1.06368e-33
3.51425e-34
1.11974e-34
-4.90187e-22
-4.89875e-22
-4.8755e-22
-4.77879e-22
-4.52418e-22
-4.05308e-22
-3.39581e-22
-2.65163e-22
-1.88408e-22
-1.09085e-22
-3.05912e-23
3.24607e-23
6.23614e-23
5.46241e-23
2.46637e-23
-3.1086e-24
-1.32719e-23
-7.53019e-24
2.39314e-24
7.07582e-24
5.00342e-24
-1.43235e-25
-4.45904e-24
-6.29639e-24
-5.98888e-24
-4.60758e-24
-3.06129e-24
-1.8155e-24
-9.80167e-25
-4.87976e-25
-2.25995e-25
-9.79527e-26
-3.98898e-26
-1.52949e-26
-5.5227e-27
-1.87374e-27
-5.93829e-28
-1.73604e-28
-4.55588e-29
-1.00126e-29
-1.40157e-30
1.95347e-31
2.74796e-31
1.53076e-31
6.7601e-32
2.65515e-32
9.67329e-33
3.33662e-33
1.10247e-33
3.51528e-34
-1.75229e-21
-1.7513e-21
-1.74429e-21
-1.71306e-21
-1.62504e-21
-1.45478e-21
-1.21471e-21
-9.50609e-22
-6.91192e-22
-4.27086e-22
-1.55235e-22
7.88953e-23
2.04594e-22
1.91482e-22
8.62492e-23
-2.03381e-23
-6.33415e-23
-4.28369e-23
-2.3226e-24
1.98345e-23
1.56737e-23
-1.39905e-24
-1.63349e-23
-2.26074e-23
-2.12801e-23
-1.62173e-23
-1.06727e-23
-6.26917e-24
-3.35261e-24
-1.65356e-24
-7.58838e-25
-3.25988e-25
-1.31609e-25
-5.00383e-26
-1.79193e-26
-6.03052e-27
-1.8959e-27
-5.49793e-28
-1.43071e-28
-3.11377e-29
-4.28132e-30
6.32129e-31
8.54587e-31
4.7151e-31
2.06942e-31
8.09082e-32
2.93785e-32
1.01116e-32
3.33758e-33
1.06431e-33
-6.00943e-21
-6.00638e-21
-5.98758e-21
-5.89622e-21
-5.61121e-21
-5.02195e-21
-4.17383e-21
-3.27037e-21
-2.43912e-21
-1.61194e-21
-7.12001e-22
1.33764e-22
6.50608e-22
6.71146e-22
3.17577e-22
-8.37172e-23
-2.65481e-22
-1.99333e-22
-4.11051e-23
5.56541e-23
5.18774e-23
-4.56053e-24
-5.63586e-23
-7.81052e-23
-7.3155e-23
-5.53105e-23
-3.60601e-23
-2.09696e-23
-1.10989e-23
-5.41776e-24
-2.46085e-24
-1.04644e-24
-4.18221e-25
-1.5741e-25
-5.57973e-26
-1.85817e-26
-5.77743e-27
-1.655e-27
-4.24321e-28
-9.02986e-29
-1.16298e-29
2.25222e-30
2.63584e-30
1.41634e-30
6.13159e-31
2.37575e-31
8.57294e-32
2.93866e-32
9.6789e-33
3.08527e-33
-1.97267e-20
-1.97174e-20
-1.96751e-20
-1.94452e-20
-1.85961e-20
-1.6646e-20
-1.37393e-20
-1.07568e-20
-8.25842e-21
-5.87142e-21
-3.05224e-21
-8.77354e-23
1.98737e-21
2.34893e-21
1.22377e-21
-2.57418e-22
-1.02071e-21
-8.37176e-22
-2.42378e-22
1.58714e-22
1.8246e-22
-3.68509e-24
-1.83684e-22
-2.60095e-22
-2.4352e-22
-1.82838e-22
-1.18049e-22
-6.79002e-23
-3.55296e-23
-1.71426e-23
-7.696e-24
-3.23442e-24
-1.27743e-24
-4.75008e-25
-1.66271e-25
-5.46363e-26
-1.67391e-26
-4.71317e-27
-1.18142e-27
-2.42032e-28
-2.72314e-29
8.25031e-30
7.95982e-30
4.10519e-30
1.73987e-30
6.64847e-31
2.37634e-31
8.09525e-32
2.65749e-32
8.46574e-33
-6.18286e-20
-6.18002e-20
-6.1731e-20
-6.13076e-20
-5.90657e-20
-5.29015e-20
-4.31814e-20
-3.36453e-20
-2.67232e-20
-2.06507e-20
-1.24398e-20
-2.39184e-21
5.73339e-21
8.18037e-21
4.84822e-21
-5.06487e-22
-3.67468e-21
-3.30435e-21
-1.14181e-21
4.63636e-22
6.73484e-22
6.07848e-23
-5.65349e-22
-8.36031e-22
-7.85577e-22
-5.8588e-22
-3.74277e-22
-2.12655e-22
-1.09841e-22
-5.22986e-23
-2.31653e-23
-9.60352e-24
-3.74003e-24
-1.37052e-24
-4.72318e-25
-1.52577e-25
-4.58447e-26
-1.26057e-26
-3.05776e-27
-5.89878e-28
-5.03198e-29
2.91638e-29
2.30827e-29
1.12872e-29
4.64516e-30
1.74019e-30
6.13449e-31
2.07113e-31
6.76845e-32
2.15542e-32
-1.84522e-19
-1.84431e-19
-1.84398e-19
-1.84343e-19
-1.79603e-19
-1.61002e-19
-1.28978e-19
-9.92247e-20
-8.21067e-20
-7.01126e-20
-4.86645e-20
-1.58759e-20
1.51294e-20
2.82585e-20
1.93872e-20
4.35144e-22
-1.25142e-20
-1.25277e-20
-4.8977e-21
1.38079e-21
2.55527e-21
5.41684e-22
-1.63666e-21
-2.59732e-21
-2.45776e-21
-1.81987e-21
-1.14853e-21
-6.43401e-22
-3.27394e-22
-1.53507e-22
-6.69365e-23
-2.73054e-23
-1.04563e-23
-3.76347e-24
-1.2718e-24
-4.01853e-25
-1.17636e-25
-3.12945e-26
-7.23525e-27
-1.26736e-27
-4.97719e-29
9.49627e-29
6.24097e-29
2.85697e-29
1.12878e-29
4.10641e-30
1.4173e-30
4.72062e-31
1.53341e-31
4.88944e-32
-5.22755e-19
-5.22449e-19
-5.22664e-19
-5.27218e-19
-5.22572e-19
-4.68933e-19
-3.63548e-19
-2.71797e-19
-2.36758e-19
-2.29495e-19
-1.83738e-19
-8.1251e-20
3.40387e-20
9.6898e-20
7.73813e-20
1.16072e-20
-4.04162e-20
-4.62164e-20
-2.00614e-20
4.12802e-21
9.79196e-21
3.16727e-21
-4.41437e-21
-7.81091e-21
-7.46397e-21
-5.47916e-21
-3.40795e-21
-1.87745e-21
-9.38683e-22
-4.32245e-22
-1.85011e-22
-7.4022e-23
-2.77659e-23
-9.7703e-24
-3.21876e-24
-9.87297e-25
-2.7871e-25
-7.06719e-26
-1.51757e-26
-2.24311e-27
1.07906e-28
2.71765e-28
1.4903e-28
6.23925e-29
2.30791e-29
7.96189e-30
2.63829e-30
8.56123e-31
2.7556e-31
8.85842e-32
-1.40098e-18
-1.39995e-18
-1.40012e-18
-1.42982e-18
-1.45568e-18
-1.30739e-18
-9.55533e-19
-6.71016e-19
-6.26483e-19
-7.2285e-19
-6.71902e-19
-3.66476e-19
5.1445e-20
3.3256e-19
3.07552e-19
8.23837e-20
-1.22962e-19
-1.67086e-19
-8.01796e-20
1.21447e-20
3.75384e-20
1.55723e-20
-1.08783e-20
-2.27897e-20
-2.20283e-20
-1.59856e-20
-9.76469e-21
-5.27161e-21
-2.58079e-21
-1.16298e-21
-4.86719e-22
-1.90133e-22
-6.94758e-23
-2.37339e-23
-7.55248e-24
-2.2207e-24
-5.93732e-25
-1.39506e-25
-2.63532e-26
-2.65229e-27
7.53727e-28
6.22393e-28
2.71425e-28
9.48017e-29
2.91189e-29
8.24601e-30
2.25636e-30
6.35765e-31
1.9734e-31
6.90841e-32
-3.53768e-18
-3.53443e-18
-3.52705e-18
-3.66342e-18
-3.89035e-18
-3.4954e-18
-2.28894e-18
-1.38678e-18
-1.44804e-18
-2.18917e-18
-2.3882e-18
-1.52113e-18
-4.3358e-20
1.16147e-18
1.22148e-18
4.51214e-19
-3.44829e-19
-5.93602e-19
-3.15776e-19
3.43814e-20
1.43614e-19
6.93387e-20
-2.34977e-20
-6.47786e-20
-6.32893e-20
-4.51779e-20
-2.69648e-20
-1.41977e-20
-6.77444e-21
-2.97304e-21
-1.20992e-21
-4.58394e-22
-1.61761e-22
-5.302e-23
-1.6028e-23
-4.4076e-24
-1.07308e-24
-2.17626e-25
-3.03198e-26
4.38293e-28
2.05372e-27
7.49419e-28
1.05493e-28
-5.06949e-29
-5.05917e-29
-2.72869e-29
-1.16307e-29
-4.27458e-30
-1.39691e-30
-4.08877e-31
-8.3775e-18
-8.36869e-18
-8.29916e-18
-8.82216e-18
-1.00165e-17
-9.00262e-18
-4.74677e-18
-1.80208e-18
-2.53013e-18
-6.39597e-18
-8.29441e-18
-5.92781e-18
-8.30745e-19
4.19986e-18
4.86602e-18
2.17753e-18
-8.446e-19
-2.07262e-18
-1.23071e-18
8.9763e-20
5.49298e-19
2.89223e-19
-4.00866e-20
-1.8083e-19
-1.77501e-19
-1.23611e-19
-7.15623e-20
-3.65081e-20
-1.68703e-20
-7.16074e-21
-2.81033e-21
-1.02139e-21
-3.42769e-22
-1.05347e-22
-2.91652e-23
-7.03605e-24
-1.37004e-24
-1.65736e-25
1.1066e-26
1.0866e-26
3.9348e-28
-2.67966e-27
-2.2549e-27
-1.27154e-27
-5.91132e-28
-2.42335e-28
-9.03447e-29
-3.11316e-29
-1.00032e-29
-3.00937e-30
-1.84968e-17
-1.84806e-17
-1.8056e-17
-1.97964e-17
-2.49895e-17
-2.25483e-17
-7.27671e-18
2.51266e-18
-9.25087e-19
-1.81719e-17
-2.83554e-17
-2.19891e-17
-4.84241e-18
1.57261e-17
1.94218e-17
9.60995e-18
-1.54155e-18
-7.11305e-18
-4.75691e-18
1.83239e-19
2.1075e-18
1.15129e-18
-3.49074e-20
-5.03194e-19
-4.87935e-19
-3.27077e-19
-1.81731e-19
-8.90082e-20
-3.94707e-20
-1.60335e-20
-5.98409e-21
-2.04403e-21
-6.31288e-22
-1.71678e-22
-3.86549e-23
-5.91331e-24
1.2088e-25
4.85949e-25
1.77627e-25
1.06571e-26
-3.05852e-26
-2.6476e-26
-1.52235e-26
-7.25155e-27
-3.06268e-27
-1.18269e-27
-4.24578e-28
-1.43093e-28
-4.55443e-29
-1.37364e-29
-3.77806e-17
-3.77934e-17
-3.56867e-17
-4.06378e-17
-6.05369e-17
-5.5904e-17
-1.22091e-18
3.1178e-17
1.93026e-17
-4.99131e-17
-9.63254e-17
-7.89336e-17
-2.22453e-17
5.87418e-17
7.74734e-17
3.90478e-17
-5.11236e-19
-2.40716e-17
-1.82909e-17
-3.19657e-20
8.14541e-18
4.42802e-18
6.59957e-20
-1.4301e-18
-1.32152e-18
-8.34889e-19
-4.3844e-19
-2.03459e-19
-8.53811e-20
-3.25954e-20
-1.12538e-20
-3.44323e-21
-8.87632e-22
-1.64779e-22
-3.62648e-24
1.47192e-23
8.35069e-24
2.83661e-24
4.82586e-25
-1.68029e-25
-2.18746e-25
-1.39969e-25
-7.08425e-26
-3.13514e-26
-1.26228e-26
-4.71777e-27
-1.65604e-27
-5.49953e-28
-1.73595e-28
-5.22368e-29
-7.05512e-17
-7.08742e-17
-6.18624e-17
-7.26093e-17
-1.38657e-16
-1.42116e-16
5.22038e-17
1.56883e-16
1.30754e-16
-1.20938e-16
-3.35681e-16
-2.86538e-16
-9.13218e-17
2.11822e-16
3.21073e-16
1.45239e-16
1.11895e-17
-8.09396e-17
-7.07678e-17
-3.83927e-18
3.20058e-17
1.66954e-17
1.47443e-19
-4.27917e-18
-3.54167e-18
-2.0431e-18
-9.91974e-19
-4.2756e-19
-1.65758e-19
-5.72788e-20
-1.70216e-20
-3.90716e-21
-3.76371e-22
2.54669e-22
2.10054e-22
9.97696e-23
3.50155e-23
8.32544e-24
1.029e-25
-1.37923e-24
-1.07707e-24
-5.95285e-25
-2.79262e-25
-1.17817e-25
-4.58991e-26
-1.67539e-26
-5.78097e-27
-1.89657e-27
-5.9388e-28
-1.77953e-28
-1.18084e-16
-1.20093e-16
-8.73745e-17
-9.28628e-17
-2.96151e-16
-4.08292e-16
3.57097e-16
9.09598e-16
7.48581e-16
-5.8486e-16
-1.35164e-15
-1.15508e-15
-3.24158e-16
2.59851e-15
1.56991e-15
4.70568e-16
4.97617e-17
-3.03232e-16
-2.9277e-16
-3.11588e-17
1.3266e-16
6.37177e-17
-2.86815e-18
-1.37756e-17
-9.36665e-18
-4.71795e-18
-2.05107e-18
-7.94259e-19
-2.70175e-19
-7.56414e-20
-1.34616e-20
1.86066e-21
3.36283e-21
2.09085e-21
9.58359e-22
3.52764e-22
9.95954e-23
1.45901e-23
-5.98208e-24
-7.06723e-24
-4.4203e-24
-2.22545e-24
-9.88943e-25
-4.02385e-25
-1.52737e-25
-5.46802e-26
-1.85925e-26
-6.03274e-27
-1.87403e-27
-5.58593e-28
-1.71256e-16
-1.80096e-16
-8.97318e-17
5.07712e-17
-4.9488e-15
-1.38414e-15
3.58743e-15
9.83625e-15
3.38273e-15
-1.98152e-14
-4.72131e-15
-2.84081e-15
4.53364e-14
2.91671e-14
5.0846e-15
9.62704e-16
-4.8711e-15
-3.68445e-15
-1.49656e-15
-1.47874e-16
8.18398e-16
2.63507e-16
-3.74313e-17
-4.74301e-17
-2.38482e-17
-9.86631e-18
-3.65339e-18
-1.18258e-18
-2.95467e-19
-2.43442e-20
3.28483e-20
2.96053e-20
1.6984e-20
7.83187e-21
3.02974e-21
9.57252e-22
2.092e-22
-4.09908e-24
-3.88777e-23
-2.92596e-23
-1.60648e-23
-7.56586e-24
-3.22331e-24
-1.27325e-24
-4.72751e-25
-1.66391e-25
-5.58271e-26
-1.79257e-26
-5.52371e-27
-1.63666e-27
-2.05422e-16
-2.39818e-16
9.47682e-16
-1.27497e-14
-4.77771e-14
8.45212e-14
1.9045e-14
4.30351e-14
-4.33198e-13
-1.98508e-13
5.48039e-13
7.46706e-13
5.06376e-13
1.01592e-13
-2.52457e-13
-2.02784e-13
-9.2129e-14
-2.87199e-14
-5.00642e-15
1.64877e-14
7.95068e-15
9.43547e-16
-3.91286e-16
-1.66769e-16
-5.32778e-17
-1.65699e-17
-4.68998e-18
-9.15171e-19
1.25803e-19
2.8368e-19
2.10893e-19
1.18272e-19
5.58329e-20
2.27158e-20
7.82539e-21
2.08565e-21
2.5168e-22
-1.66241e-22
-1.72321e-22
-1.05608e-22
-5.31186e-23
-2.37689e-23
-9.78201e-24
-3.76716e-24
-1.37161e-24
-4.75308e-25
-1.57486e-25
-5.0055e-26
-1.52978e-26
-4.50328e-27
6.61179e-13
3.75633e-13
5.13875e-14
-1.53273e-13
-1.36407e-13
9.02529e-13
-3.3648e-13
-2.74e-12
-2.99076e-12
-6.31357e-13
3.63778e-12
4.11211e-12
1.51043e-12
-4.7611e-12
-3.81131e-12
-1.21497e-12
-2.71208e-13
-7.05559e-14
3.1444e-13
1.71828e-13
2.6779e-14
-1.13297e-14
-3.75431e-15
-4.29562e-16
-6.72249e-17
-1.23623e-17
-4.34805e-19
2.01208e-18
1.92339e-18
1.28686e-18
7.19092e-19
3.5053e-19
1.50263e-19
5.5798e-20
1.69549e-20
3.34544e-21
-3.85204e-22
-8.91661e-22
-6.32981e-22
-3.43433e-22
-1.62005e-22
-6.9561e-23
-2.7794e-23
-1.0465e-23
-3.7426e-24
-1.27813e-24
-4.18398e-25
-1.31648e-25
-3.98969e-26
-1.1663e-26
4.93932e-12
4.606e-12
2.42264e-12
-4.51702e-13
5.30782e-12
2.94998e-12
-7.84889e-12
-1.60281e-11
-7.38786e-12
1.93324e-11
7.73931e-12
9.42364e-12
-4.58247e-11
-3.92132e-11
-1.0704e-11
-1.98094e-12
1.12815e-12
5.29688e-12
2.69054e-12
4.82223e-13
-2.71026e-13
-1.066e-13
-1.04627e-14
4.91118e-16
1.35949e-16
4.07478e-17
1.90244e-17
1.13968e-17
6.86599e-18
3.82624e-18
1.93459e-18
8.77411e-19
3.50357e-19
1.18122e-19
2.95124e-20
1.81167e-21
-3.93032e-21
-3.4533e-21
-2.04812e-21
-1.02295e-21
-4.58959e-22
-1.90326e-22
-7.40849e-23
-2.73248e-23
-9.60915e-24
-3.23595e-24
-1.04682e-24
-3.26073e-25
-9.7968e-26
-2.84277e-26
1.3127e-11
1.38548e-11
1.63309e-11
1.72391e-11
3.08691e-11
-2.15089e-11
-1.95636e-11
-3.67815e-11
1.40436e-10
3.65641e-10
-2.0069e-10
-7.03565e-10
-4.49995e-10
-1.07409e-10
8.81137e-11
1.83898e-10
1.13597e-10
4.00694e-11
6.66744e-12
-5.54049e-12
-2.2905e-12
-2.5118e-13
1.50519e-14
4.14928e-15
5.12762e-16
1.21432e-16
5.40068e-17
3.07688e-17
1.74786e-17
9.25096e-18
4.47599e-18
1.93382e-18
7.18387e-19
2.10438e-19
3.25996e-20
-1.35835e-20
-1.70765e-20
-1.12768e-20
-5.99321e-21
-2.81374e-21
-1.21113e-21
-4.87127e-22
-1.85141e-22
-6.69763e-23
-2.31767e-23
-7.69908e-24
-2.46161e-24
-7.59005e-25
-2.26024e-25
-6.50759e-26
2.2075e-11
2.83733e-11
5.0236e-11
1.15625e-10
7.53135e-11
-2.08174e-10
5.65788e-10
2.93647e-09
3.60349e-09
1.33531e-09
-4.08828e-09
-4.87724e-09
-1.56928e-09
1.44455e-09
2.712e-09
1.65538e-09
5.41455e-10
8.99375e-11
-9.28339e-11
-4.09398e-11
-5.02496e-12
2.88831e-13
9.24605e-14
7.88666e-15
-4.77997e-17
5.16474e-17
8.28189e-17
6.3427e-17
3.74335e-17
1.9545e-17
9.24778e-18
3.82322e-18
1.28483e-18
2.82529e-19
-2.49287e-20
-7.59142e-20
-5.73974e-20
-3.26439e-20
-1.60523e-20
-7.16763e-21
-2.97544e-21
-1.16378e-21
-4.32498e-22
-1.53582e-22
-5.23201e-23
-1.71483e-23
-5.41914e-24
-1.65385e-24
-4.88023e-25
-1.39363e-25
2.78111e-11
9.62993e-11
1.07412e-10
4.08466e-10
3.24133e-11
-2.98603e-10
1.00988e-08
2.19383e-08
1.70841e-08
-9.2671e-09
-1.86955e-08
-1.00857e-08
-2.37308e-09
1.66339e-08
1.1251e-08
3.7746e-09
9.45044e-10
-1.28159e-09
-5.9448e-10
-8.2814e-11
4.31603e-12
1.51222e-12
1.49147e-13
-3.75195e-15
-1.15115e-15
-1.16905e-16
1.61403e-16
1.35684e-16
7.46498e-17
3.74218e-17
1.7467e-17
6.85781e-18
1.91856e-18
1.23264e-19
-2.96693e-19
-2.70727e-19
-1.65991e-19
-8.54745e-20
-3.95062e-20
-1.68831e-20
-6.77885e-21
-2.58223e-21
-9.39134e-22
-3.27528e-22
-1.09878e-22
-3.55392e-23
-1.11012e-23
-3.35306e-24
-9.80228e-25
-2.77528e-25
1.7219e-11
2.38903e-10
1.45619e-10
8.6796e-10
-3.94156e-09
1.0479e-08
3.50661e-08
4.54484e-08
2.94551e-08
-1.177e-07
-4.59817e-08
7.41399e-08
1.75976e-07
6.09177e-08
1.83951e-08
-1.35828e-08
-2.41341e-08
-8.69231e-09
-1.11749e-09
5.30696e-11
2.00885e-11
2.3178e-12
-5.08164e-14
-1.61071e-14
-2.30957e-15
7.55047e-18
6.7435e-16
3.30933e-16
1.35645e-16
6.33868e-17
3.07392e-17
1.13786e-17
2.00215e-18
-9.20124e-19
-1.18488e-18
-7.95266e-19
-4.27977e-19
-2.03622e-19
-8.90694e-20
-3.65299e-20
-1.42051e-20
-5.274e-21
-1.87818e-21
-6.43615e-22
-2.12714e-22
-6.79148e-23
-2.09728e-23
-6.26974e-24
-1.81554e-24
-5.09436e-25
-1.00596e-07
-8.64439e-08
-2.0255e-07
-3.0857e-07
-1.07016e-07
2.2517e-08
5.98635e-08
-2.1259e-07
-1.27596e-06
-4.97082e-07
9.82195e-07
2.34655e-06
1.32079e-06
5.32318e-08
-8.89022e-07
-6.35647e-07
-1.96017e-07
-1.81389e-08
4.66705e-10
2.02105e-10
3.30777e-11
-3.83941e-13
-1.41085e-13
-2.03421e-14
2.29966e-14
1.70229e-14
4.80261e-15
6.74263e-16
1.61284e-16
8.27255e-17
5.39458e-17
1.89896e-17
-4.52655e-19
-4.6985e-18
-3.65723e-18
-2.05271e-18
-9.92641e-19
-4.38699e-19
-1.81827e-19
-7.15961e-20
-2.69762e-20
-9.76831e-21
-3.40904e-21
-1.14884e-21
-3.74359e-22
-1.18068e-22
-3.6064e-23
-1.06732e-23
-3.06122e-24
-8.50919e-25
-2.081e-06
-2.06715e-06
-2.14131e-06
-2.24823e-06
-1.57753e-06
-5.6985e-07
-3.69782e-06
-7.83135e-06
-7.05978e-06
-5.67407e-07
9.26256e-06
1.0346e-05
3.36324e-06
-8.54811e-06
-6.74518e-06
-2.69402e-06
-4.99661e-07
2.34907e-10
9.57373e-10
2.95894e-10
2.4402e-11
-2.06462e-13
-1.04818e-13
1.48114e-13
2.27045e-13
1.03287e-13
1.70235e-14
7.34695e-18
-1.17172e-16
5.14726e-17
1.21325e-16
4.06893e-17
-1.23901e-17
-1.65826e-17
-9.87186e-18
-4.72029e-18
-2.04405e-18
-8.35254e-19
-3.27212e-19
-1.23658e-19
-4.51936e-20
-1.59905e-20
-5.48061e-21
-1.82027e-21
-5.85979e-22
-1.82858e-22
-5.53134e-23
-1.62171e-23
-4.60718e-24
-1.26776e-24
-7.68607e-06
-7.74032e-06
-6.84389e-06
-5.6592e-06
-5.92002e-06
-1.05764e-05
-2.22803e-05
-3.05035e-05
-1.53415e-05
1.34246e-05
3.38025e-05
2.21398e-05
-5.10204e-05
-4.44566e-05
-1.81129e-05
-4.91693e-06
-5.52468e-07
9.18039e-10
7.59283e-10
2.87856e-10
3.10537e-11
1.72633e-13
6.68582e-13
2.19997e-12
8.49064e-13
2.27052e-13
2.29985e-14
-2.31053e-15
-1.15179e-15
-4.80743e-17
5.12577e-16
1.35859e-16
-6.72605e-17
-5.32931e-17
-2.38548e-17
-9.3695e-18
-3.54284e-18
-1.32197e-18
-4.88102e-19
-1.77559e-19
-6.33085e-20
-2.20342e-20
-7.46565e-21
-2.45819e-21
-7.8567e-22
-2.43534e-22
-7.31537e-23
-2.1278e-23
-5.98773e-24
-1.62844e-24
-1.42351e-05
-1.44929e-05
-1.18565e-05
-7.41853e-06
-1.16292e-05
-3.71527e-05
-5.5629e-05
-5.17498e-05
-3.94157e-06
6.45291e-05
6.447e-05
-0.000192781
-0.000326594
-9.84168e-05
-2.16616e-05
-4.09367e-06
-5.95806e-08
3.17786e-09
1.64352e-09
3.30134e-10
1.42731e-11
1.84785e-11
6.7753e-11
2.764e-11
2.20004e-12
1.48124e-13
-2.0345e-14
-1.61097e-14
-3.75295e-15
7.88561e-15
4.14873e-15
4.90981e-16
-4.29582e-16
-1.66779e-16
-4.7436e-17
-1.37785e-17
-4.28042e-18
-1.4306e-18
-5.03379e-19
-1.80894e-19
-6.47993e-20
-2.27957e-20
-7.8125e-21
-2.59766e-21
-8.36071e-22
-2.60083e-22
-7.80933e-23
-2.26011e-23
-6.29372e-24
-1.68248e-24
-1.12732e-05
-1.25167e-05
-5.21784e-06
1.07865e-05
-6.996e-06
-7.05975e-05
-7.73234e-05
6.18717e-05
0.000381186
0.000163678
-0.00109493
-0.00201467
-0.000915283
0.00326761
0.00986564
0.0146894
0.0148664
0.011628
0.00684709
0.00287244
0.000691794
2.12527e-05
8.27555e-10
6.77549e-11
6.68593e-13
-1.04836e-13
-1.41095e-13
-5.08202e-14
1.49136e-13
9.24542e-14
1.50506e-14
-1.04622e-14
-3.7541e-15
-3.91278e-16
-3.74367e-17
-2.87117e-18
1.46131e-19
6.54817e-20
-3.50933e-20
-4.01485e-20
-2.35163e-20
-1.08831e-20
-4.41529e-21
-1.63668e-21
-5.6525e-22
-1.83616e-22
-5.63248e-23
-1.63206e-23
-4.45352e-24
-1.13617e-24
0.000425681
0.000412781
0.000497495
0.000588559
0.000332166
-5.37114e-05
0.000345807
0.00182207
0.00202104
-0.00100704
-0.0061984
-0.00767842
0.00180286
0.0275008
0.0628082
0.0908494
0.0966054
0.0834935
0.0577753
0.0310898
0.01197
0.00240746
2.12528e-05
1.84781e-11
1.72596e-13
-2.06498e-13
-3.83951e-13
2.31769e-12
1.51215e-12
2.88815e-13
-2.51168e-13
-1.06594e-13
-1.13291e-14
9.43473e-16
2.63486e-16
6.37124e-17
1.66938e-17
4.4275e-18
1.15112e-18
2.89176e-19
6.93279e-20
1.55712e-20
3.168e-21
5.42361e-22
6.11669e-23
-3.50634e-24
-4.48566e-24
-1.37004e-24
-1.3267e-25
1.13418e-25
0.00212001
0.00209825
0.00234534
0.00252105
0.00158181
0.000619895
0.00279627
0.00670312
0.00556821
-0.0048275
-0.0176017
-0.0170592
0.0147509
0.0854928
0.178405
0.25479
0.276525
0.247097
0.180055
0.104225
0.0450634
0.01197
0.000691795
1.42714e-11
3.10527e-11
2.44007e-11
3.30764e-11
2.00877e-11
4.31584e-12
-5.02473e-12
-2.2904e-12
-2.71012e-13
2.67773e-14
7.95014e-15
8.18354e-16
1.32656e-16
3.20047e-17
8.14511e-18
2.10743e-18
5.49294e-19
1.43622e-19
3.75451e-20
9.79596e-21
2.55727e-21
6.74381e-22
1.82834e-22
5.20231e-23
1.57276e-23
5.02244e-24
1.65831e-24
0.00520994
0.00518676
0.00567567
0.005866
0.00381325
0.00247948
0.00766028
0.0152975
0.0106586
-0.0125347
-0.035428
-0.026495
0.0422546
0.17766
0.350909
0.497503
0.547814
0.500462
0.376411
0.227141
0.104225
0.0310898
0.00287244
3.30145e-10
2.87863e-10
2.95889e-10
2.02099e-10
5.30677e-11
-8.28105e-11
-4.09381e-11
-5.54025e-12
4.82195e-13
1.71818e-13
1.64866e-14
-1.47854e-16
-3.11526e-17
-3.83754e-18
-3.14438e-20
1.83436e-19
8.98524e-20
3.44248e-20
1.21655e-20
4.13764e-21
1.385e-21
4.6538e-22
1.59402e-22
5.59129e-23
1.99277e-23
7.10807e-24
2.49885e-24
0.00860023
0.00858852
0.00932146
0.00943884
0.00628918
0.0045807
0.0133363
0.0251125
0.0157592
-0.0226414
-0.0549189
-0.0331515
0.0775132
0.279547
0.533193
0.753898
0.841585
0.783613
0.604489
0.376411
0.180055
0.0577753
0.0068471
1.64366e-09
7.59313e-10
9.57414e-10
4.66695e-10
-1.11744e-09
-5.94456e-10
-9.28304e-11
6.66709e-12
2.69039e-12
3.14421e-13
-5.0061e-15
-1.49646e-15
-2.92754e-16
-7.07639e-17
-1.82896e-17
-4.75641e-18
-1.2305e-18
-3.15684e-19
-8.01388e-20
-2.00438e-20
-4.89032e-21
-1.13885e-21
-2.41237e-22
-4.06835e-23
-2.17295e-24
2.44429e-24
1.64304e-24
0.0101209
0.010116
0.0109862
0.0111174
0.00721241
0.00516309
0.0162746
0.0310091
0.0185298
-0.0302889
-0.0685769
-0.0364451
0.102913
0.346833
0.651208
0.925064
1.0488
0.99411
0.783613
0.500462
0.247097
0.0834935
0.011628
3.17824e-09
9.18069e-10
2.35721e-10
-1.81379e-08
-8.69197e-09
-1.28155e-09
8.99332e-11
4.00674e-11
5.29659e-12
-7.05522e-14
-2.87183e-14
-3.68423e-15
-3.03228e-16
-8.09377e-17
-2.40705e-17
-7.11249e-18
-2.07234e-18
-5.93469e-19
-1.67025e-19
-4.61896e-20
-1.25165e-20
-3.29989e-21
-8.35466e-22
-1.98705e-22
-4.26154e-23
-7.45493e-24
-6.54973e-25
0.00797169
0.00793752
0.00881681
0.00911908
0.00522069
0.00259574
0.0133693
0.0291029
0.0177648
-0.0310048
-0.0702475
-0.0383896
0.101895
0.346726
0.655768
0.943484
1.08805
1.0488
0.841585
0.547814
0.276525
0.0966054
0.0148664
-5.95559e-08
-5.52433e-07
-4.99638e-07
-1.96009e-07
-2.41334e-08
9.45003e-10
5.41432e-10
1.13591e-10
1.12802e-12
-2.71199e-13
-9.21241e-14
-4.87072e-15
4.97586e-17
1.11884e-17
-5.11155e-19
-1.54121e-18
-8.44337e-19
-3.44677e-19
-1.22886e-19
-4.03813e-20
-1.24993e-20
-3.66865e-21
-1.01839e-21
-2.64629e-22
-6.30407e-23
-1.31698e-23
-2.12611e-24
0.00202647
0.00194732
0.00258503
0.00320729
0.000568322
-0.00263094
0.00365129
0.0168774
0.0131664
-0.021118
-0.0562976
-0.0419955
0.0589179
0.256365
0.525485
0.79297
0.943484
0.925064
0.753898
0.497503
0.25479
0.0908494
0.0146894
-4.09352e-06
-4.91678e-06
-2.69395e-06
-6.35629e-07
-1.35824e-08
3.77446e-09
1.65531e-09
1.83887e-10
-1.98091e-12
-1.21492e-12
-2.0277e-13
9.62743e-16
4.70562e-16
1.45235e-16
3.90469e-17
9.61e-18
2.17773e-18
4.51368e-19
8.24693e-20
1.16483e-20
4.53174e-22
-4.99095e-22
-2.54551e-22
-8.26584e-23
-1.99637e-23
-2.9814e-24
2.91293e-25
-0.00320437
-0.00331205
-0.00308766
-0.00230149
-0.00296527
-0.00599102
-0.00573931
0.00189075
0.00743882
-0.00373684
-0.0300288
-0.0434475
-0.00635929
0.113317
0.311146
0.525485
0.655768
0.651208
0.533193
0.350909
0.178405
0.0628081
0.00986563
-2.16612e-05
-1.81126e-05
-6.74503e-06
-8.88997e-07
1.83949e-08
1.12506e-08
2.71186e-09
8.81019e-11
-1.07036e-11
-3.81112e-12
-2.5243e-13
5.08447e-15
1.56988e-15
3.21066e-16
7.74717e-17
1.94216e-17
4.86619e-18
1.22164e-18
3.07645e-19
7.74272e-20
1.94075e-20
4.85662e-21
1.22703e-21
3.18787e-22
8.66775e-23
2.48093e-23
7.39595e-24
-0.00391568
-0.00400498
-0.00413604
-0.00355803
-0.00288866
-0.00453583
-0.0079711
-0.00656606
0.00315238
0.00979007
-0.00404982
-0.0363937
-0.0501928
-0.00439178
0.113317
0.256365
0.346726
0.346833
0.279547
0.17766
0.0854928
0.0275008
0.00326761
-9.84157e-05
-4.44561e-05
-8.54795e-06
5.32482e-08
6.09181e-08
1.66332e-08
1.44435e-09
-1.07402e-10
-3.92106e-11
-4.76077e-12
1.01585e-13
2.91654e-14
2.59843e-15
2.11826e-16
5.87415e-17
1.57262e-17
4.20014e-18
1.16166e-18
3.32667e-19
9.69484e-20
2.82804e-20
8.18935e-21
2.3524e-21
6.72427e-22
1.91934e-22
5.47774e-23
1.56059e-23
-0.000941854
-0.000960837
-0.00123885
-0.00118282
3.53231e-05
0.000231197
-0.00323408
-0.00594369
0.00050393
0.0121946
0.00999876
-0.0175882
-0.0501987
-0.0501928
-0.00635929
0.0589179
0.101895
0.102913
0.0775132
0.0422547
0.0147509
0.00180288
-0.000915276
-0.000326591
-5.10199e-05
3.36323e-06
1.32079e-06
1.75975e-07
-2.37351e-09
-1.5693e-09
-4.49965e-10
-4.58193e-11
1.51032e-12
5.06343e-13
4.5334e-14
-3.24139e-16
-9.13158e-17
-2.2243e-17
-4.84134e-18
-8.30203e-19
-4.30902e-20
5.15701e-20
3.40938e-20
1.51525e-20
5.74256e-21
1.99085e-21
6.51876e-22
2.05037e-22
6.25105e-23
1.85525e-23
0.0015362
0.00157427
0.0013841
0.0010936
0.00170336
0.0028656
0.00200359
-0.00107877
-0.000950162
0.00544138
0.0101999
0.00240466
-0.0175882
-0.0363937
-0.0434475
-0.0419955
-0.0383896
-0.0364451
-0.0331515
-0.026495
-0.0170592
-0.0076784
-0.00201467
-0.000192779
2.21395e-05
1.03458e-05
2.34651e-06
7.41383e-08
-1.00854e-08
-4.87712e-09
-7.0354e-10
9.4229e-12
4.11183e-12
7.46663e-13
-2.84022e-15
-1.15499e-15
-2.86523e-16
-7.89287e-17
-2.19873e-17
-5.92703e-18
-1.52079e-18
-3.66333e-19
-8.11917e-20
-1.58522e-20
-2.38275e-21
-8.43778e-23
1.34958e-22
7.93049e-23
3.25964e-23
1.15764e-23
0.00101564
0.00105165
0.00107125
0.00081188
0.000603678
0.00136972
0.00242217
0.00150524
-0.00142161
-0.00201976
0.003066
0.0101999
0.00999877
-0.00404982
-0.0300288
-0.0562976
-0.0702475
-0.0685769
-0.0549189
-0.035428
-0.0176017
-0.0061984
-0.00109493
6.44694e-05
3.3802e-05
9.26242e-06
9.82179e-07
-4.59806e-08
-1.86949e-08
-4.08813e-09
-2.00679e-10
7.73899e-12
3.6376e-12
5.48013e-13
-4.72114e-15
-1.35157e-15
-3.35665e-16
-9.63205e-17
-2.83534e-17
-8.29354e-18
-2.38782e-18
-6.71743e-19
-1.83674e-19
-4.86398e-20
-1.24306e-20
-3.04898e-21
-7.10881e-22
-1.54863e-22
-3.04711e-23
-4.98011e-24
-0.000773501
-0.000766219
-0.000654928
-0.000681521
-0.00113304
-0.00122961
-0.000124501
0.000730235
-0.00093668
-0.00353536
-0.00201976
0.00544138
0.0121946
0.00979006
-0.00373684
-0.021118
-0.0310048
-0.0302889
-0.0226414
-0.0125348
-0.00482752
-0.00100706
0.000163673
6.45267e-05
1.34242e-05
-5.67394e-07
-4.97074e-07
-1.17698e-07
-9.26676e-09
1.33528e-09
3.65631e-10
1.93321e-11
-6.31322e-13
-1.98499e-13
-1.98147e-14
-5.84862e-16
-1.20936e-16
-4.99104e-17
-1.81701e-17
-6.39502e-18
-2.18872e-18
-7.22661e-19
-2.29419e-19
-7.00844e-20
-2.06406e-20
-5.86797e-21
-1.6108e-21
-4.26723e-22
-1.08972e-22
-2.67838e-23
-0.00124969
-0.00125568
-0.00119707
-0.00114268
-0.00134564
-0.00163033
-0.00137779
-0.000639089
-0.00039631
-0.000936681
-0.00142161
-0.000950159
0.000503921
0.00315236
0.00743882
0.0131665
0.0177648
0.0185299
0.0157591
0.0106585
0.00556818
0.00202102
0.00038118
-3.94324e-06
-1.53417e-05
-7.05977e-06
-1.27594e-06
2.94555e-08
1.70838e-08
3.6034e-09
1.40427e-10
-7.38763e-12
-2.99068e-12
-4.33187e-13
3.38254e-15
7.48537e-16
1.3075e-16
1.9305e-17
-9.22854e-19
-2.52884e-18
-1.44743e-18
-6.26224e-19
-2.36658e-19
-8.20699e-20
-2.67105e-20
-8.25421e-21
-2.43779e-21
-6.90785e-22
-1.88288e-22
-4.94574e-23
-0.000867554
-0.000861289
-0.000854851
-0.00089397
-0.000944853
-0.000870759
-0.000800254
-0.000940481
-0.000639092
0.000730234
0.00150525
-0.00107877
-0.0059437
-0.00656607
0.00189076
0.0168775
0.029103
0.0310091
0.0251125
0.0152975
0.00670309
0.00182205
6.18665e-05
-5.17516e-05
-3.05042e-05
-7.83145e-06
-2.12581e-07
4.54482e-08
2.1938e-08
2.93639e-09
-3.67796e-11
-1.60274e-11
-2.73993e-12
4.30315e-14
9.83556e-15
9.09554e-16
1.56885e-16
3.11833e-17
2.51645e-18
-1.80004e-18
-1.38585e-18
-6.70632e-19
-2.71651e-19
-9.91725e-20
-3.36277e-20
-1.07511e-20
-3.26862e-21
-9.5009e-22
-2.65014e-22
-7.11366e-23
-0.00102709
-0.0010073
-0.000974526
-0.00110386
-0.00129317
-0.00101658
-0.000518875
-0.000800255
-0.0013778
-0.000124502
0.00242218
0.00200359
-0.00323409
-0.00797112
-0.00573931
0.00365132
0.0133693
0.0162746
0.0133363
0.00766024
0.00279623
0.000345789
-7.73283e-05
-5.56323e-05
-2.22814e-05
-3.69794e-06
5.98625e-08
3.50659e-08
1.00988e-08
5.65796e-10
-1.95622e-11
-7.84845e-12
-3.36477e-13
1.90428e-14
3.58689e-15
3.57107e-16
5.2221e-17
-1.20928e-18
-7.27009e-18
-4.74354e-18
-2.28754e-18
-9.54971e-19
-3.63339e-19
-1.28904e-19
-4.3157e-20
-1.37316e-20
-4.17149e-21
-1.21402e-21
-3.39389e-22
-9.13472e-23
-0.00159738
-0.00158023
-0.00150448
-0.00160667
-0.00195358
-0.00183106
-0.00101658
-0.000870757
-0.00163033
-0.00122961
0.00136972
0.0028656
0.000231187
-0.00453585
-0.00599102
-0.0026309
0.00259578
0.00516311
0.00458068
0.00247943
0.000619847
-5.37302e-05
-7.06063e-05
-3.71569e-05
-1.05776e-05
-5.69926e-07
2.2521e-08
1.04799e-08
-2.98577e-10
-2.08162e-10
-2.15052e-11
2.95002e-12
9.02545e-13
8.45226e-14
-1.38398e-15
-4.0822e-16
-1.42078e-16
-5.58836e-17
-2.25381e-17
-8.99798e-18
-3.49345e-18
-1.30663e-18
-4.68654e-19
-1.60906e-19
-5.28697e-20
-1.6636e-20
-5.01896e-21
-1.45392e-21
-4.05068e-22
-1.08719e-22
-0.00165044
-0.00164042
-0.00156552
-0.00162152
-0.0019504
-0.00195358
-0.00129317
-0.00094485
-0.00134564
-0.00113304
0.000603683
0.00170336
3.53129e-05
-0.00288867
-0.00296527
0.000568356
0.00522073
0.00721242
0.00628915
0.0038132
0.00158176
0.000332139
-7.00288e-06
-1.16328e-05
-5.92129e-06
-1.57768e-06
-1.06989e-07
-3.94152e-09
3.23323e-11
7.53119e-11
3.08704e-11
5.30809e-12
-1.36405e-13
-4.77758e-14
-4.94843e-15
-2.96083e-16
-1.38613e-16
-6.0511e-17
-2.49764e-17
-1.00106e-17
-3.8879e-18
-1.45473e-18
-5.22227e-19
-1.79485e-19
-5.90271e-20
-1.85841e-20
-5.60763e-21
-1.62401e-21
-4.52136e-22
-1.21212e-22
-0.0013807
-0.0013712
-0.00131401
-0.00136708
-0.00162152
-0.00160667
-0.00110386
-0.000893967
-0.00114268
-0.000681521
0.000811885
0.0010936
-0.00118283
-0.00355805
-0.00230149
0.00320733
0.00911912
0.0111174
0.00943882
0.00586595
0.002521
0.000588532
1.0781e-05
-7.42049e-06
-5.66035e-06
-2.24849e-06
-3.08543e-07
8.6802e-10
4.08518e-10
1.15638e-10
1.72388e-11
-4.51894e-13
-1.53303e-13
-1.27477e-14
5.08724e-17
-9.2774e-17
-7.25508e-17
-4.06055e-17
-1.97806e-17
-8.81516e-18
-3.66055e-18
-1.42872e-18
-5.26823e-19
-1.84209e-19
-6.12641e-20
-1.94317e-20
-5.89224e-21
-1.71193e-21
-4.77569e-22
-1.2817e-22
-0.00131175
-0.00129972
-0.00124443
-0.00131401
-0.00156552
-0.00150448
-0.000974522
-0.000854847
-0.00119707
-0.000654927
0.00107126
0.00138411
-0.00123886
-0.00413606
-0.00308766
0.00258507
0.00881685
0.0109862
0.00932144
0.00567562
0.0023453
0.00049747
-5.22262e-06
-1.1859e-05
-6.84507e-06
-2.14156e-06
-2.02535e-07
1.45696e-10
1.07456e-10
5.02471e-11
1.63308e-11
2.42185e-12
5.13778e-14
9.47737e-16
-8.95509e-17