/*--------------------------------*- C++ -*----------------------------------*\
| =========                 |                                                 |
| \\      /  F ield         | OpenFOAM: The Open Source CFD Toolbox           |
|  \\    /   O peration     | Version:  v2006                                 |
|   \\  /    A nd           | Website:  www.openfoam.com                      |
|    \\/     M anipulation  |                                                 |
\*---------------------------------------------------------------------------*/
FoamFile
{
    version     2.0;
    format      ascii;
    class       volVectorField;
    location    "15.9";
    object      U;
}
// * * * * * * * * * * * * * * * * * * * * * * * * * * * * * * * * * * * * * //

dimensions      [0 1 -1 0 0 0 0];


internalField   nonuniform List<vector> 
50000
(
(0.00118788 -0.00269664 0)
(0.00587945 -0.0041126 0)
(0.0112733 -0.00426138 0)
(0.0160898 -0.00402334 0)
(0.0206606 -0.00376581 0)
(0.0249576 -0.00360476 0)
(0.0291505 -0.00351436 0)
(0.0332655 -0.00345661 0)
(0.0372941 -0.00340478 0)
(0.0412301 -0.00334577 0)
(0.0450674 -0.00327797 0)
(0.0487993 -0.00320445 0)
(0.0524217 -0.00312664 0)
(0.0559329 -0.00304552 0)
(0.0593312 -0.00296185 0)
(0.0626148 -0.0028757 0)
(0.0657827 -0.00278669 0)
(0.0688343 -0.00269463 0)
(0.071769 -0.00259947 0)
(0.0745861 -0.00250152 0)
(0.077285 -0.00240087 0)
(0.0798662 -0.00229634 0)
(0.0823291 -0.00218826 0)
(0.0846725 -0.00207683 0)
(0.0868965 -0.00196185 0)
(0.0889993 -0.0018425 0)
(0.0909791 -0.001718 0)
(0.0928341 -0.00158795 0)
(0.0945618 -0.00144937 0)
(0.0961592 -0.00130124 0)
(0.0976224 -0.0011414 0)
(0.0989439 -0.000966615 0)
(0.100115 -0.000772562 0)
(0.101124 -0.000555635 0)
(0.101953 -0.000315294 0)
(0.102588 -5.75936e-05 0)
(0.103019 0.000207097 0)
(0.103245 0.000468228 0)
(0.103252 0.000711221 0)
(0.103054 0.000930233 0)
(0.102658 0.00113368 0)
(0.102066 0.00132583 0)
(0.10129 0.00149553 0)
(0.100349 0.00163055 0)
(0.0992687 0.00172596 0)
(0.0980739 0.00178589 0)
(0.0967862 0.00181665 0)
(0.0954296 0.00181662 0)
(0.0940332 0.00177698 0)
(0.0926282 0.00169166 0)
(0.0912465 0.00156627 0)
(0.0899128 0.00142279 0)
(0.088624 0.0012898 0)
(0.0873654 0.00118428 0)
(0.086121 0.00110833 0)
(0.0848761 0.00105623 0)
(0.0836201 0.00101955 0)
(0.0823467 0.000991466 0)
(0.0810525 0.000968316 0)
(0.0797363 0.000948524 0)
(0.0783963 0.000931617 0)
(0.077031 0.00091812 0)
(0.0756397 0.000908203 0)
(0.0742217 0.000901176 0)
(0.0727767 0.000896706 0)
(0.0713043 0.000894359 0)
(0.0698051 0.000894201 0)
(0.0682797 0.000895756 0)
(0.0667287 0.000898637 0)
(0.0651529 0.000902676 0)
(0.0635537 0.000907683 0)
(0.0619325 0.00091348 0)
(0.0602909 0.000920033 0)
(0.0586308 0.000927292 0)
(0.0569545 0.000935157 0)
(0.0552636 0.000943401 0)
(0.0535602 0.000952076 0)
(0.0518467 0.000961322 0)
(0.0501255 0.000971358 0)
(0.0483977 0.000982385 0)
(0.0466645 0.000995144 0)
(0.0449285 0.0010102 0)
(0.0431898 0.00102774 0)
(0.0414468 0.00104852 0)
(0.0397021 0.00107131 0)
(0.0379536 0.00109573 0)
(0.0361978 0.00112399 0)
(0.0344367 0.00115633 0)
(0.0326671 0.00119261 0)
(0.0308835 0.00123439 0)
(0.0290812 0.00128385 0)
(0.0272554 0.00134368 0)
(0.0253958 0.00141551 0)
(0.0234888 0.0015041 0)
(0.0215181 0.00161895 0)
(0.0194593 0.00177602 0)
(0.0172747 0.00199239 0)
(0.0149163 0.00226574 0)
(0.012347 0.00256628 0)
(0.00955653 0.00284864 0)
(0.00656926 0.00307127 0)
(0.00344104 0.00321495 0)
(0.000241898 0.00328568 0)
(-0.002959 0.00330815 0)
(-0.00610208 0.00330576 0)
(-0.00914713 0.00329019 0)
(-0.0120517 0.00326031 0)
(-0.0147813 0.00319207 0)
(-0.0173036 0.00305861 0)
(-0.0195692 0.00283907 0)
(-0.0215285 0.002527 0)
(-0.0231484 0.00212688 0)
(-0.0243961 0.0016972 0)
(-0.0252976 0.00132438 0)
(-0.0259235 0.00104361 0)
(-0.0263518 0.000838064 0)
(-0.0266317 0.000675815 0)
(-0.0268036 0.000527995 0)
(-0.0268936 0.000382471 0)
(-0.026905 0.000232414 0)
(-0.0268459 7.93494e-05 0)
(-0.0267207 -6.95386e-05 0)
(-0.0265342 -0.000214157 0)
(-0.0262916 -0.000351803 0)
(-0.0259879 -0.000485249 0)
(-0.025627 -0.000614151 0)
(-0.0252051 -0.000737916 0)
(-0.0247267 -0.000860361 0)
(-0.0241965 -0.000977544 0)
(-0.0236054 -0.00109109 0)
(-0.0229561 -0.00120074 0)
(-0.0222522 -0.00130589 0)
(-0.0214951 -0.00140821 0)
(-0.0206845 -0.00150657 0)
(-0.0198189 -0.00160111 0)
(-0.0188993 -0.00169155 0)
(-0.0179259 -0.00177726 0)
(-0.0168982 -0.0018596 0)
(-0.0158152 -0.00193878 0)
(-0.0146764 -0.00201365 0)
(-0.0134825 -0.00208343 0)
(-0.0122336 -0.00214945 0)
(-0.0109304 -0.00221497 0)
(-0.00957297 -0.00228813 0)
(-0.00815647 -0.00237444 0)
(-0.00666697 -0.00247012 0)
(-0.0051545 -0.00254319 0)
(-0.00353555 -0.00256386 0)
(-0.0019314 -0.00240222 0)
(-0.000315484 -0.00173756 0)
(0.00110129 -0.00699845 0)
(0.0052637 -0.00998226 0)
(0.0100521 -0.00984806 0)
(0.0141213 -0.00903918 0)
(0.017932 -0.00846543 0)
(0.0214154 -0.00817493 0)
(0.024829 -0.00798938 0)
(0.0281668 -0.00781428 0)
(0.0314086 -0.00762261 0)
(0.0345437 -0.00741426 0)
(0.0375598 -0.00719618 0)
(0.0404546 -0.0069722 0)
(0.0432303 -0.00674393 0)
(0.0458865 -0.00651231 0)
(0.0484242 -0.00627917 0)
(0.0508461 -0.00604548 0)
(0.0531547 -0.00581243 0)
(0.0553534 -0.0055806 0)
(0.0574467 -0.00535009 0)
(0.0594393 -0.00512116 0)
(0.0613353 -0.00489478 0)
(0.0631396 -0.00467139 0)
(0.0648579 -0.00445041 0)
(0.0664942 -0.00423126 0)
(0.0680522 -0.00401302 0)
(0.0695369 -0.00379599 0)
(0.0709537 -0.00358011 0)
(0.0723096 -0.003365 0)
(0.0736058 -0.00314995 0)
(0.0748462 -0.00293349 0)
(0.0760419 -0.00271328 0)
(0.0771982 -0.00248555 0)
(0.0783206 -0.00224602 0)
(0.0794169 -0.00199094 0)
(0.0804934 -0.00171811 0)
(0.0815517 -0.00142874 0)
(0.0825858 -0.00112536 0)
(0.0835847 -0.000809814 0)
(0.0845526 -0.000486256 0)
(0.0854682 -0.000158353 0)
(0.0863175 0.000171229 0)
(0.0870865 0.000495318 0)
(0.0877684 0.00080765 0)
(0.0883538 0.00110186 0)
(0.0888256 0.00136979 0)
(0.0891709 0.00160842 0)
(0.0893825 0.00181349 0)
(0.089455 0.0019775 0)
(0.0893843 0.00209511 0)
(0.0891688 0.00216799 0)
(0.0888042 0.00220658 0)
(0.0882886 0.00222997 0)
(0.0876391 0.00225618 0)
(0.0868745 0.00229516 0)
(0.0860095 0.00234902 0)
(0.0850547 0.00241472 0)
(0.0840161 0.00248849 0)
(0.0828973 0.00256732 0)
(0.0817 0.00264863 0)
(0.0804256 0.00273124 0)
(0.0790769 0.00281461 0)
(0.077657 0.00289813 0)
(0.0761683 0.00298102 0)
(0.0746142 0.00306242 0)
(0.0729984 0.00314156 0)
(0.0713252 0.00321813 0)
(0.069598 0.00329184 0)
(0.0678205 0.00336189 0)
(0.0659969 0.00342802 0)
(0.0641313 0.0034898 0)
(0.0622282 0.00354653 0)
(0.0602921 0.00359822 0)
(0.0583275 0.00364478 0)
(0.0563387 0.00368584 0)
(0.0543302 0.00372094 0)
(0.0523068 0.00374933 0)
(0.0502729 0.00377133 0)
(0.0482337 0.00378724 0)
(0.0461944 0.00379724 0)
(0.04416 0.00380146 0)
(0.0421354 0.003801 0)
(0.0401266 0.00379658 0)
(0.0381379 0.00378817 0)
(0.0361702 0.00377736 0)
(0.0342283 0.0037658 0)
(0.0323176 0.00375156 0)
(0.0304389 0.00373887 0)
(0.0285946 0.00372895 0)
(0.0267875 0.00372229 0)
(0.0250184 0.00372149 0)
(0.0232894 0.00372931 0)
(0.0216007 0.0037508 0)
(0.0199532 0.00378725 0)
(0.0183495 0.00384528 0)
(0.0167922 0.0039349 0)
(0.0152873 0.00406937 0)
(0.0138486 0.00426118 0)
(0.0124926 0.00451113 0)
(0.0112235 0.00480098 0)
(0.010039 0.00509345 0)
(0.0089206 0.005339 0)
(0.00784705 0.00549615 0)
(0.00682793 0.00553523 0)
(0.00589215 0.00544531 0)
(0.00507343 0.00523145 0)
(0.00440851 0.00491074 0)
(0.00393339 0.0045063 0)
(0.00367059 0.00403033 0)
(0.00362201 0.00349918 0)
(0.00377112 0.00292846 0)
(0.00408019 0.00233886 0)
(0.004505 0.00175109 0)
(0.00497374 0.0011964 0)
(0.00542617 0.000719594 0)
(0.00584939 0.000349592 0)
(0.00625375 8.7574e-05 0)
(0.00665042 -8.37906e-05 0)
(0.00704041 -0.000193749 0)
(0.00741884 -0.000262516 0)
(0.00777853 -0.000306848 0)
(0.00811747 -0.000339265 0)
(0.00843765 -0.000365751 0)
(0.00873538 -0.000390232 0)
(0.00900573 -0.000414575 0)
(0.00924388 -0.000440175 0)
(0.00944656 -0.000469006 0)
(0.00961035 -0.000500681 0)
(0.00973366 -0.000536608 0)
(0.00981408 -0.000576573 0)
(0.00984826 -0.000618282 0)
(0.00983487 -0.000660122 0)
(0.00977125 -0.000703272 0)
(0.00965277 -0.000749118 0)
(0.00947603 -0.000797621 0)
(0.00923872 -0.00085018 0)
(0.00894058 -0.000907754 0)
(0.00858271 -0.000971508 0)
(0.00816602 -0.00104088 0)
(0.00769256 -0.00111492 0)
(0.00716637 -0.00119533 0)
(0.00659251 -0.00127995 0)
(0.0059766 -0.00136713 0)
(0.0053238 -0.00145537 0)
(0.00464517 -0.00154473 0)
(0.00391709 -0.00162679 0)
(0.00318766 -0.00170509 0)
(0.00233213 -0.00176284 0)
(0.00158255 -0.00189685 0)
(0.000760476 -0.00203319 0)
(0.000632015 -0.00136569 0)
(0.00105439 -0.0113689 0)
(0.00541432 -0.0164809 0)
(0.0106465 -0.016403 0)
(0.0152479 -0.0148846 0)
(0.0194367 -0.0137032 0)
(0.0231917 -0.0130907 0)
(0.0268096 -0.012768 0)
(0.0303515 -0.0124868 0)
(0.0338086 -0.0121589 0)
(0.03716 -0.0117866 0)
(0.0403844 -0.0113917 0)
(0.043473 -0.0109874 0)
(0.0464261 -0.0105806 0)
(0.0492452 -0.0101743 0)
(0.0519323 -0.00976988 0)
(0.0544904 -0.00936969 0)
(0.0569228 -0.0089761 0)
(0.0592341 -0.00859065 0)
(0.0614285 -0.00821377 0)
(0.0635106 -0.00784594 0)
(0.0654849 -0.00748768 0)
(0.0673574 -0.00713897 0)
(0.0691312 -0.00679938 0)
(0.0708099 -0.00646864 0)
(0.0723973 -0.00614613 0)
(0.0738959 -0.00583088 0)
(0.0753085 -0.00552158 0)
(0.0766368 -0.00521798 0)
(0.0778812 -0.00492227 0)
(0.0790423 -0.00463166 0)
(0.0801207 -0.00434633 0)
(0.081117 -0.00406527 0)
(0.0820323 -0.00378522 0)
(0.0828694 -0.0034998 0)
(0.0836306 -0.00319971 0)
(0.0843191 -0.00287667 0)
(0.0849369 -0.0025292 0)
(0.0854853 -0.00216296 0)
(0.0859669 -0.00178304 0)
(0.0863872 -0.00139199 0)
(0.0867505 -0.000990645 0)
(0.087064 -0.000577144 0)
(0.0873261 -0.000151362 0)
(0.0875253 0.000269799 0)
(0.0876547 0.000680242 0)
(0.0877158 0.00107751 0)
(0.0877041 0.00146037 0)
(0.0876119 0.00182447 0)
(0.0874282 0.00216201 0)
(0.0871405 0.00246658 0)
(0.0867403 0.00273721 0)
(0.086224 0.00297669 0)
(0.0855936 0.00319094 0)
(0.0848571 0.00338966 0)
(0.0840223 0.00358215 0)
(0.0830969 0.00377418 0)
(0.0820878 0.0039678 0)
(0.0809982 0.00416216 0)
(0.0798315 0.00435536 0)
(0.0785915 0.00454588 0)
(0.0772809 0.00473255 0)
(0.0759019 0.00491401 0)
(0.0744579 0.00508939 0)
(0.0729525 0.00525845 0)
(0.0713897 0.00542034 0)
(0.0697733 0.00557401 0)
(0.0681062 0.00571869 0)
(0.0663924 0.00585389 0)
(0.0646358 0.00597896 0)
(0.0628396 0.00609371 0)
(0.0610086 0.0061978 0)
(0.0591477 0.00629064 0)
(0.0572605 0.00637159 0)
(0.0553506 0.00644016 0)
(0.0534221 0.00649613 0)
(0.0514796 0.00653912 0)
(0.049528 0.00656891 0)
(0.0475713 0.00658537 0)
(0.0456132 0.00658872 0)
(0.0436584 0.00657942 0)
(0.0417118 0.00655847 0)
(0.0397772 0.00652703 0)
(0.0378592 0.00648658 0)
(0.0359625 0.0064372 0)
(0.034089 0.00638213 0)
(0.0322434 0.00632128 0)
(0.0304308 0.00625659 0)
(0.0286531 0.00619065 0)
(0.0269132 0.00612396 0)
(0.0252144 0.00605988 0)
(0.0235632 0.00599955 0)
(0.0219609 0.00594692 0)
(0.0204095 0.00590401 0)
(0.0189172 0.00587572 0)
(0.0174902 0.00586218 0)
(0.0161364 0.00586553 0)
(0.0148711 0.00588885 0)
(0.0137166 0.00593464 0)
(0.012691 0.00600098 0)
(0.0118054 0.00607217 0)
(0.0110644 0.00611465 0)
(0.0104575 0.00609084 0)
(0.00996164 0.00596675 0)
(0.009551 0.00572092 0)
(0.00919849 0.00535231 0)
(0.00887848 0.00487657 0)
(0.00856855 0.00431663 0)
(0.00825031 0.0036935 0)
(0.00790869 0.00302903 0)
(0.00752996 0.00234879 0)
(0.00710532 0.00168563 0)
(0.00663394 0.00108378 0)
(0.00612408 0.000592564 0)
(0.00559389 0.000231046 0)
(0.0050708 -2.20181e-05 0)
(0.00458301 -0.00020388 0)
(0.00415096 -0.000346374 0)
(0.00379315 -0.000468521 0)
(0.00351736 -0.000582025 0)
(0.00332947 -0.000689538 0)
(0.00322944 -0.000794183 0)
(0.00321567 -0.000889029 0)
(0.00328425 -0.000971459 0)
(0.00342775 -0.00103594 0)
(0.00363666 -0.00108233 0)
(0.00389848 -0.00111464 0)
(0.00420065 -0.00113382 0)
(0.00453267 -0.0011428 0)
(0.00488371 -0.00114098 0)
(0.00524279 -0.00113023 0)
(0.00559905 -0.00110338 0)
(0.00594068 -0.00106536 0)
(0.0062568 -0.0010141 0)
(0.00653531 -0.000951256 0)
(0.00676296 -0.000879372 0)
(0.00692686 -0.000801185 0)
(0.00701678 -0.000720143 0)
(0.00702429 -0.000639949 0)
(0.00693711 -0.000562231 0)
(0.00675065 -0.000492464 0)
(0.00646422 -0.000432071 0)
(0.00607227 -0.000382899 0)
(0.0055752 -0.000345533 0)
(0.00498921 -0.000321427 0)
(0.00428986 -0.000307781 0)
(0.00352752 -0.00029066 0)
(0.00257999 -0.000258213 0)
(0.00176542 -0.000436681 0)
(0.000996548 -0.000979857 0)
(0.000977223 0.000152397 0)
(0.00104774 -0.0158717 0)
(0.00562844 -0.0233404 0)
(0.0111275 -0.0234681 0)
(0.0161133 -0.0212931 0)
(0.0206698 -0.01943 0)
(0.0247582 -0.018408 0)
(0.0286484 -0.0179002 0)
(0.0324402 -0.0175128 0)
(0.0361432 -0.0170623 0)
(0.0397393 -0.0165296 0)
(0.0432069 -0.0159491 0)
(0.0465336 -0.0153514 0)
(0.0497149 -0.0147505 0)
(0.052752 -0.0141522 0)
(0.0556467 -0.0135588 0)
(0.0583998 -0.0129732 0)
(0.0610138 -0.0123981 0)
(0.063492 -0.0118359 0)
(0.0658383 -0.011288 0)
(0.0680565 -0.0107553 0)
(0.070151 -0.0102379 0)
(0.0721256 -0.00973513 0)
(0.0739846 -0.00924656 0)
(0.0757322 -0.00876986 0)
(0.0773712 -0.00830458 0)
(0.0789055 -0.00784889 0)
(0.0803389 -0.00740077 0)
(0.0816728 -0.0069582 0)
(0.0829089 -0.00651925 0)
(0.0840478 -0.00608144 0)
(0.08509 -0.00564151 0)
(0.0860358 -0.00519676 0)
(0.0868834 -0.00474481 0)
(0.0876328 -0.00428385 0)
(0.0882857 -0.00381268 0)
(0.0888457 -0.0033315 0)
(0.0893184 -0.00284241 0)
(0.0897097 -0.00234822 0)
(0.0900229 -0.00185108 0)
(0.0902592 -0.00135309 0)
(0.0904202 -0.00085684 0)
(0.0905082 -0.000364258 0)
(0.0905176 0.000117865 0)
(0.0904555 0.000589989 0)
(0.090332 0.00105056 0)
(0.0901409 0.00149818 0)
(0.0898803 0.00193191 0)
(0.0895504 0.00235097 0)
(0.0891496 0.00275366 0)
(0.0886742 0.00313837 0)
(0.0881185 0.0035045 0)
(0.0874779 0.00385253 0)
(0.0867498 0.00418519 0)
(0.0859334 0.00450581 0)
(0.0850308 0.0048174 0)
(0.084046 0.00512288 0)
(0.0829827 0.00542307 0)
(0.0818452 0.00571797 0)
(0.080638 0.00600738 0)
(0.0793645 0.0062896 0)
(0.0780277 0.00656338 0)
(0.0766305 0.00682816 0)
(0.0751765 0.00708317 0)
(0.0736685 0.00732756 0)
(0.0721086 0.00756065 0)
(0.0705002 0.00778081 0)
(0.0688468 0.00798741 0)
(0.0671513 0.00817994 0)
(0.0654171 0.00835759 0)
(0.0636477 0.00851995 0)
(0.0618463 0.00866676 0)
(0.0600161 0.00879708 0)
(0.0581606 0.00891035 0)
(0.0562837 0.00900629 0)
(0.0543891 0.00908455 0)
(0.0524799 0.00914486 0)
(0.0505593 0.00918689 0)
(0.0486309 0.0092105 0)
(0.0466979 0.0092158 0)
(0.0447637 0.00920328 0)
(0.0428323 0.00917418 0)
(0.0409081 0.00912925 0)
(0.038993 0.00906983 0)
(0.0370896 0.00899712 0)
(0.0352025 0.00891188 0)
(0.0333363 0.00881657 0)
(0.0314958 0.00871259 0)
(0.0296826 0.0086009 0)
(0.0279015 0.00848343 0)
(0.0261564 0.00836241 0)
(0.0244521 0.00824056 0)
(0.0227931 0.00811869 0)
(0.0211846 0.00800059 0)
(0.0196316 0.00788864 0)
(0.018139 0.00778408 0)
(0.0167179 0.00768844 0)
(0.0153745 0.00760153 0)
(0.0141165 0.00751965 0)
(0.0129556 0.00743387 0)
(0.0118997 0.00733307 0)
(0.0109537 0.0072023 0)
(0.010113 0.00702667 0)
(0.00935836 0.00679469 0)
(0.00866401 0.00650266 0)
(0.00800329 0.00615319 0)
(0.00735079 0.00575608 0)
(0.00668545 0.00532293 0)
(0.00599245 0.0048659 0)
(0.00526346 0.00439522 0)
(0.00449356 0.0039179 0)
(0.00368204 0.00344153 0)
(0.00283897 0.00297041 0)
(0.00198319 0.00251103 0)
(0.00114275 0.00207361 0)
(0.000348787 0.00166474 0)
(-0.000382193 0.00128765 0)
(-0.00104231 0.000941432 0)
(-0.00163253 0.000620565 0)
(-0.00215444 0.000318643 0)
(-0.00261133 2.83238e-05 0)
(-0.00300151 -0.000240772 0)
(-0.00332621 -0.000495371 0)
(-0.00358686 -0.000725332 0)
(-0.00377761 -0.000931495 0)
(-0.00390247 -0.00111509 0)
(-0.00395742 -0.00126843 0)
(-0.00394261 -0.00139465 0)
(-0.00386327 -0.00149453 0)
(-0.00372733 -0.00156965 0)
(-0.00353209 -0.00161741 0)
(-0.00328308 -0.00163698 0)
(-0.00299141 -0.00162524 0)
(-0.00265943 -0.00158512 0)
(-0.00229857 -0.00151233 0)
(-0.00191755 -0.00141054 0)
(-0.00152796 -0.00128147 0)
(-0.00114221 -0.00112965 0)
(-0.000771614 -0.000958342 0)
(-0.000432508 -0.000773245 0)
(-0.000134725 -0.000578322 0)
(0.000113971 -0.000382313 0)
(0.000300787 -0.00019084 0)
(0.000419771 -9.55865e-06 0)
(0.000466874 0.000161764 0)
(0.00041469 0.000337344 0)
(0.000295735 0.000529193 0)
(-1.30736e-05 0.000627065 0)
(-2.81525e-05 0.000147844 0)
(0.000143943 -0.000911341 0)
(0.000884212 0.0012385 0)
(0.00104348 -0.0204819 0)
(0.00573154 -0.0304582 0)
(0.0113926 -0.0308718 0)
(0.0165943 -0.0281015 0)
(0.0213589 -0.025564 0)
(0.0256323 -0.0240925 0)
(0.0296638 -0.023343 0)
(0.033568 -0.0228098 0)
(0.0373689 -0.0222206 0)
(0.0410571 -0.0215227 0)
(0.0446135 -0.0207527 0)
(0.048024 -0.0199535 0)
(0.0512838 -0.0191483 0)
(0.0543919 -0.0183452 0)
(0.057349 -0.0175489 0)
(0.0601568 -0.0167621 0)
(0.0628177 -0.0159891 0)
(0.0653347 -0.0152332 0)
(0.067711 -0.0144971 0)
(0.0699505 -0.0137814 0)
(0.0720576 -0.0130874 0)
(0.0740366 -0.0124144 0)
(0.0758929 -0.0117609 0)
(0.0776302 -0.011126 0)
(0.079252 -0.010508 0)
(0.0807624 -0.00990413 0)
(0.0821641 -0.00931346 0)
(0.0834599 -0.00873429 0)
(0.0846518 -0.00816398 0)
(0.0857427 -0.00760042 0)
(0.0867356 -0.00704095 0)
(0.0876326 -0.00648323 0)
(0.0884364 -0.00592446 0)
(0.0891501 -0.00536273 0)
(0.0897775 -0.00479521 0)
(0.0903219 -0.00422032 0)
(0.090786 -0.00363803 0)
(0.0911725 -0.003049 0)
(0.0914833 -0.00245428 0)
(0.0917187 -0.00185536 0)
(0.0918789 -0.00125247 0)
(0.0919647 -0.00064827 0)
(0.0919846 -4.42997e-05 0)
(0.0919332 0.000557269 0)
(0.0918006 0.00115094 0)
(0.0915909 0.00173271 0)
(0.0913042 0.00229961 0)
(0.09094 0.00284945 0)
(0.0904983 0.00338037 0)
(0.089979 0.00389093 0)
(0.089381 0.00438129 0)
(0.0887027 0.00485252 0)
(0.0879426 0.00530615 0)
(0.0871008 0.00574443 0)
(0.0861786 0.00616955 0)
(0.0851778 0.0065829 0)
(0.0841015 0.00698497 0)
(0.0829532 0.00737661 0)
(0.0817349 0.00775771 0)
(0.0804498 0.00812793 0)
(0.0791019 0.00848594 0)
(0.0776936 0.00883073 0)
(0.0762276 0.00916151 0)
(0.0747068 0.00947722 0)
(0.0731336 0.00977712 0)
(0.0715111 0.0100607 0)
(0.0698431 0.0103266 0)
(0.0681324 0.0105741 0)
(0.0663822 0.0108026 0)
(0.0645952 0.0110113 0)
(0.0627745 0.0111996 0)
(0.0609238 0.0113669 0)
(0.0590466 0.0115128 0)
(0.057146 0.0116368 0)
(0.0552251 0.0117387 0)
(0.0532874 0.011818 0)
(0.0513367 0.0118746 0)
(0.0493762 0.0119085 0)
(0.0474087 0.0119195 0)
(0.0454385 0.011909 0)
(0.0434692 0.0118779 0)
(0.0415036 0.0118258 0)
(0.0395454 0.0117534 0)
(0.0375982 0.011663 0)
(0.0356656 0.0115555 0)
(0.033753 0.0114328 0)
(0.0318639 0.0112957 0)
(0.0300013 0.0111452 0)
(0.0281703 0.0109851 0)
(0.0263754 0.0108147 0)
(0.0246215 0.0106367 0)
(0.0229122 0.010452 0)
(0.021252 0.0102637 0)
(0.0196462 0.0100719 0)
(0.0181005 0.00987886 0)
(0.0166211 0.00968428 0)
(0.0152136 0.00948601 0)
(0.0138834 0.00928409 0)
(0.0126354 0.00907337 0)
(0.0114714 0.00884748 0)
(0.0103907 0.00859828 0)
(0.00938626 0.00831599 0)
(0.00844683 0.00799238 0)
(0.00756081 0.00762296 0)
(0.00671689 0.007208 0)
(0.00590418 0.00674878 0)
(0.00511322 0.00625039 0)
(0.00433996 0.00572204 0)
(0.00358164 0.00517384 0)
(0.00283779 0.00461744 0)
(0.00210454 0.00406693 0)
(0.00137724 0.00353794 0)
(0.000659886 0.00304313 0)
(-4.64708e-05 0.00258965 0)
(-0.000738608 0.00217824 0)
(-0.00140877 0.00180262 0)
(-0.00205408 0.00145623 0)
(-0.0026702 0.00112707 0)
(-0.00326148 0.000819776 0)
(-0.00381593 0.000519692 0)
(-0.00433759 0.000237344 0)
(-0.00482724 -3.88303e-05 0)
(-0.00527712 -0.000303461 0)
(-0.00569968 -0.00055614 0)
(-0.00607679 -0.000796534 0)
(-0.00640496 -0.00102028 0)
(-0.00668863 -0.00122531 0)
(-0.00692008 -0.00140997 0)
(-0.00709506 -0.00157471 0)
(-0.00721045 -0.00170925 0)
(-0.00726458 -0.00181802 0)
(-0.0072608 -0.00189348 0)
(-0.00719243 -0.00193649 0)
(-0.00705938 -0.00193973 0)
(-0.00686997 -0.00190498 0)
(-0.00662413 -0.00183182 0)
(-0.00632397 -0.00172188 0)
(-0.00597607 -0.00157771 0)
(-0.00559004 -0.00140394 0)
(-0.00517196 -0.00120435 0)
(-0.00473041 -0.000988841 0)
(-0.00427562 -0.000766025 0)
(-0.00381341 -0.000541109 0)
(-0.00335148 -0.000298528 0)
(-0.00293346 -3.90531e-06 0)
(-0.00254024 0.00030252 0)
(-0.00223783 0.00028115 0)
(-0.00150429 -0.000700691 0)
(-0.000561148 -0.00212281 0)
(0.000678192 0.00156142 0)
(0.00104577 -0.0251388 0)
(0.00581119 -0.0377152 0)
(0.0116547 -0.0384979 0)
(0.0171021 -0.035132 0)
(0.0220672 -0.0318733 0)
(0.0264807 -0.0298952 0)
(0.0305961 -0.0288612 0)
(0.0345526 -0.028157 0)
(0.0383926 -0.027415 0)
(0.0421121 -0.0265426 0)
(0.0456918 -0.0255753 0)
(0.0491163 -0.024566 0)
(0.0523802 -0.0235466 0)
(0.0554828 -0.0225302 0)
(0.0584265 -0.0215224 0)
(0.0612137 -0.0205277 0)
(0.0638479 -0.0195502 0)
(0.0663334 -0.0185944 0)
(0.0686761 -0.0176647 0)
(0.0708807 -0.016762 0)
(0.0729517 -0.0158867 0)
(0.0748958 -0.0150386 0)
(0.0767178 -0.0142163 0)
(0.0784222 -0.0134185 0)
(0.0800148 -0.0126427 0)
(0.0814991 -0.0118862 0)
(0.0828779 -0.0111463 0)
(0.0841559 -0.01042 0)
(0.0853359 -0.00970427 0)
(0.08642 -0.00899621 0)
(0.0874107 -0.00829339 0)
(0.0883107 -0.00759349 0)
(0.0891199 -0.00689459 0)
(0.0898408 -0.00619469 0)
(0.0904767 -0.00549341 0)
(0.0910286 -0.00479033 0)
(0.0914986 -0.00408438 0)
(0.0918897 -0.00337764 0)
(0.0922028 -0.00267106 0)
(0.0924398 -0.00196538 0)
(0.0926013 -0.00126189 0)
(0.092688 -0.000562177 0)
(0.0926951 0.000131504 0)
(0.092627 0.000815494 0)
(0.0924909 0.00148979 0)
(0.092282 0.00215338 0)
(0.0919982 0.00280487 0)
(0.0916383 0.00344332 0)
(0.0911997 0.00406754 0)
(0.0906811 0.00467668 0)
(0.0900818 0.00526999 0)
(0.0894007 0.00584713 0)
(0.0886378 0.00640876 0)
(0.0877937 0.00695598 0)
(0.0868691 0.0074888 0)
(0.0858652 0.00800758 0)
(0.0847847 0.00851306 0)
(0.083631 0.00900431 0)
(0.0824067 0.00948055 0)
(0.0811138 0.00994196 0)
(0.0797544 0.0103875 0)
(0.0783319 0.0108158 0)
(0.0768496 0.0112261 0)
(0.0753105 0.0116174 0)
(0.0737174 0.0119887 0)
(0.0720724 0.0123398 0)
(0.0703787 0.0126692 0)
(0.0686401 0.0129757 0)
(0.0668597 0.0132589 0)
(0.0650406 0.0135177 0)
(0.0631861 0.0137516 0)
(0.0612994 0.0139599 0)
(0.0593841 0.0141421 0)
(0.0574439 0.0142975 0)
(0.0554822 0.0144259 0)
(0.0535026 0.0145272 0)
(0.0515085 0.014601 0)
(0.0495037 0.0146465 0)
(0.0474928 0.0146652 0)
(0.0454805 0.0146576 0)
(0.0434679 0.0146232 0)
(0.0414594 0.0145629 0)
(0.0394608 0.0144774 0)
(0.037475 0.0143679 0)
(0.0355063 0.0142355 0)
(0.0335593 0.0140818 0)
(0.0316382 0.0139074 0)
(0.0297488 0.0137143 0)
(0.0278939 0.0135042 0)
(0.0260764 0.0132786 0)
(0.0243031 0.0130395 0)
(0.0225791 0.0127873 0)
(0.0209085 0.0125241 0)
(0.0192952 0.0122521 0)
(0.0177429 0.0119723 0)
(0.0162564 0.0116849 0)
(0.0148419 0.0113884 0)
(0.0135024 0.0110821 0)
(0.0122389 0.0107641 0)
(0.0110534 0.0104301 0)
(0.00994537 0.0100752 0)
(0.00891219 0.00969674 0)
(0.00794749 0.00929172 0)
(0.00704543 0.00885901 0)
(0.00619564 0.00840097 0)
(0.00538646 0.00792013 0)
(0.0046113 0.0074221 0)
(0.00386197 0.00691288 0)
(0.00312993 0.00639678 0)
(0.00240936 0.00587917 0)
(0.00169709 0.00536392 0)
(0.000993819 0.00485721 0)
(0.000300201 0.00436421 0)
(-0.000377716 0.00388349 0)
(-0.00103219 0.0034268 0)
(-0.00166081 0.00299152 0)
(-0.00226698 0.00257549 0)
(-0.00283921 0.00218042 0)
(-0.00338519 0.00179895 0)
(-0.00390266 0.00144097 0)
(-0.00438979 0.0010928 0)
(-0.00486098 0.000762513 0)
(-0.00530667 0.00043821 0)
(-0.00573152 0.000127324 0)
(-0.00613487 -0.000166775 0)
(-0.00650792 -0.00045056 0)
(-0.00684957 -0.000718908 0)
(-0.00716306 -0.000969286 0)
(-0.00743848 -0.00120038 0)
(-0.00767181 -0.00141233 0)
(-0.00786519 -0.00159843 0)
(-0.00801493 -0.00175826 0)
(-0.00811015 -0.0018853 0)
(-0.0081471 -0.0019819 0)
(-0.00812676 -0.00204353 0)
(-0.0080427 -0.00206642 0)
(-0.00789286 -0.00205019 0)
(-0.00767535 -0.00199722 0)
(-0.00739093 -0.00191003 0)
(-0.00704018 -0.00178959 0)
(-0.00662481 -0.0016452 0)
(-0.00614985 -0.00148557 0)
(-0.00561836 -0.00130835 0)
(-0.00504082 -0.00108281 0)
(-0.00444787 -0.00077144 0)
(-0.00382109 -0.000482515 0)
(-0.00319364 -0.000757758 0)
(-0.00214781 -0.00225643 0)
(-0.000930534 -0.00387893 0)
(0.000479023 0.00138718 0)
(0.00103508 -0.02984 0)
(0.00586918 -0.0451658 0)
(0.0119435 -0.0464803 0)
(0.0177308 -0.0425438 0)
(0.0229925 -0.0384696 0)
(0.02761 -0.0358663 0)
(0.0318324 -0.034473 0)
(0.0358453 -0.0335634 0)
(0.0397256 -0.0326548 0)
(0.0434783 -0.0315971 0)
(0.0470826 -0.0304181 0)
(0.0505191 -0.029182 0)
(0.0537803 -0.0279317 0)
(0.0568663 -0.0266868 0)
(0.0597807 -0.0254552 0)
(0.0625303 -0.0242423 0)
(0.0651209 -0.0230536 0)
(0.0675568 -0.0218948 0)
(0.0698466 -0.0207695 0)
(0.0719992 -0.0196803 0)
(0.0740202 -0.0186269 0)
(0.0759163 -0.0176091 0)
(0.0776945 -0.0166252 0)
(0.0793601 -0.0156724 0)
(0.0809186 -0.0147478 0)
(0.0823745 -0.0138489 0)
(0.083731 -0.0129717 0)
(0.0849915 -0.012113 0)
(0.0861585 -0.0112697 0)
(0.0872339 -0.010439 0)
(0.0882199 -0.00961818 0)
(0.0891181 -0.00880477 0)
(0.0899306 -0.00799671 0)
(0.0906584 -0.00719085 0)
(0.0913027 -0.00638574 0)
(0.0918672 -0.00558027 0)
(0.0923511 -0.0047735 0)
(0.092754 -0.00396526 0)
(0.093079 -0.00315615 0)
(0.093326 -0.00234673 0)
(0.0934942 -0.00153856 0)
(0.0935833 -0.000732356 0)
(0.0935993 7.004e-05 0)
(0.0935395 0.00086927 0)
(0.0933973 0.00166191 0)
(0.0931753 0.00244524 0)
(0.0928743 0.00321712 0)
(0.0924937 0.00397558 0)
(0.092033 0.00471866 0)
(0.0914915 0.00544583 0)
(0.0908684 0.00615655 0)
(0.0901639 0.00685045 0)
(0.0893786 0.00752761 0)
(0.0885121 0.00818754 0)
(0.0875653 0.00883115 0)
(0.086541 0.00945769 0)
(0.0854405 0.0100674 0)
(0.0842649 0.0106601 0)
(0.0830177 0.0112342 0)
(0.0817013 0.0117891 0)
(0.0803175 0.0123244 0)
(0.0788691 0.0128392 0)
(0.0773592 0.0133321 0)
(0.0757906 0.0138021 0)
(0.0741663 0.0142482 0)
(0.0724887 0.0146693 0)
(0.0707607 0.0150642 0)
(0.0689864 0.0154321 0)
(0.0671688 0.0157722 0)
(0.065311 0.0160835 0)
(0.0634164 0.016365 0)
(0.0614888 0.016616 0)
(0.0595318 0.0168359 0)
(0.0575491 0.0170241 0)
(0.0555445 0.0171801 0)
(0.0535215 0.0173035 0)
(0.0514834 0.0173938 0)
(0.049436 0.0174516 0)
(0.0473839 0.0174772 0)
(0.0453293 0.0174698 0)
(0.0432765 0.0174297 0)
(0.0412302 0.0173585 0)
(0.039195 0.0172562 0)
(0.0371751 0.017124 0)
(0.0351749 0.0169628 0)
(0.0331992 0.0167739 0)
(0.0312522 0.0165587 0)
(0.0293388 0.0163185 0)
(0.027463 0.0160544 0)
(0.0256298 0.0157688 0)
(0.0238427 0.0154634 0)
(0.0221057 0.0151404 0)
(0.0204251 0.0148007 0)
(0.018805 0.0144444 0)
(0.0172479 0.0140739 0)
(0.0157563 0.0136901 0)
(0.0143345 0.0132945 0)
(0.0129872 0.0128848 0)
(0.0117144 0.0124609 0)
(0.0105141 0.0120208 0)
(0.00938816 0.0115641 0)
(0.008333 0.0110875 0)
(0.00734066 0.0105898 0)
(0.00640725 0.0100714 0)
(0.00552684 0.00953252 0)
(0.00469276 0.00897674 0)
(0.0038995 0.00840832 0)
(0.00314024 0.00783082 0)
(0.0024101 0.00725092 0)
(0.00170723 0.00667546 0)
(0.00102887 0.00610987 0)
(0.000372347 0.00556132 0)
(-0.000269058 0.00503384 0)
(-0.000884838 0.00452955 0)
(-0.00147269 0.00405312 0)
(-0.00204406 0.00360041 0)
(-0.00259013 0.00317211 0)
(-0.0031137 0.00276341 0)
(-0.00360858 0.00237036 0)
(-0.00407297 0.00199802 0)
(-0.0045152 0.00163392 0)
(-0.00493619 0.0012829 0)
(-0.00533288 0.000942347 0)
(-0.00570125 0.000612307 0)
(-0.00604713 0.000295121 0)
(-0.00636945 -9.58772e-06 0)
(-0.00666454 -0.00030413 0)
(-0.00693325 -0.00058768 0)
(-0.00717748 -0.000854768 0)
(-0.00738847 -0.00110691 0)
(-0.00756452 -0.00134267 0)
(-0.00770848 -0.00155768 0)
(-0.00781412 -0.00174802 0)
(-0.00787801 -0.00191392 0)
(-0.00789189 -0.00205195 0)
(-0.00785127 -0.00215847 0)
(-0.00775505 -0.00223391 0)
(-0.00760005 -0.00227658 0)
(-0.00737826 -0.00228649 0)
(-0.00708684 -0.00226692 0)
(-0.00672885 -0.00222251 0)
(-0.00630166 -0.00216122 0)
(-0.00580494 -0.00207511 0)
(-0.00524312 -0.00192426 0)
(-0.00463328 -0.0016677 0)
(-0.00396043 -0.00146577 0)
(-0.00326447 -0.0019734 0)
(-0.00224752 -0.00389401 0)
(-0.00106858 -0.00569827 0)
(0.000339336 0.00093763 0)
(0.00100879 -0.0345569 0)
(0.00589827 -0.0528239 0)
(0.0122235 -0.0548981 0)
(0.0184366 -0.0504728 0)
(0.0241091 -0.0454816 0)
(0.0290246 -0.0420944 0)
(0.0334117 -0.0402179 0)
(0.0375108 -0.0390465 0)
(0.0414449 -0.037955 0)
(0.045243 -0.0367044 0)
(0.0488854 -0.0352987 0)
(0.0523465 -0.0338139 0)
(0.0556143 -0.0323096 0)
(0.0586878 -0.0308147 0)
(0.0615746 -0.0293414 0)
(0.0642836 -0.0278971 0)
(0.066823 -0.0264881 0)
(0.0692026 -0.0251203 0)
(0.0714334 -0.0237978 0)
(0.0735253 -0.0225228 0)
(0.0754869 -0.021295 0)
(0.0773269 -0.0201125 0)
(0.0790537 -0.0189729 0)
(0.0806734 -0.0178726 0)
(0.0821914 -0.0168069 0)
(0.0836129 -0.015772 0)
(0.0849411 -0.0147638 0)
(0.0861791 -0.0137777 0)
(0.0873296 -0.0128101 0)
(0.0883933 -0.011856 0)
(0.0893724 -0.0109132 0)
(0.0902681 -0.00997849 0)
(0.0910809 -0.0090489 0)
(0.0918118 -0.00812242 0)
(0.0924611 -0.00719745 0)
(0.0930288 -0.00627297 0)
(0.0935155 -0.00534952 0)
(0.0939216 -0.00442591 0)
(0.0942471 -0.00350286 0)
(0.0944926 -0.00258125 0)
(0.0946583 -0.00166183 0)
(0.0947443 -0.000745379 0)
(0.0947472 0.000166821 0)
(0.0946691 0.00107008 0)
(0.0945135 0.00196502 0)
(0.0942776 0.0028512 0)
(0.0939606 0.00372721 0)
(0.0935615 0.00459092 0)
(0.0930798 0.00544166 0)
(0.092516 0.00627793 0)
(0.0918698 0.00709845 0)
(0.0911408 0.00790306 0)
(0.0903291 0.00869061 0)
(0.0894366 0.00946023 0)
(0.0884639 0.0102119 0)
(0.0874115 0.0109454 0)
(0.0862827 0.0116591 0)
(0.0850785 0.0123524 0)
(0.0838006 0.0130252 0)
(0.0824525 0.0136757 0)
(0.0810365 0.0143026 0)
(0.0795541 0.0149053 0)
(0.0780084 0.0154823 0)
(0.076403 0.0160325 0)
(0.0747403 0.0165547 0)
(0.0730226 0.0170476 0)
(0.0712535 0.0175102 0)
(0.0694371 0.0179412 0)
(0.0675762 0.0183397 0)
(0.0656739 0.0187046 0)
(0.063734 0.0190348 0)
(0.0617603 0.0193296 0)
(0.0597564 0.019588 0)
(0.0577262 0.0198093 0)
(0.0556736 0.0199929 0)
(0.0536021 0.0201387 0)
(0.051517 0.0202454 0)
(0.0494229 0.0203145 0)
(0.0473227 0.0203446 0)
(0.0452212 0.020336 0)
(0.043123 0.0202891 0)
(0.0410322 0.0202047 0)
(0.038954 0.0200827 0)
(0.0368928 0.0199251 0)
(0.0348528 0.0197323 0)
(0.0328394 0.0195049 0)
(0.0308565 0.0192448 0)