/*--------------------------------*- C++ -*----------------------------------*\
| =========                 |                                                 |
| \\      /  F ield         | OpenFOAM: The Open Source CFD Toolbox           |
|  \\    /   O peration     | Version:  v2006                                 |
|   \\  /    A nd           | Website:  www.openfoam.com                      |
|    \\/     M anipulation  |                                                 |
\*---------------------------------------------------------------------------*/
FoamFile
{
    version     2.0;
    format      ascii;
    class       volVectorField;
    location    "0";
    object      U;
}
// * * * * * * * * * * * * * * * * * * * * * * * * * * * * * * * * * * * * * //

dimensions      [0 1 -1 0 0 0 0];


internalField   nonuniform List<vector> 
67500
(
(-0.0114374 0.0157716 0)
(-0.0384843 0.000519132 0)
(-0.025794 -0.0367084 0)
(0.017839 0.00236904 0)
(-0.0519294 -0.0257176 0)
(-0.0636852 -0.0321816 0)
(-0.0572709 0.00343262 0)
(-0.0530344 -0.00143439 0)
(-0.0137231 -0.0293958 0)
(0.0085497 -0.0319531 0)
(0.0318346 -0.0343825 0)
(0.0635573 -0.0329143 0)
(0.0998178 -0.0318641 0)
(0.13246 -0.0283367 0)
(0.161248 -0.0225691 0)
(0.188121 -0.0192595 0)
(0.223083 -0.0171776 0)
(0.26083 -0.00950641 0)
(0.287902 0.00571875 0)
(0.261114 0.0155184 0)
(0.209353 0.0149212 0)
(0.169688 0.00190873 0)
(0.155409 -0.0123878 0)
(0.152267 -0.0169983 0)
(0.155587 -0.0169125 0)
(0.164183 -0.0142812 0)
(0.173893 -0.0120766 0)
(0.183515 -0.0105937 0)
(0.192352 -0.00909855 0)
(0.200149 -0.00719798 0)
(0.207285 -0.00496709 0)
(0.213347 -0.00314743 0)
(0.217822 -0.00202134 0)
(0.220761 -0.00120977 0)
(0.222805 -0.000858534 0)
(0.224833 -0.000714752 0)
(0.227469 -0.000815449 0)
(0.231 -0.000997719 0)
(0.235368 -0.00103405 0)
(0.240374 -0.00100017 0)
(0.246026 -0.00112678 0)
(0.25249 -0.00152773 0)
(0.259857 -0.00215528 0)
(0.268042 -0.00286971 0)
(0.276783 -0.0035148 0)
(0.285718 -0.00398101 0)
(0.294476 -0.00424242 0)
(0.30276 -0.00436217 0)
(0.310394 -0.00444387 0)
(0.317348 -0.00454472 0)
(0.323724 -0.00464218 0)
(0.329705 -0.00468249 0)
(0.3355 -0.0046346 0)
(0.341312 -0.00450934 0)
(0.347311 -0.00435111 0)
(0.35361 -0.00420462 0)
(0.360231 -0.00408418 0)
(0.367101 -0.00398833 0)
(0.374096 -0.00394241 0)
(0.38109 -0.00391931 0)
(0.38795 -0.00389365 0)
(0.394578 -0.0038503 0)
(0.400946 -0.00377974 0)
(0.407096 -0.00368112 0)
(0.413125 -0.00356807 0)
(0.419159 -0.00346884 0)
(0.425322 -0.00341764 0)
(0.431711 -0.00344036 0)
(0.438378 -0.00354252 0)
(0.445322 -0.00370704 0)
(0.4525 -0.00390153 0)
(0.459836 -0.00408861 0)
(0.467241 -0.00423407 0)
(0.474639 -0.0043119 0)
(0.481977 -0.00430761 0)
(0.489229 -0.0042205 0)
(0.496398 -0.00406407 0)
(0.503501 -0.00386294 0)
(0.510561 -0.00364736 0)
(0.5176 -0.00344769 0)
(0.52463 -0.0032874 0)
(0.53165 -0.00317452 0)
(0.538628 -0.00309075 0)
(0.545442 -0.00298688 0)
(0.55195 -0.00287499 0)
(0.558181 -0.00284379 0)
(0.56429 -0.00289045 0)
(0.570357 -0.00296492 0)
(0.576387 -0.00303732 0)
(0.582379 -0.00309813 0)
(0.588341 -0.00314635 0)
(0.594293 -0.00318405 0)
(0.600261 -0.00321518 0)
(0.606278 -0.00324462 0)
(0.612374 -0.00327518 0)
(0.618575 -0.00330602 0)
(0.624892 -0.0033338 0)
(0.631324 -0.00335498 0)
(0.637855 -0.0033675 0)
(0.644467 -0.00336697 0)
(0.65112 -0.00334023 0)
(0.657742 -0.00327754 0)
(0.66428 -0.00320906 0)
(0.670751 -0.00316546 0)
(0.677206 -0.00314481 0)
(0.683676 -0.00313691 0)
(0.690168 -0.00313624 0)
(0.69668 -0.00313887 0)
(0.703202 -0.00314041 0)
(0.709711 -0.00313523 0)
(0.716171 -0.00311647 0)
(0.722537 -0.00308317 0)
(0.728785 -0.00305142 0)
(0.734941 -0.00303724 0)
(0.741052 -0.00303831 0)
(0.747146 -0.00304344 0)
(0.753227 -0.00304271 0)
(0.759279 -0.00302919 0)
(0.765281 -0.00300128 0)
(0.771212 -0.00296594 0)
(0.777076 -0.00293336 0)
(0.782887 -0.00290665 0)
(0.788659 -0.00288217 0)
(0.79439 -0.00285578 0)
(0.800071 -0.00282607 0)
(0.805693 -0.00279495 0)
(0.811254 -0.00276514 0)
(0.816758 -0.00273676 0)
(0.822206 -0.00270788 0)
(0.827593 -0.00267704 0)
(0.832916 -0.0026442 0)
(0.83817 -0.0026099 0)
(0.843354 -0.00257413 0)
(0.848465 -0.00253648 0)
(0.853498 -0.00249684 0)
(0.858451 -0.00245547 0)
(0.86332 -0.00241252 0)
(0.868101 -0.00236801 0)
(0.872792 -0.002322 0)
(0.87739 -0.00227464 0)
(0.881891 -0.00222607 0)
(0.886294 -0.0021764 0)
(0.890596 -0.00212579 0)
(0.894796 -0.00207437 0)
(0.898893 -0.00202229 0)
(0.902885 -0.00196968 0)
(0.906771 -0.00191666 0)
(0.91055 -0.00186334 0)
(0.914223 -0.00180984 0)
(0.917788 -0.00175624 0)
(0.921246 -0.00170263 0)
(0.924597 -0.00164909 0)
(0.927841 -0.0015957 0)
(0.930979 -0.00154251 0)
(0.93401 -0.0014896 0)
(0.936936 -0.00143703 0)
(0.939757 -0.00138489 0)
(0.942474 -0.00133325 0)
(0.945088 -0.00128224 0)
(0.947601 -0.00123195 0)
(0.950015 -0.00118251 0)
(0.95233 -0.00113402 0)
(0.954549 -0.0010866 0)
(0.956674 -0.00104034 0)
(0.958708 -0.000995337 0)
(0.960654 -0.000951657 0)
(0.962513 -0.000909358 0)
(0.96429 -0.000868484 0)
(0.965985 -0.000829062 0)
(0.967604 -0.000791109 0)
(0.969148 -0.00075463 0)
(0.970621 -0.000719616 0)
(0.972025 -0.000686054 0)
(0.973363 -0.000653919 0)
(0.974639 -0.00062318 0)
(0.975854 -0.000593802 0)
(0.977013 -0.000565744 0)
(0.978116 -0.000538962 0)
(0.979167 -0.00051341 0)
(0.980168 -0.00048904 0)
(0.981122 -0.000465805 0)
(0.98203 -0.000443655 0)
(0.982896 -0.000422545 0)
(0.98372 -0.000402428 0)
(0.984504 -0.000383258 0)
(0.985252 -0.000364992 0)
(0.985963 -0.000347589 0)
(0.986641 -0.000331008 0)
(0.987287 -0.000315209 0)
(0.987901 -0.000300155 0)
(0.988486 -0.000285808 0)
(0.989044 -0.000272133 0)
(0.989574 -0.000259093 0)
(0.990079 -0.000246656 0)
(0.99056 -0.000234788 0)
(0.991018 -0.000223457 0)
(0.991453 -0.000212635 0)
(0.991868 -0.000202293 0)
(0.992262 -0.000192408 0)
(0.992637 -0.000182956 0)
(0.992993 -0.000173918 0)
(0.993332 -0.000165277 0)
(0.993654 -0.000157017 0)
(0.99396 -0.000149126 0)
(0.99425 -0.000141591 0)
(0.994526 -0.000134404 0)
(0.994787 -0.000127553 0)
(0.995036 -0.000121031 0)
(0.995271 -0.000114827 0)
(0.995495 -0.000108934 0)
(0.995707 -0.00010334 0)
(0.995908 -9.80373e-05 0)
(0.996099 -9.30144e-05 0)
(0.99628 -8.82609e-05 0)
(0.996452 -8.37658e-05 0)
(0.996615 -7.95175e-05 0)
(0.99677 -7.55048e-05 0)
(0.996917 -7.1716e-05 0)
(0.997057 -6.81396e-05 0)
(0.99719 -6.47643e-05 0)
(0.997316 -6.15787e-05 0)
(0.997436 -5.8572e-05 0)
(0.997551 -5.57334e-05 0)
(0.997659 -5.30524e-05 0)
(0.997763 -5.05192e-05 0)
(0.997861 -4.81238e-05 0)
(0.997955 -4.58571e-05 0)
(0.998045 -4.371e-05 0)
(0.99813 -4.16741e-05 0)
(0.998211 -3.97413e-05 0)
(0.998289 -3.7904e-05 0)
(0.998363 -3.61551e-05 0)
(0.998434 -3.44878e-05 0)
(0.998501 -3.28961e-05 0)
(0.998565 -3.13745e-05 0)
(0.998626 -2.99177e-05 0)
(0.998685 -2.85212e-05 0)
(0.998741 -2.7181e-05 0)
(0.998794 -2.58936e-05 0)
(0.998844 -2.46556e-05 0)
(0.998892 -2.34646e-05 0)
(0.998938 -2.23181e-05 0)
(0.998981 -2.12143e-05 0)
(0.999023 -2.01514e-05 0)
(0.999062 -1.91282e-05 0)
(0.999099 -1.81434e-05 0)
(0.999134 -1.7196e-05 0)
(0.999168 -1.62853e-05 0)
(0.9992 -1.54106e-05 0)
(0.99923 -1.45712e-05 0)
(0.999258 -1.37665e-05 0)
(0.999285 -1.29961e-05 0)
(0.99931 -1.22594e-05 0)
(0.999334 -1.15559e-05 0)
(0.999356 -1.0885e-05 0)
(0.999377 -1.02463e-05 0)
(0.999397 -9.63908e-06 0)
(0.999416 -9.06279e-06 0)
(0.999433 -8.51678e-06 0)
(0.99945 -8.00035e-06 0)
(0.999465 -7.5128e-06 0)
(0.99948 -7.05336e-06 0)
(0.999493 -6.62125e-06 0)
(0.999506 -6.21566e-06 0)
(0.999518 -5.83575e-06 0)
(0.999529 -5.48066e-06 0)
(0.99954 -5.14952e-06 0)
(0.99955 -4.84144e-06 0)
(0.999559 -4.55553e-06 0)
(0.999568 -4.29087e-06 0)
(0.999576 -4.04657e-06 0)
(0.999584 -3.82172e-06 0)
(0.999592 -3.61541e-06 0)
(0.999599 -3.42674e-06 0)
(0.999605 -3.25482e-06 0)
(0.999612 -3.09876e-06 0)
(0.999618 -2.95769e-06 0)
(0.999624 -2.83075e-06 0)
(0.999629 -2.71707e-06 0)
(0.999634 -2.61584e-06 0)
(0.99964 -2.52622e-06 0)
(0.999645 -2.44742e-06 0)
(0.999649 -2.37865e-06 0)
(0.999654 -2.31915e-06 0)
(0.999659 -2.26819e-06 0)
(0.999663 -2.22505e-06 0)
(0.999667 -2.18903e-06 0)
(0.999672 -2.15946e-06 0)
(0.999676 -2.13571e-06 0)
(0.99968 -2.11715e-06 0)
(0.999685 -2.1032e-06 0)
(0.999689 -2.0933e-06 0)
(0.999693 -2.08692e-06 0)
(0.999697 -2.08354e-06 0)
(0.999701 -2.0827e-06 0)
(0.999705 -2.08393e-06 0)
(0.99971 -2.08682e-06 0)
(0.999714 -2.09096e-06 0)
(0.999718 -2.09599e-06 0)
(0.999722 -2.10153e-06 0)
(0.999726 -2.10728e-06 0)
(0.999731 -2.11292e-06 0)
(0.999735 -2.11816e-06 0)
(0.999739 -2.12272e-06 0)
(0.999743 -2.12637e-06 0)
(0.999748 -2.12885e-06 0)
(0.999752 -2.12995e-06 0)
(0.999756 -2.12945e-06 0)
(0.99976 -2.12715e-06 0)
(0.999765 -2.12288e-06 0)
(0.999769 -2.11646e-06 0)
(0.999773 -2.10772e-06 0)
(0.999777 -2.09652e-06 0)
(0.999781 -2.08271e-06 0)
(0.999786 -2.06617e-06 0)
(0.99979 -2.0468e-06 0)
(0.999794 -2.02449e-06 0)
(0.999798 -1.99917e-06 0)
(0.999802 -1.97078e-06 0)
(0.999806 -1.93928e-06 0)
(0.99981 -1.90467e-06 0)
(0.999813 -1.86696e-06 0)
(0.999817 -1.8262e-06 0)
(0.999821 -1.78246e-06 0)
(0.999824 -1.73587e-06 0)
(0.999828 -1.68656e-06 0)
(0.999831 -1.63474e-06 0)
(0.999834 -1.58062e-06 0)
(0.999837 -1.52447e-06 0)
(0.99984 -1.4666e-06 0)
(0.999843 -1.40733e-06 0)
(0.999846 -1.34705e-06 0)
(0.999849 -1.28613e-06 0)
(0.999851 -1.22498e-06 0)
(0.999853 -1.16402e-06 0)
(0.999856 -1.10366e-06 0)
(0.999858 -1.04431e-06 0)
(0.99986 -9.86375e-07 0)
(0.999862 -9.30212e-07 0)
(0.999864 -8.76169e-07 0)
(0.999865 -8.24559e-07 0)
(0.999867 -7.75659e-07 0)
(0.999868 -7.29714e-07 0)
(0.99987 -6.86936e-07 0)
(0.999871 -6.47508e-07 0)
(0.999872 -6.11584e-07 0)
(0.999874 -5.79295e-07 0)
(0.999875 -5.50749e-07 0)
(0.999876 -5.26027e-07 0)
(0.999877 -5.05183e-07 0)
(0.999878 -4.88237e-07 0)
(0.999879 -4.75164e-07 0)
(0.99988 -4.65886e-07 0)
(0.999881 -4.60254e-07 0)
(0.999881 -4.58038e-07 0)
(0.999882 -4.58916e-07 0)
(0.999883 -4.62462e-07 0)
(0.999884 -4.68146e-07 0)
(0.999885 -4.75336e-07 0)
(0.999886 -4.83316e-07 0)
(0.999887 -4.91307e-07 0)
(0.999888 -4.98508e-07 0)
(0.999889 -5.04141e-07 0)
(0.99989 -5.0751e-07 0)
(0.999891 -5.08062e-07 0)
(0.999892 -5.05439e-07 0)
(0.999893 -4.99522e-07 0)
(0.999894 -4.90459e-07 0)
(0.999895 -4.7867e-07 0)
(0.999896 -4.64822e-07 0)
(0.999897 -4.49791e-07 0)
(0.999898 -4.34592e-07 0)
(0.999899 -4.20304e-07 0)
(0.9999 -4.07985e-07 0)
(0.999901 -3.98589e-07 0)
(0.999902 -3.92896e-07 0)
(0.999903 -3.91461e-07 0)
(0.999903 -3.94583e-07 0)
(0.999904 -4.02294e-07 0)
(0.999905 -4.14381e-07 0)
(0.999906 -4.30407e-07 0)
(0.999907 -4.49762e-07 0)
(0.999908 -4.7171e-07 0)
(0.999909 -4.95443e-07 0)
(0.99991 -5.20128e-07 0)
(0.999912 -5.44957e-07 0)
(0.999913 -5.69175e-07 0)
(0.999914 -5.92116e-07 0)
(0.999915 -6.13214e-07 0)
(0.999916 -6.3202e-07 0)
(0.999918 -6.48198e-07 0)
(0.999919 -6.61525e-07 0)
(0.99992 -6.71881e-07 0)
(0.999922 -6.7924e-07 0)
(0.999923 -6.83654e-07 0)
(0.999925 -6.85237e-07 0)
(0.999926 -6.84157e-07 0)
(0.999927 -6.80615e-07 0)
(0.999929 -6.7484e-07 0)
(0.99993 -6.67072e-07 0)
(0.999931 -6.57557e-07 0)
(0.999933 -6.4654e-07 0)
(0.999934 -6.34257e-07 0)
(0.999935 -6.2093e-07 0)
(0.999936 -6.0677e-07 0)
(0.999938 -5.91966e-07 0)
(0.999939 -5.76692e-07 0)
(0.99994 -5.61103e-07 0)
(0.999941 -5.45335e-07 0)
(0.999942 -5.29508e-07 0)
(0.999943 -5.13725e-07 0)
(0.999944 -4.98072e-07 0)
(0.999945 -4.82624e-07 0)
(0.999946 -4.67442e-07 0)
(0.999947 -4.52574e-07 0)
(0.999948 -4.38061e-07 0)
(0.999949 -4.23932e-07 0)
(0.99995 -4.10211e-07 0)
(0.99995 -3.96913e-07 0)
(0.999951 -3.84049e-07 0)
(0.999952 -3.71625e-07 0)
(0.999953 -3.59642e-07 0)
(0.999953 -3.48098e-07 0)
(0.999954 -3.36988e-07 0)
(0.999955 -3.26305e-07 0)
(0.999955 -3.16039e-07 0)
(0.999956 -3.06181e-07 0)
(0.999956 -2.96719e-07 0)
(0.999957 -2.87639e-07 0)
(0.999958 -2.7893e-07 0)
(0.999958 -2.70577e-07 0)
(0.999959 -2.62567e-07 0)
(0.999959 -2.54886e-07 0)
(0.99996 -2.4752e-07 0)
(0.99996 -2.40456e-07 0)
(0.999961 -2.3368e-07 0)
(0.999961 -2.27178e-07 0)
(0.999962 -2.20939e-07 0)
(0.999962 -2.1495e-07 0)
(0.999962 -2.09198e-07 0)
(0.999963 -2.03673e-07 0)
(0.999963 -1.98361e-07 0)
(0.999964 -1.93254e-07 0)
(0.999964 -1.88339e-07 0)
(0.999964 -1.8361e-07 0)
(0.999965 -1.79046e-07 0)
(0.999965 -1.74681e-07 0)
(0.999965 -1.70323e-07 0)
(0.999966 -1.66762e-07 0)
(0.999966 -1.60479e-07 0)
(-0.00347468 0.0288016 0)
(-0.0136546 0.0128074 0)
(0.00693778 -0.0424202 0)
(0.00542088 0.0308564 0)
(-0.027715 0.0846264 0)
(-0.0912327 0.0363212 0)
(-0.145525 -0.0236718 0)
(-0.0882434 -0.0530113 0)
(0.12946 -0.0526437 0)
(0.293925 0.0192676 0)
(0.125385 -0.0275822 0)
(0.0816079 -0.0412699 0)
(0.0685413 -0.0382302 0)
(0.057579 -0.0385285 0)
(0.0523509 -0.0415201 0)
(0.0761216 -0.0496913 0)
(0.114237 -0.0705762 0)
(0.150873 -0.0657064 0)
(0.221581 -0.00766879 0)
(0.286353 0.0422399 0)
(0.291464 0.0653188 0)
(0.277529 0.0565024 0)
(0.264336 0.0340957 0)
(0.253068 0.0160943 0)
(0.24425 0.00498221 0)
(0.234305 -0.00417536 0)
(0.224046 -0.00947054 0)
(0.215159 -0.00963737 0)
(0.210606 -0.00873427 0)
(0.21358 -0.0093244 0)
(0.222929 -0.00859921 0)
(0.234005 -0.00724917 0)
(0.244479 -0.00600412 0)
(0.254278 -0.00354071 0)
(0.264648 -0.00336254 0)
(0.277037 -0.00409255 0)
(0.289316 -0.00532131 0)
(0.300469 -0.00660298 0)
(0.310946 -0.00775607 0)
(0.321006 -0.00894346 0)
(0.330576 -0.0102642 0)
(0.339499 -0.0116241 0)
(0.347633 -0.0128233 0)
(0.354893 -0.0136388 0)
(0.361368 -0.0139163 0)
(0.367362 -0.0136232 0)
(0.373306 -0.0128147 0)
(0.379527 -0.0115903 0)
(0.386059 -0.010132 0)
(0.392716 -0.00870462 0)
(0.399302 -0.00756667 0)
(0.405727 -0.00688122 0)
(0.411966 -0.00671003 0)
(0.418044 -0.00701094 0)
(0.424014 -0.00764696 0)
(0.429884 -0.00844056 0)
(0.435658 -0.0092029 0)
(0.441375 -0.00967993 0)
(0.446992 -0.00989113 0)
(0.452556 -0.00978203 0)
(0.458071 -0.00940634 0)
(0.463545 -0.00890737 0)
(0.46902 -0.00845307 0)
(0.474555 -0.00818531 0)
(0.480204 -0.00818396 0)
(0.48599 -0.00844525 0)
(0.491884 -0.00889248 0)
(0.497815 -0.00941366 0)
(0.503687 -0.00989834 0)
(0.509399 -0.010261 0)
(0.514858 -0.0104553 0)
(0.519995 -0.0104804 0)
(0.524771 -0.0103793 0)
(0.52918 -0.010225 0)
(0.533247 -0.0100981 0)
(0.537022 -0.0100611 0)
(0.540568 -0.0101402 0)
(0.543957 -0.0103229 0)
(0.547257 -0.0105697 0)
(0.550531 -0.0108288 0)
(0.55384 -0.0110515 0)
(0.557247 -0.0111858 0)
(0.560807 -0.0111416 0)
(0.564453 -0.0107537 0)
(0.568032 -0.0101893 0)
(0.571594 -0.00982832 0)
(0.575372 -0.00959811 0)
(0.579444 -0.00938636 0)
(0.58377 -0.00918237 0)
(0.588318 -0.00900291 0)
(0.593073 -0.00886765 0)
(0.59802 -0.00879417 0)
(0.603151 -0.00879125 0)
(0.608458 -0.00885842 0)
(0.613943 -0.00898553 0)
(0.619604 -0.00915239 0)
(0.625432 -0.00933298 0)
(0.631411 -0.00950633 0)
(0.637528 -0.00966287 0)
(0.643778 -0.00979383 0)
(0.650137 -0.00986026 0)
(0.656499 -0.0097994 0)
(0.662778 -0.00970886 0)
(0.669021 -0.00968831 0)
(0.675321 -0.00972715 0)
(0.681707 -0.00978865 0)
(0.688178 -0.00984998 0)
(0.694725 -0.00989527 0)
(0.701335 -0.00990895 0)
(0.70798 -0.00987142 0)
(0.714611 -0.00975729 0)
(0.72115 -0.00956351 0)
(0.727547 -0.00936729 0)
(0.733839 -0.00924011 0)
(0.740097 -0.00917375 0)
(0.746351 -0.00913227 0)
(0.752597 -0.00908859 0)
(0.758809 -0.00902231 0)
(0.764947 -0.0089252 0)
(0.770981 -0.00881744 0)
(0.776916 -0.00873078 0)
(0.782783 -0.0086702 0)
(0.788605 -0.0086179 0)
(0.794378 -0.00855588 0)
(0.80009 -0.00847688 0)
(0.805729 -0.00838814 0)
(0.811299 -0.00830098 0)
(0.816808 -0.00821661 0)
(0.82226 -0.00812886 0)
(0.827651 -0.00803375 0)
(0.832976 -0.00793259 0)
(0.83823 -0.0078282 0)
(0.843415 -0.00772058 0)
(0.848528 -0.00760789 0)
(0.853564 -0.00748949 0)
(0.858518 -0.00736601 0)
(0.863389 -0.00723772 0)
(0.868173 -0.00710445 0)
(0.872867 -0.00696639 0)
(0.877467 -0.00682412 0)
(0.881971 -0.00667814 0)
(0.886377 -0.00652888 0)
(0.890681 -0.00637682 0)
(0.894884 -0.00622242 0)
(0.898982 -0.00606607 0)
(0.902975 -0.00590814 0)
(0.906862 -0.00574901 0)
(0.910643 -0.005589 0)
(0.914317 -0.00542842 0)
(0.917883 -0.00526756 -6.62145e-42)
(0.921341 -0.0051067 -7.64169e-42)
(0.924693 -0.00494606 0)
(0.927937 -0.00478586 0)
(0.931074 -0.00462628 0)
(0.934105 -0.00446752 0)
(0.937031 -0.00430978 0)
(0.939851 -0.0041533 0)
(0.942568 -0.00399835 0)
(0.945181 -0.00384525 0)
(0.947693 -0.00369432 0)
(0.950105 -0.00354592 0)
(0.952418 -0.0034004 0)
(0.954636 -0.00325808 0)
(0.956759 -0.00311927 0)
(0.958791 -0.00298423 0)
(0.960734 -0.00285317 0)
(0.962591 -0.00272627 0)
(0.964365 -0.00260365 0)
(0.966058 -0.00248541 0)
(0.967674 -0.00237157 0)
(0.969215 -0.00226217 0)
(0.970685 -0.00215717 0)
(0.972087 -0.00205653 0)
(0.973423 -0.00196018 0)
(0.974696 -0.00186802 0)
(0.975909 -0.00177994 0)
(0.977065 -0.00169583 0)
(0.978166 -0.00161555 0)
(0.979215 -0.00153895 0)
(0.980214 -0.0014659 0)
(0.981165 -0.00139625 0)
(0.982072 -0.00132986 0)
(0.982935 -0.00126659 0)
(0.983757 -0.00120628 0)
(0.98454 -0.00114882 0)
(0.985286 -0.00109407 0)
(0.985996 -0.0010419 0)
(0.986672 -0.000992191 0)
(0.987316 -0.000944829 0)
(0.98793 -0.000899698 0)
(0.988514 -0.000856687 0)
(0.98907 -0.000815687 0)
(0.989599 -0.000776594 0)
(0.990103 -0.000739306 0)
(0.990583 -0.000703726 0)
(0.991039 -0.000669759 0)
(0.991474 -0.000637318 0)
(0.991887 -0.000606322 0)
(0.992281 -0.000576698 0)
(0.992655 -0.000548377 0)
(0.993011 -0.000521301 0)
(0.993349 -0.000495417 0)
(0.99367 -0.00047068 0)
(0.993975 -0.000447049 0)
(0.994265 -0.000424491 0)
(0.99454 -0.000402972 0)
(0.994801 -0.000382463 0)
(0.995048 -0.000362935 0)
(0.995283 -0.000344362 0)
(0.995506 -0.000326715 0)
(0.995718 -0.000309965 0)
(0.995918 -0.000294082 0)
(0.996109 -0.000279035 0)
(0.996289 -0.000264792 0)
(0.996461 -0.00025132 0)
(0.996624 -0.000238585 0)
(0.996778 -0.000226553 0)
(0.996925 -0.000215189 0)
(0.997064 -0.00020446 0)
(0.997196 -0.000194333 0)
(0.997322 -0.000184773 0)
(0.997442 -0.000175748 0)
(0.997556 -0.000167226 0)
(0.997664 -0.000159177 0)
(0.997768 -0.000151571 0)
(0.997866 -0.000144379 0)
(0.99796 -0.000137573 0)
(0.998049 -0.000131126 0)
(0.998134 -0.000125014 0)
(0.998215 -0.000119212 0)
(0.998293 -0.000113696 0)
(0.998366 -0.000108447 0)
(0.998437 -0.000103443 0)
(0.998504 -9.86659e-05 0)
(0.998568 -9.40994e-05 0)
(0.998629 -8.97278e-05 0)
(0.998688 -8.55373e-05 0)
(0.998743 -8.15157e-05 0)
(0.998796 -7.76521e-05 0)
(0.998846 -7.39371e-05 0)
(0.998894 -7.03627e-05 0)
(0.99894 -6.6922e-05 0)
(0.998984 -6.3609e-05 0)
(0.999025 -6.0419e-05 0)
(0.999064 -5.73477e-05 0)
(0.999101 -5.43919e-05 0)
(0.999136 -5.15485e-05 0)
(0.99917 -4.88153e-05 0)
(0.999201 -4.61901e-05 0)
(0.999231 -4.36712e-05 0)
(0.999259 -4.12567e-05 0)
(0.999286 -3.89452e-05 0)
(0.999311 -3.67351e-05 0)
(0.999335 -3.46248e-05 0)
(0.999357 -3.26128e-05 0)
(0.999378 -3.06973e-05 0)
(0.999398 -2.88766e-05 0)
(0.999417 -2.71489e-05 0)
(0.999434 -2.55121e-05 0)
(0.999451 -2.39642e-05 0)
(0.999466 -2.2503e-05 0)
(0.99948 -2.11261e-05 0)
(0.999494 -1.98313e-05 0)
(0.999507 -1.86161e-05 0)
(0.999519 -1.74779e-05 0)
(0.99953 -1.64141e-05 0)
(0.999541 -1.54221e-05 0)
(0.999551 -1.44993e-05 0)
(0.99956 -1.36429e-05 0)
(0.999569 -1.28503e-05 0)
(0.999577 -1.21187e-05 0)
(0.999585 -1.14453e-05 0)
(0.999592 -1.08275e-05 0)
(0.999599 -1.02626e-05 0)
(0.999606 -9.74794e-06 0)
(0.999612 -9.28079e-06 0)
(0.999618 -8.85856e-06 0)
(0.999624 -8.47866e-06 0)
(0.999629 -8.13855e-06 0)
(0.999635 -7.83571e-06 0)
(0.99964 -7.5677e-06 0)
(0.999645 -7.33212e-06 0)
(0.999649 -7.1266e-06 0)
(0.999654 -6.94888e-06 0)
(0.999659 -6.79673e-06 0)
(0.999663 -6.668e-06 0)
(0.999668 -6.56061e-06 0)
(0.999672 -6.47255e-06 0)
(0.999676 -6.40191e-06 0)
(0.99968 -6.34683e-06 0)
(0.999685 -6.30555e-06 0)
(0.999689 -6.27638e-06 0)
(0.999693 -6.25774e-06 0)
(0.999697 -6.24809e-06 0)
(0.999701 -6.24601e-06 0)
(0.999705 -6.25013e-06 0)
(0.99971 -6.2592e-06 0)
(0.999714 -6.272e-06 0)
(0.999718 -6.28742e-06 0)
(0.999722 -6.3044e-06 0)
(0.999726 -6.32195e-06 0)
(0.999731 -6.33915e-06 0)
(0.999735 -6.35513e-06 0)
(0.999739 -6.36909e-06 0)
(0.999743 -6.38026e-06 0)
(0.999748 -6.38793e-06 0)
(0.999752 -6.39143e-06 0)
(0.999756 -6.39012e-06 0)
(0.99976 -6.38343e-06 0)
(0.999765 -6.37079e-06 0)
(0.999769 -6.35169e-06 0)
(0.999773 -6.32563e-06 0)
(0.999777 -6.29216e-06 0)
(0.999782 -6.25086e-06 0)
(0.999786 -6.20137e-06 0)
(0.99979 -6.14334e-06 0)
(0.999794 -6.07648e-06 0)
(0.999798 -6.00056e-06 0)
(0.999802 -5.91541e-06 0)
(0.999806 -5.82091e-06 0)
(0.99981 -5.71703e-06 0)
(0.999813 -5.6038e-06 0)
(0.999817 -5.48138e-06 0)
(0.999821 -5.34999e-06 0)
(0.999824 -5.20997e-06 0)
(0.999828 -5.06177e-06 0)
(0.999831 -4.90596e-06 0)
(0.999834 -4.74321e-06 0)
(0.999837 -4.57433e-06 0)
(0.99984 -4.40022e-06 0)
(0.999843 -4.22188e-06 0)
(0.999846 -4.04043e-06 0)
(0.999849 -3.85704e-06 0)
(0.999851 -3.67294e-06 0)
(0.999854 -3.48939e-06 0)
(0.999856 -3.30767e-06 0)
(0.999858 -3.12904e-06 0)
(0.99986 -2.95468e-06 0)
(0.999862 -2.78575e-06 0)
(0.999864 -2.62326e-06 0)
(0.999865 -2.46815e-06 0)
(0.999867 -2.32119e-06 0)
(0.999868 -2.18305e-06 0)
(0.99987 -2.05425e-06 0)
(0.999871 -1.9352e-06 0)
(0.999872 -1.8262e-06 0)
(0.999874 -1.72745e-06 0)
(0.999875 -1.63912e-06 0)
(0.999876 -1.56131e-06 0)
(0.999877 -1.49411e-06 0)
(0.999878 -1.43758e-06 0)
(0.999879 -1.39174e-06 0)
(0.99988 -1.3566e-06 0)
(0.999881 -1.33205e-06 0)
(0.999881 -1.31789e-06 0)
(0.999882 -1.31372e-06 0)
(0.999883 -1.31889e-06 0)
(0.999884 -1.33249e-06 0)
(0.999885 -1.35331e-06 0)
(0.999886 -1.37978e-06 0)
(0.999887 -1.41007e-06 0)
(0.999888 -1.44214e-06 0)
(0.999889 -1.47382e-06 0)
(0.99989 -1.50297e-06 0)
(0.999891 -1.52763e-06 0)
(0.999892 -1.54618e-06 0)
(0.999893 -1.55751e-06 0)
(0.999894 -1.5611e-06 0)
(0.999895 -1.55711e-06 0)
(0.999896 -1.5464e-06 0)
(0.999897 -1.53043e-06 0)
(0.999898 -1.51115e-06 0)
(0.999899 -1.49085e-06 0)
(0.9999 -1.47194e-06 0)
(0.999901 -1.45675e-06 0)
(0.999902 -1.44737e-06 0)
(0.999903 -1.44544e-06 0)
(0.999903 -1.4521e-06 0)
(0.999904 -1.46789e-06 0)
(0.999905 -1.49279e-06 0)
(0.999906 -1.52619e-06 0)
(0.999907 -1.56705e-06 0)
(0.999908 -1.61392e-06 0)
(0.999909 -1.66513e-06 0)
(0.99991 -1.71885e-06 0)
(0.999912 -1.77324e-06 0)
(0.999913 -1.8265e-06 0)
(0.999914 -1.87702e-06 0)
(0.999915 -1.92336e-06 0)
(0.999916 -1.96434e-06 0)
(0.999918 -1.99905e-06 0)
(0.999919 -2.02683e-06 0)
(0.99992 -2.0473e-06 0)
(0.999922 -2.06028e-06 0)
(0.999923 -2.06582e-06 0)
(0.999925 -2.06414e-06 0)
(0.999926 -2.05561e-06 0)
(0.999927 -2.04069e-06 0)
(0.999929 -2.01992e-06 0)
(0.99993 -1.99392e-06 0)
(0.999931 -1.96328e-06 0)
(0.999933 -1.92866e-06 0)
(0.999934 -1.89065e-06 0)
(0.999935 -1.84986e-06 0)
(0.999936 -1.80683e-06 0)
(0.999938 -1.76209e-06 0)
(0.999939 -1.71611e-06 0)
(0.99994 -1.66931e-06 0)
(0.999941 -1.62208e-06 0)
(0.999942 -1.57473e-06 0)
(0.999943 -1.52758e-06 0)
(0.999944 -1.48085e-06 0)
(0.999945 -1.43476e-06 0)
(0.999946 -1.38948e-06 0)
(0.999947 -1.34516e-06 0)
(0.999948 -1.3019e-06 0)
(0.999949 -1.2598e-06 0)
(0.99995 -1.21892e-06 0)
(0.99995 -1.1793e-06 0)
(0.999951 -1.14098e-06 0)
(0.999952 -1.10397e-06 0)
(0.999953 -1.06828e-06 0)
(0.999953 -1.0339e-06 0)
(0.999954 -1.00081e-06 0)
(0.999955 -9.68991e-07 0)
(0.999955 -9.3842e-07 0)
(0.999956 -9.09063e-07 0)
(0.999956 -8.80886e-07 0)
(0.999957 -8.53851e-07 0)
(0.999958 -8.27919e-07 0)
(0.999958 -8.03051e-07 0)
(0.999959 -7.79204e-07 0)
(0.999959 -7.56338e-07 0)
(0.99996 -7.34411e-07 0)
(0.99996 -7.13384e-07 0)
(0.999961 -6.93216e-07 0)
(0.999961 -6.73868e-07 0)
(0.999962 -6.55301e-07 0)
(0.999962 -6.37478e-07 0)
(0.999962 -6.20364e-07 0)
(0.999963 -6.03923e-07 0)
(0.999963 -5.88122e-07 0)
(0.999964 -5.72928e-07 0)
(0.999964 -5.58309e-07 0)
(0.999964 -5.44241e-07 0)
(0.999965 -5.30668e-07 0)
(0.999965 -5.17686e-07 0)
(0.999965 -5.04726e-07 0)
(0.999966 -4.94131e-07 0)
(0.999966 -4.75541e-07 0)
(-0.014131 0.0377199 0)
(-0.0135024 -0.0060731 0)
(-0.0971729 -0.00464527 0)
(-0.128568 0.0457881 0)
(-0.113582 0.0957122 0)
(-0.132055 0.0851184 0)
(-0.110527 -0.0026782 0)
(0.180585 -0.275554 0)
(0.409058 -0.300132 0)
(0.522844 -0.0974219 0)
(0.596768 0.143923 0)
(0.62712 0.0585494 0)
(0.510215 0.0142442 0)
(0.37799 0.0151938 0)
(0.201714 -0.0237131 0)
(0.159499 -0.0642721 0)
(0.175507 -0.0851286 0)
(0.130807 -0.0958987 0)
(0.115941 -0.0700062 0)
(0.119249 -0.0282486 0)
(0.157366 0.0102561 0)
(0.192028 0.0219872 0)
(0.206873 0.0137543 0)
(0.217705 0.00341139 0)
(0.220275 0.00331261 0)
(0.217842 0.00713266 0)
(0.214135 0.00902029 0)
(0.212762 0.00576889 0)
(0.214636 -0.00496813 0)
(0.217808 -0.0207822 0)
(0.219066 -0.0245738 0)
(0.217041 -0.0230946 0)
(0.214758 -0.0230319 0)
(0.212834 -0.0230644 0)
(0.21674 -0.0244445 0)
(0.221791 -0.0253245 0)
(0.222836 -0.024997 0)
(0.221174 -0.0241814 0)
(0.221101 -0.0233324 0)
(0.223043 -0.0224682 0)
(0.224729 -0.0214802 0)
(0.224773 -0.0203476 0)
(0.223003 -0.0191354 0)
(0.219707 -0.0179743 0)
(0.215692 -0.017093 0)
(0.212932 -0.0167804 0)
(0.214172 -0.0171168 0)
(0.220929 -0.0177785 0)
(0.232539 -0.0183159 0)
(0.247128 -0.0185197 0)
(0.262744 -0.0184196 0)
(0.27785 -0.0181299 0)
(0.291635 -0.0177289 0)
(0.303753 -0.0172666 0)
(0.314091 -0.0167761 0)
(0.322865 -0.0162816 0)
(0.332126 -0.0158203 0)
(0.345022 -0.0154915 0)
(0.35808 -0.0153402 0)
(0.371779 -0.0153019 0)
(0.386431 -0.0153483 0)
(0.401867 -0.0154593 0)
(0.417599 -0.0156147 0)
(0.433021 -0.0157813 0)
(0.447616 -0.0159146 0)
(0.461097 -0.0159779 0)
(0.473401 -0.0159545 0)
(0.484638 -0.0158433 0)
(0.49503 -0.0156487 0)
(0.504865 -0.0153733 0)
(0.514425 -0.0150187 0)
(0.523911 -0.0145861 0)
(0.53339 -0.0140761 0)
(0.542776 -0.0134891 0)
(0.551883 -0.0128311 0)
(0.560498 -0.0121196 0)
(0.568462 -0.0113885 0)
(0.575694 -0.0106861 0)
(0.582217 -0.0100724 0)
(0.588143 -0.00960014 0)
(0.593634 -0.00930306 0)
(0.598894 -0.00922264 0)
(0.604178 -0.00938351 0)
(0.609362 -0.00934065 0)
(0.614038 -0.00889659 0)
(0.617986 -0.009138 0)
(0.621691 -0.00986449 0)
(0.625296 -0.0106423 0)
(0.628822 -0.0113504 0)
(0.632336 -0.0119949 0)
(0.635899 -0.0125834 0)
(0.639542 -0.0131207 0)
(0.643276 -0.0136187 0)
(0.64709 -0.0140954 0)
(0.650961 -0.014561 0)
(0.654856 -0.015013 0)
(0.658737 -0.015431 0)
(0.662581 -0.0158102 0)
(0.666393 -0.0161616 0)
(0.670215 -0.0164622 0)
(0.674107 -0.0165732 0)
(0.677969 -0.0162922 0)
(0.68169 -0.0160451 0)
(0.6854 -0.0160151 0)
(0.689274 -0.0160838 0)
(0.693367 -0.0161706 0)
(0.697689 -0.0162517 0)
(0.70226 -0.0163129 0)
(0.707098 -0.0163403 0)
(0.712212 -0.0163175 0)
(0.717562 -0.0161939 0)
(0.723003 -0.0159059 0)
(0.728428 -0.0156217 0)
(0.733918 -0.0154971 0)
(0.739593 -0.0154948 0)
(0.745469 -0.0155213 0)
(0.751504 -0.0155093 0)
(0.757638 -0.0154109 0)
(0.763782 -0.0152058 0)
(0.769853 -0.0149559 0)
(0.775849 -0.0147543 0)
(0.78182 -0.0146117 0)
(0.787786 -0.014487 0)
(0.793727 -0.0143458 0)
(0.7996 -0.0141753 0)
(0.805375 -0.0139961 0)
(0.811053 -0.0138355 0)
(0.816656 -0.0136923 0)
(0.822191 -0.013548 0)
(0.82765 -0.0133903 0)
(0.833024 -0.0132218 0)
(0.838314 -0.0130493 0)
(0.843525 -0.0128721 0)
(0.848657 -0.0126852 0)
(0.853707 -0.0124875 0)
(0.858672 -0.0122813 0)
(0.86355 -0.0120676 0)
(0.868341 -0.0118456 0)
(0.87304 -0.0116155 0)
(0.877644 -0.0113784 0)
(0.882152 -0.0111352 0)
(0.88656 -0.0108862 0)
(0.890868 -0.0106325 0)
(0.895073 -0.0103748 0)
(0.899174 -0.0101137 0)
(0.90317 -0.00985006 0)
(0.907059 -0.00958441 0)
(0.910841 -0.00931733 0)
(0.914516 -0.00904933 0)
(0.918083 -0.0087809 0)
(0.921542 -0.00851248 0)
(0.924894 -0.00824446 0)
(0.928138 -0.00797719 0)
(0.931275 -0.00771097 0)
(0.934306 -0.00744609 0)
(0.93723 -0.00718288 0)
(0.940049 -0.00692173 0)
(0.942764 -0.0066631 0)
(0.945375 -0.00640751 0)
(0.947885 -0.00615554 0)
(0.950293 -0.00590778 0)
(0.952603 -0.00566484 0)
(0.954817 -0.00542727 0)
(0.956936 -0.00519558 0)
(0.958963 -0.00497022 0)
(0.960901 -0.00475155 0)
(0.962752 -0.00453986 0)
(0.964521 -0.00433536 0)
(0.966208 -0.00413819 0)
(0.967819 -0.00394841 0)
(0.969354 -0.00376605 0)
(0.970819 -0.00359107 0)
(0.972215 -0.00342338 0)
(0.973545 -0.00326285 0)
(0.974813 -0.00310934 0)
(0.976021 -0.00296265 0)
(0.977172 -0.00282257 0)
(0.978268 -0.00268889 0)
(0.979312 -0.00256136 0)
(0.980307 -0.00243975 0)
(0.981254 -0.0023238 0)
(0.982157 -0.00221328 0)
(0.983016 -0.00210795 0)
(0.983834 -0.00200758 0)
(0.984614 -0.00191194 0)
(0.985356 -0.00182081 0)
(0.986063 -0.00173398 0)
(0.986736 -0.00165125 0)
(0.987377 -0.00157243 0)
(0.987987 -0.00149733 0)
(0.988569 -0.00142576 0)
(0.989122 -0.00135754 0)
(0.989649 -0.0012925 0)
(0.990151 -0.00123045 0)
(0.990628 -0.00117125 0)
(0.991083 -0.00111473 0)
(0.991516 -0.00106074 0)
(0.991927 -0.00100915 0)
(0.992319 -0.000959834 0)
(0.992691 -0.000912677 0)
(0.993046 -0.000867582 0)
(0.993382 -0.000824464 0)
(0.993702 -0.000783248 0)
(0.994005 -0.000743871 0)
(0.994294 -0.000706275 0)
(0.994567 -0.00067041 0)
(0.994827 -0.000636229 0)
(0.995074 -0.000603686 0)
(0.995307 -0.000572738 0)
(0.995529 -0.000543337 0)
(0.995739 -0.000515436 0)
(0.995939 -0.000488986 0)
(0.996128 -0.000463935 0)
(0.996308 -0.000440229 0)
(0.996478 -0.000417812 0)
(0.99664 -0.000396627 0)
(0.996794 -0.000376617 0)
(0.996939 -0.000357725 0)
(0.997078 -0.000339891 0)
(0.99721 -0.00032306 0)
(0.997335 -0.000307176 0)
(0.997454 -0.000292183 0)
(0.997567 -0.000278029 0)
(0.997675 -0.000264662 0)
(0.997778 -0.000252031 0)
(0.997875 -0.000240088 0)
(0.997968 -0.000228787 0)
(0.998057 -0.000218083 0)
(0.998142 -0.000207933 0)
(0.998223 -0.000198298 0)
(0.9983 -0.000189139 0)
(0.998373 -0.000180419 0)
(0.998443 -0.000172107 0)
(0.99851 -0.00016417 0)
(0.998574 -0.000156582 0)
(0.998635 -0.000149316 0)
(0.998693 -0.00014235 0)
(0.998748 -0.000135664 0)
(0.998801 -0.000129238 0)
(0.998851 -0.000123059 0)
(0.998899 -0.000117113 0)
(0.998945 -0.000111388 0)
(0.998988 -0.000105874 0)
(0.999029 -0.000100565 0)
(0.999068 -9.5452e-05 0)
(0.999105 -9.05308e-05 0)
(0.99914 -8.57965e-05 0)
(0.999173 -8.1245e-05 0)
(0.999205 -7.68731e-05 0)
(0.999234 -7.26778e-05 0)
(0.999263 -6.86562e-05 0)
(0.999289 -6.4806e-05 0)
(0.999314 -6.11244e-05 0)
(0.999338 -5.76092e-05 0)
(0.99936 -5.42575e-05 0)
(0.999381 -5.10667e-05 0)
(0.9994 -4.80339e-05 0)
(0.999419 -4.51559e-05 0)