/*--------------------------------*- C++ -*----------------------------------*\
| =========                 |                                                 |
| \\      /  F ield         | OpenFOAM: The Open Source CFD Toolbox           |
|  \\    /   O peration     | Version:  v2006                                 |
|   \\  /    A nd           | Website:  www.openfoam.com                      |
|    \\/     M anipulation  |                                                 |
\*---------------------------------------------------------------------------*/
FoamFile
{
    version     2.0;
    format      ascii;
    class       surfaceScalarField;
    location    "11.5";
    object      alphaPhi0.water;
}
// * * * * * * * * * * * * * * * * * * * * * * * * * * * * * * * * * * * * * //

dimensions      [0 3 -1 0 0 0 0];
oriented        oriented;


internalField   nonuniform List<scalar> 
99450
(
-2.88765e-05
2.88765e-05
-4.33531e-05
1.44766e-05
-5.94107e-05
1.60576e-05
-7.83224e-05
1.89117e-05
-9.84704e-05
2.0148e-05
-0.000118788
2.03177e-05
-0.000139036
2.02481e-05
-0.000159167
2.01306e-05
-0.000179204
2.00373e-05
-0.00019915
1.99462e-05
-0.000218965
1.98149e-05
-0.000238613
1.96478e-05
-0.000258069
1.94558e-05
-0.000277287
1.9218e-05
-0.000296235
1.89478e-05
-0.000314874
1.86397e-05
-0.000333182
1.83075e-05
-0.000351117
1.79355e-05
-0.000368639
1.75213e-05
-0.000385724
1.70858e-05
-0.000402377
1.66526e-05
-0.000418539
1.61618e-05
-0.000434188
1.56495e-05
-0.000449308
1.51193e-05
-0.000463879
1.45717e-05
-0.000477886
1.40068e-05
-0.000491314
1.34283e-05
-0.000504155
1.284e-05
-0.0005164
1.22458e-05
-0.000528045
1.16451e-05
-0.000539105
1.10597e-05
-0.000549598
1.04924e-05
-0.000559567
9.96978e-06
-0.000569064
9.49635e-06
-0.000578095
9.03127e-06
-0.000586695
8.59963e-06
-0.000594877
8.18234e-06
-0.000602658
7.78143e-06
-0.000610013
7.3542e-06
-0.000616985
6.97252e-06
-0.000623644
6.6587e-06
-0.000629986
6.34247e-06
-0.000635798
5.81157e-06
-0.000640835
5.03741e-06
-0.000644984
4.14876e-06
-0.000648168
3.18362e-06
-0.000650269
2.10161e-06
-0.000651115
8.46255e-07
-0.000650526
-5.8942e-07
-0.000648304
-2.22185e-06
-0.00064432
-3.98396e-06
-0.000638538
-5.78177e-06
-0.000630996
-7.54265e-06
-0.000621804
-9.19155e-06
-0.000611094
-1.07105e-05
-0.000598984
-1.21098e-05
-0.000585558
-1.34261e-05
-0.000570886
-1.46714e-05
-0.000555023
-1.58632e-05
-0.000538017
-1.7006e-05
-0.000519909
-1.81087e-05
-0.000500783
-1.91259e-05
-0.000480684
-2.00992e-05
-0.000459652
-2.10319e-05
-0.000437784
-2.18673e-05
-0.000415107
-2.26772e-05
-0.0003917
-2.34067e-05
-0.000367625
-2.40758e-05
-0.000342946
-2.46791e-05
-0.000317714
-2.52315e-05
-0.000292003
-2.57113e-05
-0.000265875
-2.61274e-05
-0.000239409
-2.64667e-05
-0.000212647
-2.67622e-05
-0.000185664
-2.69826e-05
-0.000158519
-2.71451e-05
-0.000131276
-2.72432e-05
-0.000104004
-2.72719e-05
-7.67799e-05
-2.72238e-05
-4.96803e-05
-2.70997e-05
-2.27846e-05
-2.68957e-05
3.82341e-06
-2.6608e-05
3.00559e-05
-2.62325e-05
5.58155e-05
-2.57596e-05
8.10127e-05
-2.51972e-05
0.000105555
-2.45422e-05
0.000129346
-2.37916e-05
0.00015229
-2.29431e-05
0.000174276
-2.19864e-05
0.000195198
-2.09218e-05
0.000214938
-1.97403e-05
0.000233373
-1.84354e-05
0.000250368
-1.69945e-05
0.00026578
-1.54117e-05
0.000279441
-1.36608e-05
0.000291156
-1.1715e-05
0.000300687
-9.53101e-06
0.000307768
-7.08179e-06
0.000312186
-4.4174e-06
0.000313913
-1.72722e-06
0.000313279
6.33878e-07
0.000310777
2.50258e-06
0.000306949
3.82757e-06
0.000302272
4.67663e-06
0.000297101
5.1709e-06
0.000291682
5.41964e-06
0.000286151
5.5303e-06
0.000280619
5.53208e-06
0.000275238
5.38154e-06
0.000270125
5.11313e-06
0.000265436
4.6891e-06
0.000261352
4.08349e-06
0.000257986
3.36588e-06
0.000255298
2.68831e-06
0.000253117
2.18071e-06
0.000251216
1.9009e-06
0.000249383
1.83305e-06
0.000247432
1.95122e-06
0.000245205
2.22677e-06
0.000242622
2.58282e-06
0.000239645
2.97715e-06
0.000236253
3.39264e-06
0.00023242
3.83315e-06
0.000228111
4.30838e-06
0.000223303
4.80808e-06
0.000217987
5.3157e-06
0.000212162
5.82538e-06
0.000205846
6.31622e-06
0.000199057
6.78879e-06
0.00019182
7.23737e-06
0.00018416
7.65928e-06
0.00017611
8.05041e-06
0.0001677
8.41001e-06
0.000158957
8.74248e-06
0.00014992
9.03754e-06
0.000140615
9.30477e-06
0.000131077
9.53833e-06
0.000121335
9.74201e-06
0.000111433
9.90183e-06
0.000101412
1.00209e-05
9.1317e-05
1.0095e-05
8.11894e-05
1.01276e-05
7.1046e-05
1.01434e-05
6.09961e-05
1.00499e-05
5.1071e-05
9.92515e-06
4.14718e-05
9.59921e-06
3.20912e-05
9.38058e-06
2.32788e-05
8.81239e-06
1.39998e-05
9.27897e-06
1.39998e-05
-3.37992e-05
6.26757e-05
-5.72885e-05
3.79659e-05
-8.27437e-05
4.15128e-05
-0.000110981
4.71488e-05
-0.000140225
4.93921e-05
-0.000169406
4.94989e-05
-0.00019829
4.91315e-05
-0.000226977
4.88182e-05
-0.000255507
4.85675e-05
-0.000283827
4.82657e-05
-0.000311896
4.78838e-05
-0.000339679
4.74315e-05
-0.000367104
4.68809e-05
-0.000394127
4.62404e-05
-0.000420697
4.55179e-05
-0.000446769
4.47119e-05
-0.000472269
4.38073e-05
-0.000497144
4.28112e-05
-0.00052136
4.17369e-05
-0.000544849
4.05751e-05
-0.000567531
3.93348e-05
-0.000589379
3.80091e-05
-0.00061033
3.66001e-05
-0.000630343
3.51327e-05
-0.000649372
3.36012e-05
-0.000667348
3.19821e-05
-0.000684245
3.03254e-05
-0.000700005
2.85997e-05
-0.000714576
2.68169e-05
-0.000727924
2.4994e-05
-0.000739994
2.3129e-05
-0.000750721
2.12198e-05
-0.00076006
1.93086e-05
-0.000767954
1.73903e-05
-0.000774378
1.54556e-05
-0.0007793
1.35213e-05
-0.000782697
1.15792e-05
-0.000784551
9.63524e-06
-0.000784884
7.68788e-06
-0.000783598
5.68616e-06
-0.000780589
3.64924e-06
-0.000775867
1.62102e-06
-0.000769588
-4.67582e-07
-0.00076195
-2.60065e-06
-0.000753129
-4.67238e-06
-0.000743229
-6.71654e-06
-0.000732414
-8.71291e-06
-0.000720841
-1.07272e-05
-0.000708683
-1.27474e-05
-0.000696052
-1.48522e-05
-0.00068298
-1.70563e-05
-0.000669453
-1.93085e-05
-0.000655409
-2.15865e-05
-0.000640714
-2.38874e-05
-0.000625348
-2.60759e-05
-0.000609265
-2.81933e-05
-0.000592469
-3.02221e-05
-0.000574981
-3.21594e-05
-0.000556837
-3.40068e-05
-0.000538065
-3.57782e-05
-0.000518731
-3.74421e-05
-0.00049883
-3.90271e-05
-0.000478378
-4.05512e-05
-0.000457467
-4.19426e-05
-0.000436065
-4.327e-05
-0.000414241
-4.45005e-05
-0.000392013
-4.56349e-05
-0.000369406
-4.66832e-05
-0.000346455
-4.76296e-05
-0.000323213
-4.84737e-05
-0.000299687
-4.92375e-05
-0.000275927
-4.98873e-05
-0.000251939
-5.04541e-05
-0.000227794
-5.09076e-05
-0.000203494
-5.12826e-05
-0.000179096
-5.1543e-05
-0.000154623
-5.17163e-05
-0.000130108
-5.17865e-05
-0.000105571
-5.17613e-05
-8.10285e-05
-5.16421e-05
-5.65305e-05
-5.13937e-05
-3.20945e-05
-5.10439e-05
-7.75077e-06
-5.05763e-05
1.64672e-05
-4.99776e-05
4.05181e-05
-4.92481e-05
6.43622e-05
-4.83863e-05
8.79499e-05
-4.73793e-05
0.00011124
-4.62334e-05
0.000134195
-4.49415e-05
0.000156777
-4.35033e-05
0.000178942
-4.19055e-05
0.000200639
-4.01323e-05
0.000221851
-3.82065e-05
0.000242538
-3.60991e-05
0.000262677
-3.37994e-05
0.000282276
-3.13143e-05
0.000301382
-2.86372e-05
0.000320064
-2.57638e-05
0.000338404
-2.27572e-05
0.000356443
-1.97663e-05
0.000374064
-1.69869e-05
0.000391166
-1.45996e-05
0.000407734
-1.27406e-05
0.000423817
-1.14056e-05
0.000439507
-1.05192e-05
0.000454888
-9.96191e-06
0.00047005
-9.63148e-06
0.000484984
-9.40236e-06
0.00049959
-9.22392e-06
0.000513761
-9.0584e-06
0.000527324
-8.87383e-06
0.000540039
-8.63086e-06
0.000551655
-8.25037e-06
0.000561979
-7.63554e-06
0.000570889
-6.72936e-06
0.000578323
-5.53339e-06
0.000584256
-4.09942e-06
0.000588677
-2.47051e-06
0.000591545
-6.41244e-07
0.000592944
1.18424e-06
0.000592739
3.18174e-06
0.000590862
5.26964e-06
0.0005873
7.39553e-06
0.000582073
9.53517e-06
0.000575221
1.16607e-05
0.000566783
1.37529e-05
0.000556803
1.58055e-05
0.000545305
1.7814e-05
0.000532312
1.97824e-05
0.000517848
2.1701e-05
0.000501937
2.35708e-05
0.000484606
2.53807e-05
0.000465893
2.71234e-05
0.000445847
2.87887e-05
0.000424513
3.03709e-05
0.000401946
3.18718e-05
0.000378214
3.32708e-05
0.000353379
3.45773e-05
0.000327519
3.57615e-05
0.000300702
3.68379e-05
0.000273005
3.77918e-05
0.000244511
3.86223e-05
0.000215296
3.93582e-05
0.000185415
3.99303e-05
0.000154815
4.05251e-05
0.000123448
4.09661e-05
9.13524e-05
4.14766e-05
6.00527e-05
4.01121e-05
3.21005e-05
3.72312e-05
4.61003e-05
-3.30517e-05
9.57274e-05
-5.33499e-05
5.82642e-05
-7.48921e-05
6.30549e-05
-0.000100069
7.23261e-05
-0.000126984
7.63067e-05
-0.000154113
7.66274e-05
-0.000180898
7.59168e-05
-0.000207409
7.5329e-05
-0.000233717
7.48756e-05
-0.0002599
7.44491e-05
-0.000285934
7.39174e-05
-0.00031173
7.32273e-05
-0.00033727
7.24211e-05
-0.000362503
7.14731e-05
-0.000387362
7.03771e-05
-0.000411806
6.91558e-05
-0.000435792
6.77933e-05
-0.000459268
6.62878e-05
-0.000482176
6.46442e-05
-0.000504464
6.28634e-05
-0.000526086
6.09567e-05
-0.000546985
5.89083e-05
-0.00056713
5.67448e-05
-0.000586466
5.44692e-05
-0.00060494
5.20751e-05
-0.000622516
4.95577e-05
-0.000639141
4.69508e-05
-0.000654798
4.4257e-05
-0.000669453
4.14716e-05
-0.000683067
3.86082e-05
-0.000695598
3.56591e-05
-0.000707045
3.26668e-05
-0.000717356
2.96199e-05
-0.00072651
2.65446e-05
-0.000734479
2.34242e-05
-0.000741255
2.02975e-05
-0.000746841
1.71652e-05
-0.00075122
1.40145e-05
-0.000754383
1.08505e-05
-0.000756314
7.61696e-06
-0.000756994
4.32974e-06
-0.000756328
9.55022e-07
-0.00075457
-2.22592e-06
-0.000751661
-5.5096e-06
-0.000747532
-8.80119e-06
-0.000742188
-1.20602e-05
-0.000735593
-1.53087e-05
-0.000727873
-1.84466e-05
-0.000719037
-2.15833e-05
-0.000709196
-2.46932e-05
-0.000698395
-2.78576e-05
-0.000686693
-3.101e-05
-0.0006741
-3.41804e-05
-0.00066069
-3.72973e-05
-0.000646384
-4.03815e-05
-0.000631207
-4.33701e-05
-0.00061518
-4.62489e-05
-0.00059833
-4.90102e-05
-0.000580684
-5.16529e-05
-0.000562288
-5.41738e-05
-0.000543157
-5.65728e-05
-0.00052333
-5.88541e-05
-0.000502894
-6.09871e-05
-0.000481816
-6.30214e-05
-0.000460164
-6.49214e-05
-0.000437973
-6.66918e-05
-0.000415285
-6.83227e-05
-0.000392137
-6.98311e-05
-0.000368565
-7.12016e-05
-0.000344608
-7.24309e-05
-0.00032031
-7.3536e-05
-0.000295702
-7.44952e-05
-0.000270833
-7.53228e-05
-0.000245733
-7.60079e-05
-0.000220455
-7.65608e-05
-0.000195022
-7.69759e-05
-0.000169485
-7.72524e-05
-0.000143876
-7.73965e-05
-0.000118236
-7.74009e-05
-9.26068e-05
-7.72712e-05
-6.70121e-05
-7.69884e-05
-4.14889e-05
-7.65672e-05
-1.60856e-05
-7.59795e-05
9.17604e-06
-7.52392e-05
3.42568e-05
-7.43288e-05
5.91175e-05
-7.32471e-05
8.37263e-05
-7.1988e-05
0.000108046
-7.05529e-05
0.000132044
-6.89399e-05
0.000155684
-6.71429e-05
0.000178925
-6.51466e-05
0.00020178
-6.29875e-05
0.000224199
-6.06254e-05
0.000246178
-5.80777e-05
0.000267728
-5.53494e-05
0.000288846
-5.24325e-05
0.000309588
-4.9379e-05
0.000330031
-4.62074e-05
0.000350246
-4.29717e-05
0.000370233
-3.97541e-05
0.0003899
-3.66537e-05
0.000409069
-3.3768e-05
0.000427478
-3.11497e-05
0.000444909
-2.88368e-05
0.000461168
-2.67786e-05
0.000476094
-2.4888e-05
0.000489589
-2.31258e-05
0.000501614
-2.14274e-05
0.000512164
-1.9774e-05
0.00052124
-1.81339e-05
0.000528857
-1.64916e-05
0.000535033
-1.48068e-05
0.000539793
-1.30106e-05
0.000543204
-1.10458e-05
0.000545363
-8.88844e-06
0.000546396
-6.56693e-06
0.000546432
-4.13548e-06
0.000545628
-1.66646e-06
0.000543993
9.9408e-07
0.000541482
3.69531e-06
0.00053824
6.42383e-06
0.000534277
9.23227e-06
0.000529546
1.21263e-05
0.000524003
1.50789e-05
0.000517596
1.80675e-05
0.000510269
2.10798e-05
0.000501971
2.41033e-05
0.000492651
2.71343e-05
0.000482272
3.01611e-05
0.000470792
3.31807e-05
0.000458164
3.61995e-05
0.000444348
3.91969e-05
0.000429301
4.217e-05
0.000412992
4.50976e-05
0.000395389
4.79737e-05
0.000376487
5.07738e-05
0.000356269
5.34888e-05
0.000334746
5.61e-05
0.000311934
5.85743e-05
0.000287867
6.09041e-05
0.00026259
6.30688e-05
0.000236162
6.50504e-05
0.000208681
6.68398e-05
0.000180142
6.84689e-05
0.00015062
7.0047e-05
0.000119954
7.16322e-05
8.87902e-05
7.26402e-05
5.90917e-05
6.98106e-05
3.34393e-05
6.28836e-05
7.95396e-05
-3.21565e-05
0.000127884
-5.01842e-05
7.62919e-05
-6.92151e-05
8.20859e-05
-9.19306e-05
9.50417e-05
-0.000116593
0.000100969
-0.000141664
0.000101699
-0.000166552
0.000100804
-0.000191226
0.000100003
-0.000215845
9.94944e-05
-0.000240404
9.90081e-05
-0.00026489
9.84041e-05
-0.000289282
9.76186e-05
-0.000313506
9.66458e-05
-0.000337541
9.55079e-05
-0.000361333
9.41685e-05
-0.000384834
9.2657e-05
-0.000407999
9.09588e-05
-0.000430772
8.9061e-05
-0.000453109
8.69807e-05
-0.000474945
8.46996e-05
-0.000496239
8.22511e-05
-0.000516942
7.96109e-05
-0.000536984
7.67872e-05
-0.00055632
7.38048e-05
-0.000574907
7.06618e-05
-0.000592719
6.73703e-05
-0.000609683
6.3914e-05
-0.000625742
6.03162e-05
-0.00064087
5.65996e-05
-0.000655032
5.27706e-05
-0.000668204
4.88307e-05
-0.000680336
4.47995e-05
-0.000691406
4.06892e-05
-0.000701381
3.65196e-05
-0.000710247
3.229e-05
-0.000717946
2.79967e-05
-0.000724459
2.36786e-05
-0.000729766
1.93208e-05
-0.000733842
1.49273e-05
-0.000736736
1.05106e-05
-0.000738495
6.08831e-06
-0.000739221
1.68122e-06
-0.000738547
-2.9001e-06
-0.000736699
-7.35741e-06
-0.00073371
-1.179e-05
-0.00072957
-1.62004e-05
-0.000724284
-2.05941e-05
-0.000717771
-2.49599e-05
-0.000710041
-2.9313e-05
-0.000701105
-3.3629e-05
-0.000691092
-3.7871e-05
-0.00068
-4.21025e-05
-0.000667914
-4.62662e-05
-0.000654854
-5.0357e-05
-0.00064087
-5.4365e-05
-0.000625974
-5.82668e-05
-0.000610187
-6.20352e-05
-0.000593519
-6.56783e-05
-0.000576008
-6.91643e-05
-0.000557677
-7.25044e-05
-0.000538559
-7.56909e-05
-0.000518692
-7.87214e-05
-0.000498094
-8.15854e-05
-0.000476834
-8.42809e-05
-0.000454917
-8.6839e-05
-0.000432425
-8.91829e-05
-0.000409374
-9.13737e-05
-0.000385807
-9.33985e-05
-0.000361779
-9.52291e-05
-0.00033731
-9.68999e-05
-0.00031248
-9.83665e-05
-0.00028731
-9.9665e-05
-0.000261855
-0.000100778
-0.000236152
-0.000101711
-0.000210255
-0.000102458
-0.000184214
-0.000103017
-0.000158071
-0.000103395
-0.000131884
-0.000103583
-0.000105693
-0.000103592
-7.95586e-05
-0.000103405
-5.35095e-05
-0.000103037
-2.7617e-05
-0.00010246
-1.90075e-06
-0.000101696
2.35688e-05
-0.000100709
4.87671e-05
-9.95271e-05
7.36582e-05
-9.81382e-05
9.8201e-05
-9.65308e-05
0.00012235
-9.47018e-05
0.000146073
-9.26625e-05
0.000169339
-9.04089e-05
0.000192144
-8.79522e-05
0.00021442
-8.52629e-05
0.000236172
-8.23775e-05
0.000257382
-7.92884e-05
0.000278044
-7.60112e-05
0.000298168
-7.2556e-05
0.000317736
-6.89468e-05
0.000336749
-6.5221e-05
0.000355194
-6.14168e-05
0.000373026
-5.75856e-05
0.000390153
-5.37813e-05
0.000406435
-5.00496e-05
0.000421737
-4.64514e-05
0.000435863
-4.29636e-05
0.000448728
-3.96428e-05
0.000460236
-3.63964e-05
0.000470374
-3.32635e-05
0.000479127
-3.01811e-05
0.000486485
-2.71319e-05
0.000492446
-2.40946e-05
0.000497008
-2.10537e-05
0.000500193
-1.79914e-05
0.000502069
-1.48865e-05
0.000502744
-1.17215e-05
0.000502327
-8.47131e-06
0.000500888
-5.1274e-06
0.000498415
-1.66291e-06
0.000495086
1.66288e-06
0.000490966
5.11407e-06
0.000485993
8.66833e-06
0.000480164
1.22527e-05
0.000473528
1.58677e-05
0.000466143
1.95122e-05
0.000458038
2.31832e-05
0.000449221
2.68845e-05
0.000439709
3.05923e-05
0.000429507
3.43048e-05
0.000418621
3.80203e-05
0.00040705
4.17323e-05
0.000394792
4.54388e-05
0.000381856
4.91359e-05
0.000368218
5.28343e-05
0.000353867
5.65216e-05
0.000338768
6.01966e-05
0.000322911
6.38303e-05
0.000306274
6.74111e-05
0.000288837
7.09258e-05
0.000270593
7.4344e-05
0.00025151
7.76569e-05
0.000231589
8.08255e-05
0.000210848
8.38095e-05
0.000189304
8.65951e-05
0.000166999
8.91446e-05
0.000143899
9.15691e-05
0.000119941
9.40048e-05
9.50002e-05
9.65729e-05
7.03109e-05
9.73295e-05
4.82201e-05
9.19015e-05
2.91886e-05
8.19151e-05
0.000108728
-3.21667e-05
0.000160051
-4.97585e-05
9.38837e-05
-6.83646e-05
0.000100692
-9.05252e-05
0.000117202
-0.000114723
0.000125167
-0.000139437
0.000126413
-0.000164082
0.000125449
-0.000188606
0.000124527
-0.000213086
0.000123974
-0.000237612
0.000123535
-0.000262084
0.000122876
-0.000286525
0.000122059
-0.000310842
0.000120963
-0.000335036
0.000119702
-0.000359012
0.000118145
-0.000382754
0.000116398
-0.000406196
0.000114401
-0.000429291
0.000112156
-0.000451965
0.000109655
-0.000474229
0.000106963
-0.000495951
0.000103973
-0.000517069
0.000100729
-0.000537581
9.72997e-05
-0.000557422
9.3645e-05
-0.0005765
8.97404e-05
-0.000594773
8.56434e-05
-0.000612227
8.13678e-05
-0.000628796
7.68852e-05
-0.000644427
7.22308e-05
-0.000659088
6.74315e-05
-0.000672738
6.24806e-05
-0.000685312
5.73736e-05
-0.000696797
5.21738e-05
-0.000707155
4.68776e-05
-0.000716351
4.14869e-05
-0.000724347
3.59923e-05
-0.000731119
3.04503e-05
-0.000736662
2.48644e-05
-0.000740949
1.92137e-05
-0.000743962
1.35243e-05
-0.000745683
7.80855e-06
-0.000746021
2.01957e-06
-0.000745312
-3.60878e-06
-0.000743329
-9.34112e-06
-0.000740056
-1.50623e-05
-0.000735523
-2.07334e-05
-0.000729817
-2.63e-05
-0.000722891
-3.18868e-05
-0.00071484
-3.73636e-05
-0.000705652
-4.28169e-05
-0.000695353
-4.81695e-05
-0.000683992
-5.34634e-05
-0.000671578
-5.86807e-05
-0.000658165
-6.37696e-05
-0.000643776
-6.87539e-05
-0.000628453
-7.35899e-05
-0.000612215
-7.82735e-05
-0.000595093
-8.28002e-05
-0.000577112
-8.71451e-05
-0.000558311
-9.13061e-05
-0.00053872
-9.52814e-05
-0.000518381
-9.90611e-05
-0.000497321
-0.000102645
-0.000475562
-0.00010604
-0.000453228
-0.000109173
-0.000430276
-0.000112135
-0.000406777
-0.000114872
-0.000382759
-0.000117417
-0.00035828
-0.000119708
-0.000333389
-0.000121791
-0.000308127
-0.000123628
-0.000282544
-0.000125248
-0.000256687
-0.000126635
-0.000230603
-0.000127795
-0.000204342
-0.000128719
-0.000177952
-0.000129407
-0.000151484
-0.000129862
-0.000124988
-0.000130079
-9.85177e-05
-0.000130063
-7.21235e-05
-0.000129799
-4.58473e-05
-0.000129314
-1.97565e-05
-0.00012855
6.12074e-06
-0.000127573
3.17398e-05
-0.000126328
5.70482e-05
-0.000124835
8.20057e-05
-0.000123096
0.000106582
-0.000121107
0.000130734
-0.000118854
0.000154428
-0.000116357
0.000177635
-0.000113616
0.000200311
-0.000110628
0.000222456
-0.000107408
0.000244025
-0.000103946
0.000265004
-0.000100268
0.000285374
-9.63817e-05
0.000305124
-9.23063e-05
0.000324233
-8.80557e-05
0.000342678
-8.36657e-05
0.000360425
-7.91642e-05
0.000377446
-7.46063e-05
0.00039366
-6.99955e-05
0.000409007
-6.53966e-05
0.000423394
-6.0838e-05
0.000436762
-5.63321e-05
0.000449016
-5.18963e-05
0.000460107
-4.74878e-05
0.000469976
-4.31326e-05
0.000478609
-3.88136e-05
0.000485973
-3.44957e-05
0.000492057
-3.01786e-05
0.000496866
-2.58633e-05
0.000500394
-2.15192e-05
0.000502639
-1.71314e-05
0.000503617
-1.26998e-05
0.000503354
-8.20758e-06
0.000501927
-3.70091e-06
0.00049929
9.74622e-07
0.000495302
5.6503e-06
0.00049016
1.0256e-05
0.000483961
1.4868e-05
0.000476738
1.94752e-05
0.000468518
2.4088e-05
0.000459342
2.86884e-05
0.000449258
3.32672e-05
0.000438321
3.78215e-05
0.000426573
4.23397e-05
0.000414055
4.68225e-05
0.000400825
5.12504e-05
0.000386928
5.563e-05
0.000372401
5.9965e-05
0.000357296
6.42417e-05
0.000341655
6.84751e-05
0.000325512
7.26642e-05
0.000308909
7.67996e-05
0.00029187
8.08697e-05
0.000274414
8.48673e-05
0.000256562
8.8777e-05
0.000238322
9.25845e-05
0.000219716
9.62632e-05
0.000200746
9.97948e-05
0.000181425
0.00010313
0.000161771
0.00010625
0.000141801
0.000109115
0.000121479
0.000111891
0.000100692
0.000114792
7.95145e-05
0.000117751
5.92095e-05
0.000117634
4.1666e-05
0.000109445
2.5976e-05
9.76051e-05
0.000134704
-3.24395e-05
0.00019249
-5.00298e-05
0.000111474
-6.86716e-05
0.000119334
-9.09904e-05
0.000139521
-0.000115417
0.000149594
-0.000140423
0.000151419
-0.000165407
0.000150433
-0.000190339
0.000149459
-0.000215272
0.000148907
-0.000240212
0.000148474
-0.000265181
0.000147845
-0.000290137
0.000147015
-0.000314988
0.000145814
-0.00033969
0.000144405
-0.000364228
0.000142682
-0.00038854
0.00014071
-0.000412531
0.000138393
-0.000436179
0.000135804
-0.000459425
0.000132901
-0.000482155
0.000129692
-0.000504355
0.000126174
-0.00052601
0.000122384
-0.000546989
0.000118279
-0.000567232
0.000113888
-0.00058672
0.000109228
-0.000605393
0.000104316
-0.00062318
9.91544e-05
-0.000640052
9.37576e-05
-0.000655929
8.81072e-05
-0.000670784
8.22873e-05
-0.000684577
7.62733e-05
-0.000697313
7.01092e-05
-0.000708919
6.37797e-05
-0.000719349
5.73083e-05
-0.000728581
5.0719e-05
-0.000736636
4.40464e-05
-0.00074346
3.72744e-05
-0.000749003
3.0408e-05
-0.000753287
2.34975e-05
-0.000756304
1.65413e-05
-0.000758054
9.55858e-06
-0.000758625
2.59077e-06
-0.00075777
-4.46443e-06
-0.000755672
-1.14392e-05
-0.000752352
-1.83824e-05
-0.000747805
-2.52799e-05
-0.000741967
-3.21385e-05
-0.000734958
-3.88957e-05
-0.000726701
-4.56204e-05
-0.000717289
-5.22288e-05
-0.000706711
-5.87473e-05
-0.000695021
-6.51539e-05
-0.000682294
-7.14078e-05
-0.000668533
-7.75307e-05
-0.000653751
-8.35355e-05
-0.000638012
-8.9329e-05
-0.000621341
-9.49448e-05
-0.000603781
-0.00010036
-0.000585346
-0.00010558
-0.000566087
-0.000110565
-0.000546031
-0.000115337
-0.000525212
-0.00011988
-0.000503678
-0.000124179
-0.00048147
-0.000128248
-0.000458617
-0.000132027
-0.000435167
-0.000135584
-0.00041116
-0.000138879
-0.000386697
-0.00014188
-0.000361768
-0.000144637
-0.000336406
-0.000147152
-0.000310694
-0.00014934
-0.000284665
-0.000151278
-0.000258364
-0.000152936
-0.000231854
-0.000154305
-0.000205169
-0.000155403
-0.000178364
-0.000156213
-0.000151484
-0.000156742
-0.000124585
-0.000156979
-9.77034e-05
-0.000156945
-7.09066e-05
-0.000156596
-4.42277e-05
-0.000155993
-1.77208e-05
-0.000155057
8.5603e-06
-0.000153854
3.45881e-05
-0.000152356
6.03117e-05
-0.000150559
8.56909e-05
-0.000148475
0.0001107
-0.000146116
0.00013528
-0.000143434
0.00015941
-0.000140486
0.000183052
-0.000137258
0.000206175
-0.000133751
0.000228746
-0.00012998
0.000250751
-0.00012595
0.000272153
-0.00012167
0.000292929
-0.000117158
0.000313056
-0.000112432
0.000332507
-0.000107507
0.000351259
-0.000102418
0.000369278
-9.71836e-05
0.00038651
-9.18382e-05
0.000402921
-8.64061e-05
0.000418444
-8.092e-05
0.000433007
-7.54011e-05
0.000446559
-6.98844e-05
0.000458996
-6.43328e-05
0.000470277
-5.8769e-05
0.000480376
-5.32312e-05
0.00048922
-4.76575e-05
0.000496807
-4.20834e-05
0.000503114
-3.64856e-05
0.000508105
-3.08537e-05
0.000511783
-2.51979e-05
0.000514166
-1.95137e-05
0.000515258
-1.37921e-05
0.000515075
-8.0244e-06
0.000513588
-2.21461e-06
0.000511108
3.45481e-06
0.000507475
9.28308e-06
0.000502634
1.5097e-05
0.000496618
2.08849e-05
0.000489456
2.66365e-05
0.000481188
3.23561e-05
0.00047185
3.80268e-05
0.000461481
4.36359e-05
0.000450131
4.91716e-05
0.000437839
5.46318e-05
0.000424658
6.00029e-05
0.000410637
6.5272e-05
0.000395817
7.04499e-05
0.000380254
7.55275e-05
0.000364006
8.049e-05
0.000347138
8.53435e-05
0.000329717
9.00854e-05
0.00031181
9.47058e-05
0.000293472
9.92083e-05
0.000274762
0.000103577
0.000255733
0.000107806
0.000236443
0.000111874
0.000216931
0.000115775
0.000197237
0.000119488
0.000177386
0.000122982
0.000157426
0.00012621
0.000137384
0.000129157
0.000117259
0.000132015
9.69768e-05
0.000135074
7.66479e-05
0.000138079
5.71914e-05
0.000137091
4.01228e-05
0.000126514
2.46222e-05
0.000113106
0.000159326
-3.27671e-05
0.000225257
-5.02729e-05
0.00012898
-6.8653e-05
0.000137714
-9.09236e-05
0.000161792
-0.000115602
0.000174272
-0.000140989
0.000176806
-0.000166396
0.000175841
-0.00019174
0.000174803
-0.000217127
0.000174294
-0.000242563
0.000173911
-0.000268052
0.000173334
-0.00029352
0.000172483
-0.000318951
0.000171245
-0.00034425
0.000169703
-0.000369398
0.000167831
-0.000394288
0.0001656
-0.0004189
0.000163004
-0.000443146
0.00016005
-0.000466971
0.000156726
-0.000490308
0.000153029
-0.00051312
0.000148986
-0.000535276
0.00014454
-0.000556762
0.000139765
-0.000577503
0.000134629
-0.000597464
0.00012919
-0.000616563
0.000123415
-0.000634739
0.000117331
-0.000651959
0.000110977
-0.000668216
0.000104365
-0.000683418
9.74888e-05
-0.000697535
9.03901e-05
-0.00071051
8.30847e-05
-0.000722322
7.55911e-05
-0.000732942
6.79285e-05
-0.000742349
6.01258e-05
-0.000750502
5.21998e-05
-0.000757383
4.41556e-05
-0.000762996
3.60213e-05
-0.000767326
2.7827e-05
-0.000770356
1.95717e-05
-0.000772085
1.12872e-05
-0.000772467
2.97266e-06
-0.000771638
-5.29305e-06
-0.000769523
-1.35545e-05
-0.000766076
-2.18294e-05
-0.000761358
-2.99981e-05
-0.000755404
-3.8092e-05
-0.000748197
-4.61028e-05
-0.000739803
-5.40148e-05
-0.000730223
-6.18087e-05
-0.000719489
-6.94816e-05
-0.000707639
-7.70036e-05
-0.000694666
-8.43809e-05
-0.000680605
-9.15917e-05
-0.000665588
-9.85522e-05
-0.000649557
-0.00010536
-0.000632559
-0.000111943
-0.000614634
-0.000118284
-0.000595819
-0.000124396
-0.000576147
-0.000130236
-0.000555667
-0.000135817
-0.000534427
-0.00014112
-0.000512439
-0.000146168
-0.000489776
-0.000150911
-0.000466449
-0.000155353
-0.00044254
-0.000159494
-0.000418076
-0.000163343
-0.000393085
-0.00016687
-0.000367633
-0.000170089
-0.000341769
-0.000173016
-0.000315541
-0.000175568
-0.000288992
-0.000177827
-0.000262176
-0.000179752
-0.000235131
-0.000181351
-0.000207911
-0.000182623
-0.000180566
-0.000183557
-0.000153143
-0.000184165
-0.000125694
-0.000184428
-9.82611e-05
-0.000184378
-7.09005e-05
-0.000183957
-4.36578e-05
-0.000183235
-1.65745e-05
-0.000182141
1.02986e-05
-0.000180727
3.69196e-05
-0.000178977
6.32464e-05
-0.000176886
8.92388e-05
-0.000174467
0.000114842
-0.000171719
0.000140038
-0.00016863
0.000164777
-0.000165226
0.000189024
-0.000161505
0.000212747
-0.000157473
0.000235905
-0.000153138
0.000258467
-0.000148512
0.000280404
-0.000143608
0.000301693
-0.000138446
0.000322282
-0.000133022
0.000342156
-0.000127381
0.00036127
-0.000121531
0.000379586
-0.0001155
0.000397062
-0.000109314
0.000413649
-0.000102993
0.000429293
-9.65638e-05
0.000443945
-9.00525e-05
0.000457529
-8.34687e-05
0.000470019
-7.68234e-05
0.000481385
-7.0134e-05
0.000491534
-6.33808e-05
0.000500475
-5.65988e-05
0.000508184
-4.97917e-05
0.000514617
-4.29189e-05
0.000519803
-3.60399e-05
0.000523709
-2.91042e-05
0.000526346
-2.21502e-05
0.000527731
-1.5177e-05
0.000527892
-8.18589e-06
0.000526888
-1.21014e-06
0.000524458
5.88406e-06
0.00052089
1.28512e-05
0.000516171
1.98162e-05
0.000510312
2.67441e-05
0.000503325
3.36238e-05
0.000495243
4.04377e-05
0.000486094
4.71759e-05
0.000475908
5.38212e-05
0.000464709
6.03711e-05
0.000452528
6.68133e-05
0.000439405
7.31258e-05
0.000425361
7.9316e-05
0.000410465
8.53456e-05
0.000394757
9.12351e-05
0.000378288
9.69592e-05
0.000361111
0.00010252
0.000343285
0.000107912
0.000324877
0.000113114
0.00030595
0.000118135
0.000286569
0.000122958
0.000266801
0.000127573
0.000246696
0.000131979
0.00022633
0.000136142
0.000205747
0.000140071
0.000184999
0.00014373
0.000164134
0.000147075
0.000143204
0.000150086
0.000122239
0.000152981
0.0001012
0.000156113
8.01416e-05
0.000159137
5.96128e-05
0.00015762
4.1139e-05
0.000144987
2.45855e-05
0.000129659
0.000183912
-3.32272e-05
0.000258484
-5.04896e-05
0.000146242
-6.83252e-05
0.000155549
-9.02799e-05
0.000183746
-0.00011501
0.000199002
-0.000140731
0.000202527
-0.000166539
0.000201648
-0.000192302
0.000200566
-0.00021814
0.000200132
-0.000244062
0.000199833
-0.00027008
0.000199352
-0.00029612
0.000198523
-0.000322166
0.000197291
-0.000348107
0.000195644
-0.000373929
0.000193652
-0.000399499
0.00019117
-0.000424811
0.000188317
-0.000449749
0.000184988
-0.000474307
0.000181284
-0.000498324
0.000177047
-0.000521765
0.000172427
-0.000544593
0.000167368
-0.000566719
0.000161891
-0.0005881
0.000156009
-0.000608638
0.000149729
-0.000628293
0.000143069
-0.000647004
0.000136042
-0.000664737
0.00012871
-0.000681444
0.000121071
-0.000697047
0.000113092
-0.000711536
0.000104879
-0.000724845
9.63933e-05
-0.000736952
8.76985e-05
-0.000747835
7.88114e-05
-0.000757463
6.97544e-05
-0.000765812
6.05487e-05
-0.000772869
5.1212e-05
-0.000778612
4.17644e-05
-0.00078302
3.22356e-05
-0.000786108
2.26596e-05
-0.000787867
1.3046e-05
-0.000788314
3.4197e-06
-0.000787394
-6.21294e-06
-0.00078514
-1.58092e-05
-0.000781661
-2.53078e-05
-0.000776864
-3.47953e-05
-0.000770777
-4.41792e-05
-0.000763417
-5.34629e-05
-0.000754813
-6.26189e-05
-0.000744991
-7.16299e-05
-0.000733993
-8.04796e-05
-0.000721823
-8.91739e-05
-0.000708552
-9.76522e-05
-0.000694209
-0.000105934
-0.000678779
-0.000113982
-0.000662339
-0.0001218
-0.000644917
-0.000129365
-0.000626554
-0.000136648
-0.000607287
-0.000143662
-0.000587151
-0.000150372
-0.000566179
-0.00015679
-0.00054441
-0.000162889
-0.000521918
-0.00016866
-0.000498715
-0.000174114
-0.000474859
-0.000179209
-0.000450384
-0.000183969
-0.000425341
-0.000188386
-0.00039978
-0.000192431
-0.000373749
-0.00019612
-0.000347288
-0.000199478
-0.000320451
-0.000202405
-0.000293288
-0.00020499
-0.000265845
-0.000207194
-0.000238171
-0.000209025
-0.000210318
-0.000210476
-0.000182337
-0.000211538
-0.000154272
-0.000212231
-0.000126174
-0.000212526
-9.8092e-05
-0.00021246
-7.00754e-05
-0.000211973
-4.21612e-05
-0.000211149
-1.44161e-05
-0.000209886
1.31254e-05
-0.000208269
4.04135e-05
-0.000206265
6.74072e-05
-0.00020388
9.40653e-05
-0.000201125
0.000120329
-0.000197983
0.000146174
-0.000194475
0.000171555
-0.000190606
0.00019643
-0.00018638
0.00022076
-0.000181803
0.000244508
-0.000176887
0.000267636
-0.00017164
0.000290108
-0.00016608
0.000311882
-0.00016022
0.000332935
-0.000154075
0.00035322
-0.000147666
0.0003727
-0.00014101
0.000391332
-0.000134133
0.000409076
-0.000127057
0.000425886
-0.000119804
0.000441715
-0.000112393
0.000456522
-0.00010486
0.000470241
-9.7187e-05
0.000482834
-8.94166e-05
0.000494257
-8.15578e-05
0.000504496
-7.36194e-05
0.0005135
-6.56031e-05
0.00052125
-5.75417e-05
0.000527741
-4.94097e-05
0.000532947
-4.12458e-05
0.00053688
-3.30373e-05
0.000539539
-2.48091e-05
0.000540904
-1.65424e-05
0.000541022
-8.30358e-06
0.000539893
-8.13039e-08
0.000537634
8.14346e-06
0.000534137
1.6348e-05
0.000529462
2.44918e-05
0.000523623
3.25824e-05
0.000516662
4.05854e-05
0.000508593
4.8506e-05
0.000499453
5.63159e-05
0.00048927
6.40041e-05
0.00047807
7.1571e-05
0.000465898
7.89856e-05