/*--------------------------------*- C++ -*----------------------------------*\
| =========                 |                                                 |
| \\      /  F ield         | OpenFOAM: The Open Source CFD Toolbox           |
|  \\    /   O peration     | Version:  v2006                                 |
|   \\  /    A nd           | Website:  www.openfoam.com                      |
|    \\/     M anipulation  |                                                 |
\*---------------------------------------------------------------------------*/
FoamFile
{
    version     2.0;
    format      ascii;
    class       volScalarField;
    location    "11.5";
    object      p_rgh;
}
// * * * * * * * * * * * * * * * * * * * * * * * * * * * * * * * * * * * * * //

dimensions      [1 -1 -2 0 0 0 0];


internalField   nonuniform List<scalar> 
50000
(
2654.85
2655.05
2655.45
2656.07
2656.89
2657.91
2659.13
2660.56
2662.18
2663.99
2666
2668.2
2670.59
2673.16
2675.91
2678.85
2681.96
2685.25
2688.7
2692.32
2696.11
2700.05
2704.15
2708.4
2712.8
2717.35
2722.04
2726.87
2731.83
2736.91
2742.13
2747.47
2752.92
2758.49
2764.17
2769.96
2775.85
2781.83
2787.91
2794.08
2800.32
2806.65
2813.05
2819.53
2826.06
2832.66
2839.3
2846
2852.74
2859.51
2866.32
2873.16
2880.02
2886.9
2893.79
2900.69
2907.58
2914.47
2921.35
2928.22
2935.06
2941.88
2948.66
2955.4
2962.1
2968.76
2975.36
2981.9
2988.38
2994.79
3001.12
3007.38
3013.56
3019.65
3025.66
3031.57
3037.38
3043.09
3048.7
3054.21
3059.61
3064.89
3070.06
3075.12
3080.06
3084.88
3089.59
3094.17
3098.63
3102.97
3107.18
3111.28
3115.25
3119.1
3122.82
3126.43
3129.91
3133.28
3136.53
3139.66
3142.67
3145.57
3148.35
3151.02
3153.58
3156.03
3158.38
3160.63
3162.77
3164.82
3166.77
3168.62
3170.39
3172.07
3173.67
3175.19
3176.62
3177.98
3179.27
3180.48
3181.62
3182.7
3183.71
3184.67
3185.56
3186.4
3187.19
3187.92
3188.61
3189.25
3189.85
3190.4
3190.92
3191.4
3191.84
3192.24
3192.62
3192.96
3193.27
3193.55
3193.8
3194.02
3194.22
3194.39
3194.54
3194.66
3194.76
3194.83
3194.88
3194.9
2654.44
2654.64
2655.04
2655.66
2656.48
2657.51
2658.74
2660.16
2661.79
2663.61
2665.62
2667.82
2670.22
2672.79
2675.56
2678.5
2681.61
2684.9
2688.37
2691.99
2695.79
2699.74
2703.84
2708.1
2712.51
2717.07
2721.76
2726.6
2731.56
2736.66
2741.89
2747.23
2752.7
2758.27
2763.96
2769.76
2775.65
2781.65
2787.73
2793.91
2800.16
2806.5
2812.91
2819.39
2825.93
2832.54
2839.2
2845.9
2852.66
2859.44
2866.27
2873.11
2879.98
2886.87
2893.77
2900.68
2907.58
2914.48
2921.37
2928.25
2935.1
2941.92
2948.71
2955.47
2962.18
2968.84
2975.44
2981.99
2988.48
2994.9
3001.24
3007.51
3013.69
3019.79
3025.8
3031.72
3037.54
3043.26
3048.87
3054.38
3059.78
3065.07
3070.25
3075.31
3080.26
3085.08
3089.79
3094.38
3098.84
3103.18
3107.4
3111.5
3115.47
3119.32
3123.05
3126.65
3130.14
3133.5
3136.75
3139.88
3142.89
3145.78
3148.56
3151.23
3153.79
3156.24
3158.58
3160.82
3162.95
3164.99
3166.93
3168.78
3170.54
3172.22
3173.81
3175.32
3176.75
3178.1
3179.38
3180.59
3181.73
3182.8
3183.81
3184.76
3185.65
3186.49
3187.27
3188
3188.69
3189.33
3189.92
3190.47
3190.98
3191.46
3191.9
3192.3
3192.67
3193.01
3193.32
3193.6
3193.85
3194.07
3194.27
3194.44
3194.58
3194.7
3194.8
3194.87
3194.92
3194.94
2653.6
2653.8
2654.21
2654.83
2655.66
2656.69
2657.92
2659.36
2660.99
2662.82
2664.84
2667.06
2669.46
2672.05
2674.82
2677.78
2680.91
2684.22
2687.69
2691.33
2695.14
2699.11
2703.23
2707.51
2711.93
2716.5
2721.21
2726.06
2731.05
2736.16
2741.4
2746.77
2752.25
2757.85
2763.55
2769.36
2775.28
2781.29
2787.39
2793.59
2799.86
2806.22
2812.66
2819.15
2825.71
2832.33
2839.01
2845.73
2852.5
2859.31
2866.15
2873.01
2879.9
2886.81
2893.73
2900.65
2907.58
2914.5
2921.41
2928.3
2935.17
2942.01
2948.82
2955.59
2962.32
2968.99
2975.62
2982.18
2988.68
2995.12
3001.48
3007.76
3013.96
3020.07
3026.09
3032.02
3037.86
3043.59
3049.21
3054.74
3060.15
3065.45
3070.63
3075.7
3080.66
3085.49
3090.2
3094.79
3099.26
3103.61
3107.83
3111.93
3115.9
3119.75
3123.48
3127.09
3130.57
3133.93
3137.18
3140.3
3143.31
3146.2
3148.97
3151.63
3154.18
3156.62
3158.96
3161.19
3163.32
3165.35
3167.29
3169.13
3170.89
3172.55
3174.13
3175.63
3177.05
3178.39
3179.66
3180.86
3181.98
3183.04
3184.04
3184.98
3185.86
3186.68
3187.45
3188.17
3188.85
3189.47
3190.06
3190.6
3191.1
3191.57
3192
3192.4
3192.76
3193.09
3193.4
3193.67
3193.92
3194.13
3194.33
3194.5
3194.64
3194.76
3194.85
3194.92
3194.96
3194.99
2652.34
2652.54
2652.95
2653.58
2654.41
2655.45
2656.7
2658.14
2659.78
2661.63
2663.67
2665.9
2668.32
2670.93
2673.72
2676.7
2679.85
2683.18
2686.68
2690.34
2694.17
2698.16
2702.31
2706.61
2711.06
2715.66
2720.39
2725.27
2730.28
2735.42
2740.69
2746.08
2751.58
2757.21
2762.94
2768.78
2774.72
2780.75
2786.88
2793.1
2799.41
2805.79
2812.24
2818.76
2825.36
2832.01
2838.71
2845.47
2852.26
2859.1
2865.97
2872.87
2879.78
2886.72
2893.67
2900.62
2907.57
2914.52
2921.46
2928.38
2935.27
2942.14
2948.98
2955.78
2962.53
2969.23
2975.88
2982.47
2989
2995.45
3001.84
3008.14
3014.36
3020.49
3026.54
3032.49
3038.34
3044.09
3049.73
3055.27
3060.69
3066.01
3071.21
3076.29
3081.25
3086.09
3090.82
3095.41
3099.89
3104.24
3108.47
3112.57
3116.55
3120.4
3124.13
3127.73
3131.22
3134.58
3137.81
3140.93
3143.93
3146.82
3149.58
3152.24
3154.78
3157.21
3159.53
3161.75
3163.87
3165.89
3167.81
3169.64
3171.38
3173.03
3174.59
3176.08
3177.48
3178.79
3180.04
3181.23
3182.35
3183.4
3184.38
3185.3
3186.17
3186.98
3187.73
3188.44
3189.1
3189.71
3190.28
3190.81
3191.3
3191.75
3192.16
3192.55
3192.9
3193.22
3193.51
3193.77
3194.01
3194.22
3194.4
3194.56
3194.7
3194.81
3194.9
3194.97
3195.01
3195.03
2650.65
2650.86
2651.27
2651.9
2652.75
2653.8
2655.05
2656.51
2658.18
2660.04
2662.1
2664.35
2666.8
2669.43
2672.25
2675.25
2678.43
2681.79
2685.32
2689.02
2692.88
2696.9
2701.08
2705.42
2709.9
2714.53
2719.3
2724.21
2729.26
2734.43
2739.73
2745.16
2750.7
2756.36
2762.13
2768
2773.98
2780.05
2786.21
2792.47
2798.81
2805.23
2811.73
2818.28
2824.91
2831.59
2838.33
2845.12
2851.96
2858.83
2865.74
2872.67
2879.63
2886.6
2893.58
2900.57
2907.56
2914.55
2921.52
2928.48
2935.41
2942.32
2949.19
2956.02
2962.81
2969.55
2976.23
2982.86
2989.42
2995.9
3002.32
3008.65
3014.9
3021.06
3027.13
3033.11
3038.98
3044.75
3050.42
3055.98
3061.42
3066.75
3071.97
3077.07
3082.05
3086.9
3091.64
3096.24
3100.73
3105.09
3109.32
3113.43
3117.41
3121.26
3124.99
3128.59
3132.07
3135.43
3138.66
3141.78
3144.77
3147.64
3150.4
3153.04
3155.57
3157.99
3160.3
3162.51
3164.61
3166.61
3168.52
3170.33
3172.05
3173.68
3175.23
3176.7
3178.09
3179.4
3180.62
3181.78
3182.87
3183.89
3184.85
3185.75
3186.6
3187.38
3188.12
3188.8
3189.44
3190.03
3190.58
3191.09
3191.56
3191.99
3192.39
3192.75
3193.09
3193.39
3193.66
3193.91
3194.13
3194.33
3194.5
3194.65
3194.78
3194.88
3194.97
3195.03
3195.07
3195.09
2648.54
2648.74
2649.16
2649.8
2650.66
2651.72
2653
2654.47
2656.16
2658.04
2660.13
2662.41
2664.89
2667.55
2670.41
2673.44
2676.66
2680.05
2683.62
2687.36
2691.26
2695.32
2699.54
2703.92
2708.44
2713.11
2717.93
2722.88
2727.97
2733.19
2738.53
2744
2749.59
2755.29
2761.1
2767.02
2773.04
2779.16
2785.37
2791.67
2798.05
2804.51
2811.05
2817.66
2824.33
2831.06
2837.85
2844.69
2851.57
2858.49
2865.44
2872.42
2879.43
2886.45
2893.48
2900.52
2907.55
2914.59
2921.61
2928.61
2935.59
2942.54
2949.46
2956.34
2963.17
2969.95
2976.68
2983.34
2989.94
2996.47
3002.92
3009.29
3015.58
3021.77
3027.88
3033.88
3039.79
3045.59
3051.28
3056.87
3062.34
3067.69
3072.93
3078.05
3083.04
3087.92
3092.66
3097.28
3101.78
3106.15
3110.39
3114.5
3118.49
3122.34
3126.07
3129.67
3133.15
3136.5
3139.73
3142.83
3145.81
3148.68
3151.42
3154.05
3156.56
3158.97
3161.26
3163.45
3165.53
3167.51
3169.4
3171.19
3172.88
3174.49
3176.01
3177.44
3178.79
3180.08
3181.29
3182.43
3183.49
3184.49
3185.43
3186.3
3187.12
3187.88
3188.59
3189.25
3189.86
3190.43
3190.95
3191.43
3191.88
3192.29
3192.66
3193.01
3193.32
3193.6
3193.86
3194.09
3194.29
3194.48
3194.63
3194.77
3194.89
3194.98
3195.05
3195.11
3195.15
3195.17
2645.99
2646.2
2646.62
2647.27
2648.14
2649.22
2650.52
2652.02
2653.73
2655.64
2657.76
2660.08
2662.59
2665.29
2668.18
2671.26
2674.52
2677.96
2681.57
2685.36
2689.3
2693.42
2697.69
2702.11
2706.69
2711.41
2716.28
2721.28
2726.42
2731.69
2737.09
2742.61
2748.25
2754
2759.87
2765.84
2771.91
2778.08
2784.35
2790.7
2797.14
2803.66
2810.25
2816.91
2823.64
2830.43
2837.27
2844.16
2851.1
2858.07
2865.08
2872.12
2879.18
2886.26
2893.35
2900.44
2907.54
2914.63
2921.71
2928.76
2935.8
2942.81
2949.78
2956.71
2963.6
2970.43
2977.21
2983.92
2990.57
2997.14
3003.64
3010.06
3016.39
3022.63
3028.77
3034.82
3040.76
3046.6
3052.32
3057.94
3063.44
3068.82
3074.09
3079.23
3084.24
3089.14
3093.9
3098.54
3103.05
3107.43
3111.67
3115.79
3119.78
3123.64
3127.37
3130.97
3134.44
3137.79
3141.01
3144.1
3147.07
3149.92
3152.65
3155.26
3157.76
3160.14
3162.42
3164.58
3166.64
3168.6
3170.46
3172.22
3173.89
3175.46
3176.95
3178.36
3179.69
3180.94
3182.11
3183.21
3184.25
3185.21
3186.11
3186.95
3187.74
3188.47
3189.14
3189.77
3190.35
3190.89
3191.38
3191.84
3192.25
3192.64
3192.98
3193.3
3193.59
3193.85
3194.09
3194.3
3194.48
3194.65
3194.79
3194.91
3195.01
3195.1
3195.16
3195.21
3195.25
3195.27
2643
2643.21
2643.65
2644.31
2645.19
2646.29
2647.61
2649.14
2650.88
2652.83
2654.98
2657.34
2659.89
2662.64
2665.58
2668.71
2672.02
2675.51
2679.17
2683.01
2687.02
2691.19
2695.51
2700
2704.63
2709.42
2714.34
2719.41
2724.61
2729.94
2735.4
2740.98
2746.68
2752.5
2758.42
2764.46
2770.59
2776.83
2783.15
2789.57
2796.07
2802.65
2809.31
2816.03
2822.82
2829.68
2836.58
2843.54
2850.54
2857.59
2864.66
2871.77
2878.9
2886.04
2893.2
2900.36
2907.52
2914.67
2921.82
2928.94
2936.04
2943.12
2950.15
2957.15
2964.09
2970.99
2977.83
2984.6
2991.31
2997.94
3004.49
3010.96
3017.34
3023.63
3029.82
3035.91
3041.9
3047.78
3053.55
3059.2
3064.73
3070.15
3075.44
3080.61
3085.65
3090.57
3095.35
3100.01
3104.53
3108.92
3113.18
3117.31
3121.3
3125.16
3128.89
3132.49
3135.96
3139.3
3142.51
3145.59
3148.55
3151.38
3154.09
3156.69
3159.16
3161.52
3163.77
3165.91
3167.94
3169.87
3171.7
3173.43
3175.06
3176.6
3178.05
3179.4
3180.71
3181.92
3183.06
3184.12
3185.12
3186.04
3186.9
3187.71
3188.45
3189.14
3189.78
3190.37
3190.91
3191.41
3191.87
3192.29
3192.68
3193.03
3193.35
3193.64
3193.9
3194.13
3194.34
3194.53
3194.69
3194.84
3194.96
3195.07
3195.16
3195.23
3195.28
3195.33
3195.36
3195.38
2639.56
2639.78
2640.22
2640.9
2641.8
2642.93
2644.27
2645.83
2647.61
2649.59
2651.79
2654.19
2656.79
2659.59
2662.59
2665.77
2669.14
2672.69
2676.42
2680.32
2684.39
2688.63
2693.02
2697.57
2702.28
2707.13
2712.12
2717.26
2722.53
2727.93
2733.46
2739.11
2744.88
2750.77
2756.77
2762.87
2769.08
2775.38
2781.78
2788.27
2794.84
2801.49
2808.22
2815.02
2821.89
2828.81
2835.8
2842.83
2849.91
2857.03
2864.18
2871.36
2878.56
2885.78
2893.02
2900.26
2907.49
2914.72
2921.94
2929.14
2936.32
2943.47
2950.58
2957.65
2964.67
2971.63
2978.54
2985.38
2992.15
2998.85
3005.47
3012
3018.44
3024.78
3031.03
3037.17
3043.21
3049.14
3054.95
3060.64
3066.22
3071.67
3077
3082.2
3087.27
3092.21
3097.02
3101.69
3106.24
3110.64
3114.91
3119.05
3123.05
3126.91
3130.64
3134.24
3137.7
3141.03
3144.23
3147.3
3150.24
3153.06
3155.75
3158.32
3160.77
3163.1
3165.32
3167.43
3169.43
3171.33
3173.12
3174.81
3176.41
3177.91
3179.33
3180.68
3181.91
3183.06
3184.15
3185.16
3186.11
3186.99
3187.8
3188.56
3189.26
3189.9
3190.5
3191.04
3191.54
3192
3192.42
3192.8
3193.15
3193.46
3193.75
3194
3194.23
3194.43
3194.62
3194.78
3194.92
3195.04
3195.15
3195.24
3195.31
3195.37
3195.41
3195.45
3195.47
3195.49
2635.67
2635.89
2636.34
2637.03
2637.96
2639.11
2640.48
2642.08
2643.9
2645.93
2648.18
2650.63
2653.29
2656.15
2659.2
2662.45
2665.89
2669.51
2673.31
2677.28
2681.43
2685.74
2690.21
2694.83
2699.61
2704.54
2709.62
2714.83
2720.18
2725.66
2731.27
2737
2742.85
2748.82
2754.89
2761.08
2767.36
2773.75
2780.23
2786.8
2793.45
2800.19
2807
2813.88
2820.83
2827.84
2834.9
2842.02
2849.18
2856.39
2863.62
2870.89
2878.18
2885.49
2892.81
2900.13
2907.46
2914.78
2922.08
2929.37
2936.63
2943.86
2951.06
2958.21
2965.31
2972.36
2979.34
2986.26
2993.11
2999.88
3006.57
3013.17
3019.67
3026.09
3032.39
3038.6
3044.69
3050.67
3056.54
3062.28
3067.9
3073.39
3078.76
3084
3089.1
3094.07
3098.91
3103.6
3108.16
3112.59
3116.87
3121.02
3125.02
3128.89
3132.62
3136.21
3139.67
3142.99
3146.18
3149.23
3152.16
3154.95
3157.62
3160.16
3162.59
3164.89
3167.08
3169.15
3171.11
3172.97
3174.72
3176.37
3177.92
3179.38
3180.75
3182.03
3183.22
3184.33
3185.37
3186.33
3187.22
3188.05
3188.81
3189.51
3190.16
3190.75
3191.29
3191.79
3192.24
3192.65
3193.02
3193.36
3193.66
3193.94
3194.18
3194.4
3194.59
3194.76
3194.91
3195.04
3195.16
3195.25
3195.34
3195.41
3195.47
3195.51
3195.55
3195.57
3195.59
3195.6
2631.31
2631.53
2632
2632.71
2633.65
2634.83
2636.25
2637.88
2639.75
2641.83
2644.13
2646.64
2649.37
2652.29
2655.42
2658.74
2662.25
2665.95
2669.83
2673.89
2678.11
2682.51
2687.06
2691.78
2696.64
2701.66
2706.82
2712.12
2717.56
2723.12
2728.82
2734.64
2740.58
2746.63
2752.8
2759.07
2765.45
2771.92
2778.49
2785.15
2791.89
2798.72
2805.62
2812.59
2819.64
2826.74
2833.9
2841.11
2848.37
2855.66
2863
2870.36
2877.75
2885.15
2892.57
2899.99
2907.41
2914.83
2922.23
2929.61
2936.97
2944.3
2951.59
2958.83
2966.02
2973.16
2980.24
2987.24
2994.17
3001.03
3007.8
3014.48
3021.06
3027.54
3033.92
3040.19
3046.35
3052.39
3058.31
3064.11
3069.78
3075.32
3080.73
3086.01
3091.15
3096.15
3101.02
3105.74
3110.32
3114.76
3119.06
3123.22
3127.23
3131.1
3134.83
3138.42
3141.87
3145.18
3148.35
3151.39
3154.3
3157.07
3159.71
3162.23
3164.62
3166.88
3169.03
3171.07
3172.99
3174.8
3176.5
3178.1
3179.6
3181.01
3182.32
3183.54
3184.68
3185.73
3186.71
3187.61
3188.45
3189.21
3189.92
3190.56
3191.15
3191.68
3192.17
3192.61
3193
3193.36
3193.68
3193.96
3194.22
3194.44
3194.64
3194.82
3194.97
3195.1
3195.22
3195.32
3195.4
3195.47
3195.53
3195.58
3195.62
3195.65
3195.67
3195.69
3195.7
3195.71
2626.47
2626.7
2627.17
2627.9
2628.88
2630.09
2631.54
2633.23
2635.14
2637.28
2639.64
2642.23
2645.02
2648.02
2651.23
2654.63
2658.23
2662.01
2665.98
2670.13
2674.45
2678.93
2683.58
2688.39
2693.36
2698.47
2703.73
2709.12
2714.66
2720.32
2726.12
2732.03
2738.07
2744.22
2750.49
2756.86
2763.33
2769.9
2776.57
2783.33
2790.17
2797.09
2804.09
2811.17
2818.31
2825.52
2832.78
2840.09
2847.45
2854.86
2862.3
2869.77
2877.26
2884.77
2892.29
2899.82
2907.35
2914.88
2922.39
2929.88
2937.34
2944.77
2952.17
2959.51
2966.81
2974.05
2981.22
2988.33
2995.35
3002.3
3009.16
3015.92
3022.59
3029.16
3035.61
3041.96
3048.19
3054.3
3060.28
3066.14
3071.87
3077.46
3082.91
3088.24
3093.42
3098.46
3103.35
3108.11
3112.71
3117.17
3121.49
3125.65
3129.67
3133.55
3137.28
3140.86
3144.31
3147.61
3150.76
3153.78
3156.66
3159.41
3162.02
3164.5
3166.86
3169.09
3171.19
3173.18
3175.05
3176.81
3178.46
3180.01
3181.45
3182.8
3184.05
3185.21
3186.28
3187.27
3188.18
3189.02
3189.79
3190.49
3191.12
3191.7
3192.22
3192.69
3193.11
3193.49
3193.82
3194.12
3194.38
3194.61
3194.81
3194.98
3195.13
3195.26
3195.36
3195.45
3195.53
3195.59
3195.64
3195.68
3195.72
3195.74
3195.76
3195.77
3195.78
3195.79
3195.79
3195.8
2621.14
2621.37
2621.86
2622.61
2623.61
2624.86
2626.36
2628.1
2630.07
2632.27
2634.71
2637.36
2640.24
2643.32
2646.62
2650.11
2653.8
2657.69
2661.75
2666
2670.42
2675.01
2679.77
2684.68
2689.75
2694.97
2700.34
2705.84
2711.48
2717.25
2723.15
2729.17
2735.32
2741.57
2747.94
2754.42
2761
2767.68
2774.45
2781.32
2788.27
2795.3
2802.41
2809.6
2816.85
2824.16
2831.54
2838.97
2846.44
2853.96
2861.51
2869.1
2876.71
2884.34
2891.98
2899.63
2907.28
2914.92
2922.55
2930.16
2937.74
2945.29
2952.8
2960.26
2967.67
2975.02
2982.3
2989.51
2996.65
3003.69
3010.65
3017.51
3024.27
3030.93
3037.47
3043.9
3050.21
3056.39
3062.45
3068.37
3074.16
3079.81
3085.32
3090.69
3095.92
3100.99
3105.92
3110.71
3115.34
3119.82
3124.15
3128.33
3132.36
3136.24
3139.97
3143.55
3146.98
3150.27
3153.41
3156.41
3159.26
3161.98
3164.56
3167
3169.32
3171.5
3173.56
3175.5
3177.32
3179.02
3180.62
3182.1
3183.48
3184.76
3185.94
3187.03
3188.03
3188.95
3189.79
3190.55
3191.24
3191.86
3192.43
3192.93
3193.37
3193.77
3194.12
3194.43
3194.69
3194.92
3195.12
3195.28
3195.42
3195.54
3195.63
3195.71
3195.76
3195.81
3195.84
3195.86
3195.88
3195.88
3195.89
3195.89
3195.88
3195.88
3195.87
3195.86
3195.86
3195.86
2615.3
2615.54
2616.04
2616.81
2617.85
2619.14
2620.68
2622.48
2624.51
2626.79
2629.3
2632.04
2635
2638.18
2641.58
2645.17
2648.97
2652.96
2657.14
2661.5
2666.03
2670.74
2675.61
2680.64
2685.83
2691.16
2696.64
2702.26
2708.02
2713.9
2719.92
2726.06
2732.32
2738.69
2745.17
2751.76
2758.46
2765.25
2772.14
2779.12
2786.19
2793.34
2800.57
2807.87
2815.24
2822.68
2830.17
2837.72
2845.32
2852.97
2860.65
2868.36
2876.1
2883.86
2891.63
2899.41
2907.19
2914.96
2922.72
2930.45
2938.17
2945.84
2953.48
2961.07
2968.6
2976.07
2983.48
2990.81
2998.05
3005.21
3012.28
3019.25
3026.11
3032.87
3039.5
3046.02
3052.42
3058.68
3064.81
3070.81
3076.67
3082.38
3087.95
3093.37
3098.64
3103.77
3108.73
3113.55
3118.21
3122.71
3127.06
3131.26
3135.29
3139.18
3142.91
3146.48
3149.9
3153.17
3156.29
3159.27
3162.1
3164.78
3167.32
3169.73
3172
3174.14
3176.15
3178.03
3179.79
3181.43
3182.95
3184.37
3185.68
3186.88
3187.99
3189
3189.92
3190.76
3191.51
3192.19
3192.8
3193.34
3193.82
3194.24
3194.61
3194.92
3195.19
3195.42
3195.61
3195.76
3195.89
3195.98
3196.06
3196.11
3196.14
3196.16
3196.16
3196.16
3196.14
3196.12
3196.09
3196.06
3196.03
3196
3195.97
3195.95
3195.92
3195.9
3195.89
3195.9
2608.94
2609.19
2609.7
2610.49
2611.56
2612.9
2614.5
2616.35
2618.46
2620.82
2623.41
2626.25
2629.31
2632.6
2636.1
2639.81
2643.72
2647.83
2652.13
2656.61
2661.27
2666.1
2671.1
2676.26
2681.57
2687.03
2692.63
2698.38
2704.26
2710.28
2716.42
2722.68
2729.06
2735.56
2742.16
2748.88
2755.7
2762.61
2769.63
2776.73
2783.92
2791.2
2798.55
2805.98
2813.48
2821.05
2828.68
2836.36
2844.09
2851.87
2859.69
2867.54
2875.42
2883.31
2891.23
2899.15
2907.07
2914.98
2922.88
2930.76
2938.61
2946.43
2954.21
2961.93
2969.6
2977.21
2984.75
2992.2
2999.58
3006.86
3014.05
3021.13
3028.11
3034.97
3041.71
3048.33
3054.82
3061.17
3067.39
3073.46
3079.39
3085.17
3090.81
3096.29
3101.61
3106.78
3111.79
3116.64
3121.33
3125.86
3130.23
3134.43
3138.48
3142.37
3146.09
3149.66
3153.07
3156.33
3159.43
3162.37
3165.17
3167.82
3170.32
3172.68
3174.9
3176.99
3178.94
3180.76
3182.45
3184.03
3185.48
3186.82
3188.05
3189.17
3190.19
3191.12
3191.95
3192.7
3193.37
3193.96
3194.47
3194.92
3195.31
3195.63
3195.91
3196.14
3196.32
3196.46
3196.56
3196.64
3196.68
3196.7
3196.7
3196.68
3196.65
3196.6
3196.55
3196.49
3196.42
3196.35
3196.28
3196.21
3196.15
3196.08
3196.03
3195.98
3195.94
3195.9
3195.88
3195.88
2602.05
2602.29
2602.82
2603.64
2604.74
2606.12
2607.78
2609.71
2611.89
2614.33
2617.03
2619.97
2623.14
2626.54
2630.16
2634
2638.04
2642.28
2646.72
2651.33
2656.13
2661.1
2666.23
2671.53
2676.97
2682.57
2688.31
2694.2
2700.21
2706.36
2712.64
2719.03
2725.55
2732.18
2738.91
2745.76
2752.71
2759.76
2766.9
2774.14
2781.47
2788.88
2796.37
2803.93
2811.57
2819.27
2827.04
2834.87
2842.74
2850.67
2858.63
2866.63
2874.66
2882.71
2890.77
2898.84
2906.92
2914.99
2923.04
2931.08
2939.08
2947.05
2954.98
2962.86
2970.68
2978.43
2986.11
2993.71
3001.22
3008.64
3015.96
3023.17
3030.27
3037.25
3044.1
3050.82
3057.41
3063.86
3070.17
3076.33
3082.34
3088.2
3093.9
3099.44
3104.82
3110.04
3115.09
3119.98
3124.7
3129.26
3133.65
3137.87
3141.92
3145.81
3149.54
3153.1
3156.49
3159.73
3162.81
3165.72
3168.49
3171.1
3173.56
3175.87
3178.04
3180.06
3181.95
3183.7
3185.33
3186.82
3188.2
3189.45
3190.59
3191.63
3192.56
3193.39
3194.13
3194.78
3195.34
3195.83
3196.24
3196.59
3196.88
3197.1
3197.28
3197.41
3197.49
3197.54
3197.55
3197.54
3197.49
3197.43
3197.35
3197.26
3197.15
3197.03
3196.91
3196.79
3196.67
3196.55
3196.43
3196.32
3196.21
3196.12
3196.03
3195.96
3195.89
3195.85
3195.82
3195.81
2594.6
2594.84
2595.38
2596.22
2597.36
2598.79
2600.51
2602.51
2604.78
2607.32
2610.12
2613.18
2616.47
2620
2623.76
2627.74
2631.92
2636.31
2640.89
2645.65
2650.6
2655.71
2661
2666.44
2672.04
2677.78
2683.67
2689.7
2695.87
2702.16
2708.57
2715.11
2721.77
2728.54
2735.42
2742.4
2749.49
2756.68
2763.96
2771.34
2778.81
2786.36
2793.99
2801.7
2809.49
2817.34
2825.26
2833.23
2841.26
2849.34
2857.46
2865.62
2873.81
2882.02
2890.25
2898.49
2906.73
2914.97
2923.19
2931.39
2939.57
2947.71
2955.8
2963.84
2971.82
2979.73
2987.57
2995.32
3002.99
3010.55
3018.01
3025.36
3032.59
3039.7
3046.67
3053.51
3060.21
3066.77
3073.18
3079.43
3085.52
3091.46
3097.23
3102.84
3108.28
3113.55
3118.65
3123.58
3128.33
3132.92
3137.33
3141.56
3145.63
3149.52
3153.24
3156.79
3160.18
3163.39
3166.44
3169.33
3172.05
3174.62
3177.03
3179.29
3181.4
3183.36
3185.18
3186.86
3188.41
3189.82
3191.11
3192.27
3193.32
3194.25
3195.08
3195.81
3196.44
3196.98
3197.43
3197.81
3198.11
3198.35
3198.52
3198.64
3198.71
3198.73
3198.71
3198.65
3198.56
3198.45
3198.31
3198.16
3197.99
3197.81
3197.63
3197.44
3197.25
3197.06
3196.87
3196.69
3196.52
3196.37
3196.22
3196.09
3195.97
3195.87
3195.79
3195.72
3195.68
3195.67
2586.57
2586.81
2587.35
2588.21
2589.39
2590.87
2592.66
2594.74
2597.11
2599.76
2602.67
2605.86
2609.29
2612.96
2616.87
2621
2625.34
2629.89
2634.63
2639.55
2644.66
2649.94
2655.39
2660.99
2666.75
2672.66
2678.7
2684.89
2691.21
2697.65
2704.22
2710.91
2717.72
2724.64
2731.67
2738.8
2746.03
2753.37
2760.8
2768.33
2775.94
2783.64
2791.42
2799.29
2807.23
2815.24
2823.31
2831.45
2839.64
2847.89
2856.18
2864.51
2872.87
2881.26
2889.66
2898.08
2906.5
2914.92
2923.32
2931.71
2940.06
2948.38
2956.66
2964.88
2973.03
2981.12
2989.13
2997.05
3004.87
3012.6
3020.21
3027.71
3035.08
3042.33
3049.44
3056.4
3063.22
3069.89
3076.4
3082.76
3088.94
3094.96
3100.82
3106.49
3112
3117.32
3122.47
3127.44
3132.24
3136.85
3141.28
3145.53
3149.6
3153.5
3157.22
3160.76
3164.12
3167.32
3170.34
3173.19
3175.87
3178.4
3180.75
3182.96
3185
3186.89
3188.64
3190.24
3191.69
3193.02
3194.21
3195.27
3196.22
3197.04
3197.76
3198.37
3198.89
3199.31
3199.64
3199.9
3200.08
3200.19
3200.24
3200.24
3200.18
3200.09
3199.95
3199.78
3199.58
3199.36
3199.13
3198.87
3198.61
3198.34
3198.07
3197.8
3197.53
3197.27
3197.02
3196.78
3196.56
3196.35
3196.16
3195.99
3195.83
3195.71
3195.6
3195.52
3195.47
3195.45
2577.95
2578.18
2578.72
2579.59
2580.8
2582.34
2584.19
2586.36
2588.83
2591.6
2594.65
2597.98
2601.56
2605.4
2609.47
2613.77
2618.29
2623.01
2627.92
2633.03
2638.31
2643.77
2649.39
2655.17
2661.1
2667.18
2673.4
2679.75
2686.24
2692.85
2699.58
2706.43
2713.39
2720.47
2727.65
2734.94
2742.33
2749.82
2757.4
2765.08
2772.85
2780.71
2788.65
2796.68
2804.78
2812.95
2821.2
2829.5
2837.87
2846.29
2854.76
2863.28
2871.82
2880.4
2889
2897.61
2906.22
2914.83
2923.44
2932.02
2940.57
2949.08
2957.55
2965.96
2974.31
2982.59
2990.78
2998.88
3006.88
3014.78
3022.56
3030.22
3037.75
3045.15
3052.4
3059.5
3066.45
3073.24
3079.87
3086.32
3092.61
3098.72
3104.66
3110.41
3115.98
3121.37
3126.57
3131.58
3136.41
3141.05
3145.51
3149.77
3153.85
3157.75
3161.46
3164.99
3168.34
3171.51
3174.5
3177.31
3179.95
3182.42
3184.72
3186.86
3188.84
3190.65
3192.32
3193.83
3195.2
3196.42
3197.51
3198.46
3199.29
3200
3200.6
3201.08
3201.47
3201.76
3201.96
3202.08
3202.13
3202.11
3202.02
3201.89
3201.7
3201.48
3201.21
3200.92
3200.61
3200.27
3199.92
3199.56
3199.2
3198.83
3198.47
3198.11
3197.76
3197.42
3197.1
3196.79
3196.51
3196.25
3196.01
3195.79
3195.61
3195.45
3195.31
3195.22
3195.15
3195.13
2568.7
2568.91
2569.45
2570.33
2571.56
2573.14
2575.06
2577.33
2579.92
2582.82
2586.02
2589.51
2593.27
2597.28
2601.54
2606.03
2610.74
2615.65
2620.76
2626.06
2631.54
2637.19
2643
2648.97
2655.09
2661.35
2667.75
2674.28
2680.94
2687.73
2694.63
2701.65
2708.78
2716.02
2723.36
2730.81
2738.36
2746.01
2753.76
2761.6
2769.53
2777.55
2785.66
2793.85
2802.12
2810.47
2818.89
2827.38
2835.93
2844.54
2853.21
2861.91
2870.66
2879.44
2888.24
2897.05
2905.88
2914.7
2923.51
2932.31
2941.07
2949.8
2958.48
2967.1
2975.65
2984.13
2992.53
3000.83
3009.02
3017.11
3025.07
3032.9
3040.6
3048.16
3055.56
3062.81
3069.9
3076.82
3083.57
3090.14
3096.53
3102.74
3108.76
3114.59
3120.24
3125.69
3130.94
3136
3140.87
3145.54
3150.02
3154.3
3158.39
3162.28
3165.99
3169.5
3172.83
3175.97
3178.92
3181.7
3184.29
3186.71
3188.95
3191.02
3192.92
3194.65
3196.23
3197.65
3198.91
3200.03
3201
3201.84
3202.55
3203.13
3203.59
3203.94
3204.18
3204.33
3204.39
3204.36
3204.26
3204.09
3203.86
3203.58
3203.25
3202.89
3202.49
3202.06
3201.62
3201.16
3200.69
3200.21
3199.74
3199.26
3198.8
3198.35
3197.91
3197.49
3197.09
3196.72
3196.37
3196.05
3195.76
3195.5
3195.27
3195.08
3194.92
3194.8
3194.73
3194.7
2558.79
2558.98
2559.49
2560.36
2561.6
2563.22
2565.22
2567.59
2570.31
2573.36
2576.74
2580.41
2584.37
2588.59
2593.06
2597.76
2602.67
2607.8
2613.12
2618.63
2624.32
2630.18
2636.2
2642.37
2648.69
2655.15
2661.75
2668.47
2675.32
2682.29
2689.37
2696.56
2703.87
2711.28
2718.79
2726.41
2734.13
2741.94
2749.85
2757.86
2765.96
2774.15
2782.43
2790.8
2799.25
2807.78
2816.39
2825.07
2833.81
2842.62
2851.49
2860.4
2869.36
2878.35
2887.37
2896.41
2905.46
2914.51
2923.55
2932.57
2941.57
2950.52
2959.43
2968.28
2977.06
2985.76
2994.37
3002.88
3011.29
3019.57
3027.73
3035.76
3043.64
3051.37
3058.94
3066.35
3073.58
3080.64
3087.52
3094.21
3100.72
3107.03
3113.14
3119.06
3124.77
3130.29
3135.6
3140.71
3145.61
3150.32
3154.81
3159.11
3163.21
3167.1
3170.8
3174.3
3177.6
3180.71
3183.63
3186.35
3188.9
3191.25
3193.43
3195.42
3197.24
3198.89
3200.37
3201.69
3202.85
3203.85
3204.7
3205.41
3205.98
3206.42
3206.74
3206.94
3207.03
3207.02
3206.92
3206.73
3206.47
3206.14
3205.75
3205.31
3204.82
3204.3
3203.76
3203.19
3202.6
3202.01
3201.41
3200.81
3200.21
3199.63
3199.06
3198.5
3197.97
3197.46
3196.98
3196.53
3196.12
3195.73
3195.39
3195.08
3194.81
3194.58
3194.4
3194.26
3194.17
3194.13
2548.18
2548.38
2548.83
2549.64
2550.85
2552.51
2554.61
2557.07
2559.94
2563.17
2566.75
2570.64
2574.82
2579.27
2583.98
2588.91
2594.07
2599.43
2604.99
2610.73
2616.65
2622.73
2628.97
2635.37
2641.91
2648.58
2655.38
2662.31
2669.36
2676.52
2683.79
2691.17
2698.65
2706.24
2713.93
2721.72
2729.61
2737.6
2745.68
2753.86
2762.13
2770.49
2778.95
2787.5
2796.14
2804.86
2813.66
2822.54
2831.49
2840.51
2849.59
2858.72
2867.91
2877.13
2886.38
2895.66
2904.95
2914.25
2923.54
2932.81
2942.05
2951.25
2960.41
2969.5
2978.53
2987.47
2996.31
3005.06
3013.68
3022.19
3030.56
3038.79
3046.87
3054.78
3062.53
3070.11
3077.5
3084.71
3091.73
3098.55
3105.17
3111.59
3117.81
3123.81
3129.6
3135.18
3140.55
3145.71
3150.66
3155.39
3159.91
3164.22
3168.32
3172.21
3175.9
3179.38
3182.65
3185.73
3188.61
3191.29
3193.77
3196.06
3198.17
3200.08
3201.82
3203.37
3204.75
3205.96
3207
3207.88
3208.6
3209.17
3209.59
3209.88
3210.04
3210.07
3210
3209.81
3209.54
3209.17
3208.73
3208.23
3207.66
3207.05
3206.4
3205.71
3205
3204.28
3203.54
3202.8
3202.06
3201.33
3200.61
3199.9
3199.22
3198.56
3197.92
3197.32
3196.75
3196.22
3195.73
3195.28
3194.88
3194.52
3194.21
3193.94
3193.73
3193.57
3193.46
3193.42
2536.95
2537.2
2537.5
2538.18
2539.31
2541.02
2543.26
2545.68
2548.73
2552.17
2555.98
2560.13
2564.58
2569.3
2574.27
2579.47
2584.89
2590.51
2596.33
2602.32
2608.49
2614.83
2621.31
2627.95
2634.72
2641.62
2648.64
2655.79
2663.04
2670.41
2677.88
2685.45
2693.13
2700.9
2708.77
2716.73
2724.8
2732.96
2741.21
2749.57
2758.01
2766.56
2775.2
2783.93
2792.76
2801.68
2810.68
2819.77
2828.94
2838.18
2847.49
2856.86
2866.28
2875.75
2885.26
2894.79
2904.34
2913.9
2923.45
2932.99
2942.5
2951.98
2961.4
2970.76
2980.05
2989.25
2998.35
3007.34
3016.21
3024.96
3033.56
3042
3050.29
3058.41
3066.36
3074.11
3081.68
3089.05
3096.21
3103.17
3109.92
3116.45
3122.76
3128.86
3134.73
3140.38
3145.81
3151.02
3156
3160.76
3165.31
3169.63
3173.73
3177.62
3181.29
3184.75
3187.99
3191.03
3193.86
3196.49
3198.92
3201.14
3203.17
3205
3206.64
3208.1
3209.37
3210.46
3211.37
3212.11
3212.69
3213.11
3213.38
3213.5
3213.49
3213.34
3213.08
3212.71
3212.24
3211.69
3211.05
3210.35
3209.6
3208.8
3207.96
3207.1
3206.21
3205.32
3204.42
3203.52
3202.63
3201.76
3200.9
3200.07
3199.26
3198.49
3197.74
3197.04
3196.38
3195.77
3195.2
3194.68
3194.21
3193.8
3193.44
3193.14
3192.89
3192.7
3192.59
3192.54
2525.19
2525.43
2525.61
2526.06
2527.1
2528.81
2531.03
2533.63
2536.7
2540.24
2544.33
2548.82
2553.59
2558.62
2563.89
2569.39
2575.1
2581.01
2587.11
2593.39
2599.84
2606.44
2613.19
2620.09
2627.11
2634.26
2641.52
2648.9
2656.38
2663.96
2671.63
2679.41
2687.27
2695.23
2703.29
2711.43
2719.67
2728.01
2736.44
2744.97
2753.6
2762.32
2771.15
2780.08
2789.1
2798.22
2807.43
2816.74
2826.13
2835.61
2845.16
2854.78
2864.46
2874.19
2883.97
2893.77
2903.61
2913.45
2923.29
2933.12
2942.92
2952.68
2962.4
2972.05
2981.62
2991.1
3000.48
3009.74
3018.88
3027.88
3036.73
3045.41
3053.93
3062.27
3070.41
3078.37
3086.11
3093.65
3100.97
3108.08
3114.95
3121.61
3128.03
3134.22
3140.17
3145.89
3151.38
3156.64
3161.66
3166.45
3171.01
3175.34
3179.44
3183.32
3186.98
3190.41
3193.63
3196.62
3199.41
3201.98
3204.34
3206.49
3208.43
3210.18
3211.72
3213.07
3214.22
3215.19
3215.97
3216.57
3216.99
3217.25
3217.34
3217.28
3217.08
3216.74
3216.28
3215.7
3215.03
3214.26
3213.41
3212.5
3211.54
3210.53
3209.49
3208.44
3207.36
3206.29
3205.21
3204.15
3203.1
3202.08
3201.07
3200.1
3199.17
3198.27
3197.42
3196.61
3195.85
3195.14
3194.49
3193.9
3193.36
3192.89
3192.48
3192.14
3191.86
3191.65
3191.52
3191.46
2512.65
2512.71
2512.81
2513.05
2514.23
2515.83
2517.99
2520.51
2523.52
2527.21
2531.59
2536.61
2541.77
2547.16
2552.77
2558.61
2564.65
2570.89
2577.31
2583.9
2590.65
2597.56
2604.6
2611.78
2619.08
2626.49
2634.01
2641.63
2649.34
2657.15
2665.04
2673.02
2681.08
2689.23
2697.47
2705.8
2714.22
2722.73
2731.34
2740.04
2748.85
2757.76
2766.78
2775.89
2785.12
2794.45
2803.88
2813.42
2823.04
2832.77
2842.57
2852.45
2862.41
2872.42
2882.49
2892.59
2902.72
2912.87
2923.03
2933.17
2943.29
2953.37
2963.39
2973.36
2983.24
2993.02
3002.7
3012.26
3021.68
3030.96
3040.07
3049.02
3057.78
3066.35
3074.72
3082.88
3090.82
3098.54
3106.03
3113.29
3120.3
3127.08
3133.61
3139.89
3145.94
3151.73
3157.28
3162.58
3167.64
3172.45
3177.03
3181.37
3185.47
3189.33
3192.97
3196.37
3199.55
3202.5
3205.23
3207.74