/*--------------------------------*- C++ -*----------------------------------*\
| =========                 |                                                 |
| \\      /  F ield         | OpenFOAM: The Open Source CFD Toolbox           |
|  \\    /   O peration     | Version:  v2006                                 |
|   \\  /    A nd           | Website:  www.openfoam.com                      |
|    \\/     M anipulation  |                                                 |
\*---------------------------------------------------------------------------*/
FoamFile
{
    version     2.0;
    format      ascii;
    class       volScalarField;
    location    "0";
    object      p;
}
// * * * * * * * * * * * * * * * * * * * * * * * * * * * * * * * * * * * * * //

dimensions      [1 -1 -2 0 0 0 0];


internalField   nonuniform List<scalar> 
20000
(
1.24362e-05
1.25033e-05
1.26535e-05
1.28812e-05
1.31874e-05
1.35724e-05
1.40383e-05
1.45885e-05
1.52261e-05
1.59549e-05
1.67788e-05
1.77026e-05
1.87315e-05
1.98713e-05
2.11285e-05
2.25103e-05
2.40245e-05
2.56797e-05
2.74854e-05
2.94517e-05
3.15897e-05
3.39109e-05
3.6428e-05
3.91542e-05
4.21038e-05
4.5292e-05
4.87351e-05
5.24504e-05
5.64566e-05
6.0773e-05
6.54205e-05
7.04219e-05
7.57997e-05
8.15715e-05
8.77654e-05
9.44064e-05
0.00010152
0.000109131
0.000117267
0.000125952
0.000135211
0.000145066
0.00015554
0.000166649
0.000178409
0.000190827
0.000203906
0.000217639
0.00023201
0.000246986
0.000262519
0.000278541
0.000294962
0.000311659
0.000328471
0.000345193
0.000361569
0.000377289
0.000391978
0.000405166
0.000416273
0.000424608
0.000429376
0.000429688
0.000424546
0.000412831
0.000393297
0.000364658
0.000325904
0.000276417
0.000218579
0.00018215
0.000103766
1.23775e-05
-8.05872e-05
-0.000161553
-0.00021832
-0.000238614
-0.00021157
-0.000133487
-1.43329e-05
0.00012145
0.000245993
0.000346462
0.000436377
0.000549864
0.000730933
0.00101803
0.00144029
0.00201613
0.00276013
0.00368552
0.00480239
0.00611621
0.00762715
0.00932714
0.0111961
0.0132032
0.0153118
0.0174841
0.0196837
0.0218787
0.0240302
0.0261122
0.0281045
0.0299868
0.0317406
0.0333477
0.0347894
0.0360463
0.0370987
0.0379258
0.0385086
0.0388529
0.0388966
0.0385985
0.0379694
0.0369942
0.035654
0.0339315
0.0318169
0.0293107
0.0264245
0.0231876
0.0196578
0.0159144
0.0120611
0.00822228
0.00453297
0.00112638
-0.0018804
-0.00439938
-0.00638065
-0.00781579
-0.00873567
-0.00920238
-0.00929253
-0.00908984
-0.00867253
-0.00810604
-0.00743675
-0.00670857
-0.00596406
-0.00524862
-0.00460536
-0.0040628
-0.00362491
-0.00327018
-0.00296255
-0.00266981
-0.00237614
-0.0020808
-0.00178987
-0.00151078
-0.00125034
-0.0010135
-0.000802881
-0.000619072
-0.000461263
-0.000327712
-0.000216149
-0.000124102
-4.90944e-05
1.12253e-05
5.90163e-05
9.62138e-05
0.000124522
0.000145424
0.000160193
0.000169921
0.000175531
0.000177804
0.000177396
0.000174854
0.000170635
0.000165118
0.000158613
0.000151378
0.000143621
0.00013551
0.000127184
0.00011875
0.000110294
0.000101883
9.35678e-05
8.53865e-05
7.73678e-05
6.95321e-05
6.18939e-05
5.44631e-05
4.72465e-05
4.02496e-05
3.34771e-05
2.6935e-05
2.06318e-05
1.45782e-05
8.79141e-06
3.29013e-06
-1.89527e-06
-6.6423e-06
1.24262e-05
1.24927e-05
1.26415e-05
1.28676e-05
1.31723e-05
1.35558e-05
1.40205e-05
1.45695e-05
1.52062e-05
1.59342e-05
1.67575e-05
1.7681e-05
1.87099e-05
1.98502e-05
2.11085e-05
2.24918e-05
2.40079e-05
2.56653e-05
2.74731e-05
2.94414e-05
3.15808e-05
3.39029e-05
3.64201e-05
3.91458e-05
4.20944e-05
4.52814e-05
4.87231e-05
5.24371e-05
5.64416e-05
6.07561e-05
6.5401e-05
7.03971e-05
7.57664e-05
8.1535e-05
8.7726e-05
9.43643e-05
0.000101475
0.000109084
0.000117218
0.000125901
0.000135157
0.000145011
0.000155483
0.000166591
0.00017835
0.000190768
0.000203847
0.000217582
0.000231956
0.000246937
0.000262476
0.000278506
0.000294938
0.00031165
0.000328482
0.000345226
0.00036163
0.000377385
0.000392117
0.000405357
0.000416526
0.000424932
0.000429782
0.000430188
0.000425146
0.000413508
0.000394031
0.000365591
0.000327397
0.000278799
0.000217098
0.000125507
3.80769e-05
-4.5928e-05
-0.000123929
-0.000192384
-0.000241099
-0.000256818
-0.000227857
-0.000150041
-3.28649e-05
0.000100036
0.000221948
0.000321239
0.000411966
0.000528528
0.000714931
0.00100771
0.00143541
0.00201638
0.00276524
0.00369542
0.00481706
0.00613547
0.00765072
0.00935451
0.0112265
0.0132355
0.0153446
0.0175155
0.019711
0.0218951
0.0240411
0.0261228
0.0281156
0.0299991
0.0317543
0.0333629
0.0348061
0.0360643
0.037117
0.0379423
0.0385166
0.0388052
0.0388115
0.0385289
0.0379195
0.0369581
0.035627
0.0339125
0.0318059
0.0293077
0.02643
0.0232022
0.0196801
0.0159429
0.012094
0.00825734
0.00456815
0.00116002
-0.00184933
-0.00437122
-0.00635527
-0.0077928
-0.00871477
-0.0091837
-0.00928115
-0.00908912
-0.00867917
-0.00811128
-0.00743983
-0.00670878
-0.00596079
-0.005242
-0.00459655
-0.00405375
-0.00361764
-0.00326582
-0.00296083
-0.00266952
-0.0023761
-0.00208036
-0.00178882
-0.00150915
-0.00124827
-0.0010112
-0.000800505
-0.000616757
-0.000459095
-0.000325739
-0.000214394
-0.000122565
-4.77674e-05
1.23589e-05
5.99761e-05
9.70201e-05
0.000125195
0.000145981
0.000160652
0.000170296
0.000175835
0.000178049
0.00017759
0.000175007
0.000170754
0.000165208
0.000158681
0.000151426
0.000143653
0.000135531
0.000127194
0.000118753
0.000110291
0.000101875
9.35553e-05
8.5371e-05
7.73498e-05
6.95122e-05
6.18723e-05
5.44401e-05
4.72224e-05
4.02247e-05
3.3452e-05
2.69099e-05
2.06069e-05
1.45527e-05
8.76564e-06
3.26037e-06
-1.91287e-06
-6.70102e-06
1.24134e-05
1.24802e-05
1.26295e-05
1.28562e-05
1.31615e-05
1.35455e-05
1.40106e-05
1.45598e-05
1.51965e-05
1.59242e-05
1.67472e-05
1.767e-05
1.8698e-05
1.9837e-05
2.10934e-05
2.24745e-05
2.39879e-05
2.56421e-05
2.74464e-05
2.94107e-05
3.15459e-05
3.38637e-05
3.63769e-05
3.90989e-05
4.20439e-05
4.52275e-05
4.86658e-05
5.23762e-05
5.63771e-05
6.06881e-05
6.53296e-05
7.03228e-05
7.56904e-05
8.14567e-05
8.76444e-05
9.42787e-05
0.000101385
0.00010899
0.000117119
0.000125797
0.00013505
0.0001449
0.000155369
0.000166474
0.000178232
0.000190649
0.00020373
0.000217469
0.000231848
0.000246838
0.000262389
0.000278437
0.000294891
0.000311632
0.000328501
0.000345292
0.000361752
0.000377577
0.000392393
0.000405738
0.000417032
0.000425582
0.000430591
0.00043117
0.000426331
0.000414962
0.000395795
0.000367381
0.000328198
0.000277516
0.000217314
0.000145034
7.41749e-05
-6.8165e-06
-9.12286e-05
-0.000168764
-0.000225876
-0.000247664
-0.000221273
-0.000141723
-1.90489e-05
0.000120314
0.000245536
0.000342258
0.000424488
0.000530569
0.000703343
0.000985638
0.00140409
0.00197688
0.00271826
0.00364184
0.00475809
0.00607276
0.00758671
0.00929242
0.0111695
0.0131858
0.0153035
0.0174843
0.0196914
0.0218888
0.0240459
0.0261348
0.0281329
0.0300207
0.0317797
0.0333919
0.0348389
0.0361017
0.0371604
0.0379952
0.0385869
0.0389094
0.0389437
0.0386648
0.0380503
0.0370835
0.0357477
0.0340281
0.0319145
0.0294047
0.02651
0.0232641
0.0197172
0.0159495
0.0120666
0.00819492
0.00447259
0.00103639
-0.00199318
-0.00452567
-0.00651012
-0.00793861
-0.0088441
-0.00929203
-0.00936635
-0.00915043
-0.00871901
-0.00813636
-0.00745403
-0.00671374
-0.00595689
-0.00523026
-0.00457975
-0.00403608
-0.00360336
-0.00325733
-0.00295764
-0.00266914
-0.00237612
-0.00207952
-0.00178673
-0.00150588
-0.00124412
-0.00100657
-0.000795746
-0.000612121
-0.000454756
-0.000321793
-0.000210883
-0.000119493
-4.51154e-05
1.4624e-05
6.18936e-05
9.86306e-05
0.000126538
0.000147093
0.000161567
0.000171044
0.000176442
0.000178537
0.000177979
0.000175313
0.000170991
0.000165389
0.000158815
0.000151522
0.000143718
0.000135571
0.000127215
0.000118758
0.000110284
0.000101859
9.35332e-05
8.53443e-05
7.73202e-05
6.9481e-05
6.18405e-05
5.44084e-05
4.71906e-05
4.01924e-05
3.34181e-05
2.68733e-05
2.05663e-05
1.45074e-05
8.71432e-06
3.20323e-06
-1.98261e-06
-6.77923e-06
1.23931e-05
1.24597e-05
1.26087e-05
1.28347e-05
1.3139e-05
1.35219e-05
1.39857e-05
1.45335e-05
1.51687e-05
1.58948e-05
1.6716e-05
1.7637e-05
1.86631e-05
1.98002e-05
2.10546e-05
2.24337e-05
2.39451e-05
2.55974e-05
2.73998e-05
2.93622e-05
3.14956e-05
3.38115e-05
3.63224e-05
3.90417e-05
4.19836e-05
4.51635e-05
4.85976e-05
5.23033e-05
5.62992e-05
6.06046e-05
6.524e-05
7.02265e-05
7.55869e-05
8.13452e-05
8.75252e-05
9.41521e-05
0.000101251
0.000108849
0.000116971
0.000125643
0.000134889
0.000144734
0.000155198
0.0001663
0.000178055
0.000190472
0.000203555
0.000217298
0.000231687
0.000246689
0.000262259
0.000278332
0.000294819
0.000311604
0.00032853
0.00034539
0.000361934
0.000377862
0.000392806
0.000406308
0.000417789
0.000426552
0.000431804
0.000432663
0.000428133
0.000417043
0.000398071
0.000369933
0.000331663
0.000282602
0.000221676
0.000144619
6.08421e-05
-2.91831e-05
-0.000117891
-0.000196744
-0.000254317
-0.000276348
-0.000249215
-0.000166651
-3.85308e-05
0.000106418
0.000233768
0.000327263
0.000402604
0.000499657
0.000667789
0.000946199
0.00136354
0.00193638
0.00267824
0.00360303
0.00472147
0.00603939
0.00755827
0.00927113
0.0111571
0.0131827
0.0153091
0.0174975
0.0197101
0.0219115
0.0240713
0.0261632
0.028165
0.0300568
0.0318201
0.0334371
0.0348891
0.0361564
0.0372182
0.0380529
0.038639
0.0389523
0.0389776
0.0386978
0.0380902
0.0371333
0.0358072
0.034096
0.0319887
0.0294818
0.0265876
0.0233354
0.0197759
0.0159891
0.0120816
0.00818164
0.00443033
0.000967882
-0.00208195
-0.00462639
-0.00661354
-0.00803601
-0.00892877
-0.00936079
-0.00941935
-0.00919028
-0.00874849
-0.00815663
-0.00746543
-0.00671526
-0.00594733
-0.00521017
-0.00455277
-0.00400833
-0.00358118
-0.00324432
-0.00295288
-0.00266867
-0.00237622
-0.00207827
-0.00178358
-0.00150092
-0.00123785
-0.000999584
-0.000788573
-0.000605146
-0.000448233
-0.000315867
-0.000205614
-0.000114887
-4.11398e-05
1.80184e-05
6.4766e-05
0.000101043
0.000128549
0.000148759
0.000162938
0.000172163
0.000177349
0.000179266
0.00017856
0.00017577
0.000171346
0.000165658
0.000159015
0.000151665
0.000143816
0.000135631
0.000127246
0.000118765
0.000110272
0.000101833
9.34959e-05
8.52984e-05
7.72677e-05
6.94233e-05
6.17787e-05
5.43431e-05
4.71227e-05
4.01225e-05
3.33469e-05
2.68012e-05
2.0493e-05
1.4432e-05
8.63521e-06
3.11746e-06
-2.07841e-06
-6.8858e-06
1.23661e-05
1.24325e-05
1.25811e-05
1.28067e-05
1.31106e-05
1.34928e-05
1.39559e-05
1.45029e-05
1.51371e-05
1.5862e-05
1.66818e-05
1.76013e-05
1.86255e-05
1.97605e-05
2.10126e-05
2.2389e-05
2.38974e-05
2.55463e-05
2.73448e-05
2.9303e-05
3.14316e-05
3.37423e-05
3.62475e-05
3.89607e-05
4.18962e-05
4.50695e-05
4.84968e-05
5.21956e-05
5.61842e-05
6.04821e-05
6.51098e-05
7.00887e-05
7.54413e-05
8.11915e-05
8.73632e-05
9.39815e-05
0.000101072
0.000108661
0.000116774
0.000125437
0.000134675
0.000144512
0.000154969
0.000166066
0.000177818
0.000190235
0.00020332
0.00021707
0.00023147
0.00024649
0.000262085
0.00027819
0.000294722
0.000311566
0.000328566
0.000345518
0.000362174
0.000378238
0.000393352
0.000407063
0.000418794
0.000427845
0.000433417
0.000434627
0.000430493
0.000419883
0.00040148
0.000373814
0.000335392
0.000285146
0.000222789
0.000147746
6.69038e-05
-1.94852e-05
-0.000107746
-0.000189562
-0.00025207
-0.000278815
-0.000253482
-0.000167496
-3.08098e-05
0.000123674
0.000255076
0.000343288
0.000405354
0.000486494
0.000636689
0.000902092
0.00130948
0.00187371
0.00260767
0.00352591
0.00463964
0.00595512
0.00747515
0.00919405
0.0110905
0.0131295
0.0152705
0.0174737
0.019701
0.0219162
0.0240883
0.0261907
0.0282014
0.0301009
0.0318715
0.0334956
0.0349549
0.0362302
0.0373014
0.0381479
0.0387487
0.03908
0.0391225
0.0388559
0.0382563
0.0373039
0.03598
0.0342681
0.0321562
0.0296401
0.0267287
0.0234504
0.0198557
0.0160243
0.0120649
0.00810942
0.00430402
0.000794496
-0.00229033
-0.0048542
-0.00684396
-0.00825325
-0.0091204
-0.00951988
-0.00954443
-0.00928387
-0.00881496
-0.00820088
-0.0074911
-0.00672383
-0.0059385
-0.00518543
-0.0045176
-0.00397152
-0.00355178
-0.00322745
-0.00294721
-0.00266865
-0.00237672
-0.00207677
-0.00177941
-0.00149428
-0.00122942
-0.00099021
-0.000778961
-0.000595813
-0.000439518
-0.00030796
-0.00019859
-0.00010875
-3.58475e-05
2.25348e-05
6.85863e-05
0.000104249
0.000131222
0.000150972
0.000164758
0.00017365
0.000178555
0.000180235
0.000179331
0.000176377
0.000171816
0.000166016
0.00015928
0.000151855
0.000143944
0.00013571
0.000127285
0.000118774
0.000110258
0.0001018
9.34498e-05
8.52428e-05
7.72057e-05
6.93573e-05
6.17104e-05
5.42735e-05
4.70522e-05
4.00507e-05
3.32729e-05
2.67233e-05
2.04094e-05
1.43407e-05
8.53403e-06
3.00361e-06
-2.20752e-06
-7.03818e-06
1.23323e-05
1.23986e-05
1.25468e-05
1.27719e-05
1.30749e-05
1.34561e-05
1.39179e-05
1.44634e-05
1.50958e-05
1.58187e-05
1.66362e-05
1.75531e-05
1.85745e-05
1.97063e-05
2.09551e-05
2.23278e-05
2.38322e-05
2.54769e-05
2.72709e-05
2.92243e-05
3.13478e-05
3.36531e-05
3.61527e-05
3.886e-05
4.17893e-05
4.49558e-05
4.83758e-05
5.20667e-05
5.60469e-05
6.03357e-05
6.49538e-05
6.99224e-05
7.52643e-05
8.10032e-05
8.71634e-05
9.37698e-05
0.000100849
0.000108426
0.000116527
0.000125179
0.000134407
0.000144234
0.000154684
0.000165775
0.000177523
0.000189938
0.000203026
0.000216784
0.000231198
0.000246241
0.000261866
0.000278012
0.000294598
0.000311515
0.000328608
0.000345675
0.000362469
0.000378703
0.000394029
0.000408001
0.000420044
0.000429451
0.000435423
0.000437092
0.000433485
0.000423432
0.000405518
0.000378207
0.000340132
0.000290413
0.00022848
0.000153439
6.9058e-05
-2.31471e-05
-0.000118555
-0.000207818
-0.000277357
-0.000309639
-0.000286198
-0.000195898
-4.85419e-05
0.000117895
0.000254475
0.00033675
0.000383922
0.000445992
0.000582043
0.000836908
0.00123807
0.00179791
0.00252814
0.0034441
0.00455745
0.00587472
0.00740021
0.00912971
0.0110412
0.0130971
0.0152547
0.0174735
0.0197148
0.0219421
0.024124
0.0262349
0.0282531
0.03016
0.0319382
0.0335703
0.0350381
0.036322
0.0374012
0.0382542
0.0388594
0.0391943
0.0392398
0.0389772
0.0383841
0.0374401
0.0361248
0.0344204
0.0323127
0.0297954
0.0268755
0.0235782
0.0199532
0.0160799
0.0120688
0.0080559
0.00419303
0.000632544
-0.00249065
-0.0050761
-0.00706907
-0.00846429
-0.00930399
-0.00966917
-0.00965936
-0.00936855
-0.00887449
-0.00823993
-0.00751292
-0.00672802
-0.00592298
-0.00515096
-0.00447063
-0.0039231
-0.0035136
-0.00320608
-0.00294062
-0.00266922
-0.00237768
-0.002075
-0.00177415
-0.00148585
-0.00121875
-0.000978367
-0.000766851
-0.00058408
-0.000428584
-0.000298054
-0.000189803
-0.000101081
-2.92393e-05
2.817e-05
7.33501e-05
0.000108246
0.000134552
0.000153728
0.000167024
0.0001755
0.000180054
0.00018144
0.00018029
0.00017713
0.000172399
0.000166459
0.000159608
0.000152089
0.000144102
0.000135807
0.000127334
0.000118783
0.000110237
0.000101756
9.33879e-05
8.51675e-05
7.71204e-05
6.92645e-05
6.16121e-05
5.41711e-05
4.69466e-05
3.99424e-05
3.3162e-05
2.66095e-05
2.02918e-05
1.42175e-05
8.40272e-06
2.8605e-06
-2.36634e-06
-7.22218e-06
1.22918e-05
1.23579e-05
1.25057e-05
1.273e-05
1.30321e-05
1.34121e-05
1.38725e-05
1.44162e-05
1.50467e-05
1.57674e-05
1.65824e-05
1.74965e-05
1.85149e-05
1.96433e-05
2.08883e-05
2.2257e-05
2.37569e-05
2.53967e-05
2.71854e-05
2.91331e-05
3.12504e-05
3.35489e-05
3.60411e-05
3.87404e-05
4.16611e-05
4.48185e-05
4.82288e-05
5.19094e-05
5.58788e-05
6.01565e-05
6.47628e-05
6.97194e-05
7.50487e-05
8.07747e-05
8.69216e-05
9.35146e-05
0.00010058
0.000108143
0.000116231
0.00012487
0.000134085
0.000143901
0.00015434
0.000165424
0.000177167
0.000189582
0.000202673
0.00021644
0.000230871
0.000245939
0.0002616
0.000277795
0.000294446
0.00031145
0.000328654
0.000345858
0.000362817
0.000379253
0.000394831
0.000409117
0.000421535
0.000431372
0.000437825
0.000440031
0.000437028
0.000427655
0.000410484
0.000383883
0.000346248
0.000296353
0.000233494
0.000157456
7.12872e-05
-2.29596e-05
-0.000121351
-0.000215304
-0.00029094
-0.000328923
-0.000307286
-0.000210904
-4.90005e-05
0.000133816
0.000277651
0.000351887
0.000378914
0.000417057
0.000529322
0.000767418
0.00115713
0.00170735
0.00242851
0.00333727
0.00444596
0.0057614
0.0072901
0.00903007
0.0109585
0.0130346
0.0152133
0.0174527
0.0197135
0.0219585
0.0241558
0.0262798
0.0283098
0.0302274
0.0320159
0.0336585
0.035137
0.0364322
0.0375235
0.0383898
0.0390093
0.0393598
0.0394211
0.0391731
0.038593
0.0376596
0.0363525
0.0346525
0.0325438
0.0300182
0.0270792
0.0237498
0.0200781
0.0161438
0.0120597
0.00796734
0.00402603
0.000396643
-0.00277805
-0.00539219
-0.00738912
-0.00876497
-0.00956703
-0.00988493
-0.00982737
-0.00949378
-0.0089635
-0.0082996
-0.00754803
-0.00673918
-0.00590797
-0.00511095
-0.00441399
-0.00386408
-0.00346734
-0.00318112
-0.00293412
-0.00267119
-0.00237957
-0.00207316
-0.00176787
-0.00147561
-0.00120576
-0.000964004
-0.000752206
-0.00056993
-0.000415426
-0.000286156
-0.000179265
-9.18946e-05
-2.13313e-05
3.49089e-05
7.90436e-05
0.00011302
0.000138528
0.000157018
0.000169728
0.000177708
0.000181842
0.000182876
0.000181432
0.000178027
0.000173094
0.000166986
0.000159998
0.000152367
0.000144289
0.000135921
0.00012739
0.000118794
0.000110212
0.000101704
9.33158e-05
8.50808e-05
7.70236e-05
6.91611e-05
6.15043e-05
5.40605e-05
4.68339e-05
3.98275e-05
3.3044e-05
2.6487e-05
2.01625e-05
1.40789e-05
8.25145e-06
2.69218e-06
-2.55573e-06
-7.44536e-06
1.22446e-05
1.23105e-05
1.24577e-05
1.26812e-05
1.29822e-05
1.33608e-05
1.38195e-05
1.43613e-05
1.49894e-05
1.57075e-05
1.65196e-05
1.74303e-05
1.84449e-05
1.95693e-05
2.08097e-05
2.21734e-05
2.36679e-05
2.53018e-05
2.70842e-05
2.9025e-05
3.11349e-05
3.34256e-05
3.59094e-05
3.85997e-05
4.15108e-05
4.46581e-05
4.80577e-05
5.1727e-05
5.56844e-05
5.99493e-05
6.45422e-05
6.94847e-05
7.47993e-05
8.05099e-05
8.66409e-05
9.32178e-05
0.000100267
0.000107814
0.000115885
0.000124509
0.000133709
0.000143512
0.00015394
0.000165014
0.000176752
0.000189164
0.000202259
0.000216036
0.000230487
0.000245585
0.000261287
0.000277538
0.000294264
0.000311368
0.000328702
0.000346064
0.000363215
0.000379884
0.000395754
0.000410406
0.000423262
0.0004336
0.00044061
0.000443445
0.000441173
0.00043263
0.000416299
0.000390383
0.000353141
0.000303319
0.000240272
0.000163834
7.57757e-05
-2.23903e-05
-0.000127163
-0.000229928
-0.000315797
-0.000363122
-0.000345772
-0.000243548
-6.45573e-05
0.000138307
0.00029109
0.000355578
0.000358477
0.000367128
0.000455201
0.000676682
0.0010566
0.00159902
0.0023127
0.00321613
0.0043222
0.00563784
0.00717233
0.00892655
0.0108765
0.0129773
0.0151806
0.0174433
0.0197256
0.0219892
0.024202
0.0263391
0.0283806
0.0303091
0.0321085
0.0337624
0.035253
0.0365608
0.0376647
0.0385432
0.0391741
0.0395355
0.0396072
0.0393692
0.0387996
0.0378771
0.0365802
0.0348881
0.0327829
0.030253
0.0272987
0.0239392
0.0202204
0.0162218
0.0120588
0.00787902
0.00385043
0.000143924
-0.0030884
-0.00573432
-0.00773488
-0.00908781
-0.00984626
-0.0101103
-0.00999981
-0.00962003
-0.00905157
-0.00835747
-0.00758121
-0.0067471
-0.00588639
-0.00506013
-0.00434354
-0.00379133
-0.00341112
-0.00315199
-0.00292801
-0.00267497
-0.00238257
-0.00207125
-0.00176045
-0.00146341
-0.00119031
-0.000946981
-0.000734916
-0.000553279
-0.000399987
-0.000272228
-0.000166952
-8.11779e-05
-1.2118e-05
4.2751e-05
8.56627e-05
0.000118566
0.000143143
0.000160834
0.000172863
0.000180265
0.000183912
0.000184538
0.000182752
0.000179064
0.000173895
0.000167593
0.000160446
0.000152686
0.000144503
0.000136051
0.000127452
0.000118803
0.00011018
0.00010164
9.3228e-05
8.49753e-05
7.69051e-05
6.90334e-05
6.13701e-05
5.39216e-05
4.66916e-05
3.96821e-05
3.28952e-05
2.63338e-05
2.00032e-05
1.39106e-05
8.07082e-06
2.49406e-06
-2.77619e-06
-7.70256e-06
1.21908e-05
1.22564e-05
1.2403e-05
1.26256e-05
1.29253e-05
1.33023e-05
1.3759e-05
1.42985e-05
1.49241e-05
1.56391e-05
1.64478e-05
1.73547e-05
1.83652e-05
1.94848e-05
2.07202e-05
2.20783e-05
2.35668e-05
2.51941e-05
2.69694e-05
2.89024e-05
3.10041e-05
3.32858e-05
3.576e-05
3.844e-05
4.13401e-05
4.44756e-05
4.78627e-05
5.15187e-05
5.54619e-05
5.97119e-05
6.42893e-05
6.92155e-05
7.45132e-05
8.02063e-05
8.63194e-05
9.2878e-05
9.99082e-05
0.000107437
0.00011549
0.000124096
0.00013328
0.000143066
0.000153481
0.000164545
0.000176276
0.000188686
0.000201784
0.000215573
0.000230045
0.000245177
0.000260926
0.000277239
0.00029405
0.000311268
0.000328749
0.000346292
0.000363658
0.000380589
0.000396791
0.00041186
0.000425219
0.00043613
0.000443777
0.000447329
0.000445884
0.000438285
0.000422947
0.000397942
0.000361342
0.000311694
0.000248196
0.000170625
8.00567e-05
-2.23083e-05
-0.000133334
-0.000244699
-0.000340914
-0.000398006
-0.000384832
-0.000274437
-7.28688e-05
0.000156596
0.000321751
0.000374762
0.00034812
0.000321735
0.000378226
0.000578951
0.00094634
0.00147793
0.00218056
0.00307547
0.00417622
0.00548952
0.00702844
0.00879783
0.0107722
0.0129014
0.0151331
0.0174231
0.0197309
0.0220171
0.0242489
0.0264023
0.0284581
0.0304
0.0322127
0.0338802
0.035385
0.0367077
0.037827
0.0387213
0.0393684
0.0397466
0.0398352
0.0396137
0.0390602
0.0381525
0.0368681
0.0351848
0.0330821
0.030545
0.0275698
0.0241717
0.020394
0.0163157
0.0120558
0.00776894
0.00363368
-0.000166923
-0.00346945
-0.00615401
-0.00815894
-0.00948382
-0.0101888
-0.010387
-0.010212
-0.00977628
-0.0091614
-0.00843079
-0.00762514
-0.00676092
-0.00586422
-0.00500175
-0.00426057
-0.0037051
-0.0033452
-0.00311967
-0.00292366
-0.00268164
-0.00238726
-0.0020695
-0.00175194
-0.00144919
-0.00117234
-0.000927261
-0.000714971
-0.000534142
-0.000382298
-0.000256309
-0.000152906
-6.89704e-05
-1.63456e-06
5.1667e-05
9.31838e-05
0.000124865
0.000148383
0.000165165
0.000176419
0.000183165
0.00018626
0.000186421
0.000184248
0.000180237
0.000174801
0.00016828
0.000160952
0.000153044
0.000144743
0.000136195
0.00012752
0.000118811
0.000110141
0.000101566
9.31278e-05
8.4856e-05
7.67724e-05
6.88915e-05
6.12222e-05
5.37698e-05
4.65368e-05
3.95244e-05
3.2734e-05
2.61672e-05
1.98287e-05
1.3725e-05
7.86981e-06
2.27186e-06
-3.02485e-06
-7.99477e-06
1.21303e-05
1.21956e-05
1.23415e-05
1.2563e-05
1.28613e-05
1.32366e-05
1.36911e-05
1.42281e-05
1.48506e-05
1.55623e-05
1.63672e-05
1.72699e-05
1.82755e-05
1.939e-05
2.06196e-05
2.19714e-05
2.3453e-05
2.50729e-05
2.68401e-05
2.87644e-05
3.08567e-05
3.31282e-05
3.55916e-05
3.826e-05
4.11477e-05
4.427e-05
4.76431e-05
5.12843e-05
5.52118e-05
5.94453e-05
6.40053e-05
6.89133e-05
7.41921e-05
7.98655e-05
8.59584e-05
9.24963e-05
9.95054e-05
0.000107013
0.000115046
0.000123631
0.000132796
0.000142565
0.000152964
0.000164016
0.000175739
0.000188146
0.000201247
0.000215048
0.000229545
0.000244714
0.000260515
0.000276896
0.000293801
0.000311145
0.000328792
0.000346536
0.000364141
0.000381364
0.000397935
0.000413473
0.0004274
0.000438957
0.000447315
0.000451666
0.000451159
0.000444657
0.000430495
0.000406544
0.000370633
0.000321134
0.000257224
0.000178661
8.58463e-05
-2.08133e-05
-0.000139015
-0.000260974
-0.000370563
-0.000441051
-0.000435091
-0.000316744
-8.85199e-05
0.000173556
0.000353838
0.00039244
0.000329834
0.000260968
0.000282379
0.000461213
0.000816967
0.00133826
0.00202966
0.0029164
0.00401244
0.00532374
0.00686824
0.00865612
0.0106599
0.0128224
0.0150867
0.0174075
0.0197439
0.0220548
0.024307
0.0264775
0.0285484
0.0305043
0.032331
0.0340132
0.0355337
0.0368728
0.038009
0.0389201
0.0395838
0.0399782
0.0400826
0.0398765
0.0393383
0.0384456
0.0371749
0.0355023
0.0334043
0.0308621
0.027867
0.0244294
0.0205888
0.0164237
0.0120563
0.00764972
0.00339441
-0.000512336
-0.00389379
-0.00662113
-0.00862965
-0.00992092
-0.0105631
-0.010685
-0.0104372
-0.00993975
-0.0092744
-0.00850513
-0.00766963
-0.00677366
-0.00583621
-0.00493134
-0.00416104
-0.00360201
-0.00326762
-0.00308398
-0.00292197
-0.00269204
-0.00239393
-0.00206788
-0.00174214
-0.00143267
-0.00115152
-0.000904569
-0.000692143
-0.000512337
-0.000362221
-0.000238299
-0.000137058
-5.52288e-05
1.01429e-05
6.16664e-05
0.000101606
0.000131909
0.000154236
0.000169997
0.000180383
0.000186394
0.000188871
0.000188514
0.000185908
0.000181538
0.000175804
0.000169038
0.000161509
0.000153438
0.000145004
0.00013635
0.00012759
0.000118815
0.000110094
0.00010148
9.30115e-05
8.47181e-05
7.66191e-05
6.87275e-05
6.10509e-05
5.35935e-05
4.63569e-05
3.93413e-05
3.25469e-05
2.59747e-05
1.96283e-05
1.35131e-05
7.64193e-06
2.02155e-06
-3.3036e-06
-8.32078e-06
1.20632e-05
1.21281e-05
1.22733e-05
1.24937e-05
1.27904e-05
1.31636e-05
1.36158e-05
1.41499e-05
1.47692e-05
1.54771e-05
1.62778e-05
1.71757e-05
1.81761e-05
1.92848e-05
2.0508e-05
2.18528e-05
2.33268e-05
2.49384e-05
2.66967e-05
2.86114e-05
3.06932e-05
3.29536e-05
3.54049e-05
3.80605e-05
4.09345e-05
4.40422e-05
4.73997e-05
5.10243e-05
5.49344e-05
5.91494e-05
6.36899e-05
6.85776e-05
7.38352e-05
7.94867e-05
8.5557e-05
9.20719e-05
9.90577e-05
0.000106542
0.000114551
0.000123114
0.000132257
0.000142007
0.000152388
0.000163427
0.000175141
0.000187544
0.000200648
0.000214462
0.000228985
0.000244195
0.000260052
0.000276507
0.000293513
0.000310998
0.000328827
0.000346795
0.000364661
0.0003822
0.000399177
0.000415236
0.000429797
0.000442072
0.000451216
0.00045645
0.000456992
0.000451731
0.000438915
0.000416195
0.000381141
0.000331933
0.000267679
0.000188029
9.27146e-05
-1.87682e-05
-0.000145059
-0.000279009
-0.000403959
-0.000490282
-0.000493315
-0.000365417
-0.000103499
0.00020064
0.000401008
0.000422654
0.000317037
0.000198437
0.000178
0.000332292
0.000675894
0.00118534
0.00186273
0.00273916
0.00382871
0.0051357
0.00668463
0.0084928
0.0105301
0.0127305
0.0150313
0.0173868
0.0197554
0.0220941
0.0243693
0.026559
0.0286469
0.0306188
0.0324613
0.0341602
0.0356985
0.0370561
0.0382115
0.039142
0.0398251
0.0402389
0.0403627
0.040176
0.0396569
0.0387827
0.0375288
0.0358692
0.0337773
0.0312298
0.0282125
0.02473
0.0208174
0.0165522
0.0120605
0.00751478
0.00311969
-0.000910782
-0.00438412
-0.00716103
-0.00917339
-0.0104249
-0.0109927
-0.011025
-0.0106931
-0.0101253
-0.00940265
-0.00859032
-0.00772272
-0.00679162
-0.0058064
-0.0048505
-0.00404465
-0.00348089
-0.00317778
-0.00304588
-0.00292478
-0.00270759
-0.00240328
-0.00206667
-0.00173116
-0.00141389
-0.00112794
-0.00087901
-0.000666568
-0.000488016
-0.000339906
-0.000218336
-0.000119525
-4.00469e-05
2.31431e-05
7.26974e-05
0.000110894
0.000139675
0.000160688
0.000175324
0.000184752
0.000189953
0.000191748
0.000190819
0.000187736
0.000182969
0.000176907
0.000169871
0.00016212
0.000153869
0.000145289
0.000136517
0.000127665
0.000118817
0.000110039
0.000101381
9.28812e-05
8.45646e-05
7.64493e-05
6.85467e-05
6.08629e-05
5.34009e-05
4.6161e-05
3.91422e-05
3.23439e-05
2.57657e-05
1.94104e-05
1.32823e-05
7.39313e-06
1.74761e-06
-3.60924e-06
-8.67917e-06
1.19895e-05
1.20541e-05
1.21984e-05
1.24175e-05
1.27125e-05
1.30835e-05
1.35331e-05
1.40641e-05
1.46798e-05
1.53836e-05
1.61796e-05
1.70723e-05
1.8067e-05
1.91692e-05
2.03854e-05
2.17226e-05
2.31882e-05
2.47908e-05
2.65392e-05
2.84433e-05
3.05137e-05
3.27617e-05
3.51998e-05
3.78413e-05
4.07001e-05
4.37917e-05
4.71321e-05
5.07385e-05
5.46293e-05
5.88241e-05
6.33433e-05
6.82087e-05
7.3443e-05
7.90704e-05
8.51159e-05
9.16053e-05
9.85653e-05
0.000106023
0.000114007
0.000122545
0.000131665
0.000141392
0.000151754
0.000162777
0.000174481
0.000186879
0.000199985
0.000213812
0.000228363
0.000243618
0.000259535
0.000276069
0.000293184
0.000310822
0.000328852
0.000347063
0.000365211
0.00038309
0.000400507
0.000417141
0.000432404
0.000445472
0.000455472
0.000461664
0.000463355
0.000459494
0.000448232
0.00042696
0.000392921
0.000344061
0.000279458
0.000198717
0.000100957
-1.54407e-05
-0.000150421
-0.000297867
-0.000440892
-0.000546928
-0.00056269
-0.000425189
-0.000122589
0.000233986
0.000459353
0.000459916
0.000302264
0.000124207
5.5995e-05
0.000184337
0.000517251
0.00101481
0.00167658
0.00254215
0.00362494
0.00492632
0.00647942
0.0083111
0.0103876
0.0126317
0.0149735
0.0173675
0.0197718
0.0221411
0.024441
0.0266512
0.0287571
0.0307457
0.0326052
0.0343221
0.0358796
0.0372576
0.038434
0.0393855
0.0400895
0.0405238
0.0406679
0.0405012
0.0400021
0.0391476
0.0379121
0.0362675
0.0341838
0.0316327
0.0285935
0.025064
0.0210738
0.0166986
0.0120687
0.00736705
0.00281448
-0.00135559
-0.00493218
-0.00776392
-0.00977901
-0.0109832
-0.0114638
-0.0113923
-0.0109657
-0.0103206
-0.00953557
-0.00867795
-0.00777879
-0.00681137
-0.00577189
-0.00475597
-0.00390771
-0.0033382
-0.00307376
-0.00300595
-0.002934
-0.00272961
-0.00241558
-0.00206557
-0.00171842
-0.00139211
-0.00110085
-0.000849936
-0.000637696
-0.000460734
-0.000315012
-0.000196169
-0.000100135
-2.33157e-05
3.74257e-05
8.47837e-05
0.000121045
0.000148145
0.000167711
0.000181112
0.000189491
0.000193808
0.000194859
0.000193308
0.000189706
0.000184508
0.000178091
0.000170761
0.000162771
0.000154324
0.000145587
0.000136689
0.000127736
0.000118809
0.000109971
0.000101267
9.2733e-05
8.43915e-05
7.62588e-05
6.83444e-05
6.06529e-05
5.31859e-05
4.59425e-05
3.89206e-05
3.21182e-05
2.5534e-05
1.91695e-05
1.30279e-05
7.11995e-06
1.44779e-06
-3.94289e-06
-9.06945e-06
1.19093e-05
1.19735e-05
1.21169e-05
1.23346e-05
1.26277e-05
1.29964e-05
1.3443e-05
1.39706e-05
1.45824e-05
1.52817e-05
1.60727e-05
1.69598e-05
1.79481e-05
1.90434e-05
2.0252e-05
2.15808e-05
2.30373e-05
2.463e-05
2.63677e-05
2.82602e-05
3.03181e-05
3.25528e-05
3.49765e-05
3.76025e-05
4.04449e-05
4.35189e-05
4.68406e-05
5.04272e-05
5.4297e-05
5.84696e-05
6.29656e-05
6.78066e-05
7.30155e-05
7.86164e-05
8.46347e-05
9.10964e-05
9.80281e-05
0.000105458
0.000113414
0.000121924
0.000131017
0.00014072
0.000151061
0.000162066
0.000173759
0.000186151
0.000199258
0.000213098
0.000227679
0.000242982
0.000258963
0.000275581
0.000292811
0.000310612
0.000328862
0.000347336
0.000365786
0.000384026
0.000401914
0.000419174
0.000435211
0.000449146
0.000460075
0.000467297
0.000470245
0.000467952
0.000458461
0.000438856
0.000405994
0.000357577
0.000292704
0.00021099
0.000110907
-1.05205e-05
-0.00015491
-0.000317545
-0.000481638
-0.000611762
-0.000644639
-0.000497289
-0.00014466
0.000278389
0.00053574
0.000510722
0.000290751
4.29565e-05
-8.06642e-05
2.04548e-05
0.000344725
0.000829843
0.00147314
0.00232645
0.00340137
0.00469421
0.00624979
0.00810774
0.0102295
0.0125229
0.01491
0.0173464
0.0197901
0.0221928
0.0245194
0.0267517
0.0288769
0.0308836
0.0327614
0.034498
0.0360768