/*--------------------------------*- C++ -*----------------------------------*\
| =========                 |                                                 |
| \\      /  F ield         | OpenFOAM: The Open Source CFD Toolbox           |
|  \\    /   O peration     | Version:  v2006                                 |
|   \\  /    A nd           | Website:  www.openfoam.com                      |
|    \\/     M anipulation  |                                                 |
\*---------------------------------------------------------------------------*/
FoamFile
{
    version     2.0;
    format      ascii;
    class       volVectorField;
    location    "0";
    object      U;
}
// * * * * * * * * * * * * * * * * * * * * * * * * * * * * * * * * * * * * * //

dimensions      [0 1 -1 0 0 0 0];


internalField   nonuniform List<vector> 
20000
(
(1 6.18047e-12 0)
(1 1.6007e-11 0)
(1 2.76738e-11 0)
(1 4.3002e-11 0)
(1 6.21673e-11 0)
(1 8.47547e-11 0)
(1 1.09897e-10 0)
(1 1.36749e-10 0)
(1 1.64719e-10 0)
(1 1.93408e-10 0)
(1 2.22406e-10 0)
(1 2.51054e-10 0)
(1 2.78289e-10 0)
(1 3.02609e-10 0)
(1 3.22177e-10 0)
(1 3.35069e-10 0)
(1 3.39583e-10 0)
(1 3.3438e-10 0)
(1 3.18397e-10 0)
(1 2.91361e-10 0)
(1 2.5417e-10 0)
(1 2.08778e-10 0)
(1 1.57828e-10 0)
(1 1.04186e-10 0)
(1 5.05035e-11 0)
(1 -1.04645e-12 0)
(1 -4.88153e-11 0)
(1 -9.13076e-11 0)
(1 -1.26162e-10 0)
(1 -1.49856e-10 0)
(1 -1.58655e-10 0)
(1 -1.5028e-10 0)
(1 -1.33821e-10 0)
(1 -1.34221e-10 0)
(1 -1.63445e-10 0)
(1 -2.2702e-10 0)
(1 -3.29162e-10 0)
(1 -4.74795e-10 0)
(1 -6.7054e-10 0)
(1 -9.25227e-10 0)
(1 -1.2502e-09 0)
(1 -1.65965e-09 0)
(1 -2.17096e-09 0)
(1 -2.8051e-09 0)
(1 -3.58732e-09 0)
(1 -4.54826e-09 0)
(1 -5.72546e-09 0)
(1 -7.16494e-09 0)
(1 -8.92252e-09 0)
(1 -1.1065e-08 0)
(1 -1.36713e-08 0)
(1 -1.68325e-08 0)
(1 -2.0651e-08 0)
(1 -2.52373e-08 0)
(1 -3.07078e-08 0)
(1 -3.71832e-08 0)
(1 -4.47893e-08 0)
(1 -5.36595e-08 0)
(1 -6.39317e-08 0)
(1 -7.57082e-08 0)
(1 -8.89878e-08 0)
(1 -1.03708e-07 0)
(1 -1.19973e-07 0)
(1.00001 -1.37924e-07 0)
(1.00001 -1.56451e-07 0)
(1.00001 -1.72108e-07 0)
(1.00001 -1.83148e-07 0)
(1.00001 -1.98912e-07 0)
(1.00001 -2.35206e-07 0)
(1.00001 -2.67828e-07 0)
(1.00001 -1.85655e-07 0)
(1.00002 9.8795e-08 0)
(1.00002 4.29655e-07 0)
(1.00001 6.99865e-07 0)
(1.00001 8.82222e-07 0)
(1.00001 1.00138e-06 0)
(1.00001 1.09288e-06 0)
(1.00001 1.18405e-06 0)
(1 1.28968e-06 0)
(1 1.41137e-06 0)
(1 1.53838e-06 0)
(0.999998 1.65016e-06 0)
(0.999995 1.72184e-06 0)
(0.999993 1.73141e-06 0)
(0.99999 1.66609e-06 0)
(0.999987 1.52439e-06 0)
(0.999984 1.31606e-06 0)
(0.999981 1.05863e-06 0)
(0.999977 7.69493e-07 0)
(0.999974 4.62407e-07 0)
(0.999971 1.48522e-07 0)
(0.999969 -1.61789e-07 0)
(0.999966 -4.57124e-07 0)
(0.999964 -7.24659e-07 0)
(0.999962 -9.51112e-07 0)
(0.99996 -1.12411e-06 0)
(0.999958 -1.23394e-06 0)
(0.999957 -1.27523e-06 0)
(0.999956 -1.24694e-06 0)
(0.999955 -1.15195e-06 0)
(0.999955 -1.00332e-06 0)
(0.999955 -8.38798e-07 0)
(0.999955 -7.15131e-07 0)
(0.999956 -6.52773e-07 0)
(0.999958 -6.46231e-07 0)
(0.999961 -6.84719e-07 0)
(0.999964 -7.54208e-07 0)
(0.999969 -8.30309e-07 0)
(0.999975 -8.67333e-07 0)
(0.999981 -7.89481e-07 0)
(0.999988 -4.974e-07 0)
(0.999994 1.01021e-07 0)
(0.999999 1.02875e-06 0)
(1 2.14079e-06 0)
(1 3.04532e-06 0)
(1 3.5888e-06 0)
(0.999999 3.83633e-06 0)
(0.999996 3.87921e-06 0)
(0.999993 3.77107e-06 0)
(0.999989 3.53533e-06 0)
(0.999985 3.18261e-06 0)
(0.999981 2.72365e-06 0)
(0.999977 2.17028e-06 0)
(0.999972 1.54143e-06 0)
(0.999967 8.62458e-07 0)
(0.999962 1.63625e-07 0)
(0.999957 -5.21553e-07 0)
(0.999953 -1.15804e-06 0)
(0.999949 -1.71281e-06 0)
(0.999945 -2.15797e-06 0)
(0.999941 -2.47372e-06 0)
(0.999938 -2.65021e-06 0)
(0.999936 -2.68802e-06 0)
(0.999934 -2.59778e-06 0)
(0.999932 -2.39808e-06 0)
(0.999931 -2.113e-06 0)
(0.999931 -1.7735e-06 0)
(0.999931 -1.42162e-06 0)
(0.999931 -1.13135e-06 0)
(0.999931 -9.38322e-07 0)
(0.999933 -8.31965e-07 0)
(0.999935 -7.88221e-07 0)
(0.999938 -7.79354e-07 0)
(0.999942 -7.77154e-07 0)
(0.999946 -7.58538e-07 0)
(0.999951 -7.11459e-07 0)
(0.999955 -6.37731e-07 0)
(0.999959 -5.50564e-07 0)
(0.999962 -4.67246e-07 0)
(0.999964 -4.00877e-07 0)
(0.999967 -3.5625e-07 0)
(0.999969 -3.31171e-07 0)
(0.999971 -3.20075e-07 0)
(0.999973 -3.1682e-07 0)
(0.999975 -3.16144e-07 0)
(0.999978 -3.14315e-07 0)
(0.99998 -3.09195e-07 0)
(0.999982 -2.9995e-07 0)
(0.999984 -2.86661e-07 0)
(0.999985 -2.69959e-07 0)
(0.999987 -2.50741e-07 0)
(0.999989 -2.29965e-07 0)
(0.99999 -2.08521e-07 0)
(0.999992 -1.87164e-07 0)
(0.999993 -1.66484e-07 0)
(0.999994 -1.4691e-07 0)
(0.999995 -1.28727e-07 0)
(0.999996 -1.12095e-07 0)
(0.999996 -9.70757e-08 0)
(0.999997 -8.36604e-08 0)
(0.999997 -7.17868e-08 0)
(0.999998 -6.13593e-08 0)
(0.999998 -5.22622e-08 0)
(0.999998 -4.43707e-08 0)
(0.999999 -3.75584e-08 0)
(0.999999 -3.17028e-08 0)
(0.999999 -2.66881e-08 0)
(0.999999 -2.24065e-08 0)
(0.999999 -1.87589e-08 0)
(1 -1.56546e-08 0)
(1 -1.30109e-08 0)
(1 -1.0753e-08 0)
(1 -8.81442e-09 0)
(1 -7.13783e-09 0)
(1 -5.67583e-09 0)
(1 -4.39182e-09 0)
(1 -3.26044e-09 0)
(1 -2.2681e-09 0)
(1 -1.4129e-09 0)
(1 -7.03253e-10 0)
(1 -1.53345e-10 0)
(1 2.25329e-10 0)
(1 4.33989e-10 0)
(1 4.92999e-10 0)
(1 4.38386e-10 0)
(1 3.15774e-10 0)
(1 1.57841e-10 0)
(1 1.55597e-11 0)
(1 -1.54725e-10 0)
(1 -2.67347e-10 0)
(1 1.25996e-11 0)
(1 2.88987e-11 0)
(1 4.53231e-11 0)
(1 6.42998e-11 0)
(1 8.54342e-11 0)
(1 1.08913e-10 0)
(1 1.34662e-10 0)
(1 1.62339e-10 0)
(1 1.91531e-10 0)
(1 2.21813e-10 0)
(1 2.52689e-10 0)
(1 2.83507e-10 0)
(1 3.13434e-10 0)
(1 3.41496e-10 0)
(1 3.66689e-10 0)
(1 3.88158e-10 0)
(1 4.05333e-10 0)
(1 4.17972e-10 0)
(1 4.26196e-10 0)
(1 4.30912e-10 0)
(1 4.33437e-10 0)
(1 4.35026e-10 0)
(1 4.36545e-10 0)
(1 4.38181e-10 0)
(1 4.39267e-10 0)
(1 4.38281e-10 0)
(1 4.33044e-10 0)
(1 4.21202e-10 0)
(1 4.00717e-10 0)
(1 3.69525e-10 0)
(1 3.25008e-10 0)
(1 2.6369e-10 0)
(1 1.7425e-10 0)
(1 3.3636e-11 0)
(1 -1.70812e-10 0)
(1 -4.51392e-10 0)
(1 -8.23897e-10 0)
(1 -1.30811e-09 0)
(1 -1.92862e-09 0)
(1 -2.71568e-09 0)
(1 -3.70619e-09 0)
(1 -4.94478e-09 0)
(1 -6.48511e-09 0)
(1 -8.39113e-09 0)
(1 -1.07393e-08 0)
(1 -1.3622e-08 0)
(1 -1.71522e-08 0)
(1 -2.14681e-08 0)
(1 -2.67373e-08 0)
(1 -3.316e-08 1.75228e-42)
(1 -4.09727e-08 1.81257e-42)
(1 -5.04489e-08 0)
(1 -6.18958e-08 0)
(1 -7.56455e-08 0)
(1 -9.20469e-08 0)
(1 -1.11463e-07 0)
(1 -1.34274e-07 0)
(1 -1.60871e-07 0)
(1 -1.91636e-07 0)
(1 -2.26882e-07 0)
(1 -2.66774e-07 0)
(1 -3.11281e-07 0)
(1 -3.60121e-07 0)
(1.00001 -4.12518e-07 0)
(1.00001 -4.6661e-07 0)
(1.00001 -5.19145e-07 0)
(1.00001 -5.67125e-07 0)
(1.00001 -6.10612e-07 0)
(1.00001 -6.48633e-07 0)
(1.00001 -6.58385e-07 0)
(1.00001 -5.7862e-07 0)
(1.00002 -3.78201e-07 0)
(1.00002 -1.8689e-07 0)
(1.00002 -5.18492e-08 0)
(1.00003 2.83197e-08 0)
(1.00003 6.66719e-08 0)
(1.00003 6.76224e-08 0)
(1.00004 2.77986e-08 0)
(1.00004 -5.32006e-08 0)
(1.00005 -1.62681e-07 0)
(1.00005 -2.70668e-07 0)
(1.00006 -3.35351e-07 0)
(1.00006 -3.19864e-07 0)
(1.00007 -2.07551e-07 0)
(1.00008 -9.67608e-09 0)
(1.00008 2.53412e-07 0)
(1.00008 5.47516e-07 0)
(1.00008 8.44748e-07 0)
(1.00008 1.13373e-06 0)
(1.00008 1.40875e-06 0)
(1.00007 1.66368e-06 0)
(1.00007 1.88978e-06 0)
(1.00006 2.07615e-06 0)
(1.00005 2.21031e-06 0)
(1.00004 2.27947e-06 0)
(1.00003 2.27424e-06 0)
(1.00002 2.1914e-06 0)
(1 2.03359e-06 0)
(0.999993 1.80793e-06 0)
(0.999984 1.52476e-06 0)
(0.999976 1.19382e-06 0)
(0.99997 8.12074e-07 0)
(0.999966 3.6455e-07 0)
(0.999963 -1.3803e-07 0)
(0.999963 -6.73504e-07 0)
(0.999964 -1.22334e-06 0)
(0.999967 -1.77091e-06 0)
(0.999971 -2.29738e-06 0)
(0.999977 -2.77737e-06 0)
(0.999984 -3.1751e-06 0)
(0.999993 -3.44554e-06 0)
(1 -3.54219e-06 0)
(1.00002 -3.43757e-06 0)
(1.00003 -3.17758e-06 0)
(1.00005 -2.96433e-06 0)
(1.00008 -2.81437e-06 0)
(1.0001 -2.63779e-06 0)
(1.00012 -2.3719e-06 0)
(1.00014 -1.9931e-06 0)
(1.00015 -1.5001e-06 0)
(1.00017 -9.01953e-07 0)
(1.00018 -2.20398e-07 0)
(1.00018 5.37069e-07 0)
(1.00019 1.32467e-06 0)
(1.00018 2.10569e-06 0)
(1.00018 2.84286e-06 0)
(1.00016 3.49645e-06 0)
(1.00015 4.02934e-06 0)
(1.00013 4.41136e-06 0)
(1.00011 4.62257e-06 0)
(1.00008 4.65528e-06 0)
(1.00006 4.51458e-06 0)
(1.00004 4.21747e-06 0)
(1.00001 3.79081e-06 0)
(0.999995 3.26954e-06 0)
(0.999979 2.6932e-06 0)
(0.999965 2.0979e-06 0)
(0.999955 1.50605e-06 0)
(0.999947 9.03873e-07 0)
(0.999943 2.96428e-07 0)
(0.99994 -2.91185e-07 0)
(0.99994 -8.30904e-07 0)
(0.999942 -1.2886e-06 0)
(0.999944 -1.62436e-06 0)
(0.999948 -1.80586e-06 0)
(0.999952 -1.82599e-06 0)
(0.999955 -1.71247e-06 0)
(0.999959 -1.52174e-06 0)
(0.999962 -1.31797e-06 0)
(0.999965 -1.149e-06 0)
(0.999967 -1.03478e-06 0)
(0.999969 -9.72315e-07 0)
(0.999971 -9.47259e-07 0)
(0.999973 -9.42726e-07 0)
(0.999975 -9.43963e-07 0)
(0.999978 -9.40457e-07 0)
(0.99998 -9.2626e-07 0)
(0.999982 -8.99179e-07 0)
(0.999984 -8.59653e-07 0)
(0.999985 -8.09707e-07 0)
(0.999987 -7.52115e-07 0)
(0.999989 -6.89799e-07 0)
(0.99999 -6.25456e-07 0)
(0.999992 -5.61365e-07 0)
(0.999993 -4.99309e-07 0)
(0.999994 -4.40578e-07 0)
(0.999995 -3.86024e-07 0)
(0.999996 -3.36128e-07 0)
(0.999996 -2.91076e-07 0)
(0.999997 -2.50839e-07 0)
(0.999997 -2.1523e-07 0)
(0.999998 -1.8396e-07 0)
(0.999998 -1.56681e-07 0)
(0.999998 -1.33018e-07 0)
(0.999999 -1.12591e-07 0)
(0.999999 -9.50305e-08 0)
(0.999999 -7.99884e-08 0)
(0.999999 -6.71444e-08 0)
(0.999999 -5.62076e-08 0)
(1 -4.69175e-08 0)
(1 -3.9043e-08 0)
(1 -3.23809e-08 0)
(1 -2.67537e-08 0)
(1 -2.20073e-08 0)
(1 -1.80093e-08 0)
(1 -1.46464e-08 0)
(1 -1.18226e-08 0)
(1 -9.45792e-09 0)
(1 -7.48655e-09 0)
(1 -5.85543e-09 0)
(1 -4.52176e-09 0)
(1 -3.44888e-09 0)
(1 -2.60186e-09 0)
(1 -1.9445e-09 0)
(1 -1.44017e-09 0)
(1 -1.05299e-09 0)
(1 -7.5832e-10 0)
(1 -5.15949e-10 0)
(1 -3.68797e-10 0)
(1 -1.17287e-10 0)
(1 1.64613e-11 0)
(1 3.37651e-11 0)
(1 4.89572e-11 0)
(1 6.45596e-11 0)
(1 7.99191e-11 0)
(1 9.66076e-11 0)
(1 1.16018e-10 0)
(1 1.3865e-10 0)
(1 1.64355e-10 0)
(1 1.9272e-10 0)
(1 2.23334e-10 0)
(1 2.5595e-10 0)
(1 2.90576e-10 0)
(1 3.27473e-10 0)
(1 3.67096e-10 0)
(1 4.09981e-10 0)
(1 4.56615e-10 0)
(1 5.07383e-10 0)
(1 5.6262e-10 0)
(1 6.2236e-10 0)
(1 6.85695e-10 0)
(1 7.50728e-10 0)
(1 8.1484e-10 0)
(1 8.74868e-10 0)
(1 9.27269e-10 0)
(1 9.68227e-10 0)
(1 9.93695e-10 0)
(1 9.99161e-10 0)
(1 9.78943e-10 0)
(1 9.25497e-10 0)
(1 8.29486e-10 0)
(1 6.80038e-10 0)
(1 4.66452e-10 0)
(1 1.78719e-10 0)
(1 -1.99773e-10 0)
(1 -6.92677e-10 0)
(1 -1.32965e-09 0)
(1 -2.14642e-09 0)
(1 -3.18593e-09 0)
(1 -4.49989e-09 0)
(1 -6.15058e-09 0)
(1 -8.21289e-09 0)
(1 -1.07765e-08 0)
(1 -1.3948e-08 0)
(1 -1.78549e-08 0)
(1 -2.26509e-08 0)
(1 -2.85242e-08 0)
(1 -3.5705e-08 0)
(1 -4.44721e-08 0)
(1 -5.51588e-08 0)
(1 -6.81585e-08 0)
(1 -8.39269e-08 0)
(1 -1.02976e-07 0)
(1 -1.25858e-07 0)
(1 -1.53156e-07 0)
(1 -1.85473e-07 0)
(1 -2.23445e-07 0)
(1 -2.67726e-07 0)
(1 -3.1895e-07 0)
(1 -3.77648e-07 0)
(1 -4.44156e-07 0)
(1 -5.18447e-07 0)
(1 -5.99869e-07 0)
(1.00001 -6.86909e-07 0)
(1.00001 -7.77196e-07 0)
(1.00001 -8.6734e-07 0)
(1.00001 -9.51308e-07 0)
(1.00001 -1.01767e-06 0)
(1.00001 -1.05238e-06 0)
(1.00001 -1.05599e-06 0)
(1.00001 -1.05955e-06 0)
(1.00002 -1.0891e-06 0)
(1.00002 -1.10307e-06 0)
(1.00002 -1.06934e-06 0)
(1.00002 -9.97164e-07 0)
(1.00002 -9.27596e-07 0)
(1.00002 -9.10252e-07 0)
(1.00002 -9.86114e-07 0)
(1.00002 -1.17146e-06 0)
(1.00002 -1.4416e-06 0)
(1.00003 -1.72301e-06 0)
(1.00003 -1.90823e-06 0)
(1.00003 -1.895e-06 0)
(1.00003 -1.63066e-06 0)
(1.00003 -1.1286e-06 0)
(1.00003 -4.53687e-07 0)
(1.00003 3.16626e-07 0)
(1.00003 1.12056e-06 0)
(1.00003 1.92023e-06 0)
(1.00003 2.69482e-06 0)
(1.00002 3.4269e-06 0)
(1.00002 4.0938e-06 0)
(1.00001 4.66635e-06 0)
(1.00001 5.10989e-06 0)
(1 5.38847e-06 0)
(0.999993 5.47411e-06 0)
(0.999987 5.35468e-06 0)
(0.99998 5.03373e-06 0)
(0.999974 4.52491e-06 0)
(0.999969 3.84795e-06 0)
(0.999965 3.02967e-06 0)
(0.999962 2.10723e-06 0)
(0.99996 1.1244e-06 0)
(0.999959 1.14348e-07 0)
(0.99996 -9.01101e-07 0)
(0.999962 -1.90448e-06 0)
(0.999965 -2.88004e-06 0)
(0.99997 -3.81498e-06 0)
(0.999976 -4.70144e-06 0)
(0.999982 -5.53824e-06 0)
(0.99999 -6.32909e-06 0)
(0.999999 -7.07442e-06 0)
(1.00001 -7.75394e-06 0)
(1.00002 -8.30055e-06 0)
(1.00003 -8.58656e-06 0)
(1.00004 -8.54542e-06 0)
(1.00005 -8.18242e-06 0)
(1.00006 -7.51882e-06 0)
(1.00007 -6.56705e-06 0)
(1.00007 -5.33691e-06 0)
(1.00008 -3.84612e-06 0)
(1.00008 -2.12891e-06 0)
(1.00008 -2.29244e-07 0)
(1.00008 1.77768e-06 0)
(1.00008 3.8059e-06 0)
(1.00007 5.75716e-06 0)
(1.00006 7.52684e-06 0)
(1.00005 9.0151e-06 0)
(1.00004 1.01375e-05 0)
(1.00003 1.08345e-05 0)
(1.00001 1.10779e-05 0)
(0.999999 1.08734e-05 0)
(0.999986 1.02581e-05 0)
(0.999974 9.29589e-06 0)
(0.999963 8.07137e-06 0)
(0.999955 6.67965e-06 0)
(0.999947 5.21264e-06 0)
(0.999942 3.74772e-06 0)
(0.999939 2.34852e-06 0)
(0.999937 1.05365e-06 0)
(0.999936 -1.19059e-07 0)
(0.999937 -1.15047e-06 0)
(0.99994 -2.00269e-06 0)
(0.999943 -2.62163e-06 0)
(0.999947 -2.96147e-06 0)
(0.999951 -3.01615e-06 0)
(0.999955 -2.83695e-06 0)
(0.999959 -2.52279e-06 0)
(0.999962 -2.18465e-06 0)
(0.999965 -1.90462e-06 0)
(0.999967 -1.71651e-06 0)
(0.999969 -1.61494e-06 0)
(0.999971 -1.57553e-06 0)
(0.999973 -1.56986e-06 0)
(0.999975 -1.57324e-06 0)
(0.999978 -1.56817e-06 0)
(0.99998 -1.54485e-06 0)
(0.999982 -1.49976e-06 0)
(0.999984 -1.43373e-06 0)
(0.999986 -1.35025e-06 0)
(0.999987 -1.25399e-06 0)
(0.999989 -1.14987e-06 0)
(0.99999 -1.04241e-06 0)
(0.999992 -9.35418e-07 0)
(0.999993 -8.31861e-07 0)
(0.999994 -7.3389e-07 0)
(0.999995 -6.42917e-07 0)
(0.999996 -5.59735e-07 0)
(0.999996 -4.84651e-07 0)
(0.999997 -4.17606e-07 0)
(0.999997 -3.58285e-07 0)
(0.999998 -3.06202e-07 0)
(0.999998 -2.60774e-07 0)
(0.999998 -2.21374e-07 0)
(0.999999 -1.87365e-07 0)
(0.999999 -1.58131e-07 0)
(0.999999 -1.33091e-07 0)
(0.999999 -1.11713e-07 0)
(0.999999 -9.35121e-08 0)
(1 -7.80571e-08 0)
(1 -6.49667e-08 0)
(1 -5.39065e-08 0)
(1 -4.4585e-08 0)
(1 -3.67497e-08 0)
(1 -3.01819e-08 0)
(1 -2.46928e-08 0)
(1 -2.01192e-08 0)
(1 -1.63199e-08 0)
(1 -1.31718e-08 0)
(1 -1.05674e-08 0)
(1 -8.41289e-09 0)
(1 -6.62817e-09 0)
(1 -5.14758e-09 0)
(1 -3.92011e-09 0)
(1 -2.90691e-09 0)
(1 -2.07852e-09 0)
(1 -1.40636e-09 0)
(1 -8.72211e-10 0)
(1 -4.4827e-10 0)
(1 8.1288e-12 0)
(1 2.34831e-11 0)
(1 4.89075e-11 0)
(1 7.32129e-11 0)
(1 1.00298e-10 0)
(1 1.29439e-10 0)
(1 1.62505e-10 0)
(1 2.00758e-10 0)
(1 2.44286e-10 0)
(1 2.92506e-10 0)
(1 3.44663e-10 0)
(1 4.00058e-10 0)
(1 4.58114e-10 0)
(1 5.18373e-10 0)
(1 5.80431e-10 0)
(1 6.43894e-10 0)
(1 7.08354e-10 0)
(1 7.73421e-10 0)
(1 8.387e-10 0)
(1 9.03672e-10 0)
(1 9.67501e-10 0)
(1 1.02913e-09 0)
(1 1.08739e-09 0)
(1 1.14093e-09 0)
(1 1.18798e-09 0)
(1 1.22611e-09 0)
(1 1.25208e-09 0)
(1 1.26163e-09 0)
(1 1.24927e-09 0)
(1 1.20805e-09 0)
(1 1.12966e-09 0)
(1 1.00366e-09 0)
(1 8.16016e-10 0)
(1 5.48398e-10 0)
(1 1.77872e-10 0)
(1 -3.25022e-10 0)
(1 -9.94266e-10 0)
(1 -1.86999e-09 0)
(1 -3.00065e-09 0)
(1 -4.44507e-09 0)
(1 -6.27457e-09 0)
(1 -8.57551e-09 0)
(1 -1.14521e-08 0)
(1 -1.50292e-08 0)
(1 -1.94557e-08 0)
(1 -2.49093e-08 0)
(1 -3.16048e-08 0)
(1 -3.9805e-08 0)
(1 -4.98313e-08 0)
(1 -6.20736e-08 0)
(1 -7.69972e-08 0)
(1 -9.51517e-08 0)
(1 -1.17174e-07 0)
(1 -1.4378e-07 0)
(1 -1.75745e-07 0)
(1 -2.13881e-07 0)
(1 -2.59034e-07 0)
(1 -3.12094e-07 0)
(1 -3.73988e-07 0)
(1 -4.45618e-07 0)
(1 -5.27745e-07 0)
(1 -6.20823e-07 0)
(1 -7.24825e-07 0)
(1 -8.3902e-07 0)
(1.00001 -9.61547e-07 0)
(1.00001 -1.08866e-06 0)
(1.00001 -1.21407e-06 0)
(1.00001 -1.32933e-06 0)
(1.00001 -1.42575e-06 0)
(1.00001 -1.4952e-06 0)
(1.00001 -1.52623e-06 0)
(1.00001 -1.5002e-06 0)
(1.00002 -1.40107e-06 0)
(1.00002 -1.22671e-06 0)
(1.00002 -1.01487e-06 0)
(1.00002 -8.0975e-07 0)
(1.00002 -6.55256e-07 0)
(1.00002 -5.94806e-07 0)
(1.00002 -6.65234e-07 0)
(1.00002 -8.79761e-07 0)
(1.00002 -1.20482e-06 0)
(1.00003 -1.54688e-06 0)
(1.00003 -1.76956e-06 0)
(1.00003 -1.74566e-06 0)
(1.00003 -1.41418e-06 0)
(1.00003 -7.987e-07 0)
(1.00003 1.31075e-08 0)
(1.00003 9.24138e-07 0)
(1.00003 1.85909e-06 0)
(1.00003 2.77548e-06 0)
(1.00003 3.65392e-06 0)
(1.00002 4.47725e-06 0)
(1.00002 5.21999e-06 0)
(1.00001 5.84837e-06 0)
(1.00001 6.32192e-06 0)
(1 6.59844e-06 0)
(0.999993 6.64598e-06 0)
(0.999986 6.45291e-06 0)
(0.99998 6.0264e-06 0)
(0.999974 5.38418e-06 0)
(0.999969 4.54974e-06 0)
(0.999965 3.55121e-06 0)
(0.999962 2.42087e-06 0)
(0.99996 1.19218e-06 0)
(0.999959 -1.04223e-07 0)
(0.99996 -1.43791e-06 0)
(0.999962 -2.77901e-06 0)
(0.999965 -4.09897e-06 0)
(0.99997 -5.36846e-06 0)
(0.999975 -6.55432e-06 0)
(0.999982 -7.61757e-06 0)
(0.99999 -8.51473e-06 0)
(0.999999 -9.20438e-06 0)
(1.00001 -9.65794e-06 0)
(1.00002 -9.86752e-06 0)
(1.00003 -9.82697e-06 0)
(1.00004 -9.54152e-06 0)
(1.00005 -8.99435e-06 0)
(1.00006 -8.15531e-06 0)
(1.00007 -7.00252e-06 0)
(1.00007 -5.53152e-06 0)
(1.00008 -3.75884e-06 0)
(1.00008 -1.71999e-06 0)
(1.00008 5.16935e-07 0)
(1.00008 2.87354e-06 0)
(1.00008 5.24531e-06 0)
(1.00007 7.5129e-06 0)
(1.00006 9.55235e-06 0)
(1.00005 1.12465e-05 0)
(1.00004 1.24975e-05 0)
(1.00003 1.3238e-05 0)
(1.00001 1.34386e-05 0)
(0.999999 1.31104e-05 0)
(0.999986 1.23011e-05 0)
(0.999974 1.10899e-05 0)
(0.999963 9.57949e-06 0)
(0.999954 7.88487e-06 0)
(0.999947 6.11326e-06 0)
(0.999942 4.34614e-06 0)
(0.999938 2.63819e-06 0)
(0.999936 1.02046e-06 0)
(0.999936 -4.82018e-07 0)
(0.999937 -1.83155e-06 0)
(0.99994 -2.96287e-06 0)
(0.999943 -3.78849e-06 0)
(0.999947 -4.23418e-06 0)
(0.999951 -4.28475e-06 0)
(0.999955 -4.0097e-06 0)
(0.999959 -3.54903e-06 0)
(0.999962 -3.06086e-06 0)
(0.999965 -2.6612e-06 0)
(0.999967 -2.39593e-06 0)
(0.999969 -2.25507e-06 0)
(0.999971 -2.20245e-06 0)
(0.999973 -2.19705e-06 0)
(0.999975 -2.2037e-06 0)
(0.999978 -2.19772e-06 0)
(0.99998 -2.16549e-06 0)
(0.999982 -2.10226e-06 0)
(0.999984 -2.00941e-06 0)
(0.999986 -1.89196e-06 0)
(0.999987 -1.75659e-06 0)
(0.999989 -1.61027e-06 0)
(0.99999 -1.45935e-06 0)
(0.999992 -1.30918e-06 0)
(0.999993 -1.16392e-06 0)
(0.999994 -1.02658e-06 0)
(0.999995 -8.99118e-07 0)
(0.999996 -7.82621e-07 0)
(0.999996 -6.77507e-07 0)
(0.999997 -5.83681e-07 0)
(0.999997 -5.0069e-07 0)
(0.999998 -4.27845e-07 0)
(0.999998 -3.64325e-07 0)
(0.999999 -3.09243e-07 0)
(0.999999 -2.61708e-07 0)
(0.999999 -2.20854e-07 0)
(0.999999 -1.85867e-07 0)
(0.999999 -1.55999e-07 0)
(0.999999 -1.30572e-07 0)
(1 -1.08979e-07 0)
(1 -9.0685e-08 0)
(1 -7.52185e-08 0)
(1 -6.2169e-08 0)
(1 -5.11805e-08 0)
(1 -4.19461e-08 0)
(1 -3.42025e-08 0)
(1 -2.77246e-08 0)
(1 -2.23213e-08 0)
(1 -1.78305e-08 0)
(1 -1.41154e-08 0)
(1 -1.10602e-08 0)
(1 -8.56595e-09 0)
(1 -6.54655e-09 0)
(1 -4.92562e-09 0)
(1 -3.63487e-09 0)
(1 -2.61364e-09 0)
(1 -1.80895e-09 0)
(1 -1.17442e-09 0)
(1 -6.8912e-10 0)
(1 -1.61898e-10 0)
(1 3.02581e-11 0)
(1 6.30469e-11 0)
(1 9.41073e-11 0)
(1 1.28011e-10 0)
(1 1.63508e-10 0)
(1 2.02864e-10 0)
(1 2.47792e-10 0)
(1 2.9862e-10 0)
(1 3.54822e-10 0)
(1 4.15571e-10 0)
(1 4.80038e-10 0)
(1 5.4754e-10 0)
(1 6.176e-10 0)
(1 6.89952e-10 0)
(1 7.64515e-10 0)
(1 8.41354e-10 0)
(1 9.20626e-10 0)
(1 1.00248e-09 0)
(1 1.08695e-09 0)
(1 1.17385e-09 0)
(1 1.26259e-09 0)
(1 1.35188e-09 0)
(1 1.4394e-09 0)
(1 1.52162e-09 0)
(1 1.59375e-09 0)
(1 1.64983e-09 0)
(1 1.68269e-09 0)
(1 1.68405e-09 0)
(1 1.64411e-09 0)
(1 1.5512e-09 0)
(1 1.39076e-09 0)
(1 1.1445e-09 0)
(1 7.90316e-10 0)
(1 3.0145e-10 0)
(1 -3.55864e-10 0)
(1 -1.22332e-09 0)
(1 -2.35222e-09 0)
(1 -3.80517e-09 0)
(1 -5.65814e-09 0)
(1 -8.00304e-09 0)
(1 -1.09509e-08 0)
(1 -1.46355e-08 0)
(1 -1.92173e-08 0)
(1 -2.48873e-08 0)
(1 -3.18731e-08 0)
(1 -4.04501e-08 0)
(1 -5.09551e-08 0)
(1 -6.38009e-08 0)
(1 -7.94871e-08 0)
(1 -9.86102e-08 0)
(1 -1.21874e-07 0)
(1 -1.50097e-07 0)
(1 -1.84199e-07 0)
(1 -2.25176e-07 0)
(1 -2.74069e-07 0)
(1 -3.31968e-07 0)
(1 -4.00018e-07 0)
(1 -4.79422e-07 0)
(1 -5.71357e-07 0)
(1 -6.76832e-07 0)
(1 -7.96486e-07 0)
(1 -9.30346e-07 0)
(1 -1.07745e-06 0)
(1.00001 -1.23533e-06 0)
(1.00001 -1.39945e-06 0)
(1.00001 -1.56274e-06 0)
(1.00001 -1.71481e-06 0)
(1.00001 -1.8411e-06 0)
(1.00001 -1.92389e-06 0)
(1.00001 -1.94822e-06 0)
(1.00001 -1.91082e-06 0)
(1.00002 -1.82004e-06 0)
(1.00002 -1.68133e-06 0)
(1.00002 -1.50925e-06 0)
(1.00002 -1.33073e-06 0)
(1.00002 -1.19402e-06 0)
(1.00002 -1.16338e-06 0)
(1.00002 -1.29967e-06 0)
(1.00002 -1.62997e-06 0)
(1.00002 -2.11311e-06 0)
(1.00003 -2.62067e-06 0)
(1.00003 -2.96088e-06 0)
(1.00003 -2.95223e-06 0)
(1.00003 -2.50495e-06 0)
(1.00003 -1.6523e-06 0)
(1.00003 -5.08461e-07 0)
(1.00003 7.87067e-07 0)
(1.00003 2.12453e-06 0)
(1.00003 3.44439e-06 0)
(1.00003 4.71872e-06 0)
(1.00002 5.92188e-06 0)
(1.00002 7.01667e-06 0)
(1.00001 7.95457e-06 0)
(1.00001 8.67724e-06 0)
(1 9.12305e-06 0)
(0.999993 9.24446e-06 0)
(0.999986 9.02265e-06 0)
(0.99998 8.46584e-06 0)
(0.999974 7.59841e-06 0)
(0.999969 6.45444e-06 0)
(0.999964 5.07795e-06 0)
(0.999961 3.52144e-06 0)
(0.999959 1.83992e-06 0)
(0.999959 8.34775e-08 0)
(0.999959 -1.70397e-06 0)
(0.999961 -3.48467e-06 0)
(0.999965 -5.22551e-06 0)
(0.999969 -6.89625e-06 0)
(0.999975 -8.46864e-06 0)
(0.999982 -9.91578e-06 0)
(0.99999 -1.12105e-05 0)
(0.999998 -1.23216e-05 0)
(1.00001 -1.3208e-05 0)
(1.00002 -1.38139e-05 0)
(1.00003 -1.40657e-05 0)
(1.00004 -1.39044e-05 0)
(1.00005 -1.32895e-05 0)
(1.00006 -1.21983e-05 0)
(1.00007 -1.06238e-05 0)
(1.00007 -8.57498e-06 0)
(1.00008 -6.08175e-06 0)
(1.00008 -3.20101e-06 0)
(1.00008 -1.91179e-08 0)
(1.00008 3.34481e-06 0)
(1.00008 6.74195e-06 0)
(1.00007 1.00038e-05 0)
(1.00006 1.2954e-05 0)
(1.00005 1.54245e-05 0)
(1.00004 1.72736e-05 0)
(1.00003 1.84024e-05 0)
(1.00001 1.87658e-05 0)
(0.999999 1.83757e-05 0)
(0.999985 1.7297e-05 0)
(0.999973 1.56392e-05 0)
(0.999963 1.35474e-05 0)
(0.999954 1.11857e-05 0)
(0.999946 8.7102e-06 0)
(0.999941 6.24441e-06 0)
(0.999938 3.87335e-06 0)
(0.999936 1.64801e-06 0)
(0.999935 -3.97902e-07 0)
(0.999937 -2.22129e-06 0)
(0.999939 -3.7433e-06 0)
(0.999943 -4.85265e-06 0)
(0.999947 -5.45289e-06 0)
(0.999951 -5.52505e-06 0)
(0.999955 -5.16329e-06 0)
(0.999959 -4.55644e-06 0)
(0.999962 -3.91694e-06 0)
(0.999965 -3.39862e-06 0)
(0.999967 -3.05977e-06 0)
(0.999969 -2.88436e-06 0)
(0.999971 -2.82317e-06 0)
(0.999973 -2.82184e-06 0)
(0.999975 -2.8344e-06 0)
(0.999978 -2.82906e-06 0)
(0.99998 -2.78858e-06 0)
(0.999982 -2.70724e-06 0)
(0.999984 -2.58721e-06 0)
(0.999986 -2.43526e-06 0)
(0.999987 -2.2602e-06 0)
(0.999989 -2.07111e-06 0)
(0.99999 -1.87625e-06 0)
(0.999992 -1.68254e-06 0)
(0.999993 -1.49531e-06 0)
(0.999994 -1.31842e-06 0)
(0.999995 -1.15435e-06 0)
(0.999996 -1.0045e-06 0)
(0.999996 -8.69358e-07 0)
(0.999997 -7.48788e-07 0)
(0.999997 -6.42185e-07 0)
(0.999998 -5.48651e-07 0)
(0.999998 -4.67116e-07 0)
(0.999999 -3.96432e-07 0)
(0.999999 -3.35447e-07 0)
(0.999999 -2.83045e-07 0)
(0.999999 -2.38176e-07 0)
(0.999999 -1.99878e-07 0)
(0.999999 -1.6728e-07 0)
(1 -1.39604e-07 0)
(1 -1.16163e-07 0)
(1 -9.63555e-08 0)
(1 -7.96566e-08 0)
(1 -6.56114e-08 0)
(1 -5.38271e-08 0)
(1 -4.39652e-08 0)
(1 -3.57347e-08 0)
(1 -2.88854e-08 0)
(1 -2.32026e-08 0)
(1 -1.85017e-08 0)
(1 -1.46247e-08 0)
(1 -1.14366e-08 0)
(1 -8.82351e-09 0)
(1 -6.69009e-09 0)
(1 -4.95694e-09 0)
(1 -3.55788e-09 0)
(1 -2.4359e-09 0)
(1 -1.53855e-09 0)
(1 -8.52198e-10 0)
(1 -9.2801e-11 0)
(1 3.69848e-11 0)
(1 7.69759e-11 0)
(1 1.14768e-10 0)
(1 1.56102e-10 0)
(1 1.99617e-10 0)
(1 2.48264e-10 0)
(1 3.04245e-10 0)
(1 3.67983e-10 0)
(1 4.38796e-10 0)
(1 5.15626e-10 0)
(1 5.97435e-10 0)
(1 6.83387e-10 0)
(1 7.72903e-10 0)
(1 8.65623e-10 0)
(1 9.61326e-10 0)
(1 1.05986e-09 0)
(1 1.16109e-09 0)
(1 1.26483e-09 0)
(1 1.37071e-09 0)
(1 1.478e-09 0)
(1 1.58537e-09 0)
(1 1.69067e-09 0)
(1 1.79081e-09 0)
(1 1.8817e-09 0)
(1 1.9582e-09 0)
(1 2.01409e-09 0)
(1 2.04196e-09 0)
(1 2.03294e-09 0)
(1 1.97623e-09 0)
(1 1.85834e-09 0)
(1 1.66218e-09 0)
(1 1.36606e-09 0)
(1 9.42708e-10 0)
(1 3.57848e-10 0)
(1 -4.31397e-10 0)
(1 -1.47713e-09 0)
(1 -2.84224e-09 0)
(1 -4.60289e-09 0)
(1 -6.85135e-09 0)
(1 -9.69919e-09 0)
(1 -1.32813e-08 0)
(1 -1.77604e-08 0)
(1 -2.33317e-08 0)
(1 -3.02276e-08 0)
(1 -3.87252e-08 0)
(1 -4.91593e-08 0)
(1 -6.19405e-08 0)
(1 -7.75716e-08 0)
(1 -9.66612e-08 0)
(1 -1.19935e-07 0)
(1 -1.48252e-07 0)
(1 -1.82607e-07 0)
(1 -2.24125e-07 0)
(1 -2.74021e-07 0)
(1 -3.33569e-07 0)
(1 -4.04095e-07 0)
(1 -4.87005e-07 0)
(1 -5.83786e-07 0)
(1 -6.95915e-07 0)
(1 -8.24664e-07 0)
(1 -9.70855e-07 0)
(1 -1.13457e-06 0)
(1 -1.31479e-06 0)
(1.00001 -1.50875e-06 0)
(1.00001 -1.71098e-06 0)
(1.00001 -1.91218e-06 0)
(1.00001 -2.09881e-06 0)
(1.00001 -2.25411e-06 0)
(1.00001 -2.36065e-06 0)
(1.00001 -2.40297e-06 0)
(1.00001 -2.3692e-06 0)
(1.00002 -2.25117e-06 0)
(1.00002 -2.04625e-06 0)
(1.00002 -1.77589e-06 0)
(1.00002 -1.48811e-06 0)
(1.00002 -1.25393e-06 0)
(1.00002 -1.15721e-06 0)
(1.00002 -1.27426e-06 0)
(1.00002 -1.6402e-06 0)
(1.00002 -2.20661e-06 0)
(1.00002 -2.81513e-06 0)
(1.00003 -3.22588e-06 0)
(1.00003 -3.21154e-06 0)
(1.00003 -2.6634e-06 0)
(1.00003 -1.62774e-06 0)
(1.00003 -2.58633e-07 0)
(1.00003 1.2707e-06 0)
(1.00003 2.83185e-06 0)
(1.00003 4.35892e-06 0)
(1.00003 5.82523e-06 0)
(1.00002 7.20537e-06 0)
(1.00002 8.45777e-06 0)
(1.00001 9.5264e-06 0)
(1.00001 1.03423e-05 0)
(1 1.08314e-05 0)
(0.999993 1.0937e-05 0)
(0.999986 1.0639e-05 0)
(0.99998 9.9505e-06 0)
(0.999974 8.90203e-06 0)
(0.999968 7.53357e-06 0)
(0.999964 5.89481e-06 0)
(0.999961 4.04423e-06 0)
(0.999959 2.04262e-06 0)
(0.999958 -5.40882e-08 0)
(0.999959 -2.19633e-06 0)
(0.999961 -4.33957e-06 0)
(0.999964 -6.44267e-06 0)
(0.999969 -8.46527e-06 0)
(0.999974 -1.03647e-05 0)
(0.999981 -1.2094e-05 0)
(0.999989 -1.36017e-05 0)
(0.999998 -1.48346e-05 0)
(1.00001 -1.5741e-05 0)
(1.00002 -1.62733e-05 0)
(1.00003 -1.63842e-05 0)
(1.00004 -1.60375e-05 0)
(1.00005 -1.52019e-05 0)
(1.00006 -1.38491e-05 0)
(1.00007 -1.19608e-05 0)
(1.00007 -9.53841e-06 0)
(1.00008 -6.61073e-06 0)
(1.00008 -3.23912e-06 0)
(1.00008 4.74541e-07 0)
(1.00008 4.39448e-06 0)
(1.00008 8.34812e-06 0)
(1.00007 1.21372e-05 0)
(1.00006 1.55538e-05 0)
(1.00005 1.84004e-05 0)
(1.00004 2.05109e-05 0)
(1.00003 2.17707e-05 0)
(1.00001 2.21291e-05 0)
(0.999998 2.16035e-05 0)
(0.999985 2.02735e-05 0)
(0.999973 1.82705e-05 0)
(0.999962 1.57678e-05 0)
(0.999953 1.29612e-05 0)
(0.999946 1.00344e-05 0)
(0.99994 7.12855e-06 0)
(0.999937 4.33529e-06 0)
(0.999935 1.70648e-06 0)
(0.999935 -7.24245e-07 0)
(0.999936 -2.90739e-06 0)
(0.999939 -4.74229e-06 0)
(0.999942 -6.08199e-06 0)
(0.999947 -6.79609e-06 0)
(0.999951 -6.85376e-06 0)
(0.999956 -6.37124e-06 0)
(0.999959 -5.58875e-06 0)
(0.999962 -4.7772e-06 0)
(0.999965 -4.12974e-06 0)
(0.999967 -3.71476e-06 0)
(0.999969 -3.50659e-06 0)
(0.999971 -3.44015e-06 0)
(0.999973 -3.44613e-06 0)
(0.999975 -3.46698e-06 0)
(0.999978 -3.46361e-06 0)
(0.99998 -3.4153e-06 0)
(0.999982 -3.31564e-06 0)
(0.999984 -3.16784e-06 0)
(0.999986 -2.98061e-06 0)
(0.999987 -2.76505e-06 0)
(0.999989 -2.53246e-06 0)
(0.99999 -2.29306e-06 0)
(0.999992 -2.05532e-06 0)
(0.999993 -1.82578e-06 0)
(0.999994 -1.60911e-06 0)
(0.999995 -1.40832e-06 0)
(0.999996 -1.22506e-06 0)
(0.999996 -1.05991e-06 0)
(0.999997 -9.12645e-07 0)
(0.999997 -7.8251e-07 0)
(0.999998 -6.68381e-07 0)
(0.999998 -5.68933e-07 0)
(0.999999 -4.82751e-07 0)
(0.999999 -4.08416e-07 0)
(0.999999 -3.4456e-07 0)
(0.999999 -2.89897e-07 0)
(0.999999 -2.43249e-07 0)
(1 -2.03549e-07 0)
(1 -1.69847e-07 0)
(1 -1.41304e-07 0)
(1 -1.17181e-07 0)
(1 -9.68382e-08 0)
(1 -7.97188e-08 0)
(1 -6.53435e-08 0)
(1 -5.33004e-08 0)
(1 -4.3237e-08 0)
(1 -3.48523e-08 0)
(1 -2.789e-08 0)
(1 -2.21315e-08 0)
(1 -1.73911e-08 0)
(1 -1.35095e-08 0)
(1 -1.03505e-08 0)
(1 -7.79636e-09 0)
(1 -5.7456e-09 0)
(1 -4.11051e-09 0)
(1 -2.81439e-09 0)
(1 -1.78876e-09 0)
(1 -1.0097e-09 0)
(1 -1.53931e-10 0)
(1 4.3673e-11 0)
(1 9.08701e-11 0)
(1 1.35491e-10 0)
(1 1.8436e-10 0)
(1 2.35831e-10 0)
(1 2.93319e-10 0)
(1 3.59341e-10 0)
(1 4.34321e-10 0)
(1 5.17421e-10 0)
(1 6.07383e-10 0)
(1 7.02982e-10 0)
(1 8.03224e-10 0)
(1 9.07406e-10 0)
(1 1.01508e-09 0)
(1 1.12598e-09 0)
(1 1.23997e-09 0)
(1 1.35701e-09 0)
(1 1.47706e-09 0)
(1 1.59989e-09 0)
(1 1.72491e-09 0)
(1 1.85092e-09 0)
(1 1.97583e-09 0)
(1 2.09644e-09 0)
(1 2.20821e-09 0)
(1 2.3051e-09 0)
(1 2.37943e-09 0)
(1 2.42185e-09 0)
(1 2.42108e-09 0)
(1 2.36354e-09 0)
(1 2.23266e-09 0)
(1 2.00797e-09 0)
(1 1.66382e-09 0)
(1 1.16796e-09 0)
(1 4.80721e-10 0)
(1 -4.47426e-10 0)
(1 -1.67687e-09 0)
(1 -3.281e-09 0)
(1 -5.34922e-09 0)
(1 -7.99007e-09 0)
(1 -1.13349e-08 0)
(1 -1.55422e-08 0)
(1 -2.08037e-08 0)
(1 -2.7349e-08 0)
(1 -3.54517e-08 0)
(1 -4.54375e-08 0)
(1 -5.77003e-08 0)
(1 -7.2723e-08 0)
(1 -9.10983e-08 0)
(1 -1.13543e-07 0)
(1 -1.40909e-07 -8.82151e-43)
(1 -1.74207e-07 -9.14493e-43)
(1 -2.1461e-07 0)
(1 -2.63447e-07 0)
(1 -3.22154e-07 0)
(1 -3.9223e-07 0)
(1 -4.75239e-07 0)
(1 -5.72849e-07 0)
(1 -6.86843e-07 0)
(1 -8.19009e-07 0)
(1 -9.70912e-07 0)
(1 -1.1436e-06 0)
(1 -1.3373e-06 0)
(1 -1.55091e-06 0)
(1.00001 -1.78127e-06 0)
(1.00001 -2.022e-06 0)
(1.00001 -2.26249e-06 0)
(1.00001 -2.48723e-06 0)
(1.00001 -2.67614e-06 0)
(1.00001 -2.80628e-06 0)
(1.00001 -2.85565e-06 0)
(1.00001 -2.80874e-06 0)
(1.00002 -2.66043e-06 0)
(1.00002 -2.4176e-06 0)
(1.00002 -2.10877e-06 0)
(1.00002 -1.78731e-06 0)
(1.00002 -1.5326e-06 0)
(1.00002 -1.44364e-06 0)
(1.00002 -1.61619e-06 0)
(1.00002 -2.09923e-06 0)
(1.00002 -2.8384e-06 0)
(1.00002 -3.63815e-06 0)
(1.00003 -4.19444e-06 0)
(1.00003 -4.21762e-06 0)
(1.00003 -3.56934e-06 0)
(1.00003 -2.30986e-06 0)
(1.00003 -6.32209e-07 0)
(1.00003 1.24475e-06 0)
(1.00003 3.15894e-06 0)
(1.00003 5.03224e-06 0)
(1.00003 6.83663e-06 0)
(1.00002 8.54276e-06 0)
(1.00002 1.00993e-05 0)
(1.00001 1.14373e-05 0)
(1.00001 1.24706e-05 0)
(1 1.31055e-05 0)
(0.999993 1.32696e-05 0)
(0.999986 1.29377e-05 0)
(0.999979 1.21262e-05 0)
(0.999973 1.08727e-05 0)
(0.999968 9.22584e-06 0)
(0.999963 7.24781e-06 0)
(0.99996 5.01247e-06 0)
(0.999958 2.59619e-06 0)
(0.999957 6.90125e-08 0)
(0.999958 -2.50728e-06 0)
(0.99996 -5.07858e-06 0)
(0.999963 -7.59668e-06 0)
(0.999968 -1.00162e-05 0)
(0.999974 -1.22917e-05 0)
(0.999981 -1.43758e-05 0)
(0.999989 -1.62182e-05 0)
(0.999998 -1.77645e-05 0)