/*--------------------------------*- C++ -*----------------------------------*\
| =========                 |                                                 |
| \\      /  F ield         | OpenFOAM: The Open Source CFD Toolbox           |
|  \\    /   O peration     | Version:  v2006                                 |
|   \\  /    A nd           | Website:  www.openfoam.com                      |
|    \\/     M anipulation  |                                                 |
\*---------------------------------------------------------------------------*/
FoamFile
{
    version     2.0;
    format      ascii;
    class       volScalarField;
    location    "0";
    object      f;
}
// * * * * * * * * * * * * * * * * * * * * * * * * * * * * * * * * * * * * * //

dimensions      [0 0 0 0 0 0 0];


internalField   nonuniform List<scalar> 
2500
(
2.54301e-16
5.67696e-16
6.58709e-16
5.18973e-16
-6.84864e-15
-1.33023e-14
2.74453e-14
8.43585e-14
-1.25363e-14
-5.2353e-13
-5.31104e-13
1.50413e-13
1.05089e-12
7.38115e-13
2.24076e-13
-4.86679e-13
-4.65375e-13
-2.17246e-13
-5.31542e-14
3.84467e-14
6.18701e-14
2.36955e-14
2.44362e-15
-2.60683e-15
-9.70328e-16
-2.53575e-16
-4.23214e-17
2.12222e-17
3.34364e-17
2.83625e-17
1.94972e-17
1.17678e-17
6.38228e-18
3.12088e-18
1.365e-18
5.21792e-19
1.63756e-19
3.30505e-20
-4.62297e-21
-1.02078e-20
-7.54533e-21
-4.29969e-21
-2.14019e-21
-9.73502e-22
-4.13694e-22
-1.6635e-22
-6.3816e-23
-2.34892e-23
-8.32986e-24
-3.55183e-24
2.28312e-16
3.02346e-15
-3.15166e-14
-2.37877e-14
-7.77993e-15
-2.46058e-14
2.86901e-14
2.28662e-13
-5.4383e-14
-1.91466e-12
-5.98027e-13
7.14743e-12
5.35797e-12
1.60424e-12
-6.51903e-12
-5.16078e-12
-2.00218e-12
-3.89558e-13
7.77394e-13
8.62498e-13
3.06577e-13
4.15622e-14
-4.2261e-14
-1.38692e-14
-1.19782e-15
-2.84694e-17
6.85358e-17
7.25449e-17
5.64605e-17
3.80459e-17
2.31627e-17
1.28819e-17
6.49806e-18
2.91524e-18
1.12053e-18
3.35131e-19
4.7242e-20
-3.05487e-20
-3.59357e-20
-2.43661e-20
-1.34944e-20
-6.64149e-21
-3.00865e-21
-1.27802e-21
-5.14847e-22
-1.98183e-22
-7.32863e-23
-2.6138e-23
-9.01849e-24
-3.73554e-24
3.05792e-14
1.2956e-14
-1.43688e-13
-1.94027e-13
2.38788e-13
6.89661e-13
-9.72735e-13
-8.76204e-14
-7.00682e-15
-1.82169e-12
4.27046e-11
3.43966e-11
1.21117e-11
-5.16037e-11
-4.11538e-11
-1.28881e-11
-3.66408e-12
1.30074e-11
1.05948e-11
3.73895e-12
5.49466e-13
-6.39515e-13
-2.54095e-13
-2.63581e-14
1.15793e-15
5.52447e-16
2.74896e-16
1.72549e-16
1.12212e-16
6.92589e-17
4.0013e-17
2.14339e-17
1.03781e-17
4.35631e-18
1.46305e-18
2.90198e-19
-7.48186e-20
-1.28799e-19
-9.55774e-20
-5.55763e-20
-2.82863e-20
-1.31511e-20
-5.70844e-21
-2.34362e-21
-9.17872e-22
-3.4499e-22
-1.24989e-22
-4.3795e-23
-1.48795e-23
-6.0647e-24
1.78637e-13
-1.2052e-13
-3.61879e-13
-4.78342e-13
2.20843e-12
1.18894e-11
-1.14796e-11
-2.8995e-11
7.79556e-11
2.84047e-10
2.32831e-10
7.60874e-11
-2.19622e-10
-3.16043e-10
-9.1399e-11
5.19163e-11
1.77858e-10
1.16113e-10
4.07692e-11
6.82485e-12
-8.61252e-12
-3.82261e-12
-4.90973e-13
1.42694e-14
6.92497e-15
1.5752e-15
5.42763e-16
3.15917e-16
1.96037e-16
1.15477e-16
6.44857e-17
3.37185e-17
1.5726e-17
6.03749e-18
1.57164e-18
-4.97901e-20
-4.10213e-19
-3.4957e-19
-2.16363e-19
-1.14423e-19
-5.46629e-20
-2.42334e-20
-1.01258e-20
-4.02788e-21
-1.53587e-21
-5.64189e-22
-2.00407e-22
-6.90331e-23
-2.31112e-23
-9.27817e-24
3.98947e-13
-1.40039e-12
-6.75528e-13
2.23774e-12
7.32847e-12
4.03724e-11
-3.30658e-11
-1.29999e-10
4.38117e-10
1.41265e-09
6.50976e-10
-1.24491e-09
-2.48838e-09
-7.56601e-10
7.4571e-10
1.86524e-09
1.0841e-09
3.71288e-10
7.03436e-11
-1.06273e-10
-5.14487e-11
-8.07307e-12
1.40401e-13
9.31252e-14
2.14665e-14
1.95049e-15
6.07103e-16
4.77816e-16
3.10609e-16
1.77064e-16
9.66854e-17
5.03141e-17
2.27424e-17
7.6067e-18
9.37471e-19
-1.07296e-18
-1.17927e-18
-7.96546e-19
-4.40894e-19
-2.16626e-19
-9.79113e-20
-4.15179e-20
-1.67189e-20
-6.44612e-21
-2.39338e-21
-8.59389e-22
-2.99376e-22
-1.01427e-22
-3.34816e-23
-1.32545e-23
-4.98258e-12
-4.77227e-12
4.32407e-11
3.40823e-11
1.40274e-11
6.05531e-11
-7.37531e-11
-2.88315e-10
8.57752e-10
4.1602e-09
7.34273e-10
-1.07041e-08
-9.71811e-09
1.34901e-09
1.27183e-08
7.79972e-09
2.4399e-09
5.9378e-10
-1.31902e-09
-6.78468e-10
-1.14667e-10
-5.70857e-13
1.06359e-12
3.34561e-13
2.69881e-14
-5.39277e-16
4.58517e-16
7.50154e-16
4.81783e-16
2.49892e-16
1.33596e-16
7.20776e-17
3.21348e-17
8.3744e-18
-1.51475e-18
-3.54342e-18
-2.76999e-18
-1.62848e-18
-8.23957e-19
-3.78188e-19
-1.61779e-19
-6.55309e-20
-2.53915e-20
-9.47612e-21
-3.42281e-21
-1.20084e-21
-4.10288e-22
-1.36791e-22
-4.4569e-23
-1.74294e-23
-1.84237e-10
2.50384e-10
4.59111e-10
1.09907e-10
-7.51543e-10
-2.40173e-09
-4.40171e-10
-2.16005e-09
6.78667e-10
8.37973e-09
-5.61048e-08
-3.19767e-08
-1.93662e-08
7.96717e-08
5.38695e-08
1.36009e-08
-2.0051e-09
-1.90007e-08
-9.64255e-09
-1.6909e-09
-2.63523e-11
1.06838e-11
3.79555e-12
3.67441e-13
-1.44281e-14
-3.18884e-15
1.09977e-15
1.89716e-15
7.75732e-16
3.04679e-16
1.63163e-16
1.02386e-16
4.7343e-17
7.18983e-18
-8.10935e-18
-8.9612e-18
-5.82568e-18
-3.05179e-18
-1.41256e-18
-6.02556e-19
-2.42404e-19
-9.32497e-20
-3.46042e-20
-1.24591e-20
-4.36936e-21
-1.49664e-21
-5.01691e-22
-1.64808e-22
-5.31071e-23
-2.05854e-23
-7.60073e-10
1.42768e-09
2.22903e-09
-7.94178e-09
-2.95132e-08
-3.40076e-08
-2.26206e-08
-1.38821e-07
-2.57945e-07
-3.69105e-07
-3.16839e-07
-4.63492e-09
4.60352e-07
3.98228e-07
1.08582e-07
-2.26684e-07
-2.77212e-07
-1.32502e-07
-2.678e-08
-8.97528e-10
8.41846e-11
3.36944e-11
4.17308e-12
-9.24763e-14
-3.34866e-14
1.36964e-14
2.39673e-14
7.96803e-15
1.02437e-15
2.07977e-16
1.51857e-16
1.5599e-16
8.24848e-17
1.93396e-18
-2.43861e-17
-2.03267e-17
-1.13078e-17
-5.23455e-18
-2.18067e-18
-8.49399e-19
-3.16138e-19
-1.13923e-19
-4.00695e-20
-1.38223e-20
-4.68932e-21
-1.56701e-21
-5.16187e-22
-1.67671e-22
-5.37047e-23
-2.07916e-23
-1.5927e-09
3.76355e-09
4.9766e-09
-4.62016e-08
-1.26403e-07
-1.1293e-07
-1.53133e-07
-6.48589e-07
-1.46797e-06
-2.13323e-06
-1.03688e-06
1.88269e-06
2.81902e-06
9.19537e-07
-1.99104e-06
-2.56909e-06
-1.3129e-06
-3.64801e-07
-2.97937e-08
5.33628e-10
1.99402e-10
4.73202e-11
9.70751e-13
7.90206e-13
1.97117e-14
2.36338e-13
1.24699e-13
1.83811e-14
-6.50408e-16
-4.10955e-16
3.75548e-17
2.92396e-16
1.91218e-16
-1.34854e-17
-6.55526e-17
-4.3712e-17
-2.0268e-17
-7.9774e-18
-2.86456e-18
-9.73491e-19
-3.20516e-19
-1.03934e-19
-3.35646e-20
-1.08626e-20
-3.53035e-21
-1.15124e-21
-3.75769e-22
-1.22398e-22
-3.96648e-23
-1.57149e-23
-1.90398e-09
5.5013e-09
-5.72433e-09
-1.27688e-07
-2.92138e-07
-2.24991e-07
-4.52387e-07
-1.54125e-06
-3.81221e-06
-6.21434e-06
-1.83403e-06
7.73215e-06
8.45966e-06
-2.88796e-06
-1.3521e-05
-8.71859e-06
-3.003e-06
-5.41201e-07
1.68544e-09
7.90096e-10
5.46448e-11
3.34997e-10
1.50521e-09
2.66567e-11
1.47258e-12
8.64813e-13
2.64572e-13
7.7247e-15
-6.01927e-15
-2.24117e-15
-1.78176e-16
8.88913e-16
6.03068e-16
-6.46809e-17
-1.80866e-16
-9.0704e-17
-3.21894e-17
-9.73936e-18
-2.62443e-18
-6.34793e-19
-1.36292e-19
-2.50614e-20
-3.58742e-21
-2.74216e-22
2.7894e-23
2.39641e-24
-1.17548e-23
-1.00217e-23
-5.62717e-24
-3.46309e-24
1.52707e-09
2.91186e-09
-7.886e-08
-2.35412e-07
-4.47187e-07
-3.06531e-07
-8.43702e-07
-2.38979e-06
-6.56662e-06
-1.0231e-05
1.0689e-05
1.55213e-05
1.16907e-05
-6.90757e-05
-4.67445e-05
-1.43217e-05
-3.62615e-06
-3.21541e-07
1.08493e-10
1.37285e-10
-4.06314e-10
9.04848e-09
5.23606e-08
9.80485e-10
3.40105e-11
2.83041e-12
2.45466e-13
-5.38164e-14
-2.68238e-14
-4.79018e-15
4.68222e-15
7.90092e-15
2.40461e-15
-3.87245e-16
-5.80598e-16
-1.74984e-16
-3.77463e-17
-5.2928e-18
4.54861e-19
7.54079e-19
3.96905e-19
1.62327e-19
5.86707e-20
1.96491e-20
6.24946e-21
1.91679e-21
5.72641e-22
1.67623e-22
4.81872e-23
1.62591e-23
2.58043e-08
2.5363e-08
-5.53784e-07
-3.12428e-07
-2.35504e-07
-3.02993e-07
-9.69404e-07
-2.51588e-06
-8.179e-06
4.512e-05
0.000131387
-1.46982e-06
-0.000349819
-0.000346831
-7.96647e-05
0.000366565
0.000865061
0.00103563
0.000878201
0.000552833
0.000250218
7.051e-05
4.98116e-06
3.90545e-08
1.03568e-09
2.29238e-11
-7.10122e-14
-1.59908e-13
-4.7795e-14
6.25925e-14
1.14203e-13
4.41557e-14
5.82835e-15
-7.77467e-15
-2.33667e-15
-2.29418e-16
6.30396e-18
1.81836e-17
9.4293e-18
3.78197e-18
1.35253e-18
4.51599e-19
1.43978e-19
4.45043e-20
1.35081e-20
4.07005e-21
1.2271e-21
3.71576e-22
1.12906e-22
4.17455e-23
1.49247e-06
2.02145e-07
-2.01158e-06
1.98009e-05
7.21546e-05
0.000100943
0.000146075
0.000372166
0.000860434
0.00120827
0.000668338
-0.000819539
-0.00184115
-0.000819192
0.0036103
0.0110412
0.017933
0.0204678
0.018631
0.0137764
0.00814039
0.00366222
0.00107049
9.04169e-05
5.70901e-09
1.2024e-10
-2.53804e-13
-2.43911e-13
9.02401e-13
1.29519e-12
5.55573e-13
9.31127e-14
-1.23576e-13
-5.15008e-14
-5.05127e-15
4.995e-16
2.29599e-16
7.8881e-17
2.54275e-17
7.88509e-18
2.37209e-18
6.97407e-19
2.02272e-19
5.86357e-20
1.72632e-20
5.23628e-21
1.64622e-21
5.33478e-22
1.75739e-22
7.17412e-23
7.46865e-06
2.78561e-07
-1.34325e-06
0.000136579
0.000380794
0.000616656
0.00122136
0.00281656
0.00479907
0.00486354
0.00174123
-0.00329351
-0.00542032
0.000802232
0.0193052
0.0462042
0.0703636
0.0796217
0.0735303
0.0560457
0.0346295
0.0166255
0.00548885
0.000728058
2.93708e-08
6.46509e-10
1.62063e-11
1.3001e-11
1.2172e-11
5.59798e-12
1.09759e-12
-1.62536e-12
-8.06563e-13
-1.08489e-13
7.49557e-15
3.50296e-15
6.87819e-16
1.46948e-16
3.5964e-17
8.93935e-18
2.20322e-18
5.39982e-19
1.35103e-19
3.64738e-20
1.12955e-20
4.04091e-21
1.57395e-21
6.23586e-22
2.41178e-22
1.13026e-22
1.86767e-05
-1.6646e-07
3.83879e-05
0.000412264
0.00103629
0.00177057
0.00382645
0.00850069
0.0131014
0.0121722
0.00310829
-0.00870625
-0.0108996
0.00776417
0.0533591
0.116281
0.172404
0.194681
0.181188
0.140089
0.0882731
0.0435241
0.015027
0.00229304
6.55073e-08
1.32832e-09
1.97929e-10
9.80682e-11
4.5652e-11
1.06423e-11
-2.08014e-11
-1.13293e-11
-1.94832e-12
7.68964e-14
5.80844e-14
1.18197e-14
7.11237e-16
6.30614e-17
6.25378e-18
-1.08281e-18
-1.00423e-18
-4.33966e-19
-1.43525e-19
-3.72598e-20
-6.02721e-21
8.17239e-22
1.33481e-21
7.98277e-22
3.70843e-22
1.92784e-22
3.33148e-05
1.09903e-05
0.000118951
0.000867912
0.00207528
0.00366322
0.00821527
0.0178455
0.0263195
0.0229191
0.0041697
-0.0170715
-0.0171608
0.0220324
0.108409
0.224205
0.327578
0.370186
0.346751
0.270853
0.172929
0.0867143
0.0307413
0.00507141
8.58726e-08
1.54429e-09
6.10041e-10
3.14352e-10
8.72633e-11
-2.29287e-10
-1.52607e-10
-3.09867e-11
-1.41642e-13
7.41374e-13
2.16238e-13
1.60382e-14
-8.08843e-16
-2.72235e-16
-8.06087e-17
-2.42517e-17
-7.19848e-18
-2.04937e-18
-5.41272e-19
-1.24681e-19
-2.07457e-20
3.9456e-22
2.52686e-21
1.56804e-21
7.22942e-22
3.68789e-22
5.23766e-05
2.28607e-05
0.000230295
0.00144622
0.00336608
0.00604609
0.0137966
0.0295869
0.0424406
0.0351726
0.0040021
-0.0271652
-0.0231925
0.0427327
0.178418
0.35707
0.517485
0.586437
0.552763
0.435525
0.280971
0.142673
0.0515326
0.00896276
7.67089e-07
2.23797e-09
1.18532e-09
5.93881e-10
-2.31557e-09
-1.91477e-09
-4.53405e-10
-2.61529e-11
8.40527e-12
2.93753e-12
2.73133e-13
-1.09331e-14
-3.42679e-15
-6.0461e-16
-1.48358e-16
-4.10792e-17
-1.1176e-17
-2.84909e-18
-6.37849e-19
-1.02919e-19
3.15717e-21
1.32866e-20
8.19317e-21
3.80366e-21
1.54334e-21
7.22741e-22
6.94741e-05
3.60137e-05
0.000340067
0.00199408
0.00457036
0.00824053
0.0189217
0.0403182
0.0567895
0.0451672
0.00220414
-0.0372082
-0.0273555
0.064996
0.246874
0.484295
0.699806
0.796753
0.755831
0.600142
0.390519
0.200243
0.0733197
0.0132228
1.28153e-05
2.54354e-08
2.5706e-09
-3.23136e-08
-2.57472e-08
-6.55398e-09
-4.809e-10
8.44613e-11
3.51855e-11
3.95848e-12
-1.09624e-13
-4.35499e-14
-5.94653e-15
-3.88552e-16
-9.38376e-17
-2.46705e-17
-5.46727e-18
-7.53738e-19
1.43159e-19
1.87113e-19
1.09347e-19
5.13856e-20
2.15391e-20
8.35818e-21
3.0557e-21
1.32254e-21
7.90089e-05
4.20977e-05
0.000398065
0.00230491
0.00524473
0.00937343
0.0214764
0.045705
0.0637466
0.0491662
-0.000985977
-0.0444219
-0.0294014
0.0801168
0.291187
0.567176
0.821781
0.941776
0.899219
0.718808
0.470946
0.243197
0.089857
0.0165701
3.02058e-05
-3.68929e-07
-5.32073e-07
-3.44373e-07
-1.00546e-07
-8.32471e-09
7.24235e-10
3.69327e-10
6.63753e-11
-4.79544e-13
-3.79089e-13
-9.99287e-14
-5.36473e-15
2.00439e-16
8.34159e-17
3.14725e-17
1.23143e-17
4.95674e-18
2.00203e-18
7.97724e-19
3.10599e-19
1.1755e-19
4.31193e-20
1.53089e-20
5.25842e-21
2.1583e-21
7.77004e-05
3.52147e-05
0.000370603
0.00225526
0.0051403
0.00892483
0.020076
0.043009
0.0599416
0.0447203
-0.00459926
-0.046459
-0.029937
0.0810803
0.295019
0.578062
0.844545
0.976532
0.938628
0.754529
0.496691
0.257511
0.0955137
0.0177462
3.54823e-05
-4.28254e-06
-3.11807e-06
-1.22801e-06
-1.86822e-07
4.40866e-09
3.02157e-09
9.21276e-10
6.69074e-11
-2.42681e-12
-1.21656e-12
-1.78806e-13
2.06352e-15
9.84295e-16
3.13554e-16
1.01643e-16
3.45182e-17
1.20812e-17
4.30524e-18
1.54522e-18
5.53213e-19
1.95983e-19
6.82753e-20
2.32845e-20
7.75016e-21
3.08992e-21
6.0217e-05
1.30677e-05
0.000219564
0.00166556
0.00388649
0.00621075
0.0131757
0.0289776
0.0415701
0.0306022
-0.00726818
-0.0415833
-0.0299391
0.0604481
0.243671
0.496549
0.743762
0.874139
0.847284
0.684965
0.452056
0.234378
0.0866189
0.0158612
9.12172e-06
-1.601e-05
-9.20774e-06
-2.60077e-06
-1.53557e-07
1.68428e-08
8.71474e-09
1.5887e-09
-1.43542e-11
-1.25323e-11
-2.96808e-12
-9.86492e-14
7.73269e-15
2.37559e-15
4.79607e-16
1.38455e-16
4.6132e-17
1.61009e-17
5.7224e-18
2.04159e-18
7.2455e-19
2.54112e-19
8.76323e-20
2.9604e-20
9.77081e-21
3.86213e-21
3.27457e-05
-1.07057e-05
1.69983e-05
0.000754294
0.00193755
0.0024026
0.00387896
0.00982704
0.016585
0.0128653
-0.00690608
-0.0296646
-0.0288677
0.0228056
0.147438
0.335559
0.529412
0.638013
0.623388
0.504707
0.331676
0.1702
0.0615774
0.0105484
-4.92591e-05
-4.3261e-05
-1.88595e-05
-3.40877e-06
8.74536e-08
6.36578e-08
1.68229e-08
9.33281e-10
-1.03933e-10
-3.73394e-11
-3.82064e-12
1.09865e-13
3.81551e-14
3.52978e-15
2.27391e-16
8.64673e-17
3.37479e-17
1.31647e-17
5.0918e-18
1.93418e-18
7.18325e-19
2.60258e-19
9.1866e-20
3.15601e-20
1.05456e-20
4.21367e-21
6.40292e-06
-2.04036e-05
-0.00013292
-8.11302e-05
0.00011189
-0.000745671
-0.0034814
-0.00572631
-0.00425029
-0.00105274
-0.00289591
-0.0141893
-0.0260499
-0.0142495
0.046595
0.158689
0.283356
0.35688
0.351074
0.282127
0.181648
0.0899603
0.0303946
0.00410008
-0.000130279
-8.37408e-05
-2.49827e-05
-1.50008e-06
3.71617e-07
1.43402e-07
1.84151e-08
-1.07448e-09
-4.09481e-10
-4.94095e-11
1.14172e-12
4.81664e-13
7.51131e-14
-6.05285e-16
-1.8366e-16
-3.31781e-17
-3.5924e-19
3.58144e-18
2.41717e-18
1.19568e-18
5.17938e-19
2.07205e-19
7.82743e-20
2.82281e-20
9.77762e-21
4.03493e-21
-9.84472e-06
-1.21546e-05
-0.000162726
-0.000526756
-0.000916043
-0.00207006
-0.00606828
-0.0120118
-0.0135973
-0.00683858
0.00201362
-0.000942701
-0.0192982
-0.0346463
-0.0228625
0.0230183
0.0817071
0.117694
0.116311
0.0891827
0.0520067
0.0213757
0.00437766
-0.000842046
-0.000353414
-9.65015e-05
-1.14523e-05
2.8993e-06
1.14552e-06
1.53575e-07
-9.25111e-09
-3.55156e-09
-5.72639e-10
8.6967e-12
4.2951e-12
1.00143e-12
6.59623e-14
-2.67546e-15
-7.00232e-16
-1.49014e-16
-3.35585e-17
-6.55252e-18
-6.93845e-19
2.49112e-19
2.34097e-19
1.23672e-19
5.42378e-20
2.14892e-20
7.94342e-21
3.4673e-21
-1.38804e-05
7.20063e-06
-8.72445e-05
-0.000526611
-0.00101299
-0.00166751
-0.00421372
-0.00935622
-0.0117582
-0.00586463
0.00489767
0.00630771
-0.00902965
-0.0333222
-0.046916
-0.0446483
-0.03442
-0.0277768
-0.02762
-0.0280905
-0.0249563
-0.0177661
-0.00939655
-0.00306615
-0.000553179
-9.2601e-06
1.62337e-05
7.22211e-06
1.22613e-06
-4.44926e-08
-2.09268e-08
-4.83536e-09
-2.43662e-10
3.65116e-11
1.30915e-11
1.2532e-12
-4.73989e-14
-1.20321e-14
-1.0226e-15
-1.52866e-16
-3.84059e-17
-9.35474e-18
-1.96897e-18
-2.59859e-19
4.83796e-20
6.03651e-20
3.38257e-20
1.52196e-20
6.1022e-21
2.85172e-21
-9.51362e-06
1.91556e-05
2.21031e-05
-0.000217232
-0.000535949
-0.000401248
-0.000463387
-0.00205138
-0.00371451
-0.00165566
0.00453752
0.00762679
0.00115553
-0.0152012
-0.0354297
-0.0535708
-0.0682013
-0.0765231
-0.0756851
-0.0648673
-0.0463777
-0.026502
-0.0111837
-0.00307687
-0.000222809
4.67105e-05
2.60498e-05
6.50192e-06
1.48277e-07
-5.51544e-08
-2.62849e-08
-4.74553e-09
2.15979e-10
9.7054e-11
1.33362e-11
-5.15807e-13
-1.48773e-13
-1.19151e-14
9.7336e-17
1.47984e-17
-4.89809e-19
-9.64623e-19
-2.50084e-19
3.7218e-20
7.86327e-20
5.43382e-20
2.84223e-20
1.28336e-20
5.25356e-21
2.53061e-21
-3.0079e-06
1.22907e-05
8.07379e-05
8.47109e-05
-9.62446e-08
0.000400756
0.00177522
0.00298718
0.00247314
0.000977324
0.00148483
0.0046541
0.0068647
0.00291398
-0.0101868
-0.0304484
-0.0504058
-0.06102
-0.0594699
-0.0480858
-0.0315971
-0.0162434
-0.00609768
-0.00120087
7.47427e-05
4.52568e-05
1.34283e-05
1.19997e-06
-2.68611e-07
-1.13816e-07
-1.90669e-08
1.75329e-09
5.76561e-10
6.56122e-11
-4.32434e-12
-1.25696e-12
-1.17259e-13
2.36556e-15
7.0251e-16
1.7055e-16
4.32598e-17
1.11239e-17
2.9442e-18
8.43275e-19
2.73077e-19
9.91386e-20
3.82646e-20
1.48972e-20
5.67098e-21
2.62828e-21
-1.94896e-07
-5.80751e-06
6.14796e-05
0.000196759
0.000181679
0.000343897
0.00153974
0.00330571
0.00335196
0.000920871
-0.00123495
0.000855332
0.00668532
0.00975953
0.00579225
-0.00430072
-0.0141861
-0.017967
-0.0157822
-0.0103018
-0.00473069
-0.0012061
0.000260674
0.000445912
0.000103118
1.22956e-06
-4.12099e-06
-2.03649e-06
-5.07829e-07
-4.7912e-08
1.38217e-08
4.80814e-09
4.41245e-10
-2.92649e-11
-9.09441e-12
-9.25315e-13
1.59071e-14
6.59487e-15
1.414e-15
2.73876e-16
6.7821e-17
1.81025e-17
5.01381e-18
1.45572e-18
4.50994e-19
1.49716e-19
5.23718e-20
1.87778e-20
6.72989e-21
2.97228e-21
-8.05691e-07
-1.90835e-05
9.6529e-06
0.000122194
6.68423e-05
-0.000220961
-0.000104433
0.000650223
0.000792479
-0.00060285
-0.00200075
-0.00101714
0.00244827
0.00570945
0.00703547
0.00819591
0.0116105
0.0159408
0.018137
0.016987
0.0127442
0.00743697
0.0032195
0.000829246
4.00707e-05
-2.49499e-05
-1.42859e-05
-3.75566e-06
-2.08315e-07
5.98522e-08
2.51459e-08
3.08483e-09
-1.82274e-10
-7.0807e-11
-9.77269e-12
7.81038e-14
8.43831e-14
2.34805e-14
1.9828e-15
1.5152e-16
4.25276e-17
1.2747e-17
3.97516e-18
1.29965e-18
4.45047e-19
1.5799e-19
5.7145e-20
2.06818e-20
7.38357e-21
3.22115e-21
-2.92816e-06
-1.85754e-05
-1.93065e-05
5.20513e-06
-0.000122333
-0.000564316
-0.00112307
-0.00145933
-0.00156144
-0.00142282
-0.000983847
-0.000714338
-0.00126085
-0.0018099
0.000492671
0.00793689
0.0181866
0.0263936
0.0275074
0.023065
0.0152418
0.00771945
0.00267782
0.000429682
-6.83067e-05
-4.42953e-05
-1.55059e-05
-2.12373e-06
2.01982e-07
1.00959e-07
2.05131e-08
-4.18699e-10
-3.72978e-10
-9.9718e-11
-3.9632e-12
8.0915e-13
2.70373e-13
2.50494e-14
-5.48478e-16
-1.3465e-16
-2.67738e-17
-4.10005e-18
-5.52688e-20
3.52442e-19
2.27751e-19
1.09624e-19
4.67304e-20
1.8504e-20
6.93338e-21
3.10868e-21
-3.49529e-06
-7.912e-06
-1.28908e-05
-4.37412e-05
-0.000176023
-0.000462643
-0.000925151
-0.00149466
-0.00174373
-0.0010445
0.00030588
0.00040231
-0.00196183
-0.00488571
-0.00420762
0.00199932
0.0112241
0.0176012
0.0178543
0.0138703
0.00809055
0.00330031
0.000674751
-0.000147772
-8.53794e-05
-3.19909e-05
-6.50834e-06
4.67968e-07
2.39824e-07
6.47469e-08
2.72455e-09
-1.75545e-09
-7.09826e-10
-7.90278e-11
7.4677e-12
2.43308e-12
2.10463e-13
-9.18193e-15
-2.0053e-15
-3.10351e-16
-6.89987e-17
-1.61516e-17
-3.49915e-18
-6.07717e-19
-3.40136e-20
3.91746e-20
2.78036e-20
1.33722e-20
5.51609e-21
2.62386e-21
-2.14852e-06
-3.58439e-07
6.30425e-06
-2.29346e-05
-0.000104005
-0.000155886
-0.000188724
-0.000371764
-0.000598019
-0.000298954
0.00060561
0.000880023
-0.000543181
-0.0029001
-0.00376084
-0.00210466
0.000920669
0.00275575
0.00258029
0.00128928
-3.39459e-05
-0.000676934
-0.000619355
-0.000268593
-6.93882e-05
-5.26399e-06
4.1943e-06
1.47391e-06
1.59841e-07
-1.40943e-08
-1.04527e-08
-4.12725e-09
-5.84307e-10
6.28634e-11
2.09787e-11
1.84673e-12
-9.54318e-14
-2.41527e-14
-1.75637e-15
-1.6562e-16
-5.03397e-17
-1.42876e-17
-3.70607e-18
-8.41872e-19
-1.43526e-19
-2.71669e-21
1.31098e-20
8.44644e-21
3.90836e-21
1.98993e-21
-8.14404e-07
5.37424e-07
1.05848e-05
9.95021e-06
-1.2282e-05
1.04098e-05
0.000158849
0.00029192
0.000235042
6.68156e-05
0.000117523
0.000445347
0.000696355
0.000411116
-0.000645471
-0.00227781
-0.00407152
-0.00531539
-0.00544589
-0.00464897
-0.00321374
-0.0017343
-0.000652456
-0.00015513
-7.70188e-06
1.46436e-05
7.27782e-06
1.45134e-06
-3.68127e-08
-3.77842e-08
-1.6809e-08
-2.83179e-09
3.48683e-10
1.3382e-10
1.40518e-11
-8.13223e-13
-2.25398e-13
-1.51768e-14
2.1295e-16
3.53146e-17
3.51329e-19
-2.29568e-18
-1.06605e-18
-3.14637e-19
-5.72405e-20
3.79919e-21
9.8828e-21
6.1064e-21
2.84905e-21
1.47448e-21
1.51306e-07
-1.45454e-06
1.2171e-06
1.56032e-05
1.95182e-05
8.11209e-06
5.06119e-05
0.000186888
0.000234832
1.57431e-05
-0.000307249
-0.000196294
0.000632533
0.00147874
0.001246
-0.000501887
-0.00299084
-0.00462033
-0.004624
-0.00352549
-0.00200086
-0.000769388
-0.000155526
3.39116e-05
3.45947e-05
1.65802e-05
3.64727e-06
-1.8665e-07
-1.05998e-07
-4.17023e-08
-8.13047e-09
1.23725e-09
5.56628e-10
7.65343e-11
-5.74767e-12
-1.69251e-12
-1.214e-13
3.86227e-15
8.47396e-16
1.62461e-16
3.61495e-17
8.05047e-18
1.76964e-18
4.10161e-19
1.1316e-19
3.93183e-20
1.57169e-20
6.43857e-21
2.54885e-21
1.21002e-21
4.19018e-07
-1.51097e-06
-5.17664e-06
8.78276e-07
9.89927e-06
-1.81242e-05
-8.56441e-05
-9.82982e-05
-2.59934e-05
-2.79151e-05
-0.00022376
-0.000346303
-6.76636e-05
0.0005618
0.000968617
0.000759712
0.000200227
-0.000195699
-0.000178791
6.12536e-05
0.000277743
0.000299942
0.000198631
8.75849e-05
2.35813e-05
2.06092e-06
-1.99779e-06
-8.44888e-07
-1.48416e-07
-1.75717e-10
5.33304e-09
2.14392e-09
3.01875e-10
-3.01196e-11
-9.59743e-12
-7.97872e-13
3.53483e-14
8.34433e-15
8.27698e-16
1.59596e-16
4.27427e-17
1.14664e-17
3.05633e-18
8.27383e-19
2.34488e-19
7.11779e-20
2.3129e-20
7.8605e-21
2.71054e-21
1.15206e-21
1.20083e-07
5.52302e-07
-2.95812e-06
-7.41583e-06
7.32708e-08
2.57174e-06
-4.05948e-05
-9.87432e-05
-7.82145e-05
2.57207e-05
6.54333e-05
-9.2507e-05
-0.000342397
-0.000394025
-5.4405e-05
0.000662936
0.00143323
0.00190189
0.00189574
0.00154109
0.000990743
0.000492918
0.000177876
3.00813e-05
-8.51677e-06
-5.84198e-06
-2.21581e-06
-4.22485e-07
3.67624e-08
1.8242e-08
4.28151e-09
3.51892e-10
-1.14711e-10
-3.57912e-11
-3.22353e-12
2.12957e-13
5.69463e-14
4.39946e-15
1.07814e-16
5.84288e-17
2.35092e-17
8.03552e-18
2.56429e-18
8.00263e-19
2.51083e-19
8.03464e-20
2.62634e-20
8.69614e-21
2.87971e-21
1.16209e-21
-2.368e-08
1.40879e-06
1.60387e-06
-3.01044e-06
-7.09071e-07
2.45779e-05
5.11065e-05
4.01852e-05
1.68256e-05
5.67752e-05
0.000146646
0.000129585
-0.000103571
-0.000403152
-0.000419648
-3.01201e-05
0.000574102
0.000974965
0.000972743
0.000704131
0.000360405
0.000107178
-5.73792e-06
-2.53199e-05
-1.25334e-05
-3.32088e-06
-3.10435e-07
2.36028e-07
9.70906e-08
1.34967e-08
-2.26648e-09
-8.93345e-10
-1.07702e-10
7.89181e-12
2.11924e-12
2.16338e-13
5.88057e-16
-7.22939e-16
-1.08244e-16
-7.08789e-18
4.2751e-18
2.96527e-18
1.33043e-18
5.19535e-19
1.91162e-19
6.83084e-20
2.39456e-20
8.23959e-21
2.77393e-21
1.12104e-21
-6.27742e-08
2.77476e-07
2.16798e-06
2.44904e-06
6.21741e-07
1.09259e-05
4.37701e-05
6.59711e-05
4.43097e-05
7.10916e-06
2.59517e-05
0.000101555
0.000124421
2.71182e-05
-0.000151531
-0.000309393
-0.000397069
-0.000427209
-0.000416528
-0.000363788
-0.000270378
-0.000166438
-7.80699e-05
-2.50912e-05
-3.56817e-06
1.04188e-06
6.77679e-07
2.55675e-07
4.39314e-08
-7.32149e-09
-3.30664e-09
-5.42189e-10
5.35265e-11
1.92759e-11
2.08547e-12
-9.66771e-14
-2.61909e-14
-1.74273e-15
-8.44815e-17
-1.81756e-17
-2.27126e-18
4.28264e-19
4.93118e-19
2.67728e-19
1.19773e-19
4.87724e-20
1.86823e-20
6.81945e-21
2.38517e-21
9.90232e-22
-6.36221e-08
-6.71132e-07
-8.78824e-08
2.34544e-06
-7.83163e-07
-1.15804e-05
-1.58655e-05
-4.57852e-06
-3.6239e-06
-3.31373e-05
-5.96876e-05
-2.15676e-05
8.97785e-05
0.000172222
0.000112139
-0.000109359
-0.000388707
-0.000550318
-0.000543635
-0.000421451
-0.000254364
-0.000111565
-3.08423e-05
-1.33311e-06
3.83283e-06
1.99703e-06
4.99983e-07
3.02375e-08
-2.61659e-08
-1.01795e-08
-1.35048e-09
2.43075e-10
8.64785e-11
8.81921e-12
-6.98428e-13
-2.01012e-13
-1.53315e-14
2.333e-16
5.54699e-17
1.18624e-17
2.78921e-18
8.83837e-19
3.72197e-19
1.72368e-19
7.81756e-20
3.354e-20
1.35484e-20
5.16871e-21
1.87047e-21
7.99892e-22
-4.778e-09
-3.58176e-07
-9.7378e-07
-5.51335e-07
-1.06881e-06
-1.04154e-05
-2.69816e-05
-3.42724e-05
-2.46237e-05
-1.63954e-05
-3.10327e-05
-4.9904e-05
-2.98423e-05
3.59502e-05
9.65269e-05
9.68148e-05
5.38159e-05
1.03816e-05
4.60784e-06
1.91013e-05
3.28371e-05
3.26693e-05
2.15756e-05
9.95517e-06
2.94606e-06
3.98073e-07
-2.10984e-07
-1.12176e-07
-2.59709e-08
-1.51173e-09
6.91322e-10
2.51646e-10
3.01373e-11
-3.22997e-12
-1.05297e-12
-9.93193e-14
3.54652e-15
7.98171e-16
1.58702e-16
3.64348e-17
8.59197e-18
2.08922e-18
5.57689e-19
1.74351e-19
6.33358e-20
2.48268e-20
9.79887e-21
3.75357e-21
1.37611e-21
5.98943e-22
3.30578e-08
2.24889e-07
-2.38644e-07
-1.15049e-06
1.53016e-07
3.02784e-06
9.24179e-07
-5.48451e-06
-3.03396e-06
1.16146e-05
1.78392e-05
-5.0776e-06
-4.54864e-05
-5.88709e-05
-1.72796e-05
7.34682e-05
0.000167666
0.000220636
0.000216184
0.000171729
0.000109696
5.48012e-05
2.01364e-05
3.54825e-06
-9.26443e-07
-6.32574e-07
-2.42347e-07
-5.28192e-08
4.27783e-09
2.42164e-09
4.80683e-10
-2.08092e-11
-1.30294e-11
-3.30527e-12
-2.25291e-13
2.56877e-14
5.72496e-15
6.63888e-16
1.35968e-16
3.43536e-17
8.64455e-18
2.16174e-18
5.58021e-19
1.57741e-19
5.07942e-20
1.82482e-20
6.8919e-21
2.59943e-21
9.51933e-22
4.17135e-22
1.61943e-08
1.95934e-07
3.56354e-07
-7.0711e-09
6.96894e-07
5.49588e-06
1.21867e-05
1.39793e-05
1.09168e-05
1.08151e-05
1.68369e-05
1.85044e-05
2.70243e-06
-2.5391e-05
-3.89439e-05
-2.28313e-05
1.31678e-05
4.10695e-05
4.35265e-05
3.01886e-05
1.23686e-05
3.13836e-07
-3.79867e-06
-2.88243e-06
-1.09213e-06
-1.75235e-07
5.47668e-08
3.37094e-08
8.85287e-09
9.08663e-10
-2.38106e-10
-9.5872e-11
-1.34049e-11
1.21813e-12
4.00781e-13
3.34013e-14
-4.80924e-16
-3.28769e-17
1.5221e-17
8.56023e-18
3.01213e-18
9.10505e-19
2.65662e-19
8.17839e-20
2.7994e-20
1.05083e-20
4.09791e-21
1.58327e-21
5.90677e-22
2.63357e-22
-1.86242e-08
-5.90922e-08
1.70454e-07
4.79739e-07
7.03872e-08
-3.63722e-07
1.63923e-06
4.34458e-06
2.59047e-06
-3.40615e-06
-4.32789e-06
5.36088e-06
1.7942e-05
1.76511e-05
-1.34995e-06
-3.23787e-05
-6.12695e-05
-7.54143e-05
-7.30203e-05
-5.90268e-05
-3.93777e-05
-2.10732e-05
-8.42674e-06
-2.04198e-06
-1.06704e-08
1.92157e-07
1.03257e-07
2.49207e-08
2.93144e-10
-6.09258e-10
-2.43392e-10
-3.6363e-11
4.9736e-12
1.63548e-12
1.8659e-13
-9.73808e-15
-2.15499e-15
-3.00097e-16
-5.37987e-17
-9.68747e-18
-1.64598e-18
-2.65675e-19
-3.68328e-20
3.66976e-24
4.16266e-21
2.9977e-21
1.59213e-21
7.25891e-22
2.97873e-22
1.41972e-22
-3.63525e-09
-8.13352e-08
-1.14316e-07
6.14707e-08
-2.99861e-07
-2.22631e-06
-4.61144e-06
-4.92607e-06
-3.98268e-06
-4.5023e-06
-6.66157e-06
-5.86915e-06
1.50515e-06
1.12682e-05
1.3373e-05
3.99341e-06
-1.20221e-05
-2.37685e-05
-2.46728e-05
-1.87825e-05
-1.02556e-05
-3.51055e-06
-1.90828e-07
6.26526e-07
2.9969e-07
9.02858e-08
1.37191e-08
-5.84573e-09
-2.18626e-09
-3.53401e-10
2.83943e-11
1.87663e-11
4.94726e-12
1.60474e-13
-6.76508e-14
-1.65279e-14
-1.1096e-15
-8.27295e-17
-1.60749e-17
-3.27813e-18
-7.88896e-19
-2.36985e-19
-7.80597e-20
-2.42803e-20
-6.38699e-21
-1.16238e-21
2.90384e-23
1.59273e-22
9.93369e-23
5.8741e-23
2.71314e-09
1.02715e-08
-7.41041e-08
-1.71168e-07
-6.95321e-08
-9.23885e-08
-9.71768e-07
-1.90056e-06
-1.23885e-06
7.29426e-07
8.22069e-07
-2.48434e-06
-6.04898e-06
-4.91021e-06
1.92966e-06
1.16357e-05
1.99301e-05
2.35242e-05
2.25233e-05
1.83307e-05
1.24845e-05
6.92837e-06
2.96669e-06
8.46989e-07
9.26036e-08
-5.96241e-08
-3.45482e-08
-8.77499e-09
-9.23078e-10
2.3742e-10
1.00579e-10
1.75452e-11
-1.62893e-12
-6.02494e-13
-8.06172e-14
3.48396e-15
8.48984e-16
1.71776e-16
4.06313e-17
9.71376e-18
2.17024e-18
4.20271e-19
5.95701e-20
9.68801e-22
-3.25881e-21
-1.47705e-21
-4.19642e-22
-7.41553e-23
2.65481e-24
1.39083e-23
2.45008e-09
2.93994e-08
3.46507e-08
-3.2235e-08
1.10099e-07
7.65242e-07
1.50528e-06
1.54435e-06
1.30692e-06
1.61334e-06
2.24696e-06
1.72563e-06
-8.26352e-07
-3.86161e-06
-4.10666e-06
-5.82833e-07
4.93479e-06
8.88809e-06
9.15625e-06
7.11969e-06
4.17614e-06
1.74271e-06
3.89786e-07
-5.89515e-08
-9.54911e-08
-4.47042e-08
-9.85723e-09
1.36186e-09
7.96715e-10
2.10619e-10
6.72379e-12
-6.82606e-12
-2.01314e-12
-8.98106e-14
2.09257e-14
4.78937e-15
6.4177e-16
1.56983e-16
4.60856e-17
1.31123e-17
3.46449e-18
8.31878e-19
1.76903e-19
3.1533e-20
3.9465e-21
-1.71113e-23
-2.11083e-22
-8.18426e-23
-1.9862e-23
-2.02097e-24
-1.04618e-09
-2.45375e-09
2.22561e-08
5.1934e-08
2.44347e-08
5.22626e-08
3.28252e-07
6.05227e-07
4.0264e-07
-1.70254e-07
-1.8048e-07
7.78428e-07
1.7512e-06
1.33295e-06
-7.15916e-07
-3.51999e-06
-5.80831e-06
-6.72183e-06
-6.35835e-06
-5.14568e-06
-3.51771e-06
-1.98061e-06
-8.71352e-07
-2.63267e-07
-2.78905e-08
2.13527e-08
1.21554e-08
3.02681e-09
2.79462e-10
-9.3002e-11
-3.62859e-11
-5.76505e-12
5.47566e-13
1.90731e-13
2.2611e-14
-3.49842e-18
1.44524e-16
8.53122e-17
3.42344e-17
1.13754e-17
3.32012e-18
8.70406e-19
2.0608e-19
4.36785e-20
8.03716e-21
1.17576e-21
9.12203e-23
-1.83165e-23
-1.08535e-23
-3.34528e-24
-5.65303e-10
-7.91168e-09
-9.02774e-09
6.7669e-09
-3.13898e-08
-2.03867e-07
-3.96023e-07
-4.10063e-07
-3.53196e-07
-4.31827e-07
-5.86035e-07
-4.31935e-07
2.3044e-07
9.74624e-07
1.00369e-06
1.08963e-07
-1.26022e-06
-2.24778e-06
-2.34407e-06
-1.85978e-06
-1.11958e-06
-4.85592e-07
-1.16393e-07
1.71828e-08
2.22786e-08
9.33683e-09
1.56775e-09
-5.91788e-10
-2.78608e-10
-5.44228e-11
3.02548e-12
1.55883e-12
2.83594e-13
-5.1722e-15
-2.19776e-15
-4.72798e-17
1.19272e-16
6.52662e-17
2.50684e-17
8.18884e-18
2.39444e-18
6.38825e-19
1.56578e-19
3.52079e-20
7.18627e-21
1.29695e-21
1.93883e-22
1.90678e-23
-8.52009e-25
-1.23531e-24
1.55313e-10
7.27057e-10
-4.11292e-09
-1.04719e-08
-4.75445e-09
-8.62909e-09
-6.44167e-08
-1.18522e-07
-7.64698e-08
3.93658e-08
3.90695e-08
-1.59251e-07
-3.62086e-07
-2.83376e-07
1.41411e-07
7.35733e-07