/*--------------------------------*- C++ -*----------------------------------*\
| =========                 |                                                 |
| \\      /  F ield         | OpenFOAM: The Open Source CFD Toolbox           |
|  \\    /   O peration     | Version:  v2006                                 |
|   \\  /    A nd           | Website:  www.openfoam.com                      |
|    \\/     M anipulation  |                                                 |
\*---------------------------------------------------------------------------*/
FoamFile
{
    version     2.0;
    format      ascii;
    class       volScalarField;
    location    "0";
    object      f;
}
// * * * * * * * * * * * * * * * * * * * * * * * * * * * * * * * * * * * * * //

dimensions      [0 0 0 0 0 0 0];


internalField   nonuniform List<scalar> 
2500
(
-2.78601e-31
-2.80023e-31
-2.71411e-31
-2.15845e-31
-1.00916e-31
1.84783e-32
7.5702e-32
7.72731e-32
1.08722e-31
2.48598e-31
4.76103e-31
6.79626e-31
7.57673e-31
6.94516e-31
5.46014e-31
3.81045e-31
2.42589e-31
1.43719e-31
8.01945e-32
4.23717e-32
2.12167e-32
1.00573e-32
4.50804e-33
1.90999e-33
7.65378e-34
2.90496e-34
1.04636e-34
3.58504e-35
1.17122e-35
3.65742e-36
1.09429e-36
3.1441e-37
8.69326e-38
2.31764e-38
5.96856e-39
1.48721e-39
3.59095e-40
8.41339e-41
1.9151e-41
4.23987e-42
9.13873e-43
1.91946e-43
3.9317e-44
7.85958e-45
1.53433e-45
2.92675e-46
5.458e-47
9.95559e-48
1.77696e-48
3.10487e-49
-1.66057e-30
-1.67927e-30
-1.652e-30
-1.31512e-30
-5.54505e-31
2.56697e-31
6.21983e-31
5.3139e-31
5.44984e-31
1.23475e-30
2.53789e-30
3.76478e-30
4.25413e-30
3.88992e-30
3.01923e-30
2.06801e-30
1.29037e-30
7.51311e-31
4.14357e-31
2.17799e-31
1.091e-31
5.19311e-32
2.34203e-32
9.9905e-33
4.03019e-33
1.53905e-33
5.57394e-34
1.91892e-34
6.29542e-35
1.97322e-35
5.92362e-36
1.70722e-36
4.73412e-37
1.26568e-37
3.26855e-38
8.16712e-39
1.97757e-39
4.6467e-40
1.06082e-40
2.35565e-41
5.093e-42
1.07303e-42
2.2048e-43
4.42125e-44
8.65784e-45
1.65656e-45
3.09853e-46
5.66834e-47
1.01459e-47
1.7776e-48
-9.5754e-30
-9.75038e-30
-9.75817e-30
-7.77652e-30
-2.85053e-30
2.56771e-30
4.93276e-30
3.84513e-30
2.86558e-30
5.99021e-30
1.326e-29
2.05027e-29
2.34886e-29
2.13926e-29
1.63405e-29
1.09315e-29
6.64466e-30
3.77974e-30
2.05153e-30
1.07089e-30
5.36921e-31
2.57145e-31
1.16982e-31
5.0371e-32
2.05025e-32
7.89272e-33
2.87861e-33
9.97012e-34
3.28799e-34
1.03526e-34
3.12043e-35
9.02627e-36
2.51157e-36
6.73678e-37
1.74531e-37
4.37492e-38
1.06273e-38
2.50522e-39
5.73821e-40
1.27848e-40
2.77346e-41
5.86324e-42
1.20884e-42
2.43226e-43
4.77881e-44
9.17348e-45
1.72132e-45
3.15861e-46
5.6704e-47
9.96273e-48
-5.3333e-29
-5.47327e-29
-5.58929e-29
-4.4637e-29
-1.34903e-29
2.19849e-29
3.74226e-29
2.82118e-29
1.63031e-29
2.8589e-29
6.7984e-29
1.09826e-28
1.27583e-28
1.15559e-28
8.65635e-29
5.62288e-29
3.30301e-29
1.82007e-29
9.65963e-30
4.99421e-30
2.50895e-30
1.21298e-30
5.58895e-31
2.43856e-31
1.00478e-31
3.90956e-32
1.43888e-32
5.02181e-33
1.66684e-33
5.27737e-34
1.59838e-34
4.64364e-35
1.29728e-35
3.4929e-36
9.08243e-37
2.28492e-37
5.57052e-38
1.31794e-38
3.02982e-39
6.77543e-40
1.47528e-40
3.13038e-41
6.47775e-42
1.3081e-42
2.57926e-43
4.96835e-44
9.35391e-45
1.72196e-45
3.10079e-46
5.46389e-47
-2.86488e-28
-2.96587e-28
-3.10269e-28
-2.48967e-28
-5.71538e-29
1.69957e-28
2.70779e-28
2.04039e-28
1.00708e-28
1.35539e-28
3.42194e-28
5.78602e-28
6.81707e-28
6.13197e-28
4.48814e-28
2.81105e-28
1.57873e-28
8.32013e-29
4.27281e-29
2.17876e-29
1.09908e-29
5.39557e-30
2.535e-30
1.1276e-30
4.72623e-31
1.86562e-31
6.9481e-32
2.4486e-32
8.19281e-33
2.61142e-33
7.9552e-34
2.323e-34
6.51994e-35
1.76315e-35
4.60387e-36
1.16297e-36
2.8468e-37
6.76261e-38
1.56097e-38
3.5049e-39
7.66248e-40
1.63243e-40
3.3914e-41
6.8751e-42
1.36073e-42
2.63072e-43
4.97023e-44
9.18033e-45
1.65838e-45
2.93096e-46
-1.48235e-27
-1.54944e-27
-1.66902e-27
-1.35234e-27
-2.04666e-28
1.21396e-27
1.86773e-27
1.43051e-27
6.56867e-28
6.44923e-28
1.68931e-27
2.99488e-27
3.58088e-27
3.19537e-27
2.27678e-27
1.36366e-27
7.21384e-28
3.5622e-28
1.737e-28
8.6664e-29
4.41111e-29
2.22452e-29
1.0789e-29
4.94247e-30
2.12332e-30
8.54905e-31
3.23414e-31
1.15398e-31
3.89978e-32
1.25324e-32
3.84412e-33
1.12926e-33
3.18658e-34
8.66035e-35
2.2721e-35
5.76595e-36
1.41782e-36
3.38319e-37
7.8441e-38
1.76908e-38
3.88459e-39
8.31162e-40
1.73408e-40
3.52986e-41
7.01423e-42
1.36126e-42
2.58123e-43
4.78418e-44
8.67054e-45
1.53708e-45
-7.38571e-27
-7.79888e-27
-8.70573e-27
-7.18074e-27
-5.25809e-28
8.10403e-27
1.22849e-26
9.63907e-27
4.35181e-27
3.1005e-27
8.15069e-27
1.51946e-26
1.84649e-26
1.63385e-26
1.1293e-26
6.40471e-27
3.12322e-27
1.39304e-27
6.19264e-28
2.96747e-28
1.54379e-28
8.21958e-29
4.22181e-29
2.02943e-29
9.04879e-30
3.74657e-30
1.44742e-30
5.24776e-31
1.79558e-31
5.82769e-32
1.80221e-32
5.33125e-33
1.51371e-33
4.13721e-34
1.09122e-34
2.78345e-35
6.87875e-36
1.64952e-36
3.84316e-37
8.70925e-38
1.92146e-38
4.1303e-39
8.65606e-40
1.76969e-40
3.53126e-41
6.88046e-42
1.3096e-42
2.43589e-43
4.42932e-44
7.87638e-45
-3.55027e-26
-3.78551e-26
-4.41144e-26
-3.74799e-26
-1.77024e-28
5.08647e-26
7.70859e-26
6.21756e-26
2.83899e-26
1.50299e-26
3.81503e-26
7.52664e-26
9.32515e-26
8.18563e-26
5.47067e-26
2.90314e-26
1.26196e-26
4.70405e-27
1.68852e-27
7.24708e-28
4.06452e-28
2.50438e-28
1.45707e-28
7.64878e-29
3.62069e-29
1.56182e-29
6.20977e-30
2.29861e-30
7.98759e-31
2.62364e-31
8.19199e-32
2.44294e-32
6.98515e-33
1.92134e-33
5.09788e-34
1.30775e-34
3.2497e-35
7.83484e-36
1.83509e-36
4.18024e-37
9.2694e-38
2.00234e-38
4.21638e-39
8.65955e-40
1.73546e-40
3.39537e-41
6.48764e-42
1.21109e-42
2.2096e-43
3.9414e-44
-1.65795e-25
-1.77988e-25
-2.17996e-25
-1.93657e-25
7.94726e-27
3.00999e-25
4.61564e-25
3.83268e-25
1.78952e-25
7.2456e-26
1.70882e-25
3.61849e-25
4.59725e-25
4.0101e-25
2.5841e-25
1.26421e-25
4.62268e-26
1.14354e-26
1.14195e-27
-2.43859e-28
1.85764e-28
4.41423e-28
3.96229e-28
2.53907e-28
1.3376e-28
6.14731e-29
2.5448e-29
9.67983e-30
3.42933e-30
1.14274e-30
3.6084e-31
1.08603e-31
3.12998e-32
8.67054e-33
2.31568e-33
5.97748e-34
1.49431e-34
3.6238e-35
8.53624e-36
1.95533e-36
4.35922e-37
9.46569e-38
2.00317e-38
4.13366e-39
8.32155e-40
1.63497e-40
3.13632e-41
5.87622e-42
1.07573e-42
1.92479e-43
-7.64925e-25
-8.20092e-25
-1.05756e-24
-9.97924e-25
4.99825e-26
1.68056e-24
2.63704e-24
2.2562e-24
1.0791e-24
3.3853e-25
7.1455e-25
1.67397e-24
2.20309e-24
1.91598e-24
1.18763e-24
5.25294e-25
1.4334e-25
-2.46292e-27
-2.91084e-26
-1.92702e-26
-7.59556e-27
-1.5306e-27
4.38352e-28
6.64511e-28
4.42108e-28
2.2597e-28
9.91934e-29
3.91194e-29
1.41973e-29
4.81285e-30
1.53962e-30
4.6823e-31
1.36138e-31
3.80073e-32
1.02237e-32
2.65692e-33
6.68523e-34
1.63141e-34
3.86641e-35
8.90885e-36
1.99747e-36
4.36106e-37
9.27711e-38
1.92381e-38
3.89076e-39
7.6773e-40
1.47861e-40
2.78054e-41
5.10737e-42
9.16677e-43
-3.60093e-24
-3.79127e-24
-5.08877e-24
-5.15777e-24
6.8295e-26
8.84423e-24
1.43701e-23
1.26798e-23
6.19574e-24
1.47438e-24
2.65172e-24
7.35894e-24
1.02089e-23
8.90132e-24
5.29718e-24
2.06099e-24
2.92409e-25
-2.8324e-25
-2.96889e-25
-1.72545e-25
-7.34242e-26
-2.31786e-26
-4.28788e-27
7.3008e-28
1.21432e-27
7.6229e-28
3.65896e-28
1.51482e-28
5.66486e-29
1.95967e-29
6.36226e-30
1.95738e-30
5.74604e-31
1.61776e-31
4.38528e-32
1.14792e-32
2.90841e-33
7.145e-34
1.70431e-34
3.9515e-35
8.91271e-36
1.95699e-36
4.18546e-37
8.72338e-38
1.77257e-38
3.51295e-39
6.793e-40
1.28214e-40
2.36298e-41
4.254e-42
-1.80977e-23
-1.82509e-23
-2.46174e-23
-2.67817e-23
-1.82489e-24
4.37575e-23
7.46365e-23
6.80201e-23
3.38079e-23
5.60265e-24
7.5846e-24
3.01408e-23
4.54536e-23
4.00855e-23
2.2868e-23
7.50505e-24
-4.356e-25
-2.53296e-24
-2.06901e-24
-1.14379e-24
-4.94942e-25
-1.71984e-25
-4.53832e-26
-6.27713e-27
2.09794e-27
2.28551e-27
1.26963e-27
5.61523e-28
2.17881e-28
7.716e-29
2.54656e-29
7.9333e-30
2.35291e-30
6.68394e-31
1.82664e-31
4.81825e-32
1.22973e-32
3.04236e-33
7.30636e-34
1.70507e-34
3.86978e-35
8.54713e-36
1.83814e-36
3.8509e-37
7.86245e-38
1.56509e-38
3.03863e-39
5.7563e-40
1.0644e-40
1.92193e-41
-1.00494e-22
-9.50065e-23
-1.2139e-22
-1.3918e-22
-2.52027e-23
2.0261e-22
3.69109e-22
3.4828e-22
1.75313e-22
1.56364e-23
5.41074e-24
1.1094e-22
1.92921e-22
1.74492e-22
9.53394e-23
2.45681e-23
-9.92852e-24
-1.66953e-23
-1.22213e-23
-6.54099e-24
-2.83223e-24
-1.01917e-24
-2.99152e-25
-6.38281e-26
-3.55219e-27
5.66253e-27
4.11657e-27
1.99341e-27
8.08695e-28
2.94025e-28
9.87671e-29
3.11755e-29
9.3452e-30
2.67938e-30
7.38454e-31
1.96344e-31
5.04952e-32
1.25847e-32
3.04374e-33
7.15137e-34
1.63354e-34
3.62995e-35
7.85094e-36
1.65345e-36
3.39227e-37
6.78259e-38
1.32215e-38
2.51377e-39
4.66343e-40
8.4451e-41
-6.11341e-22
-5.40051e-22
-6.15057e-22
-7.17544e-22
-2.19753e-22
8.71614e-22
1.73583e-21
1.70238e-21
8.65285e-22
3.39777e-24
-1.44534e-22
3.3689e-22
7.72747e-22
7.33005e-22
3.83651e-22
6.72072e-23
-7.76592e-23
-9.49927e-23
-6.49833e-23
-3.38556e-23
-1.45546e-23
-5.3009e-24
-1.62664e-24
-3.97605e-25
-5.91863e-26
8.92472e-27
1.23955e-26
6.79719e-27
2.9039e-27
1.08593e-27
3.71424e-28
1.18791e-28
3.59891e-29
1.04148e-29
2.89509e-30
7.76065e-31
2.01163e-31
5.05187e-32
1.23085e-32
2.91231e-33
6.69683e-34
1.49745e-34
3.2576e-35
6.89755e-36
1.42208e-36
2.85602e-37
5.58975e-38
1.0666e-38
1.98508e-39
3.60509e-40
-3.8857e-21
-3.24891e-21
-3.18931e-21
-3.62541e-21
-1.54302e-21
3.44315e-21
7.75002e-21
7.94825e-21
4.07942e-21
-3.6932e-22
-1.54334e-21
5.91962e-22
2.88118e-21
2.97444e-21
1.49515e-21
1.17911e-22
-4.70926e-22
-4.90217e-22
-3.1875e-22
-1.61832e-22
-6.87031e-23
-2.50186e-23
-7.81688e-24
-2.02579e-24
-3.79211e-25
-1.06214e-26
3.46235e-26
2.2423e-26
1.01311e-26
3.8955e-27
1.35538e-27
4.38857e-28
1.343e-28
3.92151e-29
1.09938e-29
2.97137e-30
7.76435e-31
1.96528e-31
4.82486e-32
1.14996e-32
2.66263e-33
5.99232e-34
1.3114e-34
2.79195e-35
5.78491e-36
1.16704e-36
2.29332e-37
4.39167e-38
8.19945e-39
1.49327e-39
-2.44708e-20
-1.96581e-20
-1.66315e-20
-1.77006e-20
-9.33342e-21
1.22425e-20
3.27756e-20
3.54885e-20
1.84816e-20
-3.48165e-21
-1.11665e-20
-2.00817e-21
9.79443e-21
1.17314e-20
5.70639e-21
-1.66971e-22
-2.49552e-21
-2.34386e-21
-1.45913e-21
-7.21094e-22
-3.00866e-22
-1.08635e-22
-3.40437e-23
-9.04083e-24
-1.85362e-24
-1.68411e-25
9.13198e-26
7.25163e-26
3.45462e-26
1.36057e-26
4.80192e-27
1.57104e-27
4.85034e-28
1.42805e-28
4.03631e-29
1.09991e-29
2.89786e-30
7.39491e-31
1.82996e-31
4.39493e-32
1.02496e-32
2.32227e-33
5.11373e-34
1.09487e-34
2.28014e-35
4.62096e-36
9.11747e-37
1.75226e-37
3.2819e-38
5.99344e-39
-1.4683e-19
-1.14359e-19
-8.49401e-20
-8.22213e-20
-4.98689e-20
3.76984e-20
1.30795e-19
1.51807e-19
8.11351e-20
-2.22781e-20
-6.76829e-20
-3.00345e-20
2.92723e-20
4.56521e-20
2.18421e-20
-2.99317e-21
-1.20459e-20
-1.04955e-20
-6.26904e-21
-3.00693e-21
-1.22688e-21
-4.36154e-22
-1.35614e-22
-3.61622e-23
-7.66866e-24
-8.89822e-25
2.43586e-25
2.34374e-25
1.15914e-25
4.63615e-26
1.65127e-26
5.44143e-27
1.69153e-27
5.01618e-28
1.42875e-28
3.92534e-29
1.04297e-29
2.68437e-30
6.69902e-31
1.62197e-31
3.81179e-32
8.69807e-33
1.92788e-33
4.15208e-34
8.6929e-35
1.77002e-35
3.50689e-36
6.76437e-37
1.27096e-37
2.32744e-38
-8.18144e-19
-6.19672e-19
-4.12533e-19
-3.56959e-19
-2.36972e-19
9.14023e-20
4.88791e-19
6.23297e-19
3.48338e-19
-1.12986e-19
-3.63577e-19
-2.17395e-19
7.06909e-20
1.7994e-19
8.69772e-20
-1.89138e-20
-5.40451e-20
-4.42912e-20
-2.5343e-20
-1.17424e-20
-4.65775e-21
-1.61865e-21
-4.94538e-22
-1.30308e-22
-2.75563e-23
-3.32515e-24
7.54495e-25
7.72399e-25
3.84768e-25
1.5419e-25
5.50078e-26
1.81757e-26
5.67395e-27
1.69236e-27
4.8551e-28
1.34496e-28
3.60578e-29
9.36685e-30
2.35921e-30
5.76322e-31
1.36582e-31
3.14087e-32
7.01075e-33
1.51948e-33
3.19914e-34
6.54627e-35
1.30262e-35
2.52206e-36
4.75411e-37
8.73025e-38
-4.15653e-18
-3.06511e-18
-1.85236e-18
-1.41746e-18
-9.95525e-19
1.11538e-19
1.68319e-18
2.45594e-18
1.47291e-18
-4.57209e-19
-1.76384e-18
-1.24383e-18
9.61525e-20
7.41676e-19
3.72912e-19
-9.06214e-20
-2.28547e-19
-1.76916e-19
-9.64407e-20
-4.28622e-20
-1.64055e-20
-5.52696e-21
-1.64156e-21
-4.20253e-22
-8.54711e-23
-9.10165e-24
2.9577e-24
2.62182e-24
1.26474e-24
4.99156e-25
1.76668e-25
5.81972e-26
1.81841e-26
5.44668e-27
1.57335e-27
4.3971e-28
1.19074e-28
3.12617e-29
7.95782e-30
1.96396e-30
4.69907e-31
1.09011e-31
2.45245e-32
5.3526e-33
1.13387e-33
2.33263e-34
4.6631e-35
9.06436e-36
1.71446e-36
3.15746e-37
-1.89569e-17
-1.37392e-17
-7.50888e-18
-5.00855e-18
-3.62038e-18
-4.88803e-19
5.15517e-18
9.20337e-18
6.15331e-18
-1.34553e-18
-7.72224e-18
-6.19666e-18
-2.84016e-19
3.2599e-18
1.72854e-18
-3.78639e-19
-9.24535e-19
-6.71458e-19
-3.44969e-19
-1.45554e-19
-5.32228e-20
-1.71933e-20
-4.89314e-21
-1.18812e-21
-2.19365e-22
-1.33825e-23
1.32795e-23
9.08446e-24
4.0913e-24
1.56099e-24
5.41955e-25
1.76739e-25
5.50571e-26
1.65363e-26
4.81133e-27
1.35869e-27
3.72491e-28
9.90856e-29
2.55549e-29
6.38598e-30
1.54561e-30
3.62289e-31
8.22559e-32
1.80971e-32
3.86027e-33
7.98879e-34
1.60515e-34
3.13364e-35
5.94865e-36
1.0989e-36
-7.64734e-17
-5.70128e-17
-2.70668e-17
-1.51523e-17
-1.08428e-17
-5.55859e-18
1.27821e-17
3.14847e-17
2.55587e-17
-1.66546e-18
-2.95081e-17
-2.81897e-17
-3.39078e-18
1.51429e-17
8.38092e-18
-1.55527e-18
-3.65075e-18
-2.42979e-18
-1.1548e-18
-4.55685e-19
-1.56977e-19
-4.78485e-20
-1.27412e-20
-2.79952e-21
-4.01459e-22
3.53011e-23
5.91281e-23
3.1314e-23
1.2838e-23
4.6474e-24
1.56139e-24
4.99514e-25
1.54389e-25
4.64501e-26
1.36398e-26
3.90723e-27
1.08965e-27
2.95123e-28
7.74656e-29
1.96773e-29
4.83312e-30
1.14761e-30
2.6349e-31
5.85273e-32
1.25861e-32
2.62257e-33
5.29976e-34
1.03963e-34
1.98147e-35
3.67258e-36
-2.67004e-16
-2.4412e-16
-8.47889e-17
-3.61171e-17
-2.3536e-17
-4.91666e-17
1.4573e-17
8.46597e-17
1.11206e-16
9.97107e-18
-8.6525e-17
-1.26827e-16
-2.07421e-17
7.25058e-17
4.08757e-17
-7.34261e-18
-1.4446e-17
-8.38783e-18
-3.57786e-18
-1.29232e-18
-4.109e-19
-1.14954e-19
-2.72132e-20
-4.7008e-21
-9.74222e-23
3.98744e-22
2.42441e-22
1.03932e-22
3.81817e-23
1.28377e-23
4.09258e-24
1.26591e-24
3.85423e-25
1.16205e-25
3.46573e-26
1.01693e-26
2.91594e-27
8.12241e-28
2.18864e-28
5.69069e-29
1.4262e-29
3.44486e-30
8.02336e-31
1.80351e-31
3.91677e-32
8.22798e-33
1.67389e-33
3.30169e-34
6.3213e-35
1.17597e-35
-7.34719e-16
-1.35902e-15
-2.80857e-16
-4.73277e-17
-2.1999e-16
-9.0354e-16
-1.55767e-16
3.91953e-16
6.77431e-16
7.9961e-17
-6.98279e-16
-7.49645e-16
-9.28728e-17
4.51593e-16
2.02028e-16
-4.25058e-17
-5.89268e-17
-2.72868e-17
-9.97027e-18
-3.19969e-18
-9.07966e-19
-2.19003e-19
-3.871e-20
-8.76085e-22
3.37966e-21
2.08231e-21
8.914e-22
3.21268e-22
1.03884e-22
3.12992e-23
9.08464e-24
2.62449e-24
7.74197e-25
2.35218e-25
7.28466e-26
2.25376e-26
6.83355e-27
2.00413e-27
5.64493e-28
1.52262e-28
3.93146e-29
9.72658e-30
2.30936e-30
5.27158e-31
1.15907e-31
2.45912e-32
5.04287e-33
1.0011e-33
1.92663e-34
3.59916e-35
-1.152e-15
-4.92698e-15
-1.33659e-14
-1.16036e-15
-2.99976e-14
-8.80228e-15
-1.7967e-15
3.06672e-14
4.4941e-15
-1.30831e-14
-2.97842e-14
-4.3148e-15
6.64321e-15
6.49318e-15
8.84094e-16
-4.32595e-16
-2.58836e-16
-7.86946e-17
-2.30594e-17
-6.32599e-18
-1.48404e-18
-2.36935e-19
1.4571e-20
3.47327e-20
1.97038e-20
8.2561e-21
2.90345e-21
8.90574e-22
2.42044e-22
5.90111e-23
1.32602e-23
2.96049e-24
7.58526e-25
2.45762e-25
9.22169e-26
3.49423e-26
1.24978e-26
4.14691e-27
1.27806e-27
3.68113e-28
9.97483e-29
2.55808e-29
6.2403e-30
1.45418e-30
3.24856e-31
6.97788e-32
1.44483e-32
2.89015e-33
5.59568e-34
1.05034e-34
7.47839e-14
1.57099e-14
-3.83757e-13
-9.86113e-13
-1.7269e-13
9.9342e-14
1.17315e-12
2.0818e-13
-8.66159e-13
-1.17059e-12
-1.77418e-13
3.27785e-13
2.65931e-13
3.52248e-14
-1.2268e-14
-8.78531e-15
-1.03265e-15
-1.42856e-16
-3.339e-17
-7.4457e-18
-8.45012e-19
3.80145e-19
3.54393e-19
1.85176e-19
7.70955e-20
2.72663e-20
8.24625e-21
2.07681e-21
3.96679e-22
3.47053e-23
-1.35078e-23
-9.1122e-24
-3.31846e-24
-8.84867e-25
-1.66182e-25
-9.79944e-27
9.19327e-27
5.74295e-27
2.30798e-27
7.68213e-28
2.27454e-28
6.18286e-29
1.56999e-29
3.76463e-30
8.58759e-31
1.87357e-31
3.92544e-32
7.92349e-33
1.54484e-33
2.91554e-34
3.08773e-11
4.84234e-12
-1.17253e-12
-5.02944e-12
8.16738e-12
3.37731e-11
7.20726e-12
-3.54716e-11
-3.67645e-11
-6.12021e-12
1.46972e-11
9.78325e-12
1.28714e-12
-5.47717e-13
-3.71977e-13
-4.5932e-14
6.63387e-16
9.33771e-17
7.91318e-18
3.77796e-18
4.7551e-18
3.20569e-18
1.59336e-18
6.68786e-19
2.44882e-19
7.70002e-20
1.96456e-20
3.35514e-21
-1.05761e-22
-4.03819e-22
-2.19901e-22
-8.55509e-23
-2.75515e-23
-7.65877e-24
-1.84852e-24
-3.77239e-25
-5.85273e-26
-3.35253e-27
2.15409e-27
1.22917e-27
4.45838e-28
1.34654e-28
3.64123e-29
9.09422e-30
2.13301e-30
4.74621e-31
1.00876e-31
2.05797e-32
4.04471e-33
7.68032e-34
1.57077e-10
5.48455e-11
6.88811e-11
3.50439e-10
6.94839e-10
1.82894e-10
-9.37333e-10
-9.00597e-10
-1.73159e-10
5.21229e-10
3.14709e-10
4.24767e-11
-2.01595e-11
-1.27105e-11
-1.62589e-12
3.50941e-14
6.94405e-15
4.28299e-16
5.87625e-17
2.4603e-17
2.17118e-17
1.21249e-17
5.2453e-18
1.99319e-18
6.67985e-19
1.84657e-19
3.44986e-20
-9.63121e-22
-4.72867e-21
-2.80724e-21
-1.18992e-21
-4.20567e-22
-1.30325e-22
-3.61447e-23
-9.02999e-24
-2.02136e-24
-3.96089e-25
-6.33635e-26
-6.14564e-27
7.6499e-28
6.73292e-28
2.56014e-28
7.69722e-29
2.04014e-29
4.96531e-30
1.1323e-30
2.44795e-31
5.05527e-32
1.00246e-32
1.91623e-33
1.71498e-10
1.51678e-09
5.96319e-09
1.21198e-08
3.37158e-09
-1.26715e-08
-1.51443e-08
-3.78864e-09
1.36192e-08
8.17811e-09
1.22286e-09
-8.92792e-10
-4.67302e-10
-5.36612e-11
9.76667e-13
2.27156e-13
9.27324e-15
-3.46211e-16
-8.77631e-17
1.78043e-17
7.45862e-17
4.00106e-17
1.51898e-17
5.23923e-18
1.58927e-18
3.52465e-19
1.38164e-20
-3.89687e-20
-2.72921e-20
-1.27625e-20
-4.89811e-21
-1.64247e-21
-4.94621e-22
-1.35585e-22
-3.40216e-23
-7.80744e-24
-1.62335e-24
-2.98136e-25
-4.50947e-26
-4.21112e-27
4.57682e-28
4.00869e-28
1.46774e-28
4.24539e-29
1.08392e-29
2.54535e-30
5.6096e-31
1.17382e-31
2.34954e-32
4.52174e-33
-2.88341e-09
1.01675e-08
2.7893e-08
3.9668e-08
-7.59296e-08
-1.54931e-07
-5.53806e-08
1.97386e-07
1.39284e-07
2.75244e-08
-3.51922e-08
-1.76005e-08
-1.94739e-09
2.07405e-11
5.26173e-12
2.63406e-13
-8.85328e-15
-3.36765e-15
-4.78547e-16
-2.19325e-17
4.06862e-16
1.39601e-16
3.99686e-17
1.20956e-17
3.19144e-18
3.74404e-19
-2.38972e-19
-2.19655e-19
-1.15143e-19
-4.78978e-20
-1.72046e-20
-5.52901e-21
-1.61885e-21
-4.36099e-22
-1.0859e-22
-2.49992e-23
-5.29415e-24
-1.01708e-24
-1.71391e-25
-2.3021e-26
-1.49091e-27
4.50944e-28
2.52626e-28
8.26792e-29
2.23482e-29
5.41677e-30
1.21721e-30
2.57962e-31
5.20845e-32
1.00853e-32
-8.96829e-08
1.35328e-08
4.95499e-08
-1.75921e-07
-1.16752e-06
-4.81026e-07
2.12462e-06
1.23063e-06
3.2764e-07
-1.21636e-06
-5.75082e-07
-6.79733e-08
3.29021e-10
9.03231e-11
5.49119e-12
-8.22575e-14
-7.07029e-14
-1.16356e-14
1.37137e-14
2.19798e-14
4.81659e-15
4.06622e-16
7.43997e-17
2.16166e-17
4.71571e-18
-8.59206e-19
-1.48866e-18
-9.09343e-19
-4.11277e-19
-1.57071e-19
-5.3243e-20
-1.6409e-20
-4.65799e-21
-1.22674e-21
-3.00772e-22
-6.86644e-23
-1.45414e-23
-2.82819e-24
-4.93802e-25
-7.31223e-26
-7.51979e-27
2.03907e-28
4.10615e-28
1.55298e-28
4.43066e-29
1.10311e-29
2.51696e-30
5.38468e-31
1.0939e-31
2.12696e-32
-4.3953e-06
-3.26481e-06
-4.60004e-06
-1.06696e-05
-4.46917e-06
1.03004e-05
1.57726e-05
3.01255e-06
-1.75916e-05
-1.07394e-05
-2.05788e-06
-1.35359e-08
4.66887e-10
9.72405e-11
3.50282e-13
-9.51156e-14
-2.14962e-13
1.7035e-12
1.46191e-12
4.30323e-13
2.19815e-14
-2.29014e-17
1.72417e-17
2.43615e-17
3.68956e-18
-7.47451e-18
-6.33458e-18
-3.20205e-18
-1.29291e-18
-4.55821e-19
-1.4558e-19
-4.28656e-20
-1.17422e-20
-3.00652e-21
-7.20894e-22
-1.61757e-22
-3.3831e-23
-6.53364e-24
-1.14174e-24
-1.72007e-25
-1.91359e-26
-2.11835e-28
7.32034e-28
2.9836e-28
8.70066e-29
2.18579e-29
5.00821e-30
1.07359e-30
2.18305e-31
4.24639e-32
-1.90151e-05
-3.20389e-05
-4.84809e-05
-4.66761e-05
-3.06619e-06
5.5037e-05
4.07847e-05
-0.000125903
-9.45245e-05
-2.50476e-05
-1.97986e-06
8.19435e-10
8.91314e-11
2.44772e-11
2.69445e-11
8.45353e-12
2.11573e-11
1.32288e-11
6.88686e-12
1.46197e-12
1.37152e-14
-4.8174e-16
-8.91809e-17
5.82844e-17
7.76094e-18
-3.34346e-17
-2.30715e-17
-9.97324e-18
-3.57852e-18
-1.15492e-18
-3.44985e-19
-9.64392e-20
-2.53409e-20
-6.26799e-21
-1.45873e-21
-3.18612e-22
-6.49402e-23
-1.22088e-23
-2.06557e-24
-2.95998e-25
-2.88876e-26
1.1943e-27
1.70044e-27
6.21879e-28
1.74254e-28
4.28415e-29
9.68213e-30
2.05587e-30
4.15167e-31
8.03419e-32
-3.08125e-05
-9.05532e-05
-0.000150937
-7.87241e-05
0.00016687
0.000105608
-0.000750652
-0.000755156
-0.000121533
0.00221456
0.00453227
0.00452051
0.00276788
0.000872609
4.66203e-05
1.13926e-09
1.80374e-10
3.89058e-11
1.32298e-11
1.70365e-12
-1.16683e-14
-3.38194e-15
-3.48913e-16
4.27761e-16
9.3236e-17
-1.42895e-16
-7.87043e-17
-2.72889e-17
-8.38815e-18
-2.4298e-18
-6.71435e-19
-1.76903e-19
-4.42854e-20
-1.04933e-20
-2.34312e-21
-4.8998e-22
-9.49219e-23
-1.66752e-23
-2.52757e-24
-2.81856e-25
-2.12342e-27
1.15152e-26
4.72212e-27
1.39698e-27
3.57049e-28
8.33702e-29
1.8234e-29
3.78614e-30
7.52502e-31
1.43934e-31
3.5792e-05
-0.000112376
-0.000237555
0.000922452
0.00102683
-0.00197792
-0.00471263
-0.00207434
0.0132651
0.040837
0.0672407
0.0743797
0.0618074
0.0377258
0.0157331
0.00344725
6.34452e-05
1.80396e-10
2.11601e-11
-2.15174e-13
-7.08458e-14
-8.88397e-15
9.27572e-15
6.94556e-15
6.63526e-16
-1.03259e-15
-2.58833e-16
-5.89267e-17
-1.44459e-17
-3.65063e-18
-9.24472e-19
-2.2852e-19
-5.40347e-20
-1.20423e-20
-2.49432e-21
-4.70554e-22
-7.75496e-23
-9.89788e-24
-4.27451e-25
2.94476e-25
1.43842e-25
4.63434e-26
1.26457e-26
3.12885e-27
7.22557e-28
1.58109e-28
3.30763e-29
6.65344e-30
1.29199e-30
2.42881e-31
0.00133055
0.000667395
0.00136578
0.00493027
0.00312207
-0.00915
-0.0155723
0.0057724
0.0654071
0.154053
0.238754
0.271589
0.24227
0.166812
0.0846472
0.0279725
0.00344725
1.13942e-09
8.45272e-12
-9.54461e-14
-8.24687e-14
2.63389e-13
2.27163e-13
3.50983e-14
-4.59268e-14
-8.78479e-15
-4.32626e-16
-4.25116e-17
-7.34367e-18
-1.55538e-18
-3.78606e-19
-9.05927e-20
-1.89002e-20
-2.9879e-21
-1.6515e-22
1.18489e-22
6.73787e-23
2.46159e-23
7.51765e-24
2.06415e-24
5.26048e-25
1.26593e-25
2.90693e-26
6.41272e-27
1.3653e-27
2.81429e-28
5.6291e-29
1.09431e-29
2.07011e-30
3.81418e-31
0.00498004
0.00413832
0.00681208
0.0136671
0.00597596
-0.0235393
-0.0318482
0.0285763
0.164123
0.342651
0.51093
0.590051
0.548363
0.401949
0.222438
0.0846473
0.0157331
4.6621e-05
2.69421e-11
3.4948e-13
5.49075e-12
5.26151e-12
9.76655e-13
-1.6257e-12
-3.7194e-13
-1.22682e-14
8.84025e-16
2.02009e-16
4.08718e-17
8.38026e-18
1.7285e-18
3.72944e-19
8.69979e-20
2.18509e-20
5.70956e-21
1.49617e-21
3.83952e-22
9.54224e-23
2.28895e-23
5.30245e-24
1.18887e-24
2.58685e-25
5.47655e-26
1.13051e-26
2.27919e-27
4.49278e-28
8.66499e-29
1.63562e-29
3.02199e-30
5.4649e-31
0.00986134
0.00909742
0.0145724
0.0245222
0.00834028
-0.0413158
-0.0481161
0.0626233
0.283313
0.54641
0.788951
0.922103
0.886769
0.682809
0.401949
0.166812
0.0377258
0.000872612
2.44719e-11
9.7232e-11
9.03187e-11
2.07396e-11
-5.36564e-11
-1.27095e-11
-5.47683e-13
3.52228e-14
6.49272e-15
4.51565e-16
7.25034e-17
1.51429e-17
3.26012e-18
7.41804e-19
1.79995e-19
4.56726e-20
1.17383e-20
2.97654e-21
7.33604e-22
1.74653e-22
4.01259e-23
8.91098e-24
1.91818e-24
4.01488e-25
8.19559e-26
1.63584e-26
3.19923e-27
6.13916e-28
1.15689e-28
2.14154e-29
3.89381e-30
6.95163e-31
0.0118395
0.0108408
0.017969
0.0303639
0.00945689
-0.0527039
-0.0591461
0.0857667
0.360027
0.665051
0.9396
1.11261
1.10192
0.886769
0.548363
0.24227
0.0618074
0.00276788
8.90945e-11
4.66961e-10
3.29016e-10
-1.94724e-09
-4.67273e-10
-2.0159e-11
1.28706e-12
2.65912e-13
6.64267e-15
-9.28524e-17
-2.07335e-17
-3.3876e-18
-2.8286e-19
9.6567e-20
7.08348e-20
2.93198e-20
9.80921e-21
2.8855e-21
7.73938e-22
1.9323e-22
4.55299e-23
1.02268e-23
2.20707e-24
4.60573e-25
9.34249e-26
1.84989e-26
3.58732e-27
6.82883e-28
1.2779e-28
2.35241e-29
4.26003e-30
7.58625e-31
0.00697624
0.00539843
0.0112433
0.0252816
0.00993513
-0.0501391
-0.0626655
0.0743754
0.345879
0.645891
0.915565
1.10324
1.11261
0.922103
0.590051
0.271589
0.0743796
0.0045205
8.18919e-10
-1.35303e-08
-6.79679e-08
-1.75993e-08
-8.92762e-10
4.24742e-11
9.78254e-12
3.2775e-13
-4.31441e-15
-7.49556e-16
-1.26808e-16
-2.81833e-17
-6.19438e-18
-1.24302e-18
-2.17119e-19
-2.99454e-20
-1.98099e-21
5.99764e-22
3.39004e-22
1.11481e-22
3.02725e-23
7.38939e-24
1.68068e-24
3.63266e-25
7.55528e-26
1.52503e-26
3.00528e-27
5.80478e-28
1.10153e-28
2.05579e-29
3.7738e-30
6.81058e-31
-0.002048
-0.00412117
-0.00283464
0.00973965
0.00977897
-0.0279989
-0.0555859
0.0165624
0.211335
0.46893
0.7268
0.915565
0.9396
0.788951
0.51093
0.238754
0.0672407
0.00453225
-1.97972e-06
-2.05779e-06
-5.75053e-07
-3.51901e-08
1.22279e-09
3.14689e-10
1.46959e-11
-1.77404e-13
-2.97815e-14
-6.98202e-16
-8.65128e-17
-2.95011e-17
-7.7192e-18
-1.76267e-18
-3.63165e-19
-6.75475e-20
-1.1125e-20
-1.53142e-21
-1.41314e-22
6.23259e-24
7.78347e-24
2.69749e-24
7.24596e-25
1.72991e-25
3.85746e-26
8.23268e-27
1.70456e-27
3.4493e-28
6.8458e-29
1.33394e-29
2.55079e-30
4.78136e-31
-0.0055682
-0.00698718
-0.00955823
-0.00366253
0.00782108
-0.000783425
-0.0344815
-0.0408125
0.0422074
0.230898
0.46893
0.645891
0.665051
0.54641
0.342651
0.154053
0.040837
0.00221455
-2.5047e-05
-1.07391e-05
-1.21632e-06
2.75229e-08
8.17764e-09
5.21193e-10
-6.11974e-12
-1.17049e-12
-1.30812e-14
7.99724e-17
9.98225e-18
-1.65855e-18
-1.34217e-18
-4.55812e-19
-1.1247e-19
-2.21047e-20
-3.42798e-21
-3.53847e-22
7.582e-24
1.67036e-23
5.86047e-24
1.53359e-24
3.51498e-25
7.51714e-26
1.55749e-26
3.20555e-27
6.64415e-28
1.39026e-28
2.91916e-29
6.09092e-30
1.25106e-30
2.51161e-31
-0.00148432
-0.00133014
-0.00421229
-0.00620149
0.00337375
0.0131182
-0.00699509
-0.0510829
-0.0530405
0.0422074
0.211335
0.345879
0.360027
0.283313
0.164123
0.0654071
0.0132651
-0.000121526
-9.45219e-05
-1.75912e-05
3.27618e-07
1.39277e-07
1.36185e-08
-1.73147e-10
-3.67618e-11
-8.66065e-13
4.49377e-15
6.77411e-16
1.11218e-16
2.55665e-17
6.15708e-18
1.47448e-18
3.48914e-19
8.13278e-20
1.8541e-20
4.09649e-21
8.69885e-22
1.76482e-22
3.40896e-23
6.26028e-24
1.09321e-24
1.81899e-25
2.89803e-26
4.46545e-27
6.77923e-28
1.0447e-28
1.69524e-29
2.974e-30
5.62525e-31
1.11476e-31
0.00236972
0.00329966
0.00286189
-0.00174468
-0.00117313
0.00937579
0.00957052
-0.0187242
-0.0510829
-0.0408125
0.0165624
0.0743754
0.0857667
0.0626233
0.0285763
0.00577245
-0.00207432
-0.000755143
-0.0001259
3.01247e-06
1.23057e-06
1.97377e-07
-3.78843e-09
-9.00542e-10
-3.54685e-11
2.08163e-13
3.06647e-14
3.91992e-16
8.46762e-17
3.1493e-17
9.20709e-18
2.45744e-18
6.23839e-19
1.51986e-19
3.5543e-20
7.96374e-21
1.70652e-21
3.49326e-22
6.82711e-23
1.27371e-23
2.26869e-24
3.85875e-25
6.26975e-26
9.73947e-27
1.44911e-27
2.07364e-28
2.87859e-29
3.94105e-30
5.46925e-31
7.97148e-32
0.000873042
0.00123061
0.00240902
0.00126026
-0.00209888
-0.000663503
0.0078668
0.00957051
-0.00699508
-0.0344814
-0.0555859
-0.0626655
-0.0591461
-0.0481161
-0.0318482
-0.0155723
-0.00471263
-0.000750648
4.07838e-05
1.57723e-05
2.12456e-06
-5.53783e-08
-1.51436e-08
-9.37273e-10
7.20677e-12
1.17306e-12
-1.79633e-15
-1.55697e-16
1.45877e-17
1.27882e-17
5.15784e-18
1.68426e-18
4.89174e-19
1.3092e-19
3.28136e-20
7.76075e-21
1.73869e-21
3.69829e-22
7.48089e-23
1.44094e-23
2.64563e-24
4.6336e-25
7.74465e-26
1.23545e-26
1.88067e-27
2.73102e-28
3.78256e-29
5.00043e-30
6.33001e-31
7.74432e-32
-0.00114985
-0.00140802
-0.000813455
0.00071888
-0.000369372
-0.00346997
-0.000663507
0.00937578
0.0131182
-0.000783426
-0.027999
-0.0501391
-0.0527039
-0.0413158
-0.0235393
-0.00915001
-0.00197792
0.000105605
5.50359e-05
1.03002e-05
-4.81017e-07
-1.54926e-07
-1.26709e-08
1.82884e-10
3.37713e-11
9.93166e-14
-8.80202e-15
-9.03411e-16
-4.91564e-17
-5.55615e-18
-4.87767e-19
1.11973e-19
9.15661e-20
3.77539e-20
1.22598e-20
3.44815e-21
8.72972e-22
2.02958e-22
4.38425e-23
8.86396e-24
1.68494e-24
3.0193e-25
5.10545e-26
8.14124e-27
1.22099e-27
1.71239e-28
2.22108e-29
2.60627e-30
2.63077e-31
1.95032e-32
-0.000573644
-0.000713815
-0.000912887
-0.000312335
0.000478251
-0.000369375
-0.00209888
-0.00117312
0.00337374
0.00782107
0.00977899
0.00993516
0.00945691
0.00834027
0.00597594
0.00312205
0.00102682
0.000166868
-3.06668e-06
-4.46918e-06
-1.16751e-06
-7.59273e-08
3.37148e-09
6.94816e-10
8.16683e-12
-1.72686e-13
-2.99964e-14
-2.19948e-16
-2.35355e-17
-1.08425e-17
-3.62023e-18
-9.95453e-19
-2.36941e-19
-4.98564e-20
-9.32892e-21
-1.54154e-21
-2.19304e-22
-2.50766e-23
-1.79167e-24
7.65309e-26
5.19161e-26
8.3791e-27
-8.49219e-29
-5.06989e-28
-2.00971e-28
-5.64552e-29
-1.33628e-29
-2.82804e-30
-5.50662e-31
-1.00279e-31
-0.00022334
-0.000149378
1.65112e-05
-0.000230168
-0.000312335
0.000718874
0.00126026
-0.00174466
-0.0062015
-0.00366255
0.00973966
0.0252817
0.0303639
0.0245222
0.0136671
0.00493024
0.00092244
-7.87265e-05
-4.66772e-05
-1.06698e-05
-1.75924e-07
3.96677e-08
1.21196e-08
3.50431e-10
-5.02939e-12
-9.86099e-13
-1.16012e-15
-4.72979e-17
-3.61045e-17
-1.51481e-17
-5.0074e-18
-1.41718e-18
-3.56893e-19
-8.22049e-20
-1.76962e-20
-3.62417e-21
-7.17192e-22
-1.39082e-22
-2.67558e-23
-5.15124e-24
-9.96359e-25
-1.93301e-25
-3.74023e-26
-7.16458e-27
-1.34911e-27
-2.48344e-28
-4.45214e-29
-7.75576e-30
-1.31151e-30
-2.15237e-31
-0.00111991
-0.00112021
-0.000382963
1.65151e-05
-0.000912885
-0.000813461
0.00240902
0.0028619
-0.0042123
-0.00955826
-0.00283463
0.0112434
0.0179691
0.0145724
0.00681203
0.00136574
-0.000237568
-0.000150944
-4.84828e-05
-4.60019e-06
4.95514e-08
2.78938e-08
5.96326e-09
6.88701e-11
-1.17275e-12
-3.8379e-13
-1.33641e-14
-2.80748e-16
-8.47454e-17
-2.70527e-17
-7.50514e-18
-1.85147e-18
-4.12329e-19
-8.48942e-20
-1.6621e-20
-3.18683e-21
-6.14454e-22
-1.21241e-22
-2.45812e-23
-5.08015e-24
-1.05557e-24
-2.17554e-25
-4.402e-26
-8.68628e-27
-1.66516e-27
-3.09528e-28
-5.57559e-29
-9.73364e-30
-1.64775e-30
-2.70694e-31
-0.00170856
-0.00182977
-0.00112022
-0.000149377
-0.000713814
-0.00140803
0.00123062
0.00329967
-0.00133015
-0.00698721
-0.00412115
0.00539849
0.0108408
0.0090974
0.00413826
0.000667346
-0.000112391
-9.05621e-05
-3.20414e-05
-3.26489e-06
1.35369e-08