/*--------------------------------*- C++ -*----------------------------------*\
| =========                 |                                                 |
| \\      /  F ield         | OpenFOAM: The Open Source CFD Toolbox           |
|  \\    /   O peration     | Version:  v2006                                 |
|   \\  /    A nd           | Website:  www.openfoam.com                      |
|    \\/     M anipulation  |                                                 |
\*---------------------------------------------------------------------------*/
FoamFile
{
    version     2.0;
    format      ascii;
    class       volVectorField;
    location    "0";
    object      U;
}
// * * * * * * * * * * * * * * * * * * * * * * * * * * * * * * * * * * * * * //

dimensions      [0 1 -1 0 0 0 0];


internalField   nonuniform List<vector> 
67500
(
(-0.00432035 -0.00246192 0)
(-0.00864067 -0.000252937 0)
(-0.00578279 0.00806875 0)
(-0.0307437 0.0102794 0)
(-0.0468965 0.00271766 0)
(-0.0791528 -0.00606367 0)
(-0.0977044 -0.0390086 0)
(-0.0551978 -0.0490914 0)
(-0.00300627 -0.0275178 0)
(0.0200484 -0.00632829 0)
(0.0141875 0.00534734 0)
(-0.0015933 0.0099669 0)
(-0.00825355 0.00858022 0)
(-0.00831028 0.00465692 0)
(-0.0129379 0.00240311 0)
(-0.0282566 0.00303542 0)
(-0.0478833 0.00278153 0)
(-0.0555054 -0.0013123 0)
(-0.0434845 -0.00620345 0)
(-0.0206432 -0.00690824 0)
(-0.000456423 -0.00199639 0)
(0.00528424 0.00391391 0)
(0.00106512 0.00528926 0)
(-0.00445154 0.00260277 0)
(-0.00821157 -0.00016931 0)
(-0.0108049 -0.000871904 0)
(-0.0123068 -0.000629077 0)
(-0.0126773 -0.000637117 0)
(-0.012153 -0.000828404 0)
(-0.0111014 -0.00119355 0)
(-0.00960888 -0.00141919 0)
(-0.00786943 -0.00107567 0)
(-0.00648582 -0.000375341 0)
(-0.00580077 0.000220649 0)
(-0.0055905 0.00042216 0)
(-0.00540429 0.000233861 0)
(-0.00498497 -0.00018689 0)
(-0.00431325 -0.000675462 0)
(-0.00349858 -0.00106524 0)
(-0.00273225 -0.00120772 0)
(-0.00223425 -0.00105384 0)
(-0.0021447 -0.000681155 0)
(-0.00244638 -0.000233297 0)
(-0.00298758 0.00016216 0)
(-0.00357002 0.000436516 0)
(-0.0040331 0.000581748 0)
(-0.00430343 0.000631521 0)
(-0.00440091 0.000628806 0)
(-0.00440855 0.000606355 0)
(-0.00442914 0.000576384 0)
(-0.00454631 0.000538236 0)
(-0.00479992 0.000482719 0)
(-0.00517731 0.000401445 0)
(-0.00561791 0.000289185 0)
(-0.00602782 0.000148875 0)
(-0.00630596 -7.43266e-06 0)
(-0.00636817 -0.000167441 0)
(-0.00616231 -0.000319721 0)
(-0.00567856 -0.000453588 0)
(-0.0049504 -0.000560802 0)
(-0.00404727 -0.000632596 0)
(-0.00306299 -0.000661917 0)
(-0.00210087 -0.000643723 0)
(-0.00126034 -0.000576822 0)
(-0.000623668 -0.000467849 0)
(-0.000244734 -0.00032998 0)
(-0.000142874 -0.000180751 0)
(-0.000302901 -3.73796e-05 0)
(-0.00068035 8.51669e-05 0)
(-0.00121195 0.000177732 0)
(-0.00183118 0.00023668 0)
(-0.00247945 0.000260323 0)
(-0.00311029 0.000249966 0)
(-0.00369169 0.000211537 0)
(-0.00420522 0.000152192 0)
(-0.00464447 8.28826e-05 0)
(-0.00501168 1.05513e-05 0)
(-0.00531103 -5.86006e-05 0)
(-0.00554549 -0.000119976 0)
(-0.00571841 -0.000166368 0)
(-0.00583459 -0.000194363 0)
(-0.00589695 -0.000203743 0)
(-0.00590771 -0.000195213 0)
(-0.00587217 -0.000170549 0)
(-0.00579875 -0.000134329 0)
(-0.00569746 -9.16366e-05 0)
(-0.00558029 -4.68773e-05 0)
(-0.00546085 -3.69263e-06 0)
(-0.00535266 3.52744e-05 0)
(-0.00526811 6.86669e-05 0)
(-0.0052177 9.55431e-05 0)
(-0.00520838 0.00011515 0)
(-0.0052432 0.000127895 0)
(-0.00532153 0.000133835 0)
(-0.00543979 0.000133749 0)
(-0.0055924 0.00012845 0)
(-0.00577114 0.000117975 0)
(-0.00596599 0.000103916 0)
(-0.00616686 8.75021e-05 0)
(-0.00636356 6.98261e-05 0)
(-0.00654626 5.17297e-05 0)
(-0.00670709 3.44079e-05 0)
(-0.00684115 1.85955e-05 0)
(-0.00694584 4.49861e-06 0)
(-0.00702046 -7.72779e-06 0)
(-0.00706627 -1.78527e-05 0)
(-0.00708607 -2.5853e-05 0)
(-0.00708314 -3.19887e-05 0)
(-0.00706064 -3.64641e-05 0)
(-0.00702169 -3.93393e-05 0)
(-0.00696959 -4.0546e-05 0)
(-0.00690813 -3.98585e-05 0)
(-0.00684167 -3.70566e-05 0)
(-0.00677476 -3.21813e-05 0)
(-0.00671144 -2.56492e-05 0)
(-0.00665483 -1.79362e-05 0)
(-0.00660734 -9.67455e-06 0)
(-0.00656996 -2.05317e-06 0)
(-0.00654118 3.65367e-06 0)
(-0.00651807 7.28201e-06 0)
(-0.00649857 9.41374e-06 0)
(-0.00648222 1.05731e-05 0)
(-0.00646952 1.11365e-05 0)
(-0.00646132 1.13552e-05 0)
(-0.00645837 1.13211e-05 0)
(-0.00646097 1.10624e-05 0)
(-0.00646873 1.04321e-05 0)
(-0.0064801 9.0199e-06 0)
(-0.00649223 6.57007e-06 0)
(-0.00650205 3.38172e-06 0)
(-0.00650755 -2.43687e-08 0)
(-0.00650783 -3.33171e-06 0)
(-0.00650242 -6.47135e-06 0)
(-0.00649093 -9.56406e-06 0)
(-0.00647269 -1.29027e-05 0)
(-0.00644653 -1.67943e-05 0)
(-0.00641099 -2.13156e-05 0)
(-0.00636491 -2.63213e-05 0)
(-0.00630768 -3.16355e-05 0)
(-0.00623907 -3.71502e-05 0)
(-0.00615897 -4.28341e-05 0)
(-0.00606721 -4.86899e-05 0)
(-0.00596358 -5.46724e-05 0)
(-0.00584796 -6.06712e-05 0)
(-0.00572047 -6.65737e-05 0)
(-0.00558139 -7.23145e-05 0)
(-0.00543105 -7.78704e-05 0)
(-0.00526981 -8.32258e-05 0)
(-0.00509805 -8.83542e-05 0)
(-0.00491625 -9.32297e-05 0)
(-0.00472493 -9.7838e-05 0)
(-0.00452464 -0.000102169 0)
(-0.00431596 -0.000106206 0)
(-0.00409949 -0.000109933 0)
(-0.00387589 -0.000113332 0)
(-0.00364583 -0.000116389 0)
(-0.00341002 -0.000119086 0)
(-0.00316918 -0.000121409 0)
(-0.00292408 -0.000123345 0)
(-0.0026755 -0.000124884 0)
(-0.00242424 -0.000126014 0)
(-0.00217114 -0.000126727 0)
(-0.00191704 -0.000127016 0)
(-0.00166279 -0.000126879 0)
(-0.00140924 -0.000126313 0)
(-0.00115726 -0.000125323 0)
(-0.000907687 -0.00012392 0)
(-0.000661339 -0.000122118 0)
(-0.000418994 -0.000119944 0)
(-0.000181372 -0.000117426 0)
(5.08729e-05 -0.000114605 0)
(0.000277172 -0.000111521 0)
(0.000497045 -0.000108221 0)
(0.000710105 -0.000104751 0)
(0.000916062 -0.000101158 0)
(0.00111471 -9.74837e-05 0)
(0.00130595 -9.37688e-05 0)
(0.00148971 -9.00483e-05 0)
(0.00166604 -8.63527e-05 0)
(0.00183501 -8.27079e-05 0)
(0.00199674 -7.9135e-05 0)
(0.00215141 -7.56514e-05 0)
(0.00229921 -7.22704e-05 0)
(0.00244036 -6.90025e-05 0)
(0.00257508 -6.58552e-05 0)
(0.00270364 -6.28336e-05 0)
(0.00282628 -5.99408e-05 0)
(0.00294328 -5.71783e-05 0)
(0.00305488 -5.45458e-05 0)
(0.00316134 -5.20421e-05 0)
(0.00326293 -4.96647e-05 0)
(0.0033599 -4.74102e-05 0)
(0.00345247 -4.52744e-05 0)
(0.00354089 -4.32524e-05 0)
(0.00362539 -4.1339e-05 0)
(0.00370616 -3.95281e-05 0)
(0.0037834 -3.78138e-05 0)
(0.00385732 -3.61895e-05 0)
(0.00392807 -3.46487e-05 0)
(0.00399582 -3.3185e-05 0)
(0.00406071 -3.17917e-05 0)
(0.00412289 -3.04627e-05 0)
(0.00418246 -2.91918e-05 0)
(0.00423955 -2.79732e-05 0)
(0.00429425 -2.68016e-05 0)
(0.00434665 -2.56719e-05 0)
(0.00439684 -2.45798e-05 0)
(0.00444487 -2.35214e-05 0)
(0.00449082 -2.24934e-05 0)
(0.00453475 -2.14933e-05 0)
(0.00457671 -2.0519e-05 0)
(0.00461675 -1.95691e-05 0)
(0.00465492 -1.8643e-05 0)
(0.00469127 -1.77402e-05 0)
(0.00472584 -1.68611e-05 0)
(0.00475868 -1.60063e-05 0)
(0.00478985 -1.51765e-05 0)
(0.00481938 -1.43729e-05 0)
(0.00484734 -1.35966e-05 0)
(0.00487379 -1.28489e-05 0)
(0.00489877 -1.21308e-05 0)
(0.00492235 -1.14434e-05 0)
(0.00494459 -1.07875e-05 0)
(0.00496556 -1.01637e-05 0)
(0.00498531 -9.57236e-06 0)
(0.00500391 -9.01366e-06 0)
(0.00502143 -8.48749e-06 0)
(0.00503793 -7.9935e-06 0)
(0.00505347 -7.53111e-06 0)
(0.00506812 -7.09954e-06 0)
(0.00508194 -6.69784e-06 0)
(0.00509498 -6.32485e-06 0)
(0.0051073 -5.97932e-06 0)
(0.00511896 -5.65984e-06 0)
(0.00512999 -5.36493e-06 0)
(0.00514047 -5.09302e-06 0)
(0.00515041 -4.84252e-06 0)
(0.00515988 -4.61178e-06 0)
(0.0051689 -4.39916e-06 0)
(0.00517751 -4.20304e-06 0)
(0.00518574 -4.02181e-06 0)
(0.00519363 -3.85395e-06 0)
(0.00520119 -3.69796e-06 0)
(0.00520844 -3.55245e-06 0)
(0.00521542 -3.4161e-06 0)
(0.00522213 -3.28772e-06 0)
(0.00522858 -3.16618e-06 0)
(0.00523481 -3.05049e-06 0)
(0.0052408 -2.93974e-06 0)
(0.00524658 -2.83316e-06 0)
(0.00525214 -2.73004e-06 0)
(0.0052575 -2.62981e-06 0)
(0.00526267 -2.53195e-06 0)
(0.00526764 -2.43606e-06 0)
(0.00527242 -2.34179e-06 0)
(0.00527701 -2.24887e-06 0)
(0.00528141 -2.15711e-06 0)
(0.00528564 -2.06636e-06 0)
(0.00528968 -1.97653e-06 0)
(0.00529354 -1.88757e-06 0)
(0.00529723 -1.79948e-06 0)
(0.00530074 -1.71231e-06 0)
(0.00530407 -1.62614e-06 0)
(0.00530724 -1.54106e-06 0)
(0.00531023 -1.45723e-06 0)
(0.00531306 -1.3748e-06 0)
(0.00531573 -1.29397e-06 0)
(0.00531823 -1.21495e-06 0)
(0.00532058 -1.13794e-06 0)
(0.00532278 -1.06318e-06 0)
(0.00532483 -9.90878e-07 0)
(0.00532673 -9.21262e-07 0)
(0.0053285 -8.54528e-07 0)
(0.00533015 -7.90859e-07 0)
(0.00533166 -7.30407e-07 0)
(0.00533306 -6.73291e-07 0)
(0.00533435 -6.19594e-07 0)
(0.00533553 -5.69352e-07 0)
(0.00533662 -5.22562e-07 0)
(0.00533762 -4.79172e-07 0)
(0.00533853 -4.39085e-07 0)
(0.00533937 -4.02164e-07 0)
(0.00534014 -3.68229e-07 0)
(0.00534084 -3.3707e-07 0)
(0.00534148 -3.08446e-07 0)
(0.00534207 -2.82097e-07 0)
(0.00534261 -2.57749e-07 0)
(0.0053431 -2.35122e-07 0)
(0.00534355 -2.13942e-07 0)
(0.00534396 -1.93944e-07 0)
(0.00534432 -1.74882e-07 0)
(0.00534465 -1.56538e-07 0)
(0.00534495 -1.38723e-07 0)
(0.00534521 -1.21287e-07 0)
(0.00534543 -1.04118e-07 0)
(0.00534562 -8.71492e-08 0)
(0.00534578 -7.03539e-08 0)
(0.00534591 -5.37499e-08 0)
(0.005346 -3.73953e-08 0)
(0.00534606 -2.13856e-08 0)
(0.00534608 -5.84979e-09 0)
(0.00534608 9.0548e-09 0)
(0.00534604 2.31485e-08 0)
(0.00534598 3.62356e-08 0)
(0.0053459 4.81117e-08 0)
(0.00534579 5.85707e-08 0)
(0.00534566 6.74125e-08 0)
(0.00534552 7.44505e-08 0)
(0.00534536 7.95184e-08 0)
(0.0053452 8.24773e-08 0)
(0.00534503 8.32211e-08 0)
(0.00534486 8.16818e-08 0)
(0.0053447 7.78329e-08 0)
(0.00534455 7.16924e-08 0)
(0.00534442 6.33239e-08 0)
(0.0053443 5.28361e-08 0)
(0.0053442 4.03817e-08 0)
(0.00534414 2.61544e-08 0)
(0.0053441 1.03849e-08 0)
(0.00534409 -6.66381e-09 0)
(0.00534413 -2.47021e-08 0)
(0.00534419 -4.34198e-08 0)
(0.0053443 -6.2493e-08 0)
(0.00534444 -8.15902e-08 0)
(0.00534462 -1.0038e-07 0)
(0.00534484 -1.18536e-07 0)
(0.00534509 -1.35746e-07 0)
(0.00534538 -1.51717e-07 0)
(0.0053457 -1.66178e-07 0)
(0.00534604 -1.78892e-07 0)
(0.00534641 -1.89654e-07 0)
(0.00534679 -1.983e-07 0)
(0.00534719 -2.04709e-07 0)
(0.00534761 -2.08803e-07 0)
(0.00534802 -2.10553e-07 0)
(0.00534844 -2.09976e-07 0)
(0.00534886 -2.07138e-07 0)
(0.00534927 -2.02146e-07 0)
(0.00534967 -1.95155e-07 0)
(0.00535005 -1.86354e-07 0)
(0.00535042 -1.7597e-07 0)
(0.00535077 -1.64258e-07 0)
(0.00535109 -1.51496e-07 0)
(0.00535139 -1.37978e-07 0)
(0.00535166 -1.24008e-07 0)
(0.0053519 -1.09893e-07 0)
(0.00535212 -9.59332e-08 0)
(0.00535231 -8.24175e-08 0)
(0.00535248 -6.96152e-08 0)
(0.00535262 -5.77695e-08 0)
(0.00535274 -4.70918e-08 0)
(0.00535284 -3.77566e-08 0)
(0.00535292 -2.98975e-08 0)
(0.00535299 -2.36041e-08 0)
(0.00535304 -1.89204e-08 0)
(0.00535308 -1.58446e-08 0)
(0.00535312 -1.43291e-08 0)
(0.00535315 -1.42832e-08 0)
(0.00535318 -1.55755e-08 0)
(0.0053532 -1.80383e-08 0)
(0.00535323 -2.14719e-08 0)
(0.00535327 -2.56507e-08 0)
(0.0053533 -3.03287e-08 0)
(0.00535334 -3.52467e-08 0)
(0.00535339 -4.01388e-08 0)
(0.00535344 -4.47399e-08 0)
(0.0053535 -4.8793e-08 0)
(0.00535356 -5.20563e-08 0)
(0.00535363 -5.43109e-08 0)
(0.0053537 -5.53673e-08 0)
(0.00535377 -5.5072e-08 0)
(0.00535384 -5.33136e-08 0)
(0.0053539 -5.00276e-08 0)
(0.00535396 -4.52009e-08 0)
(0.00535401 -3.8874e-08 0)
(0.00535406 -3.11429e-08 0)
(0.00535409 -2.21584e-08 0)
(0.00535411 -1.2123e-08 0)
(0.00535411 -1.2864e-09 0)
(0.0053541 1.00623e-08 0)
(0.00535407 2.16047e-08 0)
(0.00535403 3.30054e-08 0)
(0.00535397 4.39254e-08 0)
(0.00535389 5.40372e-08 0)
(0.0053538 6.30386e-08 0)
(0.0053537 7.0667e-08 0)
(0.00535358 7.67108e-08 0)
(0.00535346 8.1018e-08 0)
(0.00535334 8.35019e-08 0)
(0.00535321 8.41422e-08 0)
(0.00535308 8.29836e-08 0)
(0.00535296 8.0129e-08 0)
(0.00535284 7.57323e-08 0)
(0.00535273 6.99869e-08 0)
(0.00535263 6.31145e-08 0)
(0.00535254 5.53535e-08 0)
(0.00535246 4.69473e-08 0)
(0.0053524 3.81346e-08 0)
(0.00535236 2.91403e-08 0)
(0.00535233 2.01695e-08 0)
(0.00535232 1.14021e-08 0)
(0.00535232 2.99035e-09 0)
(0.00535233 -4.94254e-09 0)
(0.00535236 -1.23021e-08 0)
(0.0053524 -1.90211e-08 0)
(0.00535245 -2.50576e-08 0)
(0.00535251 -3.03917e-08 0)
(0.00535258 -3.50226e-08 0)
(0.00535266 -3.89653e-08 0)
(0.00535274 -4.22474e-08 0)
(0.00535283 -4.49059e-08 0)
(0.00535292 -4.69846e-08 0)
(0.00535302 -4.85318e-08 0)
(0.00535312 -4.95979e-08 0)
(0.00535322 -5.02337e-08 0)
(0.00535332 -5.04896e-08 0)
(0.00535342 -5.04139e-08 0)
(0.00535352 -5.00524e-08 0)
(0.00535362 -4.94477e-08 0)
(0.00535371 -4.86393e-08 0)
(0.00535381 -4.76629e-08 0)
(0.0053539 -4.65506e-08 0)
(0.00535399 -4.5331e-08 0)
(0.00535408 -4.40295e-08 0)
(0.00535417 -4.2668e-08 0)
(0.00535425 -4.12655e-08 0)
(0.00535433 -3.98386e-08 0)
(0.00535441 -3.84012e-08 0)
(0.00535448 -3.6965e-08 0)
(0.00535455 -3.55398e-08 0)
(0.00535462 -3.41337e-08 0)
(0.00535469 -3.27533e-08 0)
(0.00535475 -3.14037e-08 0)
(0.00535481 -3.0089e-08 0)
(0.00535487 -2.88123e-08 0)
(0.00535492 -2.75759e-08 0)
(0.00535498 -2.63813e-08 0)
(0.00535503 -2.52294e-08 0)
(0.00535508 -2.41208e-08 0)
(0.00535512 -2.30555e-08 0)
(0.00535517 -2.20331e-08 0)
(0.00535521 -2.1053e-08 0)
(0.00535525 -2.01145e-08 0)
(0.00535529 -1.92162e-08 0)
(0.00535532 -1.83573e-08 0)
(0.00535536 -1.75353e-08 0)
(0.00535539 -1.67546e-08 0)
(0.00535543 -1.59868e-08 0)
(0.00535545 -1.53546e-08 0)
(0.0053555 -1.42839e-08 0)
(-0.00393687 -0.00650313 0)
(-0.0124446 -0.00333835 0)
(-0.0235914 0.018588 0)
(-0.0107646 0.025345 0)
(-0.0181481 0.0303946 0)
(0.0215037 0.0584179 0)
(0.049181 0.00726695 0)
(0.0765863 -0.0461149 0)
(0.0786668 -0.0326335 0)
(0.0961416 0.00770183 0)
(0.0673785 0.018343 0)
(0.042039 0.00951164 0)
(0.01198 0.00143495 0)
(-0.00485131 0.00293338 0)
(0.0003305 0.0157634 0)
(-0.000345977 0.029043 0)
(-0.00835244 0.0247598 0)
(-0.0253644 0.00185058 0)
(-0.0374087 -0.0239735 0)
(-0.0346762 -0.0336227 0)
(-0.0227894 -0.0258296 0)
(-0.0107297 -0.00892738 0)
(-0.00694118 0.00376192 0)
(-0.00639282 0.00853902 0)
(-0.00551795 0.00781282 0)
(-0.00457791 0.00524681 0)
(-0.00379415 0.00297868 0)
(-0.00308769 0.000565096 0)
(-0.00366825 -0.000866732 0)
(-0.00579038 -0.00138831 0)
(-0.00748932 -0.00214093 0)
(-0.00765412 -0.00199216 0)
(-0.00747055 -0.00144689 0)
(-0.00688279 -0.00109831 0)
(-0.00618846 -0.00103115 0)
(-0.00543544 -0.00100231 0)
(-0.00448361 -0.00087075 0)
(-0.00357474 -0.00061286 0)
(-0.00298433 -0.000239936 0)
(-0.00271042 0.000230401 0)
(-0.00264813 0.000725955 0)
(-0.00266436 0.00110258 0)
(-0.0026482 0.00121926 0)
(-0.00256209 0.00102925 0)
(-0.00246235 0.000594087 0)
(-0.00246352 4.58229e-05 0)
(-0.00267478 -0.00044823 0)
(-0.00314854 -0.000763315 0)
(-0.00384662 -0.000838799 0)
(-0.00466429 -0.000700155 0)
(-0.00547148 -0.000417248 0)
(-0.00615725 -9.21829e-05 0)
(-0.00665087 0.00018704 0)
(-0.00692306 0.00034117 0)
(-0.00697206 0.000325031 0)
(-0.00682006 0.000145456 0)
(-0.00651528 -0.000163914 0)
(-0.00612305 -0.000541475 0)
(-0.00571598 -0.000909545 0)
(-0.00536707 -0.00120185 0)
(-0.00513059 -0.00136455 0)
(-0.00503473 -0.00137253 0)
(-0.00507063 -0.00122567 0)
(-0.00519672 -0.000942333 0)
(-0.00535075 -0.000564811 0)
(-0.00546271 -0.000143066 0)
(-0.00547813 0.000268798 0)
(-0.00536913 0.000627588 0)
(-0.00513504 0.000896473 0)
(-0.00478086 0.00106155 0)
(-0.00432333 0.00113543 0)
(-0.00378466 0.00113833 0)
(-0.00319046 0.00109207 0)
(-0.00256307 0.00102332 0)
(-0.00192755 0.000943238 0)
(-0.00130262 0.000871294 0)
(-0.000711545 0.000803804 0)
(-0.000165606 0.000739448 0)
(0.000322618 0.000667041 0)
(0.000745308 0.000587238 0)
(0.00109239 0.000493305 0)
(0.00136042 0.000379866 0)
(0.00155031 0.000252273 0)
(0.00166111 0.000122475 0)
(0.00169188 -2.31215e-06 0)
(0.0016453 -0.000111775 0)
(0.00152446 -0.00019579 0)
(0.00133236 -0.000248559 0)
(0.00107351 -0.000268343 0)
(0.000753195 -0.000255486 0)
(0.000377293 -0.000215217 0)
(-4.54524e-05 -0.000156851 0)
(-0.000504857 -8.57948e-05 0)
(-0.000989945 -1.06416e-05 0)
(-0.00148829 6.41622e-05 0)
(-0.0019899 0.000134428 0)
(-0.00248437 0.00019149 0)
(-0.00296205 0.000235291 0)
(-0.00341751 0.00026235 0)
(-0.00384657 0.000270692 0)
(-0.00424574 0.000259972 0)
(-0.00461308 0.000234994 0)
(-0.00494908 0.000200496 0)
(-0.0052546 0.000160337 0)
(-0.00553017 0.000118121 0)
(-0.00577665 7.73522e-05 0)
(-0.00599547 4.04473e-05 0)
(-0.00618746 7.7886e-06 0)
(-0.00635258 -2.05358e-05 0)
(-0.00649078 -4.41855e-05 0)
(-0.00660242 -6.28865e-05 0)
(-0.00668878 -7.6001e-05 0)
(-0.00675253 -8.30506e-05 0)
(-0.00679738 -8.44913e-05 0)
(-0.00682695 -8.1556e-05 0)
(-0.00684446 -7.51414e-05 0)
(-0.0068536 -6.6038e-05 0)
(-0.00685727 -5.6509e-05 0)
(-0.00685492 -5.01924e-05 0)
(-0.00684403 -4.70729e-05 0)
(-0.00682423 -4.46283e-05 0)
(-0.00679751 -4.07809e-05 0)
(-0.00676678 -3.44364e-05 0)
(-0.0067352 -2.55395e-05 0)
(-0.00670552 -1.4951e-05 0)
(-0.00667989 -3.65868e-06 0)
(-0.00665972 6.68367e-06 0)
(-0.00664464 1.34396e-05 0)
(-0.00663187 1.48885e-05 0)
(-0.00661816 1.18879e-05 0)
(-0.00660185 6.20479e-06 0)
(-0.00658267 -1.10332e-06 0)
(-0.00656068 -9.61012e-06 0)
(-0.00653577 -1.92816e-05 0)
(-0.00650729 -3.06049e-05 0)
(-0.00647361 -4.4176e-05 0)
(-0.00643253 -5.98361e-05 0)
(-0.00638234 -7.67599e-05 0)
(-0.00632214 -9.41626e-05 0)
(-0.00625158 -0.000111614 0)
(-0.0061704 -0.000129086 0)
(-0.0060782 -0.00014676 0)
(-0.00597445 -0.00016465 0)
(-0.0058588 -0.0001825 0)
(-0.00573129 -0.000200029 0)
(-0.0055922 -0.000217097 0)
(-0.00544184 -0.000233683 0)
(-0.00528051 -0.000249747 0)
(-0.00510858 -0.00026518 0)
(-0.00492651 -0.000279871 2.01855e-42)
(-0.00473484 -0.000293757 2.15125e-42)
(-0.00453413 -0.000306795 0)
(-0.00432494 -0.000318936 0)
(-0.00410791 -0.000330125 0)
(-0.00388367 -0.000340321 0)
(-0.00365293 -0.000349483 0)
(-0.00341638 -0.000357569 0)
(-0.00317478 -0.000364535 0)
(-0.00292887 -0.000370344 0)
(-0.00267946 -0.00037496 0)
(-0.00242736 -0.00037835 0)
(-0.0021734 -0.000380489 0)
(-0.00191842 -0.000381356 0)
(-0.00166329 -0.000380939 0)
(-0.00140887 -0.000379233 0)
(-0.00115602 -0.000376252 0)
(-0.000905605 -0.000372022 0)
(-0.000658456 -0.000366594 0)
(-0.000415364 -0.00036004 0)
(-0.000177063 -0.000352454 0)
(5.57819e-05 -0.00034395 0)
(0.000282593 -0.000334659 0)
(0.000502887 -0.000324718 0)
(0.000716277 -0.000314271 0)
(0.000922474 -0.000303454 0)
(0.00112128 -0.000292401 0)
(0.0013126 -0.00028123 0)
(0.00149638 -0.000270047 0)
(0.00167267 -0.000258944 0)
(0.00184155 -0.000247998 0)
(0.00200316 -0.000237272 0)
(0.00215767 -0.000226817 0)
(0.00230528 -0.000216673 0)
(0.00244623 -0.000206871 0)
(0.00258074 -0.000197432 0)
(0.00270907 -0.000188371 0)
(0.00283149 -0.000179698 0)
(0.00294824 -0.000171416 0)
(0.00305961 -0.000163523 0)
(0.00316585 -0.000156017 0)
(0.00326722 -0.00014889 0)
(0.00336396 -0.00014213 0)
(0.00345633 -0.000135725 0)
(0.00354455 -0.000129662 0)
(0.00362885 -0.000123923 0)
(0.00370944 -0.000118491 0)
(0.00378652 -0.000113347 0)
(0.00386027 -0.000108473 0)
(0.00393088 -0.00010385 0)
(0.00399849 -9.94564e-05 0)
(0.00406327 -9.52746e-05 0)
(0.00412533 -9.12856e-05 0)
(0.00418481 -8.74712e-05 0)
(0.00424181 -8.38144e-05 0)
(0.00429643 -8.02994e-05 0)
(0.00434876 -7.69115e-05 0)
(0.00439888 -7.36376e-05 0)
(0.00444686 -7.04665e-05 0)
(0.00449277 -6.73883e-05 0)
(0.00453665 -6.43953e-05 0)
(0.00457856 -6.14814e-05 0)
(0.00461856 -5.86424e-05 0)
(0.00465669 -5.58756e-05 0)
(0.00469299 -5.318e-05 0)
(0.00472752 -5.0556e-05 0)
(0.00476032 -4.80049e-05 0)
(0.00479144 -4.5529e-05 0)
(0.00482092 -4.31311e-05 0)
(0.00484883 -4.08146e-05 0)
(0.00487522 -3.85826e-05 0)
(0.00490015 -3.64384e-05 0)
(0.00492367 -3.43848e-05 0)
(0.00494585 -3.24242e-05 0)
(0.00496675 -3.05583e-05 0)
(0.00498644 -2.87885e-05 0)
(0.00500498 -2.71151e-05 0)
(0.00502243 -2.55379e-05 0)
(0.00503887 -2.4056e-05 0)
(0.00505435 -2.26678e-05 0)
(0.00506894 -2.13712e-05 0)
(0.0050827 -2.01634e-05 0)
(0.00509569 -1.90412e-05 0)
(0.00510796 -1.80008e-05 0)
(0.00511956 -1.70384e-05 0)
(0.00513055 -1.61494e-05 0)
(0.00514098 -1.53295e-05 0)
(0.00515089 -1.45737e-05 0)
(0.00516032 -1.38774e-05 0)
(0.0051693 -1.32357e-05 0)
(0.00517788 -1.26436e-05 0)
(0.00518609 -1.20965e-05 0)
(0.00519395 -1.15897e-05 0)
(0.00520148 -1.11189e-05 0)
(0.00520872 -1.06797e-05 0)
(0.00521568 -1.02683e-05 0)
(0.00522237 -9.88088e-06 0)
(0.00522882 -9.51423e-06 0)
(0.00523503 -9.16526e-06 0)
(0.00524102 -8.83127e-06 0)
(0.00524678 -8.50986e-06 0)
(0.00525234 -8.19894e-06 0)
(0.0052577 -7.89672e-06 0)
(0.00526286 -7.60171e-06 0)
(0.00526783 -7.31265e-06 0)
(0.0052726 -7.02852e-06 0)
(0.00527719 -6.74852e-06 0)
(0.0052816 -6.47206e-06 0)
(0.00528582 -6.19871e-06 0)
(0.00528986 -5.92819e-06 0)
(0.00529372 -5.66038e-06 0)
(0.0052974 -5.3953e-06 0)
(0.00530091 -5.13305e-06 0)
(0.00530424 -4.87389e-06 0)
(0.00530741 -4.61812e-06 0)
(0.0053104 -4.36618e-06 0)
(0.00531322 -4.11855e-06 0)
(0.00531589 -3.8758e-06 0)
(0.00531839 -3.63853e-06 0)
(0.00532073 -3.40739e-06 0)
(0.00532292 -3.18304e-06 0)
(0.00532497 -2.96614e-06 0)
(0.00532687 -2.75734e-06 0)
(0.00532864 -2.55724e-06 0)
(0.00533027 -2.36637e-06 0)
(0.00533178 -2.18519e-06 0)
(0.00533317 -2.01406e-06 0)
(0.00533445 -1.85321e-06 0)
(0.00533563 -1.70276e-06 0)
(0.00533671 -1.56269e-06 0)
(0.0053377 -1.43284e-06 0)
(0.00533861 -1.31293e-06 0)
(0.00533944 -1.20253e-06 0)
(0.0053402 -1.1011e-06 0)
(0.0053409 -1.008e-06 0)
(0.00534154 -9.22514e-07 0)
(0.00534212 -8.43845e-07 0)
(0.00534266 -7.71167e-07 0)
(0.00534315 -7.03638e-07 0)
(0.00534359 -6.40422e-07 0)
(0.00534399 -5.80722e-07 0)
(0.00534436 -5.23794e-07 0)
(0.00534469 -4.68976e-07 0)
(0.00534498 -4.15699e-07 0)
(0.00534524 -3.63507e-07 0)
(0.00534547 -3.12068e-07 0)
(0.00534566 -2.61175e-07 0)
(0.00534582 -2.10756e-07 0)
(0.00534594 -1.60867e-07 0)
(0.00534603 -1.11689e-07 0)
(0.00534609 -6.35149e-08 0)
(0.00534611 -1.67427e-08 0)
(0.00534611 2.81455e-08 0)
(0.00534607 7.05993e-08 0)
(0.00534601 1.1002e-07 0)
(0.00534592 1.45784e-07 0)
(0.00534581 1.77264e-07 0)
(0.00534568 2.03851e-07 0)
(0.00534553 2.2498e-07 0)
(0.00534537 2.40149e-07 0)
(0.0053452 2.48944e-07 0)
(0.00534503 2.51051e-07 0)
(0.00534486 2.46273e-07 0)
(0.00534469 2.34544e-07 0)
(0.00534454 2.15933e-07 0)
(0.0053444 1.90647e-07 0)
(0.00534428 1.59033e-07 0)
(0.00534418 1.21566e-07 0)
(0.00534411 7.88481e-08 0)
(0.00534407 3.15864e-08 0)
(0.00534406 -1.94169e-08 0)
(0.00534409 -7.32845e-08 0)
(0.00534415 -1.29084e-07 0)
(0.00534426 -1.85846e-07 0)
(0.0053444 -2.42589e-07 0)
(0.00534459 -2.98337e-07 0)
(0.0053448 -3.52139e-07 0)
(0.00534506 -4.03091e-07 0)
(0.00534535 -4.50353e-07 0)
(0.00534567 -4.93163e-07 0)
(0.00534602 -5.30854e-07 0)
(0.00534639 -5.62868e-07 0)
(0.00534678 -5.88763e-07 0)
(0.00534718 -6.08223e-07 0)
(0.0053476 -6.21061e-07 0)
(0.00534802 -6.27224e-07 0)
(0.00534845 -6.26789e-07 0)
(0.00534887 -6.19962e-07 0)
(0.00534928 -6.0707e-07 0)
(0.00534969 -5.88547e-07 0)
(0.00535007 -5.64932e-07 0)
(0.00535044 -5.36846e-07 0)
(0.00535079 -5.04978e-07 0)
(0.00535111 -4.70072e-07 0)
(0.00535141 -4.32905e-07 0)
(0.00535169 -3.94268e-07 0)
(0.00535193 -3.54951e-07 0)
(0.00535215 -3.15721e-07 0)
(0.00535234 -2.77307e-07 0)
(0.0053525 -2.4038e-07 0)
(0.00535264 -2.05542e-07 0)
(0.00535276 -1.73313e-07 0)
(0.00535286 -1.44117e-07 0)
(0.00535294 -1.18281e-07 0)
(0.005353 -9.60247e-08 0)
(0.00535305 -7.74632e-08 0)
(0.00535309 -6.26081e-08 0)
(0.00535312 -5.13726e-08 0)
(0.00535315 -4.3579e-08 0)
(0.00535317 -3.89683e-08 0)
(0.0053532 -3.72119e-08 0)
(0.00535323 -3.79231e-08 0)
(0.00535326 -4.06707e-08 0)
(0.00535329 -4.49908e-08 0)
(0.00535333 -5.03996e-08 0)
(0.00535338 -5.64048e-08 0)
(0.00535344 -6.25162e-08 0)
(0.00535349 -6.82561e-08 0)
(0.00535356 -7.31685e-08 0)
(0.00535363 -7.68282e-08 0)
(0.0053537 -7.88499e-08 0)
(0.00535377 -7.88973e-08 0)
(0.00535384 -7.6693e-08 0)
(0.00535391 -7.20283e-08 0)
(0.00535397 -6.47732e-08 0)
(0.00535403 -5.4886e-08 0)
(0.00535407 -4.24219e-08 0)
(0.00535411 -2.75391e-08 0)
(0.00535413 -1.05017e-08 0)
(0.00535413 8.32161e-09 0)
(0.00535412 2.8464e-08 0)
(0.00535409 4.93733e-08 0)
(0.00535405 7.04307e-08 0)
(0.00535399 9.09754e-08 0)
(0.00535391 1.10333e-07 0)
(0.00535382 1.27849e-07 0)
(0.00535371 1.42918e-07 0)
(0.00535359 1.55018e-07 0)
(0.00535347 1.63731e-07 0)
(0.00535334 1.68769e-07 0)
(0.00535321 1.69979e-07 0)
(0.00535308 1.6735e-07 0)
(0.00535295 1.61008e-07 0)
(0.00535283 1.51199e-07 0)
(0.00535271 1.38278e-07 0)
(0.00535261 1.22679e-07 0)
(0.00535252 1.04894e-07 0)
(0.00535245 8.54483e-08 0)
(0.00535239 6.48733e-08 0)
(0.00535234 4.36869e-08 0)
(0.00535231 2.23755e-08 0)
(0.0053523 1.37893e-09 0)
(0.0053523 -1.89187e-08 0)
(0.00535232 -3.81956e-08 0)
(0.00535235 -5.61939e-08 0)
(0.00535239 -7.27198e-08 0)
(0.00535244 -8.76395e-08 0)
(0.0053525 -1.00875e-07 0)
(0.00535257 -1.12396e-07 0)
(0.00535265 -1.22216e-07 0)
(0.00535274 -1.30381e-07 0)
(0.00535283 -1.36967e-07 0)
(0.00535292 -1.42068e-07 0)
(0.00535302 -1.45794e-07 0)
(0.00535312 -1.48264e-07 0)
(0.00535322 -1.49602e-07 0)
(0.00535332 -1.49932e-07 0)
(0.00535342 -1.49375e-07 0)
(0.00535352 -1.4805e-07 0)
(0.00535362 -1.46067e-07 0)
(0.00535372 -1.4353e-07 0)
(0.00535381 -1.40533e-07 0)
(0.00535391 -1.37163e-07 0)
(0.005354 -1.33498e-07 0)
(0.00535408 -1.29607e-07 0)
(0.00535417 -1.25551e-07 0)
(0.00535425 -1.21383e-07 0)
(0.00535433 -1.17148e-07 0)
(0.00535441 -1.12887e-07 0)
(0.00535448 -1.08632e-07 0)
(0.00535456 -1.04413e-07 0)
(0.00535462 -1.00251e-07 0)
(0.00535469 -9.61652e-08 0)
(0.00535475 -9.21716e-08 0)
(0.00535481 -8.82815e-08 0)
(0.00535487 -8.45041e-08 0)
(0.00535493 -8.08459e-08 0)
(0.00535498 -7.73115e-08 0)
(0.00535503 -7.39038e-08 0)
(0.00535508 -7.0624e-08 0)
(0.00535512 -6.74721e-08 0)
(0.00535517 -6.44473e-08 0)
(0.00535521 -6.15475e-08 0)
(0.00535525 -5.87705e-08 0)
(0.00535529 -5.61129e-08 0)
(0.00535533 -5.35721e-08 0)
(0.00535536 -5.11406e-08 0)
(0.00535539 -4.88315e-08 0)
(0.00535543 -4.65615e-08 0)
(0.00535545 -4.46909e-08 0)
(0.0053555 -4.15402e-08 0)
(-0.00153993 -0.0107272 0)
(-0.0162937 0.00783699 0)
(-0.0187261 0.00988368 0)
(0.0808364 0.0028458 0)
(0.0741556 0.0150202 0)
(0.113911 0.00984328 0)
(0.0748723 -0.0911352 0)
(0.0701387 -0.0976509 0)
(0.0488769 -0.0672901 0)
(0.0222772 0.0189295 0)
(-0.0271192 0.0428484 0)
(-0.0599639 0.0445836 0)
(-0.0533353 0.0355645 0)
(-0.0165489 0.0214529 0)
(0.0215788 0.00687604 0)
(0.030952 0.00924686 0)
(0.0304402 0.0156635 0)
(0.0288662 0.0072758 0)
(0.0233238 -0.00482144 0)
(-0.00146352 -0.0152835 0)
(-0.0207239 -0.0163736 0)
(-0.0278221 -0.00917207 0)
(-0.0231765 -0.00252861 0)
(-0.0144584 -0.000592125 0)
(-0.00869761 -0.00202719 0)
(-0.00446893 -0.00361639 0)
(-0.00163474 -0.00287856 0)
(-0.00116302 -0.000509519 0)
(-0.00265859 0.00216481 0)
(-0.003971 0.002923 0)
(-0.00523865 -0.000830794 0)
(-0.00735241 -0.00163684 0)
(-0.00943317 -0.00133117 0)
(-0.0117663 -0.000533168 0)
(-0.0140344 -0.000534246 0)
(-0.0158114 -0.00125967 0)
(-0.0157949 -0.00211592 0)
(-0.0152232 -0.00261471 0)
(-0.0141057 -0.00266518 0)
(-0.0120854 -0.00234277 0)
(-0.00927828 -0.00180092 0)
(-0.00606122 -0.00120736 0)
(-0.00300631 -0.000649978 0)
(-0.000745013 -0.000103973 0)
(3.35813e-05 0.000518501 0)
(-0.00100083 0.00122831 0)
(-0.0036014 0.00196549 0)
(-0.00703225 0.00255105 0)
(-0.0101786 0.00286762 0)
(-0.0122599 0.0028553 0)
(-0.0129539 0.00258898 0)
(-0.0123962 0.00213239 0)
(-0.0110043 0.00158835 0)
(-0.00930884 0.00100447 0)
(-0.00787813 0.000424409 0)
(-0.00699467 -8.85035e-05 0)
(-0.00693036 -0.000495878 0)
(-0.00783482 -0.000764826 0)
(-0.00962108 -0.000873436 0)
(-0.0121996 -0.000840988 0)
(-0.0153415 -0.000694351 0)
(-0.0187863 -0.000496759 0)
(-0.0222445 -0.000315446 0)
(-0.0253459 -0.00019932 0)
(-0.0278226 -0.000183265 0)
(-0.0295607 -0.000257472 0)
(-0.0306418 -0.000391858 0)
(-0.0311774 -0.000545734 0)
(-0.0315067 -0.00070639 0)
(-0.0318265 -0.000873602 0)
(-0.0321267 -0.00102389 0)
(-0.0323314 -0.00116275 0)
(-0.032446 -0.00128377 0)
(-0.032228 -0.00138423 0)
(-0.0317584 -0.00145484 0)
(-0.0307418 -0.00149216 0)
(-0.0292514 -0.00149551 0)
(-0.0272853 -0.00147241 0)
(-0.025105 -0.00141324 0)
(-0.0227834 -0.00129717 0)
(-0.0204044 -0.00113612 0)
(-0.018045 -0.000943876 0)
(-0.0157665 -0.000725548 0)
(-0.0136176 -0.000475488 0)
(-0.0116317 -0.000215994 0)
(-0.00981485 4.38594e-05 0)
(-0.00816459 0.000296391 0)
(-0.00667214 0.000530638 0)
(-0.00532522 0.000740696 0)
(-0.00411152 0.000924844 0)
(-0.00302508 0.00108364 0)
(-0.00205782 0.0012047 0)
(-0.0011945 0.0012964 0)
(-0.000436326 0.00134363 0)
(0.000238099 0.00135398 0)
(0.000828069 0.0013399 0)
(0.00133335 0.00128472 0)
(0.00176356 0.00120995 0)
(0.00211026 0.00111678 0)
(0.00237496 0.00101767 0)
(0.0025552 0.000913426 0)
(0.00265364 0.000811243 0)
(0.00266754 0.00071447 0)
(0.00259409 0.000623128 0)
(0.00243325 0.000536893 0)
(0.0021861 0.00045579 0)
(0.00185506 0.000380477 0)
(0.00144653 0.000308625 0)
(0.000971662 0.000238809 0)
(0.000443691 0.00017173 0)
(-0.000124131 0.000108691 0)
(-0.000717941 5.34353e-05 0)
(-0.00132534 1.07373e-05 0)
(-0.00193478 -1.94094e-05 0)
(-0.00253427 -3.80984e-05 0)
(-0.00311257 -4.437e-05 0)
(-0.00366123 -4.06318e-05 0)
(-0.00417489 -3.37197e-05 0)
(-0.00464608 -3.3937e-05 0)
(-0.00506544 -3.88341e-05 0)
(-0.00542918 -4.34961e-05 0)
(-0.00573876 -4.59704e-05 0)
(-0.00599783 -4.4832e-05 0)
(-0.00621134 -4.00014e-05 0)
(-0.0063843 -3.30285e-05 0)
(-0.006522 -2.43299e-05 0)
(-0.00663062 -1.56212e-05 0)
(-0.00671412 -1.14029e-05 0)
(-0.00677196 -1.52192e-05 0)
(-0.00680327 -2.4734e-05 0)
(-0.00681094 -3.58043e-05 0)
(-0.00679987 -4.63593e-05 0)
(-0.00677444 -5.607e-05 0)
(-0.00673839 -6.56073e-05 0)
(-0.0066943 -7.70959e-05 0)
(-0.00664242 -9.30092e-05 0)
(-0.00658141 -0.000113513 0)
(-0.00651055 -0.000137047 0)
(-0.00643028 -0.000162268 0)
(-0.00634147 -0.000188463 0)
(-0.00624468 -0.000215605 0)
(-0.00613967 -0.000244038 0)
(-0.00602548 -0.000273614 0)
(-0.00590135 -0.000303545 0)
(-0.0057671 -0.000333033 0)
(-0.00562288 -0.00036171 0)
(-0.00546875 -0.000389553 0)
(-0.00530464 -0.00041652 0)
(-0.00513056 -0.000442398 0)
(-0.00494678 -0.00046699 0)