/*--------------------------------*- C++ -*----------------------------------*\
| =========                 |                                                 |
| \\      /  F ield         | OpenFOAM: The Open Source CFD Toolbox           |
|  \\    /   O peration     | Version:  v2006                                 |
|   \\  /    A nd           | Website:  www.openfoam.com                      |
|    \\/     M anipulation  |                                                 |
\*---------------------------------------------------------------------------*/
FoamFile
{
    version     2.0;
    format      ascii;
    class       volScalarField;
    location    "7.1";
    object      p_rgh;
}
// * * * * * * * * * * * * * * * * * * * * * * * * * * * * * * * * * * * * * //

dimensions      [1 -1 -2 0 0 0 0];


internalField   nonuniform List<scalar> 
50000
(
3731.3
3731.21
3731
3730.71
3730.3
3729.81
3729.2
3728.5
3727.7
3726.8
3725.8
3724.69
3723.48
3722.17
3720.76
3719.24
3717.62
3715.89
3714.06
3712.11
3710.06
3707.9
3705.63
3703.24
3700.74
3698.13
3695.4
3692.55
3689.58
3686.49
3683.27
3679.93
3676.45
3672.84
3669.11
3665.23
3661.22
3657.06
3652.77
3648.33
3643.74
3639
3634.12
3629.08
3623.88
3618.53
3613.02
3607.36
3601.53
3595.53
3589.38
3583.06
3576.58
3569.93
3563.11
3556.13
3548.99
3541.68
3534.21
3526.57
3518.77
3510.81
3502.69
3494.42
3485.99
3477.42
3468.69
3459.82
3450.81
3441.67
3432.39
3422.98
3413.45
3403.8
3394.04
3384.17
3374.2
3364.13
3353.98
3343.74
3333.43
3323.05
3312.62
3302.12
3291.59
3281.01
3270.41
3259.79
3249.15
3238.51
3227.87
3217.24
3206.64
3196.06
3185.52
3175.03
3164.59
3154.21
3143.91
3133.68
3123.54
3113.5
3103.55
3093.72
3084.01
3074.42
3064.96
3055.63
3046.46
3037.43
3028.57
3019.87
3011.35
3003.01
2994.86
2986.9
2979.12
2971.55
2964.18
2957.01
2950.05
2943.3
2936.76
2930.45
2924.35
2918.47
2912.82
2907.4
2902.21
2897.24
2892.51
2888.01
2883.74
2879.7
2875.91
2872.35
2869.02
2865.93
2863.08
2860.47
2858.1
2855.96
2854.06
2852.4
2850.98
2849.8
2848.85
2848.15
2847.66
2847.41
3731.45
3731.36
3731.16
3730.86
3730.46
3729.96
3729.36
3728.66
3727.86
3726.96
3725.96
3724.86
3723.66
3722.35
3720.94
3719.43
3717.81
3716.09
3714.26
3712.32
3710.27
3708.12
3705.85
3703.47
3700.97
3698.36
3695.64
3692.79
3689.82
3686.72
3683.5
3680.15
3676.68
3673.08
3669.35
3665.48
3661.47
3657.32
3653.03
3648.59
3644.01
3639.28
3634.39
3629.36
3624.17
3618.82
3613.31
3607.65
3601.82
3595.83
3589.67
3583.35
3576.87
3570.22
3563.4
3556.42
3549.28
3541.97
3534.49
3526.85
3519.04
3511.08
3502.96
3494.68
3486.25
3477.67
3468.94
3460.06
3451.04
3441.89
3432.6
3423.18
3413.64
3403.98
3394.2
3384.32
3374.34
3364.26
3354.1
3343.85
3333.53
3323.13
3312.68
3302.18
3291.63
3281.04
3270.42
3259.78
3249.13
3238.47
3227.82
3217.18
3206.56
3195.97
3185.41
3174.9
3164.45
3154.05
3143.73
3133.48
3123.32
3113.25
3103.28
3093.43
3083.7
3074.1
3064.63
3055.3
3046.13
3037.11
3028.26
3019.57
3011.04
3002.69
2994.53
2986.55
2978.77
2971.18
2963.79
2956.61
2949.64
2942.88
2936.33
2930.01
2923.9
2918.02
2912.36
2906.93
2901.72
2896.75
2892.01
2887.5
2883.23
2879.19
2875.38
2871.82
2868.49
2865.4
2862.54
2859.92
2857.55
2855.41
2853.5
2851.84
2850.42
2849.23
2848.28
2847.58
2847.1
2846.85
3731.77
3731.68
3731.48
3731.19
3730.78
3730.29
3729.69
3729
3728.2
3727.31
3726.31
3725.21
3724.01
3722.71
3721.31
3719.8
3718.19
3716.48
3714.65
3712.72
3710.68
3708.54
3706.28
3703.91
3701.42
3698.82
3696.1
3693.26
3690.3
3687.22
3684.02
3680.69
3677.22
3673.62
3669.89
3666.03
3662.02
3657.88
3653.59
3649.16
3644.58
3639.85
3634.97
3629.93
3624.74
3619.4
3613.89
3608.22
3602.4
3596.41
3590.25
3583.93
3577.44
3570.79
3563.97
3556.99
3549.83
3542.52
3535.03
3527.38
3519.57
3511.6
3503.46
3495.17
3486.73
3478.13
3469.39
3460.49
3451.46
3442.29
3432.98
3423.55
3413.98
3404.3
3394.51
3384.61
3374.6
3364.5
3354.32
3344.04
3333.69
3323.28
3312.8
3302.27
3291.69
3281.08
3270.43
3259.77
3249.09
3238.4
3227.72
3217.05
3206.4
3195.78
3185.2
3174.66
3164.18
3153.76
3143.41
3133.14
3122.96
3112.87
3102.89
3093.02
3083.27
3073.64
3064.15
3054.8
3045.59
3036.54
3027.65
3018.93
3010.38
3002.01
2993.82
2985.82
2978.02
2970.41
2963
2955.8
2948.81
2942.04
2935.47
2929.13
2923.01
2917.11
2911.44
2905.99
2900.77
2895.79
2891.04
2886.52
2882.24
2878.19
2874.38
2870.81
2867.47
2864.37
2861.51
2858.89
2856.51
2854.37
2852.46
2850.8
2849.37
2848.18
2847.23
2846.54
2846.05
2845.8
3732.26
3732.18
3731.98
3731.68
3731.28
3730.79
3730.2
3729.5
3728.71
3727.82
3726.83
3725.74
3724.55
3723.26
3721.86
3720.36
3718.76
3717.05
3715.24
3713.32
3711.29
3709.16
3706.91
3704.55
3702.08
3699.49
3696.78
3693.95
3691.01
3687.94
3684.74
3681.42
3677.97
3674.39
3670.67
3666.81
3662.82
3658.68
3654.4
3649.98
3645.41
3640.69
3635.81
3630.78
3625.6
3620.26
3614.76
3609.09
3603.26
3597.27
3591.12
3584.79
3578.3
3571.65
3564.82
3557.83
3550.67
3543.34
3535.84
3528.18
3520.35
3512.37
3504.22
3495.91
3487.45
3478.83
3470.06
3461.15
3452.09
3442.89
3433.56
3424.09
3414.51
3404.8
3394.97
3385.04
3375
3364.87
3354.65
3344.34
3333.95
3323.5
3312.99
3302.42
3291.8
3281.15
3270.46
3259.76
3249.04
3238.31
3227.59
3216.87
3206.18
3195.52
3184.89
3174.31
3163.79
3153.33
3142.93
3132.62
3122.4
3112.27
3102.24
3092.33
3082.53
3072.86
3063.32
3053.94
3044.7
3035.61
3026.69
3017.93
3009.35
3000.94
2992.72
2984.69
2976.86
2969.22
2961.78
2954.55
2947.54
2940.73
2934.15
2927.78
2921.64
2915.72
2910.03
2904.57
2899.34
2894.34
2889.57
2885.04
2880.75
2876.69
2872.87
2869.29
2865.95
2862.84
2859.98
2857.35
2854.97
2852.82
2850.91
2849.24
2847.82
2846.63
2845.68
2844.98
2844.49
2844.24
3732.92
3732.83
3732.63
3732.34
3731.94
3731.46
3730.86
3730.18
3729.39
3728.51
3727.53
3726.44
3725.26
3723.98
3722.59
3721.1
3719.51
3717.82
3716.02
3714.11
3712.1
3709.98
3707.75
3705.4
3702.94
3700.37
3697.68
3694.87
3691.94
3688.89
3685.71
3682.41
3678.97
3675.4
3671.7
3667.86
3663.88
3659.76
3655.49
3651.08
3646.52
3641.81
3636.94
3631.92
3626.75
3621.41
3615.91
3610.25
3604.42
3598.43
3592.27
3585.95
3579.45
3572.79
3565.96
3558.95
3551.78
3544.44
3536.93
3529.25
3521.41
3513.4
3505.22
3496.89
3488.4
3479.76
3470.96
3462.02
3452.93
3443.7
3434.33
3424.83
3415.2
3405.45
3395.59
3385.61
3375.53
3365.36
3355.09
3344.73
3334.3
3323.8
3313.23
3302.61
3291.95
3281.24
3270.5
3259.74
3248.96
3238.18
3227.4
3216.64
3205.89
3195.17
3184.48
3173.85
3163.27
3152.75
3142.3
3131.93
3121.65
3111.46
3101.38
3091.41
3081.57
3071.85
3062.26
3052.82
3043.53
3034.39
3025.41
3016.61
3007.98
2999.53
2991.26
2983.19
2975.31
2967.63
2960.15
2952.89
2945.84
2939
2932.38
2925.98
2919.81
2913.86
2908.15
2902.66
2897.41
2892.39
2887.61
2883.06
2878.75
2874.68
2870.85
2867.26
2863.91
2860.79
2857.92
2855.29
2852.9
2850.75
2848.84
2847.17
2845.74
2844.55
2843.6
2842.9
2842.41
2842.15
3733.73
3733.64
3733.45
3733.16
3732.76
3732.28
3731.7
3731.02
3730.24
3729.36
3728.39
3727.31
3726.14
3724.87
3723.5
3722.02
3720.45
3718.77
3716.99
3715.1
3713.1
3711
3708.79
3706.46
3704.03
3701.47
3698.8
3696.02
3693.11
3690.08
3686.92
3683.63
3680.22
3676.67
3672.99
3669.17
3665.21
3661.1
3656.85
3652.46
3647.91
3643.21
3638.36
3633.35
3628.18
3622.85
3617.36
3611.7
3605.88
3599.88
3593.72
3587.39
3580.89
3574.22
3567.38
3560.36
3553.18
3545.82
3538.29
3530.59
3522.72
3514.69
3506.49
3498.13
3489.6
3480.93
3472.09
3463.11
3453.98
3444.71
3435.3
3425.75
3416.08
3406.28
3396.36
3386.33
3376.2
3365.97
3355.64
3345.23
3334.74
3324.17
3313.54
3302.86
3292.13
3281.36
3270.55
3259.72
3248.88
3238.03
3227.18
3216.34
3205.52
3194.73
3183.97
3173.27
3162.61
3152.02
3141.5
3131.06
3120.71
3110.45
3100.3
3090.27
3080.35
3070.56
3060.91
3051.4
3042.04
3032.84
3023.81
3014.94
3006.25
2997.74
2989.42
2981.29
2973.36
2965.63
2958.11
2950.8
2943.7
2936.82
2930.16
2923.73
2917.52
2911.54
2905.79
2900.28
2895
2889.95
2885.15
2880.58
2876.25
2872.17
2868.32
2864.71
2861.35
2858.23
2855.35
2852.71
2850.31
2848.15
2846.24
2844.57
2843.13
2841.94
2840.99
2840.29
2839.8
2839.54
3734.7
3734.61
3734.42
3734.13
3733.74
3733.26
3732.69
3732.01
3731.24
3730.38
3729.41
3728.35
3727.2
3725.94
3724.58
3723.13
3721.57
3719.91
3718.14
3716.28
3714.3
3712.22
3710.03
3707.73
3705.32
3702.79
3700.15
3697.39
3694.5
3691.5
3688.37
3685.11
3681.72
3678.19
3674.53
3670.74
3666.8
3662.72
3658.49
3654.11
3649.58
3644.9
3640.06
3635.06
3629.91
3624.58
3619.1
3613.45
3607.62
3601.63
3595.47
3589.14
3582.63
3575.95
3569.09
3562.06
3554.86
3547.48
3539.93
3532.2
3524.31
3516.24
3508.01
3499.61
3491.05
3482.33
3473.45
3464.43
3455.25
3445.92
3436.46
3426.86
3417.13
3407.27
3397.29
3387.2
3377
3366.7
3356.3
3345.82
3335.26
3324.62
3313.92
3303.16
3292.34
3281.49
3270.61
3259.7
3248.77
3237.84
3226.9
3215.98
3205.08
3194.2
3183.36
3172.56
3161.82
3151.14
3140.54
3130.01
3119.58
3109.24
3099
3088.88
3078.88
3069.01
3059.28
3049.7
3040.26
3030.98
3021.87
3012.93
3004.17
2995.59
2987.2
2979.01
2971.02
2963.23
2955.65
2948.28
2941.13
2934.2
2927.49
2921.01
2914.76
2908.74
2902.95
2897.41
2892.09
2887.02
2882.19
2877.59
2873.24
2869.14
2865.27
2861.65
2858.27
2855.14
2852.25
2849.6
2847.19
2845.03
2843.11
2841.43
2840
2838.8
2837.85
2837.14
2836.65
2836.4
3735.82
3735.73
3735.54
3735.26
3734.88
3734.4
3733.83
3733.17
3732.41
3731.55
3730.6
3729.56
3728.42
3727.18
3725.84
3724.4
3722.86
3721.23
3719.49
3717.64
3715.7
3713.64
3711.48
3709.21
3706.83
3704.33
3701.71
3698.98
3696.13
3693.15
3690.05
3686.82
3683.46
3679.97
3676.34
3672.57
3668.66
3664.6
3660.4
3656.04
3651.53
3646.87
3642.05
3637.07
3631.92
3626.61
3621.14
3615.49
3609.67
3603.68
3597.52
3591.18
3584.66
3577.97
3571.1
3564.05
3556.83
3549.43
3541.85
3534.1
3526.17
3518.06
3509.79
3501.35
3492.74
3483.98
3475.05
3465.97
3456.73
3447.35
3437.82
3428.16
3418.36
3408.43
3398.38
3388.21
3377.94
3367.56
3357.08
3346.51
3335.87
3325.14
3314.35
3303.5
3292.6
3281.65
3270.67
3259.67
3248.64
3237.61
3226.58
3215.56
3204.55
3193.58
3182.64
3171.74
3160.9
3150.12
3139.41
3128.78
3118.25
3107.81
3097.47
3087.26
3077.16
3067.19
3057.37
3047.69
3038.16
3028.79
3019.6
3010.57
3001.73
2993.07
2984.6
2976.33
2968.26
2960.4
2952.75
2945.32
2938.11
2931.12
2924.36
2917.82
2911.52
2905.46
2899.63
2894.04
2888.69
2883.58
2878.72
2874.1
2869.72
2865.59
2861.7
2858.06
2854.67
2851.52
2848.62
2845.96
2843.54
2841.37
2839.45
2837.76
2836.32
2835.13
2834.17
2833.46
2832.97
2832.72
3737.08
3737
3736.82
3736.54
3736.16
3735.69
3735.13
3734.48
3733.73
3732.89
3731.95
3730.92
3729.8
3728.58
3727.26
3725.85
3724.34
3722.72
3721.01
3719.2
3717.28
3715.26
3713.13
3710.89
3708.54
3706.07
3703.49
3700.8
3697.98
3695.04
3691.97
3688.78
3685.46
3682
3678.4
3674.66
3670.78
3666.75
3662.58
3658.25
3653.77
3649.13
3644.33
3639.36
3634.24
3628.94
3623.47
3617.83
3612.02
3606.03
3599.86
3593.52
3586.99
3580.29
3573.4
3566.34
3559.09
3551.66
3544.05
3536.27
3528.31
3520.13
3511.83
3503.34
3494.69
3485.86
3476.88
3467.73
3458.43
3448.98
3439.38
3429.64
3419.77
3409.76
3399.63
3389.37
3379.01
3368.54
3357.97
3347.31
3336.56
3325.74
3314.85
3303.89
3292.89
3281.84
3270.75
3259.63
3248.5
3237.35
3226.21
3215.07
3203.95
3192.86
3181.8
3170.79
3159.83
3148.94
3138.11
3127.37
3116.72
3106.16
3095.71
3085.38
3075.18
3065.1
3055.16
3045.38
3035.74
3026.28
3016.98
3007.85
2998.91
2990.16
2981.6
2973.24
2965.09
2957.15
2949.43
2941.92
2934.64
2927.58
2920.75
2914.16
2907.8
2901.68
2895.81
2890.17
2884.78
2879.63
2874.73
2870.08
2865.67
2861.52
2857.61
2853.95
2850.53
2847.37
2844.45
2841.78
2839.36
2837.18
2835.25
2833.56
2832.11
2830.92
2829.96
2829.25
2828.76
2828.5
3738.49
3738.42
3738.23
3737.96
3737.58
3737.13
3736.57
3735.93
3735.2
3734.37
3733.45
3732.44
3731.34
3730.14
3728.85
3727.46
3725.98
3724.39
3722.71
3720.93
3719.05
3717.06
3714.96
3712.76
3710.45
3708.03
3705.49
3702.83
3700.06
3697.16
3694.13
3690.98
3687.69
3684.27
3680.71
3677.01
3673.17
3669.18
3665.04
3660.74
3656.29
3651.67
3646.9
3641.95
3636.84
3631.56
3626.11
3620.48
3614.67
3608.68
3602.51
3596.16
3589.63
3582.91
3576
3568.92
3561.64
3554.18
3546.54
3538.72
3530.71
3522.51
3514.14
3505.6
3496.88
3488
3478.95
3469.73
3460.36
3450.83
3441.15
3431.32
3421.36
3411.26
3401.03
3390.69
3380.22
3369.65
3358.97
3348.21
3337.35
3326.41
3315.41
3304.34
3293.21
3282.04
3270.83
3259.59
3248.33
3237.06
3225.79
3214.52
3203.27
3192.05
3180.86
3169.71
3158.62
3147.59
3136.64
3125.76
3114.98
3104.29
3093.72
3083.26
3072.92
3062.72
3052.66
3042.75
3033
3023.41
3014
3004.77
2995.72
2986.86
2978.2
2969.74
2961.5
2953.46
2945.65
2938.06
2930.7
2923.56
2916.67
2910.01
2903.59
2897.41
2891.47
2885.79
2880.35
2875.16
2870.22
2865.53
2861.09
2856.91
2852.97
2849.29
2845.86
2842.68
2839.75
2837.06
2834.63
2832.45
2830.51
2828.81
2827.36
2826.16
2825.2
2824.49
2824
2823.74
3740.04
3739.97
3739.79
3739.52
3739.15
3738.7
3738.16
3737.53
3736.81
3736
3735.1
3734.11
3733.03
3731.86
3730.59
3729.23
3727.78
3726.23
3724.58
3722.84
3720.99
3719.04
3716.99
3714.83
3712.56
3710.18
3707.69
3705.08
3702.35
3699.5
3696.52
3693.41
3690.17
3686.8
3683.28
3679.63
3675.83
3671.87
3667.77
3663.51
3659.09
3654.51
3649.76
3644.84
3639.75
3634.49
3629.05
3623.43
3617.63
3611.64
3605.47
3599.11
3592.57
3585.84
3578.91
3571.8
3564.5
3557
3549.32
3541.45
3533.4
3525.15
3516.73
3508.12
3499.34
3490.38
3481.26
3471.96
3462.5
3452.89
3443.12
3433.2
3423.14
3412.94
3402.6
3392.15
3381.57
3370.88
3360.09
3349.2
3338.22
3327.16
3316.03
3304.83
3293.57
3282.26
3270.91
3259.54
3248.14
3236.73
3225.31
3213.9
3202.5
3191.13
3179.8
3168.51
3157.27
3146.09
3134.99
3123.96
3113.03
3102.2
3091.48
3080.87
3070.4
3060.05
3049.86
3039.81
3029.92
3020.21
3010.66
3001.3
2992.13
2983.16
2974.38
2965.82
2957.46
2949.33
2941.42
2933.73
2926.28
2919.06
2912.09
2905.35
2898.86
2892.62
2886.62
2880.88
2875.39
2870.15
2865.17
2860.44
2855.97
2851.76
2847.79
2844.09
2840.64
2837.44
2834.49
2831.8
2829.36
2827.16
2825.22
2823.52
2822.07
2820.86
2819.9
2819.19
2818.7
2818.43
3741.72
3741.65
3741.47
3741.21
3740.85
3740.41
3739.88
3739.26
3738.56
3737.77
3736.89
3735.92
3734.86
3733.72
3732.48
3731.16
3729.74
3728.23
3726.62
3724.91
3723.11
3721.21
3719.2
3717.09
3714.87
3712.54
3710.1
3707.54
3704.86
3702.06
3699.14
3696.08
3692.9
3689.57
3686.11
3682.5
3678.75
3674.84
3670.78
3666.56
3662.18
3657.63
3652.92
3648.03
3642.96
3637.72
3632.3
3626.69
3620.9
3614.92
3608.74
3602.38
3595.82
3589.07
3582.13
3574.99
3567.65
3560.13
3552.4
3544.48
3536.38
3528.08
3519.58
3510.91
3502.05
3493.02
3483.81
3474.43
3464.88
3455.17
3445.29
3435.27
3425.1
3414.79
3404.34
3393.76
3383.06
3372.25
3361.33
3350.3
3339.19
3327.99
3316.71
3305.36
3293.96
3282.5
3271.01
3259.47
3247.92
3236.35
3224.78
3213.2
3201.65
3190.12
3178.62
3167.16
3155.76
3144.42
3133.15
3121.96
3110.86
3099.87
3088.99
3078.22
3067.58
3057.09
3046.73
3036.54
3026.5
3016.64
3006.95
2997.45
2988.14
2979.04
2970.14
2961.45
2952.98
2944.73
2936.71
2928.92
2921.37
2914.06
2907
2900.18
2893.61
2887.3
2881.24
2875.43
2869.89
2864.6
2859.57
2854.8
2850.3
2846.05
2842.06
2838.33
2834.86
2831.64
2828.68
2825.98
2823.53
2821.33
2819.38
2817.67
2816.22
2815.02
2814.05
2813.34
2812.85
2812.58
3743.52
3743.46
3743.29
3743.03
3742.67
3742.24
3741.72
3741.12
3740.44
3739.66
3738.81
3737.87
3736.84
3735.72
3734.52
3733.23
3731.85
3730.38
3728.81
3727.15
3725.4
3723.54
3721.59
3719.53
3717.37
3715.09
3712.71
3710.21
3707.59
3704.85
3701.98
3698.99
3695.86
3692.59
3689.19
3685.63
3681.93
3678.08
3674.07
3669.89
3665.56
3661.05
3656.37
3651.52
3646.48
3641.26
3635.86
3630.27
3624.48
3618.51
3612.33
3605.96
3599.4
3592.63
3585.66
3578.49
3571.12
3563.55
3555.78
3547.81
3539.64
3531.28
3522.72
3513.97
3505.04
3495.91
3486.61
3477.13
3467.48
3457.66
3447.68
3437.54
3427.25
3416.81
3406.24
3395.53
3384.69
3373.74
3362.67
3351.5
3340.24
3328.89
3317.45
3305.95
3294.38
3282.76
3271.1
3259.4
3247.67
3235.93
3224.18
3212.43
3200.7
3188.99
3177.31
3165.67
3154.09
3142.56
3131.11
3119.75
3108.47
3097.3
3086.23
3075.29
3064.48
3053.81
3043.28
3032.92
3022.72
3012.69
3002.85
2993.2
2983.74
2974.49
2965.45
2956.63
2948.03
2939.66
2931.52
2923.62
2915.96
2908.55
2901.39
2894.48
2887.83
2881.44
2875.31
2869.44
2863.83
2858.49
2853.41
2848.6
2844.06
2839.77
2835.76
2832
2828.51
2825.28
2822.31
2819.59
2817.14
2814.93
2812.98
2811.27
2809.82
2808.61
2807.65
2806.94
2806.45
2806.18
3745.44
3745.38
3745.21
3744.96
3744.62
3744.19
3743.69
3743.1
3742.44
3741.68
3740.85
3739.94
3738.94
3737.86
3736.69
3735.44
3734.1
3732.67
3731.15
3729.54
3727.84
3726.04
3724.14
3722.15
3720.04
3717.83
3715.51
3713.08
3710.53
3707.85
3705.05
3702.12
3699.06
3695.86
3692.52
3689.03
3685.38
3681.59
3677.63
3673.51
3669.22
3664.76
3660.13
3655.31
3650.31
3645.12
3639.73
3634.16
3628.39
3622.42
3616.25
3609.87
3603.29
3596.51
3589.51
3582.31
3574.9
3567.29
3559.47
3551.44
3543.21
3534.78
3526.14
3517.31
3508.28
3499.07
3489.67
3480.08
3470.32
3460.39
3450.28
3440.02
3429.59
3419.02
3408.3
3397.45
3386.47
3375.36
3364.14
3352.81
3341.38
3329.86
3318.26
3306.58
3294.84
3283.04
3271.19
3259.31
3247.39
3235.46
3223.52
3211.58
3199.66
3187.75
3175.87
3164.04
3152.25
3140.53
3128.88
3117.32
3105.84
3094.47
3083.21
3072.08
3061.07
3050.21
3039.5
3028.95
3018.57
3008.37
2998.35
2988.53
2978.91
2969.5
2960.31
2951.34
2942.6
2934.09
2925.82
2917.8
2910.02
2902.5
2895.24
2888.23
2881.49
2875.02
2868.81
2862.87
2857.2
2851.8
2846.67
2841.82
2837.23
2832.92
2828.87
2825.1
2821.59
2818.34
2815.36
2812.64
2810.17
2807.97
2806.01
2804.31
2802.85
2801.65
2800.69
2799.98
2799.49
2799.22
3747.46
3747.41
3747.25
3747
3746.66
3746.25
3745.76
3745.19
3744.54
3743.82
3743.01
3742.12
3741.16
3740.11
3738.98
3737.77
3736.48
3735.1
3733.63
3732.08
3730.44
3728.7
3726.86
3724.93
3722.89
3720.75
3718.5
3716.14
3713.66
3711.06
3708.34
3705.48
3702.49
3699.36
3696.09
3692.67
3689.1
3685.37
3681.48
3677.41
3673.18
3668.77
3664.18
3659.41
3654.44
3649.29
3643.93
3638.38
3632.62
3626.66
3620.49
3614.11
3607.52
3600.71
3593.69
3586.46
3579.01
3571.35
3563.47
3555.38
3547.08
3538.57
3529.85
3520.93
3511.81
3502.49
3492.98
3483.28
3473.39
3463.33
3453.09
3442.69
3432.13
3421.4
3410.54
3399.52
3388.38
3377.11
3365.71
3354.21
3342.6
3330.9
3319.12
3307.25
3295.32
3283.32
3271.28
3259.2
3247.08
3234.95
3222.8
3210.65
3198.51
3186.39
3174.3
3162.25
3150.25
3138.31
3126.44
3114.66
3102.97
3091.38
3079.91
3068.56
3057.35
3046.28
3035.36
3024.61
3014.03
3003.64
2993.43
2983.43
2973.63
2964.05
2954.69
2945.56
2936.66
2928.01
2919.6
2911.44
2903.54
2895.9
2888.53
2881.42
2874.58
2868.02
2861.73
2855.71
2849.98
2844.52
2839.34
2834.44
2829.82
2825.47
2821.4
2817.6
2814.07
2810.82
2807.83
2805.1
2802.63
2800.43
2798.47
2796.77
2795.33
2794.13
2793.17
2792.47
2791.98
2791.71
3749.58
3749.53
3749.38
3749.14
3748.81
3748.41
3747.93
3747.38
3746.75
3746.05
3745.27
3744.41
3743.48
3742.47
3741.39
3740.22
3738.98
3737.65
3736.25
3734.75
3733.17
3731.5
3729.73
3727.87
3725.91
3723.85
3721.68
3719.4
3717
3714.48
3711.84
3709.06
3706.16
3703.11
3699.92
3696.57
3693.08
3689.42
3685.6
3681.6
3677.43
3673.08
3668.55
3663.82
3658.9
3653.78
3648.45
3642.92
3637.18
3631.23
3625.07
3618.68
3612.08
3605.25
3598.2
3590.93
3583.44
3575.72
3567.79
3559.63
3551.26
3542.66
3533.86
3524.84
3515.61
3506.18
3496.55
3486.72
3476.71
3466.5
3456.12
3445.57
3434.85
3423.97
3412.93
3401.75
3390.43
3378.98
3367.4
3355.71
3343.91
3332.02
3320.03
3307.96
3295.82
3283.62
3271.36
3259.06
3246.73
3234.37
3222
3209.62
3197.26
3184.9
3172.58
3160.3
3148.06
3135.89
3123.79
3111.77
3099.84
3088.02
3076.31
3064.73
3053.29
3042
3030.86
3019.89
3009.1
2998.49
2988.08
2977.88
2967.89
2958.12
2948.58
2939.27
2930.21
2921.4
2912.84
2904.54
2896.5
2888.73
2881.24
2874.02
2867.08
2860.42
2854.04
2847.95
2842.15
2836.63
2831.39
2826.45
2821.78
2817.4
2813.31
2809.49
2805.95
2802.69
2799.69
2796.97
2794.51
2792.3
2790.36
2788.67
2787.23
2786.04
2785.09
2784.39
2783.91
2783.63
3751.79
3751.75
3751.6
3751.37
3751.05
3750.66
3750.19
3749.66
3749.05
3748.37
3747.62
3746.8
3745.9
3744.93
3743.89
3742.78
3741.59
3740.32
3738.97
3737.55
3736.03
3734.43
3732.75
3730.96
3729.09
3727.11
3725.02
3722.83
3720.52
3718.09
3715.54
3712.86
3710.05
3707.09
3703.98
3700.73
3697.32
3693.74
3690
3686.08
3681.98
3677.69
3673.22
3668.55
3663.67
3658.59
3653.31
3647.8
3642.09
3636.15
3629.98
3623.59
3616.98
3610.13
3603.05
3595.75
3588.21
3580.43
3572.43
3564.2
3555.75
3547.06
3538.16
3529.03
3519.69
3510.14
3500.38
3490.42
3480.26
3469.91
3459.37
3448.66
3437.77
3426.71
3415.5
3404.13
3392.62
3380.98
3369.21
3357.31
3345.31
3333.2
3321
3308.71
3296.35
3283.92
3271.43
3258.9
3246.33
3233.74
3221.12
3208.5
3195.89
3183.29
3170.71
3158.18
3145.69
3133.26
3120.9
3108.63
3096.45
3084.37
3072.41
3060.58
3048.89
3037.35
3025.97
3014.76
3003.74
2992.9
2982.27
2971.85
2961.65
2951.68
2941.94
2932.45
2923.21
2914.23
2905.5
2897.05
2888.87
2880.97
2873.34
2866.01
2858.96
2852.2
2845.73
2839.56
2833.68
2828.1
2822.81
2817.81
2813.12
2808.71
2804.59
2800.76
2797.21
2793.95
2790.95
2788.23
2785.78
2783.59
2781.66
2779.98
2778.55
2777.38
2776.44
2775.75
2775.27
2774.99
3754.07
3754.04
3753.9
3753.67
3753.35
3752.97
3752.52
3752.01
3751.42
3750.77
3750.05
3749.26
3748.4
3747.48
3746.49
3745.42
3744.29
3743.09
3741.81
3740.45
3739.01
3737.49
3735.89
3734.19
3732.41
3730.52
3728.53
3726.43
3724.22
3721.9
3719.45
3716.87
3714.15
3711.3
3708.29
3705.13
3701.82
3698.33
3694.68
3690.84
3686.82
3682.61
3678.2
3673.59
3668.77
3663.74
3658.49
3653.03
3647.33
3641.41
3635.25
3628.86
3622.23
3615.36
3608.25
3600.9
3593.31
3585.48
3577.41
3569.1
3560.56
3551.78
3542.77
3533.53
3524.06
3514.37
3504.48
3494.37
3484.05
3473.54
3462.84
3451.95
3440.88
3429.64
3418.23
3406.67
3394.96
3383.1
3371.12
3359
3346.78
3334.44
3322.01
3309.49
3296.89
3284.22
3271.49
3258.71
3245.89
3233.03
3220.16
3207.28
3194.4
3181.53
3168.69
3155.88
3143.12
3130.41
3117.78
3105.23
3092.77
3080.42
3068.19
3056.09
3044.13
3032.32
3020.68
3009.22
2997.94
2986.86
2975.99
2965.33
2954.91
2944.72
2934.77
2925.08
2915.64
2906.47
2897.58
2888.96
2880.62
2872.57
2864.81
2857.35
2850.19
2843.32
2836.76
2830.5
2824.55
2818.9
2813.56
2808.53
2803.79
2799.36
2795.22
2791.38
2787.84
2784.57
2781.59
2778.89
2776.45
2774.28
2772.37
2770.71
2769.3
2768.14
2767.22
2766.54
2766.07
2765.8
3756.42
3756.39
3756.26
3756.03
3755.72
3755.35
3754.92
3754.42
3753.85
3753.23
3752.53
3751.78
3750.97
3750.09
3749.15
3748.14
3747.07
3745.93
3744.73
3743.45
3742.09
3740.66
3739.15
3737.55
3735.86
3734.07
3732.19
3730.2
3728.1
3725.88
3723.54
3721.08
3718.47
3715.73
3712.84
3709.79
3706.57
3703.19
3699.63
3695.89
3691.96
3687.83
3683.5
3678.96
3674.2
3669.23
3664.02
3658.59
3652.93
3647.02
3640.87
3634.48
3627.84
3620.95
3613.81
3606.41
3598.77
3590.87
3582.73
3574.33
3565.69
3556.81
3547.68
3538.32
3528.72
3518.89
3508.84
3498.57
3488.09
3477.41
3466.52
3455.44
3444.18
3432.74
3421.12
3409.35
3397.42
3385.34
3373.13
3360.79
3348.32
3335.75
3323.07
3310.3
3297.44
3284.51
3271.52
3258.47
3245.38
3232.25
3219.1
3205.94
3192.78
3179.62
3166.49
3153.39
3140.33
3127.33
3114.4
3101.56
3088.8
3076.16
3063.63
3051.23
3038.98
3026.89
3014.96
3003.22
2991.67
2980.33
2969.19
2958.29
2947.62
2937.19
2927.02
2917.11
2907.47
2898.1
2889.02
2880.23
2871.73
2863.52
2855.62
2848.03
2840.74
2833.77
2827.11
2820.76
2814.73
2809.02
2803.63
2798.55
2793.79
2789.33
2785.19
2781.35
2777.8
2774.55
2771.59
2768.91
2766.5
2764.36
2762.48
2760.85
2759.47
2758.34
2757.44
2756.78
2756.32
2756.05
3758.81
3758.79
3758.67
3758.45
3758.14
3757.78
3757.35
3756.87
3756.33
3755.73
3755.07
3754.35
3753.58
3752.75
3751.86
3750.92
3749.91
3748.85
3747.72
3746.52
3745.26
3743.92
3742.5
3741.01
3739.43
3737.76
3735.99
3734.12
3732.14
3730.04
3727.83
3725.48
3723
3720.38
3717.61
3714.68
3711.58
3708.32
3704.87
3701.23
3697.39
3693.36
3689.11
3684.65
3679.97
3675.05
3669.9
3664.51
3658.88
3652.99
3646.86
3640.46
3633.81
3626.9
3619.72
3612.28
3604.58
3596.62
3588.39
3579.91
3571.16
3562.16
3552.91
3543.41
3533.67
3523.69
3513.48
3503.04
3492.38
3481.5
3470.42
3459.14
3447.67
3436.01
3424.18
3412.18
3400.01
3387.7
3375.24
3362.65
3349.93
3337.1
3324.16
3311.12
3298
3284.8
3271.52
3258.19
3244.81
3231.39
3217.95
3204.49
3191.02
3177.56
3164.11
3150.7
3137.33
3124.01
3110.76
3097.6
3084.52
3071.56
3058.71
3046
3033.43
3021.03
3008.8
2996.76
2984.91
2973.28
2961.87
2950.69
2939.76
2929.08
2918.67
2908.53
2898.67
2889.09
2879.81
2870.83
2862.15
2853.79
2845.73
2838
2830.59
2823.5
2816.74
2810.3
2804.2
2798.42
2792.98
2787.86
2783.07
2778.6
2774.45
2770.62
2767.09
2763.87
2760.94
2758.3
2755.93
2753.83
2751.99
2750.41
2749.06
2747.96
2747.09
2746.45
2746.01
2745.74
3761.23
3761.22
3761.1
3760.89
3760.58
3760.23
3759.81
3759.35
3758.82
3758.25
3757.62
3756.95
3756.22
3755.44
3754.61
3753.73
3752.8
3751.81
3750.76
3749.66
3748.49
3747.25
3745.95
3744.56
3743.1
3741.55
3739.91
3738.17
3736.32
3734.36
3732.28
3730.07
3727.73
3725.24
3722.61
3719.81
3716.85
3713.7
3710.37
3706.85
3703.13
3699.2
3695.05
3690.67
3686.07
3681.22
3676.13
3670.79
3665.2
3659.34
3653.22
3646.82
3640.16
3633.22
3626.01
3618.52
3610.76
3602.72
3594.41
3585.82
3576.97
3567.85
3558.46
3548.82
3538.92
3528.77
3518.38
3507.76
3496.91
3485.83
3474.54
3463.04
3451.35
3439.46
3427.39
3415.14
3402.73
3390.16
3377.45
3364.59
3351.61
3338.5
3325.28
3311.96
3298.55
3285.05
3271.49
3257.85
3244.17
3230.44
3216.68
3202.9
3189.11
3175.32
3161.54
3147.8
3134.09
3120.43
3106.84
3093.33
3079.91
3066.6
3053.41
3040.36
3027.46
3014.72
3002.16
2989.79
2977.63
2965.69
2953.98
2942.51
2931.3
2920.35
2909.68
2899.29
2889.19
2879.39
2869.9
2860.72
2851.86
2843.32
2835.11
2827.23
2819.69
2812.48
2805.61
2799.09
2792.9
2787.06
2781.57
2776.42
2771.61
2767.13
2762.99
2759.18
2755.69
2752.5
2749.62
2747.03
2744.72
2742.68
2740.9
2739.37
2738.08
2737.02
2736.19
2735.58
2735.16
2734.89
3763.67
3763.67
3763.56
3763.34
3763.04
3762.69
3762.28
3761.83
3761.33
3760.78
3760.18
3759.54
3758.86
3758.14
3757.37
3756.55
3755.7
3754.79
3753.84
3752.83
3751.76
3750.64
3749.45
3748.19
3746.86
3745.44
3743.94
3742.34
3740.64
3738.83
3736.89
3734.84
3732.65
3730.31
3727.82
3725.17
3722.35
3719.35
3716.16
3712.77
3709.17
3705.35
3701.31
3697.03
3692.51
3687.75
3682.73
3677.44
3671.89
3666.06
3659.95
3653.57
3646.89
3639.93
3632.68
3625.14
3617.31
3609.19
3600.79
3592.09
3583.12
3573.86
3564.33
3554.53
3544.47
3534.14
3523.56
3512.74
3501.68
3490.38
3478.87
3467.14
3455.2
3443.07
3430.74
3418.24
3405.56
3392.72
3379.73
3366.6
3353.33
3339.93
3326.42
3312.8
3299.08
3285.28
3271.4
3257.45
3243.44
3229.38
3215.29
3201.17
3187.03
3172.9
3158.77
3144.66
3130.59
3116.57
3102.62
3088.74
3074.95
3061.27
3047.71
3034.29
3021.02
3007.93
2995.01
2982.3
2969.79
2957.52
2945.48
2933.7
2922.19
2910.95
2900
2889.35
2879
2868.97
2859.25
2849.87
2840.81
2832.09
2823.72
2815.68
2808
2800.67
2793.69
2787.07
2780.81
2774.91
2769.37
2764.19
2759.37
2754.9
2750.78
2747
2743.55
2740.43
2737.61
2735.09
2732.86
2730.9
2729.2
2727.74
2726.52
2725.52
2724.73
2724.16
2723.77
2723.52
3766.1
3766.11
3766.01
3765.8
3765.49
3765.13
3764.73
3764.29
3763.81
3763.28
3762.72
3762.12
3761.48
3760.81
3760.11
3759.37
3758.59
3757.77
3756.92
3756.01
3755.06
3754.06
3753
3751.87
3750.68
3749.41
3748.06
3746.61
3745.07
3743.42
3741.66
3739.77
3737.74
3735.57
3733.25
3730.76
3728.1
3725.25
3722.21
3718.96
3715.5
3711.81
3707.89
3703.73
3699.31
3694.63
3689.68
3684.46
3678.96
3673.17
3667.08
3660.7
3654.02
3647.03
3639.74
3632.15
3624.25
3616.04
3607.53
3598.72
3589.62
3580.22
3570.53
3560.56
3550.31
3539.8
3529.01
3517.97
3506.69
3495.16
3483.4
3471.42
3459.23
3446.83
3434.23
3421.45
3408.5
3395.37
3382.09
3368.66
3355.08
3341.38
3327.56
3313.63
3299.59
3285.46
3271.25
3256.96
3242.61
3228.21
3213.76
3199.28
3184.78
3170.28
3155.77
3141.29
3126.83
3112.42
3098.07
3083.8
3069.61
3055.53
3041.58
3027.76
3014.11
3000.62
2987.32
2974.23
2961.36
2948.73
2936.35
2924.23
2912.39
2900.84
2889.6
2878.66
2868.05
2857.77
2847.82
2838.21
2828.95
2820.05
2811.5
2803.31
2795.48
2788.02
2780.93
2774.22
2767.88
2761.92
2756.33
2751.13
2746.31
2741.85
2737.77
2734.04
2730.66
2727.62
2724.9
2722.48
2720.35
2718.49
2716.89
2715.53
2714.39
2713.47
2712.75
2712.23
2711.87
2711.63
3768.5
3768.53
3768.44
3768.22
3767.91
3767.55
3767.15
3766.71
3766.25
3765.74
3765.21
3764.65
3764.06
3763.45
3762.81
3762.14
3761.45
3760.73
3759.98
3759.19
3758.36
3757.48
3756.56
3755.58
3754.54
3753.43
3752.24
3750.97
3749.6
3748.13
3746.55
3744.84
3743
3741.01
3738.87
3736.56
3734.08
3731.4
3728.53
3725.44
3722.13
3718.59
3714.8
3710.76
3706.46
3701.88
3697.02
3691.87
3686.42
3680.67
3674.61
3668.24
3661.55
3654.54
3647.2
3639.55
3631.57
3623.27
3614.65
3605.72
3596.47
3586.92
3577.06
3566.91
3556.46
3545.73
3534.72
3523.46
3511.93
3500.15
3488.13
3475.88
3463.41
3450.73
3437.85
3424.78
3411.52
3398.09
3384.5
3370.75
3356.86
3342.84
3328.69
3314.42
3300.05
3285.58
3271.02
3256.38
3241.67
3226.9
3212.08
3197.22
3182.34
3167.44
3152.54
3137.65
3122.78
3107.96
3093.19
3078.49
3063.88
3049.37
3034.99
3020.75
3006.67
2992.76
2979.05
2965.56
2952.29
2939.27
2926.51
2914.04
2901.85
2889.97
2878.41
2867.18
2856.29
2845.74
2835.55
2825.71
2816.24
2807.14
2798.41
2790.06
2782.08
2774.49
2767.28
2760.47
2754.05
2748.03
2742.41
2737.19
2732.38
2727.96
2723.92
2720.27
2716.99
2714.05
2711.45
2709.16
2707.17
2705.45
2703.98
2702.74
2701.72
2700.9
2700.26
2699.79
2699.48
2699.27
3770.86
3770.9
3770.82
3770.6
3770.27
3769.9
3769.5
3769.07
3768.61
3768.13
3767.62
3767.1
3766.56
3766
3765.43
3764.85
3764.25
3763.63
3762.98
3762.32
3761.62
3760.89
3760.12
3759.3
3758.42
3757.49
3756.48
3755.39
3754.21
3752.94
3751.55
3750.04
3748.4
3746.62
3744.68
3742.57
3740.28
3737.8
3735.11
3732.2
3729.06
3725.68
3722.04
3718.14
3713.96
3709.49
3704.73
3699.66
3694.28
3688.58
3682.55
3676.18
3669.49
3662.45
3655.07
3647.35
3639.29
3630.89
3622.16
3613.09
3603.68
3593.96
3583.92
3573.56
3562.9
3551.95
3540.7
3529.18
3517.39
3505.34
3493.05
3480.51
3467.75
3454.77
3441.58
3428.19
3414.61
3400.86
3386.94
3372.87
3358.64
3344.28
3329.79
3315.17
3300.45
3285.62
3270.69
3255.68
3240.6
3225.44
3210.23
3194.98
3179.69
3164.37
3149.05
3133.73
3118.43
3103.16
3087.94
3072.79