/*--------------------------------*- C++ -*----------------------------------*\
| =========                 |                                                 |
| \\      /  F ield         | OpenFOAM: The Open Source CFD Toolbox           |
|  \\    /   O peration     | Version:  v2006                                 |
|   \\  /    A nd           | Website:  www.openfoam.com                      |
|    \\/     M anipulation  |                                                 |
\*---------------------------------------------------------------------------*/
FoamFile
{
    version     2.0;
    format      ascii;
    class       surfaceScalarField;
    location    "9.5";
    object      phi;
}
// * * * * * * * * * * * * * * * * * * * * * * * * * * * * * * * * * * * * * //

dimensions      [0 3 -1 0 0 0 0];
oriented        oriented;


internalField   nonuniform List<scalar> 
299200
(
0.000431164
-0.000431164
0.00122011
-0.000788942
0.00201295
-0.000792842
0.0027449
-0.000731953
0.00343135
-0.000686453
0.00409299
-0.000661631
0.00474247
-0.00064948
0.00538624
-0.000643774
0.00602728
-0.000641037
0.00666681
-0.000639529
0.00730529
-0.000638482
0.00794291
-0.000637622
0.00857981
-0.000636897
0.00921614
-0.000636338
0.00985213
-0.000635983
0.010488
-0.00063583
0.0111238
-0.000635847
0.0117598
-0.000635986
0.012396
-0.000636194
0.0130324
-0.000636426
0.0136691
-0.000636642
0.0143059
-0.000636808
0.0149428
-0.000636893
0.0155796
-0.000636866
0.0162163
-0.000636699
0.0168527
-0.000636368
0.0174885
-0.000635862
0.0181237
-0.000635181
0.0187581
-0.000634336
0.0193914
-0.000633335
0.0200236
-0.000632189
0.0206545
-0.000630897
0.0212839
-0.000629455
0.0219118
-0.000627853
0.0225379
-0.000626079
0.023162
-0.000624132
0.023784
-0.00062203
0.0244039
-0.00061983
0.0250215
-0.000617639
0.0256371
-0.000615602
0.026251
-0.000613889
0.0268637
-0.000612657
0.0274757
-0.000612021
0.0280877
-0.000612023
0.0287003
-0.000612625
0.029314
-0.000613705
0.0299291
-0.000615055
0.0305455
-0.000616391
0.0311628
-0.000617369
0.0317805
-0.000617614
0.0323972
-0.000616767
0.0330118
-0.00061453
0.0336225
-0.000610728
0.0342279
-0.000605407
0.0348268
-0.000598928
0.0354188
-0.00059199
0.0360043
-0.000585518
0.0365848
-0.000580454
0.0371623
-0.000577539
0.0377395
-0.000577146
0.0383187
-0.000579206
0.0389019
-0.000583251
0.0394905
-0.000588553
0.0400848
-0.000594309
0.0406846
-0.000599806
0.0412891
-0.000604533
0.0418973
-0.000608231
0.0425082
-0.000610873
0.0431208
-0.000612601
0.0437345
-0.000613654
0.0443488
-0.000614278
0.0449634
-0.000614671
0.0455784
-0.000614937
0.0461934
-0.00061508
0.0468084
-0.000615006
0.047423
-0.000614536
0.0480364
-0.00061341
0.0486477
-0.000611287
0.0492554
-0.000607742
0.0498577
-0.00060231
0.0504523
-0.000594586
0.0510367
-0.000584363
0.0516085
-0.000571821
0.0521662
-0.000557677
0.0527094
-0.000543264
0.0532399
-0.000530424
0.0537611
-0.000521228
0.0542786
-0.000517548
0.0547992
-0.000520604
0.0553299
-0.000530651
0.0558767
-0.000546789
0.0564437
-0.000567028
0.0570326
-0.000588843
0.0576426
-0.000610018
0.0582718
-0.000629188
0.0589168
-0.000645033
0.0595708
-0.000654021
0.0602196
-0.000648804
0.0608401
-0.000620471
0.0614052
-0.000565105
0.061895
-0.000489832
0.0623068
-0.000411791
0.0626557
-0.000348912
0.062966
-0.000310304
0.0632595
-0.000293489
0.0635487
-0.000289219
0.0638376
-0.000288842
0.0641256
-0.000288058
0.064412
-0.000286304
0.0646964
-0.000284417
0.0649794
-0.000282995
0.0652614
-0.000282057
0.0655428
-0.000281354
0.0658234
-0.000280675
0.0661034
-0.000279915
0.0663824
-0.000279001
0.0666602
-0.000277804
0.0669363
-0.000276093
0.0672098
-0.000273521
0.0674795
-0.000269681
0.0677437
-0.000264207
0.0680006
-0.000256964
0.0682488
-0.000248214
0.0684875
-0.00023866
0.0687168
-0.000229276
0.0689379
-0.000221108
0.0691529
-0.00021503
0.0693642
-0.000211295
0.0695733
-0.000209088
0.0697796
-0.000206276
0.0699781
-0.000198561
0.0701562
-0.00017805
0.0702897
-0.000133535
0.0703489
-5.91215e-05
0.0703167
3.21843e-05
0.0702027
0.000114001
0.0700343
0.000168395
0.06984
0.000194287
0.0696493
0.000190661
0.069486
0.000163348
0.0693688
0.000117158
0.0693025
6.63226e-05
0.0692778
2.47078e-05
0.0692751
2.68214e-06
0.0692763
-1.20537e-06
0.0692691
7.18353e-06
0.069248
2.11037e-05
0.0692145
3.35015e-05
0.0691723
4.22098e-05
0.0691242
4.81403e-05
0.0690712
5.29702e-05
0.0690133
5.78643e-05
0.0689502
6.31693e-05
0.0688815
6.86942e-05
0.0688074
7.40868e-05
0.0687283
7.90551e-05
0.0686449
8.34317e-05
0.0685577
8.71605e-05
0.0684675
9.02712e-05
0.0683746
9.28587e-05
0.0682795
9.50659e-05
0.0681825
9.70609e-05
0.0680835
9.9012e-05
0.0679824
0.000101064
0.0678791
0.000103326
0.0677732
0.000105867
0.0676645
0.00010871
0.0675527
0.000111848
0.0674374
0.000115244
0.0673186
0.000118856
0.0671959
0.000122624
0.0670694
0.000126485
0.0669391
0.00013036
0.0668049
0.000134171
0.0666671
0.000137847
0.0665258
0.000141313
0.0663812
0.000144526
0.0662338
0.000147457
0.0660837
0.000150084
0.0659313
0.000152428
0.0657767
0.000154536
0.0656203
0.000156437
0.0654621
0.000158202
0.0653022
0.000159862
0.0651408
0.000161414
0.064978
0.000162829
0.064814
0.000164007
0.0646492
0.000164811
0.0644841
0.000165093
0.0643194
0.000164687
0.0641559
0.000163456
0.0639946
0.000161309
0.0638364
0.000158209
0.0636822
0.000154189
0.0635329
0.000149312
0.0633892
0.000143687
0.0632518
0.000137434
0.0631211
0.000130686
0.0629975
0.000123563
0.0628814
0.000116168
0.0627728
0.000108597
0.0626719
0.000100925
0.0625787
9.31965e-05
0.0624932
8.54532e-05
0.0624155
7.77239e-05
0.0623454
7.00405e-05
0.062283
6.24143e-05
0.0622281
5.49135e-05
0.0621805
4.76156e-05
0.0621398
4.06825e-05
0.0621056
3.42525e-05
0.062077
2.85495e-05
0.0620528
2.42376e-05
0.0620322
2.06161e-05
0.062027
5.11097e-06
0.0620549
-2.78368e-05
0.0620732
-1.83515e-05
0.0618957
0.000177554
0.0613669
0.000528782
0.0604891
0.000877841
0.059419
0.00107009
0.0583718
0.00104714
0.0574828
0.000889025
0.0567897
0.000693115
0.0562403
0.000549428
0.0557506
0.000489625
0.055262
0.000488679
0.0547591
0.000502832
0.0542564
0.000502753
0.0537749
0.000481443
0.0533295
0.000445462
0.0529256
0.000403855
0.0525633
0.000362293
0.0522405
0.000322852
0.0519544
0.000286068
0.0517019
0.000252475
0.051479
0.00022297
0.0512805
0.000198492
0.0511009
0.000179612
0.0509345
0.00016631
0.0507766
0.000157916
0.0506234
0.00015325
0.0504724
0.000150929
0.0503226
0.000149818
0.0501732
0.000149454
0.0500229
0.000150297
0.0498693
0.000153594
0.0497094
0.00015993
0.0495381
0.000171241
0.0493487
0.000189411
0.0491325
0.00021617
0.0488797
0.000252807
0.0485803
0.000299472
0.0482259
0.00035436
0.0478128
0.000413045
0.0473445
0.000468363
0.0468331
0.00051141
0.0462992
0.000533892
0.0457672
0.000532028
0.0452569
0.000510242
0.0447847
0.000472175
0.0443578
0.000426894
0.0439748
0.000383042
0.0436283
0.000346533
0.0433089
0.000319371
0.0430091
0.000299811
0.0427249
0.000284222
0.0424556
0.000269311
0.0422021
0.000253463
0.0419652
0.000236914
0.0417441
0.000221096
0.0415364
0.000207707
0.0413384
0.000197995
0.041146
0.000192421
0.0409553
0.000190639
0.0407637
0.000191643
0.0405696
0.000194056
0.0403731
0.000196479
0.0401754
0.000197718
0.0399785
0.000196911
0.0397849
0.000193624
0.039597
0.000187909
0.0394167
0.000180263
0.0392452
0.000171518
0.0390828
0.000162421
0.0389291
0.000153632
0.0387836
0.000145546
0.0386454
0.000138235
0.0385139
0.000131447
0.0383893
0.000124652
0.0382717
0.000117546
0.0381618
0.00010994
0.03806
0.000101766
0.037967
9.30525e-05
0.0378831
8.38703e-05
0.0378088
7.42966e-05
0.0377444
6.43811e-05
0.0376903
5.41322e-05
0.0376468
4.35291e-05
0.0376142
3.25583e-05
0.0375929
2.12875e-05
0.037583
9.93023e-06
0.0375839
-9.67076e-07
0.037596
-1.2098e-05
0.0376185
-2.24939e-05
0.0376515
-3.29573e-05
0.0376952
-4.37515e-05
0.0377502
-5.4989e-05
0.037817
-6.67255e-05
0.0378959
-7.89923e-05
0.0379877
-9.17969e-05
0.0380929
-0.000105122
0.0382118
-0.000118932
0.038345
-0.000133176
0.0384928
-0.0001478
0.0386555
-0.000162755
0.0388335
-0.000177994
0.039027
-0.000193473
0.0392362
-0.000209151
0.0394611
-0.000224989
0.0397021
-0.00024095
0.0399591
-0.000257002
0.0402322
-0.000273115
0.0405215
-0.000289259
0.0408269
-0.000305407
0.0411484
-0.000321529
0.041486
-0.0003376
0.0418396
-0.000353592
0.0422091
-0.000369482
0.0425943
-0.000385245
0.0429952
-0.000400857
0.0434115
-0.000416296
0.043843
-0.000431539
0.0442896
-0.000446564
0.0447509
-0.000461351
0.0452268
-0.000475877
0.0457169
-0.000490121
0.046221
-0.000504062
0.0467387
-0.000517678
0.0472696
-0.000530947
0.0478135
-0.000543846
0.0483698
-0.000556354
0.0489383
-0.000568447
0.0495184
-0.000580104
0.0501097
-0.000591302
0.0507117
-0.000602019
0.0513239
-0.000612233
0.0519458
-0.000621923
0.0525769
-0.000631068
0.0532166
-0.000639643
0.0538642
-0.000647627
0.0545192
-0.000654993
0.0551809
-0.000661716
0.0558487
-0.000667771
0.0565218
-0.000673139
0.0571996
-0.000677813
0.0578814
-0.000681811
0.0585666
-0.000685183
0.0592546
-0.000688019
0.0599451
-0.000690451
0.0606377
-0.000692647
0.0613325
-0.000694786
0.0620295
-0.000697029
0.062729
-0.000699471
0.0634311
-0.0007021
0.0641359
-0.000704755
0.064843
-0.000707119
0.0655517
-0.000708735
0.0662608
-0.000709072
0.0669684
-0.000707611
0.0676723
-0.000703946
0.0683702
-0.000697863
0.0690596
-0.000689368
0.0697383
-0.000678675
0.0704044
-0.000666125
0.0710565
-0.000652088
0.0716933
-0.000636867
0.072314
-0.000620633
0.0729174
-0.000603413
0.0735025
-0.000585123
0.0740681
-0.000565643
0.074613
-0.000544886
0.0751359
-0.000522848
0.0756355
-0.000499623
0.0761109
-0.000475371
0.0765611
-0.000450256
0.0769855
-0.000424387
0.0773833
-0.000397803
0.0777538
-0.000370488
0.0780962
-0.000342415
0.0784098
-0.000313565
0.0786937
-0.000283924
0.0789472
-0.00025347
0.0791694
-0.000222177
0.0793594
-0.00019002
0.0795164
-0.000157012
0.0796396
-0.000123239
0.0797286
-8.89289e-05
0.0797831
-5.45806e-05
0.0798047
-2.15703e-05
0.079795
9.68277e-06
0.0797567
3.83104e-05
0.0796923
6.4389e-05
0.0796025
8.98368e-05
0.079488
0.000114505
0.0793498
0.000138228
0.0791887
0.000161099
0.079006
0.000182652
0.0788034
0.000202606
0.0785827
0.000220743
0.0783454
0.000237287
0.0780923
0.000253092
0.0778228
0.000269518
0.0775348
0.000287956
0.0772256
0.000309233
0.0768923
0.000333266
0.0765331
0.000359213
0.0761471
0.000385996
0.0757343
0.000412814
0.0752949
0.00043935
0.0748293
0.000465647
0.0743374
0.000491865
0.0738193
0.000518106
0.0732749
0.000544376
0.0727043
0.000570621
0.0721075
0.000596781
0.0714847
0.000622816
0.070836
0.000648703
0.0701616
0.000674439
0.0694615
0.000700034
0.068736
0.000725517
0.0679851
0.000750943
0.0672087
0.000776403
0.0664066
0.000802033
0.0655786
0.000828005
0.0647242
0.000854474
0.0638427
0.000881438
0.0629342
0.000908564
0.0619991
0.000935082
0.0610392
0.000959889
0.0600573
0.000981914
0.0590567
0.00100059
0.0580406
0.00101613
0.0570112
0.00102939
0.0559698
0.00104139
0.054917
0.00105278
0.0538534
0.00106365
0.0527796
0.00107376
0.0516968
0.00108276
0.0506063
0.00109051
0.0495093
0.00109702
0.0484069
0.00110237
0.0473002
0.00110669
0.0461902
0.00111009
0.0450775
0.00111266
0.0439631
0.00111444
0.0428475
0.00111551
0.0417317
0.00111588
0.0406161
0.00111557
0.0395015
0.00111455
0.0383888
0.00111278
0.0372784
0.00111032
0.0361713
0.00110716
0.035068
0.00110328
0.0339693
0.00109868
0.0328759
0.00109341
0.0317884
0.00108748
0.0307075
0.00108094
0.0296336
0.00107385
0.0285674
0.00106624
0.0275092
0.00105817
0.0264595
0.00104972
0.0254185
0.00104098
0.0243865
0.00103198
0.0233636
0.0010229
0.0223498
0.00101377
0.0213451
0.0010047
0.0203493
0.000995887
0.0193618
0.000987423
0.0183824
0.000979392
0.0174105
0.000971922
0.0164455
0.000965074
0.0154866
0.000958865
0.0145333
0.000953294
0.0135849
0.000948365
0.0126409
0.000944013
0.0117007
0.000940253
0.0107635
0.000937158
0.00982879
0.00093471
0.00889616
0.000932638
0.00796587
0.000930282
0.00703922
0.000926657
0.00611836
0.000920857
0.00520635
0.000912014
0.00430886
0.000897484
0.00343915
0.00086971
0.00261851
0.000820639
0.00185177
0.000766744
0.00103551
0.000816262
0.00103551
0.000301254
-0.000732418
0.000923341
-0.00141103
0.00151913
-0.00138863
0.00203685
-0.00124967
0.00250599
-0.00115559
0.0029536
-0.00110924
0.00339365
-0.00108954
0.00383208
-0.0010822
0.00427108
-0.00108003
0.00471143
-0.00107988
0.00515358
-0.00108063
0.00559798
-0.00108202
0.00604516
-0.00108408
0.00649569
-0.00108687
0.00695008
-0.00109037
0.00740871
-0.00109446
0.0078718
-0.00109894
0.00833942
-0.00110361
0.0088115
-0.00110827
0.00928782
-0.00111274
0.00976803
-0.00111685
0.0102517
-0.00112045
0.0107382
-0.00112344
0.0112271
-0.00112572
0.0117176
-0.00112724
0.0122092
-0.00112797
0.0127013
-0.00112792
0.0131932
-0.0011271
0.0136844
-0.00112557
0.0141745
-0.00112338
0.0146629
-0.00112057
0.0151492
-0.0011172
0.015633
-0.00111332
0.0161142
-0.00110905
0.0165927
-0.00110452
0.0170685
-0.00109992
0.0175419
-0.0010955
0.0180136
-0.00109155
0.0184844
-0.00108838
0.018955
-0.0010862
0.0194262
-0.00108509
0.0198985
-0.00108492
0.0203718
-0.00108533
0.0208455
-0.00108576
0.0213184
-0.00108553
0.0217886
-0.00108392
0.0222538
-0.00108027
0.0227115
-0.00107404
0.023159
-0.00106492
0.0235944
-0.00105296
0.0240164
-0.00103873
0.0244253
-0.0010235
0.0248239
-0.00100929
0.0252171
-0.00099863
0.0256123
-0.000994116
0.0260181
-0.000997809
0.0264433
-0.00101066
0.0268949
-0.00103209
0.0273774
-0.00106002
0.0278915
-0.00109125
0.0284345
-0.00112221
0.0290009
-0.00114971
0.0295839
-0.00117152
0.0301763
-0.00118667
0.0307718
-0.00119537
0.0313659
-0.00119863
0.0319556
-0.00119787
0.0325393
-0.00119457
0.0331166
-0.00118991
0.0336876
-0.00118467
0.0342525
-0.00117923
0.0348114
-0.00117357
0.035364
-0.00116752
0.0359098
-0.00116081
0.036448
-0.00115325
0.0369782
-0.00114474
0.0375001
-0.00113527
0.0380136
-0.00112485
0.0385193
-0.00111342
0.0390179
-0.00110089
0.0395104
-0.00108707
0.0399979
-0.00107189
0.0404816
-0.00105548
0.0409623
-0.0010384
0.0414407
-0.0010217
0.0419172
-0.00100687
0.0423916
-0.000995652
0.0428637
-0.00098967
0.0433332
-0.000990084
0.0437998
-0.000997286
0.0442638
-0.00101073
0.0447257
-0.00102899
0.0451872
-0.00105035
0.0456512
-0.00107398
0.0461229
-0.0011009
0.0466107
-0.00113279
0.047125
-0.00116835
0.0476757
-0.00119953
0.0482674
-0.00121217
0.0488955
-0.0011932
0.0495456
-0.00113992
0.0501973
-0.00106353
0.0508315
-0.000983073
0.0514361
-0.000914882
0.0520081
-0.000865544
0.0525513
-0.000832443
0.0530717
-0.00080921
0.0535742
-0.000790567
0.0540619
-0.000773936
0.0545361
-0.000758644
0.0549977
-0.000744621
0.0554474
-0.000731717
0.0558857
-0.00071964
0.0563131
-0.000708121
0.0567302
-0.000697028
0.0571376
-0.000686362
0.057536
-0.000676186
0.0579264
-0.000666532
0.0583102
-0.000657297
0.0586886
-0.000648153
0.0590629
-0.000638486
0.0594334
-0.000627409
0.059799
-0.000613896
0.0601574
-0.000597036
0.0605045
-0.000576351
0.0608355
-0.000552116
0.0611461
-0.000525655
0.0614343
-0.000499473
0.0617025
-0.00047724
0.0619593
-0.000463075
0.0622213
-0.000460643
0.062515
-0.000471686
0.0628759
-0.000494425
0.0633392
-0.000522462
0.0639145
-0.00054308
0.0645685
-0.000540003
0.0652392
-0.000502346
0.0658537
-0.000420162
0.0663363
-0.000291993
0.0666315
-0.000131785
0.0667004
4.8258e-05
0.0665353
0.000231431
0.0661749
0.000385055
0.0656797
0.000497915
0.0651127
0.000565768
0.0645266
0.000593299
0.0639582
0.000589507
0.0634275
0.000564181
0.062943
0.00052671
0.0625062
0.000484959
0.0621145
0.000444601
0.0617634
0.000409011
0.061447
0.000379586
0.0611593
0.000356339
0.0608949
0.000338549
0.0606487
0.000325265
0.0604165
0.000315593
0.0601949
0.000308804
0.0599808
0.000304333
0.0597719
0.000301753
0.0595662
0.000300741
0.0593622
0.000301066
0.0591587
0.00030256
0.0589546
0.000305109
0.0587493
0.00030862
0.0585422
0.000313005
0.0583327
0.000318163
0.0581206
0.000323986
0.0579055
0.000330355
0.0576872
0.000337159
0.0574655
0.000344271
0.0572405
0.000351575
0.0570119
0.000358956
0.0567797
0.000366327
0.0565439
0.000373621
0.0563045
0.000380795
0.0560612
0.000387822
0.0558139
0.000394699
0.0555626
0.000401409
0.0553071
0.000407897
0.0550476
0.000414089
0.0547842
0.000419805
0.0545176
0.0004248
0.0542487
0.000428745
0.0539789
0.00043124
0.0537098
0.000431894
0.0534435
0.000430336
0.053182
0.000426304
0.0529274
0.000419689
0.0526815
0.000410545
0.0524459
0.000399134
0.0522213
0.000385884
0.0520082
0.000371309
0.0518064
0.000355995
0.0516152
0.000340484
0.0514337
0.000325201
0.0512607
0.000310438
0.0510951
0.000296309
0.0509359
0.000282768
0.0507824
0.000269637
0.0506344
0.000256636
0.0504918
0.000243437
0.0503553
0.00022971
0.0502256
0.000215162
0.0501038
0.000199504
0.0499914
0.000182494
0.0498899
0.000163876
0.0498015
0.000143333
0.0497286
0.000120492
0.0496745
9.48104e-05
0.0496434
6.54063e-05
0.0496405
3.14127e-05
0.0496751
-1.03342e-05
0.0497621
-6.64429e-05
0.0499189
-0.000151642
0.0501922
-0.000301158
0.0507102
-0.000536358
0.0516912
-0.000803431
0.0531704
-0.000950425
0.0549178
-0.000869603
0.0565851
-0.000597135
0.0578773
-0.000245148
0.058695
7.13604e-05
0.0590802
0.000307892
0.0591834
0.000446255
0.0591547
0.000518284
0.059088
0.000555386
0.0590136
0.000577319
0.0589235
0.00059278
0.0588001
0.000604883
0.0586294
0.000616161
0.0584031
0.00063016
0.0581147
0.000650633
0.0577573
0.000680299
0.0573234
0.00071994
0.056808
0.000767891
0.056211
0.000819941
0.0555397
0.000869807
0.0548091
0.000910202
0.0540412
0.000934269
0.0532622
0.000936936
0.0524996
0.000915821
0.051779
0.000871519
0.0511214
0.00080742
0.0505419
0.000728991
0.0500494
0.000642793
0.0496475
0.000555413
0.0493346
0.000472897
0.0491059
0.000399889
0.0489563
0.000339024
0.0488813
0.000291141
0.0488783
0.000255847
0.0489456
0.000232134
0.0490812
0.000218845
0.0492794
0.000214777
0.0495294
0.000218376
0.0498135
0.000227315
0.0501088
0.000238635
0.0503903
0.000250509
0.0506414
0.000259133
0.0508519
0.000261622
0.0510184
0.000260407
0.0511442
0.00025727
0.0512365
0.000254256
0.0513034
0.000252486
0.0513514
0.000251804
0.0513843
0.000251316
0.0514035
0.000250105
0.0514092
0.000247733
0.0514017
0.000244404
0.051382
0.000240769
0.0513522
0.000237535
0.0513151
0.000235094
0.0512742
0.000233321
0.0512333
0.000231554
0.0511962
0.000228727
0.0511667
0.000223612
0.051148
0.0002151
0.0511433
0.00020244
0.0511549
0.00018534
0.0511844
0.000164084
0.0512329
0.000139476
0.0513004
0.000112696
0.0513866
8.53234e-05
0.0514905
5.85301e-05
0.0516106
3.35252e-05
0.0517452
1.09252e-05
0.0518926
-9.11412e-06
0.0520522
-2.81383e-05
0.0522245
-4.76863e-05
0.0524098
-6.77369e-05
0.0526075
-8.77999e-05
0.0528165
-0.000107146
0.0530345
-0.000125018
0.0532591
-0.000140722
0.0534871
-0.000153679
0.053715
-0.000163531
0.0539394
-0.000170251
0.0541571
-0.000174225
0.0543659
-0.000176241
0.0545646
-0.000177373
0.0547533
-0.000178796
0.054934
-0.000181686
0.0551089
-0.0001869
0.0552806
-0.000194279
0.0554515
-0.000203862
0.0556232
-0.00021542
0.0557967
-0.000228497
0.0559726
-0.000242631
0.0561511
-0.000257514
0.0563323
-0.000272991
0.0565162
-0.000289001
0.0567028
-0.000305519
0.0568922
-0.000322528
0.0570844
-0.000340016
0.0572796
-0.000357966
0.057478
-0.000376363
0.0576797
-0.000395187
0.0578849
-0.000414421
0.058094
-0.000434049
0.0583071
-0.000454058
0.0585245
-0.000474434
0.0587466
-0.000495163
0.0589735
-0.000516225
0.0592057
-0.000537598
0.0594435
-0.000559257
0.059687
-0.000581169
0.0599367
-0.0006033
0.0601929
-0.000625614
0.0604557
-0.00064807
0.0607255
-0.000670624
0.0610024
-0.000693229
0.0612867
-0.000715837
0.0615785
-0.000738397
0.061878
-0.000760857
0.0621853
-0.000783161
0.0625005
-0.000805256
0.0628235
-0.000827086
0.0631544
-0.000848594
0.0634932
-0.000869724
0.0638397
-0.00089042
0.064194
-0.000910624
0.0645559
-0.000930283
0.0649251
-0.000949344
0.0653016
-0.000967756
0.065685
-0.000985471
0.0660752
-0.00100244
0.0664719
-0.00101862
0.0668748
-0.00103397
0.0672836
-0.00104845
0.067698
-0.00106202
0.0681177
-0.00107464
0.0685422
-0.00108629
0.0689714
-0.00109693
0.0694048
-0.00110657
0.0698423
-0.00111523
0.0702834
-0.00112297
0.0707281
-0.00112985
0.071176
-0.00113597
0.071627
-0.00114144
0.0720807
-0.00114634
0.0725366
-0.00115068
0.072994
-0.00115445
0.0734521
-0.00115756
0.0739099
-0.00115992
0.0743667
-0.00116148
0.0748218
-0.0011623
0.0752757
-0.00116258
0.0757292
-0.00116261
0.0761843
-0.00116266
0.0766431
-0.0011628
0.077108
-0.00116277
0.0775805
-0.00116184
0.0780608
-0.00115895
0.0785475
-0.00115287
0.079038
-0.00114258
0.0795287
-0.0011275
0.0800157
-0.00110768
0.080496
-0.00108368
0.0809673
-0.00105641
0.0814284
-0.00102677
0.081879
-0.000995491
0.0823191
-0.000962938
0.0827487
-0.000929224
0.0831676
-0.00089431
0.0835755
-0.000858157
0.083972
-0.000820812
0.0843566
-0.000782411
0.0847292
-0.000743121
0.0850898
-0.000703062
0.0854385
-0.000662256
0.0857752
-0.000620636
0.0860999
-0.000578083
0.0864122
-0.000534482
0.0867119
-0.000489751
0.0869987
-0.000443859
0.0872723
-0.000396822
0.0875321
-0.000348698
0.0877771
-0.000299602
0.0880053
-0.000249728
0.0882135
-0.000198561
0.0883976
-0.000145772
0.088554
-9.2057e-05
0.0886808
-3.69485e-05
0.0887797
1.55868e-05
0.08885
6.79618e-05
0.0888897
0.000121438
0.0888973
0.000174987
0.0888715
0.000228459
0.0888105
0.000281761
0.0887129
0.000334815
0.0885785
0.000387575
0.0884077
0.000440229
0.0882024
0.000493308
0.087964
0.000547579
0.0876936
0.000603759
0.0873905
0.000662229
0.0870536
0.000722893
0.0866812
0.000785254
0.0862719
0.000848645
0.0858251
0.000912469
0.0853406
0.000976327
0.0848187
0.00104001
0.0842597
0.00110342
0.0836638
0.00116649
0.0830314
0.00122914
0.082363
0.00129128
0.0816589
0.00135281
0.0809197
0.00141363
0.080146
0.00147367
0.0793387
0.00153287
0.0784984
0.00159117
0.0776263
0.00164856
0.0767233
0.00170502
0.0757907
0.00176065
0.0748295
0.00181558
0.0738409
0.00187005
0.0728253
0.00192417
0.0717827
0.00197769
0.0707129
0.00202969
0.0696162
0.00207864
0.0684939
0.00212284
0.0673489
0.00216117
0.0661846
0.0021937
0.0650043
0.00222163
0.0638105
0.00224662
0.0626042
0.00226997
0.0613858
0.00229212
0.0601557
0.00231282
0.0589147
0.00233157
0.0576637
0.00234803
0.0564039
0.00236212
0.0551366
0.002374
0.0538628
0.00238385
0.0525837
0.00239183
0.0513001
0.00239805
0.050013
0.00240259
0.0487234
0.00240548
0.0474322
0.00240672
0.0461405
0.0024063
0.0448491
0.00240417
0.0435591
0.00240034
0.0422714
0.00239485
0.0409869
0.00238772
0.0397066
0.002379
0.0384313
0.00236878
0.0371616
0.00235714
0.0358984
0.00234414
0.0346423
0.00232991
0.033394
0.00231456
0.032154
0.00229822
0.0309227
0.00228102
0.0297005
0.00226312
0.0284879
0.00224464
0.027285
0.0022258
0.026092
0.00220677
0.024909
0.00218772
0.0237359
0.00216892
0.0225727
0.0021506
0.0214192
0.00213293
0.020275
0.00211617
0.0191395
0.00210051
0.0180123
0.00208608
0.0168926
0.00207295
0.0157798
0.0020612
0.0146731
0.00205077
0.0135718
0.00204148
0.0124758
0.00203317
0.0113849
0.00202561
0.0102988
0.0020188
0.00921559
0.00201345
0.00813096
0.00201128
0.00703802
0.0020138
0.00593354
0.00201649
0.00483149
0.00199954
0.00377718
0.00192402
0.00283124
0.00176657
0.00200578
0.00159221
0.00117254
0.0016495
0.00220805
0.000273222
-0.00100564
0.00093597
-0.00207378
0.00158452
-0.00203718
0.00213111
-0.00179626
0.00260566
-0.00163015
0.00305048
-0.00155406
0.00349119
-0.00153025
0.00393797
-0.00152899
0.00439291
-0.00153497
0.00485548
-0.00154245
0.00532515
-0.0015503
0.00580199
-0.00155886
0.00628646
-0.00156855
0.00677905
-0.00157946
0.00728005
-0.00159137
0.00778945
-0.00160386
0.00830698
-0.00161647
0.00883212
-0.00162875
0.00936418
-0.00164034
0.00990236
-0.00165092
0.0104458
-0.00166025
0.0109934
-0.00166814
0.0115445
-0.00167449
0.012098
-0.00167922
0.0126531
-0.00168235
0.013209
-0.00168391
0.0137651
-0.001684
0.0143208
-0.00168274
0.0148754
-0.00168027
0.0154288
-0.00167674
0.0159806
-0.00167232
0.0165306
-0.0016672
0.0170788
-0.00166156
0.0176254
-0.00165563
0.0181705
-0.00164966
0.0187145
-0.0016439
0.0192576
-0.00163856
0.0197998
-0.00163383
0.0203412
-0.00162975
0.0208812
-0.00162621
0.021419
-0.0016229
0.0219534
-0.00161934
0.022483
-0.00161489
0.0230061
-0.00160889
0.0235213
-0.00160076
0.0240276
-0.00159016
0.0245245
-0.00157715
0.0250127
-0.00156224
0.0254942
-0.00154645
0.0259725
-0.00153131
0.0264525
-0.00151871
0.0269399
-0.00151084
0.0274405
-0.00150995
0.0279599
-0.00151797
0.0285018
-0.00153605
0.0290682
-0.00156418
0.0296584
-0.00160092
0.0302697
-0.00164333
0.030897
-0.00168737
0.0315344
-0.00172867
0.0321755
-0.00176333
0.0328145
-0.00178861
0.0334462
-0.0018033
0.0340672
-0.00180764
0.0346749
-0.00180304
0.0352678
-0.00179158
0.0358455
-0.00177552
0.0364078
-0.00175691
0.0369552
-0.00173725
0.0374879
-0.00171742
0.0380064
-0.00169775
0.038511
-0.00167812
0.0390017
-0.0016582
0.0394786
-0.00163771
0.0399418
-0.00161652
0.0403919
-0.00159479
0.0408295
-0.00157289
0.041256
-0.00155133
0.0416731
-0.00153058
0.0420832
-0.00151098
0.0424888
-0.00149264
0.0428925
-0.00147554
0.0432966
-0.00145959
0.043703
-0.00144486
0.044113
-0.00143165
0.0445267
-0.00142056
0.0449434
-0.00141239
0.0453617
-0.00140795
0.0457794
-0.0014078
0.0461942
-0.00141211
0.0466039
-0.00142043
0.0470067
-0.00143178
0.0474013
-0.00144495
0.0477867
-0.00145938
0.0481616
-0.00147576
0.048524
-0.00149526
0.0488726
-0.0015169
0.0492078
-0.00153474
0.0495341
-0.00153845
0.0498594
-0.0015185
0.0501924
-0.0014729
0.0505387
-0.00140988
0.0508992
-0.00134356
0.0512706
-0.00128623
0.051648
-0.00124298
0.0520276
-0.00121202
0.0524069
-0.00118855
0.0527848
-0.00116849
0.0531608
-0.00114985
0.0535342
-0.00113212
0.0539049
-0.00111532
0.0542726
-0.00109936
0.0546369
-0.00108397
0.0549976
-0.00106883
0.0553543
-0.00105367
0.0557062
-0.00103827
0.0560525
-0.0010225
0.0563922
-0.00100628
0.0567245
-0.000989556
0.0570486
-0.000972246
0.0573643
-0.000954179
0.0576719
-0.000935034
0.0579724
-0.000914362
0.0582669
-0.000891616
0.0585568
-0.000866226
0.0588425
-0.000837811
0.0591234
-0.000806563
0.0593975
-0.000773519
0.0596608
-0.000740582
0.0599083
-0.000710579
0.0601346
-0.000686971
0.0603357
-0.00067274
0.0605102
-0.000668964
0.0606602
-0.000672405
0.0607903
-0.000673159
0.0609089
-0.000658696
0.0610267
-0.000620136
0.0611575
-0.000550899
0.0613073
-0.000441776
0.061464
-0.000288532
0.0616093
-9.70399e-05
0.0617412
9.95195e-05
0.0618409
0.000285322
0.0619043
0.000434606
0.061938
0.000532059
0.0619554
0.000575879
0.0619692
0.000575683
0.0619862
0.00054719
0.0620071
0.000505852
0.0620288
0.000463208
0.0620475
0.000425908
0.0620599
0.000396583
0.0620642
0.000375365
0.0620593
0.000361228
0.0620449
0.000352878
0.062021
0.000349172
0.0619874
0.000349216
0.0619439
0.000352314
0.0618903
0.00035789
0.0618266
0.000365446
0.0617528
0.00037455
0.061669
0.000384853
0.0615755
0.00039609
0.0614726
0.000408076
0.0613605
0.000420674
0.0612397
0.000433779
0.0611106
0.000447303
0.0609734
0.000461159
0.0608285
0.00047526
0.0606761
0.000489526
0.0605165
0.000503861
0.0603499
0.000518194
0.0601764
0.000532464
0.0599961
0.000546624
0.0598091
0.000560644
0.0596154
0.000574522
0.059415
0.000588227
0.0592079
0.000601729
0.0589944
0.000614902
0.0587748
0.000627549
0.0585496
0.000639324
0.0583196
0.000649772
0.0580861
0.000658313
0.0578505
0.000664327
0.0576145
0.000667191
0.05738
0.000666431
0.0571486
0.000661723
0.0569219
0.000653056
0.0567008
0.000640733
0.056486
0.000625378
0.0562773
0.000607855
0.056074
0.000589199
0.0558748
0.000570454
0.0556782
0.000552567
0.0554825
0.000536256
0.0552857
0.00052197
0.0550863
0.000509823
0.054883
0.000499646
0.0546747
0.000491009
0.0544611
0.000483305
0.0542419
0.000475842
0.0540174
0.000467909
0.0537883
0.000458802
0.0535555
0.000447944
0.0533202
0.000434795
0.0530837
0.000419014
0.0528473
0.000400265
0.0526123
0.00037837
0.0523796
0.000353185
0.0521498
0.000324564
0.0519229
0.000292348
0.0516981
0.000256199
0.0514727
0.000215099
0.0512396
0.000166611
0.0509841
0.000103925
0.0506854
-2.51525e-06
0.0503088
-0.000159707
0.0498739
-0.000368564
0.0494402
-0.000516731
0.0490719
-0.00050129
0.0488003
-0.000325533
0.0486293
-7.41686e-05
0.0485342
0.000166431
0.0484932
0.000348876
0.0484785
0.000460969
0.048483
0.000513799
0.0485078
0.00053056
0.0485523
0.000532901
0.0486117
0.000533375
0.0486804
0.000536173
0.0487546
0.000541891
0.048833
0.000551797
0.0489143
0.000569377
0.0489952
0.000599413
0.0490692
0.000645878
0.0491273
0.000709783
0.0491595
0.000787723
0.0491577
0.000871609
0.0491181
0.000949843
0.0490426
0.00100974
0.048939
0.00104051
0.0488189
0.00103592
0.0486949
0.000995612
0.048577
0.000925241
0.0484715
0.000834514
0.0483796
0.000734707
0.0482986
0.000636424
0.0482237
0.000547786
0.0481503
0.000473329
0.048075
0.000414258
0.0479967
0.00036947
0.0479159
0.00033668
0.0478346
0.000313394
0.0477559
0.000297533
0.047683
0.000287646
0.0476187
0.000282728
0.0475642
0.00028179
0.0475195
0.00028334
0.0474843
0.000285702
0.0474564
0.000287088
0.0474311
0.000286865
0.0474049
0.000286634
0.0473768
0.000285318
0.047348
0.000283103
0.0473204
0.000280106
0.047296
0.000276198
0.0472762
0.000271134
0.0472616
0.000264699
0.0472524
0.000256865
0.047249
0.000247846
0.0472517
0.000238018
0.0472615
0.000227761
0.0472793
0.000217301
0.047306
0.000206586
0.0473424
0.000195249
0.0473884
0.000182656
0.047444
0.000168033
0.0475086
0.000150458
0.0475818
0.00012927
0.0476629
0.000104268
0.0477513
7.56509e-05
0.0478468
4.40357e-05
0.0479492
1.02514e-05
0.0480578
-2.32436e-05
0.0481726
-5.62768e-05
0.0482939
-8.77966e-05
0.0484224
-0.000117566
0.0485586
-0.000145341
0.0487017
-0.000171189
0.0488496
-0.000195625
0.049001
-0.00021909
0.049155
-0.000241788
0.0493114
-0.000263593
0.0494705
-0.000284119
0.0496326
-0.000302868
0.0497983
-0.000319337
0.0499679
-0.000333155
0.0501419
-0.000344191
0.0503203
-0.000352613
0.0505029
-0.000358894
0.0506893
-0.000363784
0.0508787
-0.000368219
0.0510702
-0.000373187
0.0512629
-0.000379579
0.0514566
-0.000387968
0.0516514
-0.000398624
0.0518475
-0.000411579
0.0520456
-0.00042658
0.0522462
-0.000443222
0.0524498
-0.000461115
0.0526568
-0.000479971
0.0528674
-0.000499604
0.0530818
-0.000519899
0.0533
-0.000540792
0.0535223
-0.000562249
0.0537486
-0.000584254
0.053979
-0.000606797
0.0542137
-0.000629872