/*--------------------------------*- C++ -*----------------------------------*\
| =========                 |                                                 |
| \\      /  F ield         | OpenFOAM: The Open Source CFD Toolbox           |
|  \\    /   O peration     | Version:  v2006                                 |
|   \\  /    A nd           | Website:  www.openfoam.com                      |
|    \\/     M anipulation  |                                                 |
\*---------------------------------------------------------------------------*/
FoamFile
{
    version     2.0;
    format      ascii;
    class       surfaceScalarField;
    location    "10.6";
    object      alphaPhi0.water;
}
// * * * * * * * * * * * * * * * * * * * * * * * * * * * * * * * * * * * * * //

dimensions      [0 3 -1 0 0 0 0];
oriented        oriented;


internalField   nonuniform List<scalar> 
99450
(
4.17717e-05
-4.17717e-05
9.60685e-05
-5.42968e-05
0.000148085
-5.20168e-05
0.000197559
-4.94738e-05
0.000245868
-4.83084e-05
0.000293773
-4.79053e-05
0.000341198
-4.74254e-05
0.000388115
-4.69171e-05
0.00043438
-4.62651e-05
0.000479943
-4.55623e-05
0.000524742
-4.47997e-05
0.000568717
-4.39747e-05
0.00061181
-4.30931e-05
0.000653964
-4.21533e-05
0.000695121
-4.1157e-05
0.000735216
-4.00957e-05
0.000774199
-3.89831e-05
0.000812012
-3.78124e-05
0.000848596
-3.65839e-05
0.000883894
-3.52982e-05
0.000917852
-3.39579e-05
0.000950418
-3.25665e-05
0.00098154
-3.11215e-05
0.00101116
-2.9621e-05
0.00103923
-2.80692e-05
0.0010657
-2.64689e-05
0.00109051
-2.48146e-05
0.00111364
-2.31248e-05
0.00113501
-2.13748e-05
0.00115459
-1.95728e-05
0.00117229
-1.77068e-05
0.00118808
-1.57881e-05
0.00120189
-1.38102e-05
0.00121367
-1.17783e-05
0.0012234
-9.72768e-06
0.00123108
-7.67941e-06
0.00123674
-5.65933e-06
0.00124042
-3.6863e-06
0.00124219
-1.77252e-06
0.00124217
2.44221e-08
0.00124036
1.81303e-06
0.00123693
3.42882e-06
0.00123196
4.97182e-06
0.00122547
6.48324e-06
0.00121752
7.95191e-06
0.00120821
9.30895e-06
0.00119774
1.04701e-05
0.00118635
1.13871e-05
0.00117429
1.20695e-05
0.00116171
1.25799e-05
0.00114869
1.30111e-05
0.00113525
1.34489e-05
0.0011213
1.39445e-05
0.00110679
1.45068e-05
0.00109168
1.51127e-05
0.00107595
1.5733e-05
0.0010596
1.63487e-05
0.00104265
1.69494e-05
0.00102512
1.75328e-05
0.00100702
1.80991e-05
0.00098837
1.86481e-05
0.000969193
1.91779e-05
0.000949508
1.96846e-05
0.000929336
2.01724e-05
0.0009087
2.06354e-05
0.000887626
2.10741e-05
0.000866138
2.14883e-05
0.00084426
2.1878e-05
0.000822017
2.22429e-05
0.000799434
2.25832e-05
0.00077654
2.28936e-05
0.000753362
2.31777e-05
0.000729928
2.34347e-05
0.000706265
2.36623e-05
0.000682404
2.38615e-05
0.00065837
2.40336e-05
0.000634188
2.41824e-05
0.000609879
2.43085e-05
0.000585457
2.44221e-05
0.000560929
2.45277e-05
0.000536303
2.4626e-05
0.000511579
2.47245e-05
0.00048675
2.48285e-05
0.000461819
2.49315e-05
0.000436776
2.50432e-05
0.000411619
2.51567e-05
0.00038633
2.52888e-05
0.000360889
2.54408e-05
0.000335276
2.56135e-05
0.000309458
2.58185e-05
0.00028339
2.60673e-05
0.000257028
2.6362e-05
0.000230312
2.67162e-05
0.000203167
2.71453e-05
0.000175479
2.76873e-05
0.000147091
2.83883e-05
0.000117809
2.92822e-05
8.74401e-05
3.03687e-05
5.59662e-05
3.14739e-05
2.36148e-05
3.23514e-05
-9.16055e-06
3.27753e-05
-4.18775e-05
3.27169e-05
-7.40152e-05
3.21377e-05
-0.000105168
3.11525e-05
-0.000135042
2.98745e-05
-0.000163434
2.83913e-05
-0.000190207
2.67737e-05
-0.000215241
2.50338e-05
-0.000238379
2.31379e-05
-0.000259525
2.11462e-05
-0.000278521
1.89955e-05
-0.000295181
1.66601e-05
-0.000309391
1.42101e-05
-0.000321242
1.18507e-05
-0.000330928
9.68674e-06
-0.00033868
7.75168e-06
-0.000344678
5.99829e-06
-0.000349109
4.43061e-06
-0.000352115
3.00596e-06
-0.000353813
1.69858e-06
-0.000354258
4.44557e-07
-0.000353555
-7.02733e-07
-0.000351746
-1.80875e-06
-0.000348893
-2.8538e-06
-0.000345031
-3.86187e-06
-0.000340198
-4.83264e-06
-0.000334426
-5.77225e-06
-0.000327732
-6.69387e-06
-0.000320142
-7.59023e-06
-0.000311677
-8.46486e-06
-0.000302361
-9.31622e-06
-0.000292208
-1.01522e-05
-0.000281241
-1.09675e-05
-0.000269489
-1.17516e-05
-0.000256971
-1.25185e-05
-0.000243723
-1.32479e-05
-0.000229769
-1.3954e-05
-0.000215149
-1.46198e-05
-0.000199878
-1.52716e-05
-0.000183983
-1.58946e-05
-0.000167484
-1.64996e-05
-0.000150408
-1.7076e-05
-0.0001328
-1.7608e-05
-0.000114636
-1.81636e-05
-9.5952e-05
-1.8684e-05
-7.65611e-05
-1.93909e-05
-5.6731e-05
-1.98301e-05
-3.58421e-05
-2.08889e-05
-1.54511e-05
-2.0391e-05
-1.54511e-05
3.54631e-05
-7.72348e-05
7.90446e-05
-9.78782e-05
0.000120353
-9.33252e-05
0.000159127
-8.8248e-05
0.000197247
-8.64279e-05
0.000235096
-8.57545e-05
0.000272774
-8.51038e-05
0.000310015
-8.41576e-05
0.000346807
-8.30569e-05
0.000383083
-8.1839e-05
0.000418811
-8.05269e-05
0.000453946
-7.91103e-05
0.000488446
-7.75927e-05
0.000522269
-7.59762e-05
0.000555381
-7.42699e-05
0.000587768
-7.24821e-05
0.000619375
-7.05902e-05
0.000650184
-6.86213e-05
0.000680158
-6.6558e-05
0.000709274
-6.44145e-05
0.00073751
-6.2194e-05
0.00076483
-5.98859e-05
0.000791212
-5.75034e-05
0.000816641
-5.50505e-05
0.000841101
-5.25296e-05
0.000864562
-4.99299e-05
0.000887046
-4.72983e-05
0.000908524
-4.46022e-05
0.000929001
-4.18518e-05
0.000948481
-3.90527e-05
0.000966988
-3.62141e-05
0.000984519
-3.33192e-05
0.00100109
-3.03777e-05
0.0010167
-2.73942e-05
0.00103135
-2.43804e-05
0.00104502
-2.13419e-05
0.00105767
-1.83075e-05
0.00106928
-1.53043e-05
0.00107987
-1.23599e-05
0.00108938
-9.48643e-06
0.00109783
-6.63892e-06
0.00110508
-3.81768e-06
0.00111103
-9.81424e-07
0.00111577
1.74362e-06
0.00111926
4.46995e-06
0.00112137
7.19858e-06
0.00112196
9.87379e-06
0.00112091
1.24421e-05
0.00111811
1.48621e-05
0.00111357
1.7124e-05
0.00110734
1.92394e-05
0.00109954
2.12517e-05
0.00109029
2.31971e-05
0.00107969
2.50986e-05
0.00106784
2.69637e-05
0.00105479
2.8789e-05
0.00104057
3.05707e-05
0.00102522
3.22915e-05
0.0010088
3.39572e-05
0.00099134
3.55579e-05
0.000972896
3.70927e-05
0.000953517
3.85565e-05
0.000933253
3.99482e-05
0.000912164
4.12621e-05
0.000890294
4.25052e-05
0.000867706
4.36619e-05
0.000844448
4.47465e-05
0.000820579
4.57474e-05
0.000796161
4.66603e-05
0.000771244
4.75005e-05
0.000745885
4.82522e-05
0.000720149
4.89138e-05
0.000694082
4.95014e-05
0.000667747
4.99973e-05
0.000641205
5.04042e-05
0.000614511
5.07278e-05
0.000587724
5.09684e-05
0.000560908
5.11249e-05
0.00053413
5.12006e-05
0.000507443
5.12146e-05
0.000480905
5.11634e-05
0.000454572
5.10574e-05
0.0004285
5.09008e-05
0.000402726
5.07052e-05
0.000377299
5.04706e-05
0.000352258
5.01973e-05
0.000327644
4.99035e-05
0.000303486
4.95981e-05
0.000279825
4.92752e-05
0.000256691
4.89521e-05
0.00023413
4.86284e-05
0.000212172
4.83204e-05
0.000190851
4.80364e-05
0.00017022
4.77767e-05
0.000150349
4.7558e-05
0.000131348
4.73893e-05
0.000113359
4.72711e-05
9.65676e-05
4.71605e-05
8.10757e-05
4.69658e-05
6.69047e-05
4.65224e-05
5.39909e-05
4.56892e-05
4.23213e-05
4.43864e-05
3.18736e-05
4.25854e-05
2.26809e-05
4.03452e-05
1.478e-05
3.77754e-05
8.18603e-06
3.49853e-05
2.87927e-06
3.20805e-05
-1.1862e-06
2.90993e-05
-4.16832e-06
2.612e-05
-6.12754e-06
2.31055e-05
-7.26652e-06
2.01345e-05
-7.82768e-06
1.72212e-05
-8.07487e-06
1.44572e-05
-8.11106e-06
1.18869e-05
-7.9612e-06
9.53688e-06
-7.60083e-06
7.3913e-06
-7.03096e-06
5.42842e-06
-6.22222e-06
3.62187e-06
-5.22543e-06
2.00917e-06
-4.07035e-06
5.43501e-07
-2.80516e-06
-8.2063e-07
-1.41592e-06
-2.09198e-06
1.80524e-08
-3.24272e-06
1.48738e-06
-4.32312e-06
2.98102e-06
-5.35551e-06
4.47714e-06
-6.32876e-06
5.93833e-06
-7.23344e-06
7.36076e-06
-8.11631e-06
8.6908e-06
-8.92027e-06
9.90735e-06
-9.68142e-06
1.09795e-05
-1.03884e-05
1.18846e-05
-1.10573e-05
1.26049e-05
-1.16877e-05
1.31262e-05
-1.22729e-05
1.34554e-05
-1.28477e-05
1.35731e-05
-1.33656e-05
1.34937e-05
-1.38746e-05
1.32104e-05
-1.43365e-05
1.27419e-05
-1.4803e-05
1.20819e-05
-1.52345e-05
1.12417e-05
-1.56594e-05
1.0235e-05
-1.60693e-05
9.06351e-06
-1.64365e-05
7.74965e-06
-1.68498e-05
6.06323e-06
-1.69975e-05
3.99858e-06
-1.73262e-05
1.49038e-06
-1.73219e-05
9.17544e-08
-1.94903e-05
2.54817e-06
-2.28474e-05
-1.29029e-05
3.69312e-05
-0.000114166
8.40652e-05
-0.000145012
0.000129326
-0.000138586
0.000171247
-0.000130169
0.000211855
-0.000127036
0.000252188
-0.000126088
0.000292396
-0.000125311
0.000332243
-0.000124005
0.000371599
-0.000122413
0.000410376
-0.000120616
0.000448526
-0.000118677
0.000486015
-0.000116599
0.000522787
-0.000114365
0.000558801
-0.00011199
0.000594016
-0.000109485
0.000628381
-0.000106847
0.000661868
-0.000104076
0.000694425
-0.000101179
0.000726027
-9.81595e-05
0.000756634
-9.50219e-05
0.000786206
-9.17659e-05
0.000814733
-8.84126e-05
0.000842173
-8.49437e-05
0.000868497
-8.13744e-05
0.000893679
-7.77114e-05
0.000917714
-7.39649e-05
0.00094055
-7.01342e-05
0.000962175
-6.62273e-05
0.000982577
-6.22534e-05
0.00100174
-5.82119e-05
0.00101963
-5.41121e-05
0.00103628
-4.99608e-05
0.00105165
-4.57513e-05
0.00106576
-4.15062e-05
0.0010786
-3.72177e-05
0.00109016
-3.29001e-05
0.00110041
-2.85646e-05
0.00110935
-2.42384e-05
0.00111693
-1.99423e-05
0.00112313
-1.56901e-05
0.00112798
-1.14876e-05
0.00113151
-7.34641e-06
0.00113381
-3.28495e-06
0.00113484
7.20376e-07
0.00113454
4.76709e-06
0.001133
8.74216e-06
0.0011302
1.26691e-05
0.00112613
1.65175e-05
0.00112074
2.02505e-05
0.00111403
2.38368e-05
0.00110599
2.72769e-05
0.00109666
3.05791e-05
0.00108609
3.37642e-05
0.00107435
3.68383e-05
0.00106149
3.98261e-05
0.00104755
4.27284e-05
0.00103258
4.55387e-05
0.00101662
4.82554e-05
0.000999704
5.0873e-05
0.000981874
5.33886e-05
0.000963178
5.57883e-05
0.00094366
5.80745e-05
0.000923358
6.02501e-05
0.000902326
6.22947e-05
0.000880604
6.42264e-05
0.000858246
6.60198e-05
0.000835297
6.76959e-05
0.000811814
6.92305e-05
0.00078784
7.06346e-05
0.000763426
7.19138e-05
0.000738633
7.30453e-05
0.000713502
7.40456e-05
0.000688087
7.49161e-05
0.000662436
7.56479e-05
0.00063661
7.6231e-05
0.000610653
7.66843e-05
0.000584618
7.7004e-05
0.00055855
7.71927e-05
0.000532509
7.72413e-05
0.000506553
7.71707e-05
0.000480729
7.69875e-05
0.000455082
7.67046e-05
0.000429673
7.63092e-05
0.000404552
7.58261e-05
0.00037975
7.52732e-05
0.000355319
7.46282e-05
0.000331291
7.39313e-05
0.00030773
7.31587e-05
0.000284669
7.23371e-05
0.000262149
7.14714e-05
0.000240219
7.05582e-05
0.000218915
6.96251e-05
0.000198299
6.86519e-05
0.000178415
6.76611e-05
0.00015933
6.66427e-05
0.000141132
6.55875e-05
0.000123918
6.44851e-05
0.000107816
6.32626e-05
9.28682e-05
6.19134e-05
7.90484e-05
6.03422e-05
6.62422e-05
5.84954e-05
5.42847e-05
5.63439e-05
4.3001e-05
5.38692e-05
3.22495e-05
5.10967e-05
2.19351e-05
4.80899e-05
1.20492e-05
4.48712e-05
2.55147e-06
4.15782e-05
-6.53819e-06
3.81889e-05
-1.52142e-05
3.4796e-05
-2.34726e-05
3.13638e-05
-3.12475e-05
2.79094e-05
-3.85552e-05
2.45289e-05
-4.53526e-05
2.12547e-05
-5.15647e-05
1.8099e-05
-5.71066e-05
1.50787e-05
-6.18918e-05
1.21765e-05
-6.5832e-05
9.36862e-06
-6.89162e-05
6.70613e-06
-7.10464e-05
4.13929e-06
-7.22279e-05
1.72506e-06
-7.25293e-05
-5.19278e-07
-7.20449e-05
-2.57639e-06
-7.07786e-05
-4.50893e-06
-6.87961e-05
-6.30569e-06
-6.62102e-05
-7.94142e-06
-6.30583e-05
-9.48067e-06
-5.94244e-05
-1.08673e-05
-5.54419e-05
-1.20988e-05
-5.1133e-05
-1.32292e-05
-4.65921e-05
-1.42223e-05
-4.19284e-05
-1.50521e-05
-3.7234e-05
-1.57517e-05
-3.25834e-05
-1.63384e-05
-2.8042e-05
-1.68142e-05
-2.37326e-05
-1.71571e-05
-1.96692e-05
-1.7429e-05
-1.59555e-05
-1.75884e-05
-1.25982e-05
-1.76937e-05
-9.67696e-06
-1.77243e-05
-7.18122e-06
-1.77303e-05
-5.14497e-06
-1.76957e-05
-3.57399e-06
-1.76403e-05
-2.43536e-06
-1.75751e-05
-1.87441e-06
-1.74107e-05
-1.69875e-06
-1.71732e-05
-2.52311e-06
-1.65018e-05
-3.17813e-06
-1.66669e-05
-2.18705e-06
-2.04814e-05
3.21884e-06
-2.82533e-05
-9.68404e-06
3.87149e-05
-0.000152881
8.90661e-05
-0.000195364
0.000137635
-0.000187154
0.000182805
-0.00017534
0.000226366
-0.000170597
0.00026953
-0.000169251
0.000312392
-0.000168174
0.000354827
-0.000166439
0.000396647
-0.000164233
0.000437767
-0.000161736
0.000478127
-0.000159036
0.000517676
-0.000156148
0.000556366
-0.000153055
0.000594151
-0.000149775
0.000630973
-0.000146307
0.000666785
-0.00014266
0.000701551
-0.000138842
0.000735231
-0.000134859
0.000767791
-0.00013072
0.000799199
-0.000126429
0.00082942
-0.000121987
0.00085842
-0.000117413
0.000886193
-0.000112717
0.000912711
-0.000107892
0.000937956
-0.000102956
0.000961906
-9.79151e-05
0.000984553
-9.27816e-05
0.00100588
-8.75495e-05
0.00102586
-8.22398e-05
0.0010445
-7.68511e-05
0.00106178
-7.1393e-05
0.0010777
-6.5874e-05
0.00109224
-6.02997e-05
0.00110541
-5.46774e-05
0.00111722
-4.90224e-05
0.00112766
-4.33441e-05
0.00113677
-3.76709e-05
0.00114453
-3.20036e-05
0.00115096
-2.6363e-05
0.00115603
-2.07654e-05
0.00115976
-1.52174e-05
0.00116213
-9.71507e-06
0.00116309
-4.24106e-06
0.00116263
1.17138e-06
0.00116095
6.45395e-06
0.00115801
1.16792e-05
0.00115387
1.6814e-05
0.00114854
2.18433e-05
0.00114204
2.67531e-05
0.00113435
3.1524e-05
0.00112547
3.61539e-05
0.00111541
4.06386e-05
0.0011042
4.49781e-05
0.00109186
4.91827e-05
0.00107843
5.32537e-05
0.00106396
5.71935e-05
0.0010485
6.09975e-05
0.0010321
6.46639e-05
0.00101478
6.81893e-05
0.0009966
7.15672e-05
0.000977596
7.47929e-05
0.000957813
7.78573e-05
0.000937295
8.07679e-05
0.000916084
8.35061e-05
0.000894228
8.60818e-05
0.000871768
8.84802e-05
0.000848755
9.07091e-05
0.000825229
9.27558e-05
0.000801238
9.4626e-05
0.000776832
9.63199e-05
0.000752053
9.78241e-05
0.000726948
9.91511e-05
0.000701565
0.000100299
0.000675952
0.00010126
0.000650143
0.00010204
0.000624186
0.000102641
0.000598127
0.000103064
0.000572008
0.000103311
0.000545865
0.000103384
0.000519743
0.000103294
0.000493681
0.000103049
0.000467738
0.000102648
0.00044194
0.000102107
0.000416334
0.000101432
0.00039098
0.000100627
0.000365898
9.97106e-05
0.000341153
9.86761e-05
0.000316767
9.75446e-05
0.000292797
9.63074e-05
0.000269284
9.49843e-05
0.000246267
9.3575e-05
0.000223809
9.20831e-05
0.000201942
9.05184e-05
0.00018073
8.88735e-05
0.000160219
8.71542e-05
0.000140458
8.53485e-05
0.000121502
8.34406e-05
0.000103364
8.14009e-05
8.60608e-05
7.92164e-05
6.95549e-05
7.68481e-05
5.37811e-05
7.42692e-05
3.86703e-05
7.14547e-05
2.41344e-05
6.84051e-05
1.01009e-05
6.51303e-05
-3.41196e-06
6.16027e-05
-1.65083e-05
5.79675e-05
-2.91229e-05
5.41928e-05
-4.12743e-05
5.03403e-05
-5.28524e-05
4.63741e-05
-6.38814e-05
4.23928e-05
-7.43729e-05
3.8401e-05
-8.42473e-05
3.44033e-05
-9.3438e-05
3.04454e-05
-0.000101904
2.65648e-05
-0.000109606
2.2781e-05
-0.000116525
1.90951e-05
-0.000122651
1.5495e-05
-0.00012797
1.20245e-05
-0.000132484
8.65408e-06
-0.000136197
5.43741e-06
-0.000139064
2.34776e-06
-0.000141054
-5.86102e-07
-0.000142155
-3.40829e-06
-0.000142414
-6.04636e-06
-0.000141839
-8.5167e-06
-0.000140501
-1.0818e-05
-0.000138399
-1.29693e-05
-0.000135567
-1.49313e-05
-0.000132076
-1.67205e-05
-0.000127962
-1.83355e-05
-0.000123246
-1.97683e-05
-0.000118008
-2.09899e-05
-0.000112304
-2.20427e-05
-0.00010625
-2.28683e-05
-9.98694e-05
-2.35373e-05
-9.3261e-05
-2.40374e-05
-8.64766e-05
-2.43727e-05
-7.95951e-05
-2.45753e-05
-7.26821e-05
-2.46373e-05
-6.58115e-05
-2.46008e-05
-5.90303e-05
-2.44769e-05
-5.23605e-05
-2.43101e-05
-4.58457e-05
-2.40899e-05
-3.95526e-05
-2.37038e-05
-3.37049e-05
-2.30209e-05
-2.83098e-05
-2.1897e-05
-2.23471e-05
-2.26295e-05
-1.33845e-05
-2.9444e-05
-1.34395e-06
-4.02939e-05
-1.1028e-05
3.9531e-05
-0.000192412
9.11266e-05
-0.000246959
0.000140913
-0.000236941
0.000187396
-0.000221822
0.000232266
-0.000215467
0.000276566
-0.000213552
0.000320502
-0.000212109
0.000363906
-0.000209843
0.000406625
-0.000206952
0.000448579
-0.00020369
0.000489706
-0.000200163
0.00052995
-0.000196392
0.000569264
-0.000192369
0.00060759
-0.000188102
0.000644884
-0.0001836
0.000681103
-0.000178879
0.000716206
-0.000173945
0.000750154
-0.000168808
0.000782917
-0.000163483
0.000814464
-0.000157975
0.000844784
-0.000152308
0.000873844
-0.000146473
0.000901617
-0.000140489
0.00092809
-0.000134366
0.000953248
-0.000128114
0.000977075
-0.000121742
0.000999555
-0.000115261
0.00102069
-0.000108682
0.00104046
-0.000102009
0.00105887
-9.52598e-05
0.00107591
-8.84326e-05
0.00109158
-8.15517e-05
0.0011059
-7.46151e-05
0.00111886
-6.76391e-05
0.00113048
-6.06386e-05
0.00114076
-5.36286e-05
0.0011497
-4.66125e-05
0.0011573
-3.96047e-05
0.00116357
-3.26308e-05
0.0011685
-2.56938e-05
0.00117208
-1.88013e-05
0.00117434
-1.19683e-05
0.00117532
-5.22266e-06
0.00117506
1.43086e-06
0.00117347
8.04697e-06
0.00117059
1.45516e-05
0.00116646
2.09477e-05
0.00116109
2.72158e-05
0.0011545
3.33415e-05
0.00114671
3.93167e-05
0.00113773
4.51311e-05
0.00112758
5.0785e-05
0.00111629
5.6274e-05
0.00110387
6.15987e-05
0.00109037
6.6754e-05
0.00107582
7.1739e-05
0.00106027
7.65503e-05
0.00104375
8.11821e-05
0.00102631
8.56297e-05
0.00100799
8.98912e-05
0.000988828
9.39545e-05
0.000968872
9.78129e-05
0.000948159
0.000101481
0.000926748
0.000104917
0.000904666
0.000108164
0.000881976
0.000111171
0.000858704
0.000113981
0.000834915
0.000116545
0.000810645
0.000118896
0.000785933
0.000121032
0.00076084
0.000122917
0.000735403
0.000124588
0.000709663
0.000126039
0.000683677
0.000127246
0.000657484
0.000128234
0.000631126
0.000128999
0.000604638
0.000129552
0.00057808
0.000129869
0.000551484
0.000129979
0.000524893
0.000129885
0.000498347
0.000129596
0.000471895
0.000129099
0.000445582
0.000128421
0.000419447
0.000127567
0.000393532
0.000126542
0.000367897
0.000125345
0.000342559
0.000124015
0.0003176
0.000122503
0.000293034
0.000120874
0.000268928
0.000119091
0.000245312
0.000117191
0.000222232
0.000115164
0.000199731
0.000113019
0.000177857
0.000110748
0.000156655
0.000108356
0.000136172
0.000105832
0.000116432
0.000103181
9.74582e-05
0.000100374
7.92582e-05
9.74164e-05
6.18411e-05
9.42652e-05
4.51837e-05
9.09267e-05
2.92576e-05
8.73807e-05
1.40453e-05
8.36174e-05
-4.65923e-07
7.96415e-05
-1.43775e-05
7.55143e-05
-2.76589e-05
7.12489e-05
-4.03199e-05
6.68538e-05
-5.23216e-05
6.2342e-05
-6.37602e-05
5.78128e-05
-7.45994e-05
5.32321e-05
-8.48408e-05
4.86423e-05
-9.44934e-05
4.40559e-05
-0.000103577
3.95289e-05
-0.000112061
3.50489e-05
-0.000119938
3.06578e-05
-0.00012717
2.63278e-05
-0.000133802
2.21272e-05
-0.000139765
1.79874e-05
-0.000145097
1.39857e-05
-0.000149746
1.00869e-05
-0.000153698
6.29896e-06
-0.000156945
2.66144e-06
-0.000159501
-8.52841e-07
-0.000161364
-4.18291e-06
-0.000162507
-7.37328e-06
-0.000162926
-1.03998e-05
-0.000162631
-1.32639e-05
-0.000161607
-1.5955e-05
-0.00015987
-1.84577e-05
-0.000157436
-2.07698e-05
-0.000154302
-2.29026e-05
-0.000150474
-2.4817e-05
-0.000146004
-2.65126e-05
-0.00014087
-2.80027e-05
-0.000135119
-2.92885e-05
-0.000128792
-3.03643e-05
-0.000121923
-3.12414e-05
-0.000114565
-3.19336e-05
-0.000106755
-3.24469e-05
-9.85507e-05
-3.28055e-05
-8.99892e-05
-3.30384e-05
-8.11367e-05
-3.31626e-05
-7.20185e-05
-3.32081e-05
-6.27264e-05
-3.2996e-05
-5.34721e-05
-3.22752e-05
-4.41449e-05
-3.12241e-05
-3.36975e-05
-3.3077e-05
-2.027e-05
-4.28714e-05
-4.90507e-06
-5.56588e-05
-1.59331e-05
4.01752e-05
-0.000232587
9.24656e-05
-0.00029925
0.000142884
-0.00028736
0.00018996
-0.000268898
0.000235402
-0.000260909
0.000280266
-0.000258416
0.000324702
-0.000256545
0.000368579
-0.000253721
0.000411746
-0.000250119
0.000454121
-0.000246065
0.000495646
-0.000241688
0.000536264
-0.00023701
0.000575926
-0.000232032
0.000614584
-0.00022676
0.000652192
-0.000221208
0.000688704
-0.00021539
0.000724085
-0.000209326
0.000758307
-0.000203029
0.000791333
-0.00019651
0.000823136
-0.000189778
0.000853687
-0.000182859
0.000882975
-0.000175761
0.000910972
-0.000168486
0.000937664
-0.000161058
0.000963038
-0.000153488
0.000987075
-0.000145779
0.00100976
-0.00013795
0.00103109
-0.000130013
0.00105106
-0.000121978
0.00106966
-0.000113858
0.00108688
-0.000105655
0.00110273
-9.73983e-05
0.0011172
-8.90812e-05
0.00113029
-8.07341e-05
0.00114201
-7.23523e-05
0.00115234
-6.39607e-05
0.0011613
-5.55757e-05
0.00116891
-4.72099e-05
0.00117514
-3.88682e-05
0.00118002
-3.05739e-05
0.00118356
-2.23401e-05
0.00118577
-1.41722e-05
0.00118661
-6.067e-06
0.00118608
1.96053e-06
0.00118429
9.83611e-06
0.00118123
1.76101e-05
0.00117692
2.52609e-05
0.00117137
3.27671e-05
0.00116459
4.01211e-05
0.0011566
4.73093e-05
0.0011474
5.43235e-05
0.00113703
6.11594e-05
0.0011255
6.78048e-05
0.00111285
7.42444e-05
0.00109911
8.04992e-05
0.00108432
8.65304e-05
0.00106851
9.23586e-05
0.00105172
9.79681e-05
0.001034
0.000103353
0.00101538
0.000108513
0.000995909
0.000113422
0.000975629
0.000118093
0.000954581
0.00012253
0.000932813
0.000126686
0.000910368
0.000130609
0.000887292
0.000134247
0.000863628
0.000137645
0.000839428
0.000140744
0.000814735
0.000143589
0.000789602
0.000146165
0.000764067
0.000148453
0.000738181
0.000150473
0.000711987
0.000152234
0.000685543
0.000153691
0.000658886
0.00015489
0.000632064
0.000155821
0.000605121
0.000156495
0.00057811
0.00015688
0.000551071
0.000157018
0.000524047
0.000156909
0.000497083
0.000156559
0.000470233
0.000155949
0.000443537
0.000155117
0.00041704
0.000154064
0.000390796
0.000152786
0.000364842
0.000151299
0.000339222
0.000149634
0.000313986
0.000147739
0.000289189
0.00014567
0.000264858
0.000143422
0.000241033
0.000141015
0.00021778
0.000138416
0.000195135
0.000135664
0.00017313
0.000132752
0.000151799
0.000129687
0.000131172
0.000126458
0.000111291
0.000123062
9.2181e-05
0.000119485
7.38533e-05
0.000115744
5.62973e-05
0.000111821
3.95097e-05
0.000107714
2.34629e-05
0.000103428
8.13731e-06
9.8943e-05
-6.46431e-06
9.42431e-05
-2.04216e-05
8.94716e-05
-3.37236e-05
8.45509e-05
-4.63918e-05
7.9522e-05
-5.84709e-05
7.44211e-05
-6.99077e-05
6.92495e-05
-8.07079e-05
6.40323e-05
-9.08792e-05
5.88136e-05
-0.000100409
5.35853e-05
-0.000109279
4.83991e-05
-0.000117479
4.32487e-05
-0.000125018
3.81967e-05
-0.000131895
3.32055e-05
-0.000138088
2.83202e-05
-0.000143648
2.35474e-05
-0.000148551
1.88887e-05
-0.000152812
1.4348e-05
-0.000156427
9.91328e-06
-0.000159411
5.64524e-06
-0.000161795
1.53139e-06
-0.000163535
-2.4422e-06
-0.000164625
-6.28409e-06
-0.000165104
-9.92046e-06
-0.00016496
-1.34084e-05
-0.000164193
-1.67219e-05
-0.000162802
-1.9848e-05
-0.000160797
-2.27751e-05
-0.000158172
-2.55279e-05
-0.000154923
-2.80653e-05
-0.000151044
-3.03923e-05
-0.000146526
-3.25207e-05
-0.000141375
-3.4439e-05
-0.000135602
-3.61374e-05
-0.000129227
-3.76169e-05
-0.000122249
-3.89115e-05
-0.000114698
-3.99981e-05
-0.000106596
-4.09074e-05
-9.79685e-05
-4.16655e-05
-8.88491e-05
-4.2282e-05
-7.92748e-05
-4.27824e-05
-6.93094e-05
-4.29614e-05
-5.90848e-05
-4.24998e-05
-4.85465e-05
-4.17623e-05
-3.69396e-05
-4.4684e-05
-2.2741e-05
-5.707e-05
-6.7277e-06
-7.16721e-05
-2.26608e-05
4.09168e-05
-0.000273504
9.41293e-05
-0.000352462
0.000145491
-0.000338721
0.000193344
-0.000316751
0.000239456
-0.000307021
0.000284919
-0.000303879
0.000329972
-0.000301598
0.000374455
-0.000298204
0.000418207
-0.000293872
0.000461141
-0.000288999
0.000503201
-0.000283748
0.000544334
-0.000278143
0.00058449
-0.000272188
0.000623619
-0.00026589
0.000661679
-0.000259268
0.000698633
-0.000252344
0.000734441
-0.000245133
0.000769066
-0.000237655
0.000802477
-0.00022992
0.000834662
-0.000221963
0.000865583
-0.00021378
0.000895216
-0.000205394
0.000923547
-0.000196817
0.000950555
-0.000188066
0.00097622
-0.000179153
0.00100053
-0.000170094
0.00102349
-0.000160902
0.00104506
-0.00015159
0.00106525
-0.000142169
0.00108405
-0.000132654
0.00110145
-0.000123058
0.00111745
-0.000113395
0.00113204
-0.00010367
0.00114523
-9.39202e-05
0.00115702
-8.41433e-05
0.00116741
-7.43541e-05
0.0011764
-6.45655e-05
0.00118399
-5.48e-05
0.00119019
-4.50715e-05
0.00119501
-3.53882e-05
0.00119843
-2.57667e-05
0.00120048
-1.62188e-05
0.00120117
-6.75962e-06
0.00120056
2.57771e-06
0.00119858
1.18106e-05
0.00119529
2.09046e-05
0.0011907
2.98511e-05
0.00118483
3.86378e-05
0.00117769
4.72527e-05
0.00116932
5.5681e-05
0.00115973
6.39122e-05
0.00114896
7.19338e-05
0.00113703
7.97375e-05
0.00112396
8.73138e-05
0.00110979
9.46712e-05
0.00109455
0.000101763
0.00107829
0.000108617
0.00106105
0.000115213
0.00104286
0.000121545
0.00102376
0.000127611
0.0010038
0.000133383
0.000983021
0.000138871
0.000961468
0.000144082
0.000939187
0.000148967
0.000916227
0.000153568
0.000892627
0.000157847
0.000868437
0.000161835
0.000843706
0.000165475
0.00081848
0.000168815
0.000792812
0.000171833
0.000766745
0.00017452
0.000740327
0.000176891
0.000713614
0.000178947
0.000686646
0.000180658
0.000659475
0.000182062
0.000632144
0.000183152
0.000604718
0.000183921
0.000577224
0.000184373
0.000549716
0.000184526
0.000522245
0.00018438
0.000494864
0.00018394
0.000467608
0.000183205
0.000440529
0.000182196
0.000413667
0.000180927
0.000387076
0.000179377
0.000360796
0.00017758
0.000334889
0.000175541
0.000309375
0.000173253
0.000284304
0.000170741
0.00025972
0.000168007
0.000235678
0.000165057
0.000212189
0.000161905
0.000189309
0.000158545
0.00016707
0.000154991
0.000145509
0.000151249
0.000124645
0.000147322
0.000104516
0.000143191
8.51164e-05
0.000138884
6.64725e-05
0.000134388
4.8593e-05
0.000129701
3.14711e-05
0.000124836
1.51115e-05
0.000119787
-4.93385e-07
0.000114548
-1.54264e-05
0.000109176
-2.96158e-05
0.000103661
-4.30988e-05
9.80339e-05
-5.58773e-05
9.23005e-05
-6.79327e-05
8.64764e-05
-7.92874e-05
8.06042e-05
-8.99595e-05
7.47044e-05
-9.99226e-05
6.87768e-05
-0.000109215
6.28781e-05
-0.00011783
5.70133e-05
-0.000125769
5.11881e-05
-0.000132987
4.54152e-05
-0.000139538
3.97558e-05
-0.000145388
3.417e-05
-0.000150536
2.86959e-05
-0.000154986
2.3339e-05
-0.000158754
1.81153e-05
-0.000161874
1.30335e-05
-0.000164319
8.09041e-06
-0.000166094
3.30671e-06
-0.000167198
-1.33865e-06
-0.000167708
-5.77365e-06
-0.000167594
-1.00348e-05
-0.000166872
-1.41308e-05
-0.000165557
-1.8036e-05
-0.000163653
-2.17529e-05
-0.000161171
-2.52564e-05
-0.000158124
-2.8575e-05
-0.000154514
-3.16751e-05
-0.000150348
-3.45586e-05
-0.000145611
-3.72576e-05
-0.000140323
-3.97271e-05
-0.000134478
-4.19823e-05
-0.000128058
-4.40366e-05
-0.000121108
-4.58623e-05
-0.000113603
-4.75026e-05
-0.000105581
-4.89299e-05
-9.70783e-05
-5.0168e-05
-8.8089e-05
-5.12712e-05
-7.86207e-05
-5.22508e-05
-6.87418e-05
-5.28402e-05
-5.85357e-05
-5.27059e-05
-4.80529e-05
-5.22451e-05
-3.67855e-05
-5.59514e-05
-2.32211e-05
-7.06344e-05
-7.43658e-06
-8.74567e-05
-3.00973e-05
4.17463e-05
-0.00031525
9.62367e-05
-0.000406952
0.000148955
-0.00039144
0.000197956
-0.000365752
0.000244979
-0.000354044
0.000291291
-0.000350191
0.000337166
-0.000347472
0.000382458
-0.000343496
0.000426999
-0.000338412
0.000470686
-0.000332686
0.000513456
-0.000326519
0.000555267
-0.000319954
0.000596068
-0.000312989
0.000635809
-0.000305631
0.00067445
-0.000297909
0.000711948
-0.000289842
0.000748271
-0.000281456
0.000783383
-0.000272767
0.000817267
-0.000263804
0.000849881
-0.000254577
0.000881207
-0.000245106
0.000911222
-0.000235409
0.0009399
-0.000225495
0.000967233
-0.000215399
0.000993208
-0.000205127
0.0010178
-0.00019469
0.00104101
-0.000184105
0.00106281
-0.000173392
0.0010832
-0.00016256
0.00110217
-0.000151625
0.00111972
-0.000140604
0.00113583
-0.000129511
0.00115053
-0.000118372
0.00116379
-0.000107178
0.00117561
-9.59628e-05
0.00118599
-8.47367e-05
0.00119495
-7.35254e-05
0.00120248
-6.23307e-05
0.00120859
-5.11761e-05
0.00121328
-4.00784e-05
0.00121656
-2.90516e-05
0.00121845
-1.81052e-05
0.00121895
-7.259e-06
0.00121805
3.47942e-06
0.0012158
1.40561e-05
0.00121222
2.44925e-05
0.00120731
3.47595e-05
0.00120109
4.48502e-05
0.0011936
5.47473e-05
0.00118484
6.44358e-05
0.00117486
7.39004e-05
0.00116365
8.31355e-05
0.00115127
9.21236e-05
0.00113773
0.000100848
0.00112308
0.000109321
0.00110736
0.000117492
0.00109058
0.000125388
0.00107281
0.000132986
0.00105408
0.00014028
0.00103443
0.00014726
0.0010139
0.000153913
0.00099254
0.000160229
0.000970405
0.000166218
0.000947524
0.000171847
0.000923958
0.000177135
0.000899746
0.000182059
0.000874944
0.000186637
0.000849593
0.000190825
0.000823744
0.000194664
0.000797455
0.000198122
0.000770768
0.000201207
0.000743732
0.000203927
0.00071641
0.000206269
0.000688837
0.000208231
0.000661068
0.000209831
0.000633145
0.000211075
0.000605136
0.000211929
0.000577077
0.000212433
0.000549018
0.000212584
0.000521004
0.000212395
0.000493095
0.00021185
0.000465329
0.000210971
0.000437754
0.000209771
0.000410421
0.00020826
0.00038337
0.000206428
0.000356653
0.000204296
0.000330314
0.00020188
0.000304387
0.000199181
0.000278922
0.000196205
0.000253956
0.000192973
0.000229532
0.000189481
0.000205686
0.000185751
0.00018245
0.000181781
0.000159855
0.000177586
0.00013794
0.000173163
0.000116742
0.00016852
9.6259e-05
0.000163675
7.65126e-05
0.000158631
5.7524e-05
0.000153376
3.93015e-05
0.000147923
2.18559e-05
0.000142282
5.17562e-06
0.000136467
-1.07185e-05
0.000130442
-2.58962e-05
0.000124354
-4.03237e-05
0.000118089
-5.40105e-05
0.000111721
-6.69352e-05
0.000105225
-7.91647e-05
9.87059e-05
-9.06451e-05
9.20846e-05
-0.00010141
8.54692e-05
-0.000111434
7.88011e-05
-0.000120704
7.21478e-05
-0.000129226
6.55353e-05
-0.000137023
5.89854e-05
-0.00014409
5.24818e-05
-0.000150405
4.60704e-05
-0.000155993
3.97583e-05
-0.000160858
3.35609e-05
-0.000164979
2.74605e-05
-0.000168398
2.15341e-05
-0.000171089
1.57249e-05
-0.000173091
1.00918e-05
-0.000174394
4.61025e-06
-0.000175027
-7.057e-07
-0.000174993
-5.80826e-06
-0.000174312
-1.07156e-05
-0.000173001
-1.54423e-05
-0.000171056
-1.99804e-05
-0.000168533
-2.42762e-05
-0.000165414
-2.83749e-05
-0.000161724
-3.22655e-05
-0.000157478
-3.5921e-05
-0.000152668
-3.93682e-05
-0.000147352
-4.25736e-05
-0.000141513
-4.55668e-05
-0.000135165
-4.83299e-05
-0.000128304
-5.08974e-05
-0.000120983
-5.31836e-05
-0.000113193
-5.5293e-05
-0.000104948
-5.71748e-05
-9.62519e-05
-5.88639e-05
-8.71351e-05
-6.03879e-05
-7.76309e-05
-6.1755e-05
-6.77534e-05
-6.27178e-05
-5.76402e-05
-6.2819e-05
-4.73391e-05
-6.25463e-05
-3.64586e-05
-6.68319e-05
-2.33729e-05
-8.37201e-05
-7.69166e-06
-0.000103138
-3.7789e-05
4.26928e-05