/*--------------------------------*- C++ -*----------------------------------*\
| =========                 |                                                 |
| \\      /  F ield         | OpenFOAM: The Open Source CFD Toolbox           |
|  \\    /   O peration     | Version:  v2006                                 |
|   \\  /    A nd           | Website:  www.openfoam.com                      |
|    \\/     M anipulation  |                                                 |
\*---------------------------------------------------------------------------*/
FoamFile
{
    version     2.0;
    format      ascii;
    class       volVectorField;
    location    "0";
    object      U_new;
}
// * * * * * * * * * * * * * * * * * * * * * * * * * * * * * * * * * * * * * //

dimensions      [0 1 -1 0 0 0 0];


internalField   nonuniform List<vector> 
2500
(
(0.00016 -0.0032 0)
(0.00016 -0.0096 0)
(0.00016 -0.016 0)
(0.00016 -0.0224 0)
(0.00016 -0.0288 0)
(0.00016 -0.0352 0)
(0.00016 -0.0416 0)
(0.00016 -0.048 0)
(0.00016 -0.0544 0)
(0.00016 -0.0608 0)
(0.00016 -0.0672 0)
(0.00016 -0.0736 0)
(0.00016 -0.08 0)
(0.00016 -0.0864 0)
(0.00016 -0.0928 0)
(0.00016 -0.0992 0)
(0.00016 -0.1056 0)
(0.00016 -0.112 0)
(0.00016 -0.1184 0)
(0.00016 -0.1248 0)
(0.00016 -0.1312 0)
(0.00016 -0.1376 0)
(0.00016 -0.144 0)
(0.00016 -0.1504 0)
(0.00016 -0.1568 0)
(0.00016 -0.1632 0)
(0.00016 -0.1696 0)
(0.00016 -0.176 0)
(0.00016 -0.1824 0)
(0.00016 -0.1888 0)
(0.00016 -0.1952 0)
(0.00016 -0.2016 0)
(0.00016 -0.208 0)
(0.00016 -0.2144 0)
(0.00016 -0.2208 0)
(0.00016 -0.2272 0)
(0.00016 -0.2336 0)
(0.00016 -0.24 0)
(0.00016 -0.2464 0)
(0.00016 -0.2528 0)
(0.00016 -0.2592 0)
(0.00016 -0.2656 0)
(0.00016 -0.272 0)
(0.00016 -0.2784 0)
(0.00016 -0.2848 0)
(0.00016 -0.2912 0)
(0.00016 -0.2976 0)
(0.00016 -0.304 0)
(0.00016 -0.3104 0)
(0.00016 -0.3168 0)
(0.00144 -0.0032 0)
(0.00144 -0.0096 0)
(0.00144 -0.016 0)
(0.00144 -0.0224 0)
(0.00144 -0.0288 0)
(0.00144 -0.0352 0)
(0.00144 -0.0416 0)
(0.00144 -0.048 0)
(0.00144 -0.0544 0)
(0.00144 -0.0608 0)
(0.00144 -0.0672 0)
(0.00144 -0.0736 0)
(0.00144 -0.08 0)
(0.00144 -0.0864 0)
(0.00144 -0.0928 0)
(0.00144 -0.0992 0)
(0.00144 -0.1056 0)
(0.00144 -0.112 0)
(0.00144 -0.1184 0)
(0.00144 -0.1248 0)
(0.00144 -0.1312 0)
(0.00144 -0.1376 0)
(0.00144 -0.144 0)
(0.00144 -0.1504 0)
(0.00144 -0.1568 0)
(0.00144 -0.1632 0)
(0.00144 -0.1696 0)
(0.00144 -0.176 0)
(0.00144 -0.1824 0)
(0.00144 -0.1888 0)
(0.00144 -0.1952 0)
(0.00144 -0.2016 0)
(0.00144 -0.208 0)
(0.00144 -0.2144 0)
(0.00144 -0.2208 0)
(0.00144 -0.2272 0)
(0.00144 -0.2336 0)
(0.00144 -0.24 0)
(0.00144 -0.2464 0)
(0.00144 -0.2528 0)
(0.00144 -0.2592 0)
(0.00144 -0.2656 0)
(0.00144 -0.272 0)
(0.00144 -0.2784 0)
(0.00144 -0.2848 0)
(0.00144 -0.2912 0)
(0.00144 -0.2976 0)
(0.00144 -0.304 0)
(0.00144 -0.3104 0)
(0.00144 -0.3168 0)
(0.004 -0.0032 0)
(0.004 -0.0096 0)
(0.004 -0.016 0)
(0.004 -0.0224 0)
(0.004 -0.0288 0)
(0.004 -0.0352 0)
(0.004 -0.0416 0)
(0.004 -0.048 0)
(0.004 -0.0544 0)
(0.004 -0.0608 0)
(0.004 -0.0672 0)
(0.004 -0.0736 0)
(0.004 -0.08 0)
(0.004 -0.0864 0)
(0.004 -0.0928 0)
(0.004 -0.0992 0)
(0.004 -0.1056 0)
(0.004 -0.112 0)
(0.004 -0.1184 0)
(0.004 -0.1248 0)
(0.004 -0.1312 0)
(0.004 -0.1376 0)
(0.004 -0.144 0)
(0.004 -0.1504 0)
(0.004 -0.1568 0)
(0.004 -0.1632 0)
(0.004 -0.1696 0)
(0.004 -0.176 0)
(0.004 -0.1824 0)
(0.004 -0.1888 0)
(0.004 -0.1952 0)
(0.004 -0.2016 0)
(0.004 -0.208 0)
(0.004 -0.2144 0)
(0.004 -0.2208 0)
(0.004 -0.2272 0)
(0.004 -0.2336 0)
(0.004 -0.24 0)
(0.004 -0.2464 0)
(0.004 -0.2528 0)
(0.004 -0.2592 0)
(0.004 -0.2656 0)
(0.004 -0.272 0)
(0.004 -0.2784 0)
(0.004 -0.2848 0)
(0.004 -0.2912 0)
(0.004 -0.2976 0)
(0.004 -0.304 0)
(0.004 -0.3104 0)
(0.004 -0.3168 0)
(0.00784 -0.0032 0)
(0.00784 -0.0096 0)
(0.00784 -0.016 0)
(0.00784 -0.0224 0)
(0.00784 -0.0288 0)
(0.00784 -0.0352 0)
(0.00784 -0.0416 0)
(0.00784 -0.048 0)
(0.00784 -0.0544 0)
(0.00784 -0.0608 0)
(0.00784 -0.0672 0)
(0.00784 -0.0736 0)
(0.00784 -0.08 0)
(0.00784 -0.0864 0)
(0.00784 -0.0928 0)
(0.00784 -0.0992 0)
(0.00784 -0.1056 0)
(0.00784 -0.112 0)
(0.00784 -0.1184 0)
(0.00784 -0.1248 0)
(0.00784 -0.1312 0)
(0.00784 -0.1376 0)
(0.00784 -0.144 0)
(0.00784 -0.1504 0)
(0.00784 -0.1568 0)
(0.00784 -0.1632 0)
(0.00784 -0.1696 0)
(0.00784 -0.176 0)
(0.00784 -0.1824 0)
(0.00784 -0.1888 0)
(0.00784 -0.1952 0)
(0.00784 -0.2016 0)
(0.00784 -0.208 0)
(0.00784 -0.2144 0)
(0.00784 -0.2208 0)
(0.00784 -0.2272 0)
(0.00784 -0.2336 0)
(0.00784 -0.24 0)
(0.00784 -0.2464 0)
(0.00784 -0.2528 0)
(0.00784 -0.2592 0)
(0.00784 -0.2656 0)
(0.00784 -0.272 0)
(0.00784 -0.2784 0)
(0.00784 -0.2848 0)
(0.00784 -0.2912 0)
(0.00784 -0.2976 0)
(0.00784 -0.304 0)
(0.00784 -0.3104 0)
(0.00784 -0.3168 0)
(0.01296 -0.0032 0)
(0.01296 -0.0096 0)
(0.01296 -0.016 0)
(0.01296 -0.0224 0)
(0.01296 -0.0288 0)
(0.01296 -0.0352 0)
(0.01296 -0.0416 0)
(0.01296 -0.048 0)
(0.01296 -0.0544 0)
(0.01296 -0.0608 0)
(0.01296 -0.0672 0)
(0.01296 -0.0736 0)
(0.01296 -0.08 0)
(0.01296 -0.0864 0)
(0.01296 -0.0928 0)
(0.01296 -0.0992 0)
(0.01296 -0.1056 0)
(0.01296 -0.112 0)
(0.01296 -0.1184 0)
(0.01296 -0.1248 0)
(0.01296 -0.1312 0)
(0.01296 -0.1376 0)
(0.01296 -0.144 0)
(0.01296 -0.1504 0)
(0.01296 -0.1568 0)
(0.01296 -0.1632 0)
(0.01296 -0.1696 0)
(0.01296 -0.176 0)
(0.01296 -0.1824 0)
(0.01296 -0.1888 0)
(0.01296 -0.1952 0)
(0.01296 -0.2016 0)
(0.01296 -0.208 0)
(0.01296 -0.2144 0)
(0.01296 -0.2208 0)
(0.01296 -0.2272 0)
(0.01296 -0.2336 0)
(0.01296 -0.24 0)
(0.01296 -0.2464 0)
(0.01296 -0.2528 0)
(0.01296 -0.2592 0)
(0.01296 -0.2656 0)
(0.01296 -0.272 0)
(0.01296 -0.2784 0)
(0.01296 -0.2848 0)
(0.01296 -0.2912 0)
(0.01296 -0.2976 0)
(0.01296 -0.304 0)
(0.01296 -0.3104 0)
(0.01296 -0.3168 0)
(0.01936 -0.0032 0)
(0.01936 -0.0096 0)
(0.01936 -0.016 0)
(0.01936 -0.0224 0)
(0.01936 -0.0288 0)
(0.01936 -0.0352 0)
(0.01936 -0.0416 0)
(0.01936 -0.048 0)
(0.01936 -0.0544 0)
(0.01936 -0.0608 0)
(0.01936 -0.0672 0)
(0.01936 -0.0736 0)
(0.01936 -0.08 0)
(0.01936 -0.0864 0)
(0.01936 -0.0928 0)
(0.01936 -0.0992 0)
(0.01936 -0.1056 0)
(0.01936 -0.112 0)
(0.01936 -0.1184 0)
(0.01936 -0.1248 0)
(0.01936 -0.1312 0)
(0.01936 -0.1376 0)
(0.01936 -0.144 0)
(0.01936 -0.1504 0)
(0.01936 -0.1568 0)
(0.01936 -0.1632 0)
(0.01936 -0.1696 0)
(0.01936 -0.176 0)
(0.01936 -0.1824 0)
(0.01936 -0.1888 0)
(0.01936 -0.1952 0)
(0.01936 -0.2016 0)
(0.01936 -0.208 0)
(0.01936 -0.2144 0)
(0.01936 -0.2208 0)
(0.01936 -0.2272 0)
(0.01936 -0.2336 0)
(0.01936 -0.24 0)
(0.01936 -0.2464 0)
(0.01936 -0.2528 0)
(0.01936 -0.2592 0)
(0.01936 -0.2656 0)
(0.01936 -0.272 0)
(0.01936 -0.2784 0)
(0.01936 -0.2848 0)
(0.01936 -0.2912 0)
(0.01936 -0.2976 0)
(0.01936 -0.304 0)
(0.01936 -0.3104 0)
(0.01936 -0.3168 0)
(0.02704 -0.0032 0)
(0.02704 -0.0096 0)
(0.02704 -0.016 0)
(0.02704 -0.0224 0)
(0.02704 -0.0288 0)
(0.02704 -0.0352 0)
(0.02704 -0.0416 0)
(0.02704 -0.048 0)
(0.02704 -0.0544 0)
(0.02704 -0.0608 0)
(0.02704 -0.0672 0)
(0.02704 -0.0736 0)
(0.02704 -0.08 0)
(0.02704 -0.0864 0)
(0.02704 -0.0928 0)
(0.02704 -0.0992 0)
(0.02704 -0.1056 0)
(0.02704 -0.112 0)
(0.02704 -0.1184 0)
(0.02704 -0.1248 0)
(0.02704 -0.1312 0)
(0.02704 -0.1376 0)
(0.02704 -0.144 0)
(0.02704 -0.1504 0)
(0.02704 -0.1568 0)
(0.02704 -0.1632 0)
(0.02704 -0.1696 0)
(0.02704 -0.176 0)
(0.02704 -0.1824 0)
(0.02704 -0.1888 0)
(0.02704 -0.1952 0)
(0.02704 -0.2016 0)
(0.02704 -0.208 0)
(0.02704 -0.2144 0)
(0.02704 -0.2208 0)
(0.02704 -0.2272 0)
(0.02704 -0.2336 0)
(0.02704 -0.24 0)
(0.02704 -0.2464 0)
(0.02704 -0.2528 0)
(0.02704 -0.2592 0)
(0.02704 -0.2656 0)
(0.02704 -0.272 0)
(0.02704 -0.2784 0)
(0.02704 -0.2848 0)
(0.02704 -0.2912 0)
(0.02704 -0.2976 0)
(0.02704 -0.304 0)
(0.02704 -0.3104 0)
(0.02704 -0.3168 0)
(0.036 -0.0032 0)
(0.036 -0.0096 0)
(0.036 -0.016 0)
(0.036 -0.0224 0)
(0.036 -0.0288 0)
(0.036 -0.0352 0)
(0.036 -0.0416 0)
(0.036 -0.048 0)
(0.036 -0.0544 0)
(0.036 -0.0608 0)
(0.036 -0.0672 0)
(0.036 -0.0736 0)
(0.036 -0.08 0)
(0.036 -0.0864 0)
(0.036 -0.0928 0)
(0.036 -0.0992 0)
(0.036 -0.1056 0)
(0.036 -0.112 0)
(0.036 -0.1184 0)
(0.036 -0.1248 0)
(0.036 -0.1312 0)
(0.036 -0.1376 0)
(0.036 -0.144 0)
(0.036 -0.1504 0)
(0.036 -0.1568 0)
(0.036 -0.1632 0)
(0.036 -0.1696 0)
(0.036 -0.176 0)
(0.036 -0.1824 0)
(0.036 -0.1888 0)
(0.036 -0.1952 0)
(0.036 -0.2016 0)
(0.036 -0.208 0)
(0.036 -0.2144 0)
(0.036 -0.2208 0)
(0.036 -0.2272 0)
(0.036 -0.2336 0)
(0.036 -0.24 0)
(0.036 -0.2464 0)
(0.036 -0.2528 0)
(0.036 -0.2592 0)
(0.036 -0.2656 0)
(0.036 -0.272 0)
(0.036 -0.2784 0)
(0.036 -0.2848 0)
(0.036 -0.2912 0)
(0.036 -0.2976 0)
(0.036 -0.304 0)
(0.036 -0.3104 0)
(0.036 -0.3168 0)
(0.04624 -0.0032 0)
(0.04624 -0.0096 0)
(0.04624 -0.016 0)
(0.04624 -0.0224 0)
(0.04624 -0.0288 0)
(0.04624 -0.0352 0)
(0.04624 -0.0416 0)
(0.04624 -0.048 0)
(0.04624 -0.0544 0)
(0.04624 -0.0608 0)
(0.04624 -0.0672 0)
(0.04624 -0.0736 0)
(0.04624 -0.08 0)
(0.04624 -0.0864 0)
(0.04624 -0.0928 0)
(0.04624 -0.0992 0)
(0.04624 -0.1056 0)
(0.04624 -0.112 0)
(0.04624 -0.1184 0)
(0.04624 -0.1248 0)
(0.04624 -0.1312 0)
(0.04624 -0.1376 0)
(0.04624 -0.144 0)
(0.04624 -0.1504 0)
(0.04624 -0.1568 0)
(0.04624 -0.1632 0)
(0.04624 -0.1696 0)
(0.04624 -0.176 0)
(0.04624 -0.1824 0)
(0.04624 -0.1888 0)
(0.04624 -0.1952 0)
(0.04624 -0.2016 0)
(0.04624 -0.208 0)
(0.04624 -0.2144 0)
(0.04624 -0.2208 0)
(0.04624 -0.2272 0)
(0.04624 -0.2336 0)
(0.04624 -0.24 0)
(0.04624 -0.2464 0)
(0.04624 -0.2528 0)
(0.04624 -0.2592 0)
(0.04624 -0.2656 0)
(0.04624 -0.272 0)
(0.04624 -0.2784 0)
(0.04624 -0.2848 0)
(0.04624 -0.2912 0)
(0.04624 -0.2976 0)
(0.04624 -0.304 0)
(0.04624 -0.3104 0)
(0.04624 -0.3168 0)
(0.05776 -0.0032 0)
(0.05776 -0.0096 0)
(0.05776 -0.016 0)
(0.05776 -0.0224 0)
(0.05776 -0.0288 0)
(0.05776 -0.0352 0)
(0.05776 -0.0416 0)
(0.05776 -0.048 0)
(0.05776 -0.0544 0)
(0.05776 -0.0608 0)
(0.05776 -0.0672 0)
(0.05776 -0.0736 0)
(0.05776 -0.08 0)
(0.05776 -0.0864 0)
(0.05776 -0.0928 0)
(0.05776 -0.0992 0)
(0.05776 -0.1056 0)
(0.05776 -0.112 0)
(0.05776 -0.1184 0)
(0.05776 -0.1248 0)
(0.05776 -0.1312 0)
(0.05776 -0.1376 0)
(0.05776 -0.144 0)
(0.05776 -0.1504 0)
(0.05776 -0.1568 0)
(0.05776 -0.1632 0)
(0.05776 -0.1696 0)
(0.05776 -0.176 0)
(0.05776 -0.1824 0)
(0.05776 -0.1888 0)
(0.05776 -0.1952 0)
(0.05776 -0.2016 0)
(0.05776 -0.208 0)
(0.05776 -0.2144 0)
(0.05776 -0.2208 0)
(0.05776 -0.2272 0)
(0.05776 -0.2336 0)
(0.05776 -0.24 0)
(0.05776 -0.2464 0)
(0.05776 -0.2528 0)
(0.05776 -0.2592 0)
(0.05776 -0.2656 0)
(0.05776 -0.272 0)
(0.05776 -0.2784 0)
(0.05776 -0.2848 0)
(0.05776 -0.2912 0)
(0.05776 -0.2976 0)
(0.05776 -0.304 0)
(0.05776 -0.3104 0)
(0.05776 -0.3168 0)
(0.07056 -0.0032 0)
(0.07056 -0.0096 0)
(0.07056 -0.016 0)
(0.07056 -0.0224 0)
(0.07056 -0.0288 0)
(0.07056 -0.0352 0)
(0.07056 -0.0416 0)
(0.07056 -0.048 0)
(0.07056 -0.0544 0)
(0.07056 -0.0608 0)
(0.07056 -0.0672 0)
(0.07056 -0.0736 0)
(0.07056 -0.08 0)
(0.07056 -0.0864 0)
(0.07056 -0.0928 0)
(0.07056 -0.0992 0)
(0.07056 -0.1056 0)
(0.07056 -0.112 0)
(0.07056 -0.1184 0)
(0.07056 -0.1248 0)
(0.07056 -0.1312 0)
(0.07056 -0.1376 0)
(0.07056 -0.144 0)
(0.07056 -0.1504 0)
(0.07056 -0.1568 0)
(0.07056 -0.1632 0)
(0.07056 -0.1696 0)
(0.07056 -0.176 0)
(0.07056 -0.1824 0)
(0.07056 -0.1888 0)
(0.07056 -0.1952 0)
(0.07056 -0.2016 0)
(0.07056 -0.208 0)
(0.07056 -0.2144 0)
(0.07056 -0.2208 0)
(0.07056 -0.2272 0)
(0.07056 -0.2336 0)
(0.07056 -0.24 0)
(0.07056 -0.2464 0)
(0.07056 -0.2528 0)
(0.07056 -0.2592 0)
(0.07056 -0.2656 0)
(0.07056 -0.272 0)
(0.07056 -0.2784 0)
(0.07056 -0.2848 0)
(0.07056 -0.2912 0)
(0.07056 -0.2976 0)
(0.07056 -0.304 0)
(0.07056 -0.3104 0)
(0.07056 -0.3168 0)
(0.08464 -0.0032 0)
(0.08464 -0.0096 0)
(0.08464 -0.016 0)
(0.08464 -0.0224 0)
(0.08464 -0.0288 0)
(0.08464 -0.0352 0)
(0.08464 -0.0416 0)
(0.08464 -0.048 0)
(0.08464 -0.0544 0)
(0.08464 -0.0608 0)
(0.08464 -0.0672 0)
(0.08464 -0.0736 0)
(0.08464 -0.08 0)
(0.08464 -0.0864 0)
(0.08464 -0.0928 0)
(0.08464 -0.0992 0)
(0.08464 -0.1056 0)
(0.08464 -0.112 0)
(0.08464 -0.1184 0)
(0.08464 -0.1248 0)
(0.08464 -0.1312 0)
(0.08464 -0.1376 0)
(0.08464 -0.144 0)
(0.08464 -0.1504 0)
(0.08464 -0.1568 0)
(0.08464 -0.1632 0)
(0.08464 -0.1696 0)
(0.08464 -0.176 0)
(0.08464 -0.1824 0)
(0.08464 -0.1888 0)
(0.08464 -0.1952 0)
(0.08464 -0.2016 0)
(0.08464 -0.208 0)
(0.08464 -0.2144 0)
(0.08464 -0.2208 0)
(0.08464 -0.2272 0)
(0.08464 -0.2336 0)
(0.08464 -0.24 0)
(0.08464 -0.2464 0)
(0.08464 -0.2528 0)
(0.08464 -0.2592 0)
(0.08464 -0.2656 0)
(0.08464 -0.272 0)
(0.08464 -0.2784 0)
(0.08464 -0.2848 0)
(0.08464 -0.2912 0)
(0.08464 -0.2976 0)
(0.08464 -0.304 0)
(0.08464 -0.3104 0)
(0.08464 -0.3168 0)
(0.1 -0.0032 0)
(0.1 -0.0096 0)
(0.1 -0.016 0)
(0.1 -0.0224 0)
(0.1 -0.0288 0)
(0.1 -0.0352 0)
(0.1 -0.0416 0)
(0.1 -0.048 0)
(0.1 -0.0544 0)
(0.1 -0.0608 0)
(0.1 -0.0672 0)
(0.1 -0.0736 0)
(0.1 -0.08 0)
(0.1 -0.0864 0)
(0.1 -0.0928 0)
(0.1 -0.0992 0)
(0.1 -0.1056 0)
(0.1 -0.112 0)
(0.1 -0.1184 0)
(0.1 -0.1248 0)
(0.1 -0.1312 0)
(0.1 -0.1376 0)
(0.1 -0.144 0)
(0.1 -0.1504 0)
(0.1 -0.1568 0)
(0.1 -0.1632 0)
(0.1 -0.1696 0)
(0.1 -0.176 0)
(0.1 -0.1824 0)
(0.1 -0.1888 0)
(0.1 -0.1952 0)
(0.1 -0.2016 0)
(0.1 -0.208 0)
(0.1 -0.2144 0)
(0.1 -0.2208 0)
(0.1 -0.2272 0)
(0.1 -0.2336 0)
(0.1 -0.24 0)
(0.1 -0.2464 0)
(0.1 -0.2528 0)
(0.1 -0.2592 0)
(0.1 -0.2656 0)
(0.1 -0.272 0)
(0.1 -0.2784 0)
(0.1 -0.2848 0)
(0.1 -0.2912 0)
(0.1 -0.2976 0)
(0.1 -0.304 0)
(0.1 -0.3104 0)
(0.1 -0.3168 0)
(0.11664 -0.0032 0)
(0.11664 -0.0096 0)
(0.11664 -0.016 0)
(0.11664 -0.0224 0)
(0.11664 -0.0288 0)
(0.11664 -0.0352 0)
(0.11664 -0.0416 0)
(0.11664 -0.048 0)
(0.11664 -0.0544 0)
(0.11664 -0.0608 0)
(0.11664 -0.0672 0)
(0.11664 -0.0736 0)
(0.11664 -0.08 0)
(0.11664 -0.0864 0)
(0.11664 -0.0928 0)
(0.11664 -0.0992 0)
(0.11664 -0.1056 0)
(0.11664 -0.112 0)
(0.11664 -0.1184 0)
(0.11664 -0.1248 0)
(0.11664 -0.1312 0)
(0.11664 -0.1376 0)
(0.11664 -0.144 0)
(0.11664 -0.1504 0)
(0.11664 -0.1568 0)
(0.11664 -0.1632 0)
(0.11664 -0.1696 0)
(0.11664 -0.176 0)
(0.11664 -0.1824 0)
(0.11664 -0.1888 0)
(0.11664 -0.1952 0)
(0.11664 -0.2016 0)
(0.11664 -0.208 0)
(0.11664 -0.2144 0)
(0.11664 -0.2208 0)
(0.11664 -0.2272 0)
(0.11664 -0.2336 0)
(0.11664 -0.24 0)
(0.11664 -0.2464 0)
(0.11664 -0.2528 0)
(0.11664 -0.2592 0)
(0.11664 -0.2656 0)
(0.11664 -0.272 0)
(0.11664 -0.2784 0)
(0.11664 -0.2848 0)
(0.11664 -0.2912 0)
(0.11664 -0.2976 0)
(0.11664 -0.304 0)
(0.11664 -0.3104 0)
(0.11664 -0.3168 0)
(0.13456 -0.0032 0)
(0.13456 -0.0096 0)
(0.13456 -0.016 0)
(0.13456 -0.0224 0)
(0.13456 -0.0288 0)
(0.13456 -0.0352 0)
(0.13456 -0.0416 0)
(0.13456 -0.048 0)
(0.13456 -0.0544 0)
(0.13456 -0.0608 0)
(0.13456 -0.0672 0)
(0.13456 -0.0736 0)
(0.13456 -0.08 0)
(0.13456 -0.0864 0)
(0.13456 -0.0928 0)
(0.13456 -0.0992 0)
(0.13456 -0.1056 0)
(0.13456 -0.112 0)
(0.13456 -0.1184 0)
(0.13456 -0.1248 0)
(0.13456 -0.1312 0)
(0.13456 -0.1376 0)
(0.13456 -0.144 0)
(0.13456 -0.1504 0)
(0.13456 -0.1568 0)
(0.13456 -0.1632 0)
(0.13456 -0.1696 0)
(0.13456 -0.176 0)
(0.13456 -0.1824 0)
(0.13456 -0.1888 0)
(0.13456 -0.1952 0)
(0.13456 -0.2016 0)
(0.13456 -0.208 0)
(0.13456 -0.2144 0)
(0.13456 -0.2208 0)
(0.13456 -0.2272 0)
(0.13456 -0.2336 0)
(0.13456 -0.24 0)
(0.13456 -0.2464 0)
(0.13456 -0.2528 0)
(0.13456 -0.2592 0)
(0.13456 -0.2656 0)
(0.13456 -0.272 0)
(0.13456 -0.2784 0)
(0.13456 -0.2848 0)
(0.13456 -0.2912 0)
(0.13456 -0.2976 0)
(0.13456 -0.304 0)
(0.13456 -0.3104 0)
(0.13456 -0.3168 0)
(0.15376 -0.0032 0)
(0.15376 -0.0096 0)
(0.15376 -0.016 0)
(0.15376 -0.0224 0)
(0.15376 -0.0288 0)
(0.15376 -0.0352 0)
(0.15376 -0.0416 0)
(0.15376 -0.048 0)
(0.15376 -0.0544 0)
(0.15376 -0.0608 0)
(0.15376 -0.0672 0)
(0.15376 -0.0736 0)
(0.15376 -0.08 0)
(0.15376 -0.0864 0)
(0.15376 -0.0928 0)
(0.15376 -0.0992 0)
(0.15376 -0.1056 0)
(0.15376 -0.112 0)
(0.15376 -0.1184 0)
(0.15376 -0.1248 0)
(0.15376 -0.1312 0)
(0.15376 -0.1376 0)
(0.15376 -0.144 0)
(0.15376 -0.1504 0)
(0.15376 -0.1568 0)
(0.15376 -0.1632 0)
(0.15376 -0.1696 0)
(0.15376 -0.176 0)
(0.15376 -0.1824 0)
(0.15376 -0.1888 0)
(0.15376 -0.1952 0)
(0.15376 -0.2016 0)
(0.15376 -0.208 0)
(0.15376 -0.2144 0)
(0.15376 -0.2208 0)
(0.15376 -0.2272 0)
(0.15376 -0.2336 0)
(0.15376 -0.24 0)
(0.15376 -0.2464 0)
(0.15376 -0.2528 0)
(0.15376 -0.2592 0)
(0.15376 -0.2656 0)
(0.15376 -0.272 0)
(0.15376 -0.2784 0)
(0.15376 -0.2848 0)
(0.15376 -0.2912 0)
(0.15376 -0.2976 0)
(0.15376 -0.304 0)
(0.15376 -0.3104 0)
(0.15376 -0.3168 0)
(0.17424 -0.0032 0)
(0.17424 -0.0096 0)
(0.17424 -0.016 0)
(0.17424 -0.0224 0)
(0.17424 -0.0288 0)
(0.17424 -0.0352 0)
(0.17424 -0.0416 0)
(0.17424 -0.048 0)
(0.17424 -0.0544 0)
(0.17424 -0.0608 0)
(0.17424 -0.0672 0)
(0.17424 -0.0736 0)
(0.17424 -0.08 0)
(0.17424 -0.0864 0)
(0.17424 -0.0928 0)
(0.17424 -0.0992 0)
(0.17424 -0.1056 0)
(0.17424 -0.112 0)
(0.17424 -0.1184 0)
(0.17424 -0.1248 0)
(0.17424 -0.1312 0)
(0.17424 -0.1376 0)
(0.17424 -0.144 0)
(0.17424 -0.1504 0)
(0.17424 -0.1568 0)
(0.17424 -0.1632 0)
(0.17424 -0.1696 0)
(0.17424 -0.176 0)
(0.17424 -0.1824 0)
(0.17424 -0.1888 0)
(0.17424 -0.1952 0)
(0.17424 -0.2016 0)
(0.17424 -0.208 0)
(0.17424 -0.2144 0)
(0.17424 -0.2208 0)
(0.17424 -0.2272 0)
(0.17424 -0.2336 0)
(0.17424 -0.24 0)
(0.17424 -0.2464 0)
(0.17424 -0.2528 0)
(0.17424 -0.2592 0)
(0.17424 -0.2656 0)
(0.17424 -0.272 0)
(0.17424 -0.2784 0)
(0.17424 -0.2848 0)
(0.17424 -0.2912 0)
(0.17424 -0.2976 0)
(0.17424 -0.304 0)
(0.17424 -0.3104 0)
(0.17424 -0.3168 0)
(0.196 -0.0032 0)
(0.196 -0.0096 0)
(0.196 -0.016 0)
(0.196 -0.0224 0)
(0.196 -0.0288 0)
(0.196 -0.0352 0)
(0.196 -0.0416 0)
(0.196 -0.048 0)
(0.196 -0.0544 0)
(0.196 -0.0608 0)
(0.196 -0.0672 0)
(0.196 -0.0736 0)
(0.196 -0.08 0)
(0.196 -0.0864 0)
(0.196 -0.0928 0)
(0.196 -0.0992 0)
(0.196 -0.1056 0)
(0.196 -0.112 0)
(0.196 -0.1184 0)
(0.196 -0.1248 0)
(0.196 -0.1312 0)
(0.196 -0.1376 0)
(0.196 -0.144 0)
(0.196 -0.1504 0)
(0.196 -0.1568 0)
(0.196 -0.1632 0)
(0.196 -0.1696 0)
(0.196 -0.176 0)
(0.196 -0.1824 0)
(0.196 -0.1888 0)
(0.196 -0.1952 0)
(0.196 -0.2016 0)
(0.196 -0.208 0)
(0.196 -0.2144 0)
(0.196 -0.2208 0)
(0.196 -0.2272 0)
(0.196 -0.2336 0)
(0.196 -0.24 0)
(0.196 -0.2464 0)
(0.196 -0.2528 0)
(0.196 -0.2592 0)
(0.196 -0.2656 0)
(0.196 -0.272 0)
(0.196 -0.2784 0)
(0.196 -0.2848 0)
(0.196 -0.2912 0)
(0.196 -0.2976 0)
(0.196 -0.304 0)
(0.196 -0.3104 0)
(0.196 -0.3168 0)
(0.21904 -0.0032 0)
(0.21904 -0.0096 0)
(0.21904 -0.016 0)
(0.21904 -0.0224 0)
(0.21904 -0.0288 0)
(0.21904 -0.0352 0)
(0.21904 -0.0416 0)
(0.21904 -0.048 0)
(0.21904 -0.0544 0)
(0.21904 -0.0608 0)
(0.21904 -0.0672 0)
(0.21904 -0.0736 0)
(0.21904 -0.08 0)
(0.21904 -0.0864 0)
(0.21904 -0.0928 0)
(0.21904 -0.0992 0)
(0.21904 -0.1056 0)
(0.21904 -0.112 0)
(0.21904 -0.1184 0)
(0.21904 -0.1248 0)
(0.21904 -0.1312 0)
(0.21904 -0.1376 0)
(0.21904 -0.144 0)
(0.21904 -0.1504 0)
(0.21904 -0.1568 0)
(0.21904 -0.1632 0)
(0.21904 -0.1696 0)
(0.21904 -0.176 0)
(0.21904 -0.1824 0)
(0.21904 -0.1888 0)
(0.21904 -0.1952 0)
(0.21904 -0.2016 0)
(0.21904 -0.208 0)
(0.21904 -0.2144 0)
(0.21904 -0.2208 0)
(0.21904 -0.2272 0)
(0.21904 -0.2336 0)
(0.21904 -0.24 0)
(0.21904 -0.2464 0)
(0.21904 -0.2528 0)
(0.21904 -0.2592 0)
(0.21904 -0.2656 0)
(0.21904 -0.272 0)
(0.21904 -0.2784 0)
(0.21904 -0.2848 0)
(0.21904 -0.2912 0)
(0.21904 -0.2976 0)
(0.21904 -0.304 0)
(0.21904 -0.3104 0)
(0.21904 -0.3168 0)
(0.24336 -0.0032 0)
(0.24336 -0.0096 0)
(0.24336 -0.016 0)
(0.24336 -0.0224 0)
(0.24336 -0.0288 0)
(0.24336 -0.0352 0)
(0.24336 -0.0416 0)
(0.24336 -0.048 0)
(0.24336 -0.0544 0)
(0.24336 -0.0608 0)
(0.24336 -0.0672 0)
(0.24336 -0.0736 0)
(0.24336 -0.08 0)
(0.24336 -0.0864 0)
(0.24336 -0.0928 0)
(0.24336 -0.0992 0)
(0.24336 -0.1056 0)
(0.24336 -0.112 0)
(0.24336 -0.1184 0)
(0.24336 -0.1248 0)
(0.24336 -0.1312 0)
(0.24336 -0.1376 0)
(0.24336 -0.144 0)
(0.24336 -0.1504 0)
(0.24336 -0.1568 0)
(0.24336 -0.1632 0)
(0.24336 -0.1696 0)
(0.24336 -0.176 0)
(0.24336 -0.1824 0)
(0.24336 -0.1888 0)
(0.24336 -0.1952 0)
(0.24336 -0.2016 0)
(0.24336 -0.208 0)
(0.24336 -0.2144 0)
(0.24336 -0.2208 0)
(0.24336 -0.2272 0)
(0.24336 -0.2336 0)
(0.24336 -0.24 0)
(0.24336 -0.2464 0)
(0.24336 -0.2528 0)
(0.24336 -0.2592 0)
(0.24336 -0.2656 0)
(0.24336 -0.272 0)
(0.24336 -0.2784 0)
(0.24336 -0.2848 0)
(0.24336 -0.2912 0)
(0.24336 -0.2976 0)
(0.24336 -0.304 0)
(0.24336 -0.3104 0)
(0.24336 -0.3168 0)
(0.26896 -0.0032 0)
(0.26896 -0.0096 0)
(0.26896 -0.016 0)
(0.26896 -0.0224 0)
(0.26896 -0.0288 0)
(0.26896 -0.0352 0)
(0.26896 -0.0416 0)
(0.26896 -0.048 0)
(0.26896 -0.0544 0)
(0.26896 -0.0608 0)
(0.26896 -0.0672 0)
(0.26896 -0.0736 0)
(0.26896 -0.08 0)
(0.26896 -0.0864 0)
(0.26896 -0.0928 0)
(0.26896 -0.0992 0)
(0.26896 -0.1056 0)
(0.26896 -0.112 0)
(0.26896 -0.1184 0)
(0.26896 -0.1248 0)
(0.26896 -0.1312 0)
(0.26896 -0.1376 0)
(0.26896 -0.144 0)
(0.26896 -0.1504 0)
(0.26896 -0.1568 0)
(0.26896 -0.1632 0)
(0.26896 -0.1696 0)
(0.26896 -0.176 0)
(0.26896 -0.1824 0)
(0.26896 -0.1888 0)
(0.26896 -0.1952 0)
(0.26896 -0.2016 0)
(0.26896 -0.208 0)
(0.26896 -0.2144 0)
(0.26896 -0.2208 0)
(0.26896 -0.2272 0)
(0.26896 -0.2336 0)
(0.26896 -0.24 0)
(0.26896 -0.2464 0)
(0.26896 -0.2528 0)
(0.26896 -0.2592 0)
(0.26896 -0.2656 0)
(0.26896 -0.272 0)
(0.26896 -0.2784 0)
(0.26896 -0.2848 0)
(0.26896 -0.2912 0)
(0.26896 -0.2976 0)
(0.26896 -0.304 0)
(0.26896 -0.3104 0)
(0.26896 -0.3168 0)
(0.29584 -0.0032 0)
(0.29584 -0.0096 0)
(0.29584 -0.016 0)
(0.29584 -0.0224 0)
(0.29584 -0.0288 0)
(0.29584 -0.0352 0)
(0.29584 -0.0416 0)
(0.29584 -0.048 0)
(0.29584 -0.0544 0)
(0.29584 -0.0608 0)
(0.29584 -0.0672 0)
(0.29584 -0.0736 0)
(0.29584 -0.08 0)
(0.29584 -0.0864 0)
(0.29584 -0.0928 0)
(0.29584 -0.0992 0)
(0.29584 -0.1056 0)
(0.29584 -0.112 0)
(0.29584 -0.1184 0)
(0.29584 -0.1248 0)
(0.29584 -0.1312 0)
(0.29584 -0.1376 0)
(0.29584 -0.144 0)
(0.29584 -0.1504 0)
(0.29584 -0.1568 0)
(0.29584 -0.1632 0)
(0.29584 -0.1696 0)
(0.29584 -0.176 0)
(0.29584 -0.1824 0)
(0.29584 -0.1888 0)
(0.29584 -0.1952 0)
(0.29584 -0.2016 0)
(0.29584 -0.208 0)
(0.29584 -0.2144 0)
(0.29584 -0.2208 0)
(0.29584 -0.2272 0)
(0.29584 -0.2336 0)
(0.29584 -0.24 0)
(0.29584 -0.2464 0)
(0.29584 -0.2528 0)
(0.29584 -0.2592 0)
(0.29584 -0.2656 0)
(0.29584 -0.272 0)
(0.29584 -0.2784 0)
(0.29584 -0.2848 0)
(0.29584 -0.2912 0)
(0.29584 -0.2976 0)
(0.29584 -0.304 0)
(0.29584 -0.3104 0)
(0.29584 -0.3168 0)
(0.324 -0.0032 0)
(0.324 -0.0096 0)
(0.324 -0.016 0)
(0.324 -0.0224 0)
(0.324 -0.0288 0)
(0.324 -0.0352 0)
(0.324 -0.0416 0)
(0.324 -0.048 0)
(0.324 -0.0544 0)
(0.324 -0.0608 0)
(0.324 -0.0672 0)
(0.324 -0.0736 0)
(0.324 -0.08 0)
(0.324 -0.0864 0)
(0.324 -0.0928 0)
(0.324 -0.0992 0)
(0.324 -0.1056 0)
(0.324 -0.112 0)
(0.324 -0.1184 0)
(0.324 -0.1248 0)
(0.324 -0.1312 0)
(0.324 -0.1376 0)
(0.324 -0.144 0)
(0.324 -0.1504 0)
(0.324 -0.1568 0)
(0.324 -0.1632 0)
(0.324 -0.1696 0)
(0.324 -0.176 0)
(0.324 -0.1824 0)
(0.324 -0.1888 0)
(0.324 -0.1952 0)
(0.324 -0.2016 0)
(0.324 -0.208 0)
(0.324 -0.2144 0)
(0.324 -0.2208 0)
(0.324 -0.2272 0)
(0.324 -0.2336 0)
(0.324 -0.24 0)
(0.324 -0.2464 0)
(0.324 -0.2528 0)
(0.324 -0.2592 0)
(0.324 -0.2656 0)
(0.324 -0.272 0)
(0.324 -0.2784 0)
(0.324 -0.2848 0)
(0.324 -0.2912 0)
(0.324 -0.2976 0)
(0.324 -0.304 0)
(0.324 -0.3104 0)
(0.324 -0.3168 0)
(0.35344 -0.0032 0)
(0.35344 -0.0096 0)
(0.35344 -0.016 0)
(0.35344 -0.0224 0)
(0.35344 -0.0288 0)
(0.35344 -0.0352 0)
(0.35344 -0.0416 0)
(0.35344 -0.048 0)
(0.35344 -0.0544 0)
(0.35344 -0.0608 0)
(0.35344 -0.0672 0)
(0.35344 -0.0736 0)
(0.35344 -0.08 0)
(0.35344 -0.0864 0)
(0.35344 -0.0928 0)
(0.35344 -0.0992 0)
(0.35344 -0.1056 0)
(0.35344 -0.112 0)
(0.35344 -0.1184 0)
(0.35344 -0.1248 0)
(0.35344 -0.1312 0)
(0.35344 -0.1376 0)
(0.35344 -0.144 0)
(0.35344 -0.1504 0)
(0.35344 -0.1568 0)
(0.35344 -0.1632 0)
(0.35344 -0.1696 0)
(0.35344 -0.176 0)
(0.35344 -0.1824 0)
(0.35344 -0.1888 0)
(0.35344 -0.1952 0)
(0.35344 -0.2016 0)
(0.35344 -0.208 0)
(0.35344 -0.2144 0)
(0.35344 -0.2208 0)
(0.35344 -0.2272 0)
(0.35344 -0.2336 0)
(0.35344 -0.24 0)
(0.35344 -0.2464 0)
(0.35344 -0.2528 0)
(0.35344 -0.2592 0)
(0.35344 -0.2656 0)
(0.35344 -0.272 0)
(0.35344 -0.2784 0)
(0.35344 -0.2848 0)
(0.35344 -0.2912 0)
(0.35344 -0.2976 0)
(0.35344 -0.304 0)
(0.35344 -0.3104 0)
(0.35344 -0.3168 0)
(0.38416 -0.0032 0)
(0.38416 -0.0096 0)
(0.38416 -0.016 0)
(0.38416 -0.0224 0)
(0.38416 -0.0288 0)
(0.38416 -0.0352 0)
(0.38416 -0.0416 0)
(0.38416 -0.048 0)
(0.38416 -0.0544 0)
(0.38416 -0.0608 0)
(0.38416 -0.0672 0)
(0.38416 -0.0736 0)
(0.38416 -0.08 0)
(0.38416 -0.0864 0)
(0.38416 -0.0928 0)
(0.38416 -0.0992 0)
(0.38416 -0.1056 0)
(0.38416 -0.112 0)
(0.38416 -0.1184 0)
(0.38416 -0.1248 0)
(0.38416 -0.1312 0)
(0.38416 -0.1376 0)
(0.38416 -0.144 0)
(0.38416 -0.1504 0)
(0.38416 -0.1568 0)
(0.38416 -0.1632 0)
(0.38416 -0.1696 0)
(0.38416 -0.176 0)
(0.38416 -0.1824 0)
(0.38416 -0.1888 0)
(0.38416 -0.1952 0)
(0.38416 -0.2016 0)
(0.38416 -0.208 0)
(0.38416 -0.2144 0)
(0.38416 -0.2208 0)
(0.38416 -0.2272 0)
(0.38416 -0.2336 0)
(0.38416 -0.24 0)
(0.38416 -0.2464 0)
(0.38416 -0.2528 0)
(0.38416 -0.2592 0)
(0.38416 -0.2656 0)
(0.38416 -0.272 0)
(0.38416 -0.2784 0)
(0.38416 -0.2848 0)
(0.38416 -0.2912 0)
(0.38416 -0.2976 0)
(0.38416 -0.304 0)
(0.38416 -0.3104 0)
(0.38416 -0.3168 0)
(0.41616 -0.0032 0)
(0.41616 -0.0096 0)
(0.41616 -0.016 0)
(0.41616 -0.0224 0)
(0.41616 -0.0288 0)
(0.41616 -0.0352 0)
(0.41616 -0.0416 0)
(0.41616 -0.048 0)
(0.41616 -0.0544 0)
(0.41616 -0.0608 0)
(0.41616 -0.0672 0)
(0.41616 -0.0736 0)
(0.41616 -0.08 0)
(0.41616 -0.0864 0)
(0.41616 -0.0928 0)
(0.41616 -0.0992 0)
(0.41616 -0.1056 0)
(0.41616 -0.112 0)
(0.41616 -0.1184 0)
(0.41616 -0.1248 0)
(0.41616 -0.1312 0)
(0.41616 -0.1376 0)
(0.41616 -0.144 0)
(0.41616 -0.1504 0)
(0.41616 -0.1568 0)
(0.41616 -0.1632 0)
(0.41616 -0.1696 0)
(0.41616 -0.176 0)
(0.41616 -0.1824 0)
(0.41616 -0.1888 0)
(0.41616 -0.1952 0)
(0.41616 -0.2016 0)
(0.41616 -0.208 0)
(0.41616 -0.2144 0)
(0.41616 -0.2208 0)
(0.41616 -0.2272 0)
(0.41616 -0.2336 0)
(0.41616 -0.24 0)
(0.41616 -0.2464 0)
(0.41616 -0.2528 0)
(0.41616 -0.2592 0)
(0.41616 -0.2656 0)
(0.41616 -0.272 0)
(0.41616 -0.2784 0)
(0.41616 -0.2848 0)
(0.41616 -0.2912 0)
(0.41616 -0.2976 0)
(0.41616 -0.304 0)
(0.41616 -0.3104 0)
(0.41616 -0.3168 0)
(0.44944 -0.0032 0)
(0.44944 -0.0096 0)
(0.44944 -0.016 0)
(0.44944 -0.0224 0)
(0.44944 -0.0288 0)
(0.44944 -0.0352 0)
(0.44944 -0.0416 0)
(0.44944 -0.048 0)
(0.44944 -0.0544 0)
(0.44944 -0.0608 0)
(0.44944 -0.0672 0)
(0.44944 -0.0736 0)
(0.44944 -0.08 0)
(0.44944 -0.0864 0)
(0.44944 -0.0928 0)
(0.44944 -0.0992 0)
(0.44944 -0.1056 0)
(0.44944 -0.112 0)
(0.44944 -0.1184 0)
(0.44944 -0.1248 0)
(0.44944 -0.1312 0)
(0.44944 -0.1376 0)
(0.44944 -0.144 0)
(0.44944 -0.1504 0)
(0.44944 -0.1568 0)
(0.44944 -0.1632 0)
(0.44944 -0.1696 0)
(0.44944 -0.176 0)
(0.44944 -0.1824 0)
(0.44944 -0.1888 0)
(0.44944 -0.1952 0)
(0.44944 -0.2016 0)
(0.44944 -0.208 0)
(0.44944 -0.2144 0)
(0.44944 -0.2208 0)
(0.44944 -0.2272 0)
(0.44944 -0.2336 0)
(0.44944 -0.24 0)
(0.44944 -0.2464 0)
(0.44944 -0.2528 0)
(0.44944 -0.2592 0)
(0.44944 -0.2656 0)
(0.44944 -0.272 0)
(0.44944 -0.2784 0)
(0.44944 -0.2848 0)
(0.44944 -0.2912 0)
(0.44944 -0.2976 0)
(0.44944 -0.304 0)
(0.44944 -0.3104 0)
(0.44944 -0.3168 0)
(0.484 -0.0032 0)
(0.484 -0.0096 0)
(0.484 -0.016 0)
(0.484 -0.0224 0)
(0.484 -0.0288 0)
(0.484 -0.0352 0)
(0.484 -0.0416 0)
(0.484 -0.048 0)
(0.484 -0.0544 0)
(0.484 -0.0608 0)
(0.484 -0.0672 0)
(0.484 -0.0736 0)
(0.484 -0.08 0)
(0.484 -0.0864 0)
(0.484 -0.0928 0)
(0.484 -0.0992 0)
(0.484 -0.1056 0)
(0.484 -0.112 0)
(0.484 -0.1184 0)
(0.484 -0.1248 0)
(0.484 -0.1312 0)
(0.484 -0.1376 0)
(0.484 -0.144 0)
(0.484 -0.1504 0)
(0.484 -0.1568 0)
(0.484 -0.1632 0)
(0.484 -0.1696 0)
(0.484 -0.176 0)
(0.484 -0.1824 0)
(0.484 -0.1888 0)
(0.484 -0.1952 0)
(0.484 -0.2016 0)
(0.484 -0.208 0)
(0.484 -0.2144 0)
(0.484 -0.2208 0)
(0.484 -0.2272 0)
(0.484 -0.2336 0)
(0.484 -0.24 0)
(0.484 -0.2464 0)
(0.484 -0.2528 0)
(0.484 -0.2592 0)
(0.484 -0.2656 0)
(0.484 -0.272 0)
(0.484 -0.2784 0)
(0.484 -0.2848 0)
(0.484 -0.2912 0)
(0.484 -0.2976 0)
(0.484 -0.304 0)
(0.484 -0.3104 0)
(0.484 -0.3168 0)
(0.51984 -0.0032 0)
(0.51984 -0.0096 0)
(0.51984 -0.016 0)
(0.51984 -0.0224 0)
(0.51984 -0.0288 0)
(0.51984 -0.0352 0)
(0.51984 -0.0416 0)
(0.51984 -0.048 0)
(0.51984 -0.0544 0)
(0.51984 -0.0608 0)
(0.51984 -0.0672 0)
(0.51984 -0.0736 0)
(0.51984 -0.08 0)
(0.51984 -0.0864 0)
(0.51984 -0.0928 0)
(0.51984 -0.0992 0)
(0.51984 -0.1056 0)
(0.51984 -0.112 0)
(0.51984 -0.1184 0)
(0.51984 -0.1248 0)
(0.51984 -0.1312 0)
(0.51984 -0.1376 0)
(0.51984 -0.144 0)
(0.51984 -0.1504 0)
(0.51984 -0.1568 0)
(0.51984 -0.1632 0)
(0.51984 -0.1696 0)
(0.51984 -0.176 0)
(0.51984 -0.1824 0)
(0.51984 -0.1888 0)
(0.51984 -0.1952 0)
(0.51984 -0.2016 0)
(0.51984 -0.208 0)
(0.51984 -0.2144 0)
(0.51984 -0.2208 0)
(0.51984 -0.2272 0)
(0.51984 -0.2336 0)
(0.51984 -0.24 0)
(0.51984 -0.2464 0)
(0.51984 -0.2528 0)
(0.51984 -0.2592 0)
(0.51984 -0.2656 0)
(0.51984 -0.272 0)
(0.51984 -0.2784 0)
(0.51984 -0.2848 0)
(0.51984 -0.2912 0)
(0.51984 -0.2976 0)
(0.51984 -0.304 0)
(0.51984 -0.3104 0)
(0.51984 -0.3168 0)
(0.55696 -0.0032 0)
(0.55696 -0.0096 0)
(0.55696 -0.016 0)
(0.55696 -0.0224 0)
(0.55696 -0.0288 0)
(0.55696 -0.0352 0)
(0.55696 -0.0416 0)
(0.55696 -0.048 0)
(0.55696 -0.0544 0)
(0.55696 -0.0608 0)
(0.55696 -0.0672 0)
(0.55696 -0.0736 0)
(0.55696 -0.08 0)
(0.55696 -0.0864 0)
(0.55696 -0.0928 0)
(0.55696 -0.0992 0)
(0.55696 -0.1056 0)
(0.55696 -0.112 0)
(0.55696 -0.1184 0)
(0.55696 -0.1248 0)
(0.55696 -0.1312 0)
(0.55696 -0.1376 0)
(0.55696 -0.144 0)
(0.55696 -0.1504 0)
(0.55696 -0.1568 0)
(0.55696 -0.1632 0)
(0.55696 -0.1696 0)
(0.55696 -0.176 0)
(0.55696 -0.1824 0)
(0.55696 -0.1888 0)
(0.55696 -0.1952 0)
(0.55696 -0.2016 0)
(0.55696 -0.208 0)
(0.55696 -0.2144 0)
(0.55696 -0.2208 0)
(0.55696 -0.2272 0)
(0.55696 -0.2336 0)
(0.55696 -0.24 0)
(0.55696 -0.2464 0)
(0.55696 -0.2528 0)
(0.55696 -0.2592 0)
(0.55696 -0.2656 0)
(0.55696 -0.272 0)
(0.55696 -0.2784 0)
(0.55696 -0.2848 0)
(0.55696 -0.2912 0)
(0.55696 -0.2976 0)
(0.55696 -0.304 0)
(0.55696 -0.3104 0)
(0.55696 -0.3168 0)
(0.59536 -0.0032 0)
(0.59536 -0.0096 0)
(0.59536 -0.016 0)
(0.59536 -0.0224 0)
(0.59536 -0.0288 0)
(0.59536 -0.0352 0)
(0.59536 -0.0416 0)
(0.59536 -0.048 0)
(0.59536 -0.0544 0)
(0.59536 -0.0608 0)