/*--------------------------------*- C++ -*----------------------------------*\
| =========                 |                                                 |
| \\      /  F ield         | OpenFOAM: The Open Source CFD Toolbox           |
|  \\    /   O peration     | Version:  v2006                                 |
|   \\  /    A nd           | Website:  www.openfoam.com                      |
|    \\/     M anipulation  |                                                 |
\*---------------------------------------------------------------------------*/
FoamFile
{
    version     2.0;
    format      ascii;
    class       surfaceScalarField;
    location    "19.7";
    object      alphaPhi0.water;
}
// * * * * * * * * * * * * * * * * * * * * * * * * * * * * * * * * * * * * * //

dimensions      [0 3 -1 0 0 0 0];
oriented        oriented;


internalField   nonuniform List<scalar> 
104500
(
6.04849e-05
-6.04849e-05
0.000130907
-7.04221e-05
0.000199282
-6.83746e-05
0.000266272
-6.69899e-05
0.000332715
-6.64431e-05
0.000398872
-6.6157e-05
0.000464823
-6.59512e-05
0.000530605
-6.57823e-05
0.000596221
-6.56161e-05
0.00066165
-6.54286e-05
0.000726862
-6.52123e-05
0.000791832
-6.49702e-05
0.000856541
-6.4709e-05
0.000920977
-6.44355e-05
0.000985131
-6.41545e-05
0.001049
-6.38685e-05
0.00111258
-6.35787e-05
0.00117586
-6.32849e-05
0.00123885
-6.29866e-05
0.00130153
-6.26832e-05
0.00136391
-6.2374e-05
0.00142597
-6.20576e-05
0.0014877
-6.17317e-05
0.00154909
-6.13934e-05
0.00161013
-6.10394e-05
0.0016708
-6.0666e-05
0.00173107
-6.02698e-05
0.00179091
-5.9848e-05
0.00185031
-5.93988e-05
0.00190923
-5.89207e-05
0.00196765
-5.8413e-05
0.00202552
-5.78761e-05
0.00208283
-5.73114e-05
0.00213955
-5.67213e-05
0.00219566
-5.61093e-05
0.00225114
-5.54784e-05
0.00230597
-5.48299e-05
0.00236013
-5.41624e-05
0.00241361
-5.3472e-05
0.00246636
-5.27525e-05
0.00251836
-5.1997e-05
0.00256956
-5.11993e-05
0.00261991
-5.03539e-05
0.00266937
-4.94565e-05
0.00271787
-4.85027e-05
0.00276535
-4.74867e-05
0.00281176
-4.64002e-05
0.00285699
-4.52326e-05
0.00290096
-4.39726e-05
0.00294357
-4.26108e-05
0.00298471
-4.11434e-05
0.00302429
-3.95758e-05
0.00306222
-3.79259e-05
0.00309844
-3.62236e-05
0.00313295
-3.45079e-05
0.00316577
-3.28199e-05
0.00319696
-3.11955e-05
0.00322662
-2.96596e-05
0.00325484
-2.82217e-05
0.00328172
-2.68768e-05
0.00330733
-2.56097e-05
0.00333173
-2.44012e-05
0.00335497
-2.32339e-05
0.00337706
-2.20956e-05
0.00339804
-2.09804e-05
0.00341793
-1.98879e-05
0.00343675
-1.88217e-05
0.00345454
-1.77862e-05
0.00347132
-1.67851e-05
0.00348714
-1.58202e-05
0.00350203
-1.48904e-05
0.00351603
-1.39929e-05
0.00352915
-1.31238e-05
0.00354143
-1.22793e-05
0.00355289
-1.14568e-05
0.00356354
-1.06547e-05
0.00357341
-9.87294e-06
0.00358253
-9.11199e-06
0.0035909
-8.37247e-06
0.00359855
-7.6544e-06
0.00360551
-6.95689e-06
0.00361179
-6.27794e-06
0.0036174
-5.61469e-06
0.00362237
-4.9638e-06
0.00362669
-4.32184e-06
0.00363037
-3.68573e-06
0.00363343
-3.05295e-06
0.00363585
-2.42157e-06
0.00363764
-1.78984e-06
0.00363879
-1.1554e-06
0.00363931
-5.1311e-07
0.00363915
1.56305e-07
0.00363833
8.23306e-07
0.00363683
1.49695e-06
0.00363466
2.17226e-06
0.00363182
2.84149e-06
0.00362832
3.5006e-06
0.00362417
4.14597e-06
0.0036194
4.77439e-06
0.00361401
5.38466e-06
0.00360803
5.97805e-06
0.00360148
6.55728e-06
0.00359435
7.12916e-06
0.00358665
7.69997e-06
0.00357837
8.27488e-06
0.00356951
8.85788e-06
0.00356006
9.44977e-06
0.00355002
1.00484e-05
0.00353937
1.06494e-05
0.00352812
1.12476e-05
0.00351628
1.18382e-05
0.00350386
1.2417e-05
0.00349088
1.29813e-05
0.00347735
1.35293e-05
0.00346329
1.40598e-05
0.00344872
1.45723e-05
0.00343365
1.50666e-05
0.00341811
1.5543e-05
0.00340211
1.60022e-05
0.00338566
1.64448e-05
0.00336879
1.68715e-05
0.00335151
1.72829e-05
0.00333383
1.76798e-05
0.00331577
1.80629e-05
0.00329733
1.84332e-05
0.00327854
1.87914e-05
0.0032594
1.91383e-05
0.00323993
1.94748e-05
0.00322013
1.98018e-05
0.00320001
2.01201e-05
0.00317958
2.04299e-05
0.00315885
2.07307e-05
0.00313783
2.10204e-05
0.00311653
2.12951e-05
0.00309498
2.15494e-05
0.00307321
2.17764e-05
0.00305124
2.19691e-05
0.00302911
2.21212e-05
0.00300689
2.22296e-05
0.00298459
2.22949e-05
0.00296227
2.2323e-05
0.00293994
2.23244e-05
0.00291763
2.2313e-05
0.00289533
2.23045e-05
0.00287301
2.23142e-05
0.00285066
2.23554e-05
0.00282822
2.24381e-05
0.00280565
2.25686e-05
0.0027829
2.27505e-05
0.00275991
2.29864e-05
0.00273663
2.32809e-05
0.00271299
2.3643e-05
0.0026889
2.4086e-05
0.00266428
2.46266e-05
0.002639
2.52788e-05
0.00261295
2.60475e-05
0.00258603
2.69196e-05
0.00255817
2.7859e-05
0.00252937
2.88055e-05
0.00249969
2.96803e-05
0.00246929
3.0398e-05
0.00243841
3.0873e-05
0.0024074
3.10112e-05
0.00237665
3.07549e-05
0.0023465
3.01508e-05
0.00231738
2.91175e-05
0.00228979
2.75868e-05
0.00226426
2.5534e-05
0.00224122
2.30374e-05
0.00222092
2.03053e-05
0.00220329
1.76231e-05
0.00218805
1.52462e-05
0.00217474
1.3308e-05
0.00216294
1.17995e-05
0.00215232
1.06171e-05
0.00214269
9.63198e-06
0.00213395
8.73924e-06
0.00212608
7.87288e-06
0.00211908
6.99859e-06
0.00211298
6.10147e-06
0.0021078
5.1775e-06
0.00210357
4.22946e-06
0.00210031
3.26536e-06
0.00209801
2.29867e-06
0.00209666
1.3518e-06
0.00209619
4.67437e-07
0.00209657
-3.79854e-07
0.00209783
-1.26481e-06
0.00209989
-2.06145e-06
0.00210268
-2.78816e-06
0.00210613
-3.44786e-06
0.00211017
-4.03826e-06
0.00211473
-4.56047e-06
0.00211974
-5.01489e-06
0.00212515
-5.40577e-06
0.00213088
-5.73515e-06
0.0021369
-6.0148e-06
0.00214315
-6.24972e-06
0.0021496
-6.44701e-06
0.00215621
-6.61764e-06
0.00216298
-6.76209e-06
0.00216987
-6.89285e-06
0.00217688
-7.0125e-06
0.00218401
-7.12523e-06
0.00219125
-7.2389e-06
0.0021986
-7.35467e-06
0.00220607
-7.47053e-06
0.00221366
-7.59275e-06
0.00222137
-7.71174e-06
0.0022292
-7.82978e-06
0.00223715
-7.94179e-06
0.00224518
-8.03808e-06
0.0022533
-8.1187e-06
0.00226148
-8.17796e-06
0.00226969
-8.21332e-06
0.00227792
-8.2246e-06
0.00228613
-8.20632e-06
0.00229429
-8.16516e-06
0.00230239
-8.09562e-06
0.00231039
-8.00454e-06
0.00231828
-7.88973e-06
0.00232603
-7.75141e-06
0.00233362
-7.59102e-06
0.00234103
-7.41184e-06
0.00234824
-7.20998e-06
0.00235523
-6.9889e-06
0.00236198
-6.74931e-06
0.00236847
-6.49117e-06
0.00237469
-6.21452e-06
0.00238061
-5.92054e-06
0.00238622
-5.60914e-06
0.0023915
-5.27975e-06
0.00239643
-4.93517e-06
0.00240101
-4.5745e-06
0.00240521
-4.20108e-06
0.00240902
-3.81074e-06
0.00241242
-3.40208e-06
0.0024154
-2.98185e-06
0.00241795
-2.54386e-06
0.00242004
-2.08773e-06
0.00242165
-1.61234e-06
0.00242275
-1.106e-06
0.00242334
-5.83877e-07
0.00242338
-4.12586e-08
0.00242285
5.24676e-07
0.00242174
1.11609e-06
0.00242
1.74155e-06
0.00241759
2.40837e-06
0.00241446
3.12471e-06
0.00241056
3.90032e-06
0.00240582
4.74717e-06
0.00240014
5.68053e-06
0.00239342
6.71937e-06
0.00238553
7.88451e-06
0.00237634
9.19245e-06
0.00236569
1.06455e-05
0.00235347
1.2222e-05
0.0023396
1.3874e-05
0.00232406
1.55394e-05
0.00230689
1.71652e-05
0.00228816
1.87295e-05
0.00226792
2.02456e-05
0.00224617
2.17487e-05
0.00222289
2.32773e-05
0.00219803
2.4858e-05
0.00217153
2.65002e-05
0.00214334
2.81981e-05
0.0021134
2.9935e-05
0.00208172
3.16833e-05
0.00204831
3.34035e-05
0.00201328
3.50377e-05
0.00197676
3.6511e-05
0.001939
3.77691e-05
0.00190013
3.88636e-05
0.0018601
4.00327e-05
0.00181845
4.16485e-05
0.00177456
4.38937e-05
0.00172838
4.61726e-05
0.00168127
4.71153e-05
0.00163597
4.52985e-05
0.00159567
4.02977e-05
0.00156267
3.29992e-05
0.00153772
2.49523e-05
0.00152013
1.75909e-05
0.00150829
1.18356e-05
0.00150027
8.02007e-06
0.00149427
6.00706e-06
0.00148889
5.37786e-06
0.00148323
5.65496e-06
0.00147679
6.44415e-06
0.00146931
7.47909e-06
0.0014607
8.61258e-06
0.00145093
9.77315e-06
0.00144001
1.09185e-05
0.001428
1.20098e-05
0.00141499
1.30073e-05
0.00140111
1.38844e-05
0.00138647
1.46329e-05
0.00137121
1.52636e-05
0.00135542
1.57933e-05
0.00133916
1.62528e-05
0.00132249
1.66725e-05
0.00130541
1.70786e-05
0.00128791
1.74974e-05
0.00126997
1.79487e-05
0.00125152
1.84427e-05
0.00123254
1.89787e-05
0.001213
1.95478e-05
0.00119286
2.0134e-05
0.00117214
2.07222e-05
0.00115084
2.1296e-05
0.00112899
2.185e-05
0.00110661
2.23812e-05
0.00108372
2.28971e-05
0.00106032
2.33997e-05
0.00103642
2.38953e-05
0.00101203
2.43873e-05
0.000987155
2.48792e-05
0.000961777
2.53779e-05
0.000935891
2.58861e-05
0.00090949
2.64009e-05
0.000882567
2.69226e-05
0.00085512
2.74479e-05
0.000827146
2.79736e-05
0.000798644
2.85022e-05
0.000769614
2.90298e-05
0.00074006
2.95544e-05
0.000709986
3.00734e-05
0.000679403
3.05828e-05
0.000648324
3.10793e-05
0.000616766
3.15579e-05
0.000584754
3.20123e-05
0.000552322
3.24314e-05
0.000519518
3.28043e-05
0.000486403
3.31154e-05
0.000453041
3.33621e-05
0.000419509
3.35321e-05
0.000385894
3.36149e-05
0.000352278
3.36153e-05
0.000318749
3.3529e-05
0.000285393
3.33565e-05
0.000252301
3.30918e-05
0.000219572
3.27291e-05
0.000187315
3.22572e-05
0.000155651
3.16642e-05
0.000124684
3.09666e-05
9.44603e-05
3.02237e-05
6.52826e-05
2.91777e-05
3.65301e-05
2.87525e-05
3.65301e-05
4.63577e-05
-0.000106843
9.4968e-05
-0.000119032
0.000140655
-0.000114062
0.000185958
-0.000112292
0.000231569
-0.000112055
0.000277277
-0.000111865
0.000322924
-0.000111598
0.000368484
-0.000111342
0.000413985
-0.000111117
0.000459472
-0.000110915
0.000504989
-0.00011073
0.00055058
-0.000110561
0.00059628
-0.000110409
0.000642125
-0.00011028
0.000688146
-0.000110176
0.000734375
-0.000110098
0.00078084
-0.000110044
0.000827565
-0.000110009
0.000874567
-0.000109988
0.000921855
-0.000109972
0.000969431
-0.00010995
0.00101728
-0.00010991
0.00106539
-0.000109839
0.00111372
-0.000109722
0.00116223
-0.000109549
0.00121087
-0.000109308
0.00125959
-0.000108992
0.00130834
-0.000108596
0.00135706
-0.000108118
0.0014057
-0.000107555
0.00145419
-0.000106909
0.0015025
-0.000106182
0.00155057
-0.00010538
0.00159835
-0.00010451
0.00164583
-0.00010358
0.00169295
-0.000102601
0.0017397
-0.000101578
0.00178605
-0.000100511
0.00183197
-9.93931e-05
0.00187743
-9.82138e-05
0.00192239
-9.69583e-05
0.0019668
-9.56109e-05
0.0020106
-9.41569e-05
0.00205373
-9.25836e-05
0.00209611
-9.08807e-05
0.00213766
-8.90409e-05
0.00217832
-8.70596e-05
0.00221803
-8.49371e-05
0.00225673
-8.26787e-05
0.00229442
-8.02965e-05
0.00233108
-7.7809e-05
0.00236675
-7.52409e-05
0.00240145
-7.26216e-05
0.0024352
-6.99828e-05
0.00246805
-6.73553e-05
0.0025
-6.47652e-05
0.00253103
-6.22314e-05
0.00256114
-5.97655e-05
0.00259029
-5.73718e-05
0.00261846
-5.50482e-05
0.00264564
-5.27888e-05
0.00267182
-5.0586e-05
0.00269702
-4.84324e-05
0.00272125
-4.63223e-05
0.00274452
-4.42518e-05
0.00276685
-4.22187e-05
0.00278825
-4.02217e-05
0.00280873
-3.82596e-05
0.00282827
-3.6331e-05
0.00284688
-3.44336e-05
0.00286456
-3.25645e-05
0.00288129
-3.0721e-05
0.00289706
-2.89006e-05
0.00291189
-2.71018e-05
0.00292575
-2.53242e-05
0.00293867
-2.35682e-05
0.00295063
-2.18348e-05
0.00296164
-2.01255e-05
0.00297171
-1.84415e-05
0.00298084
-1.67838e-05
0.00298904
-1.51526e-05
0.00299631
-1.35477e-05
0.00300266
-1.19686e-05
0.00300811
-1.04146e-05
0.00301267
-8.8854e-06
0.00301637
-7.38114e-06
0.00301922
-5.90289e-06
0.00302125
-4.45254e-06
0.00302249
-3.03267e-06
0.00302298
-1.64635e-06
0.00302277
-2.97329e-07
0.00302191
1.01139e-06
0.00302046
2.27305e-06
0.00301846
3.49666e-06
0.00301595
4.69112e-06
0.00301293
5.86192e-06
0.00300941
7.01132e-06
0.00300542
8.14308e-06
0.00300093
9.25863e-06
0.00299596
1.03582e-05
0.0029905
1.14414e-05
0.00298455
1.25076e-05
0.00297812
1.35554e-05
0.00297124
1.45844e-05
0.00296392
1.55946e-05
0.00295619
1.6586e-05
0.00294808
1.75583e-05
0.00293962
1.85112e-05
0.00293082
1.94436e-05
0.00292172
2.03534e-05
0.00291232
2.12385e-05
0.00290264
2.20967e-05
0.00289269
2.29259e-05
0.0028825
2.37242e-05
0.00287207
2.44904e-05
0.00286142
2.52231e-05
0.00285056
2.59216e-05
0.00283952
2.65853e-05
0.00282831
2.72139e-05
0.00281694
2.78071e-05
0.00280545
2.83646e-05
0.00279385
2.88861e-05
0.00278216
2.9371e-05
0.0027704
2.9819e-05
0.0027586
3.02298e-05
0.00274679
3.06031e-05
0.00273499
3.0939e-05
0.00272323
3.12378e-05
0.00271153
3.15009e-05
0.00269992
3.173e-05
0.00268842
3.19279e-05
0.00267705
3.20978e-05
0.00266583
3.22436e-05
0.00265476
3.23685e-05
0.00264383
3.24753e-05
0.00263304
3.25659e-05
0.00262237
3.26407e-05
0.00261179
3.26985e-05
0.00260129
3.27371e-05
0.00259083
3.27532e-05
0.00258041
3.2744e-05
0.00257002
3.27079e-05
0.00255969
3.26451e-05
0.00254944
3.25583e-05
0.0025393
3.24523e-05
0.00252932
3.2334e-05
0.00251955
3.22116e-05
0.00251002
3.20942e-05
0.00250078
3.19907e-05
0.00249186
3.19103e-05
0.00248328
3.18622e-05
0.00247506
3.18562e-05
0.00246725
3.19028e-05
0.00245986
3.20129e-05
0.00245294
3.2196e-05
0.00244653
3.24577e-05
0.00244066
3.27957e-05
0.00243532
3.31962e-05
0.00243049
3.36307e-05
0.00242612
3.40557e-05
0.0024221
3.44153e-05
0.00241832
3.46498e-05
0.00241462
3.47136e-05
0.00241079
3.45828e-05
0.00240682
3.41296e-05
0.00240262
3.33117e-05
0.0023981
3.21093e-05
0.00239312
3.05173e-05
0.00238758
2.857e-05
0.00238154
2.63525e-05
0.00237517
2.39907e-05
0.00236879
2.16203e-05
0.00236275
1.93513e-05
0.0023573
1.72461e-05
0.0023526
1.53194e-05
0.00234868
1.35525e-05
0.00234551
1.1911e-05
0.00234302
1.03579e-05
0.00234116
8.86102e-06
0.00233987
7.39605e-06
0.0023391
5.94703e-06
0.00233882
4.50582e-06
0.00233902
3.06988e-06
0.00233968
1.63511e-06
0.00234088
1.51511e-07
0.00234259
-1.238e-06
0.00234476
-2.55355e-06
0.00234735
-3.85798e-06
0.0023504
-5.1099e-06
0.00235391
-6.29697e-06
0.00235787
-7.40966e-06
0.00236228
-8.44514e-06
0.00236711
-9.39605e-06
0.00237237
-1.02702e-05
0.00237803
-1.10651e-05
0.00238408
-1.17858e-05
0.00239051
-1.24423e-05
0.00239729
-1.3036e-05
0.00240443
-1.35854e-05
0.00241191
-1.4096e-05
0.00241972
-1.45759e-05
0.00242786
-1.50304e-05
0.00243631
-1.54619e-05
0.00244506
-1.58723e-05
0.00245407
-1.62548e-05
0.00246333
-1.6612e-05
0.0024728
-1.69353e-05
0.00248243
-1.72236e-05
0.00249218
-1.74691e-05
0.00250202
-1.76685e-05
0.0025119
-1.78178e-05
0.00252177
-1.79141e-05
0.00253161
-1.79573e-05
0.00254138
-1.79443e-05
0.00255105
-1.78809e-05
0.00256058
-1.77607e-05
0.00256997
-1.75922e-05
0.00257918
-1.73764e-05
0.0025882
-1.7115e-05
0.00259701
-1.68101e-05
0.00260558
-1.64621e-05
0.0026139
-1.60722e-05
0.00262195
-1.56401e-05
0.0026297
-1.51604e-05
0.00263713
-1.4643e-05
0.00264421
-1.40732e-05
0.00265092
-1.34582e-05
0.00265723
-1.27993e-05
0.00266311
-1.2095e-05
0.00266854
-1.13461e-05
0.00267349
-1.05582e-05
0.00267794
-9.72981e-06
0.00268186
-8.86052e-06
0.00268524
-7.95018e-06
0.00268804
-7.00895e-06
0.00269027
-6.03284e-06
0.00269189
-5.02449e-06
0.0026929
-3.99369e-06
0.00269329
-2.92982e-06
0.00269304
-1.84262e-06
0.00269217
-7.40414e-07
0.00269061
4.58133e-07
0.00268839
1.63238e-06
0.00268552
2.82843e-06
0.00268199
4.0559e-06
0.00267779
5.31632e-06
0.00267292
6.61143e-06
0.00266738
7.94468e-06
0.00266119
9.32098e-06
0.00265434
1.07466e-05
0.00264686
1.22292e-05
0.00263876
1.37777e-05
0.00263008
1.54025e-05
0.00262085
1.71142e-05
0.00261112
1.89213e-05
0.00260094
2.0827e-05
0.00259033
2.28252e-05
0.00257931
2.48998e-05
0.00256782
2.70283e-05
0.00255579
2.91919e-05
0.00254314
3.13861e-05
0.00252976
3.36263e-05
0.00251556
3.59441e-05
0.00250046
3.83762e-05
0.00248437
4.09536e-05
0.00246717
4.36934e-05
0.00244878
4.65958e-05
0.00242907
4.96424e-05
0.00240796
5.27946e-05
0.00238537
5.59904e-05
0.00236127
5.91407e-05
0.00233565
6.2128e-05
0.0023086
6.48158e-05
0.00228039
6.70762e-05
0.0022516
6.88191e-05
0.00222327
6.99815e-05
0.00219674
7.04251e-05
0.00217313
6.97814e-05
0.00215287
6.73749e-05
0.00213574
6.24249e-05
0.00212148
5.45635e-05
0.00211014
4.43352e-05
0.00210176
3.33393e-05
0.0020957
2.36479e-05
0.00209072
1.68184e-05
0.0020855
1.32344e-05
0.00207927
1.22376e-05
0.00207188
1.27678e-05
0.0020636
1.39354e-05
0.00205479
1.52522e-05
0.00204568
1.65908e-05
0.00203626
1.80324e-05
0.00202633
1.97078e-05
0.00201556
2.16828e-05
0.00200366
2.39161e-05
0.00199037
2.62888e-05
0.00197559
2.86662e-05
0.00195928
3.09455e-05
0.00194147
3.30695e-05
0.00192225
3.50155e-05
0.00190172
3.67816e-05
0.00188002
3.83765e-05
0.00185729
3.98105e-05
0.00183368
4.1101e-05
0.00180935
4.22794e-05
0.00178441
4.33884e-05
0.00175891
4.44747e-05
0.00173288
4.5578e-05
0.00170629
4.67211e-05
0.00167911
4.79088e-05
0.00165127
4.91309e-05
0.00162275
5.03682e-05
0.00159354
5.1598e-05
0.00156363
5.28021e-05
0.00153306
5.3971e-05
0.00150186
5.50948e-05
0.00147008
5.61734e-05
0.00143774
5.72195e-05
0.00140487
5.8245e-05
0.00137149
5.92658e-05
0.0013376
6.02913e-05
0.00130319
6.13298e-05
0.00126825
6.2388e-05
0.00123276
6.34681e-05
0.00119668
6.45777e-05
0.00115999
6.57213e-05
0.00112264
6.69043e-05
0.00108458
6.81323e-05
0.00104575
6.94117e-05
0.00100608
7.07545e-05
0.000965472
7.21626e-05
0.000923848
7.36356e-05
0.000881107
7.51726e-05
0.000837158
7.67534e-05
0.00079191
7.83638e-05
0.00074531
7.99617e-05
0.000697335
8.15078e-05
0.000647989
8.29607e-05
0.000597339
8.42652e-05
0.000545501
8.53669e-05
0.000492634
8.62235e-05
0.000438921
8.6805e-05
0.000384558
8.70919e-05
0.000329733
8.7082e-05
0.000274604
8.67928e-05
0.000219224
8.63471e-05
0.000163439
8.60089e-05
0.000107342
8.5274e-05
5.31308e-05
8.29641e-05
8.96609e-05
4.1403e-05
-0.000148246
8.72086e-05
-0.000164838
0.000129924
-0.000156777
0.000171405
-0.000153774
0.000212866
-0.000153515
0.00025457
-0.000153569
0.000296532
-0.000153559
0.000338788
-0.000153598
0.000381404
-0.000153734
0.000424436
-0.000153947
0.000467939
-0.000154233
0.000511957
-0.000154579
0.000556531
-0.000154984
0.000601691
-0.00015544
0.000647457
-0.000155942
0.000693838
-0.000156478
0.00074083
-0.000157036
0.000788418
-0.000157597
0.000836571
-0.000158142
0.000885248
-0.000158649
0.000934392
-0.000159094
0.000983936
-0.000159454
0.0010338
-0.000159706
0.00108391
-0.00015983
0.00113417
-0.00015981
0.0011845
-0.00015964
0.00123483
-0.000159318
0.00128508
-0.000158845
0.00133519
-0.000158229
0.00138511
-0.000157475
0.00143479
-0.000156591
0.00148419
-0.000155582
0.00153327
-0.000154457
0.00158198
-0.000153223
0.00163029
-0.000151889
0.00167815
-0.000150465
0.00172553
-0.000148959
0.0017724
-0.000147373
0.00181871
-0.000145707
0.00186445
-0.000143954
0.00190959
-0.000142104
0.00195413
-0.000140144
0.00199803
-0.000138062
0.0020413
-0.000135846
0.00208391
-0.000133491
0.00212586
-0.000130992
0.00216715
-0.000128354
0.0022078
-0.000125584
0.00224782
-0.000122696
0.00228722
-0.000119704
0.00232604
-0.000116628
0.00236429
-0.000113487
0.00240196
-0.000110298
0.00243906
-0.000107081
0.00247556
-0.00010385
0.00251141
-0.00010062
0.00254658
-9.74012e-05
0.00258102
-9.42005e-05
0.00261467
-9.10228e-05
0.00264749
-8.78704e-05
0.00267945
-8.4744e-05
0.0027105
-8.16437e-05
0.00274064
-7.8569e-05
0.00276984
-7.55194e-05
0.00279808
-7.24936e-05
0.00282535
-6.949e-05
0.00285164
-6.65066e-05
0.00287692
-6.35411e-05
0.00290118
-6.05912e-05
0.0029244
-5.76553e-05
0.00294657
-5.47325e-05
0.00296767
-5.18228e-05
0.0029877
-4.89276e-05
0.00300664
-4.6049e-05
0.00302451
-4.31902e-05
0.0030413
-4.03545e-05
0.00305701
-3.75456e-05
0.00307165
-3.47669e-05
0.00308523
-3.20215e-05
0.00309776
-2.93118e-05
0.00310924
-2.66399e-05
0.0031197
-2.40075e-05
0.00312915
-2.14162e-05
0.0031376
-1.88678e-05
0.00314508
-1.63639e-05
0.00315161
-1.39066e-05
0.0031572
-1.14983e-05
0.00316189
-9.14141e-06
0.0031657
-6.83847e-06
0.00316864
-4.5917e-06
0.00317075
-2.40268e-06
0.00317203
-2.71119e-07
0.00317249
1.81466e-06
0.00317216
3.82759e-06
0.00317104
5.80502e-06
0.00316917
7.74072e-06
0.00316654
9.64034e-06
0.00316318
1.15027e-05
0.0031591
1.33313e-05
0.00315434
1.51244e-05
0.0031489
1.68787e-05
0.00314282
1.85918e-05
0.00313611
2.02626e-05
0.00312881
2.18832e-05
0.00312095
2.34567e-05
0.00311255
2.49816e-05
0.00310365
2.64561e-05
0.00309428
2.78824e-05
0.00308447
2.926e-05
0.00307423
3.05896e-05
0.0030636
3.18708e-05
0.00305259
3.31033e-05
0.00304123
3.42865e-05
0.00302954
3.542e-05
0.00301752
3.65034e-05
0.00300521
3.75364e-05
0.00299261
3.85184e-05
0.00297975
3.94489e-05
0.00296663
4.0328e-05
0.00295329
4.11556e-05
0.00293972
4.19314e-05
0.00292595
4.26553e-05
0.00291199
4.33273e-05
0.00289787
4.39474e-05
0.00288358
4.45161e-05
0.00286915
4.50346e-05
0.00285458
4.55046e-05
0.00283989
4.59282e-05
0.00282508
4.63084e-05
0.00281017
4.66486e-05
0.00279514
4.69525e-05
0.00278002
4.72236e-05
0.00276479
4.74655e-05
0.00274948
4.7681e-05
0.00273408
4.78721e-05
0.00271861
4.80398e-05
0.00270307
4.81834e-05
0.00268746
4.83014e-05
0.00267181
4.83907e-05
0.00265612
4.84477e-05
0.00264039
4.84682e-05
0.00262465
4.84487e-05
0.00260891
4.83868e-05
0.00259319
4.82816e-05
0.0025775
4.81345e-05
0.00256189
4.79486e-05
0.00254637
4.77295e-05
0.00253098
4.74843e-05
0.00251575
4.7221e-05
0.00250071
4.69479e-05
0.0024859
4.66716e-05
0.00247136
4.63969e-05
0.00245714
4.61256e-05
0.0024433
4.5857e-05
0.0024299
4.55883e-05
0.00241705
4.53153e-05
0.00240481
4.50323e-05
0.00239327
4.47319e-05
0.0023825
4.44028e-05
0.00237253
4.40268e-05
0.00236337
4.35774e-05
0.002355
4.30196e-05
0.0023474
4.23141e-05
0.00234056
4.14184e-05
0.0023344
4.02887e-05
0.00232877
3.89419e-05
0.00232346
3.74211e-05
0.00231824
3.57368e-05
0.00231292
3.38966e-05
0.00230736
3.19044e-05
0.00230159
2.97696e-05
0.00229569
2.75177e-05
0.00228985
2.51934e-05
0.00228424
2.2851e-05
0.00227902
2.0538e-05
0.00227429
1.82831e-05
0.00227011
1.60942e-05
0.0022665
1.3964e-05
0.00226348
1.18789e-05
0.00226106
9.82565e-06
0.00225921
7.79452e-06
0.00225793
5.77971e-06
0.00225722
3.77899e-06
0.00225706
1.79767e-06
0.00225729
-7.20144e-08
0.00225805
-2.00186e-06
0.00225939
-3.89187e-06
0.00226125
-5.72345e-06
0.00226364
-7.49401e-06
0.00226654
-9.1973e-06
0.00226995
-1.08242e-05
0.00227387
-1.23674e-05
0.0022783
-1.38227e-05
0.00228322
-1.51936e-05
0.00228864
-1.64846e-05
0.00229454
-1.7682e-05
0.0023009
-1.88043e-05
0.00230772
-1.98542e-05
0.00231497
-2.08303e-05
0.00232262
-2.17531e-05
0.00233066
-2.26141e-05
0.00233906
-2.34257e-05
0.00234778
-2.41883e-05
0.00235681
-2.49019e-05
0.00236612
-2.55659e-05
0.00237568
-2.61697e-05
0.00238546
-2.67165e-05
0.00239543
-2.7196e-05
0.00240557
-2.76047e-05
0.00241584
-2.79366e-05
0.00242621
-2.81876e-05
0.00243665
-2.83545e-05
0.00244713
-2.84353e-05
0.00245761
-2.8432e-05
0.00246808
-2.83427e-05
0.00247849
-2.81737e-05
0.00248882
-2.79253e-05
0.00249905
-2.76015e-05
0.00250914
-2.7205e-05
0.00251906
-2.67381e-05
0.0025288
-2.62016e-05
0.00253833
-2.55966e-05
0.00254761
-2.49247e-05
0.00255663
-2.41762e-05
0.00256535
-2.33675e-05
0.00257376
-2.24822e-05
0.00258183
-2.15245e-05
0.00258952
-2.04946e-05
0.00259683
-1.93978e-05
0.00260371
-1.82326e-05
0.00261015
-1.69971e-05
0.00261612
-1.56932e-05
0.00262158
-1.43281e-05
0.00262654
-1.29083e-05
0.00263096
-1.14277e-05
0.00263482
-9.88849e-06
0.00263809
-8.29344e-06
0.00264075
-6.66348e-06
0.0026428
-4.97955e-06
0.0026442
-3.2411e-06
0.00264491
-1.44578e-06
0.00264504
3.2229e-07
0.00264451
2.16633e-06
0.00264328
4.05474e-06
0.00264136
5.97627e-06
0.00263875
7.93052e-06
0.00263544
9.91785e-06
0.00263145
1.1939e-05
0.00262677
1.3995e-05
0.00262143
1.60876e-05
0.00261544
1.82189e-05
0.00260883
2.0391e-05
0.00260163
2.26051e-05
0.00259388
2.486e-05
0.00258565
2.71503e-05
0.00257702
2.94642e-05
0.00256806
3.17851e-05
0.00255886
3.40962e-05
0.0025495
3.63893e-05
0.00254002
3.86724e-05
0.00253043
4.09706e-05
0.00252074
4.33192e-05
0.00251093
4.57528e-05
0.00250101
4.82971e-05
0.002491
5.09657e-05
0.00248093
5.37632e-05
0.00247084
5.66856e-05
0.00246076
5.97184e-05
0.00245073
6.28321e-05
0.00244074
6.59774e-05
0.0024308
6.90792e-05
0.00242089
7.20354e-05
0.00241099
7.47238e-05
0.00240105
7.70162e-05
0.00239108
7.87865e-05
0.00238117
7.9894e-05
0.00237145
8.01425e-05
0.00236198
7.92457e-05
0.00235258
7.67765e-05
0.00234272
7.22819e-05
0.00233168
6.56129e-05
0.0023186
5.74123e-05
0.00230276
4.91765e-05
0.00228377
4.26415e-05
0.00226172
3.88635e-05
0.00223721
3.77461e-05
0.00221109
3.83578e-05
0.00218422
3.96347e-05
0.00215728
4.08825e-05
0.00213065
4.18769e-05
0.00210453
4.27143e-05
0.00207895
4.36133e-05
0.00205389
4.47634e-05
0.00202932
4.62504e-05
0.00200519
4.8053e-05
0.00198139
5.00895e-05
0.00195778
5.22704e-05
0.0019342
5.45285e-05
0.00191045
5.68209e-05
0.00188635
5.91144e-05
0.00186176
6.13705e-05
0.00183659
6.35421e-05
0.00181082
6.55811e-05
0.00178447
6.74556e-05
0.00175759
6.91636e-05
0.00173024
7.07364e-05
0.00170248
7.22288e-05
0.00167436
7.37014e-05
0.00164588
7.52061e-05
0.00161701
7.6771e-05
0.00158774
7.83998e-05
0.00155804
8.00745e-05
0.00152787
8.17654e-05
0.00149724
8.34371e-05
0.00146614
8.50625e-05
0.00143461
8.66275e-05
0.00140266
8.81239e-05
0.00137032
8.95563e-05
0.00133763
9.09364e-05
0.00130462
9.22787e-05
0.0012713
9.3608e-05
0.00123771
9.49267e-05
0.00120383
9.62605e-05
0.00116969
9.76116e-05
0.00113527
9.89924e-05
0.00110058
0.000100416
0.00106558
0.000101903
0.00103025
0.000103463
0.000994544
0.000105119
0.000958405
0.000106894
0.000921753
0.000108814
0.000884492
0.000110897
0.000846506
0.000113158
0.000807653
0.000115607
0.000767779
0.000118238
0.000726712
0.000121029
0.000684279
0.000123941
0.000640323
0.000126917
0.000594699
0.00012989
0.000547301
0.000132765
0.000498074
0.000135451
0.000447019
0.000137859
0.000394219
0.000139892
0.00033984
0.000141461
0.00028411
0.000142523
0.000227345
0.000143112
0.000170141
0.000143214
0.000113543
0.000141871
5.85e-05
0.000138007
0.000148161
4.37498e-05
-0.000191995
9.59468e-05
-0.000217035
0.000144429
-0.00020526
0.000190245
-0.00019959
0.000235706
-0.000198976
0.000281691
-0.000199554
0.000328224
-0.000200093
0.000375226
-0.0002006
0.000422684
-0.000201192
0.000470646
-0.000201909
0.000519143
-0.000202729
0.000568197
-0.000203633
0.000617813
-0.000204599
0.000667983
-0.00020561
0.000718687
-0.000206647
0.000769892
-0.000207683
0.000821553
-0.000208697
0.000873614
-0.000209659
0.000926012
-0.000210539
0.000978673
-0.00021131
0.00103152
-0.000211944
0.00108448
-0.000212415
0.00113748
-0.000212702
0.00119044
-0.000212788
0.00124329
-0.00021266
0.00129596
-0.000212317
0.00134841
-0.000211762
0.00140057
-0.000211005
0.0014524
-0.000210058
0.00150386
-0.000208935
0.00155492
-0.00020765
0.00160555
-0.000206213
0.00165572
-0.000204633
0.00170542
-0.000202918
0.0017546
-0.000201074
0.00180325
-0.000199107
0.00185131
-0.000197022
0.00189876
-0.000194823
0.00194557
-0.000192513
0.0019917
-0.000190091
0.00203716
-0.000187557
0.00208192
-0.000184907
0.002126
-0.000182139
0.0021694
-0.000179248
0.00221214
-0.000176232
0.00225424
-0.000173093
0.00229572
-0.000169832
0.00233659
-0.000166457
0.00237687
-0.000162975
0.00241656
-0.000159398
0.00245567
-0.000155735
0.00249418
-0.000151998
0.00253208
-0.000148197
0.00256934
-0.000144341
0.00260593
-0.000140441
0.00264181
-0.000136503
0.00267695
-0.000132535
0.00271129
-0.000128544
0.0027448
-0.000124535
0.00277745
-0.000120514
0.00280919
-0.000116488
0.00284001
-0.00011246
0.00286987
-0.000108434
0.00289877
-0.000104412
0.00292667
-0.000100397
0.00295356
-9.63862e-05
0.00297944
-9.2381e-05
0.00300428
-8.83801e-05
0.00302807
-8.43834e-05
0.00305081
-8.03913e-05
0.00307248
-7.64055e-05
0.00309308
-7.24288e-05
0.00311262
-6.84649e-05
0.00313109
-6.45184e-05
0.0031485
-6.05944e-05
0.00316484
-5.6698e-05
0.00318013
-5.28341e-05
0.00319437
-4.90075e-05
0.00320757
-4.52223e-05
0.00321974
-4.14824e-05
0.00323089
-3.77911e-05
0.00324104
-3.41516e-05
0.00325019
-3.05668e-05
0.00325836
-2.70397e-05
0.00326557
-2.35731e-05
0.00327183
-2.01697e-05
0.00327716
-1.6832e-05
0.00328158
-1.35623e-05
0.00328511
-1.03621e-05
0.00328775
-7.23204e-06
0.00328952
-4.17147e-06
0.00329043
-1.18044e-06
0.00329052
1.72295e-06
0.00328976
4.58848e-06
0.00328819
7.37719e-06
0.00328581
1.01153e-05
0.00328266
1.27872e-05
0.00327876
1.54061e-05
0.00327414
1.79544e-05
0.00326881
2.04471e-05
0.00326282
2.28712e-05
0.00325619
2.52277e-05
0.00324893
2.75164e-05
0.00324108
2.97341e-05
0.00323266
3.18807e-05
0.00322368
3.39555e-05
0.00321418
3.59618e-05
0.00320416
3.78976e-05
0.00319366
3.97642e-05
0.00318268
4.15648e-05
0.00317126
4.32974e-05
0.0031594
4.49633e-05
0.00314712
4.65628e-05
0.00313444
4.80959e-05
0.00312139
4.95626e-05
0.00310796
5.09633e-05
0.00309418
5.22975e-05
0.00308006
5.35657e-05
0.00306562
5.4768e-05
0.00305087
5.59045e-05
0.00303583
5.69751e-05
0.00302051
5.79801e-05
0.00300491
5.89199e-05
0.00298906
5.97951e-05
0.00297297
6.06068e-05
0.00295665
6.13565e-05
0.00294011
6.20458e-05
0.00292336
6.26773e-05
0.00290642
6.32538e-05
0.00288929
6.37783e-05
0.00287199
6.42539e-05
0.00285453
6.46833e-05
0.00283692
6.50688e-05
0.00281919
6.54114e-05
0.00280135
6.57113e-05
0.00278343
6.59673e-05
0.00276543
6.61772e-05
0.0027474
6.63379e-05
0.00272934
6.64456e-05
0.00271129
6.64966e-05
0.00269327
6.64877e-05
0.0026753
6.64165e-05
0.00265741
6.62822e-05
0.00263961
6.60852e-05
0.00262191
6.58276e-05
0.00260435
6.55128e-05
0.00258693
6.51449e-05
0.00256969
6.47285e-05
0.00255264
6.42681e-05
0.00253582
6.37676e-05
0.00251926
6.32299e-05
0.002503
6.26569e-05
0.00248708
6.20494e-05
0.00247153
6.1407e-05
0.00245639
6.07279e-05
0.0024417
6.00088e-05
0.00242748
5.92442e-05
0.00241379
5.8426e-05
0.00240065
5.75434e-05
0.00238809
5.65822e-05
0.00237615
5.5526e-05
0.00236481
5.43567e-05
0.00235407
5.30563e-05
0.00234387
5.16099e-05
0.00233416
5.00045e-05
0.00232487
4.8233e-05
0.002316
4.62934e-05
0.00230755
4.41809e-05
0.00229955
4.18953e-05
0.002292
3.94551e-05
0.00228488
3.68877e-05
0.00227818
3.42265e-05
0.00227186
3.15073e-05
0.00226595
2.8763e-05
0.00226047
2.60196e-05
0.00225546
2.32943e-05
0.00225095
2.05959e-05
0.00224699
1.79273e-05
0.00224358
1.52878e-05
0.00224073
1.26753e-05
0.00223844
1.00886e-05
0.00223669
7.52782e-06
0.00223547
4.99598e-06
0.00223477
2.49921e-06
0.00223467
2.98923e-08
0.00223509
-2.42564e-06
0.002236
-4.80246e-06
0.00223741
-7.12435e-06
0.0022393
-9.38807e-06
0.00224168
-1.15784e-05
0.00224456
-1.37003e-05
0.00224793
-1.57384e-05
0.00225179
-1.7689e-05
0.00225615
-1.95495e-05
0.00226098
-2.13181e-05
0.0022663
-2.2994e-05
0.00227207
-2.45785e-05
0.00227829
-2.6073e-05
0.00228494