/*--------------------------------*- C++ -*----------------------------------*\
| =========                 |                                                 |
| \\      /  F ield         | OpenFOAM: The Open Source CFD Toolbox           |
|  \\    /   O peration     | Version:  v2006                                 |
|   \\  /    A nd           | Website:  www.openfoam.com                      |
|    \\/     M anipulation  |                                                 |
\*---------------------------------------------------------------------------*/
FoamFile
{
    version     2.0;
    format      ascii;
    class       volScalarField;
    location    "19.7";
    object      p_rgh;
}
// * * * * * * * * * * * * * * * * * * * * * * * * * * * * * * * * * * * * * //

dimensions      [1 -1 -2 0 0 0 0];


internalField   nonuniform List<scalar> 
52500
(
1145.2
1145.16
1145
1144.75
1144.42
1144.02
1143.53
1142.97
1142.34
1141.63
1140.84
1139.99
1139.06
1138.06
1137
1135.87
1134.67
1133.41
1132.09
1130.72
1129.28
1127.79
1126.24
1124.65
1123
1121.31
1119.58
1117.81
1116
1114.15
1112.27
1110.37
1108.44
1106.49
1104.52
1102.53
1100.54
1098.54
1096.54
1094.53
1092.54
1090.55
1088.57
1086.61
1084.67
1082.75
1080.86
1079
1077.19
1075.41
1073.68
1072.01
1070.39
1068.83
1067.33
1065.91
1064.55
1063.28
1062.09
1060.97
1059.95
1059.02
1058.18
1057.43
1056.79
1056.26
1055.83
1055.51
1055.3
1055.22
1055.25
1055.41
1055.69
1056.1
1056.64
1057.31
1058.12
1059.07
1060.16
1061.39
1062.76
1064.28
1065.95
1067.76
1069.73
1071.85
1074.12
1076.54
1079.12
1081.85
1084.75
1087.8
1091.01
1094.38
1097.9
1101.57
1105.4
1109.39
1113.53
1117.82
1122.27
1126.87
1131.62
1136.52
1141.57
1146.77
1152.12
1157.6
1163.23
1169
1174.91
1180.96
1187.13
1193.44
1199.88
1206.44
1213.13
1219.93
1226.85
1233.89
1241.04
1248.29
1255.65
1263.11
1270.67
1278.32
1286.06
1293.89
1301.81
1309.8
1317.87
1326
1334.21
1342.48
1350.81
1359.2
1367.63
1376.12
1384.65
1393.21
1401.82
1410.45
1419.11
1427.8
1436.5
1445.22
1453.95
1462.69
1471.42
1480.16
1488.9
1497.62
1506.33
1515.02
1523.69
1532.33
1540.95
1549.52
1558.06
1566.54
1574.98
1583.37
1591.69
1599.95
1608.15
1616.28
1624.34
1632.32
1640.24
1648.09
1655.87
1663.57
1671.18
1678.71
1686.14
1693.47
1700.7
1707.82
1714.83
1721.73
1728.52
1735.19
1741.75
1748.18
1754.49
1760.68
1766.75
1772.67
1778.46
1784.11
1789.62
1794.99
1800.22
1805.3
1810.23
1815.01
1819.64
1824.11
1828.43
1832.59
1836.59
1840.43
1844.11
1847.63
1850.98
1854.16
1857.18
1860.03
1862.72
1865.23
1867.57
1869.74
1871.74
1873.57
1875.23
1876.71
1878.03
1879.16
1880.13
1880.93
1881.55
1882
1882.28
1882.38
1882.32
1882.09
1881.68
1881.11
1880.37
1879.47
1878.4
1877.17
1875.78
1874.22
1872.51
1870.63
1868.6
1866.42
1864.09
1861.6
1858.97
1856.19
1853.27
1850.2
1847
1843.66
1840.18
1836.56
1832.82
1828.95
1824.96
1820.84
1816.61
1812.26
1807.79
1803.21
1798.52
1793.72
1788.82
1783.82
1778.71
1773.52
1768.24
1762.87
1757.41
1751.88
1746.26
1740.57
1734.8
1728.96
1723.05
1717.08
1711.04
1704.94
1698.78
1692.57
1686.3
1679.96
1673.55
1667.1
1660.62
1654.16
1647.74
1641.36
1635.02
1628.7
1622.39
1616.09
1609.78
1603.47
1597.16
1590.87
1584.58
1578.32
1572.08
1565.87
1559.69
1553.55
1547.46
1541.42
1535.43
1529.49
1523.62
1517.82
1512.08
1506.41
1500.82
1495.3
1489.87
1484.52
1479.25
1474.08
1469
1464.01
1459.12
1454.34
1449.66
1445.09
1440.63
1436.28
1432.05
1427.93
1423.94
1420.07
1416.32
1412.7
1409.22
1405.86
1402.64
1399.55
1396.6
1393.79
1391.12
1388.6
1386.22
1383.98
1381.89
1379.95
1378.16
1376.51
1375.01
1373.67
1372.47
1371.42
1370.52
1369.77
1369.17
1368.72
1368.42
1368.28
1145.14
1145.08
1144.91
1144.66
1144.33
1143.93
1143.44
1142.88
1142.25
1141.53
1140.75
1139.89
1138.96
1137.97
1136.9
1135.77
1134.57
1133.31
1131.99
1130.61
1129.17
1127.68
1126.13
1124.53
1122.88
1121.19
1119.45
1117.67
1115.86
1114.01
1112.13
1110.22
1108.29
1106.33
1104.36
1102.37
1100.37
1098.37
1096.36
1094.36
1092.35
1090.36
1088.38
1086.42
1084.47
1082.55
1080.66
1078.81
1076.99
1075.21
1073.48
1071.8
1070.18
1068.62
1067.12
1065.69
1064.34
1063.06
1061.86
1060.74
1059.71
1058.77
1057.93
1057.18
1056.53
1055.98
1055.55
1055.22
1055.01
1054.92
1054.95
1055.1
1055.37
1055.78
1056.31
1056.98
1057.78
1058.73
1059.81
1061.03
1062.4
1063.92
1065.58
1067.39
1069.36
1071.47
1073.74
1076.16
1078.74
1081.47
1084.35
1087.39
1090.58
1093.93
1097.45
1101.12
1104.94
1108.93
1113.07
1117.36
1121.81
1126.41
1131.17
1136.07
1141.12
1146.32
1151.67
1157.16
1162.79
1168.57
1174.48
1180.53
1186.71
1193.03
1199.47
1206.04
1212.73
1219.55
1226.48
1233.52
1240.68
1247.95
1255.31
1262.78
1270.35
1278.01
1285.77
1293.61
1301.53
1309.53
1317.61
1325.76
1333.98
1342.26
1350.6
1359
1367.45
1375.95
1384.5
1393.08
1401.7
1410.34
1419.02
1427.71
1436.42
1445.15
1453.89
1462.63
1471.37
1480.12
1488.85
1497.58
1506.29
1514.98
1523.65
1532.3
1540.91
1549.5
1558.05
1566.56
1575.03
1583.44
1591.81
1600.12
1608.36
1616.55
1624.66
1632.7
1640.65
1648.52
1656.31
1664
1671.6
1679.11
1686.53
1693.85
1701.08
1708.2
1715.22
1722.13
1728.93
1735.61
1742.18
1748.63
1754.97
1761.12
1767.15
1773.07
1778.85
1784.5
1790.02
1795.39
1800.62
1805.7
1810.63
1815.42
1820.05
1824.53
1828.85
1833.01
1837.02
1840.86
1844.55
1848.06
1851.42
1854.61
1857.63
1860.48
1863.16
1865.68
1868.02
1870.2
1872.2
1874.03
1875.68
1877.17
1878.48
1879.62
1880.58
1881.38
1882
1882.45
1882.72
1882.83
1882.76
1882.53
1882.12
1881.55
1880.81
1879.9
1878.83
1877.6
1876.2
1874.64
1872.92
1871.04
1869.01
1866.82
1864.48
1861.99
1859.35
1856.57
1853.64
1850.56
1847.34
1843.99
1840.5
1836.88
1833.12
1829.24
1825.23
1821.1
1816.85
1812.49
1808
1803.41
1798.71
1793.9
1788.99
1783.98
1778.87
1773.67
1768.38
1763
1757.54
1751.99
1746.36
1740.66
1734.89
1729.04
1723.13
1717.15
1711.11
1705.01
1698.84
1692.62
1686.35
1680.02
1673.64
1667.22
1660.77
1654.33
1647.91
1641.52
1635.15
1628.8
1622.45
1616.1
1609.75
1603.41
1597.08
1590.76
1584.45
1578.18
1571.92
1565.7
1559.52
1553.38
1547.28
1541.23
1535.23
1529.29
1523.41
1517.6
1511.85
1506.18
1500.57
1495.05
1489.6
1484.24
1478.97
1473.78
1468.69
1463.7
1458.81
1454.01
1449.33
1444.75
1440.28
1435.92
1431.68
1427.56
1423.56
1419.68
1415.93
1412.3
1408.81
1405.44
1402.21
1399.12
1396.16
1393.35
1390.68
1388.15
1385.76
1383.52
1381.43
1379.49
1377.7
1376.06
1374.56
1373.21
1372.02
1370.97
1370.07
1369.32
1368.72
1368.27
1367.97
1367.83
1145.18
1145.12
1144.95
1144.7
1144.36
1143.95
1143.47
1142.9
1142.26
1141.55
1140.76
1139.89
1138.96
1137.96
1136.88
1135.74
1134.54
1133.27
1131.94
1130.55
1129.1
1127.6
1126.04
1124.43
1122.77
1121.07
1119.32
1117.53
1115.71
1113.85
1111.95
1110.03
1108.09
1106.12
1104.14
1102.14
1100.13
1098.12
1096.1
1094.08
1092.07
1090.06
1088.07
1086.1
1084.15
1082.22
1080.32
1078.46
1076.63
1074.84
1073.11
1071.42
1069.79
1068.22
1066.71
1065.26
1063.89
1062.6
1061.38
1060.25
1059.21
1058.25
1057.39
1056.63
1055.96
1055.4
1054.95
1054.61
1054.39
1054.28
1054.29
1054.43
1054.69
1055.08
1055.61
1056.26
1057.06
1057.99
1059.06
1060.28
1061.64
1063.14
1064.8
1066.6
1068.56
1070.67
1072.93
1075.35
1077.92
1080.65
1083.53
1086.57
1089.77
1093.13
1096.65
1100.32
1104.15
1108.14
1112.28
1116.58
1121.04
1125.65
1130.41
1135.32
1140.38
1145.59
1150.95
1156.45
1162.09
1167.88
1173.8
1179.87
1186.06
1192.39
1198.84
1205.43
1212.13
1218.96
1225.91
1232.97
1240.14
1247.42
1254.8
1262.29
1269.87
1277.55
1285.32
1293.18
1301.12
1309.14
1317.24
1325.41
1333.65
1341.95
1350.31
1358.73
1367.2
1375.72
1384.28
1392.88
1401.52
1410.18
1418.88
1427.6
1436.33
1445.08
1453.84
1462.61
1471.38
1480.15
1488.91
1497.67
1506.4
1515.12
1523.82
1532.49
1541.13
1549.74
1558.31
1566.83
1575.3
1583.73
1592.1
1600.41
1608.65
1616.83
1624.94
1632.97
1640.93
1648.82
1656.62
1664.35
1671.98
1679.53
1686.98
1694.33
1701.58
1708.72
1715.76
1722.68
1729.49
1736.18
1742.75
1749.19
1755.49
1761.74
1767.82
1773.77
1779.57
1785.24
1790.77
1796.15
1801.39
1806.49
1811.43
1816.23
1820.87
1825.36
1829.69
1833.86
1837.87
1841.72
1845.41
1848.94
1852.3
1855.49
1858.52
1861.37
1864.06
1866.58
1868.93
1871.1
1873.11
1874.94
1876.59
1878.08
1879.39
1880.53
1881.5
1882.29
1882.91
1883.35
1883.63
1883.73
1883.66
1883.42
1883.01
1882.43
1881.69
1880.77
1879.69
1878.45
1877.05
1875.48
1873.75
1871.86
1869.82
1867.62
1865.27
1862.77
1860.11
1857.3
1854.36
1851.28
1848.05
1844.68
1841.18
1837.55
1833.78
1829.88
1825.86
1821.71
1817.45
1813.06
1808.56
1803.95
1799.23
1794.4
1789.46
1784.43
1779.3
1774.07
1768.75
1763.35
1757.85
1752.28
1746.62
1740.89
1735.09
1729.22
1723.28
1717.27
1711.21
1705.08
1698.9
1692.67
1686.39
1680.07
1673.71
1667.32
1660.92
1654.51
1648.1
1641.7
1635.3
1628.91
1622.52
1616.13
1609.74
1603.36
1596.99
1590.64
1584.3
1577.99
1571.71
1565.46
1559.25
1553.08
1546.96
1540.89
1534.87
1528.91
1523.01
1517.17
1511.4
1505.71
1500.08
1494.54
1489.07
1483.69
1478.39
1473.19
1468.08
1463.07
1458.16
1453.35
1448.64
1444.05
1439.56
1435.19
1430.93
1426.79
1422.77
1418.88
1415.11
1411.46
1407.95
1404.57
1401.33
1398.22
1395.25
1392.42
1389.73
1387.19
1384.79
1382.54
1380.44
1378.49
1376.69
1375.04
1373.54
1372.19
1370.99
1369.95
1369.05
1368.3
1367.69
1367.24
1366.94
1366.79
1145.31
1145.26
1145.09
1144.83
1144.49
1144.07
1143.58
1143.01
1142.36
1141.63
1140.83
1139.96
1139.01
1138
1136.91
1135.75
1134.53
1133.25
1131.9
1130.49
1129.03
1127.5
1125.93
1124.3
1122.62
1120.9
1119.13
1117.32
1115.48
1113.6
1111.68
1109.74
1107.78
1105.79
1103.79
1101.77
1099.74
1097.71
1095.67
1093.63
1091.6
1089.58
1087.57
1085.57
1083.6
1081.66
1079.74
1077.86
1076.01
1074.21
1072.46
1070.75
1069.1
1067.51
1065.98
1064.52
1063.13
1061.82
1060.59
1059.43
1058.37
1057.39
1056.51
1055.73
1055.04
1054.47
1054
1053.64
1053.39
1053.27
1053.26
1053.38
1053.63
1054
1054.51
1055.15
1055.93
1056.85
1057.91
1059.11
1060.46
1061.96
1063.6
1065.4
1067.34
1069.45
1071.7
1074.11
1076.68
1079.4
1082.29
1085.33
1088.52
1091.88
1095.4
1099.07
1102.91
1106.9
1111.05
1115.35
1119.81
1124.43
1129.19
1134.12
1139.19
1144.41
1149.78
1155.29
1160.95
1166.75
1172.69
1178.77
1184.98
1191.33
1197.8
1204.4
1211.13
1217.98
1224.95
1232.03
1239.23
1246.53
1253.94
1261.45
1269.07
1276.77
1284.57
1292.46
1300.43
1308.48
1316.6
1324.8
1333.07
1341.4
1349.8
1358.25
1366.75
1375.3
1383.89
1392.53
1401.2
1409.9
1418.63
1427.38
1436.15
1444.93
1453.72
1462.52
1471.33
1480.13
1488.92
1497.7
1506.47
1515.22
1523.94
1532.64
1541.31
1549.95
1558.55
1567.1
1575.61
1584.07
1592.48
1600.83
1609.11
1617.33
1625.49
1633.57
1641.57
1649.49
1657.33
1665.08
1672.75
1680.31
1687.79
1695.16
1702.43
1709.6
1716.66
1723.61
1730.44
1737.16
1743.77
1750.26
1756.64
1762.83
1768.9
1774.86
1780.68
1786.36
1791.91
1797.31
1802.56
1807.67
1812.63
1817.44
1822.09
1826.59
1830.94
1835.12
1839.14
1843.01
1846.71
1850.24
1853.61
1856.81
1859.84
1862.71
1865.4
1867.93
1870.28
1872.46
1874.47
1876.3
1877.96
1879.45
1880.76
1881.9
1882.86
1883.66
1884.27
1884.72
1884.99
1885.09
1885.01
1884.77
1884.35
1883.77
1883.01
1882.09
1881
1879.75
1878.34
1876.76
1875.02
1873.12
1871.06
1868.85
1866.49
1863.97
1861.31
1858.51
1855.53
1852.42
1849.17
1845.78
1842.25
1838.59
1834.81
1830.89
1826.84
1822.67
1818.38
1813.97
1809.44
1804.81
1800.06
1795.2
1790.24
1785.18
1780.02
1774.76
1769.41
1763.97
1758.45
1752.84
1747.16
1741.39
1735.56
1729.65
1723.68
1717.64
1711.54
1705.39
1699.19
1692.93
1686.64
1680.3
1673.93
1667.53
1661.1
1654.66
1648.22
1641.77
1635.32
1628.87
1622.43
1616
1609.58
1603.16
1596.76
1590.38
1584.02
1577.67
1571.36
1565.08
1558.84
1552.63
1546.48
1540.37
1534.32
1528.33
1522.39
1516.52
1510.72
1504.99
1499.34
1493.76
1488.27
1482.86
1477.53
1472.3
1467.16
1462.12
1457.18
1452.34
1447.61
1442.99
1438.48
1434.08
1429.8
1425.63
1421.59
1417.67
1413.88
1410.21
1406.68
1403.27
1400
1396.87
1393.88
1391.03
1388.32
1385.75
1383.33
1381.06
1378.94
1376.97
1375.14
1373.48
1371.96
1370.6
1369.39
1368.33
1367.42
1366.66
1366.05
1365.6
1365.29
1365.15
1145.53
1145.49
1145.32
1145.05
1144.7
1144.27
1143.77
1143.19
1142.52
1141.78
1140.97
1140.08
1139.11
1138.07
1136.97
1135.79
1134.55
1133.24
1131.86
1130.43
1128.94
1127.39
1125.79
1124.13
1122.43
1120.68
1118.88
1117.05
1115.17
1113.26
1111.33
1109.36
1107.37
1105.35
1103.32
1101.28
1099.22
1097.16
1095.1
1093.03
1090.97
1088.92
1086.89
1084.87
1082.87
1080.9
1078.95
1077.05
1075.17
1073.35
1071.56
1069.83
1068.15
1066.54
1064.98
1063.49
1062.08
1060.73
1059.47
1058.29
1057.2
1056.2
1055.29
1054.48
1053.77
1053.17
1052.67
1052.29
1052.02
1051.87
1051.84
1051.94
1052.16
1052.52
1053.01
1053.63
1054.39
1055.29
1056.33
1057.52
1058.85
1060.34
1061.97
1063.75
1065.69
1067.78
1070.03
1072.43
1075
1077.71
1080.59
1083.63
1086.83
1090.19
1093.71
1097.39
1101.22
1105.22
1109.38
1113.69
1118.16
1122.78
1127.57
1132.5
1137.59
1142.82
1148.21
1153.74
1159.42
1165.24
1171.21
1177.31
1183.54
1189.92
1196.42
1203.05
1209.81
1216.69
1223.69
1230.8
1238.03
1245.37
1252.81
1260.36
1268.01
1275.75
1283.59
1291.52
1299.53
1307.62
1315.78
1324.03
1332.34
1340.71
1349.15
1357.64
1366.18
1374.78
1383.42
1392.09
1400.81
1409.55
1418.33
1427.12
1435.93
1444.76
1453.6
1462.45
1471.3
1480.14
1488.98
1497.81
1506.62
1515.42
1524.19
1532.93
1541.65
1550.33
1558.97
1567.57
1576.12
1584.62
1593.06
1601.45
1609.77
1618.03
1626.22
1634.33
1642.37
1650.33
1658.21
1666
1673.69
1681.3
1688.81
1696.22
1703.53
1710.73
1717.83
1724.81
1731.68
1738.42
1745.05
1751.55
1757.9
1764.17
1770.3
1776.29
1782.14
1787.85
1793.42
1798.84
1804.12
1809.25
1814.23
1819.06
1823.73
1828.25
1832.61
1836.81
1840.85
1844.72
1848.44
1851.98
1855.36
1858.58
1861.62
1864.49
1867.2
1869.73
1872.08
1874.27
1876.28
1878.12
1879.78
1881.27
1882.59
1883.73
1884.69
1885.48
1886.09
1886.53
1886.8
1886.89
1886.81
1886.56
1886.14
1885.54
1884.78
1883.85
1882.75
1881.48
1880.05
1878.46
1876.7
1874.79
1872.71
1870.48
1868.09
1865.55
1862.86
1860.01
1857.03
1853.91
1850.63
1847.22
1843.67
1839.98
1836.16
1832.22
1828.14
1823.94
1819.61
1815.17
1810.61
1805.94
1801.15
1796.26
1791.26
1786.16
1780.96
1775.66
1770.27
1764.79
1759.23
1753.58
1747.85
1742.05
1736.17
1730.22
1724.2
1718.12
1711.99
1705.8
1699.55
1693.26
1686.93
1680.56
1674.16
1667.74
1661.3
1654.84
1648.37
1641.89
1635.4
1628.91
1622.42
1615.93
1609.44
1602.97
1596.52
1590.08
1583.66
1577.27
1570.91
1564.58
1558.29
1552.05
1545.85
1539.7
1533.6
1527.56
1521.58
1515.67
1509.83
1504.05
1498.36
1492.74
1487.2
1481.75
1476.39
1471.12
1465.94
1460.86
1455.88
1451.01
1446.24
1441.58
1437.04
1432.6
1428.29
1424.09
1420.02
1416.07
1412.25
1408.55
1404.99
1401.55
1398.26
1395.1
1392.08
1389.2
1386.46
1383.87
1381.42
1379.12
1376.97
1374.97
1373.12
1371.43
1369.89
1368.5
1367.27
1366.19
1365.26
1364.49
1363.87
1363.4
1363.09
1362.95
1145.81
1145.77
1145.59
1145.32
1144.96
1144.52
1144
1143.41
1142.73
1141.97
1141.13
1140.22
1139.23
1138.17
1137.03
1135.83
1134.55
1133.22
1131.81
1130.35
1128.82
1127.24
1125.61
1123.92
1122.18
1120.4
1118.57
1116.7
1114.79
1112.85
1110.88
1108.88
1106.85
1104.81
1102.74
1100.66
1098.58
1096.48
1094.38
1092.28
1090.19
1088.11
1086.04
1083.98
1081.95
1079.94
1077.97
1076.02
1074.12
1072.25
1070.44
1068.67
1066.96
1065.31
1063.72
1062.2
1060.75
1059.37
1058.08
1056.86
1055.74
1054.7
1053.76
1052.92
1052.18
1051.55
1051.02
1050.61
1050.31
1050.13
1050.08
1050.15
1050.35
1050.67
1051.14
1051.74
1052.47
1053.35
1054.38
1055.54
1056.86
1058.33
1059.94
1061.71
1063.64
1065.72
1067.95
1070.35
1072.9
1075.62
1078.49
1081.53
1084.72
1088.08
1091.6
1095.28
1099.12
1103.13
1107.29
1111.61
1116.1
1120.73
1125.53
1130.48
1135.59
1140.84
1146.25
1151.81
1157.51
1163.36
1169.35
1175.48
1181.75
1188.15
1194.68
1201.35
1208.14
1215.06
1222.1
1229.25
1236.52
1243.9
1251.39
1258.98
1266.68
1274.47
1282.35
1290.32
1298.38
1306.52
1314.74
1323.03
1331.39
1339.82
1348.31
1356.85
1365.45
1374.1
1382.79
1391.53
1400.3
1409.1
1417.92
1426.78
1435.65
1444.53
1453.43
1462.33
1471.23
1480.13
1489.03
1497.91
1506.78
1515.63
1524.46
1533.26
1542.03
1550.76
1559.45
1568.1
1576.71
1585.26
1593.76
1602.2
1610.57
1618.88
1627.12
1635.29
1643.38
1651.39
1659.32
1667.15
1674.9
1682.55
1690.11
1697.57
1704.92
1712.16
1719.3
1726.32
1733.22
1740.01
1746.68
1753.21
1759.63
1765.92
1772.07
1778.09
1783.97
1789.71
1795.31
1800.77
1806.07
1811.23
1816.23
1821.09
1825.78
1830.32
1834.7
1838.92
1842.98
1846.87
1850.6
1854.17
1857.56
1860.79
1863.84
1866.73
1869.44
1871.98
1874.35
1876.54
1878.56
1880.4
1882.07
1883.56
1884.87
1886.01
1886.98
1887.76
1888.38
1888.81
1889.07
1889.16
1889.07
1888.81
1888.38
1887.77
1887
1886.05
1884.93
1883.65
1882.2
1880.59
1878.82
1876.88
1874.78
1872.53
1870.11
1867.55
1864.83
1861.96
1858.95
1855.79
1852.48
1849.04
1845.45
1841.73
1837.88
1833.89
1829.77
1825.53
1821.17
1816.69
1812.08
1807.37
1802.54
1797.6
1792.55
1787.41
1782.16
1776.82
1771.38
1765.85
1760.24
1754.54
1748.76
1742.9
1736.97
1730.97
1724.9
1718.77
1712.59
1706.34
1700.05
1693.71
1687.33
1680.91
1674.46
1667.99
1661.49
1654.97
1648.43
1641.89
1635.34
1628.79
1622.24
1615.7
1609.16
1602.63
1596.12
1589.63
1583.16
1576.71
1570.3
1563.92
1557.57
1551.27
1545.02
1538.81
1532.66
1526.57
1520.54
1514.57
1508.68
1502.85
1497.1
1491.43
1485.85
1480.35
1474.94
1469.62
1464.39
1459.27
1454.24
1449.32
1444.51
1439.81
1435.22
1430.75
1426.39
1422.16
1418.04
1414.05
1410.19
1406.46
1402.86
1399.4
1396.07
1392.87
1389.82
1386.91
1384.14
1381.51
1379.04
1376.71
1374.52
1372.49
1370.62
1368.89
1367.32
1365.91
1364.65
1363.55
1362.6
1361.8
1361.17
1360.69
1360.38
1360.24
1146.12
1146.08
1145.9
1145.62
1145.25
1144.8
1144.27
1143.65
1142.95
1142.17
1141.31
1140.37
1139.36
1138.27
1137.1
1135.87
1134.56
1133.19
1131.75
1130.25
1128.69
1127.07
1125.4
1123.68
1121.9
1120.08
1118.21
1116.3
1114.36
1112.38
1110.37
1108.33
1106.26
1104.17
1102.07
1099.95
1097.82
1095.68
1093.54
1091.4
1089.27
1087.14
1085.03
1082.93
1080.86
1078.81
1076.79
1074.8
1072.86
1070.95
1069.09
1067.28
1065.53
1063.83
1062.2
1060.64
1059.14
1057.73
1056.39
1055.13
1053.97
1052.89
1051.91
1051.03
1050.25
1049.58
1049.02
1048.57
1048.24
1048.03
1047.94
1047.98
1048.14
1048.44
1048.88
1049.45
1050.16
1051.01
1052.01
1053.15
1054.45
1055.89
1057.49
1059.24
1061.15
1063.22
1065.44
1067.83
1070.37
1073.08
1075.95
1078.98
1082.17
1085.53
1089.06
1092.74
1096.59
1100.6
1104.77
1109.11
1113.6
1118.26
1123.07
1128.04
1133.17
1138.45
1143.88
1149.47
1155.2
1161.08
1167.1
1173.27
1179.57
1186.02
1192.59
1199.3
1206.13
1213.1
1220.18
1227.38
1234.7
1242.13
1249.67
1257.32
1265.07
1272.91
1280.85
1288.88
1297
1305.2
1313.48
1321.83
1330.26
1338.75
1347.3
1355.91
1364.58
1373.29
1382.05
1390.85
1399.69
1408.55
1417.45
1426.37
1435.31
1444.26
1453.23
1462.2
1471.17
1480.14
1489.1
1498.05
1506.99
1515.91
1524.8
1533.67
1542.5
1551.3
1560.06
1568.78
1577.44
1586.06
1594.62
1603.12
1611.56
1619.93
1628.23
1636.46
1644.61
1652.68
1660.66
1668.56
1676.36
1684.07
1691.68
1699.18
1706.59
1713.88
1721.07
1728.14
1735.09
1741.93
1748.64
1755.23
1761.68
1768.01
1774.2
1780.26
1786.18
1791.96
1797.59
1803.08
1808.42
1813.61
1818.64
1823.52
1828.25
1832.82
1837.22
1841.46
1845.55
1849.46
1853.21
1856.79
1860.2
1863.44
1866.51
1869.41
1872.14
1874.69
1877.07
1879.27
1881.29
1883.14
1884.81
1886.31
1887.62
1888.76
1889.73
1890.51
1891.12
1891.55
1891.81
1891.88
1891.79
1891.52
1891.07
1890.45
1889.66
1888.7
1887.56
1886.26
1884.79
1883.16
1881.35
1879.39
1877.27
1874.98
1872.54
1869.95
1867.2
1864.29
1861.24
1858.05
1854.7
1851.22
1847.59
1843.83
1839.93
1835.9
1831.74
1827.45
1823.04
1818.51
1813.86
1809.09
1804.21
1799.22
1794.12
1788.91
1783.61
1778.21
1772.71
1767.13
1761.45
1755.7
1749.86
1743.94
1737.95
1731.89
1725.76
1719.57
1713.32
1707.01
1700.66
1694.26
1687.82
1681.34
1674.83
1668.29
1661.72
1655.14
1648.55
1641.94
1635.32
1628.7
1622.08
1615.47
1608.86
1602.26
1595.67
1589.11
1582.57
1576.05
1569.57
1563.12
1556.7
1550.34
1544.01
1537.74
1531.53
1525.37
1519.27
1513.24
1507.28
1501.39
1495.58
1489.85
1484.2
1478.64
1473.17
1467.8
1462.51
1457.33
1452.25
1447.28
1442.42
1437.66
1433.02
1428.5
1424.09
1419.81
1415.65
1411.61
1407.71
1403.94
1400.29
1396.79
1393.42
1390.18
1387.09
1384.14
1381.34
1378.68
1376.17
1373.8
1371.59
1369.53
1367.62
1365.86
1364.26
1362.82
1361.53
1360.41
1359.43
1358.62
1357.97
1357.48
1357.17
1357.02
1146.46
1146.42
1146.23
1145.94
1145.57
1145.1
1144.55
1143.92
1143.2
1142.39
1141.51
1140.54
1139.5
1138.38
1137.18
1135.91
1134.57
1133.16
1131.69
1130.15
1128.55
1126.89
1125.18
1123.41
1121.59
1119.73
1117.81
1115.86
1113.87
1111.85
1109.79
1107.7
1105.59
1103.45
1101.3
1099.13
1096.95
1094.77
1092.58
1090.39
1088.2
1086.03
1083.86
1081.71
1079.59
1077.49
1075.42
1073.38
1071.38
1069.42
1067.51
1065.65
1063.85
1062.1
1060.42
1058.81
1057.27
1055.8
1054.41
1053.11
1051.9
1050.78
1049.75
1048.82
1048
1047.29
1046.68
1046.19
1045.82
1045.57
1045.44
1045.44
1045.57
1045.83
1046.23
1046.77
1047.45
1048.27
1049.24
1050.36
1051.63
1053.05
1054.63
1056.36
1058.25
1060.3
1062.51
1064.88
1067.41
1070.11
1072.97
1076
1079.19
1082.55
1086.08
1089.77
1093.62
1097.64
1101.83
1106.17
1110.69
1115.36
1120.19
1125.19
1130.34
1135.65
1141.11
1146.73
1152.49
1158.41
1164.47
1170.68
1177.03
1183.51
1190.14
1196.89
1203.78
1210.79
1217.93
1225.19
1232.57
1240.06
1247.66
1255.37
1263.18
1271.09
1279.1
1287.2
1295.38
1303.65
1312
1320.43
1328.93
1337.49
1346.12
1354.8
1363.55
1372.34
1381.17
1390.05
1398.97
1407.91
1416.89
1425.89
1434.91
1443.94
1452.98
1462.03
1471.09
1480.14
1489.18
1498.21
1507.23
1516.22
1525.19
1534.14
1543.05
1551.93
1560.76
1569.55
1578.3
1586.99
1595.62
1604.2
1612.71
1621.15
1629.52
1637.82
1646.04
1654.18
1662.23
1670.19
1678.06
1685.83
1693.5
1701.07
1708.54
1715.89
1723.14
1730.27
1737.28
1744.17
1750.93
1757.57
1764.08
1770.45
1776.7
1782.8
1788.76
1794.58
1800.26
1805.79
1811.16
1816.39
1821.46
1826.38
1831.13
1835.73
1840.17
1844.44
1848.55
1852.49
1856.26
1859.86
1863.29
1866.55
1869.64
1872.55
1875.29
1877.86
1880.25
1882.46
1884.49
1886.34
1888.02
1889.52
1890.84
1891.98
1892.94
1893.73
1894.33
1894.76
1895
1895.07
1894.96
1894.68
1894.22
1893.58
1892.77
1891.79
1890.64
1889.31
1887.82
1886.15
1884.33
1882.33
1880.18
1877.86
1875.38
1872.75
1869.96
1867.02
1863.93
1860.69
1857.3
1853.77
1850.1
1846.28
1842.34
1838.25
1834.04
1829.7
1825.23
1820.64
1815.93
1811.1
1806.16
1801.11
1795.95
1790.68
1785.31
1779.85
1774.28
1768.63
1762.89
1757.06
1751.15
1745.16
1739.1
1732.96
1726.76
1720.5
1714.18
1707.8
1701.38
1694.9
1688.39
1681.83
1675.24
1668.63
1661.99
1655.33
1648.65
1641.96
1635.26
1628.56
1621.86
1615.16
1608.47
1601.79
1595.12
1588.47
1581.85
1575.26
1568.69
1562.16
1555.67
1549.22
1542.82
1536.47
1530.18
1523.94
1517.77
1511.67
1505.63
1499.67
1493.79
1487.98
1482.27
1476.63
1471.09
1465.65
1460.3
1455.05
1449.91
1444.87
1439.94
1435.13
1430.43
1425.85
1421.38
1417.04
1412.83
1408.74
1404.79
1400.96
1397.27
1393.71
1390.3
1387.02
1383.89
1380.9
1378.05
1375.35
1372.8
1370.4
1368.15
1366.05
1364.11
1362.33
1360.7
1359.23
1357.91
1356.76
1355.77
1354.93
1354.27
1353.77
1353.45
1353.3
1146.84
1146.79
1146.59
1146.3
1145.91
1145.43
1144.87
1144.21
1143.47
1142.64
1141.73
1140.73
1139.65
1138.5
1137.27
1135.96
1134.58
1133.14
1131.62
1130.04
1128.4
1126.69
1124.93
1123.12
1121.25
1119.34
1117.38
1115.38
1113.33
1111.26
1109.14
1107
1104.83
1102.64
1100.43
1098.21
1095.97
1093.73
1091.48
1089.23
1086.99
1084.75
1082.53
1080.32
1078.14
1075.98
1073.85
1071.75
1069.69
1067.67
1065.7
1063.78
1061.92
1060.12
1058.38
1056.7
1055.1
1053.58
1052.14
1050.78
1049.51
1048.34
1047.26
1046.28
1045.41
1044.64
1043.99
1043.45
1043.03
1042.73
1042.56
1042.52
1042.61
1042.83
1043.19
1043.69
1044.33
1045.12
1046.06
1047.15
1048.39
1049.78
1051.33
1053.04
1054.91
1056.94
1059.13
1061.49
1064.01
1066.7
1069.55
1072.57
1075.76
1079.12
1082.65
1086.34
1090.2
1094.23
1098.43
1102.8
1107.33
1112.02
1116.88
1121.9
1127.08
1132.42
1137.92
1143.57
1149.38
1155.34
1161.44
1167.7
1174.1
1180.63
1187.31
1194.12
1201.07
1208.14
1215.34
1222.67
1230.11
1237.67
1245.34
1253.12
1261.01
1268.99
1277.08
1285.25
1293.52
1301.87
1310.3
1318.81
1327.39
1336.04
1344.76
1353.53
1362.36
1371.24
1380.17
1389.13
1398.14
1407.18
1416.25
1425.34
1434.45
1443.57
1452.71
1461.85
1470.99
1480.14
1489.27
1498.39
1507.5
1516.59
1525.65
1534.68
1543.69
1552.65
1561.57
1570.45
1579.28
1588.06
1596.78
1605.44
1614.03
1622.56
1631.01
1639.39
1647.69
1655.9
1664.03
1672.07
1680.01
1687.86
1695.6
1703.24
1710.78
1718.2
1725.51
1732.71
1739.78
1746.73
1753.56
1760.26
1766.82
1773.26
1779.55
1785.71
1791.72
1797.59
1803.32
1808.89
1814.31
1819.58
1824.69
1829.65
1834.44
1839.07
1843.54
1847.85
1851.98
1855.95
1859.75
1863.38
1866.83
1870.12
1873.22
1876.16
1878.91
1881.49
1883.89
1886.11
1888.15
1890.02
1891.7
1893.2
1894.53
1895.67
1896.63
1897.41
1898.01
1898.43
1898.67
1898.73
1898.6
1898.31
1897.83
1897.18
1896.35
1895.34
1894.16
1892.81
1891.29
1889.59
1887.73
1885.71
1883.51
1881.16
1878.64
1875.96
1873.13
1870.14
1867
1863.71
1860.28
1856.69
1852.97
1849.1
1845.09
1840.95
1836.68
1832.28
1827.74
1823.09
1818.31
1813.42
1808.41
1803.28
1798.05
1792.71
1787.27
1781.73
1776.09
1770.36
1764.54
1758.63
1752.64
1746.57
1740.43
1734.21
1727.93
1721.58
1715.18
1708.71
1702.2
1695.64
1689.04
1682.4
1675.72
1669.02
1662.29
1655.53
1648.77
1641.98
1635.19
1628.4
1621.6
1614.81
1608.02
1601.25
1594.49
1587.75
1581.03
1574.34
1567.68
1561.06
1554.48
1547.94
1541.45
1535.01
1528.62
1522.3
1516.04
1509.85
1503.73
1497.68
1491.72
1485.83
1480.03
1474.32
1468.7
1463.17
1457.75
1452.43
1447.21
1442.1
1437.1
1432.21
1427.44
1422.79
1418.26
1413.86
1409.58
1405.43
1401.42
1397.53
1393.79
1390.18
1386.71
1383.38
1380.19
1377.15
1374.26
1371.52
1368.93
1366.49
1364.2
1362.07
1360.09
1358.27
1356.61
1355.11
1353.77
1352.6
1351.58
1350.73
1350.05
1349.54
1349.21
1349.06
1147.26
1147.2
1147
1146.69
1146.29
1145.8
1145.21
1144.54
1143.77
1142.91
1141.97
1140.95
1139.84
1138.65
1137.38
1136.03
1134.61
1133.12
1131.56
1129.93
1128.24
1126.49
1124.68
1122.81
1120.89
1118.92
1116.9
1114.84
1112.74
1110.6
1108.43
1106.23
1104
1101.74
1099.47
1097.18
1094.87
1092.56
1090.25
1087.93
1085.62
1083.32
1081.03
1078.75
1076.5
1074.27
1072.07
1069.9
1067.78
1065.69
1063.65
1061.67
1059.74
1057.86
1056.06
1054.32
1052.66
1051.07
1049.56
1048.14
1046.81
1045.58
1044.44
1043.4
1042.47
1041.65
1040.94
1040.35
1039.88
1039.53
1039.3
1039.21
1039.25
1039.43
1039.75
1040.2
1040.81
1041.56
1042.46
1043.51
1044.71
1046.08
1047.6
1049.28
1051.12
1053.13
1055.31
1057.65
1060.15
1062.83
1065.67
1068.69
1071.88
1075.23
1078.76
1082.46
1086.33
1090.38
1094.59
1098.97
1103.52
1108.24
1113.13
1118.18
1123.39
1128.77
1134.31
1140
1145.85
1151.86
1158.01
1164.32
1170.77
1177.37
1184.11
1190.99
1198
1205.14
1212.41
1219.81
1227.33
1234.96
1242.71
1250.57
1258.54
1266.61
1274.79
1283.05
1291.41
1299.85
1308.37
1316.98
1325.66
1334.4
1343.21
1352.09
1361.02
1370
1379.02
1388.09
1397.2
1406.34
1415.51
1424.71
1433.92
1443.15
1452.39
1461.64
1470.89
1480.13
1489.37
1498.6
1507.81
1517
1526.16
1535.3
1544.4
1553.47
1562.49
1571.47
1580.39
1589.27
1598.08
1606.84
1615.52
1624.14
1632.69
1641.16
1649.54
1657.85
1666.06
1674.18
1682.21
1690.14
1697.97
1705.69
1713.3
1720.8
1728.19
1735.46
1742.61
1749.63
1756.52
1763.29
1769.92
1776.42
1782.78
1788.99
1795.06
1800.99
1806.77
1812.39
1817.87
1823.18
1828.34
1833.34
1838.18
1842.85
1847.35
1851.69
1855.87
1859.87
1863.69
1867.35
1870.83
1874.14
1877.27
1880.22
1882.99
1885.59
1888
1890.24
1892.29
1894.16
1895.85
1897.36
1898.69
1899.83
1900.79
1901.57
1902.16
1902.57
1902.8
1902.85
1902.72
1902.4
1901.91
1901.23
1900.38
1899.35
1898.14
1896.76
1895.2
1893.48
1891.58
1889.51
1887.28
1884.88
1882.32
1879.59
1876.71
1873.67
1870.48
1867.13
1863.64
1859.99
1856.21
1852.28
1848.21
1844
1839.66
1835.18
1830.58
1825.85
1821
1816.03
1810.95
1805.74
1800.43
1795.01
1789.48
1783.86
1778.13
1772.32
1766.41
1760.41
1754.33
1748.17
1741.93
1735.63
1729.25
1722.81
1716.31
1709.75
1703.14
1696.48
1689.78
1683.03
1676.26
1669.45
1662.62
1655.76
1648.89
1642
1635.11
1628.21
1621.3
1614.4
1607.51
1600.63
1593.76
1586.91
1580.09
1573.3
1566.53
1559.81
1553.12
1546.48
1539.89
1533.34
1526.86
1520.44
1514.08
1507.79
1501.57
1495.43
1489.37
1483.39
1477.49
1471.69
1465.98
1460.37
1454.86
1449.45
1444.15
1438.95
1433.87
1428.91
1424.06
1419.33
1414.73
1410.25
1405.9
1401.68
1397.6
1393.65
1389.84
1386.17
1382.64
1379.25
1376.01
1372.92
1369.97
1367.18
1364.54
1362.06
1359.73
1357.56
1355.54
1353.69
1352
1350.47
1349.1
1347.9
1346.87
1346
1345.31
1344.79
1344.45
1344.29
1147.73
1147.67
1147.46
1147.14
1146.72
1146.21
1145.6
1144.9
1144.11
1143.23
1142.25
1141.19
1140.05
1138.82
1137.51
1136.12
1134.65
1133.12
1131.51
1129.83
1128.08
1126.27
1124.4
1122.48
1120.5
1118.47
1116.39
1114.26
1112.09
1109.88
1107.64
1105.37
1103.07
1100.74
1098.4
1096.03
1093.66
1091.27
1088.88
1086.49
1084.1
1081.72
1079.35
1077
1074.67
1072.36
1070.09
1067.84
1065.64
1063.48
1061.36
1059.3
1057.29
1055.34
1053.46
1051.65
1049.91
1048.26
1046.68
1045.19
1043.79
1042.48
1041.28
1040.18
1039.18
1038.3
1037.53
1036.87
1036.34
1035.93
1035.66
1035.51
1035.5
1035.62
1035.89
1036.3
1036.86
1037.57
1038.42
1039.44
1040.61
1041.93
1043.42
1045.07
1046.89
1048.87
1051.02
1053.34
1055.84
1058.5
1061.33
1064.34
1067.52
1070.88
1074.41
1078.12
1082
1086.05
1090.28
1094.69
1099.26
1104.01
1108.92
1114.01
1119.26
1124.67
1130.26
1136
1141.9
1147.96
1154.17
1160.54
1167.06
1173.72
1180.52
1187.47
1194.56
1201.78
1209.13
1216.61
1224.21
1231.93
1239.77
1247.72
1255.79
1263.95
1272.22
1280.58
1289.04
1297.59
1306.22
1314.93
1323.71
1332.57
1341.49
1350.47
1359.51
1368.6
1377.74
1386.93
1396.15
1405.41
1414.7
1424.01
1433.34
1442.68
1452.04
1461.4
1470.77
1480.13
1489.49
1498.83
1508.15
1517.46
1526.74
1535.98
1545.2
1554.38
1563.51
1572.6
1581.64
1590.62
1599.54
1608.4
1617.19
1625.91
1634.56
1643.13
1651.62
1660.02
1668.33
1676.55
1684.67
1692.69
1700.61
1708.42
1716.12
1723.71
1731.18
1738.53
1745.76
1752.86
1759.83
1766.67
1773.38
1779.94
1786.37
1792.65
1798.79
1804.78
1810.62
1816.3
1821.83
1827.2
1832.41
1837.46
1842.34
1847.06
1851.61
1855.99