/*--------------------------------*- C++ -*----------------------------------*\
| =========                 |                                                 |
| \\      /  F ield         | OpenFOAM: The Open Source CFD Toolbox           |
|  \\    /   O peration     | Version:  v2006                                 |
|   \\  /    A nd           | Website:  www.openfoam.com                      |
|    \\/     M anipulation  |                                                 |
\*---------------------------------------------------------------------------*/
FoamFile
{
    version     2.0;
    format      ascii;
    class       volScalarField;
    location    "1.1";
    object      p;
}
// * * * * * * * * * * * * * * * * * * * * * * * * * * * * * * * * * * * * * //

dimensions      [1 -1 -2 0 0 0 0];


internalField   nonuniform List<scalar> 
52500
(
30245.6
30245.6
30245.6
30245.7
30245.7
30245.8
30245.8
30245.9
30246
30246.1
30246.2
30246.3
30246.4
30246.6
30246.7
30246.9
30247
30247.2
30247.3
30247.5
30247.7
30247.9
30248.1
30248.2
30248.4
30248.6
30248.8
30248.9
30249.1
30249.3
30249.4
30249.6
30249.7
30249.8
30250
30250.1
30250.1
30250.2
30250.3
30250.3
30250.3
30250.3
30250.2
30250.2
30250.1
30249.9
30249.8
30249.6
30249.3
30249.1
30248.7
30248.4
30248
30247.5
30247
30246.4
30245.8
30245.2
30244.4
30243.6
30242.8
30241.8
30240.8
30239.7
30238.6
30237.3
30236
30234.6
30233.1
30231.5
30229.8
30228
30226.1
30224.2
30222.1
30219.8
30217.5
30215.1
30212.5
30209.8
30207
30204
30200.9
30197.7
30194.3
30190.8
30187.1
30183.2
30179.2
30175.1
30170.8
30166.3
30161.6
30156.8
30151.7
30146.5
30141.1
30135.5
30129.7
30123.7
30117.5
30111.1
30104.4
30097.6
30090.5
30083.2
30075.7
30068
30060
30051.7
30043.2
30034.5
30025.5
30016.3
30006.8
29997.1
29987
29976.7
29966.2
29955.3
29944.2
29932.8
29921.1
29909.2
29896.9
29884.3
29871.5
29858.3
29844.9
29831.1
29817.1
29802.7
29788.1
29773.1
29757.8
29742.2
29726.3
29710
29693.5
29676.6
29659.5
29642
29624.2
29606
29587.6
29568.9
29549.8
29530.4
29510.7
29490.7
29470.4
29449.8
29428.9
29407.7
29386.2
29364.4
29342.3
29319.9
29297.2
29274.3
29251.1
29227.6
29203.8
29179.8
29155.5
29131
29106.2
29081.2
29056
29030.6
29004.9
28979
28953
28926.7
28900.3
28873.6
28846.9
28819.9
28792.8
28765.6
28738.2
28710.7
28683.2
28655.5
28627.7
28599.9
28572
28544
28516
28487.9
28459.8
28431.7
28403.7
28375.6
28347.6
28319.6
28291.7
28263.8
28236
28208.3
28180.7
28153.3
28125.9
28098.7
28071.6
28044.8
28018
27991.5
27965.2
27939.1
27913.2
27887.5
27862.1
27837
27812.1
27787.5
27763.2
27739.2
27715.5
27692.1
27669.1
27646.4
27624
27602
27580.4
27559.1
27538.2
27517.7
27497.7
27478
27458.7
27439.8
27421.4
27403.3
27385.8
27368.6
27351.9
27335.6
27319.8
27304.4
27289.5
27275
27261
27247.4
27234.3
27221.6
27209.5
27197.7
27186.5
27175.6
27165.3
27155.4
27146
27137
27128.4
27120.4
27112.7
27105.6
27098.8
27092.5
27086.7
27081.2
27076.3
27071.7
27067.6
27063.8
27060.5
27057.6
27055.2
27053.1
27051.4
27050.1
27049.2
27048.7
27048.5
27048.8
27049.3
27050.3
27051.6
27053.2
27055.1
27057.4
27060
27063
27066.2
27069.7
27073.5
27077.6
27081.9
27086.5
27091.4
27096.5
27101.8
27107.3
27113.1
27119
27125.1
27131.4
27137.9
27144.5
27151.3
27158.2
27165.2
27172.3
27179.5
27186.7
27194.1
27201.5
27208.9
27216.4
27223.9
27231.4
27238.8
27246.3
27253.7
27261.1
27268.5
27275.7
27282.9
27290
27297
27303.9
27310.7
27317.3
27323.7
27330.1
27336.2
27342.2
27348
27353.6
27358.9
27364.1
27369
27373.8
27378.2
27382.5
27386.5
27390.2
27393.7
27396.9
27399.8
27402.4
27404.8
27406.8
27408.6
27410.1
27411.3
27412.2
27412.8
27413.1
29787.7
29787.7
29787.8
29787.8
29787.8
29787.9
29788
29788
29788.1
29788.2
29788.3
29788.5
29788.6
29788.7
29788.9
29789
29789.2
29789.3
29789.5
29789.7
29789.9
29790
29790.2
29790.4
29790.6
29790.8
29791
29791.1
29791.3
29791.5
29791.6
29791.8
29791.9
29792
29792.2
29792.3
29792.4
29792.4
29792.5
29792.5
29792.5
29792.5
29792.5
29792.4
29792.3
29792.2
29792
29791.9
29791.6
29791.4
29791
29790.7
29790.3
29789.8
29789.3
29788.8
29788.2
29787.5
29786.8
29786
29785.1
29784.2
29783.2
29782.1
29781
29779.7
29778.4
29777
29775.5
29774
29772.3
29770.5
29768.6
29766.6
29764.5
29762.3
29760
29757.6
29755
29752.3
29749.5
29746.6
29743.5
29740.2
29736.9
29733.4
29729.7
29725.9
29721.9
29717.7
29713.4
29708.9
29704.3
29699.4
29694.4
29689.2
29683.8
29678.2
29672.4
29666.4
29660.2
29653.8
29647.2
29640.4
29633.3
29626
29618.5
29610.8
29602.8
29594.6
29586.1
29577.4
29568.4
29559.2
29549.7
29540
29529.9
29519.7
29509.1
29498.3
29487.2
29475.8
29464.1
29452.1
29439.9
29427.3
29414.5
29401.3
29387.9
29374.1
29360.1
29345.7
29331.1
29316.1
29300.8
29285.2
29269.3
29253
29236.5
29219.6
29202.5
29185
29167.2
29149
29130.6
29111.8
29092.8
29073.4
29053.7
29033.7
29013.4
28992.7
28971.8
28950.6
28929.1
28907.2
28885.1
28862.7
28840.1
28817.1
28793.9
28770.3
28746.6
28722.5
28698.2
28673.7
28648.9
28623.9
28598.6
28573.2
28547.5
28521.6
28495.5
28469.2
28442.7
28416.1
28389.2
28362.3
28335.1
28307.9
28280.5
28253
28225.3
28197.6
28169.8
28141.9
28114
28086
28058
28029.9
28001.9
27973.8
27945.7
27917.7
27889.6
27861.6
27833.7
27805.8
27778
27750.2
27722.6
27695.1
27667.7
27640.5
27613.4
27586.5
27559.7
27533.1
27506.8
27480.6
27454.7
27429
27403.6
27378.4
27353.5
27328.9
27304.5
27280.5
27256.8
27233.4
27210.3
27187.5
27165.2
27143.1
27121.5
27100.2
27079.3
27058.8
27038.7
27019
26999.7
26980.8
26962.3
26944.3
26926.7
26909.5
26892.8
26876.5
26860.6
26845.2
26830.3
26815.8
26801.8
26788.2
26775.1
26762.4
26750.2
26738.5
26727.2
26716.4
26706.1
26696.2
26686.7
26677.8
26669.2
26661.2
26653.5
26646.4
26639.6
26633.4
26627.5
26622.1
26617.1
26612.6
26608.4
26604.7
26601.4
26598.6
26596.1
26594
26592.4
26591.1
26590.2
26589.7
26589.6
26589.8
26590.4
26591.4
26592.7
26594.3
26596.3
26598.6
26601.3
26604.2
26607.5
26611
26614.8
26618.9
26623.3
26628
26632.8
26638
26643.3
26648.9
26654.7
26660.6
26666.8
26673.1
26679.6
26686.3
26693.1
26700
26707
26714.2
26721.4
26728.7
26736.1
26743.5
26751
26758.5
26766
26773.5
26781.1
26788.6
26796
26803.5
26810.8
26818.1
26825.3
26832.5
26839.5
26846.4
26853.2
26859.8
26866.4
26872.7
26878.9
26884.9
26890.7
26896.3
26901.7
26906.9
26911.9
26916.6
26921.1
26925.3
26929.3
26933.1
26936.6
26939.8
26942.7
26945.4
26947.7
26949.8
26951.6
26953.1
26954.3
26955.2
26955.8
26956.1
29329.8
29329.8
29329.8
29329.8
29329.9
29329.9
29330
29330.1
29330.2
29330.3
29330.4
29330.5
29330.6
29330.8
29330.9
29331.1
29331.2
29331.4
29331.6
29331.8
29331.9
29332.1
29332.3
29332.5
29332.7
29332.9
29333.1
29333.2
29333.4
29333.6
29333.8
29333.9
29334.1
29334.2
29334.3
29334.4
29334.5
29334.6
29334.7
29334.7
29334.7
29334.7
29334.7
29334.7
29334.6
29334.5
29334.3
29334.1
29333.9
29333.6
29333.3
29333
29332.6
29332.2
29331.7
29331.1
29330.5
29329.9
29329.2
29328.4
29327.5
29326.6
29325.6
29324.6
29323.5
29322.2
29320.9
29319.5
29318.1
29316.5
29314.8
29313.1
29311.2
29309.2
29307.2
29305
29302.7
29300.3
29297.7
29295
29292.2
29289.3
29286.2
29283
29279.7
29276.2
29272.5
29268.7
29264.8
29260.6
29256.3
29251.9
29247.2
29242.4
29237.4
29232.2
29226.9
29221.3
29215.5
29209.6
29203.4
29197
29190.4
29183.6
29176.5
29169.3
29161.8
29154
29146.1
29137.9
29129.4
29120.7
29111.8
29102.6
29093.1
29083.4
29073.4
29063.1
29052.6
29041.8
29030.7
29019.3
29007.6
28995.7
28983.4
28970.9
28958.1
28945
28931.5
28917.8
28903.8
28889.4
28874.7
28859.8
28844.5
28828.9
28813
28796.8
28780.2
28763.4
28746.2
28728.7
28710.9
28692.8
28674.4
28655.6
28636.5
28617.1
28597.4
28577.4
28557.1
28536.5
28515.6
28494.3
28472.8
28451
28428.8
28406.4
28383.7
28360.8
28337.5
28314
28290.2
28266.1
28241.8
28217.2
28192.4
28167.4
28142.1
28116.6
28090.9
28065
28038.8
28012.5
27986
27959.3
27932.5
27905.4
27878.3
27851
27823.5
27796
27768.3
27740.6
27712.7
27684.7
27656.7
27628.7
27600.6
27572.4
27544.3
27516.1
27487.9
27459.8
27431.6
27403.5
27375.5
27347.6
27319.7
27291.9
27264.2
27236.6
27209.1
27181.8
27154.7
27127.7
27100.9
27074.2
27047.8
27021.6
26995.6
26969.8
26944.3
26919.1
26894.1
26869.4
26845
26820.9
26797.1
26773.6
26750.5
26727.7
26705.3
26683.2
26661.5
26640.2
26619.2
26598.7
26578.5
26558.7
26539.4
26520.5
26502
26483.9
26466.3
26449.1
26432.3
26416
26400.1
26384.7
26369.8
26355.2
26341.2
26327.6
26314.5
26301.8
26289.6
26277.9
26266.6
26255.8
26245.4
26235.6
26226.1
26217.2
26208.6
26200.6
26193
26185.8
26179.1
26172.8
26167
26161.6
26156.6
26152.1
26148
26144.3
26141.1
26138.2
26135.8
26133.8
26132.1
26130.9
26130
26129.6
26129.5
26129.8
26130.4
26131.4
26132.8
26134.5
26136.5
26138.9
26141.5
26144.5
26147.8
26151.4
26155.3
26159.5
26163.9
26168.6
26173.6
26178.7
26184.2
26189.8
26195.6
26201.7
26207.9
26214.3
26220.9
26227.6
26234.5
26241.4
26248.5
26255.8
26263.1
26270.4
26277.9
26285.4
26292.9
26300.5
26308.1
26315.7
26323.3
26330.9
26338.4
26345.9
26353.3
26360.7
26368
26375.2
26382.3
26389.3
26396.1
26402.8
26409.4
26415.8
26422
26428
26433.9
26439.6
26445
26450.3
26455.3
26460
26464.6
26468.9
26472.9
26476.7
26480.2
26483.4
26486.4
26489.1
26491.5
26493.6
26495.4
26496.9
26498.1
26499
26499.6
26499.9
28871.7
28871.7
28871.8
28871.8
28871.8
28871.9
28872
28872.1
28872.1
28872.3
28872.4
28872.5
28872.6
28872.8
28872.9
28873.1
28873.2
28873.4
28873.6
28873.8
28874
28874.2
28874.3
28874.5
28874.7
28874.9
28875.1
28875.3
28875.5
28875.7
28875.9
28876
28876.2
28876.3
28876.5
28876.6
28876.7
28876.8
28876.9
28876.9
28877
28877
28877
28876.9
28876.8
28876.7
28876.6
28876.4
28876.2
28876
28875.7
28875.4
28875
28874.6
28874.1
28873.6
28873
28872.4
28871.7
28870.9
28870.1
28869.2
28868.3
28867.2
28866.1
28864.9
28863.6
28862.3
28860.8
28859.3
28857.6
28855.9
28854.1
28852.1
28850.1
28847.9
28845.6
28843.2
28840.7
28838.1
28835.3
28832.4
28829.4
28826.2
28822.9
28819.4
28815.8
28812
28808.1
28804
28799.7
28795.3
28790.6
28785.9
28780.9
28775.7
28770.4
28764.9
28759.1
28753.2
28747
28740.7
28734.1
28727.3
28720.3
28713.1
28705.6
28697.9
28690
28681.8
28673.4
28664.7
28655.8
28646.6
28637.2
28627.5
28617.5
28607.3
28596.8
28586
28574.9
28563.6
28551.9
28540
28527.8
28515.3
28502.5
28489.4
28476
28462.2
28448.2
28433.9
28419.3
28404.3
28389
28373.5
28357.6
28341.3
28324.8
28308
28290.8
28273.3
28255.5
28237.4
28218.9
28200.2
28181.1
28161.7
28142
28122
28101.7
28081
28060.1
28038.8
28017.3
27995.4
27973.2
27950.8
27928.1
27905.1
27881.8
27858.2
27834.4
27810.3
27785.9
27761.3
27736.4
27711.3
27686
27660.4
27634.7
27608.7
27582.5
27556.1
27529.5
27502.7
27475.8
27448.7
27421.4
27394
27366.5
27338.9
27311.1
27283.2
27255.3
27227.2
27199.2
27171.1
27142.9
27114.7
27086.4
27058.2
27029.9
27001.7
26973.5
26945.3
26917.2
26889.1
26861.1
26833.2
26805.4
26777.7
26750.2
26722.8
26695.5
26668.4
26641.5
26614.7
26588.2
26561.9
26535.8
26509.9
26484.3
26459
26433.9
26409.1
26384.6
26360.4
26336.5
26313
26289.8
26266.9
26244.4
26222.2
26200.4
26179
26158
26137.4
26117.1
26097.3
26077.9
26058.9
26040.4
26022.3
26004.6
25987.3
25970.5
25954.2
25938.3
25922.8
25907.8
25893.3
25879.2
25865.6
25852.5
25839.8
25827.6
25815.8
25804.6
25793.8
25783.4
25773.5
25764.1
25755.1
25746.6
25738.6
25731
25723.8
25717.1
25710.9
25705.1
25699.7
25694.8
25690.3
25686.2
25682.6
25679.4
25676.6
25674.2
25672.2
25670.6
25669.4
25668.6
25668.2
25668.2
25668.6
25669.3
25670.3
25671.8
25673.5
25675.6
25678.1
25680.8
25683.9
25687.3
25691
25694.9
25699.2
25703.7
25708.5
25713.5
25718.8
25724.3
25730.1
25736
25742.1
25748.5
25755
25761.6
25768.5
25775.4
25782.5
25789.7
25797.1
25804.5
25811.9
25819.5
25827.1
25834.8
25842.5
25850.2
25857.9
25865.6
25873.2
25880.9
25888.5
25896
25903.5
25910.9
25918.2
25925.3
25932.4
25939.3
25946.1
25952.8
25959.3
25965.6
25971.7
25977.7
25983.4
25988.9
25994.2
25999.3
26004.1
26008.7
26013.1
26017.2
26021
26024.6
26027.8
26030.8
26033.5
26036
26038.1
26039.9
26041.4
26042.7
26043.6
26044.2
26044.5
28413.6
28413.6
28413.6
28413.7
28413.7
28413.8
28413.9
28413.9
28414
28414.1
28414.3
28414.4
28414.5
28414.7
28414.8
28415
28415.2
28415.4
28415.5
28415.7
28415.9
28416.1
28416.3
28416.5
28416.7
28416.9
28417.1
28417.3
28417.5
28417.7
28417.9
28418.1
28418.3
28418.4
28418.6
28418.7
28418.9
28419
28419.1
28419.1
28419.2
28419.2
28419.2
28419.2
28419.1
28419.1
28419
28418.8
28418.6
28418.4
28418.1
28417.8
28417.5
28417.1
28416.6
28416.1
28415.6
28415
28414.3
28413.6
28412.8
28411.9
28411
28410
28408.9
28407.7
28406.5
28405.2
28403.7
28402.2
28400.6
28398.9
28397.1
28395.2
28393.2
28391.1
28388.8
28386.5
28384
28381.4
28378.6
28375.8
28372.8
28369.6
28366.3
28362.9
28359.3
28355.6
28351.7
28347.6
28343.4
28339
28334.4
28329.7
28324.8
28319.7
28314.4
28308.9
28303.2
28297.3
28291.2
28284.9
28278.3
28271.6
28264.6
28257.4
28250
28242.4
28234.5
28226.3
28217.9
28209.3
28200.4
28191.3
28181.9
28172.2
28162.3
28152.1
28141.6
28130.9
28119.9
28108.5
28096.9
28085
28072.9
28060.4
28047.6
28034.5
28021.1
28007.4
27993.4
27979.1
27964.5
27949.6
27934.3
27918.8
27902.9
27886.7
27870.2
27853.3
27836.2
27818.7
27800.9
27782.8
27764.3
27745.6
27726.5
27707.1
27687.3
27667.3
27647
27626.3
27605.3
27584.1
27562.5
27540.6
27518.4
27495.9
27473.2
27450.1
27426.8
27403.2
27379.3
27355.1
27330.7
27306
27281.1
27256
27230.6
27204.9
27179.1
27153
27126.7
27100.3
27073.6
27046.7
27019.7
26992.5
26965.2
26937.7
26910.1
26882.4
26854.5
26826.6
26798.5
26770.4
26742.2
26713.9
26685.5
26657.2
26628.8
26600.4
26572
26543.6
26515.2
26486.9
26458.6
26430.4
26402.3
26374.3
26346.3
26318.5
26290.8
26263.2
26235.8
26208.6
26181.5
26154.7
26128
26101.5
26075.3
26049.3
26023.6
25998.1
25972.9
25948
25923.3
25899
25875
25851.3
25828
25805
25782.4
25760.1
25738.2
25716.7
25695.6
25674.9
25654.6
25634.7
25615.2
25596.1
25577.5
25559.3
25541.6
25524.3
25507.4
25491
25475
25459.5
25444.5
25430
25415.9
25402.2
25389.1
25376.4
25364.1
25352.4
25341.1
25330.3
25319.9
25310
25300.6
25291.7
25283.2
25275.2
25267.6
25260.5
25253.8
25247.6
25241.8
25236.5
25231.6
25227.2
25223.2
25219.6
25216.4
25213.7
25211.3
25209.4
25207.9
25206.8
25206.1
25205.7
25205.8
25206.2
25207
25208.2
25209.7
25211.5
25213.7
25216.3
25219.1
25222.3
25225.8
25229.6
25233.7
25238.1
25242.7
25247.6
25252.8
25258.2
25263.8
25269.7
25275.7
25282
25288.5
25295.1
25301.9
25308.9
25316
25323.2
25330.6
25338
25345.6
25353.2
25360.9
25368.7
25376.5
25384.3
25392.2
25400
25407.8
25415.7
25423.4
25431.2
25438.9
25446.5
25454
25461.4
25468.7
25475.9
25483
25489.9
25496.6
25503.2
25509.7
25515.9
25521.9
25527.8
25533.4
25538.8
25543.9
25548.9
25553.6
25558
25562.1
25566
25569.6
25573
25576
25578.8
25581.2
25583.4
25585.3
25586.8
25588.1
25589
25589.6
25589.9
27955.4
27955.4
27955.4
27955.5
27955.5
27955.6
27955.7
27955.7
27955.8
27956
27956.1
27956.2
27956.4
27956.5
27956.7
27956.9
27957
27957.2
27957.4
27957.6
27957.8
27958
27958.3
27958.5
27958.7
27958.9
27959.1
27959.3
27959.6
27959.8
27960
27960.2
27960.4
27960.5
27960.7
27960.9
27961
27961.1
27961.2
27961.3
27961.4
27961.5
27961.5
27961.5
27961.5
27961.4
27961.3
27961.2
27961
27960.9
27960.6
27960.3
27960
27959.7
27959.2
27958.8
27958.3
27957.7
27957
27956.3
27955.6
27954.8
27953.9
27952.9
27951.8
27950.7
27949.5
27948.2
27946.8
27945.4
27943.8
27942.1
27940.4
27938.5
27936.5
27934.4
27932.2
27929.9
27927.5
27924.9
27922.2
27919.4
27916.5
27913.4
27910.1
27906.8
27903.2
27899.5
27895.7
27891.7
27887.5
27883.2
27878.6
27874
27869.1
27864
27858.8
27853.3
27847.7
27841.8
27835.8
27829.5
27823
27816.4
27809.4
27802.3
27794.9
27787.3
27779.5
27771.4
27763.1
27754.5
27745.7
27736.6
27727.2
27717.6
27707.7
27697.6
27687.2
27676.4
27665.5
27654.2
27642.6
27630.8
27618.6
27606.2
27593.4
27580.4
27567
27553.4
27539.4
27525.1
27510.5
27495.6
27480.4
27464.9
27449
27432.8
27416.3
27399.5
27382.3
27364.9
27347.1
27328.9
27310.5
27291.7
27272.6
27253.2
27233.5
27213.4
27193.1
27172.4
27151.4
27130.1
27108.5
27086.6
27064.3
27041.8
27019
26995.9
26972.5
26948.8
26924.9
26900.7
26876.2
26851.4
26826.4
26801.2
26775.7
26750
26724
26697.8
26671.5
26644.9
26618.1
26591.1
26564
26536.7
26509.2
26481.6
26453.9
26426
26398
26369.9
26341.6
26313.4
26285
26256.6
26228.1
26199.6
26171.1
26142.5
26113.9
26085.4
26056.9
26028.4
25999.9
25971.6
25943.3
25915
25886.9
25858.9
25831
25803.3
25775.7
25748.3
25721.1
25694
25667.2
25640.5
25614.1
25588
25562.1
25536.4
25511
25486
25461.2
25436.7
25412.6
25388.7
25365.3
25342.1
25319.4
25297
25274.9
25253.3
25232.1
25211.2
25190.8
25170.8
25151.2
25132.1
25113.3
25095.1
25077.2
25059.8
25042.9
25026.4
25010.4
24994.9
24979.8
24965.2
24951.1
24937.4
24924.2
24911.5
24899.2
24887.5
24876.2
24865.4
24855
24845.1
24835.7
24826.8
24818.3
24810.3
24802.8
24795.7
24789.1
24782.9
24777.2
24771.9
24767.1
24762.7
24758.7
24755.2
24752.1
24749.4
24747.2
24745.3
24743.9
24742.9
24742.3
24742
24742.2
24742.7
24743.6
24744.9
24746.5
24748.5
24750.8
24753.5
24756.4
24759.8
24763.4
24767.3
24771.5
24776.1
24780.9
24785.9
24791.2
24796.8
24802.6
24808.6
24814.8
24821.3
24827.9
24834.7
24841.7
24848.9
24856.1
24863.6
24871.1
24878.7
24886.5
24894.3
24902.2
24910.1
24918.1
24926.1
24934.1
24942.1
24950.2
24958.1
24966.1
24974
24981.9
24989.6
24997.3
25004.9
25012.4
25019.7
25026.9
25034
25040.9
25047.6
25054.2
25060.6
25066.7
25072.7
25078.4
25084
25089.2
25094.3
25099
25103.6
25107.8
25111.8
25115.5
25118.9
25122
25124.8
25127.3
25129.5
25131.4
25133
25134.3
25135.2
25135.9
25136.2
27497.1
27497.1
27497.1
27497.2
27497.2
27497.3
27497.4
27497.5
27497.6
27497.7
27497.8
27498
27498.1
27498.3
27498.5
27498.6
27498.8
27499
27499.2
27499.4
27499.7
27499.9
27500.1
27500.3
27500.6
27500.8
27501
27501.3
27501.5
27501.7
27502
27502.2
27502.4
27502.6
27502.8
27503
27503.1
27503.3
27503.4
27503.5
27503.6
27503.7
27503.8
27503.8
27503.8
27503.8
27503.7
27503.6
27503.5
27503.4
27503.2
27502.9
27502.6
27502.3
27501.9
27501.5
27501
27500.5
27499.9
27499.2
27498.5
27497.7
27496.8
27495.9
27494.9
27493.8
27492.7
27491.4
27490.1
27488.7
27487.1
27485.5
27483.8
27482
27480.1
27478.1
27475.9
27473.6
27471.3
27468.8
27466.1
27463.4
27460.5
27457.4
27454.3
27450.9
27447.5
27443.8
27440
27436.1
27432
27427.7
27423.2
27418.6
27413.8
27408.8
27403.6
27398.2
27392.6
27386.9
27380.9
27374.7
27368.3
27361.6
27354.8
27347.7
27340.4
27332.9
27325.1
27317.1
27308.8
27300.3
27291.5
27282.5
27273.2
27263.6
27253.8
27243.7
27233.3
27222.7
27211.8
27200.5
27189
27177.2
27165.1
27152.7
27140
27127
27113.7
27100.1
27086.2
27071.9
27057.4
27042.5
27027.3
27011.8
26995.9
26979.8
26963.3
26946.5
26929.3
26911.8
26894.1
26875.9
26857.5
26838.7
26819.6
26800.2
26780.4
26760.4
26740
26719.3
26698.2
26676.9
26655.2
26633.3
26611
26588.4
26565.6
26542.4
26518.9
26495.2
26471.2
26446.9
26422.3
26397.5
26372.4
26347
26321.4
26295.6
26269.5
26243.3
26216.8
26190
26163.1
26136
26108.8
26081.3
26053.7
26025.9
25998
25970
25941.8
25913.5
25885.2
25856.7
25828.2
25799.5
25770.9
25742.2
25713.4
25684.7
25655.9
25627.1
25598.4
25569.7
25541.1
25512.5
25484
25455.5
25427.2
25399
25370.9
25342.9
25315.1
25287.5
25260.1
25232.8
25205.7
25178.9
25152.3
25125.9
25099.8
25074
25048.4
25023.1
24998.1
24973.5
24949.1
24925.1
24901.5
24878.2
24855.2
24832.7
24810.5
24788.7
24767.3
24746.4
24725.8
24705.7
24686
24666.7
24647.9
24629.5
24611.5
24594.1
24577
24560.5
24544.4
24528.8
24513.7
24499
24484.8
24471.1
24457.9
24445.1
24432.9
24421.1
24409.8
24399
24388.6
24378.8
24369.4
24360.4
24352
24344
24336.5
24329.5
24322.9
24316.8
24311.1
24305.9
24301.1
24296.8
24292.9
24289.5
24286.5
24283.9
24281.7
24280
24278.7
24277.7
24277.2
24277.1
24277.4
24278
24279
24280.4
24282.2
24284.3
24286.8
24289.6
24292.8
24296.2
24300
24304.1
24308.5
24313.2
24318.2
24323.4
24328.9
24334.7
24340.7
24346.9
24353.3
24360
24366.8
24373.8
24381
24388.4
24395.9
24403.5
24411.2
24419.1
24427.1
24435.1
24443.2
24451.3
24459.5
24467.8
24476
24484.3
24492.5
24500.7
24508.9
24517
24525
24533
24540.9
24548.7
24556.3
24563.9
24571.3
24578.5
24585.6
24592.5
24599.3
24605.8
24612.1
24618.2
24624.1
24629.8
24635.2
24640.3
24645.2
24649.8
24654.2
24658.3
24662.1
24665.5
24668.7
24671.6
24674.2
24676.5
24678.4
24680
24681.3
24682.3
24683
24683.3
27038.7
27038.7
27038.8
27038.8
27038.9
27038.9
27039
27039.1
27039.2
27039.3
27039.5
27039.6
27039.8
27040
27040.2
27040.3
27040.5
27040.8
27041
27041.2
27041.4
27041.7
27041.9
27042.2
27042.4
27042.7
27042.9
27043.2
27043.4
27043.7
27043.9
27044.2
27044.4
27044.6
27044.8
27045.1
27045.2
27045.4
27045.6
27045.7
27045.9
27046
27046.1
27046.1
27046.2
27046.2
27046.2
27046.1
27046
27045.9
27045.7
27045.5
27045.3
27045
27044.7
27044.3
27043.8
27043.4
27042.8
27042.2
27041.5
27040.8
27040
27039.1
27038.1
27037.1
27036
27034.8
27033.5
27032.2
27030.7
27029.1
27027.5
27025.7
27023.9
27021.9
27019.8
27017.6
27015.3
27012.9
27010.3
27007.6
27004.8
27001.8
26998.7
26995.4
26992
26988.5
26984.7
26980.9
26976.8
26972.6
26968.2
26963.7
26958.9
26954
26948.9
26943.6
26938.1
26932.4
26926.5
26920.3
26914
26907.4
26900.7
26893.7
26886.4
26879
26871.3
26863.3
26855.1
26846.7
26838
26829
26819.8
26810.3
26800.5
26790.5
26780.2
26769.6
26758.7
26747.6
26736.1
26724.4
26712.3
26700
26687.3
26674.4
26661.1
26647.6
26633.7
26619.5
26604.9
26590.1
26574.9
26559.4
26543.6
26527.5
26511
26494.2
26477.1
26459.6
26441.9
26423.7
26405.3
26386.5
26367.4
26348
26328.2
26308.1
26287.7
26266.9
26245.9
26224.5
26202.8
26180.8
26158.5
26135.8
26112.9
26089.6
26066.1
26042.3
26018.2
25993.8
25969.1
25944.2
25919
25893.5
25867.8
25841.8
25815.6
25789.2
25762.6
25735.7
25708.7
25681.4
25653.9
25626.3
25598.5
25570.6
25542.5
25514.3
25485.9
25457.4
25428.8
25400.2
25371.4
25342.6
25313.7
25284.8
25255.8
25226.8
25197.8
25168.8
25139.9
25110.9
25082
25053.2
25024.4
24995.7
24967.2
24938.7
24910.4
24882.1
24854.1
24826.2
24798.5
24771
24743.7
24716.6
24689.7
24663.1
24636.8
24610.7
24584.9
24559.4
24534.2
24509.3
24484.8
24460.5
24436.7
24413.2
24390
24367.3
24344.9
24323
24301.4
24280.3
24259.6
24239.3
24219.4
24200
24181
24162.5
24144.5
24126.9
24109.8
24093.2
24077
24061.3
24046.1
24031.4
24017.1
24003.4
23990.1
23977.3
23965
23953.2
23941.9
23931.1
23920.8
23910.9
23901.5
23892.6
23884.2
23876.3
23868.8
23861.8
23855.3
23849.2
23843.6
23838.5
23833.8
23829.6
23825.8
23822.4
23819.5
23817
23815
23813.3
23812.1
23811.3
23810.9
23811
23811.4
23812.2
23813.3
23814.9
23816.8
23819.1
23821.7
23824.7
23828.1
23831.7
23835.7
23840
23844.6
23849.5
23854.7
23860.1
23865.8
23871.8
23878
23884.5
23891.2
23898
23905.1
23912.4
23919.8
23927.4
23935.2
23943.1
23951.1
23959.2
23967.4
23975.7
23984
23992.4
24000.9
24009.4
24017.9
24026.4
24034.9
24043.3
24051.7
24060.1
24068.4
24076.6
24084.7
24092.7
24100.6
24108.4
24116
24123.5
24130.8
24137.9
24144.8
24151.5
24158
24164.3
24170.4
24176.2
24181.8
24187.1
24192.1
24196.9
24201.3
24205.5
24209.4
24213
24216.3
24219.3
24221.9
24224.2
24226.2
24227.9
24229.3
24230.3
24230.9
24231.3
26580.2
26580.3
26580.3
26580.3
26580.4
26580.5
26580.6
26580.7
26580.8
26580.9
26581.1
26581.2
26581.4
26581.6
26581.8
26582
26582.2
26582.4
26582.7
26582.9
26583.1
26583.4
26583.7
26583.9
26584.2
26584.5
26584.8
26585
26585.3
26585.6
26585.9
26586.1
26586.4
26586.6
26586.9
26587.1
26587.3
26587.6
26587.8
26587.9
26588.1
26588.2
26588.4
26588.5
26588.5
26588.6
26588.6
26588.6
26588.6
26588.5
26588.4
26588.2
26588
26587.8
26587.5
26587.2
26586.8
26586.3
26585.8
26585.3
26584.7
26584
26583.2
26582.4
26581.5
26580.5
26579.5
26578.4
26577.1
26575.8
26574.4
26573
26571.4
26569.7
26567.9
26566
26564
26561.8
26559.6
26557.2
26554.7
26552.1
26549.4
26546.5
26543.4
26540.2
26536.9
26533.4
26529.8
26526
26522.1
26517.9
26513.6
26509.1
26504.5
26499.6
26494.6
26489.4
26484
26478.3
26472.5
26466.5
26460.2
26453.8
26447.1
26440.1
26433
26425.6
26418
26410.1
26402
26393.6
26385
26376.1
26367
26357.6
26347.9
26338
26327.7
26317.2
26306.4
26295.3
26283.9
26272.3
26260.3
26248
26235.4
26222.5
26209.3
26195.8
26181.9
26167.8
26153.3
26138.5
26123.4
26107.9
26092.2
26076
26059.6
26042.8
26025.7
26008.3
25990.5
25972.4
25953.9
25935.1
25916
25896.6
25876.8
25856.7
25836.2
25815.4
25794.3
25772.9
25751.2
25729.1
25706.7
25684
25661
25637.7
25614
25590.1
25565.9
25541.4
25516.6
25491.6
25466.2
25440.6
25414.8
25388.7
25362.3
25335.8
25308.9
25281.9
25254.7
25227.2
25199.6
25171.8
25143.8
25115.6
25087.3
25058.9
25030.3
25001.6
24972.8
24943.9
24914.9
24885.8
24856.6
24827.4
24798.2
24769
24739.7
24710.4
24681.2
24652
24622.8
24593.7
24564.6
24535.7
24506.8
24478
24449.4
24420.9
24392.6
24364.4
24336.4
24308.6
24281
24253.6
24226.5
24199.6
24173
24146.6
24120.6
24094.8
24069.3
24044.2
24019.4
23994.9
23970.8
23947.1
23923.7
23900.8
23878.2
23856
23834.3
23812.9
23792
23771.6
23751.6
23732
23712.9
23694.2
23676.1
23658.3
23641.1
23624.4
23608.1
23592.3
23577.1
23562.3
23548
23534.2
23520.8
23508
23495.7
23483.9
23472.6
23461.7
23451.4
23441.6
23432.2
23423.3
23415
23407.1
23399.6
23392.7
23386.2
23380.2
23374.7
23369.6
23365
23360.9
23357.2
23354
23351.2
23348.8
23346.9
23345.4
23344.3
23343.6
23343.4
23343.6
23344.1
23345.1
23346.5
23348.2
23350.3
23352.8
23355.6
23358.8
23362.3
23366.2
23370.4
23374.9
23379.8
23384.9
23390.3
23396
23402
23408.2
23414.7
23421.4
23428.3
23435.5
23442.9
23450.4
23458.1
23466
23474
23482.2
23490.5
23498.9
23507.4
23516
23524.7
23533.4
23542.1
23550.9
23559.7
23568.5
23577.3
23586
23594.7
23603.4
23611.9
23620.4
23628.8
23637.1
23645.3
23653.3
23661.2
23668.9
23676.4
23683.7
23690.9
23697.8
23704.6
23711.1
23717.3
23723.3
23729.1
23734.5
23739.7
23744.6
23749.3
23753.6
23757.6
23761.3
23764.7
23767.8
23770.5
23772.9
23775
23776.7
23778.1
23779.1
23779.8
23780.1
26121.7
26121.7
26121.7
26121.8
26121.9
26121.9
26122
26122.1
26122.3
26122.4
26122.6
26122.7
26122.9
26123.1
26123.3
26123.5
26123.8
26124
26124.3
26124.5
26124.8
26125.1
26125.3
26125.6
26125.9
26126.2
26126.5
26126.8
26127.1
26127.4
26127.7
26128
26128.3
26128.6
26128.9
26129.2
26129.4
26129.7
26129.9
26130.1
26130.3
26130.5
26130.7
26130.8
26130.9
26131
26131.1
26131.1
26131.1
26131.1
26131
26130.9
26130.8
26130.6
26130.4
26130.1
26129.8
26129.4
26128.9
26128.5
26127.9
26127.3
26126.6
26125.8
26125
26124.1
26123.1
26122.1
26120.9
26119.7
26118.4
26116.9
26115.4
26113.8
26112.1
26110.3
26108.4
26106.3
26104.1
26101.9
26099.4
26096.9
26094.2
26091.4
26088.5
26085.4
26082.2
26078.8
26075.2
26071.5
26067.6
26063.6
26059.4
26055
26050.5
26045.7
26040.8
26035.6
26030.3
26024.8
26019.1
26013.1
26007
26000.6
25994
25987.2
25980.1
25972.8
25965.3
25957.5
25949.5
25941.2
25932.7
25923.9
25914.9
25905.5
25895.9
25886.1
25875.9
25865.5
25854.8
25843.8
25832.5
25820.9
25809
25796.7
25784.2
25771.4
25758.2
25744.8
25731
25716.9
25702.5
25687.7
25672.6
25657.2
25641.5
25625.4
25609
25592.2
25575.2
25557.7
25540
25521.9
25503.4
25484.6
25465.5
25446
25426.2
25406.1
25385.6
25364.8
25343.6
25322.1
25300.3
25278.2
25255.7
25232.9
25209.8
25186.4
25162.7
25138.7
25114.4
25089.7
25064.8
25039.6
25014.2
24988.4
24962.4
24936.2
24909.6
24882.9
24855.9
24828.7
24801.2
24773.6
24745.7
24717.7
24689.5
24661.1
24632.5
24603.8
24575
24546
24516.9
24487.8
24458.5
24429.1
24399.7
24370.2
24340.7
24311.1
24281.6
24252
24222.4
24192.9
24163.4
24134
24104.6
24075.3
24046.1
24017
23988.1
23959.2
23930.6
23902.1
23873.7
23845.6
23817.7
23790
23762.5
23735.3
23708.4
23681.7
23655.4
23629.3
23603.5
23578.1
23553
23528.3
23503.9
23479.9
23456.3
23433.1
23410.3
23387.9
23365.9
23344.3
23323.2
23302.6
23282.4
23262.6
23243.3
23224.5
23206.2
23188.4
23171
23154.1
23137.8
23121.9
23106.5
23091.6
23077.3
23063.4
23050.1
23037.2
23024.9
23013
23001.7
22990.8
22980.5
22970.7
22961.3
22952.5
22944.2
22936.3
22929
22922.1
22915.7
22909.8
22904.3
22899.4
22894.9
22890.8
22887.2
22884.1
22881.4
22879.2
22877.4
22876.1
22875.2
22874.7
22874.6
22874.9
22875.7
22876.8
22878.4
22880.3
22882.6
22885.3
22888.4
22891.8
22895.5
22899.7
22904.1
22908.9
22914
22919.4
22925.1
22931
22937.3
22943.8
22950.6
22957.6
22964.9
22972.3
22980
22987.9
22995.9
23004.1
23012.5
23021
23029.6
23038.3
23047.2
23056.1
23065.1
23074.2
23083.2
23092.4
23101.5
23110.6
23119.7
23128.8
23137.8
23146.8
23155.7
23164.5
23173.2
23181.8
23190.2
23198.5
23206.7
23214.7
23222.5
23230.1
23237.5
23244.7
23251.7
23258.4
23264.9
23271.1
23277
23282.7
23288.1
23293.2
23298
23302.5
23306.6
23310.4
23313.9
23317.1
23319.9
23322.4
23324.6
23326.4
23327.8
23328.9
23329.6
23329.9
25663
25663.1
25663.1
25663.1
25663.2
25663.3
25663.4
25663.5
25663.7
25663.8
25664
25664.1
25664.3
25664.6
25664.8
25665
25665.3
25665.5
25665.8
25666.1
25666.4
25666.7
25667
25667.3
25667.6
25667.9
25668.2
25668.6
25668.9
25669.2
25669.6
25669.9
25670.2
25670.5
25670.9
25671.2
25671.5
25671.8
25672
25672.3
25672.5
25672.8
25673
25673.2
25673.3
25673.5
25673.6
25673.7
25673.8
25673.8
25673.8
25673.7
25673.6
25673.5
25673.3
25673.1
25672.8
25672.5
25672.2
25671.7
25671.2
25670.7
25670.1
25669.4
25668.6
25667.8
25666.9
25665.9
25664.9
25663.7
25662.5
25661.1
25659.7
25658.2
25656.5
25654.8
25653
25651
25648.9
25646.7
25644.4
25642
25639.4
25636.7
25633.8
25630.9
25627.7
25624.4
25621
25617.4
25613.6
25609.7
25605.6
25601.3
25596.8
25592.2
25587.4
25582.3
25577.1
25571.7
25566.1
25560.2
25554.2
25547.9
25541.4
25534.7
25527.8
25520.6
25513.2
25505.5
25497.6
25489.4
25481
25472.3
25463.4
25454.1
25444.6
25434.9
25424.8
25414.5
25403.8
25392.9
25381.7
25370.2
25358.4
25346.2
25333.8
25321
25308
25294.6
25280.9
25266.8
25252.5
25237.8
25222.7
25207.4
25191.7
25175.6
25159.2
25142.5
25125.4
25108
25090.3
25072.2
25053.7
25034.9
25015.8
24996.3
24976.5
24956.3
24935.8
24914.9
24893.7
24872.2
24850.3
24828.1
24805.6
24782.7
24759.5
24736
24712.2
24688
24663.6
24638.8
24613.8
24588.4
24562.8
24536.9
24510.7
24484.3
24457.6
24430.6
24403.4
24376
24348.3
24320.4
24292.4
24264.1
24235.6
24207
24178.1
24149.2
24120
24090.8
24061.4
24031.9
24002.3
23972.6
23942.9
23913.1
23883.2
23853.3
23823.4
23793.5
23763.6
23733.7
23703.9
23674.1
23644.3
23614.7
23585.1
23555.6
23526.3
23497.1
23468.1
23439.2
23410.5
23382
23353.7
23325.7
23297.9
23270.3
23243
23216
23189.3
23162.9
23136.8
23111
23085.6
23060.6
23035.9
23011.6
22987.7
22964.2
22941.1
22918.4
22896.2
22874.4
22853.1
22832.2
22811.8
22791.8
22772.4
22753.4
22734.9
22716.9
22699.4