/*--------------------------------*- C++ -*----------------------------------*\
| =========                 |                                                 |
| \\      /  F ield         | OpenFOAM: The Open Source CFD Toolbox           |
|  \\    /   O peration     | Version:  v2006                                 |
|   \\  /    A nd           | Website:  www.openfoam.com                      |
|    \\/     M anipulation  |                                                 |
\*---------------------------------------------------------------------------*/
FoamFile
{
    version     2.0;
    format      ascii;
    class       volScalarField;
    location    "1.1";
    object      p_rgh;
}
// * * * * * * * * * * * * * * * * * * * * * * * * * * * * * * * * * * * * * //

dimensions      [1 -1 -2 0 0 0 0];


internalField   nonuniform List<scalar> 
52500
(
1044.48
1044.49
1044.52
1044.55
1044.6
1044.65
1044.72
1044.8
1044.89
1044.99
1045.09
1045.21
1045.34
1045.47
1045.62
1045.76
1045.92
1046.08
1046.25
1046.42
1046.59
1046.77
1046.95
1047.13
1047.31
1047.49
1047.66
1047.84
1048.01
1048.17
1048.32
1048.47
1048.61
1048.74
1048.85
1048.95
1049.04
1049.1
1049.15
1049.18
1049.19
1049.17
1049.13
1049.06
1048.96
1048.83
1048.67
1048.47
1048.23
1047.96
1047.64
1047.28
1046.87
1046.42
1045.91
1045.35
1044.73
1044.06
1043.32
1042.52
1041.65
1040.72
1039.71
1038.63
1037.47
1036.23
1034.91
1033.5
1032
1030.41
1028.72
1026.94
1025.05
1023.05
1020.95
1018.74
1016.41
1013.96
1011.39
1008.69
1005.86
1002.9
999.805
996.568
993.187
989.658
985.978
982.143
978.148
973.99
969.666
965.171
960.502
955.654
950.624
945.407
940.001
934.4
928.601
922.601
916.394
909.978
903.347
896.499
889.43
882.135
874.611
866.853
858.859
850.624
842.144
833.417
824.437
815.203
805.709
795.953
785.931
775.64
765.077
754.237
743.12
731.72
720.035
708.063
695.801
683.246
670.395
657.247
643.798
630.047
615.991
601.63
586.96
571.982
556.692
541.09
525.175
508.946
492.402
475.542
458.367
440.876
423.07
404.947
386.51
367.758
348.693
329.316
309.628
289.631
269.326
248.716
227.803
206.59
185.079
163.274
141.177
118.793
96.1262
73.1797
49.9585
26.4672
2.7108
-21.3053
-45.5756
-70.0943
-94.8551
-119.852
-145.078
-170.526
-196.189
-222.06
-248.13
-274.392
-300.838
-327.459
-354.246
-381.19
-408.283
-435.514
-462.874
-490.353
-517.94
-545.626
-573.398
-601.244
-629.149
-657.103
-685.107
-713.17
-741.275
-769.368
-797.446
-825.503
-853.528
-881.51
-909.437
-937.299
-965.082
-992.774
-1020.36
-1047.84
-1075.19
-1102.4
-1129.45
-1156.34
-1183.06
-1209.59
-1235.91
-1262.03
-1287.92
-1313.57
-1338.98
-1364.13
-1389.01
-1413.61
-1437.91
-1461.92
-1485.62
-1508.99
-1532.04
-1554.74
-1577.1
-1599.1
-1620.73
-1641.99
-1662.86
-1683.35
-1703.45
-1723.14
-1742.42
-1761.28
-1779.73
-1797.75
-1815.34
-1832.5
-1849.22
-1865.49
-1881.32
-1896.7
-1911.63
-1926.11
-1940.13
-1953.7
-1966.81
-1979.46
-1991.65
-2003.38
-2014.65
-2025.46
-2035.81
-2045.71
-2055.15
-2064.13
-2072.66
-2080.74
-2088.37
-2095.55
-2102.28
-2108.58
-2114.44
-2119.86
-2124.85
-2129.41
-2133.55
-2137.26
-2140.56
-2143.45
-2145.94
-2148.02
-2149.7
-2150.99
-2151.89
-2152.42
-2152.57
-2152.35
-2151.77
-2150.83
-2149.55
-2147.92
-2145.96
-2143.67
-2141.06
-2138.14
-2134.92
-2131.4
-2127.6
-2123.52
-2119.18
-2114.57
-2109.72
-2104.63
-2099.31
-2093.77
-2088.03
-2082.09
-2075.96
-2069.66
-2063.2
-2056.58
-2049.83
-2042.94
-2035.95
-2028.84
-2021.65
-2014.37
-2007.03
-1999.63
-1992.19
-1984.72
-1977.24
-1969.74
-1962.26
-1954.79
-1947.36
-1939.96
-1932.63
-1925.36
-1918.17
-1911.08
-1904.08
-1897.2
-1890.45
-1883.83
-1877.35
-1871.04
-1864.89
-1858.92
-1853.14
-1847.55
-1842.17
-1837
-1832.05
-1827.33
-1822.85
-1818.62
-1814.63
-1810.91
-1807.44
-1804.25
-1801.33
-1798.69
-1796.33
-1794.25
-1792.47
-1790.98
-1789.79
-1788.89
-1788.29
-1787.99
1044.43
1044.44
1044.46
1044.5
1044.54
1044.6
1044.67
1044.75
1044.84
1044.94
1045.05
1045.17
1045.29
1045.43
1045.57
1045.72
1045.88
1046.05
1046.21
1046.39
1046.56
1046.74
1046.93
1047.11
1047.29
1047.47
1047.65
1047.83
1048
1048.17
1048.33
1048.48
1048.62
1048.75
1048.87
1048.97
1049.06
1049.13
1049.19
1049.22
1049.24
1049.22
1049.19
1049.12
1049.03
1048.9
1048.75
1048.55
1048.32
1048.05
1047.74
1047.39
1046.99
1046.54
1046.04
1045.48
1044.87
1044.21
1043.48
1042.68
1041.83
1040.9
1039.9
1038.83
1037.67
1036.44
1035.13
1033.73
1032.24
1030.65
1028.98
1027.2
1025.32
1023.33
1021.24
1019.04
1016.72
1014.28
1011.71
1009.03
1006.21
1003.26
1000.17
996.947
993.576
990.058
986.388
982.562
978.578
974.431
970.117
965.633
960.974
956.136
951.117
945.911
940.515
934.925
929.136
923.146
916.95
910.544
903.924
897.086
890.027
882.742
875.227
867.48
859.495
851.269
842.799
834.081
825.11
815.884
806.399
796.652
786.638
776.355
765.799
754.967
743.856
732.463
720.785
708.819
696.563
684.013
671.167
658.023
644.578
630.831
616.779
602.42
587.753
572.776
557.488
541.886
525.972
509.742
493.197
476.337
459.16
441.666
423.856
405.73
387.288
368.532
349.461
330.077
310.381
290.375
270.061
249.441
228.517
207.292
185.768
163.949
141.838
119.439
96.7558
73.7924
50.5534
27.0434
3.26754
-20.7689
-45.0604
-69.6011
-94.3849
-119.405
-144.656
-170.129
-195.819
-221.717
-247.815
-274.106
-300.582
-327.234
-354.052
-381.029
-408.154
-435.419
-462.814
-490.327
-517.95
-545.671
-573.482
-601.372
-629.298
-657.292
-685.325
-713.366
-741.407
-769.478
-797.555
-825.622
-853.666
-881.672
-909.627
-937.519
-965.335
-993.061
-1020.69
-1048.2
-1075.58
-1102.82
-1129.91
-1156.84
-1183.59
-1210.15
-1236.51
-1262.66
-1288.58
-1314.27
-1339.71
-1364.89
-1389.81
-1414.44
-1438.78
-1462.82
-1486.54
-1509.95
-1533.02
-1555.75
-1578.14
-1600.16
-1621.82
-1643.1
-1664
-1684.51
-1704.63
-1724.34
-1743.64
-1762.53
-1780.99
-1799.03
-1816.64
-1833.81
-1850.54
-1866.83
-1882.67
-1898.06
-1913
-1927.49
-1941.52
-1955.09
-1968.21
-1980.86
-1993.05
-2004.79
-2016.06
-2026.87
-2037.22
-2047.12
-2056.55
-2065.53
-2074.06
-2082.13
-2089.76
-2096.93
-2103.66
-2109.95
-2115.8
-2121.21
-2126.19
-2130.74
-2134.86
-2138.57
-2141.85
-2144.73
-2147.19
-2149.26
-2150.92
-2152.2
-2153.09
-2153.59
-2153.72
-2153.48
-2152.88
-2151.92
-2150.61
-2148.96
-2146.97
-2144.66
-2142.03
-2139.08
-2135.83
-2132.29
-2128.46
-2124.35
-2119.98
-2115.34
-2110.46
-2105.34
-2099.98
-2094.42
-2088.64
-2082.66
-2076.51
-2070.17
-2063.67
-2057.02
-2050.23
-2043.32
-2036.28
-2029.14
-2021.91
-2014.6
-2007.22
-1999.79
-1992.32
-1984.81
-1977.29
-1969.76
-1962.24
-1954.74
-1947.27
-1939.84
-1932.47
-1925.17
-1917.95
-1910.82
-1903.8
-1896.88
-1890.1
-1883.45
-1876.95
-1870.61
-1864.43
-1858.43
-1852.62
-1847.01
-1841.61
-1836.41
-1831.45
-1826.71
-1822.21
-1817.95
-1813.95
-1810.21
-1806.73
-1803.52
-1800.59
-1797.93
-1795.56
-1793.48
-1791.69
-1790.2
-1789
-1788.1
-1787.49
-1787.19
1044.26
1044.27
1044.3
1044.33
1044.38
1044.44
1044.51
1044.59
1044.68
1044.78
1044.89
1045.01
1045.14
1045.28
1045.43
1045.58
1045.74
1045.91
1046.08
1046.26
1046.44
1046.62
1046.81
1047
1047.19
1047.37
1047.56
1047.74
1047.92
1048.09
1048.25
1048.41
1048.56
1048.7
1048.82
1048.93
1049.03
1049.11
1049.17
1049.22
1049.24
1049.23
1049.21
1049.15
1049.07
1048.95
1048.8
1048.62
1048.4
1048.14
1047.84
1047.5
1047.11
1046.67
1046.18
1045.64
1045.04
1044.39
1043.67
1042.89
1042.05
1041.13
1040.15
1039.09
1037.95
1036.73
1035.43
1034.05
1032.57
1031
1029.34
1027.58
1025.72
1023.75
1021.67
1019.48
1017.18
1014.76
1012.21
1009.54
1006.75
1003.81
1000.75
997.537
994.185
990.685
987.034
983.228
979.263
975.135
970.841
966.376
961.737
956.92
951.92
946.734
941.358
935.789
930.021
924.051
917.875
911.49
904.89
898.073
891.034
883.77
876.276
868.548
860.584
852.379
843.928
835.23
826.279
817.073
807.607
797.879
787.884
777.619
767.082
756.268
745.175
733.799
722.138
710.189
697.948
685.414
672.583
659.454
646.023
632.29
618.25
603.904
589.248
574.282
559.004
543.412
527.506
511.285
494.747
477.892
460.72
443.231
425.424
407.3
388.859
370.103
351.031
331.645
311.946
291.936
271.616
250.99
230.058
208.824
187.291
165.461
143.339
120.927
98.229
75.2501
51.9944
28.4665
4.67152
-19.3853
-43.6985
-68.2621
-93.07
-118.116
-143.393
-168.894
-194.612
-220.54
-246.67
-272.993
-299.502
-326.187
-353.041
-380.053
-407.215
-434.517
-461.951
-489.506
-517.173
-544.944
-572.807
-600.752
-628.77
-656.831
-684.937
-713.08
-741.245
-769.419
-797.589
-825.744
-853.869
-881.952
-909.982
-937.947
-965.834
-993.631
-1021.33
-1048.91
-1076.36
-1103.67
-1130.83
-1157.83
-1184.65
-1211.28
-1237.71
-1263.93
-1289.92
-1315.68
-1341.18
-1366.43
-1391.41
-1416.1
-1440.5
-1464.6
-1488.39
-1511.85
-1534.99
-1557.77
-1580.21
-1602.29
-1624
-1645.33
-1666.28
-1686.84
-1707
-1726.75
-1746.09
-1765.02
-1783.52
-1801.59
-1819.23
-1836.43
-1853.19
-1869.51
-1885.37
-1900.79
-1915.75
-1930.25
-1944.3
-1957.88
-1971.01
-1983.67
-1995.87
-2007.61
-2018.89
-2029.7
-2040.05
-2049.94
-2059.37
-2068.35
-2076.87
-2084.93
-2092.54
-2099.7
-2106.42
-2112.69
-2118.52
-2123.91
-2128.87
-2133.4
-2137.5
-2141.17
-2144.43
-2147.28
-2149.72
-2151.75
-2153.38
-2154.62
-2155.47
-2155.94
-2156.03
-2155.75
-2155.1
-2154.1
-2152.74
-2151.05
-2149.01
-2146.65
-2143.96
-2140.97
-2137.66
-2134.07
-2130.18
-2126.01
-2121.58
-2116.88
-2111.94
-2106.75
-2101.34
-2095.71
-2089.86
-2083.82
-2077.6
-2071.19
-2064.63
-2057.91
-2051.05
-2044.06
-2036.95
-2029.75
-2022.44
-2015.06
-2007.61
-2000.11
-1992.56
-1984.98
-1977.39
-1969.79
-1962.2
-1954.63
-1947.09
-1939.6
-1932.16
-1924.79
-1917.5
-1910.31
-1903.22
-1896.25
-1889.4
-1882.69
-1876.13
-1869.73
-1863.51
-1857.46
-1851.6
-1845.93
-1840.48
-1835.24
-1830.23
-1825.45
-1820.91
-1816.62
-1812.59
-1808.81
-1805.3
-1802.07
-1799.11
-1796.43
-1794.04
-1791.94
-1790.14
-1788.63
-1787.42
-1786.51
-1785.9
-1785.6
1044.02
1044.03
1044.06
1044.09
1044.14
1044.2
1044.27
1044.35
1044.45
1044.55
1044.67
1044.79
1044.92
1045.07
1045.22
1045.38
1045.54
1045.71
1045.89
1046.08
1046.26
1046.45
1046.65
1046.84
1047.04
1047.23
1047.42
1047.61
1047.8
1047.98
1048.16
1048.33
1048.48
1048.63
1048.77
1048.89
1049
1049.09
1049.17
1049.22
1049.26
1049.27
1049.25
1049.21
1049.14
1049.04
1048.91
1048.74
1048.54
1048.3
1048.02
1047.69
1047.32
1046.9
1046.43
1045.9
1045.33
1044.69
1043.99
1043.23
1042.41
1041.52
1040.55
1039.52
1038.4
1037.21
1035.93
1034.57
1033.12
1031.57
1029.93
1028.2
1026.36
1024.42
1022.37
1020.2
1017.93
1015.53
1013.01
1010.37
1007.6
1004.7
1001.66
998.478
995.155
991.685
988.063
984.287
980.352
976.255
971.991
967.557
962.949
958.162
953.194
948.04
942.695
937.157
931.421
925.482
919.338
912.984
906.416
899.631
892.623
885.39
877.927
870.231
862.298
854.123
845.703
837.035
828.114
818.937
809.5
799.801
789.834
779.597
769.087
758.3
747.233
735.882
724.246
712.321
700.103
687.591
674.782
661.673
648.263
634.547
620.526
606.196
591.556
576.604
561.338
545.758
529.862
513.65
497.119
480.27
463.103
445.617
427.811
409.687
391.244
372.484
353.406
334.013
314.304
294.283
273.95
253.308
232.359
211.106
189.55
167.696
145.547
123.106
100.376
77.3634
54.0711
30.504
6.66725
-17.434
-41.7943
-66.4077
-91.2681
-116.369
-141.704
-167.267
-193.049
-219.044
-245.243
-271.639
-298.224
-324.988
-351.924
-379.022
-406.272
-433.666
-461.193
-488.843
-516.606
-544.472
-572.435
-600.491
-628.525
-656.648
-684.827
-713.042
-741.278
-769.527
-797.776
-826.014
-854.227
-882.405
-910.532
-938.597
-966.586
-994.487
-1022.29
-1049.97
-1077.53
-1104.95
-1132.22
-1159.32
-1186.24
-1212.98
-1239.51
-1265.83
-1291.93
-1317.78
-1343.39
-1368.74
-1393.81
-1418.6
-1443.1
-1467.29
-1491.17
-1514.72
-1537.94
-1560.81
-1583.33
-1605.49
-1627.28
-1648.69
-1669.71
-1690.33
-1710.56
-1730.38
-1749.78
-1768.76
-1787.31
-1805.44
-1823.13
-1840.37
-1857.18
-1873.53
-1889.43
-1904.88
-1919.87
-1934.4
-1948.47
-1962.07
-1975.22
-1987.89
-2000.1
-2011.85
-2023.13
-2033.95
-2044.3
-2054.19
-2063.61
-2072.58
-2081.08
-2089.13
-2096.73
-2103.87
-2110.56
-2116.81
-2122.61
-2127.97
-2132.9
-2137.39
-2141.46
-2145.09
-2148.31
-2151.11
-2153.5
-2155.49
-2157.07
-2158.26
-2159.05
-2159.46
-2159.49
-2159.15
-2158.44
-2157.37
-2155.95
-2154.18
-2152.08
-2149.64
-2146.88
-2143.8
-2140.42
-2136.73
-2132.76
-2128.51
-2123.99
-2119.2
-2114.16
-2108.89
-2103.38
-2097.64
-2091.7
-2085.56
-2079.24
-2072.73
-2066.06
-2059.24
-2052.27
-2045.18
-2037.97
-2030.65
-2023.24
-2015.75
-2008.19
-2000.58
-1992.93
-1985.24
-1977.54
-1969.84
-1962.14
-1954.46
-1946.82
-1939.22
-1931.69
-1924.22
-1916.83
-1909.54
-1902.36
-1895.29
-1888.35
-1881.56
-1874.91
-1868.42
-1862.11
-1855.98
-1850.05
-1844.31
-1838.79
-1833.48
-1828.4
-1823.56
-1818.96
-1814.62
-1810.53
-1806.7
-1803.15
-1799.87
-1796.87
-1794.16
-1791.74
-1789.62
-1787.79
-1786.26
-1785.04
-1784.11
-1783.5
-1783.19
1043.69
1043.71
1043.73
1043.77
1043.82
1043.88
1043.95
1044.04
1044.14
1044.24
1044.36
1044.49
1044.63
1044.78
1044.94
1045.1
1045.27
1045.45
1045.64
1045.83
1046.03
1046.23
1046.43
1046.63
1046.84
1047.04
1047.25
1047.45
1047.65
1047.84
1048.03
1048.21
1048.38
1048.54
1048.7
1048.83
1048.96
1049.07
1049.16
1049.23
1049.28
1049.31
1049.32
1049.29
1049.24
1049.16
1049.05
1048.91
1048.72
1048.5
1048.24
1047.94
1047.59
1047.19
1046.75
1046.25
1045.7
1045.09
1044.42
1043.69
1042.89
1042.02
1041.09
1040.08
1038.99
1037.83
1036.58
1035.25
1033.83
1032.32
1030.71
1029.01
1027.21
1025.3
1023.28
1021.15
1018.91
1016.55
1014.07
1011.46
1008.73
1005.86
1002.86
999.72
996.435
993.004
989.421
985.684
981.789
977.732
973.508
969.115
964.547
959.802
954.874
949.761
944.458
938.962
933.267
927.37
921.268
914.956
908.43
901.686
894.72
887.528
880.107
872.451
864.559
856.425
848.045
839.417
830.536
821.398
812
802.338
792.409
782.209
771.735
760.984
749.951
738.635
727.032
715.138
702.952
690.47
677.69
664.609
651.225
637.535
623.538
609.23
594.611
579.679
564.432
548.868
532.987
516.787
500.268
483.429
466.268
448.787
430.985
412.862
394.418
375.654
356.57
337.169
317.45
297.415
277.067
256.407
235.437
214.16
192.578
170.695
148.514
126.038
103.272
80.2185
56.8831
33.2701
9.38451
-14.7685
-39.1833
-63.8541
-88.7748
-113.939
-139.34
-164.971
-190.824
-216.892
-243.167
-269.642
-296.306
-323.152
-350.171
-377.354
-404.69
-432.17
-459.784
-487.522
-515.372
-543.326
-571.368
-599.479
-627.744
-656.039
-684.371
-712.736
-741.124
-769.523
-797.921
-826.305
-854.663
-882.983
-911.251
-939.457
-967.586
-995.627
-1023.57
-1051.39
-1079.09
-1106.65
-1134.06
-1161.3
-1188.37
-1215.25
-1241.92
-1268.38
-1294.61
-1320.6
-1346.34
-1371.82
-1397.03
-1421.95
-1446.57
-1470.89
-1494.89
-1518.56
-1541.89
-1564.88
-1587.51
-1609.77
-1631.66
-1653.17
-1674.29
-1695.01
-1715.32
-1735.22
-1754.71
-1773.76
-1792.39
-1810.59
-1828.34
-1845.65
-1862.5
-1878.91
-1894.86
-1910.35
-1925.38
-1939.95
-1954.05
-1967.68
-1980.84
-1993.54
-2005.76
-2017.52
-2028.81
-2039.63
-2049.98
-2059.86
-2069.28
-2078.23
-2086.72
-2094.75
-2102.32
-2109.44
-2116.1
-2122.31
-2128.08
-2133.4
-2138.28
-2142.73
-2146.75
-2150.33
-2153.49
-2156.24
-2158.57
-2160.49
-2162
-2163.12
-2163.84
-2164.17
-2164.12
-2163.7
-2162.9
-2161.75
-2160.23
-2158.37
-2156.17
-2153.63
-2150.77
-2147.59
-2144.09
-2140.3
-2136.22
-2131.85
-2127.21
-2122.3
-2117.14
-2111.74
-2106.1
-2100.24
-2094.16
-2087.89
-2081.43
-2074.79
-2067.98
-2061.01
-2053.91
-2046.67
-2039.32
-2031.86
-2024.3
-2016.67
-2008.97
-2001.21
-1993.41
-1985.59
-1977.74
-1969.89
-1962.06
-1954.24
-1946.46
-1938.72
-1931.05
-1923.45
-1915.93
-1908.51
-1901.2
-1894
-1886.94
-1880.03
-1873.26
-1866.67
-1860.24
-1854.01
-1847.97
-1842.13
-1836.51
-1831.12
-1825.95
-1821.03
-1816.35
-1811.93
-1807.77
-1803.88
-1800.27
-1796.93
-1793.88
-1791.13
-1788.67
-1786.5
-1784.65
-1783.09
-1781.84
-1780.91
-1780.28
-1779.97
1043.29
1043.3
1043.32
1043.36
1043.42
1043.48
1043.56
1043.65
1043.75
1043.86
1043.98
1044.12
1044.26
1044.42
1044.58
1044.76
1044.94
1045.12
1045.32
1045.52
1045.73
1045.94
1046.15
1046.37
1046.59
1046.8
1047.02
1047.24
1047.45
1047.66
1047.86
1048.06
1048.25
1048.43
1048.6
1048.76
1048.9
1049.03
1049.14
1049.24
1049.31
1049.36
1049.39
1049.39
1049.37
1049.31
1049.22
1049.1
1048.95
1048.76
1048.52
1048.25
1047.93
1047.56
1047.15
1046.68
1046.16
1045.58
1044.94
1044.25
1043.48
1042.65
1041.75
1040.78
1039.73
1038.6
1037.4
1036.1
1034.72
1033.25
1031.69
1030.02
1028.26
1026.39
1024.42
1022.34
1020.14
1017.82
1015.39
1012.83
1010.14
1007.32
1004.36
1001.27
998.034
994.651
991.118
987.43
983.585
979.578
975.405
971.062
966.546
961.852
956.976
951.915
946.664
941.219
935.577
929.733
923.683
917.423
910.949
904.257
897.344
890.204
882.835
875.231
867.39
859.307
850.979
842.4
833.569
824.48
815.131
805.517
795.636
785.482
775.054
764.347
753.359
742.085
730.523
718.671
706.524
694.08
681.336
668.29
654.94
641.282
627.315
613.036
598.443
583.536
568.311
552.768
536.906
520.722
504.217
487.389
470.238
452.763
434.965
416.843
398.397
379.629
360.538
341.126
321.393
301.342
280.974
260.29
239.294
217.986
196.371
174.451
152.229
129.709
106.894
83.7892
60.3981
36.7255
12.7764
-11.4441
-35.9303
-60.6765
-85.6766
-110.924
-136.413
-162.135
-188.084
-214.253
-240.632
-267.215
-293.992
-320.956
-348.097
-375.407
-402.875
-430.493
-458.249
-486.135
-514.139
-542.248
-570.453
-598.742
-627.093
-655.517
-683.993
-712.507
-741.046
-769.599
-798.155
-826.7
-855.224
-883.712
-912.152
-940.531
-968.835
-997.053
-1025.17
-1053.17
-1081.05
-1108.79
-1136.37
-1163.79
-1191.04
-1218.09
-1244.93
-1271.57
-1297.97
-1324.13
-1350.04
-1375.69
-1401.06
-1426.14
-1450.92
-1475.39
-1499.55
-1523.37
-1546.85
-1569.97
-1592.74
-1615.14
-1637.16
-1658.8
-1680.03
-1700.87
-1721.3
-1741.3
-1760.89
-1780.04
-1798.77
-1817.04
-1834.88
-1852.26
-1869.19
-1885.66
-1901.67
-1917.22
-1932.3
-1946.9
-1961.04
-1974.71
-1987.9
-2000.62
-2012.86
-2024.63
-2035.93
-2046.75
-2057.1
-2066.97
-2076.38
-2085.32
-2093.79
-2101.79
-2109.33
-2116.42
-2123.04
-2129.21
-2134.93
-2140.21
-2145.04
-2149.43
-2153.38
-2156.9
-2159.99
-2162.66
-2164.92
-2166.75
-2168.18
-2169.21
-2169.84
-2170.08
-2169.93
-2169.4
-2168.5
-2167.24
-2165.61
-2163.63
-2161.31
-2158.64
-2155.65
-2152.34
-2148.71
-2144.78
-2140.55
-2136.04
-2131.25
-2126.19
-2120.87
-2115.31
-2109.51
-2103.49
-2097.25
-2090.81
-2084.18
-2077.36
-2070.38
-2063.24
-2055.96
-2048.55
-2041.01
-2033.37
-2025.64
-2017.82
-2009.94
-2002
-1994.02
-1986.01
-1977.99
-1969.96
-1961.95
-1953.95
-1946
-1938.09
-1930.24
-1922.47
-1914.79
-1907.21
-1899.73
-1892.38
-1885.17
-1878.1
-1871.19
-1864.45
-1857.89
-1851.52
-1845.35
-1839.39
-1833.65
-1828.14
-1822.86
-1817.84
-1813.06
-1808.54
-1804.3
-1800.33
-1796.64
-1793.23
-1790.12
-1787.31
-1784.79
-1782.59
-1780.69
-1779.1
-1777.83
-1776.87
-1776.23
-1775.91
1042.79
1042.81
1042.83
1042.87
1042.93
1043
1043.08
1043.17
1043.28
1043.39
1043.52
1043.67
1043.82
1043.98
1044.15
1044.34
1044.53
1044.73
1044.93
1045.15
1045.37
1045.59
1045.82
1046.05
1046.28
1046.51
1046.75
1046.98
1047.21
1047.44
1047.66
1047.88
1048.09
1048.29
1048.49
1048.67
1048.83
1048.99
1049.12
1049.24
1049.34
1049.42
1049.47
1049.5
1049.51
1049.48
1049.43
1049.34
1049.21
1049.05
1048.86
1048.61
1048.33
1048
1047.62
1047.19
1046.71
1046.17
1045.57
1044.91
1044.19
1043.41
1042.55
1041.62
1040.61
1039.53
1038.37
1037.12
1035.79
1034.37
1032.85
1031.24
1029.52
1027.71
1025.79
1023.75
1021.61
1019.35
1016.97
1014.46
1011.83
1009.06
1006.17
1003.13
999.951
996.626
993.152
989.523
985.738
981.791
977.679
973.397
968.942
964.31
959.496
954.497
949.309
943.927
938.348
932.567
926.58
920.383
913.972
907.344
900.493
893.416
886.11
878.568
870.789
862.768
854.5
845.983
837.211
828.182
818.891
809.335
799.511
789.413
779.04
768.387
757.452
746.23
734.719
722.915
710.815
698.417
685.718
672.715
659.405
645.785
631.855
617.611
603.051
588.173
572.976
557.459
541.619
525.455
508.967
492.153
475.013
457.547
439.754
421.633
403.186
384.413
365.313
345.889
326.141
306.07
285.678
264.967
243.939
222.597
200.942
178.978
156.707
134.135
111.263
88.0961
64.6389
40.8956
16.8713
-7.42905
-31.9998
-56.8352
-81.9293
-107.276
-132.867
-158.698
-184.759
-211.045
-237.546
-264.255
-291.163
-318.262
-345.542
-372.995
-400.609
-428.376
-456.285
-484.324
-512.483
-540.751
-569.113
-597.553
-626.131
-654.757
-683.431
-712.144
-740.885
-769.642
-798.402
-827.154
-855.884
-884.579
-913.228
-941.817
-970.333
-998.763
-1027.09
-1055.31
-1083.4
-1111.35
-1139.15
-1166.79
-1194.24
-1221.51
-1248.56
-1275.41
-1302.02
-1328.39
-1354.5
-1380.35
-1405.91
-1431.19
-1456.16
-1480.82
-1505.16
-1529.16
-1552.82
-1576.12
-1599.05
-1621.61
-1643.79
-1665.58
-1686.96
-1707.94
-1728.5
-1748.64
-1768.34
-1787.62
-1806.45
-1824.83
-1842.76
-1860.24
-1877.25
-1893.8
-1909.88
-1925.49
-1940.63
-1955.29
-1969.48
-1983.18
-1996.41
-2009.16
-2021.42
-2033.2
-2044.51
-2055.33
-2065.68
-2075.55
-2084.94
-2093.86
-2102.3
-2110.28
-2117.78
-2124.83
-2131.41
-2137.53
-2143.19
-2148.41
-2153.17
-2157.49
-2161.37
-2164.81
-2167.82
-2170.4
-2172.56
-2174.31
-2175.63
-2176.56
-2177.07
-2177.2
-2176.93
-2176.28
-2175.25
-2173.85
-2172.09
-2169.97
-2167.49
-2164.68
-2161.53
-2158.06
-2154.27
-2150.17
-2145.77
-2141.08
-2136.12
-2130.87
-2125.37
-2119.62
-2113.63
-2107.41
-2100.97
-2094.33
-2087.49
-2080.47
-2073.28
-2065.93
-2058.43
-2050.8
-2043.05
-2035.19
-2027.24
-2019.21
-2011.11
-2002.95
-1994.75
-1986.53
-1978.28
-1970.04
-1961.81
-1953.6
-1945.44
-1937.32
-1929.27
-1921.29
-1913.41
-1905.63
-1897.96
-1890.42
-1883.02
-1875.77
-1868.68
-1861.77
-1855.04
-1848.51
-1842.19
-1836.07
-1830.19
-1824.54
-1819.13
-1813.97
-1809.08
-1804.45
-1800.1
-1796.03
-1792.25
-1788.76
-1785.57
-1782.68
-1780.11
-1777.85
-1775.9
-1774.27
-1772.97
-1771.99
-1771.34
-1771.01
1042.21
1042.23
1042.26
1042.3
1042.36
1042.43
1042.51
1042.61
1042.72
1042.85
1042.99
1043.14
1043.3
1043.47
1043.65
1043.85
1044.05
1044.26
1044.48
1044.71
1044.94
1045.18
1045.42
1045.67
1045.92
1046.17
1046.43
1046.68
1046.93
1047.18
1047.43
1047.67
1047.9
1048.13
1048.35
1048.55
1048.75
1048.93
1049.09
1049.24
1049.37
1049.48
1049.57
1049.63
1049.67
1049.68
1049.66
1049.61
1049.52
1049.4
1049.24
1049.04
1048.79
1048.51
1048.17
1047.78
1047.35
1046.85
1046.3
1045.69
1045.02
1044.28
1043.47
1042.59
1041.64
1040.61
1039.5
1038.31
1037.03
1035.66
1034.2
1032.65
1030.99
1029.24
1027.37
1025.4
1023.32
1021.12
1018.8
1016.36
1013.79
1011.1
1008.26
1005.29
1002.18
998.926
995.52
991.962
988.246
984.369
980.328
976.118
971.735
967.175
962.434
957.508
952.393
947.084
941.579
935.871
929.958
923.836
917.499
910.944
904.167
897.164
889.931
882.462
874.756
866.806
858.611
850.164
841.463
832.504
823.282
813.794
804.036
794.005
783.696
773.107
762.234
751.073
739.621
727.874
715.831
703.487
690.84
677.886
664.624
651.051
637.164
622.96
608.439
593.597
578.433
562.945
547.132
530.993
514.525
497.729
480.603
463.146
445.36
427.242
408.794
390.015
370.906
351.468
331.702
311.609
291.19
270.448
249.384
228
206.299
184.284
161.957
139.323
116.385
93.1469
69.6127
45.787
21.6748
-2.71875
-27.3883
-52.3281
-77.532
-102.994
-128.707
-154.664
-180.858
-207.281
-233.926
-260.784
-287.846
-315.105
-342.55
-370.173
-397.964
-425.913
-454.01
-482.244
-510.604
-539.081
-567.663
-596.344
-625.096
-653.925
-682.812
-711.745
-740.71
-769.696
-798.689
-827.677
-856.647
-885.585
-914.479
-943.314
-972.078
-1000.76
-1029.34
-1057.81
-1086.15
-1114.35
-1142.4
-1170.29
-1198
-1225.51
-1252.81
-1279.9
-1306.76
-1333.37
-1359.72
-1385.8
-1411.6
-1437.11
-1462.31
-1487.19
-1511.75
-1535.96
-1559.82
-1583.32
-1606.46
-1629.21
-1651.57
-1673.53
-1695.09
-1716.23
-1736.95
-1757.24
-1777.09
-1796.5
-1815.46
-1833.97
-1852.01
-1869.59
-1886.71
-1903.35
-1919.51
-1935.2
-1950.41
-1965.13
-1979.37
-1993.12
-2006.39
-2019.16
-2031.45
-2043.25
-2054.57
-2065.4
-2075.74
-2085.6
-2094.97
-2103.87
-2112.28
-2120.22
-2127.69
-2134.68
-2141.21
-2147.27
-2152.87
-2158.01
-2162.7
-2166.94
-2170.73
-2174.08
-2176.99
-2179.47
-2181.53
-2183.15
-2184.36
-2185.16
-2185.55
-2185.54
-2185.13
-2184.34
-2183.16
-2181.6
-2179.68
-2177.39
-2174.75
-2171.76
-2168.43
-2164.78
-2160.79
-2156.5
-2151.9
-2147.01
-2141.83
-2136.37
-2130.65
-2124.68
-2118.46
-2112.01
-2105.34
-2098.45
-2091.38
-2084.11
-2076.67
-2069.07
-2061.33
-2053.45
-2045.44
-2037.33
-2029.12
-2020.83
-2012.47
-2004.06
-1995.6
-1987.12
-1978.62
-1970.12
-1961.64
-1953.18
-1944.77
-1936.4
-1928.11
-1919.89
-1911.77
-1903.76
-1895.87
-1888.1
-1880.48
-1873.02
-1865.73
-1858.61
-1851.69
-1844.96
-1838.45
-1832.16
-1826.11
-1820.29
-1814.73
-1809.43
-1804.39
-1799.63
-1795.15
-1790.96
-1787.07
-1783.49
-1780.21
-1777.24
-1774.59
-1772.26
-1770.26
-1768.59
-1767.25
-1766.24
-1765.57
-1765.23
1041.55
1041.56
1041.59
1041.64
1041.7
1041.77
1041.86
1041.97
1042.09
1042.22
1042.36
1042.52
1042.69
1042.88
1043.07
1043.28
1043.49
1043.72
1043.95
1044.2
1044.45
1044.7
1044.97
1045.23
1045.5
1045.78
1046.05
1046.33
1046.6
1046.88
1047.15
1047.42
1047.68
1047.93
1048.18
1048.42
1048.64
1048.86
1049.05
1049.24
1049.4
1049.55
1049.67
1049.77
1049.85
1049.9
1049.92
1049.91
1049.86
1049.79
1049.67
1049.51
1049.32
1049.08
1048.79
1048.45
1048.07
1047.62
1047.13
1046.57
1045.95
1045.27
1044.52
1043.7
1042.8
1041.83
1040.79
1039.65
1038.44
1037.14
1035.74
1034.25
1032.66
1030.98
1029.18
1027.28
1025.27
1023.14
1020.9
1018.53
1016.03
1013.41
1010.65
1007.76
1004.73
1001.55
998.222
994.743
991.108
987.312
983.352
979.223
974.923
970.446
965.788
960.946
955.915
950.69
945.269
939.647
933.818
927.781
921.529
915.059
908.367
901.448
894.299
886.914
879.291
871.425
863.311
854.947
846.327
837.447
828.305
818.895
809.214
799.259
789.025
778.509
767.708
756.617
745.233
733.553
721.574
709.293
696.706
683.811
670.604
657.084
643.247
629.091
614.614
599.814
584.688
569.236
553.454
537.343
520.899
504.123
487.014
469.57
451.792
433.678
415.229
396.445
377.326
357.874
338.088
317.97
297.521
276.743
255.638
234.207
212.455
190.382
167.992
145.288
122.275
98.9549
75.333
51.4135
27.2012
2.70127
-22.081
-47.1398
-72.4693
-98.0629
-123.914
-150.016
-176.361
-202.942
-229.75
-256.779
-284.018
-311.459
-339.094
-366.912
-394.904
-423.06
-451.369
-479.821
-508.406
-537.112
-565.929
-594.844
-623.848
-652.926
-682.067
-711.258
-740.486
-769.738
-799.002
-828.263
-857.509
-886.726
-915.901
-945.02
-974.069
-1003.04
-1031.9
-1060.66
-1089.29
-1117.79
-1146.13
-1174.3
-1202.3
-1230.1
-1257.69
-1285.06
-1312.2
-1339.09
-1365.72
-1392.07
-1418.14
-1443.91
-1469.37
-1494.51
-1519.32
-1543.77
-1567.88
-1591.61
-1614.97
-1637.94
-1660.51
-1682.68
-1704.44
-1725.77
-1746.67
-1767.13
-1787.15
-1806.72
-1825.82
-1844.47
-1862.65
-1880.35
-1897.58
-1914.33
-1930.59
-1946.36
-1961.65
-1976.44
-1990.74
-2004.55
-2017.86
-2030.67
-2042.99
-2054.81
-2066.13
-2076.96
-2087.3
-2097.15
-2106.5
-2115.37
-2123.75
-2131.65
-2139.06
-2146
-2152.47
-2158.46
-2163.99
-2169.05
-2173.65
-2177.8
-2181.49
-2184.73
-2187.53
-2189.9
-2191.82
-2193.32
-2194.4
-2195.05
-2195.29
-2195.13
-2194.56
-2193.6
-2192.25
-2190.52
-2188.41
-2185.93
-2183.09
-2179.9
-2176.37
-2172.49
-2168.29
-2163.77
-2158.95
-2153.81
-2148.39
-2142.69
-2136.72
-2130.49
-2124.01
-2117.3
-2110.35
-2103.2
-2095.84
-2088.3
-2080.58
-2072.69
-2064.66
-2056.48
-2048.19
-2039.78
-2031.28
-2022.69
-2014.03
-2005.32
-1996.57
-1987.79
-1979
-1970.21
-1961.43
-1952.69
-1943.98
-1935.34
-1926.76
-1918.27
-1909.88
-1901.6
-1893.44
-1885.42
-1877.55
-1869.84
-1862.3
-1854.95
-1847.8
-1840.86
-1834.14
-1827.64
-1821.39
-1815.39
-1809.64
-1804.17
-1798.97
-1794.06
-1789.44
-1785.11
-1781.1
-1777.39
-1774.01
-1770.95
-1768.22
-1765.81
-1763.75
-1762.02
-1760.64
-1759.6
-1758.91
-1758.56
1040.79
1040.81
1040.84
1040.89
1040.95
1041.03
1041.13
1041.24
1041.36
1041.5
1041.66
1041.83
1042.01
1042.21
1042.41
1042.63
1042.86
1043.11
1043.36
1043.62
1043.89
1044.16
1044.45
1044.73
1045.03
1045.32
1045.63
1045.93
1046.23
1046.53
1046.83
1047.13
1047.42
1047.71
1047.99
1048.26
1048.52
1048.77
1049
1049.22
1049.43
1049.61
1049.78
1049.92
1050.04
1050.13
1050.2
1050.24
1050.24
1050.21
1050.15
1050.04
1049.9
1049.71
1049.48
1049.2
1048.87
1048.49
1048.05
1047.55
1046.99
1046.37
1045.69
1044.93
1044.1
1043.2
1042.22
1041.16
1040.02
1038.79
1037.46
1036.05
1034.54
1032.92
1031.21
1029.39
1027.45
1025.41
1023.24
1020.96
1018.55
1016.01
1013.34
1010.53
1007.58
1004.49
1001.26
997.866
994.321
990.616
986.748
982.712
978.504
974.121
969.557
964.809
959.873
954.744
949.418
943.891
938.159
932.217
926.061
919.687
913.091
906.268
899.214
891.924
884.396
876.623
868.603
860.331
851.803
843.014
833.962
824.641
815.048
805.179
795.03
784.597
773.877
762.865
751.56
739.956
728.05
715.84
703.322
690.493
677.35
663.89
650.111
636.01
621.584
606.831
591.75
576.338
560.593
544.514
528.099
511.347
494.257
476.828
459.06
440.952
422.503
403.714
384.585
365.116
345.309
325.164
304.682
283.865
262.715
241.233
219.422
197.285
174.824
152.043
128.945
105.534
81.8143
57.7897
33.4651
8.84576
-16.0631
-41.2558
-66.7263
-92.4684
-118.475
-144.74
-171.256
-198.014
-225.008
-252.228
-279.666
-307.314
-335.162
-363.201
-391.42
-419.811
-448.361
-477.061
-505.9
-534.867
-563.95
-593.138
-622.417
-651.777
-681.205
-710.688
-740.212
-769.765
-799.334
-828.904
-858.463
-887.997
-917.491
-946.932
-976.305
-1005.6
-1034.79
-1063.88
-1092.84
-1121.66
-1150.34
-1178.84
-1207.16
-1235.29
-1263.21
-1290.9
-1318.36
-1345.56
-1372.51
-1399.17
-1425.55
-1451.62
-1477.37
-1502.8
-1527.89
-1552.62
-1577
-1601
-1624.61
-1647.83
-1670.65
-1693.05
-1715.03
-1736.57
-1757.68
-1778.34
-1798.55
-1818.29
-1837.57
-1856.38
-1874.7
-1892.55
-1909.9
-1926.77
-1943.14
-1959.01
-1974.39
-1989.26
-2003.63
-2017.49
-2030.85
-2043.7
-2056.05
-2067.89
-2079.22
-2090.06
-2100.39
-2110.22
-2119.55
-2128.39
-2136.73
-2144.58
-2151.94
-2158.82
-2165.21
-2171.13
-2176.57
-2181.54
-2186.04
-2190.08
-2193.66
-2196.79
-2199.46
-2201.69
-2203.48
-2204.83
-2205.75
-2206.24
-2206.32
-2205.98
-2205.23
-2204.09
-2202.54
-2200.61
-2198.29
-2195.6
-2192.54
-2189.12
-2185.35
-2181.24
-2176.79
-2172.02
-2166.93
-2161.53
-2155.83
-2149.85
-2143.6
-2137.08
-2130.3
-2123.29
-2116.04
-2108.58
-2100.91
-2093.04
-2085
-2076.79
-2068.42
-2059.92
-2051.29
-2042.55
-2033.71
-2024.79
-2015.79
-2006.75
-1997.66
-1988.54
-1979.42
-1970.29
-1961.18