/*--------------------------------*- C++ -*----------------------------------*\
| =========                 |                                                 |
| \\      /  F ield         | OpenFOAM: The Open Source CFD Toolbox           |
|  \\    /   O peration     | Version:  v2006                                 |
|   \\  /    A nd           | Website:  www.openfoam.com                      |
|    \\/     M anipulation  |                                                 |
\*---------------------------------------------------------------------------*/
FoamFile
{
    version     2.0;
    format      ascii;
    class       volScalarField;
    location    "0";
    object      alpha.water;
}
// * * * * * * * * * * * * * * * * * * * * * * * * * * * * * * * * * * * * * //

dimensions      [0 0 0 0 0 0 0];


internalField   nonuniform List<scalar> 
67500
(
0.996865
0.974495
0.453286
0.0464618
0.101001
0.227053
0.32897
0.485113
0.541718
0.619351
0.730691
0.790601
0.805531
0.805531
0.765282
0.761488
0.76219
0.749932
0.235456
0.595259
0.995784
0.999983
0.999983
0.981295
0.941403
0.959019
0.991191
0.999999
1
1
1
1
1
1
1
1
1
1
1
1
1
1
1
1
1
1
1
1
1
1
1
1
1
1
1
1
1
1
1
1
1
1
1
1
1
1
1
1
1
1
1
1
1
1
1
1
1
1
1
1
1
1
1
1
1
1
1
1
1
1
1
1
1
1
1
1
1
1
1
1
1
1
1
1
1
1
1
1
1
1
1
1
1
1
1
1
1
1
1
1
1
1
1
1
1
1
1
1
1
1
1
1
1
1
1
1
1
1
1
1
1
1
1
1
1
1
1
1
1
1
1
1
1
1
1
1
1
1
1
1
1
1
1
1
1
1
1
1
1
1
1
1
1
1
1
1
1
1
1
1
1
1
1
1
1
1
1
1
1
1
1
1
1
1
1
1
1
1
1
1
1
1
1
1
1
1
1
1
1
1
1
1
1
1
1
1
1
1
1
1
1
1
1
1
1
1
1
1
1
1
1
1
1
1
1
1
1
1
1
1
1
1
1
1
1
1
1
1
1
1
1
1
1
1
1
1
1
1
1
1
1
1
1
1
1
1
1
1
1
1
1
1
1
1
1
1
1
1
1
1
1
1
1
1
1
1
1
1
1
1
1
1
1
1
1
1
1
1
1
1
1
1
1
1
1
1
1
1
1
1
1
1
1
1
1
1
1
1
1
1
1
1
1
1
1
1
1
1
1
1
1
1
1
1
1
1
1
1
1
1
1
1
1
1
1
1
1
1
1
1
1
1
1
1
1
1
1
1
1
1
1
1
1
1
1
1
1
1
1
1
1
1
1
1
1
1
1
1
1
1
1
1
1
1
1
1
1
1
1
1
1
1
1
1
1
1
1
1
1
1
1
1
1
1
1
1
1
1
1
1
1
1
1
1
1
1
1
1
1
1
1
1
1
1
1
1
1
1
1
1
1
1
1
1
1
1
1
1
1
1
1
1
1
1
1
1
1
1
1
1
0.996865
0.869224
0.0437149
0.0437081
0.0832532
0.318981
0.301754
0.0309879
1.25746e-19
1.32807e-19
0.0175243
0.209351
0.4928
0.39145
0.19681
0.163128
0.188067
0.216175
0.119907
0.119355
0.18109
0.589292
0.509181
0.212393
0.198202
0.214267
0.860176
1
1
1
1
1
1
1
1
1
1
1
1
1
1
1
1
1
1
1
0.999769
0.999509
0.999461
0.999594
0.999807
0.999964
1
1
1
1
1
1
1
1
1
1
1
1
1
1
1
1
1
1
1
1
1
1
1
1
1
1
1
1
1
1
1
1
1
1
1
1
1
1
1
1
1
1
1
1
1
1
1
1
1
1
1
1
1
1
1
1
1
1
1
1
1
1
1
1
1
1
1
1
1
1
1
1
1
1
1
1
1
1
1
1
1
1
1
1
1
1
1
1
1
1
1
1
1
1
1
1
1
1
1
1
1
1
1
1
1
1
1
1
1
1
1
1
1
1
1
1
1
1
1
1
1
1
1
1
1
1
1
1
1
1
1
1
1
1
1
1
1
1
1
1
1
1
1
1
1
1
1
1
1
1
1
1
1
1
1
1
1
1
1
1
1
1
1
1
1
1
1
1
1
1
1
1
1
1
1
1
1
1
1
1
1
1
1
1
1
1
1
1
1
1
1
1
1
1
1
1
1
1
1
1
1
1
1
1
1
1
1
1
1
1
1
1
1
1
1
1
1
1
1
1
1
1
1
1
1
1
1
1
1
1
1
1
1
1
1
1
1
1
1
1
1
1
1
1
1
1
1
1
1
1
1
1
1
1
1
1
1
1
1
1
1
1
1
1
1
1
1
1
1
1
1
1
1
1
1
1
1
1
1
1
1
1
1
1
1
1
1
1
1
1
1
1
1
1
1
1
1
1
1
1
1
1
1
1
1
1
1
1
1
1
1
1
1
1
1
1
1
1
1
1
1
1
1
1
1
1
1
1
1
1
1
1
1
1
1
1
1
1
1
1
1
1
1
1
1
1
1
1
1
1
1
1
1
1
1
1
1
1
1
1
1
1
1
1
1
1
1
1
1
1
1
1
1
1
1
1
1
1
1
1
1
1
1
1
1
1
1
1
1
1
1
1
1
1
1
1
1
1
0.991923
0.659552
0.245946
0.198685
0.113865
0.0551857
0.0157538
3.41277e-06
3.92248e-06
3.79769e-06
8.62228e-21
1.37157e-19
-2.26984e-23
-9.6596e-24
0.0426179
0.0340074
-1.77157e-20
0.100194
0.379667
0.218811
0.152268
0.152238
0.152268
0.402121
0.907308
0.999999
0.999999
1
1
1
0.998951
0.985493
0.973259
0.960102
0.904706
0.844877
0.836821
0.838523
0.816635
0.78824
0.773817
0.770432
0.768468
0.760253
0.737526
0.700102
0.663774
0.642294
0.637251
0.644004
0.659864
0.680344
0.702126
0.723463
0.74235
0.756414
0.765144
0.770587
0.773645
0.771605
0.77397
0.783536
0.799847
0.819976
0.8401
0.857375
0.870671
0.880153
0.886562
0.890909
0.894549
0.899174
0.906281
0.916395
0.928822
0.942147
0.955001
0.966498
0.976279
0.98434
0.990769
0.995574
0.998661
0.999937
1
1
1
1
1
1
1
1
1
1
1
1
1
1
1
1
1
1
1
1
1
1
1
1
1
1
1
1
1
1
1
1
1
1
1
1
1
1
1
1
1
1
1
1
1
1
1
1
1
1
1
1
1
1
1
1
1
1
1
1
1
1
1
1
1
1
1
1
1
1
1
1
1
1
1
1
1
1
1
1
1
1
1
1
1
1
1
1
1
1
1
1
1
1
1
1
1
1
1
1
1
1
1
1
1
1
1
1
1
1
1
1
1
1
1
1
1
1
1
1
1
1
1
1
1
1
1
1
1
1
1
1
1
1
1
1
1
1
1
1
1
1
1
1
1
1
1
1
1
1
1
1
1
1
1
1
1
1
1
1
1
1
1
1
1
1
1
1
1
1
1
1
1
1
1
1
1
1
1
1
1
1
1
1
1
1
1
1
1
1
1
1
1
1
1
1
1
1
1
1
1
1
1
1
1
1
1
1
1
1
1
1
1
1
1
1
1
1
1
1
1
1
1
1
1
1
1
1
1
1
1
1
1
1
1
1
1
1
1
1
1
1
1
1
1
1
1
1
1
1
1
1
1
1
1
1
1
1
1
1
1
1
1
1
1
1
1
1
1
1
1
1
1
1
1
1
1
1
1
1
1
1
1
1
1
1
1
1
1
1
1
1
1
1
1
1
1
1
1
1
1
1
1
1
1
1
1
1
1
1
1
1
1
1
1
1
1
1
1
1
1
1
1
1
1
1
1
1
1
1
1
1
1
1
1
1
1
1
1
1
1
1
1
1
1
1
1
1
1
1
1
1
1
1
1
1
1
1
1
1
1
1
1
1
1
1
0.991111
0.552503
-2.96555e-19
0.0217609
0.0277881
1.56444e-19
8.69768e-21
2.69528e-06
-1.39244e-20
-1.08138e-22
-8.36822e-22
-7.33832e-24
3.14347e-08
9.12543e-26
0.000724866
-6.3801e-21
8.44972e-22
3.16503e-23
0.558798
0.84414
0.844423
0.86235
0.917842
0.958881
0.959078
0.981902
1
1
1
1
0.638786
0.473822
0.40673
-1.22824e-14
-4.18035e-14
-4.90406e-14
-4.15186e-14
-2.59811e-14
-1.17726e-14
-2.9776e-15
1.11932e-35
1.93538e-35
1.69588e-36
-2.73658e-36
-1.24398e-37
-1.64315e-37
0
-5.98176e-40
-2.99328e-40
2.65644e-38
-2.28237e-38
5.32129e-38
-2.6564e-40
2.64366e-38
-4.62616e-21
-1.90418e-21
-6.57472e-21
1.3752e-20
0.00171088
0.0127661
0.0264652
0.0431519
0.0615885
0.0792344
0.0930497
0.101994
0.107693
0.112766
0.119079
0.127751
0.139733
0.156009
0.177362
0.20404
0.235881
0.27213
0.311765
0.353696
0.397533
0.444509
0.495994
0.552474
0.614017
0.679818
0.748938
0.792951
0.828485
0.859373
0.88484
0.90538
0.921862
0.935159
0.946193
0.955878
0.964896
0.973457
0.981302
0.988021
0.993354
0.997208
0.999463
1
1
1
1
1
1
1
1
1
1
1
1
1
1
1
1
1
1
1
1
1
1
1
1
1
1
1
1
1
1
1
1
1
1
1
1
1
1
1
1
1
1
1
1
1
1
1
1
1
1
1
1
1
1
1
1
1
1
1
1
1
1
1
1
1
1
1
1
1
1
1
1
1
1
1
1
1
1
1
1
1
1
1
1
1
1
1
1
1
1
1
1
1
1
1
1
1
1
1
1
1
1
1
1
1
1
1
1
1
1
1
1
1
1
1
1
1
1
1
1
1
1
1
1
1
1
1
1
1
1
1
1
1
1
1
1
1
1
1
1
1
1
1
1
1
1
1
1
1
1
1
1
1
1
1
1
1
1
1
1
1
1
1
1
1
1
1
1
1
1
1
1
1
1
1
1
1
1
1
1
1
1
1
1
1
1
1
1
1
1
1
1
1
1
1
1
1
1
1
1
1
1
1
1
1
1
1
1
1
1
1
1
1
1
1
1
1
1
1
1
1
1
1
1
1
1
1
1
1
1
1
1
1
1
1
1
1
1
1
1
1
1
1
1
1
1
1
1
1
1
1
1
1
1
1
1
1
1
1
1
1
1
1
1
1
1
1
1
1
1
1
1
1
1
1
1
1
1
1
1
1
1
1
1
1
1
1
1
1
1
1
1
1
1
1
1
1
1
1
1
1
1
1
1
1
1
1
1
1
1
1
1
1
1
1
1
1
1
1
1
1
1
1
1
1
1
1
1
1
1
1
1
1
1
1
1
1
1
1
1
1
1
1
1
1
1
1
1
1
0.990175
0.440722
-1.66223e-15
2.19639e-20
9.69643e-08
1.09936e-05
6.89679e-07
9.83521e-05
0.00194734
1.23596e-20
7.54227e-12
1.38509e-08
4.15593e-08
-9.10252e-24
4.71909e-22
0.00355551
0.0141838
0.0222967
0.0218125
0.721972
1
1
0.372731
0.00494877
1.00025e-18
0.00269541
0.0770445
0.341501
0.611033
0.37029
0.0109054
0.0693156
0.0454052
-3.81163e-15
-1.16697e-14
-8.16621e-15
-4.73266e-16
5.24544e-17
6.85061e-17
5.99028e-17
3.98119e-17
2.02818e-17
1.09046e-17
5.59303e-18
2.7284e-18
1.30556e-18
6.28515e-19
3.65811e-19
2.98227e-19
2.65045e-19
2.33671e-19
1.85464e-19
1.38417e-19
9.71275e-20
6.42763e-20
4.2881e-20
2.5883e-20
1.07629e-20
1.38135e-37
2.00787e-38
9.63578e-38
9.3091e-38
5.99073e-38
-3.75965e-41
1.32183e-38
-1.15229e-21
-2.0327e-21
-2.85105e-21
-3.7519e-21
-4.68275e-21
-5.36783e-21
-5.52518e-21
-5.24517e-21
-5.08747e-21
-5.57266e-21
-6.39492e-21
-6.40295e-21
-4.9829e-21
-3.36778e-21
-2.96907e-21
-2.96567e-21
-4.13525e-21
-4.84557e-21
-9.96566e-21
0.00178009
0.0300302
0.064495
0.100925
0.137356
0.172191
0.204479
0.234404
0.263522
0.294782
0.33113
0.37288
0.418163
0.465719
0.516735
0.574267
0.640354
0.713803
0.786654
0.83552
0.877299
0.913952
0.943976
0.967313
0.984133
0.994705
0.999477
1
1
1
1
1
1
1
1
1
1
1
1
1
1
1
1
1
1
1
1
1
1
1
1
1
1
1
1
1
1
1
1
1
1
1
1
1
1
1
1
1
1
1
1
1
1
1
1
1
1
1
1
1
1
1
1
1
1
1
1
1
1
1
1
1
1
1
1
1
1
1
1
1
1
1
1
1
1
1
1
1
1
1
1
1
1
1
1
1
1
1
1
1
1
1
1
1
1
1
1
1
1
1
1
1
1
1
1
1
1
1
1
1
1
1
1
1
1
1
1
1
1
1
1
1
1
1
1
1
1
1
1
1
1
1
1
1
1
1
1
1
1
1
1
1
1
1
1
1
1
1
1
1
1
1
1
1
1
1
1
1
1
1
1
1
1
1
1
1
1
1
1
1
1
1
1
1
1
1
1
1
1
1
1
1
1
1
1
1
1
1
1
1
1
1
1
1
1
1
1
1
1
1
1
1
1
1
1
1
1
1
1
1
1
1
1
1
1
1
1
1
1
1
1
1
1
1
1
1
1
1
1
1
1
1
1
1
1
1
1
1
1
1
1
1
1
1
1
1
1
1
1
1
1
1
1
1
1
1
1
1
1
1
1
1
1
1
1
1
1
1
1
1
1
1
1
1
1
1
1
1
1
1
1
1
1
1
1
1
1
1
1
1
1
1
1
1
1
1
1
1
1
1
1
1
1
1
1
1
1
1
1
1
1
1
1
1
1
1
1
1
1
1
1
1
1
1
1
1
1
1
1
1
1
1
1
1
1
1
0.980087
0.393616
3.6913e-22
4.00911e-05
2.78434e-10
-6.62043e-23
-5.74928e-22
0.000600632
0.0187169
0.024487
5.49385e-38
-5.3285e-27
-1.34962e-20
0.00413916
-8.63609e-21
0.11416
0.567989
0.619395
0.615141
0.458598
0.238257
0.0315914
7.93734e-21
1.94075e-20
9.71744e-19
9.17767e-21
6.27536e-20
0.00775131
0.0464476
0.00244926
-6.26257e-20
-6.7153e-21
1.47283e-19
-2.93831e-16
-2.04941e-15
-2.07967e-16
7.11566e-17
1.82301e-16
2.11848e-16
1.94569e-16
1.55906e-16
1.14726e-16
8.03726e-17
5.49034e-17
3.7029e-17
2.47671e-17
1.6459e-17
1.09185e-17
7.28967e-18
4.93754e-18
3.40494e-18
2.39063e-18
1.70706e-18
1.23441e-18
8.97949e-19
6.52862e-19
4.69524e-19
3.28249e-19
2.21436e-19
1.52478e-19
1.03641e-19
6.89626e-20
4.47989e-20
2.83083e-20
1.72865e-20
1.00447e-20
5.29719e-21
2.08496e-21
-2.89708e-22
-2.19838e-21
-3.77771e-21
-5.09898e-21
-6.23548e-21
-7.27769e-21
-8.35453e-21
-9.48717e-21
-1.05614e-20
-1.14546e-20
-1.22037e-20
-1.28619e-20
-1.33752e-20
-1.37721e-20
-1.41066e-20
-1.45065e-20
-1.52971e-20
-1.68784e-20
-1.93837e-20
-1.97884e-20
-1.38575e-20
-5.59044e-21
-2.91113e-21
-2.94119e-21
-2.96807e-21
-1.99365e-24
-1.11606e-40
-2.31238e-38
-2.31991e-38
-2.46737e-38
-1.5516e-19
1.46928e-37
-1.85284e-37
1.21117e-36
0.00737005
0.0471998
0.099643
0.163034
0.239585
0.32936
0.429199
0.534798
0.642429
0.7488
0.842757
0.899677
0.941432
0.971887
0.99057
0.998937
1
1
1
1
1
1
1
1
1
1
1
1
1
1
1
1
1
1
1
1
1
1
1
1
1
1
1
1
1
1
1
1
1
1
1
1
1
1
1
1
1
1
1
1
1
1
1
1
1
1
1
1
1
1
1
1
1
1
1
1
1
1
1
1
1
1
1
1
1
1
1
1
1
1
1
1
1
1
1
1
1
1
1
1
1
1
1
1
1
1
1
1
1
1
1
1
1
1
1
1
1
1
1
1
1
1
1
1
1
1
1
1
1
1
1
1
1
1
1
1
1
1
1
1
1
1
1
1
1
1
1
1
1
1
1
1
1
1
1
1
1
1
1
1
1
1
1
1
1
1
1
1
1
1
1
1
1
1
1
1
1
1
1
1
1
1
1
1
1
1
1
1
1
1
1
1
1
1
1
1
1
1
1
1
1
1
1
1
1
1
1
1
1
1
1
1
1
1
1
1
1
1
1
1
1
1
1
1
1
1
1
1
1
1
1
1
1
1
1
1
1
1
1
1
1
1
1
1
1
1
1
1
1
1
1
1
1
1
1
1
1
1
1
1
1
1
1
1
1
1
1
1
1
1
1
1
1
1
1
1
1
1
1
1
1
1
1
1
1
1
1
1
1
1
1
1
1
1
1
1
1
1
1
1
1
1
1
1
1
1
1
1
1
1
1
1
1
1
1
1
1
1
1
1
1
1
1
1
1
1
1
1
1
1
1
1
1
1
1
1
1
1
1
1
1
1
1
1
1
1
1
1
0.896461
0.292658
-7.13098e-23
3.99599e-05
4.8203e-05
-1.06818e-26
4.10962e-09
-4.67226e-23
0.0365992
0.243971
0.242974
0.242275
0.242246
0.0900256
-1.31436e-23
-1.3804e-23
-3.82394e-26
8.61425e-23
-3.65477e-22
0.000249154
1.8074e-18
3.76222e-22
2.29841e-13
7.93734e-21
1.68542e-15
1.2163e-15
1.56957e-21
3.56503e-21
-1.01352e-19
4.92503e-20
9.17275e-17
1.70922e-15
1.20891e-16
0
5.60856e-17
1.74171e-16
2.76119e-16
3.78573e-16
4.49908e-16
4.20003e-16
3.39667e-16
2.49707e-16
1.73403e-16
1.16928e-16
7.79618e-17
5.19644e-17
3.48512e-17
2.36209e-17
1.6229e-17
1.13237e-17
8.02497e-18
5.77157e-18
4.20689e-18
3.10075e-18
2.30419e-18
1.72056e-18
1.28627e-18
9.59183e-19
7.11463e-19
5.24761e-19
3.85478e-19
2.82273e-19
2.06127e-19
1.50162e-19
1.09168e-19
7.91911e-20
5.72466e-20
4.11174e-20
2.91926e-20
2.03269e-20
1.37127e-20
8.76504e-21
5.04643e-21
2.22888e-21
6.14383e-23
-1.64951e-21
-3.05813e-21
-4.2922e-21
-5.46574e-21
-6.68237e-21
-8.02189e-21
-9.54062e-21
-1.12727e-20
-1.32041e-20
-1.52366e-20
-1.70731e-20
-1.82138e-20
-1.83893e-20
-1.7566e-20
-1.58143e-20
-1.32512e-20
-9.96763e-21
-5.87755e-21
-6.03081e-22
6.93796e-21
1.90545e-20
3.90321e-20
6.83487e-20
1.07212e-19
1.49881e-19
1.78332e-19
1.37208e-19
-1.78151e-18
-8.54327e-18
-1.56272e-17
-1.90558e-17
-1.8752e-17
-1.4809e-17
-9.40277e-18
-4.41572e-18
-1.32657e-18
-1.1633e-19
0.0149364
0.0931952
0.20643
0.340413
0.48131
0.618481
0.746645
0.863194
0.930047
0.96933
0.991388
0.99957
1
1
1
1
1
1
1
1
1
1
1
1
1
1
1
1
1
1
1
1
1
1
1
1
1
1
1
1
1
1
1
1
1
1
1
1
1
1
1
1
1
1
1
1
1
1
1
1
1
1
1
1
1
1
1
1
1
1
1
1
1
1
1
1
1
1
1
1
1
1
1
1
1
1
1
1
1
1
1
1
1
1
1
1
1
1
1
1
1
1
1
1
1
1
1
1
1
1
1
1
1
1
1
1
1
1
1
1
1
1
1
1
1
1
1
1
1
1
1
1
1
1
1
1
1
1
1
1
1
1
1
1
1
1
1
1
1
1
1
1
1
1
1
1
1
1
1
1
1
1
1
1
1
1
1
1
1
1
1
1
1
1
1
1
1
1
1
1
1
1
1
1
1
1
1
1
1
1
1
1
1
1
1
1
1
1
1
1
1
1
1
1
1
1
1
1
1
1
1
1
1
1
1
1
1
1
1
1
1
1
1
1
1
1
1
1
1
1
1
1
1
1
1
1
1
1
1
1
1
1
1
1
1
1
1
1
1
1
1
1
1
1
1
1
1
1
1
1
1
1
1
1
1
1
1
1
1
1
1
1
1
1
1
1
1
1
1
1
1
1
1
1
1
1
1
1
1
1
1
1
1
1
1
1
1
1
1
1
1
1
1
1
1
1
1
1
1
1
1
1
1
1
1
1
1
1
1
1
1
1
1
1
1
1
1
1
1
1
1
1
1
1
1
1
1
1
0.800673
0.147271
-9.21895e-24
4.92082e-05
5.41716e-05
5.58093e-24
4.43242e-08
3.69808e-28
-6.67556e-21
0.00950319
0.170097
0.242014
0.0377014
5.82371e-06
2.26044e-05
3.07047e-05
5.52867e-07
5.39489e-23
1.37354e-13
3.95965e-14
2.86576e-12
1.35669e-12
2.18298e-13
1.1004e-14
2.36604e-13
1.97287e-13
3.69867e-14
3.78138e-14
5.98912e-14
6.46501e-14
7.66856e-14
7.31849e-14
4.60838e-14
3.26645e-14
2.53351e-14
1.75719e-14
4.99378e-15
1.00915e-15
7.57475e-16
6.98279e-16
6.06652e-16
4.64277e-16
3.29931e-16
2.24379e-16
1.48876e-16
9.76766e-17
6.40362e-17
4.23201e-17
2.84e-17
1.94547e-17
1.36375e-17
9.77978e-18
7.15871e-18
5.33008e-18
4.02075e-18
3.06101e-18
2.34304e-18
1.79682e-18
1.3764e-18
1.05137e-18
8.00326e-19
6.06959e-19
4.5853e-19
3.45088e-19
2.58774e-19
1.93338e-19
1.43829e-19
1.06393e-19
7.80979e-20
5.67523e-20
4.07223e-20
2.87651e-20
1.99149e-20
1.34215e-20
8.70098e-21
5.2972e-21
2.85451e-21
1.09849e-21
-1.79671e-22
-1.1386e-21
-1.90062e-21
-2.56628e-21
-3.22661e-21
-3.96996e-21
-4.88232e-21
-6.03063e-21
-7.43532e-21
-9.07626e-21
-1.08883e-20
-1.27263e-20
-1.43071e-20
-1.51122e-20
-1.41886e-20
-9.70327e-21
1.96808e-21
2.78954e-20
8.1277e-20
1.84709e-19
3.72864e-19
6.92486e-19
1.19124e-18
1.84673e-18
2.27852e-18
1.06217e-18
-4.88172e-18
-1.51788e-17
-2.51492e-17
-2.91691e-17
-2.52275e-17
-1.51742e-17
-3.29267e-18
8.80063e-19
1.19195e-34
5.94631e-36
4.73328e-35
2.99803e-36
-5.38067e-36
0
9.94754e-29
0.00428454
0.121338
0.305718
0.488688
0.646868
0.786837
0.904925
0.965505
0.992167
0.999862
1
1
1
1
1
1
1
1
1
1
1
1
1
1
1
1
1
1
1
1
1
1
1
1
1
1
1
1
1
1
1
1
1
1
1
1
1
1
1
1
1
1
1
1
1
1
1
1
1
1
1
1
1
1
1
1
1
1
1
1
1
1
1
1
1
1
1
1
1
1
1
1
1
1
1
1
1
1
1
1
1
1
1
1
1
1
1
1
1
1
1
1
1
1
1
1
1
1
1
1
1
1
1
1
1
1
1
1
1
1
1
1
1
1
1
1
1
1
1
1
1
1
1
1
1
1
1
1
1
1
1
1
1
1
1
1
1
1
1
1
1
1
1
1
1
1
1
1
1
1
1
1
1
1
1
1
1
1
1
1
1
1
1
1
1
1
1
1
1
1
1
1
1
1
1
1
1
1
1
1
1
1
1
1
1
1
1
1
1
1
1
1
1
1
1
1
1
1
1
1
1
1
1
1
1
1
1
1
1
1
1
1
1
1
1
1
1
1
1
1
1
1
1
1
1
1
1
1
1
1
1
1
1
1
1
1
1
1
1
1
1
1
1
1
1
1
1
1
1
1
1
1
1
1
1
1
1
1
1
1
1
1
1
1
1
1
1
1
1
1
1
1
1
1
1
1
1
1
1
1
1
1
1
1
1
1
1
1
1
1
1
1
1
1
1
1
1
1
1
1
1
1
1
1
1
1
1
1
1
1
1
1
1
1
1
1
1
1
1
1
1
0.792537
0.0447269
-7.43649e-24
3.57673e-05
5.44198e-05
3.94225e-25
4.86932e-08
1.91533e-09
-2.94182e-25
1.45221e-39
2.68654e-23
3.57009e-23
2.30538e-05
5.80107e-06
2.21125e-05
2.60877e-05
1.5194e-05
4.68665e-22
1.55924e-14
3.96737e-14
2.92924e-12
1.37715e-12
4.35288e-13
7.95026e-13
8.74199e-13
7.90204e-13
4.6944e-13
2.41677e-13
1.42995e-13
6.58151e-14
6.70058e-14
1.40657e-13
1.40164e-13
1.50629e-13
1.76127e-13
1.86546e-13
1.48501e-13
5.9966e-14
7.06807e-15
9.9804e-16
8.72117e-16
7.37402e-16
5.62877e-16
4.01373e-16
2.7508e-16
1.84752e-16
1.23337e-16
8.27287e-17
5.62034e-17
3.88814e-17
2.74649e-17
1.98196e-17
1.45975e-17
1.09537e-17
8.35627e-18
6.46551e-18
5.06024e-18
3.99355e-18
3.16712e-18
2.51547e-18
1.99493e-18
1.57585e-18
1.23751e-18
9.64816e-19
7.46113e-19
5.71891e-19
4.34155e-19
3.26141e-19
2.42186e-19
1.776e-19
1.28505e-19
9.16822e-20
6.4454e-20
4.46149e-20
3.03754e-20
2.03032e-20
1.32728e-20
8.41931e-21
5.09467e-21
2.82409e-21
1.26672e-21
1.80964e-22
-6.03698e-22
-1.20778e-21
-1.71793e-21
-2.19849e-21
-2.69929e-21
-3.26002e-21
-3.90319e-21
-4.60428e-21
-5.2158e-21
-5.294e-21
-3.72638e-21
2.02499e-21
1.73904e-20
5.34436e-20
1.31782e-19
2.92457e-19
6.05795e-19
1.18717e-18
2.2086e-18
3.89412e-18
6.46158e-18
9.94261e-18
1.39042e-17
1.73157e-17
1.89351e-17
1.83781e-17
1.69824e-17
1.7399e-17
2.09671e-17
2.50455e-17
2.67096e-17
2.68115e-17
2.33692e-17
1.67457e-17
4.49623e-18
1.17083e-18
2.37779e-11
4.33128e-19
-4.92764e-26
-1.91296e-26
-2.5382e-26
-1.90499e-26
-8.47417e-27
0.0242352
0.233034
0.477287
0.659645
0.806025
0.927845
0.984635
0.999569
1
1
1
1
1
1
1
1
1
1
1
1
1
1
1
1
1
1
1
1
1
1
1
1
1
1
1
1
1
1
1
1
1
1
1
1
1
1
1
1
1
1
1
1
1
1
1
1
1
1
1
1
1
1
1
1
1
1
1
1
1
1
1
1
1
1
1
1
1
1
1
1
1
1
1
1
1
1
1
1
1
1
1
1
1
1
1
1
1
1
1
1
1
1
1
1
1
1
1
1
1
1
1
1
1
1
1
1
1
1
1
1
1
1
1
1
1
1
1
1
1
1
1
1
1
1
1
1
1
1
1
1
1
1
1
1
1
1
1
1
1
1
1
1
1
1
1
1
1
1
1
1
1
1
1
1
1
1
1
1
1
1
1
1
1
1
1
1
1
1
1
1
1
1
1
1
1
1
1
1
1
1
1
1
1
1
1
1
1
1
1
1
1
1
1
1
1
1
1
1
1
1
1
1
1
1
1
1
1
1
1
1
1
1
1
1
1
1
1
1
1
1
1
1
1
1
1
1
1
1
1
1
1
1
1
1
1
1
1
1
1
1
1
1
1
1
1
1
1
1
1
1
1
1
1
1
1
1
1
1
1
1
1
1
1
1
1
1
1
1
1
1
1
1
1
1
1
1
1
1
1
1
1
1
1
1
1
1
1
1
1
1
1
1
1
1
1
1
1
1
1
1
1
1
1
1
1
1
1
1
1
1
1
1
1
1
1
0.793587
0.0041635
1.7716e-25
4.63435e-06
5.89862e-06
5.36517e-26
4.62863e-08
-4.04595e-24
-2.87483e-25
4.75473e-22
9.12671e-05
0.000591905
0.000610912
0.000615007
0.000618616
0.00115617
0.001292
0.000323551
1.55414e-14
1.08883e-05
2.81467e-14
6.04881e-13
5.54083e-13
5.50255e-13
4.48331e-13
1.84097e-13
1.22957e-13
1.15044e-13
1.16587e-13
9.8155e-06
9.2573e-06
1.41786e-13
1.42317e-13
1.41786e-13
1.61161e-13
2.93286e-13
5.15537e-13
4.81831e-13
2.26792e-13
4.28638e-14
1.14646e-15
9.02914e-16
7.6872e-16
5.9167e-16
4.26432e-16
2.9628e-16
2.02589e-16
1.38391e-16
9.54577e-17
6.69403e-17
4.7895e-17
3.50078e-17
2.61431e-17
1.99435e-17
1.55391e-17
1.23587e-17
1.00141e-17
8.23619e-18
6.839e-18
5.6989e-18
4.7388e-18
3.91405e-18
3.20044e-18
2.58497e-18
2.05953e-18
1.61727e-18
1.25101e-18
9.52833e-19
7.14347e-19
5.27035e-19
3.82634e-19
2.73392e-19
1.92288e-19
1.33176e-19
9.08634e-20
6.10939e-20
4.04858e-20
2.64289e-20
1.6966e-20
1.06678e-20
6.51471e-21
3.79421e-21
2.017e-21
8.51897e-22
7.63508e-23
-4.59818e-22
-8.58885e-22
-1.18825e-21
-1.47873e-21
-1.69483e-21
-1.63976e-21
-7.14661e-22
2.62451e-21
1.19979e-20
3.53074e-20
8.88008e-20
2.04135e-19
4.39759e-19
8.97677e-19
1.74537e-18
3.23823e-18
5.73142e-18
9.66444e-18
1.54984e-17
2.36063e-17
3.41437e-17
4.69161e-17
6.13213e-17
7.64251e-17
9.11141e-17
1.04133e-16
1.13847e-16
1.18208e-16
1.15356e-16
1.04008e-16
8.29343e-17
5.00477e-17
2.24598e-17
1.80555e-17
1.05995e-08
2.75171e-08
2.76436e-08
5.9975e-25
-1.44488e-25
-2.51056e-27
-1.54723e-26
-1.091e-27
1.48171e-32
-4.08041e-32
-6.19737e-30
0.0408938
0.339198
0.613526
0.779206
0.914337
0.985014
0.999963
1
1
1
1
1
1
1
1
1
1
1
1
1
1
1
1
1
1
1
1
1
1
1
1
1
1
1
1
1
1
1
1
1
1
1
1
1
1
1
1
1
1
1
1
1
1
1
1
1
1
1
1
1
1
1
1
1
1
1
1
1
1
1
1
1
1
1
1
1
1
1
1
1
1
1
1
1
1
1
1
1
1
1
1
1
1
1
1
1
1
1
1
1
1
1
1
1
1
1
1
1
1
1
1
1
1
1
1
1
1
1
1
1
1
1
1
1
1
1
1
1
1
1
1
1
1
1
1
1
1
1
1
1
1
1
1
1
1
1
1
1
1
1
1
1
1
1
1
1
1
1
1
1
1
1
1
1
1
1
1
1
1
1
1
1
1
1
1
1
1
1
1
1
1
1
1
1
1
1
1
1
1
1
1
1
1
1
1
1
1
1
1
1
1
1
1
1
1
1
1
1
1
1
1
1
1
1
1
1
1
1
1
1
1
1
1
1
1
1
1
1
1
1
1
1
1
1
1
1
1
1
1
1
1
1
1
1
1
1
1
1
1
1
1
1
1
1
1
1
1
1
1
1
1
1
1
1
1
1
1
1
1
1
1
1
1
1
1
1
1
1
1
1
1
1
1
1
1
1
1
1
1
1
1
1
1
1
1
1
1
1
1
1
1
1
1
1
1
1
1
1
1
1
1
1
1
1
1
1
1
1
1
1
0.657839
-6.55718e-21
3.61356e-25
3.45415e-27
1.09938e-24
4.36661e-26
2.74903e-26
9.19512e-07
2.38349e-07
2.01496e-08
1.8654e-13
1.30705e-15
0.000188222
0.00233954
0.00258635
0.00258115
0.00257288
0.00221355
0.00148009
0.00128972
2.81467e-14
3.47109e-14
4.15986e-14
3.09135e-14
2.81467e-14
2.81467e-14
2.81467e-14
2.81467e-14
0.000224695
0.000720135
0.000661295
0.000340772
0.000108174
9.67047e-06
1.62492e-13
2.81467e-14
4.87565e-13
8.74482e-13
8.76105e-13
4.60631e-13
1.09797e-13
3.06332e-15
8.28779e-16
7.18397e-16
5.66564e-16
4.18272e-16
2.97933e-16
2.09356e-16
1.47382e-16
1.0498e-16
7.61112e-17
5.63704e-17
4.27774e-17
3.33683e-17
2.68341e-17
2.2265e-17
1.89981e-17
1.65436e-17
1.45537e-17
1.28041e-17
1.11741e-17
9.61854e-18
8.13886e-18
6.75788e-18
5.50227e-18
4.39244e-18
3.43852e-18
2.64033e-18
1.98932e-18
1.47118e-18
1.06834e-18
7.62162e-19
5.34439e-19
3.68561e-19
2.5012e-19
1.67143e-19
1.10046e-19
7.14135e-20
4.56824e-20
2.87932e-20
1.78584e-20
1.08696e-20
6.45738e-21
3.7043e-21
2.00402e-21
9.59461e-22
3.13029e-22
-9.79056e-23
-3.63149e-22
-4.9148e-22
-3.38751e-22
6.08991e-22
3.7673e-21
1.26225e-20
3.50989e-20
8.80255e-20
2.05016e-19
4.49358e-19
9.33229e-19
1.84329e-18
3.46934e-18
6.22641e-18
1.06542e-17
1.73786e-17
2.70309e-17
4.01368e-17
5.69826e-17
7.74657e-17
1.00956e-16
1.26187e-16
1.51207e-16
1.73423e-16
1.89747e-16
1.97124e-16
1.93159e-16
1.75958e-16
1.44409e-16
1.04556e-16
4.34371e-17
2.49763e-17
2.4008e-17
6.11907e-07
1.01089e-06
3.81014e-07
1.07319e-08
2.53894e-26
-1.69173e-27
-1.77413e-30
1.38559e-11
2.78282e-12
-3.35088e-27
2.25015e-26
1.80834e-26
5.38298e-27
0
0.319316
0.656772
0.828269
0.946325
0.996134
1
1
1
1
1
1
1
1
1
1
1
1
1
1
1
1
1
1
1
1
1
1
1
1
1
1
1
1
1
1
1
1
1
1
1
1
1
1
1
1
1
1
1
1
1
1
1
1
1
1
1
1
1
1
1
1
1
1
1
1
1
1
1
1
1
1
1
1
1
1
1
1
1
1
1
1
1
1
1
1
1
1
1
1
1
1
1
1
1
1
1
1
1
1
1
1
1
1
1
1
1
1
1
1
1
1
1
1
1
1
1
1
1
1
1
1
1
1
1
1
1
1
1
1
1
1
1
1
1
1
1
1
1
1
1
1
1
1
1
1
1
1
1
1
1
1
1
1
1
1
1
1
1
1
1
1
1
1
1
1
1
1
1
1
1
1
1
1
1
1
1
1
1
1
1
1
1
1
1
1
1
1
1
1
1
1
1
1
1
1
1
1
1
1
1
1
1
1
1
1
1
1
1
1
1
1
1
1
1
1
1
1
1
1
1
1
1
1
1
1
1
1
1
1
1
1
1
1
1
1
1
1
1
1
1
1
1
1
1
1
1
1
1
1
1
1
1
1
1
1
1
1
1
1
1
1
1
1
1
1
1
1
1
1
1
1
1
1
1
1
1
1
1
1
1
1
1
1
1
1
1
1
1
1
1
1
1
1
1
1
1
1
1
1
1
1
1
1
1
1
1
1
1
1
1
1
1
1
1
1
0.112955
0.00633133
3.72654e-24
0
-2.8272e-42
1.10794e-43
2.90715e-05
2.61676e-05
2.50659e-06
1.88537e-23
1.74886e-11
5.52589e-08
7.85701e-13
1.03738e-29
-1.04642e-22
-2.35452e-22
-5.06785e-23
1.16624e-21
0.00387493
0.00387423
0.00311889
2.81467e-14
2.81467e-14
2.81467e-14
0.00016286
0.000644717
0.000842302
0.000425715
0.00115067
0.00136594
0.00136721
0.0011787
0.000586383
0.000235601
0.00013539
2.22063e-05
5.07711e-13
7.15746e-13
1.09029e-12
1.15855e-12
6.89739e-13
1.81864e-13
7.60865e-15
7.06225e-16
6.26759e-16
5.11787e-16
3.90014e-16
2.86513e-16
2.07651e-16
1.50821e-16
1.11003e-16
8.35728e-17
6.49587e-17
5.25692e-17
4.45443e-17
3.94676e-17
3.61891e-17
3.37853e-17
3.15874e-17
2.92006e-17
2.64783e-17
2.34555e-17
2.02689e-17
1.70866e-17
1.40618e-17
1.13087e-17
8.89617e-18
6.8517e-18
5.17059e-18
3.82587e-18
2.7774e-18
1.97937e-18
1.38561e-18
9.53299e-19
6.44962e-19
4.29333e-19
2.81337e-19
1.81557e-19
1.15417e-19
7.22816e-20
4.45874e-20
2.70771e-20
1.61735e-20
9.48792e-21
5.45211e-21
3.05195e-21
1.64176e-21
8.1907e-22
3.44507e-22
1.0189e-22
1.1456e-22
6.71861e-22
2.69302e-21
8.58795e-21
2.40897e-20
6.18387e-20
1.47855e-19
3.32282e-19
7.05612e-19
1.42061e-18
2.71766e-18
4.94682e-18
8.57448e-18
1.41613e-17
2.23034e-17
3.35384e-17
4.82256e-17
6.64168e-17
8.77425e-17
1.11333e-16
1.35789e-16
1.59211e-16
1.79282e-16
1.93455e-16
1.99314e-16
1.94828e-16
1.73025e-16
2.1831e-16
1.7286e-16
6.12589e-17
5.21277e-17
4.33963e-08
3.61731e-06
4.52548e-06
1.53842e-06
7.89522e-08
1.89724e-09
-2.2576e-28
3.98724e-11
6.81026e-14
8.81273e-10
9.24127e-09
6.51855e-09
2.78353e-10
-1.02175e-27
-2.66965e-19
-1.99745e-19
-5.75123e-20
0.0527675
0.487042
0.787685
0.922932
0.990583
1
1
1
1
1
1
1
1
1
1
1
1
1
1
1
1
1
1
1
1
1
1
1
1
1
1
1
1
1
1
1
1
1
1
1
1
1
1
1
1
1
1
1
1
1
1
1
1
1
1
1
1
1
1
1
1
1
1
1
1
1
1
1
1
1
1
1
1
1
1
1
1
1
1
1
1
1
1
1
1
1
1
1
1
1
1
1
1
1
1
1
1
1
1
1
1
1
1
1
1
1
1
1
1
1
1
1
1
1
1
1
1
1
1
1
1
1
1
1
1
1
1
1
1
1
1
1
1
1
1
1
1
1
1
1
1
1
1
1
1
1
1
1
1
1
1
1
1
1
1
1
1
1
1
1
1
1
1
1
1
1
1
1
1
1
1
1
1
1
1
1
1
1
1
1
1
1
1
1
1
1
1
1
1
1
1
1
1
1
1
1
1
1
1
1
1
1
1
1
1
1
1
1
1
1
1
1
1
1
1
1
1
1
1
1
1
1
1
1
1
1
1
1
1
1
1
1
1
1
1
1
1
1
1
1
1
1
1
1
1
1
1
1
1
1
1
1
1
1
1
1
1
1
1
1
1
1
1
1
1
1
1
1
1
1
1
1
1
1
1
1
1
1
1
1
1
1
1
1
1
1
1
1
1
1
1
1
1
1
1
1
1
1
1
1
1
1
1
1
1
1
1
1
1
1
1
1
0.355346
0.0278033
3.9601e-22
4.15778e-07
5.95299e-23
2.98308e-05
3.1871e-05
3.00407e-05
3.44055e-06
-6.31399e-24
-8.66067e-22
-1.2308e-21
-1.20526e-23
-4.77784e-21
0.000124694
0.000171885
0.000195427
3.48212e-05
-6.22618e-24
-2.14891e-25
0.000757155
0.00396233
0.00395875
0.00257259
0.00269897
0.00283067
0.0028303
0.00197229
0.00156981
0.000543465
8.32021e-05
4.77257e-24
0.00017486
0.000449972
0.000459968
0.00038916
8.38713e-05
7.49682e-13
7.85184e-13
1.11618e-12
1.23514e-12
8.21426e-13
2.17093e-13
9.30413e-15
5.92586e-16
5.35136e-16
4.47226e-16
3.48693e-16
2.62165e-16
1.94737e-16
1.45869e-16
1.12783e-16
9.20978e-17
8.01712e-17
7.42311e-17
7.21324e-17
7.187e-17
7.16552e-17
7.0204e-17
6.69082e-17
6.17856e-17
5.52715e-17
4.79764e-17
4.04984e-17
3.33187e-17
2.67675e-17
2.10312e-17
1.61802e-17
1.22003e-17
9.02291e-18
6.549e-18
4.66744e-18
3.26784e-18
2.24859e-18
1.52126e-18
1.01232e-18
6.62835e-19
4.27173e-19
2.71029e-19
1.69319e-19
1.04158e-19
6.30908e-20
3.76263e-20
2.20929e-20
1.27722e-20
7.26961e-21
4.07052e-21
2.23573e-21
1.19732e-21
6.29519e-22
3.86195e-22
5.23805e-22
1.4777e-21
4.54878e-21
1.30054e-20
3.43193e-20
8.43062e-20
1.9414e-19
4.21145e-19
8.63661e-19
1.6788e-18
3.09931e-18
5.44257e-18
9.10324e-18
1.45228e-17
2.21344e-17
3.22888e-17
4.5172e-17
6.07327e-17
7.86315e-17
9.82182e-17
1.18532e-16
1.38309e-16
1.55973e-16
1.69614e-16
1.77018e-16
1.53416e-16
4.19527e-17
1.48651e-14
4.10548e-15
2.52421e-16
1.70856e-16
1.48409e-06
4.52547e-06
4.52548e-06
3.99999e-06
2.84907e-07
-6.70128e-25
2.05901e-13
7.5639e-14
7.8337e-29
1.73848e-08
4.0098e-08
1.00281e-08
1.45104e-08
2.94404e-23
-3.82899e-26
-4.95067e-22
-1.31403e-28
3.74071e-28
3.52015e-28
0
0.349828
0.770495
0.929845
0.993322
1
1
1
1
1
1
1
1
1
1
1
1
1
1
1
1
1
1
1
1
1
1
1
1
1
1
1
1
1
1
1
1
1
1
1
1
1
1
1
1
1
1
1
1
1
1
1
1
1
1
1
1
1
1
1
1
1
1
1
1
1
1
1
1
1
1
1
1
1
1
1
1
1
1
1
1
1
1
1
1
1
1
1
1
1
1
1
1
1
1
1
1
1
1
1
1
1
1
1
1
1
1
1
1
1
1
1
1
1
1
1
1
1
1
1
1
1
1
1
1
1
1
1
1
1
1
1
1
1
1
1
1
1
1
1
1
1
1
1
1
1
1
1
1
1
1
1
1
1
1
1
1
1
1
1
1
1
1
1
1
1
1
1
1
1
1
1
1
1
1
1
1
1
1
1
1
1
1
1
1
1
1
1
1
1
1
1
1
1
1
1
1
1
1
1
1
1
1
1
1
1
1
1
1
1
1
1
1
1
1
1
1
1
1
1
1
1
1
1
1
1
1
1
1
1
1
1
1
1
1
1
1
1
1
1
1
1
1
1
1
1
1
1
1
1
1
1
1
1
1
1
1
1
1
1
1
1
1
1
1
1
1
1
1
1
1
1
1
1
1
1
1
1
1
1
1
1
1
1
1
1
1
1
1
1
1
1
1
1
1
1
1
1
1
1
1
1
1
1
1
1
1
1
1
0.606174
0.0325791
-3.17354e-26
1.86079e-06
3.28069e-06
3.58657e-06
2.18194e-05
-2.58969e-21
-8.23842e-21
-8.55626e-22
-4.07908e-21
-8.92767e-21
-1.06622e-20
0.00966532
0.0368916
0.0362774
0.00905224
1.12583e-20
-7.66039e-21
-1.37428e-21
1.86067e-22
-1.38682e-22
0.00210552
0.00360788
0.00360727
0.00275079
0.00072318
0.000755747
0.000194561
0.000104178
6.35097e-06
6.42066e-21
3.34288e-39
-2.3812e-22
0.000300044
0.000443037
0.000447878
0.000106258
8.16602e-13
8.50195e-13
1.17178e-12
1.22606e-12
7.76897e-13
1.88113e-13
5.06135e-15
4.97364e-16
4.53132e-16
3.76317e-16
2.93141e-16
2.22161e-16
1.69626e-16
1.38276e-16
1.29692e-16
1.32735e-16
1.3828e-16
1.4593e-16
1.53607e-16
1.58136e-16
1.5716e-16
1.50041e-16
1.37718e-16
1.21977e-16
1.04705e-16
8.74561e-17
7.13024e-17
5.68734e-17
4.44532e-17
3.40845e-17
2.56559e-17
1.89676e-17
1.37779e-17
9.83588e-18
6.90246e-18
4.76263e-18
3.23171e-18
2.15701e-18
1.41643e-18
9.15266e-19
5.82074e-19
3.64373e-19
2.24542e-19
1.36229e-19
8.13802e-20
4.78789e-20
2.77532e-20
1.58588e-20
8.93915e-21
4.97263e-21
2.73008e-21
1.48269e-21
8.21114e-22
5.68264e-22
8.00346e-22
2.04261e-21
5.79098e-21
1.56341e-20
3.94004e-20
9.28846e-20
2.05712e-19
4.29633e-19
8.48843e-19
1.59072e-18
2.83383e-18
4.80916e-18
7.79097e-18
1.20761e-17
1.79547e-17
2.56803e-17
3.54485e-17
4.73947e-17
6.16089e-17
7.81561e-17
9.70686e-17
1.18253e-16
1.41214e-16
1.64955e-16
1.55302e-16
4.04034e-17
1.27147e-14
3.49484e-12
3.1228e-12
4.25058e-13
1.74932e-30
2.39111e-06
4.52547e-06
4.08943e-06
3.67606e-07
-3.90919e-25
3.89381e-12
8.07e-12
6.88857e-13
2.84104e-29
8.442e-33
1.17155e-05
2.56857e-05
8.96376e-06
1.52424e-07
-1.00253e-24
2.07495e-11
1.37888e-10
2.15836e-11
-1.69282e-27
-1.60821e-20
-1.30803e-20
-3.8698e-18
0.338035
0.798799
0.963064
0.999101
1
1
1
1
1
1
1
1
1
1
1
1
1
1
1
1
1
1
1
1
1
1
1
1
1
1
1
1
1
1
1
1
1
1
1
1
1
1
1
1
1
1
1
1
1
1
1
1
1
1
1
1
1
1
1
1
1
1
1
1
1
1
1
1
1
1
1
1
1
1
1
1
1
1
1
1
1
1
1
1
1
1
1
1
1
1
1
1
1
1
1
1
1
1
1
1
1
1
1
1
1
1
1
1
1
1
1
1
1
1
1
1
1
1
1
1
1
1
1
1
1
1
1
1
1
1
1
1
1
1
1
1
1
1
1
1
1
1
1
1
1
1
1
1
1
1
1
1
1
1
1
1
1
1
1
1
1
1
1
1
1
1
1
1
1
1
1
1
1
1
1
1
1
1
1
1
1
1
1
1
1
1
1
1
1
1
1
1
1
1
1
1
1
1
1
1
1
1
1
1
1
1
1
1
1
1
1
1
1
1
1
1
1
1
1
1
1
1
1
1
1
1
1
1
1
1
1
1
1
1
1
1
1
1
1
1
1
1
1
1
1
1
1
1
1
1
1
1
1
1
1
1
1
1
1
1
1
1
1
1
1
1
1
1
1
1
1
1
1
1
1
1
1
1
1
1
1
1
1
1
1
1
1
1
1
1
1
1
1
1
1
1
1
1
1
1
1
1
1
1
1
0.606149
0.0266833
-1.15017e-22
3.68533e-24
3.0764e-05
3.18899e-05
2.20599e-05
0.00139779
0.0080011
0.00333986
0.0223235
0.0333362
0.0539137
0.0875564
0.0873159
0.0875564
0.0115745
8.5691e-20
-3.80146e-23
1.32506e-07
1.30251e-07
3.86746e-12
6.23076e-05
0.000294178
5.74714e-05
-1.95665e-22
2.24353e-28
-2.5053e-28
9.9446e-05
0.00630869
0.00752376
0.00149678
-6.92264e-22
3.96049e-39
4.77658e-27
0.000148057
0.000443037
0.000432267
0.000114455
1.27766e-06
7.94338e-13
9.94827e-13
1.0845e-12
5.75213e-13
1.00694e-13
4.85954e-16
4.33193e-16
3.95457e-16
3.3196e-16
2.65582e-16
2.24348e-16
2.58493e-16
3.70207e-16
3.78949e-16
3.58102e-16
3.51549e-16
3.54372e-16
3.54109e-16
3.4235e-16
3.17565e-16
2.83139e-16
2.44063e-16
2.04642e-16
1.67712e-16
1.34776e-16
1.06409e-16
8.26274e-17
6.3135e-17
4.74786e-17
3.51407e-17
2.55963e-17
1.83464e-17
1.29386e-17
8.97752e-18
6.12833e-18
4.11573e-18
2.71949e-18
1.76805e-18
1.1311e-18
7.12123e-19
4.41265e-19
2.6915e-19
1.6163e-19
9.55878e-20
5.56937e-20
3.19865e-20
1.81205e-20
1.01326e-20
5.59644e-21
3.05615e-21
1.65892e-21
9.30742e-22
6.64574e-22
9.23244e-22
2.20287e-21
5.86373e-21
1.50103e-20
3.6073e-20
8.13705e-20
1.72851e-19
3.46964e-19
6.6017e-19
1.19414e-18
2.05947e-18
3.39747e-18
5.38129e-18
8.22039e-18
1.21754e-17
1.75917e-17
2.49596e-17
3.5001e-17
4.87723e-17
6.7754e-17
9.38572e-17
1.29141e-16
1.76503e-16
1.86129e-16
6.58005e-17
4.0398e-17
1.95886e-11
2.75283e-11
5.10107e-12
1.57945e-28
3.9907e-07
5.42832e-07
-1.61085e-24
-1.39443e-25
8.67916e-12
2.66466e-11
2.89561e-11
2.30584e-11
4.11198e-12
5.14295e-29
3.75724e-05
6.72441e-05
6.73929e-05
9.95524e-06
6.22497e-24
-1.32866e-21
3.7868e-10
1.65009e-09
7.6277e-10
-1.10236e-26
1.09278e-30
-2.23777e-19
-2.97668e-19
-3.16947e-18
0
0.487467
0.878642
0.991036
1
1
1
1
1
1
1
1
1
1
1
1
1
1
1
1
1
1
1
1
1
1
1
1
1
1
1
1
1
1
1
1
1
1
1
1
1
1
1
1
1
1
1
1