/*--------------------------------*- C++ -*----------------------------------*\
| =========                 |                                                 |
| \\      /  F ield         | OpenFOAM: The Open Source CFD Toolbox           |
|  \\    /   O peration     | Version:  v2006                                 |
|   \\  /    A nd           | Website:  www.openfoam.com                      |
|    \\/     M anipulation  |                                                 |
\*---------------------------------------------------------------------------*/
FoamFile
{
    version     2.0;
    format      ascii;
    class       volVectorField;
    location    "0";
    object      U_new;
}
// * * * * * * * * * * * * * * * * * * * * * * * * * * * * * * * * * * * * * //

dimensions      [0 1 -1 0 0 0 0];


internalField   nonuniform List<vector> 
2500
(
(0.000272 -0.009248 0)
(0.000272 -0.027744 0)
(0.000272 -0.04624 0)
(0.000272 -0.064736 0)
(0.000272 -0.083232 0)
(0.000272 -0.101728 0)
(0.000272 -0.120224 0)
(0.000272 -0.13872 0)
(0.000272 -0.157216 0)
(0.000272 -0.175712 0)
(0.000272 -0.194208 0)
(0.000272 -0.212704 0)
(0.000272 -0.2312 0)
(0.000272 -0.249696 0)
(0.000272 -0.268192 0)
(0.000272 -0.286688 0)
(0.000272 -0.305184 0)
(0.000272 -0.32368 0)
(0.000272 -0.342176 0)
(0.000272 -0.360672 0)
(0.000272 -0.379168 0)
(0.000272 -0.397664 0)
(0.000272 -0.41616 0)
(0.000272 -0.434656 0)
(0.000272 -0.453152 0)
(0.000272 -0.471648 0)
(0.000272 -0.490144 0)
(0.000272 -0.50864 0)
(0.000272 -0.527136 0)
(0.000272 -0.545632 0)
(0.000272 -0.564128 0)
(0.000272 -0.582624 0)
(0.000272 -0.60112 0)
(0.000272 -0.619616 0)
(0.000272 -0.638112 0)
(0.000272 -0.656608 0)
(0.000272 -0.675104 0)
(0.000272 -0.6936 0)
(0.000272 -0.712096 0)
(0.000272 -0.730592 0)
(0.000272 -0.749088 0)
(0.000272 -0.767584 0)
(0.000272 -0.78608 0)
(0.000272 -0.804576 0)
(0.000272 -0.823072 0)
(0.000272 -0.841568 0)
(0.000272 -0.860064 0)
(0.000272 -0.87856 0)
(0.000272 -0.897056 0)
(0.000272 -0.915552 0)
(0.002448 -0.009248 0)
(0.002448 -0.027744 0)
(0.002448 -0.04624 0)
(0.002448 -0.064736 0)
(0.002448 -0.083232 0)
(0.002448 -0.101728 0)
(0.002448 -0.120224 0)
(0.002448 -0.13872 0)
(0.002448 -0.157216 0)
(0.002448 -0.175712 0)
(0.002448 -0.194208 0)
(0.002448 -0.212704 0)
(0.002448 -0.2312 0)
(0.002448 -0.249696 0)
(0.002448 -0.268192 0)
(0.002448 -0.286688 0)
(0.002448 -0.305184 0)
(0.002448 -0.32368 0)
(0.002448 -0.342176 0)
(0.002448 -0.360672 0)
(0.002448 -0.379168 0)
(0.002448 -0.397664 0)
(0.002448 -0.41616 0)
(0.002448 -0.434656 0)
(0.002448 -0.453152 0)
(0.002448 -0.471648 0)
(0.002448 -0.490144 0)
(0.002448 -0.50864 0)
(0.002448 -0.527136 0)
(0.002448 -0.545632 0)
(0.002448 -0.564128 0)
(0.002448 -0.582624 0)
(0.002448 -0.60112 0)
(0.002448 -0.619616 0)
(0.002448 -0.638112 0)
(0.002448 -0.656608 0)
(0.002448 -0.675104 0)
(0.002448 -0.6936 0)
(0.002448 -0.712096 0)
(0.002448 -0.730592 0)
(0.002448 -0.749088 0)
(0.002448 -0.767584 0)
(0.002448 -0.78608 0)
(0.002448 -0.804576 0)
(0.002448 -0.823072 0)
(0.002448 -0.841568 0)
(0.002448 -0.860064 0)
(0.002448 -0.87856 0)
(0.002448 -0.897056 0)
(0.002448 -0.915552 0)
(0.0068 -0.009248 0)
(0.0068 -0.027744 0)
(0.0068 -0.04624 0)
(0.0068 -0.064736 0)
(0.0068 -0.083232 0)
(0.0068 -0.101728 0)
(0.0068 -0.120224 0)
(0.0068 -0.13872 0)
(0.0068 -0.157216 0)
(0.0068 -0.175712 0)
(0.0068 -0.194208 0)
(0.0068 -0.212704 0)
(0.0068 -0.2312 0)
(0.0068 -0.249696 0)
(0.0068 -0.268192 0)
(0.0068 -0.286688 0)
(0.0068 -0.305184 0)
(0.0068 -0.32368 0)
(0.0068 -0.342176 0)
(0.0068 -0.360672 0)
(0.0068 -0.379168 0)
(0.0068 -0.397664 0)
(0.0068 -0.41616 0)
(0.0068 -0.434656 0)
(0.0068 -0.453152 0)
(0.0068 -0.471648 0)
(0.0068 -0.490144 0)
(0.0068 -0.50864 0)
(0.0068 -0.527136 0)
(0.0068 -0.545632 0)
(0.0068 -0.564128 0)
(0.0068 -0.582624 0)
(0.0068 -0.60112 0)
(0.0068 -0.619616 0)
(0.0068 -0.638112 0)
(0.0068 -0.656608 0)
(0.0068 -0.675104 0)
(0.0068 -0.6936 0)
(0.0068 -0.712096 0)
(0.0068 -0.730592 0)
(0.0068 -0.749088 0)
(0.0068 -0.767584 0)
(0.0068 -0.78608 0)
(0.0068 -0.804576 0)
(0.0068 -0.823072 0)
(0.0068 -0.841568 0)
(0.0068 -0.860064 0)
(0.0068 -0.87856 0)
(0.0068 -0.897056 0)
(0.0068 -0.915552 0)
(0.013328 -0.009248 0)
(0.013328 -0.027744 0)
(0.013328 -0.04624 0)
(0.013328 -0.064736 0)
(0.013328 -0.083232 0)
(0.013328 -0.101728 0)
(0.013328 -0.120224 0)
(0.013328 -0.13872 0)
(0.013328 -0.157216 0)
(0.013328 -0.175712 0)
(0.013328 -0.194208 0)
(0.013328 -0.212704 0)
(0.013328 -0.2312 0)
(0.013328 -0.249696 0)
(0.013328 -0.268192 0)
(0.013328 -0.286688 0)
(0.013328 -0.305184 0)
(0.013328 -0.32368 0)
(0.013328 -0.342176 0)
(0.013328 -0.360672 0)
(0.013328 -0.379168 0)
(0.013328 -0.397664 0)
(0.013328 -0.41616 0)
(0.013328 -0.434656 0)
(0.013328 -0.453152 0)
(0.013328 -0.471648 0)
(0.013328 -0.490144 0)
(0.013328 -0.50864 0)
(0.013328 -0.527136 0)
(0.013328 -0.545632 0)
(0.013328 -0.564128 0)
(0.013328 -0.582624 0)
(0.013328 -0.60112 0)
(0.013328 -0.619616 0)
(0.013328 -0.638112 0)
(0.013328 -0.656608 0)
(0.013328 -0.675104 0)
(0.013328 -0.6936 0)
(0.013328 -0.712096 0)
(0.013328 -0.730592 0)
(0.013328 -0.749088 0)
(0.013328 -0.767584 0)
(0.013328 -0.78608 0)
(0.013328 -0.804576 0)
(0.013328 -0.823072 0)
(0.013328 -0.841568 0)
(0.013328 -0.860064 0)
(0.013328 -0.87856 0)
(0.013328 -0.897056 0)
(0.013328 -0.915552 0)
(0.022032 -0.009248 0)
(0.022032 -0.027744 0)
(0.022032 -0.04624 0)
(0.022032 -0.064736 0)
(0.022032 -0.083232 0)
(0.022032 -0.101728 0)
(0.022032 -0.120224 0)
(0.022032 -0.13872 0)
(0.022032 -0.157216 0)
(0.022032 -0.175712 0)
(0.022032 -0.194208 0)
(0.022032 -0.212704 0)
(0.022032 -0.2312 0)
(0.022032 -0.249696 0)
(0.022032 -0.268192 0)
(0.022032 -0.286688 0)
(0.022032 -0.305184 0)
(0.022032 -0.32368 0)
(0.022032 -0.342176 0)
(0.022032 -0.360672 0)
(0.022032 -0.379168 0)
(0.022032 -0.397664 0)
(0.022032 -0.41616 0)
(0.022032 -0.434656 0)
(0.022032 -0.453152 0)
(0.022032 -0.471648 0)
(0.022032 -0.490144 0)
(0.022032 -0.50864 0)
(0.022032 -0.527136 0)
(0.022032 -0.545632 0)
(0.022032 -0.564128 0)
(0.022032 -0.582624 0)
(0.022032 -0.60112 0)
(0.022032 -0.619616 0)
(0.022032 -0.638112 0)
(0.022032 -0.656608 0)
(0.022032 -0.675104 0)
(0.022032 -0.6936 0)
(0.022032 -0.712096 0)
(0.022032 -0.730592 0)
(0.022032 -0.749088 0)
(0.022032 -0.767584 0)
(0.022032 -0.78608 0)
(0.022032 -0.804576 0)
(0.022032 -0.823072 0)
(0.022032 -0.841568 0)
(0.022032 -0.860064 0)
(0.022032 -0.87856 0)
(0.022032 -0.897056 0)
(0.022032 -0.915552 0)
(0.032912 -0.009248 0)
(0.032912 -0.027744 0)
(0.032912 -0.04624 0)
(0.032912 -0.064736 0)
(0.032912 -0.083232 0)
(0.032912 -0.101728 0)
(0.032912 -0.120224 0)
(0.032912 -0.13872 0)
(0.032912 -0.157216 0)
(0.032912 -0.175712 0)
(0.032912 -0.194208 0)
(0.032912 -0.212704 0)
(0.032912 -0.2312 0)
(0.032912 -0.249696 0)
(0.032912 -0.268192 0)
(0.032912 -0.286688 0)
(0.032912 -0.305184 0)
(0.032912 -0.32368 0)
(0.032912 -0.342176 0)
(0.032912 -0.360672 0)
(0.032912 -0.379168 0)
(0.032912 -0.397664 0)
(0.032912 -0.41616 0)
(0.032912 -0.434656 0)
(0.032912 -0.453152 0)
(0.032912 -0.471648 0)
(0.032912 -0.490144 0)
(0.032912 -0.50864 0)
(0.032912 -0.527136 0)
(0.032912 -0.545632 0)
(0.032912 -0.564128 0)
(0.032912 -0.582624 0)
(0.032912 -0.60112 0)
(0.032912 -0.619616 0)
(0.032912 -0.638112 0)
(0.032912 -0.656608 0)
(0.032912 -0.675104 0)
(0.032912 -0.6936 0)
(0.032912 -0.712096 0)
(0.032912 -0.730592 0)
(0.032912 -0.749088 0)
(0.032912 -0.767584 0)
(0.032912 -0.78608 0)
(0.032912 -0.804576 0)
(0.032912 -0.823072 0)
(0.032912 -0.841568 0)
(0.032912 -0.860064 0)
(0.032912 -0.87856 0)
(0.032912 -0.897056 0)
(0.032912 -0.915552 0)
(0.045968 -0.009248 0)
(0.045968 -0.027744 0)
(0.045968 -0.04624 0)
(0.045968 -0.064736 0)
(0.045968 -0.083232 0)
(0.045968 -0.101728 0)
(0.045968 -0.120224 0)
(0.045968 -0.13872 0)
(0.045968 -0.157216 0)
(0.045968 -0.175712 0)
(0.045968 -0.194208 0)
(0.045968 -0.212704 0)
(0.045968 -0.2312 0)
(0.045968 -0.249696 0)
(0.045968 -0.268192 0)
(0.045968 -0.286688 0)
(0.045968 -0.305184 0)
(0.045968 -0.32368 0)
(0.045968 -0.342176 0)
(0.045968 -0.360672 0)
(0.045968 -0.379168 0)
(0.045968 -0.397664 0)
(0.045968 -0.41616 0)
(0.045968 -0.434656 0)
(0.045968 -0.453152 0)
(0.045968 -0.471648 0)
(0.045968 -0.490144 0)
(0.045968 -0.50864 0)
(0.045968 -0.527136 0)
(0.045968 -0.545632 0)
(0.045968 -0.564128 0)
(0.045968 -0.582624 0)
(0.045968 -0.60112 0)
(0.045968 -0.619616 0)
(0.045968 -0.638112 0)
(0.045968 -0.656608 0)
(0.045968 -0.675104 0)
(0.045968 -0.6936 0)
(0.045968 -0.712096 0)
(0.045968 -0.730592 0)
(0.045968 -0.749088 0)
(0.045968 -0.767584 0)
(0.045968 -0.78608 0)
(0.045968 -0.804576 0)
(0.045968 -0.823072 0)
(0.045968 -0.841568 0)
(0.045968 -0.860064 0)
(0.045968 -0.87856 0)
(0.045968 -0.897056 0)
(0.045968 -0.915552 0)
(0.0612 -0.009248 0)
(0.0612 -0.027744 0)
(0.0612 -0.04624 0)
(0.0612 -0.064736 0)
(0.0612 -0.083232 0)
(0.0612 -0.101728 0)
(0.0612 -0.120224 0)
(0.0612 -0.13872 0)
(0.0612 -0.157216 0)
(0.0612 -0.175712 0)
(0.0612 -0.194208 0)
(0.0612 -0.212704 0)
(0.0612 -0.2312 0)
(0.0612 -0.249696 0)
(0.0612 -0.268192 0)
(0.0612 -0.286688 0)
(0.0612 -0.305184 0)
(0.0612 -0.32368 0)
(0.0612 -0.342176 0)
(0.0612 -0.360672 0)
(0.0612 -0.379168 0)
(0.0612 -0.397664 0)
(0.0612 -0.41616 0)
(0.0612 -0.434656 0)
(0.0612 -0.453152 0)
(0.0612 -0.471648 0)
(0.0612 -0.490144 0)
(0.0612 -0.50864 0)
(0.0612 -0.527136 0)
(0.0612 -0.545632 0)
(0.0612 -0.564128 0)
(0.0612 -0.582624 0)
(0.0612 -0.60112 0)
(0.0612 -0.619616 0)
(0.0612 -0.638112 0)
(0.0612 -0.656608 0)
(0.0612 -0.675104 0)
(0.0612 -0.6936 0)
(0.0612 -0.712096 0)
(0.0612 -0.730592 0)
(0.0612 -0.749088 0)
(0.0612 -0.767584 0)
(0.0612 -0.78608 0)
(0.0612 -0.804576 0)
(0.0612 -0.823072 0)
(0.0612 -0.841568 0)
(0.0612 -0.860064 0)
(0.0612 -0.87856 0)
(0.0612 -0.897056 0)
(0.0612 -0.915552 0)
(0.078608 -0.009248 0)
(0.078608 -0.027744 0)
(0.078608 -0.04624 0)
(0.078608 -0.064736 0)
(0.078608 -0.083232 0)
(0.078608 -0.101728 0)
(0.078608 -0.120224 0)
(0.078608 -0.13872 0)
(0.078608 -0.157216 0)
(0.078608 -0.175712 0)
(0.078608 -0.194208 0)
(0.078608 -0.212704 0)
(0.078608 -0.2312 0)
(0.078608 -0.249696 0)
(0.078608 -0.268192 0)
(0.078608 -0.286688 0)
(0.078608 -0.305184 0)
(0.078608 -0.32368 0)
(0.078608 -0.342176 0)
(0.078608 -0.360672 0)
(0.078608 -0.379168 0)
(0.078608 -0.397664 0)
(0.078608 -0.41616 0)
(0.078608 -0.434656 0)
(0.078608 -0.453152 0)
(0.078608 -0.471648 0)
(0.078608 -0.490144 0)
(0.078608 -0.50864 0)
(0.078608 -0.527136 0)
(0.078608 -0.545632 0)
(0.078608 -0.564128 0)
(0.078608 -0.582624 0)
(0.078608 -0.60112 0)
(0.078608 -0.619616 0)
(0.078608 -0.638112 0)
(0.078608 -0.656608 0)
(0.078608 -0.675104 0)
(0.078608 -0.6936 0)
(0.078608 -0.712096 0)
(0.078608 -0.730592 0)
(0.078608 -0.749088 0)
(0.078608 -0.767584 0)
(0.078608 -0.78608 0)
(0.078608 -0.804576 0)
(0.078608 -0.823072 0)
(0.078608 -0.841568 0)
(0.078608 -0.860064 0)
(0.078608 -0.87856 0)
(0.078608 -0.897056 0)
(0.078608 -0.915552 0)
(0.098192 -0.009248 0)
(0.098192 -0.027744 0)
(0.098192 -0.04624 0)
(0.098192 -0.064736 0)
(0.098192 -0.083232 0)
(0.098192 -0.101728 0)
(0.098192 -0.120224 0)
(0.098192 -0.13872 0)
(0.098192 -0.157216 0)
(0.098192 -0.175712 0)
(0.098192 -0.194208 0)
(0.098192 -0.212704 0)
(0.098192 -0.2312 0)
(0.098192 -0.249696 0)
(0.098192 -0.268192 0)
(0.098192 -0.286688 0)
(0.098192 -0.305184 0)
(0.098192 -0.32368 0)
(0.098192 -0.342176 0)
(0.098192 -0.360672 0)
(0.098192 -0.379168 0)
(0.098192 -0.397664 0)
(0.098192 -0.41616 0)
(0.098192 -0.434656 0)
(0.098192 -0.453152 0)
(0.098192 -0.471648 0)
(0.098192 -0.490144 0)
(0.098192 -0.50864 0)
(0.098192 -0.527136 0)
(0.098192 -0.545632 0)
(0.098192 -0.564128 0)
(0.098192 -0.582624 0)
(0.098192 -0.60112 0)
(0.098192 -0.619616 0)
(0.098192 -0.638112 0)
(0.098192 -0.656608 0)
(0.098192 -0.675104 0)
(0.098192 -0.6936 0)
(0.098192 -0.712096 0)
(0.098192 -0.730592 0)
(0.098192 -0.749088 0)
(0.098192 -0.767584 0)
(0.098192 -0.78608 0)
(0.098192 -0.804576 0)
(0.098192 -0.823072 0)
(0.098192 -0.841568 0)
(0.098192 -0.860064 0)
(0.098192 -0.87856 0)
(0.098192 -0.897056 0)
(0.098192 -0.915552 0)
(0.119952 -0.009248 0)
(0.119952 -0.027744 0)
(0.119952 -0.04624 0)
(0.119952 -0.064736 0)
(0.119952 -0.083232 0)
(0.119952 -0.101728 0)
(0.119952 -0.120224 0)
(0.119952 -0.13872 0)
(0.119952 -0.157216 0)
(0.119952 -0.175712 0)
(0.119952 -0.194208 0)
(0.119952 -0.212704 0)
(0.119952 -0.2312 0)
(0.119952 -0.249696 0)
(0.119952 -0.268192 0)
(0.119952 -0.286688 0)
(0.119952 -0.305184 0)
(0.119952 -0.32368 0)
(0.119952 -0.342176 0)
(0.119952 -0.360672 0)
(0.119952 -0.379168 0)
(0.119952 -0.397664 0)
(0.119952 -0.41616 0)
(0.119952 -0.434656 0)
(0.119952 -0.453152 0)
(0.119952 -0.471648 0)
(0.119952 -0.490144 0)
(0.119952 -0.50864 0)
(0.119952 -0.527136 0)
(0.119952 -0.545632 0)
(0.119952 -0.564128 0)
(0.119952 -0.582624 0)
(0.119952 -0.60112 0)
(0.119952 -0.619616 0)
(0.119952 -0.638112 0)
(0.119952 -0.656608 0)
(0.119952 -0.675104 0)
(0.119952 -0.6936 0)
(0.119952 -0.712096 0)
(0.119952 -0.730592 0)
(0.119952 -0.749088 0)
(0.119952 -0.767584 0)
(0.119952 -0.78608 0)
(0.119952 -0.804576 0)
(0.119952 -0.823072 0)
(0.119952 -0.841568 0)
(0.119952 -0.860064 0)
(0.119952 -0.87856 0)
(0.119952 -0.897056 0)
(0.119952 -0.915552 0)
(0.143888 -0.009248 0)
(0.143888 -0.027744 0)
(0.143888 -0.04624 0)
(0.143888 -0.064736 0)
(0.143888 -0.083232 0)
(0.143888 -0.101728 0)
(0.143888 -0.120224 0)
(0.143888 -0.13872 0)
(0.143888 -0.157216 0)
(0.143888 -0.175712 0)
(0.143888 -0.194208 0)
(0.143888 -0.212704 0)
(0.143888 -0.2312 0)
(0.143888 -0.249696 0)
(0.143888 -0.268192 0)
(0.143888 -0.286688 0)
(0.143888 -0.305184 0)
(0.143888 -0.32368 0)
(0.143888 -0.342176 0)
(0.143888 -0.360672 0)
(0.143888 -0.379168 0)
(0.143888 -0.397664 0)
(0.143888 -0.41616 0)
(0.143888 -0.434656 0)
(0.143888 -0.453152 0)
(0.143888 -0.471648 0)
(0.143888 -0.490144 0)
(0.143888 -0.50864 0)
(0.143888 -0.527136 0)
(0.143888 -0.545632 0)
(0.143888 -0.564128 0)
(0.143888 -0.582624 0)
(0.143888 -0.60112 0)
(0.143888 -0.619616 0)
(0.143888 -0.638112 0)
(0.143888 -0.656608 0)
(0.143888 -0.675104 0)
(0.143888 -0.6936 0)
(0.143888 -0.712096 0)
(0.143888 -0.730592 0)
(0.143888 -0.749088 0)
(0.143888 -0.767584 0)
(0.143888 -0.78608 0)
(0.143888 -0.804576 0)
(0.143888 -0.823072 0)
(0.143888 -0.841568 0)
(0.143888 -0.860064 0)
(0.143888 -0.87856 0)
(0.143888 -0.897056 0)
(0.143888 -0.915552 0)
(0.17 -0.009248 0)
(0.17 -0.027744 0)
(0.17 -0.04624 0)
(0.17 -0.064736 0)
(0.17 -0.083232 0)
(0.17 -0.101728 0)
(0.17 -0.120224 0)
(0.17 -0.13872 0)
(0.17 -0.157216 0)
(0.17 -0.175712 0)
(0.17 -0.194208 0)
(0.17 -0.212704 0)
(0.17 -0.2312 0)
(0.17 -0.249696 0)
(0.17 -0.268192 0)
(0.17 -0.286688 0)
(0.17 -0.305184 0)
(0.17 -0.32368 0)
(0.17 -0.342176 0)
(0.17 -0.360672 0)
(0.17 -0.379168 0)
(0.17 -0.397664 0)
(0.17 -0.41616 0)
(0.17 -0.434656 0)
(0.17 -0.453152 0)
(0.17 -0.471648 0)
(0.17 -0.490144 0)
(0.17 -0.50864 0)
(0.17 -0.527136 0)
(0.17 -0.545632 0)
(0.17 -0.564128 0)
(0.17 -0.582624 0)
(0.17 -0.60112 0)
(0.17 -0.619616 0)
(0.17 -0.638112 0)
(0.17 -0.656608 0)
(0.17 -0.675104 0)
(0.17 -0.6936 0)
(0.17 -0.712096 0)
(0.17 -0.730592 0)
(0.17 -0.749088 0)
(0.17 -0.767584 0)
(0.17 -0.78608 0)
(0.17 -0.804576 0)
(0.17 -0.823072 0)
(0.17 -0.841568 0)
(0.17 -0.860064 0)
(0.17 -0.87856 0)
(0.17 -0.897056 0)
(0.17 -0.915552 0)
(0.198288 -0.009248 0)
(0.198288 -0.027744 0)
(0.198288 -0.04624 0)
(0.198288 -0.064736 0)
(0.198288 -0.083232 0)
(0.198288 -0.101728 0)
(0.198288 -0.120224 0)
(0.198288 -0.13872 0)
(0.198288 -0.157216 0)
(0.198288 -0.175712 0)
(0.198288 -0.194208 0)
(0.198288 -0.212704 0)
(0.198288 -0.2312 0)
(0.198288 -0.249696 0)
(0.198288 -0.268192 0)
(0.198288 -0.286688 0)
(0.198288 -0.305184 0)
(0.198288 -0.32368 0)
(0.198288 -0.342176 0)
(0.198288 -0.360672 0)
(0.198288 -0.379168 0)
(0.198288 -0.397664 0)
(0.198288 -0.41616 0)
(0.198288 -0.434656 0)
(0.198288 -0.453152 0)
(0.198288 -0.471648 0)
(0.198288 -0.490144 0)
(0.198288 -0.50864 0)
(0.198288 -0.527136 0)
(0.198288 -0.545632 0)
(0.198288 -0.564128 0)
(0.198288 -0.582624 0)
(0.198288 -0.60112 0)
(0.198288 -0.619616 0)
(0.198288 -0.638112 0)
(0.198288 -0.656608 0)
(0.198288 -0.675104 0)
(0.198288 -0.6936 0)
(0.198288 -0.712096 0)
(0.198288 -0.730592 0)
(0.198288 -0.749088 0)
(0.198288 -0.767584 0)
(0.198288 -0.78608 0)
(0.198288 -0.804576 0)
(0.198288 -0.823072 0)
(0.198288 -0.841568 0)
(0.198288 -0.860064 0)
(0.198288 -0.87856 0)
(0.198288 -0.897056 0)
(0.198288 -0.915552 0)
(0.228752 -0.009248 0)
(0.228752 -0.027744 0)
(0.228752 -0.04624 0)
(0.228752 -0.064736 0)
(0.228752 -0.083232 0)
(0.228752 -0.101728 0)
(0.228752 -0.120224 0)
(0.228752 -0.13872 0)
(0.228752 -0.157216 0)
(0.228752 -0.175712 0)
(0.228752 -0.194208 0)
(0.228752 -0.212704 0)
(0.228752 -0.2312 0)
(0.228752 -0.249696 0)
(0.228752 -0.268192 0)
(0.228752 -0.286688 0)
(0.228752 -0.305184 0)
(0.228752 -0.32368 0)
(0.228752 -0.342176 0)
(0.228752 -0.360672 0)
(0.228752 -0.379168 0)
(0.228752 -0.397664 0)
(0.228752 -0.41616 0)
(0.228752 -0.434656 0)
(0.228752 -0.453152 0)
(0.228752 -0.471648 0)
(0.228752 -0.490144 0)
(0.228752 -0.50864 0)
(0.228752 -0.527136 0)
(0.228752 -0.545632 0)
(0.228752 -0.564128 0)
(0.228752 -0.582624 0)
(0.228752 -0.60112 0)
(0.228752 -0.619616 0)
(0.228752 -0.638112 0)
(0.228752 -0.656608 0)
(0.228752 -0.675104 0)
(0.228752 -0.6936 0)
(0.228752 -0.712096 0)
(0.228752 -0.730592 0)
(0.228752 -0.749088 0)
(0.228752 -0.767584 0)
(0.228752 -0.78608 0)
(0.228752 -0.804576 0)
(0.228752 -0.823072 0)
(0.228752 -0.841568 0)
(0.228752 -0.860064 0)
(0.228752 -0.87856 0)
(0.228752 -0.897056 0)
(0.228752 -0.915552 0)
(0.261392 -0.009248 0)
(0.261392 -0.027744 0)
(0.261392 -0.04624 0)
(0.261392 -0.064736 0)
(0.261392 -0.083232 0)
(0.261392 -0.101728 0)
(0.261392 -0.120224 0)
(0.261392 -0.13872 0)
(0.261392 -0.157216 0)
(0.261392 -0.175712 0)
(0.261392 -0.194208 0)
(0.261392 -0.212704 0)
(0.261392 -0.2312 0)
(0.261392 -0.249696 0)
(0.261392 -0.268192 0)
(0.261392 -0.286688 0)
(0.261392 -0.305184 0)
(0.261392 -0.32368 0)
(0.261392 -0.342176 0)
(0.261392 -0.360672 0)
(0.261392 -0.379168 0)
(0.261392 -0.397664 0)
(0.261392 -0.41616 0)
(0.261392 -0.434656 0)
(0.261392 -0.453152 0)
(0.261392 -0.471648 0)
(0.261392 -0.490144 0)
(0.261392 -0.50864 0)
(0.261392 -0.527136 0)
(0.261392 -0.545632 0)
(0.261392 -0.564128 0)
(0.261392 -0.582624 0)
(0.261392 -0.60112 0)
(0.261392 -0.619616 0)
(0.261392 -0.638112 0)
(0.261392 -0.656608 0)
(0.261392 -0.675104 0)
(0.261392 -0.6936 0)
(0.261392 -0.712096 0)
(0.261392 -0.730592 0)
(0.261392 -0.749088 0)
(0.261392 -0.767584 0)
(0.261392 -0.78608 0)
(0.261392 -0.804576 0)
(0.261392 -0.823072 0)
(0.261392 -0.841568 0)
(0.261392 -0.860064 0)
(0.261392 -0.87856 0)
(0.261392 -0.897056 0)
(0.261392 -0.915552 0)
(0.296208 -0.009248 0)
(0.296208 -0.027744 0)
(0.296208 -0.04624 0)
(0.296208 -0.064736 0)
(0.296208 -0.083232 0)
(0.296208 -0.101728 0)
(0.296208 -0.120224 0)
(0.296208 -0.13872 0)
(0.296208 -0.157216 0)
(0.296208 -0.175712 0)
(0.296208 -0.194208 0)
(0.296208 -0.212704 0)
(0.296208 -0.2312 0)
(0.296208 -0.249696 0)
(0.296208 -0.268192 0)
(0.296208 -0.286688 0)
(0.296208 -0.305184 0)
(0.296208 -0.32368 0)
(0.296208 -0.342176 0)
(0.296208 -0.360672 0)
(0.296208 -0.379168 0)
(0.296208 -0.397664 0)
(0.296208 -0.41616 0)
(0.296208 -0.434656 0)
(0.296208 -0.453152 0)
(0.296208 -0.471648 0)
(0.296208 -0.490144 0)
(0.296208 -0.50864 0)
(0.296208 -0.527136 0)
(0.296208 -0.545632 0)
(0.296208 -0.564128 0)
(0.296208 -0.582624 0)
(0.296208 -0.60112 0)
(0.296208 -0.619616 0)
(0.296208 -0.638112 0)
(0.296208 -0.656608 0)
(0.296208 -0.675104 0)
(0.296208 -0.6936 0)
(0.296208 -0.712096 0)
(0.296208 -0.730592 0)
(0.296208 -0.749088 0)
(0.296208 -0.767584 0)
(0.296208 -0.78608 0)
(0.296208 -0.804576 0)
(0.296208 -0.823072 0)
(0.296208 -0.841568 0)
(0.296208 -0.860064 0)
(0.296208 -0.87856 0)
(0.296208 -0.897056 0)
(0.296208 -0.915552 0)
(0.3332 -0.009248 0)
(0.3332 -0.027744 0)
(0.3332 -0.04624 0)
(0.3332 -0.064736 0)
(0.3332 -0.083232 0)
(0.3332 -0.101728 0)
(0.3332 -0.120224 0)
(0.3332 -0.13872 0)
(0.3332 -0.157216 0)
(0.3332 -0.175712 0)
(0.3332 -0.194208 0)
(0.3332 -0.212704 0)
(0.3332 -0.2312 0)
(0.3332 -0.249696 0)
(0.3332 -0.268192 0)
(0.3332 -0.286688 0)
(0.3332 -0.305184 0)
(0.3332 -0.32368 0)
(0.3332 -0.342176 0)
(0.3332 -0.360672 0)
(0.3332 -0.379168 0)
(0.3332 -0.397664 0)
(0.3332 -0.41616 0)
(0.3332 -0.434656 0)
(0.3332 -0.453152 0)
(0.3332 -0.471648 0)
(0.3332 -0.490144 0)
(0.3332 -0.50864 0)
(0.3332 -0.527136 0)
(0.3332 -0.545632 0)
(0.3332 -0.564128 0)
(0.3332 -0.582624 0)
(0.3332 -0.60112 0)
(0.3332 -0.619616 0)
(0.3332 -0.638112 0)
(0.3332 -0.656608 0)
(0.3332 -0.675104 0)
(0.3332 -0.6936 0)
(0.3332 -0.712096 0)
(0.3332 -0.730592 0)
(0.3332 -0.749088 0)
(0.3332 -0.767584 0)
(0.3332 -0.78608 0)
(0.3332 -0.804576 0)
(0.3332 -0.823072 0)
(0.3332 -0.841568 0)
(0.3332 -0.860064 0)
(0.3332 -0.87856 0)
(0.3332 -0.897056 0)
(0.3332 -0.915552 0)
(0.372368 -0.009248 0)
(0.372368 -0.027744 0)
(0.372368 -0.04624 0)
(0.372368 -0.064736 0)
(0.372368 -0.083232 0)
(0.372368 -0.101728 0)
(0.372368 -0.120224 0)
(0.372368 -0.13872 0)
(0.372368 -0.157216 0)
(0.372368 -0.175712 0)
(0.372368 -0.194208 0)
(0.372368 -0.212704 0)
(0.372368 -0.2312 0)
(0.372368 -0.249696 0)
(0.372368 -0.268192 0)
(0.372368 -0.286688 0)
(0.372368 -0.305184 0)
(0.372368 -0.32368 0)
(0.372368 -0.342176 0)
(0.372368 -0.360672 0)
(0.372368 -0.379168 0)
(0.372368 -0.397664 0)
(0.372368 -0.41616 0)
(0.372368 -0.434656 0)
(0.372368 -0.453152 0)
(0.372368 -0.471648 0)
(0.372368 -0.490144 0)
(0.372368 -0.50864 0)
(0.372368 -0.527136 0)
(0.372368 -0.545632 0)
(0.372368 -0.564128 0)
(0.372368 -0.582624 0)
(0.372368 -0.60112 0)
(0.372368 -0.619616 0)
(0.372368 -0.638112 0)
(0.372368 -0.656608 0)
(0.372368 -0.675104 0)
(0.372368 -0.6936 0)
(0.372368 -0.712096 0)
(0.372368 -0.730592 0)
(0.372368 -0.749088 0)
(0.372368 -0.767584 0)
(0.372368 -0.78608 0)
(0.372368 -0.804576 0)
(0.372368 -0.823072 0)
(0.372368 -0.841568 0)
(0.372368 -0.860064 0)
(0.372368 -0.87856 0)
(0.372368 -0.897056 0)
(0.372368 -0.915552 0)
(0.413712 -0.009248 0)
(0.413712 -0.027744 0)
(0.413712 -0.04624 0)
(0.413712 -0.064736 0)
(0.413712 -0.083232 0)
(0.413712 -0.101728 0)
(0.413712 -0.120224 0)
(0.413712 -0.13872 0)
(0.413712 -0.157216 0)
(0.413712 -0.175712 0)
(0.413712 -0.194208 0)
(0.413712 -0.212704 0)
(0.413712 -0.2312 0)
(0.413712 -0.249696 0)
(0.413712 -0.268192 0)
(0.413712 -0.286688 0)
(0.413712 -0.305184 0)
(0.413712 -0.32368 0)
(0.413712 -0.342176 0)
(0.413712 -0.360672 0)
(0.413712 -0.379168 0)
(0.413712 -0.397664 0)
(0.413712 -0.41616 0)
(0.413712 -0.434656 0)
(0.413712 -0.453152 0)
(0.413712 -0.471648 0)
(0.413712 -0.490144 0)
(0.413712 -0.50864 0)
(0.413712 -0.527136 0)
(0.413712 -0.545632 0)
(0.413712 -0.564128 0)
(0.413712 -0.582624 0)
(0.413712 -0.60112 0)
(0.413712 -0.619616 0)
(0.413712 -0.638112 0)
(0.413712 -0.656608 0)
(0.413712 -0.675104 0)
(0.413712 -0.6936 0)
(0.413712 -0.712096 0)
(0.413712 -0.730592 0)
(0.413712 -0.749088 0)
(0.413712 -0.767584 0)
(0.413712 -0.78608 0)
(0.413712 -0.804576 0)
(0.413712 -0.823072 0)
(0.413712 -0.841568 0)
(0.413712 -0.860064 0)
(0.413712 -0.87856 0)
(0.413712 -0.897056 0)
(0.413712 -0.915552 0)
(0.457232 -0.009248 0)
(0.457232 -0.027744 0)
(0.457232 -0.04624 0)
(0.457232 -0.064736 0)
(0.457232 -0.083232 0)
(0.457232 -0.101728 0)
(0.457232 -0.120224 0)
(0.457232 -0.13872 0)
(0.457232 -0.157216 0)
(0.457232 -0.175712 0)
(0.457232 -0.194208 0)
(0.457232 -0.212704 0)
(0.457232 -0.2312 0)
(0.457232 -0.249696 0)
(0.457232 -0.268192 0)
(0.457232 -0.286688 0)
(0.457232 -0.305184 0)
(0.457232 -0.32368 0)
(0.457232 -0.342176 0)
(0.457232 -0.360672 0)
(0.457232 -0.379168 0)
(0.457232 -0.397664 0)
(0.457232 -0.41616 0)
(0.457232 -0.434656 0)
(0.457232 -0.453152 0)
(0.457232 -0.471648 0)
(0.457232 -0.490144 0)
(0.457232 -0.50864 0)
(0.457232 -0.527136 0)
(0.457232 -0.545632 0)
(0.457232 -0.564128 0)
(0.457232 -0.582624 0)
(0.457232 -0.60112 0)
(0.457232 -0.619616 0)
(0.457232 -0.638112 0)
(0.457232 -0.656608 0)
(0.457232 -0.675104 0)
(0.457232 -0.6936 0)
(0.457232 -0.712096 0)
(0.457232 -0.730592 0)
(0.457232 -0.749088 0)
(0.457232 -0.767584 0)
(0.457232 -0.78608 0)
(0.457232 -0.804576 0)
(0.457232 -0.823072 0)
(0.457232 -0.841568 0)
(0.457232 -0.860064 0)
(0.457232 -0.87856 0)
(0.457232 -0.897056 0)
(0.457232 -0.915552 0)
(0.502928 -0.009248 0)
(0.502928 -0.027744 0)
(0.502928 -0.04624 0)
(0.502928 -0.064736 0)
(0.502928 -0.083232 0)
(0.502928 -0.101728 0)
(0.502928 -0.120224 0)
(0.502928 -0.13872 0)
(0.502928 -0.157216 0)
(0.502928 -0.175712 0)
(0.502928 -0.194208 0)
(0.502928 -0.212704 0)
(0.502928 -0.2312 0)
(0.502928 -0.249696 0)
(0.502928 -0.268192 0)
(0.502928 -0.286688 0)
(0.502928 -0.305184 0)
(0.502928 -0.32368 0)
(0.502928 -0.342176 0)
(0.502928 -0.360672 0)
(0.502928 -0.379168 0)
(0.502928 -0.397664 0)
(0.502928 -0.41616 0)
(0.502928 -0.434656 0)
(0.502928 -0.453152 0)
(0.502928 -0.471648 0)
(0.502928 -0.490144 0)
(0.502928 -0.50864 0)
(0.502928 -0.527136 0)
(0.502928 -0.545632 0)
(0.502928 -0.564128 0)
(0.502928 -0.582624 0)
(0.502928 -0.60112 0)
(0.502928 -0.619616 0)
(0.502928 -0.638112 0)
(0.502928 -0.656608 0)
(0.502928 -0.675104 0)
(0.502928 -0.6936 0)
(0.502928 -0.712096 0)
(0.502928 -0.730592 0)
(0.502928 -0.749088 0)
(0.502928 -0.767584 0)
(0.502928 -0.78608 0)
(0.502928 -0.804576 0)
(0.502928 -0.823072 0)
(0.502928 -0.841568 0)
(0.502928 -0.860064 0)
(0.502928 -0.87856 0)
(0.502928 -0.897056 0)
(0.502928 -0.915552 0)
(0.5508 -0.009248 0)
(0.5508 -0.027744 0)
(0.5508 -0.04624 0)
(0.5508 -0.064736 0)
(0.5508 -0.083232 0)
(0.5508 -0.101728 0)
(0.5508 -0.120224 0)
(0.5508 -0.13872 0)
(0.5508 -0.157216 0)
(0.5508 -0.175712 0)
(0.5508 -0.194208 0)
(0.5508 -0.212704 0)
(0.5508 -0.2312 0)
(0.5508 -0.249696 0)
(0.5508 -0.268192 0)
(0.5508 -0.286688 0)
(0.5508 -0.305184 0)
(0.5508 -0.32368 0)
(0.5508 -0.342176 0)
(0.5508 -0.360672 0)
(0.5508 -0.379168 0)
(0.5508 -0.397664 0)
(0.5508 -0.41616 0)
(0.5508 -0.434656 0)
(0.5508 -0.453152 0)
(0.5508 -0.471648 0)
(0.5508 -0.490144 0)
(0.5508 -0.50864 0)
(0.5508 -0.527136 0)
(0.5508 -0.545632 0)
(0.5508 -0.564128 0)
(0.5508 -0.582624 0)
(0.5508 -0.60112 0)
(0.5508 -0.619616 0)
(0.5508 -0.638112 0)
(0.5508 -0.656608 0)
(0.5508 -0.675104 0)
(0.5508 -0.6936 0)
(0.5508 -0.712096 0)
(0.5508 -0.730592 0)
(0.5508 -0.749088 0)
(0.5508 -0.767584 0)
(0.5508 -0.78608 0)
(0.5508 -0.804576 0)
(0.5508 -0.823072 0)
(0.5508 -0.841568 0)
(0.5508 -0.860064 0)
(0.5508 -0.87856 0)
(0.5508 -0.897056 0)
(0.5508 -0.915552 0)
(0.600848 -0.009248 0)
(0.600848 -0.027744 0)
(0.600848 -0.04624 0)
(0.600848 -0.064736 0)
(0.600848 -0.083232 0)
(0.600848 -0.101728 0)
(0.600848 -0.120224 0)
(0.600848 -0.13872 0)
(0.600848 -0.157216 0)
(0.600848 -0.175712 0)
(0.600848 -0.194208 0)
(0.600848 -0.212704 0)
(0.600848 -0.2312 0)
(0.600848 -0.249696 0)
(0.600848 -0.268192 0)
(0.600848 -0.286688 0)
(0.600848 -0.305184 0)
(0.600848 -0.32368 0)
(0.600848 -0.342176 0)
(0.600848 -0.360672 0)
(0.600848 -0.379168 0)
(0.600848 -0.397664 0)
(0.600848 -0.41616 0)
(0.600848 -0.434656 0)
(0.600848 -0.453152 0)
(0.600848 -0.471648 0)
(0.600848 -0.490144 0)
(0.600848 -0.50864 0)
(0.600848 -0.527136 0)
(0.600848 -0.545632 0)
(0.600848 -0.564128 0)
(0.600848 -0.582624 0)
(0.600848 -0.60112 0)
(0.600848 -0.619616 0)
(0.600848 -0.638112 0)
(0.600848 -0.656608 0)
(0.600848 -0.675104 0)
(0.600848 -0.6936 0)
(0.600848 -0.712096 0)
(0.600848 -0.730592 0)
(0.600848 -0.749088 0)
(0.600848 -0.767584 0)
(0.600848 -0.78608 0)
(0.600848 -0.804576 0)
(0.600848 -0.823072 0)
(0.600848 -0.841568 0)
(0.600848 -0.860064 0)
(0.600848 -0.87856 0)
(0.600848 -0.897056 0)
(0.600848 -0.915552 0)
(0.653072 -0.009248 0)
(0.653072 -0.027744 0)
(0.653072 -0.04624 0)
(0.653072 -0.064736 0)
(0.653072 -0.083232 0)
(0.653072 -0.101728 0)
(0.653072 -0.120224 0)
(0.653072 -0.13872 0)
(0.653072 -0.157216 0)
(0.653072 -0.175712 0)
(0.653072 -0.194208 0)
(0.653072 -0.212704 0)
(0.653072 -0.2312 0)
(0.653072 -0.249696 0)
(0.653072 -0.268192 0)
(0.653072 -0.286688 0)
(0.653072 -0.305184 0)
(0.653072 -0.32368 0)
(0.653072 -0.342176 0)
(0.653072 -0.360672 0)
(0.653072 -0.379168 0)
(0.653072 -0.397664 0)
(0.653072 -0.41616 0)
(0.653072 -0.434656 0)
(0.653072 -0.453152 0)
(0.653072 -0.471648 0)
(0.653072 -0.490144 0)
(0.653072 -0.50864 0)
(0.653072 -0.527136 0)
(0.653072 -0.545632 0)
(0.653072 -0.564128 0)
(0.653072 -0.582624 0)
(0.653072 -0.60112 0)
(0.653072 -0.619616 0)
(0.653072 -0.638112 0)
(0.653072 -0.656608 0)
(0.653072 -0.675104 0)
(0.653072 -0.6936 0)
(0.653072 -0.712096 0)
(0.653072 -0.730592 0)
(0.653072 -0.749088 0)
(0.653072 -0.767584 0)
(0.653072 -0.78608 0)
(0.653072 -0.804576 0)
(0.653072 -0.823072 0)
(0.653072 -0.841568 0)
(0.653072 -0.860064 0)
(0.653072 -0.87856 0)
(0.653072 -0.897056 0)
(0.653072 -0.915552 0)
(0.707472 -0.009248 0)
(0.707472 -0.027744 0)
(0.707472 -0.04624 0)
(0.707472 -0.064736 0)
(0.707472 -0.083232 0)
(0.707472 -0.101728 0)
(0.707472 -0.120224 0)
(0.707472 -0.13872 0)
(0.707472 -0.157216 0)
(0.707472 -0.175712 0)
(0.707472 -0.194208 0)
(0.707472 -0.212704 0)
(0.707472 -0.2312 0)
(0.707472 -0.249696 0)
(0.707472 -0.268192 0)
(0.707472 -0.286688 0)
(0.707472 -0.305184 0)
(0.707472 -0.32368 0)
(0.707472 -0.342176 0)
(0.707472 -0.360672 0)
(0.707472 -0.379168 0)
(0.707472 -0.397664 0)
(0.707472 -0.41616 0)
(0.707472 -0.434656 0)
(0.707472 -0.453152 0)
(0.707472 -0.471648 0)
(0.707472 -0.490144 0)
(0.707472 -0.50864 0)
(0.707472 -0.527136 0)
(0.707472 -0.545632 0)
(0.707472 -0.564128 0)
(0.707472 -0.582624 0)
(0.707472 -0.60112 0)
(0.707472 -0.619616 0)
(0.707472 -0.638112 0)
(0.707472 -0.656608 0)
(0.707472 -0.675104 0)
(0.707472 -0.6936 0)
(0.707472 -0.712096 0)
(0.707472 -0.730592 0)
(0.707472 -0.749088 0)
(0.707472 -0.767584 0)
(0.707472 -0.78608 0)
(0.707472 -0.804576 0)
(0.707472 -0.823072 0)
(0.707472 -0.841568 0)
(0.707472 -0.860064 0)
(0.707472 -0.87856 0)
(0.707472 -0.897056 0)
(0.707472 -0.915552 0)
(0.764048 -0.009248 0)
(0.764048 -0.027744 0)
(0.764048 -0.04624 0)
(0.764048 -0.064736 0)
(0.764048 -0.083232 0)
(0.764048 -0.101728 0)