/*--------------------------------*- C++ -*----------------------------------*\
| =========                 |                                                 |
| \\      /  F ield         | OpenFOAM: The Open Source CFD Toolbox           |
|  \\    /   O peration     | Version:  v2006                                 |
|   \\  /    A nd           | Website:  www.openfoam.com                      |
|    \\/     M anipulation  |                                                 |
\*---------------------------------------------------------------------------*/
FoamFile
{
    version     2.0;
    format      ascii;
    class       volScalarField;
    location    "7";
    object      r;
}
// * * * * * * * * * * * * * * * * * * * * * * * * * * * * * * * * * * * * * //

dimensions      [1 2 0 0 0 0 0];


internalField   nonuniform List<scalar> 
500
(
1.29589e-54
5.93486e-54
1.79936e-53
4.9477e-53
1.31643e-52
3.45609e-52
9.01171e-52
2.33912e-51
6.04874e-51
1.55871e-50
4.00304e-50
1.02459e-49
2.61367e-49
6.64487e-49
1.68365e-48
4.25155e-48
1.06995e-47
2.68348e-47
6.7073e-47
1.67073e-46
4.14734e-46
1.02597e-45
2.52926e-45
6.21361e-45
1.52118e-44
3.7111e-44
9.02198e-44
2.18562e-43
5.27614e-43
1.26918e-42
3.04222e-42
7.26631e-42
1.72937e-41
4.10121e-41
9.69119e-41
2.28182e-40
5.35328e-40
1.25138e-39
2.91463e-39
6.76393e-39
1.56398e-38
3.60312e-38
8.27053e-38
1.89144e-37
4.30975e-37
9.78382e-37
2.21287e-36
4.98646e-36
1.11947e-35
2.50387e-35
5.5794e-35
1.23861e-34
2.73936e-34
6.03571e-34
1.32485e-33
2.89708e-33
6.31112e-33
1.36962e-32
2.961e-32
6.37702e-32
1.36815e-31
2.92403e-31
6.22528e-31
1.32027e-30
2.78925e-30
5.86989e-30
1.23052e-29
2.56955e-29
5.34483e-29
1.10742e-28
2.28558e-28
4.69866e-28
9.6216e-28
1.9625e-27
3.98714e-27
8.06856e-27
1.62634e-26
3.26517e-26
6.52942e-26
1.30051e-25
2.58002e-25
5.09798e-25
1.00331e-24
1.96668e-24
3.83962e-24
7.46615e-24
1.44596e-23
2.78912e-23
5.35825e-23
1.02523e-22
1.95373e-22
3.70803e-22
7.00906e-22
1.3195e-21
2.47396e-21
4.61961e-21
8.59101e-21
1.59114e-20
2.93492e-20
5.39146e-20
9.86359e-20
1.79714e-19
3.26094e-19
5.89275e-19
1.06049e-18
1.90066e-18
3.39243e-18
6.03012e-18
1.06745e-17
1.8818e-17
3.30371e-17
5.77608e-17
1.00569e-16
1.7438e-16
3.01112e-16
5.17794e-16
8.86713e-16
1.51219e-15
2.56816e-15
4.34345e-15
7.31545e-15
1.22699e-14
2.04944e-14
3.40895e-14
5.64675e-14
9.31471e-14
1.53014e-13
2.50314e-13
4.07786e-13
6.61561e-13
1.06881e-12
1.71958e-12
2.7551e-12
4.39587e-12
6.98467e-12
1.1052e-11
1.74152e-11
2.73283e-11
4.27064e-11
6.64614e-11
1.03001e-10
1.5897e-10
2.44335e-10
3.73988e-10
5.70075e-10
8.65383e-10
1.30825e-09
1.96959e-09
2.95305e-09
4.40934e-09
6.55673e-09
9.70987e-09
1.43203e-08
2.10334e-08
3.07669e-08
4.48207e-08
6.50273e-08
9.39588e-08
1.35209e-07
1.93778e-07
2.76588e-07
3.93185e-07
5.5667e-07
7.84943e-07
1.10235e-06
1.54188e-06
2.14796e-06
2.98027e-06
4.1185e-06
5.66866e-06
7.7711e-06
1.06108e-05
1.44306e-05
1.95475e-05
2.63739e-05
3.54435e-05
4.74439e-05
6.32576e-05
8.40108e-05
0.000111136
0.000146444
0.000192217
0.000251316
0.000327313
0.000424641
0.000548786
0.000706498
0.000906046
0.00115751
0.00147314
0.00186771
0.00235899
0.00296826
0.00372084
0.00464674
0.00578136
0.00716627
0.00885
0.010889
0.0133484
0.0163033
0.0198397
0.0240555
0.0290615
0.0349829
0.0419597
0.0501482
0.059722
0.070872
0.0838079
0.0987582
0.11597
0.135711
0.158266
0.183937
0.213045
0.245926
0.282928
0.324411
0.370743
0.422298
0.47945
0.542571
0.612025
0.688166
0.771328
0.861825
0.959941
1.06593
1.18
1.30233
1.43303
1.57218
1.71978
1.87578
2.04007
2.21247
2.39273
2.58054
2.77553
2.97724
3.18518
3.39878
3.61743
3.84045
4.06715
4.29678
4.52857
4.76173
4.99545
5.22894
5.46138
5.69199
5.91999
6.14464
6.36522
6.58107
6.79155
6.99609
7.19417
7.3853
7.56909
7.74517
7.91325
8.07308
8.22448
8.36731
8.50148
8.62694
8.74368
8.85173
8.95114
9.04198
9.12434
9.19832
9.26403
9.32157
9.37103
9.41251
9.44608
9.4718
9.48971
9.49981
9.5021
9.49656
9.48313
9.46173
9.43226
9.39463
9.3487
9.29434
9.23142
9.15979
9.07933
8.98993
8.89147
8.7839
8.66716
8.54125
8.4062
8.26209
8.10906
7.94729
7.77701
7.59854
7.41223
7.2185
7.01784
6.81077
6.59789
6.37984
6.1573
5.93099
5.70167
5.47012
5.23714
5.00354
4.77013
4.53771
4.30707
4.079
3.85421
3.63343
3.41731
3.20646
3.00146
2.80279
2.61092
2.42622
2.24901
2.07956
1.91804
1.76461
1.61933
1.48221
1.35321
1.23226
1.1192
1.01388
0.916061
0.825511
0.741956
0.665098
0.594625
0.530209
0.471516
0.418204
0.369931
0.326356
0.287145
0.251969
0.22051
0.192462
0.167531
0.145438
0.125921
0.10873
0.0936343
0.0804183
0.0688826
0.0588436
0.0501331
0.0425978
0.0360984
0.0305089
0.0257161
0.0216185
0.0181254
0.0151564
0.01264
0.0105135
0.00872162
0.00721601
0.00595456
0.00490069
0.00402273
0.0032934
0.00268923
0.00219016
0.00177905
0.00144134
0.00116471
0.000938727
0.000754634
0.000605077
0.00048391
0.000386013
0.00030713
0.000243743
0.000192944
0.000152343
0.00011998
9.42533e-05
7.38556e-05
5.77263e-05
4.50061e-05
3.50008e-05
2.71517e-05
2.10102e-05
1.62175e-05
1.24869e-05
9.59076e-06
7.34812e-06
5.61603e-06
4.28168e-06
3.25638e-06
2.47056e-06
1.8698e-06
1.4117e-06
1.06325e-06
7.9887e-07
5.98787e-07
4.47739e-07
3.33993e-07
2.48548e-07
1.84523e-07
1.36665e-07
1.0098e-07
7.44373e-08
5.47421e-08
4.01636e-08
2.93987e-08
2.14688e-08
1.56415e-08
1.13695e-08
8.24519e-09
5.96564e-09
4.30641e-09
3.10155e-09
2.22868e-09
1.59783e-09
1.14294e-09
8.15707e-10
5.8085e-10
4.12683e-10
2.92546e-10
2.06919e-10
1.46028e-10
1.02827e-10
7.22467e-11
5.06486e-11
3.5429e-11
2.47285e-11
1.7222e-11
1.19681e-11
8.29884e-12
5.74207e-12
3.96443e-12
2.73122e-12
1.87758e-12
1.28798e-12
8.81642e-13
6.02213e-13
4.10475e-13
2.79192e-13
1.89497e-13
1.28348e-13
8.67491e-14
5.85103e-14
3.93817e-14
2.64517e-14
1.77302e-14
1.18598e-14
7.91674e-15
5.2738e-15
3.50601e-15
2.32603e-15
1.54005e-15
1.01759e-15
6.71021e-16
4.41593e-16
2.90026e-16
1.90099e-16
1.24354e-16
8.11841e-17
5.28959e-17
3.43965e-17
2.23229e-17
1.44588e-17
9.34678e-18
6.03037e-18
3.88311e-18
2.49558e-18
1.60075e-18
1.0248e-18
6.54809e-19
4.17598e-19
2.65811e-19
1.68872e-19
1.07082e-19
6.77726e-20
4.28124e-20
2.6994e-20
1.69883e-20
1.06714e-20
6.69125e-21
4.18917e-21
2.62345e-21
1.66254e-21
1.14248e-21
)
;

boundaryField
{
    right
    {
        type            zeroGradient;
    }
    left
    {
        type            inletOutlet;
        inletValue      uniform 0;
        value           uniform 0;
    }
    top
    {
        type            zeroGradient;
    }
    bottom
    {
        type            zeroGradient;
    }
    empty
    {
        type            empty;
    }
}


// ************************************************************************* //
