/*--------------------------------*- C++ -*----------------------------------*\
| =========                 |                                                 |
| \\      /  F ield         | OpenFOAM: The Open Source CFD Toolbox           |
|  \\    /   O peration     | Version:  v2006                                 |
|   \\  /    A nd           | Website:  www.openfoam.com                      |
|    \\/     M anipulation  |                                                 |
\*---------------------------------------------------------------------------*/
FoamFile
{
    version     2.0;
    format      ascii;
    class       volVectorField;
    location    "0";
    object      U;
}
// * * * * * * * * * * * * * * * * * * * * * * * * * * * * * * * * * * * * * //

dimensions      [0 1 -1 0 0 0 0];


internalField   nonuniform List<vector> 
20000
(
(1 -9.43224e-12 0)
(1 -3.61026e-10 0)
(1 -8.42312e-10 0)
(1 -1.37751e-09 0)
(1 -2.04749e-09 0)
(1 -2.9195e-09 0)
(1 -4.02034e-09 0)
(1 -5.40156e-09 0)
(1 -7.19017e-09 0)
(1 -9.55613e-09 0)
(1 -1.26235e-08 0)
(1 -1.63998e-08 0)
(1 -2.07766e-08 0)
(1 -2.55903e-08 0)
(1 -3.06968e-08 0)
(1 -3.60116e-08 0)
(1 -4.15035e-08 0)
(1 -4.71623e-08 0)
(1 -5.29424e-08 0)
(1 -5.86585e-08 0)
(1 -6.38895e-08 0)
(1 -6.79338e-08 0)
(1 -6.97332e-08 0)
(1 -6.80011e-08 0)
(1 -6.17106e-08 0)
(1 -5.00682e-08 0)
(1.00001 -3.3612e-08 0)
(1.00001 -1.62161e-08 0)
(1.00001 -3.52336e-09 0)
(1.00001 -9.00216e-10 0)
(1.00001 -1.28258e-08 0)
(1.00001 -4.01722e-08 0)
(1.00001 -7.65039e-08 0)
(1.00001 -1.10269e-07 0)
(1.00001 -1.31855e-07 0)
(1.00001 -1.2943e-07 0)
(1.00001 -8.05876e-08 0)
(1.00001 2.30599e-08 0)
(1.00001 1.19715e-07 0)
(1.00001 1.82842e-07 0)
(1.00001 2.17041e-07 0)
(1.00001 2.34767e-07 0)
(1.00001 2.41858e-07 0)
(1 2.38094e-07 0)
(1 2.21824e-07 0)
(1 1.93299e-07 0)
(1 1.55997e-07 0)
(1 1.15064e-07 0)
(0.999999 7.49562e-08 0)
(0.999998 3.75667e-08 0)
(0.999997 5.41224e-09 0)
(0.999997 -1.53606e-08 0)
(0.999997 -2.3612e-08 0)
(0.999997 -3.05879e-08 0)
(0.999997 -4.63309e-08 0)
(0.999997 -7.24524e-08 0)
(0.999997 -1.06527e-07 0)
(0.999998 -1.45668e-07 0)
(0.999999 -1.86221e-07 0)
(1 -2.22392e-07 0)
(1 -2.44434e-07 0)
(1 -2.37967e-07 0)
(1.00001 -1.90067e-07 0)
(1.00001 -9.96233e-08 0)
(1.00001 3.05377e-08 0)
(1.00001 1.92321e-07 0)
(1.00001 3.46355e-07 0)
(1.00001 4.41539e-07 0)
(1.00001 4.99181e-07 0)
(1.00001 5.3056e-07 0)
(1.00001 5.39146e-07 0)
(1.00001 5.2766e-07 0)
(1.00001 5.00267e-07 0)
(1 4.59249e-07 0)
(1 4.05124e-07 0)
(1 3.40122e-07 0)
(0.999998 2.69124e-07 0)
(0.999995 1.98434e-07 0)
(0.999993 1.32704e-07 0)
(0.99999 7.29092e-08 0)
(0.999988 1.82016e-08 0)
(0.999985 -3.00502e-08 0)
(0.999983 -6.81134e-08 0)
(0.999981 -9.42512e-08 0)
(0.99998 -1.10668e-07 0)
(0.999978 -1.18524e-07 0)
(0.999978 -1.13333e-07 0)
(0.999977 -9.61889e-08 0)
(0.999977 -7.94025e-08 0)
(0.999977 -7.8493e-08 0)
(0.999977 -9.20965e-08 0)
(0.999978 -1.16695e-07 0)
(0.999978 -1.49983e-07 0)
(0.99998 -1.89347e-07 0)
(0.999981 -2.29179e-07 0)
(0.999983 -2.59949e-07 0)
(0.999984 -2.71362e-07 0)
(0.999986 -2.57733e-07 0)
(0.999988 -2.21828e-07 0)
(0.999989 -1.7439e-07 0)
(0.99999 -1.29059e-07 0)
(0.999991 -9.58341e-08 0)
(0.999991 -7.77495e-08 0)
(0.999992 -7.22801e-08 0)
(0.999992 -7.46876e-08 0)
(0.999993 -8.03983e-08 0)
(0.999993 -8.60057e-08 0)
(0.999994 -8.95198e-08 0)
(0.999995 -9.01801e-08 0)
(0.999995 -8.8054e-08 0)
(0.999996 -8.36503e-08 0)
(0.999996 -7.76413e-08 0)
(0.999997 -7.06867e-08 0)
(0.999997 -6.33427e-08 0)
(0.999998 -5.60309e-08 0)
(0.999998 -4.90422e-08 0)
(0.999998 -4.25568e-08 0)
(0.999999 -3.66689e-08 0)
(0.999999 -3.14115e-08 0)
(0.999999 -2.67764e-08 0)
(0.999999 -2.27297e-08 0)
(0.999999 -1.92237e-08 0)
(0.999999 -1.62043e-08 0)
(1 -1.36165e-08 0)
(1 -1.14072e-08 0)
(1 -9.52711e-09 0)
(1 -7.93147e-09 0)
(1 -6.58047e-09 0)
(1 -5.43904e-09 0)
(1 -4.47661e-09 0)
(1 -3.66673e-09 0)
(1 -2.98653e-09 0)
(1 -2.41624e-09 0)
(1 -1.93911e-09 0)
(1 -1.54119e-09 0)
(1 -1.21033e-09 0)
(1 -9.38279e-10 0)
(1 -7.14937e-10 0)
(1 -5.10944e-10 0)
(1 -2.90564e-10 0)
(1 -4.5536e-11 0)
(1 1.61413e-10 0)
(1 2.63239e-10 0)
(1 2.96544e-10 0)
(1 2.94024e-10 0)
(1 2.77125e-10 0)
(1 2.56501e-10 0)
(1 2.3562e-10 0)
(1 2.15769e-10 0)
(1 1.97366e-10 0)
(1 1.80496e-10 0)
(1 1.65098e-10 0)
(1 1.51076e-10 0)
(1 1.38317e-10 0)
(1 1.26703e-10 0)
(1 1.16124e-10 0)
(1 1.06483e-10 0)
(1 9.76887e-11 0)
(1 8.96609e-11 0)
(1 8.23295e-11 0)
(1 7.56229e-11 0)
(1 6.9488e-11 0)
(1 6.38686e-11 0)
(1 5.87174e-11 0)
(1 5.3988e-11 0)
(1 4.96461e-11 0)
(1 4.56567e-11 0)
(1 4.19895e-11 0)
(1 3.8616e-11 0)
(1 3.55042e-11 0)
(1 3.26359e-11 0)
(1 2.99863e-11 0)
(1 2.75393e-11 0)
(1 2.52773e-11 0)
(1 2.31791e-11 0)
(1 2.12342e-11 0)
(1 1.94308e-11 0)
(1 1.7756e-11 0)
(1 1.61979e-11 0)
(1 1.47444e-11 0)
(1 1.33839e-11 0)
(1 1.21093e-11 0)
(1 1.09101e-11 0)
(1 9.77854e-12 0)
(1 8.71293e-12 0)
(1 7.70318e-12 0)
(1 6.73998e-12 0)
(1 5.82102e-12 0)
(1 4.93829e-12 0)
(1 4.08555e-12 0)
(1 3.25915e-12 0)
(1 2.45301e-12 0)
(1 1.66036e-12 0)
(1 8.76421e-13 0)
(1 9.55281e-14 0)
(1 -6.84953e-13 0)
(1 -1.5112e-12 0)
(1 -2.26283e-12 0)
(1 -4.01565e-12 0)
(1 -3.456e-12 0)
(1 -2.80301e-11 0)
(1 -1.08177e-09 0)
(1 -2.52432e-09 0)
(1 -4.12842e-09 0)
(1 -6.13656e-09 0)
(1 -8.75031e-09 0)
(1 -1.205e-08 0)
(1 -1.61903e-08 0)
(1 -2.15521e-08 0)
(1 -2.86448e-08 0)
(1 -3.78405e-08 0)
(1 -4.91628e-08 0)
(1 -6.22862e-08 0)
(1 -7.67196e-08 0)
(1 -9.2031e-08 0)
(1 -1.07975e-07 0)
(1 -1.24474e-07 0)
(1 -1.41491e-07 0)
(1 -1.58825e-07 0)
(1 -1.75882e-07 0)
(1 -1.91472e-07 0)
(1 -2.03652e-07 0)
(1 -2.0961e-07 0)
(1 -2.05851e-07 0)
(1 -1.88905e-07 0)
(1 -1.56346e-07 0)
(1.00001 -1.09595e-07 0)
(1.00001 -5.72232e-08 0)
(1.00001 -1.45686e-08 0)
(1.00001 -8.60591e-10 0)
(1.00001 -3.30043e-08 0)
(1.00001 -1.14559e-07 0)
(1.00001 -2.2659e-07 0)
(1.00001 -3.31501e-07 0)
(1.00001 -3.90071e-07 0)
(1.00001 -3.75966e-07 0)
(1.00001 -2.7921e-07 0)
(1.00001 -1.19394e-07 0)
(1.00001 3.13215e-08 0)
(1.00001 1.6455e-07 0)
(1.00001 2.69193e-07 0)
(1.00001 3.53129e-07 0)
(1.00001 4.24659e-07 0)
(1.00001 4.85326e-07 0)
(1.00001 5.33142e-07 0)
(1.00001 5.64322e-07 0)
(1.00001 5.73865e-07 0)
(1.00001 5.57746e-07 0)
(1 5.15441e-07 0)
(1 4.49779e-07 3.88082e-40)
(1 3.67375e-07 4.23969e-40)
(0.999999 2.77113e-07 0)
(0.999998 1.81613e-07 0)
(0.999997 7.5866e-08 0)
(0.999997 -4.23296e-08 0)
(0.999997 -1.6784e-07 0)
(0.999997 -2.95405e-07 0)
(0.999998 -4.2021e-07 0)
(0.999999 -5.37676e-07 0)
(1 -6.4295e-07 0)
(1 -7.29541e-07 0)
(1 -7.89009e-07 0)
(1.00001 -8.14653e-07 0)
(1.00001 -8.05249e-07 0)
(1.00001 -7.56585e-07 0)
(1.00001 -6.65541e-07 0)
(1.00002 -5.52415e-07 0)
(1.00002 -4.50318e-07 0)
(1.00002 -3.41167e-07 0)
(1.00003 -2.11082e-07 0)
(1.00003 -5.62187e-08 0)
(1.00003 1.26425e-07 0)
(1.00003 3.23127e-07 0)
(1.00003 5.30367e-07 0)
(1.00003 7.44571e-07 0)
(1.00003 9.58511e-07 0)
(1.00003 1.1618e-06 0)
(1.00003 1.34087e-06 0)
(1.00002 1.4796e-06 0)
(1.00002 1.56223e-06 0)
(1.00001 1.57863e-06 0)
(1 1.52771e-06 0)
(0.999999 1.41501e-06 0)
(0.999994 1.24849e-06 0)
(0.999989 1.03924e-06 0)
(0.999985 8.05931e-07 0)
(0.999982 5.76697e-07 0)
(0.999979 3.65622e-07 0)
(0.999978 1.76726e-07 0)
(0.999978 6.39993e-09 0)
(0.999977 -1.43885e-07 0)
(0.999978 -2.80861e-07 0)
(0.999979 -4.14667e-07 0)
(0.99998 -5.50465e-07 0)
(0.999981 -6.79385e-07 0)
(0.999983 -7.76889e-07 0)
(0.999984 -8.13839e-07 0)
(0.999986 -7.73918e-07 0)
(0.999988 -6.65943e-07 0)
(0.999989 -5.22782e-07 0)
(0.99999 -3.86007e-07 0)
(0.999991 -2.85989e-07 0)
(0.999991 -2.31826e-07 0)
(0.999992 -2.1575e-07 0)
(0.999992 -2.23365e-07 0)
(0.999993 -2.40841e-07 0)
(0.999993 -2.5791e-07 0)
(0.999994 -2.68596e-07 0)
(0.999995 -2.7064e-07 0)
(0.999995 -2.6427e-07 0)
(0.999996 -2.51037e-07 0)
(0.999996 -2.32976e-07 0)
(0.999997 -2.12077e-07 0)
(0.999997 -1.90016e-07 0)
(0.999998 -1.6806e-07 0)
(0.999998 -1.4708e-07 0)
(0.999998 -1.27616e-07 0)
(0.999999 -1.0995e-07 0)
(0.999999 -9.41786e-08 0)
(0.999999 -8.02765e-08 0)
(0.999999 -6.81412e-08 0)
(0.999999 -5.76288e-08 0)
(0.999999 -4.85766e-08 0)
(1 -4.08189e-08 0)
(1 -3.41961e-08 0)
(1 -2.85601e-08 0)
(1 -2.37768e-08 0)
(1 -1.97266e-08 0)
(1 -1.63046e-08 0)
(1 -1.3419e-08 0)
(1 -1.09906e-08 0)
(1 -8.95088e-09 0)
(1 -7.24116e-09 0)
(1 -5.81123e-09 0)
(1 -4.61831e-09 0)
(1 -3.6256e-09 0)
(1 -2.80277e-09 0)
(1 -2.1209e-09 0)
(1 -1.54536e-09 0)
(1 -1.04267e-09 0)
(1 -5.99879e-10 0)
(1 -2.44814e-10 0)
(1 -5.30782e-12 0)
(1 1.57505e-10 0)
(1 2.83342e-10 0)
(1 3.72503e-10 0)
(1 4.36575e-10 0)
(1 4.82341e-10 0)
(1 5.13281e-10 0)
(1 5.32185e-10 0)
(1 5.41342e-10 0)
(1 5.42649e-10 0)
(1 5.37726e-10 0)
(1 5.27927e-10 0)
(1 5.14378e-10 0)
(1 4.98004e-10 0)
(1 4.79582e-10 0)
(1 4.59746e-10 0)
(1 4.3901e-10 0)
(1 4.17794e-10 0)
(1 3.9642e-10 0)
(1 3.75162e-10 0)
(1 3.54225e-10 0)
(1 3.33772e-10 0)
(1 3.13917e-10 0)
(1 2.94753e-10 0)
(1 2.76345e-10 0)
(1 2.58732e-10 0)
(1 2.4194e-10 0)
(1 2.25966e-10 0)
(1 2.10818e-10 0)
(1 1.96481e-10 0)
(1 1.82941e-10 0)
(1 1.70177e-10 0)
(1 1.58149e-10 0)
(1 1.46834e-10 0)
(1 1.36205e-10 0)
(1 1.26223e-10 0)
(1 1.16854e-10 0)
(1 1.08063e-10 0)
(1 9.98127e-11 0)
(1 9.20739e-11 0)
(1 8.48106e-11 0)
(1 7.79896e-11 0)
(1 7.15899e-11 0)
(1 6.55773e-11 0)
(1 5.99163e-11 0)
(1 5.45853e-11 0)
(1 4.95554e-11 0)
(1 4.47985e-11 0)
(1 4.02917e-11 0)
(1 3.60102e-11 0)
(1 3.19291e-11 0)
(1 2.80265e-11 0)
(1 2.42819e-11 0)
(1 2.06705e-11 0)
(1 1.71589e-11 0)
(1 1.37069e-11 0)
(1 9.94319e-12 0)
(1 6.86118e-12 0)
(1 -4.58009e-11 0)
(1 -1.79857e-09 0)
(1 -4.19848e-09 0)
(1 -6.86705e-09 0)
(1 -1.02079e-08 0)
(1 -1.45566e-08 0)
(1 -2.00468e-08 0)
(1 -2.69361e-08 0)
(1 -3.58586e-08 0)
(1 -4.76629e-08 0)
(1 -6.29684e-08 0)
(1 -8.18152e-08 0)
(1 -1.03663e-07 0)
(1 -1.27696e-07 0)
(1 -1.53199e-07 0)
(1 -1.7977e-07 0)
(1 -2.07294e-07 0)
(1 -2.35705e-07 0)
(1 -2.64659e-07 0)
(1 -2.93191e-07 0)
(1 -3.19369e-07 0)
(1 -3.4001e-07 0)
(1 -3.50543e-07 0)
(1 -3.45156e-07 0)
(1 -3.17648e-07 0)
(1 -2.64017e-07 0)
(1.00001 -1.86478e-07 0)
(1.00001 -9.7502e-08 0)
(1.00001 -2.24391e-08 0)
(1.00001 4.04782e-09 0)
(1.00001 -4.84849e-08 0)
(1.00001 -1.86425e-07 0)
(1.00001 -3.77762e-07 0)
(1.00001 -5.56771e-07 0)
(1.00001 -6.52549e-07 0)
(1.00001 -6.28664e-07 0)
(1.00001 -5.01946e-07 0)
(1.00001 -3.21713e-07 0)
(1.00001 -1.24482e-07 0)
(1.00001 7.37033e-08 0)
(1.00001 2.53309e-07 0)
(1.00001 4.14994e-07 0)
(1.00001 5.66691e-07 0)
(1.00001 7.11827e-07 0)
(1.00001 8.47408e-07 0)
(1.00001 9.62318e-07 0)
(1 1.03867e-06 0)
(1 1.06073e-06 0)
(1 1.02349e-06 0)
(1 9.3278e-07 0)
(0.999999 7.9803e-07 0)
(0.999998 6.25873e-07 0)
(0.999997 4.22556e-07 0)
(0.999997 1.99421e-07 0)
(0.999997 -3.15143e-08 0)
(0.999997 -2.6113e-07 0)
(0.999997 -4.8366e-07 0)
(0.999998 -6.94572e-07 0)
(0.999999 -8.90337e-07 0)
(1 -1.06831e-06 0)
(1 -1.22693e-06 0)
(1 -1.36578e-06 0)
(1.00001 -1.48337e-06 0)
(1.00001 -1.57364e-06 0)
(1.00001 -1.62893e-06 0)
(1.00001 -1.64155e-06 0)
(1.00001 -1.59803e-06 0)
(1.00002 -1.48349e-06 0)
(1.00002 -1.29977e-06 0)
(1.00002 -1.0469e-06 0)
(1.00002 -7.27039e-07 0)
(1.00002 -3.40918e-07 0)
(1.00002 9.9607e-08 0)
(1.00002 5.85412e-07 0)
(1.00002 1.10251e-06 0)
(1.00002 1.62854e-06 0)
(1.00001 2.1332e-06 0)
(1.00001 2.58095e-06 0)
(1.00001 2.93679e-06 0)
(1 3.17245e-06 0)
(0.999999 3.27025e-06 0)
(0.999995 3.22351e-06 0)
(0.999991 3.03592e-06 0)
(0.999987 2.72236e-06 0)
(0.999984 2.30995e-06 0)
(0.999981 1.83617e-06 0)
(0.999979 1.34255e-06 0)
(0.999978 8.67942e-07 0)
(0.999977 4.45572e-07 0)
(0.999977 9.21522e-08 0)
(0.999977 -1.98576e-07 0)
(0.999978 -4.4798e-07 0)
(0.999978 -6.815e-07 0)
(0.99998 -9.13886e-07 0)
(0.999981 -1.13337e-06 0)
(0.999983 -1.29953e-06 0)
(0.999984 -1.363e-06 0)
(0.999986 -1.29587e-06 0)
(0.999988 -1.11309e-06 0)
(0.999989 -8.70823e-07 0)
(0.99999 -6.40089e-07 0)
(0.999991 -4.72403e-07 0)
(0.999991 -3.82659e-07 0)
(0.999992 -3.57107e-07 0)
(0.999992 -3.71099e-07 0)
(0.999993 -4.01246e-07 0)
(0.999993 -4.30323e-07 0)
(0.999994 -4.48408e-07 0)
(0.999995 -4.51838e-07 0)
(0.999995 -4.411e-07 0)
(0.999996 -4.18864e-07 0)
(0.999996 -3.88576e-07 0)
(0.999997 -3.53585e-07 0)
(0.999997 -3.16692e-07 0)
(0.999998 -2.8001e-07 0)
(0.999998 -2.44988e-07 0)
(0.999998 -2.12518e-07 0)
(0.999999 -1.83063e-07 0)
(0.999999 -1.56779e-07 0)
(0.999999 -1.33619e-07 0)
(0.999999 -1.13407e-07 0)
(0.999999 -9.59028e-08 0)
(0.999999 -8.08324e-08 0)
(1 -6.79189e-08 0)
(1 -5.68958e-08 0)
(1 -4.75159e-08 0)
(1 -3.95556e-08 0)
(1 -3.28157e-08 0)
(1 -2.71213e-08 0)
(1 -2.23197e-08 0)
(1 -1.8279e-08 0)
(1 -1.48852e-08 0)
(1 -1.20407e-08 0)
(1 -9.66185e-09 0)
(1 -7.677e-09 0)
(1 -6.02512e-09 0)
(1 -4.65348e-09 0)
(1 -3.51778e-09 0)
(1 -2.58842e-09 0)
(1 -1.84196e-09 0)
(1 -1.25349e-09 0)
(1 -7.80145e-10 0)
(1 -3.81516e-10 0)
(1 -5.06639e-11 0)
(1 2.24756e-10 0)
(1 4.4076e-10 0)
(1 6.06542e-10 0)
(1 7.3098e-10 0)
(1 8.21166e-10 0)
(1 8.83294e-10 0)
(1 9.22584e-10 0)
(1 9.43406e-10 0)
(1 9.49425e-10 0)
(1 9.43701e-10 0)
(1 9.28771e-10 0)
(1 9.0673e-10 0)
(1 8.79323e-10 0)
(1 8.47989e-10 0)
(1 8.13894e-10 0)
(1 7.77994e-10 0)
(1 7.41054e-10 0)
(1 7.03699e-10 0)
(1 6.66427e-10 0)
(1 6.29627e-10 0)
(1 5.93595e-10 0)
(1 5.58564e-10 0)
(1 5.24707e-10 0)
(1 4.92141e-10 0)
(1 4.60953e-10 0)
(1 4.31181e-10 0)
(1 4.02854e-10 0)
(1 3.75975e-10 0)
(1 3.50527e-10 0)
(1 3.26484e-10 0)
(1 3.03795e-10 0)
(1 2.82419e-10 0)
(1 2.62311e-10 0)
(1 2.43408e-10 0)
(1 2.25653e-10 0)
(1 2.08985e-10 0)
(1 1.93343e-10 0)
(1 1.78672e-10 0)
(1 1.64911e-10 0)
(1 1.52001e-10 0)
(1 1.39893e-10 0)
(1 1.28533e-10 0)
(1 1.17858e-10 0)
(1 1.07822e-10 0)
(1 9.83779e-11 0)
(1 8.94743e-11 0)
(1 8.10652e-11 0)
(1 7.31074e-11 0)
(1 6.55586e-11 0)
(1 5.83789e-11 0)
(1 5.15312e-11 0)
(1 4.49685e-11 0)
(1 3.87006e-11 0)
(1 3.24548e-11 0)
(1 2.74937e-11 0)
(1 1.87201e-11 0)
(1 -6.2174e-11 0)
(1 -2.5088e-09 0)
(1 -5.85959e-09 0)
(1 -9.58526e-09 0)
(1 -1.42499e-08 0)
(1 -2.03221e-08 0)
(1 -2.79888e-08 0)
(1 -3.76102e-08 0)
(1 -5.0073e-08 0)
(1 -6.65634e-08 0)
(1 -8.79475e-08 0)
(1 -1.14283e-07 0)
(1 -1.44818e-07 0)
(1 -1.78417e-07 0)
(1 -2.1409e-07 0)
(1 -2.51284e-07 0)
(1 -2.89848e-07 0)
(1 -3.29716e-07 0)
(1 -3.70452e-07 0)
(1 -4.10737e-07 0)
(1 -4.47869e-07 0)
(1 -4.77363e-07 0)
(1 -4.92711e-07 0)
(1 -4.85546e-07 0)
(1 -4.46982e-07 0)
(1 -3.71041e-07 0)
(1.00001 -2.60302e-07 0)
(1.00001 -1.32559e-07 0)
(1.00001 -2.4415e-08 0)
(1.00001 1.45805e-08 0)
(1.00001 -5.94332e-08 0)
(1.00001 -2.56562e-07 0)
(1.00001 -5.31186e-07 0)
(1.00001 -7.88751e-07 0)
(1.00001 -9.29124e-07 0)
(1.00001 -8.98477e-07 0)
(1.00001 -7.10052e-07 0)
(1.00001 -4.23168e-07 0)
(1.00001 -1.04839e-07 0)
(1.00001 1.83862e-07 0)
(1.00001 4.33626e-07 0)
(1.00001 6.54435e-07 0)
(1.00001 8.58313e-07 0)
(1.00001 1.04948e-06 0)
(1.00001 1.22256e-06 0)
(1.00001 1.36189e-06 0)
(1 1.44496e-06 0)
(1 1.45394e-06 0)
(1 1.3854e-06 0)
(1 1.24834e-06 0)
(0.999999 1.05481e-06 0)
(0.999998 8.15325e-07 0)
(0.999997 5.41201e-07 0)
(0.999997 2.44275e-07 0)
(0.999997 -6.45252e-08 0)
(0.999997 -3.7653e-07 0)
(0.999997 -6.83498e-07 0)
(0.999998 -9.78248e-07 0)
(0.999999 -1.25419e-06 0)
(1 -1.50469e-06 0)
(1 -1.7226e-06 0)
(1 -1.89959e-06 0)
(1.00001 -2.02649e-06 0)
(1.00001 -2.09535e-06 0)
(1.00001 -2.10147e-06 0)
(1.00001 -2.04205e-06 0)
(1.00001 -1.91461e-06 0)
(1.00002 -1.71456e-06 0)
(1.00002 -1.44007e-06 0)
(1.00002 -1.09271e-06 0)
(1.00002 -6.73447e-07 0)
(1.00002 -1.85557e-07 0)
(1.00002 3.70418e-07 0)
(1.00002 9.82197e-07 0)
(1.00002 1.62881e-06 0)
(1.00002 2.28139e-06 0)
(1.00001 2.90334e-06 0)
(1.00001 3.45304e-06 0)
(1.00001 3.88869e-06 0)
(1 4.17368e-06 0)
(0.999999 4.28176e-06 0)
(0.999995 4.20199e-06 0)
(0.999991 3.94088e-06 0)
(0.999987 3.52032e-06 0)
(0.999984 2.9745e-06 0)
(0.999981 2.34907e-06 0)
(0.999979 1.6973e-06 0)
(0.999978 1.07787e-06 0)
(0.999977 5.31751e-07 0)
(0.999977 7.3333e-08 0)
(0.999977 -3.08926e-07 0)
(0.999978 -6.42632e-07 0)
(0.999978 -9.61527e-07 0)
(0.999979 -1.28514e-06 0)
(0.999981 -1.59532e-06 0)
(0.999983 -1.83242e-06 0)
(0.999984 -1.9237e-06 0)
(0.999986 -1.82764e-06 0)
(0.999988 -1.56535e-06 0)
(0.999989 -1.21825e-06 0)
(0.99999 -8.89339e-07 0)
(0.999991 -6.52583e-07 0)
(0.999991 -5.2816e-07 0)
(0.999992 -4.95062e-07 0)
(0.999992 -5.17391e-07 0)
(0.999993 -5.61702e-07 0)
(0.999993 -6.03671e-07 0)
(0.999994 -6.29504e-07 0)
(0.999995 -6.343e-07 0)
(0.999995 -6.18973e-07 0)
(0.999996 -5.87434e-07 0)
(0.999996 -5.44622e-07 0)
(0.999997 -4.95284e-07 0)
(0.999997 -4.43366e-07 0)
(0.999998 -3.91825e-07 0)
(0.999998 -3.42677e-07 0)
(0.999998 -2.97157e-07 0)
(0.999999 -2.55897e-07 0)
(0.999999 -2.19102e-07 0)
(0.999999 -1.86697e-07 0)
(0.999999 -1.5843e-07 0)
(0.999999 -1.33957e-07 0)
(0.999999 -1.12893e-07 0)
(1 -9.48468e-08 0)
(1 -7.94453e-08 0)
(1 -6.63416e-08 0)
(1 -5.52222e-08 0)
(1 -4.58086e-08 0)
(1 -3.78558e-08 0)
(1 -3.11506e-08 0)
(1 -2.55081e-08 0)
(1 -2.07693e-08 0)
(1 -1.67977e-08 0)
(1 -1.34763e-08 0)
(1 -1.07053e-08 0)
(1 -8.39975e-09 0)
(1 -6.48729e-09 0)
(1 -4.90676e-09 0)
(1 -3.60405e-09 0)
(1 -2.53133e-09 0)
(1 -1.64983e-09 0)
(1 -9.31525e-10 0)
(1 -3.54528e-10 0)
(1 1.00805e-10 0)
(1 4.50664e-10 0)
(1 7.20664e-10 0)
(1 9.25024e-10 0)
(1 1.07548e-09 0)
(1 1.18208e-09 0)
(1 1.25304e-09 0)
(1 1.29517e-09 0)
(1 1.31411e-09 0)
(1 1.31455e-09 0)
(1 1.30039e-09 0)
(1 1.27486e-09 0)
(1 1.24063e-09 0)
(1 1.19992e-09 0)
(1 1.15455e-09 0)
(1 1.10598e-09 0)
(1 1.05543e-09 0)
(1 1.00385e-09 0)
(1 9.52036e-10 0)
(1 9.00598e-10 0)
(1 8.50015e-10 0)
(1 8.00655e-10 0)
(1 7.52801e-10 0)
(1 7.06661e-10 0)
(1 6.62369e-10 0)
(1 6.20021e-10 0)
(1 5.79659e-10 0)
(1 5.41305e-10 0)
(1 5.04952e-10 0)
(1 4.70563e-10 0)
(1 4.38095e-10 0)
(1 4.0748e-10 0)
(1 3.78656e-10 0)
(1 3.51552e-10 0)
(1 3.26084e-10 0)
(1 3.02171e-10 0)
(1 2.79728e-10 0)
(1 2.58669e-10 0)
(1 2.38917e-10 0)
(1 2.20392e-10 0)
(1 2.03013e-10 0)
(1 1.86709e-10 0)
(1 1.71407e-10 0)
(1 1.57026e-10 0)
(1 1.43499e-10 0)
(1 1.30761e-10 0)
(1 1.18744e-10 0)
(1 1.07385e-10 0)
(1 9.66251e-11 0)
(1 8.64062e-11 0)
(1 7.66738e-11 0)
(1 6.73764e-11 0)
(1 5.84534e-11 0)
(1 4.99034e-11 0)
(1 4.14497e-11 0)
(1 3.43423e-11 0)
(1 2.22609e-11 0)
(1 -7.65982e-11 0)
(1 -3.20988e-09 0)
(1 -7.50247e-09 0)
(1 -1.22749e-08 0)
(1 -1.82507e-08 0)
(1 -2.60306e-08 0)
(1 -3.58543e-08 0)
(1 -4.81843e-08 0)
(1 -6.41587e-08 0)
(1 -8.52993e-08 0)
(1 -1.12718e-07 0)
(1 -1.46493e-07 0)
(1 -1.85662e-07 0)
(1 -2.2878e-07 0)
(1 -2.74588e-07 0)
(1 -3.22398e-07 0)
(1 -3.72044e-07 0)
(1 -4.23474e-07 0)
(1 -4.76161e-07 0)
(1 -5.28448e-07 0)
(1 -5.76919e-07 0)
(1 -6.1586e-07 0)
(1 -6.36887e-07 0)
(1 -6.29069e-07 0)
(1 -5.8046e-07 0)
(1.00001 -4.82438e-07 0)
(1.00001 -3.37393e-07 0)
(1.00001 -1.67859e-07 0)
(1.00001 -2.17413e-08 0)
(1.00001 3.45579e-08 0)
(1.00001 -5.93235e-08 0)
(1.00001 -3.19231e-07 0)
(1.00001 -6.85383e-07 0)
(1.00001 -1.03052e-06 0)
(1.00001 -1.21834e-06 0)
(1.00001 -1.17612e-06 0)
(1.00001 -9.25244e-07 0)
(1.00001 -5.52129e-07 0)
(1.00001 -1.50376e-07 0)
(1.00001 2.17074e-07 0)
(1.00001 5.35743e-07 0)
(1.00001 8.18299e-07 0)
(1.00001 1.08103e-06 0)
(1.00001 1.33009e-06 0)
(1.00001 1.55935e-06 0)
(1.00001 1.74871e-06 0)
(1 1.86732e-06 0)
(1 1.88923e-06 0)
(1 1.8079e-06 0)
(1 1.63447e-06 0)
(0.999999 1.38556e-06 0)
(0.999998 1.07607e-06 0)
(0.999997 7.20007e-07 0)
(0.999997 3.32244e-07 0)
(0.999996 -7.20662e-08 0)
(0.999997 -4.79276e-07 0)
(0.999997 -8.77976e-07 0)
(0.999998 -1.25866e-06 0)
(0.999999 -1.61331e-06 0)
(1 -1.93496e-06 0)
(1 -2.21686e-06 0)
(1 -2.45197e-06 0)
(1.00001 -2.63292e-06 0)
(1.00001 -2.7511e-06 0)
(1.00001 -2.79679e-06 0)
(1.00001 -2.75974e-06 0)
(1.00001 -2.62934e-06 0)
(1.00002 -2.3962e-06 0)
(1.00002 -2.05892e-06 0)
(1.00002 -1.61526e-06 0)
(1.00002 -1.064e-06 0)
(1.00002 -4.10066e-07 0)
(1.00002 3.36479e-07 0)
(1.00002 1.15873e-06 0)
(1.00002 2.03165e-06 0)
(1.00002 2.91844e-06 0)
(1.00001 3.76997e-06 0)
(1.00001 4.52809e-06 0)
(1.00001 5.1328e-06 0)
(1 5.53155e-06 0)
(0.999999 5.68875e-06 0)
(0.999995 5.59194e-06 0)
(0.999991 5.25135e-06 0)
(0.999987 4.69522e-06 0)
(0.999984 3.96809e-06 0)
(0.999981 3.1322e-06 0)
(0.999979 2.2646e-06 0)
(0.999978 1.44152e-06 0)
(0.999977 7.16878e-07 0)
(0.999977 1.11332e-07 0)
(0.999977 -3.88417e-07 0)
(0.999977 -8.20494e-07 0)
(0.999978 -1.23255e-06 0)
(0.999979 -1.65376e-06 0)
(0.999981 -2.06179e-06 0)
(0.999982 -2.37663e-06 0)
(0.999984 -2.49936e-06 0)
(0.999986 -2.37281e-06 0)
(0.999988 -2.02459e-06 0)
(0.999989 -1.56448e-06 0)
(0.99999 -1.13134e-06 0)
(0.999991 -8.2353e-07 0)
(0.999992 -6.65764e-07 0)
(0.999992 -6.27916e-07 0)
(0.999992 -6.6141e-07 0)
(0.999993 -7.22043e-07 0)
(0.999993 -7.78193e-07 0)
(0.999994 -8.12298e-07 0)
(0.999995 -8.1846e-07 0)
(0.999995 -7.98252e-07 0)
(0.999996 -7.57004e-07 0)
(0.999996 -7.01263e-07 0)
(0.999997 -6.37234e-07 0)
(0.999997 -5.70026e-07 0)
(0.999998 -5.03441e-07 0)
(0.999998 -4.40054e-07 0)
(0.999998 -3.81422e-07 0)
(0.999999 -3.28335e-07 0)
(0.999999 -2.81034e-07 0)
(0.999999 -2.39405e-07 0)
(0.999999 -2.03113e-07 0)
(0.999999 -1.71705e-07 0)
(0.999999 -1.44682e-07 0)
(1 -1.21537e-07 0)
(1 -1.01788e-07 0)
(1 -8.49891e-08 0)
(1 -7.07358e-08 0)
(1 -5.86704e-08 0)
(1 -4.84784e-08 0)
(1 -3.98859e-08 0)
(1 -3.26559e-08 0)
(1 -2.65843e-08 0)
(1 -2.1496e-08 0)
(1 -1.72412e-08 0)
(1 -1.36918e-08 0)
(1 -1.07387e-08 0)
(1 -8.28871e-09 0)
(1 -6.26247e-09 0)
(1 -4.59354e-09 0)
(1 -3.22822e-09 0)
(1 -2.11972e-09 0)
(1 -1.22433e-09 0)
(1 -5.02562e-10 0)
(1 7.49318e-11 0)
(1 5.31305e-10 0)
(1 8.87407e-10 0)
(1 1.15915e-09 0)
(1 1.36119e-09 0)
(1 1.50586e-09 0)
(1 1.60355e-09 0)
(1 1.66304e-09 0)
(1 1.69168e-09 0)
(1 1.69564e-09 0)
(1 1.68008e-09 0)
(1 1.64925e-09 0)
(1 1.60672e-09 0)
(1 1.55542e-09 0)
(1 1.49776e-09 0)
(1 1.43571e-09 0)
(1 1.37087e-09 0)
(1 1.30454e-09 0)
(1 1.23774e-09 0)
(1 1.17132e-09 0)
(1 1.10591e-09 0)
(1 1.04201e-09 0)
(1 9.80005e-10 0)
(1 9.20169e-10 0)
(1 8.62691e-10 0)
(1 8.077e-10 0)
(1 7.55264e-10 0)
(1 7.05414e-10 0)
(1 6.58149e-10 0)
(1 6.13421e-10 0)
(1 5.71177e-10 0)
(1 5.31339e-10 0)
(1 4.93823e-10 0)
(1 4.58539e-10 0)
(1 4.2538e-10 0)
(1 3.9424e-10 0)
(1 3.65012e-10 0)
(1 3.37586e-10 0)
(1 3.11859e-10 0)
(1 2.87732e-10 0)
(1 2.651e-10 0)
(1 2.43867e-10 0)
(1 2.23939e-10 0)
(1 2.05215e-10 0)
(1 1.87605e-10 0)
(1 1.71024e-10 0)
(1 1.55386e-10 0)
(1 1.40607e-10 0)
(1 1.26612e-10 0)
(1 1.13326e-10 0)
(1 1.00678e-10 0)
(1 8.8601e-11 0)
(1 7.70165e-11 0)
(1 6.59272e-11 0)
(1 5.49618e-11 0)
(1 4.56524e-11 0)
(1 3.01384e-11 0)
(1 -8.85272e-11 0)
(1 -3.89921e-09 0)
(1 -9.12199e-09 0)
(1 -1.4928e-08 0)
(1 -2.21988e-08 0)
(1 -3.16659e-08 0)
(1 -4.36216e-08 0)
(1 -5.863e-08 0)
(1 -7.8079e-08 0)
(1 -1.03824e-07 0)
(1 -1.37222e-07 0)
(1 -1.7837e-07 0)
(1 -2.26105e-07 0)
(1 -2.78681e-07 0)
(1 -3.34581e-07 0)
(1 -3.92996e-07 0)
(1 -4.5376e-07 0)
(1 -5.16861e-07 0)
(1 -5.81728e-07 0)
(1 -6.46426e-07 0)
(1 -7.06866e-07 0)
(1 -7.56089e-07 0)
(1 -7.83744e-07 0)
(1 -7.76082e-07 0)
(1 -7.1767e-07 0)
(1.00001 -5.9672e-07 0)
(1.00001 -4.14899e-07 0)
(1.00001 -1.99333e-07 0)
(1.00001 -1.01165e-08 0)
(1.00001 6.74158e-08 0)
(1.00001 -4.6292e-08 0)
(1.00001 -3.74653e-07 0)
(1.00001 -8.4254e-07 0)
(1.00001 -1.28534e-06 0)
(1.00001 -1.52625e-06 0)
(1.00001 -1.47258e-06 0)
(1.00001 -1.15391e-06 0)
(1.00001 -6.81702e-07 0)
(1.00001 -1.77226e-07 0)
(1.00001 2.79017e-07 0)
(1.00001 6.68907e-07 0)
(1.00001 1.01272e-06 0)
(1.00001 1.33322e-06 0)
(1.00001 1.63862e-06 0)
(1.00001 1.92148e-06 0)
(1.00001 2.1561e-06 0)
(1 2.30217e-06 0)
(1 2.32636e-06 0)
(1 2.22179e-06 0)
(1 2.00453e-06 0)
(0.999998 1.69651e-06 0)
(0.999998 1.31575e-06 0)
(0.999997 8.7856e-07 0)
(0.999996 4.03185e-07 0)
(0.999996 -9.16346e-08 0)
(0.999997 -5.89596e-07 0)
(0.999997 -1.07727e-06 0)
(0.999998 -1.54359e-06 0)
(0.999999 -1.97918e-06 0)
(1 -2.37517e-06 0)
(1 -2.72227e-06 0)
(1 -3.01025e-06 0)
(1.00001 -3.22755e-06 0)
(1.00001 -3.36185e-06 0)
(1.00001 -3.40175e-06 0)
(1.00001 -3.33755e-06 0)
(1.00001 -3.16075e-06 0)
(1.00002 -2.86429e-06 0)
(1.00002 -2.44413e-06 0)
(1.00002 -1.89786e-06 0)
(1.00002 -1.22627e-06 0)
(1.00002 -4.3454e-07 0)
(1.00002 4.6838e-07 0)
(1.00002 1.46414e-06 0)
(1.00002 2.52199e-06 0)
(1.00002 3.59631e-06 0)
(1.00001 4.62635e-06 0)
(1.00001 5.54081e-06 0)
(1.00001 6.26709e-06 0)
(1 6.74261e-06 0)
(0.999999 6.92534e-06 0)
(0.999995 6.80031e-06 0)
(0.999991 6.37906e-06 0)
(0.999987 5.69518e-06 0)
(0.999983 4.80304e-06 0)
(0.999981 3.77935e-06 0)
(0.999979 2.71837e-06 0)
(0.999978 1.71396e-06 0)
(0.999977 8.34229e-07 0)
(0.999977 1.03987e-07 0)
(0.999977 -4.9512e-07 0)
(0.999977 -1.0124e-06 0)
(0.999978 -1.51014e-06 0)
(0.999979 -2.0281e-06 0)
(0.999981 -2.53883e-06 0)
(0.999982 -2.9382e-06 0)
(0.999984 -3.09615e-06 0)
(0.999986 -2.93638e-06 0)
(0.999988 -2.49327e-06 0)
(0.99999 -1.90904e-06 0)
(0.999991 -1.36362e-06 0)
(0.999991 -9.82295e-07 0)
(0.999992 -7.93168e-07 0)
(0.999992 -7.54385e-07 0)
(0.999992 -8.02788e-07 0)
(0.999993 -8.82534e-07 0)
(0.999993 -9.54477e-07 0)
(0.999994 -9.97462e-07 0)
(0.999995 -1.00492e-06 0)
(0.999995 -9.79408e-07 0)
(0.999996 -9.27894e-07 0)
(0.999996 -8.5868e-07 0)
(0.999997 -7.79502e-07 0)
(0.999997 -6.9666e-07 0)
(0.999998 -6.14795e-07 0)
(0.999998 -5.37021e-07 0)
(0.999998 -4.65202e-07 0)
(0.999999 -4.0026e-07 0)
(0.999999 -3.42461e-07 0)
(0.999999 -2.91636e-07 0)
(0.999999 -2.47357e-07 0)
(0.999999 -2.09058e-07 0)
(1 -1.76121e-07 0)
(1 -1.4792e-07 0)
(1 -1.23864e-07 0)
(1 -1.03406e-07 0)
(1 -8.60507e-08 0)
(1 -7.1362e-08 0)
(1 -5.89555e-08 0)
(1 -4.84973e-08 0)
(1 -3.96983e-08 0)
(1 -3.23099e-08 0)
(1 -2.61187e-08 0)
(1 -2.0942e-08 0)
(1 -1.6624e-08 0)
(1 -1.30317e-08 0)
(1 -1.00521e-08 0)
(1 -7.5892e-09 0)
(1 -5.56189e-09 0)
(1 -3.90107e-09 0)
(1 -2.547e-09 0)
(1 -1.44888e-09 0)
(1 -5.64376e-10 0)
(1 1.40356e-10 0)
(1 6.93811e-10 0)
(1 1.12263e-09 0)
(1 1.44828e-09 0)
(1 1.68897e-09 0)
(1 1.8601e-09 0)
(1 1.97452e-09 0)
(1 2.04298e-09 0)
(1 2.07445e-09 0)
(1 2.07639e-09 0)
(1 2.055e-09 0)
(1 2.01543e-09 0)
(1 1.96196e-09 0)
(1 1.89809e-09 0)
(1 1.82673e-09 0)
(1 1.75023e-09 0)
(1 1.67051e-09 0)
(1 1.58912e-09 0)
(1 1.50729e-09 0)
(1 1.42602e-09 0)
(1 1.34606e-09 0)
(1 1.26802e-09 0)
(1 1.19233e-09 0)
(1 1.11934e-09 0)
(1 1.04926e-09 0)
(1 9.82235e-10 0)
(1 9.18352e-10 0)
(1 8.57641e-10 0)
(1 8.00091e-10 0)
(1 7.45644e-10 0)
(1 6.9423e-10 0)
(1 6.45754e-10 0)
(1 6.00112e-10 0)
(1 5.5719e-10 0)
(1 5.16858e-10 0)
(1 4.78985e-10 0)
(1 4.43441e-10 0)
(1 4.10092e-10 0)
(1 3.78811e-10 0)
(1 3.49477e-10 0)
(1 3.21963e-10 0)
(1 2.96149e-10 0)
(1 2.71921e-10 0)
(1 2.49157e-10 0)
(1 2.27747e-10 0)
(1 2.07588e-10 0)
(1 1.88573e-10 0)
(1 1.70603e-10 0)
(1 1.53584e-10 0)
(1 1.37426e-10 0)
(1 1.22042e-10 0)
(1 1.07351e-10 0)
(1 9.32572e-11 0)
(1 7.97622e-11 0)
(1 6.64111e-11 0)
(1 5.50423e-11 0)
(1 3.61846e-11 0)
(1 -9.74227e-11 0)
(1 -4.57427e-09 0)
(1 -1.07131e-08 0)
(1 -1.75366e-08 0)
(1 -2.60827e-08 0)
(1 -3.72122e-08 0)
(1 -5.12692e-08 0)
(1 -6.89193e-08 0)
(1 -9.17979e-08 0)
(1 -1.22091e-07 0)
(1 -1.61399e-07 0)
(1 -2.09841e-07 0)
(1 -2.66059e-07 0)
(1 -3.28014e-07 0)
(1 -3.93949e-07 0)
(1 -4.6295e-07 0)
(1 -5.34878e-07 0)
(1 -6.09796e-07 0)
(1 -6.87123e-07 0)
(1 -7.64687e-07 0)
(1 -8.37759e-07 0)
(1 -8.98191e-07 0)
(1 -9.3368e-07 0)
(1 -9.27513e-07 0)
(1 -8.60314e-07 0)
(1.00001 -7.16282e-07 0)
(1.00001 -4.95333e-07 0)
(1.00001 -2.28619e-07 0)
(1.00001 1.07808e-08 0)
(1.00001 1.15915e-07 0)
(1.00001 -1.59828e-08 0)
(1.00001 -4.19024e-07 0)
(1.00001 -1.0018e-06 0)
(1.00001 -1.55642e-06 0)
(1.00001 -1.85815e-06 0)
(1.00001 -1.79088e-06 0)
(1.00001 -1.3951e-06 0)
(1.00001 -8.14375e-07 0)
(1.00001 -2.03255e-07 0)
(1.00001 3.402e-07 0)
(1.00001 7.98099e-07 0)
(1.00001 1.20055e-06 0)
(1.00001 1.57777e-06 0)
(1.00001 1.94017e-06 0)
(1.00001 2.27942e-06 0)
(1.00001 2.56404e-06 0)
(1 2.74299e-06 0)
(1 2.77402e-06 0)
(1 2.64925e-06 0)
(1 2.38975e-06 -1.95359e-40)
(0.999998 2.02272e-06 -2.13717e-40)
(0.999997 1.5694e-06 0)
(0.999997 1.04886e-06 0)
(0.999996 4.83032e-07 0)
(0.999996 -1.0559e-07 0)
(0.999996 -6.97582e-07 0)
(0.999997 -1.27703e-06 0)
(0.999998 -1.83071e-06 0)
(0.999999 -2.34735e-06 0)
(1 -2.81667e-06 0)
(1 -3.22821e-06 0)
(1 -3.57048e-06 0)
(1.00001 -3.83079e-06 0)
(1.00001 -3.9957e-06 0)
(1.00001 -4.05179e-06 0)
(1.00001 -3.98628e-06 0)
(1.00001 -3.78723e-06 0)
(1.00002 -3.4447e-06 0)
(1.00002 -2.953e-06 0)
(1.00002 -2.30958e-06 0)
(1.00002 -1.515e-06 0)
(1.00002 -5.74262e-07 0)
(1.00002 5.01281e-07 0)
(1.00002 1.68979e-06 0)
(1.00002 2.95534e-06 0)
(1.00002 4.24418e-06 0)
(1.00001 5.48387e-06 0)
(1.00001 6.58852e-06 0)
(1.00001 7.46969e-06 0)
(1 8.05007e-06 0)
(0.999999 8.27697e-06 0)
(0.999995 8.13147e-06 0)
(0.99999 7.62777e-06 0)
(0.999987 6.8067e-06 0)
(0.999983 5.73348e-06 0)
(0.99998 4.50066e-06 0)
(0.999978 3.22351e-06 0)
(0.999977 2.01825e-06 0)
(0.999977 9.68973e-07 0)
(0.999976 1.05114e-07 0)
(0.999977 -5.96968e-07 0)
(0.999977 -1.19962e-06 0)
(0.999978 -1.78343e-06 0)
(0.999979 -2.40258e-06 0)
(0.99998 -3.02536e-06 0)
(0.999982 -3.51982e-06 0)
(0.999984 -3.71888e-06 0)
(0.999987 -3.52296e-06 0)
(0.999988 -2.97364e-06 0)
(0.99999 -2.25103e-06 0)
(0.999991 -1.58311e-06 0)
(0.999991 -1.12539e-06 0)
(0.999992 -9.07654e-07 0)
(0.999992 -8.72888e-07 0)
(0.999992 -9.40947e-07 0)
(0.999993 -1.04328e-06 0)
(0.999993 -1.13299e-06 0)
(0.999994 -1.18557e-06 0)
(0.999995 -1.19422e-06 0)
(0.999995 -1.16285e-06 0)
(0.999996 -1.10038e-06 0)
(0.999996 -1.01702e-06 0)
(0.999997 -9.22135e-07 0)
(0.999997 -8.2324e-07 0)
(0.999998 -7.25809e-07 0)
(0.999998 -6.33474e-07 0)
(0.999998 -5.48377e-07 0)
(0.999999 -4.71554e-07 0)
(0.999999 -4.03267e-07 0)
(0.999999 -3.43281e-07 0)
(0.999999 -2.91064e-07 0)
(0.999999 -2.4593e-07 0)
(1 -2.07133e-07 0)
(1 -1.7393e-07 0)
(1 -1.45616e-07 0)
(1 -1.21542e-07 0)
(1 -1.01125e-07 0)
(1 -8.38473e-08 0)
(1 -6.92567e-08 0)
(1 -5.69588e-08 0)
(1 -4.66133e-08 0)
(1 -3.79272e-08 0)
(1 -3.06494e-08 0)
(1 -2.4565e-08 0)
(1 -1.94904e-08 0)
(1 -1.52695e-08 0)
(1 -1.17689e-08 0)
(1 -8.87575e-09 0)
(1 -6.49411e-09 0)
(1 -4.54306e-09 0)
(1 -2.95395e-09 0)
(1 -1.66767e-09 0)
(1 -6.33566e-10 0)
(1 1.89976e-10 0)
(1 8.37684e-10 0)
(1 1.33993e-09 0)
(1 1.7217e-09 0)
(1 2.00411e-09 0)
(1 2.20498e-09 0)
(1 2.33926e-09 0)
(1 2.41949e-09 0)
(1 2.45615e-09 0)
(1 2.45801e-09 0)
(1 2.43237e-09 0)
(1 2.38529e-09 0)
(1 2.32182e-09 0)