/*--------------------------------*- C++ -*----------------------------------*\
| =========                 |                                                 |
| \\      /  F ield         | OpenFOAM: The Open Source CFD Toolbox           |
|  \\    /   O peration     | Version:  v2006                                 |
|   \\  /    A nd           | Website:  www.openfoam.com                      |
|    \\/     M anipulation  |                                                 |
\*---------------------------------------------------------------------------*/
FoamFile
{
    version     2.0;
    format      ascii;
    class       volVectorField;
    location    "0";
    object      U;
}
// * * * * * * * * * * * * * * * * * * * * * * * * * * * * * * * * * * * * * //

dimensions      [0 1 -1 0 0 0 0];


internalField   nonuniform List<vector> 
20000
(
(1 1.31833e-11 0)
(1 3.32129e-11 0)
(1 5.09945e-11 0)
(1 6.47937e-11 0)
(1 7.1713e-11 0)
(1 7.02974e-11 0)
(1 5.95207e-11 0)
(1 4.08206e-11 0)
(1 1.94024e-11 0)
(1 -8.26239e-13 0)
(1 -1.73671e-11 0)
(1 -3.79254e-11 0)
(1 -6.97766e-11 0)
(1 -1.19103e-10 0)
(1 -1.90618e-10 0)
(1 -2.8924e-10 0)
(1 -4.21036e-10 0)
(1 -5.93539e-10 0)
(1 -8.16237e-10 0)
(1 -1.10115e-09 0)
(1 -1.46333e-09 0)
(1 -1.92115e-09 0)
(1 -2.4963e-09 0)
(1 -3.21403e-09 0)
(1 -4.10391e-09 0)
(1 -5.20205e-09 0)
(1 -6.55448e-09 0)
(1 -8.22086e-09 0)
(1 -1.02765e-08 0)
(1 -1.28114e-08 0)
(1 -1.59252e-08 0)
(1 -1.972e-08 0)
(1 -2.42921e-08 0)
(1 -2.97257e-08 0)
(1 -3.60908e-08 0)
(1 -4.34441e-08 0)
(1 -5.18313e-08 0)
(1 -6.12839e-08 0)
(1 -7.1806e-08 0)
(1 -8.33451e-08 0)
(1 -9.57411e-08 0)
(1 -1.0865e-07 0)
(1.00001 -1.21449e-07 0)
(1.00001 -1.33155e-07 0)
(1.00001 -1.42437e-07 0)
(1.00001 -1.47767e-07 0)
(1.00001 -1.47673e-07 0)
(1.00001 -1.40901e-07 0)
(1.00001 -1.26416e-07 0)
(1.00001 -1.03944e-07 0)
(1.00001 -7.70077e-08 0)
(1.00001 -5.91248e-08 0)
(1.00001 -7.24707e-08 0)
(1.00001 -1.12249e-07 0)
(1.00001 -8.58658e-08 0)
(1.00001 1.08761e-07 0)
(1.00001 3.9746e-07 0)
(1.00001 6.95278e-07 0)
(1.00001 9.38966e-07 0)
(1.00001 1.1025e-06 0)
(1.00001 1.18142e-06 0)
(1.00001 1.1808e-06 0)
(1 1.11095e-06 0)
(1 9.90355e-07 0)
(0.999998 8.38724e-07 0)
(0.999996 6.68401e-07 0)
(0.999993 4.86237e-07 0)
(0.999991 2.98206e-07 0)
(0.999988 1.11005e-07 0)
(0.999986 -6.74088e-08 0)
(0.999985 -2.28269e-07 0)
(0.999983 -3.62834e-07 0)
(0.999982 -4.63599e-07 0)
(0.999981 -5.25512e-07 0)
(0.99998 -5.46321e-07 0)
(0.999979 -5.26917e-07 0)
(0.999979 -4.71874e-07 0)
(0.999979 -3.93887e-07 0)
(0.999979 -3.26711e-07 0)
(0.999979 -3.03015e-07 0)
(0.99998 -3.1891e-07 0)
(0.999982 -3.60327e-07 0)
(0.999984 -4.12456e-07 0)
(0.999987 -4.62005e-07 0)
(0.99999 -4.98823e-07 0)
(0.999994 -5.16293e-07 0)
(0.999998 -5.08178e-07 0)
(1 -4.55647e-07 0)
(1.00001 -3.08069e-07 0)
(1.00001 2.75782e-08 0)
(1.00001 6.18258e-07 0)
(1.00002 1.34178e-06 0)
(1.00002 1.87674e-06 0)
(1.00001 2.19147e-06 0)
(1.00001 2.33104e-06 0)
(1.00001 2.34258e-06 0)
(1 2.24978e-06 0)
(1 2.05961e-06 0)
(0.999996 1.78184e-06 0)
(0.999991 1.4374e-06 0)
(0.999987 1.0451e-06 0)
(0.999982 6.21237e-07 0)
(0.999977 1.88673e-07 0)
(0.999972 -2.26664e-07 0)
(0.999968 -5.99678e-07 0)
(0.999964 -9.08849e-07 0)
(0.99996 -1.13823e-06 0)
(0.999957 -1.27894e-06 0)
(0.999955 -1.32968e-06 0)
(0.999953 -1.29628e-06 0)
(0.999952 -1.19103e-06 0)
(0.999951 -1.03065e-06 0)
(0.99995 -8.37357e-07 0)
(0.99995 -6.46431e-07 0)
(0.99995 -5.0653e-07 0)
(0.999951 -4.37199e-07 0)
(0.999952 -4.2532e-07 0)
(0.999954 -4.50928e-07 0)
(0.999957 -4.92957e-07 0)
(0.99996 -5.29863e-07 0)
(0.999963 -5.43187e-07 0)
(0.999967 -5.22822e-07 0)
(0.99997 -4.70604e-07 0)
(0.999973 -3.99324e-07 0)
(0.999975 -3.26703e-07 0)
(0.999977 -2.67357e-07 0)
(0.999979 -2.27826e-07 0)
(0.99998 -2.07082e-07 0)
(0.999981 -2.00076e-07 0)
(0.999983 -2.00856e-07 0)
(0.999984 -2.04254e-07 0)
(0.999985 -2.06602e-07 0)
(0.999987 -2.05845e-07 0)
(0.999988 -2.01238e-07 0)
(0.999989 -1.92928e-07 0)
(0.999991 -1.81573e-07 0)
(0.999992 -1.68047e-07 0)
(0.999993 -1.53241e-07 0)
(0.999994 -1.37945e-07 0)
(0.999995 -1.22795e-07 0)
(0.999996 -1.08263e-07 0)
(0.999996 -9.4667e-08 0)
(0.999997 -8.21947e-08 0)
(0.999997 -7.09328e-08 0)
(0.999998 -6.08931e-08 0)
(0.999998 -5.20357e-08 0)
(0.999998 -4.42873e-08 0)
(0.999999 -3.75562e-08 0)
(0.999999 -3.17424e-08 0)
(0.999999 -2.67447e-08 0)
(0.999999 -2.24656e-08 0)
(0.999999 -1.88139e-08 0)
(1 -1.57066e-08 0)
(1 -1.30697e-08 0)
(1 -1.08382e-08 0)
(1 -8.95516e-09 0)
(1 -7.37008e-09 0)
(1 -6.03595e-09 0)
(1 -4.90689e-09 0)
(1 -3.93672e-09 0)
(1 -3.08081e-09 0)
(1 -2.30001e-09 0)
(1 -1.56854e-09 0)
(1 -8.76327e-10 0)
(1 -2.28792e-10 0)
(1 3.43751e-10 0)
(1 7.65954e-10 0)
(1 9.42896e-10 0)
(1 9.18534e-10 0)
(1 7.98918e-10 0)
(1 6.55848e-10 0)
(1 5.20539e-10 0)
(1 4.02742e-10 0)
(1 3.03316e-10 0)
(1 2.20316e-10 0)
(1 1.5154e-10 0)
(1 9.48877e-11 0)
(1 4.84818e-11 0)
(1 1.06854e-11 0)
(1 -1.99225e-11 0)
(1 -4.45516e-11 0)
(1 -6.42367e-11 0)
(1 -7.98519e-11 0)
(1 -9.21352e-11 0)
(1 -1.0172e-10 0)
(1 -1.09137e-10 0)
(1 -1.14844e-10 0)
(1 -1.19226e-10 0)
(1 -1.22612e-10 0)
(1 -1.25275e-10 0)
(1 -1.27451e-10 0)
(1 -1.29347e-10 0)
(1 -1.31155e-10 0)
(1 -1.3307e-10 0)
(1 -1.35377e-10 0)
(1 -1.38044e-10 0)
(1 -1.42569e-10 0)
(1 -1.3746e-10 0)
(1 -1.52809e-10 0)
(1 -1.22522e-10 0)
(1 2.25007e-11 0)
(1 5.83386e-11 0)
(1 9.07541e-11 0)
(1 1.16051e-10 0)
(1 1.32508e-10 0)
(1 1.38873e-10 0)
(1 1.33545e-10 0)
(1 1.17574e-10 0)
(1 9.31894e-11 0)
(1 5.93197e-11 0)
(1 1.35618e-11 0)
(1 -5.79198e-11 0)
(1 -1.66393e-10 0)
(1 -3.24796e-10 0)
(1 -5.46945e-10 0)
(1 -8.48542e-10 0)
(1 -1.24822e-09 0)
(1 -1.76874e-09 0)
(1 -2.43864e-09 0)
(1 -3.29411e-09 0)
(1 -4.3805e-09 0)
(1 -5.75311e-09 0)
(1 -7.47724e-09 0)
(1 -9.62869e-09 0)
(1 -1.22962e-08 0)
(1 -1.5588e-08 0)
(1 -1.96422e-08 0)
(1 -2.46376e-08 0)
(1 -3.08e-08 0)
(1 -3.8399e-08 0)
(1 -4.77333e-08 0)
(1 -5.9109e-08 0)
(1 -7.28155e-08 0)
(1 -8.91066e-08 0)
(1 -1.08194e-07 0)
(1 -1.30248e-07 0)
(1 -1.55405e-07 0)
(1 -1.83755e-07 0)
(1 -2.15298e-07 0)
(1 -2.49873e-07 0)
(1 -2.87018e-07 0)
(1 -3.25762e-07 0)
(1.00001 -3.64359e-07 0)
(1.00001 -4.00022e-07 0)
(1.00001 -4.28826e-07 0)
(1.00001 -4.45952e-07 0)
(1.00001 -4.46388e-07 0)
(1.00001 -4.26088e-07 0)
(1.00001 -3.83493e-07 0)
(1.00001 -3.21433e-07 -2.1824e-41)
(1.00001 -2.49597e-07 -2.22668e-41)
(1.00001 -1.869e-07 0)
(1.00001 -1.5839e-07 0)
(1.00001 -1.74578e-07 0)
(1.00001 -1.96831e-07 0)
(1.00001 -1.81071e-07 0)
(1.00002 -1.79228e-07 0)
(1.00002 -1.89477e-07 0)
(1.00002 -1.82276e-07 0)
(1.00003 -1.26039e-07 0)
(1.00003 -1.14527e-08 0)
(1.00004 1.46851e-07 0)
(1.00004 3.41828e-07 0)
(1.00004 5.35445e-07 0)
(1.00004 7.13186e-07 0)
(1.00004 8.76085e-07 0)
(1.00004 1.02473e-06 0)
(1.00004 1.15617e-06 0)
(1.00003 1.26463e-06 0)
(1.00003 1.3421e-06 0)
(1.00002 1.37941e-06 0)
(1.00002 1.36948e-06 0)
(1.00001 1.31044e-06 0)
(1 1.20551e-06 0)
(0.999998 1.06061e-06 0)
(0.999993 8.82167e-07 0)
(0.999988 6.77329e-07 0)
(0.999985 4.50852e-07 0)
(0.999983 1.94769e-07 0)
(0.999982 -1.01613e-07 0)
(0.999982 -4.21719e-07 0)
(0.999982 -7.50668e-07 0)
(0.999984 -1.07703e-06 0)
(0.999987 -1.39106e-06 0)
(0.999991 -1.68416e-06 0)
(0.999995 -1.94833e-06 0)
(1 -2.17396e-06 0)
(1.00001 -2.34376e-06 0)
(1.00001 -2.42471e-06 0)
(1.00002 -2.36173e-06 0)
(1.00003 -2.11165e-06 0)
(1.00004 -1.74003e-06 0)
(1.00005 -1.4393e-06 0)
(1.00006 -1.16782e-06 0)
(1.00008 -8.74866e-07 0)
(1.00009 -5.35009e-07 0)
(1.0001 -1.36489e-07 0)
(1.0001 3.19373e-07 0)
(1.00011 8.49308e-07 0)
(1.00011 1.37921e-06 0)
(1.00011 1.8943e-06 0)
(1.0001 2.37339e-06 0)
(1.00009 2.78755e-06 0)
(1.00008 3.10898e-06 0)
(1.00007 3.31459e-06 0)
(1.00006 3.38954e-06 0)
(1.00004 3.3297e-06 0)
(1.00002 3.142e-06 0)
(1.00001 2.84376e-06 0)
(0.999995 2.46084e-06 0)
(0.999982 2.02527e-06 0)
(0.999972 1.57179e-06 0)
(0.999965 1.12881e-06 0)
(0.999959 7.06365e-07 0)
(0.999956 2.92242e-07 0)
(0.999954 -1.16579e-07 0)
(0.999954 -5.08684e-07 0)
(0.999955 -8.71393e-07 0)
(0.999957 -1.18337e-06 0)
(0.99996 -1.41219e-06 0)
(0.999963 -1.52531e-06 0)
(0.999967 -1.50813e-06 0)
(0.99997 -1.37684e-06 0)
(0.999973 -1.17712e-06 0)
(0.999975 -9.67084e-07 0)
(0.999977 -7.93626e-07 0)
(0.999979 -6.77975e-07 0)
(0.99998 -6.17761e-07 0)
(0.999981 -5.98149e-07 0)
(0.999983 -6.01453e-07 0)
(0.999984 -6.12267e-07 0)
(0.999985 -6.19679e-07 0)
(0.999987 -6.17596e-07 0)
(0.999988 -6.03846e-07 0)
(0.999989 -5.78917e-07 0)
(0.999991 -5.44816e-07 0)
(0.999992 -5.0419e-07 0)
(0.999993 -4.59722e-07 0)
(0.999994 -4.13791e-07 0)
(0.999995 -3.6831e-07 0)
(0.999996 -3.24694e-07 0)
(0.999996 -2.83893e-07 0)
(0.999997 -2.46471e-07 0)
(0.999997 -2.12687e-07 0)
(0.999998 -1.82573e-07 0)
(0.999998 -1.56009e-07 0)
(0.999998 -1.32773e-07 0)
(0.999999 -1.12589e-07 0)
(0.999999 -9.5157e-08 0)
(0.999999 -8.01728e-08 0)
(0.999999 -6.73437e-08 0)
(0.999999 -5.63966e-08 0)
(1 -4.70825e-08 0)
(1 -3.9178e-08 0)
(1 -3.24854e-08 0)
(1 -2.68312e-08 0)
(1 -2.20638e-08 0)
(1 -1.8051e-08 0)
(1 -1.46772e-08 0)
(1 -1.18413e-08 0)
(1 -9.45512e-09 0)
(1 -7.44291e-09 0)
(1 -5.74229e-09 0)
(1 -4.30198e-09 0)
(1 -3.08102e-09 0)
(1 -2.05448e-09 0)
(1 -1.23066e-09 0)
(1 -6.45178e-10 0)
(1 -2.45175e-10 0)
(1 4.22789e-11 0)
(1 2.66833e-10 0)
(1 4.41494e-10 0)
(1 5.74003e-10 0)
(1 6.72234e-10 0)
(1 7.42085e-10 0)
(1 7.8842e-10 0)
(1 8.15479e-10 0)
(1 8.26877e-10 0)
(1 8.25674e-10 0)
(1 8.14422e-10 0)
(1 7.9525e-10 0)
(1 7.69921e-10 0)
(1 7.39896e-10 0)
(1 7.06382e-10 0)
(1 6.70347e-10 0)
(1 6.32574e-10 0)
(1 5.93682e-10 0)
(1 5.54162e-10 0)
(1 5.144e-10 0)
(1 4.74695e-10 0)
(1 4.35265e-10 0)
(1 3.96259e-10 0)
(1 3.57762e-10 0)
(1 3.19772e-10 0)
(1 2.82216e-10 0)
(1 2.45108e-10 0)
(1 2.08189e-10 0)
(1 1.78759e-10 0)
(1 1.3872e-10 0)
(1 1.20676e-10 0)
(1 2.28727e-11 0)
(1 6.6698e-11 0)
(1 1.10168e-10 0)
(1 1.46332e-10 0)
(1 1.76403e-10 0)
(1 1.99535e-10 0)
(1 2.1215e-10 0)
(1 2.10993e-10 0)
(1 1.90643e-10 0)
(1 1.44139e-10 0)
(1 6.25384e-11 0)
(1 -6.57774e-11 0)
(1 -2.55046e-10 0)
(1 -5.24584e-10 0)
(1 -8.9791e-10 0)
(1 -1.40205e-09 0)
(1 -2.06849e-09 0)
(1 -2.93533e-09 0)
(1 -4.05025e-09 0)
(1 -5.47359e-09 0)
(1 -7.28091e-09 0)
(1 -9.56431e-09 0)
(1 -1.24326e-08 0)
(1 -1.60118e-08 0)
(1 -2.04498e-08 0)
(1 -2.59267e-08 0)
(1 -3.26721e-08 0)
(1 -4.0984e-08 0)
(1 -5.12382e-08 0)
(1 -6.38832e-08 0)
(1 -7.94167e-08 0)
(1 -9.83486e-08 0)
(1 -1.21161e-07 0)
(1 -1.48279e-07 0)
(1 -1.80054e-07 0)
(1 -2.16776e-07 0)
(1 -2.58675e-07 0)
(1 -3.05904e-07 0)
(1 -3.58476e-07 0)
(1 -4.16133e-07 0)
(1 -4.78131e-07 0)
(1 -5.42894e-07 0)
(1.00001 -6.07557e-07 0)
(1.00001 -6.67509e-07 0)
(1.00001 -7.16184e-07 0)
(1.00001 -7.45408e-07 0)
(1.00001 -7.4658e-07 0)
(1.00001 -7.12799e-07 0)
(1.00001 -6.41804e-07 0)
(1.00001 -5.3909e-07 0)
(1.00001 -4.19794e-07 0)
(1.00001 -3.07707e-07 0)
(1.00001 -2.33001e-07 0)
(1.00001 -2.35591e-07 0)
(1.00001 -3.69641e-07 0)
(1.00001 -6.58757e-07 0)
(1.00002 -1.02806e-06 0)
(1.00002 -1.3524e-06 0)
(1.00002 -1.51501e-06 0)
(1.00002 -1.45452e-06 0)
(1.00002 -1.17914e-06 0)
(1.00002 -7.4656e-07 0)
(1.00002 -2.34708e-07 0)
(1.00002 2.98242e-07 0)
(1.00002 8.2179e-07 0)
(1.00002 1.3248e-06 0)
(1.00002 1.80058e-06 0)
(1.00001 2.23845e-06 0)
(1.00001 2.62155e-06 0)
(1.00001 2.92729e-06 0)
(1 3.13001e-06 0)
(1 3.20858e-06 0)
(0.999996 3.15445e-06 0)
(0.999992 2.97212e-06 0)
(0.999989 2.67304e-06 0)
(0.999986 2.27107e-06 0)
(0.999983 1.78248e-06 0)
(0.999982 1.22749e-06 0)
(0.99998 6.32399e-07 0)
(0.99998 2.27167e-08 0)
(0.999981 -5.87196e-07 0)
(0.999982 -1.1889e-06 0)
(0.999984 -1.77525e-06 0)
(0.999987 -2.33874e-06 0)
(0.99999 -2.87068e-06 0)
(0.999994 -3.36042e-06 0)
(0.999999 -3.79571e-06 0)
(1 -4.16666e-06 0)
(1.00001 -4.47233e-06 0)
(1.00002 -4.72449e-06 0)
(1.00002 -4.92584e-06 0)
(1.00003 -5.02402e-06 0)
(1.00003 -4.91674e-06 0)
(1.00004 -4.5731e-06 0)
(1.00004 -4.00016e-06 0)
(1.00005 -3.21357e-06 0)
(1.00005 -2.23285e-06 0)
(1.00005 -1.07522e-06 0)
(1.00005 2.24315e-07 0)
(1.00005 1.61225e-06 0)
(1.00005 3.02798e-06 0)
(1.00004 4.39471e-06 0)
(1.00004 5.6276e-06 0)
(1.00003 6.64472e-06 0)
(1.00002 7.377e-06 0)
(1.00001 7.77715e-06 0)
(1 7.82551e-06 0)
(0.999991 7.53183e-06 0)
(0.999982 6.93345e-06 0)
(0.999974 6.0912e-06 0)
(0.999967 5.08327e-06 0)
(0.999961 3.99449e-06 0)
(0.999957 2.90158e-06 0)
(0.999954 1.86247e-06 0)
(0.999953 9.13024e-07 0)
(0.999952 6.26005e-08 0)
(0.999953 -6.96522e-07 0)
(0.999954 -1.36687e-06 0)
(0.999957 -1.928e-06 0)
(0.99996 -2.3347e-06 0)
(0.999963 -2.5375e-06 0)
(0.999967 -2.51478e-06 0)
(0.99997 -2.29602e-06 0)
(0.999973 -1.96027e-06 0)
(0.999975 -1.6072e-06 0)
(0.999977 -1.31668e-06 0)
(0.999979 -1.1243e-06 0)
(0.99998 -1.02538e-06 0)
(0.999981 -9.94415e-07 0)
(0.999983 -1.00145e-06 0)
(0.999984 -1.02059e-06 0)
(0.999985 -1.03359e-06 0)
(0.999987 -1.03038e-06 0)
(0.999988 -1.00746e-06 0)
(0.999989 -9.65742e-07 0)
(0.999991 -9.08664e-07 0)
(0.999992 -8.40698e-07 0)
(0.999993 -7.66355e-07 0)
(0.999994 -6.89616e-07 0)
(0.999995 -6.13674e-07 0)
(0.999996 -5.40883e-07 0)
(0.999996 -4.72824e-07 0)
(0.999997 -4.10427e-07 0)
(0.999997 -3.54115e-07 0)
(0.999998 -3.03937e-07 0)
(0.999998 -2.59683e-07 0)
(0.999998 -2.20984e-07 0)
(0.999999 -1.87374e-07 0)
(0.999999 -1.58351e-07 0)
(0.999999 -1.33406e-07 0)
(0.999999 -1.12051e-07 0)
(0.999999 -9.38312e-08 0)
(1 -7.83301e-08 0)
(1 -6.51756e-08 0)
(1 -5.40376e-08 0)
(1 -4.46267e-08 0)
(1 -3.66913e-08 0)
(1 -3.00142e-08 0)
(1 -2.44098e-08 0)
(1 -1.97201e-08 0)
(1 -1.58109e-08 0)
(1 -1.25678e-08 0)
(1 -9.89133e-09 0)
(1 -7.69388e-09 0)
(1 -5.89791e-09 0)
(1 -4.42987e-09 0)
(1 -3.21337e-09 0)
(1 -2.17801e-09 0)
(1 -1.29618e-09 0)
(1 -5.6485e-10 0)
(1 2.72973e-11 0)
(1 4.94591e-10 0)
(1 8.56137e-10 0)
(1 1.13057e-09 0)
(1 1.33328e-09 0)
(1 1.47714e-09 0)
(1 1.57293e-09 0)
(1 1.62966e-09 0)
(1 1.65482e-09 0)
(1 1.65468e-09 0)
(1 1.63442e-09 0)
(1 1.59837e-09 0)
(1 1.55007e-09 0)
(1 1.4925e-09 0)
(1 1.42803e-09 0)
(1 1.35864e-09 0)
(1 1.28588e-09 0)
(1 1.21103e-09 0)
(1 1.13512e-09 0)
(1 1.05893e-09 0)
(1 9.83101e-10 0)
(1 9.08079e-10 0)
(1 8.34209e-10 0)
(1 7.61709e-10 0)
(1 6.90793e-10 0)
(1 6.21445e-10 0)
(1 5.55029e-10 0)
(1 4.85639e-10 0)
(1 4.33124e-10 0)
(1 3.32734e-10 0)
(1 3.19828e-11 0)
(1 9.76772e-11 0)
(1 1.64189e-10 0)
(1 2.19851e-10 0)
(1 2.65298e-10 0)
(1 2.9847e-10 0)
(1 3.12918e-10 0)
(1 3.03469e-10 0)
(1 2.65622e-10 0)
(1 1.93704e-10 0)
(1 7.69209e-11 0)
(1 -9.99837e-11 0)
(1 -3.60646e-10 0)
(1 -7.33685e-10 0)
(1 -1.25218e-09 0)
(1 -1.95375e-09 0)
(1 -2.88227e-09 0)
(1 -4.09089e-09 0)
(1 -5.64613e-09 0)
(1 -7.63222e-09 0)
(1 -1.01546e-08 0)
(1 -1.33419e-08 0)
(1 -1.73461e-08 0)
(1 -2.23431e-08 0)
(1 -2.85395e-08 0)
(1 -3.61868e-08 0)
(1 -4.56061e-08 0)
(1 -5.72134e-08 0)
(1 -7.15341e-08 0)
(1 -8.91954e-08 0)
(1 -1.10893e-07 0)
(1 -1.37339e-07 0)
(1 -1.69211e-07 0)
(1 -2.07102e-07 0)
(1 -2.51511e-07 0)
(1 -3.02845e-07 0)
(1 -3.61438e-07 0)
(1 -4.27522e-07 0)
(1 -5.01135e-07 0)
(1 -5.81951e-07 0)
(1 -6.68967e-07 0)
(1 -7.60015e-07 0)
(1.00001 -8.51109e-07 0)
(1.00001 -9.35782e-07 0)
(1.00001 -1.00478e-06 0)
(1.00001 -1.04656e-06 0)
(1.00001 -1.04892e-06 0)
(1.00001 -1.00187e-06 0)
(1.00001 -9.01522e-07 0)
(1.00001 -7.54536e-07 0)
(1.00001 -5.82495e-07 0)
(1.00001 -4.24324e-07 0)
(1.00001 -3.32847e-07 0)
(1.00001 -3.59826e-07 0)
(1.00001 -5.30516e-07 0)
(1.00001 -8.2111e-07 0)
(1.00002 -1.15112e-06 0)
(1.00002 -1.41364e-06 0)
(1.00002 -1.49735e-06 0)
(1.00002 -1.33823e-06 0)
(1.00002 -9.46359e-07 0)
(1.00002 -3.90443e-07 0)
(1.00002 2.33624e-07 0)
(1.00002 8.64755e-07 0)
(1.00002 1.46956e-06 0)
(1.00002 2.03762e-06 0)
(1.00002 2.56547e-06 0)
(1.00001 3.04324e-06 0)
(1.00001 3.45261e-06 0)
(1.00001 3.76787e-06 0)
(1 3.95883e-06 0)
(1 4.00105e-06 0)
(0.999996 3.88654e-06 0)
(0.999992 3.62356e-06 0)
(0.999989 3.22794e-06 0)
(0.999986 2.71685e-06 0)
(0.999983 2.10816e-06 0)
(0.999981 1.42131e-06 0)
(0.99998 6.76532e-07 0)
(0.99998 -1.06109e-07 0)
(0.99998 -9.09736e-07 0)
(0.999982 -1.71601e-06 0)
(0.999984 -2.50762e-06 0)
(0.999986 -3.26845e-06 0)
(0.99999 -3.9827e-06 0)
(0.999994 -4.63388e-06 0)
(0.999999 -5.2037e-06 0)
(1 -5.67043e-06 0)
(1.00001 -6.00689e-06 0)
(1.00002 -6.18184e-06 0)
(1.00002 -6.16862e-06 0)
(1.00003 -5.95554e-06 0)
(1.00003 -5.53505e-06 0)
(1.00004 -4.92085e-06 0)
(1.00004 -4.10571e-06 0)
(1.00005 -3.07946e-06 0)
(1.00005 -1.84744e-06 0)
(1.00005 -4.29127e-07 0)
(1.00005 1.11883e-06 0)
(1.00005 2.76748e-06 0)
(1.00005 4.43308e-06 0)
(1.00004 6.01943e-06 0)
(1.00004 7.4276e-06 0)
(1.00003 8.56316e-06 0)
(1.00002 9.34756e-06 0)
(1.00001 9.72864e-06 0)
(1 9.68754e-06 0)
(0.99999 9.24066e-06 0)
(0.999981 8.43701e-06 0)
(0.999973 7.35314e-06 0)
(0.999966 6.08567e-06 0)
(0.999961 4.73809e-06 0)
(0.999957 3.4009e-06 0)
(0.999954 2.13335e-06 0)
(0.999953 9.60601e-07 0)
(0.999952 -1.16651e-07 0)
(0.999953 -1.10534e-06 0)
(0.999954 -1.99938e-06 0)
(0.999957 -2.76091e-06 0)
(0.99996 -3.31791e-06 0)
(0.999963 -3.59334e-06 0)
(0.999967 -3.55175e-06 0)
(0.99997 -3.23291e-06 0)
(0.999973 -2.74957e-06 0)
(0.999975 -2.24493e-06 0)
(0.999977 -1.83311e-06 0)
(0.999979 -1.56347e-06 0)
(0.99998 -1.42743e-06 0)
(0.999981 -1.38743e-06 0)
(0.999983 -1.40035e-06 0)
(0.999984 -1.42938e-06 0)
(0.999985 -1.44888e-06 0)
(0.999987 -1.44489e-06 0)
(0.999988 -1.41274e-06 0)
(0.999989 -1.35395e-06 0)
(0.999991 -1.27351e-06 0)
(0.999992 -1.17781e-06 0)
(0.999993 -1.07323e-06 0)
(0.999994 -9.65395e-07 0)
(0.999995 -8.58776e-07 0)
(0.999996 -7.56665e-07 0)
(0.999996 -6.6126e-07 0)
(0.999997 -5.73846e-07 0)
(0.999997 -4.94998e-07 0)
(0.999998 -4.24771e-07 0)
(0.999998 -3.6286e-07 0)
(0.999998 -3.08737e-07 0)
(0.999999 -2.61745e-07 0)
(0.999999 -2.21176e-07 0)
(0.999999 -1.86314e-07 0)
(0.999999 -1.56475e-07 0)
(0.999999 -1.31019e-07 0)
(1 -1.09364e-07 0)
(1 -9.09895e-08 0)
(1 -7.54337e-08 0)
(1 -6.22923e-08 0)
(1 -5.12132e-08 0)
(1 -4.18907e-08 0)
(1 -3.4061e-08 0)
(1 -2.74961e-08 0)
(1 -2.20002e-08 0)
(1 -1.74062e-08 0)
(1 -1.3573e-08 0)
(1 -1.03833e-08 0)
(1 -7.74009e-09 0)
(1 -5.56499e-09 0)
(1 -3.79407e-09 0)
(1 -2.36863e-09 0)
(1 -1.23748e-09 0)
(1 -3.46695e-10 0)
(1 3.48236e-10 0)
(1 8.87747e-10 0)
(1 1.30157e-09 0)
(1 1.61203e-09 0)
(1 1.83748e-09 0)
(1 1.99329e-09 0)
(1 2.09229e-09 0)
(1 2.14518e-09 0)
(1 2.16093e-09 0)
(1 2.14697e-09 0)
(1 2.10952e-09 0)
(1 2.05371e-09 0)
(1 1.98379e-09 0)
(1 1.90325e-09 0)
(1 1.81494e-09 0)
(1 1.72116e-09 0)
(1 1.62376e-09 0)
(1 1.52423e-09 0)
(1 1.42375e-09 0)
(1 1.32324e-09 0)
(1 1.2234e-09 0)
(1 1.12475e-09 0)
(1 1.02763e-09 0)
(1 9.32282e-10 0)
(1 8.38864e-10 0)
(1 7.47382e-10 0)
(1 6.58432e-10 0)
(1 5.68146e-10 0)
(1 4.94325e-10 0)
(1 3.61655e-10 0)
(1 4.16604e-11 0)
(1 1.26297e-10 0)
(1 2.11028e-10 0)
(1 2.81028e-10 0)
(1 3.37739e-10 0)
(1 3.78957e-10 0)
(1 3.96941e-10 0)
(1 3.86206e-10 0)
(1 3.41372e-10 0)
(1 2.5368e-10 0)
(1 1.08377e-10 0)
(1 -1.15931e-10 0)
(1 -4.48687e-10 0)
(1 -9.25863e-10 0)
(1 -1.58943e-09 0)
(1 -2.48747e-09 0)
(1 -3.67611e-09 0)
(1 -5.22343e-09 0)
(1 -7.21465e-09 0)
(1 -9.75773e-09 0)
(1 -1.29879e-08 0)
(1 -1.707e-08 0)
(1 -2.21987e-08 0)
(1 -2.85999e-08 0)
(1 -3.65381e-08 0)
(1 -4.63358e-08 0)
(1 -5.84047e-08 0)
(1 -7.32784e-08 0)
(1 -9.16309e-08 0)
(1 -1.14267e-07 0)
(1 -1.42078e-07 0)
(1 -1.75982e-07 0)
(1 -2.16846e-07 0)
(1 -2.65439e-07 0)
(1 -3.22403e-07 0)
(1 -3.88274e-07 0)
(1 -4.63496e-07 0)
(1 -5.4839e-07 0)
(1 -6.43043e-07 0)
(1 -7.47087e-07 0)
(1 -8.59307e-07 0)
(1 -9.77016e-07 0)
(1 -1.09519e-06 0)
(1.00001 -1.20555e-06 0)
(1.00001 -1.2961e-06 0)
(1.00001 -1.35172e-06 0)
(1.00001 -1.3562e-06 0)
(1.00001 -1.2961e-06 0)
(1.00001 -1.16602e-06 0)
(1.00001 -9.7447e-07 0)
(1.00001 -7.48957e-07 0)
(1.00001 -5.37625e-07 0)
(1.00001 -4.0501e-07 0)
(1.00001 -4.2043e-07 0)
(1.00001 -6.36947e-07 0)
(1.00001 -1.05529e-06 0)
(1.00001 -1.58451e-06 0)
(1.00002 -2.05562e-06 0)
(1.00002 -2.28339e-06 0)
(1.00002 -2.15613e-06 0)
(1.00002 -1.67948e-06 0)
(1.00002 -9.51629e-07 0)
(1.00002 -9.18329e-08 0)
(1.00002 7.92516e-07 0)
(1.00002 1.64664e-06 0)
(1.00002 2.4579e-06 0)
(1.00002 3.22228e-06 0)
(1.00001 3.92454e-06 0)
(1.00001 4.53748e-06 0)
(1.00001 5.02325e-06 0)
(1 5.33725e-06 0)
(1 5.44273e-06 0)
(0.999996 5.32638e-06 0)
(0.999992 4.99819e-06 0)
(0.999989 4.47937e-06 0)
(0.999986 3.79373e-06 0)
(0.999983 2.96782e-06 0)
(0.999981 2.03279e-06 0)
(0.99998 1.02271e-06 0)
(0.99998 -3.11055e-08 0)
(0.99998 -1.10201e-06 0)
(0.999981 -2.16792e-06 0)
(0.999983 -3.21051e-06 0)
(0.999986 -4.21297e-06 0)
(0.99999 -5.15777e-06 0)
(0.999994 -6.02517e-06 0)
(0.999999 -6.79258e-06 0)
(1 -7.43536e-06 0)
(1.00001 -7.92906e-06 0)
(1.00002 -8.25113e-06 0)
(1.00002 -8.37829e-06 0)
(1.00003 -8.27778e-06 0)
(1.00003 -7.90267e-06 0)
(1.00004 -7.22307e-06 0)
(1.00004 -6.21904e-06 0)
(1.00005 -4.88838e-06 0)
(1.00005 -3.24005e-06 0)
(1.00005 -1.30517e-06 0)
(1.00005 8.68776e-07 0)
(1.00005 3.18445e-06 0)
(1.00005 5.53303e-06 0)
(1.00004 7.78892e-06 0)
(1.00004 9.81301e-06 0)
(1.00003 1.14696e-05 0)
(1.00002 1.26439e-05 0)
(1.00001 1.32582e-05 0)
(1 1.32812e-05 0)
(0.99999 1.27319e-05 0)
(0.999981 1.16753e-05 0)
(0.999973 1.02157e-05 0)
(0.999966 8.48758e-06 0)
(0.999961 6.63725e-06 0)
(0.999956 4.79522e-06 0)
(0.999954 3.05031e-06 0)
(0.999952 1.44448e-06 0)
(0.999952 -1.64644e-08 0)
(0.999952 -1.34301e-06 0)
(0.999954 -2.53407e-06 0)
(0.999956 -3.54603e-06 0)
(0.999959 -4.28648e-06 0)
(0.999963 -4.65339e-06 0)
(0.999967 -4.59908e-06 0)
(0.99997 -4.17653e-06 0)
(0.999973 -3.53719e-06 0)
(0.999975 -2.87337e-06 0)
(0.999977 -2.33681e-06 0)
(0.999979 -1.99065e-06 0)
(0.99998 -1.82063e-06 0)
(0.999981 -1.77532e-06 0)
(0.999983 -1.7974e-06 0)
(0.999984 -1.83865e-06 0)
(0.999985 -1.86599e-06 0)
(0.999987 -1.86172e-06 0)
(0.999988 -1.82029e-06 0)
(0.99999 -1.74404e-06 0)
(0.999991 -1.6397e-06 0)
(0.999992 -1.51572e-06 0)
(0.999993 -1.38042e-06 0)
(0.999994 -1.24109e-06 0)
(0.999995 -1.1035e-06 0)
(0.999996 -9.71863e-07 0)
(0.999996 -8.48992e-07 0)
(0.999997 -7.36505e-07 0)
(0.999997 -6.35114e-07 0)
(0.999998 -5.44862e-07 0)
(0.999998 -4.6534e-07 0)
(0.999998 -3.95851e-07 0)
(0.999999 -3.3554e-07 0)
(0.999999 -2.83488e-07 0)
(0.999999 -2.3877e-07 0)
(0.999999 -2.00504e-07 0)
(0.999999 -1.67864e-07 0)
(1 -1.40103e-07 0)
(1 -1.1655e-07 0)
(1 -9.66113e-08 0)
(1 -7.97683e-08 0)
(1 -6.55686e-08 0)
(1 -5.36215e-08 0)
(1 -4.35913e-08 0)
(1 -3.51904e-08 0)
(1 -2.8173e-08 0)
(1 -2.23296e-08 0)
(1 -1.74801e-08 0)
(1 -1.34696e-08 0)
(1 -1.01643e-08 0)
(1 -7.44861e-09 0)
(1 -5.22197e-09 0)
(1 -3.39695e-09 0)
(1 -1.90693e-09 0)
(1 -7.01067e-10 0)
(1 2.63051e-10 0)
(1 1.02256e-09 0)
(1 1.60985e-09 0)
(1 2.05386e-09 0)
(1 2.37963e-09 0)
(1 2.60821e-09 0)
(1 2.75734e-09 0)
(1 2.84189e-09 0)
(1 2.87431e-09 0)
(1 2.86496e-09 0)
(1 2.82249e-09 0)
(1 2.75406e-09 0)
(1 2.6656e-09 0)
(1 2.56199e-09 0)
(1 2.4472e-09 0)
(1 2.32446e-09 0)
(1 2.19639e-09 0)
(1 2.06507e-09 0)
(1 1.93218e-09 0)
(1 1.79902e-09 0)
(1 1.6666e-09 0)
(1 1.53565e-09 0)
(1 1.4067e-09 0)
(1 1.28009e-09 0)
(1 1.1561e-09 0)
(1 1.03465e-09 0)
(1 9.16714e-10 0)
(1 7.97667e-10 0)
(1 6.98414e-10 0)
(1 5.24991e-10 0)
(1 5.12369e-11 0)
(1 1.5459e-10 0)
(1 2.58332e-10 0)
(1 3.44501e-10 0)
(1 4.14845e-10 0)
(1 4.66677e-10 0)
(1 4.90478e-10 0)
(1 4.7923e-10 0)
(1 4.25838e-10 0)
(1 3.19545e-10 0)
(1 1.4306e-10 0)
(1 -1.29294e-10 0)
(1 -5.32941e-10 0)
(1 -1.11179e-09 0)
(1 -1.91708e-09 0)
(1 -3.00743e-09 0)
(1 -4.45123e-09 0)
(1 -6.33137e-09 0)
(1 -8.75164e-09 0)
(1 -1.18435e-08 0)
(1 -1.57715e-08 0)
(1 -2.07363e-08 0)
(1 -2.6975e-08 0)
(1 -3.47626e-08 0)
(1 -4.44211e-08 0)
(1 -5.63434e-08 0)
(1 -7.10307e-08 0)
(1 -8.91333e-08 0)
(1 -1.11473e-07 0)
(1 -1.39029e-07 0)
(1 -1.72891e-07 0)
(1 -2.14177e-07 0)
(1 -2.63949e-07 0)
(1 -3.23148e-07 0)
(1 -3.92567e-07 0)
(1 -4.72874e-07 0)
(1 -5.64636e-07 0)
(1 -6.68286e-07 0)
(1 -7.83988e-07 0)
(1 -9.11371e-07 0)
(1 -1.04906e-06 0)
(1 -1.19392e-06 0)
(1 -1.33991e-06 0)
(1.00001 -1.47695e-06 0)
(1.00001 -1.59023e-06 0)
(1.00001 -1.66088e-06 0)
(1.00001 -1.66848e-06 0)
(1.00001 -1.59574e-06 0)
(1.00001 -1.4349e-06 0)
(1.00001 -1.19519e-06 0)
(1.00001 -9.09823e-07 0)
(1.00001 -6.39903e-07 0)
(1.00001 -4.70392e-07 0)
(1.00001 -4.92731e-07 0)
(1.00001 -7.70559e-07 0)
(1.00001 -1.29181e-06 0)
(1.00001 -1.93163e-06 0)
(1.00002 -2.47544e-06 0)
(1.00002 -2.70079e-06 0)
(1.00002 -2.48257e-06 0)
(1.00002 -1.84314e-06 0)
(1.00002 -9.14833e-07 0)
(1.00002 1.3625e-07 0)
(1.00002 1.19182e-06 0)
(1.00002 2.19856e-06 0)
(1.00002 3.14748e-06 0)
(1.00002 4.03649e-06 0)
(1.00002 4.84893e-06 0)
(1.00001 5.55354e-06 0)
(1.00001 6.10584e-06 0)
(1 6.45196e-06 0)
(1 6.54775e-06 0)
(0.999996 6.37923e-06 0)
(0.999992 5.96165e-06 0)
(0.999988 5.32252e-06 0)
(0.999985 4.49035e-06 0)
(0.999983 3.49565e-06 0)
(0.999981 2.37365e-06 0)
(0.99998 1.16161e-06 0)
(0.999979 -1.05001e-07 0)
(0.99998 -1.39617e-06 0)
(0.999981 -2.68512e-06 0)
(0.999983 -3.94773e-06 0)
(0.999986 -5.16138e-06 0)
(0.999989 -6.3031e-06 0)
(0.999994 -7.34802e-06 0)
(0.999998 -8.26836e-06 0)
(1 -9.03305e-06 0)
(1.00001 -9.60807e-06 0)
(1.00002 -9.95751e-06 0)
(1.00002 -1.00451e-05 0)
(1.00003 -9.83395e-06 0)
(1.00003 -9.28871e-06 0)
(1.00004 -8.38967e-06 0)
(1.00005 -7.1231e-06 0)
(1.00005 -5.48422e-06 0)
(1.00005 -3.48635e-06 0)
(1.00005 -1.16687e-06 0)
(1.00005 1.40672e-06 0)
(1.00005 4.14704e-06 0)
(1.00005 6.92626e-06 0)
(1.00004 9.58836e-06 0)
(1.00004 1.19655e-05 0)
(1.00003 1.38959e-05 0)
(1.00002 1.52443e-05 0)
(1.00001 1.592e-05 0)
(1 1.58893e-05 0)
(0.99999 1.51782e-05 0)
(0.999981 1.38674e-05 0)
(0.999972 1.20841e-05 0)
(0.999965 9.99122e-06 0)
(0.99996 7.76623e-06 0)
(0.999956 5.56533e-06 0)
(0.999953 3.49093e-06 0)
(0.999952 1.58574e-06 0)
(0.999951 -1.50769e-07 0)
(0.999952 -1.73752e-06 0)
(0.999954 -3.17629e-06 0)
(0.999956 -4.41134e-06 0)
(0.999959 -5.32097e-06 0)
(0.999963 -5.76899e-06 0)
(0.999967 -5.68894e-06 0)
(0.99997 -5.14532e-06 0)
(0.999973 -4.33151e-06 0)
(0.999976 -3.49433e-06 0)
(0.999977 -2.82635e-06 0)
(0.999979 -2.40364e-06 0)
(0.99998 -2.20322e-06 0)
(0.999981 -2.1572e-06 0)
(0.999983 -2.19252e-06 0)
(0.999984 -2.24891e-06 0)
(0.999985 -2.2857e-06 0)
(0.999987 -2.28175e-06 0)
(0.999988 -2.2309e-06 0)
(0.99999 -2.13663e-06 0)
(0.999991 -2.00768e-06 0)
(0.999992 -1.85468e-06 0)
(0.999993 -1.68801e-06 0)
(0.999994 -1.51666e-06 0)
(0.999995 -1.34772e-06 0)
(0.999996 -1.1863e-06 0)
(0.999996 -1.03581e-06 0)
(0.999997 -8.98183e-07 0)
(0.999997 -7.74238e-07 0)
(0.999998 -6.63995e-07 0)
(0.999998 -5.6692e-07 0)
(0.999999 -4.82139e-07 0)
(0.999999 -4.08591e-07 0)
(0.999999 -3.45138e-07 0)
(0.999999 -2.90644e-07 0)
(0.999999 -2.44023e-07 0)
(0.999999 -2.04267e-07 0)
(1 -1.7046e-07 0)
(1 -1.41781e-07 0)
(1 -1.17508e-07 0)
(1 -9.70067e-08 0)
(1 -7.97256e-08 0)
(1 -6.5188e-08 0)
(1 -5.29829e-08 0)
(1 -4.27568e-08 0)
(1 -3.42068e-08 0)
(1 -2.70744e-08 0)
(1 -2.11395e-08 0)
(1 -1.62162e-08 0)
(1 -1.21479e-08 0)
(1 -8.80226e-09 0)
(1 -6.06651e-09 0)
(1 -3.84376e-09 0)
(1 -2.05321e-09 0)
(1 -6.24716e-10 0)
(1 5.0258e-10 0)
(1 1.38178e-09 0)
(1 2.0569e-09 0)
(1 2.56401e-09 0)
(1 2.93302e-09 0)
(1 3.18888e-09 0)
(1 3.35247e-09 0)
(1 3.4412e-09 0)
(1 3.4696e-09 0)
(1 3.44978e-09 0)
(1 3.39179e-09 0)
(1 3.30398e-09 0)
(1 3.19322e-09 0)
(1 3.06519e-09 0)
(1 2.9245e-09 0)
(1 2.77487e-09 0)
(1 2.61934e-09 0)
(1 2.46032e-09 0)
(1 2.29973e-09 0)
(1 2.13909e-09 0)
(1 1.97952e-09 0)
(1 1.82185e-09 0)
(1 1.66667e-09 0)
(1 1.51437e-09 0)
(1 1.36524e-09 0)
(1 1.21915e-09 0)
(1 1.07724e-09 0)
(1 9.34071e-10 0)
(1 8.13945e-10 0)
(1 6.0544e-10 0)
(1 6.0787e-11 0)
(1 1.83135e-10 0)
(1 3.06227e-10 0)
(1 4.08772e-10 0)
(1 4.92692e-10 0)
(1 5.54796e-10 0)
(1 5.83863e-10 0)
(1 5.71698e-10 0)
(1 5.10219e-10 0)
(1 3.87088e-10 0)
(1 1.8214e-10 0)
(1 -1.35123e-10 0)
(1 -6.06526e-10 0)
(1 -1.28384e-09 0)
(1 -2.22732e-09 0)
(1 -3.50585e-09 0)
(1 -5.19979e-09 0)
(1 -7.40658e-09 0)
(1 -1.02482e-08 0)
(1 -1.38792e-08 0)
(1 -1.84932e-08 0)
(1 -2.43263e-08 0)
(1 -3.16573e-08 0)
(1 -4.08098e-08 0)
(1 -5.21627e-08 0)
(1 -6.61781e-08 0)
(1 -8.34459e-08 0)
(1 -1.04732e-07 0)
(1 -1.31004e-07 0)
(1 -1.63415e-07 0)
(1 -2.0325e-07 0)
(1 -2.51827e-07 0)
(1 -3.10402e-07 0)
(1 -3.80092e-07 0)
(1 -4.61842e-07 0)
(1 -5.56461e-07 0)
(1 -6.64655e-07 0)
(1 -7.86987e-07 0)
(1 -9.23728e-07 0)
(1 -1.07455e-06 0)
(1 -1.238e-06 0)
(1 -1.41057e-06 0)
(1 -1.58533e-06 0)
(1.00001 -1.75045e-06 0)
(1.00001 -1.88824e-06 0)
(1.00001 -1.97582e-06 0)
(1.00001 -1.98807e-06 0)
(1.00001 -1.90321e-06 0)
(1.00001 -1.71068e-06 0)
(1.00001 -1.42036e-06 1.16377e-41)
(1.00001 -1.07132e-06 1.21634e-41)
(1.00001 -7.36654e-07 0)
(1.00001 -5.19132e-07 0)
(1.00001 -5.31582e-07 0)
(1.00001 -8.57448e-07 0)
(1.00001 -1.49295e-06 0)
(1.00001 -2.29647e-06 0)
(1.00002 -3.00396e-06 0)
(1.00002 -3.33071e-06 0)
(1.00002 -3.11174e-06 0)
(1.00002 -2.36892e-06 0)
(1.00002 -1.26457e-06 0)
(1.00002 1.82633e-09 0)
(1.00002 1.27655e-06 0)
(1.00002 2.4908e-06 0)
(1.00002 3.63749e-06 0)
(1.00002 4.71791e-06 0)
(1.00002 5.71271e-06 0)
(1.00001 6.58381e-06 0)
(1.00001 7.27597e-06 0)
(1 7.72038e-06 0)
(1 7.85991e-06 0)
(0.999996 7.67646e-06 0)
(0.999992 7.18928e-06 0)
(0.999988 6.43219e-06 0)
(0.999985 5.43933e-06 0)
(0.999982 4.24774e-06 0)
(0.99998 2.90139e-06 0)
(0.999979 1.44737e-06 0)
(0.999979 -7.08766e-08 0)
(0.999979 -1.61573e-06 0)
(0.999981 -3.15522e-06 0)
(0.999983 -4.66199e-06 0)
(0.999985 -6.11107e-06 0)
(0.999989 -7.47692e-06 0)
(0.999993 -8.73113e-06 0)
(0.999998 -9.84119e-06 0)
(1 -1.07706e-05 0)
(1.00001 -1.14798e-05 0)
(1.00002 -1.19281e-05 0)
(1.00002 -1.2074e-05 0)
(1.00003 -1.18741e-05 0)
(1.00003 -1.12832e-05 0)
(1.00004 -1.02668e-05 0)
(1.00005 -8.80026e-06 0)
(1.00005 -6.87378e-06 0)
(1.00005 -4.49873e-06 0)
(1.00005 -1.71593e-06 0)
(1.00006 1.3985e-06 0)
(1.00005 4.72484e-06 0)
(1.00005 8.10579e-06 0)
(1.00005 1.1354e-05 0)
(1.00004 1.42654e-05 0)
(1.00003 1.66411e-05 0)
(1.00002 1.83138e-05 0)
(1.00001 1.917e-05 0)
(1 1.91659e-05 0)
(0.99999 1.83311e-05 0)
(0.99998 1.67621e-05 0)
(0.999972 1.46129e-05 0)
(0.999965 1.20827e-05 0)
(0.999959 9.39118e-06 0)
(0.999955 6.73279e-06 0)
(0.999952 4.23376e-06 0)
(0.999951 1.945e-06 0)
(0.999951 -1.36555e-07 0)
(0.999951 -2.03806e-06 0)
(0.999953 -3.76805e-06 0)
(0.999956 -5.26211e-06 0)
(0.999959 -6.36838e-06 0)
(0.999963 -6.91292e-06 0)