/*--------------------------------*- C++ -*----------------------------------*\
| =========                 |                                                 |
| \\      /  F ield         | OpenFOAM: The Open Source CFD Toolbox           |
|  \\    /   O peration     | Version:  v2006                                 |
|   \\  /    A nd           | Website:  www.openfoam.com                      |
|    \\/     M anipulation  |                                                 |
\*---------------------------------------------------------------------------*/
FoamFile
{
    version     2.0;
    format      ascii;
    class       volVectorField;
    location    "9";
    object      U;
}
// * * * * * * * * * * * * * * * * * * * * * * * * * * * * * * * * * * * * * //

dimensions      [0 1 -1 0 0 0 0];


internalField   nonuniform List<vector> 
150000
(
(0.006704 -0.00744051 0)
(0.023927 -0.00970494 0)
(0.0427641 -0.00971715 0)
(0.0607628 -0.00947364 0)
(0.0782538 -0.00927969 0)
(0.0955369 -0.0091617 0)
(0.11271 -0.00909701 0)
(0.129792 -0.00905955 0)
(0.14679 -0.00903154 0)
(0.163707 -0.0090053 0)
(0.180539 -0.00897834 0)
(0.197282 -0.00894941 0)
(0.213934 -0.00891783 0)
(0.230491 -0.0088833 0)
(0.246951 -0.0088456 0)
(0.263314 -0.00880447 0)
(0.279577 -0.00875981 0)
(0.295738 -0.00871175 0)
(0.311795 -0.00866052 0)
(0.327745 -0.00860649 0)
(0.343586 -0.00855008 0)
(0.359314 -0.00849151 0)
(0.374925 -0.00843097 0)
(0.390415 -0.00836881 0)
(0.405778 -0.00830559 0)
(0.421012 -0.00824186 0)
(0.436111 -0.00817814 0)
(0.451072 -0.00811493 0)
(0.465887 -0.00805278 0)
(0.480553 -0.00799219 0)
(0.495063 -0.00793331 0)
(0.509411 -0.00787554 0)
(0.523589 -0.00781702 0)
(0.537594 -0.00775458 0)
(0.551422 -0.00768416 0)
(0.565078 -0.00760181 0)
(0.578566 -0.00750493 0)
(0.591897 -0.00739308 0)
(0.605081 -0.00726817 0)
(0.618126 -0.00713421 0)
(0.631036 -0.00699747 0)
(0.643813 -0.00686694 0)
(0.656448 -0.0067544 0)
(0.668928 -0.00667277 0)
(0.68123 -0.00663326 0)
(0.693327 -0.00664319 0)
(0.705185 -0.00670324 0)
(0.716771 -0.00680163 0)
(0.728059 -0.00691315 0)
(0.739036 -0.00700372 0)
(0.749702 -0.00703544 0)
(0.760084 -0.00697902 0)
(0.770225 -0.00682776 0)
(0.780171 -0.00659772 0)
(0.789961 -0.00631728 0)
(0.79962 -0.00601504 0)
(0.809157 -0.00571194 0)
(0.818568 -0.00541895 0)
(0.82784 -0.00513886 0)
(0.836958 -0.0048696 0)
(0.845908 -0.00460719 0)
(0.854676 -0.00434741 0)
(0.863251 -0.00408632 0)
(0.871622 -0.00382015 0)
(0.879778 -0.00354536 0)
(0.887703 -0.00325917 0)
(0.895376 -0.0029604 0)
(0.902769 -0.00264994 0)
(0.909847 -0.00232959 0)
(0.916565 -0.0020017 0)
(0.922875 -0.00167161 0)
(0.928732 -0.00135141 0)
(0.934106 -0.00106307 0)
(0.939001 -0.000838316 0)
(0.943465 -0.000713727 0)
(0.947592 -0.000720994 0)
(0.951515 -0.000875731 0)
(0.955382 -0.00116925 0)
(0.959328 -0.00156629 0)
(0.963448 -0.00200905 0)
(0.967778 -0.00242699 0)
(0.972281 -0.00275137 0)
(0.976856 -0.00292675 0)
(0.981347 -0.00291787 0)
(0.985568 -0.00272376 0)
(0.989347 -0.00235856 0)
(0.992528 -0.00172083 0)
(0.994815 -0.000559003 0)
(0.995549 0.00101275 0)
(0.994599 0.00222465 0)
(0.992728 0.00277135 0)
(0.990438 0.00285226 0)
(0.987932 0.0027404 0)
(0.985271 0.00262709 0)
(0.982456 0.00255614 0)
(0.979493 0.00251648 0)
(0.9764 0.00249283 0)
(0.973193 0.00247725 0)
(0.969889 0.00246685 0)
(0.966501 0.00245991 0)
(0.963037 0.00245445 0)
(0.959507 0.00244834 0)
(0.955919 0.0024399 0)
(0.952284 0.00242822 0)
(0.94861 0.00241324 0)
(0.944909 0.00239619 0)
(0.941193 0.00237947 0)
(0.937471 0.00236593 0)
(0.933751 0.00235799 0)
(0.930034 0.00235687 0)
(0.926313 0.00236205 0)
(0.922575 0.00237116 0)
(0.9188 0.00238027 0)
(0.914971 0.00238501 0)
(0.911079 0.00238148 0)
(0.907136 0.00236518 0)
(0.903172 0.00233022 0)
(0.899241 0.00227262 0)
(0.895411 0.00219665 0)
(0.891756 0.00211965 0)
(0.888332 0.00207533 0)
(0.885154 0.00211121 0)
(0.882151 0.00225781 0)
(0.87918 0.00256214 0)
(0.876024 0.00310536 0)
(0.872375 0.00389767 0)
(0.867893 0.00481637 0)
(0.862359 0.00560032 0)
(0.855845 0.00594546 0)
(0.848774 0.00568732 0)
(0.841702 0.00478221 0)
(0.835102 0.0033529 0)
(0.829241 0.00174283 0)
(0.824178 0.000317258 0)
(0.819811 -0.00070024 0)
(0.815977 -0.00126112 0)
(0.812555 -0.00144495 0)
(0.809483 -0.0013856 0)
(0.806752 -0.00120987 0)
(0.804368 -0.00100757 0)
(0.802332 -0.000828429 0)
(0.800638 -0.000692185 0)
(0.799274 -0.000600906 0)
(0.798222 -0.000549458 0)
(0.797471 -0.000533716 0)
(0.797014 -0.000558953 0)
(0.796846 -0.000649817 0)
(0.797038 -0.00083099 0)
(0.797675 -0.00107504 0)
(0.79876 -0.001335 0)
(0.800281 -0.0015831 0)
(0.802215 -0.00181354 0)
(0.804541 -0.00202699 0)
(0.807236 -0.0022245 0)
(0.81028 -0.00240704 0)
(0.813655 -0.0025757 0)
(0.817342 -0.00273161 0)
(0.821326 -0.00287591 0)
(0.825593 -0.00300965 0)
(0.830128 -0.00313374 0)
(0.834918 -0.0032489 0)
(0.839952 -0.00335567 0)
(0.845219 -0.00345439 0)
(0.850707 -0.00354529 0)
(0.856406 -0.00362862 0)
(0.862306 -0.00370473 0)
(0.868397 -0.00377421 0)
(0.874672 -0.00383794 0)
(0.881119 -0.00389706 0)
(0.88773 -0.0039529 0)
(0.894494 -0.00400672 0)
(0.901401 -0.00405948 0)
(0.908436 -0.00411156 0)
(0.915587 -0.00416245 0)
(0.922839 -0.00421066 0)
(0.930175 -0.00425371 0)
(0.93758 -0.0042883 0)
(0.94504 -0.00431077 0)
(0.952541 -0.0043176 0)
(0.960072 -0.00430599 0)
(0.967624 -0.00427432 0)
(0.975191 -0.00422243 0)
(0.982769 -0.00415155 0)
(0.990353 -0.00406402 0)
(0.99794 -0.00396287 0)
(1.00553 -0.00385125 0)
(1.01311 -0.003732 0)
(1.02068 -0.00360736 0)
(1.02823 -0.00347877 0)
(1.03576 -0.00334693 0)
(1.04324 -0.00321191 0)
(1.05068 -0.00307342 0)
(1.05806 -0.00293104 0)
(1.06537 -0.00278454 0)
(1.07259 -0.00263395 0)
(1.07972 -0.00247961 0)
(1.08676 -0.00232178 0)
(1.0937 -0.00216003 0)
(1.10054 -0.00199262 0)
(1.10728 -0.00181654 0)
(1.11394 -0.00162924 0)
(1.12056 -0.00143267 0)
(1.12721 -0.00124095 0)
(1.13401 -0.00109595 0)
(1.14118 -0.00107448 0)
(1.14896 -0.00113513 0)
(1.15739 -0.000449306 0)
(1.16536 0.00313751 0)
(1.16811 0.0102035 0)
(1.16268 0.0167851 0)
(1.15255 0.0195162 0)
(1.14184 0.0183596 0)
(1.13277 0.0150738 0)
(1.12562 0.0116491 0)
(1.11975 0.00917363 0)
(1.1144 0.00768867 0)
(1.10916 0.00679197 0)
(1.10391 0.00612629 0)
(1.09868 0.00550062 0)
(1.09352 0.00483799 0)
(1.08849 0.00409912 0)
(1.08363 0.00324789 0)
(1.07903 0.00226518 0)
(1.07476 0.00116674 0)
(1.07089 6.51861e-06 0)
(1.06746 -0.00113512 0)
(1.06443 -0.0021713 0)
(1.06179 -0.00302583 0)
(1.05946 -0.00364363 0)
(1.05738 -0.00399534 0)
(1.0555 -0.00407811 0)
(1.05377 -0.0039141 0)
(1.05217 -0.00354677 0)
(1.05068 -0.00303476 0)
(1.0493 -0.0024435 0)
(1.04804 -0.00183568 0)
(1.0469 -0.00126267 0)
(1.04588 -0.000758553 0)
(1.04496 -0.000337891 0)
(1.04414 1.91657e-06 0)
(1.04337 0.000279943 0)
(1.04261 0.000539968 0)
(1.04179 0.000837996 0)
(1.04082 0.00124153 0)
(1.03953 0.00182954 0)
(1.03771 0.00266865 0)
(1.03509 0.00377113 0)
(1.03148 0.00505914 0)
(1.02676 0.00635356 0)
(1.02104 0.00742606 0)
(1.01462 0.00808341 0)
(1.00793 0.00826067 0)
(1.00137 0.00801299 0)
(0.995211 0.00746189 0)
(0.989557 0.00677448 0)
(0.984399 0.00610289 0)
(0.979653 0.00552516 0)
(0.975222 0.00504292 0)
(0.971041 0.00461599 0)
(0.967094 0.00419991 0)
(0.963391 0.00376958 0)
(0.959953 0.00332502 0)
(0.956787 0.00288477 0)
(0.953886 0.00247616 0)
(0.951221 0.00212774 0)
(0.948749 0.00186524 0)
(0.946413 0.00170757 0)
(0.944149 0.00166086 0)
(0.941894 0.00171791 0)
(0.939596 0.00185987 0)
(0.937223 0.00206016 0)
(0.934767 0.00228581 0)
(0.93224 0.00250433 0)
(0.929671 0.00269114 0)
(0.927095 0.00283385 0)
(0.924543 0.00293382 0)
(0.922041 0.0030003 0)
(0.919603 0.00304484 0)
(0.91723 0.00307684 0)
(0.914916 0.00309973 0)
(0.912651 0.00311 0)
(0.910426 0.00309948 0)
(0.908237 0.00305899 0)
(0.906082 0.00298181 0)
(0.903967 0.00286586 0)
(0.901898 0.00271483 0)
(0.89988 0.00253769 0)
(0.897922 0.00234737 0)
(0.896028 0.00215856 0)
(0.894202 0.00198461 0)
(0.89245 0.00183379 0)
(0.890774 0.0017072 0)
(0.889177 0.00159987 0)
(0.887663 0.00150358 0)
(0.886234 0.00141043 0)
(0.884891 0.00131508 0)
(0.883636 0.00121526 0)
(0.882474 0.00111084 0)
(0.881406 0.00100252 0)
(0.880437 0.000891249 0)
(0.879568 0.0007778 0)
(0.878804 0.000662765 0)
(0.878146 0.000546573 0)
(0.877597 0.000429539 0)
(0.877158 0.000311972 0)
(0.876831 0.000194161 0)
(0.876616 7.63231e-05 0)
(0.876513 -4.10939e-05 0)
(0.87652 -0.000155478 0)
(0.876633 -0.000263895 0)
(0.876855 -0.000369566 0)
(0.877184 -0.000472923 0)
(0.877618 -0.000574003 0)
(0.878157 -0.00067288 0)
(0.878798 -0.000769678 0)
(0.87954 -0.000864178 0)
(0.880379 -0.000955917 0)
(0.881312 -0.0010448 0)
(0.882335 -0.00113057 0)
(0.883444 -0.00121283 0)
(0.884634 -0.00129139 0)
(0.885898 -0.00136611 0)
(0.887231 -0.00143669 0)
(0.888626 -0.00150285 0)
(0.890076 -0.00156446 0)
(0.891573 -0.00162144 0)
(0.893108 -0.00167329 0)
(0.894675 -0.001721 0)
(0.896266 -0.00176288 0)
(0.897869 -0.00179944 0)
(0.899476 -0.00182883 0)
(0.901073 -0.00185253 0)
(0.902652 -0.00187057 0)
(0.904203 -0.0018824 0)
(0.905714 -0.00188763 0)
(0.907174 -0.00188597 0)
(0.908571 -0.00187733 0)
(0.909893 -0.00186138 0)
(0.911129 -0.00183832 0)
(0.912265 -0.00180782 0)
(0.91329 -0.00176949 0)
(0.914191 -0.00172291 0)
(0.914955 -0.00166783 0)
(0.915567 -0.00160354 0)
(0.916014 -0.00152883 0)
(0.916283 -0.00144367 0)
(0.91636 -0.00135075 0)
(0.916241 -0.00125281 0)
(0.91592 -0.00115233 0)
(0.915395 -0.00105357 0)
(0.914671 -0.000961873 0)
(0.913757 -0.000881863 0)
(0.912666 -0.000815606 0)
(0.911415 -0.000760842 0)
(0.910018 -0.000710142 0)
(0.908482 -0.000651854 0)
(0.906801 -0.000573217 0)
(0.904957 -0.000464851 0)
(0.902919 -0.000324666 0)
(0.900649 -0.000159102 0)
(0.89811 1.91447e-05 0)
(0.895275 0.000195919 0)
(0.892126 0.000360667 0)
(0.888657 0.0005096 0)
(0.884866 0.000645818 0)
(0.880757 0.000776798 0)
(0.876331 0.000910741 0)
(0.871584 0.00105348 0)
(0.866511 0.00120703 0)
(0.861105 0.00136991 0)
(0.855362 0.00153876 0)
(0.849281 0.00171019 0)
(0.842862 0.00188207 0)
(0.836114 0.00205372 0)
(0.829041 0.00222539 0)
(0.821653 0.00239738 0)
(0.813956 0.00256949 0)
(0.805958 0.0027409 0)
(0.797666 0.00291049 0)
(0.789088 0.00307704 0)
(0.780232 0.00323945 0)
(0.771108 0.00339682 0)
(0.761725 0.00354859 0)
(0.752094 0.00369462 0)
(0.742225 0.0038353 0)
(0.732126 0.00397138 0)
(0.721806 0.00410364 0)
(0.711274 0.00423243 0)
(0.70054 0.00435742 0)
(0.689614 0.00447759 0)
(0.678511 0.00459177 0)
(0.667243 0.00469899 0)
(0.655825 0.00479858 0)
(0.644272 0.00489008 0)
(0.6326 0.0049732 0)
(0.620823 0.00504787 0)
(0.608955 0.00511491 0)
(0.59701 0.00517637 0)
(0.584998 0.00523409 0)
(0.572932 0.00528199 0)
(0.560837 0.0052987 0)
(0.548762 0.00525667 0)
(0.536776 0.00514787 0)
(0.524935 0.00499884 0)
(0.513252 0.00485288 0)
(0.501706 0.00473806 0)
(0.49026 0.00465631 0)
(0.478892 0.00459664 0)
(0.46759 0.00454942 0)
(0.45635 0.00450955 0)
(0.445171 0.00447446 0)
(0.434054 0.00444255 0)
(0.423 0.00441266 0)
(0.412014 0.00438379 0)
(0.401097 0.00435518 0)
(0.390254 0.00432627 0)
(0.379489 0.00429684 0)
(0.368805 0.00426683 0)
(0.358209 0.00423585 0)
(0.347703 0.0042035 0)
(0.337293 0.00416996 0)
(0.326984 0.00413539 0)
(0.316779 0.00409945 0)
(0.306684 0.00406209 0)
(0.296702 0.00402319 0)
(0.286836 0.00398307 0)
(0.277092 0.00394111 0)
(0.267471 0.00389746 0)
(0.257974 0.00385563 0)
(0.248598 0.00382166 0)
(0.239331 0.00380401 0)
(0.230159 0.00381018 0)
(0.221061 0.00383863 0)
(0.212028 0.0038793 0)
(0.203064 0.00391385 0)
(0.194193 0.00392434 0)
(0.18545 0.00390234 0)
(0.176877 0.00384617 0)
(0.168501 0.00377047 0)
(0.160335 0.00368425 0)
(0.152382 0.00359376 0)
(0.144643 0.00350113 0)
(0.137114 0.00340461 0)
(0.129798 0.0033024 0)
(0.122698 0.00319364 0)
(0.115819 0.00307837 0)
(0.109165 0.00295804 0)
(0.102728 0.00283127 0)
(0.0965243 0.00270669 0)
(0.090557 0.00257363 0)
(0.0848043 0.00244066 0)
(0.0792759 0.00230855 0)
(0.0739683 0.00217838 0)
(0.068875 0.00205069 0)
(0.0639919 0.00192625 0)
(0.0593142 0.00180564 0)
(0.0548297 0.00168745 0)
(0.0505431 0.00157772 0)
(0.0464509 0.00146498 0)
(0.0425346 0.00135704 0)
(0.0387928 0.00125179 0)
(0.0352273 0.00115301 0)
(0.0318371 0.00105341 0)
(0.0286059 0.000956062 0)
(0.025542 0.00086375 0)
(0.0226396 0.000768271 0)
(0.0198859 0.000675282 0)
(0.0172876 0.000584566 0)
(0.0148424 0.000494752 0)
(0.0125457 0.000406523 0)
(0.0103976 0.000319566 0)
(0.00839367 0.000232809 0)
(0.00653814 0.00014909 0)
(0.00482267 6.37449e-05 0)
(0.00325341 -1.37132e-05 0)
(0.00182912 -9.52865e-05 0)
(0.000539728 -0.000170678 0)
(-0.000610173 -0.000245616 0)
(-0.001631 -0.000315542 0)
(-0.00252421 -0.000382264 0)
(-0.00329575 -0.000443899 0)
(-0.00395222 -0.000501474 0)
(-0.00450085 -0.000554387 0)
(-0.00494963 -0.000602629 0)
(-0.00530694 -0.000645995 0)
(-0.0055821 -0.000682756 0)
(-0.00578627 -0.000709586 0)
(-0.00593222 -0.000726103 0)
(-0.00603382 -0.00073426 0)
(-0.00610326 -0.00074632 0)
(-0.00614675 -0.000784109 0)
(-0.00616442 -0.000873609 0)
(-0.00614239 -0.00102445 0)
(-0.006038 -0.00121465 0)
(-0.00576748 -0.00139478 0)
(-0.00511954 -0.00152755 0)
(-0.00378072 -0.00158703 0)
(-0.00091298 -0.00158041 0)
(0.00191849 -0.000888718 0)
(0.00285522 0.000362732 0)
(0.00524373 -0.0179025 0)
(0.0192201 -0.0217905 0)
(0.0334984 -0.0210989 0)
(0.046907 -0.020446 0)
(0.0598843 -0.0201276 0)
(0.0727364 -0.0199596 0)
(0.0855363 -0.0198385 0)
(0.0982804 -0.0197263 0)
(0.110973 -0.0196094 0)
(0.123621 -0.0194859 0)
(0.136229 -0.0193575 0)
(0.148802 -0.0192258 0)
(0.161348 -0.0190921 0)
(0.173871 -0.018958 0)
(0.186375 -0.0188244 0)
(0.198863 -0.0186914 0)
(0.211337 -0.0185586 0)
(0.223793 -0.0184258 0)
(0.236226 -0.0182927 0)
(0.248629 -0.0181586 0)
(0.260992 -0.018022 0)
(0.273305 -0.0178815 0)
(0.285554 -0.0177362 0)
(0.297728 -0.0175853 0)
(0.309812 -0.0174284 0)
(0.321795 -0.0172648 0)
(0.333663 -0.0170936 0)
(0.345405 -0.0169137 0)
(0.357007 -0.0167235 0)
(0.368458 -0.0165217 0)
(0.379751 -0.0163074 0)
(0.390882 -0.0160817 0)
(0.401854 -0.0158485 0)
(0.41268 -0.015616 0)
(0.423379 -0.0153946 0)
(0.433975 -0.0151951 0)
(0.44449 -0.0150248 0)
(0.454934 -0.0148857 0)
(0.465303 -0.0147734 0)
(0.475573 -0.014678 0)
(0.485699 -0.0145845 0)
(0.49562 -0.0144717 0)
(0.50526 -0.0143135 0)
(0.514539 -0.0140821 0)
(0.52338 -0.0137555 0)
(0.531735 -0.0133251 0)
(0.539605 -0.012799 0)
(0.547059 -0.0122046 0)
(0.55424 -0.0115902 0)
(0.561347 -0.0110193 0)
(0.568602 -0.0105529 0)
(0.576188 -0.0102319 0)
(0.584215 -0.0100658 0)
(0.592701 -0.0100313 0)
(0.601581 -0.0100828 0)
(0.610733 -0.0101704 0)
(0.620016 -0.010254 0)
(0.6293 -0.0103098 0)
(0.638482 -0.0103291 0)
(0.647494 -0.0103134 0)
(0.656299 -0.010269 0)
(0.664877 -0.0102031 0)
(0.673219 -0.0101208 0)
(0.681312 -0.0100234 0)
(0.689141 -0.00990854 0)
(0.696683 -0.00977064 0)
(0.703913 -0.00960149 0)
(0.710809 -0.00939029 0)
(0.717357 -0.00912412 0)
(0.723553 -0.00879107 0)
(0.729401 -0.00838555 0)
(0.734912 -0.00791296 0)
(0.740103 -0.00739257 0)
(0.744982 -0.00685638 0)
(0.749553 -0.0063436 0)
(0.753811 -0.0058924 0)
(0.757744 -0.00553108 0)
(0.761339 -0.00527105 0)
(0.764589 -0.00510373 0)
(0.767496 -0.00500186 0)
(0.770075 -0.00492428 0)
(0.772351 -0.00482337 0)
(0.774358 -0.00465507 0)
(0.776149 -0.00439071 0)
(0.777777 -0.00402657 0)
(0.779295 -0.0035646 0)
(0.780818 -0.00294995 0)
(0.782679 -0.00208096 0)
(0.785448 -0.00104826 0)
(0.788927 -0.00021007 0)
(0.792234 0.000372558 0)
(0.794959 0.000846277 0)
(0.797049 0.00130708 0)
(0.798569 0.00171424 0)
(0.799571 0.00206503 0)
(0.800122 0.00236324 0)
(0.800277 0.00261485 0)
(0.800083 0.00282838 0)
(0.799577 0.00301185 0)
(0.798797 0.00317181 0)
(0.797774 0.00331341 0)
(0.796534 0.00344039 0)
(0.795099 0.00355461 0)
(0.793491 0.00365587 0)
(0.791727 0.00374199 0)
(0.789823 0.00380978 0)
(0.787796 0.00385665 0)
(0.785664 0.00388239 0)
(0.783444 0.00389077 0)
(0.781157 0.00389032 0)
(0.778829 0.0038936 0)
(0.776482 0.00391458 0)
(0.77414 0.00396435 0)
(0.771815 0.00404608 0)
(0.7695 0.00415058 0)
(0.76717 0.0042545 0)
(0.764786 0.00432325 0)
(0.762312 0.00431851 0)
(0.759734 0.0042073 0)
(0.75708 0.00397172 0)
(0.754437 0.0036193 0)
(0.75196 0.00318891 0)
(0.749889 0.00274913 0)
(0.748482 0.00240144 0)
(0.74795 0.00225801 0)
(0.748406 0.00243009 0)
(0.749793 0.00298568 0)
(0.751723 0.00388675 0)
(0.753392 0.0049723 0)
(0.753701 0.00602355 0)
(0.751732 0.0068802 0)
(0.747168 0.00748577 0)
(0.740312 0.00785359 0)
(0.731854 0.00800897 0)
(0.722641 0.00795369 0)
(0.713448 0.00767597 0)
(0.704821 0.00718162 0)
(0.697051 0.00651232 0)
(0.690234 0.00573781 0)
(0.684348 0.00493216 0)
(0.679325 0.00415276 0)
(0.675085 0.00343178 0)
(0.671557 0.00277907 0)
(0.668685 0.00218976 0)
(0.666426 0.0016514 0)
(0.664743 0.0011472 0)
(0.663604 0.000652021 0)
(0.662926 0.000138154 0)
(0.662579 -0.000383316 0)
(0.662511 -0.000878456 0)
(0.66272 -0.00134764 0)
(0.663201 -0.00179428 0)
(0.663949 -0.00221969 0)
(0.664964 -0.00262532 0)
(0.666241 -0.00301275 0)
(0.667779 -0.00338344 0)
(0.669575 -0.00373871 0)
(0.671626 -0.0040797 0)
(0.673928 -0.00440731 0)
(0.676478 -0.00472228 0)
(0.67927 -0.00502527 0)
(0.682301 -0.00531692 0)
(0.685563 -0.00559788 0)
(0.689052 -0.00586878 0)
(0.69276 -0.00613013 0)
(0.696678 -0.00638217 0)
(0.700795 -0.00662467 0)
(0.7051 -0.00685677 0)
(0.709576 -0.00707692 0)
(0.714208 -0.00728293 0)
(0.718979 -0.00747221 0)
(0.723874 -0.00764213 0)
(0.728882 -0.00779059 0)
(0.733997 -0.00791656 0)
(0.73922 -0.00802059 0)
(0.744559 -0.00810504 0)
(0.750028 -0.00817411 0)
(0.755648 -0.00823341 0)
(0.761438 -0.00828919 0)
(0.767417 -0.00834747 0)
(0.773599 -0.00841304 0)
(0.779986 -0.0084888 0)
(0.786571 -0.00857538 0)
(0.793338 -0.00867124 0)
(0.800259 -0.00877312 0)
(0.8073 -0.00887673 0)
(0.814424 -0.00897746 0)
(0.821591 -0.00907103 0)
(0.828768 -0.00915396 0)
(0.835924 -0.00922376 0)
(0.843036 -0.00927902 0)
(0.850088 -0.00931936 0)
(0.857072 -0.00934535 0)
(0.863984 -0.00935842 0)
(0.87083 -0.00936088 0)
(0.877618 -0.00935599 0)
(0.884363 -0.00934833 0)
(0.891085 -0.00934453 0)
(0.897811 -0.00935486 0)
(0.904581 -0.00939613 0)
(0.911447 -0.00949634 0)
(0.918486 -0.00970078 0)
(0.925803 -0.0100776 0)
(0.933545 -0.0107145 0)
(0.941897 -0.0116763 0)
(0.95112 -0.0128491 0)
(0.961722 -0.013585 0)
(0.975023 -0.0125442 0)
(0.994399 -0.00921151 0)
(1.01908 -0.00540854 0)
(1.04284 -0.00277019 0)
(1.06152 -0.00147718 0)
(1.07424 -0.000821778 0)
(1.08249 -0.000151882 0)
(1.08815 0.000658624 0)
(1.09245 0.00148775 0)
(1.09602 0.00222862 0)
(1.09903 0.00285203 0)
(1.10143 0.00339656 0)
(1.10317 0.00390085 0)
(1.10416 0.00440721 0)
(1.10428 0.00491925 0)
(1.10334 0.00542502 0)
(1.10118 0.005915 0)
(1.09766 0.0063789 0)
(1.09274 0.00679976 0)
(1.08651 0.00715163 0)
(1.07917 0.00740142 0)
(1.07104 0.00751485 0)
(1.06251 0.00746349 0)
(1.05399 0.0072304 0)
(1.04589 0.00681442 0)
(1.03854 0.00623273 0)
(1.03216 0.0055209 0)
(1.02687 0.0047292 0)
(1.02269 0.00391507 0)
(1.01953 0.00313371 0)
(1.01727 0.00242937 0)
(1.01574 0.00183023 0)
(1.01481 0.00134763 0)
(1.01434 0.000978931 0)
(1.01427 0.000713016 0)
(1.01455 0.000536705 0)
(1.01519 0.000446679 0)
(1.0163 0.000454153 0)
(1.01804 0.000577803 0)
(1.02061 0.000835854 0)
(1.02417 0.00121489 0)
(1.02873 0.00166692 0)
(1.03412 0.00210831 0)
(1.03996 0.00245178 0)
(1.0458 0.00264574 0)
(1.05126 0.00268525 0)
(1.05607 0.00260361 0)
(1.06017 0.00248386 0)
(1.06364 0.00238801 0)
(1.0666 0.00233924 0)
(1.06916 0.00233217 0)
(1.0714 0.0023469 0)
(1.07335 0.00236325 0)
(1.07502 0.0023697 0)
(1.07639 0.00236384 0)
(1.07748 0.00234799 0)
(1.07831 0.00232551 0)
(1.07893 0.00229724 0)
(1.07941 0.00226246 0)
(1.07984 0.0022195 0)
(1.08032 0.00216318 0)
(1.08097 0.00209811 0)
(1.08186 0.00202514 0)
(1.08308 0.00194199 0)
(1.08464 0.00184544 0)
(1.08653 0.0017348 0)
(1.08874 0.0016114 0)
(1.0912 0.00147556 0)
(1.09389 0.00132773 0)
(1.09676 0.00117335 0)
(1.09979 0.00102116 0)
(1.10298 0.000879644 0)
(1.10631 0.000756388 0)
(1.10977 0.000658254 0)
(1.11336 0.000591019 0)
(1.11703 0.000558698 0)
(1.12074 0.000562318 0)
(1.12442 0.000599256 0)
(1.128 0.000663698 0)
(1.13142 0.000747168 0)
(1.13463 0.000838647 0)
(1.13759 0.000924937 0)
(1.14031 0.000992474 0)
(1.14278 0.00103088 0)
(1.14505 0.00103674 0)
(1.14716 0.0010148 0)
(1.14915 0.000974862 0)
(1.15105 0.000926614 0)
(1.15286 0.000876272 0)
(1.15459 0.000826078 0)
(1.15625 0.000775731 0)
(1.15783 0.000724167 0)
(1.15932 0.000670439 0)
(1.16074 0.000613968 0)
(1.16207 0.000554542 0)
(1.16331 0.000492143 0)
(1.16447 0.000426881 0)
(1.16554 0.000358953 0)
(1.16652 0.000288455 0)
(1.16741 0.000215523 0)
(1.16821 0.00014091 0)
(1.16893 6.66957e-05 0)
(1.16956 -5.31881e-06 0)
(1.17011 -7.71011e-05 0)
(1.17058 -0.000149223 0)
(1.17096 -0.000221399 0)
(1.17126 -0.000293327 0)
(1.17147 -0.000364109 0)
(1.17159 -0.000433036 0)
(1.17162 -0.000499726 0)
(1.17157 -0.000563118 0)
(1.17142 -0.000622249 0)
(1.17118 -0.000676644 0)
(1.17084 -0.000725755 0)
(1.1704 -0.000768949 0)
(1.16985 -0.000805508 0)
(1.1692 -0.000834753 0)
(1.16844 -0.000856034 0)
(1.16757 -0.000868426 0)
(1.16657 -0.000872206 0)
(1.16545 -0.000869197 0)
(1.1642 -0.000855208 0)
(1.16281 -0.000830726 0)
(1.16129 -0.000799353 0)
(1.15962 -0.000757129 0)
(1.15779 -0.0007022 0)
(1.15581 -0.000634901 0)
(1.15366 -0.000555234 0)
(1.15135 -0.000463062 0)
(1.14886 -0.000358289 0)
(1.1462 -0.000240727 0)
(1.14335 -0.000110397 0)
(1.14031 3.27522e-05 0)
(1.13708 0.000188822 0)
(1.13366 0.000357816 0)
(1.13003 0.000539515 0)
(1.12621 0.000733735 0)
(1.12219 0.000940522 0)
(1.11797 0.00115922 0)
(1.11356 0.00138747 0)
(1.10894 0.00162319 0)
(1.10412 0.0018649 0)
(1.09908 0.00210988 0)
(1.09383 0.00235407 0)
(1.08834 0.00259249 0)
(1.08262 0.00281998 0)
(1.07666 0.00303248 0)
(1.07047 0.00322848 0)
(1.06408 0.00341063 0)
(1.05753 0.00358653 0)
(1.05087 0.00376827 0)
(1.04416 0.00397029 0)
(1.03743 0.00420609 0)
(1.03067 0.00448451 0)
(1.02384 0.00480708 0)
(1.01688 0.00516765 0)
(1.00973 0.00555469 0)
(1.00233 0.00595534 0)
(0.994651 0.00635942 0)
(0.986691 0.00676153 0)
(0.978458 0.00716094 0)
(0.969966 0.00755951 0)
(0.96123 0.00795908 0)
(0.952256 0.00835958 0)
(0.943047 0.00875847 0)
(0.933606 0.00915165 0)
(0.923942 0.00953506 0)
(0.914067 0.00990601 0)
(0.903998 0.0102636 0)
(0.893752 0.0106083 0)
(0.883343 0.0109411 0)
(0.872784 0.0112626 0)
(0.862084 0.0115731 0)
(0.851252 0.0118723 0)
(0.840295 0.0121601 0)
(0.82922 0.0124363 0)
(0.818035 0.0127011 0)
(0.806745 0.0129545 0)
(0.795358 0.0131969 0)
(0.783883 0.0134278 0)
(0.772328 0.0136463 0)
(0.760705 0.0138509 0)
(0.749024 0.0140399 0)
(0.737296 0.0142122 0)
(0.725533 0.0143672 0)
(0.713743 0.0145045 0)
(0.701936 0.0146245 0)
(0.690119 0.0147274 0)
(0.678299 0.0148136 0)
(0.666484 0.0148838 0)
(0.654681 0.0149388 0)
(0.642898 0.0149792 0)
(0.631143 0.015003 0)
(0.619414 0.0150022 0)
(0.607694 0.0149648 0)
(0.595943 0.0148867 0)
(0.584122 0.0147816 0)
(0.572212 0.0146747 0)
(0.560224 0.014585 0)
(0.548187 0.0145138 0)
(0.536127 0.0144522 0)
(0.524065 0.0143917 0)
(0.512017 0.014328 0)
(0.499999 0.0142596 0)
(0.488024 0.0141858 0)
(0.476102 0.0141062 0)
(0.464244 0.0140204 0)
(0.45246 0.013928 0)
(0.440759 0.013829 0)
(0.42915 0.0137234 0)
(0.417642 0.0136109 0)
(0.40624 0.0134917 0)
(0.394955 0.0133659 0)
(0.383791 0.0132331 0)
(0.372756 0.0130936 0)
(0.361857 0.0129484 0)
(0.3511 0.0127974 0)
(0.34049 0.0126408 0)
(0.330032 0.0124792 0)
(0.319732 0.0123141 0)
(0.309592 0.0121472 0)
(0.299615 0.0119807 0)
(0.289801 0.011818 0)
(0.280156 0.0116613 0)
(0.270688 0.0115118 0)
(0.261411 0.0113647 0)
(0.252349 0.0112116 0)
(0.243528 0.0110408 0)
(0.234973 0.0108424 0)
(0.226691 0.010613 0)
(0.21868 0.010358 0)
(0.21093 0.0100877 0)
(0.203414 0.00981514 0)
(0.196119 0.00954507 0)
(0.189035 0.00928081 0)
(0.182155 0.00902012 0)
(0.175475 0.00875957 0)
(0.168994 0.00849932 0)
(0.162707 0.00823679 0)
(0.15661 0.00797677 0)
(0.150692 0.0077174 0)
(0.144952 0.0074636 0)
(0.139386 0.00721248 0)
(0.133979 0.00696495 0)
(0.128727 0.00672505 0)
(0.123625 0.0064915 0)
(0.118666 0.00625949 0)
(0.113846 0.00603906 0)
(0.10916 0.00582064 0)
(0.104602 0.00561057 0)
(0.100169 0.00540783 0)
(0.0958602 0.00520826 0)
(0.0916676 0.00501029 0)
(0.0875861 0.00481937 0)
(0.0836134 0.00463819 0)
(0.0797489 0.00445832 0)
(0.0759853 0.00428282 0)
(0.0723217 0.00411151 0)
(0.0687552 0.00394105 0)
(0.0652797 0.00377414 0)
(0.061895 0.0036108 0)
(0.0586003 0.00344959 0)
(0.055393 0.00328923 0)
(0.0522724 0.00313148 0)
(0.0492376 0.00297405 0)
(0.0462906 0.00281704 0)
(0.0434296 0.00265925 0)
(0.0406567 0.00250963 0)
(0.0379743 0.00235353 0)
(0.0353809 0.00220239 0)
(0.0328801 0.0020519 0)
(0.0304697 0.00190461 0)
(0.0281503 0.00176268 0)
(0.0259224 0.00162714 0)
(0.0237827 0.0014985 0)
(0.021729 0.00137782 0)
(0.0197555 0.00126639 0)
(0.0178554 0.00116536 0)
(0.016023 0.00107396 0)
(0.0142517 0.00099339 0)
(0.0125391 0.000924498 0)
(0.0108855 0.000869335 0)
(0.00928361 0.000834064 0)
(0.00770514 0.000827793 0)
(0.0060783 0.000859424 0)
(0.00429154 0.000917454 0)
(0.00228126 0.000913122 0)
(0.000191757 0.000631199 0)
(-0.00139242 -0.00024686 0)
(-0.00167142 -0.0018203 0)
(0.000689055 -0.00332743 0)
(0.00338322 -0.00220903 0)
(0.00476782 0.00356461 0)
(0.00458158 -0.027135 0)
(0.0185036 -0.0333758 0)
(0.0326263 -0.0319581 0)
(0.0455552 -0.0307515 0)
(0.0578384 -0.0302199 0)
(0.0699903 -0.029977 0)
(0.0821829 -0.0298306 0)
(0.0944402 -0.0297175 0)
(0.106769 -0.0296168 0)
(0.119178 -0.0295232 0)
(0.131679 -0.029437 0)
(0.144284 -0.0293597 0)
(0.157002 -0.0292911 0)
(0.169836 -0.0292285 0)
(0.182781 -0.0291686 0)
(0.195831 -0.0291074 0)
(0.208973 -0.0290409 0)
(0.222189 -0.028965 0)
(0.23546 -0.0288758 0)
(0.248763 -0.02877 0)
(0.262076 -0.0286445 0)
(0.275377 -0.0284973 0)
(0.288644 -0.0283274 0)
(0.301858 -0.0281348 0)
(0.315 -0.02792 0)
(0.328056 -0.0276838 0)
(0.341012 -0.0274268 0)
(0.353859 -0.0271503 0)
(0.36659 -0.0268563 0)
(0.379204 -0.0265485 0)
(0.391703 -0.0262329 0)
(0.404091 -0.0259172 0)
(0.41637 -0.0256108 0)
(0.42854 -0.0253222 0)
(0.44059 -0.0250563 0)
(0.452496 -0.0248115 0)
(0.464225 -0.0245769 0)
(0.475734 -0.0243338 0)
(0.486978 -0.0240582 0)
(0.497914 -0.0237248 0)
(0.508511 -0.0233127 0)
(0.518762 -0.0228098 0)
(0.528692 -0.022216 0)
(0.538367 -0.0215468 0)
(0.547894 -0.0208362 0)
(0.557407 -0.0201386 0)
(0.567048 -0.0195267 0)
(0.576948 -0.0190823 0)
(0.5872 -0.0188738 0)
(0.597838 -0.0189309 0)
(0.608824 -0.0192277 0)
(0.620063 -0.0196814 0)
(0.631417 -0.0201735 0)
(0.642735 -0.0205851 0)
(0.65387 -0.0208285 0)
(0.664698 -0.020862 0)
(0.675127 -0.0206885 0)
(0.685096 -0.0203421 0)
(0.694573 -0.0198711 0)
(0.703545 -0.0193225 0)
(0.712014 -0.0187315 0)
(0.719987 -0.0181169 0)
(0.727472 -0.0174823 0)
(0.734474 -0.0168207 0)
(0.740994 -0.0161219 0)
(0.747039 -0.0153789 0)
(0.752617 -0.0145914 0)
(0.757746 -0.0137662 0)
(0.762459 -0.0129159 0)
(0.766801 -0.0120559 0)
(0.770825 -0.0112028 0)
(0.77459 -0.0103743 0)
(0.778144 -0.00959021 0)
(0.781523 -0.00887297 0)
(0.784737 -0.00824481 0)
(0.787774 -0.0077232 0)
(0.790603 -0.00731513 0)
(0.793178 -0.00701284 0)
(0.795454 -0.00679291 0)
(0.797393 -0.00661933 0)
(0.798975 -0.00644907 0)
(0.800202 -0.00623869 0)
(0.801097 -0.00595359 0)
(0.801691 -0.00557188 0)
(0.802018 -0.00508981 0)
(0.802097 -0.00455951 0)
(0.801947 -0.00411006 0)
(0.801629 -0.00381533 0)
(0.80123 -0.00346898 0)
(0.800807 -0.00274191 0)
(0.80035 -0.00174992 0)
(0.799767 -0.000752121 0)
(0.798953 0.000175157 0)
(0.797938 0.000978345 0)
(0.796789 0.00167559 0)
(0.795507 0.00229185 0)
(0.794083 0.00283881 0)
(0.792517 0.00332319 0)
(0.790806 0.00375159 0)
(0.788956 0.00413061 0)
(0.786973 0.0044658 0)
(0.784867 0.00476123 0)
(0.782649 0.00501995 0)
(0.780331 0.00524495 0)
(0.777921 0.00543969 0)
(0.775425 0.00560802 0)
(0.772846 0.0057538 0)
(0.770185 0.00588032 0)
(0.76744 0.00598947 0)
(0.764616 0.00608133 0)
(0.76172 0.00615438 0)
(0.758767 0.00620666 0)
(0.75578 0.00623743 0)
(0.752788 0.00624852 0)
(0.749822 0.00624504 0)
(0.746911 0.00623531 0)
(0.744075 0.00622723 0)
(0.741317 0.00621871 0)
(0.738609 0.00618881 0)
(0.735902 0.00609767 0)
(0.733126 0.00589542 0)
(0.730213 0.00554454 0)
(0.727096 0.00505258 0)
(0.723702 0.00444735 0)
(0.720039 0.0037854 0)
(0.716232 0.0032379 0)
(0.712467 0.00309508 0)
(0.708937 0.00367151 0)
(0.705805 0.00511513 0)
(0.703213 0.00724175 0)
(0.701185 0.00963848 0)
(0.699548 0.0118029 0)
(0.698104 0.0132733 0)
(0.696787 0.0138278 0)
(0.695629 0.013524 0)
(0.694681 0.0125985 0)
(0.693962 0.0113356 0)
(0.69345 0.00996863 0)
(0.693104 0.00863963 0)
(0.692882 0.00740748 0)
(0.692763 0.00627827 0)
(0.692747 0.00523473 0)
(0.692846 0.00425525 0)
(0.693079 0.00332284 0)
(0.693465 0.00242741 0)
(0.694013 0.00156685 0)
(0.694724 0.000748589 0)
(0.695603 -1.43163e-05 0)
(0.696675 -0.000752303 0)
(0.697953 -0.00146239 0)
(0.699436 -0.00214986 0)
(0.70113 -0.00281674 0)
(0.703043 -0.00346344 0)
(0.705176 -0.00409094 0)
(0.707533 -0.00470024 0)
(0.710114 -0.0052921 0)
(0.712919 -0.00586698 0)
(0.715946 -0.00642519 0)
(0.719195 -0.0069669 0)
(0.722661 -0.0074922 0)
(0.726339 -0.00800103 0)
(0.730224 -0.00849315 0)
(0.73431 -0.00896794 0)
(0.738586 -0.00942427 0)
(0.743044 -0.00986044 0)
(0.747671 -0.0102742 0)
(0.752457 -0.010663 0)
(0.757386 -0.0110245 0)
(0.762448 -0.0113573 0)
(0.767631 -0.0116613 0)
(0.772926 -0.0119386 0)
(0.778329 -0.0121937 0)
(0.78384 -0.0124335 0)
(0.789464 -0.0126664 0)
(0.79521 -0.0129015 0)
(0.801089 -0.0131469 0)
(0.807112 -0.0134083 0)
(0.813285 -0.0136873 0)
(0.81961 -0.0139806 0)
(0.826081 -0.0142803 0)
(0.832679 -0.0145739 0)
(0.839377 -0.0148469 0)
(0.84614 -0.0150839 0)
(0.852925 -0.0152712 0)
(0.859685 -0.0153985 0)
(0.866374 -0.01546 0)
(0.872946 -0.0154547 0)
(0.879362 -0.015386 0)
(0.885589 -0.0152613 0)
(0.8916 -0.0150902 0)
(0.897378 -0.0148838 0)
(0.902914 -0.0146533 0)
(0.908205 -0.0144096 0)
(0.913254 -0.0141624 0)
(0.918068 -0.0139205 0)
(0.922658 -0.0136923 0)
(0.927036 -0.0134859 0)
(0.93121 -0.0133104 0)
(0.93519 -0.0131775 0)
(0.938978 -0.0131034 0)
(0.942566 -0.0131133 0)
(0.945925 -0.0132464 0)
(0.948991 -0.0135632 0)
(0.951635 -0.0141545 0)
(0.953641 -0.0151523 0)