/*--------------------------------*- C++ -*----------------------------------*\
| =========                 |                                                 |
| \\      /  F ield         | OpenFOAM: The Open Source CFD Toolbox           |
|  \\    /   O peration     | Version:  v2006                                 |
|   \\  /    A nd           | Website:  www.openfoam.com                      |
|    \\/     M anipulation  |                                                 |
\*---------------------------------------------------------------------------*/
FoamFile
{
    version     2.0;
    format      ascii;
    class       volScalarField;
    location    "19.3";
    object      p;
}
// * * * * * * * * * * * * * * * * * * * * * * * * * * * * * * * * * * * * * //

dimensions      [1 -1 -2 0 0 0 0];


internalField   nonuniform List<scalar> 
50000
(
21910
21909.9
21909.6
21909.1
21908.4
21907.6
21906.6
21905.5
21904.2
21902.7
21901.1
21899.3
21897.4
21895.3
21893
21890.7
21888.2
21885.6
21882.8
21880
21877.1
21874.1
21871
21867.8
21864.6
21861.3
21858
21854.6
21851.2
21847.8
21844.4
21841
21837.6
21834.3
21830.9
21827.6
21824.4
21821.2
21818
21815
21812
21809.1
21806.4
21803.7
21801.1
21798.7
21796.4
21794.3
21792.3
21790.5
21788.8
21787.3
21786
21784.9
21783.9
21783.2
21782.6
21782.3
21782.2
21782.3
21782.7
21783.2
21784
21785.1
21786.3
21787.8
21789.6
21791.6
21793.8
21796.3
21799.1
21802
21805.3
21808.7
21812.5
21816.4
21820.6
21825.1
21829.7
21834.6
21839.8
21845.1
21850.7
21856.5
21862.5
21868.7
21875
21881.6
21888.4
21895.3
21902.4
21909.7
21917.1
21924.7
21932.4
21940.2
21948.1
21956.2
21964.3
21972.5
21980.8
21989.2
21997.6
22006.1
22014.6
22023.1
22031.7
22040.2
22048.7
22057.2
22065.7
22074.1
22082.5
22090.9
22099.1
22107.3
22115.4
22123.4
22131.2
22139
22146.6
22154
22161.3
22168.4
22175.3
22182.1
22188.6
22195
22201.1
22207
22212.7
22218.1
22223.3
22228.3
22233
22237.4
22241.6
22245.5
22249.1
22252.5
22255.5
22258.3
22260.7
22262.9
22264.7
22266.3
22267.5
22268.5
22269.1
22269.4
21459.1
21458.9
21458.6
21458.1
21457.4
21456.6
21455.6
21454.5
21453.2
21451.7
21450.1
21448.3
21446.4
21444.3
21442
21439.7
21437.2
21434.5
21431.8
21428.9
21426
21423
21419.8
21416.7
21413.4
21410.1
21406.8
21403.4
21400
21396.6
21393.2
21389.7
21386.3
21382.9
21379.6
21376.3
21373
21369.8
21366.6
21363.5
21360.6
21357.7
21354.9
21352.2
21349.6
21347.2
21344.9
21342.8
21340.7
21338.9
21337.2
21335.7
21334.4
21333.2
21332.3
21331.5
21331
21330.7
21330.5
21330.6
21331
21331.5
21332.3
21333.3
21334.6
21336.1
21337.9
21339.9
21342.1
21344.6
21347.3
21350.3
21353.5
21357
21360.7
21364.7
21368.9
21373.3
21378
21382.9
21388.1
21393.4
21399
21404.8
21410.8
21417
21423.4
21430
21436.8
21443.7
21450.9
21458.1
21465.6
21473.1
21480.9
21488.7
21496.6
21504.7
21512.9
21521.1
21529.4
21537.8
21546.3
21554.8
21563.3
21571.8
21580.4
21589
21597.5
21606
21614.5
21623
21631.4
21639.8
21648
21656.2
21664.4
21672.3
21680.2
21688
21695.6
21703
21710.3
21717.5
21724.4
21731.2
21737.7
21744.1
21750.2
21756.2
21761.9
21767.3
21772.6
21777.5
21782.2
21786.7
21790.9
21794.8
21798.4
21801.7
21804.8
21807.6
21810
21812.2
21814
21815.6
21816.9
21817.8
21818.4
21818.7
21008.4
21008.2
21007.9
21007.4
21006.8
21005.9
21005
21003.8
21002.5
21001
20999.4
20997.6
20995.7
20993.5
20991.3
20988.9
20986.4
20983.7
20980.9
20978
20975.1
20972
20968.8
20965.6
20962.4
20959
20955.6
20952.2
20948.8
20945.4
20941.9
20938.4
20935
20931.6
20928.2
20924.8
20921.5
20918.3
20915.1
20912
20909
20906
20903.2
20900.5
20897.9
20895.4
20893.1
20890.9
20888.9
20887
20885.3
20883.8
20882.4
20881.2
20880.3
20879.5
20878.9
20878.6
20878.4
20878.5
20878.8
20879.4
20880.2
20881.2
20882.4
20883.9
20885.7
20887.7
20889.9
20892.4
20895.1
20898.1
20901.3
20904.8
20908.5
20912.5
20916.7
20921.2
20925.9
20930.8
20936
20941.3
20946.9
20952.8
20958.8
20965
20971.4
20978.1
20984.9
20991.8
20999
21006.3
21013.8
21021.4
21029.1
21037
21045
21053.1
21061.3
21069.6
21077.9
21086.4
21094.8
21103.4
21111.9
21120.5
21129.1
21137.7
21146.3
21154.9
21163.4
21172
21180.4
21188.8
21197.1
21205.4
21213.5
21221.5
21229.5
21237.2
21244.9
21252.4
21259.7
21266.9
21273.9
21280.7
21287.2
21293.6
21299.8
21305.8
21311.5
21317
21322.2
21327.2
21332
21336.4
21340.6
21344.6
21348.2
21351.6
21354.6
21357.4
21359.9
21362.1
21363.9
21365.5
21366.8
21367.7
21368.3
21368.7
20558
20557.8
20557.5
20557
20556.4
20555.6
20554.6
20553.4
20552.1
20550.7
20549
20547.2
20545.2
20543.1
20540.8
20538.4
20535.8
20533.1
20530.3
20527.3
20524.3
20521.2
20518
20514.7
20511.4
20508
20504.6
20501.1
20497.6
20494.1
20490.6
20487.1
20483.6
20480.1
20476.7
20473.3
20469.9
20466.6
20463.4
20460.2
20457.2
20454.2
20451.3
20448.6
20445.9
20443.4
20441
20438.8
20436.7
20434.8
20433
20431.5
20430.1
20428.9
20427.9
20427
20426.5
20426.1
20425.9
20426
20426.3
20426.8
20427.5
20428.5
20429.8
20431.3
20433
20435
20437.2
20439.7
20442.4
20445.4
20448.7
20452.2
20455.9
20459.9
20464.1
20468.6
20473.3
20478.2
20483.4
20488.8
20494.5
20500.3
20506.4
20512.6
20519.1
20525.8
20532.6
20539.6
20546.8
20554.2
20561.7
20569.3
20577.1
20585.1
20593.1
20601.3
20609.5
20617.9
20626.3
20634.8
20643.3
20651.9
20660.5
20669.2
20677.9
20686.5
20695.2
20703.8
20712.4
20721
20729.5
20738
20746.4
20754.7
20762.9
20771
20778.9
20786.8
20794.5
20802
20809.4
20816.6
20823.7
20830.5
20837.2
20843.6
20849.8
20855.8
20861.6
20867.1
20872.4
20877.4
20882.2
20886.7
20890.9
20894.9
20898.6
20901.9
20905
20907.8
20910.3
20912.5
20914.4
20916
20917.3
20918.2
20918.8
20919.2
20107.8
20107.7
20107.4
20106.9
20106.3
20105.5
20104.5
20103.4
20102.1
20100.6
20098.9
20097.1
20095.1
20092.9
20090.6
20088.1
20085.4
20082.7
20079.8
20076.8
20073.7
20070.5
20067.3
20063.9
20060.5
20057.1
20053.6
20050.1
20046.5
20042.9
20039.4
20035.8
20032.2
20028.7
20025.2
20021.7
20018.2
20014.9
20011.6
20008.3
20005.2
20002.2
19999.2
19996.4
19993.7
19991.1
19988.7
19986.4
19984.2
19982.2
19980.4
19978.8
19977.4
19976.1
19975.1
19974.2
19973.6
19973.2
19973
19973
19973.2
19973.7
19974.5
19975.4
19976.7
19978.1
19979.9
19981.8
19984.1
19986.5
19989.3
19992.3
19995.5
19999
20002.8
20006.8
20011
20015.5
20020.3
20025.2
20030.4
20035.9
20041.6
20047.4
20053.6
20059.9
20066.4
20073.1
20080
20087.1
20094.3
20101.7
20109.3
20117
20124.9
20132.9
20141
20149.2
20157.6
20166
20174.5
20183.1
20191.7
20200.4
20209.1
20217.8
20226.6
20235.3
20244.1
20252.8
20261.6
20270.2
20278.8
20287.3
20295.8
20304.2
20312.4
20320.6
20328.7
20336.6
20344.4
20352
20359.4
20366.7
20373.8
20380.8
20387.5
20394
20400.3
20406.3
20412.1
20417.7
20423.1
20428.1
20433
20437.5
20441.8
20445.8
20449.5
20452.9
20456
20458.8
20461.4
20463.6
20465.5
20467.1
20468.3
20469.3
20469.9
20470.3
19658
19657.8
19657.5
19657.1
19656.4
19655.6
19654.7
19653.6
19652.3
19650.8
19649.2
19647.3
19645.2
19643
19640.6
19638.1
19635.3
19632.5
19629.5
19626.4
19623.3
19620
19616.7
19613.2
19609.8
19606.2
19602.6
19599
19595.4
19591.7
19588.1
19584.4
19580.8
19577.1
19573.5
19570
19566.4
19563
19559.6
19556.3
19553.1
19549.9
19546.9
19544
19541.2
19538.5
19536
19533.6
19531.4
19529.4
19527.5
19525.8
19524.3
19523
19521.9
19521
19520.3
19519.8
19519.6
19519.6
19519.8
19520.2
19520.9
19521.9
19523.1
19524.5
19526.2
19528.2
19530.4
19532.9
19535.6
19538.6
19541.9
19545.4
19549.2
19553.2
19557.5
19562
19566.8
19571.8
19577
19582.5
19588.2
19594.2
19600.3
19606.7
19613.3
19620.1
19627
19634.2
19641.5
19649
19656.7
19664.5
19672.4
19680.5
19688.7
19697
19705.5
19714
19722.6
19731.3
19740
19748.8
19757.6
19766.4
19775.3
19784.1
19793
19801.8
19810.6
19819.4
19828.1
19836.8
19845.3
19853.8
19862.2
19870.5
19878.6
19886.6
19894.5
19902.2
19909.8
19917.2
19924.4
19931.4
19938.2
19944.8
19951.1
19957.3
19963.2
19968.8
19974.2
19979.4
19984.2
19988.8
19993.2
19997.2
20000.9
20004.4
20007.6
20010.4
20013
20015.2
20017.1
20018.7
20020
20021
20021.6
20022
19208.4
19208.2
19207.9
19207.5
19206.9
19206.1
19205.2
19204.1
19202.9
19201.4
19199.7
19197.8
19195.7
19193.4
19191
19188.3
19185.5
19182.5
19179.5
19176.3
19173
19169.6
19166.2
19162.7
19159.1
19155.4
19151.8
19148.1
19144.3
19140.6
19136.8
19133
19129.3
19125.5
19121.8
19118.2
19114.5
19111
19107.5
19104.1
19100.7
19097.5
19094.4
19091.3
19088.5
19085.7
19083.1
19080.6
19078.3
19076.2
19074.2
19072.4
19070.9
19069.5
19068.3
19067.3
19066.6
19066
19065.7
19065.7
19065.9
19066.3
19066.9
19067.9
19069
19070.4
19072.1
19074.1
19076.3
19078.8
19081.5
19084.5
19087.8
19091.3
19095.1
19099.1
19103.4
19108
19112.8
19117.9
19123.2
19128.7
19134.5
19140.5
19146.7
19153.2
19159.8
19166.7
19173.7
19181
19188.4
19196
19203.7
19211.7
19219.7
19227.9
19236.2
19244.6
19253.2
19261.8
19270.5
19279.3
19288.2
19297.1
19306
19315
19324
19333
19342
19350.9
19359.9
19368.8
19377.6
19386.4
19395.1
19403.7
19412.2
19420.6
19428.9
19437
19445
19452.8
19460.5
19468
19475.3
19482.4
19489.3
19496
19502.4
19508.7
19514.6
19520.4
19525.9
19531.1
19536
19540.7
19545.1
19549.2
19553
19556.5
19559.7
19562.6
19565.2
19567.4
19569.4
19571
19572.3
19573.3
19574
19574.3
18759.1
18758.9
18758.6
18758.2
18757.6
18756.9
18756
18755
18753.8
18752.3
18750.6
18748.7
18746.6
18744.2
18741.6
18738.8
18735.9
18732.8
18729.6
18726.3
18722.9
18719.4
18715.8
18712.2
18708.5
18704.8
18701
18697.1
18693.3
18689.4
18685.5
18681.6
18677.7
18673.9
18670
18666.2
18662.5
18658.8
18655.2
18651.7
18648.2
18644.8
18641.6
18638.5
18635.5
18632.6
18629.9
18627.3
18624.9
18622.7
18620.6
18618.7
18617
18615.6
18614.3
18613.3
18612.4
18611.8
18611.5
18611.3
18611.5
18611.8
18612.5
18613.3
18614.5
18615.9
18617.5
18619.5
18621.7
18624.1
18626.9
18629.9
18633.2
18636.7
18640.5
18644.6
18648.9
18653.5
18658.4
18663.5
18668.9
18674.5
18680.3
18686.4
18692.7
18699.2
18706
18712.9
18720.1
18727.4
18734.9
18742.6
18750.5
18758.5
18766.7
18775
18783.5
18792
18800.7
18809.5
18818.3
18827.3
18836.3
18845.3
18854.4
18863.5
18872.7
18881.8
18890.9
18900.1
18909.2
18918.2
18927.2
18936.1
18945
18953.7
18962.4
18970.9
18979.3
18987.6
18995.7
19003.7
19011.5
19019.1
19026.6
19033.8
19040.8
19047.6
19054.2
19060.5
19066.6
19072.4
19078
19083.3
19088.3
19093.1
19097.6
19101.7
19105.6
19109.2
19112.4
19115.4
19118
19120.3
19122.3
19123.9
19125.3
19126.2
19126.9
19127.3
18310
18309.8
18309.6
18309.1
18308.5
18307.9
18307.1
18306.2
18305.1
18303.7
18302
18300
18297.7
18295.2
18292.5
18289.6
18286.5
18283.3
18280
18276.5
18273
18269.3
18265.6
18261.9
18258
18254.2
18250.2
18246.3
18242.3
18238.2
18234.2
18230.2
18226.2
18222.2
18218.2
18214.3
18210.4
18206.5
18202.8
18199.1
18195.5
18192
18188.6
18185.3
18182.2
18179.2
18176.4
18173.7
18171.1
18168.8
18166.6
18164.6
18162.8
18161.3
18159.9
18158.8
18157.9
18157.2
18156.7
18156.5
18156.6
18156.9
18157.5
18158.3
18159.4
18160.8
18162.4
18164.3
18166.5
18169
18171.7
18174.7
18178
18181.6
18185.4
18189.5
18193.9
18198.6
18203.5
18208.7
18214.1
18219.8
18225.7
18231.8
18238.2
18244.9
18251.7
18258.8
18266
18273.5
18281.2
18289
18297
18305.2
18313.5
18321.9
18330.5
18339.2
18348.1
18357
18366
18375.1
18384.3
18393.5
18402.7
18412
18421.3
18430.7
18440
18449.3
18458.5
18467.8
18476.9
18486
18495
18504
18512.8
18521.5
18530.1
18538.5
18546.8
18554.9
18562.9
18570.6
18578.2
18585.6
18592.7
18599.7
18606.4
18612.8
18619
18625
18630.7
18636.1
18641.2
18646
18650.6
18654.8
18658.8
18662.4
18665.7
18668.7
18671.4
18673.7
18675.8
18677.5
18678.8
18679.8
18680.5
18680.8
17861.2
17861
17860.7
17860.3
17859.7
17859.1
17858.5
17857.7
17856.7
17855.4
17853.8
17851.7
17849.3
17846.6
17843.7
17840.6
17837.4
17834
17830.5
17826.9
17823.2
17819.4
17815.5
17811.6
17807.7
17803.6
17799.5
17795.4
17791.3
17787.1
17782.9
17778.7
17774.6
17770.4
17766.3
17762.2
17758.1
17754.1
17750.2
17746.4
17742.6
17738.9
17735.4
17732
17728.7
17725.5
17722.6
17719.7
17717
17714.6
17712.3
17710.2
17708.3
17706.6
17705.1
17703.9
17702.8
17702.1
17701.5
17701.3
17701.3
17701.5
17702
17702.8
17703.8
17705.2
17706.8
17708.7
17710.8
17713.3
17716
17719.1
17722.4
17725.9
17729.8
17734
17738.4
17743.1
17748.1
17753.3
17758.8
17764.6
17770.6
17776.9
17783.4
17790.1
17797.1
17804.2
17811.6
17819.2
17827
17835
17843.2
17851.5
17860
17868.6
17877.3
17886.2
17895.2
17904.3
17913.5
17922.8
17932.2
17941.6
17951
17960.5
17970
17979.5
17989
17998.5
18008
18017.4
18026.8
18036.1
18045.3
18054.4
18063.4
18072.3
18081.1
18089.7
18098.2
18106.5
18114.6
18122.5
18130.3
18137.8
18145.1
18152.2
18159
18165.6
18172
18178
18183.8
18189.4
18194.6
18199.5
18204.2
18208.5
18212.5
18216.3
18219.6
18222.7
18225.4
18227.8
18229.9
18231.6
18233
18234
18234.7
18235.1
17412.6
17412.5
17412.1
17411.6
17411.1
17410.6
17410.1
17409.6
17408.8
17407.6
17406
17403.8
17401.3
17398.4
17395.2
17391.9
17388.4
17384.8
17381.1
17377.4
17373.5
17369.6
17365.6
17361.5
17357.4
17353.2
17348.9
17344.7
17340.3
17336
17331.6
17327.3
17322.9
17318.6
17314.3
17310
17305.7
17301.6
17297.5
17293.4
17289.5
17285.7
17282
17278.4
17274.9
17271.6
17268.4
17265.4
17262.6
17260
17257.5
17255.3
17253.3
17251.4
17249.8
17248.5
17247.4
17246.5
17245.9
17245.5
17245.4
17245.6
17246
17246.7
17247.7
17249
17250.6
17252.5
17254.6
17257.1
17259.8
17262.8
17266.2
17269.8
17273.7
17277.9
17282.4
17287.1
17292.2
17297.5
17303.1
17308.9
17315
17321.4
17328
17334.9
17342
17349.3
17356.8
17364.6
17372.5
17380.7
17389
17397.5
17406.1
17415
17423.9
17433
17442.2
17451.5
17460.9
17470.4
17479.9
17489.6
17499.2
17508.9
17518.7
17528.4
17538.1
17547.9
17557.5
17567.2
17576.8
17586.3
17595.7
17605.1
17614.3
17623.4
17632.4
17641.2
17649.9
17658.4
17666.7
17674.8
17682.7
17690.4
17697.9
17705.2
17712.2
17718.9
17725.4
17731.6
17737.5
17743.2
17748.5
17753.6
17758.4
17762.8
17766.9
17770.7
17774.2
17777.3
17780.1
17782.6
17784.7
17786.4
17787.8
17788.9
17789.6
17790
16964.3
16964.2
16963.7
16963.1
16962.5
16961.9
16961.5
16961.1
16960.6
16959.7
16958.3
16956.1
16953.4
16950.2
16946.8
16943.2
16939.5
16935.7
16931.9
16928
16924
16919.9
16915.7
16911.5
16907.2
16902.8
16898.4
16894
16889.4
16884.9
16880.4
16875.8
16871.3
16866.7
16862.2
16857.7
16853.3
16848.9
16844.6
16840.4
16836.2
16832.2
16828.3
16824.5
16820.9
16817.4
16814
16810.8
16807.8
16805
16802.4
16800
16797.8
16795.9
16794.2
16792.7
16791.4
16790.4
16789.7
16789.2
16789.1
16789.1
16789.5
16790.2
16791.1
16792.3
16793.9
16795.7
16797.9
16800.3
16803
16806.1
16809.4
16813.1
16817
16821.2
16825.8
16830.6
16835.7
16841.1
16846.8
16852.8
16859
16865.5
16872.2
16879.2
16886.5
16894
16901.6
16909.6
16917.7
16926
16934.5
16943.2
16952.1
16961.1
16970.2
16979.5
16988.9
16998.5
17008.1
17017.8
17027.6
17037.5
17047.4
17057.3
17067.3
17077.3
17087.3
17097.2
17107.2
17117.1
17126.9
17136.7
17146.3
17155.9
17165.4
17174.7
17183.9
17193
17201.9
17210.6
17219.1
17227.5
17235.6
17243.5
17251.2
17258.6
17265.8
17272.7
17279.3
17285.7
17291.8
17297.6
17303.1
17308.3
17313.1
17317.7
17321.9
17325.8
17329.3
17332.6
17335.4
17337.9
17340.1
17341.9
17343.4
17344.4
17345.2
17345.5
16516.3
16516
16515.4
16514.2
16512.8
16511.4
16510.6
16510.3
16510.3
16510.2
16509.5
16507.9
16505.3
16501.9
16498.2
16494.4
16490.6
16486.7
16482.7
16478.6
16474.5
16470.3
16466
16461.6
16457.1
16452.6
16448
16443.3
16438.6
16433.9
16429.1
16424.3
16419.6
16414.8
16410.1
16405.3
16400.7
16396.1
16391.5
16387.1
16382.7
16378.5
16374.4
16370.4
16366.5
16362.8
16359.3
16355.9
16352.7
16349.7
16346.9
16344.4
16342
16339.9
16338
16336.4
16335
16333.9
16333
16332.5
16332.2
16332.2
16332.4
16333
16333.9
16335.1
16336.6
16338.4
16340.5
16342.9
16345.7
16348.7
16352.1
16355.8
16359.7
16364
16368.6
16373.5
16378.7
16384.2
16390
16396.1
16402.5
16409.1
16416
16423.1
16430.5
16438.2
16446
16454.1
16462.5
16471
16479.7
16488.6
16497.7
16506.9
16516.3
16525.8
16535.5
16545.2
16555.1
16565.1
16575.1
16585.3
16595.4
16605.7
16615.9
16626.2
16636.4
16646.7
16656.9
16667
16677.2
16687.2
16697.1
16707
16716.7
16726.3
16735.8
16745.1
16754.2
16763.2
16772
16780.5
16788.9
16797
16804.9
16812.5
16819.9
16827
16833.8
16840.3
16846.6
16852.5
16858.2
16863.5
16868.5
16873.2
16877.5
16881.5
16885.2
16888.5
16891.4
16894
16896.2
16898.1
16899.6
16900.7
16901.4
16901.8
16068.4
16067.9
16066.6
16064.1
16061.1
16058.3
16056.8
16056.7
16057.7
16058.8
16059.3
16058.5
16056.4
16053.1
16049.2
16045.2
16041.3
16037.5
16033.5
16029.4
16025.1
16020.8
16016.3
16011.8
16007.1
16002.4
15997.6
15992.7
15987.8
15982.9
15977.9
15972.9
15967.8
15962.8
15957.8
15952.9
15948
15943.1
15938.3
15933.7
15929.1
15924.6
15920.2
15916
15911.9
15907.9
15904.2
15900.6
15897.2
15894
15891
15888.3
15885.7
15883.4
15881.4
15879.6
15878.1
15876.8
15875.8
15875.1
15874.7
15874.6
15874.8
15875.3
15876.1
15877.3
15878.7
15880.5
15882.6
15885
15887.7
15890.8
15894.2
15897.9
15901.9
15906.2
15910.9
15915.9
15921.2
15926.8
15932.7
15938.9
15945.4
15952.2
15959.2
15966.5
15974.1
15981.9
15990
15998.3
16006.8
16015.6
16024.5
16033.7
16043
16052.4
16062.1
16071.9
16081.8
16091.8
16102
16112.2
16122.6
16133
16143.4
16153.9
16164.5
16175
16185.6
16196.2
16206.7
16217.1
16227.6
16237.9
16248.1
16258.3
16268.3
16278.2
16287.9
16297.5
16306.9
16316.2
16325.2
16334
16342.6
16350.9
16359
16366.9
16374.5
16381.8
16388.8
16395.5
16402
16408.1
16413.9
16419.4
16424.5
16429.3
16433.8
16437.9
16441.7
16445
16448.1
16450.7
16453
16454.9
16456.5
16457.6
16458.4
16458.8
15620.5
15619.8
15617.4
15613.5
15608.6
15604.5
15602.5
15602.6
15604.4
15607
15608.4
15608.3
15606.5
15603.4
15599.5
15595.4
15591.7
15588.1
15584.3
15580.2
15575.9
15571.4
15566.8
15562.1
15557.3
15552.4
15547.4
15542.3
15537.1
15531.9
15526.7
15521.4
15516.1
15510.8
15505.6
15500.3
15495.2
15490
15485
15480
15475.2
15470.4
15465.8
15461.3
15456.9
15452.8
15448.8
15444.9
15441.3
15437.9
15434.7
15431.7
15429
15426.5
15424.3
15422.3
15420.6
15419.2
15418.1
15417.3
15416.7
15416.5
15416.6
15417
15417.8
15418.8
15420.2
15421.9
15424
15426.4
15429.1
15432.2
15435.6
15439.4
15443.4
15447.9
15452.6
15457.7
15463.1
15468.8
15474.8
15481.2
15487.8
15494.7
15501.9
15509.4
15517.2
15525.2
15533.5
15542.1
15550.8
15559.8
15569
15578.4
15587.9
15597.7
15607.6
15617.7
15627.9
15638.2
15648.6
15659.2
15669.8
15680.6
15691.3
15702.2
15713
15723.9
15734.8
15745.7
15756.5
15767.3
15778.1
15788.8
15799.3
15809.8
15820.1
15830.3
15840.4
15850.3
15860
15869.5
15878.8
15887.9
15896.7
15905.3
15913.7
15921.8
15929.6
15937.1
15944.4
15951.3
15957.9
15964.3
15970.2
15975.9
15981.2
15986.1
15990.7
15995
15998.8
16002.3
16005.4
16008.2
16010.5
16012.5
16014.1
16015.3
16016.1
16016.5
15173.7
15172.6
15169.6
15164.6
15158.7
15153.8
15151.4
15151.6
15153.8
15156.4
15158
15157.8
15156
15152.9
15149
15145.1
15141.7
15138.5
15135
15131.1
15126.7
15122.2
15117.5
15112.7
15107.6
15102.5
15097.2
15091.9
15086.5
15081
15075.5
15069.9
15064.4
15058.8
15053.2
15047.7
15042.2
15036.8
15031.5
15026.2
15021
15016
15011.1
15006.3
15001.7
14997.2
14993
14988.9
14985
14981.4
14977.9
14974.7
14971.8
14969.1
14966.7
14964.5
14962.6
14961.1
14959.8
14958.8
14958.2
14957.8
14957.8
14958.1
14958.8
14959.8
14961.1
14962.8
14964.8
14967.2
14969.9
14973
14976.4
14980.2
14984.3
14988.8
14993.7
14998.8
15004.3
15010.2
15016.3
15022.8
15029.6
15036.7
15044.1
15051.8
15059.8
15068.1
15076.6
15085.4
15094.4
15103.6
15113.1
15122.7
15132.6
15142.6
15152.8
15163.2
15173.7
15184.4
15195.1
15206
15217
15228
15239.2
15250.3
15261.6
15272.8
15284
15295.3
15306.5
15317.7
15328.8
15339.8
15350.7
15361.5
15372.2
15382.8
15393.2
15403.4
15413.4
15423.2
15432.8
15442.2
15451.3
15460.2
15468.8
15477.2
15485.3
15493
15500.5
15507.7
15514.5
15521
15527.2
15533
15538.5
15543.6
15548.4
15552.7
15556.7
15560.3
15563.5
15566.4
15568.8
15570.8
15572.5
15573.7
15574.5
15574.9
14729.3
14727.9
14724.7
14719.7
14713.8
14708.9
14706.2
14705.8
14707.1
14708.6
14709.1
14708
14705.4
14701.9
14698.2
14694.7
14691.7
14689.1
14686
14682.2
14677.9
14673.3
14668.5
14663.4
14658.2
14652.8
14647.3
14641.7
14636
14630.2
14624.4
14618.5
14612.6
14606.7
14600.8
14595
14589.2
14583.4
14577.8
14572.2
14566.7
14561.4
14556.1
14551
14546.1
14541.4
14536.8
14532.5
14528.3
14524.4
14520.7
14517.3
14514.1
14511.2
14508.5
14506.2
14504.1
14502.3
14500.9
14499.8
14499
14498.5
14498.4
14498.6
14499.1
14500
14501.3
14502.9
14504.9
14507.3
14510
14513.1
14516.6
14520.4
14524.6
14529.1
14534.1
14539.3
14545
14550.9
14557.3
14563.9
14570.9
14578.2
14585.8
14593.7
14601.9
14610.4
14619.2
14628.2
14637.5
14647
14656.8
14666.7
14676.9
14687.2
14697.8
14708.5
14719.3
14730.3
14741.4
14752.6
14764
14775.4
14786.9
14798.4
14810
14821.6
14833.3
14844.9
14856.5
14868.1
14879.6
14891
14902.3
14913.5
14924.6
14935.5
14946.3
14956.8
14967.2
14977.3
14987.3
14997
15006.4
15015.6
15024.5
15033.1
15041.5
15049.5
15057.3
15064.7
15071.7
15078.5
15084.8
15090.9
15096.5
15101.8
15106.7
15111.2
15115.3
15119.1
15122.4
15125.3
15127.8
15129.9
15131.6
15132.9
15133.7
15134.1
14287.3
14286
14283.3
14279
14274.2
14269.7
14266.6
14265.1
14264.5
14263.8
14262.1
14259.2
14255.4
14251.4
14247.8
14244.7
14242.4
14240.3
14237.5
14233.8
14229.5
14224.8
14219.7
14214.5
14209
14203.3
14197.5
14191.6
14185.6
14179.5
14173.3
14167.1
14160.9
14154.6
14148.4
14142.2
14136
14129.9
14123.9
14118
14112.2
14106.5
14100.9
14095.5
14090.2
14085.2
14080.3
14075.6
14071.2
14067
14063
14059.3
14055.9
14052.7
14049.8
14047.3
14045
14043
14041.4
14040.1
14039.1
14038.5
14038.3
14038.3
14038.8
14039.6
14040.8
14042.4
14044.4
14046.7
14049.4
14052.5
14056
14059.9
14064.1
14068.8
14073.8
14079.2
14084.9
14091
14097.5
14104.3
14111.5
14119
14126.9
14135
14143.5
14152.2
14161.3
14170.6
14180.1
14190
14200
14210.3
14220.8
14231.5
14242.4
14253.4
14264.6
14276
14287.5
14299.1
14310.8
14322.6
14334.5
14346.4
14358.4
14370.5
14382.5
14394.6
14406.7
14418.7
14430.6
14442.4
14454.2
14465.8
14477.3
14488.6
14499.7
14510.6
14521.4
14531.9
14542.2
14552.2
14562
14571.5
14580.7
14589.7
14598.3
14606.6
14614.6
14622.3
14629.6
14636.5
14643.1
14649.4
14655.2
14660.7
14665.8
14670.4
14674.7
14678.6
14682
14685
14687.6
14689.8
14691.5
14692.8
14693.7
14694.2
13846.8
13846
13844
13840.9
13837
13833.1
13829.7
13826.9
13824.1
13820.8
13816.8
13812
13807.1
13802.7
13799.2
13796.6
13794.7
13792.8
13790
13786.1
13781.6
13776.7
13771.4
13765.9
13760.1
13754.1
13748
13741.7
13735.3
13728.9
13722.3
13715.7
13709.1
13702.5
13695.9
13689.3
13682.8
13676.3
13669.9
13663.6
13657.4
13651.3
13645.4
13639.6
13634
13628.6
13623.4
13618.4
13613.6
13609.1
13604.9
13600.9
13597.1
13593.7
13590.6
13587.8
13585.3
13583.1
13581.3
13579.8
13578.6
13577.9
13577.5
13577.4
13577.8
13578.5
13579.6
13581.2
13583.1
13585.4
13588.1
13591.2
13594.7
13598.7
13603
13607.7
13612.8
13618.3
13624.2
13630.5
13637.1
13644.1
13651.5
13659.2
13667.3
13675.7
13684.4
13693.5
13702.8
13712.4
13722.3
13732.5
13742.9
13753.5
13764.4
13775.4
13786.7
13798.1
13809.7
13821.4
13833.3
13845.3
13857.4
13869.6
13881.9
13894.3
13906.7
13919.3
13931.8
13944.3
13956.9
13969.3
13981.7
13994
14006.2
14018.3
14030.2
14041.9
14053.5
14064.8
14076
14086.9
14097.5
14107.9
14118.1
14127.9
14137.5
14146.7
14155.7
14164.3
14172.6
14180.5
14188.1
14195.3
14202.2
14208.6
14214.7
14220.3
14225.6
14230.4
14234.9
14238.9
14242.4
14245.6
14248.3
14250.5
14252.3
14253.7
14254.6
14255
13405.8
13405.7
13404.4
13402.1
13399.3
13395.9
13392.3
13388.3
13383.8
13378.7
13373
13367.1
13361.5
13357
13353.5
13351
13349.2
13346.9
13343.5
13339.3
13334.5
13329.2
13323.6
13317.7
13311.5
13305.2
13298.7
13292
13285.3
13278.4
13271.4
13264.4
13257.4
13250.4
13243.3
13236.3
13229.4
13222.5
13215.7
13208.9
13202.3
13195.9
13189.5
13183.4
13177.4
13171.6
13166.1
13160.7
13155.6
13150.8
13146.2
13141.9
13137.9
13134.1
13130.7
13127.7
13124.9
13122.5
13120.5
13118.8
13117.5
13116.5
13116
13115.8
13116
13116.7
13117.7
13119.2
13121
13123.3
13126
13129.1
13132.7
13136.7
13141
13145.9
13151.1
13156.7
13162.7
13169.2
13176
13183.2
13190.8
13198.8
13207.1
13215.8
13224.8
13234.2
13243.8
13253.8
13264
13274.5
13285.3
13296.3
13307.5
13319
13330.6
13342.4
13354.4
13366.6
13378.8
13391.3
13403.8
13416.5
13429.2
13442
13455
13468
13481
13494.1
13507.1
13520.1
13533
13545.9
13558.6
13571.1
13583.5
13595.7
13607.7
13619.5
13631
13642.3
13653.4
13664.2
13674.7
13684.9
13694.8
13704.4
13713.7
13722.6
13731.2
13739.4
13747.3
13754.8
13761.9
13768.6
13774.9
13780.8
13786.2
13791.2
13795.8
13800
13803.7
13806.9
13809.7
13812.1
13813.9
13815.3
13816.3
13816.7
12964.1
12963.9
12963.2
12961.7
12959.5
12956.4
12952.6
12948
12942.9
12937.1
12930.8
12924.6
12919.1
12914.5
12911
12908.1
12905.5
12902.2
12898.1
12893.3
12888
12882.3
12876.2
12869.9
12863.4
12856.6
12849.6
12842.6
12835.4
12828
12820.7
12813.2
12805.7
12798.2
12790.7
12783.3
12775.9
12768.5
12761.2
12754.1
12747
12740.1
12733.4
12726.8
12720.4
12714.2
12708.3
12702.6
12697.1
12691.9
12687
12682.3
12678
12674
12670.3
12666.9
12663.9
12661.3
12659
12657.1
12655.6
12654.4
12653.7
12653.4
12653.5
12654
12655
12656.4
12658.2
12660.4
12663.1
12666.3
12669.8
12673.9
12678.3
12683.2
12688.6
12694.3
12700.5
12707.2
12714.2
12721.6
12729.5
12737.7
12746.3
12755.3
12764.6
12774.3
12784.3
12794.6
12805.2
12816.1
12827.2
12838.6
12850.3
12862.1
12874.2
12886.5
12898.9
12911.5
12924.2
12937
12950
12963.1
12976.3
12989.6
13003
13016.6
13030.3
13043.9
13057.5
13071
13084.5
13097.9
13111.1
13124.2
13137.1
13149.8
13162.3
13174.5
13186.5
13198.2
13209.7
13220.9
13231.8
13242.4
13252.7
13262.7
13272.3
13281.6
13290.5
13299.1
13307.2
13315
13322.4
13329.3
13335.9
13342
13347.6
13352.9
13357.6
13361.9
13365.8
13369.2
13372.1
13374.5
13376.4
13377.9
13378.8
13379.3
12522
12521.7
12521.1
12519.8
12517.8
12514.8
12511.2
12506.8
12501.7
12496.2
12490.2
12484.3
12479
12474.4
12470.4
12466.7
12462.9
12458.5
12453.5
12448
12442.1
12435.9
12429.3
12422.5
12415.5
12408.3
12400.9
12393.3
12385.6
12377.8
12370
12362
12354.1
12346.1
12338.1
12330.1
12322.2
12314.4
12306.6
12299
12291.5
12284.1
12276.9
12269.9
12263.1
12256.4
12250.1
12243.9
12238.1
12232.5
12227.2
12222.2
12217.5
12213.2
12209.2
12205.5
12202.2
12199.3
12196.8
12194.7
12192.9
12191.6
12190.7
12190.2
12190.2
12190.6
12191.4
12192.7
12194.5
12196.7
12199.4
12202.5
12206.1
12210.2
12214.8
12219.8
12225.2
12231.1
12237.5
12244.3
12251.6
12259.3
12267.4
12275.9
12284.8
12294.1
12303.7
12313.7
12324.1
12334.8
12345.8
12357.1
12368.7
12380.5
12392.6
12404.9
12417.4
12430.1
12443
12456.1
12469.2
12482.5
12496
12509.5
12523.2
12537
12550.9
12564.9
12579.5
12593.7
12607.9
12622
12636.2
12650.2
12664
12677.6
12691.1
12704.3
12717.2
12730
12742.4
12754.6
12766.6
12778.2
12789.5
12800.6
12811.3
12821.6
12831.6
12841.3
12850.6
12859.4
12867.9
12876
12883.7
12890.9
12897.7
12904
12909.9
12915.3
12920.3
12924.8
12928.8
12932.3
12935.3
12937.8
12939.8
12941.4
12942.4
12942.9
12080.2
12079.9
12079.2
12077.9
12075.8
12073
12069.6
12065.6
12061
12055.9
12050.4
12045
12039.8
12034.9
12030.2
12025.6
12020.6
12015.2
12009.4
12003.2
11996.7
11990
11982.9
11975.6
11968.1
11960.3
11952.4
11944.3
11936.1
11927.8
11919.4
11910.9
11902.4
11893.9
11885.4
11876.9
11868.5
11860.1
11851.8
11843.7
11835.6
11827.8
11820.1
11812.6
11805.3
11798.2
11791.4
11784.8
11778.5
11772.5
11766.8
11761.5
11756.4
11751.7
11747.4
11743.4
11739.8
11736.6
11733.8
11731.5
11729.5
11728
11726.9
11726.2
11726
11726.3
11727
11728.2
11729.9
11732.1
11734.8
11737.9
11741.6
11745.7
11750.3
11755.4
11761
11767.1
11773.6
11780.7
11788.2
11796.1
11804.5
11813.3
11822.5
11832.1
11842.2
11852.6
11863.3
11874.4
11885.9
11897.6
11909.6
11921.9
11934.5
11947.3
11960.3
11973.5
11986.9
12000.4
12014
12027.8
12041.7
12055.7
12069.8
12084.1
12098.6
12113.4
12128.3
12143.3
12158.2
12173.2
12188
12202.7
12217.2
12231.4
12245.4
12259.2
12272.7
12285.9
12298.9
12311.6
12324
12336.1
12347.8
12359.3
12370.4
12381.2
12391.6
12401.7
12411.3
12420.5
12429.4
12437.8
12445.8
12453.3
12460.3
12466.9
12473.1
12478.7
12483.9
12488.5
12492.7
12496.3
12499.5
12502.1
12504.2
12505.8
12506.8
12507.4
11639
11638.6
11637.8
11636.4
11634.3
11631.6
11628.5
11624.9
11620.6
11616
11610.9
11605.7
11600.4
11595.1
11589.7
11584.2
11578.4
11572.2
11565.7
11558.9
11551.8
11544.5
11536.9
11529
11520.9
11512.7
11504.2
11495.6
11486.8
11477.9
11468.9
11459.9
11450.8
11441.7
11432.6
11423.6
11414.6
11405.6
11396.8
11388.1
11379.5
11371.1
11362.9
11354.9
11347.1
11339.5
11332.2
11325.2
11318.4
11312
11305.9
11300.1
11294.7
11289.6
11284.9
11280.6
11276.7
11273.2
11270.1
11267.5
11265.2
11263.5
11262.2
11261.3
11261
11261.1
11261.7
11262.8
11264.4
11266.6
11269.2
11272.4
11276
11280.2
11284.9
11290.2
11295.9
11302.1
11308.9
11316.1
11323.9
11332.1
11340.7
11349.9
11359.5
11369.5
11379.9
11390.7
11401.9
11413.4
11425.3
11437.5
11450.1
11462.9
11476
11489.3
11502.8
11516.5
11530.4
11544.4
11558.6
11572.8
11587.1
11601.5
11616.1
11630.9
11646
11661.4
11677.1
11692.8
11708.6
11724.3
11740.1
11755.5
11770.7
11785.6
11800.2
11814.5
11828.5
11842.3
11855.8
11869
11881.9
11894.5
11906.7
11918.7
11930.2
11941.5
11952.3
11962.8
11972.8
11982.4
11991.6
12000.4
12008.7
12016.5
12023.9
12030.8
12037.1
12043
12048.4
12053.3
12057.6
12061.4
12064.7
12067.4
12069.6
12071.2
12072.3
12072.9
11198.6
11198.1
11197.3
11195.8
11193.7
11191.1
11188.1
11184.7
11180.8
11176.3
11171.4
11166.1
11160.6
11154.9
11148.9
11142.7
11136.2
11129.5
11122.4
11115
11107.4
11099.5
11091.3
11082.9
11074.2
11065.3
11056.3
11047
11037.7
11028.2
11018.6
11009
10999.3
10989.5
10979.8
10970.2
10960.5
10951
10941.6
10932.2
10923.1
10914.1
10905.3
10896.7
10888.4
10880.3
10872.5
10865
10857.8
10850.9
10844.3
10838.1
10832.2
10826.8
10821.7
10817
10812.8
10809
10805.6
10802.6
10800.1
10798.1
10796.6
10795.6
10795
10795
10795.5
10796.5
10798
10800.1
10802.7
10805.8
10809.5
10813.8
10818.6
10823.9
10829.8
10836.2
10843.2
10850.7
10858.7
10867.2
10876.2
10885.6
10895.6
10906
10916.8
10928.1
10939.8
10951.8
10964.2
10976.9
10990
11003.3
11016.9
11030.8
11044.9
11059.1
11073.6
11088.2
11102.8
11117.6
11132.3
11147
11161.9
11177
11192.8
11209.1
11225.7
11242.2
11258.7
11275
11292.4
11308.5
11324.4
11340
11355.3
11370.2
11384.7
11399.1
11413.2
11426.9
11440.3
11453.5
11466.2
11478.7
11490.7
11502.4
11513.7
11524.6
11535.1
11545.1
11554.7
11563.8
11572.5
11580.7
11588.3
11595.5
11602.2
11608.3
11613.9
11619