/*--------------------------------*- C++ -*----------------------------------*\
| =========                 |                                                 |
| \\      /  F ield         | OpenFOAM: The Open Source CFD Toolbox           |
|  \\    /   O peration     | Version:  v2006                                 |
|   \\  /    A nd           | Website:  www.openfoam.com                      |
|    \\/     M anipulation  |                                                 |
\*---------------------------------------------------------------------------*/
FoamFile
{
    version     2.0;
    format      ascii;
    class       volScalarField;
    location    "5.75";
    object      r;
}
// * * * * * * * * * * * * * * * * * * * * * * * * * * * * * * * * * * * * * //

dimensions      [1 2 0 0 0 0 0];


internalField   nonuniform List<scalar> 
350
(
-1.0315e-138
6.57043e-137
-2.30137e-135
8.09358e-134
-2.82779e-132
9.81666e-131
-3.38564e-129
1.15992e-127
-3.94713e-126
1.33397e-124
-4.47683e-123
1.49177e-121
-4.93496e-120
1.62054e-118
-5.28167e-117
1.70828e-115
-5.48224e-114
1.74545e-112
-5.51239e-111
1.72658e-109
-5.36266e-108
1.65137e-106
-5.0409e-105
1.52508e-103
-4.5721e-102
1.35799e-100
-3.99531e-99
1.16409e-97
-3.35829e-96
9.59058e-95
-2.71063e-93
7.58041e-92
-2.09703e-90
5.73717e-89
-1.55187e-87
4.14916e-86
-1.09619e-84
2.86092e-83
-7.37368e-82
1.87621e-80
-4.71137e-79
1.16716e-77
-2.85149e-76
6.86753e-75
-1.62983e-73
3.80987e-72
-8.76821e-71
1.98582e-69
-4.42364e-68
9.68735e-67
-2.08437e-65
4.40386e-64
-9.1309e-63
1.85664e-61
-3.69974e-60
7.21971e-59
-1.37856e-57
2.57347e-56
-4.69243e-55
8.349e-54
-1.44798e-52
2.44501e-51
-4.01455e-50
6.40079e-49
-9.89488e-48
1.48061e-46
-2.14049e-45
2.9835e-44
-3.99994e-43
5.14439e-42
-6.32743e-41
7.41602e-40
-8.24731e-39
8.65797e-38
-8.52539e-37
7.81042e-36
-6.58571e-35
5.03382e-34
-3.40797e-33
1.9634e-32
-8.83315e-32
2.30474e-31
5.34759e-31
-1.01732e-29
5.45909e-29
-6.04995e-29
-1.15211e-27
7.2606e-27
1.32056e-27
-2.07163e-25
5.5171e-25
4.72862e-24
-2.2756e-23
-1.22202e-22
6.74851e-22
4.18762e-21
-1.43205e-20
-1.61777e-19
-3.99403e-20
4.96413e-18
2.37942e-17
-3.37793e-17
-9.73321e-16
-5.47823e-15
-9.19065e-15
1.03608e-13
1.2114e-12
8.06773e-12
4.18195e-11
1.84269e-10
7.18885e-10
2.54207e-09
8.27375e-09
2.50576e-08
7.11963e-08
1.91004e-07
4.86348e-07
1.18042e-06
2.74086e-06
6.10725e-06
1.30945e-05
2.70801e-05
5.41305e-05
0.000104782
0.000196753
0.000358935
0.000637062
0.00110149
0.00185747
0.00305838
0.00492184
0.00774898
0.0119462
0.0180485
0.0267439
0.0388955
0.0555609
0.0780054
0.107706
0.146343
0.195785
0.258044
0.335236
0.429504
0.542951
0.677541
0.835012
1.01678
1.22384
1.45672
1.71537
1.99915
2.30683
2.63657
2.98596
3.35208
3.73161
4.12089
4.51606
4.91317
5.3083
5.69765
6.07769
6.4452
6.79738
7.13187
7.44678
7.74073
8.01282
8.26259
8.49001
8.69543
8.87948
9.04309
9.18732
9.31338
9.42252
9.51599
9.59495
9.66044
9.71332
9.7542
9.78346
9.80117
9.80706
9.80059
9.78087
9.74674
9.69681
9.62949
9.54307
9.43583
9.30612
9.15247
8.97368
8.76892
8.53781
8.28053
7.99777
7.69088
7.36173
7.01279
6.647
6.26772
5.87862
5.48358
5.08657
4.69152
4.30222
3.92222
3.55473
3.20257
2.8681
2.55319
2.25924
1.98714
1.73735
1.50988
1.30437
1.12015
0.956275
0.81158
0.684763
0.574417
0.479084
0.397296
0.327609
0.268633
0.219051
0.177639
0.143273
0.114932
0.0917066
0.0727883
0.0574712
0.0451431
0.0352785
0.0274303
0.0212215
0.0163371
0.0125154
0.00954152
0.00723956
0.00546706
0.00410928
0.00307449
0.00228979
0.00169769
0.0012531
0.000920865
0.000673773
0.000490862
0.000356087
0.000257231
0.000185048
0.000132573
9.45937e-05
6.72234e-05
4.75831e-05
3.35488e-05
2.3562e-05
1.64846e-05
1.14892e-05
7.97765e-06
5.51876e-06
3.8037e-06
2.61222e-06
1.78738e-06
1.21877e-06
8.28065e-07
5.60633e-07
3.78361e-07
2.54346e-07
1.70529e-07
1.13876e-07
7.57974e-08
5.03523e-08
3.32331e-08
2.19763e-08
1.44064e-08
9.43886e-09
6.19892e-09
3.98255e-09
2.64011e-09
1.67038e-09
1.08962e-09
7.16467e-10
4.25089e-10
3.12519e-10
1.65858e-10
1.22611e-10
7.98621e-11
3.26245e-11
4.65147e-11
4.24059e-12
1.94956e-11
7.15134e-12
-1.76081e-12
1.26173e-11
-8.05518e-12
8.09064e-12
-2.04589e-12
-1.10436e-12
4.74088e-12
-5.43456e-12
4.99053e-12
-2.91952e-12
6.77902e-13
1.38073e-12
-2.5268e-12
2.76274e-12
-2.16293e-12
1.13215e-12
-3.24881e-14
-8.02113e-13
1.21802e-12
-1.20175e-12
8.71194e-13
-3.9509e-13
-5.91841e-14
3.76537e-13
-5.09058e-13
4.72557e-13
-3.23608e-13
1.33249e-13
3.67957e-14
-1.47957e-13
1.88601e-13
-1.69137e-13
1.12681e-13
-4.50232e-14
-1.30368e-14
4.96597e-14
-6.22832e-14
5.53601e-14
-3.69442e-14
1.54219e-14
2.77953e-15
-1.42116e-14
1.83014e-14
-1.65285e-14
1.13462e-14
-5.21731e-15
-1.69261e-17
3.38771e-15
-4.73523e-15
4.45988e-15
-3.21904e-15
1.67121e-15
-2.37791e-16
)
;

boundaryField
{
    right
    {
        type            zeroGradient;
    }
    left
    {
        type            inletOutlet;
        inletValue      uniform 0;
        value           uniform 0;
    }
    top
    {
        type            zeroGradient;
    }
    bottom
    {
        type            zeroGradient;
    }
    empty
    {
        type            empty;
    }
}


// ************************************************************************* //
