/*--------------------------------*- C++ -*----------------------------------*\
| =========                 |                                                 |
| \\      /  F ield         | OpenFOAM: The Open Source CFD Toolbox           |
|  \\    /   O peration     | Version:  v2006                                 |
|   \\  /    A nd           | Website:  www.openfoam.com                      |
|    \\/     M anipulation  |                                                 |
\*---------------------------------------------------------------------------*/
FoamFile
{
    version     2.0;
    format      ascii;
    class       volScalarField;
    location    "0";
    object      shifted_f;
}
// * * * * * * * * * * * * * * * * * * * * * * * * * * * * * * * * * * * * * //

dimensions      [0 0 0 0 0 0 0];


internalField   nonuniform List<scalar> 
2500
(
-1.48934e-27
5.05877e-34
-1.48934e-27
2.23402e-27
1.0115e-33
5.04053e-34
0
-2.06059e-33
-1.48133e-27
-2.15628e-33
0
-2.32268e-48
0
-7.22202e-27
-1.13889e-26
0
3.75998e-34
-8.49358e-27
8.92524e-35
1.17052e-49
1.85517e-25
0
-7.5707e-35
3.80605e-36
3.476e-35
2.59687e-35
-1.77493e-24
-4.56031e-36
-4.74271e-36
-2.67262e-37
0
6.36931e-26
4.7878e-36
3.60823e-36
2.36408e-36
1.39494e-36
7.56431e-37
3.81788e-37
0
0
3.42703e-38
1.38023e-38
0
1.94172e-39
6.82902e-40
2.32055e-40
-2.02356e-31
2.56387e-41
8.76324e-42
3.17118e-42
0
-2.92179e-48
5.56358e-34
-2.33084e-27
-1.41074e-26
9.3006e-27
0
9.5289e-27
0
-4.98766e-33
-1.79604e-26
0
0
2.72705e-47
0
1.49425e-47
-2.04945e-27
0
1.5748e-25
3.45972e-26
0
-9.21791e-25
-3.53728e-25
-2.33364e-35
4.14646e-24
3.3725e-24
-3.32122e-24
-2.59929e-24
0
-2.6889e-24
-7.44685e-25
2.22269e-25
1.10803e-24
9.27717e-25
-3.31045e-56
1.8609e-25
4.04997e-26
-1.65712e-26
0
0
2.27576e-60
0
8.2091e-29
1.42389e-29
0
8.93801e-31
5.99777e-65
9.52917e-66
1.34319e-31
9.47023e-32
4.67052e-33
4.67052e-33
1.96712e-26
-4.9178e-27
-2.99966e-26
0
0
-9.60454e-33
2.07971e-26
-1.13247e-32
-3.61031e-26
1.4518e-33
-1.29129e-33
-6.44808e-26
1.32957e-46
8.2193e-26
-2.05307e-32
2.93676e-25
1.66943e-33
0
8.43761e-48
0
-4.83547e-23
-1.48769e-22
0
0
1.48088e-22
0
-1.58673e-23
-5.90055e-35
0
0
0
0
-2.09156e-55
0
0
0
0
0
2.83574e-37
-4.29912e-59
-2.9574e-37
-8.43393e-62
0
0
0
0
-5.5755e-40
0
9.32154e-33
9.32154e-33
2.33039e-33
2.32032e-26
1.58155e-26
0
9.16446e-33
-1.93958e-32
0
0
-5.50536e-26
5.72719e-34
-2.16379e-25
-1.07946e-25
-3.3334e-33
6.16241e-33
-5.05116e-32
1.21505e-32
5.18102e-33
-4.24262e-33
0
0
1.55896e-32
1.2551e-33
3.10055e-33
0
2.46137e-22
-5.32535e-34
0
-2.28073e-34
2.28066e-35
0
1.30822e-34
9.71244e-35
0
3.33763e-35
-1.34453e-24
0
1.16654e-25
1.33794e-36
0
1.70462e-37
0
0
1.34716e-29
0
4.48804e-40
2.47927e-40
0
9.28728e-41
0
4.4054e-33
1.32162e-32
-8.66521e-27
1.77562e-26
3.44492e-26
0
0
0
0
-6.12859e-26
-5.34058e-33
-2.61598e-25
-1.26146e-25
0
0
-1.19258e-31
-3.27973e-24
0
0
0
0
-3.51261e-22
0
0
0
4.94932e-22
0
0
0
0
-7.47822e-22
0
0
-2.62789e-34
0
3.34832e-35
3.63733e-25
-6.13682e-25
0
0
-1.65927e-57
-3.59442e-37
0
0
0
0
0
0
0
0
-1.93214e-44
2.3547e-32
-7.76454e-23
3.18249e-32
0
0
-1.03712e-22
-1.04306e-22
0
0
0
0
0
0
0
0
0
0
3.0407e-22
-3.21741e-45
0
1.16966e-31
0
0
0
-5.31886e-22
0
0
-3.4744e-21
0
6.88225e-22
0
0
0
0
0
0
0
0
0
1.24339e-27
0
0
-2.50975e-30
0
0
0
0
0
0
-4.04512e-44
8.10091e-44
-1.26713e-21
-8.44842e-22
0
0
0
-1.69088e-21
0
0
0
0
0
0
0
0
-3.99856e-31
0
0
0
0
0
4.26118e-20
0
0
-3.93892e-20
0
0
0
0
0
0
0
0
0
0
0
0
0
0
0
4.1405e-36
0
0
0
0
0
0
0
-1.62201e-31
-7.32952e-43
-1.62201e-31
-4.61021e-21
-1.72664e-31
-6.14788e-21
0
0
-6.14212e-21
0
0
0
0
0
0
0
0
0
0
0
-8.71338e-44
0
0
1.40785e-19
0
0
0
0
0
0
0
0
0
0
0
0
0
0
0
0
0
0
0
0
0
0
0
0
0
0
0
2.6019e-20
2.87599e-32
-9.75714e-21
2.60197e-20
0
2.60296e-20
0
-1.29877e-20
-3.01545e-30
2.61626e-20
0
0
0
0
0
0
5.53315e-20
0
0
2.22452e-20
0
0
5.87233e-19
0
0
-3.37066e-19
0
-3.16353e-20
0
0
0
0
0
0
0
0
-5.54136e-24
0
0
0
0
0
0
0
0
1.57714e-28
0
0
-1.64175e-28
6.84105e-20
-2.35151e-41
6.84105e-20
-1.2827e-20
-8.55129e-21
1.71093e-20
0
-1.71031e-20
-1.70602e-20
0
0
0
0
6.55629e-20
-9.40288e-41
7.60767e-20
0
7.08085e-20
0
0
1.35551e-19
0
3.53382e-19
0
0
0
-4.58431e-19
0
0
0
0
2.2255e-19
0
0
1.22369e-21
0
0
0
-4.28819e-24
0
0
-2.26704e-26
8.94015e-35
0
0
2.4867e-27
0
0
0
0
0
-3.29007e-31
-3.29007e-31
-5.80357e-21
-9.29073e-20
0
0
0
2.35731e-20
-9.30405e-20
-4.40626e-20
0
0
0
0
-1.50427e-27
0
-1.80281e-19
0
0
-7.86465e-42
0
0
-5.47472e-18
0
0
0
0
0
-9.86933e-31
0
0
-3.92032e-32
0
0
3.71485e-33
0
0
0
0
0
0
4.54849e-35
0
0
0
0
0
0
0
0
-2.07114e-40
-2.74741e-28
6.51676e-19
1.30348e-18
0
0
0
8.72097e-19
0
0
0
0
0
0
0
0
-1.96928e-40
0
0
-2.88015e-41
0
-3.08128e-27
0
0
0
4.7875e-17
0
0
0
0
-2.75873e-46
0
0
0
0
0
0
0
0
0
0
0
0
0
0
0
0
0
0
0
-9.79498e-40
2.35696e-39
2.60491e-18
-1.38936e-17
0
0
3.95958e-28
3.48287e-18
0
0
0
0
0
0
0
0
-1.73878e-17
0
0
-1.5348e-18
0
0
-5.71901e-17
0
3.32197e-17
1.38063e-16
0
0
0
0
0
0
0
0
-1.07297e-15
0
0
0
-8.84637e-17
0
0
-2.95671e-24
0
0
0
0
2.91628e-26
1.0952e-25
4.00336e-26
3.67832e-26
-4.35414e-39
2.29895e-27
6.20585e-18
4.13738e-18
0
0
8.28666e-18
8.29462e-18
4.50644e-26
0
0
0
0
0
0
0
-8.17067e-17
-2.32433e-24
0
-9.08394e-18
0
0
-1.21278e-16
0
0
2.91358e-16
0
0
0
0
0
0
0
2.67526e-31
0
0
0
0
-2.22151e-16
0
0
0
0
0
0
0
0
0
0
6.34784e-26
-1.81409e-38
3.9674e-27
1.10478e-17
-7.3654e-18
1.6792e-26
0
1.17996e-25
0
0
-8.95126e-38
-6.19881e-25
-6.04958e-17
-2.93359e-17
0
0
-1.306e-23
0
-1.41367e-23
8.36322e-39
-1.9961e-17
-6.67634e-17
3.00628e-24
-4.08956e-16
2.24493e-26
0
0
0
1.53935e-27
0
0
0
0
6.00645e-31
0
0
3.05782e-31
0
0
0
0
0
-4.54077e-23
-3.83098e-23
0
0
-1.34088e-34
0
0
0
0
-7.13872e-38
4.63896e-27
1.56692e-17
1.04464e-17
2.08824e-17
0
2.09254e-17
2.09394e-17
2.64079e-25
0
0
0
0
0
0
0
0
0
0
-6.02435e-17
0
0
-2.86224e-16
0
0
7.03479e-16
0
0
0
0
0
0
0
0
0
0
0
0
-6.66919e-16
0
0
0
0
0
0
0
0
0
0
0
-2.78385e-37
4.06366e-27
1.80288e-17
-1.20195e-17
2.40265e-17
0
0
2.4095e-17
0
0
0
0
0
0
0
0
0
0
0
-3.3225e-17
0
0
-3.37312e-16
0
0
8.57679e-16
0
0
0
0
0
0
0
0
0
0
0
0
-8.85512e-16
0
0
0
0
0
0
0
0
0
0
1.99639e-35
0
-2.33385e-24
1.67982e-17
-1.11992e-17
0
0
-5.40241e-23
0
-7.97102e-23
0
0
0
-4.43665e-17
0
0
2.35024e-21
1.15494e-35
0
0
-2.32757e-17
-1.21801e-16
-7.33034e-22
-6.77565e-16
-4.92868e-39
0
-1.1427e-39
-4.15135e-40
0
0
0
-1.69471e-14
-2.18589e-14
0
0
0
1.20085e-30
-6.76274e-15
0
0
0
0
-2.88164e-32
3.35156e-20
1.55819e-20
0
0
0
0
0
0
-7.77903e-36
6.97753e-18
1.04668e-17
-6.97803e-18
0
0
0
1.40121e-17
0
0
0
-5.83652e-17
-2.7702e-17
0
0
3.54648e-20
0
-5.23964e-17
0
2.78598e-18
0
-2.9994e-21
0
0
0
8.19074e-16
0
0
0
0
0
0
0
0
0
0
0
0
0
0
0
-6.13554e-32
0
3.66368e-20
0
0
-3.89335e-52
-2.99033e-23
-4.43206e-24
0
-2.07024e-20
-1.2939e-21
1.78639e-18
1.18976e-18
0
-2.14408e-20
0
2.42093e-18
-6.34465e-21
0
0
-1.12141e-17
0
0
0
-1.52407e-17
7.52354e-20
-1.23301e-17
0
3.25352e-17
0
-9.8589e-17
0
0
3.64728e-16
5.90507e-16
0
0
0
4.41493e-27
0
0
0
0
-6.42791e-15
0
0
0
0
0
-1.34866e-31
0
2.0477e-19
5.55202e-20
0
0
-2.00668e-22
-4.44309e-23
0
-4.82324e-20
-4.82324e-20
-3.01452e-21
1.62637e-18
3.25231e-18
0
0
-2.38922e-20
0
0
1.22735e-32
0
0
1.25229e-17
0
0
2.71572e-17
7.76171e-20
-3.89631e-19
-2.76919e-19
4.87946e-17
5.36647e-17
-5.67619e-21
-1.15897e-16
0
0
0
0
9.48549e-16
0
0
0
0
0
0
0
1.31795e-28
0
0
-2.22264e-30
0
0
-9.3603e-32
2.72724e-19
0
0
0
0
0
5.95735e-24
0
-4.32103e-33
-3.88554e-21
-6.72964e-18
4.49128e-18
0
0
0
-8.97954e-18
0
0
0
0
0
0
0
0
-3.4012e-18
0
0
4.28951e-17
0
0
1.31959e-18
0
0
6.1665e-17
0
0
0
0
0
0
0
0
-1.45286e-15
0
0
0
-1.19364e-16
0
0
0
0
0
0
0
0
0
0
0
-3.0102e-32
1.80167e-20
-4.24726e-18
2.80689e-18
0
0
-5.62639e-18
-5.62403e-18
1.9893e-19
0
0
0
0
0
0
0
-3.66232e-17
0
0
2.37294e-16
0
0
1.53211e-16
0
0
-7.79246e-17
0
0
0
0
0
0
0
0
0
0
0
0
8.51311e-17
0
0
0
0
0
0
0
0
0
0
3.1572e-30
-1.97325e-31
2.66224e-19
-7.11252e-19
-1.15862e-19
0
0
-2.37756e-19
-2.45992e-19
0
0
0
0
0
0
0
0
-4.78578e-17
0
0
0
0
0
0
-7.55961e-36
0
-1.0952e-16
0
-1.83388e-37
0
0
0
0
-4.16525e-40
1.93e-15
0
0
0
0
-9.03455e-44
0
0
2.87531e-30
0
-1.18828e-19
0
0
4.97904e-22
1.67215e-22
-4.01587e-51
0
-2.39016e-30
9.14883e-19
-1.44674e-19
1.13242e-18
0
0
0
2.25494e-18
0
0
0
0
0
0
0
0
0
0
0
-1.62705e-17
0
0
1.51872e-15
0
0
-7.37759e-17
0
0
0
0
0
0
0
0
0
0
0
0
9.575e-17
0
0
0
0
0
0
0
0
0
0
0
-6.18413e-30
1.9439e-18
-3.38546e-18
-3.51886e-19
0
0
0
7.01463e-19
0
0
0
7.45386e-17
0
0
0
-2.49823e-16
-2.94317e-16
3.17929e-16
2.32085e-15
-5.59913e-18
0
3.17381e-15
0
0
2.82743e-15
-2.03887e-17
0
0
0
1.18681e-23
0
0
0
0
5.05352e-16
0
0
6.64397e-17
0
0
0
0
-1.89722e-20
0
0
0
-3.17418e-48
-6.80526e-23
-2.69797e-23
2.32948e-17
1.42674e-16
3.00262e-18
-8.2267e-18
-1.45601e-18
2.91366e-18
2.32991e-17
-2.90534e-18
0
0
2.34165e-17
2.28971e-17
1.35279e-16
2.39944e-17
0
2.29438e-17
-3.44309e-16
2.06383e-17
5.37458e-16
3.52407e-15
1.23296e-17
0
4.79333e-15
4.4297e-15
0
4.46944e-15
9.89223e-18
7.34655e-16
0
-1.49612e-16
1.65555e-23
0
-2.44118e-16
0
0
-5.57678e-16
-4.46116e-16
0
-8.33709e-17
-6.92677e-17
0
-6.5463e-19
3.64885e-19
2.44901e-19
0
1.51249e-20
0
-9.4587e-48
-3.47156e-22
-6.63422e-23
0
1.53397e-16
3.5029e-18
-1.0923e-17
4.13056e-17
0
0
0
-5.1613e-18
0
0
0
0
0
0
0
0
-3.73731e-16
6.92136e-16
0
2.18593e-17
0
1.20545e-14
5.62141e-15
0
0
1.00007e-17
0
3.06422e-16
0
0
0
0
0
0
-5.72447e-16
0
0
0
0
0
0
0
2.81572e-19
0
0
-5.68852e-22
-2.65962e-47
0
0
0
2.6099e-25
-2.98583e-18
1.37751e-16
1.46052e-17
0
0
0
0
1.6512e-17
0
0
0
3.74328e-16
0
0
0
-1.75441e-16
0
0
-3.79894e-31
2.56148e-17
0
0
0
0
0
0
0
0
0
0
0
-5.62559e-16
0
0
-3.14237e-16
0
0
0
0
0
0
0
0
0
0
0
0
0
0
-1.18064e-25
1.26353e-18
-5.84142e-18
2.18576e-18
0
0
-4.36765e-18
-4.37487e-18
0
0
2.78898e-17
0
0
1.75725e-17
0
0
0
0
0
1.61849e-17
0
0
5.48156e-15
0
0
-1.61694e-17
0
0
0
0
0
0
0
0
0
0
0
0
-9.9494e-19
0
0
0
0
0
0
0
0
0
0
0
0
-5.89475e-19
-1.92348e-18
-2.05731e-18
0
0
-4.10759e-18
-4.11528e-18
0
0
0
0
0
0
0
0
0
0
0
4.51247e-15
0
0
0
0
4.32296e-15
-1.62705e-17
0
0
0
0
0
0
0
0
0
0
0
0
9.4229e-20
0
0
8.90063e-20
0
0
0
0
1.79672e-23
1.34815e-23
4.17916e-24
0
-9.1941e-18
-1.3823e-18
-5.23508e-19
2.18831e-18
0
0
-4.37123e-18
-4.37768e-18
-7.87206e-18
0
0
0
0
0
0
0
-5.25923e-16
0
0
1.69e-17
0
0
2.18382e-15
0
0
-1.02134e-17
0
0
0
0
0
0
0
0
0
0
0
0
0
0
0
0
0
0
0
0
0
0
0
0
3.58203e-17
8.59705e-19
3.76003e-17
2.23956e-18
0
0
-4.47419e-18
-4.47965e-18
-3.57028e-18
0
0
0
0
0
0
0
-1.74531e-16
3.77512e-17
0
0
0
0
7.13114e-16
0
0
-5.95304e-18
-1.25412e-18
0
0
0
-2.46607e-17
0
0
-1.80626e-16
0
-1.1631e-16
0
0
-8.95049e-18
0
1.25938e-19
6.06705e-20
0
0
0
-1.21081e-23
-8.31543e-24
-4.11025e-24
-1.25982e-24
0
3.743e-17
1.09297e-19
-3.46516e-18
-1.94622e-18
4.81747e-18
0
3.39607e-17
0
0
5.42158e-17
0
0
0
0
0
0
-4.56672e-17
0
0
1.67213e-17
0
0
-3.73731e-16
0
-3.00638e-16
-6.72215e-18
-9.57153e-17
1.77942e-17
0
0
0
0
0
-2.37652e-16
-2.04831e-16
-1.44481e-16
0
0
-9.07966e-18
0
0
1.10675e-19
0
0
0
-6.55913e-24
-5.28558e-24
-2.34927e-24
-5.68729e-25
0
-3.57935e-20
-7.20049e-19
-2.26506e-18
8.06188e-20
0
2.77282e-17
-4.06273e-18
-4.06876e-18
0
0
0
0
0
1.64992e-17
0
0
0
0
0
1.56351e-17
0
-4.40506e-16
-4.07822e-16
0
-4.99646e-16
0
0
0
0
0
0
0
0
0
-1.89491e-16
-1.31996e-16
0
0
0
0
-1.14508e-40
0
0
0
0
0
0
-5.52322e-25
0
0
4.1235e-19
3.33682e-17
-2.27197e-19
2.0789e-18
-4.52822e-18
0
0
0
0
0
0
-1.77527e-15
0
0
0
0
0
1.49549e-16
0
1.59217e-17
1.70331e-17
0
-2.53578e-16
-2.0169e-16
0
-1.03202e-17
-4.34642e-17
0
0
0
0
0
0
0
0
-1.12318e-16
0
0
0
0
0
0
0
0
0
0
1.05362e-25
1.64385e-25
5.94642e-26
0
-5.13039e-17
-4.24977e-19
0
1.49159e-17
0.000684637
0.00212598
0.00295475
0.00302681
0.00234218
0.000900838
7.2067e-05
0
0
0
0
-1.52255e-16
8.63469e-17
6.373e-17
3.57378e-17
1.67065e-17
0
4.80115e-17
3.08972e-17
0
0
-9.36752e-18
1.99371e-17
0
0
0
0
0
0
0
-1.5508e-16
-1.09733e-16
0
0
0
0
0
1.04028e-19
4.85851e-20
0
0
6.0717e-25
-1.29314e-44
5.99236e-26
-3.26533e-26
0
5.06301e-18
-5.45715e-19
0
-0.468659
-0.55647
0.76987
1.81142
2.37689
2.46621
1.14002
0.097101
0.000144134
0
0
0
0
0
0
0
0
0
0
0
0
0
-8.61035e-18
0
0
0
0
0
0
0
0
0
0
0
0
-7.10425e-18
0
0
0
0
0
0
0
0
0
0
3.38543e-17
6.04823e-18
4.95402e-17
0.115871
-0.790994
-2.21517
-0.839545
1.39302
3.25286
6.47416
6.22941
2.18088
0.097101
7.2067e-05
1.7196e-17
0
7.97697e-18
-5.63911e-17
-8.95689e-17
0
0
0
1.46738e-16
1.93711e-16
0
0
-8.81044e-18
3.05386e-18
9.36823e-17
7.24312e-17
5.11246e-17
-2.24289e-17
-1.16712e-16
-1.85036e-16
-3.95602e-16
-1.18407e-35
-1.20991e-16
-6.79968e-17
-2.85901e-17
0
-4.13514e-19
-6.48426e-40
0
4.89406e-20
0
0
-1.04667e-24
-4.3286e-25
-2.30644e-25
-8.90907e-26
1.8804e-17
-5.89276e-17
0.0933495
-0.124561
-0.649791
-1.85063
-2.1996
-1.79834
-3.3716
0.778585
8.223
6.22941
1.14002
0.000900838
0
4.70129e-17
6.14652e-17
0
-8.2288e-18
-4.62416e-17
0
0
1.40623e-16
0
9.93769e-17
0
-9.18444e-18
5.41289e-18
4.49608e-17
7.22022e-17
5.26453e-17
0
-1.13124e-16
-1.81181e-16
-1.94222e-16
0
-1.18811e-16
-6.66627e-17
0
0
-1.78387e-19
0
2.10202e-19
0
0
0
0
-2.13871e-25
-1.37264e-25
-6.51798e-26
1.56329e-16
-0.491865
0.17935
0.606258
-0.973208
-0.380133
1.84031
2.6449
-3.2189
-7.78332
0.778585
6.47416
2.46621
0.00234218
0
0
-8.52866e-16
-2.211e-17
-1.31479e-17
0
4.341e-21
0
5.97303e-17
3.86681e-17
3.68144e-17
0
-9.17843e-18
3.03616e-18
0
7.16091e-17
5.27431e-17
-1.7916e-17
0
0
-1.90605e-16
-1.65719e-16
-1.16841e-16
0
-2.75093e-17
-6.86237e-18
0
-2.49032e-40
0
0
1.34829e-20
0
0
0
-1.44425e-25
0
0
-1.4756
-0.912429
2.63759
-0.023393
-3.12314
1.31316
7.35927
6.0525
-3.2189
-3.3716
3.25286
2.37689
0.00302681
0
0
0
0
0
0
1.4672e-17
0
0
0
0
0
-9.035e-18
0
0
0
0
-1.86968e-17
0
0
0
0
0
0
0
0
0
0
0
0
0
0
0
0
0
0
0
-1.96746
-3.5658
2.35447
4.2672
-4.70455
-6.62685
1.72356
7.35927
2.6449
-1.79834
1.39302
1.81142
0.00295475
-2.43183e-15
0
5.98692e-18
3.41048e-18
3.279e-18
0
1.64611e-17
0
7.83343e-17
0
0
0
-9.01981e-18
0
0
0
-6.71772e-20
0
0
0
0
0
0
0
0
-6.97648e-18
0
0
0
4.9143e-20
1.35284e-20
0
0
0
0
0
0
-1.4756
-5.61927
-2.61337
6.85483
2.71478
-8.11714
-6.62685
1.31316
1.84031
-2.1996
-0.839545
0.76987
0.00212598
0
0
0
1.12807e-17
0
0
1.64303e-17
0
0
8.3682e-17
0
0
-9.06673e-18
0
4.56931e-17
0
0
0
0
0
0
0
0
0
0
-6.96053e-18
0
0
1.04102e-19
0
0
0
-2.98022e-25
0
0
0
0
-0.491865
-4.52749
-8.29699
-0.566866
8.17821
2.71478
-4.70455
-3.12314
-0.380133
-1.85063
-2.21517
-0.55647
0.000684637
0
0
3.25289e-17
3.39893e-17
-2.88176e-17
3.50054e-17
1.64451e-17
0
0
7.48887e-17
0
-5.64079e-18
-9.07375e-18
1.81814e-18
0
7.18777e-17
5.22905e-17
-1.89302e-17
-1.11514e-16
-1.79047e-16
0
-1.67036e-16
-1.1777e-16
-6.61512e-17
0
-6.94368e-18
-3.69614e-19
1.36931e-19
2.08265e-19
0
1.35126e-20
8.26185e-22
-5.42538e-25
-2.42395e-25
-1.54882e-25
-7.39709e-26
0
0
-1.4756
-7.08751
-9.38877
-0.566866
6.85483
4.2672
-0.023393
-0.973208
-0.649791
-0.790994
-0.468659
9.17214e-17
0
0
0
4.53704e-18
0
0
1.64543e-17
0
0
7.45e-17
0
0
-9.06088e-18
0
4.53974e-17
0
0
0
0
0
-3.84424e-16
0
0
0
0
0
0
1.36896e-19
0
0
0
0
-5.51379e-25
0
0
0
0
-2.08185e-19
1.66461e-19
-1.96746
-7.08751
-8.29699
-2.61337
2.35447
2.63759
0.606258
-0.124561
0.115871
0
0
0
0
6.2624e-17
1.86565e-17
0
0
-4.24963e-22
1.7486e-17
4.8053e-17
9.7562e-17
1.19738e-16
0
-9.05937e-18
0
0
0
0
0
0
0
0
0
-1.17846e-16
0
0
0
0
1.36842e-19
1.04093e-19
0
1.35188e-20
8.28473e-22
0
-2.53118e-25
-3.73489e-32
0
0
-9.14795e-20
-5.19676e-19
-1.98607e-18
-1.4756
-4.52749
-5.61927
-3.5658
-0.912429
0.17935
0.0933495
0
0
0
0
0
0
0
0
0
1.64495e-17
0
0
7.70581e-17
0
0
-9.06128e-18
0
0
0
0
-1.90693e-17
0
0
0
0
0
0
0
0
0
0
0
0
0
0
-1.40854e-31
0
0
0
0
-1.23692e-18
-5.21023e-19
-2.10457e-18
-2.83771e-18
-0.491865
-1.4756
-1.96746
-1.4756
-0.491865
1.11309e-16
0
-1.12127e-16
0
0
0
2.60307e-17
4.30481e-18
3.87377e-18
-2.67202e-17
-2.55726e-21
0
4.77736e-17
0
0
5.65712e-17
-9.06128e-18
1.9927e-30
0
0
-9.64779e-20
0
0
0
0
0
0
0
-2.77852e-17
0
0
0
0
4.91816e-20
0
0
3.05649e-44
4.47113e-45
0
8.7266e-47
0
-1.46302e-18
-5.21023e-19
-2.32811e-18
-2.5395e-18
0
0
-4.2416e-18
0
0
0
0
-8.69788e-17
0
0
0
2.48459e-17
1.87456e-17
3.75772e-18
-2.6714e-17
0
0
4.77736e-17
9.7351e-17
0
5.65712e-17
-9.06128e-18
0
0
0
-9.64779e-20
0
0
0
0
0
0
0
-2.77852e-17
0
0
0
0
4.91816e-20
0
0
0
4.67437e-45
0
0
)
;

boundaryField
{
    movingWall
    {
        type            zeroGradient;
    }
    fixedWalls
    {
        type            zeroGradient;
    }
    frontAndBack
    {
        type            empty;
    }
}

