/*--------------------------------*- C++ -*----------------------------------*\
| =========                 |                                                 |
| \\      /  F ield         | OpenFOAM: The Open Source CFD Toolbox           |
|  \\    /   O peration     | Version:  v2006                                 |
|   \\  /    A nd           | Website:  www.openfoam.com                      |
|    \\/     M anipulation  |                                                 |
\*---------------------------------------------------------------------------*/
FoamFile
{
    version     2.0;
    format      ascii;
    class       surfaceScalarField;
    location    "12.3";
    object      phi;
}
// * * * * * * * * * * * * * * * * * * * * * * * * * * * * * * * * * * * * * //

dimensions      [0 3 -1 0 0 0 0];
oriented        oriented;


internalField   nonuniform List<scalar> 
104500
(
-3.24828e-05
3.24828e-05
-5.03871e-05
1.79043e-05
-7.03709e-05
1.99838e-05
-9.40145e-05
2.36436e-05
-0.000119333
2.53181e-05
-0.00014513
2.57971e-05
-0.000171047
2.59175e-05
-0.000197082
2.60352e-05
-0.000223291
2.62091e-05
-0.000249719
2.6427e-05
-0.000276376
2.66571e-05
-0.000303271
2.68954e-05
-0.000330396
2.71247e-05
-0.000357744
2.7348e-05
-0.000385302
2.75581e-05
-0.000413054
2.77518e-05
-0.000440986
2.79324e-05
-0.000469071
2.80846e-05
-0.000497286
2.82148e-05
-0.00052561
2.8324e-05
-0.000554008
2.83985e-05
-0.000582454
2.84456e-05
-0.000610913
2.84589e-05
-0.000639353
2.84406e-05
-0.000667741
2.83882e-05
-0.000696043
2.83015e-05
-0.000724226
2.81836e-05
-0.00075225
2.80231e-05
-0.000780087
2.78372e-05
-0.000807701
2.7614e-05
-0.000835068
2.73674e-05
-0.000862151
2.70827e-05
-0.000888922
2.67714e-05
-0.000915358
2.64361e-05
-0.00094143
2.60718e-05
-0.000967113
2.56825e-05
-0.00099239
2.52777e-05
-0.00101727
2.4875e-05
-0.00104172
2.44528e-05
-0.00106575
2.40329e-05
-0.00108937
2.36211e-05
-0.00111259
2.32201e-05
-0.00113542
2.28293e-05
-0.00115785
2.24275e-05
-0.00117988
2.20301e-05
-0.00120149
2.16136e-05
-0.00122268
2.11843e-05
-0.00124342
2.07397e-05
-0.0012637
2.02851e-05
-0.00128353
1.98266e-05
-0.0013029
1.93683e-05
-0.00132181
1.89174e-05
-0.0013403
1.84851e-05
-0.00135837
1.80671e-05
-0.00137598
1.76092e-05
-0.00139308
1.71009e-05
-0.00140958
1.65029e-05
-0.00142536
1.57814e-05
-0.00144028
1.49184e-05
-0.00145418
1.39027e-05
-0.00146694
1.27605e-05
-0.00147847
1.15259e-05
-0.0014887
1.02366e-05
-0.00149763
8.92719e-06
-0.00150526
7.62379e-06
-0.00151161
6.35021e-06
-0.00151671
5.10848e-06
-0.00152061
3.89865e-06
-0.00152334
2.72562e-06
-0.00152492
1.57878e-06
-0.00152537
4.55711e-07
-0.00152477
-6.02012e-07
-0.00152313
-1.64423e-06
-0.00152046
-2.66396e-06
-0.0015168
-3.66282e-06
-0.00151216
-4.64384e-06
-0.00150654
-5.61855e-06
-0.00149997
-6.56837e-06
-0.00149245
-7.51714e-06
-0.00148401
-8.44122e-06
-0.00147465
-9.3569e-06
-0.00146439
-1.02643e-05
-0.00145323
-1.11625e-05
-0.00144118
-1.20438e-05
-0.00142825
-1.2938e-05
-0.00141441
-1.38309e-05
-0.00139969
-1.47216e-05
-0.00138408
-1.561e-05
-0.00136759
-1.6493e-05
-0.00135022
-1.73658e-05
-0.001332
-1.82232e-05
-0.00131294
-1.90599e-05
-0.00129307
-1.98686e-05
-0.00127243
-2.06471e-05
-0.00125101
-2.14107e-05
-0.00122888
-2.21309e-05
-0.00120608
-2.28083e-05
-0.0011826
-2.34766e-05
-0.00115848
-2.41191e-05
-0.00113374
-2.47389e-05
-0.00110841
-2.53346e-05
-0.00108249
-2.59146e-05
-0.00105602
-2.64744e-05
-0.001029
-2.70186e-05
-0.00100146
-2.75422e-05
-0.000973411
-2.80461e-05
-0.000944881
-2.85291e-05
-0.00091589
-2.89911e-05
-0.000886464
-2.94264e-05
-0.000856624
-2.98402e-05
-0.000826402
-3.0222e-05
-0.000795825
-3.05768e-05
-0.00076494
-3.08849e-05
-0.000733816
-3.11236e-05
-0.000702542
-3.12747e-05
-0.0006712
-3.13412e-05
-0.000639847
-3.13535e-05
-0.000608497
-3.13502e-05
-0.000577139
-3.13581e-05
-0.000545755
-3.13833e-05
-0.000514337
-3.14179e-05
-0.000482887
-3.14504e-05
-0.000451414
-3.14734e-05
-0.000419934
-3.148e-05
-0.000388464
-3.14696e-05
-0.000357024
-3.14399e-05
-0.000325635
-3.13894e-05
-0.000294318
-3.1317e-05
-0.000263096
-3.12218e-05
-0.000231993
-3.11026e-05
-0.000201033
-3.096e-05
-0.00017024
-3.07936e-05
-0.000139637
-3.06025e-05
-0.00010925
-3.03871e-05
-7.91037e-05
-3.01465e-05
-4.92213e-05
-2.98825e-05
-1.96271e-05
-2.95942e-05
9.65495e-06
-2.9282e-05
3.86011e-05
-2.89462e-05
6.71883e-05
-2.85872e-05
9.5394e-05
-2.82057e-05
0.000123197
-2.7803e-05
0.000150578
-2.73809e-05
0.000177519
-2.69414e-05
0.000204006
-2.6487e-05
0.000230026
-2.602e-05
0.000255568
-2.55416e-05
0.000280618
-2.50504e-05
0.000305159
-2.45409e-05
0.000329161
-2.40014e-05
0.000352575
-2.34144e-05
0.000375331
-2.27563e-05
0.000397335
-2.20031e-05
0.00041847
-2.11353e-05
0.000438613
-2.01436e-05
0.000457647
-1.90339e-05
0.000475474
-1.7827e-05
0.000492028
-1.65533e-05
0.000507274
-1.52461e-05
0.000521206
-1.3932e-05
0.000533832
-1.26258e-05
0.00054516
-1.13281e-05
0.00055519
-1.00299e-05
0.000563908
-8.71885e-06
0.000571291
-7.38306e-06
0.000577308
-6.0161e-06
0.00058193
-4.62255e-06
0.000585164
-3.23341e-06
0.000587059
-1.89512e-06
0.000587737
-6.78077e-07
0.00058732
4.17009e-07
0.000586067
1.25297e-06
0.000584243
1.82413e-06
0.00058206
2.18283e-06
0.000579608
2.4522e-06
0.000576984
2.62369e-06
0.000574288
2.69561e-06
0.000571646
2.64205e-06
0.000569214
2.43254e-06
0.000567157
2.05704e-06
0.000565611
1.54562e-06
0.000564639
9.71887e-07
0.000564201
4.38538e-07
0.000564148
5.23811e-08
0.000564265
-1.16342e-07
0.000564348
-8.29491e-08
0.000564227
1.20909e-07
0.000563728
4.98496e-07
0.000562762
9.66139e-07
0.000561297
1.46463e-06
0.000559344
1.95336e-06
0.000556936
2.40823e-06
0.000554118
2.81771e-06
0.000550938
3.17981e-06
0.00054744
3.49843e-06
0.000543682
3.7582e-06
0.000539722
3.95963e-06
0.000535617
4.10526e-06
0.000531421
4.19527e-06
0.000527193
4.22837e-06
0.00052299
4.20354e-06
0.000518868
4.12182e-06
0.000514879
3.98833e-06
0.000511065
3.81418e-06
0.000507446
3.61873e-06
0.000504014
3.43201e-06
0.000500722
3.29238e-06
0.000497487
3.23534e-06
0.000494205
3.28163e-06
0.000490769
3.43598e-06
0.000487074
3.69515e-06
0.00048302
4.05372e-06
0.000478519
4.50136e-06
0.000473503
5.01602e-06
0.000467941
5.56214e-06
0.000461844
6.09725e-06
0.000455261
6.58236e-06
0.000448271
6.98987e-06
0.000440964
7.30756e-06
0.000433425
7.53842e-06
0.000425729
7.69668e-06
0.000417926
7.80211e-06
0.000410052
7.87445e-06
0.000402122
7.92972e-06
0.000394144
7.97853e-06
0.000386118
8.02622e-06
0.000378044
8.07407e-06
0.000369922
8.12106e-06
0.000361757
8.16552e-06
0.000353551
8.20623e-06
0.000345308
8.24295e-06
0.000337031
8.27626e-06
0.000328724
8.30711e-06
0.000320388
8.33667e-06
0.000312022
8.3659e-06
0.000303626
8.39537e-06
0.000295201
8.42532e-06
0.000286745
8.4559e-06
0.000278258
8.48703e-06
0.00026974
8.51863e-06
0.000261189
8.55081e-06
0.000252605
8.58391e-06
0.000243987
8.6183e-06
0.000235333
8.65396e-06
0.000226641
8.69175e-06
0.000217908
8.73243e-06
0.000209132
8.77632e-06
0.000200307
8.825e-06
0.000191427
8.87961e-06
0.000182486
8.94115e-06
0.000173474
9.01186e-06
0.000164381
9.09358e-06
0.000155191
9.18969e-06
0.000145887
9.30391e-06
0.000136447
9.44024e-06
0.000126843
9.60386e-06
0.000117044
9.79945e-06
0.000107012
1.00319e-05
9.67049e-05
1.03069e-05
8.60832e-05
1.06217e-05
7.51244e-05
1.09588e-05
6.3824e-05
1.13004e-05
5.21792e-05
1.16447e-05
4.01801e-05
1.19991e-05
2.7813e-05
1.23671e-05
1.5068e-05
1.2745e-05
1.94196e-06
1.3126e-05
-1.15629e-05
1.35048e-05
-2.54459e-05
1.3883e-05
-3.97157e-05
1.42698e-05
-5.44044e-05
1.46887e-05
-6.95654e-05
1.5161e-05
-8.52821e-05
1.57167e-05
-0.000101666
1.6384e-05
-0.000118837
1.71709e-05
-0.000136932
1.80953e-05
-0.000156071
1.91387e-05
-0.000176367
2.02964e-05
-0.000197934
2.1567e-05
-0.000220843
2.29083e-05
-0.000245142
2.42992e-05
-0.000270837
2.56953e-05
-0.000297907
2.70704e-05
-0.00032622
2.83121e-05
-0.000355607
2.93873e-05
-0.000385855
3.02479e-05
-0.000416721
3.08666e-05
-0.000447944
3.12231e-05
-0.00047922
3.12759e-05
-0.000510206
3.09856e-05
-0.000540527
3.03209e-05
-0.000569769
2.92419e-05
-0.000597394
2.76258e-05
-0.00062263
2.52352e-05
-0.00064453
2.19006e-05
-0.00066229
1.77602e-05
-0.00067552
1.32292e-05
-0.000684429
8.90922e-06
-0.000689763
5.33445e-06
-0.000692549
2.7855e-06
-0.000693755
1.20657e-06
-0.000694108
3.52223e-07
-0.000694003
-1.04984e-07
-0.000693591
-4.11899e-07
-0.000692756
-8.35156e-07
-0.000691302
-1.453e-06
-0.000689036
-2.2667e-06
-0.000685816
-3.21987e-06
-0.000681576
-4.2398e-06
-0.000676302
-5.27445e-06
-0.00067
-6.30184e-06
-0.000662681
-7.31856e-06
-0.000654358
-8.32299e-06
-0.000645057
-9.30107e-06
-0.000634828
-1.02293e-05
-0.000623744
-1.10836e-05
-0.000611895
-1.18493e-05
-0.000599368
-1.25269e-05
-0.000586239
-1.31287e-05
-0.000572572
-1.36678e-05
-0.000558415
-1.41569e-05
-0.000543809
-1.46054e-05
-0.000528794
-1.50158e-05
-0.000513402
-1.53911e-05
-0.000497665
-1.57379e-05
-0.000481602
-1.60624e-05
-0.000465232
-1.63706e-05
-0.000448565
-1.66666e-05
-0.000431615
-1.69502e-05
-0.00041439
-1.72247e-05
-0.000396896
-1.74944e-05
-0.000379131
-1.7765e-05
-0.000361086
-1.80441e-05
-0.000342749
-1.83376e-05
-0.000324098
-1.86512e-05
-0.000305111
-1.89872e-05
-0.000285764
-1.93466e-05
-0.000266034
-1.97297e-05
-0.0002459
-2.01344e-05
-0.000225345
-2.05546e-05
-0.000204367
-2.09781e-05
-0.000182979
-2.13878e-05
-0.000161213
-2.1766e-05
-0.000139098
-2.21157e-05
-0.000116619
-2.24788e-05
-9.36472e-05
-2.29717e-05
-6.99918e-05
-2.36554e-05
-4.5265e-05
-2.47268e-05
-1.98812e-05
-2.53838e-05
-1.98812e-05
-4.19163e-05
7.43991e-05
-7.11397e-05
4.71277e-05
-0.000103994
5.2838e-05
-0.000140722
6.03722e-05
-0.000178871
6.34669e-05
-0.000217085
6.40106e-05
-0.000255171
6.40034e-05
-0.000293267
6.41318e-05
-0.000331458
6.43998e-05
-0.000369743
6.47118e-05
-0.000408103
6.50176e-05
-0.000446504
6.52964e-05
-0.000484923
6.55437e-05
-0.000523341
6.57652e-05
-0.000561733
6.59505e-05
-0.000600072
6.60912e-05
-0.00063832
6.61805e-05
-0.000676447
6.6211e-05
-0.000714411
6.6179e-05
-0.000752169
6.60818e-05
-0.000789672
6.59023e-05
-0.000826867
6.564e-05
-0.000863718
6.53098e-05
-0.000900161
6.4884e-05
-0.000936161
6.43879e-05
-0.000971658
6.37986e-05
-0.0010066
6.31256e-05
-0.00104095
6.23747e-05
-0.00107466
6.15468e-05
-0.0011077
6.0648e-05
-0.00114
5.96716e-05
-0.00117154
5.86202e-05
-0.00120229
5.75207e-05
-0.0012322
5.635e-05
-0.00126127
5.51403e-05
-0.00128948
5.38914e-05
-0.00131681
5.26058e-05
-0.00134323
5.12994e-05
-0.00136876
4.99824e-05
-0.00139339
4.86612e-05
-0.00141711
4.73389e-05
-0.00143989
4.60078e-05
-0.00146174
4.46751e-05
-0.00148265
4.33365e-05
-0.00150261
4.19944e-05
-0.00152164
4.06425e-05
-0.00153974
3.92843e-05
-0.00155692
3.79174e-05
-0.00157318
3.65475e-05
-0.00158853
3.51758e-05
-0.00160296
3.37984e-05
-0.00161646
3.24188e-05
-0.00162903
3.10532e-05
-0.00164064
2.96794e-05
-0.00165131
2.82773e-05
-0.00166106
2.68528e-05
-0.00166994
2.53823e-05
-0.00167801
2.3853e-05
-0.00168536
2.22684e-05
-0.00169208
2.06175e-05
-0.00169822
1.89019e-05
-0.00170384
1.71465e-05
-0.00170896
1.53589e-05
-0.00171359
1.35508e-05
-0.00171769
1.17292e-05
-0.00172125
9.90701e-06
-0.00172423
8.09276e-06
-0.00172662
6.28784e-06
-0.00172838
4.48349e-06
-0.00172949
2.6889e-06
-0.00172995
9.11599e-07
-0.00172969
-8.57264e-07
-0.00172871
-2.62586e-06
-0.00172699
-4.38786e-06
-0.0017245
-6.14461e-06
-0.00172125
-7.89804e-06
-0.00171723
-9.63334e-06
-0.00171242
-1.13799e-05
-0.00170684
-1.31016e-05
-0.00170045
-1.48341e-05
-0.00169325
-1.65571e-05
-0.00168523
-1.8277e-05
-0.00167641
-1.99881e-05
-0.00166676
-2.16951e-05
-0.00165629
-2.3399e-05
-0.00164502
-2.51006e-05
-0.00163296
-2.67894e-05
-0.0016201
-2.84657e-05
-0.00160647
-3.01222e-05
-0.00159208
-3.17538e-05
-0.00157695
-3.33561e-05
-0.00156109
-3.49225e-05
-0.00154451
-3.64496e-05
-0.00152722
-3.79359e-05
-0.00150927
-3.9362e-05
-0.00149064
-4.07558e-05
-0.00147135
-4.21034e-05
-0.00145141
-4.34096e-05
-0.00143086
-4.46758e-05
-0.0014097
-4.5899e-05
-0.00138795
-4.70809e-05
-0.00136564
-4.82246e-05
-0.00134279
-4.93283e-05
-0.00131942
-5.03848e-05
-0.00129555
-5.141e-05
-0.00127121
-5.23932e-05
-0.0012464
-5.33368e-05
-0.00122115
-5.42432e-05
-0.00119547
-5.51073e-05
-0.00116937
-5.59377e-05
-0.00114286
-5.67333e-05
-0.00111594
-5.74935e-05
-0.00108861
-5.82153e-05
-0.00106084
-5.88924e-05
-0.0010326
-5.95155e-05
-0.00100386
-6.00774e-05
-0.000974646
-6.05719e-05
-0.000944996
-6.10004e-05
-0.000914988
-6.13656e-05
-0.000884697
-6.16749e-05
-0.000854181
-6.19333e-05
-0.000823487
-6.21444e-05
-0.000792652
-6.2309e-05
-0.000761703
-6.24287e-05
-0.000730669
-6.25033e-05
-0.000699577
-6.25328e-05
-0.000668448
-6.25182e-05
-0.000637305
-6.24598e-05
-0.000606169
-6.23581e-05
-0.000575058
-6.22129e-05
-0.000543993
-6.20254e-05
-0.000512991
-6.17949e-05
-0.000482071
-6.15234e-05
-0.000451247
-6.1211e-05
-0.000420535
-6.08584e-05
-0.00038995
-6.04669e-05
-0.000359507
-6.0037e-05
-0.00032922
-5.957e-05
-0.000299098
-5.90674e-05
-0.000269155
-5.85302e-05
-0.0002394
-5.79605e-05
-0.000209843
-5.73605e-05
-0.000180491
-5.67329e-05
-0.000151351
-5.60813e-05
-0.000122428
-5.54098e-05
-9.37254e-05
-5.4723e-05
-6.52415e-05
-5.40254e-05
-3.69722e-05
-5.33198e-05
-8.90815e-06
-5.26049e-05
1.89666e-05
-5.18762e-05
4.66763e-05
-5.11241e-05
7.42539e-05
-5.03339e-05
0.000101738
-4.94874e-05
0.000129169
-4.85659e-05
0.000156578
-4.75531e-05
0.000183984
-4.64394e-05
0.00021138
-4.5223e-05
0.000238737
-4.39107e-05
0.000266007
-4.25166e-05
0.000293134
-4.10588e-05
0.000320064
-3.95555e-05
0.000346758
-3.80226e-05
0.0003732
-3.64714e-05
0.000399389
-3.49078e-05
0.000425339
-3.33328e-05
0.000451066
-3.17432e-05
0.000476576
-3.01329e-05
0.000501838
-2.84956e-05
0.000526771
-2.68283e-05
0.000551229
-2.51354e-05
0.000575073
-2.34274e-05
0.00059807
-2.17438e-05
0.000620002
-2.01082e-05
0.000640755
-1.85703e-05
0.000660341
-1.71334e-05
0.000678767
-1.58022e-05
0.000696027
-1.45643e-05
0.00071209
-1.34214e-05
0.000726907
-1.23841e-05
0.000740414
-1.14499e-05
0.000752578
-1.06184e-05
0.000763422
-9.87265e-06
0.000773047
-9.18615e-06
0.000781623
-8.52404e-06
0.00078936
-7.85271e-06
0.000796427
-7.14995e-06
0.000802951
-6.40286e-06
0.00080904
-5.59085e-06
0.000814736
-4.72955e-06
0.000820036
-3.8355e-06
0.000824897
-2.90839e-06
0.000829284
-1.97833e-06
0.000833148
-1.04665e-06
0.000836451
-1.22657e-07
0.000839104
8.45066e-07
0.000841133
1.72906e-06
0.00084253
2.56328e-06
0.000843276
3.35875e-06
0.000843359
4.11273e-06
0.000842768
4.81894e-06
0.000841499
5.47229e-06
0.000839552
6.06919e-06
0.000836933
6.60786e-06
0.000833658
7.08907e-06
0.000829759
7.51713e-06
0.00082529
7.90088e-06
0.000820329
8.25383e-06
0.000814971
8.59305e-06
0.000809315
8.93797e-06
0.000803441
9.30957e-06
0.000797407
9.72899e-06
0.000791247
1.02145e-05
0.000784971
1.0777e-05
0.00077857
1.14172e-05
0.000772009
1.21231e-05
0.000765234
1.28719e-05
0.000758182
1.36343e-05
0.000750793
1.43794e-05
0.00074302
1.50802e-05
0.000734842
1.57167e-05
0.00072626
1.62784e-05
0.000717299
1.67632e-05
0.000707997
1.71763e-05
0.000698399
1.75276e-05
0.000688549
1.78291e-05
0.000678482
1.80927e-05
0.000668228
1.83287e-05
0.000657804
1.8545e-05
0.000647222
1.8747e-05
0.00063649
1.89383e-05
0.000625612
1.91214e-05
0.000614591
1.92976e-05
0.000603429
1.94682e-05
0.000592132
1.96344e-05
0.0005807
1.97974e-05
0.000569138
1.99579e-05
0.000557446
2.01167e-05
0.000545628
2.02743e-05
0.000533685
2.04299e-05
0.000521619
2.05841e-05
0.000509435
2.07355e-05
0.000497134
2.08847e-05
0.000484722
2.10301e-05
0.000472204
2.11718e-05
0.000459587
2.13086e-05
0.000446879
2.14407e-05
0.000434089
2.1567e-05
0.000421227
2.16869e-05
0.000408306
2.18003e-05
0.000395341
2.19062e-05
0.000382348
2.20046e-05
0.000369347
2.20946e-05
0.000356361
2.21761e-05
0.000343416
2.22483e-05
0.000330546
2.23109e-05
0.000317786
2.23633e-05
0.00030518
2.24055e-05
0.000292774
2.24377e-05
0.000280622
2.24591e-05
0.000268775
2.24691e-05
0.000257265
2.24686e-05
0.000246106
2.24591e-05
0.000235309
2.24425e-05
0.000224887
2.24208e-05
0.000214858
2.23961e-05
0.000205233
2.23701e-05
0.000196014
2.2345e-05
0.000187194
2.23248e-05
0.000178761
2.23162e-05
0.000170701
2.23296e-05
0.00016301
2.23792e-05
0.00015569
2.24815e-05
0.000148751
2.26559e-05
0.000142212
2.29225e-05
0.000136083
2.32995e-05
0.000130373
2.38062e-05
0.000125054
2.44569e-05
0.000120087
2.52637e-05
0.000115421
2.62331e-05
0.000110973
2.73567e-05
0.000106654
2.86179e-05
0.000102349
2.99997e-05
9.79445e-05
3.14752e-05
9.32906e-05
3.2966e-05
8.82212e-05
3.44567e-05
8.26098e-05
3.58594e-05
7.63851e-05
3.70913e-05
6.95394e-05
3.80687e-05
6.21424e-05
3.86729e-05
5.43601e-05
3.87679e-05
4.6484e-05
3.8197e-05
3.89644e-05
3.67615e-05
3.23271e-05
3.42631e-05
2.67437e-05
3.08186e-05
2.2209e-05
2.64353e-05
1.86872e-05
2.1282e-05
1.61745e-05
1.57419e-05
1.47382e-05
1.03455e-05
1.44323e-05
5.64037e-06
1.5164e-05
2.05381e-06
1.66092e-05
-2.38604e-07
1.87463e-05
-1.78495e-06
2.11378e-05
-2.4964e-06
2.36496e-05
-2.9237e-06
2.62427e-05
-3.4283e-06
2.89566e-05
-4.1669e-06
3.18378e-05
-5.14792e-06
3.48992e-05
-6.28121e-06
3.81127e-05
-7.45336e-06
4.142e-05
-8.58177e-06
4.47524e-05
-9.63418e-06
4.80497e-05
-1.06159e-05
5.12812e-05
-1.15545e-05
5.44416e-05
-1.24615e-05
5.75552e-05
-1.33429e-05
6.0662e-05
-1.41904e-05
6.38048e-05
-1.49921e-05
6.70136e-05
-1.57357e-05
7.02991e-05
-1.64142e-05
7.36503e-05
-1.70189e-05
7.70355e-05
-1.75421e-05
8.04062e-05
-1.7976e-05
8.37091e-05
-1.83187e-05
8.68871e-05
-1.85692e-05
8.98884e-05
-1.87392e-05
9.26577e-05
-1.88318e-05
9.51496e-05
-1.88625e-05
9.7306e-05
-1.8823e-05
9.90653e-05
-1.87096e-05
0.000100358
-1.85171e-05
0.000101124
-1.82603e-05
0.000101296
-1.79377e-05
0.000100811
-1.75585e-05
9.96115e-05
-1.71383e-05
9.76606e-05
-1.67003e-05
9.49366e-05
-1.62632e-05
9.14288e-05
-1.58388e-05
8.71524e-05
-1.54533e-05
8.21468e-05
-1.51288e-05
7.64602e-05
-1.4868e-05
7.01601e-05
-1.4678e-05
6.33399e-05
-1.45676e-05
5.6113e-05
-1.4539e-05
4.85894e-05
-1.45922e-05
4.08388e-05
-1.47282e-05
3.28179e-05
-1.49508e-05
2.42099e-05
-1.50473e-05
1.47363e-05
-1.52532e-05
6.49271e-06
-1.71402e-05
-1.33885e-05
-4.21305e-05
0.00011653
-6.87586e-05
7.37558e-05
-9.85777e-05
8.26572e-05
-0.000133153
9.49479e-05
-0.000169981
0.000100294
-0.000207071
0.000101101
-0.000243889
0.000100822
-0.000280518
0.000100761
-0.000317144
0.000101025
-0.000353838
0.000101406
-0.000390598
0.000101778
-0.000427398
0.000102096
-0.000464219
0.000102364
-0.000501041
0.000102588
-0.00053783
0.00010274
-0.000574563
0.000102824
-0.000611206
0.000102824
-0.000647706
0.000102711
-0.000684029
0.000102502
-0.000720145
0.000102198
-0.000755997
0.000101754
-0.000791549
0.000101192
-0.000826729
0.00010049
-0.00086151
9.96645e-05
-0.000895837
9.87154e-05
-0.000929654
9.76154e-05
-0.000962917
9.63885e-05
-0.000995565
9.5023e-05
-0.00102757
9.3549e-05
-0.00105889
9.1966e-05
-0.00108949
9.02719e-05
-0.00111935
8.848e-05
-0.00114842
8.65971e-05
-0.00117671
8.46368e-05
-0.00120418
8.26093e-05
-0.00123081
8.05264e-05
-0.00125661
7.84009e-05
-0.00128155
7.62445e-05
-0.00130564
7.40657e-05
-0.00132885
7.18725e-05
-0.00135118
6.96725e-05
-0.00137263
6.74536e-05
-0.00139321
6.52532e-05
-0.00141291
6.30451e-05
-0.00143175
6.08347e-05
-0.00144972
5.86135e-05
-0.00146685
5.64136e-05
-0.00148314
5.42034e-05
-0.00149859
5.20013e-05
-0.00151322
4.98041e-05
-0.00152704
4.7621e-05
-0.00154006
4.5432e-05
-0.00155229
4.32813e-05
-0.00156374
4.11331e-05
-0.00157445
3.89877e-05
-0.00158443
3.6834e-05
-0.00159371
3.46653e-05
-0.00160233
3.24674e-05
-0.00161029
3.02268e-05
-0.00161761
2.79395e-05
-0.00162431
2.56078e-05
-0.00163039
2.32242e-05
-0.00163583
2.07932e-05
-0.0016406
1.83209e-05
-0.00164469
1.58269e-05
-0.0016481
1.33145e-05
-0.0016508
1.07878e-05
-0.00165276
8.25151e-06
-0.00165399
5.70815e-06
-0.00165446
3.15997e-06
-0.00165415
6.08279e-07
-0.00165306
-1.95518e-06
-0.00165117
-4.51306e-06
-0.00164848
-7.07628e-06
-0.00164498
-9.64127e-06
-0.00164068
-1.22051e-05
-0.00163554
-1.47684e-05
-0.00162959
-1.73345e-05
-0.00162279
-1.9893e-05
-0.00161518
-2.245e-05
-0.00160673
-2.50022e-05
-0.00159746
-2.75469e-05
-0.00158737
-3.00833e-05
-0.00157645
-3.26129e-05
-0.00156472
-3.51312e-05
-0.00155219
-3.76284e-05
-0.00153887
-4.01133e-05
-0.00152476
-4.25778e-05
-0.00150987
-4.50098e-05
-0.00149422
-4.74064e-05
-0.00147781
-4.97602e-05
-0.00146067
-5.2067e-05
-0.00144279
-5.43244e-05
-0.0014242
-5.65247e-05
-0.0014049
-5.86677e-05
-0.0013849
-6.07537e-05
-0.00136422
-6.27809e-05
-0.00134288
-6.47494e-05
-0.0013209
-6.66559e-05
-0.00129829
-6.85075e-05
-0.00127508
-7.0295e-05
-0.00125128
-7.20215e-05
-0.00122693
-7.36841e-05
-0.00120203
-7.52835e-05
-0.00117662
-7.68186e-05
-0.00115072
-7.8288e-05
-0.00112437
-7.96909e-05
-0.00109759
-8.10217e-05
-0.00107041
-8.22843e-05
-0.00104287
-8.34806e-05
-0.00101501
-8.45996e-05
-0.00098685
-8.56488e-05
-0.000958437
-8.66291e-05
-0.000929782
-8.75466e-05
-0.000900894
-8.84035e-05
-0.000871783
-8.91891e-05
-0.000842459
-8.98952e-05
-0.000812948
-9.05119e-05
-0.000783273
-9.10405e-05
-0.000753461
-9.14864e-05
-0.000723539
-9.18557e-05
-0.000693529
-9.21541e-05
-0.000663455
-9.23837e-05
-0.000633337
-9.25465e-05
-0.000603197
-9.26427e-05
-0.000573057
-9.26735e-05
-0.000542936
-9.26394e-05
-0.000512854
-9.2541e-05
-0.000482833
-9.23796e-05
-0.00045289
-9.21554e-05
-0.000423047
-9.18691e-05
-0.000393319
-9.15225e-05
-0.000363726
-9.11164e-05
-0.000334285
-9.06518e-05
-0.000305013
-9.01304e-05
-0.000275926
-8.95537e-05
-0.000247041
-8.89229e-05
-0.00021837
-8.82402e-05
-0.000189931
-8.75071e-05
-0.000161735
-8.6726e-05
-0.000133797
-8.58978e-05
-0.000106133
-8.50253e-05
-7.87548e-05
-8.41107e-05
-5.16817e-05
-8.31543e-05
-2.49328e-05
-8.21587e-05
1.4689e-06
-8.11247e-05
2.74953e-05
-8.00519e-05
5.31153e-05
-7.89397e-05
7.82987e-05
-7.77883e-05
0.000103017
-7.65943e-05
0.000127246
-7.53538e-05
0.000150974
-7.40619e-05
0.0001742
-7.27131e-05
0.000196933
-7.12989e-05
0.000219193
-6.98129e-05
0.000241003
-6.82491e-05
0.000262384
-6.66044e-05
0.000283354
-6.48802e-05
0.000303921
-6.30837e-05
0.000324088
-6.12264e-05
0.000343856
-5.93226e-05
0.00036322
-5.73868e-05
0.000382179
-5.54309e-05
0.000400736
-5.3465e-05
0.0004189
-5.14962e-05
0.000436686
-4.95288e-05
0.000454115
-4.75625e-05
0.000471212
-4.55919e-05
0.000487989
-4.36054e-05
0.000504444
-4.15909e-05
0.000520563
-3.95463e-05
0.000536309
-3.749e-05
0.000551646
-3.54454e-05
0.000566546
-3.34698e-05
0.000580955
-3.15423e-05
0.000594834
-2.96815e-05
0.000608167
-2.78972e-05
0.000620926
-2.61805e-05
0.000633062
-2.45198e-05
0.000644522
-2.29098e-05
0.00065525
-2.13471e-05
0.000665216
-1.98382e-05
0.000674414
-1.83845e-05
0.000682877
-1.69865e-05
0.000690662
-1.56381e-05
0.000697836
-1.43241e-05
0.000704463
-1.30294e-05
0.0007106
-1.17281e-05
0.000716282
-1.04116e-05
0.000721523
-9.07624e-06
0.000726344
-7.72924e-06
0.000730722
-6.35673e-06
0.000734664
-4.9882e-06
0.000738155
-3.61411e-06
0.000741257
-2.25671e-06
0.00074387
-8.84019e-07
0.000746068
3.64994e-07
0.000747792
1.63472e-06
0.000749024
2.8814e-06
0.000749751
4.09124e-06
0.000749962
5.26148e-06
0.000749641
6.39016e-06
0.000748774
7.47498e-06
0.00074735
8.51341e-06
0.000745364
9.50324e-06
0.000742821
1.04431e-05
0.000739742
1.13333e-05
0.000736157
1.2178e-05
0.000732107
1.29885e-05
0.000727631
1.37854e-05
0.000722765
1.45949e-05
0.000717538
1.54417e-05
0.000711972
1.63422e-05
0.000706088
1.73016e-05
0.000699897
1.83137e-05
0.000693406
1.93632e-05
0.000686613
2.04272e-05
0.000679514
2.14782e-05
0.000672105
2.24891e-05
0.000664386
2.34362e-05
0.00065636
2.43039e-05
0.000648039
2.50849e-05
0.000639434
2.57813e-05
0.000630559
2.6402e-05
0.000621429
2.69593e-05
0.000612055
2.74666e-05
0.000602448
2.79354e-05
0.000592618
2.83751e-05
0.000582574
2.87914e-05
0.000572323
2.91891e-05
0.000561874
2.95707e-05
0.000551233
2.99386e-05
0.000540407
3.02944e-05
0.000529401
3.06399e-05
0.000518222
3.09766e-05
0.000506874
3.13055e-05
0.000495364
3.16276e-05
0.000483695
3.19431e-05
0.000471873
3.22521e-05
0.000459902
3.25543e-05
0.000447789
3.28493e-05
0.000435537
3.31364e-05
0.000423152
3.34153e-05
0.000410639
3.36846e-05
0.000398004
3.39436e-05
0.000385254
3.41911e-05
0.000372393
3.44272e-05
0.00035943
3.46504e-05
0.000346371
3.4859e-05
0.000333225
3.5052e-05
0.000320002
3.52276e-05
0.000306712
3.53846e-05
0.000293367
3.55215e-05
0.000279979
3.56369e-05
0.00026656
3.57292e-05
0.000253127
3.57967e-05
0.000239696
3.58368e-05
0.000226287
3.58459e-05
0.000212926
3.58206e-05
0.000199637
3.57585e-05
0.000186444
3.56614e-05
0.000173369
3.55334e-05
0.000160436
3.53756e-05
0.000147671
3.51861e-05
0.000135103
3.49638e-05
0.000122764
3.47099e-05
0.000110681
3.4428e-05
9.88815e-05
3.41238e-05
8.73933e-05
3.38044e-05
7.62448e-05
3.34781e-05
6.54706e-05
3.31534e-05
5.51136e-05
3.28385e-05
4.52287e-05
3.25408e-05
3.58842e-05
3.2267e-05
2.71619e-05
3.20218e-05
1.91595e-05
3.18086e-05
1.1975e-05
3.16414e-05
5.70334e-06
3.15353e-05
4.42578e-07
3.14938e-05
-3.72218e-06
3.15215e-05
-6.72583e-06
3.16216e-05
-8.52296e-06
3.17968e-05
-9.08796e-06
3.20402e-05
-8.48332e-06
3.23614e-05
-6.72205e-06
3.26954e-05
-3.89681e-06
3.30341e-05
-1.4031e-07
3.33348e-05
4.39482e-06
3.35336e-05
9.52172e-06
3.3546e-05
1.50234e-05
3.32662e-05
2.06488e-05
3.25716e-05
2.60781e-05
3.13322e-05
3.08905e-05
2.94507e-05
3.47953e-05
2.69138e-05
3.77717e-05
2.34589e-05
3.98052e-05
1.92485e-05
4.09593e-05
1.45877e-05
4.13993e-05
9.90561e-06
4.13722e-05
5.66743e-06
4.11645e-05
2.26155e-06
4.11779e-05
-2.52005e-07
4.09742e-05
-1.58125e-06
4.09598e-05
-2.48206e-06
4.13021e-05
-3.26594e-06
4.20848e-05
-4.21104e-06
4.33421e-05
-5.42418e-06
4.50799e-05
-6.88576e-06
4.72791e-05
-8.4804e-06
4.98952e-05
-1.00694e-05
5.28466e-05
-1.15332e-05
5.60197e-05
-1.28073e-05
5.92763e-05
-1.38725e-05
6.2514e-05
-1.47921e-05
6.56508e-05
-1.55983e-05
6.8679e-05
-1.63711e-05
7.16426e-05
-1.7154e-05
7.46162e-05
-1.79657e-05
7.76622e-05
-1.87816e-05
8.08302e-05
-1.95822e-05
8.4135e-05
-2.03237e-05
8.75791e-05
-2.09863e-05
9.11453e-05
-2.15422e-05
9.48157e-05
-2.19892e-05
9.85598e-05
-2.23133e-05
0.000102339
-2.25187e-05
0.000106106
-2.25985e-05
0.000109787
-2.25437e-05
0.000113332
-2.23672e-05
0.000116651
-2.20293e-05
0.000119669
-2.15345e-05
0.000122288
-2.08791e-05
0.000124408
-2.00584e-05
0.000125922
-1.90721e-05
0.000126717
-1.79331e-05
0.00012667
-1.66541e-05
0.000125666
-1.52589e-05
0.000123607
-1.378e-05
0.000120408
-1.22538e-05
0.000115991
-1.07115e-05
0.000110314
-9.19118e-06
0.000103382
-7.74627e-06
9.52041e-05
-6.3897e-06
8.58365e-05
-5.1714e-06
7.5366e-05
-4.12161e-06
6.3911e-05
-3.27323e-06
5.15926e-05
-2.63244e-06
3.85378e-05
-1.99251e-06
2.52745e-05
-1.98993e-06
1.35162e-05
-5.38194e-06
1.27734e-07
-4.00764e-05
0.000156606
-6.37278e-05
9.74072e-05
-8.97765e-05
0.000108706
-0.00012071
0.000125881
-0.00015418
0.000133764
-0.000188238
0.000135158
-0.000222116
0.0001347
-0.00025585
0.000134495
-0.000289622
0.000134798
-0.000323542
0.000135325
-0.000357624
0.00013586
-0.000391863
0.000136335
-0.00042624
0.000136741
-0.000460722
0.00013707
-0.000495308
0.000137326
-0.000529969
0.000137485
-0.000564674
0.000137529
-0.000599395
0.000137431
-0.000634105
0.000137212
-0.000668734
0.000136827
-0.000703246
0.000136266
-0.000737607
0.000135553
-0.000771762
0.000134645
-0.000805661
0.000133563
-0.000839244
0.000132298
-0.000872475
0.000130847
-0.000905303
0.000129217
-0.000937695
0.000127415
-0.000969588
0.000125442
-0.00100095
0.000123325
-0.00103173
0.000121059
-0.00106192
0.000118661
-0.00109145
0.000116135
-0.00112034
0.00011352
-0.00114853
0.000110802
-0.00117601
0.000108009
-0.00120276
0.000105153
-0.00122877
0.000102248
-0.00125401
9.93046e-05
-0.00127847
9.63316e-05
-0.00130214
9.33446e-05
-0.00132502
9.03303e-05
-0.00134707
8.73087e-05
-0.00136831
8.42863e-05
-0.00138874
8.12652e-05
-0.00140837
7.82441e-05
-0.00142719
7.52309e-05
-0.00144521
7.22202e-05
-0.00146242
6.92183e-05
-0.00147885
6.62273e-05
-0.00149448
6.32514e-05
-0.00150932
6.02754e-05
-0.00152336
5.73206e-05
-0.0015366
5.43691e-05
-0.00154903
5.14166e-05
-0.00156065
4.84587e-05
-0.00157146
4.54759e-05
-0.00158146
4.24661e-05
-0.00159065
3.94208e-05
-0.00159904
3.63296e-05
-0.00160664
3.32011e-05
-0.00161344
3.0028e-05
-0.00161946
2.68075e-05
-0.0016247
2.35612e-05
-0.00162916
2.0288e-05
-0.00163283
1.69888e-05
-0.00163571
1.36707e-05
-0.0016378
1.03359e-05
-0.00163908
6.98649e-06
-0.00163954
3.62662e-06
-0.00163919
2.54787e-07
-0.00163802
-3.12587e-06
-0.00163601
-6.5178e-06
-0.00163318
-9.9138e-06
-0.0016295
-1.33196e-05
-0.00162498
-1.67256e-05
-0.00161961
-2.01369e-05
-0.0016134
-2.35424e-05
-0.00160634
-2.69513e-05
-0.00159844
-3.03561e-05
-0.00158969
-3.37534e-05
-0.00158009
-3.71421e-05
-0.00156966
-4.05188e-05
-0.00155839
-4.38789e-05
-0.0015463
-4.72199e-05
-0.00153339
-5.054e-05
-0.00151967
-5.38316e-05
-0.00150516
-5.70878e-05
-0.00148986
-6.03085e-05
-0.00147379
-6.34828e-05
-0.00145694
-6.66065e-05
-0.00143933
-6.96741e-05
-0.00142098
-7.26811e-05
-0.00140188
-7.56223e-05
-0.00138205
-7.84949e-05
-0.00136151
-8.12957e-05
-0.00134027
-8.40219e-05
-0.00131834
-8.66734e-05
-0.00129575
-8.92468e-05
-0.00127253
-9.17342e-05
-0.00124868
-9.41441e-05
-0.00122423
-9.64696e-05
-0.00119921
-9.87075e-05
-0.00117363
-0.000100857
-0.00114753
-0.000102917
-0.00112093
-0.000104887
-0.00109386
-0.000106763
-0.00106634
-0.000108548
-0.00103838
-0.000110238
-0.00101004
-0.000111827
-0.000981313
-0.000113323
-0.000952245
-0.000114717
-0.000922863
-0.000116011
-0.000893209
-0.0001172
-0.000863311
-0.000118302
-0.000833213
-0.000119287
-0.000802938
-0.00012017
-0.0007725
-0.00012095
-0.000741913
-0.000121628
-0.000711194
-0.000122206
-0.000680366
-0.000122684
-0.000649455
-0.000123065
-0.000618489
-0.00012335
-0.000587493
-0.000123542
-0.000556494
-0.000123641
-0.000525519
-0.000123649
-0.000494592
-0.000123566
-0.000463738
-0.000123395
-0.000432977
-0.00012314
-0.000402336
-0.000122797
-0.000371836
-0.00012237
-0.000341497
-0.000121861
-0.000311342
-0.000121271
-0.000281391
-0.000120603
-0.000251664
-0.000119858
-0.00022218
-0.000119037
-0.00019296
-0.000118143
-0.000164021
-0.000117179
-0.000135381