/*--------------------------------*- C++ -*----------------------------------*\
| =========                 |                                                 |
| \\      /  F ield         | OpenFOAM: The Open Source CFD Toolbox           |
|  \\    /   O peration     | Version:  v2006                                 |
|   \\  /    A nd           | Website:  www.openfoam.com                      |
|    \\/     M anipulation  |                                                 |
\*---------------------------------------------------------------------------*/
FoamFile
{
    version     2.0;
    format      ascii;
    class       volScalarField;
    location    "0";
    object      f;
}
// * * * * * * * * * * * * * * * * * * * * * * * * * * * * * * * * * * * * * //

dimensions      [0 0 0 0 0 0 0];


internalField   nonuniform List<scalar> 
2500
(
-2.76515e-135
3.03852e-116
-1.13542e-106
-5.95092e-102
4.1795e-97
1.83274e-94
-2.50135e-91
-1.51711e-89
-2.70623e-88
-2.20759e-87
-1.00903e-86
-2.8695e-86
-5.08204e-86
-3.56362e-86
1.10467e-85
5.21815e-85
1.29326e-84
2.35482e-84
3.42193e-84
4.11916e-84
4.20329e-84
3.69834e-84
2.84458e-84
1.93477e-84
1.17526e-84
6.43083e-85
3.19372e-85
1.44915e-85
6.04331e-86
2.32848e-86
8.32837e-87
2.77709e-87
8.66656e-88
2.54019e-88
7.01547e-89
1.83114e-89
4.52969e-90
1.06469e-90
2.38362e-91
5.0946e-92
1.04179e-92
2.04243e-93
3.84648e-94
6.97181e-95
1.21838e-95
2.05648e-96
3.35818e-97
5.31392e-98
8.16062e-99
8.3192e-100
-1.16061e-131
3.99252e-113
-8.3159e-104
-3.06138e-99
1.65952e-94
6.20241e-92
-6.86267e-89
-3.69514e-87
-5.92188e-86
-4.38984e-85
-1.84262e-84
-4.87179e-84
-8.23223e-84
-6.5217e-84
1.06921e-83
5.59851e-83
1.35114e-82
2.36236e-82
3.29137e-82
3.80345e-82
3.73297e-82
3.16546e-82
2.35093e-82
1.54671e-82
9.10283e-83
4.83302e-83
2.33213e-83
1.02949e-83
4.18163e-84
1.57099e-84
5.48435e-85
1.78659e-85
5.45167e-86
1.56368e-86
4.22928e-87
1.08185e-87
2.62445e-88
6.05321e-89
1.33061e-89
2.79389e-90
5.61553e-91
1.08262e-91
2.0059e-92
3.57846e-93
6.15759e-94
1.02376e-94
1.6473e-95
2.56934e-96
3.8905e-97
3.99608e-98
-4.66552e-128
5.01532e-110
-5.79894e-101
-1.51139e-96
6.2718e-92
2.00676e-89
-1.79463e-86
-8.60074e-85
-1.2407e-83
-8.37088e-83
-3.23078e-82
-7.94637e-82
-1.27789e-81
-1.08368e-81
8.88812e-82
5.71061e-81
1.35327e-80
2.27844e-80
3.0486e-80
3.38625e-80
3.20026e-80
2.61815e-80
1.87946e-80
1.19726e-80
6.83341e-81
3.52369e-81
1.65362e-81
7.108e-82
2.81457e-82
1.03191e-82
3.51902e-83
1.12085e-83
3.34694e-84
9.40169e-85
2.49223e-85
6.25249e-86
1.48857e-86
3.37152e-87
7.28192e-88
1.50312e-88
2.97156e-89
5.63745e-90
1.0283e-90
1.80672e-91
3.06308e-92
5.01947e-93
7.96331e-94
1.22502e-94
1.83003e-95
1.89521e-96
-1.84042e-124
6.17614e-107
-3.95305e-98
-7.35597e-94
2.31524e-89
6.36195e-87
-4.58558e-84
-1.95915e-82
-2.54639e-81
-1.5648e-80
-5.55579e-80
-1.27095e-79
-1.93912e-79
-1.69835e-79
5.60863e-80
5.64118e-79
1.32515e-78
2.15348e-78
2.76983e-78
2.95886e-78
2.69373e-78
2.12685e-78
1.4762e-78
9.10786e-79
5.04276e-79
2.52618e-79
1.15324e-79
4.8282e-80
1.86422e-80
6.67164e-81
2.22302e-81
6.9246e-82
2.02389e-82
5.56902e-83
1.44715e-83
3.56148e-84
8.32294e-85
1.85151e-85
3.92994e-86
7.97633e-87
1.55123e-87
2.89643e-88
5.20208e-89
9.00335e-90
1.50416e-90
2.42982e-91
3.80133e-92
5.76832e-93
8.50263e-94
8.87862e-95
-7.12122e-121
7.45052e-104
-2.63196e-95
-3.52754e-91
8.34067e-87
1.97514e-84
-1.14378e-81
-4.36402e-80
-5.11598e-79
-2.86568e-78
-9.3645e-78
-1.99229e-77
-2.8769e-77
-2.54209e-77
5.68745e-79
5.36937e-77
1.26693e-76
1.993e-76
2.46686e-76
2.53589e-76
2.22486e-76
1.69595e-76
1.13849e-76
6.80524e-77
3.65613e-77
1.7798e-77
7.90605e-78
3.2247e-78
1.21438e-78
4.24326e-79
1.38179e-79
4.21032e-80
1.20474e-80
3.24796e-81
8.27538e-82
1.99822e-82
4.58464e-83
1.00191e-83
2.09029e-84
4.17225e-85
7.98371e-86
1.46741e-86
2.59546e-87
4.42554e-88
7.28699e-89
1.16057e-89
1.7907e-90
2.68077e-91
3.89954e-92
4.10531e-93
-2.70146e-117
8.79768e-101
-1.70994e-92
-1.6657e-88
2.9294e-84
6.00141e-82
-2.78215e-79
-9.49786e-78
-1.00542e-76
-5.13769e-76
-1.54611e-75
-3.05921e-75
-4.17291e-75
-3.66029e-75
-6.44691e-76
4.88688e-75
1.18067e-74
1.80444e-74
2.15212e-74
2.13036e-74
1.80204e-74
1.32665e-74
8.61621e-75
4.99121e-75
2.60276e-75
1.23156e-75
5.32462e-76
2.11637e-76
7.77533e-77
2.65323e-77
8.44593e-78
2.5179e-78
7.05497e-79
1.86393e-79
4.65733e-80
1.10361e-80
2.48643e-81
5.33897e-82
1.09504e-82
2.14989e-83
4.0484e-84
7.32592e-85
1.27628e-85
2.14432e-86
3.48038e-87
5.46586e-88
8.31879e-89
1.2288e-89
1.76417e-90
1.87199e-91
-1.00418e-113
1.016e-97
-1.08293e-89
-7.73939e-86
1.002e-81
1.78355e-79
-6.59208e-77
-2.01786e-75
-1.93117e-74
-9.01055e-74
-2.49865e-73
-4.59868e-73
-5.91653e-73
-5.09206e-73
-1.55376e-73
4.20072e-73
1.0703e-72
1.59661e-72
1.83772e-72
1.75302e-72
1.43035e-72
1.01737e-72
6.39478e-73
3.59103e-73
1.81811e-73
8.36433e-74
3.52065e-74
1.36398e-74
4.88993e-75
1.62994e-75
5.07309e-76
1.48005e-76
4.06167e-77
1.05183e-77
2.57792e-78
5.99591e-79
1.32677e-79
2.79969e-80
5.6462e-81
1.09053e-81
2.02121e-82
3.60158e-83
6.18103e-84
1.02345e-84
1.63765e-85
2.53643e-86
3.80834e-87
5.55132e-88
7.86714e-89
8.41106e-90
-3.65534e-110
1.14648e-94
-6.67828e-87
-3.53553e-83
3.33405e-79
5.18096e-77
-1.51964e-74
-4.18076e-73
-3.62221e-72
-1.54463e-71
-3.94955e-71
-6.76287e-71
-8.19722e-71
-6.86278e-71
-2.66409e-71
3.33478e-71
9.41369e-71
1.379e-70
1.53465e-70
1.4119e-70
1.1118e-70
7.64312e-71
4.65105e-71
2.53267e-71
1.2453e-71
5.57179e-72
2.2838e-72
8.62648e-73
3.01855e-73
9.83065e-74
2.99232e-74
8.54514e-75
2.29726e-75
5.83233e-76
1.40239e-76
3.20217e-77
6.96055e-78
1.44368e-78
2.86328e-79
5.44145e-80
9.92807e-81
1.74227e-81
2.94603e-82
4.80799e-83
7.58582e-84
1.15887e-84
1.71678e-85
2.46986e-86
3.45546e-87
3.72055e-88
-1.30213e-106
1.26286e-91
-4.00555e-84
-1.58659e-80
1.07782e-76
1.47004e-74
-3.40372e-72
-8.43841e-71
-6.62817e-70
-2.58585e-69
-6.10112e-69
-9.7225e-69
-1.10927e-68
-8.97535e-69
-3.94943e-69
2.32961e-69
8.00591e-69
1.16107e-68
1.25211e-68
1.1121e-68
8.45615e-69
5.62088e-69
3.31255e-69
1.74968e-69
8.35746e-70
3.63763e-70
1.45233e-70
5.34982e-71
1.82758e-71
5.81668e-72
1.7319e-72
4.8421e-73
1.27548e-73
3.17532e-74
7.49201e-75
1.67975e-75
3.58742e-76
7.31468e-77
1.42696e-77
2.66871e-78
4.79398e-79
8.28678e-80
1.38078e-80
2.22144e-81
3.45634e-82
5.20879e-83
7.61449e-84
1.0813e-84
1.49364e-85
1.61874e-86
-4.53595e-103
1.3564e-88
-2.33368e-81
-6.98785e-78
3.38058e-74
4.07126e-72
-7.3963e-70
-1.65732e-68
-1.18205e-67
-4.22356e-67
-9.20241e-67
-1.36527e-66
-1.46529e-66
-1.14014e-66
-5.36145e-67
1.2402e-67
6.55299e-67
9.51454e-67
9.97084e-67
8.55891e-67
6.28811e-67
4.04316e-67
2.30838e-67
1.18305e-67
5.49115e-68
2.32568e-68
9.04671e-69
3.25065e-69
1.08439e-69
3.37361e-70
9.82785e-71
2.69067e-71
6.94612e-72
1.69597e-72
3.92733e-73
8.64756e-74
1.81487e-74
3.63848e-75
6.98277e-76
1.28537e-76
2.27371e-77
3.87193e-78
6.35837e-79
1.00856e-79
1.54769e-80
2.30118e-81
3.31995e-82
4.65413e-83
6.34821e-84
6.92062e-85
-1.5439e-99
1.41889e-85
-1.31887e-78
-3.01767e-75
1.02721e-71
1.09973e-69
-1.55668e-67
-3.16334e-66
-2.05222e-65
-6.72366e-65
-1.35395e-64
-1.87093e-64
-1.88808e-64
-1.40735e-64
-6.82997e-65
1.31778e-66
5.12788e-65
7.5742e-65
7.74042e-65
6.42994e-65
4.56742e-65
2.84207e-65
1.57254e-65
7.82233e-66
3.5291e-66
1.45482e-66
5.51512e-67
1.93351e-67
6.29998e-68
1.91628e-68
5.46301e-69
1.46493e-69
3.70702e-70
8.87869e-71
2.01825e-71
4.36515e-72
9.0041e-73
1.77521e-73
3.35213e-74
6.07433e-75
1.05824e-75
1.77559e-76
2.8741e-77
4.49536e-78
6.80461e-79
9.98315e-80
1.42161e-80
1.9676e-81
2.65038e-82
2.90455e-83
-5.13007e-96
1.44371e-82
-7.21922e-76
-1.27649e-72
3.01868e-69
2.89502e-67
-3.16725e-65
-5.85975e-64
-3.46444e-63
-1.04208e-62
-1.94111e-62
-2.49955e-62
-2.3712e-62
-1.68811e-62
-8.26642e-63
-9.26092e-64
3.79683e-63
5.84408e-63
5.85026e-63
4.71028e-63
3.23741e-63
1.95044e-63
1.04626e-63
5.05295e-64
2.21648e-64
8.89577e-65
3.28736e-65
1.12475e-65
3.58036e-66
1.06501e-66
2.97187e-67
7.80699e-68
1.93689e-68
4.55156e-69
1.01581e-69
2.15845e-70
4.3767e-71
8.48714e-72
1.57712e-72
2.81376e-73
4.82852e-74
7.98361e-75
1.27397e-75
1.9651e-76
2.93452e-77
4.24866e-78
5.97233e-79
8.16202e-80
1.08586e-80
1.19542e-81
-1.6625e-92
1.42677e-79
-3.82115e-73
-5.28364e-70
8.56355e-67
7.42104e-65
-6.2162e-63
-1.05184e-61
-5.67928e-61
-1.5705e-60
-2.70861e-60
-3.25205e-60
-2.89968e-60
-1.96706e-60
-9.57051e-61
-1.86644e-61
2.6138e-61
4.35815e-61
4.29859e-61
3.36071e-61
2.23686e-61
1.30545e-61
6.79158e-62
3.18557e-62
1.35901e-62
5.31169e-63
1.91392e-63
6.39222e-64
1.9884e-64
5.78538e-65
1.58053e-65
4.06833e-66
9.89769e-67
2.28245e-67
5.0022e-68
1.04441e-68
2.08214e-69
3.97191e-70
7.26443e-71
1.27624e-71
2.15757e-72
3.51591e-73
5.53168e-74
8.41589e-75
1.23999e-75
1.77188e-76
2.45897e-77
3.31856e-78
4.36083e-79
4.81922e-80
-5.24907e-89
1.36737e-76
-1.95223e-70
-2.13779e-67
2.34017e-64
1.85068e-62
-1.17387e-60
-1.8265e-59
-9.02781e-59
-2.2985e-58
-3.67405e-58
-4.11546e-58
-3.44899e-58
-2.22541e-58
-1.064e-58
-2.63202e-59
1.6165e-59
3.12998e-59
3.06544e-59
2.33244e-59
1.50483e-59
8.51206e-60
4.29651e-60
1.95786e-60
8.12566e-61
3.09369e-61
1.08718e-61
3.54532e-62
1.07792e-62
3.0684e-63
8.20859e-64
2.07075e-64
4.94113e-65
1.11837e-65
2.40729e-66
4.93959e-67
9.68363e-68
1.81749e-68
3.2722e-69
5.66164e-70
9.43063e-71
1.51482e-71
2.35014e-72
3.52702e-73
5.12793e-74
7.23285e-75
9.91061e-76
1.32093e-76
1.71467e-77
1.90077e-78
-1.61281e-85
1.26858e-73
-9.60812e-68
-8.4457e-65
6.14522e-62
4.48568e-60
-2.12645e-58
-3.0625e-57
-1.38937e-56
-3.2621e-56
-4.8378e-56
-5.05901e-56
-3.98528e-56
-2.44236e-56
-1.13827e-56
-3.18164e-57
8.24366e-58
2.15476e-57
2.11767e-57
1.57245e-57
9.84462e-58
5.40041e-58
2.64578e-58
1.17168e-58
4.73209e-59
1.75547e-59
6.01816e-60
1.91667e-60
5.69708e-61
1.58698e-61
4.15817e-62
1.02824e-62
2.40688e-63
5.34794e-64
1.1308e-64
2.28075e-65
4.39746e-66
8.12169e-67
1.43961e-67
2.45347e-68
4.02721e-69
6.37715e-70
9.7573e-71
1.44466e-71
2.07284e-72
2.88622e-73
3.90512e-74
5.14083e-75
6.59251e-76
7.32511e-77
-4.81642e-82
1.13711e-70
-4.54531e-65
-3.25426e-62
1.54625e-59
1.05558e-57
-3.68139e-56
-4.94764e-55
-2.06656e-54
-4.48239e-54
-6.17447e-54
-6.03202e-54
-4.4673e-54
-2.59749e-54
-1.17284e-54
-3.49467e-55
2.38688e-56
1.41283e-55
1.41412e-55
1.02819e-55
6.25438e-56
3.3294e-56
1.58386e-56
6.81879e-57
2.68066e-57
9.69213e-58
3.24221e-58
1.00869e-58
2.93182e-59
7.99354e-60
2.0518e-60
4.97444e-61
1.14249e-61
2.49248e-62
5.17806e-63
1.02673e-63
1.94727e-64
3.53954e-65
6.17785e-66
1.03722e-66
1.67794e-67
2.61973e-68
3.95349e-69
5.77551e-70
8.179e-71
1.12435e-71
1.50231e-72
1.9535e-73
2.475e-74
2.75439e-75
-1.39606e-78
9.82628e-68
-2.06181e-62
-1.22149e-59
3.71519e-57
2.40877e-55
-6.06223e-54
-7.68316e-53
-2.9651e-52
-5.95294e-52
-7.62572e-52
-6.96476e-52
-4.85034e-52
-2.67341e-52
-1.16402e-52
-3.57298e-53
-1.55175e-54
8.74164e-54
9.1057e-54
6.51014e-54
3.85306e-54
1.99175e-54
9.20443e-55
3.85355e-55
1.47506e-55
5.19923e-56
1.69754e-56
5.16022e-57
1.46697e-57
3.91562e-58
9.84806e-59
2.34132e-59
5.27708e-60
1.13058e-60
2.30804e-61
4.49989e-62
8.39625e-63
1.50227e-63
2.58222e-64
4.27148e-65
6.8112e-66
1.04861e-66
1.56103e-67
2.2503e-68
3.14561e-69
4.26956e-70
5.63416e-71
7.23715e-72
9.05931e-73
1.00903e-73
-3.92153e-75
8.16609e-65
-8.94351e-60
-4.46049e-57
8.48741e-55
5.32294e-53
-9.43579e-52
-1.14367e-50
-4.0952e-50
-7.62674e-50
-9.09707e-50
-7.77351e-50
-5.0919e-50
-2.65866e-50
-1.11215e-50
-3.43994e-51
-3.84039e-52
5.03072e-52
5.63829e-52
3.98441e-52
2.29818e-52
1.15444e-52
5.18473e-53
2.11157e-53
7.87208e-54
2.70572e-54
8.62442e-55
2.56219e-55
7.12577e-56
1.86244e-56
4.59063e-57
1.07046e-57
2.36814e-58
4.98331e-59
9.99865e-60
1.91707e-60
3.51967e-61
6.19969e-62
1.04961e-62
1.7109e-63
2.68945e-64
4.08336e-65
5.99698e-66
8.53147e-67
1.17729e-67
1.57788e-68
2.05653e-69
2.60964e-70
3.22768e-71
3.59525e-72
-1.06571e-71
6.50838e-62
-3.69838e-57
-1.58236e-54
1.83333e-52
1.13726e-50
-1.37584e-49
-1.62663e-48
-5.43162e-48
-9.40646e-48
-1.04614e-47
-8.37019e-48
-5.15839e-48
-2.55005e-48
-1.0218e-48
-3.13656e-49
-4.82187e-50
2.62584e-50
3.34712e-50
2.35294e-50
1.32497e-50
6.47233e-51
2.82611e-51
1.11999e-51
4.06774e-52
1.3637e-52
4.24459e-53
1.23268e-53
3.35456e-54
8.58708e-55
2.07475e-55
4.74602e-56
1.03075e-56
2.1308e-57
4.20261e-58
7.92543e-59
1.43196e-59
2.48352e-60
4.1419e-61
6.65367e-62
1.0312e-62
1.54422e-63
2.23763e-64
3.14182e-65
4.28025e-66
5.66503e-67
7.29296e-68
9.14262e-69
1.11729e-69
1.24366e-70
-2.79653e-68
4.95904e-59
-1.45294e-54
-5.44439e-52
3.71554e-50
2.34472e-48
-1.85363e-47
-2.20213e-46
-6.90024e-46
-1.11429e-45
-1.15717e-45
-8.67578e-46
-5.0318e-46
-2.35398e-46
-9.01262e-47
-2.71527e-47
-4.86459e-48
1.17968e-48
1.89896e-48
1.33833e-48
7.37122e-49
3.50395e-49
1.48805e-49
5.73998e-50
2.03146e-50
6.6443e-51
2.01993e-51
5.73567e-52
1.52766e-52
3.83078e-53
9.07447e-54
2.03675e-54
4.34334e-55
8.822e-56
1.71067e-56
3.17355e-57
5.64368e-58
9.63883e-59
1.58375e-59
2.50766e-60
3.83217e-61
5.66064e-62
8.09371e-63
1.12171e-63
1.50878e-64
1.97208e-65
2.50772e-66
3.10579e-67
3.75014e-68
4.16812e-69
-7.07027e-65
3.59933e-56
-5.40127e-52
-1.81343e-49
6.98387e-48
4.65397e-46
-2.25316e-45
-2.82472e-44
-8.37151e-44
-1.26462e-43
-1.22817e-43
-8.63536e-44
-4.71453e-44
-2.08624e-44
-7.61546e-45
-2.23255e-45
-4.31843e-46
3.91823e-47
1.02672e-46
7.32099e-47
3.95074e-47
1.82847e-47
7.55424e-48
2.83689e-48
9.78569e-49
3.12322e-49
9.2759e-50
2.5759e-50
6.71615e-51
1.65014e-51
3.83315e-52
8.44314e-53
1.7682e-53
3.5294e-54
6.72966e-55
1.22832e-55
2.15031e-56
3.61699e-57
5.85591e-58
9.13995e-59
1.3774e-59
2.00714e-60
2.83204e-61
3.87435e-62
5.14549e-63
6.64204e-64
8.34284e-65
1.02076e-65
1.21773e-66
1.35037e-67
-1.71783e-61
2.47824e-53
-1.8913e-49
-5.83441e-47
1.19413e-45
8.86733e-44
-2.35169e-43
-3.41362e-42
-9.66769e-42
-1.37125e-41
-1.24746e-41
-8.23154e-42
-4.2312e-42
-1.77022e-42
-6.14821e-43
-1.74147e-43
-3.4813e-44
2.17117e-46
5.28288e-45
3.8482e-45
2.03711e-45
9.18098e-46
3.69026e-46
1.34929e-46
4.53697e-47
1.41327e-47
4.10138e-48
1.11408e-48
2.84412e-49
6.8482e-50
1.56025e-50
3.37329e-51
6.93901e-52
1.36134e-52
2.55281e-53
4.58501e-54
7.90239e-55
1.30932e-55
2.08895e-56
3.21434e-57
4.77738e-58
6.86814e-59
9.56374e-60
1.29157e-60
1.6937e-61
2.15919e-62
2.67884e-63
3.23773e-64
3.81569e-65
4.21811e-66
-3.99886e-58
1.61089e-50
-6.20465e-47
-1.80835e-44
1.78784e-43
1.61583e-41
-1.82728e-41
-3.85831e-40
-1.05882e-39
-1.41629e-39
-1.20899e-39
-7.49221e-40
-3.62626e-40
-1.43355e-40
-4.72734e-41
-1.28549e-41
-2.57922e-42
-1.08679e-43
2.59338e-43
1.9447e-43
1.00963e-43
4.42856e-44
1.73121e-44
6.16227e-45
2.01987e-45
6.14153e-46
1.74182e-46
4.62899e-47
1.15728e-47
2.73135e-48
6.10462e-49
1.29571e-49
2.61843e-50
5.04983e-51
9.31438e-52
1.64642e-52
2.79411e-53
4.5606e-54
7.1711e-55
1.08794e-55
1.59485e-56
2.26218e-57
3.10888e-58
4.14468e-59
5.36662e-60
6.7564e-61
8.27905e-62
9.88337e-63
1.15042e-63
1.26661e-64
-8.8863e-55
9.82941e-48
-1.89498e-44
-5.38214e-42
2.12459e-41
2.80271e-39
-3.0772e-40
-4.03912e-38
-1.09521e-37
-1.38879e-37
-1.11442e-37
-6.48961e-38
-2.95747e-38
-1.10397e-38
-3.44855e-39
-8.94517e-40
-1.76068e-40
-1.20138e-41
1.2287e-41
9.47721e-42
4.81028e-42
2.04966e-42
7.78472e-43
2.69625e-43
8.61361e-44
2.55642e-44
7.08636e-45
1.84275e-45
4.51248e-46
1.0441e-46
2.28961e-47
4.7717e-48
9.47469e-49
1.79652e-49
3.25982e-50
5.67153e-51
9.47851e-52
1.52424e-52
2.36232e-53
3.53384e-54
5.10976e-55
7.15129e-56
9.6996e-57
1.27653e-57
1.63196e-58
2.02881e-59
2.45499e-60
2.89406e-61
3.32615e-62
3.64353e-63
-1.87664e-51
5.59253e-45
-5.34672e-42
-1.53202e-39
1.23334e-39
4.59939e-37
2.51165e-37
-3.86237e-36
-1.06494e-35
-1.28827e-35
-9.7355e-36
-5.32955e-36
-2.28645e-36
-8.05181e-37
-2.37597e-37
-5.83644e-38
-1.10301e-38
-8.64452e-40
5.78026e-40
4.48618e-40
2.20728e-40
9.09819e-41
3.34993e-41
1.12769e-41
3.50933e-42
1.01644e-42
2.7538e-43
7.00767e-44
1.68104e-44
3.81379e-45
8.20701e-46
1.67967e-46
3.27745e-47
6.11074e-48
1.09092e-48
1.86838e-49
3.07528e-50
4.87271e-51
7.44396e-52
1.09805e-52
1.56613e-53
2.16265e-54
2.8949e-55
3.76071e-56
4.74637e-57
5.82551e-58
6.95938e-59
8.09852e-60
9.18576e-61
9.99882e-62
-3.74497e-48
2.943e-42
-1.38046e-39
-4.14953e-37
-2.96662e-37
7.08455e-35
6.68674e-35
-3.30138e-34
-9.68283e-34
-1.12605e-33
-8.02863e-34
-4.1324e-34
-1.66833e-34
-5.53646e-35
-1.53788e-35
-3.54474e-36
-6.27262e-37
-4.66148e-38
2.83535e-38
2.08942e-38
9.79957e-39
3.87686e-39
1.37814e-39
4.49922e-40
1.3624e-40
3.84901e-41
1.01901e-41
2.53752e-42
5.96347e-43
1.32672e-43
2.802e-44
5.63234e-45
1.08012e-45
1.98046e-46
3.47891e-47
5.86567e-48
9.50918e-49
1.48465e-49
2.23572e-50
3.25197e-51
4.57501e-52
6.23305e-53
8.23345e-54
1.05562e-54
1.31497e-55
1.59291e-56
1.8779e-57
2.15595e-58
2.41157e-59
2.60438e-60
-7.01042e-45
1.41828e-39
-3.22165e-37
-1.06236e-34
-1.42133e-34
1.01363e-32
1.18325e-32
-2.4264e-32
-8.182e-32
-9.23411e-32
-6.22255e-32
-3.01067e-32
-1.14324e-32
-3.57084e-33
-9.29387e-34
-1.98415e-34
-3.16823e-35
-1.67494e-36
1.52293e-36
9.7471e-37
4.24336e-37
1.59057e-37
5.42084e-38
1.70977e-38
5.02742e-39
1.38396e-39
3.57864e-40
8.71885e-41
2.00734e-41
4.37942e-42
9.07814e-43
1.79239e-43
3.37844e-44
6.09216e-45
1.05305e-45
1.74799e-46
2.79112e-47
4.29386e-48
6.37369e-49
9.14121e-50
1.26837e-50
1.70466e-51
2.22158e-52
2.8103e-53
3.45387e-54
4.12724e-55
4.79833e-56
5.42999e-57
5.98274e-58
6.39665e-59
-1.21917e-41
6.18194e-37
-6.68204e-35
-2.54791e-32
-3.81438e-32
1.32842e-30
1.70272e-30
-1.40343e-30
-6.37833e-30
-7.06928e-30
-4.50932e-30
-2.04939e-30
-7.31684e-31
-2.14853e-31
-5.20737e-32
-1.00927e-32
-1.3576e-33
8.23122e-37
8.99683e-35
4.63253e-35
1.81204e-35
6.31874e-36
2.04245e-36
6.18485e-37
1.75974e-37
4.71126e-38
1.1887e-38
2.83216e-39
6.38643e-40
1.36627e-40
2.77968e-41
5.39065e-42
9.98675e-43
1.77107e-43
3.0123e-44
4.92249e-45
7.74115e-46
1.17334e-46
1.71656e-47
2.42706e-48
3.32064e-49
4.40117e-50
5.65672e-51
7.05672e-52
8.55103e-53
1.00712e-53
1.1534e-54
1.28471e-55
1.39163e-56
1.46847e-57
-1.9442e-38
2.39835e-34
-1.19996e-32
-5.65217e-30
-8.14807e-30
1.5644e-28
2.09489e-28
-4.50609e-29
-4.54418e-28
-5.02294e-28
-3.03663e-28
-1.29446e-28
-4.34649e-29
-1.19945e-29
-2.68485e-30
-4.56785e-31
-4.35528e-32
6.68843e-33
5.5595e-33
2.25571e-33
7.71432e-34
2.45022e-34
7.40173e-35
2.13163e-35
5.83563e-36
1.51456e-36
3.7222e-37
8.66441e-38
1.91266e-38
4.0112e-39
8.00816e-40
1.5252e-40
2.77682e-41
4.84228e-42
8.1027e-43
1.30326e-43
2.0181e-44
3.01303e-45
4.34311e-46
6.05171e-47
8.16072e-48
1.0661e-48
1.35043e-49
1.6599e-50
1.981e-51
2.29638e-52
2.58592e-53
2.82819e-54
3.00225e-55
3.11098e-56
-2.79189e-35
8.10591e-32
-1.77305e-30
-1.13788e-27
-1.49061e-27
1.61068e-26
2.23234e-26
2.38366e-27
-2.91948e-26
-3.28886e-26
-1.88565e-26
-7.52005e-27
-2.38059e-27
-6.18581e-28
-1.26506e-28
-1.77561e-29
-4.71268e-31
7.32245e-31
3.37051e-31
1.11041e-31
3.2886e-32
9.34976e-33
2.59592e-33
7.02045e-34
1.83375e-34
4.59013e-35
1.09555e-35
2.48734e-36
5.36997e-37
1.10331e-37
2.16053e-38
4.03957e-39
7.225e-40
1.23843e-40
2.03797e-41
3.22504e-42
4.91518e-43
7.22472e-44
1.02549e-44
1.40726e-45
1.86891e-46
2.40415e-47
2.99779e-48
3.62527e-49
4.25313e-50
4.84066e-51
5.34266e-52
5.71299e-53
5.90861e-54
5.95812e-55
-3.5177e-32
2.31524e-29
-1.8415e-28
-2.01633e-25
-2.3801e-25
1.39045e-24
2.05807e-24
5.70717e-25
-1.65571e-24
-1.96786e-24
-1.06916e-24
-3.97033e-25
-1.19471e-25
-2.94473e-26
-5.43108e-27
-5.51985e-28
6.77057e-29
5.49405e-29
1.91158e-29
5.36913e-30
1.39249e-30
3.52245e-31
8.86679e-32
2.22009e-32
5.47146e-33
1.31105e-33
3.02484e-34
6.67987e-35
1.40799e-35
2.83086e-36
5.43254e-37
9.9638e-38
1.74939e-38
2.94526e-39
4.76276e-40
7.40919e-41
1.11041e-41
1.60534e-42
2.24143e-43
3.02551e-44
3.95143e-45
4.99666e-46
6.12018e-47
7.26235e-48
8.34697e-49
9.28576e-50
9.98482e-51
1.03526e-51
1.03083e-52
9.92273e-54
-3.73984e-29
5.33399e-27
7.63563e-29
-2.98107e-23
-3.31191e-23
9.37603e-23
1.63453e-22
5.87094e-23
-7.97751e-23
-1.06827e-22
-5.46812e-23
-1.87282e-23
-5.48014e-24
-1.30461e-24
-2.14246e-25
-1.10587e-26
7.0457e-27
3.31409e-27
9.83797e-28
2.46377e-28
5.73179e-29
1.30098e-29
2.95579e-30
6.77385e-31
1.55603e-31
3.53468e-32
7.83145e-33
1.67506e-33
3.43766e-34
6.75042e-35
1.26754e-35
2.27728e-36
3.91955e-37
6.47241e-38
1.027e-38
1.56814e-39
2.3072e-40
3.27482e-41
4.48871e-42
5.94612e-43
7.61672e-44
9.43731e-45
1.13095e-45
1.31013e-46
1.46536e-47
1.579e-48
1.63314e-49
1.6112e-50
1.49966e-51
1.30574e-52
-3.14846e-26
9.13634e-25
7.64219e-24
-3.305e-21
-3.98972e-21
4.27419e-21
1.12294e-20
4.24716e-21
-3.02385e-21
-5.28676e-21
-2.48929e-21
-7.6899e-22
-2.32201e-22
-5.51512e-23
-8.01503e-24
5.02122e-26
4.40864e-25
1.67312e-25
4.49341e-26
1.03777e-26
2.22462e-27
4.61825e-28
9.54466e-29
1.99569e-29
4.23318e-30
9.02457e-31
1.9046e-31
3.92301e-32
7.80749e-33
1.49285e-33
2.73578e-34
4.80316e-35
8.08444e-36
1.30609e-36
2.02806e-37
3.03076e-38
4.36413e-39
6.06094e-40
8.12438e-41
1.05154e-41
1.3142e-42
1.58522e-43
1.84339e-44
2.06211e-45
2.21089e-46
2.25755e-47
2.17102e-48
1.92441e-49
1.49819e-50
8.72828e-52
-1.86414e-23
9.70559e-23
3.35835e-21
-2.11315e-19
-4.24717e-19
8.48972e-20
6.71651e-19
2.30809e-19
-7.47263e-20
-2.50231e-19
-9.97677e-20
-2.62541e-20
-9.48823e-21
-2.3177e-21
-2.99193e-22
1.65644e-23
2.10481e-23
7.10887e-24
1.78218e-24
3.88712e-25
7.86499e-26
1.52864e-26
2.92588e-27
5.62769e-28
1.10086e-28
2.18815e-29
4.36616e-30
8.6059e-31
1.65266e-31
3.06431e-32
5.45989e-33
9.33168e-34
1.52979e-34
2.40738e-35
3.64067e-36
5.2969e-37
7.42106e-38
1.00178e-38
1.30318e-39
1.633e-40
1.96876e-41
2.27826e-42
2.52009e-43
2.64547e-44
2.60123e-45
2.33416e-46
1.79598e-47
9.48923e-49
-2.29037e-50
-1.87274e-50
-5.92992e-21
5.28272e-21
1.18744e-18
-2.8158e-16
-4.37682e-17
3.04037e-18
4.38673e-17
8.83364e-18
-9.47044e-19
-1.34696e-17
-3.47446e-18
-6.63252e-19
-4.07474e-19
-9.86114e-20
-1.11822e-20
8.87058e-22
8.04215e-22
2.50881e-22
5.97279e-23
1.25188e-23
2.44082e-24
4.54647e-25
8.24756e-26
1.48613e-26
2.70754e-27
5.02748e-28
9.45975e-29
1.77681e-29
3.27799e-30
5.86757e-31
1.01162e-31
1.67415e-32
2.65663e-33
4.04321e-34
5.90586e-35
8.28505e-36
1.1166e-36
1.44525e-37
1.7941e-38
2.12998e-39
2.40568e-40
2.56013e-41
2.52028e-42
2.2049e-43
1.53032e-44
4.17873e-46
-1.19759e-46
-3.35879e-47
-6.07763e-48
-9.82087e-49
-5.3904e-16
7.65598e-15
-3.39059e-14
-3.37675e-14
2.3402e-13
8.40636e-14
7.13215e-15
-5.96584e-16
-9.25622e-15
-9.22622e-16
-8.39183e-17
-1.29407e-17
-2.07743e-17
-3.93066e-18
-3.57441e-19
3.50965e-20
2.46677e-20
7.12641e-21
1.62556e-21
3.32542e-22
6.37562e-23
1.16489e-23
2.05317e-24
3.5506e-25
6.14633e-26
1.08043e-26
1.93015e-27
3.46257e-28
6.13336e-29
1.0572e-29
1.75626e-30
2.79732e-31
4.26218e-32
6.20775e-33
8.64019e-34
1.14847e-34
1.45532e-35
1.75136e-36
1.98637e-37
2.09156e-38
1.97952e-39
1.54613e-40
6.74938e-42
-7.5582e-43
-2.86359e-43
-5.74964e-44
-9.48583e-45
-1.41012e-45
-1.95702e-46
-2.7115e-47
-8.90757e-14
7.70496e-13
-5.95485e-12
1.86463e-11
1.24853e-11
2.3656e-12
2.57767e-13
-8.89163e-12
-1.00046e-12
-2.97693e-17
4.10022e-16
-1.07693e-14
-1.27617e-15
-1.00601e-16
-5.40319e-18
1.34079e-18
5.89582e-19
1.53017e-19
3.3671e-20
6.87001e-21
1.32985e-21
2.44795e-22
4.30553e-23
7.34296e-24
1.24049e-24
2.11359e-25
3.65041e-26
6.33076e-27
1.0842e-27
1.80478e-28
2.88727e-29
4.40899e-30
6.40117e-31
8.81106e-32
1.14605e-32
1.40059e-33
1.59039e-34
1.63862e-35
1.44484e-36
8.85469e-38
-1.83586e-39
-1.92182e-39
-4.49602e-40
-8.06882e-41
-1.27841e-41
-1.87497e-42
-2.60185e-43
-3.457e-44
-4.4295e-45
-5.78361e-46
2.67381e-10
-7.35909e-10
-3.70549e-10
5.47943e-09
8.61699e-12
-2.6453e-08
-1.04586e-08
-9.24189e-10
-5.30363e-14
2.40258e-13
-2.25767e-12
-4.86488e-13
-4.91492e-15
4.13497e-16
1.53407e-16
3.86441e-17
9.43113e-18
2.14057e-18
4.70098e-19
1.0073e-19
2.06342e-20
3.97281e-21
7.19726e-22
1.24813e-22
2.12358e-23
3.61752e-24
6.20754e-25
1.06319e-25
1.78734e-26
2.9021e-27
4.49712e-28
6.59687e-29
9.10258e-30
1.17298e-30
1.39515e-31
1.4955e-32
1.36197e-33
8.51787e-35
-2.06185e-36
-2.00673e-36
-4.76132e-37
-8.68837e-38
-1.40004e-38
-2.08877e-39
-2.9498e-40
-3.99132e-41
-5.21252e-42
-6.6013e-43
-8.13251e-44
-1.02916e-44
2.56531e-08
-1.24921e-07
1.91022e-07
3.79049e-07
-1.46128e-06
-1.02338e-06
-2.08116e-07
-9.07814e-10
-5.44631e-13
8.6627e-12
-5.60149e-11
1.90204e-10
1.39168e-10
2.66253e-11
4.48471e-14
1.36201e-17
3.94137e-17
1.18539e-17
3.4225e-18
9.13225e-19
2.17665e-19
4.63152e-20
8.9915e-21
1.64449e-21
2.92553e-22
5.16986e-23
9.10519e-24
1.58029e-24
2.65831e-25
4.27028e-26
6.47864e-27
9.20281e-28
1.21272e-28
1.4613e-29
1.56314e-30
1.37318e-31
7.0508e-33
-6.63938e-34
-2.98499e-34
-6.52698e-35
-1.15641e-35
-1.83608e-36
-2.71545e-37
-3.81343e-38
-5.14153e-39
-6.70114e-40
-8.48061e-41
-1.04527e-41
-1.2573e-42
-1.5605e-43
-5.43151e-05
-2.57721e-05
0.000281471
-0.0004304
-0.00111916
0.000662397
0.00594839
0.0146417
0.0203771
0.0174857
0.008667
0.00174092
7.72149e-06
1.55823e-10
9.13455e-12
1.13464e-13
1.30541e-15
2.48892e-17
1.3189e-17
5.04987e-18
1.48282e-18
3.61926e-19
7.8283e-20
1.57938e-20
3.07919e-21
5.88695e-22
1.09934e-22
1.97867e-23
3.38517e-24
5.44545e-25
8.1681e-26
1.13303e-26
1.43557e-27
1.6209e-28
1.53318e-29
9.63655e-31
-3.43809e-32
-2.68199e-32
-6.36591e-33
-1.17164e-33
-1.90427e-34
-2.86234e-35
-4.06853e-36
-5.53793e-37
-7.2752e-38
-9.27152e-39
-1.15016e-39
-1.39211e-40
-1.64658e-41
-2.0157e-42
-0.00339284
-9.81635e-05
0.00644505
-0.012288
-0.021627
0.0294862
0.13524
0.261649
0.340159
0.317896
0.210986
0.0926569
0.0209485
0.000440906
6.58163e-10
1.03598e-12
1.06392e-14
1.05713e-16
4.28793e-17
1.89876e-17
6.28977e-18
1.75443e-18
4.43154e-19
1.05303e-19
2.38421e-20
5.12674e-21
1.03744e-21
1.95894e-22
3.43107e-23
5.55005e-24
8.25123e-25
1.11796e-25
1.35578e-26
1.40828e-27
1.08786e-28
1.5203e-30
-1.68706e-30
-4.74763e-31
-9.36005e-32
-1.58474e-32
-2.45059e-33
-3.55845e-34
-4.92631e-35
-6.56272e-36
-8.46398e-37
-1.06111e-37
-1.29671e-38
-1.54751e-39
-1.80576e-40
-2.18575e-41
0.0038401
0.00925716
0.000833706
-0.0255685
-0.0176259
0.108068
0.334797
0.579981
0.79
0.852953
0.710206
0.424651
0.165266
0.0296921
7.89517e-05
-1.16914e-18
2.55986e-17
4.16228e-16
1.79637e-16
5.29218e-17
1.61365e-17
4.90924e-18
1.58536e-18
4.83694e-19
1.32288e-19
3.22106e-20
7.02208e-21
1.37967e-21
2.45376e-22
3.95389e-23
5.74608e-24
7.41989e-25
8.1787e-26
6.76079e-27
1.41447e-28
-1.00616e-28
-3.02177e-29
-6.18071e-30
-1.07618e-30
-1.703e-31
-2.52185e-32
-3.55106e-33
-4.80195e-34
-6.2765e-35
-7.96477e-36
-9.84233e-37
-1.1868e-37
-1.39828e-38
-1.61101e-39
-1.92829e-40
0.00749606
0.0199677
0.000696399
-0.0448902
-0.0231501
0.170129
0.482352
0.750547
0.948896
1.08259
1.0406
0.764953
0.39521
0.123328
0.011469
1.39183e-09
3.1974e-11
6.60328e-13
1.21323e-14
5.05253e-17
-2.84002e-18
-1.21676e-17
-5.22591e-19
7.70729e-19
3.61881e-19
1.07506e-19
2.54307e-20
5.11589e-21
8.94871e-22
1.35986e-22
1.74434e-23
1.70032e-24
6.30423e-26
-2.35485e-26
-8.44612e-27
-1.91048e-27
-3.59972e-28
-6.09022e-29
-9.56045e-30
-1.41778e-30
-2.00862e-31
-2.73916e-32
-3.61459e-33
-4.63272e-34
-5.78198e-35
-7.03942e-36
-8.36933e-37
-9.72282e-38
-1.10388e-38
-1.30217e-39
0.00169759
0.0171719
0.0130533
-0.0484691
-0.0572531
0.141222
0.497474
0.791301
0.950019
1.05433
1.06039
0.867671
0.519162
0.203412
0.0363542
2.24688e-05
1.99878e-10
3.59232e-12
6.13608e-14
-5.94511e-15
-6.22881e-15
-6.93398e-16
-7.85407e-17
-1.049e-17
-1.29983e-18
-1.60755e-19
-2.47326e-20
-5.37264e-21
-1.37416e-21
-3.44909e-22
-7.99953e-23
-1.70305e-23
-3.35162e-24
-6.15366e-25
-1.06312e-25
-1.74117e-26
-2.72082e-27
-4.0788e-28
-5.8931e-29
-8.23741e-30
-1.11738e-30
-1.47435e-31
-1.89549e-32
-2.37706e-33
-2.90941e-34
-3.47582e-35
-4.05193e-36
-4.60596e-37
-5.09986e-38
-5.83831e-39
-0.00474026
0.00229481
0.0184769
-0.0179788
-0.0743637
0.0206076
0.320254
0.652649
0.883913
1.03625
1.06541
0.898007
0.563922
0.239507
0.0528866
0.000914414
-2.87381e-12
-3.93972e-12
-3.49544e-12
-3.04901e-12
-2.76745e-13
-3.11032e-17
-1.81227e-17
-1.0197e-17
-4.07343e-18
-1.30586e-18
-3.56343e-19
-8.56526e-20
-1.8561e-20
-3.6895e-21
-6.81965e-22
-1.18528e-22
-1.95515e-23
-3.08492e-24
-4.68671e-25
-6.89287e-26
-9.85566e-27
-1.37428e-27
-1.87253e-28
-2.49546e-29
-3.2526e-30
-4.14287e-31
-5.14851e-32
-6.22873e-33
-7.31418e-34
-8.30366e-35
-9.06435e-36
-9.43682e-37
-9.24507e-38
-8.70217e-39
-0.00183449
-0.00642433
0.00559141
0.0132216
-0.0298672
-0.0670673
0.0380866
0.324409
0.665107
0.909858
0.952747
0.80748
0.521509
0.23733
0.0614645
0.00277018
2.73406e-10
-7.26167e-10
-7.65308e-10
-1.02866e-10
5.87032e-16
1.68057e-16
1.31271e-17
5.24616e-19
-7.29883e-20
-1.99919e-20
1.38053e-22
1.73546e-21
7.79017e-22
2.36541e-22
5.82688e-23
1.24296e-23
2.37795e-24
4.18324e-25
6.92219e-26
1.10416e-26
1.74452e-27
2.80141e-28
4.64569e-29
7.95324e-30
1.38611e-30
2.41431e-31
4.13777e-32
6.90696e-33
1.11681e-33
1.7453e-34
2.63523e-35
3.84714e-36
5.43712e-37
8.10275e-38
0.00188354
0.00055327
-0.00391962
0.00553264
0.0123646
-0.0235943
-0.0580781
0.0203766
0.245028
0.496157
0.594802
0.515512
0.327372
0.143745
0.0351389
0.00120072
-1.85706e-07
-1.55115e-07
-3.03219e-08
-7.13938e-11
-3.10082e-13
1.19623e-16
3.23223e-17
1.31211e-17
4.28737e-18
1.22797e-18
3.22046e-19
7.85906e-20
1.80125e-20
3.90992e-21
8.10371e-22
1.61564e-22
3.11789e-23
5.8518e-24
1.07153e-24
1.91759e-25
3.35566e-26
5.74076e-27
9.59498e-28
1.56555e-28
2.49198e-29
3.86776e-30
5.85199e-31
8.63116e-32
1.24118e-32
1.74079e-33
2.38237e-34
3.18319e-35
4.15502e-36
5.74805e-37
-0.000528294
0.000490759
-5.30046e-05
-0.00194731
0.00253703
0.0054871
-0.0084743
-0.0250872
0.00346985
0.0862654
0.15168
0.145962
0.0916446
0.0352113
0.0054759
-1.21478e-05
-5.56618e-06
-1.52675e-06
-7.94044e-08
-6.42231e-12
2.11404e-15
4.45401e-16
7.57096e-17
1.25257e-17
2.31786e-18
5.38905e-19
1.48033e-19
4.22509e-20
1.1683e-20
3.06356e-21
7.5991e-22
1.78795e-22
4.00454e-23
8.56523e-24
1.75411e-24
3.44704e-25
6.51187e-26
1.18451e-26
2.07773e-27
3.51934e-28
5.76413e-29
9.14031e-30
1.40501e-30
2.09608e-31
3.03839e-32
4.28409e-33
5.88176e-34
7.87077e-35
1.02752e-35
1.42278e-36
7.6174e-06
-9.11038e-06
-3.64007e-06
6.05269e-05
-7.18658e-05
-0.000233386
0.000327211
0.00130635
-7.66005e-05
-0.00553881
-0.0113851
-0.0122133