/*--------------------------------*- C++ -*----------------------------------*\
| =========                 |                                                 |
| \\      /  F ield         | OpenFOAM: The Open Source CFD Toolbox           |
|  \\    /   O peration     | Version:  v2006                                 |
|   \\  /    A nd           | Website:  www.openfoam.com                      |
|    \\/     M anipulation  |                                                 |
\*---------------------------------------------------------------------------*/
FoamFile
{
    version     2.0;
    format      ascii;
    class       volScalarField;
    location    "0";
    object      p;
}
// * * * * * * * * * * * * * * * * * * * * * * * * * * * * * * * * * * * * * //

dimensions      [1 -1 -2 0 0 0 0];


internalField   nonuniform List<scalar> 
67500
(
871.201
901.472
859.359
850.824
843.313
833.742
822.248
809.028
794.359
778.384
761.235
743.068
724.033
704.282
683.957
663.198
642.133
620.884
599.562
578.269
557.096
536.123
515.423
495.058
475.08
455.536
436.461
417.888
399.839
382.332
365.381
348.995
333.177
317.928
303.246
289.127
275.562
262.543
250.059
238.099
226.648
215.693
205.221
195.215
185.66
176.541
167.843
159.55
151.646
144.117
136.947
130.122
123.627
117.449
111.573
105.987
100.677
95.6313
90.8379
86.2851
81.9618
77.8571
73.9609
70.2631
66.7543
63.4253
60.2675
57.2723
54.4318
51.7384
49.1848
46.7639
44.469
42.2939
40.2324
38.2788
36.4274
34.6732
33.0111
31.4363
29.9443
28.5308
27.1917
25.9231
24.7213
23.5828
22.5042
21.4823
20.5142
19.5969
18.7277
17.904
17.1234
16.3835
15.6821
15.017
14.3864
13.7882
13.2207
12.6822
12.1711
11.6858
11.2249
10.7871
10.371
9.97543
9.59923
9.24131
8.90064
8.57624
8.26721
7.97267
7.6918
7.42384
7.16806
6.92378
6.69034
6.46715
6.25364
6.04925
5.85349
5.66587
5.48595
5.31331
5.14754
4.98827
4.83514
4.68784
4.54604
4.40945
4.27781
4.15084
4.02832
3.91001
3.79569
3.68517
3.57827
3.47479
3.37459
3.2775
3.18337
3.09208
3.00349
2.91749
2.83395
2.75278
2.67388
2.59715
2.52252
2.44988
2.37918
2.31034
2.24329
2.17797
2.11433
2.05229
1.99182
1.93287
1.87538
1.81933
1.76465
1.71133
1.65932
1.60858
1.55909
1.51082
1.46374
1.41782
1.37303
1.32936
1.28678
1.24526
1.20479
1.16535
1.12691
1.08947
1.05299
1.01748
0.982901
0.949249
0.916505
0.884655
0.853686
0.823581
0.794329
0.765914
0.738324
0.711545
0.685564
0.660367
0.635942
0.612275
0.589352
0.567161
0.545689
0.52492
0.504842
0.485441
0.466704
0.448616
0.431163
0.414332
0.398107
0.382475
0.367421
0.352931
0.33899
0.325585
0.3127
0.300322
0.288436
0.277029
0.266085
0.255591
0.245534
0.2359
0.226676
0.217848
0.209403
0.201328
0.19361
0.186237
0.179197
0.172477
0.166065
0.159949
0.154117
0.148558
0.143261
0.138214
0.133406
0.128828
0.124468
0.120318
0.116368
0.112608
0.10903
0.105625
0.102386
0.0993046
0.0963729
0.0935839
0.0909304
0.0884055
0.0860025
0.0837149
0.0815362
0.0794603
0.0774812
0.0755934
0.0737912
0.0720695
0.0704233
0.0688479
0.0673387
0.0658916
0.0645025
0.063168
0.0618844
0.0606488
0.059458
0.0583094
0.0572003
0.0561284
0.0550915
0.0540877
0.053115
0.0521717
0.0512562
0.0503671
0.049503
0.0486624
0.0478444
0.0470477
0.0462714
0.0455145
0.0447762
0.0440556
0.043352
0.0426646
0.0419929
0.0413361
0.0406936
0.040065
0.0394497
0.0388472
0.038257
0.0376786
0.0371116
0.0365555
0.03601
0.0354747
0.0349494
0.0344337
0.0339273
0.03343
0.0329413
0.0324611
0.0319891
0.0315251
0.0310689
0.0306203
0.030179
0.0297448
0.0293176
0.0288971
0.0284831
0.0280754
0.0276741
0.0272789
0.0268897
0.0265063
0.0261287
0.0257566
0.0253899
0.0250285
0.0246722
0.0243209
0.0239746
0.023633
0.0232961
0.0229638
0.022636
0.0223127
0.0219938
0.0216792
0.0213688
0.0210626
0.0207604
0.0204621
0.0201677
0.0198771
0.0195903
0.0193073
0.019028
0.0187524
0.0184802
0.0182116
0.0179463
0.0176843
0.0174254
0.0171697
0.016917
0.0166673
0.0164207
0.0161769
0.015936
0.015698
0.0154627
0.0152302
0.0150004
0.0147733
0.0145489
0.014327
0.0141076
0.0138908
0.0136764
0.0134643
0.0132546
0.0130472
0.012842
0.0126391
0.0124383
0.0122396
0.0120429
0.0118483
0.0116558
0.0114653
0.0112768
0.0110903
0.0109058
0.0107232
0.0105425
0.0103636
0.0101866
0.0100112
0.00983755
0.00966555
0.00949518
0.00932641
0.00915921
0.00899357
0.00882946
0.00866684
0.00850569
0.00834598
0.00818769
0.0080308
0.00787527
0.0077211
0.00756826
0.00741672
0.00726645
0.00711742
0.00696959
0.00682294
0.00667745
0.00653312
0.00638993
0.00624788
0.00610696
0.00596714
0.00582839
0.00569067
0.00555393
0.00541812
0.00528321
0.00514916
0.00501596
0.00488358
0.00475202
0.00462128
0.00449133
0.00436215
0.00423373
0.00410604
0.00397905
0.00385272
0.00372705
0.00360201
0.00347759
0.00335379
0.00323061
0.00310805
0.00298609
0.00286473
0.00274395
0.00262371
0.00250398
0.00238471
0.00226587
0.0021474
0.00202927
0.00191146
0.00179395
0.00167673
0.00155978
0.00144311
0.00132671
0.00121056
0.00109466
0.00097898
0.000863485
0.000748141
0.000632907
0.000517743
0.000402611
0.000287497
0.000172331
5.75448e-05
870.831
901.143
858.961
850.424
842.903
833.293
821.744
808.471
793.749
777.72
760.519
742.301
723.219
703.424
683.061
662.268
641.175
619.903
598.565
577.26
556.08
535.106
514.409
494.05
474.083
454.553
435.495
416.941
398.913
381.43
364.504
348.143
332.351
317.13
302.475
288.383
274.846
261.855
249.398
237.464
226.039
215.111
204.663
194.681
185.15
176.054
167.378
159.107
151.224
143.714
136.563
129.757
123.279
117.118
111.258
105.687
100.392
95.3605
90.5806
86.0407
81.7296
77.6367
73.7516
70.0645
66.5658
63.2465
60.0978
57.1113
54.2792
51.5937
49.0476
46.6338
44.3458
42.1771
40.1217
38.1739
36.3281
34.5791
32.922
31.3519
29.8644
28.4551
27.1201
25.8553
24.6572
23.5221
22.4468
21.428
20.4628
19.5483
18.6818
17.8606
17.0824
16.3447
15.6454
14.9824
14.3537
13.7573
13.1916
12.6547
12.1451
11.6613
11.2018
10.7653
10.3504
9.95602
9.58092
9.22403
8.88434
8.56087
8.2527
7.95898
7.67889
7.41165
7.15656
6.91292
6.6801
6.45749
6.24451
6.04063
5.84535
5.65818
5.47869
5.30644
5.14104
4.98212
4.82933
4.68234
4.54083
4.40452
4.27314
4.14641
4.02412
3.90602
3.7919
3.68157
3.57484
3.47153
3.37148
3.27454
3.18055
3.08938
3.00091
2.91502
2.83159
2.75052
2.67171
2.59507
2.52051
2.44796
2.37733
2.30855
2.24157
2.17631
2.11271
2.05073
1.99031
1.9314
1.87396
1.81794
1.76331
1.71002
1.65804
1.60734
1.55788
1.50964
1.46258
1.41668
1.37192
1.32827
1.28571
1.24421
1.20376
1.16434
1.12592
1.0885
1.05204
1.01654
0.981978
0.948341
0.915612
0.883776
0.852821
0.82273
0.793491
0.76509
0.737513
0.710748
0.68478
0.659596
0.635184
0.61153
0.588621
0.566443
0.544984
0.524229
0.504165
0.484778
0.466054
0.44798
0.430542
0.413725
0.397514
0.381896
0.366857
0.352381
0.338455
0.325064
0.312194
0.29983
0.287958
0.276564
0.265634
0.255155
0.245111
0.235491
0.22628
0.217465
0.209032
0.20097
0.193265
0.185905
0.178877
0.172169
0.165769
0.159665
0.153845
0.148297
0.143011
0.137974
0.133177
0.128609
0.124259
0.120119
0.116177
0.112426
0.108857
0.10546
0.102229
0.099155
0.0962307
0.0934488
0.0908022
0.088284
0.0858876
0.0836063
0.0814337
0.0793637
0.0773904
0.075508
0.0737111
0.0719944
0.0703529
0.0687819
0.0672769
0.0658336
0.0644483
0.0631172
0.0618368
0.0606041
0.0594161
0.05827
0.0571633
0.0560936
0.0550587
0.0540567
0.0530857
0.052144
0.05123
0.0503423
0.0494794
0.04864
0.0478231
0.0470274
0.046252
0.045496
0.0447585
0.0440387
0.0433358
0.0426492
0.0419781
0.0413218
0.04068
0.0400519
0.0394371
0.038835
0.0382453
0.0376673
0.0371006
0.0365449
0.0359997
0.0354648
0.0349398
0.0344244
0.0339184
0.0334213
0.0329329
0.0324529
0.0319812
0.0315174
0.0310614
0.030613
0.0301719
0.029738
0.0293109
0.0288906
0.0284767
0.0280693
0.0276681
0.027273
0.0268839
0.0265007
0.0261232
0.0257512
0.0253846
0.0250233
0.0246672
0.024316
0.0239698
0.0236283
0.0232915
0.0229593
0.0226316
0.0223084
0.0219895
0.021675
0.0213647
0.0210586
0.0207564
0.0204582
0.0201639
0.0198734
0.0195867
0.0193037
0.0190245
0.0187489
0.0184769
0.0182083
0.0179431
0.0176811
0.0174223
0.0171666
0.016914
0.0166644
0.0164177
0.016174
0.0159332
0.0156952
0.01546
0.0152275
0.0149978
0.0147708
0.0145463
0.0143245
0.0141052
0.0138884
0.013674
0.013462
0.0132523
0.0130449
0.0128398
0.0126369
0.0124361
0.0122374
0.0120408
0.0118463
0.0116537
0.0114633
0.0112748
0.0110884
0.0109039
0.0107214
0.0105407
0.0103619
0.0101848
0.0100095
0.00983586
0.00966388
0.00949353
0.00932479
0.00915763
0.00899202
0.00882793
0.00866535
0.00850422
0.00834454
0.00818627
0.0080294
0.0078739
0.00771976
0.00756695
0.00741544
0.0072652
0.00711619
0.00696838
0.00682176
0.00667629
0.00653198
0.00638882
0.0062468
0.00610591
0.00596613
0.00582742
0.00568973
0.00555301
0.00541723
0.00528233
0.0051483
0.00501511
0.00488275
0.00475121
0.00462049
0.00449056
0.00436141
0.00423302
0.00410534
0.00397837
0.00385206
0.0037264
0.00360138
0.00347698
0.00335319
0.00323003
0.00310749
0.00298556
0.00286423
0.00274347
0.00262327
0.00250356
0.00238432
0.0022655
0.00214704
0.00202893
0.00191114
0.00179364
0.00167643
0.0015595
0.00144285
0.00132646
0.00121034
0.00109447
0.000978814
0.000863347
0.00074803
0.00063282
0.000517678
0.000402562
0.000287462
0.000172307
5.75354e-05
870.09
900.474
858.189
849.621
842.065
832.379
820.728
807.349
792.52
776.385
759.078
740.758
721.582
701.7
681.259
660.399
639.25
617.934
596.561
575.233
554.041
533.064
512.373
492.029
472.084
452.582
433.559
415.044
397.06
379.623
362.747
346.438
330.699
315.532
300.933
286.896
273.414
260.478
248.075
236.195
224.823
213.945
203.548
193.615
184.131
175.081
166.449
158.22
150.379
142.909
135.796
129.026
122.584
116.456
110.628
105.088
99.8229
94.8196
90.0666
85.5524
81.2658
77.1963
73.3335
69.6676
66.1892
62.8891
59.7588
56.7898
53.9743
51.3046
48.7735
46.374
44.0995
41.9437
39.9006
37.9644
36.1297
34.3912
32.744
31.1833
29.7048
28.3041
26.9771
25.7199
24.529
23.4009
22.3321
21.3195
20.3602
19.4513
18.5901
17.7739
17.0005
16.2673
15.5723
14.9134
14.2885
13.6957
13.1334
12.5998
12.0933
11.6124
11.1557
10.7217
10.3093
9.91726
9.54435
9.18954
8.8518
8.53017
8.22374
7.93165
7.6531
7.38733
7.13361
6.89126
6.65966
6.43819
6.22629
6.02343
5.8291
5.64283
5.46418
5.29273
5.12808
4.96987
4.81774
4.67136
4.53044
4.39468
4.2638
4.13757
4.01572
3.89805
3.78433
3.67438
3.568
3.46502
3.36528
3.26862
3.17491
3.084
2.99577
2.9101
2.82688
2.746
2.66738
2.59091
2.51651
2.44411
2.37362
2.30498
2.23812
2.17298
2.10949
2.04762
1.98729
1.92847
1.87112
1.81518
1.76062
1.7074
1.65549
1.60485
1.55545
1.50727
1.46026
1.41442
1.3697
1.3261
1.28358
1.24212
1.20171
1.16233
1.12395
1.08655
1.05013
1.01466
0.980133
0.946525
0.913825
0.882019
0.851091
0.821028
0.791816
0.763442
0.735892
0.709153
0.683211
0.658054
0.633668
0.610041
0.587158
0.565007
0.543575
0.522847
0.50281
0.483451
0.464755
0.446709
0.429299
0.41251
0.396329
0.380739
0.365729
0.351282
0.337384
0.324022
0.31118
0.298845
0.287002
0.275636
0.264734
0.254281
0.244265
0.234672
0.225487
0.216699
0.208292
0.200256
0.192576
0.185241
0.178237
0.171554
0.165178
0.159097
0.1533
0.147775
0.142511
0.137496
0.13272
0.128172
0.123842
0.11972
0.115797
0.112064
0.108511
0.105131
0.101915
0.0988561
0.0959464
0.0931787
0.090546
0.0880413
0.0856579
0.0833893
0.081229
0.0791709
0.077209
0.0753375
0.073551
0.0718443
0.0702122
0.0686501
0.0671535
0.0657181
0.0643401
0.0630158
0.0617419
0.0605151
0.0593326
0.0581915
0.0570895
0.0560241
0.0549932
0.0539949
0.0530273
0.0520888
0.0511777
0.0502927
0.0494323
0.0485953
0.0477805
0.0469869
0.0462134
0.0454592
0.0447233
0.0440051
0.0433037
0.0426183
0.0419485
0.0412934
0.0406526
0.0400256
0.0394117
0.0388106
0.0382217
0.0376445
0.0370786
0.0365236
0.0359792
0.035445
0.0349206
0.0344059
0.0339005
0.0334039
0.0329161
0.0324366
0.0319653
0.031502
0.0310465
0.0305985
0.0301579
0.0297243
0.0292976
0.0288776
0.0284641
0.028057
0.0276561
0.0272613
0.0268725
0.0264896
0.0261123
0.0257406
0.0253742
0.0250131
0.0246572
0.0243062
0.0239601
0.0236188
0.0232822
0.0229502
0.0226227
0.0222996
0.021981
0.0216667
0.0213566
0.0210506
0.0207486
0.0204505
0.0201563
0.019866
0.0195794
0.0192966
0.0190176
0.0187421
0.0184702
0.0182017
0.0179365
0.0176747
0.017416
0.0171604
0.0169079
0.0166584
0.0164119
0.0161683
0.0159276
0.0156897
0.0154546
0.0152222
0.0149926
0.0147656
0.0145413
0.0143195
0.0141002
0.0138835
0.0136691
0.0134572
0.0132476
0.0130403
0.0128353
0.0126324
0.0124317
0.0122331
0.0120365
0.0118421
0.0116496
0.0114593
0.0112709
0.0110845
0.0109001
0.0107176
0.010537
0.0103583
0.0101813
0.010006
0.00983243
0.0096605
0.00949021
0.00932153
0.00915443
0.00898888
0.00882486
0.00866233
0.00850126
0.00834163
0.00818342
0.0080266
0.00787115
0.00771707
0.00756431
0.00741286
0.00726267
0.00711372
0.00696598
0.00681941
0.006674
0.00652975
0.00638665
0.00624469
0.00610386
0.00596414
0.00582548
0.00568783
0.00555116
0.00541542
0.00528056
0.00514656
0.00501341
0.00488109
0.0047496
0.00461891
0.00448903
0.00435993
0.00423158
0.00410395
0.00397701
0.00385075
0.00372513
0.00360014
0.00347578
0.00335204
0.00322893
0.00310643
0.00298455
0.00286326
0.00274255
0.00262239
0.00250273
0.00238352
0.00226473
0.00214631
0.00202824
0.00191047
0.00179301
0.00167583
0.00155894
0.00144233
0.00132599
0.00120991
0.00109408
0.000978472
0.000863052
0.000747781
0.000632615
0.000517513
0.000402436
0.000287371
0.000172252
5.75168e-05
868.968
899.454
857.045
848.403
840.781
830.981
819.182
805.644
790.655
774.358
756.893
738.421
719.102
699.09
678.533
657.573
636.341
614.958
593.537
572.176
550.966
529.987
509.307
488.987
469.076
449.618
430.648
412.192
394.274
376.909
360.107
343.877
328.219
313.134
298.618
284.665
271.266
258.413
246.092
234.292
222.999
212.199
201.877
192.017
182.604
173.623
165.058
156.893
149.113
141.703
134.647
127.932
121.542
115.465
109.686
104.192
98.9707
94.0097
89.297
84.8213
80.5715
76.537
72.7076
69.0736
65.6254
62.3543
59.2514
56.3086
53.5179
50.8719
48.3633
45.9852
43.731
41.5946
39.5698
37.651
35.8328
34.1099
32.4776
30.9311
29.466
28.0779
26.763
25.5174
24.3373
23.2195
22.1605
21.1572
20.2067
19.3061
18.4528
17.6442
16.8779
16.1515
15.4629
14.81
14.1909
13.6036
13.0464
12.5177
12.0158
11.5393
11.0866
10.6566
10.2479
9.85929
9.48966
9.13794
8.80312
8.48425
8.18042
7.89078
7.61454
7.35094
7.09927
6.85886
6.62907
6.40932
6.19903
5.99769
5.80479
5.61987
5.44249
5.27222
5.10869
4.95153
4.80039
4.65494
4.51489
4.37995
4.24985
4.12433
4.00317
3.88613
3.77301
3.66362
3.55776
3.45528
3.356
3.25978
3.16647
3.07594
2.98806
2.90273
2.81982
2.73924
2.66089
2.58468
2.51053
2.43835
2.36808
2.29963
2.23296
2.16799
2.10467
2.04295
1.98277
1.92409
1.86686
1.81104
1.75659
1.70348
1.65167
1.60112
1.55182
1.50371
1.45679
1.41102
1.36638
1.32284
1.28039
1.23899
1.19864
1.15931
1.12098
1.08364
1.04727
1.01185
0.977365
0.943803
0.911147
0.879383
0.848497
0.818476
0.789304
0.76097
0.73346
0.70676
0.680858
0.65574
0.631394
0.607806
0.584964
0.562853
0.541461
0.520774
0.500778
0.48146
0.462806
0.444803
0.427435
0.410689
0.39455
0.379004
0.364036
0.349633
0.335778
0.322459
0.309661
0.297368
0.285567
0.274243
0.263383
0.252972
0.242997
0.233444
0.224299
0.21555
0.207182
0.199184
0.191542
0.184244
0.177278
0.170631
0.164291
0.158246
0.152483
0.146992
0.141761
0.136779
0.132035
0.127517
0.123217
0.119124
0.115228
0.11152
0.107993
0.104637
0.101445
0.0984084
0.0955206
0.0927742
0.0901621
0.0876776
0.0853138
0.0830643
0.0809225
0.0788822
0.0769374
0.0750824
0.0733116
0.0716198
0.0700018
0.0684531
0.066969
0.0655454
0.0641784
0.0628644
0.0616
0.0603821
0.0592077
0.0580742
0.0569792
0.0559202
0.0548953
0.0539025
0.05294
0.0520061
0.0510994
0.0502184
0.0493618
0.0485283
0.0477168
0.0469262
0.0461556
0.045404
0.0446707
0.0439547
0.0432555
0.0425722
0.0419042
0.0412509
0.0406117
0.0399862
0.0393738
0.038774
0.0381864
0.0376104
0.0370457
0.0364918
0.0359485
0.0354153
0.034892
0.0343782
0.0338736
0.0333779
0.0328908
0.0324121
0.0319416
0.0314789
0.0310241
0.0305768
0.0301367
0.0297038
0.0292776
0.0288582
0.0284452
0.0280385
0.0276381
0.0272438
0.0268554
0.0264729
0.026096
0.0257246
0.0253585
0.0249978
0.0246421
0.0242915
0.0239457
0.0236047
0.0232683
0.0229366
0.0226094
0.0222866
0.0219682
0.0216542
0.0213443
0.0210386
0.0207368
0.020439
0.0201451
0.0198549
0.0195686
0.019286
0.0190071
0.0187319
0.0184601
0.0181918
0.0179268
0.0176651
0.0174065
0.0171511
0.0168988
0.0166495
0.0164031
0.0161597
0.0159192
0.0156814
0.0154465
0.0152143
0.0149847
0.0147579
0.0145336
0.014312
0.0140928
0.0138761
0.0136619
0.01345
0.0132406
0.0130334
0.0128284
0.0126257
0.0124251
0.0122266
0.0120302
0.0118358
0.0116435
0.0114532
0.011265
0.0110787
0.0108944
0.0107121
0.0105316
0.0103529
0.010176
0.0100008
0.00982727
0.00965543
0.00948523
0.00931664
0.00914963
0.00898418
0.00882025
0.00865781
0.00849682
0.00833727
0.00817914
0.0080224
0.00786703
0.00771303
0.00756036
0.00740899
0.00725889
0.00711003
0.00696237
0.00681589
0.00667057
0.00652641
0.00638341
0.00624154
0.0061008
0.00596115
0.00582256
0.00568499
0.00554838
0.00541269
0.00527789
0.00514395
0.00501086
0.0048786
0.00474717
0.00461656
0.00448674
0.0043577
0.00422942
0.00410185
0.00397498
0.00384878
0.00372322
0.0035983
0.003474
0.00335033
0.00322728
0.00310485
0.00298304
0.00286182
0.00274118
0.00262107
0.00250147
0.00238232
0.00226358
0.00214521
0.00202719
0.00190948
0.00179207
0.00167495
0.00155811
0.00144155
0.00132528
0.00120926
0.0010935
0.000977959
0.000862607
0.000747401
0.000632299
0.000517258
0.000402239
0.000287231
0.000172167
5.74886e-05
867.448
898.064
855.516
846.754
839.029
829.075
817.079
803.331
788.127
771.613
753.935
735.259
715.749
695.564
674.855
653.763
632.422
610.954
589.469
568.067
546.837
525.857
505.195
484.908
465.046
445.65
426.752
408.379
390.551
373.282
356.583
340.458
324.909
309.935
295.531
281.69
268.403
255.66
243.449
231.757
220.57
209.873
199.651
189.889
180.572
171.682
163.206
155.127
147.429
140.098
133.119
126.477
120.157
114.147
108.432
103
97.8375
92.9327
88.2738
83.8493
79.6484
75.6605
71.8755
68.2838
64.876
61.6433
58.5769
55.6689
52.9114
50.2968
47.8181
45.4684
43.2413
41.1305
39.1301
37.2344
35.4381
33.7362
32.1236
30.5959
29.1486
27.7775
26.4786
25.2482
24.0826
22.9784
21.9324
20.9415
20.0027
19.1133
18.2705
17.4719
16.715
15.9976
15.3175
14.6727
14.0612
13.4812
12.9308
12.4086
11.9128
11.4421
10.995
10.5701
10.1663
9.78229
9.41702
9.06942
8.73848
8.42326
8.12288
7.8365
7.56333
7.30262
7.05368
6.81583
6.58846
6.37098
6.16284
5.96351
5.77251
5.58938
5.41367
5.24499
5.08295
4.92718
4.77735
4.63314
4.49425
4.36039
4.23131
4.10675
3.98649
3.8703
3.75797
3.64932
3.54417
3.44233
3.34367
3.24802
3.15525
3.06523
2.97783
2.89293
2.81044
2.73025
2.65227
2.5764
2.50257
2.43069
2.3607
2.29252
2.22609
2.16136
2.09826
2.03674
1.97675
1.91825
1.86119
1.80553
1.75123
1.69826
1.64659
1.59617
1.54698
1.49898
1.45217
1.4065
1.36195
1.3185
1.27613
1.23482
1.19455
1.15529
1.11704
1.07976
1.04346
1.0081
0.973677
0.940175
0.907577
0.87587
0.84504
0.815073
0.785956
0.757675
0.730218
0.703571
0.677721
0.652656
0.628362
0.604827
0.582037
0.55998
0.538641
0.518008
0.498068
0.478805
0.460207
0.44226
0.424949
0.408259
0.392178
0.376689
0.36178
0.347434
0.333638
0.320376
0.307635
0.295399
0.283655
0.272387
0.261583
0.251227
0.241307
0.231807
0.222716
0.214019
0.205703
0.197756
0.190165
0.182917
0.176
0.169401
0.163109
0.157111
0.151395
0.14595
0.140764
0.135825
0.131123
0.126646
0.122385
0.11833
0.11447
0.110798
0.107304
0.10398
0.100819
0.0978125
0.0949538
0.0922357
0.0896512
0.0871936
0.084856
0.0826319
0.0805148
0.0784983
0.0765765
0.0747434
0.0729936
0.0713217
0.0697226
0.0681917
0.0667243
0.0653164
0.0639641
0.0626637
0.0614119
0.0602057
0.0590422
0.0579187
0.0568329
0.0557825
0.0547654
0.0537799
0.0528242
0.0518966
0.0509956
0.05012
0.0492683
0.0484395
0.0476323
0.0468457
0.0460789
0.0453308
0.0446007
0.0438878
0.0431914
0.0425108
0.0418452
0.0411943
0.0405573
0.0399338
0.0393233
0.0387254
0.0381394
0.0375651
0.0370019
0.0364496
0.0359076
0.0353758
0.0348538
0.0343413
0.0338379
0.0333433
0.0328572
0.0323795
0.0319099
0.0314483
0.0309943
0.0305478
0.0301086
0.0296764
0.029251
0.0288323
0.02842
0.028014
0.0276142
0.0272205
0.0268327
0.0264506
0.0260742
0.0257032
0.0253377
0.0249773
0.0246221
0.0242719
0.0239265
0.0235858
0.0232499
0.0229185
0.0225916
0.0222693
0.0219512
0.0216375
0.021328
0.0210226
0.0207212
0.0204237
0.02013
0.0198402
0.0195542
0.0192719
0.0189933
0.0187182
0.0184467
0.0181786
0.0179138
0.0176523
0.0173939
0.0171387
0.0168866
0.0166376
0.0163915
0.0161483
0.015908
0.0156704
0.0154357
0.0152037
0.0149743
0.0147476
0.0145235
0.0143019
0.0140829
0.0138663
0.0136522
0.0134405
0.0132312
0.0130241
0.0128193
0.0126167
0.0124162
0.0122179
0.0120216
0.0118274
0.0116353
0.0114452
0.0112571
0.011071
0.0108869
0.0107047
0.0105243
0.0103457
0.0101689
0.00999379
0.0098204
0.00964867
0.00947859
0.00931012
0.00914324
0.00897791
0.0088141
0.00865177
0.0084909
0.00833146
0.00817343
0.0080168
0.00786154
0.00770764
0.00755508
0.00740383
0.00725385
0.0071051
0.00695756
0.0068112
0.00666601
0.00652197
0.00637909
0.00623734
0.00609671
0.00595717
0.00581867
0.00568119
0.00554466
0.00540905
0.00527433
0.00514047
0.00500746
0.00487528
0.00474394
0.00461341
0.00448369
0.00435473
0.00422653
0.00409905
0.00397227
0.00384615
0.00372068
0.00359584
0.00347164
0.00334806
0.0032251
0.00310276
0.00298103
0.0028599
0.00273934
0.00261931
0.00249978
0.00238071
0.00226204
0.00214374
0.00202579
0.00190815
0.00179081
0.00167376
0.001557
0.00144053
0.00132433
0.00120841
0.00109273
0.000977277
0.000862011
0.000746891
0.000631872
0.000516912
0.000401971
0.000287041
0.000172053
5.74505e-05
865.505
896.28
853.584
844.649
836.78
826.629
814.388
800.375
784.899
768.111
750.164
731.233
711.485
691.085
670.186
648.932
627.459
605.887
584.327
562.878
541.628
520.652
500.017
479.777
459.98
440.664
421.86
403.594
385.881
368.736
352.167
336.177
320.766
305.933
291.67
277.971
264.825
252.222
240.149
228.592
217.538
206.97
196.875
187.235
178.036
169.262
160.897
152.924
145.33
138.098
131.214
124.663
118.431
112.505
106.87
101.515
96.4259
91.5912
86.9992
82.6386
78.4987
74.5689
70.8393
67.3004
63.9429
60.7579
57.7372
54.8725
52.1562
49.5808
47.1394
44.8251
42.6316
40.5528
38.5827
36.7159
34.947
33.271
31.6831
30.1787
28.7536
27.4035
26.1246
24.9131
23.7655
22.6784
21.6486
20.6731
19.7489
18.8732
18.0436
17.2574
16.5123
15.8061
15.1367
14.5019
13.8999
13.3289
12.7871
12.2729
11.7848
11.3212
10.8809
10.4625
10.0648
9.68653
9.32668
8.98419
8.65808
8.34742
8.05134
7.76901
7.49965
7.24254
6.99698
6.76233
6.53796
6.32331
6.11784
5.92102
5.73238
5.55146
5.37785
5.21113
5.05093
4.8969
4.7487
4.60602
4.46857
4.33607
4.20826
4.08489
3.96575
3.8506
3.73926
3.63154
3.52725
3.42623
3.32833
3.2334
3.14129
3.0519
2.96509
2.88075
2.79877
2.71907
2.64154
2.56609
2.49266
2.42116
2.35151
2.28366
2.21754
2.1531
2.09027
2.029
1.96925
1.91097
1.85412
1.79866
1.74455
1.69176
1.64024
1.58998
1.54094
1.49308
1.4464
1.40085
1.35642
1.31309
1.27083
1.22961
1.18944
1.15027
1.11211
1.07492
1.03869
1.00342
0.969071
0.935643
0.903118
0.871482
0.840721
0.810822
0.781772
0.753557
0.726166
0.699584
0.6738
0.6488
0.624571
0.601102
0.578378
0.556388
0.535116
0.514551
0.494679
0.475485
0.456957
0.43908
0.42184
0.405222
0.389212
0.373796
0.358959
0.344685
0.330961
0.317772
0.305103
0.292939
0.281266
0.270069
0.259334
0.249047
0.239195
0.229763
0.220738
0.212106
0.203855
0.195972
0.188444
0.181259
0.174403
0.167866
0.161634
0.155695
0.150037
0.144649
0.139519
0.134634
0.129985
0.12556
0.121348
0.11734
0.113526
0.109897
0.106445
0.103161
0.100038
0.0970693
0.0942468
0.091564
0.089014
0.08659
0.0842852
0.0820929
0.0800067
0.0780201
0.0761271
0.0743216
0.072598
0.0709511
0.0693757
0.0678669
0.0664205
0.0650321
0.063698
0.0624145
0.0611785
0.0599868
0.0588367
0.0577256
0.0566513
0.0556115
0.0546042
0.0536278
0.0526803
0.0517605
0.0508667
0.0499977
0.0491522
0.0483291
0.0475272
0.0467456
0.0459834
0.0452397
0.0445136
0.0438045
0.0431116
0.0424343
0.0417718
0.0411237
0.0404895
0.0398685
0.0392604
0.0386647
0.038081
0.0375087
0.0369474
0.0363969
0.0358568
0.0353267
0.0348063
0.0342952
0.0337933
0.0333001
0.0328153
0.0323389
0.0318705
0.03141
0.0309571
0.0305117
0.0300735
0.0296422
0.0292178
0.0287999
0.0283885
0.0279833
0.0275843
0.0271913
0.0268042
0.0264228
0.026047
0.0256766
0.0253116
0.0249518
0.0245971
0.0242474
0.0239025
0.0235623
0.0232269
0.0228959
0.0225695
0.0222476
0.02193
0.0216168
0.0213077
0.0210026
0.0207016
0.0204045
0.0201113
0.0198218
0.0195362
0.0192542
0.0189759
0.0187012
0.0184299
0.018162
0.0178975
0.0176363
0.0173782
0.0171233
0.0168715
0.0166227
0.0163769
0.016134
0.015894
0.0156567
0.0154222
0.0151904
0.0149612
0.0147347
0.0145107
0.0142894
0.0140705
0.0138541
0.0136401
0.0134286
0.0132194
0.0130125
0.0128079
0.0126055
0.0124052
0.0122071
0.012011
0.011817
0.0116251
0.0114352
0.0112473
0.0110614
0.0108775
0.0106954
0.0105151
0.0103367
0.01016
0.00998506
0.00981181
0.00964022
0.00947029
0.00930198
0.00913525
0.00897008
0.00880642
0.00864424
0.00848351
0.0083242
0.0081663
0.0080098
0.00785468
0.00770092
0.0075485
0.00739739
0.00724755
0.00709895
0.00695156
0.00680535
0.00666031
0.00651642
0.00637369
0.00623208
0.00609159
0.00595218
0.0058138
0.00567642
0.00554
0.00540449
0.00526987
0.00513611
0.0050032
0.00487114
0.0047399
0.00460949
0.00447987
0.00435103
0.00422293
0.00409556
0.00396888
0.00384287
0.00371751
0.00359278
0.00346869
0.00334522
0.00322238
0.00310015
0.00297853
0.00285751
0.00273704
0.00261711
0.00249768
0.00237869
0.00226011
0.0021419
0.00202403
0.00190648
0.00178924
0.00167229
0.00155563
0.00143925
0.00132316
0.00120734
0.00109177
0.000976426
0.000861267
0.000746252
0.000631336
0.000516475
0.000401633
0.000286799
0.000171908
5.74019e-05
863.106
894.071
851.219
842.055
834
823.606
811.067
796.73
780.922
763.802
745.531
726.29
706.258
685.601
664.477
643.034
621.406
599.715
578.073
556.575
535.307
514.344
493.747
473.57
453.857
434.644
415.96
397.825
380.257
363.265
346.855
331.03
315.788
301.126
287.035
273.508
260.533
248.099
236.193
224.8
213.905
203.494
193.55
184.059
175.002
166.366
158.134
150.29
142.819
135.706
128.936
122.495
116.368
110.542
105.004
99.7403
94.7391
89.9884
85.4764
81.1923
77.1252
73.2649
69.6016
66.1257
62.8283
59.7006
56.7343
53.9214
51.2544
48.7259
46.329
44.057
41.9038
39.8631
37.9293
36.0969
34.3606
32.7156
31.1571
29.6807
28.282
26.9571
25.702
24.5132
23.387
22.3203
21.3099
20.3527
19.4459
18.5868
17.7728
17.0015
16.2705
15.5776
14.9208
14.298
13.7074
13.1472
12.6155
12.111
11.632
11.1771
10.7449
10.3342
9.9437
9.57232
9.21895
8.88257
8.56222
8.25699
7.96603
7.68852
7.42372
7.17089
6.92938
6.69853
6.47775
6.26648
6.06418
5.87035
5.68452
5.50626
5.33513
5.17075
5.01276
4.86079
4.71454
4.57369
4.43795
4.30706
4.18077
4.05882
3.94101
3.82712
3.71695
3.61033
3.50707
3.40702
3.31003
3.21594
3.12464
3.03599
2.94988
2.8662
2.78484
2.70571
2.62872
2.55378
2.48082
2.40976
2.34054
2.27308
2.20732
2.14322
2.08071
2.01975
1.96028
1.90227
1.84567
1.79045
1.73656
1.68397
1.63266
1.58258
1.53371
1.48602
1.43949
1.39409
1.3498
1.3066
1.26447
1.22338
1.18331
1.14426
1.1062
1.06911
1.03299
0.997802
0.963548
0.930209
0.89777
0.866218
0.83554
0.805722
0.776752
0.748617
0.721304
0.6948
0.669094
0.644172
0.620022
0.596631
0.573987
0.552076
0.530885
0.510401
0.490611
0.4715
0.453056
0.435263
0.418108
0.401576
0.385653
0.370324
0.355573
0.341387
0.327751
0.314648
0.302066
0.289988
0.2784
0.267288
0.256637
0.246433
0.236662
0.227311
0.218366
0.209813
0.20164
0.193834
0.186381
0.179271
0.172489
0.166025
0.159865
0.153997
0.14841
0.143091
0.138028
0.133209
0.128624
0.12426
0.120107
0.116156
0.112396
0.10882
0.105417
0.102181
0.0991045
0.0961799
0.0934007
0.0907601
0.0882513
0.0858676
0.0836022
0.0814483
0.0793993
0.0774487
0.0755903
0.0738181
0.0721262
0.0705093
0.0689623
0.0674803
0.0660588
0.0646938
0.0633814
0.0621181
0.0609008
0.0597264
0.0585923
0.057496
0.0564353
0.0554081
0.0544125
0.0534467
0.0525092
0.0515985
0.0507132
0.0498521
0.0490139
0.0481976
0.047402
0.0466263
0.0458696
0.045131
0.0444097
0.0437051
0.0430163
0.0423429
0.0416841
0.0410394
0.0404084
0.0397905
0.0391853
0.0385923
0.0380111
0.0374412
0.0368823
0.036334
0.035796
0.0352679
0.0347494
0.0342402
0.0337399
0.0332483
0.0327652
0.0322902
0.0318232
0.0313641
0.0309126
0.0304684
0.0300314
0.0296013
0.0291779
0.0287611
0.0283507
0.0279465
0.0275484
0.0271563
0.02677
0.0263894
0.0260143
0.0256447
0.0252804
0.0249213
0.0245672
0.0242181
0.0238738
0.0235342
0.0231993
0.0228689
0.0225431
0.0222217
0.0219046
0.0215919
0.0212833
0.0209787
0.0206782
0.0203816
0.0200888
0.0197998
0.0195146
0.019233
0.0189551
0.0186807
0.0184098
0.0181422
0.017878
0.0176171
0.0173594
0.0171048
0.0168534
0.0166049
0.0163595
0.0161169
0.0158771
0.0156402
0.015406
0.0151744
0.0149455
0.0147192
0.0144955
0.0142743
0.0140556
0.0138394
0.0136257
0.0134143
0.0132054
0.0129987
0.0127943
0.0125921
0.012392
0.0121941
0.0119983
0.0118045
0.0116128
0.0114232
0.0112356
0.0110499
0.0108661
0.0106842
0.0105042
0.0103259
0.0101494
0.00997459
0.0098015
0.0096301
0.00946035
0.00929222
0.00912568
0.00896069
0.00879721
0.0086352
0.00847464
0.00831549
0.00815776
0.00800142
0.00784646
0.00769287
0.00754061
0.00738967
0.00724
0.00709158
0.00694436
0.00679833
0.00665347
0.00650977
0.00636721
0.00622577
0.00608544
0.00594618
0.00580794
0.0056707
0.0055344
0.00539901
0.00526451
0.00513088
0.0049981
0.00486616
0.00473506
0.00460477
0.00447529
0.00434658
0.00421861
0.00409137
0.00396482
0.00383894
0.00371371
0.00358912
0.00346516
0.00334183
0.00321912
0.00309703
0.00297554
0.00285463
0.00273429
0.00261447
0.00249514
0.00237626
0.00225778
0.00213968
0.00202192
0.00190449
0.00178735
0.00167052
0.00155398
0.00143773
0.00132176
0.00120607
0.00109063
0.000975409
0.000860376
0.000745484
0.000630689
0.000515948
0.000401223
0.000286505
0.000171731
5.73428e-05
860.205
891.393
848.383
838.93
830.642
819.956
807.061
792.339
776.137
758.623
739.97
720.368
700.003
679.049
657.668
636.009
614.209
592.39
570.66
549.115
527.837
506.897
486.355
466.261
446.656
427.571
409.033
391.061
373.666
356.858
340.64
325.013
309.972
295.512
281.626
268.302
255.529
243.295
231.584
220.383
209.677
199.448