/*--------------------------------*- C++ -*----------------------------------*\
| =========                 |                                                 |
| \\      /  F ield         | OpenFOAM: The Open Source CFD Toolbox           |
|  \\    /   O peration     | Version:  v2006                                 |
|   \\  /    A nd           | Website:  www.openfoam.com                      |
|    \\/     M anipulation  |                                                 |
\*---------------------------------------------------------------------------*/
FoamFile
{
    version     2.0;
    format      ascii;
    class       volScalarField;
    location    "0";
    object      alpha.water;
}
// * * * * * * * * * * * * * * * * * * * * * * * * * * * * * * * * * * * * * //

dimensions      [0 0 0 0 0 0 0];


internalField   nonuniform List<scalar> 
67500
(
0.164264
0.182017
0.177412
0.147385
0.133068
0.140644
0.139436
0.141687
0.154747
0.161136
0.165024
0.168495
0.171755
0.173642
0.175781
0.177924
0.180188
0.182727
0.184388
0.185374
0.189127
0.194297
0.196293
0.196163
0.195883
0.195562
0.195587
0.196024
0.196452
0.196618
0.196633
0.196633
0.196633
0.196633
0.196633
0.196633
0.196633
0.196633
0.196633
0.196633
0.196633
0.196633
0.196633
0.196633
0.196633
0.196633
0.196633
0.196633
0.196633
0.196633
0.196633
0.196633
0.196633
0.196633
0.196633
0.196633
0.196633
0.196633
0.196633
0.196633
0.196633
0.196633
0.196633
0.196633
0.196633
0.196633
0.196633
0.196633
0.196633
0.196633
0.196633
0.196633
0.196633
0.196633
0.196633
0.196633
0.196633
0.196633
0.196633
0.196633
0.196633
0.196633
0.196633
0.196633
0.196633
0.196633
0.196633
0.196633
0.196633
0.196633
0.196633
0.196633
0.196633
0.196633
0.196633
0.196633
0.196633
0.196633
0.196633
0.196633
0.196633
0.196633
0.196633
0.196633
0.196633
0.196633
0.196633
0.196633
0.196633
0.196633
0.196633
0.196633
0.196633
0.196633
0.196633
0.196633
0.196633
0.196633
0.196633
0.196633
0.196633
0.196633
0.196633
0.196633
0.196633
0.196633
0.196633
0.196633
0.196633
0.196633
0.196633
0.196633
0.196633
0.196633
0.196633
0.196633
0.196633
0.196633
0.196633
0.196633
0.196633
0.196633
0.196633
0.196633
0.196633
0.196633
0.196633
0.196633
0.196633
0.196633
0.196633
0.196633
0.196633
0.196633
0.196633
0.196633
0.196633
0.196633
0.196633
0.196633
0.196633
0.196633
0.196633
0.196633
0.196633
0.196633
0.196633
0.196633
0.196633
0.196633
0.196633
0.196633
0.196633
0.196633
0.196633
0.196633
0.196633
0.196633
0.196633
0.196633
0.196633
0.196633
0.196633
0.196633
0.196633
0.196633
0.196633
0.196633
0.196633
0.196633
0.196633
0.196633
0.196633
0.196633
0.196633
0.196633
0.196633
0.196633
0.196633
0.196633
0.196633
0.196633
0.196633
0.196633
0.196633
0.196633
0.196633
0.196633
0.196633
0.196633
0.196633
0.196633
0.196633
0.196633
0.196633
0.196633
0.196633
0.196633
0.196633
0.196633
0.196633
0.196633
0.196633
0.196633
0.196633
0.196633
0.196633
0.196633
0.196633
0.196633
0.196633
0.196633
0.196633
0.196633
0.196633
0.196633
0.196633
0.196633
0.196633
0.196633
0.196633
0.196633
0.196633
0.196633
0.196633
0.196633
0.196633
0.196633
0.196633
0.196633
0.196633
0.196633
0.196633
0.196633
0.196633
0.196633
0.196633
0.196633
0.196633
0.196633
0.196633
0.196633
0.196633
0.196633
0.196633
0.196633
0.196633
0.196633
0.196633
0.196633
0.196633
0.196633
0.196633
0.196633
0.196633
0.196633
0.196633
0.196633
0.196633
0.196633
0.196633
0.196633
0.196633
0.196633
0.196633
0.196633
0.196633
0.196633
0.196633
0.196633
0.196633
0.196633
0.196633
0.196633
0.196633
0.196633
0.196633
0.196633
0.196633
0.196633
0.196633
0.196633
0.196633
0.196633
0.196633
0.196633
0.196633
0.196633
0.196633
0.196633
0.196633
0.196633
0.196633
0.196633
0.196633
0.196633
0.196633
0.196633
0.196633
0.196633
0.196633
0.196633
0.196633
0.196633
0.196633
0.196633
0.196633
0.196633
0.196633
0.196633
0.196633
0.196633
0.196633
0.196633
0.196633
0.196633
0.196633
0.196633
0.196633
0.196633
0.196633
0.196633
0.196633
0.196633
0.196633
0.196633
0.196633
0.196633
0.196633
0.196633
0.196633
0.196633
0.196633
0.196633
0.196633
0.196633
0.196633
0.196633
0.196633
0.196633
0.196633
0.196633
0.196633
0.196633
0.196633
0.196633
0.196633
0.196633
0.196633
0.196633
0.196633
0.196633
0.196633
0.196633
0.196633
0.196633
0.196633
0.196633
0.196633
0.196633
0.196633
0.196633
0.196633
0.196633
0.196633
0.196633
0.196633
0.196633
0.196633
0.196633
0.196633
0.196633
0.196633
0.196633
0.196633
0.196633
0.196633
0.196633
0.196633
0.196633
0.196633
0.196633
0.196633
0.196633
0.196633
0.196633
0.196633
0.196633
0.196633
0.196633
0.196633
0.196633
0.196633
0.196633
0.196633
0.196633
0.196633
0.196633
0.196633
0.196633
0.196633
0.196633
0.196633
0.196633
0.196633
0.196633
0.196633
0.196633
0.196633
0.196633
0.196633
0.196633
0.196633
0.196633
0.196633
0.196633
0.196633
0.196633
0.196633
0.196633
0.196633
0.196633
0.196633
0.196633
0.196633
0.196633
0.196633
0.196633
0.196633
0.196633
0.159468
0.177214
0.141729
0.108792
0.0927702
0.0976318
0.107034
0.121718
0.126741
0.124285
0.124773
0.125738
0.12929
0.129675
0.129038
0.132418
0.137375
0.1433
0.149844
0.156142
0.162099
0.167962
0.173662
0.17882
0.181114
0.182161
0.185468
0.189526
0.193609
0.196379
0.196633
0.196633
0.196633
0.196633
0.196633
0.196633
0.196633
0.196633
0.196633
0.196633
0.196632
0.196626
0.19662
0.196619
0.196622
0.196626
0.19662
0.1966
0.196569
0.196539
0.196517
0.196509
0.196513
0.196527
0.196545
0.196564
0.196581
0.196595
0.196606
0.196613
0.196617
0.19662
0.196621
0.196622
0.196623
0.196624
0.196627
0.196629
0.196631
0.196632
0.196633
0.196633
0.196633
0.196633
0.196633
0.196633
0.196633
0.196633
0.196633
0.196633
0.196633
0.196633
0.196633
0.196633
0.196633
0.196633
0.196633
0.196633
0.196633
0.196633
0.196633
0.196633
0.196633
0.196633
0.196633
0.196633
0.196633
0.196633
0.196633
0.196633
0.196633
0.196633
0.196633
0.196633
0.196633
0.196633
0.196633
0.196633
0.196633
0.196633
0.196633
0.196633
0.196633
0.196633
0.196633
0.196633
0.196633
0.196633
0.196633
0.196633
0.196633
0.196633
0.196633
0.196633
0.196633
0.196633
0.196633
0.196633
0.196633
0.196633
0.196633
0.196633
0.196633
0.196633
0.196633
0.196633
0.196633
0.196633
0.196633
0.196633
0.196633
0.196633
0.196633
0.196633
0.196633
0.196633
0.196633
0.196633
0.196633
0.196633
0.196633
0.196633
0.196633
0.196633
0.196633
0.196633
0.196633
0.196633
0.196633
0.196633
0.196633
0.196633
0.196633
0.196633
0.196633
0.196633
0.196633
0.196633
0.196633
0.196633
0.196633
0.196633
0.196633
0.196633
0.196633
0.196633
0.196633
0.196633
0.196633
0.196633
0.196633
0.196633
0.196633
0.196633
0.196633
0.196633
0.196633
0.196633
0.196633
0.196633
0.196633
0.196633
0.196633
0.196633
0.196633
0.196633
0.196633
0.196633
0.196633
0.196633
0.196633
0.196633
0.196633
0.196633
0.196633
0.196633
0.196633
0.196633
0.196633
0.196633
0.196633
0.196633
0.196633
0.196633
0.196633
0.196633
0.196633
0.196633
0.196633
0.196633
0.196633
0.196633
0.196633
0.196633
0.196633
0.196633
0.196633
0.196633
0.196633
0.196633
0.196633
0.196633
0.196633
0.196633
0.196633
0.196633
0.196633
0.196633
0.196633
0.196633
0.196633
0.196633
0.196633
0.196633
0.196633
0.196633
0.196633
0.196633
0.196633
0.196633
0.196633
0.196633
0.196633
0.196633
0.196633
0.196633
0.196633
0.196633
0.196633
0.196633
0.196633
0.196633
0.196633
0.196633
0.196633
0.196633
0.196633
0.196633
0.196633
0.196633
0.196633
0.196633
0.196633
0.196633
0.196633
0.196633
0.196633
0.196633
0.196633
0.196633
0.196633
0.196633
0.196633
0.196633
0.196633
0.196633
0.196633
0.196633
0.196633
0.196633
0.196633
0.196633
0.196633
0.196633
0.196633
0.196633
0.196633
0.196633
0.196633
0.196633
0.196633
0.196633
0.196633
0.196633
0.196633
0.196633
0.196633
0.196633
0.196633
0.196633
0.196633
0.196633
0.196633
0.196633
0.196633
0.196633
0.196633
0.196633
0.196633
0.196633
0.196633
0.196633
0.196633
0.196633
0.196633
0.196633
0.196633
0.196633
0.196633
0.196633
0.196633
0.196633
0.196633
0.196633
0.196633
0.196633
0.196633
0.196633
0.196633
0.196633
0.196633
0.196633
0.196633
0.196633
0.196633
0.196633
0.196633
0.196633
0.196633
0.196633
0.196633
0.196633
0.196633
0.196633
0.196633
0.196633
0.196633
0.196633
0.196633
0.196633
0.196633
0.196633
0.196633
0.196633
0.196633
0.196633
0.196633
0.196633
0.196633
0.196633
0.196633
0.196633
0.196633
0.196633
0.196633
0.196633
0.196633
0.196633
0.196633
0.196633
0.196633
0.196633
0.196633
0.196633
0.196633
0.196633
0.196633
0.196633
0.196633
0.196633
0.196633
0.196633
0.196633
0.196633
0.196633
0.196633
0.196633
0.196633
0.196633
0.196633
0.196633
0.196633
0.196633
0.196633
0.196633
0.196633
0.196633
0.196633
0.196633
0.196633
0.196633
0.196633
0.196633
0.196633
0.196633
0.196633
0.196633
0.196633
0.196633
0.196633
0.196633
0.196633
0.196633
0.196633
0.196633
0.196633
0.196633
0.196633
0.196633
0.196633
0.196633
0.196633
0.196633
0.196633
0.196633
0.196633
0.196633
0.196633
0.196633
0.196633
0.196633
0.196633
0.196633
0.196633
0.196633
0.196633
0.196633
0.196633
0.196633
0.196633
0.155295
0.162768
0.110946
0.0852902
0.0864209
0.0961222
0.10557
0.120952
0.117902
0.123155
0.128832
0.132574
0.136839
0.140576
0.143299
0.145387
0.148866
0.154
0.159357
0.164968
0.169709
0.173147
0.177294
0.181861
0.186376
0.190776
0.194854
0.196529
0.196633
0.196633
0.196459
0.195971
0.195355
0.194886
0.194049
0.192648
0.191357
0.190409
0.18976
0.189058
0.188232
0.18748
0.187031
0.186834
0.186721
0.186499
0.186077
0.185531
0.18508
0.184892
0.184984
0.18528
0.185697
0.186181
0.186688
0.187194
0.187677
0.188114
0.188512
0.188875
0.189216
0.189552
0.189884
0.190222
0.190585
0.190975
0.191382
0.191777
0.192147
0.192482
0.192781
0.193047
0.193298
0.193531
0.193766
0.193999
0.194241
0.194492
0.19476
0.195034
0.195299
0.195542
0.195756
0.19594
0.196095
0.196224
0.19633
0.196416
0.196484
0.196536
0.196574
0.1966
0.196617
0.196627
0.196631
0.196633
0.196633
0.196633
0.196633
0.196633
0.196633
0.196633
0.196633
0.196633
0.196633
0.196633
0.196633
0.196633
0.196633
0.196633
0.196633
0.196633
0.196633
0.196633
0.196633
0.196633
0.196633
0.196633
0.196633
0.196633
0.196633
0.196633
0.196633
0.196633
0.196633
0.196633
0.196633
0.196633
0.196633
0.196633
0.196633
0.196633
0.196633
0.196633
0.196633
0.196633
0.196633
0.196633
0.196633
0.196633
0.196633
0.196633
0.196633
0.196633
0.196633
0.196633
0.196633
0.196633
0.196633
0.196633
0.196633
0.196633
0.196633
0.196633
0.196633
0.196633
0.196633
0.196633
0.196633
0.196633
0.196633
0.196633
0.196633
0.196633
0.196633
0.196633
0.196633
0.196633
0.196633
0.196633
0.196633
0.196633
0.196633
0.196633
0.196633
0.196633
0.196633
0.196633
0.196633
0.196633
0.196633
0.196633
0.196633
0.196633
0.196633
0.196633
0.196633
0.196633
0.196633
0.196633
0.196633
0.196633
0.196633
0.196633
0.196633
0.196633
0.196633
0.196633
0.196633
0.196633
0.196633
0.196633
0.196633
0.196633
0.196633
0.196633
0.196633
0.196633
0.196633
0.196633
0.196633
0.196633
0.196633
0.196633
0.196633
0.196633
0.196633
0.196633
0.196633
0.196633
0.196633
0.196633
0.196633
0.196633
0.196633
0.196633
0.196633
0.196633
0.196633
0.196633
0.196633
0.196633
0.196633
0.196633
0.196633
0.196633
0.196633
0.196633
0.196633
0.196633
0.196633
0.196633
0.196633
0.196633
0.196633
0.196633
0.196633
0.196633
0.196633
0.196633
0.196633
0.196633
0.196633
0.196633
0.196633
0.196633
0.196633
0.196633
0.196633
0.196633
0.196633
0.196633
0.196633
0.196633
0.196633
0.196633
0.196633
0.196633
0.196633
0.196633
0.196633
0.196633
0.196633
0.196633
0.196633
0.196633
0.196633
0.196633
0.196633
0.196633
0.196633
0.196633
0.196633
0.196633
0.196633
0.196633
0.196633
0.196633
0.196633
0.196633
0.196633
0.196633
0.196633
0.196633
0.196633
0.196633
0.196633
0.196633
0.196633
0.196633
0.196633
0.196633
0.196633
0.196633
0.196633
0.196633
0.196633
0.196633
0.196633
0.196633
0.196633
0.196633
0.196633
0.196633
0.196633
0.196633
0.196633
0.196633
0.196633
0.196633
0.196633
0.196633
0.196633
0.196633
0.196633
0.196633
0.196633
0.196633
0.196633
0.196633
0.196633
0.196633
0.196633
0.196633
0.196633
0.196633
0.196633
0.196633
0.196633
0.196633
0.196633
0.196633
0.196633
0.196633
0.196633
0.196633
0.196633
0.196633
0.196633
0.196633
0.196633
0.196633
0.196633
0.196633
0.196633
0.196633
0.196633
0.196633
0.196633
0.196633
0.196633
0.196633
0.196633
0.196633
0.196633
0.196633
0.196633
0.196633
0.196633
0.196633
0.196633
0.196633
0.196633
0.196633
0.196633
0.196633
0.196633
0.196633
0.196633
0.196633
0.196633
0.196633
0.196633
0.196633
0.196633
0.196633
0.196633
0.196633
0.196633
0.196633
0.196633
0.196633
0.196633
0.196633
0.196633
0.196633
0.196633
0.196633
0.196633
0.196633
0.196633
0.196633
0.196633
0.196633
0.196633
0.196633
0.196633
0.196633
0.196633
0.196633
0.196633
0.196633
0.196633
0.196633
0.196633
0.196633
0.196633
0.196633
0.196633
0.196633
0.196633
0.196633
0.196633
0.196633
0.196633
0.196633
0.196633
0.196633
0.196633
0.196633
0.196633
0.196633
0.196633
0.196633
0.196633
0.196633
0.196633
0.196633
0.196633
0.196633
0.196633
0.196633
0.196633
0.196633
0.196633
0.196633
0.196633
0.196633
0.196633
0.196633
0.155503
0.151063
0.0794447
0.0730957
0.0793527
0.0882452
0.114244
0.133507
0.136438
0.139961
0.142877
0.145554
0.147817
0.150818
0.154132
0.159106
0.165078
0.17259
0.179393
0.186313
0.19291
0.194214
0.193819
0.193375
0.193184
0.193457
0.192504
0.191999
0.192009
0.186722
0.174108
0.162588
0.162372
0.158587
0.151455
0.146026
0.143457
0.142378
0.141948
0.141965
0.142296
0.142874
0.143632
0.144533
0.145501
0.146461
0.147296
0.147958
0.14848
0.148983
0.149533
0.150188
0.150942
0.151767
0.152673
0.153625
0.154616
0.155642
0.156672
0.15771
0.158737
0.159739
0.160714
0.161653
0.162578
0.163505
0.164454
0.165466
0.166541
0.167661
0.168833
0.170044
0.171285
0.172548
0.173822
0.175116
0.176418
0.177718
0.178997
0.180264
0.181513
0.182726
0.183894
0.185031
0.186131
0.187178
0.188167
0.189105
0.189988
0.190805
0.191557
0.192246
0.192856
0.193395
0.193862
0.194253
0.194592
0.194872
0.195109
0.195313
0.195501
0.195675
0.195832
0.195972
0.196095
0.196206
0.196306
0.196395
0.196471
0.196531
0.196574
0.196603
0.196621
0.19663
0.196633
0.196633
0.196633
0.196633
0.196633
0.196633
0.196633
0.196633
0.196633
0.196633
0.196633
0.196633
0.196633
0.196633
0.196633
0.196633
0.196633
0.196633
0.196633
0.196633
0.196633
0.196633
0.196633
0.196633
0.196633
0.196633
0.196633
0.196633
0.196633
0.196633
0.196633
0.196633
0.196633
0.196633
0.196633
0.196633
0.196633
0.196633
0.196633
0.196633
0.196633
0.196633
0.196633
0.196633
0.196633
0.196633
0.196633
0.196633
0.196633
0.196633
0.196633
0.196633
0.196633
0.196633
0.196633
0.196633
0.196633
0.196633
0.196633
0.196633
0.196633
0.196633
0.196633
0.196633
0.196633
0.196633
0.196633
0.196633
0.196633
0.196633
0.196633
0.196633
0.196633
0.196633
0.196633
0.196633
0.196633
0.196633
0.196633
0.196633
0.196633
0.196633
0.196633
0.196633
0.196633
0.196633
0.196633
0.196633
0.196633
0.196633
0.196633
0.196633
0.196633
0.196633
0.196633
0.196633
0.196633
0.196633
0.196633
0.196633
0.196633
0.196633
0.196633
0.196633
0.196633
0.196633
0.196633
0.196633
0.196633
0.196633
0.196633
0.196633
0.196633
0.196633
0.196633
0.196633
0.196633
0.196633
0.196633
0.196633
0.196633
0.196633
0.196633
0.196633
0.196633
0.196633
0.196633
0.196633
0.196633
0.196633
0.196633
0.196633
0.196633
0.196633
0.196633
0.196633
0.196633
0.196633
0.196633
0.196633
0.196633
0.196633
0.196633
0.196633
0.196633
0.196633
0.196633
0.196633
0.196633
0.196633
0.196633
0.196633
0.196633
0.196633
0.196633
0.196633
0.196633
0.196633
0.196633
0.196633
0.196633
0.196633
0.196633
0.196633
0.196633
0.196633
0.196633
0.196633
0.196633
0.196633
0.196633
0.196633
0.196633
0.196633
0.196633
0.196633
0.196633
0.196633
0.196633
0.196633
0.196633
0.196633
0.196633
0.196633
0.196633
0.196633
0.196633
0.196633
0.196633
0.196633
0.196633
0.196633
0.196633
0.196633
0.196633
0.196633
0.196633
0.196633
0.196633
0.196633
0.196633
0.196633
0.196633
0.196633
0.196633
0.196633
0.196633
0.196633
0.196633
0.196633
0.196633
0.196633
0.196633
0.196633
0.196633
0.196633
0.196633
0.196633
0.196633
0.196633
0.196633
0.196633
0.196633
0.196633
0.196633
0.196633
0.196633
0.196633
0.196633
0.196633
0.196633
0.196633
0.196633
0.196633
0.196633
0.196633
0.196633
0.196633
0.196633
0.196633
0.196633
0.196633
0.196633
0.196633
0.196633
0.196633
0.196633
0.196633
0.196633
0.196633
0.196633
0.196633
0.196633
0.196633
0.196633
0.196633
0.196633
0.196633
0.196633
0.196633
0.196633
0.196633
0.196633
0.196633
0.196633
0.196633
0.196633
0.196633
0.196633
0.196633
0.196633
0.196633
0.196633
0.196633
0.196633
0.196633
0.196633
0.196633
0.196633
0.196633
0.196633
0.196633
0.196633
0.196633
0.196633
0.196633
0.196633
0.196633
0.196633
0.196633
0.196633
0.196633
0.196633
0.196633
0.196633
0.196633
0.196633
0.196633
0.196633
0.196633
0.196633
0.196633
0.196633
0.196633
0.196633
0.196633
0.196633
0.196633
0.196633
0.196633
0.196633
0.196633
0.196633
0.196633
0.196633
0.196633
0.196633
0.196633
0.196633
0.196633
0.196633
0.196633
0.196633
0.196633
0.196633
0.196633
0.196633
0.196633
0.196633
0.196633
0.196633
0.196633
0.196633
0.196633
0.196633
0.196633
0.151622
0.128778
0.0671274
0.0653283
0.0692876
0.0797204
0.0996344
0.116134
0.127637
0.126355
0.125651
0.127394
0.129843
0.132225
0.13426
0.136492
0.140444
0.150417
0.165409
0.178616
0.186632
0.190574
0.158869
0.136242
0.129963
0.126778
0.124487
0.126987
0.13394
0.127326
0.114308
0.112618
0.112377
0.11239
0.112436
0.112774
0.113239
0.113729
0.114281
0.11493
0.115637
0.116418
0.117266
0.11815
0.119105
0.120045
0.120978
0.121853
0.122711
0.123556
0.12446
0.125402
0.126438
0.127539
0.128704
0.129931
0.131181
0.132464
0.133786
0.135126
0.136477
0.137847
0.139222
0.140602
0.141978
0.143357
0.144749
0.146115
0.147476
0.148859
0.150223
0.151583
0.152932
0.154275
0.155587
0.156883
0.158157
0.159407
0.160649
0.161853
0.16303
0.164194
0.165339
0.16647
0.167562
0.168648
0.16972
0.170774
0.171815
0.172846
0.173885
0.174896
0.175921
0.176931
0.177927
0.17894
0.179934
0.180953
0.181965
0.182978
0.183982
0.184955
0.185915
0.18685
0.187765
0.188689
0.189607
0.190516
0.191387
0.192193
0.192941
0.193627
0.194244
0.194791
0.195262
0.195649
0.195951
0.196169
0.196335
0.196457
0.196539
0.19659
0.196618
0.19663
0.196633
0.196633
0.196633
0.196633
0.196633
0.196633
0.196633
0.196633
0.196633
0.196633
0.196633
0.196633
0.196633
0.196633
0.196633
0.196633
0.196633
0.196633
0.196633
0.196633
0.196633
0.196633
0.196633
0.196633
0.196633
0.196633
0.196633
0.196633
0.196633
0.196633
0.196633
0.196633
0.196633
0.196633
0.196633
0.196633
0.196633
0.196633
0.196633
0.196633
0.196633
0.196633
0.196633
0.196633
0.196633
0.196633
0.196633
0.196633
0.196633
0.196633
0.196633
0.196633
0.196633
0.196633
0.196633
0.196633
0.196633
0.196633
0.196633
0.196633
0.196633
0.196633
0.196633
0.196633
0.196633
0.196633
0.196633
0.196633
0.196633
0.196633
0.196633
0.196633
0.196633
0.196633
0.196633
0.196633
0.196633
0.196633
0.196633
0.196633
0.196633
0.196633
0.196633
0.196633
0.196633
0.196633
0.196633
0.196633
0.196633
0.196633
0.196633
0.196633
0.196633
0.196633
0.196633
0.196633
0.196633
0.196633
0.196633
0.196633
0.196633
0.196633
0.196633
0.196633
0.196633
0.196633
0.196633
0.196633
0.196633
0.196633
0.196633
0.196633
0.196633
0.196633
0.196633
0.196633
0.196633
0.196633
0.196633
0.196633
0.196633
0.196633
0.196633
0.196633
0.196633
0.196633
0.196633
0.196633
0.196633
0.196633
0.196633
0.196633
0.196633
0.196633
0.196633
0.196633
0.196633
0.196633
0.196633
0.196633
0.196633
0.196633
0.196633
0.196633
0.196633
0.196633
0.196633
0.196633
0.196633
0.196633
0.196633
0.196633
0.196633
0.196633
0.196633
0.196633
0.196633
0.196633
0.196633
0.196633
0.196633
0.196633
0.196633
0.196633
0.196633
0.196633
0.196633
0.196633
0.196633
0.196633
0.196633
0.196633
0.196633
0.196633
0.196633
0.196633
0.196633
0.196633
0.196633
0.196633
0.196633
0.196633
0.196633
0.196633
0.196633
0.196633
0.196633
0.196633
0.196633
0.196633
0.196633
0.196633
0.196633
0.196633
0.196633
0.196633
0.196633
0.196633
0.196633
0.196633
0.196633
0.196633
0.196633
0.196633
0.196633
0.196633
0.196633
0.196633
0.196633
0.196633
0.196633
0.196633
0.196633
0.196633
0.196633
0.196633
0.196633
0.196633
0.196633
0.196633
0.196633
0.196633
0.196633
0.196633
0.196633
0.196633
0.196633
0.196633
0.196633
0.196633
0.196633
0.196633
0.196633
0.196633
0.196633
0.196633
0.196633
0.196633
0.196633
0.196633
0.196633
0.196633
0.196633
0.196633
0.196633
0.196633
0.196633
0.196633
0.196633
0.196633
0.196633
0.196633
0.196633
0.196633
0.196633
0.196633
0.196633
0.196633
0.196633
0.196633
0.196633
0.196633
0.196633
0.196633
0.196633
0.196633
0.196633
0.196633
0.196633
0.196633
0.196633
0.196633
0.196633
0.196633
0.196633
0.196633
0.196633
0.196633
0.196633
0.196633
0.196633
0.196633
0.196633
0.196633
0.196633
0.196633
0.196633
0.196633
0.196633
0.196633
0.196633
0.196633
0.196633
0.196633
0.196633
0.196633
0.196633
0.196633
0.196633
0.196633
0.196633
0.196633
0.196633
0.196633
0.196633
0.196633
0.196633
0.196633
0.196633
0.196633
0.196633
0.196633
0.196633
0.196633
0.196633
0.196633
0.196633
0.196633
0.196633
0.196633
0.196633
0.196633
0.196633
0.196633
0.196633
0.196633
0.145434
0.103564
0.058786
0.0574095
0.0600701
0.0673204
0.0804509
0.0940006
0.102267
0.111508
0.111914
0.108022
0.104229
0.104122
0.106113
0.111102
0.117458
0.127113
0.135563
0.134205
0.116392
0.106725
0.100558
0.096695
0.0943883
0.0928414
0.0917611
0.0922067
0.0968963
0.0939196
0.0914901
0.0918287
0.0922092
0.0926652
0.0932604
0.0939399
0.0946881
0.0955105
0.0963482
0.0972191
0.0981173
0.099078
0.10008
0.101168
0.102317
0.103562
0.104846
0.106166
0.107489
0.108844
0.110203
0.111573
0.11293
0.114338
0.115714
0.117088
0.11849
0.119871
0.121227
0.122589
0.123947
0.125303
0.126653
0.127982
0.129303
0.130609
0.131874
0.13315
0.134395
0.135595
0.136793
0.137953
0.139108
0.140235
0.141369
0.142489
0.143588
0.144709
0.145796
0.146895
0.147991
0.149095
0.150226
0.151326
0.152463
0.153611
0.154754
0.155916
0.157065
0.158226
0.159388
0.160543
0.161698
0.16287
0.164041
0.165218
0.166407
0.167553
0.168722
0.169891
0.171038
0.172202
0.17334
0.174488
0.175641
0.176771
0.177913
0.179054
0.180182
0.181317
0.182447
0.183558
0.184685
0.185804
0.1869
0.188005
0.189106
0.190206
0.191255
0.192235
0.193136
0.193953
0.194656
0.195242
0.195722
0.196075
0.196316
0.196461
0.196553
0.196604
0.196627
0.196633
0.196633
0.196633
0.196633
0.196633
0.196633
0.196633
0.196633
0.196633
0.196633
0.196633
0.196633
0.196633
0.196633
0.196633
0.196633
0.196633
0.196633
0.196633
0.196633
0.196633
0.196633
0.196633
0.196633
0.196633
0.196633
0.196633
0.196633
0.196633
0.196633
0.196633
0.196633
0.196633
0.196633
0.196633
0.196633
0.196633
0.196633
0.196633
0.196633
0.196633
0.196633
0.196633
0.196633
0.196633
0.196633
0.196633
0.196633
0.196633
0.196633
0.196633
0.196633
0.196633
0.196633
0.196633
0.196633
0.196633
0.196633
0.196633
0.196633
0.196633
0.196633
0.196633
0.196633
0.196633
0.196633
0.196633
0.196633
0.196633
0.196633
0.196633
0.196633
0.196633
0.196633
0.196633
0.196633
0.196633
0.196633
0.196633
0.196633
0.196633
0.196633
0.196633
0.196633
0.196633
0.196633
0.196633
0.196633
0.196633
0.196633
0.196633
0.196633
0.196633
0.196633
0.196633
0.196633
0.196633
0.196633
0.196633
0.196633
0.196633
0.196633
0.196633
0.196633
0.196633
0.196633
0.196633
0.196633
0.196633
0.196633
0.196633
0.196633
0.196633
0.196633
0.196633
0.196633
0.196633
0.196633
0.196633
0.196633
0.196633
0.196633
0.196633
0.196633
0.196633
0.196633
0.196633
0.196633
0.196633
0.196633
0.196633
0.196633
0.196633
0.196633
0.196633
0.196633
0.196633
0.196633
0.196633
0.196633
0.196633
0.196633
0.196633
0.196633
0.196633
0.196633
0.196633
0.196633
0.196633
0.196633
0.196633
0.196633
0.196633
0.196633
0.196633
0.196633
0.196633
0.196633
0.196633
0.196633
0.196633
0.196633
0.196633
0.196633
0.196633
0.196633
0.196633
0.196633
0.196633
0.196633
0.196633
0.196633
0.196633
0.196633
0.196633
0.196633
0.196633
0.196633
0.196633
0.196633
0.196633
0.196633
0.196633
0.196633
0.196633
0.196633
0.196633
0.196633
0.196633
0.196633
0.196633
0.196633
0.196633
0.196633
0.196633
0.196633
0.196633
0.196633
0.196633
0.196633
0.196633
0.196633
0.196633
0.196633
0.196633
0.196633
0.196633
0.196633
0.196633
0.196633
0.196633
0.196633
0.196633
0.196633
0.196633
0.196633
0.196633
0.196633
0.196633
0.196633
0.196633
0.196633
0.196633
0.196633
0.196633
0.196633
0.196633
0.196633
0.196633
0.196633
0.196633
0.196633
0.196633
0.196633
0.196633
0.196633
0.196633
0.196633
0.196633
0.196633
0.196633
0.196633
0.196633
0.196633
0.196633
0.196633
0.196633
0.196633
0.196633
0.196633
0.196633
0.196633
0.196633
0.196633
0.196633
0.196633
0.196633
0.196633
0.196633
0.196633
0.196633
0.196633
0.196633
0.196633
0.196633
0.196633
0.196633
0.196633
0.196633
0.196633
0.196633
0.196633
0.196633
0.196633
0.196633
0.196633
0.196633
0.196633
0.196633
0.196633
0.196633
0.196633
0.196633
0.196633
0.196633
0.196633
0.196633
0.196633
0.196633
0.196633
0.196633
0.196633
0.196633
0.196633
0.196633
0.196633
0.196633
0.196633
0.196633
0.196633
0.196633
0.196633
0.196633
0.196633
0.196633
0.196633
0.196633
0.196633
0.196633
0.196633
0.196633
0.196633
0.196633
0.196633
0.196633
0.196633
0.196633
0.196633
0.196633
0.143013
0.0807566
0.053385
0.0515099
0.0533802
0.0587498
0.0654554
0.0753369
0.0816197
0.0802263
0.0810297
0.0817109
0.082611
0.0838491
0.0850603
0.0860583
0.0860307
0.0858302
0.0844091
0.0810645
0.0789411
0.0772748
0.0763037
0.0758181
0.0756575
0.075673
0.0758111
0.0761741
0.0769213
0.076878
0.0774211
0.0781046
0.0788921
0.0797701
0.0806659
0.0816937
0.0827343
0.0838313
0.085021
0.0862263
0.0875302
0.088812
0.0901455
0.0914738
0.092797
0.0941414
0.0955249
0.0968997
0.09831
0.0997072
0.101081
0.102513
0.103903
0.105249
0.106609
0.10795
0.109233
0.110523
0.111795
0.11302
0.114257
0.11544
0.116619
0.117801
0.118955
0.120104
0.121238
0.122376
0.123498
0.124667
0.125817
0.127011
0.128211
0.129405
0.130626
0.131846
0.133067
0.13429
0.135519
0.136744
0.137985
0.1392
0.140401
0.141627
0.1428
0.143983
0.14519
0.146361
0.147587
0.148805
0.150016
0.151258
0.152464
0.153667
0.15489
0.156065
0.157257
0.158481
0.159677
0.160889
0.162102
0.163295
0.164503
0.165683
0.166843
0.168025
0.169181
0.170325
0.171491
0.172636
0.173791
0.17496
0.176077
0.177212
0.178368
0.179502
0.18064
0.18176
0.182882
0.184022
0.18514
0.186232
0.187338
0.188429
0.189516
0.190612
0.191687
0.19276
0.19373
0.19456
0.195238
0.195764
0.196149
0.196403
0.196534
0.196599
0.196626
0.196633
0.196633
0.196633
0.196633
0.196633
0.196633
0.196633
0.196633
0.196633
0.196633
0.196633
0.196633
0.196633
0.196633
0.196633
0.196633
0.196633
0.196633
0.196633
0.196633
0.196633
0.196633
0.196633
0.196633
0.196633
0.196633
0.196633
0.196633
0.196633
0.196633
0.196633
0.196633
0.196633
0.196633
0.196633
0.196633
0.196633
0.196633
0.196633
0.196633
0.196633
0.196633
0.196633
0.196633
0.196633
0.196633
0.196633
0.196633
0.196633
0.196633
0.196633
0.196633
0.196633
0.196633
0.196633
0.196633
0.196633
0.196633
0.196633
0.196633
0.196633
0.196633
0.196633
0.196633
0.196633
0.196633
0.196633
0.196633
0.196633
0.196633
0.196633
0.196633
0.196633
0.196633
0.196633
0.196633
0.196633
0.196633
0.196633
0.196633
0.196633
0.196633
0.196633
0.196633
0.196633
0.196633
0.196633
0.196633
0.196633
0.196633
0.196633
0.196633
0.196633
0.196633
0.196633
0.196633
0.196633
0.196633
0.196633
0.196633
0.196633
0.196633
0.196633
0.196633
0.196633
0.196633
0.196633
0.196633
0.196633
0.196633
0.196633
0.196633
0.196633
0.196633
0.196633
0.196633
0.196633
0.196633
0.196633
0.196633
0.196633
0.196633
0.196633
0.196633
0.196633
0.196633
0.196633
0.196633
0.196633
0.196633
0.196633
0.196633
0.196633
0.196633
0.196633
0.196633
0.196633
0.196633
0.196633
0.196633
0.196633
0.196633
0.196633
0.196633
0.196633
0.196633
0.196633
0.196633
0.196633
0.196633
0.196633
0.196633
0.196633
0.196633
0.196633
0.196633
0.196633
0.196633
0.196633
0.196633
0.196633
0.196633
0.196633
0.196633
0.196633
0.196633
0.196633
0.196633
0.196633
0.196633
0.196633
0.196633
0.196633
0.196633
0.196633
0.196633
0.196633
0.196633
0.196633
0.196633
0.196633
0.196633
0.196633
0.196633
0.196633
0.196633
0.196633
0.196633
0.196633
0.196633
0.196633
0.196633
0.196633
0.196633
0.196633
0.196633
0.196633
0.196633
0.196633
0.196633
0.196633
0.196633
0.196633
0.196633
0.196633
0.196633
0.196633
0.196633
0.196633
0.196633
0.196633
0.196633
0.196633
0.196633
0.196633
0.196633
0.196633
0.196633
0.196633
0.196633
0.196633
0.196633
0.196633
0.196633
0.196633
0.196633
0.196633
0.196633
0.196633
0.196633
0.196633
0.196633
0.196633
0.196633
0.196633
0.196633
0.196633
0.196633
0.196633
0.196633
0.196633
0.196633
0.196633
0.196633
0.196633
0.196633
0.196633
0.196633
0.196633
0.196633
0.196633
0.196633
0.196633
0.196633
0.196633
0.196633
0.196633
0.196633
0.196633
0.196633
0.196633
0.196633
0.196633
0.196633
0.196633
0.196633
0.196633
0.196633
0.196633
0.196633
0.196633
0.196633
0.196633
0.196633
0.196633
0.196633
0.196633
0.196633
0.196633
0.196633
0.196633
0.196633
0.196633
0.196633
0.196633
0.196633
0.196633
0.196633
0.196633
0.196633
0.196633
0.196633
0.196633
0.196633
0.196633
0.196633
0.196633
0.196633
0.196633
0.196633
0.196633
0.196633
0.196633
0.196633
0.196633
0.196633
0.196633
0.196633
0.196633
0.196633
0.196633
0.196633
0.196633
0.137167
0.0670503
0.0489052
0.0460582
0.0465563
0.0498362
0.0531999
0.0569769
0.0600447
0.0613714
0.0623102
0.0632081
0.0638761
0.0645204
0.0649682
0.0650117
0.0647716
0.0643532
0.0639454
0.0636759
0.0635392
0.0635255
0.0636266
0.0638407
0.0641576
0.0646132
0.0651736
0.0658134
0.0665854
0.0674586
0.0684233
0.0694045
0.0705238
0.0716419
0.0728635
0.0740395
0.0753628
0.0766644
0.0779659
0.0792747
0.0806007
0.0819686
0.0833351
0.0846728
0.0860566
0.0874011
0.0887147
0.0900338
0.0913226
0.0925604
0.0938543
0.095104
0.0963514
0.0976339
0.0988759
0.100096
0.101351
0.102581
0.103808
0.105028
0.106225
0.107451
0.108619
0.109825
0.111001
0.112201
0.113433
0.114627
0.11588
0.117061
0.118274
0.119482
0.120644
0.121875
0.123066
0.124308
0.125585
0.126833
0.128121
0.129399