/*--------------------------------*- C++ -*----------------------------------*\
| =========                 |                                                 |
| \\      /  F ield         | OpenFOAM: The Open Source CFD Toolbox           |
|  \\    /   O peration     | Version:  v2006                                 |
|   \\  /    A nd           | Website:  www.openfoam.com                      |
|    \\/     M anipulation  |                                                 |
\*---------------------------------------------------------------------------*/
FoamFile
{
    version     2.0;
    format      ascii;
    class       volVectorField;
    location    "0";
    object      U_new;
}
// * * * * * * * * * * * * * * * * * * * * * * * * * * * * * * * * * * * * * //

dimensions      [0 1 -1 0 0 0 0];


internalField   nonuniform List<vector> 
2500
(
(0.000216 -0.005832 0)
(0.000216 -0.017496 0)
(0.000216 -0.02916 0)
(0.000216 -0.040824 0)
(0.000216 -0.052488 0)
(0.000216 -0.064152 0)
(0.000216 -0.075816 0)
(0.000216 -0.08748 0)
(0.000216 -0.099144 0)
(0.000216 -0.110808 0)
(0.000216 -0.122472 0)
(0.000216 -0.134136 0)
(0.000216 -0.1458 0)
(0.000216 -0.157464 0)
(0.000216 -0.169128 0)
(0.000216 -0.180792 0)
(0.000216 -0.192456 0)
(0.000216 -0.20412 0)
(0.000216 -0.215784 0)
(0.000216 -0.227448 0)
(0.000216 -0.239112 0)
(0.000216 -0.250776 0)
(0.000216 -0.26244 0)
(0.000216 -0.274104 0)
(0.000216 -0.285768 0)
(0.000216 -0.297432 0)
(0.000216 -0.309096 0)
(0.000216 -0.32076 0)
(0.000216 -0.332424 0)
(0.000216 -0.344088 0)
(0.000216 -0.355752 0)
(0.000216 -0.367416 0)
(0.000216 -0.37908 0)
(0.000216 -0.390744 0)
(0.000216 -0.402408 0)
(0.000216 -0.414072 0)
(0.000216 -0.425736 0)
(0.000216 -0.4374 0)
(0.000216 -0.449064 0)
(0.000216 -0.460728 0)
(0.000216 -0.472392 0)
(0.000216 -0.484056 0)
(0.000216 -0.49572 0)
(0.000216 -0.507384 0)
(0.000216 -0.519048 0)
(0.000216 -0.530712 0)
(0.000216 -0.542376 0)
(0.000216 -0.55404 0)
(0.000216 -0.565704 0)
(0.000216 -0.577368 0)
(0.001944 -0.005832 0)
(0.001944 -0.017496 0)
(0.001944 -0.02916 0)
(0.001944 -0.040824 0)
(0.001944 -0.052488 0)
(0.001944 -0.064152 0)
(0.001944 -0.075816 0)
(0.001944 -0.08748 0)
(0.001944 -0.099144 0)
(0.001944 -0.110808 0)
(0.001944 -0.122472 0)
(0.001944 -0.134136 0)
(0.001944 -0.1458 0)
(0.001944 -0.157464 0)
(0.001944 -0.169128 0)
(0.001944 -0.180792 0)
(0.001944 -0.192456 0)
(0.001944 -0.20412 0)
(0.001944 -0.215784 0)
(0.001944 -0.227448 0)
(0.001944 -0.239112 0)
(0.001944 -0.250776 0)
(0.001944 -0.26244 0)
(0.001944 -0.274104 0)
(0.001944 -0.285768 0)
(0.001944 -0.297432 0)
(0.001944 -0.309096 0)
(0.001944 -0.32076 0)
(0.001944 -0.332424 0)
(0.001944 -0.344088 0)
(0.001944 -0.355752 0)
(0.001944 -0.367416 0)
(0.001944 -0.37908 0)
(0.001944 -0.390744 0)
(0.001944 -0.402408 0)
(0.001944 -0.414072 0)
(0.001944 -0.425736 0)
(0.001944 -0.4374 0)
(0.001944 -0.449064 0)
(0.001944 -0.460728 0)
(0.001944 -0.472392 0)
(0.001944 -0.484056 0)
(0.001944 -0.49572 0)
(0.001944 -0.507384 0)
(0.001944 -0.519048 0)
(0.001944 -0.530712 0)
(0.001944 -0.542376 0)
(0.001944 -0.55404 0)
(0.001944 -0.565704 0)
(0.001944 -0.577368 0)
(0.0054 -0.005832 0)
(0.0054 -0.017496 0)
(0.0054 -0.02916 0)
(0.0054 -0.040824 0)
(0.0054 -0.052488 0)
(0.0054 -0.064152 0)
(0.0054 -0.075816 0)
(0.0054 -0.08748 0)
(0.0054 -0.099144 0)
(0.0054 -0.110808 0)
(0.0054 -0.122472 0)
(0.0054 -0.134136 0)
(0.0054 -0.1458 0)
(0.0054 -0.157464 0)
(0.0054 -0.169128 0)
(0.0054 -0.180792 0)
(0.0054 -0.192456 0)
(0.0054 -0.20412 0)
(0.0054 -0.215784 0)
(0.0054 -0.227448 0)
(0.0054 -0.239112 0)
(0.0054 -0.250776 0)
(0.0054 -0.26244 0)
(0.0054 -0.274104 0)
(0.0054 -0.285768 0)
(0.0054 -0.297432 0)
(0.0054 -0.309096 0)
(0.0054 -0.32076 0)
(0.0054 -0.332424 0)
(0.0054 -0.344088 0)
(0.0054 -0.355752 0)
(0.0054 -0.367416 0)
(0.0054 -0.37908 0)
(0.0054 -0.390744 0)
(0.0054 -0.402408 0)
(0.0054 -0.414072 0)
(0.0054 -0.425736 0)
(0.0054 -0.4374 0)
(0.0054 -0.449064 0)
(0.0054 -0.460728 0)
(0.0054 -0.472392 0)
(0.0054 -0.484056 0)
(0.0054 -0.49572 0)
(0.0054 -0.507384 0)
(0.0054 -0.519048 0)
(0.0054 -0.530712 0)
(0.0054 -0.542376 0)
(0.0054 -0.55404 0)
(0.0054 -0.565704 0)
(0.0054 -0.577368 0)
(0.010584 -0.005832 0)
(0.010584 -0.017496 0)
(0.010584 -0.02916 0)
(0.010584 -0.040824 0)
(0.010584 -0.052488 0)
(0.010584 -0.064152 0)
(0.010584 -0.075816 0)
(0.010584 -0.08748 0)
(0.010584 -0.099144 0)
(0.010584 -0.110808 0)
(0.010584 -0.122472 0)
(0.010584 -0.134136 0)
(0.010584 -0.1458 0)
(0.010584 -0.157464 0)
(0.010584 -0.169128 0)
(0.010584 -0.180792 0)
(0.010584 -0.192456 0)
(0.010584 -0.20412 0)
(0.010584 -0.215784 0)
(0.010584 -0.227448 0)
(0.010584 -0.239112 0)
(0.010584 -0.250776 0)
(0.010584 -0.26244 0)
(0.010584 -0.274104 0)
(0.010584 -0.285768 0)
(0.010584 -0.297432 0)
(0.010584 -0.309096 0)
(0.010584 -0.32076 0)
(0.010584 -0.332424 0)
(0.010584 -0.344088 0)
(0.010584 -0.355752 0)
(0.010584 -0.367416 0)
(0.010584 -0.37908 0)
(0.010584 -0.390744 0)
(0.010584 -0.402408 0)
(0.010584 -0.414072 0)
(0.010584 -0.425736 0)
(0.010584 -0.4374 0)
(0.010584 -0.449064 0)
(0.010584 -0.460728 0)
(0.010584 -0.472392 0)
(0.010584 -0.484056 0)
(0.010584 -0.49572 0)
(0.010584 -0.507384 0)
(0.010584 -0.519048 0)
(0.010584 -0.530712 0)
(0.010584 -0.542376 0)
(0.010584 -0.55404 0)
(0.010584 -0.565704 0)
(0.010584 -0.577368 0)
(0.017496 -0.005832 0)
(0.017496 -0.017496 0)
(0.017496 -0.02916 0)
(0.017496 -0.040824 0)
(0.017496 -0.052488 0)
(0.017496 -0.064152 0)
(0.017496 -0.075816 0)
(0.017496 -0.08748 0)
(0.017496 -0.099144 0)
(0.017496 -0.110808 0)
(0.017496 -0.122472 0)
(0.017496 -0.134136 0)
(0.017496 -0.1458 0)
(0.017496 -0.157464 0)
(0.017496 -0.169128 0)
(0.017496 -0.180792 0)
(0.017496 -0.192456 0)
(0.017496 -0.20412 0)
(0.017496 -0.215784 0)
(0.017496 -0.227448 0)
(0.017496 -0.239112 0)
(0.017496 -0.250776 0)
(0.017496 -0.26244 0)
(0.017496 -0.274104 0)
(0.017496 -0.285768 0)
(0.017496 -0.297432 0)
(0.017496 -0.309096 0)
(0.017496 -0.32076 0)
(0.017496 -0.332424 0)
(0.017496 -0.344088 0)
(0.017496 -0.355752 0)
(0.017496 -0.367416 0)
(0.017496 -0.37908 0)
(0.017496 -0.390744 0)
(0.017496 -0.402408 0)
(0.017496 -0.414072 0)
(0.017496 -0.425736 0)
(0.017496 -0.4374 0)
(0.017496 -0.449064 0)
(0.017496 -0.460728 0)
(0.017496 -0.472392 0)
(0.017496 -0.484056 0)
(0.017496 -0.49572 0)
(0.017496 -0.507384 0)
(0.017496 -0.519048 0)
(0.017496 -0.530712 0)
(0.017496 -0.542376 0)
(0.017496 -0.55404 0)
(0.017496 -0.565704 0)
(0.017496 -0.577368 0)
(0.026136 -0.005832 0)
(0.026136 -0.017496 0)
(0.026136 -0.02916 0)
(0.026136 -0.040824 0)
(0.026136 -0.052488 0)
(0.026136 -0.064152 0)
(0.026136 -0.075816 0)
(0.026136 -0.08748 0)
(0.026136 -0.099144 0)
(0.026136 -0.110808 0)
(0.026136 -0.122472 0)
(0.026136 -0.134136 0)
(0.026136 -0.1458 0)
(0.026136 -0.157464 0)
(0.026136 -0.169128 0)
(0.026136 -0.180792 0)
(0.026136 -0.192456 0)
(0.026136 -0.20412 0)
(0.026136 -0.215784 0)
(0.026136 -0.227448 0)
(0.026136 -0.239112 0)
(0.026136 -0.250776 0)
(0.026136 -0.26244 0)
(0.026136 -0.274104 0)
(0.026136 -0.285768 0)
(0.026136 -0.297432 0)
(0.026136 -0.309096 0)
(0.026136 -0.32076 0)
(0.026136 -0.332424 0)
(0.026136 -0.344088 0)
(0.026136 -0.355752 0)
(0.026136 -0.367416 0)
(0.026136 -0.37908 0)
(0.026136 -0.390744 0)
(0.026136 -0.402408 0)
(0.026136 -0.414072 0)
(0.026136 -0.425736 0)
(0.026136 -0.4374 0)
(0.026136 -0.449064 0)
(0.026136 -0.460728 0)
(0.026136 -0.472392 0)
(0.026136 -0.484056 0)
(0.026136 -0.49572 0)
(0.026136 -0.507384 0)
(0.026136 -0.519048 0)
(0.026136 -0.530712 0)
(0.026136 -0.542376 0)
(0.026136 -0.55404 0)
(0.026136 -0.565704 0)
(0.026136 -0.577368 0)
(0.036504 -0.005832 0)
(0.036504 -0.017496 0)
(0.036504 -0.02916 0)
(0.036504 -0.040824 0)
(0.036504 -0.052488 0)
(0.036504 -0.064152 0)
(0.036504 -0.075816 0)
(0.036504 -0.08748 0)
(0.036504 -0.099144 0)
(0.036504 -0.110808 0)
(0.036504 -0.122472 0)
(0.036504 -0.134136 0)
(0.036504 -0.1458 0)
(0.036504 -0.157464 0)
(0.036504 -0.169128 0)
(0.036504 -0.180792 0)
(0.036504 -0.192456 0)
(0.036504 -0.20412 0)
(0.036504 -0.215784 0)
(0.036504 -0.227448 0)
(0.036504 -0.239112 0)
(0.036504 -0.250776 0)
(0.036504 -0.26244 0)
(0.036504 -0.274104 0)
(0.036504 -0.285768 0)
(0.036504 -0.297432 0)
(0.036504 -0.309096 0)
(0.036504 -0.32076 0)
(0.036504 -0.332424 0)
(0.036504 -0.344088 0)
(0.036504 -0.355752 0)
(0.036504 -0.367416 0)
(0.036504 -0.37908 0)
(0.036504 -0.390744 0)
(0.036504 -0.402408 0)
(0.036504 -0.414072 0)
(0.036504 -0.425736 0)
(0.036504 -0.4374 0)
(0.036504 -0.449064 0)
(0.036504 -0.460728 0)
(0.036504 -0.472392 0)
(0.036504 -0.484056 0)
(0.036504 -0.49572 0)
(0.036504 -0.507384 0)
(0.036504 -0.519048 0)
(0.036504 -0.530712 0)
(0.036504 -0.542376 0)
(0.036504 -0.55404 0)
(0.036504 -0.565704 0)
(0.036504 -0.577368 0)
(0.0486 -0.005832 0)
(0.0486 -0.017496 0)
(0.0486 -0.02916 0)
(0.0486 -0.040824 0)
(0.0486 -0.052488 0)
(0.0486 -0.064152 0)
(0.0486 -0.075816 0)
(0.0486 -0.08748 0)
(0.0486 -0.099144 0)
(0.0486 -0.110808 0)
(0.0486 -0.122472 0)
(0.0486 -0.134136 0)
(0.0486 -0.1458 0)
(0.0486 -0.157464 0)
(0.0486 -0.169128 0)
(0.0486 -0.180792 0)
(0.0486 -0.192456 0)
(0.0486 -0.20412 0)
(0.0486 -0.215784 0)
(0.0486 -0.227448 0)
(0.0486 -0.239112 0)
(0.0486 -0.250776 0)
(0.0486 -0.26244 0)
(0.0486 -0.274104 0)
(0.0486 -0.285768 0)
(0.0486 -0.297432 0)
(0.0486 -0.309096 0)
(0.0486 -0.32076 0)
(0.0486 -0.332424 0)
(0.0486 -0.344088 0)
(0.0486 -0.355752 0)
(0.0486 -0.367416 0)
(0.0486 -0.37908 0)
(0.0486 -0.390744 0)
(0.0486 -0.402408 0)
(0.0486 -0.414072 0)
(0.0486 -0.425736 0)
(0.0486 -0.4374 0)
(0.0486 -0.449064 0)
(0.0486 -0.460728 0)
(0.0486 -0.472392 0)
(0.0486 -0.484056 0)
(0.0486 -0.49572 0)
(0.0486 -0.507384 0)
(0.0486 -0.519048 0)
(0.0486 -0.530712 0)
(0.0486 -0.542376 0)
(0.0486 -0.55404 0)
(0.0486 -0.565704 0)
(0.0486 -0.577368 0)
(0.062424 -0.005832 0)
(0.062424 -0.017496 0)
(0.062424 -0.02916 0)
(0.062424 -0.040824 0)
(0.062424 -0.052488 0)
(0.062424 -0.064152 0)
(0.062424 -0.075816 0)
(0.062424 -0.08748 0)
(0.062424 -0.099144 0)
(0.062424 -0.110808 0)
(0.062424 -0.122472 0)
(0.062424 -0.134136 0)
(0.062424 -0.1458 0)
(0.062424 -0.157464 0)
(0.062424 -0.169128 0)
(0.062424 -0.180792 0)
(0.062424 -0.192456 0)
(0.062424 -0.20412 0)
(0.062424 -0.215784 0)
(0.062424 -0.227448 0)
(0.062424 -0.239112 0)
(0.062424 -0.250776 0)
(0.062424 -0.26244 0)
(0.062424 -0.274104 0)
(0.062424 -0.285768 0)
(0.062424 -0.297432 0)
(0.062424 -0.309096 0)
(0.062424 -0.32076 0)
(0.062424 -0.332424 0)
(0.062424 -0.344088 0)
(0.062424 -0.355752 0)
(0.062424 -0.367416 0)
(0.062424 -0.37908 0)
(0.062424 -0.390744 0)
(0.062424 -0.402408 0)
(0.062424 -0.414072 0)
(0.062424 -0.425736 0)
(0.062424 -0.4374 0)
(0.062424 -0.449064 0)
(0.062424 -0.460728 0)
(0.062424 -0.472392 0)
(0.062424 -0.484056 0)
(0.062424 -0.49572 0)
(0.062424 -0.507384 0)
(0.062424 -0.519048 0)
(0.062424 -0.530712 0)
(0.062424 -0.542376 0)
(0.062424 -0.55404 0)
(0.062424 -0.565704 0)
(0.062424 -0.577368 0)
(0.077976 -0.005832 0)
(0.077976 -0.017496 0)
(0.077976 -0.02916 0)
(0.077976 -0.040824 0)
(0.077976 -0.052488 0)
(0.077976 -0.064152 0)
(0.077976 -0.075816 0)
(0.077976 -0.08748 0)
(0.077976 -0.099144 0)
(0.077976 -0.110808 0)
(0.077976 -0.122472 0)
(0.077976 -0.134136 0)
(0.077976 -0.1458 0)
(0.077976 -0.157464 0)
(0.077976 -0.169128 0)
(0.077976 -0.180792 0)
(0.077976 -0.192456 0)
(0.077976 -0.20412 0)
(0.077976 -0.215784 0)
(0.077976 -0.227448 0)
(0.077976 -0.239112 0)
(0.077976 -0.250776 0)
(0.077976 -0.26244 0)
(0.077976 -0.274104 0)
(0.077976 -0.285768 0)
(0.077976 -0.297432 0)
(0.077976 -0.309096 0)
(0.077976 -0.32076 0)
(0.077976 -0.332424 0)
(0.077976 -0.344088 0)
(0.077976 -0.355752 0)
(0.077976 -0.367416 0)
(0.077976 -0.37908 0)
(0.077976 -0.390744 0)
(0.077976 -0.402408 0)
(0.077976 -0.414072 0)
(0.077976 -0.425736 0)
(0.077976 -0.4374 0)
(0.077976 -0.449064 0)
(0.077976 -0.460728 0)
(0.077976 -0.472392 0)
(0.077976 -0.484056 0)
(0.077976 -0.49572 0)
(0.077976 -0.507384 0)
(0.077976 -0.519048 0)
(0.077976 -0.530712 0)
(0.077976 -0.542376 0)
(0.077976 -0.55404 0)
(0.077976 -0.565704 0)
(0.077976 -0.577368 0)
(0.095256 -0.005832 0)
(0.095256 -0.017496 0)
(0.095256 -0.02916 0)
(0.095256 -0.040824 0)
(0.095256 -0.052488 0)
(0.095256 -0.064152 0)
(0.095256 -0.075816 0)
(0.095256 -0.08748 0)
(0.095256 -0.099144 0)
(0.095256 -0.110808 0)
(0.095256 -0.122472 0)
(0.095256 -0.134136 0)
(0.095256 -0.1458 0)
(0.095256 -0.157464 0)
(0.095256 -0.169128 0)
(0.095256 -0.180792 0)
(0.095256 -0.192456 0)
(0.095256 -0.20412 0)
(0.095256 -0.215784 0)
(0.095256 -0.227448 0)
(0.095256 -0.239112 0)
(0.095256 -0.250776 0)
(0.095256 -0.26244 0)
(0.095256 -0.274104 0)
(0.095256 -0.285768 0)
(0.095256 -0.297432 0)
(0.095256 -0.309096 0)
(0.095256 -0.32076 0)
(0.095256 -0.332424 0)
(0.095256 -0.344088 0)
(0.095256 -0.355752 0)
(0.095256 -0.367416 0)
(0.095256 -0.37908 0)
(0.095256 -0.390744 0)
(0.095256 -0.402408 0)
(0.095256 -0.414072 0)
(0.095256 -0.425736 0)
(0.095256 -0.4374 0)
(0.095256 -0.449064 0)
(0.095256 -0.460728 0)
(0.095256 -0.472392 0)
(0.095256 -0.484056 0)
(0.095256 -0.49572 0)
(0.095256 -0.507384 0)
(0.095256 -0.519048 0)
(0.095256 -0.530712 0)
(0.095256 -0.542376 0)
(0.095256 -0.55404 0)
(0.095256 -0.565704 0)
(0.095256 -0.577368 0)
(0.114264 -0.005832 0)
(0.114264 -0.017496 0)
(0.114264 -0.02916 0)
(0.114264 -0.040824 0)
(0.114264 -0.052488 0)
(0.114264 -0.064152 0)
(0.114264 -0.075816 0)
(0.114264 -0.08748 0)
(0.114264 -0.099144 0)
(0.114264 -0.110808 0)
(0.114264 -0.122472 0)
(0.114264 -0.134136 0)
(0.114264 -0.1458 0)
(0.114264 -0.157464 0)
(0.114264 -0.169128 0)
(0.114264 -0.180792 0)
(0.114264 -0.192456 0)
(0.114264 -0.20412 0)
(0.114264 -0.215784 0)
(0.114264 -0.227448 0)
(0.114264 -0.239112 0)
(0.114264 -0.250776 0)
(0.114264 -0.26244 0)
(0.114264 -0.274104 0)
(0.114264 -0.285768 0)
(0.114264 -0.297432 0)
(0.114264 -0.309096 0)
(0.114264 -0.32076 0)
(0.114264 -0.332424 0)
(0.114264 -0.344088 0)
(0.114264 -0.355752 0)
(0.114264 -0.367416 0)
(0.114264 -0.37908 0)
(0.114264 -0.390744 0)
(0.114264 -0.402408 0)
(0.114264 -0.414072 0)
(0.114264 -0.425736 0)
(0.114264 -0.4374 0)
(0.114264 -0.449064 0)
(0.114264 -0.460728 0)
(0.114264 -0.472392 0)
(0.114264 -0.484056 0)
(0.114264 -0.49572 0)
(0.114264 -0.507384 0)
(0.114264 -0.519048 0)
(0.114264 -0.530712 0)
(0.114264 -0.542376 0)
(0.114264 -0.55404 0)
(0.114264 -0.565704 0)
(0.114264 -0.577368 0)
(0.135 -0.005832 0)
(0.135 -0.017496 0)
(0.135 -0.02916 0)
(0.135 -0.040824 0)
(0.135 -0.052488 0)
(0.135 -0.064152 0)
(0.135 -0.075816 0)
(0.135 -0.08748 0)
(0.135 -0.099144 0)
(0.135 -0.110808 0)
(0.135 -0.122472 0)
(0.135 -0.134136 0)
(0.135 -0.1458 0)
(0.135 -0.157464 0)
(0.135 -0.169128 0)
(0.135 -0.180792 0)
(0.135 -0.192456 0)
(0.135 -0.20412 0)
(0.135 -0.215784 0)
(0.135 -0.227448 0)
(0.135 -0.239112 0)
(0.135 -0.250776 0)
(0.135 -0.26244 0)
(0.135 -0.274104 0)
(0.135 -0.285768 0)
(0.135 -0.297432 0)
(0.135 -0.309096 0)
(0.135 -0.32076 0)
(0.135 -0.332424 0)
(0.135 -0.344088 0)
(0.135 -0.355752 0)
(0.135 -0.367416 0)
(0.135 -0.37908 0)
(0.135 -0.390744 0)
(0.135 -0.402408 0)
(0.135 -0.414072 0)
(0.135 -0.425736 0)
(0.135 -0.4374 0)
(0.135 -0.449064 0)
(0.135 -0.460728 0)
(0.135 -0.472392 0)
(0.135 -0.484056 0)
(0.135 -0.49572 0)
(0.135 -0.507384 0)
(0.135 -0.519048 0)
(0.135 -0.530712 0)
(0.135 -0.542376 0)
(0.135 -0.55404 0)
(0.135 -0.565704 0)
(0.135 -0.577368 0)
(0.157464 -0.005832 0)
(0.157464 -0.017496 0)
(0.157464 -0.02916 0)
(0.157464 -0.040824 0)
(0.157464 -0.052488 0)
(0.157464 -0.064152 0)
(0.157464 -0.075816 0)
(0.157464 -0.08748 0)
(0.157464 -0.099144 0)
(0.157464 -0.110808 0)
(0.157464 -0.122472 0)
(0.157464 -0.134136 0)
(0.157464 -0.1458 0)
(0.157464 -0.157464 0)
(0.157464 -0.169128 0)
(0.157464 -0.180792 0)
(0.157464 -0.192456 0)
(0.157464 -0.20412 0)
(0.157464 -0.215784 0)
(0.157464 -0.227448 0)
(0.157464 -0.239112 0)
(0.157464 -0.250776 0)
(0.157464 -0.26244 0)
(0.157464 -0.274104 0)
(0.157464 -0.285768 0)
(0.157464 -0.297432 0)
(0.157464 -0.309096 0)
(0.157464 -0.32076 0)
(0.157464 -0.332424 0)
(0.157464 -0.344088 0)
(0.157464 -0.355752 0)
(0.157464 -0.367416 0)
(0.157464 -0.37908 0)
(0.157464 -0.390744 0)
(0.157464 -0.402408 0)
(0.157464 -0.414072 0)
(0.157464 -0.425736 0)
(0.157464 -0.4374 0)
(0.157464 -0.449064 0)
(0.157464 -0.460728 0)
(0.157464 -0.472392 0)
(0.157464 -0.484056 0)
(0.157464 -0.49572 0)
(0.157464 -0.507384 0)
(0.157464 -0.519048 0)
(0.157464 -0.530712 0)
(0.157464 -0.542376 0)
(0.157464 -0.55404 0)
(0.157464 -0.565704 0)
(0.157464 -0.577368 0)
(0.181656 -0.005832 0)
(0.181656 -0.017496 0)
(0.181656 -0.02916 0)
(0.181656 -0.040824 0)
(0.181656 -0.052488 0)
(0.181656 -0.064152 0)
(0.181656 -0.075816 0)
(0.181656 -0.08748 0)
(0.181656 -0.099144 0)
(0.181656 -0.110808 0)
(0.181656 -0.122472 0)
(0.181656 -0.134136 0)
(0.181656 -0.1458 0)
(0.181656 -0.157464 0)
(0.181656 -0.169128 0)
(0.181656 -0.180792 0)
(0.181656 -0.192456 0)
(0.181656 -0.20412 0)
(0.181656 -0.215784 0)
(0.181656 -0.227448 0)
(0.181656 -0.239112 0)
(0.181656 -0.250776 0)
(0.181656 -0.26244 0)
(0.181656 -0.274104 0)
(0.181656 -0.285768 0)
(0.181656 -0.297432 0)
(0.181656 -0.309096 0)
(0.181656 -0.32076 0)
(0.181656 -0.332424 0)
(0.181656 -0.344088 0)
(0.181656 -0.355752 0)
(0.181656 -0.367416 0)
(0.181656 -0.37908 0)
(0.181656 -0.390744 0)
(0.181656 -0.402408 0)
(0.181656 -0.414072 0)
(0.181656 -0.425736 0)
(0.181656 -0.4374 0)
(0.181656 -0.449064 0)
(0.181656 -0.460728 0)
(0.181656 -0.472392 0)
(0.181656 -0.484056 0)
(0.181656 -0.49572 0)
(0.181656 -0.507384 0)
(0.181656 -0.519048 0)
(0.181656 -0.530712 0)
(0.181656 -0.542376 0)
(0.181656 -0.55404 0)
(0.181656 -0.565704 0)
(0.181656 -0.577368 0)
(0.207576 -0.005832 0)
(0.207576 -0.017496 0)
(0.207576 -0.02916 0)
(0.207576 -0.040824 0)
(0.207576 -0.052488 0)
(0.207576 -0.064152 0)
(0.207576 -0.075816 0)
(0.207576 -0.08748 0)
(0.207576 -0.099144 0)
(0.207576 -0.110808 0)
(0.207576 -0.122472 0)
(0.207576 -0.134136 0)
(0.207576 -0.1458 0)
(0.207576 -0.157464 0)
(0.207576 -0.169128 0)
(0.207576 -0.180792 0)
(0.207576 -0.192456 0)
(0.207576 -0.20412 0)
(0.207576 -0.215784 0)
(0.207576 -0.227448 0)
(0.207576 -0.239112 0)
(0.207576 -0.250776 0)
(0.207576 -0.26244 0)
(0.207576 -0.274104 0)
(0.207576 -0.285768 0)
(0.207576 -0.297432 0)
(0.207576 -0.309096 0)
(0.207576 -0.32076 0)
(0.207576 -0.332424 0)
(0.207576 -0.344088 0)
(0.207576 -0.355752 0)
(0.207576 -0.367416 0)
(0.207576 -0.37908 0)
(0.207576 -0.390744 0)
(0.207576 -0.402408 0)
(0.207576 -0.414072 0)
(0.207576 -0.425736 0)
(0.207576 -0.4374 0)
(0.207576 -0.449064 0)
(0.207576 -0.460728 0)
(0.207576 -0.472392 0)
(0.207576 -0.484056 0)
(0.207576 -0.49572 0)
(0.207576 -0.507384 0)
(0.207576 -0.519048 0)
(0.207576 -0.530712 0)
(0.207576 -0.542376 0)
(0.207576 -0.55404 0)
(0.207576 -0.565704 0)
(0.207576 -0.577368 0)
(0.235224 -0.005832 0)
(0.235224 -0.017496 0)
(0.235224 -0.02916 0)
(0.235224 -0.040824 0)
(0.235224 -0.052488 0)
(0.235224 -0.064152 0)
(0.235224 -0.075816 0)
(0.235224 -0.08748 0)
(0.235224 -0.099144 0)
(0.235224 -0.110808 0)
(0.235224 -0.122472 0)
(0.235224 -0.134136 0)
(0.235224 -0.1458 0)
(0.235224 -0.157464 0)
(0.235224 -0.169128 0)
(0.235224 -0.180792 0)
(0.235224 -0.192456 0)
(0.235224 -0.20412 0)
(0.235224 -0.215784 0)
(0.235224 -0.227448 0)
(0.235224 -0.239112 0)
(0.235224 -0.250776 0)
(0.235224 -0.26244 0)
(0.235224 -0.274104 0)
(0.235224 -0.285768 0)
(0.235224 -0.297432 0)
(0.235224 -0.309096 0)
(0.235224 -0.32076 0)
(0.235224 -0.332424 0)
(0.235224 -0.344088 0)
(0.235224 -0.355752 0)
(0.235224 -0.367416 0)
(0.235224 -0.37908 0)
(0.235224 -0.390744 0)
(0.235224 -0.402408 0)
(0.235224 -0.414072 0)
(0.235224 -0.425736 0)
(0.235224 -0.4374 0)
(0.235224 -0.449064 0)
(0.235224 -0.460728 0)
(0.235224 -0.472392 0)
(0.235224 -0.484056 0)
(0.235224 -0.49572 0)
(0.235224 -0.507384 0)
(0.235224 -0.519048 0)
(0.235224 -0.530712 0)
(0.235224 -0.542376 0)
(0.235224 -0.55404 0)
(0.235224 -0.565704 0)
(0.235224 -0.577368 0)
(0.2646 -0.005832 0)
(0.2646 -0.017496 0)
(0.2646 -0.02916 0)
(0.2646 -0.040824 0)
(0.2646 -0.052488 0)
(0.2646 -0.064152 0)
(0.2646 -0.075816 0)
(0.2646 -0.08748 0)
(0.2646 -0.099144 0)
(0.2646 -0.110808 0)
(0.2646 -0.122472 0)
(0.2646 -0.134136 0)
(0.2646 -0.1458 0)
(0.2646 -0.157464 0)
(0.2646 -0.169128 0)
(0.2646 -0.180792 0)
(0.2646 -0.192456 0)
(0.2646 -0.20412 0)
(0.2646 -0.215784 0)
(0.2646 -0.227448 0)
(0.2646 -0.239112 0)
(0.2646 -0.250776 0)
(0.2646 -0.26244 0)
(0.2646 -0.274104 0)
(0.2646 -0.285768 0)
(0.2646 -0.297432 0)
(0.2646 -0.309096 0)
(0.2646 -0.32076 0)
(0.2646 -0.332424 0)
(0.2646 -0.344088 0)
(0.2646 -0.355752 0)
(0.2646 -0.367416 0)
(0.2646 -0.37908 0)
(0.2646 -0.390744 0)
(0.2646 -0.402408 0)
(0.2646 -0.414072 0)
(0.2646 -0.425736 0)
(0.2646 -0.4374 0)
(0.2646 -0.449064 0)
(0.2646 -0.460728 0)
(0.2646 -0.472392 0)
(0.2646 -0.484056 0)
(0.2646 -0.49572 0)
(0.2646 -0.507384 0)
(0.2646 -0.519048 0)
(0.2646 -0.530712 0)
(0.2646 -0.542376 0)
(0.2646 -0.55404 0)
(0.2646 -0.565704 0)
(0.2646 -0.577368 0)
(0.295704 -0.005832 0)
(0.295704 -0.017496 0)
(0.295704 -0.02916 0)
(0.295704 -0.040824 0)
(0.295704 -0.052488 0)
(0.295704 -0.064152 0)
(0.295704 -0.075816 0)
(0.295704 -0.08748 0)
(0.295704 -0.099144 0)
(0.295704 -0.110808 0)
(0.295704 -0.122472 0)
(0.295704 -0.134136 0)
(0.295704 -0.1458 0)
(0.295704 -0.157464 0)
(0.295704 -0.169128 0)
(0.295704 -0.180792 0)
(0.295704 -0.192456 0)
(0.295704 -0.20412 0)
(0.295704 -0.215784 0)
(0.295704 -0.227448 0)
(0.295704 -0.239112 0)
(0.295704 -0.250776 0)
(0.295704 -0.26244 0)
(0.295704 -0.274104 0)
(0.295704 -0.285768 0)
(0.295704 -0.297432 0)
(0.295704 -0.309096 0)
(0.295704 -0.32076 0)
(0.295704 -0.332424 0)
(0.295704 -0.344088 0)
(0.295704 -0.355752 0)
(0.295704 -0.367416 0)
(0.295704 -0.37908 0)
(0.295704 -0.390744 0)
(0.295704 -0.402408 0)
(0.295704 -0.414072 0)
(0.295704 -0.425736 0)
(0.295704 -0.4374 0)
(0.295704 -0.449064 0)
(0.295704 -0.460728 0)
(0.295704 -0.472392 0)
(0.295704 -0.484056 0)
(0.295704 -0.49572 0)
(0.295704 -0.507384 0)
(0.295704 -0.519048 0)
(0.295704 -0.530712 0)
(0.295704 -0.542376 0)
(0.295704 -0.55404 0)
(0.295704 -0.565704 0)
(0.295704 -0.577368 0)
(0.328536 -0.005832 0)
(0.328536 -0.017496 0)
(0.328536 -0.02916 0)
(0.328536 -0.040824 0)
(0.328536 -0.052488 0)
(0.328536 -0.064152 0)
(0.328536 -0.075816 0)
(0.328536 -0.08748 0)
(0.328536 -0.099144 0)
(0.328536 -0.110808 0)
(0.328536 -0.122472 0)
(0.328536 -0.134136 0)
(0.328536 -0.1458 0)
(0.328536 -0.157464 0)
(0.328536 -0.169128 0)
(0.328536 -0.180792 0)
(0.328536 -0.192456 0)
(0.328536 -0.20412 0)
(0.328536 -0.215784 0)
(0.328536 -0.227448 0)
(0.328536 -0.239112 0)
(0.328536 -0.250776 0)
(0.328536 -0.26244 0)
(0.328536 -0.274104 0)
(0.328536 -0.285768 0)
(0.328536 -0.297432 0)
(0.328536 -0.309096 0)
(0.328536 -0.32076 0)
(0.328536 -0.332424 0)
(0.328536 -0.344088 0)
(0.328536 -0.355752 0)
(0.328536 -0.367416 0)
(0.328536 -0.37908 0)
(0.328536 -0.390744 0)
(0.328536 -0.402408 0)
(0.328536 -0.414072 0)
(0.328536 -0.425736 0)
(0.328536 -0.4374 0)
(0.328536 -0.449064 0)
(0.328536 -0.460728 0)
(0.328536 -0.472392 0)
(0.328536 -0.484056 0)
(0.328536 -0.49572 0)
(0.328536 -0.507384 0)
(0.328536 -0.519048 0)
(0.328536 -0.530712 0)
(0.328536 -0.542376 0)
(0.328536 -0.55404 0)
(0.328536 -0.565704 0)
(0.328536 -0.577368 0)
(0.363096 -0.005832 0)
(0.363096 -0.017496 0)
(0.363096 -0.02916 0)
(0.363096 -0.040824 0)
(0.363096 -0.052488 0)
(0.363096 -0.064152 0)
(0.363096 -0.075816 0)
(0.363096 -0.08748 0)
(0.363096 -0.099144 0)
(0.363096 -0.110808 0)
(0.363096 -0.122472 0)
(0.363096 -0.134136 0)
(0.363096 -0.1458 0)
(0.363096 -0.157464 0)
(0.363096 -0.169128 0)
(0.363096 -0.180792 0)
(0.363096 -0.192456 0)
(0.363096 -0.20412 0)
(0.363096 -0.215784 0)
(0.363096 -0.227448 0)
(0.363096 -0.239112 0)
(0.363096 -0.250776 0)
(0.363096 -0.26244 0)
(0.363096 -0.274104 0)
(0.363096 -0.285768 0)
(0.363096 -0.297432 0)
(0.363096 -0.309096 0)
(0.363096 -0.32076 0)
(0.363096 -0.332424 0)
(0.363096 -0.344088 0)
(0.363096 -0.355752 0)
(0.363096 -0.367416 0)
(0.363096 -0.37908 0)
(0.363096 -0.390744 0)
(0.363096 -0.402408 0)
(0.363096 -0.414072 0)
(0.363096 -0.425736 0)
(0.363096 -0.4374 0)
(0.363096 -0.449064 0)
(0.363096 -0.460728 0)
(0.363096 -0.472392 0)
(0.363096 -0.484056 0)
(0.363096 -0.49572 0)
(0.363096 -0.507384 0)
(0.363096 -0.519048 0)
(0.363096 -0.530712 0)
(0.363096 -0.542376 0)
(0.363096 -0.55404 0)
(0.363096 -0.565704 0)
(0.363096 -0.577368 0)
(0.399384 -0.005832 0)
(0.399384 -0.017496 0)
(0.399384 -0.02916 0)
(0.399384 -0.040824 0)
(0.399384 -0.052488 0)
(0.399384 -0.064152 0)
(0.399384 -0.075816 0)
(0.399384 -0.08748 0)
(0.399384 -0.099144 0)
(0.399384 -0.110808 0)
(0.399384 -0.122472 0)
(0.399384 -0.134136 0)
(0.399384 -0.1458 0)
(0.399384 -0.157464 0)
(0.399384 -0.169128 0)
(0.399384 -0.180792 0)
(0.399384 -0.192456 0)
(0.399384 -0.20412 0)
(0.399384 -0.215784 0)
(0.399384 -0.227448 0)
(0.399384 -0.239112 0)
(0.399384 -0.250776 0)
(0.399384 -0.26244 0)
(0.399384 -0.274104 0)
(0.399384 -0.285768 0)
(0.399384 -0.297432 0)
(0.399384 -0.309096 0)
(0.399384 -0.32076 0)
(0.399384 -0.332424 0)
(0.399384 -0.344088 0)
(0.399384 -0.355752 0)
(0.399384 -0.367416 0)
(0.399384 -0.37908 0)
(0.399384 -0.390744 0)
(0.399384 -0.402408 0)
(0.399384 -0.414072 0)
(0.399384 -0.425736 0)
(0.399384 -0.4374 0)
(0.399384 -0.449064 0)
(0.399384 -0.460728 0)
(0.399384 -0.472392 0)
(0.399384 -0.484056 0)
(0.399384 -0.49572 0)
(0.399384 -0.507384 0)
(0.399384 -0.519048 0)
(0.399384 -0.530712 0)
(0.399384 -0.542376 0)
(0.399384 -0.55404 0)
(0.399384 -0.565704 0)
(0.399384 -0.577368 0)
(0.4374 -0.005832 0)
(0.4374 -0.017496 0)
(0.4374 -0.02916 0)
(0.4374 -0.040824 0)
(0.4374 -0.052488 0)
(0.4374 -0.064152 0)
(0.4374 -0.075816 0)
(0.4374 -0.08748 0)
(0.4374 -0.099144 0)
(0.4374 -0.110808 0)
(0.4374 -0.122472 0)
(0.4374 -0.134136 0)
(0.4374 -0.1458 0)
(0.4374 -0.157464 0)
(0.4374 -0.169128 0)
(0.4374 -0.180792 0)
(0.4374 -0.192456 0)
(0.4374 -0.20412 0)
(0.4374 -0.215784 0)
(0.4374 -0.227448 0)
(0.4374 -0.239112 0)
(0.4374 -0.250776 0)
(0.4374 -0.26244 0)
(0.4374 -0.274104 0)
(0.4374 -0.285768 0)
(0.4374 -0.297432 0)
(0.4374 -0.309096 0)
(0.4374 -0.32076 0)
(0.4374 -0.332424 0)
(0.4374 -0.344088 0)
(0.4374 -0.355752 0)
(0.4374 -0.367416 0)
(0.4374 -0.37908 0)
(0.4374 -0.390744 0)
(0.4374 -0.402408 0)
(0.4374 -0.414072 0)
(0.4374 -0.425736 0)
(0.4374 -0.4374 0)
(0.4374 -0.449064 0)
(0.4374 -0.460728 0)
(0.4374 -0.472392 0)
(0.4374 -0.484056 0)
(0.4374 -0.49572 0)
(0.4374 -0.507384 0)
(0.4374 -0.519048 0)
(0.4374 -0.530712 0)
(0.4374 -0.542376 0)
(0.4374 -0.55404 0)
(0.4374 -0.565704 0)
(0.4374 -0.577368 0)
(0.477144 -0.005832 0)
(0.477144 -0.017496 0)
(0.477144 -0.02916 0)
(0.477144 -0.040824 0)
(0.477144 -0.052488 0)
(0.477144 -0.064152 0)
(0.477144 -0.075816 0)
(0.477144 -0.08748 0)
(0.477144 -0.099144 0)
(0.477144 -0.110808 0)
(0.477144 -0.122472 0)
(0.477144 -0.134136 0)
(0.477144 -0.1458 0)
(0.477144 -0.157464 0)
(0.477144 -0.169128 0)
(0.477144 -0.180792 0)
(0.477144 -0.192456 0)
(0.477144 -0.20412 0)
(0.477144 -0.215784 0)
(0.477144 -0.227448 0)
(0.477144 -0.239112 0)
(0.477144 -0.250776 0)
(0.477144 -0.26244 0)
(0.477144 -0.274104 0)
(0.477144 -0.285768 0)
(0.477144 -0.297432 0)
(0.477144 -0.309096 0)
(0.477144 -0.32076 0)
(0.477144 -0.332424 0)
(0.477144 -0.344088 0)
(0.477144 -0.355752 0)
(0.477144 -0.367416 0)
(0.477144 -0.37908 0)
(0.477144 -0.390744 0)
(0.477144 -0.402408 0)
(0.477144 -0.414072 0)
(0.477144 -0.425736 0)
(0.477144 -0.4374 0)
(0.477144 -0.449064 0)
(0.477144 -0.460728 0)
(0.477144 -0.472392 0)
(0.477144 -0.484056 0)
(0.477144 -0.49572 0)
(0.477144 -0.507384 0)
(0.477144 -0.519048 0)
(0.477144 -0.530712 0)
(0.477144 -0.542376 0)
(0.477144 -0.55404 0)
(0.477144 -0.565704 0)
(0.477144 -0.577368 0)
(0.518616 -0.005832 0)
(0.518616 -0.017496 0)
(0.518616 -0.02916 0)
(0.518616 -0.040824 0)
(0.518616 -0.052488 0)
(0.518616 -0.064152 0)
(0.518616 -0.075816 0)
(0.518616 -0.08748 0)
(0.518616 -0.099144 0)
(0.518616 -0.110808 0)
(0.518616 -0.122472 0)
(0.518616 -0.134136 0)
(0.518616 -0.1458 0)
(0.518616 -0.157464 0)
(0.518616 -0.169128 0)
(0.518616 -0.180792 0)
(0.518616 -0.192456 0)
(0.518616 -0.20412 0)
(0.518616 -0.215784 0)
(0.518616 -0.227448 0)
(0.518616 -0.239112 0)
(0.518616 -0.250776 0)
(0.518616 -0.26244 0)
(0.518616 -0.274104 0)
(0.518616 -0.285768 0)
(0.518616 -0.297432 0)
(0.518616 -0.309096 0)
(0.518616 -0.32076 0)
(0.518616 -0.332424 0)
(0.518616 -0.344088 0)
(0.518616 -0.355752 0)
(0.518616 -0.367416 0)
(0.518616 -0.37908 0)
(0.518616 -0.390744 0)
(0.518616 -0.402408 0)
(0.518616 -0.414072 0)
(0.518616 -0.425736 0)
(0.518616 -0.4374 0)
(0.518616 -0.449064 0)
(0.518616 -0.460728 0)
(0.518616 -0.472392 0)
(0.518616 -0.484056 0)
(0.518616 -0.49572 0)
(0.518616 -0.507384 0)
(0.518616 -0.519048 0)
(0.518616 -0.530712 0)
(0.518616 -0.542376 0)
(0.518616 -0.55404 0)
(0.518616 -0.565704 0)
(0.518616 -0.577368 0)
(0.561816 -0.005832 0)
(0.561816 -0.017496 0)
(0.561816 -0.02916 0)
(0.561816 -0.040824 0)
(0.561816 -0.052488 0)
(0.561816 -0.064152 0)
(0.561816 -0.075816 0)
(0.561816 -0.08748 0)
(0.561816 -0.099144 0)
(0.561816 -0.110808 0)
(0.561816 -0.122472 0)
(0.561816 -0.134136 0)
(0.561816 -0.1458 0)
(0.561816 -0.157464 0)
(0.561816 -0.169128 0)
(0.561816 -0.180792 0)
(0.561816 -0.192456 0)
(0.561816 -0.20412 0)
(0.561816 -0.215784 0)
(0.561816 -0.227448 0)
(0.561816 -0.239112 0)
(0.561816 -0.250776 0)
(0.561816 -0.26244 0)
(0.561816 -0.274104 0)
(0.561816 -0.285768 0)
(0.561816 -0.297432 0)
(0.561816 -0.309096 0)
(0.561816 -0.32076 0)
(0.561816 -0.332424 0)
(0.561816 -0.344088 0)
(0.561816 -0.355752 0)
(0.561816 -0.367416 0)
(0.561816 -0.37908 0)
(0.561816 -0.390744 0)
(0.561816 -0.402408 0)
(0.561816 -0.414072 0)
(0.561816 -0.425736 0)
(0.561816 -0.4374 0)
(0.561816 -0.449064 0)
(0.561816 -0.460728 0)
(0.561816 -0.472392 0)
(0.561816 -0.484056 0)
(0.561816 -0.49572 0)
(0.561816 -0.507384 0)
(0.561816 -0.519048 0)
(0.561816 -0.530712 0)
(0.561816 -0.542376 0)
(0.561816 -0.55404 0)
(0.561816 -0.565704 0)
(0.561816 -0.577368 0)
(0.606744 -0.005832 0)
(0.606744 -0.017496 0)
(0.606744 -0.02916 0)
(0.606744 -0.040824 0)