/*--------------------------------*- C++ -*----------------------------------*\
| =========                 |                                                 |
| \\      /  F ield         | OpenFOAM: The Open Source CFD Toolbox           |
|  \\    /   O peration     | Version:  v2006                                 |
|   \\  /    A nd           | Website:  www.openfoam.com                      |
|    \\/     M anipulation  |                                                 |
\*---------------------------------------------------------------------------*/
FoamFile
{
    version     2.0;
    format      ascii;
    class       surfaceScalarField;
    location    "7.4";
    object      phi;
}
// * * * * * * * * * * * * * * * * * * * * * * * * * * * * * * * * * * * * * //

dimensions      [0 3 -1 0 0 0 0];
oriented        oriented;


internalField   nonuniform List<scalar> 
104500
(
6.74263e-05
-6.74263e-05
0.000154948
-8.75215e-05
0.000240234
-8.52859e-05
0.000320879
-8.0645e-05
0.000398983
-7.81041e-05
0.000476187
-7.72044e-05
0.000552962
-7.67745e-05
0.000629221
-7.6259e-05
0.000704787
-7.55666e-05
0.00077953
-7.47427e-05
0.000853362
-7.38324e-05
0.000926215
-7.28525e-05
0.000998022
-7.18072e-05
0.00106872
-7.06983e-05
0.00113825
-6.9528e-05
0.00120655
-6.83004e-05
0.00127357
-6.70196e-05
0.00133926
-6.56902e-05
0.00140358
-6.43164e-05
0.00146648
-6.29027e-05
0.00152793
-6.14538e-05
0.00158791
-5.99742e-05
0.00164637
-5.8468e-05
0.00170331
-5.6939e-05
0.0017587
-5.53912e-05
0.00181253
-5.38288e-05
0.00186479
-5.22557e-05
0.00191546
-5.06758e-05
0.00196456
-4.90925e-05
0.00201207
-4.7509e-05
0.00205799
-4.59286e-05
0.00210235
-4.43542e-05
0.00214514
-4.27881e-05
0.00218637
-4.12327e-05
0.00222606
-3.96903e-05
0.00226422
-3.8163e-05
0.00230087
-3.66522e-05
0.00233603
-3.51591e-05
0.00236972
-3.36835e-05
0.00240194
-3.22243e-05
0.00243272
-3.07786e-05
0.00246206
-2.93441e-05
0.00248999
-2.79215e-05
0.0025165
-2.65167e-05
0.00254164
-2.51407e-05
0.00256545
-2.3806e-05
0.00258797
-2.25221e-05
0.00260926
-2.12922e-05
0.00262938
-2.01141e-05
0.00264836
-1.89832e-05
0.00266626
-1.78948e-05
0.0026831
-1.68456e-05
0.00269894
-1.58338e-05
0.00271379
-1.48574e-05
0.00272771
-1.39142e-05
0.00274071
-1.30032e-05
0.00275284
-1.21278e-05
0.00276414
-1.13003e-05
0.00277468
-1.05423e-05
0.00278456
-9.87914e-06
0.00279389
-9.32759e-06
0.00280277
-8.88421e-06
0.00281129
-8.5215e-06
0.00281949
-8.19584e-06
0.00282735
-7.86324e-06
0.00283485
-7.49401e-06
0.00284192
-7.07902e-06
0.00284855
-6.62617e-06
0.0028547
-6.15146e-06
0.00286037
-5.67039e-06
0.00286557
-5.19347e-06
0.00287029
-4.72593e-06
0.00287456
-4.26959e-06
0.00287839
-3.82492e-06
0.00288178
-3.39211e-06
0.00288475
-2.97141e-06
0.00288731
-2.56305e-06
0.00288948
-2.1671e-06
0.00289126
-1.7834e-06
0.00289268
-1.41175e-06
0.00289373
-1.05161e-06
0.00289443
-7.02077e-07
0.00289479
-3.61329e-07
0.00289482
-2.64793e-08
0.00289452
3.00602e-07
0.0028939
6.15586e-07
0.00289299
9.10159e-07
0.00289181
1.18472e-06
0.00289036
1.44529e-06
0.00288866
1.7035e-06
0.00288668
1.97405e-06
0.00288441
2.27033e-06
0.00288181
2.59957e-06
0.00287885
2.95969e-06
0.00287551
3.33929e-06
0.00287179
3.72113e-06
0.00286771
4.08727e-06
0.00286328
4.42363e-06
0.00285856
4.72205e-06
0.00285358
4.97995e-06
0.00284838
5.19858e-06
0.002843
5.38088e-06
0.00283747
5.53028e-06
0.00283182
5.65005e-06
0.00282608
5.74328e-06
0.00282026
5.81282e-06
0.0028144
5.8611e-06
0.00280851
5.89011e-06
0.00280261
5.90118e-06
0.00279672
5.8953e-06
0.00279084
5.87297e-06
0.00278501
5.83445e-06
0.00277923
5.78018e-06
0.00277352
5.71107e-06
0.00276789
5.62747e-06
0.00276236
5.53004e-06
0.00275694
5.41934e-06
0.00275165
5.29591e-06
0.00274648
5.16045e-06
0.00274147
5.01371e-06
0.00273661
4.85642e-06
0.00273193
4.68927e-06
0.00272741
4.51292e-06
0.00272308
4.32802e-06
0.00271895
4.13518e-06
0.00271501
3.93489e-06
0.00271129
3.72755e-06
0.00270777
3.51346e-06
0.00270448
3.29291e-06
0.00270141
3.06616e-06
0.00269858
2.83354e-06
0.00269599
2.59533e-06
0.00269363
2.35187e-06
0.00269153
2.10367e-06
0.00268968
1.85154e-06
0.00268808
1.59666e-06
0.00268674
1.3407e-06
0.00268566
1.08583e-06
0.00268482
8.34972e-07
0.00268423
5.9243e-07
0.00268386
3.64766e-07
0.0026837
1.64e-07
0.00268371
-6.69953e-09
0.00268385
-1.45673e-07
0.00268405
-1.98032e-07
0.00268417
-1.24185e-07
0.00268403
1.42336e-07
0.00268351
5.24735e-07
0.00268263
8.79844e-07
0.00268156
1.0693e-06
0.00268052
1.03617e-06
0.0026797
8.17746e-07
0.00267921
4.93998e-07
0.00267905
1.62349e-07
0.00267919
-1.47487e-07
0.00267966
-4.60361e-07
0.00268042
-7.64718e-07
0.00268149
-1.06858e-06
0.00268286
-1.37521e-06
0.00268455
-1.68539e-06
0.00268655
-1.99914e-06
0.00268886
-2.31652e-06
0.0026915
-2.63778e-06
0.00269447
-2.96333e-06
0.00269776
-3.29426e-06
0.00270139
-3.63217e-06
0.00270537
-3.97904e-06
0.00270971
-4.33651e-06
0.00271441
-4.70543e-06
0.0027195
-5.08604e-06
0.00272498
-5.47864e-06
0.00273086
-5.88404e-06
0.00273717
-6.30373e-06
0.00274391
-6.74008e-06
0.0027511
-7.19645e-06
0.00275878
-7.67703e-06
0.00276697
-8.18591e-06
0.00277569
-8.72513e-06
0.00278498
-9.29205e-06
0.00279486
-9.87715e-06
0.00280532
-1.04633e-05
0.00281635
-1.1028e-05
0.0028279
-1.15478e-05
0.0028399
-1.20036e-05
0.00285229
-1.23853e-05
0.00286498
-1.26929e-05
0.00287791
-1.29347e-05
0.00289104
-1.31231e-05
0.00290431
-1.32711e-05
0.0029177
-1.33891e-05
0.00293118
-1.34848e-05
0.00294475
-1.35636e-05
0.00295838
-1.36296e-05
0.00297206
-1.36872e-05
0.0029858
-1.37409e-05
0.0029996
-1.37968e-05
0.00301346
-1.38618e-05
0.00302741
-1.39448e-05
0.00304146
-1.40568e-05
0.00305568
-1.42126e-05
0.00307011
-1.44308e-05
0.00308484
-1.47327e-05
0.00309998
-1.51368e-05
0.00311563
-1.56511e-05
0.00313189
-1.62636e-05
0.00314883
-1.69371e-05
0.00316644
-1.76101e-05
0.00318465
-1.82063e-05
0.0032033
-1.86511e-05
0.00322219
-1.88899e-05
0.00324109
-1.89015e-05
0.00325979
-1.8703e-05
0.00327814
-1.8344e-05
0.00329603
-1.78923e-05
0.00331344
-1.74157e-05
0.00333041
-1.69676e-05
0.00334699
-1.6578e-05
0.00336324
-1.62537e-05
0.00337923
-1.59849e-05
0.00339498
-1.5754e-05
0.00341052
-1.55435e-05
0.00342587
-1.53412e-05
0.00344101
-1.51413e-05
0.00345595
-1.49423e-05
0.00347069
-1.47448e-05
0.00348524
-1.45494e-05
0.0034996
-1.4355e-05
0.00351376
-1.41591e-05
0.00352772
-1.3958e-05
0.00354146
-1.37482e-05
0.00355499
-1.35268e-05
0.00356828
-1.32914e-05
0.00358132
-1.30406e-05
0.0035941
-1.27736e-05
0.00360659
-1.24897e-05
0.00361877
-1.21884e-05
0.00363064
-1.18693e-05
0.00364218
-1.15318e-05
0.00365335
-1.11757e-05
0.00366415
-1.08005e-05
0.00367456
-1.04061e-05
0.00368455
-9.99216e-06
0.00369411
-9.55837e-06
0.00370321
-9.10451e-06
0.00371184
-8.63038e-06
0.00371998
-8.13581e-06
0.0037276
-7.62058e-06
0.00373468
-7.08444e-06
0.00374121
-6.52697e-06
0.00374716
-5.94764e-06
0.0037525
-5.34562e-06
0.00375722
-4.71969e-06
0.00376129
-4.0681e-06
0.00376468
-3.38907e-06
0.00376736
-2.67923e-06
0.00376929
-1.92761e-06
0.00377041
-1.1256e-06
0.00377069
-2.735e-07
0.00376999
6.9571e-07
0.0037682
1.78867e-06
0.00376523
2.97106e-06
0.00376099
4.24659e-06
0.0037554
5.58204e-06
0.00374849
6.91058e-06
0.00374031
8.17808e-06
0.00373094
9.37703e-06
0.0037204
1.054e-05
0.00370869
1.17102e-05
0.00369577
1.29193e-05
0.00368158
1.41838e-05
0.00366607
1.55121e-05
0.00364916
1.69107e-05
0.00363077
1.83873e-05
0.00361082
1.99511e-05
0.00358921
2.16119e-05
0.00356583
2.33789e-05
0.00354057
2.52597e-05
0.00351331
2.72593e-05
0.00348394
2.93782e-05
0.00345232
3.16109e-05
0.00341838
3.39452e-05
0.00338202
3.63627e-05
0.00334318
3.88396e-05
0.00330183
4.13489e-05
0.00325797
4.38601e-05
0.00321163
4.63367e-05
0.0031629
4.87308e-05
0.00311192
5.09771e-05
0.00305893
5.29911e-05
0.00300425
5.46772e-05
0.00294831
5.59445e-05
0.00289158
5.67323e-05
0.00283451
5.70726e-05
0.00277747
5.70388e-05
0.00272085
5.66161e-05
0.00266509
5.57588e-05
0.00261067
5.44242e-05
0.002558
5.26723e-05
0.00250725
5.07436e-05
0.00245823
4.90188e-05
0.00241037
4.7863e-05
0.00236291
4.74604e-05
0.00231516
4.77488e-05
0.00226667
4.84858e-05
0.00221729
4.93802e-05
0.00216709
5.02022e-05
0.00211626
5.08301e-05
0.00206502
5.12416e-05
0.00201355
5.14733e-05
0.00196197
5.15775e-05
0.00191037
5.15955e-05
0.00185882
5.15526e-05
0.00180736
5.14651e-05
0.00175601
5.1348e-05
0.00170479
5.12162e-05
0.00165371
5.10812e-05
0.00160276
5.09485e-05
0.00155194
5.08179e-05
0.00150126
5.0686e-05
0.00145071
5.05495e-05
0.0014003
5.04072e-05
0.00135004
5.02606e-05
0.00129993
5.01125e-05
0.00124996
4.9965e-05
0.00120015
4.98186e-05
0.00115047
4.96726e-05
0.00110095
4.95261e-05
0.00105157
4.93791e-05
0.00100233
4.92334e-05
0.000953244
4.90903e-05
0.000904295
4.89495e-05
0.000855486
4.88089e-05
0.000806819
4.86665e-05
0.000758296
4.85228e-05
0.000709918
4.83783e-05
0.000661685
4.82336e-05
0.000613596
4.8089e-05
0.00056565
4.79456e-05
0.000517845
4.78048e-05
0.000470178
4.76673e-05
0.000422645
4.75329e-05
0.000375241
4.74037e-05
0.000327952
4.72896e-05
0.000280747
4.72044e-05
0.000233593
4.71542e-05
0.000186526
4.70668e-05
0.000139717
4.68091e-05
9.42305e-05
4.54868e-05
5.05733e-05
4.36572e-05
5.05733e-05
6.29624e-05
-0.000130389
0.000146281
-0.00017084
0.000226856
-0.000165861
0.000302535
-0.000156323
0.000375674
-0.000151244
0.000448018
-0.000149548
0.00052004
-0.000148796
0.000591608
-0.000147827
0.000662514
-0.000146473
0.000732629
-0.000144857
0.000801875
-0.000143079
0.000870193
-0.00014117
0.000937522
-0.000139137
0.00100381
-0.000136983
0.00106899
-0.000134713
0.00113303
-0.000132334
0.00119586
-0.000129856
0.00125746
-0.000127288
0.00131778
-0.00012464
0.0013768
-0.000121919
0.00143448
-0.000119135
0.0014908
-0.000116296
0.00154575
-0.000113412
0.0015993
-0.000110491
0.00165145
-0.00010754
0.00170219
-0.000104568
0.00175151
-0.000101582
0.00179943
-9.85897e-05
0.00184593
-9.55979e-05
0.00189104
-9.26134e-05
0.00193475
-8.96422e-05
0.00197709
-8.66896e-05
0.00201806
-8.37608e-05
0.00205769
-8.08604e-05
0.00209599
-7.79932e-05
0.00213299
-7.51634e-05
0.00216871
-7.23749e-05
0.00220319
-6.96308e-05
0.00223644
-6.69335e-05
0.0022685
-6.42844e-05
0.0022994
-6.16845e-05
0.00232919
-5.91341e-05
0.0023579
-5.66326e-05
0.00238556
-5.41792e-05
0.0024122
-5.17734e-05
0.00243781
-4.94165e-05
0.0024624
-4.71107e-05
0.00248596
-4.48593e-05
0.00250851
-4.2665e-05
0.00253006
-4.05293e-05
0.00255062
-3.84524e-05
0.00257021
-3.64337e-05
0.00258884
-3.44717e-05
0.00260655
-3.25648e-05
0.00262335
-3.07112e-05
0.00263926
-2.891e-05
0.00265429
-2.7161e-05
0.00266845
-2.5466e-05
0.00268174
-2.38286e-05
0.00269411
-2.22532e-05
0.00270553
-2.07435e-05
0.00271595
-1.92997e-05
0.00272534
-1.79178e-05
0.00273374
-1.65901e-05
0.00274118
-1.53069e-05
0.00274774
-1.40588e-05
0.00275351
-1.28392e-05
0.00275852
-1.1644e-05
0.00276284
-1.0472e-05
0.0027665
-9.32327e-06
0.0027695
-8.19865e-06
0.00277187
-7.09885e-06
0.00277363
-6.02428e-06
0.00277478
-4.97511e-06
0.00277534
-3.95136e-06
0.00277532
-2.95301e-06
0.00277474
-1.97998e-06
0.0027736
-1.03211e-06
0.00277193
-1.09273e-07
0.00276973
7.85677e-07
0.00276702
1.65476e-06
0.00276382
2.49785e-06
0.00276015
3.31393e-06
0.00275602
4.10021e-06
0.00275147
4.85393e-06
0.00274651
5.57568e-06
0.00274115
6.26431e-06
0.00273542
6.91793e-06
0.00272933
7.53515e-06
0.00272292
8.11777e-06
0.00271622
8.67051e-06
0.00270929
9.20128e-06
0.00270217
9.71829e-06
0.0026949
1.02289e-05
0.0026875
1.07368e-05
0.00267998
1.12412e-05
0.00267233
1.1738e-05
0.00266454
1.22205e-05
0.00265658
1.26815e-05
0.00264844
1.31149e-05
0.00264013
1.35157e-05
0.00263163
1.38807e-05
0.00262295
1.42079e-05
0.0026141
1.44962e-05
0.0026051
1.47449e-05
0.00259596
1.49543e-05
0.0025867
1.51245e-05
0.00257733
1.52561e-05
0.00256788
1.53496e-05
0.00255837
1.54057e-05
0.00254882
1.54247e-05
0.00253925
1.54071e-05
0.00252967
1.53528e-05
0.00252012
1.52623e-05
0.00251061
1.51355e-05
0.00250117
1.49726e-05
0.00249182
1.47742e-05
0.00248257
1.45405e-05
0.00247346
1.42721e-05
0.0024645
1.39695e-05
0.00245573
1.36332e-05
0.00244715
1.32638e-05
0.0024388
1.2862e-05
0.0024307
1.24287e-05
0.00242287
1.19647e-05
0.00241534
1.1471e-05
0.00240812
1.09484e-05
0.00240123
1.03977e-05
0.00239471
9.81986e-06
0.00238856
9.21567e-06
0.0023828
8.58604e-06
0.00237747
7.93174e-06
0.00237257
7.25347e-06
0.00236812
6.55178e-06
0.00236414
5.82702e-06
0.00236066
5.07936e-06
0.00235769
4.30885e-06
0.00235526
3.51541e-06
0.0023534
2.69877e-06
0.00235213
1.85835e-06
0.0023515
9.92506e-07
0.00235157
9.61764e-08
0.00235238
-8.11112e-07
0.00235397
-1.73974e-06
0.00235647
-2.69493e-06
0.00236001
-3.66539e-06
0.00236478
-4.63144e-06
0.00237088
-5.57139e-06
0.00237823
-6.4718e-06
0.00238663
-7.33382e-06
0.00239584
-8.17154e-06
0.00240566
-9.00368e-06
0.002416
-9.843e-06
0.00242685
-1.06901e-05
0.00243825
-1.15432e-05
0.00245019
-1.24009e-05
0.00246268
-1.32577e-05
0.00247572
-1.4111e-05
0.00248931
-1.49595e-05
0.00250342
-1.58019e-05
0.00251806
-1.66375e-05
0.00253321
-1.74653e-05
0.00254886
-1.82847e-05
0.00256499
-1.90945e-05
0.00258159
-1.98938e-05
0.00259864
-2.06816e-05
0.00261612
-2.14576e-05
0.002634
-2.22211e-05
0.00265227
-2.29716e-05
0.00267089
-2.37085e-05
0.00268984
-2.44312e-05
0.0027091
-2.51391e-05
0.00272863
-2.58315e-05
0.00274839
-2.65078e-05
0.00276836
-2.71677e-05
0.0027885
-2.7811e-05
0.00280875
-2.84381e-05
0.00282908
-2.90495e-05
0.00284943
-2.96451e-05
0.00286978
-3.02242e-05
0.0028901
-3.07842e-05
0.00291039
-3.13214e-05
0.00293067
-3.18305e-05
0.00295098
-3.23059e-05
0.00297133
-3.27426e-05
0.00299178
-3.31371e-05
0.00301233
-3.34876e-05
0.003033
-3.3794e-05
0.00305379
-3.40575e-05
0.00307468
-3.42797e-05
0.00309566
-3.44628e-05
0.0031167
-3.46093e-05
0.00313779
-3.47223e-05
0.00315891
-3.48052e-05
0.00318003
-3.48622e-05
0.00320113
-3.48978e-05
0.00322219
-3.49179e-05
0.00324317
-3.49294e-05
0.00326406
-3.49407e-05
0.00328481
-3.49618e-05
0.00330538
-3.50042e-05
0.00332573
-3.50794e-05
0.00334579
-3.51964e-05
0.00336549
-3.53572e-05
0.00338478
-3.5553e-05
0.00340361
-3.57618e-05
0.00342195
-3.59492e-05
0.00343981
-3.6074e-05
0.00345726
-3.60968e-05
0.00347436
-3.59897e-05
0.0034912
-3.57423e-05
0.00350786
-3.53639e-05
0.0035244
-3.48802e-05
0.00354083
-3.43259e-05
0.00355715
-3.37367e-05
0.00357333
-3.3142e-05
0.00358931
-3.25605e-05
0.00360506
-3.20001e-05
0.00362053
-3.1459e-05
0.00363571
-3.09299e-05
0.00365057
-3.04033e-05
0.0036651
-2.9871e-05
0.00367928
-2.93266e-05
0.0036931
-2.87665e-05
0.00370655
-2.81887e-05
0.00371959
-2.75918e-05
0.00373221
-2.69744e-05
0.00374439
-2.63344e-05
0.0037561
-2.56695e-05
0.00376733
-2.49776e-05
0.00377806
-2.42566e-05
0.00378827
-2.35054e-05
0.00379795
-2.2723e-05
0.00380709
-2.19092e-05
0.00381566
-2.10638e-05
0.00382366
-2.01869e-05
0.00383107
-1.92787e-05
0.00383788
-1.83391e-05
0.00384407
-1.73684e-05
0.00384964
-1.63669e-05
0.00385457
-1.53348e-05
0.00385885
-1.42725e-05
0.00386247
-1.31804e-05
0.00386542
-1.20591e-05
0.0038677
-1.09093e-05
0.0038693
-9.73154e-06
0.0038702
-8.52662e-06
0.00387041
-7.29524e-06
0.00386992
-6.03797e-06
0.00386873
-4.75553e-06
0.00386684
-3.44863e-06
0.00386423
-2.11759e-06
0.00386092
-7.57485e-07
0.0038569
6.3609e-07
0.00385218
2.03508e-06
0.0038468
3.45811e-06
0.00384078
4.89684e-06
0.00383416
6.3433e-06
0.00382705
7.79985e-06
0.00381957
9.27055e-06
0.00381178
1.07596e-05
0.00380376
1.22676e-05
0.00379555
1.37969e-05
0.00378711
1.53492e-05
0.00377836
1.6923e-05
0.00376923
1.85163e-05
0.00375964
2.01288e-05
0.00374958
2.17622e-05
0.00373908
2.34193e-05
0.00372816
2.51038e-05
0.00371686
2.68204e-05
0.00370519
2.85747e-05
0.00369321
3.03739e-05
0.00368093
3.22269e-05
0.0036684
3.41452e-05
0.00365563
3.61426e-05
0.00364266
3.82358e-05
0.00362947
4.04436e-05
0.00361606
4.27868e-05
0.00360239
4.52857e-05
0.00358838
4.79581e-05
0.00357392
5.08164e-05
0.0035589
5.38653e-05
0.00354315
5.71001e-05
0.0035265
6.05051e-05
0.00350879
6.40517e-05
0.00348982
6.76949e-05
0.00346943
7.13702e-05
0.00344743
7.4991e-05
0.00342365
7.84509e-05
0.00339799
8.16103e-05
0.0033704
8.43255e-05
0.00334095
8.65212e-05
0.00330983
8.81565e-05
0.00327723
8.92138e-05
0.00324329
8.97011e-05
0.00320805
8.96631e-05
0.00317151
8.92127e-05
0.0031337
8.8556e-05
0.00309474
8.79739e-05
0.00305486
8.77469e-05
0.00301425
8.80649e-05
0.00297303
8.89708e-05
0.00293115
9.03662e-05
0.00288847
9.20669e-05
0.00284479
9.38738e-05
0.0028
9.56276e-05
0.00275401
9.72327e-05
0.00270683
9.86529e-05
0.00265851
9.98911e-05
0.00260914
0.000100969
0.00255878
0.000101915
0.00250748
0.000102759
0.00245529
0.000103536
0.00240223
0.000104277
0.00234831
0.000105009
0.00229351
0.000105746
0.00223784
0.000106491
0.00218128
0.000107243
0.00212383
0.000107996
0.00206549
0.000108749
0.00200625
0.000109502
0.0019461
0.00011026
0.00188504
0.000111026
0.00182306
0.000111802
0.00176014
0.000112588
0.00169628
0.000113385
0.00163147
0.000114193
0.00156569
0.000115013
0.00149894
0.000115842
0.00143121
0.000116673
0.00136252
0.000117499
0.00129288
0.00011831
0.0012223
0.000119101
0.00115081
0.00011987
0.00107843
0.000120614
0.00100519
0.000121328
0.000931129
0.000122008
0.000856284
0.00012265
0.000780703
0.000123249
0.000704437
0.000123799
0.000627543
0.000124297
0.000550092
0.00012474
0.000472179
0.000125117
0.000393912
0.000125422
0.000315279
0.000125699
0.000236016
0.000126072
0.000156638
0.000124865
7.98631e-05
0.000120432
0.000130436
6.45573e-05
-0.000194946
0.000150426
-0.000256709
0.000234073
-0.000249508
0.000312618
-0.000234868
0.000388255
-0.00022688
0.000462907
-0.000224201
0.000537209
-0.000223098
0.000611076
-0.000221694
0.000684284
-0.000219681
0.000756673
-0.000217246
0.000828151
-0.000214556
0.000898652
-0.000211671
0.000968115
-0.0002086
0.00103648
-0.000205347
0.00110369
-0.00020192
0.00116968
-0.00019833
0.00123442
-0.000194593
0.00129785
-0.000190721
0.00135994
-0.000186728
0.00142065
-0.000182629
0.00147995
-0.000178436
0.00153782
-0.000174164
0.00159423
-0.000169825
0.00164917
-0.000165431
0.00170263
-0.000160996
0.00175459
-0.000156531
0.00180505
-0.000152047
0.00185402
-0.000147556
0.00190149
-0.000143067
0.00194747
-0.000138591
0.00199196
-0.000134135
0.00203498
-0.000129709
0.00207654
-0.000125321
0.00211666
-0.000120976
0.00215535
-0.000116682
0.00219263
-0.000112445
0.00222852
-0.00010827
0.00226305
-0.000104161
0.00229624
-0.000100123
0.00232812
-9.61603e-05
0.00235871
-9.22753e-05
0.00238804
-8.84699e-05
0.00241616
-8.47439e-05
0.00244307
-8.10959e-05
0.00246882
-7.7525e-05
0.00249344
-7.40316e-05
0.00251695
-7.06183e-05
0.00253938
-6.72888e-05
0.00256076
-6.40459e-05
0.00258112
-6.0891e-05
0.00260049
-5.78234e-05
0.0026189
-5.48419e-05
0.00263637
-5.19445e-05
0.00265294
-4.91294e-05
0.00266862
-4.63948e-05
0.00268345
-4.37382e-05
0.00269744
-4.11556e-05
0.00271062
-3.86417e-05
0.00272298
-3.61902e-05
0.00273452
-3.37969e-05
0.00274524
-3.14618e-05
0.00275513
-2.919e-05
0.0027642
-2.69896e-05
0.00277248
-2.48673e-05
0.00278
-2.28249e-05
0.0027868
-2.08581e-05
0.00279292
-1.89579e-05
0.00279839
-1.71144e-05
0.00280323
-1.53191e-05
0.00280748
-1.35667e-05
0.00281113
-1.18548e-05
0.00281422
-1.01825e-05
0.00281674
-8.54949e-06
0.00281872
-6.95545e-06
0.00282017
-5.40002e-06
0.0028211
-3.88289e-06
0.00282153
-2.40403e-06
0.00282146
-9.63487e-07
0.0028209
4.5016e-07
0.00281987
1.8149e-06
0.00281838
3.14475e-06
0.00281644
4.43757e-06
0.00281406
5.68991e-06
0.00281126
6.9032e-06
0.00280804
8.07457e-06
0.00280441
9.20379e-06
0.00280039
1.02898e-05
0.00279597
1.13287e-05
0.00279119
1.23181e-05
0.00278605
1.32571e-05
0.00278058
1.41448e-05
0.00277479
1.49881e-05
0.00276872
1.57909e-05
0.00276238
1.65626e-05
0.00275581
1.73073e-05
0.00274903
1.80295e-05
0.00274204
1.87275e-05
0.00273486
1.93979e-05
0.00272751
2.0035e-05
0.00271999
2.06332e-05
0.00271232
2.11873e-05
0.0027045
2.1694e-05
0.00269656
2.21501e-05
0.0026885
2.2554e-05
0.00268034
2.29042e-05
0.0026721
2.31997e-05
0.00266378
2.34403e-05
0.00265541
2.36256e-05
0.00264701
2.37558e-05
0.00263858
2.3831e-05
0.00263015
2.3851e-05
0.00262175
2.38162e-05
0.00261337
2.37266e-05
0.00260505
2.35822e-05
0.0025968
2.33834e-05
0.00258865
2.31302e-05
0.0025806
2.28229e-05
0.00257268
2.24618e-05
0.0025649
2.20473e-05
0.00255729
2.158e-05
0.00254986
2.10604e-05
0.00254264
2.04896e-05
0.00253563
1.98684e-05
0.00252886
1.91978e-05
0.00252235
1.84789e-05
0.00251611
1.77128e-05
0.00251015
1.69011e-05
0.00250451
1.60449e-05
0.00249918
1.51458e-05
0.00249419
1.42053e-05
0.00248955
1.32248e-05
0.00248528
1.22058e-05
0.00248138
1.11499e-05
0.00247787
1.00587e-05
0.00247477
8.93379e-06
0.00247207
7.77738e-06
0.00246979
6.59135e-06
0.00246793
5.37761e-06
0.00246649
4.13833e-06
0.00246547
2.87612e-06
0.00246486
1.59576e-06
0.00246467
2.89744e-07
0.00246493
-1.07101e-06
0.00246563
-2.43595e-06
0.00246677
-3.83376e-06
0.00246837
-5.27448e-06
0.0024705
-6.75728e-06
0.00247318
-8.25273e-06
0.00247642
-9.71082e-06
0.00248019
-1.10992e-05
0.00248444
-1.24231e-05
0.00248915
-1.37133e-05
0.00249431
-1.5003e-05
0.00249993
-1.63107e-05
0.00250602
-1.76389e-05
0.0025126
-1.89815e-05
0.00251968
-2.03304e-05
0.00252725
-2.16797e-05
0.00253531
-2.30254e-05
0.00254387
-2.43648e-05
0.00255293
-2.56956e-05
0.00256248
-2.70159e-05
0.00257252
-2.83237e-05
0.00258305
-2.96174e-05
0.00259405
-3.08956e-05
0.00260552
-3.21567e-05
0.00261746
-3.33993e-05
0.00262986
-3.46221e-05
0.00264272
-3.58238e-05
0.00265601
-3.70031e-05
0.00266974
-3.81589e-05
0.00268389
-3.92899e-05
0.00269845
-4.03948e-05
0.00271342
-4.1472e-05
0.00272877
-4.25195e-05
0.00274449
-4.35349e-05
0.00276057
-4.45154e-05
0.00277698
-4.54582e-05
0.0027937
-4.63614e-05
0.0028107
-4.72242e-05
0.00282796
-4.80469e-05
0.00284547
-4.88309e-05
0.00286321
-4.95776e-05
0.0028812
-5.02874e-05
0.00289941
-5.0959e-05
0.00291787
-5.159e-05
0.00293656
-5.2177e-05
0.00295548
-5.2717e-05
0.00297463
-5.32081e-05
0.002994
-5.36494e-05
0.00301358
-5.40417e-05
0.00303335
-5.43864e-05
0.00305332
-5.46851e-05
0.00307345
-5.49398e-05
0.00309374
-5.51533e-05
0.00311417
-5.53283e-05
0.00313472
-5.54684e-05
0.00315537
-5.55778e-05
0.00317609
-5.5661e-05
0.00319685
-5.57234e-05
0.00321762
-5.57701e-05
0.00323835
-5.58052e-05
0.00325898
-5.58297e-05
0.00327946
-5.58388e-05
0.00329973
-5.58203e-05
0.00331972
-5.57545e-05
0.00333939
-5.56164e-05
0.0033587
-5.53815e-05
0.00337763
-5.50326e-05
0.00339621
-5.45655e-05
0.00341446
-5.39907e-05
0.00343242
-5.33312e-05
0.00345016
-5.26157e-05
0.0034677
-5.18713e-05
0.00348509
-5.11179e-05
0.00350231
-5.03649e-05
0.00351936
-4.96122e-05
0.00353621
-4.88535e-05
0.00355283
-4.80797e-05
0.00356919
-4.72825e-05
0.00358524
-4.64553e-05
0.00360096
-4.5594e-05
0.00361633
-4.46961e-05
0.00363132
-4.376e-05
0.00364592
-4.27839e-05
0.00366009
-4.17663e-05
0.00367382
-4.0705e-05
0.00368709
-3.95985e-05
0.00369986
-3.84453e-05
0.00371213
-3.72445e-05
0.00372387
-3.59958e-05
0.00373506
-3.46989e-05
0.0037457
-3.33541e-05
0.00375575
-3.19619e-05
0.00376521
-3.05225e-05
0.00377406
-2.90366e-05
0.00378228
-2.75049e-05
0.00378987
-2.59282e-05
0.00379681
-2.43073e-05
0.00380309
-2.26433e-05
0.00380869
-2.09372e-05
0.00381361
-1.919e-05
0.00381783
-1.7403e-05
0.00382135
-1.55775e-05
0.00382415
-1.3715e-05
0.00382624
-1.18169e-05
0.0038276
-9.8849e-06
0.00382822
-7.92038e-06
0.00382811
-5.92486e-06
0.00382725
-3.89947e-06
0.00382565
-1.84531e-06
0.00382331
2.25131e-07
0.00382022
2.32802e-06
0.00381641
4.45028e-06
0.00381185
6.58872e-06
0.00380657
8.74449e-06
0.00380055
1.09181e-05
0.00379378
1.31082e-05
0.00378627
1.5312e-05
0.00377802
1.75238e-05
0.00376904
1.97371e-05
0.00375936
2.19449e-05
0.00374901
2.41503e-05
0.00373799
2.63683e-05
0.0037263
2.86143e-05
0.00371392
3.08935e-05
0.00370085
3.32003e-05
0.00368708
3.55262e-05
0.00367264
3.78667e-05
0.00365752
4.0222e-05
0.00364174
4.25954e-05
0.00362533
4.49912e-05
0.00360829
4.74141e-05
0.00359065
4.98693e-05
0.00357243
5.23631e-05
0.00355367
5.49033e-05
0.0035344
5.74997e-05
0.00351468
6.01644e-05
0.00349456
6.29123e-05
0.00347408
6.57601e-05
0.00345332
6.87244e-05
0.00343231
7.182e-05
0.00341112
7.50566e-05
0.00338978
7.84371e-05
0.00336833
8.19553e-05
0.00334679
8.55953e-05
0.00332516
8.93298e-05
0.00330341
9.31184e-05
0.00328149
9.69078e-05
0.00325931
0.000100631
0.00323672
0.000104205
0.0032135
0.000107544
0.00318944
0.00011058
0.00316433
0.000113261
0.00313799
0.000115557
0.00311023
0.00011746
0.0030809
0.000118998
0.00304986
0.000120254
0.00301704
0.00012137
0.00298248
0.000122533
0.00294631
0.000123919
0.00290873
0.00012565
0.00286993
0.000127769
0.00283007
0.000130228
0.00278922
0.000132915
0.00274741
0.000135677
0.00270468
0.000138366
0.00266103
0.000140875
0.00261653
0.000143158
0.00257119
0.00014523
0.00252502
0.000147141
0.00247798
0.000148948
0.00243005
0.000150698
0.00238116
0.000152416
0.00233132
0.000154118
0.00228052
0.000155808
0.00222878
0.00015749
0.00217611
0.000159166
0.00212251
0.000160839
0.00206799
0.000162512
0.00201255
0.000164189
0.00195618
0.000165872
0.00189888
0.000167565
0.00184063
0.000169273
0.00178144
0.000170997
0.00172129
0.000172739
0.00166017
0.000174501
0.00159808
0.000176284
0.001535
0.000178088
0.00147094
0.000179909
0.00140587
0.000181743
0.00133979
0.00018358
0.00127268
0.000185413
0.00120455
0.000187232
0.00113539
0.00018903
0.00106521
0.000190798
0.000994011
0.000192524
0.000921822
0.000194197
0.000848667
0.000195805
0.000774581
0.000197334
0.000699608
0.000198772
0.000623802
0.000200103
0.000547231
0.000201312
0.000469978
0.00020237
0.000392095
0.000203304
0.000313502
0.000204293
0.000234376
0.000205198
0.000156213
0.000203028
8.12461e-05
0.000195399
0.000211682
6.59494e-05
-0.000260895
0.00015306
-0.00034382
0.0002381
-0.000334548
0.000318155
-0.000314923
0.000395293
-0.000304018
0.00047137
-0.000300278
0.000547024
-0.000298752
0.000622192
-0.000296863
0.000696663
-0.000294151
0.000770276
-0.00029086
0.000842936
-0.000287216
0.000914573
-0.000283308
0.000985124
-0.00027915
0.00105452
-0.000274748
0.00112271
-0.00027011
0.00118964
-0.000265254
0.00125525
-0.000260199
0.00131949
-0.000254965
0.00138233
-0.000249569
0.00144373
-0.000244031
0.00150367
-0.000238369
0.0015621
-0.000232602
0.00161903
-0.000226746
0.00167441
-0.00022082
0.00172826
-0.000214841
0.00178055
-0.000208823
0.00183129
-0.000202783
0.00188047
-0.000196736
0.00192809
-0.000190695
0.00197418
-0.000184673
0.00201872
-0.000178683
0.00206175
-0.000172734
0.00210327
-0.000166839
0.0021433
-0.000161006
0.00218186
-0.000155245
0.00221898
-0.000149562
0.00225467
-0.000143965
0.00228897
-0.00013846
0.0023219
-0.000133051
0.00235348
-0.000127744
0.00238375
-0.00012254
0.00241272
-0.000117444
0.00244043
-0.000112456
0.00246692
-0.000107579
0.00249221
-0.000102814
0.00251634
-9.81625e-05
0.00253935
-9.36271e-05
0.00256127
-8.9209e-05
0.00258213
-8.49087e-05
0.00260196
-8.07254e-05
0.0026208
-7.66579e-05
0.00263866
-7.27041e-05
0.00265558
-6.88619e-05
0.00267158
-6.51288e-05
0.00268668
-6.15021e-05
0.00270092
-5.79787e-05
0.00271432
-5.45551e-05
0.00272691
-5.12278e-05
0.00273871
-4.79932e-05
0.00274977
-4.48487e-05
0.0027601
-4.17928e-05
0.00276973
-3.88252e-05
0.00277869
-3.5946e-05
0.00278698
-3.31552e-05
0.0027946
-3.04507e-05
0.00280157
-2.78289e-05
0.0028079
-2.52844e-05
0.0028136
-2.28113e-05
0.00281868
-2.04043e-05
0.00282317
-1.80591e-05
0.00282709
-1.57727e-05
0.00283045
-1.35429e-05
0.00283327
-1.1368e-05
0.00283556
-9.24669e-06
0.00283734
-7.17766e-06
0.00283862
-5.1596e-06
0.0028394
-3.19107e-06
0.00283971
-1.27144e-06
0.00283958
5.78829e-07
0.00283899
2.40341e-06
0.00283796
4.17422e-06
0.00283651
5.89185e-06
0.00283464
7.5586e-06
0.00283237
9.1736e-06
0.00282971
1.07381e-05
0.00282666
1.22482e-05
0.00282325
1.37035e-05
0.00281947
1.51052e-05
0.00281534
1.64501e-05
0.00281086
1.77382e-05
0.00280603
1.89704e-05
0.00280088
2.01468e-05
0.00279539
2.12714e-05
0.00278961
2.2347e-05
0.00278354
2.33749e-05
0.00277721
2.43575e-05
0.00277065
2.5292e-05
0.00276387
2.61771e-05
0.0027569
2.70094e-05
0.00274974
2.77853e-05
0.00274243
2.85019e-05
0.00273497
2.91559e-05
0.00272737
2.97449e-05
0.00271966
3.02672e-05
0.00271184
3.07209e-05
0.00270394
3.1105e-05
0.00269596
3.14187e-05
0.00268792
3.16613e-05
0.00267985
3.18325e-05
0.00267175
3.19322e-05
0.00266364
3.19603e-05
0.00265554
3.19167e-05
0.00264746
3.18012e-05
0.00263943
3.16137e-05
0.00263146
3.13543e-05
0.00262357
3.10232e-05
0.00261577
3.06209e-05
0.00260808
3.0148e-05
0.00260052
2.96051e-05
0.00259311
2.89926e-05
0.00258586
2.83117e-05
0.00257879
2.75631e-05
0.00257191
2.67479e-05
0.00256524
2.58674e-05
0.00255879
2.4923e-05
0.00255259
2.3916e-05
0.00254664
2.28481e-05
0.00254097
2.1721e-05
0.00253558
2.05362e-05
0.00253049
1.92956e-05
0.00252571
1.8001e-05
0.00252126
1.66546e-05
0.00251715
1.52581e-05
0.0025134
1.38132e-05
0.00251001
1.2322e-05
0.002507
1.07854e-05
0.00250439
9.20477e-06
0.00250219
7.58147e-06
0.00250041
5.91699e-06
0.00249907
4.21343e-06
0.00249819
2.47291e-06
0.00249778
7.0516e-07
0.00249776
-1.05704e-06
0.0024982
-2.87597e-06
0.00249908
-4.70984e-06
0.00250036
-6.55695e-06
0.00250202
-8.41421e-06
0.00250404
-1.0276e-05
0.00250647
-1.21376e-05
0.00250936
-1.39923e-05
0.00251278
-1.58367e-05
0.00251674
-1.76739e-05
0.00252124
-1.95091e-05
0.00252628
-2.1346e-05
0.00253182
-2.31855e-05
0.00253787
-2.50264e-05
0.0025444
-2.6866e-05
0.00255143
-2.87011e-05
0.00255893
-3.05286e-05
0.00256691
-3.23456e-05
0.00257536
-3.41497e-05
0.00258429
-3.59383e-05
0.00259367
-3.77092e-05
0.00260351
-3.946e-05
0.00261381
-4.11885e-05
0.00262454
-4.28926e-05
0.00263571
-4.45702e-05
0.00264731
-4.62193e-05
0.00265933
-4.78382e-05
0.00267175
-4.94252e-05
0.00268457
-5.09784e-05
0.00269777
-5.24963e-05
0.00271136
-5.39771e-05
0.0027253
-5.54192e-05
0.0027396
-5.6821e-05
0.00275425
-5.8181e-05
0.00276923
-5.94975e-05
0.00278454
-6.07688e-05
0.00280017
-6.19932e-05
0.00281612
-6.31688e-05
0.00283237
-6.4294e-05
0.0028489
-6.53669e-05
0.00286571
-6.63861e-05
0.00288277
-6.73501e-05
0.00290007
-6.82574e-05
0.00291759
-6.9107e-05
0.00293531
-6.98975e-05
0.00295322
-7.06281e-05
0.00297131
-7.12983e-05
0.00298957
-7.19078e-05
0.00300798
-7.2457e-05
0.00302654
-7.29465e-05
0.00304524
-7.33776e-05
0.00306405
-7.3752e-05
0.00308297
-7.40717e-05