/*--------------------------------*- C++ -*----------------------------------*\
| =========                 |                                                 |
| \\      /  F ield         | OpenFOAM: The Open Source CFD Toolbox           |
|  \\    /   O peration     | Version:  v2006                                 |
|   \\  /    A nd           | Website:  www.openfoam.com                      |
|    \\/     M anipulation  |                                                 |
\*---------------------------------------------------------------------------*/
FoamFile
{
    version     2.0;
    format      ascii;
    class       volScalarField;
    location    "0";
    object      f;
}
// * * * * * * * * * * * * * * * * * * * * * * * * * * * * * * * * * * * * * //

dimensions      [0 0 0 0 0 0 0];


internalField   nonuniform List<scalar> 
2500
(
-4.33918e-98
-1.22019e-81
7.10886e-73
-5.75928e-68
-3.68923e-63
-3.2601e-60
-5.13745e-58
-1.31218e-56
1.69108e-54
7.56581e-53
5.63002e-52
-1.85999e-50
-4.08432e-49
-4.04269e-48
-2.69364e-47
-1.35984e-46
-5.40966e-46
-1.68185e-45
-3.94111e-45
-6.10416e-45
-2.24889e-45
1.92401e-44
6.86094e-44
1.42661e-43
2.21111e-43
2.77893e-43
2.97191e-43
2.80197e-43
2.39903e-43
1.9141e-43
1.45351e-43
1.06547e-43
7.58045e-44
5.22051e-44
3.45186e-44
2.16753e-44
1.27613e-44
6.92796e-45
3.37255e-45
1.38119e-45
3.77649e-46
-5.67458e-47
-1.96207e-46
-2.02725e-46
-1.62111e-46
-1.14223e-46
-7.41697e-47
-4.53075e-47
-2.63181e-47
-9.65914e-48
-1.40547e-95
-2.08377e-79
6.49679e-71
-2.08937e-66
-1.81351e-61
-1.39862e-58
-2.02733e-56
-5.80196e-55
4.14179e-53
1.92451e-51
1.68569e-50
-3.15312e-49
-7.28708e-48
-6.99464e-47
-4.46146e-46
-2.14576e-45
-8.13826e-45
-2.42527e-44
-5.49265e-44
-8.31494e-44
-3.24755e-44
2.39298e-43
8.44669e-43
1.72111e-42
2.60619e-42
3.19335e-42
3.3224e-42
3.0401e-42
2.51941e-42
1.94026e-42
1.41877e-42
9.99891e-43
6.83456e-43
4.51962e-43
2.86524e-43
1.71815e-43
9.57613e-44
4.83167e-44
2.09297e-44
6.61418e-45
1.04405e-46
-2.20208e-45
-2.52719e-45
-2.09684e-45
-1.50421e-45
-9.86857e-46
-6.07135e-46
-3.54892e-46
-1.98556e-46
-7.29062e-47
-2.99619e-93
-3.28507e-77
5.47699e-69
-1.6125e-65
-8.28401e-60
-5.62708e-57
-7.50383e-55
-2.24567e-53
9.34081e-52
4.64323e-50
4.53363e-49
-4.8558e-48
-1.2461e-46
-1.17328e-45
-7.21779e-45
-3.32609e-44
-1.20825e-43
-3.46602e-43
-7.62019e-43
-1.13347e-42
-4.73897e-43
2.97544e-42
1.04726e-41
2.101e-41
3.12144e-41
3.74403e-41
3.80508e-41
3.39319e-41
2.73335e-41
2.04045e-41
1.44257e-41
9.81085e-42
6.46353e-42
4.11524e-42
2.50624e-42
1.43619e-42
7.56026e-43
3.50591e-43
1.28959e-43
2.15392e-44
-2.12598e-44
-3.16347e-44
-2.83728e-44
-2.11532e-44
-1.41991e-44
-8.86942e-45
-5.24369e-45
-2.96254e-45
-1.60858e-45
-5.93185e-46
1.34443e-91
-5.00853e-75
4.4636e-67
5.90407e-63
-3.65776e-58
-2.19486e-55
-2.67863e-53
-8.014e-52
1.95469e-50
1.07895e-48
1.13269e-47
-6.55354e-47
-2.04384e-45
-1.90529e-44
-1.13517e-43
-5.02263e-43
-1.74919e-42
-4.83304e-42
-1.0325e-41
-1.51222e-41
-6.80377e-42
3.58932e-41
1.26655e-40
2.50711e-40
3.66019e-40
4.30344e-40
4.27771e-40
3.72228e-40
2.91809e-40
2.11389e-40
1.44615e-40
9.49448e-41
6.02747e-41
3.69118e-41
2.15508e-41
1.17523e-41
5.78774e-42
2.40003e-42
6.58257e-43
-1.09685e-43
-3.58073e-43
-3.66914e-43
-2.90324e-43
-2.01677e-43
-1.28786e-43
-7.73098e-44
-4.41806e-44
-2.42205e-44
-1.27976e-44
-4.75011e-45
6.74275e-88
-7.37977e-73
3.50951e-65
7.51374e-61
-1.55822e-56
-8.29154e-54
-9.22419e-52
-2.68331e-50
3.67813e-49
2.41025e-47
2.66184e-46
-6.7759e-46
-3.19624e-44
-2.98779e-43
-1.73302e-42
-7.38124e-42
-2.46728e-41
-6.57026e-41
-1.36521e-40
-1.97287e-40
-9.57719e-41
4.19209e-40
1.49247e-39
2.92164e-39
4.1981e-39
4.84494e-39
4.71642e-39
4.00969e-39
3.06302e-39
2.15576e-39
1.42848e-39
9.05861e-40
5.54118e-40
3.26103e-40
1.82128e-40
9.40473e-41
4.27649e-41
1.51095e-41
1.86072e-42
-3.28919e-42
-4.39208e-42
-3.81761e-42
-2.79032e-42
-1.84018e-42
-1.12915e-42
-6.55479e-43
-3.63629e-43
-1.94022e-43
-9.99817e-44
-3.74153e-44
5.37063e-85
-1.04984e-70
2.65544e-63
6.59558e-59
-6.39027e-55
-3.03023e-52
-3.06397e-50
-8.50831e-49
5.76788e-48
5.16354e-46
5.922e-45
-1.85451e-45
-4.72333e-43
-4.50989e-42
-2.56371e-41
-1.05444e-40
-3.38762e-40
-8.70047e-40
-1.76002e-39
-2.51447e-39
-1.31774e-39
4.72842e-39
1.71143e-38
3.32142e-38
4.70512e-38
5.33749e-38
5.0951e-38
4.23745e-38
3.15825e-38
2.16224e-38
1.3893e-38
8.51606e-39
5.02028e-39
2.83721e-39
1.51235e-39
7.35098e-40
3.02901e-40
8.25551e-41
-1.45266e-41
-4.59603e-41
-4.69571e-41
-3.7027e-41
-2.55694e-41
-1.61856e-41
-9.60604e-42
-5.41632e-42
-2.92613e-42
-1.52324e-42
-7.66929e-43
-2.89707e-43
3.21419e-82
-1.44011e-68
1.92734e-61
4.92753e-57
-2.51607e-53
-1.06996e-50
-9.81299e-49
-2.5683e-47
5.57872e-47
1.05742e-44
1.25132e-43
1.60348e-43
-6.50065e-42
-6.52437e-41
-3.66709e-40
-1.46222e-39
-4.5229e-39
-1.12121e-38
-2.21017e-38
-3.12752e-38
-1.7676e-38
5.13444e-38
1.90712e-37
3.67928e-37
5.14746e-37
5.74799e-37
5.38755e-37
4.38883e-37
3.1956e-37
2.13096e-37
1.32925e-37
7.88325e-38
4.48037e-38
2.43034e-38
1.23362e-38
5.6039e-39
2.03439e-39
3.23029e-40
-3.57454e-40
-5.19789e-40
-4.62214e-40
-3.40896e-40
-2.25284e-40
-1.37845e-40
-7.9486e-41
-4.36726e-41
-2.30333e-41
-1.17207e-41
-5.77459e-42
-2.20367e-42
1.67525e-79
-1.90169e-66
1.33618e-59
3.32608e-55
-9.47971e-52
-3.6448e-49
-3.02813e-47
-7.4024e-46
-6.85789e-46
2.06083e-43
2.51406e-42
6.18042e-42
-8.11193e-41
-8.99205e-40
-5.05808e-39
-1.96519e-38
-5.8651e-38
-1.40464e-37
-2.70062e-37
-3.79195e-37
-2.30634e-37
5.3452e-37
2.06197e-36
3.96643e-36
5.49059e-36
6.04426e-36
5.57e-36
4.45011e-36
3.16951e-36
2.06135e-36
1.24991e-36
7.17962e-37
3.93643e-37
2.04897e-37
9.88168e-38
4.15921e-38
1.27115e-38
-2.25005e-40
-4.73624e-39
-5.27042e-39
-4.28986e-39
-3.00875e-39
-1.91811e-39
-1.13988e-39
-6.40715e-40
-3.43878e-40
-1.77399e-40
-8.83806e-41
-4.26645e-41
-1.64555e-41
7.9749e-77
-2.41229e-64
8.79577e-58
2.07942e-53
-3.4032e-50
-1.19582e-47
-8.99478e-46
-2.04035e-44
-6.13783e-44
3.79883e-42
4.8007e-41
1.61225e-40
-8.6417e-40
-1.17017e-38
-6.70415e-38
-2.55477e-37
-7.37701e-37
-1.70873e-36
-3.20725e-36
-4.47597e-36
-2.92136e-36
5.30474e-36
2.15927e-35
4.15559e-35
5.70302e-35
6.19872e-35
5.62391e-35
4.41231e-35
3.07794e-35
1.9549e-35
1.15378e-35
6.42687e-36
3.40224e-36
1.69938e-36
7.7704e-37
2.99869e-37
7.10507e-38
-2.39393e-38
-5.16591e-38
-4.97434e-38
-3.80069e-38
-2.56053e-38
-1.58317e-38
-9.1689e-39
-5.03599e-39
-2.64528e-39
-1.33689e-39
-6.52943e-40
-3.09175e-40
-1.20543e-40
3.54037e-74
-2.93108e-62
5.4497e-56
1.21878e-51
-1.15754e-48
-3.77144e-46
-2.56876e-44
-5.38157e-43
-2.35973e-42
6.56318e-41
8.69672e-40
3.5469e-39
-6.43276e-39
-1.41725e-37
-8.49874e-37
-3.20481e-36
-8.98554e-36
-2.01577e-35
-3.69725e-35
-5.13665e-35
-3.58588e-35
4.97739e-35
2.18559e-34
4.22475e-34
5.76054e-34
6.19211e-34
5.5386e-34
4.27262e-34
2.92286e-34
1.81529e-34
1.04424e-34
5.64812e-35
2.88998e-35
1.38565e-35
5.9954e-36
2.09399e-36
3.19669e-37
-3.56121e-37
-5.07441e-37
-4.44853e-37
-3.23716e-37
-2.10869e-37
-1.26927e-37
-7.18194e-38
-3.86177e-38
-1.98826e-38
-9.85652e-39
-4.72447e-39
-2.19639e-39
-8.65584e-40
1.48109e-71
-3.39827e-60
3.13339e-54
6.73925e-50
-3.70058e-47
-1.14084e-44
-7.04271e-43
-1.35818e-41
-7.14467e-41
1.04753e-39
1.48958e-38
6.98882e-38
1.11686e-38
-1.55599e-36
-1.02359e-35
-3.86741e-35
-1.05789e-34
-2.30264e-34
-4.13129e-34
-5.72261e-34
-4.25822e-34
4.35805e-34
2.13321e-33
4.16076e-33
5.65004e-33
6.01663e-33
5.31326e-33
4.03535e-33
2.71054e-33
1.64826e-33
9.25395e-34
4.86691e-34
2.40991e-34
1.10985e-34
4.5362e-35
1.41053e-35
6.48546e-37
-3.99347e-36
-4.64524e-36
-3.806e-36
-2.66199e-36
-1.68426e-36
-9.89675e-37
-5.48162e-37
-2.88981e-37
-1.4601e-37
-7.10742e-38
-3.34649e-38
-1.52871e-38
-6.08787e-39
5.87088e-69
-3.73875e-58
1.62944e-52
3.52675e-48
-1.09867e-45
-3.30124e-43
-1.85053e-41
-3.27784e-40
-1.89188e-39
1.50566e-38
2.39954e-37
1.26265e-36
1.75744e-36
-1.46063e-35
-1.15956e-34
-4.47135e-34
-1.20103e-33
-2.54265e-33
-4.46757e-33
-6.17905e-33
-4.88405e-33
3.47875e-33
2.00207e-32
3.96213e-32
5.37241e-32
5.67806e-32
4.95796e-32
3.71205e-32
2.45122e-32
1.46126e-32
8.01778e-33
4.10597e-33
1.97021e-33
8.72293e-34
3.36286e-34
9.11166e-35
-8.61757e-36
-3.92528e-35
-4.02876e-35
-3.13287e-35
-2.11904e-35
-1.30654e-35
-7.51016e-36
-4.07795e-36
-2.11022e-36
-1.04736e-36
-5.01047e-37
-2.31921e-37
-1.04173e-37
-4.19028e-38
2.21104e-66
-3.871e-56
7.24269e-51
1.74882e-46
-2.96908e-44
-9.10988e-42
-4.65106e-40
-7.55709e-39
-4.54198e-38
1.84698e-37
3.60586e-36
2.11194e-35
4.70992e-35
-9.69506e-35
-1.21509e-33
-4.92512e-33
-1.31101e-32
-2.70858e-32
-4.66727e-32
-6.45486e-32
-5.40188e-32
2.40916e-32
1.80056e-31
3.64037e-31
4.9436e-31
5.19612e-31
4.49326e-31
3.3208e-31
2.15841e-31
1.26293e-31
6.78097e-32
3.38609e-32
1.57676e-32
6.71854e-33
2.44003e-33
5.59271e-34
-1.62275e-34
-3.55088e-34
-3.34028e-34
-2.48961e-34
-1.63557e-34
-9.85127e-35
-5.54834e-35
-2.95695e-35
-1.50336e-35
-7.3356e-36
-3.45134e-36
-1.57152e-36
-6.94511e-37
-2.82004e-37
7.91982e-64
-3.7208e-54
2.29841e-49
8.21641e-45
-7.02589e-43
-2.38832e-40
-1.11582e-38
-1.66222e-37
-1.0033e-36
1.6496e-36
4.99051e-35
3.27872e-34
9.34407e-34
9.23998e-35
-1.1412e-32
-5.12608e-32
-1.37063e-31
-2.77675e-31
-4.70091e-31
-6.5108e-31
-5.75163e-31
1.24946e-31
1.54503e-30
3.21937e-30
4.39363e-30
4.60287e-30
3.94843e-30
2.88451e-30
1.84761e-30
1.06234e-30
5.58855e-31
2.72485e-31
1.23314e-31
5.0631e-32
1.7303e-32
3.21081e-33
-1.87771e-33
-3.02117e-33
-2.66154e-33
-1.91404e-33
-1.2252e-33
-7.22241e-34
-3.99064e-34
-2.0894e-34
-1.0445e-34
-5.01389e-35
-2.32144e-35
-1.0404e-35
-4.52612e-36
-1.85389e-36
2.69776e-61
-3.23818e-52
-4.64449e-49
3.65331e-43
-1.32111e-41
-5.92082e-39
-2.54987e-37
-3.48321e-36
-2.04974e-35
1.75977e-36
6.22542e-34
4.71271e-33
1.58162e-32
1.86896e-32
-8.91251e-32
-4.97638e-31
-1.36523e-30
-2.73121e-30
-4.55424e-30
-6.32724e-30
-5.88492e-30
1.16119e-31
1.25775e-29
2.73266e-29
3.76324e-29
3.93932e-29
3.35835e-29
2.42865e-29
1.53489e-29
8.68209e-30
4.48012e-30
2.13566e-30
9.40642e-31
3.72631e-31
1.1969e-31
1.67178e-32
-1.82e-32
-2.44517e-32
-2.04462e-32
-1.42543e-32
-8.91156e-33
-5.14885e-33
-2.79379e-33
-1.43813e-33
-7.07335e-34
-3.34213e-34
-1.52354e-34
-6.72379e-35
-2.88068e-35
-1.18929e-35
8.73002e-59
-2.41411e-50
-8.99419e-46
1.53413e-41
-1.25308e-40
-1.37961e-37
-5.54078e-36
-6.94643e-35
-3.8705e-34
-3.54046e-34
6.71786e-33
6.22436e-32
2.3821e-31
4.40725e-31
-4.34091e-31
-4.40445e-30
-1.28579e-29
-2.56752e-29
-4.23227e-29
-5.90969e-29
-5.77503e-29
-8.77102e-30
9.63733e-29
2.219e-28
3.09879e-28
3.25049e-28
2.75958e-28
1.97851e-28
1.23525e-28
6.88118e-29
3.48679e-29
1.627e-29
6.98376e-30
2.67258e-30
8.05655e-31
7.32131e-32
-1.59401e-31
-1.89473e-31
-1.51726e-31
-1.02897e-31
-6.29438e-32
-3.56847e-32
-1.90298e-32
-9.63673e-33
-4.66567e-33
-2.17089e-33
-9.74758e-34
-4.23781e-34
-1.7887e-34
-7.43673e-35
2.67902e-56
-1.29286e-48
-1.00304e-43
6.06603e-40
4.08277e-39
-2.99636e-36
-1.1442e-34
-1.31847e-33
-6.71779e-33
-1.0172e-32
5.68297e-32
7.44418e-31
3.23443e-30
7.58198e-30
2.30518e-30
-3.38863e-29
-1.1317e-28
-2.29488e-28
-3.76033e-28
-5.29038e-28
-5.42381e-28
-1.6389e-28
6.86921e-28
1.71697e-27
2.44631e-27
2.57995e-27
2.18619e-27
1.55653e-27
9.61205e-28
5.2788e-28
2.62921e-28
1.2022e-28
5.03522e-29
1.86344e-29
5.2606e-30
1.99826e-31
-1.30016e-30
-1.4111e-30
-1.08882e-30
-7.20151e-31
-4.3164e-31
-2.40332e-31
-1.26038e-31
-6.28199e-32
-2.99512e-32
-1.37284e-32
-6.07368e-33
-2.60208e-33
-1.08234e-33
-4.5274e-34
7.77658e-54
2.47891e-48
-8.0629e-42
2.24928e-38
3.0565e-37
-5.98861e-35
-2.25004e-33
-2.38892e-32
-1.05988e-31
-1.8734e-31
2.48986e-31
7.84247e-30
3.95313e-29
1.10344e-28
1.05783e-28
-1.9774e-28
-9.12458e-28
-1.93605e-27
-3.18139e-27
-4.52487e-27
-4.86367e-27
-2.11607e-27
4.46661e-27
1.2597e-26
1.84561e-26
1.96475e-26
1.66612e-26
1.18016e-26
7.21771e-27
3.91162e-27
1.91672e-27
8.5963e-28
3.51679e-28
1.25965e-28
3.31894e-29
-6.95893e-31
-1.00235e-29
-1.01238e-29
-7.5602e-30
-4.88607e-30
-2.87261e-30
-1.5719e-30
-8.1108e-31
-3.98035e-31
-1.86942e-31
-8.44335e-32
-3.68157e-32
-1.55466e-32
-6.37431e-33
-2.67992e-33
2.12816e-51
1.39055e-44
-5.4709e-40
7.77809e-37
1.20421e-35
-1.0758e-33
-4.24328e-32
-4.17006e-31
-1.49146e-30
-2.39921e-30
-2.56159e-30
6.86438e-29
4.28352e-28
1.41607e-27
1.95122e-27
-2.98908e-28
-6.47643e-27
-1.52471e-26
-2.54979e-26
-3.68412e-26
-4.1531e-26
-2.30101e-26
2.55161e-26
8.70845e-26
1.32577e-25
1.43155e-25
1.21861e-25
8.605e-26
5.2191e-26
2.79381e-26
1.34786e-26
5.93389e-27
2.37321e-27
8.23059e-28
2.01303e-28
-1.79699e-29
-7.3631e-29
-7.00605e-29
-5.07964e-29
-3.21256e-29
-1.85415e-29
-9.97644e-30
-5.06662e-30
-2.44881e-30
-1.1332e-30
-5.04435e-31
-2.16817e-31
-9.02633e-32
-3.64874e-32
-1.54021e-32
5.46686e-49
2.63087e-42
-3.28241e-38
2.48876e-35
3.54056e-34
-1.6413e-32
-7.79e-31
-7.15708e-30
-1.81343e-29
-1.26571e-29
-6.97474e-29
4.21778e-28
3.95963e-27
1.61862e-26
2.76861e-26
1.4469e-26
-3.64763e-26
-1.10047e-25
-1.92262e-25
-2.8431e-25
-3.36675e-25
-2.22927e-25
1.16513e-25
5.62459e-25
9.02799e-25
9.94769e-25
8.53209e-25
6.0202e-25
3.62628e-25
1.91906e-25
9.12133e-26
3.94416e-26
1.54301e-26
5.18104e-27
1.1661e-27
-2.01099e-28
-5.1776e-28
-4.67962e-28
-3.30183e-28
-2.04567e-28
-1.15976e-28
-6.13819e-29
-3.06896e-29
-1.46111e-29
-6.66286e-30
-2.92354e-30
-1.23887e-30
-5.08525e-31
-2.02689e-31
-8.58103e-32
1.3107e-46
3.57961e-40
-1.77066e-36
7.27824e-34
7.8439e-33
-1.71279e-31
-1.42483e-29
-1.25093e-28
-1.8091e-28
4.04552e-28
-4.52114e-28
2.85259e-28
2.80769e-26
1.6343e-25
3.34634e-25
3.01727e-25
-9.49942e-26
-7.02462e-25
-1.35062e-24
-2.06887e-24
-2.58204e-24
-1.96792e-24
2.74022e-25
3.35281e-24
5.79683e-24
6.56871e-24
5.70263e-24
4.03181e-24
2.41558e-24
1.26481e-24
5.92545e-25
2.51762e-25
9.63725e-26
3.13058e-26
6.39441e-27
-1.7923e-27
-3.49415e-27
-3.01718e-27
-2.07528e-27
-1.26056e-27
-7.02278e-28
-3.65697e-28
-1.80026e-28
-8.4434e-29
-3.79446e-29
-1.64124e-29
-6.8571e-30
-2.7754e-30
-1.09083e-30
-4.6264e-31
2.90985e-44
4.11451e-38
-8.62174e-35
1.90145e-32
1.01471e-31
9.30561e-31
-2.65588e-28
-2.32134e-27
-1.40684e-27
1.73001e-26
1.5848e-26
-3.48753e-26
8.72975e-26
1.4129e-24
3.53963e-24
4.17437e-24
1.32435e-24
-3.63031e-24
-8.70695e-24
-1.41058e-23
-1.86579e-23
-1.59838e-23
-2.08592e-24
1.80924e-23
3.48622e-23
4.10438e-23
3.6277e-23
2.57855e-23
1.53918e-23
7.97948e-24
3.68563e-24
1.5389e-24
5.76387e-25
1.80848e-25
3.27699e-26
-1.4137e-26
-2.26595e-26
-1.87721e-26
-1.26028e-26
-7.50915e-27
-4.112e-27
-2.10689e-27
-1.02124e-27
-4.71835e-28
-2.08963e-28
-8.90957e-29
-3.67008e-29
-1.46473e-29
-5.67672e-30
-2.40905e-30
5.91256e-42
4.18745e-36
-3.77122e-33
4.20246e-31
-1.37117e-30
1.38253e-28
-5.05973e-27
-4.67143e-26
-1.21744e-26
4.26416e-25
6.92934e-25
-4.51122e-25
-1.48405e-24
9.57355e-24
3.27068e-23
4.74192e-23
2.95952e-23
-1.02777e-23
-5.01713e-23
-8.94011e-23
-1.26424e-22
-1.19869e-22
-3.96071e-23
8.53279e-23
1.94651e-22
2.41454e-22
2.18944e-22
1.57106e-22
9.36028e-23
4.80714e-23
2.18907e-23
8.98093e-24
3.28995e-24
9.94376e-25
1.53755e-25
-1.02391e-25
-1.41255e-25
-1.12631e-25
-7.38745e-26
-4.31911e-26
-2.32487e-26
-1.17202e-26
-5.59299e-27
-2.54531e-27
-1.11075e-27
-4.668e-28
-1.89567e-28
-7.45953e-29
-2.85055e-29
-1.20892e-29
1.07879e-39
3.83808e-34
-1.45667e-31
6.45492e-30
-1.54071e-28
6.11874e-27
-9.5522e-26
-9.98477e-25
-3.44775e-25
8.20654e-24
1.70714e-23
3.8103e-25
-3.5992e-23
3.39429e-23
2.56758e-22
4.65439e-22
3.85877e-22
7.16627e-23
-2.44488e-22
-5.21459e-22
-7.98716e-22
-8.29718e-22
-4.0191e-22
3.24427e-22
9.96601e-22
1.32894e-21
1.24932e-21
9.09835e-22
5.42116e-22
2.75878e-22
1.23809e-22
4.9882e-23
1.78575e-23
5.17816e-24
6.35426e-25
-6.91981e-25
-8.46138e-25
-6.51059e-25
-4.17473e-25
-2.39527e-25
-1.26721e-25
-6.28412e-26
-2.9517e-26
-1.32282e-26
-5.68706e-27
-2.35532e-27
-9.42817e-28
-3.65743e-28
-1.37785e-28
-5.83207e-29
1.70433e-37
3.18345e-32
-4.70912e-30
-2.75758e-29
-6.88618e-27
2.14786e-25
-1.68317e-24
-2.15956e-23
-1.28487e-23
1.31004e-22
3.24999e-22
1.35461e-22
-4.68798e-22
-3.06244e-22
1.57343e-21
3.98142e-21
4.05837e-21
1.66783e-21
-8.53109e-22
-2.7641e-21
-4.67326e-21
-5.28292e-21
-3.20292e-21
7.31073e-22
4.58985e-21
6.78575e-21
6.71441e-21
4.99823e-21
2.98459e-21
1.50467e-21
6.64849e-22
2.62795e-22
9.1823e-23
2.53951e-23
2.10273e-24
-4.39623e-24
-4.86585e-24
-3.62123e-24
-2.27113e-24
-1.27865e-24
-6.64667e-25
-3.24107e-25
-1.49785e-25
-6.60814e-26
-2.79795e-26
-1.14165e-26
-4.5035e-27
-1.72186e-27
-6.39335e-28
-2.69705e-28
2.13183e-35
2.38423e-30
-9.8178e-29
-8.10171e-27
-2.42593e-25
6.59376e-24
-2.54729e-23
-4.50089e-22
-3.66176e-22
1.73701e-21
5.12114e-21
3.46283e-21
-4.18967e-21
-8.13278e-21
5.10716e-21
2.91668e-20
3.70703e-20
1.98747e-20
-1.69117e-22
-1.31121e-20
-2.51246e-20
-3.07449e-20
-2.16508e-20
-2.00919e-21
1.83585e-20
3.17442e-20
3.38428e-20
2.60091e-20
1.55972e-20
7.78199e-21
3.37952e-21
1.3085e-21
4.45474e-22
1.16546e-22
3.59119e-24
-2.63385e-23
-2.68264e-23
-1.93514e-23
-1.18741e-23
-6.55784e-24
-3.3476e-24
-1.60418e-24
-7.29032e-25
-3.16463e-25
-1.31909e-25
-5.30072e-26
-2.0599e-26
-7.75977e-27
-2.83878e-27
-1.19171e-27
1.42314e-33
1.59739e-28
2.52852e-27
-4.5428e-25
-7.9301e-24
1.76938e-22
-2.86469e-22
-8.67196e-21
-8.13624e-21
1.83456e-20
6.72687e-20
5.91085e-20
-2.11728e-20
-1.03357e-19
-3.97757e-20
1.73047e-19
3.01262e-19
1.88455e-19
3.14629e-20
-5.46728e-20
-1.23034e-19
-1.61955e-19
-1.26726e-19
-3.76295e-20
5.85964e-20
1.33144e-19
1.59097e-19
1.28127e-19
7.73106e-20
3.80851e-20
1.62082e-20
6.13344e-21
2.03044e-21
4.96918e-22
-1.9731e-23
-1.48928e-22
-1.4155e-22
-9.91822e-23
-5.95477e-23
-3.22415e-23
-1.61493e-23
-7.59891e-24
-3.39335e-24
-1.44841e-24
-5.94006e-25
-2.34969e-25
-8.99128e-26
-3.33572e-26
-1.20176e-26
-5.01184e-27
-2.32597e-31
9.32113e-27
5.78611e-25
-1.80932e-23
-2.66196e-22
4.00098e-21
-1.28847e-21
-1.47423e-19
-1.4505e-19
1.34179e-19
7.10567e-19
7.84725e-19
8.82673e-20
-8.97168e-19
-1.02784e-18
6.93444e-19
2.16936e-18
1.56613e-18
3.65928e-19
-1.95438e-19
-5.43996e-19
-7.61475e-19
-6.41187e-19
-2.81189e-19
1.03025e-19
4.78198e-19
6.91517e-19
5.97924e-19
3.63488e-19
1.76011e-19
7.3077e-20
2.69477e-20
8.6575e-21
1.95313e-21
-2.71941e-22
-7.94299e-22
-7.1347e-22
-4.86613e-22
-2.85808e-22
-1.51562e-22
-7.44025e-23
-3.43376e-23
-1.50523e-23
-6.31229e-24
-2.54526e-24
-9.90485e-25
-3.73007e-25
-1.36207e-25
-4.82941e-26
-1.99698e-26
-1.21196e-28
4.2478e-25
5.79068e-23
-5.45535e-22
-9.57565e-21
7.09607e-20
3.30015e-20
-2.03217e-18
-2.02755e-18
1.88208e-19
5.41236e-18
8.16611e-18
4.03398e-18
-4.77333e-18
-1.43978e-17
-1.33019e-19
1.29929e-17
1.20565e-17
3.00121e-18
-5.54587e-19
-2.16112e-18
-3.13398e-18
-2.75643e-18
-1.49277e-18
-4.04626e-19
1.28115e-18
2.72952e-18
2.64948e-18
1.62251e-18
7.66325e-19
3.08388e-19
1.10434e-19
3.43995e-20
7.02843e-21
-1.99959e-21
-3.99044e-21
-3.42847e-21
-2.28067e-21
-1.30958e-21
-6.79141e-22
-3.26206e-22
-1.47435e-22
-6.3363e-23
-2.6079e-23
-1.03303e-23
-3.95187e-24
-1.46362e-24
-5.25669e-25
-1.83275e-25
-7.49693e-26
-3.11557e-26
3.93336e-24
4.42963e-21
-1.10169e-20
-3.59154e-19
8.46815e-19
9.55e-19
-1.82849e-17
-1.97646e-17
-1.62813e-17
3.0001e-17
6.43098e-17
7.93637e-17
-2.12609e-17
-2.15227e-16
-3.70705e-17
6.56483e-17
9.67515e-17
2.06976e-17
-7.62101e-19
-7.88116e-18
-1.10078e-17
-9.70476e-18
-5.95273e-18
-5.9079e-18
7.40324e-19
9.36557e-18
1.1214e-17
6.88818e-18
3.1322e-18
1.21126e-18
4.19844e-19
1.2708e-19
2.31423e-20
-1.15367e-20
-1.88508e-20
-1.56784e-20
-1.01892e-20
-5.71181e-21
-2.8901e-21
-1.3551e-21
-5.98592e-22
-2.51804e-22
-1.01586e-22
-3.94902e-23
-1.48381e-23
-5.40002e-24
-1.90581e-24
-6.52645e-25
-2.63334e-25
-5.75826e-24
-3.12366e-21
2.51067e-19
-6.14522e-20
-1.3642e-17
6.17587e-18
1.23097e-17
-2.70581e-16
-1.32538e-15
-4.73336e-16
6.39877e-15
3.9701e-15
1.43155e-15
-2.18082e-14
-3.0368e-15
-4.14964e-16
6.66176e-15
1.00884e-15
1.06467e-16
2.59911e-18
-3.02219e-17
-3.2179e-17
-2.55059e-17
-1.65654e-17
-4.39402e-17
-2.22589e-17
2.48254e-17
4.61825e-17
2.79209e-17
1.1946e-17
4.39497e-18
1.47262e-18
4.37274e-19
7.12343e-20
-5.63861e-20
-8.35919e-20
-6.81415e-20
-4.33015e-20
-2.36335e-20
-1.16264e-20
-5.304e-21
-2.2838e-21
-9.38429e-22
-3.7054e-22
-1.41194e-22
-5.20564e-23
-1.85973e-23
-6.44199e-24
-2.16344e-24
-8.57775e-25
-5.94529e-22
-7.44426e-19
9.75108e-18
5.03803e-18
-4.81966e-16
6.84104e-15
-1.09899e-15
-4.39017e-14
-3.21951e-14
3.26161e-13
9.08022e-14
7.6376e-14
-1.32587e-12
-2.83077e-13
4.74148e-13
5.26232e-13
7.43293e-14
3.07905e-15
-5.94899e-14
-6.73128e-15
-1.69737e-16
-7.71048e-17
-2.42632e-17
-3.26925e-17
-4.53545e-16
-2.421e-16
3.51239e-17
2.0042e-16
1.09163e-16
4.20243e-17
1.46007e-17
4.74638e-18
1.41531e-18
2.21134e-19
-2.37726e-19
-3.47549e-19
-2.814e-19
-1.74709e-19
-9.23838e-20
-4.39475e-20
-1.94169e-20
-8.12073e-21
-3.25137e-21
-1.25433e-21
-4.67926e-22
-1.69097e-22
-5.92329e-23
-2.01072e-23
-6.60745e-24
-2.56028e-24
1.53644e-19
-1.33829e-16
3.70059e-15
-3.15579e-14
1.19882e-13
1.13368e-13
-4.07929e-13
-9.90918e-13
8.27681e-12
3.40926e-12
9.99112e-13
-4.75914e-11
-1.60021e-11
5.89517e-11
2.88721e-11
4.34284e-12
-2.55122e-13
-6.63707e-12
-1.02616e-12
-8.18713e-14
-3.30836e-15
-5.48751e-16
4.20134e-16
-1.22762e-14
-1.05492e-14
-1.60434e-15
6.37102e-16
1.43776e-15
4.0707e-16
1.32622e-16
4.42034e-17
1.40522e-17
4.39177e-18
7.90927e-19
-8.54534e-19
-1.35503e-18
-1.10621e-18
-6.68212e-19
-3.39345e-19
-1.54787e-19
-6.57939e-20
-2.66043e-20
-1.03483e-20
-3.89357e-21
-1.42035e-21
-5.02586e-22
-1.72387e-22
-5.72267e-23
-1.83382e-23
-6.88454e-24
-1.90822e-15
5.28891e-15
4.94431e-14
-4.14033e-13
2.17889e-12
-6.87551e-12
-2.02002e-11
5.96317e-11
7.61194e-11
-3.20962e-11
-9.50445e-10
-5.31009e-10
1.51902e-09
8.57719e-10
1.50601e-10
-4.27006e-12
-4.54304e-10
-8.34808e-11
-6.76335e-13
-4.87726e-13
-2.88721e-13
-6.94955e-14
-2.57689e-13
-2.47221e-13
-5.38847e-14
1.99825e-14
4.21234e-14
1.16651e-14
1.01921e-15
3.82539e-16
1.25897e-16
3.79435e-17
1.32115e-17
3.44199e-18
-2.47611e-18
-4.96464e-18
-4.16421e-18
-2.42066e-18
-1.16221e-18
-5.01524e-19
-2.03135e-19
-7.89456e-20
-2.97393e-20
-1.0898e-20
-3.88518e-21
-1.34521e-21
-4.51135e-22
-1.46003e-22
-4.53634e-23
-1.62443e-23
-2.29217e-13
1.9357e-12
-1.30704e-11
5.16349e-11
-3.19702e-11
-1.29811e-10
-1.39821e-10
1.3505e-09
-5.23136e-10
-1.10848e-08
-9.28534e-09
2.07425e-08
3.00635e-08
1.91807e-09
-5.76107e-08
-3.79445e-08
-6.89518e-09
-6.18818e-12
-1.52813e-12
-8.10769e-13
-3.8431e-12
-5.2144e-12
-4.58944e-12
-1.0184e-12
4.79876e-13
8.66943e-13
3.64569e-13
4.35057e-14
8.34955e-15
2.05643e-15
3.40253e-16
8.09687e-17
3.67194e-17
1.64526e-17
-4.58509e-18
-1.71115e-17
-1.52237e-17
-8.30498e-18
-3.66216e-18
-1.46249e-18
-5.56616e-19
-2.06444e-19
-7.51521e-20
-2.68353e-20
-9.36107e-21
-3.17299e-21
-1.03875e-21
-3.26068e-22
-9.71545e-23
-3.209e-23
2.36262e-13
1.33353e-11
-1.23439e-10
6.13224e-10
-2.16648e-09
-2.12518e-09
2.01062e-08
1.37698e-08
-5.54082e-08
-1.00517e-07
1.6685e-07
6.27603e-07
2.74761e-07
-1.39724e-06
-1.09217e-06
-2.83936e-07
-1.18318e-08
1.08304e-11
-4.09228e-13
4.57927e-12
-1.39404e-11
-6.41571e-11
-2.0637e-11
1.65755e-11
2.32691e-11
1.75156e-11
3.06285e-12
2.75441e-13
5.34382e-14
6.14428e-15
-4.90014e-17
1.4861e-17
8.32652e-17
7.95083e-17
5.00599e-18
-5.40942e-17
-5.58555e-17
-2.69583e-17
-1.03152e-17
-3.67047e-18
-1.28641e-18
-4.52637e-19
-1.59747e-19
-5.59792e-20
-1.92375e-20
-6.40699e-21
-2.04409e-21
-6.16126e-22
-1.71695e-22
-4.7614e-23
4.47538e-10
-2.26524e-09
9.51967e-09
-1.67459e-08
-2.96959e-08
5.45149e-08
2.06468e-07
-2.31217e-07
-1.18219e-06
7.24447e-07
7.29561e-06
4.31439e-06
-7.29453e-06
-1.31809e-05
-3.49491e-06
-4.40496e-07
1.38398e-09
5.2375e-10
5.14512e-11
2.72151e-11
1.14939e-12
-2.51269e-10
7.95267e-10
1.14448e-09
1.07062e-09
3.42797e-10
2.42574e-11
9.83722e-13
7.37405e-14
-4.32064e-15
-1.83025e-15
-2.94575e-16
2.61334e-16
4.68988e-16
1.11433e-16
-1.50463e-16
-2.29369e-16
-8.15987e-17
-2.38413e-17
-7.03089e-18
-2.21017e-18
-7.45741e-19
-2.62931e-19
-9.33614e-20
-3.23848e-20
-1.07315e-20
-3.32963e-21
-9.40624e-22
-2.28018e-22
-3.2776e-23
3.5376e-09
-1.4594e-08
8.08607e-08
-2.39218e-07
5.27257e-08
1.13339e-06
4.72192e-07
-6.51965e-06
-6.98965e-06
3.15007e-05
6.64941e-05
-0.000329359
-0.00109344
-0.000342737
0.00514778
0.0165313
0.0301821
0.0392221
0.039171
0.0313629
0.0192782
0.0083613
0.00190016
1.73954e-05
7.19099e-09
1.53369e-09
9.15515e-11
1.07969e-12
-2.7037e-14
-1.88491e-14
-5.45046e-15
2.33029e-15
8.86942e-15
5.79112e-15
7.61346e-16
-3.88992e-15
-1.44524e-15
-1.96389e-16
-2.88416e-17
-5.3891e-18
-1.55288e-18
-6.38951e-19
-2.82871e-19
-1.17684e-19
-4.45196e-20
-1.51501e-20
-4.54228e-21
-1.12577e-21
-1.76134e-22
7.7359e-23
1.8754e-07
2.90699e-07
-2.57214e-06
-1.77122e-06
2.19901e-05
1.50175e-05
-0.00011581
-0.000177184
0.000326972
0.00107331
-0.000384018
-0.00598411
-0.0107582
-0.0013196
0.037304
0.106545
0.186104
0.242793
0.250153
0.217867
0.157287
0.0919779
0.0410424
0.0115348
0.000784916
7.37176e-08
4.67509e-09
4.24468e-10
1.43561e-11
-1.71658e-14
2.20487e-14
2.1215e-13
1.62298e-13
3.26295e-14
-1.53993e-13
-6.99522e-14
-6.33998e-15
3.21793e-16
1.13701e-16
2.57133e-17
4.68723e-18
3.92459e-19
-2.03296e-19
-1.52673e-19
-6.77527e-20
-2.37413e-20
-6.7112e-21
-1.31868e-21
2.01627e-23
3.578e-22
1.19117e-05
-1.28535e-05
-9.04161e-05
6.72623e-05
0.000394207
-2.64054e-05
-0.00124668
-0.000949862
0.00253526
0.0049279
-0.00206372
-0.0204004
-0.0322556
-0.00609079
0.0884426
0.2528
0.44533
0.596428
0.64123
0.587352
0.458677
0.301153
0.161826
0.0667026
0.0172836
0.00093746
1.73061e-07
3.42968e-09
8.73105e-11
1.43819e-12
5.36746e-12
3.69419e-12
8.73309e-13
-4.99181e-12
-2.76565e-12
-3.01807e-13
1.08998e-14
5.04859e-15
6.02975e-16
7.26268e-17
7.07965e-18
-1.09149e-18
-1.11156e-18
-5.19602e-19
-1.92488e-19
-6.06474e-20
-1.58215e-20
-2.82107e-21
1.55011e-22
8.47633e-22
3.97264e-05
-7.90305e-05
-0.000298456
0.000267816
0.00117411
-0.00014781
-0.00329703
-0.00211237
0.00663573
0.0121496
-0.00107988
-0.0331056
-0.0536291
-0.0192044
0.107157
0.32994
0.606207
0.854553
0.985003
0.962419
0.81511
0.592129
0.362299
0.180246
0.0670943
0.0141589
0.000247315
8.87714e-10
5.9251e-11
2.43125e-10
7.52126e-11
1.96779e-11
-1.46386e-10
-8.84168e-11
-1.19067e-11
3.97319e-13
2.06967e-13
2.50282e-14
-4.9555e-16
-2.02433e-16
-6.21625e-17
-1.95408e-17
-6.20716e-18
-1.9367e-18
-5.77961e-19
-1.59408e-19
-3.8039e-20
-6.34173e-21
3.67084e-22
1.79649e-21
2.8395e-05
-2.98837e-05
-0.000214464
0.000176917
0.000993413
-0.00036674
-0.00398293
-0.00256537
0.00943475
0.0201603
0.00839852
-0.0296703
-0.0610032
-0.0404355
0.0654781
0.263813
0.530947
0.813247
1.02544
1.0897
1.00955
0.814023
0.560041
0.32162
0.146938
0.0472297
0.00641835
1.33657e-06
6.07335e-08
3.06597e-09
3.79818e-10
-3.99465e-09
-2.43933e-09
-3.79523e-10
1.11914e-11
6.28119e-12
9.23306e-13
-1.37998e-14
-6.515e-15
-9.75873e-16
-1.88427e-16
-4.83413e-17
-1.30618e-17
-3.52722e-18
-9.17369e-19
-2.15821e-19
-3.86694e-20
-4.43602e-22
4.41896e-21
4.88069e-21
3.22759e-05
-5.22112e-06
-0.000272469
-3.03358e-05
0.00124625
0.000900146
-0.00368196
-0.00639642
0.00282517
0.020078
0.020237
-0.0107996
-0.0548177
-0.0623608
-0.00762293
0.121169
0.316181
0.557242
0.79902
0.964934
0.98215
0.868534
0.656896
0.420955
0.221106
0.0879943
0.0211623
0.000809587
3.65426e-08
-7.14059e-08
-1.19118e-07
-6.06997e-08
-1.01749e-08
2.22427e-10
1.39296e-10
2.6112e-11
-2.05372e-13
-1.91765e-13
-2.95214e-14
-1.06114e-17
1.292e-17
2.02817e-18
9.48145e-19
7.10804e-19
4.38107e-19
2.35131e-19
1.16216e-19
5.41632e-20
2.40515e-20
1.48626e-20
2.31642e-05
0.000103806
-0.000161407
-0.000565205
0.000366649
0.0020962
0.000467768
-0.0052452
-0.0059689
0.00463438
0.0173268
0.0122036
-0.0165573
-0.051492
-0.0596751
-0.021138
0.0847114
0.262962
0.48756
0.692073
0.788433
0.756352
0.621415
0.42782
0.242478
0.108485
0.0330942
0.00358614
-1.76169e-06
-2.01742e-06
-1.08598e-06
-2.39203e-07
-1.52974e-09
2.34224e-09
6.22002e-10
1.41348e-11
-4.11423e-12
-1.03906e-12
-1.3332e-14
2.05911e-15
6.03258e-16
1.58831e-16
4.69831e-17
1.45903e-17
4.69341e-18
1.56543e-18
5.41461e-19
1.93362e-19
7.07071e-20
3.69459e-20
-1.77186e-05
7.36395e-05
0.000133042
-0.000291445
-0.000626424
0.000443121
0.00200454
0.000832338
-0.00354747
-0.00564816
-0.000320582
0.0101926
0.0138143
-0.00095664
-0.0356895
-0.0685799
-0.0621942
0.0123043
0.156521
0.324764
0.443324
0.456983
0.397351
0.289524
0.174743
0.0844665
0.0295975
0.00471377
-1.02926e-05
-9.78157e-06
-3.30647e-06
-2.97447e-07
3.3413e-08
1.21576e-08
9.8332e-10
-7.36434e-11
-2.54302e-11
-1.54911e-12
3.74692e-14
1.17902e-14
1.19696e-15
2.18517e-16
6.88818e-17
2.29896e-17
7.82569e-18
2.70783e-18
9.5401e-19
3.4253e-19
1.25092e-19
6.55178e-20
-6.35515e-06
-3.15186e-05
4.66306e-05
0.000174449
-8.85806e-05
-0.000629269
-0.000247694
0.00143533
0.00192551
-0.0010659
-0.00502181
-0.00309837
0.00718644
0.0164409
0.00977036
-0.0176996
-0.0505814
-0.0580027
-0.0289239
0.0296357
0.0883842
0.113753
0.105473
0.0779201
0.0459477
0.02103
0.00677795
0.000708578
-6.56312e-05
-2.45053e-05
-2.7384e-06
5.29873e-07
1.80171e-07
1.72726e-08
-1.09149e-09
-4.16823e-10
-4.14808e-11
5.4906e-13
2.20883e-13
2.16974e-14
-3.07851e-18
1.68776e-17
1.46379e-17
8.37395e-18
4.02888e-18
1.78461e-18
7.60084e-19
3.17547e-19
1.31044e-19
7.85211e-20
7.27074e-06
1.55596e-06
-5.2348e-05
-2.20687e-05
0.000183254
0.000168724
-0.000378223
-0.00069811
0.000246886
0.00160959
0.000928998
-0.00214454
-0.00354257
0.000565499
0.00844359
0.011807
0.00569502
-0.0085039
-0.0242088
-0.0352352
-0.040592
-0.041308
-0.0390938
-0.0336377
-0.0252725
-0.0158721
-0.00776434
-0.00256014
-0.000390959
2.40989e-05
1.36377e-05
3.08076e-06
6.22405e-08
-1.5969e-08
-5.86808e-09
-5.29218e-10
5.80781e-12
2.54782e-12
4.00532e-13
-9.25936e-16
-2.51594e-16
-8.70693e-17
-3.07578e-17
-9.88114e-18
-2.70376e-18
-5.22458e-19
1.89858e-20
9.44173e-20
6.89296e-20
6.12426e-20
-1.69825e-06
2.23235e-06
1.26896e-05
-1.07237e-05
-5.42289e-05
1.10512e-05
0.000163586
9.08014e-05
-0.000288025
-0.00039335
0.000173027
0.000744716
6.77793e-05
-0.00194597
-0.00319794
-0.00127202
0.00404759
0.00924679
0.00923391
0.00228376
-0.00935811
-0.0195212
-0.0221934
-0.0190305
-0.0125626
-0.00607879
-0.00179625
0.000322931