/*--------------------------------*- C++ -*----------------------------------*\
| =========                 |                                                 |
| \\      /  F ield         | OpenFOAM: The Open Source CFD Toolbox           |
|  \\    /   O peration     | Version:  v2006                                 |
|   \\  /    A nd           | Website:  www.openfoam.com                      |
|    \\/     M anipulation  |                                                 |
\*---------------------------------------------------------------------------*/
FoamFile
{
    version     2.0;
    format      ascii;
    class       volScalarField;
    location    "7.6";
    object      p;
}
// * * * * * * * * * * * * * * * * * * * * * * * * * * * * * * * * * * * * * //

dimensions      [1 -1 -2 0 0 0 0];


internalField   nonuniform List<scalar> 
50000
(
22392.1
22392.4
22392.7
22393.4
22394.1
22395.1
22396.3
22397.7
22399.2
22401
22402.9
22405
22407.3
22409.7
22412.2
22415
22417.8
22420.8
22424
22427.2
22430.5
22434
22437.5
22441.1
22444.8
22448.6
22452.4
22456.2
22460
22463.9
22467.8
22471.6
22475.5
22479.3
22483
22486.7
22490.3
22493.9
22497.3
22500.6
22503.8
22506.9
22509.8
22512.6
22515.2
22517.6
22519.8
22521.8
22523.5
22525.1
22526.3
22527.4
22528.2
22528.7
22528.9
22528.8
22528.4
22527.7
22526.7
22525.3
22523.6
22521.6
22519.2
22516.4
22513.3
22509.9
22506
22501.8
22497.2
22492.3
22486.9
22481.2
22475
22468.5
22461.7
22454.4
22446.7
22438.7
22430.3
22421.6
22412.4
22402.9
22393.1
22382.9
22372.4
22361.5
22350.3
22338.9
22327.1
22315
22302.6
22290
22277.1
22263.9
22250.5
22236.9
22223.1
22209.2
22195
22180.7
22166.2
22151.6
22136.9
22122.1
22107.2
22092.3
22077.3
22062.3
22047.3
22032.3
22017.4
22002.5
21987.7
21973
21958.4
21943.9
21929.6
21915.5
21901.5
21887.8
21874.3
21861
21848
21835.3
21822.8
21810.7
21799
21787.6
21776.5
21765.9
21755.6
21745.8
21736.4
21727.4
21718.9
21710.8
21703.3
21696.2
21689.6
21683.6
21678
21673
21668.5
21664.6
21661.2
21658.4
21656.2
21654.5
21653.3
21652.8
21940.5
21940.7
21941.1
21941.7
21942.5
21943.5
21944.7
21946.1
21947.6
21949.4
21951.3
21953.4
21955.7
21958.1
21960.7
21963.4
21966.3
21969.3
21972.5
21975.7
21979.1
21982.6
21986.1
21989.7
21993.5
21997.2
22001
22004.9
22008.8
22012.6
22016.5
22020.4
22024.3
22028.1
22031.9
22035.6
22039.2
22042.8
22046.3
22049.6
22052.8
22055.9
22058.9
22061.6
22064.3
22066.7
22068.9
22070.9
22072.7
22074.3
22075.6
22076.6
22077.4
22077.9
22078.2
22078.1
22077.7
22077
22076
22074.7
22073
22071
22068.6
22065.9
22062.8
22059.3
22055.5
22051.3
22046.7
22041.7
22036.4
22030.6
22024.5
22018
22011.1
22003.8
21996.2
21988.2
21979.8
21971
21961.9
21952.4
21942.5
21932.3
21921.8
21910.9
21899.7
21888.2
21876.4
21864.2
21851.9
21839.2
21826.3
21813.1
21799.7
21786.1
21772.2
21758.2
21744
21729.6
21715.1
21700.5
21685.8
21670.9
21656
21641.1
21626
21611
21596
21581
21566
21551.1
21536.2
21521.5
21506.9
21492.4
21478
21463.8
21449.8
21436.1
21422.5
21409.2
21396.2
21383.4
21371
21358.8
21347
21335.6
21324.5
21313.8
21303.5
21293.7
21284.2
21275.2
21266.7
21258.6
21251
21244
21237.4
21231.3
21225.7
21220.7
21216.2
21212.3
21208.9
21206.1
21203.8
21202.1
21201
21200.4
21488.4
21488.7
21489.1
21489.7
21490.5
21491.5
21492.7
21494.1
21495.7
21497.4
21499.4
21501.5
21503.8
21506.2
21508.9
21511.6
21514.5
21517.6
21520.8
21524
21527.4
21530.9
21534.5
21538.2
21542
21545.8
21549.6
21553.5
21557.4
21561.4
21565.3
21569.2
21573.1
21577
21580.8
21584.6
21588.3
21591.9
21595.4
21598.8
21602.1
21605.2
21608.2
21611
21613.7
21616.2
21618.4
21620.5
21622.3
21623.9
21625.3
21626.4
21627.2
21627.7
21628
21628
21627.6
21627
21626
21624.7
21623
21621
21618.7
21616
21612.9
21609.5
21605.6
21601.4
21596.9
21591.9
21586.6
21580.8
21574.7
21568.2
21561.3
21554
21546.4
21538.3
21529.9
21521.1
21512
21502.4
21492.6
21482.3
21471.8
21460.8
21449.6
21438.1
21426.2
21414.1
21401.6
21388.9
21375.9
21362.7
21349.2
21335.6
21321.7
21307.6
21293.3
21278.9
21264.4
21249.7
21234.9
21220
21205
21189.9
21174.9
21159.8
21144.7
21129.6
21114.5
21099.5
21084.6
21069.8
21055.1
21040.5
21026.1
21011.8
20997.8
20983.9
20970.3
20956.9
20943.8
20931
20918.5
20906.3
20894.4
20882.9
20871.8
20861
20850.7
20840.7
20831.2
20822.2
20813.6
20805.5
20797.9
20790.7
20784.1
20778
20772.4
20767.3
20762.8
20758.9
20755.5
20752.6
20750.3
20748.6
20747.5
20746.9
21036
21036.3
21036.6
21037.3
21038.1
21039.1
21040.3
21041.7
21043.3
21045.1
21047.1
21049.3
21051.6
21054.1
21056.7
21059.5
21062.5
21065.6
21068.8
21072.1
21075.6
21079.2
21082.8
21086.5
21090.3
21094.2
21098.1
21102.1
21106.1
21110.1
21114.1
21118.1
21122.1
21126
21129.9
21133.7
21137.5
21141.2
21144.8
21148.2
21151.6
21154.8
21157.8
21160.7
21163.5
21166
21168.3
21170.5
21172.4
21174
21175.4
21176.6
21177.5
21178.1
21178.4
21178.4
21178.1
21177.5
21176.6
21175.3
21173.7
21171.8
21169.4
21166.8
21163.7
21160.3
21156.5
21152.3
21147.8
21142.8
21137.5
21131.7
21125.6
21119.1
21112.2
21104.9
21097.3
21089.2
21080.8
21071.9
21062.8
21053.2
21043.3
21033
21022.4
21011.4
21000.2
20988.5
20976.6
20964.4
20951.9
20939.1
20926.1
20912.8
20899.2
20885.5
20871.5
20857.3
20843
20828.5
20813.8
20799
20784.1
20769.1
20754
20738.9
20723.7
20708.5
20693.3
20678.1
20662.9
20647.8
20632.8
20617.9
20603
20588.4
20573.8
20559.5
20545.3
20531.3
20517.6
20504.1
20490.9
20478
20465.3
20453
20441.1
20429.5
20418.2
20407.4
20397
20387
20377.4
20368.2
20359.6
20351.4
20343.7
20336.5
20329.8
20323.6
20318
20312.9
20308.3
20304.3
20300.9
20298
20295.7
20294
20292.8
20292.3
20583.2
20583.4
20583.8
20584.5
20585.3
20586.3
20587.6
20589
20590.7
20592.5
20594.5
20596.7
20599.1
20601.6
20604.3
20607.2
20610.2
20613.3
20616.6
20620
20623.6
20627.2
20630.9
20634.7
20638.6
20642.6
20646.6
20650.6
20654.7
20658.8
20662.9
20667
20671
20675.1
20679.1
20683
20686.9
20690.6
20694.3
20697.9
20701.3
20704.6
20707.8
20710.8
20713.6
20716.2
20718.6
20720.9
20722.8
20724.6
20726.1
20727.3
20728.3
20729
20729.4
20729.5
20729.3
20728.7
20727.8
20726.6
20725.1
20723.2
20720.9
20718.3
20715.2
20711.9
20708.1
20703.9
20699.4
20694.5
20689.1
20683.4
20677.3
20670.8
20663.9
20656.6
20648.9
20640.8
20632.3
20623.5
20614.2
20604.6
20594.7
20584.3
20573.7
20562.7
20551.3
20539.6
20527.6
20515.3
20502.7
20489.8
20476.7
20463.3
20449.7
20435.8
20421.7
20407.4
20392.9
20378.3
20363.5
20348.6
20333.5
20318.4
20303.2
20287.9
20272.6
20257.2
20241.9
20226.6
20211.2
20196
20180.8
20165.7
20150.8
20135.9
20121.2
20106.7
20092.4
20078.3
20064.4
20050.8
20037.4
20024.4
20011.6
19999.2
19987.1
19975.3
19964
19953
19942.4
19932.3
19922.6
19913.4
19904.6
19896.3
19888.5
19881.3
19874.5
19868.2
19862.5
19857.4
19852.8
19848.7
19845.2
19842.3
19840
19838.2
19837.1
19836.5
20130
20130.2
20130.6
20131.3
20132.1
20133.2
20134.5
20135.9
20137.6
20139.5
20141.5
20143.8
20146.2
20148.8
20151.6
20154.5
20157.6
20160.8
20164.2
20167.7
20171.3
20175
20178.9
20182.8
20186.8
20190.8
20194.9
20199.1
20203.3
20207.5
20211.7
20215.9
20220.1
20224.2
20228.3
20232.4
20236.4
20240.3
20244.1
20247.8
20251.3
20254.8
20258
20261.1
20264.1
20266.8
20269.4
20271.7
20273.8
20275.6
20277.2
20278.6
20279.7
20280.4
20280.9
20281.1
20281
20280.5
20279.7
20278.6
20277.1
20275.2
20273
20270.4
20267.5
20264.1
20260.4
20256.3
20251.8
20246.9
20241.5
20235.8
20229.7
20223.2
20216.3
20208.9
20201.2
20193.1
20184.6
20175.7
20166.4
20156.8
20146.8
20136.4
20125.6
20114.5
20103.1
20091.3
20079.2
20066.8
20054.1
20041.1
20027.8
20014.3
20000.5
19986.5
19972.3
19957.8
19943.2
19928.4
19913.5
19898.4
19883.2
19867.9
19852.5
19837
19821.5
19806
19790.5
19774.9
19759.4
19744
19728.6
19713.4
19698.2
19683.2
19668.3
19653.6
19639.1
19624.8
19610.7
19596.9
19583.4
19570.1
19557.2
19544.6
19532.3
19520.4
19508.9
19497.8
19487.1
19476.8
19467
19457.6
19448.7
19440.3
19432.4
19425
19418.1
19411.8
19406
19400.8
19396.1
19392
19388.4
19385.5
19383.1
19381.3
19380.1
19379.5
19676.3
19676.6
19677
19677.7
19678.5
19679.6
19680.9
19682.5
19684.2
19686.1
19688.2
19690.5
19693
19695.7
19698.6
19701.6
19704.7
19708.1
19711.5
19715.1
19718.9
19722.7
19726.6
19730.7
19734.8
19738.9
19743.2
19747.5
19751.8
19756.1
19760.5
19764.8
19769.2
19773.5
19777.7
19781.9
19786
19790.1
19794
19797.9
19801.6
19805.2
19808.6
19811.8
19814.9
19817.8
19820.5
19822.9
19825.2
19827.2
19828.9
19830.3
19831.5
19832.4
19833
19833.3
19833.3
19832.9
19832.2
19831.2
19829.8
19828
19825.9
19823.3
19820.4
19817.1
19813.5
19809.4
19804.9
19800
19794.7
19789
19782.9
19776.4
19769.4
19762.1
19754.3
19746.2
19737.6
19728.7
19719.3
19709.6
19699.5
19689
19678.2
19667
19655.5
19643.6
19631.3
19618.8
19606
19592.8
19579.4
19565.7
19551.8
19537.6
19523.2
19508.6
19493.8
19478.8
19463.7
19448.4
19433
19417.5
19401.9
19386.2
19370.5
19354.8
19339
19323.3
19307.5
19291.9
19276.3
19260.8
19245.4
19230.1
19215
19200.1
19185.4
19170.9
19156.6
19142.5
19128.8
19115.3
19102.2
19089.4
19076.9
19064.8
19053.1
19041.8
19030.9
19020.4
19010.4
19000.9
18991.9
18983.3
18975.3
18967.7
18960.7
18954.3
18948.4
18943
18938.3
18934.1
18930.5
18927.5
18925.1
18923.3
18922
18921.4
19222.3
19222.5
19223
19223.7
19224.6
19225.7
19227
19228.6
19230.4
19232.3
19234.5
19236.9
19239.5
19242.3
19245.2
19248.3
19251.6
19255
19258.6
19262.3
19266.2
19270.1
19274.2
19278.4
19282.6
19287
19291.4
19295.8
19300.3
19304.8
19309.3
19313.8
19318.3
19322.8
19327.2
19331.6
19335.9
19340.1
19344.2
19348.2
19352.1
19355.8
19359.4
19362.9
19366.1
19369.1
19372
19374.6
19377
19379.1
19381
19382.6
19384
19385
19385.7
19386.1
19386.2
19386
19385.4
19384.4
19383.1
19381.5
19379.4
19377
19374.1
19370.9
19367.3
19363.2
19358.8
19353.9
19348.6
19342.9
19336.8
19330.3
19323.4
19316
19308.2
19300
19291.4
19282.4
19273
19263.2
19253
19242.4
19231.5
19220.2
19208.5
19196.5
19184.1
19171.4
19158.4
19145.1
19131.6
19117.7
19103.6
19089.2
19074.6
19059.8
19044.7
19029.5
19014.2
18998.7
18983
18967.3
18951.4
18935.5
18919.5
18903.5
18887.5
18871.5
18855.5
18839.6
18823.7
18808
18792.3
18776.8
18761.4
18746.2
18731.2
18716.4
18701.9
18687.6
18673.6
18659.9
18646.5
18633.4
18620.7
18608.4
18596.5
18584.9
18573.8
18563.2
18553
18543.3
18534
18525.3
18517.1
18509.4
18502.3
18495.7
18489.7
18484.2
18479.3
18475.1
18471.4
18468.3
18465.9
18464
18462.8
18462.2
18767.8
18768
18768.5
18769.2
18770.1
18771.3
18772.7
18774.3
18776.1
18778.2
18780.5
18782.9
18785.6
18788.5
18791.5
18794.7
18798.1
18801.7
18805.4
18809.3
18813.3
18817.4
18821.6
18825.9
18830.4
18834.9
18839.4
18844
18848.7
18853.4
18858.1
18862.8
18867.5
18872.2
18876.8
18881.3
18885.8
18890.3
18894.6
18898.8
18902.9
18906.8
18910.6
18914.2
18917.7
18920.9
18923.9
18926.7
18929.3
18931.6
18933.7
18935.4
18936.9
18938.1
18939
18939.6
18939.8
18939.7
18939.2
18938.4
18937.2
18935.6
18933.7
18931.3
18928.6
18925.4
18921.8
18917.8
18913.4
18908.6
18903.4
18897.7
18891.6
18885
18878.1
18870.7
18862.9
18854.6
18846
18836.9
18827.4
18817.5
18807.2
18796.5
18785.4
18774
18762.2
18750
18737.5
18724.6
18711.5
18698
18684.2
18670.1
18655.8
18641.2
18626.3
18611.3
18596
18580.6
18564.9
18549.2
18533.2
18517.2
18501.1
18484.9
18468.6
18452.3
18436
18419.7
18403.4
18387.2
18371
18354.9
18339
18323.1
18307.5
18292
18276.7
18261.6
18246.7
18232.1
18217.8
18203.8
18190.1
18176.8
18163.8
18151.2
18139
18127.2
18115.9
18105
18094.6
18084.6
18075.2
18066.3
18057.9
18050
18042.7
18036
18029.8
18024.2
18019.3
18014.9
18011.1
18008
18005.4
18003.5
18002.3
18001.7
18312.8
18313.1
18313.6
18314.3
18315.3
18316.5
18317.9
18319.6
18321.5
18323.6
18326
18328.6
18331.3
18334.3
18337.5
18340.8
18344.4
18348.1
18351.9
18356
18360.1
18364.4
18368.8
18373.3
18377.9
18382.6
18387.4
18392.2
18397.1
18402
18406.9
18411.8
18416.7
18421.6
18426.5
18431.2
18436
18440.6
18445.2
18449.6
18453.9
18458.1
18462.1
18465.9
18469.6
18473
18476.3
18479.3
18482.1
18484.6
18486.8
18488.8
18490.5
18491.9
18492.9
18493.6
18494
18494.1
18493.7
18493.1
18492
18490.5
18488.7
18486.4
18483.8
18480.7
18477.2
18473.3
18468.9
18464.1
18458.9
18453.2
18447.1
18440.6
18433.6
18426.2
18418.3
18410
18401.3
18392.1
18382.5
18372.5
18362.1
18351.3
18340.1
18328.5
18316.5
18304.2
18291.5
18278.5
18265.1
18251.4
18237.4
18223.1
18208.5
18193.6
18178.5
18163.2
18147.6
18131.9
18116
18099.9
18083.7
18067.3
18050.9
18034.4
18017.8
18001.1
17984.5
17967.8
17951.2
17934.6
17918.1
17901.7
17885.4
17869.2
17853.2
17837.3
17821.7
17806.2
17791
17776.1
17761.5
17747.1
17733.1
17719.5
17706.2
17693.3
17680.8
17668.7
17657.1
17645.9
17635.2
17625
17615.4
17606.2
17597.6
17589.5
17582
17575.1
17568.8
17563.1
17558
17553.5
17549.6
17546.4
17543.8
17541.8
17540.5
17539.9
17857.4
17857.7
17858.2
17858.9
17859.9
17861.2
17862.7
17864.5
17866.4
17868.7
17871.1
17873.8
17876.7
17879.8
17883.1
17886.6
17890.3
17894.2
17898.2
17902.4
17906.7
17911.2
17915.8
17920.5
17925.3
17930.3
17935.2
17940.3
17945.4
17950.5
17955.7
17960.8
17966
17971.1
17976.2
17981.3
17986.2
17991.1
17995.9
18000.6
18005.2
18009.6
18013.9
18018
18021.9
18025.6
18029
18032.3
18035.3
18038
18040.5
18042.7
18044.6
18046.2
18047.4
18048.3
18048.9
18049.1
18049
18048.4
18047.5
18046.2
18044.4
18042.3
18039.7
18036.8
18033.3
18029.5
18025.2
18020.4
18015.2
18009.6
18003.5
17996.9
17989.9
17982.5
17974.6
17966.2
17957.4
17948.2
17938.5
17928.4
17917.9
17906.9
17895.5
17883.8
17871.6
17859.1
17846.2
17832.9
17819.3
17805.3
17791.1
17776.5
17761.6
17746.5
17731.1
17715.5
17699.7
17683.6
17667.3
17650.9
17634.4
17617.7
17600.8
17584
17567
17550
17533
17515.9
17498.9
17481.9
17465
17448.2
17431.5
17414.9
17398.5
17382.3
17366.2
17350.4
17334.8
17319.5
17304.5
17289.8
17275.4
17261.4
17247.8
17234.5
17221.7
17209.3
17197.4
17185.9
17174.9
17164.4
17154.5
17145.1
17136.2
17127.9
17120.2
17113.1
17106.6
17100.7
17095.5
17090.9
17086.9
17083.5
17080.9
17078.9
17077.5
17076.9
17401.5
17401.8
17402.3
17403.1
17404.1
17405.5
17407
17408.9
17410.9
17413.3
17415.8
17418.6
17421.6
17424.9
17428.3
17432
17435.9
17439.9
17444.1
17448.5
17453.1
17457.8
17462.6
17467.5
17472.6
17477.7
17483
17488.3
17493.6
17499
17504.4
17509.9
17515.3
17520.7
17526.1
17531.4
17536.7
17541.9
17546.9
17551.9
17556.7
17561.4
17566
17570.3
17574.5
17578.5
17582.2
17585.7
17589
17592
17594.7
17597.2
17599.3
17601.1
17602.5
17603.7
17604.4
17604.8
17604.9
17604.5
17603.7
17602.6
17601
17599
17596.5
17593.6
17590.3
17586.5
17582.3
17577.6
17572.4
17566.8
17560.7
17554.2
17547.2
17539.7
17531.7
17523.3
17514.4
17505.1
17495.3
17485
17474.4
17463.2
17451.7
17439.8
17427.4
17414.7
17401.5
17388
17374.2
17359.9
17345.4
17330.5
17315.4
17299.9
17284.2
17268.2
17252
17235.6
17219
17202.2
17185.3
17168.2
17151
17133.7
17116.3
17098.9
17081.4
17064
17046.5
17029.1
17011.8
16994.5
16977.4
16960.4
16943.5
16926.8
16910.3
16894.1
16878.1
16862.4
16846.9
16831.8
16817
16802.6
16788.6
16775
16761.8
16749
16736.7
16724.9
16713.6
16702.8
16692.5
16682.9
16673.7
16665.2
16657.2
16649.9
16643.2
16637.1
16631.7
16627
16622.8
16619.4
16616.7
16614.6
16613.2
16612.5
16945.1
16945.4
16945.9
16946.8
16947.9
16949.2
16950.9
16952.8
16955
16957.4
16960.1
16963
16966.2
16969.6
16973.2
16977
16981.1
16985.3
16989.7
16994.3
16999.1
17004
17009.1
17014.3
17019.6
17025
17030.5
17036.1
17041.8
17047.5
17053.2
17058.9
17064.6
17070.4
17076
17081.7
17087.2
17092.7
17098.1
17103.4
17108.6
17113.6
17118.4
17123.1
17127.6
17131.8
17135.9
17139.7
17143.2
17146.5
17149.5
17152.2
17154.6
17156.6
17158.3
17159.7
17160.7
17161.3
17161.5
17161.4
17160.8
17159.8
17158.3
17156.5
17154.1
17151.4
17148.1
17144.5
17140.3
17135.7
17130.5
17124.9
17118.9
17112.3
17105.2
17097.7
17089.7
17081.2
17072.2
17062.8
17052.9
17042.5
17031.7
17020.4
17008.7
16996.5
16983.9
16971
16957.6
16943.8
16929.7
16915.2
16900.3
16885.1
16869.6
16853.8
16837.8
16821.4
16804.8
16788
16771
16753.8
16736.4
16718.9
16701.3
16683.5
16665.7
16647.8
16629.9
16612
16594
16576.2
16558.3
16540.6
16523
16505.5
16488.1
16471
16454
16437.3
16420.8
16404.6
16388.7
16373.1
16357.9
16343.1
16328.6
16314.6
16300.9
16287.8
16275.1
16262.9
16251.2
16240.1
16229.5
16219.5
16210.1
16201.3
16193.1
16185.5
16178.5
16172.3
16166.7
16161.7
16157.5
16154
16151.1
16149
16147.5
16146.8
16488.1
16488.4
16489
16489.9
16491
16492.5
16494.2
16496.2
16498.5
16501
16503.8
16506.9
16510.2
16513.8
16517.6
16521.6
16525.9
16530.3
16535
16539.9
16544.9
16550.1
16555.4
16560.9
16566.5
16572.2
16578
16583.9
16589.8
16595.8
16601.9
16607.9
16614
16620
16626.1
16632
16638
16643.8
16649.5
16655.2
16660.7
16666
16671.2
16676.2
16681
16685.6
16690
16694.1
16697.9
16701.5
16704.8
16707.8
16710.5
16712.8
16714.8
16716.4
16717.6
16718.5
16718.9
16719
16718.6
16717.8
16716.5
16714.8
16712.6
16710
16706.9
16703.3
16699.2
16694.6
16689.5
16684
16677.9
16671.3
16664.2
16656.7
16648.6
16640
16631
16621.4
16611.4
16600.8
16589.8
16578.4
16566.4
16554.1
16541.3
16528
16514.4
16500.3
16485.9
16471
16455.9
16440.3
16424.5
16408.3
16391.8
16375.1
16358.1
16340.8
16323.4
16305.7
16287.9
16269.9
16251.8
16233.5
16215.2
16196.8
16178.4
16159.9
16141.5
16123.1
16104.7
16086.5
16068.3
16050.3
16032.4
16014.7
15997.2
15980
15963
15946.3
15929.9
15913.8
15898.1
15882.7
15867.8
15853.3
15839.2
15825.6
15812.5
15799.9
15787.8
15776.3
15765.4
15755
15745.3
15736.1
15727.6
15719.8
15712.6
15706.1
15700.3
15695.2
15690.8
15687.1
15684.2
15681.9
15680.5
15679.7
16030.6
16031
16031.5
16032.5
16033.7
16035.2
16037
16039.1
16041.5
16044.2
16047.1
16050.3
16053.8
16057.6
16061.6
16065.8
16070.3
16075
16079.9
16085
16090.3
16095.8
16101.4
16107.2
16113.1
16119.1
16125.3
16131.5
16137.8
16144.1
16150.5
16156.9
16163.4
16169.8
16176.2
16182.5
16188.8
16195
16201.1
16207.1
16213
16218.7
16224.3
16229.7
16234.8
16239.8
16244.5
16249
16253.2
16257.1
16260.7
16264
16267
16269.6
16271.9
16273.8
16275.3
16276.4
16277.1
16277.4
16277.2
16276.6
16275.5
16274
16272
16269.5
16266.5
16263
16259
16254.5
16249.5
16243.9
16237.9
16231.3
16224.2
16216.6
16208.4
16199.8
16190.6
16180.9
16170.7
16160.1
16148.9
16137.2
16125.1
16112.5
16099.4
16085.9
16071.9
16057.6
16042.8
16027.6
16012.1
15996.1
15979.9
15963.3
15946.4
15929.2
15911.7
15894
15876.1
15857.9
15839.6
15821.1
15802.4
15783.7
15764.8
15745.9
15726.9
15707.9
15688.9
15669.9
15651
15632.1
15613.4
15594.8
15576.3
15558.1
15540
15522.2
15504.6
15487.3
15470.4
15453.8
15437.5
15421.6
15406.2
15391.1
15376.6
15362.5
15348.9
15335.9
15323.3
15311.4
15300.1
15289.3
15279.2
15269.7
15260.9
15252.8
15245.3
15238.6
15232.5
15227.2
15222.7
15218.8
15215.8
15213.5
15211.9
15211.2
15572.5
15572.9
15573.5
15574.5
15575.7
15577.3
15579.2
15581.4
15583.9
15586.8
15589.9
15593.3
15597
15600.9
15605.1
15609.6
15614.3
15619.3
15624.5
15629.8
15635.4
15641.2
15647.2
15653.3
15659.5
15665.9
15672.4
15679
15685.6
15692.4
15699.1
15705.9
15712.8
15719.6
15726.4
15733.1
15739.8
15746.4
15753
15759.4
15765.6
15771.8
15777.7
15783.5
15789.1
15794.4
15799.5
15804.4
15808.9
15813.2
15817.2
15820.9
15824.2
15827.1
15829.7
15831.9
15833.7
15835.1
15836.1
15836.6
15836.7
15836.3
15835.4
15834.1
15832.2
15829.9
15827
15823.6
15819.7
15815.3
15810.4
15804.9
15798.8
15792.3
15785.1
15777.5
15769.3
15760.5
15751.2
15741.4
15731.1
15720.2
15708.8
15697
15684.6
15671.7
15658.4
15644.5
15630.3
15615.6
15600.4
15584.9
15568.9
15552.6
15535.9
15518.9
15501.5
15483.9
15465.9
15447.7
15429.2
15410.5
15391.6
15372.6
15353.4
15334
15314.6
15295
15275.4
15255.8
15236.2
15216.6
15197
15177.6
15158.2
15139
15119.9
15101
15082.3
15063.8
15045.7
15027.8
15010.2
14993
14976.1
14959.7
14943.7
14928.1
14913
14898.4
14884.3
14870.7
14857.7
14845.3
14833.5
14822.4
14811.9
14802
14792.8
14784.4
14776.6
14769.6
14763.3
14757.8
14753
14749.1
14745.9
14743.5
14741.9
14741.1
15113.8
15114.2
15114.8
15115.8
15117.2
15118.8
15120.8
15123.2
15125.8
15128.8
15132.1
15135.7
15139.5
15143.7
15148.2
15152.9
15157.9
15163.1
15168.6
15174.3
15180.2
15186.3
15192.6
15199
15205.7
15212.4
15219.3
15226.3
15233.3
15240.5
15247.7
15254.9
15262.2
15269.4
15276.6
15283.8
15291
15298
15305
15311.8
15318.5
15325.1
15331.5
15337.7
15343.7
15349.5
15355
15360.3
15365.2
15369.9
15374.3
15378.3
15382
15385.3
15388.3
15390.8
15392.9
15394.6
15395.9
15396.7
15397
15396.8
15396.2
15395.1
15393.4
15391.2
15388.5
15385.3
15381.5
15377.2
15372.3
15366.8
15360.8
15354.2
15347.1
15339.4
15331.1
15322.3
15312.9
15302.9
15292.4
15281.4
15269.8
15257.6
15245
15231.9
15218.2
15204.1
15189.5
15174.4
15158.8
15142.9
15126.5
15109.8
15092.6
15075.1
15057.2
15039
15020.5
15001.8
14982.7
14963.5
14944
14924.3
14904.5
14884.5
14864.4
14844.3
14824
14803.7
14783.4
14763.2
14742.9
14722.8
14702.7
14682.8
14663
14643.5
14624.1
14605
14586.1
14567.6
14549.4
14531.5
14514
14496.9
14480.3
14464.1
14448.4
14433.2
14418.6
14404.5
14391
14378.1
14365.8
14354.2
14343.2
14333
14323.4
14314.6
14306.5
14299.2
14292.6
14286.9
14281.9
14277.8
14274.4
14271.9
14270.3
14269.4
14654.5
14654.8
14655.5
14656.6
14658
14659.7
14661.9
14664.3
14667.1
14670.2
14673.7
14677.5
14681.6
14686
14690.7
14695.7
14701
14706.5
14712.3
14718.3
14724.6
14731
14737.7
14744.5
14751.5
14758.7
14766
14773.4
14780.9
14788.5
14796.1
14803.8
14811.5
14819.3
14827
14834.6
14842.2
14849.8
14857.2
14864.5
14871.7
14878.8
14885.6
14892.3
14898.8
14905
14911
14916.7
14922.1
14927.2
14932
14936.4
14940.5
14944.2
14947.5
14950.4
14952.9
14954.9
14956.5
14957.6
14958.2
14958.3
14958
14957
14955.6
14953.6
14951.1
14948
14944.3
14940.1
14935.2
14929.8
14923.9
14917.3
14910.1
14902.3
14894
14885.1
14875.5
14865.4
14854.8
14843.5
14831.7
14819.3
14806.4
14792.9
14779
14764.5
14749.5
14734
14718.1
14701.7
14684.9
14667.6
14650
14631.9
14613.5
14594.8
14575.7
14556.4
14536.7
14516.8
14496.7
14476.4
14455.9
14435.3
14414.5
14393.6
14372.7
14351.7
14330.7
14309.7
14288.7
14267.8
14247
14226.4
14205.8
14185.5
14165.4
14145.6
14126
14106.7
14087.8
14069.2
14051
14033.3
14016
13999.1
13982.8
13967
13951.7
13937.1
13923
13909.5
13896.7
13884.6
13873.2
13862.5
13852.5
13843.3
13834.9
13827.2
13820.4
13814.4
13809.2
13804.8
13801.3
13798.7
13797
13796.1
14194.4
14194.8
14195.5
14196.6
14198.1
14200
14202.2
14204.8
14207.7
14211.1
14214.7
14218.7
14223
14227.7
14232.7
14238
14243.5
14249.4
14255.5
14261.9
14268.5
14275.4
14282.4
14289.7
14297.1
14304.7
14312.5
14320.3
14328.3
14336.4
14344.5
14352.7
14360.9
14369.1
14377.3
14385.5
14393.6
14401.7
14409.6
14417.5
14425.2
14432.7
14440.1
14447.3
14454.3
14461
14467.4
14473.6
14479.5
14485.1
14490.3
14495.2
14499.8
14503.9
14507.6
14510.9
14513.7
14516.1
14518
14519.5
14520.4
14520.8
14520.7
14520
14518.8
14517
14514.6
14511.7
14508.2
14504
14499.3
14494
14488
14481.4
14474.2
14466.4
14458
14449
14439.3
14429
14418.2
14406.7
14394.7
14382
14368.8
14355
14340.7
14325.8
14310.5
14294.6
14278.2
14261.3
14244
14226.2
14208.1
14189.4
14170.5
14151.1
14131.4
14111.4
14091.2
14070.6
14049.8
14028.8
14007.6
13986.2
13964.7
13943.1
13921.4
13899.6
13877.8
13856
13834.3
13812.6
13791
13769.6
13748.3
13727.2
13706.3
13685.6
13665.3
13645.2
13625.5
13606.2
13587.3
13568.8
13550.7
13533.2
13516.2
13499.7
13483.8
13468.5
13453.8
13439.7
13426.4
13413.7
13401.8
13390.6
13380.1
13370.5
13361.7
13353.7
13346.5
13340.2
13334.8
13330.2
13326.6
13323.8
13322
13321.1
13733.6
13734
13734.8
13736
13737.6
13739.5
13741.9
13744.6
13747.7
13751.2
13755.1
13759.3
13763.9
13768.8
13774.1
13779.7
13785.6
13791.8
13798.3
13805
13812
13819.3
13826.8
13834.5
13842.4
13850.5
13858.7
13867.1
13875.6
13884.1
13892.8
13901.5
13910.3
13919
13927.8
13936.5
13945.2
13953.8
13962.3
13970.7
13978.9
13987
13995
14002.7
14010.2
14017.4
14024.4
14031.1
14037.5
14043.6
14049.4
14054.7
14059.7
14064.3
14068.4
14072.2
14075.4
14078.2
14080.5
14082.3
14083.5
14084.2
14084.4
14084
14083.1
14081.5
14079.3
14076.6
14073.2
14069.2
14064.5
14059.2
14053.3
14046.7
14039.5
14031.7
14023.2
14014
14004.2
13993.8
13982.7
13971
13958.7
13945.8
13932.3
13918.2
13903.5
13888.2
13872.4
13856
13839.2
13821.8
13803.9
13785.6
13766.8
13747.7
13728.1
13708.1
13687.8
13667.1
13646.1
13624.8
13603.3
13581.5
13559.6
13537.4
13515.1
13492.7
13470.2
13447.6
13425
13402.3
13379.8
13357.2
13334.8
13312.5
13290.3
13268.3
13246.6
13225.1
13203.9
13183
13162.5
13142.3
13122.6
13103.3
13084.5
13066.2
13048.4
13031.2
13014.6
12998.6
12983.3
12968.6
12954.6
12941.3
12928.8
12917.1
12906.2
12896.1
12886.8
12878.4
12870.9
12864.3
12858.6
12853.8
12850
12847.1
12845.2
12844.2
13272.1
13272.5
13273.4
13274.6
13276.2
13278.3
13280.8
13283.7
13287
13290.6
13294.7
13299.2
13304.1
13309.3
13314.8
13320.8
13327
13333.6
13340.5
13347.7
13355.1
13362.8
13370.8
13379
13387.4
13395.9
13404.7
13413.6
13422.6
13431.7
13441
13450.2
13459.6
13468.9
13478.3
13487.6
13496.8
13506
13515.1
13524.1
13533
13541.7
13550.2
13558.5
13566.6
13574.4
13582
13589.2
13596.2
13602.8
13609
13614.9
13620.4
13625.5
13630.1
13634.3
13638
13641.2
13643.9
13646
13647.7
13648.7
13649.2
13649.1
13648.4
13647.1
13645.1
13642.6
13639.3
13635.5
13630.9
13625.7
13619.8
13613.3
13606
13598.1
13589.5
13580.3
13570.3
13559.7
13548.5
13536.5
13523.9
13510.7
13496.8
13482.4
13467.3
13451.6
13435.3
13418.5
13401.1
13383.2
13364.8
13345.9
13326.5
13306.7
13286.4
13265.7
13244.7
13223.3
13201.6
13179.6
13157.2
13134.7
13111.9
13088.9
13065.8
13042.5
13019.1
12995.6
12972.1
12948.6
12925.1
12901.6
12878.3
12855
12832
12809.1
12786.4
12764
12741.9
12720.1
12698.7
12677.7
12657.1
12636.9
12617.3
12598.2
12579.6
12561.6
12544.2
12527.5
12511.4
12496
12481.4
12467.5
12454.4
12442.1
12430.6
12420
12410.3
12401.5
12393.6
12386.6
12380.6
12375.6
12371.6
12368.5
12366.5
12365.5
12809.8
12810.2
12811.1
12812.4
12814.1
12816.3
12818.9
12822
12825.4
12829.3
12833.7
12838.4
12843.5
12849
12855
12861.2
12867.9
12874.8
12882.1
12889.8
12897.7
12905.9
12914.3
12923
12931.9
12941.1
12950.4
12959.8
12969.5
12979.2
12989
12998.9
13008.8
13018.8
13028.8
13038.7
13048.6
13058.5
13068.2
13077.8
13087.3
13096.6
13105.8
13114.7
13123.4
13131.8
13140
13147.9
13155.4
13162.6
13169.4
13175.9
13181.9
13187.5
13192.6
13197.3
13201.5
13205.1
13208.3
13210.8
13212.9
13214.3
13215.1
13215.3
13214.9
13213.9
13212.2
13209.8
13206.7
13203
13198.6
13193.5
13187.6
13181.1
13173.8
13165.9
13157.2
13147.8
13137.7
13126.9
13115.4
13103.2
13090.4
13076.8
13062.6
13047.7
13032.2
13016.1
12999.3
12982
12964
12945.6
12926.5
12907
12887
12866.5
12845.5
12824.1
12802.3
12780.2
12757.6
12734.8
12711.6
12688.2
12664.6
12640.7
12616.6
12592.4
12568.1
12543.7
12519.2
12494.8
12470.3
12445.8
12421.5
12397.3
12373.2
12349.3
12325.7
12302.3
12279.2
12256.5
12234.1
12212.1
12190.6
12169.5
12149
12129
12109.6
12090.7
12072.5
12055
12038.1
12022
12006.7
11992.1
11978.3
11965.4
11953.3
11942.2
11931.9
11922.6
11914.3
11907
11900.7
11895.4
11891.1
11887.9
11885.8
11884.8
12346.6
12347
12348
12349.4
12351.2
12353.5
12356.2
12359.4
12363.1
12367.2
12371.8
12376.8
12382.3
12388.1
12394.4
12401
12408.1
12415.5
12423.2
12431.3
12439.7
12448.4
12457.4
12466.6
12476.1
12485.8
12495.7
12505.8
12516.1
12526.4
12536.9
12547.4
12558
12568.7
12579.3
12589.9
12600.5
12611
12621.5
12631.8
12641.9
12651.9
12661.8
12671.4
12680.7
12689.8
12698.6
12707.1
12715.3
12723.1
12730.5
12737.6
12744.2
12750.3
12756
12761.2
12765.9
12770.1
12773.7
12776.7
12779.1
12781
12782.2
12782.7
12782.6
12781.9
12780.4
12778.3
12775.4
12771.8
12767.5
12762.5
12756.7
12750.2
12743
12734.9
12726.2
12716.7
12706.4
12695.4
12683.7
12671.2
12658
12644.1
12629.5
12614.3
12598.3
12581.7
12564.4
12546.5
12528
12508.9
12489.3
12469.1
12448.3
12427.1
12405.4
12383.2
12360.6
12337.7
12314.3
12290.6
12266.5
12242.2
12217.6
12192.8
12167.8
12142.6
12117.3
12091.9
12066.4
12040.9
12015.4
11989.9
11964.5
11939.2
11914.1
11889.1
11864.4
11840
11815.9
11792.1
11768.7
11745.7
11723.2
11701.1
11679.6
11658.7
11638.3
11618.6
11599.5
11581.1
11563.4
11546.5
11530.4
11515
11500.5
11486.9
11474.2
11462.5
11451.7
11441.9
11433.1
11425.4
11418.7
11413.2
11408.7
11405.3
11403
11401.9
11882.5
11883
11884
11885.4
11887.3
11889.7
11892.7
11896
11899.9
11904.3
11909.1
11914.4
11920.2
11926.4
11933
11940.1
11947.5
11955.4
11963.6
11972.2
11981.2
11990.4
12000
12009.8
12019.9
12030.2
12040.8
12051.5
12062.4
12073.5
12084.6
12095.9
12107.2
12118.5
12129.9
12141.2
12152.5
12163.8
12174.9
12186
12196.9
12207.6
12218.1
12228.4
12238.5
12248.3
12257.8
12267
12275.8
12284.3
12292.4
12300.1
12307.3
12314.1
12320.3
12326.1
12331.3
12336
12340.1
12343.6
12346.5
12348.8
12350.4
12351.4
12351.6
12351.2
12350
12348.1
12345.4
12342
12337.9
12333
12327.3
12320.8
12313.5
12305.4
12296.6
12286.9
12276.5
12265.3
12253.3
12240.6
12227.1
12212.8
12197.8
12182.1
12165.6
12148.5
12130.7
12112.2
12093.1
12073.4
12053
12032.1
12010.7
11988.7
11966.1
11943.2
11919.7
11895.8
11871.6
11846.9
11822
11796.7
11771.1
11745.3
11719.3
11693
11666.7
11640.2
11613.6
11587
11560.3
11533.8
11507.2
11480.8
11454.5
11428.5
11402.6
11377
11351.8
11326.9
11302.4
11278.3
11254.7
11231.7
11209.1
11187.2
11165.8
11145.1
11125.1
11105.8
11087.2
11069.4
11052.4
11036.3
11021
11006.7
10993.3
10980.9
10969.5
10959.1
10949.9
10941.7
10934.6
10928.7
10924
10920.4
10918
10916.8
11417.4
11418
11419
11420.5
11422.6
11425.1
11428.2
11431.7
11435.8
11440.4
11445.6
11451.2
11457.3
11463.8
11470.9
11478.4
11486.3
11494.6
11503.4
11512.5
11522
11531.8
11542
11552.5
11563.2
11574.2
11585.4
11596.9
11608.5
11620.3
11632.2
11644.2
11656.2
11668.3
11680.5
11692.6
11704.7
11716.7
11728.6
11740.4
11752.1
11763.6
11774.9
11786
11796.8
11807.3
11817.6
11827.5
11837.1
11846.2
11855
11863.4
11871.3
11878.7
11885.6
11892
11897.8
11903.1
11907.7
11911.8
11915.1
11917.9
11919.9
11921.3
11921.9
11921.8
11920.9
11919.3
11916.9
11913.7
11909.7
11904.9
11899.2
11892.8
11885.5
11877.4
11868.4
11858.7
11848.1
11836.7
11824.4
11811.4
11797.5
11782.9
11767.4
11751.2
11734.3
11716.6
11698.2
11679.1
11659.4
11638.9
11617.9
11596.2
11574
11551.1
11527.8
11503.9
11479.6
11454.8
11429.6
11404
11378
11351.7
11325.1
11298.2
11271
11243.7
11216.2
11188.6
11160.9
11133.1
11105.3
11077.5
11049.7
11022.1
10994.6
10967.3
10940.2
10913.5
10887
10860.9
10835.2
10810
10785.3
10761.1
10737.5
10714.4
10692
10670.3
10649.2
10628.9
10609.4
10590.6
10572.7
10555.7
10539.6
10524.5
10510.3
10497.2
10485.2
10474.2
10464.4
10455.8