/*--------------------------------*- C++ -*----------------------------------*\
| =========                 |                                                 |
| \\      /  F ield         | OpenFOAM: The Open Source CFD Toolbox           |
|  \\    /   O peration     | Version:  v2006                                 |
|   \\  /    A nd           | Website:  www.openfoam.com                      |
|    \\/     M anipulation  |                                                 |
\*---------------------------------------------------------------------------*/
FoamFile
{
    version     2.0;
    format      ascii;
    class       volScalarField;
    location    "7.8";
    object      p_rgh;
}
// * * * * * * * * * * * * * * * * * * * * * * * * * * * * * * * * * * * * * //

dimensions      [1 -1 -2 0 0 0 0];


internalField   nonuniform List<scalar> 
52500
(
-2408.05
-2407.11
-2405.5
-2403
-2399.67
-2395.51
-2390.53
-2384.73
-2378.12
-2370.7
-2362.48
-2353.47
-2343.68
-2333.12
-2321.8
-2309.74
-2296.94
-2283.42
-2269.18
-2254.26
-2238.65
-2222.37
-2205.45
-2187.89
-2169.71
-2150.93
-2131.56
-2111.62
-2091.14
-2070.12
-2048.59
-2026.56
-2004.06
-1981.09
-1957.68
-1933.84
-1909.61
-1884.96
-1859.96
-1834.62
-1808.95
-1782.96
-1756.69
-1730.14
-1703.34
-1676.29
-1649.03
-1621.56
-1593.9
-1566.07
-1538.08
-1509.96
-1481.71
-1453.36
-1424.91
-1396.39
-1367.8
-1339.17
-1310.5
-1281.82
-1253.12
-1224.43
-1195.77
-1167.13
-1138.53
-1109.99
-1081.52
-1053.13
-1024.82
-996.619
-968.524
-940.55
-912.706
-885.001
-857.444
-830.046
-802.813
-775.755
-748.879
-722.193
-695.705
-669.422
-643.351
-617.498
-591.87
-566.472
-541.311
-516.392
-491.721
-467.302
-443.139
-419.239
-395.603
-372.238
-349.145
-326.329
-303.793
-281.538
-259.569
-237.886
-216.493
-195.391
-174.581
-154.065
-133.843
-113.918
-94.2881
-74.9551
-55.9187
-37.1787
-18.7347
-0.585899
17.2684
34.8295
52.0986
69.0773
85.7674
102.171
118.29
134.127
149.685
164.966
179.973
194.711
209.181
223.388
237.335
251.027
264.467
277.66
290.611
303.323
315.801
328.051
340.078
351.887
363.482
374.87
386.056
397.045
407.844
418.458
428.893
439.156
449.252
459.188
468.97
478.604
488.097
497.456
506.688
515.799
524.797
533.687
542.476
551.169
559.773
568.295
576.741
585.118
593.434
601.693
609.904
618.073
626.205
634.308
642.388
650.451
658.503
666.551
674.601
682.658
690.729
698.819
706.934
715.081
723.263
731.487
739.758
748.082
756.462
764.905
773.415
781.997
790.655
799.394
808.218
817.131
826.137
835.24
844.443
853.75
863.164
872.689
882.327
892.081
901.954
911.949
922.068
932.313
942.686
953.189
963.825
974.594
985.499
996.54
1007.72
1019.04
1030.5
1042.1
1053.84
1065.72
1077.75
1089.92
1102.23
1114.69
1127.28
1140.02
1152.89
1165.91
1179.06
1192.35
1205.78
1219.34
1233.04
1246.88
1260.84
1274.94
1289.16
1303.51
1317.99
1332.59
1347.3
1362.14
1377.1
1392.16
1407.34
1422.63
1438.02
1453.51
1469.11
1484.8
1500.58
1516.46
1532.42
1548.46
1564.59
1580.79
1597.06
1613.41
1629.82
1646.29
1662.82
1679.4
1696.04
1712.72
1729.44
1746.2
1762.99
1779.82
1796.67
1813.54
1830.42
1847.32
1864.22
1881.12
1898.02
1914.92
1931.8
1948.66
1965.51
1982.33
1999.11
2015.87
2032.58
2049.25
2065.87
2082.43
2098.93
2115.36
2131.73
2148.01
2164.21
2180.32
2196.34
2212.26
2228.06
2243.76
2259.33
2274.77
2290.09
2305.26
2320.3
2335.18
2349.92
2364.5
2378.92
2393.18
2407.28
2421.22
2434.99
2448.59
2462.02
2475.27
2488.32
2501.17
2513.81
2526.23
2538.42
2550.39
2562.14
2573.65
2584.93
2595.97
2606.78
2617.33
2627.64
2637.69
2647.48
2657.01
2666.28
2675.28
2684
2692.45
2700.61
2708.5
2716.09
2723.4
2730.41
2737.13
2743.55
2749.66
2755.48
2760.98
2766.18
2771.07
2775.64
2779.89
2783.83
2787.45
2790.74
2793.71
2796.36
2798.68
2800.66
2802.32
2803.65
2804.65
2805.31
2805.65
-2410.37
-2409.39
-2407.77
-2405.26
-2401.92
-2397.76
-2392.76
-2386.94
-2380.3
-2372.86
-2364.61
-2355.58
-2345.76
-2335.17
-2323.82
-2311.72
-2298.88
-2285.32
-2271.05
-2256.08
-2240.43
-2224.12
-2207.15
-2189.54
-2171.32
-2152.49
-2133.07
-2113.09
-2092.56
-2071.49
-2049.91
-2027.83
-2005.28
-1982.28
-1958.79
-1934.89
-1910.58
-1885.92
-1860.88
-1835.49
-1809.77
-1783.74
-1757.42
-1730.83
-1703.97
-1676.88
-1649.57
-1622.06
-1594.35
-1566.48
-1538.45
-1510.28
-1482
-1453.6
-1425.12
-1396.56
-1367.93
-1339.26
-1310.56
-1281.84
-1253.11
-1224.39
-1195.68
-1167.01
-1138.39
-1109.82
-1081.32
-1052.9
-1024.56
-996.332
-968.211
-940.211
-912.342
-884.614
-857.034
-829.613
-802.359
-775.28
-748.385
-721.68
-695.174
-668.873
-642.785
-616.916
-591.273
-565.861
-540.686
-515.754
-491.07
-466.639
-442.466
-418.555
-394.91
-371.535
-348.434
-325.61
-303.066
-280.805
-258.83
-237.142
-215.744
-194.637
-173.824
-153.305
-133.082
-113.155
-93.5246
-74.1915
-55.1556
-36.4167
-17.9743
0.172129
18.0236
35.5811
52.8462
69.8202
86.5051
102.903
119.016
134.846
150.396
165.669
180.669
195.397
209.858
224.055
237.992
251.673
265.103
278.284
291.222
303.922
316.388
328.625
340.639
352.433
364.014
375.388
386.559
397.534
408.317
418.916
429.336
439.582
449.663
459.582
469.348
478.966
488.443
497.786
507.001
516.097
525.078
533.951
542.723
551.399
559.986
568.491
576.92
585.281
593.579
601.822
610.016
618.168
626.283
634.37
642.433
650.48
658.516
666.548
674.582
682.623
690.679
698.754
706.854
714.986
723.154
731.364
739.622
747.931
756.299
764.729
773.226
781.795
790.442
799.169
807.981
816.883
825.879
834.972
844.165
853.463
862.869
872.385
882.016
891.763
901.629
911.617
921.73
931.97
942.338
952.837
963.469
974.234
985.135
996.174
1007.35
1018.67
1030.12
1041.72
1053.46
1065.34
1077.37
1089.54
1101.85
1114.3
1126.9
1139.64
1152.51
1165.53
1178.69
1191.98
1205.41
1218.98
1232.68
1246.52
1260.49
1274.59
1288.82
1303.18
1317.66
1332.26
1346.99
1361.83
1376.79
1391.86
1407.05
1422.34
1437.74
1453.24
1468.84
1484.54
1500.33
1516.21
1532.18
1548.23
1564.36
1580.57
1596.85
1613.21
1629.62
1646.1
1662.64
1679.23
1695.87
1712.56
1729.28
1746.05
1762.85
1779.68
1796.53
1813.4
1830.29
1847.19
1864.1
1881.01
1897.92
1914.83
1931.72
1948.6
1965.45
1982.28
1999.08
2015.84
2032.56
2049.23
2065.85
2082.42
2098.93
2115.36
2131.73
2148.02
2164.23
2180.36
2196.39
2212.32
2228.14
2243.86
2259.46
2274.93
2290.28
2305.49
2320.57
2335.5
2350.28
2364.9
2379.37
2393.67
2407.8
2421.76
2435.55
2449.16
2462.59
2475.84
2488.89
2501.75
2514.39
2526.81
2539.02
2551
2562.76
2574.29
2585.59
2596.64
2607.46
2618.03
2628.35
2638.41
2648.22
2657.76
2667.03
2676.04
2684.77
2693.23
2701.41
2709.3
2716.9
2724.22
2731.24
2737.97
2744.4
2750.52
2756.34
2761.86
2767.06
2771.96
2776.54
2780.8
2784.74
2788.37
2791.67
2794.65
2797.3
2799.62
2801.61
2803.27
2804.6
2805.6
2806.26
2806.61
-2414.86
-2413.9
-2412.27
-2409.74
-2406.39
-2402.19
-2397.16
-2391.31
-2384.63
-2377.14
-2368.85
-2359.76
-2349.89
-2339.24
-2327.82
-2315.65
-2302.75
-2289.11
-2274.77
-2259.72
-2243.99
-2227.59
-2210.53
-2192.84
-2174.52
-2155.6
-2136.1
-2116.02
-2095.39
-2074.22
-2052.54
-2030.35
-2007.68
-1984.54
-1961
-1937.02
-1912.63
-1887.86
-1862.72
-1837.24
-1811.43
-1785.3
-1758.88
-1732.2
-1705.25
-1678.07
-1650.66
-1623.06
-1595.27
-1567.31
-1539.19
-1510.94
-1482.57
-1454.09
-1425.53
-1396.89
-1368.19
-1339.45
-1310.67
-1281.88
-1253.08
-1224.29
-1195.52
-1166.79
-1138.1
-1109.47
-1080.91
-1052.43
-1024.04
-995.752
-967.578
-939.527
-911.609
-883.832
-856.207
-828.741
-801.444
-774.323
-747.388
-720.645
-694.101
-667.765
-641.643
-615.742
-590.067
-564.625
-539.422
-514.464
-489.754
-465.3
-441.104
-417.172
-393.507
-370.114
-346.996
-324.156
-301.598
-279.324
-257.337
-235.638
-214.232
-193.118
-172.298
-151.774
-131.548
-111.618
-91.987
-72.6542
-53.6198
-34.8836
-16.4452
1.69615
19.5413
37.0915
54.348
71.3124
87.9865
104.372
120.472
136.288
151.824
167.081
182.063
196.774
211.216
225.393
239.31
252.969
266.376
279.534
292.448
305.123
317.563
329.774
341.76
353.527
365.08
376.425
387.566
398.511
409.264
419.832
430.22
440.435
450.484
460.372
470.105
479.691
489.135
498.445
507.627
516.687
525.633
534.469
543.204
551.844
560.395
568.864
577.257
585.582
593.845
602.053
610.213
618.33
626.411
634.464
642.494
650.508
658.511
666.511
674.513
682.523
690.548
698.593
706.664
714.766
722.906
731.088
739.319
747.602
755.944
764.349
772.822
781.368
789.992
798.697
807.488
816.37
825.346
834.419
843.595
852.875
862.264
871.765
881.38
891.113
900.966
910.942
921.044
931.272
941.631
952.121
962.744
973.503
984.398
995.431
1006.6
1017.92
1029.37
1040.96
1052.7
1064.58
1076.61
1088.78
1101.09
1113.54
1126.14
1138.88
1151.76
1164.78
1177.94
1191.24
1204.68
1218.26
1231.97
1245.81
1259.79
1273.9
1288.14
1302.5
1316.99
1331.6
1346.35
1361.21
1376.18
1391.27
1406.47
1421.77
1437.19
1452.7
1468.32
1484.03
1499.84
1515.74
1531.73
1547.8
1563.95
1580.18
1596.48
1612.85
1629.29
1645.79
1662.35
1678.97
1695.63
1712.34
1729.1
1745.89
1762.72
1779.57
1796.45
1813.36
1830.28
1847.21
1864.14
1881.08
1898.02
1914.95
1931.87
1948.77
1965.65
1982.5
1999.32
2016.11
2032.85
2049.55
2066.2
2082.79
2099.32
2115.78
2132.17
2148.48
2164.7
2180.84
2196.88
2212.82
2228.65
2244.37
2259.98
2275.47
2290.82
2306.05
2321.14
2336.08
2350.89
2365.54
2380.03
2394.37
2408.54
2422.54
2436.37
2450.02
2463.48
2476.75
2489.82
2502.69
2515.35
2527.8
2540.03
2552.05
2563.83
2575.39
2586.71
2597.8
2608.64
2619.23
2629.58
2639.66
2649.49
2659.05
2668.35
2677.38
2686.13
2694.6
2702.8
2710.7
2718.32
2725.65
2732.69
2739.43
2745.87
2752
2757.84
2763.36
2768.57
2773.48
2778.07
2782.34
2786.29
2789.92
2793.23
2796.21
2798.87
2801.19
2803.19
2804.86
2806.19
2807.19
2807.85
2808.19
-2421.67
-2420.7
-2419.05
-2416.5
-2413.11
-2408.88
-2403.81
-2397.9
-2391.16
-2383.6
-2375.24
-2366.07
-2356.1
-2345.36
-2333.85
-2321.58
-2308.57
-2294.83
-2280.36
-2265.2
-2249.34
-2232.82
-2215.63
-2197.81
-2179.36
-2160.3
-2140.65
-2120.43
-2099.66
-2078.34
-2056.52
-2034.19
-2011.39
-1988.1
-1964.38
-1940.25
-1915.71
-1890.79
-1865.5
-1839.87
-1813.91
-1787.64
-1761.08
-1734.25
-1707.16
-1679.84
-1652.3
-1624.55
-1596.63
-1568.54
-1540.29
-1511.92
-1483.42
-1454.83
-1426.14
-1397.39
-1368.57
-1339.71
-1310.83
-1281.93
-1253.03
-1224.13
-1195.27
-1166.43
-1137.65
-1108.93
-1080.28
-1051.71
-1023.24
-994.873
-966.621
-938.493
-910.5
-882.652
-854.957
-827.424
-800.062
-772.879
-745.884
-719.083
-692.484
-666.094
-639.921
-613.971
-588.25
-562.764
-537.519
-512.52
-487.773
-463.282
-439.053
-415.089
-391.395
-367.975
-344.832
-321.969
-299.39
-277.096
-255.092
-233.379
-211.959
-190.834
-170.005
-149.473
-129.241
-109.308
-89.6749
-70.342
-51.3094
-32.5769
-14.1439
3.9902
21.8263
39.3657
56.6096
73.5597
90.2179
106.586
122.667
138.462
153.975
169.208
184.165
198.848
213.262
227.41
241.295
254.922
268.295
281.418
294.295
306.933
319.334
331.505
343.45
355.175
366.685
377.985
389.082
399.981
410.687
421.208
431.548
441.714
451.713
461.55
471.232
480.766
490.159
499.416
508.544
517.551
526.443
535.227
543.909
552.495
560.993
569.409
577.75
586.023
594.234
602.39
610.497
618.563
626.594
634.596
642.576
650.54
658.495
666.447
674.401
682.365
690.344
698.344
706.37
714.43
722.527
730.668
738.858
747.103
755.406
763.774
772.212
780.723
789.312
797.985
806.744
815.595
824.542
833.587
842.736
851.99
861.355
870.832
880.426
890.138
899.972
909.929
920.014
930.227
940.571
951.048
961.66
972.408
983.293
994.318
1005.48
1016.79
1028.24
1039.83
1051.57
1063.44
1075.47
1087.64
1099.95
1112.41
1125.01
1137.75
1150.64
1163.66
1176.83
1190.14
1203.59
1217.18
1230.9
1244.76
1258.75
1272.88
1287.13
1301.52
1316.03
1330.68
1345.42
1360.29
1375.28
1390.38
1405.6
1420.93
1436.37
1451.91
1467.55
1483.29
1499.12
1515.04
1531.05
1547.15
1563.33
1579.59
1595.92
1612.32
1628.79
1645.32
1661.9
1678.55
1695.24
1711.99
1728.77
1745.59
1762.45
1779.33
1796.24
1813.18
1830.13
1847.09
1864.05
1881.02
1897.99
1914.96
1931.91
1948.85
1965.76
1982.65
1999.51
2016.33
2033.11
2049.85
2066.53
2083.16
2099.72
2116.22
2132.65
2149
2165.26
2181.44
2197.52
2213.51
2229.39
2245.16
2260.81
2276.34
2291.74
2307.01
2322.15
2337.14
2351.99
2366.69
2381.23
2395.61
2409.82
2423.86
2437.73
2451.41
2464.91
2478.22
2491.33
2504.23
2516.93
2529.41
2541.68
2553.73
2565.55
2577.14
2588.5
2599.62
2610.49
2621.12
2631.49
2641.6
2651.46
2661.05
2670.37
2679.42
2688.2
2696.7
2704.91
2712.84
2720.48
2727.83
2734.88
2741.63
2748.09
2754.24
2760.08
2765.62
2770.84
2775.75
2780.35
2784.62
2788.58
2792.22
2795.53
2798.52
2801.18
2803.51
2805.51
2807.17
2808.51
2809.51
2810.17
2810.51
-2430.79
-2429.81
-2428.14
-2425.56
-2422.12
-2417.84
-2412.7
-2406.72
-2399.9
-2392.25
-2383.78
-2374.5
-2364.42
-2353.56
-2341.91
-2329.51
-2316.35
-2302.46
-2287.84
-2272.52
-2256.5
-2239.81
-2222.45
-2204.45
-2185.81
-2166.57
-2146.74
-2126.32
-2105.35
-2083.85
-2061.82
-2039.28
-2016.25
-1992.79
-1968.89
-1944.55
-1919.81
-1894.69
-1869.21
-1843.37
-1817.22
-1790.75
-1764
-1736.97
-1709.7
-1682.19
-1654.46
-1626.54
-1598.44
-1570.17
-1541.75
-1513.21
-1484.55
-1455.78
-1426.94
-1398.03
-1369.06
-1340.06
-1311.03
-1281.98
-1252.94
-1223.91
-1194.91
-1165.95
-1137.05
-1108.2
-1079.43
-1050.75
-1022.17
-993.692
-965.334
-937.104
-909.013
-881.069
-853.281
-825.659
-798.211
-770.945
-743.869
-716.991
-690.318
-663.858
-637.617
-611.602
-585.818
-560.273
-534.972
-509.92
-485.122
-460.584
-436.31
-412.304
-388.57
-365.113
-341.936
-319.042
-296.435
-274.116
-252.089
-230.355
-208.918
-187.778
-166.936
-146.396
-126.156
-106.219
-86.5836
-67.2512
-48.2216
-29.4944
-11.0692
7.05471
24.8783
42.4029
59.6296
76.5603
93.1968
109.541
125.596
141.363
156.846
172.046
186.969
201.616
215.991
230.099
243.942
257.525
270.852
283.928
296.757
309.344
321.694
333.811
345.701
357.37
368.822
380.064
391.101
401.939
412.583
423.041
433.317
443.419
453.352
463.123
472.739
482.206
491.53
500.719
509.779
518.717
527.539
536.252
544.864
553.379
561.807
570.152
578.423
586.625
594.766
602.852
610.891
618.888
626.851
634.785
642.698
650.597
658.486
666.373
674.265
682.166
690.083
698.023
705.99
713.991
722.031
730.117
738.252
746.443
754.695
763.013
771.401
779.864
788.408
797.036
805.753
814.563
823.469
832.477
841.589
850.809
860.14
869.586
879.149
888.833
898.64
908.573
918.634
928.826
939.15
949.609
960.204
970.937
981.809
992.822
1003.98
1015.28
1026.72
1038.3
1050.03
1061.91
1073.93
1086.1
1098.42
1110.88
1123.48
1136.23
1149.13
1162.16
1175.34
1188.66
1202.13
1215.73
1229.47
1243.34
1257.35
1271.49
1285.77
1300.17
1314.69
1329.33
1344.13
1359.04
1374.06
1389.19
1404.44
1419.8
1435.27
1450.84
1466.51
1482.28
1498.15
1514.11
1530.15
1546.29
1562.5
1578.79
1595.16
1611.6
1628.11
1644.68
1661.31
1677.99
1694.73
1711.51
1728.34
1745.21
1762.11
1779.04
1796
1812.98
1829.97
1846.98
1864
1881.02
1898.04
1915.05
1932.06
1949.04
1966.01
1982.95
1999.85
2016.73
2033.56
2050.34
2067.08
2083.76
2100.37
2116.92
2133.4
2149.8
2166.12
2182.34
2198.48
2214.51
2230.44
2246.26
2261.96
2277.54
2293
2308.32
2323.51
2338.56
2353.46
2368.21
2382.8
2397.23
2411.5
2425.59
2439.51
2453.25
2466.8
2480.15
2493.31
2506.27
2519.02
2531.55
2543.87
2555.96
2567.83
2579.46
2590.86
2602.02
2612.94
2623.61
2634.02
2644.18
2654.07
2663.7
2673.06
2682.14
2690.95
2699.48
2707.73
2715.68
2723.35
2730.72
2737.8
2744.57
2751.05
2757.21
2763.07
2768.63
2773.86
2778.79
2783.39
2787.68
2791.64
2795.28
2798.6
2801.59
2804.25
2806.59
2808.59
2810.26
2811.59
2812.59
2813.25
2813.6
-2442.26
-2441.26
-2439.55
-2436.93
-2433.44
-2429.09
-2423.87
-2417.79
-2410.86
-2403.09
-2394.5
-2385.08
-2374.85
-2363.83
-2352.02
-2339.45
-2326.11
-2312.03
-2297.22
-2281.69
-2265.47
-2248.56
-2230.99
-2212.76
-2193.9
-2174.43
-2154.35
-2133.7
-2112.49
-2090.73
-2068.46
-2045.68
-2022.41
-1998.69
-1974.52
-1949.93
-1924.94
-1899.57
-1873.83
-1847.75
-1821.34
-1794.63
-1767.64
-1740.37
-1712.86
-1685.12
-1657.16
-1629.01
-1600.68
-1572.2
-1543.57
-1514.81
-1485.94
-1456.98
-1427.93
-1398.83
-1369.67
-1340.47
-1311.26
-1282.04
-1252.82
-1223.63
-1194.46
-1165.34
-1136.27
-1107.28
-1078.36
-1049.54
-1020.81
-992.199
-963.71
-935.353
-907.138
-879.074
-851.171
-823.437
-795.882
-768.512
-741.336
-714.362
-687.597
-661.048
-634.722
-608.626
-582.765
-557.146
-531.774
-506.656
-481.795
-457.197
-432.867
-408.809
-385.026
-361.524
-338.305
-315.372
-292.729
-270.378
-248.323
-226.564
-205.105
-183.946
-163.089
-142.536
-122.288
-102.344
-82.7067
-63.3748
-44.3487
-25.6281
-7.21256
10.8987
28.7068
46.2128
63.4182
80.3246
96.9341
113.249
129.271
145.003
160.447
175.608
190.487
205.089
219.416
233.474
247.264
260.792
274.063
287.079
299.847
312.371
324.655
336.705
348.527
360.125
371.505
382.672
393.634
404.395
414.961
425.338
435.534
445.554
455.404
465.091
474.622
484.003
493.24
502.342
511.314
520.163
528.896
537.52
546.042
554.469
562.807
571.064
579.246
587.36
595.413
603.412
611.364
619.275
627.152
635.002
642.832
650.647
658.455
666.262
674.073
681.896
689.737
697.601
705.494
713.422
721.392
729.408
737.476
745.601
753.788
762.043
770.371
778.776
787.263
795.836
804.499
813.258
822.115
831.076
840.142
849.319
858.609
868.016
877.543
887.192
896.966
906.869
916.902
927.067
937.367
947.804
958.379
969.094
979.95
990.949
1002.09
1013.38
1024.81
1036.39
1048.12
1060
1072.02
1084.19
1096.5
1108.97
1121.58
1134.34
1147.24
1160.29
1173.48
1186.82
1200.3
1213.91
1227.67
1241.57
1255.6
1269.77
1284.07
1298.5
1313.06
1327.75
1342.56
1357.49
1372.54
1387.71
1402.99
1418.39
1433.89
1449.5
1465.21
1481.02
1496.93
1512.93
1529.02
1545.2
1561.46
1577.8
1594.22
1610.7
1627.26
1643.88
1660.56
1677.3
1694.08
1710.92
1727.8
1744.72
1761.68
1778.67
1795.68
1812.71
1829.77
1846.83
1863.91
1880.99
1898.06
1915.13
1932.2
1949.24
1966.27
1983.27
2000.24
2017.17
2034.06
2050.91
2067.71
2084.45
2101.13
2117.75
2134.29
2150.75
2167.13
2183.42
2199.62
2215.72
2231.72
2247.61
2263.38
2279.03
2294.55
2309.94
2325.2
2340.31
2355.28
2370.1
2384.76
2399.26
2413.59
2427.75
2441.74
2455.54
2469.15
2482.57
2495.79
2508.81
2521.61
2534.21
2546.58
2558.74
2570.66
2582.36
2593.81
2605.03
2615.99
2626.71
2637.18
2647.38
2657.32
2667
2676.4
2685.53
2694.38
2702.95
2711.23
2719.23
2726.93
2734.33
2741.44
2748.25
2754.75
2760.94
2766.82
2772.4
2777.65
2782.59
2787.21
2791.51
2795.49
2799.14
2802.47
2805.46
2808.13
2810.47
2812.47
2814.14
2815.48
2816.48
2817.15
2817.5
-2456.11
-2455.09
-2453.34
-2450.66
-2447.11
-2442.67
-2437.35
-2431.15
-2424.09
-2416.18
-2407.42
-2397.84
-2387.43
-2376.21
-2364.21
-2351.42
-2337.86
-2323.56
-2308.51
-2292.74
-2276.27
-2259.1
-2241.26
-2222.77
-2203.63
-2183.88
-2163.52
-2142.58
-2121.07
-2099.02
-2076.44
-2053.35
-2029.78
-2005.75
-1981.28
-1956.39
-1931.09
-1905.41
-1879.37
-1852.99
-1826.29
-1799.28
-1771.99
-1744.44
-1716.64
-1688.61
-1660.38
-1631.95
-1603.36
-1574.61
-1545.72
-1516.7
-1487.58
-1458.38
-1429.09
-1399.75
-1370.36
-1340.94
-1311.51
-1282.08
-1252.65
-1223.25
-1193.89
-1164.58
-1135.32
-1106.14
-1077.05
-1048.05
-1019.16
-990.386
-961.738
-933.228
-904.865
-876.659
-848.617
-820.75
-793.065
-765.571
-738.276
-711.187
-684.311
-657.656
-631.229
-605.035
-579.081
-553.374
-527.918
-502.72
-477.784
-453.115
-428.717
-404.596
-380.755
-357.198
-333.929
-310.95
-288.265
-265.876
-243.786
-221.997
-200.511
-179.33
-158.456
-137.888
-117.629
-97.6791
-78.0384
-58.7073
-39.6857
-20.9733
-2.56954
15.5263
33.3154
50.7989
67.9783
84.8553
101.432
117.71
133.693
149.383
164.781
179.893
194.721
209.267
223.537
237.533
251.26
264.723
277.924
290.869
303.563
316.01
328.216
340.185
351.924
363.436
374.729
385.808
396.679
407.347
417.819
428.101
438.2
448.121
457.872
467.458
476.888
486.166
495.3
504.298
513.165
521.909
530.536
539.055
547.47
555.79
564.022
572.172
580.248
588.256
596.204
604.098
611.945
619.752
627.526
635.275
643.003
650.719
658.428
666.137
673.853
681.581
689.329
697.101
704.905
712.746
720.629
728.561
736.546
744.591
752.701
760.88
769.134
777.467
785.885
794.391
802.99
811.686
820.484
829.387
838.399
847.524
856.764
866.124
875.605
885.212
894.947
904.812
914.81
924.944
935.214
945.623
956.174
966.866
977.703
988.685
999.813
1011.09
1022.51
1034.08
1045.81
1057.68
1069.7
1081.87
1094.19
1106.66
1119.28
1132.05
1144.96
1158.02
1171.23
1184.59
1198.08
1211.72
1225.51
1239.43
1253.49
1267.68
1282.01
1296.48
1311.07
1325.79
1340.64
1355.61
1370.7
1385.91
1401.24
1416.68
1432.23
1447.88
1463.64
1479.5
1495.46
1511.52
1527.66
1543.89
1560.21
1576.6
1593.08
1609.62
1626.24
1642.92
1659.66
1676.46
1693.31
1710.21
1727.15
1744.14
1761.16
1778.21
1795.29
1812.4
1829.52
1846.66
1863.8
1880.95
1898.1
1915.24
1932.38
1949.5
1966.6
1983.67
2000.72
2017.73
2034.69
2051.62
2068.49
2085.31
2102.07
2118.76
2135.38
2151.92
2168.38
2184.75
2201.02
2217.2
2233.28
2249.24
2265.09
2280.82
2296.43
2311.9
2327.24
2342.43
2357.48
2372.38
2387.12
2401.7
2416.11
2430.34
2444.4
2458.28
2471.97
2485.46
2498.76
2511.85
2524.73
2537.39
2549.84
2562.06
2574.06
2585.82
2597.34
2608.62
2619.65
2630.43
2640.95
2651.22
2661.22
2670.95
2680.41
2689.59
2698.49
2707.1
2715.43
2723.47
2731.22
2738.66
2745.81
2752.65
2759.19
2765.41
2771.33
2776.93
2782.21
2787.17
2791.81
2796.13
2800.13
2803.79
2807.13
2810.14
2812.82
2815.16
2817.17
2818.85
2820.19
2821.2
2821.86
2822.21
-2472.4
-2471.35
-2469.55
-2466.81
-2463.17
-2458.62
-2453.18
-2446.84
-2439.63
-2431.54
-2422.59
-2412.8
-2402.18
-2390.74
-2378.49
-2365.45
-2351.64
-2337.06
-2321.74
-2305.69
-2288.92
-2271.45
-2253.3
-2234.49
-2215.03
-2194.94
-2174.24
-2152.96
-2131.11
-2108.7
-2085.78
-2062.32
-2038.4
-2014.01
-1989.17
-1963.92
-1938.26
-1912.23
-1885.83
-1859.09
-1832.04
-1804.68
-1777.05
-1749.16
-1721.02
-1692.66
-1664.11
-1635.36
-1606.45
-1577.39
-1548.19
-1518.88
-1489.47
-1459.98
-1430.41
-1400.8
-1371.14
-1341.46
-1311.77
-1282.09
-1252.42
-1222.78
-1193.19
-1163.65
-1134.18
-1104.79
-1075.49
-1046.29
-1017.2
-988.237
-959.406
-930.719
-902.183
-873.81
-845.608
-817.585
-789.75
-762.111
-734.676
-707.453
-680.449
-653.67
-627.124
-600.817
-574.756
-548.945
-523.391
-498.1
-473.076
-448.324
-423.849
-399.654
-375.745
-352.124
-328.796
-305.763
-283.029
-260.596
-238.466
-216.643
-195.126
-173.92
-153.024
-132.439
-112.168
-92.2103
-72.5662
-53.2362
-34.2199
-15.5173
2.87252
20.9502
38.7169
56.174
73.3229
90.1654
106.704
122.94
138.876
154.515
169.861
184.915
199.681
214.164
228.365
242.291
255.943
269.328
282.448
295.309
307.916
320.274
332.387
344.262
355.903
367.315
378.506
389.48
400.244
410.803
421.165
431.334
441.319
451.124
460.757
470.225
479.534
488.691
497.704
506.578
515.321
523.941
532.443
540.836
549.126
557.32
565.426
573.451
581.402
589.285
597.109
604.879
612.604
620.29
627.943
635.572
643.182
650.78
658.374
665.969
673.573
681.191
688.829
696.495
704.194
711.932
719.715
727.549
735.438
743.39
751.409
759.499
767.667
775.918
784.254
792.683
801.207
809.831
818.56
827.396
836.345
845.408
854.591
863.896
873.326
882.884
892.572
902.395
912.353
922.449
932.685
943.063
953.585
964.253
975.067
986.029
997.14
1008.4
1019.81
1031.38
1043.09
1054.96
1066.98
1079.15
1091.48
1103.96
1116.58
1129.36
1142.29
1155.37
1168.6
1181.97
1195.49
1209.16
1222.97
1236.92
1251.01
1265.24
1279.61
1294.11
1308.74
1323.5
1338.39
1353.41
1368.55
1383.81
1399.18
1414.68
1430.28
1445.99
1461.8
1477.72
1493.74
1509.86
1526.06
1542.36
1558.74
1575.2
1591.74
1608.35
1625.03
1641.78
1658.6
1675.47
1692.39
1709.37
1726.39
1743.45
1760.55
1777.68
1794.84
1812.03
1829.23
1846.45
1863.67
1880.91
1898.14
1915.37
1932.59
1949.79
1966.98
1984.14
2001.27
2018.37
2035.42
2052.44
2069.4
2086.31
2103.15
2119.93
2136.64
2153.28
2169.83
2186.29
2202.66
2218.93
2235.1
2251.15
2267.1
2282.92
2298.62
2314.18
2329.61
2344.9
2360.04
2375.03
2389.87
2404.53
2419.04
2433.36
2447.51
2461.48
2475.25
2488.83
2502.22
2515.39
2528.36
2541.1
2553.63
2565.94
2578.01
2589.85
2601.45
2612.8
2623.91
2634.76
2645.35
2655.68
2665.75
2675.55
2685.07
2694.31
2703.27
2711.94
2720.33
2728.42
2736.21
2743.71
2750.9
2757.79
2764.36
2770.63
2776.58
2782.21
2787.53
2792.52
2797.19
2801.54
2805.55
2809.24
2812.6
2815.62
2818.31
2820.67
2822.69
2824.38
2825.73
2826.74
2827.41
2827.76
-2491.19
-2490.1
-2488.25
-2485.42
-2481.68
-2477.01
-2471.42
-2464.91
-2457.51
-2449.21
-2440.04
-2430.01
-2419.13
-2407.43
-2394.9
-2381.58
-2367.46
-2352.58
-2336.93
-2320.55
-2303.44
-2285.63
-2267.12
-2247.94
-2228.1
-2207.63
-2186.54
-2164.86
-2142.6
-2119.79
-2096.43
-2072.58
-2048.25
-2023.44
-1998.19
-1972.52
-1946.45
-1920
-1893.19
-1866.05
-1838.59
-1810.83
-1782.8
-1754.52
-1726
-1697.26
-1668.33
-1639.21
-1609.94
-1580.52
-1550.98
-1521.33
-1491.58
-1461.76
-1431.88
-1401.95
-1371.98
-1342.01
-1312.03
-1282.06
-1252.11
-1222.2
-1192.35
-1162.55
-1132.83
-1103.2
-1073.66
-1044.23
-1014.92
-985.74
-956.7
-927.809
-899.078
-870.514
-842.128
-813.928
-785.922
-758.118
-730.524
-703.148
-675.997
-649.077
-622.396
-595.96
-569.775
-543.848
-518.182
-492.785
-467.66
-442.814
-418.25
-393.972
-369.985
-346.292
-322.897
-299.803
-277.012
-254.529
-232.354
-210.49
-188.94
-167.704
-146.784
-126.181
-105.896
-85.9291
-66.2815
-46.953
-27.9432
-9.25188
9.12165
27.1782
44.919
62.3454
79.4591
96.2617
112.755
128.943
144.826
160.407
175.691
190.679
205.375
219.783
233.907
247.75
261.317
274.612
287.639
300.404
312.911
325.166
337.173
348.938
360.467
371.764
382.837
393.691
404.332
414.767
425.001
435.041
444.894
454.567
464.065
473.397
482.568
491.587
500.459
509.193
517.794
526.271
534.631
542.88
551.026
559.077
567.039
574.92
582.727
590.468
598.149
605.778
613.361
620.907
628.422
635.913
643.387
650.851
658.312
665.776
673.25
680.741
688.254
695.797
703.375
710.995
718.662
726.383
734.162
742.006
749.92
757.909
765.978
774.132
782.376
790.715
799.152
807.694
816.342
825.102
833.977
842.971
852.087
861.329
870.699
880.201
889.837
899.61
909.522
919.575
929.772
940.115
950.604
961.242
972.031
982.97
994.062
1005.31
1016.71
1028.26
1039.97
1051.83
1063.85
1076.03
1088.36
1100.84
1113.48
1126.27
1139.22
1152.32
1165.57
1178.97
1192.51
1206.21
1220.05
1234.04
1248.16
1262.43
1276.84
1291.38
1306.06
1320.87
1335.81
1350.88
1366.07
1381.39
1396.82
1412.37
1428.04
1443.81
1459.69
1475.68
1491.76
1507.95
1524.22
1540.59
1557.04
1573.58
1590.2
1606.89
1623.65
1640.48
1657.38
1674.33
1691.34
1708.4
1725.51
1742.66
1759.85
1777.07
1794.32
1811.59
1828.89
1846.2
1863.52
1880.85
1898.18
1915.5
1932.82
1950.12
1967.41
1984.67
2001.9
2019.1
2036.26
2053.37
2070.43
2087.44
2104.39
2121.28
2138.09
2154.83
2171.49
2188.05
2204.53
2220.91
2237.18
2253.34
2269.39
2285.32
2301.13
2316.8
2332.33
2347.73
2362.98
2378.07
2393.01
2407.78
2422.39
2436.82
2451.07
2465.14
2479.01
2492.69
2506.17
2519.44
2532.5
2545.35
2557.97
2570.37
2582.53
2594.46
2606.14
2617.58
2628.77
2639.71
2650.38
2660.79
2670.93
2680.8
2690.4
2699.71
2708.74
2717.48
2725.92
2734.07
2741.93
2749.48
2756.72
2763.66
2770.29
2776.6
2782.59
2788.27
2793.62
2798.65
2803.35
2807.73
2811.77
2815.48
2818.86
2821.91
2824.62
2826.99
2829.03
2830.72
2832.08
2833.1
2833.77
2834.12
-2512.57
-2511.43
-2509.51
-2506.59
-2502.72
-2497.9
-2492.13
-2485.42
-2477.79
-2469.25
-2459.81
-2449.5
-2438.34
-2426.32
-2413.48
-2399.82
-2385.37
-2370.13
-2354.12
-2337.36
-2319.87
-2301.65
-2282.74
-2263.14
-2242.88
-2221.97
-2200.44
-2178.3
-2155.58
-2132.3
-2108.48
-2084.16
-2059.35
-2034.07
-2008.34
-1982.2
-1955.65
-1928.73
-1901.46
-1873.85
-1845.93
-1817.72
-1789.24
-1760.51
-1731.55
-1702.39
-1673.03
-1643.5
-1613.82
-1584
-1554.06
-1524.03
-1493.9
-1463.71
-1433.47
-1403.18
-1372.88
-1342.56
-1312.25
-1281.96
-1251.71
-1221.49
-1191.34
-1161.26
-1131.26
-1101.35
-1071.55
-1041.86
-1012.3
-982.878
-953.602
-924.484
-895.532
-866.755
-838.163
-809.763
-781.565
-753.576
-725.804
-698.256
-670.94
-643.862
-617.03
-590.449
-564.126
-538.066
-512.276
-486.759
-461.522
-436.57
-411.905
-387.534
-363.46
-339.686
-316.216
-293.053
-270.2
-247.659
-225.434
-203.526
-181.936
-160.668
-139.721
-119.097
-98.7966
-78.8207
-59.1694
-39.8428
-20.8407
-2.16253
16.1923
34.2248
51.9361
69.3276
86.4011
103.158
119.602
135.733
151.556
167.072
182.285
197.198
211.815
226.139
240.174
253.924
267.394
280.587
293.509
306.165
318.559
330.696
342.583
354.224
365.625
376.793
387.732
398.45
408.951
419.244
429.334
439.227
448.931
458.453
467.799
476.975
485.991
494.851
503.565
512.138
520.578
528.893
537.09
545.176
553.159
561.046
568.845
576.563
584.207
591.785
599.305
606.773
614.197
621.584
628.942
636.277
643.597
650.909
658.219
665.535
672.863
680.209
687.581
694.985
702.427
709.913
717.45
725.042
732.697
740.419
748.215
756.089
764.046
772.092
780.232
788.47
796.81
805.257
813.816
822.49
831.283
840.198
849.239
858.41
867.713
877.152
886.729
896.446
906.307
916.313
926.466
936.768
947.222
957.827
968.587
979.501
990.572
1001.8
1013.18
1024.73
1036.43
1048.29
1060.31
1072.49
1084.82
1097.32
1109.97
1122.78
1135.74
1148.86
1162.14
1175.56
1189.14
1202.87
1216.75
1230.77
1244.94
1259.26
1273.71
1288.3
1303.03
1317.9
1332.89
1348.02
1363.27
1378.65
1394.15
1409.77
1425.5
1441.35
1457.3
1473.36
1489.52
1505.78
1522.14
1538.59
1555.13
1571.75
1588.45
1605.23
1622.08
1639.01
1655.99
1673.04
1690.15
1707.3
1724.51
1741.76
1759.04
1776.37
1793.72
1811.1
1828.5
1845.91
1863.34
1880.78
1898.21
1915.65
1933.07
1950.49
1967.88
1985.26
2002.6
2019.91
2037.19
2054.42
2071.6
2088.72
2105.79
2122.79
2139.72
2156.58
2173.35
2190.04
2206.63
2223.13
2239.52
2255.81
2271.98
2288.02
2303.95
2319.74
2335.4
2350.91
2366.28
2381.49
2396.55
2411.44
2426.16
2440.71
2455.07
2469.25
2483.24
2497.03
2510.62
2524.01
2537.17
2550.13
2562.85
2575.35
2587.62
2599.65
2611.43
2622.97
2634.25
2645.28
2656.04
2666.54
2676.77
2686.72
2696.4
2705.79
2714.89
2723.71
2732.23
2740.45
2748.36
2755.98
2763.29
2770.28
2776.96
2783.32
2789.37
2795.09
2800.49
2805.56
2810.3
2814.71
2818.79
2822.53
2825.94
2829.01
2831.74
2834.13
2836.18
2837.89
2839.26
2840.29
2840.96
2841.32
-2536.63
-2535.42
-2533.42
-2530.38
-2526.36
-2521.36
-2515.38
-2508.43
-2500.53
-2491.7
-2481.96
-2471.33
-2459.82
-2447.46
-2434.26
-2420.23
-2405.39
-2389.76
-2373.34
-2356.16
-2338.23
-2319.57
-2300.2
-2280.13
-2259.38
-2237.98
-2215.95
-2193.3
-2170.06
-2146.25
-2121.91
-2097.05
-2071.7
-2045.88
-2019.62
-1992.94
-1965.86
-1938.41
-1910.61
-1882.48
-1854.04
-1825.32
-1796.34
-1767.12