/*--------------------------------*- C++ -*----------------------------------*\
| =========                 |                                                 |
| \\      /  F ield         | OpenFOAM: The Open Source CFD Toolbox           |
|  \\    /   O peration     | Version:  v2006                                 |
|   \\  /    A nd           | Website:  www.openfoam.com                      |
|    \\/     M anipulation  |                                                 |
\*---------------------------------------------------------------------------*/
FoamFile
{
    version     2.0;
    format      ascii;
    class       surfaceScalarField;
    location    "20";
    object      alphaPhi0.water;
}
// * * * * * * * * * * * * * * * * * * * * * * * * * * * * * * * * * * * * * //

dimensions      [0 3 -1 0 0 0 0];
oriented        oriented;


internalField   nonuniform List<scalar> 
299200
(
0.000312358
-0.000312358
0.00115602
-0.000843658
0.00226077
-0.00110476
0.00340495
-0.00114418
0.00446794
-0.00106299
0.00540055
-0.000932611
0.0061965
-0.000795959
0.00686942
-0.000672914
0.00743827
-0.000568856
0.00792143
-0.000483155
0.00833528
-0.000413849
0.00869446
-0.000359181
0.00901208
-0.00031762
0.00929993
-0.000287846
0.0095687
-0.000268773
0.00982802
-0.00025932
0.0100861
-0.000258101
0.0103494
-0.00026328
0.0106221
-0.000272748
0.0109066
-0.000284458
0.0112033
-0.000296686
0.0115115
-0.000308175
0.0118296
-0.000318142
0.0121558
-0.000326204
0.0124881
-0.000332278
0.0128246
-0.000336482
0.0131636
-0.000339056
0.0135039
-0.000340309
0.0138445
-0.000340568
0.0141847
-0.000340144
0.014524
-0.000339301
0.0148622
-0.000338229
0.0151992
-0.000337036
0.015535
-0.000335743
0.0158692
-0.000334289
0.0162018
-0.000332547
0.0165321
-0.000330338
0.0168596
-0.000327451
0.0171832
-0.000323656
0.017502
-0.000318729
0.0178144
-0.00031247
0.0181192
-0.000304728
0.0184146
-0.000295435
0.0186993
-0.000284658
0.0189719
-0.000272648
0.0192318
-0.000259857
0.0194787
-0.000246913
0.0197132
-0.000234512
0.0199365
-0.000223286
0.0201501
-0.000213652
0.0203558
-0.000205708
0.020555
-0.000199183
0.0207485
-0.000193478
0.0209363
-0.000187791
0.0211176
-0.000181297
0.0212908
-0.000173205
0.0214537
-0.000162863
0.0216037
-0.000150092
0.0217387
-0.000134996
0.0218567
-0.00011797
0.0219563
-9.96233e-05
0.022037
-8.06875e-05
0.0220989
-6.19257e-05
0.022143
-4.40461e-05
0.0221706
-2.76232e-05
0.0221836
-1.29973e-05
0.0221838
-1.49946e-07
0.0221732
1.05437e-05
0.0221543
1.89708e-05
0.0221292
2.50233e-05
0.0221004
2.88579e-05
0.0220698
3.0566e-05
0.0220396
3.02257e-05
0.0220117
2.78785e-05
0.0219882
2.34874e-05
0.0219711
1.71546e-05
0.0219624
8.69099e-06
0.0219642
-1.80025e-06
0.0219789
-1.47498e-05
0.0220088
-2.99094e-05
0.0220554
-4.65988e-05
0.0221196
-6.42125e-05
0.0222017
-8.20968e-05
0.0223013
-9.95701e-05
0.0224173
-0.000115971
0.022548
-0.000130707
0.0226913
-0.000143294
0.0228447
-0.000153388
0.0230055
-0.0001608
0.023171
-0.000165498
0.0233386
-0.000167595
0.0235059
-0.000167328
0.0236709
-0.00016504
0.0238321
-0.000161152
0.0239882
-0.000156139
0.0241387
-0.000150504
0.0242835
-0.000144759
0.0244229
-0.000139394
0.0245577
-0.000134858
0.0246893
-0.000131542
0.024819
-0.000129769
0.0249488
-0.000129748
0.0250804
-0.000131585
0.0252156
-0.000135272
0.0253564
-0.000140709
0.0255041
-0.000147713
0.0256601
-0.000156055
0.0258256
-0.00016548
0.0260013
-0.000175735
0.0261879
-0.000186591
0.0263858
-0.000197851
0.0265951
-0.000209357
0.0268161
-0.000220989
0.0270488
-0.000232652
0.027293
-0.000244266
0.0275488
-0.000255748
0.0278158
-0.00026699
0.0280936
-0.000277853
0.0283818
-0.000288179
0.0286797
-0.000297842
0.0289865
-0.000306809
0.0293017
-0.000315217
0.0296251
-0.000323402
0.0299569
-0.000331856
0.030298
-0.00034106
0.0306492
-0.000351218
0.0310111
-0.000361922
0.031383
-0.000371877
0.0317619
-0.000378882
0.0321422
-0.00038026
0.032516
-0.000373807
0.0328749
-0.000358963
0.0332125
-0.000337597
0.0335263
-0.000313783
0.0338188
-0.000292491
0.0340966
-0.00027781
0.0343683
-0.000271723
0.0346424
-0.000274025
0.0349255
-0.00028317
0.0352228
-0.0002973
0.0355377
-0.000314858
0.0358724
-0.000334682
0.0362282
-0.00035585
0.0366058
-0.000377551
0.0370048
-0.000399064
0.0374246
-0.000419795
0.0378639
-0.00043928
0.038321
-0.000457136
0.038794
-0.000472979
0.0392804
-0.000486377
0.0397772
-0.00049685
0.040281
-0.000503771
0.0407871
-0.000506057
0.0412889
-0.000501842
0.0417778
-0.00048884
0.0422433
-0.000465537
0.0426783
-0.00043497
0.0430903
-0.000412071
0.0435148
-0.000424417
0.0439941
-0.000479346
0.0444807
-0.000486581
0.0447455
-0.000264817
0.0445434
0.00020214
0.043943
0.000600382
0.0432605
0.000682435
0.0428043
0.000456229
0.042703
0.000101341
0.0429385
-0.000235543
0.0433758
-0.000437261
0.0439514
-0.000575655
0.0446578
-0.000706354
0.0455391
-0.000881338
0.0465901
-0.001051
0.0477138
-0.00112371
0.0487717
-0.00105786
0.0496616
-0.000889931
0.0503643
-0.000702642
0.0509277
-0.000563421
0.0514151
-0.00048744
0.0518638
-0.000448683
0.0522653
-0.000401481
0.0525822
-0.000316916
0.0527864
-0.000204164
0.0528889
-0.000102562
0.0529355
-4.65898e-05
0.0529758
-4.02587e-05
0.0530417
-6.59083e-05
0.0531466
-0.000104915
0.0532913
-0.000144665
0.0534671
-0.0001758
0.053658
-0.0001909
0.0538439
-0.000185932
0.0540043
-0.000160434
0.0541213
-0.000116952
0.0541812
-5.99102e-05
0.054183
-1.79173e-06
0.0541293
5.36569e-05
0.0540373
9.2061e-05
0.0539135
0.000123738
0.0537613
0.000152263
0.0535844
0.000176833
0.0533858
0.000198642
0.0531678
0.000217955
0.0529322
0.000235694
0.0526792
0.000252979
0.0524086
0.000270571
0.0521197
0.000288878
0.0518117
0.000308002
0.0514839
0.000327813
0.0511358
0.000348065
0.0507674
0.000368491
0.0503785
0.000388871
0.0499694
0.000409062
0.0495404
0.000429006
0.0490917
0.000448729
0.0486234
0.000468322
0.0481354
0.000487933
0.0476277
0.000507743
0.0470997
0.000527953
0.046551
0.000548762
0.0459806
0.000570349
0.0453878
0.000592852
0.0447714
0.000616338
0.0441307
0.000640764
0.0434647
0.00066595
0.0427732
0.00069154
0.0420562
0.000716993
0.0413146
0.000741602
0.04055
0.000764559
0.039765
0.000785074
0.0389624
0.000802572
0.0381456
0.00081677
0.0373181
0.000827559
0.0364829
0.000835197
0.0356426
0.000840274
0.0347989
0.000843635
0.0339527
0.000846273
0.0331035
0.000849193
0.0322502
0.000853259
0.0313912
0.000859059
0.0305244
0.000866795
0.0296481
0.000876273
0.0287611
0.000887024
0.0278625
0.000898574
0.0269517
0.000910769
0.0260277
0.000924027
0.0250884
0.00093928
0.024131
0.000957432
0.0231527
0.000978266
0.0221534
0.000999305
0.021138
0.00101546
0.0201179
0.00102009
0.0191095
0.00100839
0.0181268
0.000982659
0.0171713
0.000955567
0.0162247
0.000946547
0.0152543
0.00097043
0.0142288
0.00102545
0.0131365
0.00109235
0.0119902
0.00114631
0.0108207
0.00116948
0.00966634
0.00115435
0.00856554
0.0011008
0.00755127
0.00101427
0.00664584
0.000905429
0.00585356
0.000792279
0.0051555
0.000698066
0.00446546
0.000690032
0.00356044
0.000905022
0.00208456
0.00147588
-0.000104985
0.00218955
-0.00272674
0.00262176
-0.00530809
0.00258134
-0.00762203
0.00231394
-0.00967234
0.00205031
-0.0115243
0.00185199
-0.0132275
0.00170317
-0.0148072
0.00157966
-0.0162745
0.00146735
-0.0176361
0.00136159
-0.0188993
0.00126315
-0.0200737
0.00117442
-0.0211712
0.00109749
-0.0222043
0.00103316
-0.0231853
0.000981015
-0.0241252
0.000939856
-0.0250333
0.000908054
-0.0259171
0.000883849
-0.0267828
0.000865739
-0.0276355
0.000852619
-0.0284791
0.00084361
-0.0293171
0.000837988
-0.0301521
0.000835032
-0.0309856
0.000833455
-0.0318163
0.000830727
-0.0326395
0.000823184
-0.0334465
0.000807045
-0.0342269
0.000780373
-0.034972
0.000745129
-0.0356796
0.000707553
-0.0363553
0.000675758
-0.0370105
0.000655203
-0.0376555
0.000644969
-0.0382934
0.000637925
-0.0389177
0.000624312
-0.0395148
0.000597105
-0.040071
0.000556196
-0.0405788
0.000507804
-0.0410388
0.000460002
-0.0414575
0.000418691
-0.0418435
0.000386022
-0.0422046
0.000361044
-0.0425459
0.000341293
-0.04287
0.000324121
-0.0431774
0.000307397
-0.0434672
0.000289756
-0.0437378
0.000270597
-0.0439877
0.000249927
-0.0442158
0.000228109
-0.0444214
0.000205628
-0.0446043
0.000182929
-0.0447647
0.000160353
-0.0449028
0.00013813
-0.0450192
0.00011641
-0.0451146
9.53108e-05
-0.0451895
7.49392e-05
-0.0452449
5.54058e-05
-0.0452817
3.68313e-05
-0.0453011
1.93863e-05
-0.0453044
3.25936e-06
-0.0452932
-1.11744e-05
-0.0452692
-2.39777e-05
-0.0452334
-3.5787e-05
-0.0451868
-4.66399e-05
-0.0451304
-5.64439e-05
-0.0450653
-6.50691e-05
-0.044993
-7.22929e-05
-0.0449154
-7.76038e-05
-0.0448355
-7.98678e-05
-0.0447584
-7.71026e-05
-0.0446917
-6.67507e-05
-0.0446449
-4.67785e-05
-0.0446267
-1.81977e-05
-0.0446423
1.56441e-05
-0.0446899
4.75905e-05
-0.0447673
7.73313e-05
-0.0448706
0.000103296
-0.0449975
0.000126945
-0.04515
0.000152471
-0.045333
0.000183068
-0.0455498
0.000216722
-0.0457966
0.000246835
-0.0460631
0.00026646
-0.0463353
0.000272261
-0.0466012
0.000265915
-0.0468518
0.000250618
-0.047084
0.000232115
-0.0473007
0.000216785
-0.0475086
0.000207877
-0.0477134
0.000204786
-0.0479202
0.000206812
-0.0481309
0.000210703
-0.0483442
0.000213311
-0.0485573
0.000213073
-0.0487673
0.000209953
-0.0489721
0.00020487
-0.0491709
0.000198806
-0.0493634
0.000192509
-0.0495499
0.000186445
-0.0497306
0.000180661
-0.0499055
0.00017492
-0.0500744
0.000168916
-0.0502368
0.000162443
-0.0503923
0.00015546
-0.0505404
0.000148101
-0.050681
0.000140621
-0.0508143
0.000133263
-0.0509405
0.000126251
-0.0510604
0.000119895
-0.051175
0.000114568
-0.0512856
0.000110637
-0.051394
0.00010835
-0.0515016
0.000107631
-0.0516097
0.000108072
-0.051719
0.000109303
-0.0518304
0.000111391
-0.0519446
0.000114208
-0.0520638
0.000119243
-0.0521889
0.000125104
-0.0523199
0.000130937
-0.0524554
0.000135576
-0.0525943
0.000138902
-0.0527356
0.00014123
-0.0528775
0.000141954
-0.0530173
0.000139774
-0.0531519
0.000134558
-0.0532806
0.000128719
-0.0534061
0.00012555
-0.0535235
0.000117351
-0.0535908
6.72954e-05
-0.0535305
-6.02633e-05
-0.0533152
-0.000215299
-0.0529786
-0.00033657
-0.0525831
-0.000395577
-0.0521758
-0.000407313
-0.0517809
-0.000394845
-0.0514068
-0.000374134
-0.0510528
-0.000354012
-0.0507134
-0.000339363
-0.0503806
-0.000332762
-0.0500456
-0.00033504
-0.0497003
-0.00034534
-0.0493391
-0.000361108
-0.0489601
-0.00037904
-0.0485636
-0.000396498
-0.0481514
-0.000412216
-0.0477255
-0.000425898
-0.0472867
-0.000438817
-0.0468389
-0.000447798
-0.0463866
-0.000452231
-0.0459334
-0.000453255
-0.0454823
-0.000451119
-0.0450363
-0.000445977
-0.0445982
-0.000438112
-0.04417
-0.000428213
-0.0437518
-0.00041822
-0.0433414
-0.000410393
-0.0429334
-0.00040799
-0.0425219
-0.000411438
-0.0421015
-0.000420434
-0.0416683
-0.000433239
-0.0412213
-0.000446941
-0.0407631
-0.000458242
-0.0402988
-0.000464303
-0.0398333
-0.000465497
-0.0393703
-0.00046302
-0.0389118
-0.000458414
-0.0384591
-0.000452724
-0.0380137
-0.000445391
-0.0375771
-0.000436672
-0.0371512
-0.000425825
-0.0367381
-0.000413178
-0.0363376
-0.000400445
-0.0359476
-0.000390006
-0.0355638
-0.00038383
-0.0351808
-0.000383007
-0.0347938
-0.000386973
-0.0343991
-0.000394696
-0.0339939
-0.000405217
-0.0335764
-0.000417514
-0.0331453
-0.000431067
-0.0326995
-0.000445772
-0.0322377
-0.000461797
-0.0317584
-0.000479286
-0.0312595
-0.000498984
-0.0307379
-0.000521585
-0.0301904
-0.00054744
-0.0296143
-0.000576154
-0.0290081
-0.000606143
-0.0283735
-0.000634682
-0.0277151
-0.000658394
-0.027041
-0.000674087
-0.0263613
-0.000679647
-0.0256866
-0.000674693
-0.0250261
-0.000660565
-0.0243861
-0.000639927
-0.0237672
-0.000618975
-0.0231699
-0.000597256
-0.0225933
-0.000576567
-0.0220396
-0.000553715
-0.0215183
-0.000521319
-0.0210475
-0.00047078
-0.0206499
-0.0003976
-0.0203443
-0.00030568
-0.0201376
-0.00020662
-0.0200243
-0.000113371
-0.0199913
-3.29354e-05
-0.0200093
1.79356e-05
-0.0200393
3.00471e-05
-0.0200417
2.43683e-06
-0.0199743
-6.74453e-05
-0.0198081
-0.00016616
-0.0195282
-0.000279976
-0.0191262
-0.00040193
-0.018597
-0.000529242
-0.0179399
-0.00065709
-0.0171607
-0.00077918
-0.0162697
-0.000891054
-0.0152791
-0.000990558
-0.0142017
-0.00107741
-0.0130495
-0.00115219
-0.0118324
-0.00121709
-0.0105552
-0.00127718
-0.00921403
-0.0013412
-0.00779873
-0.0014153
-0.00630058
-0.00149815
-0.00472438
-0.0015762
-0.00308958
-0.0016348
-0.00142489
-0.00166469
-0.00142489
0.000210343
-0.000522702
0.000998828
-0.00163214
0.00206821
-0.00217414
0.00316968
-0.00224564
0.00414375
-0.00203706
0.0049192
-0.00170806
0.00549485
-0.00137161
0.00590184
-0.00107991
0.00617305
-0.000840059
0.00633405
-0.000644158
0.0064073
-0.000487101
0.00641671
-0.000368589
0.00638835
-0.000289261
0.00634889
-0.000248381
0.00632308
-0.00024297
0.00633112
-0.000267352
0.00638626
-0.00031325
0.00649397
-0.000370985
0.0066528
-0.000431583
0.00685662
-0.000488277
0.00709691
-0.000536969
0.00736467
-0.000575941
0.00765175
-0.000605218
0.00795142
-0.000625879
0.00825865
-0.000639502
0.00856995
-0.000647787
0.00888321
-0.000652314
0.00919732
-0.000654416
0.00951185
-0.000655105
0.00982676
-0.000655048
0.010142
-0.000654571
0.0104575
-0.00065368
0.0107726
-0.000652128
0.0110863
-0.000649478
0.0113972
-0.000645191
0.0117034
-0.00063871
0.0120026
-0.000629538
0.0122924
-0.000617302
0.0125706
-0.000601825
0.012835
-0.000583182
0.0130843
-0.000561752
0.0133179
-0.000538252
0.0135361
-0.00051372
0.0137409
-0.000489453
0.0139351
-0.000466853
0.0141225
-0.000447221
0.0143071
-0.000431499
0.0144926
-0.000420038
0.0146818
-0.000412441
0.0148757
-0.000407564
0.0150736
-0.000403666
0.0152732
-0.000398714
0.0154704
-0.000390733
0.0156608
-0.000378134
0.0158394
-0.000359938
0.0160021
-0.000335865
0.0161455
-0.000306302
0.0162676
-0.000272232
0.0163677
-0.000235022
0.0164459
-0.00019624
0.0165038
-0.000157492
0.0165434
-0.000120264
0.0165673
-8.58045e-05
0.0165783
-5.50653e-05
0.0165794
-2.86942e-05
0.0165733
-6.9256e-06
0.0165623
1.08478e-05
0.0165493
2.34881e-05
0.0165361
3.21835e-05
0.0165241
3.70945e-05
0.0165144
3.85084e-05
0.0165087
3.62931e-05
0.0165085
3.03964e-05
0.0165156
2.08367e-05
0.0165317
7.32791e-06
0.0165586
-9.71415e-06
0.0165979
-3.06337e-05
0.016651
-5.48669e-05
0.0167181
-8.19267e-05
0.0167995
-0.000111212
0.0168947
-0.000141862
0.0170033
-0.000172847
0.0171243
-0.000203061
0.0172561
-0.0002314
0.017397
-0.000256838
0.0175448
-0.000278506
0.0176973
-0.00029575
0.0178521
-0.000308177
0.0180069
-0.000315677
0.0181599
-0.000318417
0.0183091
-0.000316818
0.0184533
-0.000311517
0.0185915
-0.000303323
0.0187236
-0.00029316
0.0188494
-0.000282016
0.0189698
-0.000270889
0.0190858
-0.000260737
0.0191988
-0.000252426
0.0193107
-0.000246683
0.0194232
-0.000244064
0.0195383
-0.000244921
0.019658
-0.000249378
0.0197837
-0.000257348
0.019917
-0.000268549
0.0200588
-0.00028256
0.02021
-0.000298877
0.0203709
-0.000316981
0.0205419
-0.000336394
0.0207228
-0.000356725
0.0209139
-0.000377689
0.0211152
-0.000399109
0.0213267
-0.000420901
0.0215488
-0.000443046
0.0217817
-0.000465558
0.0220259
-0.000488451
0.0222818
-0.000511706
0.0225501
-0.000535238
0.0228311
-0.000558888
0.0231254
-0.000582429
0.0234332
-0.000605618
0.0237546
-0.000628297
0.0240899
-0.000650516
0.0244392
-0.000672655
0.0248028
-0.000695484
0.0251819
-0.000720103
0.0255784
-0.000747716
0.0259957
-0.000779234
0.0264386
-0.000814761
0.0269128
-0.000853147
0.0274244
-0.000891849
0.027978
-0.000927341
0.028575
-0.000956046
0.0292128
-0.0009754
0.0298835
-0.000984482
0.0305749
-0.00098388
0.0312721
-0.000974956
0.0319594
-0.000959091
0.0326228
-0.000937412
0.0332507
-0.000911083
0.0338352
-0.000881794
0.0343724
-0.000852026
0.0348626
-0.000824894
0.0353104
-0.000803623
0.0357237
-0.000790911
0.0361131
-0.000788437
0.03649
-0.000796693
0.0368659
-0.00081518
0.0372516
-0.000842822
0.0376571
-0.00087844
0.0380917
-0.000921051
0.0385646
-0.000969759
0.0390837
-0.00102282
0.0396532
-0.00107553
0.0402688
-0.00111745
0.0409104
-0.00113048
0.041535
-0.00109008
0.0420723
-0.000972286
0.0424313
-0.000771103
0.0425315
-0.000524567
0.0423815
-0.000329406
0.0421947
-0.000299735
0.0423942
-0.000464344
0.0433204
-0.000724084
0.0448789
-0.000958124
0.0467659
-0.00120451
0.0487703
-0.00154817
0.0508108
-0.00193924
0.0527886
-0.00221326
0.0544888
-0.00213752
0.0555642
-0.00165101
0.0557288
-0.000871011
0.0549298
-8.23529e-05
0.0534281
0.00045077
0.0516777
0.000626664
0.0500652
0.000554674
0.04881
0.00036518
0.047977
0.00013042
0.0475474
-0.000133861
0.0474687
-0.000408691
0.0476906
-0.000670654
0.0481725
-0.000883351
0.0488749
-0.00101927
0.0497379
-0.0010672
0.0506697
-0.00103433
0.0515633
-0.000940232
0.0523286
-0.000805549
0.0529098
-0.000647075
0.0532869
-0.000482004
0.0534723
-0.000330099
0.0535057
-0.000209156
0.0534437
-0.000128916
0.0533462
-8.8463e-05
0.053264
-7.82296e-05
0.0532325
-8.54604e-05
0.0532716
-9.90022e-05
0.0533803
-0.000110545
0.0535445
-0.000110493
0.0537334
-9.68337e-05
0.0539244
-6.72519e-05
0.0540966
-1.9911e-05
0.0542374
3.59977e-05
0.0543308
0.000105238
0.0543663
0.000182481
0.0543383
0.000263627
0.054246
0.000345315
0.0540915
0.000425117
0.053879
0.000501351
0.0536141
0.000572896
0.0533028
0.000639097
0.0529512
0.000699669
0.0525651
0.00075461
0.0521498
0.000804147
0.0517102
0.000848705
0.0512503
0.000888899
0.0507735
0.000925511
0.0502823
0.00095947
0.0497785
0.000991809
0.0492626
0.00102362
0.0487346
0.00105596
0.0481935
0.00108985
0.0476377
0.00112612
0.0470651
0.00116547
0.0464731
0.00120833
0.0458589
0.00125494
0.0452196
0.00130525
0.0445523
0.00135889
0.0438542
0.00141509
0.0431231
0.00147265
0.0423578
0.00152988
0.0415581
0.00158474
0.0407256
0.00163511
0.0398632
0.00167918
0.038975
0.00171573
0.0380658
0.00174444
0.0371401
0.00176594
0.036202
0.0017817
0.0352546
0.00179372
0.0342996
0.00180419
0.0333377
0.00181518
0.0323684
0.0018283
0.0313907
0.00184452
0.030403
0.00186393
0.0294043
0.00188577
0.0283943
0.00190857
0.0273743
0.00193076
0.0263467
0.00195158
0.0253137
0.00197229
0.0242742
0.00199698
0.0232202
0.0020322
0.0221352
0.00208434
0.0209957
0.00215495
0.0197798
0.00223601
0.0184779
0.00231029
0.0170994
0.00236116
0.0156662
0.00238873
0.0141944
0.00241833
0.0126798
0.00248508
0.0111052
0.00260004
0.00946717
0.00273037
0.00779677
0.00281671
0.00615585
0.0028104
0.0046125
0.0026977
0.0032155
0.00249781
0.00198468
0.00224509
0.000918897
0.00197121
1.54369e-05
0.00169574
-0.000691277
0.00140478
-0.00114085
0.00113961
-0.00133922
0.0011034
-0.00151244
0.00164909
-0.00199488
0.002672
-0.00284796
0.00347483
-0.00390238
0.00363576
-0.00500253
0.00341409
-0.00608714
0.00313493
-0.00715107
0.00291592
-0.00819156
0.00274366
-0.0091986
0.0025867
-0.0101684
0.00243718
-0.0111095
0.00230263
-0.0120379
0.00219161
-0.0129709
0.00210741
-0.0139206
0.00204713
-0.0148914
0.00200406
-0.0158814
0.00197092
-0.0168835
0.00194197
-0.017889
0.00191362
-0.0188894
0.00188422
-0.0198773
0.00185364
-0.0208474
0.00182271
-0.0217969
0.00179311
-0.0227263
0.00176738
-0.0236401
0.00174887
-0.0245484
0.00174173
-0.025468
0.00175036
-0.0264222
0.00177733
-0.0274354
0.0018203
-0.0285246
0.00186951
-0.0296879
0.00190841
-0.0308983
0.00191795
-0.0321049
0.00188238
-0.0332436
0.00179396
-0.0342539
0.00165519
-0.0350949
0.00147894
-0.0357565
0.0012859
-0.0362586
0.00109923
-0.0366403
0.000937904
-0.0369442
0.000811708
-0.0372048
0.000720657
-0.0374442
0.000658087
-0.037673
0.000614742
-0.0378939
0.000581993
-0.0381061
0.000553444
-0.0383071
0.000525176
-0.038495
0.000495299
-0.0386686
0.000463309
-0.0388274
0.000429462
-0.0389718
0.000394319
-0.0391022
0.000358479
-0.039219
0.000322461
-0.0393228
0.000286659
-0.0394138
0.000251352
-0.0394924
0.000216731
-0.0395589
0.000182926
-0.0396136
0.000150034
-0.0396568
0.000118128
-0.0396886
8.72466e-05
-0.0397093
5.7474e-05
-0.0397188
2.89203e-05
-0.0397166
1.03198e-06
-0.0397018
-2.59057e-05
-0.0396747
-5.11568e-05
-0.0396354
-7.50213e-05
-0.0395849
-9.72001e-05
-0.0395239
-0.000117464
-0.0394534
-0.000135529
-0.0393747
-0.000150948
-0.0392894
-0.00016297
-0.0391988
-0.000170404
-0.0391042
-0.000171732
-0.0390053
-0.000165695
-0.0388998
-0.000152279
-0.0387845
-0.000133427
-0.0386567
-0.000112214
-0.0385159
-9.31813e-05
-0.0383611
-7.74534e-05
-0.0381951
-6.27187e-05
-0.0380223
-4.58228e-05
-0.0378429
-2.6983e-05
-0.0376485
-1.13342e-05
-0.0374267
-5.05901e-06
-0.0371687
-1.11519e-05
-0.036871
-3.12582e-05
-0.0365362
-6.25609e-05
-0.0361735
-9.67331e-05
-0.0358012
-0.000121689
-0.0354361
-0.000132979
-0.0350897
-0.000129651
-0.034766
-0.000115827
-0.034463
-9.81512e-05
-0.0341719
-8.43698e-05
-0.0338814
-7.97255e-05
-0.0335843
-8.38542e-05
-0.0332766
-9.4571e-05
-0.0329581
-0.000108568
-0.0326312
-0.000122026
-0.0322998
-0.000132596
-0.0319673
-0.000140034
-0.0316358
-0.000145042
-0.0313064
-0.000148739
-0.0309794
-0.000152092
-0.0306549
-0.000155556
-0.0303334
-0.000159056
-0.0300157
-0.000162211
-0.0297031
-0.000164554
-0.0293968
-0.000165638
-0.0290986
-0.000164986
-0.0288102
-0.000162111
-0.0285337
-0.000156553
-0.0282714
-0.000147814
-0.0280252
-0.000135571
-0.0277969
-0.000119862
-0.0275883
-0.000101027
-0.0274008
-7.93992e-05
-0.0272367
-5.48157e-05
-0.0270976
-2.77062e-05
-0.026985
1.63478e-06
-0.0269042
3.84186e-05
-0.0268525
7.3397e-05
-0.0268225
0.000100961
-0.0268062
0.000119244
-0.0267981
0.000130791
-0.026794
0.000137182
-0.026789
0.000136934
-0.0267771
0.000127896
-0.0267511
0.000108507
-0.0266991
7.67873e-05
-0.0266031
2.95045e-05
-0.0264428
-4.29577e-05
-0.0262109
-0.000164619
-0.0259531
-0.00031802
-0.0257019
-0.000466509
-0.0254642
-0.000574306
-0.025234
-0.000625721
-0.0250112
-0.000630172
-0.0247985
-0.000607528
-0.024597
-0.000575638
-0.0244059
-0.000545087
-0.0242246
-0.000520642
-0.0240539
-0.000503535
-0.0238965
-0.000492374
-0.0237593
-0.000482598
-0.0236526
-0.00046779
-0.0235915
-0.000440095
-0.0235959
-0.000392115
-0.0236854
-0.000322734
-0.0238694
-0.000241935
-0.0241447
-0.00016348
-0.0244862
-0.00010626
-0.0248656
-7.28692e-05
-0.0252532
-6.56078e-05
-0.0256195
-8.48474e-05
-0.025936
-0.000129513
-0.0261814
-0.000192734
-0.0263435
-0.000266021
-0.0264201
-0.000341681
-0.0264152
-0.000415241
-0.0263414
-0.000481857
-0.0262124
-0.00054041
-0.0260387
-0.000594183
-0.0258277
-0.000644157
-0.0255858
-0.000688846
-0.0253172
-0.000726898
-0.0250209
-0.000760598
-0.0246943
-0.000792075
-0.0243331
-0.000824219
-0.0239312
-0.000860349
-0.0234828
-0.000901059
-0.0229857
-0.000942528
-0.0224444
-0.00097798
-0.0218713
-0.00099895
-0.0212843
-0.00100014
-0.0207032
-0.000981566
-0.0201458
-0.000947363
-0.0196236
-0.000906058
-0.0191386
-0.000868021
-0.0186818
-0.000843731
-0.0182406
-0.000835952
-0.0178021
-0.000843669
-0.0173563
-0.000863281
-0.0168969
-0.000890466
-0.0164212
-0.0009215
-0.0159295
-0.000953491
-0.0154242
-0.000984619
-0.0149087
-0.00101445
-0.0143871
-0.00104317
-0.0138636
-0.00107101
-0.0133422
-0.00109749
-0.0128276
-0.00112081
-0.0123249
-0.0011373
-0.0118417
-0.00114159
-0.0113887
-0.00112716
-0.0109807
-0.00108765
-0.010637
-0.0010184
-0.0103789
-0.000918669
-0.0102241
-0.000794648
-0.010174
-0.000669066
-0.0102072
-0.000564071
-0.0102862
-0.000497566
-0.0103688
-0.00047117
-0.0104222
-0.000467908
-0.0104371
-0.000455832
-0.0104319
-0.000402813
-0.0104451
-0.000292472
-0.010513
-0.000138741
-0.0106363
9.96992e-06
-0.0108001
0.000130827
-0.010941
0.000158862
-0.0110017
9.06768e-05
-0.0109503
-4.89263e-05
-0.0107935
-0.000224255
-0.0105498
-0.00040982
-0.0102358
-0.00059401
-0.00986021
-0.000777524
-0.00942746
-0.000961991
-0.00894171
-0.00114284
-0.00841037
-0.00131052
-0.00784553
-0.0014559
-0.00726362
-0.00157247
-0.00668423
-0.00165681
-0.00612643
-0.00170999
-0.00560221
-0.0017413
-0.00510983
-0.00176956
-0.00462605
-0.00182497
-0.00410837
-0.00193299
-0.00350335
-0.00210318
-0.00277026
-0.00230929
-0.00190402
-0.00250104
-0.000953924
-0.00261478
-0.00237881
0.000131832
-0.000654534
0.000889848
-0.00239016
0.00202901
-0.00331331
0.0032706
-0.00348723
0.00438027
-0.00314673
0.00521507
-0.00254286
0.0057446
-0.00190115
0.00602294
-0.00135824
0.00613139
-0.000948512
0.00613807
-0.000650843
0.00609161
-0.000440639
0.00603261
-0.000309586
0.00599775
-0.0002544
0.00601665
-0.000267284
0.00610763
-0.000333952
0.00627608
-0.000435803
0.0065165
-0.00055367
0.00681669
-0.000671174
0.00716188
-0.000776769
0.00753774
-0.000864143
0.00793213
-0.000931359
0.00833568
-0.000979489
0.00874174
-0.00101128
0.00914601
-0.00103015
0.00954597
-0.00103946
0.0099404
-0.00104222
0.0103289
-0.00104082
0.0107116
-0.00103706
0.0110885
-0.00103209
0.01146
-0.0010265
0.0118258
-0.00102036
0.0121855
-0.00101338
0.0125383
-0.00100498
0.0128833
-0.000994446
0.0132192
-0.000981049
0.0135446
-0.000964177
0.0138585
-0.000943431
0.0141599
-0.000918715
0.0144484
-0.000890295
0.0147241
-0.000858844
0.0149878
-0.000825444
0.015241
-0.00079153
0.0154861
-0.000758767
0.0157255
-0.000728851
0.0159619
-0.000703238
0.0161975
-0.000682849
0.0164338
-0.000667808
0.0166711
-0.000657301
0.0169082
-0.000649616
0.017143
-0.000642367
0.0173722
-0.000632868
0.0175921
-0.000618568
0.0177988
-0.000597432
0.0179889
-0.000568214
0.0181595
-0.000530571
0.0183087
-0.000485041
0.0184353
-0.000432892
0.018539
-0.00037595
0.0186203
-0.000316367
0.0186805
-0.000256394
0.0187212
-0.000198171
0.0187445
-0.000143561
0.0187527
-9.40234e-05
0.0187482
-5.05428e-05
0.0187332
-1.36869e-05
0.0187104
1.58458e-05
0.0186815
3.97702e-05
0.0186479
5.70357e-05
0.018612
6.81469e-05
0.0185754
7.36597e-05
0.0185403
7.36081e-05
0.0185086
6.80123e-05
0.0184823
5.6658e-05
0.0184637
3.94748e-05
0.0184544
1.65737e-05
0.0184571
-1.24023e-05
0.0184732
-4.67546e-05
0.0185043
-8.59684e-05
0.0185516
-0.000129153
0.0186155
-0.000175156
0.0186962
-0.000222552
0.0187931
-0.000269729
0.018905
-0.000314993
0.0190303
-0.000356689
0.0191668
-0.000393316
0.0193119
-0.000423642
0.019463
-0.000446794
0.0196171
-0.000462324
0.0197717
-0.000470236
0.0199242
-0.000470974
0.0200728
-0.000465378
0.0202159
-0.000454614
0.0203526
-0.000440081
0.0204828
-0.000423314
0.0206067
-0.000405882
0.0207251
-0.000389294
0.0208392
-0.000374912
0.0209507
-0.000363881
0.0210611
-0.000357066
0.021172
-0.00035502
0.0212851
-0.000357966
0.0214015
-0.000365808
0.0215223
-0.000378167
0.0216482
-0.00039445
0.0217796
-0.000413923
0.0219165
-0.000435808
0.0220589
-0.000459363
0.0222065
-0.000483952
0.0223588
-0.000509091
0.0225156
-0.000534464
0.0226764
-0.000559916
0.0228409
-0.000585426
0.023009
-0.000611071
0.0231804
-0.000636978
0.0233552
-0.000663287
0.0235336
-0.00069011
0.0237159
-0.000717511
0.0239025
-0.000745485
0.024094
-0.000773971
0.0242913
-0.000802885
0.0244952
-0.000832183
0.0247066
-0.000861943
0.0249264
-0.00089244
0.0251551
-0.000924184
0.0253929
-0.000957879
0.0256394
-0.000994279
0.0258941
-0.00103392
0.0261562
-0.0010768
0.0264251
-0.00112206
0.0267011
-0.0011679
0.0269856
-0.00121182
0.0272808
-0.00125126
0.0275896
-0.0012842
0.0279148
-0.00130966
0.0282585
-0.00132762
0.0286221
-0.00133853
0.0290059
-0.00134284
0.0294093
-0.00134085
0.0298313
-0.00133305
0.0302701
-0.00132059
0.0307236
-0.00130559
0.0311897
-0.00129095
0.0316659
-0.00127981
0.0321497
-0.00127471
0.0326382
-0.001277
0.0331282
-0.00128662
0.0336154
-0.00130238
0.0340951
-0.00132252
0.0345619
-0.00134533
0.0350104
-0.00136949
0.0354346
-0.00139399
0.0358291
-0.00141732
0.036189
-0.00143538
0.0365096
-0.00143807
0.0367847
-0.00140562
0.0370016
-0.00130693
0.0371354
-0.00110612
0.0371507
-0.000786396
0.0370207
-0.000394588
0.0367684
-7.71406e-05
0.0364979
-2.92172e-05
0.0363798
-0.000346265
0.0365927
-0.000936964
0.0372408
-0.00160616
0.0382861
-0.0022498
0.0395915
-0.00285364
0.0410282
-0.00337594
0.0425036
-0.0036886
0.043954
-0.00358794
0.045241
-0.002938
0.0461672
-0.00179724
0.0465493
-0.000464471
0.046359
0.000641113
0.0457668
0.0012189
0.0450742
0.00124725
0.0445407
0.000898699
0.044287
0.000384045
0.0442797
-0.000126526
0.0444267
-0.000555713
0.0446388
-0.000882767
0.0448702
-0.00111469
0.0451158
-0.00126494
0.0453916
-0.00134291
0.0457113
-0.00135406
0.0460727
-0.00130169
0.046458
-0.00119079
0.046842
-0.00103105
0.0471996
-0.000839675
0.0475112
-0.000641692
0.0477664
-0.000464305
0.0479657
-0.000328287
0.0481192
-0.000241888
0.0482414
-0.000200432
0.0483468
-0.000190925
0.0484452
-0.000197396
0.04854
-0.000205264
0.0486326
-0.000203171
0.0487222
-0.000186385
0.048808
-0.000153041
0.0488901
-0.000102087
0.0489614
-3.52769e-05
0.0490188
4.7903e-05
0.0490562
0.000145036
0.0490674
0.00025242
0.049047
0.000365725
0.0489914
0.000480687
0.0488992
0.000593581
0.0487706
0.00070148
0.0486073
0.000802362
0.0484119
0.000895104
0.0481871
0.000979394
0.0479357
0.00105562
0.0476596
0.00112477
0.0473602
0.00118826
0.0470379
0.00124786
0.0466919
0.00130548
0.0463206
0.00136308
0.0459217
0.00142247
0.0454925
0.00148521
0.0450299
0.00155244
0.0445312
0.00162484
0.0439941
0.00170255
0.0434173
0.00178516
0.0428005
0.00187174
0.0421448
0.00196091
0.0414528
0.00205093
0.0407281
0.00213983
0.0399752
0.00222554
0.0391989
0.0023061
0.0384038
0.00237985
0.0375933
0.00244566
0.0367693
0.00250317
0.0359322
0.00255282
0.0350808
0.00259582
0.0342129
0.00263386
0.0333258
0.00266885
0.032417
0.00270249
0.0314851
0.0027361
0.0305298
0.00277043
0.0295525
0.00280563
0.0285558
0.00284124
0.0275435
0.00287622
0.0265203
0.00290895
0.0254913
0.00293759
0.0244614
0.00296068
0.0234345
0.00297849
0.0224121
0.00299469
0.0213911
0.00301793
0.0203612
0.00306214
0.0193016
0.00314392
0.0181806
0.00327593
0.016959
0.00345764
0.0156
0.0036693
0.0140846
0.00387657
0.0124251
0.00404819
0.0106699
0.00417356
0.008895
0.00425999
0.00718576
0.00430928
0.00561513
0.004301
0.00422603
0.00420581
0.0030215
0.00401493
0.00196541
0.00375378
0.000993615
0.0034696
2.98161e-05
0.00320889
-0.000996115
0.00299715
-0.00213109
0.00283071
-0.00339091
0.0026646
-0.00467571
0.00242441
-0.00576649
0.00219417
-0.00645409
0.00233669
-0.00677199
0.0029899
-0.00701246
0.0037153
-0.00747111
0.00409441
-0.00820915
0.00415213
-0.00914816
0.00407394
-0.0101919
0.00395968
-0.011288
0.00383975
-0.0124146
0.00371328
-0.0135574
0.00358004
-0.0147019
0.00344707
-0.0158341
0.00332383
-0.0169435
0.00321687
-0.0180238
0.00312742
-0.0190719
0.00305209
-0.0200863