/*--------------------------------*- C++ -*----------------------------------*\
| =========                 |                                                 |
| \\      /  F ield         | OpenFOAM: The Open Source CFD Toolbox           |
|  \\    /   O peration     | Version:  v2006                                 |
|   \\  /    A nd           | Website:  www.openfoam.com                      |
|    \\/     M anipulation  |                                                 |
\*---------------------------------------------------------------------------*/
FoamFile
{
    version     2.0;
    format      ascii;
    class       volScalarField;
    location    "0";
    object      f;
}
// * * * * * * * * * * * * * * * * * * * * * * * * * * * * * * * * * * * * * //

dimensions      [0 0 0 0 0 0 0];


internalField   nonuniform List<scalar> 
2500
(
1.03584e-81
2.04234e-68
2.36963e-59
5.16659e-54
-1.91444e-49
1.12358e-46
-2.54742e-44
-1.75771e-41
-6.67748e-40
-2.43626e-39
3.20766e-37
4.4771e-36
3.18836e-35
3.16524e-34
1.14806e-33
8.03047e-34
1.35799e-32
1.89989e-31
1.01673e-30
2.87009e-30
2.80584e-30
-1.25159e-29
-6.54445e-29
-1.50491e-28
-1.81449e-28
1.14306e-29
7.84684e-28
3.10409e-27
8.54788e-27
1.81546e-26
3.09457e-26
4.37299e-26
5.27074e-26
5.53272e-26
5.11877e-26
4.16423e-26
2.85946e-26
1.34184e-26
-3.30832e-27
-2.10757e-26
-3.82107e-26
-5.15208e-26
-5.77936e-26
-5.58064e-26
-4.71811e-26
-3.55203e-26
-2.43627e-26
-1.56585e-26
-9.69592e-27
-3.60089e-27
2.2402e-79
-1.76257e-65
1.37484e-57
1.18383e-52
-4.67179e-48
1.92061e-45
-3.0309e-43
-2.14867e-40
-7.53387e-39
-3.75654e-38
2.71965e-36
3.46193e-35
2.28209e-34
2.35451e-33
8.09004e-33
-2.9792e-33
-2.03083e-33
7.30211e-31
4.83441e-30
1.52146e-29
2.12634e-29
-3.08473e-29
-2.33866e-28
-5.78378e-28
-7.86334e-28
-3.9255e-28
1.51692e-27
7.81187e-27
2.3512e-26
5.20932e-26
9.06352e-26
1.29188e-25
1.56081e-25
1.63723e-25
1.51214e-25
1.23086e-25
8.56813e-26
4.37791e-26
-6.58468e-28
-4.67573e-26
-9.1039e-26
-1.25815e-25
-1.42854e-25
-1.38631e-25
-1.16901e-25
-8.69996e-26
-5.84608e-26
-3.65833e-26
-2.20372e-26
-8.51481e-27
4.58406e-77
-2.49669e-63
6.70238e-56
2.66977e-51
-1.07594e-46
3.02566e-44
-3.3643e-42
-2.52808e-39
-8.29244e-38
-4.97322e-37
2.29462e-35
2.65602e-34
1.61021e-33
1.80245e-32
6.2215e-32
-4.96812e-32
-4.65544e-31
2.36665e-30
2.37144e-29
8.40168e-29
1.41967e-28
-4.81711e-29
-9.27632e-28
-2.50197e-27
-3.69952e-27
-2.99389e-27
2.34322e-27
2.25746e-26
7.703e-26
1.80021e-25
3.21517e-25
4.64214e-25
5.64407e-25
5.93925e-25
5.4962e-25
4.48705e-25
3.15778e-25
1.70176e-25
1.99126e-26
-1.33335e-25
-2.80544e-25
-3.97916e-25
-4.58297e-25
-4.48546e-25
-3.79152e-25
-2.80712e-25
-1.86139e-25
-1.14228e-25
-6.73756e-26
-2.68116e-26
9.43921e-75
-2.45306e-61
2.96346e-54
6.48478e-50
-2.3973e-45
4.43497e-43
-3.49904e-41
-2.8482e-38
-8.78009e-37
-5.89005e-36
1.86759e-34
1.92286e-33
1.03663e-32
1.32995e-31
4.78589e-31
-3.87665e-31
-5.41896e-30
1.16898e-30
1.04339e-28
4.35163e-28
8.50222e-28
2.58659e-28
-3.40492e-27
-1.0375e-26
-1.65533e-26
-1.7126e-26
-4.93567e-27
5.54012e-26
2.36613e-25
5.96602e-25
1.10292e-24
1.61925e-24
1.98566e-24
2.09976e-24
1.9498e-24
1.59805e-24
1.13615e-24
6.39663e-25
1.40968e-25
-3.58221e-25
-8.37487e-25
-1.22607e-24
-1.43714e-24
-1.42292e-24
-1.20916e-24
-8.92632e-25
-5.84736e-25
-3.51719e-25
-2.02787e-25
-8.29791e-26
1.94187e-72
-2.05288e-59
1.21506e-52
1.72729e-48
-5.16264e-44
5.94144e-42
-3.39539e-40
-3.05756e-37
-8.91533e-36
-6.36603e-35
1.47381e-33
1.30151e-32
5.78569e-32
9.38271e-31
3.61919e-30
-2.03091e-30
-4.5995e-29
-6.9557e-29
3.83417e-28
2.10037e-27
4.68406e-27
3.44248e-27
-1.1142e-26
-4.10534e-26
-7.0685e-26
-8.52489e-26
-7.01216e-26
9.17401e-26
6.67113e-25
1.88529e-24
3.64883e-24
5.47248e-24
6.78544e-24
7.22379e-24
6.74198e-24
5.55416e-24
3.98776e-24
2.32814e-24
7.04317e-25
-8.88046e-25
-2.41402e-24
-3.67294e-24
-4.39746e-24
-4.41961e-24
-3.788e-24
-2.79589e-24
-1.81202e-24
-1.06789e-24
-6.00616e-25
-2.52084e-25
3.95925e-70
-1.55229e-57
4.67073e-51
4.94127e-47
-1.07325e-42
7.00726e-41
-3.1e-39
-3.10703e-36
-8.65107e-35
-6.32064e-34
1.13882e-32
8.1303e-32
2.40593e-31
6.27018e-30
2.65275e-29
-4.89375e-30
-3.34749e-28
-8.2513e-28
8.91635e-28
9.31159e-27
2.39775e-26
2.54382e-26
-2.94674e-26
-1.53849e-25
-2.88465e-25
-3.87573e-25
-4.40311e-25
-7.76933e-26
1.65188e-24
5.63378e-24
1.16039e-23
1.7881e-23
2.24802e-23
2.41418e-23
2.26878e-23
1.88156e-23
1.36435e-23
8.2118e-24
3.02604e-24
-1.94602e-24
-6.69108e-24
-1.06719e-23
-1.31035e-23
-1.3419e-23
-1.16438e-23
-8.62022e-24
-5.53824e-24
-3.19732e-24
-1.74995e-24
-7.5069e-25
7.93975e-68
-1.0871e-55
1.69269e-49
1.45464e-45
-2.15048e-41
6.58262e-40
-2.79957e-38
-2.96062e-35
-7.98907e-34
-5.75525e-33
8.75301e-32
4.59897e-31
1.51609e-31
3.92049e-29
1.86455e-28
4.41275e-29
-2.19749e-27
-6.88309e-27
-2.09964e-27
3.67542e-26
1.14259e-25
1.53297e-25
-3.84755e-26
-5.38991e-25
-1.12466e-24
-1.6446e-24
-2.19898e-24
-1.68981e-24
3.17406e-24
1.57148e-23
3.5326e-23
5.63434e-23
7.20527e-23
7.82218e-23
7.41717e-23
6.20424e-23
4.54629e-23
2.80843e-23
1.18471e-23
-3.34696e-24
-1.77378e-23
-2.9989e-23
-3.79331e-23
-3.9753e-23
-3.50704e-23
-2.61406e-23
-1.66913e-23
-9.44111e-24
-5.01432e-24
-2.18815e-24
1.55578e-65
-7.13739e-54
5.79802e-48
4.23985e-44
-4.14527e-40
2.93934e-39
-2.85962e-37
-2.60656e-34
-6.98626e-33
-4.75724e-32
6.82905e-31
2.28881e-30
-1.14648e-29
2.25052e-28
1.24641e-27
8.23739e-28
-1.33006e-26
-4.90267e-26
-4.80646e-26
1.19255e-25
5.0447e-25
8.18606e-25
2.21397e-25
-1.72211e-24
-4.1792e-24
-6.58762e-24
-9.70418e-24
-1.04911e-23
2.0497e-24
3.99931e-23
1.02395e-22
1.70708e-22
2.22878e-22
2.45158e-22
2.35092e-22
1.98813e-22
1.47408e-22
9.31577e-23
4.33267e-23
-2.12342e-24
-4.46428e-23
-8.12219e-23
-1.06378e-22
-1.14643e-22
-1.03332e-22
-7.78894e-23
-4.95894e-23
-2.75e-23
-1.41285e-23
-6.23289e-24
2.96273e-63
-4.42151e-52
1.8781e-46
1.19343e-42
-7.6689e-39
-6.39216e-38
-3.82099e-36
-2.06533e-33
-5.74946e-32
-3.48424e-31
5.5079e-30
9.62212e-30
-1.7113e-28
1.14517e-27
7.8676e-27
8.45987e-27
-7.50588e-26
-3.15811e-25
-4.353e-25
2.26958e-25
2.03674e-24
3.98995e-24
2.50076e-24
-4.74491e-24
-1.47269e-23
-2.50664e-23
-3.93258e-23
-4.98918e-23
-2.14035e-23
8.8515e-23
2.8049e-22
4.9555e-22
6.63455e-22
7.41234e-22
7.20667e-22
6.17996e-22
4.64592e-22
2.99768e-22
1.4993e-22
1.67507e-23
-1.05545e-22
-2.1113e-22
-2.8798e-22
-3.20976e-22
-2.97255e-22
-2.27754e-22
-1.45172e-22
-7.90399e-23
-3.91458e-23
-1.7317e-23
5.45933e-61
-2.59293e-50
5.74701e-45
3.19876e-41
-1.35773e-37
-2.44602e-36
-6.32626e-35
-1.39133e-32
-4.4182e-31
-2.13132e-30
4.62036e-29
3.37181e-29
-1.77748e-27
4.74559e-27
4.65452e-26
6.91657e-26
-3.97437e-25
-1.88549e-24
-3.08945e-24
-7.52218e-25
7.30249e-24
1.79515e-23
1.63113e-23
-9.4057e-24
-4.87487e-23
-9.09099e-23
-1.49068e-22
-2.06829e-22
-1.55415e-22
1.48297e-22
7.18202e-22
1.37235e-21
1.8942e-21
2.15507e-21
2.13036e-21
1.85935e-21
1.42173e-21
9.35897e-22
4.94634e-22
1.11827e-22
-2.3054e-22
-5.23993e-22
-7.49296e-22
-8.69591e-22
-8.32903e-22
-6.52539e-22
-4.18508e-22
-2.24241e-22
-1.06679e-22
-4.68168e-23
9.69877e-59
-1.44148e-48
1.65722e-43
8.09635e-40
-2.29196e-36
-5.43843e-35
-1.09616e-33
-6.66016e-32
-3.13855e-30
-8.89499e-30
3.98626e-28
1.43035e-28
-1.55624e-26
1.12007e-26
2.55683e-25
4.89793e-25
-1.98248e-24
-1.05615e-23
-1.92144e-23
-1.23793e-23
2.1595e-23
7.46984e-23
8.71517e-23
1.49818e-24
-1.48896e-22
-3.14636e-22
-5.34093e-22
-7.80987e-22
-7.37694e-22
5.92975e-23
1.6886e-21
3.60588e-21
5.16608e-21
6.00145e-21
6.05067e-21
5.40026e-21
4.21885e-21
2.83543e-21
1.56346e-21
4.81782e-22
-4.51895e-22
-1.23355e-21
-1.86334e-21
-2.2704e-21
-2.26663e-21
-1.82835e-21
-1.18707e-21
-6.28197e-22
-2.86076e-22
-1.2278e-22
1.656e-56
-7.59716e-47
4.48559e-42
1.92266e-38
-3.67142e-35
-9.8459e-34
-1.80299e-32
1.73439e-32
-2.03437e-29
9.33565e-30
3.45648e-27
1.5987e-27
-1.21318e-25
-5.19773e-26
1.28644e-24
3.1008e-24
-9.34476e-24
-5.58505e-23
-1.08864e-22
-9.63649e-23
3.93279e-23
2.85966e-22
4.12531e-22
1.51853e-22
-4.04247e-22
-1.03831e-21
-1.82107e-21
-2.74091e-21
-2.92862e-21
-9.51255e-22
3.52596e-21
8.92536e-21
1.33928e-20
1.59296e-20
1.6434e-20
1.50902e-20
1.21218e-20
8.33819e-21
4.75227e-21
1.73883e-21
-7.47399e-22
-2.7318e-21
-4.39601e-21
-5.68323e-21
-5.96961e-21
-4.99769e-21
-3.30872e-21
-1.73825e-21
-7.55505e-22
-3.10968e-22
2.70965e-54
-3.79238e-45
1.13322e-40
4.25171e-37
-5.54463e-34
-1.56992e-32
-2.73119e-31
5.74074e-30
-1.18387e-28
7.38632e-28
2.93768e-26
2.37153e-26
-8.60236e-25
-1.02077e-24
5.79284e-24
1.77835e-23
-4.17578e-23
-2.79498e-22
-5.71371e-22
-5.9487e-22
-8.26288e-23
9.93146e-22
1.77883e-21
1.09485e-21
-8.83707e-22
-3.25648e-21
-5.93987e-21
-9.04114e-21
-1.03837e-20
-5.7637e-21
6.0418e-21
2.06073e-20
3.27985e-20
4.00438e-20
4.24161e-20
4.03944e-20
3.36662e-20
2.38105e-20
1.39348e-20
5.62912e-21
-8.63348e-22
-5.63282e-21
-9.73874e-21
-1.35483e-20
-1.51473e-20
-1.32857e-20
-9.04733e-21
-4.75142e-21
-1.96721e-21
-7.55423e-22
4.23692e-52
-1.78968e-43
2.65222e-39
8.65541e-36
-7.8199e-33
-2.27226e-31
-3.7915e-30
9.47731e-29
-6.08263e-28
1.04362e-26
2.39666e-25
2.9283e-25
-5.59419e-24
-9.68243e-24
2.22766e-23
9.27703e-23
-1.77675e-22
-1.32273e-21
-2.79777e-21
-3.20749e-21
-1.38483e-21
3.03596e-21
7.05969e-21
5.77167e-21
-9.44153e-22
-9.64015e-21
-1.86237e-20
-2.82392e-20
-3.37707e-20
-2.36179e-20
6.21786e-21
4.37341e-20
7.52657e-20
9.45142e-20
1.03098e-19
1.02979e-19
9.01995e-20
6.60654e-20
3.95401e-20
1.68127e-20
7.59054e-23
-1.06891e-20
-1.99587e-20
-3.04827e-20
-3.68129e-20
-3.4209e-20
-2.42128e-20
-1.28284e-20
-5.0588e-21
-1.74016e-21
6.31237e-50
-7.96201e-42
5.69927e-38
1.58879e-34
-1.01444e-31
-3.02896e-30
-4.83175e-29
1.12247e-27
-2.75912e-27
1.06856e-25
1.84744e-24
2.98855e-24
-3.34007e-23
-7.18861e-23
6.42723e-23
4.39227e-22
-7.24872e-22
-5.89553e-21
-1.27995e-20
-1.56127e-20
-9.52378e-21
7.59093e-21
2.58282e-20
2.60122e-20
4.55839e-21
-2.65734e-20
-5.64407e-20
-8.40388e-20
-1.02102e-19
-8.09587e-20
-8.68495e-21
8.32709e-20
1.60064e-19
2.06868e-19
2.32733e-19
2.47913e-19
2.32569e-19
1.78259e-19
1.08924e-19
4.70206e-20
4.07205e-21
-1.85276e-20
-3.69643e-20
-6.39136e-20
-8.5004e-20
-8.48508e-20
-6.32213e-20
-3.41952e-20
-1.28787e-20
-3.72189e-21
8.93206e-48
-3.32624e-40
1.11632e-36
2.51583e-33
-1.17724e-30
-3.74923e-29
-5.66851e-28
1.12334e-26
-1.1999e-26
9.09967e-25
1.32881e-23
2.60865e-23
-1.82241e-22
-4.57221e-22
5.69079e-23
1.87143e-21
-2.86788e-21
-2.45363e-20
-5.45468e-20
-6.94474e-20
-5.04677e-20
1.17836e-20
8.67212e-20
1.04953e-19
4.19399e-20
-6.62894e-20
-1.66539e-19
-2.39875e-19
-2.89266e-19
-2.46288e-19
-7.8053e-20
1.35699e-19
3.10407e-19
4.11802e-19
4.76249e-19
5.56202e-19
5.75397e-19
4.68214e-19
2.92305e-19
1.24336e-19
1.37385e-20
-2.99631e-20
-5.94301e-20
-1.22547e-19
-1.84299e-19
-2.01151e-19
-1.60358e-19
-8.99117e-20
-3.25714e-20
-7.06523e-21
1.19606e-45
-1.29791e-38
2.01042e-35
3.02813e-32
-1.14745e-29
-4.33398e-28
-6.14332e-27
1.00403e-25
-6.33908e-26
6.69812e-24
8.81565e-23
1.98887e-22
-8.98289e-22
-2.56064e-21
-9.24328e-22
7.05014e-21
-1.11944e-20
-9.39263e-20
-2.1491e-19
-2.82877e-19
-2.28301e-19
-1.67356e-20
2.64505e-19
3.85275e-19
2.22968e-19
-1.39121e-19
-4.83328e-19
-6.62205e-19
-7.7267e-19
-6.81145e-19
-3.01856e-19
1.67655e-19
5.34928e-19
7.20291e-19
8.39892e-19
1.13604e-18
1.36099e-18
1.19846e-18
7.66584e-19
3.13292e-19
2.62297e-20
-5.13544e-20
-7.67767e-20
-2.08528e-19
-3.68109e-19
-4.50284e-19
-3.9272e-19
-2.32877e-19
-8.22524e-20
-1.04652e-20
1.50917e-43
-4.69538e-37
3.58143e-34
1.1327e-31
-7.56271e-29
-4.70219e-27
-6.18767e-26
8.26454e-25
-4.20637e-25
4.30295e-23
5.32325e-22
1.33436e-21
-3.90986e-21
-1.2681e-20
-8.87475e-21
2.26352e-20
-4.40495e-20
-3.22676e-19
-7.72464e-19
-1.04991e-18
-9.08646e-19
-2.4286e-19
7.20031e-19
1.2902e-18
9.68321e-19
-1.82245e-19
-1.39855e-18
-1.78753e-18
-1.95896e-18
-1.7336e-18
-8.89231e-19
8.12143e-20
7.8136e-19
1.02626e-18
1.10148e-18
2.00973e-18
3.06293e-18
2.99225e-18
1.96912e-18
7.57538e-19
8.52174e-21
-1.21625e-19
-6.80983e-20
-2.99479e-19
-6.53921e-19
-9.32277e-19
-9.2033e-19
-5.92936e-19
-2.08869e-19
-4.83432e-21
1.78499e-41
-1.55806e-35
7.75981e-33
-8.06746e-30
1.89628e-28
-4.81033e-26
-5.86954e-25
6.40464e-24
-1.91416e-24
2.4045e-22
2.87207e-21
7.83462e-21
-1.43308e-20
-5.48429e-20
-5.29128e-20
5.62679e-20
-1.77583e-19
-9.59504e-19
-2.4785e-18
-3.50906e-18
-3.19939e-18
-1.28659e-18
1.69844e-18
3.91369e-18
3.70856e-18
3.10837e-19
-4.09964e-18
-4.78407e-18
-4.7618e-18
-4.09534e-18
-2.16149e-18
-2.85481e-19
8.69368e-19
9.1713e-19
2.68532e-19
2.65246e-18
6.51485e-18
7.29058e-18
4.95557e-18
1.76719e-18
-1.75751e-19
-4.09785e-19
-5.22605e-20
-3.36888e-19
-9.52668e-19
-1.71235e-18
-2.03478e-18
-1.47957e-18
-5.38068e-19
4.6234e-20
1.96575e-39
-4.66495e-34
2.39217e-31
-3.4753e-28
1.86475e-26
-4.64993e-25
-5.39292e-24
4.71731e-23
1.37172e-23
1.15908e-21
1.34302e-20
3.9284e-20
-3.90659e-20
-1.99422e-19
-2.43362e-19
6.75493e-20
-7.2796e-19
-2.40777e-18
-6.83103e-18
-1.03425e-17
-9.87399e-18
-4.96914e-18
3.29381e-18
1.05624e-17
1.27895e-17
3.90005e-18
-1.23463e-17
-1.29184e-17
-1.13074e-17
-9.07719e-18
-4.19916e-18
-8.43714e-19
5.10042e-19
-5.542e-19
-4.69112e-18
5.5659e-19
1.29603e-17
1.73288e-17
1.2184e-17
3.97675e-18
-9.41491e-19
-1.50279e-18
-3.62599e-19
-3.37941e-19
-8.4079e-19
-2.49875e-18
-4.13951e-18
-3.6011e-18
-1.41873e-18
2.60295e-19
1.99749e-37
-1.22569e-32
8.83483e-30
-9.75737e-27
4.36388e-25
-4.22132e-24
-5.03471e-23
3.22251e-22
4.60108e-22
4.83642e-21
5.12539e-20
1.56764e-19
-3.96191e-20
-5.45205e-19
-8.83159e-19
-3.06821e-19
-2.89216e-18
-6.17072e-18
-1.45688e-17
-2.5878e-17
-2.60373e-17
-1.52414e-17
4.71886e-18
2.45036e-17
3.91925e-17
2.16651e-17
-3.84072e-17
-3.60671e-17
-2.7237e-17
-1.92875e-17
-4.81676e-18
6.27762e-19
-1.34552e-19
-4.77664e-18
-2.1256e-17
-1.27042e-17
2.36541e-17
4.01294e-17
2.90629e-17
8.51234e-18
-3.33288e-18
-5.12925e-18
-2.668e-18
-1.10108e-18
8.31269e-19
-1.58424e-18
-7.34955e-18
-8.48178e-18
-3.85071e-18
9.61607e-19
1.84862e-35
-2.67374e-31
3.19348e-28
-2.27822e-25
7.6342e-24
-3.50478e-23
-5.02741e-22
1.81694e-21
6.30506e-21
1.87704e-20
1.35922e-19
3.75293e-19
3.36769e-19
-5.91803e-19
-2.34701e-18
-2.79966e-18
-9.99811e-18
-3.24893e-17
-8.33308e-18
-5.0283e-17
-5.5575e-17
-3.66478e-17
3.79585e-18
4.57121e-17
9.9449e-17
9.99224e-17
-1.22555e-16
-1.08505e-16
-7.11379e-17
-4.10662e-17
9.57875e-18
1.7211e-17
2.19883e-18
-1.22823e-17
-6.42425e-17
-6.18644e-17
3.78972e-17
9.03779e-17
6.64329e-17
1.65383e-17
-9.62731e-18
-1.56906e-17
-1.30466e-17
-7.00423e-18
6.11771e-18
6.96685e-18
-9.71864e-18
-1.90697e-17
-1.07495e-17
2.90243e-18
1.52674e-33
-4.16595e-30
1.06137e-26
-4.77302e-24
1.14109e-22
-2.47009e-22
-5.41907e-21
4.2845e-21
5.81322e-20
8.50153e-20
7.4253e-20
-8.72364e-19
2.54542e-18
4.55448e-18
-2.9636e-18
-1.26043e-17
-2.1379e-17
-3.26244e-16
4.22133e-16
-5.23452e-17
-8.57704e-17
-6.27383e-17
5.62873e-19
6.50315e-17
2.23402e-16
4.78925e-16
-4.00428e-16
-4.37169e-16
-2.17321e-16
-9.33284e-17
1.06455e-16
1.11129e-16
2.38014e-17
-1.95248e-17
-1.52289e-16
-2.18652e-16
4.64741e-17
1.97732e-16
1.42399e-16
2.50876e-17
-2.43009e-17
-4.26044e-17
-4.97298e-17
-3.5078e-17
1.61433e-17
3.93429e-17
-1.37266e-18
-3.99192e-17
-3.06165e-17
7.38326e-18
1.08519e-31
-1.47863e-29
3.28903e-25
-9.41187e-23
1.51655e-21
-1.15145e-21
-5.95636e-20
-8.66863e-20
3.66768e-19
5.17989e-19
-1.34007e-18
-1.73685e-17
9.32319e-18
3.38095e-17
1.10615e-17
-3.42772e-17
6.60156e-17
-3.62425e-15
8.29938e-15
3.69839e-14
4.1709e-14
2.2988e-14
1.24203e-14
1.10218e-14
1.03881e-14
2.8844e-15
-1.72092e-15
-4.81083e-15
-8.29905e-16
-2.28364e-16
7.04861e-16
6.21138e-16
1.31475e-16
-1.78516e-17
-3.71666e-16
-7.56447e-16
1.4895e-17
4.20605e-16
2.73043e-16
7.72312e-18
-5.57456e-17
-9.98629e-17
-1.58941e-16
-1.42097e-16
2.25643e-17
1.29738e-16
5.31214e-17
-7.40786e-17
-8.79832e-17
1.49645e-17
6.12357e-30
1.61229e-27
1.00338e-23
-1.82496e-21
1.81192e-20
2.41837e-21
-6.05226e-19
-1.81703e-18
1.11837e-18
3.13619e-18
-3.13019e-18
-1.10451e-16
1.71143e-17
5.46404e-16
1.04207e-16
-1.24203e-15
8.6075e-16
-1.15178e-14
2.76538e-14
2.26028e-13
4.38735e-13
4.78499e-13
3.78339e-13
3.23133e-13
9.74399e-14
8.56577e-15
-1.43176e-14
-2.6682e-14
-5.34633e-15
-6.31587e-16
4.16339e-15
3.92882e-15
5.6981e-16
-1.2167e-14
-9.41454e-15
-3.46482e-15
-1.23171e-16
8.67277e-16
4.06281e-16
-1.72326e-16
-1.22191e-16
-1.84189e-16
-4.52839e-16
-5.27609e-16
-1.23458e-17
3.15325e-16
2.76118e-16
-1.09243e-16
-2.54063e-16
1.74175e-17
2.02829e-28
3.7897e-26
3.24543e-22
-3.6035e-20
1.95933e-19
1.25309e-19
-4.93112e-18
-2.09644e-17
-9.10186e-18
1.53103e-17
9.69813e-17
-8.40335e-16
5.37591e-17
2.15945e-14
-3.74716e-15
-8.44874e-14
-2.28083e-15
4.61032e-13
1.97804e-13
-3.52638e-13
8.99303e-13
1.30313e-12
1.16563e-12
9.69817e-13
2.37058e-13
-1.55841e-13
-1.52758e-13
-5.0387e-14
-1.65094e-13
-5.53418e-14
9.35423e-15
1.33384e-14
-1.41406e-13
-1.47289e-13
-6.19381e-14
-1.30677e-14
-2.16868e-16
1.71856e-15
8.29124e-17
-1.91409e-15
-1.02514e-15
-9.58698e-16
-2.51353e-15
-2.53723e-15
-1.62175e-16
1.57398e-15
1.29975e-15
-9.67353e-17
-8.1767e-16
-3.31763e-17
-7.83796e-27
-3.1991e-24
1.16013e-20
-7.30747e-19
2.05483e-18
1.05271e-18
-2.02233e-17
-2.18215e-16
-2.5424e-16
7.20206e-15
2.06474e-15
-4.10059e-14
5.13287e-14
1.18327e-13
-1.02933e-12
-4.53551e-13
2.91824e-12
3.73175e-12
1.10941e-11
-1.05507e-10
-2.90146e-10
-1.3396e-10
-3.23757e-11
-7.22451e-11
-8.9217e-11
-2.12434e-11
-1.31373e-12
4.95041e-13
-7.72096e-12
-9.96084e-12
-9.49807e-12
-2.82335e-12
-1.08581e-12
-4.60255e-13
-1.55479e-13
-2.84932e-14
2.722e-16
5.77838e-15
-6.35202e-15
-1.33272e-14
-1.92126e-14
-2.53744e-14
-2.28679e-14
-1.34382e-14
1.91849e-15
2.83907e-14
6.66766e-15
-1.154e-16
-5.48511e-15
-2.8462e-16
-2.14433e-24
-5.23711e-22
4.43046e-19
-1.51739e-17
3.18523e-17
-3.66157e-17
2.59092e-16
-7.08727e-15
1.75516e-14
7.4205e-14
-6.06013e-13
-4.91515e-13
6.32317e-12
-5.40185e-12
-1.81751e-11
7.09315e-11
1.63813e-11
6.34917e-12
3.66851e-11
-4.98845e-10
-1.5982e-09
-3.57207e-09
-3.35475e-09
-2.28158e-09
-6.20323e-10
-4.98911e-10
-1.24585e-11
3.24251e-11
-2.98883e-11
-4.24917e-11
-5.67745e-11
-1.6093e-11
-5.08769e-12
-6.80208e-13
-1.74986e-13
-3.32085e-14
1.00138e-14
3.31036e-14
-2.76206e-14
-3.44477e-14
-7.96695e-14
-1.1547e-13
-1.00893e-13
-3.67618e-14
4.09695e-13
1.66701e-13
1.70087e-14
-1.01266e-13
-3.3257e-14
4.01495e-16
-2.18919e-22
-5.42846e-20
1.69548e-17
-4.025e-16
2.39943e-15
-4.66891e-15
2.25399e-15
-5.23699e-14
5.28713e-13
-2.36782e-13
-5.10199e-12
1.38959e-11
3.0514e-11
-1.4714e-10
-7.94962e-11
5.1221e-10
-1.17361e-11
-2.30087e-10
-8.5321e-10
-9.28921e-10
2.32845e-09
-1.0479e-08
-1.46779e-08
-8.79205e-09
-1.63158e-09
-2.99851e-09
4.71786e-10
8.1846e-10
-1.02528e-10
1.70639e-09
3.8446e-11
4.63887e-10
5.42927e-12
1.30755e-12
3.72555e-13
6.30758e-14
9.33723e-14
8.05115e-14
-4.48551e-14
-3.45383e-14
-1.24652e-13
-1.91027e-13
-2.43843e-13
3.16046e-12
2.52519e-12
4.11865e-13
-2.19974e-12
-9.65886e-13
-8.28577e-14
8.12885e-14
-1.18072e-20
-4.35989e-18
4.08425e-16
-4.52264e-15
1.97612e-14
-8.05897e-15
-4.59365e-13
1.23332e-12
3.25697e-12
-2.61604e-11
-2.30394e-11
2.76256e-10
-1.88842e-10
-1.17006e-09
1.04948e-09
2.80838e-09
-1.73186e-12
-6.93017e-09
-4.13408e-09
1.82808e-08
9.34911e-08
1.422e-07
-1.627e-08
-1.31384e-08
-2.11349e-09
-7.07616e-09
3.36286e-08
2.8398e-08
-9.11671e-10
8.49804e-08
1.05871e-08
5.43042e-08
5.41134e-09
1.11529e-09
1.17272e-10
4.66444e-13
1.04307e-12
-5.21188e-12
1.69531e-11
2.28803e-11
2.61684e-11
5.88068e-11
7.46292e-11
4.58975e-11
7.12501e-12
-2.36772e-11
-1.84177e-11
-3.56825e-12
4.21231e-13
4.66853e-13
-4.7075e-16
5.57728e-15
-2.70042e-14
8.74184e-14
-2.48533e-13
8.63708e-13
-6.54334e-12
4.41293e-11
-6.18152e-11
-1.91338e-10
7.81615e-10
1.35549e-09
-6.39188e-09
-4.85098e-09
2.36971e-08
1.51593e-08
-1.36991e-07
-1.81125e-07
3.54251e-07
4.75915e-07
2.31973e-07
9.73575e-07
2.06781e-07
5.68043e-08
1.64879e-07
-8.10147e-07
0.000108598
0.000412987
0.000713637
0.000724787
0.000452868
0.000117464
2.35294e-07
8.98513e-08
1.0953e-08
2.50192e-10
6.86244e-11
-2.84447e-11
5.65308e-10
4.79442e-10
4.51604e-10
5.59552e-10
4.44981e-10
1.85233e-10
-1.18573e-11
-1.99615e-10
-6.67905e-11
-6.13308e-12
6.29493e-12
1.65974e-12
-4.05487e-14
1.94358e-13
-9.50752e-13
3.6035e-12
-7.52677e-12
1.35276e-12
-5.71895e-12
1.84566e-10
-9.41909e-10
-2.05559e-10
8.9545e-09
-1.05548e-08
-4.78449e-08
1.19294e-07
3.44415e-07
-2.92126e-07
-1.78083e-06
-9.09898e-07
5.62678e-06
1.8497e-06
2.78588e-08
-1.97339e-05
0.000349085
0.00217192
0.00685813
0.0148802
0.0245821
0.0326345
0.0358282
0.0334659
0.026405
0.0172698
0.00894715
0.00335872
0.000701487
8.60969e-06
5.15686e-10
1.28539e-09
2.14789e-09
1.68823e-09
1.76623e-09
1.60917e-09
9.35051e-10
3.66096e-10
-1.91219e-09
-8.71678e-10
-1.18946e-10
7.61422e-11
3.29215e-11
2.484e-12
-1.36391e-13
4.4056e-13
-3.00133e-12
1.13178e-11
-1.2732e-11
-1.52281e-10
1.25156e-09
-1.77037e-09
-4.79505e-09
1.59305e-08
3.86179e-08
-1.90962e-07
-1.81334e-07
1.26367e-06
1.37795e-06
-5.41061e-06
-5.44311e-06
9.50457e-06
3.09199e-05
-0.000186871
-0.000971973
-0.0010761
0.0036505
0.0189342
0.0476881
0.086627
0.125888
0.153251
0.159756
0.147753
0.120494
0.0862739
0.0537793
0.0285627
0.0122948
0.00374291
0.000479877
1.5611e-08
2.86822e-09
2.74447e-09
5.64726e-09
2.49181e-09
-5.05915e-09
-2.85215e-08
-1.40365e-08
-1.90511e-09
6.94205e-10
5.19992e-10
9.27847e-11
-9.65367e-12
7.3645e-12
-2.969e-11
9.60537e-11
-1.60073e-10
3.86251e-11
-4.50151e-10
5.89435e-09
-2.3893e-08
4.06455e-09
1.81176e-07
-1.32748e-07
-1.04368e-06
7.07433e-07
4.26124e-06
-3.56548e-06
-3.04921e-05
5.31402e-05
0.000356747
0.000149691
-0.00223162
-0.00631691
-0.00609626
0.00960499
0.0538072
0.12964
0.225486
0.317368
0.378951
0.39157
0.364825
0.3053
0.229116
0.15364
0.0910924
0.046645
0.0196053
0.00593012
0.000730142
8.68041e-10
1.90309e-09
1.486e-08
-2.01953e-07
-3.30099e-07
-1.83457e-07
-4.51926e-08
-5.0731e-10
5.19497e-09
1.83988e-09
1.23604e-10
-5.98978e-11
3.96452e-11
-1.45321e-10
6.1078e-10
-1.69126e-09
1.17081e-11
1.2906e-08
-1.33868e-08
-9.72572e-08
2.14752e-07
6.32747e-07
-2.00446e-06
-3.13999e-06
1.32749e-05
8.88857e-06
-0.000119702
-0.000138115
0.000590439
0.00171695
0.000496029
-0.0066057
-0.017519
-0.0182021
0.01088
0.0895678
0.221393
0.384874
0.541648
0.651185
0.682087
0.647036
0.558268
0.437306
0.309926
0.197011
0.110396
0.0527089
0.0199027
0.00475748
0.000200764
-9.97442e-07
-2.24969e-06
-2.53416e-06
-1.59379e-06
-5.31141e-07
-7.2588e-08
3.92249e-08
2.25837e-08
3.32009e-09
-3.49509e-10
-2.39192e-10
-1.53644e-10
3.83509e-10
7.74731e-10
-6.23335e-09
7.96339e-09
6.4288e-08
-2.39333e-07
-8.98976e-08
1.44326e-06
-1.13919e-06
-1.18648e-05
2.08384e-05
9.32567e-05
-6.883e-05
-0.000564787
-0.000430362
0.00168201
0.00444789
0.00227468
-0.01042
-0.0305373
-0.0370173
-0.00284893
0.0959207
0.261764
0.469616
0.674295
0.830027
0.899549
0.879427
0.787136
0.644167
0.479974
0.322769
0.192785
0.0995206
0.0420359
0.0125716
0.00139057
-1.00665e-05
-1.27834e-05
-9.77257e-06
-4.20032e-06
-8.32197e-07
2.60996e-07
2.3258e-07
6.19252e-08
9.02951e-10
-1.62423e-09
-6.72674e-10
-7.74747e-10
5.67342e-09
-1.90017e-08
-6.82163e-09
1.40422e-07
-1.52929e-07
-1.19194e-06
4.08094e-06
5.94623e-06
-3.22611e-05
-4.26759e-05
0.000138079
0.000315645
-0.000194501
-0.00141011
-0.00125429
0.0024698
0.00786044
0.00666248
-0.00898455
-0.0359127
-0.0522191
-0.0301173
0.0549479
0.208595
0.41096
0.624815
0.807073
0.916984
0.93231
0.873371
0.748154
0.582559
0.41046
0.257713
0.14041
0.063486
0.0212927
0.00335216
-3.97945e-05
-4.28738e-05
-2.43592e-05
-6.45324e-06
1.61549e-06
2.12615e-06
8.57418e-07
9.38256e-08
-9.07863e-09
-5.53625e-09
-1.26541e-09
1.72208e-08
-4.06565e-09
-1.97839e-07
5.40582e-07
7.19959e-07
-4.8502e-06
-1.24891e-06
2.8006e-05
1.08357e-05
-0.000119076
-0.000123596
0.000308065
0.000729435
-9.15422e-05
-0.00225135
-0.00275312
0.00162124
0.00955495
0.0120137
0.0003788
-0.025893
-0.0508047
-0.0490554
-0.00732565
0.0821561
0.212435
0.367322
0.526247
0.662793
0.743234
0.743653
0.678478
0.558273
0.408873
0.263954
0.147776
0.0689296
0.0242596
0.00434942
-0.000131768
-0.00011126
-3.73749e-05
9.52296e-06
1.64496e-05
8.5416e-06
1.81345e-06
4.24097e-09
-2.51192e-08
-1.15695e-08
-1.72346e-09
1.21996e-07
-5.64556e-07
-3.96409e-07
3.79536e-06
-2.00235e-08
-1.80703e-05
-1.05864e-06
7.11457e-05
3.93316e-05
-0.000210757
-0.000287938
0.000322697
0.00112193
0.000506789
-0.00215297
-0.00404584
-0.00126302
0.0068359
0.0136289
0.0106273
-0.00468594
-0.0264692
-0.0420038
-0.0405088
-0.0204029
0.0218845
0.0895988
0.182392
0.289847
0.386196
0.433303
0.421141
0.362199
0.273391
0.178947
0.0995961
0.0451049
0.014817
0.00203592
-0.000429727
-0.000183987
5.10766e-05
0.000100481
6.21696e-05
2.04066e-05
2.06013e-06
-7.94912e-08
-5.43818e-08
-1.82137e-08
-1.70827e-09
8.25308e-08
-1.61398e-06
-7.16484e-08
8.55137e-06
4.83384e-07
-3.17408e-05
-1.39909e-05
9.47709e-05
0.000100261
-0.000178789
-0.000420496
1.03281e-05
0.00104164
0.00117149
-0.000691071
-0.0035363
-0.00363355
0.000807003
0.00803877
0.0121487
0.00938483
0.000391218
-0.0130897
-0.0290556
-0.0448503
-0.05588
-0.052234
-0.0252831
0.0259035
0.087349
0.132837
0.139464
0.120475
0.0848202
0.0469593
0.0181891
0.00211566
-0.00346531
-0.0026379
-0.000963573
0.000152005
0.000438146
0.000321365
0.000142281
3.32105e-05
7.51027e-07
-1.37392e-07
-7.9315e-08
-2.11319e-08
-9.04886e-10
1.34899e-07
-1.74035e-06
-9.75247e-07
8.45003e-06
6.71351e-06
-2.44758e-05
-3.4699e-05
4.11565e-05
0.000126831
1.47401e-05
-0.000300897
-0.000343877
0.000257227
0.00108268
0.000858423
-0.000902532
-0.00292629
-0.00287828
-0.000255585
0.00387624
0.00760675
0.0092931
0.00765001
-7.87278e-05
-0.0159457
-0.0373581
-0.0564484
-0.0635396
-0.057402
-0.0422651
-0.0294929
-0.0289834
-0.0342487
-0.0403098
-0.041198
-0.0347904
-0.0242582
-0.0130753
-0.00455713
5.61254e-06
0.00133722
0.00113059
0.000623899
0.000227749
3.7564e-05
-2.28336e-07
-1.62081e-07
-7.63954e-08
-1.74736e-08
-2.31704e-10
3.2015e-07
-1.91715e-07
-2.45872e-06
2.33463e-07
1.01548e-05
5.12289e-06
-2.96764e-05
-3.58892e-05
5.05948e-05
0.000136337
1.04733e-05
-0.000305699
-0.000345913
0.000167755
0.000885296
0.000924297
3.34542e-05
-0.00148636
-0.00282124
-0.00306935
-0.00147311
0.00255984
0.00783597
0.010897
0.00884542
0.0011643
-0.010456
-0.0223515
-0.0326874
-0.0423561
-0.0517681
-0.0600955
-0.0636923
-0.0602033
-0.0494298
-0.0345527
-0.018838
-0.00642717
0.000615988
0.00325266
0.00287832
0.00181757
0.000840954
0.000260956
2.73895e-05
-1.83727e-07
-1.3843e-07
-4.82087e-08
-6.15428e-09
6.55074e-10
1.65925e-07
5.77071e-07
-1.16709e-06
-3.39197e-06
3.11923e-06
1.31536e-05
-9.50551e-07
-3.6797e-05
-2.81625e-05
5.82859e-05
0.000122241
2.45834e-05
-0.000213457
-0.000342121
-0.000139561
0.0004346
0.00104244
0.00104868
2.22028e-05
-0.00191708
-0.00347475
-0.00322952
-0.000681419
0.00349756
0.00773657
0.0104407
0.0113727
0.00986912
0.00553205
-0.00238597
-0.0122105
-0.0206259
-0.0227234
-0.0191611
-0.0114495
-0.00249171
0.00445697
0.00812464
0.00790026
0.00602574
0.00381539
0.00196707
0.000795063
0.000198945
8.92102e-06
-3.87313e-07
-1.32425e-07
-7.09292e-09
5.48902e-09
2.12628e-09
-1.25198e-07
5.25755e-07
8.53565e-07
-2.18766e-06
-4.03993e-06
4.17321e-06
1.38755e-05
2.17955e-06
-3.10947e-05
-3.95582e-05
1.60238e-05
0.000110035
0.000121612
-4.07421e-05
-0.000319301
-0.000420661
-0.000115891
0.000562668
0.00114626
0.00109559
0.000257822
-0.00111716
-0.00239708
-0.00281403
-0.00185648
0.000719088
0.00463148
0.00882478
0.0115958
0.0124148
0.011513
0.0103077
0.0104357
0.0121566
0.0142787
0.0155043
0.0146285
0.0119764
0.00855829
0.00531234
0.00273048
0.00115744
0.000356117
4.91493e-05
-4.65227e-06
-1.51225e-06
-1.07404e-07
2.71915e-08
1.43602e-08
2.40923e-09
-5.10581e-08
-1.33079e-07
3.37232e-07
8.79298e-07
-6.06014e-07
-3.54377e-06
-1.89801e-06
8.68674e-06
1.49117e-05
-4.05826e-06
-4.24973e-05
-4.51776e-05
2.7779e-05
0.000138388
0.000147279
-2.42469e-05
-0.000319579
-0.000480114
-0.000270681
0.00031852
0.000980744
0.00117434
0.000610121
-0.000680287
-0.00225526
-0.00333398
-0.00334866
-0.0021918
-0.000163721
0.00219971
0.00451838
0.006439
0.00776827
0.00873372
0.00859694
0.00764895
0.00599399
0.00396343
0.0021414
0.000869169
0.000184521
-7.76365e-05
-0.000119111
-5.97328e-05
-1.49594e-05
-1.41629e-06
8.50811e-08
4.85972e-08
1.5127e-08
1.25599e-09
3.35214e-08
5.41713e-08
-2.63098e-07
-3.26557e-07
9.18368e-07
1.56219e-06
-1.60926e-06
-5.80624e-06
-1.61861e-06
1.30639e-05
1.92634e-05
-4.75021e-06
-5.08792e-05
-5.77422e-05
1.70213e-05
0.00013789
0.000173863
4.40679e-05
-0.000222244
-0.000431128
-0.000389741
-1.24369e-05
0.00059334
0.00103139
0.000931878
0.000184793
-0.000990567
-0.00215176
-0.00294372
-0.00337006
-0.00352791
-0.00362156
-0.00370294
-0.00382489
-0.00391246
-0.00392285
-0.00373025
-0.00325923
-0.00256469
-0.00179901
-0.00110824
-0.000584682
-0.000247007
-7.7048e-05
-1.07767e-05
3.79641e-07
1.52272e-07
3.47315e-08
4.80074e-09
-1.30154e-10
-1.833e-08
3.2501e-09
1.42835e-07
-5.35111e-09
-5.60651e-07
-2.54262e-07
1.61933e-06
1.87982e-06
-2.54129e-06
-7.14851e-06
-1.82078e-06
1.36048e-05
2.15056e-05
2.36716e-06
-4.20263e-05
-6.93859e-05
-2.60038e-05
9.46495e-05
0.000192649
0.000136409
-9.48205e-05
-0.000346986
-0.000375635
-0.000143199
0.000249063
0.000637982
0.000922753
0.00106194
0.000998868
0.000652781
-5.8284e-05
-0.00105306
-0.00213106
-0.00305954
-0.00357757
-0.00354362
-0.00311757
-0.00242239
-0.0016584
-0.000988837
-0.000501931
-0.000208557
-6.63635e-05
-1.208e-05
1.99748e-06
6.35735e-07
8.17516e-08
-5.97338e-09
-2.69698e-09
-3.26135e-10
8.57418e-09
2.93876e-09
-6.44767e-08
-1.25224e-09
2.49484e-07
5.87218e-08
-7.74049e-07
-5.97762e-07
1.77404e-06
2.98033e-06
-1.70628e-06
-8.88769e-06
-5.62726e-06
1.24956e-05
2.58821e-05
9.93974e-06
-3.16552e-05
-5.8559e-05
-3.83272e-05
2.32589e-05
9.44616e-05
0.000130497
9.57714e-05
-3.38387e-05
-0.000234285
-0.000417803
-0.000423587
-0.000172258
0.000353818
0.000968287
0.00148564
0.00175409
0.00173484
0.001516
0.0011945
0.000911359
0.000727358
0.000599021
0.000484136
0.000369994
0.000252355
0.000148904
7.40225e-05
2.88102e-05
7.1675e-06
3.93262e-07
-2.61075e-08
-1.54883e-08
-5.626e-09