/*--------------------------------*- C++ -*----------------------------------*\
| =========                 |                                                 |
| \\      /  F ield         | OpenFOAM: The Open Source CFD Toolbox           |
|  \\    /   O peration     | Version:  v2006                                 |
|   \\  /    A nd           | Website:  www.openfoam.com                      |
|    \\/     M anipulation  |                                                 |
\*---------------------------------------------------------------------------*/
FoamFile
{
    version     2.0;
    format      ascii;
    class       volVectorField;
    location    "0";
    object      U_new;
}
// * * * * * * * * * * * * * * * * * * * * * * * * * * * * * * * * * * * * * //

dimensions      [0 1 -1 0 0 0 0];


internalField   nonuniform List<vector> 
2500
(
(0.000664 -0.055112 0)
(0.000664 -0.165336 0)
(0.000664 -0.27556 0)
(0.000664 -0.385784 0)
(0.000664 -0.496008 0)
(0.000664 -0.606232 0)
(0.000664 -0.716456 0)
(0.000664 -0.82668 0)
(0.000664 -0.936904 0)
(0.000664 -1.04713 0)
(0.000664 -1.15735 0)
(0.000664 -1.26758 0)
(0.000664 -1.3778 0)
(0.000664 -1.48802 0)
(0.000664 -1.59825 0)
(0.000664 -1.70847 0)
(0.000664 -1.8187 0)
(0.000664 -1.92892 0)
(0.000664 -2.03914 0)
(0.000664 -2.14937 0)
(0.000664 -2.25959 0)
(0.000664 -2.36982 0)
(0.000664 -2.48004 0)
(0.000664 -2.59026 0)
(0.000664 -2.70049 0)
(0.000664 -2.81071 0)
(0.000664 -2.92094 0)
(0.000664 -3.03116 0)
(0.000664 -3.14138 0)
(0.000664 -3.25161 0)
(0.000664 -3.36183 0)
(0.000664 -3.47206 0)
(0.000664 -3.58228 0)
(0.000664 -3.6925 0)
(0.000664 -3.80273 0)
(0.000664 -3.91295 0)
(0.000664 -4.02318 0)
(0.000664 -4.1334 0)
(0.000664 -4.24362 0)
(0.000664 -4.35385 0)
(0.000664 -4.46407 0)
(0.000664 -4.5743 0)
(0.000664 -4.68452 0)
(0.000664 -4.79474 0)
(0.000664 -4.90497 0)
(0.000664 -5.01519 0)
(0.000664 -5.12542 0)
(0.000664 -5.23564 0)
(0.000664 -5.34586 0)
(0.000664 -5.45609 0)
(0.005976 -0.055112 0)
(0.005976 -0.165336 0)
(0.005976 -0.27556 0)
(0.005976 -0.385784 0)
(0.005976 -0.496008 0)
(0.005976 -0.606232 0)
(0.005976 -0.716456 0)
(0.005976 -0.82668 0)
(0.005976 -0.936904 0)
(0.005976 -1.04713 0)
(0.005976 -1.15735 0)
(0.005976 -1.26758 0)
(0.005976 -1.3778 0)
(0.005976 -1.48802 0)
(0.005976 -1.59825 0)
(0.005976 -1.70847 0)
(0.005976 -1.8187 0)
(0.005976 -1.92892 0)
(0.005976 -2.03914 0)
(0.005976 -2.14937 0)
(0.005976 -2.25959 0)
(0.005976 -2.36982 0)
(0.005976 -2.48004 0)
(0.005976 -2.59026 0)
(0.005976 -2.70049 0)
(0.005976 -2.81071 0)
(0.005976 -2.92094 0)
(0.005976 -3.03116 0)
(0.005976 -3.14138 0)
(0.005976 -3.25161 0)
(0.005976 -3.36183 0)
(0.005976 -3.47206 0)
(0.005976 -3.58228 0)
(0.005976 -3.6925 0)
(0.005976 -3.80273 0)
(0.005976 -3.91295 0)
(0.005976 -4.02318 0)
(0.005976 -4.1334 0)
(0.005976 -4.24362 0)
(0.005976 -4.35385 0)
(0.005976 -4.46407 0)
(0.005976 -4.5743 0)
(0.005976 -4.68452 0)
(0.005976 -4.79474 0)
(0.005976 -4.90497 0)
(0.005976 -5.01519 0)
(0.005976 -5.12542 0)
(0.005976 -5.23564 0)
(0.005976 -5.34586 0)
(0.005976 -5.45609 0)
(0.0166 -0.055112 0)
(0.0166 -0.165336 0)
(0.0166 -0.27556 0)
(0.0166 -0.385784 0)
(0.0166 -0.496008 0)
(0.0166 -0.606232 0)
(0.0166 -0.716456 0)
(0.0166 -0.82668 0)
(0.0166 -0.936904 0)
(0.0166 -1.04713 0)
(0.0166 -1.15735 0)
(0.0166 -1.26758 0)
(0.0166 -1.3778 0)
(0.0166 -1.48802 0)
(0.0166 -1.59825 0)
(0.0166 -1.70847 0)
(0.0166 -1.8187 0)
(0.0166 -1.92892 0)
(0.0166 -2.03914 0)
(0.0166 -2.14937 0)
(0.0166 -2.25959 0)
(0.0166 -2.36982 0)
(0.0166 -2.48004 0)
(0.0166 -2.59026 0)
(0.0166 -2.70049 0)
(0.0166 -2.81071 0)
(0.0166 -2.92094 0)
(0.0166 -3.03116 0)
(0.0166 -3.14138 0)
(0.0166 -3.25161 0)
(0.0166 -3.36183 0)
(0.0166 -3.47206 0)
(0.0166 -3.58228 0)
(0.0166 -3.6925 0)
(0.0166 -3.80273 0)
(0.0166 -3.91295 0)
(0.0166 -4.02318 0)
(0.0166 -4.1334 0)
(0.0166 -4.24362 0)
(0.0166 -4.35385 0)
(0.0166 -4.46407 0)
(0.0166 -4.5743 0)
(0.0166 -4.68452 0)
(0.0166 -4.79474 0)
(0.0166 -4.90497 0)
(0.0166 -5.01519 0)
(0.0166 -5.12542 0)
(0.0166 -5.23564 0)
(0.0166 -5.34586 0)
(0.0166 -5.45609 0)
(0.032536 -0.055112 0)
(0.032536 -0.165336 0)
(0.032536 -0.27556 0)
(0.032536 -0.385784 0)
(0.032536 -0.496008 0)
(0.032536 -0.606232 0)
(0.032536 -0.716456 0)
(0.032536 -0.82668 0)
(0.032536 -0.936904 0)
(0.032536 -1.04713 0)
(0.032536 -1.15735 0)
(0.032536 -1.26758 0)
(0.032536 -1.3778 0)
(0.032536 -1.48802 0)
(0.032536 -1.59825 0)
(0.032536 -1.70847 0)
(0.032536 -1.8187 0)
(0.032536 -1.92892 0)
(0.032536 -2.03914 0)
(0.032536 -2.14937 0)
(0.032536 -2.25959 0)
(0.032536 -2.36982 0)
(0.032536 -2.48004 0)
(0.032536 -2.59026 0)
(0.032536 -2.70049 0)
(0.032536 -2.81071 0)
(0.032536 -2.92094 0)
(0.032536 -3.03116 0)
(0.032536 -3.14138 0)
(0.032536 -3.25161 0)
(0.032536 -3.36183 0)
(0.032536 -3.47206 0)
(0.032536 -3.58228 0)
(0.032536 -3.6925 0)
(0.032536 -3.80273 0)
(0.032536 -3.91295 0)
(0.032536 -4.02318 0)
(0.032536 -4.1334 0)
(0.032536 -4.24362 0)
(0.032536 -4.35385 0)
(0.032536 -4.46407 0)
(0.032536 -4.5743 0)
(0.032536 -4.68452 0)
(0.032536 -4.79474 0)
(0.032536 -4.90497 0)
(0.032536 -5.01519 0)
(0.032536 -5.12542 0)
(0.032536 -5.23564 0)
(0.032536 -5.34586 0)
(0.032536 -5.45609 0)
(0.053784 -0.055112 0)
(0.053784 -0.165336 0)
(0.053784 -0.27556 0)
(0.053784 -0.385784 0)
(0.053784 -0.496008 0)
(0.053784 -0.606232 0)
(0.053784 -0.716456 0)
(0.053784 -0.82668 0)
(0.053784 -0.936904 0)
(0.053784 -1.04713 0)
(0.053784 -1.15735 0)
(0.053784 -1.26758 0)
(0.053784 -1.3778 0)
(0.053784 -1.48802 0)
(0.053784 -1.59825 0)
(0.053784 -1.70847 0)
(0.053784 -1.8187 0)
(0.053784 -1.92892 0)
(0.053784 -2.03914 0)
(0.053784 -2.14937 0)
(0.053784 -2.25959 0)
(0.053784 -2.36982 0)
(0.053784 -2.48004 0)
(0.053784 -2.59026 0)
(0.053784 -2.70049 0)
(0.053784 -2.81071 0)
(0.053784 -2.92094 0)
(0.053784 -3.03116 0)
(0.053784 -3.14138 0)
(0.053784 -3.25161 0)
(0.053784 -3.36183 0)
(0.053784 -3.47206 0)
(0.053784 -3.58228 0)
(0.053784 -3.6925 0)
(0.053784 -3.80273 0)
(0.053784 -3.91295 0)
(0.053784 -4.02318 0)
(0.053784 -4.1334 0)
(0.053784 -4.24362 0)
(0.053784 -4.35385 0)
(0.053784 -4.46407 0)
(0.053784 -4.5743 0)
(0.053784 -4.68452 0)
(0.053784 -4.79474 0)
(0.053784 -4.90497 0)
(0.053784 -5.01519 0)
(0.053784 -5.12542 0)
(0.053784 -5.23564 0)
(0.053784 -5.34586 0)
(0.053784 -5.45609 0)
(0.080344 -0.055112 0)
(0.080344 -0.165336 0)
(0.080344 -0.27556 0)
(0.080344 -0.385784 0)
(0.080344 -0.496008 0)
(0.080344 -0.606232 0)
(0.080344 -0.716456 0)
(0.080344 -0.82668 0)
(0.080344 -0.936904 0)
(0.080344 -1.04713 0)
(0.080344 -1.15735 0)
(0.080344 -1.26758 0)
(0.080344 -1.3778 0)
(0.080344 -1.48802 0)
(0.080344 -1.59825 0)
(0.080344 -1.70847 0)
(0.080344 -1.8187 0)
(0.080344 -1.92892 0)
(0.080344 -2.03914 0)
(0.080344 -2.14937 0)
(0.080344 -2.25959 0)
(0.080344 -2.36982 0)
(0.080344 -2.48004 0)
(0.080344 -2.59026 0)
(0.080344 -2.70049 0)
(0.080344 -2.81071 0)
(0.080344 -2.92094 0)
(0.080344 -3.03116 0)
(0.080344 -3.14138 0)
(0.080344 -3.25161 0)
(0.080344 -3.36183 0)
(0.080344 -3.47206 0)
(0.080344 -3.58228 0)
(0.080344 -3.6925 0)
(0.080344 -3.80273 0)
(0.080344 -3.91295 0)
(0.080344 -4.02318 0)
(0.080344 -4.1334 0)
(0.080344 -4.24362 0)
(0.080344 -4.35385 0)
(0.080344 -4.46407 0)
(0.080344 -4.5743 0)
(0.080344 -4.68452 0)
(0.080344 -4.79474 0)
(0.080344 -4.90497 0)
(0.080344 -5.01519 0)
(0.080344 -5.12542 0)
(0.080344 -5.23564 0)
(0.080344 -5.34586 0)
(0.080344 -5.45609 0)
(0.112216 -0.055112 0)
(0.112216 -0.165336 0)
(0.112216 -0.27556 0)
(0.112216 -0.385784 0)
(0.112216 -0.496008 0)
(0.112216 -0.606232 0)
(0.112216 -0.716456 0)
(0.112216 -0.82668 0)
(0.112216 -0.936904 0)
(0.112216 -1.04713 0)
(0.112216 -1.15735 0)
(0.112216 -1.26758 0)
(0.112216 -1.3778 0)
(0.112216 -1.48802 0)
(0.112216 -1.59825 0)
(0.112216 -1.70847 0)
(0.112216 -1.8187 0)
(0.112216 -1.92892 0)
(0.112216 -2.03914 0)
(0.112216 -2.14937 0)
(0.112216 -2.25959 0)
(0.112216 -2.36982 0)
(0.112216 -2.48004 0)
(0.112216 -2.59026 0)
(0.112216 -2.70049 0)
(0.112216 -2.81071 0)
(0.112216 -2.92094 0)
(0.112216 -3.03116 0)
(0.112216 -3.14138 0)
(0.112216 -3.25161 0)
(0.112216 -3.36183 0)
(0.112216 -3.47206 0)
(0.112216 -3.58228 0)
(0.112216 -3.6925 0)
(0.112216 -3.80273 0)
(0.112216 -3.91295 0)
(0.112216 -4.02318 0)
(0.112216 -4.1334 0)
(0.112216 -4.24362 0)
(0.112216 -4.35385 0)
(0.112216 -4.46407 0)
(0.112216 -4.5743 0)
(0.112216 -4.68452 0)
(0.112216 -4.79474 0)
(0.112216 -4.90497 0)
(0.112216 -5.01519 0)
(0.112216 -5.12542 0)
(0.112216 -5.23564 0)
(0.112216 -5.34586 0)
(0.112216 -5.45609 0)
(0.1494 -0.055112 0)
(0.1494 -0.165336 0)
(0.1494 -0.27556 0)
(0.1494 -0.385784 0)
(0.1494 -0.496008 0)
(0.1494 -0.606232 0)
(0.1494 -0.716456 0)
(0.1494 -0.82668 0)
(0.1494 -0.936904 0)
(0.1494 -1.04713 0)
(0.1494 -1.15735 0)
(0.1494 -1.26758 0)
(0.1494 -1.3778 0)
(0.1494 -1.48802 0)
(0.1494 -1.59825 0)
(0.1494 -1.70847 0)
(0.1494 -1.8187 0)
(0.1494 -1.92892 0)
(0.1494 -2.03914 0)
(0.1494 -2.14937 0)
(0.1494 -2.25959 0)
(0.1494 -2.36982 0)
(0.1494 -2.48004 0)
(0.1494 -2.59026 0)
(0.1494 -2.70049 0)
(0.1494 -2.81071 0)
(0.1494 -2.92094 0)
(0.1494 -3.03116 0)
(0.1494 -3.14138 0)
(0.1494 -3.25161 0)
(0.1494 -3.36183 0)
(0.1494 -3.47206 0)
(0.1494 -3.58228 0)
(0.1494 -3.6925 0)
(0.1494 -3.80273 0)
(0.1494 -3.91295 0)
(0.1494 -4.02318 0)
(0.1494 -4.1334 0)
(0.1494 -4.24362 0)
(0.1494 -4.35385 0)
(0.1494 -4.46407 0)
(0.1494 -4.5743 0)
(0.1494 -4.68452 0)
(0.1494 -4.79474 0)
(0.1494 -4.90497 0)
(0.1494 -5.01519 0)
(0.1494 -5.12542 0)
(0.1494 -5.23564 0)
(0.1494 -5.34586 0)
(0.1494 -5.45609 0)
(0.191896 -0.055112 0)
(0.191896 -0.165336 0)
(0.191896 -0.27556 0)
(0.191896 -0.385784 0)
(0.191896 -0.496008 0)
(0.191896 -0.606232 0)
(0.191896 -0.716456 0)
(0.191896 -0.82668 0)
(0.191896 -0.936904 0)
(0.191896 -1.04713 0)
(0.191896 -1.15735 0)
(0.191896 -1.26758 0)
(0.191896 -1.3778 0)
(0.191896 -1.48802 0)
(0.191896 -1.59825 0)
(0.191896 -1.70847 0)
(0.191896 -1.8187 0)
(0.191896 -1.92892 0)
(0.191896 -2.03914 0)
(0.191896 -2.14937 0)
(0.191896 -2.25959 0)
(0.191896 -2.36982 0)
(0.191896 -2.48004 0)
(0.191896 -2.59026 0)
(0.191896 -2.70049 0)
(0.191896 -2.81071 0)
(0.191896 -2.92094 0)
(0.191896 -3.03116 0)
(0.191896 -3.14138 0)
(0.191896 -3.25161 0)
(0.191896 -3.36183 0)
(0.191896 -3.47206 0)
(0.191896 -3.58228 0)
(0.191896 -3.6925 0)
(0.191896 -3.80273 0)
(0.191896 -3.91295 0)
(0.191896 -4.02318 0)
(0.191896 -4.1334 0)
(0.191896 -4.24362 0)
(0.191896 -4.35385 0)
(0.191896 -4.46407 0)
(0.191896 -4.5743 0)
(0.191896 -4.68452 0)
(0.191896 -4.79474 0)
(0.191896 -4.90497 0)
(0.191896 -5.01519 0)
(0.191896 -5.12542 0)
(0.191896 -5.23564 0)
(0.191896 -5.34586 0)
(0.191896 -5.45609 0)
(0.239704 -0.055112 0)
(0.239704 -0.165336 0)
(0.239704 -0.27556 0)
(0.239704 -0.385784 0)
(0.239704 -0.496008 0)
(0.239704 -0.606232 0)
(0.239704 -0.716456 0)
(0.239704 -0.82668 0)
(0.239704 -0.936904 0)
(0.239704 -1.04713 0)
(0.239704 -1.15735 0)
(0.239704 -1.26758 0)
(0.239704 -1.3778 0)
(0.239704 -1.48802 0)
(0.239704 -1.59825 0)
(0.239704 -1.70847 0)
(0.239704 -1.8187 0)
(0.239704 -1.92892 0)
(0.239704 -2.03914 0)
(0.239704 -2.14937 0)
(0.239704 -2.25959 0)
(0.239704 -2.36982 0)
(0.239704 -2.48004 0)
(0.239704 -2.59026 0)
(0.239704 -2.70049 0)
(0.239704 -2.81071 0)
(0.239704 -2.92094 0)
(0.239704 -3.03116 0)
(0.239704 -3.14138 0)
(0.239704 -3.25161 0)
(0.239704 -3.36183 0)
(0.239704 -3.47206 0)
(0.239704 -3.58228 0)
(0.239704 -3.6925 0)
(0.239704 -3.80273 0)
(0.239704 -3.91295 0)
(0.239704 -4.02318 0)
(0.239704 -4.1334 0)
(0.239704 -4.24362 0)
(0.239704 -4.35385 0)
(0.239704 -4.46407 0)
(0.239704 -4.5743 0)
(0.239704 -4.68452 0)
(0.239704 -4.79474 0)
(0.239704 -4.90497 0)
(0.239704 -5.01519 0)
(0.239704 -5.12542 0)
(0.239704 -5.23564 0)
(0.239704 -5.34586 0)
(0.239704 -5.45609 0)
(0.292824 -0.055112 0)
(0.292824 -0.165336 0)
(0.292824 -0.27556 0)
(0.292824 -0.385784 0)
(0.292824 -0.496008 0)
(0.292824 -0.606232 0)
(0.292824 -0.716456 0)
(0.292824 -0.82668 0)
(0.292824 -0.936904 0)
(0.292824 -1.04713 0)
(0.292824 -1.15735 0)
(0.292824 -1.26758 0)
(0.292824 -1.3778 0)
(0.292824 -1.48802 0)
(0.292824 -1.59825 0)
(0.292824 -1.70847 0)
(0.292824 -1.8187 0)
(0.292824 -1.92892 0)
(0.292824 -2.03914 0)
(0.292824 -2.14937 0)
(0.292824 -2.25959 0)
(0.292824 -2.36982 0)
(0.292824 -2.48004 0)
(0.292824 -2.59026 0)
(0.292824 -2.70049 0)
(0.292824 -2.81071 0)
(0.292824 -2.92094 0)
(0.292824 -3.03116 0)
(0.292824 -3.14138 0)
(0.292824 -3.25161 0)
(0.292824 -3.36183 0)
(0.292824 -3.47206 0)
(0.292824 -3.58228 0)
(0.292824 -3.6925 0)
(0.292824 -3.80273 0)
(0.292824 -3.91295 0)
(0.292824 -4.02318 0)
(0.292824 -4.1334 0)
(0.292824 -4.24362 0)
(0.292824 -4.35385 0)
(0.292824 -4.46407 0)
(0.292824 -4.5743 0)
(0.292824 -4.68452 0)
(0.292824 -4.79474 0)
(0.292824 -4.90497 0)
(0.292824 -5.01519 0)
(0.292824 -5.12542 0)
(0.292824 -5.23564 0)
(0.292824 -5.34586 0)
(0.292824 -5.45609 0)
(0.351256 -0.055112 0)
(0.351256 -0.165336 0)
(0.351256 -0.27556 0)
(0.351256 -0.385784 0)
(0.351256 -0.496008 0)
(0.351256 -0.606232 0)
(0.351256 -0.716456 0)
(0.351256 -0.82668 0)
(0.351256 -0.936904 0)
(0.351256 -1.04713 0)
(0.351256 -1.15735 0)
(0.351256 -1.26758 0)
(0.351256 -1.3778 0)
(0.351256 -1.48802 0)
(0.351256 -1.59825 0)
(0.351256 -1.70847 0)
(0.351256 -1.8187 0)
(0.351256 -1.92892 0)
(0.351256 -2.03914 0)
(0.351256 -2.14937 0)
(0.351256 -2.25959 0)
(0.351256 -2.36982 0)
(0.351256 -2.48004 0)
(0.351256 -2.59026 0)
(0.351256 -2.70049 0)
(0.351256 -2.81071 0)
(0.351256 -2.92094 0)
(0.351256 -3.03116 0)
(0.351256 -3.14138 0)
(0.351256 -3.25161 0)
(0.351256 -3.36183 0)
(0.351256 -3.47206 0)
(0.351256 -3.58228 0)
(0.351256 -3.6925 0)
(0.351256 -3.80273 0)
(0.351256 -3.91295 0)
(0.351256 -4.02318 0)
(0.351256 -4.1334 0)
(0.351256 -4.24362 0)
(0.351256 -4.35385 0)
(0.351256 -4.46407 0)
(0.351256 -4.5743 0)
(0.351256 -4.68452 0)
(0.351256 -4.79474 0)
(0.351256 -4.90497 0)
(0.351256 -5.01519 0)
(0.351256 -5.12542 0)
(0.351256 -5.23564 0)
(0.351256 -5.34586 0)
(0.351256 -5.45609 0)
(0.415 -0.055112 0)
(0.415 -0.165336 0)
(0.415 -0.27556 0)
(0.415 -0.385784 0)
(0.415 -0.496008 0)
(0.415 -0.606232 0)
(0.415 -0.716456 0)
(0.415 -0.82668 0)
(0.415 -0.936904 0)
(0.415 -1.04713 0)
(0.415 -1.15735 0)
(0.415 -1.26758 0)
(0.415 -1.3778 0)
(0.415 -1.48802 0)
(0.415 -1.59825 0)
(0.415 -1.70847 0)
(0.415 -1.8187 0)
(0.415 -1.92892 0)
(0.415 -2.03914 0)
(0.415 -2.14937 0)
(0.415 -2.25959 0)
(0.415 -2.36982 0)
(0.415 -2.48004 0)
(0.415 -2.59026 0)
(0.415 -2.70049 0)
(0.415 -2.81071 0)
(0.415 -2.92094 0)
(0.415 -3.03116 0)
(0.415 -3.14138 0)
(0.415 -3.25161 0)
(0.415 -3.36183 0)
(0.415 -3.47206 0)
(0.415 -3.58228 0)
(0.415 -3.6925 0)
(0.415 -3.80273 0)
(0.415 -3.91295 0)
(0.415 -4.02318 0)
(0.415 -4.1334 0)
(0.415 -4.24362 0)
(0.415 -4.35385 0)
(0.415 -4.46407 0)
(0.415 -4.5743 0)
(0.415 -4.68452 0)
(0.415 -4.79474 0)
(0.415 -4.90497 0)
(0.415 -5.01519 0)
(0.415 -5.12542 0)
(0.415 -5.23564 0)
(0.415 -5.34586 0)
(0.415 -5.45609 0)
(0.484056 -0.055112 0)
(0.484056 -0.165336 0)
(0.484056 -0.27556 0)
(0.484056 -0.385784 0)
(0.484056 -0.496008 0)
(0.484056 -0.606232 0)
(0.484056 -0.716456 0)
(0.484056 -0.82668 0)
(0.484056 -0.936904 0)
(0.484056 -1.04713 0)
(0.484056 -1.15735 0)
(0.484056 -1.26758 0)
(0.484056 -1.3778 0)
(0.484056 -1.48802 0)
(0.484056 -1.59825 0)
(0.484056 -1.70847 0)
(0.484056 -1.8187 0)
(0.484056 -1.92892 0)
(0.484056 -2.03914 0)
(0.484056 -2.14937 0)
(0.484056 -2.25959 0)
(0.484056 -2.36982 0)
(0.484056 -2.48004 0)
(0.484056 -2.59026 0)
(0.484056 -2.70049 0)
(0.484056 -2.81071 0)
(0.484056 -2.92094 0)
(0.484056 -3.03116 0)
(0.484056 -3.14138 0)
(0.484056 -3.25161 0)
(0.484056 -3.36183 0)
(0.484056 -3.47206 0)
(0.484056 -3.58228 0)
(0.484056 -3.6925 0)
(0.484056 -3.80273 0)
(0.484056 -3.91295 0)
(0.484056 -4.02318 0)
(0.484056 -4.1334 0)
(0.484056 -4.24362 0)
(0.484056 -4.35385 0)
(0.484056 -4.46407 0)
(0.484056 -4.5743 0)
(0.484056 -4.68452 0)
(0.484056 -4.79474 0)
(0.484056 -4.90497 0)
(0.484056 -5.01519 0)
(0.484056 -5.12542 0)
(0.484056 -5.23564 0)
(0.484056 -5.34586 0)
(0.484056 -5.45609 0)
(0.558424 -0.055112 0)
(0.558424 -0.165336 0)
(0.558424 -0.27556 0)
(0.558424 -0.385784 0)
(0.558424 -0.496008 0)
(0.558424 -0.606232 0)
(0.558424 -0.716456 0)
(0.558424 -0.82668 0)
(0.558424 -0.936904 0)
(0.558424 -1.04713 0)
(0.558424 -1.15735 0)
(0.558424 -1.26758 0)
(0.558424 -1.3778 0)
(0.558424 -1.48802 0)
(0.558424 -1.59825 0)
(0.558424 -1.70847 0)
(0.558424 -1.8187 0)
(0.558424 -1.92892 0)
(0.558424 -2.03914 0)
(0.558424 -2.14937 0)
(0.558424 -2.25959 0)
(0.558424 -2.36982 0)
(0.558424 -2.48004 0)
(0.558424 -2.59026 0)
(0.558424 -2.70049 0)
(0.558424 -2.81071 0)
(0.558424 -2.92094 0)
(0.558424 -3.03116 0)
(0.558424 -3.14138 0)
(0.558424 -3.25161 0)
(0.558424 -3.36183 0)
(0.558424 -3.47206 0)
(0.558424 -3.58228 0)
(0.558424 -3.6925 0)
(0.558424 -3.80273 0)
(0.558424 -3.91295 0)
(0.558424 -4.02318 0)
(0.558424 -4.1334 0)
(0.558424 -4.24362 0)
(0.558424 -4.35385 0)
(0.558424 -4.46407 0)
(0.558424 -4.5743 0)
(0.558424 -4.68452 0)
(0.558424 -4.79474 0)
(0.558424 -4.90497 0)
(0.558424 -5.01519 0)
(0.558424 -5.12542 0)
(0.558424 -5.23564 0)
(0.558424 -5.34586 0)
(0.558424 -5.45609 0)
(0.638104 -0.055112 0)
(0.638104 -0.165336 0)
(0.638104 -0.27556 0)
(0.638104 -0.385784 0)
(0.638104 -0.496008 0)
(0.638104 -0.606232 0)
(0.638104 -0.716456 0)
(0.638104 -0.82668 0)
(0.638104 -0.936904 0)
(0.638104 -1.04713 0)
(0.638104 -1.15735 0)
(0.638104 -1.26758 0)
(0.638104 -1.3778 0)
(0.638104 -1.48802 0)
(0.638104 -1.59825 0)
(0.638104 -1.70847 0)
(0.638104 -1.8187 0)
(0.638104 -1.92892 0)
(0.638104 -2.03914 0)
(0.638104 -2.14937 0)
(0.638104 -2.25959 0)
(0.638104 -2.36982 0)
(0.638104 -2.48004 0)
(0.638104 -2.59026 0)
(0.638104 -2.70049 0)
(0.638104 -2.81071 0)
(0.638104 -2.92094 0)
(0.638104 -3.03116 0)
(0.638104 -3.14138 0)
(0.638104 -3.25161 0)
(0.638104 -3.36183 0)
(0.638104 -3.47206 0)
(0.638104 -3.58228 0)
(0.638104 -3.6925 0)
(0.638104 -3.80273 0)
(0.638104 -3.91295 0)
(0.638104 -4.02318 0)
(0.638104 -4.1334 0)
(0.638104 -4.24362 0)
(0.638104 -4.35385 0)
(0.638104 -4.46407 0)
(0.638104 -4.5743 0)
(0.638104 -4.68452 0)
(0.638104 -4.79474 0)
(0.638104 -4.90497 0)
(0.638104 -5.01519 0)
(0.638104 -5.12542 0)
(0.638104 -5.23564 0)
(0.638104 -5.34586 0)
(0.638104 -5.45609 0)
(0.723096 -0.055112 0)
(0.723096 -0.165336 0)
(0.723096 -0.27556 0)
(0.723096 -0.385784 0)
(0.723096 -0.496008 0)
(0.723096 -0.606232 0)
(0.723096 -0.716456 0)
(0.723096 -0.82668 0)
(0.723096 -0.936904 0)
(0.723096 -1.04713 0)
(0.723096 -1.15735 0)
(0.723096 -1.26758 0)
(0.723096 -1.3778 0)
(0.723096 -1.48802 0)
(0.723096 -1.59825 0)
(0.723096 -1.70847 0)
(0.723096 -1.8187 0)
(0.723096 -1.92892 0)
(0.723096 -2.03914 0)
(0.723096 -2.14937 0)
(0.723096 -2.25959 0)
(0.723096 -2.36982 0)
(0.723096 -2.48004 0)
(0.723096 -2.59026 0)
(0.723096 -2.70049 0)
(0.723096 -2.81071 0)
(0.723096 -2.92094 0)
(0.723096 -3.03116 0)
(0.723096 -3.14138 0)
(0.723096 -3.25161 0)
(0.723096 -3.36183 0)
(0.723096 -3.47206 0)
(0.723096 -3.58228 0)
(0.723096 -3.6925 0)
(0.723096 -3.80273 0)
(0.723096 -3.91295 0)
(0.723096 -4.02318 0)
(0.723096 -4.1334 0)
(0.723096 -4.24362 0)
(0.723096 -4.35385 0)
(0.723096 -4.46407 0)
(0.723096 -4.5743 0)
(0.723096 -4.68452 0)
(0.723096 -4.79474 0)
(0.723096 -4.90497 0)
(0.723096 -5.01519 0)
(0.723096 -5.12542 0)
(0.723096 -5.23564 0)
(0.723096 -5.34586 0)
(0.723096 -5.45609 0)
(0.8134 -0.055112 0)
(0.8134 -0.165336 0)
(0.8134 -0.27556 0)
(0.8134 -0.385784 0)
(0.8134 -0.496008 0)
(0.8134 -0.606232 0)
(0.8134 -0.716456 0)
(0.8134 -0.82668 0)
(0.8134 -0.936904 0)
(0.8134 -1.04713 0)
(0.8134 -1.15735 0)
(0.8134 -1.26758 0)
(0.8134 -1.3778 0)
(0.8134 -1.48802 0)
(0.8134 -1.59825 0)
(0.8134 -1.70847 0)
(0.8134 -1.8187 0)
(0.8134 -1.92892 0)
(0.8134 -2.03914 0)
(0.8134 -2.14937 0)
(0.8134 -2.25959 0)
(0.8134 -2.36982 0)
(0.8134 -2.48004 0)
(0.8134 -2.59026 0)
(0.8134 -2.70049 0)
(0.8134 -2.81071 0)
(0.8134 -2.92094 0)
(0.8134 -3.03116 0)
(0.8134 -3.14138 0)
(0.8134 -3.25161 0)
(0.8134 -3.36183 0)
(0.8134 -3.47206 0)
(0.8134 -3.58228 0)
(0.8134 -3.6925 0)
(0.8134 -3.80273 0)
(0.8134 -3.91295 0)
(0.8134 -4.02318 0)
(0.8134 -4.1334 0)
(0.8134 -4.24362 0)
(0.8134 -4.35385 0)
(0.8134 -4.46407 0)
(0.8134 -4.5743 0)
(0.8134 -4.68452 0)
(0.8134 -4.79474 0)
(0.8134 -4.90497 0)
(0.8134 -5.01519 0)
(0.8134 -5.12542 0)
(0.8134 -5.23564 0)
(0.8134 -5.34586 0)
(0.8134 -5.45609 0)
(0.909016 -0.055112 0)
(0.909016 -0.165336 0)
(0.909016 -0.27556 0)
(0.909016 -0.385784 0)
(0.909016 -0.496008 0)
(0.909016 -0.606232 0)
(0.909016 -0.716456 0)
(0.909016 -0.82668 0)
(0.909016 -0.936904 0)
(0.909016 -1.04713 0)
(0.909016 -1.15735 0)
(0.909016 -1.26758 0)
(0.909016 -1.3778 0)
(0.909016 -1.48802 0)
(0.909016 -1.59825 0)
(0.909016 -1.70847 0)
(0.909016 -1.8187 0)
(0.909016 -1.92892 0)
(0.909016 -2.03914 0)
(0.909016 -2.14937 0)
(0.909016 -2.25959 0)
(0.909016 -2.36982 0)
(0.909016 -2.48004 0)
(0.909016 -2.59026 0)
(0.909016 -2.70049 0)
(0.909016 -2.81071 0)
(0.909016 -2.92094 0)
(0.909016 -3.03116 0)
(0.909016 -3.14138 0)
(0.909016 -3.25161 0)
(0.909016 -3.36183 0)
(0.909016 -3.47206 0)
(0.909016 -3.58228 0)
(0.909016 -3.6925 0)
(0.909016 -3.80273 0)
(0.909016 -3.91295 0)
(0.909016 -4.02318 0)
(0.909016 -4.1334 0)
(0.909016 -4.24362 0)
(0.909016 -4.35385 0)
(0.909016 -4.46407 0)
(0.909016 -4.5743 0)
(0.909016 -4.68452 0)
(0.909016 -4.79474 0)
(0.909016 -4.90497 0)
(0.909016 -5.01519 0)
(0.909016 -5.12542 0)
(0.909016 -5.23564 0)
(0.909016 -5.34586 0)
(0.909016 -5.45609 0)
(1.00994 -0.055112 0)
(1.00994 -0.165336 0)
(1.00994 -0.27556 0)
(1.00994 -0.385784 0)
(1.00994 -0.496008 0)
(1.00994 -0.606232 0)
(1.00994 -0.716456 0)
(1.00994 -0.82668 0)
(1.00994 -0.936904 0)
(1.00994 -1.04713 0)
(1.00994 -1.15735 0)
(1.00994 -1.26758 0)
(1.00994 -1.3778 0)
(1.00994 -1.48802 0)
(1.00994 -1.59825 0)
(1.00994 -1.70847 0)
(1.00994 -1.8187 0)
(1.00994 -1.92892 0)
(1.00994 -2.03914 0)
(1.00994 -2.14937 0)
(1.00994 -2.25959 0)
(1.00994 -2.36982 0)
(1.00994 -2.48004 0)
(1.00994 -2.59026 0)
(1.00994 -2.70049 0)
(1.00994 -2.81071 0)
(1.00994 -2.92094 0)
(1.00994 -3.03116 0)
(1.00994 -3.14138 0)
(1.00994 -3.25161 0)
(1.00994 -3.36183 0)
(1.00994 -3.47206 0)
(1.00994 -3.58228 0)
(1.00994 -3.6925 0)
(1.00994 -3.80273 0)
(1.00994 -3.91295 0)
(1.00994 -4.02318 0)
(1.00994 -4.1334 0)
(1.00994 -4.24362 0)
(1.00994 -4.35385 0)
(1.00994 -4.46407 0)
(1.00994 -4.5743 0)
(1.00994 -4.68452 0)
(1.00994 -4.79474 0)
(1.00994 -4.90497 0)
(1.00994 -5.01519 0)
(1.00994 -5.12542 0)
(1.00994 -5.23564 0)
(1.00994 -5.34586 0)
(1.00994 -5.45609 0)
(1.11618 -0.055112 0)
(1.11618 -0.165336 0)
(1.11618 -0.27556 0)
(1.11618 -0.385784 0)
(1.11618 -0.496008 0)
(1.11618 -0.606232 0)
(1.11618 -0.716456 0)
(1.11618 -0.82668 0)
(1.11618 -0.936904 0)
(1.11618 -1.04713 0)
(1.11618 -1.15735 0)
(1.11618 -1.26758 0)
(1.11618 -1.3778 0)
(1.11618 -1.48802 0)
(1.11618 -1.59825 0)
(1.11618 -1.70847 0)
(1.11618 -1.8187 0)
(1.11618 -1.92892 0)
(1.11618 -2.03914 0)
(1.11618 -2.14937 0)
(1.11618 -2.25959 0)
(1.11618 -2.36982 0)
(1.11618 -2.48004 0)
(1.11618 -2.59026 0)
(1.11618 -2.70049 0)
(1.11618 -2.81071 0)
(1.11618 -2.92094 0)
(1.11618 -3.03116 0)
(1.11618 -3.14138 0)
(1.11618 -3.25161 0)
(1.11618 -3.36183 0)
(1.11618 -3.47206 0)
(1.11618 -3.58228 0)
(1.11618 -3.6925 0)
(1.11618 -3.80273 0)
(1.11618 -3.91295 0)
(1.11618 -4.02318 0)
(1.11618 -4.1334 0)
(1.11618 -4.24362 0)
(1.11618 -4.35385 0)
(1.11618 -4.46407 0)
(1.11618 -4.5743 0)
(1.11618 -4.68452 0)
(1.11618 -4.79474 0)
(1.11618 -4.90497 0)
(1.11618 -5.01519 0)
(1.11618 -5.12542 0)
(1.11618 -5.23564 0)
(1.11618 -5.34586 0)
(1.11618 -5.45609 0)
(1.22774 -0.055112 0)
(1.22774 -0.165336 0)
(1.22774 -0.27556 0)
(1.22774 -0.385784 0)
(1.22774 -0.496008 0)
(1.22774 -0.606232 0)
(1.22774 -0.716456 0)
(1.22774 -0.82668 0)
(1.22774 -0.936904 0)
(1.22774 -1.04713 0)
(1.22774 -1.15735 0)
(1.22774 -1.26758 0)
(1.22774 -1.3778 0)
(1.22774 -1.48802 0)
(1.22774 -1.59825 0)
(1.22774 -1.70847 0)
(1.22774 -1.8187 0)
(1.22774 -1.92892 0)
(1.22774 -2.03914 0)
(1.22774 -2.14937 0)
(1.22774 -2.25959 0)
(1.22774 -2.36982 0)
(1.22774 -2.48004 0)
(1.22774 -2.59026 0)
(1.22774 -2.70049 0)
(1.22774 -2.81071 0)
(1.22774 -2.92094 0)
(1.22774 -3.03116 0)
(1.22774 -3.14138 0)
(1.22774 -3.25161 0)
(1.22774 -3.36183 0)
(1.22774 -3.47206 0)
(1.22774 -3.58228 0)
(1.22774 -3.6925 0)
(1.22774 -3.80273 0)
(1.22774 -3.91295 0)
(1.22774 -4.02318 0)
(1.22774 -4.1334 0)
(1.22774 -4.24362 0)
(1.22774 -4.35385 0)
(1.22774 -4.46407 0)
(1.22774 -4.5743 0)
(1.22774 -4.68452 0)
(1.22774 -4.79474 0)
(1.22774 -4.90497 0)
(1.22774 -5.01519 0)
(1.22774 -5.12542 0)
(1.22774 -5.23564 0)
(1.22774 -5.34586 0)
(1.22774 -5.45609 0)
(1.3446 -0.055112 0)
(1.3446 -0.165336 0)
(1.3446 -0.27556 0)
(1.3446 -0.385784 0)
(1.3446 -0.496008 0)
(1.3446 -0.606232 0)
(1.3446 -0.716456 0)
(1.3446 -0.82668 0)
(1.3446 -0.936904 0)
(1.3446 -1.04713 0)
(1.3446 -1.15735 0)
(1.3446 -1.26758 0)
(1.3446 -1.3778 0)
(1.3446 -1.48802 0)
(1.3446 -1.59825 0)
(1.3446 -1.70847 0)
(1.3446 -1.8187 0)
(1.3446 -1.92892 0)
(1.3446 -2.03914 0)
(1.3446 -2.14937 0)
(1.3446 -2.25959 0)
(1.3446 -2.36982 0)
(1.3446 -2.48004 0)
(1.3446 -2.59026 0)
(1.3446 -2.70049 0)
(1.3446 -2.81071 0)
(1.3446 -2.92094 0)
(1.3446 -3.03116 0)
(1.3446 -3.14138 0)
(1.3446 -3.25161 0)
(1.3446 -3.36183 0)
(1.3446 -3.47206 0)
(1.3446 -3.58228 0)
(1.3446 -3.6925 0)
(1.3446 -3.80273 0)
(1.3446 -3.91295 0)
(1.3446 -4.02318 0)
(1.3446 -4.1334 0)
(1.3446 -4.24362 0)
(1.3446 -4.35385 0)
(1.3446 -4.46407 0)
(1.3446 -4.5743 0)
(1.3446 -4.68452 0)
(1.3446 -4.79474 0)
(1.3446 -4.90497 0)
(1.3446 -5.01519 0)
(1.3446 -5.12542 0)
(1.3446 -5.23564 0)
(1.3446 -5.34586 0)
(1.3446 -5.45609 0)
(1.46678 -0.055112 0)
(1.46678 -0.165336 0)
(1.46678 -0.27556 0)
(1.46678 -0.385784 0)
(1.46678 -0.496008 0)
(1.46678 -0.606232 0)
(1.46678 -0.716456 0)
(1.46678 -0.82668 0)
(1.46678 -0.936904 0)
(1.46678 -1.04713 0)
(1.46678 -1.15735 0)
(1.46678 -1.26758 0)
(1.46678 -1.3778 0)
(1.46678 -1.48802 0)
(1.46678 -1.59825 0)
(1.46678 -1.70847 0)
(1.46678 -1.8187 0)
(1.46678 -1.92892 0)
(1.46678 -2.03914 0)
(1.46678 -2.14937 0)
(1.46678 -2.25959 0)
(1.46678 -2.36982 0)
(1.46678 -2.48004 0)
(1.46678 -2.59026 0)
(1.46678 -2.70049 0)
(1.46678 -2.81071 0)
(1.46678 -2.92094 0)
(1.46678 -3.03116 0)
(1.46678 -3.14138 0)
(1.46678 -3.25161 0)
(1.46678 -3.36183 0)
(1.46678 -3.47206 0)
(1.46678 -3.58228 0)
(1.46678 -3.6925 0)
(1.46678 -3.80273 0)
(1.46678 -3.91295 0)
(1.46678 -4.02318 0)
(1.46678 -4.1334 0)
(1.46678 -4.24362 0)
(1.46678 -4.35385 0)
(1.46678 -4.46407 0)
(1.46678 -4.5743 0)
(1.46678 -4.68452 0)
(1.46678 -4.79474 0)
(1.46678 -4.90497 0)
(1.46678 -5.01519 0)
(1.46678 -5.12542 0)
(1.46678 -5.23564 0)
(1.46678 -5.34586 0)
(1.46678 -5.45609 0)
(1.59426 -0.055112 0)
(1.59426 -0.165336 0)
(1.59426 -0.27556 0)
(1.59426 -0.385784 0)
(1.59426 -0.496008 0)
(1.59426 -0.606232 0)
(1.59426 -0.716456 0)
(1.59426 -0.82668 0)
(1.59426 -0.936904 0)
(1.59426 -1.04713 0)
(1.59426 -1.15735 0)
(1.59426 -1.26758 0)
(1.59426 -1.3778 0)
(1.59426 -1.48802 0)
(1.59426 -1.59825 0)
(1.59426 -1.70847 0)
(1.59426 -1.8187 0)
(1.59426 -1.92892 0)
(1.59426 -2.03914 0)
(1.59426 -2.14937 0)
(1.59426 -2.25959 0)
(1.59426 -2.36982 0)
(1.59426 -2.48004 0)
(1.59426 -2.59026 0)
(1.59426 -2.70049 0)
(1.59426 -2.81071 0)
(1.59426 -2.92094 0)
(1.59426 -3.03116 0)
(1.59426 -3.14138 0)
(1.59426 -3.25161 0)
(1.59426 -3.36183 0)
(1.59426 -3.47206 0)
(1.59426 -3.58228 0)
(1.59426 -3.6925 0)
(1.59426 -3.80273 0)
(1.59426 -3.91295 0)
(1.59426 -4.02318 0)
(1.59426 -4.1334 0)
(1.59426 -4.24362 0)
(1.59426 -4.35385 0)
(1.59426 -4.46407 0)
(1.59426 -4.5743 0)
(1.59426 -4.68452 0)
(1.59426 -4.79474 0)
(1.59426 -4.90497 0)
(1.59426 -5.01519 0)
(1.59426 -5.12542 0)
(1.59426 -5.23564 0)
(1.59426 -5.34586 0)
(1.59426 -5.45609 0)
(1.72706 -0.055112 0)
(1.72706 -0.165336 0)
(1.72706 -0.27556 0)
(1.72706 -0.385784 0)
(1.72706 -0.496008 0)
(1.72706 -0.606232 0)
(1.72706 -0.716456 0)
(1.72706 -0.82668 0)
(1.72706 -0.936904 0)
(1.72706 -1.04713 0)
(1.72706 -1.15735 0)
(1.72706 -1.26758 0)
(1.72706 -1.3778 0)
(1.72706 -1.48802 0)
(1.72706 -1.59825 0)
(1.72706 -1.70847 0)
(1.72706 -1.8187 0)
(1.72706 -1.92892 0)
(1.72706 -2.03914 0)
(1.72706 -2.14937 0)
(1.72706 -2.25959 0)
(1.72706 -2.36982 0)
(1.72706 -2.48004 0)
(1.72706 -2.59026 0)
(1.72706 -2.70049 0)
(1.72706 -2.81071 0)
(1.72706 -2.92094 0)
(1.72706 -3.03116 0)
(1.72706 -3.14138 0)
(1.72706 -3.25161 0)
(1.72706 -3.36183 0)
(1.72706 -3.47206 0)
(1.72706 -3.58228 0)
(1.72706 -3.6925 0)
(1.72706 -3.80273 0)
(1.72706 -3.91295 0)
(1.72706 -4.02318 0)
(1.72706 -4.1334 0)
(1.72706 -4.24362 0)
(1.72706 -4.35385 0)
(1.72706 -4.46407 0)
(1.72706 -4.5743 0)
(1.72706 -4.68452 0)
(1.72706 -4.79474 0)
(1.72706 -4.90497 0)
(1.72706 -5.01519 0)
(1.72706 -5.12542 0)
(1.72706 -5.23564 0)
(1.72706 -5.34586 0)
(1.72706 -5.45609 0)
(1.86518 -0.055112 0)
(1.86518 -0.165336 0)
(1.86518 -0.27556 0)
(1.86518 -0.385784 0)
(1.86518 -0.496008 0)
(1.86518 -0.606232 0)
(1.86518 -0.716456 0)
(1.86518 -0.82668 0)
(1.86518 -0.936904 0)
(1.86518 -1.04713 0)
(1.86518 -1.15735 0)
(1.86518 -1.26758 0)
(1.86518 -1.3778 0)
(1.86518 -1.48802 0)
(1.86518 -1.59825 0)
(1.86518 -1.70847 0)
(1.86518 -1.8187 0)
(1.86518 -1.92892 0)
(1.86518 -2.03914 0)
(1.86518 -2.14937 0)
(1.86518 -2.25959 0)
(1.86518 -2.36982 0)
(1.86518 -2.48004 0)
(1.86518 -2.59026 0)
(1.86518 -2.70049 0)
(1.86518 -2.81071 0)
(1.86518 -2.92094 0)
(1.86518 -3.03116 0)
(1.86518 -3.14138 0)
(1.86518 -3.25161 0)
(1.86518 -3.36183 0)
(1.86518 -3.47206 0)
(1.86518 -3.58228 0)
(1.86518 -3.6925 0)
(1.86518 -3.80273 0)
(1.86518 -3.91295 0)
(1.86518 -4.02318 0)
(1.86518 -4.1334 0)
(1.86518 -4.24362 0)
(1.86518 -4.35385 0)
(1.86518 -4.46407 0)
(1.86518 -4.5743 0)
(1.86518 -4.68452 0)
(1.86518 -4.79474 0)
(1.86518 -4.90497 0)
(1.86518 -5.01519 0)
(1.86518 -5.12542 0)
(1.86518 -5.23564 0)
(1.86518 -5.34586 0)
(1.86518 -5.45609 0)
(2.0086 -0.055112 0)
(2.0086 -0.165336 0)
(2.0086 -0.27556 0)
(2.0086 -0.385784 0)
(2.0086 -0.496008 0)
(2.0086 -0.606232 0)
(2.0086 -0.716456 0)
(2.0086 -0.82668 0)
(2.0086 -0.936904 0)
(2.0086 -1.04713 0)
(2.0086 -1.15735 0)
(2.0086 -1.26758 0)
(2.0086 -1.3778 0)
(2.0086 -1.48802 0)