/*--------------------------------*- C++ -*----------------------------------*\
| =========                 |                                                 |
| \\      /  F ield         | OpenFOAM: The Open Source CFD Toolbox           |
|  \\    /   O peration     | Version:  v2006                                 |
|   \\  /    A nd           | Website:  www.openfoam.com                      |
|    \\/     M anipulation  |                                                 |
\*---------------------------------------------------------------------------*/
FoamFile
{
    version     2.0;
    format      ascii;
    class       volScalarField;
    location    "0";
    object      f;
}
// * * * * * * * * * * * * * * * * * * * * * * * * * * * * * * * * * * * * * //

dimensions      [0 0 0 0 0 0 0];


internalField   nonuniform List<scalar> 
2500
(
-1.18114e-52
3.07276e-42
-2.19851e-36
1.48768e-32
-2.41509e-30
-1.98324e-27
1.3309e-25
-2.02365e-24
-1.32652e-23
1.99315e-22
3.66601e-21
-1.63175e-21
-1.23927e-19
-5.12867e-19
-5.88004e-19
7.08702e-21
-6.4567e-19
-3.02841e-18
1.30085e-17
-1.03361e-16
-3.78582e-17
-3.92096e-17
1.12489e-16
2.53169e-16
4.86033e-16
8.06409e-16
-2.03845e-16
-8.48346e-16
4.99334e-16
1.51534e-15
2.27875e-16
-1.87648e-15
-1.50426e-15
1.51201e-15
9.19516e-16
-6.08189e-16
-2.56924e-16
5.31815e-17
4.8968e-17
1.54795e-17
3.32572e-18
7.07021e-19
2.85461e-19
1.70918e-19
9.27936e-20
4.22611e-20
1.64068e-20
5.48889e-21
1.56228e-21
1.1556e-22
-1.38492e-50
1.06403e-40
-4.01874e-35
1.73643e-31
-2.37615e-29
-1.44677e-26
7.57285e-25
-7.82462e-24
-6.10396e-23
2.63647e-22
1.27556e-20
4.41256e-21
-3.15072e-19
-1.23614e-18
-1.24567e-18
1.08666e-18
2.21781e-18
1.22513e-18
3.03371e-17
-1.79296e-16
-7.64008e-17
-1.50233e-16
3.3646e-17
1.03585e-16
3.31418e-16
1.29689e-15
-5.35478e-17
-1.13903e-15
-1.9729e-16
1.11685e-15
1.1463e-15
-9.56003e-16
-2.17107e-15
9.00512e-16
1.12406e-15
-5.35325e-16
-2.68582e-16
5.64163e-17
4.51871e-17
1.06049e-17
7.91403e-19
-2.85084e-19
-7.22194e-20
4.00271e-20
4.33988e-20
2.37305e-20
9.80152e-21
3.33139e-21
9.39126e-22
8.79141e-23
-1.30919e-48
2.96526e-39
-5.92792e-34
1.74715e-30
-2.22398e-28
-9.14813e-26
3.81014e-24
-2.34466e-23
-2.76792e-22
-1.26611e-21
4.39964e-20
5.69143e-20
-7.99999e-19
-3.29969e-18
-3.68012e-18
3.5513e-18
1.06703e-17
1.75404e-17
7.3607e-17
-3.53709e-16
-1.80997e-16
-4.29436e-16
-1.57805e-17
1.68696e-17
3.51311e-16
3.94603e-15
1.13694e-16
-7.48216e-15
-1.08387e-15
6.45493e-15
2.98554e-15
-1.13686e-15
-5.6145e-15
9.99339e-16
2.36092e-15
-8.43707e-16
-4.82667e-16
1.01566e-16
7.54562e-17
1.43669e-17
-4.52523e-19
-1.09849e-18
-3.13029e-19
5.08967e-21
5.06092e-20
3.1511e-20
1.3453e-20
4.60738e-21
1.2946e-21
1.33094e-22
-1.18375e-46
7.89769e-38
-8.49109e-33
1.8458e-29
-2.14189e-27
-5.69791e-25
1.8654e-23
-3.52399e-23
-1.19271e-21
-1.49524e-20
1.42946e-19
3.43314e-19
-1.77197e-18
-8.4859e-18
-1.23001e-17
7.21291e-18
3.15452e-17
7.77638e-17
1.6195e-16
-5.91378e-16
-9.40995e-16
-2.09787e-15
-1.00029e-16
-1.08616e-16
5.71215e-15
1.55986e-14
4.50147e-16
-4.87207e-14
-3.39153e-15
5.39207e-14
7.21526e-15
-3.51002e-14
-1.60049e-14
2.87089e-15
6.02421e-15
-1.2876e-15
-8.70318e-16
1.8382e-16
1.26138e-16
1.83728e-17
-3.40629e-18
-2.6446e-18
-7.42576e-19
-5.89913e-20
5.90805e-20
4.23045e-20
1.85176e-20
6.35297e-21
1.77259e-21
1.96642e-22
-1.02442e-44
2.0133e-36
-1.2093e-31
2.07114e-28
-1.98242e-26
-3.55446e-24
8.69305e-23
2.41878e-22
-4.44544e-21
-1.00297e-19
4.18106e-19
1.5824e-18
-2.87271e-18
-2.00917e-17
-4.24052e-17
5.51154e-18
6.97351e-17
2.84891e-16
3.17748e-16
-7.30174e-16
-1.32599e-14
-1.68417e-14
6.4566e-15
1.17987e-13
3.28023e-13
4.78008e-14
-5.95831e-13
-1.86671e-13
-5.86422e-15
2.18962e-13
1.14731e-14
-2.6005e-13
-3.69615e-14
4.9106e-14
1.80592e-14
-1.97818e-15
-1.61768e-15
3.34958e-16
2.11473e-16
2.12568e-17
-9.53024e-18
-5.37357e-18
-1.44322e-18
-1.56636e-19
7.2615e-20
5.81862e-20
2.57055e-20
8.76096e-21
2.41594e-21
2.85048e-22
-8.4735e-43
4.92733e-35
-1.7719e-30
2.44019e-27
-1.6666e-25
-2.25169e-23
3.59809e-22
3.11132e-21
-1.16867e-20
-5.52244e-19
1.01668e-18
6.03471e-18
-5.95462e-20
-4.11821e-17
-1.41519e-16
-3.20894e-17
1.1398e-16
1.18534e-15
5.03862e-16
-6.02522e-16
-6.3972e-14
-6.98124e-14
1.3303e-12
2.86294e-12
1.60322e-12
7.32558e-15
-4.77788e-12
-4.4805e-13
2.49632e-12
5.77311e-13
-1.08807e-12
-9.53748e-13
-5.16464e-14
2.36054e-13
4.50423e-14
-4.52209e-15
-3.2999e-15
6.1806e-16
3.56233e-16
1.96997e-17
-2.12893e-17
-9.91986e-18
-2.49973e-18
-2.80938e-19
1.00231e-19
8.28601e-20
3.61398e-20
1.21135e-20
3.28418e-21
4.07147e-22
-6.67752e-41
1.16834e-33
-2.77268e-29
2.93109e-26
-1.18343e-24
-1.44968e-22
1.03948e-21
2.23795e-20
3.82349e-21
-2.67828e-18
1.57815e-18
1.90783e-17
2.70894e-17
-6.43149e-17
-4.58167e-16
-2.17412e-16
2.8228e-15
6.10212e-15
-2.55442e-14
-1.32576e-13
-1.31588e-13
-1.34097e-13
6.80145e-12
1.15126e-11
4.54643e-12
-5.52858e-11
-1.67815e-11
2.18548e-13
1.66449e-11
9.14928e-13
-8.45701e-12
-2.52386e-12
3.71458e-13
7.75674e-13
8.00243e-14
-2.27379e-14
-7.8454e-15
1.1768e-15
6.04929e-16
6.39923e-18
-4.27327e-17
-1.71138e-17
-3.96794e-18
-4.00463e-19
1.59939e-19
1.22538e-19
5.15321e-20
1.68126e-20
4.4587e-21
5.74955e-22
-4.98708e-39
2.74925e-32
-4.72506e-28
3.46749e-25
-5.77734e-24
-9.28366e-22
-1.54107e-21
1.24269e-19
3.36615e-19
-1.15966e-17
-1.90302e-18
4.74807e-17
1.67035e-16
-3.65557e-17
-2.93393e-15
-8.30926e-16
4.82205e-14
1.76328e-14
-8.22627e-13
-9.59299e-13
3.68348e-12
3.32338e-11
1.67343e-11
2.12623e-11
7.483e-12
-3.0719e-10
-3.00731e-11
2.35206e-10
5.79541e-11
-1.83623e-11
-2.93634e-11
-4.7124e-12
4.1086e-12
2.00104e-12
8.65748e-14
-1.00005e-13
-1.835e-14
2.3591e-15
1.04073e-15
-3.38302e-17
-8.03485e-17
-2.7925e-17
-5.81284e-18
-4.38971e-19
2.83709e-19
1.86948e-19
7.43557e-20
2.34067e-20
6.04691e-21
8.04568e-22
-3.50244e-37
6.75567e-31
-8.64214e-27
3.91034e-24
6.83387e-24
-5.62977e-21
-6.02028e-20
5.57559e-19
3.08924e-18
-4.42504e-17
-3.09259e-17
8.00233e-17
1.29945e-15
2.04301e-16
-2.45964e-14
3.41074e-13
1.55053e-13
-3.98185e-12
-3.65136e-12
-3.00307e-12
2.05098e-10
1.9558e-10
2.43068e-11
-5.10283e-10
-3.30105e-09
-9.17312e-10
8.71102e-10
1.29154e-09
1.29747e-10
-1.39178e-10
-7.49384e-11
-5.76015e-12
1.65094e-11
3.99585e-12
-3.95825e-13
-3.41343e-13
-3.38502e-14
4.87995e-15
1.82789e-15
-1.31358e-16
-1.44291e-16
-4.32533e-17
-7.80178e-18
-2.47751e-19
5.2305e-19
2.90225e-19
1.07951e-19
3.25978e-20
8.18315e-21
1.11688e-21
-2.28873e-35
1.86626e-29
-1.63226e-25
4.06364e-23
6.54446e-22
-2.93582e-20
-6.58387e-19
1.96277e-18
2.08327e-17
-1.44907e-16
-1.91703e-16
6.0559e-17
1.2502e-14
-2.2136e-13
-8.31563e-14
3.79152e-12
-2.06551e-12
-2.94724e-11
-8.79128e-12
4.17209e-10
8.88079e-10
4.16934e-10
-1.30048e-08
-2.94991e-08
-1.96406e-08
-1.55344e-09
2.08194e-08
4.24979e-09
1.54134e-10
-5.06634e-10
-1.41875e-10
4.46735e-11
5.33171e-11
5.70139e-12
-2.18051e-12
-9.39946e-13
-4.6313e-14
1.09769e-14
3.32575e-15
-3.46235e-16
-2.50151e-16
-6.34146e-17
-9.3411e-18
4.26732e-19
9.5364e-19
4.51222e-19
1.56457e-19
4.521e-20
1.1023e-20
1.5378e-21
-1.37643e-33
6.06165e-28
-3.05728e-24
3.69689e-22
1.07878e-20
-9.66014e-20
-5.36925e-18
4.70974e-18
1.25072e-16
-8.04877e-16
-9.89762e-16
4.76536e-14
4.01905e-14
-1.60494e-12
1.76392e-11
1.07042e-11
-3.0899e-10
-8.04276e-11
3.28234e-09
2.56428e-09
1.56939e-09
-2.01736e-08
-1.06037e-07
-1.34436e-07
-5.89276e-08
1.01026e-07
9.14648e-08
8.75173e-09
-3.94409e-10
-1.52391e-09
-1.79699e-10
3.2649e-10
1.4518e-10
4.04137e-12
-6.76139e-12
-2.09114e-12
-4.05663e-14
2.92754e-14
6.2262e-15
-7.99365e-16
-4.20654e-16
-8.70871e-17
-9.26034e-18
1.97137e-18
1.67616e-18
6.92564e-19
2.24435e-19
6.2098e-20
1.47281e-20
2.09764e-21
-7.66206e-32
2.23515e-26
-5.49929e-23
2.57994e-21
1.25449e-19
3.67983e-19
-3.67469e-17
2.19995e-18
7.57184e-16
-1.39329e-14
4.95069e-14
4.92898e-13
-6.20504e-12
-3.99554e-12
1.23113e-10
-7.54874e-10
-1.67538e-09
7.56739e-09
2.40239e-08
5.85526e-09
-1.88642e-07
-3.72064e-07
-3.30937e-07
-3.20352e-07
-9.42222e-08
1.02705e-06
2.5398e-07
1.02023e-08
-7.64517e-09
-3.94436e-09
6.80766e-10
1.18126e-09
3.27707e-10
-1.46715e-11
-1.74191e-11
-3.91925e-12
6.43216e-14
7.67102e-14
1.09175e-14
-1.69716e-15
-6.85801e-16
-1.095e-16
-5.58219e-18
4.91416e-18
2.80902e-18
1.03761e-18
3.16059e-19
8.39781e-20
1.94399e-20
2.82945e-21
-4.36359e-30
8.65865e-25
-9.2478e-22
5.21246e-21
1.13343e-18
1.14047e-17
-2.61651e-16
-3.20169e-17
2.48882e-15
-6.04036e-14
1.07241e-12
1.51424e-12
-5.2084e-11
5.80651e-10
3.63178e-10
-1.15901e-08
-3.27737e-09
1.4566e-07
5.6141e-08
-1.27274e-06
-2.4155e-06
-1.38302e-06
-7.19271e-07
-4.38619e-07
4.06129e-06
4.19872e-06
4.02327e-07
-3.30655e-09
-3.55046e-08
-8.04699e-09
4.66595e-09
3.3877e-09
6.35158e-10
-5.56043e-11
-3.8295e-11
-6.49917e-12
2.93697e-13
1.80302e-13
1.73056e-14
-3.25698e-15
-1.08014e-15
-1.20012e-16
4.61224e-18
9.8843e-18
4.46795e-18
1.50474e-18
4.33837e-19
1.11191e-19
2.52452e-20
3.76664e-21
-3.50906e-28
3.31329e-23
-1.40723e-20
-2.58673e-19
7.46566e-18
1.48367e-16
-4.08616e-15
5.52802e-14
-4.40649e-13
3.0639e-13
4.1086e-12
-1.11551e-10
-1.38555e-10
3.66875e-09
-2.73421e-08
-3.33234e-08
5.35832e-07
5.22741e-07
-3.51283e-06
-1.23571e-05
-8.07808e-06
-2.2317e-06
-3.10814e-07
9.14913e-05
8.20847e-05
1.17439e-05
4.88146e-08
-2.01483e-07
-1.28072e-07
-1.0702e-08
1.48722e-08
8.10641e-09
1.07037e-09
-1.27126e-10
-7.25033e-11
-9.31089e-12
7.59981e-13
3.75428e-13
2.20185e-14
-6.1925e-15
-1.64463e-15
-9.93402e-17
2.501e-17
1.74891e-17
6.72895e-18
2.09898e-18
5.77004e-19
1.43436e-19
3.21412e-20
4.94054e-21
-4.66471e-26
1.20872e-21
-1.81284e-19
-6.72261e-18
2.98756e-17
8.67343e-16
-2.49579e-14
3.77006e-13
-4.3632e-12
3.11147e-11
-3.02526e-11
-7.76058e-10
6.47243e-09
8.44053e-09
-1.66044e-07
2.17304e-07
2.88901e-06
-1.576e-07
-4.41434e-05
-4.14346e-05
-1.47637e-05
0.000404444
0.00132033
0.00111515
0.000350394
1.78485e-05
-1.08615e-06
-9.59986e-07
-3.73542e-07
6.05037e-10
3.72701e-08
1.65735e-08
1.52995e-09
-2.42915e-10
-1.229e-10
-1.0973e-11
1.87485e-12
7.07892e-13
1.37096e-14
-1.30869e-14
-2.38163e-15
-1.59215e-17
5.93017e-17
2.80696e-17
9.57683e-18
2.80268e-18
7.40027e-19
1.7957e-19
4.00136e-20
6.37931e-21
-7.3622e-24
4.11234e-20
-1.5591e-18
-1.30921e-16
2.23326e-15
-1.24421e-14
-4.63063e-14
7.2467e-13
-1.03519e-11
1.40635e-10
-1.08722e-09
-1.92089e-09
4.13149e-08
-2.64349e-07
-3.97123e-07
7.00234e-06
6.25516e-06
-8.60722e-05
-0.000151432
-8.59033e-05
0.00224458
0.00685259
0.0073944
0.00408646
0.000961098
1.4861e-05
-4.31865e-06
-3.07308e-06
-9.04313e-07
4.57399e-08
8.03977e-08
3.00478e-08
1.80339e-09
-4.53e-10
-1.907e-10
-8.08811e-12
4.49228e-12
1.16853e-12
-3.35221e-14
-2.80573e-14
-2.998e-15
1.61465e-16
1.09359e-16
4.13367e-17
1.28526e-17
3.56865e-18
9.11947e-19
2.17589e-19
4.8645e-20
8.109e-21
-1.10796e-21
1.28155e-18
4.13635e-18
-2.14868e-15
5.11674e-14
-7.66978e-13
8.27673e-12
-6.43025e-11
2.40005e-10
9.51265e-11
-4.36222e-09
4.66408e-08
1.04051e-07
-1.92431e-06
3.84862e-06
2.87088e-05
-5.00496e-05
-0.000403619
-0.000289865
0.00473455
0.0187708
0.0264431
0.0216595
0.0102324
0.00207045
1.23434e-06
-1.29949e-05
-7.91841e-06
-1.87239e-06
1.45252e-07
1.54637e-07
4.86807e-08
1.46274e-09
-8.36147e-10
-2.64267e-10
6.85603e-12
1.01414e-11
1.56757e-12
-1.24405e-13
-5.3519e-14
-3.22916e-15
3.96991e-16
1.72047e-16
5.60954e-17
1.6232e-17
4.32128e-18
1.07737e-18
2.54898e-19
5.77583e-20
1.01564e-20
-1.50312e-19
3.85668e-17
-4.70641e-16
-7.01102e-15
1.68719e-13
-3.08422e-12
4.95413e-11
-5.0373e-10
3.72038e-09
-1.75957e-08
-4.78676e-09
3.05533e-07
-1.16833e-06
-4.46156e-06
4.34194e-05
5.76519e-05
-0.000685323
-0.000983771
0.00417501
0.031916
0.0608639
0.0667406
0.0477586
0.0206396
0.00376575
-2.61003e-05
-3.26576e-05
-1.738e-05
-3.31304e-06
3.36415e-07
2.69543e-07
6.88062e-08
-2.50741e-10
-1.54512e-09
-3.09554e-10
3.77611e-11
2.03571e-11
1.67198e-12
-2.4857e-13
-8.2628e-14
-2.32412e-15
6.4409e-16
2.38381e-16
7.03173e-17
1.92701e-17
4.96985e-18
1.21957e-18
2.88879e-19
6.70888e-20
1.25505e-20
-1.67311e-17
1.26273e-15
-2.49772e-14
3.07852e-13
-1.93309e-12
3.31677e-12
9.05577e-11
-1.0615e-09
1.11076e-08
-8.69971e-08
3.21725e-07
7.61809e-07
-1.03419e-05
5.01693e-06
0.000146411
-0.000191101
-0.00241236
-0.000736073
0.0345543
0.0961945
0.139977
0.1337
0.0873038
0.0352687
0.00586907
-7.62905e-05
-7.18609e-05
-3.3577e-05
-4.90648e-06
6.45328e-07
4.21395e-07
8.22159e-08
-4.14285e-09
-2.75843e-09
-2.91591e-10
9.31577e-11
3.3273e-11
8.8502e-13
-4.74019e-13
-1.06951e-13
6.76012e-16
9.80176e-16
3.01064e-16
8.1772e-17
2.15227e-17
5.43368e-18
1.32512e-18
3.17581e-19
7.64438e-20
1.53172e-20
-2.08727e-16
5.95083e-15
-1.12255e-13
2.00749e-12
-3.59731e-11
4.00094e-10
-3.07624e-09
1.11788e-08
-3.60211e-10
-1.65626e-07
1.58758e-06
-2.04234e-06
-3.01732e-05
0.000162798
0.000268211
-0.00232961
-0.0052058
0.0197654
0.105371
0.211623
0.260654
0.226715
0.137
0.0519669
0.00779627
-0.00015974
-0.000141362
-5.69055e-05
-5.71879e-06
1.07228e-06
5.93981e-07
8.01088e-08
-1.08204e-08
-4.40121e-09
-1.76957e-11
1.88598e-10
4.27825e-11
-1.05915e-12
-8.55198e-13
-1.07187e-13
3.90524e-15
1.4419e-15
3.47922e-16
8.84933e-17
2.26956e-17
5.67025e-18
1.38813e-18
3.40183e-19
8.56994e-20
1.84612e-20
1.06226e-14
-1.09731e-13
8.92786e-13
-2.8126e-13
-1.09561e-10
1.73353e-09
-2.1346e-08
1.42867e-07
-6.83213e-07
1.22779e-06
3.76042e-06
-3.83183e-05
-3.19794e-05
0.000599966
-0.000593905
-0.00787304
-0.00532924
0.0739426
0.231318
0.380444
0.415655
0.33177
0.186917
0.0662366
0.0087162
-0.000312711
-0.00025163
-8.31811e-05
-4.32866e-06
1.78345e-06
7.40063e-07
2.95278e-08
-2.23697e-08
-5.69954e-09
5.21514e-10
3.49242e-10
4.30978e-11
-3.50709e-12
-1.34631e-12
-7.7288e-14
5.12274e-15
1.71276e-15
3.65976e-16
8.9722e-17
2.27775e-17
5.69255e-18
1.4116e-18
3.56811e-19
9.4691e-20
2.19337e-20
1.9981e-13
-1.46522e-12
1.33729e-11
-9.82959e-11
4.561e-10
1.50457e-09
-4.41575e-08
4.18442e-07
-3.06777e-06
1.21787e-05
-3.84849e-06
-0.000137469
0.000344108
0.00129281
-0.00492263
-0.0175606
0.0188686
0.173449
0.41215
0.583919
0.577454
0.426195
0.223199
0.0728425
0.00774913
-0.00057827
-0.000402399
-0.00010124
4.91303e-07
2.94562e-06
7.60054e-07
-6.08606e-08
-4.33053e-08
-4.97281e-09
1.37432e-09
5.27299e-10
2.39145e-11
-5.94993e-12
-1.62061e-12
-2.25272e-14
7.21679e-15
1.83962e-15
3.52319e-16
8.64583e-17
2.20782e-17
5.56145e-18
1.4035e-18
3.67553e-19
1.0302e-19
2.55981e-20
5.3458e-13
-3.43376e-12
3.27663e-11
-3.18985e-10
3.39604e-09
-3.64186e-08
1.24146e-07
4.19672e-07
-5.96151e-06
3.95859e-05
-9.51814e-05
-0.000237535
0.00141741
0.00145285
-0.0142085
-0.0247604
0.0699919
0.31991
0.625945
0.776714
0.711633
0.482213
0.233062
0.0679797
0.00421379
-0.00101314
-0.000559995
-9.76738e-05
8.02096e-06
4.5933e-06
4.51827e-07
-1.85848e-07
-6.62883e-08
-2.04696e-10
2.43533e-09
5.83569e-10
-8.36523e-12
-1.00299e-11
-1.60837e-12
2.68194e-14
8.57375e-15
1.55538e-15
3.17447e-16
8.16558e-17
2.11048e-17
5.34588e-18
1.36822e-18
3.71039e-19
1.09891e-19
2.92172e-20
-1.02843e-11
7.38912e-11
-5.94553e-10
2.71301e-09
2.24051e-09
-1.30847e-07
1.17141e-06
-4.10696e-06
-9.44459e-07
6.97596e-05
-0.000334493
1.70253e-05
0.00324897
-0.00228382
-0.0288257
-0.0176559
0.15329
0.494292
0.827292
0.920427
0.771398
0.483423
0.207742
0.0473773
-0.000586714
-0.00165261
-0.000625476
-3.73616e-05
1.66997e-05
5.61002e-06
-2.16149e-07
-3.32596e-07
-6.66835e-08
6.99087e-09
4.00666e-09
4.66814e-10
-3.35615e-11
-1.37252e-11
-1.06974e-12
5.43273e-15
4.72241e-15
1.26131e-15
2.99536e-16
7.87073e-17
2.02246e-17
5.0601e-18
1.2973e-18
3.63625e-19
1.1418e-19
3.24922e-20
-9.85592e-11
6.27514e-10
-4.61386e-09
2.53601e-08
-8.91613e-08
-8.12686e-09
2.51014e-06
-1.67489e-05
5.20038e-05
4.57744e-05
-0.000729978
0.00135349
0.00495618
-0.0108107
-0.0430388
0.0113609
0.261906
0.661324
0.963822
0.969262
0.751248
0.412834
0.145682
0.0189985
-0.0041838
-0.00231818
-0.000471037
4.77451e-05
3.00182e-05
3.98029e-06
-1.15589e-06
-5.15747e-07
-3.26873e-08
1.41685e-08
5.01536e-09
2.25194e-10
-3.64631e-11
-1.20239e-11
-6.01367e-13
-1.91028e-14
7.78275e-16
8.90772e-16
2.91192e-16
7.78625e-17
1.9267e-17
4.61729e-18
1.16754e-18
3.40506e-19
1.14893e-19
3.51682e-20
-1.25774e-10
1.26546e-09
-8.84009e-09
5.27178e-08
-2.79213e-07
1.38683e-06
-1.18147e-06
-2.59502e-05
0.000156699
-0.000281885
-0.00094176
0.00395799
0.00500196
-0.0251487
-0.0494368
0.0564087
0.37075
0.777213
0.98963
0.925876
0.62098
0.285421
0.0703228
-0.00483552
-0.00561142
-0.00218559
-8.55862e-05
0.000121708
4.04772e-05
-4.77435e-07
-1.97218e-06
-5.33848e-07
1.82166e-08
2.0593e-08
4.27263e-09
-3.82886e-11
-4.0489e-11
-7.63761e-12
-2.75039e-13
-7.6954e-14
-2.62403e-15
8.60626e-16
3.10254e-16
7.77342e-17
1.75213e-17
3.85471e-18
9.53877e-19
2.99411e-19
1.11975e-19
3.71722e-20
2.39767e-09
-8.55587e-09
5.28725e-08
-1.94559e-07
3.69244e-08
3.58978e-06
-2.03245e-05
2.20663e-05
0.000219145
-0.000891725
-6.43242e-05
0.00707051
-0.00136331
-0.0423323
-0.0459949
0.113085
0.455139
0.812414
0.918875
0.743176
0.422873
0.145812
0.00792898
-0.0134424
-0.00686963
-0.000988087
0.000395659
0.000191456
2.48585e-05
-5.64992e-06
-2.73721e-06
-3.17632e-07
5.50293e-08
2.53567e-08
2.69181e-09
-5.91646e-11
-2.15576e-11
-2.20286e-12
-6.66717e-13
-1.6827e-13
-3.47198e-15
1.2269e-15
3.57423e-16
7.36899e-17
1.39289e-17
2.63537e-18
6.55537e-19
2.45576e-19
1.07029e-19
3.86944e-20
1.20386e-08
-5.90342e-08
3.87878e-07
-1.75501e-06
4.79146e-06
-1.39408e-06
-4.76246e-05
0.000172453
-2.80294e-06
-0.00152634
0.00232007
0.00858233
-0.0117208
-0.0554112
-0.034901
0.160901
0.490031
0.752668
0.724216
0.501522
0.221465
0.0337474
-0.0237563
-0.0141642
-0.00346276
0.000814778
0.00068301
0.000197237
-9.07366e-07
-7.97086e-06
-2.56547e-06
-4.75107e-08
5.28167e-08
1.71387e-08
8.68704e-10
7.67253e-11
2.82096e-11
8.47666e-13
-9.26762e-13
-2.63433e-13
-2.413e-15
1.98705e-15
3.84796e-16
5.73532e-17
7.64504e-18
1.00198e-18
3.2246e-19
1.94493e-19
1.03253e-19
4.00962e-20
-4.36687e-08
-1.10884e-07
7.36372e-07
-3.90628e-06
1.47863e-05
-2.69122e-05
-4.3555e-05
0.000381005
-0.000670142
-0.00168986
0.00609514
0.00719961
-0.0252045
-0.0656707
-0.0200328
0.184857
0.466197
0.573993
0.484388
0.261459
0.0610812
-0.0298062
-0.0250815
-0.00951739
0.00109491
0.00212913
0.00087109
9.32977e-05
-2.06815e-05
-9.64392e-06
-1.21105e-06
1.38816e-07
5.4297e-08
5.10809e-09
9.86328e-11
2.57206e-10
6.40427e-11
-5.14165e-13
-1.21944e-12
-2.11148e-13
1.18875e-14
3.28557e-15
2.88971e-16
2.1536e-17
-9.70043e-19
-6.88332e-19
6.05804e-20
1.68288e-19
1.03998e-19
4.15916e-20
-4.26597e-07
2.52614e-07
-6.79313e-07
-2.42671e-06
2.2409e-05
-8.11613e-05
9.52408e-05
0.000466357
-0.00176791
-0.000123987
0.00987263
0.00362227
-0.037476
-0.0702821
-0.0101236
0.180669
0.350207
0.365256
0.237404
0.0700077
-0.0321142
-0.041197
-0.0172555
0.00178336
0.00508128
0.00264607
0.000593314
-1.49941e-05
-1.88012e-05
-5.88222e-06
-2.03169e-07
4.51497e-08
-1.23791e-09
-3.13399e-09
8.12293e-10
5.27227e-10
7.16767e-11
-3.82829e-12
-1.34892e-12
-7.87897e-15
2.54762e-14
3.54236e-15
2.20752e-17
-2.7985e-17
-9.31526e-18
-1.76529e-18
-4.25243e-21
1.83934e-19
1.10151e-19
4.28162e-20
-1.04635e-06
1.62688e-06
-6.57366e-06
1.44432e-05
1.07258e-06
-0.000143536
0.000449144
-6.577e-05
-0.00284731
0.00249505
0.0131686
-0.000679989
-0.044369
-0.070197
-0.00720874
0.123912
0.19526
0.156225
0.0499997
-0.0394521
-0.0586745
-0.029019
-3.86708e-05
0.00913326
0.00622734
0.00218692
0.000197625
-4.39103e-05
-1.8373e-05
-1.23874e-06
1.88573e-07
-3.1443e-08
-3.77405e-08
-4.1228e-09
1.63149e-09
5.78054e-10
2.57891e-11
-5.36445e-12
-6.59146e-13
1.56527e-13
3.85621e-14
2.80232e-16
-3.04845e-16
-6.9604e-17
-1.27731e-17
-1.53498e-18
1.92035e-19
2.37172e-19
1.17745e-19
4.25942e-20
7.69304e-07
3.33885e-06
-1.26967e-05
4.65437e-05
-8.77248e-05
-8.49116e-05
0.000869841
-0.00106404
-0.00351513
0.0054568
0.0150268
-0.0026972
-0.0441644
-0.0596407
-0.0129199
0.048119
0.0558878
0.0075254
-0.0535181
-0.0734503
-0.044433
-0.00647088
0.0127989
0.0109883
0.00515407
0.000982924
-6.99682e-05
-2.09626e-05
2.23737e-06
1.24479e-06
-2.27013e-07
-2.16159e-07
-4.63559e-08
4.33028e-09
2.37632e-09
3.20036e-10
-3.64627e-11
-9.28455e-12
4.36281e-13
2.13432e-13
1.41263e-14
-3.27773e-15
-5.30231e-16
-6.67765e-17
-7.59568e-18
1.14217e-19
5.59688e-19
2.93013e-19
1.18038e-19
3.92696e-20
1.11487e-05
-3.61715e-07
-2.25086e-06
7.43326e-05
-0.000243025
0.000190768
0.00113015
-0.00226342
-0.00378014
0.00719648
0.0154179
-0.00137268
-0.0326078
-0.0405321
-0.022064
-0.0113474
-0.0276757
-0.0601018
-0.0762715
-0.0538442
-0.0136239
0.0131288
0.0154821
0.00874879
0.00236486
2.95318e-05
-3.34262e-05
2.39933e-06
8.01806e-06
1.22322e-06
-5.69222e-07
-2.50331e-07
-1.68805e-08
7.86505e-09
2.3301e-09
-6.24047e-11
-4.91786e-11
-5.53756e-12
1.06057e-12
2.13586e-13
-2.16317e-14
-4.93613e-15
-2.95388e-16
-1.24302e-17
3.8863e-18
2.19993e-18
8.38627e-19
2.96663e-19
1.01725e-19
3.17077e-20
2.17873e-05
-1.84072e-05
4.5367e-05
3.90636e-05
-0.000417771
0.000646749
0.00122238
-0.00334462
-0.00392761
0.0072076
0.0145609
0.00464256
-0.0125575
-0.0189936
-0.0212154
-0.0313699
-0.0486081
-0.0605837
-0.0477513
-0.0156513
0.0116355
0.0180287
0.011444
0.00363233
0.000156155
-0.000137849
1.25004e-05
3.52269e-05
9.01409e-06
-1.2909e-06
-8.64342e-07
-1.49583e-07
2.1045e-08
8.56737e-09
2.07537e-10
-2.36269e-10
-5.49616e-11
3.57433e-12
1.121e-12
-8.59615e-14
-3.4778e-14
-2.78375e-15
1.84044e-16
5.45368e-17
1.3257e-17
3.02834e-18
7.3949e-19
2.08884e-19
6.60988e-20
2.05042e-20
-1.94501e-05
-5.74204e-05
0.000116864
-8.85918e-05
-0.000510702
0.00116093
0.00114159
-0.00407977
-0.00426796
0.00553341
0.0134928
0.0121603
0.00625246
-0.000441417
-0.0101873
-0.0204486
-0.0291434
-0.0258928
-0.00827766
0.0110318
0.0173988
0.0109753
0.00326198
-0.0002604
-0.000398731
5.16072e-05
0.000105191
3.43314e-05
-8.92631e-07
-2.27055e-06
-7.53578e-07
1.5113e-08
2.23504e-08
3.14483e-09
-9.35245e-10
-2.36364e-10
1.70328e-11
6.44275e-12
1.27524e-13
-2.08086e-13
-3.56924e-14
2.82424e-15
5.39021e-16
7.89491e-17
1.14643e-17
1.45976e-18
1.86713e-19
4.53216e-20
2.017e-20
8.41634e-21
-0.000105638
-6.55662e-05
0.000188926
-0.000292012
-0.000448274
0.00156053
0.000752976
-0.00453628
-0.00446036
0.00394554
0.012967
0.0165449
0.0152204
0.00944275
0.0037353
-0.000716121
-0.00121859
0.00458021
0.0121474
0.0139379
0.00715585
0.00027783
-0.00226097
-0.00121721
2.02412e-05
0.000246891
0.000114283
1.29151e-05
-5.559e-06
-2.26538e-06
-7.25781e-08
8.05955e-08
1.96489e-08
-3.56653e-09
-1.1719e-09
-3.14183e-12
3.70378e-11
6.38936e-12
-1.07001e-12
-2.25218e-13
2.0344e-14
5.11301e-15
3.90899e-16
2.34236e-17
-2.68163e-18
-1.8064e-18
-5.37984e-19
-1.1761e-19
-1.82256e-20
-7.94646e-22
-8.78189e-05
6.30484e-05
0.000262164
-0.00043317
-0.000241634
0.00162267
-0.000223375
-0.00459643
-0.00337923
0.00419932
0.012035
0.0151688
0.013057
0.00946712
0.00843231
0.00951763
0.0113724
0.0122104
0.00939914
0.00162665
-0.00461576
-0.00555018
-0.00277353
-0.000201031
0.000474164
0.000273533
5.16523e-05
-1.12938e-05
-5.40436e-06
-4.06047e-07
2.47797e-07
5.29429e-08
-1.35943e-08
-5.03185e-09
-1.9117e-10
1.85852e-10
3.90088e-11
-4.85321e-12
-1.31574e-12
6.51399e-14
3.24841e-14
3.55067e-15
-1.68835e-16
-6.57132e-17
-1.80224e-17
-4.31613e-18
-9.49231e-19
-1.91428e-19
-3.41176e-20
-4.771e-21
0.000203417
0.000389582
0.000378832
-0.000455092
-0.000148707
0.000503964
-0.00141204
-0.00236637
0.00107136
0.00635909
0.00897151
0.00717767
0.00349691
0.00244492
0.00458498
0.00730897
0.00793279
0.00456151
-0.00237443
-0.00798501
-0.00811059
-0.00426262
-0.000481632
0.000771428
0.000490858
0.000117493
-1.89771e-05
-1.11515e-05
-1.64792e-06
6.49326e-07
1.75841e-07
-1.85096e-08
-1.28781e-08
-1.57897e-09
6.95287e-10
1.64359e-10
-1.98766e-11
-7.17434e-12
-3.10786e-13
1.82217e-13
3.24007e-14
-3.31356e-15
-6.56938e-16
-1.08078e-16
-2.02667e-17
-3.91667e-18
-7.70891e-19
-1.50784e-19
-2.79272e-20
-4.47469e-21
0.000716491
0.000672586
0.000108113
-0.00121862
-0.00129461
-0.00110917
-0.000320358
0.00281548
0.00654947
0.00722556
0.00361772
-0.00136671
-0.00415376
-0.00377588
-0.00105034
0.00155193
0.00131447
-0.00245572
-0.00684234
-0.00739306
-0.00398737
-0.000316372
0.00111375
0.00070392
0.000167181
-4.63713e-05
-2.93429e-05
-5.16926e-06
2.12207e-06
7.45961e-07
-9.54855e-10
-4.04522e-08
-6.95865e-09
2.64897e-09
7.13486e-10
-6.75665e-11
-3.55939e-11
-4.34199e-12
1.04596e-12
1.93822e-13
-2.57422e-14
-5.8514e-15
-4.56708e-16
-4.9229e-17
-6.55822e-18
-1.05009e-18
-2.42449e-19
-6.59335e-20
-1.68673e-20
-3.6954e-21
-0.00208333
-0.00225498
-0.00272106
-0.00311944
-0.00216683
0.000491172
0.00454656
0.00859349
0.00851157
0.0042088
-0.00126048
-0.00438858
-0.00479957
-0.00418671
-0.00253176
-0.00049527
-0.00012737
-0.00187471
-0.00257534
-0.00126784
0.000649511
0.001312
0.000677681
6.14682e-05
-0.00013799
-6.7341e-05
-7.35562e-06
6.06886e-06
2.04737e-06
-3.39785e-08
-1.21482e-07
-1.81581e-08
8.73166e-09
2.61141e-09
-1.90691e-10
-1.41171e-10
-2.1341e-11
5.48718e-12
1.11832e-12
-1.05326e-13
-3.4456e-14
-2.49423e-15
1.80546e-16
4.51713e-17
9.42059e-18
1.37571e-18
5.49542e-20
-4.704e-20
-2.11e-20
-6.04834e-21
-0.0037821
-0.00321339
-0.00225734
-6.96655e-05
0.0032834
0.00675203
0.00926523
0.00887845
0.00438369
-0.000385141
-0.00234245
-0.00156625
-0.00129116
-0.002069
-0.00165239
0.000448085
0.00203159
0.00211473
0.0020562
0.00185429
0.00121164
0.000260807
-0.000299008
-0.000326347
-0.000130775
-4.93615e-06
1.52772e-05
5.15396e-06
-2.961e-08
-3.64871e-07
-7.2925e-08
1.62688e-08
5.75766e-09
-3.31977e-10
-3.99597e-10
-5.27657e-11
2.56636e-11
6.05924e-12
-3.13581e-13
-1.53122e-13
-1.419e-14
3.85826e-15
6.17187e-16
8.19263e-17
1.12724e-17
7.53243e-19
-2.55484e-19
-1.42254e-19
-4.56236e-20
-1.18541e-20
0.00606639
0.00663303
0.00759566
0.00869117
0.009233
0.00862813
0.00607846
0.00187961
-0.00192574
-0.00229912
5.87178e-05
0.00150813
0.000309323
-0.00210257
-0.00223021
0.000101519
0.00243202
0.00311823
0.00233013
0.000908884
-0.000317557
-0.000749328
-0.000531681
-0.000172937
1.59101e-05
3.55698e-05
1.19534e-05
-1.89069e-07
-1.15314e-06
-3.12088e-07
2.97282e-08
1.45692e-08
6.43659e-10
-1.02452e-09
-1.30529e-10
8.96298e-11
2.44168e-11
-5.9578e-13
-7.33201e-13
-1.0392e-13
2.84426e-14
5.57897e-15
2.77943e-16
1.4105e-17
-3.54862e-18
-2.51529e-18
-9.56716e-19
-2.88223e-19
-7.51788e-20
-1.78119e-20
0.00568538
0.00589153
0.00573047
0.00494775
0.00348304
0.00115569
-0.00129519
-0.00271107
-0.00240858
-0.000402258
0.00157848
0.00111676
-0.00275542
-0.00613252
-0.00590266
-0.00272042
0.000530708
0.00129947
0.000538757
-0.000471199
-0.000846536
-0.000557456
-0.000125894
7.30479e-05
6.2859e-05
1.87106e-05
-2.1659e-06
-2.60977e-06
-5.77701e-07
1.19866e-07
4.30741e-08
-9.01259e-10
-4.31073e-09
-7.20826e-10
1.90369e-10
5.89057e-11
-4.66172e-12
-3.23202e-12
-4.05966e-13
1.35888e-13
2.89339e-14
-1.58258e-16
-2.53355e-16
-7.20218e-17
-1.9411e-17
-5.36064e-18
-1.447e-18
-3.69252e-19
-8.80739e-20
-1.99123e-20
0.00109029
0.000926647
0.000481884
-0.000266785
-0.00100632
-0.00192958
-0.00182924
-0.000710592
0.000488168
0.000649577
-0.00194037
-0.00603276
-0.0100884
-0.0117726
-0.00971425
-0.00517907
-0.00126488
6.65597e-05
-0.000123657
-0.000349795
-0.000182718
5.96383e-05
0.000145438
8.23501e-05
1.39036e-05
-9.18008e-06
-5.05687e-06
-7.83339e-07
3.18438e-07
1.03612e-07
-5.55377e-09
-1.22033e-08
-2.99547e-09
1.59827e-10
2.34397e-11
-3.31719e-11
-1.41898e-11
-1.33145e-12
4.29187e-13
7.08334e-14
-1.11504e-14
-2.77652e-15
-4.5554e-16
-9.43243e-17
-2.19418e-17
-5.3855e-18
-1.33943e-18
-3.251e-19
-7.53371e-20
-1.68305e-20
-0.000704658
-0.000828675
-0.00100163
-0.000983362
-0.000989305
-0.000781749
0.000360293
0.00176179
0.00138916
-0.0057161
-0.0151077
-0.0205905
-0.021244
-0.0180086
-0.0121762
-0.00588182
-0.0014224
0.000211809
0.000281822
0.000283848
0.000257546
0.000176204
6.3068e-05
-9.0198e-06
-2.21776e-05
-9.29057e-06
-6.16863e-07
9.35842e-07
3.16934e-07
1.14078e-08
-2.00982e-08
-4.30736e-09
1.32679e-09
2.87715e-10
-3.13097e-11
-2.36823e-11
-2.43796e-12
1.46904e-12
2.20959e-13
-4.11909e-14
-1.34044e-14
-2.03824e-15
-2.54013e-16
-5.08228e-17
-1.19155e-17
-3.01958e-18
-7.79321e-19
-1.95449e-19
-4.65237e-20
-1.0668e-20
-0.000159155
-0.00015022
-0.000125453
0.000181454
0.000187379
0.000357596
0.0012951
0.00308988
-0.00692006
-0.0265942
-0.0431159
-0.0450504
-0.037151
-0.0248267
-0.0135351
-0.00551522
-0.00100378
0.000414039
0.000438959
0.000287481
0.000114114
-5.63304e-06
-4.73797e-05
-3.24053e-05
-9.56957e-06
1.07537e-06
1.94236e-06
5.88241e-07
-1.98043e-08
-4.24734e-08
-3.47188e-09
6.61449e-09
2.51951e-09
2.65947e-10
-1.68045e-11
4.76853e-12
6.43132e-12
1.32772e-12
-4.07944e-14
-1.76896e-14
-3.08313e-15
-1.21965e-18
1.97109e-17
3.36893e-18
-3.47545e-19
-4.64951e-19
-2.05086e-19
-6.73632e-20
-1.87491e-20
-4.77417e-21
0.000113914
0.000129862
0.000147693
0.00051093
1.11454e-05
0.000276229
0.000630912
-0.00921388
-0.0356849
-0.0700394
-0.0870097
-0.0786982
-0.0543064
-0.0299247
-0.013602
-0.00459219
-0.000653274
0.000212308
0.000158674
2.69896e-05
-5.56361e-05
-6.29588e-05
-3.16539e-05
-3.3118e-06
5.44924e-06
3.0386e-06
5.26184e-07
-2.15774e-07
-1.00125e-07
-7.373e-09
9.83603e-09
3.5166e-09
1.97846e-10
-1.327e-10
-1.10531e-12
1.30747e-11
3.22139e-12
-2.32541e-13
-5.17411e-14
-1.73842e-15
2.9048e-15
7.45194e-16
1.33796e-16
2.54885e-17
4.6822e-18
7.62873e-19
9.61826e-20
4.31964e-21
-2.46061e-21
-1.17125e-21
-5.49267e-05
-0.000229952
-0.000139647
0.0012174
-0.0118288
-0.0328561
-0.0459433
-0.0628593
-0.100347
-0.138039
-0.139814
-0.109096
-0.0645892
-0.030617
-0.0114792
-0.00318549
-0.000305135
2.80918e-05
3.90311e-06
-3.51887e-05
-3.12515e-05
-8.14809e-06
7.00951e-06
7.8123e-06
3.11842e-06
8.5074e-08
-4.93206e-07
-1.82639e-07
-7.10266e-09
1.27255e-08
1.83147e-09
-1.68469e-09
-8.00307e-10
-1.25988e-10
4.6162e-12
-1.16487e-12
-1.66087e-12
-4.15482e-13
-2.8503e-14
3.66195e-15
1.1102e-15
2.41517e-16
6.26091e-17
1.59366e-17
3.7013e-18
7.66792e-19
1.39559e-19
2.16662e-20
2.63344e-21
1.57641e-22
-0.00443862
-0.0151457
-0.0354485
-0.0882419
-0.166536
-0.209111
-0.195153
-0.180636
-0.198718
-0.21114
-0.183589
-0.123295
-0.0645563
-0.0259332
-0.00810931
-0.00182395
-7.13185e-05
2.90087e-05
1.81355e-05
1.05317e-05
1.25364e-05
1.21047e-05
6.59687e-06
1.06049e-06