/*--------------------------------*- C++ -*----------------------------------*\
| =========                 |                                                 |
| \\      /  F ield         | OpenFOAM: The Open Source CFD Toolbox           |
|  \\    /   O peration     | Version:  v2006                                 |
|   \\  /    A nd           | Website:  www.openfoam.com                      |
|    \\/     M anipulation  |                                                 |
\*---------------------------------------------------------------------------*/
FoamFile
{
    version     2.0;
    format      ascii;
    class       surfaceScalarField;
    location    "9.4";
    object      phi;
}
// * * * * * * * * * * * * * * * * * * * * * * * * * * * * * * * * * * * * * //

dimensions      [0 3 -1 0 0 0 0];
oriented        oriented;


internalField   nonuniform List<scalar> 
104500
(
-2.00755e-05
2.00755e-05
-2.55645e-05
5.48895e-06
-3.34263e-05
7.86183e-06
-4.48019e-05
1.13756e-05
-5.75291e-05
1.27272e-05
-7.04036e-05
1.28745e-05
-8.30811e-05
1.26775e-05
-9.55795e-05
1.24984e-05
-0.00010795
1.23709e-05
-0.00012021
1.22599e-05
-0.000132355
1.21449e-05
-0.00014438
1.20247e-05
-0.000156285
1.1905e-05
-0.000168077
1.17924e-05
-0.00017977
1.16927e-05
-0.000191381
1.16115e-05
-0.000202936
1.15549e-05
-0.000214465
1.15289e-05
-0.000226004
1.15386e-05
-0.000237593
1.15888e-05
-0.000249277
1.16842e-05
-0.000261106
1.18291e-05
-0.000273133
1.20267e-05
-0.000285412
1.22791e-05
-0.000297999
1.25871e-05
-0.000310949
1.29504e-05
-0.000324318
1.33688e-05
-0.00033816
1.38415e-05
-0.000352526
1.43665e-05
-0.000367466
1.49404e-05
-0.000383026
1.55594e-05
-0.000399245
1.62188e-05
-0.000416159
1.69142e-05
-0.0004338
1.76414e-05
-0.000452197
1.8397e-05
-0.000471376
1.91791e-05
-0.000491364
1.99881e-05
-0.00051219
2.08257e-05
-0.000533882
2.16922e-05
-0.000556465
2.25826e-05
-0.00057995
2.34855e-05
-0.000604336
2.43854e-05
-0.000629602
2.52666e-05
-0.00065572
2.61171e-05
-0.000682649
2.69294e-05
-0.00071035
2.77011e-05
-0.000738784
2.84341e-05
-0.000767918
2.91336e-05
-0.000797725
2.98075e-05
-0.000828188
3.04623e-05
-0.000859284
3.10966e-05
-0.000890978
3.16934e-05
-0.000923195
3.22172e-05
-0.000955813
3.26186e-05
-0.000988662
3.28489e-05
-0.00102154
3.28781e-05
-0.00105425
3.27087e-05
-0.00108663
3.23817e-05
-0.0011186
3.19663e-05
-0.00115013
3.15365e-05
-0.00118128
3.11497e-05
-0.00121212
3.08371e-05
-0.00124273
3.06074e-05
-0.00127318
3.04555e-05
-0.00130355
3.03698e-05
-0.00133389
3.03373e-05
-0.00136424
3.03469e-05
-0.00139463
3.03898e-05
-0.00142509
3.04589e-05
-0.00145563
3.0548e-05
-0.00148629
3.06523e-05
-0.00151705
3.07681e-05
-0.00154795
3.08932e-05
-0.00157897
3.10275e-05
-0.00161015
3.11718e-05
-0.00164147
3.13264e-05
-0.00167296
3.14897e-05
-0.00170462
3.1657e-05
-0.00173644
3.18223e-05
-0.00176842
3.19792e-05
-0.00180054
3.21232e-05
-0.0018328
3.22526e-05
-0.00186517
3.23694e-05
-0.00189765
3.24788e-05
-0.00193023
3.25886e-05
-0.00196294
3.27075e-05
-0.00199578
3.28433e-05
-0.00202879
3.30001e-05
-0.00206196
3.31775e-05
-0.00209533
3.33704e-05
-0.0021289
3.35708e-05
-0.00216267
3.37695e-05
-0.00219663
3.39577e-05
-0.00223076
3.41287e-05
-0.00226504
3.42781e-05
-0.00229944
3.44038e-05
-0.00233395
3.45054e-05
-0.00236853
3.45837e-05
-0.00240317
3.46399e-05
-0.00243785
3.4675e-05
-0.00247254
3.469e-05
-0.00250722
3.46861e-05
-0.00254189
3.46641e-05
-0.00257651
3.46249e-05
-0.00261108
3.45692e-05
-0.00264558
3.44974e-05
-0.00267999
3.44095e-05
-0.00271429
3.43056e-05
-0.00274848
3.41854e-05
-0.00278253
3.40488e-05
-0.00281642
3.38957e-05
-0.00285015
3.37258e-05
-0.00288369
3.35392e-05
-0.00291702
3.33357e-05
-0.00295014
3.31152e-05
-0.00298302
3.28777e-05
-0.00301564
3.26232e-05
-0.00304799
3.2352e-05
-0.00308006
3.20643e-05
-0.00311182
3.17604e-05
-0.00314326
3.14406e-05
-0.00317436
3.11052e-05
-0.00320512
3.07537e-05
-0.0032355
3.0386e-05
-0.0032655
3.00023e-05
-0.00329511
2.9603e-05
-0.00332429
2.9188e-05
-0.00335305
2.87573e-05
-0.00338136
2.83111e-05
-0.00340921
2.78497e-05
-0.00343659
2.73733e-05
-0.00346347
2.68825e-05
-0.00348985
2.63774e-05
-0.0035157
2.58584e-05
-0.00354103
2.53255e-05
-0.00356581
2.47776e-05
-0.00359002
2.42116e-05
-0.00361364
2.36223e-05
-0.00363665
2.30043e-05
-0.003659
2.23564e-05
-0.00368069
2.1688e-05
-0.00370171
2.10238e-05
-0.00372211
2.04008e-05
-0.00374197
1.98582e-05
-0.00376139
1.94222e-05
-0.00378049
1.90921e-05
-0.00379932
1.88379e-05
-0.00381793
1.86097e-05
-0.00383629
1.83542e-05
-0.00385432
1.80317e-05
-0.00387195
1.7625e-05
-0.00388908
1.71379e-05
-0.00390567
1.65867e-05
-0.00392166
1.59898e-05
-0.00393702
1.53614e-05
-0.00395173
1.47107e-05
-0.00396578
1.40448e-05
-0.00397915
1.33716e-05
-0.00399185
1.27004e-05
-0.00400389
1.20397e-05
-0.00401528
1.13936e-05
-0.00402604
1.07595e-05
-0.00403617
1.01291e-05
-0.00404566
9.49065e-06
-0.0040545
8.83474e-06
-0.00406266
8.15966e-06
-0.0040701
7.44439e-06
-0.00407681
6.70701e-06
-0.00408275
5.94047e-06
-0.00408789
5.14074e-06
-0.00409219
4.30413e-06
-0.00409562
3.4239e-06
-0.0040981
2.48472e-06
-0.00409954
1.44074e-06
-0.00409972
1.75825e-07
-0.00409851
-1.20896e-06
-0.00409577
-2.74009e-06
-0.00409146
-4.30561e-06
-0.00408564
-5.82342e-06
-0.00407839
-7.25326e-06
-0.00406981
-8.57632e-06
-0.00406002
-9.78618e-06
-0.00404914
-1.0886e-05
-0.00403725
-1.18863e-05
-0.00402445
-1.2803e-05
-0.00401079
-1.36536e-05
-0.00399634
-1.44549e-05
-0.00398112
-1.52207e-05
-0.00396516
-1.59621e-05
-0.00394847
-1.66874e-05
-0.00393107
-1.74034e-05
-0.00391295
-1.8116e-05
-0.00389412
-1.88314e-05
-0.00387456
-1.95565e-05
-0.00385426
-2.03002e-05
-0.00383319
-2.10741e-05
-0.0038113
-2.18927e-05
-0.00378852
-2.27724e-05
-0.00376479
-2.37287e-05
-0.00374002
-2.47705e-05
-0.00371413
-2.58949e-05
-0.00368705
-2.7082e-05
-0.00365875
-2.82939e-05
-0.00362927
-2.94786e-05
-0.0035987
-3.05784e-05
-0.00356716
-3.15411e-05
-0.00353482
-3.23301e-05
-0.00350189
-3.2932e-05
-0.00346853
-3.3358e-05
-0.00343489
-3.36411e-05
-0.00340107
-3.38279e-05
-0.0033671
-3.39688e-05
-0.00333299
-3.41085e-05
-0.00329871
-3.42787e-05
-0.00326421
-3.44954e-05
-0.00322945
-3.476e-05
-0.00319439
-3.50638e-05
-0.003159
-3.53933e-05
-0.00312326
-3.57352e-05
-0.00308718
-3.60789e-05
-0.00305077
-3.64181e-05
-0.00301402
-3.67496e-05
-0.00297694
-3.70722e-05
-0.00293956
-3.7385e-05
-0.00290187
-3.76872e-05
-0.00286389
-3.7977e-05
-0.00282564
-3.82522e-05
-0.00278713
-3.85104e-05
-0.00274838
-3.87495e-05
-0.00270941
-3.8968e-05
-0.00267025
-3.91648e-05
-0.00263091
-3.93392e-05
-0.00259142
-3.94909e-05
-0.0025518
-3.96195e-05
-0.00251207
-3.97248e-05
-0.00247227
-3.98065e-05
-0.0024324
-3.98643e-05
-0.00239251
-3.9898e-05
-0.0023526
-3.99072e-05
-0.00231271
-3.98914e-05
-0.00227286
-3.985e-05
-0.00223307
-3.97825e-05
-0.00219339
-3.96883e-05
-0.00215382
-3.95668e-05
-0.0021144
-3.94175e-05
-0.00207516
-3.92395e-05
-0.00203613
-3.90321e-05
-0.00199734
-3.87939e-05
-0.00195881
-3.85232e-05
-0.0019206
-3.8218e-05
-0.00188272
-3.78752e-05
-0.00184523
-3.74919e-05
-0.00180816
-3.70646e-05
-0.00177157
-3.65903e-05
-0.00173551
-3.60661e-05
-0.00170002
-3.54887e-05
-0.00166516
-3.48557e-05
-0.001631
-3.41663e-05
-0.00159757
-3.3424e-05
-0.00156493
-3.26388e-05
-0.00153311
-3.18279e-05
-0.00150209
-3.10126e-05
-0.00147188
-3.02118e-05
-0.00144245
-2.94337e-05
-0.00141378
-2.86715e-05
-0.00138587
-2.79047e-05
-0.00135877
-2.71058e-05
-0.00133252
-2.6248e-05
-0.00130721
-2.53117e-05
-0.00128292
-2.42856e-05
-0.00125976
-2.31641e-05
-0.00123781
-2.19437e-05
-0.00121719
-2.06206e-05
-0.001198
-1.91901e-05
-0.00118035
-1.7649e-05
-0.00116436
-1.59967e-05
-0.00115012
-1.42379e-05
-0.00113773
-1.23839e-05
-0.00112728
-1.0454e-05
-0.00111881
-8.4752e-06
-0.00111232
-6.48122e-06
-0.00110781
-4.51171e-06
-0.0011052
-2.61233e-06
-0.00110436
-8.35935e-07
-0.00110511
7.48811e-07
-0.00110715
2.03331e-06
-0.00111019
3.04121e-06
-0.00111389
3.70121e-06
-0.00111781
3.92414e-06
-0.0011214
3.5915e-06
-0.00112395
2.5432e-06
-0.00112468
7.37048e-07
-0.00112303
-1.6559e-06
-0.00111856
-4.46743e-06
-0.00111115
-7.408e-06
-0.001101
-1.01555e-05
-0.00108859
-1.24117e-05
-0.0010746
-1.39909e-05
-0.00105973
-1.48639e-05
-0.00104459
-1.51441e-05
-0.00102956
-1.50299e-05
-0.00101482
-1.47382e-05
-0.00100037
-1.44517e-05
-0.000986076
-1.42917e-05
-0.00097176
-1.43159e-05
-0.000957229
-1.45303e-05
-0.000942321
-1.49088e-05
-0.00092692
-1.54004e-05
-0.000910972
-1.59481e-05
-0.000894466
-1.65057e-05
-0.000877419
-1.70473e-05
-0.000859855
-1.75637e-05
-0.0008418
-1.80556e-05
-0.000823274
-1.85256e-05
-0.000804301
-1.89736e-05
-0.000784905
-1.93959e-05
-0.000765118
-1.97872e-05
-0.000744974
-2.01438e-05
-0.000724507
-2.04672e-05
-0.000703745
-2.07618e-05
-0.000682711
-2.1034e-05
-0.000661421
-2.12901e-05
-0.000639888
-2.1533e-05
-0.000618126
-2.1762e-05
-0.000596149
-2.19769e-05
-0.000573972
-2.21764e-05
-0.000551613
-2.2359e-05
-0.000529085
-2.25279e-05
-0.0005064
-2.26855e-05
-0.000483569
-2.28314e-05
-0.0004606
-2.29682e-05
-0.000437502
-2.30983e-05
-0.000414277
-2.32252e-05
-0.000390925
-2.3352e-05
-0.000367445
-2.34803e-05
-0.000343834
-2.36106e-05
-0.000320091
-2.37425e-05
-0.000296216
-2.38751e-05
-0.000272208
-2.4008e-05
-0.000248067
-2.41418e-05
-0.000223795
-2.42717e-05
-0.000199405
-2.43901e-05
-0.000174919
-2.44858e-05
-0.000150359
-2.45597e-05
-0.000125707
-2.46522e-05
-0.000100821
-2.48859e-05
-7.54894e-05
-2.53319e-05
-4.87556e-05
-2.67338e-05
-2.05559e-05
-2.81996e-05
-2.05559e-05
-3.09701e-05
5.10457e-05
-4.68889e-05
2.14077e-05
-6.66091e-05
2.7582e-05
-9.02482e-05
3.50147e-05
-0.000115172
3.7651e-05
-0.000139941
3.76437e-05
-0.000164308
3.70438e-05
-0.000188372
3.65633e-05
-0.000212205
3.62029e-05
-0.0002358
3.58549e-05
-0.000259133
3.5478e-05
-0.000282186
3.50784e-05
-0.000304954
3.46725e-05
-0.000327435
3.42738e-05
-0.000349636
3.3893e-05
-0.000371564
3.354e-05
-0.000393234
3.32245e-05
-0.00041466
3.29553e-05
-0.000435862
3.27406e-05
-0.000456861
3.25877e-05
-0.00047768
3.2503e-05
-0.000498342
3.24916e-05
-0.000518873
3.25572e-05
-0.000539296
3.27022e-05
-0.000559636
3.2927e-05
-0.000579916
3.32311e-05
-0.000600161
3.3613e-05
-0.000620389
3.40702e-05
-0.000640622
3.45992e-05
-0.000660877
3.51956e-05
-0.000681172
3.58537e-05
-0.00070152
3.65673e-05
-0.000721936
3.73297e-05
-0.000742429
3.81351e-05
-0.000763011
3.89783e-05
-0.000783687
3.98553e-05
-0.000804462
4.07637e-05
-0.000825339
4.17026e-05
-0.000846318
4.26706e-05
-0.000867399
4.36642e-05
-0.00088859
4.46762e-05
-0.000909901
4.56964e-05
-0.000931347
4.6713e-05
-0.000952946
4.77155e-05
-0.000974712
4.86959e-05
-0.000996661
4.96499e-05
-0.0010188
5.05763e-05
-0.00104115
5.14762e-05
-0.00106369
5.23516e-05
-0.00108643
5.32031e-05
-0.00110936
5.40281e-05
-0.00113249
5.48191e-05
-0.00115583
5.55636e-05
-0.00117946
5.62471e-05
-0.00120347
5.6859e-05
-0.00122799
5.73965e-05
-0.00125315
5.78681e-05
-0.00127906
5.82917e-05
-0.00130579
5.86903e-05
-0.00133333
5.90856e-05
-0.00136168
5.94929e-05
-0.00139076
5.992e-05
-0.00142052
6.03686e-05
-0.0014509
6.08365e-05
-0.00148185
6.13198e-05
-0.00151333
6.18136e-05
-0.0015453
6.2314e-05
-0.00157772
6.28179e-05
-0.00161059
6.33231e-05
-0.00164387
6.38278e-05
-0.00167755
6.43303e-05
-0.00171161
6.48294e-05
-0.00174604
6.53242e-05
-0.00178082
6.58138e-05
-0.00181595
6.62974e-05
-0.0018514
6.6774e-05
-0.00188715
6.7242e-05
-0.00192319
6.76988e-05
-0.00195951
6.81408e-05
-0.00199609
6.85637e-05
-0.00203294
6.89638e-05
-0.00207002
6.93386e-05
-0.00210734
6.96878e-05
-0.00214488
7.00142e-05
-0.00218261
7.03232e-05
-0.00222052
7.06221e-05
-0.0022586
7.09184e-05
-0.00229682
7.12181e-05
-0.00233516
7.15242e-05
-0.00237363
7.1836e-05
-0.00241221
7.21491e-05
-0.0024509
7.2457e-05
-0.00248969
7.2752e-05
-0.00252859
7.3027e-05
-0.00256759
7.32758e-05
-0.00260668
7.34935e-05
-0.00264585
7.36772e-05
-0.00268509
7.38245e-05
-0.00272438
7.3934e-05
-0.00276371
7.40046e-05
-0.00280306
7.40359e-05
-0.0028424
7.40274e-05
-0.00288171
7.3979e-05
-0.00292098
7.38904e-05
-0.00296017
7.37616e-05
-0.00299927
7.35921e-05
-0.00303824
7.33816e-05
-0.00307706
7.31296e-05
-0.00311571
7.28356e-05
-0.00315416
7.2499e-05
-0.00319239
7.21192e-05
-0.00323036
7.16959e-05
-0.00326805
7.12286e-05
-0.00330543
7.07171e-05
-0.00334247
7.01613e-05
-0.00337916
6.95609e-05
-0.00341545
6.8916e-05
-0.00345132
6.82266e-05
-0.00348675
6.74931e-05
-0.00352171
6.67159e-05
-0.00355616
6.58951e-05
-0.00359009
6.50314e-05
-0.00362346
6.41249e-05
-0.00365625
6.31761e-05
-0.00368843
6.21852e-05
-0.00371998
6.11529e-05
-0.00375087
6.00793e-05
-0.00378108
5.89648e-05
-0.00381058
5.78096e-05
-0.00383934
5.66139e-05
-0.00386735
5.53775e-05
-0.00389457
5.41004e-05
-0.00392097
5.27821e-05
-0.00394653
5.14218e-05
-0.00397123
5.0018e-05
-0.00399502
4.85687e-05
-0.00401788
4.70708e-05
-0.00403978
4.55212e-05
-0.00406069
4.39186e-05
-0.0040806
4.22667e-05
-0.00409949
4.05773e-05
-0.00411734
3.88723e-05
-0.00413412
3.71815e-05
-0.0041498
3.55349e-05
-0.00416433
3.39534e-05
-0.00417768
3.24396e-05
-0.00418981
3.09759e-05
-0.00420073
2.95312e-05
-0.00421045
2.80723e-05
-0.004219
2.65757e-05
-0.0042264
2.50321e-05
-0.00423271
2.34443e-05
-0.00423794
2.18206e-05
-0.00424212
2.01703e-05
-0.00424526
1.85003e-05
-0.00424737
1.6815e-05
-0.00424844
1.51175e-05
-0.00424848
1.34103e-05
-0.00424747
1.16959e-05
-0.00424541
9.97647e-06
-0.00424227
8.25306e-06
-0.00423804
6.52614e-06
-0.00423271
4.7975e-06
-0.00422629
3.07304e-06
-0.00421882
1.36286e-06
-0.00421039
-2.67457e-07
-0.00420084
-2.10536e-06
-0.00419024
-3.89022e-06
-0.00417864
-5.66587e-06
-0.00416605
-7.44068e-06
-0.00415253
-9.219e-06
-0.0041381
-1.10035e-05
-0.00412282
-1.27956e-05
-0.00410679
-1.45934e-05
-0.00409023
-1.63844e-05
-0.00407329
-1.81474e-05
-0.00405613
-1.99031e-05
-0.00403878
-2.16557e-05
-0.00402121
-2.33949e-05
-0.00400335
-2.51104e-05
-0.00398513
-2.67941e-05
-0.00396648
-2.84403e-05
-0.00394732
-3.00463e-05
-0.00392759
-3.16118e-05
-0.00390726
-3.31386e-05
-0.00388628
-3.46298e-05
-0.00386465
-3.6089e-05
-0.00384235
-3.75202e-05
-0.00381938
-3.89268e-05
-0.00379576
-4.03126e-05
-0.00377148
-4.16812e-05
-0.00374656
-4.3037e-05
-0.003721
-4.43848e-05
-0.00369483
-4.57304e-05
-0.00366805
-4.70807e-05
-0.00364068
-4.8443e-05
-0.00361275
-4.9825e-05
-0.00358429
-5.1233e-05
-0.00355535
-5.267e-05
-0.00352598
-5.41332e-05
-0.00349627
-5.56116e-05
-0.00346626
-5.70849e-05
-0.00343603
-5.8525e-05
-0.00340561
-5.98989e-05
-0.00337502
-6.11741e-05
-0.00334423
-6.23245e-05
-0.00331323
-6.33359e-05
-0.00328195
-6.42083e-05
-0.00325035
-6.49565e-05
-0.00321839
-6.56068e-05
-0.00318602
-6.6192e-05
-0.00315325
-6.67451e-05
-0.00312006
-6.72937e-05
-0.00308648
-6.78565e-05
-0.00305254
-6.84413e-05
-0.00301825
-6.90469e-05
-0.00298365
-6.96655e-05
-0.00294876
-7.02863e-05
-0.00291359
-7.08979e-05
-0.00287818
-7.1491e-05
-0.00284254
-7.20584e-05
-0.0028067
-7.25955e-05
-0.00277067
-7.30996e-05
-0.00273448
-7.35688e-05
-0.00269817
-7.40017e-05
-0.00266175
-7.43966e-05
-0.00262525
-7.47521e-05
-0.00258869
-7.50667e-05
-0.0025521
-7.53391e-05
-0.0025155
-7.55686e-05
-0.00247891
-7.57547e-05
-0.00244236
-7.58974e-05
-0.00240585
-7.59972e-05
-0.00236941
-7.60546e-05
-0.00233307
-7.60702e-05
-0.00229683
-7.60447e-05
-0.00226072
-7.5979e-05
-0.00222474
-7.58737e-05
-0.00218892
-7.57298e-05
-0.00215326
-7.55479e-05
-0.00211778
-7.53289e-05
-0.00208249
-7.50739e-05
-0.0020474
-7.47839e-05
-0.0020125
-7.44599e-05
-0.00197782
-7.41031e-05
-0.00194334
-7.37145e-05
-0.00190908
-7.3295e-05
-0.00187503
-7.28456e-05
-0.00184118
-7.23674e-05
-0.00180754
-7.18611e-05
-0.00177409
-7.13277e-05
-0.00174081
-7.07681e-05
-0.00170769
-7.0183e-05
-0.00167471
-6.9573e-05
-0.00164184
-6.89389e-05
-0.00160904
-6.82812e-05
-0.0015763
-6.76004e-05
-0.00154357
-6.68972e-05
-0.00151082
-6.61723e-05
-0.00147803
-6.5426e-05
-0.0014452
-6.46582e-05
-0.00141235
-6.38678e-05
-0.00137951
-6.30524e-05
-0.00134673
-6.22087e-05
-0.00131407
-6.13321e-05
-0.00128156
-6.04172e-05
-0.00124921
-5.94579e-05
-0.00121701
-5.84477e-05
-0.00118494
-5.73802e-05
-0.00115298
-5.62488e-05
-0.00112109
-5.50466e-05
-0.00108927
-5.3766e-05
-0.00105749
-5.23986e-05
-0.00102575
-5.0935e-05
-0.000994032
-4.93655e-05
-0.000962348
-4.76812e-05
-0.000930711
-4.58749e-05
-0.000899152
-4.39427e-05
-0.00086772
-4.18857e-05
-0.000836483
-3.97122e-05
-0.000805524
-3.74399e-05
-0.000774939
-3.50975e-05
-0.000744824
-3.27266e-05
-0.000715279
-3.03813e-05
-0.000686399
-2.81309e-05
-0.000658292
-2.60742e-05
-0.000630929
-2.43218e-05
-0.000604263
-2.29642e-05
-0.000578294
-2.20454e-05
-0.000553087
-2.16155e-05
-0.000528841
-2.17023e-05
-0.000505821
-2.22831e-05
-0.00048417
-2.3307e-05
-0.000463958
-2.46793e-05
-0.000445129
-2.62369e-05
-0.000427482
-2.78029e-05
-0.000410675
-2.92189e-05
-0.000394294
-3.03715e-05
-0.000377954
-3.12041e-05
-0.000361387
-3.17107e-05
-0.000344496
-3.1921e-05
-0.000327351
-3.18835e-05
-0.000310145
-3.16575e-05
-0.000293128
-3.13092e-05
-0.000276534
-3.09096e-05
-0.000260536
-3.05281e-05
-0.000245223
-3.02217e-05
-0.000230599
-3.0025e-05
-0.0002166
-2.9947e-05
-0.000203127
-2.99781e-05
-0.000190076
-3.00985e-05
-0.000177356
-3.02837e-05
-0.000164903
-3.05088e-05
-0.000152679
-3.07494e-05
-0.00014067
-3.09824e-05
-0.000128879
-3.1187e-05
-0.00011732
-3.13459e-05
-0.000106016
-3.14485e-05
-9.49895e-05
-3.14935e-05
-8.42667e-05
-3.14846e-05
-7.38716e-05
-3.14291e-05
-6.38284e-05
-3.13333e-05
-5.41633e-05
-3.11981e-05
-4.49049e-05
-3.10205e-05
-3.60839e-05
-3.07979e-05
-2.77327e-05
-3.05277e-05
-1.98839e-05
-3.02078e-05
-1.2573e-05
-2.98388e-05
-5.83481e-06
-2.94237e-05
2.98137e-07
-2.89643e-05
5.79481e-06
-2.84649e-05
1.06294e-05
-2.79329e-05
1.47839e-05
-2.73796e-05
1.82479e-05
-2.68161e-05
2.10168e-05
-2.62492e-05
2.30955e-05
-2.56893e-05
2.44958e-05
-2.51428e-05
2.52343e-05
-2.46136e-05
2.53349e-05
-2.41086e-05
2.48303e-05
-2.36372e-05
2.37623e-05
-2.32037e-05
2.21907e-05
-2.28185e-05
2.01906e-05
-2.24857e-05
1.78516e-05
-2.22207e-05
1.52345e-05
-2.20352e-05
1.22214e-05
-2.18728e-05
8.57799e-06
-2.16884e-05
4.65493e-06
-2.28107e-05
2.89565e-06
-2.64404e-05
-1.76603e-05
-2.95486e-05
8.05943e-05
-4.29662e-05
3.48253e-05
-5.98122e-05
4.4428e-05
-8.09769e-05
5.61794e-05
-0.000103822
6.04962e-05
-0.000126593
6.04146e-05
-0.00014887
5.93209e-05
-0.000170747
5.84404e-05
-0.000192343
5.77983e-05
-0.000213686
5.71987e-05
-0.000234765
5.65563e-05
-0.000255562
5.58758e-05
-0.000276073
5.51838e-05
-0.000296302
5.45027e-05
-0.000316258
5.3849e-05
-0.000335955
5.32364e-05
-0.000355408
5.2678e-05
-0.000374639
5.2186e-05
-0.00039367
5.17716e-05
-0.000412526
5.14441e-05
-0.000431235
5.12113e-05
-0.000449822
5.10791e-05
-0.000468316
5.10514e-05
-0.000486745
5.11306e-05
-0.000505135
5.13172e-05
-0.000523514
5.16099e-05
-0.000541907
5.20058e-05
-0.000560337
5.2501e-05
-0.000578829
5.30908e-05
-0.000597403
5.37694e-05
-0.00061608
5.45305e-05
-0.000634879
5.53668e-05
-0.00065382
5.62707e-05
-0.00067292
5.72347e-05
-0.000692193
5.8252e-05
-0.000711655
5.93168e-05
-0.000731316
6.04249e-05
-0.000751187
6.15734e-05
-0.000771276
6.27599e-05
-0.000791593
6.3981e-05
-0.000812148
6.52307e-05
-0.000832952
6.65007e-05
-0.00085402
6.77814e-05
-0.000875368
6.90636e-05
-0.000897013
7.03401e-05
-0.000918968
7.16056e-05
-0.000941248
7.28563e-05
-0.000963862
7.40899e-05
-0.000986815
7.5305e-05
-0.00101011
7.65017e-05
-0.00103377
7.76815e-05
-0.00105779
7.88467e-05
-0.00108223
7.99989e-05
-0.00110712
8.11378e-05
-0.00113252
8.22599e-05
-0.00115848
8.33594e-05
-0.00118505
8.44293e-05
-0.00121222
8.54634e-05
-0.00123999
8.64581e-05
-0.00126831
8.74137e-05
-0.00129716
8.83351e-05
-0.00132647
8.92298e-05
-0.0013562
9.01057e-05
-0.00138634
9.09691e-05
-0.00141684
9.18241e-05
-0.0014477
9.26727e-05
-0.0014789
9.35155e-05
-0.00151043
9.43526e-05
-0.00154229
9.51833e-05
-0.00157447
9.60073e-05
-0.00160697
9.68236e-05
-0.00163977
9.76312e-05
-0.00167287
9.84285e-05
-0.00170627
9.92138e-05
-0.00173996
9.99857e-05
-0.00177393
0.000100743
-0.00180817
0.000101484
-0.00184268
0.000102209
-0.00187746
0.000102915
-0.00191249
0.000103598
-0.00194778
0.000104255
-0.00198333
0.000104883
-0.00201912
0.000105478
-0.00205514
0.00010604
-0.00209139
0.000106573
-0.00212785
0.000107081
-0.0021645
0.00010757
-0.00220133
0.000108045
-0.00223832
0.000108511
-0.00227545
0.000108966
-0.00231271
0.000109409
-0.00235008
0.000109834
-0.00238757
0.000110234
-0.00242514
0.000110602
-0.0024628
0.000110933
-0.00250052
0.000111221
-0.00253831
0.000111462
-0.00257614
0.000111653
-0.00261399
0.000111791
-0.00265187
0.000111875
-0.00268973
0.000111903
-0.00272758
0.000111873
-0.00276539
0.000111785
-0.00280313
0.000111638
-0.0028408
0.00011143
-0.00287837
0.00011116
-0.00291582
0.000110829
-0.00295312
0.000110434
-0.00299026
0.000109974
-0.00302721
0.000109449
-0.00306395
0.000108859
-0.00310045
0.000108201
-0.0031367
0.000107476
-0.00317267
0.000106684
-0.00320833
0.000105823
-0.00324366
0.000104894
-0.00327864
0.000103897
-0.00331325
0.000102832
-0.00334746
0.000101699
-0.00338124
0.000100498
-0.00341457
9.92308e-05
-0.00344744
9.78973e-05
-0.00347981
9.64982e-05
-0.00351167
9.50344e-05
-0.00354299
9.35067e-05
-0.00357376
9.19161e-05
-0.00360394
9.02636e-05
-0.00363352
8.85499e-05
-0.00366249
8.6776e-05
-0.00369082
8.49427e-05
-0.00371849
8.30508e-05
-0.00374549
8.11008e-05
-0.00377181
7.90936e-05
-0.00379741
7.70297e-05
-0.0038223
7.49096e-05
-0.00384647
7.27342e-05
-0.0038699
7.05038e-05
-0.0038926
6.82189e-05
-0.00391456
6.58797e-05
-0.00393578
6.34882e-05
-0.00395626
6.10508e-05
-0.00397597
5.85809e-05
-0.00399488
5.60993e-05
-0.00401298
5.36298e-05
-0.00403022
5.1192e-05
-0.00404657
4.87933e-05
-0.00406202
4.64257e-05
-0.00407656
4.40699e-05
-0.00409019
4.17023e-05
-0.00410292
3.93038e-05
-0.00411475
3.68643e-05
-0.00412569
3.43827e-05
-0.00413573
3.18632e-05
-0.00414487
2.93124e-05
-0.00415311
2.67362e-05
-0.00416043
2.41389e-05
-0.00416684
2.15236e-05
-0.00417232
1.8892e-05
-0.00417687
1.62461e-05
-0.00418048
1.35879e-05
-0.00418315
1.092e-05
-0.00418487
8.24472e-06
-0.00418563
5.56072e-06
-0.00418542
2.85909e-06
-0.00418413
7.8506e-08
-0.00418179
-2.60863e-06
-0.00417859
-5.30574e-06
-0.00417446
-8.01819e-06
-0.00416939
-1.07389e-05
-0.00416336
-1.34653e-05
-0.00415639
-1.61957e-05
-0.00414846
-1.89285e-05
-0.0041396
-2.16606e-05
-0.00412981
-2.43821e-05
-0.00411912
-2.70718e-05
-0.00410756
-2.97127e-05
-0.00409515
-3.23137e-05
-0.00408191
-3.48902e-05
-0.00406786
-3.74465e-05
-0.00405299
-3.99802e-05
-0.0040373
-4.24868e-05
-0.00402078
-4.49626e-05
-0.00400342
-4.74048e-05
-0.00398522
-4.98107e-05
-0.00396618
-5.21785e-05
-0.0039463
-5.45066e-05
-0.0039256
-5.67942e-05
-0.00390408
-5.90411e-05
-0.00388175
-6.12478e-05
-0.00385865
-6.34157e-05
-0.00383479
-6.55468e-05
-0.00381018
-6.76437e-05
-0.00378485
-6.97093e-05
-0.00375884
-7.17471e-05
-0.00373216
-7.37609e-05
-0.00370485
-7.57549e-05
-0.00367694
-7.7733e-05
-0.00364847
-7.96975e-05
-0.00361949
-8.16483e-05
-0.00359005
-8.35806e-05
-0.00356017
-8.5484e-05
-0.00352992
-8.73416e-05
-0.00349931
-8.91321e-05
-0.00346838
-9.08316e-05
-0.00343713
-9.24186e-05
-0.00340558
-9.38784e-05
-0.00337371
-9.52066e-05
-0.00334151
-9.64112e-05
-0.00330895
-9.75112e-05
-0.00327603
-9.85327e-05
-0.00324271
-9.95043e-05
-0.00320901
-0.00010045
-0.00317491
-0.000101388
-0.00314045
-0.000102324
-0.00310563
-0.000103259
-0.00307049
-0.000104184
-0.00303507
-0.000105089
-0.00299939
-0.000105964
-0.00296349
-0.0001068
-0.00292739
-0.000107591
-0.00289111
-0.000108333
-0.00285469
-0.000109023
-0.00281813
-0.000109659
-0.00278146
-0.000110239
-0.0027447
-0.000110762
-0.00270787
-0.000111225
-0.00267099
-0.000111628
-0.00263409
-0.000111969
-0.00259718
-0.000112247
-0.00256029
-0.000112462
-0.00252343
-0.000112615
-0.00248662
-0.000112707
-0.00244988
-0.000112737
-0.00241323
-0.000112707
-0.00237668
-0.000112617
-0.00234026
-0.00011247
-0.00230397
-0.000112265
-0.00226784
-0.000112005
-0.00223188
-0.00011169
-0.00219611
-0.000111321
-0.00216053
-0.000110902
-0.00212518
-0.000110432
-0.00209005
-0.000109914
-0.00205516
-0.000109349
-0.00202052
-0.00010874
-0.00198614
-0.000108088
-0.00195204
-0.000107395
-0.00191823
-0.000106663
-0.0018847
-0.000105894
-0.00185147
-0.00010509
-0.00181854
-0.000104254
-0.00178593
-0.000103387
-0.00175362
-0.000102493
-0.00172161
-0.000101574
-0.00168992
-0.000100633
-0.00165853
-9.96704e-05
-0.00162744
-9.86904e-05
-0.00159664
-9.7695e-05
-0.00156613
-9.66856e-05
-0.00153589
-9.56623e-05
-0.00150593
-9.46221e-05
-0.00147624
-9.35602e-05
-0.00144682
-9.24704e-05
-0.00141768
-9.13473e-05
-0.00138882
-9.01884e-05
-0.00136025
-8.8994e-05
-0.00133194
-8.77665e-05
-0.00130388
-8.65085e-05
-0.00127604
-8.52207e-05
-0.00124838
-8.39021e-05
-0.00122088
-8.25498e-05
-0.00119349
-8.11601e-05
-0.00116616
-7.97295e-05
-0.00113884
-7.82546e-05
-0.00111147
-7.6732e-05
-0.00108399
-7.51586e-05
-0.00105634
-7.35311e-05
-0.00102843
-7.18465e-05
-0.00100022
-7.01024e-05
-0.000971629
-6.82983e-05
-0.000942632
-6.64369e-05
-0.000913203
-6.45264e-05
-0.000883348
-6.25822e-05
-0.000853101
-6.06285e-05
-0.000822532
-5.86998e-05
-0.000791766
-5.68395e-05
-0.000760992
-5.50959e-05
-0.000730437
-5.35192e-05
-0.000700328
-5.21551e-05
-0.000670901
-5.10418e-05
-0.000642405
-5.01991e-05
-0.000615058
-4.96299e-05
-0.00058904
-4.93246e-05
-0.000564467
-4.92526e-05
-0.000541348
-4.93562e-05
-0.000519587
-4.9563e-05
-0.000499004
-4.9802e-05
-0.000479358
-5.00181e-05
-0.000460385
-5.01763e-05
-0.000441841
-5.02555e-05
-0.000423525
-5.02371e-05
-0.00040531
-5.00979e-05
-0.000387153
-4.98145e-05
-0.000369087
-4.93759e-05
-0.000351201
-4.87954e-05
-0.000333612
-4.81167e-05
-0.000316431
-4.74033e-05
-0.000299727
-4.67283e-05
-0.00028352
-4.61541e-05
-0.000267784
-4.57147e-05
-0.00025247
-4.54123e-05
-0.000237532
-4.52217e-05
-0.000222938
-4.5103e-05
-0.000208672
-4.50151e-05
-0.00019473
-4.49246e-05
-0.000181108
-4.48089e-05
-0.000167798
-4.46554e-05
-0.000154789
-4.4458e-05
-0.000142069
-4.42135e-05
-0.000129635
-4.39186e-05
-0.000117493
-4.35715e-05
-0.000105655
-4.31709e-05
-9.41409e-05
-4.27121e-05
-8.29729e-05
-4.21885e-05
-7.21753e-05
-4.15955e-05
-6.17736e-05
-4.09293e-05
-5.17958e-05
-4.01856e-05
-4.22739e-05
-3.93606e-05
-3.32459e-05
-3.84517e-05
-2.47494e-05
-3.74608e-05
-1.68287e-05
-3.63856e-05
-9.52805e-06
-3.52335e-05
-2.89231e-06
-3.40154e-05
3.03407e-06
-3.27425e-05
8.20873e-06
-3.14239e-05
1.25957e-05
-3.00762e-05
1.6167e-05
-2.87141e-05
1.89034e-05
-2.735e-05
2.07956e-05
-2.60008e-05
2.18465e-05
-2.46881e-05
2.20739e-05
-2.34311e-05
2.15071e-05
-2.22517e-05
2.01942e-05
-2.11728e-05
1.81931e-05
-2.02196e-05
1.55232e-05
-1.93652e-05
1.2128e-05
-1.84776e-05
8.46021e-06
-1.80206e-05
5.86822e-06
-2.02187e-05
5.83749e-06
-2.64096e-05
-1.18228e-05
-2.79164e-05
0.000108511
-3.94562e-05
4.63651e-05
-5.39294e-05
5.89012e-05
-7.26638e-05
7.49138e-05
-9.31872e-05
8.10196e-05
-0.000113777
8.10049e-05
-0.000133929
7.9472e-05
-0.000153686
7.8198e-05
-0.000173156
7.72684e-05
-0.000192375
7.64171e-05
-0.00021133
7.55121e-05
-0.00023001
7.45554e-05
-0.00024841
7.35839e-05
-0.000266536
7.26286e-05
-0.0002844
7.17129e-05
-0.000302019
7.08556e-05
-0.000319417
7.00759e-05
-0.000336621
6.93905e-05
-0.000353663
6.88136e-05
-0.000370578
6.83585e-05
-0.000387402
6.80361e-05
-0.000404177
6.7854e-05
-0.000420943
6.78168e-05
-0.000437739
6.79268e-05
-0.000454606
6.8184e-05
-0.000471582
6.85861e-05
-0.000488705
6.91289e-05
-0.00050601
6.98063e-05
-0.000523531
7.06112e-05
-0.000541296
7.15352e-05
-0.000559335
7.25692e-05
-0.000577672
7.37036e-05
-0.00059633
7.49286e-05
-0.000615329
7.62343e-05
-0.000634689
7.76113e-05
-0.000654423
7.90512e-05
-0.000674544
8.05462e-05
-0.000695061
8.20899e-05
-0.000715977
8.36758e-05
-0.000737293
8.52968e-05
-0.000759006
8.69444e-05
-0.000781115
8.86093e-05
-0.000803616
9.02825e-05
-0.000826508
9.19559e-05
-0.000849791
9.36232e-05
-0.000873465
9.52797e-05
-0.000897531
9.69218e-05
-0.000921988
9.85469e-05
-0.000946836
0.000100153
-0.000972075
0.00010174
-0.0009977
0.000103307
-0.00102371
0.000104854
-0.00105009
0.000106379
-0.00107683
0.000107879
-0.00110392
0.000109352
-0.00113135
0.00011079
-0.00115911
0.000112191
-0.0011872
0.000113551
-0.00121561
0.000114869
-0.00124435
0.00011615
-0.00127341
0.000117397
-0.0013028
0.000118617
-0.00133251
0.000119816
-0.00136253
0.000120996
-0.00139287
0.000122161
-0.00142351
0.000123313
-0.00145445
0.000124453
-0.00148568
0.000125581
-0.00151719
0.000126697
-0.00154898
0.000127801
-0.00158105
0.000128893
-0.00161339
0.000129972
-0.001646
0.000131037
-0.00167887
0.000132087
-0.00171201
0.00013312
-0.0017454
0.000134136
-0.00177905
0.000135132
-0.00181295
0.000136106
-0.00184709
0.000137057
-0.00188147
0.000137983
-0.0019161
0.00013888
-0.00195096
0.000139746
-0.00198606
0.00014058
-0.00202141
0.000141382
-0.00205698
0.000142151
-0.00209279
0.000142889
-0.00212882
0.000143597
-0.00216505
0.000144277
-0.00220147
0.000144929
-0.00223806
0.000145552
-0.00227479
0.000146142
-0.00231165
0.000146696
-0.00234863
0.000147208
-0.0023857
0.000147675
-0.00242286
0.000148091
-0.00246009
0.000148451
-0.00249738
0.000148751
-0.00253471
0.000148989
-0.00257208
0.00014916
-0.00260947
0.000149262
-0.00264686
0.000149293
-0.00268423
0.000149251
-0.00272158
0.000149133
-0.00275888
0.000148938
-0.00279612
0.000148665
-0.00283327
0.00014831
-0.00287031
0.000147874
-0.00290723
0.000147355
-0.00294401
0.000146751
-0.00298062
0.000146061
-0.00301705
0.000145285
-0.00305327
0.00014442
-0.00308926
0.000143467
-0.003125
0.000142426
-0.00316047
0.000141294
-0.00319565
0.000140073
-0.00323052
0.000138762
-0.00326505
0.000137362
-0.00329922
0.000135872
-0.00333301
0.000134293
-0.00336641
0.000132625
-0.00339938
0.00013087
-0.00343191
0.000129029
-0.00346398
0.000127101
-0.00349556
0.000125088
-0.00352663
0.000122991
-0.00355718
0.000120812
-0.00358718
0.000118551
-0.00361662
0.00011621
-0.00364546
0.00011379
-0.00367371
0.000111292
-0.00370132
0.000108718
-0.0037283
0.000106068
-0.00375461
0.000103346
-0.00378026
0.000100551
-0.00380521
9.76871e-05
-0.00382946
9.47555e-05
-0.003853
9.17597e-05
-0.00387583