/*--------------------------------*- C++ -*----------------------------------*\
| =========                 |                                                 |
| \\      /  F ield         | OpenFOAM: The Open Source CFD Toolbox           |
|  \\    /   O peration     | Version:  v2006                                 |
|   \\  /    A nd           | Website:  www.openfoam.com                      |
|    \\/     M anipulation  |                                                 |
\*---------------------------------------------------------------------------*/
FoamFile
{
    version     2.0;
    format      ascii;
    class       volScalarField;
    location    "1.75";
    object      r;
}
// * * * * * * * * * * * * * * * * * * * * * * * * * * * * * * * * * * * * * //

dimensions      [1 2 0 0 0 0 0];


internalField   nonuniform List<scalar> 
350
(
-1.49624e-24
5.01957e-24
-1.32642e-23
3.59555e-23
-9.67131e-23
2.59279e-22
-6.9235e-22
1.84147e-21
-4.87816e-21
1.28697e-20
-3.3812e-20
8.84575e-20
-2.30423e-19
5.97603e-19
-1.54297e-18
3.96578e-18
-1.01458e-17
2.58339e-17
-6.54637e-17
1.65073e-16
-4.14167e-16
1.03383e-15
-2.56715e-15
6.34065e-15
-1.55755e-14
3.80476e-14
-9.24119e-14
2.23146e-13
-5.35607e-13
1.27773e-12
-3.02898e-12
7.13427e-12
-1.66926e-11
3.87922e-11
-8.95213e-11
2.05109e-10
-4.66478e-10
1.05286e-09
-2.35775e-09
5.23736e-09
-1.15372e-08
2.51967e-08
-5.45402e-08
1.16974e-07
-2.48494e-07
5.22695e-07
-1.08825e-06
2.24175e-06
-4.56708e-06
9.19797e-06
-1.83037e-05
3.59712e-05
-6.9775e-05
0.000133511
-0.000251839
0.000467972
-0.000856004
0.00154005
-0.00272272
0.00472558
-0.008043
0.0134082
-0.021864
0.0348217
-0.0540757
0.0817259
-0.119944
0.17052
-0.234138
0.309434
-0.391973
0.473495
-0.541936
0.58279
-0.582173
0.531377
-0.431749
0.297783
-0.155893
0.0373884
0.0331389
-0.0491907
0.026478
0.00513997
-0.0195068
0.0105858
0.00619091
-0.0110535
0.000891445
0.0084638
-0.00369944
-0.00666231
0.00471303
0.00639404
-0.00498541
-0.00794184
0.00420746
0.0118072
-0.000192075
-0.0173308
-0.0131392
0.0173388
0.0412657
0.0212517
-0.0568131
-0.13488
-0.138079
0.067971
0.500195
1.265
2.17144
3.37389
4.40305
5.72945
6.45441
7.72454
7.88237
9.12735
8.66654
9.97243
9.04938
10.3501
9.32549
10.3453
9.65104
10.1262
9.94566
9.95736
10.0439
9.97068
9.99334
10.0187
9.989
9.99359
10.0109
9.99905
9.99151
10.0037
10.0067
9.99528
9.99361
10.005
10.0079
9.99578
9.98821
10.0002
10.0174
10.013
9.98291
9.95827
9.9796
10.0553
10.1376
10.1334
9.94007
9.4864
8.75686
7.79374
6.68019
5.51523
4.3905
3.37507
2.5096
1.80819
1.26462
0.859965
0.569501
0.367831
0.232029
0.143132
0.0864459
0.0511738
0.0297226
0.016954
0.00950574
0.00524297
0.00284692
0.00152294
0.000803128
0.000417778
0.000214493
0.000108746
5.44716e-05
2.697e-05
1.32049e-05
6.39608e-06
3.06608e-06
1.45513e-06
6.83943e-07
3.18476e-07
1.46962e-07
6.72249e-08
3.0491e-08
1.37165e-08
6.12136e-09
2.71076e-09
1.19142e-09
5.19835e-10
2.25204e-10
9.68902e-11
4.14054e-11
1.75785e-11
7.41526e-12
3.10856e-12
1.29523e-12
5.36473e-13
2.20916e-13
9.04562e-14
3.68331e-14
1.49169e-14
6.00914e-15
2.40816e-15
9.6016e-16
3.8092e-16
1.50382e-16
5.90849e-17
2.31053e-17
8.99371e-18
3.48496e-18
1.34438e-18
5.16352e-19
1.97471e-19
7.52013e-20
2.85196e-20
1.07718e-20
4.05216e-21
1.51833e-21
5.66704e-22
2.10708e-22
7.80485e-23
2.88027e-23
1.05904e-23
3.87988e-24
1.41638e-24
5.15245e-25
1.86786e-25
6.74822e-26
2.42979e-26
8.71974e-27
3.11896e-27
1.11201e-27
3.95195e-28
1.40004e-28
4.94436e-29
1.74075e-29
6.10993e-30
2.13807e-30
7.45954e-31
2.59488e-31
9.00022e-32
3.11267e-32
1.07342e-32
3.69128e-33
1.2658e-33
4.32864e-34
1.47619e-34
5.02054e-35
1.7029e-35
5.7606e-36
1.94356e-36
6.54017e-37
2.19509e-37
7.34847e-38
2.45377e-38
8.1728e-39
2.7153e-39
8.99881e-40
2.97495e-40
9.81095e-41
3.22766e-41
1.0593e-41
3.46823e-42
1.13284e-42
3.69151e-43
1.20012e-43
3.89258e-44
1.25965e-44
4.06692e-45
1.31007e-45
4.21058e-46
1.35026e-46
4.32038e-47
1.37932e-47
4.39393e-48
1.39666e-48
4.42981e-49
1.40198e-49
4.42755e-50
1.39527e-50
4.38766e-51
1.37686e-51
4.31156e-52
1.34733e-52
4.20154e-53
1.30752e-53
4.06063e-54
1.25849e-54
3.89247e-55
1.20149e-55
3.70119e-56
1.13786e-56
3.49118e-57
1.06903e-57
3.26702e-58
9.96452e-59
3.03326e-59
9.21541e-60
2.79432e-60
8.45659e-61
2.55433e-61
7.7006e-62
2.31708e-62
6.95872e-63
2.0859e-63
6.24071e-64
1.86361e-64
5.55471e-65
1.65255e-65
4.90722e-66
1.45448e-66
4.30305e-67
1.27069e-67
3.74545e-68
1.10197e-68
3.23622e-69
9.48667e-70
2.77586e-70
8.10759e-71
2.36373e-71
6.87891e-72
1.99829e-72
5.79447e-73
1.67722e-73
4.84605e-74
1.39769e-74
4.024e-75
1.15646e-75
3.31768e-76
9.50095e-77
2.71601e-77
7.75047e-78
2.2078e-78
6.27806e-79
1.78208e-79
5.04974e-80
1.42839e-80
4.03369e-81
1.13581e-81
3.23886e-82
7.56896e-83
)
;

boundaryField
{
    right
    {
        type            zeroGradient;
    }
    left
    {
        type            inletOutlet;
        inletValue      uniform 0;
        value           uniform 0;
    }
    top
    {
        type            zeroGradient;
    }
    bottom
    {
        type            zeroGradient;
    }
    empty
    {
        type            empty;
    }
}


// ************************************************************************* //
