/*--------------------------------*- C++ -*----------------------------------*\
| =========                 |                                                 |
| \\      /  F ield         | OpenFOAM: The Open Source CFD Toolbox           |
|  \\    /   O peration     | Version:  v2006                                 |
|   \\  /    A nd           | Website:  www.openfoam.com                      |
|    \\/     M anipulation  |                                                 |
\*---------------------------------------------------------------------------*/
FoamFile
{
    version     2.0;
    format      ascii;
    class       volScalarField;
    location    "4.25";
    object      r;
}
// * * * * * * * * * * * * * * * * * * * * * * * * * * * * * * * * * * * * * //

dimensions      [1 2 0 0 0 0 0];


internalField   nonuniform List<scalar> 
500
(
1.42916e-58
7.2968e-58
2.63454e-57
8.95572e-57
2.99705e-56
9.96402e-56
3.2973e-55
1.08653e-54
3.56544e-54
1.16512e-53
3.79149e-53
1.22861e-52
3.96442e-52
1.27377e-51
4.07514e-51
1.29813e-50
4.11729e-50
1.3002e-49
4.08792e-49
1.27962e-48
3.98776e-48
1.2372e-47
3.82124e-47
1.17492e-46
3.59616e-46
1.09569e-45
3.3231e-45
1.00322e-44
3.0146e-44
9.01649e-44
2.68415e-43
7.95288e-43
2.3452e-42
6.88277e-42
2.0103e-41
5.84334e-41
1.69026e-40
4.86547e-40
1.39368e-39
3.97247e-39
1.12668e-38
3.1796e-38
8.92821e-38
2.49439e-37
6.93365e-37
1.91754e-36
5.27591e-36
1.44414e-35
3.93253e-35
1.06529e-34
2.87072e-34
7.69527e-34
2.0519e-33
5.4422e-33
1.43572e-32
3.76726e-32
9.83181e-32
2.55199e-31
6.58796e-31
1.69136e-30
4.31842e-30
1.09648e-29
2.76857e-29
6.95145e-29
1.73559e-28
4.30886e-28
1.06366e-27
2.61074e-27
6.37131e-27
1.54592e-26
3.72928e-26
8.94401e-26
2.13254e-25
5.05485e-25
1.19111e-24
2.7901e-24
6.49677e-24
1.50375e-23
3.45971e-23
7.91191e-23
1.79841e-22
4.06303e-22
9.12335e-22
2.03606e-21
4.51596e-21
9.95451e-21
2.18067e-20
4.74733e-20
1.02704e-19
2.208e-19
4.71701e-19
1.00135e-18
2.11224e-18
4.42723e-18
9.22024e-18
1.90793e-17
3.92273e-17
8.0132e-17
1.62633e-16
3.27937e-16
6.56961e-16
1.30752e-15
2.5853e-15
5.07831e-15
9.9098e-15
1.92106e-14
3.69948e-14
7.07713e-14
1.34488e-13
2.53873e-13
4.76044e-13
8.86687e-13
1.64052e-12
3.01491e-12
5.50358e-12
9.97905e-12
1.79722e-11
3.21499e-11
5.71239e-11
1.00813e-10
1.76712e-10
3.07659e-10
5.32013e-10
9.13741e-10
1.55872e-09
2.64095e-09
4.4442e-09
7.42797e-09
1.23307e-08
2.03305e-08
3.32929e-08
5.41498e-08
8.74754e-08
1.40352e-07
2.23666e-07
3.54022e-07
5.56559e-07
8.69052e-07
1.34784e-06
2.0763e-06
3.17692e-06
4.82826e-06
7.28868e-06
1.09291e-05
1.62781e-05
2.40832e-05
3.53931e-05
5.16683e-05
7.49272e-05
0.000107937
0.000154464
0.00021959
0.000310127
0.000435128
0.000606529
0.000839953
0.00115568
0.00157982
0.00214574
0.00289573
0.00388295
0.00517369
0.00684995
0.00901229
0.011783
0.0153097
0.0197688
0.0253695
0.0323577
0.0410196
0.0516858
0.0647342
0.080593
0.0997421
0.122715
0.150097
0.182525
0.220684
0.265299
0.317133
0.376971
0.445615
0.523867
0.612513
0.712311
0.823965
0.948114
1.08531
1.23599
1.40048
1.57895
1.77142
1.97774
2.19759
2.43046
2.67566
2.93231
3.19938
3.47566
3.75981
4.05037
4.34577
4.64436
4.94447
5.24438
5.54242
5.83692
6.12631
6.40909
6.68388
6.94945
7.20469
7.44868
7.68064
7.89998
8.10628
8.29926
8.47884
8.64504
8.79806
8.93819
9.06583
9.18146
9.28565
9.37901
9.46217
9.53579
9.60053
9.65705
9.70596
9.74784
9.78323
9.81262
9.83639
9.85491
9.86841
9.87708
9.881
9.88018
9.87451
9.86382
9.84784
9.82621
9.79848
9.76416
9.72265
9.67333
9.61551
9.54848
9.47152
9.38389
9.2849
9.17388
9.05023
8.91342
8.76304
8.59879
8.4205
8.22816
8.02194
7.80217
7.56936
7.32421
7.06759
6.80055
6.52429
6.24015
5.9496
5.65421
5.35562
5.05552
4.75561
4.45757
4.16307
3.87369
3.59091
3.31611
3.05054
2.79529
2.5513
2.31932
2.09997
1.89365
1.70063
1.52101
1.35474
1.20163
1.06138
0.933567
0.817697
0.71319
0.619411
0.535686
0.461315
0.395583
0.337777
0.287193
0.243147
0.204982
0.172074
0.143837
0.119724
0.099232
0.0819
0.0673102
0.0550867
0.0448937
0.0364334
0.029444
0.0236962
0.0189912
0.0151573
0.0120474
0.00953616
0.00751737
0.00590171
0.0046144
0.00359322
0.00278671
0.0021525
0.00165595
0.00126884
0.000968357
0.000736096
0.000557331
0.000420318
0.000315744
0.000236262
0.000176101
0.000130751
9.6705e-05
7.12499e-05
5.22947e-05
3.82363e-05
2.78514e-05
2.02105e-05
1.46109e-05
1.05233e-05
7.55106e-06
5.39828e-06
3.84504e-06
2.72867e-06
1.92937e-06
1.35925e-06
9.54144e-07
6.67364e-07
4.65109e-07
3.22997e-07
2.23511e-07
1.54123e-07
1.05903e-07
7.2515e-08
4.94808e-08
3.36466e-08
2.28007e-08
1.53981e-08
1.03634e-08
6.95122e-09
4.64679e-09
3.09588e-09
2.05571e-09
1.36048e-09
8.97396e-10
5.89989e-10
3.86614e-10
2.52519e-10
1.64399e-10
1.06684e-10
6.90086e-11
4.44955e-11
2.85987e-11
1.83231e-11
1.17026e-11
7.45075e-12
4.72893e-12
2.99209e-12
1.88732e-12
1.1868e-12
7.44011e-13
4.65005e-13
2.89747e-13
1.79998e-13
1.11484e-13
6.88432e-14
4.23854e-14
2.60187e-14
1.59249e-14
9.71836e-15
5.91347e-15
3.58782e-15
2.17052e-15
1.30933e-15
7.87572e-16
4.72383e-16
2.82532e-16
1.68506e-16
1.00217e-16
5.94371e-17
3.51531e-17
2.07333e-17
1.21948e-17
7.15306e-18
4.1843e-18
2.44103e-18
1.4202e-18
8.24057e-19
4.76871e-19
2.75224e-19
1.58424e-19
9.09506e-20
5.20774e-20
2.9741e-20
1.69407e-20
9.62451e-21
5.45388e-21
3.08259e-21
1.73786e-21
9.77257e-22
5.48152e-22
3.06688e-22
1.7116e-22
9.52838e-23
5.29122e-23
2.931e-23
1.61958e-23
8.92737e-24
4.90887e-24
2.69266e-24
1.47343e-24
8.04318e-25
4.38008e-25
2.37956e-25
1.28967e-25
6.97313e-26
3.76142e-26
2.02421e-26
1.08678e-26
5.82121e-27
3.11084e-27
1.65859e-27
8.82265e-28
4.68235e-28
2.47935e-28
1.30986e-28
6.90443e-29
3.63122e-29
1.90547e-29
9.97659e-30
5.21188e-30
2.71672e-30
1.41298e-30
7.33285e-31
3.79716e-31
1.96199e-31
1.01156e-31
5.20415e-32
2.6716e-32
1.36855e-32
6.99558e-33
3.5683e-33
1.81627e-33
9.2253e-34
4.67593e-34
2.36509e-34
1.19377e-34
6.013e-35
3.02248e-35
1.51614e-35
7.58973e-36
3.79161e-36
1.89033e-36
9.40522e-37
4.67007e-37
2.31421e-37
1.14449e-37
5.64876e-38
2.78247e-38
1.36787e-38
6.71127e-39
3.28631e-39
1.60606e-39
7.83368e-40
3.81352e-40
1.85287e-40
8.98511e-41
4.34878e-41
2.10078e-41
1.01289e-41
4.87438e-42
2.34128e-42
1.12245e-42
5.37111e-43
2.56535e-43
1.22298e-43
5.81944e-44
2.76403e-44
1.31049e-44
6.20685e-45
2.96088e-45
1.55073e-45
)
;

boundaryField
{
    right
    {
        type            zeroGradient;
    }
    left
    {
        type            inletOutlet;
        inletValue      uniform 0;
        value           uniform 0;
    }
    top
    {
        type            zeroGradient;
    }
    bottom
    {
        type            zeroGradient;
    }
    empty
    {
        type            empty;
    }
}


// ************************************************************************* //
