/*--------------------------------*- C++ -*----------------------------------*\
| =========                 |                                                 |
| \\      /  F ield         | OpenFOAM: The Open Source CFD Toolbox           |
|  \\    /   O peration     | Version:  v2006                                 |
|   \\  /    A nd           | Website:  www.openfoam.com                      |
|    \\/     M anipulation  |                                                 |
\*---------------------------------------------------------------------------*/
FoamFile
{
    version     2.0;
    format      ascii;
    class       volVectorField;
    location    "14";
    object      U;
}
// * * * * * * * * * * * * * * * * * * * * * * * * * * * * * * * * * * * * * //

dimensions      [0 1 -1 0 0 0 0];


internalField   nonuniform List<vector> 
52500
(
(-0.000322152 -0.001583 0)
(0.000741603 -0.0025483 0)
(0.00164786 -0.00247722 0)
(0.0022833 -0.00226625 0)
(0.00289247 -0.00218006 0)
(0.0034604 -0.00215998 0)
(0.00403272 -0.00215853 0)
(0.00459049 -0.00214781 0)
(0.00512949 -0.00212318 0)
(0.0056412 -0.00208941 0)
(0.00612211 -0.00204853 0)
(0.00657124 -0.00200242 0)
(0.00698147 -0.00195135 0)
(0.00735032 -0.00189407 0)
(0.00767266 -0.00183139 0)
(0.00794488 -0.00176167 0)
(0.0081634 -0.00168611 0)
(0.00832214 -0.00160366 0)
(0.00841743 -0.00151449 0)
(0.00844332 -0.00141833 0)
(0.0083991 -0.00131542 0)
(0.00828285 -0.00120742 0)
(0.00809311 -0.00109455 0)
(0.0078216 -0.000978543 0)
(0.00746573 -0.000856637 0)
(0.00703007 -0.00073109 0)
(0.00650714 -0.000603828 0)
(0.00589649 -0.000474513 0)
(0.00520031 -0.000345786 0)
(0.00441693 -0.000218302 0)
(0.00354554 -9.21628e-05 0)
(0.00258612 3.46192e-05 0)
(0.00153569 0.000163528 0)
(0.000391316 0.000297868 0)
(-0.000847493 0.000437992 0)
(-0.00218392 0.00058292 0)
(-0.00361924 0.000730086 0)
(-0.00515309 0.000876236 0)
(-0.00678379 0.00101902 0)
(-0.00850928 0.00115871 0)
(-0.0103286 0.00129923 0)
(-0.0122433 0.00144759 0)
(-0.0142579 0.00161138 0)
(-0.0163792 0.00179493 0)
(-0.0186131 0.00199583 0)
(-0.0209618 0.00220389 0)
(-0.0234204 0.00240335 0)
(-0.025976 0.00257761 0)
(-0.0286092 0.00271424 0)
(-0.0312968 0.00280791 0)
(-0.0340158 0.00286045 0)
(-0.0367461 0.00287868 0)
(-0.0394722 0.00287143 0)
(-0.042183 0.00284725 0)
(-0.0448719 0.00281312 0)
(-0.0475348 0.00277413 0)
(-0.0501702 0.00273356 0)
(-0.0527778 0.0026931 0)
(-0.0553575 0.00265308 0)
(-0.0579095 0.00261284 0)
(-0.0604334 0.00257109 0)
(-0.0629283 0.00252646 0)
(-0.0653927 0.00247808 0)
(-0.0678249 0.00242586 0)
(-0.0702234 0.00237063 0)
(-0.0725871 0.0023138 0)
(-0.0749157 0.00225683 0)
(-0.0772092 0.00220069 0)
(-0.0794681 0.00214567 0)
(-0.0816928 0.00209138 0)
(-0.0838837 0.00203708 0)
(-0.0860409 0.00198205 0)
(-0.0881644 0.0019259 0)
(-0.0902543 0.00186879 0)
(-0.0923108 0.00181143 0)
(-0.094335 0.00175493 0)
(-0.0963283 0.00170061 0)
(-0.0982927 0.00164972 0)
(-0.100231 0.00160322 0)
(-0.102146 0.0015617 0)
(-0.104041 0.00152535 0)
(-0.105918 0.00149396 0)
(-0.107781 0.00146707 0)
(-0.109633 0.00144407 0)
(-0.111475 0.00142432 0)
(-0.113309 0.00140729 0)
(-0.115137 0.00139267 0)
(-0.116961 0.00138036 0)
(-0.11878 0.00137037 0)
(-0.120597 0.00136259 0)
(-0.122411 0.0013565 0)
(-0.124222 0.00135124 0)
(-0.12603 0.0013459 0)
(-0.127833 0.00134035 0)
(-0.129632 0.00133585 0)
(-0.131427 0.00133514 0)
(-0.133219 0.00134159 0)
(-0.135012 0.00135773 0)
(-0.136811 0.00138398 0)
(-0.138622 0.00141831 0)
(-0.140448 0.00145703 0)
(-0.142292 0.00149616 0)
(-0.144155 0.00153273 0)
(-0.146035 0.00156527 0)
(-0.147933 0.00159363 0)
(-0.149847 0.00161837 0)
(-0.151775 0.00164027 0)
(-0.153717 0.00166 0)
(-0.155671 0.00167807 0)
(-0.157636 0.0016949 0)
(-0.159612 0.00171085 0)
(-0.161597 0.00172625 0)
(-0.163593 0.0017414 0)
(-0.165597 0.00175654 0)
(-0.16761 0.00177189 0)
(-0.169631 0.00178762 0)
(-0.171661 0.00180384 0)
(-0.173699 0.00182069 0)
(-0.175744 0.00183827 0)
(-0.177798 0.00185671 0)
(-0.179859 0.00187617 0)
(-0.181929 0.00189691 0)
(-0.184006 0.0019193 0)
(-0.186091 0.00194383 0)
(-0.188185 0.00197103 0)
(-0.190287 0.0020014 0)
(-0.192397 0.0020352 0)
(-0.194516 0.00207227 0)
(-0.196643 0.00211186 0)
(-0.198777 0.00215257 0)
(-0.200915 0.00219252 0)
(-0.203056 0.00222976 0)
(-0.205196 0.00226297 0)
(-0.207332 0.00229205 0)
(-0.209462 0.00231862 0)
(-0.211585 0.00234598 0)
(-0.213703 0.00237864 0)
(-0.215819 0.00242128 0)
(-0.217939 0.00247758 0)
(-0.220073 0.00254916 0)
(-0.222228 0.0026353 0)
(-0.224414 0.00273331 0)
(-0.226638 0.00283937 0)
(-0.228904 0.00294948 0)
(-0.231218 0.00306041 0)
(-0.233579 0.0031704 0)
(-0.23599 0.00327969 0)
(-0.238452 0.00339059 0)
(-0.240968 0.00350699 0)
(-0.243542 0.00363315 0)
(-0.246181 0.00377181 0)
(-0.248892 0.00392245 0)
(-0.251682 0.0040803 0)
(-0.254552 0.0042371 0)
(-0.2575 0.00438322 0)
(-0.26052 0.00451019 0)
(-0.263599 0.00461228 0)
(-0.266727 0.00468652 0)
(-0.269887 0.00473079 0)
(-0.273062 0.00474006 0)
(-0.276229 0.00470522 0)
(-0.27936 0.0046158 0)
(-0.282425 0.0044641 0)
(-0.285388 0.00424975 0)
(-0.288218 0.00398254 0)
(-0.290888 0.00368166 0)
(-0.293383 0.00337148 0)
(-0.295703 0.00307561 0)
(-0.297855 0.00281168 0)
(-0.299856 0.00258852 0)
(-0.301728 0.00240639 0)
(-0.303488 0.00225926 0)
(-0.305154 0.0021378 0)
(-0.306736 0.00203208 0)
(-0.30824 0.00193324 0)
(-0.30967 0.00183427 0)
(-0.311025 0.00173017 0)
(-0.312301 0.00161762 0)
(-0.313493 0.00149467 0)
(-0.314597 0.00136035 0)
(-0.315606 0.00121445 0)
(-0.316513 0.00105732 0)
(-0.317314 0.000889867 0)
(-0.318 0.000713667 0)
(-0.318569 0.000531229 0)
(-0.319016 0.000346423 0)
(-0.319338 0.000164574 0)
(-0.319537 -7.83626e-06 0)
(-0.319615 -0.000164201 0)
(-0.319581 -0.000300743 0)
(-0.319454 -0.000413884 0)
(-0.319236 -0.000505384 0)
(-0.31894 -0.000576015 0)
(-0.318574 -0.000626713 0)
(-0.318147 -0.000659052 0)
(-0.317667 -0.000675459 0)
(-0.317142 -0.000679355 0)
(-0.316577 -0.00067521 0)
(-0.315975 -0.000668366 0)
(-0.315339 -0.000664513 0)
(-0.314668 -0.000668891 0)
(-0.313958 -0.000685435 0)
(-0.313206 -0.000716152 0)
(-0.312406 -0.000760931 0)
(-0.311553 -0.0008178 0)
(-0.310643 -0.000883541 0)
(-0.309671 -0.00095444 0)
(-0.308636 -0.00102699 0)
(-0.307536 -0.00109838 0)
(-0.306373 -0.00116677 0)
(-0.305145 -0.00123125 0)
(-0.303854 -0.00129173 0)
(-0.302502 -0.00134863 0)
(-0.30109 -0.00140262 0)
(-0.299619 -0.00145439 0)
(-0.298091 -0.00150451 0)
(-0.296506 -0.00155332 0)
(-0.294867 -0.00160097 0)
(-0.293174 -0.00164747 0)
(-0.291429 -0.00169271 0)
(-0.289633 -0.00173659 0)
(-0.28779 -0.001779 0)
(-0.285899 -0.00181986 0)
(-0.283963 -0.00185914 0)
(-0.281983 -0.00189682 0)
(-0.279963 -0.0019329 0)
(-0.277902 -0.00196735 0)
(-0.275804 -0.00200013 0)
(-0.273671 -0.00203119 0)
(-0.271504 -0.00206044 0)
(-0.269305 -0.0020878 0)
(-0.267077 -0.00211316 0)
(-0.264821 -0.00213639 0)
(-0.26254 -0.00215738 0)
(-0.260236 -0.00217597 0)
(-0.257911 -0.002192 0)
(-0.255567 -0.00220532 0)
(-0.253207 -0.00221574 0)
(-0.250833 -0.00222304 0)
(-0.248447 -0.00222698 0)
(-0.246052 -0.00222729 0)
(-0.24365 -0.00222362 0)
(-0.241244 -0.00221551 0)
(-0.238836 -0.00220236 0)
(-0.236429 -0.00218337 0)
(-0.234028 -0.00215756 0)
(-0.231634 -0.00212397 0)
(-0.229252 -0.00208196 0)
(-0.226887 -0.00203154 0)
(-0.22454 -0.00197343 0)
(-0.222216 -0.00190893 0)
(-0.219918 -0.00183938 0)
(-0.217648 -0.0017657 0)
(-0.215407 -0.00168827 0)
(-0.213198 -0.00160723 0)
(-0.211024 -0.001523 0)
(-0.208885 -0.00143656 0)
(-0.206785 -0.00134936 0)
(-0.204725 -0.00126281 0)
(-0.202705 -0.00117767 0)
(-0.200728 -0.0010936 0)
(-0.198796 -0.00100904 0)
(-0.196912 -0.00092139 0)
(-0.195082 -0.000827597 0)
(-0.193313 -0.000724834 0)
(-0.191613 -0.00061111 0)
(-0.189993 -0.000485593 0)
(-0.188463 -0.00034857 0)
(-0.187036 -0.00020114 0)
(-0.185722 -4.4892e-05 0)
(-0.184531 0.000118165 0)
(-0.183474 0.000285309 0)
(-0.182559 0.000452639 0)
(-0.181791 0.000614842 0)
(-0.181172 0.000765521 0)
(-0.1807 0.000898085 0)
(-0.180368 0.00100688 0)
(-0.180161 0.00108852 0)
(-0.180064 0.00114379 0)
(-0.180058 0.00118071 0)
(-0.180121 0.00121843 0)
(-0.180233 0.00127518 0)
(-0.180378 0.00135633 0)
(-0.180534 0.00143124 0)
(-0.180656 0.0014227 0)
(-0.180655 0.00123017 0)
(-0.180412 0.00078143 0)
(-0.1798 9.44264e-05 0)
(-0.17872 -0.000711259 0)
(-0.177141 -0.00146697 0)
(-0.175101 -0.00203488 0)
(-0.172697 -0.00235888 0)
(-0.170044 -0.0024629 0)
(-0.167251 -0.0024175 0)
(-0.164402 -0.00230355 0)
(-0.161552 -0.00218819 0)
(-0.15873 -0.00211442 0)
(-0.155942 -0.00210077 0)
(-0.153177 -0.0021464 0)
(-0.150416 -0.00223849 0)
(-0.147642 -0.00235937 0)
(-0.144837 -0.00249216 0)
(-0.141992 -0.00262419 0)
(-0.139105 -0.00274787 0)
(-0.136177 -0.00285987 0)
(-0.133214 -0.00295933 0)
(-0.130222 -0.00304623 0)
(-0.127208 -0.00312059 0)
(-0.124175 -0.0031824 0)
(-0.121126 -0.00323204 0)
(-0.118064 -0.00327052 0)
(-0.11499 -0.00329963 0)
(-0.111906 -0.00332169 0)
(-0.108817 -0.00333918 0)
(-0.105726 -0.00335428 0)
(-0.102634 -0.0033685 0)
(-0.0995462 -0.00338267 0)
(-0.0964637 -0.00339734 0)
(-0.0933883 -0.00341336 0)
(-0.0903217 -0.00343138 0)
(-0.0872659 -0.00345118 0)
(-0.0842223 -0.00347297 0)
(-0.0811919 -0.00349697 0)
(-0.0781755 -0.00352332 0)
(-0.0751736 -0.00355216 0)
(-0.0721864 -0.00358366 0)
(-0.0692141 -0.0036178 0)
(-0.0662572 -0.00365444 0)
(-0.0633158 -0.00369567 0)
(-0.0603895 -0.00374101 0)
(-0.0574778 -0.0037901 0)
(-0.0545796 -0.00384312 0)
(-0.0516929 -0.00389986 0)
(-0.0488158 -0.00395851 0)
(-0.0459452 -0.00401941 0)
(-0.0430777 -0.00408038 0)
(-0.0402094 -0.00414059 0)
(-0.0373361 -0.00419843 0)
(-0.034454 -0.00425172 0)
(-0.0315596 -0.0042979 0)
(-0.0286505 -0.00433454 0)
(-0.0257255 -0.00436075 0)
(-0.0227841 -0.00438052 0)
(-0.0198238 -0.00440671 0)
(-0.016833 -0.00446463 0)
(-0.0137941 -0.00458902 0)
(-0.0107059 -0.00479374 0)
(-0.00754127 -0.00501477 0)
(-0.00420102 -0.00488392 0)
(-0.00107486 -0.00340022 0)
(-0.0016014 0.000914902 0)
(-0.00306032 -0.000566225 0)
(-0.00531843 -2.86779e-06 0)
(-0.00764701 0.000282591 0)
(-0.00998644 0.00031711 0)
(-0.0122953 0.000334365 0)
(-0.014603 0.000365185 0)
(-0.0169185 0.000407478 0)
(-0.0192351 0.000457086 0)
(-0.0215482 0.000512789 0)
(-0.0238553 0.000575488 0)
(-0.0261552 0.00064429 0)
(-0.0284463 0.000719623 0)
(-0.0307274 0.000802288 0)
(-0.032997 0.000892109 0)
(-0.0352536 0.000990101 0)
(-0.0374956 0.0010955 0)
(-0.0397215 0.001209 0)
(-0.0419296 0.00133016 0)
(-0.0441177 0.00145879 0)
(-0.0462878 0.00159458 0)
(-0.048441 0.00173615 0)
(-0.0505756 0.00188202 0)
(-0.0526915 0.00203105 0)
(-0.054788 0.00218395 0)
(-0.0568651 0.0023381 0)
(-0.0589239 0.00249313 0)
(-0.0609656 0.00264999 0)
(-0.0629929 0.00280815 0)
(-0.0650087 0.00296867 0)
(-0.0670164 0.00313239 0)
(-0.0690182 0.00330029 0)
(-0.071016 0.00347201 0)
(-0.0730102 0.0036481 0)
(-0.0750004 0.00382685 0)
(-0.0769862 0.00400648 0)
(-0.0789677 0.00418505 0)
(-0.0809457 0.00436097 0)
(-0.0829216 0.00453366 0)
(-0.0848963 0.00470403 0)
(-0.0868696 0.00487434 0)
(-0.0888384 0.00504717 0)
(-0.0907974 0.00522382 0)
(-0.0927385 0.00540259 0)
(-0.0946534 0.00557811 0)
(-0.0965354 0.00574202 0)
(-0.0983812 0.00588495 0)
(-0.100191 0.00599898 0)
(-0.101969 0.00607958 0)
(-0.103721 0.00612631 0)
(-0.105452 0.0061423 0)
(-0.107168 0.00613295 0)
(-0.108872 0.00610449 0)
(-0.110567 0.00606284 0)
(-0.112254 0.006013 0)
(-0.113934 0.00595877 0)
(-0.115606 0.00590269 0)
(-0.117272 0.00584623 0)
(-0.118931 0.00578991 0)
(-0.120584 0.00573359 0)
(-0.122234 0.00567677 0)
(-0.12388 0.00561896 0)
(-0.125525 0.00555988 0)
(-0.127171 0.00549959 0)
(-0.12882 0.0054385 0)
(-0.130472 0.00537714 0)
(-0.132129 0.00531603 0)
(-0.13379 0.00525553 0)
(-0.135455 0.00519584 0)
(-0.137125 0.00513705 0)
(-0.1388 0.00507925 0)
(-0.140481 0.00502267 0)
(-0.142169 0.00496771 0)
(-0.143866 0.00491494 0)
(-0.145575 0.00486507 0)
(-0.147296 0.00481884 0)
(-0.149031 0.00477689 0)
(-0.150782 0.00473973 0)
(-0.152548 0.00470762 0)
(-0.154329 0.00468063 0)
(-0.156125 0.00465857 0)
(-0.157934 0.00464107 0)
(-0.159757 0.00462764 0)
(-0.161592 0.00461771 0)
(-0.163438 0.00461074 0)
(-0.165294 0.00460619 0)
(-0.167161 0.00460353 0)
(-0.169036 0.00460215 0)
(-0.17092 0.00460125 0)
(-0.172812 0.00459989 0)
(-0.17471 0.00459705 0)
(-0.176613 0.00459191 0)
(-0.178521 0.00458419 0)
(-0.180434 0.00457435 0)
(-0.182351 0.00456371 0)
(-0.184271 0.00455428 0)
(-0.186194 0.00454828 0)
(-0.188118 0.00454766 0)
(-0.190043 0.00455352 0)
(-0.191965 0.00456586 0)
(-0.193885 0.00458369 0)
(-0.195802 0.00460536 0)
(-0.197716 0.00462912 0)
(-0.199627 0.00465344 0)
(-0.201538 0.00467729 0)
(-0.203447 0.00470007 0)
(-0.205356 0.0047215 0)
(-0.207264 0.00474149 0)
(-0.209173 0.00476005 0)
(-0.211081 0.0047772 0)
(-0.212988 0.00479302 0)
(-0.214895 0.00480757 0)
(-0.2168 0.00482091 0)
(-0.218703 0.00483309 0)
(-0.220604 0.00484414 0)
(-0.222501 0.00485409 0)
(-0.224393 0.00486295 0)
(-0.226279 0.00487075 0)
(-0.228159 0.00487751 0)
(-0.230032 0.00488323 0)
(-0.231895 0.00488787 0)
(-0.233748 0.00489135 0)
(-0.235589 0.00489348 0)
(-0.237416 0.0048939 0)
(-0.239228 0.0048921 0)
(-0.241023 0.00488735 0)
(-0.242796 0.00487879 0)
(-0.244546 0.00486545 0)
(-0.24627 0.00484642 0)
(-0.247964 0.00482099 0)
(-0.249628 0.00478884 0)
(-0.251259 0.00475027 0)
(-0.252857 0.00470637 0)
(-0.254425 0.00465909 0)
(-0.255964 0.00461124 0)
(-0.257478 0.00456624 0)
(-0.258969 0.00452779 0)
(-0.260439 0.00449931 0)
(-0.261891 0.00448345 0)
(-0.263325 0.00448161 0)
(-0.264738 0.00449382 0)
(-0.26613 0.00451889 0)
(-0.267496 0.00455469 0)
(-0.268835 0.00459876 0)
(-0.270146 0.00464882 0)
(-0.271425 0.00470345 0)
(-0.272674 0.00476247 0)
(-0.273891 0.00482702 0)
(-0.275075 0.00489901 0)
(-0.276223 0.0049802 0)
(-0.27733 0.00507095 0)
(-0.278389 0.00516918 0)
(-0.279391 0.00527006 0)
(-0.280329 0.00536677 0)
(-0.281195 0.00545193 0)
(-0.281981 0.00551912 0)
(-0.282684 0.00556374 0)
(-0.283296 0.00558277 0)
(-0.283816 0.0055739 0)
(-0.284243 0.00553436 0)
(-0.284586 0.00546028 0)
(-0.284855 0.00534744 0)
(-0.28507 0.00519304 0)
(-0.285254 0.00499802 0)
(-0.285433 0.00476857 0)
(-0.285634 0.00451591 0)
(-0.285872 0.00425425 0)
(-0.286157 0.0039977 0)
(-0.286486 0.00375728 0)
(-0.286849 0.00353925 0)
(-0.287231 0.00334485 0)
(-0.287618 0.00317139 0)
(-0.287994 0.00301388 0)
(-0.28835 0.0028666 0)
(-0.288678 0.0027242 0)
(-0.288976 0.00258232 0)
(-0.289241 0.00243774 0)
(-0.289476 0.00228822 0)
(-0.289683 0.00213233 0)
(-0.289865 0.00196917 0)
(-0.290027 0.00179832 0)
(-0.290172 0.00161966 0)
(-0.290306 0.00143344 0)
(-0.290432 0.00124027 0)
(-0.290554 0.00104119 0)
(-0.290673 0.00083792 0)
(-0.290791 0.000632877 0)
(-0.290908 0.000429147 0)
(-0.29102 0.000230037 0)
(-0.291116 3.75852e-05 0)
(-0.291178 -0.000146885 0)
(-0.2912 -0.000324047 0)
(-0.291173 -0.000493445 0)
(-0.29109 -0.000654619 0)
(-0.290942 -0.000807303 0)
(-0.290726 -0.000951537 0)
(-0.290438 -0.00108772 0)
(-0.290076 -0.00121664 0)
(-0.289642 -0.00133952 0)
(-0.289139 -0.00145799 0)
(-0.288569 -0.00157398 0)
(-0.28794 -0.00168955 0)
(-0.287256 -0.00180661 0)
(-0.286523 -0.00192671 0)
(-0.285745 -0.00205085 0)
(-0.284925 -0.00217945 0)
(-0.284063 -0.00231238 0)
(-0.28316 -0.0024491 0)
(-0.282215 -0.00258883 0)
(-0.281224 -0.00273062 0)
(-0.280186 -0.00287352 0)
(-0.279099 -0.00301661 0)
(-0.277961 -0.00315904 0)
(-0.276772 -0.00330004 0)
(-0.275531 -0.00343899 0)
(-0.274239 -0.00357536 0)
(-0.272897 -0.00370876 0)
(-0.271505 -0.00383886 0)
(-0.270064 -0.00396542 0)
(-0.268577 -0.00408823 0)
(-0.267044 -0.00420714 0)
(-0.265466 -0.00432196 0)
(-0.263845 -0.00443257 0)
(-0.262184 -0.00453883 0)
(-0.260483 -0.00464061 0)
(-0.258744 -0.00473781 0)
(-0.256969 -0.00483036 0)
(-0.25516 -0.00491818 0)
(-0.253319 -0.00500123 0)
(-0.251448 -0.00507946 0)
(-0.249548 -0.00515288 0)
(-0.247622 -0.00522146 0)
(-0.245672 -0.00528522 0)
(-0.243698 -0.00534418 0)
(-0.241703 -0.00539836 0)
(-0.23969 -0.00544778 0)
(-0.237658 -0.00549247 0)
(-0.235611 -0.00553248 0)
(-0.233549 -0.00556785 0)
(-0.231473 -0.00559865 0)
(-0.229386 -0.00562492 0)
(-0.227288 -0.00564673 0)
(-0.22518 -0.00566411 0)
(-0.223062 -0.00567709 0)
(-0.220936 -0.0056857 0)
(-0.2188 -0.00568991 0)
(-0.216655 -0.00568973 0)
(-0.2145 -0.00568516 0)
(-0.212332 -0.00567628 0)
(-0.210151 -0.00566328 0)
(-0.207955 -0.00564642 0)
(-0.205743 -0.005626 0)
(-0.203515 -0.00560221 0)
(-0.201271 -0.00557505 0)
(-0.19901 -0.00554428 0)
(-0.196732 -0.00550955 0)
(-0.194438 -0.00547048 0)
(-0.192126 -0.00542668 0)
(-0.189798 -0.0053777 0)
(-0.187455 -0.00532281 0)
(-0.185099 -0.00526081 0)
(-0.182731 -0.00518996 0)
(-0.180352 -0.00510795 0)
(-0.177965 -0.00501206 0)
(-0.17557 -0.00489933 0)
(-0.173166 -0.00476689 0)
(-0.170755 -0.00461212 0)
(-0.168337 -0.00443291 0)
(-0.165912 -0.00422785 0)
(-0.163482 -0.0039963 0)
(-0.16105 -0.00373863 0)
(-0.158618 -0.00345643 0)
(-0.156191 -0.00315273 0)
(-0.153772 -0.00283236 0)
(-0.151367 -0.00250221 0)
(-0.148981 -0.00217123 0)
(-0.14662 -0.00185034 0)
(-0.144288 -0.00155193 0)
(-0.141987 -0.00128913 0)
(-0.139714 -0.001075 0)
(-0.137464 -0.000921013 0)
(-0.135219 -0.000841689 0)
(-0.132949 -0.00085321 0)
(-0.130617 -0.000973936 0)
(-0.128189 -0.00122266 0)
(-0.125665 -0.00161364 0)
(-0.123062 -0.00215365 0)
(-0.120409 -0.0028319 0)
(-0.117737 -0.00361209 0)
(-0.115056 -0.00443208 0)
(-0.112358 -0.00521676 0)
(-0.109619 -0.00589818 0)
(-0.106817 -0.00643087 0)
(-0.103941 -0.00679773 0)
(-0.101001 -0.00700713 0)
(-0.0980205 -0.00708581 0)
(-0.0950352 -0.00707113 0)
(-0.0920815 -0.00700382 0)
(-0.0891875 -0.00692095 0)
(-0.0863664 -0.00685014 0)
(-0.0836163 -0.00680639 0)
(-0.0809241 -0.00679199 0)
(-0.0782719 -0.00679962 0)
(-0.0756436 -0.0068173 0)
(-0.073029 -0.00683379 0)
(-0.0704245 -0.00684242 0)
(-0.0678323 -0.00684231 0)
(-0.0652584 -0.006837 0)
(-0.0627098 -0.00683166 0)
(-0.0601927 -0.00683018 0)
(-0.057711 -0.00683333 0)
(-0.0552657 -0.00683881 0)
(-0.0528545 -0.00684271 0)
(-0.0504743 -0.00684123 0)
(-0.048122 -0.0068317 0)
(-0.0457945 -0.00681325 0)
(-0.0434885 -0.00678653 0)
(-0.0412029 -0.00675221 0)
(-0.0389422 -0.00671113 0)
(-0.0367104 -0.00666303 0)
(-0.0345059 -0.00660596 0)
(-0.0323348 -0.00654388 0)
(-0.0302034 -0.0064759 0)
(-0.0281131 -0.00640373 0)
(-0.0260679 -0.00632715 0)
(-0.0240737 -0.00624741 0)
(-0.0221337 -0.00616414 0)
(-0.0202552 -0.00607699 0)
(-0.018447 -0.00598639 0)
(-0.0167113 -0.00589191 0)
(-0.0150545 -0.00579643 0)
(-0.0134873 -0.00570159 0)
(-0.0120141 -0.00560961 0)
(-0.0106422 -0.00552345 0)
(-0.00937736 -0.00544568 0)
(-0.00821804 -0.00537986 0)
(-0.0071679 -0.00532786 0)
(-0.00622573 -0.00529163 0)
(-0.00538649 -0.00527254 0)
(-0.00464468 -0.00527041 0)
(-0.00399096 -0.00528497 0)
(-0.00341419 -0.00531447 0)
(-0.00290033 -0.00535729 0)
(-0.00243408 -0.00541152 0)
(-0.00201499 -0.0054713 0)
(-0.00161863 -0.0055317 0)
(-0.00131487 -0.00555582 0)
(-0.00103569 -0.00564439 0)
(-0.00087415 -0.00591934 0)
(-0.000245703 -0.0052481 0)
(-0.00186575 0.00580834 0)
(-0.00349225 0.00363065 0)
(-0.00598385 0.00478572 0)
(-0.00862842 0.00524356 0)
(-0.0113265 0.00526351 0)
(-0.013971 0.00525605 0)
(-0.0165954 0.00527513 0)
(-0.0192059 0.00529893 0)
(-0.021797 0.00531995 0)
(-0.0243634 0.00534011 0)
(-0.0269014 0.00536099 0)
(-0.0294082 0.00538295 0)
(-0.0318806 0.00540622 0)
(-0.0343159 0.00543106 0)
(-0.0367109 0.00545776 0)
(-0.0390629 0.00548659 0)
(-0.0413693 0.00551774 0)
(-0.0436278 0.00555152 0)
(-0.0458363 0.0055882 0)
(-0.0479933 0.00562806 0)
(-0.0500979 0.00567118 0)
(-0.0521493 0.00571819 0)
(-0.0541474 0.00576894 0)
(-0.0560925 0.00582337 0)
(-0.0579853 0.0058819 0)
(-0.0598277 0.00594524 0)
(-0.061622 0.0060145 0)
(-0.0633716 0.00609097 0)
(-0.0650798 0.00617556 0)
(-0.0667506 0.00626863 0)
(-0.068387 0.00636981 0)
(-0.0699919 0.00647822 0)
(-0.071567 0.00659263 0)
(-0.0731137 0.00671191 0)
(-0.0746328 0.00683493 0)
(-0.0761248 0.00696066 0)
(-0.0775911 0.00708817 0)
(-0.0790334 0.00721651 0)
(-0.0804539 0.00734464 0)
(-0.0818553 0.00747147 0)
(-0.0832396 0.0075958 0)
(-0.0846074 0.00771625 0)
(-0.0859577 0.00783113 0)
(-0.0872877 0.00793818 0)
(-0.0885944 0.00803458 0)
(-0.0898758 0.00811712 0)
(-0.0911324 0.00818274 0)
(-0.092368 0.00822922 0)
(-0.0935891 0.00825576 0)
(-0.0948041 0.00826311 0)
(-0.0960215 0.00825343 0)
(-0.0972487 0.00822975 0)
(-0.0984914 0.0081954 0)
(-0.0997534 0.00815358 0)
(-0.101036 0.00810711 0)
(-0.102341 0.00805827 0)
(-0.103668 0.00800883 0)
(-0.105015 0.00796011 0)
(-0.106382 0.007913 0)
(-0.107767 0.00786807 0)
(-0.109171 0.00782557 0)
(-0.110593 0.00778549 0)
(-0.112033 0.00774754 0)
(-0.11349 0.00771124 0)
(-0.114964 0.00767602 0)
(-0.116455 0.00764131 0)
(-0.117962 0.00760674 0)
(-0.119484 0.00757223 0)
(-0.12102 0.00753804 0)
(-0.12257 0.00750476 0)
(-0.124133 0.00747322 0)
(-0.12571 0.00744437 0)
(-0.127301 0.00741912 0)
(-0.128906 0.00739817 0)
(-0.130525 0.00738195 0)
(-0.132158 0.00737058 0)
(-0.133804 0.00736388 0)
(-0.135464 0.00736147 0)
(-0.137137 0.00736284 0)
(-0.138821 0.00736744 0)
(-0.140516 0.00737472 0)
(-0.142221 0.00738421 0)
(-0.143936 0.00739552 0)
(-0.14566 0.00740831 0)
(-0.147393 0.00742231 0)
(-0.149134 0.00743726 0)
(-0.150884 0.00745291 0)
(-0.152642 0.00746895 0)
(-0.154409 0.00748498 0)
(-0.156186 0.00750053 0)
(-0.157972 0.007515 0)
(-0.15977 0.00752783 0)
(-0.161579 0.00753861 0)
(-0.163401 0.00754742 0)
(-0.165237 0.00755498 0)
(-0.167087 0.00756272 0)
(-0.168951 0.00757243 0)
(-0.170828 0.00758568 0)
(-0.172716 0.00760337 0)
(-0.174613 0.00762536 0)
(-0.176519 0.00765073 0)
(-0.178433 0.00767814 0)
(-0.180354 0.00770632 0)
(-0.182282 0.00773428 0)
(-0.184217 0.0077614 0)
(-0.186159 0.0077873 0)
(-0.188107 0.00781172 0)
(-0.190061 0.00783447 0)
(-0.192022 0.00785536 0)
(-0.193988 0.00787424 0)
(-0.19596 0.007891 0)
(-0.197936 0.00790554 0)
(-0.199917 0.00791776 0)
(-0.201901 0.00792759 0)
(-0.203888 0.00793494 0)
(-0.205877 0.00793972 0)
(-0.207867 0.00794184 0)
(-0.209858 0.00794117 0)
(-0.211849 0.0079376 0)
(-0.213838 0.00793099 0)
(-0.215824 0.0079212 0)
(-0.217807 0.00790807 0)
(-0.219785 0.00789141 0)
(-0.221758 0.00787095 0)
(-0.223724 0.00784638 0)
(-0.225683 0.00781728 0)
(-0.227634 0.00778314 0)
(-0.229577 0.00774346 0)
(-0.231511 0.00769781 0)
(-0.233439 0.00764604 0)
(-0.235361 0.00758848 0)
(-0.237278 0.00752615 0)
(-0.239192 0.00746087 0)
(-0.241103 0.00739525 0)
(-0.243012 0.00733245 0)
(-0.244918 0.00727573 0)
(-0.24682 0.00722791 0)
(-0.248714 0.00719084 0)
(-0.250597 0.00716503 0)
(-0.252464 0.00714969 0)
(-0.25431 0.0071428 0)
(-0.256132 0.00714164 0)
(-0.257927 0.0071433 0)
(-0.259691 0.00714534 0)
(-0.261422 0.00714611 0)
(-0.26312 0.00714485 0)
(-0.264781 0.00714152 0)
(-0.266404 0.00713628 0)
(-0.267986 0.00712892 0)
(-0.269524 0.00711839 0)
(-0.271013 0.00710244 0)
(-0.27245 0.00707777 0)
(-0.273833 0.00704041 0)
(-0.275162 0.00698632 0)
(-0.276439 0.00691191 0)
(-0.277668 0.00681447 0)
(-0.278854 0.00669228 0)
(-0.280003 0.00654424 0)
(-0.281118 0.00636991 0)
(-0.282204 0.00617126 0)
(-0.283263 0.00595366 0)
(-0.284301 0.0057254 0)
(-0.285324 0.00549654 0)
(-0.286336 0.00527672 0)
(-0.287342 0.0050726 0)
(-0.288344 0.00488611 0)
(-0.289337 0.00471419 0)
(-0.290317 0.00455035 0)
(-0.291276 0.00438707 0)
(-0.292204 0.00421809 0)
(-0.293093 0.00403974 0)
(-0.293936 0.00385105 0)
(-0.29473 0.00365311 0)
(-0.295471 0.00344809 0)
(-0.296159 0.0032383 0)
(-0.296794 0.00302575 0)
(-0.297378 0.00281185 0)
(-0.297912 0.00259748 0)
(-0.298395 0.0023831 0)
(-0.29883 0.00216885 0)
(-0.299216 0.00195471 0)
(-0.299555 0.00174051 0)
(-0.299847 0.00152599 0)
(-0.300094 0.00131085 0)
(-0.300294 0.00109467 0)
(-0.300449 0.000876753 0)
(-0.300559 0.000656125 0)
(-0.300622 0.000431534 0)
(-0.30064 0.000201696 0)
(-0.300613 -3.34657e-05 0)
(-0.300541 -0.000274324 0)
(-0.300422 -0.00051941 0)
(-0.300255 -0.000767648 0)
(-0.300038 -0.00101766 0)
(-0.299769 -0.00126741 0)
(-0.299446 -0.00151431 0)
(-0.299069 -0.00175573 0)
(-0.298635 -0.00198958 0)
(-0.298145 -0.0022147 0)
(-0.297599 -0.00243106 0)
(-0.296997 -0.00263963 0)
(-0.29634 -0.00284212 0)
(-0.29563 -0.00304073 0)
(-0.294867 -0.00323781 0)
(-0.294052 -0.00343561 0)
(-0.293186 -0.00363605 0)
(-0.292271 -0.0038405 0)
(-0.291306 -0.00404966 0)
(-0.290291 -0.00426352 0)
(-0.289226 -0.00448144 0)
(-0.288112 -0.00470231 0)
(-0.286948 -0.00492473 0)
(-0.285735 -0.00514725 0)
(-0.284473 -0.0053685 0)
(-0.283163 -0.00558733 0)
(-0.281804 -0.00580276 0)
(-0.280398 -0.00601407 0)
(-0.278946 -0.00622066 0)
(-0.277448 -0.00642204 0)
(-0.275905 -0.00661781 0)
(-0.274319 -0.00680757 0)
(-0.27269 -0.006991 0)
(-0.27102 -0.00716775 0)
(-0.26931 -0.00733754 0)
(-0.267562 -0.00750011 0)
(-0.265776 -0.00765524 0)
(-0.263955 -0.00780274 0)
(-0.2621 -0.00794248 0)
(-0.260213 -0.00807433 0)
(-0.258295 -0.00819822 0)
(-0.256349 -0.00831408 0)
(-0.254375 -0.00842187 0)
(-0.252377 -0.00852158 0)
(-0.250355 -0.00861321 0)
(-0.248313 -0.0086968 0)
(-0.24625 -0.00877242 0)
(-0.24417 -0.00884016 0)
(-0.242074 -0.00890014 0)
(-0.239964 -0.00895254 0)
(-0.237842 -0.00899753 0)
(-0.235709 -0.00903534 0)
(-0.233568 -0.00906623 0)
(-0.231419 -0.00909046 0)
(-0.229263 -0.00910837 0)
(-0.227103 -0.00912036 0)
(-0.224939 -0.00912696 0)
(-0.222773 -0.00912888 0)
(-0.220604 -0.00912692 0)
(-0.218434 -0.00912192 0)
(-0.216263 -0.00911448 0)
(-0.214091 -0.00910486 0)
(-0.211918 -0.00909295 0)
(-0.209746 -0.00907846 0)
(-0.207572 -0.00906122 0)
(-0.205398 -0.00904132 0)
(-0.203223 -0.00901907 0)
(-0.201046 -0.00899476 0)
(-0.198865 -0.00896841 0)
(-0.19668 -0.00893958 0)
(-0.19449 -0.00890737 0)
(-0.192292 -0.00887047 0)
(-0.190086 -0.00882737 0)
(-0.187868 -0.00877643 0)
(-0.185637 -0.00871609 0)
(-0.183387 -0.00864493 0)
(-0.181114 -0.0085617 0)
(-0.178812 -0.00846528 0)
(-0.176477 -0.00835458 0)
(-0.174099 -0.00822856 0)
(-0.171674 -0.0080863 0)
(-0.169192 -0.00792732 0)
(-0.166648 -0.0077519 0)
(-0.164035 -0.00756157 0)
(-0.161348 -0.00735936 0)
(-0.158583 -0.0071499 0)
(-0.155737 -0.00693925 0)
(-0.152812 -0.00673455 0)
(-0.149811 -0.00654363 0)
(-0.14674 -0.00637473 0)
(-0.143608 -0.00623695 0)
(-0.140428 -0.00614278 0)
(-0.137216 -0.00610745 0)
(-0.133988 -0.00615347 0)
(-0.130771 -0.00631053 0)
(-0.127593 -0.00661045 0)
(-0.124482 -0.00707591 0)
(-0.121471 -0.00770246 0)
(-0.118586 -0.00845054 0)
(-0.115848 -0.00924991 0)
(-0.113264 -0.0100185 0)
(-0.110821 -0.0106868 0)
(-0.108491 -0.0112135 0)
(-0.106234 -0.0115868 0)
(-0.104009 -0.0118134 0)
(-0.10178 -0.0119075 0)
(-0.0995216 -0.0118866 0)
(-0.0972196 -0.0117747 0)
(-0.0948706 -0.0116051 0)
(-0.0924803 -0.0114187 0)
(-0.0900586 -0.0112563 0)
(-0.0876166 -0.0111478 0)
(-0.0851628 -0.0111046 0)
(-0.0827026 -0.0111198 0)
(-0.0802384 -0.0111733 0)
(-0.077771 -0.0112409 0)
(-0.0753013 -0.0113007 0)
(-0.0728314 -0.0113369 0)
(-0.0703655 -0.0113415 0)
(-0.0679095 -0.0113135 0)
(-0.0654695 -0.0112581 0)
(-0.0630506 -0.0111841 0)
(-0.0606558 -0.0111012 0)
(-0.0582849 -0.0110175 0)
(-0.0559351 -0.0109388 0)
(-0.0536033 -0.0108676 0)
(-0.0512866 -0.0108026 0)
(-0.0489824 -0.0107407 0)
(-0.0466894 -0.0106784 0)
(-0.0444063 -0.0106123 0)
(-0.0421303 -0.0105378 0)
(-0.0398675 -0.0104528 0)
(-0.0376194 -0.010358 0)
(-0.0353827 -0.0102518 0)
(-0.03316 -0.0101344 0)
(-0.0309551 -0.0100048 0)
(-0.0287725 -0.0098628 0)
(-0.026615 -0.00970647 0)
(-0.0244892 -0.00953615 0)
(-0.0223989 -0.00934782 0)
(-0.020352 -0.00914114 0)
(-0.0183571 -0.00891626 0)
(-0.016421 -0.00867423 0)
(-0.0145543 -0.00841507 0)
(-0.0127685 -0.00814111 0)
(-0.011077 -0.0078548 0)
(-0.00949043 -0.00756281 0)
(-0.00801923 -0.0072701 0)
(-0.00667484 -0.00698313 0)
(-0.00546458 -0.00670714 0)
(-0.00439528 -0.00644986 0)
(-0.00346994 -0.00621556 0)
(-0.00268909 -0.00601122 0)
(-0.00205031 -0.00584161 0)
(-0.00154369 -0.00571221 0)
(-0.00116726 -0.00562555 0)
(-0.000876771 -0.00558774 0)
(-0.000726383 -0.00555095 0)
(-0.000526883 -0.00557965 0)
(-0.000325415 -0.0059924 0)
(0.000263612 -0.00509588 0)
(-0.00175414 0.0097346 0)
(-0.00286305 0.00650702 0)
(-0.00474454 0.00835709 0)
(-0.00687599 0.0091457 0)
(-0.00911321 0.00915655 0)
(-0.0112868 0.00907744 0)
(-0.0134252 0.00904961 0)
(-0.0155433 0.00903559 0)
(-0.0176409 0.00901317 0)
(-0.0197137 0.00898286 0)
(-0.0217587 0.00894776 0)
(-0.0237736 0.00890894 0)
(-0.0257564 0.00886672 0)
(-0.0277048 0.00882155 0)
(-0.0296171 0.00877409 0)
(-0.0314915 0.00872508 0)
(-0.0333268 0.0086753 0)
(-0.035122 0.00862568 0)
(-0.0368766 0.00857721 0)
(-0.0385907 0.00853098 0)
(-0.0402649 0.00848807 0)
(-0.0419004 0.00844959 0)
(-0.043499 0.00841658 0)
(-0.045063 0.00839016 0)
(-0.0465952 0.00837171 0)
(-0.0480989 0.00836284 0)
(-0.0495772 0.00836535 0)
(-0.0510336 0.00838083 0)
(-0.0524711 0.00841025 0)
(-0.0538923 0.00845361 0)
(-0.0552997 0.00851001 0)
(-0.0566952 0.00857789 0)
(-0.0580805 0.00865539 0)
(-0.0594573 0.00874081 0)
(-0.0608271 0.00883281 0)
(-0.0621916 0.00893049 0)
(-0.0635524 0.00903341 0)
(-0.0649112 0.00914136 0)
(-0.0662697 0.00925413 0)
(-0.0676294 0.0093711 0)
(-0.0689917 0.00949091 0)
(-0.0703579 0.00961136 0)
(-0.0717289 0.00972956 0)
(-0.0731054 0.00984237 0)
(-0.0744883 0.00994697 0)
(-0.0758789 0.0100413 0)
(-0.0772789 0.0101241 0)
(-0.0786903 0.0101951 0)
(-0.0801154 0.0102546 0)
(-0.0815561 0.0103032 0)
(-0.083014 0.0103416 0)
(-0.0844904 0.0103707 0)
(-0.0859856 0.0103914 0)
(-0.0874996 0.0104048 0)
(-0.089032 0.0104121 0)
(-0.0905818 0.0104145 0)
(-0.0921481 0.0104131 0)
(-0.0937296 0.0104089 0)
(-0.0953251 0.0104025 0)
(-0.0969333 0.0103946 0)
(-0.0985529 0.0103856 0)
(-0.100183 0.0103754 0)
(-0.101821 0.010364 0)
(-0.103468 0.0103513 0)
(-0.105123 0.0103371 0)
(-0.106784 0.0103212 0)
(-0.108452 0.0103038 0)
(-0.110126 0.0102852 0)
(-0.111807 0.010266 0)
(-0.113494 0.0102471 0)
(-0.115187 0.0102292 0)
(-0.116886 0.0102133 0)
(-0.118592 0.0102001 0)
(-0.120302 0.0101901 0)
(-0.122018 0.0101836 0)
(-0.123738 0.0101808 0)
(-0.125462 0.0101816 0)
(-0.127189 0.0101858 0)
(-0.12892 0.0101933 0)
(-0.130655 0.0102037 0)
(-0.132392 0.0102169 0)
(-0.134133 0.0102325 0)
(-0.135878 0.0102505 0)
(-0.137627 0.0102707 0)
(-0.139381 0.0102929 0)
(-0.141139 0.0103168 0)
(-0.142902 0.0103424 0)