/*--------------------------------*- C++ -*----------------------------------*\
| =========                 |                                                 |
| \\      /  F ield         | OpenFOAM: The Open Source CFD Toolbox           |
|  \\    /   O peration     | Version:  v2006                                 |
|   \\  /    A nd           | Website:  www.openfoam.com                      |
|    \\/     M anipulation  |                                                 |
\*---------------------------------------------------------------------------*/
FoamFile
{
    version     2.0;
    format      ascii;
    class       volScalarField;
    location    "0.7";
    object      p;
}
// * * * * * * * * * * * * * * * * * * * * * * * * * * * * * * * * * * * * * //

dimensions      [1 -1 -2 0 0 0 0];


internalField   nonuniform List<scalar> 
52500
(
30206.6
30206.9
30207.3
30208
30208.9
30210
30211.4
30213
30214.8
30216.8
30219.1
30221.6
30224.3
30227.3
30230.5
30233.9
30237.6
30241.5
30245.6
30249.9
30254.5
30259.3
30264.4
30269.7
30275.2
30281
30287
30293.3
30299.7
30306.5
30313.5
30320.7
30328.2
30335.9
30343.8
30352.1
30360.5
30369.2
30378.2
30387.5
30396.9
30406.7
30416.7
30427
30437.5
30448.3
30459.4
30470.7
30482.3
30494.2
30506.4
30518.8
30531.5
30544.5
30557.8
30571.3
30585.2
30599.3
30613.8
30628.5
30643.5
30658.8
30674.4
30690.4
30706.6
30723.1
30740
30757.1
30774.6
30792.4
30810.5
30828.9
30847.7
30866.8
30886.2
30905.9
30926
30946.4
30967.2
30988.3
31009.8
31031.6
31053.7
31076.2
31099.1
31122.3
31145.9
31169.9
31194.2
31218.9
31244
31269.4
31295.3
31321.5
31348.1
31375.1
31402.4
31430.2
31458.4
31486.9
31515.9
31545.3
31575.1
31605.3
31635.9
31666.9
31698.3
31730.2
31762.4
31795.1
31828.3
31861.8
31895.8
31930.2
31965.1
32000.4
32036.1
32072.3
32108.9
32145.9
32183.4
32221.4
32259.8
32298.6
32337.9
32377.6
32417.8
32458.5
32499.6
32541.1
32583.1
32625.6
32668.5
32711.8
32755.6
32799.9
32844.6
32889.8
32935.4
32981.5
33028
33074.9
33122.3
33170.1
33218.4
33267.1
33316.2
33365.8
33415.8
33466.2
33517
33568.3
33619.9
33672
33724.4
33777.3
33830.5
33884.2
33938.2
33992.5
34047.3
34102.4
34157.8
34213.6
34269.8
34326.2
34383
34440.1
34497.5
34555.2
34613.2
34671.4
34729.9
34788.7
34847.7
34906.9
34966.4
35026.1
35086
35146
35206.3
35266.7
35327.2
35387.9
35448.7
35509.7
35570.7
35631.8
35693
35754.2
35815.5
35876.8
35938.1
35999.4
36060.7
36122
36183.2
36244.3
36305.4
36366.3
36427.1
36487.9
36548.5
36608.9
36669.1
36729.2
36789.1
36848.7
36908.1
36967.3
37026.2
37084.8
37143.1
37201.1
37258.7
37316.1
37373
37429.6
37485.8
37541.6
37596.9
37651.8
37706.3
37760.3
37813.9
37866.9
37919.5
37971.5
38023
38074
38124.4
38174.2
38223.5
38272.1
38320.2
38367.7
38414.5
38460.8
38506.3
38551.3
38595.6
38639.2
38682.1
38724.4
38766
38806.9
38847.1
38886.5
38925.3
38963.4
39000.7
39037.4
39073.3
39108.4
39142.9
39176.6
39209.6
39241.8
39273.3
39304.1
39334.1
39363.4
39392
39419.9
39447
39473.3
39499
39524
39548.2
39571.7
39594.5
39616.6
39638
39658.7
39678.8
39698.1
39716.8
39734.9
39752.2
39769
39785.1
39800.5
39815.4
39829.6
39843.3
39856.3
39868.8
39880.7
39892.1
39902.9
39913.2
39922.9
39932.2
39940.9
39949.2
39957
39964.3
39971.2
39977.7
39983.7
39989.3
39994.6
39999.4
40003.9
40008.1
40011.8
40015.3
40018.5
40021.3
40023.9
40026.2
40028.2
40030
40031.6
40032.9
40034.1
40035
40035.8
40036.4
40036.8
40037.1
40037.3
40037.3
40037.2
40037
40036.8
40036.4
40036
40035.6
40035.1
40034.5
40033.9
40033.3
40032.7
40032.1
40031.5
40030.9
40030.3
40029.7
40029.2
40028.7
40028.2
40027.8
40027.4
40027.1
40026.8
40026.5
40026.4
40026.2
40026.2
29748.2
29748.4
29748.9
29749.6
29750.5
29751.6
29753
29754.6
29756.4
29758.4
29760.7
29763.2
29765.9
29768.9
29772.1
29775.5
29779.2
29783
29787.2
29791.5
29796.1
29800.9
29806
29811.3
29816.8
29822.5
29828.6
29834.8
29841.3
29848
29855
29862.2
29869.7
29877.4
29885.4
29893.6
29902
29910.8
29919.7
29929
29938.4
29948.2
29958.2
29968.5
29979
29989.8
30000.8
30012.2
30023.8
30035.7
30047.8
30060.2
30073
30085.9
30099.2
30112.8
30126.6
30140.7
30155.2
30169.9
30184.9
30200.2
30215.8
30231.7
30248
30264.5
30281.3
30298.5
30315.9
30333.7
30351.8
30370.3
30389
30408.1
30427.5
30447.2
30467.3
30487.7
30508.5
30529.6
30551
30572.8
30595
30617.5
30640.3
30663.6
30687.1
30711.1
30735.4
30760.1
30785.2
30810.6
30836.4
30862.6
30889.2
30916.2
30943.6
30971.3
30999.5
31028.1
31057
31086.4
31116.2
31146.3
31176.9
31207.9
31239.4
31271.2
31303.5
31336.2
31369.3
31402.8
31436.8
31471.2
31506.1
31541.4
31577.1
31613.3
31649.9
31686.9
31724.4
31762.3
31800.7
31839.6
31878.9
31918.6
31958.8
31999.4
32040.5
32082.1
32124.1
32166.5
32209.4
32252.8
32296.6
32340.9
32385.6
32430.7
32476.4
32522.4
32568.9
32615.9
32663.3
32711.1
32759.4
32808.1
32857.3
32906.8
32956.8
33007.2
33058.1
33109.3
33161
33213.1
33265.5
33318.4
33371.7
33425.3
33479.3
33533.7
33588.5
33643.6
33699.1
33754.9
33811
33867.5
33924.3
33981.4
34038.9
34096.6
34154.6
34212.8
34271.4
34330.2
34389.2
34448.5
34508
34567.7
34627.6
34687.7
34748
34808.4
34869
34929.7
34990.6
35051.5
35112.6
35173.7
35234.9
35296.2
35357.5
35418.8
35480.2
35541.5
35602.8
35664.1
35725.4
35786.6
35847.7
35908.7
35969.6
36030.4
36091.1
36151.5
36211.8
36272
36331.9
36391.5
36451
36510.2
36569.1
36627.8
36686.1
36744.1
36801.8
36859.2
36916.2
36972.8
37029
37084.8
37140.2
37195.2
37249.7
37303.7
37357.3
37410.4
37462.9
37515
37566.5
37617.5
37667.9
37717.8
37767.1
37815.8
37863.9
37911.4
37958.2
38004.5
38050.1
38095
38139.3
38182.9
38225.9
38268.2
38309.8
38350.7
38390.9
38430.4
38469.2
38507.2
38544.6
38581.2
38617.1
38652.3
38686.7
38720.5
38753.4
38785.7
38817.2
38848
38878
38907.3
38935.9
38963.7
38990.8
39017.2
39042.9
39067.8
39092
39115.5
39138.3
39160.4
39181.8
39202.5
39222.5
39241.9
39260.6
39278.6
39296
39312.7
39328.8
39344.2
39359
39373.3
39386.9
39399.9
39412.4
39424.3
39435.6
39446.4
39456.6
39466.4
39475.6
39484.3
39492.6
39500.3
39507.7
39514.5
39520.9
39526.9
39532.5
39537.8
39542.6
39547
39551.1
39554.9
39558.3
39561.5
39564.3
39566.8
39569.1
39571.1
39572.8
39574.4
39575.7
39576.8
39577.7
39578.4
39579
39579.4
39579.6
39579.8
39579.8
39579.7
39579.4
39579.2
39578.8
39578.4
39577.9
39577.3
39576.8
39576.2
39575.5
39574.9
39574.3
39573.6
39573
39572.4
39571.8
39571.3
39570.7
39570.2
39569.8
39569.4
39569.1
39568.8
39568.5
39568.4
39568.2
39568.2
29289.2
29289.4
29289.9
29290.6
29291.5
29292.6
29293.9
29295.5
29297.3
29299.4
29301.7
29304.2
29306.9
29309.8
29313
29316.4
29320.1
29324
29328.1
29332.4
29337
29341.8
29346.9
29352.2
29357.7
29363.5
29369.5
29375.7
29382.2
29388.9
29395.9
29403.1
29410.5
29418.2
29426.2
29434.4
29442.9
29451.6
29460.5
29469.8
29479.2
29489
29499
29509.2
29519.7
29530.5
29541.6
29552.9
29564.5
29576.4
29588.5
29600.9
29613.6
29626.6
29639.9
29653.4
29667.2
29681.4
29695.8
29710.5
29725.5
29740.8
29756.4
29772.3
29788.5
29805
29821.8
29839
29856.4
29874.2
29892.3
29910.7
29929.4
29948.5
29967.9
29987.6
30007.7
30028.1
30048.8
30069.9
30091.3
30113.1
30135.2
30157.7
30180.6
30203.8
30227.3
30251.3
30275.6
30300.2
30325.3
30350.7
30376.5
30402.7
30429.3
30456.2
30483.6
30511.3
30539.5
30568
30597
30626.3
30656.1
30686.3
30716.8
30747.8
30779.3
30811.1
30843.3
30876
30909.1
30942.7
30976.6
31011
31045.9
31081.1
31116.8
31153
31189.6
31226.6
31264.1
31302.1
31340.4
31379.3
31418.5
31458.3
31498.5
31539.1
31580.2
31621.7
31663.7
31706.2
31749.1
31792.5
31836.3
31880.5
31925.3
31970.4
32016.1
32062.1
32108.6
32155.6
32203
32250.9
32299.2
32347.9
32397
32446.6
32496.6
32547.1
32597.9
32649.2
32700.9
32753
32805.5
32858.4
32911.7
32965.4
33019.4
33073.9
33128.7
33183.8
33239.3
33295.2
33351.4
33407.9
33464.8
33521.9
33579.4
33637.2
33695.2
33753.5
33812.1
33871
33930.1
33989.4
34049
34108.8
34168.7
34228.9
34289.3
34349.8
34410.4
34471.2
34532.1
34593.2
34654.3
34715.5
34776.8
34838.2
34899.6
34961
35022.4
35083.8
35145.3
35206.6
35268
35329.2
35390.4
35451.5
35512.5
35573.4
35634.1
35694.7
35755
35815.2
35875.2
35935
35994.5
36053.8
36112.8
36171.5
36229.9
36288
36345.8
36403.2
36460.3
36517
36573.3
36629.2
36684.6
36739.6
36794.2
36848.3
36901.9
36955.1
37007.7
37059.8
37111.4
37162.4
37212.9
37262.8
37312.1
37360.9
37409
37456.5
37503.4
37549.7
37595.3
37640.3
37684.6
37728.3
37771.3
37813.6
37855.2
37896.1
37936.3
37975.8
38014.6
38052.7
38090.1
38126.7
38162.6
38197.8
38232.3
38266
38299
38331.2
38362.7
38393.5
38423.5
38452.8
38481.4
38509.2
38536.3
38562.7
38588.3
38613.3
38637.5
38661
38683.7
38705.8
38727.2
38747.9
38767.9
38787.2
38805.9
38823.9
38841.2
38857.9
38873.9
38889.3
38904.1
38918.3
38931.9
38944.9
38957.3
38969.2
38980.5
38991.2
39001.4
39011.1
39020.3
39029
39037.1
39044.9
39052.1
39058.9
39065.3
39071.2
39076.8
39081.9
39086.7
39091.1
39095.1
39098.8
39102.2
39105.2
39108
39110.5
39112.7
39114.6
39116.3
39117.7
39119
39120
39120.9
39121.5
39122
39122.3
39122.5
39122.6
39122.5
39122.4
39122.1
39121.7
39121.3
39120.8
39120.3
39119.7
39119.1
39118.4
39117.7
39117
39116.4
39115.7
39115
39114.4
39113.8
39113.2
39112.6
39112.1
39111.6
39111.2
39110.9
39110.6
39110.3
39110.1
39110
39109.9
28829.6
28829.8
28830.2
28830.9
28831.8
28832.9
28834.3
28835.9
28837.7
28839.7
28842
28844.5
28847.2
28850.2
28853.4
28856.8
28860.4
28864.3
28868.4
28872.7
28877.3
28882.1
28887.2
28892.4
28898
28903.7
28909.7
28915.9
28922.4
28929.1
28936.1
28943.3
28950.7
28958.4
28966.4
28974.6
28983
28991.7
29000.7
29009.9
29019.3
29029
29039
29049.3
29059.8
29070.6
29081.6
29092.9
29104.5
29116.3
29128.5
29140.9
29153.5
29166.5
29179.7
29193.3
29207.1
29221.2
29235.6
29250.3
29265.2
29280.5
29296.1
29312
29328.2
29344.7
29361.5
29378.6
29396
29413.8
29431.8
29450.2
29468.9
29488
29507.3
29527
29547.1
29567.5
29588.2
29609.2
29630.6
29652.4
29674.5
29697
29719.8
29743
29766.5
29790.4
29814.7
29839.4
29864.4
29889.8
29915.6
29941.7
29968.3
29995.2
30022.5
30050.3
30078.4
30106.9
30135.8
30165.2
30194.9
30225
30255.6
30286.6
30318
30349.8
30382
30414.7
30447.8
30481.3
30515.2
30549.6
30584.4
30619.7
30655.4
30691.5
30728.1
30765.1
30802.6
30840.5
30878.9
30917.7
30957
30996.7
31036.9
31077.5
31118.6
31160.1
31202.1
31244.6
31287.5
31330.9
31374.7
31418.9
31463.7
31508.9
31554.5
31600.6
31647.1
31694.1
31741.5
31789.4
31837.7
31886.4
31935.6
31985.2
32035.3
32085.7
32136.6
32188
32239.7
32291.8
32344.4
32397.3
32450.6
32504.4
32558.5
32613
32667.8
32723
32778.6
32834.5
32890.8
32947.4
33004.3
33061.6
33119.1
33176.9
33235.1
33293.5
33352.2
33411.1
33470.3
33529.8
33589.4
33649.3
33709.4
33769.6
33830.1
33890.7
33951.5
34012.4
34073.4
34134.6
34195.8
34257.1
34318.5
34380
34441.5
34503.1
34564.6
34626.2
34687.7
34749.2
34810.7
34872.1
34933.4
34994.6
35055.7
35116.7
35177.6
35238.2
35298.7
35359.1
35419.2
35479.1
35538.7
35598.1
35657.2
35716.1
35774.6
35832.8
35890.7
35948.2
36005.4
36062.2
36118.6
36174.5
36230.1
36285.2
36339.9
36394.1
36447.8
36501
36553.7
36605.9
36657.5
36708.7
36759.2
36809.2
36858.6
36907.4
36955.6
37003.1
37050.1
37096.4
37142.1
37187.1
37231.5
37275.2
37318.2
37360.6
37402.2
37443.1
37483.4
37522.9
37561.8
37599.9
37637.2
37673.9
37709.8
37745
37779.5
37813.2
37846.2
37878.4
37909.9
37940.7
37970.7
38000
38028.6
38056.4
38083.5
38109.8
38135.5
38160.4
38184.5
38208
38230.8
38252.8
38274.2
38294.8
38314.8
38334.1
38352.7
38370.6
38387.9
38404.6
38420.6
38436
38450.7
38464.8
38478.4
38491.3
38503.6
38515.4
38526.7
38537.3
38547.5
38557.1
38566.2
38574.8
38582.9
38590.5
38597.7
38604.4
38610.7
38616.6
38622
38627.1
38631.7
38636
38640
38643.6
38646.8
38649.8
38652.5
38654.8
38656.9
38658.8
38660.3
38661.7
38662.8
38663.8
38664.5
38665.1
38665.4
38665.7
38665.8
38665.7
38665.6
38665.3
38664.9
38664.5
38664
38663.4
38662.8
38662.1
38661.4
38660.7
38659.9
38659.2
38658.4
38657.7
38656.9
38656.2
38655.6
38654.9
38654.3
38653.8
38653.3
38652.8
38652.4
38652.1
38651.8
38651.6
38651.5
38651.4
28369.3
28369.5
28370
28370.7
28371.6
28372.7
28374
28375.6
28377.4
28379.5
28381.7
28384.2
28386.9
28389.9
28393.1
28396.5
28400.1
28404
28408.1
28412.4
28417
28421.8
28426.8
28432.1
28437.6
28443.3
28449.3
28455.5
28462
28468.7
28475.6
28482.8
28490.2
28497.9
28505.9
28514
28522.5
28531.1
28540.1
28549.3
28558.7
28568.4
28578.4
28588.6
28599.1
28609.9
28620.9
28632.2
28643.7
28655.5
28667.7
28680
28692.7
28705.6
28718.8
28732.3
28746.1
28760.2
28774.6
28789.2
28804.2
28819.5
28835
28850.9
28867
28883.5
28900.3
28917.3
28934.8
28952.5
28970.5
28988.9
29007.5
29026.6
29045.9
29065.6
29085.6
29105.9
29126.6
29147.6
29169
29190.7
29212.8
29235.3
29258
29281.2
29304.7
29328.6
29352.8
29377.4
29402.4
29427.8
29453.6
29479.7
29506.2
29533.1
29560.4
29588.1
29616.2
29644.7
29673.6
29702.9
29732.6
29762.7
29793.2
29824.2
29855.5
29887.3
29919.5
29952.2
29985.2
30018.7
30052.6
30087
30121.8
30157
30192.7
30228.8
30265.4
30302.4
30339.8
30377.7
30416.1
30454.9
30494.2
30533.9
30574
30614.7
30655.7
30697.3
30739.3
30781.7
30824.6
30868
30911.8
30956.1
31000.8
31046
31091.7
31137.8
31184.3
31231.3
31278.7
31326.6
31375
31423.8
31473
31522.6
31572.7
31623.2
31674.2
31725.5
31777.3
31829.5
31882.1
31935.1
31988.5
32042.3
32096.5
32151
32205.9
32261.2
32316.9
32372.9
32429.3
32486
32543
32600.3
32658
32715.9
32774.2
32832.7
32891.5
32950.6
33009.9
33069.4
33129.2
33189.2
33249.4
33309.8
33370.4
33431.2
33492.1
33553.1
33614.3
33675.6
33737
33798.5
33860.1
33921.7
33983.4
34045.1
34106.8
34168.5
34230.3
34291.9
34353.5
34415.1
34476.6
34538
34599.3
34660.4
34721.4
34782.3
34843
34903.4
34963.7
35023.8
35083.6
35143.1
35202.4
35261.4
35320.1
35378.4
35436.5
35494.1
35551.5
35608.4
35664.9
35721
35776.7
35831.9
35886.7
35941
35994.9
36048.2
36101
36153.3
36205.1
36256.3
36306.9
36357
36406.5
36455.3
36503.6
36551.3
36598.3
36644.7
36690.4
36735.5
36779.9
36823.7
36866.8
36909.1
36950.8
36991.8
37032.1
37071.7
37110.5
37148.7
37186.1
37222.7
37258.7
37293.9
37328.4
37362.1
37395.1
37427.3
37458.8
37489.6
37519.6
37548.9
37577.4
37605.2
37632.3
37658.6
37684.2
37709.1
37733.3
37756.7
37779.4
37801.4
37822.7
37843.3
37863.3
37882.5
37901.1
37919
37936.2
37952.8
37968.7
37984
37998.7
38012.8
38026.2
38039.1
38051.3
38063
38074.2
38084.8
38094.8
38104.3
38113.3
38121.8
38129.8
38137.4
38144.4
38151
38157.2
38162.9
38168.3
38173.2
38177.7
38181.9
38185.7
38189.2
38192.3
38195.2
38197.7
38199.9
38201.9
38203.6
38205
38206.2
38207.2
38208
38208.6
38209
38209.3
38209.4
38209.3
38209.2
38208.9
38208.5
38208
38207.4
38206.8
38206.1
38205.4
38204.6
38203.8
38202.9
38202.1
38201.2
38200.4
38199.6
38198.8
38198
38197.2
38196.5
38195.9
38195.3
38194.7
38194.2
38193.8
38193.4
38193.1
38192.9
38192.8
38192.7
27908.4
27908.7
27909.1
27909.8
27910.7
27911.8
27913.2
27914.7
27916.6
27918.6
27920.8
27923.3
27926
27929
27932.1
27935.5
27939.2
27943
27947.1
27951.4
27956
27960.8
27965.8
27971.1
27976.5
27982.3
27988.2
27994.4
28000.9
28007.6
28014.5
28021.7
28029.1
28036.8
28044.7
28052.8
28061.2
28069.9
28078.8
28088
28097.4
28107.1
28117
28127.2
28137.7
28148.4
28159.4
28170.7
28182.2
28194
28206.1
28218.4
28231.1
28244
28257.2
28270.6
28284.4
28298.5
28312.8
28327.4
28342.3
28357.6
28373.1
28388.9
28405
28421.5
28438.2
28455.3
28472.6
28490.3
28508.3
28526.6
28545.3
28564.3
28583.6
28603.2
28623.2
28643.5
28664.1
28685.1
28706.4
28728.1
28750.2
28772.6
28795.3
28818.4
28841.9
28865.7
28889.9
28914.5
28939.5
28964.8
28990.5
29016.6
29043.1
29069.9
29097.2
29124.8
29152.9
29181.3
29210.2
29239.5
29269.1
29299.2
29329.7
29360.6
29391.9
29423.7
29455.8
29488.4
29521.5
29554.9
29588.8
29623.2
29657.9
29693.1
29728.8
29764.9
29801.4
29838.4
29875.8
29913.7
29952
29990.8
30030.1
30069.8
30109.9
30150.5
30191.6
30233.1
30275.1
30317.6
30360.5
30403.8
30447.7
30492
30536.7
30581.9
30627.6
30673.7
30720.2
30767.3
30814.7
30862.7
30911
30959.8
31009.1
31058.8
31108.9
31159.5
31210.5
31261.9
31313.8
31366
31418.7
31471.8
31525.2
31579.1
31633.4
31688
31743
31798.4
31854.2
31910.3
31966.8
32023.6
32080.7
32138.2
32196
32254.1
32312.4
32371.1
32430.1
32489.3
32548.7
32608.5
32668.4
32728.6
32789
32849.5
32910.3
32971.2
33032.3
33093.6
33154.9
33216.4
33278
33339.7
33401.5
33463.3
33525.2
33587.1
33649
33711
33772.9
33834.7
33896.6
33958.4
34020
34081.6
34143.1
34204.5
34265.7
34326.8
34387.7
34448.3
34508.8
34569.1
34629.1
34688.8
34748.3
34807.5
34866.4
34924.9
34983.1
35041
35098.5
35155.6
35212.3
35268.6
35324.4
35379.8
35434.7
35489.2
35543.2
35596.7
35649.6
35702
35753.9
35805.2
35856
35906.2
35955.8
36004.7
36053.1
36100.9
36148
36194.5
36240.3
36285.5
36329.9
36373.8
36416.9
36459.3
36501.1
36542.1
36582.4
36622
36660.9
36699.1
36736.5
36773.2
36809.2
36844.4
36878.9
36912.6
36945.6
36977.9
37009.4
37040.1
37070.2
37099.4
37127.9
37155.7
37182.8
37209.1
37234.6
37259.5
37283.6
37307
37329.7
37351.6
37372.9
37393.5
37413.3
37432.5
37451
37468.8
37486
37502.5
37518.3
37533.6
37548.2
37562.1
37575.5
37588.2
37600.4
37612
37623
37633.5
37643.4
37652.8
37661.7
37670.1
37678
37685.3
37692.3
37698.7
37704.8
37710.4
37715.5
37720.3
37724.7
37728.7
37732.4
37735.7
37738.6
37741.3
37743.7
37745.7
37747.5
37749
37750.3
37751.3
37752.2
37752.8
37753.2
37753.5
37753.5
37753.5
37753.3
37752.9
37752.5
37751.9
37751.3
37750.5
37749.8
37748.9
37748
37747.1
37746.1
37745.2
37744.2
37743.2
37742.3
37741.3
37740.4
37739.6
37738.7
37737.9
37737.2
37736.5
37735.9
37735.4
37734.9
37734.5
37734.2
37733.9
37733.8
37733.7
27447
27447.2
27447.6
27448.3
27449.2
27450.3
27451.7
27453.3
27455.1
27457.1
27459.3
27461.8
27464.5
27467.4
27470.6
27474
27477.6
27481.5
27485.5
27489.8
27494.4
27499.2
27504.2
27509.4
27514.9
27520.6
27526.5
27532.7
27539.2
27545.8
27552.7
27559.9
27567.3
27574.9
27582.8
27591
27599.3
27608
27616.9
27626
27635.4
27645.1
27655
27665.1
27675.6
27686.3
27697.2
27708.5
27720
27731.7
27743.8
27756.1
27768.7
27781.6
27794.7
27808.2
27821.9
27835.9
27850.2
27864.8
27879.7
27894.9
27910.3
27926.1
27942.2
27958.6
27975.3
27992.3
28009.6
28027.3
28045.2
28063.5
28082.1
28101
28120.3
28139.9
28159.8
28180.1
28200.7
28221.6
28242.9
28264.5
28286.5
28308.9
28331.6
28354.6
28378.1
28401.9
28426
28450.5
28475.4
28500.7
28526.4
28552.4
28578.9
28605.7
28632.9
28660.5
28688.5
28716.9
28745.7
28774.9
28804.5
28834.6
28865
28895.9
28927.2
28958.9
28991
29023.6
29056.5
29090
29123.8
29158.1
29192.8
29228
29263.6
29299.7
29336.2
29373.1
29410.5
29448.4
29486.7
29525.5
29564.7
29604.4
29644.5
29685.1
29726.2
29767.7
29809.7
29852.1
29895
29938.4
29982.2
30026.5
30071.3
30116.5
30162.2
30208.3
30254.9
30302
30349.5
30397.4
30445.8
30494.7
30544
30593.8
30643.9
30694.6
30745.6
30797.1
30849
30901.4
30954.1
31007.3
31060.9
31114.8
31169.2
31223.9
31279.1
31334.6
31390.5
31446.7
31503.3
31560.3
31617.6
31675.2
31733.1
31791.4
31849.9
31908.7
31967.9
32027.3
32086.9
32146.8
32207
32267.3
32327.9
32388.7
32449.7
32510.8
32572.1
32633.6
32695.2
32756.9
32818.8
32880.7
32942.7
33004.8
33066.9
33129
33191.2
33253.4
33315.5
33377.7
33439.8
33501.8
33563.7
33625.6
33687.3
33749
33810.4
33871.7
33932.9
33993.8
34054.5
34115
34175.3
34235.3
34295
34354.4
34413.5
34472.3
34530.7
34588.8
34646.5
34703.8
34760.7
34817.2
34873.2
34928.8
34983.9
35038.6
35092.7
35146.4
35199.5
35252.1
35304.1
35355.6
35406.5
35456.8
35506.5
35555.6
35604.1
35652
35699.2
35745.8
35791.7
35837
35881.5
35925.4
35968.6
36011.1
36052.9
36094
36134.4
36174.1
36213
36251.2
36288.7
36325.4
36361.4
36396.6
36431.1
36464.9
36497.9
36530.1
36561.6
36592.4
36622.4
36651.6
36680.1
36707.9
36734.9
36761.2
36786.7
36811.5
36835.6
36858.9
36881.5
36903.5
36924.7
36945.1
36964.9
36984
37002.5
37020.2
37037.3
37053.7
37069.5
37084.6
37099.1
37112.9
37126.2
37138.8
37150.9
37162.3
37173.2
37183.6
37193.4
37202.6
37211.3
37219.6
37227.3
37234.5
37241.3
37247.6
37253.4
37258.8
37263.8
37268.4
37272.6
37276.4
37279.9
37283
37285.8
37288.2
37290.4
37292.2
37293.8
37295.1
37296.2
37297
37297.6
37298.1
37298.3
37298.3
37298.2
37297.9
37297.5
37296.9
37296.3
37295.5
37294.7
37293.8
37292.8
37291.8
37290.7
37289.6
37288.5
37287.4
37286.3
37285.2
37284.1
37283
37282
37281
37280
37279.1
37278.3
37277.6
37276.9
37276.3
37275.7
37275.3
37274.9
37274.6
37274.5
37274.4
26984.9
26985.1
26985.6
26986.2
26987.1
26988.3
26989.6
26991.2
26993
26995
26997.2
26999.7
27002.4
27005.3
27008.4
27011.8
27015.4
27019.3
27023.3
27027.6
27032.1
27036.9
27041.9
27047.1
27052.6
27058.3
27064.2
27070.4
27076.8
27083.4
27090.3
27097.4
27104.8
27112.4
27120.3
27128.4
27136.7
27145.4
27154.2
27163.3
27172.7
27182.3
27192.2
27202.3
27212.7
27223.4
27234.3
27245.5
27257
27268.7
27280.7
27293
27305.6
27318.4
27331.5
27344.9
27358.6
27372.6
27386.8
27401.4
27416.2
27431.4
27446.8
27462.5
27478.6
27494.9
27511.6
27528.5
27545.8
27563.4
27581.3
27599.5
27618.1
27636.9
27656.1
27675.7
27695.5
27715.8
27736.3
27757.2
27778.4
27800
27821.9
27844.2
27866.9
27889.9
27913.2
27937
27961.1
27985.5
28010.4
28035.6
28061.2
28087.2
28113.6
28140.3
28167.5
28195
28223
28251.3
28280.1
28309.2
28338.8
28368.8
28399.2
28430
28461.2
28492.9
28525
28557.5
28590.4
28623.8
28657.6
28691.8
28726.5
28761.7
28797.2
28833.2
28869.7
28906.6
28944
28981.8
29020.1
29058.9
29098.1
29137.7
29177.8
29218.4
29259.5
29301
29343
29385.4
29428.3
29471.7
29515.5
29559.8
29604.6
29649.8
29695.5
29741.7
29788.3
29835.4
29882.9
29930.9
29979.4
30028.3
30077.7
30127.5
30177.7
30228.4
30279.5
30331.1
30383.1
30435.5
30488.4
30541.7
30595.3
30649.4
30703.9
30758.8
30814.1
30869.7
30925.8
30982.2
31038.9
31096
31153.5
31211.3
31269.4
31327.8
31386.5
31445.6
31504.9
31564.5
31624.4
31684.5
31744.9
31805.5
31866.3
31927.3
31988.6
32050
32111.5
32173.3
32235.1
32297.1
32359.2
32421.4
32483.7
32546.1
32608.5
32670.9
32733.4
32795.8
32858.3
32920.7
32983.1
33045.4
33107.7
33169.8
33231.9
33293.8
33355.6
33417.2
33478.6
33539.8
33600.8
33661.6
33722.1
33782.4
33842.4
33902.1
33961.5
34020.5
34079.2
34137.5
34195.5
34253.1
34310.2
34366.9
34423.2
34479
34534.3
34589.2
34643.5
34697.4
34750.7
34803.5
34855.7
34907.3
34958.4
35008.8
35058.7
35108
35156.6
35204.6
35251.9
35298.6
35344.7
35390
35434.7
35478.7
35522
35564.6
35606.4
35647.6
35688
35727.7
35766.7
35805
35842.5
35879.2
35915.2
35950.5
35985
36018.8
36051.8
36084
36115.5
36146.3
36176.3
36205.5
36234
36261.7
36288.7
36314.9
36340.4
36365.2
36389.2
36412.5
36435
36456.9
36478
36498.4
36518.1
36537.2
36555.5
36573.1
36590.1
36606.4
36622.1
36637.1
36651.5
36665.2
36678.3
36690.8
36702.7
36714
36724.8
36735
36744.6
36753.7
36762.2
36770.3
36777.8
36784.8
36791.4
36797.5
36803.1
36808.3
36813.1
36817.5
36821.5
36825.1
36828.3
36831.2
36833.7
36835.9
36837.8
36839.5
36840.8
36841.9
36842.7
36843.3
36843.6
36843.8
36843.8
36843.6
36843.2
36842.7
36842
36841.2
36840.4
36839.4
36838.3
36837.2
36836
36834.8
36833.5
36832.2
36830.9
36829.6
36828.3
36827
36825.7
36824.5
36823.3
36822.2
36821.1
36820.1
36819.2
36818.3
36817.5
36816.9
36816.3
36815.8
36815.4
36815
36814.8
36814.7
26522.2
26522.4
26522.9
26523.6
26524.4
26525.6
26526.9
26528.5
26530.2
26532.3
26534.5
26536.9
26539.6
26542.5
26545.7
26549
26552.6
26556.4
26560.5
26564.8
26569.3
26574
26579
26584.2
26589.6
26595.3
26601.2
26607.4
26613.7
26620.4
26627.2
26634.3
26641.7
26649.2
26657.1
26665.2
26673.5
26682.1
26690.9
26700
26709.3
26718.9
26728.7
26738.8
26749.2
26759.8
26770.7
26781.9
26793.3
26805
26816.9
26829.2
26841.7
26854.5
26867.5
26880.9
26894.5
26908.4
26922.7
26937.2
26951.9
26967
26982.4
26998.1
27014.1
27030.4
27047
27063.9
27081.1
27098.6
27116.5
27134.6
27153.1
27171.9
27191.1
27210.6
27230.4
27250.5
27271
27291.8
27313
27334.5
27356.4
27378.6
27401.2
27424.1
27447.4
27471.1
27495.1
27519.5
27544.3
27569.5
27595
27620.9
27647.2
27673.9
27701
27728.5
27756.4
27784.7
27813.4
27842.4
27872
27901.9
27932.2
27963
27994.1
28025.7
28057.7
28090.2
28123.1
28156.4
28190.2
28224.4
28259
28294.1
28329.6
28365.6
28402
28438.9
28476.2
28514
28552.3
28591
28630.1
28669.8
28709.9
28750.4
28791.5
28833
28874.9
28917.4
28960.3
29003.6
29047.5
29091.8
29136.6
29181.8
29227.6
29273.7
29320.4
29367.5
29415.1
29463.1
29511.7
29560.6
29610
29659.9
29710.2
29761
29812.2
29863.9
29916
29968.5
30021.5
30074.9
30128.7
30182.9
30237.5
30292.6
30348
30403.8
30460
30516.6
30573.5
30630.8
30688.4
30746.4
30804.7
30863.4
30922.3
30981.6
31041.2
31101
31161.1
31221.5
31282.1
31343
31404.1
31465.4
31526.9
31588.6
31650.5
31712.5
31774.7
31837
31899.4
31961.9
32024.5
32087.2
32149.9
32212.7
32275.5
32338.3
32401.1
32463.9
32526.6
32589.3
32651.9
32714.3
32776.7
32839
32901.1
32963
33024.8
33086.4
33147.7
33208.8
33269.7
33330.3
33390.6
33450.6
33510.3
33569.6
33628.6
33687.2
33745.5
33803.3
33860.7
33917.7
33974.3
34030.3
34085.9
34141
34195.6
34249.7
34303.2
34356.2
34408.6
34460.4
34511.7
34562.3
34612.4
34661.8
34710.6
34758.7
34806.2
34853
34899.2
34944.7
34989.4
35033.5
35076.9
35119.6
35161.6
35202.8
35243.3
35283.1
35322.1
35360.4
35397.9
35434.7
35470.8
35506.1
35540.6
35574.4
35607.4
35639.6
35671.1
35701.9
35731.8
35761
35789.5
35817.2
35844.1
35870.3
35895.8
35920.5
35944.4
35967.7
35990.2
36011.9
36033
36053.3
36072.9
36091.9
36110.1
36127.6
36144.5
36160.7
36176.2
36191.1
36205.3
36218.9
36231.9
36244.2
36255.9
36267.1
36277.7
36287.7
36297.1
36306
36314.4
36322.2
36329.5
36336.3
36342.7
36348.5
36353.9
36358.9
36363.5
36367.6
36371.3
36374.6
36377.6
36380.2
36382.5
36384.4
36386.1
36387.4
36388.5
36389.2
36389.8
36390.1
36390.2
36390
36389.7
36389.2
36388.6
36387.8
36386.9
36385.8
36384.7
36383.4
36382.1
36380.7
36379.2
36377.8
36376.2
36374.7
36373.2
36371.7
36370.1
36368.7
36367.2
36365.8
36364.5
36363.2
36362
36360.8
36359.8
36358.8
36357.9
36357.1
36356.5
36355.9
36355.4
36355.1
36354.9
36354.7
26058.9
26059.2
26059.6
26060.3
26061.2
26062.3
26063.6
26065.1
26066.9
26068.9
26071.2
26073.6
26076.3
26079.2
26082.3
26085.6
26089.2
26093
26097
26101.3
26105.8
26110.5
26115.5
26120.6
26126.1
26131.7
26137.6
26143.7
26150.1
26156.6
26163.5
26170.5
26177.9
26185.4
26193.2
26201.3
26209.5
26218.1
26226.9
26235.9
26245.2
26254.8
26264.6
26274.6
26284.9
26295.5
26306.4
26317.5
26328.8
26340.5
26352.4
26364.6
26377.1
26389.8
26402.8
26416.1
26429.7
26443.5
26457.7
26472.1
26486.9
26501.9
26517.2
26532.8
26548.8
26565
26581.5
26598.4
26615.5
26633
26650.8
26668.9
26687.3
26706
26725.1
26744.5
26764.3
26784.3
26804.7
26825.5
26846.6
26868
26889.8
26912
26934.5
26957.4
26980.6
27004.2
27028.1
27052.5
27077.2
27102.3
27127.7
27153.6
27179.8
27206.4
27233.4
27260.9
27288.7
27316.9
27345.5
27374.5
27404
27433.8
27464.1
27494.7
27525.9
27557.4
27589.3
27621.7
27654.6
27687.8
27721.5
27755.6
27790.2
27825.3
27860.7
27896.7
27933
27969.9
28007.2
28044.9
28083.1
28121.8
28160.9
28200.5
28240.6
28281.2
28322.2
28363.6
28405.6
28448
28490.9
28534.3
28578.1
28622.5
28667.3
28712.5
28758.3
28804.5
28851.2
28898.3
28946
28994.1
29042.6
29091.7
29141.2
29191.1
29241.5
29292.4
29343.7
29395.5
29447.7
29500.3
29553.4
29606.9
29660.9
29715.2
29770
29825.2
29880.8
29936.8
29993.1
30049.9
30107
30164.5
30222.4
30280.6
30339.2
30398.1
30457.3
30516.8
30576.6
30636.7
30697.1
30757.8
30818.7
30879.9
30941.3
31002.9
31064.7
31126.8
31189
31251.3
31313.8
31376.5
31439.3
31502.2
31565.1
31628.2
31691.3
31754.4
31817.6
31880.8
31944
32007.1
32070.2
32133.3
32196.3
32259.1
32321.9
32384.5
32447
32509.4
32571.5
32633.5
32695.2
32756.7
32817.9
32878.9
32939.5
32999.9
33059.9
33119.6
33179
33237.9
33296.5
33354.6
33412.4
33469.7
33526.5
33582.8
33638.7
33694.1
33748.9
33803.3
33857
33910.2
33962.9
34014.9
34066.4
34117.3
34167.5
34217.1
34266.1
34314.4
34362
34409
34455.3
34500.9
34545.8
34590
34633.5
34676.3
34718.3
34759.6
34800.2
34840.1
34879.2
34917.5
34955.1
34991.9
35028
35063.3
35097.9
35131.7
35164.7
35196.9
35228.4
35259.1
35289.1
35318.3
35346.7
35374.4
35401.3
35427.4
35452.8
35477.4
35501.3
35524.5
35546.9
35568.6
35589.5
35609.8
35629.3
35648.1
35666.2
35683.6
35700.4
35716.4
35731.8
35746.5
35760.6
35774
35786.8
35799
35810.6
35821.5
35831.9
35841.7
35850.9
35859.6
35867.7
35875.3
35882.4
35889
35895.1
35900.7
35905.9
35910.6
35914.8
35918.7
35922.1
35925.1
35927.8
35930.1
35932.1
35933.7
35935
35936.1
35936.8
35937.3
35937.5
35937.5
35937.2
35936.8
35936.1
35935.3
35934.3
35933.2
35932
35930.6
35929.1
35927.6
35926
35924.3
35922.6
35920.8
35919
35917.2
35915.4
35913.7
35911.9
35910.2
35908.5
35906.9
35905.4
35903.9
35902.5
35901.2
35900
35898.9
35897.9
35897
35896.3
35895.6
35895.1
35894.7
35894.5
35894.3
25595.1
25595.3
25595.7
25596.4
25597.3
25598.4
25599.7
25601.2
25603
25605
25607.2
25609.6
25612.3
25615.2
25618.3
25621.6
25625.2
25629
25633
25637.2
25641.7
25646.4
25651.3
25656.5
25661.8
25667.5
25673.3
25679.4
25685.7
25692.3
25699.1
25706.1
25713.4
25720.9
25728.7
25736.7
25744.9
25753.4
25762.2
25771.2
25780.4
25789.9
25799.7
25809.7
25820
25830.5
25841.3
25852.4
25863.7
25875.3
25887.1
25899.3
25911.7
25924.3
25937.3
25950.5
25964.1
25977.9
25991.9
26006.3
26021
26035.9
26051.2
26066.8
26082.6
26098.8
26115.2
26132
26149.1
26166.5
26184.2
26202.2
26220.6
26239.2
26258.2
26277.6
26297.2
26317.2
26337.6
26358.2
26379.3
26400.6
26422.3
26444.4
26466.8
26489.6
26512.8
26536.3
26560.2
26584.4
26609
26634
26659.4
26685.2
26711.3
26737.9
26764.8
26792.1
26819.9
26848
26876.5
26905.5
26934.8
26964.6
26994.8
27025.4
27056.4
27087.9
27119.7
27152.1
27184.8
27218
27251.6
27285.7
27320.2
27355.2
27390.6
27426.5
27462.8
27499.6
27536.8
27574.5
27612.7
27651.3
27690.4
27730
27770
27810.6
27851.5
27893
27934.9
27977.4
28020.3
28063.6
28107.5
28151.8
28196.6
28241.9
28287.7
28333.9
28380.6
28427.8
28475.5
28523.7
28572.3
28621.4
28671
28721
28771.5
28822.5
28873.9
28925.8
28978.1
29030.9
29084.1
29137.8
29191.8
29246.4
29301.3
29356.7
29412.5
29468.6
29525.2
29582.2
29639.6
29697.3
29755.4
29813.9
29872.7
29931.8
29991.3
30051.1
30111.2
30171.7
30232.4
30293.3
30354.6
30416.1
30477.8
30539.8
30602
30664.4
30727
30789.7
30852.6
30915.7
30978.8
31042.1
31105.5
31169
31232.5
31296
31359.6
31423.3
31486.9
31550.4
31614
31677.5
31740.9
31804.2
31867.4
31930.5
31993.4
32056.2
32118.7
32181.1
32243.2
32305.2
32366.8
32428.2
32489.2
32550
32610.4
32670.5
32730.2
32789.6
32848.5
32907
32965.1
33022.7
33079.9
33136.6
33192.7
33248.4
33303.6
33358.2
33412.2
33465.7
33518.6
33570.9
33622.6