/*--------------------------------*- C++ -*----------------------------------*\
| =========                 |                                                 |
| \\      /  F ield         | OpenFOAM: The Open Source CFD Toolbox           |
|  \\    /   O peration     | Version:  v2006                                 |
|   \\  /    A nd           | Website:  www.openfoam.com                      |
|    \\/     M anipulation  |                                                 |
\*---------------------------------------------------------------------------*/
FoamFile
{
    version     2.0;
    format      ascii;
    class       surfaceScalarField;
    location    "19.6";
    object      phi;
}
// * * * * * * * * * * * * * * * * * * * * * * * * * * * * * * * * * * * * * //

dimensions      [0 3 -1 0 0 0 0];
oriented        oriented;


internalField   nonuniform List<scalar> 
299200
(
0.000380495
-0.000380495
0.00122863
-0.000848137
0.00223526
-0.00100663
0.00322236
-0.000987095
0.00412285
-0.00090049
0.00492622
-0.000803367
0.00564003
-0.000713812
0.00627454
-0.000634507
0.00683978
-0.000565247
0.00734599
-0.000506209
0.0078037
-0.000457709
0.00822355
-0.000419847
0.00861589
-0.000392344
0.00899051
-0.000374616
0.0093563
-0.000365795
0.00972094
-0.000364634
0.0100905
-0.000369522
0.0104691
-0.000378677
0.0108595
-0.00039039
0.0112627
-0.000403225
0.0116789
-0.000416101
0.0121071
-0.000428298
0.0125466
-0.000439404
0.0129958
-0.000449251
0.0134537
-0.000457851
0.013919
-0.000465349
0.014391
-0.000471964
0.0148689
-0.000477944
0.0153524
-0.000483517
0.0158413
-0.000488853
0.0163353
-0.000494044
0.0168344
-0.00049909
0.0173383
-0.000503911
0.0178467
-0.000508352
0.0183589
-0.000512199
0.0188741
-0.000515197
0.0193911
-0.000517074
0.0199087
-0.000517567
0.0204252
-0.000516459
0.0209388
-0.00051362
0.0214478
-0.000509054
0.0219508
-0.000502953
0.0224465
-0.000495739
0.0229346
-0.000488046
0.0234152
-0.000480607
0.0238893
-0.000474092
0.0243582
-0.000468916
0.0248233
-0.000465103
0.0252855
-0.000462244
0.0257451
-0.000459571
0.0262012
-0.00045612
0.0266522
-0.000450952
0.0270955
-0.000443351
0.0275285
-0.000432971
0.0279484
-0.000419839
0.0283527
-0.000404355
0.02874
-0.000387263
0.0291094
-0.000369437
0.0294612
-0.000351765
0.0297962
-0.000335038
0.0301161
-0.000319862
0.0304227
-0.00030663
0.0307182
-0.000295525
0.0310048
-0.00028656
0.0312844
-0.00027964
0.0315591
-0.000274622
0.0318304
-0.000271369
0.0321002
-0.000269801
0.0323701
-0.000269899
0.0326418
-0.000271705
0.0329171
-0.000275286
0.0331978
-0.000280696
0.0334857
-0.000287931
0.0337826
-0.000296893
0.03409
-0.000307366
0.034409
-0.00031901
0.0347404
-0.00033138
0.0350843
-0.00034395
0.0354405
-0.000356153
0.0358079
-0.000367426
0.0361852
-0.000377249
0.0365704
-0.000385189
0.0369613
-0.000390926
0.0373555
-0.000394266
0.0377507
-0.000395153
0.0381444
-0.000393656
0.0385343
-0.00038996
0.0389187
-0.000384344
0.0392958
-0.000377164
0.0396647
-0.000368833
0.0400245
-0.000359798
0.040375
-0.000350522
0.0407164
-0.000341453
0.0410494
-0.000333004
0.041375
-0.000325529
0.0416943
-0.000319297
0.0420087
-0.000314478
0.0423199
-0.000311137
0.0426291
-0.000309233
0.0429377
-0.000308639
0.0432469
-0.000309159
0.0435575
-0.000310563
0.0438701
-0.000312605
0.0441851
-0.000315058
0.0445028
-0.000317715
0.0448233
-0.000320407
0.0451463
-0.000322996
0.0454716
-0.000325373
0.0457991
-0.000327445
0.0461282
-0.000329127
0.0464585
-0.000330315
0.0467894
-0.000330876
0.04712
-0.000330651
0.0474495
-0.000329496
0.0477769
-0.000327366
0.0481013
-0.000324411
0.0484223
-0.000321028
0.0487401
-0.0003178
0.0490554
-0.000315274
0.049369
-0.000313602
0.0496811
-0.000312109
0.0499901
-0.000308953
0.0502912
-0.000301144
0.0505764
-0.000285221
0.0508352
-0.000258776
0.0510576
-0.000222347
0.051238
-0.000180453
0.0513785
-0.00014044
0.0514877
-0.000109237
0.051578
-9.0311e-05
0.0516612
-8.31659e-05
0.0517463
-8.51318e-05
0.0518397
-9.34143e-05
0.0519456
-0.000105886
0.0520666
-0.000120991
0.0522041
-0.000137538
0.0523587
-0.000154575
0.0525301
-0.000171356
0.0527173
-0.000187255
0.052919
-0.000201696
0.053133
-0.000214022
0.0533565
-0.000223414
0.0535852
-0.000228746
0.0538138
-0.00022864
0.054036
-0.000222205
0.054246
-0.000209956
0.0544405
-0.000194536
0.0546211
-0.000180604
0.0547949
-0.00017372
0.0549757
-0.000180881
0.0551849
-0.000209175
0.0554446
-0.000259663
0.0557776
-0.000332976
0.0561969
-0.000419356
0.0566128
-0.000415864
0.0567441
-0.000131371
0.0562299
0.000514278
0.0550501
0.00117978
0.053508
0.00154205
0.0520526
0.00145542
0.051109
0.000943616
0.0508475
0.000261508
0.051232
-0.000384479
0.0521045
-0.00087253
0.0532408
-0.00113631
0.0543586
-0.00111779
0.0552304
-0.000871761
0.055778
-0.000547613
0.0560743
-0.000296272
0.0562529
-0.000178696
0.0564067
-0.000153727
0.056548
-0.000141364
0.0566361
-8.80418e-05
0.056623
1.30498e-05
0.0564876
0.000135436
0.0562553
0.000232309
0.0559597
0.000295589
0.0556439
0.000315792
0.0553451
0.000298762
0.0550881
0.000257027
0.0548822
0.000205935
0.054719
0.000163209
0.0545798
0.000139182
0.0544446
0.00013518
0.0542983
0.000146358
0.0541321
0.000166162
0.0539435
0.000188634
0.0537308
0.00021268
0.0534928
0.000237973
0.0532286
0.000264214
0.0529379
0.000290649
0.0526218
0.000316105
0.0522825
0.000339346
0.0519231
0.000359436
0.0515471
0.000375978
0.0511578
0.00038923
0.0507579
0.000399904
0.0503492
0.000408769
0.0499326
0.000416591
0.0495086
0.000423988
0.0490773
0.000431328
0.0486385
0.000438747
0.0481923
0.000446214
0.0477387
0.000453611
0.0472779
0.000460792
0.0468103
0.000467619
0.0463363
0.000473993
0.0458564
0.000479869
0.0453711
0.000485275
0.0448808
0.000490301
0.0443858
0.000495095
0.0438859
0.000499852
0.0433811
0.000504794
0.0428709
0.000510165
0.0423547
0.000516212
0.0418315
0.000523179
0.0413003
0.000531287
0.0407596
0.000540709
0.040208
0.000551549
0.0396442
0.000563813
0.0390668
0.000577387
0.0384748
0.000592009
0.0378675
0.000607258
0.037245
0.000622573
0.0366077
0.000637304
0.0359569
0.000650787
0.0352944
0.000662436
0.0346226
0.000671819
0.0339439
0.000678715
0.0332608
0.000683148
0.0325753
0.00068541
0.0318893
0.000686021
0.0312037
0.000685651
0.0305186
0.000685048
0.0298337
0.000684952
0.0291477
0.000685987
0.0284591
0.00068854
0.0277665
0.000692694
0.0270683
0.000698173
0.0263639
0.000704353
0.0256535
0.000710474
0.0249375
0.000715915
0.0242171
0.000720439
0.0234926
0.000724496
0.0227634
0.000729244
0.0220271
0.000736223
0.0212805
0.000746621
0.0205201
0.000760455
0.0197444
0.000775655
0.0189565
0.000787899
0.018164
0.000792545
0.017376
0.000787929
0.0165996
0.000776471
0.0158341
0.000765503
0.0150696
0.000764485
0.0142899
0.000779687
0.0134802
0.000809661
0.0126354
0.000844801
0.0117642
0.000871261
0.0108876
0.000876611
0.0100339
0.000853693
0.00923251
0.000801343
0.00850909
0.000723425
0.00788131
0.000627776
0.00735659
0.000524723
0.00692926
0.000427332
0.00657435
0.000354907
0.00624944
0.000324915
0.00580044
0.000448994
0.00495871
0.000841737
0.00354906
0.00140965
0.001691
0.00185806
-0.000280676
0.00197168
-0.00210959
0.00182892
-0.0037015
0.00159191
-0.00508889
0.00138738
-0.00633003
0.00124114
-0.00746115
0.00113112
-0.00849695
0.0010358
-0.00944261
0.000945658
-0.0103
0.000857429
-0.0110712
0.000771178
-0.0117611
0.000689923
-0.0123786
0.000617472
-0.0129342
0.000555627
-0.0134392
0.000504925
-0.0139037
0.000464516
-0.0143367
0.000433
-0.014745
0.00040834
-0.0151343
0.00038929
-0.015509
0.00037469
-0.0158726
0.000363561
-0.0162274
0.000354837
-0.0165764
0.00034905
-0.0169218
0.000345354
-0.0172649
0.000343112
-0.0176063
0.000341418
-0.0179452
0.000338823
-0.0182782
0.000333023
-0.0186002
0.000322007
-0.0189055
0.000305315
-0.0191897
0.000284153
-0.0194509
0.000261255
-0.0196911
0.00024022
-0.0199132
0.000222024
-0.0201225
0.000209395
-0.0203193
0.000196779
-0.0204973
0.000178
-0.0206469
0.000149557
-0.0207587
0.000111839
-0.0208284
6.96296e-05
-0.0208588
3.04889e-05
-0.0208592
3.85693e-07
-0.0208385
-2.07455e-05
-0.0208054
-3.30958e-05
-0.0207643
-4.10876e-05
-0.0207169
-4.74094e-05
-0.020663
-5.39063e-05
-0.0206014
-6.15704e-05
-0.0205307
-7.06982e-05
-0.0204496
-8.11102e-05
-0.0203572
-9.2377e-05
-0.0202532
-0.000104029
-0.0201375
-0.00011569
-0.0200104
-0.000127119
-0.0198722
-0.000138147
-0.0197235
-0.000148712
-0.0195647
-0.000158828
-0.0193962
-0.000168527
-0.0192183
-0.000177833
-0.0190316
-0.000186735
-0.0188363
-0.000195286
-0.0186328
-0.000203491
-0.0184215
-0.000211362
-0.0182026
-0.000218898
-0.0179765
-0.000226063
-0.0177438
-0.000232666
-0.0175048
-0.000239001
-0.01726
-0.000244833
-0.01701
-0.000249991
-0.0167557
-0.000254338
-0.016498
-0.000257627
-0.0162385
-0.000259519
-0.0159795
-0.000258997
-0.0157255
-0.000254032
-0.0154844
-0.000241149
-0.0152682
-0.000216202
-0.0150902
-0.000177967
-0.0149601
-0.000130056
-0.01488
-8.0086e-05
-0.0148453
-3.47398e-05
-0.0148537
8.39583e-06
-0.0149044
5.06801e-05
-0.0149985
9.41181e-05
-0.015129
0.000130519
-0.0152821
0.00015311
-0.0154407
0.000158556
-0.0155897
0.000148977
-0.0157196
0.000129925
-0.0158289
0.000109296
-0.0159233
9.4408e-05
-0.0160133
9.00017e-05
-0.0161083
9.49718e-05
-0.0162134
0.000105169
-0.016329
0.000115599
-0.0164516
0.000122599
-0.0165765
0.000124918
-0.0167
0.000123468
-0.0168202
0.000120181
-0.016937
0.000116774
-0.017051
0.000114031
-0.0171629
0.000111928
-0.017273
0.000110072
-0.0173809
0.000107871
-0.0174858
0.000104937
-0.0175871
0.000101296
-0.0176843
9.71525e-05
-0.017777
9.27418e-05
-0.0178653
8.83327e-05
-0.0179495
8.41614e-05
-0.01803
8.04672e-05
-0.0181075
7.75326e-05
-0.0181832
7.56813e-05
-0.0182584
7.52452e-05
-0.0183349
7.64989e-05
-0.0184146
7.96892e-05
-0.0184995
8.48781e-05
-0.0185905
9.09869e-05
-0.0186894
9.89311e-05
-0.018798
0.000108565
-0.0189171
0.000119106
-0.0190476
0.000130482
-0.0191893
0.000141784
-0.0193421
0.000152764
-0.0195054
0.000163311
-0.0196788
0.000173384
-0.0198616
0.000182785
-0.0200526
0.000191031
-0.0202497
0.000197086
-0.0204491
0.000199399
-0.020646
0.000196868
-0.0208354
0.000189453
-0.0210095
0.000174061
-0.0211602
0.00015073
-0.021275
0.000114836
-0.0213237
4.86376e-05
-0.0212752
-4.85337e-05
-0.0211318
-0.000143355
-0.0209217
-0.000210053
-0.020675
-0.000246737
-0.0204144
-0.000260625
-0.0201561
-0.000258263
-0.0199105
-0.0002456
-0.0196822
-0.000228274
-0.0194706
-0.000211623
-0.019271
-0.000199638
-0.0190762
-0.000194769
-0.0188771
-0.000199094
-0.0186619
-0.000215239
-0.0184241
-0.000237786
-0.0181593
-0.000264768
-0.0178679
-0.000291423
-0.0175543
-0.00031361
-0.017226
-0.000328249
-0.0168925
-0.000333514
-0.0165643
-0.000328236
-0.016252
-0.000312271
-0.0159676
-0.000284442
-0.0157165
-0.000251063
-0.0155004
-0.000216143
-0.015315
-0.000185392
-0.0151497
-0.000165242
-0.0149909
-0.000158847
-0.0148251
-0.000165791
-0.0146458
-0.000179317
-0.0144504
-0.000195362
-0.0142429
-0.000207544
-0.0140318
-0.000211123
-0.0138267
-0.000205022
-0.0136373
-0.000189419
-0.0134655
-0.00017185
-0.0133128
-0.000152676
-0.0131805
-0.000132251
-0.0130696
-0.000110941
-0.0129798
-8.98085e-05
-0.0129091
-7.06642e-05
-0.012854
-5.50964e-05
-0.0128111
-4.2953e-05
-0.0127761
-3.49313e-05
-0.0127462
-2.99363e-05
-0.0127193
-2.68745e-05
-0.0126941
-2.51998e-05
-0.0126691
-2.5045e-05
-0.0126424
-2.66611e-05
-0.0126123
-3.01292e-05
-0.0125764
-3.59199e-05
-0.0125323
-4.41287e-05
-0.0124765
-5.57826e-05
-0.0124044
-7.20579e-05
-0.0123101
-9.42826e-05
-0.0121871
-0.000123059
-0.0120296
-0.000157475
-0.0118348
-0.000194781
-0.0116038
-0.000231043
-0.0113417
-0.000262118
-0.0110544
-0.000287228
-0.01075
-0.000304427
-0.0104373
-0.000312715
-0.010124
-0.00031329
-0.00981843
-0.000305567
-0.00953029
-0.000288134
-0.00927357
-0.000256729
-0.00906712
-0.000206444
-0.00893411
-0.000133016
-0.00890674
-2.73701e-05
-0.00900593
9.91923e-05
-0.00924782
0.000241896
-0.00961556
0.000367738
-0.0100642
0.000448592
-0.0105376
0.000473445
-0.010993
0.000455415
-0.0114035
0.000410486
-0.0117518
0.000348269
-0.0120284
0.000276669
-0.0122241
0.000195699
-0.0123244
0.000100292
-0.0123038
-2.06282e-05
-0.0121528
-0.000151023
-0.011857
-0.000295733
-0.011414
-0.000443014
-0.010823
-0.000591059
-0.0100822
-0.000740798
-0.00919075
-0.000891429
-0.0081495
-0.00104124
-0.00696218
-0.00118732
-0.00564103
-0.00132115
-0.00421701
-0.00142402
-0.00274631
-0.0014707
-0.00129307
-0.00145324
-0.00129307
0.000271269
-0.000651764
0.00104371
-0.00162058
0.00196919
-0.00193211
0.002836
-0.0018539
0.00356147
-0.00162597
0.00413735
-0.00137925
0.00458261
-0.00115907
0.00491591
-0.000967808
0.00515185
-0.000801189
0.00530648
-0.000660832
0.00540022
-0.000551451
0.00545696
-0.000476593
0.00550148
-0.000436865
0.00555692
-0.000430055
0.00564237
-0.000451246
0.00577094
-0.000493196
0.00594894
-0.000547526
0.00617661
-0.000606344
0.00644971
-0.000663498
0.00676154
-0.000715049
0.00710456
-0.000759122
0.00747169
-0.000795432
0.00785702
-0.000824731
0.00825608
-0.000848311
0.00866588
-0.000867647
0.00908468
-0.000884152
0.00951172
-0.000899007
0.00994684
-0.000913059
0.0103901
-0.000926766
0.0108414
-0.000940198
0.0113005
-0.000953081
0.0117663
-0.000964875
0.0122372
-0.000974887
0.0127112
-0.000982372
0.0131857
-0.000986644
0.0136577
-0.000987175
0.0141243
-0.000983692
0.014583
-0.000976276
0.015032
-0.000965448
0.0154706
-0.000952211
0.0158995
-0.000938013
0.0163212
-0.0009246
0.0167392
-0.000913759
0.0171581
-0.000906965
0.0175825
-0.000905012
0.0180162
-0.000907729
0.0184611
-0.000913893
0.0189174
-0.00092139
0.0193828
-0.000927598
0.0198531
-0.000929898
0.0203231
-0.000926155
0.0207873
-0.00091507
0.0212402
-0.000896323
0.0216778
-0.000870535
0.022097
-0.000839072
0.0224965
-0.000803779
0.0228759
-0.000766714
0.0232363
-0.000729867
0.0235795
-0.000694968
0.0239079
-0.000663353
0.0242239
-0.000635907
0.0245303
-0.000613068
0.0248297
-0.000594903
0.0251244
-0.000581209
0.0254164
-0.000571645
0.0257076
-0.000565833
0.0259997
-0.000563452
0.0262941
-0.000564275
0.0265924
-0.000568184
0.0268958
-0.000575131
0.0272056
-0.000585084
0.0275229
-0.000597957
0.0278485
-0.00061356
0.0281832
-0.00063155
0.0285272
-0.000651413
0.0288807
-0.000672475
0.0292432
-0.000693924
0.0296142
-0.000714864
0.0299924
-0.000734368
0.0303765
-0.000751548
0.0307649
-0.000765616
0.0311556
-0.000775941
0.0315468
-0.000782086
0.0319363
-0.000783835
0.0323224
-0.000781197
0.0327031
-0.000774397
0.033077
-0.000763859
0.0334429
-0.000750169
0.0337997
-0.000734051
0.0341472
-0.000716325
0.0344853
-0.000697868
0.0348143
-0.000679566
0.0351352
-0.000662264
0.0354489
-0.000646714
0.0357569
-0.000633524
0.0360607
-0.000623112
0.0363619
-0.000615679
0.0366619
-0.000611197
0.0369621
-0.000609425
0.0372635
-0.000609958
0.0375666
-0.000612284
0.0378719
-0.000615862
0.0381795
-0.000620192
0.0384893
-0.000624869
0.0388012
-0.000629606
0.039115
-0.000634244
0.0394307
-0.00063873
0.0397484
-0.000643086
0.0400684
-0.000647368
0.0403909
-0.000651629
0.0407164
-0.000655878
0.0410456
-0.00066005
0.041379
-0.000663997
0.041717
-0.000667503
0.04206
-0.000670366
0.0424081
-0.00067252
0.0427612
-0.000674181
0.0431194
-0.000675963
0.043483
-0.000678871
0.0438535
-0.000684142
0.0442343
-0.000692895
0.044631
-0.000705651
0.0450517
-0.000721838
0.045506
-0.000739497
0.0460027
-0.00075547
0.0465465
-0.000766133
0.0471344
-0.000768387
0.0477543
-0.00076031
0.0483861
-0.000741121
0.0490066
-0.000710735
0.049593
-0.000669576
0.0501268
-0.000618995
0.0505953
-0.000561827
0.0509917
-0.00050229
0.0513162
-0.000445485
0.051575
-0.000396352
0.0517792
-0.000358758
0.0519427
-0.000334929
0.0520809
-0.000325394
0.0522085
-0.00032929
0.0523394
-0.00034498
0.0524865
-0.000370489
0.0526617
-0.000403983
0.0528769
-0.000443828
0.0531425
-0.000487752
0.0534636
-0.000531064
0.0538333
-0.000564243
0.0542229
-0.000570193
0.0545748
-0.000525679
0.0548036
-0.000409621
0.0548161
-0.000221697
0.0545511
5.2943e-06
0.0540201
0.000198007
0.0533509
0.000249909
0.0528758
5.91996e-05
0.0531852
-0.000440765
0.0546892
-0.000989662
0.0571899
-0.00132097
0.0600776
-0.00134565
0.0626686
-0.00113555
0.064361
-0.00074884
0.0648324
-0.000209881
0.0640547
0.000393212
0.0623601
0.000822068
0.060188
0.00103584
0.0579875
0.00108273
0.0560766
0.00103905
0.0545937
0.000935386
0.053538
0.000759394
0.0528453
0.000513978
0.0524529
0.000238649
0.0523203
-8.76823e-06
0.0524518
-0.000219545
0.0528127
-0.000347852
0.053342
-0.00039381
0.0539326
-0.000358323
0.0544759
-0.000247693
0.0548719
-8.02094e-05
0.0550577
0.000112991
0.0550195
0.000295202
0.054784
0.00044146
0.0544074
0.000539738
0.0539559
0.000590685
0.0534877
0.000603398
0.0530437
0.000590423
0.0526461
0.000563768
0.0523012
0.00053345
0.0520067
0.000507211
0.0517543
0.000490356
0.0515322
0.000486319
0.0513262
0.000496702
0.0511209
0.000521399
0.0509015
0.000558763
0.050655
0.000605888
0.0503719
0.000659117
0.0500461
0.000714964
0.0496756
0.000770386
0.0492615
0.000822942
0.0488071
0.000870934
0.0483178
0.000913356
0.0477993
0.000949746
0.0472581
0.000980024
0.0466999
0.00100437
0.0461304
0.00102316
0.0455542
0.00103692
0.0449755
0.00104635
0.0443972
0.00105225
0.0438216
0.00105551
0.0432498
0.00105709
0.0426821
0.00105798
0.0421181
0.00105915
0.0415564
0.00106151
0.0409953
0.00106589
0.0404325
0.00107295
0.0398655
0.00108318
0.0392919
0.00109687
0.038709
0.00111411
0.0381149
0.0011348
0.0375079
0.00115859
0.0368868
0.00118493
0.0362512
0.00121303
0.0356013
0.00124188
0.0349383
0.00127028
0.0342639
0.00129696
0.0335805
0.00132069
0.0328908
0.00134053
0.0321973
0.00135593
0.0315022
0.00136686
0.0308071
0.00137382
0.0301125
0.00137771
0.0294183
0.00137967
0.0287234
0.0013809
0.0280265
0.00138254
0.0273261
0.00138548
0.0266207
0.00139032
0.0259094
0.00139732
0.0251917
0.00140627
0.0244678
0.00141656
0.0237388
0.00142719
0.0230063
0.00143686
0.0222725
0.00144422
0.0215401
0.00144834
0.0208112
0.00144933
0.0200869
0.00144883
0.0193655
0.0014506
0.0186416
0.00146013
0.0179045
0.0014837
0.0171391
0.00152593
0.0163275
0.00158718
0.015454
0.00166138
0.0145095
0.00173709
0.0134951
0.00180231
0.0124202
0.00185144
0.0112961
0.00188961
0.0101334
0.00192709
0.00894262
0.00197051
0.00773998
0.0020123
0.00655258
0.0020322
0.00541651
0.00200733
0.00436892
0.0019242
0.00343767
0.00178494
0.0026342
0.00160482
0.00195303
0.00140459
0.00137782
0.00120298
0.000890452
0.0010121
0.00048365
0.000834134
0.000167952
0.000670604
-3.42412e-05
0.000527109
7.89609e-06
0.000406856
0.000361428
0.000488205
0.000857949
0.000913127
0.00122087
0.00149514
0.00131422
0.00187833
0.00118302
0.00196011
0.00089698
0.00187795
0.000521217
0.00176315
9.79489e-05
0.00166441
-0.000348721
0.00157779
-0.000803914
0.001491
-0.00126015
0.0014019
-0.00171614
0.00131341
-0.00217462
0.00122966
-0.0026401
0.0011554
-0.00311657
0.00109395
-0.00360521
0.00104426
-0.00410393
0.00100365
-0.00460812
0.000968713
-0.00511179
0.000936669
-0.00560891
0.000905462
-0.0060936
0.000873978
-0.00656121
0.000842301
-0.00700859
0.000810943
-0.00743465
0.000780897
-0.00783829
0.000752683
-0.008222
0.000729066
-0.00859161
0.000712723
-0.00895692
0.000706727
-0.00933366
0.000715558
-0.00974333
0.000742699
-0.0102109
0.000789587
-0.0107579
0.000852278
-0.0113923
0.000918543
-0.0121024
0.000971374
-0.0128554
0.000993221
-0.0136038
0.000970416
-0.0142916
0.000897194
-0.0148723
0.000777527
-0.0153196
0.000625253
-0.0156296
0.000459537
-0.0158176
0.000299874
-0.015909
0.000161001
-0.0159278
4.93076e-05
-0.0158968
-3.05754e-05
-0.0158315
-8.60536e-05
-0.0157419
-0.0001227
-0.0156372
-0.000145843
-0.0155231
-0.000161422
-0.0154031
-0.000173915
-0.0152786
-0.000186112
-0.0151498
-0.00019948
-0.0150164
-0.000214558
-0.0148775
-0.000231286
-0.0147322
-0.000249299
-0.0145797
-0.000268159
-0.0144194
-0.000287394
-0.0142509
-0.000306686
-0.0140738
-0.000325817
-0.0138881
-0.00034456
-0.0136938
-0.000362829
-0.013491
-0.000380582
-0.01328
-0.000397706
-0.0130611
-0.000414218
-0.0128345
-0.000430082
-0.0126006
-0.000445258
-0.0123598
-0.000459758
-0.0121124
-0.000473437
-0.0118588
-0.000486225
-0.0115997
-0.000498091
-0.0113358
-0.000508747
-0.0110677
-0.000518093
-0.0107963
-0.000525803
-0.0105224
-0.000531465
-0.0102475
-0.000534452
-0.00997267
-0.000533817
-0.00969864
-0.000528055
-0.00942395
-0.000515844
-0.00914279
-0.000497364
-0.00884565
-0.000475102
-0.00852236
-0.000453351
-0.00816847
-0.000433976
-0.0077885
-0.000414704
-0.00738764
-0.000392464
-0.0069675
-0.00036946
-0.00652466
-0.000348728
-0.00605986
-0.000334278
-0.00557688
-0.000329866
-0.00508148
-0.000336849
-0.00458216
-0.000350345
-0.00408744
-0.000364787
-0.003604
-0.000374149
-0.0031356
-0.000373991
-0.0026826
-0.000362993
-0.00224222
-0.000345413
-0.00180889
-0.000328163
-0.00137861
-0.000314682
-0.000948586
-0.000307422
-0.000517444
-0.000306223
-8.52472e-05
-0.00030873
0.000346648
-0.000311714
0.000775991
-0.000312569
0.00120067
-0.000310644
0.00161891
-0.00030631
0.00202941
-0.000300435
0.00243118
-0.000293894
0.00282335
-0.000287239
0.00320523
-0.000280577
0.0035761
-0.000273724
0.00393528
-0.000266433
0.00428194
-0.000258323
0.00461513
-0.000249035
0.0049338
-0.000238203
0.00523673
-0.000225399
0.00552259
-0.000210178
0.00578999
-0.000192153
0.00603755
-0.00017106
0.00626395
-0.000146707
0.00646752
-0.000118698
0.00664649
-8.79787e-05
0.00680008
-5.46601e-05
0.00692853
-1.98843e-05
0.00703205
1.5587e-05
0.00711204
5.04862e-05
0.00717137
8.24543e-05
0.00721159
0.000112548
0.00723387
0.000141026
0.00723957
0.000167689
0.00723049
0.000191862
0.00720928
0.000212249
0.00717946
0.000226906
0.0071462
0.000232659
0.00711732
0.000225743
0.00710417
0.000202606
0.00711253
0.000165703
0.00715079
0.000112467
0.00722005
4.55779e-05
0.00730635
-3.76648e-05
0.00739044
-0.000132629
0.0074572
-0.000210115
0.00750847
-0.000261319
0.00754751
-0.000285774
0.00757523
-0.000288345
0.00759102
-0.000274051
0.00759149
-0.00024607
0.00756954
-0.00020633
0.00751359
-0.000155667
0.00740621
-9.22622e-05
0.00722456
-1.31232e-05
0.00695737
6.80993e-05
0.00660112
0.000141011
0.00616763
0.000195706
0.00567094
0.000231922
0.00513141
0.000248109
0.00457472
0.000243081
0.00402892
0.000217545
0.00352052
0.000174889
0.00307091
0.000121378
0.00269365
6.49831e-05
0.00239554
1.36748e-05
0.00217077
-2.62987e-05
0.00200948
-5.4854e-05
0.00189957
-7.54775e-05
0.00182799
-9.36629e-05
0.00178303
-0.000113887
0.00175764
-0.0001404
0.00175114
-0.000172817
0.0017665
-0.000210724
0.00181081
-0.000251857
0.00189353
-0.000293839
0.00202333
-0.000334821
0.00220692
-0.000373008
0.00244084
-0.000405779
0.00271081
-0.000422642
0.00299656
-0.000418003
0.00327345
-0.000387826
0.00351738
-0.000333738
0.00371424
-0.000267529
0.0038618
-0.000202655
0.00396925
-0.000150397
0.00405055
-0.000116231
0.00411998
-9.93657e-05
0.00418885
-9.57452e-05
0.00426423
-0.000100582
0.00434892
-0.000109736
0.0044425
-0.000120243
0.00454256
-0.000130187
0.0046456
-0.000138958
0.00474831
-0.000146845
0.00484737
-0.000154843
0.0049393
-0.000163989
0.00502051
-0.000175485
0.00508624
-0.000188793
0.00512898
-0.000200218
0.00513811
-0.000203904
0.00509975
-0.000192684
0.00499827
-0.000160643
0.00481782
-0.000106772
0.00454928
-3.58888e-05
0.00419788
3.86848e-05
0.00378476
9.98357e-05
0.00334228
0.000136904
0.00290425
0.000149903
0.00249366
0.000153861
0.00211196
0.000175256
0.00173913
0.000239815
0.00135037
0.000361383
0.000919578
0.000529987
0.000448429
0.000713045
-5.45962e-05
0.000870763
-0.000568784
0.00096278
-0.0010679
0.00097256
-0.00152185
0.00090937
-0.00191315
0.000801783
-0.00223738
0.0006725
-0.00249777
0.000537055
-0.00269539
0.000393323
-0.00283126
0.000236164
-0.00292149
6.95971e-05
-0.00296561
-0.000106903
-0.00297337
-0.000287974
-0.00296093
-0.000455446
-0.00294191
-0.00061008
-0.00292298
-0.000759727
-0.00289552
-0.000918891
-0.00283008
-0.00110669
-0.0026794
-0.001338
-0.00239266
-0.00160789
-0.00193719
-0.00187948
-0.00132755
-0.00208034
-0.0006545
-0.00212629
-0.00194757
0.00021852
-0.000870284
0.000997226
-0.00239929
0.00201011
-0.002945
0.00297945
-0.00282324
0.00374508
-0.00239159
0.00426752
-0.00190169
0.00458749
-0.00147903
0.00476653
-0.00114685
0.00485476
-0.000889426
0.00489091
-0.000696975
0.00491072
-0.000571264
0.00494922
-0.000515095
0.00503557
-0.000523208
0.00518846
-0.000582943
0.00541483
-0.000677624
0.00571156
-0.000789921
0.00606889
-0.000904854
0.00647417
-0.00101163
0.00691469
-0.00110402
0.00737937
-0.00117973
0.00785949
-0.00123924
0.0083488
-0.00128473
0.00884319
-0.00131913
0.00934034
-0.00134546
0.00983916
-0.00136647
0.0103394
-0.00138436
0.0108411
-0.00140068
0.0113443
-0.00141632
0.0118491
-0.00143151
0.0123548
-0.00144597
0.0128608
-0.00145901
0.0133656
-0.00146972
0.0138679
-0.00147714
0.0143659
-0.00148043
0.0148583
-0.00147905
0.015344
-0.00147285
0.0158225
-0.00146221
0.0162943
-0.00144804
0.0167607
-0.00143182
0.0172239
-0.00141547
0.0176871
-0.00140116
0.0181534
-0.00139091
0.0186259
-0.00138626
0.0191067
-0.00138784
0.0195968
-0.00139504
0.0200951
-0.00140602
0.020599
-0.00141787
0.0211048
-0.00142712
0.0216075
-0.00143034
0.0221023
-0.00142473
0.0225847
-0.00140852
0.0230508
-0.00138121
0.023498
-0.00134349
0.0239245
-0.00129707
0.0243298
-0.00124433
0.0247141
-0.00118805
0.0250783
-0.001131
0.0254242
-0.00107573
0.0257536
-0.00102433
0.0260685
-0.000978312
0.0263712
-0.000938609
0.0266638
-0.000905591
0.0269481
-0.000879213
0.027226
-0.000859157
0.0274994
-0.000845
0.0277699
-0.000836335
0.0280393
-0.000832856
0.0283094
-0.000834381
0.028582
-0.000840828
0.028859
-0.000852151
0.0291422
-0.000868258
0.0294332
-0.000888933
0.0297334
-0.000913769
0.030044
-0.000942122
0.0303657
-0.000973107
0.0306988
-0.00100561
0.0310432
-0.00103836
0.0313983
-0.00106996
0.031763
-0.00109902
0.0321356
-0.00112422
0.0325144
-0.00114441
0.0328972
-0.00115871
0.0332816
-0.00116652
0.0336654
-0.00116759
0.0340462
-0.00116204
0.0344222
-0.00115031
0.0347915
-0.00113316
0.0351529
-0.00111159
0.0355056
-0.00108678
0.0358493
-0.00106003
0.0361841
-0.00103266
0.0365105
-0.00100596
0.0368293
-0.000981084
0.0371416
-0.000958989
0.0374484
-0.00094037
0.0377509
-0.000925613
0.03805
-0.000914782
0.0383465
-0.000907624
0.0386407
-0.000903626
0.0389328
-0.000902082
0.0392227
-0.000902195
0.03951
-0.000903177
0.0397942
-0.000904335
0.0400744
-0.00090514
0.0403501
-0.000905257
0.0406204
-0.000904547
0.0408847
-0.000903038
0.0411425
-0.000900877
0.0413934
-0.000898278
0.0416372
-0.000895466
0.041874
-0.000892635
0.0421039
-0.000889913
0.0423272
-0.000887354
0.0425447
-0.000884944
0.0427569
-0.000882651
0.0429649
-0.000880504
0.0431694
-0.000878689
0.0433711
-0.000877629
0.0435702
-0.000878006
0.0437668
-0.000880681
0.0439604
-0.000886503
0.0441507
-0.000896001
0.0443379
-0.000909035
0.0445229
-0.000924512
0.0447078
-0.000940351
0.0448955
-0.000953821
0.0450893
-0.000962141
0.045292
-0.000963064
0.045506
-0.000955104
0.0457327
-0.000937424
0.0459728
-0.00090971
0.0462262
-0.000872356
0.0464911
-0.000826767
0.0467646
-0.000775768
0.0470429
-0.000723767
0.0473224
-0.000675901
0.0476005
-0.000636844
0.0478752
-0.000609611
0.0481447
-0.000594884
0.0484066
-0.000591192
0.0486573
-0.000595706
0.0488923
-0.00060551
0.0491066
-0.000618284
0.0492949
-0.000632069
0.0494516
-0.000644493
0.0495721
-0.000651572
0.0496527
-0.000644848
0.0496883
-0.000605794
0.049667
-0.000504307
0.0495632
-0.000305834
0.0493413
2.27036e-07
0.0489709
0.000375655
0.0484292
0.000739671
0.0477829
0.000896202
0.0472093
0.000632874
0.0468865
-0.000117987
0.0469781
-0.00108128
0.0476516
-0.00199444
0.0489438
-0.00263784
0.0506963
-0.00288803
0.0525472
-0.00259973
0.0540384
-0.00170109
0.0547799
-0.00034835
0.0546073
0.000994729
0.0536854
0.00195768
0.0524262
0.00234196
0.0512361
0.00222918
0.0503469
0.00182452
0.0497818
0.00132455
0.0494415
0.000854273
0.0492141
0.000466033
0.0490411
0.000164235
0.0488827
-6.11664e-05
0.0487426
-0.000207772
0.0486424
-0.000293563
0.048596
-0.000311979
0.0486109
-0.000262535
0.0486708
-0.000140184
0.0487435
4.03507e-05
0.0487901
0.000248545
0.0487783
0.000453282
0.0486989
0.000619193
0.0485613
0.000728302
0.0483839
0.000780756
0.0481848
0.000789497
0.0479765
0.000772124
0.0477652
0.000744694
0.0475534
0.000719039
0.0473412
0.000702504
0.0471284
0.000699159
0.0469142
0.000710887
0.0466976
0.000738067
0.0464766
0.000779743
0.0462487
0.000833732
0.046011
0.000896892
0.0457603
0.00096558
0.0454947
0.00103605
0.0452128
0.00110482
0.0449147
0.00116907
0.0446013
0.00122674
0.0442744
0.00127663
0.0439362
0.00131823
0.0435888
0.00135171
0.0432343
0.0013777
0.0428739
0.0013973
0.0425084
0.0014119
0.0421375
0.00142315
0.0417602
0.00143277
0.0413749
0.00144246
0.040979
0.00145382
0.0405699
0.00146822
0.0401447
0.00148677
0.0397004
0.00151021
0.0392344
0.00153891
0.0387448
0.00157283
0.0382301
0.00161151
0.0376901
0.00165412
0.0371254
0.00169949
0.0365379
0.00174614
0.0359304
0.00179243
0.0353067
0.00183669
0.0346712
0.00187739
0.0340282
0.00191329
0.0333815
0.00194367
0.0327337
0.00196841
0.0320863
0.00198802
0.0314386
0.00200356
0.030789
0.00201648
0.0301345
0.00202836
0.0294716
0.00204061
0.0287969
0.00205433
0.0281077
0.00207013
0.0274021
0.00208816
0.0266794
0.00210816
0.0259402
0.00212954
0.0251861
0.00215135
0.0244199
0.00217254
0.0236447
0.00219167
0.0228647
0.00220725
0.0220838
0.00221778
0.0213059
0.00222203
0.0205348
0.00221953
0.0197726
0.00221151
0.0190201
0.00220135
0.0182753
0.00219535
0.0175328
0.00220267
0.0167819
0.00223452
0.0160062
0.0023017
0.0151825
0.00241082
0.0142839
0.00256001
0.0132848
0.00273621
0.0121705
0.00291657
0.0109472
0.00307477
0.0096484
0.00318841
0.00833215
0.00324334
0.00707004
0.00323262
0.00592887
0.00315348
0.0049528
0.00300827
0.0041525
0.00280763
0.00350447
0.00257223
0.00296027
0.00232914
0.00245943
0.00210566
0.00194331
0.00192071
0.00136503
0.00178127
0.000693108
0.00168401
-8.96262e-05
0.00161687
-0.000983201
0.00156418
-0.00196218
0.00150609
-0.00296694
0.00141161
-0.00385116
0.00137243
-0.00446836
0.00153033
-0.00480824
0.00183502
-0.00505295
0.00212304
-0.00537343
0.0022806
-0.00580788
0.0023124
-0.00631891
0.00227417
-0.00686158
0.00220708
-0.00741624
0.00213245
-0.00797803
0.00205278
-0.00854312
0.00196699
-0.00910524
0.00187553
-0.00965703
0.00178145