/*--------------------------------*- C++ -*----------------------------------*\
| =========                 |                                                 |
| \\      /  F ield         | OpenFOAM: The Open Source CFD Toolbox           |
|  \\    /   O peration     | Version:  v2006                                 |
|   \\  /    A nd           | Website:  www.openfoam.com                      |
|    \\/     M anipulation  |                                                 |
\*---------------------------------------------------------------------------*/
FoamFile
{
    version     2.0;
    format      ascii;
    class       volScalarField;
    location    "0";
    object      shifted_f;
}
// * * * * * * * * * * * * * * * * * * * * * * * * * * * * * * * * * * * * * //

dimensions      [0 0 0 0 0 0 0];


internalField   nonuniform List<scalar> 
2500
(
2.99099e-15
1.32847e-21
2.99099e-15
-4.48649e-15
2.65626e-21
1.32368e-21
0
-5.41125e-21
2.9749e-15
-5.66253e-21
0
-4.109e-35
0
1.45037e-14
2.28718e-14
0
9.87397e-22
1.70573e-14
2.34383e-22
2.07074e-36
-3.72566e-13
0
-1.98812e-22
9.99493e-24
9.12822e-23
6.81956e-23
3.56453e-12
-1.19757e-23
-1.24547e-23
-7.01847e-25
0
-1.27912e-13
1.25731e-23
9.47544e-24
6.20823e-24
3.66319e-24
1.98644e-24
1.0026e-24
0
0
8.9996e-26
3.62457e-26
0
5.0991e-27
1.79335e-27
6.09391e-28
4.06385e-19
6.73289e-29
2.30129e-29
8.32773e-30
0
-5.16885e-35
1.46103e-21
4.68093e-15
2.83313e-14
-1.8678e-14
0
-1.91365e-14
0
-1.30979e-20
3.60693e-14
0
0
4.82434e-34
0
2.64343e-34
4.11585e-15
0
-3.1626e-13
-6.94804e-14
0
1.8512e-12
7.10378e-13
-6.1283e-23
-8.32719e-12
-6.77287e-12
6.66987e-12
5.22006e-12
0
5.40002e-12
1.49552e-12
-4.46376e-13
-2.22522e-12
-1.8631e-12
-5.85642e-43
-3.73717e-13
-8.13341e-14
3.32792e-14
0
0
4.02599e-47
0
-1.6486e-16
-2.85955e-17
0
-1.79499e-18
1.06105e-51
1.68578e-52
-2.69749e-19
-1.90187e-19
1.22651e-20
1.22651e-20
-3.95049e-14
9.87623e-15
6.02409e-14
0
0
-2.52221e-20
-4.17661e-14
-2.97393e-20
7.25044e-14
3.81252e-21
-3.391e-21
1.29494e-13
2.35211e-33
-1.65065e-13
-5.3915e-20
-5.89779e-13
4.38403e-21
0
1.49267e-34
0
9.7109e-11
2.98768e-10
0
0
-2.97401e-10
0
3.18658e-11
-1.54952e-22
0
0
0
0
-3.70012e-42
0
0
0
0
0
7.44684e-25
-7.60545e-46
-7.76633e-25
-1.49202e-48
0
0
0
0
-1.46416e-27
0
2.4479e-20
2.4479e-20
6.11975e-21
-4.65981e-14
-3.17616e-14
0
2.40665e-20
-5.09347e-20
0
0
1.10562e-13
1.504e-21
4.34547e-13
2.16784e-13
-8.75374e-21
1.61829e-20
-1.32647e-19
3.1908e-20
1.36057e-20
-1.11414e-20
0
0
4.09392e-20
3.29597e-21
8.14226e-21
0
-4.94308e-10
-1.39847e-21
0
-5.98935e-22
5.98916e-23
0
3.43548e-22
2.55055e-22
0
8.76483e-23
2.70017e-12
0
-2.34273e-13
3.51353e-24
0
4.47645e-25
0
0
-2.70545e-17
0
1.17859e-27
6.51074e-28
0
2.4389e-28
0
1.15689e-20
3.47066e-20
1.7402e-14
-3.56592e-14
-6.9183e-14
0
0
0
0
1.23078e-13
-1.40247e-20
5.25358e-13
2.53334e-13
0
0
-3.13178e-19
6.58657e-12
0
0
0
0
7.05424e-10
0
0
0
-9.93954e-10
0
0
0
0
1.50182e-09
0
0
-6.90102e-22
0
8.79291e-23
-7.30471e-13
1.23243e-12
0
0
-2.93537e-44
-9.43918e-25
0
0
0
0
0
0
0
0
-3.4181e-31
6.18361e-20
1.55932e-10
8.35742e-20
0
0
2.0828e-10
2.09474e-10
0
0
0
0
0
0
0
0
0
0
-6.10652e-10
-5.69182e-32
0
3.07161e-19
0
0
0
1.06817e-09
0
0
6.97751e-09
0
-1.38214e-09
0
0
0
0
0
0
0
0
0
-2.49705e-15
0
0
5.04023e-18
0
0
0
0
0
0
-7.15611e-31
1.43311e-30
2.54474e-09
1.69667e-09
0
0
0
3.39574e-09
0
0
0
0
0
0
0
0
-1.05005e-18
0
0
0
0
0
-8.55757e-08
0
0
7.91039e-08
0
0
0
0
0
0
0
0
0
0
0
0
0
0
0
1.08732e-23
0
0
0
0
0
0
0
-4.2595e-19
-1.29665e-29
-4.2595e-19
9.25852e-09
-4.53427e-19
1.23466e-08
0
0
1.2335e-08
0
0
0
0
0
0
0
0
0
0
0
-1.54146e-30
0
0
-2.82733e-07
0
0
0
0
0
0
0
0
0
0
0
0
0
0
0
0
0
0
0
0
0
0
0
0
0
0
0
-5.22531e-08
7.55254e-20
1.95949e-08
-5.22544e-08
0
-5.22743e-08
0
2.60827e-08
-7.91876e-18
-5.25414e-08
0
0
0
0
0
0
-1.1112e-07
0
0
-4.46742e-08
0
0
-1.17932e-06
0
0
6.76918e-07
0
6.3532e-08
0
0
0
0
0
0
0
0
1.11285e-11
0
0
0
0
0
0
0
0
-3.16732e-16
0
0
3.29707e-16
-1.37386e-07
-4.15998e-28
-1.37386e-07
2.57599e-08
1.71732e-08
-3.436e-08
0
3.43475e-08
3.42613e-08
0
0
0
0
-1.31667e-07
-1.66344e-27
-1.52782e-07
0
-1.42202e-07
0
0
-2.72222e-07
0
-7.09683e-07
0
0
0
9.20651e-07
0
0
0
0
-4.46939e-07
0
0
-2.45749e-09
0
0
0
8.6118e-12
0
0
4.55282e-14
2.34774e-22
0
0
-4.99395e-15
0
0
0
0
0
-8.63995e-19
-8.63995e-19
1.16551e-08
1.86582e-07
0
0
0
-4.73409e-08
1.8685e-07
8.84893e-08
0
0
0
0
-3.95032e-15
0
3.62051e-07
0
0
-1.39131e-28
0
0
1.09947e-05
0
0
0
0
0
-2.59175e-18
0
0
-1.0295e-19
0
0
9.75545e-21
0
0
0
0
0
0
1.19446e-22
0
0
0
0
0
0
0
0
-3.664e-27
-7.21487e-16
-1.30874e-06
-2.61772e-06
0
0
0
-1.7514e-06
0
0
0
0
0
0
0
0
-3.4838e-27
0
0
-5.09519e-28
0
-8.09165e-15
0
0
0
-9.61456e-05
0
0
0
0
-4.88039e-33
0
0
0
0
0
0
0
0
0
0
0
0
0
0
0
0
0
0
0
-1.7328e-26
4.16963e-26
-5.23135e-06
2.7902e-05
0
0
1.03981e-15
-6.99452e-06
0
0
0
0
0
0
0
0
3.49192e-05
0
0
3.08229e-06
0
0
0.000114853
0
-6.67139e-05
-0.000277268
0
0
0
0
0
0
0
0
0.0021548
0
0
0
0.000177658
0
0
5.93786e-12
0
0
0
0
-5.85665e-14
-2.19945e-13
-8.03981e-14
9.65951e-14
-7.70279e-26
6.0372e-15
-1.2463e-05
-8.30894e-06
0
0
-1.66418e-05
-1.66578e-05
1.18342e-13
0
0
0
0
0
0
0
0.000164089
-6.10384e-12
0
1.82429e-05
0
0
0.000243559
0
0
-0.000585123
0
0
0
0
0
0
0
7.02541e-19
0
0
0
0
0.000446138
0
0
0
0
0
0
0
0
0
0
1.66698e-13
-3.20925e-25
1.04187e-14
-2.21869e-05
1.47917e-05
4.40968e-14
0
3.09866e-13
0
0
-1.58354e-24
-1.62785e-12
0.000121492
5.89142e-05
0
0
-3.42964e-11
0
-3.7124e-11
1.47951e-25
4.00869e-05
0.000134078
7.89468e-12
0.000821291
5.89535e-14
0
0
0
4.04243e-15
0
0
0
0
1.57733e-18
0
0
8.03002e-19
0
0
0
0
0
9.11906e-11
7.69362e-11
0
0
-3.52125e-22
0
0
0
0
-1.26289e-24
1.21822e-14
-3.14679e-05
-2.09791e-05
-4.19374e-05
0
-4.20237e-05
-4.20519e-05
6.93488e-13
0
0
0
0
0
0
0
0
0
0
0.000120985
0
0
0.000574813
0
0
-0.00141277
0
0
0
0
0
0
0
0
0
0
0
0
0.00133935
0
0
0
0
0
0
0
0
0
0
0
-4.92484e-24
1.06714e-14
-3.62066e-05
2.41384e-05
-4.82516e-05
0
0
-4.83891e-05
0
0
0
0
0
0
0
0
0
0
0
6.67246e-05
0
0
0.000677412
0
0
-0.00172245
0
0
0
0
0
0
0
0
0
0
0
0
0.00177834
0
0
0
0
0
0
0
0
0
0
3.53176e-22
0
-6.12884e-12
-3.37352e-05
2.2491e-05
0
0
-1.41871e-10
0
-2.09324e-10
0
0
0
8.90988e-05
0
0
6.17189e-09
2.04317e-22
0
0
4.67438e-05
0.000244609
-1.925e-09
0.00136073
-8.71919e-26
0
-2.02152e-26
-7.34404e-27
0
0
0
0.0340343
0.0438985
0
0
0
3.15351e-18
0.0135814
0
0
0
0
-7.56738e-20
-6.73081e-08
-3.12925e-08
0
0
0
0
0
0
-1.37617e-22
-1.40127e-05
-2.10177e-05
1.40137e-05
0
0
0
-2.814e-05
0
0
0
0.000117169
5.55809e-05
0
0
9.3133e-08
0
0.000105266
0
-5.59499e-06
0
-7.87662e-09
0
0
0
-0.00164492
0
0
0
0
0
0
0
0
0
0
0
0
0
0
0
-1.61123e-19
0
-7.35764e-08
0
0
-6.88762e-39
6.00536e-11
8.90074e-12
0
-5.4366e-08
-3.39787e-09
-3.57554e-06
-2.38934e-06
0
-5.63049e-08
0
-4.86187e-06
-1.66615e-08
0
0
2.21832e-05
0
0
0
3.11181e-05
1.97573e-07
2.44692e-05
0
-6.53392e-05
0
0.000197966
0
0
-0.000732469
-0.00118589
0
0
0
1.15939e-14
0
0
0
0
0.0129089
0
0
0
0
0
-3.54166e-19
0
-4.11232e-07
-1.11499e-07
0
0
4.02994e-10
8.92289e-11
0
-1.26661e-07
-1.26661e-07
-7.91634e-09
-3.29408e-06
-6.58694e-06
0
0
-6.27424e-08
0
0
2.17127e-19
0
0
-2.56116e-05
0
0
-5.3815e-05
2.03828e-07
-1.0232e-06
-7.27207e-07
-9.79925e-05
-0.000107773
-1.49061e-08
0.000232752
0
0
0
0
-0.00190494
0
0
0
0
0
0
0
3.46102e-16
0
0
-5.83679e-18
0
0
-2.45808e-19
-5.47702e-07
0
0
0
0
0
-1.19639e-11
0
-7.64421e-20
-1.02037e-08
1.35508e-05
-9.01967e-06
0
0
0
1.80333e-05
0
0
0
0
0
0
0
0
-8.93178e-06
0
0
-8.61446e-05
0
0
3.46534e-06
0
0
-0.00012384
0
0
0
0
0
0
0
0
0.00291773
0
0
0
0.000239715
0
0
0
0
0
0
0
0
0
0
0
-5.32526e-19
4.73129e-08
8.35875e-06
-5.63698e-06
0
0
1.12993e-05
1.12945e-05
5.22404e-07
0
0
0
0
0
0
0
-9.61749e-05
0
0
0.000462286
0
0
0.000242039
0
0
0.000156493
0
0
0
0
0
0
0
0
0
0
0
0
-0.000170966
0
0
0
0
0
0
0
0
0
0
5.58531e-17
-3.49082e-18
6.99123e-07
-1.06373e-06
2.32682e-07
0
0
4.77477e-07
4.94017e-07
0
0
0
0
0
0
0
0
-0.000151143
0
0
0
0
0
0
-1.33735e-22
0
0.000219945
0
-3.24427e-24
0
0
0
0
-7.36863e-27
-0.00387595
0
0
0
0
-1.59828e-30
0
0
7.55076e-18
0
2.38637e-07
0
0
-9.99922e-10
-3.35812e-10
-7.10436e-38
0
-4.22836e-17
2.40254e-06
-8.25357e-06
-2.27419e-06
0
0
0
-4.52852e-06
0
0
0
0
0
0
0
0
0
0
0
3.26755e-05
0
0
0.0039419
0
0
0.000148161
0
0
0
0
0
0
0
0
0
0
0
0
-0.000192291
0
0
0
0
0
0
0
0
0
0
0
-1.09402e-16
5.10481e-06
-1.13377e-05
7.0668e-07
0
0
0
-1.40872e-06
0
0
0
0.000209322
0
0
0
-0.000632926
-0.000772896
0.00082666
0.00608295
1.12445e-05
0
0.00833462
0
0
0.00718136
4.09459e-05
0
0
0
3.11664e-11
0
0
0
0
-0.00101488
0
0
-0.000133428
0
0
0
0
3.81011e-08
0
0
0
-5.61536e-35
1.36668e-10
5.41823e-11
-4.67822e-05
0.000158758
7.88508e-06
-1.1483e-05
2.92405e-06
-5.8514e-06
-4.67907e-05
5.83469e-06
0
0
-4.70266e-05
-4.59834e-05
0.000302448
-4.81871e-05
0
-4.60773e-05
-0.000949063
-4.14472e-05
0.00134526
0.00917737
-2.4761e-05
0
0.0125876
0.0115712
0
0.0114589
-1.98662e-05
0.00240152
0
0.000300461
4.34759e-11
0
0.000490253
0
0
0.00111997
0.000895918
0
0.000167431
0.000139108
0
1.31467e-06
-7.32785e-07
-4.91826e-07
0
-3.03748e-08
0
-1.67331e-34
6.9718e-10
1.33233e-10
0
0.000211412
9.19884e-06
-1.0739e-05
-8.29525e-05
0
0
0
1.03653e-05
0
0
0
0
0
0
0
0
-0.000981443
0.00172038
0
-4.38991e-05
0
0.0314493
0.0146687
0
0
-2.0084e-05
0
0.000484078
0
0
0
0
0
0
0.00114962
0
0
0
0
0
0
0
-5.6547e-07
0
0
1.1424e-09
-4.70507e-34
0
0
0
4.61709e-12
-7.84099e-06
0.000169557
2.63419e-05
0
0
0
0
4.33615e-05
0
0
0
0.000789345
0
0
0
-0.000557396
0
0
-6.7206e-18
-5.14413e-05
0
0
0
0
0
0
0
0
0
0
0
0.00112976
0
0
0.00063107
0
0
0
0
0
0
0
0
0
0
0
0
0
0
-2.08864e-12
3.3181e-06
-1.46278e-07
-4.38959e-06
0
0
8.77138e-06
8.7859e-06
0
0
7.32418e-05
0
0
-3.52902e-05
0
0
0
0
0
-3.25036e-05
0
0
0.0142932
0
0
3.24723e-05
0
0
0
0
0
0
0
0
0
0
0
0
1.9981e-06
0
0
0
0
0
0
0
0
0
0
0
0
-1.548e-06
9.24368e-06
4.11278e-06
0
0
8.24911e-06
8.26456e-06
0
0
0
0
0
0
0
0
0
0
0
0.0117098
0
0
0
0
0.0114043
3.26755e-05
0
0
0
0
0
0
0
0
0
0
0
0
-1.89237e-07
0
0
-1.78748e-07
0
0
0
0
-3.60829e-11
-2.70744e-11
-8.39286e-12
0
-0.000185958
-3.63001e-06
1.3754e-05
-4.3947e-06
0
0
8.77859e-06
8.79154e-06
-2.02933e-05
0
0
0
0
0
0
0
-0.00138111
0
0
-3.39396e-05
0
0
0.00563332
0
0
2.05113e-05
0
0
0
0
0
0
0
0
0
0
0
0
0
0
0
0
0
0
0
0
0
0
0
0
-7.21463e-05
1.7184e-06
-6.77997e-05
-4.49763e-06
0
0
8.98536e-06
8.99632e-06
-8.32493e-06
0
0
0
0
0
0
0
-0.000540397
-7.58143e-05
0
0
0
0
0.00167825
0
0
1.19553e-05
2.51861e-06
0
0
0
4.89397e-05
0
0
0.000362745
0
0.000233581
0
0
1.79749e-05
0
-2.52916e-07
-1.21842e-07
0
0
0
2.43163e-11
1.66996e-11
8.25446e-12
2.53005e-12
0
-6.01677e-05
2.87021e-07
4.60367e-06
7.42517e-06
-7.04645e-06
0
-6.8202e-05
0
0
-1.51855e-05
0
0
0
0
0
0
-0.000198509
0
0
-3.35808e-05
0
0
-0.000981443
0
-0.000760201
1.34998e-05
-0.000302285
-0.000205459
0
0
0
0
0
0.000477266
0.000411354
0.000290155
0
0
1.82344e-05
0
0
-2.22265e-07
0
0
0
1.31725e-11
1.06148e-11
4.71796e-12
1.14216e-12
0
-6.33213e-07
-5.20044e-06
4.95905e-06
4.14851e-05
0
0.00026515
8.15904e-06
8.17115e-06
0
0
0
0
0
-3.31347e-05
0
0
0
0
0
-3.13994e-05
0
-0.0011568
-0.00116309
0
-0.00126585
0
0
0
0
0
0
0
0
0
0.000380546
0.000265083
0
0
0
0
-2.02572e-27
0
0
0
0
0
0
1.10921e-12
0
0
7.29477e-06
-6.65111e-05
6.07058e-05
-4.17497e-06
7.38117e-06
0
0
0
0
0
0
-0.0318915
0
0
0
0
0
0.000392726
0
-3.19749e-05
-3.4207e-05
0
-0.000761594
-0.000582817
0
2.07256e-05
-0.000112864
0
0
0
0
0
0
0
0
0.000225563
0
0
0
0
0
0
0
0
0
0
-2.11595e-13
-3.30128e-13
-1.1942e-13
0
-0.00138264
-1.11602e-06
0
0.000306369
-0.948317
-2.94477
-4.09274
-4.19255
-3.24424
-1.24779
-0.0998228
0
0
0
0
-0.00326914
6.68201e-05
8.27558e-05
-7.17709e-05
-3.3551e-05
0
-6.72734e-05
-1.66161e-05
0
0
1.88124e-05
5.78294e-05
0
0
0
0
0
0
0
0.000311442
0.000220372
0
0
0
0
0
-2.08916e-07
-9.75717e-08
0
0
-1.21936e-12
-2.28765e-31
-1.20342e-13
6.55764e-14
0
8.95683e-05
-1.43308e-06
0
-2.05171
-4.51069
-4.97632
-6.83676
-7.62874
-7.25891
-7.00175
-3.24912
-0.199646
0
0
0
0
0
0
0
0
0
0
0
0
0
1.72919e-05
0
0
0
0
0
0
0
0
0
0
0
0
1.42672e-05
0
0
0
0
0
0
0
0
0
0
-6.79883e-05
0.000106998
0.00020279
-0.0625524
-2.37468
-4.77976
-2.09023
-1.22409
-2.05803
-1.18326
-5.2946
-7.924
-3.2524
-0.0998228
-3.45342e-05
0
2.0948e-05
-0.000474331
-0.000235214
0
0
0
0.000385344
0.000318673
0
0
1.76937e-05
-6.13295e-06
-0.000182927
-0.000145461
-0.000102672
4.43678e-05
0.000234389
0.0003716
0.000794474
-2.09471e-22
0.000242982
0.000136556
5.74165e-05
0
8.30446e-07
-1.14711e-26
0
-9.82855e-08
0
0
2.10199e-12
8.69298e-13
4.63195e-13
1.78918e-13
-0.000106771
-0.00192133
1.21032
0.175468
-1.2574
0.413448
1.57117
2.20867
-0.497551
2.26197
4.33703
-5.35422
-7.03305
-1.24912
0
-2.93908e-05
1.18307e-05
0
-0.000103986
-0.000282194
0
0
0.000177939
0
0.00026097
0
1.84448e-05
4.39868e-06
-9.38199e-05
-0.000147589
-0.000105726
0
0.000227178
0.000363862
0.00039005
0
0.000238603
0.000133876
0
0
3.58249e-07
0
-4.22141e-07
0
0
0
0
4.29509e-13
2.75663e-13
1.30898e-13
0.00199541
0.188068
2.74434
1.16318
-2.9967
1.93698
4.6437
-0.147628
-5.73098
-5.1668
1.84059
-1.88706
-7.31932
-3.24427
0
0
-0.0160713
-0.00069571
-3.45271e-05
0
7.67954e-08
0
-3.53322e-05
0.000101545
9.66771e-05
0
1.84327e-05
1.24048e-06
0
-0.000144858
-0.000105922
3.58747e-05
0
0
0.000382785
0.000332808
0.000234648
0
5.52459e-05
1.37814e-05
0
-4.40556e-27
0
0
-2.70771e-08
0
0
0
2.90044e-13
0
0
0.564752
2.41345
1.94263
-4.63229
-2.54383
6.57848
-0.304652
-8.69147
-6.33257
-0.368446
-2.29024
-7.73027
-4.19319
0
0
0
0
0
0
-0.000114425
0
0
0
0
0
1.81446e-05
0
0
0
0
3.74304e-05
0
0
0
0
0
0
0
0
0
0
0
0
0
0
0
0
0
0
0
0.752229
1.1665
1.68112
-2.98303
-6.78761
2.79403
6.2341
-0.2661
-0.566322
2.21001
-1.44106
-6.93864
-4.09353
-0.0430208
0
1.57221e-05
0.000118372
-6.47776e-05
0
-3.30582e-05
0
0.000109594
0
0
0
1.81141e-05
0
0
0
-1.76412e-07
0
0
0
0
0
0
0
0
1.40106e-05
0
0
0
-9.86921e-08
-2.71687e-08
0
0
0
0
0
0
0.56268
0.471242
-0.565944
0.123824
-3.36709
-4.60032
2.88592
6.21178
4.47828
1.57251
-2.22718
-5.07864
-2.94535
0
0
0
0.000192465
0
0
-3.29964e-05
0
0
0.000124126
0
0
1.82084e-05
0
-8.86042e-05
0
0
0
0
0
0
0
0
0
0
1.39786e-05
0
0
-2.09064e-07
0
0
0
5.98505e-13
0
0
0
0
0.18828
0.746693
-1.21501
-0.936515
1.80135
-3.36541
-6.95325
-2.44207
1.55235
0.484949
-4.8164
-4.58387
-0.948501
0
0
-6.53265e-05
-6.82595e-05
-7.5677e-05
-7.03e-05
-3.30261e-05
0
0
0.000100945
0
1.13282e-05
1.82225e-05
-3.6513e-06
0
-0.000144349
-0.000105013
3.80168e-05
0.00022395
0.000359574
0
0.000335452
0.000236513
0.000132849
0
1.39447e-05
7.42282e-07
-2.74994e-07
-4.18251e-07
0
-2.71368e-08
-1.6592e-09
1.08956e-12
4.86792e-13
3.11043e-13
1.48553e-13
0
0
0.570763
0.755218
-1.4795
-1.40209
0.432739
-2.93546
-5.04062
-3.51334
-1.37182
-2.44346
-2.07768
-0.000184201
0
0
0
1.19146e-05
0
0
-3.30445e-05
0
0
9.99083e-05
0
0
1.81966e-05
0
-8.87909e-05
0
0
0
0
0
0.000772025
0
0
0
0
0
0
-2.74922e-07
0
0
0
0
1.10731e-12
0
0
0
0
-3.68294e-06
-4.94536e-06
0.770251
0.743114
-1.05773
-0.670442
1.44432
1.78032
1.09248
0.234652
-0.0714966
0
0
0
0
-0.000646702
-2.97808e-05
0
0
-7.5179e-09
-3.51179e-05
0.00012619
6.47808e-05
0.000206478
0
1.81936e-05
0
0
0
0
0
0
0
0
0
0.000236665
0
0
0
0
-2.74814e-07
-2.09046e-07
0
-2.71494e-08
-1.66379e-09
0
5.08328e-13
-9.80805e-20
0
0
-1.61834e-06
-1.3647e-06
1.19793e-05
0.514005
0.875361
0.294633
1.13799
2.32052
2.60598
1.18922
0
0
0
0
0
0
0
0
0
-3.30349e-05
0
0
0.00010665
0
0
1.81974e-05
0
0
0
0
3.8104e-05
0
0
0
0
0
0
0
0
0
0
0
0
0
0
-3.69891e-19
0
0
0
0
-2.1882e-05
-1.36824e-06
9.84257e-06
-8.37758e-06
0.196744
0.587426
0.721033
0.492764
0.196334
0.00196914
0
-0.00220959
0
0
0
1.94478e-05
7.61551e-05
-6.85394e-05
-0.000151169
-4.52397e-08
0
0.000125457
0
0
0.000174665
1.81974e-05
3.52524e-17
0
0
-2.53357e-07
0
0
0
0
0
0
0
5.57999e-05
0
0
0
0
-9.87695e-08
0
0
5.40715e-31
7.90975e-32
0
1.5438e-33
0
-2.58818e-05
-1.36824e-06
5.88803e-06
-3.10191e-06
0
0
8.51825e-06
0
0
0
0
-0.0017647
0
0
0
-1.51194e-06
-2.9542e-05
-7.05925e-05
-0.00015106
0
0
0.000125457
6.42309e-05
0
0.000174665
1.81974e-05
0
0
0
-2.53357e-07
0
0
0
0
0
0
0
5.57999e-05
0
0
0
0
-9.87695e-08
0
0
0
8.26929e-32
0
0
)
;

boundaryField
{
    movingWall
    {
        type            zeroGradient;
    }
    fixedWalls
    {
        type            zeroGradient;
    }
    frontAndBack
    {
        type            empty;
    }
}

