/*--------------------------------*- C++ -*----------------------------------*\
| =========                 |                                                 |
| \\      /  F ield         | OpenFOAM: The Open Source CFD Toolbox           |
|  \\    /   O peration     | Version:  v2006                                 |
|   \\  /    A nd           | Website:  www.openfoam.com                      |
|    \\/     M anipulation  |                                                 |
\*---------------------------------------------------------------------------*/
FoamFile
{
    version     2.0;
    format      ascii;
    class       volScalarField;
    location    "0";
    object      p;
}
// * * * * * * * * * * * * * * * * * * * * * * * * * * * * * * * * * * * * * //

dimensions      [1 -1 -2 0 0 0 0];


internalField   nonuniform List<scalar> 
67500
(
49.5879
49.8223
52.7081
53.211
46.5889
34.0561
22.2886
14.5575
10.2433
7.82087
6.46521
5.83556
5.71264
5.93075
6.41011
7.12218
8.05212
9.18673
10.5104
12.001
13.6275
15.3487
17.113
18.8583
20.514
22.0076
23.2815
24.3171
25.1421
25.8048
26.345
26.7862
27.1432
27.432
27.669
27.8615
28.0122
28.1235
28.1942
28.2201
28.1966
28.1193
27.984
27.7882
27.5319
27.2167
26.8461
26.4245
25.9567
25.4474
24.901
24.3222
23.7152
23.0848
22.4355
21.772
21.0989
20.4206
19.7411
19.0641
18.3926
17.7293
17.0761
16.4349
15.807
15.1933
14.5945
14.0113
13.444
12.8928
12.358
11.8396
11.3375
10.8519
10.3825
9.92923
9.49199
9.07057
8.66477
8.27436
7.89912
7.53877
7.19303
6.86161
6.5442
6.24047
5.95009
5.67269
5.4079
5.15535
4.91465
4.68539
4.46718
4.25959
4.06223
3.87467
3.69652
3.52736
3.36681
3.21447
3.06999
2.93299
2.80313
2.68008
2.56352
2.45316
2.34871
2.24991
2.15649
2.06821
1.98485
1.90619
1.83202
1.76215
1.69638
1.63453
1.57643
1.5219
1.47078
1.4229
1.3781
1.33623
1.29713
1.26065
1.22664
1.19495
1.16544
1.13797
1.11239
1.08857
1.06636
1.04564
1.02627
1.00812
0.991057
0.974967
0.959726
0.945216
0.931325
0.917946
0.904978
0.892323
0.879892
0.867602
0.855377
0.84315
0.830861
0.818458
0.805898
0.793146
0.780175
0.766966
0.753509
0.7398
0.725842
0.711644
0.69722
0.682589
0.667775
0.652805
0.637706
0.622509
0.607247
0.59195
0.576652
0.561384
0.546175
0.531056
0.516054
0.501194
0.4865
0.471995
0.457696
0.443623
0.429789
0.416209
0.402893
0.389852
0.377092
0.36462
0.352439
0.340555
0.328967
0.317676
0.306684
0.295987
0.285584
0.275471
0.265646
0.256105
0.246842
0.237853
0.229132
0.220673
0.212471
0.20452
0.196813
0.189345
0.182107
0.175095
0.168301
0.161719
0.155343
0.149166
0.143182
0.137385
0.131769
0.126328
0.121055
0.115946
0.110996
0.106198
0.101547
0.0970394
0.0926697
0.0884335
0.0843265
0.0803444
0.0764834
0.0727397
0.0691097
0.06559
0.0621774
0.0588688
0.0556616
0.0525528
0.0495401
0.046621
0.0437934
0.0410552
0.0384044
0.0358393
0.0333581
0.0309593
0.0286414
0.026403
0.0242428
0.0221595
0.020152
0.018219
0.0163594
0.0145722
0.0128561
0.01121
0.00963274
0.00812315
0.00667996
0.00530189
0.00398757
0.0027356
0.00154451
0.000412792
-0.000661125
-0.00167885
-0.00264202
-0.00355231
-0.00441139
-0.00522093
-0.00598259
-0.00669801
-0.0073688
-0.00799652
-0.00858271
-0.00912883
-0.00963633
-0.0101066
-0.010541
-0.0109409
-0.0113075
-0.0116422
-0.0119461
-0.0122206
-0.0124668
-0.0126858
-0.0128788
-0.0130467
-0.0131907
-0.0133115
-0.01341
-0.0134869
-0.0135431
-0.0135792
-0.0135959
-0.0135938
-0.0135738
-0.0135365
-0.0134829
-0.0134138
-0.0133303
-0.0132334
-0.0131242
-0.0130038
-0.0128736
-0.0127346
-0.012588
-0.012435
-0.0122767
-0.0121142
-0.0119484
-0.0117802
-0.0116105
-0.01144
-0.0112693
-0.0110992
-0.01093
-0.0107622
-0.0105963
-0.0104324
-0.0102708
-0.0101118
-0.00995542
-0.00980187
-0.0096512
-0.00950345
-0.00935864
-0.00921678
-0.00907783
-0.00894177
-0.00880855
-0.00867812
-0.0085504
-0.00842532
-0.00830282
-0.00818281
-0.00806521
-0.00794993
-0.00783691
-0.00772605
-0.00761727
-0.00751051
-0.00740567
-0.00730269
-0.00720149
-0.007102
-0.00700416
-0.0069079
-0.00681316
-0.00671987
-0.00662799
-0.00653746
-0.00644823
-0.00636024
-0.00627346
-0.00618783
-0.00610331
-0.00601987
-0.00593746
-0.00585605
-0.00577561
-0.0056961
-0.00561748
-0.00553974
-0.00546284
-0.00538675
-0.00531145
-0.00523692
-0.00516313
-0.00509006
-0.00501769
-0.00494601
-0.00487498
-0.0048046
-0.00473485
-0.0046657
-0.00459715
-0.00452919
-0.00446179
-0.00439494
-0.00432864
-0.00426286
-0.0041976
-0.00413285
-0.00406858
-0.00400481
-0.0039415
-0.00387866
-0.00381627
-0.00375433
-0.00369282
-0.00363175
-0.00357109
-0.00351084
-0.003451
-0.00339155
-0.00333248
-0.0032738
-0.00321549
-0.00315755
-0.00309996
-0.00304273
-0.00298584
-0.00292929
-0.00287307
-0.00281718
-0.00276161
-0.00270636
-0.00265141
-0.00259677
-0.00254242
-0.00248837
-0.0024346
-0.0023811
-0.00232789
-0.00227493
-0.00222224
-0.0021698
-0.00211761
-0.00206566
-0.00201396
-0.00196248
-0.00191123
-0.00186021
-0.0018094
-0.00175879
-0.0017084
-0.0016582
-0.00160819
-0.00155838
-0.00150874
-0.00145928
-0.00141
-0.00136087
-0.00131191
-0.0012631
-0.00121445
-0.00116593
-0.00111755
-0.0010693
-0.00102118
-0.000973179
-0.000925293
-0.000877515
-0.000829839
-0.00078226
-0.000734773
-0.000687373
-0.000640055
-0.000592815
-0.000545645
-0.000498541
-0.000451498
-0.000404507
-0.000357567
-0.000310664
-0.000263815
-0.00021694
-0.000170274
-0.000122892
-7.73959e-05
-2.16311e-05
48.3411
48.301
51.6023
51.6021
45.2422
30.3753
18.0134
11.433
8.34459
6.60362
5.63878
5.28083
5.31405
5.58863
6.0681
6.75289
7.64285
8.7343
10.0177
11.4743
13.0755
14.7826
16.5467
18.3069
19.9887
21.5059
22.7794
23.7825
24.5647
25.1975
25.7287
26.1767
26.5461
26.8514
27.1117
27.3309
27.5082
27.6473
27.7474
27.8023
27.8073
27.7576
27.648
27.4758
27.2407
26.9447
26.5919
26.187
25.7351
25.2409
24.7088
24.143
23.5481
22.9285
22.289
21.6343
20.9694
20.2986
19.6263
18.956
18.291
17.6339
16.9868
16.3513
15.7288
15.1203
14.5264
13.9477
13.3846
12.8374
12.3062
11.7911
11.2922
10.8094
10.3427
9.89186
9.45687
9.03754
8.63367
8.24505
7.87146
7.51265
7.16835
6.83827
6.52211
6.21957
5.93029
5.65394
5.39015
5.13854
4.89873
4.67033
4.45293
4.24612
4.04949
3.86263
3.68514
3.51662
3.35666
3.20489
3.06094
2.92444
2.79505
2.67244
2.5563
2.44633
2.34224
2.24378
2.15067
2.06269
1.97961
1.90121
1.82729
1.75765
1.69211
1.63047
1.57258
1.51824
1.46731
1.41961
1.37499
1.33329
1.29436
1.25804
1.22419
1.19266
1.16331
1.13599
1.11056
1.08688
1.06481
1.04423
1.02499
1.00697
0.990044
0.974078
0.958957
0.944562
0.930782
0.917508
0.904638
0.892075
0.879729
0.867516
0.855361
0.843196
0.830959
0.818601
0.806077
0.793352
0.780401
0.767204
0.753752
0.74004
0.726074
0.711862
0.697419
0.682766
0.667927
0.652928
0.637799
0.622571
0.607277
0.591949
0.576619
0.561321
0.546083
0.530937
0.515909
0.501026
0.486311
0.471786
0.45747
0.443381
0.429535
0.415943
0.402618
0.389569
0.376804
0.364327
0.352144
0.340257
0.328669
0.317379
0.306387
0.295693
0.285292
0.275184
0.265363
0.255826
0.246568
0.237584
0.228869
0.220416
0.212221
0.204276
0.196575
0.189113
0.181882
0.174876
0.168089
0.161514
0.155144
0.148973
0.142995
0.137204
0.131594
0.126158
0.120892
0.115788
0.110843
0.10605
0.101404
0.0969013
0.0925361
0.0883043
0.0842014
0.0802233
0.0763661
0.0726259
0.0689993
0.0654828
0.0620732
0.0587676
0.055563
0.0524567
0.0494464
0.0465295
0.043704
0.0409677
0.0383187
0.0357553
0.0332757
0.0308784
0.0285619
0.0263248
0.0241659
0.0220838
0.0200774
0.0181456
0.0162871
0.014501
0.012786
0.0111411
0.0095651
0.00805676
0.00661488
0.00523816
0.00392524
0.00267474
0.00148517
0.000355018
-0.000717291
-0.00173338
-0.00269489
-0.00360351
-0.00446091
-0.00526879
-0.00602882
-0.00674263
-0.00741186
-0.00803806
-0.00862276
-0.00916744
-0.00967354
-0.0101425
-0.0105755
-0.0109741
-0.0113395
-0.0116729
-0.0119756
-0.0122489
-0.012494
-0.0127119
-0.0129038
-0.0130708
-0.0132138
-0.0133338
-0.0134315
-0.0135078
-0.0135633
-0.0135986
-0.0136146
-0.0136118
-0.013591
-0.0135529
-0.0134983
-0.0134283
-0.0133437
-0.0132456
-0.0131353
-0.0130138
-0.0128823
-0.0127421
-0.0125944
-0.0124403
-0.012281
-0.0121175
-0.0119508
-0.0117817
-0.0116113
-0.0114401
-0.0112689
-0.0110982
-0.0109286
-0.0107605
-0.0105942
-0.01043
-0.0102683
-0.0101091
-0.00995263
-0.00979901
-0.00964829
-0.00950052
-0.00935571
-0.00921386
-0.00907495
-0.00893894
-0.00880577
-0.0086754
-0.00854775
-0.00842276
-0.00830033
-0.0081804
-0.00806288
-0.00794769
-0.00783474
-0.00772396
-0.00761527
-0.00750858
-0.00740382
-0.0073009
-0.00719977
-0.00710035
-0.00700258
-0.00690638
-0.0068117
-0.00671847
-0.00662665
-0.00653617
-0.00644698
-0.00635904
-0.0062723
-0.00618671
-0.00610224
-0.00601883
-0.00593646
-0.00585509
-0.00577468
-0.0056952
-0.00561661
-0.0055389
-0.00546202
-0.00538596
-0.00531069
-0.00523618
-0.00516241
-0.00508936
-0.00501701
-0.00494534
-0.00487434
-0.00480397
-0.00473423
-0.00466511
-0.00459657
-0.00452862
-0.00446123
-0.0043944
-0.00432811
-0.00426234
-0.00419709
-0.00413235
-0.0040681
-0.00400433
-0.00394104
-0.0038782
-0.00381582
-0.00375389
-0.0036924
-0.00363133
-0.00357068
-0.00351044
-0.0034506
-0.00339116
-0.0033321
-0.00327343
-0.00321513
-0.00315719
-0.00309961
-0.00304238
-0.0029855
-0.00292895
-0.00287274
-0.00281686
-0.0027613
-0.00270605
-0.00265111
-0.00259647
-0.00254213
-0.00248808
-0.00243432
-0.00238083
-0.00232762
-0.00227467
-0.00222198
-0.00216955
-0.00211737
-0.00206542
-0.00201372
-0.00196225
-0.00191101
-0.00185999
-0.00180919
-0.00175859
-0.0017082
-0.00165801
-0.00160801
-0.0015582
-0.00150857
-0.00145911
-0.00140983
-0.00136071
-0.00131176
-0.00126296
-0.0012143
-0.00116579
-0.00111742
-0.00106918
-0.00102106
-0.000973064
-0.000925184
-0.000877411
-0.00082974
-0.000782166
-0.000734685
-0.00068729
-0.000639979
-0.000592744
-0.00054558
-0.000498482
-0.000451444
-0.000404459
-0.000357524
-0.000310627
-0.000263784
-0.000216914
-0.000170253
-0.000122877
-7.73865e-05
-2.16287e-05
45.8195
46.1282
49.7642
49.6748
40.5577
19.3284
8.53715
5.34639
4.66288
4.19996
4.02406
4.23933
4.57267
4.93858
5.40266
6.02402
6.82988
7.83327
9.03491
10.4218
11.9693
13.6434
15.4015
17.1889
18.929
20.5073
21.7847
22.7052
23.3835
23.9525
24.475
24.9497
25.3494
25.6869
25.9962
26.27
26.4991
26.6941
26.8536
26.9666
27.029
27.0353
26.9777
26.8526
26.6599
26.4021
26.0845
25.713
25.293
24.8292
24.3257
23.7864
23.2155
22.6175
21.9973
21.3603
20.7114
20.0556
19.3974
18.7406
18.0886
17.4439
16.8088
16.1848
15.5732
14.9749
14.3907
13.821
13.2664
12.727
12.203
11.6947
11.2019
10.7248
10.2634
9.81744
9.38694
8.97175
8.57171
8.18665
7.81635
7.4606
7.11914
6.79173
6.47807
6.17787
5.8908
5.61654
5.35472
5.10499
4.86697
4.64027
4.42448
4.21922
4.02406
3.8386
3.66244
3.49518
3.33642
3.18578
3.04289
2.90739
2.77894
2.65722
2.5419
2.4327
2.32933
2.23154
2.13907
2.05168
1.96915
1.89128
1.81785
1.74868
1.68358
1.62237
1.56487
1.51093
1.46038
1.41304
1.36878
1.32742
1.28882
1.25284
1.21931
1.18809
1.15905
1.13202
1.10689
1.0835
1.06172
1.04141
1.02245
1.00469
0.98802
0.972304
0.957424
0.943261
0.929702
0.916637
0.903965
0.891586
0.87941
0.867353
0.855337
0.843294
0.831164
0.818895
0.806443
0.793773
0.780861
0.767687
0.754243
0.740527
0.726543
0.712303
0.697822
0.683123
0.668231
0.653175
0.637985
0.622695
0.607337
0.591945
0.576553
0.561193
0.545898
0.530697
0.515618
0.500688
0.48593
0.471366
0.457016
0.442897
0.429024
0.41541
0.402067
0.389003
0.376225
0.36374
0.351551
0.339661
0.328071
0.316783
0.305794
0.295104
0.284709
0.274608
0.264796
0.255268
0.24602
0.237047
0.228343
0.219903
0.211719
0.203787
0.196099
0.18865
0.181432
0.174439
0.167665
0.161102
0.154745
0.148587
0.142622
0.136843
0.131244
0.12582
0.120565
0.115472
0.110537
0.105755
0.101119
0.0966253
0.0922692
0.088046
0.0839514
0.0799813
0.0761315
0.0723986
0.0687787
0.0652686
0.0618651
0.0585651
0.0553659
0.0522647
0.0492591
0.0463467
0.0435253
0.0407928
0.0381475
0.0355874
0.033111
0.0307166
0.0284029
0.0261684
0.024012
0.0219323
0.0199283
0.0179987
0.0161425
0.0143587
0.012646
0.0110034
0.00942979
0.00792395
0.00648466
0.00511063
0.00380054
0.00255297
0.00136644
0.00023943
-0.000829655
-0.00184245
-0.00280063
-0.00370589
-0.00455994
-0.0053645
-0.00612124
-0.00683184
-0.00749793
-0.00812108
-0.00870282
-0.00924463
-0.00974794
-0.0102141
-0.0106446
-0.0110406
-0.0114034
-0.0117343
-0.0120346
-0.0123055
-0.0125483
-0.012764
-0.0129539
-0.0131189
-0.0132601
-0.0133784
-0.0134746
-0.0135494
-0.0136035
-0.0136375
-0.0136521
-0.0136478
-0.0136254
-0.0135856
-0.0135292
-0.0134572
-0.0133705
-0.0132702
-0.0131575
-0.0130336
-0.0128998
-0.0127573
-0.0126072
-0.0124509
-0.0122895
-0.012124
-0.0119555
-0.0117848
-0.0116129
-0.0114404
-0.011268
-0.0110963
-0.0109258
-0.0107569
-0.01059
-0.0104254
-0.0102632
-0.0101037
-0.00994704
-0.00979326
-0.00964245
-0.00949463
-0.00934983
-0.00920802
-0.00906918
-0.00893326
-0.00880021
-0.00866997
-0.00854247
-0.00841762
-0.00829535
-0.00817558
-0.00805822
-0.0079432
-0.00783041
-0.00771979
-0.00761126
-0.00750472
-0.00740011
-0.00729734
-0.00719635
-0.00709707
-0.00699942
-0.00690334
-0.00680878
-0.00671567
-0.00662395
-0.00653357
-0.00644449
-0.00635664
-0.00626999
-0.00618449
-0.00610009
-0.00601677
-0.00593447
-0.00585317
-0.00577282
-0.0056934
-0.00561488
-0.00553722
-0.00546039
-0.00538438
-0.00530915
-0.00523469
-0.00516097
-0.00508796
-0.00501565
-0.00494402
-0.00487305
-0.00480272
-0.00473301
-0.00466391
-0.00459541
-0.00452749
-0.00446013
-0.00439332
-0.00432705
-0.00426131
-0.00419608
-0.00413136
-0.00406713
-0.00400338
-0.00394011
-0.00387729
-0.00381494
-0.00375302
-0.00369154
-0.00363049
-0.00356986
-0.00350963
-0.00344981
-0.00339038
-0.00333134
-0.00327268
-0.00321439
-0.00315647
-0.0030989
-0.00304169
-0.00298482
-0.00292829
-0.00287209
-0.00281622
-0.00276067
-0.00270543
-0.00265051
-0.00259588
-0.00254155
-0.00248752
-0.00243376
-0.00238029
-0.00232709
-0.00227415
-0.00222147
-0.00216905
-0.00211688
-0.00206495
-0.00201326
-0.0019618
-0.00191057
-0.00185956
-0.00180876
-0.00175818
-0.0017078
-0.00165762
-0.00160763
-0.00155783
-0.00150821
-0.00145877
-0.0014095
-0.0013604
-0.00131145
-0.00126266
-0.00121402
-0.00116552
-0.00111715
-0.00106892
-0.00102082
-0.000972834
-0.000924963
-0.000877201
-0.000829541
-0.000781979
-0.000734508
-0.000687126
-0.000639825
-0.000592602
-0.000545449
-0.000498363
-0.000451336
-0.000404362
-0.000357438
-0.000310552
-0.00026372
-0.000216862
-0.000170212
-0.000122847
-7.73679e-05
-2.16239e-05
41.7688
44.8071
47.832
47.191
28.7277
-8.82359
-10.5
-2.2637
0.995663
1.85353
2.26993
3.01339
3.61246
4.02908
4.4295
4.93296
5.60002
6.46338
7.53143
8.79579
10.2409
11.8453
13.5828
15.4187
17.2864
19.0258
20.3404
21.0739
21.5307
21.9763
22.4956
23.0482
23.5185
23.9136
24.3156
24.6822
24.9855
25.2638
25.514
25.7126
25.8612
25.9536
25.9749
25.9205
25.7908
25.589
25.3233
25.0017
24.63
24.2125
23.7526
23.2533
22.7185
22.1528
21.5615
20.9503
20.3252
19.6915
19.0543
18.4177
17.7851
17.1592
16.5422
15.9354
15.3402
14.7574
14.1877
13.6316
13.0896
12.5619
12.0488
11.5505
11.067
10.5985
10.1449
9.7062
9.2824
8.8734
8.47908
8.09931
7.73393
7.38274
7.04555
6.72211
6.41217
6.11547
5.8317
5.56055
5.3017
5.05477
4.81942
4.59527
4.38191
4.17895
3.986
3.80264
3.62847
3.4631
3.30612
3.15718
3.01588
2.88188
2.75484
2.63444
2.52036
2.41231
2.31003
2.21324
2.12171
2.0352
1.9535
1.87641
1.80372
1.73524
1.6708
1.61023
1.55334
1.49998
1.44999
1.4032
1.35947
1.31863
1.28053
1.24504
1.21199
1.18124
1.15266
1.12609
1.1014
1.07844
1.05709
1.0372
1.01864
1.00128
0.984995
0.969654
0.955136
0.941321
0.928095
0.915347
0.902972
0.890871
0.878951
0.867127
0.855321
0.843463
0.831492
0.819357
0.807012
0.794425
0.78157
0.76843
0.754998
0.741272
0.727261
0.712976
0.698437
0.683667
0.668695
0.653551
0.638268
0.622881
0.607426
0.591937
0.57645
0.560999
0.545616
0.530332
0.515176
0.500175
0.485352
0.470731
0.456329
0.442165
0.428253
0.414606
0.401236
0.388149
0.375354
0.362856
0.350659
0.338764
0.327173
0.315886
0.304902
0.294219
0.283833
0.273743
0.263943
0.25443
0.245197
0.236241
0.227554
0.219131
0.210967
0.203053
0.195385
0.187955
0.180756
0.173783
0.167028
0.160485
0.154147
0.148008
0.142062
0.136301
0.13072
0.125313
0.120075
0.114999
0.11008
0.105312
0.100691
0.0962118
0.0918693
0.0876592
0.083577
0.0796187
0.0757803
0.072058
0.0684483
0.0649478
0.0615534
0.0582619
0.0550707
0.0519771
0.0489785
0.0460727
0.0432575
0.0405308
0.0378909
0.0353358
0.0328641
0.0304741
0.0281646
0.025934
0.0237813
0.0217052
0.0197046
0.0177785
0.0159257
0.0141451
0.0124359
0.0107968
0.00922672
0.0077246
0.00628918
0.00491921
0.00361335
0.00237018
0.00118823
6.59446e-05
-0.000998282
-0.00200612
-0.00295926
-0.00385946
-0.00470846
-0.005508
-0.0062598
-0.00696556
-0.00762693
-0.0082455
-0.0088228
-0.0093603
-0.00985944
-0.0103216
-0.010748
-0.0111401
-0.0114991
-0.0118263
-0.012123
-0.0123903
-0.0126296
-0.012842
-0.0130288
-0.0131909
-0.0133294
-0.0134452
-0.0135391
-0.0136118
-0.0136638
-0.0136959
-0.0137084
-0.013702
-0.0136773
-0.0136349
-0.0135758
-0.0135007
-0.0134108
-0.0133071
-0.0131909
-0.0130635
-0.012926
-0.0127799
-0.0126264
-0.0124667
-0.0123021
-0.0121336
-0.0119624
-0.0117892
-0.011615
-0.0114405
-0.0112664
-0.0110932
-0.0109214
-0.0107514
-0.0105836
-0.0104182
-0.0102555
-0.0100956
-0.00993856
-0.00978456
-0.00963362
-0.00948575
-0.00934096
-0.00919922
-0.00906049
-0.00892472
-0.00879185
-0.00866181
-0.00853452
-0.00840991
-0.00828788
-0.00816835
-0.00805124
-0.00793646
-0.00782392
-0.00771354
-0.00760524
-0.00749894
-0.00739455
-0.007292
-0.00719122
-0.00709214
-0.00699469
-0.0068988
-0.00680441
-0.00671147
-0.00661991
-0.00652969
-0.00644075
-0.00635305
-0.00626653
-0.00618116
-0.00609688
-0.00601367
-0.00593148
-0.00585028
-0.00577003
-0.00569071
-0.00561227
-0.00553469
-0.00545795
-0.00538201
-0.00530686
-0.00523246
-0.0051588
-0.00508586
-0.00501361
-0.00494204
-0.00487112
-0.00480084
-0.00473118
-0.00466213
-0.00459367
-0.00452579
-0.00445847
-0.0043917
-0.00432547
-0.00425976
-0.00419457
-0.00412988
-0.00406568
-0.00400197
-0.00393872
-0.00387593
-0.0038136
-0.00375171
-0.00369026
-0.00362923
-0.00356862
-0.00350842
-0.00344862
-0.00338922
-0.0033302
-0.00327156
-0.00321329
-0.00315539
-0.00309784
-0.00304065
-0.0029838
-0.00292729
-0.00287111
-0.00281526
-0.00275973
-0.00270451
-0.0026496
-0.00259499
-0.00254068
-0.00248666
-0.00243293
-0.00237947
-0.00232629
-0.00227337
-0.00222071
-0.0021683
-0.00211615
-0.00206424
-0.00201256
-0.00196112
-0.00190991
-0.00185891
-0.00180813
-0.00175757
-0.0017072
-0.00165704
-0.00160707
-0.00155729
-0.00150768
-0.00145826
-0.001409
-0.00135992
-0.00131099
-0.00126221
-0.00121359
-0.0011651
-0.00111676
-0.00106854
-0.00102045
-0.000972487
-0.000924633
-0.000876887
-0.000829243
-0.000781697
-0.000734244
-0.000686878
-0.000639595
-0.000592389
-0.000545254
-0.000498184
-0.000451173
-0.000404217
-0.00035731
-0.000310441
-0.000263626
-0.000216784
-0.000170151
-0.000122803
-7.73398e-05
-2.16166e-05
34.1881
39.29
30.315
12.4921
5.88599
-39.4483
-33.6082
-13.2323
-4.99788
-2.37485
-0.189078
1.45148
2.31869
2.68096
2.91999
3.2222
3.67334
4.33258
5.21431
6.30284
7.58181
9.04329
10.6941
12.5565
14.6523
16.8477
18.4318
18.8018
18.8671
19.1578
19.7384
20.4702
21.0247
21.4655
22.0291
22.5473
22.9464
23.3465
23.7303
24.0409
24.3052
24.5173
24.6447
24.6846
24.6373
24.5067
24.3081
24.0529
23.7467
23.3925
22.992
22.5468
22.0604
21.5374
20.9839
20.4066
19.8123
19.2076
18.5979
17.988
17.3814
16.7806
16.1878
15.6042
15.0309
14.4688
13.9185
13.3805
12.8553
12.3432
11.8445
11.3595
10.8883
10.431
9.98784
9.55878
9.14384
8.74301
8.35626
7.98348
7.62459
7.27944
6.94787
6.62968
6.32467
6.0326
5.7532
5.48618
5.23124
4.98804
4.75624
4.53546
4.32533
4.12545
3.93543
3.75486
3.58334
3.42048
3.2659
3.1192
2.98002
2.84802
2.72286
2.6042
2.49176
2.38525
2.28439
2.18894
2.09866
2.01332
1.93272
1.85665
1.78493
1.71738
1.65382
1.59408
1.538
1.48542
1.43617
1.39011
1.34708
1.30692
1.2695
1.23466
1.20225
1.17213
1.14415
1.11819
1.09408
1.07171
1.05092
1.03159
1.01358
0.996749
0.98098
0.966141
0.952108
0.93876
0.92598
0.913656
0.901679
0.889951
0.878375
0.866864
0.855338
0.843728
0.83197
0.820012
0.807811
0.795332
0.782552
0.769455
0.756036
0.742295
0.728243
0.713896
0.699275
0.684407
0.669325
0.65406
0.63865
0.623133
0.607545
0.591925
0.576309
0.560734
0.545233
0.529838
0.514578
0.499482
0.484573
0.469874
0.455403
0.441179
0.427216
0.413526
0.400119
0.387003
0.374186
0.361672
0.349463
0.337563
0.32597
0.314686
0.303709
0.293035
0.282662
0.272587
0.262805
0.25331
0.244099
0.235164
0.226501
0.218102
0.209962
0.202075
0.194432
0.187028
0.179856
0.172909
0.16618
0.159663
0.153351
0.147237
0.141315
0.135579
0.130022
0.124638
0.119422
0.114368
0.10947
0.104723
0.100122
0.0956613
0.091337
0.0871442
0.0830786
0.0791361
0.0753128
0.0716048
0.0680086
0.0645209
0.0611385
0.0578585
0.0546779
0.0515943
0.0486051
0.0457081
0.0429011
0.0401821
0.0375493
0.0350009
0.0325354
0.0301513
0.0278472
0.0256218
0.023474
0.0214026
0.0194066
0.0174849
0.0156364
0.0138604
0.0121556
0.010521
0.00895575
0.00745856
0.0060283
0.00466372
0.00336349
0.00212621
0.00095038
-0.000165566
-0.00122327
-0.00222444
-0.00317083
-0.00406422
-0.00490642
-0.00569922
-0.0064444
-0.00714367
-0.00779873
-0.00841118
-0.00898256
-0.00951434
-0.0100079
-0.0104647
-0.0108859
-0.0112728
-0.0116267
-0.0119489
-0.0122406
-0.0125032
-0.0127378
-0.0129458
-0.0131284
-0.0132866
-0.0134215
-0.013534
-0.0136249
-0.0136948
-0.0137443
-0.0137737
-0.0137836
-0.0137744
-0.0137467
-0.013701
-0.0136381
-0.0135591
-0.0134648
-0.0133566
-0.0132356
-0.0131032
-0.0129609
-0.0128099
-0.0126516
-0.0124875
-0.0123186
-0.0121461
-0.0119712
-0.0117947
-0.0116175
-0.0114403
-0.0112639
-0.0110887
-0.0109152
-0.0107438
-0.0105748
-0.0104085
-0.010245
-0.0100845
-0.00992709
-0.00977282
-0.00962172
-0.00947381
-0.00932905
-0.00918741
-0.00904884
-0.00891328
-0.00878066
-0.0086509
-0.00852391
-0.00839961
-0.0082779
-0.00815871
-0.00804193
-0.00792748
-0.00781527
-0.00770522
-0.00759724
-0.00749124
-0.00738715
-0.00728489
-0.00718439
-0.00708558
-0.00698839
-0.00689275
-0.0067986
-0.00670588
-0.00661454
-0.00652453
-0.00643579
-0.00634827
-0.00626193
-0.00617672
-0.00609261
-0.00600955
-0.00592751
-0.00584645
-0.00576633
-0.00568713
-0.00560881
-0.00553134
-0.0054547
-0.00537887
-0.00530381
-0.0052295
-0.00515593
-0.00508307
-0.00501089
-0.00493939
-0.00486855
-0.00479833
-0.00472874
-0.00465975
-0.00459135
-0.00452352
-0.00445626
-0.00438954
-0.00432336
-0.0042577
-0.00419255
-0.00412791
-0.00406375
-0.00400008
-0.00393687
-0.00387412
-0.00381183
-0.00374997
-0.00368855
-0.00362756
-0.00356698
-0.00350681
-0.00344704
-0.00338767
-0.00332868
-0.00327007
-0.00321183
-0.00315395
-0.00309644
-0.00303927
-0.00298244
-0.00292596
-0.0028698
-0.00281398
-0.00275847
-0.00270328
-0.00264839
-0.00259381
-0.00253952
-0.00248553
-0.00243181
-0.00237838
-0.00232522
-0.00227232
-0.00221969
-0.00216731
-0.00211517
-0.00206328
-0.00201163
-0.00196021
-0.00190902
-0.00185805
-0.00180729
-0.00175675
-0.00170641
-0.00165627
-0.00160632
-0.00155656
-0.00150698
-0.00145758
-0.00140834
-0.00135928
-0.00131037
-0.00126162
-0.00121301
-0.00116455
-0.00111623
-0.00106804
-0.00101997
-0.000972024
-0.000924192
-0.000876468
-0.000828846
-0.000781323
-0.000733893
-0.00068655
-0.000639289
-0.000592105
-0.000544993
-0.000497945
-0.000450957
-0.000404023
-0.000357139
-0.000310292
-0.000263499
-0.00021668
-0.00017007
-0.000122745
-7.73025e-05
-2.16069e-05
24.6096
24.6213
6.10837
4.08208
2.57919
-23.8878
-45.0063
-14.323
-4.63882
-2.64872
-1.1114
0.402053
1.15275
1.33603
1.44541
1.61166
1.87701
2.33788
3.04336
3.98133
5.11178
6.40322
7.8679
9.59308
11.8027
14.7225
16.9096
16.137
15.2476
15.1101
15.7829
17.1102
17.9162
18.3268
19.1771
19.8953
20.3385
20.902
21.4817
21.9281
22.3504
22.7312
22.9944
23.1532
23.2054
23.1557
23.037
22.8648
22.6424
22.3707
22.0471
21.6712
21.2454
20.7751
20.2674
19.7308
19.1738
18.6042
18.0285
17.4518
16.8776
16.3085
15.7462
15.1918
14.6462
14.1101
13.5841
13.0687
12.5645
12.0718
11.591
11.1225
10.6665
10.2233
9.79298
9.37581
8.97183
8.58113
8.20372
7.8396
7.48874
7.15105
6.82643
6.51475
6.21583
5.92949
5.6555
5.39361
5.14353
4.90496
4.67757
4.461
4.25488
4.05884
3.87247
3.69538
3.52718
3.36747
3.21585
3.07196
2.93544
2.80592
2.68309
2.56662
2.45622
2.35161
2.25253
2.15873
2.06999
1.9861
1.90685
1.83206
1.76155
1.69514
1.63266
1.57396
1.51888
1.46726
1.41894
1.37378
1.33163
1.29233
1.25574
1.22171
1.19009
1.16075
1.13355
1.10833
1.08497
1.06332
1.04324
1.0246
1.00727
0.991111
0.975991
0.961782
0.948359
0.935597
0.923379
0.911587
0.900114
0.888854
0.877711
0.866594
0.855423
0.844123
0.832632
0.820897
0.808873
0.796529
0.783839
0.770793
0.757385
0.74362
0.729513
0.715081
0.700352
0.685357
0.67013
0.65471
0.639136
0.62345
0.607692
0.591904
0.576124
0.560391
0.54474
0.529205
0.513815
0.498599
0.483582
0.468786
0.454231
0.439932
0.425905
0.412161
0.39871
0.385559
0.372714
0.36018
0.347959
0.336052
0.324459
0.31318
0.302211
0.29155
0.281194
0.271138
0.261378
0.251908
0.242723
0.233816
0.225182
0.216815
0.208706
0.20085
0.19324
0.185869
0.17873
0.171816
0.16512
0.158636
0.152356
0.146274
0.140383
0.134677
0.12915
0.123796
0.118608
0.113581
0.10871
0.103988
0.0994115
0.0949747
0.0906731
0.086502
0.0824572
0.0785344
0.0747298
0.0710396
0.0674603
0.0639886
0.0606213
0.0573554
0.0541882
0.051117
0.0481396
0.0452535
0.0424566
0.0397471
0.0371232
0.0345831
0.0321252
0.0297483
0.027451
0.025232
0.0230902
0.0210246
0.0190342
0.0171179
0.0152749
0.0135043
0.011805
0.0101761
0.0086167
0.00712563
0.00570177
0.0043439
0.00305072
0.00182082
0.000652684
-0.000455281
-0.00150476
-0.00249752
-0.00343536
-0.00432016
-0.00515377
-0.00593807
-0.00667488
-0.007366
-0.00801314
-0.00861793
-0.00918191
-0.00970656
-0.0101933
-0.0106433
-0.0110579
-0.0114384
-0.011786
-0.0121019
-0.0123875
-0.012644
-0.0128727
-0.0130751
-0.0132523
-0.0134056
-0.0135361
-0.0136445
-0.0137318
-0.0137984
-0.0138447
-0.0138711
-0.0138779
-0.0138654
-0.013834
-0.0137842
-0.0137168
-0.0136326
-0.0135329
-0.0134188
-0.0132917
-0.0131531
-0.0130044
-0.0128472
-0.012683
-0.012513
-0.0123387
-0.0121612
-0.0119816
-0.0118009
-0.01162
-0.0114395
-0.0112602
-0.0110825
-0.0109069
-0.0107338
-0.0105634
-0.0103959
-0.0102315
-0.0100704
-0.00991248
-0.00975791
-0.00960666
-0.00945871
-0.00931402
-0.00917253
-0.00903419
-0.00889891
-0.00876662
-0.00863721
-0.00851061
-0.00838671
-0.00826542
-0.00814664
-0.00803029
-0.00791626
-0.00780447
-0.00769482
-0.00758724
-0.00748163
-0.00737792
-0.00727602
-0.00717588
-0.0070774
-0.00698053
-0.0068852
-0.00679135
-0.00669892
-0.00660785
-0.00651809
-0.00642959
-0.00634231
-0.00625619
-0.0061712
-0.00608729
-0.00600442
-0.00592255
-0.00584166
-0.00576171
-0.00568266
-0.00560448
-0.00552716
-0.00545065
-0.00537494
-0.0053
-0.00522581
-0.00515234
-0.00507958
-0.00500751
-0.0049361
-0.00486534
-0.00479521
-0.0047257
-0.00465678
-0.00458845
-0.0045207
-0.0044535
-0.00438684
-0.00432072
-0.00425512
-0.00419003
-0.00412544
-0.00406134
-0.00399771
-0.00393456
-0.00387186
-0.00380961
-0.0037478
-0.00368642
-0.00362547
-0.00356493
-0.0035048
-0.00344507
-0.00338573
-0.00332678
-0.0032682
-0.00321
-0.00315216
-0.00309467
-0.00303754
-0.00298075
-0.00292429
-0.00286817
-0.00281238
-0.0027569
-0.00270174
-0.00264688
-0.00259233
-0.00253807
-0.00248411
-0.00243042
-0.00237702
-0.00232389
-0.00227102
-0.00221841
-0.00216606
-0.00211395
-0.00206209
-0.00201047
-0.00195908
-0.00190791
-0.00185697
-0.00180624
-0.00175572
-0.00170541
-0.0016553
-0.00160538
-0.00155565
-0.0015061
-0.00145672
-0.00140752
-0.00135848
-0.0013096
-0.00126087
-0.00121229
-0.00116386
-0.00111557
-0.0010674
-0.00101936
-0.000971445
-0.00092364
-0.000875943
-0.00082835
-0.000780855
-0.000733453
-0.000686138
-0.000638906
-0.00059175
-0.000544666
-0.000497646
-0.000450687
-0.00040378
-0.000356924
-0.000310106
-0.000263341
-0.00021655
-0.000169968
-0.000122671
-7.72552e-05
-2.15944e-05
14.9249
7.08172
3.18394
2.86541
2.65123
1.59447
-9.8229
-15.8913
-12.7014
-1.97349
0.972871
1.69867
1.41865
0.889643
0.870347
1.25853
1.72305
2.18801
2.65214
3.13387
3.76892
4.67968
5.99136
8.22319
11.9422
17.9627
20.6869
14.9343
12.1241
11.0496
11.1644
13.249
14.3333
14.4444
15.7977
16.8695
17.1756
17.955
18.8012
19.3286
19.9509
20.5819
21.0212
21.3369
21.5025
21.5308
21.503
21.4333
21.3173
21.1509
20.9239
20.633
20.2801
19.8713
19.4162
18.9258
18.4112
17.8822
17.3464
16.8093
16.2744
15.7438
15.2187
14.6998
14.1877
13.683
13.1862
12.6979
12.2187
11.7491
11.2896
10.8408
10.4028
9.97626
9.5613
9.15822
8.76723
8.38851
8.02217
7.6683
7.32694
6.99808
6.6817
6.37772
6.08603
5.80649
5.53892
5.28311
5.03881
4.80575
4.58362
4.37207
4.17076
3.9793
3.79731
3.6244
3.46016
3.30421
3.15617
3.01564
2.88228
2.75574
2.6357
2.52183
2.41386
2.31152
2.21455
2.12272
2.03582
1.95364
1.87599
1.80271
1.73362
1.66857
1.60738
1.54992
1.49602
1.44554
1.39834
1.35425
1.31314
1.27486
1.23926
1.20621
1.17555
1.14714
1.12085
1.09654
1.07406
1.05328
1.03405
1.01625
0.999742
0.984384
0.970046
0.956598
0.943911
0.931859
0.920319
0.909173
0.898309
0.887618
0.876999
0.86636
0.855616
0.844692
0.833524
0.822055
0.810244
0.798057
0.785473
0.772481
0.75908
0.74528
0.731097
0.716557
0.701689
0.686531
0.671123
0.655507
0.639729
0.623833
0.607866
0.59187
0.57589
0.559963
0.54413
0.528424
0.512876
0.497516
0.482369
0.467457
0.452799
0.438412
0.424309
0.410502
0.396999
0.383807
0.370932
0.358376
0.346141
0.334228
0.322635
0.311362
0.300405
0.28976
0.279425
0.269393
0.259661
0.250221
0.241068
0.232196
0.223598
0.215267
0.207197
0.19938
0.19181
0.184479
0.17738
0.170505
0.163849
0.157404
0.151163
0.145119
0.139266
0.133597
0.128106
0.122786
0.117633
0.112639
0.107799
0.103108
0.0985612
0.0941529
0.0898785
0.0857335
0.0817135
0.0778144
0.0740324
0.0703635
0.0668045
0.0633518
0.0600025
0.0567536
0.0536023
0.0505461
0.0475825
0.0447094
0.0419248
0.0392266
0.0366132
0.0340828
0.0316342
0.0292658
0.0269764
0.0247649
0.0226303
0.0205715
0.0185876
0.0166777
0.0148411
0.0130768
0.011384
0.00976182
0.00820932
0.0067255
0.00530927
0.00395944
0.00267472
0.0014537
0.00029486
-0.000803442
-0.00184294
-0.00282547
-0.00375293
-0.00462726
-0.00545043
-0.00622439