/*--------------------------------*- C++ -*----------------------------------*\
| =========                 |                                                 |
| \\      /  F ield         | OpenFOAM: The Open Source CFD Toolbox           |
|  \\    /   O peration     | Version:  v2006                                 |
|   \\  /    A nd           | Website:  www.openfoam.com                      |
|    \\/     M anipulation  |                                                 |
\*---------------------------------------------------------------------------*/
FoamFile
{
    version     2.0;
    format      ascii;
    class       volScalarField;
    location    "0";
    object      alpha.water;
}
// * * * * * * * * * * * * * * * * * * * * * * * * * * * * * * * * * * * * * //

dimensions      [0 0 0 0 0 0 0];


internalField   nonuniform List<scalar> 
67500
(
0.996865
0.934832
0.317251
0.0437149
0.0689777
0.299854
0.449641
0.448578
0.446746
0.505181
0.590363
0.685737
0.789826
0.790569
0.77891
0.720197
0.724284
0.742454
0.743019
0.269677
0.289876
0.88464
0.999983
0.999983
0.993843
0.931496
0.908384
0.950694
0.991636
1
1
1
1
1
1
1
1
1
1
1
1
1
1
1
1
1
1
1
1
1
1
1
1
1
1
1
1
1
1
1
1
1
1
1
1
1
1
1
1
1
1
1
1
1
1
1
1
1
1
1
1
1
1
1
1
1
1
1
1
1
1
1
1
1
1
1
1
1
1
1
1
1
1
1
1
1
1
1
1
1
1
1
1
1
1
1
1
1
1
1
1
1
1
1
1
1
1
1
1
1
1
1
1
1
1
1
1
1
1
1
1
1
1
1
1
1
1
1
1
1
1
1
1
1
1
1
1
1
1
1
1
1
1
1
1
1
1
1
1
1
1
1
1
1
1
1
1
1
1
1
1
1
1
1
1
1
1
1
1
1
1
1
1
1
1
1
1
1
1
1
1
1
1
1
1
1
1
1
1
1
1
1
1
1
1
1
1
1
1
1
1
1
1
1
1
1
1
1
1
1
1
1
1
1
1
1
1
1
1
1
1
1
1
1
1
1
1
1
1
1
1
1
1
1
1
1
1
1
1
1
1
1
1
1
1
1
1
1
1
1
1
1
1
1
1
1
1
1
1
1
1
1
1
1
1
1
1
1
1
1
1
1
1
1
1
1
1
1
1
1
1
1
1
1
1
1
1
1
1
1
1
1
1
1
1
1
1
1
1
1
1
1
1
1
1
1
1
1
1
1
1
1
1
1
1
1
1
1
1
1
1
1
1
1
1
1
1
1
1
1
1
1
1
1
1
1
1
1
1
1
1
1
1
1
1
1
1
1
1
1
1
1
1
1
1
1
1
1
1
1
1
1
1
1
1
1
1
1
1
1
1
1
1
1
1
1
1
1
1
1
1
1
1
1
1
1
1
1
1
1
1
1
1
1
1
1
1
1
1
1
1
1
1
1
1
1
1
1
1
1
1
1
1
1
1
1
1
1
1
1
1
1
1
1
1
1
1
1
1
1
0.996865
0.865763
0.0440936
0.0437081
0.250746
0.263064
0.0673413
1.39307e-20
-6.59034e-22
-4.91828e-26
1.8599e-26
-4.10287e-26
0.121953
0.377214
0.195468
0.0782375
0.0312743
0.0452922
0.149143
0.171038
0.129785
0.130883
0.331271
0.79209
0.52747
0.201549
0.199297
0.218153
0.861855
1
1
1
1
1
1
1
1
1
1
1
0.999945
0.999398
0.999098
0.999242
0.999566
0.999775
0.999239
0.997422
0.994613
0.991735
0.989787
0.989394
0.990091
0.991582
0.993381
0.995122
0.9966
0.997715
0.998468
0.998931
0.999181
0.999274
0.999295
0.99938
0.999601
0.999864
0.999997
1
1
1
1
1
1
1
1
1
1
1
1
1
1
1
1
1
1
1
1
1
1
1
1
1
1
1
1
1
1
1
1
1
1
1
1
1
1
1
1
1
1
1
1
1
1
1
1
1
1
1
1
1
1
1
1
1
1
1
1
1
1
1
1
1
1
1
1
1
1
1
1
1
1
1
1
1
1
1
1
1
1
1
1
1
1
1
1
1
1
1
1
1
1
1
1
1
1
1
1
1
1
1
1
1
1
1
1
1
1
1
1
1
1
1
1
1
1
1
1
1
1
1
1
1
1
1
1
1
1
1
1
1
1
1
1
1
1
1
1
1
1
1
1
1
1
1
1
1
1
1
1
1
1
1
1
1
1
1
1
1
1
1
1
1
1
1
1
1
1
1
1
1
1
1
1
1
1
1
1
1
1
1
1
1
1
1
1
1
1
1
1
1
1
1
1
1
1
1
1
1
1
1
1
1
1
1
1
1
1
1
1
1
1
1
1
1
1
1
1
1
1
1
1
1
1
1
1
1
1
1
1
1
1
1
1
1
1
1
1
1
1
1
1
1
1
1
1
1
1
1
1
1
1
1
1
1
1
1
1
1
1
1
1
1
1
1
1
1
1
1
1
1
1
1
1
1
1
1
1
1
1
1
1
1
1
1
1
1
1
1
1
1
1
1
1
1
1
1
1
1
1
1
1
1
1
1
1
1
1
1
1
1
1
1
1
1
1
1
1
1
1
1
1
1
1
1
1
1
1
1
1
1
1
1
1
1
1
1
1
1
1
1
1
1
1
1
1
1
1
1
1
1
1
1
1
1
1
1
1
1
1
1
1
1
1
1
1
1
1
1
1
1
1
1
1
1
1
1
1
1
1
1
0.986576
0.645698
0.188041
0.0674891
0.0380649
0.00494259
-5.89002e-21
-4.67907e-21
-2.48824e-21
1.38649e-07
2.80202e-07
2.34281e-25
0.00300569
0.000622111
1.52368e-21
-1.1876e-38
-6.73974e-22
-4.68581e-21
-1.98483e-21
0.323413
0.351763
0.187308
0.152268
0.152238
0.152268
0.439076
0.922569
1
1
1
1
0.99309
0.95791
0.923746
0.897395
0.849162
0.760217
0.712064
0.717202
0.713493
0.679754
0.642173
0.633066
0.644518
0.663311
0.666562
0.636165
0.576776
0.515457
0.472895
0.453593
0.452778
0.463976
0.484492
0.510441
0.539041
0.567275
0.591967
0.611478
0.625848
0.634845
0.638006
0.637233
0.638468
0.647776
0.666979
0.69284
0.72053
0.746243
0.768551
0.786132
0.79609
0.803316
0.808308
0.812205
0.817228
0.825808
0.83919
0.856717
0.876393
0.896096
0.914421
0.930795
0.945196
0.957821
0.96883
0.978246
0.986
0.992025
0.99631
0.998902
0.999938
1
1
1
1
1
1
1
1
1
1
1
1
1
1
1
1
1
1
1
1
1
1
1
1
1
1
1
1
1
1
1
1
1
1
1
1
1
1
1
1
1
1
1
1
1
1
1
1
1
1
1
1
1
1
1
1
1
1
1
1
1
1
1
1
1
1
1
1
1
1
1
1
1
1
1
1
1
1
1
1
1
1
1
1
1
1
1
1
1
1
1
1
1
1
1
1
1
1
1
1
1
1
1
1
1
1
1
1
1
1
1
1
1
1
1
1
1
1
1
1
1
1
1
1
1
1
1
1
1
1
1
1
1
1
1
1
1
1
1
1
1
1
1
1
1
1
1
1
1
1
1
1
1
1
1
1
1
1
1
1
1
1
1
1
1
1
1
1
1
1
1
1
1
1
1
1
1
1
1
1
1
1
1
1
1
1
1
1
1
1
1
1
1
1
1
1
1
1
1
1
1
1
1
1
1
1
1
1
1
1
1
1
1
1
1
1
1
1
1
1
1
1
1
1
1
1
1
1
1
1
1
1
1
1
1
1
1
1
1
1
1
1
1
1
1
1
1
1
1
1
1
1
1
1
1
1
1
1
1
1
1
1
1
1
1
1
1
1
1
1
1
1
1
1
1
1
1
1
1
1
1
1
1
1
1
1
1
1
1
1
1
1
1
1
1
1
1
1
1
1
1
1
1
1
1
1
1
1
1
1
1
1
1
1
1
1
1
1
1
1
1
1
1
1
1
1
1
1
1
1
1
1
1
1
1
1
1
1
1
1
1
1
1
1
1
1
1
1
1
1
1
1
1
1
1
1
1
1
0.969487
0.398015
1.82453e-19
0.0286845
0.00058627
-2.59474e-20
2.57401e-22
-6.80432e-22
-4.73981e-22
9.62667e-27
5.49092e-23
2.46084e-05
1.62923e-05
0.000133902
4.09895e-21
-4.65819e-39
-3.31832e-23
-1.34436e-23
-7.0959e-23
0.306289
0.908516
0.930416
0.803071
0.80446
0.885993
0.954558
0.999547
1
1
1
1
0.24028
-1.66104e-14
-1.89781e-14
-1.09303e-14
-5.38834e-15
-2.34681e-15
-9.9778e-16
-3.1386e-16
-3.72533e-17
1.10274e-35
1.99958e-35
1.6782e-36
-2.72644e-36
-1.29405e-37
-1.56758e-37
-1.20904e-39
-5.98176e-40
1.13919e-36
5.99161e-37
-1.93299e-36
-1.32311e-37
3.87526e-37
2.70583e-38
-1.89825e-37
-2.72298e-38
7.61831e-41
-3.44642e-38
0
0
-2.98491e-54
-8.82329e-22
-1.21701e-21
-2.25264e-24
-4.27483e-22
-3.02587e-21
-8.90786e-21
-1.03492e-20
-1.83557e-38
-9.91352e-21
0.00163414
0.0087686
0.0170178
0.0267737
0.0384054
0.0523549
0.0691067
0.0892898
0.113262
0.140671
0.1708
0.203182
0.237661
0.274534
0.314581
0.358256
0.405187
0.455014
0.507919
0.563676
0.620889
0.677841
0.733771
0.77791
0.805442
0.828455
0.84751
0.863638
0.87869
0.893694
0.908554
0.922599
0.935448
0.947409
0.959031
0.970372
0.980779
0.989362
0.995504
0.999007
1
1
1
1
1
1
1
1
1
1
1
1
1
1
1
1
1
1
1
1
1
1
1
1
1
1
1
1
1
1
1
1
1
1
1
1
1
1
1
1
1
1
1
1
1
1
1
1
1
1
1
1
1
1
1
1
1
1
1
1
1
1
1
1
1
1
1
1
1
1
1
1
1
1
1
1
1
1
1
1
1
1
1
1
1
1
1
1
1
1
1
1
1
1
1
1
1
1
1
1
1
1
1
1
1
1
1
1
1
1
1
1
1
1
1
1
1
1
1
1
1
1
1
1
1
1
1
1
1
1
1
1
1
1
1
1
1
1
1
1
1
1
1
1
1
1
1
1
1
1
1
1
1
1
1
1
1
1
1
1
1
1
1
1
1
1
1
1
1
1
1
1
1
1
1
1
1
1
1
1
1
1
1
1
1
1
1
1
1
1
1
1
1
1
1
1
1
1
1
1
1
1
1
1
1
1
1
1
1
1
1
1
1
1
1
1
1
1
1
1
1
1
1
1
1
1
1
1
1
1
1
1
1
1
1
1
1
1
1
1
1
1
1
1
1
1
1
1
1
1
1
1
1
1
1
1
1
1
1
1
1
1
1
1
1
1
1
1
1
1
1
1
1
1
1
1
1
1
1
1
1
1
1
1
1
1
1
1
1
1
1
1
1
1
1
1
1
1
1
1
1
1
1
1
1
1
1
1
1
1
1
1
1
1
1
1
1
1
1
1
1
1
1
1
1
1
1
1
1
1
1
1
1
1
1
1
1
1
1
1
0.963286
0.265214
-2.01077e-21
-7.92319e-23
6.62998e-05
0.00348802
0.00383861
-1.0955e-25
-2.16379e-24
9.28279e-05
0.000940777
0.00114686
5.38947e-05
0.000738808
0.00898845
0.00619947
0.015003
0.0353363
-4.85405e-20
0.205783
0.897374
0.962641
0.671036
0.048685
2.77403e-20
-9.7567e-21
6.06644e-20
0.32977
0.96703
0.860045
0.141815
-3.17038e-20
-1.31081e-14
-1.38158e-14
-6.19428e-15
1.03874e-16
8.23903e-16
1.65275e-16
1.5941e-16
1.48371e-16
1.31267e-16
9.81097e-17
6.46536e-17
3.83076e-17
2.06239e-17
1.01338e-17
4.62629e-18
2.39028e-18
1.9468e-18
2.1401e-18
2.20107e-18
1.91601e-18
1.43955e-18
9.72954e-19
6.11443e-19
3.70791e-19
2.23785e-19
1.37345e-19
8.42416e-20
5.0863e-20
3.06399e-20
1.86682e-20
1.15734e-20
6.94945e-21
5.00027e-21
3.75645e-21
3.05345e-21
2.35707e-21
1.58022e-21
5.12884e-22
-9.50113e-38
-5.36342e-22
-2.32994e-21
-3.8417e-21
-4.94923e-21
-5.45462e-21
-5.43107e-21
-5.36474e-21
-5.63247e-21
-6.33642e-21
-7.43828e-21
-8.74868e-21
-9.43904e-21
-8.16633e-21
-5.17462e-21
-3.85349e-21
-3.54849e-21
-3.13208e-21
-2.39204e-21
-1.65928e-21
-6.62259e-22
-1.51321e-22
-3.41641e-22
0.0103468
0.0320834
0.0532797
0.0736457
0.0953113
0.120246
0.148615
0.178081
0.205772
0.231578
0.260231
0.298459
0.349789
0.411896
0.479607
0.549925
0.623082
0.699148
0.777518
0.832914
0.874701
0.911881
0.942726
0.966566
0.983651
0.994389
0.999362
1
1
1
1
1
1
1
1
1
1
1
1
1
1
1
1
1
1
1
1
1
1
1
1
1
1
1
1
1
1
1
1
1
1
1
1
1
1
1
1
1
1
1
1
1
1
1
1
1
1
1
1
1
1
1
1
1
1
1
1
1
1
1
1
1
1
1
1
1
1
1
1
1
1
1
1
1
1
1
1
1
1
1
1
1
1
1
1
1
1
1
1
1
1
1
1
1
1
1
1
1
1
1
1
1
1
1
1
1
1
1
1
1
1
1
1
1
1
1
1
1
1
1
1
1
1
1
1
1
1
1
1
1
1
1
1
1
1
1
1
1
1
1
1
1
1
1
1
1
1
1
1
1
1
1
1
1
1
1
1
1
1
1
1
1
1
1
1
1
1
1
1
1
1
1
1
1
1
1
1
1
1
1
1
1
1
1
1
1
1
1
1
1
1
1
1
1
1
1
1
1
1
1
1
1
1
1
1
1
1
1
1
1
1
1
1
1
1
1
1
1
1
1
1
1
1
1
1
1
1
1
1
1
1
1
1
1
1
1
1
1
1
1
1
1
1
1
1
1
1
1
1
1
1
1
1
1
1
1
1
1
1
1
1
1
1
1
1
1
1
1
1
1
1
1
1
1
1
1
1
1
1
1
1
1
1
1
1
1
1
1
1
1
1
1
1
1
1
1
1
1
1
1
1
1
1
1
1
1
1
1
1
1
1
1
1
1
1
1
1
1
1
1
1
1
1
1
1
1
1
0.963776
0.226853
-1.90102e-22
3.1708e-21
0.00328574
0.0530653
0.0547202
-1.34414e-21
-3.35841e-21
0.00163009
0.00641545
0.000958015
-1.29722e-36
2.21181e-19
0.118835
0.508664
0.536501
0.534848
0.427999
0.335583
0.0849086
5.21703e-12
2.8615e-19
2.85729e-19
2.84855e-19
-5.48541e-23
-3.41376e-38
0.0886856
0.464512
0.224599
3.75086e-19
-1.64555e-15
-7.16898e-15
-9.65195e-15
-1.13208e-15
6.95072e-15
1.59606e-14
1.31528e-14
3.63121e-15
4.25202e-16
3.10588e-16
3.03003e-16
2.7059e-16
2.16581e-16
1.63364e-16
1.19172e-16
8.5461e-17
6.0911e-17
4.34158e-17
3.10056e-17
2.21278e-17
1.57014e-17
1.10364e-17
7.68717e-18
5.32764e-18
3.69674e-18
2.58372e-18
1.82614e-18
1.30598e-18
9.42603e-19
6.83364e-19
4.93521e-19
3.53925e-19
2.51375e-19
1.7646e-19
1.23161e-19
8.63631e-20
6.14327e-20
4.43081e-20
3.1839e-20
2.28901e-20
1.65759e-20
1.1601e-20
7.55598e-21
4.17571e-21
1.2533e-21
-1.35247e-21
-3.60086e-21
-5.51023e-21
-7.12364e-21
-8.48452e-21
-9.62784e-21
-1.05883e-20
-1.14171e-20
-1.21854e-20
-1.30366e-20
-1.41957e-20
-1.55079e-20
-1.57027e-20
-1.36414e-20
-1.07349e-20
-8.73894e-21
-7.40632e-21
-5.00888e-21
-2.94643e-21
-1.44156e-21
-3.81326e-22
-1.55221e-39
-4.36247e-20
-4.76684e-23
-6.12338e-40
-9.03192e-38
-3.93783e-20
-5.49161e-19
-1.46333e-18
-2.44525e-18
-3.15104e-18
-3.28484e-18
-2.83692e-18
-2.62705e-18
-1.36674e-18
-6.23164e-20
0.0316461
0.0850068
0.150262
0.229317
0.321971
0.423869
0.529629
0.635874
0.739984
0.838302
0.898424
0.940248
0.970526
0.989427
0.998443
1
1
1
1
1
1
1
1
1
1
1
1
1
1
1
1
1
1
1
1
1
1
1
1
1
1
1
1
1
1
1
1
1
1
1
1
1
1
1
1
1
1
1
1
1
1
1
1
1
1
1
1
1
1
1
1
1
1
1
1
1
1
1
1
1
1
1
1
1
1
1
1
1
1
1
1
1
1
1
1
1
1
1
1
1
1
1
1
1
1
1
1
1
1
1
1
1
1
1
1
1
1
1
1
1
1
1
1
1
1
1
1
1
1
1
1
1
1
1
1
1
1
1
1
1
1
1
1
1
1
1
1
1
1
1
1
1
1
1
1
1
1
1
1
1
1
1
1
1
1
1
1
1
1
1
1
1
1
1
1
1
1
1
1
1
1
1
1
1
1
1
1
1
1
1
1
1
1
1
1
1
1
1
1
1
1
1
1
1
1
1
1
1
1
1
1
1
1
1
1
1
1
1
1
1
1
1
1
1
1
1
1
1
1
1
1
1
1
1
1
1
1
1
1
1
1
1
1
1
1
1
1
1
1
1
1
1
1
1
1
1
1
1
1
1
1
1
1
1
1
1
1
1
1
1
1
1
1
1
1
1
1
1
1
1
1
1
1
1
1
1
1
1
1
1
1
1
1
1
1
1
1
1
1
1
1
1
1
1
1
1
1
1
1
1
1
1
1
1
1
1
1
1
1
1
1
1
1
1
1
1
1
1
1
1
1
1
1
1
1
1
1
1
0.955713
0.21466
6.98801e-31
9.89953e-13
0.00245729
0.118795
0.215968
0.216007
0.214867
0.147755
2.76289e-09
1.43972e-25
1.376e-23
1.56708e-23
6.72481e-23
-3.97619e-23
7.01236e-34
4.48802e-33
-2.51881e-20
0.00534812
4.47636e-16
4.06384e-16
3.99988e-15
1.15154e-14
6.34227e-15
-9.22117e-36
3.15469e-18
0.00146307
0.0178597
6.78029e-19
3.04415e-34
1.58033e-16
-1.43881e-15
3.04289e-16
9.75135e-15
2.69797e-14
5.13813e-14
7.55396e-14
6.69157e-14
2.72944e-14
3.59243e-15
5.41003e-16
4.42511e-16
3.86991e-16
3.10286e-16
2.32441e-16
1.67421e-16
1.18045e-16
8.23875e-17
5.72726e-17
3.9749e-17
2.75525e-17
1.90938e-17
1.327e-17
9.29027e-18
6.57869e-18
4.72345e-18
3.44027e-18
2.53926e-18
1.89628e-18
1.43061e-18
1.08885e-18
8.3479e-19
6.43816e-19
4.98836e-19
3.8756e-19
3.02059e-19
2.36454e-19
1.85909e-19
1.46422e-19
1.15029e-19
8.97889e-20
6.94294e-20
5.30183e-20
3.98365e-20
2.93197e-20
2.10089e-20
1.45119e-20
9.48368e-21
5.61748e-21
2.64271e-21
3.268e-22
-1.52629e-21
-3.07801e-21
-4.45315e-21
-5.74123e-21
-7.002e-21
-8.26372e-21
-9.51267e-21
-1.06866e-20
-1.16842e-20
-1.2394e-20
-1.27091e-20
-1.24659e-20
-1.13741e-20
-9.06761e-21
-5.06946e-21
1.22495e-21
1.14837e-20
2.91322e-20
5.88986e-20
1.06482e-19
1.54734e-19
2.38831e-20
-7.66983e-19
-2.61152e-18
-5.38794e-18
-8.27881e-18
-1.01905e-17
-1.03505e-17
-8.5923e-18
-5.40442e-18
-1.87032e-18
2.90095e-37
2.7111e-36
-2.42076e-35
1.21794e-35
-1.22016e-35
1.20573e-35
-2.43648e-35
2.43229e-35
0.00353236
0.0778645
0.19523
0.330963
0.468628
0.601834
0.727866
0.844217
0.922832
0.965009
0.988528
0.998737
1
1
1
1
1
1
1
1
1
1
1
1
1
1
1
1
1
1
1
1
1
1
1
1
1
1
1
1
1
1
1
1
1
1
1
1
1
1
1
1
1
1
1
1
1
1
1
1
1
1
1
1
1
1
1
1
1
1
1
1
1
1
1
1
1
1
1
1
1
1
1
1
1
1
1
1
1
1
1
1
1
1
1
1
1
1
1
1
1
1
1
1
1
1
1
1
1
1
1
1
1
1
1
1
1
1
1
1
1
1
1
1
1
1
1
1
1
1
1
1
1
1
1
1
1
1
1
1
1
1
1
1
1
1
1
1
1
1
1
1
1
1
1
1
1
1
1
1
1
1
1
1
1
1
1
1
1
1
1
1
1
1
1
1
1
1
1
1
1
1
1
1
1
1
1
1
1
1
1
1
1
1
1
1
1
1
1
1
1
1
1
1
1
1
1
1
1
1
1
1
1
1
1
1
1
1
1
1
1
1
1
1
1
1
1
1
1
1
1
1
1
1
1
1
1
1
1
1
1
1
1
1
1
1
1
1
1
1
1
1
1
1
1
1
1
1
1
1
1
1
1
1
1
1
1
1
1
1
1
1
1
1
1
1
1
1
1
1
1
1
1
1
1
1
1
1
1
1
1
1
1
1
1
1
1
1
1
1
1
1
1
1
1
1
1
1
1
1
1
1
1
1
1
1
1
1
1
1
1
1
1
1
1
1
1
1
1
0.877913
0.168681
4.74976e-28
2.14112e-10
1.62283e-19
9.40308e-20
0.0192395
0.175393
0.215326
0.146913
2.9036e-08
3.32019e-07
7.79981e-06
7.80201e-05
7.65093e-05
1.12253e-21
1.52941e-14
1.60484e-14
1.85635e-14
1.87994e-14
3.66268e-13
4.47636e-16
1.5949e-13
1.72271e-13
5.97661e-14
1.85749e-16
1.54359e-14
7.44544e-15
7.03368e-15
6.73788e-15
2.63026e-14
3.96786e-14
1.57441e-17
2.4506e-14
2.87674e-14
2.85275e-14
4.0704e-14
9.53401e-14
1.91448e-13
1.96961e-13
1.05937e-13
2.59978e-14
1.2045e-15
5.50936e-16
4.88933e-16
4.04685e-16
3.09182e-16
2.24643e-16
1.58029e-16
1.08929e-16
7.4203e-17
5.02839e-17
3.40943e-17
2.32659e-17
1.60717e-17
1.12928e-17
8.09546e-18
5.92641e-18
4.42692e-18
3.36793e-18
2.60388e-18
2.04155e-18
1.62029e-18
1.29958e-18
1.05154e-18
8.56746e-19
7.01721e-19
5.76752e-19
4.74319e-19
3.88688e-19
3.15981e-19
2.53925e-19
2.01225e-19
1.5698e-19
1.204e-19
9.06976e-20
6.7056e-20
4.86287e-20
3.45639e-20
2.40418e-20
1.63102e-20
1.07128e-20
6.70236e-21
3.83927e-21
1.7823e-21
2.73491e-22
-8.80732e-22
-1.82511e-21
-2.66726e-21
-3.48664e-21
-4.34026e-21
-5.26318e-21
-6.2566e-21
-7.24419e-21
-7.98832e-21
-7.98197e-21
-6.24701e-21
-9.07805e-22
1.15663e-20
3.75845e-20
8.82514e-20
1.81663e-19
3.44545e-19
6.08761e-19
9.9219e-19
1.45322e-18
1.82888e-18
1.83066e-18
1.2061e-18
4.19765e-20
-1.02122e-18
-1.01137e-18
7.15796e-19
3.71054e-18
7.21178e-18
1.02209e-17
1.2036e-17
1.23458e-17
1.11009e-17
8.23432e-18
4.14496e-18
8.6881e-35
-2.46713e-35
-2.42953e-29
-1.15323e-27
-2.13015e-26
1.55395e-27
-3.27325e-28
-4.94683e-19
0.0836848
0.272131
0.456264
0.610111
0.747502
0.872451
0.952042
0.987
0.999004
1
1
1
1
1
1
1
1
1
1
1
1
1
1
1
1
1
1
1
1
1
1
1
1
1
1
1
1
1
1
1
1
1
1
1
1
1
1
1
1
1
1
1
1
1
1
1
1
1
1
1
1
1
1
1
1
1
1
1
1
1
1
1
1
1
1
1
1
1
1
1
1
1
1
1
1
1
1
1
1
1
1
1
1
1
1
1
1
1
1
1
1
1
1
1
1
1
1
1
1
1
1
1
1
1
1
1
1
1
1
1
1
1
1
1
1
1
1
1
1
1
1
1
1
1
1
1
1
1
1
1
1
1
1
1
1
1
1
1
1
1
1
1
1
1
1
1
1
1
1
1
1
1
1
1
1
1
1
1
1
1
1
1
1
1
1
1
1
1
1
1
1
1
1
1
1
1
1
1
1
1
1
1
1
1
1
1
1
1
1
1
1
1
1
1
1
1
1
1
1
1
1
1
1
1
1
1
1
1
1
1
1
1
1
1
1
1
1
1
1
1
1
1
1
1
1
1
1
1
1
1
1
1
1
1
1
1
1
1
1
1
1
1
1
1
1
1
1
1
1
1
1
1
1
1
1
1
1
1
1
1
1
1
1
1
1
1
1
1
1
1
1
1
1
1
1
1
1
1
1
1
1
1
1
1
1
1
1
1
1
1
1
1
1
1
1
1
1
1
1
1
1
1
1
1
1
1
1
1
1
1
1
0.751695
0.0798302
-7.95655e-16
2.06188e-43
5.28886e-15
2.37657e-14
1.36613e-20
-1.02116e-26
8.25734e-25
-4.30868e-24
9.22233e-07
0.000223339
0.000837171
0.00178587
0.00170452
0.000147305
1.16793e-14
1.18656e-14
1.873e-14
8.78671e-13
8.69702e-13
6.57704e-13
6.37461e-13
6.02585e-13
2.96643e-13
1.88939e-16
9.86633e-15
7.68904e-15
7.35218e-15
7.0337e-15
7.35218e-15
7.68904e-15
4.63268e-07
1.00943e-14
1.00942e-14
1.00943e-14
1.00942e-14
1.00943e-14
1.57099e-13
3.05115e-13
3.93202e-13
2.69559e-13
9.07538e-14
9.28027e-15
6.12133e-16
5.47212e-16
4.64656e-16
3.64875e-16
2.71498e-16
1.94948e-16
1.36848e-16
9.48531e-17
6.54612e-17
4.53233e-17
3.16989e-17
2.25242e-17
1.63285e-17
1.2106e-17
9.18736e-18
7.13441e-18
5.66153e-18
4.58159e-18
3.77071e-18
3.14592e-18
2.65113e-18
2.24834e-18
1.91193e-18
1.62441e-18
1.37364e-18
1.15156e-18
9.53629e-19
7.7793e-19
6.23973e-19
4.91552e-19
3.80092e-19
2.88426e-19
2.14816e-19
1.57096e-19
1.12875e-19
7.97381e-20
5.54157e-20
3.78965e-20
2.54869e-20
1.682e-20
1.08346e-20
6.7333e-21
3.93118e-21
2.00776e-21
6.65781e-22
-3.02698e-22
-1.04007e-21
-1.63348e-21
-2.10497e-21
-2.36676e-21
-2.11542e-21
-6.17949e-22
3.70356e-21
1.40378e-20
3.65094e-20
8.2345e-20
1.71198e-19
3.35844e-19
6.28045e-19
1.12449e-18
1.93004e-18
3.17482e-18
5.00103e-18
7.53506e-18
1.08529e-17
1.49481e-17
1.97125e-17
2.49342e-17
3.03913e-17
3.59794e-17
4.17518e-17
4.75727e-17
5.28411e-17
5.63944e-17
5.67301e-17
5.23194e-17
4.26634e-17
2.87634e-17
1.48971e-17
4.86445e-35
0
1.00122e-08
1.77461e-08
1.98763e-09
2.91918e-25
2.39162e-26
-5.62004e-27
-1.1059e-32
7.56041e-35
1.05982e-30
-1.978e-18
0.139675
0.407346
0.606817
0.752969
0.88393
0.968623
0.997251
1
1
1
1
1
1
1
1
1
1
1
1
1
1
1
1
1
1
1
1
1
1
1
1
1
1
1
1
1
1
1
1
1
1
1
1
1
1
1
1
1
1
1
1
1
1
1
1
1
1
1
1
1
1
1
1
1
1
1
1
1
1
1
1
1
1
1
1
1
1
1
1
1
1
1
1
1
1
1
1
1
1
1
1
1
1
1
1
1
1
1
1
1
1
1
1
1
1
1
1
1
1
1
1
1
1
1
1
1
1
1
1
1
1
1
1
1
1
1
1
1
1
1
1
1
1
1
1
1
1
1
1
1
1
1
1
1
1
1
1
1
1
1
1
1
1
1
1
1
1
1
1
1
1
1
1
1
1
1
1
1
1
1
1
1
1
1
1
1
1
1
1
1
1
1
1
1
1
1
1
1
1
1
1
1
1
1
1
1
1
1
1
1
1
1
1
1
1
1
1
1
1
1
1
1
1
1
1
1
1
1
1
1
1
1
1
1
1
1
1
1
1
1
1
1
1
1
1
1
1
1
1
1
1
1
1
1
1
1
1
1
1
1
1
1
1
1
1
1
1
1
1
1
1
1
1
1
1
1
1
1
1
1
1
1
1
1
1
1
1
1
1
1
1
1
1
1
1
1
1
1
1
1
1
1
1
1
1
1
1
1
1
1
1
1
1
1
1
1
1
1
1
1
1
1
1
1
1
0.712802
0.000487364
-2.67433e-23
1.64342e-05
3.19001e-17
3.01105e-17
1.96212e-07
8.30855e-07
4.01984e-08
2.58162e-23
2.6261e-05
0.000682854
0.00224518
0.00226263
0.00226358
0.00206775
1.18656e-14
0.000186688
0.000159472
3.1331e-13
3.09054e-13
6.22748e-13
4.02672e-13
2.34863e-13
3.12618e-14
7.33197e-15
7.94088e-15
3.28689e-05
0.000144737
0.000308105
0.000197066
0.000181105
0.000143107
3.11835e-05
1.61431e-05
4.20191e-05
2.78836e-05
1.11265e-05
1.65198e-13
1.735e-13
4.0388e-13
5.61327e-13
4.72661e-13
1.98209e-13
3.34041e-14
6.08951e-16
5.34003e-16
4.68345e-16
3.7746e-16
2.86943e-16
2.09835e-16
1.4987e-16
1.05852e-16
7.47179e-17
5.31879e-17
3.84689e-17
2.84341e-17
2.15685e-17
1.6833e-17
1.35269e-17
1.11795e-17
9.47185e-18
8.18688e-18
7.17608e-18
6.33905e-18
5.60996e-18
4.9481e-18
4.33067e-18
3.74713e-18
3.19547e-18
2.6794e-18
2.20553e-18
1.78062e-18
1.40948e-18
1.09392e-18
8.32691e-19
6.21977e-19
4.56197e-19
3.28832e-19
2.33148e-19
1.62754e-19
1.11958e-19
7.59486e-20
5.08282e-20
3.35553e-20
2.18306e-20
1.3962e-20
8.73159e-21
5.28077e-21
3.01391e-21
1.52643e-21
5.583e-22
-2.14264e-23
-1.82654e-22
3.823e-22
2.53332e-21
8.24693e-21
2.16863e-20
5.10997e-20
1.1198e-19
2.31971e-19
4.57884e-19
8.64765e-19
1.56609e-18
2.72298e-18
4.54918e-18
7.30828e-18
1.12989e-17
1.68247e-17
2.41496e-17
3.34379e-17
4.46824e-17
5.76373e-17
7.18063e-17
8.64924e-17
1.00809e-16
1.13647e-16
1.2365e-16
1.29271e-16
1.30142e-16
1.27827e-16
1.17102e-16
8.84397e-17
5.11543e-17
2.86689e-17
2.86682e-17
6.31957e-08
3.57833e-07
2.18445e-07
2.3803e-08
-5.67266e-25
2.29421e-14
1.04023e-16
3.0168e-13
2.75085e-13
-9.90356e-36
3.21965e-27
-2.6573e-26
-1.24614e-27
-1.97734e-18
0.183952
0.520786
0.718423
0.851238
0.95861
0.997751
1
1
1
1
1
1
1
1
1
1
1
1
1
1
1
1
1
1
1
1
1
1
1
1
1
1
1
1
1
1
1
1
1
1
1
1
1
1
1
1
1
1
1
1
1
1
1
1
1
1
1
1
1
1
1
1
1
1
1
1
1
1
1
1
1
1
1
1
1
1
1
1
1
1
1
1
1
1
1
1
1
1
1
1
1
1
1
1
1
1
1
1
1
1
1
1
1
1
1
1
1
1
1
1
1
1
1
1
1
1
1
1
1
1
1
1
1
1
1
1
1
1
1
1
1
1
1
1
1
1
1
1
1
1
1
1
1
1
1
1
1
1
1
1
1
1
1
1
1
1
1
1
1
1
1
1
1
1
1
1
1
1
1
1
1
1
1
1
1
1
1
1
1
1
1
1
1
1
1
1
1
1
1
1
1
1
1
1
1
1
1
1
1
1
1
1
1
1
1
1
1
1
1
1
1
1
1
1
1
1
1
1
1
1
1
1
1
1
1
1
1
1
1
1
1
1
1
1
1
1
1
1
1
1
1
1
1
1
1
1
1
1
1
1
1
1
1
1
1
1
1
1
1
1
1
1
1
1
1
1
1
1
1
1
1
1
1
1
1
1
1
1
1
1
1
1
1
1
1
1
1
1
1
1
1
1
1
1
1
1
1
1
1
1
1
1
1
1
1
1
1
1
1
1
0.72731
-2.38641e-21
8.40263e-06
3.74312e-05
6.98819e-06
2.31786e-24
1.6929e-06
2.09443e-05
9.95947e-06
8.51334e-07
-3.86846e-25
-1.36035e-28
1.78677e-30
0.00143
0.00140959
0.000585621
0.000464865
0.00110927
0.00230861
0.000565753
2.02978e-05
2.81467e-14
2.81467e-14
5.61055e-14
2.02831e-14
7.94088e-15
8.60205e-15
0.000157294
0.00138234
0.00145048
0.00145083
0.000559705
0.000336854
0.000122214
0.000212978
0.000297432
0.00030713
0.00024888
8.99963e-05
4.52412e-06
4.19147e-13
4.78466e-13
6.86314e-13
6.4674e-13
3.15178e-13
6.83443e-14
1.67257e-15
4.87729e-16
4.39489e-16
3.64404e-16
2.83886e-16
2.12319e-16
1.55141e-16
1.12396e-16
8.17733e-17
6.04213e-17
4.57808e-17
3.58445e-17
2.9138e-17
2.46088e-17
2.15112e-17
1.93166e-17
1.76524e-17
1.62614e-17
1.49759e-17
1.36977e-17
1.23828e-17
1.10262e-17
9.64814e-18
8.28328e-18
6.97099e-18
5.74819e-18
4.64401e-18
3.6769e-18
2.85413e-18
2.17318e-18
1.6241e-18
1.19212e-18
8.60059e-19
6.1034e-19
4.2637e-19
2.93428e-19
1.99076e-19
1.3323e-19
8.79909e-20
5.73612e-20
3.69056e-20
2.34199e-20
1.46371e-20
8.98306e-21
5.38455e-21
3.12906e-21
1.77464e-21
1.11782e-21
1.24793e-21
2.75224e-21
7.19404e-21
1.8075e-20
4.26143e-20
9.48107e-20
2.00353e-19
4.03897e-19
7.78898e-19
1.43937e-18
2.5518e-18
4.34405e-18
7.10784e-18
1.11908e-17
1.69742e-17
2.4834e-17
3.50821e-17
4.78859e-17
6.3172e-17
8.0547e-17
9.92755e-17
1.18305e-16
1.36294e-16
1.5163e-16
1.62301e-16
1.72573e-16
2.02752e-16
2.10895e-16
1.50125e-16
1.37896e-15
9.78926e-16
1.14203e-16
2.86682e-17
4.10718e-07
3.78783e-06
2.17637e-06
4.00723e-07
-1.5054e-24
7.74728e-25
2.10679e-12
1.34109e-11
9.23603e-16
2.82157e-09
7.76115e-09
1.13334e-09
1.45925e-27
-9.19711e-23
-9.99628e-19
-9.78174e-19
-3.98506e-31
0.108183
0.520016
0.76374
0.888746
0.977348
1
1
1
1
1
1
1
1
1
1
1
1
1
1
1
1
1
1
1
1
1
1
1
1
1
1
1
1
1
1
1
1
1
1
1
1
1
1
1
1
1
1
1
1
1
1
1
1
1
1
1
1
1
1
1
1
1
1
1
1
1
1
1
1
1
1
1
1
1
1
1
1
1
1
1
1
1
1
1
1
1
1
1
1
1
1
1
1
1
1
1
1
1
1
1
1
1
1
1
1
1
1
1
1
1
1
1
1
1
1
1
1
1
1
1
1
1
1
1
1
1
1
1
1
1
1
1
1
1
1
1
1
1
1
1
1
1
1
1
1
1
1
1
1
1
1
1
1
1
1
1
1
1
1
1
1
1
1
1
1
1
1
1
1
1
1
1
1
1
1
1
1
1
1
1
1
1
1
1
1
1
1
1
1
1
1
1
1
1
1
1
1
1
1
1
1
1
1
1
1
1
1
1
1
1
1
1
1
1
1
1
1
1
1
1
1
1
1
1
1
1
1
1
1
1
1
1
1
1
1
1
1
1
1
1
1
1
1
1
1
1
1
1
1
1
1
1
1
1
1
1
1
1
1
1
1
1
1
1
1
1
1
1
1
1
1
1
1
1
1
1
1
1
1
1
1
1
1
1
1
1
1
1
1
1
1
1
1
1
1
1
1
1
1
1
1
1
1
1
1
1
0.72772
-1.05897e-24
1.52831e-05
3.6703e-05
4.16685e-06
1.03854e-23
6.70846e-06
2.1647e-05
2.14824e-05
3.00329e-06
2.60335e-23
1.41936e-10
5.08079e-11
1.79748e-28
-9.98632e-23
7.61865e-22
0.000113677
0.000418075
0.00370717
0.00368719
0.00178063
0.000424978
1.00835e-05
2.10987e-14
2.06931e-14
4.48885e-05
0.000963496
0.000706351
0.00142864
0.00137992
0.000300395
3.65573e-05
3.71649e-05
0.000169124
0.000160876
0.000196331
0.000322651
0.000370729
0.000365262
0.000197018
1.77585e-05
4.95245e-13
5.7298e-13
7.3539e-13
7.34933e-13
3.89988e-13
9.25492e-14
2.95037e-15
4.33468e-16
3.97472e-16
3.36789e-16
2.67946e-16
2.04955e-16
1.53879e-16
1.15543e-16
8.82601e-17
6.96162e-17
5.73317e-17
4.95282e-17
4.47303e-17
4.17966e-17
3.98577e-17
3.82746e-17
3.6613e-17
3.46207e-17
3.22005e-17
2.93752e-17
2.62468e-17
2.29577e-17
1.9658e-17
1.64832e-17
1.35406e-17
1.09034e-17
8.61131e-18
6.67429e-18
5.07939e-18
3.79777e-18
2.79119e-18
2.01758e-18
1.43512e-18
1.00506e-18
6.93385e-19
4.71457e-19
3.16073e-19
2.0901e-19
1.36364e-19
8.77909e-20
5.57724e-20
3.49564e-20
2.1606e-20
1.31591e-20
7.89245e-21
4.6786e-21
2.82897e-21
2.0305e-21
2.41018e-21
4.80641e-21
1.13944e-20
2.69104e-20
6.08314e-20
1.30963e-19
2.68896e-19
5.27617e-19
9.9106e-19
1.78457e-18
3.08415e-18
5.12146e-18
8.18102e-18
1.25861e-17
1.86705e-17
2.67364e-17
3.69964e-17
4.95084e-17
6.41163e-17
8.04214e-17
9.77852e-17
1.15322e-16
1.31718e-16
1.43492e-16
1.61614e-16
2.40814e-16
4.73455e-17
4.26114e-15
1.81538e-14
1.02884e-13
1.29498e-14
2.86689e-17
2.86682e-17
3.3689e-06
4.53939e-06
4.54323e-06
1.82295e-06
6.50926e-09
2.95793e-25
6.90652e-14
8.36695e-16
2.57594e-09
2.59794e-08
6.1256e-08
-7.33026e-24
1.44534e-24
1.00188e-24
-2.3358e-25
1.05383e-13
2.88765e-24
3.28305e-28
-1.778e-30
3.53945e-46
0.215426
0.666162
0.861021
0.960721
0.998492
1
1
1
1
1
1
1
1
1
1
1
1
1
1
1
1
1
1
1
1
1
1
1
1
1
1
1
1
1
1
1
1
1
1
1
1
1
1
1
1
1
1
1
1
1
1
1
1
1
1
1
1
1
1
1
1
1
1
1
1
1
1
1
1
1
1
1
1
1
1
1
1
1
1
1
1
1
1
1
1
1
1
1
1
1
1
1
1
1
1
1
1
1
1
1
1
1
1
1
1
1
1
1
1
1
1
1
1
1
1
1
1
1
1
1
1
1
1
1
1
1
1
1
1
1
1
1
1
1
1
1
1
1
1
1
1
1
1
1
1
1
1
1
1
1
1
1
1
1
1
1
1
1
1
1
1
1
1
1
1
1
1
1
1
1
1
1
1
1
1
1
1
1
1
1
1
1
1
1
1
1
1
1
1
1
1
1
1
1
1
1
1
1
1
1
1
1
1
1
1
1
1
1
1
1
1
1
1
1
1
1
1
1
1
1
1
1
1
1
1
1
1
1
1
1
1
1
1
1
1
1
1
1
1
1
1
1
1
1
1
1
1
1
1
1
1
1
1
1
1
1
1
1
1
1
1
1
1
1
1
1
1
1
1
1
1
1
1
1
1
1
1
1
1
1
1
1
1
1
1
1
1
1
1
1
1
1
1
1
1
1
1
1
1
1
1
1
0.348233
-1.51229e-27
5.3839e-06
7.36458e-06
3.09659e-07
1.55488e-09
5.33562e-11
1.72393e-05
-4.19471e-21
-3.88001e-21
6.98265e-22
1.04279e-20
-1.054e-20
1.37285e-05
1.81801e-20
0.000844089
0.0276471
0.0464492
0.0202366
0.000409902
1.27943e-20
0.00229907
0.00285896
0.00124317
0.00127039
0.00275009
0.00279808
0.00280521
0.00103059
-4.37161e-22
-1.69869e-24
0.000119939
0.000351218
0.000281144
4.91121e-21
5.28399e-24
-7.73268e-22
4.53091e-05
0.000248822
0.000310719
0.000280881
3.50527e-05
5.93265e-13
5.93235e-13
7.18245e-13
7.27367e-13
3.84063e-13
8.3006e-14
1.27411e-15
3.81852e-16
3.52683e-16
3.00698e-16
2.42367e-16
1.90158e-16
1.49481e-16
1.20814e-16
1.02191e-16
9.11848e-17
8.56141e-17
8.35231e-17
8.31845e-17
8.31594e-17
8.23731e-17
8.01682e-17
7.63032e-17
7.08868e-17
6.4267e-17
5.69051e-17
4.92697e-17
4.17668e-17
3.47067e-17
2.82981e-17
2.26574e-17
1.78259e-17
1.37881e-17
1.04893e-17
7.85113e-18
5.78354e-18
4.1943e-18
2.9954e-18
2.10719e-18
1.4606e-18
9.97826e-19
6.72033e-19
4.46311e-19
2.92335e-19
1.88877e-19
1.20385e-19
7.56963e-20
4.69535e-20
2.87291e-20
1.73399e-20
1.03347e-20
6.12558e-21
3.74879e-21
2.75384e-21
3.25034e-21
6.1862e-21
1.39932e-20
3.18109e-20
6.95678e-20
1.45226e-19
2.89425e-19
5.51517e-19
1.00656e-18
1.76221e-18
2.96395e-18
4.79654e-18
7.4797e-18
1.12565e-17
1.6374e-17
2.30569e-17
3.14779e-17
4.1733e-17
5.38289e-17
6.76882e-17
8.31075e-17
9.93101e-17
1.13607e-16
1.19229e-16
7.75112e-17
4.76578e-17
2.72787e-13
4.12506e-14
2.58125e-14
1.93539e-11
1.17363e-11
2.86689e-17
1.72265e-10
4.4213e-06
4.53939e-06
4.26868e-06
3.21159e-07
2.98424e-24
1.67421e-12
1.73311e-12
-1.49661e-29
1.1441e-32
1.43325e-08
1.49404e-05
1.58591e-05
3.06635e-06
-1.99338e-23
3.88491e-24
1.05073e-10
1.7294e-10
4.65995e-12
1.08869e-28
2.23234e-33
2.23234e-33
1.55667e-33
0.0716685
0.571731
0.860873
0.968056
0.999367
1
1
1
1
1
1
1
1
1
1
1
1
1
1
1
1
1
1
1
1
1
1
1
1
1
1
1
1
1
1
1
1
1
1
1
1
1
1
1
1
1
1
1
1
1
1
1
1
1
1
1
1
1
1
1
1
1
1
1
1
1
1
1
1
1
1
1
1
1
1
1
1
1
1
1
1
1
1
1
1
1
1
1
1
1
1
1
1
1
1
1
1
1
1
1
1
1
1
1
1
1
1
1
1
1
1
1
1
1
1
1
1
1
1
1
1
1
1
1
1
1
1
1
1
1
1
1
1
1
1
1
1
1
1
1
1
1
1
1
1
1
1
1
1
1
1
1
1
1
1
1
1
1
1
1
1
1
1
1
1
1
1
1
1
1
1
1
1
1
1
1
1
1
1
1
1
1
1
1
1
1
1
1
1
1
1
1
1
1
1
1
1
1
1
1
1
1
1
1
1
1
1
1
1
1
1
1
1
1
1
1
1
1
1
1
1
1
1
1
1
1
1
1
1
1
1
1
1
1
1
1
1
1
1
1
1
1
1
1
1
1
1
1
1
1
1
1
1
1
1
1
1
1
1
1
1
1
1
1
1
1
1
1
1
1
1
1
1
1
1
1
1
1
1
1
1
1
1
1
1
1
1
1
1
1
1
1
1
1
1
1
1
1
1
0.118392
-4.33403e-21
1.01229e-09
1.04157e-23
5.69678e-07
2.90727e-07
2.30209e-09
3.0869e-20
0.00114232
0.00207391
0.00250213
0.00389035
0.00765154
0.0311652
0.00812112
0.0857229
0.0856955
0.0857229
0.0553279
0.00250095
-2.67118e-21
0.000103777
4.28509e-06
0.00293598
0.00360764
0.00360788
0.00233307
0.000298013
4.12448e-22
1.76279e-11
2.5468e-13
4.53752e-30
0.00908423
0.0123304
0.00318069
2.52912e-05
-2.18699e-23
-7.41754e-27
2.17734e-40
0.00019189
0.000290604
0.000273391
2.35222e-05
5.93223e-13
5.93223e-13
6.89826e-13
6.52258e-13
2.823e-13
3.73512e-14
3.65268e-16
3.36646e-16
3.06471e-16
2.58826e-16
2.12519e-16
1.78593e-16
1.60944e-16
1.5596e-16
1.55875e-16
1.59641e-16
1.65409e-16
1.70658e-16
1.73375e-16
1.72263e-16
1.66472e-16
1.56242e-16
1.4256e-16
1.26745e-16
1.10094e-16
9.36692e-17
7.82229e-17
6.42165e-17
5.18799e-17
4.12754e-17
3.23524e-17
2.49889e-17
1.90225e-17
1.4272e-17
1.05538e-17
7.69207e-18
5.52579e-18
3.9127e-18
2.73096e-18
1.87907e-18
1.27466e-18
8.52543e-19
5.6227e-19
3.65695e-19
2.3457e-19
1.484e-19
9.26046e-20
5.70035e-20
3.46182e-20
2.07499e-20
1.22952e-20
7.25827e-21
4.42722e-21
3.20424e-21
3.60091e-21
6.44947e-21
1.39241e-20
3.0509e-20
6.45763e-20
1.30721e-19
2.52915e-19
4.68364e-19
8.31725e-19
1.41911e-18
2.33118e-18
3.69494e-18
5.66402e-18
8.41851e-18
1.21662e-17
1.71483e-17
2.36541e-17
3.20471e-17
4.28086e-17
5.65284e-17
7.34087e-17
9.15654e-17
1.0336e-16
5.2109e-17
4.70655e-17
1.25069e-12
5.43752e-13
3.89348e-14
4.35614e-10
7.92372e-10
1.15371e-10
7.03616e-12
1.74565e-06
1.70163e-06
1.27319e-07
1.10009e-12
4.24613e-12
9.4914e-12
9.54267e-12
3.27123e-12
1.38589e-13
-1.29235e-30
5.44473e-05
6.72497e-05
4.61432e-05
2.93268e-06
-2.46411e-23
5.17895e-11
9.97814e-10
1.72039e-09
3.92865e-10
-8.78141e-27
3.82586e-16
1.65107e-16
-2.81929e-34
-1.84084e-18
-3.16248e-30
0.0505564
0.57952
0.895287
0.989536
1
1
1
1
1
1
1
1
1
1
1
1
1
1
1
1
1
1
1
1
1
1
1
1
1
1
1
1
1
1
1
1
1
1
1
1
1
1
1
1
1
1
1
1
1
1
1
1
1
1
1
1
1
1
1
1
1
1
1
1
1
1
1
1
1
1
1
1
1
1
1
1
1
1
1
1
1
1
1
1
1
1
1
1
1
1
1
1
1
1
1
1
1
1
1
1
1
1
1
1
1
1
1
1
1
1
1
1
1
1
1
1
1
1
1
1
1
1
1
1
1
1
1
1
1
1
1
1
1
1
1
1
1
1
1
1
1
1
1
1
1
1
1
1
1
1
1
1
1
1
1
1
1
1
1
1
1
1
1
1
1
1
1
1
1
1
1
1
1
1
1
1
1
1
1
1
1
1
1
1
1
1
1
1
1
1
1
1
1
1
1
1
1
1
1
1
1
1
1
1
1
1
1
1
1
1
1
1
1
1
1
1
1
1
1
1
1
1
1
1
1
1
1
1
1
1
1
1
1
1
1
1
1
1
1
1
1
1
1
1
1
1
1
1
1
1
1
1
1
1
1
1
1
1
1
1
1
1
1
1
1
1
1
1
1
1
1
1
1
1
1
1
1
1
1
1
1
1
1
1
1
1
1
1
1
1
1
1
1
1
1
1
0.337432
-4.82466e-21
-1.5399e-22
7.61526e-08
2.65343e-06
2.35155e-08
6.08161e-20
5.82541e-20
0.0259931
0.0259548
0.00896269
0.0150462
0.0873159
0.0875564
0.0873159
0.0568591
0.0364087
0.0103523
0.00716199
0.00561968
0.00129557
7.77575e-22
-2.32338e-25
-2.19994e-21
0.00100598
0.00346113
0.00126233
7.13149e-06
1.32595e-22
1.93952e-10
1.88443e-12
1.32366e-30
0.014045
0.0193335
0.016863
0.00102667
2.43512e-21
2.63106e-09
4.86819e-09
4.34003e-09
0.000152066
0.000250246
9.64926e-05
3.32405e-07
5.93222e-13
6.31167e-13
6.94821e-13
5.64066e-13
1.94807e-13
1.31682e-14
3.03234e-16
3.04101e-16