/*--------------------------------*- C++ -*----------------------------------*\
| =========                 |                                                 |
| \\      /  F ield         | OpenFOAM: The Open Source CFD Toolbox           |
|  \\    /   O peration     | Version:  v2006                                 |
|   \\  /    A nd           | Website:  www.openfoam.com                      |
|    \\/     M anipulation  |                                                 |
\*---------------------------------------------------------------------------*/
FoamFile
{
    version     2.0;
    format      ascii;
    class       volScalarField;
    location    "0";
    object      p;
}
// * * * * * * * * * * * * * * * * * * * * * * * * * * * * * * * * * * * * * //

dimensions      [1 -1 -2 0 0 0 0];


internalField   nonuniform List<scalar> 
67500
(
74.1483
74.3522
75.4776
75.7568
73.0158
68.5419
63.7964
59.6388
56.4457
54.2884
53.0833
52.694
52.9673
53.7456
54.8813
56.246
57.7288
59.2296
60.6563
61.9267
62.9737
63.7505
64.232
64.4134
64.3058
63.9321
63.3223
62.509
61.5246
60.3987
59.1576
57.8237
56.416
54.9507
53.4414
51.9
50.3368
48.7608
47.1798
45.6007
44.0295
42.4714
40.9311
39.4125
37.9191
36.4538
35.0194
33.618
32.2515
30.9216
29.6296
28.3764
27.1627
25.989
24.8555
23.7623
22.709
21.6954
20.7208
19.7847
18.8862
18.0245
17.1988
16.4079
15.6508
14.9267
14.2342
13.5725
12.9404
12.3368
11.7607
11.2111
10.6869
10.187
9.7106
9.25664
8.82421
8.41241
8.02036
7.64722
7.29217
6.9544
6.63317
6.32773
6.03736
5.76139
5.49914
5.24998
5.01329
4.78848
4.57499
4.37227
4.17981
3.99709
3.82364
3.65902
3.50277
3.3545
3.21381
3.08032
2.95366
2.83351
2.71953
2.61141
2.50884
2.41154
2.31924
2.23166
2.14855
2.06966
1.99475
1.92359
1.85595
1.79163
1.73041
1.67209
1.61647
1.56337
1.51261
1.46401
1.4174
1.37264
1.32956
1.28803
1.24791
1.20908
1.17142
1.13483
1.0992
1.06446
1.03052
0.997325
0.964805
0.932915
0.901617
0.870877
0.840674
0.810991
0.78182
0.753156
0.725001
0.697362
0.670248
0.643671
0.617645
0.592185
0.567308
0.543028
0.519362
0.496323
0.473925
0.452179
0.431093
0.410677
0.390934
0.371868
0.35348
0.335769
0.318731
0.302361
0.286652
0.271595
0.257179
0.243393
0.230223
0.217655
0.205673
0.194262
0.183403
0.173081
0.163277
0.153972
0.145149
0.136788
0.128871
0.12138
0.114296
0.107601
0.101276
0.0953059
0.0896716
0.084357
0.0793457
0.0746218
0.0701701
0.0659757
0.0620244
0.0583024
0.0547965
0.0514942
0.0483834
0.0454525
0.0426905
0.0400871
0.0376324
0.035317
0.0331319
0.0310689
0.02912
0.0272778
0.0255354
0.0238861
0.0223239
0.0208431
0.0194382
0.0181044
0.0168369
0.0156316
0.0144845
0.0133918
0.0123501
0.0113564
0.0104078
0.0095015
0.00863523
0.00780673
0.00701396
0.00625508
0.00552838
0.00483235
0.00416559
0.00352682
0.00291491
0.00232881
0.00176758
0.00123035
0.00071636
0.000224898
-0.000244675
-0.000692943
-0.00112044
-0.00152765
-0.00191502
-0.00228294
-0.0026318
-0.00296191
-0.00327358
-0.00356708
-0.00384265
-0.00410049
-0.00434079
-0.0045637
-0.00476937
-0.00495792
-0.00512947
-0.00528412
-0.005422
-0.00554322
-0.00564795
-0.00573636
-0.0058087
-0.00586522
-0.00590625
-0.00593218
-0.00594343
-0.00594048
-0.00592386
-0.00589411
-0.00585176
-0.00579737
-0.00573146
-0.00565451
-0.00556697
-0.00546924
-0.00536168
-0.00524464
-0.00511846
-0.00498348
-0.00484011
-0.00468878
-0.00453003
-0.00436444
-0.00419274
-0.00401568
-0.00383414
-0.00364902
-0.00346128
-0.00327189
-0.00308183
-0.00289205
-0.00270346
-0.00251694
-0.00233326
-0.00215316
-0.00197726
-0.00180613
-0.00164023
-0.00147995
-0.0013256
-0.00117741
-0.00103554
-0.000900107
-0.000771148
-0.000648661
-0.000532598
-0.000422874
-0.000319375
-0.000221955
-0.000130453
-4.46868e-05
3.55356e-05
0.000110418
0.000180173
0.000245013
0.000305153
0.000360809
0.000412194
0.000459519
0.000502993
0.000542817
0.000579188
0.000612296
0.000642325
0.00066945
0.000693841
0.00071566
0.000735061
0.000752194
0.000767198
0.000780208
0.000791355
0.000800759
0.000808537
0.000814797
0.000819642
0.000823171
0.000825475
0.000826643
0.000826755
0.00082589
0.000824122
0.000821522
0.000818154
0.000814077
0.00080935
0.000804023
0.000798148
0.00079177
0.000784934
0.000777682
0.000770052
0.000762081
0.000753803
0.00074525
0.000736454
0.000727443
0.000718243
0.000708877
0.000699367
0.000689737
0.000680005
0.000670192
0.000660312
0.000650382
0.000640414
0.000630423
0.000620421
0.00061042
0.000600429
0.000590456
0.000580511
0.000570603
0.000560739
0.000550926
0.000541172
0.000531482
0.000521862
0.000512316
0.00050285
0.000493465
0.000484164
0.000474949
0.000465823
0.000456789
0.00044785
0.000439008
0.000430263
0.000421616
0.000413066
0.000404614
0.00039626
0.000388004
0.000379848
0.000371793
0.000363839
0.000355986
0.000348234
0.000340582
0.000333027
0.000325567
0.0003182
0.000310926
0.000303744
0.000296655
0.000289659
0.000282756
0.000275943
0.000269217
0.000262578
0.000256021
0.000249546
0.00024315
0.000236832
0.00023059
0.000224422
0.000218329
0.000212307
0.000206356
0.000200473
0.000194655
0.000188901
0.00018321
0.00017758
0.000172014
0.000166508
0.000161063
0.000155675
0.000150342
0.00014506
0.000139826
0.000134641
0.000129501
0.000124407
0.000119358
0.000114351
0.000109384
0.000104456
9.95641e-05
9.47056e-05
8.98794e-05
8.5084e-05
8.03186e-05
7.55824e-05
7.08744e-05
6.61931e-05
6.15368e-05
5.69032e-05
5.22903e-05
4.76962e-05
4.31191e-05
3.85575e-05
3.40106e-05
2.94759e-05
2.49559e-05
2.04354e-05
1.59603e-05
1.13738e-05
7.26836e-06
1.95257e-06
3.35947e-06
73.4099
73.5044
74.5327
74.6116
71.6366
66.9925
62.1751
58.0315
54.9054
52.8399
51.7337
51.4383
51.7922
52.635
53.8222
55.2319
56.7588
58.3058
59.7807
61.0987
62.1887
63.0013
63.5116
63.7165
63.6289
63.2738
62.6832
61.8909
60.9301
59.8304
58.6176
57.3134
55.936
54.5009
53.0212
51.5082
49.9722
48.4218
46.865
45.3085
43.7584
42.2199
40.6976
39.1957
37.7176
36.2664
34.8449
33.4554
32.0998
30.78
29.4972
28.2525
27.0467
25.8804
24.7537
23.6668
22.6195
21.6114
20.642
19.7107
18.8167
17.9593
17.1374
16.3502
15.5967
14.8757
14.1863
13.5274
12.8979
12.2968
11.7231
11.1756
10.6534
10.1554
9.6808
9.22852
8.79766
8.38734
7.99668
7.62484
7.27101
6.93441
6.61426
6.30985
6.02045
5.7454
5.48401
5.23567
4.99976
4.77569
4.56289
4.36083
4.16898
3.98685
3.81395
3.64985
3.4941
3.3463
3.20604
3.07297
2.94671
2.82693
2.7133
2.60552
2.50327
2.40628
2.31427
2.22697
2.14413
2.0655
1.99084
1.91992
1.85252
1.78841
1.72741
1.66929
1.61387
1.56096
1.51037
1.46194
1.4155
1.37089
1.32796
1.28657
1.24658
1.20787
1.17032
1.13383
1.09829
1.06363
1.02976
0.996624
0.964155
0.932307
0.90104
0.870326
0.84014
0.810467
0.7813
0.752635
0.724476
0.696828
0.669703
0.643112
0.617072
0.591597
0.566704
0.54241
0.51873
0.495679
0.473269
0.451514
0.430422
0.41
0.390254
0.371188
0.352801
0.335094
0.318061
0.301698
0.285998
0.270952
0.256548
0.242775
0.22962
0.217067
0.205102
0.193707
0.182867
0.172563
0.162777
0.153491
0.144686
0.136344
0.128445
0.120972
0.113906
0.107229
0.100923
0.0949692
0.0893518
0.0840535
0.079058
0.0743495
0.0699125
0.0657324
0.0617948
0.058086
0.0545928
0.0513026
0.0482032
0.0452833
0.0425318
0.0399383
0.037493
0.0351864
0.0330097
0.0309546
0.0290132
0.027178
0.0254421
0.0237989
0.0222424
0.0207669
0.0193671
0.0180379
0.0167747
0.0155734
0.0144299
0.0133406
0.0123021
0.0113113
0.0103653
0.00946144
0.0085974
0.00777093
0.00698002
0.00622282
0.00549767
0.00480304
0.00413754
0.00349993
0.00288907
0.00230392
0.00174354
0.0012071
0.000693819
0.000203003
-0.000265981
-0.000713713
-0.00114072
-0.00154749
-0.00193445
-0.00230201
-0.00265053
-0.00298034
-0.00329174
-0.00358501
-0.00386037
-0.00411803
-0.00435817
-0.00458094
-0.00478649
-0.00497493
-0.00514637
-0.00530091
-0.00543865
-0.00555972
-0.00566426
-0.00575245
-0.00582451
-0.0058807
-0.00592136
-0.00594685
-0.00595762
-0.00595417
-0.00593702
-0.00590672
-0.00586384
-0.00580894
-0.00574254
-0.00566515
-0.0055772
-0.0054791
-0.00537119
-0.00525381
-0.00512726
-0.00499188
-0.00484805
-0.00469619
-0.00453682
-0.00437054
-0.00419806
-0.00402015
-0.0038377
-0.00365163
-0.00346292
-0.00327257
-0.00308156
-0.00289087
-0.00270143
-0.00251412
-0.00232973
-0.00214899
-0.00197254
-0.00180094
-0.00163465
-0.00147406
-0.00131947
-0.00117112
-0.00102915
-0.000893664
-0.000764706
-0.000642263
-0.000526283
-0.000416673
-0.000313313
-0.000216055
-0.000124731
-3.91578e-05
4.08624e-05
0.000115537
0.000185079
0.000249705
0.000309631
0.000365073
0.000416248
0.000463367
0.000506639
0.000546267
0.000582449
0.000615374
0.000645227
0.000672183
0.000696412
0.000718076
0.00073733
0.00075432
0.000769189
0.000782072
0.000793098
0.000802387
0.000810056
0.000816212
0.00082096
0.000824396
0.000826614
0.000827698
0.000827732
0.000826794
0.000824958
0.000822293
0.000818865
0.000814731
0.00080995
0.000804573
0.00079865
0.000792228
0.000785351
0.000778059
0.000770393
0.000762387
0.000754076
0.000745494
0.000736671
0.000727634
0.000718409
0.00070902
0.000699489
0.000689839
0.000680089
0.000670259
0.000660364
0.000650419
0.000640438
0.000630434
0.000620422
0.00061041
0.000600409
0.000590427
0.000580474
0.000570558
0.000560687
0.000550868
0.000541108
0.000531412
0.000521788
0.000512239
0.000502769
0.000493381
0.000484077
0.000474858
0.00046573
0.000456694
0.000447754
0.000438911
0.000430166
0.000421518
0.000412967
0.000404513
0.000396158
0.000387902
0.000379747
0.000371692
0.000363739
0.000355887
0.000348136
0.000340485
0.000332931
0.000325472
0.000318105
0.000310832
0.000303651
0.000296564
0.00028957
0.000282668
0.000275857
0.000269133
0.000262495
0.00025594
0.000249466
0.000243071
0.000236754
0.000230513
0.000224348
0.000218256
0.000212236
0.000206287
0.000200406
0.000194589
0.000188836
0.000183145
0.000177518
0.000171953
0.000166451
0.000161008
0.000155622
0.00015029
0.000145009
0.000139777
0.000134593
0.000129455
0.000124362
0.000119315
0.00011431
0.000109345
0.000104419
9.9528e-05
9.4671e-05
8.98461e-05
8.50523e-05
8.02886e-05
7.55543e-05
7.08482e-05
6.61688e-05
6.15142e-05
5.68823e-05
5.2271e-05
4.76782e-05
4.31026e-05
3.85426e-05
3.39973e-05
2.94644e-05
2.49461e-05
2.04274e-05
1.5954e-05
1.13691e-05
7.26504e-06
1.95086e-06
3.3584e-06
71.9358
71.9127
72.6287
72.2895
68.7965
63.8195
58.8776
54.7795
51.8067
49.9404
49.0406
48.9361
49.4511
50.4192
51.7027
53.1952
54.8046
56.4414
58.0137
59.4299
60.6089
61.4945
62.0633
62.3157
62.2684
61.9507
61.3986
60.649
59.7363
58.6901
57.5352
56.2917
54.976
53.602
52.1819
50.7264
49.2449
47.7461
46.2376
44.7263
43.2183
41.7189
40.2328
38.7641
37.3166
35.8935
34.4977
33.1317
31.7978
30.4979
29.2334
28.0057
26.8157
25.6639
24.5509
23.4766
22.4411
21.444
20.4849
19.5632
18.6782
17.8292
17.0152
16.2353
15.4886
14.7741
14.0907
13.4374
12.8132
12.217
11.6479
11.1047
10.5866
10.0924
9.62135
9.17241
8.74469
8.33731
7.94942
7.58018
7.2288
6.8945
6.57653
6.27417
5.98671
5.71348
5.45383
5.20712
4.97276
4.75015
4.53874
4.33799
4.14737
3.96641
3.79462
3.63155
3.47679
3.32991
3.19054
3.05829
2.93282
2.81379
2.70087
2.59376
2.49215
2.39578
2.30435
2.21762
2.13531
2.0572
1.98303
1.91259
1.84565
1.78199
1.72141
1.6637
1.60867
1.55614
1.50592
1.45783
1.41172
1.36742
1.32478
1.28367
1.24393
1.20546
1.16813
1.13184
1.09648
1.06198
1.02825
0.995233
0.962864
0.931098
0.899896
0.86923
0.839078
0.809426
0.780266
0.751599
0.723429
0.695763
0.668614
0.641996
0.615926
0.59042
0.565496
0.541172
0.517464
0.494388
0.471957
0.450183
0.429076
0.408645
0.388893
0.369826
0.351442
0.333741
0.31672
0.300372
0.28469
0.269665
0.255286
0.24154
0.228413
0.215892
0.203959
0.192599
0.181793
0.171525
0.161776
0.152527
0.14376
0.135455
0.127594
0.120158
0.113128
0.106487
0.100215
0.0942963
0.0887124
0.0834468
0.078483
0.0738052
0.069398
0.0652464
0.0613363
0.0576539
0.0541859
0.0509198
0.0478435
0.0449455
0.0422149
0.0396412
0.0372146
0.0349258
0.0327659
0.0307265
0.0287999
0.0269787
0.0252558
0.0236249
0.0220799
0.0206151
0.0192251
0.0179052
0.0166506
0.0154572
0.0143211
0.0132386
0.0122063
0.0112212
0.0102805
0.00938153
0.00852192
0.00769951
0.00691229
0.00615847
0.00543638
0.00474454
0.00408158
0.00344626
0.00283748
0.00225422
0.00169556
0.00116067
0.000648802
0.000159272
-0.000308542
-0.000755208
-0.00118124
-0.00158712
-0.00197328
-0.0023401
-0.00268795
-0.00301717
-0.00332804
-0.00362084
-0.00389578
-0.00415308
-0.00439291
-0.00461542
-0.00482073
-0.00500896
-0.00518018
-0.00533449
-0.00547198
-0.00559275
-0.00569692
-0.00578466
-0.00585618
-0.00591172
-0.00595161
-0.00597624
-0.00598606
-0.00598157
-0.00596334
-0.00593194
-0.00588797
-0.00583203
-0.00576467
-0.00568639
-0.00559764
-0.00549881
-0.00539021
-0.00527215
-0.0051449
-0.00500874
-0.004864
-0.00471109
-0.0045505
-0.00438282
-0.00420876
-0.00402914
-0.00384486
-0.00365688
-0.00346621
-0.00327391
-0.00308099
-0.00288847
-0.00269731
-0.00250841
-0.00232258
-0.00214057
-0.00196302
-0.00179048
-0.00162342
-0.00146221
-0.00130716
-0.00115847
-0.0010163
-0.000880729
-0.000751781
-0.000629433
-0.000513622
-0.000404246
-0.00030117
-0.000204239
-0.000113277
-2.80914e-05
5.15224e-05
0.000125777
0.000194892
0.000259086
0.000318581
0.000373597
0.00042435
0.000471056
0.000513925
0.000553162
0.000588965
0.000621524
0.000651025
0.000677643
0.000701548
0.000722902
0.000741858
0.000758566
0.000773167
0.000785795
0.000796578
0.000805637
0.000813088
0.000819038
0.000823591
0.000826843
0.000828886
0.000829805
0.000829684
0.000828601
0.000826628
0.000823834
0.000820283
0.000816035
0.000811146
0.000805669
0.000799651
0.000793141
0.00078618
0.000778811
0.000771071
0.000762997
0.000754623
0.000745981
0.000737102
0.000728013
0.000718739
0.000709304
0.000699732
0.000690043
0.000680257
0.000670393
0.000660466
0.000650492
0.000640484
0.000630456
0.000620421
0.000610388
0.000600367
0.000590368
0.000580398
0.000570467
0.000560582
0.000550751
0.000540979
0.000531274
0.000521641
0.000512085
0.000502608
0.000493212
0.000483901
0.000474678
0.000465545
0.000456506
0.000447562
0.000438717
0.000429968
0.000421318
0.000412765
0.00040431
0.000395955
0.000387699
0.000379544
0.000371491
0.000363539
0.000355689
0.00034794
0.00034029
0.000332738
0.00032528
0.000317916
0.000310645
0.000303467
0.000296382
0.000289392
0.000282493
0.000275684
0.000268963
0.000262328
0.000255776
0.000249305
0.000242913
0.000236598
0.00023036
0.000224197
0.000218109
0.000212093
0.000206147
0.000200269
0.000194455
0.000188705
0.000183018
0.000177395
0.000171834
0.000166335
0.000160896
0.000155513
0.000150184
0.000144906
0.000139677
0.000134496
0.000129361
0.000124272
0.000119228
0.000114226
0.000109265
0.000104341
9.94541e-05
9.46006e-05
8.97793e-05
8.49891e-05
8.02291e-05
7.54984e-05
7.07959e-05
6.61199e-05
6.14685e-05
5.68397e-05
5.22315e-05
4.76418e-05
4.30694e-05
3.85126e-05
3.39707e-05
2.94411e-05
2.49262e-05
2.04107e-05
1.59406e-05
1.13589e-05
7.25792e-06
1.9473e-06
3.35629e-06
69.876
69.6541
69.9024
68.8162
64.3389
58.7839
53.7453
49.8071
47.1247
45.5943
45.0228
45.2131
45.9713
47.1166
48.5232
50.1182
51.837
53.6044
55.3283
56.9027
58.223
59.2193
59.8748
60.1984
60.2107
59.9484
59.4543
58.7695
57.9309
56.9679
55.9029
54.7533
53.5326
52.2525
50.9233
49.5547
48.1557
46.7347
45.2991
43.8559
42.4112
40.9704
39.5384
38.1195
36.7177
35.3365
33.9791
32.6483
31.3468
30.0765
28.8394
27.637
26.4704
25.3404
24.2476
23.1923
22.1744
21.1937
20.25
19.3427
18.4711
17.6346
16.8324
16.0635
15.3271
14.6221
13.9477
13.3028
12.6865
12.0977
11.5355
10.9988
10.4867
9.9982
9.53245
9.0885
8.66546
8.26248
7.87872
7.51337
7.16565
6.8348
6.52008
6.22078
5.93622
5.66573
5.40867
5.16441
4.93236
4.71194
4.5026
4.3038
4.11504
3.93582
3.76568
3.60418
3.45089
3.3054
3.16734
3.03633
2.91204
2.79412
2.68226
2.57616
2.47552
2.38005
2.28951
2.20361
2.12211
2.04477
1.97135
1.90162
1.83537
1.77237
1.71243
1.65534
1.6009
1.54893
1.49925
1.45169
1.40607
1.36223
1.32004
1.27934
1.23999
1.20187
1.16487
1.12888
1.09379
1.05953
1.02601
0.993169
0.96095
0.929306
0.898201
0.867606
0.837502
0.807878
0.778729
0.750056
0.721867
0.694173
0.666987
0.640326
0.614209
0.588655
0.563683
0.539313
0.515562
0.492447
0.469983
0.448181
0.427053
0.406606
0.386846
0.367777
0.349398
0.331708
0.314703
0.298378
0.282724
0.267731
0.253389
0.239683
0.226601
0.214126
0.202243
0.190934
0.180182
0.169969
0.160275
0.151082
0.14237
0.134122
0.126317
0.118936
0.111961
0.105374
0.0991552
0.093288
0.0877546
0.082538
0.0776219
0.0729902
0.0686274
0.0645188
0.0606499
0.057007
0.0535769
0.050347
0.0473053
0.0444402
0.0417409
0.0391969
0.0367984
0.0345361
0.0324013
0.0303856
0.0284812
0.0266808
0.0249776
0.023365
0.0218371
0.0203882
0.0190131
0.017707
0.0164652
0.0152837
0.0141585
0.0130862
0.0120632
0.0110867
0.0101539
0.00926217
0.00840918
0.00759281
0.00681112
0.00606232
0.0053448
0.00465711
0.00399792
0.00336603
0.00276034
0.00217989
0.00162378
0.0010912
0.000581436
9.38184e-05
-0.000372255
-0.000817333
-0.00124192
-0.00164647
-0.00203142
-0.00239715
-0.00274401
-0.00307233
-0.00338241
-0.0036745
-0.00394883
-0.0042056
-0.00444498
-0.0046671
-0.00487207
-0.00505999
-0.00523091
-0.0053849
-0.00552203
-0.00564237
-0.00574602
-0.0058331
-0.00590381
-0.00595838
-0.00599712
-0.00602044
-0.00602879
-0.00602273
-0.00600283
-0.00596975
-0.00592412
-0.0058666
-0.00579776
-0.00571816
-0.00562822
-0.00552832
-0.00541874
-0.00529971
-0.00517145
-0.00503416
-0.00488811
-0.00473364
-0.00457122
-0.00440144
-0.004225
-0.00404277
-0.00385569
-0.00366479
-0.00347114
-0.00327586
-0.00308004
-0.00288474
-0.00269097
-0.00249966
-0.00231167
-0.00212774
-0.00194852
-0.00177458
-0.00160637
-0.00144426
-0.00128852
-0.00113936
-0.000996897
-0.000861204
-0.000732284
-0.000610095
-0.000494553
-0.000385538
-0.000282901
-0.000186472
-9.60623e-05
-1.14664e-05
6.75299e-05
0.000141149
0.000209616
0.000273159
0.000332003
0.000386375
0.000436494
0.000482578
0.000524841
0.000563489
0.000598723
0.000630733
0.000659705
0.000685815
0.000709233
0.000730121
0.000748633
0.000764918
0.000779117
0.000791362
0.000801782
0.000810496
0.00081762
0.000823262
0.000827523
0.000830499
0.000832281
0.000832955
0.000832603
0.000831301
0.000829122
0.000826135
0.000822402
0.000817983
0.000812933
0.000807305
0.000801146
0.000794502
0.000787417
0.000779931
0.000772082
0.000763906
0.000755437
0.000746707
0.000737744
0.000728577
0.00071923
0.000709728
0.000700093
0.000690346
0.000680506
0.000670591
0.000660617
0.000650598
0.000640551
0.000630486
0.000620417
0.000610353
0.000600303
0.000590277
0.000580283
0.000570329
0.000560424
0.000550573
0.000540786
0.000531066
0.000521421
0.000511852
0.000502363
0.000492957
0.000483637
0.000474406
0.000465267
0.000456222
0.000447274
0.000438423
0.000429671
0.000421017
0.000412462
0.000404006
0.00039565
0.000387394
0.000379241
0.000371189
0.000363239
0.000355391
0.000347644
0.000339997
0.000332447
0.000324992
0.000317632
0.000310364
0.00030319
0.000296111
0.000289124
0.00028223
0.000275425
0.000268709
0.000262078
0.00025553
0.000249062
0.000242674
0.000236363
0.00023013
0.000223972
0.000217889
0.000211878
0.000205937
0.000200063
0.000194254
0.000188509
0.000182828
0.000177211
0.000171656
0.000166163
0.000160728
0.00015535
0.000150025
0.000144752
0.000139527
0.000134351
0.000129221
0.000124136
0.000119097
0.0001141
0.000109144
0.000104225
9.93433e-05
9.4495e-05
8.96792e-05
8.48945e-05
8.014e-05
7.54147e-05
7.07173e-05
6.60463e-05
6.13998e-05
5.67757e-05
5.21721e-05
4.75873e-05
4.30196e-05
3.84678e-05
3.39308e-05
2.94062e-05
2.48962e-05
2.03856e-05
1.59203e-05
1.13434e-05
7.24716e-06
1.94193e-06
3.35313e-06
67.4645
66.7288
66.7485
64.7077
58.7553
52.0002
46.6947
43.0517
40.8529
39.828
39.7253
40.3312
41.4313
42.7959
44.3121
45.9842
47.8037
49.7241
51.6577
53.4723
55.0087
56.159
56.9297
57.3478
57.4364
57.2456
56.8286
56.2319
55.4962
54.6498
53.7111
52.6926
51.6034
50.4519
49.2466
47.9958
46.7081
45.3914
44.0536
42.7014
41.3411
39.9785
38.6185
37.2659
35.9248
34.5991
33.2925
32.0082
30.7493
29.5182
28.3173
27.1483
26.0126
24.9115
23.8455
22.8151
21.8206
20.8617
19.9384
19.0501
18.1964
17.3765
16.5899
15.8355
15.1127
14.4205
13.758
13.1243
12.5184
11.9394
11.3863
10.8581
10.3541
9.87314
9.41444
8.97711
8.56028
8.16314
7.78486
7.42466
7.0818
6.75551
6.44511
6.14988
5.86916
5.6023
5.34867
5.10767
4.87869
4.66118
4.4546
4.2584
4.0721
3.8952
3.72725
3.56782
3.41648
3.27284
3.13652
3.00716
2.88442
2.76799
2.65753
2.55277
2.4534
2.35915
2.26977
2.18499
2.10456
2.02825
1.95582
1.88704
1.8217
1.75959
1.7005
1.64422
1.59057
1.53936
1.4904
1.44353
1.39857
1.35536
1.31375
1.2736
1.23478
1.19714
1.16058
1.12498
1.09025
1.05631
1.02307
0.990462
0.958441
0.926958
0.895978
0.865475
0.835432
0.805842
0.776703
0.748019
0.719802
0.692065
0.664825
0.638104
0.611922
0.586301
0.561264
0.53683
0.51302
0.489852
0.467342
0.445502
0.424345
0.403878
0.384106
0.365034
0.346662
0.328987
0.312006
0.295711
0.280094
0.265146
0.250853
0.237203
0.22418
0.211768
0.199952
0.188712
0.178032
0.167891
0.158272
0.149154
0.140518
0.132345
0.124614
0.117308
0.110407
0.103891
0.0977436
0.0919456
0.0864796
0.0813286
0.0764761
0.0719059
0.0676025
0.0635511
0.0597372
0.0561471
0.0527675
0.0495859
0.0465902
0.043769
0.0411113
0.0386068
0.0362457
0.0340188
0.0319174
0.0299331
0.0280583
0.0262857
0.0246085
0.0230202
0.0215151
0.0200874
0.018732
0.0174442
0.0162195
0.0150537
0.0139431
0.0128842
0.0118736
0.0109085
0.00998615
0.00910398
0.00825975
0.00745138
0.00667698
0.00593482
0.00522334
0.00454114
0.00388692
0.00325954
0.00265794
0.00208119
0.00152844
0.000998909
0.000491912
6.8138e-06
-0.000456963
-0.000899946
-0.00132262
-0.00172542
-0.00210877
-0.00247304
-0.00281859
-0.00314574
-0.00345476
-0.00374592
-0.00401944
-0.00427552
-0.00451431
-0.00473593
-0.00494048
-0.00512802
-0.00529858
-0.00545219
-0.00558889
-0.0057087
-0.00581168
-0.00589792
-0.00596757
-0.00602084
-0.00605805
-0.00607959
-0.00608595
-0.00607771
-0.00605553
-0.00602013
-0.00597222
-0.00591253
-0.0058417
-0.00576032
-0.00566882
-0.00556756
-0.00545675
-0.00533654
-0.00520703
-0.00506833
-0.0049206
-0.0047641
-0.00459926
-0.00442665
-0.004247
-0.00406122
-0.00387032
-0.00367542
-0.00347771
-0.00327836
-0.00307858
-0.0028795
-0.0026822
-0.00248765
-0.00229673
-0.00211023
-0.00192881
-0.001753
-0.00158327
-0.00141997
-0.00126334
-0.00111357
-0.000970762
-0.00083494
-0.000706088
-0.000584138
-0.00046898
-0.000360471
-0.000258443
-0.000162704
-7.30479e-05
1.07453e-05
8.89039e-05
0.000161662
0.000229256
0.000291921
0.000349892
0.000403398
0.000452666
0.000497918
0.00053937
0.000577232
0.000611704
0.000642981
0.000671246
0.000696678
0.000719446
0.000739713
0.000757634
0.000773355
0.000787018
0.000798754
0.00080869
0.000816946
0.000823637
0.000828868
0.000832741
0.00083535
0.000836785
0.000837133
0.000836473
0.000834881
0.000832429
0.000829184
0.000825209
0.000820563
0.0008153
0.000809471
0.000803124
0.000796304
0.000789054
0.000781413
0.00077342
0.000765109
0.000756514
0.000747665
0.000738592
0.000729321
0.000719878
0.000710286
0.000700567
0.000690743
0.000680831
0.000670848
0.000660812
0.000650737
0.000640636
0.000630523
0.000620408
0.000610302
0.000600214
0.000590152
0.000580125
0.000570142
0.000560209
0.000550335
0.000540526
0.000530787
0.000521123
0.000511538
0.000502034
0.000492615
0.000483283
0.000474042
0.000464895
0.000455842
0.000446888
0.000438031
0.000429274
0.000420615
0.000412057
0.000403599
0.000395243
0.000386988
0.000378836
0.000370786
0.000362839
0.000354994
0.00034725
0.000339605
0.000332059
0.000324608
0.000317252
0.00030999
0.000302822
0.000295748
0.000288767
0.000281878
0.00027508
0.000268369
0.000261743
0.0002552
0.000248738
0.000242355
0.00023605
0.000229823
0.000223672
0.000217595
0.000211591
0.000205656
0.000199788
0.000193986
0.000188248
0.000182575
0.000176965
0.000171418
0.000165931
0.000160504
0.000155132
0.000149813
0.000144546
0.000139327
0.000134157
0.000129033
0.000123956
0.000118922
0.000113932
0.000108982
0.000104071
9.91957e-05
9.43546e-05
8.9546e-05
8.47686e-05
8.00213e-05
7.5303e-05
7.06124e-05
6.5948e-05
6.13079e-05
5.66902e-05
5.2093e-05
4.75145e-05
4.29534e-05
3.8408e-05
3.38776e-05
2.93596e-05
2.48562e-05
2.0352e-05
1.58931e-05
1.13227e-05
7.2327e-06
1.93471e-06
3.34889e-06
65.2687
63.9308
62.5198
58.6429
50.178
43.0884
37.9803
34.5997
32.9178
32.5017
32.9922
34.1682
35.7864
37.4484
39.041
40.7473
42.6492
44.741
46.9439
49.0941
50.9306
52.2633
53.182
53.7366
53.9209
53.8147
53.4923
53.007
52.4073
51.717
50.947
50.1021
49.1851
48.2003
47.1537
46.0527
44.9057
43.7207
42.5056
41.2676
40.0132
38.7483
37.4782
36.208
34.9423
33.6854
32.4417
31.2148
30.0085
28.8258
27.6695
26.5417
25.4444
24.3789
23.3461
22.3468
21.3812
20.4494
19.5514
18.6867
17.8551
17.0559
16.2886
15.5523
14.8464
14.17
13.5223
12.9024
12.3095
11.7426
11.2009
10.6834
10.1893
9.71768
9.26775
8.83863
8.42952
8.03962
7.66814
7.31435
6.9775
6.6569
6.35184
6.06167
5.78573
5.52339
5.27403
5.03707
4.81192
4.59803
4.39487
4.20191
4.01867
3.84466
3.67944
3.52258
3.37367
3.23232
3.09816
2.97086
2.85006
2.73546
2.62675
2.52364
2.42586
2.33313
2.24519
2.1618
2.0827
2.00767
1.93647
1.86888
1.80469
1.74368
1.68564
1.63039
1.57772
1.52745
1.4794
1.43339
1.38926
1.34683
1.30597
1.26651
1.22833
1.19129
1.15528
1.12018
1.0859
1.05236
1.01946
0.987151
0.955375
0.924089
0.893261
0.862868
0.832897
0.803343
0.774209
0.745506
0.717246
0.68945
0.662138
0.635336
0.609067
0.583359
0.558235
0.533718
0.509832
0.486596
0.464026
0.442138
0.420943
0.40045
0.380665
0.361591
0.343227
0.325572
0.30862
0.292364
0.276796
0.261904
0.247674
0.234094
0.221146
0.208815
0.197083
0.185931
0.175341
0.165293
0.155767
0.146743
0.138202
0.130124
0.122488
0.115275
0.108466
0.102041
0.095982
0.0902707
0.0848893
0.0798205
0.0750476
0.0705545
0.0663255
0.0623457
0.0586006
0.0550764
0.05176
0.0486387
0.0457006
0.042934
0.0403283
0.0378732
0.0355588
0.033376
0.0313161
0.0293711
0.0275331
0.0257951
0.0241502
0.0225923
0.0211154
0.0197141
0.0183833
0.0171183
0.0159147
0.0147685
0.013676
0.0126337
0.0116385
0.0106875
0.00977808
0.00890777
0.00807438
0.00727591
0.00651053
0.00577658
0.00507256
0.00439712
0.00374904
0.00312722
0.00253065
0.00195847
0.00140985
0.00088407
0.000380481
-0.000101517
-0.000562467
-0.00100286
-0.00142317
-0.00182381
-0.00220518
-0.00256765
-0.00291157
-0.00323724
-0.00354496
-0.00383497
-0.0041075
-0.00436273
-0.00460082
-0.00482185
-0.00502591
-0.00521303
-0.0053832
-0.00553642
-0.00567265
-0.00579187
-0.00589408
-0.00597932
-0.00604768
-0.00609936
-0.00613463
-0.0061539
-0.00615768
-0.00614663
-0.00612147
-0.00608303
-0.00603215
-0.00596965
-0.00589628
-0.00581267
-0.00571928
-0.00561642
-0.00550422
-0.0053827
-0.00525182
-0.00511151
-0.00496181
-0.00480286
-0.00463501
-0.00445883
-0.00427508
-0.00408474
-0.00388892
-0.00368887
-0.00348589
-0.00328132
-0.00307645
-0.00287253
-0.00267072
-0.00247205
-0.00227744
-0.00208771
-0.00190351
-0.0017254
-0.0015538
-0.00138905
-0.00123136
-0.00108088
-0.000937672
-0.000801738
-0.000673019
-0.000551413
-0.000436779
-0.000328944
-0.000227712
-0.000132869
-4.41849e-05
3.85791e-05
0.000115668
0.000187332
0.000253818
0.000315373
0.000372238
0.000424653
0.00047285
0.000517055
0.000557489
0.000594364
0.000627882
0.000658239
0.000685619
0.000710202
0.000732158
0.00075165
0.000768832
0.00078385
0.000796843
0.000807944
0.000817277
0.000824963
0.000831114
0.000835833
0.000839222
0.000841374
0.000842378
0.000842319
0.000841276
0.000839324
0.000836532
0.000832967
0.000828692
0.000823764
0.000818235
0.000812156
0.000805575
0.000798535
0.00079108
0.000783247
0.000775075
0.000766596
0.000757843
0.000748847
0.000739636
0.000730237
0.000720675
0.000710971
0.000701149
0.000691228
0.000681227
0.000671162
0.000661049
0.000650903
0.000640736
0.000630562
0.00062039
0.000610232
0.000600096
0.00058999
0.000579923
0.000569902
0.000559936
0.000550033
0.000540197
0.000530434
0.000520748
0.000511142
0.00050162
0.000492184
0.000482839
0.000473586
0.000464427
0.000455366
0.000446403
0.000437539
0.000428776
0.000420113
0.000411551
0.000403091
0.000394734
0.00038648
0.00037833
0.000370282
0.000362338
0.000354495
0.000346755
0.000339114
0.000331572
0.000324127
0.000316777
0.000309522
0.00030236
0.000295293
0.00028832
0.000281439
0.000274647
0.000267943
0.000261324
0.000254787
0.000248332
0.000241956
0.000235659
0.00022944
0.000223297
0.000217228
0.000211232
0.000205305
0.000199445
0.000193651
0.000187923
0.000182259
0.000176658
0.00017112
0.000165642
0.000160223
0.000154859
0.000149548
0.000144288
0.000139078
0.000133915
0.000128799
0.00012373
0.000118704
0.000113722
0.000108781
0.000103878
9.90115e-05
9.41793e-05
8.93797e-05
8.46113e-05
7.98729e-05
7.51633e-05
7.04811e-05
6.5825e-05
6.1193e-05
5.65833e-05
5.19941e-05
4.74237e-05
4.28706e-05
3.83334e-05
3.38112e-05
2.93013e-05
2.4806e-05
2.03099e-05
1.58589e-05
1.12967e-05
7.21454e-06
1.92564e-06
3.34358e-06
63.652
65.0691
59.2908
43.612
27.9633
26.2436
26.8251
24.8707
23.5847
23.5875
24.5665
26.398
28.8866
30.9247
32.3315
33.8798
35.8085
38.1592
40.8584
43.6588
46.0044
47.4856
48.5478
49.2953
49.6024
49.6083
49.4039
49.0542
48.6315
48.1466
47.5972
46.9759
46.2767
45.4996
44.6485
43.7306
42.7544
41.7286
40.6617
39.5613
38.4342
37.2865
36.1241
34.9523
33.7763
32.6011
31.4317
30.2727
29.1285
28.0029
26.8992
25.8203
24.7683
23.745
22.7517
21.7892
20.858
19.9585
19.0905
18.254
17.4487
16.6742
15.9298
15.215
14.5292
13.8717
13.2416
12.6381
12.0606
11.5082
10.9799
10.4751
9.9929
9.53243
9.09292
8.67358
8.27365
7.89236
7.52898
7.1828
6.85313
6.53928
6.2406
5.95644
5.68619
5.42923
5.18497
4.95283
4.73225
4.52269
4.32361
4.13452
3.95493
3.78437
3.62241
3.46862
3.3226
3.18398
3.0524
2.92753
2.80904
2.69663
2.59
2.48887
2.39297
2.30205
2.21583
2.13409
2.05659
1.98309
1.91336
1.84719
1.78436
1.72467
1.66791
1.61388
1.56239
1.51326
1.46629
1.42132
1.37818
1.33669
1.29672
1.2581
1.2207
1.18438
1.14903
1.11454
1.0808
1.04773
1.01524
0.983285
0.951799
0.920745
0.890092
0.859823
0.829929
0.80041
0.771275
0.742537
0.714217
0.686341
0.658934
0.632026
0.605646
0.579826
0.554592
0.529972
0.50599
0.482668
0.460026
0.438078
0.416837
0.396313
0.376511
0.357434
0.339081
0.321451
0.304536
0.288329
0.27282
0.257997
0.243845
0.23035
0.217495
0.205262
0.193633
0.182588
0.172107
0.162171
0.152759
0.14385
0.135424
0.12746
0.119938
0.112838
0.10614