/*--------------------------------*- C++ -*----------------------------------*\
| =========                 |                                                 |
| \\      /  F ield         | OpenFOAM: The Open Source CFD Toolbox           |
|  \\    /   O peration     | Version:  v2006                                 |
|   \\  /    A nd           | Website:  www.openfoam.com                      |
|    \\/     M anipulation  |                                                 |
\*---------------------------------------------------------------------------*/
FoamFile
{
    version     2.0;
    format      ascii;
    class       volScalarField;
    location    "0";
    object      shifted_f;
}
// * * * * * * * * * * * * * * * * * * * * * * * * * * * * * * * * * * * * * //

dimensions      [0 0 0 0 0 0 0];


internalField   nonuniform List<scalar> 
2500
(
0.000219014
0.000219073
0.000219036
0.000219062
0.000219047
0.000219036
0.000219021
0.000219021
0.000219002
0.00021904
0.000219066
0.000219062
0.000219014
0.000218995
0.000218958
0.000218991
0.000218954
0.000218932
0.000218961
0.000219002
0.000217579
0.000217631
0.000217576
0.000217583
0.000217587
0.00021762
0.000217538
0.000217572
0.000217605
0.000217605
0.000217564
0.000217572
0.000217583
0.000217613
0.000217628
0.000217583
0.00021759
0.00021759
0.000217598
0.000217579
0.000217646
0.000217613
0.000217639
0.000217624
0.000217631
0.000217654
0.00021759
0.000217568
0.000217538
0.000217605
0.00021759
0.00021755
0.000217512
0.000217546
0.000217579
0.00021762
0.000217561
0.000217553
0.000217583
0.000217576
0.000217523
0.000217527
0.000217587
0.000217579
0.000217594
0.000217576
0.000217557
0.000217542
0.000217598
0.000217553
0.000217527
0.000217531
0.000217516
0.000217523
0.000217486
0.000217516
0.000217475
0.00021746
0.000217464
0.000217456
0.000217464
0.00021749
0.000217456
0.000217497
0.000217523
0.000217464
0.000217523
0.000217512
0.000217441
0.00021749
0.000217516
0.000217482
0.000217471
0.000217509
0.00021746
0.000217542
0.000217557
0.000217505
0.000217479
0.000217471
0.000217441
0.000217471
0.000217494
0.000217479
0.000217412
0.000217441
0.000217434
0.000217441
0.000217397
0.000217434
0.0002174
0.000217434
0.000217441
0.000217453
0.000217427
0.000217415
0.000217423
0.000217427
0.000217415
0.000217382
0.000217389
0.000215784
0.00021572
0.000215691
0.000215668
0.00021572
0.000215687
0.000215705
0.000215683
0.000215717
0.000215698
0.000215702
0.000215698
0.000215683
0.00021572
0.000215687
0.000215698
0.000215679
0.00021565
0.000215672
0.000215691
0.000215631
0.000215665
0.000215657
0.000215676
0.000215668
0.000215665
0.000215679
0.000215668
0.000215657
0.000215709
0.000215679
0.000215653
0.000215657
0.000215605
0.000215638
0.000215676
0.000215661
0.000215683
0.000215638
0.000215601
0.000215665
0.000215638
0.000215616
0.000215646
0.000215579
0.000215601
0.000215627
0.000215635
0.000215679
0.000215631
0.000215646
0.000215609
0.000215627
0.000215597
0.00021562
0.000215646
0.000215609
0.000215616
0.000215601
0.000215676
0.000215631
0.000215575
0.000215568
0.000215545
0.000215564
0.000215609
0.000215568
0.000215571
0.000215631
0.000215612
0.000215612
0.000215542
0.000215568
0.000215597
0.00021559
0.000215609
0.000215515
0.000215497
0.000215542
0.000215527
0.000215545
0.000215545
0.000215508
0.000215605
0.000215549
0.000215549
0.000215508
0.000215527
0.000215501
0.00021553
0.000215534
0.000215542
0.000215538
0.000215534
0.000215482
0.000215527
0.000215534
0.000215542
0.000215504
0.000215501
0.000215504
0.00021334
0.000213381
0.000213381
0.000213325
0.000213359
0.000213366
0.000213284
0.000213325
0.000213332
0.000213336
0.000213295
0.000213366
0.000213321
0.000213351
0.000213362
0.000213418
0.000213351
0.000213392
0.000213359
0.000213373
0.00021331
0.00021337
0.000213336
0.000213355
0.000213392
0.000213414
0.000213344
0.000213381
0.000213359
0.000213377
0.000213336
0.000213314
0.000213351
0.000213347
0.000213321
0.000213336
0.00021328
0.000213306
0.00021334
0.000213277
0.000213306
0.000213325
0.000213273
0.000213273
0.000213262
0.000213284
0.000213243
0.000213254
0.00021331
0.00021328
0.000213303
0.000213254
0.000213247
0.000213295
0.000213303
0.000213318
0.000213303
0.000213306
0.000213258
0.000213243
0.000213273
0.000213217
0.000213239
0.000213191
0.000213239
0.000213262
0.000213232
0.000213236
0.000213236
0.000213247
0.000213288
0.000213232
0.000213291
0.000213251
0.000213273
0.000213224
0.000213232
0.000213236
0.000213195
0.000213176
0.000213176
0.000213262
0.00021321
0.00021321
0.000213247
0.000213161
0.000213236
0.000213191
0.00021315
0.000213165
0.000213187
0.000213206
0.000213131
0.000213102
0.000213105
0.00021315
0.000213157
0.000213146
0.000213154
0.000213124
0.000213191
0.000210688
0.000210743
0.000210658
0.000210721
0.000210661
0.000210643
0.00021068
0.000210632
0.00021068
0.000210695
0.000210702
0.000210684
0.000210639
0.000210591
0.000210673
0.000210639
0.000210613
0.000210695
0.000210602
0.000210643
0.000210632
0.000210676
0.000210624
0.000210606
0.000210617
0.000210639
0.000210617
0.000210591
0.000210639
0.000210624
0.000210639
0.000210624
0.000210591
0.000210632
0.00021068
0.000210661
0.000210613
0.000210639
0.000210606
0.000210557
0.000210602
0.000210613
0.000210635
0.00021062
0.000210602
0.000210557
0.000210572
0.000210602
0.000210531
0.000210572
0.000210602
0.00021062
0.000210539
0.000210546
0.000210557
0.000210565
0.000210594
0.00021055
0.000210542
0.000210553
0.00021055
0.000210546
0.000210553
0.000210509
0.000210516
0.000210524
0.000210527
0.000210557
0.000210501
0.000210498
0.00021055
0.000210527
0.000210516
0.000210464
0.00021049
0.000210516
0.000210509
0.000210449
0.000210468
0.000210457
0.000210483
0.000210512
0.000210501
0.000210445
0.000210468
0.000210486
0.00021052
0.000210401
0.000210423
0.000210457
0.000210464
0.000210442
0.000210423
0.000210434
0.00021046
0.000210434
0.000210412
0.000210408
0.000210389
0.000210416
0.000210427
0.000207696
0.000207696
0.000207711
0.000207726
0.000207685
0.000207748
0.000207666
0.000207696
0.000207704
0.000207715
0.000207674
0.000207681
0.000207651
0.000207692
0.0002077
0.000207685
0.000207692
0.000207685
0.000207715
0.000207659
0.0002077
0.000207666
0.000207696
0.000207674
0.000207651
0.000207692
0.0002077
0.000207666
0.000207718
0.000207696
0.000207651
0.000207644
0.000207677
0.000207666
0.000207603
0.000207674
0.000207674
0.000207603
0.000207618
0.000207603
0.000207625
0.000207644
0.000207633
0.000207633
0.000207588
0.000207599
0.000207651
0.000207622
0.000207596
0.000207633
0.000207629
0.000207663
0.000207629
0.000207651
0.000207573
0.000207596
0.000207555
0.000207614
0.000207562
0.000207592
0.000207644
0.000207555
0.000207555
0.000207566
0.000207573
0.000207528
0.000207536
0.000207569
0.000207543
0.000207521
0.000207525
0.000207517
0.000207592
0.000207532
0.000207558
0.00020754
0.000207577
0.000207569
0.000207536
0.000207569
0.00020751
0.00020754
0.000207517
0.000207476
0.000207487
0.000207525
0.000207502
0.000207484
0.000207487
0.000207473
0.000207476
0.000207473
0.000207499
0.000207484
0.000207473
0.000207443
0.000207521
0.00020748
0.000207443
0.000207443
0.000207458
0.000204463
0.000204455
0.000204492
0.00020444
0.000204448
0.000204459
0.00020441
0.000204399
0.000204422
0.000204429
0.000204492
0.00020447
0.000204485
0.000204425
0.000204425
0.000204422
0.0002045
0.000204414
0.00020441
0.000204388
0.000204403
0.000204444
0.000204373
0.000204366
0.000204388
0.000204362
0.00020441
0.000204414
0.000204399
0.000204369
0.000204347
0.000204388
0.000204366
0.000204358
0.000204343
0.000204377
0.000204399
0.000204362
0.000204302
0.000204377
0.000204381
0.000204355
0.000204328
0.000204396
0.000204355
0.000204302
0.000204377
0.000204366
0.000204366
0.000204347
0.000204377
0.000204366
0.000204276
0.00020434
0.000204373
0.000204351
0.000204358
0.000204328
0.000204373
0.000204306
0.000204276
0.000204336
0.000204306
0.000204302
0.000204332
0.000204336
0.00020434
0.000204291
0.000204261
0.000204299
0.00020431
0.000204273
0.000204314
0.000204302
0.000204265
0.000204235
0.000204239
0.000204232
0.000204235
0.000204232
0.000204224
0.000204265
0.000204198
0.00020425
0.000204202
0.000204261
0.000204246
0.000204239
0.000204276
0.000204261
0.00020422
0.000204209
0.000204239
0.000204239
0.000204213
0.000204194
0.000204191
0.000204165
0.000204176
0.000204202
0.000204176
0.000201151
0.000201199
0.000201128
0.000201195
0.000201143
0.000201177
0.000201125
0.00020114
0.00020111
0.000201121
0.000201136
0.000201125
0.00020111
0.000201114
0.000201151
0.000201099
0.000201132
0.000201087
0.000201125
0.00020108
0.000201136
0.000201069
0.000201117
0.000201121
0.000201102
0.000201087
0.000201125
0.000201102
0.00020114
0.000201106
0.00020111
0.00020108
0.000201058
0.000201065
0.000201099
0.00020105
0.000201102
0.000201058
0.000201099
0.000201076
0.00020105
0.000201028
0.000201039
0.000201095
0.000201087
0.000201046
0.000201061
0.000200998
0.000201095
0.000201076
0.000201009
0.000201065
0.000201035
0.000201073
0.000200983
0.00020102
0.000201028
0.000200983
0.000201035
0.000200998
0.00020102
0.000200991
0.00020102
0.000200998
0.000201002
0.000200979
0.000200968
0.000201028
0.000200972
0.00020102
0.000200983
0.000200983
0.000200961
0.000200968
0.000200961
0.000201005
0.000201017
0.000200994
0.00020102
0.000200968
0.000200942
0.000200965
0.000200924
0.000200968
0.000200961
0.000200938
0.000200968
0.000200938
0.00020095
0.000200953
0.00020095
0.000200938
0.000200916
0.000200916
0.000200924
0.000200938
0.000200909
0.000200901
0.000200901
0.000200901
0.000200897
0.000197951
0.000197887
0.000197936
0.000197921
0.000197865
0.000197876
0.000197858
0.000197891
0.00019788
0.000197876
0.000197876
0.000197846
0.000197787
0.000197876
0.000197817
0.000197854
0.000197854
0.000197832
0.000197843
0.000197869
0.000197846
0.000197861
0.000197832
0.000197921
0.000197858
0.00019782
0.000197798
0.000197805
0.000197757
0.000197809
0.000197813
0.00019785
0.000197854
0.000197813
0.000197828
0.000197861
0.000197873
0.000197846
0.000197802
0.000197832
0.00019782
0.000197798
0.000197772
0.000197817
0.000197802
0.000197835
0.000197813
0.000197802
0.000197779
0.000197798
0.000197776
0.000197783
0.000197783
0.000197738
0.000197757
0.000197776
0.000197798
0.000197746
0.000197776
0.000197783
0.000197742
0.000197764
0.000197753
0.000197787
0.000197764
0.000197764
0.000197809
0.00019775
0.000197768
0.000197764
0.000197802
0.000197772
0.00019775
0.000197738
0.00019769
0.000197779
0.000197735
0.000197735
0.00019772
0.00019769
0.000197757
0.000197697
0.000197753
0.000197709
0.000197716
0.000197712
0.000197683
0.000197716
0.000197738
0.000197686
0.000197694
0.000197761
0.000197716
0.000197697
0.000197694
0.000197683
0.000197701
0.000197694
0.00019766
0.000197649
0.000197686
0.000194766
0.000194758
0.000194795
0.000194754
0.00019481
0.000194818
0.00019481
0.000194803
0.000194777
0.000194769
0.000194792
0.000194844
0.000194833
0.000194777
0.000194784
0.000194747
0.000194728
0.000194762
0.000194814
0.000194736
0.000194747
0.000194736
0.000194747
0.000194699
0.00019474
0.000194777
0.000194747
0.000194728
0.00019474
0.000194743
0.000194781
0.000194807
0.000194766
0.000194803
0.000194654
0.000194725
0.000194728
0.000194766
0.000194695
0.000194736
0.00019471
0.000194732
0.000194743
0.000194728
0.000194747
0.00019468
0.000194665
0.000194676
0.000194736
0.000194713
0.000194747
0.000194721
0.000194773
0.000194728
0.000194773
0.000194725
0.000194769
0.000194713
0.000194747
0.000194725
0.000194747
0.000194732
0.000194661
0.000194751
0.000194769
0.000194799
0.000194769
0.000194777
0.000194725
0.000194781
0.000194754
0.000194732
0.000194736
0.000194721
0.000194725
0.000194717
0.000194732
0.000194706
0.000194713
0.00019471
0.000194717
0.000194676
0.00019468
0.000194732
0.000194702
0.00019465
0.000194687
0.00019468
0.00019471
0.00019468
0.00019468
0.00019462
0.00019471
0.000194702
0.000194672
0.000194676
0.000194635
0.000194672
0.000194781
0.000194643
0.000194639
0.000192113
0.000192173
0.000192102
0.000192132
0.000192109
0.000192117
0.000192069
0.000192069
0.000192109
0.000192095
0.000192102
0.00019205
0.000192057
0.000192035
0.000192102
0.000192087
0.000192091
0.000192087
0.000192109
0.000192087
0.00019205
0.000192121
0.00019208
0.000192095
0.000192124
0.000192109
0.000192057
0.000192136
0.000192124
0.00019208
0.000192109
0.000192102
0.000192076
0.000192042
0.000192042
0.000192035
0.000192117
0.000192005
0.000192091
0.000192054
0.000192072
0.000192113
0.000192046
0.000192076
0.000192057
0.000192098
0.000192087
0.000192065
0.00019199
0.000192072
0.00019202
0.000192057
0.000192005
0.000192065
0.000191983
0.00019205
0.000192031
0.000192035
0.000192065
0.000192057
0.000192076
0.000192057
0.000192061
0.000192069
0.000192013
0.000192031
0.000192083
0.000192031
0.000192069
0.000192042
0.000192076
0.000192028
0.000192009
0.00019208
0.000191979
0.00019202
0.000191968
0.000192035
0.000192028
0.000191979
0.000192013
0.00019199
0.000191946
0.000192054
0.000192031
0.000192072
0.000191983
0.000192013
0.000192016
0.000191975
0.00019202
0.000191968
0.000192031
0.000191994
0.00019199
0.000192028
0.000192013
0.000192005
0.00019196
0.000191923
0.000191927
0.000189755
0.000189755
0.000189748
0.000189792
0.000189774
0.000189807
0.000189792
0.0001898
0.000189774
0.0001898
0.000189789
0.000189789
0.0001898
0.000189815
0.000189703
0.000189763
0.000189774
0.000189777
0.000189777
0.000189785
0.000189785
0.000189818
0.000189796
0.000189837
0.000189826
0.000189826
0.000189811
0.000189841
0.000189841
0.000189781
0.000189822
0.000189811
0.000189792
0.000189789
0.000189748
0.000189777
0.000189837
0.000189815
0.000189763
0.000189845
0.00018983
0.000189815
0.000189792
0.00018983
0.000189804
0.000189867
0.000189789
0.000189822
0.000189848
0.000189841
0.000189804
0.000189845
0.000189789
0.000189852
0.000189792
0.000189833
0.000189777
0.000189807
0.000189774
0.000189789
0.000189822
0.000189789
0.000189811
0.0001898
0.000189841
0.000189763
0.000189833
0.000189856
0.000189807
0.000189774
0.000189792
0.000189785
0.000189848
0.00018977
0.000189785
0.000189796
0.000189807
0.0001898
0.000189766
0.000189766
0.0001898
0.00018974
0.000189748
0.000189845
0.000189759
0.000189763
0.000189718
0.000189807
0.000189755
0.000189789
0.000189837
0.000189796
0.000189789
0.000189833
0.000189781
0.000189789
0.000189792
0.000189729
0.000189722
0.00018974
0.000189699
0.000188034
0.000188004
0.000187997
0.000188019
0.000188168
0.000188097
0.000188094
0.000188131
0.000188105
0.000188056
0.000188041
0.000188053
0.000188101
0.000188079
0.000188045
0.000188116
0.000188079
0.000188138
0.000188094
0.000188116
0.000188071
0.000188086
0.000188123
0.000188153
0.000188094
0.000188079
0.000188112
0.000188056
0.00018815
0.000188064
0.00018806
0.000188079
0.000188094
0.000188112
0.000188105
0.000188064
0.000188075
0.000188123
0.000188097
0.000188086
0.000188071
0.00018806
0.000188056
0.000188086
0.000188053
0.000188082
0.000188041
0.000188056
0.000188015
0.000188019
0.000188086
0.000188053
0.000188094
0.000188049
0.000188056
0.000188109
0.000188064
0.00018815
0.000188056
0.000188101
0.000188079
0.000188127
0.000188109
0.00018812
0.000188105
0.000188105
0.000188101
0.000188082
0.000188075
0.000188068
0.000188079
0.00018809
0.000188094
0.000188123
0.000188045
0.000188064
0.000188138
0.000188123
0.000188105
0.000188131
0.000188168
0.000188112
0.000188153
0.000188131
0.000188094
0.000188109
0.000188097
0.000188116
0.000188131
0.000188086
0.00018809
0.000188038
0.000188082
0.000188094
0.000188116
0.000188116
0.000188109
0.000188056
0.000188075
0.000188079
0.000188053
0.000186957
0.000186879
0.000186983
0.000186961
0.000186905
0.000186987
0.000186961
0.000186995
0.000186965
0.000187006
0.000187006
0.000187013
0.000186995
0.000186924
0.000186954
0.000186924
0.000186972
0.000186935
0.000186931
0.00018698
0.000186909
0.000186939
0.000186961
0.000186965
0.000186924
0.000186928
0.000186931
0.000186987
0.000186939
0.000186943
0.000187024
0.000187036
0.000187006
0.000187047
0.000187036
0.000187028
0.000187036
0.000187006
0.000186957
0.000187024
0.000187058
0.000187013
0.000187051
0.000187021
0.00018701
0.000187021
0.000186946
0.000186998
0.000186991
0.000186983
0.000186998
0.000186983
0.000186976
0.000186976
0.000187013
0.000187032
0.000186995
0.000186969
0.000186983
0.000187051
0.00018701
0.000186969
0.000187002
0.000186976
0.000187069
0.000186943
0.000187047
0.000186946
0.000187032
0.000186961
0.000187006
0.000187006
0.000187002
0.000186972
0.00018695
0.000187017
0.000186961
0.000187032
0.000187069
0.000187013
0.000187043
0.000187021
0.000187054
0.000187032
0.000187017
0.000187013
0.000187021
0.000186991
0.00018708
0.000186998
0.000187002
0.000187017
0.000187028
0.000187006
0.000186995
0.000187028
0.000187036
0.000187013
0.000187043
0.000187002
0.000187024
0.000186477
0.000186477
0.000186514
0.000186522
0.000186462
0.000186462
0.000186477
0.000186484
0.000186469
0.000186536
0.000186514
0.000186522
0.000186592
0.000186499
0.000186525
0.000186507
0.000186492
0.000186559
0.00018654
0.000186507
0.000186548
0.000186551
0.000186559
0.000186507
0.000186507
0.000186525
0.000186581
0.000186492
0.000186566
0.000186536
0.000186574
0.000186559
0.000186492
0.000186518
0.000186525
0.000186514
0.000186469
0.000186499
0.000186499
0.000186462
0.000186551
0.000186551
0.000186592
0.00018657
0.000186611
0.00018657
0.00018657
0.000186592
0.000186563
0.000186559
0.000186589
0.000186611
0.00018663
0.000186589
0.000186626
0.000186592
0.000186596
0.000186585
0.000186589
0.000186607
0.000186551
0.000186611
0.00018654
0.000186585
0.000186626
0.000186574
0.000186551
0.000186581
0.000186589
0.000186615
0.000186566
0.000186589
0.000186618
0.000186574
0.000186682
0.000186585
0.0001866
0.000186589
0.000186604
0.000186633
0.000186589
0.000186644
0.000186604
0.000186633
0.000186667
0.000186611
0.000186618
0.000186615
0.000186589
0.000186671
0.00018663
0.000186607
0.000186566
0.000186622
0.000186596
0.000186607
0.000186589
0.000186648
0.000186559
0.000186626
0.000186585
0.000186775
0.000186756
0.000186756
0.000186797
0.000186805
0.000186749
0.000186782
0.00018682
0.000186775
0.000186767
0.000186823
0.000186779
0.000186753
0.000186823
0.000186838
0.000186797
0.000186808
0.000186801
0.000186812
0.000186805
0.000186849
0.000186823
0.000186864
0.000186827
0.000186849
0.000186834
0.000186838
0.000186794
0.000186834
0.000186861
0.000186849
0.000186827
0.000186801
0.000186827
0.000186812
0.000186849
0.000186794
0.000186812
0.000186842
0.000186812
0.000186827
0.000186827
0.000186894
0.000186931
0.000186872
0.000186849
0.000186872
0.000186857
0.000186801
0.000186894
0.000186879
0.000186946
0.000186879
0.000186894
0.000186883
0.000186883
0.000186924
0.000186898
0.000186887
0.000186868
0.000186827
0.000186905
0.000186872
0.000186861
0.000186924
0.00018689
0.000186924
0.000186909
0.000186928
0.000186931
0.000186909
0.000186909
0.000186883
0.000186898
0.000186931
0.000186883
0.000186887
0.000186957
0.000186931
0.000186928
0.000186924
0.000186894
0.000186924
0.000186916
0.000186969
0.000186983
0.000186916
0.000186916
0.000186838
0.000186864
0.00018695
0.000186972
0.000186969
0.00018695
0.000186987
0.000186987
0.000187006
0.000186969
0.000186943
0.000187024
0.000187002
0.000187725
0.000187803
0.000187892
0.00018784
0.000187863
0.000187874
0.000187825
0.000187807
0.000187807
0.000187818
0.000187863
0.000187796
0.00018784
0.00018784
0.000187833
0.000187829
0.000187822
0.000187837
0.000187907
0.000187881
0.000187941
0.000187859
0.000187833
0.000187811
0.000187844
0.00018787
0.000187892
0.000187919
0.000187881
0.000187844
0.000187833
0.000187822
0.000187837
0.000187855
0.000187922
0.000187907
0.000187848
0.000187904
0.000187844
0.000187844
0.000187915
0.000187896
0.000187863
0.000187889
0.000187904
0.000187874
0.000187904
0.00018787
0.00018787
0.000187833
0.000187892
0.000187926
0.000187937
0.000187945
0.000187937
0.000187892
0.000187941
0.000187945
0.000187989
0.000187941
0.000187956
0.00018793
0.000187922
0.000187926
0.000187878
0.000187881
0.000187922
0.00018793
0.000187989
0.000187974
0.000187948
0.000187986
0.000187922
0.000187982
0.000187952
0.000187967
0.000188012
0.000187986
0.000187982
0.000187971
0.00018796
0.000187915
0.000187963
0.000187937
0.000187978
0.000187974
0.000187948
0.000188049
0.000188027
0.000188001
0.000188049
0.000188086
0.000188001
0.000188015
0.000188001
0.000187993
0.000187982
0.000188001
0.000187978
0.000187978
0.000187971
0.000189524
0.000189673
0.000189632
0.000189621
0.000189651
0.000189688
0.000189673
0.000189688
0.000189651
0.000189658
0.000189643
0.000189617
0.00018964
0.000189707
0.000189666
0.000189662
0.000189699
0.000189703
0.000189718
0.000189729
0.000189681
0.000189666
0.000189669
0.000189628
0.000189684
0.000189777
0.00018971
0.000189766
0.000189729
0.000189751
0.000189722
0.000189729
0.00018974
0.000189655
0.000189722
0.000189703
0.000189677
0.00018977
0.000189785
0.000189785
0.000189763
0.000189759
0.000189729
0.000189792
0.00018974
0.000189744
0.000189785
0.000189714
0.000189774
0.000189725
0.000189815
0.000189789
0.00018983
0.00018974
0.000189833
0.000189748
0.000189785
0.000189789
0.00018977
0.000189807
0.000189796
0.000189725
0.000189837
0.000189852
0.000189826
0.0001898
0.000189804
0.000189804
0.000189826
0.000189852
0.000189815
0.000189852
0.000189763
0.00018977
0.000189818
0.000189777
0.000189822
0.000189852
0.000189863
0.000189818
0.000189889
0.000189885
0.000189804
0.000189912
0.000189859
0.000189871
0.000189889
0.000189837
0.000189867
0.000189837
0.000189926
0.000189859
0.000189904
0.000189908
0.000189893
0.000189856
0.000189915
0.000189904
0.000189889
0.000189912
0.000189938
0.000192385
0.000192285
0.00019237
0.00019234
0.000192318
0.000192314
0.00019237
0.000192415
0.000192408
0.000192381
0.000192359
0.000192352
0.000192385
0.000192355
0.000192393
0.000192344
0.000192385
0.000192411
0.000192389
0.000192434
0.0001924
0.000192363
0.00019237
0.000192378
0.000192448
0.000192441
0.000192493
0.00019243
0.000192437
0.000192415
0.000192437
0.000192426
0.000192393
0.000192426
0.000192426
0.000192452
0.000192501
0.000192411
0.000192448
0.000192452
0.000192434
0.000192415
0.000192426
0.000192452
0.000192467
0.000192452
0.00019243
0.00019246
0.000192434
0.000192475
0.000192519
0.000192497
0.000192456
0.000192501
0.000192508
0.000192516
0.000192475
0.000192478
0.000192564
0.000192534
0.000192519
0.000192497
0.000192471
0.000192557
0.000192568
0.000192549
0.000192545
0.000192489
0.000192523
0.00019256
0.00019253
0.000192568
0.000192605
0.000192575
0.000192609
0.000192519
0.000192553
0.000192527
0.000192568
0.000192542
0.000192475
0.000192557
0.000192564
0.000192568
0.000192624
0.000192616
0.000192616
0.00019262
0.000192609
0.000192605
0.000192612
0.000192616
0.00019262
0.000192624
0.000192624
0.000192631
0.000192635
0.000192631
0.000192612
0.000192616
0.000192635
0.000195913
0.000195924
0.000196021
0.00019598
0.00019595
0.00019592
0.000195913
0.000195943
0.000196014
0.000195935
0.000195976
0.000196021
0.000195961
0.000195961
0.000195913
0.00019601
0.000196036
0.000196014
0.000195988
0.00019601
0.000195965
0.000195935
0.000195969
0.000196002
0.000195984
0.000196058
0.000196099
0.000196002
0.000196066
0.000196047
0.000196058
0.000196047
0.000196073
0.000196017
0.000196058
0.000196122
0.000196066
0.000196069
0.00019617
0.000196096
0.000196021
0.000196032
0.000196125
0.000196133
0.000196125
0.000196096
0.00019611
0.000196099
0.000196058
0.000196144
0.000196081
0.000196096
0.000196081
0.000196066
0.000196077
0.000196084
0.000196159
0.000196144
0.000196178
0.000196163
0.000196092
0.000196118
0.000196107
0.000196178
0.000196192
0.000196148
0.000196125
0.000196163
0.00019614
0.000196166
0.00019611
0.00019617
0.000196178
0.000196185
0.0001962
0.000196189
0.000196222
0.000196196
0.000196245
0.000196286
0.0001963
0.000196237
0.000196289
0.000196271
0.000196256
0.000196263
0.000196237
0.000196233
0.000196267
0.000196271
0.000196181
0.000196218
0.000196237
0.000196304
0.000196304
0.000196241
0.000196263
0.000196241
0.000196233
0.000196237
0.000196315
0.000200555
0.000200577
0.000200573
0.000200558
0.000200577
0.000200558
0.000200555
0.000200547
0.000200626
0.00020057
0.00020057
0.000200529
0.000200544
0.000200618
0.000200588
0.000200648
0.000200592
0.000200562
0.000200585
0.000200648
0.000200663
0.000200637
0.000200577
0.000200681
0.000200745
0.000200622
0.000200622
0.000200592
0.000200707
0.00020067
0.000200711
0.000200633
0.00020064
0.000200693
0.000200722
0.000200629
0.000200689
0.000200663
0.000200696
0.000200726
0.000200745
0.000200715
0.000200711
0.000200696
0.000200752
0.000200711
0.000200745
0.000200771
0.00020076
0.000200786
0.000200782
0.000200722
0.000200775
0.000200693
0.000200693
0.000200786
0.000200827
0.000200782
0.000200793
0.000200763
0.00020083
0.00020076
0.000200793
0.000200823
0.000200775
0.000200842
0.000200879
0.000200823
0.000200819
0.000200797
0.000200812
0.000200827
0.000200834
0.000200912
0.000200868
0.000200853
0.000200935
0.000200912
0.000200871
0.000200808
0.000200856
0.000200856
0.000200968
0.000200856
0.000200927
0.000200953
0.000200886
0.000200909
0.000200998
0.000200912
0.000200931
0.000200901
0.00020095
0.000200987
0.000201017
0.000200994
0.000200931
0.000200953
0.000200965
0.000200972
0.000200998
0.000206236
0.000206295
0.000206225
0.00020628
0.000206165
0.000206329
0.000206292
0.000206333
0.000206247
0.000206333
0.000206348
0.000206295
0.000206314
0.000206318
0.000206377
0.000206292
0.000206422
0.000206314
0.000206348
0.000206359
0.000206325
0.000206321
0.000206351
0.000206385
0.000206325
0.000206333
0.000206377
0.000206288
0.000206362
0.000206377
0.000206422
0.000206448
0.000206422
0.000206381
0.00020643
0.000206403
0.000206415
0.000206418
0.000206444
0.000206467
0.000206523
0.00020643
0.000206467
0.000206504
0.000206474
0.000206422
0.000206482
0.000206493
0.00020653
0.000206452
0.000206459
0.000206534
0.000206485
0.000206545
0.0002065
0.000206534
0.000206575
0.000206567
0.000206504
0.000206579
0.000206593
0.000206586
0.000206526
0.000206538
0.000206545
0.000206623
0.000206541
0.000206601
0.000206646
0.000206571
0.000206608
0.000206571
0.000206627
0.000206646
0.000206646
0.000206646
0.000206649
0.000206679
0.000206713
0.000206646
0.000206672
0.000206687
0.000206653
0.000206698
0.000206683
0.00020675
0.000206675
0.000206728
0.000206761
0.000206735
0.000206731
0.000206798
0.000206739
0.000206742
0.000206798
0.000206716
0.00020675
0.000206754
0.000206787
0.000206787
0.000206795
0.000213098
0.000213094
0.000213154
0.000213139
0.000213161
0.000213131
0.000213183
0.000213075
0.000213202
0.000213277
0.000213172
0.00021321
0.000213202
0.000213217
0.000213236
0.000213277
0.000213232
0.000213277
0.000213299
0.000213232
0.000213273
0.000213221
0.000213213
0.000213251
0.000213243
0.000213191
0.000213344
0.000213277
0.000213314
0.000213332
0.000213291
0.000213258
0.000213291
0.000213295
0.000213291
0.000213299
0.000213336
0.000213329
0.000213291
0.000213366
0.000213362
0.000213418
0.000213403
0.000213429
0.000213433
0.000213373
0.000213336
0.000213411
0.000213444
0.000213433
0.000213478
0.000213441
0.000213381
0.000213485
0.000213508
0.000213463
0.000213567
0.000213481
0.000213504
0.00021353
0.0002135
0.000213426
0.00021356
0.000213515
0.000213515
0.00021359
0.000213604
0.000213567
0.000213545
0.00021353
0.00021353
0.000213616
0.000213619
0.000213612
0.000213675
0.000213657
0.000213567
0.00021359
0.000213567
0.000213627
0.000213616
0.000213694
0.000213675
0.000213586
0.000213686
0.00021366
0.000213679
0.000213698
0.000213671
0.000213664
0.000213679
0.000213735
0.000213712
0.000213735
0.000213768
0.000213709
0.000213772
0.000213798
0.000213768
0.00021372
0.000213843
0.000221167
0.000221223
0.000221215
0.000221346
0.000221279
0.000221323
0.000221256
0.000221238
0.000221252
0.000221264
0.000221279
0.000221293
0.000221331
0.000221279
0.000221316
0.000221331
0.00022136
0.000221364
0.000221383
0.000221398
0.000221401
0.00022142
0.000221394
0.00022142
0.000221431
0.000221431
0.00022142
0.000221431
0.000221457
0.00022145
0.00022148
0.000221469
0.000221547
0.000221472
0.000221502
0.000221483
0.000221457
0.000221513
0.000221495
0.000221536
0.000221509
0.000221528
0.000221547
0.000221543
0.000221599
0.000221584
0.000221644
0.000221603
0.000221632
0.00022158
0.000221632
0.000221577
0.000221569
0.000221569
0.000221644
0.000221681
0.000221662
0.00022161
0.00022167
0.000221647
0.000221688
0.000221658
0.000221722
0.000221696
0.000221711
0.000221744
0.000221711
0.000221755
0.000221785
0.000221778
0.000221774
0.000221759
0.000221793
0.000221759
0.000221755
0.000221841
0.000221834
0.000221744
0.000221778
0.00022183
0.000221875
0.000221889
0.000221875
0.000221837
0.000221875
0.000221942
0.000221938
0.000221904
0.000221953
0.000221953
0.000221938
0.000221968
0.000221942
0.000221994
0.000221934
0.000221957
0.000221994
0.00022205
0.000222038
0.00022202
0.000222016
0.000230659
0.000230733
0.000230655
0.0002307
0.0002307
0.000230681
0.000230696
0.000230726
0.000230744
0.000230759
0.000230785
0.000230759
0.000230689
0.000230748
0.000230737
0.000230823
0.0002308
0.000230845
0.000230856
0.000230834
0.000230879
0.000230853
0.000230823
0.000230912
0.00023089
0.000230949
0.000230905
0.000230923
0.000230901
0.000230905
0.000230987
0.000230875
0.000230987
0.000230946
0.000230912
0.000230975
0.000230972
0.000231046
0.000230912
0.000230987
0.000230994
0.000231031
0.000231072
0.000231016
0.000231054
0.000231117
0.000231061
0.000231076
0.000231139
0.000231106
0.000231132
0.000231199
0.000231136
0.000231162
0.000231076
0.000231154
0.00023118
0.00023121
0.000231184
0.000231158
0.000231192
0.000231203
0.000231292
0.000231206
0.0002313
0.000231255
0.000231244
0.000231326
0.000231262
0.000231292
0.000231318
0.000231355
0.000231344
0.00023137
0.000231277
0.000231382
0.000231385
0.000231393
0.000231445
0.000231378
0.000231437
0.000231415
0.000231501
0.000231404
0.000231478
0.000231434
0.000231493
0.000231493
0.000231456
0.000231422
0.000231508
0.000231534
0.000231512
0.000231545
0.000231534
0.000231568
0.000231504
0.00023162
0.000231571
0.000231616
0.000231586
0.000241425
0.000241425
0.000241391
0.000241354
0.00024144
0.000241466