/*--------------------------------*- C++ -*----------------------------------*\
| =========                 |                                                 |
| \\      /  F ield         | OpenFOAM: The Open Source CFD Toolbox           |
|  \\    /   O peration     | Version:  v2006                                 |
|   \\  /    A nd           | Website:  www.openfoam.com                      |
|    \\/     M anipulation  |                                                 |
\*---------------------------------------------------------------------------*/
FoamFile
{
    version     2.0;
    format      ascii;
    class       volScalarField;
    location    "0";
    object      f;
}
// * * * * * * * * * * * * * * * * * * * * * * * * * * * * * * * * * * * * * //

dimensions      [0 0 0 0 0 0 0];


internalField   nonuniform List<scalar> 
2500
(
-5.54647e-57
9.06743e-45
-1.5858e-38
4.33601e-34
-1.21156e-31
-4.28749e-29
4.28588e-27
-1.88394e-25
-9.80242e-25
3.38437e-23
2.25511e-22
-8.22355e-23
-8.56527e-21
-4.88682e-20
-9.93088e-20
-1.95664e-19
-4.45634e-19
-1.09593e-18
-9.48067e-19
-1.53232e-18
9.10314e-18
2.82427e-17
7.08156e-17
1.08709e-16
1.09496e-16
2.75477e-17
-1.00065e-17
1.35473e-16
2.31576e-16
1.97032e-17
-3.12883e-16
-2.85098e-16
1.17775e-16
1.80214e-16
3.12699e-18
-3.57532e-17
-1.05701e-17
1.7217e-18
2.85613e-18
1.65211e-18
7.45061e-19
3.04656e-19
1.19217e-19
4.52724e-20
1.65947e-20
5.80008e-21
1.90764e-21
5.82393e-22
1.62156e-22
1.26309e-23
-5.70192e-54
5.17235e-43
-4.65319e-37
5.52772e-33
-9.48568e-31
-3.9871e-28
3.22865e-26
-7.91459e-25
-3.5253e-24
1.06234e-22
6.79849e-22
-6.22766e-22
-2.33802e-20
-1.10989e-19
-1.99487e-19
-3.79275e-19
-8.83721e-19
-1.6064e-18
-5.44463e-19
-6.69958e-18
3.3593e-18
2.04936e-17
6.22935e-17
1.07858e-16
1.34047e-16
3.3321e-17
-6.54028e-17
5.05057e-17
2.41507e-16
1.40387e-16
-2.20728e-16
-3.3439e-16
4.91503e-17
1.92028e-16
1.04279e-17
-3.98255e-17
-1.13103e-17
1.87861e-18
2.65942e-18
1.37047e-18
5.58355e-19
2.12119e-19
7.98917e-20
3.00404e-20
1.10549e-20
3.885e-21
1.27749e-21
3.86081e-22
1.04843e-22
1.00439e-23
-1.0913e-51
2.14935e-41
-9.94683e-36
5.79108e-32
-5.86499e-30
-3.13848e-27
1.97242e-25
-3.1177e-24
-1.11473e-23
3.3033e-22
2.18775e-21
-3.29504e-21
-7.02027e-20
-2.71661e-19
-3.93889e-19
-6.50198e-19
-1.8396e-18
-3.12473e-18
6.56737e-19
-2.1904e-17
-5.33912e-18
1.9781e-17
7.90385e-17
1.5561e-16
2.35044e-16
8.38146e-17
-1.32571e-16
-3.9881e-17
3.53608e-16
3.35539e-16
-2.5077e-16
-5.83681e-16
-1.11759e-18
3.32344e-16
2.98775e-17
-7.19144e-17
-1.98527e-17
3.58315e-18
4.4254e-18
2.10122e-18
7.97994e-19
2.89508e-19
1.07517e-19
4.08125e-20
1.52857e-20
5.45522e-21
1.81036e-21
5.4807e-22
1.47733e-22
1.54101e-23
-1.51416e-49
7.84869e-40
-1.85573e-34
5.80532e-31
-3.4779e-29
-2.30339e-26
1.09716e-24
-1.27572e-23
-3.637e-23
1.02685e-21
7.69354e-21
-1.34972e-20
-2.17171e-19
-6.77832e-19
-6.71575e-19
-5.9087e-19
-3.08662e-18
-5.86085e-18
5.9333e-18
-6.44978e-17
-2.79056e-17
9.0655e-18
8.65879e-17
2.04116e-16
3.71834e-16
2.14254e-16
-2.07599e-16
-2.9854e-16
4.56332e-16
7.06751e-16
-2.17086e-16
-9.61297e-16
-1.51616e-16
5.62335e-16
7.76649e-17
-1.28898e-16
-3.43138e-17
7.00655e-18
7.35021e-18
3.15678e-18
1.09519e-18
3.74411e-19
1.37429e-19
5.33073e-20
2.05559e-20
7.50432e-21
2.52268e-21
7.66174e-22
2.04979e-22
2.29043e-23
-1.8319e-47
2.63836e-38
-3.15603e-33
5.60435e-30
-2.27009e-28
-1.58908e-25
5.75607e-24
-5.41896e-23
-1.53006e-22
3.03683e-21
2.96699e-20
-4.25402e-20
-6.78859e-19
-1.81141e-18
-1.01363e-18
1.23536e-18
-2.81221e-18
-9.72168e-18
2.38055e-17
-1.80064e-16
-7.15996e-17
-2.78012e-17
7.06342e-17
2.31478e-16
4.89459e-16
5.47259e-16
-2.5461e-16
-9.92774e-16
4.967e-16
1.43363e-15
-4.48447e-17
-1.49019e-15
-5.24134e-16
9.30198e-16
1.91582e-16
-2.30184e-16
-5.85782e-17
1.38981e-17
1.21755e-17
4.62643e-18
1.42239e-18
4.47937e-19
1.63578e-19
6.63324e-20
2.6815e-20
1.01101e-20
3.45701e-21
1.05469e-21
2.7993e-22
3.30508e-23
-2.03841e-45
8.31847e-37
-4.98421e-32
5.29208e-29
-2.014e-27
-1.0373e-24
2.94067e-23
-2.29492e-22
-8.68582e-22
7.29452e-21
1.20035e-19
-8.44916e-20
-2.0699e-18
-5.30854e-18
-1.73442e-18
8.41783e-18
6.35074e-18
-1.11494e-17
7.56223e-17
-4.95274e-16
-1.33605e-16
-1.5703e-16
1.33614e-17
1.94092e-16
7.42785e-16
1.58864e-15
-2.8468e-16
-3.75301e-15
4.02232e-16
3.91784e-15
4.29602e-16
-2.97891e-15
-1.44707e-15
1.50581e-15
4.61495e-16
-4.11666e-16
-9.92391e-17
2.77105e-17
2.0083e-17
6.56688e-18
1.70022e-18
4.70618e-19
1.74336e-19
7.75623e-20
3.38572e-20
1.33477e-20
4.66213e-21
1.42994e-21
3.7612e-22
4.63527e-23
-2.1306e-43
2.47915e-35
-7.38018e-31
5.04982e-28
-2.37321e-26
-6.46528e-24
1.51157e-22
-8.81746e-22
-5.30738e-21
4.12362e-21
4.77648e-19
8.30802e-20
-5.89751e-18
-1.6626e-17
-5.57493e-18
2.68458e-17
4.6221e-17
7.28372e-18
2.06625e-16
-1.4284e-15
-1.13344e-15
-7.4952e-16
-7.75259e-17
-2.01904e-17
3.67475e-14
5.22233e-15
-5.51301e-14
-1.66298e-14
1.5908e-16
1.82326e-14
1.5054e-15
-1.84187e-14
-3.85909e-15
3.07154e-15
1.13566e-15
-7.4432e-16
-1.68039e-16
5.51932e-17
3.29047e-17
8.91726e-18
1.75283e-18
3.7033e-19
1.50299e-19
8.33182e-20
4.13437e-20
1.73062e-20
6.19716e-21
1.91065e-21
4.97075e-22
6.32031e-23
-2.1108e-41
7.0003e-34
-1.03281e-29
5.13219e-27
-2.96896e-25
-3.91423e-23
7.99432e-22
-2.3943e-21
-2.94512e-20
-1.13296e-19
1.76054e-18
1.97066e-18
-1.48787e-17
-5.2172e-17
-2.69381e-17
5.89003e-17
1.66018e-16
1.1498e-16
4.80221e-16
-4.69385e-15
-2.21382e-14
-2.64187e-15
6.35493e-14
3.01529e-13
2.20244e-13
8.60036e-16
-5.12689e-13
-4.46603e-14
1.82642e-13
6.68414e-14
1.54401e-15
-9.22771e-14
-7.80429e-15
1.54195e-14
2.99567e-15
-1.38847e-15
-2.86964e-16
1.09529e-16
5.33664e-17
1.13166e-17
1.23684e-18
2.73562e-20
6.26961e-20
7.87725e-20
4.89626e-20
2.2138e-20
8.14145e-21
2.51889e-21
6.46101e-22
8.37618e-23
-1.98859e-39
1.87077e-32
-1.38473e-28
5.84445e-26
-3.44955e-24
-2.37692e-22
4.31508e-21
2.49421e-21
-1.38273e-19
-1.08315e-18
5.67998e-18
1.30758e-17
-3.00942e-17
-1.48642e-16
-1.29617e-16
8.74951e-17
6.28493e-16
6.48048e-16
8.31019e-16
-1.85809e-14
-9.69404e-14
1.21338e-13
2.38387e-12
2.85815e-12
5.0827e-13
-7.00701e-12
-1.77056e-12
9.13931e-14
1.43668e-12
1.27142e-13
-6.96294e-13
-3.12285e-13
-6.8119e-17
7.14982e-14
7.1729e-15
-2.81364e-15
-4.99205e-16
2.16781e-16
8.52577e-17
1.27403e-17
-4.64937e-19
-7.40587e-19
-1.25946e-19
5.9076e-20
5.68417e-20
2.81615e-20
1.06133e-20
3.28209e-21
8.26096e-22
1.07805e-22
-1.78138e-37
4.71451e-31
-1.83553e-27
7.48915e-25
-3.5565e-23
-1.51783e-21
2.25992e-20
1.0256e-19
-5.15925e-19
-7.14229e-18
1.49169e-17
6.55804e-17
-3.20486e-17
-3.59644e-16
-6.04386e-16
9.63262e-17
8.15663e-15
2.92363e-15
-2.00519e-13
-5.43924e-14
-1.83624e-13
5.09018e-12
1.01936e-11
9.29102e-12
-1.01062e-11
-3.93505e-11
-3.11364e-12
2.53821e-11
5.12664e-12
-8.94629e-13
-3.87066e-12
-7.15174e-13
4.26861e-13
2.34434e-13
1.08776e-14
-7.19403e-15
-8.84952e-16
4.29777e-16
1.33176e-16
1.0821e-17
-4.38853e-18
-2.18606e-18
-4.56002e-19
2.2121e-20
6.6349e-20
3.60379e-20
1.37998e-20
4.23613e-21
1.03943e-21
1.34561e-22
-1.51334e-35
1.11394e-29
-2.56681e-26
1.02655e-23
-3.172e-22
-1.06066e-20
1.0335e-19
9.65704e-19
-1.25551e-18
-4.05944e-17
2.78293e-17
3.06954e-16
1.22438e-16
-5.0999e-15
-2.3292e-15
9.53655e-14
3.66182e-14
-7.06037e-13
-1.26901e-12
1.18532e-12
3.79631e-11
2.19777e-11
1.84744e-11
1.723e-11
-5.51844e-10
-1.25732e-10
1.92867e-10
1.34884e-10
1.07595e-11
-2.21911e-11
-1.24716e-11
-9.60159e-13
2.04882e-12
5.57371e-13
-3.3987e-15
-2.41154e-14
-1.47307e-15
8.55067e-16
2.00752e-16
6.34762e-19
-1.21602e-17
-4.61681e-18
-9.55485e-19
-2.62386e-20
8.13892e-20
4.70271e-20
1.79954e-20
5.429e-21
1.28782e-21
1.62554e-22
-1.21274e-33
2.45177e-28
-4.13452e-25
1.41104e-22
-2.32771e-21
-8.0522e-20
3.01397e-19
6.29982e-18
9.66263e-19
-2.35302e-16
2.87074e-17
1.93914e-15
9.87601e-16
-6.37716e-14
7.10061e-13
8.37747e-13
-3.4154e-12
-6.68546e-12
-3.20793e-12
1.09765e-10
3.33783e-10
4.43624e-11
-9.42295e-10
-4.19227e-09
-2.74233e-09
-2.21625e-10
2.70097e-09
4.04706e-10
1.09393e-11
-9.54844e-11
-2.83181e-11
3.47814e-12
6.83813e-12
9.06021e-13
-1.6283e-13
-7.50566e-14
-1.77237e-15
1.66463e-15
2.84487e-16
-2.72808e-17
-2.61392e-17
-8.32974e-18
-1.60976e-18
-6.38707e-20
1.10184e-19
6.32922e-20
2.36409e-20
6.92319e-21
1.57213e-21
1.89497e-22
-9.08316e-32
5.02756e-27
-7.95675e-24
1.84973e-21
-1.16296e-20
-6.22812e-19
-9.9448e-19
2.97671e-17
3.73293e-17
-1.9418e-15
1.64045e-14
9.75248e-15
-3.9705e-13
-2.32898e-13
8.41888e-12
1.83163e-12
-1.15146e-10
-2.20061e-11
7.61243e-10
5.19507e-10
7.49145e-10
-8.0457e-09
-3.92291e-08
-3.73675e-08
-8.35575e-09
2.87249e-08
1.1436e-08
6.49837e-10
-2.31287e-10
-2.88226e-10
-3.9906e-11
4.00887e-11
1.84332e-11
8.4799e-13
-6.81467e-13
-1.83885e-13
7.09155e-16
3.30398e-15
3.63051e-16
-8.98277e-17
-4.93838e-17
-1.34501e-17
-2.31108e-18
-4.11236e-20
1.67254e-19
8.81612e-20
3.13411e-20
8.79366e-21
1.89177e-21
2.12271e-22
-6.25341e-30
9.97956e-26
-1.72073e-22
2.22751e-20
1.53253e-20
-4.43758e-18
-2.83308e-17
1.19109e-16
2.1275e-16
-8.49189e-15
1.70654e-13
-9.97462e-13
-3.28204e-12
3.47361e-11
2.60131e-11
-7.41943e-10
-4.00412e-10
7.07965e-09
4.88347e-09
1.0998e-09
-3.54329e-08
-1.13346e-07
-1.68222e-07
-1.24277e-07
-1.41792e-08
1.92723e-07
2.98432e-08
4.84078e-10
-1.54225e-09
-6.72554e-10
2.74042e-11
1.61561e-10
3.84432e-11
-2.53701e-12
-2.20262e-12
-3.47463e-13
1.31098e-14
7.35111e-15
3.89461e-16
-2.15342e-16
-8.50474e-17
-1.96173e-17
-2.78723e-18
1.31356e-19
2.74871e-19
1.26168e-19
4.18294e-20
1.11169e-20
2.24349e-21
2.27102e-22
-3.82717e-28
2.25485e-24
-3.81907e-21
2.37198e-19
1.49075e-18
-2.47693e-17
-3.74564e-16
8.1268e-15
-8.37435e-14
2.32969e-13
5.01756e-13
-1.19856e-11
-3.76334e-12
3.33682e-10
-2.72166e-09
-3.89007e-09
1.61008e-08
4.41989e-08
1.39979e-08
-4.83609e-07
-6.84727e-07
-4.471e-07
-3.74219e-07
-2.12878e-07
1.77027e-06
6.68003e-07
4.04368e-08
3.9798e-10
-6.36165e-09
-1.07535e-09
7.92357e-10
5.04601e-10
5.94179e-11
-1.17272e-11
-5.75437e-12
-5.29409e-13
3.95871e-14
1.67758e-14
2.59626e-16
-4.47883e-16
-1.34555e-16
-2.54791e-17
-2.52136e-18
5.90678e-19
4.62695e-19
1.82622e-19
5.58398e-20
1.39472e-20
2.61976e-21
2.30065e-22
-1.91732e-26
7.51425e-23
-8.18744e-20
2.10176e-18
2.82571e-17
-1.32859e-16
-2.16702e-15
6.39981e-14
-9.46125e-13
9.83816e-12
-5.17333e-11
-4.555e-11
1.18508e-09
1.00347e-09
-2.39604e-08
-1.02359e-09
3.47269e-07
1.19238e-07
-2.84704e-06
-4.68403e-06
-2.43238e-06
-8.41404e-07
-5.26887e-07
1.04343e-05
1.30042e-05
1.37184e-06
6.03663e-09
-3.40051e-08
-2.10953e-08
-5.20785e-10
3.11068e-09
1.26158e-09
6.47111e-11
-3.1346e-11
-1.19966e-11
-6.0459e-13
1.10096e-13
3.51097e-14
-4.33447e-16
-8.5015e-16
-1.93553e-16
-2.80592e-17
-6.97783e-19
1.51658e-18
7.63811e-19
2.6243e-19
7.38602e-20
1.72809e-20
3.00741e-21
2.18179e-22
-5.67468e-25
3.50518e-21
-1.64394e-18
1.33211e-17
4.79569e-16
-1.08654e-14
8.19964e-14
1.38683e-13
-2.33884e-12
3.48103e-11
-3.78801e-10
1.31017e-09
5.94567e-09
-4.92661e-08
-6.35928e-08
1.11874e-06
1.04252e-06
-9.31075e-06
-2.39049e-05
-1.78652e-05
-4.16931e-06
8.86002e-05
0.000354729
0.000261588
4.82967e-05
7.75031e-07
-1.38655e-07
-1.81928e-07
-5.43305e-08
8.47316e-09
9.06214e-09
2.5844e-09
-4.111e-12
-7.25897e-11
-2.08603e-11
-2.53922e-13
2.84092e-13
6.19142e-14
-2.70601e-15
-1.56848e-15
-2.46562e-16
-2.23025e-17
3.75874e-18
3.10075e-18
1.20545e-18
3.68061e-19
9.57822e-20
2.10156e-20
3.38875e-21
1.91385e-22
2.2971e-23
1.74676e-19
-3.15156e-17
1.25853e-16
3.09456e-15
-8.99191e-14
2.13612e-12
-2.08257e-11
1.40693e-10
-7.15598e-11
-8.85053e-10
1.19375e-08
6.63079e-09
-3.14017e-07
8.75251e-07
5.63376e-06
-4.28546e-06
-8.07784e-05
-7.9385e-05
-4.44725e-05
0.00159323
0.00359191
0.00298044
0.00111983
0.000108561
-1.19115e-06
-1.12655e-06
-6.37318e-07
-1.03948e-07
3.15033e-08
2.20508e-08
4.60239e-09
-1.64686e-10
-1.45809e-10
-3.08828e-11
7.80301e-13
6.6171e-13
8.4979e-14
-7.83665e-15
-2.79928e-15
-2.59047e-16
-1.30436e-18
1.19588e-17
5.47889e-18
1.79409e-18
4.96891e-19
1.20537e-19
2.49271e-20
3.74796e-21
1.5571e-22
5.20888e-21
7.88177e-18
-7.1637e-16
1.23255e-14
-8.68179e-14
-9.06548e-14
7.39952e-12
-1.29095e-10
1.27109e-09
-7.82383e-09
1.62986e-08
3.94758e-08
-6.21728e-07
-8.64387e-07
1.44849e-05
1.29553e-05
-0.000184674
-0.0002872
-7.47529e-05
0.00625491
0.0148731
0.0160595
0.00983953
0.00301229
0.000186688
-4.54446e-06
-4.10245e-06
-1.74474e-06
-1.49649e-07
7.90361e-08
4.50564e-08
6.95532e-09
-4.21502e-10
-2.56482e-10
-3.8501e-11
2.81715e-12
1.35129e-12
9.22243e-14
-1.79282e-14
-4.62334e-15
-1.71327e-16
4.16694e-17
2.45499e-17
8.62381e-18
2.49765e-18
6.38805e-19
1.45907e-19
2.86907e-20
4.08592e-21
1.27532e-22
4.79326e-19
1.3292e-16
-4.69958e-15
7.78579e-14
-1.17729e-12
1.46505e-11
-6.36353e-11
-2.4519e-10
2.99555e-09
-3.76618e-08
2.08095e-07
-8.52942e-09
-3.20193e-06
7.49333e-06
5.5897e-05
-0.000136445
-0.000769024
-0.000560361
0.0116082
0.0359951
0.0498372
0.0430208
0.0230596
0.00633929
0.000281859
-1.45518e-05
-1.14052e-05
-3.92178e-06
-1.54067e-07
1.64818e-07
7.90413e-08
8.62203e-09
-7.63622e-10
-3.99304e-10
-3.81647e-11
6.88998e-12
2.30919e-12
2.16777e-14
-4.1665e-14
-6.60318e-15
9.75772e-17
1.08979e-16
4.09074e-17
1.22343e-17
3.23312e-18
7.75643e-19
1.68751e-19
3.19769e-20
4.44345e-21
1.3813e-22
8.85643e-17
-2.27189e-15
3.46306e-14
-2.24807e-13
-2.56693e-12
7.7631e-11
-1.3667e-09
9.14001e-09
-2.69228e-08
-7.12083e-08
6.68436e-07
-3.74645e-06
-7.33521e-06
8.39616e-05
0.000102137
-0.00121265
-0.00164095
0.0112537
0.0563312
0.104204
0.116368
0.0888494
0.0437978
0.0111453
0.000360463
-3.78173e-05
-2.6425e-05
-7.46488e-06
8.69067e-09
3.10802e-07
1.20051e-07
8.62246e-09
-1.46324e-09
-5.73161e-10
-7.2892e-12
1.65021e-11
3.20937e-12
-1.55315e-13
-8.42344e-14
-6.92914e-15
4.823e-16
1.94366e-16
5.84417e-17
1.56954e-17
3.87191e-18
8.8422e-19
1.85842e-19
3.46228e-20
4.92716e-21
2.36598e-22
9.05159e-15
-1.23961e-13
1.56998e-12
-1.47175e-11
8.84918e-11
-4.0906e-11
-4.46092e-09
6.00987e-08
-3.94835e-07
1.58451e-06
4.7071e-07
-1.79974e-05
2.78671e-05
0.000288899
-0.000907149
-0.00393248
0.000525299
0.0584372
0.152415
0.222711
0.218575
0.1527
0.0703378
0.0166691
0.000360421
-8.61233e-05
-5.2906e-05
-1.19339e-05
4.43849e-07
5.30482e-07
1.59343e-07
3.0034e-09
-2.87159e-09
-6.87931e-10
5.97785e-11
3.51001e-11
3.22617e-12
-3.88724e-13
-1.33062e-13
-4.90527e-15
8.1902e-16
2.76023e-16
7.31093e-17
1.82171e-17
4.27361e-18
9.43696e-19
1.9523e-19
3.68293e-20
5.72381e-21
4.88068e-22
3.70347e-14
-4.32728e-13
5.06298e-12
-4.89123e-11
4.03508e-10
-3.24274e-09
4.98101e-09
1.2204e-07
-1.26562e-06
9.33254e-06
-2.72201e-05
-4.10479e-05
0.000339592
0.000441948
-0.00490868
-0.00795285
0.0334754
0.157474
0.311207
0.387747
0.348651
0.224772
0.0970054
0.02121
0.000176071
-0.000176984
-9.219e-05
-1.54886e-05
1.18882e-06
8.307e-07
1.76201e-07
-7.74134e-09
-5.47834e-09
-5.0567e-10
1.75164e-10
5.85013e-11
1.3844e-12
-7.20992e-13
-1.59419e-13
1.17475e-15
1.33041e-15
3.43765e-16
8.11757e-17
1.91291e-17
4.34241e-18
9.45392e-19
1.97633e-19
3.92743e-20
7.08307e-21
9.64192e-22
-4.15804e-13
3.29184e-12
-3.35807e-11
2.44278e-10
-3.5075e-10
-1.23941e-08
1.45205e-07
-6.52219e-07
-1.38516e-06
2.19634e-05
-0.000119993
3.70897e-05
0.0011326
-0.00157908
-0.0134417
-0.00683319
0.105268
0.317903
0.523319
0.579087
0.477247
0.285949
0.115204
0.0226117
-0.000208252
-0.00033268
-0.000136641
-1.54789e-05
2.09675e-06
1.12415e-06
1.30308e-07
-2.44649e-08
-8.64426e-09
8.8762e-11
3.48314e-10
6.86836e-11
-2.11917e-12
-1.287e-12
-1.29941e-13
6.73417e-15
2.10212e-15
3.71171e-16
7.95814e-17
1.81603e-17
4.08131e-18
9.00263e-19
1.9696e-19
4.30026e-20
9.25334e-21
1.72478e-21
-5.42576e-12
6.12294e-11
-7.27039e-10
5.92805e-09
-3.0816e-08
7.24571e-08
4.18317e-07
-4.05479e-06
1.41769e-05
2.16549e-05
-0.000294737
0.000690969
0.00208796
-0.00782149
-0.0248783
0.026921
0.226881
0.526444
0.750312
0.749776
0.571101
0.316321
0.117497
0.0188742
-0.000746517
-0.000564845
-0.000170581
-6.32504e-06
3.68347e-06
1.27819e-06
-1.10991e-08
-5.05804e-08
-9.33011e-09
1.2096e-09
6.11142e-10
5.25673e-11
-5.51205e-12
-1.84305e-12
-6.24725e-14
9.94723e-15
2.4193e-15
3.34322e-16
6.86141e-17
1.57203e-17
3.61883e-18
8.38427e-19
1.99138e-19
4.90153e-20
1.23745e-20
2.79404e-21
2.93968e-11
1.50588e-10
-1.98462e-09
1.67273e-08
-1.07071e-07
5.18742e-07
-7.23179e-07
-7.69066e-06
5.86965e-05
-0.000146435
-0.000394541
0.00230653
0.001884
-0.019899
-0.0287569
0.0867764
0.385275
0.74396
0.925023
0.859376
0.60051
0.306113
0.0974798
0.00968775
-0.00135279
-0.000817361
-0.00016908
8.44882e-06
6.28765e-06
9.03791e-07
-2.14895e-07
-8.97756e-08
-3.65883e-09
2.60069e-09
7.75536e-10
8.74498e-12
-9.71046e-12
-1.93679e-12
2.29347e-14
1.53571e-14
2.28696e-15
2.4209e-16
5.30549e-17
1.29287e-17
3.17539e-18
7.9679e-19
2.09059e-19
5.76458e-20
1.6365e-20
4.14047e-21
4.05093e-10
-1.14681e-09
5.88194e-09
-1.76459e-08
-5.97675e-08
1.07167e-06
-6.60174e-06
1.30249e-05
9.40791e-05
-0.000534911
0.000328334
0.0047506
-0.00447429
-0.0354326
-0.0146975
0.178106
0.549944
0.912449
1.01522
0.864705
0.546634
0.239365
0.0577897
-0.000512561
-0.0023284
-0.00092735
-6.84422e-05
2.439e-05
8.49188e-06
-8.70779e-08
-4.23008e-07
-9.81988e-08
6.36304e-09
4.43755e-09
6.21654e-10
-4.09707e-11
-1.58453e-11
-1.11609e-12
4.8161e-14
1.67275e-14
1.62154e-15
1.61335e-16
4.18059e-17
1.11768e-17
2.94959e-18
7.9614e-19
2.26715e-19
6.80271e-20
2.08702e-20
5.67254e-21
1.34116e-09
-7.4786e-09
7.26529e-08
-5.35482e-07
2.22325e-06
-4.24763e-06
-1.41046e-05
8.9662e-05
-6.35216e-05
-0.000934427
0.0023665
0.00576828
-0.0163592
-0.0469639
0.017048
0.281491
0.678015
0.984238
0.990964
0.753403
0.409857
0.14169
0.015442
-0.00644542
-0.0033606
-0.000633045
7.59927e-05
4.29056e-05
5.49893e-06
-1.55182e-06
-6.73128e-07
-4.80723e-08
1.71193e-08
6.1033e-09
2.79487e-10
-5.12299e-11
-1.59377e-11
-5.04085e-13
2.91389e-14
7.76719e-15
7.37431e-16
1.41857e-16
4.0618e-17
1.10923e-17
2.95701e-18
8.18804e-19
2.44975e-19
7.80945e-20
2.53374e-20
7.25876e-21
-2.51894e-08
7.63169e-09
1.46371e-07
-1.45961e-06
7.94432e-06
-2.49749e-05
1.4506e-05
0.000193241
-0.000598052
-0.000694194
0.00552844
0.00203254
-0.0325349
-0.0511598
0.0623394
0.368449
0.734549
0.923855
0.839268
0.54684
0.238714
0.0482182
-0.0121251
-0.00795042
-0.00262733
-1.13972e-05
0.000173339
5.31943e-05
-1.34213e-06
-2.66728e-06
-6.7893e-07
2.60289e-08
2.58458e-08
5.00216e-09
-1.12075e-10
-6.90878e-11
-1.10659e-11
-5.82849e-15
-2.94528e-14
-3.27332e-15
3.63908e-16
1.64773e-16
4.67233e-17
1.17803e-17
2.94774e-18
8.06875e-19
2.51893e-19
8.54419e-20
2.92298e-20
8.76776e-21
-1.64728e-07
1.92129e-07
-5.61409e-07
-2.42582e-07
1.09112e-05
-5.13416e-05
0.000118754
0.000170587
-0.00140166
0.00129543
0.00812441
-0.00697273
-0.0486321
-0.0457579
0.104587
0.410343
0.70452
0.759552
0.58459
0.309733
0.0871707
-0.0131722
-0.0171313
-0.00800506
-0.000683004
0.000641811
0.000262558
2.34963e-05
-8.47492e-06
-3.71149e-06
-3.22061e-07
7.9054e-08
3.33765e-08
2.8241e-09
-1.47071e-10
-5.93133e-11
-4.71544e-12
-5.81531e-13
-1.54984e-13
-5.93573e-15
7.71105e-16
2.35542e-16
5.2866e-17
1.12359e-17
2.52363e-18
6.95173e-19
2.38396e-19
8.88459e-20
3.22899e-20
1.01072e-20
-3.40167e-07
6.37322e-07
-3.21461e-06
1.09384e-05
-1.48589e-05
-5.43712e-05
0.000315026
-0.000406522
-0.001831
0.00497556
0.00882327
-0.0195485
-0.0612384
-0.0384316
0.125972
0.399128
0.555718
0.509411
0.321418
0.113413
-0.00979636
-0.0314341
-0.0161772
-0.00182022
0.00178929
0.000947092
0.000204904
-1.04641e-05
-1.01661e-05
-2.74436e-06
3.42742e-08
7.98831e-08
2.12533e-08
4.83199e-10
-4.09089e-11
-1.03126e-12
3.10156e-13
-9.03613e-13
-2.61179e-13
-3.47242e-15
1.39422e-15
2.79819e-16
4.53152e-17
7.26771e-18
1.41402e-18
4.67923e-19
2.07803e-19
8.95663e-20
3.46687e-20
1.12308e-20
6.70723e-07
7.27343e-07
-5.37747e-06
2.79159e-05
-8.73277e-05
7.87291e-05
0.000493806
-0.00166564
-0.000875628
0.00955016
0.00728537
-0.0308146
-0.0673056
-0.0340503
0.12243
0.298722
0.343243
0.256973
0.105392
-0.0127406
-0.0458745
-0.0250819
-0.0037173
0.00401788
0.00287781
0.000967038
5.44174e-05
-2.56786e-05
-1.09054e-05
-9.62427e-07
1.81588e-07
7.51639e-08
7.22028e-09
7.55064e-11
1.83208e-10
4.29614e-11
-9.40647e-13
-1.56803e-12
-2.64854e-13
1.0826e-14
2.52505e-15
2.10725e-16
1.52975e-17
-4.6071e-19
-1.82728e-19
2.05685e-19
1.79971e-19
9.11738e-20
3.67476e-20
1.20951e-20
5.42358e-06
-3.41362e-06
8.65647e-06
2.27703e-05
-0.000174884
0.000434085
0.00023102
-0.00310649
0.000899157
0.0134654
0.00521654
-0.0356824
-0.0663658
-0.0319132
0.0760821
0.155545
0.139068
0.0578213
-0.0290185
-0.0617939
-0.0392124
-0.00789484
0.00785221
0.00691527
0.00303219
0.000475933
-5.50381e-05
-2.46864e-05
-3.67808e-06
3.28956e-07
6.62677e-08
-1.3186e-08
-3.46684e-09
1.12651e-09
5.76927e-10
5.24381e-11
-5.50099e-12
-1.86729e-12
-2.45831e-14
2.17107e-14
2.54225e-15
-2.13548e-17
-3.22138e-17
-9.21125e-18
-1.49582e-18
7.21156e-20
1.8286e-19
9.71856e-20
3.86513e-20
1.25866e-20
9.17281e-06
-1.24022e-05
5.27828e-05
-7.42688e-05
-0.00018476
0.000980401
-0.000499158
-0.00433667
0.00283217
0.0155008
0.00490437
-0.031817
-0.052852
-0.0307762
0.0160077
0.027145
-0.00169606
-0.0510499
-0.0752315
-0.0539753
-0.0144262
0.0103377
0.0123951
0.00683358
0.00175812
1.87269e-05
-3.36208e-05
-1.0466e-05
2.25937e-07
1.34814e-08
-9.2949e-08
-4.2689e-08
-1.96927e-09
2.3715e-09
6.47453e-10
4.31737e-12
-6.04271e-12
-6.73706e-13
2.01197e-13
3.74637e-14
-6.67327e-16
-3.07135e-16
-7.11339e-17
-1.30668e-17
-1.47903e-18
2.18468e-19
2.31594e-19
1.07377e-19
3.97403e-20
1.24809e-20
-1.84256e-05
-1.38254e-05
0.000103934
-0.000268847
3.25138e-06
0.00151129
-0.00147109
-0.00524552
0.00368155
0.0154631
0.00740099
-0.0164965
-0.0306124
-0.0267946
-0.0241103
-0.0353288
-0.059206
-0.0749844
-0.0585465
-0.0193345
0.0110465
0.0176614
0.0114441
0.0038362
0.000372753
-8.20193e-05
-1.3979e-05
8.80824e-06
2.0127e-06
-4.79421e-07
-2.96371e-07
-4.50251e-08
7.77113e-09
3.0736e-09
2.42134e-10
-3.77252e-11
-7.13278e-12
8.70463e-13
2.72407e-13
5.10979e-15
-2.74208e-15
-4.58466e-16
-6.18852e-17
-7.06746e-18
3.02361e-19
6.30131e-19
3.06332e-19
1.15454e-19
3.85742e-20
1.15084e-20
-6.56436e-05
3.88125e-05
8.62065e-05
-0.00051203
0.000417743
0.00186458
-0.00251021
-0.00586323
0.0033065
0.0141854
0.0127213
0.00242914
-0.00737337
-0.0158348
-0.0276418
-0.0412312
-0.0523636
-0.0437693
-0.0158846
0.0114197
0.0205962
0.0145536
0.00564978
0.00081643
-0.000168009
1.26505e-05
3.62651e-05
1.02201e-05
-1.03706e-06
-9.95533e-07
-2.57038e-07
1.50441e-08
9.53992e-09
1.38787e-09
-2.13221e-10
-5.28079e-11
2.6974e-12
1.32081e-12
1.17472e-13
-2.70698e-14
-4.15861e-15
-1.32728e-16
3.42028e-18
6.28025e-18
2.85937e-18
1.05037e-18
3.51946e-19
1.11356e-19
3.36949e-20
9.54057e-21
-2.28473e-05
0.000162855
-2.41367e-05
-0.000625312
0.000948411
0.00165245
-0.00365783
-0.00602197
0.00266511
0.0133947
0.0169942
0.0147978
0.00800138
-0.00152878
-0.00889617
-0.0158044
-0.0159016
-0.00391499
0.0122968
0.0192208
0.013395
0.00518213
0.000494122
-0.000421582
3.74452e-05
0.000103174
3.89355e-05
2.16335e-06
-2.7837e-06
-1.07024e-06
-3.60068e-08
3.2435e-08
9.2135e-09
-5.83415e-10
-2.66526e-10
-2.40385e-11
5.74889e-12
1.1467e-12
-1.57027e-13
-3.50558e-14
-9.00746e-17
2.66458e-16
6.74802e-17
1.63029e-17
4.1689e-18
1.12372e-18
3.13503e-19
8.85865e-20
2.49454e-20
6.79629e-21
0.00022178
0.000372233
-0.000104178
-0.000542722
0.0010851
0.000425374
-0.00432463
-0.00400102
0.00392245
0.0127678
0.0166092
0.0152784
0.010739
0.0080084
0.0066612
0.00611156
0.00855129
0.0128925
0.0135735
0.00740887
0.000837334
-0.00205253
-0.0012763
-1.04771e-05
0.000270501
0.000140961
2.05723e-05
-6.76546e-06
-3.00661e-06
-2.84938e-07
1.08263e-07
3.11092e-08
-2.9424e-09
-1.42809e-09
-1.92658e-10
3.35476e-11
6.62005e-12
-7.64531e-13
-2.41618e-13
-7.2294e-15
2.85862e-15
4.80096e-16
7.25213e-17
1.36225e-17
2.91204e-18
7.04538e-19
1.86628e-19
5.14735e-20
1.42895e-20
3.88326e-21
0.000736564
0.000586509
-0.000341933
-0.000985768
-0.000244122
-0.00121903
-0.00205304
0.0014173
0.00693099
0.0099831
0.00882256
0.00575217
0.00438447
0.00648656
0.00934263
0.0105204
0.00949417
0.00569138
-0.000933045
-0.00584393
-0.00593143
-0.00288775
-0.000186201
0.000565517
0.000334797
7.11311e-05
-1.14607e-05
-6.10518e-06
-7.77549e-07
2.65645e-07
6.62641e-08
-1.01643e-08
-5.3109e-09
-8.54168e-10
1.53285e-10
3.74617e-11
-2.19736e-12
-1.07007e-12
-9.39821e-14
2.78676e-14
4.20354e-15
1.4081e-16
7.09584e-18
-1.57949e-19
-7.78818e-20
4.13164e-20
3.42995e-20
1.487e-20
5.10873e-21
1.55591e-21
-0.00198261
-0.00231356
-0.00295778
-0.00286313
-0.00136505
0.000765544
0.0043799
0.00807954
0.00781323
0.00368979
-0.000991114
-0.00371453
-0.00305749
0.000389085
0.00360849
0.00369296
0.000435815
-0.00542647
-0.00949052
-0.00836062
-0.00409903
-0.00025255
0.000972538
0.000609846
0.000158165
-1.57539e-05
-1.3247e-05
-2.90875e-06
6.40866e-07
2.1863e-07
-5.16572e-09
-1.76274e-08
-3.79307e-09
7.0653e-10
2.05029e-10
1.27917e-12
-5.72704e-12
-1.01076e-12
1.70608e-13
3.44989e-14
-4.79004e-16
-2.52805e-16
-5.89507e-17
-1.20476e-17
-2.30175e-18
-3.96318e-19
-5.73953e-20
-5.76932e-21
1.27681e-22
3.00198e-22
-0.00395033
-0.00341833
-0.00253016
2.67904e-05
0.00383753
0.00758252
0.0102034
0.00920255
0.00371473
-0.00189248
-0.00495126
-0.00523168
-0.00434332
-0.00237621
-0.000131304
2.35064e-05
-0.00294626
-0.00658132
-0.00636967
-0.00317913
0.000208057
0.00138856
0.000853121
0.0002107
-4.32056e-05
-3.28873e-05
-6.77894e-06
2.35557e-06
8.23294e-07
-2.23712e-09
-5.63999e-08
-1.11467e-08
2.98303e-09
9.47903e-10
2.63519e-11
-3.35059e-11
-6.51657e-12
8.65939e-13
2.03131e-13
-5.34619e-15
-2.75219e-15
-4.36679e-16
-6.68043e-17
-1.16066e-17
-2.06355e-18
-3.49167e-19
-5.23076e-20
-6.30004e-21
-4.39434e-22
5.38027e-23
0.00636154
0.00694326
0.00800733
0.00935471
0.0101409
0.00965148
0.00700604
0.00211846
-0.00186274
-0.00279006
-0.00166605
-0.00130593
-0.00191641
-0.00143272
0.000691611
0.0016288
0.000291781
-0.000785964
-0.000206528
0.00101834
0.00135285
0.000653986
5.00249e-05
-0.00014125
-6.85763e-05
-7.19064e-06
6.54003e-06
1.95084e-06
-1.29026e-07
-1.51217e-07
-2.57732e-08
8.39992e-09
2.7306e-09
-1.02007e-10
-1.73037e-10
-3.33367e-11
3.50639e-12
9.28583e-13
-3.77957e-14
-2.59924e-14
-3.69385e-15
-1.54144e-16
-1.19196e-17
-9.42196e-19
-7.45342e-20
3.24706e-21
7.66812e-21
3.6546e-21
1.18035e-21
3.07279e-22
0.00636298
0.00661329
0.00647745
0.00569699
0.00406092
0.00151839
-0.00120664
-0.00288188
-0.00242845
0.000392197
0.0019505
0.000803865
-0.0015153
-0.0013788
0.00131751
0.00342725
0.00331461
0.00237008
0.00149541
0.000714659
-8.80295e-05
-0.000414223
-0.000326739
-0.000116538
1.33302e-06
1.64514e-05
5.07307e-06
-1.25221e-07
-3.61033e-07
-6.94664e-08
1.86186e-08
5.22643e-09
-6.52303e-10
-5.92516e-10
-1.15982e-10
1.34859e-11
3.53309e-12
-1.15072e-13
-1.46415e-13
-2.72841e-14
5.52723e-16
1.47631e-16
3.54266e-17
7.42378e-18
1.38048e-18
2.48175e-19
4.7774e-20
1.0208e-20
2.28877e-21
5.08741e-22
0.00131569
0.00115009
0.00067742
-0.000191406
-0.00118205
-0.00225856
-0.00221256
-0.00113361
0.000350417
0.00179637
0.00143265
-0.00188839
-0.00490276
-0.00433697
-0.000776521
0.0021972
0.00249667
0.00135477
-6.19762e-05
-0.000833795
-0.000857917
-0.00048456
-0.000113255
3.83375e-05
3.43912e-05
1.00387e-05
-7.18197e-07
-1.03449e-06
-2.19257e-07
5.60607e-08
2.34879e-08
1.52251e-09
-1.07047e-09
-2.24407e-10
7.63117e-11
1.83605e-11
1.87818e-13
-6.30839e-13
-1.25849e-13
1.34909e-14
2.03016e-15
1.83306e-16
3.30873e-17
6.1739e-18
1.05632e-18
1.76628e-19
3.29205e-20
7.27814e-21
1.75398e-21
4.22825e-22
-0.00084472
-0.000991626
-0.00114769
-0.00123147
-0.00127269
-0.000816305
0.000424172
0.00091662
0.000532559
-0.00184467
-0.00463401
-0.00775175
-0.00954324
-0.0078286
-0.0034438
0.000144605
0.000735718
1.99479e-05
-0.000758528
-0.000769245
-0.000384747
-2.12768e-05
9.99183e-05
5.72141e-05
1.21723e-05
-3.53288e-06
-2.25148e-06
-4.26228e-07
1.3403e-07
5.09566e-08
1.58648e-09
-2.8218e-09
-2.33706e-10
3.37111e-10
9.92093e-11
2.94705e-12
-2.13365e-12
-3.74108e-13
9.7819e-14
2.12794e-14
7.41344e-16
-9.96539e-18
-3.19081e-18
-1.11286e-18
-3.3736e-19
-7.83371e-20
-1.27653e-20
-8.91526e-22
2.9167e-22
1.60605e-22
-0.000212033
-0.000210483
-0.000111786
0.000105893
0.00016802
0.000912763
0.00193337
0.000132274
-0.00725614
-0.014031
-0.0167913
-0.0163954
-0.0143051
-0.00996325
-0.00442455
-0.000494314
0.000430027
0.000153954
-7.31673e-05
-8.00393e-06
0.000125335
0.000133312
5.72963e-05
2.73122e-06
-1.02393e-05
-4.17216e-06
-2.80727e-07
3.44891e-07
6.30058e-08
-2.6892e-08
-1.43678e-08
-2.12864e-09
3.38334e-10
8.13379e-11
-2.57749e-11
-9.53778e-12
-8.56136e-13
3.33185e-13
8.39599e-14
1.98365e-16
-5.58237e-16
-1.41867e-16
-3.15229e-17
-6.75299e-18
-1.38119e-18
-2.63408e-19
-4.54718e-20
-6.83918e-21
-8.28726e-22
-5.83496e-23
0.000141334
0.000174471
0.000302704
0.000414114
-2.54701e-05
0.00131021
0.000594943
-0.0110252
-0.0296443
-0.0406229
-0.0387365
-0.0295619
-0.0195913
-0.0110194
-0.00429713
-0.000320462
0.000613098
0.00048212
0.000288108
0.000179693
9.23138e-05
1.06727e-05
-2.2553e-05
-1.75219e-05
-5.39967e-06
3.21815e-07
7.79409e-07
2.07744e-07
-2.38352e-08
-1.94633e-08
-4.92149e-09
-1.21568e-11
-1.40594e-10
-1.12954e-10
-3.75469e-11
-3.63532e-12
5.78681e-13
4.09848e-14
-3.6182e-14
-8.24325e-15
-7.89346e-16
-1.39003e-16
-3.13621e-17
-6.76587e-18
-1.37945e-18
-2.62951e-19
-4.62706e-20
-7.41262e-21
-1.05887e-21
-1.30707e-22
-0.000117018
-0.000141552
0.000103234
-0.0011308
-0.00542869
-0.00866677
-0.0183375
-0.0454537
-0.0766977
-0.0843352
-0.0684622
-0.0434779
-0.0232427
-0.0107994
-0.00364046
-0.000220643
0.000398114
0.00029471
0.000105316
-7.77769e-06
-4.695e-05
-3.97746e-05
-1.90817e-05
-2.61046e-06
2.19369e-06
1.18059e-06
2.18937e-07
-5.44075e-08
-1.91067e-08
1.9165e-09
4.8594e-09
1.4041e-09
8.56929e-11
-1.02996e-11
2.76904e-13
2.77113e-12
4.08756e-13
-4.66238e-14
-1.5901e-14
-2.49435e-15
-3.322e-16
-7.1049e-17
-1.65399e-17
-3.74463e-18
-7.97575e-19
-1.5725e-19
-2.84999e-20
-4.72947e-21
-7.14265e-22
-9.86676e-23
-0.00193296
-0.00630564
-0.0211148
-0.0540558
-0.0783697
-0.0756522
-0.0813629
-0.115769
-0.144748
-0.135416
-0.0942602
-0.0509531
-0.022894
-0.00885394
-0.00259415
-0.000176535
0.000138993
7.05882e-05
-2.13366e-05
-4.6449e-05
-3.09406e-05
-8.7503e-06