/*--------------------------------*- C++ -*----------------------------------*\
| =========                 |                                                 |
| \\      /  F ield         | OpenFOAM: The Open Source CFD Toolbox           |
|  \\    /   O peration     | Version:  v2006                                 |
|   \\  /    A nd           | Website:  www.openfoam.com                      |
|    \\/     M anipulation  |                                                 |
\*---------------------------------------------------------------------------*/
FoamFile
{
    version     2.0;
    format      ascii;
    class       volScalarField;
    location    "0";
    object      alpha.water;
}
// * * * * * * * * * * * * * * * * * * * * * * * * * * * * * * * * * * * * * //

dimensions      [0 0 0 0 0 0 0];


internalField   nonuniform List<scalar> 
67500
(
0.996865
0.996865
0.748722
0.106496
0.144577
0.240147
0.2463
0.290904
0.59155
0.795002
0.805531
0.805531
0.805531
0.770319
0.749213
0.74851
0.484891
0.537123
0.958871
0.999983
0.999983
0.992977
0.978648
0.991036
0.999393
1
1
1
1
1
1
1
1
1
1
1
1
1
1
1
1
1
1
1
1
1
1
1
1
1
1
1
1
1
1
1
1
1
1
1
1
1
1
1
1
1
1
1
1
1
1
1
1
1
1
1
1
1
1
1
1
1
1
1
1
1
1
1
1
1
1
1
1
1
1
1
1
1
1
1
1
1
1
1
1
1
1
1
1
1
1
1
1
1
1
1
1
1
1
1
1
1
1
1
1
1
1
1
1
1
1
1
1
1
1
1
1
1
1
1
1
1
1
1
1
1
1
1
1
1
1
1
1
1
1
1
1
1
1
1
1
1
1
1
1
1
1
1
1
1
1
1
1
1
1
1
1
1
1
1
1
1
1
1
1
1
1
1
1
1
1
1
1
1
1
1
1
1
1
1
1
1
1
1
1
1
1
1
1
1
1
1
1
1
1
1
1
1
1
1
1
1
1
1
1
1
1
1
1
1
1
1
1
1
1
1
1
1
1
1
1
1
1
1
1
1
1
1
1
1
1
1
1
1
1
1
1
1
1
1
1
1
1
1
1
1
1
1
1
1
1
1
1
1
1
1
1
1
1
1
1
1
1
1
1
1
1
1
1
1
1
1
1
1
1
1
1
1
1
1
1
1
1
1
1
1
1
1
1
1
1
1
1
1
1
1
1
1
1
1
1
1
1
1
1
1
1
1
1
1
1
1
1
1
1
1
1
1
1
1
1
1
1
1
1
1
1
1
1
1
1
1
1
1
1
1
1
1
1
1
1
1
1
1
1
1
1
1
1
1
1
1
1
1
1
1
1
1
1
1
1
1
1
1
1
1
1
1
1
1
1
1
1
1
1
1
1
1
1
1
1
1
1
1
1
1
1
1
1
1
1
1
1
1
1
1
1
1
1
1
1
1
1
1
1
1
1
1
1
1
1
1
1
1
1
1
1
1
1
1
1
1
1
1
1
1
1
1
1
1
0.996865
0.882322
0.0928194
0.0200094
0.0196914
0.087181
0.384642
0.419382
0.268208
0.254953
0.523236
0.759381
0.664656
0.331939
0.183607
0.138592
0.0932367
0.0931115
0.186564
0.364198
0.251998
0.183766
0.185176
0.707702
0.999744
1
1
1
1
1
1
1
1
1
1
1
1
1
1
1
1
1
1
1
1
1
1
1
1
1
1
1
1
1
1
1
1
1
1
1
1
1
1
1
1
1
1
1
1
1
1
1
1
1
1
1
1
1
1
1
1
1
1
1
1
1
1
1
1
1
1
1
1
1
1
1
1
1
1
1
1
1
1
1
1
1
1
1
1
1
1
1
1
1
1
1
1
1
1
1
1
1
1
1
1
1
1
1
1
1
1
1
1
1
1
1
1
1
1
1
1
1
1
1
1
1
1
1
1
1
1
1
1
1
1
1
1
1
1
1
1
1
1
1
1
1
1
1
1
1
1
1
1
1
1
1
1
1
1
1
1
1
1
1
1
1
1
1
1
1
1
1
1
1
1
1
1
1
1
1
1
1
1
1
1
1
1
1
1
1
1
1
1
1
1
1
1
1
1
1
1
1
1
1
1
1
1
1
1
1
1
1
1
1
1
1
1
1
1
1
1
1
1
1
1
1
1
1
1
1
1
1
1
1
1
1
1
1
1
1
1
1
1
1
1
1
1
1
1
1
1
1
1
1
1
1
1
1
1
1
1
1
1
1
1
1
1
1
1
1
1
1
1
1
1
1
1
1
1
1
1
1
1
1
1
1
1
1
1
1
1
1
1
1
1
1
1
1
1
1
1
1
1
1
1
1
1
1
1
1
1
1
1
1
1
1
1
1
1
1
1
1
1
1
1
1
1
1
1
1
1
1
1
1
1
1
1
1
1
1
1
1
1
1
1
1
1
1
1
1
1
1
1
1
1
1
1
1
1
1
1
1
1
1
1
1
1
1
1
1
1
1
1
1
1
1
1
1
1
1
1
1
1
1
1
1
1
1
1
1
1
1
1
1
1
1
1
1
1
1
1
1
1
1
1
1
1
1
1
1
1
1
1
1
1
1
1
1
1
1
1
1
1
1
1
1
1
1
1
1
0.996865
0.735222
0.128194
0.300287
0.333692
0.192434
0.000310319
0.0170418
8.69214e-23
1.08889e-21
-1.83132e-20
0.0239679
0.165128
0.307577
0.312261
0.291148
0.245663
0.172596
0.152453
0.152422
0.237321
0.745445
0.988624
1
1
1
1
1
1
1
0.993149
0.97703
0.968972
0.972809
0.974558
0.966758
0.954752
0.942049
0.928242
0.912287
0.893763
0.87304
0.851774
0.834753
0.828084
0.83068
0.840641
0.854937
0.869683
0.881841
0.890567
0.895575
0.896309
0.895601
0.895238
0.897261
0.903079
0.912592
0.92441
0.936628
0.947556
0.956128
0.962051
0.965767
0.968253
0.970681
0.97399
0.978506
0.983881
0.989342
0.994096
0.997601
0.999578
1
1
1
1
1
1
1
1
1
1
1
1
1
1
1
1
1
1
1
1
1
1
1
1
1
1
1
1
1
1
1
1
1
1
1
1
1
1
1
1
1
1
1
1
1
1
1
1
1
1
1
1
1
1
1
1
1
1
1
1
1
1
1
1
1
1
1
1
1
1
1
1
1
1
1
1
1
1
1
1
1
1
1
1
1
1
1
1
1
1
1
1
1
1
1
1
1
1
1
1
1
1
1
1
1
1
1
1
1
1
1
1
1
1
1
1
1
1
1
1
1
1
1
1
1
1
1
1
1
1
1
1
1
1
1
1
1
1
1
1
1
1
1
1
1
1
1
1
1
1
1
1
1
1
1
1
1
1
1
1
1
1
1
1
1
1
1
1
1
1
1
1
1
1
1
1
1
1
1
1
1
1
1
1
1
1
1
1
1
1
1
1
1
1
1
1
1
1
1
1
1
1
1
1
1
1
1
1
1
1
1
1
1
1
1
1
1
1
1
1
1
1
1
1
1
1
1
1
1
1
1
1
1
1
1
1
1
1
1
1
1
1
1
1
1
1
1
1
1
1
1
1
1
1
1
1
1
1
1
1
1
1
1
1
1
1
1
1
1
1
1
1
1
1
1
1
1
1
1
1
1
1
1
1
1
1
1
1
1
1
1
1
1
1
1
1
1
1
1
1
1
1
1
1
1
1
1
1
1
1
1
1
1
1
1
1
1
1
1
1
1
1
1
1
1
1
1
1
1
1
1
1
1
1
1
1
1
1
1
1
1
1
1
1
1
1
1
1
1
1
1
1
1
1
1
1
1
1
1
1
1
1
1
1
1
1
1
1
1
1
1
1
1
1
1
1
1
0.996865
0.712306
0.199182
0.197475
0.0161335
3.03773e-05
0.000306276
0.00015793
0.000171432
0.000288302
0.000141669
1.31896e-22
-9.05575e-23
-1.13924e-23
-2.73986e-25
0.0913026
0.451129
0.85619
0.915517
0.913686
0.970877
0.998774
0.998947
0.972481
0.967599
0.972776
0.92055
0.897842
0.975161
0.803113
0.442675
0.343527
0.500679
0.574488
0.370527
0.124063
0.0639535
0.0593375
0.0479839
0.0407436
0.0380594
0.0390728
0.043859
0.053418
0.0680293
0.0862566
0.104319
0.116822
0.121717
0.121085
0.118492
0.117215
0.118855
0.124286
0.134112
0.149113
0.170095
0.197299
0.229548
0.26348
0.293734
0.315336
0.327288
0.33361
0.340451
0.352745
0.373118
0.402224
0.439841
0.484713
0.534699
0.5891
0.64899
0.717265
0.773049
0.81575
0.855
0.889454
0.918387
0.941781
0.959899
0.973377
0.983061
0.989831
0.994462
0.997507
0.999296
0.999982
1
1
1
1
1
1
1
1
1
1
1
1
1
1
1
1
1
1
1
1
1
1
1
1
1
1
1
1
1
1
1
1
1
1
1
1
1
1
1
1
1
1
1
1
1
1
1
1
1
1
1
1
1
1
1
1
1
1
1
1
1
1
1
1
1
1
1
1
1
1
1
1
1
1
1
1
1
1
1
1
1
1
1
1
1
1
1
1
1
1
1
1
1
1
1
1
1
1
1
1
1
1
1
1
1
1
1
1
1
1
1
1
1
1
1
1
1
1
1
1
1
1
1
1
1
1
1
1
1
1
1
1
1
1
1
1
1
1
1
1
1
1
1
1
1
1
1
1
1
1
1
1
1
1
1
1
1
1
1
1
1
1
1
1
1
1
1
1
1
1
1
1
1
1
1
1
1
1
1
1
1
1
1
1
1
1
1
1
1
1
1
1
1
1
1
1
1
1
1
1
1
1
1
1
1
1
1
1
1
1
1
1
1
1
1
1
1
1
1
1
1
1
1
1
1
1
1
1
1
1
1
1
1
1
1
1
1
1
1
1
1
1
1
1
1
1
1
1
1
1
1
1
1
1
1
1
1
1
1
1
1
1
1
1
1
1
1
1
1
1
1
1
1
1
1
1
1
1
1
1
1
1
1
1
1
1
1
1
1
1
1
1
1
1
1
1
1
1
1
1
1
1
1
1
1
1
1
1
1
1
1
1
1
1
1
1
1
1
1
1
1
1
1
1
1
1
1
1
1
1
1
1
1
1
1
1
1
1
1
1
1
1
1
1
1
1
1
1
1
1
1
1
1
1
1
1
1
1
1
1
1
1
0.975167
0.650169
0.00995814
0.0366725
3.41177e-07
2.81545e-05
4.459e-05
0.000326011
0.000511635
0.000447499
8.21979e-05
-1.01158e-22
0.000104486
3.12042e-06
1.80395e-23
0.000134401
1.49641e-19
4.53771e-20
0.693277
1
1
1
0.0135407
1.85864e-15
0
0.0162471
0.0425124
0.0815458
0.115892
0.0542277
-1.63678e-19
-3.04815e-35
-5.6849e-20
0.0130638
0.00714367
9.61736e-20
1.13233e-20
2.97024e-35
5.05236e-36
5.60105e-36
-1.22997e-35
5.47614e-37
-8.38667e-37
-3.88373e-36
-3.83628e-37
-1.54398e-36
1.67616e-36
-1.46172e-36
2.34722e-40
-4.87561e-37
-5.07564e-37
7.59627e-39
-1.6071e-37
6.71561e-39
-4.5201e-38
0
-4.53852e-38
0
-1.57824e-21
-3.08286e-21
-4.2346e-21
-4.73864e-21
-4.3305e-21
-3.15814e-21
-2.06565e-21
-1.71371e-21
-1.81194e-21
-1.74468e-21
-1.32593e-21
-7.60017e-22
-6.54188e-22
-6.44235e-22
-1.49007e-22
-6.1938e-22
0.0224913
0.0600382
0.104154
0.153994
0.208627
0.265741
0.323022
0.37911
0.432678
0.483677
0.533126
0.58193
0.631847
0.68489
0.744236
0.789431
0.826822
0.863495
0.896714
0.925729
0.950749
0.97142
0.986838
0.996314
0.999871
1
1
1
1
1
1
1
1
1
1
1
1
1
1
1
1
1
1
1
1
1
1
1
1
1
1
1
1
1
1
1
1
1
1
1
1
1
1
1
1
1
1
1
1
1
1
1
1
1
1
1
1
1
1
1
1
1
1
1
1
1
1
1
1
1
1
1
1
1
1
1
1
1
1
1
1
1
1
1
1
1
1
1
1
1
1
1
1
1
1
1
1
1
1
1
1
1
1
1
1
1
1
1
1
1
1
1
1
1
1
1
1
1
1
1
1
1
1
1
1
1
1
1
1
1
1
1
1
1
1
1
1
1
1
1
1
1
1
1
1
1
1
1
1
1
1
1
1
1
1
1
1
1
1
1
1
1
1
1
1
1
1
1
1
1
1
1
1
1
1
1
1
1
1
1
1
1
1
1
1
1
1
1
1
1
1
1
1
1
1
1
1
1
1
1
1
1
1
1
1
1
1
1
1
1
1
1
1
1
1
1
1
1
1
1
1
1
1
1
1
1
1
1
1
1
1
1
1
1
1
1
1
1
1
1
1
1
1
1
1
1
1
1
1
1
1
1
1
1
1
1
1
1
1
1
1
1
1
1
1
1
1
1
1
1
1
1
1
1
1
1
1
1
1
1
1
1
1
1
1
1
1
1
1
1
1
1
1
1
1
1
1
1
1
1
1
1
1
1
1
1
1
1
1
1
1
1
1
1
1
1
1
1
1
1
1
1
1
1
1
1
1
1
1
1
1
1
1
1
1
1
1
1
1
1
1
1
1
1
1
1
1
1
1
1
1
1
1
1
1
1
0.895854
0.431764
2.4495e-20
-1.58922e-19
3.27156e-07
3.41177e-07
0.000135621
0.000448146
0.00029915
3.34258e-24
2.69523e-24
-5.81138e-22
0.000784821
0.00594597
-5.93253e-23
-7.85097e-22
0.0138818
0.612626
0.798256
0.652944
0.154561
0.104246
1.85864e-15
1.71575e-15
-1.50619e-31
-3.53506e-21
1.61593e-20
-1.63222e-20
-4.83184e-21
1.12267e-21
4.49982e-17
1.535e-16
1.27692e-16
4.0558e-18
4.00491e-18
3.94394e-18
1.28994e-17
2.35806e-17
2.31727e-17
1.84576e-17
1.34404e-17
9.38408e-18
6.4049e-18
4.31138e-18
2.88122e-18
1.9287e-18
1.30857e-18
9.07238e-19
6.43233e-19
4.63716e-19
3.36747e-19
2.43895e-19
1.74647e-19
1.22753e-19
8.42391e-20
5.61842e-20
3.61911e-20
2.22141e-20
1.25586e-20
5.85334e-21
1.10541e-21
-2.11032e-21
-3.8644e-21
-4.66883e-21
-5.10406e-21
-5.40733e-21
-5.74604e-21
-6.41663e-21
-7.36669e-21
-8.1489e-21
-8.70078e-21
-9.33289e-21
-1.00514e-20
-1.11619e-20
-1.25066e-20
-1.35503e-20
-1.3646e-20
-1.2841e-20
-1.20128e-20
-1.13427e-20
-1.00919e-20
-8.57366e-21
-8.01788e-21
-6.34606e-21
-6.22544e-21
-1.03616e-20
-8.57874e-22
-5.4756e-21
-4.66773e-19
0.02149
0.05665
0.0982777
0.145239
0.200098
0.268946
0.355462
0.455842
0.56308
0.672664
0.783888
0.859601
0.910159
0.949718
0.977462
0.993624
0.999713
1
1
1
1
1
1
1
1
1
1
1
1
1
1
1
1
1
1
1
1
1
1
1
1
1
1
1
1
1
1
1
1
1
1
1
1
1
1
1
1
1
1
1
1
1
1
1
1
1
1
1
1
1
1
1
1
1
1
1
1
1
1
1
1
1
1
1
1
1
1
1
1
1
1
1
1
1
1
1
1
1
1
1
1
1
1
1
1
1
1
1
1
1
1
1
1
1
1
1
1
1
1
1
1
1
1
1
1
1
1
1
1
1
1
1
1
1
1
1
1
1
1
1
1
1
1
1
1
1
1
1
1
1
1
1
1
1
1
1
1
1
1
1
1
1
1
1
1
1
1
1
1
1
1
1
1
1
1
1
1
1
1
1
1
1
1
1
1
1
1
1
1
1
1
1
1
1
1
1
1
1
1
1
1
1
1
1
1
1
1
1
1
1
1
1
1
1
1
1
1
1
1
1
1
1
1
1
1
1
1
1
1
1
1
1
1
1
1
1
1
1
1
1
1
1
1
1
1
1
1
1
1
1
1
1
1
1
1
1
1
1
1
1
1
1
1
1
1
1
1
1
1
1
1
1
1
1
1
1
1
1
1
1
1
1
1
1
1
1
1
1
1
1
1
1
1
1
1
1
1
1
1
1
1
1
1
1
1
1
1
1
1
1
1
1
1
1
1
1
1
1
1
1
1
1
1
1
1
1
1
1
1
1
1
1
1
1
1
1
1
1
1
1
1
1
1
1
1
1
1
1
1
1
1
1
1
1
1
1
1
1
1
1
1
0.826803
0.266343
4.26167e-27
3.18425e-09
4.60858e-08
1.19725e-06
3.66077e-05
4.57919e-05
5.85341e-08
3.43374e-07
3.45281e-07
-1.63595e-21
0.000733117
0.135725
0.328184
0.328827
0.329048
0.156687
0.000128479
5.67565e-20
4.35442e-20
-3.1054e-19
2.78034e-12
2.28639e-12
2.30518e-13
-4.33648e-34
1.82058e-16
2.62006e-16
1.69942e-16
1.14522e-16
3.13978e-16
4.0138e-16
4.33893e-16
2.95789e-16
1.69131e-16
1.30775e-16
1.18122e-16
1.02934e-16
8.21159e-17
6.05318e-17
4.26129e-17
2.94326e-17
2.02423e-17
1.39598e-17
9.68899e-18
6.78421e-18
4.79985e-18
3.43263e-18
2.47915e-18
1.80451e-18
1.31975e-18
9.6636e-19
7.05936e-19
5.12983e-19
3.70069e-19
2.64718e-19
1.87608e-19
1.31608e-19
9.12618e-20
6.24182e-20
4.19386e-20
2.74684e-20
1.7272e-20
1.00983e-20
5.06007e-21
1.52861e-21
-9.42908e-22
-2.68386e-21
-3.95771e-21
-4.99685e-21
-6.02402e-21
-7.22091e-21
-8.63368e-21
-1.02229e-20
-1.21867e-20
-1.50039e-20
-1.86771e-20
-2.22057e-20
-2.48445e-20
-2.69156e-20
-2.83799e-20
-2.84046e-20
-2.66814e-20
-2.39392e-20
-2.03974e-20
-1.61521e-20
-1.14207e-20
-6.1977e-21
-1.46126e-21
-2.07304e-38
-1.82769e-37
-3.69705e-37
3.51572e-37
3.41428e-37
3.29348e-37
0
2.05584e-36
-1.76886e-36
-1.0795e-36
-3.2155e-52
0.0466787
0.133859
0.246307
0.378115
0.518649
0.657709
0.790619
0.890139
0.945026
0.978762
0.996069
1
1
1
1
1
1
1
1
1
1
1
1
1
1
1
1
1
1
1
1
1
1
1
1
1
1
1
1
1
1
1
1
1
1
1
1
1
1
1
1
1
1
1
1
1
1
1
1
1
1
1
1
1
1
1
1
1
1
1
1
1
1
1
1
1
1
1
1
1
1
1
1
1
1
1
1
1
1
1
1
1
1
1
1
1
1
1
1
1
1
1
1
1
1
1
1
1
1
1
1
1
1
1
1
1
1
1
1
1
1
1
1
1
1
1
1
1
1
1
1
1
1
1
1
1
1
1
1
1
1
1
1
1
1
1
1
1
1
1
1
1
1
1
1
1
1
1
1
1
1
1
1
1
1
1
1
1
1
1
1
1
1
1
1
1
1
1
1
1
1
1
1
1
1
1
1
1
1
1
1
1
1
1
1
1
1
1
1
1
1
1
1
1
1
1
1
1
1
1
1
1
1
1
1
1
1
1
1
1
1
1
1
1
1
1
1
1
1
1
1
1
1
1
1
1
1
1
1
1
1
1
1
1
1
1
1
1
1
1
1
1
1
1
1
1
1
1
1
1
1
1
1
1
1
1
1
1
1
1
1
1
1
1
1
1
1
1
1
1
1
1
1
1
1
1
1
1
1
1
1
1
1
1
1
1
1
1
1
1
1
1
1
1
1
1
1
1
1
1
1
1
1
1
1
1
1
1
1
1
1
1
1
1
1
1
1
1
1
1
1
1
1
1
1
1
1
1
1
1
1
1
1
1
1
1
1
1
1
1
0.793334
0.19568
-2.44773e-21
1.68188e-28
8.45517e-25
1.74626e-07
1.28463e-06
4.2456e-08
4.3556e-07
1.33979e-06
4.34944e-07
1.61647e-20
0.00263347
0.0483175
0.112148
0.105808
0.0133832
1.76486e-20
1.19865e-22
1.55692e-12
3.55252e-12
6.48976e-12
8.21107e-12
7.40192e-12
1.69098e-12
-8.34012e-32
8.96201e-14
7.99848e-14
8.66646e-15
2.31598e-15
4.83172e-16
6.4264e-16
1.01227e-15
8.3577e-16
5.86727e-16
4.24771e-16
3.18526e-16
2.37186e-16
1.69636e-16
1.16084e-16
7.73458e-17
5.1162e-17
3.40517e-17
2.29861e-17
1.58002e-17
1.1072e-17
7.90315e-18
5.73317e-18
4.21242e-18
3.12239e-18
2.32532e-18
1.73315e-18
1.28859e-18
9.53215e-19
7.00187e-19
5.09998e-19
3.67956e-19
2.62758e-19
1.85625e-19
1.29705e-19
8.96341e-20
6.12275e-20
4.12745e-20
2.73626e-20
1.77148e-20
1.10438e-20
6.43543e-21
3.24969e-21
1.03952e-21
-5.08564e-22
-1.61653e-21
-2.44491e-21
-3.11324e-21
-3.71302e-21
-4.3125e-21
-4.96461e-21
-5.74043e-21
-6.75926e-21
-8.19265e-21
-1.02316e-20
-1.29927e-20
-1.6419e-20
-2.02158e-20
-2.38861e-20
-2.67745e-20
-2.81467e-20
-2.7188e-20
-2.25348e-20
-1.17667e-20
8.16548e-21
4.69104e-20
1.21643e-19
2.59653e-19
4.92787e-19
8.41578e-19
1.32948e-18
1.83766e-18
2.22507e-18
1.90127e-18
3.89921e-19
-3.98481e-35
-3.85618e-17
-8.75319e-17
-9.09716e-17
-6.2023e-17
-2.89154e-17
-3.90761e-18
0.0489743
0.195196
0.37735
0.553119
0.710875
0.854664
0.941041
0.981965
0.998182
1
1
1
1
1
1
1
1
1
1
1
1
1
1
1
1
1
1
1
1
1
1
1
1
1
1
1
1
1
1
1
1
1
1
1
1
1
1
1
1
1
1
1
1
1
1
1
1
1
1
1
1
1
1
1
1
1
1
1
1
1
1
1
1
1
1
1
1
1
1
1
1
1
1
1
1
1
1
1
1
1
1
1
1
1
1
1
1
1
1
1
1
1
1
1
1
1
1
1
1
1
1
1
1
1
1
1
1
1
1
1
1
1
1
1
1
1
1
1
1
1
1
1
1
1
1
1
1
1
1
1
1
1
1
1
1
1
1
1
1
1
1
1
1
1
1
1
1
1
1
1
1
1
1
1
1
1
1
1
1
1
1
1
1
1
1
1
1
1
1
1
1
1
1
1
1
1
1
1
1
1
1
1
1
1
1
1
1
1
1
1
1
1
1
1
1
1
1
1
1
1
1
1
1
1
1
1
1
1
1
1
1
1
1
1
1
1
1
1
1
1
1
1
1
1
1
1
1
1
1
1
1
1
1
1
1
1
1
1
1
1
1
1
1
1
1
1
1
1
1
1
1
1
1
1
1
1
1
1
1
1
1
1
1
1
1
1
1
1
1
1
1
1
1
1
1
1
1
1
1
1
1
1
1
1
1
1
1
1
1
1
1
1
1
1
1
1
1
1
1
1
1
1
1
1
1
1
1
1
1
1
1
1
1
1
1
1
1
1
1
1
1
1
1
1
1
1
1
1
1
1
1
1
1
0.607558
0.150168
-1.12492e-25
4.1546e-07
4.96494e-06
5.94594e-24
2.64193e-24
5.24891e-08
1.21644e-06
1.28702e-06
3.54173e-08
2.89103e-23
2.0321e-22
2.00541e-22
-2.34497e-21
4.0304e-05
-7.99854e-21
-2.60039e-21
-5.69828e-30
6.80783e-13
1.78884e-12
3.7692e-12
7.84011e-12
6.70284e-12
2.2794e-12
1.61251e-14
1.08146e-12
8.73799e-13
4.66819e-13
2.64621e-13
1.06867e-13
1.51376e-14
2.62508e-15
1.74809e-15
1.30928e-15
9.74917e-16
7.17027e-16
5.13638e-16
3.5535e-16
2.38218e-16
1.5689e-16
1.03166e-16
6.86273e-17
4.65664e-17
3.23368e-17
2.29641e-17
1.66266e-17
1.22255e-17
9.09407e-18
6.81931e-18
5.13849e-18
3.87949e-18
2.92658e-18
2.20015e-18
1.64427e-18
1.21885e-18
8.94435e-19
6.48804e-19
4.64735e-19
3.28561e-19
2.29265e-19
1.5793e-19
1.07421e-19
7.21412e-20
4.78051e-20
3.12036e-20
1.99889e-20
1.24788e-20
7.48546e-21
4.17991e-21
1.98997e-21
5.2551e-22
-4.7526e-22
-1.18491e-21
-1.71553e-21
-2.14068e-21
-2.51211e-21
-2.86998e-21
-3.25038e-21
-3.69426e-21
-4.25546e-21
-5.00715e-21
-6.0433e-21
-7.46938e-21
-9.373e-21
-1.17545e-20
-1.43563e-20
-1.61743e-20
-1.42246e-20
-8.85894e-22
4.0924e-20
1.45919e-19
3.8092e-19
8.67115e-19
1.80525e-18
3.4961e-18
6.23024e-18
1.00752e-17
1.45306e-17
1.84976e-17
2.36647e-17
7.93981e-19
-8.10275e-17
-1.57823e-16
-1.64878e-16
-1.14771e-16
-5.63266e-17
-2.03708e-17
-4.91361e-18
-2.23721e-19
3.69732e-28
2.3358e-27
0
0.130824
0.373318
0.588614
0.75572
0.898237
0.971072
0.997209
1
1
1
1
1
1
1
1
1
1
1
1
1
1
1
1
1
1
1
1
1
1
1
1
1
1
1
1
1
1
1
1
1
1
1
1
1
1
1
1
1
1
1
1
1
1
1
1
1
1
1
1
1
1
1
1
1
1
1
1
1
1
1
1
1
1
1
1
1
1
1
1
1
1
1
1
1
1
1
1
1
1
1
1
1
1
1
1
1
1
1
1
1
1
1
1
1
1
1
1
1
1
1
1
1
1
1
1
1
1
1
1
1
1
1
1
1
1
1
1
1
1
1
1
1
1
1
1
1
1
1
1
1
1
1
1
1
1
1
1
1
1
1
1
1
1
1
1
1
1
1
1
1
1
1
1
1
1
1
1
1
1
1
1
1
1
1
1
1
1
1
1
1
1
1
1
1
1
1
1
1
1
1
1
1
1
1
1
1
1
1
1
1
1
1
1
1
1
1
1
1
1
1
1
1
1
1
1
1
1
1
1
1
1
1
1
1
1
1
1
1
1
1
1
1
1
1
1
1
1
1
1
1
1
1
1
1
1
1
1
1
1
1
1
1
1
1
1
1
1
1
1
1
1
1
1
1
1
1
1
1
1
1
1
1
1
1
1
1
1
1
1
1
1
1
1
1
1
1
1
1
1
1
1
1
1
1
1
1
1
1
1
1
1
1
1
1
1
1
1
1
1
1
1
1
1
1
1
1
1
1
1
1
1
1
1
1
1
1
1
1
1
1
1
1
1
1
1
1
1
0.370412
0.0884214
3.02021e-24
1.1601e-05
4.28727e-05
2.83165e-05
6.25296e-24
2.34789e-09
1.56068e-08
6.97986e-28
1.1941e-24
4.23256e-23
7.34437e-05
0.000786687
0.000773063
0.000702099
2.49291e-06
5.42876e-05
6.40328e-05
5.3304e-22
3.50725e-22
2.93081e-22
2.30791e-12
2.24615e-12
3.41731e-13
1.57942e-12
1.70212e-12
1.68354e-12
1.39958e-12
1.10624e-12
7.30613e-13
2.98727e-13
4.02352e-14
2.30744e-15
1.81177e-15
1.59183e-15
1.28277e-15
9.39706e-16
6.47189e-16
4.29408e-16
2.80525e-16
1.83939e-16
1.22833e-16
8.42258e-17
5.93895e-17
4.29178e-17
3.16177e-17
2.36283e-17
1.78443e-17
1.35826e-17
1.04005e-17
7.99788e-18
6.16348e-18
4.74658e-18
3.64045e-18
2.77076e-18
2.08596e-18
1.54939e-18
1.13347e-18
8.15912e-19
5.77771e-19
4.0258e-19
2.76161e-19
1.86624e-19
1.24316e-19
8.16618e-20
5.28989e-20
3.37722e-20
2.12145e-20
1.30618e-20
7.81769e-21
4.46721e-21
2.33465e-21
9.77018e-22
1.05931e-22
-4.6673e-22
-8.63682e-22
-1.16372e-21
-1.4168e-21
-1.65609e-21
-1.90712e-21
-2.19507e-21
-2.55082e-21
-3.0144e-21
-3.62847e-21
-4.39386e-21
-5.10257e-21
-4.82265e-21
-5.42104e-22
1.59098e-20
6.40283e-20
1.86235e-19
4.69302e-19
1.08244e-18
2.34143e-18
4.80051e-18
9.32421e-18
1.70099e-17
2.88401e-17
4.50986e-17
6.48667e-17
8.1761e-17
8.07016e-17
5.18241e-17
1.11535e-17
-1.24269e-17
-9.84879e-18
1.52203e-18
2.89926e-18
-8.80679e-35
2.40301e-10
9.70225e-10
2.85463e-26
1.91093e-26
2.12313e-28
-2.17037e-26
-3.94908e-27
0.0099845
0.246783
0.537681
0.737903
0.889612
0.975365
0.999314
1
1
1
1
1
1
1
1
1
1
1
1
1
1
1
1
1
1
1
1
1
1
1
1
1
1
1
1
1
1
1
1
1
1
1
1
1
1
1
1
1
1
1
1
1
1
1
1
1
1
1
1
1
1
1
1
1
1
1
1
1
1
1
1
1
1
1
1
1
1
1
1
1
1
1
1
1
1
1
1
1
1
1
1
1
1
1
1
1
1
1
1
1
1
1
1
1
1
1
1
1
1
1
1
1
1
1
1
1
1
1
1
1
1
1
1
1
1
1
1
1
1
1
1
1
1
1
1
1
1
1
1
1
1
1
1
1
1
1
1
1
1
1
1
1
1
1
1
1
1
1
1
1
1
1
1
1
1
1
1
1
1
1
1
1
1
1
1
1
1
1
1
1
1
1
1
1
1
1
1
1
1
1
1
1
1
1
1
1
1
1
1
1
1
1
1
1
1
1
1
1
1
1
1
1
1
1
1
1
1
1
1
1
1
1
1
1
1
1
1
1
1
1
1
1
1
1
1
1
1
1
1
1
1
1
1
1
1
1
1
1
1
1
1
1
1
1
1
1
1
1
1
1
1
1
1
1
1
1
1
1
1
1
1
1
1
1
1
1
1
1
1
1
1
1
1
1
1
1
1
1
1
1
1
1
1
1
1
1
1
1
1
1
1
1
1
1
1
1
1
1
1
1
1
1
1
1
1
1
1
1
1
1
1
1
1
1
1
1
1
1
1
1
1
1
1
0.526402
0.0409595
1.44644e-23
1.12601e-05
4.28727e-05
4.28727e-05
2.46031e-05
2.92782e-07
7.9258e-25
2.18241e-10
8.46151e-24
1.62584e-24
1.42744e-24
2.56078e-21
0.000276232
0.00267705
0.0030199
0.00302721
0.00288268
0.000306894
0.000661785
6.61028e-06
4.51188e-14
4.51188e-14
1.35783e-13
4.19769e-13
4.77521e-13
4.21064e-13
5.4659e-13
7.31029e-13
9.78974e-13
9.6305e-13
4.71439e-13
1.10765e-13
3.78116e-15
2.03199e-15
1.7998e-15
1.44125e-15
1.02328e-15
6.83322e-16
4.46469e-16
2.93435e-16
1.97594e-16
1.37468e-16
9.86947e-17
7.26388e-17
5.44072e-17
4.12614e-17
3.1604e-17
2.4435e-17
1.90809e-17
1.50513e-17
1.19709e-17
9.55662e-18
7.61058e-18
6.00777e-18
4.6762e-18
3.57547e-18
2.67956e-18
1.9663e-18
1.41268e-18
9.94173e-19
6.85906e-19
4.64397e-19
3.08883e-19
2.02031e-19
1.30061e-19
8.24707e-20
5.15298e-20
3.17242e-20
1.9225e-20
1.14386e-20
6.64634e-21
3.72999e-21
1.97173e-21
9.153e-22
2.74335e-22
-1.27265e-22
-3.95422e-22
-5.93328e-22
-7.59662e-22
-9.20385e-22
-1.09643e-21
-1.30783e-21
-1.56904e-21
-1.8494e-21
-1.90799e-21
-7.47125e-22
4.91803e-21
2.43442e-20
8.04762e-20
2.24488e-19
5.61677e-19
1.296e-18
2.80272e-18
5.73419e-18
1.11371e-17
2.04958e-17
3.5558e-17
5.78274e-17
8.77679e-17
1.24032e-16
1.63136e-16
1.99568e-16
2.2646e-16
2.37295e-16
2.26741e-16
1.89841e-16
1.26048e-16
5.36428e-17
4.4447e-17
3.59291e-09
2.06855e-08
3.45814e-08
1.79511e-09
4.90155e-25
-2.08303e-26
-9.87025e-27
-3.75094e-29
-2.92694e-30
9.07379e-30
-4.74903e-19
0.241991
0.593774
0.799503
0.935621
0.993574
1
1
1
1
1
1
1
1
1
1
1
1
1
1
1
1
1
1
1
1
1
1
1
1
1
1
1
1
1
1
1
1
1
1
1
1
1
1
1
1
1
1
1
1
1
1
1
1
1
1
1
1
1
1
1
1
1
1
1
1
1
1
1
1
1
1
1
1
1
1
1
1
1
1
1
1
1
1
1
1
1
1
1
1
1
1
1
1
1
1
1
1
1
1
1
1
1
1
1
1
1
1
1
1
1
1
1
1
1
1
1
1
1
1
1
1
1
1
1
1
1
1
1
1
1
1
1
1
1
1
1
1
1
1
1
1
1
1
1
1
1
1
1
1
1
1
1
1
1
1
1
1
1
1
1
1
1
1
1
1
1
1
1
1
1
1
1
1
1
1
1
1
1
1
1
1
1
1
1
1
1
1
1
1
1
1
1
1
1
1
1
1
1
1
1
1
1
1
1
1
1
1
1
1
1
1
1
1
1
1
1
1
1
1
1
1
1
1
1
1
1
1
1
1
1
1
1
1
1
1
1
1
1
1
1
1
1
1
1
1
1
1
1
1
1
1
1
1
1
1
1
1
1
1
1
1
1
1
1
1
1
1
1
1
1
1
1
1
1
1
1
1
1
1
1
1
1
1
1
1
1
1
1
1
1
1
1
1
1
1
1
1
1
1
1
1
1
1
1
1
1
1
1
1
1
1
1
1
1
1
1
1
1
1
1
1
1
1
1
1
1
1
1
0.626876
0.014359
1.40175e-24
1.96089e-06
1.70445e-05
2.71679e-05
1.39635e-05
4.75241e-07
9.7526e-25
1.18955e-24
1.45599e-06
1.52972e-06
9.55432e-08
1.70621e-08
1.03693e-10
2.17513e-11
1.03693e-10
6.65569e-05
0.00177779
0.00466458
0.00466219
0.00203575
4.51188e-14
5.06219e-05
4.51188e-14
4.51188e-14
4.51188e-14
4.51188e-14
4.51188e-14
4.51188e-14
4.51188e-14
9.04405e-13
1.32145e-12
9.91059e-13
3.69842e-13
3.70955e-14
2.21354e-15
1.78717e-15
1.37478e-15
9.60559e-16
6.43101e-16
4.30098e-16
2.94703e-16
2.08873e-16
1.52628e-16
1.13991e-16
8.63727e-17
6.61885e-17
5.1322e-17
4.04008e-17
3.24435e-17
2.66471e-17
2.22931e-17
1.87981e-17
1.57783e-17
1.30467e-17
1.05553e-17
8.32506e-18
6.39216e-18
4.77795e-18
3.47936e-18
2.47129e-18
1.71431e-18
1.16303e-18
7.72691e-19
5.03349e-19
3.21867e-19
2.02239e-19
1.24973e-19
7.60016e-20
4.55062e-20
2.68293e-20
1.55713e-20
8.88901e-21
4.98004e-21
2.72142e-21
1.42612e-21
6.82593e-22
2.49574e-22
-1.19537e-23
-1.81476e-22
-3.04912e-22
-4.10034e-22
-5.15031e-22
-6.29322e-22
-7.31055e-22
-6.56676e-22
3.02283e-22
4.63276e-21
1.98364e-20
6.57784e-20
1.89395e-19
4.91355e-19
1.17055e-18
2.59165e-18
5.37465e-18
1.04888e-17
1.93024e-17
3.34994e-17
5.47592e-17
8.41445e-17
1.2133e-16
1.64016e-16
2.07845e-16
2.46915e-16
2.74713e-16
2.85401e-16
2.74555e-16
2.38116e-16
1.76909e-16
8.14623e-17
4.25847e-17
4.23967e-17
2.54696e-07
9.13899e-07
5.14577e-07
3.89506e-08
-3.81383e-25
-4.85914e-29
3.80731e-12
1.69537e-12
-9.11902e-30
2.12759e-27
-1.99619e-27
5.20632e-27
0.0373084
0.430085
0.751085
0.912221
0.988843
1
1
1
1
1
1
1
1
1
1
1
1
1
1
1
1
1
1
1
1
1
1
1
1
1
1
1
1
1
1
1
1
1
1
1
1
1
1
1
1
1
1
1
1
1
1
1
1
1
1
1
1
1
1
1
1
1
1
1
1
1
1
1
1
1
1
1
1
1
1
1
1
1
1
1
1
1
1
1
1
1
1
1
1
1
1
1
1
1
1
1
1
1
1
1
1
1
1
1
1
1
1
1
1
1
1
1
1
1
1
1
1
1
1
1
1
1
1
1
1
1
1
1
1
1
1
1
1
1
1
1
1
1
1
1
1
1
1
1
1
1
1
1
1
1
1
1
1
1
1
1
1
1
1
1
1
1
1
1
1
1
1
1
1
1
1
1
1
1
1
1
1
1
1
1
1
1
1
1
1
1
1
1
1
1
1
1
1
1
1
1
1
1
1
1
1
1
1
1
1
1
1
1
1
1
1
1
1
1
1
1
1
1
1
1
1
1
1
1
1
1
1
1
1
1
1
1
1
1
1
1
1
1
1
1
1
1
1
1
1
1
1
1
1
1
1
1
1
1
1
1
1
1
1
1
1
1
1
1
1
1
1
1
1
1
1
1
1
1
1
1
1
1
1
1
1
1
1
1
1
1
1
1
1
1
1
1
1
1
1
1
1
1
1
1
1
1
1
1
1
1
1
1
1
1
1
1
1
1
1
1
1
1
1
1
1
1
1
1
1
0.626889
0.00127695
2.08172e-23
6.96459e-25
-1.49099e-22
-8.14966e-23
2.22416e-07
3.93122e-08
5.81262e-26
1.77453e-07
6.67032e-06
6.78322e-06
5.34072e-07
1.80031e-08
1.12215e-06
2.52033e-07
2.84664e-08
1.04014e-20
2.01346e-21
8.25585e-05
0.00385225
0.0040801
0.00397632
0.00255079
0.00168729
0.00120752
0.000844808
0.00058182
0.00047397
0.000214477
2.1013e-05
9.43803e-13
1.32402e-12
1.86395e-12
1.77039e-12
7.91207e-13
1.11467e-13
1.84551e-15
1.40022e-15
1.11969e-15
8.10533e-16
5.68059e-16
4.01697e-16
2.91214e-16
2.15749e-16
1.62288e-16
1.23457e-16
9.51446e-17
7.47528e-17
6.05975e-17
5.12062e-17
4.52456e-17
4.11289e-17
3.74673e-17
3.34862e-17
2.90232e-17
2.42898e-17
1.96232e-17
1.53252e-17
1.15935e-17
8.51353e-18
6.08088e-18
4.23231e-18
2.87512e-18
1.90912e-18
1.24073e-18
7.90099e-19
4.93506e-19
3.02621e-19
1.82325e-19
1.08002e-19
6.29411e-20
3.61118e-20
2.04138e-20
1.13803e-20
6.26047e-21
3.3958e-21
1.80781e-21
9.31336e-22
4.46016e-22
1.72945e-22
1.31123e-23
-8.82991e-23
-1.62033e-22
-2.24392e-22
-2.72358e-22
-2.3207e-22
2.58646e-22
2.58332e-21
1.12455e-20
3.90614e-20
1.18399e-19
3.22659e-19
8.02588e-19
1.83978e-18
3.91281e-18
7.75895e-18
1.43967e-17
2.50591e-17
4.09893e-17
6.309e-17
9.14889e-17
1.25148e-16
1.61677e-16
1.9748e-16
2.28183e-16
2.49156e-16
2.56103e-16
2.45553e-16
2.14002e-16
1.57223e-16
7.41787e-17
4.25847e-17
4.2567e-17
2.23931e-06
4.49766e-06
2.20633e-06
1.75789e-07
3.45473e-10
2.03561e-12
6.05116e-12
-8.4208e-29
9.21502e-10
1.65064e-09
9.7248e-10
-9.13848e-26
-2.19524e-25
-4.7419e-26
-4.0283e-18
0.322232
0.740175
0.921937
0.992844
1
1
1
1
1
1
1
1
1
1
1
1
1
1
1
1
1
1
1
1
1
1
1
1
1
1
1
1
1
1
1
1
1
1
1
1
1
1
1
1
1
1
1
1
1
1
1
1
1
1
1
1
1
1
1
1
1
1
1
1
1
1
1
1
1
1
1
1
1
1
1
1
1
1
1
1
1
1
1
1
1
1
1
1
1
1
1
1
1
1
1
1
1
1
1
1
1
1
1
1
1
1
1
1
1
1
1
1
1
1
1
1
1
1
1
1
1
1
1
1
1
1
1
1
1
1
1
1
1
1
1
1
1
1
1
1
1
1
1
1
1
1
1
1
1
1
1
1
1
1
1
1
1
1
1
1
1
1
1
1
1
1
1
1
1
1
1
1
1
1
1
1
1
1
1
1
1
1
1
1
1
1
1
1
1
1
1
1
1
1
1
1
1
1
1
1
1
1
1
1
1
1
1
1
1
1
1
1
1
1
1
1
1
1
1
1
1
1
1
1
1
1
1
1
1
1
1
1
1
1
1
1
1
1
1
1
1
1
1
1
1
1
1
1
1
1
1
1
1
1
1
1
1
1
1
1
1
1
1
1
1
1
1
1
1
1
1
1
1
1
1
1
1
1
1
1
1
1
1
1
1
1
1
1
1
1
1
1
1
1
1
1
1
1
1
1
1
1
1
1
1
1
1
1
1
1
1
1
1
1
1
1
1
1
1
1
1
0.516638
0.00458431
1.19887e-21
-1.77547e-22
0.00010651
0.000106655
2.27614e-05
-1.42647e-22
-1.82976e-23
-5.01598e-24
-7.80832e-21
-2.58901e-21
4.63773e-21
0.000125593
0.000103637
6.2267e-06
6.91567e-09
3.8672e-08
4.26533e-08
4.56908e-10
4.53091e-10
0.0018559
0.00483759
0.00483935
0.00484992
0.00372721
0.00298713
0.00282507
0.00276324
0.00169706
0.000754608
7.62488e-05
1.36869e-12
1.43238e-12
2.35557e-12
2.52352e-12
1.1689e-12
1.64502e-13
1.26004e-15
1.01149e-15
8.5623e-16
6.59694e-16
4.91129e-16
3.6563e-16
2.70919e-16
2.02264e-16
1.5291e-16
1.18073e-16
9.50888e-17
8.40805e-17
7.93699e-17
7.94978e-17
8.09183e-17
7.99464e-17
7.5134e-17
6.69942e-17
5.6919e-17
4.63365e-17
3.63244e-17
2.75304e-17
2.02357e-17
1.44605e-17
1.00661e-17
6.83692e-18
4.53699e-18
2.94502e-18
1.87179e-18
1.16589e-18
7.12252e-19
4.27059e-19
2.51486e-19
1.45546e-19
8.28473e-20
4.64247e-20
2.56399e-20
1.39753e-20
7.52738e-21
4.00943e-21
2.11033e-21
1.09285e-21
5.49508e-22
2.58283e-22
9.94633e-23
8.8873e-24
-4.74528e-23
-8.38045e-23
-8.11686e-23
1.03051e-22
1.07962e-21
4.99926e-21
1.84019e-20
5.87934e-20
1.67915e-19
4.35108e-19
1.03277e-18
2.2612e-18
4.59205e-18
8.68951e-18
1.53808e-17
2.55488e-17
3.99367e-17
5.8895e-17
8.21414e-17
1.08622e-16
1.36531e-16
1.63474e-16
1.86661e-16
2.03032e-16
2.0924e-16
2.01243e-16
1.73723e-16
1.21064e-16
5.21686e-17
4.52932e-17
4.03058e-07
4.49665e-06
4.50159e-06
4.49058e-06
5.04447e-07
8.44856e-13
7.40965e-13
8.76548e-30
1.16359e-10
6.83731e-09
7.55452e-09
3.47185e-08
1.02007e-24
-2.4868e-25
-1.20716e-26
-1.80989e-17
-1.1514e-17
-8.92288e-19
0.336256
0.782543
0.958457
0.998945
1
1
1
1
1
1
1
1
1
1
1
1
1
1
1
1
1
1
1
1
1
1
1
1
1
1
1
1
1
1
1
1
1
1
1
1
1
1
1
1
1
1
1
1
1
1
1
1
1
1
1
1
1
1
1
1
1
1
1
1
1
1
1
1
1
1
1
1
1
1
1
1
1
1
1
1
1
1
1
1
1
1
1
1
1
1
1
1
1
1
1
1
1
1
1
1
1
1
1
1
1
1
1
1
1
1
1
1
1
1
1
1
1
1
1
1
1
1
1
1
1
1
1
1
1
1
1
1
1
1
1
1
1
1
1
1
1
1
1
1
1
1
1
1
1
1
1
1
1
1
1
1
1
1
1
1
1
1
1
1
1
1
1
1
1
1
1
1
1
1
1
1
1
1
1
1
1
1
1
1
1
1
1
1
1
1
1
1
1
1
1
1
1
1
1
1
1
1
1
1
1
1
1
1
1
1
1
1
1
1
1
1
1
1
1
1
1
1
1
1
1
1
1
1
1
1
1
1
1
1
1
1
1
1
1
1
1
1
1
1
1
1
1
1
1
1
1
1
1
1
1
1
1
1
1
1
1
1
1
1
1
1
1
1
1
1
1
1
1
1
1
1
1
1
1
1
1
1
1
1
1
1
1
1
1
1
1
1
1
1
1
1
1
1
1
1
1
1
1
1
1
1
1
1
1
1
1
1
1
1
1
1
1
1
0.188387
-3.58032e-19
-5.12252e-40
0.000339761
0.000427781
0.000411835
1.32398e-05
2.02151e-05
0.000221203
-5.32786e-21
0.00419207
0.0115272
0.00796082
0.00191329
-9.72894e-21
8.54174e-08
1.17467e-08
9.43337e-09
8.93379e-09
4.53091e-10
1.62003e-07
1.73598e-07
1.85785e-07
1.89874e-07
1.89953e-07
1.66614e-07
5.18e-12
7.44265e-08
5.38778e-05
0.000985852
0.00129735
0.000944302
7.27366e-05
1.50418e-12
1.57996e-12
2.70757e-12
2.91413e-12
1.23229e-12
1.34001e-13
8.80841e-16
7.67918e-16
6.6781e-16
5.27744e-16
4.03995e-16
3.1009e-16
2.3692e-16
1.80672e-16
1.39186e-16
1.12296e-16
1.41853e-16
1.5432e-16
1.68481e-16
1.842e-16
1.88375e-16
1.78305e-16
1.57906e-16
1.32585e-16
1.06641e-16
8.27402e-17
6.22107e-17
4.54669e-17
3.23692e-17
2.2483e-17
1.5254e-17
1.01192e-17
6.56903e-18
4.17597e-18
2.60132e-18
1.58879e-18
9.51952e-19
5.59858e-19
3.23371e-19
1.83555e-19
1.02473e-19
5.63179e-20
3.05044e-20
1.63042e-20
8.60979e-21
4.49669e-21
2.32375e-21
1.187e-21
5.96643e-22
2.91109e-22
1.32362e-22
4.83072e-23
2.56582e-24
-1.54036e-23
3.48559e-23
3.75773e-22
1.85783e-21
7.21722e-21
2.41213e-20
7.15802e-20
1.91716e-19
4.68473e-19
1.05284e-18
2.19001e-18
4.23843e-18
7.66558e-18
1.30054e-17
2.07728e-17
3.13522e-17
4.49028e-17
6.13319e-17
8.03671e-17
1.01691e-16
1.25026e-16
1.4996e-16
1.75193e-16
1.96834e-16
2.06596e-16
1.92313e-16
1.38345e-16
6.09052e-17
3.64399e-17
1.20906e-06
4.50204e-06
4.49766e-06
1.60764e-06
9.55008e-13
5.60679e-12
2.228e-12
9.94213e-10
2.0372e-10
4.66476e-28
7.44291e-07
4.99928e-06
2.74715e-06
3.36962e-08
-5.46056e-26
-1.78379e-17
1.79593e-13
1.11575e-28
5.35966e-28
0.00165579
0.492714
0.867988
0.987967
1
1
1
1
1
1
1
1
1
1
1
1
1
1
1
1
1
1
1
1
1
1
1
1
1
1
1
1
1
1
1
1
1
1
1
1
1
1
1
1
1
1
1
1
1
1
1
1
1
1
1
1
1
1
1
1
1
1
1
1
1
1
1
1
1
1
1
1
1
1
1
1
1
1
1
1
1
1
1
1
1
1
1
1
1
1
1
1
1
1
1
1
1
1
1
1
1
1
1
1
1
1
1
1
1
1
1
1
1
1
1
1
1
1
1
1
1
1
1
1
1
1
1
1
1
1
1
1
1
1
1
1
1
1
1
1
1
1
1
1
1
1
1
1
1
1
1
1
1
1
1
1
1
1
1
1
1
1
1
1
1
1
1
1
1
1
1
1
1
1
1
1
1
1
1
1
1
1
1
1
1
1
1
1
1
1
1
1
1
1
1
1
1
1
1
1
1
1
1
1
1
1
1
1
1
1
1
1
1
1
1
1
1
1
1
1
1
1
1
1
1
1
1
1
1
1
1
1
1
1
1
1
1
1
1
1
1
1
1
1
1
1
1
1
1
1
1
1
1
1
1
1
1
1
1
1
1
1
1
1
1
1
1
1
1
1
1
1
1
1
1
1
1
1
1
1
1
1
1
1
1
1
1
1
1
1
1
1
1
1
1
1
1
1
1
1
1
1
1
1
1
1
1
1
1
1
1
1
1
1
1
1
0.6812
0.0467962
-4.43259e-20
0.000174099
9.33015e-05
9.10788e-05
0.0214621
0.0462454
0.0371634
0.0842076
0.119795
0.119033
0.0392108
-2.63449e-19
-7.31867e-22
7.72336e-38
1.2262e-10
5.09458e-27
8.4832e-10
4.56908e-10
4.00391e-08
2.31879e-06
1.89874e-07
1.85509e-21
0.000740464
0.00142412
0.000434085
3.26076e-06
5.18e-12
5.18e-12
0.000365484
0.000882543
0.000661398
6.12957e-05
1.66364e-12
1.76002e-12
2.97473e-12
2.7468e-12
9.73554e-13
6.58902e-14
7.60362e-16
6.23306e-16
4.9785e-16
3.99706e-16
1.21138e-14
4.3761e-14
5.23666e-14
3.57904e-14
1.33045e-14
2.34802e-15
6.0412e-16
4.8177e-16
4.88966e-16
4.77239e-16
4.30711e-16
3.64747e-16
2.94997e-16
2.30505e-16
1.7511e-16
1.29751e-16
9.39298e-17
6.64968e-17
4.60633e-17
3.12355e-17
2.0741e-17
1.3491e-17
8.59859e-18
5.3719e-18
3.29077e-18
1.9774e-18
1.16599e-18
6.74971e-19
3.83785e-19
2.14468e-19
1.17876e-19
6.37727e-20
3.3994e-20
1.78714e-20
9.27566e-21
4.7573e-21
2.41274e-21
1.21018e-21
5.99537e-22
2.91883e-22
1.37499e-22
5.99575e-23
2.27879e-23
2.12877e-23
1.16521e-22
5.81284e-22
2.33734e-21
8.05195e-21
2.45099e-20
6.70706e-20
1.66919e-19
3.81115e-19
8.03956e-19
1.57624e-18
2.88777e-18
4.97022e-18
8.08517e-18
1.2526e-17