/*--------------------------------*- C++ -*----------------------------------*\
| =========                 |                                                 |
| \\      /  F ield         | OpenFOAM: The Open Source CFD Toolbox           |
|  \\    /   O peration     | Version:  v2006                                 |
|   \\  /    A nd           | Website:  www.openfoam.com                      |
|    \\/     M anipulation  |                                                 |
\*---------------------------------------------------------------------------*/
FoamFile
{
    version     2.0;
    format      ascii;
    class       volVectorField;
    location    "0";
    object      U;
}
// * * * * * * * * * * * * * * * * * * * * * * * * * * * * * * * * * * * * * //

dimensions      [0 1 -1 0 0 0 0];


internalField   nonuniform List<vector> 
20000
(
(1 2.58155e-12 0)
(1 7.47508e-12 0)
(1 1.27379e-11 0)
(1 1.85038e-11 0)
(1 2.46792e-11 0)
(1 3.12232e-11 0)
(1 3.81586e-11 0)
(1 4.55608e-11 0)
(1 5.35558e-11 0)
(1 6.23183e-11 0)
(1 7.20658e-11 0)
(1 8.30428e-11 0)
(1 9.55235e-11 0)
(1 1.09805e-10 0)
(1 1.26201e-10 0)
(1 1.45035e-10 0)
(1 1.66617e-10 0)
(1 1.91233e-10 0)
(1 2.19119e-10 0)
(1 2.5044e-10 0)
(1 2.85269e-10 0)
(1 3.23556e-10 0)
(1 3.65099e-10 0)
(1 4.09523e-10 0)
(1 4.56266e-10 0)
(1 5.0459e-10 0)
(1 5.53589e-10 0)
(1 6.02222e-10 0)
(1 6.49348e-10 0)
(1 6.93772e-10 0)
(1 7.34317e-10 0)
(1 7.69896e-10 0)
(1 7.99596e-10 0)
(1 8.22764e-10 0)
(1 8.39069e-10 0)
(1 8.48518e-10 0)
(1 8.51447e-10 0)
(1 8.48458e-10 0)
(1 8.40325e-10 0)
(1 8.27903e-10 0)
(1 8.1202e-10 0)
(1 7.93409e-10 0)
(1 7.72656e-10 0)
(1 7.50182e-10 0)
(1 7.26249e-10 0)
(1 7.00979e-10 0)
(1 6.74388e-10 0)
(1 6.46415e-10 0)
(1 6.16954e-10 0)
(1 5.85876e-10 0)
(1 5.53064e-10 0)
(1 5.18434e-10 0)
(1 4.81959e-10 0)
(1 4.43676e-10 0)
(1 4.03673e-10 0)
(1 3.62065e-10 0)
(1 3.19051e-10 0)
(1 2.74921e-10 0)
(1 2.30007e-10 0)
(1 1.84734e-10 0)
(1 1.39723e-10 0)
(1 9.5834e-11 0)
(1 5.42569e-11 0)
(1 1.66681e-11 0)
(1 -1.52907e-11 0)
(1 -3.97583e-11 0)
(1 -5.58211e-11 0)
(1 -6.70697e-11 0)
(1 -8.29469e-11 0)
(1 -1.48235e-10 0)
(1 -3.56328e-10 0)
(1 -7.44537e-10 0)
(1 -1.30724e-09 0)
(1 -2.05015e-09 0)
(1 -2.9971e-09 0)
(1 -4.18458e-09 0)
(1 -5.65902e-09 0)
(1 -7.47668e-09 0)
(1 -9.70666e-09 0)
(1 -1.24346e-08 0)
(1 -1.57588e-08 0)
(1 -1.97739e-08 0)
(1 -2.45613e-08 0)
(1 -3.02422e-08 0)
(1 -3.71133e-08 0)
(1 -4.56645e-08 0)
(1 -5.6003e-08 0)
(1 -6.66712e-08 0)
(1 -7.49881e-08 0)
(1 -8.3202e-08 0)
(1 -1.08146e-07 0)
(1 -1.70915e-07 0)
(1.00001 -2.32358e-07 0)
(1.00001 -1.40417e-07 0)
(1.00001 1.8922e-07 0)
(1.00001 5.83291e-07 0)
(1.00001 9.28269e-07 0)
(1 1.18257e-06 0)
(1 1.35907e-06 0)
(0.999999 1.48336e-06 0)
(0.999997 1.57421e-06 0)
(0.999995 1.64192e-06 0)
(0.999993 1.69158e-06 0)
(0.99999 1.72655e-06 0)
(0.999987 1.75069e-06 0)
(0.999985 1.76934e-06 0)
(0.999982 1.78942e-06 0)
(0.999979 1.81843e-06 0)
(0.999977 1.8625e-06 0)
(0.999974 1.9235e-06 0)
(0.999971 1.99612e-06 0)
(0.999968 2.06609e-06 0)
(0.999965 2.11076e-06 0)
(0.999963 2.10314e-06 0)
(0.99996 2.01856e-06 0)
(0.999957 1.842e-06 0)
(0.999953 1.57225e-06 0)
(0.99995 1.22137e-06 0)
(0.999947 8.10557e-07 0)
(0.999944 3.6298e-07 0)
(0.999941 -1.00485e-07 0)
(0.999938 -5.62036e-07 0)
(0.999935 -1.0055e-06 0)
(0.999932 -1.41438e-06 0)
(0.99993 -1.77124e-06 0)
(0.999928 -2.05856e-06 0)
(0.999926 -2.26027e-06 0)
(0.999925 -2.36392e-06 0)
(0.999924 -2.3624e-06 0)
(0.999923 -2.25559e-06 0)
(0.999923 -2.05486e-06 0)
(0.999922 -1.7935e-06 0)
(0.999923 -1.54202e-06 0)
(0.999923 -1.36639e-06 0)
(0.999925 -1.26634e-06 0)
(0.999928 -1.21846e-06 0)
(0.999932 -1.18696e-06 0)
(0.999938 -1.12491e-06 0)
(0.999945 -9.77154e-07 0)
(0.999952 -6.84814e-07 0)
(0.99996 -1.92777e-07 0)
(0.999967 5.4012e-07 0)
(0.999974 1.52448e-06 0)
(0.999979 2.71618e-06 0)
(0.999981 3.94671e-06 0)
(0.999982 4.86392e-06 0)
(0.99998 5.3652e-06 0)
(0.999978 5.54083e-06 0)
(0.999976 5.48311e-06 0)
(0.999973 5.24089e-06 0)
(0.999969 4.83526e-06 0)
(0.999965 4.27866e-06 0)
(0.999961 3.58477e-06 0)
(0.999956 2.77332e-06 0)
(0.999952 1.86774e-06 0)
(0.999947 9.00231e-07 0)
(0.999942 -9.06508e-08 0)
(0.999937 -1.06223e-06 0)
(0.999932 -1.96969e-06 0)
(0.999927 -2.76998e-06 0)
(0.999923 -3.42569e-06 0)
(0.999919 -3.90845e-06 0)
(0.999916 -4.20171e-06 0)
(0.999914 -4.30252e-06 0)
(0.999912 -4.2215e-06 0)
(0.99991 -3.9801e-06 0)
(0.999909 -3.60752e-06 0)
(0.999909 -3.14088e-06 0)
(0.999908 -2.63397e-06 0)
(0.999908 -2.16505e-06 0)
(0.999909 -1.80302e-06 0)
(0.99991 -1.54831e-06 0)
(0.999913 -1.38034e-06 0)
(0.999916 -1.27176e-06 0)
(0.99992 -1.19277e-06 0)
(0.999925 -1.1163e-06 0)
(0.99993 -1.02519e-06 0)
(0.999935 -9.16476e-07 0)
(0.99994 -7.99976e-07 0)
(0.999944 -6.91303e-07 0)
(0.999948 -6.03201e-07 0)
(0.999951 -5.40509e-07 0)
(0.999954 -5.00842e-07 0)
(0.999957 -4.78139e-07 0)
(0.999961 -4.65602e-07 0)
(0.999964 -4.5726e-07 0)
(0.999966 -4.48685e-07 0)
(0.999969 -4.37144e-07 0)
(0.999972 -4.21335e-07 0)
(0.999975 -4.01003e-07 0)
(0.999978 -3.76567e-07 0)
(0.99998 -3.48814e-07 0)
(0.999982 -3.18665e-07 0)
(0.999984 -2.87022e-07 0)
(0.999986 -2.54692e-07 0)
(0.999988 -2.22277e-07 0)
(0.999989 -1.90448e-07 0)
(0.99999 -1.58583e-07 0)
(0.999991 -1.31411e-07 0)
(0.999992 -8.68802e-08 0)
(1 4.73995e-12 0)
(1 1.31954e-11 0)
(1 2.15219e-11 0)
(1 2.99834e-11 0)
(1 3.85051e-11 0)
(1 4.71141e-11 0)
(1 5.59151e-11 0)
(1 6.50315e-11 0)
(1 7.459e-11 0)
(1 8.47288e-11 0)
(1 9.5604e-11 0)
(1 1.07377e-10 0)
(1 1.20222e-10 0)
(1 1.34314e-10 0)
(1 1.49826e-10 0)
(1 1.66923e-10 0)
(1 1.85767e-10 0)
(1 2.065e-10 0)
(1 2.29241e-10 0)
(1 2.54062e-10 0)
(1 2.80978e-10 0)
(1 3.09948e-10 0)
(1 3.40867e-10 0)
(1 3.73577e-10 0)
(1 4.07867e-10 0)
(1 4.43485e-10 0)
(1 4.80125e-10 0)
(1 5.17454e-10 0)
(1 5.55124e-10 0)
(1 5.9282e-10 0)
(1 6.30313e-10 0)
(1 6.67511e-10 0)
(1 7.04507e-10 0)
(1 7.41607e-10 0)
(1 7.79328e-10 0)
(1 8.18353e-10 0)
(1 8.59474e-10 0)
(1 9.03519e-10 0)
(1 9.51271e-10 0)
(1 1.00342e-09 0)
(1 1.06051e-09 0)
(1 1.12294e-09 0)
(1 1.19097e-09 0)
(1 1.26471e-09 0)
(1 1.34422e-09 0)
(1 1.42945e-09 0)
(1 1.52028e-09 0)
(1 1.61655e-09 0)
(1 1.71798e-09 0)
(1 1.82415e-09 5.05688e-43)
(1 1.93448e-09 5.46073e-43)
(1 2.0482e-09 0)
(1 2.16423e-09 0)
(1 2.2812e-09 0)
(1 2.39726e-09 0)
(1 2.51011e-09 0)
(1 2.61687e-09 0)
(1 2.71407e-09 0)
(1 2.79741e-09 0)
(1 2.86183e-09 0)
(1 2.90145e-09 0)
(1 2.90945e-09 0)
(1 2.87795e-09 0)
(1 2.79783e-09 0)
(1 2.65832e-09 0)
(1 2.44686e-09 0)
(1 2.14776e-09 0)
(1 1.74075e-09 0)
(1 1.20105e-09 0)
(1 4.73032e-10 0)
(1 -5.57298e-10 0)
(1 -1.94929e-09 0)
(1 -3.75288e-09 0)
(1 -6.04141e-09 0)
(1 -8.91362e-09 0)
(1 -1.24922e-08 0)
(1 -1.69242e-08 0)
(1 -2.23834e-08 0)
(1 -2.90762e-08 0)
(1 -3.72479e-08 0)
(1 -4.71849e-08 0)
(1 -5.92087e-08 0)
(1 -7.36692e-08 0)
(1 -9.09577e-08 0)
(1 -1.11546e-07 0)
(1 -1.35989e-07 0)
(1 -1.64745e-07 0)
(1 -1.97852e-07 0)
(1 -2.35162e-07 0)
(1 -2.78372e-07 0)
(1 -3.33421e-07 0)
(1 -4.04078e-07 0)
(1.00001 -4.63057e-07 0)
(1.00001 -4.3344e-07 0)
(1.00001 -2.98806e-07 0)
(1.00001 -1.9644e-07 0)
(1.00002 -1.61971e-07 0)
(1.00002 -1.83034e-07 0)
(1.00003 -2.2783e-07 0)
(1.00003 -2.71269e-07 0)
(1.00004 -3.00722e-07 0)
(1.00004 -3.11895e-07 0)
(1.00005 -3.04904e-07 0)
(1.00006 -2.82501e-07 0)
(1.00006 -2.49952e-07 0)
(1.00007 -2.15511e-07 0)
(1.00007 -1.90408e-07 0)
(1.00008 -1.87433e-07 0)
(1.00008 -2.17379e-07 0)
(1.00009 -2.83312e-07 0)
(1.0001 -3.73854e-07 0)
(1.0001 -4.59334e-07 0)
(1.00011 -4.96006e-07 0)
(1.00012 -4.41711e-07 0)
(1.00013 -2.73191e-07 0)
(1.00013 2.78102e-09 0)
(1.00013 3.61948e-07 0)
(1.00014 7.66657e-07 0)
(1.00014 1.18779e-06 0)
(1.00013 1.6069e-06 0)
(1.00012 2.01206e-06 0)
(1.00012 2.39157e-06 0)
(1.0001 2.73076e-06 0)
(1.00009 3.01252e-06 0)
(1.00008 3.21875e-06 0)
(1.00006 3.33218e-06 0)
(1.00004 3.34013e-06 0)
(1.00002 3.23789e-06 0)
(1.00001 3.02897e-06 0)
(0.999989 2.72243e-06 0)
(0.999974 2.32878e-06 0)
(0.999962 1.85333e-06 0)
(0.999953 1.28205e-06 0)
(0.999946 6.0538e-07 0)
(0.999942 -1.45687e-07 0)
(0.999941 -9.38946e-07 0)
(0.999942 -1.74405e-06 0)
(0.999946 -2.53058e-06 0)
(0.999952 -3.26727e-06 0)
(0.999961 -3.92136e-06 0)
(0.999973 -4.45889e-06 0)
(0.999989 -4.84542e-06 0)
(1.00001 -5.05016e-06 0)
(1.00003 -5.05403e-06 0)
(1.00006 -4.89925e-06 0)
(1.00009 -4.75902e-06 0)
(1.00012 -4.62666e-06 0)
(1.00015 -4.40785e-06 0)
(1.00018 -4.0464e-06 0)
(1.00021 -3.52515e-06 0)
(1.00023 -2.8475e-06 0)
(1.00025 -2.02732e-06 0)
(1.00027 -1.08527e-06 0)
(1.00028 -5.48347e-08 0)
(1.00028 1.04343e-06 0)
(1.00028 2.14664e-06 0)
(1.00027 3.20744e-06 0)
(1.00026 4.17471e-06 0)
(1.00024 4.99726e-06 0)
(1.00021 5.63098e-06 0)
(1.00018 6.04448e-06 0)
(1.00015 6.22364e-06 0)
(1.00012 6.17286e-06 0)
(1.00009 5.91253e-06 0)
(1.00005 5.47452e-06 0)
(1.00003 4.89862e-06 0)
(1 4.22869e-06 0)
(0.999979 3.50658e-06 0)
(0.999962 2.75956e-06 0)
(0.999948 1.99047e-06 0)
(0.999938 1.19636e-06 0)
(0.999932 4.12903e-07 0)
(0.999928 -3.26274e-07 0)
(0.999927 -9.7762e-07 0)
(0.999928 -1.49389e-06 0)
(0.999931 -1.83553e-06 0)
(0.999934 -1.9886e-06 0)
(0.999938 -1.97632e-06 0)
(0.999942 -1.85494e-06 0)
(0.999945 -1.69308e-06 0)
(0.999949 -1.54594e-06 0)
(0.999952 -1.4408e-06 0)
(0.999955 -1.37994e-06 0)
(0.999958 -1.35215e-06 0)
(0.999961 -1.34218e-06 0)
(0.999964 -1.33587e-06 0)
(0.999967 -1.32267e-06 0)
(0.999969 -1.29632e-06 0)
(0.999972 -1.25429e-06 0)
(0.999975 -1.19677e-06 0)
(0.999978 -1.12569e-06 0)
(0.99998 -1.04384e-06 0)
(0.999982 -9.54273e-07 0)
(0.999984 -8.59903e-07 0)
(0.999986 -7.63265e-07 0)
(0.999988 -6.66249e-07 0)
(0.999989 -5.70913e-07 0)
(0.99999 -4.75425e-07 0)
(0.999991 -3.93982e-07 0)
(0.999992 -2.60477e-07 0)
(1 5.27447e-12 0)
(1 1.48719e-11 0)
(1 2.41084e-11 0)
(1 3.31904e-11 0)
(1 4.21545e-11 0)
(1 5.11259e-11 0)
(1 6.02498e-11 0)
(1 6.96227e-11 0)
(1 7.92876e-11 0)
(1 8.92612e-11 0)
(1 9.95585e-11 0)
(1 1.10197e-10 0)
(1 1.21202e-10 0)
(1 1.326e-10 0)
(1 1.44415e-10 0)
(1 1.56681e-10 0)
(1 1.69456e-10 0)
(1 1.82829e-10 0)
(1 1.96922e-10 0)
(1 2.11883e-10 0)
(1 2.27891e-10 0)
(1 2.45168e-10 0)
(1 2.63996e-10 0)
(1 2.84738e-10 0)
(1 3.07841e-10 0)
(1 3.33822e-10 0)
(1 3.63243e-10 0)
(1 3.96697e-10 0)
(1 4.34792e-10 0)
(1 4.7815e-10 0)
(1 5.27414e-10 0)
(1 5.83238e-10 0)
(1 6.46272e-10 0)
(1 7.17133e-10 0)
(1 7.96365e-10 0)
(1 8.84401e-10 0)
(1 9.81537e-10 0)
(1 1.08794e-09 0)
(1 1.20366e-09 0)
(1 1.32866e-09 0)
(1 1.46289e-09 0)
(1 1.6063e-09 0)
(1 1.75889e-09 0)
(1 1.92073e-09 0)
(1 2.09193e-09 0)
(1 2.27267e-09 0)
(1 2.46308e-09 0)
(1 2.66326e-09 0)
(1 2.87314e-09 0)
(1 3.09247e-09 0)
(1 3.32072e-09 0)
(1 3.55695e-09 0)
(1 3.79979e-09 0)
(1 4.04727e-09 0)
(1 4.29678e-09 0)
(1 4.54489e-09 0)
(1 4.78721e-09 0)
(1 5.01808e-09 0)
(1 5.23026e-09 0)
(1 5.41456e-09 0)
(1 5.55938e-09 0)
(1 5.6501e-09 0)
(1 5.66852e-09 0)
(1 5.59202e-09 0)
(1 5.39284e-09 0)
(1 5.03698e-09 0)
(1 4.4835e-09 0)
(1 3.68509e-09 0)
(1 2.58671e-09 0)
(1 1.12815e-09 0)
(1 -7.5306e-10 0)
(1 -3.14883e-09 0)
(1 -6.18309e-09 0)
(1 -1.00042e-08 0)
(1 -1.4788e-08 0)
(1 -2.07435e-08 0)
(1 -2.81177e-08 0)
(1 -3.72009e-08 0)
(1 -4.83361e-08 0)
(1 -6.19291e-08 0)
(1 -7.8456e-08 0)
(1 -9.84615e-08 0)
(1 -1.22551e-07 0)
(1 -1.51373e-07 0)
(1 -1.85608e-07 0)
(1 -2.25979e-07 0)
(1 -2.73412e-07 0)
(1 -3.29274e-07 0)
(1 -3.95076e-07 0)
(1 -4.7036e-07 0)
(1 -5.49591e-07 0)
(1 -6.257e-07 0)
(1.00001 -7.11304e-07 0)
(1.00001 -8.54137e-07 0)
(1.00001 -1.07729e-06 0)
(1.00001 -1.32199e-06 0)
(1.00001 -1.53488e-06 0)
(1.00001 -1.69451e-06 0)
(1.00001 -1.80301e-06 0)
(1.00002 -1.86763e-06 0)
(1.00002 -1.89293e-06 0)
(1.00002 -1.88042e-06 0)
(1.00002 -1.83103e-06 0)
(1.00002 -1.74828e-06 0)
(1.00003 -1.64155e-06 0)
(1.00003 -1.5287e-06 0)
(1.00003 -1.43661e-06 0)
(1.00003 -1.39806e-06 0)
(1.00003 -1.44305e-06 0)
(1.00003 -1.58404e-06 0)
(1.00003 -1.7978e-06 0)
(1.00004 -2.01346e-06 0)
(1.00004 -2.12117e-06 0)
(1.00004 -2.00877e-06 0)
(1.00004 -1.60867e-06 0)
(1.00004 -9.22778e-07 0)
(1.00004 -1.62057e-08 0)
(1.00004 1.02654e-06 0)
(1.00004 2.12716e-06 0)
(1.00004 3.23082e-06 0)
(1.00003 4.30269e-06 0)
(1.00003 5.3131e-06 0)
(1.00002 6.22721e-06 0)
(1.00001 7.00363e-06 0)
(1 7.59643e-06 0)
(0.999993 7.9598e-06 0)
(0.999983 8.05766e-06 0)
(0.999974 7.87278e-06 0)
(0.999964 7.40742e-06 0)
(0.999956 6.67724e-06 0)
(0.999948 5.70785e-06 0)
(0.999942 4.53682e-06 0)
(0.999937 3.21686e-06 0)
(0.999934 1.80229e-06 0)
(0.999933 3.30113e-07 0)
(0.999934 -1.17159e-06 0)
(0.999937 -2.67833e-06 0)
(0.999941 -4.16828e-06 0)
(0.999948 -5.62181e-06 0)
(0.999956 -7.02024e-06 0)
(0.999966 -8.34411e-06 0)
(0.999978 -9.57107e-06 0)
(0.99999 -1.06722e-05 0)
(1 -1.16049e-05 0)
(1.00002 -1.22942e-05 0)
(1.00003 -1.26214e-05 0)
(1.00005 -1.25315e-05 0)
(1.00006 -1.20336e-05 0)
(1.00008 -1.11467e-05 0)
(1.00009 -9.88199e-06 0)
(1.0001 -8.25124e-06 0)
(1.00011 -6.27801e-06 0)
(1.00011 -4.00321e-06 0)
(1.00012 -1.49042e-06 0)
(1.00012 1.18607e-06 0)
(1.00011 3.91457e-06 0)
(1.00011 6.57599e-06 0)
(1.0001 9.04007e-06 0)
(1.00008 1.11762e-05 0)
(1.00007 1.28685e-05 0)
(1.00005 1.40298e-05 0)
(1.00004 1.46146e-05 0)
(1.00002 1.46231e-05 0)
(1 1.40977e-05 0)
(0.999983 1.31127e-05 0)
(0.999968 1.17629e-05 0)
(0.999955 1.01529e-05 0)
(0.999943 8.3861e-06 0)
(0.999934 6.55689e-06 0)
(0.999928 4.74764e-06 0)
(0.999923 3.02213e-06 0)
(0.999921 1.41686e-06 0)
(0.99992 -3.03975e-08 0)
(0.999921 -1.27323e-06 0)
(0.999924 -2.24787e-06 0)
(0.999928 -2.89762e-06 0)
(0.999932 -3.20658e-06 0)
(0.999937 -3.22032e-06 0)
(0.999941 -3.0391e-06 0)
(0.999945 -2.783e-06 0)
(0.999948 -2.54786e-06 0)
(0.999952 -2.38081e-06 0)
(0.999955 -2.28605e-06 0)
(0.999958 -2.24498e-06 0)
(0.999961 -2.23226e-06 0)
(0.999964 -2.22445e-06 0)
(0.999967 -2.20416e-06 0)
(0.999969 -2.16121e-06 0)
(0.999972 -2.0916e-06 0)
(0.999975 -1.99584e-06 0)
(0.999978 -1.87725e-06 0)
(0.99998 -1.74061e-06 0)
(0.999982 -1.59109e-06 0)
(0.999984 -1.43356e-06 0)
(0.999986 -1.27228e-06 0)
(0.999988 -1.11042e-06 0)
(0.999989 -9.51405e-07 0)
(0.99999 -7.92182e-07 0)
(0.999991 -6.56396e-07 0)
(0.999992 -4.33897e-07 0)
(1 7.30715e-12 0)
(1 2.14742e-11 0)
(1 3.58059e-11 0)
(1 5.03373e-11 0)
(1 6.50593e-11 0)
(1 8.00822e-11 0)
(1 9.55436e-11 0)
(1 1.11559e-10 0)
(1 1.28222e-10 0)
(1 1.4563e-10 0)
(1 1.63905e-10 0)
(1 1.83201e-10 0)
(1 2.03696e-10 0)
(1 2.25583e-10 0)
(1 2.49067e-10 0)
(1 2.74367e-10 0)
(1 3.01729e-10 0)
(1 3.31425e-10 0)
(1 3.63744e-10 0)
(1 3.98971e-10 0)
(1 4.37377e-10 0)
(1 4.79213e-10 0)
(1 5.24725e-10 0)
(1 5.74165e-10 0)
(1 6.2779e-10 0)
(1 6.85856e-10 0)
(1 7.48597e-10 0)
(1 8.16206e-10 0)
(1 8.8885e-10 0)
(1 9.66683e-10 0)
(1 1.04988e-09 0)
(1 1.1387e-09 0)
(1 1.23346e-09 0)
(1 1.3346e-09 0)
(1 1.44263e-09 0)
(1 1.55814e-09 0)
(1 1.68173e-09 0)
(1 1.81404e-09 0)
(1 1.95569e-09 0)
(1 2.10727e-09 0)
(1 2.26935e-09 0)
(1 2.44249e-09 0)
(1 2.62718e-09 0)
(1 2.82393e-09 0)
(1 3.03315e-09 0)
(1 3.2552e-09 0)
(1 3.49034e-09 0)
(1 3.73866e-09 0)
(1 4.00004e-09 0)
(1 4.27407e-09 0)
(1 4.55994e-09 0)
(1 4.85635e-09 0)
(1 5.1614e-09 0)
(1 5.47244e-09 0)
(1 5.78597e-09 0)
(1 6.09742e-09 0)
(1 6.4009e-09 0)
(1 6.68892e-09 0)
(1 6.952e-09 0)
(1 7.17814e-09 0)
(1 7.3523e-09 0)
(1 7.45592e-09 0)
(1 7.46605e-09 0)
(1 7.35439e-09 0)
(1 7.08589e-09 0)
(1 6.61718e-09 0)
(1 5.89513e-09 0)
(1 4.85399e-09 0)
(1 3.41153e-09 0)
(1 1.46766e-09 0)
(1 -1.08128e-09 0)
(1 -4.3809e-09 0)
(1 -8.5936e-09 0)
(1 -1.39152e-08 0)
(1 -2.05858e-08 0)
(1 -2.88953e-08 0)
(1 -3.91872e-08 0)
(1 -5.1866e-08 0)
(1 -6.74105e-08 0)
(1 -8.63897e-08 0)
(1 -1.09471e-07 0)
(1 -1.37409e-07 0)
(1 -1.71034e-07 0)
(1 -2.11255e-07 0)
(1 -2.59102e-07 0)
(1 -3.15747e-07 0)
(1 -3.82394e-07 0)
(1 -4.60022e-07 0)
(1 -5.49317e-07 0)
(1 -6.51428e-07 0)
(1 -7.69223e-07 0)
(1 -9.05872e-07 0)
(1.00001 -1.05731e-06 0)
(1.00001 -1.20578e-06 0)
(1.00001 -1.32901e-06 0)
(1.00001 -1.41756e-06 0)
(1.00001 -1.49194e-06 0)
(1.00001 -1.56306e-06 0)
(1.00001 -1.62844e-06 0)
(1.00002 -1.67731e-06 0)
(1.00002 -1.6978e-06 0)
(1.00002 -1.68101e-06 0)
(1.00002 -1.62263e-06 0)
(1.00002 -1.52446e-06 0)
(1.00003 -1.39683e-06 0)
(1.00003 -1.26099e-06 0)
(1.00003 -1.14975e-06 0)
(1.00003 -1.10379e-06 0)
(1.00003 -1.16131e-06 0)
(1.00003 -1.33958e-06 0)
(1.00003 -1.61151e-06 0)
(1.00004 -1.88917e-06 0)
(1.00004 -2.03454e-06 0)
(1.00004 -1.90717e-06 0)
(1.00004 -1.42677e-06 0)
(1.00004 -6.04285e-07 0)
(1.00004 4.74922e-07 0)
(1.00004 1.70121e-06 0)
(1.00004 2.97977e-06 0)
(1.00004 4.24984e-06 0)
(1.00003 5.47621e-06 0)
(1.00003 6.62781e-06 0)
(1.00002 7.66482e-06 0)
(1.00001 8.53853e-06 0)
(1 9.19441e-06 0)
(0.999993 9.57792e-06 0)
(0.999983 9.64703e-06 0)
(0.999974 9.38391e-06 0)
(0.999964 8.79457e-06 0)
(0.999956 7.89976e-06 0)
(0.999948 6.72753e-06 0)
(0.999942 5.31108e-06 0)
(0.999937 3.68932e-06 0)
(0.999934 1.90518e-06 0)
(0.999933 3.67979e-09 0)
(0.999934 -1.96505e-06 0)
(0.999936 -3.95008e-06 0)
(0.999941 -5.90089e-06 0)
(0.999948 -7.76729e-06 0)
(0.999956 -9.49892e-06 0)
(0.999966 -1.10457e-05 0)
(0.999978 -1.23597e-05 0)
(0.999991 -1.33985e-05 0)
(1 -1.41312e-05 0)
(1.00002 -1.45401e-05 0)
(1.00003 -1.46046e-05 0)
(1.00005 -1.43146e-05 0)
(1.00006 -1.36429e-05 0)
(1.00008 -1.25572e-05 0)
(1.00009 -1.10393e-05 0)
(1.0001 -9.09185e-06 0)
(1.00011 -6.74051e-06 0)
(1.00012 -4.03495e-06 0)
(1.00012 -1.04724e-06 0)
(1.00012 2.11563e-06 0)
(1.00011 5.33557e-06 0)
(1.00011 8.46583e-06 0)
(1.0001 1.13488e-05 0)
(1.00008 1.3829e-05 0)
(1.00007 1.57688e-05 0)
(1.00005 1.70672e-05 0)
(1.00004 1.7674e-05 0)
(1.00002 1.75957e-05 0)
(0.999999 1.68893e-05 0)
(0.999983 1.56481e-05 0)
(0.999967 1.39877e-05 0)
(0.999954 1.20343e-05 0)
(0.999943 9.90889e-06 0)
(0.999934 7.71264e-06 0)
(0.999927 5.5206e-06 0)
(0.999923 3.38826e-06 0)
(0.99992 1.36055e-06 0)
(0.99992 -5.04337e-07 0)
(0.999921 -2.1276e-06 0)
(0.999924 -3.4071e-06 0)
(0.999928 -4.25208e-06 0)
(0.999932 -4.63183e-06 0)
(0.999937 -4.60601e-06 0)
(0.999941 -4.31505e-06 0)
(0.999945 -3.92895e-06 0)
(0.999948 -3.5825e-06 0)
(0.999952 -3.33979e-06 0)
(0.999955 -3.20368e-06 0)
(0.999958 -3.14551e-06 0)
(0.999961 -3.12814e-06 0)
(0.999964 -3.11779e-06 0)
(0.999967 -3.08969e-06 0)
(0.999969 -3.02947e-06 0)
(0.999972 -2.93161e-06 0)
(0.999975 -2.79694e-06 0)
(0.999978 -2.63023e-06 0)
(0.99998 -2.43825e-06 0)
(0.999982 -2.22831e-06 0)
(0.999984 -2.00727e-06 0)
(0.999986 -1.78109e-06 0)
(0.999988 -1.55421e-06 0)
(0.999989 -1.33141e-06 0)
(0.99999 -1.10842e-06 0)
(0.999991 -9.18294e-07 0)
(0.999992 -6.06897e-07 0)
(1 9.44985e-12 0)
(1 2.77109e-11 0)
(1 4.60077e-11 0)
(1 6.42937e-11 0)
(1 8.25643e-11 0)
(1 1.00988e-10 0)
(1 1.19766e-10 0)
(1 1.39068e-10 0)
(1 1.59026e-10 0)
(1 1.79755e-10 0)
(1 2.0138e-10 0)
(1 2.24051e-10 0)
(1 2.47929e-10 0)
(1 2.73183e-10 0)
(1 2.9998e-10 0)
(1 3.28497e-10 0)
(1 3.58939e-10 0)
(1 3.91546e-10 0)
(1 4.26583e-10 0)
(1 4.64321e-10 0)
(1 5.05031e-10 0)
(1 5.48993e-10 0)
(1 5.96528e-10 0)
(1 6.48023e-10 0)
(1 7.03946e-10 0)
(1 7.64822e-10 0)
(1 8.31215e-10 0)
(1 9.03699e-10 0)
(1 9.82859e-10 0)
(1 1.06931e-09 0)
(1 1.16375e-09 0)
(1 1.26697e-09 0)
(1 1.37986e-09 0)
(1 1.50342e-09 0)
(1 1.63868e-09 0)
(1 1.78666e-09 0)
(1 1.94831e-09 0)
(1 2.12443e-09 0)
(1 2.31573e-09 0)
(1 2.52275e-09 0)
(1 2.74592e-09 0)
(1 2.98561e-09 0)
(1 3.24211e-09 0)
(1 3.5157e-09 0)
(1 3.80665e-09 0)
(1 4.11516e-09 0)
(1 4.44139e-09 0)
(1 4.78532e-09 0)
(1 5.14672e-09 0)
(1 5.52494e-09 0)
(1 5.91885e-09 0)
(1 6.32665e-09 0)
(1 6.74572e-09 0)
(1 7.17247e-09 0)
(1 7.60209e-09 0)
(1 8.0283e-09 0)
(1 8.44313e-09 0)
(1 8.83644e-09 0)
(1 9.19539e-09 0)
(1 9.50385e-09 0)
(1 9.74177e-09 0)
(1 9.88446e-09 0)
(1 9.90152e-09 0)
(1 9.7556e-09 0)
(1 9.40087e-09 0)
(1 8.78135e-09 0)
(1 7.82885e-09 0)
(1 6.46051e-09 0)
(1 4.57617e-09 0)
(1 2.05718e-09 0)
(1 -1.23878e-09 0)
(1 -5.4834e-09 0)
(1 -1.0887e-08 0)
(1 -1.77051e-08 0)
(1 -2.62484e-08 0)
(1 -3.68903e-08 0)
(1 -5.00723e-08 0)
(1 -6.63128e-08 0)
(1 -8.62245e-08 0)
(1 -1.10536e-07 0)
(1 -1.40104e-07 0)
(1 -1.75906e-07 0)
(1 -2.19017e-07 0)
(1 -2.70601e-07 0)
(1 -3.3192e-07 0)
(1 -4.04384e-07 0)
(1 -4.89616e-07 0)
(1 -5.89495e-07 0)
(1 -7.05912e-07 0)
(1 -8.39764e-07 0)
(1 -9.89355e-07 0)
(1 -1.15062e-06 0)
(1.00001 -1.32252e-06 0)
(1.00001 -1.5138e-06 0)
(1.00001 -1.73503e-06 0)
(1.00001 -1.97875e-06 0)
(1.00001 -2.22715e-06 0)
(1.00001 -2.45473e-06 0)
(1.00001 -2.64067e-06 0)
(1.00002 -2.77136e-06 0)
(1.00002 -2.83885e-06 0)
(1.00002 -2.83925e-06 0)
(1.00002 -2.7725e-06 0)
(1.00002 -2.64475e-06 0)
(1.00003 -2.47238e-06 0)
(1.00003 -2.28624e-06 0)
(1.00003 -2.13298e-06 0)
(1.00003 -2.07029e-06 0)
(1.00003 -2.15257e-06 0)
(1.00003 -2.40526e-06 0)
(1.00003 -2.79167e-06 0)
(1.00004 -3.1889e-06 0)
(1.00004 -3.40155e-06 0)
(1.00004 -3.22903e-06 0)
(1.00004 -2.554e-06 0)
(1.00004 -1.39e-06 0)
(1.00005 1.50204e-07 0)
(1.00004 1.90899e-06 0)
(1.00004 3.75171e-06 0)
(1.00004 5.59131e-06 0)
(1.00003 7.37595e-06 0)
(1.00003 9.05945e-06 0)
(1.00002 1.05836e-05 0)
(1.00001 1.18782e-05 0)
(1 1.28647e-05 0)
(0.999993 1.34643e-05 0)
(0.999983 1.36151e-05 0)
(0.999973 1.32899e-05 0)
(0.999964 1.24959e-05 0)
(0.999955 1.12628e-05 0)
(0.999947 9.63371e-06 0)
(0.999941 7.66412e-06 0)
(0.999936 5.4217e-06 0)
(0.999933 2.9785e-06 0)
(0.999932 4.01956e-07 0)
(0.999933 -2.24594e-06 0)
(0.999936 -4.90927e-06 0)
(0.99994 -7.53695e-06 0)
(0.999947 -1.00806e-05 0)
(0.999955 -1.24919e-05 0)
(0.999965 -1.47205e-05 0)
(0.999977 -1.67118e-05 0)
(0.99999 -1.84054e-05 0)
(1 -1.97346e-05 0)
(1.00002 -2.06252e-05 0)
(1.00003 -2.09957e-05 0)
(1.00005 -2.07852e-05 0)
(1.00006 -1.99541e-05 0)
(1.00008 -1.84816e-05 0)
(1.00009 -1.63652e-05 0)
(1.0001 -1.3622e-05 0)
(1.00011 -1.02936e-05 0)
(1.00012 -6.45149e-06 0)
(1.00012 -2.20136e-06 0)
(1.00012 2.31508e-06 0)
(1.00012 6.92108e-06 0)
(1.00011 1.14101e-05 0)
(1.0001 1.55593e-05 0)
(1.00009 1.91469e-05 0)
(1.00007 2.19757e-05 0)
(1.00005 2.3899e-05 0)
(1.00004 2.48416e-05 0)
(1.00002 2.48086e-05 0)
(0.999999 2.38767e-05 0)
(0.999982 2.2175e-05 0)
(0.999967 1.98661e-05 0)
(0.999953 1.71299e-05 0)
(0.999942 1.41426e-05 0)
(0.999933 1.10559e-05 0)
(0.999926 7.98809e-06 0)
(0.999922 5.02684e-06 0)
(0.999919 2.23971e-06 0)
(0.999919 -3.07372e-07 0)
(0.99992 -2.51331e-06 0)
(0.999923 -4.24802e-06 0)
(0.999927 -5.395e-06 0)
(0.999932 -5.91598e-06 0)
(0.999937 -5.8931e-06 0)
(0.999941 -5.51674e-06 0)
(0.999945 -5.01619e-06 0)
(0.999948 -4.57124e-06 0)
(0.999952 -4.26489e-06 0)
(0.999955 -4.09825e-06 0)
(0.999958 -4.03201e-06 0)
(0.999961 -4.01692e-06 0)
(0.999964 -4.0089e-06 0)
(0.999967 -3.97606e-06 0)
(0.99997 -3.90025e-06 0)
(0.999972 -3.77481e-06 0)
(0.999975 -3.60122e-06 0)
(0.999978 -3.386e-06 0)
(0.99998 -3.13812e-06 0)
(0.999982 -2.86713e-06 0)
(0.999984 -2.58198e-06 0)
(0.999986 -2.29039e-06 0)
(0.999988 -1.99809e-06 0)
(0.999989 -1.71122e-06 0)
(0.99999 -1.42427e-06 0)
(0.999991 -1.17968e-06 0)
(0.999992 -7.79389e-07 0)
(1 1.15731e-11 0)
(1 3.38303e-11 0)
(1 5.61196e-11 0)
(1 7.84373e-11 0)
(1 1.00816e-10 0)
(1 1.23491e-10 0)
(1 1.46719e-10 0)
(1 1.70708e-10 0)
(1 1.95613e-10 0)
(1 2.21577e-10 0)
(1 2.48761e-10 0)
(1 2.77361e-10 0)
(1 3.076e-10 0)
(1 3.3972e-10 0)
(1 3.73972e-10 0)
(1 4.10629e-10 0)
(1 4.50002e-10 0)
(1 4.92456e-10 0)
(1 5.38385e-10 0)
(1 5.882e-10 0)
(1 6.42303e-10 0)
(1 7.01106e-10 0)
(1 7.65049e-10 0)
(1 8.34625e-10 0)
(1 9.10385e-10 0)
(1 9.92916e-10 0)
(1 1.08281e-09 0)
(1 1.18062e-09 0)
(1 1.28689e-09 0)
(1 1.40215e-09 0)
(1 1.52699e-09 0)
(1 1.66207e-09 0)
(1 1.80817e-09 0)
(1 1.96616e-09 0)
(1 2.137e-09 0)
(1 2.32162e-09 0)
(1 2.52094e-09 0)
(1 2.7358e-09 0)
(1 2.96694e-09 0)
(1 3.21503e-09 0)
(1 3.48065e-09 0)
(1 3.76436e-09 0)
(1 4.06669e-09 0)
(1 4.38818e-09 0)
(1 4.72937e-09 0)
(1 5.09074e-09 0)
(1 5.47265e-09 0)
(1 5.87528e-09 0)
(1 6.29851e-09 0)
(1 6.74173e-09 0)
(1 7.20374e-09 0)
(1 7.68257e-09 0)
(1 8.17529e-09 0)
(1 8.6778e-09 0)
(1 9.18463e-09 0)
(1 9.6886e-09 0)
(1 1.01805e-08 0)
(1 1.06486e-08 0)
(1 1.10779e-08 0)
(1 1.14493e-08 0)
(1 1.17391e-08 0)
(1 1.19176e-08 0)
(1 1.19482e-08 0)
(1 1.17857e-08 0)
(1 1.13742e-08 0)
(1 1.06451e-08 0)
(1 9.51467e-09 0)
(1 7.88098e-09 0)
(1 5.62045e-09 0)
(1 2.58603e-09 0)
(1 -1.39772e-09 0)
(1 -6.54085e-09 0)
(1 -1.30983e-08 0)
(1 -2.13795e-08 0)
(1 -3.17618e-08 0)
(1 -4.46999e-08 0)
(1 -6.07311e-08 0)
(1 -8.04851e-08 0)
(1 -1.04707e-07 0)
(1 -1.34285e-07 0)
(1 -1.70266e-07 0)
(1 -2.13842e-07 0)
(1 -2.66315e-07 0)
(1 -3.29099e-07 0)
(1 -4.03775e-07 0)
(1 -4.9216e-07 0)
(1 -5.96258e-07 0)
(1 -7.18012e-07 0)
(1 -8.58965e-07 0)
(1 -1.02018e-06 0)
(1 -1.20264e-06 0)
(1 -1.40754e-06 0)
(1.00001 -1.63541e-06 0)
(1.00001 -1.88333e-06 0)
(1.00001 -2.13971e-06 0)
(1.00001 -2.38447e-06 0)
(1.00001 -2.60421e-06 0)
(1.00001 -2.78996e-06 0)
(1.00001 -2.93393e-06 0)
(1.00002 -3.02745e-06 0)
(1.00002 -3.06148e-06 0)
(1.00002 -3.02836e-06 0)
(1.00002 -2.92405e-06 0)
(1.00002 -2.75196e-06 0)
(1.00003 -2.52839e-06 0)
(1.00003 -2.28797e-06 0)
(1.00003 -2.08582e-06 0)
(1.00003 -1.99251e-06 0)
(1.00003 -2.07724e-06 0)
(1.00003 -2.37633e-06 0)
(1.00003 -2.8505e-06 0)
(1.00004 -3.35162e-06 0)
(1.00004 -3.6375e-06 0)
(1.00004 -3.45773e-06 0)
(1.00004 -2.6689e-06 0)
(1.00004 -1.29216e-06 0)
(1.00005 5.20042e-07 0)
(1.00004 2.57395e-06 0)
(1.00004 4.70725e-06 0)
(1.00004 6.82118e-06 0)
(1.00003 8.8628e-06 0)
(1.00003 1.07845e-05 0)
(1.00002 1.25213e-05 0)
(1.00001 1.39925e-05 0)
(1 1.51062e-05 0)
(0.999993 1.57684e-05 0)
(0.999983 1.59057e-05 0)
(0.999973 1.5488e-05 0)
(0.999964 1.45268e-05 0)
(0.999955 1.30582e-05 0)
(0.999947 1.11309e-05 0)
(0.99994 8.80543e-06 0)
(0.999936 6.15435e-06 0)
(0.999932 3.25577e-06 0)
(0.999931 1.8685e-07 0)
(0.999932 -2.97682e-06 0)
(0.999935 -6.16171e-06 0)
(0.999939 -9.29647e-06 0)
(0.999946 -1.23111e-05 0)
(0.999955 -1.51354e-05 0)
(0.999965 -1.7699e-05 0)
(0.999977 -1.99313e-05 0)
(0.99999 -2.17635e-05 0)
(1 -2.31308e-05 0)
(1.00002 -2.39719e-05 0)
(1.00003 -2.4226e-05 0)
(1.00005 -2.38442e-05 0)
(1.00006 -2.27859e-05 0)
(1.00008 -2.10193e-05 0)
(1.00009 -1.85296e-05 0)
(1.0001 -1.53273e-05 0)
(1.00011 -1.14549e-05 0)
(1.00012 -6.99183e-06 0)
(1.00012 -2.05825e-06 0)
(1.00012 3.17991e-06 0)
(1.00012 8.51947e-06 0)
(1.00011 1.37195e-05 0)
(1.0001 1.8518e-05 0)
(1.00009 2.26535e-05 0)
(1.00007 2.58938e-05 0)
(1.00005 2.80667e-05 0)
(1.00004 2.90868e-05 0)
(1.00002 2.8965e-05 0)
(0.999999 2.77973e-05 0)
(0.999981 2.57404e-05 0)
(0.999966 2.29881e-05 0)
(0.999952 1.97527e-05 0)
(0.999941 1.62401e-05 0)
(0.999932 1.26226e-05 0)
(0.999925 9.02934e-06 0)
(0.999921 5.55256e-06 0)
(0.999919 2.26259e-06 0)
(0.999918 -7.6029e-07 0)
(0.99992 -3.39293e-06 0)
(0.999923 -5.46655e-06 0)
(0.999927 -6.82499e-06 0)
(0.999932 -7.41177e-06 0)
(0.999937 -7.32661e-06 0)
(0.999941 -6.81056e-06 0)
(0.999945 -6.15523e-06 0)
(0.999949 -5.58632e-06 0)
(0.999952 -5.20285e-06 0)
(0.999955 -4.99976e-06 0)
(0.999958 -4.92346e-06 0)
(0.999961 -4.91034e-06 0)
(0.999964 -4.90473e-06 0)
(0.999967 -4.86703e-06 0)
(0.99997 -4.77519e-06 0)
(0.999972 -4.62147e-06 0)
(0.999975 -4.40814e-06 0)
(0.999978 -4.14355e-06 0)
(0.99998 -3.83896e-06 0)
(0.999983 -3.50627e-06 0)
(0.999985 -3.15649e-06 0)
(0.999986 -2.79912e-06 0)
(0.999988 -2.44115e-06 0)
(0.999989 -2.09009e-06 0)
(0.99999 -1.73917e-06 0)
(0.999991 -1.44015e-06 0)
(0.999992 -9.51162e-07 0)
(1 1.36778e-11 0)
(1 3.99335e-11 0)
(1 6.62455e-11 0)
(1 9.26153e-11 0)
(1 1.19054e-10 0)
(1 1.45823e-10 0)
(1 1.73208e-10 0)
(1 2.01441e-10 0)
(1 2.307e-10 0)
(1 2.61147e-10 0)
(1 2.92968e-10 0)
(1 3.26388e-10 0)
(1 3.61663e-10 0)
(1 3.99063e-10 0)
(1 4.38864e-10 0)
(1 4.81361e-10 0)
(1 5.26893e-10 0)
(1 5.75849e-10 0)
(1 6.28658e-10 0)
(1 6.85754e-10 0)
(1 7.47563e-10 0)
(1 8.14515e-10 0)
(1 8.87079e-10 0)
(1 9.65795e-10 0)
(1 1.05129e-09 0)
(1 1.14425e-09 0)
(1 1.24538e-09 0)
(1 1.35538e-09 0)
(1 1.47496e-09 0)
(1 1.60484e-09 0)
(1 1.74582e-09 0)
(1 1.89886e-09 0)
(1 2.06507e-09 0)
(1 2.24568e-09 0)
(1 2.44204e-09 0)
(1 2.65551e-09 0)
(1 2.88737e-09 0)
(1 3.13881e-09 0)
(1 3.41088e-09 0)
(1 3.70446e-09 0)
(1 4.02034e-09 0)
(1 4.35919e-09 0)
(1 4.72164e-09 0)
(1 5.10829e-09 0)
(1 5.51968e-09 0)
(1 5.95627e-09 0)
(1 6.41839e-09 0)
(1 6.90613e-09 0)
(1 7.41923e-09 0)
(1 7.95685e-09 -2.50193e-43)
(1 8.51742e-09 -2.70185e-43)
(1 9.09845e-09 0)
(1 9.69631e-09 0)
(1 1.03059e-08 0)
(1 1.09206e-08 0)
(1 1.15315e-08 0)
(1 1.21274e-08 0)
(1 1.2694e-08 0)
(1 1.32133e-08 0)
(1 1.36624e-08 0)
(1 1.4013e-08 0)
(1 1.423e-08 0)
(1 1.42704e-08 0)
(1 1.4081e-08 0)
(1 1.35969e-08 0)
(1 1.2738e-08 0)
(1 1.14066e-08 0)
(1 9.48383e-09 0)
(1 6.82583e-09 0)
(1 3.26014e-09 0)
(1 -1.41926e-09 0)
(1 -7.45913e-09 0)
(1 -1.51584e-08 0)
(1 -2.48814e-08 0)
(1 -3.70733e-08 0)
(1 -5.22704e-08 0)
(1 -7.11057e-08 0)
(1 -9.43187e-08 0)
(1 -1.22783e-07 0)
(1 -1.57544e-07 0)
(1 -1.99839e-07 0)
(1 -2.51079e-07 0)
(1 -3.12808e-07 0)
(1 -3.8669e-07 0)
(1 -4.74559e-07 0)
(1 -5.78505e-07 0)
(1 -7.00901e-07 0)
(1 -8.44294e-07 0)
(1 -1.01108e-06 0)
(1 -1.20294e-06 0)
(1 -1.42009e-06 0)
(1 -1.66101e-06 0)
(1.00001 -1.9234e-06 0)
(1.00001 -2.2058e-06 0)
(1.00001 -2.50518e-06 0)
(1.00001 -2.81228e-06 0)
(1.00001 -3.11434e-06 0)
(1.00001 -3.39289e-06 0)
(1.00001 -3.62651e-06 0)
(1.00002 -3.79532e-06 0)
(1.00002 -3.88379e-06 0)
(1.00002 -3.88151e-06 0)
(1.00002 -3.78409e-06 0)
(1.00002 -3.59656e-06 0)
(1.00003 -3.33959e-06 0)
(1.00003 -3.05626e-06 0)
(1.00003 -2.81525e-06 0)
(1.00003 -2.70537e-06 0)
(1.00003 -2.81556e-06 0)
(1.00003 -3.19595e-06 0)
(1.00003 -3.803e-06 0)
(1.00004 -4.45415e-06 0)
(1.00004 -4.84312e-06 0)
(1.00004 -4.64975e-06 0)
(1.00004 -3.69038e-06 0)
(1.00005 -1.99369e-06 0)
(1.00005 2.47811e-07 0)
(1.00005 2.78867e-06 0)
(1.00004 5.42663e-06 0)
(1.00004 8.04264e-06 0)
(1.00004 1.05757e-05 0)
(1.00003 1.29689e-05 0)
(1.00002 1.51415e-05 0)
(1.00001 1.69929e-05 0)
(1 1.84085e-05 0)
(0.999994 1.92691e-05 0)
(0.999983 1.94813e-05 0)
(0.999973 1.90071e-05 0)
(0.999963 1.78619e-05 0)
(0.999954 1.60914e-05 0)
(0.999946 1.37566e-05 0)
(0.99994 1.09348e-05 0)
(0.999935 7.71884e-06 0)
(0.999931 4.20808e-06 0)
(0.99993 4.98743e-07 0)
(0.999931 -3.31837e-06 0)
(0.999934 -7.15894e-06 0)
(0.999938 -1.09447e-05 0)
(0.999945 -1.46008e-05 0)
(0.999954 -1.80522e-05 0)
(0.999964 -2.12215e-05 0)
(0.999976 -2.40269e-05 0)
(0.999989 -2.63823e-05 0)