/*--------------------------------*- C++ -*----------------------------------*\
| =========                 |                                                 |
| \\      /  F ield         | OpenFOAM: The Open Source CFD Toolbox           |
|  \\    /   O peration     | Version:  v2006                                 |
|   \\  /    A nd           | Website:  www.openfoam.com                      |
|    \\/     M anipulation  |                                                 |
\*---------------------------------------------------------------------------*/
FoamFile
{
    version     2.0;
    format      ascii;
    class       surfaceScalarField;
    location    "19.9";
    object      phi;
}
// * * * * * * * * * * * * * * * * * * * * * * * * * * * * * * * * * * * * * //

dimensions      [0 3 -1 0 0 0 0];
oriented        oriented;


internalField   nonuniform List<scalar> 
104500
(
5.70594e-05
-5.70594e-05
0.000126086
-6.9027e-05
0.000192684
-6.65979e-05
0.000257511
-6.48271e-05
0.000321651
-6.41398e-05
0.000385456
-6.38048e-05
0.000449013
-6.35575e-05
0.00051236
-6.33466e-05
0.000575506
-6.31464e-05
0.00063844
-6.29336e-05
0.000701136
-6.2696e-05
0.000763568
-6.24322e-05
0.000825715
-6.21466e-05
0.00088756
-6.18449e-05
0.000949092
-6.15324e-05
0.0010103
-6.12122e-05
0.00107119
-6.08859e-05
0.00113174
-6.05541e-05
0.00119196
-6.02161e-05
0.00125183
-5.98712e-05
0.00131135
-5.95187e-05
0.00137051
-5.91573e-05
0.00142929
-5.87853e-05
0.00148769
-5.84002e-05
0.00154569
-5.79993e-05
0.00160327
-5.75792e-05
0.00166041
-5.71367e-05
0.00171708
-5.66688e-05
0.00177325
-5.61732e-05
0.0018289
-5.56483e-05
0.00188399
-5.5093e-05
0.0019385
-5.45071e-05
0.00199239
-5.38908e-05
0.00204563
-5.32455e-05
0.00209821
-5.25736e-05
0.00215009
-5.18783e-05
0.00220125
-5.1163e-05
0.00225168
-5.04301e-05
0.00230136
-4.96804e-05
0.00235027
-4.89122e-05
0.00239839
-4.81216e-05
0.0024457
-4.73032e-05
0.00249215
-4.6451e-05
0.00253771
-4.55593e-05
0.00258233
-4.46234e-05
0.00262597
-4.36391e-05
0.00266857
-4.26021e-05
0.00271008
-4.15069e-05
0.00275043
-4.03465e-05
0.00278954
-3.91122e-05
0.00282733
-3.77946e-05
0.00286372
-3.63856e-05
0.0028986
-3.48809e-05
0.00293188
-3.32833e-05
0.00296349
-3.16047e-05
0.00299335
-2.98676e-05
0.00302146
-2.81029e-05
0.0030478
-2.63456e-05
0.00307243
-2.46295e-05
0.00309541
-2.29815e-05
0.00311683
-2.14172e-05
0.00313677
-1.99392e-05
0.00315531
-1.85393e-05
0.00317251
-1.7203e-05
0.00318843
-1.59144e-05
0.00320309
-1.46604e-05
0.00321652
-1.3433e-05
0.00322875
-1.22298e-05
0.0032398
-1.10523e-05
0.00324971
-9.9048e-06
0.0032585
-8.79162e-06
0.00326622
-7.71589e-06
0.00327289
-6.67863e-06
0.00327857
-5.67864e-06
0.00328329
-4.71311e-06
0.00328706
-3.7784e-06
0.00328993
-2.8707e-06
0.00329192
-1.98603e-06
0.00329304
-1.1188e-06
0.0032933
-2.5724e-07
0.00329269
6.02374e-07
0.00329125
1.44317e-06
0.00328899
2.26419e-06
0.00328593
3.0536e-06
0.00328212
3.81733e-06
0.00327756
4.55637e-06
0.00327229
5.2745e-06
0.00326631
5.97537e-06
0.00325965
6.66286e-06
0.00325231
7.33881e-06
0.0032443
8.00413e-06
0.00323564
8.65941e-06
0.00322634
9.30493e-06
0.0032164
9.94004e-06
0.00320584
1.05637e-05
0.00319466
1.11747e-05
0.00318289
1.17711e-05
0.00317054
1.23504e-05
0.00315763
1.291e-05
0.00314418
1.34473e-05
0.00313022
1.39605e-05
0.00311577
1.44496e-05
0.00310086
1.49165e-05
0.00308549
1.53652e-05
0.00306969
1.58015e-05
0.00305346
1.62315e-05
0.0030368
1.66605e-05
0.00301971
1.70916e-05
0.00300218
1.75251e-05
0.00298422
1.79583e-05
0.00296584
1.8387e-05
0.00294703
1.88057e-05
0.00292782
1.92097e-05
0.00290822
1.9595e-05
0.00288827
1.99592e-05
0.00286796
2.03012e-05
0.00284734
2.06202e-05
0.00282643
2.09164e-05
0.00280524
2.11901e-05
0.0027838
2.14423e-05
0.00276212
2.16738e-05
0.00274024
2.18857e-05
0.00271816
2.2079e-05
0.0026959
2.22544e-05
0.00267349
2.24132e-05
0.00265093
2.25563e-05
0.00262825
2.26848e-05
0.00260545
2.27996e-05
0.00258255
2.29017e-05
0.00255955
2.2992e-05
0.00253648
2.30713e-05
0.00251334
2.31401e-05
0.00249015
2.31981e-05
0.0024669
2.3244e-05
0.00244363
2.32748e-05
0.00242034
2.32862e-05
0.00239707
2.32722e-05
0.00237384
2.32263e-05
0.0023507
2.31425e-05
0.00232768
2.3017e-05
0.00230483
2.28495e-05
0.00228219
2.26446e-05
0.00225978
2.24119e-05
0.00223761
2.2165e-05
0.00221569
2.19198e-05
0.002194
2.16927e-05
0.0021725
2.14983e-05
0.00215115
2.13488e-05
0.0021299
2.12524e-05
0.00210868
2.12143e-05
0.00208745
2.12376e-05
0.00206612
2.13255e-05
0.00204464
2.14841e-05
0.00202291
2.17231e-05
0.00200086
2.20551e-05
0.00197837
2.2492e-05
0.00195533
2.30384e-05
0.00193164
2.3684e-05
0.00190725
2.43966e-05
0.00188213
2.51197e-05
0.00185635
2.57756e-05
0.00183008
2.62737e-05
0.00180357
2.65122e-05
0.00177719
2.63737e-05
0.00175127
2.5919e-05
0.00172618
2.50969e-05
0.00170233
2.38509e-05
0.00168019
2.21317e-05
0.00166028
1.99159e-05
0.00164302
1.72619e-05
0.00162867
1.43461e-05
0.00161724
1.14345e-05
0.00160844
8.79328e-06
0.00160185
6.59206e-06
0.00159699
4.85902e-06
0.00159348
3.50878e-06
0.00159107
2.41165e-06
0.00158962
1.45103e-06
0.00158908
5.39659e-07
0.00158945
-3.68774e-07
0.00159083
-1.38066e-06
0.0015932
-2.37272e-06
0.00159658
-3.37249e-06
0.00160096
-4.38161e-06
0.00160635
-5.39396e-06
0.00161275
-6.40024e-06
0.00162014
-7.38978e-06
0.00162849
-8.35169e-06
0.00163777
-9.27539e-06
0.00164792
-1.0151e-05
0.00165889
-1.09698e-05
0.00167061
-1.17248e-05
0.00168302
-1.24111e-05
0.00169605
-1.30262e-05
0.00170962
-1.35703e-05
0.00172367
-1.40453e-05
0.00173812
-1.44562e-05
0.00175293
-1.48088e-05
0.00176804
-1.51101e-05
0.00178341
-1.53682e-05
0.001799
-1.55891e-05
0.00181478
-1.57807e-05
0.00183073
-1.59488e-05
0.00184683
-1.60994e-05
0.00186307
-1.62383e-05
0.00187944
-1.63697e-05
0.00189593
-1.6496e-05
0.00191255
-1.66202e-05
0.00192929
-1.67412e-05
0.00194615
-1.68588e-05
0.00196312
-1.69704e-05
0.00198019
-1.70713e-05
0.00199735
-1.71579e-05
0.00201458
-1.72249e-05
0.00203185
-1.72684e-05
0.00204913
-1.72853e-05
0.0020664
-1.72726e-05
0.00208363
-1.72302e-05
0.00210079
-1.71569e-05
0.00211784
-1.70539e-05
0.00213477
-1.69219e-05
0.00215153
-1.67617e-05
0.0021681
-1.65744e-05
0.00218446
-1.63612e-05
0.00220059
-1.61221e-05
0.00221644
-1.58583e-05
0.00223201
-1.55704e-05
0.00224727
-1.5259e-05
0.0022622
-1.49243e-05
0.00227676
-1.45671e-05
0.00229095
-1.41879e-05
0.00230474
-1.3787e-05
0.0023181
-1.33654e-05
0.00233103
-1.29239e-05
0.00234349
-1.24637e-05
0.00235548
-1.19847e-05
0.00236696
-1.14865e-05
0.00237793
-1.09698e-05
0.00238837
-1.04341e-05
0.00239825
-9.8788e-06
0.00240755
-9.30324e-06
0.00241626
-8.70569e-06
0.00242434
-8.08439e-06
0.00243178
-7.43646e-06
0.00243854
-6.759e-06
0.00244458
-6.04689e-06
0.00244988
-5.29512e-06
0.00245437
-4.4948e-06
0.00245801
-3.63818e-06
0.00246072
-2.71388e-06
0.00246244
-1.71505e-06
0.00246309
-6.49386e-07
0.00246256
5.23651e-07
0.00246077
1.79314e-06
0.00245764
3.13567e-06
0.00245304
4.59454e-06
0.00244685
6.18737e-06
0.00243895
7.9088e-06
0.00242922
9.72761e-06
0.00241763
1.15913e-05
0.00240418
1.34425e-05
0.00238894
1.52412e-05
0.00237196
1.69791e-05
0.00235328
1.86789e-05
0.00233291
2.03785e-05
0.00231079
2.21127e-05
0.00228689
2.39002e-05
0.00226115
2.574e-05
0.00223354
2.76153e-05
0.00220404
2.94973e-05
0.00217269
3.13478e-05
0.00213958
3.31157e-05
0.00210484
3.47375e-05
0.00206868
3.61593e-05
0.00203129
3.73947e-05
0.00199268
3.86059e-05
0.00195258
4.0098e-05
0.00191052
4.20588e-05
0.00186638
4.41392e-05
0.00182113
4.52493e-05
0.00177711
4.40213e-05
0.00173736
3.97575e-05
0.00170438
3.29772e-05
0.0016793
2.50782e-05
0.00166173
1.75735e-05
0.00165018
1.15431e-05
0.00164271
7.47269e-06
0.00163738
5.33544e-06
0.00163258
4.79558e-06
0.00162723
5.34936e-06
0.00162076
6.46647e-06
0.00161293
7.83665e-06
0.00160366
9.26864e-06
0.00159298
1.06758e-05
0.00158096
1.20239e-05
0.00156767
1.32901e-05
0.00155322
1.44483e-05
0.00153775
1.5475e-05
0.00152138
1.6361e-05
0.00150427
1.71141e-05
0.00148651
1.77564e-05
0.0014682
1.83184e-05
0.00144936
1.88318e-05
0.00143004
1.93283e-05
0.0014102
1.98367e-05
0.00138982
2.03774e-05
0.00136886
2.09603e-05
0.00134728
2.15846e-05
0.00132504
2.2241e-05
0.00130212
2.29139e-05
0.00127854
2.35838e-05
0.0012543
2.42361e-05
0.00122944
2.48634e-05
0.00120397
2.54659e-05
0.00117793
2.60468e-05
0.00115131
2.66132e-05
0.00112414
2.7171e-05
0.00109642
2.77249e-05
0.00106814
2.8281e-05
0.00103929
2.88437e-05
0.00100988
2.94147e-05
0.000979883
2.99937e-05
0.000949305
3.05777e-05
0.000918141
3.1164e-05
0.00088639
3.17517e-05
0.000854052
3.23378e-05
0.000821132
3.29199e-05
0.000787637
3.34951e-05
0.000753578
3.4059e-05
0.000718971
3.46067e-05
0.000683839
3.51321e-05
0.000648212
3.56272e-05
0.00061213
3.60816e-05
0.000575647
3.64831e-05
0.000538831
3.68163e-05
0.000501759
3.70716e-05
0.000464521
3.72383e-05
0.000427214
3.73073e-05
0.000389934
3.72793e-05
0.00035278
3.71544e-05
0.000315846
3.69343e-05
0.000279225
3.6621e-05
0.000243014
3.62112e-05
0.000207316
3.5698e-05
0.000172241
3.50745e-05
0.000137891
3.43505e-05
0.000104303
3.35874e-05
7.17196e-05
3.25836e-05
3.95558e-05
3.21638e-05
3.95558e-05
4.49351e-05
-0.000101995
9.4083e-05
-0.000118175
0.00013971
-0.000112225
0.000184459
-0.000109576
0.000229406
-0.000109086
0.00027446
-0.000108859
0.000319445
-0.000108543
0.000364311
-0.000108212
0.000409073
-0.000107909
0.000453768
-0.000107629
0.000498434
-0.000107362
0.000543107
-0.000107105
0.000587819
-0.000106858
0.000632598
-0.000106624
0.00067747
-0.000106404
0.000722458
-0.0001062
0.000767583
-0.000106011
0.000812862
-0.000105833
0.000858308
-0.000105662
0.000903926
-0.00010549
0.000949716
-0.000105308
0.000995665
-0.000105107
0.00104175
-0.000104874
0.00108795
-0.000104597
0.00113422
-0.000104265
0.0011805
-0.000103867
0.00122676
-0.000103396
0.00127294
-0.000102847
0.00131898
-0.000102215
0.00136483
-0.0001015
0.00141044
-0.000100701
0.00145576
-9.98204e-05
0.00150073
-9.88602e-05
0.00154531
-9.78253e-05
0.00158945
-9.67226e-05
0.00163314
-9.55603e-05
0.00167632
-9.43472e-05
0.00171898
-9.309e-05
0.00176109
-9.17916e-05
0.00180263
-9.04501e-05
0.00184357
-8.90584e-05
0.00188387
-8.76057e-05
0.0019235
-8.60791e-05
0.0019624
-8.44653e-05
0.00200053
-8.27521e-05
0.00203782
-8.0929e-05
0.00207421
-7.89878e-05
0.00210962
-7.69226e-05
0.00214401
-7.47307e-05
0.00217731
-7.24131e-05
0.00220949
-6.99752e-05
0.00224053
-6.74273e-05
0.00227043
-6.47846e-05
0.00229922
-6.20667e-05
0.00232691
-5.92969e-05
0.00235354
-5.65002e-05
0.00237914
-5.37015e-05
0.00240372
-5.09232e-05
0.00242727
-4.81835e-05
0.00244979
-4.54959e-05
0.00247124
-4.28684e-05
0.0024916
-4.03037e-05
0.00251086
-3.78008e-05
0.00252902
-3.53555e-05
0.00254606
-3.29631e-05
0.00256202
-3.06188e-05
0.00257691
-2.83192e-05
0.00259074
-2.60619e-05
0.00260354
-2.38457e-05
0.0026153
-2.16699e-05
0.00262604
-1.95337e-05
0.00263576
-1.74361e-05
0.00264446
-1.53757e-05
0.00265213
-1.33506e-05
0.00265878
-1.13594e-05
0.0026644
-9.40088e-06
0.002669
-7.47479e-06
0.0026726
-5.58174e-06
0.00267521
-3.72398e-06
0.00267686
-1.90723e-06
0.00267759
-1.36392e-07
0.00267745
1.5892e-06
0.00267645
3.26172e-06
0.00267461
4.89524e-06
0.00267193
6.49275e-06
0.00266844
8.05252e-06
0.00266414
9.57418e-06
0.00265906
1.10571e-05
0.00265322
1.24997e-05
0.00264666
1.39004e-05
0.0026394
1.52575e-05
0.00263149
1.65686e-05
0.00262297
1.78313e-05
0.00261386
1.90441e-05
0.00260422
2.02072e-05
0.00259407
2.13223e-05
0.00258345
2.23927e-05
0.00257238
2.34226e-05
0.00256087
2.44162e-05
0.00254894
2.53768e-05
0.0025366
2.63064e-05
0.00252384
2.72055e-05
0.00251068
2.80737e-05
0.00249714
2.89099e-05
0.00248323
2.97134e-05
0.00246898
3.04839e-05
0.00245441
3.12219e-05
0.00243958
3.19286e-05
0.0024245
3.26049e-05
0.0024092
3.32514e-05
0.00239372
3.38677e-05
0.00237808
3.44526e-05
0.00236228
3.5004e-05
0.00234636
3.55196e-05
0.00233032
3.59972e-05
0.00231419
3.64349e-05
0.00229798
3.68312e-05
0.00228171
3.71848e-05
0.0022654
3.7495e-05
0.00224908
3.77614e-05
0.00223277
3.79839e-05
0.0022165
3.81627e-05
0.00220028
3.82978e-05
0.00218414
3.83891e-05
0.00216812
3.84369e-05
0.00215223
3.84409e-05
0.00213652
3.84015e-05
0.002121
3.83187e-05
0.00210571
3.81931e-05
0.00209067
3.8026e-05
0.00207593
3.78191e-05
0.00206149
3.7575e-05
0.00204739
3.72975e-05
0.00203364
3.69905e-05
0.00202026
3.66585e-05
0.00200724
3.63053e-05
0.00199458
3.5934e-05
0.00198226
3.55461e-05
0.00197026
3.51416e-05
0.00195856
3.47185e-05
0.00194714
3.42737e-05
0.00193598
3.38037e-05
0.00192508
3.33057e-05
0.00191447
3.27787e-05
0.00190416
3.22245e-05
0.00189421
3.16479e-05
0.00188465
3.1056e-05
0.00187554
3.04579e-05
0.00186693
2.98639e-05
0.00185886
2.92844e-05
0.00185137
2.87298e-05
0.00184448
2.82104e-05
0.00183823
2.7737e-05
0.00183263
2.73213e-05
0.00182771
2.69757e-05
0.00182349
2.67125e-05
0.00181999
2.65407e-05
0.00181721
2.6463e-05
0.00181514
2.64708e-05
0.00181372
2.65404e-05
0.00181286
2.66313e-05
0.00181244
2.66884e-05
0.0018123
2.66526e-05
0.00181218
2.6496e-05
0.00181199
2.61097e-05
0.00181171
2.53775e-05
0.00181128
2.42819e-05
0.00181062
2.27963e-05
0.00180962
2.09103e-05
0.00180823
1.86492e-05
0.00180649
1.60877e-05
0.00180458
1.33462e-05
0.00180281
1.0566e-05
0.00180153
7.87238e-06
0.00180104
5.34414e-06
0.00180155
2.99646e-06
0.0018032
7.6233e-07
0.00180589
-1.23463e-06
0.00180946
-3.02788e-06
0.00181388
-4.79546e-06
0.00181904
-6.53918e-06
0.00182493
-8.25655e-06
0.00183151
-9.95464e-06
0.00183876
-1.16368e-05
0.00184667
-1.33014e-05
0.00185521
-1.4943e-05
0.00186438
-1.65535e-05
0.00187415
-1.81232e-05
0.00188452
-1.96417e-05
0.00189546
-2.10989e-05
0.00190698
-2.24853e-05
0.00191905
-2.37932e-05
0.00193165
-2.5016e-05
0.00194478
-2.6151e-05
0.0019584
-2.71962e-05
0.00197251
-2.81531e-05
0.00198708
-2.90261e-05
0.00200209
-2.98199e-05
0.00201753
-3.05442e-05
0.00203336
-3.12075e-05
0.00204959
-3.18193e-05
0.0020662
-3.23877e-05
0.00208317
-3.29192e-05
0.00210049
-3.3418e-05
0.00211814
-3.38851e-05
0.00213609
-3.43208e-05
0.00215432
-3.47224e-05
0.00217278
-3.50866e-05
0.00219145
-3.54087e-05
0.00221027
-3.56837e-05
0.00222921
-3.59068e-05
0.00224821
-3.60735e-05
0.00226724
-3.61805e-05
0.00228624
-3.6225e-05
0.00230517
-3.62065e-05
0.00232401
-3.61237e-05
0.00234272
-3.59785e-05
0.00236126
-3.57727e-05
0.00237961
-3.55087e-05
0.00239775
-3.51891e-05
0.00241564
-3.4816e-05
0.00243327
-3.43911e-05
0.00245061
-3.39152e-05
0.00246764
-3.33879e-05
0.00248433
-3.28102e-05
0.00250065
-3.21794e-05
0.00251657
-3.14955e-05
0.00253207
-3.0758e-05
0.00254711
-2.99666e-05
0.00256167
-2.91214e-05
0.0025757
-2.82238e-05
0.00258919
-2.72746e-05
0.0026021
-2.62756e-05
0.00261441
-2.52281e-05
0.00262608
-2.41347e-05
0.00263709
-2.29966e-05
0.00264742
-2.18162e-05
0.00265704
-2.0596e-05
0.00266595
-1.93366e-05
0.00267411
-1.80399e-05
0.00268151
-1.67074e-05
0.00268815
-1.53407e-05
0.002694
-1.39403e-05
0.00269907
-1.25054e-05
0.00270335
-1.10371e-05
0.00270684
-9.53596e-06
0.00270954
-7.99841e-06
0.00271147
-6.42396e-06
0.00271265
-4.81147e-06
0.00271309
-3.15704e-06
0.00271282
-1.44946e-06
0.00271187
3.04051e-07
0.0027103
2.0961e-06
0.00270811
3.97916e-06
0.00270529
5.95288e-06
0.00270187
8.02333e-06
0.00269786
1.01971e-05
0.00269329
1.24763e-05
0.00268816
1.48551e-05
0.00268243
1.73184e-05
0.00267603
1.9845e-05
0.00266885
2.24173e-05
0.0026608
2.50306e-05
0.00265178
2.76991e-05
0.00264171
3.04526e-05
0.00263049
3.3327e-05
0.00261804
3.63522e-05
0.00260424
3.95427e-05
0.00258896
4.28932e-05
0.00257208
4.63774e-05
0.00255348
4.9946e-05
0.00253308
5.35238e-05
0.00251081
5.70069e-05
0.0024867
6.02655e-05
0.00246093
6.31611e-05
0.00243396
6.55761e-05
0.00240663
6.743e-05
0.00238006
6.86334e-05
0.00235524
6.89541e-05
0.00233262
6.78683e-05
0.00231204
6.46068e-05
0.00229327
5.85218e-05
0.00227663
4.96158e-05
0.00226284
3.88699e-05
0.00225233
2.80884e-05
0.00224464
1.92269e-05
0.00223856
1.35577e-05
0.00223269
1.1207e-05
0.00222613
1.13549e-05
0.00221862
1.28613e-05
0.00221026
1.48197e-05
0.00220131
1.67856e-05
0.00219189
1.86948e-05
0.00218189
2.06728e-05
0.00217106
2.28581e-05
0.00215905
2.52976e-05
0.00214557
2.79297e-05
0.00213041
3.06289e-05
0.00211351
3.32684e-05
0.00209486
3.57598e-05
0.00207456
3.80605e-05
0.00205271
4.0162e-05
0.00202947
4.20718e-05
0.002005
4.38034e-05
0.00197946
4.53764e-05
0.00195302
4.68204e-05
0.0019258
4.81755e-05
0.0018979
4.94885e-05
0.00186933
5.08024e-05
0.0018401
5.21459e-05
0.00181016
5.35286e-05
0.00177945
5.49434e-05
0.00174794
5.63715e-05
0.00171562
5.77908e-05
0.00168248
5.91832e-05
0.00164856
6.05345e-05
0.00161389
6.18368e-05
0.00157853
6.3092e-05
0.0015425
6.43097e-05
0.00150584
6.55062e-05
0.00146855
6.66959e-05
0.00143066
6.78907e-05
0.00139214
6.90998e-05
0.00135297
7.03287e-05
0.00131314
7.1583e-05
0.00127261
7.28679e-05
0.00123134
7.41886e-05
0.00118929
7.55504e-05
0.00114639
7.69583e-05
0.00110257
7.84209e-05
0.00105776
7.99427e-05
0.00101186
8.15247e-05
0.000964782
8.31642e-05
0.000916419
8.48461e-05
0.000866683
8.65516e-05
0.000815512
8.82434e-05
0.000762871
8.9879e-05
0.000708768
9.14106e-05
0.000653266
9.27811e-05
0.000596488
9.39326e-05
0.000538605
9.48173e-05
0.000479823
9.54025e-05
0.000420363
9.56709e-05
0.000360434
9.56275e-05
0.000300209
9.52989e-05
0.000239759
9.48003e-05
0.000178924
9.44232e-05
0.000117692
9.3815e-05
5.81422e-05
9.17139e-05
9.7698e-05
4.08163e-05
-0.000142811
8.83786e-05
-0.000165737
0.000132435
-0.000156282
0.000174575
-0.000151716
0.000216417
-0.000150928
0.00025846
-0.000150902
0.00030074
-0.000150823
0.000343255
-0.000150728
0.000386042
-0.000150696
0.000429145
-0.000150731
0.000472608
-0.000150825
0.000516466
-0.000150963
0.00056075
-0.000151143
0.000605482
-0.000151356
0.000650674
-0.000151597
0.000696332
-0.000151858
0.000742447
-0.000152126
0.000789003
-0.000152389
0.00083597
-0.000152629
0.000883307
-0.000152827
0.000930964
-0.000152965
0.000978879
-0.000153022
0.00102698
-0.000152977
0.0010752
-0.000152812
0.00112344
-0.000152511
0.00117164
-0.000152064
0.00121971
-0.000151465
0.00126758
-0.000150714
0.00131518
-0.000149816
0.00136245
-0.000148777
0.00140936
-0.000147605
0.00145585
-0.000146308
0.00150188
-0.000144891
0.00154741
-0.000143362
0.00159242
-0.000141728
0.00163686
-0.000139998
0.00168069
-0.000138181
0.00172388
-0.000136283
0.0017664
-0.000134309
0.00180821
-0.000132261
0.00184929
-0.000130137
0.00188961
-0.00012793
0.00192917
-0.00012563
0.00196793
-0.000123228
0.00200589
-0.000120713
0.00204304
-0.000118077
0.00207937
-0.000115317
0.00211487
-0.00011243
0.00214956
-0.000109422
0.00218345
-0.000106299
0.00221655
-0.000103073
0.00224888
-9.97552e-05
0.00228045
-9.63611e-05
0.00231129
-9.2905e-05
0.00234139
-8.94012e-05
0.00237076
-8.5864e-05
0.00239936
-8.2307e-05
0.00242718
-7.87427e-05
0.00245418
-7.5182e-05
0.00248032
-7.16343e-05
0.00250556
-6.81068e-05
0.00252986
-6.46048e-05
0.00255319
-6.11321e-05
0.00257553
-5.76908e-05
0.00259684
-5.42821e-05
0.00261713
-5.09064e-05
0.00263638
-4.75634e-05
0.00265457
-4.42521e-05
0.00267169
-4.09714e-05
0.00268774
-3.77197e-05
0.0027027
-3.44959e-05
0.00271657
-3.12991e-05
0.00272932
-2.81294e-05
0.00274096
-2.49875e-05
0.00275147
-2.18752e-05
0.00276087
-1.87951e-05
0.00276914
-1.57505e-05
0.00277631
-1.27456e-05
0.00278237
-9.78482e-06
0.00278733
-6.87281e-06
0.00279121
-4.01351e-06
0.00279401
-1.21067e-06
0.00279572
1.55139e-06
0.00279639
4.22859e-06
0.00279602
6.85842e-06
0.00279465
9.42449e-06
0.0027923
1.19244e-05
0.002789
1.43611e-05
0.00278477
1.6729e-05
0.00277964
1.90234e-05
0.00277366
2.1243e-05
0.00276684
2.33872e-05
0.00275922
2.5453e-05
0.00275082
2.74395e-05
0.00274168
2.93502e-05
0.00273181
3.11878e-05
0.00272125
3.29569e-05
0.00271001
3.4662e-05
0.00269812
3.63078e-05
0.0026856
3.78972e-05
0.00267247
3.94313e-05
0.00265877
4.09092e-05
0.00264452
4.23287e-05
0.00262974
4.36861e-05
0.00261447
4.49782e-05
0.00259876
4.62023e-05
0.00258262
4.73569e-05
0.00256611
4.84421e-05
0.00254925
4.94588e-05
0.0025321
5.04083e-05
0.00251467
5.12922e-05
0.00249701
5.21115e-05
0.00247915
5.28667e-05
0.00246111
5.35576e-05
0.00244293
5.41841e-05
0.00242461
5.4746e-05
0.0024062
5.5243e-05
0.00238771
5.5675e-05
0.00236917
5.60421e-05
0.00235058
5.63444e-05
0.00233198
5.65823e-05
0.00231339
5.67561e-05
0.00229482
5.68664e-05
0.0022763
5.69137e-05
0.00225784
5.68985e-05
0.00223945
5.68217e-05
0.00222117
5.66845e-05
0.002203
5.6489e-05
0.00218496
5.62374e-05
0.00216705
5.5933e-05
0.00214929
5.55795e-05
0.00213168
5.51815e-05
0.00211424
5.47436e-05
0.00209696
5.42709e-05
0.00207985
5.37679e-05
0.00206291
5.32386e-05
0.00204616
5.26859e-05
0.0020296
5.21113e-05
0.00201322
5.15146e-05
0.00199705
5.08936e-05
0.00198108
5.02452e-05
0.00196532
4.95649e-05
0.00194977
4.88483e-05
0.00193446
4.80921e-05
0.00191939
4.72942e-05
0.00190458
4.64551e-05
0.00189006
4.55778e-05
0.00187585
4.46676e-05
0.00186198
4.37324e-05
0.00184849
4.27811e-05
0.00183539
4.18232e-05
0.00182274
4.08671e-05
0.00181055
3.99193e-05
0.00179889
3.89832e-05
0.00178781
3.806e-05
0.00177737
3.71489e-05
0.00176766
3.6248e-05
0.00175877
3.53547e-05
0.00175078
3.44649e-05
0.00174375
3.35709e-05
0.00173772
3.2658e-05
0.00173271
3.17013e-05
0.0017287
3.06658e-05
0.00172569
2.95055e-05
0.00172364
2.81605e-05
0.00172244
2.65762e-05
0.00172191
2.48086e-05
0.00172185
2.28602e-05
0.00172203
2.07302e-05
0.00172225
1.84264e-05
0.00172238
1.59559e-05
0.0017224
1.33296e-05
0.00172239
1.05714e-05
0.00172254
7.72449e-06
0.00172303
4.85171e-06
0.00172399
2.04178e-06
0.00172532
-5.68906e-07
0.00172746
-3.37845e-06
0.00173044
-6.0018e-06
0.00173417
-8.53174e-06
0.00173863
-1.10018e-05
0.00174381
-1.34281e-05
0.00174967
-1.58185e-05
0.00175621
-1.81769e-05
0.00176341
-2.05024e-05
0.00177126
-2.2791e-05
0.00177974
-2.50364e-05
0.00178885
-2.72313e-05
0.00179858
-2.9367e-05
0.00180891
-3.1435e-05
0.00181985
-3.34263e-05
0.00183139
-3.53326e-05
0.00184352
-3.71465e-05
0.00185624
-3.88642e-05
0.00186952
-4.04842e-05
0.00188337
-4.20028e-05
0.00189777
-4.34237e-05
0.0019127
-4.47493e-05
0.00192814
-4.59836e-05
0.00194407
-4.7135e-05
0.00196046
-4.82075e-05
0.00197728
-4.92084e-05
0.0019945
-5.01424e-05
0.00201209
-5.10127e-05
0.00203003
-5.18212e-05
0.00204828
-5.2566e-05
0.0020668
-5.32459e-05
0.00208557
-5.38559e-05
0.00210455
-5.43913e-05
0.00212371
-5.48468e-05
0.00214302
-5.52172e-05
0.00216245
-5.54976e-05
0.00218195
-5.56841e-05
0.0022015
-5.57743e-05
0.00222106
-5.57668e-05
0.0022406
-5.56622e-05
0.00226008
-5.5462e-05
0.00227948
-5.51685e-05
0.00229876
-5.47847e-05
0.00231788
-5.43134e-05
0.00233682
-5.37571e-05
0.00235555
-5.31181e-05
0.00237403
-5.23978e-05
0.00239224
-5.15952e-05
0.00241014
-5.07126e-05
0.00242771
-4.97473e-05
0.00244491
-4.86991e-05
0.00246172
-4.75676e-05
0.00247811
-4.6353e-05
0.00249404
-4.50552e-05
0.00250949
-4.36747e-05
0.00252443
-4.22128e-05
0.00253883
-4.06719e-05
0.00255265
-3.90549e-05
0.00256588
-3.73638e-05
0.00257849
-3.56014e-05
0.00259044
-3.37704e-05
0.00260172
-3.18754e-05
0.0026123
-2.99175e-05
0.00262216
-2.78999e-05
0.00263128
-2.58256e-05
0.00263964
-2.36975e-05
0.00264721
-2.15181e-05
0.002654
-1.92912e-05
0.00265998
-1.70171e-05
0.00266515
-1.47007e-05
0.00266949
-1.23405e-05
0.002673
-9.93835e-06
0.00267568
-7.49435e-06
0.00267754
-5.00907e-06
0.00267857
-2.48501e-06
0.00267882
5.96008e-08
0.00267826
2.65635e-06
0.00267692
5.31694e-06
0.00267484
8.02918e-06
0.00267208
1.07885e-05
0.00266869
1.3589e-05
0.00266474
1.64198e-05
0.00266033
1.92663e-05
0.00265553
2.21144e-05
0.00265042
2.49576e-05
0.00264504
2.78035e-05
0.00263939
3.06752e-05
0.00263348
3.36056e-05
0.00262731
3.66287e-05
0.00262086
3.97712e-05
0.00261417
4.30488e-05
0.00260724
4.64658e-05
0.00260012
5.00153e-05
0.00259282
5.36775e-05
0.00258535
5.74152e-05
0.00257771
6.11672e-05
0.00256987
6.48442e-05
0.00256181
6.83276e-05
0.00255349
7.14784e-05
0.00254492
7.41495e-05
0.00253616
7.61906e-05
0.00252736
7.74303e-05
0.00251869
7.76299e-05
0.00251012
7.64349e-05
0.00250133
7.33955e-05
0.00249169
6.81677e-05
0.0024804
6.08988e-05
0.00246673
5.25392e-05
0.00245011
4.47095e-05
0.00243032
3.90205e-05
0.00240759
3.62866e-05
0.00238257
3.62245e-05
0.00235611
3.78126e-05
0.00232902
3.99528e-05
0.00230189
4.19486e-05
0.00227507
4.36052e-05
0.00224871
4.50635e-05
0.00222281
4.65721e-05
0.00219734
4.83244e-05
0.00217224
5.03944e-05
0.00214742
5.27503e-05
0.00212274
5.53077e-05
0.00209803
5.79799e-05
0.00207309
6.07026e-05
0.00204772
6.34319e-05
0.00202175
6.61293e-05
0.00199507
6.875e-05
0.00196763
7.12446e-05
0.00193944
7.35722e-05
0.00191054
7.57164e-05
0.00188102
7.76953e-05
0.00185095
7.95571e-05
0.00182039
8.13661e-05
0.00178935
8.31822e-05
0.00175783
8.50454e-05
0.00172581
8.6969e-05
0.00169324
8.89409e-05
0.0016601
9.09311e-05
0.00162638
9.29046e-05
0.00159208
9.48315e-05
0.00155723
9.669e-05
0.00152185
9.84719e-05
0.00148598
0.000100181
0.00144965
0.000101831
0.00141291
0.000103441
0.00137577
0.000105027
0.00133826
0.000106611
0.00130038
0.000108205
0.00126214
0.000109821
0.00122354
0.000111473
0.00118455
0.000113178
0.00114515
0.000114951
0.0011053
0.00011681
0.00106494
0.00011878
0.001024
0.000120886
0.000982371
0.000123149
0.000939945
0.000125589
0.000896575
0.000128217
0.000852098
0.000131029
0.000806332
0.000134009
0.000759093
0.000137118
0.000710207
0.000140297
0.000659517
0.000143471
0.000606908
0.000146542
0.000552316
0.000149409
0.000495748
0.000151971
0.000437289
0.00015413
0.000377117
0.0001558
0.000315478
0.000156938
0.000252672
0.000157606
0.000189183
0.000157912
0.000125914
0.000157084
6.41061e-05
0.000153522
0.000161804
4.29535e-05
-0.000185764
9.7289e-05
-0.000220073
0.000147826
-0.000206819
0.00019483
-0.00019872
0.000240881
-0.000196979
0.000287293
-0.000197313
0.000334254
-0.000197784
0.000381641
-0.000198115
0.000429374
-0.000198429
0.000477463
-0.00019882
0.000525929
-0.000199291
0.000574787
-0.000199822
0.000624038
-0.000200394
0.00067367
-0.000200987
0.00072366
-0.000201587
0.000773976
-0.000202173
0.000824575
-0.000202725
0.000875406
-0.00020322
0.000926411
-0.000203633
0.000977524
-0.00020394
0.00102868
-0.000204118
0.0010798
-0.000204143
0.00113082
-0.000203997
0.00118167
-0.000203661
0.00123228
-0.000203125
0.0012826
-0.000202381
0.00133256
-0.000201429
0.00138212
-0.000200274
0.00143123
-0.000198925
0.00147985
-0.000197396
0.00152794
-0.000195699
0.00157548
-0.000193847
0.00162244
-0.00019185
0.0016688
-0.000189719
0.00171453
-0.000187459
0.00175961
-0.000185078
0.00180401
-0.000182581
0.0018477
-0.000179972
0.00189065
-0.000177256
0.00193282
-0.000174435
0.00197419
-0.000171511
0.00201475
-0.000168484
0.00205447
-0.000165353
0.00209336
-0.000162115
0.00213141
-0.000158769
0.00216865
-0.000155311
0.00220507
-0.000151741
0.0022407
-0.00014806
0.00227555
-0.000144271
0.00230963
-0.00014038
0.00234295
-0.000136395
0.00237552
-0.000132323
0.00240733
-0.000128174
0.00243839
-0.000123957
0.00246867
-0.00011968
0.00249815
-0.000115353
0.00252683
-0.000110982
0.00255466
-0.000106576
0.00258163
-0.000102143
0.00260768
-9.76908e-05
0.0026328
-9.32261e-05
0.00265695
-8.87568e-05
0.00268011
-8.42894e-05
0.00270225
-7.98301e-05
0.00272335
-7.53836e-05
0.0027434
-7.09535e-05
0.00276238
-6.65419e-05
0.00278027
-6.215e-05
0.00279708
-5.77782e-05
0.00281279
-5.3427e-05
0.00282739
-4.90968e-05
0.00284088
-4.47888e-05
0.00285326
-4.05053e-05
0.00286452
-3.62494e-05
0.00287467
-3.20253e-05
0.00288371
-2.78379e-05
0.00289165
-2.36926e-05
0.0028985
-1.9595e-05
0.00290427
-1.55505e-05
0.00290896
-1.1564e-05
0.00291258
-7.63948e-06
0.00291515
-3.78071e-06
0.00291673
-1.96786e-08
0.00291727
3.68141e-06
0.00291681
7.31852e-06
0.00291536
1.08721e-05
0.00291295
1.4339e-05
0.0029096
1.77127e-05
0.00290533
2.09958e-05
0.00290017
2.41808e-05
0.00289415
2.72719e-05
0.00288727
3.02636e-05
0.00287956
3.3158e-05
0.00287105
3.59539e-05
0.00286175
3.86532e-05
0.00285168
4.12592e-05
0.00284086
4.37731e-05
0.00282932
4.61985e-05
0.00281709
4.85357e-05
0.00280421
5.07861e-05
0.00279069
5.29477e-05
0.00277658
5.50192e-05
0.00276191
5.69983e-05
0.00274671
5.88823e-05
0.00273102
6.06693e-05
0.00271487
6.23582e-05
0.00269827
6.39488e-05
0.00268128
6.54414e-05
0.0026639
6.68373e-05
0.00264617
6.81385e-05
0.00262811
6.93464e-05
0.00260976
7.04627e-05
0.00259114
7.14888e-05
0.00257227
7.24258e-05
0.00255318
7.32745e-05
0.00253389
7.40359e-05
0.00251442
7.47105e-05
0.0024948
7.52993e-05
0.00247504
7.5803e-05
0.00245516
7.62225e-05
0.00243518
7.65588e-05
0.00241513
7.68128e-05
0.00239501
7.69854e-05
0.00237484
7.70779e-05
0.00235465
7.70917e-05
0.00233444
7.70283e-05
0.00231424
7.68899e-05
0.00229405
7.6679e-05
0.00227389
7.63986e-05
0.00225377
7.60525e-05
0.0022337
7.56447e-05
0.0022137
7.51796e-05
0.00219379
7.46616e-05
0.00217396
7.40947e-05
0.00215425
7.34819e-05
0.00213466
7.28256e-05
0.00211522
7.21263e-05
0.00209595
7.13836e-05
0.00207687
7.05954e-05
0.002058
6.97589e-05
0.00203938
6.88705e-05
0.00202102
6.79267e-05
0.00200294
6.69248e-05
0.00198517
6.58632e-05
0.00196772
6.4742e-05
0.00195061
6.35629e-05
0.00193386
6.23293e-05
0.00191748
6.1046e-05
0.0019015
5.97184e-05
0.00188593
5.83524e-05
0.0018708
5.69532e-05
0.00185614
5.55255e-05
0.00184198
5.40728e-05
0.00182837
5.25975e-05
0.00181533
5.11006e-05
0.0018029
4.95819e-05
0.0017911
4.80393e-05
0.00177999
4.64689e-05
0.00176959
4.48639e-05
0.00175995
4.32143e-05
0.0017511
4.15067e-05
0.00174308
3.97246e-05
0.00173589
3.7849e-05
0.00172954
3.58603e-05
0.00172396
3.374e-05
0.00171906
3.14721e-05
0.00171482
2.90551e-05
0.00171119
2.64843e-05
0.00170819
2.37319e-05
0.00170581
2.08063e-05
0.00170404
1.77276e-05
0.00170284
1.45234e-05
0.00170219
1.12278e-05
0.00170203
7.87786e-06
0.00170238
4.50463e-06
0.00170333
1.0927e-06
0.00170506
-2.29937e-06
0.00170723
-5.55164e-06
0.00171003
-8.7942e-06
0.00171349
-1.19957e-05
0.00171765
-1.51578e-05
0.00172249
-1.8276e-05
0.00172803
-2.13537e-05
0.00173424
-2.43834e-05
0.0017411
-2.73685e-05
0.00174861
-3.03e-05
0.00175675
-3.31754e-05
0.00176551
-3.59861e-05
0.00177486
-3.87262e-05
0.00178482
-4.13871e-05
0.00179535
-4.3964e-05
0.00180647
-4.64488e-05
0.00181816
-4.88361e-05
0.00183042
-5.11208e-05
0.00184323
-5.32989e-05
0.0018566
-5.53673e-05
0.0018705
-5.73252e-05
0.00188492
-5.91729e-05
0.00189985