/*--------------------------------*- C++ -*----------------------------------*\
| =========                 |                                                 |
| \\      /  F ield         | OpenFOAM: The Open Source CFD Toolbox           |
|  \\    /   O peration     | Version:  v2006                                 |
|   \\  /    A nd           | Website:  www.openfoam.com                      |
|    \\/     M anipulation  |                                                 |
\*---------------------------------------------------------------------------*/
FoamFile
{
    version     2.0;
    format      ascii;
    class       volScalarField;
    location    "12.1";
    object      p;
}
// * * * * * * * * * * * * * * * * * * * * * * * * * * * * * * * * * * * * * //

dimensions      [1 -1 -2 0 0 0 0];


internalField   nonuniform List<scalar> 
150000
(
16611.3
16611.9
16613.3
16615.5
16618.4
16622
16626.3
16631.2
16636.9
16643.3
16650.3
16658
16666.4
16675.5
16685.2
16695.5
16706.5
16718.2
16730.5
16743.4
16756.9
16771
16785.7
16801
16816.9
16833.2
16850.2
16867.6
16885.6
16904
16922.9
16942.2
16962
16982.1
17002.7
17023.6
17044.9
17066.4
17088.3
17110.4
17132.8
17155.5
17178.3
17201.3
17224.4
17247.7
17271
17294.4
17317.8
17341.3
17364.7
17388.1
17411.4
17434.6
17457.7
17480.6
17503.4
17526
17548.4
17570.5
17592.4
17614
17635.3
17656.2
17676.8
17696.9
17716.7
17736.1
17755
17773.4
17791.4
17808.9
17825.8
17842.3
17858.2
17873.5
17888.3
17902.5
17916.2
17929.2
17941.6
17953.4
17964.6
17975.1
17985.1
17994.4
18003
18011
18018.4
18025.2
18031.3
18036.7
18041.5
18045.8
18049.3
18052.3
18054.7
18056.4
18057.6
18058.2
18058.2
18057.7
18056.7
18055.1
18052.9
18050.3
18047.2
18043.6
18039.6
18035.1
18030.2
18024.8
18019.1
18012.9
18006.4
17999.6
17992.5
17985.1
17977.5
17969.7
17961.7
17953.6
17945.2
17936.8
17928.2
17919.5
17910.7
17901.9
17893
17884.1
17875.2
17866.3
17857.5
17848.7
17840
17831.4
17822.8
17814.4
17806.1
17798
17790
17782.3
17774.7
17767.3
17760.1
17753.2
17746.5
17740
17733.6
17727.5
17721.6
17716
17710.6
17705.4
17700.6
17696.2
17692
17688.3
17684.9
17681.7
17678.8
17676.1
17673.6
17671.3
17669.2
17667.4
17665.9
17664.7
17663.7
17663.1
17662.7
17662.6
17662.8
17663.2
17664
17665
17666.3
17667.8
17669.6
17671.7
17674
17676.6
17679.5
17682.7
17686.1
17689.7
17693.7
17698
17702.5
17707.3
17712.4
17717.8
17723.6
17729.6
17736
17742.7
17749.7
17757.1
17764.8
17772.9
17781.4
17790.2
17799.5
17809.2
17819.3
17829.9
17840.9
17852.4
17864.3
17876.8
17889.8
17903.3
17917.3
17931.9
17947.1
17962.8
17979.2
17996.1
18013.7
18032
18050.9
18070.5
18090.8
18111.8
18133.5
18155.9
18179.2
18203.2
18227.9
18253.5
18279.9
18307.2
18335.2
18364.1
18393.7
18424.1
18455.3
18487.6
18521.1
18555.9
18591.7
18628.2
18665.4
18703.5
18742.4
18782.2
18822.9
18864.7
18907.4
18951.1
18995.9
19041.6
19088.2
19135.8
19184.3
19233.8
19284.2
19335.6
19387.9
19441.1
19495.2
19550.1
19606
19662.7
19720.4
19778.8
19838.2
19898.2
19959
20020.3
20082.2
20144.7
20207.8
20271.4
20335.5
20400
20465.1
20530.6
20596.5
20662.9
20729.6
20796.7
20864.2
20932
21000.1
21068.4
21136.9
21205.5
21274.3
21343.2
21412.2
21481.2
21550.2
21619.2
21688.1
21756.9
21825.6
21894.2
21962.6
22030.7
22098.6
22166.3
22233.6
22300.6
22367.2
22433.5
22499.3
22564.7
22629.6
22694
22757.8
22821.1
22883.8
22945.9
23007.3
23068.1
23128.1
23187.5
23246.1
23303.9
23360.9
23417.1
23472.4
23526.8
23580.3
23633
23684.8
23735.6
23785.5
23834.4
23882.4
23929.3
23975.2
24020.1
24064
24106.8
24148.5
24189.2
24228.8
24267.2
24304.6
24340.9
24376.1
24410.1
24443.1
24474.9
24505.6
24535.2
24563.6
24591
24617.2
24642.3
24666.2
24689.1
24710.9
24731.5
24751.1
24769.6
24787
24803.3
24818.5
24832.7
24845.9
24858
24869
24879.1
24888.2
24896.2
24903.3
24909.4
24914.5
24918.8
24922
24924.4
24925.9
24926.5
24926.2
24925.1
24923.2
24920.4
24916.9
24912.5
24907.4
24901.5
24894.8
24887.5
24879.4
24870.6
24861.2
24851.1
24840.3
24828.9
24816.8
24804.2
24791
24777.2
24762.8
24747.9
24732.5
24716.6
24700.2
24683.2
24665.9
24648
24629.7
24611
24591.8
24572.2
24552.3
24531.9
24511.2
24490.1
24468.7
24447
24425
24402.7
24380.1
24357.3
24334.1
24310.7
24287
24263.1
24238.9
24214.6
24190
24165.3
24140.4
24115.3
24090.1
24064.7
24039.2
24013.6
23987.8
23962
23936.3
23910.5
23884.8
23859
23833.2
23807.4
23781.4
23755.4
23729.3
23703.2
23677.1
23650.9
23624.8
23598.7
23572.6
23546.5
23520.4
23494.4
23468.4
23442.4
23416.5
23390.6
23364.7
23338.9
23313.1
23287.4
23261.7
23236.2
23210.6
23185.2
23159.9
23134.6
23109.5
23084.6
23059.8
23035.1
23010.7
22986.6
22962.6
22939
22915.7
22892.8
22870.2
22848.1
22826.5
22805.4
22784.9
22765.1
22745.9
22727.5
22709.9
22693.2
22677.4
22662.5
22648.7
22635.9
22624.1
22613.6
22604.1
22595.8
22588.7
22582.8
22578.1
22574.4
22572.2
22570.9
16283.8
16284.4
16285.8
16288
16290.9
16294.5
16298.8
16303.8
16309.4
16315.8
16322.8
16330.5
16338.9
16348
16357.7
16368.1
16379.1
16390.7
16403
16415.9
16429.5
16443.6
16458.3
16473.6
16489.5
16505.9
16522.8
16540.2
16558.2
16576.6
16595.5
16614.9
16634.7
16654.8
16675.4
16696.3
16717.6
16739.2
16761.1
16783.3
16805.7
16828.3
16851.1
16874.1
16897.3
16920.6
16943.9
16967.3
16990.8
17014.3
17037.7
17061.1
17084.4
17107.6
17130.7
17153.7
17176.5
17199.1
17221.5
17243.7
17265.5
17287.2
17308.4
17329.4
17350
17370.2
17390
17409.3
17428.2
17446.7
17464.7
17482.2
17499.1
17515.6
17531.5
17546.9
17561.7
17575.9
17589.5
17602.5
17615
17626.8
17638
17648.6
17658.5
17667.8
17676.5
17684.5
17691.9
17698.6
17704.7
17710.2
17715
17719.2
17722.8
17725.7
17728.1
17729.9
17731
17731.6
17731.6
17731.1
17730
17728.4
17726.3
17723.6
17720.5
17716.9
17712.9
17708.4
17703.4
17698.1
17692.3
17686.1
17679.7
17672.8
17665.7
17658.4
17650.8
17642.9
17634.9
17626.8
17618.4
17609.9
17601.3
17592.6
17583.8
17574.9
17566
17557.1
17548.2
17539.3
17530.4
17521.6
17512.9
17504.3
17495.7
17487.3
17479
17470.9
17462.9
17455.1
17447.5
17440.1
17433
17426
17419.2
17412.7
17406.4
17400.3
17394.5
17388.8
17383.5
17378.4
17373.6
17369.2
17365.1
17361.2
17357.7
17354.5
17351.5
17348.8
17346.3
17344
17342
17340.2
17338.6
17337.4
17336.5
17335.8
17335.5
17335.4
17335.6
17336.1
17336.8
17337.8
17339.1
17340.6
17342.4
17344.5
17346.8
17349.4
17352.3
17355.5
17358.9
17362.5
17366.5
17370.7
17375.3
17380.1
17385.2
17390.6
17396.4
17402.4
17408.7
17415.4
17422.5
17429.8
17437.6
17445.7
17454.1
17463
17472.3
17481.9
17492
17502.6
17513.6
17525.1
17537
17549.5
17562.4
17575.9
17589.9
17604.5
17619.7
17635.4
17651.8
17668.7
17686.3
17704.5
17723.4
17743
17763.3
17784.3
17806
17828.4
17851.6
17875.6
17900.4
17925.9
17952.3
17979.5
18007.5
18036.4
18066.1
18096.7
18128.2
18160.8
18194.4
18228.9
18264.2
18300.3
18337.3
18375.2
18414.2
18454.2
18495.2
18537.1
18579.9
18623.7
18668.3
18714
18760.5
18808
18856.6
18906
18956.5
19007.9
19060.3
19113.5
19167.6
19222.6
19278.4
19335.1
19392.6
19451.1
19510.4
19570.7
19631.7
19693.3
19755.4
19817.9
19880.7
19944
20007.9
20072.3
20137.3
20202.8
20268.7
20335.2
20402.1
20469.3
20536.9
20604.8
20672.9
20741.3
20809.8
20878.5
20947.3
21016.2
21085.2
21154.2
21223.2
21292.2
21361.1
21429.9
21498.6
21567.1
21635.5
21703.7
21771.6
21839.3
21906.7
21973.7
22040.4
22106.7
22172.5
22237.9
22302.8
22367.2
22431
22494.3
22557.1
22619.2
22680.6
22741.4
22801.4
22860.7
22919.4
22977.2
23034.2
23090.4
23145.8
23200.3
23254
23306.7
23358.5
23409.3
23459.2
23508.2
23556.1
23603.1
23649
23693.9
23737.7
23780.5
23822.3
23862.9
23902.5
23941
23978.4
24014.7
24049.8
24083.9
24116.8
24148.7
24179.3
24208.9
24237.4
24264.7
24290.9
24316
24340
24362.8
24384.6
24405.2
24424.8
24443.3
24460.6
24477
24492.2
24506.4
24519.5
24531.6
24542.7
24552.7
24561.8
24569.8
24576.9
24583
24588.1
24592.3
24595.6
24597.9
24599.4
24600
24599.7
24598.6
24596.6
24593.9
24590.3
24585.9
24580.8
24574.9
24568.2
24560.8
24552.8
24544
24534.5
24524.4
24513.6
24502.2
24490.2
24477.5
24464.3
24450.5
24436.1
24421.2
24405.8
24389.9
24373.4
24356.5
24339.1
24321.3
24303
24284.2
24265.1
24245.5
24225.5
24205.1
24184.4
24163.3
24141.9
24120.2
24098.2
24075.9
24053.3
24030.4
24007.3
23983.8
23960.2
23936.2
23912.1
23887.7
23863.2
23838.4
23813.5
23788.4
23763.2
23737.8
23712.3
23686.7
23660.9
23635.1
23609.3
23583.5
23557.7
23531.9
23506.1
23480.2
23454.2
23428.2
23402.1
23375.9
23349.8
23323.7
23297.5
23271.4
23245.3
23219.3
23193.2
23167.2
23141.2
23115.2
23089.3
23063.4
23037.5
23011.7
22985.9
22960.2
22934.6
22909
22883.4
22858
22832.7
22807.4
22782.3
22757.3
22732.5
22707.9
22683.5
22659.3
22635.4
22611.7
22588.4
22565.4
22542.8
22520.7
22499.1
22477.9
22457.4
22437.5
22418.3
22399.9
22382.3
22365.5
22349.6
22334.7
22320.8
22308
22296.3
22285.7
22276.2
22268
22260.9
22255
22250.2
22246.5
22244.2
22243.1
15955.7
15956.4
15957.8
15960
15962.9
15966.5
15970.8
15975.7
15981.4
15987.8
15994.8
16002.5
16010.9
16020
16029.7
16040.1
16051.1
16062.8
16075.1
16088
16101.6
16115.7
16130.4
16145.8
16161.6
16178.1
16195
16212.5
16230.5
16248.9
16267.9
16287.2
16307.1
16327.3
16347.9
16368.8
16390.1
16411.8
16433.7
16455.9
16478.3
16501
16523.9
16546.9
16570.1
16593.4
16616.8
16640.3
16663.8
16687.3
16710.7
16734.2
16757.5
16780.8
16803.9
16826.9
16849.8
16872.4
16894.8
16917
16938.9
16960.6
16981.9
17002.9
17023.5
17043.7
17063.5
17082.9
17101.9
17120.4
17138.4
17155.9
17172.9
17189.4
17205.3
17220.7
17235.5
17249.7
17263.4
17276.4
17288.9
17300.7
17311.9
17322.4
17332.4
17341.7
17350.3
17358.3
17365.7
17372.5
17378.6
17384
17388.8
17393
17396.6
17399.6
17401.9
17403.7
17404.8
17405.4
17405.4
17404.9
17403.7
17402.1
17400
17397.3
17394.1
17390.5
17386.4
17381.9
17376.9
17371.5
17365.8
17359.6
17353.1
17346.3
17339.2
17331.8
17324.2
17316.3
17308.3
17300
17291.6
17283.1
17274.5
17265.7
17256.9
17248
17239.1
17230.1
17221.2
17212.3
17203.4
17194.5
17185.8
17177.1
17168.6
17160.1
17151.8
17143.7
17135.7
17127.9
17120.3
17112.8
17105.6
17098.6
17091.9
17085.3
17079
17072.9
17067.1
17061.5
17056.1
17051
17046.2
17041.7
17037.6
17033.7
17030.2
17027
17024.1
17021.3
17018.8
17016.5
17014.5
17012.7
17011.2
17010
17009.1
17008.5
17008.1
17008
17008.2
17008.7
17009.4
17010.4
17011.7
17013.2
17015
17017.1
17019.4
17022
17024.9
17028
17031.4
17035.1
17039.1
17043.3
17047.9
17052.7
17057.8
17063.2
17068.9
17074.9
17081.3
17087.9
17095
17102.3
17110
17118.1
17126.6
17135.4
17144.7
17154.3
17164.4
17175
17185.9
17197.4
17209.3
17221.8
17234.7
17248.2
17262.2
17276.7
17291.9
17307.6
17323.9
17340.8
17358.4
17376.6
17395.5
17415.1
17435.3
17456.3
17478
17500.4
17523.6
17547.5
17572.2
17597.8
17624.1
17651.3
17679.3
17708.2
17737.9
17768.5
17800
17832.3
17865.8
17900.2
17935.6
17971.9
18009.1
18047.1
18086.1
18125.9
18166.8
18208.6
18251.3
18295.1
18339.8
18385.5
18432.1
18479.7
18528.2
18577.7
18628.1
18679.5
18731.8
18785
18839.1
18894
18949.7
19006.4
19064
19122.5
19181.9
19242.1
19303
19364.6
19426.6
19489.2
19552.3
19615.9
19680
19744.6
19809.7
19875.3
19941.3
20007.7
20074.6
20141.8
20209.4
20277.2
20345.4
20413.8
20482.3
20551.1
20619.9
20688.9
20757.9
20827
20896.1
20965.1
21034.1
21103
21171.8
21240.4
21308.8
21377
21445
21512.7
21580.2
21647.3
21714
21780.3
21846.2
21911.7
21976.6
22041.1
22105
22168.4
22231.1
22293.3
22354.7
22415.6
22475.7
22535.1
22593.7
22651.5
22708.6
22764.8
22820.2
22874.8
22928.4
22981.1
23033
23083.8
23133.7
23182.7
23230.6
23277.6
23323.5
23368.4
23412.3
23455.1
23496.8
23537.5
23577.1
23615.6
23653
23689.2
23724.4
23758.5
23791.4
23823.2
23853.9
23883.5
23911.9
23939.2
23965.4
23990.5
24014.5
24037.3
24059.1
24079.7
24099.2
24117.7
24135.1
24151.4
24166.6
24180.8
24193.9
24205.9
24217
24227
24236
24244.1
24251.1
24257.2
24262.3
24266.5
24269.7
24272.1
24273.5
24274.1
24273.8
24272.6
24270.7
24267.9
24264.2
24259.8
24254.7
24248.7
24242.1
24234.7
24226.5
24217.7
24208.3
24198.1
24187.3
24175.9
24163.8
24151.1
24137.9
24124.1
24109.7
24094.8
24079.3
24063.4
24046.9
24030
24012.6
23994.7
23976.4
23957.7
23938.5
23918.9
23898.9
23878.6
23857.8
23836.7
23815.3
23793.6
23771.6
23749.2
23726.6
23703.7
23680.5
23657
23633.3
23609.4
23585.2
23560.9
23536.3
23511.5
23486.6
23461.5
23436.3
23410.9
23385.4
23359.8
23334
23308.3
23282.5
23256.6
23230.8
23204.9
23179
23153
23127
23100.9
23074.8
23048.7
23022.6
22996.5
22970.4
22944.3
22918.2
22892.1
22866
22840
22814
22788.1
22762.1
22736.2
22710.4
22684.6
22658.8
22633.1
22607.4
22581.8
22556.3
22530.8
22505.4
22480.2
22455.1
22430.1
22405.3
22380.6
22356.1
22331.9
22307.9
22284.2
22260.8
22237.8
22215.2
22193
22171.3
22150.1
22129.5
22109.5
22090.3
22071.8
22054.1
22037.2
22021.3
22006.3
21992.4
21979.5
21967.7
21957.1
21947.6
21939.4
21932.3
21926.4
21921.9
21917.8
21915.6
21914.4
15627.2
15627.8
15629.2
15631.4
15634.3
15637.9
15642.2
15647.2
15652.9
15659.2
15666.3
15674
15682.4
15691.5
15701.2
15711.6
15722.7
15734.4
15746.7
15759.7
15773.2
15787.4
15802.2
15817.5
15833.4
15849.9
15866.9
15884.4
15902.4
15920.9
15939.9
15959.3
15979.1
15999.4
16020
16041
16062.4
16084.1
16106
16128.3
16150.8
16173.5
16196.4
16219.5
16242.8
16266.1
16289.6
16313.1
16336.7
16360.2
16383.7
16407.2
16430.7
16454
16477.2
16500.2
16523.1
16545.8
16568.3
16590.6
16612.5
16634.2
16655.6
16676.6
16697.3
16717.5
16737.4
16756.8
16775.8
16794.3
16812.4
16829.9
16846.9
16863.4
16879.4
16894.8
16909.6
16923.9
16937.6
16950.6
16963.1
16974.9
16986.1
16996.7
17006.7
17016
17024.6
17032.7
17040
17046.8
17052.9
17058.3
17063.2
17067.4
17070.9
17073.9
17076.2
17078
17079.1
17079.6
17079.6
17079
17077.9
17076.2
17074
17071.3
17068.1
17064.5
17060.3
17055.8
17050.7
17045.3
17039.5
17033.3
17026.8
17019.9
17012.8
17005.4
16997.7
16989.8
16981.7
16973.4
16965
16956.4
16947.7
16938.9
16930
16921.1
16912.1
16903.1
16894.1
16885.2
16876.2
16867.4
16858.6
16849.9
16841.3
16832.8
16824.5
16816.3
16808.3
16800.5
16792.8
16785.4
16778.2
16771.1
16764.4
16757.8
16751.5
16745.4
16739.6
16734
16728.7
16723.7
16719
16714.5
16710.3
16706.5
16702.9
16699.6
16696.5
16693.7
16691.1
16688.8
16686.8
16685
16683.6
16682.4
16681.5
16680.9
16680.5
16680.5
16680.7
16681.1
16681.9
16682.9
16684.1
16685.7
16687.5
16689.6
16691.9
16694.5
16697.3
16700.5
16703.9
16707.6
16711.5
16715.7
16720.2
16725.1
16730.1
16735.5
16741.2
16747.3
16753.6
16760.2
16767.2
16774.6
16782.3
16790.3
16798.8
16807.6
16816.8
16826.4
16836.5
16847
16858
16869.4
16881.3
16893.7
16906.6
16920
16934
16948.5
16963.6
16979.3
16995.6
17012.5
17030
17048.2
17067.1
17086.6
17106.8
17127.7
17149.4
17171.8
17194.9
17218.8
17243.5
17269
17295.4
17322.5
17350.5
17379.4
17409.1
17439.7
17471.2
17503.6
17537
17571.3
17606.6
17642.7
17679.8
17717.8
17756.8
17796.8
17837.7
17879.5
17922.3
17966.1
18010.8
18056.5
18103.1
18150.7
18199.3
18248.8
18299.2
18350.7
18403
18456.2
18510.4
18565.3
18621.2
18677.8
18735.3
18793.8
18853.1
18913.2
18974.2
19035.7
19097.8
19160.4
19223.6
19287.2
19351.4
19416.1
19481.3
19547
19613.1
19679.7
19746.6
19814
19881.6
19949.6
20017.8
20086.3
20154.9
20223.7
20292.7
20361.7
20430.8
20499.9
20569.1
20638.2
20707.2
20776.2
20845
20913.7
20982.2
21050.5
21118.6
21186.4
21253.9
21321
21387.8
21454.2
21520.2
21585.7
21650.8
21715.3
21779.3
21842.7
21905.5
21967.7
22029.3
22090.1
22150.3
22209.7
22268.4
22326.2
22383.3
22439.6
22495.1
22549.6
22603.3
22656.1
22707.9
22758.8
22808.8
22857.8
22905.7
22952.7
22998.7
23043.6
23087.5
23130.3
23172.1
23212.8
23252.4
23290.8
23328.2
23364.5
23399.7
23433.7
23466.7
23498.5
23529.2
23558.7
23587.2
23614.5
23640.7
23665.7
23689.7
23712.5
23734.3
23754.9
23774.4
23792.8
23810.2
23826.5
23841.7
23855.8
23868.9
23881
23892
23902
23911
23919
23926
23932
23937.1
23941.3
23944.5
23946.8
23948.2
23948.7
23948.4
23947.2
23945.2
23942.3
23938.7
23934.2
23929
23923.1
23916.4
23908.9
23900.8
23891.9
23882.4
23872.2
23861.4
23849.9
23837.8
23825.1
23811.9
23798
23783.6
23768.7
23753.2
23737.2
23720.7
23703.8
23686.3
23668.4
23650.1
23631.4
23612.2
23592.6
23572.6
23552.2
23531.4
23510.3
23488.8
23467.1
23445
23422.6
23399.9
23377
23353.8
23330.3
23306.6
23282.6
23258.4
23234
23209.4
23184.7
23159.7
23134.6
23109.3
23083.9
23058.4
23032.8
23007.1
22981.3
22955.5
22929.6
22903.7
22877.8
22851.8
22825.8
22799.7
22773.7
22747.6
22721.5
22695.4
22669.2
22643.1
22617
22591
22564.9
22538.9
22512.8
22486.8
22460.9
22435
22409.1
22383.2
22357.4
22331.6
22305.9
22280.2
22254.6
22229
22203.6
22178.2
22152.9
22127.7
22102.7
22077.8
22053.1
22028.6
22004.3
21980.3
21956.5
21933.1
21909.9
21887.2
21864.9
21843.1
21821.8
21801.1
21781
21761.7
21743
21725.2
21708.2
21692.2
21677.2
21663.1
21650.2
21638.3
21627.7
21618.1
21609.8
21602.7
21596.8
21592.1
21588.4
21586.1
21584.9
15298.1
15298.7
15300.1
15302.3
15305.2
15308.8
15313.1
15318.1
15323.8
15330.2
15337.2
15345
15353.4
15362.5
15372.3
15382.7
15393.8
15405.5
15417.9
15430.8
15444.4
15458.6
15473.5
15488.8
15504.8
15521.3
15538.3
15555.9
15573.9
15592.5
15611.5
15631
15650.9
15671.2
15691.9
15713
15734.4
15756.1
15778.2
15800.5
15823.1
15845.9
15868.9
15892
15915.4
15938.8
15962.3
15985.9
16009.5
16033.2
16056.8
16080.4
16103.9
16127.3
16150.6
16173.7
16196.7
16219.5
16242
16264.3
16286.4
16308.1
16329.5
16350.6
16371.3
16391.7
16411.6
16431.1
16450.1
16468.7
16486.8
16504.3
16521.4
16538
16554
16569.4
16584.3
16598.5
16612.2
16625.3
16637.8
16649.6
16660.9
16671.5
16681.4
16690.7
16699.4
16707.4
16714.8
16721.6
16727.7
16733.1
16737.9
16742.1
16745.7
16748.6
16750.9
16752.5
16753.6
16754.2
16754.2
16753.5
16752.4
16750.7
16748.4
16745.7
16742.4
16738.7
16734.5
16729.9
16724.8
16719.4
16713.5
16707.3
16700.7
16693.8
16686.6
16679.1
16671.4
16663.4
16655.2
16646.9
16638.4
16629.8
16621
16612.1
16603.2
16594.2
16585.2
16576.1
16567.1
16558.1
16549.1
16540.2
16531.3
16522.6
16514
16505.4
16497.1
16488.9
16480.8
16472.9
16465.3
16457.8
16450.6
16443.5
16436.7
16430.1
16423.8
16417.7
16411.9
16406.3
16400.9
16395.9
16391.1
16386.6
16382.5
16378.6
16375
16371.7
16368.7
16365.9
16363.4
16361.1
16359.1
16357.3
16355.9
16354.7
16353.8
16353.2
16352.8
16352.8
16353
16353.5
16354.2
16355.2
16356.4
16358
16359.8
16361.8
16364.1
16366.7
16369.6
16372.7
16376.1
16379.8
16383.7
16387.9
16392.4
16397.2
16402.3
16407.7
16413.4
16419.4
16425.7
16432.3
16439.3
16446.6
16454.2
16462.3
16470.7
16479.5
16488.6
16498.2
16508.3
16518.7
16529.6
16541
16552.9
16565.2
16578.1
16591.5
16605.4
16619.9
16635
16650.6
16666.8
16683.7
16701.2
16719.3
16738.1
16757.6
16777.8
16798.6
16820.3
16842.6
16865.7
16889.6
16914.3
16939.7
16966
16993.1
17021.1
17049.9
17079.6
17110.1
17141.6
17174
17207.3
17241.6
17276.8
17312.9
17350
17388
17427
17466.9
17507.8
17549.6
17592.4
17636.2
17681
17726.7
17773.4
17821
17869.6
17919.1
17969.6
18021.1
18073.4
18126.7
18180.9
18235.9
18291.8
18348.6
18406.2
18464.6
18523.9
18584
18644.8
18706.4
18768.5
18831.2
18894.4
18958.2
19022.5
19087.3
19152.7
19218.5
19284.7
19351.4
19418.4
19485.8
19553.6
19621.6
19689.9
19758.5
19827.2
19896.1
19965.2
20034.3
20103.5
20172.7
20242
20311.2
20380.3
20449.4
20518.3
20587.1
20655.7
20724.1
20792.3
20860.2
20927.8
20995
21061.9
21128.4
21194.4
21260
21325.1
21389.8
21453.8
21517.3
21580.2
21642.5
21704
21765
21825.3
21884.8
21943.5
22001.5
22058.7
22115
22170.5
22225.1
22278.8
22331.7
22383.6
22434.5
22484.5
22533.5
22581.5
22628.6
22674.5
22719.5
22763.4
22806.3
22848
22888.7
22928.3
22966.8
23004.2
23040.5
23075.7
23109.8
23142.7
23174.5
23205.2
23234.7
23263.2
23290.5
23316.7
23341.7
23365.6
23388.5
23410.2
23430.8
23450.3
23468.7
23486
23502.3
23517.4
23531.5
23544.6
23556.6
23567.6
23577.6
23586.5
23594.5
23601.5
23607.5
23612.5
23616.6
23619.8
23622.1
23623.5
23623.9
23623.5
23622.3
23620.2
23617.3
23613.6
23609.2
23603.9
23597.9
23591.1
23583.6
23575.4
23566.5
23557
23546.7
23535.8
23524.3
23512.2
23499.4
23486.1
23472.2
23457.8
23442.8
23427.3
23411.3
23394.7
23377.7
23360.3
23342.3
23324
23305.2
23286
23266.3
23246.3
23225.9
23205.1
23183.9
23162.5
23140.7
23118.5
23096.1
23073.4
23050.4
23027.2
23003.7
22979.9
22955.9
22931.7
22907.3
22882.7
22857.9
22832.9
22807.8
22782.5
22757.1
22731.5
22705.9
22680.2
22654.4
22628.5
22602.6
22576.7
22550.7
22524.7
22498.7
22472.6
22446.5
22420.4
22394.3
22368.2
22342.1
22315.9
22289.8
22263.8
22237.7
22211.7
22185.7
22159.7
22133.7
22107.8
22081.9
22056
22030.2
22004.4
21978.7
21953
21927.3
21901.8
21876.3
21850.9
21825.6
21800.4
21775.3
21750.4
21725.6
21701
21676.7
21652.5
21628.6
21605.1
21581.9
21559
21536.6
21514.6
21493.2
21472.3
21452.1
21432.5
21413.7
21395.8
21378.6
21362.5
21347.3
21333.1
21320.1
21308.1
21297.4
21287.8
21279.5
21272.3
21266.4
21261.8
21258.1
21255.8
21254.6
14968.4
14969.1
14970.5
14972.6
14975.5
14979.1
14983.5
14988.5
14994.2
15000.6
15007.7
15015.5
15023.9
15033
15042.8
15053.3
15064.4
15076.2
15088.6
15101.6
15115.2
15129.5
15144.3
15159.7
15175.7
15192.3
15209.4
15227
15245.1
15263.7
15282.8
15302.4
15322.3
15342.7
15363.5
15384.7
15406.2
15428
15450.1
15472.5
15495.2
15518.1
15541.2
15564.4
15587.8
15611.4
15635
15658.7
15682.4
15706.1
15729.9
15753.5
15777.2
15800.7
15824.1
15847.3
15870.4
15893.2
15915.9
15938.3
15960.4
15982.2
16003.7
16024.8
16045.6
16066
16086
16105.6
16124.7
16143.3
16161.4
16179.1
16196.2
16212.8
16228.9
16244.3
16259.2
16273.6
16287.3
16300.4
16312.9
16324.8
16336
16346.6
16356.6
16365.9
16374.6
16382.7
16390
16396.8
16402.9
16408.3
16413.1
16417.3
16420.8
16423.7
16426
16427.7
16428.8
16429.2
16429.1
16428.5
16427.2
16425.5
16423.2
16420.4
16417.1
16413.3
16409.1
16404.4
16399.2
16393.7
16387.7
16381.4
16374.8
16367.8
16360.5
16353
16345.2
16337.2
16328.9
16320.5
16311.9
16303.2
16294.4
16285.4
16276.4
16267.3
16258.2
16249.1
16240
16230.9
16221.9
16212.9
16204
16195.2
16186.5
16178
16169.5
16161.3
16153.2
16145.3
16137.6
16130.1
16122.8
16115.7
16108.9
16102.3
16095.9
16089.8
16084
16078.4
16073.1
16068
16063.3
16058.8
16054.6
16050.7
16047.1
16043.8
16040.7
16037.9
16035.4
16033.1
16031.1
16029.4
16027.9
16026.7
16025.8
16025.2
16024.8
16024.8
16025
16025.5
16026.2
16027.2
16028.5
16030
16031.8
16033.9
16036.2
16038.8
16041.6
16044.8
16048.1
16051.8
16055.7
16059.9
16064.4
16069.2
16074.3
16079.6
16085.3
16091.2
16097.5
16104.1
16111
16118.3
16125.9
16133.9
16142.3
16151
16160.2
16169.7
16179.7
16190.1
16201
16212.3
16224.1
16236.4
16249.3
16262.6
16276.5
16290.9
16305.9
16321.5
16337.7
16354.5
16371.9
16390
16408.7
16428.1
16448.2
16469.1
16490.6
16512.9
16535.9
16559.8
16584.4
16609.8
16636
16663.1
16691
16719.8
16749.4
16779.9
16811.3
16843.7
16877
16911.2
16946.3
16982.4
17019.5
17057.5
17096.4
17136.3
17177.2
17219.1
17261.9
17305.7
17350.4
17396.1
17442.8
17490.5
17539.1
17588.7
17639.3
17690.7
17743.2
17796.5
17850.7
17905.8
17961.8
18018.6
18076.2
18134.7
18194
18254.1
18315
18376.5
18438.7
18501.5
18564.8
18628.8
18693.2
18758.2
18823.6
18889.6
18955.9
19022.7
19089.9
19157.5
19225.3
19293.5
19361.9
19430.6
19499.4
19568.5
19637.6
19706.9
19776.2
19845.5
19914.9
19984.2
20053.5
20122.7
20191.8
20260.7
20329.4
20397.9
20466.2
20534.2
20601.9
20669.3
20736.3
20802.9
20869
20934.7
21000
21064.7
21128.8
21192.4
21255.4
21317.8
21379.5
21440.5
21500.8
21560.4
21619.3
21677.3
21734.5
21790.9
21846.5
21901.2
21955
22007.9
22059.8
22110.8
22160.9
22209.9
22258
22305.1
22351.1
22396.1
22440
22482.9
22524.7
22565.4
22605
22643.6
22681
22717.3
22752.5
22786.5
22819.5
22851.3
22881.9
22911.5
22939.9
22967.2
22993.4
23018.4
23042.3
23065.1
23086.8
23107.4
23126.9
23145.2
23162.5
23178.7
23193.9
23208
23221
23233
23243.9
23253.8
23262.7
23270.6
23277.6
23283.5
23288.5
23292.6
23295.7
23297.9
23299.2
23299.7
23299.2
23297.9
23295.8
23292.8
23289.1
23284.5
23279.2
23273.1
23266.3
23258.7
23250.5
23241.5
23231.9
23221.6
23210.6
23199.1
23186.9
23174.1
23160.7
23146.8
23132.3
23117.2
23101.7
23085.6
23069
23052
23034.5
23016.5
22998.1
22979.2
22960
22940.3
22920.2
22899.8
22878.9
22857.7
22836.2
22814.4
22792.2
22769.7
22747
22724
22700.7
22677.1
22653.3
22629.3
22605.1
22580.6
22555.9
22531.1
22506.1
22480.9
22455.6
22430.2
22404.6
22379
22353.2
22327.4
22301.5
22275.6
22249.6
22223.6
22197.5
22171.5
22145.4
22119.3
22093.2
22067.1
22040.9
22014.8
21988.7
21962.6
21936.5
21910.5
21884.4
21858.4
21832.4
21806.5
21780.6
21754.7
21728.8
21703
21677.2
21651.4
21625.7
21600.1
21574.5
21549
21523.5
21498.2
21472.9
21447.8
21422.8
21398
21373.3
21348.8
21324.6
21300.6
21276.9
21253.5
21230.5
21207.9
21185.7
21164.1
21143
21122.6
21102.9
21083.9
21065.7
21048.4
21032
21016.7
21002.3
20989.1
20977.1
20966.3
20956.7
20948.3
20941.1
20935.2
20930.5
20926.9
20924.6
20923.4
14638.3
14638.9
14640.3
14642.5
14645.4
14649
14653.3
14658.4
14664.1
14670.5
14677.7
14685.4
14693.9
14703.1
14712.9
14723.4
14734.6
14746.4
14758.8
14771.9
14785.6
14799.9
14814.8
14830.2
14846.3
14862.9
14880.1
14897.8
14916
14934.6
14953.8
14973.4
14993.5
15014
15034.8
15056.1
15077.7
15099.6
15121.8
15144.3
15167.1
15190.1
15213.3
15236.7
15260.2
15283.8
15307.6
15331.4
15355.2
15379.1
15402.9
15426.7
15450.5
15474.1
15497.6
15521
15544.1
15567.1
15589.9
15612.4
15634.6
15656.5
15678.1
15699.3
15720.2
15740.7
15760.7
15780.4
15799.6
15818.3
15836.5
15854.2
15871.4
15888
15904.1
15919.7
15934.6
15949
15962.8
15975.9
15988.5
16000.4
16011.6
16022.3
16032.3
16041.6
16050.3
16058.3
16065.7
16072.4
16078.5
16083.9
16088.7
16092.9
16096.4
16099.3
16101.5
16103.2
16104.2
16104.6
16104.5
16103.8
16102.5
16100.7
16098.3
16095.4
16092.1
16088.2
16083.9
16079.1
16073.9
16068.3
16062.3
16055.9
16049.1
16042.1
16034.7
16027.1
16019.2
16011.1
16002.7
15994.2
15985.6
15976.7
15967.8
15958.8
15949.7
15940.5
15931.3
15922.1
15912.9
15903.8
15894.6
15885.6
15876.6
15867.7
15859
15850.4
15841.9
15833.6
15825.4
15817.5
15809.7
15802.2
15794.9
15787.8
15780.9
15774.3
15767.9
15761.8
15755.9
15750.3
15744.9
15739.9
15735.1
15730.6
15726.4
15722.5
15718.9
15715.6
15712.5
15709.7
15707.2
15704.9
15703
15701.2
15699.8
15698.6
15697.8
15697.2
15696.9
15696.8
15696.9
15697.4
15698.1
15699.1
15700.4
15701.9
15703.7
15705.8
15708.1
15710.7
15713.5
15716.6
15720
15723.6
15727.6
15731.7
15736.2
15741
15746
15751.3
15757
15762.9
15769.1
15775.7
15782.6
15789.8
15797.4
15805.4
15813.7
15822.4
15831.5
15841
15850.9
15861.2
15872
15883.3
15895.1
15907.3
15920
15933.3
15947.1
15961.5
15976.4
15991.9
16008
16024.8
16042.1
16060.1
16078.8
16098.1
16118.2
16138.9
16160.4
16182.6
16205.6
16229.4
16253.9
16279.3
16305.4
16332.5
16360.3
16389
16418.6
16449.1
16480.4
16512.7
16545.9
16580.1
16615.2
16651.2
16688.2
16726.2
16765.1
16805
16845.9
16887.7
16930.5
16974.3
17019.1
17064.9
17111.6
17159.3
17208
17257.6
17308.2
17359.7
17412.2
17465.5
17519.8
17575
17631
17687.9
17745.7
17804.2
17863.6
17923.7
17984.7
18046.3
18108.5
18171.4
18234.9
18298.9
18363.5
18428.6
18494.2
18560.3
18626.8
18693.8
18761.1
18828.8
18896.8
18965.1
19033.7
19102.5
19171.5
19240.7
19310
19379.4
19448.8
19518.3
19587.8
19657.3
19726.7
19796.1
19865.3
19934.3
20003.2
20071.9
20140.3
20208.4
20276.3
20343.8
20410.9
20477.6
20543.9
20609.7
20675.1
20739.9
20804.2
20867.9
20931
20993.5
21055.3
21116.4
21176.9
21236.6
21295.5
21353.6
21411
21467.5
21523.1
21577.9
21631.8
21684.7
21736.8
21787.8
21837.9
21887.1
21935.2
21982.3
22028.4
22073.4
22117.4
22160.3
22202.1
22242.8
22282.5
22321
22358.5
22394.8
22430
22464
22497
22528.8
22559.5
22589
22617.4
22644.7
22670.8
22695.8
22719.7
22742.5
22764.2
22784.7
22804.2
22822.5
22839.8
22855.9
22871
22885
22898
22909.9
22920.8
22930.7
22939.6
22947.4
22954.3
22960.2
22965.1
22969.1
22972.2
22974.3
22975.6
22975.9
22975.4
22974
22971.8
22968.8
22965
22960.3
22954.9
22948.8
22941.9
22934.3
22925.9
22916.9
22907.2
22896.8
22885.8
22874.1
22861.9
22849
22835.6
22821.6
22807
22791.9
22776.3
22760.2
22743.5
22726.4
22708.9
22690.8
22672.4
22653.5
22634.1
22614.4
22594.3
22573.8
22552.9
22531.7
22510.1
22488.2
22466
22443.5
22420.7
22397.6
22374.3
22350.7
22326.9
22302.8
22278.5
22254
22229.3
22204.4
22179.4
22154.2
22128.8
22103.4
22077.8
22052.1
22026.3
22000.4
21974.5
21948.5
21922.5
21896.5
21870.4
21844.3
21818.2
21792.1
21765.9
21739.8
21713.7
21687.5
21661.4
21635.3
21609.2
21583.2
21557.2
21531.2
21505.2
21479.2
21453.3
21427.4
21401.5
21375.7
21349.9
21324.1
21298.4
21272.8
21247.1
21221.6
21196.1
21170.7
21145.4
21120.2
21095.1
21070.2
21045.4
21020.8
20996.4
20972.3
20948.4
20924.9
20901.7
20878.9
20856.5
20834.7
20813.4
20792.7
20772.7
20753.4
20735
20717.5
20700.9
20685.3
20670.8
20657.4
20645.3
20634.4
20624.7
20616.3
20609.1
20603.1
20598.5
20594.9
20592.5
20591.3
14307.6
14308.2
14309.7
14311.8
14314.7
14318.3
14322.7
14327.8
14333.5
14340
14347.1
14354.9
14363.4
14372.6
14382.5
14393
14404.2
14416.1
14428.6
14441.7
14455.4
14469.8
14484.8
14500.3
14516.4
14533.1
14550.4
14568.1
14586.4
14605.2
14624.4
14644.2
14664.3
14684.9
14705.9
14727.2
14748.9
14771
14793.3
14816
14838.8
14862
14885.3
14908.8
14932.5
14956.2
14980.1
15004.1
15028.1
15052
15076
15100
15123.8
15147.6
15171.2
15194.7
15218
15241.1
15264
15286.6
15309
15331
15352.7
15374.1
15395
15415.6
15435.8
15455.5
15474.8
15493.6
15511.9
15529.7
15546.9
15563.7
15579.8
15595.4
15610.4
15624.9
15638.7
15651.9
15664.4
15676.4
15687.7
15698.3
15708.3
15717.7
15726.4
15734.4
15741.8
15748.5
15754.6
15760
15764.8
15768.9
15772.4
15775.2
15777.5
15779.1
15780
15780.4
15780.2
15779.5
15778.1
15776.2
15773.8
15770.8
15767.4
15763.4
15759
15754.2
15748.9
15743.1
15737
15730.5
15723.7
15716.5
15709.1
15701.3
15693.4
15685.1
15676.7
15668.1
15659.3
15650.4
15641.3
15632.2
15623
15613.7
15604.4
15595.1
15585.8
15576.6
15567.4
15558.2
15549.2
15540.2
15531.4
15522.7
15514.1
15505.8
15497.6
15489.5
15481.7
15474.1
15466.8
15459.6
15452.7
15446.1
15439.7
15433.5
15427.6
15422
15416.7
15411.6
15406.8
15402.3
15398.1
15394.2
15390.6
15387.2
15384.2
15381.4
15378.8
15376.6
15374.6
15372.9
15371.5
15370.3
15369.4
15368.8
15368.5
15368.4
15368.6
15369.1
15369.8
15370.8
15372.1
15373.6
15375.4
15377.5
15379.8
15382.4
15385.2
15388.3
15391.7
15395.3
15399.2
15403.4
15407.8
15412.5
15417.5
15422.8
15428.4
15434.3
15440.5
15447.1
15453.9
15461.1
15468.6
15476.5
15484.8
15493.4
15502.4
15511.9
15521.7
15532
15542.8
15554
15565.6
15577.8
15590.5
15603.7
15617.4
15631.7
15646.5
15661.9
15678
15694.6
15711.9
15729.8
15748.4
15767.7
15787.6
15808.3