/*--------------------------------*- C++ -*----------------------------------*\
| =========                 |                                                 |
| \\      /  F ield         | OpenFOAM: The Open Source CFD Toolbox           |
|  \\    /   O peration     | Version:  v2006                                 |
|   \\  /    A nd           | Website:  www.openfoam.com                      |
|    \\/     M anipulation  |                                                 |
\*---------------------------------------------------------------------------*/
FoamFile
{
    version     2.0;
    format      ascii;
    class       volScalarField;
    location    "0";
    object      p;
}
// * * * * * * * * * * * * * * * * * * * * * * * * * * * * * * * * * * * * * //

dimensions      [1 -1 -2 0 0 0 0];


internalField   nonuniform List<scalar> 
20000
(
3.54134e-05
2.80303e-05
1.05094e-05
-1.94232e-05
-6.10379e-05
-0.000114167
-0.000180352
-0.000261702
-0.000359947
-0.000476678
-0.000613525
-0.000771827
-0.000952133
-0.0011537
-0.00137386
-0.00160733
-0.00184564
-0.00207712
-0.00228805
-0.00246558
-0.00260315
-0.00270737
-0.00280114
-0.00291478
-0.00306708
-0.00325197
-0.00344135
-0.003597
-0.00368146
-0.00366511
-0.00352675
-0.00324774
-0.00280798
-0.00218749
-0.00136728
-0.000327476
0.000950632
0.00247854
0.00425796
0.00628399
0.00854894
0.0110429
0.0137528
0.0166631
0.0197571
0.0230169
0.0264232
0.0299554
0.0335914
0.0373069
0.0410744
0.0448627
0.0486403
0.0523603
0.055977
0.0594293
0.0626622
0.0656109
0.0682045
0.0703691
0.0720297
0.0731143
0.073558
0.073309
0.0723344
0.0706259
0.0682047
0.0651234
0.061465
0.0573388
0.0528728
0.0482057
0.0434776
0.0388143
0.0343161
0.0300785
0.0261671
0.0226191
0.0194522
0.0166687
0.0142577
0.0121976
0.0104584
0.008999
0.00776617
0.00670162
0.00575629
0.00490263
0.00413847
0.00347902
0.00293919
0.00251912
0.00220392
0.00197236
0.00180329
0.00167782
0.0015808
0.00150139
0.00143234
0.00136896
0.00130845
0.0012493
0.00119083
0.00113286
0.00107545
0.00101883
0.000963264
0.000909025
0.000856351
0.000805444
0.00075646
0.000709513
0.000664678
0.000621994
0.000581473
0.000543102
0.000506848
0.000472661
0.00044048
0.000410237
0.000381855
0.000355254
0.00033035
0.000307059
0.000285298
0.000264983
0.000246034
0.00022837
0.000211916
0.000196597
0.000182343
0.000169087
0.000156764
0.000145313
0.000134678
0.000124799
0.000115629
0.000107118
9.92224e-05
9.18984e-05
8.51063e-05
7.88088e-05
7.29708e-05
6.75596e-05
6.2545e-05
5.78986e-05
5.35942e-05
4.96069e-05
4.59139e-05
4.24937e-05
3.93265e-05
3.63938e-05
3.36785e-05
3.11647e-05
2.88377e-05
2.66838e-05
2.46904e-05
2.28455e-05
2.11383e-05
1.95585e-05
1.80967e-05
1.67441e-05
1.54927e-05
1.43349e-05
1.32637e-05
1.22728e-05
1.13561e-05
1.05081e-05
9.72387e-06
8.9985e-06
8.32763e-06
7.70723e-06
7.13358e-06
6.60327e-06
6.11315e-06
5.6602e-06
5.24165e-06
4.85495e-06
4.49775e-06
4.16796e-06
3.86363e-06
3.58299e-06
3.32432e-06
3.08599e-06
2.86643e-06
2.66422e-06
2.47806e-06
2.30679e-06
2.14937e-06
2.00488e-06
1.87254e-06
1.7516e-06
1.6414e-06
1.54128e-06
1.45063e-06
1.36885e-06
1.29546e-06
1.22992e-06
1.17203e-06
1.12135e-06
3.62834e-05
2.89193e-05
1.14427e-05
-1.84173e-05
-5.99342e-05
-0.000112945
-0.000178993
-0.000260191
-0.000358282
-0.000474869
-0.000611609
-0.00076987
-0.000950251
-0.00115208
-0.00137276
-0.00160706
-0.00184645
-0.00207908
-0.00229093
-0.0024688
-0.00260566
-0.00270801
-0.00279949
-0.00291182
-0.00306471
-0.00325193
-0.00344455
-0.00360341
-0.00369045
-0.00367604
-0.00353939
-0.00326216
-0.00282412
-0.00220533
-0.00138689
-0.000348681
0.000928425
0.00245609
0.00423583
0.00626251
0.00852836
0.0110235
0.0137348
0.0166466
0.0197421
0.0230037
0.0264118
0.029946
0.0335841
0.0373021
0.0410727
0.0448642
0.0486369
0.0523458
0.0559626
0.059418
0.0626555
0.0656098
0.0682104
0.0703833
0.0720537
0.073149
0.073604
0.0733661
0.0724016
0.0707013
0.0682857
0.0652065
0.0615466
0.057415
0.0529398
0.0482578
0.0435049
0.0388115
0.0342964
0.0300509
0.0261351
0.0225851
0.0194179
0.0166353
0.0142263
0.012169
0.0104335
0.00897878
0.00775089
0.00669047
0.00574753
0.00489422
0.00412905
0.00346858
0.00292879
0.00250989
0.00219644
0.00196673
0.00179931
0.00167518
0.00157915
0.00150041
0.00143179
0.00136868
0.00130832
0.00124923
0.00119079
0.00113281
0.00107538
0.00101874
0.00096315
0.000908889
0.000856197
0.000805275
0.00075628
0.000709326
0.000664487
0.000621802
0.000581282
0.000542913
0.000506663
0.000472481
0.000440307
0.000410071
0.000381696
0.000355102
0.000330205
0.000306922
0.000285168
0.000264861
0.000245918
0.000228261
0.000211813
0.000196501
0.000182253
0.000169002
0.000156684
0.000145237
0.000134603
0.00012473
0.000115565
0.00010706
9.91686e-05
9.18489e-05
8.50608e-05
7.87669e-05
7.29323e-05
6.75242e-05
6.25124e-05
5.78686e-05
5.35665e-05
4.95814e-05
4.58903e-05
4.2472e-05
3.93064e-05
3.63753e-05
3.36614e-05
3.1149e-05
2.88232e-05
2.66704e-05
2.4678e-05
2.28341e-05
2.11278e-05
1.95488e-05
1.80877e-05
1.67358e-05
1.5485e-05
1.43278e-05
1.32571e-05
1.22667e-05
1.13504e-05
1.05029e-05
9.71908e-06
8.99406e-06
8.32352e-06
7.70343e-06
7.13006e-06
6.60002e-06
6.11015e-06
5.65743e-06
5.23908e-06
4.85256e-06
4.49554e-06
4.1659e-06
3.86173e-06
3.58123e-06
3.3227e-06
3.08449e-06
2.86504e-06
2.66293e-06
2.47686e-06
2.30567e-06
2.14832e-06
2.00391e-06
1.87162e-06
1.75075e-06
1.64061e-06
1.54054e-06
1.44993e-06
1.3682e-06
1.29484e-06
1.22934e-06
1.1715e-06
1.12078e-06
3.80212e-05
3.06952e-05
1.33071e-05
-1.64075e-05
-5.77288e-05
-0.000110501
-0.000176274
-0.00025717
-0.000354949
-0.000471247
-0.00060777
-0.000765957
-0.000946503
-0.00114884
-0.00137046
-0.00160621
-0.00184758
-0.00208254
-0.00229658
-0.0024755
-0.00261114
-0.0027097
-0.0027964
-0.00290584
-0.00305967
-0.00325139
-0.00345039
-0.00361577
-0.00370818
-0.00369786
-0.00356482
-0.0032912
-0.0028567
-0.00224141
-0.00142652
-0.000391439
0.000883788
0.00241108
0.00419153
0.00621954
0.00848721
0.0109847
0.0136987
0.0166135
0.0197123
0.0229772
0.026389
0.0299271
0.0335696
0.0372925
0.0410685
0.0448659
0.0486484
0.052379
0.056
0.0594673
0.0627176
0.0656851
0.0682993
0.0704857
0.0721686
0.0732746
0.0737373
0.0735032
0.0725373
0.07083
0.0684013
0.0653034
0.0616201
0.0574622
0.0529593
0.0482506
0.0434759
0.0387678
0.0342441
0.0299903
0.0260688
0.0225162
0.0193488
0.0165684
0.0141632
0.0121116
0.0103836
0.00893825
0.00772037
0.00666831
0.00573017
0.00487753
0.00411025
0.00344766
0.00290791
0.00249136
0.00218145
0.00195545
0.00179138
0.00166993
0.00157585
0.00149846
0.00143071
0.00136813
0.00130805
0.00124911
0.0011907
0.00113271
0.00107525
0.00101856
0.000962922
0.000908617
0.000855888
0.000804937
0.000755921
0.000708952
0.000664104
0.000621417
0.000580899
0.000542536
0.000506294
0.000472122
0.00043996
0.000409737
0.000381377
0.000354797
0.000329915
0.000306647
0.000284908
0.000264615
0.000245687
0.000228044
0.000211609
0.00019631
0.000182074
0.000168835
0.000156528
0.000145092
0.000134468
0.000124605
0.000115448
0.00010695
9.90666e-05
9.17538e-05
8.49722e-05
7.86843e-05
7.28554e-05
6.74526e-05
6.24459e-05
5.78068e-05
5.3509e-05
4.9528e-05
4.58408e-05
4.2426e-05
3.92637e-05
3.63357e-05
3.36247e-05
3.11149e-05
2.87916e-05
2.66412e-05
2.46509e-05
2.2809e-05
2.11045e-05
1.95272e-05
1.80677e-05
1.67173e-05
1.54679e-05
1.43119e-05
1.32424e-05
1.2253e-05
1.13378e-05
1.04913e-05
9.70825e-06
8.98403e-06
8.31423e-06
7.69483e-06
7.12211e-06
6.59267e-06
6.10334e-06
5.65111e-06
5.23322e-06
4.84713e-06
4.4905e-06
4.16123e-06
3.8574e-06
3.57723e-06
3.31899e-06
3.08104e-06
2.86183e-06
2.65995e-06
2.47408e-06
2.30308e-06
2.14591e-06
2.00166e-06
1.86952e-06
1.74879e-06
1.63877e-06
1.53882e-06
1.44831e-06
1.36667e-06
1.29339e-06
1.22796e-06
1.17018e-06
1.11952e-06
4.06225e-05
3.33535e-05
1.60982e-05
-1.33982e-05
-5.44256e-05
-0.00010684
-0.0001722
-0.000252638
-0.000349946
-0.000465806
-0.000601996
-0.000760057
-0.000940821
-0.00114389
-0.00136697
-0.00160504
-0.00184957
-0.00208816
-0.00230543
-0.00248576
-0.00261937
-0.002712
-0.00279131
-0.00289635
-0.00305178
-0.00325058
-0.00345951
-0.00363481
-0.00373519
-0.00373078
-0.00360295
-0.00333465
-0.00290539
-0.00229527
-0.00148572
-0.000455438
0.000816849
0.00234351
0.00412503
0.00615502
0.00842542
0.0109264
0.0136446
0.0165638
0.0196674
0.0229375
0.0263548
0.0298987
0.0335477
0.037278
0.0410625
0.0448701
0.0486641
0.0524051
0.0560408
0.0595237
0.0627913
0.0657778
0.0684119
0.0706186
0.0723212
0.0734451
0.0739224
0.0736977
0.0727348
0.0710226
0.0685804
0.0654608
0.0617488
0.057557
0.0530176
0.0482725
0.0434639
0.0387256
0.0341753
0.0299031
0.0259709
0.0224133
0.0192454
0.0164679
0.0140686
0.0120253
0.0103086
0.00887748
0.0076748
0.00663545
0.00570455
0.00485277
0.00408205
0.00341606
0.00287635
0.00246345
0.00215895
0.00193859
0.00177956
0.00166214
0.00157098
0.00149559
0.00142914
0.00136733
0.00130767
0.00124892
0.00119058
0.00113257
0.00107505
0.00101829
0.000962579
0.000908208
0.000855424
0.000804429
0.00075538
0.00070839
0.000663531
0.000620839
0.000580324
0.000541969
0.000505739
0.000471584
0.00043944
0.000409237
0.000380898
0.00035434
0.000329481
0.000306235
0.000284519
0.000264248
0.000245341
0.000227718
0.000211303
0.000196023
0.000181805
0.000168583
0.000156292
0.000144872
0.000134263
0.000124413
0.00011527
0.000106784
9.8912e-05
9.161e-05
8.48385e-05
7.85601e-05
7.274e-05
6.73455e-05
6.23465e-05
5.77146e-05
5.34235e-05
4.94487e-05
4.57672e-05
4.23578e-05
3.92005e-05
3.62771e-05
3.35704e-05
3.10646e-05
2.8745e-05
2.6598e-05
2.46109e-05
2.2772e-05
2.10702e-05
1.94955e-05
1.80383e-05
1.66901e-05
1.54427e-05
1.42885e-05
1.32208e-05
1.2233e-05
1.13193e-05
1.04741e-05
9.69237e-06
8.96934e-06
8.30063e-06
7.68224e-06
7.11047e-06
6.58189e-06
6.09336e-06
5.64187e-06
5.22465e-06
4.83917e-06
4.48312e-06
4.1544e-06
3.85108e-06
3.57137e-06
3.31356e-06
3.076e-06
2.85714e-06
2.65558e-06
2.47002e-06
2.2993e-06
2.14238e-06
1.99837e-06
1.86645e-06
1.74592e-06
1.63608e-06
1.53629e-06
1.44594e-06
1.36443e-06
1.29127e-06
1.22595e-06
1.16826e-06
1.11769e-06
4.40807e-05
3.68879e-05
1.98096e-05
-9.39568e-06
-5.00306e-05
-0.000101967
-0.000166772
-0.000246598
-0.00034327
-0.000458536
-0.000594265
-0.000752139
-0.000933176
-0.00113722
-0.00136222
-0.00160336
-0.00185207
-0.00209554
-0.00231729
-0.00249979
-0.00263084
-0.00271535
-0.0027843
-0.00288311
-0.00304064
-0.00324907
-0.00347149
-0.00366021
-0.00377125
-0.00377466
-0.00365376
-0.00339262
-0.00297038
-0.00236719
-0.0015649
-0.000541151
0.000727201
0.00225314
0.00403618
0.00606887
0.00834292
0.0108487
0.0135723
0.0164976
0.0196075
0.0228845
0.0263091
0.0298608
0.0335185
0.0372586
0.0410544
0.0448749
0.0486841
0.0524416
0.0560977
0.0596021
0.0628936
0.0659058
0.068567
0.070801
0.0725301
0.0736778
0.0741743
0.073962
0.0730022
0.0712824
0.0688209
0.0656708
0.0619186
0.0576797
0.0530899
0.0482944
0.0434387
0.0386595
0.034077
0.0297832
0.0258383
0.022275
0.0191066
0.0163334
0.013942
0.0119098
0.0102082
0.00879633
0.00761435
0.00659231
0.00567118
0.00482028
0.00404448
0.00337357
0.00283386
0.00242598
0.00212889
0.00191616
0.00176392
0.00165189
0.00156461
0.00149186
0.00142711
0.00136631
0.0013072
0.0012487
0.00119043
0.00113239
0.00107479
0.00101793
0.000962121
0.000907662
0.000854803
0.00080375
0.000754658
0.00070764
0.000662764
0.000620068
0.000579556
0.000541213
0.000504999
0.000470865
0.000438746
0.00040857
0.000380259
0.000353731
0.000328902
0.000305686
0.000283999
0.000263757
0.000244879
0.000227284
0.000210895
0.00019564
0.000181447
0.000168248
0.000155979
0.000144579
0.00013399
0.000124159
0.000115032
0.000106563
9.87064e-05
9.14187e-05
8.46606e-05
7.83948e-05
7.25863e-05
6.72028e-05
6.2214e-05
5.75916e-05
5.33094e-05
4.93428e-05
4.5669e-05
4.22667e-05
3.9116e-05
3.61988e-05
3.34978e-05
3.09974e-05
2.86827e-05
2.65403e-05
2.45575e-05
2.27225e-05
2.10244e-05
1.9453e-05
1.7999e-05
1.66537e-05
1.54089e-05
1.42573e-05
1.31919e-05
1.22062e-05
1.12945e-05
1.04511e-05
9.67111e-06
8.94966e-06
8.28241e-06
7.66539e-06
7.09488e-06
6.56747e-06
6.07999e-06
5.62948e-06
5.21316e-06
4.82852e-06
4.47325e-06
4.14526e-06
3.84262e-06
3.56353e-06
3.30629e-06
3.06924e-06
2.85086e-06
2.64973e-06
2.46458e-06
2.29423e-06
2.13766e-06
1.99396e-06
1.86234e-06
1.74207e-06
1.63248e-06
1.53292e-06
1.44276e-06
1.36143e-06
1.28844e-06
1.22325e-06
1.16569e-06
1.11523e-06
4.83871e-05
4.12894e-05
2.44327e-05
-4.40846e-06
-4.45519e-05
-9.58882e-05
-0.000159997
-0.00023905
-0.000334917
-0.000449422
-0.000584554
-0.000742162
-0.000923505
-0.00112872
-0.00135609
-0.00160107
-0.00185512
-0.00210491
-0.00233261
-0.00251812
-0.00264595
-0.00271975
-0.00277489
-0.00286533
-0.00302554
-0.00324652
-0.00348643
-0.00369238
-0.00381679
-0.00382975
-0.00371735
-0.00346512
-0.0030516
-0.00245707
-0.001664
-0.000648628
0.000614732
0.00213986
0.0039249
0.00596099
0.00823964
0.0107513
0.013482
0.0164147
0.0195327
0.0228182
0.0262519
0.0298133
0.0334817
0.0372341
0.041044
0.0448808
0.0487087
0.0524873
0.0561681
0.0596994
0.0630205
0.0660648
0.0687597
0.0710281
0.0727904
0.0739684
0.0744893
0.0742927
0.0733374
0.0716084
0.069123
0.0659347
0.0621321
0.0578342
0.0531811
0.0483224
0.0434076
0.0385772
0.0339544
0.029633
0.0256721
0.0221014
0.0189326
0.0161646
0.0137832
0.0117648
0.0100821
0.00869478
0.00753935
0.00653952
0.00563077
0.00478053
0.00399753
0.00331982
0.00278002
0.00237874
0.00209123
0.00188825
0.00174459
0.0016393
0.00155686
0.00148736
0.00142469
0.00136512
0.00130666
0.00124846
0.00119026
0.00113217
0.00107447
0.00101748
0.000961548
0.000906977
0.000854025
0.000802898
0.000753754
0.0007067
0.000661805
0.000619102
0.000578596
0.000540266
0.000504074
0.000469966
0.000437878
0.000407736
0.000379461
0.00035297
0.000328178
0.000305
0.00028335
0.000263145
0.000244301
0.000226741
0.000210385
0.000195162
0.000180999
0.000167829
0.000155587
0.000144213
0.000133649
0.000123841
0.000114736
0.000106288
9.84495e-05
9.11797e-05
8.44383e-05
7.81882e-05
7.23944e-05
6.70245e-05
6.20485e-05
5.7438e-05
5.31669e-05
4.92106e-05
4.55463e-05
4.21529e-05
3.90106e-05
3.6101e-05
3.34072e-05
3.09134e-05
2.8605e-05
2.64683e-05
2.44908e-05
2.26607e-05
2.09672e-05
1.94e-05
1.79499e-05
1.66082e-05
1.53668e-05
1.42183e-05
1.31558e-05
1.21728e-05
1.12635e-05
1.04225e-05
9.64459e-06
8.92511e-06
8.25969e-06
7.64437e-06
7.07543e-06
6.54947e-06
6.06332e-06
5.61402e-06
5.19883e-06
4.81524e-06
4.46094e-06
4.13385e-06
3.83206e-06
3.55374e-06
3.29721e-06
3.0608e-06
2.84301e-06
2.64244e-06
2.45779e-06
2.28791e-06
2.13177e-06
1.98847e-06
1.85721e-06
1.73728e-06
1.62799e-06
1.5287e-06
1.43879e-06
1.35769e-06
1.2849e-06
1.21989e-06
1.16249e-06
1.11217e-06
5.35308e-05
4.65474e-05
2.99564e-05
1.55269e-06
-3.79996e-05
-8.86128e-05
-0.00015188
-0.000229995
-0.000324881
-0.00043845
-0.000572829
-0.000730074
-0.000911727
-0.00111829
-0.00134847
-0.00159807
-0.00185865
-0.00211629
-0.00235157
-0.00254117
-0.00266523
-0.00272541
-0.00276268
-0.00284222
-0.00300573
-0.00324253
-0.00350431
-0.00373154
-0.00387202
-0.00389608
-0.00379366
-0.00355214
-0.00314905
-0.00256491
-0.00178315
-0.000778192
0.000479059
0.00200336
0.00379102
0.00583127
0.00811544
0.0106344
0.0133734
0.0163151
0.0194427
0.0227386
0.026183
0.029756
0.0334372
0.0372043
0.0410311
0.0448873
0.0487377
0.0525417
0.0562518
0.0598155
0.0631724
0.0662553
0.068991
0.0713009
0.0731038
0.0743184
0.0748692
0.0746922
0.0737426
0.0720027
0.0694885
0.0662539
0.0623901
0.0580205
0.0532905
0.0483551
0.0433685
0.0384759
0.0338045
0.0294502
0.0254705
0.0218916
0.0187225
0.0159612
0.0135918
0.0115899
0.00992995
0.00857269
0.00745016
0.00647789
0.00558426
0.00473414
0.0039412
0.00325433
0.00271435
0.00232146
0.00204593
0.00185493
0.00172172
0.00162455
0.00154785
0.00148219
0.00142196
0.00136381
0.00130609
0.00124821
0.00119008
0.00113193
0.00107409
0.00101694
0.000960858
0.000906151
0.000853087
0.000801873
0.000752664
0.000705568
0.000660651
0.000617941
0.000577441
0.000539129
0.000502962
0.000468887
0.000436836
0.000406735
0.000378503
0.000352056
0.00032731
0.000304177
0.000282571
0.00026241
0.000243609
0.000226089
0.000209774
0.000194588
0.000180462
0.000167326
0.000155118
0.000143775
0.00013324
0.000123459
0.000114381
0.000105957
9.81415e-05
9.08932e-05
8.41718e-05
7.79404e-05
7.21642e-05
6.68108e-05
6.18501e-05
5.72538e-05
5.2996e-05
4.9052e-05
4.53992e-05
4.20165e-05
3.88841e-05
3.59838e-05
3.32986e-05
3.08128e-05
2.85118e-05
2.6382e-05
2.44108e-05
2.25866e-05
2.08985e-05
1.93365e-05
1.78911e-05
1.65537e-05
1.53164e-05
1.41716e-05
1.31125e-05
1.21327e-05
1.12264e-05
1.03881e-05
9.61278e-06
8.89567e-06
8.23245e-06
7.61916e-06
7.05211e-06
6.52788e-06
6.04332e-06
5.59549e-06
5.18165e-06
4.79931e-06
4.44618e-06
4.12018e-06
3.8194e-06
3.54201e-06
3.28632e-06
3.05069e-06
2.83361e-06
2.63369e-06
2.44964e-06
2.28032e-06
2.1247e-06
1.98188e-06
1.85107e-06
1.73153e-06
1.62261e-06
1.52365e-06
1.43404e-06
1.35321e-06
1.28065e-06
1.21586e-06
1.15865e-06
1.1085e-06
5.94988e-05
5.26486e-05
3.63678e-05
8.47484e-06
-3.0386e-05
-8.01515e-05
-0.000142429
-0.000219438
-0.000313157
-0.000425601
-0.000559056
-0.000715811
-0.000897747
-0.00110581
-0.0013392
-0.00159421
-0.00186255
-0.00212974
-0.00237451
-0.00256962
-0.00268942
-0.0027326
-0.00274712
-0.00281266
-0.00298019
-0.00323653
-0.00352513
-0.00377807
-0.00393733
-0.00397381
-0.00388273
-0.0036537
-0.00326272
-0.00269067
-0.00192247
-0.000930173
0.000319789
0.00184338
0.00363437
0.00567955
0.0079702
0.0104977
0.0132466
0.0161988
0.0193376
0.0226455
0.0261025
0.0296889
0.033385
0.037169
0.0410154
0.0448943
0.0487707
0.0526046
0.0563487
0.0599502
0.0633489
0.0664771
0.0692606
0.0716195
0.0734701
0.0747283
0.0753148
0.0751613
0.0742189
0.0724667
0.0699188
0.0666296
0.0626934
0.058239
0.0534181
0.048392
0.0433207
0.0383547
0.0336262
0.0292339
0.0252331
0.021645
0.0184759
0.0157226
0.0133673
0.0113845
0.00975116
0.0084299
0.00734727
0.00640844
0.00553283
0.0046819
0.00387546
0.00317646
0.00263616
0.0022538
0.00199294
0.00181633
0.0016955
0.00160782
0.00153775
0.00147649
0.00141901
0.00136244
0.00130553
0.00124798
0.00118991
0.00113166
0.00107365
0.00101632
0.00096005
0.000905183
0.000851987
0.000800671
0.000751389
0.000704244
0.0006593
0.000616584
0.000576092
0.0005378
0.000501664
0.000467627
0.000435619
0.000405566
0.000377384
0.00035099
0.000326296
0.000303216
0.000281663
0.000261552
0.000242801
0.00022533
0.000209061
0.00019392
0.000179835
0.00016674
0.00015457
0.000143264
0.000132763
0.000123015
0.000113966
0.000105571
9.77825e-05
9.05591e-05
8.38612e-05
7.76517e-05
7.1896e-05
6.65617e-05
6.16188e-05
5.70392e-05
5.27968e-05
4.88672e-05
4.52279e-05
4.18576e-05
3.87368e-05
3.58472e-05
3.3172e-05
3.06955e-05
2.84031e-05
2.62813e-05
2.43176e-05
2.25003e-05
2.08186e-05
1.92624e-05
1.78225e-05
1.64902e-05
1.52576e-05
1.41171e-05
1.30621e-05
1.2086e-05
1.11832e-05
1.03481e-05
9.57572e-06
8.86136e-06
8.2007e-06
7.58979e-06
7.02494e-06
6.50273e-06
6.02002e-06
5.57389e-06
5.16163e-06
4.78075e-06
4.42898e-06
4.10426e-06
3.80464e-06
3.52834e-06
3.27363e-06
3.0389e-06
2.82265e-06
2.62349e-06
2.44015e-06
2.27149e-06
2.11647e-06
1.97421e-06
1.8439e-06
1.72484e-06
1.61634e-06
1.51776e-06
1.4285e-06
1.34798e-06
1.27571e-06
1.21117e-06
1.15417e-06
1.10422e-06
6.62759e-05
5.9578e-05
4.36515e-05
1.63427e-05
-2.17258e-05
-7.05174e-05
-0.000131654
-0.000207381
-0.00029974
-0.000410856
-0.000543191
-0.000699303
-0.000881455
-0.00109111
-0.00132809
-0.00158929
-0.00186672
-0.00214531
-0.00240174
-0.00260428
-0.00271947
-0.0027417
-0.00272751
-0.0027753
-0.00294765
-0.00322787
-0.00354894
-0.00383249
-0.00401319
-0.00406308
-0.00398451
-0.00376982
-0.00339259
-0.0028343
-0.0020821
-0.00110499
0.000136416
0.00165956
0.00345475
0.00550567
0.00780375
0.0103411
0.0131014
0.0160656
0.0192174
0.022539
0.0260103
0.0296117
0.0333247
0.0371281
0.0409967
0.0449013
0.0488076
0.0526754
0.0564583
0.0601032
0.0635497
0.0667299
0.0695685
0.071984
0.0738899
0.0751989
0.0758271
0.0757015
0.0747683
0.0730024
0.0704158
0.0670634
0.0630432
0.0584902
0.0535638
0.0484327
0.0432632
0.0382121
0.0334179
0.0289825
0.0249585
0.0213607
0.018192
0.0154483
0.0131093
0.0111479
0.00954503
0.00826617
0.00723122
0.00633243
0.005478
0.0046248
0.00380025
0.00308536
0.00254462
0.00217537
0.00193223
0.00177262
0.00166617
0.00158936
0.00152677
0.0014704
0.00141595
0.00136109
0.00130503
0.0012478
0.00118976
0.00113137
0.00107316
0.0010156
0.000959122
0.00090407
0.000850723
0.00079929
0.000749924
0.000702725
0.000657752
0.000615028
0.000574546
0.000536278
0.000500178
0.000466185
0.000434228
0.000404229
0.000376106
0.000349771
0.000325138
0.000302118
0.000280625
0.000260573
0.000241879
0.000224462
0.000208246
0.000193156
0.00017912
0.000166071
0.000153945
0.00014268
0.000132219
0.000122507
0.000113494
0.00010513
9.73726e-05
9.01778e-05
8.35066e-05
7.73221e-05
7.15898e-05
6.62773e-05
6.13548e-05
5.67942e-05
5.25695e-05
4.86563e-05
4.50322e-05
4.16762e-05
3.85686e-05
3.56913e-05
3.30276e-05
3.05617e-05
2.82791e-05
2.61665e-05
2.42112e-05
2.24018e-05
2.07273e-05
1.91779e-05
1.77443e-05
1.64177e-05
1.51904e-05
1.4055e-05
1.30045e-05
1.20328e-05
1.11339e-05
1.03024e-05
9.53342e-06
8.82221e-06
8.16448e-06
7.55627e-06
6.99392e-06
6.47401e-06
5.99342e-06
5.54924e-06
5.13877e-06
4.75957e-06
4.40936e-06
4.08608e-06
3.78781e-06
3.51273e-06
3.25914e-06
3.02544e-06
2.81014e-06
2.61185e-06
2.42932e-06
2.26141e-06
2.10708e-06
1.96545e-06
1.83573e-06
1.71719e-06
1.60918e-06
1.51104e-06
1.42218e-06
1.34202e-06
1.27007e-06
1.20581e-06
1.14907e-06
1.09933e-06
7.38446e-05
6.73179e-05
5.17898e-05
2.51388e-05
-1.20358e-05
-5.97256e-05
-0.000119568
-0.000193831
-0.000284625
-0.000394193
-0.000525189
-0.000680468
-0.000862726
-0.00107402
-0.00131491
-0.00158307
-0.00187096
-0.00216305
-0.00243386
-0.00264614
-0.00275661
-0.00275321
-0.00270302
-0.00272839
-0.00290654
-0.00321576
-0.00357583
-0.00389546
-0.0041002
-0.00416403
-0.00409896
-0.0039005
-0.0035386
-0.00299569
-0.00226217
-0.00130317
-7.16741e-05
0.00145148
0.00325196
0.00530945
0.0076159
0.0101646
0.0129378
0.0159156
0.0190819
0.022419
0.0259062
0.0295244
0.0332562
0.0370811
0.0409747
0.0449082
0.0488477
0.0527538
0.0565802
0.0602739
0.0637745
0.0670135
0.0699146
0.0723944
0.0743636
0.075731
0.0764076
0.0763147
0.0753928
0.073612
0.0709817
0.0675572
0.0634408
0.0587749
0.0537278
0.0484765
0.0431946
0.0380463
0.0331775
0.0286945
0.0246457
0.0210379
0.0178699
0.0151377
0.0128172
0.0108794
0.00931068
0.0080812
0.00710269
0.0062514
0.00542162
0.00456406
0.00371543
0.00297993
0.00243868
0.0020857
0.00186379
0.00172399
0.00163402
0.00156945
0.00151513
0.00146411
0.0014129
0.00135982
0.00130462
0.0012477
0.00118965
0.00113108
0.00107261
0.00101479
0.000958071
0.000902809
0.000849291
0.000797727
0.000748268
0.000701009
0.000656005
0.000613273
0.000572803
0.000534563
0.000498504
0.000464561
0.000432661
0.000402725
0.000374667
0.0003484
0.000323835
0.000300883
0.000279457
0.000259471
0.000240841
0.000223487
0.00020733
0.000192297
0.000178316
0.000165319
0.000153242
0.000142024
0.000131607
0.000121936
0.000112962
0.000104636
9.6912e-05
8.97493e-05
8.31082e-05
7.69518e-05
7.12457e-05
6.59579e-05
6.10583e-05
5.6519e-05
5.23141e-05
4.84194e-05
4.48125e-05
4.14724e-05
3.83796e-05
3.55162e-05
3.28653e-05
3.04113e-05
2.81398e-05
2.60375e-05
2.40917e-05
2.22911e-05
2.06248e-05
1.9083e-05
1.76563e-05
1.63363e-05
1.5115e-05
1.39851e-05
1.29398e-05
1.19729e-05
1.10784e-05
1.02511e-05
9.48591e-06
8.77823e-06
8.12378e-06
7.51862e-06
6.95907e-06
6.44175e-06
5.96354e-06
5.52155e-06
5.1131e-06
4.73578e-06
4.38732e-06
4.06566e-06
3.76889e-06
3.49519e-06
3.24287e-06
3.01033e-06
2.79609e-06
2.59878e-06
2.41716e-06
2.25008e-06
2.09653e-06
1.95562e-06
1.82655e-06
1.70861e-06
1.60114e-06
1.5035e-06
1.41508e-06
1.33532e-06
1.26373e-06
1.1998e-06
1.14334e-06
1.09385e-06
8.21855e-05
7.58488e-05
6.07631e-05
3.4843e-05
-1.33559e-06
-4.7794e-05
-0.000106183
-0.000178796
-0.000267808
-0.000375591
-0.000505002
-0.000659219
-0.00084142
-0.00105434
-0.0012994
-0.00157526
-0.00187505
-0.00218293
-0.00247127
-0.00269642
-0.00280239
-0.0027678
-0.00267259
-0.00266981
-0.00285499
-0.00319932
-0.00360597
-0.00396785
-0.00419911
-0.00427681
-0.00422597
-0.00404577
-0.00370072
-0.00317466
-0.00246282
-0.00152533
-0.000305226
0.00121868
0.00302577
0.00509069
0.00740643
0.00996792
0.0127558
0.0157486
0.0189312
0.0222855
0.0257901
0.0294268
0.0331792
0.0370279
0.040949
0.0449143
0.0488908
0.0528393
0.056714
0.060462
0.0640228
0.0673275
0.0702987
0.0728508
0.0748917
0.0763254
0.0770575
0.0770027
0.0760948
0.0742982
0.071619
0.0681131
0.0638876
0.0590935
0.0539097
0.0485227
0.0431136
0.0378551
0.0329028
0.0283677
0.0242932
0.0206753
0.0175089
0.01479
0.0124905
0.010578
0.00904698
0.00787452
0.00696246
0.00616721
0.00536599
0.00450119
0.0036208
0.00285872
0.00231703
0.0019843
0.00178766
0.00167072
0.00159942
0.00154842
0.0015031
0.00145779
0.00140999
0.00135873
0.00130437
0.00124771
0.00118959
0.00113078
0.00107202
0.0010139
0.000956896
0.000901397
0.000847688
0.00079598
0.000746418
0.000699093
0.000654055
0.000611316
0.000570861
0.000532654
0.00049664
0.000462754
0.000430918
0.000401052
0.000373067
0.000346876
0.000322387
0.000299511
0.000278161
0.000258248
0.000239689
0.000222404
0.000206314
0.000191344
0.000177424
0.000164485
0.000152462
0.000141296
0.000130928
0.000121303
0.000112372
0.000104086
9.64009e-05
8.92739e-05
8.26661e-05
7.65409e-05
7.08641e-05
6.56034e-05
6.07292e-05
5.62136e-05
5.20307e-05
4.81565e-05
4.45687e-05
4.12463e-05
3.817e-05
3.53219e-05
3.26852e-05
3.02445e-05
2.79853e-05
2.58943e-05
2.39592e-05
2.21683e-05
2.05111e-05
1.89777e-05
1.75588e-05
1.6246e-05
1.50314e-05
1.39077e-05
1.28681e-05
1.19065e-05
1.1017e-05
1.01942e-05
9.43321e-06
8.72946e-06
8.07865e-06
7.47685e-06
6.92042e-06
6.40597e-06
5.93039e-06
5.49083e-06
5.08463e-06
4.70939e-06
4.36288e-06
4.04302e-06
3.74791e-06
3.47574e-06
3.22482e-06
2.99356e-06
2.7805e-06
2.58428e-06
2.40367e-06
2.23752e-06
2.08483e-06
1.94471e-06
1.81636e-06
1.69909e-06
1.59222e-06
1.49513e-06
1.4072e-06
1.32789e-06
1.2567e-06
1.19312e-06
1.13698e-06
1.08776e-06
9.12768e-05
8.51488e-05
7.0549e-05
4.5433e-05
1.03529e-05
-3.47428e-05
-9.15171e-05
-0.000162286
-0.000249289
-0.000355028
-0.000482579
-0.00063546
-0.00081738
-0.00103183
-0.00128125
-0.0015655
-0.00187868
-0.00220489
-0.00251448
-0.00275655
-0.00285871
-0.00278637
-0.00263494
-0.00259691
-0.00279068
-0.00317746
-0.00363966
-0.00405081
-0.00431086
-0.00440153
-0.00436538
-0.00420566
-0.00387885
-0.00337096
-0.00268417
-0.00177223
-0.000565143
0.000960643
0.00277599
0.00484916
0.0071751
0.00975101
0.0125551
0.0155646
0.0187651
0.0221383
0.025662
0.0293186
0.0330935
0.0369681
0.0409192
0.0449194
0.0489364
0.0529314
0.0568591
0.0606669
0.0642941
0.0676715
0.0707205
0.0733534
0.0754746
0.0769832
0.0777785
0.0777677
0.0768769
0.0750638
0.0723307
0.0687337
0.0643854
0.059447
0.0541097
0.0485703
0.0430186
0.0376363
0.0325909
0.028
0.0238995
0.020272
0.0171077
0.0144045
0.0121286
0.0102426
0.00875251
0.00764554
0.00681144
0.00608213
0.00531393
0.00443807
0.00351602
0.00271987
0.00217809
0.00187059
0.00170392
0.00161315
0.00156278
0.00152666
0.00149097
0.00145166
0.00140736
0.00135792
0.00130433
0.00124786
0.0011896
0.00113049
0.00107138
0.00101291
0.000955592
0.00089983
0.000845911
0.000794043
0.000744369
0.000696974
0.000651901
0.000609156
0.000568719
0.000530548
0.000494586
0.000460763
0.000428999
0.00039921
0.000371307
0.000345199
0.000320794
0.000298003
0.000276735
0.000256903
0.000238423
0.000221213
0.000205196
0.000190297
0.000176443
0.000163568
0.000151606
0.000140496
0.000130182
0.000120608
0.000111724
0.000103483
9.58395e-05
8.87517e-05
8.21806e-05
7.60897e-05
7.04449e-05
6.52142e-05
6.03679e-05
5.58782e-05
5.17195e-05
4.78679e-05
4.43009e-05
4.09981e-05
3.79399e-05
3.51086e-05
3.24876e-05
3.00613e-05
2.78156e-05
2.57372e-05
2.38136e-05
2.20335e-05
2.03863e-05
1.8862e-05
1.74517e-05
1.61469e-05
1.49396e-05
1.38227e-05
1.27894e-05
1.18336e-05
1.09495e-05
1.01317e-05
9.37536e-06
8.67591e-06
8.02909e-06
7.431e-06
6.87798e-06
6.36668e-06
5.894e-06
5.4571e-06
5.05337e-06
4.68043e-06
4.33604e-06
4.01817e-06
3.72488e-06
3.45439e-06
3.205e-06
2.97515e-06
2.76338e-06
2.56836e-06
2.38885e-06
2.22373e-06
2.07198e-06
1.93273e-06
1.80518e-06
1.68864e-06
1.58243e-06
1.48594e-06
1.39856e-06
1.31974e-06
1.24898e-06
1.1858e-06
1.12999e-06
1.08108e-06
0.000101095
9.5194e-05
8.1123e-05
5.68838e-05
2.3005e-05
-2.05952e-05
-7.559e-05
-0.000144312
-0.000229067
-0.000332486
-0.000457868
-0.000609092
-0.000790439
-0.00100624
-0.00126011
-0.00155338
-0.00188148
-0.00222879
-0.00256406
-0.00282829
-0.00292808
-0.00281016
-0.00258849
-0.00250636
-0.00271084
-0.00314901
-0.00367732
-0.00414584
-0.00443662
-0.00453826
-0.00451689
-0.00438021
-0.00407292
-0.0035842
-0.00292634
-0.0020448
-0.000852519
0.000676785
0.00250243
0.00458465
0.00692161
0.00951369
0.0123358
0.0153635
0.0185837
0.0219775
0.0255216
0.0291997
0.0329987
0.0369013
0.0408848
0.0449229
0.0489838
0.0530295
0.057015
0.0608879
0.0645879
0.0680451
0.0711799
0.0739022
0.0761127
0.0777054
0.0785723
0.0786122
0.0777423
0.0759125
0.0731201
0.0694217
0.064936
0.0598362
0.0543274
0.0486185
0.0429077
0.0373871
0.0322387
0.0275887
0.0234633
0.0198269
0.0166654
0.0139807
0.011731
0.00987205
0.00842545
0.00739346
0.00665067
0.00599885
0.00526892
0.004377
0.00340058
0.00256094
0.00201988
0.00174399
0.00161275
0.00155174
0.00152462
0.00150461
0.00147908
0.00144597
0.00140518
0.00135747
0.00130457
0.00124819
0.00118969
0.00113021
0.00107069
0.00101182
0.000954156
0.000898103
0.000843953
0.000791914
0.000742119
0.000694649
0.000649539
0.00060679
0.000566374
0.000528245
0.000492341
0.000458588
0.000426903
0.000397199
0.000369386
0.000343369
0.000319057
0.000296357
0.000275179
0.000255436
0.000237042
0.000219916
0.000203978
0.000189155
0.000175374
0.000162568
0.000150672
0.000139625
0.000129369
0.00011985
0.000111019
0.000102826
9.52281e-05
8.8183e-05
8.16519e-05
7.55984e-05
6.99884e-05
6.47903e-05
5.99744e-05
5.5513e-05
5.13807e-05
4.75536e-05
4.40094e-05
4.07278e-05
3.76893e-05
3.48764e-05
3.22723e-05
2.98619e-05
2.76309e-05
2.55661e-05
2.36551e-05
2.18867e-05
2.02503e-05
1.87362e-05
1.73352e-05