/*--------------------------------*- C++ -*----------------------------------*\
| =========                 |                                                 |
| \\      /  F ield         | OpenFOAM: The Open Source CFD Toolbox           |
|  \\    /   O peration     | Version:  v2006                                 |
|   \\  /    A nd           | Website:  www.openfoam.com                      |
|    \\/     M anipulation  |                                                 |
\*---------------------------------------------------------------------------*/
FoamFile
{
    version     2.0;
    format      ascii;
    class       volScalarField;
    location    "3.5";
    object      r;
}
// * * * * * * * * * * * * * * * * * * * * * * * * * * * * * * * * * * * * * //

dimensions      [1 2 0 0 0 0 0];


internalField   nonuniform List<scalar> 
350
(
-1.2623e-143
9.34824e-142
-4.22916e-140
1.91459e-138
-8.62429e-137
3.86585e-135
-1.72413e-133
7.6503e-132
-3.37691e-130
1.48271e-128
-6.4751e-127
2.8122e-125
-1.21453e-123
5.2154e-122
-2.22657e-120
9.44941e-119
-3.98605e-117
1.67108e-115
-6.96165e-114
2.8816e-112
-1.18496e-110
4.84018e-109
-1.96357e-107
7.91029e-106
-3.16399e-104
1.25634e-102
-4.95146e-101
1.93662e-99
-7.51558e-98
2.8934e-96
-1.10485e-94
4.18366e-93
-1.57067e-91
5.84512e-90
-2.1557e-88
7.87721e-87
-2.85128e-85
1.02208e-83
-3.62737e-82
1.27423e-80
-4.42926e-79
1.52305e-77
-5.17918e-76
1.74115e-74
-5.78483e-73
1.89878e-71
-6.155e-70
1.96961e-68
-6.21953e-67
1.93719e-65
-5.94881e-64
1.80021e-62
-5.36579e-61
1.57446e-59
-4.54543e-58
1.29033e-56
-3.59948e-55
9.86044e-54
-2.6507e-52
6.98712e-51
-1.8045e-49
4.56198e-48
-1.12792e-46
2.72454e-45
-6.42274e-44
1.47585e-42
-3.30141e-41
7.17928e-40
-1.51536e-38
3.09932e-37
-6.13086e-36
1.17051e-34
-2.15188e-33
3.79938e-32
-6.42346e-31
1.03636e-29
-1.58938e-28
2.30633e-27
-3.14926e-26
4.01979e-25
-4.7569e-24
5.16403e-23
-5.07102e-22
4.41609e-21
-3.30849e-20
2.02184e-19
-8.94229e-19
1.72287e-18
1.0516e-17
-9.46737e-17
1.07448e-16
2.26153e-15
-7.82997e-15
-5.76214e-14
2.35032e-13
2.04662e-12
-2.88292e-12
-7.72815e-11
-2.57638e-10
1.29907e-09
2.02121e-08
1.37905e-07
6.81937e-07
2.75316e-06
9.57009e-06
2.95243e-05
8.24576e-05
0.00021144
0.000503098
0.00112002
0.00234867
0.00466495
0.00881724
0.0159228
0.0275689
0.0459048
0.073708
0.114404
0.172023
0.251083
0.356385
0.492745
0.664656
0.875933
1.12935
1.42634
1.76674
2.14868
2.56859
3.02127
3.50019
3.99777
4.50579
5.01584
5.51967
6.00962
6.47893
6.92194
7.33423
7.71272
8.05559
8.36222
8.63303
8.86934
9.07311
9.24683
9.3933
9.51546
9.61628
9.69864
9.76525
9.8186
9.86092
9.89414
9.91994
9.93967
9.95439
9.9648
9.97125
9.97365
9.9714
9.96333
9.9476
9.92169
9.88236
9.82571
9.74734
9.64252
9.50651
9.33483
9.12372
8.87041
8.57351
8.23316
7.85125
7.43137
6.9787
6.49979
6.00222
5.4942
4.98416
4.48033
3.99037
3.52106
3.07806
2.66577
2.28728
1.94441
1.63778
1.36696
1.13066
0.926892
0.753168
0.6067
0.48454
0.383719
0.301358
0.234745
0.181389
0.139055
0.105775
0.0798461
0.059822
0.0444899
0.0328482
0.0240806
0.01753
0.012674
0.00910149
0.00649281
0.00460176
0.0032407
0.0022679
0.00157736
0.00109044
0.000749356
0.000511956
0.00034776
0.000234894
0.00015778
0.000105404
7.00384e-05
4.62936e-05
3.04406e-05
1.99144e-05
1.2963e-05
8.39642e-06
5.41225e-06
3.47201e-06
2.21693e-06
1.40894e-06
8.91437e-07
5.61416e-07
3.52087e-07
2.1978e-07
1.36674e-07
8.45694e-08
5.21739e-08
3.19991e-08
1.95992e-08
1.19091e-08
7.2506e-09
4.35975e-09
2.64422e-09
1.56947e-09
9.51953e-10
5.55112e-10
3.38974e-10
1.926e-10
1.19673e-10
6.54124e-11
4.19761e-11
2.17206e-11
1.46125e-11
7.08957e-12
4.99126e-12
2.33928e-12
1.60704e-12
8.46022e-13
4.25653e-13
3.80914e-13
3.10368e-14
2.21933e-13
-8.03541e-14
1.49082e-13
-9.21831e-14
1.01977e-13
-7.33335e-14
6.67493e-14
-4.9651e-14
4.07621e-14
-2.99749e-14
2.28832e-14
-1.62466e-14
1.15887e-14
-7.76899e-15
5.0942e-15
-3.09342e-15
1.74753e-15
-8.27803e-16
2.57892e-16
8.31233e-17
-2.57422e-16
3.28489e-16
-3.33681e-16
3.0378e-16
-2.56995e-16
2.06085e-16
-1.57852e-16
1.16062e-16
-8.19521e-17
5.55033e-17
-3.58731e-17
2.19258e-17
-1.2445e-17
6.31621e-18
-2.58648e-18
4.96133e-19
5.32504e-19
-9.16238e-19
9.41875e-19
-7.95768e-19
5.91195e-19
-3.90705e-19
2.23751e-19
-9.9598e-20
1.63926e-20
3.29001e-20
-5.68533e-20
6.35729e-20
-5.97654e-20
5.04718e-20
-3.91656e-20
2.80228e-20
-1.82386e-20
1.03252e-20
-4.3586e-21
1.66017e-22
2.54306e-21
-4.0916e-21
4.78533e-21
-4.88761e-21
4.6106e-21
-4.11599e-21
3.52073e-21
-2.90489e-21
2.31959e-21
-1.79437e-21
1.34328e-21
-9.69833e-22
6.70775e-22
-4.3888e-22
2.64962e-22
-1.39244e-22
5.22553e-23
4.62703e-24
-3.88957e-23
5.6812e-23
-6.3426e-23
6.26718e-23
-5.75065e-23
5.0066e-23
-4.18215e-23
3.37262e-23
-2.63439e-23
1.99584e-23
-1.46619e-23
1.04236e-23
-7.13843e-24
4.8377e-24
)
;

boundaryField
{
    right
    {
        type            zeroGradient;
    }
    left
    {
        type            inletOutlet;
        inletValue      uniform 0;
        value           uniform 0;
    }
    top
    {
        type            zeroGradient;
    }
    bottom
    {
        type            zeroGradient;
    }
    empty
    {
        type            empty;
    }
}


// ************************************************************************* //
