/*--------------------------------*- C++ -*----------------------------------*\
| =========                 |                                                 |
| \\      /  F ield         | OpenFOAM: The Open Source CFD Toolbox           |
|  \\    /   O peration     | Version:  v2006                                 |
|   \\  /    A nd           | Website:  www.openfoam.com                      |
|    \\/     M anipulation  |                                                 |
\*---------------------------------------------------------------------------*/
FoamFile
{
    version     2.0;
    format      ascii;
    class       volScalarField;
    location    "0.4";
    object      p;
}
// * * * * * * * * * * * * * * * * * * * * * * * * * * * * * * * * * * * * * //

dimensions      [1 -1 -2 0 0 0 0];


internalField   nonuniform List<scalar> 
150000
(
17429.8
17444.3
17427.5
17456.5
17444.7
17467.1
17474.4
17487.7
17503.4
17521
17540.3
17561.4
17584.2
17608.8
17635.1
17663
17692.5
17723.6
17756.1
17790.2
17825.6
17862.5
17900.6
17940.1
17980.7
18022.6
18065.6
18109.7
18154.8
18201
18248.1
18296.1
18345.1
18394.8
18445.4
18496.8
18548.9
18601.8
18655.3
18709.4
18764.2
18819.5
18875.4
18931.9
18988.8
19046.2
19104.1
19162.4
19221.1
19280.2
19339.6
19399.4
19459.5
19519.9
19580.5
19641.4
19702.6
19763.9
19825.4
19887.1
19949
20011
20073.1
20135.3
20197.5
20259.8
20322.1
20384.5
20446.8
20509.1
20571.4
20633.6
20695.7
20757.7
20819.5
20881.2
20942.7
21004.1
21065.2
21126
21186.6
21247
21307
21366.6
21425.9
21484.9
21543.4
21601.5
21659.1
21716.3
21772.9
21829
21884.5
21939.5
21993.8
22047.5
22100.5
22152.8
22204.4
22255.2
22305.2
22354.5
22402.8
22450.3
22496.9
22542.6
22587.3
22631
22673.7
22715.3
22755.9
22795.4
22833.7
22870.9
22906.9
22941.8
22975.4
23007.8
23038.9
23068.7
23097.2
23124.4
23150.3
23174.8
23197.9
23219.7
23240.1
23259
23276.6
23292.7
23307.5
23320.8
23332.6
23343
23352.1
23359.6
23365.8
23370.5
23373.8
23375.7
23376.3
23375.4
23373.2
23369.6
23364.7
23358.4
23350.9
23342
23331.9
23320.6
23308
23294.3
23279.4
23263.3
23246.2
23227.9
23208.6
23188.3
23166.9
23144.6
23121.4
23097.3
23072.2
23046.4
23019.7
22992.3
22964.1
22935.2
22905.6
22875.3
22844.4
22813
22781
22748.4
22715.4
22681.9
22648
22613.6
22578.9
22543.8
22508.4
22472.7
22436.7
22400.5
22364
22327.5
22290.7
22253.7
22216.5
22179.3
22142
22104.6
22067.1
22029.7
21992.2
21954.8
21917.3
21880
21842.7
21805.5
21768.4
21731.4
21694.5
21657.8
21621.3
21585
21548.8
21512.9
21477.2
21441.7
21406.5
21371.5
21336.9
21302.5
21268.4
21234.6
21201.2
21168
21135.2
21102.8
21070.8
21039
21007.7
20976.8
20946.2
20916.1
20886.3
20857
20828
20799.5
20771.4
20743.7
20716.5
20689.6
20663.3
20637.3
20611.8
20586.7
20562
20537.8
20514
20490.7
20467.8
20445.3
20423.2
20401.6
20380.4
20359.6
20339.3
20319.3
20299.8
20280.7
20262
20243.6
20225.7
20208.2
20191.1
20174.3
20158
20142
20126.4
20111.1
20096.2
20081.7
20067.5
20053.7
20040.2
20027
20014.2
20001.7
19989.5
19977.6
19966.1
19954.8
19943.9
19933.2
19922.8
19912.7
19902.9
19893.4
19884.2
19875.2
19866.5
19858
19849.8
19841.8
19834.1
19826.6
19819.4
19812.4
19805.6
19799.1
19792.8
19786.7
19780.8
19775.1
19769.6
19764.4
19759.3
19754.4
19749.8
19745.3
19741
19736.9
19733
19729.3
19725.8
19722.4
19719.2
19716.2
19713.4
19710.7
19708.2
19705.9
19703.8
19701.8
19699.9
19698.3
19696.8
19695.4
19694.2
19693.2
19692.3
19691.6
19691
19690.6
19690.3
19690.2
19690.2
19690.4
19690.8
19691.3
19691.9
19692.7
19693.6
19694.7
19696
19697.4
19698.9
19700.7
19702.5
19704.5
19706.7
19709
19711.5
19714.1
19716.9
19719.9
19723
19726.2
19729.7
19733.2
19737
19740.9
19745
19749.3
19753.7
19758.3
19763.1
19768
19773.2
19778.5
19784
19789.6
19795.5
19801.5
19807.8
19814.2
19820.8
19827.7
19834.7
19841.9
19849.3
19857
19864.8
19872.9
19881.2
19889.7
19898.4
19907.3
19916.5
19925.9
19935.5
19945.4
19955.5
19965.8
19976.4
19987.3
19998.4
20009.7
20021.3
20033.2
20045.3
20057.7
20070.3
20083.2
20096.4
20109.9
20123.7
20137.7
20152
20166.7
20181.6
20196.7
20212.2
20228
20244.1
20260.5
20277.1
20294.1
20311.4
20329
20346.9
20365.1
20383.6
20402.5
20421.6
20441
20460.8
20480.9
20501.2
20521.9
20542.9
20564.1
20585.7
20607.6
20629.8
20652.2
20675
20698
20721.3
20744.9
20768.7
20792.8
20817.1
20841.7
20866.6
20891.6
20916.9
20942.4
20968.1
20994
21020
21046.3
21072.6
21099.1
21125.8
21152.5
21179.3
21206.2
21233.2
21260.2
21287.2
21314.2
21341.3
21368.2
21395.1
21422
21448.7
21475.3
21501.7
21528
21554
21579.8
21605.4
21630.7
21655.7
21680.4
21704.6
21728.5
21752
21775.1
21797.6
21819.7
21841.2
21862.2
21882.6
21902.4
21921.5
21940
21957.8
21974.9
21991.2
22006.8
22021.5
22035.5
22048.7
22060.9
22072.4
22082.9
22092.5
22101.3
22108.9
22116.8
22119.5
22130.3
22125.7
22138.9
22130.9
22138.7
17101.3
17115.8
17099.1
17128
17116.3
17138.7
17146
17159.3
17175.1
17192.6
17212
17233.1
17255.9
17280.6
17306.9
17334.8
17364.3
17395.4
17428.1
17462.1
17497.6
17534.5
17572.7
17612.1
17652.8
17694.7
17737.7
17781.9
17827
17873.2
17920.4
17968.5
18017.4
18067.2
18117.9
18169.3
18221.4
18274.3
18327.8
18382
18436.8
18492.1
18548.1
18604.5
18661.5
18718.9
18776.8
18835.1
18893.8
18952.9
19012.4
19072.2
19132.3
19192.7
19253.3
19314.3
19375.4
19436.8
19498.3
19560
19621.9
19683.9
19746
19808.2
19870.5
19932.8
19995.1
20057.5
20119.8
20182.2
20244.4
20306.6
20368.7
20430.7
20492.6
20554.3
20615.9
20677.2
20738.3
20799.2
20859.8
20920.1
20980.2
21039.8
21099.2
21158.1
21216.7
21274.8
21332.4
21389.6
21446.2
21502.3
21557.9
21612.9
21667.2
21720.9
21773.9
21826.2
21877.8
21928.7
21978.7
22027.9
22076.3
22123.8
22170.4
22216.1
22260.8
22304.5
22347.2
22388.9
22429.5
22468.9
22507.3
22544.5
22580.6
22615.4
22649
22681.4
22712.5
22742.4
22770.9
22798.1
22824
22848.5
22871.6
22893.4
22913.8
22932.7
22950.3
22966.5
22981.2
22994.5
23006.3
23016.8
23025.8
23033.3
23039.5
23044.2
23047.5
23049.4
23049.9
23049.1
23046.8
23043.2
23038.3
23032.1
23024.5
23015.7
23005.6
22994.2
22981.7
22967.9
22953
22936.9
22919.7
22901.5
22882.2
22861.8
22840.5
22818.2
22794.9
22770.7
22745.7
22719.8
22693.2
22665.7
22637.5
22608.6
22578.9
22548.7
22517.8
22486.3
22454.3
22421.8
22388.7
22355.2
22321.2
22286.9
22252.1
22217
22181.6
22145.8
22109.8
22073.6
22037
22000.2
21963.4
21926.3
21889.3
21852
21814.7
21777.3
21739.9
21702.4
21665
21627.5
21590.1
21552.7
21515.4
21478.2
21441.1
21404.1
21367.3
21330.6
21294
21257.7
21221.6
21185.6
21149.9
21114.4
21079.2
21044.3
21009.6
20975.2
20941.1
20907.3
20873.9
20840.8
20808
20775.6
20743.5
20711.8
20680.5
20649.5
20619
20588.8
20559.1
20529.7
20500.8
20472.2
20444.1
20416.5
20389.2
20362.4
20336
20310
20284.5
20259.4
20234.8
20210.6
20186.8
20163.4
20140.5
20118
20096
20074.4
20053.2
20032.4
20012
19992.1
19972.6
19953.4
19934.7
19916.4
19898.5
19881
19863.9
19847.1
19830.8
19814.8
19799.2
19783.9
19769
19754.5
19740.3
19726.5
19713
19699.8
19687
19674.5
19662.3
19650.4
19638.9
19627.6
19616.7
19606
19595.7
19585.6
19575.8
19566.3
19557
19548
19539.3
19530.8
19522.6
19514.7
19507
19499.5
19492.3
19485.3
19478.5
19471.9
19465.6
19459.5
19453.6
19448
19442.5
19437.2
19432.2
19427.3
19422.7
19418.2
19413.9
19409.8
19405.9
19402.2
19398.7
19395.3
19392.1
19389.1
19386.3
19383.6
19381.1
19378.8
19376.7
19374.7
19372.8
19371.2
19369.6
19368.3
19367.1
19366.1
19365.2
19364.5
19363.9
19363.5
19363.2
19363.1
19363.1
19363.3
19363.7
19364.2
19364.8
19365.6
19366.5
19367.6
19368.9
19370.3
19371.8
19373.5
19375.4
19377.4
19379.6
19381.9
19384.4
19387
19389.8
19392.7
19395.8
19399.1
19402.5
19406.1
19409.9
19413.8
19417.9
19422.1
19426.6
19431.2
19435.9
19440.9
19446
19451.3
19456.8
19462.5
19468.3
19474.4
19480.6
19487
19493.7
19500.5
19507.5
19514.7
19522.2
19529.8
19537.6
19545.7
19554
19562.5
19571.2
19580.1
19589.3
19598.7
19608.3
19618.2
19628.3
19638.6
19649.2
19660
19671.1
19682.5
19694.1
19705.9
19718
19730.4
19743.1
19756
19769.2
19782.7
19796.4
19810.5
19824.8
19839.4
19854.3
19869.5
19884.9
19900.7
19916.8
19933.2
19949.9
19966.8
19984.1
20001.7
20019.6
20037.8
20056.3
20075.2
20094.3
20113.7
20133.5
20153.5
20173.9
20194.6
20215.6
20236.8
20258.4
20280.3
20302.5
20324.9
20347.7
20370.7
20394
20417.6
20441.4
20465.5
20489.9
20514.5
20539.3
20564.4
20589.6
20615.1
20640.8
20666.7
20692.8
20719
20745.4
20771.9
20798.6
20825.3
20852.1
20879.1
20906
20933
20960.1
20987.1
21014.1
21041.1
21068
21094.9
21121.6
21148.2
21174.7
21201
21227
21252.9
21278.5
21303.8
21328.8
21353.5
21377.8
21401.7
21425.2
21448.3
21470.9
21493
21514.5
21535.5
21555.9
21575.7
21594.9
21613.4
21631.2
21648.3
21664.6
21680.2
21695
21709
21722.2
21734.5
21745.9
21756.5
21766.1
21774.9
21782.5
21790.4
21793.3
21803.8
21799.4
21812.8
21804.4
21812.4
16771.4
16785.9
16769.2
16798.1
16786.4
16808.8
16816.2
16829.5
16845.3
16862.9
16882.3
16903.5
16926.4
16951.1
16977.4
17005.4
17035
17066.2
17098.9
17133
17168.6
17205.5
17243.7
17283.3
17324.1
17366
17409.1
17453.3
17498.5
17544.8
17592
17640.1
17689.1
17739
17789.7
17841.1
17893.3
17946.2
17999.8
18054
18108.9
18164.3
18220.3
18276.8
18333.8
18391.2
18449.2
18507.5
18566.3
18625.4
18684.9
18744.7
18804.9
18865.3
18926
18986.9
19048.1
19109.5
19171.1
19232.8
19294.7
19356.7
19418.9
19481.1
19543.4
19605.7
19668.1
19730.5
19792.9
19855.2
19917.5
19979.7
20041.9
20103.9
20165.8
20227.5
20289.1
20350.5
20411.6
20472.5
20533.2
20593.5
20653.6
20713.3
20772.7
20831.6
20890.2
20948.3
21006
21063.2
21119.9
21176
21231.6
21286.6
21341
21394.7
21447.7
21500.1
21551.7
21602.6
21652.6
21701.9
21750.3
21797.8
21844.4
21890.1
21934.9
21978.6
22021.3
22063
22103.6
22143.1
22181.5
22218.8
22254.8
22289.7
22323.3
22355.7
22386.8
22416.7
22445.2
22472.5
22498.3
22522.9
22546
22567.8
22588.2
22607.1
22624.7
22640.9
22655.6
22668.9
22680.7
22691.2
22700.2
22707.7
22713.9
22718.6
22721.9
22723.8
22724.3
22723.4
22721.2
22717.6
22712.7
22706.4
22698.8
22690
22679.8
22668.5
22655.9
22642.1
22627.2
22611.1
22593.9
22575.6
22556.3
22535.9
22514.5
22492.2
22468.9
22444.7
22419.7
22393.8
22367.1
22339.6
22311.3
22282.4
22252.7
22222.4
22191.5
22160
22128
22095.4
22062.3
22028.7
21994.7
21960.3
21925.6
21890.4
21855
21819.2
21783.2
21746.9
21710.4
21673.7
21636.8
21599.9
21562.6
21525.3
21488
21450.5
21413
21375.5
21338
21300.6
21263.1
21225.7
21188.4
21151.1
21114
21077
21040.1
21003.4
20966.8
20930.4
20894.2
20858.3
20822.6
20787.1
20751.8
20716.8
20682.1
20647.7
20613.6
20579.8
20546.4
20513.2
20480.4
20448
20415.9
20384.2
20352.8
20321.9
20291.3
20261.2
20231.4
20202
20173.1
20144.6
20116.5
20088.8
20061.5
20034.7
20008.3
19982.3
19956.8
19931.7
19907.1
19882.9
19859.1
19835.7
19812.8
19790.4
19768.3
19746.7
19725.5
19704.7
19684.4
19664.4
19644.9
19625.8
19607.1
19588.8
19570.9
19553.4
19536.3
19519.5
19503.2
19487.2
19471.6
19456.4
19441.5
19427
19412.8
19399
19385.5
19372.3
19359.5
19347
19334.8
19323
19311.4
19300.2
19289.2
19278.6
19268.2
19258.2
19248.4
19238.9
19229.6
19220.6
19211.9
19203.5
19195.3
19187.3
19179.6
19172.1
19164.9
19157.9
19151.2
19144.6
19138.3
19132.2
19126.3
19120.7
19115.2
19109.9
19104.9
19100
19095.4
19090.9
19086.6
19082.6
19078.7
19074.9
19071.4
19068.1
19064.9
19061.9
19059
19056.4
19053.9
19051.6
19049.4
19047.4
19045.6
19043.9
19042.4
19041.1
19039.9
19038.8
19038
19037.2
19036.7
19036.2
19036
19035.9
19035.9
19036.1
19036.4
19036.9
19037.6
19038.4
19039.3
19040.4
19041.7
19043.1
19044.6
19046.3
19048.2
19050.2
19052.4
19054.7
19057.1
19059.8
19062.6
19065.5
19068.6
19071.9
19075.3
19078.9
19082.6
19086.6
19090.6
19094.9
19099.3
19103.9
19108.7
19113.6
19118.8
19124.1
19129.6
19135.2
19141.1
19147.1
19153.4
19159.8
19166.4
19173.2
19180.2
19187.5
19194.9
19202.5
19210.4
19218.4
19226.7
19235.2
19243.9
19252.8
19262
19271.4
19281
19290.8
19300.9
19311.3
19321.9
19332.7
19343.8
19355.1
19366.7
19378.6
19390.7
19403
19415.7
19428.6
19441.8
19455.3
19469
19483.1
19497.4
19512
19526.9
19542
19557.5
19573.3
19589.4
19605.7
19622.4
19639.4
19656.7
19674.3
19692.2
19710.4
19728.9
19747.7
19766.8
19786.3
19806
19826.1
19846.4
19867.1
19888.1
19909.4
19930.9
19952.8
19975
19997.4
20020.2
20043.2
20066.5
20090.1
20113.9
20138
20162.4
20187
20211.9
20236.9
20262.2
20287.7
20313.4
20339.3
20365.4
20391.6
20418
20444.6
20471.2
20498
20524.8
20551.8
20578.7
20605.8
20632.8
20659.9
20686.9
20713.9
20740.9
20767.7
20794.5
20821.1
20847.6
20873.9
20900
20925.9
20951.5
20976.9
21001.9
21026.6
21050.9
21074.9
21098.4
21121.5
21144.1
21166.3
21187.8
21208.9
21229.3
21249.2
21268.4
21286.9
21304.7
21321.8
21338.2
21353.8
21368.7
21382.7
21395.9
21408.2
21419.6
21430.2
21439.9
21448.6
21456.3
21464.2
21467.1
21477.7
21473.2
21486.5
21478.2
21486.3
16440
16454.5
16437.8
16466.7
16455.1
16477.5
16484.9
16498.4
16514.2
16531.9
16551.3
16572.5
16595.6
16620.3
16646.7
16674.8
16704.5
16735.8
16768.6
16802.8
16838.5
16875.5
16913.9
16953.5
16994.4
17036.4
17079.6
17123.9
17169.2
17215.6
17262.9
17311.1
17360.2
17410.2
17460.9
17512.5
17564.7
17617.7
17671.4
17725.7
17780.6
17836
17892.1
17948.6
18005.7
18063.2
18121.2
18179.6
18238.4
18297.6
18357.2
18417
18477.2
18537.7
18598.4
18659.4
18720.6
18782.1
18843.7
18905.5
18967.4
19029.5
19091.7
19153.9
19216.3
19278.7
19341.1
19403.5
19465.9
19528.3
19590.6
19652.9
19715.1
19777.2
19839.1
19900.9
19962.5
20023.9
20085.1
20146
20206.7
20267.1
20327.2
20387
20446.4
20505.4
20564
20622.2
20679.9
20737.1
20793.8
20850
20905.7
20960.7
21015.1
21068.9
21122
21174.4
21226
21276.9
21327
21376.3
21424.8
21472.3
21519
21564.7
21609.5
21653.3
21696
21737.7
21778.4
21817.9
21856.3
21893.6
21929.7
21964.6
21998.2
22030.7
22061.8
22091.7
22120.2
22147.5
22173.4
22197.9
22221.1
22242.9
22263.3
22282.3
22299.8
22316
22330.7
22344
22355.9
22366.3
22375.3
22382.9
22389
22393.7
22397
22398.9
22399.4
22398.5
22396.2
22392.6
22387.7
22381.4
22373.8
22364.9
22354.8
22343.4
22330.8
22317
22302
22285.9
22268.6
22250.3
22230.9
22210.5
22189.1
22166.7
22143.4
22119.2
22094.1
22068.2
22041.4
22013.9
21985.6
21956.6
21926.9
21896.6
21865.6
21834.1
21801.9
21769.3
21736.2
21702.6
21668.5
21634.1
21599.3
21564.1
21528.6
21492.8
21456.7
21420.3
21383.8
21347
21310
21272.9
21235.7
21198.4
21161
21123.5
21086
21048.5
21010.9
20973.4
20935.9
20898.5
20861.1
20823.8
20786.7
20749.6
20712.7
20675.9
20639.3
20602.9
20566.7
20530.7
20495
20459.4
20424.2
20389.2
20354.4
20320
20285.9
20252.1
20218.6
20185.4
20152.6
20120.1
20088
20056.3
20024.9
19994
19963.4
19933.2
19903.4
19874.1
19845.1
19816.6
19788.5
19760.8
19733.5
19706.7
19680.3
19654.4
19628.8
19603.8
19579.1
19554.9
19531.1
19507.8
19484.9
19462.4
19440.4
19418.7
19397.6
19376.8
19356.5
19336.5
19317
19297.9
19279.2
19260.9
19243.1
19225.6
19208.4
19191.7
19175.4
19159.4
19143.8
19128.6
19113.7
19099.2
19085.1
19071.2
19057.8
19044.6
19031.8
19019.3
19007.2
18995.3
18983.8
18972.5
18961.6
18951
18940.6
18930.6
18920.8
18911.3
18902.1
18893.1
18884.4
18875.9
18867.7
18859.8
18852.1
18844.6
18837.4
18830.4
18823.7
18817.2
18810.8
18804.8
18798.9
18793.2
18787.8
18782.5
18777.5
18772.6
18768
18763.5
18759.2
18755.2
18751.3
18747.6
18744
18740.7
18737.5
18734.5
18731.7
18729
18726.5
18724.2
18722.1
18720.1
18718.3
18716.6
18715.1
18713.7
18712.5
18711.5
18710.6
18709.9
18709.3
18708.9
18708.7
18708.6
18708.6
18708.8
18709.1
18709.6
18710.3
18711.1
18712
18713.1
18714.4
18715.7
18717.3
18719
18720.9
18722.9
18725
18727.3
18729.8
18732.4
18735.2
18738.2
18741.3
18744.5
18748
18751.5
18755.3
18759.2
18763.3
18767.5
18772
18776.6
18781.3
18786.3
18791.4
18796.7
18802.2
18807.8
18813.7
18819.7
18825.9
18832.4
18839
18845.8
18852.8
18860
18867.4
18875.1
18882.9
18890.9
18899.2
18907.7
18916.4
18925.3
18934.5
18943.9
18953.5
18963.3
18973.4
18983.7
18994.3
19005.1
19016.2
19027.5
19039.1
19051
19063.1
19075.4
19088.1
19101
19114.2
19127.6
19141.4
19155.4
19169.7
19184.3
19199.2
19214.4
19229.8
19245.6
19261.7
19278
19294.7
19311.7
19329
19346.5
19364.4
19382.6
19401.1
19420
19439.1
19458.5
19478.3
19498.3
19518.7
19539.4
19560.3
19581.6
19603.2
19625.1
19647.2
19669.7
19692.4
19715.5
19738.8
19762.4
19786.2
19810.3
19834.7
19859.3
19884.2
19909.3
19934.6
19960.1
19985.8
20011.7
20037.8
20064.1
20090.5
20117
20143.7
20170.5
20197.4
20224.3
20251.3
20278.4
20305.5
20332.6
20359.6
20386.7
20413.7
20440.6
20467.4
20494
20520.5
20546.9
20573
20599
20624.6
20650
20675.1
20699.8
20724.2
20748.2
20771.8
20794.9
20817.6
20839.8
20861.4
20882.5
20903
20922.9
20942.1
20960.7
20978.5
20995.7
21012.1
21027.8
21042.6
21056.7
21069.9
21082.3
21093.8
21104.4
21114
21122.8
21130.5
21138.5
21141.3
21151.9
21147.5
21160.8
21152.6
21160.5
16107.1
16121.6
16105
16133.9
16122.4
16144.8
16152.3
16165.8
16181.7
16199.4
16219
16240.3
16263.4
16288.3
16314.9
16343.1
16372.9
16404.3
16437.2
16471.6
16507.4
16544.5
16583
16622.8
16663.8
16706
16749.3
16793.7
16839.2
16885.6
16933.1
16981.4
17030.6
17080.7
17131.6
17183.2
17235.6
17288.7
17342.4
17396.8
17451.8
17507.4
17563.5
17620.2
17677.3
17734.9
17793
17851.4
17910.3
17969.6
18029.2
18089.1
18149.4
18209.9
18270.7
18331.8
18393
18454.5
18516.2
18578
18640
18702.2
18764.4
18826.7
18889.1
18951.5
19014
19076.5
19139
19201.4
19263.8
19326.1
19388.4
19450.5
19512.5
19574.3
19636
19697.5
19758.7
19819.7
19880.5
19940.9
20001.1
20060.9
20120.3
20179.4
20238.1
20296.3
20354.1
20411.4
20468.1
20524.4
20580.1
20635.2
20689.6
20743.5
20796.6
20849
20900.8
20951.7
21001.9
21051.2
21099.7
21147.3
21194
21239.8
21284.6
21328.5
21371.3
21413
21453.7
21493.3
21531.7
21569
21605.2
21640.1
21673.8
21706.2
21737.4
21767.3
21795.9
21823.2
21849.1
21873.7
21896.8
21918.6
21939.1
21958.1
21975.6
21991.8
22006.5
22019.8
22031.7
22042.1
22051.1
22058.7
22064.8
22069.5
22072.8
22074.7
22075.1
22074.2
22072
22068.3
22063.3
22057
22049.4
22040.5
22030.3
22018.9
22006.2
21992.4
21977.4
21961.2
21943.9
21925.6
21906.1
21885.7
21864.2
21841.8
21818.4
21794.2
21769
21743
21716.2
21688.6
21660.3
21631.2
21601.4
21571.1
21540
21508.4
21476.3
21443.6
21410.4
21376.7
21342.6
21308.1
21273.2
21237.9
21202.4
21166.5
21130.3
21093.9
21057.3
21020.5
20983.5
20946.4
20909.1
20871.7
20834.2
20796.7
20759.1
20721.5
20683.9
20646.3
20608.8
20571.3
20533.8
20496.5
20459.3
20422.2
20385.2
20348.4
20311.7
20275.3
20239
20203
20167.2
20131.6
20096.3
20061.3
20026.5
19992
19957.9
19924
19890.5
19857.3
19824.5
19792
19759.9
19728.1
19696.7
19665.7
19635.1
19605
19575.2
19545.8
19516.8
19488.3
19460.2
19432.5
19405.2
19378.4
19352
19326
19300.5
19275.4
19250.8
19226.6
19202.8
19179.5
19156.6
19134.1
19112.1
19090.5
19069.3
19048.5
19028.2
19008.3
18988.8
18969.7
18951
18932.8
18914.9
18897.4
18880.3
18863.6
18847.3
18831.3
18815.8
18800.5
18785.7
18771.2
18757.1
18743.3
18729.8
18716.7
18703.9
18691.4
18679.3
18667.4
18655.9
18644.7
18633.8
18623.1
18612.8
18602.8
18593
18583.5
18574.3
18565.3
18556.6
18548.2
18540
18532.1
18524.4
18517
18509.8
18502.8
18496
18489.5
18483.2
18477.1
18471.3
18465.6
18460.2
18454.9
18449.9
18445.1
18440.4
18436
18431.7
18427.6
18423.8
18420.1
18416.5
18413.2
18410
18407
18404.2
18401.6
18399.1
18396.8
18394.6
18392.6
18390.8
18389.1
18387.6
18386.3
18385.1
18384.1
18383.2
18382.5
18381.9
18381.5
18381.2
18381.1
18381.2
18381.4
18381.7
18382.2
18382.8
18383.6
18384.6
18385.7
18386.9
18388.3
18389.9
18391.6
18393.4
18395.4
18397.6
18399.9
18402.4
18405
18407.8
18410.7
18413.8
18417.1
18420.5
18424.1
18427.8
18431.7
18435.8
18440.1
18444.5
18449.1
18453.8
18458.8
18463.9
18469.2
18474.6
18480.3
18486.1
18492.2
18498.4
18504.8
18511.4
18518.2
18525.2
18532.4
18539.8
18547.5
18555.3
18563.3
18571.6
18580.1
18588.7
18597.7
18606.8
18616.2
18625.8
18635.6
18645.7
18656
18666.6
18677.4
18688.5
18699.8
18711.4
18723.2
18735.3
18747.7
18760.3
18773.2
18786.4
18799.8
18813.6
18827.6
18841.9
18856.5
18871.3
18886.5
18902
18917.7
18933.8
18950.1
18966.8
18983.8
19001
19018.6
19036.5
19054.7
19073.2
19092
19111.1
19130.5
19150.3
19170.3
19190.7
19211.4
19232.3
19253.6
19275.2
19297.1
19319.2
19341.7
19364.5
19387.5
19410.8
19434.4
19458.3
19482.4
19506.8
19531.4
19556.3
19581.4
19606.7
19632.2
19658
19683.9
19710
19736.3
19762.7
19789.3
19816
19842.8
19869.7
19896.7
19923.8
19950.9
19978
20005.1
20032.2
20059.3
20086.4
20113.3
20140.2
20166.9
20193.4
20219.8
20246
20272
20297.7
20323.2
20348.3
20373.1
20397.6
20421.7
20445.3
20468.5
20491.2
20513.5
20535.1
20556.3
20576.8
20596.8
20616.1
20634.7
20652.7
20669.9
20686.3
20702
20717
20731.1
20744.3
20756.7
20768.3
20778.9
20788.6
20797.4
20805.1
20813.1
20816
20826.7
20822.2
20835.5
20827.3
20835.3
15772.8
15787.3
15770.7
15799.6
15788.2
15810.6
15818.2
15831.8
15847.8
15865.7
15885.3
15906.8
15930
15955
15981.7
16010.1
16040.1
16071.6
16104.7
16139.2
16175.2
16212.5
16251.2
16291.2
16332.3
16374.7
16418.2
16462.7
16508.4
16555
16602.6
16651.1
16700.4
16750.7
16801.7
16853.4
16906
16959.2
17013
17067.5
17122.6
17178.3
17234.5
17291.3
17348.5
17406.2
17464.4
17523
17581.9
17641.3
17700.9
17761
17821.3
17881.9
17942.8
18003.9
18065.3
18126.8
18188.6
18250.5
18312.6
18374.8
18437.1
18499.4
18561.9
18624.4
18687
18749.5
18812
18874.6
18937
18999.4
19061.7
19123.9
19186
19247.9
19309.6
19371.2
19432.5
19493.6
19554.4
19614.9
19675.1
19735
19794.5
19853.7
19912.4
19970.7
20028.6
20085.9
20142.8
20199.1
20254.8
20310
20364.5
20418.4
20471.6
20524.2
20575.9
20627
20677.2
20726.6
20775.2
20822.8
20869.6
20915.4
20960.3
21004.2
21047.1
21088.9
21129.6
21169.3
21207.8
21245.1
21281.3
21316.2
21350
21382.5
21413.7
21443.6
21472.3
21499.6
21525.5
21550.1
21573.3
21595.1
21615.5
21634.6
21652.2
21668.3
21683.1
21696.4
21708.2
21718.7
21727.7
21735.2
21741.3
21746
21749.3
21751.1
21751.6
21750.7
21748.4
21744.7
21739.7
21733.3
21725.7
21716.7
21706.5
21695
21682.3
21668.4
21653.4
21637.2
21619.8
21601.4
21581.9
21561.4
21539.9
21517.4
21493.9
21469.6
21444.4
21418.3
21391.4
21363.8
21335.3
21306.2
21276.4
21245.9
21214.8
21183.1
21150.9
21118.1
21084.8
21051.1
21016.9
20982.3
20947.3
20912
20876.4
20840.4
20804.2
20767.7
20731
20694.1
20657
20619.8
20582.4
20545
20507.4
20469.8
20432.2
20394.5
20356.8
20319.1
20281.5
20244
20206.5
20169.1
20131.8
20094.6
20057.6
20020.7
19984
19947.5
19911.2
19875.1
19839.2
19803.6
19768.2
19733.1
19698.3
19663.8
19629.6
19595.7
19562.2
19528.9
19496.1
19463.5
19431.4
19399.6
19368.2
19337.2
19306.6
19276.4
19246.6
19217.2
19188.2
19159.7
19131.5
19103.8
19076.6
19049.7
19023.3
18997.4
18971.9
18946.8
18922.1
18897.9
18874.2
18850.8
18828
18805.5
18783.5
18761.9
18740.7
18720
18699.7
18679.8
18660.3
18641.2
18622.6
18604.3
18586.4
18569
18551.9
18535.2
18518.9
18503
18487.4
18472.2
18457.4
18442.9
18428.8
18415
18401.6
18388.5
18375.7
18363.3
18351.1
18339.3
18327.8
18316.6
18305.7
18295.1
18284.8
18274.8
18265
18255.5
18246.3
18237.4
18228.7
18220.3
18212.1
18204.2
18196.6
18189.1
18181.9
18175
18168.2
18161.7
18155.4
18149.4
18143.5
18137.9
18132.5
18127.2
18122.2
18117.4
18112.7
18108.3
18104
18100
18096.1
18092.4
18088.9
18085.6
18082.4
18079.4
18076.6
18074
18071.5
18069.2
18067
18065.1
18063.2
18061.6
18060.1
18058.7
18057.6
18056.5
18055.7
18054.9
18054.4
18054
18053.7
18053.6
18053.6
18053.8
18054.2
18054.7
18055.3
18056.1
18057.1
18058.1
18059.4
18060.8
18062.3
18064
18065.9
18067.9
18070
18072.4
18074.8
18077.4
18080.2
18083.2
18086.3
18089.5
18092.9
18096.5
18100.2
18104.1
18108.2
18112.5
18116.9
18121.4
18126.2
18131.1
18136.2
18141.5
18147
18152.6
18158.5
18164.5
18170.7
18177.1
18183.7
18190.5
18197.5
18204.7
18212.1
18219.7
18227.5
18235.6
18243.8
18252.3
18260.9
18269.8
18279
18288.3
18297.9
18307.8
18317.8
18328.2
18338.7
18349.5
18360.6
18371.9
18383.4
18395.2
18407.3
18419.7
18432.3
18445.2
18458.3
18471.8
18485.5
18499.5
18513.8
18528.4
18543.2
18558.4
18573.8
18589.6
18605.6
18622
18638.6
18655.6
18672.8
18690.4
18708.3
18726.5
18745
18763.8
18782.9
18802.3
18822.1
18842.1
18862.5
18883.1
18904.1
18925.4
18946.9
18968.8
18991
19013.5
19036.2
19059.3
19082.6
19106.2
19130.1
19154.2
19178.6
19203.2
19228.1
19253.2
19278.6
19304.1
19329.9
19355.9
19382
19408.3
19434.8
19461.4
19488.1
19515
19541.9
19569
19596.1
19623.2
19650.4
19677.6
19704.7
19731.9
19759
19786
19812.9
19839.7
19866.3
19892.8
19919
19945.1
19970.9
19996.4
20021.6
20046.5
20071
20095.2
20118.9
20142.2
20165
20187.3
20209.1
20230.3
20250.9
20270.9
20290.3
20309
20327
20344.3
20360.9
20376.6
20391.6
20405.8
20419.1
20431.5
20443.1
20453.8
20463.6
20472.4
20480.1
20488.2
20491
20501.8
20497.3
20510.7
20502.5
20510.4
15437
15451.4
15434.9
15463.8
15452.5
15475
15482.7
15496.4
15512.5
15530.5
15550.3
15571.9
15595.3
15620.5
15647.4
15675.9
15706.1
15737.8
15771.1
15805.8
15842
15879.6
15918.4
15958.6
16000
16042.5
16086.2
16131
16176.8
16223.6
16271.4
16320
16369.6
16420
16471.2
16523.1
16575.8
16629.1
16683.1
16737.8
16793
16848.8
16905.2
16962.1
17019.4
17077.2
17135.5
17194.2
17253.2
17312.7
17372.5
17432.6
17493
17553.7
17614.7
17675.9
17737.4
17799
17860.8
17922.8
17985
18047.3
18109.6
18172.1
18234.7
18297.3
18359.9
18422.5
18485.1
18547.7
18610.3
18672.8
18735.1
18797.4
18859.6
18921.6
18983.4
19045
19106.4
19167.6
19228.5
19289.1
19349.4
19409.4
19469
19528.2
19587
19645.4
19703.3
19760.8
19817.7
19874.1
19930
19985.2
20039.8
20093.8
20147.1
20199.7
20251.6
20302.7
20353
20402.4
20451.1
20498.8
20545.7
20591.6
20636.6
20680.5
20723.4
20765.3
20806.1
20845.8
20884.4
20921.8
20958
20993
21026.8
21059.4
21090.6
21120.6
21149.3
21176.6
21202.6
21227.2
21250.4
21272.3
21292.7
21311.8
21329.4
21345.6
21360.3
21373.6
21385.5
21395.9
21404.9
21412.4
21418.5
21423.2
21426.5
21428.3
21428.7
21427.8
21425.4
21421.7
21416.7
21410.3
21402.6
21393.6
21383.3
21371.8
21359
21345.1
21330
21313.7
21296.3
21277.8
21258.2
21237.6
21216.1
21193.5
21170
21145.5
21120.2
21094.1
21067.1
21039.4
21010.9
20981.6
20951.7
20921.2
20890
20858.2
20825.9
20793
20759.6
20725.8
20691.5
20656.8
20621.7
20586.3
20550.6
20514.5
20478.2
20441.6
20404.8
20367.8
20330.6
20293.3
20255.9
20218.3
20180.7
20143
20105.2
20067.5
20029.7
19992
19954.2
19916.6
19879
19841.5
19804.2
19766.9
19729.8
19692.9
19656.1
19619.5
19583.1
19547
19511
19475.3
19439.9
19404.8
19369.9
19335.4
19301.1
19267.2
19233.6
19200.3
19167.4
19134.8
19102.6
19070.8
19039.4
19008.3
18977.7
18947.5
18917.7
18888.2
18859.3
18830.7
18802.5
18774.8
18747.6
18720.7
18694.3
18668.4
18642.9
18617.8
18593.1
18568.9
18545.2
18521.9
18499
18476.6
18454.6
18433
18411.8
18391.1
18370.8
18350.9
18331.5
18312.4
18293.8
18275.6
18257.7
18240.3
18223.2
18206.6
18190.3
18174.4
18158.8
18143.7
18128.9
18114.4
18100.3
18086.5
18073.1
18060
18047.3
18034.9
18022.8
18011
17999.5
17988.3
17977.4
17966.9
17956.6
17946.6
17936.8
17927.4
17918.2
17909.3
17900.6
17892.2
17884.1
17876.2
17868.5
17861.1
17853.9
17847
17840.3
17833.8
17827.5
17821.5
17815.6
17810
17804.6
17799.4
17794.4
17789.5
17784.9
17780.5
17776.3
17772.2
17768.3
17764.7
17761.1
17757.8
17754.7
17751.7
17748.9
17746.3
17743.8
17741.5
17739.3
17737.4
17735.6
17733.9
17732.4
17731.1
17729.9
17728.9
17728
17727.3
17726.7
17726.3
17726.1
17726
17726
17726.2
17726.5
17727
17727.7
17728.5
17729.4
17730.5
17731.8
17733.1
17734.7
17736.4
17738.2
17740.2
17742.4
17744.7
17747.2
17749.8
17752.6
17755.5
17758.6
17761.8
17765.2
17768.8
17772.5
17776.4
17780.5
17784.7
17789.1
17793.7
17798.5
17803.4
17808.5
17813.8
17819.2
17824.9
17830.7
17836.7
17842.9
17849.3
17855.9
17862.7
17869.6
17876.8
17884.2
17891.8
17899.6
17907.6
17915.9
17924.3
17933
17941.9
17951
17960.3
17969.9
17979.7
17989.8
18000.1
18010.6
18021.4
18032.5
18043.7
18055.3
18067.1
18079.2
18091.5
18104.1
18117
18130.1
18143.5
18157.3
18171.2
18185.5
18200.1
18214.9
18230.1
18245.5
18261.2
18277.3
18293.6
18310.2
18327.2
18344.4
18362
18379.9
18398
18416.5
18435.3
18454.4
18473.8
18493.6
18513.6
18534
18554.6
18575.6
18596.9
18618.5
18640.3
18662.5
18685
18707.7
18730.8
18754.1
18777.7
18801.6
18825.8
18850.2
18874.8
18899.8
18924.9
18950.3
18975.8
19001.6
19027.6
19053.8
19080.1
19106.7
19133.3
19160.1
19187
19214
19241.1
19268.2
19295.4
19322.7
19349.9
19377.1
19404.4
19431.5
19458.6
19485.6
19512.4
19539.1
19565.7
19592.1
19618.2
19644.1
19669.7
19695
19720
19744.6
19768.8
19792.6
19816
19838.9
19861.3
19883.2
19904.5
19925.2
19945.3
19964.8
19983.6
20001.7
20019.1
20035.7
20051.5
20066.6
20080.8
20094.2
20106.7
20118.4
20129.1
20138.9
20147.9
20155.6
20163.7
20166.6
20177.4
20172.9
20186.3
20178.1
20186.1
15099.6
15114.1
15097.7
15126.6
15115.4
15137.9
15145.7
15159.5
15175.8
15194
15213.9
15235.7
15259.3
15284.7
15311.8
15340.5
15370.9
15402.9
15436.4
15471.4
15507.8
15545.6
15584.7
15625.1
15666.7
15709.5
15753.4
15798.4
15844.5
15891.5
15939.5
15988.4
16038.1
16088.7
16140.1
16192.2
16245.1
16298.6
16352.8
16407.6
16463
16519
16575.5
16632.5
16690
16747.9
16806.3
16865.1
16924.3
16983.9
17043.8
17104
17164.5
17225.3
17286.4
17347.7
17409.3
17471
17533
17595.1
17657.3
17719.7
17782.2
17844.7
17907.4
17970.1
18032.8
18095.5
18158.2
18220.9
18283.6
18346.1
18408.6
18471
18533.2
18595.3
18657.3
18719
18780.5
18841.7
18902.7
18963.5
19023.9
19083.9
19143.6
19203
19261.9
19320.4
19378.4
19436
19493
19549.5
19605.4
19660.8
19715.5
19769.6
19823
19875.7
19927.6
19978.8
20029.2
20078.8
20127.5
20175.4
20222.3
20268.3
20313.3
20357.4
20400.4
20442.3
20483.2
20523
20561.6
20599.1
20635.4
20670.5
20704.3
20736.9
20768.2
20798.2
20827
20854.3
20880.3
20905
20928.3
20950.2
20970.6
20989.7
21007.3
21023.5
21038.3
21051.6
21063.4
21073.9
21082.8
21090.4
21096.5
21101.1
21104.4
21106.2
21106.6
21105.6
21103.2
21099.4
21094.3
21087.9
21080.1
21071.1
21060.8
21049.2
21036.4
21022.3
21007.2
20990.8
20973.3
20954.8
20935.1
20914.4
20892.8
20870.1
20846.5
20822
20796.6
20770.3
20743.2
20715.4
20686.8
20657.5
20627.4
20596.8
20565.5
20533.6
20501.1
20468.2
20434.7
20400.7
20366.3
20331.5
20296.4
20260.8
20225
20188.8
20152.3
20115.7
20078.8
20041.6
20004.4
19966.9
19929.4
19891.7
19854
19816.2
19778.3
19740.4
19702.6
19664.7
19626.9
19589.2
19551.5
19513.9
19476.4
19439.1
19401.9
19364.9
19328
19291.3
19254.9
19218.6
19182.6
19146.9
19111.4
19076.2
19041.3
19006.6
18972.3
18938.3
18904.7
18871.4
18838.4
18805.8
18773.6
18741.7
18710.3
18679.2
18648.5
18618.3
18588.4
18559
18530
18501.4
18473.2
18445.5
18418.2
18391.4
18365
18339