/*--------------------------------*- C++ -*----------------------------------*\
| =========                 |                                                 |
| \\      /  F ield         | OpenFOAM: The Open Source CFD Toolbox           |
|  \\    /   O peration     | Version:  v2006                                 |
|   \\  /    A nd           | Website:  www.openfoam.com                      |
|    \\/     M anipulation  |                                                 |
\*---------------------------------------------------------------------------*/
FoamFile
{
    version     2.0;
    format      ascii;
    class       surfaceScalarField;
    location    "7.2";
    object      alphaPhi0.water;
}
// * * * * * * * * * * * * * * * * * * * * * * * * * * * * * * * * * * * * * //

dimensions      [0 3 -1 0 0 0 0];
oriented        oriented;


internalField   nonuniform List<scalar> 
104500
(
5.8564e-05
-5.8564e-05
0.000133115
-7.45505e-05
0.000205288
-7.21733e-05
0.000273574
-6.82861e-05
0.000340163
-6.65895e-05
0.000406311
-6.61473e-05
0.000472216
-6.5905e-05
0.000537753
-6.55371e-05
0.000602797
-6.50438e-05
0.00066727
-6.44733e-05
0.000731121
-6.38515e-05
0.000794302
-6.3181e-05
0.000856767
-6.24646e-05
0.00091847
-6.17026e-05
0.000979367
-6.08971e-05
0.00103942
-6.0051e-05
0.00109858
-5.91663e-05
0.00115683
-5.82466e-05
0.00121412
-5.72944e-05
0.00127044
-5.63123e-05
0.00132574
-5.53038e-05
0.00138001
-5.42719e-05
0.00143323
-5.32184e-05
0.00148538
-5.21462e-05
0.00153644
-5.10575e-05
0.00158639
-4.99554e-05
0.00163523
-4.88429e-05
0.00168296
-4.77223e-05
0.00172955
-4.65952e-05
0.00177501
-4.54638e-05
0.00181934
-4.433e-05
0.00186254
-4.31957e-05
0.0019046
-4.2062e-05
0.00194553
-4.09305e-05
0.00198534
-3.98026e-05
0.00202401
-3.86789e-05
0.00206157
-3.75588e-05
0.00209801
-3.64408e-05
0.00213334
-3.53223e-05
0.00216754
-3.41997e-05
0.00220061
-3.30722e-05
0.00223255
-3.19446e-05
0.00226338
-3.08293e-05
0.00229312
-2.97413e-05
0.00232182
-2.8692e-05
0.0023495
-2.76846e-05
0.00237622
-2.67159e-05
0.002402
-2.57799e-05
0.00242687
-2.48716e-05
0.00245086
-2.3988e-05
0.00247398
-2.31273e-05
0.00249627
-2.22879e-05
0.00251774
-2.14677e-05
0.0025384
-2.06654e-05
0.00255829
-1.98845e-05
0.00257743
-1.91385e-05
0.00259588
-1.84521e-05
0.00261373
-1.78538e-05
0.00263109
-1.73614e-05
0.00264806
-1.69682e-05
0.0026647
-1.66404e-05
0.00268103
-1.63282e-05
0.00269702
-1.59859e-05
0.0027126
-1.55872e-05
0.00272773
-1.51289e-05
0.00274236
-1.46244e-05
0.00275645
-1.40924e-05
0.00277
-1.35484e-05
0.002783
-1.30017e-05
0.00279546
-1.24568e-05
0.00280737
-1.19155e-05
0.00281875
-1.1379e-05
0.0028296
-1.08483e-05
0.00283992
-1.03241e-05
0.00284973
-9.80727e-06
0.00285903
-9.29845e-06
0.00286783
-8.79807e-06
0.00287613
-8.30651e-06
0.00288396
-7.82407e-06
0.00289131
-7.35122e-06
0.0028982
-6.88875e-06
0.00290464
-6.43807e-06
0.00291064
-6.00133e-06
0.00291622
-5.58108e-06
0.0029214
-5.17914e-06
0.00292619
-4.7946e-06
0.00293061
-4.42204e-06
0.00293466
-4.05091e-06
0.00293833
-3.66743e-06
0.00294159
-3.25855e-06
0.00294441
-2.81674e-06
0.00294675
-2.34348e-06
0.0029486
-1.8482e-06
0.00294994
-1.3451e-06
0.00295079
-8.49766e-07
0.00295117
-3.73674e-07
0.00295108
8.38668e-08
0.00295058
5.03637e-07
0.00294969
8.87772e-07
0.00294845
1.23884e-06
0.0029469
1.55787e-06
0.00294505
1.8444e-06
0.00294295
2.10435e-06
0.00294061
2.33707e-06
0.00293806
2.54632e-06
0.00293533
2.73536e-06
0.00293242
2.90411e-06
0.00292937
3.0551e-06
0.00292618
3.18783e-06
0.00292288
3.30431e-06
0.00291947
3.40386e-06
0.00291599
3.48713e-06
0.00291243
3.55452e-06
0.00290882
3.60746e-06
0.00290518
3.64515e-06
0.00290151
3.66972e-06
0.00289783
3.68163e-06
0.00289415
3.68054e-06
0.00289048
3.66777e-06
0.00288683
3.64471e-06
0.00288322
3.61123e-06
0.00287966
3.56829e-06
0.00287614
3.51652e-06
0.00287268
3.45649e-06
0.00286929
3.38861e-06
0.00286598
3.31322e-06
0.00286275
3.23072e-06
0.00285961
3.14129e-06
0.00285656
3.04518e-06
0.00285362
2.94235e-06
0.00285079
2.83339e-06
0.00284807
2.71803e-06
0.00284547
2.5967e-06
0.002843
2.47029e-06
0.00284066
2.33927e-06
0.00283846
2.20646e-06
0.00283638
2.07285e-06
0.00283444
1.94108e-06
0.00283263
1.81419e-06
0.00283093
1.6986e-06
0.00282933
1.60428e-06
0.00282778
1.54438e-06
0.00282624
1.54219e-06
0.00282458
1.6555e-06
0.00282262
1.96338e-06
0.00282016
2.45878e-06
0.00281717
2.99618e-06
0.00281378
3.38789e-06
0.00281023
3.54726e-06
0.00280672
3.50915e-06
0.00280336
3.35821e-06
0.0028002
3.16404e-06
0.00279724
2.96002e-06
0.00279449
2.75296e-06
0.00279195
2.54004e-06
0.00278963
2.31863e-06
0.00278754
2.08798e-06
0.00278569
1.84793e-06
0.00278409
1.59794e-06
0.00278276
1.33725e-06
0.00278169
1.06575e-06
0.00278091
7.84195e-07
0.00278041
4.94612e-07
0.00278021
2.00869e-07
0.00278031
-9.46147e-08
0.00278072
-4.10902e-07
0.00278145
-7.3244e-07
0.00278251
-1.06618e-06
0.00278393
-1.41485e-06
0.00278571
-1.78028e-06
0.00278787
-2.16475e-06
0.00279045
-2.57112e-06
0.00279345
-3.00317e-06
0.00279691
-3.46574e-06
0.00280088
-3.96351e-06
0.00280538
-4.49894e-06
0.00281045
-5.06909e-06
0.00281611
-5.66319e-06
0.00282237
-6.26224e-06
0.00282921
-6.84157e-06
0.00283659
-7.37605e-06
0.00284444
-7.8468e-06
0.00285268
-8.24519e-06
0.00286125
-8.57312e-06
0.0028701
-8.84122e-06
0.00287916
-9.06254e-06
0.00288841
-9.25008e-06
0.00289782
-9.41355e-06
0.00290738
-9.55988e-06
0.00291708
-9.6944e-06
0.0029269
-9.82094e-06
0.00293684
-9.94405e-06
0.00294691
-1.00686e-05
0.00295711
-1.02009e-05
0.00296746
-1.03488e-05
0.00297798
-1.0522e-05
0.00298871
-1.0733e-05
0.00299971
-1.09984e-05
0.00301105
-1.13397e-05
0.00302283
-1.17803e-05
0.00303517
-1.23393e-05
0.00304819
-1.30208e-05
0.003062
-1.38043e-05
0.00307664
-1.464e-05
0.00309209
-1.54527e-05
0.00310825
-1.61564e-05
0.00312492
-1.66744e-05
0.00314188
-1.69594e-05
0.00315889
-1.70061e-05
0.00317574
-1.68508e-05
0.0031923
-1.65599e-05
0.00320851
-1.62099e-05
0.00322437
-1.58676e-05
0.00323995
-1.55772e-05
0.00325531
-1.5356e-05
0.00327051
-1.51994e-05
0.0032856
-1.50904e-05
0.00330061
-1.50096e-05
0.00331555
-1.49423e-05
0.00333043
-1.48802e-05
0.00334525
-1.48211e-05
0.00336002
-1.47652e-05
0.00337473
-1.47132e-05
0.00338939
-1.46643e-05
0.00340401
-1.46156e-05
0.00341857
-1.45633e-05
0.00343308
-1.45033e-05
0.00344751
-1.4432e-05
0.00346185
-1.43466e-05
0.0034761
-1.42452e-05
0.00349023
-1.41266e-05
0.00350422
-1.39899e-05
0.00351805
-1.38344e-05
0.00353171
-1.36593e-05
0.00354517
-1.34639e-05
0.00355842
-1.32477e-05
0.00357143
-1.30101e-05
0.00358418
-1.27508e-05
0.00359665
-1.24694e-05
0.00360882
-1.21654e-05
0.00362066
-1.18384e-05
0.00363214
-1.14881e-05
0.00364326
-1.11144e-05
0.00365397
-1.07168e-05
0.00366427
-1.02953e-05
0.00367412
-9.84948e-06
0.0036835
-9.3789e-06
0.00369238
-8.88313e-06
0.00370074
-8.36166e-06
0.00370856
-7.81394e-06
0.0037158
-7.23919e-06
0.00372243
-6.63628e-06
0.00372844
-6.00359e-06
0.00373378
-5.33891e-06
0.00373841
-4.63862e-06
0.00374231
-3.89775e-06
0.00374542
-3.10976e-06
0.00374769
-2.26437e-06
0.00374904
-1.35141e-06
0.00374939
-3.57694e-07
0.00374862
7.79535e-07
0.00374666
1.95591e-06
0.00374359
3.07174e-06
0.00373944
4.14652e-06
0.00373422
5.22431e-06
0.00372789
6.33136e-06
0.00372041
7.47994e-06
0.00371173
8.67867e-06
0.00370179
9.93558e-06
0.00369053
1.12589e-05
0.00367787
1.26575e-05
0.00366373
1.4141e-05
0.00364801
1.57193e-05
0.00363061
1.74024e-05
0.00361141
1.91989e-05
0.0035903
2.11151e-05
0.00356714
2.3153e-05
0.00354184
2.53091e-05
0.00351426
2.75739e-05
0.00348433
2.99328e-05
0.00345196
3.23676e-05
0.0034171
3.48586e-05
0.00337972
3.7384e-05
0.0033398
3.99161e-05
0.00329739
4.24143e-05
0.00325257
4.4818e-05
0.00320553
4.70448e-05
0.00315653
4.89991e-05
0.00310593
5.05929e-05
0.00305417
5.17677e-05
0.00300166
5.25092e-05
0.00294878
5.28814e-05
0.00289588
5.28941e-05
0.00284341
5.24751e-05
0.00279187
5.15394e-05
0.00274177
5.00948e-05
0.00269343
4.83456e-05
0.00264675
4.66721e-05
0.00260128
4.54695e-05
0.00255632
4.49689e-05
0.00251115
4.51621e-05
0.0024653
4.58561e-05
0.0024185
4.67936e-05
0.00237075
4.77549e-05
0.00232215
4.86038e-05
0.00227286
4.92882e-05
0.00222304
4.98136e-05
0.00217283
5.02097e-05
0.00212233
5.05062e-05
0.0020716
5.07254e-05
0.00202072
5.08854e-05
0.00196971
5.10039e-05
0.00191861
5.10991e-05
0.00186743
5.11854e-05
0.00181616
5.12703e-05
0.0017648
5.13544e-05
0.00171337
5.14352e-05
0.00166186
5.15097e-05
0.00161028
5.15757e-05
0.00155865
5.16335e-05
0.00150696
5.16853e-05
0.00145523
5.17338e-05
0.00140345
5.17807e-05
0.00135162
5.18261e-05
0.00129975
5.18688e-05
0.00124785
5.1908e-05
0.0011959
5.19437e-05
0.00114393
5.19775e-05
0.00109191
5.20112e-05
0.00103987
5.20441e-05
0.000987797
5.20733e-05
0.0009357
5.20968e-05
0.000883586
5.21145e-05
0.000831458
5.21275e-05
0.000779323
5.21355e-05
0.000727185
5.21381e-05
0.000675049
5.21355e-05
0.000622921
5.21285e-05
0.000570804
5.21174e-05
0.000518702
5.21015e-05
0.000466622
5.20805e-05
0.000414564
5.20571e-05
0.000362523
5.20409e-05
0.00031048
5.20432e-05
0.000258418
5.20624e-05
0.0002064
5.20176e-05
0.000154647
5.17533e-05
0.000104424
5.02225e-05
5.61445e-05
4.82799e-05
5.61445e-05
5.31232e-05
-0.000111687
0.000122403
-0.00014383
0.000188658
-0.000138429
0.000250891
-0.000130519
0.00031153
-0.000127229
0.000371876
-0.000126492
0.000432094
-0.000126123
0.000492012
-0.000125456
0.000551499
-0.00012453
0.000610491
-0.000123466
0.00066895
-0.00012231
0.000726839
-0.00012107
0.000784121
-0.000119746
0.000840758
-0.00011834
0.000896717
-0.000116856
0.000951965
-0.000115299
0.00100647
-0.000113674
0.00106022
-0.000111989
0.00111317
-0.000110247
0.00116531
-0.000108454
0.00121662
-0.000106615
0.00126709
-0.000104737
0.00131669
-0.000102823
0.00136542
-0.000100881
0.00141328
-9.89129e-05
0.00146025
-9.69246e-05
0.00150633
-9.49209e-05
0.00155151
-9.2907e-05
0.0015958
-9.08868e-05
0.0016392
-8.88636e-05
0.00168171
-8.68414e-05
0.00172334
-8.48223e-05
0.00176409
-8.28103e-05
0.00180397
-8.08083e-05
0.00184298
-7.88198e-05
0.00188115
-7.68462e-05
0.00191848
-7.48894e-05
0.00195499
-7.29504e-05
0.0019907
-7.10292e-05
0.00202562
-6.91254e-05
0.00205979
-6.72386e-05
0.00209321
-6.53678e-05
0.0021259
-6.35121e-05
0.00215783
-6.16719e-05
0.00218899
-5.98497e-05
0.00221935
-5.80487e-05
0.00224891
-5.6272e-05
0.00227765
-5.45215e-05
0.00230557
-5.27978e-05
0.00233269
-5.11005e-05
0.00235899
-4.94287e-05
0.00238448
-4.77813e-05
0.00240917
-4.61573e-05
0.00243306
-4.45561e-05
0.00245616
-4.29788e-05
0.00247845
-4.14282e-05
0.0024999
-3.99092e-05
0.00252048
-3.84276e-05
0.0025401
-3.69877e-05
0.00255872
-3.559e-05
0.00257631
-3.42296e-05
0.00259288
-3.28982e-05
0.00260848
-3.15861e-05
0.00262318
-3.02855e-05
0.00263704
-2.89912e-05
0.00265012
-2.77016e-05
0.00266245
-2.64172e-05
0.00267404
-2.51398e-05
0.00268491
-2.38714e-05
0.00269506
-2.26134e-05
0.00270452
-2.13673e-05
0.00271327
-2.01341e-05
0.00272134
-1.89147e-05
0.00272872
-1.771e-05
0.00273544
-1.65208e-05
0.00274149
-1.53481e-05
0.00274688
-1.41927e-05
0.00275163
-1.30554e-05
0.00275574
-1.19373e-05
0.00275923
-1.08396e-05
0.00276211
-9.76354e-06
0.00276438
-8.71107e-06
0.00276606
-7.68461e-06
0.00276717
-6.6871e-06
0.00276771
-5.72148e-06
0.00276771
-4.78981e-06
0.00276718
-3.89213e-06
0.00276615
-3.0256e-06
0.00276467
-2.18442e-06
0.00276277
-1.36064e-06
0.0027605
-5.45476e-07
0.00275789
2.6148e-07
0.00275498
1.06104e-06
0.00275178
1.8559e-06
0.0027483
2.63845e-06
0.00274452
3.40085e-06
0.00274047
4.1386e-06
0.00273612
4.84607e-06
0.00273149
5.51758e-06
0.00272658
6.15221e-06
0.00272139
6.74876e-06
0.00271593
7.30691e-06
0.00271021
7.826e-06
0.00270424
8.30586e-06
0.00269804
8.7457e-06
0.00269162
9.14769e-06
0.00268502
9.51035e-06
0.00267824
9.8362e-06
0.0026713
1.01243e-05
0.00266423
1.0375e-05
0.00265704
1.05895e-05
0.00264976
1.07668e-05
0.00264241
1.09079e-05
0.00263501
1.10128e-05
0.00262757
1.10817e-05
0.00262012
1.11153e-05
0.00261269
1.11141e-05
0.00260529
1.10788e-05
0.00259795
1.10095e-05
0.00259069
1.09071e-05
0.00258353
1.07723e-05
0.00257649
1.06056e-05
0.0025696
1.04083e-05
0.00256287
1.01809e-05
0.00255634
9.92435e-06
0.00255001
9.63937e-06
0.00254392
9.32671e-06
0.00253807
8.98714e-06
0.00253249
8.62155e-06
0.00252721
8.23057e-06
0.00252222
7.81507e-06
0.00251757
7.37564e-06
0.00251325
6.91255e-06
0.0025093
6.42632e-06
0.00250572
5.91593e-06
0.00250254
5.38024e-06
0.0024998
4.82124e-06
0.0024975
4.23977e-06
0.00249568
3.63556e-06
0.00249437
3.00895e-06
0.00249361
2.3609e-06
0.00249346
1.69375e-06
0.00249399
1.01345e-06
0.00249531
3.36065e-07
0.00249767
-3.95621e-07
0.00250126
-1.12985e-06
0.00250608
-1.82888e-06
0.00251197
-2.49823e-06
0.00251867
-3.15174e-06
0.00252598
-3.80422e-06
0.0025338
-4.464e-06
0.0025421
-5.13264e-06
0.00255087
-5.808e-06
0.00256011
-6.48744e-06
0.00256982
-7.16935e-06
0.00257999
-7.85295e-06
0.00259061
-8.53749e-06
0.00260168
-9.22206e-06
0.00261319
-9.90569e-06
0.00262511
-1.05875e-05
0.00263744
-1.12666e-05
0.00265017
-1.19425e-05
0.00266328
-1.26148e-05
0.00267676
-1.32836e-05
0.00269062
-1.39509e-05
0.00270483
-1.46174e-05
0.00271937
-1.52781e-05
0.00273424
-1.59315e-05
0.0027494
-1.65777e-05
0.00276484
-1.72164e-05
0.00278052
-1.78474e-05
0.00279642
-1.84701e-05
0.0028125
-1.90841e-05
0.00282872
-1.96892e-05
0.00284505
-2.02862e-05
0.00286142
-2.08769e-05
0.00287782
-2.14619e-05
0.00289419
-2.2041e-05
0.00291054
-2.26118e-05
0.00292687
-2.31706e-05
0.00294321
-2.37108e-05
0.00295959
-2.42262e-05
0.00297605
-2.47108e-05
0.00299264
-2.5161e-05
0.00300937
-2.55751e-05
0.00302626
-2.59531e-05
0.00304331
-2.62964e-05
0.0030605
-2.66064e-05
0.00307783
-2.68845e-05
0.00309527
-2.71332e-05
0.0031128
-2.73559e-05
0.00313042
-2.75568e-05
0.00314809
-2.77402e-05
0.0031658
-2.79113e-05
0.00318352
-2.8076e-05
0.00320124
-2.82418e-05
0.00321893
-2.84181e-05
0.00323655
-2.86158e-05
0.00325405
-2.88479e-05
0.0032714
-2.91272e-05
0.00328852
-2.94626e-05
0.00330536
-2.98546e-05
0.00332184
-3.02898e-05
0.00333794
-3.07393e-05
0.00335365
-3.11614e-05
0.00336901
-3.15094e-05
0.00338407
-3.17427e-05
0.00339895
-3.18365e-05
0.00341373
-3.17876e-05
0.00342849
-3.16137e-05
0.00344328
-3.13476e-05
0.0034581
-3.10277e-05
0.00347292
-3.06898e-05
0.00348771
-3.03599e-05
0.0035024
-3.00517e-05
0.00351697
-2.97677e-05
0.00353138
-2.95023e-05
0.00354562
-2.92458e-05
0.00355966
-2.89888e-05
0.00357351
-2.87239e-05
0.00358713
-2.84463e-05
0.00360052
-2.81534e-05
0.00361365
-2.78436e-05
0.0036265
-2.75149e-05
0.00363905
-2.71651e-05
0.00365128
-2.67915e-05
0.00366317
-2.63911e-05
0.0036747
-2.59615e-05
0.00368585
-2.55008e-05
0.00369661
-2.50078e-05
0.00370697
-2.44816e-05
0.0037169
-2.39218e-05
0.00372639
-2.3328e-05
0.00373543
-2.27002e-05
0.00374401
-2.20379e-05
0.0037521
-2.13412e-05
0.0037597
-2.06099e-05
0.0037668
-1.98441e-05
0.00377337
-1.90438e-05
0.00377941
-1.82093e-05
0.00378492
-1.73408e-05
0.00378987
-1.64388e-05
0.00379426
-1.55037e-05
0.00379808
-1.45361e-05
0.00380132
-1.35365e-05
0.00380397
-1.25056e-05
0.00380604
-1.14443e-05
0.00380751
-1.03525e-05
0.00380838
-9.23117e-06
0.00380864
-8.08076e-06
0.00380831
-6.90172e-06
0.00380736
-5.69458e-06
0.00380582
-4.45944e-06
0.00380368
-3.19583e-06
0.00380094
-1.90319e-06
0.00379762
-5.76015e-07
0.00379375
7.63745e-07
0.00378937
2.11589e-06
0.00378452
3.4904e-06
0.00377929
4.87948e-06
0.00377378
6.2876e-06
0.00376801
7.72616e-06
0.00376188
9.19799e-06
0.00375533
1.06988e-05
0.00374833
1.22269e-05
0.00374088
1.37839e-05
0.00373298
1.5372e-05
0.00372467
1.6994e-05
0.00371595
1.86541e-05
0.00370685
2.03578e-05
0.0036974
2.21121e-05
0.00368761
2.39259e-05
0.00367752
2.58103e-05
0.00366714
2.7779e-05
0.00365649
2.98481e-05
0.00364557
3.20358e-05
0.00363437
3.43612e-05
0.00362283
3.68425e-05
0.00361091
3.94943e-05
0.00359852
4.23255e-05
0.00358555
4.53378e-05
0.00357188
4.8524e-05
0.0035574
5.18678e-05
0.00354198
5.53408e-05
0.00352549
5.88989e-05
0.00350783
6.24788e-05
0.00348888
6.59958e-05
0.00346853
6.93475e-05
0.0034467
7.24202e-05
0.00342338
7.50925e-05
0.0033986
7.72922e-05
0.00337248
7.89969e-05
0.00334517
8.02041e-05
0.00331672
8.09239e-05
0.00328707
8.11932e-05
0.00325605
8.11102e-05
0.00322353
8.08627e-05
0.0031895
8.07074e-05
0.00315407
8.08946e-05
0.00311746
8.15839e-05
0.00307982
8.28031e-05
0.00304121
8.44612e-05
0.00300161
8.63978e-05
0.00296092
8.84412e-05
0.00291908
9.04508e-05
0.00287603
9.23385e-05
0.00283177
9.40664e-05
0.00278635
9.56321e-05
0.00273981
9.70511e-05
0.00269218
9.83466e-05
0.00264352
9.95458e-05
0.00259385
0.000100678
0.00254318
0.000101772
0.00249151
0.000102851
0.00243885
0.00010393
0.00238519
0.000105012
0.00233054
0.000106094
0.00227487
0.000107173
0.0022182
0.000108246
0.00216052
0.000109312
0.00210183
0.000110375
0.00204213
0.000111437
0.00198141
0.000112501
0.00191967
0.000113566
0.0018569
0.000114634
0.00179311
0.000115705
0.00172827
0.000116778
0.0016624
0.000117853
0.00159548
0.000118929
0.00152752
0.00012
0.00145854
0.000121057
0.00138855
0.000122092
0.00131756
0.000123101
0.0012456
0.000124082
0.00117271
0.000125032
0.0010989
0.000125947
0.00102421
0.000126822
0.000948687
0.000127654
0.000872367
0.000128438
0.000795301
0.000129167
0.000717545
0.000129837
0.000639156
0.000130446
0.000560212
0.000130985
0.000480813
0.000131442
0.000401051
0.000131824
0.000320863
0.000132205
0.000240037
0.000132579
0.000159459
0.0001308
8.19043e-05
0.000125835
0.000138049
5.47626e-05
-0.00016645
0.00012664
-0.000215708
0.000195951
-0.000207739
0.000260918
-0.000195487
0.000323934
-0.000190244
0.000386544
-0.000189103
0.000449041
-0.00018862
0.000511259
-0.000187674
0.000573035
-0.000186306
0.000634284
-0.000184714
0.000694957
-0.000182984
0.000755016
-0.00018113
0.00081442
-0.00017915
0.000873129
-0.000177048
0.000931102
-0.000174829
0.000988305
-0.000172503
0.00104471
-0.000170078
0.00110028
-0.00016756
0.00115499
-0.00016496
0.00120882
-0.000162284
0.00126175
-0.000159542
0.00131375
-0.000156741
0.00136482
-0.00015389
0.00141493
-0.000150994
0.00146408
-0.000148062
0.00151226
-0.000145101
0.00155946
-0.000142119
0.00160567
-0.00013912
0.00165089
-0.000136111
0.00169513
-0.000133098
0.00173837
-0.000130086
0.00178063
-0.00012708
0.0018219
-0.000124084
0.0018622
-0.000121102
0.00190151
-0.000118137
0.00193986
-0.000115194
0.00197725
-0.000112276
0.00201368
-0.000109385
0.00204918
-0.000106523
0.00208374
-0.000103693
0.0021174
-0.000100894
0.00215016
-9.81243e-05
0.00218203
-9.53805e-05
0.00221302
-9.26629e-05
0.00224314
-8.99741e-05
0.00227241
-8.73182e-05
0.00230084
-8.4699e-05
0.00232843
-8.21182e-05
0.00235521
-7.9576e-05
0.00238118
-7.70716e-05
0.00240636
-7.46037e-05
0.00243075
-7.21715e-05
0.00245437
-6.97742e-05
0.00247722
-6.74104e-05
0.00249932
-6.50773e-05
0.00252066
-6.27704e-05
0.00254124
-6.04839e-05
0.00256102
-5.82145e-05
0.00258
-5.59637e-05
0.00259815
-5.37392e-05
0.00261547
-5.15518e-05
0.00263198
-4.94102e-05
0.00264771
-4.73171e-05
0.0026627
-4.52684e-05
0.00267696
-4.32554e-05
0.00269053
-4.12694e-05
0.00270341
-3.93041e-05
0.00271563
-3.73565e-05
0.00272719
-3.54262e-05
0.00273809
-3.35141e-05
0.00274834
-3.16214e-05
0.00275796
-2.9749e-05
0.00276694
-2.78979e-05
0.0027753
-2.60691e-05
0.00278304
-2.42634e-05
0.00279017
-2.24821e-05
0.00279671
-2.07261e-05
0.00280265
-1.89969e-05
0.00280801
-1.72958e-05
0.00281279
-1.56244e-05
0.00281701
-1.39843e-05
0.00282068
-1.2377e-05
0.0028238
-1.08044e-05
0.00282638
-9.26875e-06
0.00282843
-7.77297e-06
0.00282996
-6.32046e-06
0.00283099
-4.91443e-06
0.00283152
-3.55677e-06
0.00283158
-2.24697e-06
0.0028312
-9.8177e-07
0.00283039
2.60476e-07
0.00282919
1.4674e-06
0.00282761
2.6343e-06
0.00282568
3.79074e-06
0.00282341
4.91223e-06
0.0028208
6.0097e-06
0.00281787
7.06526e-06
0.00281464
8.08151e-06
0.0028111
9.05109e-06
0.00280728
9.97359e-06
0.00280319
1.08414e-05
0.00279884
1.16584e-05
0.00279424
1.24202e-05
0.00278942
1.31281e-05
0.00278439
1.37797e-05
0.00277916
1.43756e-05
0.00277375
1.49169e-05
0.00276819
1.54014e-05
0.00276248
1.58314e-05
0.00275665
1.62068e-05
0.00275071
1.65261e-05
0.00274469
1.67909e-05
0.00273859
1.70009e-05
0.00273245
1.71564e-05
0.00272627
1.72585e-05
0.00272008
1.73065e-05
0.00271389
1.73012e-05
0.00270773
1.72431e-05
0.00270161
1.71325e-05
0.00269554
1.69711e-05
0.00268956
1.67595e-05
0.00268366
1.64981e-05
0.00267788
1.61889e-05
0.00267223
1.58315e-05
0.00266673
1.54283e-05
0.00266139
1.49804e-05
0.00265623
1.44889e-05
0.00265126
1.39551e-05
0.0026465
1.338e-05
0.00264196
1.27657e-05
0.00263767
1.21127e-05
0.00263362
1.14227e-05
0.00262983
1.0697e-05
0.00262632
9.93722e-06
0.00262309
9.14473e-06
0.00262015
8.32502e-06
0.00261749
7.4782e-06
0.00261513
6.60228e-06
0.00261307
5.6992e-06
0.00261131
4.76927e-06
0.00260986
3.81225e-06
0.00260872
2.82676e-06
0.00260793
1.80561e-06
0.00260754
7.2229e-07
0.00260753
-3.82549e-07
0.00260791
-1.51369e-06
0.00260875
-2.66364e-06
0.00261002
-3.77009e-06
0.00261169
-4.81961e-06
0.00261372
-5.83624e-06
0.00261611
-6.85144e-06
0.00261886
-7.88408e-06
0.00262199
-8.93838e-06
0.00262551
-1.00107e-05
0.00262944
-1.10959e-05
0.00263378
-1.219e-05
0.00263853
-1.32902e-05
0.0026437
-1.43941e-05
0.0026493
-1.54997e-05
0.00265531
-1.66053e-05
0.00266176
-1.7709e-05
0.00266862
-1.88095e-05
0.00267591
-1.99056e-05
0.00268363
-2.09965e-05
0.00269176
-2.20814e-05
0.0027003
-2.31597e-05
0.00270925
-2.42296e-05
0.00271861
-2.52896e-05
0.00272837
-2.63383e-05
0.00273853
-2.73747e-05
0.00274908
-2.83973e-05
0.00276001
-2.94047e-05
0.00277132
-3.0395e-05
0.002783
-3.13658e-05
0.00279503
-3.23144e-05
0.00280739
-3.32384e-05
0.00282006
-3.41357e-05
0.00283303
-3.50057e-05
0.00284627
-3.58496e-05
0.00285976
-3.66691e-05
0.00287352
-3.74659e-05
0.00288753
-3.82401e-05
0.00290181
-3.89904e-05
0.00291637
-3.97132e-05
0.0029312
-4.04048e-05
0.0029463
-4.10616e-05
0.00296169
-4.16814e-05
0.00297735
-4.22633e-05
0.00299327
-4.28086e-05
0.00300946
-4.33184e-05
0.00302589
-4.37948e-05
0.00304258
-4.42396e-05
0.00305949
-4.46543e-05
0.00307662
-4.50421e-05
0.00309395
-4.54068e-05
0.00311146
-4.57524e-05
0.00312913
-4.60839e-05
0.00314692
-4.64067e-05
0.0031648
-4.67262e-05
0.00318272
-4.7046e-05
0.00320062
-4.73655e-05
0.00321844
-4.76775e-05
0.00323612
-4.79661e-05
0.00325359
-4.82075e-05
0.0032708
-4.83741e-05
0.00328773
-4.84414e-05
0.00330438
-4.83958e-05
0.00332079
-4.82392e-05
0.00333699
-4.79892e-05
0.00335305
-4.76734e-05
0.00336902
-4.73215e-05
0.00338495
-4.69574e-05
0.00340086
-4.65947e-05
0.00341673
-4.62367e-05
0.00343256
-4.58786e-05
0.00344831
-4.55116e-05
0.00346393
-4.51265e-05
0.0034794
-4.4716e-05
0.00349469
-4.42751e-05
0.00350976
-4.38006e-05
0.00352461
-4.329e-05
0.00353919
-4.27415e-05
0.0035535
-4.21527e-05
0.00356751
-4.15212e-05
0.00358119
-4.08447e-05
0.00359452
-4.01213e-05
0.00360748
-3.93498e-05
0.00362005
-3.85292e-05
0.0036322
-3.76589e-05
0.00364393
-3.67387e-05
0.00365522
-3.57686e-05
0.00366605
-3.47487e-05
0.0036764
-3.36791e-05
0.00368626
-3.25602e-05
0.00369561
-3.13924e-05
0.00370445
-3.01761e-05
0.00371275
-2.89122e-05
0.00372051
-2.76013e-05
0.00372771
-2.62441e-05
0.00373434
-2.48419e-05
0.0037404
-2.33952e-05
0.00374586
-2.19052e-05
0.00375073
-2.0373e-05
0.003755
-1.88002e-05
0.00375865
-1.7188e-05
0.00376168
-1.55379e-05
0.00376409
-1.38517e-05
0.00376586
-1.21299e-05
0.00376701
-1.03746e-05
0.00376751
-8.58682e-06
0.00376738
-6.7686e-06
0.00376661
-4.92132e-06
0.0037652
-3.04785e-06
0.00376315
-1.15317e-06
0.00376048
7.72734e-07
0.00375717
2.73423e-06
0.00375322
4.7149e-06
0.00374862
6.71549e-06
0.00374337
8.73491e-06
0.00373748
1.07662e-05
0.00373096
1.28078e-05
0.00372382
1.4875e-05
0.00371603
1.69826e-05
0.0037076
1.91289e-05
0.00369852
2.13065e-05
0.00368879
2.35119e-05
0.00367842
2.57461e-05
0.0036674
2.80119e-05
0.00365574
3.03125e-05
0.00364345
3.26518e-05
0.00363053
3.50343e-05
0.00361699
3.74656e-05
0.00360285
3.9952e-05
0.00358812
4.25017e-05
0.00357285
4.51245e-05
0.00355705
4.78327e-05
0.00354077
5.06405e-05
0.00352405
5.35625e-05
0.00350693
5.66125e-05
0.00348946
5.98005e-05
0.00347166
6.31309e-05
0.00345359
6.66007e-05
0.00343526
7.01986e-05
0.00341669
7.3904e-05
0.00339791
7.76862e-05
0.00337888
8.15032e-05
0.00335957
8.53025e-05
0.0033399
8.90208e-05
0.00331973
9.25885e-05
0.00329889
9.59393e-05
0.00327716
9.90204e-05
0.00325436
0.000101796
0.00323032
0.000104246
0.00320487
0.000106368
0.00317787
0.000108195
0.00314917
0.000109814
0.00311866
0.00011137
0.00308634
0.000113033
0.00305229
0.000114944
0.00301669
0.000117183
0.00297973
0.000119761
0.00294156
0.000122625
0.00290229
0.000125669
0.00286198
0.000128755
0.00282067
0.000131756
0.00277843
0.000134582
0.00273529
0.000137202
0.00269129
0.000139636
0.00264641
0.000141931
0.00260062
0.00014414
0.00255386
0.0001463
0.00250611
0.000148433
0.00245733
0.000150547
0.00240754
0.000152644
0.00235675
0.000154725
0.00230497
0.000156792
0.00225221
0.000158845
0.0021985
0.000160887
0.00214382
0.000162921
0.00208819
0.000164948
0.00203159
0.000166971
0.00197404
0.000168993
0.00191552
0.000171015
0.00185605
0.000173039
0.00179562
0.000175065
0.00173423
0.000177095
0.00167188
0.000179128
0.00160857
0.000181164
0.0015443
0.0001832
0.00147906
0.000185233
0.00141287
0.000187254
0.0013457
0.000189257
0.00127757
0.000191235
0.00120847
0.000193182
0.00113841
0.00019509
0.00106741
0.00019695
0.000995477
0.000198751
0.000922646
0.000200485
0.000848944
0.00020214
0.000774407
0.000203704
0.000699079
0.000205165
0.000623015
0.00020651
0.000546279
0.000207721
0.000468944
0.000208778
0.000391013
0.000209755
0.000312367
0.000210851
0.000233403
0.000211543
0.000156007
0.000208197
8.20073e-05
0.000199834
0.000220056
5.62148e-05
-0.000222665
0.000129197
-0.00028869
0.000199832
-0.000278374
0.00026626
-0.000261915
0.000330734
-0.000254718
0.000394725
-0.000253094
0.000458538
-0.000252433
0.000522028
-0.000251164
0.000585039
-0.000249317
0.000647484
-0.000247159
0.00070931
-0.000244809
0.000770475
-0.000242295
0.000830936
-0.000239611
0.00089065
-0.000236762
0.000949576
-0.000233756
0.00100768
-0.000230604
0.00106492
-0.000227319
0.00112127
-0.000223912
0.0011767
-0.000220394
0.0012312
-0.000216775
0.00128472
-0.000213068
0.00133726
-0.000209284
0.00138881
-0.000205431
0.00143933
-0.000201523
0.00148884
-0.000197567
0.00153731
-0.000193575
0.00158475
-0.000189554
0.00163114
-0.000185514
0.00167649
-0.000181464
0.00172081
-0.00017741
0.00176408
-0.000173359
0.00180632
-0.000169318
0.00184753
-0.000165294
0.00188772
-0.000161291
0.00192689
-0.000157315
0.00196507
-0.000153369
0.00200225
-0.000149458
0.00203845
-0.000145583
0.00207368
-0.000141748
0.00210794
-0.000137954
0.00214124
-0.000134202
0.00217361
-0.000130493
0.00220506
-0.000126828
0.00223561
-0.000123209
0.00226527
-0.000119638
0.00229407
-0.000116117
0.00232202
-0.000112648
0.00234913
-0.000109229
0.00237541
-0.00010586
0.00240088
-0.00010254
0.00242555
-9.92681e-05
0.00244942
-9.60424e-05
0.0024725
-9.28616e-05
0.00249482
-8.9724e-05
0.00251637
-8.66277e-05
0.00253717
-8.35702e-05
0.00255723
-8.05497e-05
0.00257658
-7.75651e-05
0.00259524
-7.46169e-05
0.00261321
-7.17073e-05
0.00263049
-6.88387e-05
0.0026471
-6.60134e-05
0.00266301
-6.32314e-05
0.00267823
-6.04907e-05
0.00269276
-5.77876e-05
0.00270661
-5.5118e-05
0.00271979
-5.24788e-05
0.0027323
-4.98681e-05
0.00274416
-4.72851e-05
0.00275537
-4.47299e-05
0.00276596
-4.22029e-05
0.00277591
-3.97048e-05
0.00278525
-3.72364e-05
0.00279398
-3.47985e-05
0.00280211
-3.23922e-05
0.00280964
-3.00187e-05
0.0028166
-2.76791e-05
0.00282298
-2.53751e-05
0.00282879
-2.3108e-05
0.00283404
-2.08797e-05
0.00283875
-1.86919e-05
0.00284292
-1.65465e-05
0.00284656
-1.44454e-05
0.00284968
-1.23908e-05
0.00285229
-1.03846e-05
0.0028544
-8.42903e-06
0.00285601
-6.52561e-06
0.00285713
-4.67499e-06
0.00285776
-2.8761e-06
0.00285791
-1.12653e-06
0.00285761
5.54322e-07
0.00285688
2.19732e-06
0.00285572
3.79974e-06
0.00285415
5.35667e-06
0.00285221
6.85293e-06
0.00284991
8.30704e-06
0.00284728
9.6977e-06
0.00284433
1.10339e-05
0.00284107
1.23093e-05
0.00283753
1.35173e-05
0.00283371
1.46626e-05
0.00282963
1.57372e-05
0.00282531
1.67411e-05
0.00282076
1.76775e-05
0.002816
1.85408e-05
0.00281104
1.93319e-05
0.00280591
2.00508e-05
0.00280061
2.06975e-05
0.00279517
2.12724e-05
0.0027896
2.17751e-05
0.00278392
2.22064e-05
0.00277815
2.25647e-05
0.0027723
2.28511e-05
0.00276639
2.30646e-05
0.00276044
2.32077e-05
0.00275447
2.32796e-05
0.00274848
2.32818e-05
0.00274251
2.32149e-05
0.00273657
2.30801e-05
0.00273066
2.28765e-05
0.00272481
2.26069e-05
0.00271904
2.22718e-05
0.00271336
2.18724e-05
0.00270778
2.14104e-05
0.00270232
2.08873e-05
0.00269699
2.03039e-05
0.00269182
1.96617e-05
0.00268681
1.89631e-05
0.00268198
1.82086e-05
0.00267735
1.74013e-05
0.00267292
1.65415e-05
0.00266871
1.56325e-05
0.00266473
1.46742e-05
0.002661
1.36682e-05
0.00265753
1.26173e-05
0.00265434
1.15191e-05
0.00265144
1.0376e-05
0.00264885
9.19235e-06
0.00264658
7.97008e-06
0.00264463
6.71176e-06
0.00264303
5.42071e-06
0.00264175
4.10041e-06
0.0026408
2.75596e-06
0.00264013
1.39635e-06
0.00263969
5.89176e-08
0.00263962
-1.44258e-06
0.00263982
-2.87187e-06
0.00264035
-4.294e-06
0.00264124
-5.71591e-06
0.00264255
-7.14341e-06
0.00264428
-8.58102e-06
0.00264643
-1.00316e-05
0.00264899
-1.14959e-05
0.00265195
-1.29725e-05
0.00265531
-1.44592e-05
0.00265907
-1.59531e-05
0.00266324
-1.74519e-05
0.00266779
-1.89534e-05
0.00267275
-2.04555e-05
0.0026781
-2.19564e-05
0.00268385
-2.34539e-05
0.00268998
-2.49464e-05
0.00269651
-2.6432e-05
0.00270342
-2.79091e-05
0.00271072
-2.93761e-05
0.00271839
-3.08316e-05
0.00272643
-3.22738e-05
0.00273484
-3.3701e-05
0.00274362
-3.51114e-05
0.00275275
-3.65035e-05
0.00276222
-3.78757e-05
0.00277205
-3.92267e-05
0.00278221
-4.05549e-05
0.0027927
-4.18588e-05
0.00280352
-4.3137e-05
0.00281467
-4.43879e-05
0.00282615
-4.56101e-05
0.00283794
-4.68017e-05
0.00285005
-4.79613e-05
0.00286247
-4.90873e-05
0.00287518
-5.01784e-05
0.00288818
-5.12324e-05
0.00290143
-5.22483e-05
0.00291495
-5.32241e-05
0.0029287
-5.41582e-05
0.00294269
-5.505e-05
0.0029569
-5.58978e-05
0.00297134
-5.67016e-05
0.00298599
-5.74611e-05
0.00300085
-5.81769e-05
0.00301591
-5.88503e-05
0.00303115
-5.9483e-05
0.00304657