/*--------------------------------*- C++ -*----------------------------------*\
| =========                 |                                                 |
| \\      /  F ield         | OpenFOAM: The Open Source CFD Toolbox           |
|  \\    /   O peration     | Version:  v2006                                 |
|   \\  /    A nd           | Website:  www.openfoam.com                      |
|    \\/     M anipulation  |                                                 |
\*---------------------------------------------------------------------------*/
FoamFile
{
    version     2.0;
    format      ascii;
    class       volVectorField;
    location    "12.9";
    object      U;
}
// * * * * * * * * * * * * * * * * * * * * * * * * * * * * * * * * * * * * * //

dimensions      [0 1 -1 0 0 0 0];


internalField   nonuniform List<vector> 
52500
(
(-0.00369691 0.00423011 0)
(-0.00883058 0.00302587 0)
(-0.013898 0.00310977 0)
(-0.0194998 0.00335973 0)
(-0.0251778 0.00348281 0)
(-0.0308912 0.00351548 0)
(-0.0365883 0.00351188 0)
(-0.0422782 0.00350582 0)
(-0.0479676 0.00350859 0)
(-0.0536593 0.00351901 0)
(-0.0593538 0.00353312 0)
(-0.0650509 0.00354944 0)
(-0.0707507 0.00356746 0)
(-0.0764528 0.00358735 0)
(-0.0821571 0.00360919 0)
(-0.0878634 0.00363303 0)
(-0.0935718 0.00365887 0)
(-0.0992821 0.00368659 0)
(-0.104994 0.00371613 0)
(-0.110708 0.00374753 0)
(-0.116424 0.00378085 0)
(-0.122141 0.00381607 0)
(-0.12786 0.00385307 0)
(-0.133579 0.00389171 0)
(-0.139299 0.00393186 0)
(-0.145019 0.00397342 0)
(-0.150738 0.00401629 0)
(-0.156455 0.00406014 0)
(-0.162169 0.00410441 0)
(-0.167878 0.00414834 0)
(-0.17358 0.00419105 0)
(-0.179274 0.00423179 0)
(-0.184956 0.0042702 0)
(-0.190626 0.00430665 0)
(-0.196281 0.00434238 0)
(-0.201922 0.00437906 0)
(-0.207546 0.00441809 0)
(-0.213156 0.00446007 0)
(-0.21875 0.00450451 0)
(-0.224328 0.0045498 0)
(-0.229889 0.00459364 0)
(-0.23543 0.00463363 0)
(-0.240947 0.00466827 0)
(-0.246438 0.00469773 0)
(-0.2519 0.00472438 0)
(-0.257328 0.00475243 0)
(-0.262724 0.00478672 0)
(-0.268088 0.00483064 0)
(-0.273421 0.00488391 0)
(-0.278724 0.00494109 0)
(-0.283994 0.00499188 0)
(-0.289224 0.00502335 0)
(-0.294401 0.00502345 0)
(-0.299509 0.0049844 0)
(-0.304528 0.00490444 0)
(-0.30944 0.00478764 0)
(-0.314227 0.00464214 0)
(-0.318877 0.00447759 0)
(-0.323381 0.00430298 0)
(-0.327734 0.00412526 0)
(-0.331935 0.00394902 0)
(-0.335984 0.00377673 0)
(-0.339882 0.0036093 0)
(-0.343631 0.00344654 0)
(-0.347231 0.0032876 0)
(-0.350685 0.00313116 0)
(-0.353994 0.00297574 0)
(-0.357156 0.00281992 0)
(-0.360171 0.00266259 0)
(-0.363039 0.00250316 0)
(-0.365757 0.0023417 0)
(-0.368326 0.002179 0)
(-0.370744 0.00201641 0)
(-0.373011 0.00185552 0)
(-0.375129 0.00169771 0)
(-0.377097 0.00154383 0)
(-0.378919 0.001394 0)
(-0.380595 0.00124785 0)
(-0.382127 0.00110482 0)
(-0.383516 0.000964456 0)
(-0.384765 0.000826583 0)
(-0.385875 0.000691355 0)
(-0.386848 0.000559284 0)
(-0.387687 0.00043119 0)
(-0.388395 0.000307968 0)
(-0.388976 0.000190361 0)
(-0.389434 7.8894e-05 0)
(-0.389773 -2.61967e-05 0)
(-0.389999 -0.00012502 0)
(-0.390115 -0.000218124 0)
(-0.390127 -0.000306911 0)
(-0.390046 -0.000390452 0)
(-0.389872 -0.000469277 0)
(-0.389607 -0.000544765 0)
(-0.389256 -0.000617848 0)
(-0.38882 -0.000689059 0)
(-0.388301 -0.000758671 0)
(-0.387702 -0.000826776 0)
(-0.387025 -0.00089331 0)
(-0.386273 -0.000958099 0)
(-0.385446 -0.00102092 0)
(-0.384547 -0.00108153 0)
(-0.383579 -0.00113971 0)
(-0.382543 -0.00119513 0)
(-0.38144 -0.00124716 0)
(-0.380275 -0.00129447 0)
(-0.379048 -0.00133471 0)
(-0.377766 -0.00136479 0)
(-0.376435 -0.00138217 0)
(-0.37506 -0.00138653 0)
(-0.373649 -0.00138086 0)
(-0.372205 -0.00137078 0)
(-0.370732 -0.00136241 0)
(-0.369228 -0.00135998 0)
(-0.367693 -0.00136475 0)
(-0.366127 -0.00137559 0)
(-0.364528 -0.00139036 0)
(-0.362897 -0.00140712 0)
(-0.361235 -0.00142459 0)
(-0.359544 -0.00144204 0)
(-0.357824 -0.00145908 0)
(-0.356077 -0.00147541 0)
(-0.354304 -0.0014908 0)
(-0.352506 -0.00150502 0)
(-0.350686 -0.00151791 0)
(-0.348844 -0.00152933 0)
(-0.346982 -0.00153917 0)
(-0.345102 -0.00154734 0)
(-0.343204 -0.00155374 0)
(-0.341291 -0.00155832 0)
(-0.339364 -0.00156101 0)
(-0.337424 -0.00156176 0)
(-0.335472 -0.00156053 0)
(-0.333511 -0.00155727 0)
(-0.331541 -0.00155193 0)
(-0.329563 -0.00154444 0)
(-0.327579 -0.00153474 0)
(-0.32559 -0.00152276 0)
(-0.323597 -0.0015084 0)
(-0.321602 -0.00149161 0)
(-0.319604 -0.00147234 0)
(-0.317604 -0.00145061 0)
(-0.315603 -0.00142648 0)
(-0.3136 -0.00140001 0)
(-0.311595 -0.00137102 0)
(-0.30959 -0.0013389 0)
(-0.307583 -0.00130225 0)
(-0.305579 -0.00125873 0)
(-0.30358 -0.00120505 0)
(-0.301593 -0.00113746 0)
(-0.299626 -0.00105246 0)
(-0.297689 -0.00094783 0)
(-0.295794 -0.000823494 0)
(-0.293949 -0.000681909 0)
(-0.292165 -0.000527749 0)
(-0.290448 -0.000366879 0)
(-0.288802 -0.000204899 0)
(-0.287229 -4.57617e-05 0)
(-0.28573 0.000109046 0)
(-0.284304 0.000260513 0)
(-0.282954 0.00041138 0)
(-0.28168 0.000564957 0)
(-0.280486 0.000723835 0)
(-0.279376 0.000888655 0)
(-0.278356 0.00105682 0)
(-0.277427 0.00122134 0)
(-0.276588 0.00137071 0)
(-0.275832 0.00149102 0)
(-0.275143 0.00156985 0)
(-0.274502 0.00160067 0)
(-0.273885 0.00158513 0)
(-0.273272 0.00153095 0)
(-0.272648 0.0014473 0)
(-0.271998 0.00134047 0)
(-0.271313 0.00121158 0)
(-0.270582 0.00105711 0)
(-0.269791 0.000872663 0)
(-0.268923 0.000658176 0)
(-0.267964 0.000421474 0)
(-0.266904 0.000178674 0)
(-0.265741 -4.92435e-05 0)
(-0.264483 -0.000242414 0)
(-0.263148 -0.000387769 0)
(-0.26176 -0.000482145 0)
(-0.26034 -0.000531832 0)
(-0.258908 -0.000549199 0)
(-0.257478 -0.00054833 0)
(-0.256057 -0.000541393 0)
(-0.254649 -0.000536911 0)
(-0.253252 -0.000539745 0)
(-0.251862 -0.000552088 0)
(-0.250477 -0.000574539 0)
(-0.249092 -0.000606864 0)
(-0.247702 -0.000648562 0)
(-0.246302 -0.00069913 0)
(-0.244889 -0.000758113 0)
(-0.243459 -0.000825264 0)
(-0.242005 -0.000900535 0)
(-0.240525 -0.0009838 0)
(-0.239013 -0.00107485 0)
(-0.237465 -0.00117275 0)
(-0.235878 -0.00127531 0)
(-0.234246 -0.00137922 0)
(-0.232572 -0.00147926 0)
(-0.230857 -0.00156776 0)
(-0.229107 -0.0016375 0)
(-0.22733 -0.00168395 0)
(-0.225539 -0.00170534 0)
(-0.223746 -0.00170257 0)
(-0.221964 -0.00167725 0)
(-0.220203 -0.00163143 0)
(-0.218473 -0.00156886 0)
(-0.216784 -0.00149593 0)
(-0.21514 -0.00142123 0)
(-0.213542 -0.0013542 0)
(-0.211986 -0.00130268 0)
(-0.210467 -0.00127033 0)
(-0.208977 -0.00125706 0)
(-0.207505 -0.00126037 0)
(-0.206046 -0.00127492 0)
(-0.204595 -0.00129492 0)
(-0.20315 -0.00131527 0)
(-0.201707 -0.00133271 0)
(-0.20027 -0.00134579 0)
(-0.198839 -0.00135401 0)
(-0.197415 -0.00135782 0)
(-0.195998 -0.00135911 0)
(-0.194591 -0.00135884 0)
(-0.193194 -0.00135785 0)
(-0.191806 -0.00135657 0)
(-0.19043 -0.00135508 0)
(-0.189066 -0.00135306 0)
(-0.187714 -0.00135029 0)
(-0.186375 -0.0013467 0)
(-0.18505 -0.00134219 0)
(-0.183741 -0.00133681 0)
(-0.182447 -0.0013306 0)
(-0.181169 -0.00132362 0)
(-0.179909 -0.00131581 0)
(-0.178667 -0.00130709 0)
(-0.177444 -0.00129745 0)
(-0.176239 -0.00128671 0)
(-0.175054 -0.00127473 0)
(-0.17389 -0.00126143 0)
(-0.172748 -0.00124648 0)
(-0.171627 -0.00122948 0)
(-0.170528 -0.00121038 0)
(-0.169453 -0.00118877 0)
(-0.168402 -0.00116416 0)
(-0.167377 -0.00113612 0)
(-0.166379 -0.00110414 0)
(-0.165408 -0.0010675 0)
(-0.164467 -0.00102533 0)
(-0.163558 -0.000976509 0)
(-0.162684 -0.000919774 0)
(-0.161847 -0.000853488 0)
(-0.161052 -0.00077595 0)
(-0.160303 -0.000686858 0)
(-0.159604 -0.000588469 0)
(-0.158959 -0.000484701 0)
(-0.158367 -0.000378413 0)
(-0.15783 -0.000269506 0)
(-0.157348 -0.000157292 0)
(-0.156922 -4.25118e-05 0)
(-0.156553 7.26418e-05 0)
(-0.156241 0.000185229 0)
(-0.155985 0.000293081 0)
(-0.155785 0.000395573 0)
(-0.155641 0.00049476 0)
(-0.155555 0.000595165 0)
(-0.15553 0.000703391 0)
(-0.155572 0.000824185 0)
(-0.155692 0.00095931 0)
(-0.155903 0.00110967 0)
(-0.156219 0.00127445 0)
(-0.156653 0.00145158 0)
(-0.157217 0.00163866 0)
(-0.157922 0.00183347 0)
(-0.158778 0.00203345 0)
(-0.159795 0.00222606 0)
(-0.160973 0.00240116 0)
(-0.162307 0.00254765 0)
(-0.163784 0.00265624 0)
(-0.165384 0.00272286 0)
(-0.167083 0.00274828 0)
(-0.168852 0.00273549 0)
(-0.170664 0.00269148 0)
(-0.172494 0.00263439 0)
(-0.174317 0.00259037 0)
(-0.176091 0.0025504 0)
(-0.17776 0.00245936 0)
(-0.179245 0.00223863 0)
(-0.180433 0.00181616 0)
(-0.181201 0.00118812 0)
(-0.181462 0.00039982 0)
(-0.181112 -0.000410375 0)
(-0.18022 -0.00103155 0)
(-0.178926 -0.00137814 0)
(-0.177366 -0.0014974 0)
(-0.17565 -0.0014935 0)
(-0.173845 -0.00146444 0)
(-0.171979 -0.00147257 0)
(-0.170052 -0.00154355 0)
(-0.16805 -0.00167712 0)
(-0.165954 -0.00185857 0)
(-0.16375 -0.0020682 0)
(-0.161431 -0.0022878 0)
(-0.158997 -0.00250373 0)
(-0.156451 -0.0027072 0)
(-0.153798 -0.0028931 0)
(-0.151042 -0.00305863 0)
(-0.148185 -0.00320275 0)
(-0.145231 -0.00332639 0)
(-0.142185 -0.00343252 0)
(-0.139053 -0.00352517 0)
(-0.135844 -0.00360825 0)
(-0.132566 -0.003685 0)
(-0.129225 -0.00375814 0)
(-0.125827 -0.00382951 0)
(-0.122377 -0.00390028 0)
(-0.118876 -0.00397112 0)
(-0.115331 -0.00404241 0)
(-0.111742 -0.00411419 0)
(-0.108115 -0.00418654 0)
(-0.104449 -0.00425956 0)
(-0.100749 -0.00433347 0)
(-0.0970148 -0.00440853 0)
(-0.0932483 -0.00448522 0)
(-0.0894508 -0.00456402 0)
(-0.0856236 -0.00464504 0)
(-0.0817679 -0.00472847 0)
(-0.0778837 -0.00481483 0)
(-0.0739711 -0.00490326 0)
(-0.0700293 -0.004993 0)
(-0.0660572 -0.00508357 0)
(-0.0620532 -0.00517356 0)
(-0.0580154 -0.00526182 0)
(-0.0539421 -0.0053476 0)
(-0.0498312 -0.00542925 0)
(-0.0456814 -0.00550474 0)
(-0.041492 -0.0055709 0)
(-0.0372645 -0.00562446 0)
(-0.0330011 -0.0056651 0)
(-0.0287048 -0.00569983 0)
(-0.0243732 -0.00575153 0)
(-0.0199903 -0.00586168 0)
(-0.0155459 -0.00606914 0)
(-0.0110196 -0.00632835 0)
(-0.0063272 -0.00627915 0)
(-0.0017777 -0.00482321 0)
(-0.00476486 0.0164685 0)
(-0.0116768 0.0141376 0)
(-0.0191593 0.0148295 0)
(-0.0270999 0.0153718 0)
(-0.0351044 0.0154869 0)
(-0.0430668 0.0154755 0)
(-0.0509921 0.0154583 0)
(-0.0589037 0.0154504 0)
(-0.0668024 0.0154448 0)
(-0.0746818 0.0154372 0)
(-0.0825344 0.0154267 0)
(-0.090356 0.0154137 0)
(-0.0981433 0.015398 0)
(-0.105892 0.0153797 0)
(-0.113599 0.0153589 0)
(-0.12126 0.0153356 0)
(-0.128871 0.01531 0)
(-0.136427 0.015282 0)
(-0.143926 0.0152516 0)
(-0.151362 0.0152188 0)
(-0.158731 0.0151833 0)
(-0.16603 0.0151451 0)
(-0.173255 0.0151039 0)
(-0.180402 0.0150594 0)
(-0.187466 0.0150114 0)
(-0.194446 0.0149593 0)
(-0.201336 0.0149028 0)
(-0.208134 0.0148412 0)
(-0.214836 0.0147741 0)
(-0.22144 0.0147013 0)
(-0.227943 0.0146231 0)
(-0.234343 0.0145397 0)
(-0.240641 0.0144519 0)
(-0.246835 0.0143604 0)
(-0.252926 0.0142662 0)
(-0.258913 0.0141698 0)
(-0.264794 0.0140711 0)
(-0.270569 0.0139696 0)
(-0.276236 0.0138644 0)
(-0.281791 0.0137545 0)
(-0.287232 0.0136389 0)
(-0.29256 0.0135171 0)
(-0.297771 0.0133889 0)
(-0.302867 0.0132545 0)
(-0.307848 0.0131142 0)
(-0.312711 0.0129683 0)
(-0.317455 0.0128169 0)
(-0.322076 0.0126592 0)
(-0.326569 0.0124941 0)
(-0.330927 0.0123192 0)
(-0.335145 0.0121314 0)
(-0.339222 0.0119274 0)
(-0.343157 0.0117044 0)
(-0.346954 0.0114607 0)
(-0.35062 0.0111963 0)
(-0.354165 0.010913 0)
(-0.357596 0.010614 0)
(-0.360921 0.0103032 0)
(-0.364144 0.00998442 0)
(-0.367268 0.00966126 0)
(-0.370295 0.00933632 0)
(-0.373224 0.00901137 0)
(-0.376056 0.00868737 0)
(-0.378788 0.00836466 0)
(-0.38142 0.00804313 0)
(-0.383951 0.00772235 0)
(-0.386382 0.00740178 0)
(-0.388712 0.00708087 0)
(-0.390944 0.00675916 0)
(-0.393078 0.0064364 0)
(-0.395116 0.00611255 0)
(-0.39706 0.00578789 0)
(-0.398911 0.00546291 0)
(-0.400671 0.00513826 0)
(-0.402339 0.00481454 0)
(-0.403915 0.00449222 0)
(-0.405398 0.00417161 0)
(-0.406789 0.00385294 0)
(-0.408086 0.00353658 0)
(-0.409289 0.003223 0)
(-0.410399 0.00291286 0)
(-0.411416 0.00260698 0)
(-0.412342 0.00230631 0)
(-0.413176 0.00201181 0)
(-0.413921 0.00172441 0)
(-0.414576 0.00144491 0)
(-0.415142 0.00117386 0)
(-0.415621 0.000911415 0)
(-0.416012 0.00065758 0)
(-0.416317 0.000412222 0)
(-0.416535 0.00017464 0)
(-0.416661 -5.39379e-05 0)
(-0.416697 -0.000274741 0)
(-0.416648 -0.000488663 0)
(-0.416514 -0.000696329 0)
(-0.416298 -0.000898145 0)
(-0.416002 -0.00109437 0)
(-0.415629 -0.00128519 0)
(-0.415181 -0.00147073 0)
(-0.41466 -0.00165116 0)
(-0.414068 -0.00182673 0)
(-0.413408 -0.00199786 0)
(-0.412681 -0.0021651 0)
(-0.41189 -0.00232888 0)
(-0.411035 -0.00248916 0)
(-0.410117 -0.0026451 0)
(-0.409138 -0.00279522 0)
(-0.408095 -0.00293783 0)
(-0.406988 -0.00307181 0)
(-0.405814 -0.00319709 0)
(-0.404573 -0.00331453 0)
(-0.403267 -0.00342544 0)
(-0.401901 -0.003531 0)
(-0.400479 -0.00363194 0)
(-0.399008 -0.00372863 0)
(-0.397492 -0.0038212 0)
(-0.395936 -0.00390972 0)
(-0.394342 -0.00399426 0)
(-0.392712 -0.00407489 0)
(-0.391049 -0.00415169 0)
(-0.389354 -0.00422474 0)
(-0.387629 -0.00429413 0)
(-0.385874 -0.00435993 0)
(-0.384092 -0.00442224 0)
(-0.382283 -0.00448113 0)
(-0.380448 -0.0045367 0)
(-0.378589 -0.00458905 0)
(-0.376707 -0.00463829 0)
(-0.374801 -0.00468453 0)
(-0.372874 -0.00472789 0)
(-0.370925 -0.0047685 0)
(-0.368955 -0.00480645 0)
(-0.366965 -0.00484184 0)
(-0.364955 -0.00487479 0)
(-0.362925 -0.00490543 0)
(-0.360875 -0.00493395 0)
(-0.358807 -0.00496061 0)
(-0.356719 -0.00498581 0)
(-0.354612 -0.00501007 0)
(-0.352485 -0.0050341 0)
(-0.350339 -0.00505872 0)
(-0.348172 -0.00508478 0)
(-0.345985 -0.00511299 0)
(-0.343777 -0.00514368 0)
(-0.341547 -0.00517662 0)
(-0.339294 -0.00521078 0)
(-0.337017 -0.00524424 0)
(-0.334713 -0.00527429 0)
(-0.33238 -0.00529769 0)
(-0.330016 -0.00531112 0)
(-0.327615 -0.00531168 0)
(-0.325175 -0.00529746 0)
(-0.322693 -0.00526777 0)
(-0.320168 -0.00522327 0)
(-0.317599 -0.00516569 0)
(-0.314987 -0.00509735 0)
(-0.312337 -0.00502065 0)
(-0.309651 -0.00493756 0)
(-0.306934 -0.0048493 0)
(-0.304187 -0.00475629 0)
(-0.301412 -0.0046582 0)
(-0.298607 -0.00455414 0)
(-0.295772 -0.00444294 0)
(-0.292903 -0.0043237 0)
(-0.289999 -0.00419669 0)
(-0.28706 -0.00406443 0)
(-0.284093 -0.00393233 0)
(-0.281105 -0.00380808 0)
(-0.278114 -0.00369969 0)
(-0.275136 -0.00361293 0)
(-0.272189 -0.00354968 0)
(-0.269286 -0.00350803 0)
(-0.266434 -0.00348415 0)
(-0.263638 -0.00347484 0)
(-0.260897 -0.00347942 0)
(-0.258213 -0.00349983 0)
(-0.255594 -0.00353914 0)
(-0.253045 -0.00359919 0)
(-0.250574 -0.00367843 0)
(-0.248185 -0.00377081 0)
(-0.245874 -0.0038667 0)
(-0.243632 -0.00395538 0)
(-0.241444 -0.00402721 0)
(-0.239291 -0.00407571 0)
(-0.237155 -0.00409943 0)
(-0.235024 -0.00410098 0)
(-0.23289 -0.00408568 0)
(-0.230752 -0.0040597 0)
(-0.22861 -0.00402856 0)
(-0.226471 -0.00399638 0)
(-0.224338 -0.00396586 0)
(-0.222218 -0.00393867 0)
(-0.220117 -0.00391578 0)
(-0.218037 -0.0038979 0)
(-0.215985 -0.00388556 0)
(-0.213962 -0.00387914 0)
(-0.211972 -0.003879 0)
(-0.210017 -0.00388563 0)
(-0.2081 -0.00389921 0)
(-0.206223 -0.00391997 0)
(-0.204388 -0.00394766 0)
(-0.202597 -0.00398073 0)
(-0.200849 -0.00401771 0)
(-0.199144 -0.00405708 0)
(-0.197479 -0.00409434 0)
(-0.195848 -0.00412456 0)
(-0.194244 -0.00414429 0)
(-0.192656 -0.00415023 0)
(-0.191078 -0.00414052 0)
(-0.189503 -0.00411508 0)
(-0.187927 -0.00407454 0)
(-0.18635 -0.00402037 0)
(-0.184771 -0.00395492 0)
(-0.183197 -0.00388125 0)
(-0.181631 -0.00380348 0)
(-0.180083 -0.00372678 0)
(-0.178559 -0.00365466 0)
(-0.177068 -0.00358883 0)
(-0.175614 -0.00353157 0)
(-0.174201 -0.00348264 0)
(-0.172827 -0.00344079 0)
(-0.171492 -0.00340414 0)
(-0.17019 -0.0033713 0)
(-0.16892 -0.00334136 0)
(-0.167677 -0.00331286 0)
(-0.16646 -0.00328367 0)
(-0.165266 -0.00325404 0)
(-0.164095 -0.00322326 0)
(-0.162948 -0.0031909 0)
(-0.161824 -0.00315694 0)
(-0.160725 -0.00312127 0)
(-0.15965 -0.0030838 0)
(-0.158601 -0.00304445 0)
(-0.157578 -0.00300327 0)
(-0.156581 -0.00296021 0)
(-0.155611 -0.00291529 0)
(-0.154669 -0.0028687 0)
(-0.153755 -0.00282065 0)
(-0.15287 -0.00277105 0)
(-0.152013 -0.00272008 0)
(-0.151186 -0.00266797 0)
(-0.150388 -0.00261467 0)
(-0.14962 -0.00256037 0)
(-0.14888 -0.00250559 0)
(-0.14817 -0.00245027 0)
(-0.147488 -0.0023942 0)
(-0.146834 -0.00233786 0)
(-0.146206 -0.00228111 0)
(-0.145604 -0.00222394 0)
(-0.145026 -0.00216653 0)
(-0.144471 -0.00210864 0)
(-0.143936 -0.00205017 0)
(-0.143419 -0.00199092 0)
(-0.142918 -0.00193057 0)
(-0.142427 -0.00186874 0)
(-0.141944 -0.00180496 0)
(-0.141464 -0.00173885 0)
(-0.140981 -0.00167013 0)
(-0.140488 -0.00159909 0)
(-0.139983 -0.00152735 0)
(-0.139461 -0.00145642 0)
(-0.138921 -0.00138685 0)
(-0.138362 -0.00131725 0)
(-0.137782 -0.00124644 0)
(-0.137179 -0.00117421 0)
(-0.136553 -0.00110047 0)
(-0.135905 -0.00102488 0)
(-0.135237 -0.000946068 0)
(-0.13455 -0.000861067 0)
(-0.133847 -0.000765463 0)
(-0.133131 -0.000653307 0)
(-0.132404 -0.000519587 0)
(-0.131666 -0.00036054 0)
(-0.130915 -0.000172769 0)
(-0.130152 4.59976e-05 0)
(-0.129377 0.00029613 0)
(-0.128591 0.000575934 0)
(-0.127794 0.000882172 0)
(-0.127 0.00120584 0)
(-0.126219 0.00154464 0)
(-0.125447 0.00189053 0)
(-0.12469 0.0022312 0)
(-0.123952 0.0025499 0)
(-0.123237 0.00282981 0)
(-0.122544 0.00305726 0)
(-0.121867 0.0032171 0)
(-0.121191 0.00329424 0)
(-0.120472 0.00327369 0)
(-0.119659 0.003139 0)
(-0.118719 0.00287039 0)
(-0.117624 0.00245305 0)
(-0.116364 0.00187962 0)
(-0.114912 0.00116292 0)
(-0.11326 0.000306979 0)
(-0.111445 -0.000659236 0)
(-0.109576 -0.00166662 0)
(-0.107675 -0.00259486 0)
(-0.105721 -0.00335758 0)
(-0.103706 -0.00392655 0)
(-0.101645 -0.00431879 0)
(-0.0995636 -0.00457865 0)
(-0.0974901 -0.00475772 0)
(-0.095439 -0.00490118 0)
(-0.0934056 -0.00504004 0)
(-0.0913749 -0.00518865 0)
(-0.0893311 -0.00534724 0)
(-0.0872618 -0.00550944 0)
(-0.0851623 -0.00566905 0)
(-0.0830345 -0.00582547 0)
(-0.0808832 -0.00598378 0)
(-0.078715 -0.00615015 0)
(-0.0765361 -0.00632709 0)
(-0.0743475 -0.00651169 0)
(-0.0721449 -0.00669705 0)
(-0.0699275 -0.0068743 0)
(-0.0676926 -0.00703555 0)
(-0.0654343 -0.0071796 0)
(-0.0631497 -0.00730684 0)
(-0.060839 -0.00741947 0)
(-0.0585041 -0.00751937 0)
(-0.0561487 -0.00760766 0)
(-0.0537781 -0.00768457 0)
(-0.0513974 -0.00775051 0)
(-0.0490122 -0.00780737 0)
(-0.0466281 -0.00785711 0)
(-0.0442505 -0.00789915 0)
(-0.0418844 -0.00793557 0)
(-0.0395371 -0.00796604 0)
(-0.0372166 -0.00799039 0)
(-0.0349262 -0.00800916 0)
(-0.0326756 -0.00802236 0)
(-0.0304756 -0.00803313 0)
(-0.0283288 -0.00804267 0)
(-0.026244 -0.00805393 0)
(-0.024229 -0.00806919 0)
(-0.0222847 -0.00809086 0)
(-0.0204145 -0.00811992 0)
(-0.0186191 -0.00815827 0)
(-0.0168954 -0.00820712 0)
(-0.0152401 -0.00826494 0)
(-0.0136469 -0.00833193 0)
(-0.0121085 -0.00840589 0)
(-0.010613 -0.00848584 0)
(-0.00914649 -0.00857048 0)
(-0.00770874 -0.00865641 0)
(-0.00628337 -0.00873972 0)
(-0.0049221 -0.00878715 0)
(-0.00358988 -0.00888656 0)
(-0.00242012 -0.00917378 0)
(-0.000750223 -0.0084871 0)
(-0.00483744 0.030172 0)
(-0.011607 0.026332 0)
(-0.0189028 0.0277333 0)
(-0.0267305 0.0287388 0)
(-0.0347114 0.028926 0)
(-0.0426415 0.0288563 0)
(-0.0505125 0.0287864 0)
(-0.0583486 0.0287394 0)
(-0.0661568 0.0286906 0)
(-0.0739331 0.0286295 0)
(-0.081671 0.0285562 0)
(-0.0893654 0.0284719 0)
(-0.097012 0.0283774 0)
(-0.104606 0.0282723 0)
(-0.112143 0.0281565 0)
(-0.119618 0.0280299 0)
(-0.127027 0.0278925 0)
(-0.134365 0.0277441 0)
(-0.141627 0.0275847 0)
(-0.148809 0.0274146 0)
(-0.155907 0.0272337 0)
(-0.162917 0.0270422 0)
(-0.169835 0.0268405 0)
(-0.176657 0.0266287 0)
(-0.183382 0.0264071 0)
(-0.190006 0.0261759 0)
(-0.196527 0.0259351 0)
(-0.202943 0.0256851 0)
(-0.209254 0.0254263 0)
(-0.215458 0.0251595 0)
(-0.221557 0.0248859 0)
(-0.227549 0.0246067 0)
(-0.233435 0.0243234 0)
(-0.239216 0.0240372 0)
(-0.244892 0.0237489 0)
(-0.250464 0.0234586 0)
(-0.25593 0.0231659 0)
(-0.261292 0.02287 0)
(-0.266548 0.0225698 0)
(-0.2717 0.0222642 0)
(-0.276747 0.0219524 0)
(-0.281691 0.0216342 0)
(-0.286533 0.0213095 0)
(-0.291272 0.0209791 0)
(-0.295911 0.0206436 0)
(-0.300449 0.0203037 0)
(-0.304888 0.0199598 0)
(-0.309229 0.019611 0)
(-0.313471 0.0192554 0)
(-0.317618 0.0188903 0)
(-0.32167 0.0185126 0)
(-0.32563 0.0181196 0)
(-0.329501 0.0177098 0)
(-0.333288 0.0172832 0)
(-0.336992 0.0168412 0)
(-0.340615 0.0163864 0)
(-0.344157 0.0159216 0)
(-0.347619 0.0154497 0)
(-0.350997 0.0149731 0)
(-0.354289 0.0144933 0)
(-0.357493 0.0140115 0)
(-0.360606 0.0135285 0)
(-0.363624 0.0130447 0)
(-0.366545 0.0125605 0)
(-0.369366 0.0120764 0)
(-0.372087 0.0115927 0)
(-0.374704 0.0111098 0)
(-0.377218 0.010628 0)
(-0.379626 0.0101477 0)
(-0.381928 0.0096691 0)
(-0.384123 0.00919245 0)
(-0.386211 0.00871775 0)
(-0.388191 0.00824481 0)
(-0.390061 0.00777333 0)
(-0.391822 0.00730299 0)
(-0.393474 0.00683356 0)
(-0.395015 0.00636505 0)
(-0.396447 0.00589772 0)
(-0.39777 0.00543207 0)
(-0.398983 0.00496882 0)
(-0.400089 0.00450889 0)
(-0.401088 0.00405332 0)
(-0.401981 0.00360319 0)
(-0.40277 0.00315947 0)
(-0.403455 0.00272306 0)
(-0.404038 0.00229472 0)
(-0.404521 0.00187504 0)
(-0.404904 0.00146443 0)
(-0.405189 0.0010632 0)
(-0.405378 0.000671492 0)
(-0.405473 0.000289889 0)
(-0.405475 -8.21931e-05 0)
(-0.405387 -0.000445319 0)
(-0.405211 -0.000799277 0)
(-0.404948 -0.00114393 0)
(-0.404601 -0.00147925 0)
(-0.404173 -0.00180522 0)
(-0.403666 -0.00212189 0)
(-0.403083 -0.00242931 0)
(-0.402427 -0.00272755 0)
(-0.4017 -0.00301671 0)
(-0.400906 -0.00329694 0)
(-0.400047 -0.00356844 0)
(-0.399127 -0.00383159 0)
(-0.398148 -0.00408705 0)
(-0.397116 -0.00433575 0)
(-0.396032 -0.00457858 0)
(-0.394899 -0.00481577 0)
(-0.39372 -0.00504631 0)
(-0.392494 -0.00526794 0)
(-0.391224 -0.00547804 0)
(-0.389912 -0.00567478 0)
(-0.388557 -0.00585796 0)
(-0.387163 -0.00602887 0)
(-0.385731 -0.00618953 0)
(-0.384263 -0.00634177 0)
(-0.382761 -0.00648682 0)
(-0.381226 -0.0066253 0)
(-0.379661 -0.00675755 0)
(-0.378066 -0.00688375 0)
(-0.376444 -0.00700411 0)
(-0.374796 -0.00711884 0)
(-0.373123 -0.00722813 0)
(-0.371427 -0.00733217 0)
(-0.369709 -0.00743116 0)
(-0.36797 -0.00752528 0)
(-0.366212 -0.00761473 0)
(-0.364435 -0.0076997 0)
(-0.36264 -0.00778039 0)
(-0.360828 -0.00785701 0)
(-0.359 -0.00792978 0)
(-0.357158 -0.00799894 0)
(-0.355301 -0.00806474 0)
(-0.35343 -0.00812742 0)
(-0.351546 -0.00818723 0)
(-0.349649 -0.00824441 0)
(-0.34774 -0.00829917 0)
(-0.345819 -0.00835171 0)
(-0.343888 -0.00840223 0)
(-0.341945 -0.00845094 0)
(-0.339993 -0.00849811 0)
(-0.338032 -0.00854408 0)
(-0.336063 -0.0085893 0)
(-0.334088 -0.00863428 0)
(-0.33211 -0.00867954 0)
(-0.330129 -0.00872551 0)
(-0.328149 -0.00877232 0)
(-0.32617 -0.00881956 0)
(-0.324193 -0.00886609 0)
(-0.32222 -0.00890992 0)
(-0.320248 -0.00894836 0)
(-0.318276 -0.00897829 0)
(-0.316302 -0.00899671 0)
(-0.314323 -0.00900141 0)
(-0.312337 -0.00899144 0)
(-0.31034 -0.0089674 0)
(-0.308333 -0.00893135 0)
(-0.306312 -0.00888628 0)
(-0.304279 -0.00883552 0)
(-0.302232 -0.00878209 0)
(-0.300171 -0.00872826 0)
(-0.298096 -0.0086754 0)
(-0.296005 -0.00862389 0)
(-0.293897 -0.00857297 0)
(-0.291769 -0.0085206 0)
(-0.28962 -0.00846347 0)
(-0.287447 -0.00839771 0)
(-0.28525 -0.00832053 0)
(-0.283032 -0.00823187 0)
(-0.280794 -0.00813529 0)
(-0.278543 -0.00803717 0)
(-0.276282 -0.0079445 0)
(-0.274013 -0.00786262 0)
(-0.271741 -0.00779406 0)
(-0.269467 -0.00773857 0)
(-0.267195 -0.00769378 0)
(-0.26493 -0.00765655 0)
(-0.262675 -0.00762435 0)
(-0.260437 -0.00759594 0)
(-0.25822 -0.00757174 0)
(-0.256027 -0.00755334 0)
(-0.253859 -0.00754254 0)
(-0.251711 -0.00754023 0)
(-0.249579 -0.00754551 0)
(-0.247458 -0.00755566 0)
(-0.245343 -0.00756685 0)
(-0.24323 -0.00757495 0)
(-0.241117 -0.00757659 0)
(-0.239005 -0.00756986 0)
(-0.236893 -0.00755428 0)
(-0.234783 -0.00753049 0)
(-0.232676 -0.00749967 0)
(-0.230574 -0.00746334 0)
(-0.228479 -0.00742301 0)
(-0.226393 -0.00737989 0)
(-0.224318 -0.00733503 0)
(-0.222256 -0.00728928 0)
(-0.22021 -0.00724332 0)
(-0.218182 -0.00719772 0)
(-0.216176 -0.00715303 0)
(-0.214194 -0.00710982 0)
(-0.212239 -0.00706855 0)
(-0.210314 -0.00702964 0)
(-0.20842 -0.00699368 0)
(-0.206557 -0.00696154 0)
(-0.204727 -0.00693379 0)
(-0.202926 -0.0069105 0)
(-0.201153 -0.00688998 0)
(-0.199405 -0.00686825 0)
(-0.197679 -0.00683955 0)
(-0.195973 -0.00679777 0)
(-0.194286 -0.00673874 0)
(-0.192618 -0.00666109 0)
(-0.190969 -0.00656547 0)
(-0.189341 -0.00645473 0)
(-0.187735 -0.00633303 0)
(-0.186154 -0.00620551 0)
(-0.184601 -0.00607741 0)
(-0.183076 -0.00595339 0)
(-0.181582 -0.00583696 0)
(-0.180119 -0.00573016 0)
(-0.178687 -0.00563317 0)
(-0.177285 -0.00554473 0)
(-0.175913 -0.00546303 0)
(-0.174571 -0.00538568 0)
(-0.173258 -0.00531009 0)
(-0.171974 -0.00523489 0)
(-0.170719 -0.00515923 0)
(-0.169494 -0.00508184 0)
(-0.168299 -0.00500254 0)
(-0.167133 -0.00492088 0)
(-0.165998 -0.00483677 0)
(-0.164892 -0.00475 0)
(-0.163818 -0.00466056 0)
(-0.162774 -0.00456839 0)
(-0.161761 -0.00447346 0)
(-0.16078 -0.00437589 0)
(-0.159831 -0.00427591 0)
(-0.158914 -0.00417378 0)
(-0.158028 -0.00406979 0)
(-0.157175 -0.00396426 0)
(-0.156354 -0.00385746 0)
(-0.155565 -0.00374966 0)
(-0.154809 -0.00364135 0)
(-0.154084 -0.00353297 0)
(-0.153391 -0.00342453 0)
(-0.152729 -0.00331672 0)
(-0.152098 -0.00320982 0)
(-0.151497 -0.00310431 0)
(-0.150926 -0.00300057 0)
(-0.150382 -0.002899 0)
(-0.149865 -0.00280017 0)
(-0.149374 -0.00270469 0)
(-0.148906 -0.00261301 0)
(-0.148461 -0.00252566 0)
(-0.148035 -0.00244348 0)
(-0.147627 -0.0023677 0)
(-0.147232 -0.00229904 0)
(-0.146848 -0.00223781 0)
(-0.146472 -0.00218284 0)
(-0.146101 -0.00213219 0)
(-0.145731 -0.00208516 0)
(-0.145359 -0.00204168 0)
(-0.144981 -0.00200192 0)
(-0.144594 -0.00196609 0)
(-0.144193 -0.00193287 0)
(-0.143775 -0.00190039 0)
(-0.143334 -0.00186641 0)
(-0.142866 -0.00182862 0)
(-0.142366 -0.00178478 0)
(-0.141828 -0.00173276 0)
(-0.141244 -0.00167026 0)
(-0.140607 -0.00159471 0)
(-0.139905 -0.00150436 0)
(-0.139129 -0.00139764 0)
(-0.138268 -0.00127318 0)
(-0.137312 -0.00113066 0)
(-0.136257 -0.000971664 0)
(-0.135084 -0.00080198 0)
(-0.133781 -0.00061949 0)
(-0.132353 -0.000429287 0)
(-0.130802 -0.000239085 0)
(-0.129133 -5.80793e-05 0)
(-0.127352 0.000103146 0)
(-0.125476 0.000231263 0)
(-0.123525 0.000309453 0)
(-0.121517 0.000316862 0)
(-0.119485 0.000224336 0)
(-0.117465 -1.10799e-05 0)
(-0.115472 -0.000428526 0)
(-0.113514 -0.0010551 0)
(-0.11159 -0.00189716 0)
(-0.109738 -0.00291374 0)
(-0.108002 -0.00403949 0)
(-0.106382 -0.00515726 0)
(-0.104865 -0.00615025 0)
(-0.103426 -0.00696234 0)
(-0.10203 -0.0075577 0)
(-0.100634 -0.00792369 0)
(-0.0992047 -0.00808662 0)
(-0.0977218 -0.0081118 0)
(-0.0961765 -0.00808725 0)
(-0.0945654 -0.00809622 0)
(-0.092888 -0.00818965 0)
(-0.0911449 -0.00837866 0)
(-0.0893381 -0.00864164 0)
(-0.0874696 -0.00894476 0)
(-0.0855409 -0.00925377 0)
(-0.0835573 -0.00954292 0)
(-0.0815275 -0.00979748 0)
(-0.0794627 -0.0100143 0)
(-0.0773742 -0.0101992 0)
(-0.075271 -0.0103616 0)
(-0.0731547 -0.0105116 0)
(-0.0710199 -0.0106605 0)
(-0.0688635 -0.0108121 0)
(-0.0666805 -0.0109671 0)
(-0.0644631 -0.0111222 0)
(-0.0622087 -0.011273 0)
(-0.0599165 -0.0114139 0)
(-0.057587 -0.0115412 0)
(-0.0552213 -0.011652 0)
(-0.0528228 -0.0117459 0)
(-0.0503946 -0.0118229 0)
(-0.047937 -0.0118829 0)
(-0.0454568 -0.0119253 0)
(-0.0429628 -0.0119495 0)
(-0.0404597 -0.0119552 0)
(-0.0379556 -0.0119384 0)
(-0.0354568 -0.0118989 0)
(-0.0329744 -0.0118377 0)
(-0.0305191 -0.0117538 0)
(-0.0281005 -0.0116489 0)
(-0.0257331 -0.0115246 0)
(-0.0234297 -0.0113845 0)
(-0.0212016 -0.0112324 0)
(-0.0190617 -0.0110746 0)
(-0.0170231 -0.0109156 0)
(-0.0150918 -0.0107609 0)
(-0.0132764 -0.0106168 0)
(-0.011582 -0.0104854 0)
(-0.0100082 -0.0103733 0)
(-0.00855359 -0.0102815 0)
(-0.00721005 -0.0102166 0)
(-0.00597644 -0.0101796 0)
(-0.00481925 -0.0101763 0)
(-0.0037791 -0.0101622 0)
(-0.00271685 -0.0101821 0)
(-0.00171454 -0.0106194 0)
(-0.000231234 -0.0098113 0)
(-0.00473708 0.0432634 0)
(-0.0111351 0.0375601 0)
(-0.0179018 0.0396179 0)
(-0.0252397 0.0412235 0)
(-0.0327933 0.0415559 0)
(-0.0403234 0.0414148 0)
(-0.0477911 0.0412566 0)
(-0.0552186 0.0411481 0)
(-0.0626196 0.0410473 0)
(-0.0699948 0.0409288 0)
(-0.0773396 0.0407892 0)
(-0.084649 0.0406312 0)
(-0.0919199 0.0404561 0)
(-0.0991488 0.0402638 0)
(-0.106332 0.040054 0)
(-0.113466 0.0398265 0)
(-0.120547 0.0395812 0)
(-0.127571 0.0393182 0)
(-0.134536 0.0390379 0)
(-0.141438 0.0387408 0)
(-0.148273 0.0384273 0)
(-0.155039 0.0380981 0)
(-0.161734 0.0377541 0)
(-0.168355 0.0373961 0)
(-0.1749 0.0370253 0)
(-0.181369 0.0366425 0)
(-0.187759 0.0362486 0)
(-0.194069 0.0358447 0)
(-0.2003 0.035432 0)
(-0.20645 0.0350117 0)
(-0.21252 0.0345853 0)
(-0.21851 0.0341542 0)
(-0.224418 0.0337198 0)
(-0.230244 0.0332829 0)
(-0.235988 0.0328439 0)
(-0.241648 0.0324027 0)
(-0.247224 0.0319591 0)
(-0.252715 0.0315123 0)
(-0.25812 0.0310618 0)
(-0.263438 0.0306072 0)
(-0.26867 0.0301481 0)
(-0.273816 0.0296847 0)
(-0.278874 0.0292169 0)
(-0.283846 0.0287451 0)
(-0.288731 0.0282699 0)
(-0.293528 0.0277914 0)
(-0.298235 0.0273094 0)
(-0.302853 0.0268233 0)
(-0.307378 0.0263315 0)
(-0.311812 0.0258318 0)
(-0.316151 0.0253218 0)
(-0.320397 0.0247989 0)
(-0.324548 0.0242614 0)
(-0.328605 0.0237082 0)
(-0.332568 0.0231394 0)
(-0.336435 0.0225557 0)
(-0.340206 0.0219587 0)
(-0.343879 0.0213498 0)
(-0.347454 0.0207308 0)
(-0.350927 0.0201031 0)
(-0.354299 0.0194681 0)
(-0.357566 0.0188269 0)
(-0.360727 0.0181803 0)
(-0.363781 0.0175291 0)
(-0.366726 0.0168738 0)
(-0.369561 0.0162149 0)
(-0.372284 0.0155529 0)
(-0.374894 0.0148881 0)
(-0.37739 0.0142209 0)
(-0.379772 0.0135518 0)
(-0.382037 0.0128814 0)
(-0.384187 0.0122101 0)
(-0.38622 0.0115385 0)
(-0.388137 0.0108675 0)
(-0.389937 0.0101975 0)
(-0.391621 0.00952941 0)
(-0.39319 0.00886385 0)
(-0.394644 0.00820166 0)
(-0.395985 0.00754372 0)
(-0.397213 0.00689098 0)
(-0.39833 0.00624447 0)
(-0.399336 0.00560523 0)
(-0.400233 0.00497428 0)
(-0.401022 0.00435265 0)
(-0.401705 0.00374126 0)
(-0.402281 0.00314078 0)
(-0.402753 0.00255181 0)
(-0.403122 0.00197495 0)
(-0.40339 0.00141059 0)
(-0.403559 0.000858816 0)
(-0.40363 0.000320053 0)
(-0.403606 -0.000206241 0)
(-0.403489 -0.000719102 0)
(-0.403282 -0.00121839 0)