/*--------------------------------*- C++ -*----------------------------------*\
| =========                 |                                                 |
| \\      /  F ield         | OpenFOAM: The Open Source CFD Toolbox           |
|  \\    /   O peration     | Version:  v2006                                 |
|   \\  /    A nd           | Website:  www.openfoam.com                      |
|    \\/     M anipulation  |                                                 |
\*---------------------------------------------------------------------------*/
FoamFile
{
    version     2.0;
    format      ascii;
    class       volVectorField;
    location    "0";
    object      U;
}
// * * * * * * * * * * * * * * * * * * * * * * * * * * * * * * * * * * * * * //

dimensions      [0 1 -1 0 0 0 0];


internalField   nonuniform List<vector> 
20000
(
(3.81569e-05 -2.48131e-09 0)
(3.81896e-05 -8.12656e-09 0)
(3.82607e-05 -1.40264e-08 0)
(3.83746e-05 -2.01393e-08 0)
(3.85309e-05 -2.65457e-08 0)
(3.87304e-05 -3.32367e-08 0)
(3.89751e-05 -4.02096e-08 0)
(3.92673e-05 -4.74372e-08 0)
(3.96084e-05 -5.48122e-08 0)
(3.99987e-05 -6.21048e-08 0)
(4.04362e-05 -6.89616e-08 0)
(4.09165e-05 -7.47999e-08 0)
(4.14304e-05 -7.88858e-08 0)
(4.19643e-05 -8.04599e-08 0)
(4.25003e-05 -7.89838e-08 0)
(4.30182e-05 -7.41839e-08 0)
(4.34972e-05 -6.63677e-08 0)
(4.39187e-05 -5.61548e-08 0)
(4.42664e-05 -4.41511e-08 0)
(4.45275e-05 -3.09488e-08 0)
(4.46947e-05 -1.69827e-08 0)
(4.47648e-05 -2.43704e-09 0)
(4.47366e-05 1.30116e-08 0)
(4.46011e-05 3.05802e-08 0)
(4.43431e-05 5.06804e-08 0)
(4.39441e-05 7.34635e-08 0)
(4.3388e-05 9.81484e-08 0)
(4.26647e-05 1.23686e-07 0)
(4.17675e-05 1.4988e-07 0)
(4.06896e-05 1.77213e-07 0)
(3.94208e-05 2.06561e-07 0)
(3.79426e-05 2.39856e-07 0)
(3.62213e-05 2.78032e-07 0)
(3.42326e-05 3.22384e-07 0)
(3.19432e-05 3.75227e-07 0)
(2.93105e-05 4.33361e-07 0)
(2.63396e-05 4.92584e-07 0)
(2.30648e-05 5.44664e-07 0)
(1.9563e-05 5.79161e-07 0)
(1.59554e-05 5.86114e-07 0)
(1.24011e-05 5.55507e-07 0)
(9.08546e-06 4.77304e-07 0)
(6.22644e-06 3.48161e-07 0)
(4.01219e-06 1.69472e-07 0)
(2.63146e-06 -6.04216e-08 0)
(2.27292e-06 -3.38715e-07 0)
(3.13203e-06 -6.84084e-07 0)
(5.49296e-06 -1.0955e-06 0)
(9.5656e-06 -1.54886e-06 0)
(1.54426e-05 -2.02986e-06 0)
(2.31936e-05 -2.51323e-06 0)
(3.2753e-05 -2.9671e-06 0)
(4.39758e-05 -3.36263e-06 0)
(5.65806e-05 -3.65849e-06 0)
(7.01927e-05 -3.81943e-06 0)
(8.43239e-05 -3.80769e-06 0)
(9.83963e-05 -3.59518e-06 0)
(0.000111746 -3.14426e-06 0)
(0.000123598 -2.42043e-06 0)
(0.000133106 -1.40016e-06 0)
(0.000139453 -1.07466e-07 0)
(0.000141997 1.41247e-06 0)
(0.000140328 3.07265e-06 0)
(0.000134249 4.76177e-06 0)
(0.000123899 6.34804e-06 0)
(0.000109745 7.67888e-06 0)
(9.25771e-05 8.60674e-06 0)
(7.34189e-05 9.03596e-06 0)
(5.33012e-05 8.91642e-06 0)
(3.32142e-05 8.21851e-06 0)
(1.40315e-05 6.96543e-06 0)
(-3.50728e-06 5.24984e-06 0)
(-1.91248e-05 3.2184e-06 0)
(-3.28458e-05 1.0331e-06 0)
(-4.49648e-05 -1.12978e-06 0)
(-5.60047e-05 -3.10672e-06 0)
(-6.6614e-05 -4.76217e-06 0)
(-7.74335e-05 -6.0128e-06 0)
(-8.88512e-05 -6.82242e-06 0)
(-0.000101052 -7.25696e-06 0)
(-0.000113572 -7.44742e-06 0)
(-0.000125221 -7.57106e-06 0)
(-0.000134318 -7.78692e-06 0)
(-0.000138842 -8.18538e-06 0)
(-0.000136855 -8.70507e-06 0)
(-0.000127026 -9.17256e-06 0)
(-0.000108882 -9.38997e-06 0)
(-8.28129e-05 -9.02299e-06 0)
(-5.04566e-05 -7.89139e-06 0)
(-1.38378e-05 -6.03245e-06 0)
(2.52459e-05 -3.65819e-06 0)
(6.54463e-05 -1.18884e-06 0)
(0.000106239 9.64628e-07 0)
(0.000147574 2.5191e-06 0)
(0.000189323 3.45338e-06 0)
(0.000230605 4.03914e-06 0)
(0.000269312 4.69522e-06 0)
(0.000302546 5.66099e-06 0)
(0.000327927 6.78864e-06 0)
(0.000344419 7.98976e-06 0)
(0.000351385 9.20849e-06 0)
(0.000348523 1.04305e-05 0)
(0.000335708 1.15772e-05 0)
(0.000313314 1.24811e-05 0)
(0.0002823 1.29945e-05 0)
(0.000243951 1.29241e-05 0)
(0.000199958 1.20989e-05 0)
(0.000152359 1.03961e-05 0)
(0.000103455 7.80624e-06 0)
(5.5577e-05 4.37741e-06 0)
(1.11076e-05 2.2667e-07 0)
(-2.75055e-05 -4.41582e-06 0)
(-5.81656e-05 -9.25957e-06 0)
(-7.91397e-05 -1.38619e-05 0)
(-8.96694e-05 -1.77886e-05 0)
(-8.97884e-05 -2.06849e-05 0)
(-8.02513e-05 -2.21955e-05 0)
(-6.28292e-05 -2.2046e-05 0)
(-4.00084e-05 -2.01258e-05 0)
(-1.4602e-05 -1.64616e-05 0)
(1.03763e-05 -1.12411e-05 0)
(3.22082e-05 -4.87049e-06 0)
(4.8875e-05 2.09938e-06 0)
(5.90897e-05 9.0523e-06 0)
(6.26311e-05 1.51971e-05 0)
(6.0566e-05 1.98481e-05 0)
(5.48351e-05 2.25195e-05 0)
(4.79034e-05 2.29221e-05 0)
(4.23227e-05 2.11137e-05 0)
(4.01626e-05 1.74464e-05 0)
(4.25514e-05 1.24858e-05 0)
(4.95574e-05 6.91849e-06 0)
(6.00391e-05 1.51558e-06 0)
(7.18499e-05 -3.11871e-06 0)
(8.24265e-05 -6.54004e-06 0)
(8.91286e-05 -8.59443e-06 0)
(9.01296e-05 -9.44731e-06 0)
(8.48915e-05 -9.44219e-06 0)
(7.41858e-05 -8.91824e-06 0)
(5.96956e-05 -8.17811e-06 0)
(4.37036e-05 -7.43655e-06 0)
(2.86445e-05 -6.74968e-06 0)
(1.65563e-05 -6.07438e-06 0)
(8.7666e-06 -5.2668e-06 0)
(5.55014e-06 -4.14453e-06 0)
(6.21761e-06 -2.62739e-06 0)
(9.5029e-06 -7.55673e-07 0)
(1.38923e-05 1.25108e-06 0)
(1.83357e-05 3.02736e-06 0)
(2.26255e-05 4.18943e-06 0)
(2.72686e-05 4.53282e-06 0)
(3.30954e-05 4.1897e-06 0)
(4.0309e-05 3.44121e-06 0)
(4.85277e-05 2.5739e-06 0)
(5.69712e-05 1.82351e-06 0)
(6.47494e-05 1.33223e-06 0)
(7.08949e-05 1.18748e-06 0)
(7.45805e-05 1.37625e-06 0)
(7.52408e-05 1.82203e-06 0)
(7.26742e-05 2.3948e-06 0)
(6.71234e-05 2.93156e-06 0)
(5.9303e-05 3.26168e-06 0)
(5.03422e-05 3.2544e-06 0)
(4.15049e-05 2.8666e-06 0)
(3.40516e-05 2.11368e-06 0)
(2.89592e-05 1.09521e-06 0)
(2.67473e-05 -3.81959e-08 0)
(2.73524e-05 -1.10994e-06 0)
(3.01073e-05 -1.94486e-06 0)
(3.39132e-05 -2.42795e-06 0)
(3.74655e-05 -2.51076e-06 0)
(3.9603e-05 -2.24229e-06 0)
(3.9567e-05 -1.7404e-06 0)
(3.72205e-05 -1.16909e-06 0)
(3.30415e-05 -6.73517e-07 0)
(2.7983e-05 -3.49276e-07 0)
(2.30847e-05 -2.05187e-07 0)
(1.92199e-05 -2.03917e-07 0)
(1.69086e-05 -2.84619e-07 0)
(1.62382e-05 -3.82012e-07 0)
(1.69116e-05 -4.4555e-07 0)
(1.84051e-05 -4.51465e-07 0)
(2.01663e-05 -4.03341e-07 0)
(2.17756e-05 -3.22628e-07 0)
(2.30175e-05 -2.35027e-07 0)
(2.38608e-05 -1.59839e-07 0)
(2.43876e-05 -1.06135e-07 0)
(2.47202e-05 -7.46216e-08 0)
(2.49737e-05 -6.13621e-08 0)
(2.52346e-05 -6.07109e-08 0)
(2.55553e-05 -6.71129e-08 0)
(2.59579e-05 -7.60377e-08 0)
(2.64412e-05 -8.42932e-08 0)
(2.69891e-05 -8.99353e-08 0)
(2.75769e-05 -9.20256e-08 0)
(2.81797e-05 -9.03092e-08 0)
(2.87632e-05 -8.51179e-08 0)
(2.93305e-05 -7.65975e-08 0)
(2.97601e-05 -6.73474e-08 0)
(3.03696e-05 -4.81534e-08 0)
(3.81568e-05 -7.4187e-09 0)
(3.81893e-05 -2.43371e-08 0)
(3.82604e-05 -4.20859e-08 0)
(3.83746e-05 -6.05141e-08 0)
(3.85314e-05 -7.98323e-08 0)
(3.87315e-05 -9.99936e-08 0)
(3.8977e-05 -1.20967e-07 0)
(3.92698e-05 -1.42639e-07 0)
(3.96111e-05 -1.64667e-07 0)
(4.00011e-05 -1.86362e-07 0)
(4.04377e-05 -2.06641e-07 0)
(4.09164e-05 -2.23933e-07 0)
(4.14301e-05 -2.36306e-07 0)
(4.19674e-05 -2.41737e-07 0)
(4.25123e-05 -2.3853e-07 0)
(4.30439e-05 -2.25692e-07 0)
(4.35384e-05 -2.03473e-07 0)
(4.3972e-05 -1.73213e-07 0)
(4.43266e-05 -1.36926e-07 0)
(4.45919e-05 -9.69312e-08 0)
(4.47643e-05 -5.50048e-08 0)
(4.48431e-05 -1.17537e-08 0)
(4.48248e-05 3.40376e-08 0)
(4.47046e-05 8.53061e-08 0)
(4.44688e-05 1.44202e-07 0)
(4.40977e-05 2.11204e-07 0)
(4.357e-05 2.84606e-07 0)
(4.28693e-05 3.62021e-07 0)
(4.19873e-05 4.42453e-07 0)
(4.09185e-05 5.26793e-07 0)
(3.96528e-05 6.17401e-07 0)
(3.8177e-05 7.17558e-07 0)
(3.6484e-05 8.28275e-07 0)
(3.45584e-05 9.49864e-07 0)
(3.24038e-05 1.08003e-06 0)
(3.0053e-05 1.21273e-06 0)
(2.75229e-05 1.33855e-06 0)
(2.48387e-05 1.44189e-06 0)
(2.20236e-05 1.50956e-06 0)
(1.90972e-05 1.53098e-06 0)
(1.60715e-05 1.49609e-06 0)
(1.29511e-05 1.39706e-06 0)
(9.71993e-06 1.23339e-06 0)
(6.40122e-06 1.0079e-06 0)
(3.02177e-06 7.16684e-07 0)
(-3.81177e-07 3.62681e-07 0)
(-3.76189e-06 -6.59532e-08 0)
(-7.1569e-06 -5.69088e-07 0)
(-1.05329e-05 -1.12483e-06 0)
(-1.37678e-05 -1.71298e-06 -5.66601e-41)
(-1.67714e-05 -2.31762e-06 -9.60318e-41)
(-1.93854e-05 -2.90766e-06 0)
(-2.14408e-05 -3.45218e-06 0)
(-2.2698e-05 -3.91671e-06 0)
(-2.2893e-05 -4.28445e-06 0)
(-2.17165e-05 -4.5261e-06 0)
(-1.88268e-05 -4.62171e-06 0)
(-1.38521e-05 -4.55681e-06 0)
(-6.34744e-06 -4.30947e-06 0)
(4.18028e-06 -3.87887e-06 0)
(1.81678e-05 -3.3e-06 0)
(3.58587e-05 -2.58929e-06 0)
(5.7241e-05 -1.79416e-06 0)
(8.20289e-05 -9.64541e-07 0)
(0.000109522 -1.34184e-07 0)
(0.000138596 6.58283e-07 0)
(0.000167685 1.39444e-06 0)
(0.000194887 2.07939e-06 0)
(0.000218192 2.75584e-06 0)
(0.000235554 3.46175e-06 0)
(0.000244987 4.2386e-06 0)
(0.000244653 5.14877e-06 0)
(0.000233286 6.23925e-06 0)
(0.000210144 7.52755e-06 0)
(0.000175092 8.9921e-06 0)
(0.000128671 1.0568e-05 0)
(7.20819e-05 1.21525e-05 0)
(7.10836e-06 1.36138e-05 0)
(-6.40938e-05 1.47917e-05 0)
(-0.000138956 1.54835e-05 0)
(-0.000214963 1.54934e-05 0)
(-0.000289794 1.46423e-05 0)
(-0.000361196 1.28138e-05 0)
(-0.000427002 9.98782e-06 0)
(-0.000484927 6.2921e-06 0)
(-0.000532299 1.92657e-06 0)
(-0.00056612 -2.87311e-06 0)
(-0.000583322 -7.76092e-06 0)
(-0.00058062 -1.24483e-05 0)
(-0.000555623 -1.67965e-05 0)
(-0.00050759 -2.06637e-05 0)
(-0.000437672 -2.39801e-05 0)
(-0.000349219 -2.66531e-05 0)
(-0.000247213 -2.85316e-05 0)
(-0.00013734 -2.93971e-05 0)
(-2.48831e-05 -2.90506e-05 0)
(8.62214e-05 -2.73585e-05 0)
(0.000193375 -2.44286e-05 0)
(0.000294268 -2.06637e-05 0)
(0.000386276 -1.63401e-05 0)
(0.000467527 -1.16967e-05 0)
(0.000536875 -6.91308e-06 0)
(0.000593854 -2.14028e-06 0)
(0.000638055 2.46814e-06 0)
(0.000668737 6.85042e-06 0)
(0.000684884 1.09672e-05 0)
(0.000685022 1.47769e-05 0)
(0.000667365 1.82204e-05 0)
(0.000630165 2.12383e-05 0)
(0.000572276 2.37115e-05 0)
(0.000493454 2.5475e-05 0)
(0.000394585 2.63723e-05 0)
(0.000278141 2.62476e-05 0)
(0.000148056 2.50856e-05 0)
(9.97715e-06 2.29143e-05 0)
(-0.000129444 1.98162e-05 0)
(-0.000263157 1.5978e-05 0)
(-0.000383837 1.16446e-05 0)
(-0.000484461 7.0308e-06 0)
(-0.000558825 2.33159e-06 0)
(-0.000601709 -2.27349e-06 0)
(-0.000609465 -6.65258e-06 0)
(-0.000580605 -1.06841e-05 0)
(-0.000515987 -1.41826e-05 0)
(-0.000419252 -1.70759e-05 0)
(-0.000297004 -1.92572e-05 0)
(-0.000158084 -2.05953e-05 0)
(-1.2794e-05 -2.10267e-05 0)
(0.000128089 -2.04721e-05 0)
(0.000254507 -1.88655e-05 0)
(0.000358148 -1.62296e-05 0)
(0.000433047 -1.26479e-05 0)
(0.000476143 -8.22585e-06 0)
(0.000487334 -3.22615e-06 0)
(0.000469021 2.04589e-06 0)
(0.000425794 7.1889e-06 0)
(0.000363357 1.17291e-05 0)
(0.000287718 1.52263e-05 0)
(0.000204715 1.73982e-05 0)
(0.000119865 1.81016e-05 0)
(3.80476e-05 1.73369e-05 0)
(-3.66163e-05 1.52944e-05 0)
(-0.000100718 1.22625e-05 0)
(-0.000151624 8.63453e-06 0)
(-0.000187327 4.84895e-06 0)
(-0.000206591 1.27965e-06 0)
(-0.000209222 -1.78387e-06 0)
(-0.000196133 -4.19789e-06 0)
(-0.000169677 -5.96508e-06 0)
(-0.000133587 -7.19352e-06 0)
(-9.24117e-05 -7.97891e-06 0)
(-5.07142e-05 -8.30511e-06 0)
(-1.1842e-05 -8.16898e-06 0)
(2.21694e-05 -7.60119e-06 0)
(5.04333e-05 -6.68231e-06 0)
(7.28701e-05 -5.50325e-06 0)
(9.00863e-05 -4.1503e-06 0)
(0.000103035 -2.72963e-06 0)
(0.000112785 -1.34619e-06 0)
(0.000120335 -9.65853e-08 0)
(0.000126456 9.18606e-07 0)
(0.000131585 1.61481e-06 0)
(0.000135799 1.94387e-06 0)
(0.000139008 1.92329e-06 0)
(0.000140954 1.60824e-06 0)
(0.000141338 1.11586e-06 0)
(0.000139857 5.99112e-07 0)
(0.000136259 2.1999e-07 0)
(0.000130418 1.19748e-07 0)
(0.000122337 3.61035e-07 0)
(0.000112222 9.30185e-07 0)
(0.000100447 1.70974e-06 0)
(8.7565e-05 2.52455e-06 0)
(7.42275e-05 3.16838e-06 0)
(6.11607e-05 3.4756e-06 0)
(4.90853e-05 3.35741e-06 0)
(3.87411e-05 2.84564e-06 0)
(3.07185e-05 2.06062e-06 0)
(2.52868e-05 1.17746e-06 0)
(2.23132e-05 3.76718e-07 0)
(2.13092e-05 -2.0861e-07 0)
(2.15896e-05 -5.26608e-07 0)
(2.24727e-05 -6.06675e-07 0)
(2.3442e-05 -5.29948e-07 0)
(2.42134e-05 -3.87747e-07 0)
(2.47086e-05 -2.49337e-07 0)
(2.49769e-05 -1.50729e-07 0)
(2.5117e-05 -1.00781e-07 0)
(2.52266e-05 -9.28216e-08 0)
(2.53793e-05 -1.13818e-07 0)
(2.56189e-05 -1.49989e-07 0)
(2.5961e-05 -1.89816e-07 0)
(2.64004e-05 -2.25127e-07 0)
(2.69182e-05 -2.50974e-07 0)
(2.7488e-05 -2.6502e-07 0)
(2.80831e-05 -2.66689e-07 0)
(2.8668e-05 -2.5711e-07 0)
(2.92449e-05 -2.36089e-07 0)
(2.96869e-05 -2.12991e-07 0)
(3.03269e-05 -1.56502e-07 0)
(3.81568e-05 -1.2327e-08 0)
(3.81892e-05 -4.0487e-08 0)
(3.826e-05 -7.00822e-08 0)
(3.83734e-05 -1.00828e-07 0)
(3.85291e-05 -1.33054e-07 0)
(3.87281e-05 -1.66676e-07 0)
(3.89722e-05 -2.01633e-07 0)
(3.92637e-05 -2.3773e-07 0)
(3.96041e-05 -2.74395e-07 0)
(3.99937e-05 -3.10494e-07 0)
(4.04308e-05 -3.44224e-07 0)
(4.09111e-05 -3.73116e-07 0)
(4.14266e-05 -3.94145e-07 0)
(4.19647e-05 -4.04027e-07 0)
(4.25083e-05 -3.99727e-07 0)
(4.30364e-05 -3.79284e-07 0)
(4.35263e-05 -3.42531e-07 0)
(4.39561e-05 -2.91515e-07 0)
(4.43085e-05 -2.30124e-07 0)
(4.4572e-05 -1.62812e-07 0)
(4.47416e-05 -9.29018e-08 0)
(4.4816e-05 -2.12098e-08 0)
(4.4794e-05 5.45519e-08 0)
(4.46687e-05 1.38812e-07 0)
(4.44254e-05 2.35826e-07 0)
(4.40438e-05 3.46687e-07 0)
(4.35046e-05 4.68957e-07 0)
(4.27948e-05 5.98866e-07 0)
(4.19075e-05 7.34122e-07 0)
(4.08375e-05 8.75815e-07 0)
(3.95752e-05 1.02774e-06 0)
(3.8104e-05 1.19339e-06 0)
(3.64031e-05 1.37378e-06 0)
(3.44513e-05 1.56676e-06 0)
(3.22323e-05 1.76498e-06 0)
(2.97401e-05 1.95945e-06 0)
(2.69837e-05 2.13746e-06 0)
(2.39924e-05 2.28363e-06 0)
(2.08179e-05 2.38566e-06 0)
(1.75316e-05 2.43373e-06 0)
(1.42197e-05 2.42061e-06 0)
(1.0979e-05 2.34296e-06 0)
(7.91182e-06 2.1986e-06 0)
(5.12258e-06 1.98455e-06 0)
(2.71882e-06 1.69796e-06 0)
(8.13666e-07 1.33401e-06 0)
(-4.72848e-07 8.89835e-07 0)
(-1.01318e-06 3.66072e-07 0)
(-6.81643e-07 -2.35252e-07 0)
(6.27297e-07 -9.0455e-07 0)
(2.99421e-06 -1.62187e-06 0)
(6.46958e-06 -2.37235e-06 0)
(1.1065e-05 -3.1352e-06 0)
(1.67546e-05 -3.89503e-06 0)
(2.3482e-05 -4.63902e-06 0)
(3.116e-05 -5.34995e-06 0)
(3.96661e-05 -6.0124e-06 0)
(4.88538e-05 -6.62045e-06 0)
(5.85561e-05 -7.16556e-06 0)
(6.85884e-05 -7.6501e-06 0)
(7.87654e-05 -8.05781e-06 0)
(8.88939e-05 -8.35837e-06 0)
(9.87626e-05 -8.51362e-06 0)
(0.00010814 -8.46365e-06 0)
(0.000116757 -8.12783e-06 0)
(0.000124289 -7.42442e-06 0)
(0.000130356 -6.2681e-06 0)
(0.000134519 -4.59382e-06 0)
(0.000136291 -2.36025e-06 0)
(0.000135131 4.61083e-07 0)
(0.000130473 3.86186e-06 0)
(0.00012175 7.78425e-06 0)
(0.000108444 1.21146e-05 0)
(9.01458e-05 1.66843e-05 0)
(6.66163e-05 2.12836e-05 0)
(3.78461e-05 2.56733e-05 0)
(4.10269e-06 2.96003e-05 0)
(-3.40444e-05 3.28177e-05 0)
(-7.57105e-05 3.50878e-05 0)
(-0.00011969 3.62065e-05 0)
(-0.000164469 3.60091e-05 0)
(-0.000208263 3.43669e-05 0)
(-0.000249071 3.11981e-05 0)
(-0.00028476 2.64804e-05 0)
(-0.000313189 2.0229e-05 0)
(-0.000332346 1.25276e-05 0)
(-0.000340475 3.56021e-06 0)
(-0.000336219 -6.4151e-06 0)
(-0.000318758 -1.70082e-05 0)
(-0.000287895 -2.76895e-05 0)
(-0.000244121 -3.78284e-05 0)
(-0.00018867 -4.67337e-05 0)
(-0.000123474 -5.37904e-05 0)
(-5.10711e-05 -5.85356e-05 0)
(2.55628e-05 -6.07449e-05 0)
(0.000103254 -6.04732e-05 0)
(0.000178892 -5.79859e-05 0)
(0.000249653 -5.36279e-05 0)
(0.000313188 -4.77173e-05 0)
(0.000367702 -4.06202e-05 0)
(0.000411958 -3.27312e-05 0)
(0.00044526 -2.44158e-05 0)
(0.000467344 -1.59312e-05 0)
(0.000478229 -7.40078e-06 0)
(0.000478064 1.14976e-06 0)
(0.000466992 9.77158e-06 0)
(0.000445106 1.84986e-05 0)
(0.000412506 2.72845e-05 0)
(0.000369423 3.59386e-05 0)
(0.000316401 4.41274e-05 0)
(0.00025447 5.13892e-05 0)
(0.000185272 5.71797e-05 0)
(0.0001111 6.09677e-05 0)
(3.48185e-05 6.22921e-05 0)
(-4.03301e-05 6.08655e-05 0)
(-0.00011098 5.66296e-05 0)
(-0.000173922 4.97311e-05 0)
(-0.000226334 4.04717e-05 0)
(-0.000265915 2.92638e-05 0)
(-0.00029093 1.65794e-05 0)
(-0.000300235 2.95837e-06 0)
(-0.000293324 -1.09625e-05 0)
(-0.000270409 -2.44547e-05 0)
(-0.00023254 -3.6716e-05 0)
(-0.000181661 -4.69066e-05 0)
(-0.000120568 -5.42852e-05 0)
(-5.27839e-05 -5.83025e-05 0)
(1.7673e-05 -5.86541e-05 0)
(8.65918e-05 -5.53405e-05 0)
(0.000149869 -4.86638e-05 0)
(0.000203815 -3.91819e-05 0)
(0.000245422 -2.76384e-05 0)
(0.000272547 -1.49181e-05 0)
(0.000284049 -1.94608e-06 0)
(0.000279873 1.03699e-05 0)
(0.000261029 2.12237e-05 0)
(0.000229516 2.99777e-05 0)
(0.000188152 3.61895e-05 0)
(0.000140322 3.96122e-05 0)
(8.9692e-05 4.02074e-05 0)
(3.99102e-05 3.81436e-05 0)
(-5.69353e-06 3.37634e-05 0)
(-4.43578e-05 2.75527e-05 0)
(-7.40688e-05 2.00913e-05 0)
(-9.36729e-05 1.20032e-05 0)
(-0.000102899 3.92324e-06 0)
(-0.000102303 -3.55582e-06 0)
(-9.31376e-05 -9.92056e-06 0)
(-7.71593e-05 -1.47831e-05 0)
(-5.64e-05 -1.79285e-05 0)
(-3.29323e-05 -1.93472e-05 0)
(-8.67808e-06 -1.92487e-05 0)
(1.47442e-05 -1.79702e-05 0)
(3.6103e-05 -1.58753e-05 0)
(5.45701e-05 -1.33146e-05 0)
(6.96879e-05 -1.0572e-05 0)
(8.13054e-05 -7.87865e-06 0)
(8.95156e-05 -5.39829e-06 0)
(9.45982e-05 -3.24104e-06 0)
(9.69691e-05 -1.46873e-06 0)
(9.71425e-05 -1.11803e-07 0)
(9.56992e-05 8.31332e-07 0)
(9.32493e-05 1.38755e-06 0)
(9.03825e-05 1.60765e-06 0)
(8.76048e-05 1.58219e-06 0)
(8.52619e-05 1.44025e-06 0)
(8.34635e-05 1.3419e-06 0)
(8.20457e-05 1.44637e-06 0)
(8.05922e-05 1.86756e-06 0)
(7.85312e-05 2.63933e-06 0)
(7.5285e-05 3.69254e-06 0)
(7.04389e-05 4.86449e-06 0)
(6.38814e-05 5.92537e-06 0)
(5.58776e-05 6.63809e-06 0)
(4.70546e-05 6.80839e-06 0)
(3.82883e-05 6.34312e-06 0)
(3.05109e-05 5.28409e-06 0)
(2.44864e-05 3.81618e-06 0)
(2.0623e-05 2.22221e-06 0)
(1.88863e-05 7.98188e-07 0)
(1.88513e-05 -2.38276e-07 0)
(1.98725e-05 -8.0592e-07 0)
(2.12998e-05 -9.60418e-07 0)
(2.26496e-05 -8.43812e-07 0)
(2.36754e-05 -6.13638e-07 0)
(2.43366e-05 -3.88325e-07 0)
(2.47142e-05 -2.28909e-07 0)
(2.49293e-05 -1.50221e-07 0)
(2.50942e-05 -1.40996e-07 0)
(2.52907e-05 -1.79438e-07 0)
(2.55666e-05 -2.42587e-07 0)
(2.59395e-05 -3.11319e-07 0)
(2.64045e-05 -3.7212e-07 0)
(2.69428e-05 -4.16821e-07 0)
(2.75278e-05 -4.41588e-07 0)
(2.81328e-05 -4.45516e-07 0)
(2.87225e-05 -4.30547e-07 0)
(2.92993e-05 -3.96068e-07 0)
(2.97386e-05 -3.58692e-07 0)
(3.03667e-05 -2.63607e-07 0)
(3.81568e-05 -1.72158e-08 0)
(3.8189e-05 -5.656e-08 0)
(3.82593e-05 -9.79081e-08 0)
(3.8372e-05 -1.40858e-07 0)
(3.85268e-05 -1.85883e-07 0)
(3.87246e-05 -2.32883e-07 0)
(3.89675e-05 -2.81789e-07 0)
(3.92578e-05 -3.32352e-07 0)
(3.95973e-05 -3.83793e-07 0)
(3.99862e-05 -4.34545e-07 0)
(4.04234e-05 -4.82102e-07 0)
(4.09045e-05 -5.22998e-07 0)
(4.14219e-05 -5.52924e-07 0)
(4.1963e-05 -5.67115e-07 0)
(4.25105e-05 -5.61147e-07 0)
(4.30429e-05 -5.32124e-07 0)
(4.35368e-05 -4.79864e-07 0)
(4.39695e-05 -4.07539e-07 0)
(4.43233e-05 -3.20994e-07 0)
(4.45869e-05 -2.26607e-07 0)
(4.4756e-05 -1.28954e-07 0)
(4.48304e-05 -2.9046e-08 0)
(4.48097e-05 7.64324e-08 0)
(4.46876e-05 1.94006e-07 0)
(4.44486e-05 3.29761e-07 0)
(4.40714e-05 4.85382e-07 0)
(4.35357e-05 6.57207e-07 0)
(4.28284e-05 8.39364e-07 0)
(4.19437e-05 1.02832e-06 0)
(4.08775e-05 1.22576e-06 0)
(3.96206e-05 1.43728e-06 0)
(3.81561e-05 1.66813e-06 0)
(3.6462e-05 1.92054e-06 0)
(3.4516e-05 2.19189e-06 0)
(3.23004e-05 2.47489e-06 0)
(2.98077e-05 2.75547e-06 0)
(2.7046e-05 3.01552e-06 0)
(2.40442e-05 3.23472e-06 0)
(2.08536e-05 3.39081e-06 0)
(1.7546e-05 3.46404e-06 0)
(1.42087e-05 3.44022e-06 0)
(1.0939e-05 3.30976e-06 0)
(7.83969e-06 3.06566e-06 0)
(5.01629e-06 2.70359e-06 0)
(2.57618e-06 2.22067e-06 0)
(6.29757e-07 1.60881e-06 0)
(-7.00973e-07 8.59192e-07 0)
(-1.28423e-06 -3.01698e-08 0)
(-9.93613e-07 -1.04735e-06 0)
(2.84054e-07 -2.1704e-06 0)
(2.63305e-06 -3.36082e-06 0)
(6.10081e-06 -4.58147e-06 0)
(1.0701e-05 -5.79299e-06 0)
(1.64118e-05 -6.95583e-06 0)
(2.31779e-05 -8.02409e-06 0)
(3.09099e-05 -8.96168e-06 0)
(3.94862e-05 -9.73177e-06 0)
(4.87599e-05 -1.0302e-05 0)
(5.85612e-05 -1.06525e-05 0)
(6.87073e-05 -1.0762e-05 0)
(7.9007e-05 -1.06154e-05 0)
(8.92587e-05 -1.02123e-05 0)
(9.92497e-05 -9.54131e-06 0)
(0.000108744 -8.58183e-06 0)
(0.000117462 -7.31465e-06 0)
(0.000125072 -5.71101e-06 0)
(0.000131192 -3.74429e-06 0)
(0.000135383 -1.3835e-06 0)
(0.000137153 1.39929e-06 0)
(0.000135972 4.62948e-06 0)
(0.000131274 8.32142e-06 0)
(0.000122499 1.24559e-05 0)
(0.000109129 1.69726e-05 0)
(9.07551e-05 2.17612e-05 0)
(6.71433e-05 2.66568e-05 0)
(3.82834e-05 3.14445e-05 0)
(4.43687e-06 3.58682e-05 0)
(-3.38342e-05 3.96379e-05 0)
(-7.56556e-05 4.24446e-05 0)
(-0.000119838 4.39688e-05 0)
(-0.000164887 4.38896e-05 0)
(-0.000209024 4.19188e-05 0)
(-0.000250237 3.78408e-05 0)
(-0.000286373 3.15435e-05 0)
(-0.000315245 2.30618e-05 0)
(-0.000334783 1.26092e-05 0)
(-0.000343173 5.65479e-07 0)
(-0.00033902 -1.25397e-05 0)
(-0.000321473 -2.60702e-05 0)
(-0.000290336 -3.92934e-05 0)
(-0.000246148 -5.14929e-05 0)
(-0.000190192 -6.19984e-05 0)
(-0.000124455 -7.02262e-05 0)
(-5.15111e-05 -7.57381e-05 0)
(2.56595e-05 -7.82685e-05 0)
(0.000103894 -7.77169e-05 0)
(0.000180078 -7.41838e-05 0)
(0.000251365 -6.79656e-05 0)
(0.000315354 -5.95234e-05 0)
(0.000370207 -4.94583e-05 0)
(0.000414682 -3.83664e-05 0)
(0.000448093 -2.67653e-05 0)
(0.000470196 -1.50437e-05 0)
(0.00048103 -3.43424e-06 0)
(0.000480755 7.9651e-06 0)
(0.000469514 1.9134e-05 0)
(0.000447397 3.00593e-05 0)
(0.000414487 4.0645e-05 0)
(0.000370996 5.06549e-05 0)
(0.000317453 5.96896e-05 0)
(0.000254893 6.72128e-05 0)
(0.000184987 7.26265e-05 0)
(0.000110079 7.53761e-05 0)
(3.30997e-05 7.50444e-05 0)
(-4.26388e-05 7.14547e-05 0)
(-0.000113707 6.46986e-05 0)
(-0.000176857 5.51147e-05 0)
(-0.000229268 4.32031e-05 0)
(-0.000268666 2.95387e-05 0)
(-0.000293359 1.47094e-05 0)
(-0.000302253 -6.95567e-07 0)
(-0.000294883 -1.60482e-05 0)
(-0.000271497 -3.06421e-05 0)
(-0.000233174 -4.37214e-05 0)
(-0.000181877 -5.45168e-05 0)
(-0.00012042 -6.23429e-05 0)
(-5.23286e-05 -6.66747e-05 0)
(1.83926e-05 -6.72e-05 0)
(8.75421e-05 -6.38667e-05 0)
(0.000151033 -5.68878e-05 0)
(0.000205194 -4.67135e-05 0)
(0.000247009 -3.40045e-05 0)
(0.000274316 -1.9594e-05 0)
(0.000285939 -4.42734e-06 0)
(0.000281773 1.04683e-05 0)
(0.000262788 2.40657e-05 0)
(0.000230961 3.54269e-05 0)
(0.000189121 4.37911e-05 0)
(0.000140703 4.86513e-05 0)
(8.94448e-05 4.98163e-05 0)
(3.9076e-05 4.74244e-05 0)
(-6.99845e-06 4.19096e-05 0)
(-4.59608e-05 3.39568e-05 0)
(-7.57734e-05 2.44096e-05 0)
(-9.52927e-05 1.41779e-05 0)
(-0.000104289 4.14764e-06 0)
(-0.000103378 -4.91662e-06 0)
(-9.3881e-05 -1.24404e-05 0)
(-7.76097e-05 -1.80827e-05 0)
(-5.66191e-05 -2.17359e-05 0)
(-3.29764e-05 -2.3487e-05 0)
(-8.57664e-06 -2.35643e-05 0)
(1.49864e-05 -2.22705e-05 0)
(3.6493e-05 -1.99511e-05 0)
(5.51104e-05 -1.69443e-05 0)
(7.03646e-05 -1.35658e-05 0)
(8.20849e-05 -1.00848e-05 0)
(9.03432e-05 -6.7219e-06 0)
(9.54015e-05 -3.65755e-06 0)
(9.76685e-05 -1.04146e-06 0)
(9.76639e-05 1.01317e-06 0)
(9.59858e-05 2.42994e-06 0)
(9.32743e-05 3.18232e-06 0)
(9.01585e-05 3.31077e-06 0)
(8.71872e-05 2.94451e-06 0)
(8.47421e-05 2.3011e-06 0)
(8.29532e-05 1.66416e-06 0)
(8.16529e-05 1.32872e-06 0)
(8.03965e-05 1.52717e-06 0)
(7.85629e-05 2.3618e-06 0)
(7.55171e-05 3.75803e-06 0)
(7.07922e-05 5.47537e-06 0)
(6.42447e-05 7.15041e-06 0)
(5.6138e-05 8.3872e-06 0)
(4.71275e-05 8.85389e-06 0)
(3.81413e-05 8.38258e-06 0)
(3.01725e-05 7.02451e-06 0)
(2.40358e-05 5.04859e-06 0)
(2.01636e-05 2.8673e-06 0)
(1.8512e-05 9.11254e-07 0)
(1.86178e-05 -5.03541e-07 0)
(1.97864e-05 -1.25917e-06 0)
(2.1327e-05 -1.43584e-06 0)
(2.27378e-05 -1.23768e-06 0)
(2.37763e-05 -8.89503e-07 0)
(2.44194e-05 -5.58029e-07 0)
(2.47664e-05 -3.26781e-07 0)
(2.49517e-05 -2.13652e-07 0)
(2.50934e-05 -2.00439e-07 0)
(2.52756e-05 -2.54983e-07 0)
(2.55453e-05 -3.44173e-07 0)
(2.5918e-05 -4.40784e-07 0)
(2.6387e-05 -5.25783e-07 0)
(2.69316e-05 -5.87789e-07 0)
(2.75238e-05 -6.21571e-07 0)
(2.81359e-05 -6.26019e-07 0)
(2.8732e-05 -6.03961e-07 0)
(2.93142e-05 -5.54732e-07 0)
(2.97575e-05 -5.01426e-07 0)
(3.03895e-05 -3.67481e-07 0)
(3.81568e-05 -2.2065e-08 0)
(3.81887e-05 -7.25001e-08 0)
(3.82583e-05 -1.25513e-07 0)
(3.837e-05 -1.80599e-07 0)
(3.85236e-05 -2.38379e-07 0)
(3.87199e-05 -2.98738e-07 0)
(3.89612e-05 -3.61608e-07 0)
(3.925e-05 -4.26687e-07 0)
(3.95881e-05 -4.93002e-07 0)
(3.99762e-05 -5.58559e-07 0)
(4.04133e-05 -6.2015e-07 0)
(4.08956e-05 -6.73298e-07 0)
(4.14156e-05 -7.12381e-07 0)
(4.19607e-05 -7.31147e-07 0)
(4.25135e-05 -7.23771e-07 0)
(4.30517e-05 -6.86414e-07 0)
(4.35508e-05 -6.18861e-07 0)
(4.39874e-05 -5.25319e-07 0)
(4.4343e-05 -4.13514e-07 0)
(4.46067e-05 -2.91895e-07 0)
(4.47751e-05 -1.66429e-07 0)
(4.48493e-05 -3.85623e-08 0)
(4.48305e-05 9.61539e-08 0)
(4.47126e-05 2.46594e-07 0)
(4.44796e-05 4.20958e-07 0)
(4.41083e-05 6.21351e-07 0)
(4.35772e-05 8.42726e-07 0)
(4.28732e-05 1.07704e-06 0)
(4.1992e-05 1.31953e-06 0)
(4.09309e-05 1.57255e-06 0)
(3.96814e-05 1.84374e-06 0)
(3.82259e-05 2.14043e-06 0)
(3.65412e-05 2.46559e-06 0)
(3.46031e-05 2.81606e-06 0)
(3.23918e-05 3.18159e-06 0)
(2.9898e-05 3.54443e-06 0)
(2.71285e-05 3.88059e-06 0)
(2.41113e-05 4.16237e-06 0)
(2.08982e-05 4.36132e-06 0)
(1.75626e-05 4.45371e-06 0)
(1.41936e-05 4.42321e-06 0)
(1.089e-05 4.25971e-06 0)
(7.75561e-06 3.95752e-06 0)
(4.89581e-06 3.51412e-06 0)
(2.41699e-06 2.92467e-06 0)
(4.30478e-07 2.18047e-06 0)
(-9.41812e-07 1.27466e-06 0)
(-1.566e-06 2.01502e-07 0)
(-1.30903e-06 -1.02516e-06 0)
(-5.7158e-08 -2.37235e-06 0)
(2.27504e-06 -3.8064e-06 0)
(5.73861e-06 -5.27931e-06 0)
(1.03462e-05 -6.74397e-06 0)
(1.60741e-05 -8.15689e-06 0)
(2.28655e-05 -9.47678e-06 0)
(3.06303e-05 -1.06649e-05 0)
(3.92452e-05 -1.16838e-05 0)
(4.85587e-05 -1.25089e-05 0)
(5.84005e-05 -1.31203e-05 0)
(6.85843e-05 -1.35062e-05 0)
(7.89184e-05 -1.36624e-05 0)
(8.92083e-05 -1.35767e-05 0)
(9.92482e-05 -1.32166e-05 0)
(0.000108809 -1.25339e-05 0)
(0.000117623 -1.14573e-05 0)
(0.000125368 -9.89461e-06 0)
(0.000131664 -7.75086e-06 0)
(0.000136074 -4.93681e-06 0)
(0.000138106 -1.36967e-06 0)
(0.000137217 3.01516e-06 0)
(0.000132827 8.24312e-06 0)
(0.000124348 1.42786e-05 0)
(0.000111233 2.1004e-05 0)
(9.3044e-05 2.82187e-05 0)
(6.95092e-05 3.5629e-05 0)
(4.05927e-05 4.28663e-05 0)
(6.53983e-06 4.95109e-05 0)
(-3.20953e-05 5.51196e-05 0)
(-7.44366e-05 5.92433e-05 0)
(-0.000119281 6.14519e-05 0)
(-0.000165106 6.13538e-05 0)
(-0.000210096 5.86308e-05 0)
(-0.000252196 5.30624e-05 0)
(-0.000289198 4.45745e-05 0)
(-0.000318865 3.32583e-05 0)
(-0.00033908 1.93786e-05 0)
(-0.000347993 3.38352e-06 0)
(-0.000344172 -1.41203e-05 0)
(-0.000326736 -3.23548e-05 0)
(-0.000295464 -5.04294e-05 0)
(-0.000250868 -6.73636e-05 0)
(-0.000194222 -8.21592e-05 0)
(-0.000127528 -9.39001e-05 0)
(-5.34201e-05 -0.000101854 0)
(2.50245e-05 -0.000105577 0)
(0.000104522 -0.00010498 0)
(0.000181846 -0.000100322 0)
(0.000254062 -9.21369e-05 0)
(0.000318735 -8.11281e-05 0)
(0.000374028 -6.80739e-05 0)
(0.000418733 -5.37284e-05 0)
(0.000452217 -3.87457e-05 0)
(0.000474301 -2.35959e-05 0)
(0.000485092 -8.53536e-06 0)
(0.000484799 6.37167e-06 0)
(0.000473592 2.11817e-05 0)
(0.000451537 3.59435e-05 0)
(0.000418664 5.05772e-05 0)
(0.000375114 6.47787e-05 0)
(0.000321336 7.79969e-05 0)
(0.000258303 8.9466e-05 0)
(0.000187653 9.8298e-05 0)
(0.000111736 0.000103626 0)
(3.35336e-05 0.000104754 0)
(-4.35541e-05 0.000101295 0)
(-0.000116003 9.3242e-05 0)
(-0.000180479 8.09285e-05 0)
(-0.000234089 6.49515e-05 0)
(-0.000274506 4.60478e-05 0)
(-0.000299995 2.50141e-05 0)
(-0.000309402 2.70494e-06 0)
(-0.000302191 -1.99104e-05 0)
(-0.000278542 -4.17108e-05 0)
(-0.000239489 -6.14572e-05 0)
(-0.000187003 -7.78839e-05 0)
(-0.000123954 -8.98521e-05 0)
(-5.39813e-05 -9.64917e-05 0)
(1.87549e-05 -9.73093e-05 0)
(8.98863e-05 -9.22549e-05 0)
(0.00015516 -8.17162e-05 0)
(0.000210756 -6.64871e-05 0)
(0.000253555 -4.76794e-05 0)
(0.000281334 -2.6635e-05 0)
(0.000292902 -4.82534e-06 0)
(0.000288185 1.62435e-05 0)
(0.00026823 3.51428e-05 0)
(0.000235121 5.06496e-05 0)
(0.000191807 6.1835e-05 0)
(0.000141849 6.81371e-05 0)
(8.9103e-05 6.94037e-05 0)
(3.73978e-05 6.58881e-05 0)
(-9.78129e-06 5.82052e-05 0)
(-4.95613e-05 4.72597e-05 0)
(-7.98729e-05 3.41479e-05 0)
(-9.95605e-05 2.00504e-05 0)
(-0.000108404 6.13417e-06 0)
(-0.000107056 -6.55767e-06 0)
(-9.68939e-05 -1.71968e-05 0)
(-7.98067e-05 -2.52394e-05 0)
(-5.79436e-05 -3.04496e-05 0)
(-3.34653e-05 -3.28945e-05 0)
(-8.34646e-06 -3.28915e-05 0)
(1.57681e-05 -3.09185e-05 0)
(3.76397e-05 -2.75223e-05 0)
(5.64463e-05 -2.32387e-05 0)
(7.17436e-05 -1.85382e-05 0)
(8.33975e-05 -1.38044e-05 0)
(9.15163e-05 -9.33321e-06 0)
(9.63927e-05 -5.34554e-06 0)
(9.84594e-05 -2.00019e-06 0)
(9.82543e-05 5.97751e-07 0)
(9.63895e-05 2.3931e-06 0)
(9.35163e-05 3.38625e-06 0)
(9.02774e-05 3.64925e-06 0)
(8.72373e-05 3.34952e-06 0)
(8.47911e-05 2.75265e-06 0)
(8.30732e-05 2.19871e-06 0)
(8.19037e-05 2.03752e-06 0)
(8.08067e-05 2.53842e-06 0)
(7.91159e-05 3.80461e-06 0)
(7.61481e-05 5.72401e-06 0)
(7.13999e-05 7.97883e-06 0)
(6.47115e-05 1.01126e-05 0)
(5.63566e-05 1.16277e-05 0)
(4.70305e-05 1.21147e-05 0)
(3.77238e-05 1.13713e-05 0)
(2.95001e-05 9.47626e-06 0)
(2.32321e-05 6.78842e-06 0)
(1.93771e-05 3.85371e-06 0)
(1.78721e-05 1.24074e-06 0)
(1.81982e-05 -6.36006e-07 0)
(1.95916e-05 -1.62751e-06 0)
(2.13054e-05 -1.84892e-06 0)
(2.2813e-05 -1.57837e-06 0)
(2.3879e-05 -1.11727e-06 0)
(2.45052e-05 -6.8536e-07 0)
(2.48174e-05 -3.89399e-07 0)
(2.49672e-05 -2.49456e-07 0)
(2.50817e-05 -2.39453e-07 0)
(2.52476e-05 -3.1631e-07 0)
(2.55109e-05 -4.3656e-07 0)
(2.5885e-05 -5.64939e-07 0)
(2.63604e-05 -6.77085e-07 0)
(2.69141e-05 -7.58621e-07 0)
(2.75163e-05 -8.03092e-07 0)
(2.81382e-05 -8.09295e-07 0)
(2.87432e-05 -7.81046e-07 0)
(2.93331e-05 -7.17563e-07 0)
(2.9782e-05 -6.4871e-07 0)
(3.04197e-05 -4.75598e-07 0)
(3.81567e-05 -2.68605e-08 0)
(3.81882e-05 -8.8274e-08 0)
(3.82571e-05 -1.52844e-07 0)
(3.83676e-05 -2.19966e-07 0)
(3.85196e-05 -2.90413e-07 0)
(3.8714e-05 -3.64064e-07 0)
(3.89533e-05 -4.40866e-07 0)
(3.92401e-05 -5.2049e-07 0)
(3.95765e-05 -6.0179e-07 0)
(3.99635e-05 -6.82375e-07 0)
(4.04006e-05 -7.58351e-07 0)
(4.08843e-05 -8.24222e-07 0)
(4.14074e-05 -8.73017e-07 0)
(4.19577e-05 -8.96902e-07 0)
(4.25171e-05 -8.88487e-07 0)
(4.30628e-05 -8.42809e-07 0)
(4.35687e-05 -7.59509e-07 0)
(4.40101e-05 -6.43938e-07 0)
(4.4368e-05 -5.05947e-07 0)