/*--------------------------------*- C++ -*----------------------------------*\
| =========                 |                                                 |
| \\      /  F ield         | OpenFOAM: The Open Source CFD Toolbox           |
|  \\    /   O peration     | Version:  v2006                                 |
|   \\  /    A nd           | Website:  www.openfoam.com                      |
|    \\/     M anipulation  |                                                 |
\*---------------------------------------------------------------------------*/
FoamFile
{
    version     2.0;
    format      ascii;
    class       volScalarField;
    location    "12.3";
    object      p;
}
// * * * * * * * * * * * * * * * * * * * * * * * * * * * * * * * * * * * * * //

dimensions      [1 -1 -2 0 0 0 0];


internalField   nonuniform List<scalar> 
150000
(
17126.7
17127.3
17128.6
17130.5
17133.2
17136.4
17140.3
17144.8
17149.9
17155.5
17161.7
17168.5
17175.8
17183.7
17192.2
17201.1
17210.7
17220.7
17231.2
17242.3
17253.8
17265.8
17278.2
17291.1
17304.4
17318.2
17332.3
17346.7
17361.6
17376.7
17392.2
17408
17424
17440.3
17456.8
17473.5
17490.3
17507.4
17524.5
17541.8
17559.1
17576.5
17594
17611.4
17628.8
17646.2
17663.5
17680.8
17697.9
17714.9
17731.7
17748.3
17764.7
17781
17797
17812.7
17828.2
17843.4
17858.3
17872.9
17887.2
17901
17914.6
17927.7
17940.4
17952.7
17964.5
17976
17987
17997.5
18007.6
18017.3
18026.5
18035.2
18043.4
18051.2
18058.5
18065.3
18071.6
18077.5
18082.9
18087.9
18092.4
18096.4
18100
18103.1
18105.8
18108.1
18110
18111.4
18112.4
18113.1
18113.3
18113.2
18112.7
18111.8
18110.6
18109.1
18107.3
18105.1
18102.7
18100
18097.1
18093.8
18090.4
18086.7
18082.7
18078.6
18074.3
18069.7
18065
18060.1
18055
18049.8
18044.4
18038.9
18033.4
18027.7
18022.1
18016.3
18010.6
18004.7
17998.9
17992.9
17987
17981.1
17975.1
17969.1
17963.1
17957.1
17951.2
17945.2
17939.3
17933.4
17927.5
17921.7
17915.9
17910.2
17904.5
17898.9
17893.3
17887.9
17882.5
17877.3
17872.1
17867.1
17862.2
17857.4
17852.6
17848
17843.5
17839.2
17835
17831.2
17827.6
17824.4
17821.4
17818.8
17816.5
17814.4
17812.4
17810.7
17809.3
17808.1
17807.3
17806.9
17806.9
17807.3
17808.2
17809.5
17811.2
17813.4
17816.2
17819.4
17823.1
17827.3
17832.1
17837.3
17843.2
17849.6
17856.5
17864.1
17872.2
17881
17890.4
17900.4
17911
17922.3
17934.3
17946.9
17960.2
17974.1
17988.8
18004.1
18020.1
18036.9
18054.3
18072.5
18091.3
18110.9
18131.2
18152.2
18174
18196.4
18219.6
18243.5
18268.1
18293.5
18319.6
18346.4
18373.9
18402.1
18431
18460.7
18491
18522
18553.7
18586.1
18619.2
18653
18687.5
18722.6
18758.4
18794.9
18832
18869.8
18908.3
18947.4
18987.2
19027.7
19068.8
19110.4
19152.6
19195.2
19238.3
19282.2
19327.1
19373.1
19419.9
19467.2
19514.8
19562.8
19611.1
19659.8
19709
19758.9
19809.3
19860.3
19912
19964.1
20016.8
20070
20123.6
20177.7
20232.3
20287.4
20342.8
20398.7
20455.1
20511.9
20569.2
20627
20685.1
20743.6
20802.3
20861
20919.9
20978.8
21037.9
21097.3
21156.9
21216.6
21276.4
21336.3
21396.3
21456.3
21516.3
21576.3
21636.4
21696.4
21756.5
21816.5
21876.5
21936.4
21996.1
22055.7
22115.2
22174.5
22233.5
22292.3
22350.9
22409.1
22467.1
22524.7
22582
22638.9
22695.4
22751.5
22807.1
22862.3
22917
22971.2
23024.8
23077.9
23130.5
23182.4
23233.8
23284.4
23334.3
23383.6
23432.2
23480.1
23527.3
23573.7
23619.4
23664.2
23708.3
23751.5
23793.8
23835.2
23875.8
23915.4
23954.1
23991.9
24028.7
24064.6
24099.5
24133.3
24166.2
24198.1
24229
24258.8
24287.6
24315.3
24342
24367.7
24392.3
24415.8
24438.3
24459.7
24480
24499.3
24517.5
24534.7
24550.9
24565.9
24580
24593
24604.9
24615.9
24625.8
24634.7
24642.7
24649.6
24655.6
24660.5
24664.6
24667.7
24669.8
24671.1
24671.4
24670.9
24669.5
24667.2
24664.1
24660.2
24655.5
24650
24643.7
24636.7
24628.9
24620.5
24611.3
24601.5
24591.1
24580
24568.3
24556.1
24543.3
24529.9
24516
24501.6
24486.8
24471.5
24455.8
24439.6
24423.1
24406.2
24389
24371.4
24353.6
24335.4
24317.1
24298.4
24279.6
24260.5
24241.3
24222
24202.5
24182.8
24163.1
24143.4
24123.5
24103.6
24083.7
24063.8
24043.9
24024
24004.2
23984.4
23964.7
23945.1
23925.7
23906.4
23887.3
23868.4
23849.6
23831
23812.5
23794.3
23776.3
23758.6
23741.1
23724
23707.1
23690.5
23674.2
23658.2
23642.6
23627.3
23612.4
23597.8
23583.7
23570.1
23556.9
23544.2
23531.9
23520.1
23508.6
23497.5
23486.8
23476.5
23466.5
23457
23447.9
23439.2
23430.9
23423.1
23415.6
23408.6
23401.9
23395.6
23389.6
23384
23378.8
23373.8
23369.1
23364.7
23360.6
23356.8
23353.1
23349.7
23346.4
23343.3
23340.4
23337.6
23334.9
23332.3
23329.8
23327.4
23325
23322.7
23320.3
23318
23315.6
23313.2
23310.8
23308.4
23306
23303.5
23301
23298.4
23295.9
23293.3
23290.8
23288.3
23285.8
23283.4
23281.1
23278.9
23276.9
23275
23273.2
23271.7
23270.3
23269.1
23268.2
23267.5
23267.1
23267
16799.3
16799.8
16801.1
16803
16805.7
16809
16812.9
16817.4
16822.4
16828.1
16834.3
16841.1
16848.4
16856.3
16864.7
16873.7
16883.2
16893.3
16903.8
16914.9
16926.4
16938.4
16950.9
16963.8
16977.1
16990.8
17005
17019.4
17034.3
17049.5
17065
17080.7
17096.8
17113.1
17129.6
17146.3
17163.2
17180.2
17197.4
17214.7
17232
17249.5
17266.9
17284.4
17301.8
17319.2
17336.5
17353.8
17370.9
17387.9
17404.7
17421.4
17437.9
17454.1
17470.1
17485.9
17501.4
17516.6
17531.5
17546.1
17560.3
17574.2
17587.7
17600.9
17613.6
17625.9
17637.8
17649.3
17660.3
17670.8
17680.9
17690.6
17699.7
17708.5
17716.7
17724.5
17731.8
17738.6
17744.9
17750.8
17756.2
17761.2
17765.7
17769.7
17773.3
17776.4
17779.1
17781.4
17783.2
17784.7
17785.7
17786.3
17786.6
17786.4
17785.9
17785.1
17783.9
17782.3
17780.5
17778.4
17775.9
17773.2
17770.2
17767
17763.5
17759.8
17755.9
17751.7
17747.4
17742.8
17738.1
17733.2
17728.1
17722.9
17717.5
17712
17706.5
17700.9
17695.2
17689.4
17683.6
17677.8
17671.9
17666
17660.1
17654.1
17648.1
17642.1
17636.1
17630.1
17624.2
17618.2
17612.3
17606.4
17600.5
17594.7
17588.9
17583.1
17577.4
17571.8
17566.3
17560.8
17555.5
17550.2
17545
17540
17535
17530.2
17525.5
17520.9
17516.4
17512.1
17508.1
17504.2
17500.7
17497.4
17494.4
17491.7
17489.2
17487
17485.1
17483.4
17482
17480.8
17480
17479.6
17479.6
17480
17480.8
17482.1
17483.9
17486.1
17488.8
17492
17495.7
17499.9
17504.7
17509.9
17515.8
17522.1
17529.1
17536.7
17544.8
17553.6
17562.9
17572.9
17583.6
17594.8
17606.8
17619.4
17632.7
17646.6
17661.3
17676.6
17692.6
17709.4
17726.8
17745
17763.8
17783.4
17803.7
17824.7
17846.5
17868.9
17892.1
17916
17940.7
17966
17992.1
18018.9
18046.4
18074.6
18103.5
18133.2
18163.5
18194.5
18226.3
18258.7
18291.8
18325.6
18360
18395.2
18431
18467.4
18504.6
18542.4
18580.8
18619.9
18659.7
18700.1
18741.1
18782.8
18825.1
18868.1
18911.7
18956.1
19001.1
19046.8
19092.9
19139.6
19186.7
19234.4
19282.8
19331.7
19381.3
19431.4
19482
19533.2
19584.7
19636.8
19689.4
19742.5
19796.1
19850.2
19904.9
19960
20015.6
20071.6
20128
20184.8
20242.1
20299.6
20357.6
20416
20474.8
20533.9
20593.1
20652.3
20711.5
20770.7
20829.9
20889.2
20948.8
21008.5
21068.4
21128.3
21188.4
21248.6
21308.9
21369.1
21429.3
21489.4
21549.5
21609.4
21669.2
21728.8
21788.3
21847.5
21906.6
21965.3
22023.9
22082.1
22140
22197.6
22254.8
22311.7
22368.2
22424.3
22479.9
22535.1
22589.8
22644
22697.7
22750.8
22803.4
22855.4
22906.7
22957.4
23007.6
23057
23105.7
23153.7
23200.9
23247.3
23293
23337.9
23381.9
23425.1
23467.4
23508.9
23549.4
23589.1
23627.8
23665.6
23702.4
23738.2
23773.1
23807
23839.9
23871.7
23902.6
23932.4
23961.2
23988.9
24015.6
24041.3
24065.9
24089.4
24111.8
24133.3
24153.6
24172.9
24191.1
24208.3
24224.4
24239.5
24253.5
24266.5
24278.5
24289.4
24299.3
24308.2
24316.1
24323.1
24329
24334
24338
24341.1
24343.3
24344.5
24344.8
24344.3
24342.9
24340.6
24337.5
24333.5
24328.8
24323.3
24317
24310
24302.2
24293.7
24284.6
24274.8
24264.3
24253.2
24241.5
24229.2
24216.4
24203
24189.2
24174.8
24159.9
24144.6
24128.9
24112.7
24096.2
24079.3
24062
24044.5
24026.6
24008.5
23990.1
23971.4
23952.6
23933.5
23914.3
23894.9
23875.4
23855.8
23836.1
23816.3
23796.5
23776.6
23756.7
23736.8
23716.8
23696.9
23677.1
23657.3
23637.6
23618
23598.6
23579.3
23560.2
23541.2
23522.4
23503.8
23485.4
23467.2
23449.2
23431.4
23414
23396.8
23379.8
23363.3
23347
23331
23315.4
23300.1
23285.2
23270.6
23256.5
23242.8
23229.6
23216.9
23204.6
23192.7
23181.2
23170
23159.3
23149
23139
23129.5
23120.4
23111.8
23103.5
23095.7
23088.2
23081.2
23074.5
23068.2
23062.3
23056.7
23051.4
23046.5
23041.8
23037.5
23033.4
23029.5
23025.9
23022.4
23019.2
23016.1
23013.2
23010.4
23007.8
23005.2
23002.7
23000.3
22997.9
22995.6
22993.3
22990.9
22988.6
22986.2
22983.8
22981.4
22979
22976.5
22973.9
22971.4
22968.8
22966.3
22963.7
22961.2
22958.7
22956.3
22954
22951.8
22949.7
22947.8
22946.1
22944.5
22943.1
22942
22941
22940.3
22939.9
22939.8
16471.2
16471.7
16473
16475
16477.7
16481
16484.9
16489.4
16494.4
16500.1
16506.3
16513.1
16520.4
16528.3
16536.8
16545.8
16555.3
16565.4
16575.9
16587
16598.6
16610.6
16623.1
16636
16649.4
16663.1
16677.3
16691.8
16706.7
16721.9
16737.4
16753.3
16769.3
16785.7
16802.2
16818.9
16835.9
16853
16870.2
16887.5
16904.9
16922.3
16939.8
16957.3
16974.8
16992.2
17009.6
17026.9
17044.1
17061.1
17077.9
17094.6
17111.1
17127.4
17143.4
17159.2
17174.7
17190
17204.9
17219.5
17233.8
17247.8
17261.3
17274.4
17287.2
17299.5
17311.4
17322.8
17333.9
17344.4
17354.5
17364.2
17373.4
17382.1
17390.3
17398.1
17405.4
17412.2
17418.6
17424.5
17429.9
17434.8
17439.3
17443.3
17446.9
17450
17452.7
17454.9
17456.8
17458.2
17459.2
17459.8
17460.1
17459.9
17459.4
17458.5
17457.3
17455.8
17453.9
17451.8
17449.3
17446.6
17443.6
17440.3
17436.8
17433.1
17429.1
17424.9
17420.6
17416
17411.2
17406.3
17401.3
17396
17390.7
17385.2
17379.7
17374.1
17368.4
17362.6
17356.8
17350.9
17345
17339.1
17333.1
17327.2
17321.2
17315.2
17309.2
17303.2
17297.2
17291.2
17285.2
17279.3
17273.4
17267.6
17261.8
17256
17250.3
17244.7
17239.2
17233.7
17228.3
17223
17217.8
17212.8
17207.8
17203
17198.2
17193.6
17189.2
17184.9
17180.8
17176.9
17173.3
17169.9
17166.9
17164.2
17161.7
17159.5
17157.5
17155.8
17154.3
17153.2
17152.4
17152
17152
17152.4
17153.2
17154.5
17156.3
17158.5
17161.1
17164.3
17168
17172.2
17176.9
17182.1
17187.9
17194.3
17201.3
17208.8
17216.9
17225.7
17235
17245
17255.6
17266.9
17278.8
17291.4
17304.7
17318.7
17333.3
17348.6
17364.6
17381.4
17398.8
17417
17435.8
17455.4
17475.7
17496.7
17518.5
17540.9
17564.1
17588
17612.6
17638
17664.1
17690.9
17718.4
17746.6
17775.5
17805.2
17835.5
17866.5
17898.3
17930.7
17963.8
17997.6
18032
18067.2
18103
18139.4
18176.6
18214.4
18252.8
18291.9
18331.7
18372.1
18413.2
18454.9
18497.2
18540.1
18583.5
18627.6
18672.5
18718.2
18764.6
18811.5
18858.9
18906.8
18955.1
19004
19053.4
19103.3
19153.9
19205
19256.6
19308.8
19361.4
19414.6
19468.2
19522.3
19576.9
19632
19687.5
19743.4
19799.7
19856.4
19913.6
19971.3
20029.5
20088
20146.7
20205.7
20264.8
20324
20383.2
20442.7
20502.2
20561.8
20621.6
20681.5
20741.5
20801.5
20861.6
20921.7
20981.9
21042.1
21102.2
21162.4
21222.4
21282.4
21342.2
21401.9
21461.4
21520.7
21579.8
21638.7
21697.3
21755.6
21813.6
21871.3
21928.6
21985.6
22042.1
22098.3
22154
22209.2
22264
22318.3
22372
22425.2
22477.7
22529.7
22581.1
22631.8
22681.9
22731.3
22780
22827.9
22875.1
22921.6
22967.3
23012.1
23056.2
23099.4
23141.7
23183.2
23223.8
23263.4
23302.1
23339.9
23376.7
23412.6
23447.5
23481.3
23514.2
23546.1
23576.9
23606.7
23635.5
23663.2
23689.9
23715.6
23740.1
23763.7
23786.1
23807.5
23827.8
23847.1
23865.3
23882.5
23898.6
23913.7
23927.7
23940.6
23952.6
23963.5
23973.4
23982.3
23990.2
23997.1
24003
24008
24012
24015.1
24017.2
24018.4
24018.7
24018.2
24016.7
24014.4
24011.3
24007.3
24002.6
23997
23990.7
23983.7
23975.9
23967.4
23958.2
23948.4
23937.9
23926.7
23915
23902.7
23889.9
23876.4
23862.5
23848.1
23833.2
23817.9
23802.1
23786
23769.4
23752.5
23735.2
23717.6
23699.7
23681.6
23663.1
23644.5
23625.6
23606.5
23587.3
23567.9
23548.4
23528.7
23509
23489.2
23469.3
23449.4
23429.5
23409.6
23389.6
23369.7
23349.9
23330.1
23310.4
23290.8
23271.3
23252
23232.8
23213.8
23195
23176.4
23157.9
23139.7
23121.7
23103.9
23086.4
23069.2
23052.3
23035.7
23019.4
23003.4
22987.8
22972.5
22957.6
22943.1
22928.9
22915.3
22902
22889.2
22876.9
22864.9
22853.4
22842.2
22831.5
22821.2
22811.3
22801.8
22792.7
22784.1
22775.8
22768
22760.6
22753.5
22746.9
22740.6
22734.7
22729.1
22723.9
22719
22714.4
22710
22706
22702.1
22698.5
22695.1
22691.9
22688.9
22686
22683.2
22680.6
22678.1
22675.6
22673.2
22670.8
22668.5
22666.2
22663.9
22661.5
22659.2
22656.8
22654.4
22651.9
22649.4
22646.9
22644.3
22641.8
22639.2
22636.6
22634.1
22631.6
22629.1
22626.8
22624.6
22622.5
22620.5
22618.8
22617.2
22615.8
22614.6
22613.7
22613
22612.6
22612.4
16142.6
16143.1
16144.4
16146.4
16149.1
16152.4
16156.3
16160.8
16165.9
16171.5
16177.8
16184.6
16191.9
16199.9
16208.4
16217.4
16227
16237
16247.6
16258.7
16270.3
16282.4
16294.9
16307.9
16321.3
16335.1
16349.3
16363.9
16378.8
16394.1
16409.7
16425.5
16441.7
16458
16474.6
16491.4
16508.4
16525.6
16542.8
16560.2
16577.7
16595.2
16612.7
16630.3
16647.8
16665.3
16682.7
16700.1
16717.3
16734.4
16751.3
16768
16784.5
16800.9
16817
16832.8
16848.4
16863.7
16878.6
16893.3
16907.6
16921.5
16935.1
16948.2
16961
16973.3
16985.3
16996.7
17007.8
17018.4
17028.5
17038.1
17047.3
17056
17064.3
17072.1
17079.4
17086.2
17092.5
17098.4
17103.8
17108.7
17113.2
17117.2
17120.8
17123.9
17126.6
17128.8
17130.6
17132
17133
17133.6
17133.8
17133.6
17133.1
17132.2
17131
17129.4
17127.5
17125.4
17122.9
17120.1
17117.1
17113.8
17110.3
17106.5
17102.5
17098.3
17093.9
17089.3
17084.5
17079.6
17074.5
17069.3
17063.9
17058.5
17052.9
17047.3
17041.6
17035.8
17029.9
17024.1
17018.1
17012.2
17006.2
17000.2
16994.2
16988.2
16982.2
16976.1
16970.1
16964.2
16958.2
16952.3
16946.4
16940.5
16934.7
16928.9
16923.2
16917.6
16912
16906.5
16901.1
16895.8
16890.6
16885.5
16880.5
16875.6
16870.9
16866.3
16861.9
16857.6
16853.6
16849.7
16846.1
16842.8
16839.6
16836.8
16834.2
16831.8
16829.8
16828
16826.4
16825.3
16824.5
16824.1
16824.1
16824.5
16825.3
16826.6
16828.3
16830.4
16833.1
16836.2
16839.9
16844
16848.7
16854
16859.7
16866.1
16873
16880.5
16888.6
16897.4
16906.7
16916.7
16927.3
16938.5
16950.4
16963
16976.3
16990.2
17004.8
17020.1
17036.2
17052.9
17070.3
17088.4
17107.3
17126.9
17147.1
17168.2
17189.9
17212.4
17235.5
17259.4
17284.1
17309.4
17335.5
17362.3
17389.8
17418
17446.9
17476.6
17506.9
17538
17569.7
17602.1
17635.2
17669
17703.4
17738.6
17774.4
17810.9
17848
17885.8
17924.3
17963.4
18003.2
18043.6
18084.7
18126.4
18168.8
18211.7
18255.4
18299.6
18344.4
18389.9
18436
18482.7
18530.1
18577.9
18626.4
18675.4
18725
18775
18825.6
18876.8
18928.4
18980.6
19033.2
19086.4
19140.1
19194.2
19248.9
19304
19359.5
19415.5
19471.8
19528.5
19585.6
19643.1
19701.1
19759.5
19818.3
19877.4
19936.6
19995.9
20055.2
20114.7
20174.2
20233.9
20293.7
20353.7
20413.8
20473.9
20534.1
20594.4
20654.7
20715
20775.2
20835.4
20895.5
20955.5
21015.4
21075.2
21134.7
21194.1
21253.3
21312.2
21370.8
21429.2
21487.2
21545
21602.3
21659.3
21715.9
21772.1
21827.9
21883.2
21938
21992.3
22046.1
22099.3
22151.9
22203.9
22255.3
22306.1
22356.3
22405.7
22454.4
22502.4
22549.7
22596.2
22641.9
22686.8
22730.9
22774.1
22816.5
22857.9
22898.5
22938.2
22976.9
23014.7
23051.5
23087.4
23122.3
23156.2
23189.1
23220.9
23251.8
23281.6
23310.4
23338.1
23364.8
23390.4
23415
23438.5
23460.9
23482.3
23502.7
23521.9
23540.1
23557.3
23573.4
23588.4
23602.4
23615.4
23627.3
23638.2
23648.1
23656.9
23664.8
23671.7
23677.6
23682.5
23686.5
23689.6
23691.7
23692.9
23693.1
23692.5
23691.1
23688.7
23685.6
23681.6
23676.8
23671.2
23664.9
23657.8
23649.9
23641.4
23632.2
23622.3
23611.7
23600.6
23588.8
23576.5
23563.6
23550.1
23536.2
23521.7
23506.8
23491.4
23475.6
23459.4
23442.8
23425.8
23408.5
23390.9
23372.9
23354.7
23336.3
23317.6
23298.7
23279.6
23260.3
23240.9
23221.3
23201.6
23181.9
23162.1
23142.2
23122.2
23102.3
23082.3
23062.4
23042.4
23022.6
23002.7
22983
22963.4
22943.8
22924.5
22905.3
22886.2
22867.3
22848.7
22830.2
22811.9
22793.9
22776.1
22758.6
22741.4
22724.4
22707.8
22691.5
22675.5
22659.9
22644.6
22629.7
22615.2
22601
22587.3
22574.1
22561.2
22548.8
22536.8
22525.3
22514.1
22503.4
22493.1
22483.2
22473.7
22464.7
22456.1
22447.8
22440
22432.6
22425.6
22419
22412.8
22406.9
22401.4
22396.2
22391.3
22386.7
22382.4
22378.4
22374.6
22371
22367.7
22364.5
22361.5
22358.7
22356
22353.4
22350.9
22348.4
22346.1
22343.7
22341.4
22339.1
22336.8
22334.5
22332.2
22329.8
22327.4
22324.9
22322.4
22319.9
22317.3
22314.7
22312
22309.4
22306.8
22304.3
22301.8
22299.4
22297.1
22295
22293
22291.2
22289.6
22288.2
22287.1
22286.1
22285.4
22285
22284.8
15813.5
15814
15815.3
15817.3
15819.9
15823.3
15827.2
15831.7
15836.8
15842.5
15848.7
15855.6
15863
15871
15879.5
15888.5
15898.2
15908.3
15918.9
15930.1
15941.7
15953.9
15966.4
15979.5
15992.9
16006.8
16021.1
16035.7
16050.7
16066
16081.7
16097.6
16113.8
16130.2
16146.9
16163.8
16180.9
16198.1
16215.4
16232.9
16250.4
16268
16285.6
16303.2
16320.9
16338.4
16355.9
16373.3
16390.6
16407.8
16424.8
16441.6
16458.2
16474.6
16490.7
16506.6
16522.3
16537.6
16552.6
16567.3
16581.7
16595.6
16609.2
16622.4
16635.2
16647.5
16659.5
16671
16682
16692.6
16702.7
16712.4
16721.6
16730.3
16738.6
16746.4
16753.7
16760.5
16766.8
16772.7
16778.1
16783
16787.4
16791.4
16795
16798.1
16800.7
16803
16804.7
16806.1
16807.1
16807.7
16807.8
16807.6
16807.1
16806.1
16804.9
16803.3
16801.4
16799.1
16796.6
16793.8
16790.8
16787.4
16783.9
16780.1
16776
16771.8
16767.4
16762.7
16757.9
16753
16747.9
16742.6
16737.2
16731.8
16726.2
16720.5
16714.8
16709
16703.1
16697.2
16691.3
16685.3
16679.3
16673.3
16667.2
16661.2
16655.2
16649.1
16643.1
16637.1
16631.1
16625.2
16619.2
16613.4
16607.5
16601.7
16596
16590.3
16584.8
16579.2
16573.8
16568.5
16563.3
16558.1
16553.1
16548.2
16543.5
16538.9
16534.4
16530.1
16526
16522.1
16518.4
16515
16511.9
16509
16506.3
16503.9
16501.8
16500
16498.5
16497.3
16496.5
16496
16496
16496.3
16497.1
16498.3
16500
16502.1
16504.7
16507.8
16511.4
16515.6
16520.2
16525.4
16531.2
16537.5
16544.4
16551.8
16559.9
16568.6
16577.9
16587.9
16598.4
16609.7
16621.6
16634.1
16647.3
16661.3
16675.9
16691.2
16707.1
16723.8
16741.3
16759.4
16778.2
16797.8
16818.1
16839.1
16860.8
16883.3
16906.4
16930.3
16955
16980.3
17006.4
17033.2
17060.7
17088.9
17117.8
17147.5
17177.8
17208.8
17240.6
17273
17306.1
17339.9
17374.3
17409.5
17445.3
17481.8
17518.9
17556.7
17595.2
17634.3
17674.1
17714.5
17755.6
17797.3
17839.6
17882.6
17926.2
17970.4
18015.2
18060.8
18106.9
18153.6
18201
18248.9
18297.3
18346.3
18395.9
18446
18496.6
18547.8
18599.5
18651.7
18704.5
18757.7
18811.4
18865.6
18920.2
18975.4
19030.9
19086.9
19143.3
19200.1
19257.3
19314.9
19372.8
19431.2
19489.9
19548.8
19608
19667.3
19726.8
19786.4
19846.1
19906
19966
20026
20086.2
20146.5
20206.8
20267.1
20327.4
20387.8
20448.1
20508.4
20568.6
20628.7
20688.6
20748.4
20808.1
20867.5
20926.8
20985.8
21044.5
21103
21161.1
21218.9
21276.4
21333.4
21390.1
21446.4
21502.2
21557.6
21612.5
21666.8
21720.7
21774
21826.7
21878.7
21930.2
21981
22031.2
22080.7
22129.5
22177.5
22224.8
22271.3
22317.1
22362
22406.1
22449.4
22491.8
22533.3
22573.9
22613.5
22652.3
22690.1
22727
22762.8
22797.7
22831.6
22864.5
22896.4
22927.2
22957.1
22985.8
23013.6
23040.2
23065.9
23090.4
23113.9
23136.4
23157.8
23178.1
23197.3
23215.5
23232.6
23248.7
23263.7
23277.7
23290.6
23302.5
23313.4
23323.3
23332.1
23340
23346.8
23352.7
23357.6
23361.5
23364.5
23366.6
23367.8
23368
23367.4
23365.9
23363.5
23360.3
23356.2
23351.4
23345.8
23339.4
23332.2
23324.3
23315.8
23306.5
23296.5
23286
23274.7
23262.9
23250.5
23237.5
23224
23210
23195.5
23180.5
23165.1
23149.2
23133
23116.3
23099.3
23081.9
23064.2
23046.2
23028
23009.5
22990.7
22971.8
22952.6
22933.3
22913.8
22894.2
22874.5
22854.7
22834.8
22814.9
22794.9
22774.9
22754.9
22734.9
22714.9
22695
22675.2
22655.4
22635.7
22616.2
22596.8
22577.5
22558.4
22539.5
22520.8
22502.3
22484
22465.9
22448.1
22430.6
22413.3
22396.4
22379.7
22363.4
22347.4
22331.7
22316.4
22301.5
22287
22272.8
22259.1
22245.8
22233
22220.5
22208.5
22197
22185.8
22175.1
22164.8
22154.9
22145.4
22136.4
22127.8
22119.6
22111.9
22104.5
22097.5
22091
22084.8
22078.9
22073.4
22068.3
22063.4
22058.9
22054.7
22050.7
22047
22043.5
22040.2
22037.1
22034.1
22031.3
22028.7
22026.1
22023.7
22021.3
22019
22016.7
22014.4
22012.2
22009.9
22007.6
22005.3
22002.9
22000.5
21998
21995.5
21992.9
21990.2
21987.6
21984.9
21982.2
21979.5
21976.9
21974.4
21971.9
21969.6
21967.4
21965.4
21963.5
21961.9
21960.5
21959.3
21958.3
21957.6
21957.2
21957.1
15483.8
15484.3
15485.6
15487.6
15490.3
15493.6
15497.6
15502.1
15507.2
15513
15519.3
15526.1
15533.6
15541.6
15550.2
15559.3
15568.9
15579.1
15589.8
15601
15612.7
15624.9
15637.6
15650.7
15664.2
15678.1
15692.5
15707.2
15722.3
15737.7
15753.4
15769.4
15785.7
15802.2
15819
15836
15853.1
15870.5
15887.9
15905.4
15923.1
15940.8
15958.5
15976.2
15993.9
16011.6
16029.1
16046.6
16064
16081.3
16098.4
16115.3
16131.9
16148.4
16164.7
16180.6
16196.3
16211.7
16226.8
16241.5
16255.9
16269.9
16283.5
16296.8
16309.6
16322
16334
16345.5
16356.6
16367.2
16377.3
16387
16396.2
16405
16413.2
16421
16428.3
16435.1
16441.4
16447.3
16452.7
16457.6
16462
16466
16469.5
16472.6
16475.2
16477.4
16479.2
16480.5
16481.4
16482
16482.1
16481.9
16481.3
16480.3
16479
16477.4
16475.4
16473.1
16470.6
16467.7
16464.6
16461.3
16457.6
16453.8
16449.7
16445.4
16441
16436.3
16431.5
16426.5
16421.3
16416
16410.6
16405.1
16399.5
16393.8
16388.1
16382.2
16376.3
16370.4
16364.4
16358.4
16352.4
16346.3
16340.3
16334.2
16328.1
16322.1
16316
16310
16304
16298
16292.1
16286.2
16280.3
16274.5
16268.8
16263.1
16257.5
16251.9
16246.5
16241.1
16235.8
16230.7
16225.6
16220.7
16215.9
16211.3
16206.8
16202.5
16198.3
16194.4
16190.7
16187.2
16184
16181
16178.3
16175.8
16173.7
16171.8
16170.2
16169
16168.1
16167.6
16167.5
16167.8
16168.6
16169.7
16171.4
16173.4
16176
16179.1
16182.6
16186.7
16191.3
16196.5
16202.2
16208.4
16215.3
16222.7
16230.8
16239.4
16248.7
16258.6
16269.2
16280.4
16292.2
16304.7
16317.9
16331.8
16346.4
16361.7
16377.6
16394.3
16411.7
16429.8
16448.7
16468.2
16488.5
16509.5
16531.2
16553.6
16576.8
16600.7
16625.3
16650.7
16676.8
16703.6
16731.1
16759.3
16788.2
16817.8
16848.2
16879.2
16910.9
16943.3
16976.4
17010.2
17044.7
17079.8
17115.6
17152.1
17189.2
17227.1
17265.5
17304.6
17344.4
17384.9
17425.9
17467.6
17510
17552.9
17596.5
17640.7
17685.6
17731.1
17777.2
17823.9
17871.3
17919.2
17967.7
18016.7
18066.3
18116.5
18167.1
18218.4
18270.1
18322.4
18375.1
18428.4
18482.2
18536.4
18591.2
18646.3
18702
18758
18814.5
18871.3
18928.5
18986.1
19044.1
19102.5
19161.1
19220.1
19279.3
19338.7
19398.2
19458
19517.8
19577.8
19637.9
19698.1
19758.4
19818.8
19879.2
19939.7
20000.2
20060.6
20121
20181.4
20241.7
20301.9
20362
20421.9
20481.6
20541.2
20600.5
20659.6
20718.4
20777
20835.2
20893.1
20950.7
21007.8
21064.6
21121
21176.9
21232.3
21287.3
21341.7
21395.7
21449
21501.8
21553.9
21605.5
21656.4
21706.6
21756.1
21805
21853.1
21900.4
21947
21992.8
22037.8
22081.9
22125.2
22167.6
22209.1
22249.8
22289.5
22328.2
22366.1
22402.9
22438.8
22473.8
22507.7
22540.6
22572.4
22603.3
22633.1
22661.9
22689.6
22716.3
22741.9
22766.5
22790
22812.4
22833.8
22854.1
22873.3
22891.5
22908.6
22924.6
22939.6
22953.6
22966.5
22978.4
22989.2
22999
23007.8
23015.7
23022.5
23028.3
23033.2
23037.1
23040
23042.1
23043.2
23043.4
23042.7
23041.1
23038.7
23035.4
23031.3
23026.4
23020.7
23014.3
23007.1
22999.1
22990.5
22981.1
22971.1
22960.5
22949.2
22937.3
22924.8
22911.8
22898.2
22884.1
22869.5
22854.5
22839
22823
22806.7
22790
22772.9
22755.4
22737.7
22719.6
22701.3
22682.7
22663.9
22644.9
22625.7
22606.3
22586.7
22567.1
22547.3
22527.5
22507.5
22487.5
22467.5
22447.5
22427.4
22407.3
22387.3
22367.4
22347.4
22327.6
22307.9
22288.3
22268.8
22249.5
22230.4
22211.4
22192.7
22174.1
22155.8
22137.7
22119.9
22102.3
22085
22068
22051.3
22035
22018.9
22003.3
21987.9
21973
21958.4
21944.3
21930.6
21917.2
21904.4
21891.9
21879.9
21868.3
21857.1
21846.4
21836.1
21826.2
21816.8
21807.8
21799.2
21791.1
21783.4
21776
21769.1
21762.6
21756.4
21750.7
21745.2
21740.1
21735.4
21730.9
21726.7
21722.8
21719.1
21715.7
21712.5
21709.5
21706.6
21703.9
21701.3
21698.8
21696.5
21694.1
21691.9
21689.7
21687.4
21685.2
21683
21680.7
21678.4
21676
21673.6
21671.1
21668.5
21665.9
21663.2
21660.5
21657.7
21655
21652.2
21649.5
21646.9
21644.3
21641.9
21639.7
21637.6
21635.7
21634
21632.5
21631.3
21630.4
21629.7
21629.3
21629.1
15153.7
15154.2
15155.4
15157.4
15160.1
15163.5
15167.4
15172
15177.2
15182.9
15189.3
15196.2
15203.7
15211.7
15220.4
15229.5
15239.3
15249.5
15260.3
15271.6
15283.3
15295.6
15308.3
15321.5
15335.1
15349.1
15363.6
15378.4
15393.5
15409
15424.9
15441
15457.4
15474
15490.9
15508
15525.3
15542.7
15560.2
15577.9
15595.7
15613.5
15631.3
15649.1
15666.9
15684.7
15702.4
15720
15737.5
15754.9
15772.1
15789.1
15805.8
15822.4
15838.7
15854.8
15870.6
15886
15901.2
15916
15930.4
15944.5
15958.2
15971.4
15984.3
15996.8
16008.8
16020.3
16031.4
16042.1
16052.2
16061.9
16071.2
16079.9
16088.2
16095.9
16103.2
16110
16116.4
16122.2
16127.6
16132.5
16136.9
16140.8
16144.3
16147.4
16150
16152.1
16153.8
16155.2
16156
16156.5
16156.6
16156.4
16155.7
16154.7
16153.3
16151.7
16149.7
16147.3
16144.7
16141.8
16138.7
16135.2
16131.6
16127.7
16123.5
16119.2
16114.7
16110
16105.1
16100.1
16094.9
16089.5
16084.1
16078.6
16072.9
16067.2
16061.4
16055.5
16049.6
16043.6
16037.6
16031.6
16025.5
16019.4
16013.3
16007.2
16001.1
15995
15989
15982.9
15976.9
15970.9
15964.9
15959
15953.1
15947.3
15941.5
15935.8
15930.1
15924.6
15919.1
15913.7
15908.4
15903.2
15898.1
15893.1
15888.3
15883.6
15879.1
15874.7
15870.5
15866.5
15862.7
15859.2
15855.9
15852.8
15850.1
15847.5
15845.3
15843.4
15841.8
15840.5
15839.6
15839
15838.8
15839.1
15839.8
15840.9
15842.4
15844.5
15847
15850
15853.5
15857.5
15862
15867.1
15872.8
15879
15885.8
15893.2
15901.2
15909.8
15919
15928.9
15939.4
15950.6
15962.4
15974.9
15988.1
16001.9
16016.5
16031.7
16047.7
16064.3
16081.7
16099.8
16118.6
16138.1
16158.4
16179.4
16201.1
16223.5
16246.7
16270.6
16295.2
16320.5
16346.6
16373.4
16400.9
16429.1
16458
16487.7
16518
16549
16580.7
16613.1
16646.2
16680
16714.5
16749.6
16785.4
16821.9
16859
16896.8
16935.3
16974.4
17014.2
17054.6
17095.7
17137.4
17179.8
17222.7
17266.3
17310.5
17355.4
17400.9
17447
17493.7
17541
17589
17637.5
17686.5
17736.2
17786.3
17837.1
17888.3
17940.1
17992.5
18045.3
18098.6
18152.5
18206.8
18261.6
18316.8
18372.5
18428.6
18485.1
18542
18599.3
18657
18715
18773.4
18832.1
18891.1
18950.4
19009.9
19069.6
19129.4
19189.4
19249.5
19309.8
19370.1
19430.6
19491.1
19551.6
19612.2
19672.8
19733.4
19793.9
19854.4
19914.9
19975.2
20035.4
20095.4
20155.3
20214.9
20274.4
20333.6
20392.5
20451.2
20509.5
20567.5
20625.2
20682.5
20739.4
20795.8
20851.8
20907.4
20962.4
21017
21071
21124.4
21177.3
21229.5
21281.2
21332.1
21382.5
21432.1
21481
21529.1
21576.5
21623.2
21669
21714
21758.2
21801.6
21844
21885.6
21926.3
21966
22004.8
22042.7
22079.6
22115.5
22150.4
22184.3
22217.3
22249.2
22280
22309.8
22338.6
22366.4
22393
22418.6
22443.2
22466.7
22489.1
22510.4
22530.7
22549.9
22568.1
22585.1
22601.2
22616.1
22630.1
22642.9
22654.8
22665.6
22675.4
22684.1
22691.9
22698.7
22704.5
22709.3
22713.1
22716
22718
22719
22719.2
22718.4
22716.8
22714.3
22711
22706.8
22701.8
22696.1
22689.5
22682.3
22674.2
22665.5
22656.1
22646
22635.3
22623.9
22611.9
22599.4
22586.2
22572.6
22558.4
22543.7
22528.6
22513
22497
22480.5
22463.7
22446.5
22429
22411.2
22393
22374.6
22356
22337.1
22318
22298.7
22279.2
22259.6
22239.9
22220.1
22200.1
22180.1
22160.1
22140
22119.9
22099.8
22079.6
22059.6
22039.5
22019.6
21999.7
21979.9
21960.3
21940.8
21921.4
21902.2
21883.2
21864.4
21845.8
21827.4
21809.3
21791.4
21773.8
21756.4
21739.4
21722.7
21706.3
21690.2
21674.5
21659.2
21644.2
21629.6
21615.4
21601.7
21588.3
21575.4
21563
21550.9
21539.3
21528.2
21517.4
21507.1
21497.3
21487.9
21478.9
21470.4
21462.3
21454.6
21447.3
21440.4
21433.9
21427.9
21422.1
21416.8
21411.8
21407.1
21402.7
21398.6
21394.7
21391.2
21387.8
21384.7
21381.8
21379
21376.4
21373.9
21371.5
21369.2
21367
21364.8
21362.6
21360.4
21358.3
21356.1
21353.8
21351.5
21349.2
21346.7
21344.2
21341.6
21338.9
21336.2
21333.4
21330.6
21327.7
21324.8
21322
21319.3
21316.6
21314.1
21311.8
21309.6
21307.6
21305.9
21304.4
21303.2
21302.2
21301.5
21301.1
21301
14823
14823.5
14824.7
14826.7
14829.4
14832.8
14836.8
14841.4
14846.6
14852.4
14858.8
14865.8
14873.3
14881.4
14890.1
14899.4
14909.1
14919.5
14930.3
14941.7
14953.5
14965.9
14978.7
14992
15005.7
15019.8
15034.3
15049.2
15064.5
15080.1
15096.1
15112.3
15128.8
15145.6
15162.6
15179.8
15197.2
15214.8
15232.5
15250.3
15268.2
15286.1
15304.1
15322
15340
15357.9
15375.7
15393.5
15411.1
15428.6
15445.9
15463
15479.9
15496.6
15513
15529.1
15545
15560.6
15575.8
15590.7
15605.2
15619.3
15633.1
15646.4
15659.3
15671.8
15683.9
15695.5
15706.6
15717.3
15727.5
15737.2
15746.4
15755.2
15763.4
15771.2
15778.5
15785.3
15791.6
15797.5
15802.8
15807.7
15812.1
15816
15819.5
15822.5
15825
15827.1
15828.8
15830.1
15830.9
15831.4
15831.4
15831.1
15830.4
15829.3
15827.9
15826.2
15824.1
15821.7
15819.1
15816.1
15812.9
15809.4
15805.6
15801.7
15797.5
15793.1
15788.5
15783.8
15778.8
15773.7
15768.5
15763.1
15757.6
15752
15746.4
15740.6
15734.7
15728.8
15722.9
15716.9
15710.8
15704.7
15698.6
15692.5
15686.4
15680.2
15674.1
15668
15661.9
15655.8
15649.7
15643.7
15637.7
15631.7
15625.8
15620
15614.2
15608.4
15602.7
15597.1
15591.6
15586.2
15580.8
15575.6
15570.4
15565.4
15560.5
15555.8
15551.2
15546.8
15542.5
15538.5
15534.7
15531
15527.7
15524.5
15521.7
15519.1
15516.7
15514.7
15513
15511.7
15510.7
15510.1
15509.8
15510
15510.6
15511.7
15513.2
15515.1
15517.5
15520.5
15523.9
15527.9
15532.4
15537.4
15543
15549.2
15555.9
15563.3
15571.2
15579.8
15588.9
15598.8
15609.2
15620.3
15632.1
15644.6
15657.7
15671.5
15686
15701.2
15717.2
15733.8
15751.1
15769.2
15788
15807.5
15827.7
15848.7
15870.4
15892.8
15916
15939.9
15964.5
15989.8
16015.9
16042.7
16070.2
16098.4
16127.3
16156.9
16187.3
16218.3
16250
16282.4
16315.5
16349.3
16383.7
16418.9
16454.7
16491.1
16528.3
16566.1
16604.5
16643.7
16683.4
16723.8
16764.9
16806.6
16849
16891.9