/*--------------------------------*- C++ -*----------------------------------*\
| =========                 |                                                 |
| \\      /  F ield         | OpenFOAM: The Open Source CFD Toolbox           |
|  \\    /   O peration     | Version:  v2006                                 |
|   \\  /    A nd           | Website:  www.openfoam.com                      |
|    \\/     M anipulation  |                                                 |
\*---------------------------------------------------------------------------*/
FoamFile
{
    version     2.0;
    format      ascii;
    class       volScalarField;
    location    "0";
    object      p;
}
// * * * * * * * * * * * * * * * * * * * * * * * * * * * * * * * * * * * * * //

dimensions      [1 -1 -2 0 0 0 0];


internalField   nonuniform List<scalar> 
20000
(
2.32929e-05
2.34147e-05
2.36821e-05
2.40859e-05
2.46292e-05
2.53103e-05
2.61329e-05
2.71014e-05
2.822e-05
2.94935e-05
3.09269e-05
3.25263e-05
3.42981e-05
3.62489e-05
3.83856e-05
4.07149e-05
4.32448e-05
4.5986e-05
4.89368e-05
5.2108e-05
5.55063e-05
5.91372e-05
6.30047e-05
6.71112e-05
7.14567e-05
7.60384e-05
8.08503e-05
8.58815e-05
9.11161e-05
9.65309e-05
0.000102095
0.000107766
0.000113491
0.0001192
0.000124808
0.000130207
0.000135265
0.000139815
0.00014366
0.000146558
0.000148215
0.00014828
0.000146327
0.000141856
0.000134276
0.000122889
0.000106871
8.5256e-05
5.69454e-05
2.07147e-05
-2.47792e-05
-8.0987e-05
-0.000149417
-0.000231507
-0.000328392
-0.000440597
-0.000567689
-0.000707905
-0.000857745
-0.00101097
-0.00115136
-0.00126596
-0.00136725
-0.00143164
-0.00144739
-0.0014185
-0.00136674
-0.00132126
-0.0012996
-0.00129402
-0.00127369
-0.00119612
-0.00102323
-0.000724526
-0.000281943
0.000316414
0.00107958
0.00201189
0.00311119
0.00436901
0.00576934
0.00728627
0.00888558
0.0105307
0.0121882
0.0138307
0.0154309
0.0169803
0.018448
0.0198321
0.0211235
0.0223136
0.0233936
0.0243532
0.0251809
0.0258642
0.0263893
0.0267416
0.0269092
0.026927
0.0266492
0.0261159
0.0253123
0.0242185
0.0228116
0.0210724
0.0189899
0.0165726
0.0138436
0.0108566
0.00768999
0.0044486
0.00125706
-0.00175156
-0.00444981
-0.00673058
-0.00851975
-0.00978383
-0.0105316
-0.0108099
-0.0106945
-0.0102728
-0.00963096
-0.00884502
-0.0079814
-0.00707929
-0.00617363
-0.00529679
-0.00448338
-0.00376767
-0.00317231
-0.00269813
-0.00232181
-0.00200491
-0.00171146
-0.00142196
-0.00113387
-0.00085321
-0.000587823
-0.000344756
-0.000129026
5.69664e-05
0.000213056
0.000340613
0.000441979
0.000520013
0.000577739
0.000618117
0.000643914
0.000657637
0.000661497
0.00065742
0.000647052
0.000631793
0.000612814
0.000591096
0.000567445
0.000542526
0.000516878
0.000490936
0.000465047
0.000439486
0.000414465
0.000390145
0.000366647
0.000344057
0.000322431
0.000301805
0.000282194
0.000263601
0.000246014
0.000229415
0.000213779
0.000199073
0.000185264
0.000172315
0.000160199
0.000148856
0.000138235
0.000128315
0.00011906
0.00011043
0.000102385
9.48918e-05
8.79143e-05
8.14204e-05
7.53791e-05
6.97614e-05
6.45397e-05
5.96881e-05
5.51825e-05
5.10001e-05
4.71199e-05
4.35225e-05
4.019e-05
3.71138e-05
3.42744e-05
3.16451e-05
2.92359e-05
2.69648e-05
2.32742e-05
2.33958e-05
2.36616e-05
2.4064e-05
2.46065e-05
2.52877e-05
2.61111e-05
2.70812e-05
2.82022e-05
2.94784e-05
3.0915e-05
3.25175e-05
3.42917e-05
3.62438e-05
3.83805e-05
4.07092e-05
4.32372e-05
4.59701e-05
4.89187e-05
5.20885e-05
5.5486e-05
5.91163e-05
6.29835e-05
6.70899e-05
7.14356e-05
7.60179e-05
8.08307e-05
8.58635e-05
9.11001e-05
9.65178e-05
0.000102085
0.000107762
0.000113492
0.00011921
0.000124828
0.000130239
0.000135311
0.00013988
0.000143747
0.000146671
0.000148361
0.000148464
0.000146556
0.000142139
0.000134622
0.00012331
0.000107379
8.58627e-05
5.76621e-05
2.15519e-05
-2.38129e-05
-7.98883e-05
-0.000148195
-0.000230187
-0.00032703
-0.000439298
-0.000566624
-0.000707162
-0.000856987
-0.00101067
-0.00116633
-0.00131271
-0.00142002
-0.0014788
-0.00148654
-0.00145195
-0.0013974
-0.00135088
-0.00132836
-0.00132087
-0.0012973
-0.00121506
-0.00103713
-0.000733794
-0.000286959
0.000315632
0.00108342
0.00202094
0.00312593
0.0043896
0.00579547
0.00731703
0.00891941
0.0105657
0.0122222
0.0138599
0.015457
0.0169916
0.018458
0.0198416
0.0211331
0.0223237
0.0234044
0.0243649
0.0251939
0.0258784
0.0264043
0.0267554
0.0269118
0.0268296
0.0265501
0.0260344
0.0252528
0.0241759
0.0227818
0.0210535
0.0189813
0.0165749
0.013855
0.0108754
0.00771448
0.00447679
0.00128701
-0.00172142
-0.00442048
-0.00670252
-0.00849293
-0.00975798
-0.0105065
-0.0107857
-0.0106717
-0.0102546
-0.0096218
-0.00884572
-0.00798138
-0.00707778
-0.00617007
-0.00529057
-0.00447454
-0.00375714
-0.00316184
-0.00268962
-0.00231642
-0.00200247
-0.00171072
-0.0014216
-0.00113313
-0.000851844
-0.000585855
-0.000342354
-0.000126406
5.96155e-05
0.000215596
0.000342953
0.000444071
0.00052184
0.000579303
0.000619434
0.000645007
0.000658531
0.000662219
0.000657992
0.000647498
0.000632132
0.000613065
0.000591273
0.000567563
0.000542595
0.000516907
0.000490933
0.00046502
0.000439439
0.000414403
0.000390072
0.000366567
0.000343971
0.000322342
0.000301714
0.000282103
0.00026351
0.000245924
0.000229327
0.000213692
0.000198988
0.00018518
0.000172231
0.000160095
0.000148745
0.000138143
0.00012824
0.000118996
0.000110375
0.000102337
9.48496e-05
8.78771e-05
8.13876e-05
7.53503e-05
6.97361e-05
6.45176e-05
5.96689e-05
5.5166e-05
5.09861e-05
4.71085e-05
4.35142e-05
4.01862e-05
3.71045e-05
3.4259e-05
3.1628e-05
2.92376e-05
2.69218e-05
2.32511e-05
2.33738e-05
2.36402e-05
2.40432e-05
2.45862e-05
2.52675e-05
2.60904e-05
2.70595e-05
2.81788e-05
2.94528e-05
3.08867e-05
3.24858e-05
3.42565e-05
3.62054e-05
3.83396e-05
4.06666e-05
4.31936e-05
4.59271e-05
4.88762e-05
5.20463e-05
5.54435e-05
5.90734e-05
6.29404e-05
6.70469e-05
7.13932e-05
7.59767e-05
8.07916e-05
8.58273e-05
9.10682e-05
9.64917e-05
0.000102067
0.000107753
0.000113496
0.000119229
0.000124867
0.000130302
0.000135404
0.000140009
0.00014392
0.000146897
0.000148651
0.000148831
0.000147014
0.000142704
0.000135314
0.000124151
0.000108393
8.70749e-05
5.90945e-05
2.32258e-05
-2.18793e-05
-7.76872e-05
-0.000145743
-0.000227547
-0.000324315
-0.000436651
-0.000564203
-0.000705463
-0.000857544
-0.00101468
-0.00116624
-0.00129925
-0.00139889
-0.00145643
-0.00146378
-0.00142675
-0.00136853
-0.00132041
-0.00130127
-0.00130248
-0.00128992
-0.0012217
-0.00105403
-0.000759183
-0.000319431
0.000277199
0.0010402
0.0019743
0.00307733
0.00434096
0.00574927
0.00727559
0.00888425
0.0105374
0.012201
0.0138467
0.0154526
0.0169969
0.018469
0.019856
0.0211501
0.022343
0.0234259
0.0243887
0.0252199
0.0259068
0.0264358
0.0267934
0.0269663
0.0269251
0.0266725
0.0261615
0.0253752
0.0242927
0.0228925
0.0211564
0.0190766
0.0166514
0.0139129
0.0109079
0.00771619
0.00444462
0.00122047
-0.00181964
-0.00454453
-0.00684394
-0.00864172
-0.00990394
-0.0106405
-0.010901
-0.0107644
-0.0103237
-0.00966776
-0.00887169
-0.00799446
-0.00708136
-0.00616644
-0.00528007
-0.00445788
-0.00373659
-0.00314111
-0.00267271
-0.00230578
-0.00199775
-0.00170939
-0.00142097
-0.00113169
-0.000849118
-0.000581911
-0.000337535
-0.00012115
6.49251e-05
0.000220682
0.000347638
0.000448257
0.000525493
0.00058243
0.000622067
0.000647192
0.000660318
0.000663659
0.000659135
0.000648389
0.00063281
0.000613566
0.000591628
0.000567797
0.000542731
0.000516964
0.000490927
0.000464964
0.000439344
0.000414279
0.000389926
0.000366405
0.000343798
0.000322163
0.000301532
0.000281921
0.00026333
0.000245749
0.000229157
0.00021353
0.000198835
0.000185037
0.0001721
0.00015998
0.000148639
0.000138038
0.000128135
0.000118892
0.000110272
0.000102239
9.47544e-05
8.7786e-05
8.13008e-05
7.52677e-05
6.96577e-05
6.44432e-05
5.95985e-05
5.50993e-05
5.09229e-05
4.70486e-05
4.34571e-05
4.01312e-05
3.7052e-05
3.42098e-05
3.15837e-05
2.91899e-05
2.68804e-05
2.32152e-05
2.33374e-05
2.36032e-05
2.40052e-05
2.4547e-05
2.52269e-05
2.60484e-05
2.7016e-05
2.8134e-05
2.94068e-05
3.08396e-05
3.2438e-05
3.42081e-05
3.61565e-05
3.82901e-05
4.06159e-05
4.31411e-05
4.58726e-05
4.8819e-05
5.19865e-05
5.53817e-05
5.90103e-05
6.28764e-05
6.69828e-05
7.13298e-05
7.5915e-05
8.07328e-05
8.57731e-05
9.10203e-05
9.64522e-05
0.000102039
0.000107739
0.000113501
0.000119258
0.000124925
0.000130397
0.000135543
0.000140203
0.000144179
0.000147236
0.000149086
0.00014938
0.000147699
0.000143549
0.000136348
0.00012541
0.000109912
8.88909e-05
6.12411e-05
2.57346e-05
-1.89808e-05
-7.43868e-05
-0.000142064
-0.000223569
-0.0003202
-0.000432689
-0.000560869
-0.000703216
-0.000856247
-0.00101413
-0.00116924
-0.00131142
-0.00142261
-0.00148705
-0.0014954
-0.00145421
-0.00138966
-0.00133741
-0.0013192
-0.00132585
-0.00132141
-0.00125787
-0.001094
-0.000800507
-0.000360439
0.000237317
0.00100259
0.00194046
0.00304873
0.00431932
0.00573655
0.00727307
0.00889162
0.010553
0.0122227
0.0138723
0.0154792
0.017024
0.0184955
0.0198831
0.0211784
0.0223731
0.0234583
0.024424
0.0252586
0.0259492
0.0264816
0.0268402
0.0270073
0.0269586
0.0266929
0.0261811
0.0254019
0.02433
0.0229405
0.0212134
0.019137
0.0167159
0.0139714
0.0109537
0.00774281
0.00444662
0.00119479
-0.00187271
-0.00462109
-0.00693699
-0.00874231
-0.0100027
-0.0107289
-0.0109731
-0.010818
-0.0103602
-0.00969063
-0.00888428
-0.00799877
-0.00707895
-0.00615653
-0.00526168
-0.00443117
-0.00370451
-0.00310913
-0.00264682
-0.00228968
-0.0019908
-0.0017076
-0.00142016
-0.00112957
-0.000845022
-0.000575956
-0.000330259
-0.000113225
7.29217e-05
0.000228334
0.000354677
0.000454541
0.000530973
0.000587118
0.000626012
0.000650463
0.000662992
0.000665814
0.000660844
0.000649719
0.000633823
0.000614314
0.000592156
0.000568145
0.000542932
0.000517048
0.000490916
0.000464879
0.000439201
0.000414091
0.000389706
0.000366161
0.000343539
0.000321894
0.000301259
0.000281647
0.000263058
0.00024548
0.000228895
0.000213273
0.000198585
0.000184795
0.000171864
0.000159752
0.000148422
0.000137834
0.000127946
0.000118715
0.000110111
0.000102089
9.46161e-05
8.76579e-05
8.1182e-05
7.51576e-05
6.95557e-05
6.43487e-05
5.95108e-05
5.50179e-05
5.08473e-05
4.69783e-05
4.33916e-05
4.00697e-05
3.69949e-05
3.41565e-05
3.15326e-05
2.91393e-05
2.68346e-05
2.3167e-05
2.32889e-05
2.35543e-05
2.39559e-05
2.4497e-05
2.51761e-05
2.59966e-05
2.69631e-05
2.80796e-05
2.93507e-05
3.07814e-05
3.23774e-05
3.41448e-05
3.60901e-05
3.82204e-05
4.05429e-05
4.3065e-05
4.5794e-05
4.87381e-05
5.19038e-05
5.52975e-05
5.89248e-05
6.27903e-05
6.68968e-05
7.12448e-05
7.58324e-05
8.06541e-05
8.57003e-05
9.09559e-05
9.63992e-05
0.000102001
0.000107721
0.000113508
0.000119295
0.000125001
0.000130521
0.000135727
0.000140458
0.000144522
0.000147684
0.000149662
0.000150109
0.000148609
0.000144672
0.000137723
0.000127083
0.000111933
9.13072e-05
6.40984e-05
2.90763e-05
-1.51156e-05
-6.9978e-05
-0.00013714
-0.000218245
-0.000314701
-0.000427342
-0.000556068
-0.000699561
-0.000854963
-0.00101706
-0.00117733
-0.00132269
-0.00143428
-0.00149625
-0.00149845
-0.001447
-0.00137128
-0.00131303
-0.00129828
-0.00131702
-0.00132844
-0.00128227
-0.00113195
-0.000848005
-0.000415413
0.000176197
0.000937344
0.00187367
0.00298301
0.0042579
0.0056834
0.00723148
0.00886284
0.0105365
0.0122172
0.0138766
0.0154918
0.0170439
0.0185213
0.0199137
0.0212131
0.0224118
0.0235013
0.0244715
0.0253108
0.0260064
0.0265446
0.0269108
0.0270891
0.0270585
0.0268087
0.0263121
0.0255435
0.0244784
0.0230926
0.0213652
0.0192835
0.0168458
0.0140766
0.0110242
0.0077687
0.00442062
0.0011142
-0.00200501
-0.00479649
-0.00714204
-0.00896067
-0.0102174
-0.0109249
-0.011139
-0.0109484
-0.0104556
-0.00975526
-0.00892349
-0.0080185
-0.00708348
-0.00614807
-0.00523988
-0.00439681
-0.00366203
-0.00306632
-0.00261218
-0.00226848
-0.00198211
-0.00170577
-0.00141944
-0.0011269
-0.000839573
-0.00056796
-0.000320477
-0.000102583
8.36403e-05
0.000238573
0.000364082
0.000462927
0.000538278
0.000593362
0.000631263
0.000654814
0.000666547
0.000668676
0.000663113
0.000651485
0.000635166
0.000615304
0.000592855
0.000568605
0.000543198
0.000517156
0.000490899
0.000464763
0.000439009
0.00041384
0.000389412
0.000365836
0.000343193
0.000321536
0.000300894
0.000281282
0.000262697
0.000245127
0.000228552
0.000212943
0.00019827
0.000184495
0.00017158
0.000159484
0.000148169
0.000137593
0.000127717
0.000118501
0.000109904
0.000101893
9.44303e-05
8.74826e-05
8.1017e-05
7.50024e-05
6.94099e-05
6.42119e-05
5.93825e-05
5.48975e-05
5.07344e-05
4.68722e-05
4.32917e-05
3.99755e-05
3.69061e-05
3.40724e-05
3.14521e-05
2.90616e-05
2.67613e-05
2.31069e-05
2.32285e-05
2.34934e-05
2.38942e-05
2.44343e-05
2.5112e-05
2.59308e-05
2.68953e-05
2.80095e-05
2.92781e-05
3.07061e-05
3.22992e-05
3.40637e-05
3.60061e-05
3.81335e-05
4.04531e-05
4.29723e-05
4.56986e-05
4.86396e-05
5.18024e-05
5.51935e-05
5.88189e-05
6.26832e-05
6.67895e-05
7.11387e-05
7.5729e-05
8.05556e-05
8.56091e-05
9.0875e-05
9.63324e-05
0.000101952
0.000107697
0.000113514
0.000119341
0.000125095
0.000130675
0.000135954
0.000140776
0.000144948
0.000148242
0.000150378
0.000151016
0.000149741
0.000146069
0.000139434
0.000129166
0.000114451
9.43204e-05
6.76635e-05
3.32478e-05
-1.02871e-05
-6.44642e-05
-0.000130971
-0.00021155
-0.000307746
-0.000420559
-0.000550107
-0.000695308
-0.000853387
-0.00101903
-0.00118377
-0.00133475
-0.0014534
-0.0015209
-0.00152302
-0.0014642
-0.00137773
-0.00131341
-0.001303
-0.00133545
-0.001365
-0.00133433
-0.00119507
-0.000917451
-0.00048846
0.000101021
0.0008623
0.00180162
0.00291664
0.00420057
0.0056394
0.00720404
0.00885235
0.0105409
0.0122336
0.0139024
0.0155243
0.0170812
0.0185618
0.019957
0.0212594
0.0224616
0.0235552
0.0245302
0.0253751
0.0260768
0.0266213
0.0269934
0.0271764
0.0271509
0.0269041
0.0264125
0.0256516
0.0245962
0.0232199
0.0214992
0.0194177
0.0169739
0.0141865
0.011103
0.00780443
0.00440399
0.00104079
-0.00213327
-0.0049709
-0.00734818
-0.00918061
-0.0104325
-0.0111185
-0.011299
-0.0110698
-0.0105403
-0.0098093
-0.00895352
-0.00803043
-0.00708161
-0.00613288
-0.00520959
-0.00435143
-0.00360673
-0.00301094
-0.00256777
-0.00224187
-0.0019719
-0.00170425
-0.001419
-0.00112372
-0.000832742
-0.000557848
-0.000308105
-8.91536e-05
9.71335e-05
0.000251434
0.000375873
0.000473423
0.000547409
0.000601158
0.000637812
0.000660236
0.000670973
0.000672239
0.000665935
0.000653679
0.000636832
0.000616532
0.00059372
0.000569172
0.000543523
0.000517286
0.000490873
0.000464614
0.000438765
0.000413524
0.000389041
0.000365427
0.000342759
0.000321086
0.000300437
0.000280824
0.000262243
0.000244681
0.000228117
0.000212521
0.000197862
0.000184102
0.000171204
0.000159125
0.000147828
0.000137271
0.000127413
0.000118215
0.000109637
0.000101644
9.41981e-05
8.72658e-05
8.08147e-05
7.48139e-05
6.92341e-05
6.40481e-05
5.92298e-05
5.47551e-05
5.06014e-05
4.67479e-05
4.31753e-05
3.98662e-05
3.68034e-05
3.39754e-05
3.13598e-05
2.89731e-05
2.66768e-05
2.30348e-05
2.3156e-05
2.34203e-05
2.38202e-05
2.4359e-05
2.50351e-05
2.5852e-05
2.68143e-05
2.7926e-05
2.91918e-05
3.06168e-05
3.22067e-05
3.39677e-05
3.59065e-05
3.80299e-05
4.03455e-05
4.28606e-05
4.55828e-05
4.852e-05
5.16794e-05
5.50677e-05
5.8691e-05
6.2554e-05
6.66602e-05
7.10107e-05
7.56044e-05
8.04367e-05
8.54989e-05
9.07772e-05
9.62512e-05
0.000101893
0.000107666
0.000113521
0.000119394
0.000125205
0.000130857
0.000136224
0.000141152
0.000145454
0.000148905
0.000151232
0.000152097
0.000151092
0.000147736
0.000141477
0.000131653
0.00011746
9.79246e-05
7.19305e-05
3.82445e-05
-4.49551e-06
-5.78357e-05
-0.000123534
-0.00020346
-0.000299328
-0.000412322
-0.000542735
-0.000689705
-0.000850835
-0.00102137
-0.00119303
-0.00135211
-0.00147821
-0.00154872
-0.00154554
-0.00147197
-0.00136707
-0.00129172
-0.00128532
-0.00133521
-0.00138817
-0.00138044
-0.00125834
-0.000991729
-0.000570754
1.21321e-05
0.000769613
0.00170885
0.00282727
0.00411915
0.00557198
0.00715545
0.00882378
0.0105305
0.0122386
0.0139201
0.0155522
0.0171172
0.0186041
0.0200047
0.0213123
0.0225199
0.0236195
0.0246011
0.0254531
0.0261625
0.0267152
0.0270965
0.0272903
0.0272786
0.0270461
0.02657
0.0258246
0.024783
0.0234173
0.0217018
0.0196175
0.0171579
0.0143404
0.0112111
0.00785119
0.00437784
0.000936599
-0.00231223
-0.00521259
-0.00763312
-0.00948477
-0.010731
-0.011389
-0.0115251
-0.0112441
-0.010665
-0.00989188
-0.00900251
-0.00805401
-0.00708549
-0.00611883
-0.0051756
-0.00429755
-0.00353962
-0.00294322
-0.0025137
-0.00221035
-0.00196095
-0.00170375
-0.00141925
-0.0011202
-0.00082454
-0.000545552
-0.000293052
-7.28562e-05
0.00011346
0.000266955
0.000390069
0.000486035
0.000558362
0.000610496
0.000645647
0.000666717
0.00067626
0.000676489
0.000669299
0.000656292
0.000638815
0.00061799
0.000594745
0.000569842
0.000543904
0.000517434
0.000490836
0.00046443
0.000438467
0.00041314
0.000388594
0.000364934
0.000342235
0.000320544
0.000299888
0.000280274
0.000261699
0.000244149
0.000227599
0.000212021
0.000197382
0.000183643
0.000170767
0.000158711
0.000147435
0.000136899
0.000127062
0.000117883
0.000109324
0.000101349
9.39203e-05
8.7005e-05
8.057e-05
7.45845e-05
6.90194e-05
6.38471e-05
5.90417e-05
5.45791e-05
5.04366e-05
4.65934e-05
4.30303e-05
3.97297e-05
3.66748e-05
3.38537e-05
3.1244e-05
2.88622e-05
2.65704e-05
2.29507e-05
2.30715e-05
2.33351e-05
2.37339e-05
2.42712e-05
2.49454e-05
2.57601e-05
2.67198e-05
2.78286e-05
2.90911e-05
3.05124e-05
3.20984e-05
3.38552e-05
3.57896e-05
3.79086e-05
4.02196e-05
4.27301e-05
4.5448e-05
4.83809e-05
5.15364e-05
5.49213e-05
5.85419e-05
6.24033e-05
6.65091e-05
7.08612e-05
7.54586e-05
8.02974e-05
8.53696e-05
9.0662e-05
9.61552e-05
0.000101823
0.000107629
0.000113526
0.000119452
0.000125331
0.000131065
0.000136535
0.000141587
0.000146038
0.000149671
0.000152219
0.000153349
0.000152656
0.000149668
0.000143844
0.000134539
0.000120955
0.000102114
7.68947e-05
4.40619e-05
2.25577e-06
-5.00931e-05
-0.000114822
-0.000193948
-0.000289383
-0.000402527
-0.000533914
-0.000682998
-0.000847792
-0.00102392
-0.00120312
-0.00137113
-0.00150621
-0.00158206
-0.0015754
-0.00148693
-0.00136202
-0.00127535
-0.00127575
-0.00134805
-0.00142987
-0.00144812
-0.00134393
-0.00108743
-0.000673094
-9.54511e-05
0.000660119
0.0016018
0.00272639
0.0040295
0.00550066
0.007108
0.00880098
0.0105292
0.0122549
0.0139505
0.0155932
0.0171659
0.0186583
0.0200637
0.0213761
0.022589
0.0236947
0.0246834
0.0255432
0.0262612
0.026823
0.0272138
0.0274177
0.0274172
0.027196
0.0267324
0.0260005
0.0249729
0.0236197
0.0219122
0.0198272
0.017355
0.0145081
0.0113305
0.00790431
0.00435058
0.000822367
-0.00251025
-0.0054809
-0.00794946
-0.00982162
-0.0110599
-0.0116843
-0.0117682
-0.0114273
-0.0107922
-0.00997303
-0.00904767
-0.00807244
-0.00708438
-0.00609914
-0.00513342
-0.00423183
-0.00345794
-0.00286097
-0.00244865
-0.00217368
-0.00194981
-0.00170491
-0.00142055
-0.00111641
-0.000814911
-0.000530953
-0.000275185
-5.35795e-05
0.000132702
0.000285187
0.000406699
0.000500774
0.000571138
0.00062137
0.00065476
0.000674245
0.000682393
0.000681415
0.000673193
0.000659313
0.000641104
0.00061967
0.000595922
0.000570608
0.000544335
0.000517596
0.000490783
0.000464208
0.000438114
0.000412687
0.000388068
0.000364356
0.000341622
0.000319911
0.000299245
0.000279631
0.000261063
0.000243524
0.000226991
0.000211433
0.000196815
0.000183099
0.000170247
0.000158216
0.000146966
0.000136455
0.000126643
0.000117489
0.000108954
0.000101002
9.35954e-05
8.6701e-05
8.02858e-05
7.4319e-05
6.87714e-05
6.36156e-05
5.88256e-05
5.43772e-05
5.02479e-05
4.64169e-05
4.28649e-05
3.95744e-05
3.65285e-05
3.37155e-05
3.11126e-05
2.87365e-05
2.64496e-05
2.28547e-05
2.29751e-05
2.32379e-05
2.36354e-05
2.4171e-05
2.48431e-05
2.56552e-05
2.66119e-05
2.77173e-05
2.8976e-05
3.03932e-05
3.19747e-05
3.37269e-05
3.56563e-05
3.77702e-05
4.00759e-05
4.25812e-05
4.52938e-05
4.82218e-05
5.13727e-05
5.47536e-05
5.8371e-05
6.22305e-05
6.6336e-05
7.06896e-05
7.52912e-05
8.01373e-05
8.52207e-05
9.0529e-05
9.60438e-05
0.00010174
0.000107584
0.00011353
0.000119516
0.00012547
0.000131298
0.000136884
0.000142076
0.000146698
0.000150537
0.000153335
0.000154767
0.000154429
0.000151857
0.000146528
0.000137815
0.000124927
0.000106882
8.25478e-05
5.06922e-05
9.96251e-06
-4.12303e-05
-0.000104812
-0.000182975
-0.000277864
-0.000391126
-0.000523547
-0.000674897
-0.000843678
-0.00102613
-0.00121437
-0.0013937
-0.00154045
-0.00162336
-0.00161201
-0.00150328
-0.00135065
-0.00124706
-0.0012538
-0.0013523
-0.00146835
-0.00151805
-0.00143556
-0.0011913
-0.00078571
-0.000215941
0.000535569
0.00147832
0.00260804
0.00392226
0.00541353
0.00704814
0.00876945
0.0105224
0.0122683
0.0139801
0.0156355
0.0172175
0.0187171
0.0201287
0.0214471
0.0226667
0.0237801
0.0247773
0.0256466
0.0263747
0.0269474
0.0273498
0.0275665
0.0275807
0.0273757
0.0269297
0.0262169
0.0252079
0.0238708
0.022173
0.0200873
0.0175988
0.0147157
0.0114794
0.00797253
0.00432113
0.000687269
-0.00274719
-0.00580339
-0.00833057
-0.0102281
-0.0114572
-0.0120414
-0.0120623
-0.0116492
-0.010947
-0.0100728
-0.00910448
-0.00809757
-0.00708667
-0.0060797
-0.00508672
-0.00415597
-0.00336196
-0.0027637
-0.00237233
-0.0021324
-0.00193966
-0.00170877
-0.00142344
-0.00111253
-0.000803825
-0.000513923
-0.000254362
-3.12079e-05
0.000154937
0.000306178
0.000425783
0.000517641
0.000585727
0.000633765
0.000665129
0.000682799
0.000689354
0.000686999
0.000677602
0.000662729
0.000643689
0.000621563
0.000597245
0.000571463
0.000544811
0.000517766
0.00049071
0.000463944
0.000437702
0.000412163
0.000387461
0.00036369
0.000340918
0.000319183
0.000298507
0.000278894
0.000260334
0.000242811
0.000226297
0.000210762
0.00019617
0.000182483
0.000169659
0.000157657
0.000146436
0.000135954
0.00012617
0.000117043
0.000108535
0.000100608
9.32254e-05
8.6354e-05
7.99608e-05
7.40149e-05
6.8487e-05
6.33497e-05
5.8577e-05
5.41448e-05
5.00304e-05
4.62132e-05
4.26738e-05
3.93949e-05
3.63594e-05
3.35555e-05
3.09606e-05
2.85911e-05
2.63097e-05
2.27468e-05
2.28668e-05
2.31286e-05
2.35247e-05
2.40584e-05
2.47281e-05
2.55373e-05
2.64906e-05
2.75922e-05
2.88467e-05
3.02592e-05
3.18357e-05
3.35825e-05
3.55064e-05
3.76144e-05
3.99142e-05
4.24135e-05
4.51203e-05
4.80426e-05
5.11883e-05
5.45647e-05
5.81785e-05
6.20357e-05
6.61406e-05
7.0496e-05
7.51019e-05
7.9956e-05
8.50518e-05
9.03776e-05
9.59165e-05
0.000101645
0.000107531
0.00011353
0.000119583
0.000125621
0.000131554
0.000137269
0.000142619
0.000147429
0.000151498
0.000154577
0.000156346
0.000156405
0.000154298
0.000149521
0.000141471
0.000129368
0.00011222
8.88823e-05
5.81282e-05
1.86202e-05
-3.12453e-05
-9.34917e-05
-0.000170509
-0.00026471
-0.000378021
-0.0005115
-0.000665292
-0.000838499
-0.00102812
-0.00122673
-0.00141923
-0.00157986
-0.00167179
-0.00165566
-0.00152282
-0.00133642
-0.00121274
-0.00122847
-0.00135986
-0.00151766
-0.00160449
-0.00154608
-0.00131395
-0.000916937
-0.00035548
0.000392264
0.00133729
0.00247344
0.0038008
0.00531615
0.00698342
0.00873819
0.0105196
0.0122881
0.0140181
0.0156873
0.0172791
0.0187859
0.0202036
0.0215282
0.0227548
0.0238763
0.0248828
0.0257624
0.0265016
0.0270861
0.0275011
0.0277314
0.0277609
0.0275724
0.0271448
0.0264518
0.0254629
0.0241438
0.0224581
0.0203733
0.0178689
0.0149475
0.0116468
0.00805014
0.00428886
0.000535403
-0.00301462
-0.00616778
-0.00876092
-0.010686
-0.0119031
-0.0124397
-0.0123865
-0.0118895
-0.0111109
-0.0101756
-0.00916043
-0.00811978
-0.00708584
-0.00605639
-0.00503255
-0.00406721
-0.00324886
-0.00264886
-0.00228316
-0.00208654
-0.0019316
-0.00171643
-0.00142842
-0.00110865
-0.00079118
-0.000494268
-0.000230379
-5.57548e-06
0.000180288
0.000330007
0.000447367
0.000536661
0.000602134
0.000647675
0.000676745
0.000692366
0.000697128
0.000693226
0.000682511
0.000666526
0.000646555
0.000623657
0.000598702
0.0005724
0.000545325
0.00051794
0.000490613
0.000463635
0.000437228
0.000411565
0.00038677
0.000362936
0.00034012
0.000318361
0.000297675
0.000278062
0.000259513
0.000242006
0.000225515
0.000210006
0.000195442
0.000181785
0.000168994
0.000157025
0.000145836
0.000135387
0.000125635
0.000116539
0.000108061
0.000100163
9.28085e-05
8.59637e-05
7.95956e-05
7.36735e-05
6.81681e-05
6.30518e-05
5.82988e-05
5.38848e-05
4.97874e-05
4.59858e-05
4.24607e-05
3.91947e-05
3.61709e-05
3.33773e-05
3.07913e-05
2.84293e-05
2.61539e-05
2.2627e-05
2.27466e-05
2.30073e-05
2.34018e-05
2.39334e-05
2.46005e-05
2.54065e-05
2.6356e-05
2.74534e-05
2.87031e-05
3.01105e-05
3.16814e-05
3.34222e-05
3.53399e-05
3.74414e-05
3.97346e-05
4.22272e-05
4.49274e-05
4.78434e-05
5.09832e-05
5.43544e-05
5.79642e-05
6.18187e-05
6.59229e-05
7.02798e-05
7.48905e-05
7.97532e-05
8.48623e-05
9.02073e-05
9.57723e-05
0.000101536
0.000107468
0.000113525
0.000119653
0.000125782
0.000131831
0.000137688
0.00014321
0.000148228
0.00015255
0.000155939
0.000158081
0.000158577
0.000156982
0.000152814
0.000145498
0.000134267
0.000118118
9.58882e-05
6.63584e-05
2.82191e-05
-2.01375e-05
-8.08386e-05
-0.000156502
-0.000249851
-0.000363122
-0.00049766
-0.000654
-0.000831936
-0.00102941
-0.00123978
-0.00144781
-0.00162553
-0.00172957
-0.00170892
-0.00154651
-0.00131709
-0.00116704
-0.00119272
-0.00136307
-0.00156998
-0.00169998
-0.00166845
-0.00144866
-0.00106095
-0.000509825
0.000232884
0.00117989
0.00232198
0.00366275
0.00520498
0.00690978
0.00870274
0.0105159
0.0123095
0.0140595
0.0157439
0.0173464
0.0188611
0.0202856
0.0216172
0.0228517
0.0239824
0.0249996
0.025891
0.0266428
0.0272407
0.0276699
0.0279157
0.0279624
0.0277932
0.0273872
0.0267177
0.025753
0.0244557
0.0227853
0.0207033
0.0181821
0.0152179
0.0118443
0.00814482
0.00425689
0.000365052
-0.00331902
-0.00658482
-0.00925449
-0.0112114
-0.0124144
-0.0128953
-0.0127554
-0.0121603
-0.0112941
-0.01029
-0.00922229
-0.00814442
-0.00708644
-0.00603302
-0.00497328
-0.00396617
-0.00311779
-0.0025149
-0.00218019
-0.00203671
-0.00192736
-0.00172935
-0.00143615
-0.00110489
-0.000776874
-0.000471794
-0.00020305
2.34461e-05
0.000208826
0.000356702
0.000471447
0.000557809
0.000620329
0.000663065
0.000689573
0.000702915
0.000705687
0.000700073
0.000687901
0.000670689
0.000649692
0.000625942
0.000600286
0.00057341
0.00054587
0.000518112
0.000490488
0.000463276
0.000436689
0.00041089
0.000385995
0.00036209
0.000339229
0.000317443
0.000296746
0.000277136
0.000258598
0.000241111
0.000224645
0.000209165
0.000194634
0.000181012
0.000168256
0.000156324
0.000145173
0.000134759
0.000125043
0.000115981
0.000107536
9.96702e-05
9.23465e-05
8.55308e-05
7.91904e-05
7.32945e-05
6.78138e-05
6.27207e-05
5.79894e-05
5.35957e-05
4.9517e-05
4.57327e-05
4.22234e-05
3.89718e-05
3.5961e-05
3.31789e-05
3.06028e-05
2.82492e-05
2.59805e-05
2.24955e-05
2.26145e-05
2.28741e-05
2.32669e-05
2.37961e-05
2.44602e-05
2.52627e-05
2.62082e-05
2.73008e-05
2.85453e-05
2.9947e-05
3.15117e-05
3.3246e-05
3.51568e-05
3.72512e-05
3.9537e-05
4.20221e-05
4.4715e-05
4.7624e-05
5.07573e-05
5.41228e-05
5.77279e-05
6.15793e-05
6.56825e-05
7.0041e-05
7.46566e-05
7.95284e-05
8.46519e-05
9.00174e-05
9.56105e-05
0.000101412
0.000107394
0.000113515
0.000119722
0.000125952
0.000132126
0.000138138
0.000143848
0.000149092
0.000153689
0.000157416
0.000159965
0.00016094
0.000159901
0.000156394
0.000149883
0.000139614
0.000124566
0.000103555
7.53725e-05
3.87514e-05
-7.90575e-06
-6.68354e-05
-0.000140915
-0.000233221
-0.000346331
-0.000481878
-0.000640808
-0.000823725
-0.00102978
-0.00125339
-0.00147946
-0.00167785
-0.00179765
-0.00177296
-0.00157465
-0.00129124
-0.00110811
-0.0011464
-0.00136434
-0.00163
-0.00181059
-0.0018086
-0.00160026
-0.00122183
-0.000682767
5.43492e-05
0.00100404
0.00215218
0.00350723
0.00508035
0.00682906
0.00866609
0.0105148
0.0123358
0.0141079
0.0158087
0.0174224
0.0189451
0.0203766
0.0217154
0.0229584
0.0240991
0.0251279
0.0260321
0.0267977
0.02741
0.0278545
0.0281169
0.0281822
0.0280338
0.0276511
0.0270076
0.0260698
0.0247976
0.0231456
0.0210687
0.0185313
0.0155217
0.0120683
0.00825429
0.004224
0.000175734
-0.00366026
-0.00705362
-0.00980948
-0.0118013
-0.0129869
-0.0134025
-0.0131614
-0.012453
-0.0114878
-0.0104083
-0.00928348
-0.00816626
-0.00708524
-0.00600801
-0.00490753
-0.00385068
-0.00296582
-0.0023587
-0.0020615
-0.00198338
-0.00192898
-0.00174925
-0.00144729
-0.00110129
-0.000760675
-0.000446151
-0.00017203
5.61427e-05
0.000240769
0.00038642
0.000498128
0.000581149
0.000640343
0.000679947
0.00070361
0.000714432
0.000715013
0.000707519
0.00069375
0.000675196
0.000653078
0.0006284
0.00060198
0.00057448
0.000546435
0.000518271
0.000490325
0.000462861
0.00043608
0.000410133
0.000385131
0.000361151
0.000338241
0.000316427
0.00029572
0.000276112
0.000257589
0.000240123
0.000223685
0.000208239
0.000193744
0.00018016
0.000167444
0.000155552
0.000144441
0.000134067
0.00012439
0.000115367
0.000106959
9.9128e-05
9.18382e-05
8.50548e-05
7.87451e-05
7.28781e-05
6.74247e-05
6.23573e-05
5.765e-05
5.32785e-05
4.92205e-05
4.54553e-05
4.19635e-05
3.87277e-05
3.57312e-05
3.29617e-05
3.03965e-05
2.80522e-05
2.57908e-05
2.23522e-05
2.24706e-05
2.27289e-05
2.31199e-05
2.36466e-05
2.43075e-05
2.51061e-05
2.6047e-05
2.71345e-05
2.83734e-05
2.97688e-05
3.13268e-05
3.3054e-05
3.49571e-05
3.70437e-05
3.93214e-05
4.17985e-05
4.44833e-05
4.73845e-05
5.05106e-05
5.38696e-05
5.74695e-05
6.13174e-05
6.54192e-05
6.97792e-05
7.43998e-05
7.92811e-05
8.44198e-05
8.98072e-05
9.54303e-05
0.000101272
0.000107308
0.000113498
0.000119791
0.000126127
0.000132436
0.000138616
0.000144529
0.000150015
0.000154907
0.000159001
0.000161994
0.000163485
0.000163044
0.000160251
0.000154614
0.000145397
0.000131554
0.00011187
8.51527e-05
5.02002e-05
5.44629e-06
-5.14589e-05
-0.000123689
-0.00021473
-0.000327535
-0.000464012
-0.000625515
-0.000813571
-0.0010288
-0.0012671
-0.00151397
-0.00173729
-0.00187777
-0.0018505
-0.00160879
-0.00125746
-0.00103245
-0.00108612
-0.00136126
-0.00169628
-0.0019355
-0.00196539
-0.00176656
-0.00139724
-0.000872772
-0.000142247
0.00081058
0.00196402
0.00333322
0.00494105
0.00674049
0.00862774
0.0105155
0.0123662
0.0141621
0.0158805
0.0175058
0.0190366
0.0204753
0.0218218
0.0230739
0.0242257
0.0252673
0.0261857
0.0269664
0.0275945
0.0280558
0.0283363
0.0284217
0.0282962
0.0279396
0.0273252
0.0264183
0.0251755
0.0235462
0.0214775
0.0189248
0.015867
0.0123259