/*--------------------------------*- C++ -*----------------------------------*\
| =========                 |                                                 |
| \\      /  F ield         | OpenFOAM: The Open Source CFD Toolbox           |
|  \\    /   O peration     | Version:  v2006                                 |
|   \\  /    A nd           | Website:  www.openfoam.com                      |
|    \\/     M anipulation  |                                                 |
\*---------------------------------------------------------------------------*/
FoamFile
{
    version     2.0;
    format      ascii;
    class       volScalarField;
    location    "0";
    object      p;
}
// * * * * * * * * * * * * * * * * * * * * * * * * * * * * * * * * * * * * * //

dimensions      [1 -1 -2 0 0 0 0];


internalField   nonuniform List<scalar> 
20000
(
0.000411973
0.00039547
0.000352433
0.000282258
0.000186818
6.35922e-05
-9.07903e-05
-0.000279521
-0.000505775
-0.000772525
-0.00108206
-0.00143544
-0.00183182
-0.00226895
-0.00274343
-0.00325157
-0.00379286
-0.00437499
-0.0050193
-0.00576385
-0.00665568
-0.00773374
-0.00901536
-0.0104957
-0.0121616
-0.0140019
-0.0160159
-0.018212
-0.0206016
-0.0231915
-0.0259833
-0.0289749
-0.0321605
-0.0355337
-0.0390917
-0.0428395
-0.0467895
-0.0509591
-0.0553677
-0.0600355
-0.064982
-0.0702238
-0.0757721
-0.0816314
-0.0877982
-0.0942599
-0.100993
-0.10796
-0.11511
-0.122376
-0.129672
-0.136896
-0.143933
-0.150648
-0.156894
-0.162513
-0.167344
-0.171226
-0.174006
-0.175548
-0.175742
-0.174509
-0.171815
-0.167673
-0.162146
-0.155353
-0.147456
-0.138658
-0.129193
-0.119305
-0.109242
-0.0992346
-0.0894946
-0.0801933
-0.0714546
-0.0633566
-0.0559349
-0.0491931
-0.0431125
-0.0376622
-0.0328083
-0.028521
-0.0247735
-0.0215324
-0.0187485
-0.0163554
-0.0142774
-0.0124461
-0.0108139
-0.00935421
-0.0080532
-0.00690055
-0.00588625
-0.00499989
-0.00423051
-0.00356661
-0.0029966
-0.00250928
-0.00209415
-0.00174162
-0.00144306
-0.00119082
-0.000978193
-0.00079935
-0.000649252
-0.000523559
-0.000418552
-0.000331053
-0.000258348
-0.000198128
-0.000148427
-0.000107578
-7.41633e-05
-4.69846e-05
-2.50262e-05
-7.42842e-06
6.53494e-06
1.74772e-05
2.59153e-05
3.2285e-05
3.69532e-05
4.02274e-05
4.23654e-05
4.35839e-05
4.40635e-05
4.39553e-05
4.33849e-05
4.24561e-05
4.12551e-05
3.98528e-05
3.83068e-05
3.66641e-05
3.49637e-05
3.32362e-05
3.15063e-05
2.97936e-05
2.81136e-05
2.64779e-05
2.48949e-05
2.33713e-05
2.19111e-05
2.05172e-05
1.9191e-05
1.79329e-05
1.6742e-05
1.56174e-05
1.45573e-05
1.35598e-05
1.26228e-05
1.17438e-05
1.09203e-05
1.01497e-05
9.42958e-06
8.75729e-06
8.13027e-06
7.54582e-06
7.00131e-06
6.49417e-06
6.022e-06
5.58251e-06
5.17355e-06
4.79333e-06
4.44019e-06
4.11253e-06
3.80877e-06
3.52724e-06
3.26612e-06
3.02373e-06
2.79858e-06
2.58941e-06
2.39512e-06
2.2148e-06
2.04761e-06
1.89266e-06
1.74912e-06
1.61613e-06
1.49289e-06
1.37863e-06
1.27266e-06
1.17432e-06
1.08304e-06
9.98245e-07
9.19422e-07
8.46072e-07
7.77721e-07
7.139e-07
6.54162e-07
5.98095e-07
5.45338e-07
4.95599e-07
4.48621e-07
4.04149e-07
3.61911e-07
3.21626e-07
2.83048e-07
2.46019e-07
2.10496e-07
1.76515e-07
1.44257e-07
1.13645e-07
0.000413992
0.000397533
0.000354602
0.000284596
0.000189371
6.63984e-05
-8.7705e-05
-0.000276153
-0.000502151
-0.000768709
-0.00107815
-0.00143162
-0.00182868
-0.00226677
-0.00274155
-0.00324907
-0.00378858
-0.00436786
-0.00500896
-0.00575024
-0.00663909
-0.00771595
-0.00899834
-0.0104809
-0.0121472
-0.0139867
-0.0159991
-0.0181937
-0.0205825
-0.0231726
-0.025965
-0.028957
-0.0321431
-0.0355167
-0.0390744
-0.0428212
-0.0467698
-0.0509377
-0.0553446
-0.0600106
-0.0649557
-0.0701965
-0.0757444
-0.081604
-0.0877719
-0.0942357
-0.100972
-0.107944
-0.1151
-0.122373
-0.12968
-0.136918
-0.143969
-0.150699
-0.156959
-0.162593
-0.167438
-0.171333
-0.174125
-0.175676
-0.175874
-0.174642
-0.171945
-0.167794
-0.162255
-0.155444
-0.147527
-0.138708
-0.129219
-0.11931
-0.109227
-0.0992057
-0.0894543
-0.0801429
-0.0713976
-0.0632963
-0.0558742
-0.0491338
-0.0430558
-0.0376084
-0.0327572
-0.0284725
-0.0247282
-0.0214916
-0.0187136
-0.016327
-0.0142549
-0.0124278
-0.010798
-0.00933978
-0.00803981
-0.00688811
-0.00587475
-0.00498938
-0.00422103
-0.00355816
-0.00298915
-0.00250277
-0.0020885
-0.00173675
-0.00143888
-0.00118724
-0.000975138
-0.00079675
-0.000647043
-0.000521686
-0.000416967
-0.000329714
-0.000257218
-0.000197175
-0.000147626
-0.000106904
-7.35987e-05
-4.65119e-05
-2.46311e-05
-7.09908e-06
6.80863e-06
1.7704e-05
2.61028e-05
3.24394e-05
3.70797e-05
4.03304e-05
4.24489e-05
4.3651e-05
4.41168e-05
4.3997e-05
4.34172e-05
4.24808e-05
4.12734e-05
3.98658e-05
3.83155e-05
3.66694e-05
3.49659e-05
3.32357e-05
3.15039e-05
2.979e-05
2.81092e-05
2.64728e-05
2.48894e-05
2.33654e-05
2.19051e-05
2.05112e-05
1.9185e-05
1.79269e-05
1.67362e-05
1.56117e-05
1.45518e-05
1.35546e-05
1.26178e-05
1.17391e-05
1.09158e-05
1.01454e-05
9.42554e-06
8.75349e-06
8.1267e-06
7.54247e-06
6.99816e-06
6.49121e-06
6.01922e-06
5.57991e-06
5.17111e-06
4.79103e-06
4.43805e-06
4.11056e-06
3.80696e-06
3.52556e-06
3.26458e-06
3.02229e-06
2.79722e-06
2.58813e-06
2.39393e-06
2.2137e-06
2.04658e-06
1.89172e-06
1.74825e-06
1.61533e-06
1.49215e-06
1.37794e-06
1.27202e-06
1.17373e-06
1.0825e-06
9.97747e-07
9.18962e-07
8.4565e-07
7.77334e-07
7.13549e-07
6.53843e-07
5.97801e-07
5.45067e-07
4.9535e-07
4.48396e-07
4.0395e-07
3.61735e-07
3.2147e-07
2.82906e-07
2.45886e-07
2.1037e-07
1.76397e-07
1.44148e-07
1.13574e-07
0.000418025
0.000401653
0.000358937
0.000289266
0.000194473
7.20087e-05
-8.15346e-05
-0.000269414
-0.000494897
-0.000761074
-0.00107037
-0.00142398
-0.0018214
-0.00225997
-0.0027353
-0.00324272
-0.00378068
-0.00435607
-0.00499069
-0.00572399
-0.00660631
-0.0076802
-0.008963
-0.0104472
-0.0121151
-0.0139546
-0.0159657
-0.0181587
-0.0205465
-0.0231363
-0.0259291
-0.0289221
-0.0321093
-0.0354832
-0.03904
-0.0427846
-0.0467302
-0.0508948
-0.0552981
-0.0599608
-0.064903
-0.0701418
-0.0756889
-0.0815491
-0.0877193
-0.0941873
-0.10093
-0.107911
-0.115079
-0.122368
-0.129693
-0.136952
-0.144027
-0.150783
-0.157071
-0.162734
-0.167608
-0.17153
-0.174346
-0.175917
-0.176129
-0.174904
-0.172204
-0.168041
-0.162482
-0.155642
-0.147688
-0.138828
-0.129296
-0.119342
-0.109218
-0.0991598
-0.0893775
-0.0800433
-0.0712837
-0.0631757
-0.0557527
-0.0490153
-0.0429426
-0.0375011
-0.0326551
-0.0283755
-0.0246375
-0.0214099
-0.0186438
-0.0162703
-0.0142099
-0.0123913
-0.0107664
-0.00931102
-0.00801312
-0.00686326
-0.00585177
-0.00496837
-0.00420207
-0.00354127
-0.00297426
-0.00248975
-0.00207721
-0.00172701
-0.00143051
-0.00118008
-0.000969033
-0.000791555
-0.000642631
-0.000517946
-0.000413801
-0.000327038
-0.00025496
-0.000195272
-0.000146024
-0.000105559
-7.24703e-05
-4.55674e-05
-2.3842e-05
-6.44132e-06
7.35542e-06
1.81572e-05
2.64773e-05
3.27477e-05
3.73322e-05
4.05361e-05
4.26154e-05
4.37849e-05
4.42235e-05
4.40811e-05
4.34825e-05
4.25305e-05
4.13102e-05
3.9892e-05
3.83331e-05
3.668e-05
3.49709e-05
3.32363e-05
3.1501e-05
2.97843e-05
2.81013e-05
2.64633e-05
2.48787e-05
2.33539e-05
2.18931e-05
2.0499e-05
1.91727e-05
1.79147e-05
1.67242e-05
1.55999e-05
1.45404e-05
1.35436e-05
1.26073e-05
1.1729e-05
1.09062e-05
1.01364e-05
9.41698e-06
8.74541e-06
8.11907e-06
7.53528e-06
6.99139e-06
6.48484e-06
6.01324e-06
5.5743e-06
5.16587e-06
4.78615e-06
4.43352e-06
4.10638e-06
3.80309e-06
3.52195e-06
3.2612e-06
3.01913e-06
2.79427e-06
2.58538e-06
2.39137e-06
2.21133e-06
2.0444e-06
1.8897e-06
1.74638e-06
1.6136e-06
1.49054e-06
1.37646e-06
1.27064e-06
1.17246e-06
1.08132e-06
9.96657e-07
9.17953e-07
8.44717e-07
7.76474e-07
7.12757e-07
6.53113e-07
5.97128e-07
5.44449e-07
4.94786e-07
4.47886e-07
4.03492e-07
3.61327e-07
3.21104e-07
2.82579e-07
2.45595e-07
2.10113e-07
1.76175e-07
1.43962e-07
1.13436e-07
0.000424061
0.000407822
0.000365428
0.000296261
0.000202117
8.04188e-05
-7.22793e-05
-0.000259298
-0.000484
-0.000749594
-0.00105864
-0.00141245
-0.00181056
-0.00225017
-0.00272644
-0.00323378
-0.0037693
-0.00433854
-0.00496292
-0.00568407
-0.00655652
-0.00762615
-0.00891003
-0.0103975
-0.0120678
-0.0139072
-0.0159159
-0.0181061
-0.0204922
-0.0230816
-0.025875
-0.0288694
-0.0320584
-0.0354329
-0.0389884
-0.0427297
-0.0466709
-0.0508304
-0.0552285
-0.059886
-0.0648238
-0.0700596
-0.0756055
-0.0814665
-0.08764
-0.0941144
-0.100867
-0.107862
-0.115048
-0.12236
-0.129712
-0.137003
-0.144114
-0.15091
-0.157241
-0.162947
-0.167864
-0.171828
-0.17468
-0.176281
-0.176514
-0.175298
-0.172594
-0.168414
-0.162822
-0.155938
-0.14793
-0.139008
-0.129409
-0.119389
-0.109202
-0.099088
-0.08926
-0.0798923
-0.0711118
-0.062994
-0.0555699
-0.0488373
-0.0427727
-0.03734
-0.032502
-0.0282297
-0.0245012
-0.0212871
-0.0185389
-0.0161854
-0.0141429
-0.0123368
-0.0107192
-0.00926797
-0.00797307
-0.00682597
-0.00581727
-0.00493684
-0.00417363
-0.00351594
-0.00295193
-0.00247025
-0.0020603
-0.00171242
-0.00141799
-0.00116937
-0.000959891
-0.000783776
-0.000636025
-0.000512346
-0.000409062
-0.000323033
-0.00025158
-0.000192424
-0.000143628
-0.000103545
-7.07817e-05
-4.41538e-05
-2.26613e-05
-5.45722e-06
8.17365e-06
1.88354e-05
2.70375e-05
3.32088e-05
3.77099e-05
4.08439e-05
4.28646e-05
4.39851e-05
4.4383e-05
4.42066e-05
4.35797e-05
4.26044e-05
4.1365e-05
3.9931e-05
3.83593e-05
3.66957e-05
3.49783e-05
3.3237e-05
3.14965e-05
2.97756e-05
2.80894e-05
2.6449e-05
2.48627e-05
2.33367e-05
2.18752e-05
2.04807e-05
1.91543e-05
1.78964e-05
1.67061e-05
1.55824e-05
1.45234e-05
1.35273e-05
1.25916e-05
1.17141e-05
1.0892e-05
1.01229e-05
9.40426e-06
8.7334e-06
8.10773e-06
7.52457e-06
6.98131e-06
6.47536e-06
6.00433e-06
5.56595e-06
5.15809e-06
4.77891e-06
4.42682e-06
4.10018e-06
3.79733e-06
3.51658e-06
3.25617e-06
3.01442e-06
2.78987e-06
2.58129e-06
2.38758e-06
2.20783e-06
2.04116e-06
1.88671e-06
1.74361e-06
1.61103e-06
1.48816e-06
1.37425e-06
1.2686e-06
1.17057e-06
1.07957e-06
9.95036e-07
9.16451e-07
8.43326e-07
7.75189e-07
7.11571e-07
6.5202e-07
5.96122e-07
5.43526e-07
4.93944e-07
4.47124e-07
4.02807e-07
3.60713e-07
3.20557e-07
2.82094e-07
2.4517e-07
2.09748e-07
1.75867e-07
1.43711e-07
1.13235e-07
0.000432085
0.000416023
0.00037406
0.000305567
0.000212292
9.16223e-05
-5.99395e-05
-0.000245799
-0.000469441
-0.000734239
-0.00104294
-0.00139702
-0.00179607
-0.00223714
-0.00271476
-0.00322214
-0.00375455
-0.00431559
-0.0049261
-0.00563057
-0.0064895
-0.00755349
-0.00883914
-0.0103313
-0.0120048
-0.013844
-0.0158495
-0.0180358
-0.0204196
-0.0230086
-0.0258028
-0.0287992
-0.0319906
-0.0353661
-0.0389198
-0.0426567
-0.0465919
-0.0507447
-0.0551356
-0.0597862
-0.0647181
-0.0699499
-0.075494
-0.0813561
-0.087534
-0.0940167
-0.100782
-0.107795
-0.115006
-0.122348
-0.129737
-0.137071
-0.14423
-0.151079
-0.157466
-0.163231
-0.168207
-0.172225
-0.175127
-0.176768
-0.177028
-0.175825
-0.173116
-0.168912
-0.163279
-0.156335
-0.148254
-0.139247
-0.12956
-0.119451
-0.10918
-0.0989911
-0.0891019
-0.0796894
-0.0708811
-0.0627506
-0.0553253
-0.0485995
-0.042546
-0.0371254
-0.0322978
-0.0280352
-0.0243189
-0.0211229
-0.0183989
-0.0160725
-0.0140542
-0.0122649
-0.0106567
-0.00921075
-0.00791976
-0.00677627
-0.00577127
-0.00489478
-0.00413572
-0.00348218
-0.0029222
-0.00244428
-0.00203778
-0.001693
-0.00140132
-0.00115511
-0.000947733
-0.000773431
-0.000627241
-0.0005049
-0.000402761
-0.000317708
-0.000247086
-0.000188637
-0.000140442
-0.000100869
-6.85372e-05
-4.22751e-05
-2.10919e-05
-4.14932e-06
9.26095e-06
1.97367e-05
2.7782e-05
3.38213e-05
3.82116e-05
4.12527e-05
4.31955e-05
4.42509e-05
4.45946e-05
4.43731e-05
4.37087e-05
4.27025e-05
4.14375e-05
3.99826e-05
3.83938e-05
3.67164e-05
3.49878e-05
3.32377e-05
3.14902e-05
2.97638e-05
2.80733e-05
2.64297e-05
2.48412e-05
2.33137e-05
2.18512e-05
2.04562e-05
1.91297e-05
1.78719e-05
1.66821e-05
1.55589e-05
1.45007e-05
1.35054e-05
1.25707e-05
1.16941e-05
1.08731e-05
1.0105e-05
9.38728e-06
8.71736e-06
8.09259e-06
7.51029e-06
6.96785e-06
6.46271e-06
5.99244e-06
5.55482e-06
5.14771e-06
4.76928e-06
4.41789e-06
4.09191e-06
3.78964e-06
3.5094e-06
3.24946e-06
3.00814e-06
2.78401e-06
2.57583e-06
2.38253e-06
2.20316e-06
2.03684e-06
1.88271e-06
1.73991e-06
1.6076e-06
1.48498e-06
1.3713e-06
1.26587e-06
1.16804e-06
1.07723e-06
9.92871e-07
9.14444e-07
8.41469e-07
7.73472e-07
7.09987e-07
6.5056e-07
5.94778e-07
5.42294e-07
4.92822e-07
4.46107e-07
4.01891e-07
3.59892e-07
3.19826e-07
2.8145e-07
2.44609e-07
2.09267e-07
1.75465e-07
1.43383e-07
1.12968e-07
0.000442078
0.000426236
0.000384813
0.000317168
0.000224985
0.00010561
-4.45161e-05
-0.000228904
-0.000451195
-0.000714967
-0.0010232
-0.00137762
-0.0017779
-0.00222089
-0.00270042
-0.00320814
-0.00373692
-0.0042877
-0.00488039
-0.00556318
-0.00640459
-0.00746165
-0.0087501
-0.0102487
-0.0119266
-0.0137655
-0.0157666
-0.0179478
-0.0203287
-0.0229171
-0.0257124
-0.0287114
-0.0319061
-0.035283
-0.0388345
-0.0425658
-0.0464933
-0.0506376
-0.0550195
-0.0596612
-0.0645856
-0.0698123
-0.0753542
-0.0812175
-0.0874007
-0.0938938
-0.100676
-0.107712
-0.114953
-0.122332
-0.129767
-0.137155
-0.144375
-0.15129
-0.157748
-0.163587
-0.168635
-0.172723
-0.175687
-0.177378
-0.177674
-0.176487
-0.173772
-0.169539
-0.163852
-0.156834
-0.14866
-0.139548
-0.129749
-0.119528
-0.10915
-0.0988677
-0.0889016
-0.0794331
-0.0705903
-0.0624445
-0.0550183
-0.0483014
-0.0422625
-0.0368573
-0.0320425
-0.0277915
-0.0240902
-0.0209167
-0.0182236
-0.0159319
-0.0139444
-0.012176
-0.0105792
-0.00913952
-0.00785321
-0.00671414
-0.00571374
-0.00484218
-0.00408831
-0.00344
-0.00288506
-0.00241187
-0.00200969
-0.00166879
-0.00138054
-0.00113734
-0.000932582
-0.000760542
-0.000616298
-0.000495625
-0.000394912
-0.000311076
-0.00024149
-0.000183922
-0.000136475
-9.75368e-05
-6.5743e-05
-3.99363e-05
-1.91384e-05
-2.52132e-06
1.06142e-05
2.08582e-05
2.87083e-05
3.45834e-05
3.88357e-05
4.1761e-05
4.3607e-05
4.45814e-05
4.48575e-05
4.45799e-05
4.38689e-05
4.28241e-05
4.15274e-05
4.00464e-05
3.84363e-05
3.67418e-05
3.49994e-05
3.32383e-05
3.14821e-05
2.97489e-05
2.80531e-05
2.64056e-05
2.48142e-05
2.32849e-05
2.18212e-05
2.04256e-05
1.90989e-05
1.78413e-05
1.6652e-05
1.55296e-05
1.44723e-05
1.34781e-05
1.25446e-05
1.16692e-05
1.08494e-05
1.00825e-05
9.36606e-06
8.69732e-06
8.07367e-06
7.49244e-06
6.95103e-06
6.44689e-06
5.97759e-06
5.54093e-06
5.13476e-06
4.75725e-06
4.40675e-06
4.08157e-06
3.78003e-06
3.50043e-06
3.24106e-06
3.00029e-06
2.77669e-06
2.56903e-06
2.37622e-06
2.19733e-06
2.03145e-06
1.87772e-06
1.73529e-06
1.60331e-06
1.481e-06
1.36762e-06
1.26246e-06
1.16489e-06
1.07431e-06
9.90165e-07
9.11938e-07
8.39148e-07
7.71327e-07
7.08008e-07
6.48735e-07
5.931e-07
5.40756e-07
4.9142e-07
4.44837e-07
4.00746e-07
3.58866e-07
3.18914e-07
2.80646e-07
2.43912e-07
2.08673e-07
1.74969e-07
1.42978e-07
1.12639e-07
0.000454013
0.000438438
0.000397665
0.00033104
0.000240178
0.000122371
-2.60109e-05
-0.000208603
-0.000429232
-0.000691728
-0.000999374
-0.00135418
-0.00175599
-0.00220147
-0.00268359
-0.00319215
-0.00371697
-0.00425547
-0.00482605
-0.00548147
-0.00630092
-0.00734987
-0.00864263
-0.0101499
-0.0118336
-0.013672
-0.0156672
-0.0178418
-0.0202191
-0.022807
-0.0256035
-0.028606
-0.0318051
-0.035184
-0.0387326
-0.042457
-0.0463753
-0.0505092
-0.0548801
-0.059511
-0.0644263
-0.0696466
-0.0751858
-0.0810503
-0.0872398
-0.0937452
-0.100546
-0.10761
-0.114887
-0.122312
-0.129802
-0.137253
-0.144546
-0.151542
-0.158086
-0.164013
-0.16915
-0.173322
-0.176361
-0.178114
-0.178453
-0.177285
-0.174564
-0.170295
-0.164544
-0.157436
-0.149149
-0.13991
-0.129975
-0.119618
-0.109113
-0.0987163
-0.0886574
-0.0791214
-0.0702377
-0.0620743
-0.054648
-0.0479427
-0.0419221
-0.0365358
-0.0317362
-0.0274984
-0.0238144
-0.020668
-0.0180125
-0.0157639
-0.0138143
-0.0120709
-0.0104871
-0.00905446
-0.00777349
-0.00663959
-0.00564464
-0.00477902
-0.00403143
-0.00338942
-0.00284056
-0.00237305
-0.00197606
-0.00163982
-0.00135569
-0.0011161
-0.00091447
-0.000745138
-0.000603222
-0.000484544
-0.000385536
-0.000303153
-0.000234806
-0.000178291
-0.000131737
-9.35573e-05
-6.24063e-05
-3.71437e-05
-1.6806e-05
-5.77762e-07
1.22295e-05
2.21968e-05
2.98137e-05
3.54927e-05
3.95802e-05
4.23673e-05
4.40975e-05
4.49752e-05
4.51708e-05
4.48261e-05
4.40595e-05
4.29687e-05
4.16341e-05
4.0122e-05
3.84866e-05
3.67716e-05
3.50128e-05
3.32385e-05
3.14719e-05
2.97306e-05
2.80286e-05
2.63764e-05
2.47817e-05
2.32501e-05
2.17851e-05
2.03887e-05
1.90618e-05
1.78045e-05
1.66158e-05
1.54943e-05
1.44382e-05
1.34453e-05
1.25132e-05
1.16393e-05
1.0821e-05
1.00556e-05
9.34059e-06
8.67326e-06
8.05096e-06
7.47102e-06
6.93085e-06
6.42792e-06
5.95979e-06
5.52427e-06
5.11924e-06
4.74284e-06
4.39338e-06
4.06917e-06
3.76849e-06
3.48965e-06
3.23098e-06
2.99088e-06
2.76791e-06
2.56087e-06
2.36867e-06
2.19034e-06
2.02498e-06
1.87174e-06
1.72974e-06
1.59817e-06
1.47624e-06
1.3632e-06
1.25838e-06
1.16111e-06
1.07081e-06
9.86921e-07
9.08932e-07
8.36366e-07
7.68756e-07
7.05634e-07
6.46547e-07
5.91088e-07
5.38914e-07
4.89741e-07
4.43314e-07
3.99373e-07
3.57636e-07
3.17821e-07
2.79686e-07
2.43079e-07
2.07964e-07
1.74378e-07
1.42496e-07
1.12246e-07
0.00046786
0.000452596
0.000412584
0.000347158
0.000257847
0.000141889
-4.42687e-06
-0.000184879
-0.000403513
-0.000664457
-0.000971359
-0.00132661
-0.00173027
-0.00217888
-0.00266446
-0.00317461
-0.00369542
-0.00421967
-0.00476342
-0.00538495
-0.00617738
-0.00721724
-0.0085164
-0.0100348
-0.0117261
-0.0135637
-0.0155514
-0.0177176
-0.0200908
-0.022678
-0.0254761
-0.028483
-0.0316877
-0.0350693
-0.0386147
-0.0423306
-0.0462378
-0.0503595
-0.0547174
-0.0593354
-0.0642397
-0.0694526
-0.0749884
-0.0808542
-0.0870507
-0.0935701
-0.100394
-0.107489
-0.114808
-0.122286
-0.12984
-0.137367
-0.144745
-0.151835
-0.15848
-0.164511
-0.169752
-0.174023
-0.17715
-0.178976
-0.179366
-0.178222
-0.175493
-0.171183
-0.165357
-0.158142
-0.149724
-0.140334
-0.130239
-0.119722
-0.109066
-0.0985351
-0.0883669
-0.078752
-0.0698212
-0.0616385
-0.0542132
-0.0475226
-0.0415246
-0.0361612
-0.0313791
-0.0271554
-0.0234907
-0.0203758
-0.0177655
-0.0155689
-0.013665
-0.0119507
-0.0103811
-0.00895578
-0.00768064
-0.00655259
-0.00556395
-0.00470528
-0.00396505
-0.00333046
-0.00278873
-0.00232788
-0.00193695
-0.00160614
-0.00132681
-0.00109142
-0.000893437
-0.000727253
-0.000588042
-0.000471682
-0.000374654
-0.00029396
-0.00022705
-0.000171757
-0.000126241
-8.89412e-05
-5.85361e-05
-3.3905e-05
-1.41012e-05
1.67584e-06
1.41023e-05
2.37484e-05
3.10949e-05
3.65463e-05
4.04427e-05
4.30694e-05
4.46655e-05
4.54311e-05
4.55331e-05
4.51107e-05
4.42796e-05
4.31355e-05
4.1757e-05
4.02089e-05
3.85441e-05
3.68054e-05
3.50276e-05
3.32382e-05
3.14595e-05
2.97088e-05
2.79996e-05
2.6342e-05
2.47436e-05
2.32094e-05
2.17427e-05
2.03456e-05
1.90185e-05
1.77615e-05
1.65736e-05
1.54532e-05
1.43984e-05
1.34071e-05
1.24766e-05
1.16044e-05
1.07878e-05
1.00242e-05
9.31087e-06
8.64518e-06
8.02447e-06
7.44604e-06
6.90732e-06
6.4058e-06
5.93903e-06
5.50485e-06
5.10116e-06
4.72605e-06
4.37781e-06
4.05471e-06
3.75503e-06
3.47708e-06
3.21923e-06
2.9799e-06
2.75768e-06
2.55137e-06
2.35986e-06
2.18219e-06
2.01745e-06
1.86476e-06
1.72328e-06
1.59218e-06
1.47068e-06
1.35806e-06
1.25362e-06
1.15671e-06
1.06673e-06
9.83139e-07
9.05429e-07
8.33124e-07
7.65759e-07
7.02867e-07
6.43997e-07
5.88745e-07
5.36768e-07
4.87784e-07
4.4154e-07
3.97773e-07
3.56203e-07
3.16548e-07
2.78568e-07
2.42111e-07
2.07141e-07
1.73693e-07
1.41936e-07
1.11792e-07
0.000483583
0.000468676
0.000429538
0.000365489
0.000277967
0.000164147
2.02316e-05
-0.000157718
-0.000373997
-0.000633079
-0.000939053
-0.00129477
-0.00170065
-0.00215313
-0.00264325
-0.00315607
-0.00367315
-0.0041813
-0.00469292
-0.00527298
-0.00603268
-0.00706261
-0.00837103
-0.00990416
-0.0116047
-0.0134413
-0.0154191
-0.017575
-0.0199434
-0.0225301
-0.0253299
-0.0283422
-0.0315543
-0.0349394
-0.0384809
-0.0421869
-0.0460811
-0.0501886
-0.0545314
-0.0591343
-0.0640258
-0.0692299
-0.0747616
-0.0806285
-0.0868327
-0.0933679
-0.100217
-0.107348
-0.114715
-0.122253
-0.129881
-0.137494
-0.14497
-0.152168
-0.158929
-0.16508
-0.170441
-0.174826
-0.178057
-0.179967
-0.180417
-0.179302
-0.176565
-0.172207
-0.166294
-0.158957
-0.150385
-0.140821
-0.130541
-0.119839
-0.109007
-0.0983218
-0.0880275
-0.0783222
-0.0693386
-0.0611354
-0.0537128
-0.0470406
-0.0410701
-0.0357338
-0.0309711
-0.0267621
-0.0231182
-0.0200392
-0.017482
-0.0153476
-0.0134976
-0.0118164
-0.0102617
-0.0088437
-0.00757473
-0.00645313
-0.00547161
-0.00462091
-0.00388919
-0.00326313
-0.0027296
-0.00227639
-0.00189241
-0.00156781
-0.00129396
-0.00106335
-0.000869527
-0.000706926
-0.000570794
-0.000457069
-0.000362293
-0.000283519
-0.000218242
-0.000164338
-0.00012
-8.37006e-05
-5.41428e-05
-3.02288e-05
-1.10315e-05
4.23312e-06
1.62271e-05
2.55085e-05
3.25478e-05
3.7741e-05
4.14203e-05
4.3865e-05
4.53088e-05
4.59471e-05
4.59431e-05
4.54325e-05
4.45283e-05
4.33237e-05
4.18954e-05
4.03064e-05
3.86084e-05
3.68429e-05
3.50435e-05
3.32369e-05
3.14446e-05
2.96833e-05
2.7966e-05
2.63024e-05
2.46997e-05
2.31626e-05
2.16941e-05
2.02961e-05
1.89689e-05
1.77123e-05
1.65252e-05
1.54061e-05
1.43529e-05
1.33633e-05
1.24347e-05
1.15645e-05
1.07499e-05
9.98826e-06
9.2769e-06
8.6131e-06
7.99419e-06
7.4175e-06
6.88045e-06
6.38053e-06
5.91534e-06
5.4827e-06
5.08052e-06
4.70689e-06
4.36002e-06
4.03819e-06
3.73965e-06
3.46272e-06
3.20581e-06
2.96737e-06
2.74601e-06
2.54053e-06
2.34982e-06
2.17289e-06
2.00885e-06
1.8568e-06
1.7159e-06
1.58534e-06
1.46435e-06
1.35219e-06
1.24818e-06
1.15168e-06
1.06207e-06
9.78822e-07
9.0143e-07
8.29424e-07
7.62339e-07
6.9971e-07
6.41088e-07
5.86071e-07
5.34319e-07
4.85552e-07
4.39515e-07
3.95947e-07
3.54568e-07
3.15096e-07
2.77293e-07
2.41009e-07
2.06204e-07
1.72913e-07
1.413e-07
1.11278e-07
0.000501141
0.000486636
0.000448487
0.000385997
0.000300505
0.000189122
4.79577e-05
-0.000127103
-0.000340634
-0.000597508
-0.000902329
-0.00125853
-0.00166699
-0.0021242
-0.00262017
-0.00313713
-0.00365126
-0.00414159
-0.00461516
-0.00514473
-0.00586505
-0.00688459
-0.00820607
-0.00975814
-0.0114704
-0.0133053
-0.0152705
-0.0174136
-0.0197767
-0.0223628
-0.0251645
-0.0281835
-0.0314052
-0.034795
-0.0383319
-0.042026
-0.0459053
-0.0499967
-0.0543221
-0.0589074
-0.0637841
-0.0689781
-0.0745049
-0.0803728
-0.0865852
-0.0931377
-0.100015
-0.107186
-0.114607
-0.122213
-0.129923
-0.137634
-0.145221
-0.152541
-0.159433
-0.165721
-0.171218
-0.175734
-0.179082
-0.18109
-0.181608
-0.180526
-0.177781
-0.17337
-0.167358
-0.159881
-0.151135
-0.141372
-0.130881
-0.119967
-0.108936
-0.0980739
-0.087636
-0.0778287
-0.0687869
-0.0605627
-0.0531453
-0.0464958
-0.0405586
-0.0352543
-0.0305126
-0.0263179
-0.0226955
-0.0196567
-0.0171615
-0.0151007
-0.0133139
-0.0116694
-0.0101295
-0.00871842
-0.00745576
-0.00634113
-0.00536754
-0.00452588
-0.00380384
-0.00318747
-0.00266323
-0.00221864
-0.0018425
-0.00152489
-0.00125719
-0.00103196
-0.000842791
-0.000684203
-0.000551517
-0.000440742
-0.000348483
-0.000271855
-0.000208405
-0.000156052
-0.000113032
-7.78494e-05
-4.9238e-05
-2.61253e-05
-7.60538e-06
7.08685e-06
1.85977e-05
2.74719e-05
3.41682e-05
3.90729e-05
4.25099e-05
4.47515e-05
4.60252e-05
4.65215e-05
4.63992e-05
4.57902e-05
4.48044e-05
4.35322e-05
4.20484e-05
4.0414e-05
3.8679e-05
3.68835e-05
3.50601e-05
3.32343e-05
3.1427e-05
2.96539e-05
2.79276e-05
2.62574e-05
2.46499e-05
2.31096e-05
2.16392e-05
2.02402e-05
1.89128e-05
1.76568e-05
1.64708e-05
1.53531e-05
1.43017e-05
1.3314e-05
1.23876e-05
1.15195e-05
1.07072e-05
9.94784e-06
9.23868e-06
8.577e-06
7.96014e-06
7.38541e-06
6.85024e-06
6.35213e-06
5.88872e-06
5.45781e-06
5.05734e-06
4.68535e-06
4.34003e-06
4.01961e-06
3.72234e-06
3.44657e-06
3.19072e-06
2.95329e-06
2.73291e-06
2.52835e-06
2.33854e-06
2.16245e-06
1.99918e-06
1.84785e-06
1.7076e-06
1.57765e-06
1.45722e-06
1.34559e-06
1.24208e-06
1.14602e-06
1.05684e-06
9.73972e-07
8.96938e-07
8.25268e-07
7.58497e-07
6.96164e-07
6.3782e-07
5.83068e-07
5.3157e-07
4.83046e-07
4.37242e-07
3.93896e-07
3.52731e-07
3.13466e-07
2.75863e-07
2.39773e-07
2.05155e-07
1.72041e-07
1.40588e-07
1.10704e-07
0.000520486
0.000506431
0.000469384
0.000408639
0.000325425
0.000216789
7.87417e-05
-9.30185e-05
-0.000303372
-0.000557642
-0.000861037
-0.00121769
-0.00162913
-0.00209203
-0.00259544
-0.00311851
-0.00363104
-0.00410216
-0.00453086
-0.00499913
-0.00567223
-0.00668145
-0.0080211
-0.00959722
-0.0113239
-0.0131566
-0.0151054
-0.0172327
-0.0195902
-0.0221761
-0.0249795
-0.0280068
-0.0312408
-0.0346367
-0.0381683
-0.0418483
-0.0457104
-0.0497838
-0.0540894
-0.0586544
-0.0635142
-0.0686968
-0.0742178
-0.0800862
-0.0863073
-0.0928786
-0.0997861
-0.107002
-0.114482
-0.122164
-0.129966
-0.137785
-0.145495
-0.152953
-0.159992
-0.166432
-0.172083
-0.176746
-0.180228
-0.182346
-0.182943
-0.181899
-0.179145
-0.174675
-0.168553
-0.160918
-0.151975
-0.141988
-0.131258
-0.120106
-0.10885
-0.0977883
-0.0871888
-0.0772678
-0.0681629
-0.0599183
-0.0525092
-0.0458874
-0.0399902
-0.0347234
-0.0300038
-0.0258221
-0.0222213
-0.0192267
-0.016803
-0.0148291
-0.0131159
-0.0115114
-0.00998539
-0.00858014
-0.00732376
-0.00621653
-0.00525166
-0.00442014
-0.00370899
-0.00310351
-0.00258967
-0.00215472
-0.0017873
-0.00147746
-0.00121659
-0.000997306
-0.000813287
-0.000659136
-0.000530256
-0.000422737
-0.000333258
-0.000258998
-0.000197562
-0.000146921
-0.000105354
-7.14029e-05
-4.38349e-05
-2.16054e-05
-3.83237e-06
1.0229e-05
2.12074e-05
2.96327e-05
3.59511e-05
4.05379e-05
4.3708e-05
4.57258e-05
4.68123e-05
4.71522e-05
4.68995e-05
4.61822e-05
4.51065e-05
4.37601e-05
4.22152e-05
4.05308e-05
3.87551e-05
3.69267e-05
3.50769e-05
3.32302e-05
3.14062e-05
2.96203e-05
2.78842e-05
2.62067e-05
2.45941e-05
2.30504e-05
2.15779e-05
2.01778e-05
1.88504e-05
1.75949e-05
1.64101e-05
1.52941e-05
1.42447e-05
1.32593e-05
1.23352e-05
1.14696e-05
1.06598e-05
9.90291e-06
9.19621e-06
8.5369e-06
7.92232e-06
7.34977e-06
6.81669e-06
6.32062e-06
5.85917e-06
5.4302e-06
5.03162e-06
4.66145e-06
4.31784e-06
3.99898e-06
3.70313e-06
3.42864e-06
3.17398e-06
2.93767e-06
2.71837e-06
2.51485e-06
2.32602e-06
2.15087e-06
1.98846e-06
1.83791e-06
1.6984e-06
1.56912e-06
1.44932e-06
1.33828e-06
1.2353e-06
1.13975e-06
1.05103e-06
9.68591e-07
8.91956e-07
8.20658e-07
7.54237e-07
6.92231e-07
6.34196e-07
5.79738e-07
5.28522e-07
4.80267e-07
4.34721e-07
3.91622e-07
3.50695e-07
3.11659e-07
2.74279e-07
2.38404e-07
2.03994e-07
1.71076e-07
1.39802e-07
1.1007e-07
0.000541568
0.000528008
0.000492179
0.000433367
0.000352685
0.000247115
0.00011257
-5.54486e-05
-0.000262154
-0.000513371
-0.000815004
-0.00117204
-0.00158685
-0.00205651
-0.00256928
-0.00310097
-0.00361407
-0.00406502
-0.00444107
-0.00483485
-0.0054514
-0.00645116
-0.00781564
-0.00942208
-0.0111668
-0.0129961
-0.0149239
-0.0170319
-0.0193838
-0.0219695
-0.0247744
-0.0278119
-0.0310617
-0.0344654
-0.0379905
-0.0416541
-0.0454968
-0.0495501
-0.0538334
-0.0583752
-0.0632157
-0.0683855
-0.0738998
-0.0797682
-0.0859981
-0.0925894
-0.0995301
-0.106794
-0.114339
-0.122104
-0.130008
-0.137946
-0.145793
-0.153402
-0.160605
-0.167216
-0.173037
-0.177865
-0.181496
-0.183738
-0.184424
-0.183425
-0.180663
-0.176128
-0.169883
-0.162071
-0.152909
-0.14267
-0.131673
-0.120254
-0.108746
-0.0974616
-0.0866816
-0.076635
-0.0674629
-0.0591994
-0.0518026
-0.0452143
-0.0393651
-0.0341422
-0.0294454
-0.0252739
-0.0216935
-0.0187469
-0.0164056
-0.0145341
-0.0129062
-0.0113444
-0.00983006
-0.00842903
-0.00717868
-0.00607921
-0.00512385
-0.00430362
-0.00360464
-0.00301129
-0.00250899
-0.0020847
-0.00172689
-0.00142559
-0.00117222
-0.000959459
-0.00078108
-0.00063178
-0.000507061
-0.000403099
-0.000316655
-0.000244979
-0.000185742
-0.000136968
-9.69857e-05
-6.43782e-05
-3.79481e-05
-1.66817e-05
2.7705e-07
1.36506e-05
2.40486e-05
3.19846e-05
3.78911e-05
4.21314e-05
4.50107e-05
4.67846e-05
4.76671e-05
4.78366e-05
4.7442e-05
4.66067e-05
4.54333e-05
4.40061e-05
4.23947e-05
4.06559e-05
3.8836e-05
3.6972e-05
3.50936e-05
3.3224e-05
3.13821e-05
2.95822e-05
2.78355e-05
2.61503e-05
2.45321e-05
2.29847e-05
2.151e-05
2.01089e-05
1.87814e-05
1.75267e-05
1.63433e-05
1.52292e-05
1.41819e-05
1.3199e-05
1.22775e-05
1.14146e-05
1.06076e-05
9.85348e-06
9.14948e-06
8.49279e-06
7.88072e-06
7.3106e-06
6.77983e-06
6.28599e-06
5.82673e-06
5.39989e-06
5.00338e-06
4.6352e-06
4.29345e-06
3.97629e-06
3.682e-06
3.40893e-06
3.15558e-06
2.92052e-06
2.70241e-06
2.50003e-06
2.31229e-06
2.13815e-06
1.97668e-06
1.82701e-06
1.6883e-06
1.55976e-06
1.44065e-06
1.33025e-06
1.22787e-06
1.13286e-06
1.04465e-06
9.62682e-07
8.86485e-07
8.15597e-07
7.49559e-07
6.87913e-07
6.30218e-07
5.76083e-07
5.25176e-07
4.77217e-07
4.31954e-07
3.89127e-07
3.4846e-07
3.09676e-07
2.72541e-07
2.36903e-07
2.02721e-07
1.70019e-07
1.38942e-07
1.09379e-07
0.000564328
0.000551309
0.000516816
0.000460127
0.000382236
0.000280063
0.000149425
-1.43803e-05
-0.00021692
-0.000464571
-0.000764031
-0.00112131
-0.00153986
-0.00201749
-0.00254186
-0.00308539
-0.00360222
-0.00403271
-0.00434713
-0.00465014
-0.00519904
-0.00619127
-0.00758916
-0.00923357
-0.0110005
-0.0128252
-0.0147256
-0.0168101
-0.0191569
-0.0217427
-0.0245483
-0.0275986
-0.0308686
-0.0342822
-0.0377996
-0.0414437
-0.0452644
-0.0492958
-0.053554
-0.0580694
-0.0628882
-0.0680437
-0.0735501
-0.0794179
-0.0856566
-0.092269
-0.0992452
-0.106561
-0.114177
-0.122032
-0.130046
-0.138116
-0.146113
-0.153889
-0.161271
-0.16807
-0.174081
-0.179091
-0.182889
-0.18527
-0.186057
-0.185109
-0.18234
-0.177733
-0.171352
-0.163345
-0.153938
-0.14342
-0.132126
-0.120411
-0.108623
-0.0970901
-0.0861097
-0.0759254
-0.0666829
-0.0584034
-0.0510235
-0.0444754
-0.038684
-0.0335122
-0.028838
-0.0246723
-0.02111
-0.0182148
-0.0159679
-0.0142171
-0.012688
-0.0111708
-0.00966432
-0.00826517
-0.00702044
-0.00592898
-0.00498395
-0.00417626
-0.0034908
-0.00291085
-0.00242126
-0.00200866
-0.00166137
-0.00136939
-0.00112417
-0.000918499
-0.000746238
-0.000602199
-0.000481985
-0.000381874
-0.000298714
-0.000229834
-0.000172973
-0.000126219
-8.79494e-05
-5.67938e-05
-3.15934e-05
-1.13676e-05
4.71143e-06
1.73419e-05
2.71129e-05
3.45206e-05
3.99821e-05
4.38484e-05
4.64137e-05
4.79244e-05
4.85866e-05
4.85724e-05
4.80246e-05
4.70621e-05
4.57832e-05
4.42689e-05
4.25859e-05