/*--------------------------------*- C++ -*----------------------------------*\
| =========                 |                                                 |
| \\      /  F ield         | OpenFOAM: The Open Source CFD Toolbox           |
|  \\    /   O peration     | Version:  v2006                                 |
|   \\  /    A nd           | Website:  www.openfoam.com                      |
|    \\/     M anipulation  |                                                 |
\*---------------------------------------------------------------------------*/
FoamFile
{
    version     2.0;
    format      ascii;
    class       volScalarField;
    location    "14.3";
    object      p_rgh;
}
// * * * * * * * * * * * * * * * * * * * * * * * * * * * * * * * * * * * * * //

dimensions      [1 -1 -2 0 0 0 0];


internalField   nonuniform List<scalar> 
50000
(
2619.2
2619.29
2619.44
2619.65
2619.93
2620.28
2620.72
2621.23
2621.82
2622.49
2623.24
2624.08
2625
2626.01
2627.11
2628.3
2629.58
2630.95
2632.41
2633.96
2635.6
2637.33
2639.16
2641.08
2643.08
2645.18
2647.36
2649.63
2651.98
2654.42
2656.94
2659.54
2662.21
2664.96
2667.79
2670.68
2673.63
2676.66
2679.74
2682.88
2686.08
2689.33
2692.63
2695.98
2699.37
2702.8
2706.27
2709.77
2713.31
2716.87
2720.46
2724.08
2727.71
2731.37
2735.04
2738.73
2742.42
2746.13
2749.84
2753.56
2757.29
2761.01
2764.74
2768.46
2772.18
2775.89
2779.6
2783.3
2786.99
2790.67
2794.34
2798
2801.64
2805.27
2808.89
2812.48
2816.07
2819.63
2823.17
2826.7
2830.21
2833.69
2837.16
2840.6
2844.03
2847.43
2850.8
2854.16
2857.49
2860.79
2864.07
2867.33
2870.56
2873.76
2876.93
2880.08
2883.2
2886.28
2889.34
2892.37
2895.36
2898.32
2901.24
2904.13
2906.98
2909.79
2912.56
2915.3
2918
2920.65
2923.28
2925.86
2928.4
2930.9
2933.34
2935.75
2938.12
2940.44
2942.72
2944.94
2947.11
2949.23
2951.29
2953.3
2955.25
2957.14
2958.97
2960.73
2962.43
2964.07
2965.64
2967.14
2968.57
2969.94
2971.23
2972.44
2973.58
2974.65
2975.64
2976.55
2977.39
2978.14
2978.81
2979.4
2979.91
2980.34
2980.68
2980.93
2981.1
2981.19
2619.02
2619.1
2619.25
2619.46
2619.74
2620.1
2620.53
2621.04
2621.63
2622.3
2623.05
2623.89
2624.81
2625.82
2626.92
2628.11
2629.39
2630.76
2632.22
2633.78
2635.42
2637.16
2638.99
2640.91
2642.92
2645.01
2647.2
2649.47
2651.83
2654.27
2656.79
2659.39
2662.06
2664.81
2667.63
2670.53
2673.49
2676.51
2679.6
2682.75
2685.95
2689.21
2692.52
2695.88
2699.28
2702.71
2706.19
2709.7
2713.24
2716.81
2720.41
2724.03
2727.67
2731.33
2735
2738.69
2742.39
2746.1
2749.82
2753.54
2757.27
2761
2764.73
2768.45
2772.18
2775.89
2779.6
2783.31
2787
2790.68
2794.35
2798.01
2801.66
2805.29
2808.9
2812.5
2816.09
2819.65
2823.2
2826.72
2830.23
2833.72
2837.19
2840.63
2844.06
2847.46
2850.84
2854.19
2857.53
2860.83
2864.11
2867.37
2870.6
2873.81
2876.98
2880.13
2883.25
2886.34
2889.4
2892.43
2895.42
2898.38
2901.3
2904.18
2907.03
2909.84
2912.61
2915.34
2918.03
2920.68
2923.29
2925.88
2928.43
2930.94
2933.42
2935.84
2938.22
2940.55
2942.82
2945.05
2947.22
2949.34
2951.4
2953.41
2955.36
2957.25
2959.08
2960.84
2962.55
2964.18
2965.76
2967.26
2968.69
2970.05
2971.34
2972.56
2973.7
2974.77
2975.76
2976.67
2977.5
2978.25
2978.93
2979.52
2980.02
2980.45
2980.79
2981.05
2981.22
2981.3
2618.67
2618.75
2618.9
2619.11
2619.39
2619.74
2620.17
2620.68
2621.26
2621.93
2622.69
2623.52
2624.45
2625.46
2626.55
2627.74
2629.02
2630.39
2631.86
2633.41
2635.06
2636.8
2638.64
2640.56
2642.58
2644.68
2646.88
2649.16
2651.52
2653.97
2656.51
2659.12
2661.82
2664.57
2667.4
2670.3
2673.27
2676.31
2679.41
2682.56
2685.77
2689.04
2692.35
2695.71
2699.11
2702.56
2706.04
2709.56
2713.11
2716.69
2720.29
2723.92
2727.57
2731.23
2734.92
2738.61
2742.32
2746.04
2749.77
2753.49
2757.23
2760.96
2764.7
2768.43
2772.15
2775.88
2779.59
2783.3
2787
2790.68
2794.36
2798.02
2801.67
2805.3
2808.92
2812.53
2816.11
2819.68
2823.23
2826.76
2830.27
2833.76
2837.23
2840.68
2844.11
2847.52
2850.9
2854.26
2857.59
2860.9
2864.19
2867.45
2870.68
2873.89
2877.07
2880.22
2883.34
2886.43
2889.5
2892.53
2895.52
2898.48
2901.41
2904.3
2907.16
2909.98
2912.77
2915.51
2918.23
2920.9
2923.54
2926.12
2928.66
2931.16
2933.63
2936.05
2938.42
2940.75
2943.03
2945.25
2947.43
2949.55
2951.62
2953.63
2955.58
2957.47
2959.3
2961.07
2962.78
2964.42
2965.99
2967.5
2968.93
2970.3
2971.59
2972.81
2973.95
2975.02
2976.01
2976.93
2977.76
2978.51
2979.19
2979.78
2980.29
2980.71
2981.06
2981.32
2981.48
2981.57
2618.14
2618.23
2618.38
2618.58
2618.86
2619.21
2619.63
2620.14
2620.72
2621.39
2622.14
2622.97
2623.89
2624.9
2626
2627.19
2628.47
2629.84
2631.31
2632.87
2634.52
2636.27
2638.11
2640.04
2642.06
2644.18
2646.38
2648.67
2651.05
2653.51
2656.05
2658.67
2661.36
2664.14
2667
2669.92
2672.9
2675.95
2679.07
2682.24
2685.46
2688.74
2692.07
2695.44
2698.86
2702.32
2705.82
2709.35
2712.91
2716.5
2720.12
2723.76
2727.42
2731.1
2734.79
2738.5
2742.22
2745.95
2749.68
2753.42
2757.16
2760.91
2764.65
2768.39
2772.12
2775.85
2779.57
2783.29
2786.99
2790.68
2794.36
2798.03
2801.69
2805.33
2808.95
2812.56
2816.15
2819.72
2823.28
2826.82
2830.33
2833.83
2837.3
2840.76
2844.19
2847.6
2850.99
2854.36
2857.7
2861.01
2864.3
2867.57
2870.81
2874.02
2877.2
2880.36
2883.49
2886.58
2889.65
2892.69
2895.69
2898.66
2901.59
2904.49
2907.36
2910.19
2912.98
2915.73
2918.44
2921.12
2923.76
2926.35
2928.91
2931.42
2933.89
2936.31
2938.69
2941.03
2943.31
2945.54
2947.72
2949.85
2951.92
2953.93
2955.89
2957.79
2959.63
2961.4
2963.11
2964.76
2966.34
2967.85
2969.29
2970.66
2971.96
2973.18
2974.33
2975.41
2976.4
2977.32
2978.16
2978.92
2979.59
2980.19
2980.7
2981.13
2981.47
2981.73
2981.9
2981.98
2617.43
2617.52
2617.67
2617.88
2618.15
2618.49
2618.91
2619.41
2619.99
2620.65
2621.4
2622.23
2623.15
2624.15
2625.25
2626.44
2627.72
2629.09
2630.56
2632.13
2633.79
2635.54
2637.39
2639.33
2641.37
2643.5
2645.71
2648.02
2650.41
2652.89
2655.45
2658.09
2660.8
2663.6
2666.47
2669.41
2672.41
2675.48
2678.62
2681.81
2685.05
2688.35
2691.7
2695.09
2698.53
2702.01
2705.52
2709.07
2712.65
2716.26
2719.89
2723.55
2727.23
2730.92
2734.63
2738.35
2742.09
2745.83
2749.58
2753.33
2757.08
2760.83
2764.59
2768.34
2772.08
2775.82
2779.55
2783.27
2786.98
2790.68
2794.37
2798.05
2801.71
2805.36
2808.99
2812.6
2816.2
2819.78
2823.34
2826.89
2830.41
2833.91
2837.4
2840.86
2844.3
2847.72
2851.11
2854.49
2857.83
2861.16
2864.46
2867.73
2870.97
2874.19
2877.39
2880.55
2883.68
2886.79
2889.86
2892.91
2895.92
2898.9
2901.84
2904.75
2907.62
2910.46
2913.26
2916.03
2918.75
2921.44
2924.08
2926.69
2929.25
2931.77
2934.24
2936.67
2939.06
2941.4
2943.68
2945.92
2948.11
2950.24
2952.32
2954.34
2956.31
2958.21
2960.06
2961.84
2963.56
2965.21
2966.8
2968.32
2969.77
2971.15
2972.45
2973.68
2974.84
2975.92
2976.92
2977.85
2978.69
2979.45
2980.14
2980.73
2981.25
2981.68
2982.03
2982.3
2982.46
2982.54
2616.54
2616.63
2616.78
2616.99
2617.26
2617.6
2618.01
2618.5
2619.08
2619.73
2620.47
2621.3
2622.21
2623.22
2624.31
2625.5
2626.78
2628.16
2629.63
2631.2
2632.87
2634.63
2636.49
2638.45
2640.5
2642.64
2644.87
2647.2
2649.61
2652.11
2654.69
2657.34
2660.09
2662.91
2665.8
2668.77
2671.8
2674.89
2678.05
2681.26
2684.54
2687.86
2691.23
2694.65
2698.11
2701.61
2705.15
2708.72
2712.33
2715.96
2719.61
2723.29
2726.99
2730.7
2734.43
2738.17
2741.92
2745.68
2749.44
2753.21
2756.98
2760.74
2764.51
2768.27
2772.03
2775.78
2779.52
2783.25
2786.97
2790.68
2794.38
2798.07
2801.74
2805.39
2809.03
2812.66
2816.26
2819.85
2823.42
2826.98
2830.51
2834.02
2837.51
2840.98
2844.43
2847.86
2851.27
2854.65
2858
2861.34
2864.65
2867.93
2871.18
2874.41
2877.62
2880.79
2883.93
2887.05
2890.13
2893.19
2896.21
2899.2
2902.15
2905.07
2907.95
2910.8
2913.61
2916.39
2919.12
2921.81
2924.47
2927.08
2929.66
2932.19
2934.67
2937.11
2939.51
2941.85
2944.15
2946.4
2948.59
2950.73
2952.82
2954.85
2956.82
2958.74
2960.59
2962.39
2964.11
2965.78
2967.37
2968.9
2970.36
2971.75
2973.06
2974.3
2975.47
2976.56
2977.57
2978.5
2979.35
2980.12
2980.81
2981.42
2981.94
2982.37
2982.73
2982.99
2983.16
2983.24
2615.46
2615.55
2615.71
2615.91
2616.18
2616.51
2616.92
2617.4
2617.97
2618.62
2619.35
2620.17
2621.08
2622.08
2623.18
2624.36
2625.65
2627.03
2628.51
2630.08
2631.76
2633.53
2635.41
2637.38
2639.44
2641.61
2643.86
2646.21
2648.64
2651.17
2653.78
2656.47
2659.24
2662.08
2665
2668
2671.06
2674.18
2677.37
2680.62
2683.92
2687.27
2690.67
2694.12
2697.61
2701.14
2704.71
2708.31
2711.94
2715.6
2719.28
2722.98
2726.7
2730.44
2734.19
2737.95
2741.72
2745.5
2749.28
2753.07
2756.85
2760.64
2764.42
2768.2
2771.97
2775.73
2779.48
2783.23
2786.96
2790.68
2794.39
2798.09
2801.77
2805.44
2809.09
2812.72
2816.34
2819.94
2823.52
2827.08
2830.62
2834.15
2837.65
2841.13
2844.59
2848.03
2851.45
2854.84
2858.21
2861.55
2864.87
2868.17
2871.44
2874.68
2877.89
2881.08
2884.23
2887.36
2890.46
2893.52
2896.56
2899.56
2902.52
2905.46
2908.35
2911.21
2914.04
2916.82
2919.57
2922.28
2924.94
2927.57
2930.15
2932.69
2935.19
2937.64
2940.05
2942.4
2944.71
2946.97
2949.17
2951.33
2953.42
2955.47
2957.45
2959.38
2961.24
2963.05
2964.78
2966.46
2968.07
2969.61
2971.08
2972.47
2973.8
2975.05
2976.22
2977.32
2978.34
2979.28
2980.14
2980.92
2981.62
2982.23
2982.75
2983.2
2983.55
2983.82
2983.99
2984.07
2614.18
2614.29
2614.44
2614.65
2614.91
2615.24
2615.64
2616.11
2616.67
2617.31
2618.04
2618.85
2619.76
2620.75
2621.84
2623.03
2624.31
2625.69
2627.18
2628.77
2630.45
2632.24
2634.13
2636.12
2638.21
2640.39
2642.67
2645.04
2647.51
2650.06
2652.7
2655.42
2658.23
2661.11
2664.06
2667.09
2670.19
2673.35
2676.57
2679.85
2683.19
2686.58
2690.02
2693.5
2697.03
2700.59
2704.2
2707.83
2711.49
2715.18
2718.89
2722.62
2726.37
2730.14
2733.91
2737.7
2741.5
2745.3
2749.1
2752.91
2756.71
2760.52
2764.32
2768.11
2771.9
2775.67
2779.44
2783.2
2786.95
2790.69
2794.41
2798.12
2801.81
2805.49
2809.15
2812.79
2816.42
2820.03
2823.63
2827.2
2830.75
2834.29
2837.8
2841.3
2844.77
2848.22
2851.65
2855.06
2858.44
2861.8
2865.13
2868.44
2871.73
2874.98
2878.21
2881.41
2884.58
2887.72
2890.83
2893.91
2896.96
2899.98
2902.96
2905.9
2908.81
2911.69
2914.53
2917.33
2920.09
2922.81
2925.49
2928.13
2930.72
2933.28
2935.79
2938.25
2940.67
2943.04
2945.36
2947.63
2949.85
2952.02
2954.13
2956.18
2958.18
2960.12
2962
2963.82
2965.57
2967.26
2968.88
2970.43
2971.91
2973.32
2974.66
2975.92
2977.11
2978.22
2979.25
2980.2
2981.07
2981.85
2982.55
2983.17
2983.7
2984.15
2984.51
2984.78
2984.96
2985.04
2612.71
2612.82
2612.98
2613.2
2613.46
2613.77
2614.16
2614.63
2615.18
2615.81
2616.53
2617.33
2618.23
2619.21
2620.3
2621.48
2622.77
2624.16
2625.65
2627.24
2628.94
2630.75
2632.65
2634.67
2636.78
2638.99
2641.3
2643.7
2646.2
2648.79
2651.46
2654.22
2657.06
2659.99
2662.98
2666.05
2669.19
2672.39
2675.66
2678.98
2682.36
2685.79
2689.27
2692.8
2696.37
2699.97
2703.61
2707.28
2710.98
2714.7
2718.45
2722.22
2726
2729.8
2733.6
2737.42
2741.24
2745.07
2748.9
2752.73
2756.56
2760.38
2764.2
2768.01
2771.82
2775.61
2779.4
2783.17
2786.94
2790.69
2794.42
2798.14
2801.85
2805.54
2809.22
2812.88
2816.52
2820.14
2823.75
2827.33
2830.9
2834.45
2837.98
2841.49
2844.97
2848.44
2851.89
2855.31
2858.71
2862.08
2865.43
2868.76
2872.06
2875.33
2878.57
2881.79
2884.98
2888.14
2891.26
2894.36
2897.42
2900.46
2903.45
2906.42
2909.34
2912.23
2915.09
2917.9
2920.68
2923.41
2926.11
2928.76
2931.37
2933.94
2936.47
2938.95
2941.38
2943.76
2946.1
2948.39
2950.62
2952.8
2954.93
2957
2959.02
2960.97
2962.87
2964.7
2966.47
2968.17
2969.81
2971.37
2972.87
2974.29
2975.64
2976.92
2978.12
2979.24
2980.28
2981.24
2982.12
2982.91
2983.62
2984.25
2984.79
2985.24
2985.6
2985.88
2986.05
2986.14
2611.02
2611.14
2611.32
2611.54
2611.8
2612.11
2612.49
2612.95
2613.48
2614.1
2614.81
2615.6
2616.49
2617.47
2618.55
2619.73
2621.01
2622.4
2623.9
2625.51
2627.22
2629.04
2630.97
2633.01
2635.15
2637.39
2639.74
2642.18
2644.71
2647.34
2650.06
2652.86
2655.75
2658.71
2661.76
2664.87
2668.06
2671.31
2674.62
2678
2681.43
2684.91
2688.43
2692
2695.62
2699.27
2702.95
2706.67
2710.41
2714.17
2717.96
2721.76
2725.58
2729.41
2733.26
2737.11
2740.96
2744.82
2748.67
2752.53
2756.38
2760.23
2764.07
2767.9
2771.73
2775.55
2779.35
2783.14
2786.92
2790.69
2794.44
2798.17
2801.9
2805.6
2809.29
2812.96
2816.62
2820.26
2823.88
2827.48
2831.06
2834.62
2838.17
2841.69
2845.2
2848.68
2852.14
2855.58
2859
2862.39
2865.76
2869.1
2872.42
2875.71
2878.98
2882.21
2885.42
2888.6
2891.75
2894.86
2897.94
2900.99
2904.01
2906.99
2909.93
2912.84
2915.71
2918.54
2921.34
2924.09
2926.8
2929.47
2932.1
2934.69
2937.23
2939.72
2942.17
2944.58
2946.93
2949.23
2951.48
2953.68
2955.83
2957.92
2959.95
2961.93
2963.84
2965.69
2967.48
2969.2
2970.85
2972.43
2973.95
2975.39
2976.75
2978.04
2979.26
2980.39
2981.44
2982.42
2983.3
2984.11
2984.83
2985.46
2986.01
2986.46
2986.83
2987.11
2987.29
2987.37
2609.11
2609.24
2609.43
2609.67
2609.94
2610.25
2610.62
2611.06
2611.58
2612.19
2612.88
2613.66
2614.53
2615.5
2616.57
2617.75
2619.03
2620.42
2621.93
2623.55
2625.28
2627.13
2629.08
2631.15
2633.32
2635.6
2637.98
2640.46
2643.04
2645.72
2648.48
2651.33
2654.27
2657.29
2660.39
2663.56
2666.8
2670.1
2673.47
2676.9
2680.38
2683.92
2687.5
2691.12
2694.79
2698.49
2702.22
2705.99
2709.77
2713.59
2717.42
2721.26
2725.13
2729
2732.88
2736.76
2740.65
2744.54
2748.43
2752.31
2756.19
2760.07
2763.93
2767.79
2771.64
2775.47
2779.3
2783.11
2786.9
2790.69
2794.45
2798.21
2801.94
2805.66
2809.37
2813.05
2816.72
2820.38
2824.01
2827.63
2831.23
2834.81
2838.37
2841.92
2845.44
2848.94
2852.42
2855.88
2859.32
2862.73
2866.12
2869.49
2872.83
2876.14
2879.42
2882.68
2885.91
2889.11
2892.28
2895.41
2898.52
2901.59
2904.62
2907.62
2910.59
2913.51
2916.4
2919.25
2922.06
2924.84
2927.57
2930.26
2932.9
2935.51
2938.07
2940.58
2943.05
2945.47
2947.84
2950.17
2952.44
2954.66
2956.83
2958.94
2960.99
2962.98
2964.92
2966.79
2968.59
2970.34
2972.01
2973.61
2975.14
2976.6
2977.98
2979.29
2980.52
2981.67
2982.74
2983.72
2984.62
2985.44
2986.17
2986.81
2987.36
2987.82
2988.19
2988.48
2988.66
2988.74
2606.95
2607.09
2607.3
2607.57
2607.85
2608.17
2608.54
2608.97
2609.48
2610.07
2610.74
2611.5
2612.35
2613.3
2614.36
2615.53
2616.81
2618.21
2619.73
2621.36
2623.11
2624.98
2626.97
2629.07
2631.28
2633.6
2636.02
2638.55
2641.18
2643.91
2646.73
2649.64
2652.63
2655.71
2658.87
2662.1
2665.4
2668.77
2672.2
2675.69
2679.23
2682.83
2686.47
2690.15
2693.88
2697.63
2701.42
2705.24
2709.08
2712.95
2716.83
2720.72
2724.63
2728.54
2732.47
2736.39
2740.32
2744.24
2748.16
2752.08
2755.99
2759.89
2763.78
2767.67
2771.54
2775.39
2779.24
2783.07
2786.88
2790.68
2794.47
2798.24
2801.99
2805.73
2809.45
2813.15
2816.84
2820.51
2824.16
2827.79
2831.41
2835.01
2838.59
2842.15
2845.69
2849.22
2852.72
2856.2
2859.66
2863.1
2866.51
2869.9
2873.26
2876.6
2879.91
2883.19
2886.44
2889.67
2892.86
2896.02
2899.15
2902.24
2905.3
2908.32
2911.3
2914.25
2917.16
2920.03
2922.86
2925.65
2928.4
2931.11
2933.78
2936.4
2938.98
2941.52
2944.01
2946.45
2948.84
2951.19
2953.48
2955.73
2957.92
2960.05
2962.12
2964.14
2966.1
2967.99
2969.82
2971.58
2973.28
2974.9
2976.46
2977.93
2979.34
2980.66
2981.91
2983.07
2984.16
2985.16
2986.07
2986.9
2987.64
2988.29
2988.85
2989.32
2989.7
2989.98
2990.17
2990.25
2604.51
2604.67
2604.91
2605.21
2605.53
2605.87
2606.24
2606.66
2607.15
2607.72
2608.37
2609.11
2609.94
2610.87
2611.91
2613.07
2614.35
2615.75
2617.28
2618.93
2620.71
2622.6
2624.62
2626.76
2629.02
2631.38
2633.86
2636.44
2639.13
2641.92
2644.8
2647.77
2650.83
2653.97
2657.2
2660.49
2663.86
2667.3
2670.8
2674.36
2677.97
2681.63
2685.34
2689.09
2692.88
2696.71
2700.56
2704.44
2708.34
2712.26
2716.19
2720.14
2724.1
2728.06
2732.03
2735.99
2739.96
2743.92
2747.88
2751.83
2755.77
2759.71
2763.63
2767.53
2771.43
2775.31
2779.17
2783.03
2786.86
2790.68
2794.48
2798.27
2802.04
2805.79
2809.53
2813.25
2816.95
2820.64
2824.31
2827.96
2831.59
2835.21
2838.81
2842.4
2845.96
2849.51
2853.03
2856.54
2860.02
2863.48
2866.92
2870.34
2873.73
2877.09
2880.43
2883.74
2887.02
2890.27
2893.49
2896.67
2899.83
2902.94
2906.03
2909.07
2912.08
2915.05
2917.98
2920.87
2923.72
2926.54
2929.31
2932.04
2934.73
2937.37
2939.97
2942.53
2945.04
2947.51
2949.93
2952.3
2954.62
2956.88
2959.1
2961.26
2963.36
2965.4
2967.38
2969.3
2971.16
2972.94
2974.66
2976.31
2977.89
2979.39
2980.81
2982.16
2983.42
2984.61
2985.71
2986.72
2987.65
2988.49
2989.24
2989.9
2990.47
2990.95
2991.34
2991.63
2991.81
2991.9
2601.77
2601.94
2602.23
2602.58
2602.96
2603.34
2603.73
2604.15
2604.62
2605.16
2605.77
2606.48
2607.27
2608.18
2609.2
2610.35
2611.62
2613.03
2614.57
2616.24
2618.04
2619.98
2622.04
2624.22
2626.53
2628.95
2631.48
2634.13
2636.88
2639.73
2642.68
2645.72
2648.85
2652.07
2655.37
2658.74
2662.19
2665.7
2669.28
2672.91
2676.6
2680.34
2684.13
2687.95
2691.81
2695.7
2699.62
2703.57
2707.53
2711.52
2715.51
2719.52
2723.53
2727.54
2731.56
2735.58
2739.59
2743.59
2747.59
2751.57
2755.55
2759.51
2763.46
2767.4
2771.32
2775.22
2779.11
2782.98
2786.83
2790.67
2794.49
2798.29
2802.08
2805.85
2809.6
2813.34
2817.06
2820.76
2824.45
2828.12
2831.78
2835.42
2839.04
2842.65
2846.24
2849.81
2853.36
2856.89
2860.4
2863.89
2867.36
2870.81
2874.23
2877.62
2880.99
2884.33
2887.64
2890.92
2894.17
2897.38
2900.56
2903.7
2906.81
2909.88
2912.91
2915.91
2918.86
2921.78
2924.65
2927.49
2930.28
2933.03
2935.74
2938.41
2941.04
2943.62
2946.16
2948.65
2951.09
2953.49
2955.83
2958.13
2960.37
2962.55
2964.68
2966.76
2968.77
2970.71
2972.6
2974.41
2976.16
2977.83
2979.43
2980.96
2982.41
2983.78
2985.06
2986.27
2987.39
2988.42
2989.36
2990.22
2990.98
2991.65
2992.23
2992.72
2993.11
2993.41
2993.6
2993.68
2598.68
2598.87
2599.22
2599.65
2600.11
2600.55
2600.98
2601.42
2601.87
2602.37
2602.94
2603.59
2604.35
2605.21
2606.21
2607.34
2608.61
2610.02
2611.58
2613.28
2615.11
2617.09
2619.2
2621.44
2623.8
2626.28
2628.88
2631.6
2634.42
2637.35
2640.37
2643.49
2646.71
2650
2653.39
2656.84
2660.37
2663.97
2667.63
2671.35
2675.13
2678.95
2682.81
2686.72
2690.66
2694.63
2698.63
2702.64
2706.68
2710.73
2714.79
2718.86
2722.93
2727
2731.07
2735.14
2739.19
2743.24
2747.28
2751.31
2755.32
2759.31
2763.29
2767.26
2771.2
2775.13
2779.04
2782.93
2786.8
2790.66
2794.5
2798.32
2802.12
2805.91
2809.68
2813.43
2817.17
2820.89
2824.6
2828.29
2831.96
2835.63
2839.27
2842.9
2846.51
2850.11
2853.69
2857.25
2860.8
2864.32
2867.82
2871.3
2874.75
2878.18
2881.58
2884.95
2888.3
2891.61
2894.89
2898.13
2901.34
2904.52
2907.65
2910.75
2913.81
2916.83
2919.81
2922.75
2925.65
2928.5
2931.32
2934.1
2936.83
2939.52
2942.17
2944.78
2947.34
2949.86
2952.33
2954.75
2957.13
2959.45
2961.72
2963.94
2966.1
2968.21
2970.25
2972.23
2974.14
2975.99
2977.76
2979.47
2981.1
2982.65
2984.12
2985.52
2986.83
2988.05
2989.19
2990.24
2991.21
2992.08
2992.86
2993.54
2994.13
2994.63
2995.03
2995.33
2995.52
2995.61
2595.14
2595.36
2595.79
2596.32
2596.88
2597.46
2598
2598.47
2598.92
2599.36
2599.86
2600.44
2601.13
2601.94
2602.9
2604.01
2605.28
2606.71
2608.29
2610.02
2611.9
2613.93
2616.09
2618.39
2620.82
2623.38
2626.05
2628.85
2631.75
2634.76
2637.87
2641.08
2644.38
2647.77
2651.24
2654.79
2658.41
2662.11
2665.86
2669.67
2673.54
2677.45
2681.41
2685.4
2689.43
2693.48
2697.56
2701.66
2705.78
2709.9
2714.03
2718.17
2722.3
2726.44
2730.56
2734.68
2738.79
2742.89
2746.97
2751.03
2755.08
2759.11
2763.12
2767.11
2771.08
2775.04
2778.97
2782.88
2786.77
2790.64
2794.5
2798.33
2802.15
2805.95
2809.74
2813.51
2817.26
2821
2824.73
2828.44
2832.14
2835.82
2839.49
2843.15
2846.79
2850.42
2854.03
2857.62
2861.2
2864.75
2868.29
2871.8
2875.3
2878.76
2882.2
2885.61
2888.99
2892.34
2895.65
2898.93
2902.18
2905.38
2908.55
2911.68
2914.76
2917.81
2920.82
2923.78
2926.7
2929.58
2932.43
2935.22
2937.98
2940.7
2943.37
2946.01
2948.6
2951.14
2953.64
2956.1
2958.5
2960.86
2963.17
2965.42
2967.61
2969.75
2971.83
2973.84
2975.79
2977.67
2979.48
2981.21
2982.87
2984.45
2985.96
2987.38
2988.71
2989.96
2991.13
2992.2
2993.18
2994.07
2994.86
2995.56
2996.16
2996.67
2997.08
2997.38
2997.58
2997.67
2591.1
2591.42
2591.82
2592.43
2593.15
2593.98
2594.74
2595.33
2595.77
2596.13
2596.52
2596.98
2597.58
2598.33
2599.25
2600.35
2601.62
2603.06
2604.68
2606.46
2608.39
2610.48
2612.71
2615.09
2617.59
2620.23
2622.99
2625.87
2628.86
2631.96
2635.17
2638.47
2641.87
2645.36
2648.93
2652.58
2656.31
2660.1
2663.96
2667.87
2671.84
2675.86
2679.91
2684
2688.12
2692.27
2696.44
2700.63
2704.82
2709.03
2713.24
2717.45
2721.65
2725.85
2730.04
2734.22
2738.38
2742.52
2746.65
2750.75
2754.84
2758.91
2762.95
2766.97
2770.96
2774.94
2778.89
2782.82
2786.73
2790.62
2794.49
2798.34
2802.17
2805.99
2809.79
2813.58
2817.35
2821.1
2824.85
2828.58
2832.3
2836.01
2839.71
2843.39
2847.06
2850.72
2854.36
2857.99
2861.6
2865.2
2868.77
2872.33
2875.86
2879.37
2882.85
2886.3
2889.72
2893.11
2896.46
2899.78
2903.06
2906.3
2909.5
2912.66
2915.78
2918.85
2921.88
2924.87
2927.82
2930.73
2933.59
2936.41
2939.2
2941.94
2944.64
2947.3
2949.92
2952.49
2955.03
2957.51
2959.95
2962.35
2964.69
2966.98
2969.21
2971.38
2973.5
2975.55
2977.54
2979.45
2981.3
2983.07
2984.76
2986.38
2987.91
2989.36
2990.72
2992
2993.19
2994.28
2995.28
2996.19
2997
2997.72
2998.33
2998.85
2999.27
2999.58
2999.78
2999.86
2586.65
2587.06
2587.4
2588.06
2589
2590.29
2591.35
2592.08
2592.47
2592.68
2592.87
2593.17
2593.64
2594.32
2595.2
2596.29
2597.58
2599.06
2600.72
2602.56
2604.57
2606.73
2609.05
2611.5
2614.1
2616.83
2619.68
2622.65
2625.74
2628.95
2632.26
2635.67
2639.17
2642.77
2646.45
2650.22
2654.05
2657.96
2661.93
2665.96
2670.03
2674.16
2678.32
2682.52
2686.74
2690.99
2695.26
2699.54
2703.83
2708.12
2712.42
2716.7
2720.98
2725.25
2729.5
2733.74
2737.96
2742.15
2746.33
2750.48
2754.6
2758.7
2762.77
2766.82
2770.84
2774.84
2778.81
2782.76
2786.68
2790.59
2794.47
2798.33
2802.18
2806.01
2809.82
2813.62
2817.41
2821.18
2824.95
2828.7
2832.44
2836.17
2839.9
2843.61
2847.31
2851
2854.68
2858.35
2862
2865.64
2869.26
2872.86
2876.44
2879.99
2883.52
2887.01
2890.48
2893.91
2897.31
2900.67
2903.99
2907.27
2910.51
2913.7
2916.85
2919.95
2923.01
2926.03
2929
2931.93
2934.81
2937.66
2940.47
2943.24
2945.96
2948.65
2951.3
2953.91
2956.47
2958.99
2961.47
2963.9
2966.28
2968.61
2970.89
2973.11
2975.26
2977.35
2979.38
2981.34
2983.22
2985.03
2986.76
2988.41
2989.98
2991.46
2992.86
2994.16
2995.37
2996.49
2997.52
2998.45
2999.27
3000
3000.63
3001.16
3001.59
3001.91
3002.11
3002.2
2581.78
2582.12
2582.61
2583.36
2584.43
2586.86
2588
2588.74
2588.99
2588.92
2588.81
2588.88
2589.21
2589.81
2590.67
2591.78
2593.12
2594.66
2596.41
2598.33
2600.42
2602.68
2605.09
2607.64
2610.34
2613.16
2616.12
2619.2
2622.4
2625.71
2629.13
2632.66
2636.28
2640
2643.8
2647.69
2651.65
2655.68
2659.77
2663.92
2668.12
2672.36
2676.64
2680.95
2685.29
2689.65
2694.03
2698.41
2702.8
2707.18
2711.57
2715.94
2720.3
2724.64
2728.96
2733.26
2737.54
2741.79
2746.01
2750.2
2754.37
2758.5
2762.61
2766.68
2770.72
2774.74
2778.73
2782.69
2786.63
2790.54
2794.44
2798.31
2802.17
2806.01
2809.83
2813.64
2817.44
2821.23
2825.02
2828.79
2832.55
2836.31
2840.06
2843.8
2847.54
2851.27
2854.99
2858.69
2862.39
2866.07
2869.74
2873.39
2877.02
2880.62
2884.2
2887.75
2891.27
2894.76
2898.2
2901.61
2904.97
2908.3
2911.57
2914.8
2917.98
2921.11
2924.2
2927.24
2930.23
2933.18
2936.1
2938.97
2941.8
2944.59
2947.34
2950.06
2952.74
2955.38
2957.98
2960.54
2963.06
2965.53
2967.95
2970.33
2972.65
2974.91
2977.11
2979.25
2981.32
2983.32
2985.25
2987.1
2988.87
2990.56
2992.16
2993.68
2995.11
2996.44
2997.68
2998.83
2999.88
3000.83
3001.68
3002.42
3003.07
3003.61
3004.05
3004.37
3004.58
3004.67
2575.9
2576.17
2576.77
2577.7
2579.42
2581.74
2583.69
2584.71
2584.87
2584.46
2584.01
2583.85
2584.08
2584.68
2585.59
2586.77
2588.2
2589.86
2591.71
2593.74
2595.95
2598.31
2600.83
2603.5
2606.3
2609.24
2612.31
2615.5
2618.82
2622.25
2625.8
2629.45
2633.2
2637.04
2640.97
2644.99
2649.08
2653.25
2657.47
2661.75
2666.09
2670.46
2674.87
2679.31
2683.77
2688.25
2692.74
2697.24
2701.73
2706.22
2710.7
2715.16
2719.61
2724.03
2728.42
2732.79
2737.13
2741.43
2745.7
2749.94
2754.14
2758.31
2762.44
2766.54
2770.61
2774.64
2778.64
2782.62
2786.56
2790.49
2794.39
2798.27
2802.13
2805.98
2809.81
2813.63
2817.44
2821.25
2825.04
2828.84
2832.62
2836.4
2840.18
2843.96
2847.73
2851.5
2855.26
2859.01
2862.76
2866.49
2870.21
2873.92
2877.6
2881.27
2884.91
2888.52
2892.09
2895.63
2899.14
2902.59
2906.01
2909.37
2912.69
2915.96
2919.17
2922.33
2925.45
2928.51
2931.53
2934.5
2937.43
2940.32
2943.17
2945.99
2948.77
2951.51
2954.22
2956.9
2959.54
2962.14
2964.7
2967.22
2969.69
2972.11
2974.48
2976.79
2979.05
2981.23
2983.35
2985.4
2987.38
2989.27
2991.09
2992.82
2994.46
2996.01
2997.48
2998.85
3000.12
3001.29
3002.37
3003.34
3004.21
3004.97
3005.63
3006.19
3006.64
3006.97
3007.18
3007.27
2567.77
2567.86
2567.84
2568.66
2570.17
2573.37
2576.59
2578.59
2579.01
2578.43
2577.76
2577.58
2577.95
2578.74
2579.84
2581.21
2582.81
2584.63
2586.63
2588.81
2591.15
2593.64
2596.28
2599.07
2601.99
2605.05
2608.24
2611.56
2615
2618.56
2622.23
2626.02
2629.91
2633.89
2637.97
2642.12
2646.36
2650.67
2655.04
2659.47
2663.94
2668.46
2673.01
2677.59
2682.19
2686.8
2691.41
2696.03
2700.64
2705.24
2709.82
2714.38
2718.91
2723.42
2727.89
2732.33
2736.73
2741.09
2745.41
2749.69
2753.93
2758.13
2762.29
2766.41
2770.49
2774.54
2778.55
2782.53
2786.49
2790.41
2794.32
2798.2
2802.06
2805.91
2809.75
2813.58
2817.4
2821.21
2825.02
2828.83
2832.64
2836.45
2840.25
2844.06
2847.87
2851.68
2855.49
2859.29
2863.09
2866.88
2870.66
2874.43
2878.18
2881.91
2885.62
2889.29
2892.94
2896.54
2900.11
2903.62
2907.09
2910.51
2913.87
2917.18
2920.43
2923.62
2926.76
2929.85
2932.88
2935.88
2938.82
2941.72
2944.59
2947.43
2950.23
2953
2955.75
2958.46
2961.14
2963.78
2966.39
2968.96
2971.48
2973.96
2976.39
2978.75
2981.06
2983.3
2985.48
2987.58
2989.6
2991.55
2993.41
2995.18
2996.87
2998.46
2999.96
3001.37
3002.67
3003.87
3004.98
3005.97
3006.87
3007.65
3008.33
3008.9
3009.36
3009.7
3009.92
3010
2557.01
2556.59
2556.52
2557.74
2556.24
2560.1
2565.42
2569.15
2570.5
2570.17
2569.54
2569.58
2570.47
2571.83
2573.39
2575.09
2576.96
2579
2581.2
2583.55
2586.04
2588.67
2591.44
2594.36
2597.41
2600.59
2603.91
2607.36
2610.93
2614.63
2618.44
2622.37
2626.4
2630.54
2634.77
2639.08
2643.48
2647.94
2652.47
2657.06
2661.69
2666.36
2671.07
2675.79
2680.54
2685.29
2690.04
2694.79
2699.52
2704.24
2708.93
2713.59
2718.23
2722.82
2727.37
2731.88
2736.35
2740.77
2745.14
2749.46
2753.74
2757.97
2762.15
2766.29
2770.38
2774.44
2778.46
2782.44
2786.39
2790.32
2794.22
2798.1
2801.96
2805.81
2809.64
2813.47
2817.3
2821.12
2824.94
2828.76
2832.59
2836.42
2840.26
2844.1
2847.95
2851.8
2855.66
2859.52
2863.38
2867.23
2871.08
2874.92
2878.74
2882.55
2886.33
2890.08
2893.8
2897.48
2901.12
2904.7
2908.23
2911.7
2915.12
2918.46
2921.75
2924.97
2928.14
2931.24
2934.29
2937.3
2940.25
2943.17
2946.05
2948.9
2951.73
2954.53
2957.3
2960.05
2962.77
2965.47
2968.13
2970.75
2973.33
2975.87
2978.35
2980.78
2983.15
2985.45
2987.69
2989.84
2991.92
2993.92
2995.83
2997.65
2999.38
3001.02
3002.56
3004
3005.34
3006.57
3007.71
3008.73
3009.65
3010.45
3011.15
3011.73
3012.2
3012.56
3012.78
3012.86
2544.92
2543.86
2543.28
2541.17
2540.45
2544.3
2552.23
2557.41
2560
2560.87
2559.91
2560.1
2561.73
2564.03
2566.34
2568.52
2570.73
2573.05
2575.47
2578
2580.65
2583.42
2586.33
2589.37
2592.55
2595.87
2599.31
2602.9
2606.61
2610.45
2614.41
2618.49
2622.68
2626.98
2631.38
2635.86
2640.42
2645.06
2649.76
2654.52
2659.33
2664.17
2669.04
2673.93
2678.83
2683.73
2688.64
2693.52
2698.39
2703.24
2708.05
2712.82
2717.56
2722.24
2726.88
2731.47
2736
2740.48
2744.9
2749.26
2753.57
2757.83
2762.03
2766.18
2770.28
2774.34
2778.36
2782.34
2786.28
2790.2
2794.09
2797.96
2801.81
2805.65
2809.48
2813.3
2817.12
2820.95
2824.78
2828.61
2832.46
2836.31
2840.18
2844.06
2847.94
2851.85
2855.76
2859.67
2863.6
2867.52
2871.45
2875.37
2879.27
2883.17
2887.03
2890.88
2894.68
2898.45
2902.16
2905.83
2909.43
2912.96
2916.43
2919.83
2923.15
2926.4
2929.58
2932.7
2935.76
2938.77
2941.73
2944.65
2947.54
2950.4
2953.25
2956.07
2958.88
2961.67
2964.44
2967.18
2969.9
2972.58
2975.23
2977.83
2980.38
2982.88
2985.31
2987.68
2989.98
2992.19
2994.33
2996.38
2998.35
3000.22
3002
3003.68
3005.26
3006.74
3008.12
3009.39
3010.55
3011.6
3012.54
3013.37
3014.09
3014.69
3015.17
3015.54
3015.76
3015.84
2535.78
2535.47
2531.91
2528.99
2526.68
2532.05
2539.89
2545.57
2550.46
2552.04
2550.24
2549.74
2552.34
2555.75
2558.91
2561.68
2564.28
2566.88
2569.51
2572.21
2575.01
2577.92
2580.96
2584.12
2587.42
2590.86
2594.45
2598.17
2602.02
2606.01
2610.13
2614.37
2618.74
2623.21
2627.78
2632.44
2637.19
2642.02
2646.91
2651.85
2656.85
2661.87
2666.93
2671.99
2677.07
2682.14
2687.2
2692.24
2697.26
2702.24
2707.18
2712.07
2716.91
2721.7
2726.43
2731.09
2735.69
2740.23
2744.7
2749.1
2753.44
2757.71
2761.93
2766.09
2770.19
2774.25
2778.25
2782.22
2786.15
2790.05
2793.92
2797.77
2801.6
2805.42
2809.24
2813.05
2816.87
2820.69
2824.52
2828.36
2832.22
2836.1
2839.99
2843.9
2847.84
2851.79
2855.76
2859.74
2863.73
2867.74
2871.75
2875.76
2879.76
2883.75
2887.72
2891.66
2895.57
2899.44
2903.25
2907
2910.69
2914.3
2917.83
2921.27
2924.64
2927.91
2931.11
2934.24
2937.29
2940.29
2943.24
2946.16
2949.05
2951.92
2954.77
2957.62
2960.46
2963.29
2966.11
2968.91
2971.69
2974.44
2977.16
2979.84
2982.46
2985.03
2987.54
2989.98
2992.34
2994.63
2996.83
2998.94
3000.96
3002.89
3004.71
3006.44
3008.07
3009.59
3011
3012.31
3013.5
3014.58
3015.55
3016.4
3017.14
3017.76
3018.26
3018.63
3018.86
3018.94
2531.73
2531.2
2528.31
2524.75
2521.95
2525.76
2531.7
2536.33
2540.88
2541.07
2541
2539.98
2543.45
2547.84
2551.74
2554.94
2557.82
2560.62
2563.42
2566.25
2569.17
2572.18
2575.33
2578.6
2582.02
2585.58
2589.29
2593.15
2597.15
2601.3
2605.58
2610
2614.54
2619.2
2623.97
2628.83
2633.78
2638.81
2643.91
2649.06
2654.25
2659.48
2664.73
2669.99
2675.26
2680.51
2685.75
2690.96
2696.13
2701.25
2706.33
2711.35
2716.31
2721.2
2726.02
2730.76
2735.43
2740.02
2744.54
2748.98
2753.35
2757.64
2761.86
2766.02
2770.11
2774.15
2778.14
2782.08
2785.99
2789.86
2793.7
2797.52
2801.32
2805.12
2808.91
2812.7
2816.5
2820.32
2824.14
2827.99
2831.86
2835.76
2839.68
2843.63
2847.6
2851.61
2855.64
2859.69
2863.76
2867.86
2871.96
2876.07
2880.18
2884.28
2888.37
2892.44
2896.46
2900.45
2904.37
2908.23
2912.02
2915.71