/*--------------------------------*- C++ -*----------------------------------*\
| =========                 |                                                 |
| \\      /  F ield         | OpenFOAM: The Open Source CFD Toolbox           |
|  \\    /   O peration     | Version:  v2006                                 |
|   \\  /    A nd           | Website:  www.openfoam.com                      |
|    \\/     M anipulation  |                                                 |
\*---------------------------------------------------------------------------*/
FoamFile
{
    version     2.0;
    format      ascii;
    class       volScalarField;
    location    "0";
    object      alpha.water;
}
// * * * * * * * * * * * * * * * * * * * * * * * * * * * * * * * * * * * * * //

dimensions      [0 0 0 0 0 0 0];


internalField   nonuniform List<scalar> 
67500
(
0.996822
0.99726
0.980996
0.478891
0.200935
0.340068
0.29534
0.296788
0.736915
0.804568
0.801673
0.734735
0.770885
0.772276
0.565378
0.403666
0.897846
0.999983
0.999983
0.999941
0.999675
0.999976
1
1
1
1
1
1
1
1
1
1
1
1
1
1
1
1
1
1
1
1
1
1
1
1
1
1
1
1
1
1
1
1
1
1
1
1
1
1
1
1
1
1
1
1
1
1
1
1
1
1
1
1
1
1
1
1
1
1
1
1
1
1
1
1
1
1
1
1
1
1
1
1
1
1
1
1
1
1
1
1
1
1
1
1
1
1
1
1
1
1
1
1
1
1
1
1
1
1
1
1
1
1
1
1
1
1
1
1
1
1
1
1
1
1
1
1
1
1
1
1
1
1
1
1
1
1
1
1
1
1
1
1
1
1
1
1
1
1
1
1
1
1
1
1
1
1
1
1
1
1
1
1
1
1
1
1
1
1
1
1
1
1
1
1
1
1
1
1
1
1
1
1
1
1
1
1
1
1
1
1
1
1
1
1
1
1
1
1
1
1
1
1
1
1
1
1
1
1
1
1
1
1
1
1
1
1
1
1
1
1
1
1
1
1
1
1
1
1
1
1
1
1
1
1
1
1
1
1
1
1
1
1
1
1
1
1
1
1
1
1
1
1
1
1
1
1
1
1
1
1
1
1
1
1
1
1
1
1
1
1
1
1
1
1
1
1
1
1
1
1
1
1
1
1
1
1
1
1
1
1
1
1
1
1
1
1
1
1
1
1
1
1
1
1
1
1
1
1
1
1
1
1
1
1
1
1
1
1
1
1
1
1
1
1
1
1
1
1
1
1
1
1
1
1
1
1
1
1
1
1
1
1
1
1
1
1
1
1
1
1
1
1
1
1
1
1
1
1
1
1
1
1
1
1
1
1
1
1
1
1
1
1
1
1
1
1
1
1
1
1
1
1
1
1
1
1
1
1
1
1
1
1
1
1
1
1
1
1
1
1
1
1
1
1
1
1
1
1
1
1
1
1
1
1
1
1
1
1
1
1
1
1
1
1
1
1
1
1
1
1
1
1
1
1
1
1
1
1
0.996809
0.972114
0.378212
3.32227e-37
1.27394e-20
0.0162271
0.0464929
0.408186
0.793811
0.804568
0.752982
0.18038
0.0638123
0.0641251
0.0638123
0.0733863
0.11348
0.0929107
0.0917641
0.36426
0.955706
1
1
1
1
1
1
1
1
1
1
1
1
1
1
1
1
1
1
1
1
1
1
1
1
1
1
1
1
1
1
1
1
1
1
1
1
1
1
1
1
1
1
1
1
1
1
1
1
1
1
1
1
1
1
1
1
1
1
1
1
1
1
1
1
1
1
1
1
1
1
1
1
1
1
1
1
1
1
1
1
1
1
1
1
1
1
1
1
1
1
1
1
1
1
1
1
1
1
1
1
1
1
1
1
1
1
1
1
1
1
1
1
1
1
1
1
1
1
1
1
1
1
1
1
1
1
1
1
1
1
1
1
1
1
1
1
1
1
1
1
1
1
1
1
1
1
1
1
1
1
1
1
1
1
1
1
1
1
1
1
1
1
1
1
1
1
1
1
1
1
1
1
1
1
1
1
1
1
1
1
1
1
1
1
1
1
1
1
1
1
1
1
1
1
1
1
1
1
1
1
1
1
1
1
1
1
1
1
1
1
1
1
1
1
1
1
1
1
1
1
1
1
1
1
1
1
1
1
1
1
1
1
1
1
1
1
1
1
1
1
1
1
1
1
1
1
1
1
1
1
1
1
1
1
1
1
1
1
1
1
1
1
1
1
1
1
1
1
1
1
1
1
1
1
1
1
1
1
1
1
1
1
1
1
1
1
1
1
1
1
1
1
1
1
1
1
1
1
1
1
1
1
1
1
1
1
1
1
1
1
1
1
1
1
1
1
1
1
1
1
1
1
1
1
1
1
1
1
1
1
1
1
1
1
1
1
1
1
1
1
1
1
1
1
1
1
1
1
1
1
1
1
1
1
1
1
1
1
1
1
1
1
1
1
1
1
1
1
1
1
1
1
1
1
1
1
1
1
1
1
1
1
1
1
1
1
1
1
1
1
1
1
1
1
1
1
1
1
1
1
1
1
1
1
1
1
1
1
1
1
1
1
1
1
1
1
1
1
1
1
1
1
1
1
1
1
1
1
1
0.983801
0.868153
0.155966
3.51657e-19
0.108324
0.481129
0.554018
0.480442
0.326915
0.658382
0.697538
0.700139
0.494623
0.30801
0.18988
0.18889
0.32348
0.549086
0.780449
0.957973
1
1
1
1
1
1
1
1
1
1
0.998515
0.998695
0.999789
0.999946
0.997728
0.9926
0.985187
0.976949
0.969599
0.964581
0.963435
0.965
0.968599
0.973205
0.97772
0.981285
0.983543
0.984815
0.985931
0.98768
0.990264
0.99323
0.995929
0.997944
0.999184
0.99979
0.999986
1
1
1
1
1
1
1
1
1
1
1
1
1
1
1
1
1
1
1
1
1
1
1
1
1
1
1
1
1
1
1
1
1
1
1
1
1
1
1
1
1
1
1
1
1
1
1
1
1
1
1
1
1
1
1
1
1
1
1
1
1
1
1
1
1
1
1
1
1
1
1
1
1
1
1
1
1
1
1
1
1
1
1
1
1
1
1
1
1
1
1
1
1
1
1
1
1
1
1
1
1
1
1
1
1
1
1
1
1
1
1
1
1
1
1
1
1
1
1
1
1
1
1
1
1
1
1
1
1
1
1
1
1
1
1
1
1
1
1
1
1
1
1
1
1
1
1
1
1
1
1
1
1
1
1
1
1
1
1
1
1
1
1
1
1
1
1
1
1
1
1
1
1
1
1
1
1
1
1
1
1
1
1
1
1
1
1
1
1
1
1
1
1
1
1
1
1
1
1
1
1
1
1
1
1
1
1
1
1
1
1
1
1
1
1
1
1
1
1
1
1
1
1
1
1
1
1
1
1
1
1
1
1
1
1
1
1
1
1
1
1
1
1
1
1
1
1
1
1
1
1
1
1
1
1
1
1
1
1
1
1
1
1
1
1
1
1
1
1
1
1
1
1
1
1
1
1
1
1
1
1
1
1
1
1
1
1
1
1
1
1
1
1
1
1
1
1
1
1
1
1
1
1
1
1
1
1
1
1
1
1
1
1
1
1
1
1
1
1
1
1
1
1
1
1
1
1
1
1
1
1
1
1
1
1
1
1
1
1
1
1
1
1
1
1
1
1
1
1
1
1
1
1
1
1
1
1
1
1
1
1
1
1
1
1
1
1
1
1
1
1
1
1
1
1
1
1
1
1
1
1
1
1
1
1
1
1
1
1
1
1
1
1
0.884724
0.850543
0.0407098
0.190553
0.315597
0.161733
0.000953027
-7.19313e-23
-3.80674e-37
3.3597e-19
0.150218
0.296998
0.454499
0.596426
0.830134
0.94715
0.985409
0.998694
1
1
0.999489
0.999928
0.999945
0.988771
0.935634
0.896396
0.868721
0.877307
0.82841
0.701795
0.615802
0.635028
0.685954
0.664631
0.569037
0.46338
0.382432
0.334061
0.31198
0.306618
0.313457
0.330915
0.356057
0.384926
0.411657
0.429646
0.436963
0.438879
0.443784
0.458
0.483352
0.51739
0.556016
0.595216
0.631384
0.661854
0.685984
0.706023
0.727345
0.750033
0.771054
0.798614
0.830023
0.861945
0.892212
0.919698
0.943835
0.964138
0.98014
0.991456
0.997969
0.999989
1
1
1
1
1
1
1
1
1
1
1
1
1
1
1
1
1
1
1
1
1
1
1
1
1
1
1
1
1
1
1
1
1
1
1
1
1
1
1
1
1
1
1
1
1
1
1
1
1
1
1
1
1
1
1
1
1
1
1
1
1
1
1
1
1
1
1
1
1
1
1
1
1
1
1
1
1
1
1
1
1
1
1
1
1
1
1
1
1
1
1
1
1
1
1
1
1
1
1
1
1
1
1
1
1
1
1
1
1
1
1
1
1
1
1
1
1
1
1
1
1
1
1
1
1
1
1
1
1
1
1
1
1
1
1
1
1
1
1
1
1
1
1
1
1
1
1
1
1
1
1
1
1
1
1
1
1
1
1
1
1
1
1
1
1
1
1
1
1
1
1
1
1
1
1
1
1
1
1
1
1
1
1
1
1
1
1
1
1
1
1
1
1
1
1
1
1
1
1
1
1
1
1
1
1
1
1
1
1
1
1
1
1
1
1
1
1
1
1
1
1
1
1
1
1
1
1
1
1
1
1
1
1
1
1
1
1
1
1
1
1
1
1
1
1
1
1
1
1
1
1
1
1
1
1
1
1
1
1
1
1
1
1
1
1
1
1
1
1
1
1
1
1
1
1
1
1
1
1
1
1
1
1
1
1
1
1
1
1
1
1
1
1
1
1
1
1
1
1
1
1
1
1
1
1
1
1
1
1
1
1
1
1
1
1
1
1
1
1
1
1
1
1
1
1
1
1
1
1
1
1
1
1
1
1
1
1
1
1
1
1
1
1
1
1
1
1
1
1
1
1
1
1
1
1
1
1
1
1
1
1
1
1
1
1
1
1
1
1
1
1
1
1
1
1
1
1
1
0.733231
0.707186
0.0332422
0.201798
0.189952
-3.21088e-19
7.70985e-22
3.66037e-09
1.16543e-27
4.32733e-26
-1.34449e-24
7.08695e-25
3.73068e-37
1.57944e-19
0.0156621
0.16486
0.286606
0.674069
0.983782
0.988636
0.854866
0.999936
0.609272
3.04332e-36
1.96608e-35
1.10609e-35
6.93206e-21
0.00157107
0.000199163
-2.85741e-35
5.17934e-36
-1.49197e-36
3.50087e-39
-4.61721e-38
-2.03244e-37
1.3592e-36
-3.91675e-36
1.02327e-36
-6.2198e-37
-4.82987e-38
-7.71148e-37
-7.95483e-37
-9.88719e-38
4.8964e-38
-3.71239e-38
-8.6766e-38
5.46392e-38
-1.26347e-38
0
-9.14289e-22
-3.86583e-21
-6.46713e-21
-7.55218e-21
-6.5657e-21
-5.45323e-21
-4.68104e-21
-4.27594e-22
-2.77161e-21
-4.73308e-22
0.00649525
0.0261484
0.0501943
0.0801696
0.116476
0.159647
0.210552
0.270483
0.340197
0.419752
0.506931
0.599045
0.693281
0.776359
0.824496
0.861718
0.892543
0.917717
0.93876
0.956676
0.971772
0.983971
0.993006
0.998468
1
1
1
1
1
1
1
1
1
1
1
1
1
1
1
1
1
1
1
1
1
1
1
1
1
1
1
1
1
1
1
1
1
1
1
1
1
1
1
1
1
1
1
1
1
1
1
1
1
1
1
1
1
1
1
1
1
1
1
1
1
1
1
1
1
1
1
1
1
1
1
1
1
1
1
1
1
1
1
1
1
1
1
1
1
1
1
1
1
1
1
1
1
1
1
1
1
1
1
1
1
1
1
1
1
1
1
1
1
1
1
1
1
1
1
1
1
1
1
1
1
1
1
1
1
1
1
1
1
1
1
1
1
1
1
1
1
1
1
1
1
1
1
1
1
1
1
1
1
1
1
1
1
1
1
1
1
1
1
1
1
1
1
1
1
1
1
1
1
1
1
1
1
1
1
1
1
1
1
1
1
1
1
1
1
1
1
1
1
1
1
1
1
1
1
1
1
1
1
1
1
1
1
1
1
1
1
1
1
1
1
1
1
1
1
1
1
1
1
1
1
1
1
1
1
1
1
1
1
1
1
1
1
1
1
1
1
1
1
1
1
1
1
1
1
1
1
1
1
1
1
1
1
1
1
1
1
1
1
1
1
1
1
1
1
1
1
1
1
1
1
1
1
1
1
1
1
1
1
1
1
1
1
1
1
1
1
1
1
1
1
1
1
1
1
1
1
1
1
1
1
1
1
1
1
1
1
1
1
1
1
1
1
1
1
1
1
1
1
1
1
1
1
1
1
1
1
1
1
1
1
1
1
1
1
1
1
1
1
1
1
1
1
1
1
1
1
1
1
1
1
1
1
1
1
1
1
1
1
1
1
1
1
1
1
1
1
0.685902
0.529969
0.00981424
0.0833352
5.70282e-19
1.4715e-24
2.78833e-07
3.50619e-07
4.06845e-09
1.00835e-07
1.34972e-06
1.44358e-06
-6.43932e-24
-4.19112e-24
-4.75061e-34
3.64446e-31
3.48556e-31
4.1209e-20
0.175334
0.626515
0.795978
0.188808
6.94092e-18
8.31641e-18
2.14127e-17
4.30202e-17
6.43832e-17
5.44233e-17
5.24384e-17
9.46479e-17
6.30892e-17
3.65841e-17
2.13127e-17
1.34862e-17
9.13932e-18
6.51596e-18
4.5787e-18
3.10597e-18
2.06012e-18
1.34624e-18
8.72938e-19
5.63168e-19
3.61177e-19
2.31229e-19
1.5033e-19
1.00692e-19
6.8139e-20
4.62198e-20
3.05705e-20
1.8621e-20
1.00902e-20
4.17698e-21
6.32735e-23
-2.76725e-21
-4.55719e-21
-5.59592e-21
-6.06782e-21
-6.26927e-21
-6.63101e-21
-7.36564e-21
-7.9461e-21
-7.66883e-21
-6.32082e-21
-5.03639e-21
-5.07738e-21
-5.65737e-21
-4.96507e-21
-3.68388e-21
-3.14312e-21
-1.47091e-21
-5.70162e-21
-2.63423e-21
0.0130543
0.0550428
0.100933
0.147548
0.195308
0.246196
0.301892
0.363686
0.433987
0.514754
0.607142
0.710465
0.805177
0.865003
0.913103
0.951456
0.978652
0.994592
0.999926
1
1
1
1
1
1
1
1
1
1
1
1
1
1
1
1
1
1
1
1
1
1
1
1
1
1
1
1
1
1
1
1
1
1
1
1
1
1
1
1
1
1
1
1
1
1
1
1
1
1
1
1
1
1
1
1
1
1
1
1
1
1
1
1
1
1
1
1
1
1
1
1
1
1
1
1
1
1
1
1
1
1
1
1
1
1
1
1
1
1
1
1
1
1
1
1
1
1
1
1
1
1
1
1
1
1
1
1
1
1
1
1
1
1
1
1
1
1
1
1
1
1
1
1
1
1
1
1
1
1
1
1
1
1
1
1
1
1
1
1
1
1
1
1
1
1
1
1
1
1
1
1
1
1
1
1
1
1
1
1
1
1
1
1
1
1
1
1
1
1
1
1
1
1
1
1
1
1
1
1
1
1
1
1
1
1
1
1
1
1
1
1
1
1
1
1
1
1
1
1
1
1
1
1
1
1
1
1
1
1
1
1
1
1
1
1
1
1
1
1
1
1
1
1
1
1
1
1
1
1
1
1
1
1
1
1
1
1
1
1
1
1
1
1
1
1
1
1
1
1
1
1
1
1
1
1
1
1
1
1
1
1
1
1
1
1
1
1
1
1
1
1
1
1
1
1
1
1
1
1
1
1
1
1
1
1
1
1
1
1
1
1
1
1
1
1
1
1
1
1
1
1
1
1
1
1
1
1
1
1
1
1
1
1
1
1
1
1
1
1
1
1
1
1
1
1
1
1
1
1
1
1
1
1
1
1
1
1
1
1
1
1
1
1
1
1
1
1
1
1
1
1
1
1
1
1
1
1
1
0.667902
0.267316
0.00875651
0.00789553
1.75944e-19
3.47683e-07
5.21848e-07
2.81224e-07
1.0515e-09
6.3675e-06
3.58502e-05
2.68391e-05
9.83205e-23
-3.31366e-31
1.21758e-24
-8.40674e-26
1.22084e-13
7.22711e-13
0.0678356
0.241409
0.183764
2.76681e-18
1.06994e-17
3.1061e-17
6.8294e-17
1.29092e-16
2.20466e-16
2.59618e-16
2.93893e-16
2.52421e-16
1.96739e-16
1.37113e-16
9.44048e-17
6.61365e-17
4.63271e-17
3.23946e-17
2.24643e-17
1.54144e-17
1.05089e-17
7.15006e-18
4.86936e-18
3.3237e-18
2.27431e-18
1.55987e-18
1.0719e-18
7.36919e-19
5.05154e-19
3.44118e-19
2.32133e-19
1.54515e-19
1.01144e-19
6.48101e-20
4.02461e-20
2.36847e-20
1.25418e-20
5.05675e-21
-4.29281e-24
-3.52166e-21
-6.03287e-21
-7.75298e-21
-8.66281e-21
-8.74883e-21
-8.25165e-21
-7.70018e-21
-7.75159e-21
-8.73962e-21
-1.02161e-20
-1.18215e-20
-1.44939e-20
-1.80699e-20
-1.95971e-20
-1.80027e-20
-1.73878e-20
-2.00569e-20
-2.59994e-20
-3.29735e-20
-3.64296e-20
-3.0195e-20
-1.8955e-20
-1.60431e-20
-1.46356e-20
-2.93575e-20
-8.55216e-21
-1.05731e-19
0.0199098
0.0789946
0.159334
0.263509
0.392516
0.536412
0.682241
0.822777
0.902308
0.951972
0.983325
0.997978
1
1
1
1
1
1
1
1
1
1
1
1
1
1
1
1
1
1
1
1
1
1
1
1
1
1
1
1
1
1
1
1
1
1
1
1
1
1
1
1
1
1
1
1
1
1
1
1
1
1
1
1
1
1
1
1
1
1
1
1
1
1
1
1
1
1
1
1
1
1
1
1
1
1
1
1
1
1
1
1
1
1
1
1
1
1
1
1
1
1
1
1
1
1
1
1
1
1
1
1
1
1
1
1
1
1
1
1
1
1
1
1
1
1
1
1
1
1
1
1
1
1
1
1
1
1
1
1
1
1
1
1
1
1
1
1
1
1
1
1
1
1
1
1
1
1
1
1
1
1
1
1
1
1
1
1
1
1
1
1
1
1
1
1
1
1
1
1
1
1
1
1
1
1
1
1
1
1
1
1
1
1
1
1
1
1
1
1
1
1
1
1
1
1
1
1
1
1
1
1
1
1
1
1
1
1
1
1
1
1
1
1
1
1
1
1
1
1
1
1
1
1
1
1
1
1
1
1
1
1
1
1
1
1
1
1
1
1
1
1
1
1
1
1
1
1
1
1
1
1
1
1
1
1
1
1
1
1
1
1
1
1
1
1
1
1
1
1
1
1
1
1
1
1
1
1
1
1
1
1
1
1
1
1
1
1
1
1
1
1
1
1
1
1
1
1
1
1
1
1
1
1
1
1
1
1
1
1
1
1
1
1
1
1
1
1
1
1
1
1
1
1
1
1
1
1
1
1
1
1
1
1
1
1
1
1
1
1
1
1
1
1
1
1
1
1
1
1
1
1
1
1
1
1
0.618476
0.0558889
0.0119349
-3.02461e-20
1.93657e-09
9.22384e-08
1.86647e-07
-1.02417e-24
3.01871e-07
2.40324e-05
4.26261e-05
4.28711e-05
1.62168e-05
-4.57469e-24
2.15074e-06
4.35315e-07
3.06007e-07
6.03054e-11
5.24811e-20
0.00145796
6.33728e-19
3.46748e-18
1.06154e-17
2.31467e-17
4.49729e-17
1.06249e-16
4.6544e-16
4.93254e-16
5.09969e-16
3.97848e-16
3.50081e-16
2.73892e-16
1.99158e-16
1.41896e-16
9.84907e-17
6.6635e-17
4.42188e-17
2.90807e-17
1.91691e-17
1.2759e-17
8.5978e-18
5.86083e-18
4.03193e-18
2.79223e-18
1.94222e-18
1.35391e-18
9.43416e-19
6.55473e-19
4.52994e-19
3.10687e-19
2.11055e-19
1.41752e-19
9.39183e-20
6.11781e-20
3.89506e-20
2.39571e-20
1.38784e-20
7.10575e-21
2.54956e-21
-5.17592e-22
-2.5845e-21
-3.98645e-21
-4.94863e-21
-5.6161e-21
-6.08617e-21
-6.43665e-21
-6.75917e-21
-7.18209e-21
-7.83686e-21
-8.74765e-21
-9.91755e-21
-1.17846e-20
-1.51485e-20
-2.07535e-20
-3.00801e-20
-4.34688e-20
-5.62674e-20
-6.26795e-20
-6.1237e-20
-5.75453e-20
-5.04951e-20
-3.90826e-20
-2.45952e-20
-7.14168e-21
1.76368e-39
-1.04948e-38
-3.48357e-39
1.67575e-36
0
-6.72565e-36
1.11777e-35
0.00631734
0.0962021
0.242531
0.416814
0.592811
0.758637
0.891196
0.957049
0.98936
0.99977
1
1
1
1
1
1
1
1
1
1
1
1
1
1
1
1
1
1
1
1
1
1
1
1
1
1
1
1
1
1
1
1
1
1
1
1
1
1
1
1
1
1
1
1
1
1
1
1
1
1
1
1
1
1
1
1
1
1
1
1
1
1
1
1
1
1
1
1
1
1
1
1
1
1
1
1
1
1
1
1
1
1
1
1
1
1
1
1
1
1
1
1
1
1
1
1
1
1
1
1
1
1
1
1
1
1
1
1
1
1
1
1
1
1
1
1
1
1
1
1
1
1
1
1
1
1
1
1
1
1
1
1
1
1
1
1
1
1
1
1
1
1
1
1
1
1
1
1
1
1
1
1
1
1
1
1
1
1
1
1
1
1
1
1
1
1
1
1
1
1
1
1
1
1
1
1
1
1
1
1
1
1
1
1
1
1
1
1
1
1
1
1
1
1
1
1
1
1
1
1
1
1
1
1
1
1
1
1
1
1
1
1
1
1
1
1
1
1
1
1
1
1
1
1
1
1
1
1
1
1
1
1
1
1
1
1
1
1
1
1
1
1
1
1
1
1
1
1
1
1
1
1
1
1
1
1
1
1
1
1
1
1
1
1
1
1
1
1
1
1
1
1
1
1
1
1
1
1
1
1
1
1
1
1
1
1
1
1
1
1
1
1
1
1
1
1
1
1
1
1
1
1
1
1
1
1
1
1
1
1
1
1
1
1
1
1
1
1
1
1
1
1
1
1
1
1
1
1
1
1
1
1
1
1
1
1
1
1
1
1
1
1
1
1
1
1
1
1
1
0.642137
0.00797886
0.0132143
-1.12939e-38
1.8736e-26
-4.94829e-25
3.44563e-12
6.22651e-29
7.30453e-24
1.7509e-06
2.70107e-05
4.20065e-05
1.69036e-05
-4.85399e-22
4.47432e-05
0.000223459
0.000200746
2.1781e-20
2.02924e-20
1.90105e-20
2.11381e-20
5.96878e-21
8.15643e-21
5.96878e-21
8.15643e-21
2.1007e-14
3.44424e-15
6.90481e-16
6.46119e-16
5.16028e-16
5.6317e-16
5.42288e-16
4.08462e-16
2.99239e-16
2.11229e-16
1.42442e-16
9.30472e-17
6.01253e-17
3.91592e-17
2.5992e-17
1.76227e-17
1.21582e-17
8.48338e-18
5.95213e-18
4.18082e-18
2.93047e-18
2.04457e-18
1.41696e-18
9.7373e-19
6.6244e-19
4.45511e-19
2.95817e-19
1.9369e-19
1.2489e-19
7.91662e-20
4.91969e-20
2.982e-20
1.74582e-20
9.67719e-21
4.8406e-21
1.85563e-21
1.62113e-24
-1.18043e-21
-1.97031e-21
-2.53371e-21
-2.96718e-21
-3.32844e-21
-3.65655e-21
-3.98629e-21
-4.35841e-21
-4.82495e-21
-5.44728e-21
-6.28203e-21
-7.37842e-21
-8.90043e-21
-1.14624e-20
-1.61859e-20
-2.40227e-20
-3.47594e-20
-4.67701e-20
-5.73991e-20
-6.2833e-20
-5.84454e-20
-3.61498e-20
1.91108e-20
1.58077e-19
4.72571e-19
1.03565e-18
1.81891e-18
2.36698e-18
2.0626e-18
3.0493e-35
-9.21323e-35
2.54103e-34
7.35317e-35
-5.81969e-17
-3.35339e-17
0.0427382
0.225339
0.457237
0.66189
0.835574
0.944189
0.988769
0.999937
1
1
1
1
1
1
1
1
1
1
1
1
1
1
1
1
1
1
1
1
1
1
1
1
1
1
1
1
1
1
1
1
1
1
1
1
1
1
1
1
1
1
1
1
1
1
1
1
1
1
1
1
1
1
1
1
1
1
1
1
1
1
1
1
1
1
1
1
1
1
1
1
1
1
1
1
1
1
1
1
1
1
1
1
1
1
1
1
1
1
1
1
1
1
1
1
1
1
1
1
1
1
1
1
1
1
1
1
1
1
1
1
1
1
1
1
1
1
1
1
1
1
1
1
1
1
1
1
1
1
1
1
1
1
1
1
1
1
1
1
1
1
1
1
1
1
1
1
1
1
1
1
1
1
1
1
1
1
1
1
1
1
1
1
1
1
1
1
1
1
1
1
1
1
1
1
1
1
1
1
1
1
1
1
1
1
1
1
1
1
1
1
1
1
1
1
1
1
1
1
1
1
1
1
1
1
1
1
1
1
1
1
1
1
1
1
1
1
1
1
1
1
1
1
1
1
1
1
1
1
1
1
1
1
1
1
1
1
1
1
1
1
1
1
1
1
1
1
1
1
1
1
1
1
1
1
1
1
1
1
1
1
1
1
1
1
1
1
1
1
1
1
1
1
1
1
1
1
1
1
1
1
1
1
1
1
1
1
1
1
1
1
1
1
1
1
1
1
1
1
1
1
1
1
1
1
1
1
1
1
1
1
1
1
1
1
1
1
1
1
1
1
1
1
1
1
1
1
1
1
1
1
1
1
1
1
1
1
1
1
1
1
1
1
1
0.651316
0.00789369
0.00277308
-4.43267e-23
7.9545e-06
2.98611e-05
2.46585e-25
7.68998e-11
3.19974e-10
8.90023e-29
1.62232e-28
3.63161e-31
1.07497e-30
2.84646e-23
6.22572e-05
0.000537054
0.000537143
0.0005599
1.27725e-05
4.72662e-07
1.3466e-09
4.35292e-13
1.24758e-13
6.11359e-13
1.40652e-12
4.49735e-13
2.04923e-14
7.63413e-16
7.56898e-16
6.47051e-16
1.19054e-15
1.2578e-15
8.58217e-16
6.11289e-16
4.28467e-16
2.8598e-16
1.84406e-16
1.18045e-16
7.68219e-17
5.14805e-17
3.55265e-17
2.50402e-17
1.78445e-17
1.27545e-17
9.09633e-18
6.45283e-18
4.54355e-18
3.17005e-18
2.18826e-18
1.49239e-18
1.00431e-18
6.6619e-19
4.35218e-19
2.79833e-19
1.7698e-19
1.10029e-19
6.71835e-20
4.02302e-20
2.35655e-20
1.34337e-20
7.36063e-21
3.74997e-21
1.60081e-21
3.04115e-22
-5.02329e-22
-1.03086e-21
-1.40524e-21
-1.69802e-21
-1.95309e-21
-2.19969e-21
-2.46124e-21
-2.75977e-21
-3.11557e-21
-3.54592e-21
-4.06967e-21
-4.72138e-21
-5.57413e-21
-6.7843e-21
-8.66088e-21
-1.17231e-20
-1.66372e-20
-2.38192e-20
-3.21781e-20
-3.42879e-20
1.2907e-21
1.72949e-19
7.14265e-19
2.06369e-18
4.85698e-18
9.21673e-18
1.53939e-17
2.63971e-17
5.06278e-17
7.4539e-17
8.05028e-17
-1.26166e-16
-2.2632e-16
-1.40967e-16
-4.97266e-17
-1.27387e-17
-2.50786e-18
-1.57565e-14
0.130684
0.417715
0.665372
0.847275
0.958232
0.99624
1
1
1
1
1
1
1
1
1
1
1
1
1
1
1
1
1
1
1
1
1
1
1
1
1
1
1
1
1
1
1
1
1
1
1
1
1
1
1
1
1
1
1
1
1
1
1
1
1
1
1
1
1
1
1
1
1
1
1
1
1
1
1
1
1
1
1
1
1
1
1
1
1
1
1
1
1
1
1
1
1
1
1
1
1
1
1
1
1
1
1
1
1
1
1
1
1
1
1
1
1
1
1
1
1
1
1
1
1
1
1
1
1
1
1
1
1
1
1
1
1
1
1
1
1
1
1
1
1
1
1
1
1
1
1
1
1
1
1
1
1
1
1
1
1
1
1
1
1
1
1
1
1
1
1
1
1
1
1
1
1
1
1
1
1
1
1
1
1
1
1
1
1
1
1
1
1
1
1
1
1
1
1
1
1
1
1
1
1
1
1
1
1
1
1
1
1
1
1
1
1
1
1
1
1
1
1
1
1
1
1
1
1
1
1
1
1
1
1
1
1
1
1
1
1
1
1
1
1
1
1
1
1
1
1
1
1
1
1
1
1
1
1
1
1
1
1
1
1
1
1
1
1
1
1
1
1
1
1
1
1
1
1
1
1
1
1
1
1
1
1
1
1
1
1
1
1
1
1
1
1
1
1
1
1
1
1
1
1
1
1
1
1
1
1
1
1
1
1
1
1
1
1
1
1
1
1
1
1
1
1
1
1
1
1
1
1
1
1
1
1
1
1
1
1
1
1
1
1
1
1
1
1
1
1
1
1
1
1
1
1
1
0.652994
0.00304881
1.9748e-20
5.55843e-06
7.674e-05
7.69407e-05
1.1451e-06
-4.22974e-28
1.09707e-09
2.0302e-09
1.50344e-09
-9.86832e-28
1.41254e-12
-7.3946e-29
-1.21038e-31
5.11596e-21
0.000502735
0.00278075
0.00318667
0.00176133
4.71687e-12
4.82992e-12
4.61231e-11
3.10059e-11
1.16265e-11
1.39736e-12
1.95451e-15
3.49159e-15
1.49374e-14
2.36689e-14
1.37285e-14
4.42649e-15
1.79445e-15
1.18163e-15
8.01369e-16
5.15386e-16
3.21551e-16
2.01997e-16
1.31602e-16
8.99431e-17
6.39645e-17
4.65075e-17
3.40324e-17
2.48291e-17
1.79841e-17
1.29115e-17
9.18032e-18
6.45851e-18
4.49019e-18
3.08046e-18
2.08221e-18
1.38491e-18
9.05461e-19
5.81582e-19
3.66895e-19
2.27351e-19
1.38426e-19
8.28601e-20
4.87979e-20
2.82931e-20
1.61467e-20
9.0418e-21
4.91873e-21
2.53105e-21
1.14037e-21
3.16092e-22
-1.90387e-22
-5.2186e-22
-7.60442e-22
-9.53958e-22
-1.13128e-21
-1.31106e-21
-1.50627e-21
-1.7269e-21
-1.98283e-21
-2.28825e-21
-2.66813e-21
-3.16952e-21
-3.88016e-21
-4.95025e-21
-6.60399e-21
-9.07449e-21
-1.20232e-20
-1.12429e-20
1.47017e-20
1.43815e-19
6.01326e-19
1.93486e-18
5.30839e-18
1.22665e-17
2.52297e-17
5.1998e-17
1.07266e-16
1.92476e-16
2.76345e-16
2.26528e-16
7.5721e-17
-8.72415e-18
-1.08224e-17
-2.50451e-18
-3.28583e-18
-1.12979e-19
1.05311e-26
-3.60459e-26
1.51608e-42
-2.26204e-19
0.158927
0.503647
0.754046
0.918845
0.988674
1
1
1
1
1
1
1
1
1
1
1
1
1
1
1
1
1
1
1
1
1
1
1
1
1
1
1
1
1
1
1
1
1
1
1
1
1
1
1
1
1
1
1
1
1
1
1
1
1
1
1
1
1
1
1
1
1
1
1
1
1
1
1
1
1
1
1
1
1
1
1
1
1
1
1
1
1
1
1
1
1
1
1
1
1
1
1
1
1
1
1
1
1
1
1
1
1
1
1
1
1
1
1
1
1
1
1
1
1
1
1
1
1
1
1
1
1
1
1
1
1
1
1
1
1
1
1
1
1
1
1
1
1
1
1
1
1
1
1
1
1
1
1
1
1
1
1
1
1
1
1
1
1
1
1
1
1
1
1
1
1
1
1
1
1
1
1
1
1
1
1
1
1
1
1
1
1
1
1
1
1
1
1
1
1
1
1
1
1
1
1
1
1
1
1
1
1
1
1
1
1
1
1
1
1
1
1
1
1
1
1
1
1
1
1
1
1
1
1
1
1
1
1
1
1
1
1
1
1
1
1
1
1
1
1
1
1
1
1
1
1
1
1
1
1
1
1
1
1
1
1
1
1
1
1
1
1
1
1
1
1
1
1
1
1
1
1
1
1
1
1
1
1
1
1
1
1
1
1
1
1
1
1
1
1
1
1
1
1
1
1
1
1
1
1
1
1
1
1
1
1
1
1
1
1
1
1
1
1
1
1
1
1
1
1
1
1
1
1
1
1
1
1
1
1
1
1
1
1
1
1
1
1
1
1
1
1
1
1
0.181747
0
7.02117e-22
5.74841e-06
7.55015e-05
6.1294e-05
3.37818e-06
7.97117e-24
-5.73465e-27
1.14145e-25
2.32039e-27
1.28193e-09
6.73394e-11
2.41225e-11
4.72588e-13
3.55544e-28
-2.69003e-28
1.62392e-20
0.00435771
0.00514896
0.00159952
4.71687e-12
2.51007e-11
1.50081e-11
5.36308e-12
7.96314e-13
6.39135e-13
5.81628e-13
4.39184e-13
2.34625e-13
7.7078e-14
1.27594e-14
2.73908e-15
1.99678e-15
1.37381e-15
8.49675e-16
5.09096e-16
3.13988e-16
2.06996e-16
1.46532e-16
1.08669e-16
8.18743e-17
6.14506e-17
4.56053e-17
3.34453e-17
2.42698e-17
1.74405e-17
1.24067e-17
8.72457e-18
6.05182e-18
4.13079e-18
2.76859e-18
1.81929e-18
1.17115e-18
7.38442e-19
4.56219e-19
2.76399e-19
1.64407e-19
9.61596e-20
5.54015e-20
3.14964e-20
1.76895e-20
9.81148e-21
5.35571e-21
2.84798e-21
1.43653e-21
6.35828e-22
1.71808e-22
-1.0928e-22
-2.93525e-22
-4.29355e-22
-5.44404e-22
-6.54906e-22
-7.70984e-22
-9.00044e-22
-1.04964e-21
-1.2307e-21
-1.46189e-21
-1.77572e-21
-2.2255e-21
-2.89032e-21
-3.8425e-21
-4.75998e-21
-2.47804e-21
1.96188e-20
1.25495e-19
5.1128e-19
1.68076e-18
4.77699e-18
1.16035e-17
2.48645e-17
5.14259e-17
1.06926e-16
2.08261e-16
3.46799e-16
4.75311e-16
5.34394e-16
4.96313e-16
3.55695e-16
1.74719e-16
1.3471e-17
0
5.73128e-09
1.1243e-08
8.27021e-10
-1.09703e-25
-6.15058e-21
-3.72356e-21
-8.52851e-22
0.0224776
0.362812
0.702306
0.898267
0.986006
1
1
1
1
1
1
1
1
1
1
1
1
1
1
1
1
1
1
1
1
1
1
1
1
1
1
1
1
1
1
1
1
1
1
1
1
1
1
1
1
1
1
1
1
1
1
1
1
1
1
1
1
1
1
1
1
1
1
1
1
1
1
1
1
1
1
1
1
1
1
1
1
1
1
1
1
1
1
1
1
1
1
1
1
1
1
1
1
1
1
1
1
1
1
1
1
1
1
1
1
1
1
1
1
1
1
1
1
1
1
1
1
1
1
1
1
1
1
1
1
1
1
1
1
1
1
1
1
1
1
1
1
1
1
1
1
1
1
1
1
1
1
1
1
1
1
1
1
1
1
1
1
1
1
1
1
1
1
1
1
1
1
1
1
1
1
1
1
1
1
1
1
1
1
1
1
1
1
1
1
1
1
1
1
1
1
1
1
1
1
1
1
1
1
1
1
1
1
1
1
1
1
1
1
1
1
1
1
1
1
1
1
1
1
1
1
1
1
1
1
1
1
1
1
1
1
1
1
1
1
1
1
1
1
1
1
1
1
1
1
1
1
1
1
1
1
1
1
1
1
1
1
1
1
1
1
1
1
1
1
1
1
1
1
1
1
1
1
1
1
1
1
1
1
1
1
1
1
1
1
1
1
1
1
1
1
1
1
1
1
1
1
1
1
1
1
1
1
1
1
1
1
1
1
1
1
1
1
1
1
1
1
1
1
1
1
1
1
1
1
1
1
1
1
1
1
1
1
1
1
1
1
1
1
1
1
0.00476961
0.00214547
0.000300455
-3.1233e-22
7.0097e-06
4.17816e-06
5.12621e-07
8.34652e-08
3.66611e-07
3.72618e-07
1.60476e-07
4.0503e-10
5.96033e-11
1.76521e-10
2.437e-11
9.63745e-11
1.99551e-10
-1.23826e-26
5.32562e-21
0.00351588
0.00721597
0.00131047
4.51188e-14
4.51188e-14
1.30322e-13
2.44823e-12
3.37137e-12
2.94967e-12
1.83962e-12
8.01732e-13
2.09132e-13
1.88974e-14
3.42904e-15
2.90748e-15
2.09324e-15
1.25575e-15
7.26283e-16
4.45912e-16
3.0381e-16
2.26545e-16
1.76002e-16
1.36706e-16
1.04351e-16
7.82174e-17
5.78671e-17
4.2461e-17
3.09613e-17
2.24185e-17
1.60816e-17
1.13856e-17
7.92094e-18
5.39469e-18
3.5882e-18
2.32822e-18
1.47362e-18
9.10484e-19
5.49857e-19
3.25137e-19
1.88629e-19
1.07611e-19
6.05083e-20
3.36036e-20
1.84611e-20
1.00393e-20
5.39865e-21
2.85832e-21
1.47255e-21
7.15593e-22
2.97954e-22
6.13185e-23
-8.0522e-23
-1.74487e-22
-2.46256e-22
-3.10152e-22
-3.74628e-22
-4.45534e-22
-5.28454e-22
-6.31022e-22
-7.65801e-22
-9.53864e-22
-1.22828e-21
-1.62319e-21
-1.99609e-21
-6.91013e-22
1.22695e-20
8.03305e-20
3.51181e-19
1.23443e-18
3.7009e-18
9.56791e-18
2.18138e-17
4.56175e-17
8.95344e-17
1.62842e-16
2.65929e-16
3.80676e-16
4.73745e-16
5.14725e-16
4.86566e-16
3.76424e-16
2.22889e-16
7.59336e-17
6.70127e-17
2.79727e-08
1.13631e-07
5.03794e-08
-2.04229e-24
-2.94029e-25
-2.20201e-26
-1.31591e-30
-1.82296e-30
-4.56381e-30
0
0.294984
0.70161
0.913009
0.992109
1
1
1
1
1
1
1
1
1
1
1
1
1
1
1
1
1
1
1
1
1
1
1
1
1
1
1
1
1
1
1
1
1
1
1
1
1
1
1
1
1
1
1
1
1
1
1
1
1
1
1
1
1
1
1
1
1
1
1
1
1
1
1
1
1
1
1
1
1
1
1
1
1
1
1
1
1
1
1
1
1
1
1
1
1
1
1
1
1
1
1
1
1
1
1
1
1
1
1
1
1
1
1
1
1
1
1
1
1
1
1
1
1
1
1
1
1
1
1
1
1
1
1
1
1
1
1
1
1
1
1
1
1
1
1
1
1
1
1
1
1
1
1
1
1
1
1
1
1
1
1
1
1
1
1
1
1
1
1
1
1
1
1
1
1
1
1
1
1
1
1
1
1
1
1
1
1
1
1
1
1
1
1
1
1
1
1
1
1
1
1
1
1
1
1
1
1
1
1
1
1
1
1
1
1
1
1
1
1
1
1
1
1
1
1
1
1
1
1
1
1
1
1
1
1
1
1
1
1
1
1
1
1
1
1
1
1
1
1
1
1
1
1
1
1
1
1
1
1
1
1
1
1
1
1
1
1
1
1
1
1
1
1
1
1
1
1
1
1
1
1
1
1
1
1
1
1
1
1
1
1
1
1
1
1
1
1
1
1
1
1
1
1
1
1
1
1
1
1
1
1
1
1
1
1
1
1
1
1
1
1
1
1
1
1
1
1
1
1
1
1
1
1
1
1
1
1
1
1
1
1
1
1
0.631225
0.0538259
-1.05294e-19
-7.04703e-22
1.40105e-23
1.33276e-23
2.84037e-24
8.41685e-09
1.41977e-24
1.5587e-07
3.36973e-07
3.48947e-07
5.80227e-08
1.08363e-13
6.1147e-31
7.47933e-10
6.49471e-09
1.85931e-09
4.88006e-26
-1.93177e-21
0.00720365
0.00721022
0.000894079
4.51188e-14
1.85795e-12
4.53904e-12
5.60702e-12
5.6064e-12
3.96592e-12
1.67564e-12
3.70716e-13
1.55474e-14
4.1815e-15
3.8111e-15
2.84489e-15
1.64127e-15
9.29562e-16
5.83232e-16
4.20607e-16
3.31916e-16
2.669e-16
2.10173e-16
1.61071e-16
1.21196e-16
9.05228e-17
6.75827e-17
5.05333e-17
3.77234e-17
2.8006e-17
2.05466e-17
1.4771e-17
1.03386e-17
7.02164e-18
4.62272e-18
2.95146e-18
1.82997e-18
1.10396e-18
6.4948e-19
3.73593e-19
2.10694e-19
1.16826e-19
6.38601e-20
3.44943e-20
1.84461e-20
9.77699e-21
5.13669e-21
2.67036e-21
1.36593e-21
6.77427e-22
3.12831e-22
1.17011e-22
7.94597e-24
-5.76203e-23
-1.02545e-22
-1.39079e-22
-1.74125e-22
-2.12168e-22
-2.57117e-22
-3.13763e-22
-3.89289e-22
-4.94941e-22
-6.45526e-22
-8.19456e-22
-5.06292e-22
4.38293e-21
3.56659e-20
1.79808e-19
7.06654e-19
2.30514e-18
6.45229e-18
1.5803e-17
3.42582e-17
6.62439e-17
1.15029e-16
1.80524e-16
2.57249e-16
3.33562e-16
3.93196e-16
4.19335e-16
4.00621e-16
3.29719e-16
2.08434e-16
7.70127e-17
6.70126e-17
1.05911e-07
1.82753e-06
1.45163e-06
2.25613e-07
2.20095e-25
5.82902e-13
2.25666e-12
4.87272e-13
-8.05539e-28
-4.83324e-31
7.46298e-28
-1.37462e-18
0.338809
0.761091
0.953298
0.998889
1
1
1
1
1
1
1
1
1
1
1
1
1
1
1
1
1
1
1
1
1
1
1
1
1
1
1
1
1
1
1
1
1
1
1
1
1
1
1
1
1
1
1
1
1
1
1
1
1
1
1
1
1
1
1
1
1
1
1
1
1
1
1
1
1
1
1
1
1
1
1
1
1
1
1
1
1
1
1
1
1
1
1
1
1
1
1
1
1
1
1
1
1
1
1
1
1
1
1
1
1
1
1
1
1
1
1
1
1
1
1
1
1
1
1
1
1
1
1
1
1
1
1
1
1
1
1
1
1
1
1
1
1
1
1
1
1
1
1
1
1
1
1
1
1
1
1
1
1
1
1
1
1
1
1
1
1
1
1
1
1
1
1
1
1
1
1
1
1
1
1
1
1
1
1
1
1
1
1
1
1
1
1
1
1
1
1
1
1
1
1
1
1
1
1
1
1
1
1
1
1
1
1
1
1
1
1
1
1
1
1
1
1
1
1
1
1
1
1
1
1
1
1
1
1
1
1
1
1
1
1
1
1
1
1
1
1
1
1
1
1
1
1
1
1
1
1
1
1
1
1
1
1
1
1
1
1
1
1
1
1
1
1
1
1
1
1
1
1
1
1
1
1
1
1
1
1
1
1
1
1
1
1
1
1
1
1
1
1
1
1
1
1
1
1
1
1
1
1
1
1
1
1
1
1
1
1
1
1
1
1
1
1
1
1
1
1
1
1
1
1
1
1
1
1
1
1
1
1
1
0.745787
0.00327693
-2.44447e-20
-7.48134e-21
4.65257e-23
-1.02832e-22
5.6147e-21
-4.78583e-27
-9.58031e-28
-8.6869e-25
1.78061e-07
3.36973e-07
3.27041e-07
2.28659e-08
1.48317e-25
7.58973e-10
1.44912e-08
1.15914e-08
7.92517e-28
5.12698e-06
0.00154961
0.00723791
0.00579568
0.000621264
1.90151e-12
1.89813e-12
4.56595e-12
5.432e-12
4.8065e-12
2.36127e-12
6.56999e-13
8.50595e-14
1.56778e-14
6.7633e-15
3.60567e-15
1.84155e-15
1.06382e-15
7.08498e-16
5.46303e-16
4.43401e-16
3.56107e-16
2.7747e-16
2.11292e-16
1.59806e-16
1.22394e-16
9.47753e-17
7.42163e-17
5.83174e-17
4.57999e-17
3.56327e-17
2.69696e-17
1.9653e-17
1.3749e-17
9.24101e-18
5.97981e-18
3.73504e-18
2.25808e-18
1.32514e-18
7.57091e-19
4.22406e-19
2.30867e-19
1.23991e-19
6.56286e-20
3.43257e-20
1.778e-20
9.13542e-21
4.65987e-21
2.35893e-21
1.18213e-21
5.82186e-22
2.76317e-22
1.19288e-22
3.6856e-23
-8.82789e-24
-3.70744e-23
-5.78544e-23
-7.65485e-23
-9.64487e-23
-1.20166e-22
-1.50563e-22
-1.91534e-22
-2.48777e-22
-3.27627e-22
-3.34913e-22
9.58594e-22
1.19808e-20
7.21717e-20
3.20776e-19
1.14941e-18
3.4636e-18
9.01153e-18
2.06093e-17
4.19477e-17
7.66317e-17
1.26363e-16
1.88792e-16
2.56282e-16
3.16918e-16
3.5773e-16
3.68183e-16
3.39806e-16
2.63854e-16
1.39535e-16
6.70817e-17
6.70126e-17
2.50202e-06
4.41045e-06
3.7094e-06
6.15975e-07
6.82867e-13
3.06689e-12
4.23459e-13
1.38271e-10
3.16941e-11
6.9904e-10
-4.68424e-26
-1.03156e-27
-2.05412e-26
0.0268888
0.500466
0.861776
0.988001
1
1
1
1
1
1
1
1
1
1
1
1
1
1
1
1
1
1
1
1
1
1
1
1
1
1
1
1
1
1
1
1
1
1
1
1
1
1
1
1
1
1
1
1
1
1
1
1
1
1
1
1
1
1
1
1
1
1
1
1
1
1
1
1
1
1
1
1
1
1
1
1
1
1
1
1
1
1
1
1
1
1
1
1
1
1
1
1
1
1
1
1
1
1
1
1
1
1
1
1
1
1
1
1
1
1
1
1
1
1
1
1
1
1
1
1
1
1
1
1
1
1
1
1
1
1
1
1
1
1
1
1
1
1
1
1
1
1
1
1
1
1
1
1
1
1
1
1
1
1
1
1
1
1
1
1
1
1
1
1
1
1
1
1
1
1
1
1
1
1
1
1
1
1
1
1
1
1
1
1
1
1
1
1
1
1
1
1
1
1
1
1
1
1
1
1
1
1
1
1
1
1
1
1
1
1
1
1
1
1
1
1
1
1
1
1
1
1
1
1
1
1
1
1
1
1
1
1
1
1
1
1
1
1
1
1
1
1
1
1
1
1
1
1
1
1
1
1
1
1
1
1
1
1
1
1
1
1
1
1
1
1
1
1
1
1
1
1
1
1
1
1
1
1
1
1
1
1
1
1
1
1
1
1
1
1
1
1
1
1
1
1
1
1
1
1
1
1
1
1
1
1
1
1
1
1
1
1
1
1
1
1
1
1
1
1
1
1
1
1
1
1
1
1
1
1
1
1
0.745787
0.24672
0.0092484
1.95065e-20
0.000918881
0.000977921
0.0165166
0.017008
0.000948881
-3.29213e-21
2.99889e-21
1.77133e-07
1.86449e-07
1.83509e-08
2.13094e-25
2.02507e-28
1.32413e-08
1.4927e-08
3.42708e-09
5.31028e-21
1.90869e-21
0.00293062
0.00567364
0.00488839
0.000848676
8.08961e-07
1.19172e-12
2.92537e-12
2.66106e-12
2.20373e-12
2.08773e-12
1.47816e-12
6.249e-13
1.24424e-13
3.72638e-15
1.27846e-15
1.01515e-15
7.75316e-16
6.32895e-16
4.88077e-16
3.78074e-16
3.0351e-16
2.39102e-16
1.85814e-16
1.42217e-16
1.1272e-16
9.53269e-17
8.13071e-17
6.96592e-17
5.96964e-17
4.87089e-17
3.73572e-17
2.70395e-17
1.85922e-17
1.22138e-17
7.70119e-18
4.67868e-18
2.74795e-18
1.5652e-18
8.67215e-19
4.68812e-19
2.48037e-19
1.2883e-19
6.58872e-20
3.32735e-20
1.66345e-20
8.2499e-21
4.06516e-21
1.99161e-21
9.69519e-22
4.6741e-22
2.20987e-22
9.96231e-23
3.90289e-23
7.63829e-24
-1.00668e-23
-2.17994e-23
-3.15465e-23
-4.16091e-23
-5.36652e-23
-6.93848e-23
-9.08611e-23
-1.20965e-22
-1.43636e-22
1.76479e-22
3.62334e-21
2.49839e-20
1.21598e-19
4.66922e-19
1.48607e-18
4.04042e-18
9.58052e-18
2.01076e-17
3.7763e-17
6.39846e-17
9.84469e-17
1.38322e-16
1.78452e-16
2.12559e-16
2.34958e-16
2.40835e-16
2.23801e-16
1.745e-16
8.61108e-17
6.70817e-17
6.70127e-17
4.03321e-06
4.53283e-06
4.53282e-06
8.71539e-07
2.99437e-12
2.88786e-12
1.63487e-10
4.38257e-12
3.7477e-09
1.35498e-08
2.36878e-09
-1.43673e-24
7.09159e-27
-3.13593e-17
-3.63473e-16
0.18217
0.712074
0.962046
0.999212
1
1
1
1
1
1
1
1
1
1
1
1
1
1
1
1
1
1
1
1
1
1
1
1
1
1
1
1
1
1
1
1
1
1
1
1
1
1
1
1
1
1
1
1
1
1
1
1
1
1
1
1
1
1
1
1
1
1
1
1
1
1
1
1
1
1
1
1
1
1
1
1
1
1
1
1
1
1
1
1
1
1
1
1
1
1
1
1
1
1
1
1
1
1
1
1
1
1
1
1
1
1
1
1
1
1
1
1
1
1
1
1
1
1
1
1
1
1
1
1
1
1
1
1
1
1
1
1
1
1
1
1
1
1
1
1
1
1
1
1
1
1
1
1
1
1
1
1
1
1
1
1
1
1
1
1
1
1
1
1
1
1
1
1
1
1
1
1
1
1
1
1
1
1
1
1
1
1
1
1
1
1
1
1
1
1
1
1
1
1
1
1
1
1
1
1
1
1
1
1
1
1
1
1
1
1
1
1
1
1
1
1
1
1
1
1
1
1
1
1
1
1
1
1
1
1
1
1
1
1
1
1
1
1
1
1
1
1
1
1
1
1
1
1
1
1
1
1
1
1
1
1
1
1
1
1
1
1
1
1
1
1
1
1
1
1
1
1
1
1
1
1
1
1
1
1
1
1
1
1
1
1
1
1
1
1
1
1
1
1
1
1
1
1
1
1
1
1
1
1
1
1
1
1
1
1
1
1
1
1
1
1
1
1
1
1
1
1
1
1
1
1
1
1
1
0.745787
0.265372
0.00267347
7.02074e-21
0.109745
0.252894
0.252102
0.250617
0.210758
0.0297498
-6.31277e-20
1.38233e-19
5.65806e-09
3.45573e-09
3.79994e-10
1.36556e-26
1.0082e-08
6.56279e-09
-4.02071e-26
0.000354779
0.000397909
0.000175836
0.00113712
0.00414036
0.00426911
0.00146944
1.576e-05
3.1263e-13
3.1263e-13
1.05846e-12
5.31897e-12
5.65538e-12
2.96182e-12
7.30356e-13
2.27923e-14
1.21388e-15
9.15678e-16
7.17173e-16
5.93122e-16
4.85471e-16
2.51981e-14
1.30091e-13
1.43614e-13
7.82795e-14
1.69435e-14
2.31162e-16
1.0973e-16
9.96763e-17
9.70195e-17
9.89635e-17
8.93218e-17
7.21332e-17
5.3703e-17
3.75563e-17
2.49438e-17
1.58438e-17
9.67117e-18
5.69415e-18
3.24367e-18
1.79264e-18
9.63688e-19
5.05247e-19
2.59034e-19
1.30223e-19
6.43746e-20
3.13797e-20
1.51239e-20
7.22504e-21
3.42856e-21
1.61875e-21
7.60972e-22
3.55871e-22
1.64795e-22
7.44802e-23
3.14131e-23
1.03579e-23
-6.05596e-25
-7.16617e-24
-1.21315e-23
-1.70245e-23
-2.28637e-23
-3.05742e-23
-4.12389e-23
-5.18352e-23
2.41225e-23
9.8165e-22
7.33428e-21