/*--------------------------------*- C++ -*----------------------------------*\
| =========                 |                                                 |
| \\      /  F ield         | OpenFOAM: The Open Source CFD Toolbox           |
|  \\    /   O peration     | Version:  v2006                                 |
|   \\  /    A nd           | Website:  www.openfoam.com                      |
|    \\/     M anipulation  |                                                 |
\*---------------------------------------------------------------------------*/
FoamFile
{
    version     2.0;
    format      ascii;
    class       volScalarField;
    location    "9.9";
    object      p;
}
// * * * * * * * * * * * * * * * * * * * * * * * * * * * * * * * * * * * * * //

dimensions      [1 -1 -2 0 0 0 0];


internalField   nonuniform List<scalar> 
150000
(
16997.9
16998.5
16999.6
17001.4
17003.7
17006.6
17010.1
17014.3
17019
17024.3
17030.2
17036.8
17043.9
17051.7
17060
17069
17078.5
17088.6
17099.3
17110.6
17122.5
17134.9
17148
17161.6
17175.7
17190.4
17205.6
17221.4
17237.7
17254.5
17271.9
17289.8
17308.1
17327
17346.4
17366.2
17386.5
17407.2
17428.5
17450.1
17472.2
17494.7
17517.6
17540.9
17564.5
17588.6
17613
17637.7
17662.7
17688.1
17713.8
17739.7
17765.9
17792.3
17819
17845.9
17873
17900.4
17927.8
17955.5
17983.3
18011.2
18039.3
18067.4
18095.6
18123.9
18152.2
18180.5
18208.8
18237.1
18265.3
18293.6
18321.8
18349.9
18378
18406
18434
18461.8
18489.6
18517.3
18544.8
18572.3
18599.7
18626.9
18654.1
18681.1
18708
18734.8
18761.4
18788
18814.4
18840.7
18866.9
18893
18918.9
18944.8
18970.5
18996
19021.5
19046.8
19071.9
19097
19121.8
19146.5
19171.1
19195.5
19219.7
19243.7
19267.6
19291.4
19315.1
19338.8
19362.3
19385.6
19408.9
19431.9
19454.9
19477.6
19500.2
19522.7
19544.9
19567.1
19589
19610.8
19632.4
19653.9
19675.1
19696.2
19717.1
19737.9
19758.4
19778.8
19799
19819
19838.8
19858.4
19877.9
19897.1
19916.2
19935.1
19953.7
19972.2
19990.4
20008.5
20026.4
20044.1
20061.7
20079.1
20096.2
20113.2
20130
20146.7
20163.2
20179.6
20195.8
20211.7
20227.5
20243.1
20258.4
20273.6
20288.7
20303.5
20318.3
20332.8
20347.1
20361.2
20375.2
20388.9
20402.5
20415.8
20429
20442
20454.8
20467.4
20479.8
20492
20504
20515.8
20527.4
20538.7
20549.9
20560.8
20571.5
20581.9
20592.2
20602.2
20611.9
20621.4
20630.7
20639.8
20648.6
20657.1
20665.4
20673.5
20681.3
20688.9
20696.3
20703.4
20710.3
20717
20723.4
20729.7
20735.7
20741.6
20747.2
20752.7
20758
20763.1
20768.1
20773
20777.7
20782.3
20786.8
20791.2
20795.6
20799.9
20804.2
20808.4
20812.7
20817
20821.5
20826.2
20831
20835.8
20840.5
20845
20849
20852.8
20856.7
20861.2
20866.4
20872.1
20878.1
20884.1
20890.1
20896.1
20902.4
20908.9
20915.7
20922.7
20929.9
20937.3
20945
20952.8
20960.9
20969.2
20977.7
20986.3
20995
21003.8
21012.7
21021.8
21030.9
21040.2
21049.6
21059.2
21068.8
21078.5
21088.3
21098.1
21108
21117.8
21127.7
21137.5
21147.4
21157.4
21167.4
21177.5
21187.5
21197.5
21207.5
21217.4
21227.2
21236.9
21246.6
21256.2
21265.6
21275
21284.2
21293.3
21302.3
21311
21319.7
21328.1
21336.4
21344.5
21352.5
21360.2
21367.8
21375.2
21382.4
21389.4
21396.1
21402.7
21409
21415.2
21421.1
21426.8
21432.2
21437.4
21442.4
21447.2
21451.7
21456
21460
21463.8
21467.4
21470.7
21473.8
21476.7
21479.3
21481.7
21483.9
21485.8
21487.6
21489.1
21490.4
21491.5
21492.4
21493.1
21493.6
21494
21494.1
21494.1
21494
21493.7
21493.3
21492.8
21492.2
21491.4
21490.6
21489.8
21488.8
21487.9
21486.9
21486
21485
21484.1
21483.2
21482.5
21481.8
21481.2
21480.7
21480.4
21480.3
21480.4
21480.6
21481.1
21481.9
21483
21484.3
21486
21488
21490.4
21493.2
21496.3
21499.9
21504
21508.5
21513.6
21519.1
21525.2
21531.9
21539.1
21546.9
21555.4
21564.4
21574.2
21584.6
21595.7
21607.6
21620.1
21633.4
21647.5
21662.4
21678
21694.5
21711.8
21729.9
21748.9
21768.8
21789.5
21811.1
21833.6
21857
21881.3
21906.6
21932.7
21959.8
21987.8
22016.8
22046.7
22077.6
22109.4
22142.1
22175.8
22210.5
22246.1
22282.6
22320.1
22358.5
22397.9
22438.2
22479.4
22521.5
22564.6
22608.5
22653.3
22699
22745.5
22793
22841.2
22890.3
22940.2
22990.8
23042.1
23094.2
23147
23200.6
23254.9
23309.9
23365.5
23421.8
23478.7
23536.2
23594.2
23652.7
23711.7
23771.2
23831.1
23891.4
23952.1
24013.1
24074.4
24136.1
24197.9
24259.9
24322.1
24384.4
24446.9
24509.3
24571.8
24634.2
24696.5
24758.8
24820.8
24882.7
24944.4
25005.7
25066.8
25127.5
25187.9
25247.8
25307.3
25366.3
25424.7
25482.6
25539.8
25596.3
25652.2
25707.3
25761.6
25815.1
25867.7
25919.4
25970.2
26020
26068.8
26116.6
26163.2
26208.8
26253.2
26296.4
26338.4
26379.1
26418.6
26456.7
26493.5
26529
26563
26595.6
26626.8
26656.5
26684.7
26711.3
26736.4
26759.9
26781.9
26802.2
26820.8
26837.8
26853.1
26866.7
26878.6
26888.8
26897.3
26904
26909
26912.4
26914.2
16670.5
16671.1
16672.2
16674
16676.3
16679.2
16682.7
16686.8
16691.5
16696.8
16702.8
16709.3
16716.5
16724.2
16732.6
16741.5
16751.1
16761.2
16771.9
16783.2
16795.1
16807.5
16820.5
16834.1
16848.3
16863
16878.2
16894
16910.3
16927.1
16944.5
16962.4
16980.8
16999.6
17019
17038.8
17059.1
17079.9
17101.1
17122.7
17144.8
17167.3
17190.2
17213.5
17237.2
17261.2
17285.6
17310.4
17335.4
17360.8
17386.5
17412.4
17438.7
17465.1
17491.8
17518.7
17545.8
17573.1
17600.6
17628.3
17656.1
17684
17712.1
17740.2
17768.4
17796.7
17825
17853.3
17881.6
17909.9
17938.2
17966.4
17994.6
18022.8
18050.9
18078.9
18106.9
18134.7
18162.5
18190.2
18217.8
18245.2
18272.6
18299.9
18327
18354
18381
18407.7
18434.4
18461
18487.4
18513.7
18539.9
18565.9
18591.9
18617.7
18643.4
18668.9
18694.4
18719.6
18744.8
18769.8
18794.6
18819.3
18843.9
18868.3
18892.5
18916.6
18940.6
18964.4
18988.2
19011.8
19035.3
19058.7
19081.9
19105
19127.9
19150.6
19173.2
19195.7
19218
19240.1
19262
19283.8
19305.4
19326.9
19348.1
19369.2
19390.2
19410.9
19431.4
19451.8
19472
19492
19511.8
19531.5
19550.9
19570.2
19589.3
19608.1
19626.8
19645.2
19663.5
19681.6
19699.5
19717.2
19734.8
19752.2
19769.4
19786.3
19803.1
19819.8
19836.3
19852.8
19868.9
19884.9
19900.7
19916.2
19931.6
19946.8
19961.7
19976.5
19991.1
20005.6
20020
20034.1
20048
20061.8
20075.4
20088.8
20102
20115
20127.8
20140.4
20152.8
20165
20177
20188.7
20200.3
20211.7
20222.8
20233.8
20244.5
20254.9
20265.2
20275.2
20285
20294.5
20303.8
20312.8
20321.6
20330.2
20338.5
20346.6
20354.4
20362
20369.4
20376.5
20383.5
20390.1
20396.6
20402.9
20408.9
20414.8
20420.4
20425.9
20431.2
20436.3
20441.3
20446.2
20450.9
20455.5
20460
20464.4
20468.7
20473
20477.2
20481.3
20485.5
20489.5
20493.6
20497.6
20501.8
20506.2
20511
20516.1
20521.2
20526
20530.8
20535.6
20540.5
20545.8
20551.4
20557.2
20563.1
20569.3
20575.7
20582.2
20588.9
20595.8
20603
20610.4
20618
20625.9
20634
20642.2
20650.7
20659.2
20667.9
20676.7
20685.6
20694.6
20703.7
20712.9
20722.3
20731.7
20741.4
20751.1
20760.9
20770.8
20780.7
20790.7
20800.7
20810.7
20820.7
20830.7
20840.8
20850.8
20860.8
20870.7
20880.7
20890.5
20900.4
20910.1
20919.7
20929.3
20938.8
20948.1
20957.3
20966.4
20975.4
20984.2
20992.8
21001.3
21009.6
21017.7
21025.7
21033.5
21041.1
21048.4
21055.6
21062.6
21069.4
21076
21082.3
21088.4
21094.3
21100
21105.5
21110.7
21115.7
21120.4
21124.9
21129.2
21133.2
21137
21140.6
21143.9
21147
21149.8
21152.5
21154.9
21157
21159
21160.7
21162.2
21163.5
21164.6
21165.5
21166.2
21166.8
21167.1
21167.2
21167.3
21167.1
21166.8
21166.4
21165.8
21165.2
21164.5
21163.7
21162.8
21161.8
21160.9
21159.9
21158.9
21158
21157
21156.2
21155.3
21154.6
21154
21153.6
21153.2
21153.1
21153.1
21153.4
21153.9
21154.7
21155.7
21157
21158.7
21160.7
21163
21165.8
21169
21172.6
21176.6
21181.1
21186.1
21191.7
21197.7
21204.4
21211.6
21219.4
21227.8
21236.9
21246.6
21257
21268.1
21280
21292.5
21305.8
21319.9
21334.7
21350.4
21366.8
21384.1
21402.3
21421.2
21441.1
21461.8
21483.4
21505.9
21529.3
21553.6
21578.8
21605
21632.1
21660.1
21689.1
21719
21749.8
21781.6
21814.4
21848.1
21882.7
21918.4
21954.9
21992.4
22030.8
22070.2
22110.5
22151.7
22193.8
22236.9
22280.8
22325.6
22371.3
22417.9
22465.3
22513.5
22562.5
22612.3
22662.9
22714.3
22766.5
22819.4
22873
22927.3
22982.2
23037.8
23094.2
23151.1
23208.6
23266.6
23325.1
23384.2
23443.7
23503.6
23563.9
23624.6
23685.7
23747
23808.6
23870.5
23932.6
23994.8
24057.1
24119.5
24182
24244.5
24306.9
24369.3
24431.5
24493.6
24555.5
24617.2
24678.7
24739.8
24800.6
24861
24920.9
24980.4
25039.4
25097.9
25155.8
25213
25269.6
25325.4
25380.6
25434.9
25488.4
25541
25592.8
25643.6
25693.4
25742.3
25790
25836.7
25882.3
25926.7
25970
26012
26052.7
26092.2
26130.4
26167.2
26202.7
26236.7
26269.4
26300.5
26330.2
26358.4
26385.1
26410.2
26433.8
26455.7
26476.1
26494.7
26511.8
26527.1
26540.7
26552.6
26562.8
26571.3
26577.9
26582.9
26586.2
26588.1
16342.7
16343.3
16344.4
16346.2
16348.5
16351.4
16354.9
16359
16363.7
16369
16375
16381.5
16388.7
16396.4
16404.8
16413.7
16423.3
16433.4
16444.1
16455.4
16467.3
16479.7
16492.8
16506.4
16520.5
16535.2
16550.5
16566.2
16582.6
16599.4
16616.8
16634.7
16653.1
16671.9
16691.3
16711.2
16731.5
16752.2
16773.5
16795.1
16817.2
16839.7
16862.6
16886
16909.6
16933.7
16958.1
16982.9
17008
17033.3
17059
17085
17111.2
17137.7
17164.4
17191.3
17218.5
17245.8
17273.3
17301
17328.8
17356.8
17384.8
17413
17441.2
17469.5
17497.8
17526.1
17554.4
17582.7
17611
17639.3
17667.5
17695.6
17723.7
17751.8
17779.7
17807.6
17835.4
17863.1
17890.7
17918.1
17945.5
17972.8
17999.9
18027
18053.9
18080.7
18107.3
18133.9
18160.3
18186.6
18212.8
18238.9
18264.8
18290.6
18316.3
18341.8
18367.2
18392.5
18417.6
18442.6
18467.5
18492.2
18516.7
18541.2
18565.4
18589.6
18613.5
18637.4
18661.2
18684.8
18708.3
18731.6
18754.8
18777.9
18800.8
18823.6
18846.2
18868.6
18890.9
18913
18935
18956.8
18978.4
18999.8
19021.1
19042.2
19063.1
19083.9
19104.5
19124.8
19145
19165.1
19184.9
19204.5
19224
19243.3
19262.4
19281.2
19299.9
19318.4
19336.7
19354.9
19372.8
19390.5
19408.1
19425.5
19442.6
19459.6
19476.4
19493.1
19509.6
19526
19542.1
19558
19573.9
19589.5
19604.9
19620.1
19635.1
19650
19664.6
19679.1
19693.5
19707.6
19721.5
19735.3
19748.8
19762.2
19775.4
19788.4
19801.2
19813.8
19826.2
19838.4
19850.4
19862.2
19873.8
19885.1
19896.3
19907.2
19917.9
19928.3
19938.6
19948.6
19958.3
19967.9
19977.1
19986.2
19995
20003.5
20011.8
20019.9
20027.7
20035.3
20042.6
20049.8
20056.6
20063.3
20069.7
20076
20082
20087.8
20093.5
20098.9
20104.2
20109.4
20114.3
20119.2
20123.9
20128.4
20132.9
20137.3
20141.6
20145.9
20150.1
20154.3
20158.5
20162.8
20167.2
20171.7
20176.3
20181.1
20185.8
20190.3
20194.5
20198.7
20202.8
20207.4
20212.4
20217.8
20223.5
20229.4
20235.5
20241.7
20248.1
20254.6
20261.4
20268.3
20275.4
20282.8
20290.4
20298.3
20306.4
20314.7
20323.1
20331.8
20340.5
20349.3
20358.3
20367.3
20376.5
20385.8
20395.2
20404.7
20414.4
20424.1
20433.9
20443.8
20453.7
20463.7
20473.7
20483.6
20493.6
20503.7
20513.7
20523.7
20533.8
20543.7
20553.7
20563.6
20573.4
20583.2
20592.9
20602.4
20611.9
20621.3
20630.5
20639.6
20648.6
20657.4
20666
20674.5
20682.9
20691
20699
20706.7
20714.3
20721.7
20728.9
20735.9
20742.7
20749.3
20755.6
20761.7
20767.6
20773.3
20778.8
20784
20789
20793.7
20798.2
20802.5
20806.6
20810.4
20813.9
20817.2
20820.3
20823.2
20825.8
20828.2
20830.4
20832.3
20834.1
20835.6
20836.9
20837.9
20838.8
20839.5
20840
20840.3
20840.5
20840.5
20840.3
20840
20839.6
20839
20838.3
20837.6
20836.7
20835.8
20834.9
20833.9
20832.9
20831.9
20830.9
20829.9
20829
20828.2
20827.4
20826.8
20826.3
20826
20825.8
20825.8
20826
20826.5
20827.2
20828.2
20829.5
20831.1
20833.1
20835.4
20838.2
20841.3
20844.8
20848.9
20853.4
20858.3
20863.8
20869.9
20876.5
20883.7
20891.5
20899.9
20908.9
20918.6
20929
20940.1
20951.9
20964.4
20977.7
20991.7
21006.5
21022.2
21038.6
21055.9
21074
21092.9
21112.8
21133.5
21155.1
21177.5
21200.9
21225.2
21250.4
21276.6
21303.7
21331.7
21360.6
21390.5
21421.4
21453.2
21486
21519.7
21554.3
21589.9
21626.5
21664
21702.5
21741.8
21782.1
21823.4
21865.5
21908.6
21952.5
21997.3
22043.1
22089.6
22137
22185.3
22234.4
22284.3
22334.9
22386.4
22438.6
22491.5
22545.1
22599.5
22654.5
22710.2
22766.4
22823.3
22880.8
22938.9
22997.4
23056.5
23116
23176
23236.4
23297.1
23358.2
23419.6
23481.3
23543.2
23605.2
23667.5
23729.9
23792.3
23854.8
23917.3
23979.8
24042.2
24104.5
24166.6
24228.6
24290.3
24351.7
24412.9
24473.7
24534.1
24594.1
24653.6
24712.7
24771.1
24829
24886.3
24942.9
24998.8
25053.9
25108.2
25161.8
25214.4
25266.2
25317
25366.8
25415.7
25463.5
25510.1
25555.7
25600.1
25643.4
25685.4
25726.1
25765.6
25803.8
25840.6
25876
25910.1
25942.7
25973.9
26003.6
26031.8
26058.4
26083.6
26107.1
26129
26149.3
26168
26185
26200.4
26214
26225.9
26236.1
26244.5
26251.2
26256.1
26259.4
26261.4
16014.4
16015
16016.2
16017.9
16020.2
16023.1
16026.6
16030.7
16035.4
16040.8
16046.7
16053.3
16060.4
16068.2
16076.5
16085.5
16095
16105.2
16115.9
16127.2
16139.1
16151.5
16164.6
16178.2
16192.3
16207
16222.3
16238.1
16254.4
16271.3
16288.7
16306.6
16325
16343.9
16363.3
16383.1
16403.5
16424.3
16445.5
16467.2
16489.3
16511.8
16534.8
16558.1
16581.8
16605.9
16630.3
16655.1
16680.2
16705.6
16731.3
16757.3
16783.6
16810.1
16836.9
16863.8
16891
16918.3
16945.9
16973.6
17001.4
17029.4
17057.4
17085.6
17113.8
17142.1
17170.4
17198.8
17227.1
17255.4
17283.7
17312
17340.2
17368.4
17396.5
17424.6
17452.6
17480.4
17508.2
17535.9
17563.5
17591
17618.4
17645.7
17672.8
17699.9
17726.8
17753.6
17780.3
17806.8
17833.3
17859.6
17885.7
17911.8
17937.7
17963.5
17989.2
18014.7
18040.1
18065.4
18090.5
18115.5
18140.3
18165
18189.5
18214
18238.2
18262.4
18286.4
18310.3
18334
18357.7
18381.2
18404.5
18427.7
18450.8
18473.7
18496.5
18519.1
18541.5
18563.8
18585.9
18607.9
18629.7
18651.3
18672.8
18694.1
18715.2
18736.1
18756.9
18777.5
18797.9
18818.1
18838.1
18858
18877.6
18897.1
18916.4
18935.5
18954.3
18973
18991.5
19009.8
19027.9
19045.9
19063.7
19081.3
19098.8
19116
19133.1
19150
19166.7
19183.3
19199.6
19215.8
19231.8
19247.4
19263
19278.3
19293.5
19308.5
19323.3
19338
19352.4
19366.8
19380.9
19394.8
19408.6
19422.2
19435.5
19448.7
19461.7
19474.5
19487.1
19499.5
19511.7
19523.7
19535.5
19547.1
19558.4
19569.6
19580.5
19591.2
19601.7
19611.9
19621.9
19631.7
19641.2
19650.5
19659.5
19668.3
19676.9
19685.2
19693.2
19701
19708.6
19716
19723.1
19729.9
19736.6
19743
19749.3
19755.3
19761.1
19766.7
19772.2
19777.5
19782.6
19787.5
19792.3
19797
19801.6
19806
19810.4
19814.7
19818.9
19823.1
19827.3
19831.4
19835.5
19839.6
19843.7
19847.7
19852.1
19856.8
19861.7
19866.6
19871.4
19876.3
19881.2
19886.2
19891.4
19896.9
19902.5
19908.4
19914.5
19920.9
19927.4
19934.1
19941
19948.2
19955.6
19963.2
19971
19979
19987.2
19995.6
20004.2
20012.9
20021.7
20030.6
20039.7
20048.9
20058.2
20067.7
20077.2
20086.9
20096.7
20106.5
20116.4
20126.4
20136.4
20146.5
20156.5
20166.6
20176.7
20186.8
20196.9
20206.9
20216.9
20226.9
20236.8
20246.7
20256.4
20266.1
20275.7
20285.2
20294.6
20303.8
20312.9
20321.9
20330.7
20339.4
20347.9
20356.2
20364.4
20372.3
20380.1
20387.7
20395.1
20402.3
20409.3
20416.1
20422.7
20429.1
20435.2
20441.1
20446.8
20452.2
20457.5
20462.4
20467.2
20471.7
20476
20480
20483.8
20487.4
20490.7
20493.8
20496.6
20499.3
20501.7
20503.8
20505.8
20507.5
20509
20510.2
20511.3
20512.2
20512.9
20513.3
20513.6
20513.8
20513.7
20513.5
20513.2
20512.7
20512.1
20511.4
20510.7
20509.8
20508.8
20507.9
20506.8
20505.8
20504.7
20503.7
20502.7
20501.8
20500.9
20500.1
20499.4
20498.9
20498.5
20498.3
20498.2
20498.4
20498.8
20499.5
20500.5
20501.7
20503.3
20505.2
20507.5
20510.2
20513.3
20516.8
20520.8
20525.2
20530.1
20535.6
20541.6
20548.2
20555.3
20563
20571.4
20580.4
20590.1
20600.4
20611.5
20623.2
20635.7
20648.9
20662.9
20677.7
20693.3
20709.7
20727
20745.1
20764
20783.8
20804.5
20826
20848.5
20871.9
20896.2
20921.4
20947.5
20974.6
21002.6
21031.5
21061.4
21092.3
21124.1
21156.9
21190.6
21225.3
21260.9
21297.4
21335
21373.4
21412.8
21453.1
21494.4
21536.5
21579.6
21623.6
21668.4
21714.2
21760.8
21808.2
21856.5
21905.6
21955.5
22006.2
22057.6
22109.9
22162.8
22216.5
22270.9
22326
22381.7
22438
22495
22552.5
22610.7
22669.3
22728.5
22788.1
22848.1
22908.5
22969.4
23030.5
23092
23153.7
23215.7
23277.8
23340.2
23402.6
23465.1
23527.7
23590.3
23652.8
23715.3
23777.6
23839.8
23901.8
23963.6
24025.1
24086.3
24147.2
24207.7
24267.7
24327.3
24386.3
24444.9
24502.8
24560.1
24616.7
24672.6
24727.8
24782.1
24835.7
24888.3
24940.1
24990.9
25040.8
25089.6
25137.4
25184.1
25229.6
25274.1
25317.3
25359.3
25400
25439.4
25477.6
25514.4
25549.8
25583.8
25616.4
25647.5
25677.2
25705.4
25732
25757.1
25780.6
25802.5
25822.8
25841.4
25858.4
25873.7
25887.3
25899.2
25909.4
25917.8
25924.4
25929.4
25932.7
25934.6
15685.7
15686.3
15687.5
15689.2
15691.5
15694.4
15697.9
15702
15706.8
15712.1
15718
15724.6
15731.7
15739.5
15747.9
15756.8
15766.4
15776.5
15787.3
15798.6
15810.5
15823
15836
15849.6
15863.8
15878.5
15893.8
15909.6
15926
15942.8
15960.2
15978.2
15996.6
16015.5
16034.9
16054.8
16075.2
16096
16117.2
16139
16161.1
16183.7
16206.6
16230
16253.7
16277.8
16302.3
16327.1
16352.3
16377.7
16403.5
16429.5
16455.8
16482.3
16509.1
16536.1
16563.3
16590.7
16618.3
16646
16673.9
16701.8
16729.9
16758.1
16786.4
16814.7
16843
16871.4
16899.7
16928.1
16956.4
16984.7
17013
17041.2
17069.3
17097.4
17125.4
17153.3
17181.1
17208.8
17236.4
17263.9
17291.3
17318.6
17345.7
17372.8
17399.7
17426.5
17453.2
17479.7
17506.2
17532.5
17558.7
17584.7
17610.6
17636.4
17662.1
17687.6
17713
17738.2
17763.4
17788.3
17813.2
17837.9
17862.4
17886.8
17911.1
17935.3
17959.3
17983.2
18006.9
18030.6
18054.1
18077.4
18100.6
18123.7
18146.6
18169.4
18192
18214.4
18236.7
18258.8
18280.8
18302.6
18324.3
18345.7
18367
18388.2
18409.1
18429.9
18450.5
18470.9
18491.1
18511.2
18531
18550.7
18570.2
18589.5
18608.6
18627.5
18646.3
18664.8
18683.2
18701.3
18719.3
18737.1
18754.7
18772.2
18789.4
18806.4
18823.3
18840
18856.6
18872.9
18889.1
18905.1
18920.8
18936.4
18951.7
18966.9
18982
18996.8
19011.5
19026
19040.3
19054.4
19068.3
19082.1
19095.6
19109
19122.2
19135.2
19148
19160.6
19173
19185.2
19197.2
19209
19220.6
19231.9
19243.1
19254
19264.7
19275.2
19285.4
19295.4
19305.1
19314.7
19323.9
19333
19341.8
19350.3
19358.6
19366.7
19374.5
19382.1
19389.4
19396.5
19403.4
19410
19416.4
19422.7
19428.7
19434.5
19440.1
19445.5
19450.7
19455.8
19460.7
19465.5
19470.1
19474.7
19479.1
19483.4
19487.7
19491.9
19496.1
19500.2
19504.4
19508.5
19512.8
19517.1
19521.6
19526.2
19530.7
19535.2
19539.7
19544.1
19548.7
19553.3
19558.3
19563.5
19569
19574.7
19580.7
19586.8
19593.1
19599.6
19606.3
19613.3
19620.4
19627.8
19635.4
19643.2
19651.3
19659.5
19667.9
19676.5
19685.2
19694.1
19703
19712.2
19721.4
19730.8
19740.3
19749.9
19759.6
19769.5
19779.4
19789.3
19799.3
19809.4
19819.4
19829.5
19839.6
19849.7
19859.8
19869.9
19880
19890
19900
19910
19919.9
19929.7
19939.4
19949
19958.5
19967.9
19977.2
19986.3
19995.3
20004.1
20012.8
20021.3
20029.7
20037.9
20045.8
20053.7
20061.3
20068.7
20075.9
20082.9
20089.7
20096.3
20102.6
20108.8
20114.7
20120.4
20125.8
20131.1
20136.1
20140.8
20145.3
20149.6
20153.6
20157.4
20161
20164.3
20167.4
20170.3
20172.9
20175.3
20177.4
20179.3
20181
20182.5
20183.8
20184.8
20185.7
20186.3
20186.8
20187
20187.1
20187.1
20186.9
20186.5
20186
20185.4
20184.6
20183.8
20182.9
20181.9
20180.9
20179.8
20178.7
20177.6
20176.5
20175.5
20174.5
20173.5
20172.7
20171.9
20171.3
20170.9
20170.6
20170.5
20170.6
20171
20171.6
20172.5
20173.7
20175.2
20177.1
20179.3
20181.9
20184.9
20188.4
20192.3
20196.7
20201.5
20206.9
20212.9
20219.4
20226.5
20234.1
20242.4
20251.4
20261
20271.3
20282.3
20294
20306.4
20319.6
20333.6
20348.3
20363.9
20380.3
20397.5
20415.5
20434.4
20454.2
20474.8
20496.4
20518.8
20542.1
20566.4
20591.6
20617.7
20644.8
20672.8
20701.7
20731.6
20762.5
20794.3
20827.1
20860.8
20895.5
20931.1
20967.7
21005.2
21043.7
21083.1
21123.5
21164.7
21206.9
21250
21294
21338.9
21384.7
21431.3
21478.8
21527.2
21576.3
21626.3
21677
21728.6
21780.8
21833.9
21887.6
21942.1
21997.2
22053
22109.4
22166.5
22224.2
22282.3
22341
22400.2
22459.9
22520
22580.5
22641.4
22702.7
22764.2
22826.1
22888.1
22950.4
23012.8
23075.3
23137.9
23200.6
23263.2
23325.9
23388.4
23450.9
23513.2
23575.2
23637.1
23698.7
23760
23820.9
23881.4
23941.5
24001.1
24060.3
24118.8
24176.8
24234.1
24290.8
24346.7
24401.9
24456.3
24509.9
24562.6
24614.4
24665.2
24715
24763.9
24811.7
24858.3
24903.9
24948.3
24991.5
25033.4
25074.1
25113.6
25151.6
25188.4
25223.8
25257.7
25290.3
25321.4
25351
25379.1
25405.7
25430.7
25454.2
25476.1
25496.3
25514.9
25531.9
25547.2
25560.8
25572.6
25582.8
25591.2
25597.8
25602.7
25606
25608
15356.6
15357.2
15358.4
15360.1
15362.4
15365.3
15368.8
15372.9
15377.6
15383
15388.9
15395.5
15402.7
15410.4
15418.8
15427.8
15437.3
15447.5
15458.2
15469.6
15481.5
15494
15507
15520.7
15534.8
15549.6
15564.9
15580.7
15597.1
15614
15631.4
15649.4
15667.8
15686.8
15706.2
15726.1
15746.5
15767.4
15788.7
15810.4
15832.6
15855.2
15878.2
15901.6
15925.4
15949.5
15974
15998.9
16024
16049.5
16075.3
16101.4
16127.7
16154.3
16181.2
16208.2
16235.5
16262.9
16290.5
16318.3
16346.2
16374.2
16402.3
16430.5
16458.8
16487.2
16515.5
16543.9
16572.3
16600.7
16629.1
16657.4
16685.7
16713.9
16742
16770.1
16798.1
16826.1
16853.9
16881.6
16909.2
16936.7
16964.2
16991.4
17018.6
17045.7
17072.6
17099.4
17126.1
17152.6
17179.1
17205.4
17231.6
17257.6
17283.5
17309.3
17334.9
17360.5
17385.8
17411.1
17436.2
17461.1
17486
17510.7
17535.2
17559.6
17583.9
17608.1
17632.1
17656
17679.8
17703.4
17726.9
17750.3
17773.5
17796.5
17819.4
17842.2
17864.8
17887.3
17909.6
17931.7
17953.7
17975.5
17997.2
18018.7
18040
18061.1
18082.1
18102.9
18123.5
18143.9
18164.2
18184.3
18204.1
18223.8
18243.4
18262.7
18281.8
18300.8
18319.5
18338.1
18356.4
18374.6
18392.6
18410.4
18428.1
18445.6
18462.9
18480
18496.9
18513.7
18530.2
18546.6
18562.7
18578.7
18594.5
18610
18625.4
18640.6
18655.6
18670.4
18685.1
18699.6
18713.9
18728
18741.9
18755.7
18769.3
18782.6
18795.8
18808.8
18821.6
18834.2
18846.6
18858.8
18870.8
18882.6
18894.2
18905.5
18916.7
18927.6
18938.3
18948.7
18959
18969
18978.7
18988.2
18997.5
19006.6
19015.3
19023.9
19032.2
19040.2
19048
19055.6
19062.9
19070
19076.9
19083.5
19089.9
19096.1
19102
19107.8
19113.4
19118.8
19124
19129
19133.9
19138.6
19143.3
19147.7
19152.1
19156.4
19160.7
19164.8
19169
19173.1
19177.2
19181.3
19185.4
19189.5
19193.7
19198
19202.3
19206.9
19211.5
19216.1
19220.9
19225.8
19230.9
19236.1
19241.6
19247.2
19253.1
19259.2
19265.5
19272
19278.7
19285.6
19292.8
19300.1
19307.7
19315.5
19323.5
19331.7
19340.1
19348.7
19357.4
19366.3
19375.4
19384.5
19393.8
19403.2
19412.8
19422.4
19432.2
19442
19451.9
19461.9
19472
19482.1
19492.2
19502.4
19512.5
19522.7
19532.9
19543
19553.1
19563.2
19573.3
19583.3
19593.2
19603
19612.8
19622.4
19631.9
19641.4
19650.6
19659.8
19668.8
19677.7
19686.4
19694.9
19703.3
19711.5
19719.5
19727.3
19734.9
19742.4
19749.6
19756.6
19763.4
19770
19776.4
19782.5
19788.5
19794.1
19799.6
19804.8
19809.8
19814.6
19819.1
19823.4
19827.4
19831.2
19834.8
19838.1
19841.2
19844
19846.6
19849
19851.1
19853
19854.7
19856.2
19857.4
19858.4
19859.3
19859.9
19860.3
19860.5
19860.6
19860.5
19860.2
19859.8
19859.3
19858.6
19857.8
19856.9
19856
19854.9
19853.8
19852.7
19851.6
19850.4
19849.2
19848.1
19847.1
19846.1
19845.1
19844.3
19843.7
19843.1
19842.8
19842.6
19842.6
19842.9
19843.5
19844.3
19845.4
19846.8
19848.6
19850.7
19853.3
19856.2
19859.6
19863.4
19867.7
19872.5
19877.9
19883.7
19890.2
19897.2
19904.8
19913
19921.9
19931.4
19941.7
19952.6
19964.2
19976.6
19989.7
20003.6
20018.3
20033.8
20050.2
20067.3
20085.3
20104.2
20123.9
20144.5
20166
20188.4
20211.7
20236
20261.1
20287.2
20314.3
20342.3
20371.2
20401.1
20432
20463.8
20496.6
20530.3
20565
20600.7
20637.3
20674.8
20713.3
20752.8
20793.1
20834.4
20876.7
20919.8
20963.9
21008.8
21054.6
21101.3
21148.8
21197.2
21246.4
21296.4
21347.2
21398.8
21451.2
21504.3
21558.1
21612.7
21667.9
21723.8
21780.3
21837.4
21895.1
21953.4
22012.2
22071.6
22131.4
22191.6
22252.2
22313.2
22374.6
22436.3
22498.2
22560.4
22622.8
22685.3
22747.9
22810.7
22873.4
22936.2
22999
23061.6
23124.2
23186.6
23248.8
23310.7
23372.4
23433.8
23494.8
23555.4
23615.6
23675.3
23734.5
23793.1
23851.1
23908.5
23965.2
24021.2
24076.4
24130.8
24184.4
24237.2
24289
24339.8
24389.7
24438.5
24486.2
24532.9
24578.4
24622.8
24666
24707.9
24748.6
24787.9
24826
24862.7
24898
24931.9
24964.4
24995.5
25025
25053.1
25079.6
25104.6
25128
25149.8
25170
25188.6
25205.5
25220.8
25234.3
25246.2
25256.3
25264.7
25271.3
25276.2
25279.5
25281.5
15027.1
15027.7
15028.8
15030.6
15032.8
15035.7
15039.2
15043.4
15048.1
15053.4
15059.4
15066
15073.1
15080.9
15089.3
15098.3
15107.9
15118
15128.8
15140.1
15152.1
15164.6
15177.7
15191.3
15205.5
15220.3
15235.6
15251.5
15267.9
15284.8
15302.3
15320.2
15338.7
15357.7
15377.2
15397.1
15417.5
15438.4
15459.8
15481.5
15503.8
15526.4
15549.4
15572.9
15596.7
15620.9
15645.5
15670.4
15695.6
15721.1
15747
15773.1
15799.5
15826.1
15853
15880.1
15907.4
15934.9
15962.6
15990.4
16018.4
16046.4
16074.6
16102.9
16131.2
16159.6
16188
16216.4
16244.8
16273.2
16301.6
16330
16358.3
16386.6
16414.7
16442.9
16470.9
16498.8
16526.7
16554.4
16582.1
16609.6
16637
16664.3
16691.5
16718.5
16745.5
16772.3
16799
16825.5
16852
16878.3
16904.4
16930.5
16956.4
16982.2
17007.8
17033.3
17058.7
17083.9
17109
17134
17158.8
17183.5
17208
17232.4
17256.7
17280.9
17304.9
17328.8
17352.6
17376.2
17399.7
17423.1
17446.3
17469.4
17492.3
17515
17537.7
17560.1
17582.5
17604.6
17626.6
17648.4
17670.1
17691.6
17712.9
17734.1
17755.1
17775.9
17796.5
17817
17837.3
17857.4
17877.3
17897
17916.5
17935.9
17955.1
17974
17992.8
18011.4
18029.8
18048.1
18066.1
18084
18101.6
18119.1
18136.4
18153.5
18170.5
18187.2
18203.8
18220.1
18236.3
18252.3
18268.1
18283.6
18299
18314.2
18329.3
18344.1
18358.8
18373.3
18387.6
18401.7
18415.7
18429.4
18443
18456.4
18469.6
18482.5
18495.4
18508
18520.4
18532.6
18544.6
18556.3
18567.9
18579.3
18590.4
18601.3
18612
18622.5
18632.7
18642.7
18652.5
18662
18671.2
18680.3
18689
18697.6
18705.9
18713.9
18721.7
18729.2
18736.5
18743.6
18750.4
18757
18763.4
18769.6
18775.5
18781.3
18786.8
18792.1
18797.3
18802.3
18807.1
18811.8
18816.4
18820.8
18825.2
18829.4
18833.6
18837.7
18841.8
18845.9
18849.9
18854
18858.1
18862.3
18866.5
18870.8
18875.3
18879.7
18884.2
18888.7
18893.3
18898.1
18903.1
18908.3
18913.7
18919.3
18925.1
18931.2
18937.5
18944
18950.7
18957.6
18964.7
18972.1
18979.7
18987.5
18995.5
19003.8
19012.2
19020.8
19029.5
19038.5
19047.5
19056.7
19066.1
19075.6
19085.2
19094.9
19104.7
19114.6
19124.6
19134.6
19144.8
19154.9
19165.1
19175.3
19185.5
19195.7
19206
19216.2
19226.3
19236.5
19246.5
19256.6
19266.5
19276.4
19286.2
19295.8
19305.4
19314.9
19324.2
19333.4
19342.4
19351.3
19360
19368.6
19377
19385.2
19393.3
19401.1
19408.7
19416.2
19423.4
19430.5
19437.3
19443.9
19450.3
19456.4
19462.4
19468.1
19473.5
19478.8
19483.8
19488.5
19493
19497.3
19501.4
19505.2
19508.7
19512
19515.1
19517.9
19520.5
19522.9
19525
19526.9
19528.5
19530
19531.2
19532.2
19533
19533.6
19534
19534.2
19534.2
19534
19533.7
19533.3
19532.7
19531.9
19531.1
19530.1
19529.1
19528
19526.8
19525.6
19524.4
19523.2
19521.9
19520.7
19519.6
19518.5
19517.5
19516.6
19515.8
19515.2
19514.8
19514.5
19514.5
19514.6
19515.1
19515.8
19516.8
19518.2
19519.8
19521.9
19524.3
19527.2
19530.5
19534.2
19538.4
19543.1
19548.4
19554.1
19560.5
19567.4
19574.9
19583.1
19591.9
19601.3
19611.5
19622.3
19633.9
19646.2
19659.3
19673.1
19687.7
19703.2
19719.4
19736.5
19754.5
19773.3
19792.9
19813.5
19835
19857.3
19880.6
19904.8
19930
19956.1
19983.1
20011.1
20040
20069.9
20100.8
20132.6
20165.4
20199.1
20233.8
20269.5
20306.1
20343.7
20382.3
20421.7
20462.1
20503.5
20545.8
20589
20633
20678
20723.9
20770.6
20818.2
20866.7
20916
20966.1
21017
21068.6
21121.1
21174.3
21228.2
21282.8
21338.1
21394.1
21450.8
21508
21565.9
21624.2
21683.2
21742.6
21802.5
21862.9
21923.7
21984.8
22046.3
22108.1
22170.2
22232.5
22295
22357.7
22420.5
22483.4
22546.3
22609.2
22672.1
22734.9
22797.5
22860
22922.4
22984.4
23046.2
23107.7
23168.8
23229.5
23289.8
23349.6
23408.9
23467.6
23525.7
23583.1
23639.9
23695.9
23751.2
23805.7
23859.3
23912
23963.8
24014.7
24064.6
24113.4
24161.2
24207.8
24253.3
24297.7
24340.8
24382.7
24423.3
24462.6
24500.6
24537.3
24572.5
24606.4
24638.8
24669.8
24699.3
24727.3
24753.7
24778.6
24802
24823.8
24843.9
24862.5
24879.3
24894.5
24908.1
24919.9
24930
24938.3
24944.9
24949.8
24953.1
24955.1
14697.1
14697.7
14698.8
14700.6
14702.9
14705.7
14709.3
14713.4
14718.1
14723.5
14729.4
14736
14743.2
14751
14759.4
14768.4
14778
14788.2
14798.9
14810.3
14822.2
14834.8
14847.9
14861.6
14875.8
14890.6
14905.9
14921.8
14938.3
14955.2
14972.7
14990.7
15009.2
15028.2
15047.8
15067.7
15088.2
15109.1
15130.5
15152.4
15174.6
15197.3
15220.4
15243.9
15267.8
15292
15316.6
15341.6
15366.9
15392.5
15418.4
15444.6
15471
15497.7
15524.7
15551.8
15579.2
15606.8
15634.5
15662.4
15690.4
15718.5
15746.7
15775
15803.4
15831.8
15860.3
15888.8
15917.3
15945.7
15974.1
16002.5
16030.9
16059.2
16087.4
16115.5
16143.6
16171.6
16199.4
16227.2
16254.9
16282.4
16309.8
16337.2
16364.3
16391.4
16418.4
16445.2
16471.9
16498.4
16524.8
16551.1
16577.3
16603.3
16629.2
16655
16680.6
16706.1
16731.5
16756.7
16781.8
16806.8
16831.6
16856.2
16880.8
16905.2
16929.5
16953.7
16977.7
17001.6
17025.3
17049
17072.5
17095.8
17119.1
17142.1
17165.1
17187.8
17210.5
17233
17255.3
17277.4
17299.5
17321.3
17343
17364.5
17385.9
17407
17428.1
17448.9
17469.6
17490
17510.3
17530.5
17550.4
17570.2
17589.7
17609.1
17628.3
17647.3
17666.2
17684.8
17703.2
17721.5
17739.6
17757.5
17775.2
17792.7
17810
17827.2
17844.2
17861
17877.5
17893.9
17910.1
17926.1
17941.9
17957.5
17972.9
17988.1
18003.1
18018
18032.7
18047.2
18061.5
18075.6
18089.5
18103.3
18116.9
18130.3
18143.4
18156.4
18169.2
18181.8
18194.2
18206.4
18218.4
18230.2
18241.8
18253.2
18264.3
18275.2
18285.9
18296.3
18306.6
18316.6
18326.3
18335.8
18345.1
18354.1
18362.9
18371.4
18379.6
18387.7
18395.4
18403
18410.3
18417.3
18424.1
18430.7
18437
18443.1
18449
18454.7
18460.2
18465.5
18470.6
18475.6
18480.4
18485
18489.5
18493.9
18498.2
18502.4
18506.5
18510.6
18514.6
18518.6
18522.6
18526.6
18530.6
18534.7
18538.8
18543
18547.2
18551.6
18556
18560.6
18565.3
18570.1
18575.1
18580.3
18585.7