/*--------------------------------*- C++ -*----------------------------------*\
| =========                 |                                                 |
| \\      /  F ield         | OpenFOAM: The Open Source CFD Toolbox           |
|  \\    /   O peration     | Version:  v2006                                 |
|   \\  /    A nd           | Website:  www.openfoam.com                      |
|    \\/     M anipulation  |                                                 |
\*---------------------------------------------------------------------------*/
FoamFile
{
    version     2.0;
    format      ascii;
    class       surfaceScalarField;
    location    "9.9";
    object      phi;
}
// * * * * * * * * * * * * * * * * * * * * * * * * * * * * * * * * * * * * * //

dimensions      [0 3 -1 0 0 0 0];
oriented        oriented;


internalField   nonuniform List<scalar> 
299200
(
-7.73064e-05
7.73064e-05
0.000216465
-0.000293771
0.000535567
-0.000319102
0.000793642
-0.000258075
0.00099377
-0.000200128
0.00115983
-0.000166065
0.00130814
-0.000148304
0.00144795
-0.00013981
0.00158427
-0.00013632
0.00171965
-0.000135376
0.0018553
-0.000135657
0.00199175
-0.000136444
0.00212949
-0.000137748
0.00226897
-0.000139472
0.00241028
-0.000141317
0.00255403
-0.000143749
0.00270073
-0.0001467
0.00285068
-0.000149944
0.00300428
-0.000153602
0.00316184
-0.000157565
0.00332367
-0.000161828
0.00349003
-0.000166354
0.00366108
-0.000171057
0.00383701
-0.000175928
0.00401795
-0.00018094
0.00420404
-0.000186088
0.00439539
-0.000191346
0.00459209
-0.000196701
0.00479423
-0.000202148
0.00500193
-0.000207695
0.00521528
-0.00021335
0.0054344
-0.000219123
0.00565942
-0.00022502
0.00589046
-0.00023104
0.00612764
-0.000237179
0.00637107
-0.000243426
0.00662084
-0.000249772
0.00687706
-0.000256217
0.00713984
-0.000262781
0.00740935
-0.000269512
0.00768584
-0.000276496
0.00796969
-0.000283845
0.00826138
-0.000291689
0.00856153
-0.000300149
0.00887084
-0.000309315
0.00919007
-0.000319227
0.00951993
-0.000329865
0.00986107
-0.00034114
0.010214
-0.000352895
0.0105789
-0.00036491
0.0109558
-0.000376907
0.0113444
-0.000388567
0.0117439
-0.000399552
0.0121535
-0.000409553
0.0125718
-0.000418344
0.0129976
-0.000425838
0.0134298
-0.000432159
0.0138675
-0.000437694
0.0143106
-0.000443071
0.0147596
-0.000449045
0.0152159
-0.000456326
0.0156814
-0.000465426
0.0161579
-0.000476554
0.0166475
-0.000489581
0.0171516
-0.000504079
0.017671
-0.000519427
0.0182059
-0.000534937
0.0187559
-0.000549975
0.01932
-0.000564048
0.0198968
-0.000576849
0.0204851
-0.000588262
0.0210834
-0.000598331
0.0216906
-0.000607211
0.0223057
-0.000615116
0.022928
-0.00062227
0.0235569
-0.000628869
0.0241919
-0.000635059
0.0248329
-0.000640929
0.0254794
-0.000646511
0.0261312
-0.000651797
0.0267879
-0.000656744
0.0274492
-0.000661273
0.0281145
-0.000665273
0.028783
-0.000668587
0.029454
-0.000671002
0.0301263
-0.000672257
0.0307984
-0.000672076
0.0314686
-0.00067023
0.0321352
-0.000666634
0.0327967
-0.00066146
0.0334519
-0.000655219
0.0341007
-0.000648783
0.034744
-0.000643321
0.0353842
-0.000640155
0.0360247
-0.000640541
0.0366701
-0.000645378
0.0373251
-0.000654974
0.037994
-0.000668944
0.0386804
-0.000686375
0.0393866
-0.000706237
0.0401145
-0.000727869
0.0408656
-0.000751102
0.0416413
-0.000775708
0.0424415
-0.000800233
0.0432625
-0.000821004
0.0440949
-0.00083231
0.0449231
-0.000828266
0.0457288
-0.00080569
0.0464951
-0.000766304
0.0472122
-0.00071705
0.04788
-0.000667844
0.0485076
-0.000627604
0.0491087
-0.000601084
0.0496967
-0.000588033
0.0502814
-0.000584719
0.0508679
-0.000586493
0.0514577
-0.000589808
0.0520507
-0.00059292
0.0526462
-0.000595496
0.053244
-0.000597819
0.0538442
-0.000600187
0.0544468
-0.000602674
0.055052
-0.000605179
0.0556596
-0.000607547
0.0562692
-0.000609643
0.0568806
-0.000611348
0.0574931
-0.000612515
0.058106
-0.000612921
0.0587183
-0.000612259
0.0593284
-0.000610176
0.0599348
-0.000606354
0.0605354
-0.000600614
0.0611284
-0.000593012
0.0617123
-0.000583901
0.0622862
-0.000573924
0.0628502
-0.000563944
0.0634051
-0.000554923
0.0639529
-0.000547746
0.0644957
-0.000542862
0.0650351
-0.000539353
0.0655685
-0.000533387
0.0660855
-0.000517018
0.0665651
-0.000479664
0.0669794
-0.000414295
0.067305
-0.000325605
0.0675369
-0.000231889
0.0676929
-0.000155992
0.0678049
-0.000112012
0.0679046
-9.96309e-05
0.0680136
-0.00010907
0.0681434
-0.000129789
0.0682982
-0.000154763
0.068477
-0.000178804
0.0686732
-0.000196183
0.0688755
-0.000202323
0.0690711
-0.000195598
0.0692486
-0.000177463
0.0693993
-0.000150785
0.0695185
-0.000119143
0.0696032
-8.47419e-05
0.0696515
-4.82285e-05
0.0696642
-1.27254e-05
0.0696461
1.80776e-05
0.0696073
3.88459e-05
0.0695529
5.43362e-05
0.0694843
6.86118e-05
0.0694018
8.25065e-05
0.0693057
9.60503e-05
0.0691964
0.000109309
0.069074
0.000122402
0.0689386
0.000135418
0.0687902
0.000148395
0.0686289
0.000161329
0.0684547
0.000174185
0.0682678
0.000186907
0.0680684
0.000199424
0.0678567
0.000211657
0.0676332
0.000223522
0.0673983
0.000234936
0.0671524
0.00024582
0.0668963
0.000256099
0.0666306
0.000265717
0.066356
0.000274637
0.0660731
0.000282851
0.0657828
0.000290382
0.0654855
0.000297286
0.0651818
0.000303641
0.0648723
0.00030954
0.0645572
0.000315071
0.0642369
0.000320296
0.0639117
0.000325232
0.0635819
0.000329827
0.0632479
0.000333962
0.0629104
0.000337458
0.0625703
0.000340112
0.0622286
0.000341763
0.0618863
0.000342248
0.0615449
0.000341445
0.0612056
0.00033932
0.0608696
0.000335926
0.0605382
0.000331386
0.0602124
0.000325878
0.0598928
0.000319606
0.05958
0.00031277
0.0592744
0.000305552
0.0589763
0.000298102
0.0586858
0.00029053
0.0584029
0.000282913
0.0581276
0.0002753
0.0578599
0.00026773
0.0575996
0.000260249
0.0573467
0.000252934
0.0571008
0.000245925
0.0568613
0.000239478
0.0566273
0.000234025
0.0563968
0.000230436
0.0561663
0.000230526
0.0559307
0.000235553
0.0556848
0.000245969
0.0554211
0.000263672
0.0551257
0.000295418
0.0547664
0.000359244
0.0542857
0.00048071
0.0536181
0.000667634
0.0527121
0.000906034
0.0515737
0.00113833
0.0502941
0.00127967
0.0490171
0.00127698
0.0478808
0.0011363
0.046967
0.000913764
0.0462578
0.000709242
0.0456674
0.000590338
0.0451074
0.000560056
0.0445337
0.000573709
0.0439515
0.000582191
0.0433895
0.000562001
0.0428729
0.000516582
0.0424112
0.000461644
0.0420007
0.000410502
0.0416325
0.00036824
0.0412989
0.000333654
0.0409952
0.000303644
0.040719
0.000276192
0.0404679
0.00025111
0.0402384
0.000229477
0.0400257
0.000212751
0.0398237
0.000202017
0.0396261
0.000197573
0.0394271
0.000199022
0.0392214
0.000205664
0.0390047
0.000216707
0.038774
0.000230673
0.0385256
0.000248439
0.0382543
0.000271317
0.0379536
0.000300686
0.0376161
0.000337443
0.0372348
0.000381296
0.0368047
0.000430162
0.0363249
0.000479754
0.0358014
0.000523544
0.0352477
0.000553661
0.0346849
0.000562856
0.034134
0.000550913
0.0336158
0.000518114
0.0331466
0.000469217
0.0327337
0.000412873
0.0323757
0.000358059
0.0320639
0.000311774
0.0317868
0.000277108
0.031534
0.000252847
0.0312989
0.000235058
0.0310794
0.000219478
0.030876
0.000203384
0.0306898
0.000186274
0.0305204
0.000169387
0.0303658
0.000154618
0.0302223
0.000143464
0.0300859
0.000136421
0.029953
0.000132909
0.0298214
0.000131596
0.0296904
0.000130941
0.0295609
0.000129509
0.0294347
0.000126235
0.0293141
0.000120562
0.0292019
0.000112268
0.0291002
0.000101666
0.0290108
8.93397e-05
0.0289348
7.6085e-05
0.0288719
6.2903e-05
0.0288214
5.04504e-05
0.0287824
3.90051e-05
0.0287539
2.85138e-05
0.0287352
1.86669e-05
0.0287261
9.08683e-06
0.0287261
5.17334e-08
0.0287371
-1.09827e-05
0.028759
-2.19695e-05
0.0287924
-3.33198e-05
0.0288373
-4.49279e-05
0.0288939
-5.66013e-05
0.0289621
-6.81933e-05
0.0290417
-7.96165e-05
0.0291325
-9.08182e-05
0.0292343
-0.000101799
0.0293469
-0.000112616
0.0294703
-0.000123321
0.0296042
-0.000133929
0.0297486
-0.000144436
0.0299035
-0.000154865
0.0300688
-0.00016529
0.0302446
-0.000175799
0.030431
-0.000186448
0.0306283
-0.000197234
0.0308364
-0.000208109
0.0310554
-0.000219009
0.0312852
-0.000229879
0.0315259
-0.000240681
0.0317773
-0.000251388
0.0320393
-0.000261975
0.0323117
-0.000272411
0.0325944
-0.000282663
0.0328871
-0.000292695
0.0331895
-0.000302477
0.0335015
-0.000311983
0.0338227
-0.000321195
0.0341528
-0.000330098
0.0344915
-0.000338684
0.0348384
-0.000346948
0.0351933
-0.000354888
0.0355558
-0.000362504
0.0359256
-0.000369797
0.0363024
-0.000376769
0.0366858
-0.000383424
0.0370756
-0.000389768
0.0374714
-0.000395808
0.037873
-0.000401552
0.03828
-0.000407008
0.0386922
-0.000412188
0.0391093
-0.000417102
0.039531
-0.00042176
0.0399572
-0.000426173
0.0403875
-0.000430353
0.0408218
-0.00043431
0.0412599
-0.000438055
0.0417015
-0.000441596
0.0421464
-0.000444942
0.0425945
-0.000448103
0.0430456
-0.000451085
0.0434995
-0.000453895
0.0439561
-0.000456538
0.0444151
-0.000459021
0.0448764
-0.000461347
0.0453399
-0.000463518
0.0458055
-0.000465539
0.0462729
-0.000467409
0.046742
-0.000469129
0.0472127
-0.000470698
0.0476848
-0.000472113
0.0481582
-0.000473371
0.0486327
-0.000474466
0.0491081
-0.000475396
0.0495842
-0.000476159
0.050061
-0.000476759
0.0505382
-0.000477211
0.0510157
-0.000477542
0.0514935
-0.000477795
0.0519716
-0.000478031
0.0524499
-0.000478325
0.0529286
-0.000478758
0.0534081
-0.000479413
0.0538884
-0.000480352
0.05437
-0.000481606
0.0548532
-0.000483158
0.0553381
-0.000484931
0.0558249
-0.000486791
0.0563135
-0.00048855
0.0568034
-0.000489986
0.0572943
-0.000490865
0.0577853
-0.000490973
0.0582754
-0.000490131
0.0587636
-0.000488218
0.0592488
-0.000485171
0.0597298
-0.00048098
0.0602055
-0.000475676
0.0606748
-0.000469316
0.0611367
-0.000461967
0.0615904
-0.000453693
0.062035
-0.000444549
0.0624696
-0.000434576
0.0628934
-0.000423802
0.0633056
-0.000412242
0.0637055
-0.000399904
0.0640923
-0.0003868
0.0644653
-0.000372948
0.0648236
-0.000358377
0.0651668
-0.000343123
0.065494
-0.000327224
0.0658047
-0.000310706
0.0660983
-0.000293579
0.0663741
-0.000275833
0.0666315
-0.000257445
0.0668699
-0.000238379
0.0670885
-0.000218595
0.0672866
-0.000198046
0.0674632
-0.000176691
0.0676177
-0.000154497
0.0677492
-0.000131454
0.0678568
-0.00010758
0.0679397
-8.29116e-05
0.0679972
-5.74629e-05
0.0680281
-3.09544e-05
0.0680317
-3.55197e-06
0.0680044
2.73034e-05
0.0679426
6.17409e-05
0.067847
9.56384e-05
0.0677243
0.000122714
0.067585
0.000139262
0.0674383
0.000146721
0.0672888
0.000149531
0.0671369
0.000151847
0.0669809
0.000156027
0.066818
0.00016288
0.0666468
0.000171225
0.0664649
0.000181876
0.0662705
0.000194419
0.0660621
0.000208388
0.0658395
0.000222576
0.0656033
0.000236234
0.0653541
0.000249167
0.0650925
0.00026159
0.0648186
0.000273905
0.0645321
0.000286492
0.0642325
0.000299581
0.0639193
0.000313257
0.0635918
0.000327531
0.0632493
0.000342423
0.0628913
0.000357996
0.062517
0.000374357
0.0621253
0.000391639
0.0617154
0.000409972
0.0612859
0.000429457
0.0608358
0.000450137
0.0603638
0.000471952
0.0598691
0.000494684
0.0593512
0.000517895
0.0588103
0.000540916
0.0582474
0.000562929
0.0576642
0.000583189
0.0570629
0.000601307
0.0564454
0.000617476
0.055813
0.000632471
0.0551656
0.000647377
0.0545024
0.000663149
0.0538222
0.000680235
0.0531237
0.000698504
0.0524062
0.000717467
0.0516696
0.000736632
0.0509138
0.000755762
0.0501389
0.000774913
0.0493446
0.000794305
0.0485305
0.000814156
0.0476959
0.000834583
0.0468403
0.000855599
0.0459631
0.000877144
0.045064
0.000899131
0.0441425
0.000921472
0.0431984
0.000944096
0.0422315
0.000966947
0.0412415
0.000989989
0.0402283
0.00101319
0.0391918
0.00103653
0.0381318
0.00106
0.0370482
0.00108357
0.035941
0.00110725
0.0348099
0.001131
0.0336551
0.00115483
0.0324764
0.00117871
0.0312738
0.0012026
0.0300473
0.00122649
0.028797
0.00125032
0.0275229
0.00127407
0.0262253
0.00129765
0.0249043
0.00132094
0.0235605
0.0013438
0.0221945
0.00136601
0.0208072
0.00138731
0.0193998
0.00140744
0.0179736
0.0014262
0.0165301
0.00144346
0.0150709
0.00145925
0.0135975
0.00147342
0.0121122
0.00148522
0.0106192
0.00149302
0.00912402
0.00149519
0.00763084
0.00149318
0.00613839
0.00149245
0.00464146
0.00149693
0.00314386
0.0014976
0.00161881
0.00152505
0.00161881
-0.000193382
0.000270688
-3.40394e-05
-0.000453114
0.000124182
-0.000477323
0.00019261
-0.000326503
0.000196374
-0.000203891
0.000166551
-0.000136242
0.000123451
-0.000105205
7.70119e-05
-9.33708e-05
3.15814e-05
-9.08893e-05
-1.10781e-05
-9.27167e-05
-5.01662e-05
-9.65686e-05
-8.49267e-05
-0.000101684
-0.000115037
-0.000107638
-0.000139897
-0.000114612
-0.000158142
-0.000123072
-0.000169374
-0.000132516
-0.000173201
-0.000142873
-0.000168968
-0.000154177
-0.000156528
-0.000166042
-0.000135758
-0.000178336
-0.000106745
-0.00019084
-6.96851e-05
-0.000203414
-2.47344e-05
-0.000216008
2.78539e-05
-0.000228517
8.77908e-05
-0.000240877
0.00015473
-0.000253027
0.000228348
-0.000264965
0.000308355
-0.000276707
0.000394496
-0.000288289
0.00048656
-0.00029976
0.000584381
-0.000311171
0.000687835
-0.000322576
0.000796849
-0.000334034
0.000911417
-0.000345608
0.00103162
-0.000357379
0.00115764
-0.000369449
0.00128982
-0.000381954
0.00142866
-0.000395059
0.00157484
-0.00040896
0.00172918
-0.000423853
0.00189259
-0.000439903
0.00206594
-0.000457194
0.00224994
-0.000475688
0.00244499
-0.000495197
0.00265106
-0.000515383
0.00286762
-0.000535796
0.00309369
-0.000555926
0.00332781
-0.000575268
0.0035683
-0.000593383
0.00381335
-0.000609954
0.00406128
-0.000624837
0.00431083
-0.000638126
0.00456153
-0.000650246
0.00481406
-0.000662086
0.00507074
-0.00067502
0.00533564
-0.000690741
0.00561443
-0.000710952
0.00591378
-0.000737039
0.00624048
-0.000769771
0.00660043
-0.000809001
0.00699763
-0.000853519
0.00743342
-0.000901213
0.00790631
-0.000949452
0.00841233
-0.000995598
0.00894574
-0.00103749
0.00950003
-0.00107372
0.0100689
-0.00110379
0.0106468
-0.00112791
0.0112297
-0.00114688
0.0118146
-0.00116176
0.0123999
-0.00117365
0.0129851
-0.00118352
0.01357
-0.00119211
0.0141548
-0.00119986
0.0147395
-0.00120697
0.0153241
-0.00121345
0.0159082
-0.00121922
0.0164915
-0.00122418
0.0170733
-0.00122829
0.0176531
-0.00123161
0.0182306
-0.00123428
0.0188058
-0.00123648
0.019379
-0.0012384
0.0199505
-0.00124013
0.0205212
-0.0012417
0.0210919
-0.00124299
0.0216636
-0.00124378
0.0222373
-0.00124386
0.0228137
-0.00124309
0.0233938
-0.00124155
0.0239782
-0.0012396
0.0245674
-0.00123796
0.0251617
-0.00123761
0.0257612
-0.00123969
0.026366
-0.0012453
0.0269758
-0.00125525
0.0275907
-0.00126986
0.0282108
-0.00128905
0.0288371
-0.00131262
0.0294716
-0.00134078
0.0301182
-0.00137445
0.0307818
-0.00141469
0.0314674
-0.0014613
0.0321783
-0.0015112
0.032915
-0.00155765
0.0336743
-0.00159161
0.0344507
-0.0016047
0.0352378
-0.0015928
0.0360296
-0.00155803
0.0368209
-0.00150837
0.0376078
-0.00145475
0.0383873
-0.00140709
0.0391574
-0.00137121
0.0399175
-0.00134814
0.0406682
-0.00133542
0.041411
-0.00132925
0.0421475
-0.00132632
0.0428791
-0.00132454
0.0436067
-0.00132306
0.0443305
-0.00132164
0.0450506
-0.00132028
0.0457668
-0.00131892
0.0464791
-0.00131749
0.0471875
-0.00131589
0.0478919
-0.00131408
0.0485926
-0.00131204
0.0492898
-0.00130972
0.0499838
-0.00130695
0.0506749
-0.00130333
0.051363
-0.00129826
0.0520475
-0.00129091
0.0527273
-0.00128039
0.0534002
-0.00126592
0.0540634
-0.00124706
0.0547135
-0.00122401
0.0553474
-0.00119788
0.0559633
-0.00117086
0.0565619
-0.00114631
0.0571476
-0.00112853
0.0577302
-0.00112194
0.0583259
-0.00112908
0.0589568
-0.00114793
0.059647
-0.00116995
0.0604141
-0.00118139
0.0612571
-0.00116858
0.0621492
-0.00112392
0.0630406
-0.00104743
0.063871
-0.000942421
0.0645823
-0.000810946
0.0651274
-0.000654176
0.0654749
-0.000477261
0.0656132
-0.000293092
0.0655552
-0.000120738
0.065336
2.30156e-05
0.0650068
0.000126828
0.0646222
0.00018903
0.0642286
0.00021617
0.0638579
0.000219842
0.0635292
0.000209568
0.0632508
0.000193672
0.0630245
0.000178067
0.0628451
0.000166721
0.0627007
0.000162445
0.0625742
0.000165292
0.062455
0.000173626
0.0623372
0.00018637
0.062217
0.00020265
0.0620915
0.000221572
0.0619584
0.00024239
0.0618163
0.00026456
0.061664
0.000287701
0.0615009
0.000311549
0.0613263
0.000335919
0.0611398
0.000360679
0.0609409
0.000385725
0.0607294
0.000410964
0.0605048
0.000436298
0.0602667
0.000461615
0.0600148
0.000486791
0.0597489
0.000511694
0.0594689
0.000536183
0.0591745
0.000560119
0.0588657
0.000583368
0.0585428
0.000605815
0.0582058
0.000627368
0.0578551
0.000647968
0.0574911
0.000667591
0.0571145
0.000686238
0.0567256
0.000703922
0.0563253
0.000720638
0.0559142
0.000736334
0.0554931
0.00075088
0.055063
0.000764046
0.054625
0.000775503
0.0541802
0.000784848
0.0537303
0.000791666
0.053277
0.000795549
0.0528223
0.000796208
0.052368
0.000793592
0.051916
0.000787888
0.0514679
0.000779515
0.0510247
0.000769059
0.0505871
0.000757186
0.0501554
0.000744533
0.0497293
0.000731613
0.0493087
0.000718752
0.0488931
0.000706064
0.0484826
0.000693468
0.0480772
0.000680727
0.0476774
0.000667503
0.0472842
0.000653401
0.0468992
0.000638004
0.0465242
0.000620884
0.0461621
0.000601592
0.0458165
0.00057963
0.0454927
0.000554213
0.0451995
0.000523768
0.0449487
0.000486283
0.0447523
0.000442401
0.044627
0.000388961
0.0446107
0.000311691
0.044783
0.000186989
0.0452453
1.8388e-05
0.0461257
-0.000212788
0.0473983
-0.000366528
0.048921
-0.000384346
0.0504488
-0.000248174
0.0517377
-1.1852e-05
0.0526159
0.000258083
0.0530516
0.000478067
0.0531256
0.000635196
0.0529718
0.000744169
0.0527111
0.000820779
0.0524125
0.00087226
0.0520941
0.000900604
0.0517475
0.000908627
0.0513609
0.000903115
0.0509289
0.000893713
0.0504497
0.000889654
0.0499206
0.000897324
0.0493347
0.000919593
0.0486823
0.000956004
0.0479555
0.00100299
0.0471525
0.00105419
0.0462807
0.00110127
0.0453579
0.00113553
0.0444103
0.00114964
0.0434688
0.00113898
0.0425656
0.00110225
0.0417297
0.00104155
0.040985
0.000961453
0.0403479
0.000867787
0.0398283
0.000767985
0.03943
0.000669659
0.0391511
0.000579555
0.0389858
0.000502743
0.038925
0.000442124
0.0389568
0.000398373
0.0390664
0.000370136
0.0392357
0.000354247
0.0394432
0.00034612
0.0396653
0.000340825
0.0398813
0.000334868
0.0400775
0.000321941
0.0402444
0.000302284
0.0403789
0.000278357
0.0404834
0.000253632
0.0405635
0.000231629
0.0406262
0.000214373
0.0406773
0.000201815
0.0407199
0.000192394
0.0407553
0.000184116
0.0407832
0.000175522
0.0408033
0.000166181
0.040816
0.000156598
0.0408229
0.000147712
0.0408261
0.000140313
0.0408279
0.000134635
0.0408306
0.000130219
0.0408362
0.000126005
0.0408464
0.000120743
0.0408631
0.000112816
0.0408883
0.000101016
0.0409239
8.49534e-05
0.0409723
6.38578e-05
0.0410359
3.80388e-05
0.0411166
8.70328e-06
0.0412156
-2.29848e-05
0.0413337
-5.52014e-05
0.0414714
-8.72046e-05
0.0416284
-0.000118054
0.041804
-0.000147082
0.0419968
-0.000174116
0.0422055
-0.000199552
0.0424297
-0.000224191
0.0426681
-0.0002494
0.0429211
-0.000274953
0.0431886
-0.000300778
0.04347
-0.000326384
0.0437645
-0.000351043
0.0440703
-0.000373997
0.0443852
-0.000394585
0.0447067
-0.000412234
0.0450315
-0.000426634
0.0453567
-0.000437795
0.0456794
-0.000446006
0.0459973
-0.000451838
0.0463089
-0.000456102
0.0466138
-0.000459772
0.0469124
-0.00046382
0.0472056
-0.000469028
0.047495
-0.000475838
0.0477821
-0.00048431
0.0480681
-0.000494187
0.0483542
-0.000505028
0.0486406
-0.000516361
0.0489277
-0.000527781
0.0492154
-0.000539008
0.0495033
-0.000549874
0.0497911
-0.000560298
0.0500787
-0.000570249
0.0503658
-0.000579716
0.050652
-0.0005887
0.0509372
-0.000597205
0.0512212
-0.000605241
0.051504
-0.000612821
0.0517852
-0.000619964
0.052065
-0.000626692
0.0523431
-0.000633031
0.0526196
-0.000639011
0.0528945
-0.00064466
0.0531677
-0.000650007
0.0534394
-0.000655079
0.0537095
-0.000659902
0.0539782
-0.000664502
0.0542456
-0.0006689
0.0545117
-0.000673119
0.0547767
-0.00067718
0.0550407
-0.000681099
0.0553038
-0.000684893
0.0555662
-0.000688575
0.055828
-0.000692158
0.0560894
-0.000695652
0.0563504
-0.000699064
0.0566112
-0.000702401
0.0568719
-0.000705667
0.0571327
-0.000708866
0.0573936
-0.000711999
0.0576547
-0.000715066
0.0579163
-0.000718065
0.0581782
-0.000720994
0.0584407
-0.000723848
0.0587038
-0.000726625
0.0589676
-0.000729319
0.0592321
-0.000731923
0.0594974
-0.000734432
0.0597636
-0.000736837
0.0600306
-0.000739131
0.0602985
-0.000741305
0.0605674
-0.000743348
0.0608373
-0.000745256
0.0611081
-0.000747027
0.0613801
-0.00074867
0.0616531
-0.000750207
0.0619272
-0.000751678
0.0622025
-0.000753141
0.0624792
-0.00075467
0.0627572
-0.000756342
0.0630367
-0.000758228
0.0633176
-0.000760368
0.0636
-0.000762757
0.0638837
-0.000765328
0.0641685
-0.000767959
0.0644541
-0.000770487
0.0647401
-0.000772755
0.0650262
-0.00077466
0.0653124
-0.000776203
0.065599
-0.000777518
0.0658869
-0.000778852
0.0661773
-0.000780498
0.0664718
-0.000782685
0.066772
-0.00078546
0.0670797
-0.000788593
0.0673955
-0.000791554
0.0677198
-0.000793578
0.0680516
-0.00079381
0.0683894
-0.000791483
0.068731
-0.000786084
0.0690738
-0.000777453
0.0694158
-0.000765791
0.0697552
-0.000751568
0.0700906
-0.000735383
0.0704217
-0.000717813
0.070748
-0.000699296
0.0710697
-0.000680086
0.0713869
-0.00066027
0.0716995
-0.000639832
0.0720075
-0.000618727
0.0723108
-0.000596933
0.0726095
-0.000574472
0.0729034
-0.000551394
0.0731928
-0.000527747
0.0734777
-0.000503548
0.0737585
-0.000478778
0.0740352
-0.000453382
0.074308
-0.000427303
0.074577
-0.000400501
0.0748424
-0.000372968
0.0751042
-0.000344732
0.0753626
-0.000315854
0.0756182
-0.000286531
0.0758721
-0.000257437
0.0761281
-0.000228675
0.07639
-0.000200211
0.076658
-0.000172394
0.076927
-0.000146215
0.0771883
-0.000122049
0.0774342
-9.91884e-05
0.0776602
-7.64589e-05
0.077865
-5.29553e-05
0.0780492
-2.81716e-05
0.0782125
-4.76582e-07
0.0783581
2.56927e-05
0.0784864
5.35447e-05
0.078598
8.28662e-05
0.0786929
0.000113417
0.0787721
0.000143456
0.078835
0.000173286
0.0788806
0.000203583
0.0789071
0.000235059
0.0789128
0.000268202
0.0788961
0.000303184
0.0788558
0.00033991
0.0787909
0.000378162
0.0787007
0.000417749
0.0785845
0.00045858
0.0784418
0.000500676
0.0782721
0.000544131
0.0780746
0.00058907
0.077849
0.000635604
0.0775946
0.00068381
0.0773111
0.000733728
0.0769977
0.000785353
0.0766537
0.000838635
0.0762781
0.000893486
0.0758692
0.000949782
0.0754248
0.00100739
0.0749418
0.0010662
0.074417
0.00112608
0.0738477
0.00118676
0.0732325
0.00124774
0.0725716
0.00130822
0.0718674
0.00136738
0.071123
0.00142467
0.0703413
0.00148014
0.0695243
0.00153444
0.0686725
0.00158849
0.0677851
0.00164312
0.0668613
0.0016987
0.0659004
0.00175521
0.0649021
0.00181244
0.0638665
0.0018702
0.0627937
0.00192845
0.0616836
0.00198725
0.060536
0.00204667
0.0593508
0.00210671
0.0581277
0.00216725
0.0568665
0.00222814
0.0555673
0.00228919
0.0542302
0.00235024
0.0528556
0.00241114
0.0514438
0.0024718
0.0499952
0.00253213
0.0485104
0.00259209
0.0469898
0.00265161
0.045434
0.00271066
0.0438435
0.00276919
0.0422189
0.00282716
0.0405609
0.00288451
0.03887
0.00294118
0.037147
0.00299709
0.0353925
0.00305216
0.0336072
0.00310626
0.0317918
0.00315921
0.029947
0.00321077
0.0280737
0.00326059
0.0261729
0.00330826
0.0242458
0.00335332
0.0222939
0.00339531
0.0203194
0.00343381
0.0183244
0.00346838
0.0163111
0.00349848
0.0142803
0.00352391
0.0122297
0.00354572
0.0101569
0.00356601
0.00807044
0.00357891
0.00600912
0.00355824
0.00403014
0.00347658
0.0021044
0.00345079
0.00372321
-0.000222416
0.000493104
-1.44752e-05
-0.000661055
0.000213287
-0.000705085
0.000331936
-0.000445152
0.00035567
-0.000227625
0.00033093
-0.000111502
0.000293181
-6.74565e-05
0.00025969
-5.98796e-05
0.000235794
-6.69934e-05
0.000221754
-7.86763e-05
0.000216752
-9.15666e-05
0.000220351
-0.000105284
0.000232945
-0.000120231
0.000255189
-0.000136856
0.000287452
-0.000155335
0.000330227
-0.000175291
0.000383675
-0.000196321
0.000447552
-0.000218055
0.000521563
-0.000240053
0.00060523
-0.000262002
0.000698031
-0.000283642
0.00079941
-0.000304793
0.000908761
-0.000325359
0.00102552
-0.000345273
0.00114916
-0.000364516
0.00127924
-0.000383109
0.00141539
-0.000401119
0.00155733
-0.000418646
0.00170485
-0.00043581
0.00185784
-0.000452745
0.00201626
-0.00046959
0.00218017
-0.000486492
0.00234974
-0.000503603
0.00252522
-0.000521087
0.00270696
-0.00053912
0.0028954
-0.000557891
0.00309104
-0.000577589
0.00329437
-0.000598393
0.00350586
-0.000620443
0.00372581
-0.00064381
0.00395437
-0.000668456
0.00419138
-0.000694208
0.00443644
-0.000720751
0.00468889
-0.000747642
0.00494786
-0.000774359
0.00521244
-0.000800375
0.00548177
-0.000825249
0.00575523
-0.000848731
0.0060327
-0.000870852
0.00631473
-0.000891983
0.00660276
-0.000912874
0.00689926
-0.000934621
0.00720758
-0.000958569
0.00753183
-0.000986339
0.00787641
-0.00101959
0.00824544
-0.00105977
0.00864224
-0.00110776
0.00906883
-0.00116362
0.00952559
-0.00122653
0.0100112
-0.0012946
0.0105227
-0.00136499
0.0110558
-0.0014344
0.011606
-0.00149957
0.0121682
-0.00155782
0.0127381
-0.00160742
0.0133121
-0.0016477
0.0138872
-0.00167893
0.0144615
-0.00170217
0.0150335
-0.00171887
0.0156024
-0.00173065
0.0161677
-0.00173903
0.0167295
-0.00174524
0.0172875
-0.00175016
0.0178419
-0.00175429
0.0183928
-0.0017578
0.0189399
-0.00176063
0.0194834
-0.00176264
0.0200229
-0.0017637
0.0205584
-0.0017638
0.0210899
-0.00176309
0.0216175
-0.00176188
0.0221416
-0.00176059
0.0226629
-0.00175968
0.0231823
-0.00175955
0.023701
-0.00176045
0.0242205
-0.00176246
0.0247422
-0.00176547
0.0252676
-0.00176928
0.0257982
-0.00177365
0.0263351
-0.00177848
0.0268793
-0.00178383
0.0274314
-0.00179
0.0279913
-0.00179751
0.0285586
-0.00180702
0.0291324
-0.00181915
0.0297116
-0.00183439
0.0302946
-0.00185293
0.0308803
-0.00187473
0.0314674
-0.00189974
0.0320548
-0.00192818
0.032641
-0.0019606
0.0332236
-0.00199729
0.0337996
-0.0020373
0.0343659
-0.00207751
0.0349209
-0.00211265
0.0354659
-0.00213656
0.0360056
-0.00214446
0.0365477
-0.00213492
0.0371005
-0.00211077
0.0376702
-0.00207814
0.0382599
-0.00204438
0.0388684
-0.00201559
0.0394921
-0.00199497
0.0401267
-0.00198267
0.0407681
-0.00197681
0.0414137
-0.00197489
0.0420622
-0.00197479
0.0427129
-0.00197524
0.0433655
-0.00197566
0.0440197
-0.00197584
0.044675
-0.00197561
0.0453309
-0.00197479
0.0459865
-0.00197314
0.046641
-0.00197043
0.0472935
-0.00196651
0.0479427
-0.00196127
0.0485876
-0.00195463
0.0492272
-0.00194649
0.0498605
-0.00193668
0.0504872
-0.0019249
0.0511069
-0.00191069
0.05172
-0.00189347
0.0523267
-0.00187262
0.0529273
-0.00184766
0.0535217
-0.00181843
0.0541092
-0.00178531
0.0546878
-0.0017495
0.0552546
-0.00171306
0.0558049
-0.00167889
0.0563332
-0.00165021
0.0568334
-0.0016293
0.0573012
-0.00161576
0.0577363
-0.00160497
0.0581434
-0.00158851
0.0585316
-0.00155685
0.0589106
-0.00150292
0.0592867
-0.00142344
0.0596613
-0.00131706
0.060033
-0.00118261
0.0603979
-0.00101912
0.06075
-0.000829309
0.0610802
-0.000623381
0.0613789
-0.000419344
0.0616397
-0.000237872
0.061862
-9.54048e-05
0.0620506
4.20304e-07
0.0622177
4.90362e-05
0.0623697
6.78596e-05
0.062511
6.8272e-05
0.062642
6.26664e-05
0.0627607
5.93229e-05
0.0628636
6.38208e-05
0.0629473
7.87733e-05
0.0630093
0.000103261
0.0630484
0.000134568
0.0630641
0.000170697
0.0630563
0.000210435
0.0630251
0.00025276
0.0629706
0.000296872
0.062893
0.000342137
0.0627927
0.000388039
0.0626701
0.000434174
0.0625258
0.000480232
0.0623605
0.000525989
0.0621749
0.000571281
0.0619699
0.000615988
0.0617462
0.000660003
0.0615046
0.000703223
0.0612458
0.00074554
0.0609707
0.00078685
0.0606798
0.000827052
0.0603739
0.000866057
0.0600534
0.000903793
0.059719
0.000940208
0.0593711
0.000975264
0.0590102
0.00100893
0.0586366
0.00104114
0.0582511
0.0010718
0.0578543
0.00110071
0.0574474
0.00112755
0.0570318
0.00115186
0.0566096
0.00117311
0.056183
0.00119066
0.0557546
0.00120391
0.055327
0.00121238
0.0549029
0.00121582
0.0544842
0.00121429
0.0540721
0.00120821
0.0536673
0.00119841
0.0532693
0.00118595
0.0528767
0.00117208
0.0524878
0.00115799
0.0521003
0.00114469
0.0517119
0.00113289
0.0513206
0.00112289
0.0509248
0.00111458
0.0505234
0.00110752
0.0501158
0.00110098
0.0497025
0.00109411
0.049284
0.00108599
0.0488616
0.00107575
0.048437
0.00106262
0.048012
0.00104592
0.0475885
0.00102511
0.0471684
0.000999721
0.0467532
0.000969401
0.046343
0.000933894
0.0459354
0.000893918
0.0455259
0.000851909
0.0451063
0.000808612
0.0446649
0.000753023
0.0441927
0.000659252
0.0437015
0.000509506
0.0431697
0.000319096
0.0426446
0.000158567
0.0421678
9.23864e-05
0.0417867
0.000132966
0.0415409
0.000233965
0.0414166
0.000382308
0.0413534
0.000541342
0.0412991
0.000689472
0.0412337
0.000809555
0.0411607
0.000893745
0.0410883
0.000944675
0.0410184
0.000970536
0.0409473
0.0009797
0.0408719
0.000978564
0.040793
0.000972601
0.0407145
0.000968135
0.0406389
0.000972924
0.0405635
0.000995041
0.040479
0.00104048
0.0403715
0.00111044
0.0402263
0.00119946
0.0400321
0.0012954
0.0397859
0.00138175
0.0394941
0.00144149
0.039172
0.00146107
0.0388401
0.00143408
0.0385189
0.00136275
0.0382242
0.00125616
0.0379645
0.00112752
0.0377412
0.000991265
0.0375507
0.000860169
0.0373869
0.000743341
0.0372441
0.0006456
0.0371182
0.000567957
0.0370079
0.00050874
0.0369132
0.000464792
0.0368351
0.000432392
0.0367735
0.000407693
0.0367274
0.000386921
0.036695
0.000367301
0.0366708
0.00034612
0.0366499
0.000323188
0.0366282
0.000299994
0.0366049
0.000276941
0.0365814
0.000255158
0.0365604
0.000235395
0.0365445
0.00021766
0.0365356
0.000201358
0.0365341
0.000185627
0.0365399
0.000169711
0.0365528
0.000153228
0.0365732
0.000136203
0.036602
0.000118942
0.0366405
0.000101807
0.0366901
8.5011e-05
0.0367519
6.84837e-05
0.0368261
5.17229e-05
0.0369122
3.47165e-05
0.037009
1.60078e-05
0.0371162
-6.17124e-06
0.0372319
-3.0832e-05
0.0373555
-5.97065e-05
0.0374864
-9.29035e-05
0.0376253
-0.000130161
0.0377731
-0.000170797
0.0379314
-0.000213481
0.0381009
-0.000256723
0.038282
-0.000299148
0.0384748
-0.000339828
0.0386789
-0.0003783
0.0388939
-0.000414461
0.0391182
-0.000448558
0.03935
-0.000481157
0.0395876
-0.000512555
0.0398299
-0.000543048
0.0400762
-0.000572691
0.0403264
-0.000601266
0.0405807
-0.000628352
0.0408396
-0.000653448
0.0411034
-0.000676037
0.0413725
-0.000695729
0.041647
-0.000712323
0.0419269