/*--------------------------------*- C++ -*----------------------------------*\
| =========                 |                                                 |
| \\      /  F ield         | OpenFOAM: The Open Source CFD Toolbox           |
|  \\    /   O peration     | Version:  v2006                                 |
|   \\  /    A nd           | Website:  www.openfoam.com                      |
|    \\/     M anipulation  |                                                 |
\*---------------------------------------------------------------------------*/
FoamFile
{
    version     2.0;
    format      ascii;
    class       volScalarField;
    location    "0";
    object      p;
}
// * * * * * * * * * * * * * * * * * * * * * * * * * * * * * * * * * * * * * //

dimensions      [1 -1 -2 0 0 0 0];


internalField   nonuniform List<scalar> 
67500
(
14.1373
13.0538
12.1364
10.8643
10.1244
10.6518
10.107
10.6955
10.7273
6.09116
0.653184
-1.50259
-1.08009
-0.66267
-1.09931
0.325646
2.43728
1.06044
0.187145
-0.427546
0.107164
0.863069
1.06474
0.869955
0.746743
0.858314
1.09473
1.29535
1.37822
1.36521
1.3226
1.28529
1.27439
1.27952
1.28941
1.3106
1.35369
1.41338
1.45498
1.45372
1.40409
1.317
1.21484
1.11979
1.04781
1.00883
0.999211
1.00518
1.01127
1.00757
0.994833
0.983427
0.988716
1.0271
1.11347
1.25728
1.44826
1.62069
1.67868
1.65687
1.59818
1.517
1.42795
1.3454
1.28095
1.24324
1.23774
1.26551
1.32326
1.40444
1.48934
1.52384
1.48058
1.42884
1.40732
1.41623
1.46047
1.5432
1.66232
1.81193
1.98006
2.14577
2.27551
2.33613
2.34407
2.35235
2.38773
2.45291
2.54488
2.65265
2.75753
2.84895
2.93764
3.03374
3.13168
3.22104
3.2946
3.35366
3.40671
3.45818
3.50593
3.54743
3.58288
3.61332
3.63844
3.65755
3.67118
3.68039
3.68562
3.68691
3.68434
3.67778
3.66677
3.65084
3.62966
3.60301
3.57073
3.53277
3.48917
3.43997
3.38533
3.32542
3.26052
3.19098
3.11721
3.03968
2.95892
2.87545
2.78984
2.70263
2.61435
2.5255
2.43655
2.3479
2.2599
2.17285
2.087
2.00253
1.91961
1.83835
1.75886
1.68122
1.60549
1.53174
1.46004
1.39044
1.32299
1.25775
1.19477
1.13409
1.07575
1.01977
0.966168
0.914949
0.866101
0.819602
0.775414
0.733485
0.693752
0.65614
0.620563
0.586929
0.555138
0.525087
0.49667
0.469781
0.444317
0.420176
0.397261
0.37548
0.354747
0.334983
0.316112
0.298068
0.28079
0.264222
0.248314
0.23302
0.218301
0.204119
0.190441
0.177236
0.164476
0.152135
0.140189
0.128615
0.117391
0.106497
0.0959115
0.0856169
0.0755944
0.0658264
0.056296
0.046987
0.0378844
0.028974
0.0202429
0.0116795
0.00327359
-0.00498332
-0.013098
-0.0210755
-0.0289189
-0.0366292
-0.0442056
-0.0516455
-0.0589445
-0.0660965
-0.073094
-0.0799284
-0.0865901
-0.0930686
-0.0993531
-0.105433
-0.111296
-0.116933
-0.122333
-0.127486
-0.132385
-0.137021
-0.141388
-0.14548
-0.149294
-0.152826
-0.156074
-0.15904
-0.161722
-0.164123
-0.166247
-0.168097
-0.169678
-0.170997
-0.17206
-0.172875
-0.17345
-0.173793
-0.173915
-0.173824
-0.173531
-0.173047
-0.17238
-0.171543
-0.170545
-0.169398
-0.168111
-0.166694
-0.165159
-0.163515
-0.161771
-0.159937
-0.158021
-0.156034
-0.153982
-0.151873
-0.149717
-0.147518
-0.145286
-0.143025
-0.140742
-0.138442
-0.136132
-0.133816
-0.131499
-0.129185
-0.126878
-0.124583
-0.122302
-0.120038
-0.117796
-0.115577
-0.113385
-0.111221
-0.109087
-0.106986
-0.10492
-0.102889
-0.100896
-0.0989412
-0.0970264
-0.0951524
-0.09332
-0.09153
-0.089783
-0.0880797
-0.0864202
-0.084805
-0.0832341
-0.0817077
-0.0802258
-0.078788
-0.0773943
-0.0760442
-0.0747372
-0.0734728
-0.0722503
-0.0710688
-0.0699275
-0.0688253
-0.0677611
-0.0667338
-0.0657419
-0.0647841
-0.0638589
-0.0629647
-0.0620998
-0.0612626
-0.0604513
-0.059664
-0.0588989
-0.0581541
-0.0574277
-0.0567179
-0.0560227
-0.0553403
-0.0546688
-0.0540066
-0.0533518
-0.0527028
-0.0520582
-0.0514163
-0.0507759
-0.0501356
-0.0494944
-0.0488513
-0.0482053
-0.0475557
-0.046902
-0.0462437
-0.0455806
-0.0449125
-0.0442394
-0.0435616
-0.0428793
-0.042193
-0.0415032
-0.0408104
-0.0401154
-0.0394187
-0.0387211
-0.0380233
-0.0373257
-0.0366291
-0.0359338
-0.0352402
-0.0345489
-0.0338602
-0.0331745
-0.0324921
-0.0318135
-0.0311392
-0.0304696
-0.0298054
-0.0291472
-0.0284956
-0.0278515
-0.0272154
-0.0265882
-0.0259705
-0.0253629
-0.0247662
-0.0241807
-0.0236071
-0.0230457
-0.0224968
-0.0219606
-0.0214373
-0.0209271
-0.0204298
-0.0199455
-0.0194739
-0.019015
-0.0185686
-0.0181342
-0.0177118
-0.0173008
-0.0169011
-0.0165122
-0.0161338
-0.0157654
-0.0154068
-0.0150574
-0.014717
-0.0143851
-0.0140614
-0.0137456
-0.0134371
-0.0131358
-0.0128413
-0.0125532
-0.0122712
-0.0119951
-0.0117245
-0.0114592
-0.0111989
-0.0109434
-0.0106924
-0.0104456
-0.0102029
-0.00996401
-0.00972879
-0.00949702
-0.00926852
-0.00904312
-0.00882067
-0.008601
-0.00838396
-0.00816941
-0.00795723
-0.00774729
-0.00753946
-0.00733363
-0.00712971
-0.00692757
-0.00672713
-0.00652831
-0.00633099
-0.00613512
-0.0059406
-0.00574736
-0.00555534
-0.00536445
-0.00517465
-0.00498587
-0.00479805
-0.00461113
-0.00442507
-0.00423981
-0.0040553
-0.00387151
-0.00368838
-0.00350588
-0.00332396
-0.00314258
-0.00296171
-0.00278132
-0.00260136
-0.00242181
-0.00224264
-0.0020638
-0.00188528
-0.00170705
-0.00152906
-0.00135131
-0.00117374
-0.000996407
-0.000819007
-0.000642378
-0.00046323
-0.000290787
-8.21521e-05
13.9789
12.4475
10.0706
10.4038
10.2892
9.95909
8.78309
8.61955
7.53624
-0.356341
-3.0275
-2.53071
-2.70796
-2.99179
-2.20546
-0.586833
0.707368
1.40495
1.55926
0.380904
0.45852
0.942459
1.14791
1.11273
1.16903
1.45403
1.65336
1.63118
1.46545
1.2945
1.15537
1.06111
0.977389
0.913402
0.906704
0.97057
1.08641
1.21324
1.31976
1.37992
1.37067
1.29728
1.18201
1.05461
0.944792
0.869355
0.829817
0.820304
0.825041
0.826334
0.813602
0.786687
0.757836
0.751148
0.79656
0.925764
1.16619
1.4412
1.49641
1.46362
1.4035
1.31623
1.21735
1.1267
1.06073
1.02988
1.04003
1.09283
1.18314
1.3061
1.45071
1.52145
1.43483
1.34809
1.30614
1.29499
1.3242
1.39787
1.51351
1.66674
1.84822
2.03953
2.19497
2.24352
2.21597
2.20494
2.23605
2.30489
2.40844
2.53381
2.65146
2.74046
2.82563
2.92657
3.03288
3.12917
3.20333
3.25827
3.31021
3.36511
3.41725
3.46184
3.49965
3.53306
3.56128
3.58273
3.59835
3.60989
3.61781
3.62194
3.62248
3.61928
3.61163
3.59893
3.58087
3.5572
3.52775
3.49252
3.45152
3.4048
3.35247
3.29472
3.23182
3.1641
3.092
3.016
2.93663
2.85445
2.77003
2.68392
2.59669
2.50884
2.42083
2.3331
2.24598
2.15979
2.07475
1.99107
1.90889
1.82834
1.7495
1.67246
1.59729
1.52405
1.45281
1.38362
1.31655
1.25166
1.189
1.12861
1.07054
1.01481
0.96145
0.910462
0.861838
0.815558
0.771584
0.729867
0.690344
0.652939
0.617565
0.58413
0.552533
0.522669
0.494432
0.467714
0.442412
0.418424
0.395651
0.374002
0.353391
0.333737
0.314968
0.297017
0.279822
0.263329
0.247489
0.232257
0.217594
0.203462
0.18983
0.176666
0.163945
0.151639
0.139726
0.128183
0.116987
0.10612
0.0955604
0.0852901
0.0752905
0.065544
0.0560339
0.0467439
0.0376589
0.0287645
0.0200479
0.0114971
0.00310203
-0.00514603
-0.0132539
-0.0212267
-0.0290674
-0.0367771
-0.0443549
-0.0517981
-0.0591021
-0.0662606
-0.073266
-0.0801093
-0.0867806
-0.0932692
-0.0995641
-0.105654
-0.111528
-0.117174
-0.122583
-0.127745
-0.132651
-0.137293
-0.141665
-0.145761
-0.149577
-0.153111
-0.15636
-0.159324
-0.162004
-0.164402
-0.166522
-0.168366
-0.169942
-0.171254
-0.172309
-0.173115
-0.173681
-0.174015
-0.174127
-0.174027
-0.173724
-0.173228
-0.172552
-0.171704
-0.170695
-0.169537
-0.16824
-0.166814
-0.165268
-0.163614
-0.161861
-0.160018
-0.158094
-0.156098
-0.154038
-0.151922
-0.149758
-0.147553
-0.145314
-0.143047
-0.140758
-0.138453
-0.136138
-0.133817
-0.131496
-0.129178
-0.126867
-0.124568
-0.122284
-0.120018
-0.117772
-0.115551
-0.113356
-0.11119
-0.109055
-0.106952
-0.104884
-0.102852
-0.100857
-0.0989015
-0.0969857
-0.0951108
-0.0932776
-0.091487
-0.0897396
-0.0880358
-0.086376
-0.0847606
-0.0831897
-0.0816634
-0.0801816
-0.0787441
-0.0773508
-0.0760011
-0.0746948
-0.073431
-0.0722093
-0.0710287
-0.0698884
-0.0687873
-0.0677244
-0.0666983
-0.0657079
-0.0647516
-0.0638279
-0.0629354
-0.0620722
-0.0612368
-0.0604273
-0.0596418
-0.0588786
-0.0581357
-0.0574112
-0.0567032
-0.0560098
-0.0553292
-0.0546596
-0.053999
-0.0533459
-0.0526985
-0.0520553
-0.0514148
-0.0507757
-0.0501365
-0.0494963
-0.048854
-0.0482087
-0.0475597
-0.0469063
-0.0462482
-0.0455851
-0.0449169
-0.0442436
-0.0435654
-0.0428827
-0.0421958
-0.0415055
-0.0408121
-0.0401166
-0.0394195
-0.0387215
-0.0380233
-0.0373254
-0.0366286
-0.0359331
-0.0352395
-0.034548
-0.0338592
-0.0331732
-0.0324905
-0.0318115
-0.0311367
-0.0304665
-0.0298016
-0.0291426
-0.0284902
-0.0278452
-0.0272082
-0.0265801
-0.0259615
-0.0253532
-0.0247557
-0.0241697
-0.0235955
-0.0230336
-0.0224844
-0.021948
-0.0214245
-0.0209142
-0.0204169
-0.0199327
-0.0194613
-0.0190026
-0.0185563
-0.0181223
-0.0177001
-0.0172896
-0.0168902
-0.0165017
-0.0161236
-0.0157556
-0.0153973
-0.0150484
-0.0147083
-0.0143768
-0.0140535
-0.013738
-0.0134299
-0.0131289
-0.0128347
-0.012547
-0.0122653
-0.0119895
-0.0117192
-0.0114542
-0.0111941
-0.0109388
-0.010688
-0.0104415
-0.010199
-0.00996029
-0.00972526
-0.00949367
-0.00926535
-0.00904012
-0.00881782
-0.0085983
-0.0083814
-0.00816699
-0.00795494
-0.00774511
-0.0075374
-0.00733168
-0.00712785
-0.00692582
-0.00672548
-0.00652673
-0.00632951
-0.00613371
-0.00593927
-0.0057461
-0.00555414
-0.00536333
-0.00517359
-0.00498486
-0.0047971
-0.00461023
-0.00442422
-0.00423901
-0.00405455
-0.0038708
-0.00368772
-0.00350525
-0.00332337
-0.00314203
-0.0029612
-0.00278084
-0.00260092
-0.0024214
-0.00224226
-0.00206345
-0.00188496
-0.00170676
-0.0015288
-0.00135108
-0.00117354
-0.000996228
-0.000818854
-0.000642251
-0.00046313
-0.000290713
-8.2121e-05
12.7988
12.1398
10.5875
10.6408
10.2362
9.44196
3.41926
1.61861
3.89109
-2.27321
-5.49612
-2.50152
-2.09076
-1.32951
-0.76073
-0.654346
-0.451373
-0.576191
-0.265877
0.333203
1.18155
1.18686
0.222635
-0.181031
-0.479607
-0.00799743
1.02094
1.58877
1.72225
1.64973
1.30194
1.16324
1.24841
1.34973
1.36201
1.29771
1.18916
1.0524
0.896922
0.728261
0.574745
0.46376
0.408875
0.41212
0.464989
0.545695
0.620865
0.653626
0.630439
0.572058
0.517704
0.498076
0.525616
0.60412
0.740535
0.963259
1.36987
1.8356
1.59408
1.39634
1.25643
1.13189
1.02564
0.935261
0.860084
0.804495
0.776033
0.779093
0.810923
0.887355
1.08824
1.2778
1.08177
0.941967
0.910791
0.922
0.973568
1.06704
1.2061
1.39416
1.62778
1.89903
2.13878
2.13334
1.98883
1.92281
1.93455
1.99827
2.11566
2.27521
2.42234
2.4995
2.57638
2.69332
2.82536
2.94557
3.02385
3.0674
3.11697
3.18104
3.24324
3.29295
3.33391
3.37293
3.40743
3.43318
3.45231
3.46853
3.48197
3.49186
3.49874
3.50242
3.50158
3.49536
3.48354
3.46583
3.44205
3.41227
3.37651
3.33475
3.28708
3.23366
3.17473
3.11065
3.04187
2.9689
2.89231
2.81268
2.73062
2.64671
2.56155
2.47566
2.38954
2.30363
2.21827
2.13378
2.05039
1.96828
1.88759
1.80843
1.73089
1.65506
1.58099
1.50876
1.43843
1.37008
1.30376
1.23955
1.17751
1.1177
1.06016
1.00493
0.952049
0.901518
0.853338
0.807491
0.763946
0.722651
0.683546
0.646553
0.611586
0.578548
0.547338
0.517848
0.489969
0.463594
0.438616
0.414931
0.392442
0.371055
0.350686
0.331255
0.312688
0.294921
0.277893
0.261551
0.245847
0.230738
0.216186
0.202155
0.188615
0.175535
0.162891
0.150656
0.138809
0.127327
0.116189
0.105375
0.0948668
0.0846446
0.0746905
0.064987
0.0555172
0.0462648
0.0372145
0.0283519
0.0196638
0.011138
0.00276423
-0.00546644
-0.013561
-0.0215247
-0.0293604
-0.0370693
-0.0446503
-0.0521004
-0.0594147
-0.0665866
-0.073608
-0.0804694
-0.0871603
-0.0936696
-0.0999857
-0.106097
-0.111991
-0.117657
-0.123084
-0.128263
-0.133183
-0.137838
-0.14222
-0.146324
-0.150146
-0.153682
-0.156932
-0.159894
-0.16257
-0.164961
-0.167072
-0.168906
-0.170469
-0.171767
-0.172807
-0.173597
-0.174145
-0.174461
-0.174553
-0.174432
-0.174108
-0.173592
-0.172894
-0.172025
-0.170996
-0.169816
-0.168498
-0.167052
-0.165487
-0.163813
-0.162041
-0.16018
-0.158239
-0.156226
-0.15415
-0.152019
-0.149841
-0.147622
-0.14537
-0.143091
-0.140791
-0.138475
-0.13615
-0.13382
-0.131489
-0.129163
-0.126845
-0.124539
-0.122248
-0.119976
-0.117725
-0.115499
-0.113299
-0.111129
-0.10899
-0.106883
-0.104812
-0.102777
-0.10078
-0.098822
-0.0969041
-0.0950275
-0.0931928
-0.091401
-0.0896525
-0.0879479
-0.0862876
-0.0846719
-0.0831009
-0.0815746
-0.0800931
-0.0786562
-0.0772635
-0.0759149
-0.0746097
-0.0733473
-0.0721272
-0.0709484
-0.0698102
-0.0687113
-0.0676508
-0.0666274
-0.0656397
-0.0646864
-0.0637659
-0.0628767
-0.0620169
-0.061185
-0.0603792
-0.0595974
-0.0588379
-0.0580988
-0.0573781
-0.0566739
-0.0559843
-0.0553074
-0.0546412
-0.0539841
-0.0533343
-0.05269
-0.0520498
-0.051412
-0.0507754
-0.0501386
-0.0495004
-0.0488599
-0.0482162
-0.0475685
-0.0469161
-0.0462588
-0.0455961
-0.044928
-0.0442545
-0.0435758
-0.0428923
-0.0422044
-0.0415127
-0.0408179
-0.0401206
-0.0394218
-0.038722
-0.038022
-0.0373225
-0.036624
-0.035927
-0.0352319
-0.0345392
-0.0338491
-0.0331619
-0.0324781
-0.031798
-0.0311221
-0.0304508
-0.0297848
-0.0291247
-0.0284712
-0.0278251
-0.0271871
-0.026558
-0.0259385
-0.0253294
-0.0247312
-0.0241445
-0.0235698
-0.0230076
-0.0224581
-0.0219216
-0.0213982
-0.020888
-0.020391
-0.019907
-0.0194361
-0.0189779
-0.0185322
-0.0180988
-0.0176773
-0.0172674
-0.0168688
-0.016481
-0.0161037
-0.0157365
-0.015379
-0.0150308
-0.0146915
-0.0143607
-0.0140381
-0.0137233
-0.0134159
-0.0131156
-0.012822
-0.0125349
-0.0122538
-0.0119786
-0.0117088
-0.0114443
-0.0111848
-0.01093
-0.0106796
-0.0104335
-0.0101914
-0.00995316
-0.00971851
-0.00948728
-0.0092593
-0.00903439
-0.0088124
-0.00859317
-0.00837655
-0.0081624
-0.00795059
-0.00774101
-0.00753352
-0.00732801
-0.00712439
-0.00692254
-0.00672238
-0.00652381
-0.00632675
-0.00613111
-0.00593681
-0.00574379
-0.00555196
-0.00536127
-0.00517165
-0.00498304
-0.00479538
-0.00460862
-0.00442271
-0.00423759
-0.00405322
-0.00386956
-0.00368656
-0.00350417
-0.00332237
-0.0031411
-0.00296034
-0.00278005
-0.00260019
-0.00242073
-0.00224165
-0.00206291
-0.00188447
-0.00170632
-0.00152842
-0.00135075
-0.00117326
-0.000996004
-0.000818681
-0.000642128
-0.000463058
-0.000290683
-8.2144e-05
12.0347
12.3134
10.8136
9.75886
10.0271
0.345193
0.59423
0.720846
0.523473
-0.485571
-0.675204
-0.368158
0.506854
1.32596
0.500502
0.55391
1.07076
0.459319
0.191683
1.28488
1.66693
1.57587
-0.0377978
-0.147362
-0.155873
0.0650682
0.0757152
0.443499
0.510003
0.417709
0.330913
0.3527
0.426902
0.446075
0.412857
0.372083
0.347393
0.333777
0.325294
0.315596
0.30536
0.29756
0.293928
0.294926
0.299117
0.301892
0.299927
0.294891
0.289759
0.286778
0.287881
0.29357
0.303821
0.321783
0.358299
0.447361
0.779504
1.9463
1.17777
0.876354
0.693575
0.504371
0.337513
0.219937
0.161039
0.158921
0.214997
0.344448
0.560049
0.864563
1.39179
1.86839
1.30521
1.09152
0.955481
0.837436
0.785081
0.78615
0.83919
0.953456
1.14609
1.47618
1.93325
1.80471
1.4661
1.35095
1.37443
1.47345
1.65332
1.91971
2.1629
2.18188
2.21773
2.35438
2.52216
2.68126
2.75319
2.76008
2.80416
2.89037
2.97703
3.03707
3.08214
3.13227
3.17896
3.21052
3.23311
3.25579
3.27738
3.29553
3.31206
3.3267
3.33639
3.33996
3.33755
3.32874
3.31341
3.29182
3.26397
3.22974
3.18913
3.14224
3.08928
3.03063
2.96681
2.89837
2.82592
2.7501
2.67155
2.59091
2.50882
2.42587
2.34258
2.25939
2.17669
2.09477
2.01386
1.93412
1.85568
1.77863
1.70306
1.62904
1.55663
1.48591
1.41695
1.34983
1.28463
1.22144
1.16033
1.10136
1.04462
0.990136
0.937959
0.888108
0.840589
0.795392
0.752486
0.711826
0.673349
0.636977
0.602622
0.570184
0.539558
0.510633
0.483297
0.457438
0.432948
0.409721
0.387659
0.366667
0.346661
0.327562
0.309297
0.291804
0.275023
0.258905
0.243402
0.228474
0.214085
0.200203
0.186797
0.17384
0.161308
0.149178
0.137428
0.126036
0.114984
0.104251
0.0938183
0.0836684
0.0737828
0.0641442
0.0547356
0.0455405
0.0365434
0.0277294
0.019085
0.0105978
0.00225695
-0.00594679
-0.0140207
-0.02197
-0.0297979
-0.0375053
-0.045091
-0.0525516
-0.0598817
-0.067074
-0.0741198
-0.0810088
-0.0877297
-0.0942706
-0.100619
-0.106762
-0.112688
-0.118383
-0.123839
-0.129042
-0.133985
-0.138658
-0.143056
-0.147172
-0.151001
-0.154542
-0.157792
-0.160751
-0.16342
-0.165802
-0.1679
-0.169718
-0.171263
-0.172539
-0.173556
-0.174321
-0.174842
-0.175129
-0.175192
-0.175041
-0.174686
-0.174138
-0.173408
-0.172507
-0.171445
-0.170235
-0.168886
-0.167408
-0.165813
-0.164111
-0.162311
-0.160423
-0.158455
-0.156417
-0.154318
-0.152164
-0.149964
-0.147725
-0.145453
-0.143156
-0.140838
-0.138507
-0.136166
-0.133822
-0.131479
-0.12914
-0.126811
-0.124494
-0.122194
-0.119913
-0.117654
-0.11542
-0.113213
-0.111036
-0.108891
-0.10678
-0.104704
-0.102665
-0.100664
-0.0987023
-0.0967815
-0.0949022
-0.0930654
-0.0912716
-0.0895217
-0.0878159
-0.0861548
-0.0845385
-0.0829673
-0.0814412
-0.0799601
-0.078524
-0.0771325
-0.0757852
-0.0744818
-0.0732215
-0.0720038
-0.0708277
-0.0696925
-0.068597
-0.0675401
-0.0665207
-0.0655373
-0.0645884
-0.0636727
-0.0627884
-0.0619339
-0.0611073
-0.0603069
-0.0595307
-0.0587769
-0.0580435
-0.0573285
-0.05663
-0.0559459
-0.0552745
-0.0546137
-0.0539618
-0.0533169
-0.0526774
-0.0520416
-0.051408
-0.0507751
-0.0501417
-0.0495065
-0.0488685
-0.0482268
-0.0475805
-0.0469292
-0.0462724
-0.0456097
-0.0449412
-0.0442669
-0.0435871
-0.0429022
-0.0422127
-0.0415194
-0.040823
-0.0401243
-0.0394241
-0.0387232
-0.0380224
-0.0373223
-0.0366235
-0.0359263
-0.0352311
-0.0345382
-0.0338478
-0.0331601
-0.0324754
-0.0317941
-0.0311166
-0.0304434
-0.0297751
-0.0291124
-0.0284561
-0.0278072
-0.0271663
-0.0265343
-0.0259121
-0.0253005
-0.0247
-0.0241113
-0.0235349
-0.0229713
-0.0224207
-0.0218834
-0.0213596
-0.0208491
-0.0203521
-0.0198684
-0.0193979
-0.0189403
-0.0184953
-0.0180628
-0.0176422
-0.0172334
-0.0168358
-0.0164492
-0.016073
-0.015707
-0.0153506
-0.0150036
-0.0146655
-0.0143358
-0.0140143
-0.0137006
-0.0133943
-0.013095
-0.0128024
-0.0125162
-0.012236
-0.0119617
-0.0116928
-0.0114291
-0.0111703
-0.0109162
-0.0106666
-0.0104211
-0.0101797
-0.009942
-0.00970792
-0.00947724
-0.00924978
-0.00902536
-0.00880384
-0.00858505
-0.00836886
-0.00815511
-0.00794369
-0.00773446
-0.00752731
-0.00732214
-0.00711882
-0.00691727
-0.00671739
-0.00651908
-0.00632227
-0.00612687
-0.0059328
-0.00573998
-0.00554836
-0.00535787
-0.00516843
-0.00498
-0.00479251
-0.00460591
-0.00442015
-0.00423518
-0.00405095
-0.00386742
-0.00368454
-0.00350228
-0.00332059
-0.00313944
-0.00295878
-0.0027786
-0.00259884
-0.00241948
-0.00224049
-0.00206184
-0.0018835
-0.00170544
-0.00152762
-0.00135003
-0.00117263
-0.000995446
-0.000818202
-0.000641726
-0.000462735
-0.00029044
-8.20364e-05
11.6719
11.378
9.17845
5.2948
1.3504
-0.069843
0.0554963
0.205215
0.0418596
-0.210109
-0.342459
-0.32652
-0.306511
-0.42101
-0.753868
-0.593398
-0.477549
-0.485795
-1.09388
2.46567
4.66238
5.77664
0.6224
0.438317
0.35942
0.211722
0.131264
0.328519
0.444252
0.420797
0.409323
0.388375
0.371793
0.360332
0.353046
0.348337
0.343528
0.337354
0.330662
0.32434
0.31842
0.312879
0.30767
0.302868
0.298869
0.296136
0.294818
0.294777
0.295571
0.296785
0.298907
0.302878
0.309501
0.321794
0.348095
0.397689
0.444829
0.353417
0.14508
0.188821
0.215878
0.227523
0.23433
0.238942
0.241688
0.243552
0.246498
0.258269
0.298026
0.416098
0.876906
2.34381
0.248566
-0.0266727
0.056622
0.0665348
0.0958733
0.173242
0.322158
0.563847
0.946904
1.71012
3.04532
2.03082
1.27892
1.13044
1.05108
1.02911
1.0867
1.34322
1.80087
1.65417
1.59777
1.79034
2.0776
2.38283
2.43433
2.34093
2.37986
2.50951
2.63526
2.69711
2.73528
2.80221
2.87068
2.90937
2.93444
2.96781
3.00267
3.03205
3.06219
3.09276
3.11666
3.13298
3.14314
3.14617
3.14199
3.13142
3.11427
3.09017
3.05909
3.02096
2.97595
2.92452
2.86726
2.8048
2.73782
2.66701
2.59307
2.51673
2.43869
2.35961
2.28006
2.20052
2.12137
2.04289
1.96531
1.88876
1.81334
1.73913
1.66619
1.59458
1.52438
1.45566
1.38852
1.32303
1.2593
1.19744
1.13754
1.0797
1.02398
0.970477
0.919226
0.87027
0.823624
0.779284
0.737228
0.697412
0.659772
0.624231
0.590695
0.559061
0.529217
0.501049
0.474438
0.449269
0.425431
0.402814
0.38132
0.360853
0.34133
0.322671
0.304808
0.287678
0.271227
0.255405
0.24017
0.225484
0.211313
0.197628
0.184401
0.171609
0.159228
0.147236
0.135615
0.124344
0.113404
0.102778
0.0924465
0.0823921
0.0725971
0.0630442
0.0537162
0.0445967
0.0356697
0.0269199
0.0183332
0.00989667
0.00159895
-0.00656961
-0.0146167
-0.0225478
-0.0303662
-0.0380727
-0.0456658
-0.0531417
-0.0604941
-0.0677152
-0.0747951
-0.0817224
-0.0884849
-0.0950693
-0.101462
-0.107649
-0.113618
-0.119355
-0.124848
-0.130086
-0.135059
-0.139758
-0.144177
-0.148308
-0.152148
-0.155695
-0.158945
-0.1619
-0.16456
-0.166929
-0.169009
-0.170806
-0.172325
-0.173573
-0.174558
-0.175289
-0.175774
-0.176023
-0.176046
-0.175853
-0.175456
-0.174866
-0.174093
-0.173149
-0.172045
-0.170792
-0.169401
-0.167883
-0.166248
-0.164507
-0.162669
-0.160744
-0.158742
-0.156671
-0.154539
-0.152355
-0.150126
-0.147859
-0.145562
-0.14324
-0.1409
-0.138547
-0.136187
-0.133824
-0.131463
-0.129109
-0.126764
-0.124433
-0.12212
-0.119827
-0.117557
-0.115313
-0.113098
-0.110912
-0.10876
-0.106641
-0.104559
-0.102514
-0.100508
-0.0985421
-0.0966173
-0.0947346
-0.0928948
-0.0910986
-0.0893466
-0.0876393
-0.0859771
-0.0843601
-0.0827887
-0.0812627
-0.0797823
-0.0783472
-0.0769572
-0.0756118
-0.0743107
-0.0730532
-0.0718387
-0.0706663
-0.0695351
-0.0684441
-0.0673922
-0.066378
-0.0654003
-0.0644575
-0.0635481
-0.0626705
-0.0618229
-0.0610035
-0.0602104
-0.0594418
-0.0586956
-0.0579699
-0.0572626
-0.0565717
-0.0558952
-0.0552311
-0.0545775
-0.0539326
-0.0532944
-0.0526612
-0.0520313
-0.0514033
-0.0507757
-0.050147
-0.0495161
-0.048882
-0.0482436
-0.0476002
-0.0469511
-0.0462958
-0.0456342
-0.0449659
-0.0442912
-0.0436102
-0.0429234
-0.0422314
-0.041535
-0.040835
-0.0401324
-0.0394281
-0.038723
-0.0380181
-0.037314
-0.0366114
-0.0359108
-0.0352125
-0.0345168
-0.0338238
-0.0331338
-0.032447
-0.0317636
-0.0310841
-0.0304089
-0.0297386
-0.0290739
-0.0284157
-0.0277648
-0.027122
-0.0264883
-0.0258644
-0.0252513
-0.0246495
-0.0240597
-0.0234825
-0.0229183
-0.0223674
-0.02183
-0.0213063
-0.0207962
-0.0202998
-0.0198169
-0.0193472
-0.0188907
-0.018447
-0.0180157
-0.0175966
-0.0171891
-0.0167931
-0.016408
-0.0160334
-0.0156689
-0.0153141
-0.0149686
-0.014632
-0.0143038
-0.0139838
-0.0136715
-0.0133665
-0.0130685
-0.0127772
-0.0124923
-0.0122133
-0.0119401
-0.0116723
-0.0114096
-0.0111519
-0.0108987
-0.01065
-0.0104054
-0.0101648
-0.00992792
-0.00969459
-0.00946462
-0.00923784
-0.00901407
-0.00879315
-0.00857495
-0.0083593
-0.00814607
-0.00793514
-0.00772639
-0.00751968
-0.00731493
-0.00711201
-0.00691084
-0.00671132
-0.00651335
-0.00631686
-0.00612177
-0.00592799
-0.00573545
-0.0055441
-0.00535385
-0.00516465
-0.00497645
-0.00478917
-0.00460278
-0.00441721
-0.00423242
-0.00404837
-0.00386501
-0.0036823
-0.00350019
-0.00331865
-0.00313764
-0.00295713
-0.00277707
-0.00259744
-0.00241821
-0.00223934
-0.00206081
-0.00188258
-0.00170462
-0.00152692
-0.00134943
-0.00117213
-0.000995051
-0.000817907
-0.00064153
-0.00046264
-0.000290425
-8.21134e-05
11.9673
10.4353
6.47286
1.23123
0.017871
-0.108229
-0.0409069
-0.0467676
-0.143864
-0.275486
-0.336856
-0.352264
-0.38505
-0.466755
-0.540338
-0.523015
-0.523808
-0.746228
-1.54435
0.802267
-1.09784
-3.51715
-0.161338
0.149509
0.105884
0.073988
0.131391
0.261575
0.356711
0.388512
0.395358
0.388787
0.378859
0.367636
0.356014
0.345571
0.337545
0.330883
0.325047
0.319801
0.314995
0.310671
0.306591
0.302515
0.298438
0.294773
0.291982
0.29047
0.290434
0.291813
0.294536
0.298736
0.304741
0.313379
0.326322
0.342815
0.350647
0.331782
0.285286
0.270928
0.267816
0.26745
0.267622
0.267786
0.267609
0.267368
0.268111
0.273223
0.294728
0.342095
0.3432
0.18767
0.112912
0.177523
0.205797
0.218231
0.226778
0.23712
0.25277
0.286621
0.369275
0.636179
4.05707
1.34253
-0.271241
-0.283475
-0.119085
0.125981
0.492507
1.19372
2.27981
1.43408
1.32507
1.47743
1.70784
2.19872
2.05914
1.70602
1.73589
1.97893
2.23292
2.28182
2.28819
2.39502
2.50494
2.53911
2.55209
2.59782
2.65076
2.69292
2.74327
2.79907
2.84232
2.87459
2.9008
2.91817
2.9274
2.93079
2.92735
2.91626
2.89738
2.87027
2.83511
2.79259
2.74344
2.68838
2.62817
2.56353
2.49525
2.42417
2.3511
2.27681
2.20191
2.12693
2.05225
1.97814
1.90477
1.83226
1.76067
1.69004
1.62041
1.55184
1.4844
1.41817
1.35326
1.28979
1.22787
1.16764
1.10923
1.05274
0.998298
0.945981
0.895866
0.848009
0.802438
0.759162
0.718164
0.679402
0.642814
0.608318
0.575815
0.545196
0.516342
0.48913
0.463436
0.439139
0.416121
0.394273
0.373491
0.353682
0.33476
0.316649
0.299282
0.282599
0.26655
0.251089
0.236179
0.221784
0.207875
0.194428
0.181417
0.168821
0.156621
0.144798
0.133334
0.12221
0.11141
0.100915
0.0907094
0.0807749
0.0710942
0.0616501
0.0524253
0.0434029
0.0345663
0.0258997
0.0173882
0.00901803
0.00077704
-0.0073451
-0.0153566
-0.0232634
-0.0310689
-0.0387737
-0.0463761
-0.0538714
-0.0612527
-0.0685108
-0.0756347
-0.0826116
-0.0894277
-0.0960682
-0.102518
-0.108762
-0.114786
-0.120575
-0.126116
-0.131398
-0.136409
-0.141141
-0.145586
-0.149737
-0.153591
-0.157144
-0.160395
-0.163344
-0.165993
-0.168344
-0.170401
-0.17217
-0.173657
-0.174869
-0.175815
-0.176502
-0.176941
-0.177142
-0.177115
-0.17687
-0.176421
-0.175776
-0.17495
-0.173951
-0.172793
-0.171487
-0.170044
-0.168474
-0.166789
-0.164999
-0.163114
-0.161144
-0.159098
-0.156985
-0.154813
-0.152591
-0.150326
-0.148025
-0.145696
-0.143344
-0.140975
-0.138596
-0.13621
-0.133824
-0.131442
-0.129067
-0.126704
-0.124356
-0.122026
-0.119719
-0.117435
-0.115179
-0.112952
-0.110756
-0.108594
-0.106467
-0.104377
-0.102325
-0.100312
-0.0983409
-0.0964112
-0.0945242
-0.0926807
-0.0908815
-0.089127
-0.0874178
-0.0857541
-0.0841364
-0.0825646
-0.0810389
-0.0795592
-0.0781254
-0.0767372
-0.0753943
-0.0740961
-0.0728421
-0.0716316
-0.0704637
-0.0693376
-0.0682523
-0.0672064
-0.0661989
-0.0652283
-0.0642931
-0.0633917
-0.0625224
-0.0616835
-0.0608732
-0.0600894
-0.0593302
-0.0585936
-0.0578775
-0.0571798
-0.0564986
-0.0558316
-0.0551769
-0.0545324
-0.0538962
-0.0532665
-0.0526413
-0.052019
-0.0513979
-0.0507766
-0.0501535
-0.0495274
-0.0488973
-0.048262
-0.0476209
-0.0469732
-0.0463185
-0.0456566
-0.0449875
-0.0443112
-0.0436282
-0.0429391
-0.0422446
-0.0415456
-0.0408432
-0.0401385
-0.0394325
-0.0387263
-0.0380208
-0.0373167
-0.0366145
-0.0359145
-0.0352168
-0.0345216
-0.0338288
-0.0331383
-0.0324503
-0.0317648
-0.0310823
-0.0304033
-0.0297286
-0.0290589
-0.0283952
-0.0277386
-0.0270902
-0.026451
-0.0258219
-0.025204
-0.0245979
-0.0240044
-0.023424
-0.0228572
-0.0223043
-0.0217655
-0.0212409
-0.0207304
-0.020234
-0.0197515
-0.0192827
-0.0188272
-0.0183848
-0.017955
-0.0175375
-0.0171319
-0.0167377
-0.0163545
-0.0159819
-0.0156194
-0.0152666
-0.0149231
-0.0145884
-0.0142622
-0.013944
-0.0136335
-0.0133303
-0.0130341
-0.0127444
-0.012461
-0.0121836
-0.0119118
-0.0116454
-0.0113841
-0.0111276
-0.0108757
-0.0106281
-0.0103847
-0.0101451
-0.00990926
-0.00967689
-0.00944783
-0.00922191
-0.00899896
-0.00877883
-0.00856136
-0.00834642
-0.00813386
-0.00792356
-0.00771541
-0.00750928
-0.00730506
-0.00710266
-0.00690198
-0.00670292
-0.00650539
-0.00630932
-0.00611462
-0.00592121
-0.00572904
-0.00553802
-0.0053481
-0.00515921
-0.00497129
-0.0047843
-0.00459817
-0.00441286
-0.00422831
-0.00404449
-0.00386135
-0.00367885
-0.00349695
-0.00331561
-0.00313478
-0.00295445
-0.00277457
-0.00259511
-0.00241604
-0.00223733
-0.00205895
-0.00188087
-0.00170306
-0.00152549
-0.00134815
-0.00117098
-0.000994038
-0.000817027
-0.00064078
-0.000462021
-0.000289946
-8.18805e-05
8.79961
5.28666
2.96149
0.178048
-0.0636003
-0.133106
-0.146443
-0.183887
-0.245476
-0.323673
-0.374883
-0.408656
-0.451132
-0.50073
-0.51293
-0.486313
-0.497944
-0.546191
-0.504973
-0.0972364
0.18621
0.00973608
-0.0242044
0.00825589
-0.0669921
-0.0483656
0.0642058
0.204275
0.303367
0.352757
0.369592
0.367951
0.361395
0.353951
0.346898
0.340319
0.334073
0.328283
0.322772
0.317601
0.312841
0.308471
0.304445
0.300737
0.29738
0.294527
0.292514
0.291436
0.291335
0.29226
0.29422
0.297141
0.300999
0.305728
0.310686
0.313658
0.309233
0.294431
0.281025
0.274129
0.271161
0.270338
0.270307
0.270237
0.269575
0.268325
0.266861
0.266695
0.272547
0.287193
0.282738
0.285134
0.256045
0.247995
0.246003
0.246047
0.248779
0.255051
0.268422
0.298425
0.360117
0.458911
0.362073
-0.279376
0.00408214
0.0969598
0.137099
0.187284
0.27876
0.382603
3.80154
-0.000378469
-0.378852
0.344698
1.25826
2.97674
1.91818
1.1854
1.31096
1.54662
1.96286
1.84632
1.70308
1.86668
2.08471
2.09412
2.06888
2.14679
2.23172
2.27993
2.35557
2.44694
2.51077
2.56085
2.60876
2.64381
2.66901
2.69
2.70352
2.70847
2.70479
2.69103
2.66754
2.63552
2.59591
2.54962
2.49743
2.44005
2.37839
2.31344
2.24619
2.17753
2.10818
2.03869
1.96942
1.90063
1.83242
1.76485
1.69792
1.63163
1.56601
1.50109
1.43695
1.37368
1.31143
1.25032
1.19053
1.13221
1.07552
1.02062
0.967648
0.916718
0.867931
0.821363
0.777061
0.735046
0.695308
0.65781
0.622488
0.589254
0.558002
0.528613
0.500957
0.474903
0.450317
0.427071
0.405042
0.384116
0.364188
0.345165
0.326962
0.309505
0.292731
0.276584
0.261017
0.245989
0.231468
0.217423
0.203831
0.190668
0.177916
0.165557
0.153575
0.141952
0.130674
0.119725
0.10909
0.0987511
0.0886935
0.0789001
0.0693539
0.0600377
0.0509341
0.0420258
0.0332956
0.0247267
0.0163034
0.00801096
-0.000163795
-0.00823209
-0.0162029
-0.0240827
-0.031875
-0.0395804
-0.0471967
-0.0547186
-0.062138
-0.0694444
-0.076625
-0.0836653
-0.0905496
-0.0972613
-0.103783
-0.110099
-0.116192
-0.122047
-0.127648
-0.132984
-0.138043
-0.142815
-0.147292
-0.151468
-0.155338
-0.158899
-0.16215
-0.165092
-0.167726
-0.170055
-0.172085
-0.17382
-0.175267
-0.176435
-0.177331
-0.177966
-0.178349
-0.17849
-0.178402
-0.178094
-0.17758
-0.176871
-0.175978
-0.174914
-0.173691
-0.17232
-0.170813
-0.169181
-0.167435
-0.165586
-0.163644
-0.161619
-0.159521
-0.157357
-0.155138
-0.15287
-0.150562
-0.14822
-0.145852
-0.143464
-0.141061
-0.13865
-0.136235
-0.133821
-0.131412
-0.129013
-0.126628
-0.124259
-0.121911
-0.119586
-0.117286
-0.115015
-0.112774
-0.110566
-0.108393
-0.106255
-0.104156
-0.102096
-0.100076
-0.0980979
-0.0961624
-0.0942703
-0.0924225
-0.0906196
-0.0888622