/*--------------------------------*- C++ -*----------------------------------*\
| =========                 |                                                 |
| \\      /  F ield         | OpenFOAM: The Open Source CFD Toolbox           |
|  \\    /   O peration     | Version:  v2006                                 |
|   \\  /    A nd           | Website:  www.openfoam.com                      |
|    \\/     M anipulation  |                                                 |
\*---------------------------------------------------------------------------*/
FoamFile
{
    version     2.0;
    format      ascii;
    class       volVectorField;
    location    "0";
    object      U;
}
// * * * * * * * * * * * * * * * * * * * * * * * * * * * * * * * * * * * * * //

dimensions      [0 1 -1 0 0 0 0];


internalField   nonuniform List<vector> 
67500
(
(-0.0196112 0.0160816 0)
(-0.0381402 0.020712 0)
(-0.0682709 0.00536361 0)
(-0.0825865 -0.0556469 0)
(-0.0611344 -0.0982091 0)
(-0.053674 -0.101295 0)
(-0.0250653 -0.0930221 0)
(0.0495379 -0.0874024 0)
(0.134425 -0.0846425 0)
(0.201578 -0.0666974 0)
(0.249661 -0.0560684 0)
(0.282295 -0.0497236 0)
(0.305279 -0.0329046 0)
(0.312983 -0.0090512 0)
(0.306643 0.00862502 0)
(0.258017 0.0116072 0)
(0.203729 -0.00515843 0)
(0.174918 -0.0125263 0)
(0.161101 -0.0105201 0)
(0.157087 -0.0100859 0)
(0.162093 -0.0136098 0)
(0.174134 -0.0157862 0)
(0.187917 -0.0143474 0)
(0.198907 -0.0105372 0)
(0.205892 -0.00676412 0)
(0.209964 -0.00446789 0)
(0.212329 -0.00364923 0)
(0.213906 -0.00358201 0)
(0.215642 -0.00367273 0)
(0.218295 -0.00368779 0)
(0.222007 -0.00353233 0)
(0.226342 -0.00308725 0)
(0.230843 -0.00235314 0)
(0.235517 -0.00162889 0)
(0.240753 -0.00132932 0)
(0.246991 -0.00166556 0)
(0.254499 -0.00251695 0)
(0.263259 -0.00357328 0)
(0.272934 -0.00455545 0)
(0.283011 -0.00525642 0)
(0.293031 -0.00557301 0)
(0.302695 -0.00552585 0)
(0.311878 -0.00522115 0)
(0.320608 -0.0048008 0)
(0.329022 -0.00439894 0)
(0.337321 -0.00411229 0)
(0.345696 -0.00398835 0)
(0.354251 -0.00401094 0)
(0.362971 -0.00410432 0)
(0.371744 -0.00417152 0)
(0.380433 -0.00414367 0)
(0.388951 -0.00401295 0)
(0.397292 -0.00383337 0)
(0.405532 -0.00369117 0)
(0.413801 -0.00366315 0)
(0.422253 -0.00378364 0)
(0.431018 -0.00402776 0)
(0.440132 -0.00431787 0)
(0.449536 -0.00458295 0)
(0.459139 -0.00479058 0)
(0.468845 -0.00490651 0)
(0.478545 -0.00492379 0)
(0.488145 -0.00486723 0)
(0.497593 -0.00477434 0)
(0.506875 -0.00467722 0)
(0.516001 -0.00459261 0)
(0.524991 -0.00452141 0)
(0.533857 -0.00445282 0)
(0.542596 -0.00436938 0)
(0.551171 -0.00425086 0)
(0.559497 -0.00407631 0)
(0.567453 -0.0038487 0)
(0.574998 -0.00364381 0)
(0.582262 -0.00352613 0)
(0.589429 -0.00348316 0)
(0.596613 -0.00348815 0)
(0.603867 -0.00352827 0)
(0.611231 -0.00359349 0)
(0.618727 -0.00367259 0)
(0.626365 -0.00375382 0)
(0.634135 -0.00382549 0)
(0.642004 -0.00387638 0)
(0.649914 -0.00389588 0)
(0.657795 -0.00388627 0)
(0.665614 -0.00387574 0)
(0.673404 -0.00388415 0)
(0.681211 -0.00390454 0)
(0.689048 -0.00392269 0)
(0.696897 -0.00392705 0)
(0.704723 -0.00390881 0)
(0.712476 -0.00386694 0)
(0.720124 -0.00381511 0)
(0.727673 -0.00377092 0)
(0.735152 -0.00373657 0)
(0.742577 -0.00370275 0)
(0.749938 -0.00366219 0)
(0.757214 -0.00361449 0)
(0.764392 -0.00356525 0)
(0.771476 -0.00351908 0)
(0.77847 -0.00347447 0)
(0.785375 -0.0034278 0)
(0.792183 -0.00337827 0)
(0.798888 -0.0033274 0)
(0.805491 -0.00327598 0)
(0.81199 -0.00322323 0)
(0.818381 -0.00316856 0)
(0.824662 -0.00311225 0)
(0.830829 -0.00305455 0)
(0.83688 -0.00299527 0)
(0.84281 -0.00293428 0)
(0.848616 -0.0028717 0)
(0.854296 -0.00280763 0)
(0.859846 -0.00274211 0)
(0.865264 -0.00267526 0)
(0.870546 -0.00260724 0)
(0.875692 -0.00253824 0)
(0.880698 -0.00246844 0)
(0.885564 -0.00239806 0)
(0.890289 -0.00232731 0)
(0.894871 -0.00225639 0)
(0.899312 -0.00218549 0)
(0.903611 -0.00211481 0)
(0.907769 -0.00204451 0)
(0.911787 -0.00197475 0)
(0.915666 -0.00190567 0)
(0.919407 -0.00183741 0)
(0.923013 -0.00177008 0)
(0.926485 -0.00170378 0)
(0.929826 -0.00163861 0)
(0.933037 -0.00157467 0)
(0.936122 -0.00151203 0)
(0.939083 -0.00145077 0)
(0.941923 -0.00139096 0)
(0.944644 -0.00133267 0)
(0.947251 -0.00127597 0)
(0.949746 -0.0012209 0)
(0.952132 -0.0011675 0)
(0.954414 -0.00111582 0)
(0.956593 -0.00106587 0)
(0.958675 -0.00101765 0)
(0.960662 -0.00097118 0)
(0.962557 -0.000926439 0)
(0.964365 -0.000883417 0)
(0.966089 -0.000842093 0)
(0.967732 -0.000802443 0)
(0.969297 -0.00076444 0)
(0.970788 -0.000728053 0)
(0.972207 -0.000693247 0)
(0.973559 -0.000659984 0)
(0.974845 -0.000628222 0)
(0.97607 -0.000597918 0)
(0.977236 -0.000569024 0)
(0.978345 -0.00054149 0)
(0.9794 -0.000515266 0)
(0.980404 -0.000490299 0)
(0.98136 -0.000466537 0)
(0.982269 -0.000443927 0)
(0.983135 -0.000422416 0)
(0.983958 -0.000401953 0)
(0.984741 -0.000382488 0)
(0.985487 -0.000363969 0)
(0.986196 -0.000346348 0)
(0.986871 -0.000329577 0)
(0.987514 -0.000313609 0)
(0.988125 -0.000298398 0)
(0.988707 -0.000283902 0)
(0.98926 -0.000270078 0)
(0.989786 -0.000256887 0)
(0.990287 -0.000244293 0)
(0.990763 -0.000232264 0)
(0.991215 -0.000220768 0)
(0.991645 -0.00020978 0)
(0.992054 -0.000199277 0)
(0.992442 -0.000189239 0)
(0.99281 -0.000179649 0)
(0.99316 -0.000170491 0)
(0.993492 -0.000161754 0)
(0.993807 -0.000153426 0)
(0.994105 -0.000145495 0)
(0.994388 -0.000137952 0)
(0.994657 -0.000130785 0)
(0.994911 -0.000123984 0)
(0.995152 -0.000117537 0)
(0.995381 -0.000111432 0)
(0.995598 -0.000105657 0)
(0.995803 -0.000100197 0)
(0.995998 -9.50403e-05 0)
(0.996183 -9.0172e-05 0)
(0.996359 -8.55782e-05 0)
(0.996525 -8.12447e-05 0)
(0.996683 -7.71577e-05 0)
(0.996834 -7.33035e-05 0)
(0.996976 -6.96687e-05 0)
(0.997112 -6.62403e-05 0)
(0.997241 -6.30059e-05 0)
(0.997364 -5.99534e-05 0)
(0.997481 -5.70712e-05 0)
(0.997592 -5.43483e-05 0)
(0.997698 -5.17741e-05 0)
(0.997799 -4.93384e-05 0)
(0.997895 -4.70318e-05 0)
(0.997987 -4.48451e-05 0)
(0.998075 -4.27698e-05 0)
(0.998158 -4.07977e-05 0)
(0.998238 -3.89216e-05 0)
(0.998314 -3.71342e-05 0)
(0.998386 -3.54293e-05 0)
(0.998455 -3.3801e-05 0)
(0.998521 -3.2244e-05 0)
(0.998584 -3.07533e-05 0)
(0.998644 -2.93248e-05 0)
(0.998701 -2.79545e-05 0)
(0.998756 -2.66392e-05 0)
(0.998808 -2.53758e-05 0)
(0.998857 -2.41618e-05 0)
(0.998905 -2.29949e-05 0)
(0.998949 -2.18731e-05 0)
(0.998992 -2.07948e-05 0)
(0.999033 -1.97584e-05 0)
(0.999071 -1.87626e-05 0)
(0.999108 -1.78063e-05 0)
(0.999142 -1.68885e-05 0)
(0.999175 -1.60081e-05 0)
(0.999206 -1.51644e-05 0)
(0.999236 -1.43564e-05 0)
(0.999264 -1.35835e-05 0)
(0.99929 -1.28449e-05 0)
(0.999315 -1.21398e-05 0)
(0.999338 -1.14674e-05 0)
(0.999361 -1.08271e-05 0)
(0.999382 -1.02181e-05 0)
(0.999402 -9.6395e-06 0)
(0.99942 -9.09067e-06 0)
(0.999438 -8.57075e-06 0)
(0.999455 -8.07895e-06 0)
(0.99947 -7.61443e-06 0)
(0.999485 -7.17635e-06 0)
(0.999499 -6.76387e-06 0)
(0.999512 -6.37613e-06 0)
(0.999524 -6.01228e-06 0)
(0.999536 -5.67143e-06 0)
(0.999547 -5.35273e-06 0)
(0.999557 -5.0553e-06 0)
(0.999567 -4.77829e-06 0)
(0.999577 -4.52082e-06 0)
(0.999585 -4.28204e-06 0)
(0.999594 -4.06111e-06 0)
(0.999602 -3.85717e-06 0)
(0.999609 -3.66939e-06 0)
(0.999616 -3.49695e-06 0)
(0.999623 -3.33904e-06 0)
(0.99963 -3.19485e-06 0)
(0.999636 -3.06359e-06 0)
(0.999642 -2.9445e-06 0)
(0.999648 -2.83682e-06 0)
(0.999653 -2.73981e-06 0)
(0.999659 -2.65274e-06 0)
(0.999664 -2.57491e-06 0)
(0.999669 -2.50565e-06 0)
(0.999674 -2.44428e-06 0)
(0.999679 -2.39016e-06 0)
(0.999683 -2.34269e-06 0)
(0.999688 -2.30127e-06 0)
(0.999692 -2.26532e-06 0)
(0.999697 -2.2343e-06 0)
(0.999701 -2.2077e-06 0)
(0.999706 -2.18501e-06 0)
(0.99971 -2.16577e-06 0)
(0.999714 -2.14953e-06 0)
(0.999719 -2.13586e-06 0)
(0.999723 -2.12438e-06 0)
(0.999727 -2.1147e-06 0)
(0.999731 -2.10647e-06 0)
(0.999736 -2.09935e-06 0)
(0.99974 -2.09304e-06 0)
(0.999744 -2.08724e-06 0)
(0.999748 -2.08167e-06 0)
(0.999752 -2.07608e-06 0)
(0.999757 -2.07021e-06 0)
(0.999761 -2.06385e-06 0)
(0.999765 -2.05677e-06 0)
(0.999769 -2.04877e-06 0)
(0.999773 -2.03967e-06 0)
(0.999777 -2.02928e-06 0)
(0.999781 -2.01744e-06 0)
(0.999785 -2.00399e-06 0)
(0.999789 -1.98879e-06 0)
(0.999793 -1.97172e-06 0)
(0.999797 -1.95265e-06 0)
(0.999801 -1.93148e-06 0)
(0.999805 -1.90812e-06 0)
(0.999809 -1.88252e-06 0)
(0.999812 -1.85461e-06 0)
(0.999816 -1.82436e-06 0)
(0.99982 -1.79176e-06 0)
(0.999823 -1.75684e-06 0)
(0.999827 -1.71963e-06 0)
(0.99983 -1.6802e-06 0)
(0.999833 -1.63866e-06 0)
(0.999837 -1.59512e-06 0)
(0.99984 -1.54976e-06 0)
(0.999843 -1.50275e-06 0)
(0.999846 -1.45434e-06 0)
(0.999849 -1.40475e-06 0)
(0.999851 -1.35428e-06 0)
(0.999854 -1.3032e-06 0)
(0.999857 -1.25184e-06 0)
(0.999859 -1.20051e-06 0)
(0.999861 -1.14953e-06 0)
(0.999864 -1.09922e-06 0)
(0.999866 -1.04988e-06 0)
(0.999868 -1.00179e-06 0)
(0.99987 -9.55221e-07 0)
(0.999872 -9.10387e-07 0)
(0.999873 -8.67488e-07 0)
(0.999875 -8.26686e-07 0)
(0.999877 -7.88115e-07 0)
(0.999878 -7.51881e-07 0)
(0.99988 -7.18074e-07 0)
(0.999881 -6.86771e-07 0)
(0.999882 -6.58042e-07 0)
(0.999884 -6.31958e-07 0)
(0.999885 -6.08593e-07 0)
(0.999886 -5.8802e-07 0)
(0.999887 -5.70305e-07 0)
(0.999888 -5.55499e-07 0)
(0.99989 -5.43624e-07 0)
(0.999891 -5.34649e-07 0)
(0.999892 -5.28479e-07 0)
(0.999893 -5.24929e-07 0)
(0.999894 -5.23717e-07 0)
(0.999895 -5.24451e-07 0)
(0.999896 -5.26634e-07 0)
(0.999897 -5.29677e-07 0)
(0.999898 -5.32925e-07 0)
(0.999899 -5.35699e-07 0)
(0.9999 -5.37341e-07 0)
(0.999901 -5.37273e-07 0)
(0.999902 -5.35051e-07 0)
(0.999903 -5.30415e-07 0)
(0.999904 -5.23322e-07 0)
(0.999905 -5.13966e-07 0)
(0.999906 -5.0277e-07 0)
(0.999907 -4.90355e-07 0)
(0.999908 -4.77491e-07 0)
(0.999909 -4.65033e-07 0)
(0.99991 -4.53844e-07 0)
(0.999911 -4.44724e-07 0)
(0.999912 -4.38346e-07 0)
(0.999913 -4.35206e-07 0)
(0.999914 -4.3559e-07 0)
(0.999915 -4.39565e-07 0)
(0.999916 -4.46988e-07 0)
(0.999917 -4.57531e-07 0)
(0.999918 -4.70713e-07 0)
(0.999919 -4.85949e-07 0)
(0.99992 -5.02589e-07 0)
(0.999921 -5.19964e-07 0)
(0.999922 -5.3742e-07 0)
(0.999923 -5.54354e-07 0)
(0.999924 -5.70234e-07 0)
(0.999925 -5.84614e-07 0)
(0.999926 -5.9714e-07 0)
(0.999928 -6.07557e-07 0)
(0.999929 -6.15698e-07 0)
(0.99993 -6.21483e-07 0)
(0.999931 -6.24902e-07 0)
(0.999933 -6.2601e-07 0)
(0.999934 -6.24911e-07 0)
(0.999935 -6.21747e-07 0)
(0.999936 -6.16689e-07 0)
(0.999938 -6.09924e-07 0)
(0.999939 -6.01648e-07 0)
(0.99994 -5.92061e-07 0)
(0.999941 -5.81358e-07 0)
(0.999942 -5.69728e-07 0)
(0.999943 -5.57347e-07 0)
(0.999944 -5.44379e-07 0)
(0.999946 -5.30974e-07 0)
(0.999947 -5.17268e-07 0)
(0.999948 -5.03381e-07 0)
(0.999949 -4.89418e-07 0)
(0.99995 -4.7547e-07 0)
(0.999951 -4.61616e-07 0)
(0.999951 -4.47923e-07 0)
(0.999952 -4.34446e-07 0)
(0.999953 -4.2123e-07 0)
(0.999954 -4.08312e-07 0)
(0.999955 -3.9572e-07 0)
(0.999956 -3.83477e-07 0)
(0.999956 -3.71598e-07 0)
(0.999957 -3.60094e-07 0)
(0.999958 -3.4897e-07 0)
(0.999958 -3.3823e-07 0)
(0.999959 -3.27873e-07 0)
(0.99996 -3.17895e-07 0)
(0.99996 -3.0829e-07 0)
(0.999961 -2.99053e-07 0)
(0.999962 -2.90173e-07 0)
(0.999962 -2.81643e-07 0)
(0.999963 -2.7345e-07 0)
(0.999963 -2.65584e-07 0)
(0.999964 -2.58034e-07 0)
(0.999964 -2.50787e-07 0)
(0.999965 -2.43833e-07 0)
(0.999965 -2.37159e-07 0)
(0.999966 -2.30754e-07 0)
(0.999966 -2.24606e-07 0)
(0.999967 -2.18703e-07 0)
(0.999967 -2.13035e-07 0)
(0.999967 -2.07591e-07 0)
(0.999968 -2.02361e-07 0)
(0.999968 -1.97334e-07 0)
(0.999969 -1.92501e-07 0)
(0.999969 -1.87852e-07 0)
(0.999969 -1.83378e-07 0)
(0.99997 -1.79072e-07 0)
(0.99997 -1.74923e-07 0)
(0.99997 -1.70926e-07 0)
(0.999971 -1.67072e-07 0)
(0.999971 -1.63354e-07 0)
(0.999971 -1.59765e-07 0)
(0.999972 -1.56298e-07 0)
(0.999972 -1.52949e-07 0)
(0.999972 -1.4971e-07 0)
(0.999973 -1.46576e-07 0)
(0.999973 -1.43541e-07 0)
(0.999973 -1.40602e-07 0)
(0.999974 -1.37752e-07 0)
(0.999974 -1.34988e-07 0)
(0.999974 -1.32305e-07 0)
(0.999974 -1.29699e-07 0)
(0.999975 -1.27166e-07 0)
(0.999975 -1.24703e-07 0)
(0.999975 -1.22305e-07 0)
(0.999975 -1.1997e-07 0)
(0.999976 -1.17695e-07 0)
(0.999976 -1.15477e-07 0)
(0.999976 -1.13312e-07 0)
(0.999976 -1.11198e-07 0)
(0.999976 -1.09133e-07 0)
(0.999977 -1.07115e-07 0)
(0.999977 -1.0514e-07 0)
(0.999977 -1.03207e-07 0)
(0.999977 -1.01315e-07 0)
(0.999977 -9.94564e-08 0)
(0.999978 -9.76502e-08 0)
(0.999978 -9.58099e-08 0)
(0.999978 -9.42973e-08 0)
(0.999978 -9.15389e-08 0)
(-0.0241822 0.040931 0)
(-0.0304286 0.0281852 0)
(-0.0669437 0.0353786 0)
(0.00427892 -0.0115317 0)
(0.0343734 0.0324115 0)
(0.0581422 0.0473729 0)
(0.032547 0.0161711 0)
(0.0408594 -0.0705983 0)
(0.059576 -0.0886665 0)
(0.117625 -0.0550172 0)
(0.132818 -0.021422 0)
(0.133755 -0.0132879 0)
(0.149474 -0.0207253 0)
(0.211863 -0.00144462 0)
(0.24074 0.0338332 0)
(0.255682 0.0728088 0)
(0.264679 0.0769245 0)
(0.261751 0.0560152 0)
(0.255478 0.0338823 0)
(0.24756 0.0103494 0)
(0.23835 -0.00514985 0)
(0.225141 -0.0108044 0)
(0.213217 -0.00901721 0)
(0.207 -0.00528948 0)
(0.206227 -0.00254169 0)
(0.208909 -0.000525372 0)
(0.21315 0.000644438 0)
(0.218916 0.00066383 0)
(0.227271 -0.00077387 0)
(0.237732 -0.00301433 0)
(0.248722 -0.00491048 0)
(0.259646 -0.00629053 0)
(0.271037 -0.00761836 0)
(0.283491 -0.00925179 0)
(0.296989 -0.0111291 0)
(0.310949 -0.0129187 0)
(0.324571 -0.0142533 0)
(0.337149 -0.0148966 0)
(0.348308 -0.0148301 0)
(0.358015 -0.0142269 0)
(0.366423 -0.0133895 0)
(0.373793 -0.0126272 0)
(0.380467 -0.0121509 0)
(0.38682 -0.0120427 0)
(0.39317 -0.0122733 0)
(0.399699 -0.0127259 0)
(0.406413 -0.0132216 0)
(0.413191 -0.0135692 0)
(0.419863 -0.0136584 0)
(0.426287 -0.013522 0)
(0.432414 -0.0133024 0)
(0.438306 -0.0131516 0)
(0.444105 -0.013153 0)
(0.449995 -0.0133199 0)
(0.456141 -0.0136282 0)
(0.462639 -0.0140286 0)
(0.46948 -0.0144195 0)
(0.476517 -0.0146495 0)
(0.48352 -0.0147161 0)
(0.490317 -0.014736 0)
(0.496851 -0.0146815 0)
(0.503103 -0.0145449 0)
(0.509113 -0.0143459 0)
(0.514985 -0.0141053 0)
(0.520843 -0.0138424 0)
(0.526804 -0.0135749 0)
(0.532956 -0.0133136 0)
(0.539349 -0.0130557 0)
(0.546 -0.0127858 0)
(0.552887 -0.012474 0)
(0.559909 -0.0120535 0)
(0.566842 -0.0114722 0)
(0.573543 -0.0109723 0)
(0.580163 -0.0107662 0)
(0.58691 -0.010781 0)
(0.593845 -0.0108995 0)
(0.600971 -0.0110686 0)
(0.608297 -0.011267 0)
(0.615834 -0.0114799 0)
(0.623579 -0.0116873 0)
(0.631517 -0.0118605 0)
(0.639606 -0.0119641 0)
(0.647768 -0.0119558 0)
(0.655887 -0.0118365 0)
(0.663908 -0.011728 0)
(0.671893 -0.0117047 0)
(0.679915 -0.0117294 0)
(0.687986 -0.0117518 0)
(0.696077 -0.0117393 0)
(0.704132 -0.0116653 0)
(0.712079 -0.0115235 0)
(0.719863 -0.0113613 0)
(0.727502 -0.0112403 0)
(0.735054 -0.0111607 0)
(0.742549 -0.0110832 0)
(0.749969 -0.0109781 0)
(0.757283 -0.0108416 0)
(0.764478 -0.0106957 0)
(0.771566 -0.0105594 0)
(0.778563 -0.0104273 0)
(0.785471 -0.0102862 0)
(0.79228 -0.0101349 0)
(0.798983 -0.0099804 0)
(0.805583 -0.00982583 0)
(0.812081 -0.00966785 0)
(0.818474 -0.00950408 0)
(0.824756 -0.00933556 0)
(0.830925 -0.00916306 0)
(0.836978 -0.00898563 0)
(0.842912 -0.00880274 0)
(0.848722 -0.00861491 0)
(0.854405 -0.00842252 0)
(0.859958 -0.00822573 0)
(0.865379 -0.00802492 0)
(0.870665 -0.00782068 0)
(0.875812 -0.00761351 0)
(0.880821 -0.00740397 0)
(0.885688 -0.00719268 0)
(0.890414 -0.00698029 0)
(0.894998 -0.00676738 0)
(0.899439 -0.00655457 0)
(0.903738 -0.00634242 0)
(0.907896 -0.00613143 0)
(0.911913 -0.00592209 0)
(0.915791 -0.0057148 0)
(0.919531 -0.00550998 0)
(0.923135 -0.00530795 0)
(0.926606 -0.00510903 0)
(0.929945 -0.00491352 0)
(0.933154 -0.00472167 0)
(0.936237 -0.00453374 0)
(0.939195 -0.00434995 0)
(0.942032 -0.00417053 0)
(0.944751 -0.00399568 0)
(0.947355 -0.00382557 0)
(0.949847 -0.00366038 0)
(0.952231 -0.00350023 0)
(0.954509 -0.00334521 0)
(0.956685 -0.00319539 0)
(0.958764 -0.00305079 0)
(0.960748 -0.00291142 0)
(0.96264 -0.00277725 0)
(0.964445 -0.00264824 0)
(0.966166 -0.00252433 0)
(0.967805 -0.00240544 0)
(0.969367 -0.00229149 0)
(0.970855 -0.00218239 0)
(0.972272 -0.00207803 0)
(0.973621 -0.0019783 0)
(0.974905 -0.00188308 -1.76958e-41)
(0.976127 -0.00179223 -1.69955e-41)
(0.97729 -0.00170561 0)
(0.978396 -0.00162308 0)
(0.979449 -0.00154447 0)
(0.980451 -0.00146963 0)
(0.981405 -0.0013984 0)
(0.982312 -0.00133063 0)
(0.983175 -0.00126616 0)
(0.983996 -0.00120483 0)
(0.984778 -0.00114649 0)
(0.985522 -0.00109098 0)
(0.98623 -0.00103817 0)
(0.986903 -0.000987906 0)
(0.987544 -0.000940046 0)
(0.988154 -0.000894456 0)
(0.988734 -0.000851005 0)
(0.989286 -0.000809568 0)
(0.989811 -0.000770028 0)
(0.990311 -0.000732275 0)
(0.990786 -0.000696211 0)
(0.991237 -0.000661747 0)
(0.991666 -0.000628804 0)
(0.992074 -0.000597314 0)
(0.992461 -0.000567217 0)
(0.992829 -0.000538464 0)
(0.993178 -0.00051101 0)
(0.993509 -0.000484818 0)
(0.993823 -0.000459852 0)
(0.99412 -0.00043608 0)
(0.994403 -0.00041347 0)
(0.99467 -0.000391991 0)
(0.994924 -0.000371609 0)
(0.995165 -0.00035229 0)
(0.995393 -0.000333996 0)
(0.995609 -0.000316689 0)
(0.995814 -0.00030033 0)
(0.996008 -0.000284877 0)
(0.996192 -0.000270288 0)
(0.996367 -0.000256521 0)
(0.996533 -0.000243535 0)
(0.996691 -0.000231286 0)
(0.996841 -0.000219734 0)
(0.996983 -0.00020884 0)
(0.997119 -0.000198564 0)
(0.997247 -0.00018887 0)
(0.99737 -0.00017972 0)
(0.997486 -0.000171081 0)
(0.997597 -0.00016292 0)
(0.997703 -0.000155204 0)
(0.997804 -0.000147904 0)
(0.9979 -0.000140991 0)
(0.997991 -0.000134437 0)
(0.998079 -0.000128217 0)
(0.998162 -0.000122307 0)
(0.998241 -0.000116684 0)
(0.998317 -0.000111327 0)
(0.998389 -0.000106217 0)
(0.998458 -0.000101337 0)
(0.998524 -9.66698e-05 0)
(0.998587 -9.22016e-05 0)
(0.998647 -8.79194e-05 0)
(0.998704 -8.38117e-05 0)
(0.998759 -7.98683e-05 0)
(0.99881 -7.60804e-05 0)
(0.99886 -7.24403e-05 0)
(0.998907 -6.89411e-05 0)
(0.998952 -6.55772e-05 0)
(0.998994 -6.23433e-05 0)
(0.999035 -5.92351e-05 0)
(0.999073 -5.62486e-05 0)
(0.999109 -5.33805e-05 0)
(0.999144 -5.06276e-05 0)
(0.999177 -4.79872e-05 0)
(0.999208 -4.54567e-05 0)
(0.999237 -4.30335e-05 0)
(0.999265 -4.07155e-05 0)
(0.999291 -3.85002e-05 0)
(0.999316 -3.63856e-05 0)
(0.99934 -3.43692e-05 0)
(0.999362 -3.2449e-05 0)
(0.999383 -3.06227e-05 0)
(0.999403 -2.88879e-05 0)
(0.999421 -2.72422e-05 0)
(0.999439 -2.56833e-05 0)
(0.999456 -2.42088e-05 0)
(0.999471 -2.28162e-05 0)
(0.999486 -2.15029e-05 0)
(0.9995 -2.02664e-05 0)
(0.999513 -1.91041e-05 0)
(0.999525 -1.80134e-05 0)
(0.999537 -1.69918e-05 0)
(0.999548 -1.60366e-05 0)
(0.999558 -1.51453e-05 0)
(0.999568 -1.43151e-05 0)
(0.999577 -1.35436e-05 0)
(0.999586 -1.28282e-05 0)
(0.999594 -1.21662e-05 0)
(0.999602 -1.15553e-05 0)
(0.999609 -1.09928e-05 0)
(0.999617 -1.04763e-05 0)
(0.999623 -1.00033e-05 0)
(0.99963 -9.57157e-06 0)
(0.999636 -9.17859e-06 0)
(0.999642 -8.82209e-06 0)
(0.999648 -8.49979e-06 0)
(0.999653 -8.20947e-06 0)
(0.999659 -7.94897e-06 0)
(0.999664 -7.71617e-06 0)
(0.999669 -7.50903e-06 0)
(0.999674 -7.32556e-06 0)
(0.999679 -7.16384e-06 0)
(0.999683 -7.02202e-06 0)
(0.999688 -6.89831e-06 0)
(0.999693 -6.79101e-06 0)
(0.999697 -6.69848e-06 0)
(0.999701 -6.61916e-06 0)
(0.999706 -6.55157e-06 0)
(0.99971 -6.4943e-06 0)
(0.999714 -6.446e-06 0)
(0.999719 -6.40541e-06 0)
(0.999723 -6.37133e-06 0)
(0.999727 -6.34264e-06 0)
(0.999731 -6.31828e-06 0)
(0.999736 -6.29725e-06 0)
(0.99974 -6.27862e-06 0)
(0.999744 -6.26149e-06 0)
(0.999748 -6.24504e-06 0)
(0.999752 -6.2285e-06 0)
(0.999757 -6.21114e-06 0)
(0.999761 -6.19226e-06 0)
(0.999765 -6.17122e-06 0)
(0.999769 -6.14742e-06 0)
(0.999773 -6.12029e-06 0)
(0.999777 -6.08928e-06 0)
(0.999781 -6.05391e-06 0)
(0.999785 -6.01371e-06 0)
(0.999789 -5.96824e-06 0)
(0.999793 -5.91713e-06 0)
(0.999797 -5.86003e-06 0)
(0.999801 -5.79661e-06 0)
(0.999805 -5.72662e-06 0)
(0.999809 -5.64985e-06 0)
(0.999812 -5.56615e-06 0)
(0.999816 -5.47541e-06 0)
(0.99982 -5.37761e-06 0)
(0.999823 -5.2728e-06 0)
(0.999827 -5.1611e-06 0)
(0.99983 -5.04271e-06 0)
(0.999833 -4.91794e-06 0)
(0.999837 -4.78716e-06 0)
(0.99984 -4.65088e-06 0)
(0.999843 -4.50965e-06 0)
(0.999846 -4.36415e-06 0)
(0.999849 -4.21512e-06 0)
(0.999851 -4.0634e-06 0)
(0.999854 -3.90987e-06 0)
(0.999857 -3.75546e-06 0)
(0.999859 -3.60113e-06 0)
(0.999861 -3.44784e-06 0)
(0.999864 -3.29657e-06 0)
(0.999866 -3.1482e-06 0)
(0.999868 -3.00362e-06 0)
(0.99987 -2.86359e-06 0)
(0.999872 -2.72883e-06 0)
(0.999873 -2.59993e-06 0)
(0.999875 -2.47739e-06 0)
(0.999877 -2.36162e-06 0)
(0.999878 -2.25295e-06 0)
(0.99988 -2.15161e-06 0)
(0.999881 -2.05781e-06 0)
(0.999882 -1.9717e-06 0)
(0.999884 -1.89342e-06 0)
(0.999885 -1.82312e-06 0)
(0.999886 -1.76091e-06 0)
(0.999887 -1.70694e-06 0)
(0.999888 -1.6613e-06 0)
(0.99989 -1.62404e-06 0)
(0.999891 -1.59511e-06 0)
(0.999892 -1.5743e-06 0)
(0.999893 -1.5612e-06 0)
(0.999894 -1.55516e-06 0)
(0.999895 -1.55523e-06 0)
(0.999896 -1.56016e-06 0)
(0.999897 -1.56845e-06 0)
(0.999898 -1.57838e-06 0)
(0.999899 -1.5881e-06 0)
(0.9999 -1.59579e-06 0)
(0.999901 -1.59979e-06 0)
(0.999902 -1.59876e-06 0)
(0.999903 -1.59182e-06 0)
(0.999904 -1.57862e-06 0)
(0.999905 -1.55947e-06 0)
(0.999906 -1.53527e-06 0)
(0.999907 -1.50747e-06 0)
(0.999908 -1.47797e-06 0)
(0.999909 -1.44891e-06 0)
(0.99991 -1.42252e-06 0)
(0.999911 -1.4009e-06 0)
(0.999912 -1.38588e-06 0)
(0.999913 -1.37883e-06 0)
(0.999914 -1.38062e-06 0)
(0.999915 -1.39155e-06 0)
(0.999916 -1.41137e-06 0)
(0.999917 -1.43932e-06 0)
(0.999918 -1.47422e-06 0)
(0.999919 -1.51459e-06 0)
(0.99992 -1.55876e-06 0)
(0.999921 -1.60495e-06 0)
(0.999922 -1.65143e-06 0)
(0.999923 -1.69655e-06 0)
(0.999924 -1.73884e-06 0)
(0.999925 -1.77706e-06 0)
(0.999926 -1.8102e-06 0)
(0.999928 -1.83752e-06 0)
(0.999929 -1.85851e-06 0)
(0.99993 -1.87292e-06 0)
(0.999931 -1.88068e-06 0)
(0.999933 -1.88191e-06 0)
(0.999934 -1.87689e-06 0)
(0.999935 -1.866e-06 0)
(0.999936 -1.8497e-06 0)
(0.999938 -1.8285e-06 0)
(0.999939 -1.80297e-06 0)
(0.99994 -1.77366e-06 0)
(0.999941 -1.74114e-06 0)
(0.999942 -1.70594e-06 0)
(0.999943 -1.66857e-06 0)
(0.999945 -1.62951e-06 0)
(0.999946 -1.58919e-06 0)
(0.999947 -1.54801e-06 0)
(0.999948 -1.50632e-06 0)
(0.999949 -1.46443e-06 0)
(0.99995 -1.4226e-06 0)
(0.999951 -1.38107e-06 0)
(0.999951 -1.34003e-06 0)
(0.999952 -1.29965e-06 0)
(0.999953 -1.26006e-06 0)
(0.999954 -1.22137e-06 0)
(0.999955 -1.18366e-06 0)
(0.999956 -1.147e-06 0)
(0.999956 -1.11144e-06 0)
(0.999957 -1.077e-06 0)
(0.999958 -1.0437e-06 0)
(0.999958 -1.01155e-06 0)
(0.999959 -9.80549e-07 0)
(0.99996 -9.50685e-07 0)
(0.99996 -9.21942e-07 0)
(0.999961 -8.94298e-07 0)
(0.999962 -8.67727e-07 0)
(0.999962 -8.422e-07 0)
(0.999963 -8.17685e-07 0)
(0.999963 -7.9415e-07 0)
(0.999964 -7.71559e-07 0)
(0.999964 -7.49879e-07 0)
(0.999965 -7.29073e-07 0)
(0.999965 -7.09107e-07 0)
(0.999966 -6.89944e-07 0)
(0.999966 -6.71551e-07 0)
(0.999967 -6.53894e-07 0)
(0.999967 -6.36939e-07 0)
(0.999967 -6.20654e-07 0)
(0.999968 -6.05009e-07 0)
(0.999968 -5.89972e-07 0)
(0.999969 -5.75514e-07 0)
(0.999969 -5.61609e-07 0)
(0.999969 -5.48228e-07 0)
(0.99997 -5.35347e-07 0)
(0.99997 -5.2294e-07 0)
(0.99997 -5.10984e-07 0)
(0.999971 -4.99457e-07 0)
(0.999971 -4.88336e-07 0)
(0.999971 -4.77603e-07 0)
(0.999972 -4.67236e-07 0)
(0.999972 -4.57218e-07 0)
(0.999972 -4.47531e-07 0)
(0.999973 -4.38158e-07 0)
(0.999973 -4.29084e-07 0)
(0.999973 -4.20293e-07 0)
(0.999974 -4.11771e-07 0)
(0.999974 -4.03505e-07 0)
(0.999974 -3.95481e-07 0)
(0.999974 -3.87688e-07 0)
(0.999975 -3.80114e-07 0)
(0.999975 -3.72747e-07 0)
(0.999975 -3.65578e-07 0)
(0.999975 -3.58596e-07 0)
(0.999976 -3.51792e-07 0)
(0.999976 -3.45158e-07 0)
(0.999976 -3.38685e-07 0)
(0.999976 -3.32364e-07 0)
(0.999976 -3.26189e-07 0)
(0.999977 -3.20153e-07 0)
(0.999977 -3.14248e-07 0)
(0.999977 -3.08468e-07 0)
(0.999977 -3.02809e-07 0)
(0.999977 -2.97253e-07 0)
(0.999978 -2.91852e-07 0)
(0.999978 -2.86349e-07 0)
(0.999978 -2.81824e-07 0)
(0.999978 -2.73599e-07 0)
(-0.0217409 0.0665568 0)
(-0.0119879 0.0522425 0)
(-0.0697238 0.0427375 0)
(-0.116224 -0.0570376 0)
(-0.161685 -0.0499141 0)
(-0.153203 -0.0694504 0)
(-0.185406 -0.101883 0)
(-0.256309 -0.130102 0)
(-0.279683 -0.158526 0)
(-0.10014 -0.120289 0)
(0.0176832 -0.07811 0)
(0.0723952 -0.0598991 0)
(0.100219 -0.0583116 0)
(0.119127 -0.0474569 0)
(0.128382 -0.0153593 0)
(0.1566 0.00303956 0)
(0.190168 2.20361e-05 0)
(0.215129 -0.00212238 0)
(0.227554 0.0017627 0)
(0.225936 0.00641282 0)
(0.215571 0.00945691 0)
(0.20762 0.00771834 0)
(0.211621 0.000226286 0)
(0.224303 -0.00580503 0)
(0.240315 -0.0119789 0)
(0.262574 -0.0148939 0)
(0.284785 -0.0159774 0)
(0.305678 -0.0182698 0)
(0.325064 -0.0213072 0)
(0.340621 -0.0231612 0)
(0.35389 -0.0235324 0)
(0.36514 -0.0233458 0)
(0.374266 -0.0236099 0)
(0.381155 -0.0245602 0)
(0.386205 -0.0257328 0)
(0.390233 -0.0266667 0)
(0.394199 -0.0271343 0)
(0.399022 -0.0270297 0)
(0.405348 -0.0262933 0)
(0.413358 -0.0249699 0)
(0.422746 -0.0232549 0)
(0.432912 -0.0214289 0)
(0.443196 -0.0197647 0)
(0.453052 -0.0184558 0)
(0.462139 -0.0175823 0)
(0.470398 -0.0171118 0)
(0.478081 -0.0169256 0)
(0.485654 -0.0168522 0)
(0.493555 -0.0167055 0)
(0.501939 -0.0163492 0)
(0.510605 -0.0157773 0)
(0.519157 -0.0151408 0)
(0.527225 -0.0146821 0)
(0.534606 -0.0145974 0)
(0.541234 -0.0149588 0)
(0.547227 -0.0156998 0)
(0.552753 -0.0166627 0)
(0.557976 -0.0174295 0)
(0.562898 -0.0176316 0)
(0.567324 -0.0175602 0)
(0.571319 -0.0172003 0)
(0.574809 -0.016684 0)
(0.577752 -0.0162392 0)
(0.580187 -0.0160464 0)
(0.582209 -0.016174 0)
(0.583937 -0.016589 0)
(0.585496 -0.0172042 0)
(0.586998 -0.017909 0)
(0.588546 -0.0185755 0)
(0.590268 -0.0190392 0)
(0.592289 -0.0190268 0)
(0.594502 -0.0182917 0)
(0.596847 -0.0176492 0)
(0.599656 -0.0175134 0)
(0.603234 -0.0176211 0)
(0.607515 -0.0178313 0)
(0.612345 -0.0181278 0)
(0.617634 -0.0184891 0)
(0.623335 -0.018886 0)
(0.629423 -0.0192844 0)
(0.635878 -0.0196491 0)
(0.642679 -0.0199378 0)
(0.649744 -0.0200444 0)
(0.656857 -0.0198848 0)
(0.663915 -0.0197584 0)
(0.671095 -0.0198228 0)
(0.678551 -0.0199729 0)
(0.686277 -0.0200939 0)
(0.694217 -0.0201172 0)
(0.702285 -0.0199806 0)
(0.710331 -0.0196526 0)
(0.718224 -0.0192595 0)
(0.725988 -0.0189767 0)
(0.733733 -0.0187966 0)
(0.741485 -0.0186238 0)
(0.749183 -0.0183979 0)
(0.756743 -0.0181146 0)
(0.764124 -0.017832 0)
(0.771356 -0.0175932 0)
(0.77848 -0.0173751 0)
(0.785496 -0.0171413 0)
(0.79238 -0.0168865 0)
(0.79913 -0.016629 0)
(0.80576 -0.0163754 0)
(0.812279 -0.0161155 0)
(0.818686 -0.0158434 0)
(0.824975 -0.015563 0)
(0.831148 -0.0152767 0)
(0.837205 -0.0149819 0)
(0.843143 -0.0146774 0)
(0.848957 -0.0143646 0)
(0.854644 -0.0140443 0)
(0.860203 -0.0137162 0)
(0.865628 -0.0133811 0)
(0.870918 -0.0130402 0)
(0.87607 -0.0126942 0)
(0.881082 -0.0123441 0)
(0.885952 -0.0119912 0)
(0.89068 -0.0116365 0)
(0.895264 -0.0112809 0)
(0.899706 -0.0109256 0)
(0.904005 -0.0105713 0)
(0.908161 -0.0102191 0)
(0.912177 -0.00986966 0)
(0.916052 -0.00952371 0)
(0.91979 -0.00918188 0)
(0.923391 -0.00884475 0)
(0.926858 -0.00851284 0)
(0.930192 -0.00818663 0)
(0.933397 -0.00786655 0)
(0.936475 -0.00755302 0)
(0.939428 -0.00724641 0)
(0.94226 -0.00694709 0)
(0.944973 -0.00665541 0)
(0.947571 -0.00637167 0)
(0.950057 -0.00609614 0)
(0.952434 -0.00582906 0)
(0.954706 -0.00557057 0)
(0.956876 -0.00532079 0)
(0.958948 -0.00507974 0)
(0.960925 -0.00484744 0)
(0.962811 -0.00462382 0)
(0.964609 -0.00440882 0)
(0.966323 -0.00420233 0)
(0.967957 -0.00400423 0)
(0.969512 -0.00381437 0)
(0.970994 -0.00363261 0)
(0.972405 -0.00345877 0)
(0.973748 -0.00329266 0)
(0.975026 -0.00313407 0)
(0.976243 -0.00298278 0)
(0.9774 -0.00283855 0)
(0.978502 -0.00270113 0)
(0.97955 -0.00257026 0)
(0.980547 -0.00244568 0)
(0.981496 -0.00232713 0)
(0.982398 -0.00221433 0)
(0.983258 -0.00210702 0)
(0.984075 -0.00200496 0)
(0.984853 -0.00190787 0)
(0.985593 -0.00181551 0)
(0.986297 -0.00172763 0)
(0.986968 -0.001644 0)
(0.987606 -0.00156438 0)
(0.988212 -0.00148853 0)
(0.98879 -0.00141624 0)
(0.98934 -0.00134731 0)
(0.989862 -0.00128152 0)
(0.99036 -0.00121871 0)
(0.990832 -0.0011587 0)
(0.991282 -0.00110134 0)
(0.991709 -0.00104651 0)
(0.992115 -0.000994083 0)
(0.9925 -0.000943972 0)
(0.992866 -0.00089609 0)
(0.993213 -0.000850367 0)
(0.993542 -0.000806741 0)
(0.993855 -0.000765155 0)
(0.994151 -0.000725559 0)
(0.994432 -0.000687899 0)
(0.994698 -0.000652125 0)
(0.99495 -0.000618182 0)
(0.995189 -0.000586013 0)
(0.995416 -0.000555556 0)
(0.995631 -0.000526748 0)
(0.995835 -0.000499522 0)
(0.996028 -0.000473809 0)
(0.996211 -0.000449538 0)
(0.996385 -0.000426639 0)
(0.99655 -0.000405039 0)
(0.996707 -0.00038467 0)
(0.996856 -0.000365463 0)
(0.996997 -0.000347351 0)
(0.997132 -0.000330268 0)
(0.99726 -0.000314153 0)
(0.997382 -0.000298945 0)
(0.997498 -0.000284586 0)
(0.997608 -0.000271021 0)
(0.997713 -0.000258198 0)
(0.997813 -0.000246065 0)
(0.997909 -0.000234574 0)
(0.998 -0.000223682 0)
(0.998087 -0.000213343 0)
(0.99817 -0.000203519 0)
(0.998249 -0.000194171 0)
(0.998324 -0.000185266 0)
(0.998396 -0.00017677 0)
(0.998465 -0.000168654 0)
(0.99853 -0.000160892 0)
(0.998593 -0.00015346 0)
(0.998653 -0.000146336 0)
(0.998709 -0.000139501 0)
(0.998764 -0.000132939 0)
(0.998815 -0.000126635 0)
(0.998865 -0.000120576 0)
(0.998911 -0.000114751 0)
(0.998956 -0.00010915 0)
(0.998998 -0.000103766 0)
(0.999039 -9.85899e-05 0)
(0.999077 -9.36166e-05 0)
(0.999113 -8.88401e-05 0)
(0.999148 -8.42553e-05 0)
(0.99918 -7.98577e-05 0)
(0.999211 -7.5643e-05 0)
(0.99924 -7.16071e-05 0)
(0.999268 -6.77463e-05 0)
(0.999294 -6.40567e-05 0)
(0.999319 -6.05348e-05 0)
(0.999342 -5.71767e-05 0)
(0.999365 -5.39789e-05 0)
(0.999385 -5.09374e-05 0)
(0.999405 -4.80486e-05 0)
(0.999424 -4.53084e-05 0)
(0.999441 -4.27129e-05 0)
(0.999457 -4.0258e-05 0)
(0.999473 -3.79396e-05 0)
(0.999488 -3.57535e-05 0)
(0.999501 -3.36954e-05 0)
(0.999514 -3.17611e-05 0)
(0.999526 -2.99462e-05 0)
(0.999538 -2.82463e-05 0)
(0.999549 -2.66572e-05 0)
(0.999559 -2.51744e-05 0)
(0.999569 -2.37936e-05 0)
(0.999578 -2.25106e-05 0)
(0.999587 -2.1321e-05 0)
(0.999595 -2.02205e-05 0)
(0.999603 -1.9205e-05 0)
(0.99961 -1.82702e-05 0)
(0.999617 -1.74121e-05 0)
(0.999624 -1.66266e-05 0)
(0.99963 -1.59095e-05 0)
(0.999637 -1.52571e-05 0)
(0.999642 -1.46655e-05 0)
(0.999648 -1.41308e-05 0)