/*--------------------------------*- C++ -*----------------------------------*\
| =========                 |                                                 |
| \\      /  F ield         | OpenFOAM: The Open Source CFD Toolbox           |
|  \\    /   O peration     | Version:  v2006                                 |
|   \\  /    A nd           | Website:  www.openfoam.com                      |
|    \\/     M anipulation  |                                                 |
\*---------------------------------------------------------------------------*/
FoamFile
{
    version     2.0;
    format      ascii;
    class       volScalarField;
    location    "0";
    object      f;
}
// * * * * * * * * * * * * * * * * * * * * * * * * * * * * * * * * * * * * * //

dimensions      [0 0 0 0 0 0 0];


internalField   nonuniform List<scalar> 
2500
(
6.40507e-89
-2.20845e-74
-4.54333e-66
1.03757e-59
-1.14116e-56
-7.02555e-53
-3.24404e-50
-3.3421e-48
-9.28989e-47
2.62172e-46
3.81444e-44
9.23064e-43
1.16183e-41
9.83634e-41
2.91158e-40
-1.73991e-39
-2.33332e-38
-1.36248e-37
-5.64524e-37
-1.8768e-36
-4.80102e-36
-7.27922e-36
4.01616e-36
6.32292e-35
2.21765e-34
5.20338e-34
9.46964e-34
1.41241e-33
1.77789e-33
1.92874e-33
1.83505e-33
1.55234e-33
1.17453e-33
7.8415e-34
4.30111e-34
1.32862e-34
-1.00441e-34
-2.66114e-34
-3.63288e-34
-3.97272e-34
-3.80807e-34
-3.31393e-34
-2.66712e-34
-2.0086e-34
-1.42718e-34
-9.62643e-35
-6.19294e-35
-3.81375e-35
-2.25447e-35
-8.02479e-36
1.88607e-86
-3.19607e-73
-3.7858e-64
4.10053e-58
-2.39781e-55
-1.60221e-51
-6.75148e-49
-6.31414e-47
-1.54365e-45
3.74042e-45
4.78782e-43
1.06892e-41
1.30753e-40
1.15209e-39
4.40793e-39
-5.87461e-39
-1.6073e-37
-9.98743e-37
-4.15111e-36
-1.3676e-35
-3.50087e-35
-5.60574e-35
5.65551e-36
3.57368e-34
1.30003e-33
3.05555e-33
5.52707e-33
8.17077e-33
1.01742e-32
1.0898e-32
1.02194e-32
8.50878e-33
6.33267e-33
4.16322e-33
2.26128e-33
7.17818e-34
-4.53061e-34
-1.25512e-33
-1.70335e-33
-1.83952e-33
-1.73721e-33
-1.4876e-33
-1.17727e-33
-8.71486e-34
-6.08579e-34
-4.03445e-34
-2.55122e-34
-1.54455e-34
-8.97772e-35
-3.29523e-35
5.04663e-84
1.59128e-70
-2.62462e-62
1.49498e-56
-4.02481e-54
-3.37326e-50
-1.3334e-47
-1.15071e-45
-2.4681e-44
6.60108e-44
6.11898e-42
1.21726e-40
1.42963e-39
1.30198e-38
5.74874e-38
3.90158e-38
-1.03785e-36
-7.3341e-36
-3.12189e-35
-1.03015e-34
-2.65261e-34
-4.4477e-34
-1.00434e-34
2.11453e-33
8.10703e-33
1.92156e-32
3.4733e-32
5.11468e-32
6.33049e-32
6.72638e-32
6.24537e-32
5.1412e-32
3.78061e-32
2.45813e-32
1.32754e-32
4.3336e-33
-2.27722e-33
-6.68596e-33
-9.06329e-33
-9.70686e-33
-9.06802e-33
-7.67116e-33
-5.99289e-33
-4.37749e-33
-3.01589e-33
-1.97251e-33
-1.23073e-33
-7.3531e-34
-4.21848e-34
-1.59105e-34
1.30581e-81
3.15157e-68
-1.64371e-60
5.25221e-55
-4.73797e-53
-6.72689e-49
-2.56024e-46
-2.06028e-44
-3.84467e-43
1.31458e-42
8.04727e-41
1.35609e-39
1.49015e-38
1.39224e-37
6.74984e-37
1.21796e-36
-5.37816e-36
-5.02835e-35
-2.25061e-34
-7.50639e-34
-1.95011e-33
-3.40543e-33
-1.66393e-33
1.18109e-32
4.88192e-32
1.17277e-31
2.12395e-31
3.122e-31
3.84772e-31
4.06171e-31
3.73887e-31
3.04644e-31
2.21564e-31
1.42616e-31
7.66743e-32
2.57699e-32
-1.09619e-32
-3.4854e-32
-4.73188e-32
-5.03221e-32
-4.65388e-32
-3.89138e-32
-3.00205e-32
-2.16431e-32
-1.47139e-32
-9.49581e-33
-5.8468e-33
-3.44774e-33
-1.95256e-33
-7.56806e-34
3.26371e-79
4.27218e-66
-9.52163e-59
1.77484e-53
-3.49963e-54
-1.25353e-47
-4.78004e-45
-3.63309e-43
-5.86485e-42
2.63661e-41
1.09785e-39
1.49417e-38
1.48028e-37
1.40909e-36
7.30523e-36
1.83685e-35
-1.30699e-35
-3.13051e-34
-1.54397e-33
-5.27595e-33
-1.3889e-32
-2.51626e-32
-1.76816e-32
6.13016e-32
2.83049e-31
6.93464e-31
1.26218e-30
1.8562e-30
2.28241e-30
2.39756e-30
2.19103e-30
1.76909e-30
1.27381e-30
8.12489e-31
4.35326e-31
1.50705e-31
-5.00463e-32
-1.7765e-31
-2.42268e-31
-2.56172e-31
-2.34729e-31
-1.94101e-31
-1.47923e-31
-1.05283e-31
-7.06401e-32
-4.49898e-32
-2.73397e-32
-1.59137e-32
-8.8978e-33
-3.54333e-33
7.86958e-77
4.9176e-64
-5.15817e-57
5.75554e-52
1.85212e-50
-2.12719e-46
-8.67876e-44
-6.32461e-42
-8.82108e-41
5.02504e-40
1.54663e-38
1.65202e-37
1.40326e-36
1.34813e-35
7.36299e-35
2.21373e-34
1.71144e-34
-1.66018e-33
-9.96297e-33
-3.56299e-32
-9.56581e-32
-1.79367e-31
-1.57701e-31
2.86915e-31
1.5741e-30
3.96472e-30
7.27801e-30
1.07363e-29
1.31994e-29
1.38219e-29
1.25584e-29
1.00603e-29
7.17899e-30
4.54186e-30
2.42757e-30
8.65518e-31
-2.1306e-31
-8.8439e-31
-1.2156e-30
-1.27988e-30
-1.16294e-30
-9.51557e-31
-7.16624e-31
-5.03651e-31
-3.33561e-31
-2.09673e-31
-1.25764e-31
-7.22668e-32
-3.9897e-32
-1.63153e-32
1.82805e-74
5.10601e-62
-2.62544e-55
1.78577e-50
4.82125e-49
-3.09734e-45
-1.53217e-42
-1.08882e-40
-1.31867e-39
8.91934e-39
2.21572e-37
1.86075e-36
1.27595e-35
1.21624e-34
6.93602e-34
2.34535e-33
3.66865e-33
-6.00429e-33
-5.92437e-32
-2.29919e-31
-6.35667e-31
-1.23265e-30
-1.26546e-30
1.12797e-30
8.35415e-30
2.18639e-29
4.06493e-29
6.03279e-29
7.43326e-29
7.77462e-29
7.03416e-29
5.5979e-29
3.96317e-29
2.4893e-29
1.32843e-29
4.87512e-30
-8.17752e-31
-4.29491e-30
-5.9732e-30
-6.27208e-30
-5.65666e-30
-4.58257e-30
-3.41171e-30
-2.3682e-30
-1.54836e-30
-9.6068e-31
-5.68796e-31
-3.22684e-31
-1.75918e-31
-7.38182e-32
4.08451e-72
4.90119e-60
-1.25608e-53
5.2801e-49
-2.02193e-48
-3.1621e-44
-2.6285e-41
-1.85487e-39
-1.97451e-38
1.46608e-37
3.16569e-36
2.15604e-35
1.12703e-34
1.03123e-33
6.1013e-33
2.25717e-32
4.65902e-32
9.44129e-33
-3.11152e-31
-1.40593e-30
-4.06388e-30
-8.1587e-30
-9.39509e-30
2.85349e-30
4.20102e-29
1.15953e-28
2.19454e-28
3.28785e-28
4.07107e-28
4.26209e-28
3.84649e-28
3.04515e-28
2.14129e-28
1.33654e-28
7.12717e-29
2.68984e-29
-2.59835e-30
-2.03167e-29
-2.87204e-29
-3.0129e-29
-2.6998e-29
-2.16681e-29
-1.59532e-29
-1.09393e-29
-7.06141e-30
-4.32476e-30
-2.52768e-30
-1.41582e-30
-7.62265e-31
-3.27899e-31
8.76316e-70
4.3982e-58
-5.62869e-52
1.47945e-47
-8.11637e-46
8.40975e-44
-4.37554e-40
-3.12398e-38
-2.97651e-37
2.22615e-36
4.4313e-35
2.5671e-34
9.91442e-34
8.19077e-33
4.98689e-32
1.99761e-31
4.85449e-31
4.88788e-31
-1.28401e-30
-8.03659e-30
-2.48989e-29
-5.19378e-29
-6.54145e-29
-6.33361e-30
1.97994e-28
5.89177e-28
1.14237e-27
1.73472e-27
2.16522e-27
2.27442e-27
2.0513e-27
1.61786e-27
1.13128e-27
7.02355e-28
3.74524e-28
1.45207e-28
-4.69597e-30
-9.34469e-29
-1.35004e-28
-1.41769e-28
-1.26359e-28
-1.00536e-28
-7.32283e-29
-4.9613e-29
-3.16209e-29
-1.91168e-29
-1.10297e-29
-6.09989e-30
-3.24349e-30
-1.42871e-30
1.80215e-67
3.70624e-56
-2.34153e-50
3.8959e-46
-4.94728e-44
1.71853e-41
-7.04815e-39
-5.18799e-37
-4.51859e-36
3.1102e-35
5.99412e-34
3.1021e-33
9.01831e-33
6.09052e-32
3.74903e-31
1.62881e-30
4.47134e-30
6.5549e-30
-2.0184e-30
-4.18819e-29
-1.45413e-28
-3.17425e-28
-4.30192e-28
-1.6525e-28
8.58689e-28
2.85413e-27
5.7164e-27
8.84137e-27
1.11644e-26
1.17986e-26
1.06561e-26
8.38626e-27
5.83835e-27
3.60891e-27
1.92565e-27
7.66068e-28
1.95703e-29
-4.17003e-28
-6.19777e-28
-6.52932e-28
-5.79557e-28
-4.57461e-28
-3.29764e-28
-2.20783e-28
-1.38943e-28
-8.2916e-29
-4.72238e-29
-2.57866e-29
-1.35423e-29
-6.10068e-30
3.54734e-65
2.93198e-54
-8.87563e-49
9.5169e-45
-2.18846e-42
6.50867e-40
-1.0935e-37
-8.45932e-36
-6.87161e-35
3.96359e-34
7.75661e-33
3.73411e-32
8.791e-32
4.27903e-31
2.54419e-30
1.21585e-29
3.73537e-29
6.66259e-29
3.53308e-29
-1.88246e-28
-8.02989e-28
-1.85804e-27
-2.68224e-27
-1.60456e-27
3.30667e-27
1.30919e-26
2.73914e-26
4.34148e-26
5.57007e-26
5.94062e-26
5.3852e-26
4.23623e-26
2.94014e-26
1.81125e-26
9.67669e-27
3.94508e-27
3.06207e-28
-1.80045e-27
-2.77558e-27
-2.94088e-27
-2.60314e-27
-2.04001e-27
-1.45595e-27
-9.63419e-28
-5.98658e-28
-3.52623e-28
-1.98233e-28
-1.06873e-28
-5.54346e-29
-2.55056e-29
6.68155e-63
2.16643e-52
-2.94016e-47
2.1082e-43
-8.26525e-41
1.85038e-38
-1.6221e-36
-1.34678e-34
-1.03683e-33
4.5238e-33
9.52834e-32
4.39301e-31
9.24891e-31
2.94446e-30
1.50227e-29
8.16575e-29
2.85119e-28
5.84495e-28
5.64702e-28
-6.11393e-28
-4.13832e-27
-1.03833e-26
-1.58832e-26
-1.21147e-26
1.03382e-26
5.6293e-26
1.25048e-25
2.04727e-25
2.68283e-25
2.8981e-25
2.64366e-25
2.08265e-25
1.44305e-25
8.86856e-26
4.74682e-26
1.98072e-26
2.46475e-27
-7.49465e-27
-1.21097e-26
-1.29421e-26
-1.14414e-26
-8.90962e-27
-6.29823e-27
-4.1195e-27
-2.5274e-27
-1.46921e-27
-8.15155e-28
-4.33869e-28
-2.2227e-28
-1.043e-28
1.20794e-60
1.47684e-50
-7.54815e-46
4.04581e-42
-2.82341e-39
4.54597e-37
-2.27468e-35
-2.07985e-33
-1.53424e-32
4.43803e-32
1.10365e-30
4.96876e-30
1.01887e-29
2.16067e-29
7.07065e-29
4.74046e-28
1.98041e-27
4.60701e-27
5.74792e-27
8.88939e-29
-1.9437e-26
-5.51553e-26
-8.93661e-26
-7.97751e-26
1.75505e-26
2.23226e-25
5.40086e-25
9.23297e-25
1.24408e-24
1.36709e-24
1.25861e-24
9.95058e-25
6.89369e-25
4.23099e-25
2.27003e-25
9.68272e-26
1.61267e-26
-2.99359e-26
-5.13959e-26
-5.55913e-26
-4.91676e-26
-3.80821e-26
-2.66754e-26
-1.72477e-26
-1.04467e-26
-5.99212e-27
-3.28058e-27
-1.72363e-27
-8.72088e-28
-4.16749e-28
2.11998e-58
9.04134e-49
-6.78525e-45
5.95927e-41
-8.97121e-38
1.00692e-35
-2.96141e-34
-3.0928e-32
-2.20042e-31
3.32934e-31
1.1969e-29
5.32928e-29
1.12255e-28
1.88097e-28
1.87882e-28
2.12694e-27
1.23071e-26
3.30701e-26
4.85645e-26
2.50747e-26
-7.89991e-26
-2.76743e-25
-4.77491e-25
-4.76622e-25
-7.93723e-26
7.92067e-25
2.18395e-24
3.96061e-24
5.53579e-24
6.22094e-24
5.80024e-24
4.6129e-24
3.20062e-24
1.9639e-24
1.05676e-24
4.60211e-25
9.41009e-26
-1.13978e-25
-2.1183e-25
-2.32805e-25
-2.06404e-25
-1.59178e-25
-1.10536e-25
-7.06542e-26
-4.22398e-26
-2.39e-26
-1.29083e-26
-6.69366e-27
-3.34464e-27
-1.62527e-27
3.71828e-56
4.64908e-47
8.59017e-43
3.34385e-40
-2.69267e-36
2.03914e-34
-3.46802e-33
-4.39226e-31
-3.02541e-30
9.15997e-31
1.20493e-28
5.35143e-28
1.1893e-27
1.96197e-27
-7.65104e-28
3.85355e-27
6.55901e-26
2.16264e-25
3.63718e-25
2.94804e-25
-2.36962e-25
-1.29902e-24
-2.41972e-24
-2.62924e-24
-1.11651e-24
2.34596e-24
8.12941e-24
1.60373e-23
2.35377e-23
2.7232e-23
2.58184e-23
2.07107e-23
1.4418e-23
8.85501e-24
4.78112e-24
2.12329e-24
5.06784e-25
-4.0956e-25
-8.46134e-25
-9.49317e-25
-8.45628e-25
-6.5012e-25
-4.47773e-25
-2.82948e-25
-1.66919e-25
-9.31308e-26
-4.96046e-26
-2.53815e-26
-1.25237e-26
-6.179e-27
6.89447e-54
1.5639e-45
8.27581e-41
-1.7364e-38
-7.69947e-35
3.77621e-33
-3.41602e-32
-5.90015e-30
-3.94709e-29
-2.83419e-29
1.1127e-27
4.95804e-27
1.17807e-26
2.20999e-26
-1.43887e-26
-5.72741e-26
2.64583e-25
1.27429e-24
2.47044e-24
2.51896e-24
-6.39014e-26
-5.6123e-24
-1.16085e-23
-1.35091e-23
-8.20313e-24
4.51374e-24
2.69875e-23
6.06036e-23
9.5109e-23
1.14289e-22
1.10729e-22
8.98695e-23
6.28998e-23
3.87136e-23
2.09843e-23
9.49232e-24
2.55915e-24
-1.36654e-24
-3.26775e-24
-3.76402e-24
-3.37768e-24
-2.59232e-24
-1.77185e-24
-1.10678e-24
-6.44028e-25
-3.5415e-25
-1.85942e-25
-9.38531e-26
-4.57243e-26
-2.2872e-26
1.44844e-51
-3.73615e-44
5.13289e-39
-8.07503e-37
-2.10549e-33
6.32198e-32
-2.28271e-31
-7.40563e-29
-4.83596e-28
-7.5602e-28
9.25723e-27
4.14982e-26
1.06635e-25
2.43557e-25
-8.91169e-26
-9.28907e-25
3.38783e-25
6.5717e-24
1.53123e-23
1.83668e-23
6.64095e-24
-2.16221e-23
-5.26068e-23
-6.49632e-23
-4.81231e-23
-5.97954e-24
7.4197e-23
2.09742e-22
3.62493e-22
4.57963e-22
4.5622e-22
3.76005e-22
2.65185e-22
1.6378e-22
8.91606e-23
4.10354e-23
1.22137e-23
-4.10693e-24
-1.21664e-23
-1.44882e-23
-1.31386e-23
-1.00829e-23
-6.84306e-24
-4.22485e-24
-2.42362e-24
-1.31266e-24
-6.78982e-25
-3.37943e-25
-1.62542e-25
-8.23158e-26
3.53686e-49
-1.3943e-41
2.63218e-37
-1.78313e-35
-5.50803e-32
9.29241e-31
4.43097e-31
-8.53426e-28
-5.49824e-27
-1.24429e-26
6.73274e-26
3.01963e-25
8.58027e-25
2.50027e-24
1.52287e-25
-8.97908e-24
-7.55319e-24
2.74845e-23
8.62373e-23
1.19794e-22
7.18371e-23
-6.87085e-23
-2.24687e-22
-2.93393e-22
-2.46149e-22
-1.25957e-22
1.27752e-22
6.41265e-22
1.289e-21
1.74297e-21
1.79962e-21
1.51273e-21
1.07787e-21
6.6894e-22
3.65889e-22
1.7114e-22
5.53035e-23
-1.03556e-23
-4.35125e-23
-5.4037e-23
-4.97101e-23
-3.82201e-23
-2.57731e-23
-1.57235e-23
-8.88566e-24
-4.73598e-24
-2.41163e-24
-1.18308e-24
-5.61696e-25
-2.87613e-25
9.56425e-47
-1.75072e-39
1.18764e-35
5.06571e-36
-1.37485e-30
1.11281e-29
4.89307e-29
-8.76829e-27
-5.70916e-26
-1.62881e-25
4.04342e-25
1.74082e-24
5.83018e-24
2.34314e-23
1.13487e-23
-6.7726e-23
-1.06336e-22
6.81523e-23
4.34327e-22
7.10615e-22
5.50508e-22
-1.30563e-22
-9.02696e-22
-1.24956e-21
-1.13438e-21
-8.73642e-22
-2.17124e-22
1.58523e-21
4.20256e-21
6.25774e-21
6.76859e-21
5.83379e-21
4.21243e-21
2.63103e-21
1.44635e-21
6.86725e-22
2.37917e-22
-1.68565e-23
-1.48789e-22
-1.94858e-22
-1.8269e-22
-1.41059e-22
-9.45831e-23
-5.69972e-23
-3.16995e-23
-1.66077e-23
-8.31762e-24
-4.01959e-24
-1.88356e-24
-9.74043e-25
2.66269e-44
-1.68093e-37
4.81258e-34
2.22482e-32
-3.25763e-29
8.10933e-29
1.02273e-27
-7.55493e-26
-5.28053e-25
-1.7795e-24
1.75908e-24
5.28974e-24
2.88516e-23
1.982e-22
1.74034e-22
-4.14941e-22
-9.54536e-22
-2.37138e-22
1.88257e-21
3.84534e-21
3.57729e-21
3.83561e-22
-3.40672e-21
-5.05413e-21
-4.78962e-21
-4.57978e-21
-3.57233e-21
2.15428e-21
1.21709e-20
2.09977e-20
2.41529e-20
2.14872e-20
1.57806e-20
9.93655e-21
5.49107e-21
2.64306e-21
9.72202e-22
2.24268e-23
-4.83313e-22
-6.77501e-22
-6.51169e-22
-5.06411e-22
-3.37943e-22
-2.01049e-22
-1.09895e-22
-5.65091e-23
-2.78022e-23
-1.3227e-23
-6.11691e-24
-3.19174e-24
7.24675e-42
-1.38535e-35
1.75837e-32
1.35152e-30
-7.27152e-28
-6.53089e-28
1.39641e-26
-4.52065e-25
-4.15073e-24
-1.59807e-23
3.63965e-24
-4.14397e-23
2.48342e-23
1.49297e-21
1.88739e-21
-1.97808e-21
-6.94428e-21
-5.09088e-21
6.29923e-21
1.88517e-20
2.07479e-20
6.4801e-21
-1.20528e-20
-1.96576e-20
-1.87699e-20
-2.04207e-20
-2.26475e-20
-6.89406e-21
2.91429e-20
6.49682e-20
8.12689e-20
7.52605e-20
5.64729e-20
3.59213e-20
1.99553e-20
9.72247e-21
3.76762e-21
3.81827e-22
-1.47722e-21
-2.26326e-21
-2.24702e-21
-1.76679e-21
-1.17472e-21
-6.89393e-22
-3.69687e-22
-1.86207e-22
-8.98593e-23
-4.20554e-23
-1.91947e-23
-1.01002e-23
1.87525e-39
-1.0147e-33
5.75413e-31
5.73331e-29
-1.51307e-26
-4.23198e-26
1.1594e-25
2.39617e-25
-2.4653e-23
-1.06481e-22
9.85647e-24
-9.59416e-22
-1.69103e-21
9.77305e-21
1.66658e-20
-5.76798e-21
-4.38585e-20
-4.83081e-20
8.61292e-21
8.21469e-20
1.09317e-19
5.04611e-20
-3.95757e-20
-7.49319e-20
-6.93812e-20
-8.05294e-20
-1.0953e-19
-7.60437e-20
4.46939e-20
1.81457e-19
2.55838e-19
2.49356e-19
1.92302e-19
1.23884e-19
6.9169e-20
3.40412e-20
1.38086e-20
2.33334e-21
-4.18249e-21
-7.22938e-21
-7.49039e-21
-5.98442e-21
-3.97016e-21
-2.29582e-21
-1.20482e-21
-5.9285e-22
-2.80071e-22
-1.28838e-22
-5.80501e-23
-3.08038e-23
4.54553e-37
-6.67154e-32
1.65541e-29
2.01334e-27
-2.89211e-25
-1.08272e-24
-3.01541e-25
5.90631e-23
-6.02531e-23
-2.70783e-22
8.71316e-22
-1.08697e-20
-2.7542e-20
5.27277e-20
1.25002e-19
1.15286e-20
-2.52416e-19
-3.62795e-19
-9.43783e-20
3.047e-19
5.23979e-19
3.15176e-19
-1.14994e-19
-2.85969e-19
-2.47819e-19
-2.85937e-19
-4.49698e-19
-4.19835e-19
-4.78294e-20
4.40317e-19
7.45706e-19
7.76237e-19
6.2026e-19
4.06189e-19
2.27811e-19
1.12913e-19
4.76704e-20
1.09639e-20
-1.06529e-20
-2.19267e-20
-2.40533e-20
-1.96601e-20
-1.30393e-20
-7.41855e-21
-3.79706e-21
-1.81867e-21
-8.38939e-22
-3.79021e-22
-1.68702e-22
-9.03475e-23
1.02146e-34
-3.93117e-30
4.01522e-28
6.14216e-26
-4.96627e-24
-2.04959e-23
-3.60208e-23
1.09008e-21
8.97426e-22
5.8624e-21
2.28178e-20
-8.92279e-20
-2.98935e-19
2.00929e-19
8.0577e-19
3.34612e-19
-1.42467e-18
-2.43e-18
-1.18046e-18
8.55568e-19
2.25376e-18
1.75789e-18
-2.34675e-19
-1.1054e-18
-8.82996e-19
-9.26141e-19
-1.61982e-18
-1.80066e-18
-7.65124e-19
8.51088e-19
1.98281e-18
2.24882e-18
1.88448e-18
1.26216e-18
7.1037e-19
3.52895e-19
1.54137e-19
4.44043e-20
-2.27983e-20
-6.24589e-20
-7.41251e-20
-6.25765e-20
-4.16067e-20
-2.32409e-20
-1.15468e-20
-5.35634e-21
-2.40472e-21
-1.06625e-21
-4.69528e-22
-2.5429e-22
2.10659e-32
-2.05607e-28
7.31044e-27
1.64535e-24
-7.37128e-23
-3.1301e-22
-9.07261e-22
1.3291e-20
1.50794e-20
1.25825e-19
3.75469e-19
-5.45861e-19
-2.61231e-18
1.22411e-19
4.4226e-18
3.25592e-18
-8.71544e-18
-1.52786e-17
-9.04478e-18
9.41535e-19
8.37432e-18
9.18628e-18
2.98319e-19
-4.28108e-18
-3.22839e-18
-2.78324e-18
-5.16726e-18
-6.5046e-18
-3.97058e-18
9.41851e-19
4.69715e-18
5.97044e-18
5.35208e-18
3.70852e-18
2.09177e-18
1.0329e-18
4.63068e-19
1.60784e-19
-3.20647e-20
-1.63995e-19
-2.18019e-19
-1.92725e-19
-1.28992e-19
-7.05374e-20
-3.37869e-20
-1.50714e-20
-6.55698e-21
-2.85307e-21
-1.24672e-21
-6.85445e-22
3.93862e-30
-9.37686e-27
4.91085e-26
3.81092e-23
-8.6874e-22
-3.85763e-21
-1.63254e-20
1.17491e-19
9.46303e-20
1.55186e-18
4.74754e-18
-2.22362e-18
-1.91718e-17
-6.271e-18
1.96273e-17
2.50857e-17
-6.10977e-17
-9.26522e-17
-5.65517e-17
-8.13955e-18
2.45296e-17
4.70966e-17
7.72109e-18
-1.59941e-17
-1.22221e-17
-7.97633e-18
-1.45583e-17
-2.01589e-17
-1.49714e-17
-1.4427e-18
9.48821e-18
1.40826e-17
1.40308e-17
1.03028e-17
5.8179e-18
2.81184e-18
1.27702e-18
5.26845e-19
2.87922e-20
-3.82663e-19
-6.06873e-19
-5.73312e-19
-3.88754e-19
-2.07273e-19
-9.47573e-20
-4.02184e-20
-1.68615e-20
-7.21034e-21
-3.14515e-21
-1.76687e-21
6.56763e-28
-3.61951e-25
-3.32811e-24
7.18957e-22
-5.96168e-21
-3.61773e-20
-2.35194e-19
6.81557e-19
-6.44407e-19
1.43528e-17
5.05823e-17
-2.72384e-18
-1.29242e-16
-6.93094e-17
6.18123e-17
1.84932e-16
-6.14973e-16
-6.32092e-16
-3.0811e-16
-7.2539e-17
5.10106e-17
2.73947e-16
6.01605e-17
-5.32661e-17
-4.77344e-17
-2.26182e-17
-3.57153e-17
-5.31312e-17
-4.52734e-17
-1.20645e-17
1.48167e-17
2.70586e-17
3.30722e-17
2.71672e-17
1.53947e-17
7.06468e-18
3.16598e-18
1.56016e-18
4.59715e-19
-7.25526e-19
-1.57643e-18
-1.6424e-18
-1.14043e-18
-5.89435e-19
-2.53151e-19
-1.00546e-19
-4.03283e-20
-1.70431e-20
-7.50811e-21
-4.35398e-21
9.54316e-26
-1.11844e-23
-2.00973e-22
8.74054e-21
4.66169e-20
-2.13206e-19
-2.59907e-18
1.51891e-18
-2.72211e-17
1.30021e-16
5.58318e-16
4.11651e-17
-1.85737e-15
-4.66627e-16
1.37747e-15
1.10376e-15
-6.55006e-15
-4.2351e-15
-1.13434e-15
-3.4971e-16
4.79305e-15
2.62291e-15
3.00248e-16
-1.72001e-16
-2.03514e-16
-6.49418e-17
-7.37513e-17
-1.14643e-16
-1.09865e-16
-3.92063e-17
1.33963e-17
2.65443e-17
6.55098e-17
6.84474e-17
3.96675e-17
1.62286e-17
6.75488e-18
4.11078e-18
2.2994e-18
-7.62699e-19
-3.72153e-18
-4.50522e-18
-3.26595e-18
-1.62247e-18
-6.37295e-19
-2.30035e-19
-8.74621e-20
-3.71502e-20
-1.69193e-20
-1.02769e-20
1.16651e-23
-2.3745e-22
-6.89285e-21
-5.84086e-20
2.51753e-18
-4.01969e-19
-1.41406e-17
-9.64258e-18
-4.15474e-16
4.63779e-15
4.00794e-15
-9.7508e-15
-1.44368e-14
2.29114e-14
1.68716e-13
-2.97508e-14
-2.17163e-14
1.74115e-14
3.49991e-13
2.50688e-13
1.01145e-13
1.25676e-14
-9.46013e-16
-6.92413e-15
-1.26065e-15
-1.73735e-16
-1.18736e-16
-1.84769e-16
-1.89895e-16
-7.69912e-17
-4.17416e-18
-1.30876e-16
8.61143e-17
1.62392e-16
1.05624e-16
3.35086e-17
1.09314e-17
9.23359e-18
8.42128e-18
1.78968e-18
-7.50027e-18
-1.16901e-17
-9.19092e-18
-4.33276e-18
-1.47929e-18
-4.56104e-19
-1.62633e-19
-7.31128e-20
-3.61007e-20
-2.33652e-20
1.13044e-21
-3.00369e-22
-1.4322e-19
-8.23513e-18
6.8758e-17
-4.79202e-17
3.26511e-16
-9.38756e-15
-3.18384e-18
5.63761e-14
-2.80253e-14
-9.31239e-13
3.03993e-13
2.86579e-12
1.35312e-12
-7.78749e-12
2.21613e-12
1.36322e-11
8.86872e-12
2.7684e-12
3.64681e-13
-1.71039e-13
-7.61415e-13
-1.2455e-13
-6.49295e-15
-7.59515e-16
-3.60373e-16
-3.56307e-16
8.31149e-17
-5.19481e-17
-4.60383e-15
-2.005e-15
-2.43343e-17
4.47852e-16
3.37005e-16
5.78679e-17
5.46863e-18
1.55397e-17
2.4623e-17
1.49006e-17
-1.02039e-17
-2.79057e-17
-2.58011e-17
-1.13252e-17
-3.00396e-18
-6.53495e-19
-2.17593e-19
-1.25953e-19
-7.42416e-20
-5.16969e-20
7.71303e-20
3.86858e-19
6.03579e-19
-4.06062e-16
3.96797e-15
-6.38122e-15
3.688e-15
-1.19502e-13
1.0732e-12
6.22259e-13
-7.95727e-12
-8.16404e-12
5.20921e-11
2.17436e-11
-4.32783e-11
-6.29523e-11
6.00338e-11
6.47032e-11
2.70635e-11
6.09876e-12
-2.31093e-12
-2.66995e-11
-4.60592e-12
-5.89156e-13
-2.0415e-13
-6.01079e-13
-1.34037e-12
-2.22768e-13
4.57913e-15
-1.73325e-13
-9.87007e-14
-1.09805e-14
6.47876e-16
1.22716e-14
1.40419e-15
3.04142e-17
-5.13117e-17
7.50363e-18
5.59149e-17
5.76615e-17
9.51416e-18
-5.72544e-17
-7.45746e-17
-2.97509e-17
-4.43706e-18
9.81505e-20
3.30704e-22
-1.84944e-19
-1.54478e-19
-1.1273e-19
7.38569e-18
4.24968e-17
-1.29879e-15
-3.85024e-15
2.44547e-14
-2.69208e-15
-9.38981e-13
8.71244e-13
9.78847e-12
-4.23023e-11
-5.756e-11
1.31195e-10
2.31301e-10
-1.87097e-10
-2.03141e-09
-3.63359e-10
1.68106e-09
-2.40224e-09
-5.09417e-09
-4.21623e-09
-2.37048e-09
-3.08386e-10
-1.97993e-13
-5.23197e-12
-2.10634e-12
-8.51018e-12
-1.27338e-11
-8.70511e-12
-5.45343e-12
-2.62757e-12
-3.68967e-13
-1.10692e-14
5.59493e-13
1.14855e-13
5.05068e-16
-3.66631e-16
-2.53528e-16
-9.43751e-17
8.69858e-17
1.54094e-16
1.81855e-16
-8.35389e-17
-2.38473e-16
-8.39181e-17
1.29639e-18
5.87887e-18
1.2996e-18
-2.68169e-19
-3.5323e-19
-2.43481e-19
1.04436e-14
-5.07971e-15
-1.38618e-13
8.33381e-13
-1.24279e-12
-4.42032e-13
-1.20599e-11
1.06202e-10
3.79819e-12
-5.55945e-10
1.94779e-10
6.49324e-09
-1.83298e-09
-2.22524e-08
-1.27678e-08
4.75674e-08
1.97634e-08
-1.18973e-07
-1.20819e-07
-6.52078e-08
-1.27484e-08
-3.97559e-10
7.1749e-12
-1.00117e-11
-4.91937e-12
-2.78836e-11
-3.13613e-11
-4.10331e-11
-3.30167e-11
-7.8758e-12
1.81741e-14
1.3403e-11
5.4868e-12
3.00048e-13
-6.2601e-15
-1.91087e-15
-1.35796e-15
-9.90132e-16
5.56933e-17
3.66768e-15
1.71087e-15
-3.39648e-17
-1.38689e-15
-2.86671e-16
5.52475e-17
3.15878e-17
5.25154e-18
-7.96887e-19
-9.37475e-19
-5.08569e-19
7.99863e-14
-1.14406e-13
-5.84702e-13
5.07014e-12
-1.00338e-11
-5.87705e-11
2.88231e-10
1.10985e-09
-6.20872e-09
-4.02776e-09
2.29723e-08
4.76862e-08
-2.17077e-07
-1.5538e-07
2.98665e-07
5.90253e-07
1.44612e-08
-3.06985e-07
-3.64983e-07
-1.7099e-07
2.23441e-07
6.64586e-08
3.72641e-09
4.92599e-10
1.6819e-11
-4.22391e-11
-3.3685e-11
-7.04067e-11
-6.20037e-11
2.66077e-11
1.30175e-10
1.23287e-10
1.85743e-11
-5.19375e-14
-3.91718e-14
-2.06018e-14
-3.00731e-14
-7.11276e-15
8.49397e-14
5.77341e-14
8.32353e-15
-3.00262e-14
-1.34173e-14
-9.39234e-16
4.258e-16
1.22127e-16
1.01495e-17
-4.45522e-18
-2.72266e-18
-9.347e-19
-9.43569e-12
-6.26218e-12
6.55937e-11
-1.09277e-10
-1.2544e-10
-4.89761e-10
5.92426e-09
-1.225e-08
-4.0506e-08
5.88475e-08
2.95118e-07
-4.14452e-07
-1.16696e-06
5.46554e-08
6.74215e-06
2.46607e-06
-7.90192e-07
1.61596e-06
2.488e-05
0.000198879
0.000685986
0.00140215
0.0019893
0.00203838
0.00148152
0.000633805
6.18037e-05
5.97891e-10
6.23698e-10
2.04659e-09
1.65057e-09
5.1718e-10
2.17028e-11
-7.41439e-14
-5.64091e-14
-4.12446e-13
-1.69039e-13
1.68939e-12
1.22726e-12
2.17826e-13
-3.98155e-13
-3.25102e-13
-4.4995e-14
4.97153e-15
2.86595e-15
3.11238e-16
-2.17696e-17
-2.25212e-17
-7.45729e-18
-1.03113e-18
-7.03683e-11
1.34254e-11
4.64272e-10
-1.46899e-09
-2.27506e-09
1.91911e-08
3.26208e-08
-2.47034e-07
2.85237e-08
1.25663e-06
1.26166e-06
-7.58828e-06
-3.83627e-06
2.22089e-05
3.33335e-05
-0.000204921
-0.000759625
-0.000284024
0.00449252
0.0162013
0.0339315
0.0523359
0.0640595
0.0644363
0.0550115
0.0387551
0.0216619
0.00866194
0.00184855
1.27858e-05
9.3346e-09
7.92155e-10
-1.14745e-13
1.15217e-10
2.01099e-11
-1.78491e-12
2.64149e-11
2.02793e-11
4.11538e-12
-3.66662e-12
-6.36252e-12
-1.19963e-12
3.86715e-14
7.11986e-14
1.12387e-14
-1.7144e-16
-3.03879e-16
-8.36719e-17
-1.52026e-17
2.19882e-18
1.36488e-09
3.68433e-09
-4.21165e-09
-1.35635e-08
2.37311e-08
1.74281e-07
-3.77673e-07
-1.09423e-06
2.1726e-06
6.92585e-06
-1.81216e-05
-5.15659e-05
0.000148842
0.000550056
-0.000209736
-0.00370449
-0.00753311
-0.00310576
0.0219025
0.0745991
0.147552
0.219318
0.263872
0.265943
0.234584
0.178392
0.115678
0.0622991
0.026134
0.00702369
0.000474189
3.93025e-13
1.65884e-09
9.32589e-10
3.81744e-10
3.57119e-10
2.53185e-10
6.12667e-11
-3.37697e-11
-1.27167e-10
-3.53555e-11
-1.33712e-12
1.77987e-12
4.82844e-13
1.71448e-14
-6.30536e-15
-1.58268e-15
-1.70066e-16
-5.60303e-18
1.95207e-17
1.81364e-08
1.93445e-08
-8.37105e-08
-4.09736e-08
5.91747e-07
-5.19584e-07
-6.34198e-06
1.1458e-05
5.63708e-05
-4.48774e-05
-0.000369436
-0.000180218
0.00139433
0.00270167
-0.000989723
-0.0127109
-0.023772
-0.0132522
0.0434974
0.159402
0.317484
0.475326
0.581888
0.598735
0.546008
0.43811
0.307427
0.186373
0.0950067
0.0383041
0.0102472
0.000754346
2.65999e-08
1.23874e-09
1.81932e-09
1.97758e-09
6.55459e-10
-1.13295e-10
-2.14245e-09
-8.04902e-10
-7.78667e-11
3.21675e-11
1.27227e-11
1.12971e-12
-1.12268e-13
-4.36696e-14
-3.49121e-15
1.65884e-16
1.03778e-16
7.36683e-17
3.41641e-07
-7.43306e-07
-1.83529e-06
8.18848e-06
7.46206e-06
-4.89914e-05
-4.99164e-05
0.000191126
0.00033898
-0.000376995
-0.00151559
-0.000569255
0.00394818
0.00723785
-0.000110783
-0.0221164
-0.0441731
-0.0336251
0.0439686
0.204548
0.428987
0.664911
0.849538
0.917697
0.873999
0.744052
0.562442
0.373926
0.215123
0.103544
0.0386382
0.00884082
0.000302526
1.59898e-09
3.03858e-09
4.11379e-09
-1.23084e-08
-3.51457e-08
-1.49934e-08
-1.88546e-09
4.58353e-10
2.26667e-10
2.96836e-11
-1.49652e-12
-8.18848e-13
-1.05452e-13
2.33275e-15
1.1749e-15
3.68009e-16
1.70867e-16
7.93993e-07
-9.45733e-06
-3.5463e-06
5.19656e-05
2.05603e-05
-0.000199432
-0.000168348
0.000543678
0.000925061
-0.000693397
-0.00322843
-0.00184656
0.00599358
0.0131469
0.00603618
-0.0216019
-0.0538397
-0.0545051
0.00851406
0.157828
0.383772
0.643234
0.873811
1.01644
1.02822
0.93748
0.767819
0.555851
0.352075
0.190909
0.0844361
0.0270243
0.00386391
1.64276e-06
-3.90383e-07
-6.89984e-07
-6.16227e-07
-2.50857e-07
-3.70567e-08
5.03424e-09
3.25912e-09
6.48184e-10
-8.3997e-12
-1.23867e-11
-3.03336e-12
-4.4938e-14
1.28366e-14
3.83235e-15
6.18959e-16
2.38046e-16
9.46679e-07
-1.95585e-05
-6.60267e-06
9.42359e-05
5.7107e-05
-0.000300375
-0.000339683
0.000627715
0.00143727
-0.000343914
-0.00411546
-0.00394871
0.00456801
0.0159975
0.0153738
-0.00603023
-0.0404049
-0.059112
-0.0361465
0.0453157
0.190659
0.38847
0.610317
0.808836
0.923265
0.918453
0.810618
0.634008
0.433373
0.255775
0.126464
0.0480468
0.0108523
0.000279314
-6.73608e-06
-6.23561e-06
-3.04074e-06
-6.59971e-07
1.79316e-08
3.52508e-08
1.16203e-08
7.6844e-10
-1.34406e-10
-5.80393e-11
-5.69487e-12
1.31525e-13
5.76333e-14
7.17053e-15
2.68675e-16
1.64437e-16
3.15861e-06
-9.17831e-06
-2.25794e-05
4.38731e-05
0.000101691
-0.00012227
-0.00039337
0.000130497
0.00128598
0.000839505
-0.00262105
-0.00531811
-0.00116156
0.010164
0.0178345
0.0108353
-0.0117403
-0.0384466
-0.0505197
-0.0370165
0.0132116
0.111815
0.260397
0.437171
0.594025
0.667618
0.645662
0.547574
0.403693
0.253852
0.132857
0.0552068
0.0152189
0.00103434
-2.54931e-05
-2.06174e-05
-6.85582e-06
-6.86725e-07
3.21324e-07
1.53734e-07
2.12678e-08
-1.38637e-09
-7.04462e-10
-1.20839e-10
1.30504e-12
6.6635e-13
1.29569e-13
8.06671e-16
2.70716e-17
5.62586e-17
3.64193e-06
-4.79894e-07
-2.89066e-05
-1.41254e-06
0.000118825
6.16968e-05
-0.000356188
-0.000442007
0.000588176
0.00172147
0.000510335
-0.00321942
-0.00503013
-0.0011736
0.00691723
0.0120285
0.00854707
-0.00448184
-0.0255052
-0.0479165
-0.0578887
-0.0390485
0.0241326
0.128844
0.246356
0.330288
0.342075
0.304324
0.231732
0.150177
0.0812422
0.0350098
0.0101741
0.000877702
-7.77473e-05
-3.66895e-05
-6.03912e-06
2.98604e-06
1.60706e-06
2.8692e-07
-1.13204e-08
-6.80191e-09
-1.61261e-09
-5.84427e-11
3.47414e-12
1.5903e-12
1.67383e-13
-1.55834e-17
1.20496e-17
4.81059e-17
1.51975e-06
9.6967e-06
-1.19033e-05
-5.05669e-05
2.49673e-05
0.000178099
5.12812e-05
-0.000434986
-0.000509106
0.000394725
0.00153892
0.00119506
-0.00118508
-0.00400863
-0.00412292
4.55809e-05
0.00779928
0.0132302
0.00870027
-0.0102919
-0.0389969
-0.0601308
-0.0581137
-0.0303625
0.0138584
0.0536519
0.0667331
0.0584251
0.0392141
0.0192774
0.00542805
-0.000852235
-0.00234724
-0.00108986
-0.000220382
3.13406e-05
3.70345e-05
1.73025e-05
3.34606e-06
-5.08263e-08
-4.80028e-08
-1.5712e-08
-1.54722e-09
2.12496e-11
1.0472e-11
2.19464e-12
3.16511e-14
5.10155e-17
8.15858e-17
1.3386e-16
-1.52571e-06
3.78681e-06
1.15511e-05
-1.30828e-05
-4.93442e-05
2.7715e-06
0.000141487
0.00013364
-0.000195052
-0.000557859
-0.000286495
0.000850816
0.00178086
0.000856514
-0.00222019
-0.0047445
-0.00301068
0.00395884
0.0119445
0.0134136
0.00555466
-0.0100967
-0.0271233
-0.040019
-0.0478811
-0.0527324
-0.0559802
-0.0559856
-0.051302
-0.0414857
-0.0285924
-0.0161145
-0.00667726
-0.00167666
0.000244935
0.000289119
0.000148822
3.7785e-05
1.5162e-06
-1.78673e-07
-9.85568e-08
-2.09907e-08
-8.54631e-11
4.65459e-11
1.3836e-11
1.03054e-12
4.07871e-16
6.68931e-16
3.73627e-16
3.46933e-16
1.78258e-07
-2.5067e-06
-1.37759e-06
1.26768e-05
1.10143e-05
-3.6599e-05
-5.96953e-05
5.03409e-05
0.000200797
9.08505e-05
-0.000347342
-0.000601728
-8.35235e-05
0.0010374
0.0015135
0.000382489
-0.00200569
-0.00344918
-0.0020121
0.00264536
0.00878207
0.0131409
0.0125991
0.00586723
-0.00644004
-0.0210532
-0.0321435
-0.0342759
-0.0296386
-0.0206281
-0.0107339
-0.00304736
0.00108105
0.0021892
0.00165733
0.000829198
0.000263535
3.06762e-05
-4.37268e-07
-2.93014e-07
-1.0743e-07
-1.31657e-08
3.18608e-11
1.85405e-11
4.66027e-12
8.67586e-14
8.75074e-15
3.60548e-15
1.0913e-15
6.83167e-16
2.65632e-07
1.16808e-06
-1.90781e-06
-6.1247e-06
5.01629e-06
2.31085e-05
2.22801e-07
-6.35581e-05
-5.56861e-05
9.58654e-05
0.000221354
4.88364e-05
-0.000370327
-0.000528522
-4.01931e-05
0.000835439
0.00113517
0.000197174
-0.00185762
-0.00358208
-0.00325422
-0.000241733
0.00453129
0.00871045
0.0103742
0.00972538
0.00886997
0.00959079
0.0119068
0.0139737
0.0140469
0.0123141
0.00904711
0.00551553
0.00276675
0.00108304
0.000265686
8.82157e-06
-3.58895e-07
-1.99354e-07
-4.97627e-08
-1.61022e-09
-8.18726e-11
-5.01886e-11
-1.73898e-11
-1.29002e-12
2.71975e-14
1.19041e-14
2.10943e-15
9.48395e-16
-8.5256e-08
-3.62586e-07
7.73398e-07
1.8071e-06
-2.92399e-06
-7.25796e-06
5.88052e-06
2.46251e-05
3.15368e-06
-6.0413e-05
-6.37436e-05
6.20555e-05
0.000202734
0.00011271
-0.000238507
-0.000461001
-0.000154175
0.000564453
0.000967806
0.000502713
-0.000687909
-0.00197432
-0.00281893
-0.00306486
-0.00252879
-0.000683247
0.00266208
0.00696708
0.0109044
0.0128338
0.0122438
0.00979969
0.00669599
0.00390711
0.00190319
0.000722516
0.000168266
5.26345e-06
4.98714e-08
2.24647e-08