/*--------------------------------*- C++ -*----------------------------------*\
| =========                 |                                                 |
| \\      /  F ield         | OpenFOAM: The Open Source CFD Toolbox           |
|  \\    /   O peration     | Version:  v2006                                 |
|   \\  /    A nd           | Website:  www.openfoam.com                      |
|    \\/     M anipulation  |                                                 |
\*---------------------------------------------------------------------------*/
FoamFile
{
    version     2.0;
    format      ascii;
    class       volVectorField;
    location    "0";
    object      U_new;
}
// * * * * * * * * * * * * * * * * * * * * * * * * * * * * * * * * * * * * * //

dimensions      [0 1 -1 0 0 0 0];


internalField   nonuniform List<vector> 
2500
(
(0.000576 -0.041472 0)
(0.000576 -0.124416 0)
(0.000576 -0.20736 0)
(0.000576 -0.290304 0)
(0.000576 -0.373248 0)
(0.000576 -0.456192 0)
(0.000576 -0.539136 0)
(0.000576 -0.62208 0)
(0.000576 -0.705024 0)
(0.000576 -0.787968 0)
(0.000576 -0.870912 0)
(0.000576 -0.953856 0)
(0.000576 -1.0368 0)
(0.000576 -1.11974 0)
(0.000576 -1.20269 0)
(0.000576 -1.28563 0)
(0.000576 -1.36858 0)
(0.000576 -1.45152 0)
(0.000576 -1.53446 0)
(0.000576 -1.61741 0)
(0.000576 -1.70035 0)
(0.000576 -1.7833 0)
(0.000576 -1.86624 0)
(0.000576 -1.94918 0)
(0.000576 -2.03213 0)
(0.000576 -2.11507 0)
(0.000576 -2.19802 0)
(0.000576 -2.28096 0)
(0.000576 -2.3639 0)
(0.000576 -2.44685 0)
(0.000576 -2.52979 0)
(0.000576 -2.61274 0)
(0.000576 -2.69568 0)
(0.000576 -2.77862 0)
(0.000576 -2.86157 0)
(0.000576 -2.94451 0)
(0.000576 -3.02746 0)
(0.000576 -3.1104 0)
(0.000576 -3.19334 0)
(0.000576 -3.27629 0)
(0.000576 -3.35923 0)
(0.000576 -3.44218 0)
(0.000576 -3.52512 0)
(0.000576 -3.60806 0)
(0.000576 -3.69101 0)
(0.000576 -3.77395 0)
(0.000576 -3.8569 0)
(0.000576 -3.93984 0)
(0.000576 -4.02278 0)
(0.000576 -4.10573 0)
(0.005184 -0.041472 0)
(0.005184 -0.124416 0)
(0.005184 -0.20736 0)
(0.005184 -0.290304 0)
(0.005184 -0.373248 0)
(0.005184 -0.456192 0)
(0.005184 -0.539136 0)
(0.005184 -0.62208 0)
(0.005184 -0.705024 0)
(0.005184 -0.787968 0)
(0.005184 -0.870912 0)
(0.005184 -0.953856 0)
(0.005184 -1.0368 0)
(0.005184 -1.11974 0)
(0.005184 -1.20269 0)
(0.005184 -1.28563 0)
(0.005184 -1.36858 0)
(0.005184 -1.45152 0)
(0.005184 -1.53446 0)
(0.005184 -1.61741 0)
(0.005184 -1.70035 0)
(0.005184 -1.7833 0)
(0.005184 -1.86624 0)
(0.005184 -1.94918 0)
(0.005184 -2.03213 0)
(0.005184 -2.11507 0)
(0.005184 -2.19802 0)
(0.005184 -2.28096 0)
(0.005184 -2.3639 0)
(0.005184 -2.44685 0)
(0.005184 -2.52979 0)
(0.005184 -2.61274 0)
(0.005184 -2.69568 0)
(0.005184 -2.77862 0)
(0.005184 -2.86157 0)
(0.005184 -2.94451 0)
(0.005184 -3.02746 0)
(0.005184 -3.1104 0)
(0.005184 -3.19334 0)
(0.005184 -3.27629 0)
(0.005184 -3.35923 0)
(0.005184 -3.44218 0)
(0.005184 -3.52512 0)
(0.005184 -3.60806 0)
(0.005184 -3.69101 0)
(0.005184 -3.77395 0)
(0.005184 -3.8569 0)
(0.005184 -3.93984 0)
(0.005184 -4.02278 0)
(0.005184 -4.10573 0)
(0.0144 -0.041472 0)
(0.0144 -0.124416 0)
(0.0144 -0.20736 0)
(0.0144 -0.290304 0)
(0.0144 -0.373248 0)
(0.0144 -0.456192 0)
(0.0144 -0.539136 0)
(0.0144 -0.62208 0)
(0.0144 -0.705024 0)
(0.0144 -0.787968 0)
(0.0144 -0.870912 0)
(0.0144 -0.953856 0)
(0.0144 -1.0368 0)
(0.0144 -1.11974 0)
(0.0144 -1.20269 0)
(0.0144 -1.28563 0)
(0.0144 -1.36858 0)
(0.0144 -1.45152 0)
(0.0144 -1.53446 0)
(0.0144 -1.61741 0)
(0.0144 -1.70035 0)
(0.0144 -1.7833 0)
(0.0144 -1.86624 0)
(0.0144 -1.94918 0)
(0.0144 -2.03213 0)
(0.0144 -2.11507 0)
(0.0144 -2.19802 0)
(0.0144 -2.28096 0)
(0.0144 -2.3639 0)
(0.0144 -2.44685 0)
(0.0144 -2.52979 0)
(0.0144 -2.61274 0)
(0.0144 -2.69568 0)
(0.0144 -2.77862 0)
(0.0144 -2.86157 0)
(0.0144 -2.94451 0)
(0.0144 -3.02746 0)
(0.0144 -3.1104 0)
(0.0144 -3.19334 0)
(0.0144 -3.27629 0)
(0.0144 -3.35923 0)
(0.0144 -3.44218 0)
(0.0144 -3.52512 0)
(0.0144 -3.60806 0)
(0.0144 -3.69101 0)
(0.0144 -3.77395 0)
(0.0144 -3.8569 0)
(0.0144 -3.93984 0)
(0.0144 -4.02278 0)
(0.0144 -4.10573 0)
(0.028224 -0.041472 0)
(0.028224 -0.124416 0)
(0.028224 -0.20736 0)
(0.028224 -0.290304 0)
(0.028224 -0.373248 0)
(0.028224 -0.456192 0)
(0.028224 -0.539136 0)
(0.028224 -0.62208 0)
(0.028224 -0.705024 0)
(0.028224 -0.787968 0)
(0.028224 -0.870912 0)
(0.028224 -0.953856 0)
(0.028224 -1.0368 0)
(0.028224 -1.11974 0)
(0.028224 -1.20269 0)
(0.028224 -1.28563 0)
(0.028224 -1.36858 0)
(0.028224 -1.45152 0)
(0.028224 -1.53446 0)
(0.028224 -1.61741 0)
(0.028224 -1.70035 0)
(0.028224 -1.7833 0)
(0.028224 -1.86624 0)
(0.028224 -1.94918 0)
(0.028224 -2.03213 0)
(0.028224 -2.11507 0)
(0.028224 -2.19802 0)
(0.028224 -2.28096 0)
(0.028224 -2.3639 0)
(0.028224 -2.44685 0)
(0.028224 -2.52979 0)
(0.028224 -2.61274 0)
(0.028224 -2.69568 0)
(0.028224 -2.77862 0)
(0.028224 -2.86157 0)
(0.028224 -2.94451 0)
(0.028224 -3.02746 0)
(0.028224 -3.1104 0)
(0.028224 -3.19334 0)
(0.028224 -3.27629 0)
(0.028224 -3.35923 0)
(0.028224 -3.44218 0)
(0.028224 -3.52512 0)
(0.028224 -3.60806 0)
(0.028224 -3.69101 0)
(0.028224 -3.77395 0)
(0.028224 -3.8569 0)
(0.028224 -3.93984 0)
(0.028224 -4.02278 0)
(0.028224 -4.10573 0)
(0.046656 -0.041472 0)
(0.046656 -0.124416 0)
(0.046656 -0.20736 0)
(0.046656 -0.290304 0)
(0.046656 -0.373248 0)
(0.046656 -0.456192 0)
(0.046656 -0.539136 0)
(0.046656 -0.62208 0)
(0.046656 -0.705024 0)
(0.046656 -0.787968 0)
(0.046656 -0.870912 0)
(0.046656 -0.953856 0)
(0.046656 -1.0368 0)
(0.046656 -1.11974 0)
(0.046656 -1.20269 0)
(0.046656 -1.28563 0)
(0.046656 -1.36858 0)
(0.046656 -1.45152 0)
(0.046656 -1.53446 0)
(0.046656 -1.61741 0)
(0.046656 -1.70035 0)
(0.046656 -1.7833 0)
(0.046656 -1.86624 0)
(0.046656 -1.94918 0)
(0.046656 -2.03213 0)
(0.046656 -2.11507 0)
(0.046656 -2.19802 0)
(0.046656 -2.28096 0)
(0.046656 -2.3639 0)
(0.046656 -2.44685 0)
(0.046656 -2.52979 0)
(0.046656 -2.61274 0)
(0.046656 -2.69568 0)
(0.046656 -2.77862 0)
(0.046656 -2.86157 0)
(0.046656 -2.94451 0)
(0.046656 -3.02746 0)
(0.046656 -3.1104 0)
(0.046656 -3.19334 0)
(0.046656 -3.27629 0)
(0.046656 -3.35923 0)
(0.046656 -3.44218 0)
(0.046656 -3.52512 0)
(0.046656 -3.60806 0)
(0.046656 -3.69101 0)
(0.046656 -3.77395 0)
(0.046656 -3.8569 0)
(0.046656 -3.93984 0)
(0.046656 -4.02278 0)
(0.046656 -4.10573 0)
(0.069696 -0.041472 0)
(0.069696 -0.124416 0)
(0.069696 -0.20736 0)
(0.069696 -0.290304 0)
(0.069696 -0.373248 0)
(0.069696 -0.456192 0)
(0.069696 -0.539136 0)
(0.069696 -0.62208 0)
(0.069696 -0.705024 0)
(0.069696 -0.787968 0)
(0.069696 -0.870912 0)
(0.069696 -0.953856 0)
(0.069696 -1.0368 0)
(0.069696 -1.11974 0)
(0.069696 -1.20269 0)
(0.069696 -1.28563 0)
(0.069696 -1.36858 0)
(0.069696 -1.45152 0)
(0.069696 -1.53446 0)
(0.069696 -1.61741 0)
(0.069696 -1.70035 0)
(0.069696 -1.7833 0)
(0.069696 -1.86624 0)
(0.069696 -1.94918 0)
(0.069696 -2.03213 0)
(0.069696 -2.11507 0)
(0.069696 -2.19802 0)
(0.069696 -2.28096 0)
(0.069696 -2.3639 0)
(0.069696 -2.44685 0)
(0.069696 -2.52979 0)
(0.069696 -2.61274 0)
(0.069696 -2.69568 0)
(0.069696 -2.77862 0)
(0.069696 -2.86157 0)
(0.069696 -2.94451 0)
(0.069696 -3.02746 0)
(0.069696 -3.1104 0)
(0.069696 -3.19334 0)
(0.069696 -3.27629 0)
(0.069696 -3.35923 0)
(0.069696 -3.44218 0)
(0.069696 -3.52512 0)
(0.069696 -3.60806 0)
(0.069696 -3.69101 0)
(0.069696 -3.77395 0)
(0.069696 -3.8569 0)
(0.069696 -3.93984 0)
(0.069696 -4.02278 0)
(0.069696 -4.10573 0)
(0.097344 -0.041472 0)
(0.097344 -0.124416 0)
(0.097344 -0.20736 0)
(0.097344 -0.290304 0)
(0.097344 -0.373248 0)
(0.097344 -0.456192 0)
(0.097344 -0.539136 0)
(0.097344 -0.62208 0)
(0.097344 -0.705024 0)
(0.097344 -0.787968 0)
(0.097344 -0.870912 0)
(0.097344 -0.953856 0)
(0.097344 -1.0368 0)
(0.097344 -1.11974 0)
(0.097344 -1.20269 0)
(0.097344 -1.28563 0)
(0.097344 -1.36858 0)
(0.097344 -1.45152 0)
(0.097344 -1.53446 0)
(0.097344 -1.61741 0)
(0.097344 -1.70035 0)
(0.097344 -1.7833 0)
(0.097344 -1.86624 0)
(0.097344 -1.94918 0)
(0.097344 -2.03213 0)
(0.097344 -2.11507 0)
(0.097344 -2.19802 0)
(0.097344 -2.28096 0)
(0.097344 -2.3639 0)
(0.097344 -2.44685 0)
(0.097344 -2.52979 0)
(0.097344 -2.61274 0)
(0.097344 -2.69568 0)
(0.097344 -2.77862 0)
(0.097344 -2.86157 0)
(0.097344 -2.94451 0)
(0.097344 -3.02746 0)
(0.097344 -3.1104 0)
(0.097344 -3.19334 0)
(0.097344 -3.27629 0)
(0.097344 -3.35923 0)
(0.097344 -3.44218 0)
(0.097344 -3.52512 0)
(0.097344 -3.60806 0)
(0.097344 -3.69101 0)
(0.097344 -3.77395 0)
(0.097344 -3.8569 0)
(0.097344 -3.93984 0)
(0.097344 -4.02278 0)
(0.097344 -4.10573 0)
(0.1296 -0.041472 0)
(0.1296 -0.124416 0)
(0.1296 -0.20736 0)
(0.1296 -0.290304 0)
(0.1296 -0.373248 0)
(0.1296 -0.456192 0)
(0.1296 -0.539136 0)
(0.1296 -0.62208 0)
(0.1296 -0.705024 0)
(0.1296 -0.787968 0)
(0.1296 -0.870912 0)
(0.1296 -0.953856 0)
(0.1296 -1.0368 0)
(0.1296 -1.11974 0)
(0.1296 -1.20269 0)
(0.1296 -1.28563 0)
(0.1296 -1.36858 0)
(0.1296 -1.45152 0)
(0.1296 -1.53446 0)
(0.1296 -1.61741 0)
(0.1296 -1.70035 0)
(0.1296 -1.7833 0)
(0.1296 -1.86624 0)
(0.1296 -1.94918 0)
(0.1296 -2.03213 0)
(0.1296 -2.11507 0)
(0.1296 -2.19802 0)
(0.1296 -2.28096 0)
(0.1296 -2.3639 0)
(0.1296 -2.44685 0)
(0.1296 -2.52979 0)
(0.1296 -2.61274 0)
(0.1296 -2.69568 0)
(0.1296 -2.77862 0)
(0.1296 -2.86157 0)
(0.1296 -2.94451 0)
(0.1296 -3.02746 0)
(0.1296 -3.1104 0)
(0.1296 -3.19334 0)
(0.1296 -3.27629 0)
(0.1296 -3.35923 0)
(0.1296 -3.44218 0)
(0.1296 -3.52512 0)
(0.1296 -3.60806 0)
(0.1296 -3.69101 0)
(0.1296 -3.77395 0)
(0.1296 -3.8569 0)
(0.1296 -3.93984 0)
(0.1296 -4.02278 0)
(0.1296 -4.10573 0)
(0.166464 -0.041472 0)
(0.166464 -0.124416 0)
(0.166464 -0.20736 0)
(0.166464 -0.290304 0)
(0.166464 -0.373248 0)
(0.166464 -0.456192 0)
(0.166464 -0.539136 0)
(0.166464 -0.62208 0)
(0.166464 -0.705024 0)
(0.166464 -0.787968 0)
(0.166464 -0.870912 0)
(0.166464 -0.953856 0)
(0.166464 -1.0368 0)
(0.166464 -1.11974 0)
(0.166464 -1.20269 0)
(0.166464 -1.28563 0)
(0.166464 -1.36858 0)
(0.166464 -1.45152 0)
(0.166464 -1.53446 0)
(0.166464 -1.61741 0)
(0.166464 -1.70035 0)
(0.166464 -1.7833 0)
(0.166464 -1.86624 0)
(0.166464 -1.94918 0)
(0.166464 -2.03213 0)
(0.166464 -2.11507 0)
(0.166464 -2.19802 0)
(0.166464 -2.28096 0)
(0.166464 -2.3639 0)
(0.166464 -2.44685 0)
(0.166464 -2.52979 0)
(0.166464 -2.61274 0)
(0.166464 -2.69568 0)
(0.166464 -2.77862 0)
(0.166464 -2.86157 0)
(0.166464 -2.94451 0)
(0.166464 -3.02746 0)
(0.166464 -3.1104 0)
(0.166464 -3.19334 0)
(0.166464 -3.27629 0)
(0.166464 -3.35923 0)
(0.166464 -3.44218 0)
(0.166464 -3.52512 0)
(0.166464 -3.60806 0)
(0.166464 -3.69101 0)
(0.166464 -3.77395 0)
(0.166464 -3.8569 0)
(0.166464 -3.93984 0)
(0.166464 -4.02278 0)
(0.166464 -4.10573 0)
(0.207936 -0.041472 0)
(0.207936 -0.124416 0)
(0.207936 -0.20736 0)
(0.207936 -0.290304 0)
(0.207936 -0.373248 0)
(0.207936 -0.456192 0)
(0.207936 -0.539136 0)
(0.207936 -0.62208 0)
(0.207936 -0.705024 0)
(0.207936 -0.787968 0)
(0.207936 -0.870912 0)
(0.207936 -0.953856 0)
(0.207936 -1.0368 0)
(0.207936 -1.11974 0)
(0.207936 -1.20269 0)
(0.207936 -1.28563 0)
(0.207936 -1.36858 0)
(0.207936 -1.45152 0)
(0.207936 -1.53446 0)
(0.207936 -1.61741 0)
(0.207936 -1.70035 0)
(0.207936 -1.7833 0)
(0.207936 -1.86624 0)
(0.207936 -1.94918 0)
(0.207936 -2.03213 0)
(0.207936 -2.11507 0)
(0.207936 -2.19802 0)
(0.207936 -2.28096 0)
(0.207936 -2.3639 0)
(0.207936 -2.44685 0)
(0.207936 -2.52979 0)
(0.207936 -2.61274 0)
(0.207936 -2.69568 0)
(0.207936 -2.77862 0)
(0.207936 -2.86157 0)
(0.207936 -2.94451 0)
(0.207936 -3.02746 0)
(0.207936 -3.1104 0)
(0.207936 -3.19334 0)
(0.207936 -3.27629 0)
(0.207936 -3.35923 0)
(0.207936 -3.44218 0)
(0.207936 -3.52512 0)
(0.207936 -3.60806 0)
(0.207936 -3.69101 0)
(0.207936 -3.77395 0)
(0.207936 -3.8569 0)
(0.207936 -3.93984 0)
(0.207936 -4.02278 0)
(0.207936 -4.10573 0)
(0.254016 -0.041472 0)
(0.254016 -0.124416 0)
(0.254016 -0.20736 0)
(0.254016 -0.290304 0)
(0.254016 -0.373248 0)
(0.254016 -0.456192 0)
(0.254016 -0.539136 0)
(0.254016 -0.62208 0)
(0.254016 -0.705024 0)
(0.254016 -0.787968 0)
(0.254016 -0.870912 0)
(0.254016 -0.953856 0)
(0.254016 -1.0368 0)
(0.254016 -1.11974 0)
(0.254016 -1.20269 0)
(0.254016 -1.28563 0)
(0.254016 -1.36858 0)
(0.254016 -1.45152 0)
(0.254016 -1.53446 0)
(0.254016 -1.61741 0)
(0.254016 -1.70035 0)
(0.254016 -1.7833 0)
(0.254016 -1.86624 0)
(0.254016 -1.94918 0)
(0.254016 -2.03213 0)
(0.254016 -2.11507 0)
(0.254016 -2.19802 0)
(0.254016 -2.28096 0)
(0.254016 -2.3639 0)
(0.254016 -2.44685 0)
(0.254016 -2.52979 0)
(0.254016 -2.61274 0)
(0.254016 -2.69568 0)
(0.254016 -2.77862 0)
(0.254016 -2.86157 0)
(0.254016 -2.94451 0)
(0.254016 -3.02746 0)
(0.254016 -3.1104 0)
(0.254016 -3.19334 0)
(0.254016 -3.27629 0)
(0.254016 -3.35923 0)
(0.254016 -3.44218 0)
(0.254016 -3.52512 0)
(0.254016 -3.60806 0)
(0.254016 -3.69101 0)
(0.254016 -3.77395 0)
(0.254016 -3.8569 0)
(0.254016 -3.93984 0)
(0.254016 -4.02278 0)
(0.254016 -4.10573 0)
(0.304704 -0.041472 0)
(0.304704 -0.124416 0)
(0.304704 -0.20736 0)
(0.304704 -0.290304 0)
(0.304704 -0.373248 0)
(0.304704 -0.456192 0)
(0.304704 -0.539136 0)
(0.304704 -0.62208 0)
(0.304704 -0.705024 0)
(0.304704 -0.787968 0)
(0.304704 -0.870912 0)
(0.304704 -0.953856 0)
(0.304704 -1.0368 0)
(0.304704 -1.11974 0)
(0.304704 -1.20269 0)
(0.304704 -1.28563 0)
(0.304704 -1.36858 0)
(0.304704 -1.45152 0)
(0.304704 -1.53446 0)
(0.304704 -1.61741 0)
(0.304704 -1.70035 0)
(0.304704 -1.7833 0)
(0.304704 -1.86624 0)
(0.304704 -1.94918 0)
(0.304704 -2.03213 0)
(0.304704 -2.11507 0)
(0.304704 -2.19802 0)
(0.304704 -2.28096 0)
(0.304704 -2.3639 0)
(0.304704 -2.44685 0)
(0.304704 -2.52979 0)
(0.304704 -2.61274 0)
(0.304704 -2.69568 0)
(0.304704 -2.77862 0)
(0.304704 -2.86157 0)
(0.304704 -2.94451 0)
(0.304704 -3.02746 0)
(0.304704 -3.1104 0)
(0.304704 -3.19334 0)
(0.304704 -3.27629 0)
(0.304704 -3.35923 0)
(0.304704 -3.44218 0)
(0.304704 -3.52512 0)
(0.304704 -3.60806 0)
(0.304704 -3.69101 0)
(0.304704 -3.77395 0)
(0.304704 -3.8569 0)
(0.304704 -3.93984 0)
(0.304704 -4.02278 0)
(0.304704 -4.10573 0)
(0.36 -0.041472 0)
(0.36 -0.124416 0)
(0.36 -0.20736 0)
(0.36 -0.290304 0)
(0.36 -0.373248 0)
(0.36 -0.456192 0)
(0.36 -0.539136 0)
(0.36 -0.62208 0)
(0.36 -0.705024 0)
(0.36 -0.787968 0)
(0.36 -0.870912 0)
(0.36 -0.953856 0)
(0.36 -1.0368 0)
(0.36 -1.11974 0)
(0.36 -1.20269 0)
(0.36 -1.28563 0)
(0.36 -1.36858 0)
(0.36 -1.45152 0)
(0.36 -1.53446 0)
(0.36 -1.61741 0)
(0.36 -1.70035 0)
(0.36 -1.7833 0)
(0.36 -1.86624 0)
(0.36 -1.94918 0)
(0.36 -2.03213 0)
(0.36 -2.11507 0)
(0.36 -2.19802 0)
(0.36 -2.28096 0)
(0.36 -2.3639 0)
(0.36 -2.44685 0)
(0.36 -2.52979 0)
(0.36 -2.61274 0)
(0.36 -2.69568 0)
(0.36 -2.77862 0)
(0.36 -2.86157 0)
(0.36 -2.94451 0)
(0.36 -3.02746 0)
(0.36 -3.1104 0)
(0.36 -3.19334 0)
(0.36 -3.27629 0)
(0.36 -3.35923 0)
(0.36 -3.44218 0)
(0.36 -3.52512 0)
(0.36 -3.60806 0)
(0.36 -3.69101 0)
(0.36 -3.77395 0)
(0.36 -3.8569 0)
(0.36 -3.93984 0)
(0.36 -4.02278 0)
(0.36 -4.10573 0)
(0.419904 -0.041472 0)
(0.419904 -0.124416 0)
(0.419904 -0.20736 0)
(0.419904 -0.290304 0)
(0.419904 -0.373248 0)
(0.419904 -0.456192 0)
(0.419904 -0.539136 0)
(0.419904 -0.62208 0)
(0.419904 -0.705024 0)
(0.419904 -0.787968 0)
(0.419904 -0.870912 0)
(0.419904 -0.953856 0)
(0.419904 -1.0368 0)
(0.419904 -1.11974 0)
(0.419904 -1.20269 0)
(0.419904 -1.28563 0)
(0.419904 -1.36858 0)
(0.419904 -1.45152 0)
(0.419904 -1.53446 0)
(0.419904 -1.61741 0)
(0.419904 -1.70035 0)
(0.419904 -1.7833 0)
(0.419904 -1.86624 0)
(0.419904 -1.94918 0)
(0.419904 -2.03213 0)
(0.419904 -2.11507 0)
(0.419904 -2.19802 0)
(0.419904 -2.28096 0)
(0.419904 -2.3639 0)
(0.419904 -2.44685 0)
(0.419904 -2.52979 0)
(0.419904 -2.61274 0)
(0.419904 -2.69568 0)
(0.419904 -2.77862 0)
(0.419904 -2.86157 0)
(0.419904 -2.94451 0)
(0.419904 -3.02746 0)
(0.419904 -3.1104 0)
(0.419904 -3.19334 0)
(0.419904 -3.27629 0)
(0.419904 -3.35923 0)
(0.419904 -3.44218 0)
(0.419904 -3.52512 0)
(0.419904 -3.60806 0)
(0.419904 -3.69101 0)
(0.419904 -3.77395 0)
(0.419904 -3.8569 0)
(0.419904 -3.93984 0)
(0.419904 -4.02278 0)
(0.419904 -4.10573 0)
(0.484416 -0.041472 0)
(0.484416 -0.124416 0)
(0.484416 -0.20736 0)
(0.484416 -0.290304 0)
(0.484416 -0.373248 0)
(0.484416 -0.456192 0)
(0.484416 -0.539136 0)
(0.484416 -0.62208 0)
(0.484416 -0.705024 0)
(0.484416 -0.787968 0)
(0.484416 -0.870912 0)
(0.484416 -0.953856 0)
(0.484416 -1.0368 0)
(0.484416 -1.11974 0)
(0.484416 -1.20269 0)
(0.484416 -1.28563 0)
(0.484416 -1.36858 0)
(0.484416 -1.45152 0)
(0.484416 -1.53446 0)
(0.484416 -1.61741 0)
(0.484416 -1.70035 0)
(0.484416 -1.7833 0)
(0.484416 -1.86624 0)
(0.484416 -1.94918 0)
(0.484416 -2.03213 0)
(0.484416 -2.11507 0)
(0.484416 -2.19802 0)
(0.484416 -2.28096 0)
(0.484416 -2.3639 0)
(0.484416 -2.44685 0)
(0.484416 -2.52979 0)
(0.484416 -2.61274 0)
(0.484416 -2.69568 0)
(0.484416 -2.77862 0)
(0.484416 -2.86157 0)
(0.484416 -2.94451 0)
(0.484416 -3.02746 0)
(0.484416 -3.1104 0)
(0.484416 -3.19334 0)
(0.484416 -3.27629 0)
(0.484416 -3.35923 0)
(0.484416 -3.44218 0)
(0.484416 -3.52512 0)
(0.484416 -3.60806 0)
(0.484416 -3.69101 0)
(0.484416 -3.77395 0)
(0.484416 -3.8569 0)
(0.484416 -3.93984 0)
(0.484416 -4.02278 0)
(0.484416 -4.10573 0)
(0.553536 -0.041472 0)
(0.553536 -0.124416 0)
(0.553536 -0.20736 0)
(0.553536 -0.290304 0)
(0.553536 -0.373248 0)
(0.553536 -0.456192 0)
(0.553536 -0.539136 0)
(0.553536 -0.62208 0)
(0.553536 -0.705024 0)
(0.553536 -0.787968 0)
(0.553536 -0.870912 0)
(0.553536 -0.953856 0)
(0.553536 -1.0368 0)
(0.553536 -1.11974 0)
(0.553536 -1.20269 0)
(0.553536 -1.28563 0)
(0.553536 -1.36858 0)
(0.553536 -1.45152 0)
(0.553536 -1.53446 0)
(0.553536 -1.61741 0)
(0.553536 -1.70035 0)
(0.553536 -1.7833 0)
(0.553536 -1.86624 0)
(0.553536 -1.94918 0)
(0.553536 -2.03213 0)
(0.553536 -2.11507 0)
(0.553536 -2.19802 0)
(0.553536 -2.28096 0)
(0.553536 -2.3639 0)
(0.553536 -2.44685 0)
(0.553536 -2.52979 0)
(0.553536 -2.61274 0)
(0.553536 -2.69568 0)
(0.553536 -2.77862 0)
(0.553536 -2.86157 0)
(0.553536 -2.94451 0)
(0.553536 -3.02746 0)
(0.553536 -3.1104 0)
(0.553536 -3.19334 0)
(0.553536 -3.27629 0)
(0.553536 -3.35923 0)
(0.553536 -3.44218 0)
(0.553536 -3.52512 0)
(0.553536 -3.60806 0)
(0.553536 -3.69101 0)
(0.553536 -3.77395 0)
(0.553536 -3.8569 0)
(0.553536 -3.93984 0)
(0.553536 -4.02278 0)
(0.553536 -4.10573 0)
(0.627264 -0.041472 0)
(0.627264 -0.124416 0)
(0.627264 -0.20736 0)
(0.627264 -0.290304 0)
(0.627264 -0.373248 0)
(0.627264 -0.456192 0)
(0.627264 -0.539136 0)
(0.627264 -0.62208 0)
(0.627264 -0.705024 0)
(0.627264 -0.787968 0)
(0.627264 -0.870912 0)
(0.627264 -0.953856 0)
(0.627264 -1.0368 0)
(0.627264 -1.11974 0)
(0.627264 -1.20269 0)
(0.627264 -1.28563 0)
(0.627264 -1.36858 0)
(0.627264 -1.45152 0)
(0.627264 -1.53446 0)
(0.627264 -1.61741 0)
(0.627264 -1.70035 0)
(0.627264 -1.7833 0)
(0.627264 -1.86624 0)
(0.627264 -1.94918 0)
(0.627264 -2.03213 0)
(0.627264 -2.11507 0)
(0.627264 -2.19802 0)
(0.627264 -2.28096 0)
(0.627264 -2.3639 0)
(0.627264 -2.44685 0)
(0.627264 -2.52979 0)
(0.627264 -2.61274 0)
(0.627264 -2.69568 0)
(0.627264 -2.77862 0)
(0.627264 -2.86157 0)
(0.627264 -2.94451 0)
(0.627264 -3.02746 0)
(0.627264 -3.1104 0)
(0.627264 -3.19334 0)
(0.627264 -3.27629 0)
(0.627264 -3.35923 0)
(0.627264 -3.44218 0)
(0.627264 -3.52512 0)
(0.627264 -3.60806 0)
(0.627264 -3.69101 0)
(0.627264 -3.77395 0)
(0.627264 -3.8569 0)
(0.627264 -3.93984 0)
(0.627264 -4.02278 0)
(0.627264 -4.10573 0)
(0.7056 -0.041472 0)
(0.7056 -0.124416 0)
(0.7056 -0.20736 0)
(0.7056 -0.290304 0)
(0.7056 -0.373248 0)
(0.7056 -0.456192 0)
(0.7056 -0.539136 0)
(0.7056 -0.62208 0)
(0.7056 -0.705024 0)
(0.7056 -0.787968 0)
(0.7056 -0.870912 0)
(0.7056 -0.953856 0)
(0.7056 -1.0368 0)
(0.7056 -1.11974 0)
(0.7056 -1.20269 0)
(0.7056 -1.28563 0)
(0.7056 -1.36858 0)
(0.7056 -1.45152 0)
(0.7056 -1.53446 0)
(0.7056 -1.61741 0)
(0.7056 -1.70035 0)
(0.7056 -1.7833 0)
(0.7056 -1.86624 0)
(0.7056 -1.94918 0)
(0.7056 -2.03213 0)
(0.7056 -2.11507 0)
(0.7056 -2.19802 0)
(0.7056 -2.28096 0)
(0.7056 -2.3639 0)
(0.7056 -2.44685 0)
(0.7056 -2.52979 0)
(0.7056 -2.61274 0)
(0.7056 -2.69568 0)
(0.7056 -2.77862 0)
(0.7056 -2.86157 0)
(0.7056 -2.94451 0)
(0.7056 -3.02746 0)
(0.7056 -3.1104 0)
(0.7056 -3.19334 0)
(0.7056 -3.27629 0)
(0.7056 -3.35923 0)
(0.7056 -3.44218 0)
(0.7056 -3.52512 0)
(0.7056 -3.60806 0)
(0.7056 -3.69101 0)
(0.7056 -3.77395 0)
(0.7056 -3.8569 0)
(0.7056 -3.93984 0)
(0.7056 -4.02278 0)
(0.7056 -4.10573 0)
(0.788544 -0.041472 0)
(0.788544 -0.124416 0)
(0.788544 -0.20736 0)
(0.788544 -0.290304 0)
(0.788544 -0.373248 0)
(0.788544 -0.456192 0)
(0.788544 -0.539136 0)
(0.788544 -0.62208 0)
(0.788544 -0.705024 0)
(0.788544 -0.787968 0)
(0.788544 -0.870912 0)
(0.788544 -0.953856 0)
(0.788544 -1.0368 0)
(0.788544 -1.11974 0)
(0.788544 -1.20269 0)
(0.788544 -1.28563 0)
(0.788544 -1.36858 0)
(0.788544 -1.45152 0)
(0.788544 -1.53446 0)
(0.788544 -1.61741 0)
(0.788544 -1.70035 0)
(0.788544 -1.7833 0)
(0.788544 -1.86624 0)
(0.788544 -1.94918 0)
(0.788544 -2.03213 0)
(0.788544 -2.11507 0)
(0.788544 -2.19802 0)
(0.788544 -2.28096 0)
(0.788544 -2.3639 0)
(0.788544 -2.44685 0)
(0.788544 -2.52979 0)
(0.788544 -2.61274 0)
(0.788544 -2.69568 0)
(0.788544 -2.77862 0)
(0.788544 -2.86157 0)
(0.788544 -2.94451 0)
(0.788544 -3.02746 0)
(0.788544 -3.1104 0)
(0.788544 -3.19334 0)
(0.788544 -3.27629 0)
(0.788544 -3.35923 0)
(0.788544 -3.44218 0)
(0.788544 -3.52512 0)
(0.788544 -3.60806 0)
(0.788544 -3.69101 0)
(0.788544 -3.77395 0)
(0.788544 -3.8569 0)
(0.788544 -3.93984 0)
(0.788544 -4.02278 0)
(0.788544 -4.10573 0)
(0.876096 -0.041472 0)
(0.876096 -0.124416 0)
(0.876096 -0.20736 0)
(0.876096 -0.290304 0)
(0.876096 -0.373248 0)
(0.876096 -0.456192 0)
(0.876096 -0.539136 0)
(0.876096 -0.62208 0)
(0.876096 -0.705024 0)
(0.876096 -0.787968 0)
(0.876096 -0.870912 0)
(0.876096 -0.953856 0)
(0.876096 -1.0368 0)
(0.876096 -1.11974 0)
(0.876096 -1.20269 0)
(0.876096 -1.28563 0)
(0.876096 -1.36858 0)
(0.876096 -1.45152 0)
(0.876096 -1.53446 0)
(0.876096 -1.61741 0)
(0.876096 -1.70035 0)
(0.876096 -1.7833 0)
(0.876096 -1.86624 0)
(0.876096 -1.94918 0)
(0.876096 -2.03213 0)
(0.876096 -2.11507 0)
(0.876096 -2.19802 0)
(0.876096 -2.28096 0)
(0.876096 -2.3639 0)
(0.876096 -2.44685 0)
(0.876096 -2.52979 0)
(0.876096 -2.61274 0)
(0.876096 -2.69568 0)
(0.876096 -2.77862 0)
(0.876096 -2.86157 0)
(0.876096 -2.94451 0)
(0.876096 -3.02746 0)
(0.876096 -3.1104 0)
(0.876096 -3.19334 0)
(0.876096 -3.27629 0)
(0.876096 -3.35923 0)
(0.876096 -3.44218 0)
(0.876096 -3.52512 0)
(0.876096 -3.60806 0)
(0.876096 -3.69101 0)
(0.876096 -3.77395 0)
(0.876096 -3.8569 0)
(0.876096 -3.93984 0)
(0.876096 -4.02278 0)
(0.876096 -4.10573 0)
(0.968256 -0.041472 0)
(0.968256 -0.124416 0)
(0.968256 -0.20736 0)
(0.968256 -0.290304 0)
(0.968256 -0.373248 0)
(0.968256 -0.456192 0)
(0.968256 -0.539136 0)
(0.968256 -0.62208 0)
(0.968256 -0.705024 0)
(0.968256 -0.787968 0)
(0.968256 -0.870912 0)
(0.968256 -0.953856 0)
(0.968256 -1.0368 0)
(0.968256 -1.11974 0)
(0.968256 -1.20269 0)
(0.968256 -1.28563 0)
(0.968256 -1.36858 0)
(0.968256 -1.45152 0)
(0.968256 -1.53446 0)
(0.968256 -1.61741 0)
(0.968256 -1.70035 0)
(0.968256 -1.7833 0)
(0.968256 -1.86624 0)
(0.968256 -1.94918 0)
(0.968256 -2.03213 0)
(0.968256 -2.11507 0)
(0.968256 -2.19802 0)
(0.968256 -2.28096 0)
(0.968256 -2.3639 0)
(0.968256 -2.44685 0)
(0.968256 -2.52979 0)
(0.968256 -2.61274 0)
(0.968256 -2.69568 0)
(0.968256 -2.77862 0)
(0.968256 -2.86157 0)
(0.968256 -2.94451 0)
(0.968256 -3.02746 0)
(0.968256 -3.1104 0)
(0.968256 -3.19334 0)
(0.968256 -3.27629 0)
(0.968256 -3.35923 0)
(0.968256 -3.44218 0)
(0.968256 -3.52512 0)
(0.968256 -3.60806 0)
(0.968256 -3.69101 0)
(0.968256 -3.77395 0)
(0.968256 -3.8569 0)
(0.968256 -3.93984 0)
(0.968256 -4.02278 0)
(0.968256 -4.10573 0)
(1.06502 -0.041472 0)
(1.06502 -0.124416 0)
(1.06502 -0.20736 0)
(1.06502 -0.290304 0)
(1.06502 -0.373248 0)
(1.06502 -0.456192 0)
(1.06502 -0.539136 0)
(1.06502 -0.62208 0)
(1.06502 -0.705024 0)
(1.06502 -0.787968 0)
(1.06502 -0.870912 0)
(1.06502 -0.953856 0)
(1.06502 -1.0368 0)
(1.06502 -1.11974 0)
(1.06502 -1.20269 0)
(1.06502 -1.28563 0)
(1.06502 -1.36858 0)
(1.06502 -1.45152 0)
(1.06502 -1.53446 0)
(1.06502 -1.61741 0)
(1.06502 -1.70035 0)
(1.06502 -1.7833 0)
(1.06502 -1.86624 0)
(1.06502 -1.94918 0)
(1.06502 -2.03213 0)
(1.06502 -2.11507 0)
(1.06502 -2.19802 0)
(1.06502 -2.28096 0)
(1.06502 -2.3639 0)
(1.06502 -2.44685 0)
(1.06502 -2.52979 0)
(1.06502 -2.61274 0)
(1.06502 -2.69568 0)
(1.06502 -2.77862 0)
(1.06502 -2.86157 0)
(1.06502 -2.94451 0)
(1.06502 -3.02746 0)
(1.06502 -3.1104 0)
(1.06502 -3.19334 0)
(1.06502 -3.27629 0)
(1.06502 -3.35923 0)
(1.06502 -3.44218 0)
(1.06502 -3.52512 0)
(1.06502 -3.60806 0)
(1.06502 -3.69101 0)
(1.06502 -3.77395 0)
(1.06502 -3.8569 0)
(1.06502 -3.93984 0)
(1.06502 -4.02278 0)
(1.06502 -4.10573 0)
(1.1664 -0.041472 0)
(1.1664 -0.124416 0)
(1.1664 -0.20736 0)
(1.1664 -0.290304 0)
(1.1664 -0.373248 0)
(1.1664 -0.456192 0)
(1.1664 -0.539136 0)
(1.1664 -0.62208 0)
(1.1664 -0.705024 0)
(1.1664 -0.787968 0)
(1.1664 -0.870912 0)
(1.1664 -0.953856 0)
(1.1664 -1.0368 0)
(1.1664 -1.11974 0)
(1.1664 -1.20269 0)
(1.1664 -1.28563 0)
(1.1664 -1.36858 0)
(1.1664 -1.45152 0)
(1.1664 -1.53446 0)
(1.1664 -1.61741 0)
(1.1664 -1.70035 0)
(1.1664 -1.7833 0)
(1.1664 -1.86624 0)
(1.1664 -1.94918 0)
(1.1664 -2.03213 0)
(1.1664 -2.11507 0)
(1.1664 -2.19802 0)
(1.1664 -2.28096 0)
(1.1664 -2.3639 0)
(1.1664 -2.44685 0)
(1.1664 -2.52979 0)
(1.1664 -2.61274 0)
(1.1664 -2.69568 0)
(1.1664 -2.77862 0)
(1.1664 -2.86157 0)
(1.1664 -2.94451 0)
(1.1664 -3.02746 0)
(1.1664 -3.1104 0)
(1.1664 -3.19334 0)
(1.1664 -3.27629 0)
(1.1664 -3.35923 0)
(1.1664 -3.44218 0)
(1.1664 -3.52512 0)
(1.1664 -3.60806 0)
(1.1664 -3.69101 0)
(1.1664 -3.77395 0)
(1.1664 -3.8569 0)
(1.1664 -3.93984 0)
(1.1664 -4.02278 0)
(1.1664 -4.10573 0)
(1.27238 -0.041472 0)
(1.27238 -0.124416 0)
(1.27238 -0.20736 0)
(1.27238 -0.290304 0)
(1.27238 -0.373248 0)
(1.27238 -0.456192 0)
(1.27238 -0.539136 0)
(1.27238 -0.62208 0)
(1.27238 -0.705024 0)
(1.27238 -0.787968 0)
(1.27238 -0.870912 0)
(1.27238 -0.953856 0)
(1.27238 -1.0368 0)
(1.27238 -1.11974 0)
(1.27238 -1.20269 0)
(1.27238 -1.28563 0)
(1.27238 -1.36858 0)
(1.27238 -1.45152 0)
(1.27238 -1.53446 0)
(1.27238 -1.61741 0)
(1.27238 -1.70035 0)
(1.27238 -1.7833 0)
(1.27238 -1.86624 0)
(1.27238 -1.94918 0)
(1.27238 -2.03213 0)
(1.27238 -2.11507 0)
(1.27238 -2.19802 0)
(1.27238 -2.28096 0)
(1.27238 -2.3639 0)
(1.27238 -2.44685 0)
(1.27238 -2.52979 0)
(1.27238 -2.61274 0)
(1.27238 -2.69568 0)
(1.27238 -2.77862 0)
(1.27238 -2.86157 0)
(1.27238 -2.94451 0)
(1.27238 -3.02746 0)
(1.27238 -3.1104 0)
(1.27238 -3.19334 0)
(1.27238 -3.27629 0)
(1.27238 -3.35923 0)
(1.27238 -3.44218 0)
(1.27238 -3.52512 0)
(1.27238 -3.60806 0)
(1.27238 -3.69101 0)
(1.27238 -3.77395 0)
(1.27238 -3.8569 0)
(1.27238 -3.93984 0)
(1.27238 -4.02278 0)
(1.27238 -4.10573 0)
(1.38298 -0.041472 0)
(1.38298 -0.124416 0)
(1.38298 -0.20736 0)
(1.38298 -0.290304 0)
(1.38298 -0.373248 0)
(1.38298 -0.456192 0)
(1.38298 -0.539136 0)
(1.38298 -0.62208 0)
(1.38298 -0.705024 0)
(1.38298 -0.787968 0)
(1.38298 -0.870912 0)
(1.38298 -0.953856 0)
(1.38298 -1.0368 0)
(1.38298 -1.11974 0)
(1.38298 -1.20269 0)
(1.38298 -1.28563 0)
(1.38298 -1.36858 0)
(1.38298 -1.45152 0)
(1.38298 -1.53446 0)
(1.38298 -1.61741 0)
(1.38298 -1.70035 0)
(1.38298 -1.7833 0)
(1.38298 -1.86624 0)
(1.38298 -1.94918 0)
(1.38298 -2.03213 0)
(1.38298 -2.11507 0)
(1.38298 -2.19802 0)
(1.38298 -2.28096 0)
(1.38298 -2.3639 0)
(1.38298 -2.44685 0)
(1.38298 -2.52979 0)
(1.38298 -2.61274 0)
(1.38298 -2.69568 0)
(1.38298 -2.77862 0)
(1.38298 -2.86157 0)
(1.38298 -2.94451 0)
(1.38298 -3.02746 0)
(1.38298 -3.1104 0)
(1.38298 -3.19334 0)
(1.38298 -3.27629 0)
(1.38298 -3.35923 0)
(1.38298 -3.44218 0)
(1.38298 -3.52512 0)
(1.38298 -3.60806 0)
(1.38298 -3.69101 0)
(1.38298 -3.77395 0)
(1.38298 -3.8569 0)
(1.38298 -3.93984 0)
(1.38298 -4.02278 0)
(1.38298 -4.10573 0)
(1.49818 -0.041472 0)
(1.49818 -0.124416 0)
(1.49818 -0.20736 0)
(1.49818 -0.290304 0)
(1.49818 -0.373248 0)
(1.49818 -0.456192 0)
(1.49818 -0.539136 0)
(1.49818 -0.62208 0)
(1.49818 -0.705024 0)
(1.49818 -0.787968 0)
(1.49818 -0.870912 0)
(1.49818 -0.953856 0)
(1.49818 -1.0368 0)
(1.49818 -1.11974 0)
(1.49818 -1.20269 0)
(1.49818 -1.28563 0)
(1.49818 -1.36858 0)
(1.49818 -1.45152 0)
(1.49818 -1.53446 0)
(1.49818 -1.61741 0)
(1.49818 -1.70035 0)
(1.49818 -1.7833 0)
(1.49818 -1.86624 0)
(1.49818 -1.94918 0)
(1.49818 -2.03213 0)
(1.49818 -2.11507 0)
(1.49818 -2.19802 0)
(1.49818 -2.28096 0)
(1.49818 -2.3639 0)
(1.49818 -2.44685 0)
(1.49818 -2.52979 0)
(1.49818 -2.61274 0)
(1.49818 -2.69568 0)
(1.49818 -2.77862 0)
(1.49818 -2.86157 0)
(1.49818 -2.94451 0)
(1.49818 -3.02746 0)
(1.49818 -3.1104 0)
(1.49818 -3.19334 0)
(1.49818 -3.27629 0)
(1.49818 -3.35923 0)
(1.49818 -3.44218 0)
(1.49818 -3.52512 0)
(1.49818 -3.60806 0)
(1.49818 -3.69101 0)
(1.49818 -3.77395 0)
(1.49818 -3.8569 0)
(1.49818 -3.93984 0)
(1.49818 -4.02278 0)
(1.49818 -4.10573 0)
(1.61798 -0.041472 0)
(1.61798 -0.124416 0)
(1.61798 -0.20736 0)
(1.61798 -0.290304 0)
(1.61798 -0.373248 0)
(1.61798 -0.456192 0)
(1.61798 -0.539136 0)
(1.61798 -0.62208 0)
(1.61798 -0.705024 0)
(1.61798 -0.787968 0)
(1.61798 -0.870912 0)
(1.61798 -0.953856 0)
(1.61798 -1.0368 0)
(1.61798 -1.11974 0)
(1.61798 -1.20269 0)
(1.61798 -1.28563 0)
(1.61798 -1.36858 0)
(1.61798 -1.45152 0)
(1.61798 -1.53446 0)
(1.61798 -1.61741 0)
(1.61798 -1.70035 0)
(1.61798 -1.7833 0)
(1.61798 -1.86624 0)
(1.61798 -1.94918 0)
(1.61798 -2.03213 0)
(1.61798 -2.11507 0)
(1.61798 -2.19802 0)
(1.61798 -2.28096 0)
(1.61798 -2.3639 0)
(1.61798 -2.44685 0)
(1.61798 -2.52979 0)
(1.61798 -2.61274 0)
(1.61798 -2.69568 0)
(1.61798 -2.77862 0)
(1.61798 -2.86157 0)
(1.61798 -2.94451 0)
(1.61798 -3.02746 0)
(1.61798 -3.1104 0)
(1.61798 -3.19334 0)
(1.61798 -3.27629 0)
(1.61798 -3.35923 0)
(1.61798 -3.44218 0)
(1.61798 -3.52512 0)
(1.61798 -3.60806 0)
(1.61798 -3.69101 0)
(1.61798 -3.77395 0)
(1.61798 -3.8569 0)
(1.61798 -3.93984 0)
(1.61798 -4.02278 0)
(1.61798 -4.10573 0)
(1.7424 -0.041472 0)
(1.7424 -0.124416 0)
(1.7424 -0.20736 0)
(1.7424 -0.290304 0)
(1.7424 -0.373248 0)
(1.7424 -0.456192 0)
(1.7424 -0.539136 0)