/*--------------------------------*- C++ -*----------------------------------*\
| =========                 |                                                 |
| \\      /  F ield         | OpenFOAM: The Open Source CFD Toolbox           |
|  \\    /   O peration     | Version:  v2006                                 |
|   \\  /    A nd           | Website:  www.openfoam.com                      |
|    \\/     M anipulation  |                                                 |
\*---------------------------------------------------------------------------*/
FoamFile
{
    version     2.0;
    format      ascii;
    class       surfaceScalarField;
    location    "19.9";
    object      alphaPhi0.water;
}
// * * * * * * * * * * * * * * * * * * * * * * * * * * * * * * * * * * * * * //

dimensions      [0 3 -1 0 0 0 0];
oriented        oriented;


internalField   nonuniform List<scalar> 
99450
(
3.57533e-06
-3.57533e-06
2.75943e-05
-2.4019e-05
5.72274e-05
-2.9633e-05
8.49897e-05
-2.77623e-05
0.000108974
-2.39842e-05
0.000130017
-2.10434e-05
0.000149629
-1.96116e-05
0.000168975
-1.93464e-05
0.000188648
-1.96726e-05
0.000208765
-2.01167e-05
0.000229153
-2.03882e-05
0.000249503
-2.03506e-05
0.000269465
-1.99617e-05
0.000288695
-1.923e-05
0.000306887
-1.81922e-05
0.000323789
-1.69018e-05
0.000339209
-1.54199e-05
0.00035302
-1.3811e-05
0.000365156
-1.21359e-05
0.000375603
-1.04472e-05
0.00038439
-8.78646e-06
0.000391572
-7.18231e-06
0.000397224
-5.65207e-06
0.000401423
-4.1993e-06
0.000404289
-2.86541e-06
0.000405916
-1.62681e-06
0.000406382
-4.66477e-07
0.000405769
6.129e-07
0.000404113
1.6562e-06
0.000401454
2.6587e-06
0.000397824
3.63003e-06
0.000393236
4.58815e-06
0.000387685
5.55062e-06
0.000381167
6.51892e-06
0.000373648
7.51859e-06
0.000365054
8.59397e-06
0.000355253
9.80127e-06
0.000344065
1.11873e-05
0.000331263
1.2802e-05
0.000316613
1.46503e-05
0.000299932
1.66811e-05
0.000281198
1.87342e-05
0.000260596
2.06022e-05
0.000238449
2.21464e-05
0.000215108
2.33414e-05
0.000190893
2.4215e-05
0.000166111
2.47815e-05
0.000141064
2.50477e-05
0.000116037
2.50272e-05
9.13231e-05
2.47134e-05
6.72319e-05
2.40912e-05
4.40716e-05
2.31604e-05
2.20859e-05
2.19857e-05
1.37101e-06
2.07149e-05
-1.81687e-05
1.95398e-05
-3.67549e-05
1.85862e-05
-5.46315e-05
1.78766e-05
-7.19698e-05
1.73383e-05
-8.88854e-05
1.69155e-05
-0.000105428
1.6543e-05
-0.000121624
1.61954e-05
-0.000137498
1.58739e-05
-0.000153062
1.55645e-05
-0.000168341
1.52788e-05
-0.000183344
1.50036e-05
-0.00019808
1.47359e-05
-0.000212563
1.44824e-05
-0.000226795
1.4232e-05
-0.000240781
1.39862e-05
-0.000254521
1.37399e-05
-0.000268013
1.34919e-05
-0.000281251
1.32381e-05
-0.000294234
1.29826e-05
-0.000306952
1.27182e-05
-0.000319396
1.24438e-05
-0.00033156
1.21641e-05
-0.000343433
1.18731e-05
-0.000355004
1.15716e-05
-0.000366264
1.12596e-05
-0.000377202
1.09383e-05
-0.000387812
1.06098e-05
-0.000398089
1.02773e-05
-0.000408035
9.94593e-06
-0.000417659
9.62411e-06
-0.00042696
9.30093e-06
-0.000435947
8.98631e-06
-0.000444635
8.6879e-06
-0.000453047
8.41285e-06
-0.000461201
8.15398e-06
-0.000469145
7.94321e-06
-0.000476929
7.78458e-06
-0.000484627
7.69773e-06
-0.000492345
7.71769e-06
-0.000500223
7.87866e-06
-0.000508493
8.26949e-06
-0.000517531
9.03849e-06
-0.000527862
1.03308e-05
-0.00053999
1.21282e-05
-0.000554207
1.42168e-05
-0.00057051
1.63033e-05
-0.000588597
1.80868e-05
-0.000607927
1.93299e-05
-0.000627827
1.99e-05
-0.000647669
1.98419e-05
-0.000666949
1.92796e-05
-0.000685244
1.82958e-05
-0.000702109
1.68648e-05
-0.000716939
1.48294e-05
-0.000728902
1.19638e-05
-0.000736986
8.08323e-06
-0.000740238
3.25234e-06
-0.000738349
-1.88864e-06
-0.000732107
-6.24225e-06
-0.000722704
-9.40336e-06
-0.000711296
-1.14076e-05
-0.000698707
-1.25893e-05
-0.000685426
-1.32814e-05
-0.000671658
-1.37676e-05
-0.000657458
-1.42e-05
-0.000642808
-1.46501e-05
-0.000627701
-1.51068e-05
-0.000612136
-1.55647e-05
-0.000596111
-1.6025e-05
-0.000579627
-1.64845e-05
-0.000562688
-1.69389e-05
-0.000545299
-1.73887e-05
-0.000527469
-1.78304e-05
-0.000509204
-1.82651e-05
-0.000490504
-1.86998e-05
-0.000471391
-1.91129e-05
-0.000451874
-1.9517e-05
-0.000431967
-1.99071e-05
-0.000411676
-2.02911e-05
-0.000391005
-2.06712e-05
-0.000369944
-2.10603e-05
-0.000348476
-2.14684e-05
-0.000326581
-2.18948e-05
-0.000304232
-2.23487e-05
-0.000281407
-2.28254e-05
-0.000258079
-2.33284e-05
-0.000234225
-2.38533e-05
-0.000209822
-2.44038e-05
-0.000184848
-2.49736e-05
-0.000159263
-2.55844e-05
-0.000133056
-2.62072e-05
-0.000106233
-2.68229e-05
-7.89532e-05
-2.72802e-05
-5.12385e-05
-2.77147e-05
-2.36406e-05
-2.75979e-05
-2.36406e-05
1.56794e-06
-5.1433e-06
2.32141e-05
-4.56652e-05
5.07874e-05
-5.72063e-05
7.62895e-05
-5.32643e-05
9.72004e-05
-4.48952e-05
0.000114253
-3.8096e-05
0.00012935
-3.47083e-05
0.000144131
-3.41272e-05
0.000159406
-3.49482e-05
0.000175247
-3.5958e-05
0.000191299
-3.64395e-05
0.000207049
-3.61011e-05
0.000221992
-3.49043e-05
0.000235688
-3.29263e-05
0.000247787
-3.02915e-05
0.000258034
-2.71487e-05
0.000266267
-2.36524e-05
0.000272409
-1.9953e-05
0.000276463
-1.61902e-05
0.000278501
-1.2485e-05
0.000278649
-8.93486e-06
0.000277075
-5.60815e-06
0.000273974
-2.55106e-06
0.000269458
3.1654e-07
0.000263841
2.75158e-06
0.000257295
4.9193e-06
0.000250008
6.82055e-06
0.000242152
8.46923e-06
0.000233926
9.88177e-06
0.000225502
1.10828e-05
0.000217032
1.21005e-05
0.000208672
1.29474e-05
0.000200571
1.36519e-05
0.00019284
1.42499e-05
0.000185574
1.47844e-05
0.000178848
1.53196e-05
0.000172711
1.59391e-05
0.000167175
1.67231e-05
0.00016221
1.77664e-05
0.000157722
1.91392e-05
0.000153513
2.08894e-05
0.000149264
2.29838e-05
0.000144563
2.53024e-05
0.000139028
2.76817e-05
0.000132381
2.99885e-05
0.000124467
3.21294e-05
0.000115221
3.40275e-05
0.00010471
3.55584e-05
9.30317e-05
3.67054e-05
8.0298e-05
3.74471e-05
6.66317e-05
3.77575e-05
5.21384e-05
3.76536e-05
3.69182e-05
3.72059e-05
2.10871e-05
3.6546e-05
4.80584e-06
3.5821e-05
-1.17555e-05
3.51475e-05
-2.84623e-05
3.45834e-05
-4.52604e-05
3.41364e-05
-6.21187e-05
3.37738e-05
-7.9048e-05
3.34723e-05
-9.60596e-05
3.3207e-05
-0.000113143
3.29573e-05
-0.000130301
3.27227e-05
-0.000147514
3.24914e-05
-0.000164766
3.22558e-05
-0.000182043
3.20126e-05
-0.000199304
3.17432e-05
-0.000216539
3.14677e-05
-0.000233711
3.1158e-05
-0.000250786
3.08151e-05
-0.000267745
3.04511e-05
-0.000284554
3.00463e-05
-0.000301175
2.96043e-05
-0.000317572
2.91155e-05
-0.000333726
2.85973e-05
-0.00034959
2.80279e-05
-0.00036513
2.74131e-05
-0.000380309
2.67513e-05
-0.000395094
2.60445e-05
-0.000409447
2.52913e-05
-0.000423327
2.4489e-05
-0.000436703
2.36538e-05
-0.000449546
2.27888e-05
-0.000461822
2.19004e-05
-0.000473515
2.09939e-05
-0.000484608
2.00787e-05
-0.000495083
1.91631e-05
-0.000504931
1.82609e-05
-0.000514164
1.73873e-05
-0.000522767
1.65465e-05
-0.000530747
1.57644e-05
-0.000538107
1.50571e-05
-0.000544853
1.4464e-05
-0.000550996
1.40218e-05
-0.000556517
1.37904e-05
-0.000561338
1.38595e-05
-0.000565343
1.43356e-05
-0.00056851
1.52957e-05
-0.000571
1.67066e-05
-0.000573061
1.83642e-05
-0.000574901
1.99266e-05
-0.000576549
2.09784e-05
-0.000577783
2.11336e-05
-0.000578132
2.01915e-05
-0.000576894
1.80416e-05
-0.000573313
1.47146e-05
-0.000566786
1.03375e-05
-0.000557062
5.10592e-06
-0.000544488
-6.11072e-07
-0.000529127
-7.27721e-06
-0.00051214
-1.37347e-05
-0.000494552
-1.94768e-05
-0.000476737
-2.40575e-05
-0.00045879
-2.73494e-05
-0.000440737
-2.94607e-05
-0.000422645
-3.06814e-05
-0.000404576
-3.13509e-05
-0.000386606
-3.17372e-05
-0.000368776
-3.20305e-05
-0.000351116
-3.23097e-05
-0.000333578
-3.26444e-05
-0.000316176
-3.29676e-05
-0.000298904
-3.32965e-05
-0.000281786
-3.36024e-05
-0.000264864
-3.38608e-05
-0.000248178
-3.40752e-05
-0.000231778
-3.42304e-05
-0.000215717
-3.43262e-05
-0.000200084
-3.4332e-05
-0.000184896
-3.43012e-05
-0.000170186
-3.42272e-05
-0.000156036
-3.4057e-05
-0.000142519
-3.38076e-05
-0.00012967
-3.35208e-05
-0.000117546
-3.31842e-05
-0.000106214
-3.28008e-05
-9.56551e-05
-3.24534e-05
-8.58649e-05
-3.21388e-05
-7.68191e-05
-3.18713e-05
-6.84422e-05
-3.17053e-05
-6.06292e-05
-3.16663e-05
-5.33003e-05
-3.17327e-05
-4.63642e-05
-3.19097e-05
-3.97475e-05
-3.22011e-05
-3.3403e-05
-3.25518e-05
-2.7289e-05
-3.29369e-05
-2.13922e-05
-3.3177e-05
-1.53025e-05
-3.38043e-05
-7.64156e-06
-3.52589e-05
-3.12822e-05
-1.49256e-07
-4.99402e-06
2.13117e-05
-6.71261e-05
5.05493e-05
-8.64439e-05
7.90974e-05
-8.18125e-05
0.000103452
-6.92493e-05
0.000123523
-5.81675e-05
0.000140954
-5.2139e-05
0.00015767
-5.08437e-05
0.000174956
-5.22337e-05
0.000193185
-5.4187e-05
0.000212035
-5.52895e-05
0.000230833
-5.48991e-05
0.000248838
-5.29093e-05
0.0002654
-4.94887e-05
0.000280023
-4.49142e-05
0.00029236
-3.94859e-05
0.000302206
-3.34984e-05
0.000309486
-2.72334e-05
0.00031424
-2.0944e-05
0.000316589
-1.48338e-05
0.000316719
-9.06495e-06
0.000314854
-3.74259e-06
0.000311248
1.05479e-06
0.000306232
5.33186e-06
0.000299927
9.05676e-06
0.000292578
1.22681e-05
0.000284376
1.50232e-05
0.000275477
1.73678e-05
0.000266003
1.93559e-05
0.000256059
2.10265e-05
0.000245731
2.24291e-05
0.00023508
2.35982e-05
0.000224153
2.45786e-05
0.000212981
2.54224e-05
0.000201587
2.61781e-05
0.000189993
2.69134e-05
0.000178238
2.76941e-05
0.000166378
2.85839e-05
0.000154519
2.96252e-05
0.000142796
3.08615e-05
0.000131348
3.23382e-05
0.000120255
3.40764e-05
0.000109528
3.60293e-05
9.91219e-05
3.80879e-05
8.8965e-05
4.01454e-05
7.89671e-05
4.21274e-05
6.90289e-05
4.39657e-05
5.89803e-05
4.56071e-05
4.86744e-05
4.70112e-05
3.79457e-05
4.81759e-05
2.66402e-05
4.9063e-05
1.46317e-05
4.96621e-05
1.83518e-06
5.00025e-05
-1.17192e-05
5.01004e-05
-2.59576e-05
5.00594e-05
-4.07195e-05
4.99095e-05
-5.58811e-05
4.97449e-05
-7.1344e-05
4.95993e-05
-8.70473e-05
4.94771e-05
-0.00010294
4.93655e-05
-0.000119002
4.92685e-05
-0.000135225
4.91804e-05
-0.000151567
4.90643e-05
-0.000167997
4.89218e-05
-0.000184502
4.87611e-05
-0.00020104
4.85506e-05
-0.000217583
4.82861e-05
-0.000234095
4.79799e-05
-0.000250557
4.76192e-05
-0.000266923
4.71817e-05
-0.00028316
4.66883e-05
-0.000299239
4.61252e-05
-0.000315136
4.55013e-05
-0.000330808
4.47874e-05
-0.000346212
4.40009e-05
-0.000361325
4.31407e-05
-0.000376113
4.22014e-05
-0.000390544
4.11824e-05
-0.000404585
4.00851e-05
-0.000418203
3.89095e-05
-0.000431366
3.7652e-05
-0.000444033
3.63213e-05
-0.000456186
3.49417e-05
-0.000467795
3.35096e-05
-0.000478839
3.20374e-05
-0.000489296
3.05357e-05
-0.000499142
2.90091e-05
-0.000508364
2.74825e-05
-0.000516938
2.59619e-05
-0.000524855
2.44632e-05
-0.000532103
2.3013e-05
-0.00053866
2.16136e-05
-0.000544504
2.03077e-05
-0.000549609
1.91269e-05
-0.000553894
1.80759e-05
-0.000557221
1.7186e-05
-0.000559378
1.64927e-05
-0.000560125
1.60429e-05
-0.000559269
1.5851e-05
-0.000556722
1.58169e-05
-0.000552492
1.56969e-05
-0.000546717
1.52034e-05
-0.000539609
1.40257e-05
-0.000531352
1.19338e-05
-0.000522192
8.88227e-06
-0.000512386
4.90861e-06
-0.000502203
1.53825e-07
-0.000491894
-5.20314e-06
-0.000481617
-1.0888e-05
-0.000472175
-1.67195e-05
-0.000463659
-2.22505e-05
-0.000456013
-2.71227e-05
-0.000448915
-3.1155e-05
-0.000441912
-3.43531e-05
-0.000434544
-3.68285e-05
-0.000426463
-3.87619e-05
-0.000417474
-4.03406e-05
-0.000407466
-4.17449e-05
-0.000396421
-4.30754e-05
-0.000384351
-4.43796e-05
-0.000371338
-4.56574e-05
-0.000357388
-4.69176e-05
-0.000342574
-4.81108e-05
-0.000326964
-4.92121e-05
-0.000310639
-5.01864e-05
-0.000293702
-5.10112e-05
-0.000276267
-5.16661e-05
-0.000258457
-5.21358e-05
-0.000240363
-5.24257e-05
-0.000222132
-5.25322e-05
-0.000203896
-5.2464e-05
-0.000185754
-5.21988e-05
-0.000167842
-5.17196e-05
-0.000150333
-5.10295e-05
-0.000133389
-5.01289e-05
-0.000117151
-4.90383e-05
-0.000101782
-4.7822e-05
-8.74761e-05
-4.6445e-05
-7.43312e-05
-4.50162e-05
-6.2445e-05
-4.35915e-05
-5.19003e-05
-4.22109e-05
-4.27035e-05
-4.09296e-05
-3.48108e-05
-3.98024e-05
-2.81605e-05
-3.88514e-05
-2.26502e-05
-3.8062e-05
-1.81655e-05
-3.74216e-05
-1.44143e-05
-3.69283e-05
-1.0213e-05
-3.80056e-05
-3.73787e-06
-4.1734e-05
-3.502e-05
-2.38199e-06
-2.61204e-06
1.76391e-05
-8.71473e-05
4.62827e-05
-0.000115087
7.52491e-05
-0.000110779
0.000100821
-9.4821e-05
0.000122576
-7.99228e-05
0.000141928
-7.14904e-05
0.000160742
-6.96586e-05
0.00018043
-7.19215e-05
0.000201535
-7.5292e-05
0.000223787
-7.75409e-05
0.000246406
-7.75181e-05
0.000268436
-7.494e-05
0.000288987
-7.00388e-05
0.000307347
-6.32741e-05
0.000323055
-5.51949e-05
0.000335868
-4.63106e-05
0.000345717
-3.70824e-05
0.000352659
-2.7886e-05
0.000356869
-1.90444e-05
0.00035857
-1.07662e-05
0.000358036
-3.20854e-06
0.000355518
3.57293e-06
0.000351338
9.51173e-06
0.00034572
1.46747e-05
0.000338903
1.9086e-05
0.000331076
2.28493e-05
0.00032243
2.60148e-05
0.000313101
2.86848e-05
0.000303194
3.09331e-05
0.000292785
3.28383e-05
0.000281912
3.44713e-05
0.000270593
3.58973e-05
0.00025883
3.7186e-05
0.000246608
3.83995e-05
0.00023393
3.9591e-05
0.000220814
4.08106e-05
0.000207287
4.21111e-05
0.000193405
4.35065e-05
0.000179251
4.50161e-05
0.000164944
4.66453e-05
0.00015064
4.83797e-05
0.000136485
5.01852e-05
0.000122547
5.20255e-05
0.000108836
5.38561e-05
9.53416e-05
5.56221e-05
8.20238e-05
5.72835e-05
6.8825e-05
5.88059e-05
5.56549e-05
6.01813e-05
4.24393e-05
6.13915e-05
2.9081e-05
6.24213e-05
1.54784e-05
6.32647e-05
1.56064e-06
6.39202e-05
-1.2739e-05
6.44e-05
-2.74254e-05
6.47458e-05
-4.24921e-05
6.49761e-05
-5.7887e-05
6.51398e-05
-7.3546e-05
6.52583e-05
-8.94112e-05
6.53424e-05
-0.000105442
6.53966e-05
-0.000121596
6.54221e-05
-0.000137831
6.54155e-05
-0.000154123
6.53558e-05
-0.000170445
6.52438e-05
-0.00018675
6.50666e-05
-0.000203031
6.4831e-05
-0.000219262
6.45171e-05
-0.000235408
6.41262e-05
-0.000251436
6.36475e-05
-0.000267338
6.30829e-05
-0.000283075
6.24253e-05
-0.000298625
6.1676e-05
-0.000313948
6.08237e-05
-0.000329032
5.98721e-05
-0.00034385
5.88183e-05
-0.000358372
5.76629e-05
-0.000372572
5.6402e-05
-0.000386431
5.50408e-05
-0.000399924
5.3578e-05
-0.000413022
5.2008e-05
-0.000425713
5.03426e-05
-0.000437991
4.85993e-05
-0.000449815
4.67658e-05
-0.000461166
4.4861e-05
-0.000472022
4.28935e-05
-0.00048236
4.08735e-05
-0.000492172
3.88206e-05
-0.000501418
3.67285e-05
-0.000510077
3.46214e-05
-0.000518128
3.25138e-05
-0.000525527
3.04125e-05
-0.000532257
2.8343e-05
-0.000538258
2.63087e-05
-0.000543474
2.43431e-05
-0.000547854
2.24563e-05
-0.000551328
2.06593e-05
-0.000553803
1.89686e-05
-0.000555127
1.73665e-05
-0.000555096
1.58201e-05
-0.000553521
1.42417e-05
-0.000550349
1.25252e-05
-0.000545659
1.05132e-05
-0.000539708
8.07457e-06
-0.000532877
5.10244e-06
-0.00052555
1.55557e-06
-0.000518121
-2.52003e-06
-0.000510938
-7.029e-06
-0.000504316
-1.18254e-05
-0.00049845
-1.67547e-05
-0.000493476
-2.16926e-05
-0.000489273
-2.64535e-05
-0.000485493
-3.09028e-05
-0.000481688
-3.49608e-05
-0.000477437
-3.86041e-05
-0.000472416
-4.1849e-05
-0.000466443
-4.47352e-05
-0.000459453
-4.73304e-05
-0.000451499
-4.96992e-05
-0.000442673
-5.19014e-05
-0.000433072
-5.39804e-05
-0.000422755
-5.59741e-05
-0.000411756
-5.79165e-05
-0.000400098
-5.97694e-05
-0.000387778
-6.15313e-05
-0.000374801
-6.31638e-05
-0.000361148
-6.46638e-05
-0.000346812
-6.60021e-05
-0.000331804
-6.71444e-05
-0.000316147
-6.80825e-05
-0.000299883
-6.8796e-05
-0.000283086
-6.92616e-05
-0.00026577
-6.95142e-05
-0.000248044
-6.94454e-05
-0.000229998
-6.90763e-05
-0.00021177
-6.83561e-05
-0.000193471
-6.73374e-05
-0.000175315
-6.59782e-05
-0.000157424
-6.4336e-05
-0.000139997
-6.24436e-05
-0.000123239
-6.03495e-05
-0.000107288
-5.81612e-05
-9.22857e-05
-5.59322e-05
-7.83414e-05
-5.37467e-05
-6.55666e-05
-5.16262e-05
-5.41052e-05
-4.95234e-05
-4.39779e-05
-4.75489e-05
-3.41884e-05
-4.67178e-05
-2.23288e-05
-4.98652e-05
-7.83183e-06
-5.6231e-05
-4.28519e-05
-5.26524e-06
2.6532e-06
1.20381e-05
-0.000104451
3.85727e-05
-0.000141622
6.64243e-05
-0.00013863
9.17808e-05
-0.000120178
0.000113888
-0.00010203
0.000134073
-9.16757e-05
0.000154297
-8.98829e-05
0.000176107
-9.37313e-05
0.000200087
-9.92719e-05
0.000225857
-0.000103311
0.000252375
-0.000104036
0.000278329
-0.000100893
0.00030248
-9.41902e-05
0.000323893
-8.46869e-05
0.000341977
-7.32795e-05
0.000356481
-6.08143e-05
0.000367411
-4.8012e-05
0.000374955
-3.543e-05
0.000379396
-2.34858e-05
0.000381075
-1.24452e-05
0.000380329
-2.46227e-06
0.00037752
6.38193e-06
0.000372959
1.40728e-05
0.000366928
2.07053e-05
0.000359657
2.63575e-05
0.00035135
3.11559e-05
0.000342153
3.52119e-05
0.000332209
3.86287e-05
0.00032163
4.15119e-05
0.000310505
4.3963e-05
0.000298901
4.60758e-05
0.000286862
4.79359e-05
0.000274434
4.96136e-05
0.000261663
5.11713e-05
0.000248588
5.26655e-05
0.000235252
5.41464e-05
0.000221707
5.56567e-05
0.000207998
5.72158e-05
0.000194169
5.88451e-05
0.000180264
6.05497e-05
0.00016632
6.23238e-05
0.000152353
6.41523e-05
0.00013838
6.59987e-05
0.000124398
6.78377e-05
0.000110393
6.96275e-05
9.63477e-05
7.13285e-05
8.22372e-05
7.29164e-05
6.80502e-05
7.43682e-05
5.37633e-05
7.56784e-05
3.93517e-05
7.68329e-05
2.47825e-05
7.78339e-05
1.00176e-05
7.86851e-05
-4.97906e-06
7.93967e-05
-2.0209e-05
7.99757e-05
-3.56895e-05
8.04566e-05
-5.13977e-05
8.0848e-05
-6.73029e-05
8.11636e-05
-8.33888e-05
8.14283e-05
-9.95964e-05
8.16042e-05
-0.000115901
8.17263e-05
-0.000132268
8.1783e-05
-0.000148672
8.17593e-05
-0.000165082
8.16545e-05
-0.000181478
8.1462e-05
-0.000197829
8.1182e-05
-0.000214112
8.08e-05
-0.000230304
8.03183e-05
-0.000246377
7.97207e-05
-0.000262309
7.90155e-05
-0.000278077
7.81934e-05
-0.000293666
7.72643e-05
-0.000309033
7.61907e-05
-0.000324165
7.50042e-05
-0.000339041
7.3694e-05
-0.000353637
7.22593e-05
-0.000367935
7.06996e-05
-0.000381915
6.90208e-05
-0.000395547
6.72107e-05
-0.000408821
6.52814e-05
-0.000421719
6.3241e-05
-0.000434213
6.10934e-05
-0.000446289
5.88411e-05
-0.000457923
5.64956e-05
-0.000469092
5.40621e-05
-0.00047977
5.15515e-05
-0.000489927
4.89778e-05
-0.000499546
4.63479e-05
-0.000508583
4.3658e-05
-0.000517015
4.09455e-05
-0.000524807
3.82049e-05
-0.000531918
3.54536e-05
-0.000538313
3.27042e-05
-0.000543938
2.99678e-05
-0.00054872
2.72385e-05
-0.000552608
2.4547e-05
-0.00055551
2.18713e-05
-0.000557358
1.9214e-05
-0.000558065
1.65275e-05
-0.00055761
1.37861e-05
-0.000556004
1.09196e-05
-0.000553321
7.83006e-06
-0.000549694
4.44724e-06
-0.000545338
7.47188e-07
-0.000540481
-3.30222e-06
-0.000535322
-7.67841e-06
-0.000530011
-1.23402e-05
-0.000524618
-1.72182e-05
-0.000519165
-2.22076e-05
-0.000513655
-2.72029e-05
-0.000508039
-3.20698e-05
-0.00050224
-3.67017e-05
-0.000496185
-4.10153e-05
-0.000489814
-4.49754e-05
-0.000483082
-4.85808e-05
-0.000475956
-5.18617e-05
-0.000468419
-5.48672e-05
-0.000460475
-5.76431e-05
-0.000452132
-6.02442e-05
-0.000443402
-6.2711e-05
-0.000434306
-6.50693e-05
-0.000424909
-6.73139e-05
-0.000415183
-6.94953e-05
-0.000405099
-7.1615e-05
-0.000394654
-7.36095e-05
-0.000383795
-7.55221e-05
-0.000372514
-7.72831e-05
-0.000360741
-7.89174e-05
-0.000348436
-8.03884e-05
-0.000335557
-8.16747e-05
-0.000322071
-8.27478e-05
-0.000308001
-8.35834e-05
-0.000293301
-8.41461e-05
-0.000277981
-8.43962e-05
-0.000262037
-8.43002e-05
-0.000245533
-8.38412e-05
-0.000228522
-8.29896e-05
-0.00021108
-8.17779e-05
-0.000193317
-8.02064e-05
-0.000175343
-7.83234e-05
-0.000157301
-7.62032e-05
-0.000139299
-7.39347e-05
-0.0001215
-7.15457e-05
-0.000104186
-6.89399e-05
-8.76936e-05
-6.60158e-05
-7.18692e-05
-6.33733e-05
-5.49752e-05
-6.36118e-05
-3.4595e-05
-7.02453e-05
-1.24511e-05
-7.83749e-05
-5.53029e-05
-8.79667e-06
1.14499e-05
4.08842e-06
-0.000117336
2.62829e-05
-0.000163817
5.16498e-05
-0.000163997
7.60784e-05
-0.000144606
9.82552e-05
-0.000124207
0.000119433
-0.000112853
0.000141748
-0.000112199
0.000166835
-0.000118818
0.000195202
-0.000127638
0.000226195
-0.000134304
0.000258305
-0.000136147
0.00028962
-0.000132209
0.000318325
-0.000122895
0.000343078
-0.00010944
0.00036316
-9.33609e-05
0.000378413
-7.60679e-05
0.000389066
-5.86646e-05
0.000395577
-4.19408e-05
0.000398494
-2.64027e-05
0.000398382
-1.23334e-05
0.000395731
1.89258e-07
0.000391017
1.10959e-05
0.00038469
2.03997e-05
0.000377031
2.83643e-05
0.000368292
3.50965e-05
0.000358702
4.07453e-05
0.000348416
4.5498e-05
0.000337558
4.94865e-05
0.000326229
5.28418e-05
0.00031449
5.57018e-05
0.000302391
5.81746e-05
0.000289984
6.03432e-05
0.000277298
6.22995e-05
0.000264358
6.41115e-05
0.000251195
6.5828e-05
0.000237838
6.75039e-05
0.000224319
6.91749e-05
0.000210668
7.08677e-05
0.000196914
7.25987e-05
0.000183087
7.43763e-05
0.000169218
7.6193e-05
0.000155337
7.80337e-05
0.000141452
7.98833e-05
0.000127566
8.17245e-05
0.000113649
8.35439e-05
9.96951e-05
8.52827e-05
8.56632e-05
8.69482e-05
7.15165e-05
8.8515e-05
5.72275e-05
8.99674e-05
4.27669e-05
9.12935e-05
2.81126e-05
9.24882e-05
1.32464e-05
9.35514e-05
-1.84544e-06
9.44885e-05
-1.71732e-05
9.53035e-05
-3.27287e-05
9.60121e-05
-4.85007e-05
9.662e-05
-6.44669e-05
9.71297e-05
-8.05861e-05
9.75475e-05
-9.68549e-05
9.7873e-05
-0.000113235
9.81067e-05
-0.000129683
9.82304e-05
-0.000146187
9.82637e-05
-0.000162724
9.81917e-05
-0.000179264
9.80012e-05
-0.000195767
9.76857e-05
-0.000212229
9.7262e-05
-0.000228612
9.67013e-05
-0.000244901
9.60095e-05
-0.000261066
9.51801e-05
-0.000277088
9.42161e-05
-0.000292928
9.31037e-05
-0.000308581
9.18444e-05
-0.000324013
9.04353e-05
-0.000339201
8.88824e-05
-0.000354123
8.71815e-05
-0.000368757
8.53332e-05
-0.000383082
8.3346e-05
-0.000397065
8.11938e-05
-0.000410694
7.89099e-05
-0.000423943
7.64901e-05
-0.000436788
7.39391e-05
-0.000449205
7.12572e-05
-0.000461167
6.84578e-05
-0.00047265
6.55457e-05
-0.000483619
6.25201e-05
-0.000494045
5.94035e-05
-0.000503893
5.6196e-05
-0.000513156
5.29209e-05
-0.000521774
4.95639e-05
-0.000529721
4.61524e-05
-0.000536951
4.26832e-05
-0.000543421
3.91737e-05
-0.000549083
3.56304e-05
-0.000553919
3.20739e-05
-0.000557852
2.84799e-05
-0.000560841
2.4861e-05
-0.000562825
2.11976e-05
-0.000563792
1.7495e-05
-0.000563704
1.36975e-05
-0.00056256
9.77554e-06
-0.000560411
5.68164e-06
-0.00055737
1.4062e-06
-0.000553528
-3.09525e-06
-0.000548999
-7.83126e-06
-0.000543915
-1.27619e-05
-0.00053841
-1.78453e-05
-0.00053262
-2.30086e-05
-0.000526629
-2.81979e-05
-0.000520499
-3.33334e-05
-0.000514239
-3.83296e-05
-0.00050782
-4.31209e-05
-0.000501181
-4.76545e-05
-0.000494249
-5.19067e-05
-0.000486969
-5.58617e-05
-0.000479297
-5.95328e-05
-0.000471233
-6.29318e-05
-0.000462774
-6.61016e-05
-0.000453964
-6.90547e-05
-0.000444848
-7.18267e-05
-0.000435457
-7.44603e-05
-0.000425813
-7.69578e-05
-0.000415972
-7.93364e-05
-0.000405981
-8.16062e-05
-0.000395804
-8.37864e-05
-0.000385462
-8.58642e-05
-0.000374903
-8.78419e-05
-0.000364112
-8.9708e-05
-0.000353051
-9.14498e-05
-0.000341678
-9.30476e-05
-0.000329942
-9.44843e-05
-0.000317788
-9.57371e-05
-0.000305164
-9.67704e-05
-0.000292009
-9.75514e-05
-0.000278265
-9.80438e-05
-0.000263894
-9.82124e-05
-0.000248836
-9.80469e-05
-0.000233095
-9.75189e-05
-0.000216654
-9.66477e-05
-0.000199535
-9.54428e-05
-0.000181779
-9.39583e-05
-0.000163433
-9.22809e-05
-0.000144639
-9.034e-05
-0.000125645
-8.79338e-05
-0.000106722
-8.49388e-05
-8.74699e-05
-8.26255e-05
-6.61876e-05
-8.48942e-05
-4.1284e-05
-9.51489e-05
-1.547e-05
-0.000104189
-7.07729e-05
-1.34022e-05
2.48521e-05
-7.85912e-06
-0.000122879
7.79594e-06
-0.000179472
2.92062e-05
-0.000185408
5.07921e-05
-0.000166192
7.17601e-05
-0.000145175
9.4035e-05
-0.000135128
0.000120087
-0.00013825
0.000151199
-0.00014993
0.000187211
-0.00016365
0.000226678
-0.000173771
0.000267348
-0.000176818
0.000306609
-0.000171469
0.000341934
-0.00015822
0.000371349
-0.000138855
0.000393854
-0.000115865
0.000409492
-9.17059e-05
0.000418965
-6.81379e-05
0.000423238
-4.62137e-05
0.0004233
-2.64644e-05
0.000420049
-9.08294e-06
0.000414229
6.00997e-06
0.000406586
1.87381e-05
0.000397505
2.94809e-05
0.000387396
3.84737e-05
0.000376543
4.59495e-05
0.000365127
5.21614e-05
0.00035331
5.73145e-05
0.000341202
6.15947e-05
0.000328853
6.51913e-05
0.00031631
6.82441e-05
0.000303616
7.08688e-05
0.000290785
7.31743e-05
0.000277836
7.52488e-05
0.000264778
7.7169e-05
0.000251608
7.89976e-05
0.000238335
8.07773e-05
0.000224979
8.25306e-05
0.000211536
8.43113e-05
0.000198017
8.61174e-05
0.000184437
8.79558e-05
0.000170789
8.98415e-05
0.000157079
9.17435e-05
0.0001433
9.36627e-05
0.000129452
9.55717e-05
0.000115538
9.74581e-05
0.000101521
9.93002e-05
8.73841e-05
0.000101085
7.31094e-05
0.00010279
5.86744e-05
0.000104402
4.40587e-05
0.000105909
2.92423e-05
0.000107305
1.42137e-05
0.00010858
-1.03469e-06
0.000109737
-1.65104e-05
0.000110779
-3.22013e-05
0.000111703
-4.80948e-05
0.000112514
-6.41784e-05
0.000113213
-8.04288e-05
0.000113798
-9.68216e-05
0.000114266
-0.000113336
0.000114621
-0.000129952
0.000114847
-0.000146635
0.000114947
-0.000163361
0.000114917
-0.000180103
0.000114744
-0.000196846
0.000114429
-0.000213553
0.000113969
-0.0002302
0.000113348
-0.000246762
0.000112572
-0.000263216
0.000111634
-0.000279544
0.000110544
-0.000295698
0.000109257
-0.000311665
0.000107811
-0.000327426
0.000106196
-0.000342948
0.000104405
-0.000358205
0.000102439
-0.00037317
0.000100298
-0.000387822
9.79984e-05
-0.000402135
9.55064e-05
-0.000416078
9.28529e-05
-0.000429626
9.00381e-05
-0.000442751
8.70641e-05
-0.00045543
8.39359e-05
-0.000467628
8.06563e-05
-0.000479314
7.7232e-05
-0.000490476
7.3682e-05
-0.000501068
6.99953e-05
-0.000511061
6.61892e-05
-0.000520412
6.22714e-05
-0.000529096
5.82483e-05
-0.000537072
5.41277e-05
-0.000544323
4.9935e-05
-0.000550799
4.56493e-05
-0.000556463
4.12943e-05
-0.00056126
3.68711e-05
-0.000565164
3.23834e-05
-0.00056814
2.78373e-05
-0.000570164
2.32213e-05
-0.000571198
1.85291e-05
-0.000571246
1.37458e-05
-0.000570321
8.85042e-06
-0.000568475
3.83579e-06
-0.000565754
-1.31458e-06
-0.000562244
-6.60585e-06
-0.000558052
-1.20229e-05
-0.000553262
-1.75523e-05
-0.000547956
-2.31513e-05
-0.000542199
-2.8765e-05
-0.000536045
-3.43524e-05
-0.00052956
-3.98179e-05
-0.000522752
-4.51377e-05
-0.000515616
-5.02565e-05
-0.000508156
-5.51146e-05
-0.000500367
-5.96958e-05
-0.00049224
-6.39893e-05
-0.000483781
-6.79919e-05
-0.000474978
-7.17341e-05
-0.000465863
-7.52167e-05
-0.000456444
-7.84743e-05
-0.000446735
-8.1535e-05
-0.000436771
-8.44244e-05
-0.000426584
-8.71451e-05
-0.000416202
-8.97181e-05
-0.000405636
-9.21719e-05
-0.000394909
-9.45143e-05
-0.000384039
-9.67336e-05
-0.000373037
-9.88442e-05
-0.000361887
-0.000100858
-0.000350578
-0.000102758
-0.00033908
-0.000104546
-0.00032738
-0.000106184
-0.000315432
-0.000107685
-0.000303189
-0.000109014
-0.000290578
-0.000110162
-0.000277528
-0.000111094
-0.000263988
-0.000111752
-0.000249884
-0.000112151
-0.000235118
-0.000112285
-0.000219676
-0.00011209
-0.000203491
-0.000111627
-0.000186518
-0.000110932
-0.000168758
-0.000110041
-0.000150249
-0.000108849
-0.000131134
-0.000107048
-0.000111516
-0.000104557
-9.10736e-05
-0.000103068
-6.87165e-05
-0.000107251
-4.33948e-05
-0.000120471
-1.71556e-05
-0.000130428
-8.79285e-05
-1.91393e-05
4.39913e-05
-2.18844e-05
-0.000120134
-1.17787e-05
-0.000189577
2.77702e-06
-0.000199963
1.55392e-05
-0.000178954
3.05765e-05
-0.000160212
5.23814e-05
-0.000156933
8.42763e-05
-0.000170145
0.000126319
-0.000191973
0.000176383
-0.000213714
0.000230528
-0.000227916
0.000284336
-0.000230626
0.000334123
-0.000221256
0.000377337
-0.000201434
0.0004121
-0.000173618
0.000437173
-0.000140938
0.000452556
-0.00010709
0.000459565
-7.51461e-05
0.00046005
-4.66992e-05
0.000455742
-2.21562e-05
0.000447991
-1.33207e-06
0.000437947
1.60536e-05
0.000426383
3.03026e-05
0.000413825
4.20389e-05
0.000400711
5.15878e-05
0.000387301
5.9359e-05
0.000373773
6.56901e-05
0.000360246
7.08413e-05
0.000346759
7.50816e-05
0.000333348
7.86018e-05
0.000320023
8.15695e-05
0.000306762
8.41298e-05
0.000293556
8.63803e-05
0.00028037
8.84349e-05
0.000267184
9.03548e-05
0.000253983
9.21986e-05
0.000240749
9.40116e-05
0.00022745
9.5829e-05
0.000214099
9.76623e-05
0.000200672
9.95444e-05
0.00018717
0.000101458
0.000173585
0.000103426
0.000159908
0.000105421
0.000146139
0.000107431
0.000132258
0.000109453
0.000118259
0.000111458
0.000104125
0.000113434
8.98475e-05
0.000115363
7.54044e-05
0.000117233
6.07718e-05
0.000119035
4.59439e-05
0.000120737
3.09028e-05
0.000122346
1.56492e-05
0.000123834
1.70581e-07
0.000125216
-1.55282e-05
0.000126478
-3.14432e-05
0.000127618
-4.7565e-05
0.000128635
-6.38715e-05
0.00012952
-8.03573e-05
0.000130284
-9.69909e-05
0.000130899
-0.000113748
0.000131378
-0.000130609
0.000131708
-0.000147554
0.000131892
-0.000164548
0.000131911
-0.000181579
0.000131775
-0.000198617
0.000131467
-0.000215625
0.000130976
-0.000232587
0.00013031
-0.000249473
0.000129458
-0.000266261
0.000128422
-0.000282903
0.000127186
-0.000299399
0.000125753
-0.000315711
0.000124123
-0.000331807
0.000122293
-0.000347664
0.000120262
-0.000363253
0.000118028
-0.000378552
0.000115596
-0.00039352
0.000112967
-0.000408137
0.000110123
-0.000422375
0.000107091
-0.000436208
0.000103871
-0.000449605
0.000100461
-0.000462537
9.68676e-05
-0.000474975
9.30951e-05
-0.000486886
8.91427e-05
-0.000498237
8.5033e-05
-0.000509003
8.07613e-05
-0.000519154
7.63397e-05
-0.000528651
7.17688e-05
-0.000537464
6.70613e-05
-0.000545563
6.22272e-05
-0.000552899
5.72701e-05
-0.000559448
5.21985e-05
-0.000565176
4.7023e-05
-0.000570044
4.17384e-05
-0.000574026
3.63658e-05
-0.000577091
3.09026e-05
-0.000579216
2.5346e-05
-0.000580381
1.96937e-05
-0.000580587
1.39518e-05
-0.000579851
8.11436e-06
-0.0005782
2.18482e-06
-0.000575679
-3.83492e-06
-0.000572347
-9.93765e-06
-0.000568276
-1.60946e-05
-0.000563527
-2.23007e-05
-0.000558194
-2.84848e-05
-0.000552336
-3.46232e-05
-0.00054601
-4.06776e-05
-0.00053925
-4.65782e-05
-0.000532094
-5.22935e-05
-0.000524596
-5.77547e-05
-0.000516739
-6.29719e-05
-0.000508514
-6.79203e-05
-0.000499929
-7.25752e-05
-0.000490986
-7.69347e-05
-0.000481707
-8.10131e-05
-0.0004721
-8.48232e-05
-0.000462172
-8.8403e-05
-0.000451953
-9.17537e-05
-0.000441472
-9.49051e-05
-0.000430743
-9.78742e-05
-0.000419783
-0.000100678
-0.000408614
-0.000103341