/*--------------------------------*- C++ -*----------------------------------*\
| =========                 |                                                 |
| \\      /  F ield         | OpenFOAM: The Open Source CFD Toolbox           |
|  \\    /   O peration     | Version:  v2006                                 |
|   \\  /    A nd           | Website:  www.openfoam.com                      |
|    \\/     M anipulation  |                                                 |
\*---------------------------------------------------------------------------*/
FoamFile
{
    version     2.0;
    format      ascii;
    class       surfaceScalarField;
    location    "5.7";
    object      alphaPhi0.water;
}
// * * * * * * * * * * * * * * * * * * * * * * * * * * * * * * * * * * * * * //

dimensions      [0 3 -1 0 0 0 0];
oriented        oriented;


internalField   nonuniform List<scalar> 
104500
(
-1.68633e-05
1.68633e-05
-1.93864e-05
2.52308e-06
-2.48307e-05
5.44429e-06
-3.3499e-05
8.66837e-06
-4.2977e-05
9.47801e-06
-5.25057e-05
9.5287e-06
-6.20562e-05
9.5505e-06
-7.17251e-05
9.66883e-06
-8.15641e-05
9.83904e-06
-9.15935e-05
1.00294e-05
-0.000101828
1.02344e-05
-0.000112284
1.04566e-05
-0.000122978
1.06932e-05
-0.000133925
1.09471e-05
-0.000145141
1.12161e-05
-0.000156643
1.15023e-05
-0.000168441
1.17979e-05
-0.000180552
1.21108e-05
-0.000192987
1.24347e-05
-0.000205758
1.27713e-05
-0.000218878
1.31202e-05
-0.000232356
1.34784e-05
-0.000246202
1.38458e-05
-0.000260426
1.4224e-05
-0.000275033
1.4607e-05
-0.00029003
1.49971e-05
-0.000305431
1.54004e-05
-0.000321235
1.58044e-05
-0.000337449
1.6214e-05
-0.000354074
1.66254e-05
-0.000371119
1.70449e-05
-0.000388589
1.74696e-05
-0.000406486
1.7897e-05
-0.000424815
1.83287e-05
-0.00044358
1.87655e-05
-0.00046279
1.92094e-05
-0.000482453
1.96635e-05
-0.000502581
2.01285e-05
-0.000523189
2.06076e-05
-0.000544282
2.10931e-05
-0.000565837
2.15553e-05
-0.000587797
2.19594e-05
-0.000610099
2.23022e-05
-0.000632698
2.25994e-05
-0.000655557
2.28588e-05
-0.000678646
2.30884e-05
-0.000701937
2.32917e-05
-0.000725401
2.34633e-05
-0.000749004
2.36033e-05
-0.000772719
2.37147e-05
-0.000796507
2.37884e-05
-0.000820332
2.38248e-05
-0.000844141
2.38088e-05
-0.000867838
2.36974e-05
-0.000891274
2.3436e-05
-0.000914275
2.30012e-05
-0.000936719
2.24434e-05
-0.000958588
2.18694e-05
-0.000979962
2.13734e-05
-0.00100095
2.09914e-05
-0.00102165
2.0698e-05
-0.00104211
2.04542e-05
-0.00106233
2.02277e-05
-0.00108234
2.00046e-05
-0.00110212
1.97791e-05
-0.00112167
1.95488e-05
-0.00114097
1.93078e-05
-0.00116003
1.90548e-05
-0.00117882
1.87922e-05
-0.00119734
1.8522e-05
-0.00121558
1.82382e-05
-0.00123352
1.79439e-05
-0.00125116
1.76396e-05
-0.00126849
1.73274e-05
-0.0012855
1.70052e-05
-0.00130217
1.66731e-05
-0.0013185
1.63304e-05
-0.00133448
1.5977e-05
-0.00135009
1.56134e-05
-0.00136533
1.52408e-05
-0.0013802
1.48691e-05
-0.00139472
1.45228e-05
-0.00140896
1.42327e-05
-0.00142298
1.40211e-05
-0.00143686
1.38856e-05
-0.00145066
1.37989e-05
-0.00146438
1.37234e-05
-0.00147801
1.36288e-05
-0.00149151
1.34998e-05
-0.00150485
1.33329e-05
-0.00151798
1.31291e-05
-0.00153087
1.28909e-05
-0.00154349
1.2622e-05
-0.00155582
1.23272e-05
-0.00156783
1.20123e-05
-0.00157951
1.16829e-05
-0.00159085
1.13439e-05
-0.00160185
1.0999e-05
-0.0016125
1.06509e-05
-0.00162281
1.03012e-05
-0.00163276
9.95094e-06
-0.00164236
9.601e-06
-0.00165161
9.25214e-06
-0.00166052
8.90519e-06
-0.00166908
8.56111e-06
-0.0016773
8.22081e-06
-0.00168518
7.88507e-06
-0.00169274
7.55469e-06
-0.00169997
7.23057e-06
-0.00170688
6.91362e-06
-0.00171349
6.60451e-06
-0.00171979
6.3037e-06
-0.0017258
6.0115e-06
-0.00173153
5.72821e-06
-0.00173698
5.45403e-06
-0.00174217
5.18896e-06
-0.0017471
4.93278e-06
-0.00175179
4.68505e-06
-0.00175623
4.44525e-06
-0.00176045
4.21277e-06
-0.00176443
3.98707e-06
-0.0017682
3.76764e-06
-0.00177176
3.55419e-06
-0.0017751
3.34687e-06
-0.00177825
3.14748e-06
-0.00178121
2.95481e-06
-0.00178397
2.76368e-06
-0.00178654
2.5753e-06
-0.00178894
2.39099e-06
-0.00179115
2.21156e-06
-0.00179318
2.03768e-06
-0.00179506
1.87079e-06
-0.00179677
1.71136e-06
-0.00179833
1.55878e-06
-0.00179973
1.4012e-06
-0.00180097
1.24764e-06
-0.00180207
1.0992e-06
-0.00180303
9.55068e-07
-0.00180384
8.14486e-07
-0.00180452
6.77063e-07
-0.00180506
5.42596e-07
-0.00180547
4.10853e-07
-0.00180576
2.81545e-07
-0.00180591
1.53835e-07
-0.00180593
2.35063e-08
-0.00180583
-9.86698e-08
-0.00180562
-2.10909e-07
-0.0018053
-3.23171e-07
-0.00180487
-4.34713e-07
-0.00180432
-5.44874e-07
-0.00180367
-6.53591e-07
-0.00180291
-7.60868e-07
-0.00180204
-8.66726e-07
-0.00180107
-9.71184e-07
-0.00179999
-1.07432e-06
-0.00179882
-1.17629e-06
-0.00179754
-1.27725e-06
-0.00179616
-1.37738e-06
-0.00179469
-1.47657e-06
-0.00179311
-1.57462e-06
-0.00179144
-1.67205e-06
-0.00178967
-1.77043e-06
-0.0017878
-1.87219e-06
-0.00178582
-1.98127e-06
-0.00178371
-2.10431e-06
-0.00178146
-2.25198e-06
-0.00177902
-2.43872e-06
-0.00177634
-2.67764e-06
-0.00177337
-2.97178e-06
-0.00177006
-3.30835e-06
-0.0017664
-3.6605e-06
-0.00176241
-3.99631e-06
-0.00175812
-4.28933e-06
-0.00175359
-4.52476e-06
-0.00174889
-4.69905e-06
-0.00174408
-4.81584e-06
-0.0017392
-4.88183e-06
-0.00173429
-4.90409e-06
-0.0017294
-4.8888e-06
-0.00172456
-4.84033e-06
-0.0017198
-4.76299e-06
-0.00171514
-4.66096e-06
-0.0017106
-4.53848e-06
-0.0017062
-4.40011e-06
-0.00170195
-4.25072e-06
-0.00169785
-4.09513e-06
-0.00169392
-3.93788e-06
-0.00169013
-3.78372e-06
-0.00168649
-3.63961e-06
-0.00168297
-3.51813e-06
-0.00167953
-3.44092e-06
-0.00167609
-3.43972e-06
-0.00167254
-3.55223e-06
-0.00166873
-3.81174e-06
-0.0016645
-4.23302e-06
-0.0016597
-4.79973e-06
-0.00165424
-5.46e-06
-0.0016481
-6.13375e-06
-0.00164137
-6.73045e-06
-0.0016342
-7.17166e-06
-0.00162679
-7.41011e-06
-0.00161935
-7.43907e-06
-0.00161206
-7.28969e-06
-0.00160504
-7.01819e-06
-0.00159836
-6.68859e-06
-0.001592
-6.3567e-06
-0.00158594
-6.06018e-06
-0.00158012
-5.81621e-06
-0.0015745
-5.62549e-06
-0.00156902
-5.47954e-06
-0.00156365
-5.3678e-06
-0.00155837
-5.28232e-06
-0.00155315
-5.21932e-06
-0.00154797
-5.17851e-06
-0.00154281
-5.16119e-06
-0.00153764
-5.16851e-06
-0.00153244
-5.20036e-06
-0.00152718
-5.25509e-06
-0.00152185
-5.32993e-06
-0.00151643
-5.42161e-06
-0.00151091
-5.52695e-06
-0.00150526
-5.6433e-06
-0.00149949
-5.76854e-06
-0.00149359
-5.9013e-06
-0.00148755
-6.04098e-06
-0.00148136
-6.18684e-06
-0.00147503
-6.33811e-06
-0.00146853
-6.49402e-06
-0.00146188
-6.65393e-06
-0.00145506
-6.81726e-06
-0.00144808
-6.98358e-06
-0.00144093
-7.15246e-06
-0.0014336
-7.32355e-06
-0.00142611
-7.49643e-06
-0.00141843
-7.67077e-06
-0.00141059
-7.84623e-06
-0.00140257
-8.02255e-06
-0.00139437
-8.19948e-06
-0.00138599
-8.37679e-06
-0.00137744
-8.55425e-06
-0.0013687
-8.73162e-06
-0.0013598
-8.90856e-06
-0.00135071
-9.08475e-06
-0.00134145
-9.2598e-06
-0.00133202
-9.43339e-06
-0.00132241
-9.60516e-06
-0.00131264
-9.77472e-06
-0.0013027
-9.94161e-06
-0.00129259
-1.01054e-05
-0.00128233
-1.02654e-05
-0.0012719
-1.04213e-05
-0.00126133
-1.05723e-05
-0.00125061
-1.07178e-05
-0.00123976
-1.08571e-05
-0.00122877
-1.09894e-05
-0.00121765
-1.11138e-05
-0.00120642
-1.12292e-05
-0.00119509
-1.13343e-05
-0.00118366
-1.14277e-05
-0.00117215
-1.15074e-05
-0.00116058
-1.15714e-05
-0.00114897
-1.16172e-05
-0.00113732
-1.16418e-05
-0.00112568
-1.16418e-05
-0.00111407
-1.1613e-05
-0.00110252
-1.15506e-05
-0.00109107
-1.14489e-05
-0.00107977
-1.1301e-05
-0.00106867
-1.10992e-05
-0.00105783
-1.0835e-05
-0.00104734
-1.04988e-05
-0.00103725
-1.00811e-05
-0.00102768
-9.5745e-06
-0.00101871
-8.97349e-06
-0.00101046
-8.24915e-06
-0.00100305
-7.40804e-06
-0.000996591
-6.45872e-06
-0.000991181
-5.41019e-06
-0.000986909
-4.27228e-06
-0.000983854
-3.05465e-06
-0.000982087
-1.76733e-06
-0.000981666
-4.20684e-07
-0.000982585
9.19319e-07
-0.000984795
2.20959e-06
-0.000988215
3.41992e-06
-0.000992679
4.46478e-06
-0.000997935
5.25562e-06
-0.00100366
5.72565e-06
-0.00100951
5.85228e-06
-0.00101517
5.65998e-06
-0.00102037
5.19681e-06
-0.00102487
4.49828e-06
-0.00102842
3.55066e-06
-0.00103069
2.27313e-06
-0.00103131
6.22747e-07
-0.00103001
-1.30685e-06
-0.00102665
-3.36108e-06
-0.00102132
-5.32211e-06
-0.00101434
-6.98519e-06
-0.00100614
-8.20299e-06
-0.000997196
-8.93997e-06
-0.000987925
-9.27122e-06
-0.000978585
-9.34014e-06
-0.000969282
-9.30285e-06
-0.000959983
-9.29903e-06
-0.000950589
-9.39441e-06
-0.000940973
-9.61539e-06
-0.000931013
-9.96014e-06
-0.000920601
-1.04118e-05
-0.000909664
-1.09379e-05
-0.000898153
-1.15101e-05
-0.000886047
-1.21062e-05
-0.000873335
-1.27125e-05
-0.000860009
-1.33261e-05
-0.000846056
-1.39526e-05
-0.000831465
-1.45908e-05
-0.000816232
-1.52329e-05
-0.000800347
-1.58856e-05
-0.000783803
-1.65436e-05
-0.000766597
-1.72064e-05
-0.000748726
-1.78706e-05
-0.000730191
-1.85351e-05
-0.000711003
-1.91878e-05
-0.000691163
-1.98407e-05
-0.000670681
-2.0482e-05
-0.000649566
-2.11148e-05
-0.000627828
-2.17381e-05
-0.000605475
-2.23528e-05
-0.000582529
-2.2946e-05
-0.000559004
-2.35248e-05
-0.000534917
-2.40867e-05
-0.000510286
-2.46311e-05
-0.000485126
-2.51605e-05
-0.000459461
-2.56642e-05
-0.000433317
-2.61441e-05
-0.000406715
-2.66021e-05
-0.000379677
-2.70379e-05
-0.000352226
-2.7451e-05
-0.000324388
-2.78382e-05
-0.000296194
-2.81942e-05
-0.000267672
-2.8522e-05
-0.00023885
-2.88223e-05
-0.000209759
-2.90908e-05
-0.000180442
-2.93166e-05
-0.000150964
-2.94783e-05
-0.000121293
-2.96714e-05
-9.14317e-05
-2.98609e-05
-5.97731e-05
-3.16586e-05
-2.55584e-05
-3.42147e-05
-2.55584e-05
-2.31368e-05
4.00001e-05
-3.1601e-05
1.09873e-05
-4.36976e-05
1.75409e-05
-5.88942e-05
2.38649e-05
-7.48624e-05
2.54462e-05
-9.07233e-05
2.53897e-05
-0.00010653
2.53576e-05
-0.000122389
2.55271e-05
-0.000138341
2.57916e-05
-0.000154396
2.60839e-05
-0.000170552
2.63906e-05
-0.000186817
2.67212e-05
-0.000203197
2.70735e-05
-0.000219699
2.74493e-05
-0.000236329
2.78457e-05
-0.000253088
2.82612e-05
-0.000269985
2.86956e-05
-0.00028702
2.91455e-05
-0.000304198
2.96125e-05
-0.000321519
3.00928e-05
-0.000338986
3.05864e-05
-0.000356598
3.10908e-05
-0.000374359
3.16065e-05
-0.000392263
3.21284e-05
-0.000410315
3.2659e-05
-0.00042851
3.31918e-05
-0.000446835
3.3726e-05
-0.000465298
3.42675e-05
-0.000483886
3.48017e-05
-0.000502598
3.53369e-05
-0.000521422
3.58697e-05
-0.000540352
3.63995e-05
-0.000559378
3.69224e-05
-0.000578485
3.74357e-05
-0.000597659
3.794e-05
-0.000616883
3.84332e-05
-0.000636136
3.89161e-05
-0.000655392
3.93847e-05
-0.000674622
3.98384e-05
-0.000693808
4.02791e-05
-0.000712961
4.07074e-05
-0.000732122
4.11209e-05
-0.000751341
4.15208e-05
-0.00077065
4.19091e-05
-0.00079007
4.22779e-05
-0.000809608
4.26267e-05
-0.000829272
4.29561e-05
-0.000849069
4.32602e-05
-0.000869002
4.35365e-05
-0.000889077
4.37895e-05
-0.000909301
4.4012e-05
-0.000929677
4.4201e-05
-0.000950221
4.43528e-05
-0.000970979
4.44553e-05
-0.00099204
4.4497e-05
-0.00101351
4.44732e-05
-0.00103546
4.43898e-05
-0.00105785
4.42656e-05
-0.00108061
4.41256e-05
-0.00110359
4.39783e-05
-0.00112672
4.38274e-05
-0.00114994
4.36668e-05
-0.0011732
4.34906e-05
-0.0011965
4.33011e-05
-0.00121981
4.30898e-05
-0.00124311
4.28555e-05
-0.00126641
4.26014e-05
-0.00128968
4.23239e-05
-0.00131291
4.20248e-05
-0.00133609
4.17045e-05
-0.00135921
4.13606e-05
-0.00138226
4.09955e-05
-0.00140523
4.06083e-05
-0.0014281
4.01973e-05
-0.00145086
3.9765e-05
-0.0014735
3.93127e-05
-0.00149601
3.88363e-05
-0.00151837
3.83358e-05
-0.00154056
3.78114e-05
-0.00156259
3.72627e-05
-0.00158441
3.66931e-05
-0.001606
3.61107e-05
-0.00162729
3.55277e-05
-0.00164823
3.49557e-05
-0.00166874
3.44005e-05
-0.0016888
3.386e-05
-0.00170841
3.33263e-05
-0.00172757
3.27898e-05
-0.00174631
3.22428e-05
-0.00176466
3.16805e-05
-0.00178263
3.10998e-05
-0.00180024
3.04993e-05
-0.00181749
2.98789e-05
-0.00183441
2.92392e-05
-0.00185098
2.85817e-05
-0.0018672
2.79081e-05
-0.00188308
2.72203e-05
-0.0018986
2.65203e-05
-0.00191376
2.58095e-05
-0.00192855
2.50891e-05
-0.00194295
2.436e-05
-0.00195698
2.36232e-05
-0.0019706
2.28797e-05
-0.00198383
2.21302e-05
-0.00199664
2.13755e-05
-0.00200904
2.06166e-05
-0.00202101
1.98542e-05
-0.00203254
1.90892e-05
-0.00204363
1.83222e-05
-0.00205428
1.75542e-05
-0.00206446
1.67857e-05
-0.00207417
1.60175e-05
-0.00208341
1.525e-05
-0.00209216
1.44839e-05
-0.00210043
1.37197e-05
-0.0021082
1.29577e-05
-0.00211546
1.21983e-05
-0.00212222
1.14417e-05
-0.00212846
1.06882e-05
-0.00213419
9.93801e-06
-0.00213939
9.19132e-06
-0.00214407
8.44837e-06
-0.00214823
7.70941e-06
-0.00215186
6.9747e-06
-0.00215495
6.2446e-06
-0.00215752
5.51917e-06
-0.00215955
4.79824e-06
-0.00216106
4.08198e-06
-0.00216204
3.37011e-06
-0.00216249
2.66065e-06
-0.0021624
1.94955e-06
-0.00216178
1.24909e-06
-0.00216063
5.65093e-07
-0.00215901
-6.42024e-08
-0.00215686
-7.45026e-07
-0.0021542
-1.41213e-06
-0.00215104
-2.06753e-06
-0.00214737
-2.71342e-06
-0.0021432
-3.34861e-06
-0.00213855
-3.97353e-06
-0.00213342
-4.58913e-06
-0.00212782
-5.19444e-06
-0.00212175
-5.78892e-06
-0.00211522
-6.37278e-06
-0.00210825
-6.94531e-06
-0.00210085
-7.50458e-06
-0.00209301
-8.05003e-06
-0.00208475
-8.58275e-06
-0.00207608
-9.10256e-06
-0.00206701
-9.60894e-06
-0.00205757
-1.01014e-05
-0.00204775
-1.05796e-05
-0.00203757
-1.1043e-05
-0.00202705
-1.14912e-05
-0.0020162
-1.19239e-05
-0.00200504
-1.23405e-05
-0.00199357
-1.27406e-05
-0.00198183
-1.31237e-05
-0.00196982
-1.34893e-05
-0.00195755
-1.38371e-05
-0.00194506
-1.41664e-05
-0.00193235
-1.44768e-05
-0.00191946
-1.47678e-05
-0.0019064
-1.50387e-05
-0.00189321
-1.52892e-05
-0.00187995
-1.5519e-05
-0.00186666
-1.5728e-05
-0.00185342
-1.59161e-05
-0.00184031
-1.60834e-05
-0.00182739
-1.62303e-05
-0.00181469
-1.63567e-05
-0.00180222
-1.64623e-05
-0.00178997
-1.65468e-05
-0.00177788
-1.66098e-05
-0.00176593
-1.66512e-05
-0.00175407
-1.6671e-05
-0.00174229
-1.66697e-05
-0.00173054
-1.66479e-05
-0.00171883
-1.66064e-05
-0.00170712
-1.65462e-05
-0.00169541
-1.64685e-05
-0.0016837
-1.63749e-05
-0.00167197
-1.62674e-05
-0.00166022
-1.61484e-05
-0.00164845
-1.60206e-05
-0.00163666
-1.58876e-05
-0.00162484
-1.57534e-05
-0.00161301
-1.56232e-05
-0.00160114
-1.55032e-05
-0.00158926
-1.54013e-05
-0.00157737
-1.53264e-05
-0.00156553
-1.5287e-05
-0.00155379
-1.52889e-05
-0.00154227
-1.53316e-05
-0.0015311
-1.54058e-05
-0.0015204
-1.54922e-05
-0.0015103
-1.55652e-05
-0.00150083
-1.5598e-05
-0.001492
-1.55691e-05
-0.0014837
-1.54674e-05
-0.00147582
-1.52945e-05
-0.00146819
-1.50627e-05
-0.00146069
-1.47915e-05
-0.00145321
-1.45027e-05
-0.00144568
-1.42158e-05
-0.00143809
-1.39447e-05
-0.00143045
-1.36972e-05
-0.0014228
-1.3475e-05
-0.00141514
-1.32759e-05
-0.00140753
-1.30956e-05
-0.00139997
-1.29298e-05
-0.00139247
-1.27756e-05
-0.00138506
-1.26311e-05
-0.00137774
-1.24959e-05
-0.00137054
-1.23698e-05
-0.00136345
-1.22526e-05
-0.00135651
-1.21441e-05
-0.00134972
-1.20436e-05
-0.0013431
-1.19502e-05
-0.00133666
-1.18634e-05
-0.0013304
-1.17828e-05
-0.00132434
-1.17082e-05
-0.00131847
-1.16398e-05
-0.00131279
-1.15778e-05
-0.00130731
-1.15227e-05
-0.00130202
-1.14748e-05
-0.00129692
-1.14346e-05
-0.00129201
-1.14024e-05
-0.00128729
-1.13785e-05
-0.00128274
-1.13632e-05
-0.00127837
-1.13569e-05
-0.00127416
-1.136e-05
-0.00127011
-1.13728e-05
-0.00126621
-1.13957e-05
-0.00126246
-1.1429e-05
-0.00125883
-1.14732e-05
-0.00125532
-1.15286e-05
-0.00125193
-1.15957e-05
-0.00124863
-1.16749e-05
-0.00124542
-1.17666e-05
-0.00124228
-1.18713e-05
-0.0012392
-1.19894e-05
-0.00123616
-1.21211e-05
-0.00123315
-1.22669e-05
-0.00123016
-1.24271e-05
-0.00122716
-1.26019e-05
-0.00122414
-1.27918e-05
-0.00122109
-1.29968e-05
-0.00121798
-1.32172e-05
-0.00121479
-1.3453e-05
-0.00121151
-1.37043e-05
-0.00120811
-1.39711e-05
-0.00120457
-1.42534e-05
-0.00120088
-1.45508e-05
-0.00119701
-1.48631e-05
-0.00119293
-1.51899e-05
-0.00118863
-1.55305e-05
-0.00118408
-1.58842e-05
-0.00117926
-1.62501e-05
-0.00117414
-1.66271e-05
-0.00116869
-1.70139e-05
-0.0011629
-1.74089e-05
-0.00115673
-1.781e-05
-0.00115016
-1.8215e-05
-0.00114315
-1.86208e-05
-0.00113568
-1.90241e-05
-0.00112771
-1.94204e-05
-0.0011192
-1.98046e-05
-0.00111013
-2.01705e-05
-0.00110046
-2.05106e-05
-0.00109014
-2.08161e-05
-0.00107914
-2.10766e-05
-0.00106744
-2.1281e-05
-0.00105499
-2.14169e-05
-0.00104177
-2.14692e-05
-0.00102776
-2.14254e-05
-0.00101294
-2.12782e-05
-0.000997323
-2.10251e-05
-0.000980929
-2.06663e-05
-0.000963778
-2.02054e-05
-0.000945895
-1.96508e-05
-0.000927299
-1.90166e-05
-0.000908049
-1.83302e-05
-0.00088821
-1.76291e-05
-0.000867827
-1.69638e-05
-0.000846969
-1.63927e-05
-0.000825738
-1.59756e-05
-0.000804249
-1.57636e-05
-0.000782606
-1.57909e-05
-0.000760873
-1.60725e-05
-0.000739063
-1.6613e-05
-0.000717194
-1.73711e-05
-0.000695326
-1.83173e-05
-0.000673609
-1.94442e-05
-0.000652279
-2.07067e-05
-0.000631544
-2.20421e-05
-0.00061153
-2.33756e-05
-0.000592257
-2.45943e-05
-0.000573653
-2.55898e-05
-0.000555544
-2.63122e-05
-0.000537725
-2.67582e-05
-0.000520011
-2.69855e-05
-0.000502273
-2.70777e-05
-0.000484463
-2.71137e-05
-0.000466589
-2.71724e-05
-0.000448668
-2.73156e-05
-0.000430761
-2.75221e-05
-0.000412924
-2.77976e-05
-0.000395201
-2.81348e-05
-0.000377625
-2.85136e-05
-0.000360224
-2.89112e-05
-0.00034302
-2.93103e-05
-0.000326037
-2.96955e-05
-0.000309299
-3.00638e-05
-0.000292838
-3.04135e-05
-0.000276682
-3.07468e-05
-0.000260842
-3.10733e-05
-0.000245345
-3.13821e-05
-0.000230214
-3.16748e-05
-0.000215472
-3.19486e-05
-0.000201144
-3.21991e-05
-0.000187262
-3.24171e-05
-0.00017383
-3.26194e-05
-0.000160889
-3.2782e-05
-0.000148447
-3.29236e-05
-0.000136525
-3.30371e-05
-0.000125144
-3.31189e-05
-0.000114343
-3.31542e-05
-0.000104119
-3.31697e-05
-9.44737e-05
-3.31701e-05
-8.54046e-05
-3.31558e-05
-7.69089e-05
-3.31268e-05
-6.89901e-05
-3.30793e-05
-6.16336e-05
-3.30206e-05
-5.48293e-05
-3.29485e-05
-4.85616e-05
-3.28698e-05
-4.28175e-05
-3.27819e-05
-3.75874e-05
-3.26811e-05
-3.28439e-05
-3.25818e-05
-2.85482e-05
-3.24899e-05
-2.46734e-05
-3.23968e-05
-2.11868e-05
-3.23089e-05
-1.80427e-05
-3.22349e-05
-1.51751e-05
-3.21842e-05
-1.25177e-05
-3.21357e-05
-1.01745e-05
-3.20147e-05
-8.26527e-06
-3.17701e-05
-5.89376e-06
-3.40301e-05
2.20372e-07
-4.03288e-05
-2.5338e-05
-2.11419e-05
6.1142e-05
-2.71405e-05
1.69859e-05
-3.63701e-05
2.67705e-05
-4.90182e-05
3.6513e-05
-6.26213e-05
3.90493e-05
-7.61968e-05
3.89651e-05
-8.97058e-05
3.88666e-05
-0.000103274
3.90952e-05
-0.000116957
3.94747e-05
-0.000130777
3.99036e-05
-0.000144742
4.03561e-05
-0.000158861
4.084e-05
-0.000173143
4.13555e-05
-0.000187598
4.19048e-05
-0.000202236
4.24831e-05
-0.000217067
4.30922e-05
-0.000232096
4.37251e-05
-0.000247335
4.43839e-05
-0.000262789
4.50662e-05
-0.000278459
4.57635e-05
-0.000294356
4.64828e-05
-0.00031048
4.72154e-05
-0.000326836
4.79623e-05
-0.00034343
4.87224e-05
-0.000360259
4.94881e-05
-0.000377326
5.02589e-05
-0.000394636
5.10358e-05
-0.000412183
5.18141e-05
-0.000429974
5.25929e-05
-0.000448012
5.33745e-05
-0.000466289
5.41474e-05
-0.000484802
5.49119e-05
-0.000503544
5.56651e-05
-0.000522516
5.64073e-05
-0.000541712
5.71362e-05
-0.000561126
5.78472e-05
-0.000580749
5.85387e-05
-0.00060057
5.9206e-05
-0.000620579
5.98468e-05
-0.000640763
6.0463e-05
-0.000661113
6.10581e-05
-0.000681632
6.16395e-05
-0.000702315
6.22038e-05
-0.000723146
6.27398e-05
-0.00074411
6.32423e-05
-0.000765193
6.37099e-05
-0.000786381
6.41436e-05
-0.000807661
6.45402e-05
-0.000829021
6.48974e-05
-0.00085045
6.52176e-05
-0.000871938
6.55001e-05
-0.00089348
6.57431e-05
-0.000915078
6.59512e-05
-0.000936757
6.61345e-05
-0.000958566
6.63054e-05
-0.00098056
6.64674e-05
-0.00100277
6.6603e-05
-0.00102519
6.66792e-05
-0.00104774
6.66796e-05
-0.00107037
6.6608e-05
-0.00109302
6.64772e-05
-0.00111566
6.63038e-05
-0.00113826
6.60958e-05
-0.00116081
6.58507e-05
-0.0011833
6.55752e-05
-0.00120571
6.52678e-05
-0.00122803
6.49268e-05
-0.00125026
6.45537e-05
-0.00127239
6.41486e-05
-0.00129439
6.37086e-05
-0.00131627
6.32374e-05
-0.00133801
6.27348e-05
-0.0013596
6.21988e-05
-0.00138103
6.16297e-05
-0.0014023
6.10316e-05
-0.00142339
6.04004e-05
-0.00144429
5.9737e-05
-0.00146499
5.90422e-05
-0.0014855
5.83156e-05
-0.00150579
5.75565e-05
-0.00152586
5.67614e-05
-0.00154568
5.59278e-05
-0.00156521
5.50565e-05
-0.0015844
5.4155e-05
-0.00160324
5.32358e-05
-0.00162169
5.23108e-05
-0.00163975
5.13861e-05
-0.00165742
5.04612e-05
-0.00167471
4.95317e-05
-0.00169162
4.85928e-05
-0.00170816
4.76406e-05
-0.00172434
4.66727e-05
-0.00174015
4.56873e-05
-0.00175559
4.46833e-05
-0.00177067
4.36603e-05
-0.00178538
4.26184e-05
-0.00179972
4.15587e-05
-0.00181368
4.04821e-05
-0.00182726
3.93899e-05
-0.00184045
3.82833e-05
-0.00185326
3.71636e-05
-0.00186567
3.60318e-05
-0.00187768
3.48891e-05
-0.00188928
3.37361e-05
-0.00190048
3.25738e-05
-0.00191127
3.14033e-05
-0.00192164
3.02253e-05
-0.00193159
2.90409e-05
-0.00194112
2.78508e-05
-0.00195022
2.66558e-05
-0.00195889
2.5457e-05
-0.00196713
2.42552e-05
-0.00197493
2.30514e-05
-0.00198229
2.18465e-05
-0.00198921
2.06413e-05
-0.00199569
1.94368e-05
-0.00200173
1.82338e-05
-0.00200732
1.70334e-05
-0.00201247
1.58363e-05
-0.00201717
1.46436e-05
-0.00202144
1.34558e-05
-0.00202526
1.2274e-05
-0.00202865
1.10988e-05
-0.00203161
9.93104e-06
-0.00203414
8.77155e-06
-0.00203624
7.62082e-06
-0.00203792
6.47925e-06
-0.00203918
5.34734e-06
-0.00204004
4.22582e-06
-0.0020405
3.11559e-06
-0.00204056
2.01828e-06
-0.00204025
9.3761e-07
-0.00203956
-1.30712e-07
-0.00203844
-1.18131e-06
-0.00203696
-2.22165e-06
-0.00203512
-3.25062e-06
-0.00203293
-4.26075e-06
-0.00203039
-5.25337e-06
-0.00202751
-6.22863e-06
-0.0020243
-7.18589e-06
-0.00202076
-8.12401e-06
-0.00201692
-9.04213e-06
-0.00201276
-9.94076e-06
-0.00200832
-1.0819e-05
-0.00200359
-1.1676e-05
-0.00199858
-1.25108e-05
-0.00199331
-1.3323e-05
-0.00198778
-1.41123e-05
-0.001982
-1.48787e-05
-0.00197599
-1.56221e-05
-0.00196975
-1.6342e-05
-0.00196329
-1.7038e-05
-0.00195662
-1.77099e-05
-0.00194976
-1.83571e-05
-0.0019427
-1.89794e-05
-0.00193547
-1.95765e-05
-0.00192806
-2.01483e-05
-0.00192049
-2.06947e-05
-0.00191276
-2.12158e-05
-0.00190489
-2.17116e-05
-0.00189687
-2.21823e-05
-0.00188872
-2.2628e-05
-0.00188044
-2.30485e-05
-0.00187203
-2.34438e-05
-0.00186351
-2.38128e-05
-0.00185488
-2.41536e-05
-0.00184614
-2.44631e-05
-0.00183732
-2.47383e-05
-0.00182842
-2.49784e-05
-0.00181947
-2.51858e-05
-0.00181046
-2.53656e-05
-0.0018014
-2.55233e-05
-0.00179228
-2.56626e-05
-0.00178311
-2.57844e-05
-0.00177387
-2.58876e-05
-0.00176457
-2.59702e-05
-0.00175521
-2.60305e-05
-0.00174579
-2.60674e-05
-0.00173632
-2.60806e-05
-0.00172679
-2.60704e-05
-0.00171722
-2.60377e-05
-0.00170761
-2.5984e-05
-0.00169797
-2.59112e-05
-0.0016883
-2.58216e-05
-0.0016786
-2.57175e-05
-0.00166889
-2.5602e-05
-0.00165916
-2.54786e-05
-0.00164943
-2.5352e-05
-0.00163971
-2.52275e-05
-0.00163
-2.51107e-05
-0.00162032
-2.50062e-05
-0.00161069
-2.49149e-05
-0.00160115
-2.48326e-05
-0.00159173
-2.47481e-05
-0.00158249
-2.46447e-05
-0.00157348
-2.45028e-05
-0.00156474
-2.43059e-05
-0.00155629
-2.40456e-05
-0.00154814
-2.37251e-05
-0.00154025
-2.3359e-05
-0.00153257
-2.2969e-05
-0.00152506
-2.25779e-05
-0.00151764
-2.22039e-05
-0.00151029
-2.18569e-05
-0.00150297
-2.1538e-05
-0.00149567
-2.12424e-05
-0.0014884
-2.09625e-05
-0.00148119
-2.06915e-05
-0.00147404
-2.04246e-05
-0.00146697
-2.01601e-05
-0.00146001
-1.98983e-05
-0.00145314
-1.964e-05
-0.00144639
-1.93863e-05
-0.00143974
-1.91375e-05
-0.00143322
-1.88937e-05
-0.00142682
-1.86544e-05
-0.00142054
-1.84196e-05
-0.0014144
-1.81892e-05
-0.00140838
-1.79636e-05
-0.0014025
-1.77435e-05
-0.00139676
-1.75297e-05
-0.00139114
-1.73229e-05
-0.00138566
-1.71239e-05
-0.0013803
-1.69336e-05
-0.00137507
-1.67528e-05
-0.00136997
-1.65821e-05
-0.00136498
-1.64224e-05
-0.00136011
-1.62745e-05
-0.00135534
-1.61391e-05
-0.00135069
-1.6017e-05
-0.00134614
-1.59092e-05
-0.00134168
-1.58164e-05
-0.00133732
-1.57395e-05
-0.00133303
-1.56793e-05
-0.00132882
-1.56366e-05
-0.00132469
-1.56124e-05
-0.00132061
-1.56076e-05
-0.00131658
-1.56229e-05
-0.00131259
-1.56593e-05
-0.00130864
-1.57178e-05
-0.00130472
-1.57992e-05
-0.0013008
-1.59043e-05
-0.00129689
-1.60341e-05
-0.00129297
-1.61892e-05
-0.00128902
-1.63704e-05
-0.00128505
-1.65784e-05
-0.00128102
-1.68137e-05
-0.00127694
-1.70769e-05
-0.00127279
-1.73684e-05
-0.00126856
-1.76885e-05
-0.00126422
-1.80375e-05
-0.00125978
-1.84156e-05
-0.00125521
-1.88226e-05
-0.0012505
-1.92583e-05
-0.00124564
-1.97225e-05
-0.00124062
-2.02145e-05
-0.00123541
-2.07336e-05
-0.00123002
-2.1279e-05
-0.00122442
-2.18493e-05
-0.0012186
-2.24432e-05
-0.00121256
-2.30593e-05
-0.00120627
-2.36957e-05
-0.00119973
-2.43503e-05
-0.00119293
-2.50208e-05
-0.00118584
-2.57044e-05
-0.00117847
-2.63978e-05
-0.00117079
-2.70973e-05
-0.0011628
-2.77988e-05
-0.00115447
-2.84976e-05
-0.00114579
-2.91884e-05
-0.00113674
-2.98657e-05
-0.0011273
-3.05232e-05
-0.00111743
-3.11533e-05
-0.0011071
-3.17465e-05
-0.00109627
-3.22925e-05
-0.00108492
-3.27817e-05
-0.00107299
-3.32062e-05
-0.00106045
-3.35613e-05
-0.00104727
-3.38461e-05
-0.00103341
-3.4064e-05
-0.00101884
-3.42225e-05
-0.00100352
-3.43333e-05
-0.000987442
-3.44126e-05
-0.000970591
-3.44805e-05
-0.000952995
-3.45594e-05
-0.000934715
-3.4673e-05
-0.000915847
-3.48439e-05
-0.000896518
-3.50923e-05
-0.000876874
-3.54349e-05
-0.000857061
-3.58858e-05
-0.000837217
-3.64568e-05
-0.000817434
-3.7154e-05
-0.000797772
-3.79793e-05
-0.000778297
-3.89189e-05
-0.000759068
-3.99355e-05
-0.00074014
-4.0971e-05
-0.000721569
-4.19459e-05
-0.000703396
-4.27675e-05
-0.000685621
-4.33648e-05
-0.000668203
-4.37301e-05
-0.000651057
-4.39045e-05
-0.000634058
-4.39844e-05
-0.000617062
-4.4074e-05
-0.000599928
-4.42475e-05
-0.000582569
-4.45314e-05
-0.000564983
-4.49019e-05
-0.000547194
-4.53108e-05
-0.000529272
-4.57197e-05
-0.000511298
-4.61091e-05
-0.000493334
-4.64768e-05
-0.000475431
-4.68148e-05
-0.000457611
-4.71305e-05
-0.000439885
-4.74214e-05
-0.000422267
-4.76811e-05
-0.000404767
-4.79137e-05
-0.000387401
-4.81129e-05
-0.000370194
-4.82801e-05
-0.000353172
-4.84042e-05
-0.000336354
-4.84932e-05
-0.000319762
-4.85405e-05
-0.000303423
-4.85382e-05
-0.000287347
-4.84923e-05
-0.000271571
-4.83957e-05
-0.000256105
-4.82485e-05
-0.000240979
-4.80491e-05
-0.000226222
-4.77936e-05
-0.000211847
-4.7494e-05
-0.000197854
-4.71472e-05
-0.000184262
-4.67623e-05
-0.000171105
-4.63268e-05
-0.000158405
-4.58561e-05
-0.00014618
-4.53521e-05
-0.00013444
-4.48185e-05
-0.000123207
-4.42544e-05
-0.000112481
-4.36738e-05
-0.00010227
-4.30808e-05
-9.2571e-05
-4.24812e-05
-8.33689e-05
-4.18832e-05
-7.46585e-05
-4.12921e-05
-6.64281e-05
-4.07203e-05
-5.86505e-05
-4.01744e-05
-5.12981e-05
-3.96613e-05
-4.4335e-05
-3.91981e-05
-3.7723e-05
-3.87962e-05
-3.14672e-05
-3.83915e-05
-2.57305e-05
-3.77513e-05
-2.01278e-05
-3.73728e-05
-1.28778e-05
-4.12802e-05
-1.56793e-06
-5.16387e-05
-2.6906e-05
-2.0287e-05
8.1429e-05
-2.54295e-05
2.21283e-05
-3.36471e-05
3.49882e-05
-4.5319e-05
4.81848e-05
-5.79344e-05
5.16647e-05
-7.05471e-05
5.15778e-05
-8.31132e-05
5.14328e-05
-9.57588e-05
5.17408e-05
-0.000108546
5.22615e-05
-0.00012149
5.28478e-05
-0.000134603
5.34689e-05
-0.000147891
5.41281e-05
-0.00016137
5.4835e-05
-0.000175051
5.55856e-05
-0.000188943
5.63754e-05
-0.000203062
5.72105e-05
-0.00021741
5.8073e-05
-0.000231998
5.89723e-05
-0.000246827
5.98955e-05
-0.000261919
6.08552e-05
-0.00027727
6.18344e-05
-0.000292889
6.28334e-05
-0.000308779
6.3853e-05
-0.000324942
6.48856e-05
-0.000341384
6.59292e-05
-0.000358106
6.69812e-05
-0.000375108
6.80379e-05
-0.000392389
6.90953e-05
-0.000409944
7.01477e-05
-0.000427774
7.12048e-05
-0.000445875
7.22477e-05
-0.000464242
7.32789e-05
-0.000482879
7.4302e-05
-0.000501777
7.53054e-05
-0.000520931
7.62903e-05
-0.000540337
7.7253e-05
-0.000559989
7.81916e-05
-0.000579887
7.91035e-05
-0.000600028
7.99882e-05
-0.000620408
8.08424e-05
-0.000641013
8.16633e-05
-0.000661823
8.245e-05
-0.000682817
8.3198e-05
-0.000703979
8.39015e-05
-0.000725299
8.45617e-05
-0.000746767
8.51786e-05
-0.000768373
8.57494e-05
-0.000790107
8.62746e-05
-0.000811964
8.67543e-05
-0.000833931
8.71839e-05
-0.000855997
8.75661e-05
-0.000878155
8.7901e-05
-0.000900391
8.81878e-05
-0.000922687
8.84302e-05
-0.000945011
8.86297e-05
-0.000967327
8.87832e-05
-0.00098961
8.8886e-05
-0.00101186
8.89336e-05
-0.0010341
8.89135e-05
-0.00105632
8.88266e-05
-0.00107852
8.86806e-05
-0.00110069
8.8476e-05
-0.00112282
8.82214e-05
-0.00114488
8.79177e-05
-0.00116687
8.75632e-05
-0.00118877
8.71637e-05
-0.00121056
8.67148e-05
-0.00123222
8.62204e-05
-0.00125375
8.56793e-05
-0.00127514
8.50939e-05
-0.00129637
8.44647e-05
-0.00131742
8.37902e-05
-0.0013383
8.30719e-05
-0.00135898
8.23114e-05
-0.00137945
8.15073e-05
-0.00139971
8.06627e-05
-0.00141975
7.97767e-05
-0.00143956
7.88502e-05
-0.00145913
7.78827e-05
-0.00147845
7.68762e-05
-0.00149752
7.58295e-05
-0.00151633
7.47431e-05
-0.00153489
7.3618e-05
-0.0015532
7.24577e-05
-0.00157123
7.12695e-05
-0.00158898
7.00595e-05
-0.00160643
6.88323e-05
-0.00162355
6.75885e-05
-0.00164035
6.63274e-05
-0.0016568
6.50471e-05
-0.00167291
6.37463e-05
-0.00168866
6.2424e-05
-0.00170405
6.10796e-05
-0.00171908
5.97127e-05
-0.00173374
5.83235e-05
-0.00174804
5.69125e-05
-0.00176196
5.54808e-05
-0.00177551
5.40294e-05
-0.00178868
5.25594e-05
-0.00180147
5.10722e-05
-0.00181387
4.9569e-05
-0.00182589
4.80512e-05
-0.00183752
4.65199e-05
-0.00184876
4.49762e-05
-0.00185961
4.34211e-05
-0.00187006
4.1856e-05
-0.00188012
4.0282e-05
-0.00188978
3.87001e-05
-0.00189904
3.71114e-05
-0.0019079
3.5517e-05
-0.00191636
3.39182e-05
-0.00192442
3.2316e-05
-0.00193208
3.07118e-05
-0.00193934
2.91065e-05
-0.0019462
2.75014e-05
-0.00195266
2.58975e-05
-0.00195873
2.4296e-05
-0.00196439
2.26981e-05
-0.00196966
2.11049e-05
-0.00197453
1.95176e-05
-0.00197901
1.79371e-05
-0.0019831
1.63646e-05
-0.00198681
1.48009e-05
-0.00199012
1.32472e-05
-0.00199306
1.17042e-05
-0.00199561
1.01729e-05
-0.00199778
8.65412e-06
-0.00199958
7.14861e-06
-0.00200102
5.6573e-06
-0.00200208
4.18106e-06
-0.00200278