/*--------------------------------*- C++ -*----------------------------------*\
| =========                 |                                                 |
| \\      /  F ield         | OpenFOAM: The Open Source CFD Toolbox           |
|  \\    /   O peration     | Version:  v2006                                 |
|   \\  /    A nd           | Website:  www.openfoam.com                      |
|    \\/     M anipulation  |                                                 |
\*---------------------------------------------------------------------------*/
FoamFile
{
    version     2.0;
    format      ascii;
    class       volScalarField;
    location    "5.7";
    object      p;
}
// * * * * * * * * * * * * * * * * * * * * * * * * * * * * * * * * * * * * * //

dimensions      [1 -1 -2 0 0 0 0];


internalField   nonuniform List<scalar> 
52500
(
30799.2
30799.3
30799.5
30799.9
30800.4
30801
30801.8
30802.6
30803.6
30804.7
30805.9
30807.2
30808.6
30810.2
30811.8
30813.5
30815.4
30817.3
30819.3
30821.4
30823.5
30825.8
30828.1
30830.5
30832.9
30835.4
30837.9
30840.5
30843.2
30845.8
30848.5
30851.2
30854
30856.7
30859.4
30862.2
30864.9
30867.7
30870.4
30873.1
30875.8
30878.4
30881
30883.5
30886
30888.4
30890.8
30893.1
30895.3
30897.4
30899.4
30901.4
30903.2
30905
30906.6
30908.1
30909.5
30910.7
30911.8
30912.8
30913.6
30914.3
30914.8
30915.1
30915.3
30915.3
30915.1
30914.8
30914.2
30913.5
30912.6
30911.4
30910.1
30908.5
30906.8
30904.8
30902.6
30900.1
30897.5
30894.6
30891.4
30888.1
30884.4
30880.6
30876.5
30872.1
30867.5
30862.6
30857.5
30852.1
30846.5
30840.5
30834.4
30827.9
30821.2
30814.2
30807
30799.5
30791.7
30783.7
30775.3
30766.7
30757.9
30748.8
30739.4
30729.7
30719.8
30709.6
30699.1
30688.4
30677.4
30666.2
30654.7
30643
30631
30618.7
30606.3
30593.5
30580.6
30567.3
30553.9
30540.2
30526.4
30512.2
30497.9
30483.4
30468.6
30453.6
30438.5
30423.1
30407.6
30391.8
30375.9
30359.8
30343.5
30327.1
30310.5
30293.7
30276.8
30259.8
30242.6
30225.2
30207.8
30190.2
30172.5
30154.7
30136.8
30118.7
30100.6
30082.5
30064.2
30045.9
30027.5
30009
29990.5
29971.9
29953.3
29934.7
29916
29897.3
29878.6
29859.9
29841.2
29822.5
29803.8
29785.1
29766.5
29747.9
29729.3
29710.8
29692.3
29673.9
29655.5
29637.2
29619.1
29600.9
29582.9
29565
29547.2
29529.5
29511.9
29494.5
29477.1
29459.9
29442.9
29426
29409.3
29392.7
29376.3
29360
29344
29328.1
29312.4
29296.9
29281.7
29266.6
29251.7
29237.1
29222.6
29208.4
29194.5
29180.8
29167.3
29154
29141
29128.3
29115.8
29103.6
29091.6
29080
29068.6
29057.4
29046.6
29036
29025.7
29015.7
29006
28996.6
28987.5
28978.7
28970.2
28962
28954.1
28946.6
28939.3
28932.3
28925.7
28919.3
28913.3
28907.6
28902.2
28897.1
28892.4
28887.9
28883.8
28880
28876.5
28873.3
28870.4
28867.9
28865.6
28863.7
28862.1
28860.7
28859.7
28859
28858.6
28858.5
28858.6
28859.1
28859.9
28860.9
28862.2
28863.8
28865.7
28867.9
28870.3
28872.9
28875.9
28879.1
28882.5
28886.2
28890.1
28894.3
28898.7
28903.3
28908.1
28913.1
28918.4
28923.8
28929.5
28935.3
28941.3
28947.5
28953.8
28960.3
28967
28973.8
28980.7
28987.8
28995
29002.3
29009.8
29017.3
29025
29032.7
29040.5
29048.4
29056.3
29064.3
29072.4
29080.5
29088.6
29096.8
29104.9
29113.1
29121.3
29129.5
29137.7
29145.9
29154.1
29162.2
29170.3
29178.4
29186.4
29194.3
29202.2
29210
29217.7
29225.4
29232.9
29240.4
29247.7
29254.9
29262
29269
29275.9
29282.6
29289.2
29295.7
29302
29308.1
29314.1
29319.9
29325.5
29331
29336.3
29341.4
29346.3
29351
29355.5
29359.8
29363.9
29367.8
29371.5
29375
29378.3
29381.3
29384.1
29386.7
29389.1
29391.2
29393.1
29394.8
29396.2
29397.4
29398.3
29399.1
29399.5
29399.8
30341
30341.2
30341.4
30341.8
30342.3
30342.9
30343.6
30344.5
30345.5
30346.6
30347.8
30349.1
30350.6
30352.1
30353.7
30355.5
30357.3
30359.2
30361.2
30363.3
30365.5
30367.8
30370.1
30372.5
30374.9
30377.5
30380
30382.6
30385.3
30387.9
30390.6
30393.4
30396.1
30398.9
30401.6
30404.4
30407.2
30409.9
30412.6
30415.4
30418
30420.7
30423.3
30425.8
30428.3
30430.8
30433.2
30435.5
30437.7
30439.8
30441.9
30443.8
30445.7
30447.4
30449.1
30450.6
30452
30453.2
30454.4
30455.4
30456.2
30456.9
30457.4
30457.8
30458
30458
30457.8
30457.5
30457
30456.2
30455.3
30454.2
30452.9
30451.3
30449.6
30447.6
30445.4
30443
30440.3
30437.4
30434.3
30430.9
30427.3
30423.5
30419.4
30415
30410.4
30405.5
30400.4
30395
30389.4
30383.5
30377.3
30370.9
30364.2
30357.2
30349.9
30342.4
30334.7
30326.6
30318.3
30309.7
30300.8
30291.7
30282.3
30272.6
30262.7
30252.5
30242
30231.3
30220.3
30209.1
30197.6
30185.9
30173.9
30161.6
30149.1
30136.4
30123.4
30110.2
30096.7
30083
30069.1
30055
30040.7
30026.1
30011.3
29996.4
29981.2
29965.8
29950.2
29934.5
29918.5
29902.4
29886.1
29869.7
29853
29836.3
29819.3
29802.3
29785.1
29767.7
29750.2
29732.6
29714.9
29697.1
29679.2
29661.2
29643.1
29624.9
29606.6
29588.2
29569.8
29551.3
29532.8
29514.2
29495.6
29476.9
29458.2
29439.5
29420.8
29402.1
29383.4
29364.6
29345.9
29327.2
29308.6
29289.9
29271.4
29252.8
29234.3
29215.9
29197.5
29179.2
29161
29142.9
29124.9
29106.9
29089.1
29071.4
29053.8
29036.3
29019
29001.8
28984.7
28967.8
28951
28934.4
28918
28901.8
28885.7
28869.8
28854.1
28838.6
28823.3
28808.2
28793.3
28778.7
28764.2
28750
28736.1
28722.3
28708.8
28695.6
28682.6
28669.8
28657.3
28645.1
28633.1
28621.4
28610
28598.9
28588
28577.4
28567.2
28557.2
28547.5
28538.1
28528.9
28520.1
28511.6
28503.4
28495.5
28487.9
28480.7
28473.7
28467
28460.7
28454.7
28449
28443.6
28438.5
28433.7
28429.3
28425.2
28421.3
28417.8
28414.7
28411.8
28409.2
28407
28405.1
28403.4
28402.1
28401.1
28400.4
28400
28399.9
28400
28400.5
28401.3
28402.3
28403.7
28405.3
28407.2
28409.3
28411.7
28414.4
28417.4
28420.6
28424
28427.7
28431.7
28435.8
28440.2
28444.9
28449.7
28454.8
28460
28465.5
28471.1
28477
28483
28489.2
28495.6
28502.1
28508.8
28515.6
28522.6
28529.7
28536.9
28544.3
28551.7
28559.3
28567
28574.7
28582.5
28590.4
28598.4
28606.4
28614.5
28622.6
28630.7
28638.9
28647.1
28655.3
28663.5
28671.8
28680
28688.2
28696.4
28704.5
28712.6
28720.7
28728.7
28736.7
28744.6
28752.4
28760.1
28767.8
28775.4
28782.8
28790.2
28797.4
28804.6
28811.6
28818.5
28825.2
28831.8
28838.3
28844.6
28850.7
28856.7
28862.5
28868.2
28873.7
28878.9
28884.1
28889
28893.7
28898.2
28902.5
28906.7
28910.6
28914.3
28917.7
28921
28924.1
28926.9
28929.5
28931.8
28934
28935.9
28937.5
28939
28940.2
28941.1
28941.8
28942.3
28942.6
29882.5
29882.7
29882.9
29883.3
29883.8
29884.4
29885.2
29886.1
29887
29888.2
29889.4
29890.7
29892.2
29893.7
29895.4
29897.1
29899
29900.9
29903
29905.1
29907.3
29909.6
29911.9
29914.3
29916.8
29919.4
29921.9
29924.6
29927.2
29929.9
29932.7
29935.4
29938.2
29941
29943.8
29946.6
29949.4
29952.2
29954.9
29957.7
29960.4
29963.1
29965.7
29968.3
29970.8
29973.3
29975.7
29978
29980.3
29982.5
29984.5
29986.5
29988.4
29990.2
29991.9
29993.4
29994.8
29996.1
29997.3
29998.3
29999.1
29999.8
30000.4
30000.8
30001
30001.1
30000.9
30000.6
30000.1
29999.4
29998.5
29997.4
29996.1
29994.6
29992.8
29990.9
29988.7
29986.3
29983.7
29980.8
29977.7
29974.3
29970.7
29966.9
29962.8
29958.5
29953.9
29949
29943.9
29938.5
29932.9
29927
29920.8
29914.4
29907.7
29900.7
29893.5
29886
29878.2
29870.1
29861.8
29853.2
29844.4
29835.2
29825.8
29816.2
29806.2
29796
29785.6
29774.8
29763.8
29752.6
29741.1
29729.3
29717.3
29705.1
29692.6
29679.8
29666.8
29653.6
29640.1
29626.4
29612.5
29598.3
29584
29569.4
29554.6
29539.6
29524.4
29509
29493.4
29477.7
29461.7
29445.5
29429.2
29412.7
29396.1
29379.3
29362.3
29345.2
29328
29310.6
29293.1
29275.5
29257.8
29239.9
29221.9
29203.9
29185.7
29167.5
29149.2
29130.8
29112.3
29093.8
29075.3
29056.6
29038
29019.3
29000.6
28981.8
28963.1
28944.3
28925.5
28906.8
28888
28869.3
28850.6
28831.9
28813.3
28794.7
28776.2
28757.7
28739.3
28721
28702.8
28684.6
28666.5
28648.6
28630.7
28612.9
28595.3
28577.8
28560.4
28543.2
28526.1
28509.2
28492.4
28475.7
28459.3
28443
28426.9
28411
28395.3
28379.7
28364.4
28349.3
28334.4
28319.7
28305.2
28291
28277
28263.2
28249.7
28236.4
28223.4
28210.6
28198.1
28185.9
28173.9
28162.2
28150.7
28139.6
28128.7
28118.1
28107.8
28097.8
28088.1
28078.7
28069.5
28060.7
28052.2
28044
28036.1
28028.5
28021.2
28014.2
28007.6
28001.2
27995.2
27989.5
27984.1
27979
27974.2
27969.8
27965.7
27961.9
27958.4
27955.2
27952.3
27949.8
27947.5
27945.6
27944
27942.7
27941.7
27941
27940.6
27940.5
27940.7
27941.2
27942
27943
27944.4
27946
27947.9
27950.1
27952.5
27955.3
27958.2
27961.5
27964.9
27968.7
27972.6
27976.8
27981.3
27985.9
27990.8
27995.9
28001.2
28006.6
28012.3
28018.2
28024.3
28030.5
28036.9
28043.5
28050.2
28057
28064.1
28071.2
28078.5
28085.8
28093.3
28100.9
28108.6
28116.4
28124.3
28132.2
28140.2
28148.3
28156.4
28164.6
28172.8
28181
28189.2
28197.5
28205.7
28214
28222.3
28230.5
28238.7
28246.9
28255.1
28263.2
28271.2
28279.2
28287.2
28295
28302.8
28310.5
28318.1
28325.6
28333
28340.3
28347.4
28354.5
28361.4
28368.1
28374.8
28381.3
28387.6
28393.8
28399.8
28405.6
28411.3
28416.8
28422.1
28427.2
28432.2
28436.9
28441.5
28445.8
28449.9
28453.9
28457.6
28461.1
28464.3
28467.4
28470.2
28472.8
28475.2
28477.4
28479.3
28480.9
28482.4
28483.6
28484.5
28485.3
28485.7
28486
29423.7
29423.8
29424.1
29424.5
29425
29425.6
29426.4
29427.3
29428.3
29429.4
29430.7
29432
29433.5
29435.1
29436.7
29438.5
29440.4
29442.4
29444.5
29446.6
29448.9
29451.2
29453.6
29456
29458.5
29461.1
29463.7
29466.4
29469.1
29471.9
29474.6
29477.4
29480.3
29483.1
29485.9
29488.8
29491.6
29494.4
29497.2
29500
29502.8
29505.5
29508.2
29510.8
29513.4
29515.9
29518.4
29520.8
29523.1
29525.3
29527.4
29529.4
29531.4
29533.2
29534.9
29536.5
29538
29539.3
29540.5
29541.6
29542.5
29543.2
29543.8
29544.2
29544.5
29544.6
29544.5
29544.2
29543.8
29543.1
29542.2
29541.2
29539.9
29538.4
29536.7
29534.8
29532.7
29530.3
29527.7
29524.8
29521.8
29518.4
29514.9
29511.1
29507
29502.7
29498.1
29493.3
29488.2
29482.8
29477.2
29471.3
29465.2
29458.7
29452
29445.1
29437.8
29430.3
29422.6
29414.5
29406.2
29397.6
29388.7
29379.6
29370.2
29360.5
29350.6
29340.4
29329.9
29319.1
29308.1
29296.9
29285.4
29273.6
29261.5
29249.3
29236.7
29223.9
29210.9
29197.7
29184.2
29170.5
29156.5
29142.3
29127.9
29113.3
29098.5
29083.4
29068.2
29052.8
29037.1
29021.3
29005.3
28989.1
28972.8
28956.2
28939.5
28922.7
28905.7
28888.6
28871.3
28853.8
28836.3
28818.6
28800.8
28782.9
28764.9
28746.8
28728.6
28710.3
28691.9
28673.5
28655
28636.4
28617.8
28599.1
28580.4
28561.7
28542.9
28524.1
28505.3
28486.5
28467.6
28448.8
28430
28411.3
28392.5
28373.8
28355.1
28336.5
28317.9
28299.4
28280.9
28262.5
28244.2
28226
28207.9
28189.9
28172
28154.2
28136.5
28118.9
28101.5
28084.2
28067.1
28050.1
28033.3
28016.6
28000.1
27983.8
27967.6
27951.6
27935.9
27920.3
27904.9
27889.8
27874.8
27860.1
27845.6
27831.3
27817.3
27803.5
27789.9
27776.6
27763.5
27750.7
27738.2
27725.9
27713.9
27702.2
27690.7
27679.5
27668.6
27658
27647.7
27637.6
27627.9
27618.5
27609.3
27600.5
27592
27583.7
27575.8
27568.2
27560.9
27553.9
27547.3
27540.9
27534.9
27529.2
27523.8
27518.7
27513.9
27509.5
27505.3
27501.5
27498
27494.9
27492
27489.5
27487.2
27485.3
27483.7
27482.4
27481.5
27480.8
27480.4
27480.3
27480.5
27481
27481.9
27482.9
27484.3
27486
27487.9
27490.1
27492.6
27495.4
27498.4
27501.6
27505.2
27508.9
27512.9
27517.2
27521.6
27526.3
27531.3
27536.4
27541.7
27547.3
27553
27558.9
27565
27571.3
27577.8
27584.4
27591.2
27598.1
27605.2
27612.4
27619.7
27627.1
27634.7
27642.3
27650.1
27657.9
27665.9
27673.9
27681.9
27690
27698.2
27706.4
27714.7
27723
27731.3
27739.6
27747.9
27756.2
27764.5
27772.8
27781.1
27789.4
27797.6
27805.8
27813.9
27821.9
27829.9
27837.8
27845.6
27853.4
27861
27868.6
27876
27883.4
27890.6
27897.7
27904.6
27911.4
27918.1
27924.7
27931
27937.2
27943.3
27949.2
27954.9
27960.4
27965.8
27970.9
27975.9
27980.7
27985.2
27989.6
27993.8
27997.7
28001.5
28005
28008.3
28011.3
28014.2
28016.8
28019.2
28021.4
28023.3
28025
28026.4
28027.6
28028.6
28029.3
28029.8
28030
28964.5
28964.6
28964.9
28965.3
28965.8
28966.5
28967.3
28968.2
28969.2
28970.3
28971.6
28973
28974.5
28976.1
28977.8
28979.7
28981.6
28983.6
28985.7
28987.9
28990.2
28992.6
28995
28997.5
29000.1
29002.7
29005.4
29008.1
29010.9
29013.7
29016.5
29019.4
29022.2
29025.1
29028
29030.9
29033.8
29036.7
29039.6
29042.4
29045.3
29048.1
29050.8
29053.5
29056.1
29058.7
29061.2
29063.7
29066
29068.3
29070.5
29072.6
29074.6
29076.5
29078.3
29079.9
29081.4
29082.8
29084.1
29085.2
29086.2
29087
29087.6
29088.1
29088.4
29088.6
29088.5
29088.3
29087.9
29087.3
29086.5
29085.5
29084.3
29082.8
29081.2
29079.3
29077.2
29074.9
29072.3
29069.5
29066.4
29063.2
29059.6
29055.8
29051.8
29047.5
29043
29038.2
29033.1
29027.7
29022.1
29016.3
29010.1
29003.7
28997
28990.1
28982.9
28975.4
28967.6
28959.6
28951.2
28942.6
28933.8
28924.6
28915.2
28905.5
28895.6
28885.3
28874.9
28864.1
28853.1
28841.8
28830.2
28818.4
28806.4
28794.1
28781.5
28768.7
28755.6
28742.4
28728.8
28715.1
28701.1
28686.9
28672.4
28657.8
28642.9
28627.8
28612.5
28597
28581.3
28565.5
28549.4
28533.2
28516.8
28500.2
28483.4
28466.5
28449.5
28432.3
28414.9
28397.4
28379.8
28362.1
28344.2
28326.2
28308.2
28290
28271.7
28253.4
28234.9
28216.4
28197.8
28179.2
28160.5
28141.8
28123
28104.2
28085.3
28066.4
28047.6
28028.7
28009.8
27990.9
27972
27953.2
27934.4
27915.6
27896.8
27878.1
27859.5
27840.9
27822.3
27803.9
27785.5
27767.2
27749
27730.9
27713
27695.1
27677.3
27659.7
27642.2
27624.9
27607.7
27590.6
27573.7
27557
27540.4
27524
27507.8
27491.8
27476
27460.3
27444.9
27429.7
27414.7
27399.9
27385.3
27371
27356.9
27343.1
27329.5
27316.1
27303
27290.2
27277.6
27265.3
27253.2
27241.4
27229.9
27218.7
27207.8
27197.1
27186.8
27176.7
27166.9
27157.5
27148.3
27139.4
27130.9
27122.6
27114.7
27107.1
27099.8
27092.8
27086.1
27079.7
27073.7
27068
27062.6
27057.5
27052.7
27048.3
27044.2
27040.4
27036.9
27033.7
27030.9
27028.3
27026.1
27024.2
27022.6
27021.4
27020.4
27019.8
27019.4
27019.3
27019.6
27020.1
27021
27022.1
27023.5
27025.2
27027.2
27029.5
27032
27034.8
27037.9
27041.2
27044.7
27048.6
27052.6
27056.9
27061.4
27066.2
27071.2
27076.4
27081.8
27087.4
27093.2
27099.2
27105.4
27111.7
27118.2
27124.9
27131.8
27138.8
27145.9
27153.2
27160.6
27168.1
27175.7
27183.5
27191.3
27199.2
27207.2
27215.3
27223.4
27231.6
27239.9
27248.2
27256.5
27264.9
27273.3
27281.7
27290.1
27298.5
27306.9
27315.3
27323.6
27331.9
27340.2
27348.5
27356.6
27364.8
27372.8
27380.8
27388.7
27396.5
27404.3
27411.9
27419.4
27426.8
27434.1
27441.2
27448.2
27455.1
27461.8
27468.4
27474.9
27481.1
27487.2
27493.2
27498.9
27504.5
27509.9
27515.1
27520.1
27524.9
27529.6
27534
27538.2
27542.1
27545.9
27549.5
27552.8
27555.9
27558.8
27561.4
27563.8
27566
27567.9
27569.6
27571.1
27572.3
27573.3
27574
27574.5
27574.7
28505
28505.1
28505.4
28505.8
28506.3
28507
28507.8
28508.7
28509.8
28510.9
28512.2
28513.7
28515.2
28516.9
28518.6
28520.5
28522.5
28524.5
28526.7
28529
28531.3
28533.7
28536.2
28538.8
28541.4
28544.1
28546.9
28549.7
28552.5
28555.4
28558.3
28561.2
28564.2
28567.1
28570.1
28573.1
28576.1
28579
28582
28584.9
28587.8
28590.7
28593.5
28596.3
28599
28601.7
28604.2
28606.8
28609.2
28611.6
28613.8
28616
28618.1
28620.1
28621.9
28623.6
28625.2
28626.7
28628
28629.2
28630.3
28631.1
28631.9
28632.4
28632.8
28633
28633.1
28632.9
28632.6
28632
28631.3
28630.3
28629.1
28627.8
28626.2
28624.3
28622.3
28620
28617.5
28614.7
28611.7
28608.5
28605
28601.3
28597.3
28593
28588.5
28583.7
28578.7
28573.4
28567.8
28561.9
28555.8
28549.4
28542.8
28535.8
28528.6
28521.1
28513.4
28505.3
28497
28488.4
28479.5
28470.4
28461
28451.3
28441.3
28431
28420.5
28409.8
28398.7
28387.4
28375.8
28364
28351.9
28339.6
28327
28314.1
28301
28287.7
28274.1
28260.3
28246.3
28232
28217.5
28202.8
28187.8
28172.7
28157.4
28141.8
28126.1
28110.1
28094
28077.7
28061.2
28044.6
28027.7
28010.8
27993.6
27976.3
27958.9
27941.3
27923.6
27905.8
27887.9
27869.8
27851.7
27833.4
27815.1
27796.6
27778.1
27759.5
27740.8
27722.1
27703.3
27684.5
27665.6
27646.7
27627.8
27608.8
27589.8
27570.9
27551.9
27532.9
27513.9
27495
27476.1
27457.2
27438.4
27419.6
27400.8
27382.1
27363.5
27345
27326.5
27308.2
27289.9
27271.7
27253.6
27235.7
27217.8
27200.1
27182.6
27165.1
27147.8
27130.7
27113.7
27096.9
27080.3
27063.8
27047.5
27031.4
27015.5
26999.8
26984.3
26969
26954
26939.1
26924.5
26910.1
26895.9
26882
26868.4
26854.9
26841.8
26828.9
26816.2
26803.9
26791.8
26779.9
26768.4
26757.1
26746.2
26735.5
26725.1
26715
26705.2
26695.7
26686.5
26677.6
26669
26660.7
26652.8
26645.1
26637.8
26630.8
26624.1
26617.7
26611.7
26605.9
26600.5
26595.4
26590.7
26586.2
26582.1
26578.3
26574.9
26571.7
26568.9
26566.4
26564.2
26562.3
26560.7
26559.5
26558.5
26557.9
26557.6
26557.6
26557.9
26558.5
26559.3
26560.5
26562
26563.7
26565.8
26568.1
26570.7
26573.5
26576.6
26580
26583.6
26587.5
26591.7
26596
26600.6
26605.5
26610.5
26615.8
26621.3
26627
26632.8
26638.9
26645.2
26651.6
26658.2
26665
26672
26679
26686.3
26693.6
26701.1
26708.7
26716.5
26724.3
26732.2
26740.3
26748.4
26756.5
26764.8
26773.1
26781.4
26789.8
26798.3
26806.7
26815.2
26823.7
26832.2
26840.7
26849.2
26857.7
26866.2
26874.6
26883
26891.3
26899.6
26907.8
26915.9
26924
26932
26939.9
26947.7
26955.4
26963
26970.5
26977.9
26985.1
26992.2
26999.1
27006
27012.6
27019.1
27025.5
27031.6
27037.6
27043.5
27049.1
27054.6
27059.8
27064.9
27069.7
27074.4
27078.9
27083.1
27087.1
27090.9
27094.5
27097.9
27101
27103.9
27106.6
27109
27111.2
27113.2
27114.9
27116.4
27117.6
27118.6
27119.3
27119.8
27120.1
28045.1
28045.2
28045.5
28045.9
28046.4
28047.1
28047.9
28048.9
28050
28051.2
28052.5
28054
28055.6
28057.3
28059.1
28061.1
28063.1
28065.2
28067.5
28069.8
28072.2
28074.7
28077.3
28079.9
28082.6
28085.4
28088.2
28091.1
28094
28097
28100
28103
28106
28109.1
28112.2
28115.2
28118.3
28121.4
28124.4
28127.4
28130.4
28133.4
28136.3
28139.2
28142
28144.7
28147.4
28150
28152.6
28155
28157.4
28159.7
28161.8
28163.9
28165.8
28167.7
28169.4
28170.9
28172.3
28173.6
28174.7
28175.7
28176.5
28177.2
28177.6
28177.9
28178
28178
28177.7
28177.2
28176.5
28175.7
28174.6
28173.3
28171.7
28170
28168
28165.8
28163.3
28160.6
28157.7
28154.5
28151.1
28147.4
28143.4
28139.2
28134.7
28130
28125
28119.7
28114.2
28108.3
28102.2
28095.9
28089.2
28082.3
28075.1
28067.6
28059.9
28051.8
28043.5
28034.9
28026
28016.9
28007.4
27997.7
27987.7
27977.5
27966.9
27956.1
27945
27933.7
27922.1
27910.2
27898.1
27885.7
27873.1
27860.2
27847
27833.6
27820
27806.1
27792
27777.7
27763.1
27748.4
27733.4
27718.2
27702.7
27687.1
27671.3
27655.3
27639.1
27622.7
27606.1
27589.4
27572.5
27555.4
27538.2
27520.8
27503.3
27485.6
27467.8
27449.9
27431.9
27413.7
27395.4
27377.1
27358.6
27340.1
27321.5
27302.8
27284
27265.1
27246.3
27227.3
27208.3
27189.3
27170.3
27151.2
27132.1
27113
27094
27074.9
27055.8
27036.8
27017.7
26998.7
26979.8
26960.9
26942
26923.2
26904.5
26885.9
26867.3
26848.8
26830.4
26812.2
26794
26775.9
26758
26740.2
26722.5
26705
26687.6
26670.4
26653.3
26636.4
26619.6
26603.1
26586.7
26570.5
26554.5
26538.7
26523.2
26507.8
26492.6
26477.7
26463
26448.5
26434.3
26420.3
26406.6
26393.1
26379.9
26366.9
26354.2
26341.8
26329.6
26317.7
26306.1
26294.8
26283.8
26273
26262.6
26252.4
26242.6
26233.1
26223.8
26214.9
26206.3
26198
26190
26182.3
26175
26167.9
26161.2
26154.8
26148.8
26143
26137.6
26132.5
26127.8
26123.3
26119.2
26115.4
26112
26108.8
26106
26103.5
26101.4
26099.5
26098
26096.8
26095.8
26095.3
26095
26095
26095.3
26096
26096.9
26098.1
26099.7
26101.5
26103.6
26105.9
26108.6
26111.5
26114.7
26118.2
26121.9
26125.8
26130
26134.5
26139.2
26144.1
26149.3
26154.6
26160.2
26166
26172
26178.2
26184.5
26191.1
26197.8
26204.7
26211.7
26218.9
26226.3
26233.8
26241.4
26249.1
26256.9
26264.9
26272.9
26281.1
26289.3
26297.6
26306
26314.4
26322.9
26331.4
26339.9
26348.5
26357.1
26365.8
26374.4
26383
26391.6
26400.2
26408.8
26417.3
26425.8
26434.3
26442.6
26451
26459.2
26467.4
26475.5
26483.5
26491.4
26499.2
26506.9
26514.5
26522
26529.3
26536.5
26543.5
26550.4
26557.2
26563.8
26570.2
26576.5
26582.5
26588.4
26594.2
26599.7
26605
26610.1
26615.1
26619.8
26624.3
26628.6
26632.7
26636.5
26640.2
26643.6
26646.8
26649.7
26652.4
26654.9
26657.1
26659.1
26660.8
26662.3
26663.6
26664.6
26665.3
26665.8
26666.1
27584.8
27584.9
27585.2
27585.6
27586.2
27586.9
27587.7
27588.7
27589.9
27591.1
27592.5
27594
27595.7
27597.4
27599.3
27601.3
27603.4
27605.6
27607.9
27610.3
27612.8
27615.4
27618.1
27620.8
27623.6
27626.5
27629.4
27632.4
27635.4
27638.5
27641.6
27644.7
27647.9
27651
27654.2
27657.4
27660.6
27663.7
27666.9
27670
27673.1
27676.2
27679.2
27682.2
27685.1
27688
27690.8
27693.5
27696.2
27698.7
27701.2
27703.6
27705.8
27708
27710.1
27712
27713.8
27715.5
27717
27718.4
27719.6
27720.7
27721.6
27722.3
27722.9
27723.3
27723.5
27723.5
27723.3
27722.9
27722.4
27721.6
27720.6
27719.3
27717.9
27716.2
27714.3
27712.2
27709.8
27707.1
27704.3
27701.1
27697.8
27694.1
27690.2
27686.1
27681.6
27676.9
27672
27666.7
27661.2
27655.4
27649.4
27643
27636.4
27629.5
27622.3
27614.8
27607.1
27599
27590.7
27582.1
27573.2
27564.1
27554.6
27544.9
27534.9
27524.6
27514
27503.2
27492.1
27480.7
27469.1
27457.2
27445
27432.5
27419.8
27406.9
27393.7
27380.2
27366.5
27352.6
27338.4
27324
27309.4
27294.5
27279.5
27264.2
27248.7
27232.9
27217
27200.9
27184.6
27168.1
27151.5
27134.6
27117.6
27100.4
27083.1
27065.6
27048
27030.2
27012.3
26994.3
26976.1
26957.9
26939.5
26921
26902.4
26883.8
26865
26846.2
26827.3
26808.3
26789.3
26770.3
26751.2
26732
26712.8
26693.7
26674.4
26655.2
26636
26616.8
26597.6
26578.4
26559.3
26540.2
26521.1
26502
26483.1
26464.2
26445.3
26426.5
26407.9
26389.2
26370.7
26352.3
26334
26315.9
26297.8
26279.9
26262.1
26244.4
26226.9
26209.6
26192.4
26175.4
26158.5
26141.9
26125.4
26109.1
26093
26077.1
26061.4
26046
26030.7
26015.7
26000.9
25986.3
25972
25957.9
25944.1
25930.6
25917.2
25904.2
25891.4
25878.9
25866.7
25854.7
25843.1
25831.7
25820.6
25809.8
25799.3
25789.1
25779.2
25769.6
25760.3
25751.4
25742.7
25734.4
25726.4
25718.7
25711.3
25704.2
25697.5
25691.1
25685
25679.3
25673.9
25668.8
25664
25659.6
25655.5
25651.7
25648.2
25645.1
25642.3
25639.8
25637.7
25635.9
25634.4
25633.2
25632.3
25631.8
25631.5
25631.6
25632
25632.7
25633.7
25635
25636.6
25638.4
25640.6
25643.1
25645.8
25648.8
25652.1
25655.6
25659.4
25663.5
25667.8
25672.4
25677.1
25682.2
25687.4
25692.9
25698.6
25704.5
25710.6
25716.9
25723.4
25730.1
25736.9
25743.9
25751.1
25758.4
25765.9
25773.5
25781.3
25789.1
25797.1
25805.2
25813.4
25821.7
25830
25838.5
25847
25855.5
25864.2
25872.8
25881.5
25890.3
25899
25907.8
25916.5
25925.3
25934
25942.8
25951.5
25960.1
25968.8
25977.4
25985.9
25994.3
26002.7
26011
26019.3
26027.4
26035.4
26043.4
26051.2
26058.9
26066.4
26073.9
26081.2
26088.3
26095.3
26102.2
26108.9
26115.4
26121.8
26127.9
26133.9
26139.7
26145.3
26150.7
26155.9
26160.9
26165.7
26170.3
26174.7
26178.8
26182.7
26186.4
26189.9
26193.1
26196.1
26198.8
26201.3
26203.6
26205.6
26207.4
26208.9
26210.2
26211.2
26211.9
26212.4
26212.7
27124.1
27124.2
27124.5
27124.9
27125.5
27126.3
27127.2
27128.2
27129.4
27130.7
27132.1
27133.7
27135.4
27137.2
27139.2
27141.3
27143.5
27145.8
27148.2
27150.6
27153.2
27155.9
27158.7
27161.5
27164.4
27167.4
27170.4
27173.5
27176.7
27179.9
27183.1
27186.3
27189.6
27192.9
27196.2
27199.5
27202.8
27206.1
27209.4
27212.6
27215.8
27219
27222.2
27225.3
27228.4
27231.4
27234.3
27237.1
27239.9
27242.6
27245.2
27247.7
27250.1
27252.4
27254.6
27256.6
27258.5
27260.3
27262
27263.5
27264.8
27266
27267.1
27267.9
27268.6
27269.1
27269.4
27269.5
27269.5
27269.2
27268.7
27268
27267.1
27266
27264.6
27263
27261.2
27259.1
27256.8
27254.3
27251.5
27248.4
27245.1
27241.5
27237.7
27233.6
27229.2
27224.6
27219.7
27214.5
27209
27203.3
27197.2
27190.9
27184.3
27177.4
27170.2
27162.8
27155
27147
27138.7
27130.1
27121.2
27112
27102.6
27092.8
27082.8
27072.5
27061.9
27051
27039.9
27028.4
27016.7
27004.8
26992.5
26980
26967.3
26954.3
26941
26927.5
26913.7
26899.7
26885.5
26871
26856.2
26841.3
26826.1
26810.7
26795.1
26779.3
26763.3
26747.1
26730.7
26714.1
26697.3
26680.3
26663.2
26645.9
26628.5
26610.9
26593.1
26575.2
26557.2
26539
26520.7
26502.3
26483.8
26465.2
26446.5
26427.7
26408.8
26389.8
26370.8
26351.7
26332.5
26313.3
26294.1
26274.8
26255.5
26236.1
26216.8
26197.4
26178.1
26158.7
26139.4
26120
26100.7
26081.5
26062.2
26043.1
26023.9
26004.9
25985.9
25967
25948.2
25929.4
25910.8
25892.2
25873.8
25855.5
25837.3
25819.2
25801.3
25783.5
25765.9
25748.4
25731.1
25713.9
25697
25680.2
25663.6
25647.1
25630.9
25614.9
25599.1
25583.5
25568.2
25553.1
25538.2
25523.5
25509.1
25494.9
25481
25467.3
25453.9
25440.8
25427.9
25415.3
25403
25391
25379.2
25367.8
25356.6
25345.8
25335.2
25325
25315
25305.4
25296
25287
25278.3
25270
25261.9
25254.2
25246.8
25239.7
25232.9
25226.5
25220.4
25214.6
25209.2
25204.1
25199.3
25194.9
25190.8
25187
25183.6
25180.5
25177.7
25175.3
25173.2
25171.4
25169.9
25168.8
25167.9
25167.4
25167.3
25167.4
25167.8
25168.6
25169.7
25171
25172.7
25174.7
25176.9
25179.4
25182.3
25185.4
25188.7
25192.4
25196.3
25200.5
25204.9
25209.6
25214.5
25219.6
25225
25230.6
25236.4
25242.5
25248.7
25255.1
25261.8
25268.6
25275.6
25282.7
25290.1
25297.5
25305.2
25312.9
25320.8
25328.9
25337
25345.2
25353.6
25362
25370.6
25379.2
25387.8
25396.6
25405.3
25414.2
25423
25431.9
25440.8
25449.7
25458.7
25467.6
25476.5
25485.4
25494.2
25503.1
25511.9
25520.6
25529.3
25537.9
25546.4
25554.9
25563.2
25571.5
25579.7
25587.8
25595.7
25603.5
25611.2
25618.8
25626.2
25633.5
25640.6
25647.6
25654.4
25661
25667.5
25673.8
25679.9
25685.8
25691.5
25697
25702.3
25707.4
25712.2
25716.9
25721.3
25725.5
25729.5
25733.3
25736.8
25740.1
25743.1
25745.9
25748.4
25750.7
25752.8
25754.6
25756.1
25757.4
25758.4
25759.2
25759.7
25760
26663
26663.1
26663.4
26663.9
26664.5
26665.3
26666.2
26667.3
26668.5
26669.9
26671.4
26673
26674.8
26676.7
26678.8
26680.9
26683.2
26685.6
26688.1
26690.7
26693.4
26696.2
26699.1
26702
26705.1
26708.2
26711.3
26714.5
26717.8
26721.1
26724.5
26727.9
26731.3
26734.7
26738.1
26741.6
26745
26748.5
26751.9
26755.3
26758.7
26762
26765.3
26768.5
26771.7
26774.9
26777.9
26780.9
26783.9
26786.7
26789.4
26792.1
26794.6
26797.1
26799.4
26801.6
26803.6
26805.6
26807.3
26809
26810.5
26811.8
26813
26813.9
26814.7
26815.4
26815.8
26816.1
26816.1
26816
26815.6
26815
26814.2
26813.2
26811.9
26810.4
26808.7
26806.8
26804.5
26802.1
26799.4
26796.4
26793.2
26789.7
26785.9
26781.8
26777.5
26773
26768.1
26762.9
26757.5
26751.8
26745.8
26739.5
26733
26726.1
26718.9
26711.5
26703.8
26695.7
26687.4
26678.8
26669.9
26660.7
26651.2
26641.5
26631.4
26621.1
26610.4
26599.5
26588.3
26576.9
26565.1
26553.1
26540.8
26528.3
26515.4
26502.3
26489
26475.4
26461.5
26447.4
26433.1
26418.5
26403.7
26388.6
26373.4
26357.9
26342.2
26326.2
26310.1
26293.8
26277.2
26260.5
26243.6
26226.5
26209.2
26191.8
26174.2
26156.5
26138.6
26120.5
26102.4
26084
26065.6
26047.1
26028.4
26009.6
25990.8
25971.8
25952.8
25933.6
25914.4
25895.2
25875.9
25856.5
25837.1
25817.6
25798.1
25778.6
25759.1
25739.6
25720.1
25700.6
25681
25661.6
25642.1
25622.7
25603.3
25583.9
25564.7
25545.4
25526.3
25507.2
25488.2
25469.3
25450.5
25431.8
25413.2
25394.7
25376.4
25358.2
25340.1
25322.2
25304.4
25286.7
25269.3
25252
25234.9
25217.9
25201.2
25184.7
25168.3
25152.2
25136.2
25120.5
25105.1
25089.8
25074.8
25060
25045.5
25031.2
25017.2
25003.4
24989.9
24976.6
24963.7
24951
24938.6
24926.5
24914.6
24903.1
24891.9
24880.9
24870.3
24860
24850
24840.3
24830.9
24821.8
24813.1
24804.7
24796.6
24788.8
24781.3
24774.2
24767.5
24761
24754.9
24749.1
24743.7
24738.6
24733.8
24729.4
24725.3
24721.5
24718.1
24715
24712.3
24709.8
24707.8
24706
24704.6
24703.5
24702.7
24702.3
24702.2
24702.4
24702.9
24703.7
24704.8
24706.3
24708
24710.1
24712.4
24715.1
24718
24721.2
24724.7
24728.4
24732.5
24736.8
24741.3
24746.1
24751.2
24756.4
24762
24767.7
24773.7
24779.9
24786.3
24792.9
24799.6
24806.6
24813.8
24821.1
24828.6
24836.2
24844
24852
24860.1
24868.3
24876.6
24885
24893.5
24902.1
24910.9
24919.6
24928.5
24937.4
24946.4
24955.4
24964.4
24973.5
24982.6
24991.7
25000.8
25009.9
25019
25028.1
25037.1
25046.1
25055.1
25064
25072.8
25081.6
25090.3
25098.9
25107.4
25115.9
25124.2
25132.4
25140.5
25148.5
25156.4
25164.1
25171.7
25179.1
25186.3
25193.4
25200.4
25207.1
25213.7
25220.1
25226.3
25232.3
25238.2
25243.8
25249.2
25254.3
25259.3
25264.1
25268.6
25272.9
25276.9
25280.7
25284.3
25287.7
25290.7
25293.6
25296.2
25298.5
25300.6
25302.4
25304
25305.3
25306.4
25307.2
25307.7
25308
26201.4
26201.6
26201.9
26202.4
26203.1
26203.9
26204.8
26206
26207.2
26208.7
26210.3
26212
26213.8
26215.8
26218
26220.2
26222.6
26225.1
26227.7
26230.5
26233.3
26236.2
26239.2
26242.3
26245.5
26248.7
26252
26255.4
26258.8
26262.3
26265.8
26269.3
26272.9
26276.5
26280.1
26283.7
26287.3
26290.8
26294.4
26298
26301.5
26305
26308.5
26311.9
26315.2
26318.5
26321.8
26324.9
26328
26331
26333.9
26336.7
26339.4
26342
26344.5
26346.8
26349
26351.1
26353.1
26354.9
26356.5
26358
26359.3
26360.4
26361.4
26362.1
26362.7
26363.1
26363.3
26363.2
26363
26362.6
26361.9
26361
26359.8
26358.5
26356.9
26355
26352.9
26350.5
26347.9
26345
26341.9
26338.5
26334.8
26330.8
26326.6
26322
26317.2
26312.1
26306.8
26301.1
26295.1
26288.9
26282.4
26275.5
26268.4
26261
26253.2
26245.2
26236.9
26228.3
26219.4
26210.2
26200.7
26190.9
26180.8
26170.4
26159.8
26148.8
26137.6
26126
26114.2
26102.2
26089.8
26077.2
26064.3
26051.1
26037.7
26024
26010
25995.8
25981.4
25966.7
25951.8
25936.6
25921.2
25905.6
25889.7
25873.7
25857.4
25841
25824.3
25807.4
25790.4
25773.1
25755.7
25738.1
25720.4
25702.5
25684.4
25666.2
25647.9
25629.4
25610.8
25592.1
25573.3
25554.3
25535.3
25516.1
25496.9
25477.6
25458.3
25438.8
25419.3
25399.8
25380.2
25360.5
25340.9
25321.2
25301.5
25281.8
25262.1
25242.4
25222.7
25203
25183.4
25163.7
25144.2
25124.7
25105.2
25085.8
25066.4
25047.2
25028
25008.9
24990
24971.1
24952.3
24933.7
24915.1
24896.8
24878.5
24860.4
24842.5
24824.7
24807
24789.6
24772.3
24755.2
24738.3
24721.6
24705.1
24688.8
24672.8
24656.9
24641.3
24625.9
24610.8
24595.8
24581.2
24566.8
24552.6
24538.7
24525.1
24511.8
24498.7
24485.9
24473.4
24461.2
24449.3
24437.6
24426.3
24415.3
24404.6
24394.2
24384.1
24374.3
24364.9
24355.8
24347
24338.5
24330.3
24322.5
24315.1
24307.9
24301.1
24294.6
24288.5
24282.7
24277.2
24272.1
24267.4
24262.9