/*--------------------------------*- C++ -*----------------------------------*\
| =========                 |                                                 |
| \\      /  F ield         | OpenFOAM: The Open Source CFD Toolbox           |
|  \\    /   O peration     | Version:  v2006                                 |
|   \\  /    A nd           | Website:  www.openfoam.com                      |
|    \\/     M anipulation  |                                                 |
\*---------------------------------------------------------------------------*/
FoamFile
{
    version     2.0;
    format      ascii;
    class       volScalarField;
    location    "5.7";
    object      p_rgh;
}
// * * * * * * * * * * * * * * * * * * * * * * * * * * * * * * * * * * * * * //

dimensions      [1 -1 -2 0 0 0 0];


internalField   nonuniform List<scalar> 
52500
(
1598.07
1598.19
1598.44
1598.81
1599.31
1599.92
1600.66
1601.52
1602.5
1603.59
1604.8
1606.11
1607.54
1609.07
1610.7
1612.43
1614.25
1616.17
1618.18
1620.26
1622.43
1624.67
1626.98
1629.36
1631.8
1634.29
1636.83
1639.42
1642.05
1644.71
1647.41
1650.12
1652.85
1655.6
1658.35
1661.1
1663.85
1666.58
1669.3
1671.99
1674.65
1677.28
1679.87
1682.41
1684.9
1687.32
1689.68
1691.97
1694.18
1696.31
1698.35
1700.29
1702.13
1703.86
1705.48
1706.98
1708.36
1709.6
1710.71
1711.68
1712.49
1713.16
1713.67
1714.02
1714.2
1714.2
1714.03
1713.67
1713.13
1712.39
1711.46
1710.32
1708.98
1707.43
1705.66
1703.68
1701.47
1699.04
1696.37
1693.48
1690.34
1686.96
1683.35
1679.48
1675.37
1671.01
1666.39
1661.52
1656.39
1651
1645.36
1639.45
1633.27
1626.83
1620.12
1613.15
1605.9
1598.39
1590.61
1582.56
1574.23
1565.64
1556.78
1547.66
1538.26
1528.6
1518.67
1508.48
1498.03
1487.31
1476.34
1465.1
1453.61
1441.87
1429.88
1417.64
1405.15
1392.42
1379.45
1366.25
1352.81
1339.14
1325.25
1311.14
1296.8
1282.25
1267.5
1252.53
1237.37
1222.01
1206.46
1190.72
1174.8
1158.7
1142.43
1125.99
1109.39
1092.63
1075.72
1058.66
1041.47
1024.14
1006.68
989.1
971.404
953.58
935.661
917.649
899.546
881.359
863.094
844.756
826.351
807.887
789.369
770.804
752.199
733.56
714.893
696.206
677.504
658.795
640.086
621.382
602.692
584.02
565.375
546.762
528.189
509.662
491.188
472.773
454.425
436.149
417.954
399.844
381.827
363.91
346.098
328.398
310.817
293.361
276.035
258.847
241.803
224.908
208.169
191.591
175.181
158.944
142.886
127.013
111.331
95.8441
80.5592
65.4816
50.6166
35.9693
21.5449
7.34803
-6.61668
-20.3448
-33.8319
-47.0737
-60.0658
-72.804
-85.2841
-97.5018
-109.453
-121.135
-132.542
-143.673
-154.523
-165.089
-175.368
-185.357
-195.054
-204.455
-213.558
-222.362
-230.863
-239.06
-246.95
-254.533
-261.806
-268.768
-275.419
-281.756
-287.778
-293.487
-298.88
-303.957
-308.718
-313.164
-317.293
-321.108
-324.607
-327.792
-330.664
-333.223
-335.472
-337.41
-339.041
-340.365
-341.385
-342.102
-342.52
-342.64
-342.465
-341.998
-341.242
-340.201
-338.877
-337.275
-335.397
-333.249
-330.833
-328.154
-325.218
-322.027
-318.588
-314.904
-310.981
-306.824
-302.439
-297.831
-293.006
-287.969
-282.726
-277.284
-271.649
-265.826
-259.822
-253.644
-247.299
-240.792
-234.131
-227.322
-220.373
-213.291
-206.084
-198.759
-191.322
-183.781
-176.144
-168.417
-160.609
-152.728
-144.782
-136.779
-128.727
-120.632
-112.503
-104.347
-96.1739
-87.9878
-79.7889
-71.5837
-63.381
-55.1897
-47.0191
-38.8782
-30.7759
-22.7201
-14.7185
-6.77748
1.09678
8.89817
16.6207
24.2581
31.8041
39.2524
46.5963
53.8296
60.9462
67.94
74.8051
81.5358
88.1265
94.5715
100.866
107.003
112.98
118.789
124.428
129.891
135.173
140.27
145.177
149.891
154.408
158.723
162.834
166.736
170.427
173.903
177.161
180.198
183.012
185.601
187.962
190.093
191.993
193.659
195.09
196.285
197.242
197.962
198.444
198.682
1597.74
1597.86
1598.1
1598.48
1598.98
1599.6
1600.34
1601.2
1602.18
1603.28
1604.49
1605.82
1607.25
1608.79
1610.43
1612.17
1614.01
1615.93
1617.95
1620.05
1622.23
1624.48
1626.8
1629.19
1631.65
1634.15
1636.71
1639.31
1641.95
1644.63
1647.34
1650.07
1652.81
1655.57
1658.34
1661.1
1663.86
1666.61
1669.35
1672.05
1674.73
1677.38
1679.98
1682.54
1685.04
1687.48
1689.86
1692.16
1694.39
1696.53
1698.58
1700.54
1702.4
1704.14
1705.78
1707.3
1708.69
1709.95
1711.07
1712.06
1712.89
1713.58
1714.1
1714.46
1714.66
1714.68
1714.52
1714.18
1713.65
1712.93
1712.01
1710.88
1709.56
1708.02
1706.26
1704.29
1702.09
1699.67
1697.01
1694.13
1691
1687.64
1684.03
1680.17
1676.07
1671.72
1667.11
1662.24
1657.12
1651.74
1646.09
1640.18
1634.01
1627.57
1620.86
1613.89
1606.65
1599.13
1591.35
1583.3
1574.98
1566.38
1557.52
1548.39
1538.99
1529.33
1519.4
1509.2
1498.74
1488.02
1477.04
1465.8
1454.3
1442.55
1430.55
1418.3
1405.81
1393.07
1380.09
1366.87
1353.42
1339.74
1325.84
1311.71
1297.36
1282.8
1268.03
1253.05
1237.87
1222.49
1206.92
1191.16
1175.22
1159.1
1142.82
1126.36
1109.75
1092.97
1076.05
1058.97
1041.76
1024.42
1006.94
989.344
971.629
953.819
935.897
917.873
899.757
881.554
863.273
844.918
826.497
808.015
789.48
770.898
752.275
733.618
714.934
696.229
677.511
658.784
640.057
621.336
602.628
583.94
565.277
546.647
528.057
509.512
491.021
472.59
454.224
435.932
417.72
399.593
381.56
363.626
345.797
328.081
310.484
293.012
275.67
258.467
241.407
224.496
207.742
191.149
174.724
158.472
142.4
126.512
110.814
95.313
80.0132
64.9205
50.0404
35.3783
20.9394
6.7284
-7.24986
-20.9909
-34.4903
-47.7438
-60.7471
-73.496
-85.9863
-98.214
-110.175
-121.866
-133.282
-144.422
-155.28
-165.854
-176.141
-186.138
-195.841
-205.25
-214.36
-223.169
-231.676
-239.878
-247.774
-255.361
-262.638
-269.604
-276.258
-282.598
-288.624
-294.334
-299.729
-304.808
-309.57
-314.016
-318.146
-321.959
-325.458
-328.642
-331.511
-334.068
-336.314
-338.249
-339.875
-341.195
-342.21
-342.921
-343.333
-343.446
-343.264
-342.79
-342.026
-340.976
-339.643
-338.03
-336.143
-333.983
-331.556
-328.866
-325.917
-322.713
-319.26
-315.563
-311.626
-307.454
-303.053
-298.429
-293.587
-288.533
-283.273
-277.812
-272.158
-266.316
-260.292
-254.094
-247.727
-241.199
-234.516
-227.686
-220.714
-213.609
-206.377
-199.025
-191.564
-183.999
-176.341
-168.597
-160.774
-152.881
-144.924
-136.91
-128.845
-120.738
-112.595
-104.422
-96.2227
-88.0033
-79.7762
-71.5483
-63.3259
-55.1167
-46.9295
-38.7728
-30.655
-22.5836
-14.5652
-6.60644
1.28613
9.10612
16.8471
24.5024
32.0658
39.5307
46.8907
54.1396
61.2712
68.2798
75.1593
81.9038
88.5079
94.9659
101.272
107.422
113.41
119.231
124.88
130.353
135.645
140.751
145.668
150.39
154.915
159.238
163.356
167.266
170.963
174.445
177.709
180.752
183.572
186.165
188.53
190.665
192.568
194.237
195.67
196.868
197.825
198.547
199.025
199.276
1597.05
1597.17
1597.42
1597.8
1598.3
1598.93
1599.68
1600.55
1601.55
1602.66
1603.88
1605.22
1606.67
1608.22
1609.88
1611.64
1613.49
1615.44
1617.48
1619.6
1621.8
1624.08
1626.43
1628.84
1631.32
1633.85
1636.44
1639.07
1641.74
1644.44
1647.18
1649.94
1652.72
1655.51
1658.3
1661.1
1663.89
1666.67
1669.43
1672.17
1674.88
1677.56
1680.19
1682.78
1685.31
1687.78
1690.19
1692.52
1694.78
1696.95
1699.04
1701.02
1702.91
1704.69
1706.35
1707.9
1709.32
1710.61
1711.76
1712.77
1713.64
1714.35
1714.9
1715.29
1715.51
1715.55
1715.42
1715.1
1714.6
1713.9
1713
1711.9
1710.59
1709.08
1707.34
1705.39
1703.21
1700.8
1698.17
1695.3
1692.19
1688.84
1685.25
1681.41
1677.32
1672.97
1668.38
1663.52
1658.41
1653.03
1647.4
1641.5
1635.33
1628.9
1622.2
1615.23
1607.99
1600.48
1592.7
1584.65
1576.33
1567.73
1558.87
1549.74
1540.34
1530.67
1520.73
1510.53
1500.06
1489.34
1478.35
1467.1
1455.59
1443.83
1431.82
1419.56
1407.05
1394.3
1381.3
1368.07
1354.61
1340.91
1326.99
1312.85
1298.48
1283.9
1269.11
1254.11
1238.91
1223.52
1207.93
1192.15
1176.19
1160.05
1143.73
1127.25
1110.6
1093.8
1076.85
1059.75
1042.51
1025.13
1007.63
990.001
972.257
954.405
936.448
918.39
900.24
882.003
863.687
845.297
826.84
808.323
789.752
771.134
752.475
733.781
715.061
696.319
677.564
658.801
640.037
621.279
602.534
583.808
565.108
546.441
527.814
509.232
490.704
472.236
453.834
435.506
417.257
399.095
381.025
363.056
345.192
327.442
309.81
292.303
274.928
257.691
240.598
223.656
206.869
190.245
173.788
157.506
141.404
125.487
109.761
94.2313
78.9042
63.7846
48.8779
34.1894
19.7241
5.48699
-8.51712
-22.2835
-35.8077
-49.085
-62.1113
-74.8823
-87.3939
-99.642
-111.623
-123.332
-134.767
-145.924
-156.799
-167.389
-177.691
-187.702
-197.42
-206.841
-215.963
-224.783
-233.3
-241.512
-249.416
-257.011
-264.296
-271.268
-277.927
-284.271
-290.3
-296.013
-301.41
-306.489
-311.251
-315.696
-319.823
-323.634
-327.129
-330.308
-333.172
-335.722
-337.96
-339.886
-341.503
-342.813
-343.816
-344.516
-344.914
-345.013
-344.816
-344.326
-343.545
-342.478
-341.126
-339.494
-337.586
-335.405
-332.956
-330.243
-327.27
-324.042
-320.564
-316.84
-312.876
-308.677
-304.248
-299.594
-294.722
-289.638
-284.346
-278.854
-273.167
-267.292
-261.235
-255.002
-248.601
-242.038
-235.32
-228.455
-221.448
-214.308
-207.041
-199.656
-192.159
-184.558
-176.861
-169.076
-161.209
-153.269
-145.263
-137.2
-129.086
-120.929
-112.736
-104.514
-96.2717
-88.0149
-79.7511
-71.4875
-63.2317
-54.9908
-46.7723
-38.5835
-30.4319
-22.3246
-14.2689
-6.27205
1.65882
9.51666
17.2947
24.9864
32.585
40.0844
47.4781
54.7599
61.9237
68.9635
75.8736
82.6478
89.2807
95.7665
102.1
108.276
114.289
120.134
125.807
131.302
136.616
141.743
146.679
151.421
155.964
160.304
164.439
168.363
172.075
175.571
178.848
181.902
184.733
187.336
189.71
191.853
193.763
195.439
196.878
198.08
199.043
199.769
200.248
200.488
1596.01
1596.14
1596.39
1596.78
1597.29
1597.93
1598.69
1599.57
1600.58
1601.71
1602.95
1604.31
1605.78
1607.36
1609.05
1610.83
1612.72
1614.7
1616.77
1618.92
1621.16
1623.47
1625.86
1628.31
1630.82
1633.4
1636.02
1638.69
1641.41
1644.15
1646.93
1649.73
1652.56
1655.39
1658.23
1661.07
1663.91
1666.73
1669.54
1672.33
1675.08
1677.81
1680.49
1683.12
1685.7
1688.22
1690.67
1693.05
1695.36
1697.58
1699.71
1701.74
1703.67
1705.5
1707.21
1708.8
1710.27
1711.6
1712.8
1713.86
1714.76
1715.52
1716.11
1716.55
1716.81
1716.9
1716.8
1716.53
1716.06
1715.4
1714.54
1713.48
1712.21
1710.73
1709.03
1707.11
1704.96
1702.59
1699.98
1697.14
1694.06
1690.74
1687.18
1683.36
1679.3
1674.98
1670.4
1665.57
1660.47
1655.12
1649.5
1643.61
1637.46
1631.04
1624.34
1617.38
1610.15
1602.65
1594.87
1586.82
1578.5
1569.9
1561.04
1551.9
1542.5
1532.82
1522.88
1512.66
1502.19
1491.44
1480.44
1469.17
1457.65
1445.87
1433.84
1421.56
1409.03
1396.25
1383.23
1369.97
1356.48
1342.75
1328.8
1314.62
1300.22
1285.61
1270.78
1255.75
1240.51
1225.07
1209.44
1193.62
1177.61
1161.43
1145.07
1128.54
1111.85
1095
1078
1060.85
1043.56
1026.14
1008.59
990.912
973.119
955.215
937.205
919.097
900.895
882.607
864.238
845.796
827.287
808.717
790.093
771.421
752.708
733.962
715.187
696.392
677.582
658.765
639.948
621.136
602.338
583.559
564.806
546.086
527.406
508.773
490.193
471.673
453.22
434.84
416.54
398.327
380.207
362.187
344.273
326.472
308.79
291.233
273.809
256.523
239.381
222.391
205.556
188.885
172.382
156.054
139.906
123.944
108.174
92.6018
77.2322
62.071
47.1236
32.3952
17.8908
3.61556
-10.4258
-24.2287
-37.7884
-51.1006
-64.1608
-76.9647
-89.5083
-101.787
-113.798
-125.537
-136.999
-148.183
-159.083
-169.698
-180.023
-190.056
-199.795
-209.235
-218.376
-227.214
-235.747
-243.974
-251.891
-259.499
-266.794
-273.776
-280.443
-286.795
-292.829
-298.547
-303.946
-309.027
-313.789
-318.233
-322.358
-326.165
-329.655
-332.827
-335.683
-338.223
-340.45
-342.364
-343.967
-345.261
-346.248
-346.929
-347.308
-347.386
-347.166
-346.652
-345.846
-344.751
-343.372
-341.71
-339.771
-337.558
-335.075
-332.327
-329.318
-326.052
-322.535
-318.771
-314.766
-310.524
-306.052
-301.354
-296.436
-291.305
-285.965
-280.424
-274.688
-268.762
-262.654
-256.369
-249.915
-243.299
-236.527
-229.606
-222.544
-215.348
-208.025
-200.582
-193.028
-185.37
-177.615
-169.771
-161.847
-153.849
-145.785
-137.663
-129.49
-121.273
-113.021
-104.74
-96.4369
-88.1195
-79.795
-71.4707
-63.1538
-54.8519
-46.5726
-38.3238
-30.1129
-21.9475
-13.8351
-5.78279
2.20258
10.1142
17.9454
25.6896
33.3402
40.8908
48.335
55.6665
62.879
69.9666
76.9234
83.7434
90.4209
96.9504
103.326
109.544
115.597
121.481
127.191
132.723
138.071
143.232
148.2
152.973
157.545
161.913
166.074
170.024
173.759
177.277
180.575
183.649
186.497
189.117
191.506
193.662
195.584
197.27
198.718
199.928
200.898
201.628
202.109
202.349
1594.62
1594.75
1595.01
1595.4
1595.92
1596.57
1597.35
1598.26
1599.29
1600.44
1601.71
1603.1
1604.6
1606.21
1607.93
1609.75
1611.68
1613.7
1615.81
1618.01
1620.29
1622.65
1625.09
1627.59
1630.16
1632.78
1635.46
1638.19
1640.96
1643.76
1646.6
1649.46
1652.34
1655.24
1658.14
1661.04
1663.94
1666.83
1669.7
1672.55
1675.37
1678.15
1680.89
1683.59
1686.23
1688.81
1691.33
1693.77
1696.14
1698.42
1700.62
1702.71
1704.71
1706.59
1708.36
1710.02
1711.54
1712.94
1714.19
1715.31
1716.27
1717.09
1717.74
1718.23
1718.54
1718.69
1718.65
1718.42
1718.01
1717.4
1716.59
1715.58
1714.35
1712.92
1711.26
1709.39
1707.28
1704.95
1702.39
1699.58
1696.54
1693.25
1689.72
1685.94
1681.9
1677.61
1673.06
1668.25
1663.18
1657.85
1652.24
1646.38
1640.24
1633.83
1627.15
1620.2
1612.97
1605.47
1597.7
1589.65
1581.33
1572.74
1563.87
1554.73
1545.31
1535.63
1525.67
1515.44
1504.95
1494.19
1483.17
1471.88
1460.34
1448.54
1436.48
1424.17
1411.61
1398.8
1385.75
1372.45
1358.92
1345.16
1331.17
1316.95
1302.51
1287.85
1272.98
1257.9
1242.61
1227.13
1211.44
1195.57
1179.52
1163.28
1146.86
1130.28
1113.53
1096.63
1079.57
1062.36
1045.01
1027.53
1009.91
992.17
974.312
956.342
938.267
920.091
901.822
883.466
865.029
846.518
827.94
809.3
790.606
771.863
753.08
734.262
715.416
696.549
677.668
658.779
639.889
621.005
602.133
583.281
564.455
545.663
526.91
508.203
489.55
470.957
452.432
433.979
415.608
397.323
379.132
361.042
343.058
325.188
307.438
289.814
272.323
254.971
237.764
220.708
203.81
187.075
170.51
154.121
137.912
121.891
106.063
90.4328
75.0068
59.7901
44.7882
30.0062
15.4492
1.12234
-12.9696
-26.8217
-40.4295
-53.7884
-66.8939
-79.7418
-92.3279
-104.648
-116.699
-128.475
-139.975
-151.194
-162.128
-172.775
-183.131
-193.194
-202.96
-212.427
-221.592
-230.453
-239.008
-247.254
-255.19
-262.814
-270.124
-277.119
-283.797
-290.158
-296.201
-301.924
-307.328
-312.411
-317.174
-321.616
-325.738
-329.54
-333.023
-336.186
-339.031
-341.559
-343.771
-345.669
-347.253
-348.527
-349.491
-350.148
-350.501
-350.551
-350.301
-349.755
-348.915
-347.785
-346.367
-344.666
-342.686
-340.43
-337.902
-335.107
-332.049
-328.734
-325.164
-321.347
-317.286
-312.988
-308.457
-303.699
-298.72
-293.526
-288.122
-282.516
-276.713
-270.719
-264.542
-258.188
-251.663
-244.975
-238.13
-231.136
-224
-216.729
-209.331
-201.812
-194.181
-186.446
-178.613
-170.69
-162.686
-154.608
-146.463
-138.259
-130.004
-121.706
-113.371
-105.008
-96.6233
-88.2251
-79.8207
-71.4176
-63.0232
-54.645
-46.2904
-37.9668
-29.6816
-21.4421
-13.2558
-5.12996
2.92845
10.9125
18.8152
26.63
34.3501
41.969
49.4805
56.878
64.1554
71.3066
78.3256
85.2064
91.9434
98.531
104.964
111.236
117.342
123.279
129.039
134.619
140.014
145.22
150.232
155.046
159.658
164.065
168.261
172.245
176.013
179.561
182.887
185.987
188.859
191.502
193.911
196.086
198.024
199.724
201.185
202.404
203.382
204.118
204.604
204.846
1592.87
1593
1593.27
1593.67
1594.21
1594.88
1595.68
1596.6
1597.66
1598.84
1600.14
1601.57
1603.11
1604.76
1606.53
1608.4
1610.37
1612.44
1614.61
1616.86
1619.2
1621.63
1624.12
1626.69
1629.32
1632.01
1634.76
1637.56
1640.4
1643.27
1646.18
1649.12
1652.07
1655.04
1658.02
1661
1663.97
1666.94
1669.89
1672.81
1675.71
1678.57
1681.4
1684.17
1686.89
1689.55
1692.15
1694.67
1697.12
1699.48
1701.75
1703.92
1705.99
1707.96
1709.81
1711.53
1713.14
1714.61
1715.94
1717.13
1718.17
1719.05
1719.77
1720.33
1720.72
1720.93
1720.96
1720.8
1720.45
1719.91
1719.16
1718.21
1717.04
1715.66
1714.07
1712.25
1710.2
1707.92
1705.4
1702.65
1699.65
1696.41
1692.91
1689.17
1685.17
1680.92
1676.4
1671.62
1666.58
1661.27
1655.7
1649.85
1643.73
1637.34
1630.68
1623.74
1616.52
1609.03
1601.26
1593.22
1584.9
1576.3
1567.43
1558.28
1548.86
1539.16
1529.19
1518.95
1508.44
1497.66
1486.61
1475.3
1463.72
1451.89
1439.8
1427.45
1414.86
1402.01
1388.92
1375.58
1362
1348.19
1334.15
1319.88
1305.39
1290.67
1275.74
1260.6
1245.26
1229.71
1213.96
1198.02
1181.9
1165.59
1149.11
1132.45
1115.63
1098.65
1081.51
1064.23
1046.8
1029.24
1011.54
993.72
975.78
957.727
939.567
921.306
902.951
884.509
865.985
847.387
828.72
809.992
791.209
772.378
753.505
734.597
715.661
696.703
677.731
658.752
639.771
620.797
601.835
582.893
563.977
545.095
526.253
507.457
488.716
470.035
451.421
432.881
414.422
396.051
377.774
359.597
341.528
323.573
305.738
288.03
270.456
253.021
235.732
218.596
201.618
184.804
168.162
151.695
135.411
119.315
103.414
87.7115
72.2145
56.9282
41.8579
27.0089
12.3864
-2.00466
-16.1593
-30.0728
-43.7404
-57.1575
-70.3197
-83.2227
-95.8622
-108.234
-120.335
-132.16
-143.705
-154.969
-165.946
-176.634
-187.029
-197.128
-206.929
-216.429
-225.625
-234.516
-243.097
-251.368
-259.327
-266.971
-274.3
-281.311
-288.004
-294.377
-300.429
-306.16
-311.569
-316.655
-321.419
-325.859
-329.977
-333.773
-337.246
-340.398
-343.23
-345.742
-347.936
-349.813
-351.374
-352.622
-353.558
-354.185
-354.504
-354.519
-354.232
-353.646
-352.763
-351.588
-350.123
-348.373
-346.341
-344.031
-341.446
-338.593
-335.474
-332.096
-328.462
-324.577
-320.447
-316.078
-311.474
-306.641
-301.585
-296.312
-290.829
-285.141
-279.254
-273.176
-266.912
-260.47
-253.857
-247.078
-240.143
-233.056
-225.827
-218.461
-210.968
-203.353
-195.626
-187.792
-179.861
-171.84
-163.737
-155.559
-147.314
-139.01
-130.654
-122.255
-113.82
-105.356
-96.8714
-88.3733
-79.8693
-71.367
-62.8738
-54.3974
-45.9453
-37.5249
-29.1439
-20.8097
-12.5298
-4.31134
3.83863
11.9131
19.9052
27.8082
35.6153
43.3199
50.9156
58.3959
65.7545
72.9853
80.0823
87.0395
93.8512
100.512
107.015
113.357
119.53
125.532
131.355
136.996
142.451
147.713
152.78
157.646
162.309
166.763
171.005
175.032
178.84
182.427
185.788
188.922
191.825
194.495
196.931
199.129
201.088
202.806
204.282
205.514
206.502
207.245
207.738
207.983
1590.75
1590.89
1591.16
1591.58
1592.13
1592.82
1593.64
1594.6
1595.69
1596.9
1598.25
1599.72
1601.3
1603.01
1604.82
1606.75
1608.78
1610.92
1613.15
1615.47
1617.89
1620.38
1622.95
1625.6
1628.31
1631.08
1633.91
1636.79
1639.72
1642.68
1645.68
1648.7
1651.74
1654.8
1657.87
1660.94
1664.01
1667.07
1670.11
1673.13
1676.12
1679.08
1682
1684.87
1687.68
1690.44
1693.13
1695.75
1698.29
1700.74
1703.11
1705.37
1707.54
1709.6
1711.54
1713.36
1715.05
1716.61
1718.03
1719.31
1720.44
1721.41
1722.22
1722.86
1723.33
1723.63
1723.74
1723.66
1723.39
1722.92
1722.25
1721.37
1720.28
1718.97
1717.44
1715.69
1713.7
1711.48
1709.03
1706.33
1703.39
1700.2
1696.76
1693.06
1689.11
1684.9
1680.42
1675.68
1670.68
1665.4
1659.85
1654.03
1647.94
1641.57
1634.92
1628
1620.8
1613.31
1605.55
1597.51
1589.19
1580.59
1571.71
1562.56
1553.12
1543.41
1533.42
1523.16
1512.63
1501.82
1490.75
1479.41
1467.8
1455.93
1443.8
1431.41
1418.76
1405.87
1392.73
1379.34
1365.71
1351.84
1337.74
1323.41
1308.85
1294.07
1279.07
1263.86
1248.44
1232.81
1216.99
1200.97
1184.77
1168.38
1151.81
1135.07
1118.16
1101.09
1083.86
1066.49
1048.97
1031.31
1013.52
995.599
977.561
959.408
941.148
922.787
904.33
885.785
867.158
848.455
829.684
810.85
791.961
773.023
754.043
735.027
715.983
696.918
677.837
658.749
639.66
620.576
601.505
582.454
563.429
544.438
525.486
506.582
487.732
468.943
450.221
431.574
413.009
394.531
376.148
357.867
339.694
321.636
303.699
285.89
268.215
250.681
233.293
216.06
198.985
182.077
165.34
148.781
132.406
116.221
100.23
84.4413
68.8589
53.4886
38.336
23.4062
8.70459
-5.7639
-19.9942
-33.9816
-47.7212
-61.2084
-74.4388
-87.4079
-100.112
-112.546
-124.706
-136.589
-148.19
-159.507
-170.536
-181.272
-191.714
-201.858
-211.702
-221.241
-230.475
-239.4
-248.014
-256.315
-264.301
-271.971
-279.322
-286.353
-293.063
-299.45
-305.514
-311.254
-316.669
-321.759
-326.524
-330.962
-335.076
-338.864
-342.327
-345.465
-348.281
-350.774
-352.946
-354.798
-356.332
-357.549
-358.452
-359.042
-359.322
-359.294
-358.962
-358.327
-357.394
-356.165
-354.643
-352.834
-350.739
-348.364
-345.712
-342.788
-339.596
-336.142
-332.429
-328.464
-324.251
-319.795
-315.103
-310.18
-305.032
-299.664
-294.084
-288.297
-282.31
-276.129
-269.761
-263.214
-256.493
-249.605
-242.559
-235.361
-228.019
-220.54
-212.932
-205.201
-197.357
-189.406
-181.357
-173.217
-164.994
-156.695
-148.33
-139.905
-131.428
-122.908
-114.351
-105.766
-97.161
-88.5426
-79.9189
-71.2977
-62.6865
-54.0929
-45.5244
-36.9885
-28.4931
-20.0456
-11.6532
-3.32337
4.93684
13.1202
21.2198
29.2289
37.1406
44.9481
52.645
60.2247
67.681
75.0076
82.1984
89.2474
96.1487
102.897
109.486
115.91
122.165
128.245
134.144
139.859
145.384
150.715
155.848
160.777
165.5
170.011
174.308
178.387
182.245
185.877
189.281
192.455
195.396
198.1
200.567
202.793
204.777
206.517
208.011
209.26
210.26
211.012
211.512
211.76
1588.25
1588.39
1588.68
1589.11
1589.68
1590.39
1591.24
1592.24
1593.36
1594.62
1596.01
1597.53
1599.17
1600.94
1602.82
1604.81
1606.92
1609.13
1611.43
1613.84
1616.33
1618.91
1621.57
1624.31
1627.11
1629.98
1632.91
1635.89
1638.91
1641.98
1645.08
1648.2
1651.35
1654.52
1657.7
1660.87
1664.05
1667.22
1670.37
1673.5
1676.6
1679.67
1682.7
1685.68
1688.6
1691.47
1694.27
1697
1699.65
1702.22
1704.69
1707.07
1709.35
1711.51
1713.56
1715.49
1717.29
1718.95
1720.48
1721.86
1723.09
1724.17
1725.08
1725.82
1726.39
1726.78
1726.99
1727
1726.83
1726.45
1725.86
1725.07
1724.06
1722.84
1721.39
1719.71
1717.8
1715.66
1713.27
1710.64
1707.77
1704.64
1701.26
1697.62
1693.72
1689.56
1685.13
1680.43
1675.47
1670.23
1664.72
1658.93
1652.86
1646.52
1639.89
1632.99
1625.8
1618.33
1610.58
1602.54
1594.22
1585.62
1576.73
1567.57
1558.12
1548.39
1538.38
1528.1
1517.54
1506.7
1495.59
1484.21
1472.57
1460.65
1448.47
1436.04
1423.34
1410.39
1397.19
1383.74
1370.04
1356.11
1341.94
1327.53
1312.9
1298.04
1282.96
1267.66
1252.16
1236.45
1220.53
1204.42
1188.12
1171.64
1154.97
1138.13
1121.12
1103.94
1086.61
1069.13
1051.5
1033.73
1015.82
997.791
979.637
961.368
942.99
924.51
905.933
887.267
868.518
849.693
830.798
811.841
792.827
773.763
754.658
735.516
716.346
697.153
677.946
658.731
639.514
620.303
601.105
581.927
562.775
543.656
524.579
505.548
486.572
467.658
448.811
430.04
411.35
392.749
374.244
355.84
337.546
319.367
301.311
283.383
265.591
247.941
230.439
213.091
195.904
178.885
162.038
145.371
128.889
112.598
96.5049
80.614
64.9316
49.4632
34.2143
19.1901
4.39597
-10.163
-24.4818
-38.5554
-52.3792
-65.9484
-79.2586
-92.3052
-105.084
-117.591
-129.821
-141.772
-153.439
-164.818
-175.907
-186.701
-197.198
-207.394
-217.287
-226.873
-236.151
-245.117
-253.769
-262.105
-270.124
-277.822
-285.2
-292.254
-298.984
-305.388
-311.466
-317.217
-322.64
-327.734
-332.499
-336.936
-341.044
-344.823
-348.274
-351.397
-354.194
-356.665
-358.811
-360.634
-362.135
-363.317
-364.18
-364.728
-364.962
-364.884
-364.499
-363.808
-362.815
-361.523
-359.936
-358.056
-355.889
-353.437
-350.706
-347.7
-344.422
-340.879
-337.075
-333.015
-328.705
-324.149
-319.354
-314.325
-309.069
-303.591
-297.897
-291.995
-285.89
-279.589
-273.099
-266.428
-259.581
-252.566
-245.391
-238.062
-230.588
-222.975
-215.232
-207.366
-199.384
-191.296
-183.107
-174.828
-166.464
-158.025
-149.519
-140.952
-132.334
-123.672
-114.973
-106.247
-97.5003
-88.7411
-79.9773
-71.2165
-62.4667
-53.7352
-45.0299
-36.3585
-27.7287
-19.148
-10.6238
-2.16345
6.22588
14.5368
22.7624
30.8957
38.9298
46.8579
54.6733
62.3697
69.9404
77.3793
84.68
91.8367
98.8432
105.694
112.383
118.905
125.254
131.426
137.415
143.216
148.824
154.236
159.445
164.449
169.242
173.821
178.183
182.323
186.238
189.924
193.379
196.6
199.584
202.329
204.832
207.091
209.105
210.87
212.387
213.654
214.669
215.432
215.94
216.192
1585.36
1585.51
1585.8
1586.25
1586.84
1587.58
1588.47
1589.5
1590.67
1591.98
1593.43
1595.01
1596.71
1598.55
1600.5
1602.57
1604.76
1607.05
1609.45
1611.95
1614.54
1617.22
1619.98
1622.82
1625.73
1628.71
1631.75
1634.84
1637.98
1641.16
1644.38
1647.63
1650.9
1654.19
1657.49
1660.79
1664.09
1667.38
1670.66
1673.92
1677.15
1680.34
1683.49
1686.6
1689.66
1692.65
1695.58
1698.44
1701.21
1703.91
1706.51
1709.01
1711.41
1713.7
1715.87
1717.93
1719.85
1721.64
1723.29
1724.79
1726.14
1727.33
1728.35
1729.21
1729.9
1730.4
1730.71
1730.84
1730.76
1730.49
1730.01
1729.32
1728.41
1727.27
1725.92
1724.33
1722.51
1720.44
1718.14
1715.59
1712.79
1709.73
1706.42
1702.85
1699.01
1694.9
1690.53
1685.89
1680.97
1675.78
1670.3
1664.55
1658.52
1652.2
1645.6
1638.71
1631.54
1624.09
1616.34
1608.31
1599.99
1591.39
1582.49
1573.32
1563.85
1554.11
1544.08
1533.76
1523.17
1512.3
1501.15
1489.73
1478.04
1466.08
1453.84
1441.35
1428.59
1415.58
1402.31
1388.79
1375.02
1361.01
1346.75
1332.26
1317.54
1302.59
1287.42
1272.03
1256.43
1240.62
1224.6
1208.38
1191.98
1175.38
1158.6
1141.64
1124.51
1107.22
1089.76
1072.16
1054.4
1036.5
1018.47
1000.31
982.022
963.62
945.107
926.491
907.777
888.973
870.085
851.12
832.084
812.984
793.827
774.621
755.371
736.085
716.77
697.433
678.08
658.718
639.356
619.999
600.654
581.33
562.032
542.768
523.545
504.369
485.248
466.189
447.199
428.284
409.452
390.709
372.063
353.519
335.086
316.769
298.576
280.512
262.585
244.802
227.167
209.689
192.373
175.226
158.254
141.463
124.858
108.447
92.2347
76.2272
60.43
44.849
29.4895
14.3569
-0.543316
-15.2061
-29.6263
-43.799
-57.7193
-71.3826
-84.7842
-97.9195
-110.784
-123.375
-135.686
-147.714
-159.456
-170.908
-182.065
-192.925
-203.485
-213.741
-223.691
-233.331
-242.658
-251.672
-260.368
-268.744
-276.8
-284.532
-291.94
-299.021
-305.774
-312.198
-318.292
-324.056
-329.487
-334.586
-339.353
-343.788
-347.889
-351.658
-355.096
-358.202
-360.977
-363.422
-365.539
-367.329
-368.794
-369.934
-370.753
-371.251
-371.433
-371.299
-370.853
-370.098
-369.036
-367.672
-366.009
-364.049
-361.798
-359.26
-356.437
-353.336
-349.961
-346.316
-342.407
-338.238
-333.816
-329.145
-324.232
-319.082
-313.701
-308.095
-302.272
-296.236
-289.996
-283.558
-276.928
-270.113
-263.122
-255.961
-248.637
-241.158
-233.531
-225.765
-217.867
-209.844
-201.706
-193.458
-185.111
-176.671
-168.146
-159.546
-150.877
-142.148
-133.367
-124.542
-115.682
-106.793
-97.8845
-88.964
-80.0394
-71.1188
-62.2098
-53.3202
-44.4581
-35.6312
-26.8471
-18.1135
-9.43786
-0.827682
7.70975
16.1671
24.5372
32.8131
40.9877
49.0541
57.0057
64.8358
72.5379
80.1055
87.5324
94.8125
101.94
108.908
115.712
122.346
128.804
135.082
141.173
147.073
152.777
158.28
163.579
168.667
173.542
178.199
182.634
186.844
190.825
194.574
198.088
201.363
204.398
207.189
209.734
212.031
214.078
215.874
217.416
218.704
219.736
220.513
221.029
221.285
1582.06
1582.21
1582.52
1582.99
1583.61
1584.38
1585.31
1586.38
1587.6
1588.97
1590.48
1592.13
1593.91
1595.82
1597.86
1600.02
1602.3
1604.69
1607.19
1609.79
1612.49
1615.29
1618.16
1621.12
1624.16
1627.26
1630.42
1633.65
1636.92
1640.23
1643.58
1646.97
1650.38
1653.8
1657.24
1660.68
1664.13
1667.56
1670.98
1674.38
1677.75
1681.09
1684.39
1687.64
1690.84
1693.98
1697.05
1700.05
1702.97
1705.81
1708.55
1711.2
1713.74
1716.17
1718.48
1720.67
1722.74
1724.66
1726.45
1728.08
1729.57
1730.89
1732.05
1733.04
1733.85
1734.48
1734.92
1735.16
1735.21
1735.05
1734.69
1734.11
1733.31
1732.28
1731.03
1729.54
1727.82
1725.85
1723.64
1721.18
1718.46
1715.49
1712.25
1708.75
1704.99
1700.95
1696.64
1692.05
1687.19
1682.04
1676.62
1670.9
1664.91
1658.62
1652.05
1645.19
1638.04
1630.59
1622.86
1614.83
1606.51
1597.91
1589.01
1579.81
1570.33
1560.57
1550.51
1540.17
1529.54
1518.63
1507.44
1495.97
1484.23
1472.21
1459.91
1447.35
1434.53
1421.44
1408.1
1394.5
1380.64
1366.54
1352.2
1337.61
1322.8
1307.74
1292.47
1276.97
1261.25
1245.33
1229.19
1212.86
1196.33
1179.6
1162.7
1145.61
1128.35
1110.92
1093.33
1075.58
1057.68
1039.64
1021.46
1003.15
984.715
966.162
947.497
928.727
909.859
890.898
871.853
852.729
833.533
814.273
794.956
775.587
756.175
736.726
717.247
697.745
678.228
658.702
639.175
619.653
600.144
580.654
561.192
541.763
522.376
503.036
483.752
464.53
445.378
426.302
407.309
388.406
369.6
350.899
332.308
313.836
295.488
277.271
259.192
241.258
223.474
205.849
188.387
171.096
153.981
137.05
120.307
103.76
87.4136
71.2742
55.3475
39.6392
24.1549
8.90001
-6.12006
-20.9
-35.4348
-49.7194
-63.7487
-77.5182
-91.023
-104.259
-117.221
-129.905
-142.308
-154.424
-166.25
-177.783
-189.019
-199.954
-210.585
-220.909
-230.922
-240.623
-250.007
-259.074
-267.82
-276.242
-284.34
-292.11
-299.552
-306.664
-313.443
-319.89
-326.002
-331.78
-337.222
-342.327
-347.096
-351.527
-355.622
-359.381
-362.803
-365.889
-368.64
-371.057
-373.142
-374.894
-376.317
-377.411
-378.179
-378.623
-378.745
-378.548
-378.033
-377.206
-376.067
-374.622
-372.872
-370.823
-368.478
-365.84
-362.915
-359.708
-356.221
-352.462
-348.433
-344.142
-339.593
-334.792
-329.745
-324.458
-318.936
-313.187
-307.216
-301.031
-294.638
-288.043
-281.254
-274.279
-267.124
-259.796
-252.304
-244.655
-236.857
-228.917
-220.843
-212.644
-204.326
-195.9
-187.372
-178.75
-170.044
-161.26
-152.408
-143.496
-134.531
-125.522
-116.478
-107.406
-98.314
-89.211
-80.1048
-71.0032
-61.9143
-52.8461
-43.8067
-34.8037
-25.8451
-16.9385
-8.09169
0.687924
9.39288
18.0157
26.5492
34.9863
43.3197
51.5425
59.648
67.6293
75.4798
83.1931
90.7627
98.1824
105.446
112.548
119.482
126.242
132.824
139.22
145.427
151.44
157.252
162.86
168.258
173.443
178.411
183.156
187.675
191.964
196.02
199.84
203.42
206.757
209.848
212.692
215.285
217.625
219.711
221.54
223.111
224.424
225.475
226.267
226.793
227.054
1578.33
1578.49
1578.82
1579.31
1579.96
1580.77
1581.74
1582.86
1584.14
1585.57
1587.15
1588.88
1590.74
1592.74
1594.88
1597.14
1599.52
1602.03
1604.64
1607.36
1610.19
1613.11
1616.12
1619.21
1622.38
1625.62
1628.93
1632.3
1635.72
1639.18
1642.68
1646.22
1649.78
1653.36
1656.96
1660.56
1664.16
1667.75
1671.33
1674.89
1678.42
1681.92
1685.38
1688.79
1692.15
1695.45
1698.68
1701.84
1704.92
1707.92
1710.82
1713.62
1716.33
1718.91
1721.39
1723.73
1725.95
1728.03
1729.97
1731.76
1733.39