/*--------------------------------*- C++ -*----------------------------------*\
| =========                 |                                                 |
| \\      /  F ield         | OpenFOAM: The Open Source CFD Toolbox           |
|  \\    /   O peration     | Version:  v2006                                 |
|   \\  /    A nd           | Website:  www.openfoam.com                      |
|    \\/     M anipulation  |                                                 |
\*---------------------------------------------------------------------------*/
FoamFile
{
    version     2.0;
    format      ascii;
    class       volScalarField;
    location    "0";
    object      alpha.water;
}
// * * * * * * * * * * * * * * * * * * * * * * * * * * * * * * * * * * * * * //

dimensions      [0 0 0 0 0 0 0];


internalField   nonuniform List<scalar> 
67500
(
0.996865
0.915212
0.266696
0.0488993
0.0771815
0.402178
0.413483
0.412156
0.412355
0.46382
0.533069
0.619685
0.751753
0.781403
0.781475
0.720378
0.687433
0.713815
0.715777
0.600744
0.161039
0.411512
0.955842
0.999983
0.999983
0.97388
0.902891
0.89602
0.950442
0.993284
1
1
1
1
1
1
1
1
1
1
1
1
1
1
1
1
1
1
1
1
1
1
1
1
1
1
1
1
1
1
1
1
1
1
1
1
1
1
1
1
1
1
1
1
1
1
1
1
1
1
1
1
1
1
1
1
1
1
1
1
1
1
1
1
1
1
1
1
1
1
1
1
1
1
1
1
1
1
1
1
1
1
1
1
1
1
1
1
1
1
1
1
1
1
1
1
1
1
1
1
1
1
1
1
1
1
1
1
1
1
1
1
1
1
1
1
1
1
1
1
1
1
1
1
1
1
1
1
1
1
1
1
1
1
1
1
1
1
1
1
1
1
1
1
1
1
1
1
1
1
1
1
1
1
1
1
1
1
1
1
1
1
1
1
1
1
1
1
1
1
1
1
1
1
1
1
1
1
1
1
1
1
1
1
1
1
1
1
1
1
1
1
1
1
1
1
1
1
1
1
1
1
1
1
1
1
1
1
1
1
1
1
1
1
1
1
1
1
1
1
1
1
1
1
1
1
1
1
1
1
1
1
1
1
1
1
1
1
1
1
1
1
1
1
1
1
1
1
1
1
1
1
1
1
1
1
1
1
1
1
1
1
1
1
1
1
1
1
1
1
1
1
1
1
1
1
1
1
1
1
1
1
1
1
1
1
1
1
1
1
1
1
1
1
1
1
1
1
1
1
1
1
1
1
1
1
1
1
1
1
1
1
1
1
1
1
1
1
1
1
1
1
1
1
1
1
1
1
1
1
1
1
1
1
1
1
1
1
1
1
1
1
1
1
1
1
1
1
1
1
1
1
1
1
1
1
1
1
1
1
1
1
1
1
1
1
1
1
1
1
1
1
1
1
1
1
1
1
1
1
1
1
1
1
1
1
1
1
1
1
1
1
1
1
1
1
1
1
1
1
1
1
1
1
1
1
1
1
1
1
1
1
1
1
1
1
1
1
1
1
0.996865
0.855488
0.0553562
0.102431
0.239694
0.19186
0.0224978
5.0876e-20
-5.26015e-26
-3.30014e-26
-4.64373e-25
3.33613e-37
-4.45521e-27
0.262489
0.230734
0.0731655
0.00350335
-1.04657e-20
0.0287704
0.157476
0.162768
0.130883
0.130455
0.444222
0.870265
0.487766
0.199369
0.199369
0.259891
0.887983
1
1
1
1
1
1
1
0.999954
0.999725
0.999786
0.99967
0.998602
0.997112
0.996438
0.996819
0.997833
0.998412
0.997459
0.994485
0.990085
0.985464
0.981893
0.980409
0.98077
0.982528
0.98512
0.987963
0.990624
0.992843
0.994533
0.995742
0.996553
0.997
0.997047
0.996997
0.9971
0.997534
0.998238
0.998983
0.999561
0.999889
0.999998
1
1
1
1
1
1
1
1
1
1
1
1
1
1
1
1
1
1
1
1
1
1
1
1
1
1
1
1
1
1
1
1
1
1
1
1
1
1
1
1
1
1
1
1
1
1
1
1
1
1
1
1
1
1
1
1
1
1
1
1
1
1
1
1
1
1
1
1
1
1
1
1
1
1
1
1
1
1
1
1
1
1
1
1
1
1
1
1
1
1
1
1
1
1
1
1
1
1
1
1
1
1
1
1
1
1
1
1
1
1
1
1
1
1
1
1
1
1
1
1
1
1
1
1
1
1
1
1
1
1
1
1
1
1
1
1
1
1
1
1
1
1
1
1
1
1
1
1
1
1
1
1
1
1
1
1
1
1
1
1
1
1
1
1
1
1
1
1
1
1
1
1
1
1
1
1
1
1
1
1
1
1
1
1
1
1
1
1
1
1
1
1
1
1
1
1
1
1
1
1
1
1
1
1
1
1
1
1
1
1
1
1
1
1
1
1
1
1
1
1
1
1
1
1
1
1
1
1
1
1
1
1
1
1
1
1
1
1
1
1
1
1
1
1
1
1
1
1
1
1
1
1
1
1
1
1
1
1
1
1
1
1
1
1
1
1
1
1
1
1
1
1
1
1
1
1
1
1
1
1
1
1
1
1
1
1
1
1
1
1
1
1
1
1
1
1
1
1
1
1
1
1
1
1
1
1
1
1
1
1
1
1
1
1
1
1
1
1
1
1
1
1
1
1
1
1
1
1
1
1
1
1
1
1
1
1
1
1
1
1
1
1
1
1
1
1
1
1
1
1
1
1
1
1
1
1
1
1
1
1
1
1
1
1
1
1
1
1
1
1
1
1
1
1
1
1
1
1
0.985972
0.638288
0.10163
0.0305341
0.0416733
2.0043e-20
2.09615e-20
9.6731e-07
9.9511e-08
1.06543e-23
-8.488e-23
1.7572e-08
-2.59423e-26
0.00319276
-2.1208e-20
-2.36327e-21
-8.0541e-22
-1.88992e-21
-4.35761e-21
0.0271178
0.443358
0.356424
0.17948
0.152238
0.152268
0.152238
0.488208
0.949147
1
1
1
0.996922
0.945938
0.907374
0.881858
0.860025
0.790379
0.691898
0.659589
0.667258
0.655114
0.61188
0.575462
0.573685
0.596596
0.625726
0.627916
0.585251
0.51176
0.442823
0.398253
0.37842
0.376595
0.385842
0.40483
0.430675
0.460649
0.491375
0.519235
0.542439
0.561185
0.575671
0.582007
0.580277
0.574437
0.571864
0.578154
0.59459
0.618294
0.644602
0.669736
0.692082
0.711538
0.728339
0.742683
0.755445
0.76533
0.77034
0.779895
0.795485
0.815937
0.83883
0.861741
0.883137
0.90244
0.919679
0.935094
0.948853
0.960991
0.971496
0.980353
0.987522
0.992964
0.996721
0.998947
0.999893
1
1
1
1
1
1
1
1
1
1
1
1
1
1
1
1
1
1
1
1
1
1
1
1
1
1
1
1
1
1
1
1
1
1
1
1
1
1
1
1
1
1
1
1
1
1
1
1
1
1
1
1
1
1
1
1
1
1
1
1
1
1
1
1
1
1
1
1
1
1
1
1
1
1
1
1
1
1
1
1
1
1
1
1
1
1
1
1
1
1
1
1
1
1
1
1
1
1
1
1
1
1
1
1
1
1
1
1
1
1
1
1
1
1
1
1
1
1
1
1
1
1
1
1
1
1
1
1
1
1
1
1
1
1
1
1
1
1
1
1
1
1
1
1
1
1
1
1
1
1
1
1
1
1
1
1
1
1
1
1
1
1
1
1
1
1
1
1
1
1
1
1
1
1
1
1
1
1
1
1
1
1
1
1
1
1
1
1
1
1
1
1
1
1
1
1
1
1
1
1
1
1
1
1
1
1
1
1
1
1
1
1
1
1
1
1
1
1
1
1
1
1
1
1
1
1
1
1
1
1
1
1
1
1
1
1
1
1
1
1
1
1
1
1
1
1
1
1
1
1
1
1
1
1
1
1
1
1
1
1
1
1
1
1
1
1
1
1
1
1
1
1
1
1
1
1
1
1
1
1
1
1
1
1
1
1
1
1
1
1
1
1
1
1
1
1
1
1
1
1
1
1
1
1
1
1
1
1
1
1
1
1
1
1
1
1
1
1
1
1
1
1
1
1
1
1
1
1
1
1
1
1
1
1
1
1
1
1
1
1
1
1
1
1
1
1
1
1
1
1
1
1
1
1
0.95522
0.344851
-1.12401e-19
0.0153816
-1.3089e-20
1.67297e-20
0.000133007
1.27931e-05
1.45713e-07
6.68911e-05
0.000203022
8.526e-05
-1.72168e-22
7.28113e-05
1.21742e-05
-1.26184e-25
-3.0972e-23
1.08899e-22
3.30006e-24
-4.33162e-22
0.729613
0.941035
0.913862
0.706413
0.756405
0.885502
0.986759
1
1
1
1
0.194277
-1.33906e-14
-7.84185e-15
-3.48885e-15
-1.07848e-15
-3.56727e-33
-6.24272e-33
-8.36973e-18
9.78011e-35
1.13709e-35
1.99066e-35
-4.73108e-35
-2.77065e-36
-1.29405e-37
2.91049e-36
1.52971e-36
-7.66043e-37
-3.87672e-37
-9.31729e-37
4.16337e-36
-1.43324e-37
-1.13522e-36
2.70583e-38
-1.89825e-37
-2.72298e-38
-6.12178e-40
-3.49687e-38
0
2.40067e-38
1.19602e-38
-2.15113e-41
-3.63451e-22
-1.68207e-21
-3.79249e-21
-5.19939e-21
-4.20492e-21
-1.36417e-21
-2.14154e-41
3.00346e-39
-4.71513e-39
0
3.00876e-39
-8.22719e-23
-1.06514e-21
1.60635e-23
0.00366188
0.015724
0.0302276
0.0475923
0.0679427
0.0912568
0.117318
0.145735
0.176322
0.209444
0.245505
0.284204
0.325024
0.368502
0.415802
0.466621
0.518854
0.570743
0.621364
0.669784
0.714905
0.756203
0.785478
0.804123
0.822157
0.840333
0.85835
0.87529
0.890505
0.904546
0.918724
0.933832
0.949354
0.96393
0.976391
0.986234
0.993406
0.997937
0.999865
1
1
1
1
1
1
1
1
1
1
1
1
1
1
1
1
1
1
1
1
1
1
1
1
1
1
1
1
1
1
1
1
1
1
1
1
1
1
1
1
1
1
1
1
1
1
1
1
1
1
1
1
1
1
1
1
1
1
1
1
1
1
1
1
1
1
1
1
1
1
1
1
1
1
1
1
1
1
1
1
1
1
1
1
1
1
1
1
1
1
1
1
1
1
1
1
1
1
1
1
1
1
1
1
1
1
1
1
1
1
1
1
1
1
1
1
1
1
1
1
1
1
1
1
1
1
1
1
1
1
1
1
1
1
1
1
1
1
1
1
1
1
1
1
1
1
1
1
1
1
1
1
1
1
1
1
1
1
1
1
1
1
1
1
1
1
1
1
1
1
1
1
1
1
1
1
1
1
1
1
1
1
1
1
1
1
1
1
1
1
1
1
1
1
1
1
1
1
1
1
1
1
1
1
1
1
1
1
1
1
1
1
1
1
1
1
1
1
1
1
1
1
1
1
1
1
1
1
1
1
1
1
1
1
1
1
1
1
1
1
1
1
1
1
1
1
1
1
1
1
1
1
1
1
1
1
1
1
1
1
1
1
1
1
1
1
1
1
1
1
1
1
1
1
1
1
1
1
1
1
1
1
1
1
1
1
1
1
1
1
1
1
1
1
1
1
1
1
1
1
1
1
1
1
1
1
1
1
1
1
1
1
1
1
1
1
1
1
1
1
1
1
1
1
1
1
1
1
1
1
1
1
1
1
1
0.945909
0.212438
-1.23234e-20
-2.38307e-20
0.00377321
0.00533237
6.96427e-05
9.5415e-06
0.00103036
0.00262724
0.000775326
2.81628e-24
2.68834e-06
0.00308862
0.0117019
0.00969366
0.0152849
0.0427983
0.00165216
0.0664911
0.779816
0.940666
0.709163
0.103617
9.11919e-20
-2.15987e-34
-5.58065e-20
0.163466
0.943502
1
0.25311
-2.49533e-20
-1.09243e-14
-6.38247e-15
-6.51088e-16
4.24072e-15
7.60279e-15
6.10239e-15
2.15952e-15
2.54459e-16
1.35456e-16
1.21652e-16
1.03762e-16
7.47601e-17
4.77471e-17
2.76237e-17
1.4772e-17
7.97331e-18
5.40885e-18
5.01542e-18
5.08118e-18
4.69062e-18
3.78681e-18
2.69836e-18
1.73187e-18
1.01986e-18
5.64294e-19
3.02467e-19
1.60015e-19
8.36836e-20
4.55685e-20
2.58968e-20
1.52144e-20
8.90897e-21
5.78054e-21
7.11002e-21
9.55198e-21
1.04898e-20
9.82791e-21
8.24258e-21
6.76914e-21
5.48161e-21
4.23277e-21
3.11406e-21
1.92579e-21
6.1985e-22
-1.04426e-21
-3.03271e-21
-4.63206e-21
-6.07621e-21
-7.45007e-21
-8.61459e-21
-8.85831e-21
-7.63382e-21
-5.80767e-21
-5.11798e-21
-4.99227e-21
-4.73849e-21
-4.16483e-21
-3.32604e-21
-2.48898e-21
-4.88391e-21
-3.41391e-20
-1.86324e-19
-3.73811e-21
-5.64617e-20
-2.86962e-22
-2.48727e-19
0.00942148
0.0282781
0.0498306
0.0734815
0.0970886
0.118081
0.136341
0.155652
0.182225
0.220789
0.271137
0.328401
0.388246
0.450883
0.518714
0.592081
0.669063
0.74696
0.815743
0.861158
0.90009
0.933518
0.959727
0.978839
0.991498
0.998296
1
1
1
1
1
1
1
1
1
1
1
1
1
1
1
1
1
1
1
1
1
1
1
1
1
1
1
1
1
1
1
1
1
1
1
1
1
1
1
1
1
1
1
1
1
1
1
1
1
1
1
1
1
1
1
1
1
1
1
1
1
1
1
1
1
1
1
1
1
1
1
1
1
1
1
1
1
1
1
1
1
1
1
1
1
1
1
1
1
1
1
1
1
1
1
1
1
1
1
1
1
1
1
1
1
1
1
1
1
1
1
1
1
1
1
1
1
1
1
1
1
1
1
1
1
1
1
1
1
1
1
1
1
1
1
1
1
1
1
1
1
1
1
1
1
1
1
1
1
1
1
1
1
1
1
1
1
1
1
1
1
1
1
1
1
1
1
1
1
1
1
1
1
1
1
1
1
1
1
1
1
1
1
1
1
1
1
1
1
1
1
1
1
1
1
1
1
1
1
1
1
1
1
1
1
1
1
1
1
1
1
1
1
1
1
1
1
1
1
1
1
1
1
1
1
1
1
1
1
1
1
1
1
1
1
1
1
1
1
1
1
1
1
1
1
1
1
1
1
1
1
1
1
1
1
1
1
1
1
1
1
1
1
1
1
1
1
1
1
1
1
1
1
1
1
1
1
1
1
1
1
1
1
1
1
1
1
1
1
1
1
1
1
1
1
1
1
1
1
1
1
1
1
1
1
1
1
1
1
1
1
1
1
1
1
1
1
1
1
1
1
1
1
1
1
1
0.947492
0.170089
1.17776e-19
0.0174501
0.084471
0.0273345
6.92889e-20
9.69144e-20
0.00356061
0.00225378
-1.54773e-24
3.6886e-25
-1.1804e-19
0.0279634
0.324256
0.510676
0.510624
0.477471
0.368226
0.255789
5.02048e-19
2.82691e-19
2.81874e-19
2.82691e-19
5.56589e-16
3.94799e-17
5.30567e-36
0.0988653
0.762818
0.418631
-1.18157e-20
-4.89561e-15
-1.02719e-14
-7.39975e-15
2.34835e-15
1.44963e-14
2.85938e-14
3.99383e-14
3.81514e-14
2.0297e-14
5.37999e-15
6.21473e-16
3.31233e-16
2.83407e-16
2.48918e-16
2.02973e-16
1.57888e-16
1.19558e-16
8.9343e-17
6.63609e-17
4.90459e-17
3.59363e-17
2.598e-17
1.84902e-17
1.29743e-17
9.01212e-18
6.22976e-18
4.30915e-18
2.99663e-18
2.10046e-18
1.48275e-18
1.05542e-18
7.56718e-19
5.44954e-19
3.93234e-19
2.84727e-19
2.07379e-19
1.53078e-19
1.15165e-19
8.85345e-20
6.96038e-20
5.57597e-20
4.50491e-20
3.61279e-20
2.80862e-20
2.04911e-20
1.37547e-20
8.68401e-21
4.47739e-21
9.1773e-22
-2.10685e-21
-4.54609e-21
-6.48489e-21
-8.03495e-21
-9.30455e-21
-1.04052e-20
-1.14837e-20
-1.26599e-20
-1.37161e-20
-1.39681e-20
-1.30122e-20
-1.1344e-20
-9.73124e-21
-8.19072e-21
-6.61821e-21
-5.09438e-21
-3.58294e-21
-2.0214e-21
-1.75769e-20
-6.17726e-21
-5.30227e-40
4.01297e-39
0
-2.52708e-19
-9.04617e-19
-1.814e-18
-2.7656e-18
-3.47442e-18
-3.73845e-18
-3.85495e-18
-3.28413e-18
-2.28585e-18
-1.25724e-18
-5.69619e-19
-8.16408e-20
-1.93382e-52
0.0121666
0.0598715
0.122839
0.199586
0.289126
0.388092
0.492863
0.600105
0.706016
0.806769
0.881403
0.927335
0.961036
0.983761
0.996148
0.999955
1
1
1
1
1
1
1
1
1
1
1
1
1
1
1
1
1
1
1
1
1
1
1
1
1
1
1
1
1
1
1
1
1
1
1
1
1
1
1
1
1
1
1
1
1
1
1
1
1
1
1
1
1
1
1
1
1
1
1
1
1
1
1
1
1
1
1
1
1
1
1
1
1
1
1
1
1
1
1
1
1
1
1
1
1
1
1
1
1
1
1
1
1
1
1
1
1
1
1
1
1
1
1
1
1
1
1
1
1
1
1
1
1
1
1
1
1
1
1
1
1
1
1
1
1
1
1
1
1
1
1
1
1
1
1
1
1
1
1
1
1
1
1
1
1
1
1
1
1
1
1
1
1
1
1
1
1
1
1
1
1
1
1
1
1
1
1
1
1
1
1
1
1
1
1
1
1
1
1
1
1
1
1
1
1
1
1
1
1
1
1
1
1
1
1
1
1
1
1
1
1
1
1
1
1
1
1
1
1
1
1
1
1
1
1
1
1
1
1
1
1
1
1
1
1
1
1
1
1
1
1
1
1
1
1
1
1
1
1
1
1
1
1
1
1
1
1
1
1
1
1
1
1
1
1
1
1
1
1
1
1
1
1
1
1
1
1
1
1
1
1
1
1
1
1
1
1
1
1
1
1
1
1
1
1
1
1
1
1
1
1
1
1
1
1
1
1
1
1
1
1
1
1
1
1
1
1
1
1
1
1
1
1
1
1
1
1
1
0.948034
0.164443
9.46205e-20
0.035699
0.209608
0.209525
0.209498
0.170424
0.00996623
-2.50453e-24
1.61261e-23
8.0878e-07
2.13496e-05
7.74588e-22
-6.00924e-23
-1.56133e-33
7.01236e-34
4.40033e-33
1.79347e-20
0.00845367
3.97514e-15
4.16059e-15
2.24639e-14
2.07284e-14
2.86751e-15
5.19431e-18
-2.42678e-20
0.0346326
0.143447
0.0060298
-6.36318e-16
-2.87695e-15
-5.73369e-15
-9.84212e-16
7.14133e-15
1.44028e-14
2.23207e-14
4.53013e-14
8.36979e-14
1.07996e-13
8.57623e-14
3.66729e-14
6.98595e-15
6.29341e-16
4.07989e-16
3.46406e-16
2.87971e-16
2.24935e-16
1.68938e-16
1.23699e-16
8.89369e-17
6.29605e-17
4.39427e-17
3.03182e-17
2.07877e-17
1.42631e-17
9.85941e-18
6.90101e-18
4.90407e-18
3.54025e-18
2.59473e-18
1.92857e-18
1.45248e-18
1.10814e-18
8.56998e-19
6.71301e-19
5.32372e-19
4.27418e-19
3.475e-19
2.86064e-19
2.38094e-19
1.99603e-19
1.67463e-19
1.39468e-19
1.14293e-19
9.13935e-20
7.09082e-20
5.33909e-20
3.91533e-20
2.79765e-20
1.93888e-20
1.28809e-20
7.98751e-21
4.30721e-21
1.50786e-21
-6.7339e-22
-2.43892e-21
-3.94185e-21
-5.29201e-21
-6.55624e-21
-7.75594e-21
-8.86741e-21
-9.83037e-21
-1.05617e-20
-1.0957e-20
-1.08684e-20
-1.00629e-20
-8.13158e-21
-4.43089e-21
1.7273e-21
1.21066e-20
3.02554e-20
5.94523e-20
8.79287e-20
3.49748e-20
-3.20324e-19
-1.24184e-18
-2.83513e-18
-4.84056e-18
-6.64178e-18
-7.50558e-18
-6.95763e-18
-4.98067e-18
-2.10036e-18
-7.86745e-20
3.85417e-19
1.21794e-35
-1.23731e-35
1.20573e-35
5.86894e-40
4.43387e-38
2.73868e-35
6.1666e-36
-5.27996e-36
0
-3.06181e-36
0.0403685
0.146756
0.278926
0.418162
0.554022
0.682353
0.800201
0.897617
0.950743
0.980382
0.995613
0.999977
1
1
1
1
1
1
1
1
1
1
1
1
1
1
1
1
1
1
1
1
1
1
1
1
1
1
1
1
1
1
1
1
1
1
1
1
1
1
1
1
1
1
1
1
1
1
1
1
1
1
1
1
1
1
1
1
1
1
1
1
1
1
1
1
1
1
1
1
1
1
1
1
1
1
1
1
1
1
1
1
1
1
1
1
1
1
1
1
1
1
1
1
1
1
1
1
1
1
1
1
1
1
1
1
1
1
1
1
1
1
1
1
1
1
1
1
1
1
1
1
1
1
1
1
1
1
1
1
1
1
1
1
1
1
1
1
1
1
1
1
1
1
1
1
1
1
1
1
1
1
1
1
1
1
1
1
1
1
1
1
1
1
1
1
1
1
1
1
1
1
1
1
1
1
1
1
1
1
1
1
1
1
1
1
1
1
1
1
1
1
1
1
1
1
1
1
1
1
1
1
1
1
1
1
1
1
1
1
1
1
1
1
1
1
1
1
1
1
1
1
1
1
1
1
1
1
1
1
1
1
1
1
1
1
1
1
1
1
1
1
1
1
1
1
1
1
1
1
1
1
1
1
1
1
1
1
1
1
1
1
1
1
1
1
1
1
1
1
1
1
1
1
1
1
1
1
1
1
1
1
1
1
1
1
1
1
1
1
1
1
1
1
1
1
1
1
1
1
1
1
1
1
1
1
1
1
1
1
1
1
1
1
0.918557
0.142843
1.52184e-23
0.00109574
0.00230065
0.108091
0.210673
0.210462
0.0666675
2.46862e-23
1.76959e-05
0.000571504
0.00133152
0.000415541
-1.26108e-21
3.45869e-15
9.27702e-15
9.35202e-15
1.29652e-14
1.29787e-14
2.63091e-13
7.15034e-14
2.43008e-13
1.12371e-13
-1.9006e-26
-5.27326e-24
4.33401e-06
0.000154151
1.35882e-19
2.08257e-17
5.681e-15
-5.7611e-16
-7.33019e-16
-2.32875e-25
1.90298e-24
-3.36516e-24
2.57435e-23
9.01785e-24
2.579e-24
1.08081e-13
1.93723e-13
2.13041e-13
1.34662e-13
4.2254e-14
4.10524e-15
4.78606e-16
4.31101e-16
3.72202e-16
2.98314e-16
2.26345e-16
1.65156e-16
1.17036e-16
8.11173e-17
5.5349e-17
3.74528e-17
2.53399e-17
1.72837e-17
1.1968e-17
8.45328e-18
6.10416e-18
4.50718e-18
3.39999e-18
2.61751e-18
2.05517e-18
1.64561e-18
1.34423e-18
1.11964e-18
9.48942e-19
8.15537e-19
7.07466e-19
6.16128e-19
5.35453e-19
4.61378e-19
3.91659e-19
3.25676e-19
2.64086e-19
2.08372e-19
1.60136e-19
1.20222e-19
8.84108e-20
6.37978e-20
4.52114e-20
3.14609e-20
2.14593e-20
1.42779e-20
9.16451e-21
5.53257e-21
2.93684e-21
1.04754e-21
-3.74689e-22
-1.50162e-21
-2.45461e-21
-3.31472e-21
-4.12448e-21
-4.87663e-21
-5.47991e-21
-5.68774e-21
-4.95716e-21
-2.19336e-21
4.67093e-21
1.9346e-20
4.8231e-20
1.0186e-19
1.9641e-19
3.53896e-19
5.98154e-19
9.42661e-19
1.36914e-18
1.80914e-18
2.15688e-18
2.34285e-18
2.46096e-18
2.86525e-18
4.03093e-18
6.14109e-18
8.68666e-18
1.10704e-17
1.37205e-17
1.57529e-17
1.67322e-17
1.64838e-17
1.5006e-17
1.25554e-17
9.10397e-18
5.30302e-18
9.12927e-19
-9.94902e-37
-2.81102e-28
-6.25984e-26
-2.00319e-26
7.29727e-28
-1.65804e-19
-3.15544e-20
0.027125
0.18764
0.38073
0.544148
0.685979
0.815305
0.922089
0.974879
0.99565
1
1
1
1
1
1
1
1
1
1
1
1
1
1
1
1
1
1
1
1
1
1
1
1
1
1
1
1
1
1
1
1
1
1
1
1
1
1
1
1
1
1
1
1
1
1
1
1
1
1
1
1
1
1
1
1
1
1
1
1
1
1
1
1
1
1
1
1
1
1
1
1
1
1
1
1
1
1
1
1
1
1
1
1
1
1
1
1
1
1
1
1
1
1
1
1
1
1
1
1
1
1
1
1
1
1
1
1
1
1
1
1
1
1
1
1
1
1
1
1
1
1
1
1
1
1
1
1
1
1
1
1
1
1
1
1
1
1
1
1
1
1
1
1
1
1
1
1
1
1
1
1
1
1
1
1
1
1
1
1
1
1
1
1
1
1
1
1
1
1
1
1
1
1
1
1
1
1
1
1
1
1
1
1
1
1
1
1
1
1
1
1
1
1
1
1
1
1
1
1
1
1
1
1
1
1
1
1
1
1
1
1
1
1
1
1
1
1
1
1
1
1
1
1
1
1
1
1
1
1
1
1
1
1
1
1
1
1
1
1
1
1
1
1
1
1
1
1
1
1
1
1
1
1
1
1
1
1
1
1
1
1
1
1
1
1
1
1
1
1
1
1
1
1
1
1
1
1
1
1
1
1
1
1
1
1
1
1
1
1
1
1
1
1
1
1
1
1
1
1
1
1
1
1
1
1
1
1
0.796577
0.0829477
-7.96452e-25
8.80813e-23
1.24251e-21
0.000197776
0.00112001
3.36652e-24
6.22044e-25
-4.35511e-22
9.80208e-05
0.00188117
0.00226265
0.00226363
0.000827718
2.8364e-15
3.13106e-15
2.8364e-15
2.83691e-14
6.1398e-13
6.06478e-13
5.63423e-13
5.6803e-13
2.74474e-13
-1.84158e-49
-3.48733e-26
-3.46802e-34
-5.38639e-23
-6.143e-21
-1.75588e-37
-4.51123e-35
-4.57004e-25
3.37937e-06
1.03588e-06
1.34265e-06
6.75393e-06
1.25862e-05
9.1774e-06
1.4517e-06
1.12481e-13
1.17016e-13
2.62429e-13
3.59652e-13
2.98706e-13
1.27771e-13
2.40888e-14
6.58881e-16
4.69484e-16
4.1807e-16
3.44891e-16
2.68061e-16
1.99444e-16
1.43727e-16
1.01299e-16
7.04642e-17
4.88098e-17
3.39585e-17
2.39112e-17
1.71442e-17
1.25706e-17
9.44971e-18
7.29059e-18
5.77196e-18
4.68443e-18
3.89105e-18
3.30128e-18
2.85335e-18
2.50309e-18
2.21785e-18
1.97347e-18
1.75275e-18
1.5446e-18
1.34324e-18
1.14739e-18
9.59176e-19
7.82849e-19
6.23262e-19
4.84399e-19
3.68187e-19
2.74245e-19
2.00532e-19
1.44163e-19
1.02024e-19
7.11438e-20
4.89057e-20
3.3131e-20
2.20851e-20
1.44316e-20
9.17028e-21
5.57045e-21
3.10733e-21
1.40961e-21
2.23046e-22
-6.07308e-22
-1.13008e-21
-1.24048e-21
-5.61893e-22
1.79859e-21
7.70368e-21
2.07637e-20
4.76046e-20
9.98318e-20
1.96847e-19
3.69535e-19
6.64457e-19
1.14758e-18
1.9062e-18
3.04704e-18
4.68886e-18
6.95036e-18
9.93602e-18
1.37251e-17
1.83672e-17
2.38787e-17
3.02117e-17
3.71824e-17
4.44194e-17
5.14453e-17
5.77602e-17
6.27254e-17
6.55588e-17
6.54861e-17
6.16865e-17
5.33044e-17
4.42949e-17
2.08769e-17
-2.11384e-34
1.79705e-09
1.7988e-08
3.005e-08
9.16074e-09
2.67172e-25
-8.29904e-26
0
1.40192e-32
-3.98463e-31
-7.48879e-31
-5.16636e-14
2.86751e-28
0.035612
0.281659
0.523178
0.68339
0.817155
0.933619
0.988025
0.99983
1
1
1
1
1
1
1
1
1
1
1
1
1
1
1
1
1
1
1
1
1
1
1
1
1
1
1
1
1
1
1
1
1
1
1
1
1
1
1
1
1
1
1
1
1
1
1
1
1
1
1
1
1
1
1
1
1
1
1
1
1
1
1
1
1
1
1
1
1
1
1
1
1
1
1
1
1
1
1
1
1
1
1
1
1
1
1
1
1
1
1
1
1
1
1
1
1
1
1
1
1
1
1
1
1
1
1
1
1
1
1
1
1
1
1
1
1
1
1
1
1
1
1
1
1
1
1
1
1
1
1
1
1
1
1
1
1
1
1
1
1
1
1
1
1
1
1
1
1
1
1
1
1
1
1
1
1
1
1
1
1
1
1
1
1
1
1
1
1
1
1
1
1
1
1
1
1
1
1
1
1
1
1
1
1
1
1
1
1
1
1
1
1
1
1
1
1
1
1
1
1
1
1
1
1
1
1
1
1
1
1
1
1
1
1
1
1
1
1
1
1
1
1
1
1
1
1
1
1
1
1
1
1
1
1
1
1
1
1
1
1
1
1
1
1
1
1
1
1
1
1
1
1
1
1
1
1
1
1
1
1
1
1
1
1
1
1
1
1
1
1
1
1
1
1
1
1
1
1
1
1
1
1
1
1
1
1
1
1
1
1
1
1
1
1
1
1
1
1
1
1
1
1
0.675972
0.00309715
3.26797e-19
5.96933e-11
1.53836e-09
1.67815e-11
1.43936e-23
5.8732e-06
1.22315e-06
-4.06997e-23
1.38726e-05
0.00052212
0.00187791
0.00226273
0.00226374
0.000533402
2.25838e-06
0.000274385
1.04298e-14
1.09468e-14
2.89198e-13
2.85624e-13
2.8205e-13
7.80422e-14
-8.3959e-26
1.00208e-23
9.18896e-06
8.43694e-05
0.000200486
0.000259555
0.000145949
0.000191075
0.00013898
2.11016e-05
8.39797e-05
0.000179683
0.000211892
0.000212742
0.000149927
3.33936e-05
1.42507e-06
2.71138e-13
3.21836e-13
4.79e-13
4.7262e-13
2.50886e-13
6.69532e-14
3.75534e-15
4.53904e-16
4.14263e-16
3.50998e-16
2.78685e-16
2.11002e-16
1.54551e-16
1.10904e-16
7.88697e-17
5.61782e-17
4.04587e-17
2.96946e-17
2.23465e-17
1.73136e-17
1.38391e-17
1.1414e-17
9.6967e-18
8.45588e-18
7.53187e-18
6.81197e-18
6.21484e-18
5.6819e-18
5.17309e-18
4.66448e-18
4.14633e-18
3.62047e-18
3.09702e-18
2.59077e-18
2.11754e-18
1.69104e-18
1.32053e-18
1.00972e-18
7.57135e-19
5.57557e-19
4.03763e-19
2.87874e-19
2.0229e-19
1.40225e-19
9.59486e-20
6.48303e-20
4.32551e-20
2.84813e-20
1.84804e-20
1.17813e-20
7.3355e-21
4.41289e-21
2.52984e-21
1.41553e-21
1.03343e-21
1.69612e-21
4.34518e-21
1.11144e-20
2.63556e-20
5.83808e-20
1.22237e-19
2.43814e-19
4.65426e-19
8.52652e-19
1.50161e-18
2.54518e-18
4.15629e-18
6.54592e-18
9.95372e-18
1.46301e-17
2.08099e-17
2.86779e-17
3.83284e-17
4.97178e-17
6.26069e-17
7.65029e-17
9.06476e-17
1.04077e-16
1.15802e-16
1.25348e-16
1.31793e-16
1.34295e-16
1.25663e-16
1.50781e-16
4.12284e-16
1.43742e-16
9.30669e-21
1.52066e-19
3.9294e-08
8.53802e-07
7.4278e-07
1.50094e-07
-1.40778e-24
1.27303e-27
4.92488e-13
5.23296e-13
4.17282e-30
9.24165e-11
3.16523e-26
7.58566e-27
-1.71246e-28
-7.20973e-19
-3.22691e-19
0.0342836
0.357875
0.634569
0.783186
0.907815
0.98428
0.999986
1
1
1
1
1
1
1
1
1
1
1
1
1
1
1
1
1
1
1
1
1
1
1
1
1
1
1
1
1
1
1
1
1
1
1
1
1
1
1
1
1
1
1
1
1
1
1
1
1
1
1
1
1
1
1
1
1
1
1
1
1
1
1
1
1
1
1
1
1
1
1
1
1
1
1
1
1
1
1
1
1
1
1
1
1
1
1
1
1
1
1
1
1
1
1
1
1
1
1
1
1
1
1
1
1
1
1
1
1
1
1
1
1
1
1
1
1
1
1
1
1
1
1
1
1
1
1
1
1
1
1
1
1
1
1
1
1
1
1
1
1
1
1
1
1
1
1
1
1
1
1
1
1
1
1
1
1
1
1
1
1
1
1
1
1
1
1
1
1
1
1
1
1
1
1
1
1
1
1
1
1
1
1
1
1
1
1
1
1
1
1
1
1
1
1
1
1
1
1
1
1
1
1
1
1
1
1
1
1
1
1
1
1
1
1
1
1
1
1
1
1
1
1
1
1
1
1
1
1
1
1
1
1
1
1
1
1
1
1
1
1
1
1
1
1
1
1
1
1
1
1
1
1
1
1
1
1
1
1
1
1
1
1
1
1
1
1
1
1
1
1
1
1
1
1
1
1
1
1
1
1
1
1
1
1
1
1
1
1
1
1
1
1
1
1
1
1
1
1
0.680308
-3.81337e-21
4.0466e-07
9.45673e-18
-1.37857e-27
4.65912e-25
1.90362e-06
2.05584e-05
2.06774e-05
3.19379e-06
-5.47684e-25
-1.31713e-24
1.60199e-30
0.000380791
0.000461916
6.37746e-05
0.000261417
0.00138686
0.00100386
0.000121627
0.000363726
3.35241e-05
5.40199e-14
5.39208e-14
1.28648e-14
3.78923e-15
3.85187e-15
0.000504128
0.00145083
0.00145066
0.00145083
0.000281412
0.000144242
4.05112e-05
0.000149347
0.000240772
0.000297854
0.00032763
0.000325963
0.000315725
0.00013683
1.59382e-05
3.31734e-13
3.78142e-13
5.72906e-13
5.99783e-13
3.706e-13
1.15827e-13
1.00491e-14
4.17965e-16
3.85948e-16
3.35927e-16
2.72883e-16
2.11015e-16
1.57963e-16
1.16208e-16
8.51904e-17
6.30404e-17
4.76375e-17
3.71107e-17
2.99927e-17
2.52038e-17
2.19752e-17
1.97659e-17
1.81954e-17
1.69933e-17
1.59674e-17
1.49834e-17
1.39547e-17
1.2836e-17
1.16181e-17
1.03205e-17
8.9818e-18
7.65027e-18
6.37443e-18
5.19603e-18
4.14546e-18
3.2397e-18
2.4827e-18
1.86772e-18
1.38081e-18
1.00421e-18
7.19075e-19
5.07388e-19
3.5305e-19
2.42401e-19
1.64307e-19
1.09995e-19
7.27446e-20
4.75318e-20
3.0681e-20
1.95541e-20
1.22943e-20
7.62854e-21
4.72895e-21
3.14321e-21
2.81991e-21
4.28632e-21
9.08181e-21
2.06158e-20
4.57015e-20
9.70964e-20
1.97419e-19
3.84726e-19
7.19757e-19
1.29429e-18
2.2393e-18
3.73101e-18
5.99246e-18
9.28802e-18
1.39092e-17
2.015e-17
2.82733e-17
3.84662e-17
5.0789e-17
6.51143e-17
8.10594e-17
9.79335e-17
1.14702e-16
1.30352e-16
1.45847e-16
1.53111e-16
1.90703e-16
1.58694e-16
1.49897e-16
7.61785e-15
2.33436e-14
6.19641e-15
8.54263e-16
1.10101e-30
1.24784e-06
3.84835e-06
3.50937e-06
7.27184e-07
1.45177e-08
5.35561e-11
8.53734e-14
-1.65792e-30
2.86997e-10
7.20759e-09
7.94507e-09
1.81602e-09
-8.57695e-25
-5.11799e-26
-1.5169e-20
-1.22859e-21
1.92405e-29
1.99686e-29
0
0.287799
0.660607
0.823092
0.93635
0.993501
1
1
1
1
1
1
1
1
1
1
1
1
1
1
1
1
1
1
1
1
1
1
1
1
1
1
1
1
1
1
1
1
1
1
1
1
1
1
1
1
1
1
1
1
1
1
1
1
1
1
1
1
1
1
1
1
1
1
1
1
1
1
1
1
1
1
1
1
1
1
1
1
1
1
1
1
1
1
1
1
1
1
1
1
1
1
1
1
1
1
1
1
1
1
1
1
1
1
1
1
1
1
1
1
1
1
1
1
1
1
1
1
1
1
1
1
1
1
1
1
1
1
1
1
1
1
1
1
1
1
1
1
1
1
1
1
1
1
1
1
1
1
1
1
1
1
1
1
1
1
1
1
1
1
1
1
1
1
1
1
1
1
1
1
1
1
1
1
1
1
1
1
1
1
1
1
1
1
1
1
1
1
1
1
1
1
1
1
1
1
1
1
1
1
1
1
1
1
1
1
1
1
1
1
1
1
1
1
1
1
1
1
1
1
1
1
1
1
1
1
1
1
1
1
1
1
1
1
1
1
1
1
1
1
1
1
1
1
1
1
1
1
1
1
1
1
1
1
1
1
1
1
1
1
1
1
1
1
1
1
1
1
1
1
1
1
1
1
1
1
1
1
1
1
1
1
1
1
1
1
1
1
1
1
1
1
1
1
1
1
1
1
1
1
1
1
0.68865
-2.59311e-21
1.34324e-09
3.08672e-05
6.23635e-06
3.17271e-25
3.32316e-25
1.32315e-05
1.40161e-05
3.04359e-06
1.54458e-21
1.33489e-21
1.74071e-11
-3.23591e-21
6.28067e-22
1.83448e-21
2.55763e-20
0.00309666
0.015328
0.00875596
0.0022995
0.000611587
0.000203729
3.98242e-15
3.91479e-15
3.85187e-15
0.000125108
0.000515061
0.00145066
0.00139268
6.66542e-05
3.49645e-05
7.18113e-05
2.18685e-05
8.14356e-06
3.19449e-21
3.19449e-21
1.94668e-05
9.70372e-05
0.000230857
0.000276889
0.000246025
4.76285e-05
3.95073e-13
4.39754e-13
5.96763e-13
6.16977e-13
4.37016e-13
1.40093e-13
1.20315e-14
3.76108e-16
3.50907e-16
3.10304e-16
2.56443e-16
2.0243e-16
1.55672e-16
1.18812e-16
9.15851e-17
7.24334e-17
5.94998e-17
5.10844e-17
4.57913e-17
4.25339e-17
4.04872e-17
3.90341e-17
3.77248e-17
3.62501e-17
3.44248e-17
3.21741e-17
2.95158e-17
2.65365e-17
2.33647e-17
2.0143e-17
1.70063e-17
1.40668e-17
1.14057e-17
9.07148e-18
7.08264e-18
5.43267e-18
4.097e-18
3.03993e-18
2.2207e-18
1.59809e-18
1.13352e-18
7.92842e-19
5.47083e-19
3.72558e-19
2.50466e-19
1.66279e-19
1.09033e-19
7.06296e-20
4.52017e-20
2.858e-20
1.78587e-20
1.10639e-20
6.91941e-21
4.71943e-21
4.33529e-21
6.41886e-21
1.29129e-20
2.80422e-20
6.00287e-20
1.23817e-19
2.45081e-19
4.65631e-19
8.50016e-19
1.49262e-18
2.52391e-18
4.11404e-18
6.47164e-18
9.83584e-18
1.44605e-17
2.0591e-17
2.84343e-17
3.81239e-17
4.96818e-17
6.29749e-17
7.76651e-17
9.3056e-17
1.08349e-16
1.25341e-16
7.18937e-17
4.71237e-17
8.94816e-15
3.03045e-15
6.70659e-16
4.9413e-13
3.14433e-13
3.27872e-29
-3.10702e-31
-5.96608e-23
3.09559e-06
4.54358e-06
4.54357e-06
2.84015e-06
6.53532e-08
2.69915e-16
2.42325e-16
8.07608e-18
2.32387e-17
3.49641e-20
3.47016e-07
1.07709e-06
3.54344e-07
9.37311e-24
-8.02635e-31
1.36873e-11
2.54561e-11
-3.25036e-28
-7.88716e-29
-1.89939e-29
-1.90334e-18
0.0103252
0.441432
0.777092
0.908219
0.98377
1
1
1
1
1
1
1
1
1
1
1
1
1
1
1
1
1
1
1
1
1
1
1
1
1
1
1
1
1
1
1
1
1
1
1
1
1
1
1
1
1
1
1
1
1
1
1
1
1
1
1
1
1
1
1
1
1
1
1
1
1
1
1
1
1
1
1
1
1
1
1
1
1
1
1
1
1
1
1
1
1
1
1
1
1
1
1
1
1
1
1
1
1
1
1
1
1
1
1
1
1
1
1
1
1
1
1
1
1
1
1
1
1
1
1
1
1
1
1
1
1
1
1
1
1
1
1
1
1
1
1
1
1
1
1
1
1
1
1
1
1
1
1
1
1
1
1
1
1
1
1
1
1
1
1
1
1
1
1
1
1
1
1
1
1
1
1
1
1
1
1
1
1
1
1
1
1
1
1
1
1
1
1
1
1
1
1
1
1
1
1
1
1
1
1
1
1
1
1
1
1
1
1
1
1
1
1
1
1
1
1
1
1
1
1
1
1
1
1
1
1
1
1
1
1
1
1
1
1
1
1
1
1
1
1
1
1
1
1
1
1
1
1
1
1
1
1
1
1
1
1
1
1
1
1
1
1
1
1
1
1
1
1
1
1
1
1
1
1
1
1
1
1
1
1
1
1
1
1
1
1
1
1
1
1
1
1
1
1
1
1
1
1
0.689103
-1.50778e-25
7.4661e-06
3.34086e-05
1.0661e-05
1.75811e-23
2.66582e-09
4.16774e-27
7.09512e-22
8.38456e-06
0.000439094
0.00056744
1.8091e-11
0.0018626
-1.61841e-20
0.00532477
0.0107034
0.0664828
0.080997
0.0517447
0.00138034
0.000659562
0.00208245
0.00149394
0.000201889
0.00108927
0.00264428
0.00265936
0.00140056
7.30935e-05
-1.59027e-23
-1.48925e-24
-7.64057e-21
0.00289333
0.00681101
0.0020282
1.71451e-05
1.947e-24
-1.71441e-27
-5.30781e-27
0.000153176
0.000259386
0.000263334
5.9151e-05
4.57639e-13
4.76054e-13
5.7289e-13
6.13763e-13
4.03441e-13
1.08743e-13
4.50714e-15
3.35666e-16
3.16516e-16
2.79621e-16
2.33713e-16
1.89537e-16
1.5296e-16
1.2561e-16
1.06722e-16
9.47423e-17
8.80796e-17
8.50261e-17
8.38209e-17
8.31756e-17
8.2303e-17
8.068e-17
7.77895e-17
7.35078e-17
6.79715e-17
6.14845e-17
5.44311e-17
4.71992e-17
4.01283e-17
3.34812e-17
2.7438e-17
2.21015e-17
1.75099e-17
1.36513e-17
1.04786e-17
7.9223e-18
5.90173e-18
4.33335e-18
3.13696e-18
2.23946e-18
1.57701e-18
1.09565e-18
7.51194e-19
5.0834e-19
3.39591e-19
2.23991e-19
1.45894e-19
9.38477e-20
5.96235e-20
3.74166e-20
2.32093e-20
1.42863e-20
8.89129e-21
6.02482e-21
5.40332e-21
7.62774e-21
1.46516e-20
3.06829e-20
6.36911e-20
1.27697e-19
2.45962e-19
4.55051e-19
8.09474e-19
1.38632e-18
2.28898e-18
3.64891e-18
5.62449e-18
8.39646e-18
1.21601e-17
1.71153e-17
2.34553e-17
3.13565e-17
4.09671e-17
5.23718e-17
6.54396e-17
7.93634e-17
9.0148e-17
6.73712e-17
4.70655e-17
9.23083e-14
1.58528e-13
2.31283e-14
4.38206e-15
6.63089e-11
9.59413e-11
2.73072e-11
-1.08449e-28
0
4.07043e-06
4.54358e-06
2.92706e-06
8.54404e-08
2.87977e-16
1.49506e-12
8.68384e-13
1.21302e-13
8.07158e-29
0
3.95892e-05
3.54019e-05
6.21152e-06
-1.86787e-22
1.50009e-11
1.98088e-10
3.85388e-10
9.22021e-11
4.14827e-27
-3.12479e-29
-2.08927e-27
-3.62623e-28
6.01447e-31
-2.14036e-32
0.247513
0.731753
0.916406
0.988463
1
1
1
1
1
1
1
1
1
1
1
1
1
1
1
1
1
1
1
1
1
1
1
1
1
1
1
1
1
1
1
1
1
1
1
1
1
1
1
1
1
1
1
1
1
1
1
1
1
1
1
1
1
1
1
1
1
1
1
1
1
1
1
1
1
1
1
1
1
1
1
1
1
1
1
1
1
1
1
1
1
1
1
1
1
1
1
1
1
1
1
1
1
1
1
1
1
1
1
1
1
1
1
1
1
1
1
1
1
1
1
1
1
1
1
1
1
1
1
1
1
1
1
1
1
1
1
1
1
1
1
1
1
1
1
1
1
1
1
1
1
1
1
1
1
1
1
1
1
1
1
1
1
1
1
1
1
1
1
1
1
1
1
1
1
1
1
1
1
1
1
1
1
1
1
1
1
1
1
1
1
1
1
1
1
1
1
1
1
1
1
1
1
1
1
1
1
1
1
1
1
1
1
1
1
1
1
1
1
1
1
1
1
1
1
1
1
1
1
1
1
1
1
1
1
1
1
1
1
1
1
1
1
1
1
1
1
1
1
1
1
1
1
1
1
1
1
1
1
1
1
1
1
1
1
1
1
1
1
1
1
1
1
1
1
1
1
1
1
1
1
1
1
1
1
1
1
1
1
1
1
1
1
1
1
1
1
1
1
1
0.297613
-6.95175e-24
1.59449e-05
2.24829e-05
2.98718e-06
4.89233e-07
1.00154e-08
-1.60473e-20
0.000347444
0.0108577
0.00812629
0.00203704
0.015633
0.0517241
0.018415
0.0831986
0.083429
0.0821292
0.0805353
0.0349237
0.00105224
7.49737e-06
8.27874e-06
0.000524245
0.00359407
0.00360788
0.00360764
0.00173748
9.75297e-05
-2.25987e-23
1.50771e-09
8.28797e-27
1.31354e-26
0.00724003
0.0179473
0.0184318
0.00295399
7.21423e-21
4.14381e-10
7.25698e-10
6.57974e-10
0.000104006
0.000259386
0.000146977
4.82732e-06
4.93603e-13
4.99302e-13
5.97388e-13
6.03918e-13
3.02958e-13
5.53482e-14
3.99905e-16
3.01902e-16
2.81462e-16
2.47123e-16
2.11977e-16
1.85102e-16
1.69712e-16
1.62466e-16
1.60494e-16
1.62641e-16
1.66309e-16
1.69464e-16
1.70481e-16
1.68326e-16
1.62821e-16
1.54342e-16
1.42835e-16
1.29058e-16
1.14041e-16
9.87561e-17
8.39746e-17
7.02286e-17
5.7835e-17
4.69406e-17
3.75693e-17
2.96621e-17
2.31071e-17
1.7763e-17
1.34754e-17
1.00885e-17
7.45361e-18
5.43455e-18
3.91031e-18
2.77661e-18
1.94572e-18
1.34563e-18
9.18487e-19
6.18799e-19
4.11518e-19
2.70161e-19
1.751e-19
1.12047e-19
7.07945e-20
4.41725e-20
2.72405e-20
1.66669e-20
1.02883e-20
6.83043e-21
5.79535e-21
7.53968e-21
1.35963e-20
2.73169e-20
5.49263e-20
1.07069e-19
2.00879e-19
3.62522e-19
6.30044e-19
1.05632e-18
1.71186e-18
2.68753e-18
4.09758e-18
6.08393e-18
8.82356e-18
1.25409e-17
1.75279e-17
2.41704e-17
3.29573e-17
4.43573e-17
5.82794e-17
7.04593e-17
6.40786e-17
4.71234e-17
2.0071e-13
5.80347e-13
1.99142e-13
3.39969e-15
3.10446e-10
8.02731e-10
3.36212e-10
2.82492e-27
1.90327e-07
5.34969e-07
2.11778e-07
1.24293e-12
1.40107e-12
5.78923e-12
1.11396e-11
9.36487e-12
1.69573e-12
-7.08144e-29
4.06979e-07
6.71791e-05
6.73929e-05
6.27742e-05
5.27892e-06
-6.64317e-23
-8.34462e-23
2.23296e-09
5.32933e-09
3.0661e-09
1.18653e-11
3.41643e-28
-7.26831e-32
1.19997e-13
1.37725e-14
6.24157e-28
1.09541e-28
-7.0718e-29
0.227192
0.757688
0.95739
0.998771
1
1
1
1
1
1
1
1
1
1
1
1
1
1
1
1
1
1
1
1
1
1
1
1
1
1
1
1
1
1
1
1
1
1
1
1
1
1
1
1
1
1
1
1
1
1
1
1
1
1
1
1
1
1
1
1
1
1
1
1
1
1
1
1
1
1
1
1
1
1
1
1
1
1
1
1
1
1
1
1
1
1
1
1
1
1
1
1
1
1
1
1
1
1
1
1
1
1
1
1
1
1
1
1
1
1
1
1
1
1
1
1
1
1
1
1
1
1
1
1
1
1
1
1
1
1
1
1
1
1
1
1
1
1
1
1
1
1
1
1
1
1
1
1
1
1
1
1
1
1
1
1
1
1
1
1
1
1
1
1
1
1
1
1
1
1
1
1
1
1
1
1
1
1
1
1
1
1
1
1
1
1
1
1
1
1
1
1
1
1
1
1
1
1
1
1
1
1
1
1
1
1
1
1
1
1
1
1
1
1
1
1
1
1
1
1
1
1
1
1
1
1
1
1
1
1
1
1
1
1
1
1
1
1
1
1
1
1
1
1
1
1
1
1
1
1
1
1
1
1
1
1
1
1
1
1
1
1
1
1
1
1
1
1
1
1
1
1
1
1
1
1
1
1
1
1
1
1
1
1
1
1
1
1
1
1
1
0.0506773
-5.89697e-27