/*--------------------------------*- C++ -*----------------------------------*\
| =========                 |                                                 |
| \\      /  F ield         | OpenFOAM: The Open Source CFD Toolbox           |
|  \\    /   O peration     | Version:  v2006                                 |
|   \\  /    A nd           | Website:  www.openfoam.com                      |
|    \\/     M anipulation  |                                                 |
\*---------------------------------------------------------------------------*/
FoamFile
{
    version     2.0;
    format      ascii;
    class       volScalarField;
    location    "9.25";
    object      r;
}
// * * * * * * * * * * * * * * * * * * * * * * * * * * * * * * * * * * * * * //

dimensions      [1 2 0 0 0 0 0];


internalField   nonuniform List<scalar> 
500
(
9.25318e-55
4.08407e-54
1.16242e-53
2.94379e-53
7.1275e-53
1.69134e-52
3.97276e-52
9.2756e-52
2.15661e-51
4.99721e-51
1.15441e-50
2.65913e-50
6.10784e-50
1.399e-49
3.19548e-49
7.27847e-49
1.65321e-48
3.74456e-48
8.45772e-48
1.90496e-47
4.27851e-47
9.58241e-47
2.14007e-46
4.76598e-46
1.05838e-45
2.34368e-45
5.17506e-45
1.13944e-44
2.50166e-44
5.47672e-44
1.19554e-43
2.60233e-43
5.64816e-43
1.22236e-42
2.63776e-42
5.67563e-42
1.21768e-41
2.60489e-41
5.55626e-41
1.18171e-40
2.50592e-40
5.29853e-40
1.11705e-39
2.34807e-39
4.92125e-39
1.0284e-38
2.14272e-38
4.45129e-38
9.21983e-38
1.90403e-37
3.92043e-37
8.0483e-37
1.64734e-36
3.36175e-36
6.83994e-36
1.38752e-35
2.80627e-35
5.65868e-35
1.13762e-34
2.28021e-34
4.55663e-34
9.07827e-34
1.80323e-33
3.57099e-33
7.05035e-33
1.38777e-32
2.72336e-32
5.32811e-32
1.03925e-31
2.0209e-31
3.91783e-31
7.57218e-31
1.45904e-30
2.80277e-30
5.36754e-30
1.02478e-29
1.95054e-29
3.70121e-29
7.00159e-29
1.32042e-28
2.48249e-28
4.6529e-28
8.69397e-28
1.61946e-27
3.00731e-27
5.56724e-27
1.02744e-26
1.89027e-26
3.46692e-26
6.33889e-26
1.1554e-25
2.09942e-25
3.80287e-25
6.86706e-25
1.23616e-24
2.21831e-24
3.96837e-24
7.07693e-24
1.25811e-23
2.22963e-23
3.93899e-23
6.93707e-23
1.21788e-22
2.13143e-22
3.71856e-22
6.46714e-22
1.12121e-21
1.93773e-21
3.33836e-21
5.73334e-21
9.81553e-21
1.67515e-20
2.84985e-20
4.83307e-20
8.17062e-20
1.37695e-19
2.31318e-19
3.87374e-19
6.46667e-19
1.07612e-18
1.78512e-18
2.95192e-18
4.86597e-18
7.99581e-18
1.30973e-17
2.13861e-17
3.48104e-17
5.64824e-17
9.13577e-17
1.47301e-16
2.36752e-16
3.79323e-16
6.05833e-16
9.64551e-16
1.53083e-15
2.4219e-15
3.81957e-15
6.00484e-15
9.41063e-15
1.47017e-14
2.28952e-14
3.55428e-14
5.50036e-14
8.48521e-14
1.30487e-13
2.00033e-13
3.05683e-13
4.65666e-13
7.07152e-13
1.0705e-12
1.61546e-12
2.43019e-12
3.64439e-12
5.44812e-12
8.11909e-12
1.20617e-11
1.78629e-11
2.63715e-11
3.88117e-11
5.69421e-11
8.32816e-11
1.21426e-10
1.7649e-10
2.55728e-10
3.69391e-10
5.31917e-10
7.63579e-10
1.09274e-09
1.55896e-09
2.21722e-09
3.1437e-09
4.44356e-09
6.26155e-09
8.79619e-09
1.23189e-08
1.71993e-08
2.39397e-08
3.32195e-08
4.59556e-08
6.33804e-08
8.71454e-08
1.19456e-07
1.63249e-07
2.22418e-07
3.02115e-07
4.09124e-07
5.5236e-07
7.43493e-07
9.97744e-07
1.33491e-06
1.78065e-06
2.36809e-06
3.1399e-06
4.15081e-06
5.4708e-06
7.18906e-06
9.41889e-06
1.23037e-05
1.60244e-05
2.08086e-05
2.69413e-05
3.47787e-05
4.4764e-05
5.7447e-05
7.35076e-05
9.37834e-05
0.000119303
0.000151325
0.000191385
0.000241348
0.000303476
0.000380496
0.000475691
0.000592996
0.000737112
0.000913637
0.00112921
0.00139169
0.00171032
0.00209596
0.00256132
0.00312122
0.00379285
0.00459613
0.00555403
0.00669295
0.00804309
0.00963894
0.0115197
0.0137296
0.0163189
0.0193436
0.0228668
0.0269587
0.0316973
0.0371688
0.0434684
0.0507003
0.0589787
0.0684278
0.079182
0.0913866
0.105198
0.120782
0.138316
0.157989
0.179999
0.204554
0.23187
0.262171
0.295691
0.332665
0.373335
0.417947
0.466744
0.519972
0.577869
0.640672
0.708606
0.781887
0.860719
0.945288
1.03576
1.13229
1.23499
1.34396
1.45926
1.58095
1.70901
1.84341
1.9841
2.13096
2.28386
2.44261
2.60699
2.77675
2.9516
3.1312
3.31519
3.50319
3.69476
3.88945
4.08679
4.28628
4.48741
4.68966
4.89248
5.09534
5.2977
5.49901
5.69874
5.89636
6.09136
6.28325
6.47154
6.65577
6.83552
7.01037
7.17995
7.34388
7.50186
7.65357
7.79875
7.93715
8.06857
8.19279
8.30967
8.41905
8.5208
8.61483
8.70105
8.77937
8.84974
8.9121
8.96641
9.01264
9.05075
9.08071
9.1025
9.1161
9.12149
9.11864
9.10755
9.08818
9.06055
9.02462
8.98041
8.92792
8.86716
8.79816
8.72095
8.63558
8.54214
8.44069
8.33137
8.2143
8.08963
7.95757
7.81831
7.67212
7.51925
7.36001
7.19475
7.02381
6.84759
6.66651
6.48102
6.29159
6.09869
5.90285
5.70458
5.50442
5.30291
5.1006
4.89804
4.69578
4.49435
4.29428
4.0961
3.90029
3.70733
3.51768
3.33176
3.14997
2.97267
2.80018
2.63282
2.47083
2.31444
2.16384
2.01919
1.88058
1.7481
1.6218
1.50169
1.38774
1.27991
1.17813
1.08228
0.992244
0.907877
0.829014
0.755476
0.687069
0.623589
0.564825
0.510556
0.460559
0.414609
0.372479
0.333943
0.298778
0.266767
0.237695
0.211354
0.187544
0.166073
0.146756
0.129418
0.113892
0.100021
0.087658
0.0766639
0.0669098
0.0582759
0.050651
0.0439327
0.0380267
0.0328465
0.0283134
0.0243555
0.0209076
0.0179107
0.0153118
0.013063
0.0111216
0.0094492
0.0080118
0.00677911
0.00572432
0.00482374
0.00405653
0.00340437
0.00285123
0.00238309
0.00198776
0.00165464
0.00137455
0.00113955
0.00094282
0.000778474
0.000641479
0.000527526
0.000432943
0.000354604
0.000289858
0.000236458
0.000192511
0.000156419
0.00012684
0.00010265
8.29081e-05
6.68304e-05
5.3764e-05
4.31668e-05
3.45901e-05
2.76629e-05
2.20795e-05
1.75886e-05
1.39836e-05
1.10959e-05
8.78729e-06
6.94549e-06
5.47907e-06
4.31389e-06
3.38993e-06
2.65873e-06
2.08123e-06
1.62604e-06
1.26797e-06
9.86853e-07
7.66597e-07
5.94366e-07
4.59953e-07
3.55262e-07
2.7388e-07
2.10742e-07
1.61853e-07
1.24072e-07
9.49315e-08
7.24991e-08
5.52641e-08
4.20477e-08
3.19324e-08
2.42055e-08
1.83144e-08
1.38314e-08
1.04265e-08
7.84531e-09
5.89229e-09
4.41734e-09
3.30555e-09
2.46907e-09
1.84091e-09
1.37007e-09
1.0178e-09
7.54744e-10
5.58665e-10
4.12783e-10
3.04447e-10
2.24142e-10
1.64724e-10
1.20842e-10
8.84927e-11
6.46901e-11
4.72127e-11
3.44189e-11
2.51256e-11
1.85785e-11
1.46379e-11
)
;

boundaryField
{
    right
    {
        type            zeroGradient;
    }
    left
    {
        type            inletOutlet;
        inletValue      uniform 0;
        value           uniform 0;
    }
    top
    {
        type            zeroGradient;
    }
    bottom
    {
        type            zeroGradient;
    }
    empty
    {
        type            empty;
    }
}


// ************************************************************************* //
