/*--------------------------------*- C++ -*----------------------------------*\
| =========                 |                                                 |
| \\      /  F ield         | OpenFOAM: The Open Source CFD Toolbox           |
|  \\    /   O peration     | Version:  v2006                                 |
|   \\  /    A nd           | Website:  www.openfoam.com                      |
|    \\/     M anipulation  |                                                 |
\*---------------------------------------------------------------------------*/
FoamFile
{
    version     2.0;
    format      ascii;
    class       volVectorField;
    location    "0";
    object      U;
}
// * * * * * * * * * * * * * * * * * * * * * * * * * * * * * * * * * * * * * //

dimensions      [0 1 -1 0 0 0 0];


internalField   nonuniform List<vector> 
67500
(
(-0.0122768 0.00894982 0)
(-0.0230795 -0.00628338 0)
(0.0136262 -0.0178542 0)
(0.0507191 -0.0205664 0)
(0.0903613 -0.0185743 0)
(0.124751 -0.0151021 0)
(0.152044 -0.0119894 0)
(0.17379 -0.00994746 0)
(0.192351 -0.00897898 0)
(0.209784 -0.0087831 0)
(0.227416 -0.00902991 0)
(0.245865 -0.00947315 0)
(0.265305 -0.00996267 0)
(0.285715 -0.0104216 0)
(0.306996 -0.0108184 0)
(0.329013 -0.0111434 0)
(0.351615 -0.0113937 0)
(0.374646 -0.0115673 0)
(0.397948 -0.0116631 0)
(0.421364 -0.0116813 0)
(0.444738 -0.0116245 0)
(0.467924 -0.0114979 0)
(0.490785 -0.0113092 0)
(0.513208 -0.0110683 0)
(0.535096 -0.0107858 0)
(0.556379 -0.0104717 0)
(0.577002 -0.0101353 0)
(0.596931 -0.00978434 0)
(0.616143 -0.0094249 0)
(0.634628 -0.00906176 0)
(0.652384 -0.00869857 0)
(0.669413 -0.00833813 0)
(0.685724 -0.00798258 0)
(0.701329 -0.0076336 0)
(0.716243 -0.00729254 0)
(0.730482 -0.00696042 0)
(0.744067 -0.00663807 0)
(0.757018 -0.00632609 0)
(0.769355 -0.00602493 0)
(0.7811 -0.00573484 0)
(0.792277 -0.00545599 0)
(0.802908 -0.00518839 0)
(0.813015 -0.00493199 0)
(0.82262 -0.00468663 0)
(0.831747 -0.00445212 0)
(0.840415 -0.0042282 0)
(0.848646 -0.00401458 0)
(0.85646 -0.00381093 0)
(0.863878 -0.00361694 0)
(0.870917 -0.00343224 0)
(0.877596 -0.00325648 0)
(0.883932 -0.00308931 0)
(0.889943 -0.00293036 0)
(0.895644 -0.0027793 0)
(0.901051 -0.00263576 0)
(0.906179 -0.00249942 0)
(0.911041 -0.00236995 0)
(0.915652 -0.00224703 0)
(0.920023 -0.00213034 0)
(0.924166 -0.0020196 0)
(0.928095 -0.00191451 0)
(0.931819 -0.00181481 0)
(0.935348 -0.00172022 0)
(0.938694 -0.0016305 0)
(0.941866 -0.00154541 0)
(0.944871 -0.0014647 0)
(0.94772 -0.00138817 0)
(0.95042 -0.00131561 0)
(0.952979 -0.00124681 0)
(0.955403 -0.00118158 0)
(0.957701 -0.00111975 0)
(0.959879 -0.00106114 0)
(0.961943 -0.00100558 0)
(0.963898 -0.000952927 0)
(0.965752 -0.000903028 0)
(0.967508 -0.000855742 0)
(0.969172 -0.000810935 0)
(0.970749 -0.00076848 0)
(0.972244 -0.000728256 0)
(0.97366 -0.000690146 0)
(0.975002 -0.000654041 0)
(0.976274 -0.000619835 0)
(0.97748 -0.000587427 0)
(0.978622 -0.000556722 0)
(0.979705 -0.000527628 0)
(0.980731 -0.000500058 0)
(0.981704 -0.00047393 0)
(0.982626 -0.000449165 0)
(0.983499 -0.00042569 0)
(0.984327 -0.000403434 0)
(0.985112 -0.000382333 0)
(0.985855 -0.000362326 0)
(0.98656 -0.000343354 0)
(0.987228 -0.000325364 0)
(0.987861 -0.000308307 0)
(0.98846 -0.000292135 0)
(0.989028 -0.000276803 0)
(0.989567 -0.00026227 0)
(0.990077 -0.000248497 0)
(0.99056 -0.000235445 0)
(0.991018 -0.000223081 0)
(0.991451 -0.000211369 0)
(0.991863 -0.000200278 0)
(0.992252 -0.000189778 0)
(0.992621 -0.000179838 0)
(0.992971 -0.000170432 0)
(0.993302 -0.000161533 0)
(0.993616 -0.000153116 0)
(0.993914 -0.000145156 0)
(0.994197 -0.000137632 0)
(0.994464 -0.00013052 0)
(0.994718 -0.000123801 0)
(0.994959 -0.000117454 0)
(0.995188 -0.000111459 0)
(0.995405 -0.000105799 0)
(0.995611 -0.000100455 0)
(0.995806 -9.54103e-05 0)
(0.995992 -9.0648e-05 0)
(0.996169 -8.6152e-05 0)
(0.996336 -8.1907e-05 0)
(0.996496 -7.7898e-05 0)
(0.996648 -7.41107e-05 0)
(0.996792 -7.05315e-05 0)
(0.99693 -6.71475e-05 0)
(0.997061 -6.39461e-05 0)
(0.997185 -6.09159e-05 0)
(0.997304 -5.80457e-05 0)
(0.997417 -5.53253e-05 0)
(0.997525 -5.27452e-05 0)
(0.997628 -5.02964e-05 0)
(0.997726 -4.79706e-05 0)
(0.99782 -4.57603e-05 0)
(0.997909 -4.36584e-05 0)
(0.997994 -4.16584e-05 0)
(0.998076 -3.97544e-05 0)
(0.998153 -3.79411e-05 0)
(0.998227 -3.62134e-05 0)
(0.998298 -3.45667e-05 0)
(0.998366 -3.29967e-05 0)
(0.99843 -3.14997e-05 0)
(0.998491 -3.0072e-05 0)
(0.99855 -2.87102e-05 0)
(0.998606 -2.74112e-05 0)
(0.99866 -2.61721e-05 0)
(0.998711 -2.49902e-05 0)
(0.99876 -2.38628e-05 0)
(0.998806 -2.27874e-05 0)
(0.998851 -2.17618e-05 0)
(0.998893 -2.07837e-05 0)
(0.998934 -1.9851e-05 0)
(0.998973 -1.89616e-05 0)
(0.99901 -1.81137e-05 0)
(0.999045 -1.73053e-05 0)
(0.999079 -1.65346e-05 0)
(0.999111 -1.57999e-05 0)
(0.999142 -1.50995e-05 0)
(0.999172 -1.4432e-05 0)
(0.9992 -1.37956e-05 0)
(0.999227 -1.31891e-05 0)
(0.999252 -1.26109e-05 0)
(0.999277 -1.20597e-05 0)
(0.999301 -1.15343e-05 0)
(0.999323 -1.10335e-05 0)
(0.999345 -1.05561e-05 0)
(0.999365 -1.0101e-05 0)
(0.999385 -9.66709e-06 0)
(0.999404 -9.25349e-06 0)
(0.999422 -8.85922e-06 0)
(0.999439 -8.48338e-06 0)
(0.999456 -8.12514e-06 0)
(0.999472 -7.78371e-06 0)
(0.999487 -7.45832e-06 0)
(0.999502 -7.14827e-06 0)
(0.999516 -6.85288e-06 0)
(0.999529 -6.57151e-06 0)
(0.999542 -6.30356e-06 0)
(0.999554 -6.04845e-06 0)
(0.999566 -5.80563e-06 0)
(0.999578 -5.5746e-06 0)
(0.999588 -5.35484e-06 0)
(0.999599 -5.14589e-06 0)
(0.999609 -4.94729e-06 0)
(0.999619 -4.75861e-06 0)
(0.999628 -4.57944e-06 0)
(0.999637 -4.40936e-06 0)
(0.999646 -4.248e-06 0)
(0.999654 -4.09498e-06 0)
(0.999662 -3.94993e-06 0)
(0.99967 -3.81251e-06 0)
(0.999677 -3.68237e-06 0)
(0.999685 -3.55919e-06 0)
(0.999692 -3.44264e-06 0)
(0.999698 -3.33242e-06 0)
(0.999705 -3.2282e-06 0)
(0.999711 -3.1297e-06 0)
(0.999717 -3.03663e-06 0)
(0.999723 -2.9487e-06 0)
(0.999729 -2.86564e-06 0)
(0.999735 -2.78718e-06 0)
(0.99974 -2.71305e-06 0)
(0.999746 -2.64301e-06 0)
(0.999751 -2.5768e-06 0)
(0.999756 -2.51418e-06 0)
(0.999761 -2.45492e-06 0)
(0.999766 -2.39878e-06 0)
(0.999771 -2.34555e-06 0)
(0.999775 -2.29501e-06 0)
(0.99978 -2.24696e-06 0)
(0.999784 -2.20118e-06 0)
(0.999789 -2.1575e-06 0)
(0.999793 -2.11572e-06 0)
(0.999797 -2.07566e-06 0)
(0.999801 -2.03716e-06 0)
(0.999805 -2.00004e-06 0)
(0.999809 -1.96416e-06 0)
(0.999813 -1.92936e-06 0)
(0.999817 -1.89551e-06 0)
(0.999821 -1.86247e-06 0)
(0.999824 -1.83012e-06 0)
(0.999828 -1.79834e-06 0)
(0.999831 -1.76703e-06 0)
(0.999835 -1.73609e-06 0)
(0.999838 -1.70543e-06 0)
(0.999842 -1.67498e-06 0)
(0.999845 -1.64468e-06 0)
(0.999848 -1.61445e-06 0)
(0.999852 -1.58426e-06 0)
(0.999855 -1.55407e-06 0)
(0.999858 -1.52385e-06 0)
(0.999861 -1.49357e-06 0)
(0.999864 -1.46324e-06 0)
(0.999867 -1.43283e-06 0)
(0.999869 -1.40235e-06 0)
(0.999872 -1.3718e-06 0)
(0.999875 -1.34119e-06 0)
(0.999878 -1.31054e-06 0)
(0.99988 -1.27985e-06 0)
(0.999883 -1.24917e-06 0)
(0.999885 -1.21852e-06 0)
(0.999888 -1.18795e-06 0)
(0.99989 -1.15751e-06 0)
(0.999892 -1.12726e-06 0)
(0.999894 -1.0973e-06 0)
(0.999897 -1.06771e-06 0)
(0.999899 -1.03861e-06 0)
(0.999901 -1.0101e-06 0)
(0.999903 -9.82316e-07 0)
(0.999905 -9.5536e-07 0)
(0.999907 -9.29341e-07 0)
(0.999908 -9.04339e-07 0)
(0.99991 -8.80403e-07 0)
(0.999912 -8.57542e-07 0)
(0.999914 -8.35718e-07 0)
(0.999915 -8.14844e-07 0)
(0.999917 -7.94787e-07 0)
(0.999918 -7.7538e-07 0)
(0.99992 -7.56435e-07 0)
(0.999921 -7.37765e-07 0)
(0.999923 -7.19205e-07 0)
(0.999924 -7.00639e-07 0)
(0.999926 -6.82012e-07 0)
(0.999927 -6.6335e-07 0)
(0.999928 -6.44757e-07 0)
(0.99993 -6.2641e-07 0)
(0.999931 -6.08545e-07 0)
(0.999932 -5.91425e-07 0)
(0.999933 -5.75322e-07 0)
(0.999934 -5.6048e-07 0)
(0.999936 -5.47092e-07 0)
(0.999937 -5.35282e-07 0)
(0.999938 -5.25094e-07 0)
(0.999939 -5.16492e-07 0)
(0.99994 -5.09361e-07 0)
(0.999941 -5.03528e-07 0)
(0.999942 -4.98772e-07 0)
(0.999943 -4.94846e-07 0)
(0.999944 -4.9149e-07 0)
(0.999945 -4.88455e-07 0)
(0.999946 -4.85508e-07 0)
(0.999947 -4.82445e-07 0)
(0.999948 -4.79097e-07 0)
(0.999949 -4.75333e-07 0)
(0.99995 -4.71057e-07 0)
(0.99995 -4.6621e-07 0)
(0.999951 -4.60763e-07 0)
(0.999952 -4.54716e-07 0)
(0.999953 -4.48089e-07 0)
(0.999954 -4.4092e-07 0)
(0.999955 -4.33262e-07 0)
(0.999956 -4.25174e-07 0)
(0.999957 -4.1672e-07 0)
(0.999957 -4.07969e-07 0)
(0.999958 -3.98986e-07 0)
(0.999959 -3.89837e-07 0)
(0.99996 -3.8058e-07 0)
(0.999961 -3.71274e-07 0)
(0.999961 -3.61968e-07 0)
(0.999962 -3.52708e-07 0)
(0.999963 -3.43533e-07 0)
(0.999963 -3.34478e-07 0)
(0.999964 -3.25573e-07 0)
(0.999965 -3.1684e-07 0)
(0.999965 -3.08301e-07 0)
(0.999966 -2.9997e-07 0)
(0.999967 -2.91859e-07 0)
(0.999967 -2.83978e-07 0)
(0.999968 -2.76331e-07 0)
(0.999968 -2.68923e-07 0)
(0.999969 -2.61755e-07 0)
(0.999969 -2.54825e-07 0)
(0.99997 -2.48132e-07 0)
(0.99997 -2.41673e-07 0)
(0.999971 -2.35443e-07 0)
(0.999971 -2.29436e-07 0)
(0.999972 -2.23648e-07 0)
(0.999972 -2.18071e-07 0)
(0.999973 -2.12699e-07 0)
(0.999973 -2.07526e-07 0)
(0.999973 -2.02543e-07 0)
(0.999974 -1.97744e-07 0)
(0.999974 -1.93121e-07 0)
(0.999975 -1.88668e-07 0)
(0.999975 -1.84377e-07 0)
(0.999975 -1.80242e-07 0)
(0.999976 -1.76256e-07 0)
(0.999976 -1.72412e-07 0)
(0.999976 -1.68704e-07 0)
(0.999977 -1.65125e-07 0)
(0.999977 -1.61671e-07 0)
(0.999977 -1.58334e-07 0)
(0.999978 -1.5511e-07 0)
(0.999978 -1.51994e-07 0)
(0.999978 -1.4898e-07 0)
(0.999979 -1.46064e-07 0)
(0.999979 -1.43241e-07 0)
(0.999979 -1.40507e-07 0)
(0.999979 -1.37857e-07 0)
(0.99998 -1.35287e-07 0)
(0.99998 -1.32795e-07 0)
(0.99998 -1.30376e-07 0)
(0.99998 -1.28026e-07 0)
(0.999981 -1.25743e-07 0)
(0.999981 -1.23524e-07 0)
(0.999981 -1.21366e-07 0)
(0.999981 -1.19265e-07 0)
(0.999982 -1.17219e-07 0)
(0.999982 -1.15227e-07 0)
(0.999982 -1.13284e-07 0)
(0.999982 -1.1139e-07 0)
(0.999983 -1.09542e-07 0)
(0.999983 -1.07739e-07 0)
(0.999983 -1.05977e-07 0)
(0.999983 -1.04256e-07 0)
(0.999983 -1.02573e-07 0)
(0.999984 -1.00927e-07 0)
(0.999984 -9.93173e-08 0)
(0.999984 -9.77413e-08 0)
(0.999984 -9.61979e-08 0)
(0.999984 -9.4686e-08 0)
(0.999985 -9.32042e-08 0)
(0.999985 -9.17514e-08 0)
(0.999985 -9.03264e-08 0)
(0.999985 -8.89282e-08 0)
(0.999985 -8.75557e-08 0)
(0.999985 -8.62082e-08 0)
(0.999986 -8.48845e-08 0)
(0.999986 -8.3584e-08 0)
(0.999986 -8.23056e-08 0)
(0.999986 -8.10488e-08 0)
(0.999986 -7.98127e-08 0)
(0.999986 -7.85966e-08 0)
(0.999987 -7.74e-08 0)
(0.999987 -7.6222e-08 0)
(0.999987 -7.50621e-08 0)
(0.999987 -7.39198e-08 0)
(0.999987 -7.27946e-08 0)
(0.999987 -7.16858e-08 0)
(0.999988 -7.0593e-08 0)
(0.999988 -6.95157e-08 0)
(0.999988 -6.84534e-08 0)
(0.999988 -6.74058e-08 0)
(0.999988 -6.63723e-08 0)
(0.999988 -6.53526e-08 0)
(0.999988 -6.43463e-08 0)
(0.999988 -6.33531e-08 0)
(0.999989 -6.23726e-08 0)
(0.999989 -6.14045e-08 0)
(0.999989 -6.04485e-08 0)
(0.999989 -5.95041e-08 0)
(0.999989 -5.85712e-08 0)
(0.999989 -5.76494e-08 0)
(0.999989 -5.67385e-08 0)
(0.999989 -5.58382e-08 0)
(0.99999 -5.49483e-08 0)
(0.99999 -5.40686e-08 0)
(0.99999 -5.31987e-08 0)
(0.99999 -5.23384e-08 0)
(0.99999 -5.14876e-08 0)
(0.99999 -5.06459e-08 0)
(0.99999 -4.98133e-08 0)
(0.99999 -4.89894e-08 0)
(0.99999 -4.81742e-08 0)
(0.99999 -4.73674e-08 0)
(0.999991 -4.65689e-08 0)
(0.999991 -4.57785e-08 0)
(0.999991 -4.49959e-08 0)
(0.999991 -4.4221e-08 0)
(0.999991 -4.34537e-08 0)
(0.999991 -4.26937e-08 0)
(0.999991 -4.1941e-08 0)
(0.999991 -4.11954e-08 0)
(0.999991 -4.04567e-08 0)
(0.999991 -3.97248e-08 0)
(0.999991 -3.89996e-08 0)
(0.999991 -3.82808e-08 0)
(0.999992 -3.75685e-08 0)
(0.999992 -3.68623e-08 0)
(0.999992 -3.61623e-08 0)
(0.999992 -3.54683e-08 0)
(0.999992 -3.47801e-08 0)
(0.999992 -3.40976e-08 0)
(0.999992 -3.34208e-08 0)
(0.999992 -3.27494e-08 0)
(0.999992 -3.20834e-08 0)
(0.999992 -3.14226e-08 0)
(0.999992 -3.0767e-08 0)
(0.999992 -3.01164e-08 0)
(0.999992 -2.94707e-08 0)
(0.999992 -2.88298e-08 0)
(0.999992 -2.81936e-08 0)
(0.999993 -2.7562e-08 0)
(0.999993 -2.69349e-08 0)
(0.999993 -2.63122e-08 0)
(0.999993 -2.56937e-08 0)
(0.999993 -2.50794e-08 0)
(0.999993 -2.44692e-08 0)
(0.999993 -2.38629e-08 0)
(0.999993 -2.32605e-08 0)
(0.999993 -2.26619e-08 0)
(0.999993 -2.2067e-08 0)
(0.999993 -2.14757e-08 0)
(0.999993 -2.08879e-08 0)
(0.999993 -2.03036e-08 0)
(0.999993 -1.97225e-08 0)
(0.999993 -1.91449e-08 0)
(0.999993 -1.85691e-08 0)
(0.999993 -1.80019e-08 0)
(0.999993 -1.7414e-08 0)
(0.999993 -1.69295e-08 0)
(0.999993 -1.60207e-08 0)
(-0.0133307 0.0269692 0)
(-0.0230509 -0.0190377 0)
(0.0134909 -0.0536933 0)
(0.0508003 -0.0617901 0)
(0.0906814 -0.055722 0)
(0.125075 -0.0452547 0)
(0.152204 -0.0359006 0)
(0.173731 -0.0297703 0)
(0.192092 -0.0268661 0)
(0.209363 -0.02629 0)
(0.226864 -0.0270504 0)
(0.245215 -0.0284027 0)
(0.264601 -0.0298932 0)
(0.285005 -0.0312912 0)
(0.306327 -0.0325016 0)
(0.328428 -0.0334934 0)
(0.351148 -0.0342563 0)
(0.374321 -0.0347837 0)
(0.397778 -0.035072 0)
(0.421351 -0.035123 0)
(0.444876 -0.0349455 0)
(0.468198 -0.0345557 0)
(0.491178 -0.0339781 0)
(0.513697 -0.0332434 0)
(0.53566 -0.0323842 0)
(0.556998 -0.0314319 0)
(0.577659 -0.0304144 0)
(0.597612 -0.0293547 0)
(0.616838 -0.0282712 0)
(0.635327 -0.0271778 0)
(0.653081 -0.0260854 0)
(0.670103 -0.0250019 0)
(0.686403 -0.0239337 0)
(0.701995 -0.0228857 0)
(0.716892 -0.0218618 0)
(0.731114 -0.020865 0)
(0.744679 -0.0198978 0)
(0.757609 -0.0189618 0)
(0.769925 -0.0180585 0)
(0.781649 -0.0171885 0)
(0.792804 -0.0163523 0)
(0.803413 -0.01555 0)
(0.813498 -0.0147813 0)
(0.823083 -0.0140458 0)
(0.832188 -0.0133429 0)
(0.840836 -0.0126717 0)
(0.849048 -0.0120315 0)
(0.856843 -0.0114212 0)
(0.864242 -0.0108398 0)
(0.871264 -0.0102862 0)
(0.877926 -0.00975952 0)
(0.884246 -0.00925854 0)
(0.890242 -0.00878223 0)
(0.895928 -0.00832953 0)
(0.901321 -0.00789939 0)
(0.906436 -0.00749082 0)
(0.911285 -0.00710283 0)
(0.915883 -0.00673445 0)
(0.920242 -0.00638477 0)
(0.924375 -0.00605289 0)
(0.928293 -0.00573796 0)
(0.932007 -0.00543916 0)
(0.935527 -0.00515569 0)
(0.938864 -0.0048868 0)
(0.942027 -0.00463177 0)
(0.945024 -0.00438991 0)
(0.947865 -0.00416055 0)
(0.950557 -0.00394307 0)
(0.953109 -0.00373687 0)
(0.955527 -0.00354138 0)
(0.957819 -0.00335606 0)
(0.95999 -0.00318039 0)
(0.962048 -0.00301389 0)
(0.963999 -0.00285608 0)
(0.965847 -0.00270652 0)
(0.967598 -0.0025648 0)
(0.969258 -0.0024305 0)
(0.97083 -0.00230326 0)
(0.972321 -0.0021827 0)
(0.973733 -0.00206848 0)
(0.975071 -0.00196027 0)
(0.97634 -0.00185775 0)
(0.977542 -0.00176062 0)
(0.978681 -0.00166859 0)
(0.979761 -0.00158139 0)
(0.980784 -0.00149877 0)
(0.981754 -0.00142046 0)
(0.982673 -0.00134623 0)
(0.983544 -0.00127587 0)
(0.98437 -0.00120917 0)
(0.985152 -0.00114593 0)
(0.985894 -0.00108596 0)
(0.986597 -0.0010291 0)
(0.987263 -0.000975178 0)
(0.987894 -0.000924051 0)
(0.988491 -0.000875577 0)
(0.989058 -0.000829622 0)
(0.989595 -0.000786062 0)
(0.990103 -0.000744778 0)
(0.990585 -0.000705659 0)
(0.991042 -0.000668598 0)
(0.991474 -0.000633494 0)
(0.991884 -0.000600251 0)
(0.992272 -0.000568778 0)
(0.99264 -0.000538987 0)
(0.992989 -0.000510794 0)
(0.993319 -0.000484122 0)
(0.993633 -0.000458893 0)
(0.99393 -0.000435037 0)
(0.994211 -0.000412485 0)
(0.994478 -0.000391171 0)
(0.994731 -0.000371033 0)
(0.994971 -0.00035201 0)
(0.995199 -0.000334045 0)
(0.995416 -0.000317082 0)
(0.995621 -0.000301068 0)
(0.995816 -0.00028595 0)
(0.996001 -0.000271679 0)
(0.996177 -0.000258206 0)
(0.996345 -0.000245486 0)
(0.996504 -0.000233473 0)
(0.996655 -0.000222125 0)
(0.996799 -0.0002114 0)
(0.996936 -0.00020126 0)
(0.997067 -0.000191668 0)
(0.997191 -0.000182588 0)
(0.99731 -0.000173988 0)
(0.997423 -0.000165836 0)
(0.99753 -0.000158105 0)
(0.997633 -0.000150766 0)
(0.997731 -0.000143797 0)
(0.997824 -0.000137173 0)
(0.997913 -0.000130873 0)
(0.997998 -0.000124879 0)
(0.998079 -0.000119173 0)
(0.998157 -0.000113738 0)
(0.998231 -0.000108559 0)
(0.998301 -0.000103623 0)
(0.998369 -9.89173e-05 0)
(0.998433 -9.44299e-05 0)
(0.998494 -9.01501e-05 0)
(0.998553 -8.60678e-05 0)
(0.998609 -8.21738e-05 0)
(0.998662 -7.84593e-05 0)
(0.998713 -7.4916e-05 0)
(0.998762 -7.15362e-05 0)
(0.998808 -6.83125e-05 0)
(0.998853 -6.52379e-05 0)
(0.998895 -6.23057e-05 0)
(0.998936 -5.95096e-05 -2.04776e-42)
(0.998974 -5.68435e-05 -2.06601e-42)
(0.999011 -5.43015e-05 0)
(0.999047 -5.18781e-05 0)
(0.99908 -4.95677e-05 0)
(0.999113 -4.73653e-05 0)
(0.999143 -4.52659e-05 0)
(0.999173 -4.32647e-05 0)
(0.999201 -4.13571e-05 0)
(0.999228 -3.95388e-05 0)
(0.999254 -3.78055e-05 0)
(0.999278 -3.61534e-05 0)
(0.999302 -3.45784e-05 0)
(0.999324 -3.30771e-05 0)
(0.999346 -3.16459e-05 0)
(0.999366 -3.02816e-05 0)
(0.999386 -2.8981e-05 0)
(0.999405 -2.77411e-05 0)
(0.999423 -2.65592e-05 0)
(0.99944 -2.54325e-05 0)
(0.999457 -2.43586e-05 0)
(0.999473 -2.33351e-05 0)
(0.999488 -2.23596e-05 0)
(0.999502 -2.14301e-05 0)
(0.999516 -2.05446e-05 0)
(0.99953 -1.97011e-05 0)
(0.999543 -1.88978e-05 0)
(0.999555 -1.8133e-05 0)
(0.999567 -1.74051e-05 0)
(0.999578 -1.67125e-05 0)
(0.999589 -1.60537e-05 0)
(0.999599 -1.54273e-05 0)
(0.999609 -1.4832e-05 0)
(0.999619 -1.42663e-05 0)
(0.999628 -1.37292e-05 0)
(0.999637 -1.32194e-05 0)
(0.999646 -1.27357e-05 0)
(0.999654 -1.2277e-05 0)
(0.999662 -1.18422e-05 0)
(0.99967 -1.14302e-05 0)
(0.999678 -1.10402e-05 0)
(0.999685 -1.06709e-05 0)
(0.999692 -1.03216e-05 0)
(0.999699 -9.99123e-06 0)
(0.999705 -9.67888e-06 0)
(0.999711 -9.38368e-06 0)
(0.999718 -9.10474e-06 0)
(0.999724 -8.84123e-06 0)
(0.999729 -8.59232e-06 0)
(0.999735 -8.3572e-06 0)
(0.99974 -8.13508e-06 0)
(0.999746 -7.9252e-06 0)
(0.999751 -7.72681e-06 0)
(0.999756 -7.53919e-06 0)
(0.999761 -7.36163e-06 0)
(0.999766 -7.19344e-06 0)
(0.999771 -7.03397e-06 0)
(0.999775 -6.88256e-06 0)
(0.99978 -6.73859e-06 0)
(0.999784 -6.60146e-06 0)
(0.999789 -6.47059e-06 0)
(0.999793 -6.34543e-06 0)
(0.999797 -6.22543e-06 0)
(0.999801 -6.11008e-06 0)
(0.999805 -5.99889e-06 0)
(0.999809 -5.89139e-06 0)
(0.999813 -5.78714e-06 0)
(0.999817 -5.68571e-06 0)
(0.999821 -5.58672e-06 0)
(0.999824 -5.48978e-06 0)
(0.999828 -5.39455e-06 0)
(0.999832 -5.30071e-06 0)
(0.999835 -5.20798e-06 0)
(0.999838 -5.11609e-06 0)
(0.999842 -5.02481e-06 0)
(0.999845 -4.93394e-06 0)
(0.999848 -4.84331e-06 0)
(0.999852 -4.75278e-06 0)
(0.999855 -4.66223e-06 0)
(0.999858 -4.57159e-06 0)
(0.999861 -4.48078e-06 0)
(0.999864 -4.38978e-06 0)
(0.999867 -4.29855e-06 0)
(0.99987 -4.20711e-06 0)
(0.999872 -4.11545e-06 0)
(0.999875 -4.02361e-06 0)
(0.999878 -3.93163e-06 0)
(0.99988 -3.83956e-06 0)
(0.999883 -3.74748e-06 0)
(0.999885 -3.65548e-06 0)
(0.999888 -3.56371e-06 0)
(0.99989 -3.47231e-06 0)
(0.999892 -3.3815e-06 0)
(0.999895 -3.29152e-06 0)
(0.999897 -3.20266e-06 0)
(0.999899 -3.11523e-06 0)
(0.999901 -3.0296e-06 0)
(0.999903 -2.94612e-06 0)
(0.999905 -2.86516e-06 0)
(0.999907 -2.78702e-06 0)
(0.999908 -2.71197e-06 0)
(0.99991 -2.64016e-06 0)
(0.999912 -2.57161e-06 0)
(0.999914 -2.50623e-06 0)
(0.999915 -2.44373e-06 0)
(0.999917 -2.38372e-06 0)
(0.999919 -2.32568e-06 0)
(0.99992 -2.26902e-06 0)
(0.999922 -2.21316e-06 0)
(0.999923 -2.15759e-06 0)
(0.999924 -2.10194e-06 0)
(0.999926 -2.04604e-06 0)
(0.999927 -1.98995e-06 0)
(0.999928 -1.934e-06 0)
(0.99993 -1.87874e-06 0)
(0.999931 -1.82488e-06 0)
(0.999932 -1.77327e-06 0)
(0.999933 -1.72473e-06 0)
(0.999934 -1.68002e-06 0)
(0.999936 -1.63973e-06 0)
(0.999937 -1.60426e-06 0)
(0.999938 -1.57373e-06 0)
(0.999939 -1.54803e-06 0)
(0.99994 -1.52681e-06 0)
(0.999941 -1.50952e-06 0)
(0.999942 -1.49549e-06 0)
(0.999943 -1.48396e-06 0)
(0.999944 -1.47414e-06 0)
(0.999945 -1.46526e-06 0)
(0.999946 -1.45662e-06 0)
(0.999947 -1.4476e-06 0)
(0.999948 -1.43769e-06 0)
(0.999949 -1.42649e-06 0)
(0.99995 -1.41373e-06 0)
(0.99995 -1.39922e-06 0)
(0.999951 -1.38288e-06 0)
(0.999952 -1.36472e-06 0)
(0.999953 -1.3448e-06 0)
(0.999954 -1.32325e-06 0)
(0.999955 -1.30021e-06 0)
(0.999956 -1.27589e-06 0)
(0.999957 -1.25046e-06 0)
(0.999957 -1.22414e-06 0)
(0.999958 -1.19713e-06 0)
(0.999959 -1.16962e-06 0)
(0.99996 -1.14179e-06 0)
(0.999961 -1.11382e-06 0)
(0.999961 -1.08586e-06 0)
(0.999962 -1.05804e-06 0)
(0.999963 -1.03048e-06 0)
(0.999963 -1.00329e-06 0)
(0.999964 -9.76546e-07 0)
(0.999965 -9.50329e-07 0)
(0.999965 -9.24695e-07 0)
(0.999966 -8.9969e-07 0)
(0.999967 -8.75349e-07 0)
(0.999967 -8.51699e-07 0)
(0.999968 -8.28756e-07 0)
(0.999968 -8.06531e-07 0)
(0.999969 -7.85026e-07 0)
(0.999969 -7.64239e-07 0)
(0.99997 -7.44164e-07 0)
(0.99997 -7.2479e-07 0)
(0.999971 -7.06105e-07 0)
(0.999971 -6.88091e-07 0)
(0.999972 -6.70732e-07 0)
(0.999972 -6.54009e-07 0)
(0.999973 -6.379e-07 0)
(0.999973 -6.22386e-07 0)
(0.999973 -6.07445e-07 0)
(0.999974 -5.93055e-07 0)
(0.999974 -5.79194e-07 0)
(0.999975 -5.65842e-07 0)
(0.999975 -5.52977e-07 0)
(0.999975 -5.40578e-07 0)
(0.999976 -5.28625e-07 0)
(0.999976 -5.171e-07 0)
(0.999976 -5.05981e-07 0)
(0.999977 -4.95252e-07 0)
(0.999977 -4.84894e-07 0)
(0.999977 -4.7489e-07 0)
(0.999978 -4.65224e-07 0)
(0.999978 -4.5588e-07 0)
(0.999978 -4.46843e-07 0)
(0.999979 -4.38099e-07 0)
(0.999979 -4.29634e-07 0)
(0.999979 -4.21435e-07 0)
(0.999979 -4.13489e-07 0)
(0.99998 -4.05785e-07 0)
(0.99998 -3.98311e-07 0)
(0.99998 -3.91057e-07 0)
(0.99998 -3.84012e-07 0)
(0.999981 -3.77167e-07 0)
(0.999981 -3.70512e-07 0)
(0.999981 -3.64039e-07 0)
(0.999981 -3.57739e-07 0)
(0.999982 -3.51605e-07 0)
(0.999982 -3.4563e-07 0)
(0.999982 -3.39805e-07 0)
(0.999982 -3.34125e-07 0)
(0.999983 -3.28583e-07 0)
(0.999983 -3.23174e-07 0)
(0.999983 -3.1789e-07 0)
(0.999983 -3.12728e-07 0)
(0.999983 -3.07682e-07 0)
(0.999984 -3.02747e-07 0)
(0.999984 -2.97918e-07 0)
(0.999984 -2.93191e-07 0)
(0.999984 -2.88563e-07 0)
(0.999984 -2.84028e-07 0)
(0.999985 -2.79584e-07 0)
(0.999985 -2.75226e-07 0)
(0.999985 -2.70952e-07 0)
(0.999985 -2.66759e-07 0)
(0.999985 -2.62642e-07 0)
(0.999985 -2.58601e-07 0)
(0.999986 -2.54631e-07 0)
(0.999986 -2.5073e-07 0)
(0.999986 -2.46895e-07 0)
(0.999986 -2.43126e-07 0)
(0.999986 -2.39418e-07 0)
(0.999986 -2.35771e-07 0)
(0.999987 -2.32181e-07 0)
(0.999987 -2.28648e-07 0)
(0.999987 -2.25169e-07 0)
(0.999987 -2.21743e-07 0)
(0.999987 -2.18367e-07 0)
(0.999987 -2.15042e-07 0)
(0.999988 -2.11764e-07 0)
(0.999988 -2.08532e-07 0)
(0.999988 -2.05346e-07 0)
(0.999988 -2.02203e-07 0)
(0.999988 -1.99103e-07 0)
(0.999988 -1.96045e-07 0)
(0.999988 -1.93026e-07 0)
(0.999988 -1.90047e-07 0)
(0.999989 -1.87106e-07 0)
(0.999989 -1.84202e-07 0)
(0.999989 -1.81334e-07 0)
(0.999989 -1.78501e-07 0)
(0.999989 -1.75703e-07 0)
(0.999989 -1.72938e-07 0)
(0.999989 -1.70205e-07 0)
(0.999989 -1.67505e-07 0)
(0.99999 -1.64835e-07 0)
(0.99999 -1.62196e-07 0)
(0.99999 -1.59586e-07 0)
(0.99999 -1.57006e-07 0)
(0.99999 -1.54453e-07 0)
(0.99999 -1.51929e-07 0)
(0.99999 -1.49431e-07 0)
(0.99999 -1.4696e-07 0)
(0.99999 -1.44514e-07 0)
(0.99999 -1.42094e-07 0)
(0.999991 -1.39699e-07 0)
(0.999991 -1.37327e-07 0)
(0.999991 -1.3498e-07 0)
(0.999991 -1.32655e-07 0)
(0.999991 -1.30354e-07 0)
(0.999991 -1.28074e-07 0)
(0.999991 -1.25816e-07 0)
(0.999991 -1.23579e-07 0)
(0.999991 -1.21363e-07 0)
(0.999991 -1.19168e-07 0)
(0.999991 -1.16992e-07 0)
(0.999991 -1.14836e-07 0)
(0.999992 -1.12699e-07 0)
(0.999992 -1.10581e-07 0)
(0.999992 -1.08481e-07 0)
(0.999992 -1.06399e-07 0)
(0.999992 -1.04334e-07 0)
(0.999992 -1.02287e-07 0)
(0.999992 -1.00257e-07 0)
(0.999992 -9.82428e-08 0)
(0.999992 -9.62449e-08 0)
(0.999992 -9.42627e-08 0)
(0.999992 -9.2296e-08 0)
(0.999992 -9.03443e-08 0)
(0.999992 -8.84073e-08 0)
(0.999992 -8.64848e-08 0)
(0.999992 -8.45763e-08 0)
(0.999993 -8.26816e-08 0)
(0.999993 -8.08004e-08 0)
(0.999993 -7.89323e-08 0)
(0.999993 -7.7077e-08 0)
(0.999993 -7.52342e-08 0)
(0.999993 -7.34036e-08 0)
(0.999993 -7.15849e-08 0)
(0.999993 -6.97779e-08 0)
(0.999993 -6.79822e-08 0)
(0.999993 -6.61976e-08 0)
(0.999993 -6.44238e-08 0)
(0.999993 -6.26606e-08 0)
(0.999993 -6.09076e-08 0)
(0.999993 -5.91643e-08 0)
(0.999993 -5.74316e-08 0)
(0.999993 -5.57043e-08 0)
(0.999993 -5.40028e-08 0)
(0.999993 -5.22393e-08 0)
(0.999993 -5.07859e-08 0)
(0.999993 -4.80596e-08 0)
(-0.0132459 0.0452661 0)
(-0.0232031 -0.0319085 0)
(0.0134606 -0.0898013 0)
(0.05071 -0.103157 0)
(0.0910363 -0.0928342 0)
(0.125512 -0.0752371 0)
(0.152347 -0.0595774 0)
(0.173457 -0.04933 0)
(0.191452 -0.0444896 0)
(0.20844 -0.043561 0)
(0.22572 -0.0448826 0)
(0.243907 -0.0472025 0)
(0.2632 -0.0497599 0)
(0.283595 -0.0521676 0)
(0.304997 -0.0542624 0)
(0.327263 -0.0559844 0)
(0.350219 -0.0573086 0)
(0.37368 -0.0582197 0)
(0.397452 -0.0587122 0)
(0.421345 -0.058793 0)
(0.445176 -0.0584802 0)
(0.468776 -0.0578038 0)
(0.491995 -0.0568081 0)
(0.514708 -0.0555484 0)
(0.536822 -0.0540825 0)
(0.558268 -0.0524651 0)
(0.579004 -0.0507438 0)
(0.599003 -0.0489572 0)
(0.618253 -0.0471354 0)
(0.636751 -0.0453009 0)
(0.654499 -0.0434707 0)
(0.671507 -0.0416576 0)
(0.687785 -0.0398715 0)
(0.703348 -0.0381202 0)
(0.718213 -0.03641 0)
(0.732398 -0.0347459 0)
(0.745924 -0.0331316 0)
(0.758812 -0.0315701 0)
(0.771085 -0.0300635 0)
(0.782765 -0.0286129 0)
(0.793876 -0.027219 0)
(0.80444 -0.0258819 0)
(0.814482 -0.0246012 0)
(0.824024 -0.0233759 0)
(0.833087 -0.0222051 0)
(0.841694 -0.0210873 0)
(0.849866 -0.0200212 0)
(0.857623 -0.019005 0)
(0.864985 -0.0180371 0)
(0.87197 -0.0171156 0)
(0.878598 -0.0162389 0)
(0.884886 -0.015405 0)
(0.89085 -0.0146122 0)
(0.896506 -0.0138588 0)
(0.90187 -0.013143 0)
(0.906957 -0.012463 0)
(0.91178 -0.0118174 0)
(0.916353 -0.0112043 0)
(0.920689 -0.0106225 0)
(0.924799 -0.0100702 0)
(0.928695 -0.0095462 0)
(0.932389 -0.00904902 0)
(0.93589 -0.00857736 0)
(0.939208 -0.00812996 0)
(0.942353 -0.00770562 0)
(0.945334 -0.0073032 0)
(0.948159 -0.00692159 0)
(0.950836 -0.00655975 0)
(0.953373 -0.00621668 0)
(0.955778 -0.00589143 0)
(0.958056 -0.0055831 0)
(0.960216 -0.00529083 0)
(0.962262 -0.00501381 0)
(0.964201 -0.00475126 0)
(0.966039 -0.00450244 0)
(0.96778 -0.00426666 0)
(0.96943 -0.00404324 0)
(0.970994 -0.00383155 0)
(0.972476 -0.00363099 0)
(0.97388 -0.00344097 0)
(0.975211 -0.00326095 0)
(0.976472 -0.00309041 0)
(0.977667 -0.00292883 0)
(0.9788 -0.00277574 0)
(0.979873 -0.00263069 0)
(0.980891 -0.00249324 0)
(0.981855 -0.00236298 0)
(0.982769 -0.00223951 0)
(0.983635 -0.00212247 0)
(0.984456 -0.00201151 0)
(0.985234 -0.0019063 0)
(0.985971 -0.00180654 0)
(0.98667 -0.00171194 0)
(0.987332 -0.00162224 0)
(0.98796 -0.00153718 0)
(0.988554 -0.00145653 0)
(0.989117 -0.00138008 0)
(0.989651 -0.0013076 0)
(0.990157 -0.00123892 0)
(0.990636 -0.00117384 0)
(0.991089 -0.00111218 0)
(0.99152 -0.00105378 0)
(0.991927 -0.000998472 0)
(0.992313 -0.000946111 0)
(0.992679 -0.00089655 0)
(0.993025 -0.000849649 0)
(0.993354 -0.000805276 0)
(0.993665 -0.000763308 0)
(0.993961 -0.000723623 0)
(0.99424 -0.000686108 0)
(0.994506 -0.000650654 0)
(0.994757 -0.000617156 0)
(0.994996 -0.000585515 0)
(0.995223 -0.000555634 0)
(0.995438 -0.000527422 0)
(0.995642 -0.000500788 0)
(0.995836 -0.000475647 0)
(0.99602 -0.000451915 0)
(0.996195 -0.000429511 0)
(0.996361 -0.00040836 0)
(0.996519 -0.000388386 0)
(0.99667 -0.000369517 0)
(0.996813 -0.000351686 0)
(0.996949 -0.000334827 0)
(0.997079 -0.000318878 0)
(0.997203 -0.000303781 0)
(0.997321 -0.000289481 0)
(0.997433 -0.000275927 0)
(0.99754 -0.000263071 0)
(0.997642 -0.000250868 0)
(0.99774 -0.000239277 0)
(0.997833 -0.00022826 0)
(0.997921 -0.000217783 0)
(0.998006 -0.000207812 0)
(0.998087 -0.00019832 0)
(0.998164 -0.000189278 0)
(0.998237 -0.000180662 0)
(0.998308 -0.00017245 0)
(0.998375 -0.00016462 0)
(0.998439 -0.000157153 0)
(0.9985 -0.000150031 0)
(0.998558 -0.000143237 0)
(0.998614 -0.000136757 0)
(0.998667 -0.000130575 0)
(0.998718 -0.000124678 0)
(0.998766 -0.000119054 0)
(0.998813 -0.000113688 0)
(0.998857 -0.000108572 0)
(0.998899 -0.000103692 0)
(0.998939 -9.90383e-05 0)
(0.998978 -9.46013e-05 0)
(0.999015 -9.03709e-05 0)
(0.99905 -8.63378e-05 0)
(0.999083 -8.24929e-05 0)
(0.999115 -7.88277e-05 0)
(0.999146 -7.5334e-05 0)
(0.999175 -7.20037e-05 0)
(0.999203 -6.88293e-05 0)
(0.99923 -6.58034e-05 0)
(0.999256 -6.29191e-05 0)
(0.99928 -6.01697e-05 0)
(0.999304 -5.75489e-05 0)
(0.999326 -5.50505e-05 0)
(0.999348 -5.26689e-05 0)
(0.999368 -5.03985e-05 0)
(0.999388 -4.82341e-05 0)
(0.999406 -4.61708e-05 0)
(0.999424 -4.42039e-05 0)
(0.999442 -4.23289e-05 0)
(0.999458 -4.05417e-05 0)
(0.999474 -3.88383e-05 0)
(0.999489 -3.72149e-05 0)
(0.999504 -3.5668e-05 0)
(0.999517 -3.41943e-05 0)
(0.999531 -3.27904e-05 0)
(0.999544 -3.14536e-05 0)
(0.999556 -3.01808e-05 0)
(0.999568 -2.89693e-05 0)
(0.999579 -2.78166e-05 0)
(0.99959 -2.67202e-05 0)
(0.9996 -2.56777e-05 0)
(0.99961 -2.46868e-05 0)
(0.99962 -2.37455e-05 0)
(0.999629 -2.28517e-05 0)
(0.999638 -2.20032e-05 0)
(0.999647 -2.11983e-05 0)
(0.999655 -2.0435e-05 0)
(0.999663 -1.97115e-05 0)
(0.999671 -1.90261e-05 0)
(0.999678 -1.83771e-05 0)
(0.999685 -1.77628e-05 0)
(0.999692 -1.71816e-05 0)
(0.999699 -1.6632e-05 0)
(0.999705 -1.61124e-05 0)
(0.999712 -1.56214e-05 0)
(0.999718 -1.51574e-05 0)
(0.999724 -1.47192e-05 0)
(0.99973 -1.43052e-05 0)
(0.999735 -1.39142e-05 0)
(0.999741 -1.35449e-05 0)
(0.999746 -1.31959e-05 0)
(0.999751 -1.2866e-05 0)
(0.999756 -1.25541e-05 0)
(0.999761 -1.2259e-05 0)
(0.999766 -1.19794e-05 0)
(0.999771 -1.17143e-05 0)
(0.999775 -1.14626e-05 0)
(0.99978 -1.12234e-05 0)
(0.999784 -1.09955e-05 0)
(0.999789 -1.0778e-05 0)
(0.999793 -1.057e-05 0)
(0.999797 -1.03705e-05 0)
(0.999801 -1.01788e-05 0)
(0.999805 -9.99403e-06 0)
(0.999809 -9.81537e-06 0)
(0.999813 -9.64208e-06 0)
(0.999817 -9.47348e-06 0)
(0.999821 -9.30889e-06 0)
(0.999824 -9.14771e-06 0)
(0.999828 -8.98935e-06 0)
(0.999832 -8.83328e-06 0)
(0.999835 -8.67902e-06 0)
(0.999839 -8.52612e-06 0)
(0.999842 -8.37421e-06 0)
(0.999845 -8.22295e-06 0)
(0.999849 -8.07206e-06 0)
(0.999852 -7.9213e-06 0)
(0.999855 -7.77048e-06 0)
(0.999858 -7.61948e-06 0)
(0.999861 -7.46818e-06 0)
(0.999864 -7.31653e-06 0)
(0.999867 -7.16449e-06 0)
(0.99987 -7.01207e-06 0)
(0.999872 -6.85928e-06 0)
(0.999875 -6.70617e-06 0)
(0.999878 -6.5528e-06 0)
(0.99988 -6.39926e-06 0)
(0.999883 -6.24568e-06 0)
(0.999885 -6.09221e-06 0)
(0.999888 -5.93907e-06 0)
(0.99989 -5.78652e-06 0)
(0.999892 -5.63489e-06 0)
(0.999895 -5.48461e-06 0)
(0.999897 -5.33615e-06 0)
(0.999899 -5.19006e-06 0)