/*--------------------------------*- C++ -*----------------------------------*\
| =========                 |                                                 |
| \\      /  F ield         | OpenFOAM: The Open Source CFD Toolbox           |
|  \\    /   O peration     | Version:  v2006                                 |
|   \\  /    A nd           | Website:  www.openfoam.com                      |
|    \\/     M anipulation  |                                                 |
\*---------------------------------------------------------------------------*/
FoamFile
{
    version     2.0;
    format      ascii;
    class       volVectorField;
    location    "0";
    object      U_new;
}
// * * * * * * * * * * * * * * * * * * * * * * * * * * * * * * * * * * * * * //

dimensions      [0 1 -1 0 0 0 0];


internalField   nonuniform List<vector> 
2500
(
(0.000584 -0.042632 0)
(0.000584 -0.127896 0)
(0.000584 -0.21316 0)
(0.000584 -0.298424 0)
(0.000584 -0.383688 0)
(0.000584 -0.468952 0)
(0.000584 -0.554216 0)
(0.000584 -0.63948 0)
(0.000584 -0.724744 0)
(0.000584 -0.810008 0)
(0.000584 -0.895272 0)
(0.000584 -0.980536 0)
(0.000584 -1.0658 0)
(0.000584 -1.15106 0)
(0.000584 -1.23633 0)
(0.000584 -1.32159 0)
(0.000584 -1.40686 0)
(0.000584 -1.49212 0)
(0.000584 -1.57738 0)
(0.000584 -1.66265 0)
(0.000584 -1.74791 0)
(0.000584 -1.83318 0)
(0.000584 -1.91844 0)
(0.000584 -2.0037 0)
(0.000584 -2.08897 0)
(0.000584 -2.17423 0)
(0.000584 -2.2595 0)
(0.000584 -2.34476 0)
(0.000584 -2.43002 0)
(0.000584 -2.51529 0)
(0.000584 -2.60055 0)
(0.000584 -2.68582 0)
(0.000584 -2.77108 0)
(0.000584 -2.85634 0)
(0.000584 -2.94161 0)
(0.000584 -3.02687 0)
(0.000584 -3.11214 0)
(0.000584 -3.1974 0)
(0.000584 -3.28266 0)
(0.000584 -3.36793 0)
(0.000584 -3.45319 0)
(0.000584 -3.53846 0)
(0.000584 -3.62372 0)
(0.000584 -3.70898 0)
(0.000584 -3.79425 0)
(0.000584 -3.87951 0)
(0.000584 -3.96478 0)
(0.000584 -4.05004 0)
(0.000584 -4.1353 0)
(0.000584 -4.22057 0)
(0.005256 -0.042632 0)
(0.005256 -0.127896 0)
(0.005256 -0.21316 0)
(0.005256 -0.298424 0)
(0.005256 -0.383688 0)
(0.005256 -0.468952 0)
(0.005256 -0.554216 0)
(0.005256 -0.63948 0)
(0.005256 -0.724744 0)
(0.005256 -0.810008 0)
(0.005256 -0.895272 0)
(0.005256 -0.980536 0)
(0.005256 -1.0658 0)
(0.005256 -1.15106 0)
(0.005256 -1.23633 0)
(0.005256 -1.32159 0)
(0.005256 -1.40686 0)
(0.005256 -1.49212 0)
(0.005256 -1.57738 0)
(0.005256 -1.66265 0)
(0.005256 -1.74791 0)
(0.005256 -1.83318 0)
(0.005256 -1.91844 0)
(0.005256 -2.0037 0)
(0.005256 -2.08897 0)
(0.005256 -2.17423 0)
(0.005256 -2.2595 0)
(0.005256 -2.34476 0)
(0.005256 -2.43002 0)
(0.005256 -2.51529 0)
(0.005256 -2.60055 0)
(0.005256 -2.68582 0)
(0.005256 -2.77108 0)
(0.005256 -2.85634 0)
(0.005256 -2.94161 0)
(0.005256 -3.02687 0)
(0.005256 -3.11214 0)
(0.005256 -3.1974 0)
(0.005256 -3.28266 0)
(0.005256 -3.36793 0)
(0.005256 -3.45319 0)
(0.005256 -3.53846 0)
(0.005256 -3.62372 0)
(0.005256 -3.70898 0)
(0.005256 -3.79425 0)
(0.005256 -3.87951 0)
(0.005256 -3.96478 0)
(0.005256 -4.05004 0)
(0.005256 -4.1353 0)
(0.005256 -4.22057 0)
(0.0146 -0.042632 0)
(0.0146 -0.127896 0)
(0.0146 -0.21316 0)
(0.0146 -0.298424 0)
(0.0146 -0.383688 0)
(0.0146 -0.468952 0)
(0.0146 -0.554216 0)
(0.0146 -0.63948 0)
(0.0146 -0.724744 0)
(0.0146 -0.810008 0)
(0.0146 -0.895272 0)
(0.0146 -0.980536 0)
(0.0146 -1.0658 0)
(0.0146 -1.15106 0)
(0.0146 -1.23633 0)
(0.0146 -1.32159 0)
(0.0146 -1.40686 0)
(0.0146 -1.49212 0)
(0.0146 -1.57738 0)
(0.0146 -1.66265 0)
(0.0146 -1.74791 0)
(0.0146 -1.83318 0)
(0.0146 -1.91844 0)
(0.0146 -2.0037 0)
(0.0146 -2.08897 0)
(0.0146 -2.17423 0)
(0.0146 -2.2595 0)
(0.0146 -2.34476 0)
(0.0146 -2.43002 0)
(0.0146 -2.51529 0)
(0.0146 -2.60055 0)
(0.0146 -2.68582 0)
(0.0146 -2.77108 0)
(0.0146 -2.85634 0)
(0.0146 -2.94161 0)
(0.0146 -3.02687 0)
(0.0146 -3.11214 0)
(0.0146 -3.1974 0)
(0.0146 -3.28266 0)
(0.0146 -3.36793 0)
(0.0146 -3.45319 0)
(0.0146 -3.53846 0)
(0.0146 -3.62372 0)
(0.0146 -3.70898 0)
(0.0146 -3.79425 0)
(0.0146 -3.87951 0)
(0.0146 -3.96478 0)
(0.0146 -4.05004 0)
(0.0146 -4.1353 0)
(0.0146 -4.22057 0)
(0.028616 -0.042632 0)
(0.028616 -0.127896 0)
(0.028616 -0.21316 0)
(0.028616 -0.298424 0)
(0.028616 -0.383688 0)
(0.028616 -0.468952 0)
(0.028616 -0.554216 0)
(0.028616 -0.63948 0)
(0.028616 -0.724744 0)
(0.028616 -0.810008 0)
(0.028616 -0.895272 0)
(0.028616 -0.980536 0)
(0.028616 -1.0658 0)
(0.028616 -1.15106 0)
(0.028616 -1.23633 0)
(0.028616 -1.32159 0)
(0.028616 -1.40686 0)
(0.028616 -1.49212 0)
(0.028616 -1.57738 0)
(0.028616 -1.66265 0)
(0.028616 -1.74791 0)
(0.028616 -1.83318 0)
(0.028616 -1.91844 0)
(0.028616 -2.0037 0)
(0.028616 -2.08897 0)
(0.028616 -2.17423 0)
(0.028616 -2.2595 0)
(0.028616 -2.34476 0)
(0.028616 -2.43002 0)
(0.028616 -2.51529 0)
(0.028616 -2.60055 0)
(0.028616 -2.68582 0)
(0.028616 -2.77108 0)
(0.028616 -2.85634 0)
(0.028616 -2.94161 0)
(0.028616 -3.02687 0)
(0.028616 -3.11214 0)
(0.028616 -3.1974 0)
(0.028616 -3.28266 0)
(0.028616 -3.36793 0)
(0.028616 -3.45319 0)
(0.028616 -3.53846 0)
(0.028616 -3.62372 0)
(0.028616 -3.70898 0)
(0.028616 -3.79425 0)
(0.028616 -3.87951 0)
(0.028616 -3.96478 0)
(0.028616 -4.05004 0)
(0.028616 -4.1353 0)
(0.028616 -4.22057 0)
(0.047304 -0.042632 0)
(0.047304 -0.127896 0)
(0.047304 -0.21316 0)
(0.047304 -0.298424 0)
(0.047304 -0.383688 0)
(0.047304 -0.468952 0)
(0.047304 -0.554216 0)
(0.047304 -0.63948 0)
(0.047304 -0.724744 0)
(0.047304 -0.810008 0)
(0.047304 -0.895272 0)
(0.047304 -0.980536 0)
(0.047304 -1.0658 0)
(0.047304 -1.15106 0)
(0.047304 -1.23633 0)
(0.047304 -1.32159 0)
(0.047304 -1.40686 0)
(0.047304 -1.49212 0)
(0.047304 -1.57738 0)
(0.047304 -1.66265 0)
(0.047304 -1.74791 0)
(0.047304 -1.83318 0)
(0.047304 -1.91844 0)
(0.047304 -2.0037 0)
(0.047304 -2.08897 0)
(0.047304 -2.17423 0)
(0.047304 -2.2595 0)
(0.047304 -2.34476 0)
(0.047304 -2.43002 0)
(0.047304 -2.51529 0)
(0.047304 -2.60055 0)
(0.047304 -2.68582 0)
(0.047304 -2.77108 0)
(0.047304 -2.85634 0)
(0.047304 -2.94161 0)
(0.047304 -3.02687 0)
(0.047304 -3.11214 0)
(0.047304 -3.1974 0)
(0.047304 -3.28266 0)
(0.047304 -3.36793 0)
(0.047304 -3.45319 0)
(0.047304 -3.53846 0)
(0.047304 -3.62372 0)
(0.047304 -3.70898 0)
(0.047304 -3.79425 0)
(0.047304 -3.87951 0)
(0.047304 -3.96478 0)
(0.047304 -4.05004 0)
(0.047304 -4.1353 0)
(0.047304 -4.22057 0)
(0.070664 -0.042632 0)
(0.070664 -0.127896 0)
(0.070664 -0.21316 0)
(0.070664 -0.298424 0)
(0.070664 -0.383688 0)
(0.070664 -0.468952 0)
(0.070664 -0.554216 0)
(0.070664 -0.63948 0)
(0.070664 -0.724744 0)
(0.070664 -0.810008 0)
(0.070664 -0.895272 0)
(0.070664 -0.980536 0)
(0.070664 -1.0658 0)
(0.070664 -1.15106 0)
(0.070664 -1.23633 0)
(0.070664 -1.32159 0)
(0.070664 -1.40686 0)
(0.070664 -1.49212 0)
(0.070664 -1.57738 0)
(0.070664 -1.66265 0)
(0.070664 -1.74791 0)
(0.070664 -1.83318 0)
(0.070664 -1.91844 0)
(0.070664 -2.0037 0)
(0.070664 -2.08897 0)
(0.070664 -2.17423 0)
(0.070664 -2.2595 0)
(0.070664 -2.34476 0)
(0.070664 -2.43002 0)
(0.070664 -2.51529 0)
(0.070664 -2.60055 0)
(0.070664 -2.68582 0)
(0.070664 -2.77108 0)
(0.070664 -2.85634 0)
(0.070664 -2.94161 0)
(0.070664 -3.02687 0)
(0.070664 -3.11214 0)
(0.070664 -3.1974 0)
(0.070664 -3.28266 0)
(0.070664 -3.36793 0)
(0.070664 -3.45319 0)
(0.070664 -3.53846 0)
(0.070664 -3.62372 0)
(0.070664 -3.70898 0)
(0.070664 -3.79425 0)
(0.070664 -3.87951 0)
(0.070664 -3.96478 0)
(0.070664 -4.05004 0)
(0.070664 -4.1353 0)
(0.070664 -4.22057 0)
(0.098696 -0.042632 0)
(0.098696 -0.127896 0)
(0.098696 -0.21316 0)
(0.098696 -0.298424 0)
(0.098696 -0.383688 0)
(0.098696 -0.468952 0)
(0.098696 -0.554216 0)
(0.098696 -0.63948 0)
(0.098696 -0.724744 0)
(0.098696 -0.810008 0)
(0.098696 -0.895272 0)
(0.098696 -0.980536 0)
(0.098696 -1.0658 0)
(0.098696 -1.15106 0)
(0.098696 -1.23633 0)
(0.098696 -1.32159 0)
(0.098696 -1.40686 0)
(0.098696 -1.49212 0)
(0.098696 -1.57738 0)
(0.098696 -1.66265 0)
(0.098696 -1.74791 0)
(0.098696 -1.83318 0)
(0.098696 -1.91844 0)
(0.098696 -2.0037 0)
(0.098696 -2.08897 0)
(0.098696 -2.17423 0)
(0.098696 -2.2595 0)
(0.098696 -2.34476 0)
(0.098696 -2.43002 0)
(0.098696 -2.51529 0)
(0.098696 -2.60055 0)
(0.098696 -2.68582 0)
(0.098696 -2.77108 0)
(0.098696 -2.85634 0)
(0.098696 -2.94161 0)
(0.098696 -3.02687 0)
(0.098696 -3.11214 0)
(0.098696 -3.1974 0)
(0.098696 -3.28266 0)
(0.098696 -3.36793 0)
(0.098696 -3.45319 0)
(0.098696 -3.53846 0)
(0.098696 -3.62372 0)
(0.098696 -3.70898 0)
(0.098696 -3.79425 0)
(0.098696 -3.87951 0)
(0.098696 -3.96478 0)
(0.098696 -4.05004 0)
(0.098696 -4.1353 0)
(0.098696 -4.22057 0)
(0.1314 -0.042632 0)
(0.1314 -0.127896 0)
(0.1314 -0.21316 0)
(0.1314 -0.298424 0)
(0.1314 -0.383688 0)
(0.1314 -0.468952 0)
(0.1314 -0.554216 0)
(0.1314 -0.63948 0)
(0.1314 -0.724744 0)
(0.1314 -0.810008 0)
(0.1314 -0.895272 0)
(0.1314 -0.980536 0)
(0.1314 -1.0658 0)
(0.1314 -1.15106 0)
(0.1314 -1.23633 0)
(0.1314 -1.32159 0)
(0.1314 -1.40686 0)
(0.1314 -1.49212 0)
(0.1314 -1.57738 0)
(0.1314 -1.66265 0)
(0.1314 -1.74791 0)
(0.1314 -1.83318 0)
(0.1314 -1.91844 0)
(0.1314 -2.0037 0)
(0.1314 -2.08897 0)
(0.1314 -2.17423 0)
(0.1314 -2.2595 0)
(0.1314 -2.34476 0)
(0.1314 -2.43002 0)
(0.1314 -2.51529 0)
(0.1314 -2.60055 0)
(0.1314 -2.68582 0)
(0.1314 -2.77108 0)
(0.1314 -2.85634 0)
(0.1314 -2.94161 0)
(0.1314 -3.02687 0)
(0.1314 -3.11214 0)
(0.1314 -3.1974 0)
(0.1314 -3.28266 0)
(0.1314 -3.36793 0)
(0.1314 -3.45319 0)
(0.1314 -3.53846 0)
(0.1314 -3.62372 0)
(0.1314 -3.70898 0)
(0.1314 -3.79425 0)
(0.1314 -3.87951 0)
(0.1314 -3.96478 0)
(0.1314 -4.05004 0)
(0.1314 -4.1353 0)
(0.1314 -4.22057 0)
(0.168776 -0.042632 0)
(0.168776 -0.127896 0)
(0.168776 -0.21316 0)
(0.168776 -0.298424 0)
(0.168776 -0.383688 0)
(0.168776 -0.468952 0)
(0.168776 -0.554216 0)
(0.168776 -0.63948 0)
(0.168776 -0.724744 0)
(0.168776 -0.810008 0)
(0.168776 -0.895272 0)
(0.168776 -0.980536 0)
(0.168776 -1.0658 0)
(0.168776 -1.15106 0)
(0.168776 -1.23633 0)
(0.168776 -1.32159 0)
(0.168776 -1.40686 0)
(0.168776 -1.49212 0)
(0.168776 -1.57738 0)
(0.168776 -1.66265 0)
(0.168776 -1.74791 0)
(0.168776 -1.83318 0)
(0.168776 -1.91844 0)
(0.168776 -2.0037 0)
(0.168776 -2.08897 0)
(0.168776 -2.17423 0)
(0.168776 -2.2595 0)
(0.168776 -2.34476 0)
(0.168776 -2.43002 0)
(0.168776 -2.51529 0)
(0.168776 -2.60055 0)
(0.168776 -2.68582 0)
(0.168776 -2.77108 0)
(0.168776 -2.85634 0)
(0.168776 -2.94161 0)
(0.168776 -3.02687 0)
(0.168776 -3.11214 0)
(0.168776 -3.1974 0)
(0.168776 -3.28266 0)
(0.168776 -3.36793 0)
(0.168776 -3.45319 0)
(0.168776 -3.53846 0)
(0.168776 -3.62372 0)
(0.168776 -3.70898 0)
(0.168776 -3.79425 0)
(0.168776 -3.87951 0)
(0.168776 -3.96478 0)
(0.168776 -4.05004 0)
(0.168776 -4.1353 0)
(0.168776 -4.22057 0)
(0.210824 -0.042632 0)
(0.210824 -0.127896 0)
(0.210824 -0.21316 0)
(0.210824 -0.298424 0)
(0.210824 -0.383688 0)
(0.210824 -0.468952 0)
(0.210824 -0.554216 0)
(0.210824 -0.63948 0)
(0.210824 -0.724744 0)
(0.210824 -0.810008 0)
(0.210824 -0.895272 0)
(0.210824 -0.980536 0)
(0.210824 -1.0658 0)
(0.210824 -1.15106 0)
(0.210824 -1.23633 0)
(0.210824 -1.32159 0)
(0.210824 -1.40686 0)
(0.210824 -1.49212 0)
(0.210824 -1.57738 0)
(0.210824 -1.66265 0)
(0.210824 -1.74791 0)
(0.210824 -1.83318 0)
(0.210824 -1.91844 0)
(0.210824 -2.0037 0)
(0.210824 -2.08897 0)
(0.210824 -2.17423 0)
(0.210824 -2.2595 0)
(0.210824 -2.34476 0)
(0.210824 -2.43002 0)
(0.210824 -2.51529 0)
(0.210824 -2.60055 0)
(0.210824 -2.68582 0)
(0.210824 -2.77108 0)
(0.210824 -2.85634 0)
(0.210824 -2.94161 0)
(0.210824 -3.02687 0)
(0.210824 -3.11214 0)
(0.210824 -3.1974 0)
(0.210824 -3.28266 0)
(0.210824 -3.36793 0)
(0.210824 -3.45319 0)
(0.210824 -3.53846 0)
(0.210824 -3.62372 0)
(0.210824 -3.70898 0)
(0.210824 -3.79425 0)
(0.210824 -3.87951 0)
(0.210824 -3.96478 0)
(0.210824 -4.05004 0)
(0.210824 -4.1353 0)
(0.210824 -4.22057 0)
(0.257544 -0.042632 0)
(0.257544 -0.127896 0)
(0.257544 -0.21316 0)
(0.257544 -0.298424 0)
(0.257544 -0.383688 0)
(0.257544 -0.468952 0)
(0.257544 -0.554216 0)
(0.257544 -0.63948 0)
(0.257544 -0.724744 0)
(0.257544 -0.810008 0)
(0.257544 -0.895272 0)
(0.257544 -0.980536 0)
(0.257544 -1.0658 0)
(0.257544 -1.15106 0)
(0.257544 -1.23633 0)
(0.257544 -1.32159 0)
(0.257544 -1.40686 0)
(0.257544 -1.49212 0)
(0.257544 -1.57738 0)
(0.257544 -1.66265 0)
(0.257544 -1.74791 0)
(0.257544 -1.83318 0)
(0.257544 -1.91844 0)
(0.257544 -2.0037 0)
(0.257544 -2.08897 0)
(0.257544 -2.17423 0)
(0.257544 -2.2595 0)
(0.257544 -2.34476 0)
(0.257544 -2.43002 0)
(0.257544 -2.51529 0)
(0.257544 -2.60055 0)
(0.257544 -2.68582 0)
(0.257544 -2.77108 0)
(0.257544 -2.85634 0)
(0.257544 -2.94161 0)
(0.257544 -3.02687 0)
(0.257544 -3.11214 0)
(0.257544 -3.1974 0)
(0.257544 -3.28266 0)
(0.257544 -3.36793 0)
(0.257544 -3.45319 0)
(0.257544 -3.53846 0)
(0.257544 -3.62372 0)
(0.257544 -3.70898 0)
(0.257544 -3.79425 0)
(0.257544 -3.87951 0)
(0.257544 -3.96478 0)
(0.257544 -4.05004 0)
(0.257544 -4.1353 0)
(0.257544 -4.22057 0)
(0.308936 -0.042632 0)
(0.308936 -0.127896 0)
(0.308936 -0.21316 0)
(0.308936 -0.298424 0)
(0.308936 -0.383688 0)
(0.308936 -0.468952 0)
(0.308936 -0.554216 0)
(0.308936 -0.63948 0)
(0.308936 -0.724744 0)
(0.308936 -0.810008 0)
(0.308936 -0.895272 0)
(0.308936 -0.980536 0)
(0.308936 -1.0658 0)
(0.308936 -1.15106 0)
(0.308936 -1.23633 0)
(0.308936 -1.32159 0)
(0.308936 -1.40686 0)
(0.308936 -1.49212 0)
(0.308936 -1.57738 0)
(0.308936 -1.66265 0)
(0.308936 -1.74791 0)
(0.308936 -1.83318 0)
(0.308936 -1.91844 0)
(0.308936 -2.0037 0)
(0.308936 -2.08897 0)
(0.308936 -2.17423 0)
(0.308936 -2.2595 0)
(0.308936 -2.34476 0)
(0.308936 -2.43002 0)
(0.308936 -2.51529 0)
(0.308936 -2.60055 0)
(0.308936 -2.68582 0)
(0.308936 -2.77108 0)
(0.308936 -2.85634 0)
(0.308936 -2.94161 0)
(0.308936 -3.02687 0)
(0.308936 -3.11214 0)
(0.308936 -3.1974 0)
(0.308936 -3.28266 0)
(0.308936 -3.36793 0)
(0.308936 -3.45319 0)
(0.308936 -3.53846 0)
(0.308936 -3.62372 0)
(0.308936 -3.70898 0)
(0.308936 -3.79425 0)
(0.308936 -3.87951 0)
(0.308936 -3.96478 0)
(0.308936 -4.05004 0)
(0.308936 -4.1353 0)
(0.308936 -4.22057 0)
(0.365 -0.042632 0)
(0.365 -0.127896 0)
(0.365 -0.21316 0)
(0.365 -0.298424 0)
(0.365 -0.383688 0)
(0.365 -0.468952 0)
(0.365 -0.554216 0)
(0.365 -0.63948 0)
(0.365 -0.724744 0)
(0.365 -0.810008 0)
(0.365 -0.895272 0)
(0.365 -0.980536 0)
(0.365 -1.0658 0)
(0.365 -1.15106 0)
(0.365 -1.23633 0)
(0.365 -1.32159 0)
(0.365 -1.40686 0)
(0.365 -1.49212 0)
(0.365 -1.57738 0)
(0.365 -1.66265 0)
(0.365 -1.74791 0)
(0.365 -1.83318 0)
(0.365 -1.91844 0)
(0.365 -2.0037 0)
(0.365 -2.08897 0)
(0.365 -2.17423 0)
(0.365 -2.2595 0)
(0.365 -2.34476 0)
(0.365 -2.43002 0)
(0.365 -2.51529 0)
(0.365 -2.60055 0)
(0.365 -2.68582 0)
(0.365 -2.77108 0)
(0.365 -2.85634 0)
(0.365 -2.94161 0)
(0.365 -3.02687 0)
(0.365 -3.11214 0)
(0.365 -3.1974 0)
(0.365 -3.28266 0)
(0.365 -3.36793 0)
(0.365 -3.45319 0)
(0.365 -3.53846 0)
(0.365 -3.62372 0)
(0.365 -3.70898 0)
(0.365 -3.79425 0)
(0.365 -3.87951 0)
(0.365 -3.96478 0)
(0.365 -4.05004 0)
(0.365 -4.1353 0)
(0.365 -4.22057 0)
(0.425736 -0.042632 0)
(0.425736 -0.127896 0)
(0.425736 -0.21316 0)
(0.425736 -0.298424 0)
(0.425736 -0.383688 0)
(0.425736 -0.468952 0)
(0.425736 -0.554216 0)
(0.425736 -0.63948 0)
(0.425736 -0.724744 0)
(0.425736 -0.810008 0)
(0.425736 -0.895272 0)
(0.425736 -0.980536 0)
(0.425736 -1.0658 0)
(0.425736 -1.15106 0)
(0.425736 -1.23633 0)
(0.425736 -1.32159 0)
(0.425736 -1.40686 0)
(0.425736 -1.49212 0)
(0.425736 -1.57738 0)
(0.425736 -1.66265 0)
(0.425736 -1.74791 0)
(0.425736 -1.83318 0)
(0.425736 -1.91844 0)
(0.425736 -2.0037 0)
(0.425736 -2.08897 0)
(0.425736 -2.17423 0)
(0.425736 -2.2595 0)
(0.425736 -2.34476 0)
(0.425736 -2.43002 0)
(0.425736 -2.51529 0)
(0.425736 -2.60055 0)
(0.425736 -2.68582 0)
(0.425736 -2.77108 0)
(0.425736 -2.85634 0)
(0.425736 -2.94161 0)
(0.425736 -3.02687 0)
(0.425736 -3.11214 0)
(0.425736 -3.1974 0)
(0.425736 -3.28266 0)
(0.425736 -3.36793 0)
(0.425736 -3.45319 0)
(0.425736 -3.53846 0)
(0.425736 -3.62372 0)
(0.425736 -3.70898 0)
(0.425736 -3.79425 0)
(0.425736 -3.87951 0)
(0.425736 -3.96478 0)
(0.425736 -4.05004 0)
(0.425736 -4.1353 0)
(0.425736 -4.22057 0)
(0.491144 -0.042632 0)
(0.491144 -0.127896 0)
(0.491144 -0.21316 0)
(0.491144 -0.298424 0)
(0.491144 -0.383688 0)
(0.491144 -0.468952 0)
(0.491144 -0.554216 0)
(0.491144 -0.63948 0)
(0.491144 -0.724744 0)
(0.491144 -0.810008 0)
(0.491144 -0.895272 0)
(0.491144 -0.980536 0)
(0.491144 -1.0658 0)
(0.491144 -1.15106 0)
(0.491144 -1.23633 0)
(0.491144 -1.32159 0)
(0.491144 -1.40686 0)
(0.491144 -1.49212 0)
(0.491144 -1.57738 0)
(0.491144 -1.66265 0)
(0.491144 -1.74791 0)
(0.491144 -1.83318 0)
(0.491144 -1.91844 0)
(0.491144 -2.0037 0)
(0.491144 -2.08897 0)
(0.491144 -2.17423 0)
(0.491144 -2.2595 0)
(0.491144 -2.34476 0)
(0.491144 -2.43002 0)
(0.491144 -2.51529 0)
(0.491144 -2.60055 0)
(0.491144 -2.68582 0)
(0.491144 -2.77108 0)
(0.491144 -2.85634 0)
(0.491144 -2.94161 0)
(0.491144 -3.02687 0)
(0.491144 -3.11214 0)
(0.491144 -3.1974 0)
(0.491144 -3.28266 0)
(0.491144 -3.36793 0)
(0.491144 -3.45319 0)
(0.491144 -3.53846 0)
(0.491144 -3.62372 0)
(0.491144 -3.70898 0)
(0.491144 -3.79425 0)
(0.491144 -3.87951 0)
(0.491144 -3.96478 0)
(0.491144 -4.05004 0)
(0.491144 -4.1353 0)
(0.491144 -4.22057 0)
(0.561224 -0.042632 0)
(0.561224 -0.127896 0)
(0.561224 -0.21316 0)
(0.561224 -0.298424 0)
(0.561224 -0.383688 0)
(0.561224 -0.468952 0)
(0.561224 -0.554216 0)
(0.561224 -0.63948 0)
(0.561224 -0.724744 0)
(0.561224 -0.810008 0)
(0.561224 -0.895272 0)
(0.561224 -0.980536 0)
(0.561224 -1.0658 0)
(0.561224 -1.15106 0)
(0.561224 -1.23633 0)
(0.561224 -1.32159 0)
(0.561224 -1.40686 0)
(0.561224 -1.49212 0)
(0.561224 -1.57738 0)
(0.561224 -1.66265 0)
(0.561224 -1.74791 0)
(0.561224 -1.83318 0)
(0.561224 -1.91844 0)
(0.561224 -2.0037 0)
(0.561224 -2.08897 0)
(0.561224 -2.17423 0)
(0.561224 -2.2595 0)
(0.561224 -2.34476 0)
(0.561224 -2.43002 0)
(0.561224 -2.51529 0)
(0.561224 -2.60055 0)
(0.561224 -2.68582 0)
(0.561224 -2.77108 0)
(0.561224 -2.85634 0)
(0.561224 -2.94161 0)
(0.561224 -3.02687 0)
(0.561224 -3.11214 0)
(0.561224 -3.1974 0)
(0.561224 -3.28266 0)
(0.561224 -3.36793 0)
(0.561224 -3.45319 0)
(0.561224 -3.53846 0)
(0.561224 -3.62372 0)
(0.561224 -3.70898 0)
(0.561224 -3.79425 0)
(0.561224 -3.87951 0)
(0.561224 -3.96478 0)
(0.561224 -4.05004 0)
(0.561224 -4.1353 0)
(0.561224 -4.22057 0)
(0.635976 -0.042632 0)
(0.635976 -0.127896 0)
(0.635976 -0.21316 0)
(0.635976 -0.298424 0)
(0.635976 -0.383688 0)
(0.635976 -0.468952 0)
(0.635976 -0.554216 0)
(0.635976 -0.63948 0)
(0.635976 -0.724744 0)
(0.635976 -0.810008 0)
(0.635976 -0.895272 0)
(0.635976 -0.980536 0)
(0.635976 -1.0658 0)
(0.635976 -1.15106 0)
(0.635976 -1.23633 0)
(0.635976 -1.32159 0)
(0.635976 -1.40686 0)
(0.635976 -1.49212 0)
(0.635976 -1.57738 0)
(0.635976 -1.66265 0)
(0.635976 -1.74791 0)
(0.635976 -1.83318 0)
(0.635976 -1.91844 0)
(0.635976 -2.0037 0)
(0.635976 -2.08897 0)
(0.635976 -2.17423 0)
(0.635976 -2.2595 0)
(0.635976 -2.34476 0)
(0.635976 -2.43002 0)
(0.635976 -2.51529 0)
(0.635976 -2.60055 0)
(0.635976 -2.68582 0)
(0.635976 -2.77108 0)
(0.635976 -2.85634 0)
(0.635976 -2.94161 0)
(0.635976 -3.02687 0)
(0.635976 -3.11214 0)
(0.635976 -3.1974 0)
(0.635976 -3.28266 0)
(0.635976 -3.36793 0)
(0.635976 -3.45319 0)
(0.635976 -3.53846 0)
(0.635976 -3.62372 0)
(0.635976 -3.70898 0)
(0.635976 -3.79425 0)
(0.635976 -3.87951 0)
(0.635976 -3.96478 0)
(0.635976 -4.05004 0)
(0.635976 -4.1353 0)
(0.635976 -4.22057 0)
(0.7154 -0.042632 0)
(0.7154 -0.127896 0)
(0.7154 -0.21316 0)
(0.7154 -0.298424 0)
(0.7154 -0.383688 0)
(0.7154 -0.468952 0)
(0.7154 -0.554216 0)
(0.7154 -0.63948 0)
(0.7154 -0.724744 0)
(0.7154 -0.810008 0)
(0.7154 -0.895272 0)
(0.7154 -0.980536 0)
(0.7154 -1.0658 0)
(0.7154 -1.15106 0)
(0.7154 -1.23633 0)
(0.7154 -1.32159 0)
(0.7154 -1.40686 0)
(0.7154 -1.49212 0)
(0.7154 -1.57738 0)
(0.7154 -1.66265 0)
(0.7154 -1.74791 0)
(0.7154 -1.83318 0)
(0.7154 -1.91844 0)
(0.7154 -2.0037 0)
(0.7154 -2.08897 0)
(0.7154 -2.17423 0)
(0.7154 -2.2595 0)
(0.7154 -2.34476 0)
(0.7154 -2.43002 0)
(0.7154 -2.51529 0)
(0.7154 -2.60055 0)
(0.7154 -2.68582 0)
(0.7154 -2.77108 0)
(0.7154 -2.85634 0)
(0.7154 -2.94161 0)
(0.7154 -3.02687 0)
(0.7154 -3.11214 0)
(0.7154 -3.1974 0)
(0.7154 -3.28266 0)
(0.7154 -3.36793 0)
(0.7154 -3.45319 0)
(0.7154 -3.53846 0)
(0.7154 -3.62372 0)
(0.7154 -3.70898 0)
(0.7154 -3.79425 0)
(0.7154 -3.87951 0)
(0.7154 -3.96478 0)
(0.7154 -4.05004 0)
(0.7154 -4.1353 0)
(0.7154 -4.22057 0)
(0.799496 -0.042632 0)
(0.799496 -0.127896 0)
(0.799496 -0.21316 0)
(0.799496 -0.298424 0)
(0.799496 -0.383688 0)
(0.799496 -0.468952 0)
(0.799496 -0.554216 0)
(0.799496 -0.63948 0)
(0.799496 -0.724744 0)
(0.799496 -0.810008 0)
(0.799496 -0.895272 0)
(0.799496 -0.980536 0)
(0.799496 -1.0658 0)
(0.799496 -1.15106 0)
(0.799496 -1.23633 0)
(0.799496 -1.32159 0)
(0.799496 -1.40686 0)
(0.799496 -1.49212 0)
(0.799496 -1.57738 0)
(0.799496 -1.66265 0)
(0.799496 -1.74791 0)
(0.799496 -1.83318 0)
(0.799496 -1.91844 0)
(0.799496 -2.0037 0)
(0.799496 -2.08897 0)
(0.799496 -2.17423 0)
(0.799496 -2.2595 0)
(0.799496 -2.34476 0)
(0.799496 -2.43002 0)
(0.799496 -2.51529 0)
(0.799496 -2.60055 0)
(0.799496 -2.68582 0)
(0.799496 -2.77108 0)
(0.799496 -2.85634 0)
(0.799496 -2.94161 0)
(0.799496 -3.02687 0)
(0.799496 -3.11214 0)
(0.799496 -3.1974 0)
(0.799496 -3.28266 0)
(0.799496 -3.36793 0)
(0.799496 -3.45319 0)
(0.799496 -3.53846 0)
(0.799496 -3.62372 0)
(0.799496 -3.70898 0)
(0.799496 -3.79425 0)
(0.799496 -3.87951 0)
(0.799496 -3.96478 0)
(0.799496 -4.05004 0)
(0.799496 -4.1353 0)
(0.799496 -4.22057 0)
(0.888264 -0.042632 0)
(0.888264 -0.127896 0)
(0.888264 -0.21316 0)
(0.888264 -0.298424 0)
(0.888264 -0.383688 0)
(0.888264 -0.468952 0)
(0.888264 -0.554216 0)
(0.888264 -0.63948 0)
(0.888264 -0.724744 0)
(0.888264 -0.810008 0)
(0.888264 -0.895272 0)
(0.888264 -0.980536 0)
(0.888264 -1.0658 0)
(0.888264 -1.15106 0)
(0.888264 -1.23633 0)
(0.888264 -1.32159 0)
(0.888264 -1.40686 0)
(0.888264 -1.49212 0)
(0.888264 -1.57738 0)
(0.888264 -1.66265 0)
(0.888264 -1.74791 0)
(0.888264 -1.83318 0)
(0.888264 -1.91844 0)
(0.888264 -2.0037 0)
(0.888264 -2.08897 0)
(0.888264 -2.17423 0)
(0.888264 -2.2595 0)
(0.888264 -2.34476 0)
(0.888264 -2.43002 0)
(0.888264 -2.51529 0)
(0.888264 -2.60055 0)
(0.888264 -2.68582 0)
(0.888264 -2.77108 0)
(0.888264 -2.85634 0)
(0.888264 -2.94161 0)
(0.888264 -3.02687 0)
(0.888264 -3.11214 0)
(0.888264 -3.1974 0)
(0.888264 -3.28266 0)
(0.888264 -3.36793 0)
(0.888264 -3.45319 0)
(0.888264 -3.53846 0)
(0.888264 -3.62372 0)
(0.888264 -3.70898 0)
(0.888264 -3.79425 0)
(0.888264 -3.87951 0)
(0.888264 -3.96478 0)
(0.888264 -4.05004 0)
(0.888264 -4.1353 0)
(0.888264 -4.22057 0)
(0.981704 -0.042632 0)
(0.981704 -0.127896 0)
(0.981704 -0.21316 0)
(0.981704 -0.298424 0)
(0.981704 -0.383688 0)
(0.981704 -0.468952 0)
(0.981704 -0.554216 0)
(0.981704 -0.63948 0)
(0.981704 -0.724744 0)
(0.981704 -0.810008 0)
(0.981704 -0.895272 0)
(0.981704 -0.980536 0)
(0.981704 -1.0658 0)
(0.981704 -1.15106 0)
(0.981704 -1.23633 0)
(0.981704 -1.32159 0)
(0.981704 -1.40686 0)
(0.981704 -1.49212 0)
(0.981704 -1.57738 0)
(0.981704 -1.66265 0)
(0.981704 -1.74791 0)
(0.981704 -1.83318 0)
(0.981704 -1.91844 0)
(0.981704 -2.0037 0)
(0.981704 -2.08897 0)
(0.981704 -2.17423 0)
(0.981704 -2.2595 0)
(0.981704 -2.34476 0)
(0.981704 -2.43002 0)
(0.981704 -2.51529 0)
(0.981704 -2.60055 0)
(0.981704 -2.68582 0)
(0.981704 -2.77108 0)
(0.981704 -2.85634 0)
(0.981704 -2.94161 0)
(0.981704 -3.02687 0)
(0.981704 -3.11214 0)
(0.981704 -3.1974 0)
(0.981704 -3.28266 0)
(0.981704 -3.36793 0)
(0.981704 -3.45319 0)
(0.981704 -3.53846 0)
(0.981704 -3.62372 0)
(0.981704 -3.70898 0)
(0.981704 -3.79425 0)
(0.981704 -3.87951 0)
(0.981704 -3.96478 0)
(0.981704 -4.05004 0)
(0.981704 -4.1353 0)
(0.981704 -4.22057 0)
(1.07982 -0.042632 0)
(1.07982 -0.127896 0)
(1.07982 -0.21316 0)
(1.07982 -0.298424 0)
(1.07982 -0.383688 0)
(1.07982 -0.468952 0)
(1.07982 -0.554216 0)
(1.07982 -0.63948 0)
(1.07982 -0.724744 0)
(1.07982 -0.810008 0)
(1.07982 -0.895272 0)
(1.07982 -0.980536 0)
(1.07982 -1.0658 0)
(1.07982 -1.15106 0)
(1.07982 -1.23633 0)
(1.07982 -1.32159 0)
(1.07982 -1.40686 0)
(1.07982 -1.49212 0)
(1.07982 -1.57738 0)
(1.07982 -1.66265 0)
(1.07982 -1.74791 0)
(1.07982 -1.83318 0)
(1.07982 -1.91844 0)
(1.07982 -2.0037 0)
(1.07982 -2.08897 0)
(1.07982 -2.17423 0)
(1.07982 -2.2595 0)
(1.07982 -2.34476 0)
(1.07982 -2.43002 0)
(1.07982 -2.51529 0)
(1.07982 -2.60055 0)
(1.07982 -2.68582 0)
(1.07982 -2.77108 0)
(1.07982 -2.85634 0)
(1.07982 -2.94161 0)
(1.07982 -3.02687 0)
(1.07982 -3.11214 0)
(1.07982 -3.1974 0)
(1.07982 -3.28266 0)
(1.07982 -3.36793 0)
(1.07982 -3.45319 0)
(1.07982 -3.53846 0)
(1.07982 -3.62372 0)
(1.07982 -3.70898 0)
(1.07982 -3.79425 0)
(1.07982 -3.87951 0)
(1.07982 -3.96478 0)
(1.07982 -4.05004 0)
(1.07982 -4.1353 0)
(1.07982 -4.22057 0)
(1.1826 -0.042632 0)
(1.1826 -0.127896 0)
(1.1826 -0.21316 0)
(1.1826 -0.298424 0)
(1.1826 -0.383688 0)
(1.1826 -0.468952 0)
(1.1826 -0.554216 0)
(1.1826 -0.63948 0)
(1.1826 -0.724744 0)
(1.1826 -0.810008 0)
(1.1826 -0.895272 0)
(1.1826 -0.980536 0)
(1.1826 -1.0658 0)
(1.1826 -1.15106 0)
(1.1826 -1.23633 0)
(1.1826 -1.32159 0)
(1.1826 -1.40686 0)
(1.1826 -1.49212 0)
(1.1826 -1.57738 0)
(1.1826 -1.66265 0)
(1.1826 -1.74791 0)
(1.1826 -1.83318 0)
(1.1826 -1.91844 0)
(1.1826 -2.0037 0)
(1.1826 -2.08897 0)
(1.1826 -2.17423 0)
(1.1826 -2.2595 0)
(1.1826 -2.34476 0)
(1.1826 -2.43002 0)
(1.1826 -2.51529 0)
(1.1826 -2.60055 0)
(1.1826 -2.68582 0)
(1.1826 -2.77108 0)
(1.1826 -2.85634 0)
(1.1826 -2.94161 0)
(1.1826 -3.02687 0)
(1.1826 -3.11214 0)
(1.1826 -3.1974 0)
(1.1826 -3.28266 0)
(1.1826 -3.36793 0)
(1.1826 -3.45319 0)
(1.1826 -3.53846 0)
(1.1826 -3.62372 0)
(1.1826 -3.70898 0)
(1.1826 -3.79425 0)
(1.1826 -3.87951 0)
(1.1826 -3.96478 0)
(1.1826 -4.05004 0)
(1.1826 -4.1353 0)
(1.1826 -4.22057 0)
(1.29006 -0.042632 0)
(1.29006 -0.127896 0)
(1.29006 -0.21316 0)
(1.29006 -0.298424 0)
(1.29006 -0.383688 0)
(1.29006 -0.468952 0)
(1.29006 -0.554216 0)
(1.29006 -0.63948 0)
(1.29006 -0.724744 0)
(1.29006 -0.810008 0)
(1.29006 -0.895272 0)
(1.29006 -0.980536 0)
(1.29006 -1.0658 0)
(1.29006 -1.15106 0)
(1.29006 -1.23633 0)
(1.29006 -1.32159 0)
(1.29006 -1.40686 0)
(1.29006 -1.49212 0)
(1.29006 -1.57738 0)
(1.29006 -1.66265 0)
(1.29006 -1.74791 0)
(1.29006 -1.83318 0)
(1.29006 -1.91844 0)
(1.29006 -2.0037 0)
(1.29006 -2.08897 0)
(1.29006 -2.17423 0)
(1.29006 -2.2595 0)
(1.29006 -2.34476 0)
(1.29006 -2.43002 0)
(1.29006 -2.51529 0)
(1.29006 -2.60055 0)
(1.29006 -2.68582 0)
(1.29006 -2.77108 0)
(1.29006 -2.85634 0)
(1.29006 -2.94161 0)
(1.29006 -3.02687 0)
(1.29006 -3.11214 0)
(1.29006 -3.1974 0)
(1.29006 -3.28266 0)
(1.29006 -3.36793 0)
(1.29006 -3.45319 0)
(1.29006 -3.53846 0)
(1.29006 -3.62372 0)
(1.29006 -3.70898 0)
(1.29006 -3.79425 0)
(1.29006 -3.87951 0)
(1.29006 -3.96478 0)
(1.29006 -4.05004 0)
(1.29006 -4.1353 0)
(1.29006 -4.22057 0)
(1.40218 -0.042632 0)
(1.40218 -0.127896 0)
(1.40218 -0.21316 0)
(1.40218 -0.298424 0)
(1.40218 -0.383688 0)
(1.40218 -0.468952 0)
(1.40218 -0.554216 0)
(1.40218 -0.63948 0)
(1.40218 -0.724744 0)
(1.40218 -0.810008 0)
(1.40218 -0.895272 0)
(1.40218 -0.980536 0)
(1.40218 -1.0658 0)
(1.40218 -1.15106 0)
(1.40218 -1.23633 0)
(1.40218 -1.32159 0)
(1.40218 -1.40686 0)
(1.40218 -1.49212 0)
(1.40218 -1.57738 0)
(1.40218 -1.66265 0)
(1.40218 -1.74791 0)
(1.40218 -1.83318 0)
(1.40218 -1.91844 0)
(1.40218 -2.0037 0)
(1.40218 -2.08897 0)
(1.40218 -2.17423 0)
(1.40218 -2.2595 0)
(1.40218 -2.34476 0)
(1.40218 -2.43002 0)
(1.40218 -2.51529 0)
(1.40218 -2.60055 0)
(1.40218 -2.68582 0)
(1.40218 -2.77108 0)
(1.40218 -2.85634 0)
(1.40218 -2.94161 0)
(1.40218 -3.02687 0)
(1.40218 -3.11214 0)
(1.40218 -3.1974 0)
(1.40218 -3.28266 0)
(1.40218 -3.36793 0)
(1.40218 -3.45319 0)
(1.40218 -3.53846 0)
(1.40218 -3.62372 0)
(1.40218 -3.70898 0)
(1.40218 -3.79425 0)
(1.40218 -3.87951 0)
(1.40218 -3.96478 0)
(1.40218 -4.05004 0)
(1.40218 -4.1353 0)
(1.40218 -4.22057 0)
(1.51898 -0.042632 0)
(1.51898 -0.127896 0)
(1.51898 -0.21316 0)
(1.51898 -0.298424 0)
(1.51898 -0.383688 0)
(1.51898 -0.468952 0)
(1.51898 -0.554216 0)
(1.51898 -0.63948 0)
(1.51898 -0.724744 0)
(1.51898 -0.810008 0)
(1.51898 -0.895272 0)
(1.51898 -0.980536 0)
(1.51898 -1.0658 0)
(1.51898 -1.15106 0)
(1.51898 -1.23633 0)
(1.51898 -1.32159 0)
(1.51898 -1.40686 0)
(1.51898 -1.49212 0)
(1.51898 -1.57738 0)
(1.51898 -1.66265 0)
(1.51898 -1.74791 0)
(1.51898 -1.83318 0)
(1.51898 -1.91844 0)
(1.51898 -2.0037 0)
(1.51898 -2.08897 0)
(1.51898 -2.17423 0)
(1.51898 -2.2595 0)
(1.51898 -2.34476 0)
(1.51898 -2.43002 0)
(1.51898 -2.51529 0)
(1.51898 -2.60055 0)
(1.51898 -2.68582 0)
(1.51898 -2.77108 0)
(1.51898 -2.85634 0)
(1.51898 -2.94161 0)
(1.51898 -3.02687 0)
(1.51898 -3.11214 0)
(1.51898 -3.1974 0)
(1.51898 -3.28266 0)
(1.51898 -3.36793 0)
(1.51898 -3.45319 0)
(1.51898 -3.53846 0)
(1.51898 -3.62372 0)
(1.51898 -3.70898 0)
(1.51898 -3.79425 0)
(1.51898 -3.87951 0)
(1.51898 -3.96478 0)
(1.51898 -4.05004 0)
(1.51898 -4.1353 0)
(1.51898 -4.22057 0)
(1.64046 -0.042632 0)
(1.64046 -0.127896 0)
(1.64046 -0.21316 0)
(1.64046 -0.298424 0)
(1.64046 -0.383688 0)
(1.64046 -0.468952 0)
(1.64046 -0.554216 0)
(1.64046 -0.63948 0)
(1.64046 -0.724744 0)
(1.64046 -0.810008 0)
(1.64046 -0.895272 0)
(1.64046 -0.980536 0)
(1.64046 -1.0658 0)
(1.64046 -1.15106 0)
(1.64046 -1.23633 0)
(1.64046 -1.32159 0)
(1.64046 -1.40686 0)
(1.64046 -1.49212 0)
(1.64046 -1.57738 0)
(1.64046 -1.66265 0)
(1.64046 -1.74791 0)
(1.64046 -1.83318 0)
(1.64046 -1.91844 0)
(1.64046 -2.0037 0)
(1.64046 -2.08897 0)
(1.64046 -2.17423 0)
(1.64046 -2.2595 0)
(1.64046 -2.34476 0)
(1.64046 -2.43002 0)
(1.64046 -2.51529 0)
(1.64046 -2.60055 0)
(1.64046 -2.68582 0)
(1.64046 -2.77108 0)
(1.64046 -2.85634 0)
(1.64046 -2.94161 0)
(1.64046 -3.02687 0)
(1.64046 -3.11214 0)
(1.64046 -3.1974 0)
(1.64046 -3.28266 0)
(1.64046 -3.36793 0)
(1.64046 -3.45319 0)
(1.64046 -3.53846 0)
(1.64046 -3.62372 0)
(1.64046 -3.70898 0)
(1.64046 -3.79425 0)
(1.64046 -3.87951 0)
(1.64046 -3.96478 0)
(1.64046 -4.05004 0)
(1.64046 -4.1353 0)
(1.64046 -4.22057 0)
(1.7666 -0.042632 0)
(1.7666 -0.127896 0)
(1.7666 -0.21316 0)
(1.7666 -0.298424 0)
(1.7666 -0.383688 0)