/*--------------------------------*- C++ -*----------------------------------*\
| =========                 |                                                 |
| \\      /  F ield         | OpenFOAM: The Open Source CFD Toolbox           |
|  \\    /   O peration     | Version:  v2006                                 |
|   \\  /    A nd           | Website:  www.openfoam.com                      |
|    \\/     M anipulation  |                                                 |
\*---------------------------------------------------------------------------*/
FoamFile
{
    version     2.0;
    format      ascii;
    class       surfaceScalarField;
    location    "2.8";
    object      phi;
}
// * * * * * * * * * * * * * * * * * * * * * * * * * * * * * * * * * * * * * //

dimensions      [0 3 -1 0 0 0 0];
oriented        oriented;


internalField   nonuniform List<scalar> 
99450
(
1.95022e-05
-1.95022e-05
4.72475e-05
-2.77454e-05
6.97783e-05
-2.25308e-05
9.47664e-05
-2.49882e-05
0.000117573
-2.2807e-05
0.000142037
-2.44632e-05
0.000164299
-2.22623e-05
0.000188806
-2.45066e-05
0.000209954
-2.11486e-05
0.000234688
-2.47337e-05
0.000254771
-2.00831e-05
0.000279377
-2.46061e-05
0.000298725
-1.9348e-05
0.000322705
-2.39796e-05
0.000341631
-1.89262e-05
0.000364568
-2.29373e-05
0.000383321
-1.87529e-05
0.000404961
-2.16404e-05
0.000423697
-1.8736e-05
0.000443967
-2.02696e-05
0.000462743
-1.87756e-05
0.000481784
-1.90416e-05
0.000500371
-1.85863e-05
0.000518778
-1.84078e-05
0.000536987
-1.82091e-05
0.000555015
-1.80279e-05
0.000572907
-1.78918e-05
0.000590692
-1.77849e-05
0.000608407
-1.77146e-05
0.000626084
-1.76777e-05
0.000643759
-1.7675e-05
0.000661479
-1.77192e-05
0.000679272
-1.77938e-05
0.000697183
-1.79107e-05
0.000715242
-1.80593e-05
0.000733481
-1.82389e-05
0.000751926
-1.84451e-05
0.000770595
-1.86689e-05
0.000789497
-1.89021e-05
0.000808635
-1.91377e-05
0.000828005
-1.93696e-05
0.000847598
-1.95933e-05
0.000867403
-1.98052e-05
0.000887404
-2.00011e-05
0.000907582
-2.01773e-05
0.000927913
-2.03319e-05
0.000948376
-2.04622e-05
0.000968945
-2.05691e-05
0.000989596
-2.06511e-05
0.0010103
-2.07084e-05
0.00103105
-2.07417e-05
0.0010518
-2.07505e-05
0.00107253
-2.07346e-05
0.00109323
-2.06944e-05
0.00111385
-2.06296e-05
0.0011344
-2.05407e-05
0.00115482
-2.04276e-05
0.00117511
-2.02902e-05
0.00119524
-2.0128e-05
0.00121518
-1.99409e-05
0.00123491
-1.97285e-05
0.0012544
-1.94907e-05
0.00127363
-1.92269e-05
0.00129257
-1.89374e-05
0.00131119
-1.86211e-05
0.00132946
-1.82779e-05
0.00134737
-1.79073e-05
0.00136488
-1.75086e-05
0.00138196
-1.70813e-05
0.00139859
-1.66258e-05
0.00141473
-1.61424e-05
0.00143036
-1.56313e-05
0.00144545
-1.50928e-05
0.00145998
-1.45271e-05
0.00147392
-1.39335e-05
0.00148722
-1.33086e-05
0.00149987
-1.26455e-05
0.00151181
-1.1936e-05
0.00152298
-1.11732e-05
0.00153333
-1.03527e-05
0.0015428
-9.47309e-06
0.00155134
-8.53585e-06
0.00155888
-7.54467e-06
0.00156539
-6.50319e-06
0.0015708
-5.41407e-06
0.00157508
-4.27954e-06
0.00157818
-3.10069e-06
0.00158006
-1.87678e-06
0.00158066
-6.02673e-07
0.00157993
7.35961e-07
0.00157782
2.10273e-06
0.00157431
3.51683e-06
0.00156932
4.98343e-06
0.00156281
6.50874e-06
0.00155473
8.08178e-06
0.00154506
9.67571e-06
0.00153374
1.13133e-05
0.00152074
1.29996e-05
0.001506
1.47477e-05
0.00148945
1.65418e-05
0.00147122
1.8238e-05
0.00145158
1.96356e-05
0.0014309
2.06804e-05
0.00140942
2.14769e-05
0.00138727
2.21501e-05
0.0013645
2.27708e-05
0.00134113
2.33679e-05
0.00131718
2.39575e-05
0.00129263
2.45515e-05
0.00126747
2.51545e-05
0.00124171
2.57626e-05
0.00121534
2.63677e-05
0.00118838
2.69612e-05
0.00116084
2.75359e-05
0.00113276
2.80857e-05
0.00110415
2.86056e-05
0.00107506
2.90935e-05
0.00104551
2.95491e-05
0.00101554
2.99709e-05
0.000985179
3.03597e-05
0.000954461
3.07179e-05
0.000923414
3.10468e-05
0.00089207
3.1344e-05
0.000860468
3.16024e-05
0.000828625
3.18424e-05
0.000796555
3.20709e-05
0.000764275
3.22798e-05
0.000731807
3.24677e-05
0.000699172
3.26348e-05
0.000666389
3.27832e-05
0.000633474
3.29146e-05
0.000600445
3.30291e-05
0.000567319
3.31267e-05
0.000534112
3.32064e-05
0.000500841
3.3271e-05
0.000467517
3.33245e-05
0.000434144
3.33724e-05
0.00040072
3.34246e-05
0.000367247
3.34726e-05
0.000333707
3.35406e-05
0.00030018
3.35267e-05
0.000266634
3.3546e-05
0.000233146
3.34876e-05
0.000199963
3.31834e-05
0.00016688
3.30825e-05
0.00013398
3.29005e-05
0.000101523
3.24573e-05
7.08117e-05
3.07109e-05
3.75523e-05
3.32594e-05
3.75523e-05
1.27404e-05
-3.22425e-05
2.60443e-05
-4.10493e-05
4.04956e-05
-3.69821e-05
5.21311e-05
-3.66236e-05
6.6001e-05
-3.6677e-05
7.87317e-05
-3.71939e-05
9.27028e-05
-3.62334e-05
0.00010608
-3.78841e-05
0.000120648
-3.57163e-05
0.000134432
-3.85176e-05
0.000149762
-3.54133e-05
0.000164073
-3.89174e-05
0.000180134
-3.54092e-05
0.000195214
-3.90595e-05
0.000211958
-3.567e-05
0.000227992
-3.89709e-05
0.000245394
-3.61551e-05
0.000262447
-3.86933e-05
0.000280499
-3.67887e-05
0.000298548
-3.83182e-05
0.000317192
-3.74196e-05
0.000336204
-3.80541e-05
0.000355455
-3.7837e-05
0.000375086
-3.80384e-05
0.000394987
-3.81102e-05
0.000415136
-3.81772e-05
0.000435512
-3.82678e-05
0.000456065
-3.83382e-05
0.000476785
-3.84343e-05
0.000497639
-3.85318e-05
0.000518597
-3.86332e-05
0.000539624
-3.8746e-05
0.000560688
-3.88576e-05
0.000581754
-3.8977e-05
0.000602793
-3.90978e-05
0.00062377
-3.92161e-05
0.000644663
-3.93383e-05
0.000665453
-3.94583e-05
0.000686126
-3.95752e-05
0.000706671
-3.96831e-05
0.000727082
-3.97804e-05
0.000747352
-3.98636e-05
0.00076748
-3.9933e-05
0.000787465
-3.99864e-05
0.00080731
-4.0022e-05
0.000827017
-4.00385e-05
0.000846591
-4.0036e-05
0.000866034
-4.00125e-05
0.000885349
-3.99659e-05
0.000904537
-3.98965e-05
0.000923599
-3.98039e-05
0.000942536
-3.9687e-05
0.000961346
-3.9545e-05
0.000980029
-3.9377e-05
0.000998582
-3.91826e-05
0.001017
-3.89607e-05
0.00103528
-3.87101e-05
0.00105342
-3.84301e-05
0.00107142
-3.812e-05
0.00108925
-3.77787e-05
0.00110693
-3.74053e-05
0.00112444
-3.69989e-05
0.00114177
-3.65579e-05
0.00115891
-3.60819e-05
0.00117586
-3.55704e-05
0.00119261
-3.50216e-05
0.00120913
-3.44344e-05
0.00122543
-3.38077e-05
0.00124149
-3.31409e-05
0.0012573
-3.24324e-05
0.00127284
-3.16817e-05
0.0012881
-3.08888e-05
0.00130306
-3.00528e-05
0.0013177
-2.91718e-05
0.00133202
-2.82476e-05
0.00134599
-2.72792e-05
0.00135961
-2.62651e-05
0.00137287
-2.52026e-05
0.00138579
-2.40892e-05
0.00139836
-2.29227e-05
0.00141059
-2.17011e-05
0.00142247
-2.0423e-05
0.00143402
-1.90886e-05
0.00144521
-1.7698e-05
0.00145605
-1.62511e-05
0.00146652
-1.47476e-05
0.0014766
-1.31874e-05
0.0014863
-1.15718e-05
0.0014956
-9.90308e-06
0.00150452
-8.18666e-06
0.00151306
-6.43207e-06
0.00152121
-4.63905e-06
0.001529
-2.80809e-06
0.00153643
-9.15293e-07
0.00154341
1.10147e-06
0.00155004
3.04623e-06
0.00155631
5.04543e-06
0.00156222
7.08165e-06
0.00156782
9.14913e-06
0.00157312
1.12462e-05
0.00157798
1.33726e-05
0.00158209
1.55282e-05
0.00158506
1.77144e-05
0.00158659
1.99402e-05
0.00158654
2.22062e-05
0.00158482
2.44921e-05
0.0015814
2.67828e-05
0.00157628
2.90793e-05
0.00156945
3.13815e-05
0.00156092
3.36845e-05
0.0015507
3.59827e-05
0.0015388
3.82702e-05
0.00152522
4.05417e-05
0.00150996
4.27928e-05
0.00149302
4.50204e-05
0.00147441
4.72215e-05
0.00145411
4.93945e-05
0.00143212
5.15383e-05
0.00140845
5.364e-05
0.00138311
5.56994e-05
0.00135611
5.77167e-05
0.00132747
5.96919e-05
0.00129719
6.16244e-05
0.00126527
6.35135e-05
0.00123176
6.53608e-05
0.00119666
6.71642e-05
0.00116002
6.89197e-05
0.00112187
7.06232e-05
0.00108223
7.22736e-05
0.00104114
7.38689e-05
0.000998651
7.54069e-05
0.000954794
7.68855e-05
0.000909619
7.83018e-05
0.000863174
7.96519e-05
0.000815508
8.09367e-05
0.000766677
8.21551e-05
0.000716749
8.33002e-05
0.000665798
8.4376e-05
0.000613896
8.53743e-05
0.000561134
8.63031e-05
0.000507524
8.7137e-05
0.000453184
8.78856e-05
0.000398111
8.85608e-05
0.000342215
8.90789e-05
0.000285694
8.96035e-05
0.000228371
9.02237e-05
0.000170349
9.04795e-05
0.000112261
8.87983e-05
6.21735e-05
8.33473e-05
9.97258e-05
1.5083e-05
-4.73255e-05
3.29506e-05
-5.89169e-05
4.98515e-05
-5.3883e-05
6.55381e-05
-5.23102e-05
8.21718e-05
-5.33107e-05
9.82466e-05
-5.32686e-05
0.000115243
-5.32295e-05
0.000131416
-5.40572e-05
0.000148959
-5.32593e-05
0.000165181
-5.47398e-05
0.000183238
-5.34705e-05
0.000199649
-5.53285e-05
0.000218065
-5.38248e-05
0.00023488
-5.58741e-05
0.000253511
-5.43015e-05
0.000270898
-5.63573e-05
0.00028964
-5.48979e-05
0.000307668
-5.67211e-05
0.000326492
-5.5612e-05
0.000345112
-5.69383e-05
0.000364095
-5.64026e-05
0.000383163
-5.71224e-05
0.00040242
-5.70938e-05
0.00042179
-5.74088e-05
0.000441295
-5.76151e-05
0.000460926
-5.78079e-05
0.000480676
-5.80179e-05
0.000500552
-5.82145e-05
0.000520528
-5.84101e-05
0.000540597
-5.86006e-05
0.000560748
-5.8785e-05
0.000580965
-5.89626e-05
0.00060124
-5.91321e-05
0.000621556
-5.92933e-05
0.000641904
-5.94461e-05
0.000662277
-5.9589e-05
0.000682659
-5.97209e-05
0.000703044
-5.98428e-05
0.000723424
-5.99551e-05
0.000743787
-6.00464e-05
0.000764135
-6.01288e-05
0.000784463
-6.01909e-05
0.000804768
-6.02376e-05
0.000825043
-6.02619e-05
0.000845285
-6.02635e-05
0.000865489
-6.02435e-05
0.000885653
-6.01995e-05
0.000905768
-6.01272e-05
0.000925829
-6.00276e-05
0.000945833
-5.99003e-05
0.000965771
-5.97414e-05
0.000985633
-5.95494e-05
0.00100541
-5.9324e-05
0.0010251
-5.90633e-05
0.00104468
-5.87655e-05
0.00106415
-5.84294e-05
0.00108349
-5.80536e-05
0.0011027
-5.76365e-05
0.00112176
-5.71766e-05
0.00114065
-5.66723e-05
0.00115937
-5.61222e-05
0.00117789
-5.55245e-05
0.00119621
-5.48775e-05
0.00121431
-5.418e-05
0.00123217
-5.343e-05
0.00124977
-5.26256e-05
0.00126711
-5.17657e-05
0.00128415
-5.08482e-05
0.00130088
-4.98717e-05
0.00131728
-4.88344e-05
0.00133333
-4.7734e-05
0.00134901
-4.65695e-05
0.0013643
-4.53404e-05
0.00137917
-4.40442e-05
0.0013936
-4.26802e-05
0.00140757
-4.12474e-05
0.00142105
-3.97446e-05
0.00143402
-3.81714e-05
0.00144646
-3.65263e-05
0.00145834
-3.48083e-05
0.00146966
-3.30156e-05
0.00148038
-3.11455e-05
0.00149049
-2.91953e-05
0.00149995
-2.71634e-05
0.00150875
-2.505e-05
0.00151686
-2.28555e-05
0.00152425
-2.058e-05
0.0015309
-1.82246e-05
0.00153679
-1.57903e-05
0.00154188
-1.32791e-05
0.00154614
-1.06922e-05
0.00154953
-8.02642e-06
0.001552
-5.27309e-06
0.00155351
-2.43066e-06
0.00155436
2.56513e-07
0.00155419
3.21278e-06
0.00155307
6.16772e-06
0.00155101
9.13671e-06
0.00154805
1.2114e-05
0.0015442
1.50903e-05
0.00153949
1.80817e-05
0.0015339
2.1123e-05
0.00152739
2.42234e-05
0.00151997
2.73597e-05
0.00151166
3.05153e-05
0.00150246
3.36987e-05
0.00149233
3.69097e-05
0.00148127
4.01375e-05
0.00146927
4.33796e-05
0.00145632
4.66371e-05
0.00144239
4.99085e-05
0.00142747
5.31938e-05
0.00141151
5.64991e-05
0.00139449
5.98204e-05
0.00137635
6.31522e-05
0.00135709
6.64897e-05
0.00133665
6.98277e-05
0.00131503
7.31615e-05
0.00129218
7.64864e-05
0.00126808
7.97984e-05
0.00124271
8.3092e-05
0.00121604
8.63627e-05
0.00118806
8.96052e-05
0.00115876
9.28152e-05
0.00112813
9.59879e-05
0.00109617
9.91191e-05
0.00106289
0.000102202
0.00102829
0.000105229
0.000992366
0.000108194
0.000955143
0.000111091
0.000916636
0.000113914
0.000876868
0.000116654
0.000835866
0.000119304
0.000793661
0.000121857
0.000750289
0.000124308
0.000705794
0.000126651
0.00066022
0.000128874
0.000613625
0.00013097
0.000566066
0.000132934
0.000517627
0.000134742
0.000468337
0.000136427
0.000418294
0.000137929
0.000367557
0.000139298
0.000316029
0.000140606
0.000263961
0.000141671
0.00021104
0.000143145
0.00015767
0.000143849
0.000104681
0.000141787
5.8852e-05
0.000129177
0.000158578
1.54418e-05
-6.27673e-05
3.59273e-05
-7.94024e-05
5.39061e-05
-7.18618e-05
7.18122e-05
-7.02162e-05
9.00298e-05
-7.15283e-05
0.000107677
-7.09154e-05
0.000126202
-7.17553e-05
0.000143675
-7.153e-05
0.000162376
-7.19607e-05
0.000179855
-7.22187e-05
0.000198651
-7.22661e-05
0.000216253
-7.29309e-05
0.000235101
-7.2673e-05
0.000252859
-7.36319e-05
0.000271703
-7.31451e-05
0.000289625
-7.42791e-05
0.000308478
-7.37513e-05
0.000326606
-7.48494e-05
0.000345478
-7.44842e-05
0.000363878
-7.53383e-05
0.000382754
-7.52779e-05
0.00040146
-7.58284e-05
0.00042039
-7.60244e-05
0.000439367
-7.63856e-05
0.000458415
-7.66628e-05
0.000477572
-7.69655e-05
0.000496814
-7.72598e-05
0.000516141
-7.75411e-05
0.000535552
-7.7821e-05
0.000555043
-7.80913e-05
0.000574612
-7.83544e-05
0.000594259
-7.86095e-05
0.000613981
-7.88539e-05
0.000633776
-7.90885e-05
0.00065364
-7.93104e-05
0.00067357
-7.95189e-05
0.000693562
-7.97126e-05
0.000713607
-7.98882e-05
0.000733702
-8.00494e-05
0.000753845
-8.01898e-05
0.000774024
-8.03082e-05
0.000794234
-8.04002e-05
0.000814462
-8.04661e-05
0.000834706
-8.05056e-05
0.000854959
-8.05162e-05
0.000875212
-8.04969e-05
0.000895455
-8.04427e-05
0.000915679
-8.03512e-05
0.000935874
-8.02223e-05
0.000956028
-8.00542e-05
0.000976131
-7.98444e-05
0.000996173
-7.95911e-05
0.00101614
-7.92923e-05
0.00103602
-7.89455e-05
0.00105581
-7.85489e-05
0.00107548
-7.81009e-05
0.00109502
-7.75994e-05
0.00111443
-7.70422e-05
0.00113368
-7.64273e-05
0.00115276
-7.57526e-05
0.00117165
-7.50162e-05
0.00119035
-7.42159e-05
0.00120882
-7.33495e-05
0.00122705
-7.24145e-05
0.00124503
-7.14088e-05
0.00126274
-7.03311e-05
0.00128015
-6.91793e-05
0.00129725
-6.79502e-05
0.00131402
-6.66421e-05
0.00133044
-6.52531e-05
0.00134649
-6.37816e-05
0.00136214
-6.22245e-05
0.00137738
-6.05805e-05
0.00139219
-5.88477e-05
0.00140653
-5.7025e-05
0.0014204
-5.51108e-05
0.00143375
-5.31033e-05
0.00144659
-5.10021e-05
0.00145886
-4.88046e-05
0.00147056
-4.65088e-05
0.00148166
-4.41128e-05
0.00149213
-4.16154e-05
0.00150195
-3.90151e-05
0.0015111
-3.63114e-05
0.00151955
-3.3504e-05
0.00152729
-3.05928e-05
0.00153429
-2.75785e-05
0.00154053
-2.44625e-05
0.00154598
-2.12467e-05
0.00155064
-1.79335e-05
0.00155447
-1.45267e-05
0.00155748
-1.1031e-05
0.00155966
-7.45546e-06
0.00156104
-3.81363e-06
0.00156129
7.60197e-09
0.0015606
3.8995e-06
0.00155902
7.75617e-06
0.00155643
1.17207e-05
0.00155281
1.57405e-05
0.00154808
1.98162e-05
0.00154222
2.39377e-05
0.00153525
2.80993e-05
0.00152718
3.2293e-05
0.00151803
3.65109e-05
0.00150779
4.07467e-05
0.00149649
4.49989e-05
0.00148412
4.92847e-05
0.00147064
5.36172e-05
0.00145603
5.79907e-05
0.00144027
6.23928e-05
0.00142337
6.68143e-05
0.00140531
7.12491e-05
0.00138612
7.56927e-05
0.0013658
8.01409e-05
0.00134436
8.459e-05
0.00132181
8.90362e-05
0.00129817
9.34755e-05
0.00127342
9.7903e-05
0.0012476
0.000102314
0.00122069
0.000106705
0.00119271
0.000111071
0.00116367
0.000115407
0.00113357
0.000119708
0.00110241
0.000123967
0.00107022
0.000128177
0.00103701
0.000132333
0.00100278
0.000136428
0.00096756
0.000140452
0.000931354
0.0001444
0.000894184
0.000148261
0.00085607
0.000152028
0.000817035
0.000155689
0.000777103
0.000159235
0.000736302
0.000162658
0.000694661
0.000165949
0.000652217
0.000169096
0.000609003
0.000172088
0.000565059
0.000174914
0.000520425
0.000177567
0.000475149
0.000180019
0.000429278
0.000182297
0.000382834
0.000184373
0.000335944
0.000186188
0.000288554
0.000187997
0.000240904
0.000189321
0.000192699
0.00019135
0.000144562
0.000191986
9.74331e-05
0.000188916
5.42286e-05
0.000172381
0.000212806
1.56776e-05
-7.84449e-05
3.60908e-05
-9.98156e-05
5.43985e-05
-9.01696e-05
7.21156e-05
-8.79333e-05
9.04674e-05
-8.98801e-05
0.00010799
-8.84382e-05
0.000126554
-9.03188e-05
0.000143924
-8.89005e-05
0.000162645
-9.06818e-05
0.000179953
-8.95267e-05
0.000198787
-9.10995e-05
0.000216109
-9.0253e-05
0.000235005
-9.15686e-05
0.000252468
-9.10957e-05
0.000271425
-9.2102e-05
0.000289149
-9.20023e-05
0.000308094
-9.26969e-05
0.000326112
-9.28671e-05
0.000345029
-9.34012e-05
0.000363363
-9.36726e-05
0.000382261
-9.41757e-05
0.00040091
-9.44772e-05
0.000419821
-9.49356e-05
0.000438723
-9.52872e-05
0.000457726
-9.5666e-05
0.000476829
-9.60683e-05
0.000496018
-9.64488e-05
0.000515301
-9.68242e-05
0.000534674
-9.71946e-05
0.000554137
-9.75541e-05
0.000573688
-9.79051e-05
0.000593324
-9.82451e-05
0.000613043
-9.85733e-05
0.000632839
-9.88844e-05
0.000652709
-9.91808e-05
0.00067265
-9.94593e-05
0.000692655
-9.97182e-05
0.000712725
-9.99579e-05
0.000732844
-0.000100168
0.000753012
-0.000100358
0.000773218
-0.000100514
0.000793461
-0.000100643
0.000813732
-0.000100737
0.00083402
-0.000100793
0.000854317
-0.000100813
0.000874615
-0.000100795
0.000894907
-0.000100735
0.000915181
-0.000100626
0.000935428
-0.00010047
0.000955638
-0.000100264
0.000975799
-0.000100005
0.0009959
-9.96915e-05
0.00101593
-9.93209e-05
0.00103587
-9.88907e-05
0.00105572
-9.83985e-05
0.00107546
-9.78415e-05
0.00109508
-9.72173e-05
0.00111456
-9.65234e-05
0.00113389
-9.57574e-05
0.00115306
-9.49165e-05
0.00117204
-9.39982e-05
0.00119082
-9.29997e-05
0.00120939
-9.19184e-05
0.00122773
-9.0752e-05
0.00124582
-8.94978e-05
0.00126364
-8.81523e-05
0.00128117
-8.67129e-05
0.0012984
-8.51783e-05
0.0013153
-8.35458e-05
0.00133186
-8.18109e-05
0.00134805
-7.99726e-05
0.00136386
-7.80283e-05
0.00137925
-7.59761e-05
0.00139422
-7.38125e-05
0.00140873
-7.15366e-05
0.00142276
-6.91463e-05
0.0014363
-6.66385e-05
0.00144931
-6.40127e-05
0.00146177
-6.12668e-05
0.00147366
-5.83988e-05
0.00148496
-5.54074e-05
0.00149563
-5.2291e-05
0.00150567
-4.90487e-05
0.00151503
-4.56798e-05
0.00152371
-4.21843e-05
0.00153168
-3.85625e-05
0.00153892
-3.48154e-05
0.0015454
-3.09443e-05
0.00155111
-2.69506e-05
0.00155601
-2.28363e-05
0.00156009
-1.86035e-05
0.00156331
-1.42532e-05
0.00156564
-9.78389e-06
0.00156701
-5.18857e-06
0.00156753
-5.12464e-07
0.00156728
4.15246e-06
0.00156599
9.04116e-06
0.00156374
1.39737e-05
0.0015605
1.89815e-05
0.00155626
2.40586e-05
0.00155099
2.92063e-05
0.00154466
3.44288e-05
0.00153723
3.97237e-05
0.00152865
4.50868e-05
0.00151889
5.05138e-05
0.00150788
5.6007e-05
0.00149562
6.15439e-05
0.00148213
6.71039e-05
0.00146744
7.26845e-05
0.00145154
7.82882e-05
0.00143444
8.39131e-05
0.00141614
8.95545e-05
0.00139662
9.52073e-05
0.0013759
0.000100865
0.00135397
0.000106522
0.00133084
0.000112169
0.00130651
0.0001178
0.00128101
0.000123409
0.00125433
0.000128989
0.0012265
0.000134534
0.00119754
0.000140034
0.00116746
0.000145484
0.00113629
0.000150877
0.00110405
0.000156204
0.00107077
0.000161458
0.00103648
0.000166631
0.00100119
0.000171715
0.000964941
0.000176699
0.000927765
0.000181576
0.000889692
0.000186334
0.000850756
0.000190964
0.000810988
0.000195457
0.000770425
0.000199798
0.000729103
0.00020398
0.000687061
0.000207991
0.000644337
0.00021182
0.000600967
0.000215457
0.000556994
0.000218887
0.000512459
0.000222103
0.000467391
0.000225086
0.00042186
0.000227828
0.000375868
0.000230365
0.000329533
0.000232523
0.000282847
0.000234684
0.000236012
0.000236156
0.000188751
0.000238611
0.000141675
0.000239063
9.56217e-05
0.000234969
5.28211e-05
0.000215182
0.000265628
1.57017e-05
-9.41466e-05
3.57321e-05
-0.000119846
5.39097e-05
-0.000108347
7.14204e-05
-0.000105444
8.97587e-05
-0.000108218
0.000107099
-0.000105778
0.000125684
-0.000108904
0.000142895
-0.000106111
0.000161645
-0.000109432
0.000178829
-0.00010671
0.000197689
-0.00010996
0.000214955
-0.000107519
0.000233876
-0.000110489
0.000251294
-0.000108513
0.000270173
-0.000110981
0.000287801
-0.00010963
0.000306654
-0.00011155
0.000324604
-0.000110817
0.000343426
-0.000112224
0.000361748
-0.000111995
0.00038056
-0.000112987
0.000399213
-0.000113131
0.000418101
-0.000113824
0.000437016
-0.000114202
0.000456058
-0.000114708
0.000475182
-0.000115192
0.000494404
-0.00011567
0.000513727
-0.000116148
0.000533143
-0.000116611
0.000552654
-0.000117065
0.000572253
-0.000117505
0.000591943
-0.000117935
0.000611716
-0.000118346
0.000631572
-0.00011874
0.000651504
-0.000119113
0.000671508
-0.000119464
0.000691581
-0.000119791
0.000711712
-0.000120089
0.0007319
-0.000120356
0.000752137
-0.000120595
0.000772417
-0.000120794
0.00079273
-0.000120956
0.000813076
-0.000121083
0.000833441
-0.000121158
0.000853819
-0.000121191
0.0008742
-0.000121175
0.000894573
-0.000121108
0.000914933
-0.000120986
0.000935272
-0.000120808
0.000955577
-0.000120569
0.000975839
-0.000120267
0.000996045
-0.000119898
0.00101618
-0.00011946
0.00103624
-0.000118951
0.00105621
-0.000118367
0.00107608
-0.000117706
0.00109583
-0.000116965
0.00111544
-0.00011614
0.00113491
-0.000115228
0.00115422
-0.000114227
0.00117336
-0.000113132
0.0011923
-0.000111942
0.00121103
-0.000110653
0.00122954
-0.00010926
0.00124781
-0.000107762
0.00126581
-0.000106156
0.00128354
-0.000104438
0.00130096
-0.000102604
0.00131807
-0.000100652
0.00133483
-9.8578e-05
0.00135124
-9.63805e-05
0.00136727
-9.40552e-05
0.00138289
-9.15995e-05
0.00139809
-8.90107e-05
0.00141284
-8.62873e-05
0.00142712
-8.3427e-05
0.00144091
-8.04255e-05
0.00145418
-7.72828e-05
0.00146691
-7.39958e-05
0.00147907
-7.05624e-05
0.00149065
-6.69811e-05
0.00150161
-6.3251e-05
0.00151193
-5.93714e-05
0.00152159
-5.53415e-05
0.00153057
-5.11605e-05
0.00153883
-4.68286e-05
0.00154636
-4.23473e-05
0.00155314
-3.77175e-05
0.00155913
-3.29407e-05
0.00156431
-2.80196e-05
0.00156866
-2.29569e-05
0.00157217
-1.77565e-05
0.00157481
-1.24238e-05
0.00157659
-6.96704e-06
0.00157745
-1.3762e-06
0.00157717
4.42827e-06
0.00157599
1.02275e-05
0.00157379
1.61685e-05
0.00157057
2.22033e-05
0.0015663
2.83326e-05
0.00156094
3.45662e-05
0.00155449
4.08792e-05
0.00154693
4.72758e-05
0.00153828
5.37434e-05
0.00152851
6.02797e-05
0.00151765
6.68694e-05
0.00150567
7.35188e-05
0.00149255
8.02324e-05
0.00147823
8.70009e-05
0.00146271
9.38112e-05
0.00144597
0.000100653
0.001428
0.000107517
0.00140882
0.000114395
0.0013884
0.000121279
0.00136676
0.000128161
0.0013439
0.000135033
0.00131981
0.000141885
0.00129452
0.000148708
0.00126801
0.000155493
0.00124032
0.00016223
0.00121144
0.000168911
0.0011814
0.000175525
0.00115021
0.000182063
0.0011179
0.000188514
0.00108449
0.000194868
0.00105001
0.000201115
0.00101448
0.000207243
0.000977938
0.000213241
0.000940415
0.000219099
0.000901947
0.000224803
0.000862567
0.000230343
0.000822317
0.000235707
0.000781235
0.000240881
0.00073936
0.000245855
0.000696733
0.000250617
0.000653399
0.000255154
0.000609405
0.000259452
0.00056479
0.000263502
0.000519607
0.000267286
0.00047389
0.000270804
0.000427711
0.000274007
0.000381076
0.000276999
0.000334108
0.000279491
0.000286771
0.00028202
0.000239263
0.000283664
0.000191316
0.000286558
0.000143446
0.000286933
9.65247e-05
0.00028189
5.33406e-05
0.000258366
0.000318968
1.56834e-05
-0.00010983
3.55793e-05
-0.000139742
5.37628e-05
-0.000126531
7.10555e-05
-0.000122737
8.92922e-05
-0.000126455
0.000106492
-0.000122978
0.000124952
-0.000127364
0.000142059
-0.000123218
0.000160679
-0.000128053
0.000177807
-0.000123838
0.000196513
-0.000128666
0.00021375
-0.000124756
0.000232485
-0.000129224
0.000249948
-0.000125977
0.000268717
-0.00012975
0.000286525
-0.000127439
0.000305268
-0.000130293
0.0003234
-0.000128949
0.000342126
-0.000130949
0.000360574
-0.000130443
0.000379337
-0.000131751
0.00039807
-0.000131863
0.000416938
-0.000132692
0.000435902
-0.000133165
0.000454964
-0.00013377
0.000474115
-0.000134343
0.000493354
-0.000134909
0.0005127
-0.000135494
0.000532143
-0.000136054
0.000551684
-0.000136605
0.00057132
-0.000137141
0.000591048
-0.000137663
0.000610861
-0.00013816
0.000630761
-0.00013864
0.000650743
-0.000139094
0.000670802
-0.000139524
0.00069093
-0.000139918
0.000711122
-0.000140281
0.000731377
-0.000140611
0.000751682
-0.0001409
0.00077204
-0.000141152
0.000792437
-0.000141353
0.000812864
-0.00014151
0.000833321
-0.000141615
0.000853792
-0.000141663
0.000874273
-0.000141656
0.000894755
-0.00014159
0.000915229
-0.00014146
0.000935682
-0.000141262
0.000956106
-0.000140993
0.000976493
-0.000140653
0.000996829
-0.000140235
0.0010171
-0.000139736
0.00103731
-0.000139154
0.00105743
-0.000138486
0.00107745
-0.000137726
0.00109736
-0.000136873
0.00111714
-0.000135922
0.00113678
-0.000134871
0.00115627
-0.000133715
0.00117559
-0.00013245
0.00119472
-0.000131074
0.00121365
-0.000129582
0.00123236
-0.000127971
0.00125083
-0.000126236
0.00126905
-0.000124374
0.00128699
-0.000122382
0.00130464
-0.000120254
0.00132198
-0.00011799
0.00133899
-0.000115582
0.00135564
-0.00011303
0.00137191
-0.000110329
0.00138779
-0.000107476
0.00140324
-0.000104467
0.00141825
-0.0001013
0.0014328
-9.79722e-05
0.00144685
-9.44802e-05
0.00146039
-9.08226e-05
0.00147339
-8.6996e-05
0.00148583
-8.29991e-05
0.00149768
-7.88296e-05
0.00150892
-7.44861e-05
0.00151951
-6.99678e-05
0.00152944
-6.52738e-05
0.00153869
-6.04038e-05
0.00154722
-5.53584e-05
0.00155501
-5.01384e-05
0.00156204
-4.4745e-05
0.00156827
-3.91796e-05
0.0015737
-3.34447e-05
0.00157829
-2.75433e-05
0.00158201
-2.14786e-05
0.00158484
-1.52536e-05
0.00158674
-8.86858e-06
0.00158768
-2.3176e-06
0.00158775
4.35809e-06
0.00158681
1.11678e-05
0.00158488
1.80966e-05
0.00158192
2.51619e-05
0.00157793
3.23273e-05
0.00157287
3.96219e-05
0.00156673
4.70223e-05
0.00155948
5.45222e-05
0.0015511
6.21266e-05
0.00154156
6.98176e-05
0.00153083
7.76007e-05
0.0015189
8.54554e-05
0.00150576
9.33662e-05
0.00149143
0.000101328
0.00147591
0.000109334
0.00145919
0.000117378
0.00144125
0.000125452
0.0014221
0.000133546
0.00140173
0.000141651
0.00138013
0.000149755
0.00135732
0.000157847
0.00133329
0.000165918
0.00130804
0.000173955
0.00128158
0.000181949
0.00125393
0.000189887
0.00122508
0.000197757
0.00119506
0.000205548
0.00116387
0.000213247
0.00113155
0.000220842
0.0010981
0.000228319
0.00106354
0.000235666
0.00102792
0.00024287
0.000991241
0.000249917
0.000953546
0.000256793
0.000914864
0.000263485
0.000875229
0.000269978
0.000834676
0.000276261
0.000793244
0.000282313
0.000750973
0.000288126
0.000707905
0.000293686
0.000664082
0.000298977
0.000619549
0.000303985
0.000574355
0.000308696
0.000528548
0.000313093
0.000482168
0.000317184
0.000435287
0.000320888
0.000387924
0.000324363
0.000340192
0.000327222
0.000292054
0.000330158
0.000243685
0.000332034
0.00019484
0.000335403
0.000145973
0.000335799
9.80853e-05
0.000329778
5.43032e-05
0.000302148
0.000373271
1.55975e-05
-0.000125428
3.53659e-05
-0.00015951
5.34469e-05
-0.000144612
7.06993e-05
-0.000139989
8.88306e-05
-0.000144586
0.000106014
-0.000140161
0.000124352
-0.000145702
0.000141507
-0.000140373
0.00015997
-0.000146516
0.000177186
-0.000141054
0.000195724
-0.000147205
0.000213103
-0.000142134
0.000231673
-0.000147794
0.00024929
-0.000143594
0.000267824
-0.000148283
0.000285701
-0.000145316
0.000304234
-0.000148827
0.000322444
-0.000147159
0.000341016
-0.00014952
0.000359536
-0.000148963
0.000378195
-0.00015041
0.000396971
-0.000150639
0.0004158
-0.000151521
0.000434778
-0.000152143
0.000453837
-0.00015283
0.000473002
-0.000153508
0.000492273
-0.00015418
0.000511623
-0.000154844
0.000531085
-0.000155516
0.000550648
-0.000156168
0.000570312
-0.000156805
0.000590071
-0.000157423
0.000609927
-0.000158016
0.000629873
-0.000158585
0.000649904
-0.000159125
0.000670014
-0.000159634
0.000690204
-0.000160108
0.000710467
-0.000160544
0.000730797
-0.000160942
0.000751184
-0.000161288
0.000771626
-0.000161593
0.000792114
-0.000161841
0.000812639
-0.000162035
0.000833199
-0.000162175
0.000853784
-0.000162248
0.000874383
-0.000162256
0.000894987
-0.000162194
0.000915588
-0.000162061
0.000936176
-0.00016185
0.000956743
-0.00016156
0.000977277
-0.000161187
0.000997767
-0.000160725
0.0010182
-0.00016017
0.00103857
-0.000159522
0.00105886
-0.000158775
0.00107905
-0.000157924
0.00109915
-0.000156966
0.00111912
-0.000155897
0.00113896
-0.000154713
0.00115866
-0.00015341
0.00117819
-0.000151983
0.00119755
-0.000150427
0.0012167
-0.00014874
0.00123565
-0.000146915
0.00125436
-0.000144951
0.00127283
-0.000142841
0.00129103
-0.000140582
0.00130894
-0.000138168
0.00132655
-0.000135596
0.00134383
-0.000132862
0.00136076
-0.000129961
0.00137732
-0.000126891
0.00139349
-0.000123646
0.00140925
-0.000120222
0.00142457
-0.000116617
0.00143942
-0.000112829
0.00145379
-0.000108851
0.00146765
-0.000104683
0.00148098
-0.000100321
0.00149374
-9.57636e-05
0.00150592
-9.10087e-05
0.00151749
-8.60542e-05
0.00152842
-8.08992e-05
0.00153869
-7.55432e-05
0.00154827
-6.9985e-05
0.00155714
-6.42256e-05
0.00156527
-5.82653e-05
0.00157263
-5.21055e-05
0.0015792
-4.57481e-05
0.00158495
-3.91959e-05
0.00158985
-3.24515e-05
0.00159389
-2.55183e-05
0.00159704
-1.84005e-05
0.00159928
-1.11034e-05
0.00160059
-3.63062e-06
0.00160088
4.06556e-06
0.00160019
1.1856e-05
0.00159848
1.98108e-05
0.0015957
2.79401e-05
0.00159186
3.61639e-05
0.00158693
4.45589e-05
0.00158089
5.30626e-05
0.00157372
6.16876e-05
0.00156542
7.04268e-05
0.00155596
7.92745e-05
0.00154535
8.82127e-05
0.00153357
9.7237e-05
0.00152059
0.000106342
0.00150641
0.000115517
0.00149099
0.000124749
0.00147434
0.000134027
0.00145646
0.000143339
0.00143733
0.000152675
0.00141696
0.000162021
0.00139534
0.000171367
0.00137249
0.0001807
0.0013484
0.000190009
0.00132308
0.00019928
0.00129653
0.000208499
0.00126876
0.000217654
0.00123978
0.000226731
0.00120962
0.000235715
0.00117827
0.000244592
0.00114577
0.000253349
0.00111212
0.000261969
0.00107734
0.000270437
0.00104148
0.000278738
0.00100454
0.000286857
0.000966552
0.000294777
0.000927554
0.000302483
0.000887574
0.000309958
0.000846647
0.000317187
0.00080481
0.00032415
0.000762102
0.000330834
0.000718563
0.000337225
0.000674234
0.000343305
0.000629163
0.000349057
0.000583395
0.000354464
0.00053698
0.000359508
0.000489964
0.0003642
0.000442406
0.000368446
0.00039434
0.000372428
0.000345865
0.000375697
0.000296966
0.000379057
0.000247793
0.000381206
0.000198136
0.00038506
0.000148399
0.000385536
9.97092e-05
0.000378469
5.52751e-05
0.000346582
0.000428547
1.55179e-05
-0.000140945
3.52226e-05
-0.000179215
5.32096e-05
-0.000162599
7.03835e-05
-0.000157163
8.83794e-05
-0.000162582
0.000105551
-0.000157333
0.000123703
-0.000163855
0.000140877
-0.000157546
0.000159134
-0.000164773
0.000176399
-0.000158319
0.000194716
-0.000165522
0.000212166
-0.000159584
0.000230498
-0.000166126
0.000248196
-0.000161292
0.000266548
-0.000166636
0.000284561
-0.000163329
0.000302939
-0.000167205
0.000321246
-0.000165466
0.000339698
-0.000167972
0.000358264
-0.000167529