/*--------------------------------*- C++ -*----------------------------------*\
| =========                 |                                                 |
| \\      /  F ield         | OpenFOAM: The Open Source CFD Toolbox           |
|  \\    /   O peration     | Version:  v2006                                 |
|   \\  /    A nd           | Website:  www.openfoam.com                      |
|    \\/     M anipulation  |                                                 |
\*---------------------------------------------------------------------------*/
FoamFile
{
    version     2.0;
    format      ascii;
    class       volScalarField;
    location    "0.8";
    object      p_rgh;
}
// * * * * * * * * * * * * * * * * * * * * * * * * * * * * * * * * * * * * * //

dimensions      [1 -1 -2 0 0 0 0];


internalField   nonuniform List<scalar> 
52500
(
1001.17
1001.35
1001.72
1002.28
1003.02
1003.94
1005.05
1006.35
1007.83
1009.49
1011.35
1013.38
1015.61
1018.02
1020.62
1023.4
1026.37
1029.53
1032.88
1036.41
1040.14
1044.05
1048.15
1052.44
1056.92
1061.6
1066.46
1071.51
1076.76
1082.2
1087.83
1093.66
1099.68
1105.9
1112.31
1118.91
1125.72
1132.72
1139.92
1147.31
1154.91
1162.71
1170.7
1178.9
1187.3
1195.9
1204.71
1213.72
1222.93
1232.35
1241.98
1251.82
1261.86
1272.11
1282.57
1293.24
1304.13
1315.22
1326.53
1338.05
1349.78
1361.73
1373.9
1386.28
1398.88
1411.7
1424.74
1438
1451.48
1465.18
1479.1
1493.24
1507.61
1522.21
1537.03
1552.07
1567.34
1582.84
1598.56
1614.52
1630.7
1647.11
1663.75
1680.62
1697.73
1715.06
1732.63
1750.43
1768.46
1786.72
1805.22
1823.95
1842.92
1862.12
1881.55
1901.22
1921.12
1941.26
1961.63
1982.23
2003.07
2024.14
2045.45
2066.99
2088.76
2110.76
2133
2155.47
2178.16
2201.09
2224.25
2247.63
2271.25
2295.09
2319.15
2343.44
2367.95
2392.69
2417.64
2442.82
2468.21
2493.82
2519.64
2545.67
2571.92
2598.37
2625.04
2651.9
2678.97
2706.24
2733.71
2761.37
2789.23
2817.27
2845.51
2873.93
2902.53
2931.31
2960.26
2989.39
3018.69
3048.16
3077.79
3107.58
3137.52
3167.62
3197.87
3228.26
3258.8
3289.47
3320.28
3351.22
3382.28
3413.47
3444.77
3476.19
3507.72
3539.35
3571.09
3602.92
3634.85
3666.86
3698.96
3731.14
3763.39
3795.71
3828.1
3860.55
3893.06
3925.63
3958.24
3990.89
4023.59
4056.32
4089.08
4121.87
4154.68
4187.51
4220.35
4253.21
4286.06
4318.92
4351.78
4384.62
4417.46
4450.28
4483.08
4515.86
4548.61
4581.33
4614.01
4646.65
4679.25
4711.8
4744.29
4776.72
4809.06
4841.35
4873.59
4905.78
4937.89
4969.93
5001.9
5033.79
5065.59
5097.3
5128.93
5160.46
5191.89
5223.22
5254.44
5285.56
5316.57
5347.46
5378.24
5408.89
5439.43
5469.84
5500.11
5530.26
5560.28
5590.15
5619.89
5649.48
5678.92
5708.22
5737.36
5766.35
5795.19
5823.86
5852.37
5880.72
5908.9
5936.9
5964.74
5992.4
6019.88
6047.19
6074.31
6101.24
6128
6154.56
6180.93
6207.11
6233.1
6258.89
6284.48
6309.87
6335.07
6360.06
6384.85
6409.43
6433.81
6457.98
6481.94
6505.7
6529.24
6552.58
6575.7
6598.62
6621.32
6643.82
6666.1
6688.17
6710.03
6731.67
6753.11
6774.33
6795.35
6816.15
6836.74
6857.12
6877.29
6897.26
6917.01
6936.56
6955.9
6975.04
6993.96
7012.68
7031.2
7049.51
7067.61
7085.51
7103.2
7120.69
7137.98
7155.06
7171.93
7188.6
7205.06
7221.32
7237.36
7253.2
7268.83
7284.24
7299.44
7314.44
7329.22
7343.79
7358.14
7372.27
7386.19
7399.87
7413.34
7426.57
7439.58
7452.35
7464.89
7477.19
7489.25
7501.07
7512.64
7523.96
7535.03
7545.84
7556.39
7566.68
7576.71
7586.47
7595.96
7605.16
7614.09
7622.73
7631.09
7639.16
7646.93
7654.41
7661.59
7668.47
7675.04
7681.3
7687.25
7692.89
7698.21
7703.21
7707.89
7712.24
7716.27
7719.97
7723.34
7726.38
7729.09
7731.45
7733.49
7735.18
7736.54
7737.56
7738.24
7738.58
1000.66
1000.84
1001.21
1001.77
1002.51
1003.43
1004.54
1005.84
1007.32
1008.98
1010.84
1012.87
1015.1
1017.51
1020.1
1022.89
1025.86
1029.01
1032.36
1035.89
1039.62
1043.53
1047.63
1051.92
1056.4
1061.07
1065.93
1070.99
1076.23
1081.67
1087.3
1093.13
1099.14
1105.36
1111.77
1118.37
1125.17
1132.17
1139.37
1146.76
1154.36
1162.15
1170.15
1178.34
1186.74
1195.34
1204.15
1213.15
1222.37
1231.79
1241.41
1251.24
1261.28
1271.53
1281.99
1292.66
1303.54
1314.63
1325.94
1337.46
1349.19
1361.14
1373.3
1385.68
1398.28
1411.1
1424.13
1437.39
1450.87
1464.56
1478.48
1492.63
1506.99
1521.58
1536.4
1551.44
1566.71
1582.21
1597.93
1613.88
1630.06
1646.47
1663.11
1679.98
1697.09
1714.42
1731.98
1749.78
1767.81
1786.08
1804.57
1823.3
1842.27
1861.47
1880.9
1900.57
1920.47
1940.61
1960.98
1981.58
2002.42
2023.49
2044.8
2066.34
2088.11
2110.11
2132.35
2154.82
2177.52
2200.45
2223.61
2246.99
2270.61
2294.45
2318.52
2342.81
2367.33
2392.06
2417.02
2442.2
2467.6
2493.21
2519.03
2545.07
2571.32
2597.78
2624.45
2651.32
2678.39
2705.67
2733.14
2760.81
2788.67
2816.72
2844.96
2873.39
2901.99
2930.78
2959.75
2988.88
3018.19
3047.66
3077.3
3107.1
3137.05
3167.16
3197.41
3227.81
3258.36
3289.04
3319.86
3350.8
3381.87
3413.07
3444.38
3475.81
3507.35
3538.99
3570.73
3602.57
3634.51
3666.53
3698.64
3730.82
3763.08
3795.41
3827.81
3860.27
3892.79
3925.36
3957.98
3990.64
4023.34
4056.08
4088.85
4121.64
4154.46
4187.29
4220.14
4252.99
4285.86
4318.72
4351.58
4384.43
4417.27
4450.09
4482.89
4515.67
4548.42
4581.14
4613.82
4646.47
4679.07
4711.62
4744.13
4776.6
4809.05
4841.42
4873.71
4905.93
4938.07
4970.13
5002.1
5034
5065.81
5097.53
5129.16
5160.69
5192.13
5223.46
5254.69
5285.81
5316.82
5347.71
5378.49
5409.15
5439.68
5470.09
5500.37
5530.52
5560.53
5590.4
5620.13
5649.72
5679.17
5708.46
5737.6
5766.59
5795.42
5824.09
5852.6
5880.94
5909.11
5937.12
5964.95
5992.6
6020.08
6047.38
6074.5
6101.43
6128.18
6154.74
6181.11
6207.28
6233.27
6259.05
6284.64
6310.04
6335.23
6360.22
6385
6409.58
6433.96
6458.13
6482.09
6505.85
6529.39
6552.73
6575.86
6598.77
6621.48
6643.97
6666.26
6688.33
6710.19
6731.84
6753.28
6774.51
6795.53
6816.33
6836.93
6857.32
6877.5
6897.47
6917.23
6936.79
6956.14
6975.28
6994.21
7012.94
7031.47
7049.79
7067.9
7085.81
7103.51
7121.01
7138.31
7155.4
7172.29
7188.97
7205.44
7221.71
7237.77
7253.62
7269.26
7284.68
7299.9
7314.91
7329.71
7344.29
7358.65
7372.8
7386.72
7400.42
7413.9
7427.15
7440.17
7452.95
7465.5
7477.81
7489.89
7501.71
7513.3
7524.63
7535.7
7546.52
7557.09
7567.38
7577.4
7587.14
7596.65
7605.87
7614.81
7623.47
7631.84
7639.92
7647.7
7655.19
7662.38
7669.26
7675.84
7682.11
7688.07
7693.71
7699.04
7704.05
7708.73
7713.09
7717.13
7720.83
7724.21
7727.25
7729.96
7732.33
7734.36
7736.06
7737.42
7738.44
7739.12
7739.47
999.631
999.816
1000.19
1000.74
1001.48
1002.4
1003.51
1004.81
1006.28
1007.95
1009.8
1011.84
1014.06
1016.47
1019.06
1021.84
1024.81
1027.97
1031.31
1034.84
1038.56
1042.47
1046.57
1050.86
1055.34
1060
1064.86
1069.91
1075.15
1080.59
1086.22
1092.04
1098.05
1104.26
1110.67
1117.27
1124.07
1131.06
1138.25
1145.65
1153.24
1161.02
1169.01
1177.21
1185.6
1194.19
1202.99
1212
1221.2
1230.62
1240.24
1250.07
1260.1
1270.34
1280.8
1291.46
1302.34
1313.42
1324.72
1336.24
1347.96
1359.91
1372.06
1384.44
1397.03
1409.84
1422.87
1436.12
1449.59
1463.29
1477.2
1491.34
1505.7
1520.29
1535.1
1550.13
1565.4
1580.89
1596.6
1612.55
1628.73
1645.13
1661.77
1678.63
1695.73
1713.06
1730.62
1748.41
1766.44
1784.7
1803.19
1821.92
1840.88
1860.08
1879.51
1899.17
1919.07
1939.2
1959.57
1980.18
2001.01
2022.08
2043.39
2064.93
2086.7
2108.71
2130.94
2153.41
2176.11
2199.04
2222.2
2245.59
2269.21
2293.06
2317.13
2341.42
2365.94
2390.68
2415.65
2440.83
2466.23
2491.85
2517.69
2543.73
2569.99
2596.46
2623.13
2650.02
2677.1
2704.39
2731.87
2759.55
2787.43
2815.49
2843.75
2872.19
2900.81
2929.61
2958.59
2987.75
3017.07
3046.56
3076.22
3106.03
3136.01
3166.14
3196.41
3226.84
3257.4
3288.11
3318.95
3349.92
3381.02
3412.24
3443.58
3475.03
3506.6
3538.27
3570.04
3601.91
3633.87
3665.92
3698.06
3730.27
3762.56
3794.93
3827.35
3859.85
3892.39
3925
3957.65
3990.34
4023.08
4055.85
4088.65
4121.47
4154.32
4187.19
4220.07
4252.96
4285.86
4318.75
4351.64
4384.53
4417.4
4450.26
4483.09
4515.91
4548.69
4581.45
4614.16
4646.84
4679.48
4712.07
4744.61
4777.1
4809.49
4841.83
4874.11
4906.32
4938.47
4970.54
5002.53
5034.43
5066.25
5097.98
5129.62
5161.16
5192.61
5223.95
5255.18
5286.31
5317.32
5348.22
5379
5409.66
5440.19
5470.6
5500.88
5531.02
5561.03
5590.9
5620.63
5650.22
5679.66
5708.94
5738.08
5767.06
5795.88
5824.55
5853.05
5881.38
5909.55
5937.54
5965.37
5993.01
6020.48
6047.78
6074.89
6101.81
6128.55
6155.1
6181.46
6207.63
6233.61
6259.39
6284.97
6310.36
6335.55
6360.53
6385.31
6409.89
6434.26
6458.43
6482.39
6506.15
6529.7
6553.03
6576.16
6599.08
6621.79
6644.29
6666.58
6688.65
6710.52
6732.18
6753.62
6774.86
6795.89
6816.71
6837.32
6857.72
6877.91
6897.89
6917.67
6937.24
6956.6
6975.76
6994.72
7013.46
7032.01
7050.35
7068.48
7086.41
7104.14
7121.66
7138.98
7156.09
7173
7189.7
7206.2
7222.5
7238.58
7254.46
7270.12
7285.57
7300.81
7315.85
7330.67
7345.28
7359.67
7373.84
7387.79
7401.52
7415.02
7428.29
7441.34
7454.15
7466.72
7479.06
7491.15
7503.01
7514.61
7525.96
7537.06
7547.91
7558.49
7568.81
7578.87
7588.67
7598.16
7607.39
7616.34
7625
7633.38
7641.48
7649.27
7656.77
7663.97
7670.87
7677.46
7683.74
7689.71
7695.36
7700.7
7705.71
7710.4
7714.77
7718.81
7722.52
7725.9
7728.95
7731.66
7734.04
7736.08
7737.78
7739.14
7740.16
7740.84
7741.18
998.088
998.273
998.642
999.195
999.934
1000.86
1001.96
1003.26
1004.74
1006.4
1008.25
1010.28
1012.5
1014.91
1017.5
1020.28
1023.24
1026.4
1029.74
1033.27
1036.98
1040.89
1044.98
1049.27
1053.74
1058.4
1063.26
1068.3
1073.54
1078.97
1084.59
1090.41
1096.42
1102.62
1109.02
1115.62
1122.41
1129.4
1136.58
1143.97
1151.55
1159.33
1167.32
1175.5
1183.89
1192.48
1201.27
1210.26
1219.46
1228.87
1238.48
1248.3
1258.33
1268.57
1279.01
1289.67
1300.53
1311.61
1322.9
1334.41
1346.13
1358.06
1370.21
1382.58
1395.16
1407.96
1420.99
1434.23
1447.69
1461.37
1475.28
1489.41
1503.76
1518.34
1533.14
1548.17
1563.43
1578.91
1594.62
1610.56
1626.73
1643.13
1659.75
1676.61
1693.7
1711.03
1728.58
1746.37
1764.39
1782.64
1801.13
1819.85
1838.81
1858
1877.43
1897.09
1916.98
1937.11
1957.48
1978.08
1998.91
2019.98
2041.29
2062.83
2084.6
2106.6
2128.84
2151.31
2174.01
2196.95
2220.11
2243.5
2267.13
2290.98
2315.05
2339.36
2363.88
2388.63
2413.6
2438.8
2464.21
2489.84
2515.68
2541.74
2568.01
2594.49
2621.18
2648.08
2675.18
2702.48
2729.98
2757.68
2785.58
2813.66
2841.94
2870.4
2899.05
2927.87
2956.88
2986.06
3015.41
3044.93
3074.61
3104.46
3134.46
3164.62
3194.93
3225.39
3255.99
3286.73
3317.6
3348.61
3379.74
3411
3442.38
3473.87
3505.47
3537.18
3569
3600.91
3632.91
3665
3697.18
3729.44
3761.77
3794.18
3826.65
3859.19
3891.78
3924.42
3957.12
3989.86
4022.64
4055.45
4088.29
4121.16
4154.06
4186.97
4219.89
4252.82
4285.76
4318.69
4351.63
4384.55
4417.46
4450.35
4483.22
4516.07
4548.89
4581.67
4614.42
4647.13
4679.79
4712.4
4744.96
4777.46
4809.92
4842.31
4874.63
4906.88
4939.05
4971.14
5003.15
5035.08
5066.92
5098.67
5130.32
5161.87
5193.33
5224.68
5255.92
5287.05
5318.07
5348.98
5379.76
5410.42
5440.96
5471.36
5501.64
5531.78
5561.79
5591.65
5621.38
5650.96
5680.39
5709.67
5738.79
5767.76
5796.58
5825.23
5853.72
5882.04
5910.19
5938.18
5965.99
5993.62
6021.08
6048.36
6075.46
6102.37
6129.1
6155.64
6181.99
6208.15
6234.12
6259.89
6285.46
6310.84
6336.02
6361
6385.77
6410.35
6434.72
6458.88
6482.84
6506.59
6530.14
6553.48
6576.61
6599.53
6622.24
6644.75
6667.04
6689.13
6711.01
6732.67
6754.13
6775.38
6796.42
6817.26
6837.88
6858.3
6878.51
6898.52
6918.32
6937.91
6957.3
6976.48
6995.46
7014.24
7032.81
7051.18
7069.34
7087.3
7105.06
7122.62
7139.97
7157.12
7174.06
7190.81
7207.34
7223.67
7239.8
7255.72
7271.39
7286.89
7302.18
7317.26
7332.12
7346.76
7361.19
7375.4
7389.39
7403.16
7416.7
7430.01
7443.09
7455.94
7468.55
7480.92
7493.05
7504.94
7516.58
7527.96
7539.1
7549.97
7560.59
7570.93
7581.02
7590.83
7600.36
7609.62
7618.6
7627.29
7635.69
7643.81
7651.62
7659.14
7666.36
7673.28
7679.88
7686.18
7692.16
7697.83
7703.18
7708.21
7712.91
7717.29
7721.34
7725.06
7728.45
7731.5
7734.22
7736.6
7738.65
7740.35
7741.72
7742.74
7743.42
7743.77
996.032
996.216
996.585
997.138
997.875
998.797
999.903
1001.19
1002.67
1004.33
1006.18
1008.21
1010.43
1012.83
1015.42
1018.19
1021.16
1024.3
1027.64
1031.16
1034.88
1038.78
1042.87
1047.14
1051.61
1056.27
1061.12
1066.16
1071.39
1076.81
1082.43
1088.24
1094.24
1100.44
1106.83
1113.41
1120.2
1127.18
1134.36
1141.73
1149.31
1157.08
1165.05
1173.23
1181.61
1190.18
1198.97
1207.95
1217.14
1226.54
1236.14
1245.95
1255.97
1266.19
1276.63
1287.27
1298.13
1309.2
1320.48
1331.97
1343.68
1355.6
1367.74
1380.1
1392.67
1405.46
1418.47
1431.7
1445.15
1458.83
1472.72
1486.84
1501.18
1515.75
1530.54
1545.56
1560.8
1576.27
1591.97
1607.9
1624.06
1640.45
1657.07
1673.92
1691
1708.31
1725.86
1743.64
1761.65
1779.9
1798.38
1817.09
1836.04
1855.23
1874.65
1894.3
1914.2
1934.32
1954.68
1975.28
1996.11
2017.18
2038.48
2060.02
2081.79
2103.8
2126.04
2148.51
2171.21
2194.15
2217.32
2240.72
2264.34
2288.2
2312.28
2336.59
2361.13
2385.89
2410.87
2436.08
2461.5
2487.14
2513
2539.08
2565.37
2591.87
2618.58
2645.49
2672.61
2699.94
2727.46
2755.19
2783.11
2811.22
2839.53
2868.02
2896.69
2925.55
2954.59
2983.8
3013.19
3042.75
3072.47
3102.35
3132.4
3162.6
3192.95
3223.45
3254.09
3284.88
3315.8
3346.85
3378.04
3409.34
3440.77
3472.32
3503.97
3535.73
3567.6
3599.57
3631.62
3663.77
3696.01
3728.32
3760.72
3793.18
3825.71
3858.3
3890.96
3923.66
3956.42
3989.21
4022.05
4054.93
4087.83
4120.76
4153.71
4186.68
4219.66
4252.65
4285.64
4318.64
4351.62
4384.6
4417.57
4450.51
4483.44
4516.34
4549.2
4582.04
4614.83
4647.59
4680.3
4712.95
4745.56
4778.11
4810.59
4843.01
4875.36
4907.63
4939.83
4971.96
5003.99
5035.95
5067.81
5099.58
5131.25
5162.82
5194.29
5225.66
5256.91
5288.05
5319.08
5349.99
5380.78
5411.44
5441.98
5472.38
5502.66
5532.8
5562.8
5592.65
5622.37
5651.94
5681.36
5710.63
5739.74
5768.7
5797.5
5826.13
5854.61
5882.91
5911.05
5939.02
5966.81
5994.43
6021.87
6049.14
6076.22
6103.11
6129.83
6156.35
6182.68
6208.83
6234.78
6260.54
6286.1
6311.47
6336.64
6361.61
6386.38
6410.94
6435.31
6459.47
6483.42
6507.18
6530.72
6554.06
6577.2
6600.12
6622.84
6645.35
6667.66
6689.75
6711.64
6733.32
6754.8
6776.07
6797.13
6817.98
6838.63
6859.07
6879.31
6899.34
6919.17
6938.79
6958.21
6977.43
6996.45
7015.26
7033.87
7052.28
7070.48
7088.49
7106.29
7123.89
7141.29
7158.48
7175.48
7192.26
7208.85
7225.23
7241.4
7257.37
7273.11
7288.66
7304
7319.13
7334.04
7348.74
7363.22
7377.48
7391.53
7405.34
7418.94
7432.3
7445.43
7458.33
7470.99
7483.41
7495.59
7507.52
7519.2
7530.63
7541.81
7552.72
7563.38
7573.77
7583.89
7593.74
7603.31
7612.6
7621.61
7630.34
7638.77
7646.91
7654.76
7662.31
7669.55
7676.49
7683.12
7689.44
7695.44
7701.13
7706.49
7711.54
7716.26
7720.65
7724.71
7728.44
7731.84
7734.91
7737.63
7740.02
7742.07
7743.78
7745.15
7746.18
7746.87
7747.21
993.463
993.647
994.015
994.567
995.303
996.223
997.327
998.616
1000.09
1001.75
1003.59
1005.62
1007.83
1010.23
1012.82
1015.59
1018.55
1021.69
1025.02
1028.54
1032.24
1036.14
1040.22
1044.49
1048.95
1053.6
1058.44
1063.48
1068.7
1074.11
1079.72
1085.52
1091.51
1097.7
1104.08
1110.66
1117.44
1124.41
1131.57
1138.94
1146.5
1154.26
1162.23
1170.39
1178.75
1187.32
1196.09
1205.07
1214.24
1223.63
1233.22
1243.01
1253.02
1263.23
1273.65
1284.28
1295.12
1306.18
1317.44
1328.92
1340.62
1352.53
1364.65
1376.99
1389.55
1402.33
1415.33
1428.54
1441.98
1455.64
1469.52
1483.62
1497.95
1512.51
1527.28
1542.29
1557.52
1572.98
1588.67
1604.58
1620.73
1637.1
1653.71
1670.55
1687.62
1704.92
1722.46
1740.23
1758.23
1776.47
1794.94
1813.64
1832.58
1851.76
1871.18
1890.82
1910.71
1930.83
1951.19
1971.78
1992.61
2013.67
2034.97
2056.51
2078.28
2100.29
2122.53
2145
2167.71
2190.65
2213.82
2237.23
2260.86
2284.72
2308.82
2333.14
2357.68
2382.46
2407.45
2432.67
2458.11
2483.77
2509.65
2535.75
2562.05
2588.58
2615.31
2642.25
2669.4
2696.75
2724.31
2752.06
2780.01
2808.16
2836.5
2865.03
2893.74
2922.64
2951.72
2980.98
3010.41
3040.01
3069.78
3099.71
3129.81
3160.06
3190.46
3221.02
3251.72
3282.56
3313.54
3344.65
3375.9
3407.27
3438.76
3470.36
3502.09
3533.92
3565.85
3597.88
3630.01
3662.23
3694.54
3726.93
3759.39
3791.93
3824.53
3857.2
3889.92
3922.7
3955.53
3988.41
4021.32
4054.27
4087.24
4120.25
4153.27
4186.32
4219.37
4252.43
4285.5
4318.56
4351.62
4384.66
4417.7
4450.71
4483.7
4516.66
4549.59
4582.48
4615.34
4648.15
4680.91
4713.62
4746.28
4778.87
4811.4
4843.87
4876.26
4908.58
4940.82
4972.98
5005.05
5037.03
5068.92
5100.72
5132.41
5164.01
5195.5
5226.88
5258.15
5289.3
5320.34
5351.25
5382.05
5412.71
5443.25
5473.66
5503.93
5534.06
5564.05
5593.9
5623.61
5653.16
5682.57
5711.82
5740.92
5769.86
5798.64
5827.26
5855.71
5884
5912.12
5940.06
5967.83
5995.43
6022.85
6050.09
6077.15
6104.03
6130.72
6157.22
6183.54
6209.66
6235.6
6261.34
6286.89
6312.24
6337.4
6362.35
6387.11
6411.67
6436.03
6460.18
6484.13
6507.88
6531.43
6554.77
6577.91
6600.84
6623.57
6646.09
6668.4
6690.51
6712.42
6734.12
6755.61
6776.9
6797.98
6818.86
6839.54
6860.01
6880.28
6900.35
6920.21
6939.88
6959.34
6978.6
6997.66
7016.52
7035.17
7053.63
7071.89
7089.95
7107.8
7125.46
7142.92
7160.17
7177.22
7194.07
7210.72
7227.16
7243.4
7259.42
7275.24
7290.85
7306.26
7321.45
7336.43
7351.2
7365.75
7380.08
7394.18
7408.07
7421.72
7435.15
7448.35
7461.31
7474.03
7486.51
7498.75
7510.74
7522.48
7533.96
7545.19
7556.16
7566.87
7577.31
7587.48
7597.37
7606.99
7616.33
7625.38
7634.14
7642.62
7650.8
7658.68
7666.26
7673.54
7680.5
7687.16
7693.51
7699.54
7705.25
7710.64
7715.7
7720.44
7724.85
7728.93
7732.68
7736.09
7739.16
7741.9
7744.3
7746.36
7748.08
7749.45
7750.48
7751.17
7751.51
990.382
990.565
990.932
991.483
992.218
993.136
994.239
995.525
996.996
998.651
1000.49
1002.51
1004.72
1007.12
1009.7
1012.46
1015.42
1018.55
1021.88
1025.39
1029.09
1032.97
1037.05
1041.31
1045.77
1050.41
1055.24
1060.26
1065.47
1070.88
1076.48
1082.27
1088.25
1094.42
1100.79
1107.36
1114.12
1121.08
1128.23
1135.59
1143.14
1150.89
1158.83
1166.98
1175.33
1183.89
1192.64
1201.6
1210.76
1220.13
1229.71
1239.49
1249.47
1259.67
1270.08
1280.69
1291.52
1302.55
1313.8
1325.27
1336.94
1348.84
1360.95
1373.27
1385.81
1398.57
1411.55
1424.75
1438.17
1451.81
1465.68
1479.77
1494.08
1508.61
1523.38
1538.36
1553.58
1569.02
1584.69
1600.6
1616.73
1633.09
1649.68
1666.5
1683.56
1700.85
1718.37
1736.13
1754.12
1772.34
1790.8
1809.5
1828.43
1847.6
1867
1886.64
1906.52
1926.63
1946.99
1967.57
1988.4
2009.46
2030.76
2052.29
2074.06
2096.07
2118.31
2140.79
2163.5
2186.44
2209.62
2233.03
2256.67
2280.55
2304.65
2328.98
2353.54
2378.33
2403.34
2428.58
2454.04
2479.72
2505.62
2531.74
2558.07
2584.62
2611.38
2638.35
2665.53
2692.92
2720.51
2748.3
2776.29
2804.48
2832.86
2861.43
2890.19
2919.14
2948.27
2977.57
3007.06
3036.71
3066.54
3096.53
3126.69
3157
3187.47
3218.09
3248.85
3279.76
3310.81
3342
3373.32
3404.76
3436.33
3468.01
3499.81
3531.72
3563.74
3595.86
3628.07
3660.37
3692.76
3725.24
3757.79
3790.41
3823.11
3855.86
3888.68
3921.55
3954.47
3987.43
4020.43
4053.47
4086.54
4119.63
4152.75
4185.88
4219.02
4252.17
4285.32
4318.47
4351.61
4384.74
4417.85
4450.94
4484.01
4517.05
4550.05
4583.02
4615.95
4648.83
4681.66
4714.43
4747.15
4779.8
4812.39
4844.91
4877.35
4909.72
4942
4974.21
5006.32
5038.34
5070.26
5102.09
5133.82
5165.44
5196.95
5228.35
5259.63
5290.8
5321.85
5352.77
5383.57
5414.24
5444.78
5475.18
5505.45
5535.57
5565.56
5595.4
5625.09
5654.63
5684.02
5713.25
5742.33
5771.25
5800.01
5828.6
5857.03
5885.29
5913.38
5941.3
5969.04
5996.61
6024.01
6051.22
6078.25
6105.1
6131.77
6158.25
6184.54
6210.64
6236.56
6262.28
6287.81
6313.14
6338.28
6363.22
6387.97
6412.52
6436.86
6461.01
6484.96
6508.71
6532.25
6555.59
6578.73
6601.67
6624.4
6646.94
6669.27
6691.39
6713.31
6735.03
6756.55
6777.87
6798.98
6819.89
6840.6
6861.11
6881.42
6901.53
6921.44
6941.14
6960.66
6979.97
6999.08
7017.99
7036.71
7055.23
7073.55
7091.67
7109.59
7127.32
7144.84
7162.17
7179.3
7196.22
7212.95
7229.46
7245.77
7261.87
7277.77
7293.46
7308.95
7324.23
7339.29
7354.14
7368.77
7383.18
7397.36
7411.33
7425.06
7438.57
7451.84
7464.88
7477.67
7490.23
7502.54
7514.6
7526.41
7537.96
7549.25
7560.29
7571.06
7581.55
7591.78
7601.73
7611.41
7620.8
7629.9
7638.71
7647.23
7655.46
7663.38
7671
7678.32
7685.32
7692.02
7698.4
7704.46
7710.19
7715.61
7720.7
7725.46
7729.89
7733.99
7737.76
7741.18
7744.27
7747.02
7749.43
7751.5
7753.23
7754.61
7755.64
7756.34
7756.68
986.79
986.973
987.339
987.889
988.622
989.538
990.638
991.922
993.389
995.04
996.875
998.895
1001.1
1003.49
1006.06
1008.82
1011.77
1014.9
1018.21
1021.72
1025.41
1029.29
1033.35
1037.61
1042.05
1046.68
1051.5
1056.51
1061.71
1067.11
1072.69
1078.47
1084.44
1090.6
1096.96
1103.51
1110.26
1117.2
1124.34
1131.68
1139.21
1146.95
1154.88
1163.01
1171.35
1179.88
1188.62
1197.56
1206.71
1216.06
1225.61
1235.37
1245.34
1255.52
1265.91
1276.5
1287.31
1298.33
1309.56
1321
1332.66
1344.53
1356.62
1368.93
1381.45
1394.19
1407.15
1420.33
1433.73
1447.35
1461.2
1475.26
1489.56
1504.07
1518.82
1533.78
1548.98
1564.41
1580.06
1595.94
1612.05
1628.4
1644.97
1661.78
1678.82
1696.09
1713.6
1731.34
1749.32
1767.53
1785.98
1804.66
1823.58
1842.74
1862.13
1881.76
1901.63
1921.74
1942.08
1962.66
1983.48
2004.54
2025.83
2047.36
2069.13
2091.14
2113.38
2135.86
2158.58
2181.53
2204.71
2228.13
2251.78
2275.66
2299.78
2324.12
2348.7
2373.5
2398.53
2423.79
2449.27
2474.98
2500.9
2527.05
2553.41
2579.99
2606.78
2633.79
2661.01
2688.43
2716.06
2743.9
2771.93
2800.17
2828.6
2857.22
2886.03
2915.04
2944.22
2973.59
3003.13
3032.85
3062.75
3092.81
3123.03
3153.41
3183.96
3214.65
3245.5
3276.49
3307.62
3338.89
3370.29
3401.82
3433.48
3465.26
3497.15
3529.15
3561.26
3593.48
3625.79
3658.19
3690.68
3723.26
3755.91
3788.64
3821.43
3854.29
3887.21
3920.19
3953.21
3986.28
4019.39
4052.53
4085.71
4118.9
4152.12
4185.36
4218.6
4251.85
4285.1
4318.35
4351.59
4384.82
4418.03
4451.21
4484.37
4517.5
4550.6
4583.65
4616.66
4649.62
4682.52
4715.37
4748.16
4780.89
4813.54
4846.12
4878.63
4911.05
4943.39
4975.64
5007.8
5039.87
5071.83
5103.7
5135.46
5167.11
5198.64
5230.07
5261.37
5292.56
5323.62
5354.55
5385.35
5416.02
5446.56
5476.96
5507.22
5537.34
5567.31
5597.13
5626.81
5656.33
5685.7
5714.91
5743.96
5772.85
5801.58
5830.15
5858.55
5886.78
5914.83
5942.72
5970.43
5997.97
6025.33
6052.51
6079.51
6106.33
6132.97
6159.42
6185.68
6211.76
6237.64
6263.34
6288.84
6314.16
6339.28
6364.2
6388.93
6413.46
6437.8
6461.94
6485.88
6509.62
6533.17
6556.51
6579.65
6602.6
6625.34
6647.89
6670.23
6692.37
6714.32
6736.06
6757.61
6778.95
6800.1
6821.05
6841.8
6862.35
6882.7
6902.86
6922.82
6942.58
6962.15
6981.52
7000.7
7019.68
7038.47
7057.06
7075.45
7093.65
7111.65
7129.45
7147.06
7164.47
7181.68
7198.7
7215.52
7232.14
7248.48
7264.69
7280.7
7296.49
7312.07
7327.44
7342.6
7357.54
7372.27
7386.78
7401.06
7415.11
7428.94
7442.54
7455.9
7469.03
7481.91
7494.55
7506.95
7519.09
7530.98
7542.62
7553.99
7565.1
7575.94
7586.5
7596.8
7606.82
7616.56
7626.01
7635.17
7644.04
7652.62
7660.9
7668.87
7676.54
7683.9
7690.95
7697.68
7704.1
7710.19
7715.97
7721.41
7726.53
7731.32
7735.78
7739.9
7743.68
7747.13
7750.24
7753
7755.42
7757.5
7759.24
7760.63
7761.67
7762.36
7762.71
982.688
982.871
983.236
983.784
984.515
985.429
986.526
987.807
989.27
990.917
992.747
994.762
996.96
999.343
1001.91
1004.66
1007.6
1010.72
1014.03
1017.53
1021.21
1025.07
1029.13
1033.37
1037.8
1042.42
1047.23
1052.23
1057.42
1062.8
1068.37
1074.13
1080.09
1086.24
1092.58
1099.11
1105.84
1112.77
1119.89
1127.21
1134.73
1142.45
1150.36
1158.48
1166.79
1175.31
1184.03
1192.95
1202.07
1211.4
1220.94
1230.68
1240.63
1250.78
1261.15
1271.72
1282.51
1293.5
1304.71
1316.13
1327.77
1339.62
1351.68
1363.96
1376.46
1389.18
1402.12
1415.27
1428.65
1442.25
1456.07
1470.12
1484.39
1498.88
1513.6
1528.55
1543.72
1559.13
1574.76
1590.62
1606.71
1623.04
1639.59
1656.38
1673.4
1690.66
1708.15
1725.87
1743.83
1762.02
1780.46
1799.12
1818.03
1837.17
1856.56
1876.18
1896.03
1916.13
1936.46
1957.04
1977.85
1998.9
2020.19
2041.72
2063.49
2085.5
2107.74
2130.22
2152.94
2175.89
2199.09
2222.51
2246.17
2270.07
2294.2
2318.56
2343.15
2367.97
2393.02
2418.3
2443.81
2469.54
2495.49
2521.67
2548.07
2574.68
2601.51
2628.56
2655.82
2683.29
2710.96
2738.85
2766.93
2795.22
2823.71
2852.39
2881.26
2910.33
2939.58
2969.01
2998.63
3028.42
3058.39
3088.53
3118.83
3149.3
3179.92
3210.71
3241.64
3272.72
3303.95
3335.31
3366.81
3398.45
3430.2
3462.08
3494.08
3526.19
3558.41
3590.74
3623.16
3655.68
3688.28
3720.97
3753.74
3786.59
3819.51
3852.49
3885.53
3918.62
3951.77
3984.96
4018.19
4051.45
4084.75
4118.07
4151.4
4184.76
4218.12
4251.49
4284.86
4318.22
4351.57
4384.91
4418.23
4451.52
4484.79
4518.02
4551.22
4584.37
4617.47
4650.53
4683.52
4716.46
4749.33
4782.14
4814.87
4847.52
4880.1
4912.59
4944.99
4977.3
5009.51
5041.62
5073.64
5105.54
5137.34
5169.02
5200.59
5232.04
5263.36
5294.56
5325.64
5356.58
5387.39
5418.06
5448.6
5478.99
5509.24
5539.35
5569.3
5599.11
5628.76
5658.26
5687.6
5716.79
5745.81
5774.67
5803.37
5831.9
5860.26
5888.45
5916.47
5944.32
5972
5999.49
6026.81
6053.96
6080.92
6107.7
6134.3
6160.71
6186.94
6212.98
6238.84
6264.51
6289.98
6315.27
6340.37
6365.27
6389.98
6414.5
6438.82
6462.95
6486.88
6510.62
6534.16
6557.5
6580.65
6603.6
6626.36
6648.92
6671.28
6693.44
6715.41
6737.18
6758.76
6780.14
6801.32
6822.31
6843.1
6863.71
6884.11
6904.32
6924.35
6944.17
6963.81
6983.25
7002.5
7021.56
7040.42
7059.09
7077.57
7095.86
7113.95
7131.85
7149.55
7167.06
7184.36
7201.48
7218.39
7235.1
7251.6
7267.91
7284.01
7299.92
7315.61
7331.09
7346.36
7361.41
7376.25
7390.87
7405.26
7419.42
7433.36
7447.06
7460.53
7473.76
7486.75
7499.49
7511.98
7524.22
7536.21
7547.93
7559.39
7570.59
7581.51
7592.16
7602.53
7612.63
7622.44
7631.97
7641.2
7650.14
7658.78
7667.11
7675.14
7682.87
7690.28
7697.38
7704.16
7710.62
7716.75
7722.56
7728.05
7733.2
7738.02
7742.5
7746.65
7750.46
7753.93
7757.05
7759.83
7762.27
7764.36
7766.11
7767.5
7768.55
7769.25
7769.6
978.079
978.261
978.625
979.172
979.901
980.812
981.905
983.182
984.641
986.283
988.108
990.116
992.308
994.684
997.244
999.988
1002.92
1006.03
1009.33
1012.81
1016.48
1020.34
1024.38
1028.61
1033.03
1037.64
1042.44
1047.42
1052.59
1057.96
1063.51
1069.26
1075.2
1081.33
1087.65
1094.17
1100.88
1107.79
1114.89
1122.19
1129.69
1137.39
1145.28
1153.37
1161.67
1170.16
1178.86
1187.76
1196.86
1206.17
1215.68
1225.4
1235.32
1245.45
1255.79
1266.34
1277.1
1288.07
1299.25
1310.65
1322.26
1334.08
1346.12
1358.38
1370.85
1383.55
1396.46
1409.59
1422.94
1436.51
1450.31
1464.33
1478.57
1493.04
1507.74
1522.66
1537.81
1553.19
1568.8
1584.63
1600.7
1617
1633.54
1650.3
1667.3
1684.53
1702
1719.71
1737.65
1755.82
1774.24
1792.89
1811.78
1830.91
1850.28
1869.88
1889.73
1909.81
1930.14
1950.7
1971.51
1992.55
2013.84
2035.36
2057.13
2079.13
2101.38
2123.86
2146.58
2169.54
2192.74
2216.18
2239.85
2263.76
2287.9
2312.28
2336.89
2361.73
2386.81
2412.11
2437.64
2463.4
2489.39
2515.6
2542.03
2568.69
2595.56
2622.65
2649.95
2677.47
2705.2
2733.14
2761.28
2789.63
2818.18
2846.93
2875.87
2905
2934.33
2963.84
2993.53
3023.41
3053.46
3083.68
3114.08
3144.64
3175.36
3206.24
3237.27
3268.46
3299.79
3331.26
3362.88
3394.62
3426.49
3458.49
3490.61
3522.84
3555.18
3587.63
3620.18
3652.83
3685.56
3718.39
3751.29
3784.27
3817.32
3850.44
3883.61
3916.84
3950.13
3983.45
4016.82
4050.22
4083.65
4117.11
4150.59
4184.07
4217.57
4251.07
4284.57
4318.07
4351.55
4385.01
4418.46
4451.87
4485.26
4518.61
4551.92
4585.18
4618.39
4651.55
4684.65
4717.68
4750.65
4783.55
4816.36
4849.1
4881.75
4914.32
4946.79
4979.16
5011.44
5043.61
5075.67
5107.62
5139.46
5171.18
5202.78
5234.26
5265.61
5296.83
5327.91
5358.87
5389.68
5420.35
5450.89
5481.27
5511.51
5541.6
5571.54
5601.32
5630.95
5660.42
5689.73
5718.88
5747.87
5776.69
5805.35
5833.84
5862.16
5890.31
5918.28
5946.08
5973.71
6001.17
6028.44
6055.54
6082.46
6109.19
6135.75
6162.12
6188.31
6214.31
6240.13
6265.76
6291.21
6316.46
6341.53
6366.41
6391.1
6415.59
6439.9
6464.02
6487.94
6511.67
6535.21
6558.55
6581.7
6604.66
6627.43
6650
6672.38
6694.57
6716.56
6738.36
6759.97
6781.39
6802.62
6823.66
6844.5
6865.16
6885.62
6905.9
6925.99
6945.89
6965.6
6985.12
7004.45
7023.6
7042.55
7061.32
7079.89
7098.28
7116.48
7134.48
7152.29
7169.91
7187.33
7204.55
7221.58
7238.4
7255.04
7271.47
7287.7
7303.73
7319.55
7335.16
7350.55
7365.73
7380.7
7395.44
7409.95
7424.24
7438.3
7452.13
7465.72
7479.07
7492.17
7505.03
7517.63
7529.98
7542.07
7553.9
7565.46
7576.76
7587.77
7598.51
7608.97
7619.16
7629.06
7638.67
7647.98
7656.99
7665.7
7674.11
7682.2
7689.99
7697.46
7704.61
7711.44
7717.95
7724.13
7729.99
7735.51
7740.7
7745.55
7750.07
7754.24
7758.08
7761.57
7764.72
7767.52
7769.97
7772.08
7773.84
7775.24
7776.3
7777
7777.35
972.963
973.144
973.507
974.052
974.778
975.687
976.777
978.049
979.503
981.14
982.959
984.96
987.145
989.513
992.064
994.799
997.718
1000.82
1004.11
1007.58
1011.24
1015.09
1019.12
1023.33
1027.74
1032.33
1037.11
1042.08
1047.24
1052.58
1058.12
1063.85
1069.77
1075.88
1082.19
1088.68
1095.38
1102.26
1109.34
1116.62
1124.1
1131.77
1139.64
1147.71
1155.98
1164.45
1173.12
1182
1191.07
1200.35
1209.84
1219.53
1229.43
1239.53
1249.84
1260.37
1271.1
1282.04
1293.2
1304.56
1316.14
1327.94
1339.95
1352.18
1364.62
1377.28
1390.17
1403.27
1416.59
1430.13
1443.9
1457.89
1472.11
1486.55
1501.22
1516.11
1531.23
1546.58
1562.16
1577.98
1594.02
1610.29
1626.8
1643.54
1660.52
1677.73
1695.17
1712.85
1730.77
1748.93
1767.32
1785.95
1804.83
1823.94
1843.29
1862.88
1882.71
1902.78
1923.1
1943.65
1964.45
1985.48
2006.76
2028.28
2050.05
2072.05
2094.29
2116.78
2139.51
2162.47
2185.68
2209.12
2232.81
2256.73
2280.89
2305.28
2329.91
2354.78
2379.88
2405.21
2430.77
2456.56
2482.58
2508.83
2535.3
2562
2588.92
2616.06
2643.41
2670.98
2698.77
2726.77
2754.97
2783.39
2812
2840.82
2869.84
2899.05
2928.46
2958.06
2987.84
3017.8
3047.95
3078.27
3108.76
3139.43
3170.25
3201.24
3232.39
3263.69
3295.14
3326.73
3358.47
3390.34
3422.34
3454.47
3486.72
3519.09
3551.57
3584.15
3616.85
3649.63
3682.52
3715.48
3748.54
3781.67
3814.87
3848.13
3881.46
3914.85
3948.28
3981.76
4015.29
4048.84
4082.43
4116.04
4149.66
4183.3
4216.95
4250.6
4284.25
4317.89
4351.51
4385.12
4418.7
4452.26
4485.78
4519.26
4552.7
4586.08
4619.42
4652.69
4685.91
4719.05
4752.13
4785.12
4818.04
4850.87