/*--------------------------------*- C++ -*----------------------------------*\
| =========                 |                                                 |
| \\      /  F ield         | OpenFOAM: The Open Source CFD Toolbox           |
|  \\    /   O peration     | Version:  v2006                                 |
|   \\  /    A nd           | Website:  www.openfoam.com                      |
|    \\/     M anipulation  |                                                 |
\*---------------------------------------------------------------------------*/
FoamFile
{
    version     2.0;
    format      ascii;
    class       volScalarField;
    location    "0.4";
    object      p;
}
// * * * * * * * * * * * * * * * * * * * * * * * * * * * * * * * * * * * * * //

dimensions      [1 -1 -2 0 0 0 0];


internalField   nonuniform List<scalar> 
52500
(
29073.6
29073.6
29073.6
29073.6
29073.6
29073.6
29073.6
29073.6
29073.6
29073.6
29073.6
29073.6
29073.6
29073.6
29073.6
29073.6
29073.6
29073.6
29073.6
29073.6
29073.6
29073.6
29073.7
29073.7
29073.7
29073.7
29073.7
29073.7
29073.7
29073.7
29073.7
29073.7
29073.8
29073.8
29073.8
29073.8
29073.8
29073.8
29073.8
29073.9
29073.9
29073.9
29073.9
29073.9
29073.9
29074
29074
29074
29074
29074
29074.1
29074.1
29074.1
29074.1
29074.1
29074.2
29074.2
29074.2
29074.2
29074.3
29074.3
29074.3
29074.3
29074.4
29074.4
29074.4
29074.4
29074.5
29074.5
29074.5
29074.6
29074.6
29074.6
29074.7
29074.7
29074.7
29074.8
29074.8
29074.8
29074.9
29074.9
29074.9
29075
29075
29075
29075.1
29075.1
29075.1
29075.2
29075.2
29075.3
29075.3
29075.4
29075.4
29075.4
29075.5
29075.5
29075.6
29075.6
29075.7
29075.7
29075.8
29075.8
29075.8
29075.9
29075.9
29076
29076
29076.1
29076.1
29076.2
29076.3
29076.3
29076.4
29076.4
29076.5
29076.5
29076.6
29076.6
29076.7
29076.8
29076.8
29076.9
29076.9
29077
29077.1
29077.1
29077.2
29077.3
29077.3
29077.4
29077.5
29077.5
29077.6
29077.7
29077.7
29077.8
29077.9
29077.9
29078
29078.1
29078.2
29078.2
29078.3
29078.4
29078.5
29078.5
29078.6
29078.7
29078.8
29078.9
29078.9
29079
29079.1
29079.2
29079.3
29079.4
29079.4
29079.5
29079.6
29079.7
29079.8
29079.9
29080
29080
29080.1
29080.2
29080.3
29080.4
29080.5
29080.6
29080.7
29080.8
29080.9
29081
29081.1
29081.2
29081.3
29081.4
29081.5
29081.6
29081.7
29081.8
29081.9
29082
29082.1
29082.2
29082.3
29082.4
29082.5
29082.6
29082.7
29082.8
29082.9
29083
29083.1
29083.2
29083.3
29083.4
29083.5
29083.6
29083.7
29083.8
29083.9
29084
29084.1
29084.2
29084.3
29084.4
29084.5
29084.6
29084.7
29084.8
29084.9
29085
29085.1
29085.2
29085.3
29085.4
29085.5
29085.6
29085.7
29085.8
29085.9
29086
29086.1
29086.2
29086.3
29086.4
29086.5
29086.6
29086.7
29086.8
29086.9
29086.9
29087
29087.1
29087.2
29087.3
29087.4
29087.5
29087.5
29087.6
29087.7
29087.8
29087.8
29087.9
29088
29088.1
29088.1
29088.2
29088.3
29088.3
29088.4
29088.5
29088.5
29088.6
29088.6
29088.7
29088.8
29088.8
29088.9
29088.9
29089
29089
29089.1
29089.1
29089.1
29089.2
29089.2
29089.3
29089.3
29089.3
29089.4
29089.4
29089.4
29089.5
29089.5
29089.5
29089.6
29089.6
29089.6
29089.6
29089.6
29089.7
29089.7
29089.7
29089.7
29089.7
29089.7
29089.8
29089.8
29089.8
29089.8
29089.8
29089.8
29089.8
29089.8
29089.8
29089.8
29089.8
29089.8
29089.8
29089.8
29089.8
29089.8
29089.8
29089.8
29089.8
29089.8
29089.8
29089.8
29089.8
29089.8
29089.8
29089.8
29089.8
29089.8
29089.8
29089.8
29089.8
29089.8
29089.8
29089.8
29089.8
29089.8
29089.8
29089.8
29089.8
29089.7
29089.7
29089.7
29089.7
29089.7
29089.7
29089.7
29089.7
29089.7
29089.7
29089.7
29089.7
29089.7
29089.7
29089.7
29089.7
29089.7
29089.7
29089.7
29089.7
29089.7
28615.8
28615.8
28615.8
28615.8
28615.8
28615.8
28615.8
28615.8
28615.8
28615.8
28615.8
28615.8
28615.8
28615.8
28615.8
28615.8
28615.8
28615.8
28615.8
28615.8
28615.8
28615.8
28615.8
28615.9
28615.9
28615.9
28615.9
28615.9
28615.9
28615.9
28615.9
28615.9
28616
28616
28616
28616
28616
28616
28616
28616.1
28616.1
28616.1
28616.1
28616.1
28616.1
28616.2
28616.2
28616.2
28616.2
28616.2
28616.3
28616.3
28616.3
28616.3
28616.3
28616.4
28616.4
28616.4
28616.4
28616.5
28616.5
28616.5
28616.5
28616.6
28616.6
28616.6
28616.6
28616.7
28616.7
28616.7
28616.8
28616.8
28616.8
28616.9
28616.9
28616.9
28617
28617
28617
28617.1
28617.1
28617.1
28617.2
28617.2
28617.2
28617.3
28617.3
28617.3
28617.4
28617.4
28617.5
28617.5
28617.6
28617.6
28617.6
28617.7
28617.7
28617.8
28617.8
28617.9
28617.9
28618
28618
28618
28618.1
28618.1
28618.2
28618.2
28618.3
28618.3
28618.4
28618.5
28618.5
28618.6
28618.6
28618.7
28618.7
28618.8
28618.8
28618.9
28619
28619
28619.1
28619.1
28619.2
28619.3
28619.3
28619.4
28619.5
28619.5
28619.6
28619.7
28619.7
28619.8
28619.9
28619.9
28620
28620.1
28620.1
28620.2
28620.3
28620.4
28620.4
28620.5
28620.6
28620.7
28620.7
28620.8
28620.9
28621
28621.1
28621.1
28621.2
28621.3
28621.4
28621.5
28621.5
28621.6
28621.7
28621.8
28621.9
28622
28622.1
28622.2
28622.2
28622.3
28622.4
28622.5
28622.6
28622.7
28622.8
28622.9
28623
28623.1
28623.2
28623.3
28623.4
28623.5
28623.6
28623.7
28623.8
28623.9
28624
28624.1
28624.2
28624.3
28624.4
28624.5
28624.6
28624.7
28624.8
28624.9
28625
28625.1
28625.2
28625.3
28625.4
28625.5
28625.6
28625.7
28625.8
28625.9
28626
28626.1
28626.2
28626.3
28626.4
28626.5
28626.6
28626.7
28626.8
28626.9
28627
28627.1
28627.2
28627.3
28627.4
28627.5
28627.6
28627.7
28627.8
28627.9
28628
28628.1
28628.2
28628.3
28628.4
28628.5
28628.6
28628.7
28628.8
28628.9
28629
28629.1
28629.1
28629.2
28629.3
28629.4
28629.5
28629.6
28629.7
28629.7
28629.8
28629.9
28630
28630
28630.1
28630.2
28630.3
28630.3
28630.4
28630.5
28630.5
28630.6
28630.7
28630.7
28630.8
28630.8
28630.9
28631
28631
28631.1
28631.1
28631.2
28631.2
28631.3
28631.3
28631.3
28631.4
28631.4
28631.5
28631.5
28631.5
28631.6
28631.6
28631.6
28631.7
28631.7
28631.7
28631.8
28631.8
28631.8
28631.8
28631.8
28631.9
28631.9
28631.9
28631.9
28631.9
28631.9
28632
28632
28632
28632
28632
28632
28632
28632
28632
28632
28632
28632
28632
28632
28632
28632
28632
28632
28632
28632
28632
28632
28632
28632
28632
28632
28632
28632
28632
28632
28632
28632
28632
28632
28632
28632
28632
28632
28632
28631.9
28631.9
28631.9
28631.9
28631.9
28631.9
28631.9
28631.9
28631.9
28631.9
28631.9
28631.9
28631.9
28631.9
28631.9
28631.9
28631.9
28631.9
28631.9
28631.9
28631.9
28157.9
28157.9
28157.9
28158
28158
28158
28158
28158
28158
28158
28158
28158
28158
28158
28158
28158
28158
28158
28158
28158
28158
28158
28158
28158.1
28158.1
28158.1
28158.1
28158.1
28158.1
28158.1
28158.1
28158.1
28158.2
28158.2
28158.2
28158.2
28158.2
28158.2
28158.2
28158.3
28158.3
28158.3
28158.3
28158.3
28158.3
28158.4
28158.4
28158.4
28158.4
28158.4
28158.5
28158.5
28158.5
28158.5
28158.5
28158.6
28158.6
28158.6
28158.6
28158.7
28158.7
28158.7
28158.7
28158.8
28158.8
28158.8
28158.8
28158.9
28158.9
28158.9
28159
28159
28159
28159.1
28159.1
28159.1
28159.1
28159.2
28159.2
28159.3
28159.3
28159.3
28159.4
28159.4
28159.4
28159.5
28159.5
28159.5
28159.6
28159.6
28159.7
28159.7
28159.7
28159.8
28159.8
28159.9
28159.9
28160
28160
28160.1
28160.1
28160.1
28160.2
28160.2
28160.3
28160.3
28160.4
28160.4
28160.5
28160.5
28160.6
28160.7
28160.7
28160.8
28160.8
28160.9
28160.9
28161
28161
28161.1
28161.2
28161.2
28161.3
28161.3
28161.4
28161.5
28161.5
28161.6
28161.7
28161.7
28161.8
28161.9
28161.9
28162
28162.1
28162.1
28162.2
28162.3
28162.3
28162.4
28162.5
28162.6
28162.6
28162.7
28162.8
28162.9
28162.9
28163
28163.1
28163.2
28163.3
28163.3
28163.4
28163.5
28163.6
28163.7
28163.7
28163.8
28163.9
28164
28164.1
28164.2
28164.3
28164.4
28164.4
28164.5
28164.6
28164.7
28164.8
28164.9
28165
28165.1
28165.2
28165.3
28165.4
28165.5
28165.6
28165.7
28165.8
28165.9
28166
28166
28166.1
28166.2
28166.3
28166.4
28166.5
28166.7
28166.8
28166.9
28167
28167.1
28167.2
28167.3
28167.4
28167.5
28167.6
28167.7
28167.8
28167.9
28168
28168.1
28168.2
28168.3
28168.4
28168.5
28168.6
28168.7
28168.8
28168.9
28169
28169.1
28169.2
28169.3
28169.4
28169.5
28169.6
28169.7
28169.8
28169.9
28170
28170.1
28170.2
28170.3
28170.4
28170.5
28170.6
28170.7
28170.8
28170.9
28171
28171.1
28171.2
28171.3
28171.4
28171.4
28171.5
28171.6
28171.7
28171.8
28171.9
28171.9
28172
28172.1
28172.2
28172.3
28172.3
28172.4
28172.5
28172.5
28172.6
28172.7
28172.7
28172.8
28172.9
28172.9
28173
28173.1
28173.1
28173.2
28173.2
28173.3
28173.3
28173.4
28173.4
28173.5
28173.5
28173.6
28173.6
28173.6
28173.7
28173.7
28173.8
28173.8
28173.8
28173.9
28173.9
28173.9
28173.9
28174
28174
28174
28174
28174.1
28174.1
28174.1
28174.1
28174.1
28174.1
28174.2
28174.2
28174.2
28174.2
28174.2
28174.2
28174.2
28174.2
28174.2
28174.2
28174.2
28174.2
28174.2
28174.2
28174.2
28174.2
28174.2
28174.2
28174.2
28174.2
28174.2
28174.2
28174.2
28174.2
28174.2
28174.2
28174.2
28174.2
28174.2
28174.2
28174.2
28174.2
28174.2
28174.2
28174.2
28174.2
28174.2
28174.2
28174.2
28174.2
28174.1
28174.1
28174.1
28174.1
28174.1
28174.1
28174.1
28174.1
28174.1
28174.1
28174.1
28174.1
28174.1
28174.1
28174.1
28174.1
28174.1
28174.1
28174.1
28174.1
28174.1
27700.1
27700.1
27700.1
27700.1
27700.1
27700.2
27700.2
27700.2
27700.2
27700.2
27700.2
27700.2
27700.2
27700.2
27700.2
27700.2
27700.2
27700.2
27700.2
27700.2
27700.2
27700.2
27700.2
27700.3
27700.3
27700.3
27700.3
27700.3
27700.3
27700.3
27700.3
27700.3
27700.4
27700.4
27700.4
27700.4
27700.4
27700.4
27700.4
27700.5
27700.5
27700.5
27700.5
27700.5
27700.5
27700.6
27700.6
27700.6
27700.6
27700.6
27700.7
27700.7
27700.7
27700.7
27700.7
27700.8
27700.8
27700.8
27700.8
27700.9
27700.9
27700.9
27700.9
27701
27701
27701
27701
27701.1
27701.1
27701.1
27701.2
27701.2
27701.2
27701.2
27701.3
27701.3
27701.3
27701.4
27701.4
27701.4
27701.5
27701.5
27701.6
27701.6
27701.6
27701.7
27701.7
27701.7
27701.8
27701.8
27701.9
27701.9
27701.9
27702
27702
27702.1
27702.1
27702.2
27702.2
27702.2
27702.3
27702.3
27702.4
27702.4
27702.5
27702.5
27702.6
27702.6
27702.7
27702.7
27702.8
27702.8
27702.9
27703
27703
27703.1
27703.1
27703.2
27703.2
27703.3
27703.4
27703.4
27703.5
27703.5
27703.6
27703.7
27703.7
27703.8
27703.8
27703.9
27704
27704
27704.1
27704.2
27704.3
27704.3
27704.4
27704.5
27704.5
27704.6
27704.7
27704.8
27704.8
27704.9
27705
27705.1
27705.1
27705.2
27705.3
27705.4
27705.4
27705.5
27705.6
27705.7
27705.8
27705.9
27705.9
27706
27706.1
27706.2
27706.3
27706.4
27706.5
27706.5
27706.6
27706.7
27706.8
27706.9
27707
27707.1
27707.2
27707.3
27707.4
27707.5
27707.6
27707.7
27707.8
27707.9
27708
27708
27708.1
27708.2
27708.3
27708.4
27708.5
27708.6
27708.7
27708.8
27708.9
27709.1
27709.2
27709.3
27709.4
27709.5
27709.6
27709.7
27709.8
27709.9
27710
27710.1
27710.2
27710.3
27710.4
27710.5
27710.6
27710.7
27710.8
27710.9
27711
27711.1
27711.2
27711.3
27711.4
27711.5
27711.6
27711.7
27711.8
27711.9
27712
27712.1
27712.2
27712.3
27712.4
27712.5
27712.6
27712.7
27712.8
27712.9
27713
27713.1
27713.2
27713.3
27713.4
27713.5
27713.6
27713.7
27713.7
27713.8
27713.9
27714
27714.1
27714.2
27714.2
27714.3
27714.4
27714.5
27714.5
27714.6
27714.7
27714.8
27714.8
27714.9
27715
27715
27715.1
27715.1
27715.2
27715.3
27715.3
27715.4
27715.4
27715.5
27715.5
27715.6
27715.6
27715.7
27715.7
27715.8
27715.8
27715.9
27715.9
27715.9
27716
27716
27716
27716.1
27716.1
27716.1
27716.1
27716.2
27716.2
27716.2
27716.2
27716.3
27716.3
27716.3
27716.3
27716.3
27716.4
27716.4
27716.4
27716.4
27716.4
27716.4
27716.4
27716.4
27716.4
27716.4
27716.4
27716.4
27716.4
27716.4
27716.5
27716.5
27716.5
27716.5
27716.5
27716.4
27716.4
27716.4
27716.4
27716.4
27716.4
27716.4
27716.4
27716.4
27716.4
27716.4
27716.4
27716.4
27716.4
27716.4
27716.4
27716.4
27716.4
27716.4
27716.4
27716.4
27716.4
27716.3
27716.3
27716.3
27716.3
27716.3
27716.3
27716.3
27716.3
27716.3
27716.3
27716.3
27716.3
27716.3
27716.3
27716.3
27716.3
27716.3
27716.3
27716.3
27716.3
27716.3
27242.3
27242.3
27242.3
27242.3
27242.3
27242.3
27242.3
27242.4
27242.4
27242.4
27242.4
27242.4
27242.4
27242.4
27242.4
27242.4
27242.4
27242.4
27242.4
27242.4
27242.4
27242.4
27242.4
27242.4
27242.5
27242.5
27242.5
27242.5
27242.5
27242.5
27242.5
27242.5
27242.5
27242.6
27242.6
27242.6
27242.6
27242.6
27242.6
27242.6
27242.7
27242.7
27242.7
27242.7
27242.7
27242.7
27242.8
27242.8
27242.8
27242.8
27242.8
27242.9
27242.9
27242.9
27242.9
27243
27243
27243
27243
27243.1
27243.1
27243.1
27243.1
27243.2
27243.2
27243.2
27243.2
27243.3
27243.3
27243.3
27243.4
27243.4
27243.4
27243.4
27243.5
27243.5
27243.5
27243.6
27243.6
27243.6
27243.7
27243.7
27243.7
27243.8
27243.8
27243.9
27243.9
27243.9
27244
27244
27244.1
27244.1
27244.1
27244.2
27244.2
27244.3
27244.3
27244.4
27244.4
27244.4
27244.5
27244.5
27244.6
27244.6
27244.7
27244.7
27244.8
27244.8
27244.9
27244.9
27245
27245
27245.1
27245.1
27245.2
27245.3
27245.3
27245.4
27245.4
27245.5
27245.5
27245.6
27245.7
27245.7
27245.8
27245.9
27245.9
27246
27246
27246.1
27246.2
27246.2
27246.3
27246.4
27246.4
27246.5
27246.6
27246.7
27246.7
27246.8
27246.9
27246.9
27247
27247.1
27247.2
27247.2
27247.3
27247.4
27247.5
27247.6
27247.6
27247.7
27247.8
27247.9
27248
27248
27248.1
27248.2
27248.3
27248.4
27248.5
27248.6
27248.7
27248.7
27248.8
27248.9
27249
27249.1
27249.2
27249.3
27249.4
27249.5
27249.6
27249.7
27249.8
27249.9
27250
27250
27250.1
27250.2
27250.3
27250.4
27250.5
27250.6
27250.7
27250.8
27250.9
27251
27251.1
27251.2
27251.4
27251.5
27251.6
27251.7
27251.8
27251.9
27252
27252.1
27252.2
27252.3
27252.4
27252.5
27252.6
27252.7
27252.8
27252.9
27253
27253.1
27253.2
27253.3
27253.4
27253.5
27253.6
27253.7
27253.8
27253.9
27254
27254.1
27254.2
27254.4
27254.4
27254.5
27254.6
27254.7
27254.8
27254.9
27255
27255.1
27255.2
27255.3
27255.4
27255.5
27255.6
27255.7
27255.8
27255.9
27255.9
27256
27256.1
27256.2
27256.3
27256.4
27256.4
27256.5
27256.6
27256.7
27256.8
27256.8
27256.9
27257
27257
27257.1
27257.2
27257.2
27257.3
27257.4
27257.4
27257.5
27257.5
27257.6
27257.6
27257.7
27257.8
27257.8
27257.8
27257.9
27257.9
27258
27258
27258.1
27258.1
27258.1
27258.2
27258.2
27258.2
27258.3
27258.3
27258.3
27258.4
27258.4
27258.4
27258.4
27258.5
27258.5
27258.5
27258.5
27258.5
27258.5
27258.6
27258.6
27258.6
27258.6
27258.6
27258.6
27258.6
27258.6
27258.6
27258.6
27258.6
27258.7
27258.7
27258.7
27258.7
27258.7
27258.7
27258.7
27258.7
27258.7
27258.7
27258.7
27258.6
27258.6
27258.6
27258.6
27258.6
27258.6
27258.6
27258.6
27258.6
27258.6
27258.6
27258.6
27258.6
27258.6
27258.6
27258.6
27258.6
27258.6
27258.6
27258.5
27258.5
27258.5
27258.5
27258.5
27258.5
27258.5
27258.5
27258.5
27258.5
27258.5
27258.5
27258.5
27258.5
27258.5
27258.5
27258.5
27258.5
27258.5
27258.5
27258.5
26784.5
26784.5
26784.5
26784.5
26784.5
26784.5
26784.5
26784.5
26784.6
26784.6
26784.6
26784.6
26784.6
26784.6
26784.6
26784.6
26784.6
26784.6
26784.6
26784.6
26784.6
26784.6
26784.6
26784.6
26784.7
26784.7
26784.7
26784.7
26784.7
26784.7
26784.7
26784.7
26784.7
26784.8
26784.8
26784.8
26784.8
26784.8
26784.8
26784.8
26784.9
26784.9
26784.9
26784.9
26784.9
26784.9
26785
26785
26785
26785
26785
26785.1
26785.1
26785.1
26785.1
26785.1
26785.2
26785.2
26785.2
26785.2
26785.3
26785.3
26785.3
26785.3
26785.4
26785.4
26785.4
26785.5
26785.5
26785.5
26785.5
26785.6
26785.6
26785.6
26785.7
26785.7
26785.7
26785.8
26785.8
26785.8
26785.9
26785.9
26785.9
26786
26786
26786.1
26786.1
26786.1
26786.2
26786.2
26786.2
26786.3
26786.3
26786.4
26786.4
26786.5
26786.5
26786.5
26786.6
26786.6
26786.7
26786.7
26786.8
26786.8
26786.9
26786.9
26787
26787
26787.1
26787.1
26787.2
26787.2
26787.3
26787.3
26787.4
26787.4
26787.5
26787.6
26787.6
26787.7
26787.7
26787.8
26787.9
26787.9
26788
26788
26788.1
26788.2
26788.2
26788.3
26788.4
26788.4
26788.5
26788.6
26788.6
26788.7
26788.8
26788.8
26788.9
26789
26789.1
26789.1
26789.2
26789.3
26789.4
26789.4
26789.5
26789.6
26789.7
26789.7
26789.8
26789.9
26790
26790.1
26790.2
26790.2
26790.3
26790.4
26790.5
26790.6
26790.7
26790.8
26790.8
26790.9
26791
26791.1
26791.2
26791.3
26791.4
26791.5
26791.6
26791.7
26791.8
26791.9
26792
26792
26792.1
26792.2
26792.3
26792.4
26792.5
26792.6
26792.7
26792.8
26792.9
26793
26793.1
26793.2
26793.3
26793.4
26793.5
26793.7
26793.8
26793.9
26794
26794.1
26794.2
26794.3
26794.4
26794.5
26794.6
26794.7
26794.8
26794.9
26795
26795.1
26795.2
26795.3
26795.4
26795.5
26795.6
26795.7
26795.8
26795.9
26796
26796.2
26796.3
26796.4
26796.5
26796.6
26796.7
26796.8
26796.9
26797
26797.1
26797.1
26797.2
26797.3
26797.4
26797.5
26797.6
26797.7
26797.8
26797.9
26798
26798.1
26798.2
26798.2
26798.3
26798.4
26798.5
26798.6
26798.7
26798.7
26798.8
26798.9
26799
26799
26799.1
26799.2
26799.3
26799.3
26799.4
26799.5
26799.5
26799.6
26799.6
26799.7
26799.8
26799.8
26799.9
26799.9
26800
26800
26800.1
26800.1
26800.2
26800.2
26800.2
26800.3
26800.3
26800.4
26800.4
26800.4
26800.5
26800.5
26800.5
26800.6
26800.6
26800.6
26800.6
26800.7
26800.7
26800.7
26800.7
26800.7
26800.7
26800.8
26800.8
26800.8
26800.8
26800.8
26800.8
26800.8
26800.8
26800.8
26800.9
26800.9
26800.9
26800.9
26800.9
26800.9
26800.9
26800.9
26800.9
26800.9
26800.9
26800.9
26800.9
26800.9
26800.9
26800.8
26800.8
26800.8
26800.8
26800.8
26800.8
26800.8
26800.8
26800.8
26800.8
26800.8
26800.8
26800.8
26800.8
26800.8
26800.8
26800.8
26800.8
26800.7
26800.7
26800.7
26800.7
26800.7
26800.7
26800.7
26800.7
26800.7
26800.7
26800.7
26800.7
26800.7
26800.7
26800.7
26800.7
26800.7
26800.7
26800.7
26800.7
26800.7
26326.7
26326.7
26326.7
26326.7
26326.7
26326.7
26326.7
26326.7
26326.7
26326.7
26326.8
26326.8
26326.8
26326.8
26326.8
26326.8
26326.8
26326.8
26326.8
26326.8
26326.8
26326.8
26326.8
26326.8
26326.8
26326.9
26326.9
26326.9
26326.9
26326.9
26326.9
26326.9
26326.9
26326.9
26327
26327
26327
26327
26327
26327
26327.1
26327.1
26327.1
26327.1
26327.1
26327.1
26327.2
26327.2
26327.2
26327.2
26327.2
26327.3
26327.3
26327.3
26327.3
26327.3
26327.4
26327.4
26327.4
26327.4
26327.5
26327.5
26327.5
26327.5
26327.6
26327.6
26327.6
26327.6
26327.7
26327.7
26327.7
26327.8
26327.8
26327.8
26327.9
26327.9
26327.9
26328
26328
26328
26328.1
26328.1
26328.1
26328.2
26328.2
26328.2
26328.3
26328.3
26328.4
26328.4
26328.4
26328.5
26328.5
26328.6
26328.6
26328.6
26328.7
26328.7
26328.8
26328.8
26328.9
26328.9
26329
26329
26329.1
26329.1
26329.2
26329.2
26329.3
26329.3
26329.4
26329.4
26329.5
26329.5
26329.6
26329.6
26329.7
26329.8
26329.8
26329.9
26329.9
26330
26330
26330.1
26330.2
26330.2
26330.3
26330.4
26330.4
26330.5
26330.6
26330.6
26330.7
26330.8
26330.8
26330.9
26331
26331
26331.1
26331.2
26331.2
26331.3
26331.4
26331.5
26331.5
26331.6
26331.7
26331.8
26331.9
26331.9
26332
26332.1
26332.2
26332.3
26332.3
26332.4
26332.5
26332.6
26332.7
26332.8
26332.9
26332.9
26333
26333.1
26333.2
26333.3
26333.4
26333.5
26333.6
26333.7
26333.8
26333.9
26334
26334
26334.1
26334.2
26334.3
26334.4
26334.5
26334.6
26334.7
26334.8
26334.9
26335
26335.1
26335.2
26335.3
26335.4
26335.5
26335.6
26335.7
26335.8
26335.9
26336.1
26336.2
26336.3
26336.4
26336.5
26336.6
26336.7
26336.8
26336.9
26337
26337.1
26337.2
26337.3
26337.4
26337.5
26337.6
26337.7
26337.8
26337.9
26338
26338.2
26338.3
26338.4
26338.5
26338.6
26338.7
26338.8
26338.9
26339
26339.1
26339.2
26339.3
26339.4
26339.5
26339.6
26339.7
26339.7
26339.8
26339.9
26340
26340.1
26340.2
26340.3
26340.4
26340.5
26340.6
26340.6
26340.7
26340.8
26340.9
26341
26341
26341.1
26341.2
26341.3
26341.3
26341.4
26341.5
26341.5
26341.6
26341.7
26341.7
26341.8
26341.9
26341.9
26342
26342
26342.1
26342.1
26342.2
26342.2
26342.3
26342.3
26342.4
26342.4
26342.5
26342.5
26342.5
26342.6
26342.6
26342.7
26342.7
26342.7
26342.7
26342.8
26342.8
26342.8
26342.9
26342.9
26342.9
26342.9
26342.9
26343
26343
26343
26343
26343
26343
26343
26343
26343
26343.1
26343.1
26343.1
26343.1
26343.1
26343.1
26343.1
26343.1
26343.1
26343.1
26343.1
26343.1
26343.1
26343.1
26343.1
26343.1
26343.1
26343.1
26343
26343
26343
26343
26343
26343
26343
26343
26343
26343
26343
26343
26343
26343
26343
26343
26342.9
26342.9
26342.9
26342.9
26342.9
26342.9
26342.9
26342.9
26342.9
26342.9
26342.9
26342.9
26342.9
26342.9
26342.9
26342.9
26342.9
26342.9
26342.9
26342.9
26342.9
26342.9
25868.9
25868.9
25868.9
25868.9
25868.9
25868.9
25868.9
25868.9
25868.9
25868.9
25868.9
25868.9
25869
25869
25869
25869
25869
25869
25869
25869
25869
25869
25869
25869
25869
25869
25869.1
25869.1
25869.1
25869.1
25869.1
25869.1
25869.1
25869.1
25869.2
25869.2
25869.2
25869.2
25869.2
25869.2
25869.2
25869.3
25869.3
25869.3
25869.3
25869.3
25869.3
25869.4
25869.4
25869.4
25869.4
25869.4
25869.5
25869.5
25869.5
25869.5
25869.6
25869.6
25869.6
25869.6
25869.7
25869.7
25869.7
25869.7
25869.8
25869.8
25869.8
25869.8
25869.9
25869.9
25869.9
25870
25870
25870
25870
25870.1
25870.1
25870.1
25870.2
25870.2
25870.2
25870.3
25870.3
25870.4
25870.4
25870.4
25870.5
25870.5
25870.5
25870.6
25870.6
25870.7
25870.7
25870.8
25870.8
25870.8
25870.9
25870.9
25871
25871
25871.1
25871.1
25871.2
25871.2
25871.3
25871.3
25871.3
25871.4
25871.5
25871.5
25871.6
25871.6
25871.7
25871.7
25871.8
25871.8
25871.9
25871.9
25872
25872.1
25872.1
25872.2
25872.2
25872.3
25872.4
25872.4
25872.5
25872.5
25872.6
25872.7
25872.7
25872.8
25872.9
25872.9
25873
25873.1
25873.1
25873.2
25873.3
25873.4
25873.4
25873.5
25873.6
25873.7
25873.7
25873.8
25873.9
25874
25874
25874.1
25874.2
25874.3
25874.4
25874.4
25874.5
25874.6
25874.7
25874.8
25874.9
25875
25875
25875.1
25875.2
25875.3
25875.4
25875.5
25875.6
25875.7
25875.8
25875.9
25876
25876
25876.1
25876.2
25876.3
25876.4
25876.5
25876.6
25876.7
25876.8
25876.9
25877
25877.1
25877.2
25877.3
25877.4
25877.5
25877.6
25877.7
25877.8
25877.9
25878
25878.1
25878.2
25878.4
25878.5
25878.6
25878.7
25878.8
25878.9
25879
25879.1
25879.2
25879.3
25879.4
25879.5
25879.6
25879.7
25879.8
25879.9
25880
25880.1
25880.3
25880.4
25880.5
25880.6
25880.7
25880.8
25880.9
25881
25881.1
25881.2
25881.3
25881.4
25881.5
25881.6
25881.7
25881.8
25881.9
25882
25882.1
25882.1
25882.2
25882.3
25882.4
25882.5
25882.6
25882.7
25882.8
25882.9
25882.9
25883
25883.1
25883.2
25883.3
25883.3
25883.4
25883.5
25883.6
25883.6
25883.7
25883.8
25883.8
25883.9
25884
25884
25884.1
25884.2
25884.2
25884.3
25884.3
25884.4
25884.4
25884.5
25884.5
25884.6
25884.6
25884.7
25884.7
25884.7
25884.8
25884.8
25884.9
25884.9
25884.9
25884.9
25885
25885
25885
25885.1
25885.1
25885.1
25885.1
25885.1
25885.2
25885.2
25885.2
25885.2
25885.2
25885.2
25885.2
25885.2
25885.3
25885.3
25885.3
25885.3
25885.3
25885.3
25885.3
25885.3
25885.3
25885.3
25885.3
25885.3
25885.3
25885.3
25885.3
25885.3
25885.3
25885.3
25885.3
25885.3
25885.3
25885.3
25885.2
25885.2
25885.2
25885.2
25885.2
25885.2
25885.2
25885.2
25885.2
25885.2
25885.2
25885.2
25885.2
25885.2
25885.1
25885.1
25885.1
25885.1
25885.1
25885.1
25885.1
25885.1
25885.1
25885.1
25885.1
25885.1
25885.1
25885.1
25885.1
25885.1
25885.1
25885.1
25885.1
25885.1
25885.1
25885.1
25411.1
25411.1
25411.1
25411.1
25411.1
25411.1
25411.1
25411.1
25411.1
25411.1
25411.1
25411.1
25411.1
25411.1
25411.2
25411.2
25411.2
25411.2
25411.2
25411.2
25411.2
25411.2
25411.2
25411.2
25411.2
25411.2
25411.3
25411.3
25411.3
25411.3
25411.3
25411.3
25411.3
25411.3
25411.3
25411.4
25411.4
25411.4
25411.4
25411.4
25411.4
25411.5
25411.5
25411.5
25411.5
25411.5
25411.5
25411.6
25411.6
25411.6
25411.6
25411.6
25411.7
25411.7
25411.7
25411.7
25411.7
25411.8
25411.8
25411.8
25411.8
25411.9
25411.9
25411.9
25411.9
25412
25412
25412
25412.1
25412.1
25412.1
25412.1
25412.2
25412.2
25412.2
25412.3
25412.3
25412.3
25412.4
25412.4
25412.4
25412.5
25412.5
25412.5
25412.6
25412.6
25412.7
25412.7
25412.7
25412.8
25412.8
25412.9
25412.9
25412.9
25413
25413
25413.1
25413.1
25413.2
25413.2
25413.2
25413.3
25413.3
25413.4
25413.4
25413.5
25413.5
25413.6
25413.6
25413.7
25413.7
25413.8
25413.8
25413.9
25414
25414
25414.1
25414.1
25414.2
25414.2
25414.3
25414.4
25414.4
25414.5
25414.5
25414.6
25414.7
25414.7
25414.8
25414.9
25414.9
25415
25415.1
25415.1
25415.2
25415.3
25415.3
25415.4
25415.5
25415.5
25415.6
25415.7
25415.8
25415.8
25415.9
25416
25416.1
25416.2
25416.2
25416.3
25416.4
25416.5
25416.6
25416.6
25416.7
25416.8
25416.9
25417
25417.1
25417.1
25417.2
25417.3
25417.4
25417.5
25417.6
25417.7
25417.8
25417.9
25418
25418
25418.1
25418.2
25418.3
25418.4
25418.5
25418.6
25418.7
25418.8
25418.9
25419
25419.1
25419.2
25419.3
25419.4
25419.5
25419.6
25419.7
25419.8
25419.9
25420
25420.1
25420.2
25420.3
25420.4
25420.5
25420.7
25420.8
25420.9
25421
25421.1
25421.2
25421.3
25421.4
25421.5
25421.6
25421.7
25421.8
25421.9
25422
25422.1
25422.2
25422.4
25422.5
25422.6
25422.7
25422.8
25422.9
25423
25423.1
25423.2
25423.3
25423.4
25423.5
25423.6
25423.7
25423.8
25423.9
25424
25424.1
25424.2
25424.3
25424.4
25424.5
25424.6
25424.6
25424.7
25424.8
25424.9
25425
25425.1
25425.2
25425.3
25425.3
25425.4
25425.5
25425.6
25425.6
25425.7
25425.8
25425.9
25425.9
25426
25426.1
25426.1
25426.2
25426.3
25426.3
25426.4
25426.4
25426.5
25426.6
25426.6
25426.7
25426.7
25426.8
25426.8
25426.8
25426.9
25426.9
25427
25427
25427
25427.1
25427.1
25427.1
25427.2
25427.2
25427.2
25427.3
25427.3
25427.3
25427.3
25427.3
25427.4
25427.4
25427.4
25427.4
25427.4
25427.4
25427.5
25427.5
25427.5
25427.5
25427.5
25427.5
25427.5
25427.5
25427.5
25427.5
25427.5
25427.5
25427.5
25427.5
25427.5
25427.5
25427.5
25427.5
25427.5
25427.5
25427.5
25427.5
25427.5
25427.5
25427.5
25427.5
25427.4
25427.4
25427.4
25427.4
25427.4
25427.4
25427.4
25427.4
25427.4
25427.4
25427.4
25427.4
25427.4
25427.3
25427.3
25427.3
25427.3
25427.3
25427.3
25427.3
25427.3
25427.3
25427.3
25427.3
25427.3
25427.3
25427.3
25427.3
25427.3
25427.3
25427.3
25427.3
25427.3
25427.3
25427.3
24953.3
24953.3
24953.3
24953.3
24953.3
24953.3
24953.3
24953.3
24953.3
24953.3
24953.3
24953.3
24953.3
24953.3
24953.3
24953.4
24953.4
24953.4
24953.4
24953.4
24953.4
24953.4
24953.4
24953.4
24953.4
24953.4
24953.4
24953.5
24953.5
24953.5
24953.5
24953.5
24953.5
24953.5
24953.5
24953.5
24953.6
24953.6
24953.6
24953.6
24953.6
24953.6
24953.7
24953.7
24953.7
24953.7
24953.7
24953.7
24953.8
24953.8
24953.8
24953.8
24953.8
24953.9
24953.9
24953.9
24953.9
24954
24954
24954
24954
24954.1
24954.1
24954.1
24954.1
24954.2
24954.2
24954.2
24954.2
24954.3
24954.3
24954.3
24954.4
24954.4
24954.4
24954.5
24954.5
24954.5
24954.6
24954.6
24954.6
24954.7
24954.7
24954.7
24954.8
24954.8
24954.8
24954.9
24954.9
24955
24955
24955
24955.1
24955.1
24955.2
24955.2
24955.3
24955.3
24955.3
24955.4
24955.4
24955.5
24955.5
24955.6
24955.6
24955.7
24955.7
24955.8
24955.8
24955.9
24955.9
24956
24956
24956.1
24956.1
24956.2
24956.3
24956.3
24956.4
24956.4
24956.5
24956.5
24956.6
24956.7
24956.7
24956.8
24956.8
24956.9
24957
24957
24957.1
24957.2
24957.2
24957.3
24957.4
24957.4
24957.5
24957.6
24957.7
24957.7
24957.8
24957.9
24958
24958
24958.1
24958.2
24958.3
24958.3
24958.4
24958.5
24958.6
24958.7
24958.7
24958.8
24958.9
24959
24959.1
24959.2
24959.2
24959.3
24959.4
24959.5
24959.6
24959.7
24959.8
24959.9
24960
24960
24960.1
24960.2
24960.3
24960.4
24960.5
24960.6
24960.7
24960.8
24960.9
24961
24961.1
24961.2
24961.3
24961.4
24961.5
24961.6
24961.7
24961.8
24961.9
24962
24962.1
24962.2
24962.3
24962.4
24962.5
24962.6
24962.7
24962.9
24963
24963.1
24963.2
24963.3
24963.4
24963.5
24963.6
24963.7
24963.8
24963.9
24964
24964.1
24964.2
24964.3
24964.5
24964.6
24964.7
24964.8
24964.9
24965
24965.1
24965.2
24965.3
24965.4
24965.5
24965.6
24965.7
24965.8
24965.9
24966
24966.1
24966.2
24966.3
24966.4
24966.5
24966.6
24966.7
24966.8
24966.9
24967
24967.1
24967.1
24967.2
24967.3
24967.4
24967.5
24967.6
24967.6
24967.7
24967.8
24967.9
24968
24968
24968.1
24968.2
24968.2
24968.3
24968.4
24968.4
24968.5
24968.6
24968.6
24968.7
24968.7
24968.8
24968.8
24968.9
24968.9
24969
24969
24969.1
24969.1
24969.2
24969.2
24969.2
24969.3
24969.3
24969.4
24969.4
24969.4
24969.4
24969.5
24969.5
24969.5
24969.5
24969.6
24969.6
24969.6
24969.6
24969.6
24969.6
24969.7
24969.7
24969.7
24969.7
24969.7
24969.7
24969.7
24969.7
24969.7
24969.7
24969.7
24969.7
24969.7
24969.7
24969.7
24969.7
24969.7
24969.7
24969.7
24969.7
24969.7
24969.7
24969.7
24969.7
24969.7
24969.7
24969.7
24969.7
24969.6
24969.6
24969.6
24969.6
24969.6
24969.6
24969.6
24969.6
24969.6
24969.6
24969.6
24969.6
24969.5
24969.5
24969.5
24969.5
24969.5
24969.5
24969.5
24969.5
24969.5
24969.5
24969.5
24969.5
24969.5
24969.5
24969.5
24969.5
24969.5
24969.5
24969.5
24969.5
24969.4
24969.4
24969.4
24495.5
24495.5
24495.5
24495.5
24495.5
24495.5
24495.5
24495.5
24495.5
24495.5
24495.5
24495.5
24495.5
24495.5
24495.5
24495.5
24495.5
24495.6
24495.6
24495.6
24495.6
24495.6
24495.6
24495.6
24495.6
24495.6
24495.6
24495.6
24495.7
24495.7
24495.7
24495.7
24495.7
24495.7
24495.7
24495.7
24495.8
24495.8
24495.8
24495.8
24495.8
24495.8
24495.8
24495.9
24495.9
24495.9
24495.9
24495.9
24496
24496
24496
24496
24496
24496.1
24496.1
24496.1
24496.1
24496.1
24496.2
24496.2
24496.2
24496.2
24496.3
24496.3
24496.3
24496.3
24496.4
24496.4
24496.4
24496.5
24496.5
24496.5
24496.6
24496.6
24496.6
24496.6
24496.7
24496.7
24496.7
24496.8
24496.8
24496.8
24496.9
24496.9
24497
24497
24497
24497.1
24497.1
24497.1
24497.2
24497.2
24497.3
24497.3
24497.4
24497.4
24497.4
24497.5
24497.5
24497.6
24497.6
24497.7
24497.7
24497.8
24497.8
24497.9
24497.9
24498
24498
24498.1
24498.1
24498.2
24498.2
24498.3
24498.3
24498.4
24498.4
24498.5
24498.5
24498.6
24498.7
24498.7
24498.8
24498.8
24498.9
24499
24499
24499.1
24499.2
24499.2
24499.3
24499.4
24499.4
24499.5
24499.6
24499.6
24499.7
24499.8
24499.8
24499.9
24500
24500.1
24500.1
24500.2
24500.3
24500.4
24500.4
24500.5
24500.6
24500.7
24500.8
24500.8
24500.9
24501
24501.1
24501.2
24501.3
24501.3
24501.4
24501.5
24501.6
24501.7
24501.8
24501.9
24502
24502
24502.1
24502.2
24502.3
24502.4
24502.5
24502.6
24502.7
24502.8
24502.9
24503
24503.1
24503.2
24503.3
24503.4
24503.5
24503.6
24503.7
24503.8
24503.9
24504
24504.1
24504.2
24504.3
24504.4
24504.5
24504.6
24504.7
24504.8
24504.9
24505
24505.2
24505.3
24505.4
24505.5
24505.6
24505.7
24505.8
24505.9
24506
24506.1
24506.2
24506.3
24506.4
24506.6
24506.7
24506.8
24506.9
24507
24507.1
24507.2
24507.3
24507.4
24507.5
24507.6
24507.7
24507.8
24507.9
24508
24508.1
24508.2
24508.3
24508.4
24508.5
24508.6
24508.7
24508.8
24508.9
24509
24509.1
24509.2
24509.3