/*--------------------------------*- C++ -*----------------------------------*\
| =========                 |                                                 |
| \\      /  F ield         | OpenFOAM: The Open Source CFD Toolbox           |
|  \\    /   O peration     | Version:  v2006                                 |
|   \\  /    A nd           | Website:  www.openfoam.com                      |
|    \\/     M anipulation  |                                                 |
\*---------------------------------------------------------------------------*/
FoamFile
{
    version     2.0;
    format      ascii;
    class       surfaceScalarField;
    location    "0.4";
    object      phi;
}
// * * * * * * * * * * * * * * * * * * * * * * * * * * * * * * * * * * * * * //

dimensions      [0 3 -1 0 0 0 0];
oriented        oriented;


internalField   nonuniform List<scalar> 
104500
(
-3.18473e-08
3.18473e-08
-6.37108e-08
3.18643e-08
-9.55787e-08
3.18686e-08
-1.27454e-07
3.18759e-08
-1.59339e-07
3.18857e-08
-1.91237e-07
3.1898e-08
-2.23149e-07
3.19127e-08
-2.55079e-07
3.19299e-08
-2.87028e-07
3.19495e-08
-3.18999e-07
3.19716e-08
-3.50995e-07
3.19961e-08
-3.83018e-07
3.2023e-08
-4.1507e-07
3.20524e-08
-4.47154e-07
3.20843e-08
-4.79273e-07
3.21186e-08
-5.11428e-07
3.21553e-08
-5.43622e-07
3.21944e-08
-5.75858e-07
3.22359e-08
-6.08138e-07
3.22798e-08
-6.40464e-07
3.2326e-08
-6.72839e-07
3.23747e-08
-7.05264e-07
3.24257e-08
-7.37743e-07
3.24791e-08
-7.70278e-07
3.25348e-08
-8.02871e-07
3.25928e-08
-8.35524e-07
3.26531e-08
-8.68239e-07
3.27157e-08
-9.0102e-07
3.27807e-08
-9.33868e-07
3.28478e-08
-9.66785e-07
3.29173e-08
-9.99774e-07
3.2989e-08
-1.03284e-06
3.30629e-08
-1.06598e-06
3.3139e-08
-1.09919e-06
3.32173e-08
-1.13249e-06
3.32978e-08
-1.16587e-06
3.33804e-08
-1.19934e-06
3.34651e-08
-1.23289e-06
3.3552e-08
-1.26653e-06
3.36409e-08
-1.30026e-06
3.37319e-08
-1.33409e-06
3.38249e-08
-1.36801e-06
3.39199e-08
-1.40202e-06
3.40169e-08
-1.43614e-06
3.41158e-08
-1.47035e-06
3.42167e-08
-1.50467e-06
3.43194e-08
-1.5391e-06
3.4424e-08
-1.57363e-06
3.45305e-08
-1.60827e-06
3.46388e-08
-1.64302e-06
3.47488e-08
-1.67788e-06
3.48606e-08
-1.71285e-06
3.49741e-08
-1.74794e-06
3.50891e-08
-1.78315e-06
3.52058e-08
-1.81847e-06
3.53241e-08
-1.85391e-06
3.54438e-08
-1.88948e-06
3.55651e-08
-1.92517e-06
3.56877e-08
-1.96098e-06
3.58118e-08
-1.99691e-06
3.59372e-08
-2.03298e-06
3.60639e-08
-2.06917e-06
3.61918e-08
-2.10549e-06
3.63208e-08
-2.14194e-06
3.6451e-08
-2.17852e-06
3.65823e-08
-2.21524e-06
3.67145e-08
-2.25209e-06
3.68477e-08
-2.28907e-06
3.69817e-08
-2.32618e-06
3.71166e-08
-2.36344e-06
3.72522e-08
-2.40082e-06
3.73885e-08
-2.43835e-06
3.75253e-08
-2.47601e-06
3.76627e-08
-2.51381e-06
3.78005e-08
-2.55175e-06
3.79387e-08
-2.58983e-06
3.80771e-08
-2.62804e-06
3.82156e-08
-2.6664e-06
3.83543e-08
-2.70489e-06
3.8493e-08
-2.74352e-06
3.86316e-08
-2.78229e-06
3.877e-08
-2.8212e-06
3.89081e-08
-2.86025e-06
3.90458e-08
-2.89943e-06
3.91831e-08
-2.93875e-06
3.93197e-08
-2.97821e-06
3.94557e-08
-3.0178e-06
3.95908e-08
-3.05752e-06
3.97249e-08
-3.09738e-06
3.9858e-08
-3.13737e-06
3.99899e-08
-3.17749e-06
4.01204e-08
-3.21774e-06
4.02495e-08
-3.25812e-06
4.03769e-08
-3.29862e-06
4.05026e-08
-3.33924e-06
4.06264e-08
-3.37999e-06
4.07482e-08
-3.42086e-06
4.08678e-08
-3.46185e-06
4.09851e-08
-3.50295e-06
4.10999e-08
-3.54416e-06
4.1212e-08
-3.58548e-06
4.13212e-08
-3.62691e-06
4.14275e-08
-3.66844e-06
4.15305e-08
-3.71007e-06
4.16301e-08
-3.75179e-06
4.17262e-08
-3.79361e-06
4.18186e-08
-3.83552e-06
4.19069e-08
-3.87751e-06
4.19912e-08
-3.91958e-06
4.20711e-08
-3.96173e-06
4.21465e-08
-4.00394e-06
4.22171e-08
-4.04623e-06
4.22826e-08
-4.08857e-06
4.2343e-08
-4.13097e-06
4.23978e-08
-4.17341e-06
4.2447e-08
-4.21591e-06
4.24902e-08
-4.25843e-06
4.25273e-08
-4.30099e-06
4.25579e-08
-4.34357e-06
4.25818e-08
-4.38617e-06
4.25988e-08
-4.42878e-06
4.26085e-08
-4.47139e-06
4.26108e-08
-4.514e-06
4.26053e-08
-4.55659e-06
4.25918e-08
-4.59916e-06
4.25699e-08
-4.6417e-06
4.25395e-08
-4.6842e-06
4.25001e-08
-4.72665e-06
4.24516e-08
-4.76904e-06
4.23935e-08
-4.81137e-06
4.23256e-08
-4.85362e-06
4.22475e-08
-4.89577e-06
4.2159e-08
-4.93783e-06
4.20596e-08
-4.97978e-06
4.19491e-08
-5.02161e-06
4.18272e-08
-5.0633e-06
4.16935e-08
-5.10485e-06
4.15477e-08
-5.14624e-06
4.13894e-08
-5.18746e-06
4.12183e-08
-5.22849e-06
4.1034e-08
-5.26933e-06
4.08362e-08
-5.30995e-06
4.06245e-08
-5.35035e-06
4.03986e-08
-5.39051e-06
4.01581e-08
-5.43041e-06
3.99027e-08
-5.47005e-06
3.96319e-08
-5.50939e-06
3.93454e-08
-5.54843e-06
3.90429e-08
-5.58716e-06
3.87239e-08
-5.62555e-06
3.83881e-08
-5.66358e-06
3.80351e-08
-5.70125e-06
3.76647e-08
-5.73852e-06
3.72763e-08
-5.77539e-06
3.68698e-08
-5.81184e-06
3.64447e-08
-5.84784e-06
3.60007e-08
-5.88338e-06
3.55374e-08
-5.91843e-06
3.50544e-08
-5.95298e-06
3.45514e-08
-5.98701e-06
3.4028e-08
-6.02049e-06
3.3484e-08
-6.05341e-06
3.29189e-08
-6.08574e-06
3.23325e-08
-6.11747e-06
3.17246e-08
-6.14856e-06
3.10948e-08
-6.17901e-06
3.04428e-08
-6.20878e-06
2.97684e-08
-6.23785e-06
2.90712e-08
-6.2662e-06
2.8351e-08
-6.29381e-06
2.76076e-08
-6.32065e-06
2.68408e-08
-6.3467e-06
2.60503e-08
-6.37193e-06
2.52359e-08
-6.39633e-06
2.43976e-08
-6.41987e-06
2.35352e-08
-6.44251e-06
2.26485e-08
-6.46425e-06
2.17373e-08
-6.48505e-06
2.08017e-08
-6.50489e-06
1.98415e-08
-6.52375e-06
1.88567e-08
-6.5416e-06
1.78472e-08
-6.55841e-06
1.68131e-08
-6.57417e-06
1.57545e-08
-6.58884e-06
1.46714e-08
-6.6024e-06
1.35639e-08
-6.61483e-06
1.24321e-08
-6.62611e-06
1.12762e-08
-6.63621e-06
1.00965e-08
-6.6451e-06
8.89331e-09
-6.65277e-06
7.66641e-09
-6.65918e-06
6.41639e-09
-6.66433e-06
5.14489e-09
-6.66818e-06
3.85039e-09
-6.67071e-06
2.5345e-09
-6.67191e-06
1.1942e-09
-6.67174e-06
-1.69666e-10
-6.67018e-06
-1.55289e-09
-6.66723e-06
-2.95474e-09
-6.66285e-06
-4.37577e-09
-6.65704e-06
-5.81546e-09
-6.64977e-06
-7.27316e-09
-6.64102e-06
-8.74815e-09
-6.63078e-06
-1.02396e-08
-6.61903e-06
-1.17468e-08
-6.60576e-06
-1.32688e-08
-6.59096e-06
-1.48047e-08
-6.5746e-06
-1.63536e-08
-6.55669e-06
-1.79144e-08
-6.5372e-06
-1.94861e-08
-6.51614e-06
-2.10676e-08
-6.49348e-06
-2.26578e-08
-6.46922e-06
-2.42555e-08
-6.44336e-06
-2.58594e-08
-6.4159e-06
-2.74683e-08
-6.38681e-06
-2.90809e-08
-6.35612e-06
-3.06959e-08
-6.32381e-06
-3.23118e-08
-6.28988e-06
-3.39274e-08
-6.25434e-06
-3.5541e-08
-6.21719e-06
-3.71514e-08
-6.17843e-06
-3.87568e-08
-6.13807e-06
-4.03558e-08
-6.09613e-06
-4.19468e-08
-6.0526e-06
-4.35282e-08
-6.0075e-06
-4.50985e-08
-5.96085e-06
-4.6656e-08
-5.91265e-06
-4.81991e-08
-5.86292e-06
-4.9726e-08
-5.81168e-06
-5.12351e-08
-5.75896e-06
-5.27246e-08
-5.70477e-06
-5.41929e-08
-5.64913e-06
-5.56383e-08
-5.59207e-06
-5.70592e-08
-5.53362e-06
-5.84539e-08
-5.4738e-06
-5.98207e-08
-5.41264e-06
-6.11579e-08
-5.35017e-06
-6.24638e-08
-5.28644e-06
-6.37367e-08
-5.22146e-06
-6.49751e-08
-5.15528e-06
-6.61774e-08
-5.08794e-06
-6.73421e-08
-5.01947e-06
-6.84677e-08
-4.94992e-06
-6.95527e-08
-4.87933e-06
-7.05955e-08
-4.80773e-06
-7.15947e-08
-4.73518e-06
-7.2549e-08
-4.66173e-06
-7.34572e-08
-4.58741e-06
-7.4318e-08
-4.51228e-06
-7.51303e-08
-4.43638e-06
-7.58928e-08
-4.35978e-06
-7.66045e-08
-4.28252e-06
-7.72643e-08
-4.20464e-06
-7.78713e-08
-4.12622e-06
-7.84247e-08
-4.0473e-06
-7.89239e-08
-3.96793e-06
-7.93679e-08
-3.88817e-06
-7.97563e-08
-3.80808e-06
-8.00884e-08
-3.72772e-06
-8.03637e-08
-3.64714e-06
-8.05818e-08
-3.56639e-06
-8.07426e-08
-3.48555e-06
-8.08459e-08
-3.40466e-06
-8.08915e-08
-3.32378e-06
-8.08794e-08
-3.24297e-06
-8.08096e-08
-3.16229e-06
-8.06821e-08
-3.08179e-06
-8.04974e-08
-3.00153e-06
-8.02557e-08
-2.92158e-06
-7.99575e-08
-2.84197e-06
-7.96033e-08
-2.76278e-06
-7.91936e-08
-2.68405e-06
-7.87292e-08
-2.60584e-06
-7.82108e-08
-2.5282e-06
-7.76393e-08
-2.45118e-06
-7.70155e-08
-2.37484e-06
-7.63404e-08
-2.29923e-06
-7.56151e-08
-2.22439e-06
-7.4841e-08
-2.15037e-06
-7.40192e-08
-2.07722e-06
-7.31509e-08
-2.00498e-06
-7.22373e-08
-1.9337e-06
-7.12799e-08
-1.86342e-06
-7.02804e-08
-1.79418e-06
-6.92403e-08
-1.72602e-06
-6.81613e-08
-1.65897e-06
-6.70448e-08
-1.59308e-06
-6.58926e-08
-1.52837e-06
-6.47062e-08
-1.46489e-06
-6.34877e-08
-1.40265e-06
-6.22389e-08
-1.34168e-06
-6.09617e-08
-1.28203e-06
-5.96578e-08
-1.2237e-06
-5.8329e-08
-1.16672e-06
-5.69773e-08
-1.11112e-06
-5.56048e-08
-1.0569e-06
-5.42135e-08
-1.0041e-06
-5.28053e-08
-9.52714e-07
-5.13821e-08
-9.02769e-07
-4.99456e-08
-8.5427e-07
-4.84983e-08
-8.07228e-07
-4.70421e-08
-7.61649e-07
-4.5579e-08
-7.17538e-07
-4.41108e-08
-6.74899e-07
-4.26393e-08
-6.33732e-07
-4.11667e-08
-5.94037e-07
-3.9695e-08
-5.55811e-07
-3.82261e-08
-5.19049e-07
-3.67617e-08
-4.83745e-07
-3.53039e-08
-4.4989e-07
-3.38544e-08
-4.17475e-07
-3.24151e-08
-3.86487e-07
-3.09877e-08
-3.56913e-07
-2.95739e-08
-3.28738e-07
-2.81757e-08
-3.01943e-07
-2.67948e-08
-2.7651e-07
-2.54326e-08
-2.52419e-07
-2.40908e-08
-2.29648e-07
-2.27709e-08
-2.08173e-07
-2.14746e-08
-1.8797e-07
-2.02034e-08
-1.69011e-07
-1.89586e-08
-1.51269e-07
-1.77418e-08
-1.34715e-07
-1.65544e-08
-1.19317e-07
-1.53975e-08
-1.05044e-07
-1.42726e-08
-9.18636e-08
-1.31807e-08
-7.97404e-08
-1.21231e-08
-6.86393e-08
-1.11009e-08
-5.85238e-08
-1.01154e-08
-4.93562e-08
-9.16749e-09
-4.10978e-08
-8.25821e-09
-3.37092e-08
-7.38845e-09
-2.71499e-08
-6.55916e-09
-2.13786e-08
-5.77118e-09
-1.63533e-08
-5.0252e-09
-1.20312e-08
-4.32194e-09
-8.36903e-09
-3.66209e-09
-5.32252e-09
-3.0464e-09
-2.84656e-09
-2.47586e-09
-8.95215e-10
-1.95124e-09
5.78637e-10
-1.47375e-09
1.61161e-09
-1.03287e-09
2.26122e-09
-6.49492e-10
2.57916e-09
-3.17831e-10
2.59398e-09
-1.4699e-11
2.36545e-09
2.28651e-10
1.94767e-09
4.17913e-10
1.37549e-09
5.72311e-10
7.14534e-10
6.61084e-10
7.14659e-10
-3.18453e-08
6.36921e-08
-6.37075e-08
6.37258e-08
-9.55743e-08
6.37348e-08
-1.27448e-07
6.37494e-08
-1.59332e-07
6.37692e-08
-1.91229e-07
6.37938e-08
-2.2314e-07
6.38234e-08
-2.55068e-07
6.38579e-08
-2.87016e-07
6.38972e-08
-3.18986e-07
6.39415e-08
-3.5098e-07
6.39906e-08
-3.83002e-07
6.40446e-08
-4.15053e-07
6.41035e-08
-4.47136e-07
6.41673e-08
-4.79253e-07
6.42359e-08
-5.11407e-07
6.43093e-08
-5.436e-07
6.43875e-08
-5.75835e-07
6.44706e-08
-6.08114e-07
6.45584e-08
-6.40439e-07
6.4651e-08
-6.72812e-07
6.47484e-08
-7.05237e-07
6.48504e-08
-7.37715e-07
6.49572e-08
-7.70249e-07
6.50686e-08
-8.0284e-07
6.51847e-08
-8.35493e-07
6.53054e-08
-8.68208e-07
6.54307e-08
-9.00987e-07
6.55606e-08
-9.33834e-07
6.5695e-08
-9.66751e-07
6.58339e-08
-9.99739e-07
6.59774e-08
-1.0328e-06
6.61252e-08
-1.06594e-06
6.62775e-08
-1.09916e-06
6.64342e-08
-1.13245e-06
6.65952e-08
-1.16583e-06
6.67605e-08
-1.1993e-06
6.69301e-08
-1.23285e-06
6.71039e-08
-1.26649e-06
6.72818e-08
-1.30022e-06
6.74639e-08
-1.33405e-06
6.765e-08
-1.36797e-06
6.78401e-08
-1.40199e-06
6.80341e-08
-1.4361e-06
6.82321e-08
-1.47032e-06
6.84339e-08
-1.50464e-06
6.86395e-08
-1.53906e-06
6.88489e-08
-1.5736e-06
6.9062e-08
-1.60824e-06
6.92786e-08
-1.64299e-06
6.94988e-08
-1.67785e-06
6.97224e-08
-1.71282e-06
6.99494e-08
-1.74791e-06
7.01797e-08
-1.78312e-06
7.04132e-08
-1.81845e-06
7.06498e-08
-1.85389e-06
7.08895e-08
-1.88946e-06
7.11321e-08
-1.92515e-06
7.13776e-08
-1.96096e-06
7.16258e-08
-1.9969e-06
7.18768e-08
-2.03297e-06
7.21303e-08
-2.06916e-06
7.23862e-08
-2.10549e-06
7.26446e-08
-2.14194e-06
7.29051e-08
-2.17852e-06
7.31678e-08
-2.21524e-06
7.34324e-08
-2.25209e-06
7.3699e-08
-2.28908e-06
7.39673e-08
-2.3262e-06
7.42372e-08
-2.36346e-06
7.45086e-08
-2.40085e-06
7.47814e-08
-2.43838e-06
7.50553e-08
-2.47605e-06
7.53303e-08
-2.51385e-06
7.56061e-08
-2.5518e-06
7.58826e-08
-2.58988e-06
7.61597e-08
-2.6281e-06
7.64371e-08
-2.66646e-06
7.67147e-08
-2.70496e-06
7.69923e-08
-2.7436e-06
7.72698e-08
-2.78237e-06
7.75469e-08
-2.82129e-06
7.78234e-08
-2.86034e-06
7.80992e-08
-2.89953e-06
7.8374e-08
-2.93886e-06
7.86476e-08
-2.97833e-06
7.89198e-08
-3.01792e-06
7.91903e-08
-3.05766e-06
7.94589e-08
-3.09753e-06
7.97254e-08
-3.13753e-06
7.99895e-08
-3.17766e-06
8.0251e-08
-3.21792e-06
8.05095e-08
-3.2583e-06
8.07647e-08
-3.29882e-06
8.10165e-08
-3.33946e-06
8.12646e-08
-3.38022e-06
8.15086e-08
-3.4211e-06
8.17482e-08
-3.4621e-06
8.19832e-08
-3.50321e-06
8.22132e-08
-3.54443e-06
8.24379e-08
-3.58577e-06
8.26569e-08
-3.62721e-06
8.28698e-08
-3.66876e-06
8.30764e-08
-3.7104e-06
8.32761e-08
-3.75215e-06
8.34688e-08
-3.79398e-06
8.3654e-08
-3.83591e-06
8.38314e-08
-3.87792e-06
8.40004e-08
-3.92001e-06
8.41608e-08
-3.96217e-06
8.43121e-08
-4.00441e-06
8.44538e-08
-4.04671e-06
8.45855e-08
-4.08907e-06
8.47068e-08
-4.13149e-06
8.48171e-08
-4.17396e-06
8.4916e-08
-4.21648e-06
8.50031e-08
-4.25903e-06
8.50779e-08
-4.30161e-06
8.51398e-08
-4.34421e-06
8.51883e-08
-4.38684e-06
8.52229e-08
-4.42947e-06
8.52431e-08
-4.47211e-06
8.52484e-08
-4.51474e-06
8.52382e-08
-4.55736e-06
8.52119e-08
-4.59996e-06
8.5169e-08
-4.64253e-06
8.51088e-08
-4.68506e-06
8.50309e-08
-4.72755e-06
8.49345e-08
-4.76997e-06
8.48191e-08
-4.81233e-06
8.46841e-08
-4.85461e-06
8.45287e-08
-4.89681e-06
8.43524e-08
-4.9389e-06
8.41546e-08
-4.98089e-06
8.39345e-08
-5.02275e-06
8.36915e-08
-5.06448e-06
8.3425e-08
-5.10607e-06
8.31342e-08
-5.1475e-06
8.28184e-08
-5.18876e-06
8.24771e-08
-5.22983e-06
8.21094e-08
-5.27071e-06
8.17146e-08
-5.31138e-06
8.12921e-08
-5.35182e-06
8.08412e-08
-5.39202e-06
8.03611e-08
-5.43197e-06
7.98511e-08
-5.47165e-06
7.93104e-08
-5.51104e-06
7.87383e-08
-5.55013e-06
7.81341e-08
-5.58891e-06
7.7497e-08
-5.62735e-06
7.68263e-08
-5.66543e-06
7.61213e-08
-5.70315e-06
7.53813e-08
-5.74048e-06
7.46055e-08
-5.7774e-06
7.37933e-08
-5.8139e-06
7.2944e-08
-5.84996e-06
7.20567e-08
-5.88555e-06
7.11308e-08
-5.92066e-06
7.01656e-08
-5.95527e-06
6.91603e-08
-5.98936e-06
6.81143e-08
-6.0229e-06
6.70269e-08
-6.05588e-06
6.58975e-08
-6.08827e-06
6.47255e-08
-6.12006e-06
6.35103e-08
-6.15122e-06
6.22513e-08
-6.18172e-06
6.0948e-08
-6.21155e-06
5.95996e-08
-6.24069e-06
5.82058e-08
-6.2691e-06
5.67659e-08
-6.29677e-06
5.52795e-08
-6.32368e-06
5.37462e-08
-6.34979e-06
5.21655e-08
-6.3751e-06
5.05372e-08
-6.39956e-06
4.88608e-08
-6.42316e-06
4.71361e-08
-6.44587e-06
4.53627e-08
-6.46768e-06
4.35405e-08
-6.48854e-06
4.16692e-08
-6.50845e-06
3.97487e-08
-6.52737e-06
3.77789e-08
-6.54529e-06
3.57598e-08
-6.56217e-06
3.36914e-08
-6.57799e-06
3.15738e-08
-6.59272e-06
2.94071e-08
-6.60635e-06
2.71915e-08
-6.61884e-06
2.49273e-08
-6.63018e-06
2.26149e-08
-6.64034e-06
2.02546e-08
-6.6493e-06
1.78477e-08
-6.65702e-06
1.53933e-08
-6.6635e-06
1.28929e-08
-6.6687e-06
1.03471e-08
-6.67261e-06
7.75724e-09
-6.6752e-06
5.12252e-09
-6.67645e-06
2.44511e-09
-6.67633e-06
-2.84492e-10
-6.67483e-06
-3.05302e-09
-6.67193e-06
-5.85862e-09
-6.6676e-06
-8.70262e-09
-6.66183e-06
-1.1584e-08
-6.65461e-06
-1.45016e-08
-6.6459e-06
-1.74538e-08
-6.6357e-06
-2.04392e-08
-6.62399e-06
-2.34561e-08
-6.61076e-06
-2.65028e-08
-6.59599e-06
-2.95773e-08
-6.57966e-06
-3.26779e-08
-6.56177e-06
-3.58025e-08
-6.54231e-06
-3.8949e-08
-6.52126e-06
-4.21152e-08
-6.49862e-06
-4.52989e-08
-6.47438e-06
-4.84977e-08
-6.44853e-06
-5.17091e-08
-6.42107e-06
-5.49306e-08
-6.39199e-06
-5.81596e-08
-6.36129e-06
-6.13933e-08
-6.32897e-06
-6.46292e-08
-6.29504e-06
-6.78644e-08
-6.25948e-06
-7.10959e-08
-6.22231e-06
-7.43208e-08
-6.18353e-06
-7.7536e-08
-6.14315e-06
-8.07383e-08
-6.10117e-06
-8.39248e-08
-6.05761e-06
-8.70921e-08
-6.01247e-06
-9.02372e-08
-5.96577e-06
-9.33568e-08
-5.91752e-06
-9.64475e-08
-5.86774e-06
-9.95059e-08
-5.81645e-06
-1.02529e-07
-5.76366e-06
-1.05512e-07
-5.7094e-06
-1.08454e-07
-5.65369e-06
-1.11349e-07
-5.59655e-06
-1.14196e-07
-5.53801e-06
-1.1699e-07
-5.47811e-06
-1.19728e-07
-5.41686e-06
-1.22407e-07
-5.3543e-06
-1.25023e-07
-5.29046e-06
-1.27573e-07
-5.22538e-06
-1.30055e-07
-5.1591e-06
-1.32464e-07
-5.09164e-06
-1.34797e-07
-5.02306e-06
-1.37052e-07
-4.95338e-06
-1.39226e-07
-4.88266e-06
-1.41316e-07
-4.81094e-06
-1.43318e-07
-4.73826e-06
-1.4523e-07
-4.66467e-06
-1.4705e-07
-4.59021e-06
-1.48775e-07
-4.51494e-06
-1.50403e-07
-4.4389e-06
-1.51931e-07
-4.36215e-06
-1.53357e-07
-4.28473e-06
-1.54679e-07
-4.20671e-06
-1.55895e-07
-4.12813e-06
-1.57004e-07
-4.04905e-06
-1.58004e-07
-3.96952e-06
-1.58894e-07
-3.8896e-06
-1.59673e-07
-3.80936e-06
-1.60338e-07
-3.72883e-06
-1.60889e-07
-3.64808e-06
-1.61327e-07
-3.56718e-06
-1.61649e-07
-3.48617e-06
-1.61856e-07
-3.40511e-06
-1.61947e-07
-3.32407e-06
-1.61923e-07
-3.2431e-06
-1.61782e-07
-3.16225e-06
-1.61527e-07
-3.08159e-06
-1.61157e-07
-3.00118e-06
-1.60672e-07
-2.92106e-06
-1.60074e-07
-2.8413e-06
-1.59364e-07
-2.76195e-06
-1.58543e-07
-2.68306e-06
-1.57612e-07
-2.6047e-06
-1.56573e-07
-2.52691e-06
-1.55428e-07
-2.44975e-06
-1.54177e-07
-2.37327e-06
-1.52824e-07
-2.29751e-06
-1.5137e-07
-2.22253e-06
-1.49819e-07
-2.14838e-06
-1.48172e-07
-2.0751e-06
-1.46431e-07
-2.00274e-06
-1.446e-07
-1.93134e-06
-1.42681e-07
-1.86094e-06
-1.40678e-07
-1.79159e-06
-1.38594e-07
-1.72332e-06
-1.36431e-07
-1.65617e-06
-1.34194e-07
-1.59018e-06
-1.31884e-07
-1.52538e-06
-1.29507e-07
-1.4618e-06
-1.27065e-07
-1.39947e-06
-1.24562e-07
-1.33843e-06
-1.22002e-07
-1.2787e-06
-1.19389e-07
-1.22031e-06
-1.16726e-07
-1.16326e-06
-1.14018e-07
-1.1076e-06
-1.11268e-07
-1.05334e-06
-1.08479e-07
-1.00048e-06
-1.05658e-07
-9.4906e-07
-1.02805e-07
-8.99078e-07
-9.99273e-08
-8.50549e-07
-9.70273e-08
-8.03481e-07
-9.41095e-08
-7.57882e-07
-9.11777e-08
-7.13757e-07
-8.82356e-08
-6.71109e-07
-8.52874e-08
-6.29938e-07
-8.2337e-08
-5.90245e-07
-7.93884e-08
-5.52025e-07
-7.64452e-08
-5.15276e-07
-7.35114e-08
-4.79989e-07
-7.05906e-08
-4.46156e-07
-6.76867e-08
-4.13768e-07
-6.48031e-08
-3.82812e-07
-6.19434e-08
-3.53275e-07
-5.91112e-08
-3.2514e-07
-5.63102e-08
-2.98391e-07
-5.35436e-08
-2.73009e-07
-5.08147e-08
-2.48973e-07
-4.81266e-08
-2.26261e-07
-4.54828e-08
-2.04849e-07
-4.28861e-08
-1.84713e-07
-4.03395e-08
-1.65825e-07
-3.7846e-08
-1.48158e-07
-3.54087e-08
-1.31682e-07
-3.30302e-08
-1.16366e-07
-3.0713e-08
-1.02179e-07
-2.84594e-08
-8.90872e-08
-2.62723e-08
-7.7056e-08
-2.41541e-08
-6.60498e-08
-2.21069e-08
-5.60321e-08
-2.01329e-08
-4.6965e-08
-1.82343e-08
-3.88099e-08
-1.64131e-08
-3.15269e-08
-1.46712e-08
-2.50756e-08
-1.30102e-08
-1.94146e-08
-1.1432e-08
-1.45018e-08
-9.93785e-09
-1.02945e-08
-8.529e-09
-6.74909e-09
-7.20726e-09
-3.82124e-09
-5.97405e-09
-1.4663e-09
-4.83064e-09
3.57714e-10
-3.77509e-09
1.69615e-09
-2.81197e-09
2.61646e-09
-1.95294e-09
3.14513e-09
-1.17794e-09
3.32653e-09
-4.99041e-10
3.22168e-09
9.03505e-11
2.86943e-09
5.81131e-10
2.32144e-09
9.66151e-10
1.63394e-09
1.26002e-09
8.45482e-10
1.44978e-09
1.56027e-09
-3.1833e-08
9.55258e-08
-6.36811e-08
9.55746e-08
-9.55343e-08
9.55886e-08
-1.27395e-07
9.56106e-08
-1.59266e-07
9.56401e-08
-1.91149e-07
9.56771e-08
-2.23046e-07
9.57214e-08
-2.54961e-07
9.57731e-08
-2.86896e-07
9.58321e-08
-3.18853e-07
9.58985e-08
-3.50834e-07
9.59722e-08
-3.82843e-07
9.60533e-08
-4.14881e-07
9.61416e-08
-4.4695e-07
9.62373e-08
-4.79055e-07
9.63402e-08
-5.11196e-07
9.64504e-08
-5.43376e-07
9.65678e-08
-5.75598e-07
9.66924e-08
-6.07863e-07
9.68242e-08
-6.40175e-07
9.69632e-08
-6.72536e-07
9.71092e-08
-7.04948e-07
9.72624e-08
-7.37413e-07
9.74226e-08
-7.69934e-07
9.75898e-08
-8.02514e-07
9.7764e-08
-8.35153e-07
9.79452e-08
-8.67856e-07
9.81332e-08
-9.00623e-07
9.83281e-08
-9.33458e-07
9.85299e-08
-9.66363e-07
9.87384e-08
-9.99339e-07
9.89537e-08
-1.03239e-06
9.91756e-08
-1.06552e-06
9.94042e-08
-1.09872e-06
9.96393e-08
-1.13201e-06
9.9881e-08
-1.16537e-06
1.00129e-07
-1.19883e-06
1.00384e-07
-1.23237e-06
1.00644e-07
-1.266e-06
1.00912e-07
-1.29972e-06
1.01185e-07
-1.33353e-06
1.01464e-07
-1.36744e-06
1.01749e-07
-1.40145e-06
1.02041e-07
-1.43556e-06
1.02338e-07
-1.46976e-06
1.02641e-07
-1.50407e-06
1.0295e-07
-1.53849e-06
1.03264e-07
-1.57301e-06
1.03584e-07
-1.60764e-06
1.03909e-07
-1.64238e-06
1.04239e-07
-1.67723e-06
1.04575e-07
-1.7122e-06
1.04916e-07
-1.74728e-06
1.05261e-07
-1.78248e-06
1.05612e-07
-1.81779e-06
1.05967e-07
-1.85323e-06
1.06327e-07
-1.88879e-06
1.06691e-07
-1.92447e-06
1.0706e-07
-1.96028e-06
1.07432e-07
-1.99621e-06
1.07809e-07
-2.03227e-06
1.0819e-07
-2.06846e-06
1.08574e-07
-2.10478e-06
1.08962e-07
-2.14122e-06
1.09353e-07
-2.1778e-06
1.09748e-07
-2.21452e-06
1.10145e-07
-2.25136e-06
1.10545e-07
-2.28834e-06
1.10948e-07
-2.32546e-06
1.11354e-07
-2.36271e-06
1.11761e-07
-2.4001e-06
1.12171e-07
-2.43763e-06
1.12582e-07
-2.47529e-06
1.12995e-07
-2.5131e-06
1.13409e-07
-2.55104e-06
1.13825e-07
-2.58912e-06
1.14241e-07
-2.62734e-06
1.14658e-07
-2.6657e-06
1.15075e-07
-2.7042e-06
1.15492e-07
-2.74284e-06
1.15909e-07
-2.78162e-06
1.16325e-07
-2.82053e-06
1.16741e-07
-2.85959e-06
1.17155e-07
-2.89878e-06
1.17568e-07
-2.93812e-06
1.17979e-07
-2.97758e-06
1.18388e-07
-3.01719e-06
1.18795e-07
-3.05693e-06
1.19198e-07
-3.0968e-06
1.19599e-07
-3.13681e-06
1.19996e-07
-3.17695e-06
1.20389e-07
-3.21721e-06
1.20778e-07
-3.25761e-06
1.21161e-07
-3.29813e-06
1.2154e-07
-3.33878e-06
1.21913e-07
-3.37955e-06
1.2228e-07
-3.42045e-06
1.22641e-07
-3.46146e-06
1.22994e-07
-3.50259e-06
1.23341e-07
-3.54383e-06
1.23679e-07
-3.58518e-06
1.24008e-07
-3.62664e-06
1.24329e-07
-3.6682e-06
1.2464e-07
-3.70986e-06
1.24941e-07
-3.75163e-06
1.25231e-07
-3.79348e-06
1.2551e-07
-3.83543e-06
1.25778e-07
-3.87746e-06
1.26033e-07
-3.91958e-06
1.26275e-07
-3.96177e-06
1.26503e-07
-4.00403e-06
1.26717e-07
-4.04636e-06
1.26916e-07
-4.08875e-06
1.27099e-07
-4.1312e-06
1.27266e-07
-4.1737e-06
1.27416e-07
-4.21625e-06
1.27549e-07
-4.25883e-06
1.27662e-07
-4.30145e-06
1.27757e-07
-4.34409e-06
1.27832e-07
-4.38676e-06
1.27885e-07
-4.42943e-06
1.27917e-07
-4.47211e-06
1.27927e-07
-4.51478e-06
1.27914e-07
-4.55745e-06
1.27876e-07
-4.60009e-06
1.27814e-07
-4.64271e-06
1.27726e-07
-4.68529e-06
1.27611e-07
-4.72782e-06
1.27468e-07
-4.7703e-06
1.27297e-07
-4.81271e-06
1.27096e-07
-4.85505e-06
1.26866e-07
-4.8973e-06
1.26603e-07
-4.93946e-06
1.26309e-07
-4.9815e-06
1.25981e-07
-5.02343e-06
1.25619e-07
-5.06523e-06
1.25221e-07
-5.10688e-06
1.24787e-07
-5.14838e-06
1.24316e-07
-5.1897e-06
1.23806e-07
-5.23085e-06
1.23257e-07
-5.2718e-06
1.22667e-07
-5.31255e-06
1.22036e-07
-5.35307e-06
1.21362e-07
-5.39335e-06
1.20644e-07
-5.43338e-06
1.19881e-07
-5.47314e-06
1.19073e-07
-5.51262e-06
1.18217e-07
-5.5518e-06
1.17313e-07
-5.59066e-06
1.1636e-07
-5.62919e-06
1.15356e-07
-5.66737e-06
1.14301e-07
-5.70519e-06
1.13194e-07
-5.74261e-06
1.12032e-07
-5.77964e-06
1.10816e-07
-5.81624e-06
1.09545e-07
-5.8524e-06
1.08216e-07
-5.8881e-06
1.06829e-07
-5.92332e-06
1.05384e-07
-5.95803e-06
1.03878e-07
-5.99223e-06
1.02311e-07
-6.02589e-06
1.00682e-07
-6.05898e-06
9.89903e-08
-6.09149e-06
9.72344e-08
-6.12339e-06
9.54135e-08
-6.15467e-06
9.35269e-08
-6.18529e-06
9.15737e-08
-6.21525e-06
8.95529e-08
-6.2445e-06
8.74637e-08
-6.27304e-06
8.53054e-08
-6.30084e-06
8.30773e-08
-6.32787e-06
8.07786e-08
-6.35412e-06
7.84088e-08
-6.37955e-06
7.59674e-08
-6.40414e-06
7.34538e-08
-6.42787e-06
7.08675e-08
-6.45072e-06
6.82082e-08
-6.47265e-06
6.54754e-08
-6.49365e-06
6.26689e-08
-6.51369e-06
5.97883e-08
-6.53275e-06
5.68337e-08
-6.55079e-06
5.38049e-08
-6.5678e-06
5.0702e-08
-6.58375e-06
4.75251e-08
-6.59862e-06
4.42743e-08
-6.61238e-06
4.09501e-08
-6.62501e-06
3.75527e-08
-6.63647e-06
3.40826e-08
-6.64676e-06
3.05404e-08
-6.65584e-06
2.6928e-08
-6.66369e-06
2.32456e-08
-6.67029e-06
1.94939e-08
-6.67562e-06
1.56707e-08
-6.67964e-06
1.17813e-08
-6.68235e-06
7.82853e-09
-6.68371e-06
3.80999e-09
-6.68371e-06
-2.88934e-10
-6.68231e-06
-4.44617e-09
-6.67951e-06
-8.65866e-09
-6.67529e-06
-1.29291e-08
-6.66962e-06
-1.72559e-08
-6.66248e-06
-2.16372e-08
-6.65386e-06
-2.60709e-08
-6.64375e-06
-3.05546e-08
-6.63212e-06
-3.50859e-08
-6.61896e-06
-3.96621e-08
-6.60426e-06
-4.42805e-08
-6.588e-06
-4.89381e-08
-6.57017e-06
-5.36321e-08
-6.55076e-06
-5.83592e-08
-6.52976e-06
-6.31162e-08
-6.50716e-06
-6.78997e-08
-6.48295e-06
-7.27061e-08
-6.45712e-06
-7.75318e-08
-6.42968e-06
-8.23728e-08
-6.40062e-06
-8.72254e-08
-6.36992e-06
-9.20854e-08
-6.3376e-06
-9.69488e-08
-6.30366e-06
-1.01811e-07
-6.26808e-06
-1.06669e-07
-6.23089e-06
-1.11516e-07
-6.19208e-06
-1.16349e-07
-6.15165e-06
-1.21163e-07
-6.10962e-06
-1.25954e-07
-6.066e-06
-1.30716e-07
-6.02079e-06
-1.35444e-07
-5.97401e-06
-1.40135e-07
-5.92568e-06
-1.44782e-07
-5.8758e-06
-1.49381e-07
-5.82441e-06
-1.53926e-07
-5.77151e-06
-1.58413e-07
-5.71712e-06
-1.62837e-07
-5.66128e-06
-1.67192e-07
-5.604e-06
-1.71473e-07
-5.54532e-06
-1.75675e-07
-5.48525e-06
-1.79793e-07
-5.42384e-06
-1.83823e-07
-5.3611e-06
-1.87758e-07
-5.29708e-06
-1.91594e-07
-5.23181e-06
-1.95327e-07
-5.16532e-06
-1.98951e-07
-5.09766e-06
-2.02462e-07
-5.02886e-06
-2.05855e-07
-4.95896e-06
-2.09125e-07
-4.888e-06
-2.12268e-07
-4.81604e-06
-2.15281e-07
-4.74311e-06
-2.18158e-07
-4.66927e-06
-2.20896e-07
-4.59455e-06
-2.23492e-07
-4.51901e-06
-2.25941e-07
-4.4427e-06
-2.2824e-07
-4.36567e-06
-2.30386e-07
-4.28798e-06
-2.32375e-07
-4.20967e-06
-2.34206e-07
-4.1308e-06
-2.35875e-07
-4.05142e-06
-2.3738e-07
-3.9716e-06
-2.38719e-07
-3.89138e-06
-2.3989e-07
-3.81083e-06
-2.40891e-07
-3.73e-06
-2.41721e-07
-3.64894e-06
-2.42378e-07
-3.56773e-06
-2.42863e-07
-3.48641e-06
-2.43174e-07
-3.40505e-06
-2.43311e-07
-3.3237e-06
-2.43274e-07
-3.24241e-06
-2.43063e-07
-3.16126e-06
-2.42678e-07
-3.0803e-06
-2.4212e-07
-2.99958e-06
-2.41391e-07
-2.91916e-06
-2.40491e-07
-2.83911e-06
-2.39422e-07
-2.75946e-06
-2.38186e-07
-2.68029e-06
-2.36784e-07
-2.60165e-06
-2.3522e-07
-2.52358e-06
-2.33495e-07
-2.44614e-06
-2.31613e-07
-2.36939e-06
-2.29576e-07
-2.29337e-06
-2.27388e-07
-2.21814e-06
-2.25052e-07
-2.14374e-06
-2.22572e-07
-2.07022e-06
-2.19952e-07
-1.99762e-06
-2.17196e-07
-1.92599e-06
-2.14308e-07
-1.85538e-06
-2.11293e-07
-1.78582e-06
-2.08156e-07
-1.71735e-06
-2.04901e-07
-1.65001e-06
-2.01533e-07
-1.58383e-06
-1.98057e-07
-1.51886e-06
-1.94479e-07
-1.45512e-06
-1.90804e-07
-1.39265e-06
-1.87038e-07
-1.33146e-06
-1.83186e-07
-1.2716e-06
-1.79253e-07
-1.21308e-06
-1.75246e-07
-1.15593e-06
-1.7117e-07
-1.10016e-06
-1.67031e-07
-1.04581e-06
-1.62836e-07
-9.92875e-07
-1.58589e-07
-9.41382e-07
-1.54298e-07
-8.91342e-07
-1.49968e-07
-8.42764e-07
-1.45604e-07
-7.95659e-07
-1.41214e-07
-7.50034e-07
-1.36803e-07
-7.05892e-07
-1.32377e-07
-6.63238e-07
-1.27942e-07
-6.22072e-07
-1.23503e-07
-5.82393e-07
-1.19067e-07
-5.44199e-07
-1.1464e-07
-5.07484e-07
-1.10226e-07
-4.72242e-07
-1.05833e-07
-4.38464e-07
-1.01464e-07
-4.0614e-07
-9.71269e-08
-3.75257e-07
-9.28256e-08
-3.45802e-07
-8.85659e-08
-3.1776e-07
-8.4353e-08
-2.91111e-07
-8.01918e-08
-2.65838e-07
-7.60874e-08
-2.4192e-07
-7.20447e-08
-2.19334e-07
-6.80686e-08
-1.98056e-07
-6.41636e-08
-1.78062e-07
-6.03339e-08
-1.59324e-07
-5.65843e-08
-1.41813e-07
-5.2919e-08
-1.25501e-07
-4.93422e-08
-1.10356e-07
-4.58576e-08
-9.63461e-08
-4.24691e-08
-8.34377e-08
-3.91805e-08
-7.15961e-08
-3.59955e-08
-6.07855e-08
-3.29174e-08
-5.09688e-08
-2.99493e-08
-4.21082e-08
-2.70946e-08
-3.41647e-08
-2.43564e-08
-2.70982e-08
-2.17375e-08
-2.08677e-08
-1.92405e-08
-1.54315e-08
-1.68679e-08
-1.07474e-08
-1.46218e-08
-6.77413e-09
-1.2502e-08
-3.46566e-09
-1.05156e-08
-7.7873e-10
-8.66082e-09
1.32682e-09
-6.93601e-09
2.90887e-09
-5.3569e-09
4.01712e-09
-3.92e-09
4.67115e-09
-2.60681e-09
4.9479e-09
-1.45452e-09
4.88103e-09
-4.31979e-10
4.50534e-09
4.66238e-10
3.90049e-09
1.18617e-09
3.08567e-09
1.78116e-09
2.15363e-09
2.19227e-09
1.0894e-09
2.51424e-09
2.64977e-09
-3.18133e-08
1.27339e-07
-6.3642e-08
1.27403e-07
-9.54755e-08
1.27422e-07
-1.27316e-07
1.27452e-07
-1.59167e-07
1.27491e-07
-1.9103e-07
1.2754e-07
-2.22908e-07
1.27599e-07
-2.54804e-07
1.27668e-07
-2.86719e-07
1.27747e-07
-3.18656e-07
1.27836e-07
-3.50618e-07
1.27934e-07
-3.82607e-07
1.28042e-07
-4.14625e-07
1.2816e-07
-4.46676e-07
1.28288e-07
-4.78761e-07
1.28425e-07
-5.10883e-07
1.28572e-07
-5.43044e-07
1.28729e-07
-5.75246e-07
1.28895e-07
-6.07493e-07
1.29071e-07
-6.39786e-07
1.29256e-07
-6.72128e-07
1.29451e-07
-7.04521e-07
1.29655e-07
-7.36967e-07
1.29869e-07
-7.6947e-07
1.30092e-07
-8.0203e-07
1.30325e-07
-8.34651e-07
1.30566e-07
-8.67336e-07
1.30817e-07
-9.00085e-07
1.31077e-07
-9.32902e-07
1.31347e-07
-9.65788e-07
1.31625e-07
-9.98746e-07
1.31912e-07
-1.03178e-06
1.32208e-07
-1.06489e-06
1.32513e-07
-1.09808e-06
1.32827e-07
-1.13134e-06
1.3315e-07
-1.1647e-06
1.33481e-07
-1.19813e-06
1.3382e-07
-1.23166e-06
1.34168e-07
-1.26527e-06
1.34525e-07
-1.29897e-06
1.34889e-07
-1.33277e-06
1.35262e-07
-1.36667e-06
1.35643e-07
-1.40066e-06
1.36032e-07
-1.43475e-06
1.36428e-07
-1.46894e-06
1.36833e-07
-1.50323e-06
1.37245e-07
-1.53763e-06
1.37664e-07
-1.57214e-06
1.38091e-07
-1.60676e-06
1.38525e-07
-1.64148e-06
1.38966e-07
-1.67632e-06
1.39414e-07
-1.71127e-06
1.39869e-07
-1.74634e-06
1.4033e-07
-1.78153e-06
1.40798e-07
-1.81683e-06
1.41272e-07
-1.85226e-06
1.41753e-07
-1.88781e-06
1.42239e-07
-1.92348e-06
1.42731e-07
-1.95927e-06
1.43228e-07
-1.9952e-06
1.43731e-07
-2.03125e-06
1.4424e-07
-2.06742e-06
1.44753e-07
-2.10373e-06
1.4527e-07
-2.14017e-06
1.45793e-07
-2.17674e-06
1.4632e-07
-2.21345e-06
1.4685e-07
-2.25029e-06
1.47385e-07
-2.28726e-06
1.47923e-07
-2.32437e-06
1.48464e-07
-2.36162e-06
1.49009e-07
-2.399e-06
1.49556e-07
-2.43653e-06
1.50105e-07
-2.47419e-06
1.50657e-07
-2.51199e-06
1.5121e-07
-2.54993e-06
1.51765e-07
-2.58801e-06
1.52321e-07
-2.62623e-06
1.52877e-07
-2.66459e-06
1.53435e-07
-2.70309e-06
1.53992e-07
-2.74173e-06
1.54549e-07
-2.78051e-06
1.55105e-07
-2.81943e-06
1.55661e-07
-2.85849e-06
1.56215e-07
-2.89769e-06
1.56766e-07
-2.93702e-06
1.57316e-07
-2.9765e-06
1.57863e-07
-3.01611e-06
1.58406e-07
-3.05586e-06
1.58946e-07
-3.09574e-06
1.59482e-07
-3.13576e-06
1.60013e-07
-3.17591e-06
1.60539e-07
-3.21619e-06
1.61058e-07
-3.2566e-06
1.61572e-07
-3.29714e-06
1.62079e-07
-3.3378e-06
1.62578e-07
-3.37859e-06
1.63069e-07
-3.4195e-06
1.63552e-07
-3.46053e-06
1.64026e-07
-3.50168e-06
1.64489e-07
-3.54295e-06
1.64942e-07
-3.58432e-06
1.65384e-07
-3.62581e-06
1.65813e-07
-3.6674e-06
1.6623e-07
-3.70909e-06
1.66634e-07
-3.75088e-06
1.67023e-07
-3.79277e-06
1.67398e-07
-3.83475e-06
1.67757e-07
-3.87682e-06
1.681e-07
-3.91897e-06
1.68425e-07