/*--------------------------------*- C++ -*----------------------------------*\
| =========                 |                                                 |
| \\      /  F ield         | OpenFOAM: The Open Source CFD Toolbox           |
|  \\    /   O peration     | Version:  v2006                                 |
|   \\  /    A nd           | Website:  www.openfoam.com                      |
|    \\/     M anipulation  |                                                 |
\*---------------------------------------------------------------------------*/
FoamFile
{
    version     2.0;
    format      ascii;
    class       volVectorField;
    location    "0";
    object      U_new;
}
// * * * * * * * * * * * * * * * * * * * * * * * * * * * * * * * * * * * * * //

dimensions      [0 1 -1 0 0 0 0];


internalField   nonuniform List<vector> 
2500
(
(0.000632 -0.049928 0)
(0.000632 -0.149784 0)
(0.000632 -0.24964 0)
(0.000632 -0.349496 0)
(0.000632 -0.449352 0)
(0.000632 -0.549208 0)
(0.000632 -0.649064 0)
(0.000632 -0.74892 0)
(0.000632 -0.848776 0)
(0.000632 -0.948632 0)
(0.000632 -1.04849 0)
(0.000632 -1.14834 0)
(0.000632 -1.2482 0)
(0.000632 -1.34806 0)
(0.000632 -1.44791 0)
(0.000632 -1.54777 0)
(0.000632 -1.64762 0)
(0.000632 -1.74748 0)
(0.000632 -1.84734 0)
(0.000632 -1.94719 0)
(0.000632 -2.04705 0)
(0.000632 -2.1469 0)
(0.000632 -2.24676 0)
(0.000632 -2.34662 0)
(0.000632 -2.44647 0)
(0.000632 -2.54633 0)
(0.000632 -2.64618 0)
(0.000632 -2.74604 0)
(0.000632 -2.8459 0)
(0.000632 -2.94575 0)
(0.000632 -3.04561 0)
(0.000632 -3.14546 0)
(0.000632 -3.24532 0)
(0.000632 -3.34518 0)
(0.000632 -3.44503 0)
(0.000632 -3.54489 0)
(0.000632 -3.64474 0)
(0.000632 -3.7446 0)
(0.000632 -3.84446 0)
(0.000632 -3.94431 0)
(0.000632 -4.04417 0)
(0.000632 -4.14402 0)
(0.000632 -4.24388 0)
(0.000632 -4.34374 0)
(0.000632 -4.44359 0)
(0.000632 -4.54345 0)
(0.000632 -4.6433 0)
(0.000632 -4.74316 0)
(0.000632 -4.84302 0)
(0.000632 -4.94287 0)
(0.005688 -0.049928 0)
(0.005688 -0.149784 0)
(0.005688 -0.24964 0)
(0.005688 -0.349496 0)
(0.005688 -0.449352 0)
(0.005688 -0.549208 0)
(0.005688 -0.649064 0)
(0.005688 -0.74892 0)
(0.005688 -0.848776 0)
(0.005688 -0.948632 0)
(0.005688 -1.04849 0)
(0.005688 -1.14834 0)
(0.005688 -1.2482 0)
(0.005688 -1.34806 0)
(0.005688 -1.44791 0)
(0.005688 -1.54777 0)
(0.005688 -1.64762 0)
(0.005688 -1.74748 0)
(0.005688 -1.84734 0)
(0.005688 -1.94719 0)
(0.005688 -2.04705 0)
(0.005688 -2.1469 0)
(0.005688 -2.24676 0)
(0.005688 -2.34662 0)
(0.005688 -2.44647 0)
(0.005688 -2.54633 0)
(0.005688 -2.64618 0)
(0.005688 -2.74604 0)
(0.005688 -2.8459 0)
(0.005688 -2.94575 0)
(0.005688 -3.04561 0)
(0.005688 -3.14546 0)
(0.005688 -3.24532 0)
(0.005688 -3.34518 0)
(0.005688 -3.44503 0)
(0.005688 -3.54489 0)
(0.005688 -3.64474 0)
(0.005688 -3.7446 0)
(0.005688 -3.84446 0)
(0.005688 -3.94431 0)
(0.005688 -4.04417 0)
(0.005688 -4.14402 0)
(0.005688 -4.24388 0)
(0.005688 -4.34374 0)
(0.005688 -4.44359 0)
(0.005688 -4.54345 0)
(0.005688 -4.6433 0)
(0.005688 -4.74316 0)
(0.005688 -4.84302 0)
(0.005688 -4.94287 0)
(0.0158 -0.049928 0)
(0.0158 -0.149784 0)
(0.0158 -0.24964 0)
(0.0158 -0.349496 0)
(0.0158 -0.449352 0)
(0.0158 -0.549208 0)
(0.0158 -0.649064 0)
(0.0158 -0.74892 0)
(0.0158 -0.848776 0)
(0.0158 -0.948632 0)
(0.0158 -1.04849 0)
(0.0158 -1.14834 0)
(0.0158 -1.2482 0)
(0.0158 -1.34806 0)
(0.0158 -1.44791 0)
(0.0158 -1.54777 0)
(0.0158 -1.64762 0)
(0.0158 -1.74748 0)
(0.0158 -1.84734 0)
(0.0158 -1.94719 0)
(0.0158 -2.04705 0)
(0.0158 -2.1469 0)
(0.0158 -2.24676 0)
(0.0158 -2.34662 0)
(0.0158 -2.44647 0)
(0.0158 -2.54633 0)
(0.0158 -2.64618 0)
(0.0158 -2.74604 0)
(0.0158 -2.8459 0)
(0.0158 -2.94575 0)
(0.0158 -3.04561 0)
(0.0158 -3.14546 0)
(0.0158 -3.24532 0)
(0.0158 -3.34518 0)
(0.0158 -3.44503 0)
(0.0158 -3.54489 0)
(0.0158 -3.64474 0)
(0.0158 -3.7446 0)
(0.0158 -3.84446 0)
(0.0158 -3.94431 0)
(0.0158 -4.04417 0)
(0.0158 -4.14402 0)
(0.0158 -4.24388 0)
(0.0158 -4.34374 0)
(0.0158 -4.44359 0)
(0.0158 -4.54345 0)
(0.0158 -4.6433 0)
(0.0158 -4.74316 0)
(0.0158 -4.84302 0)
(0.0158 -4.94287 0)
(0.030968 -0.049928 0)
(0.030968 -0.149784 0)
(0.030968 -0.24964 0)
(0.030968 -0.349496 0)
(0.030968 -0.449352 0)
(0.030968 -0.549208 0)
(0.030968 -0.649064 0)
(0.030968 -0.74892 0)
(0.030968 -0.848776 0)
(0.030968 -0.948632 0)
(0.030968 -1.04849 0)
(0.030968 -1.14834 0)
(0.030968 -1.2482 0)
(0.030968 -1.34806 0)
(0.030968 -1.44791 0)
(0.030968 -1.54777 0)
(0.030968 -1.64762 0)
(0.030968 -1.74748 0)
(0.030968 -1.84734 0)
(0.030968 -1.94719 0)
(0.030968 -2.04705 0)
(0.030968 -2.1469 0)
(0.030968 -2.24676 0)
(0.030968 -2.34662 0)
(0.030968 -2.44647 0)
(0.030968 -2.54633 0)
(0.030968 -2.64618 0)
(0.030968 -2.74604 0)
(0.030968 -2.8459 0)
(0.030968 -2.94575 0)
(0.030968 -3.04561 0)
(0.030968 -3.14546 0)
(0.030968 -3.24532 0)
(0.030968 -3.34518 0)
(0.030968 -3.44503 0)
(0.030968 -3.54489 0)
(0.030968 -3.64474 0)
(0.030968 -3.7446 0)
(0.030968 -3.84446 0)
(0.030968 -3.94431 0)
(0.030968 -4.04417 0)
(0.030968 -4.14402 0)
(0.030968 -4.24388 0)
(0.030968 -4.34374 0)
(0.030968 -4.44359 0)
(0.030968 -4.54345 0)
(0.030968 -4.6433 0)
(0.030968 -4.74316 0)
(0.030968 -4.84302 0)
(0.030968 -4.94287 0)
(0.051192 -0.049928 0)
(0.051192 -0.149784 0)
(0.051192 -0.24964 0)
(0.051192 -0.349496 0)
(0.051192 -0.449352 0)
(0.051192 -0.549208 0)
(0.051192 -0.649064 0)
(0.051192 -0.74892 0)
(0.051192 -0.848776 0)
(0.051192 -0.948632 0)
(0.051192 -1.04849 0)
(0.051192 -1.14834 0)
(0.051192 -1.2482 0)
(0.051192 -1.34806 0)
(0.051192 -1.44791 0)
(0.051192 -1.54777 0)
(0.051192 -1.64762 0)
(0.051192 -1.74748 0)
(0.051192 -1.84734 0)
(0.051192 -1.94719 0)
(0.051192 -2.04705 0)
(0.051192 -2.1469 0)
(0.051192 -2.24676 0)
(0.051192 -2.34662 0)
(0.051192 -2.44647 0)
(0.051192 -2.54633 0)
(0.051192 -2.64618 0)
(0.051192 -2.74604 0)
(0.051192 -2.8459 0)
(0.051192 -2.94575 0)
(0.051192 -3.04561 0)
(0.051192 -3.14546 0)
(0.051192 -3.24532 0)
(0.051192 -3.34518 0)
(0.051192 -3.44503 0)
(0.051192 -3.54489 0)
(0.051192 -3.64474 0)
(0.051192 -3.7446 0)
(0.051192 -3.84446 0)
(0.051192 -3.94431 0)
(0.051192 -4.04417 0)
(0.051192 -4.14402 0)
(0.051192 -4.24388 0)
(0.051192 -4.34374 0)
(0.051192 -4.44359 0)
(0.051192 -4.54345 0)
(0.051192 -4.6433 0)
(0.051192 -4.74316 0)
(0.051192 -4.84302 0)
(0.051192 -4.94287 0)
(0.076472 -0.049928 0)
(0.076472 -0.149784 0)
(0.076472 -0.24964 0)
(0.076472 -0.349496 0)
(0.076472 -0.449352 0)
(0.076472 -0.549208 0)
(0.076472 -0.649064 0)
(0.076472 -0.74892 0)
(0.076472 -0.848776 0)
(0.076472 -0.948632 0)
(0.076472 -1.04849 0)
(0.076472 -1.14834 0)
(0.076472 -1.2482 0)
(0.076472 -1.34806 0)
(0.076472 -1.44791 0)
(0.076472 -1.54777 0)
(0.076472 -1.64762 0)
(0.076472 -1.74748 0)
(0.076472 -1.84734 0)
(0.076472 -1.94719 0)
(0.076472 -2.04705 0)
(0.076472 -2.1469 0)
(0.076472 -2.24676 0)
(0.076472 -2.34662 0)
(0.076472 -2.44647 0)
(0.076472 -2.54633 0)
(0.076472 -2.64618 0)
(0.076472 -2.74604 0)
(0.076472 -2.8459 0)
(0.076472 -2.94575 0)
(0.076472 -3.04561 0)
(0.076472 -3.14546 0)
(0.076472 -3.24532 0)
(0.076472 -3.34518 0)
(0.076472 -3.44503 0)
(0.076472 -3.54489 0)
(0.076472 -3.64474 0)
(0.076472 -3.7446 0)
(0.076472 -3.84446 0)
(0.076472 -3.94431 0)
(0.076472 -4.04417 0)
(0.076472 -4.14402 0)
(0.076472 -4.24388 0)
(0.076472 -4.34374 0)
(0.076472 -4.44359 0)
(0.076472 -4.54345 0)
(0.076472 -4.6433 0)
(0.076472 -4.74316 0)
(0.076472 -4.84302 0)
(0.076472 -4.94287 0)
(0.106808 -0.049928 0)
(0.106808 -0.149784 0)
(0.106808 -0.24964 0)
(0.106808 -0.349496 0)
(0.106808 -0.449352 0)
(0.106808 -0.549208 0)
(0.106808 -0.649064 0)
(0.106808 -0.74892 0)
(0.106808 -0.848776 0)
(0.106808 -0.948632 0)
(0.106808 -1.04849 0)
(0.106808 -1.14834 0)
(0.106808 -1.2482 0)
(0.106808 -1.34806 0)
(0.106808 -1.44791 0)
(0.106808 -1.54777 0)
(0.106808 -1.64762 0)
(0.106808 -1.74748 0)
(0.106808 -1.84734 0)
(0.106808 -1.94719 0)
(0.106808 -2.04705 0)
(0.106808 -2.1469 0)
(0.106808 -2.24676 0)
(0.106808 -2.34662 0)
(0.106808 -2.44647 0)
(0.106808 -2.54633 0)
(0.106808 -2.64618 0)
(0.106808 -2.74604 0)
(0.106808 -2.8459 0)
(0.106808 -2.94575 0)
(0.106808 -3.04561 0)
(0.106808 -3.14546 0)
(0.106808 -3.24532 0)
(0.106808 -3.34518 0)
(0.106808 -3.44503 0)
(0.106808 -3.54489 0)
(0.106808 -3.64474 0)
(0.106808 -3.7446 0)
(0.106808 -3.84446 0)
(0.106808 -3.94431 0)
(0.106808 -4.04417 0)
(0.106808 -4.14402 0)
(0.106808 -4.24388 0)
(0.106808 -4.34374 0)
(0.106808 -4.44359 0)
(0.106808 -4.54345 0)
(0.106808 -4.6433 0)
(0.106808 -4.74316 0)
(0.106808 -4.84302 0)
(0.106808 -4.94287 0)
(0.1422 -0.049928 0)
(0.1422 -0.149784 0)
(0.1422 -0.24964 0)
(0.1422 -0.349496 0)
(0.1422 -0.449352 0)
(0.1422 -0.549208 0)
(0.1422 -0.649064 0)
(0.1422 -0.74892 0)
(0.1422 -0.848776 0)
(0.1422 -0.948632 0)
(0.1422 -1.04849 0)
(0.1422 -1.14834 0)
(0.1422 -1.2482 0)
(0.1422 -1.34806 0)
(0.1422 -1.44791 0)
(0.1422 -1.54777 0)
(0.1422 -1.64762 0)
(0.1422 -1.74748 0)
(0.1422 -1.84734 0)
(0.1422 -1.94719 0)
(0.1422 -2.04705 0)
(0.1422 -2.1469 0)
(0.1422 -2.24676 0)
(0.1422 -2.34662 0)
(0.1422 -2.44647 0)
(0.1422 -2.54633 0)
(0.1422 -2.64618 0)
(0.1422 -2.74604 0)
(0.1422 -2.8459 0)
(0.1422 -2.94575 0)
(0.1422 -3.04561 0)
(0.1422 -3.14546 0)
(0.1422 -3.24532 0)
(0.1422 -3.34518 0)
(0.1422 -3.44503 0)
(0.1422 -3.54489 0)
(0.1422 -3.64474 0)
(0.1422 -3.7446 0)
(0.1422 -3.84446 0)
(0.1422 -3.94431 0)
(0.1422 -4.04417 0)
(0.1422 -4.14402 0)
(0.1422 -4.24388 0)
(0.1422 -4.34374 0)
(0.1422 -4.44359 0)
(0.1422 -4.54345 0)
(0.1422 -4.6433 0)
(0.1422 -4.74316 0)
(0.1422 -4.84302 0)
(0.1422 -4.94287 0)
(0.182648 -0.049928 0)
(0.182648 -0.149784 0)
(0.182648 -0.24964 0)
(0.182648 -0.349496 0)
(0.182648 -0.449352 0)
(0.182648 -0.549208 0)
(0.182648 -0.649064 0)
(0.182648 -0.74892 0)
(0.182648 -0.848776 0)
(0.182648 -0.948632 0)
(0.182648 -1.04849 0)
(0.182648 -1.14834 0)
(0.182648 -1.2482 0)
(0.182648 -1.34806 0)
(0.182648 -1.44791 0)
(0.182648 -1.54777 0)
(0.182648 -1.64762 0)
(0.182648 -1.74748 0)
(0.182648 -1.84734 0)
(0.182648 -1.94719 0)
(0.182648 -2.04705 0)
(0.182648 -2.1469 0)
(0.182648 -2.24676 0)
(0.182648 -2.34662 0)
(0.182648 -2.44647 0)
(0.182648 -2.54633 0)
(0.182648 -2.64618 0)
(0.182648 -2.74604 0)
(0.182648 -2.8459 0)
(0.182648 -2.94575 0)
(0.182648 -3.04561 0)
(0.182648 -3.14546 0)
(0.182648 -3.24532 0)
(0.182648 -3.34518 0)
(0.182648 -3.44503 0)
(0.182648 -3.54489 0)
(0.182648 -3.64474 0)
(0.182648 -3.7446 0)
(0.182648 -3.84446 0)
(0.182648 -3.94431 0)
(0.182648 -4.04417 0)
(0.182648 -4.14402 0)
(0.182648 -4.24388 0)
(0.182648 -4.34374 0)
(0.182648 -4.44359 0)
(0.182648 -4.54345 0)
(0.182648 -4.6433 0)
(0.182648 -4.74316 0)
(0.182648 -4.84302 0)
(0.182648 -4.94287 0)
(0.228152 -0.049928 0)
(0.228152 -0.149784 0)
(0.228152 -0.24964 0)
(0.228152 -0.349496 0)
(0.228152 -0.449352 0)
(0.228152 -0.549208 0)
(0.228152 -0.649064 0)
(0.228152 -0.74892 0)
(0.228152 -0.848776 0)
(0.228152 -0.948632 0)
(0.228152 -1.04849 0)
(0.228152 -1.14834 0)
(0.228152 -1.2482 0)
(0.228152 -1.34806 0)
(0.228152 -1.44791 0)
(0.228152 -1.54777 0)
(0.228152 -1.64762 0)
(0.228152 -1.74748 0)
(0.228152 -1.84734 0)
(0.228152 -1.94719 0)
(0.228152 -2.04705 0)
(0.228152 -2.1469 0)
(0.228152 -2.24676 0)
(0.228152 -2.34662 0)
(0.228152 -2.44647 0)
(0.228152 -2.54633 0)
(0.228152 -2.64618 0)
(0.228152 -2.74604 0)
(0.228152 -2.8459 0)
(0.228152 -2.94575 0)
(0.228152 -3.04561 0)
(0.228152 -3.14546 0)
(0.228152 -3.24532 0)
(0.228152 -3.34518 0)
(0.228152 -3.44503 0)
(0.228152 -3.54489 0)
(0.228152 -3.64474 0)
(0.228152 -3.7446 0)
(0.228152 -3.84446 0)
(0.228152 -3.94431 0)
(0.228152 -4.04417 0)
(0.228152 -4.14402 0)
(0.228152 -4.24388 0)
(0.228152 -4.34374 0)
(0.228152 -4.44359 0)
(0.228152 -4.54345 0)
(0.228152 -4.6433 0)
(0.228152 -4.74316 0)
(0.228152 -4.84302 0)
(0.228152 -4.94287 0)
(0.278712 -0.049928 0)
(0.278712 -0.149784 0)
(0.278712 -0.24964 0)
(0.278712 -0.349496 0)
(0.278712 -0.449352 0)
(0.278712 -0.549208 0)
(0.278712 -0.649064 0)
(0.278712 -0.74892 0)
(0.278712 -0.848776 0)
(0.278712 -0.948632 0)
(0.278712 -1.04849 0)
(0.278712 -1.14834 0)
(0.278712 -1.2482 0)
(0.278712 -1.34806 0)
(0.278712 -1.44791 0)
(0.278712 -1.54777 0)
(0.278712 -1.64762 0)
(0.278712 -1.74748 0)
(0.278712 -1.84734 0)
(0.278712 -1.94719 0)
(0.278712 -2.04705 0)
(0.278712 -2.1469 0)
(0.278712 -2.24676 0)
(0.278712 -2.34662 0)
(0.278712 -2.44647 0)
(0.278712 -2.54633 0)
(0.278712 -2.64618 0)
(0.278712 -2.74604 0)
(0.278712 -2.8459 0)
(0.278712 -2.94575 0)
(0.278712 -3.04561 0)
(0.278712 -3.14546 0)
(0.278712 -3.24532 0)
(0.278712 -3.34518 0)
(0.278712 -3.44503 0)
(0.278712 -3.54489 0)
(0.278712 -3.64474 0)
(0.278712 -3.7446 0)
(0.278712 -3.84446 0)
(0.278712 -3.94431 0)
(0.278712 -4.04417 0)
(0.278712 -4.14402 0)
(0.278712 -4.24388 0)
(0.278712 -4.34374 0)
(0.278712 -4.44359 0)
(0.278712 -4.54345 0)
(0.278712 -4.6433 0)
(0.278712 -4.74316 0)
(0.278712 -4.84302 0)
(0.278712 -4.94287 0)
(0.334328 -0.049928 0)
(0.334328 -0.149784 0)
(0.334328 -0.24964 0)
(0.334328 -0.349496 0)
(0.334328 -0.449352 0)
(0.334328 -0.549208 0)
(0.334328 -0.649064 0)
(0.334328 -0.74892 0)
(0.334328 -0.848776 0)
(0.334328 -0.948632 0)
(0.334328 -1.04849 0)
(0.334328 -1.14834 0)
(0.334328 -1.2482 0)
(0.334328 -1.34806 0)
(0.334328 -1.44791 0)
(0.334328 -1.54777 0)
(0.334328 -1.64762 0)
(0.334328 -1.74748 0)
(0.334328 -1.84734 0)
(0.334328 -1.94719 0)
(0.334328 -2.04705 0)
(0.334328 -2.1469 0)
(0.334328 -2.24676 0)
(0.334328 -2.34662 0)
(0.334328 -2.44647 0)
(0.334328 -2.54633 0)
(0.334328 -2.64618 0)
(0.334328 -2.74604 0)
(0.334328 -2.8459 0)
(0.334328 -2.94575 0)
(0.334328 -3.04561 0)
(0.334328 -3.14546 0)
(0.334328 -3.24532 0)
(0.334328 -3.34518 0)
(0.334328 -3.44503 0)
(0.334328 -3.54489 0)
(0.334328 -3.64474 0)
(0.334328 -3.7446 0)
(0.334328 -3.84446 0)
(0.334328 -3.94431 0)
(0.334328 -4.04417 0)
(0.334328 -4.14402 0)
(0.334328 -4.24388 0)
(0.334328 -4.34374 0)
(0.334328 -4.44359 0)
(0.334328 -4.54345 0)
(0.334328 -4.6433 0)
(0.334328 -4.74316 0)
(0.334328 -4.84302 0)
(0.334328 -4.94287 0)
(0.395 -0.049928 0)
(0.395 -0.149784 0)
(0.395 -0.24964 0)
(0.395 -0.349496 0)
(0.395 -0.449352 0)
(0.395 -0.549208 0)
(0.395 -0.649064 0)
(0.395 -0.74892 0)
(0.395 -0.848776 0)
(0.395 -0.948632 0)
(0.395 -1.04849 0)
(0.395 -1.14834 0)
(0.395 -1.2482 0)
(0.395 -1.34806 0)
(0.395 -1.44791 0)
(0.395 -1.54777 0)
(0.395 -1.64762 0)
(0.395 -1.74748 0)
(0.395 -1.84734 0)
(0.395 -1.94719 0)
(0.395 -2.04705 0)
(0.395 -2.1469 0)
(0.395 -2.24676 0)
(0.395 -2.34662 0)
(0.395 -2.44647 0)
(0.395 -2.54633 0)
(0.395 -2.64618 0)
(0.395 -2.74604 0)
(0.395 -2.8459 0)
(0.395 -2.94575 0)
(0.395 -3.04561 0)
(0.395 -3.14546 0)
(0.395 -3.24532 0)
(0.395 -3.34518 0)
(0.395 -3.44503 0)
(0.395 -3.54489 0)
(0.395 -3.64474 0)
(0.395 -3.7446 0)
(0.395 -3.84446 0)
(0.395 -3.94431 0)
(0.395 -4.04417 0)
(0.395 -4.14402 0)
(0.395 -4.24388 0)
(0.395 -4.34374 0)
(0.395 -4.44359 0)
(0.395 -4.54345 0)
(0.395 -4.6433 0)
(0.395 -4.74316 0)
(0.395 -4.84302 0)
(0.395 -4.94287 0)
(0.460728 -0.049928 0)
(0.460728 -0.149784 0)
(0.460728 -0.24964 0)
(0.460728 -0.349496 0)
(0.460728 -0.449352 0)
(0.460728 -0.549208 0)
(0.460728 -0.649064 0)
(0.460728 -0.74892 0)
(0.460728 -0.848776 0)
(0.460728 -0.948632 0)
(0.460728 -1.04849 0)
(0.460728 -1.14834 0)
(0.460728 -1.2482 0)
(0.460728 -1.34806 0)
(0.460728 -1.44791 0)
(0.460728 -1.54777 0)
(0.460728 -1.64762 0)
(0.460728 -1.74748 0)
(0.460728 -1.84734 0)
(0.460728 -1.94719 0)
(0.460728 -2.04705 0)
(0.460728 -2.1469 0)
(0.460728 -2.24676 0)
(0.460728 -2.34662 0)
(0.460728 -2.44647 0)
(0.460728 -2.54633 0)
(0.460728 -2.64618 0)
(0.460728 -2.74604 0)
(0.460728 -2.8459 0)
(0.460728 -2.94575 0)
(0.460728 -3.04561 0)
(0.460728 -3.14546 0)
(0.460728 -3.24532 0)
(0.460728 -3.34518 0)
(0.460728 -3.44503 0)
(0.460728 -3.54489 0)
(0.460728 -3.64474 0)
(0.460728 -3.7446 0)
(0.460728 -3.84446 0)
(0.460728 -3.94431 0)
(0.460728 -4.04417 0)
(0.460728 -4.14402 0)
(0.460728 -4.24388 0)
(0.460728 -4.34374 0)
(0.460728 -4.44359 0)
(0.460728 -4.54345 0)
(0.460728 -4.6433 0)
(0.460728 -4.74316 0)
(0.460728 -4.84302 0)
(0.460728 -4.94287 0)
(0.531512 -0.049928 0)
(0.531512 -0.149784 0)
(0.531512 -0.24964 0)
(0.531512 -0.349496 0)
(0.531512 -0.449352 0)
(0.531512 -0.549208 0)
(0.531512 -0.649064 0)
(0.531512 -0.74892 0)
(0.531512 -0.848776 0)
(0.531512 -0.948632 0)
(0.531512 -1.04849 0)
(0.531512 -1.14834 0)
(0.531512 -1.2482 0)
(0.531512 -1.34806 0)
(0.531512 -1.44791 0)
(0.531512 -1.54777 0)
(0.531512 -1.64762 0)
(0.531512 -1.74748 0)
(0.531512 -1.84734 0)
(0.531512 -1.94719 0)
(0.531512 -2.04705 0)
(0.531512 -2.1469 0)
(0.531512 -2.24676 0)
(0.531512 -2.34662 0)
(0.531512 -2.44647 0)
(0.531512 -2.54633 0)
(0.531512 -2.64618 0)
(0.531512 -2.74604 0)
(0.531512 -2.8459 0)
(0.531512 -2.94575 0)
(0.531512 -3.04561 0)
(0.531512 -3.14546 0)
(0.531512 -3.24532 0)
(0.531512 -3.34518 0)
(0.531512 -3.44503 0)
(0.531512 -3.54489 0)
(0.531512 -3.64474 0)
(0.531512 -3.7446 0)
(0.531512 -3.84446 0)
(0.531512 -3.94431 0)
(0.531512 -4.04417 0)
(0.531512 -4.14402 0)
(0.531512 -4.24388 0)
(0.531512 -4.34374 0)
(0.531512 -4.44359 0)
(0.531512 -4.54345 0)
(0.531512 -4.6433 0)
(0.531512 -4.74316 0)
(0.531512 -4.84302 0)
(0.531512 -4.94287 0)
(0.607352 -0.049928 0)
(0.607352 -0.149784 0)
(0.607352 -0.24964 0)
(0.607352 -0.349496 0)
(0.607352 -0.449352 0)
(0.607352 -0.549208 0)
(0.607352 -0.649064 0)
(0.607352 -0.74892 0)
(0.607352 -0.848776 0)
(0.607352 -0.948632 0)
(0.607352 -1.04849 0)
(0.607352 -1.14834 0)
(0.607352 -1.2482 0)
(0.607352 -1.34806 0)
(0.607352 -1.44791 0)
(0.607352 -1.54777 0)
(0.607352 -1.64762 0)
(0.607352 -1.74748 0)
(0.607352 -1.84734 0)
(0.607352 -1.94719 0)
(0.607352 -2.04705 0)
(0.607352 -2.1469 0)
(0.607352 -2.24676 0)
(0.607352 -2.34662 0)
(0.607352 -2.44647 0)
(0.607352 -2.54633 0)
(0.607352 -2.64618 0)
(0.607352 -2.74604 0)
(0.607352 -2.8459 0)
(0.607352 -2.94575 0)
(0.607352 -3.04561 0)
(0.607352 -3.14546 0)
(0.607352 -3.24532 0)
(0.607352 -3.34518 0)
(0.607352 -3.44503 0)
(0.607352 -3.54489 0)
(0.607352 -3.64474 0)
(0.607352 -3.7446 0)
(0.607352 -3.84446 0)
(0.607352 -3.94431 0)
(0.607352 -4.04417 0)
(0.607352 -4.14402 0)
(0.607352 -4.24388 0)
(0.607352 -4.34374 0)
(0.607352 -4.44359 0)
(0.607352 -4.54345 0)
(0.607352 -4.6433 0)
(0.607352 -4.74316 0)
(0.607352 -4.84302 0)
(0.607352 -4.94287 0)
(0.688248 -0.049928 0)
(0.688248 -0.149784 0)
(0.688248 -0.24964 0)
(0.688248 -0.349496 0)
(0.688248 -0.449352 0)
(0.688248 -0.549208 0)
(0.688248 -0.649064 0)
(0.688248 -0.74892 0)
(0.688248 -0.848776 0)
(0.688248 -0.948632 0)
(0.688248 -1.04849 0)
(0.688248 -1.14834 0)
(0.688248 -1.2482 0)
(0.688248 -1.34806 0)
(0.688248 -1.44791 0)
(0.688248 -1.54777 0)
(0.688248 -1.64762 0)
(0.688248 -1.74748 0)
(0.688248 -1.84734 0)
(0.688248 -1.94719 0)
(0.688248 -2.04705 0)
(0.688248 -2.1469 0)
(0.688248 -2.24676 0)
(0.688248 -2.34662 0)
(0.688248 -2.44647 0)
(0.688248 -2.54633 0)
(0.688248 -2.64618 0)
(0.688248 -2.74604 0)
(0.688248 -2.8459 0)
(0.688248 -2.94575 0)
(0.688248 -3.04561 0)
(0.688248 -3.14546 0)
(0.688248 -3.24532 0)
(0.688248 -3.34518 0)
(0.688248 -3.44503 0)
(0.688248 -3.54489 0)
(0.688248 -3.64474 0)
(0.688248 -3.7446 0)
(0.688248 -3.84446 0)
(0.688248 -3.94431 0)
(0.688248 -4.04417 0)
(0.688248 -4.14402 0)
(0.688248 -4.24388 0)
(0.688248 -4.34374 0)
(0.688248 -4.44359 0)
(0.688248 -4.54345 0)
(0.688248 -4.6433 0)
(0.688248 -4.74316 0)
(0.688248 -4.84302 0)
(0.688248 -4.94287 0)
(0.7742 -0.049928 0)
(0.7742 -0.149784 0)
(0.7742 -0.24964 0)
(0.7742 -0.349496 0)
(0.7742 -0.449352 0)
(0.7742 -0.549208 0)
(0.7742 -0.649064 0)
(0.7742 -0.74892 0)
(0.7742 -0.848776 0)
(0.7742 -0.948632 0)
(0.7742 -1.04849 0)
(0.7742 -1.14834 0)
(0.7742 -1.2482 0)
(0.7742 -1.34806 0)
(0.7742 -1.44791 0)
(0.7742 -1.54777 0)
(0.7742 -1.64762 0)
(0.7742 -1.74748 0)
(0.7742 -1.84734 0)
(0.7742 -1.94719 0)
(0.7742 -2.04705 0)
(0.7742 -2.1469 0)
(0.7742 -2.24676 0)
(0.7742 -2.34662 0)
(0.7742 -2.44647 0)
(0.7742 -2.54633 0)
(0.7742 -2.64618 0)
(0.7742 -2.74604 0)
(0.7742 -2.8459 0)
(0.7742 -2.94575 0)
(0.7742 -3.04561 0)
(0.7742 -3.14546 0)
(0.7742 -3.24532 0)
(0.7742 -3.34518 0)
(0.7742 -3.44503 0)
(0.7742 -3.54489 0)
(0.7742 -3.64474 0)
(0.7742 -3.7446 0)
(0.7742 -3.84446 0)
(0.7742 -3.94431 0)
(0.7742 -4.04417 0)
(0.7742 -4.14402 0)
(0.7742 -4.24388 0)
(0.7742 -4.34374 0)
(0.7742 -4.44359 0)
(0.7742 -4.54345 0)
(0.7742 -4.6433 0)
(0.7742 -4.74316 0)
(0.7742 -4.84302 0)
(0.7742 -4.94287 0)
(0.865208 -0.049928 0)
(0.865208 -0.149784 0)
(0.865208 -0.24964 0)
(0.865208 -0.349496 0)
(0.865208 -0.449352 0)
(0.865208 -0.549208 0)
(0.865208 -0.649064 0)
(0.865208 -0.74892 0)
(0.865208 -0.848776 0)
(0.865208 -0.948632 0)
(0.865208 -1.04849 0)
(0.865208 -1.14834 0)
(0.865208 -1.2482 0)
(0.865208 -1.34806 0)
(0.865208 -1.44791 0)
(0.865208 -1.54777 0)
(0.865208 -1.64762 0)
(0.865208 -1.74748 0)
(0.865208 -1.84734 0)
(0.865208 -1.94719 0)
(0.865208 -2.04705 0)
(0.865208 -2.1469 0)
(0.865208 -2.24676 0)
(0.865208 -2.34662 0)
(0.865208 -2.44647 0)
(0.865208 -2.54633 0)
(0.865208 -2.64618 0)
(0.865208 -2.74604 0)
(0.865208 -2.8459 0)
(0.865208 -2.94575 0)
(0.865208 -3.04561 0)
(0.865208 -3.14546 0)
(0.865208 -3.24532 0)
(0.865208 -3.34518 0)
(0.865208 -3.44503 0)
(0.865208 -3.54489 0)
(0.865208 -3.64474 0)
(0.865208 -3.7446 0)
(0.865208 -3.84446 0)
(0.865208 -3.94431 0)
(0.865208 -4.04417 0)
(0.865208 -4.14402 0)
(0.865208 -4.24388 0)
(0.865208 -4.34374 0)
(0.865208 -4.44359 0)
(0.865208 -4.54345 0)
(0.865208 -4.6433 0)
(0.865208 -4.74316 0)
(0.865208 -4.84302 0)
(0.865208 -4.94287 0)
(0.961272 -0.049928 0)
(0.961272 -0.149784 0)
(0.961272 -0.24964 0)
(0.961272 -0.349496 0)
(0.961272 -0.449352 0)
(0.961272 -0.549208 0)
(0.961272 -0.649064 0)
(0.961272 -0.74892 0)
(0.961272 -0.848776 0)
(0.961272 -0.948632 0)
(0.961272 -1.04849 0)
(0.961272 -1.14834 0)
(0.961272 -1.2482 0)
(0.961272 -1.34806 0)
(0.961272 -1.44791 0)
(0.961272 -1.54777 0)
(0.961272 -1.64762 0)
(0.961272 -1.74748 0)
(0.961272 -1.84734 0)
(0.961272 -1.94719 0)
(0.961272 -2.04705 0)
(0.961272 -2.1469 0)
(0.961272 -2.24676 0)
(0.961272 -2.34662 0)
(0.961272 -2.44647 0)
(0.961272 -2.54633 0)
(0.961272 -2.64618 0)
(0.961272 -2.74604 0)
(0.961272 -2.8459 0)
(0.961272 -2.94575 0)
(0.961272 -3.04561 0)
(0.961272 -3.14546 0)
(0.961272 -3.24532 0)
(0.961272 -3.34518 0)
(0.961272 -3.44503 0)
(0.961272 -3.54489 0)
(0.961272 -3.64474 0)
(0.961272 -3.7446 0)
(0.961272 -3.84446 0)
(0.961272 -3.94431 0)
(0.961272 -4.04417 0)
(0.961272 -4.14402 0)
(0.961272 -4.24388 0)
(0.961272 -4.34374 0)
(0.961272 -4.44359 0)
(0.961272 -4.54345 0)
(0.961272 -4.6433 0)
(0.961272 -4.74316 0)
(0.961272 -4.84302 0)
(0.961272 -4.94287 0)
(1.06239 -0.049928 0)
(1.06239 -0.149784 0)
(1.06239 -0.24964 0)
(1.06239 -0.349496 0)
(1.06239 -0.449352 0)
(1.06239 -0.549208 0)
(1.06239 -0.649064 0)
(1.06239 -0.74892 0)
(1.06239 -0.848776 0)
(1.06239 -0.948632 0)
(1.06239 -1.04849 0)
(1.06239 -1.14834 0)
(1.06239 -1.2482 0)
(1.06239 -1.34806 0)
(1.06239 -1.44791 0)
(1.06239 -1.54777 0)
(1.06239 -1.64762 0)
(1.06239 -1.74748 0)
(1.06239 -1.84734 0)
(1.06239 -1.94719 0)
(1.06239 -2.04705 0)
(1.06239 -2.1469 0)
(1.06239 -2.24676 0)
(1.06239 -2.34662 0)
(1.06239 -2.44647 0)
(1.06239 -2.54633 0)
(1.06239 -2.64618 0)
(1.06239 -2.74604 0)
(1.06239 -2.8459 0)
(1.06239 -2.94575 0)
(1.06239 -3.04561 0)
(1.06239 -3.14546 0)
(1.06239 -3.24532 0)
(1.06239 -3.34518 0)
(1.06239 -3.44503 0)
(1.06239 -3.54489 0)
(1.06239 -3.64474 0)
(1.06239 -3.7446 0)
(1.06239 -3.84446 0)
(1.06239 -3.94431 0)
(1.06239 -4.04417 0)
(1.06239 -4.14402 0)
(1.06239 -4.24388 0)
(1.06239 -4.34374 0)
(1.06239 -4.44359 0)
(1.06239 -4.54345 0)
(1.06239 -4.6433 0)
(1.06239 -4.74316 0)
(1.06239 -4.84302 0)
(1.06239 -4.94287 0)
(1.16857 -0.049928 0)
(1.16857 -0.149784 0)
(1.16857 -0.24964 0)
(1.16857 -0.349496 0)
(1.16857 -0.449352 0)
(1.16857 -0.549208 0)
(1.16857 -0.649064 0)
(1.16857 -0.74892 0)
(1.16857 -0.848776 0)
(1.16857 -0.948632 0)
(1.16857 -1.04849 0)
(1.16857 -1.14834 0)
(1.16857 -1.2482 0)
(1.16857 -1.34806 0)
(1.16857 -1.44791 0)
(1.16857 -1.54777 0)
(1.16857 -1.64762 0)
(1.16857 -1.74748 0)
(1.16857 -1.84734 0)
(1.16857 -1.94719 0)
(1.16857 -2.04705 0)
(1.16857 -2.1469 0)
(1.16857 -2.24676 0)
(1.16857 -2.34662 0)
(1.16857 -2.44647 0)
(1.16857 -2.54633 0)
(1.16857 -2.64618 0)
(1.16857 -2.74604 0)
(1.16857 -2.8459 0)
(1.16857 -2.94575 0)
(1.16857 -3.04561 0)
(1.16857 -3.14546 0)
(1.16857 -3.24532 0)
(1.16857 -3.34518 0)
(1.16857 -3.44503 0)
(1.16857 -3.54489 0)
(1.16857 -3.64474 0)
(1.16857 -3.7446 0)
(1.16857 -3.84446 0)
(1.16857 -3.94431 0)
(1.16857 -4.04417 0)
(1.16857 -4.14402 0)
(1.16857 -4.24388 0)
(1.16857 -4.34374 0)
(1.16857 -4.44359 0)
(1.16857 -4.54345 0)
(1.16857 -4.6433 0)
(1.16857 -4.74316 0)
(1.16857 -4.84302 0)
(1.16857 -4.94287 0)
(1.2798 -0.049928 0)
(1.2798 -0.149784 0)
(1.2798 -0.24964 0)
(1.2798 -0.349496 0)
(1.2798 -0.449352 0)
(1.2798 -0.549208 0)
(1.2798 -0.649064 0)
(1.2798 -0.74892 0)
(1.2798 -0.848776 0)
(1.2798 -0.948632 0)
(1.2798 -1.04849 0)
(1.2798 -1.14834 0)
(1.2798 -1.2482 0)
(1.2798 -1.34806 0)
(1.2798 -1.44791 0)
(1.2798 -1.54777 0)
(1.2798 -1.64762 0)
(1.2798 -1.74748 0)
(1.2798 -1.84734 0)
(1.2798 -1.94719 0)
(1.2798 -2.04705 0)
(1.2798 -2.1469 0)
(1.2798 -2.24676 0)
(1.2798 -2.34662 0)
(1.2798 -2.44647 0)
(1.2798 -2.54633 0)
(1.2798 -2.64618 0)
(1.2798 -2.74604 0)
(1.2798 -2.8459 0)
(1.2798 -2.94575 0)
(1.2798 -3.04561 0)
(1.2798 -3.14546 0)
(1.2798 -3.24532 0)
(1.2798 -3.34518 0)
(1.2798 -3.44503 0)
(1.2798 -3.54489 0)
(1.2798 -3.64474 0)
(1.2798 -3.7446 0)
(1.2798 -3.84446 0)
(1.2798 -3.94431 0)
(1.2798 -4.04417 0)
(1.2798 -4.14402 0)
(1.2798 -4.24388 0)
(1.2798 -4.34374 0)
(1.2798 -4.44359 0)
(1.2798 -4.54345 0)
(1.2798 -4.6433 0)
(1.2798 -4.74316 0)
(1.2798 -4.84302 0)
(1.2798 -4.94287 0)
(1.39609 -0.049928 0)
(1.39609 -0.149784 0)
(1.39609 -0.24964 0)
(1.39609 -0.349496 0)
(1.39609 -0.449352 0)
(1.39609 -0.549208 0)
(1.39609 -0.649064 0)
(1.39609 -0.74892 0)
(1.39609 -0.848776 0)
(1.39609 -0.948632 0)
(1.39609 -1.04849 0)
(1.39609 -1.14834 0)
(1.39609 -1.2482 0)
(1.39609 -1.34806 0)
(1.39609 -1.44791 0)
(1.39609 -1.54777 0)
(1.39609 -1.64762 0)
(1.39609 -1.74748 0)
(1.39609 -1.84734 0)
(1.39609 -1.94719 0)
(1.39609 -2.04705 0)
(1.39609 -2.1469 0)
(1.39609 -2.24676 0)
(1.39609 -2.34662 0)
(1.39609 -2.44647 0)
(1.39609 -2.54633 0)
(1.39609 -2.64618 0)
(1.39609 -2.74604 0)
(1.39609 -2.8459 0)
(1.39609 -2.94575 0)
(1.39609 -3.04561 0)
(1.39609 -3.14546 0)
(1.39609 -3.24532 0)
(1.39609 -3.34518 0)
(1.39609 -3.44503 0)
(1.39609 -3.54489 0)
(1.39609 -3.64474 0)
(1.39609 -3.7446 0)
(1.39609 -3.84446 0)
(1.39609 -3.94431 0)
(1.39609 -4.04417 0)
(1.39609 -4.14402 0)
(1.39609 -4.24388 0)
(1.39609 -4.34374 0)
(1.39609 -4.44359 0)
(1.39609 -4.54345 0)
(1.39609 -4.6433 0)
(1.39609 -4.74316 0)
(1.39609 -4.84302 0)
(1.39609 -4.94287 0)
(1.51743 -0.049928 0)
(1.51743 -0.149784 0)
(1.51743 -0.24964 0)
(1.51743 -0.349496 0)
(1.51743 -0.449352 0)
(1.51743 -0.549208 0)
(1.51743 -0.649064 0)
(1.51743 -0.74892 0)
(1.51743 -0.848776 0)
(1.51743 -0.948632 0)
(1.51743 -1.04849 0)
(1.51743 -1.14834 0)
(1.51743 -1.2482 0)
(1.51743 -1.34806 0)
(1.51743 -1.44791 0)
(1.51743 -1.54777 0)
(1.51743 -1.64762 0)
(1.51743 -1.74748 0)
(1.51743 -1.84734 0)
(1.51743 -1.94719 0)
(1.51743 -2.04705 0)
(1.51743 -2.1469 0)
(1.51743 -2.24676 0)
(1.51743 -2.34662 0)
(1.51743 -2.44647 0)
(1.51743 -2.54633 0)
(1.51743 -2.64618 0)
(1.51743 -2.74604 0)
(1.51743 -2.8459 0)
(1.51743 -2.94575 0)
(1.51743 -3.04561 0)
(1.51743 -3.14546 0)
(1.51743 -3.24532 0)
(1.51743 -3.34518 0)
(1.51743 -3.44503 0)
(1.51743 -3.54489 0)
(1.51743 -3.64474 0)
(1.51743 -3.7446 0)
(1.51743 -3.84446 0)
(1.51743 -3.94431 0)
(1.51743 -4.04417 0)
(1.51743 -4.14402 0)
(1.51743 -4.24388 0)
(1.51743 -4.34374 0)
(1.51743 -4.44359 0)
(1.51743 -4.54345 0)
(1.51743 -4.6433 0)
(1.51743 -4.74316 0)
(1.51743 -4.84302 0)
(1.51743 -4.94287 0)
(1.64383 -0.049928 0)
(1.64383 -0.149784 0)
(1.64383 -0.24964 0)
(1.64383 -0.349496 0)
(1.64383 -0.449352 0)
(1.64383 -0.549208 0)
(1.64383 -0.649064 0)
(1.64383 -0.74892 0)
(1.64383 -0.848776 0)
(1.64383 -0.948632 0)
(1.64383 -1.04849 0)
(1.64383 -1.14834 0)
(1.64383 -1.2482 0)
(1.64383 -1.34806 0)
(1.64383 -1.44791 0)
(1.64383 -1.54777 0)
(1.64383 -1.64762 0)
(1.64383 -1.74748 0)
(1.64383 -1.84734 0)
(1.64383 -1.94719 0)
(1.64383 -2.04705 0)
(1.64383 -2.1469 0)
(1.64383 -2.24676 0)
(1.64383 -2.34662 0)
(1.64383 -2.44647 0)
(1.64383 -2.54633 0)
(1.64383 -2.64618 0)
(1.64383 -2.74604 0)
(1.64383 -2.8459 0)
(1.64383 -2.94575 0)
(1.64383 -3.04561 0)
(1.64383 -3.14546 0)
(1.64383 -3.24532 0)
(1.64383 -3.34518 0)
(1.64383 -3.44503 0)
(1.64383 -3.54489 0)
(1.64383 -3.64474 0)
(1.64383 -3.7446 0)
(1.64383 -3.84446 0)
(1.64383 -3.94431 0)
(1.64383 -4.04417 0)
(1.64383 -4.14402 0)
(1.64383 -4.24388 0)
(1.64383 -4.34374 0)
(1.64383 -4.44359 0)
(1.64383 -4.54345 0)
(1.64383 -4.6433 0)
(1.64383 -4.74316 0)
(1.64383 -4.84302 0)
(1.64383 -4.94287 0)
(1.77529 -0.049928 0)
(1.77529 -0.149784 0)
(1.77529 -0.24964 0)
(1.77529 -0.349496 0)
(1.77529 -0.449352 0)
(1.77529 -0.549208 0)
(1.77529 -0.649064 0)
(1.77529 -0.74892 0)
(1.77529 -0.848776 0)
(1.77529 -0.948632 0)
(1.77529 -1.04849 0)
(1.77529 -1.14834 0)
(1.77529 -1.2482 0)
(1.77529 -1.34806 0)
(1.77529 -1.44791 0)
(1.77529 -1.54777 0)
(1.77529 -1.64762 0)
(1.77529 -1.74748 0)
(1.77529 -1.84734 0)
(1.77529 -1.94719 0)
(1.77529 -2.04705 0)
(1.77529 -2.1469 0)
(1.77529 -2.24676 0)
(1.77529 -2.34662 0)
(1.77529 -2.44647 0)
(1.77529 -2.54633 0)
(1.77529 -2.64618 0)
(1.77529 -2.74604 0)
(1.77529 -2.8459 0)
(1.77529 -2.94575 0)
(1.77529 -3.04561 0)
(1.77529 -3.14546 0)
(1.77529 -3.24532 0)
(1.77529 -3.34518 0)
(1.77529 -3.44503 0)
(1.77529 -3.54489 0)
(1.77529 -3.64474 0)
(1.77529 -3.7446 0)
(1.77529 -3.84446 0)
(1.77529 -3.94431 0)
(1.77529 -4.04417 0)
(1.77529 -4.14402 0)
(1.77529 -4.24388 0)
(1.77529 -4.34374 0)
(1.77529 -4.44359 0)
(1.77529 -4.54345 0)
(1.77529 -4.6433 0)
(1.77529 -4.74316 0)
(1.77529 -4.84302 0)
(1.77529 -4.94287 0)
(1.9118 -0.049928 0)
(1.9118 -0.149784 0)
(1.9118 -0.24964 0)
(1.9118 -0.349496 0)
(1.9118 -0.449352 0)
(1.9118 -0.549208 0)
(1.9118 -0.649064 0)
(1.9118 -0.74892 0)
(1.9118 -0.848776 0)
(1.9118 -0.948632 0)