/*--------------------------------*- C++ -*----------------------------------*\
| =========                 |                                                 |
| \\      /  F ield         | OpenFOAM: The Open Source CFD Toolbox           |
|  \\    /   O peration     | Version:  v2006                                 |
|   \\  /    A nd           | Website:  www.openfoam.com                      |
|    \\/     M anipulation  |                                                 |
\*---------------------------------------------------------------------------*/
FoamFile
{
    version     2.0;
    format      ascii;
    class       volScalarField;
    location    "7";
    object      p;
}
// * * * * * * * * * * * * * * * * * * * * * * * * * * * * * * * * * * * * * //

dimensions      [1 -1 -2 0 0 0 0];


internalField   nonuniform List<scalar> 
50000
(
23147.3
23147.1
23146.6
23146
23145.1
23144.1
23142.8
23141.3
23139.6
23137.6
23135.5
23133.2
23130.6
23127.9
23124.9
23121.8
23118.4
23114.9
23111.1
23107.2
23103.1
23098.8
23094.3
23089.6
23084.8
23079.8
23074.6
23069.3
23063.7
23058.1
23052.2
23046.2
23040.1
23033.8
23027.4
23020.8
23014
23007.2
23000.2
22993.1
22985.8
22978.5
22971
22963.4
22955.7
22947.9
22940
22932
22923.9
22915.7
22907.5
22899.2
22890.8
22882.3
22873.7
22865.2
22856.5
22847.9
22839.1
22830.4
22821.6
22812.8
22804
22795.2
22786.4
22777.5
22768.7
22759.9
22751.1
22742.4
22733.6
22724.9
22716.3
22707.7
22699.1
22690.6
22682.2
22673.9
22665.6
22657.4
22649.3
22641.2
22633.3
22625.5
22617.7
22610.1
22602.6
22595.2
22587.9
22580.8
22573.7
22566.8
22560.1
22553.4
22546.9
22540.6
22534.3
22528.2
22522.3
22516.5
22510.8
22505.3
22499.9
22494.7
22489.6
22484.7
22479.9
22475.3
22470.7
22466.4
22462.2
22458.1
22454.2
22450.4
22446.7
22443.2
22439.9
22436.6
22433.5
22430.6
22427.7
22425
22422.4
22419.9
22417.5
22415.3
22413.2
22411.1
22409.2
22407.4
22405.7
22404.1
22402.6
22401.2
22399.8
22398.6
22397.5
22396.5
22395.5
22394.6
22393.8
22393.1
22392.5
22392
22391.5
22391.1
22390.8
22390.6
22390.5
22390.4
22696.4
22696.2
22695.8
22695.1
22694.3
22693.2
22691.9
22690.4
22688.7
22686.7
22684.6
22682.3
22679.7
22677
22674
22670.9
22667.5
22664
22660.2
22656.3
22652.2
22647.9
22643.4
22638.7
22633.9
22628.9
22623.7
22618.3
22612.8
22607.1
22601.3
22595.3
22589.1
22582.8
22576.4
22569.8
22563
22556.2
22549.2
22542
22534.8
22527.4
22519.9
22512.3
22504.6
22496.8
22488.9
22480.9
22472.8
22464.6
22456.4
22448
22439.6
22431.1
22422.6
22414
22405.3
22396.6
22387.9
22379.2
22370.4
22361.6
22352.7
22343.9
22335.1
22326.2
22317.4
22308.6
22299.8
22291
22282.3
22273.6
22264.9
22256.3
22247.7
22239.2
22230.8
22222.4
22214.1
22205.9
22197.8
22189.8
22181.8
22174
22166.2
22158.6
22151.1
22143.7
22136.4
22129.3
22122.2
22115.3
22108.5
22101.9
22095.4
22089
22082.8
22076.7
22070.7
22064.9
22059.3
22053.7
22048.4
22043.1
22038
22033.1
22028.3
22023.7
22019.2
22014.9
22010.7
22006.6
22002.7
21998.9
21995.2
21991.7
21988.4
21985.1
21982
21979
21976.2
21973.5
21970.9
21968.4
21966
21963.8
21961.6
21959.6
21957.7
21955.9
21954.2
21952.6
21951
21949.6
21948.3
21947.1
21946
21944.9
21944
21943.1
21942.3
21941.6
21941
21940.4
21940
21939.6
21939.3
21939.1
21938.9
21938.8
22245.9
22245.7
22245.3
22244.6
22243.8
22242.7
22241.4
22239.9
22238.2
22236.2
22234.1
22231.8
22229.2
22226.5
22223.5
22220.3
22217
22213.4
22209.7
22205.8
22201.6
22197.3
22192.8
22188.2
22183.3
22178.3
22173.1
22167.7
22162.2
22156.5
22150.6
22144.6
22138.4
22132.1
22125.7
22119
22112.3
22105.4
22098.4
22091.3
22084
22076.6
22069.1
22061.5
22053.7
22045.9
22038
22029.9
22021.8
22013.6
22005.3
21997
21988.5
21980
21971.4
21962.8
21954.1
21945.4
21936.7
21927.9
21919.1
21910.3
21901.4
21892.5
21883.7
21874.8
21866
21857.1
21848.3
21839.5
21830.8
21822
21813.3
21804.7
21796.1
21787.6
21779.2
21770.8
21762.5
21754.2
21746.1
21738.1
21730.1
21722.2
21714.5
21706.9
21699.3
21691.9
21684.6
21677.5
21670.4
21663.5
21656.7
21650.1
21643.6
21637.2
21631
21624.9
21618.9
21613.1
21607.5
21601.9
21596.6
21591.3
21586.3
21581.3
21576.5
21571.9
21567.4
21563.1
21558.9
21554.8
21550.9
21547.1
21543.5
21540
21536.6
21533.4
21530.2
21527.3
21524.4
21521.7
21519.1
21516.6
21514.3
21512
21509.9
21507.8
21505.9
21504.1
21502.4
21500.8
21499.3
21497.9
21496.6
21495.3
21494.2
21493.2
21492.2
21491.3
21490.6
21489.9
21489.2
21488.7
21488.2
21487.9
21487.6
21487.4
21487.2
21487.1
21795.9
21795.7
21795.2
21794.6
21793.7
21792.6
21791.3
21789.8
21788.1
21786.1
21784
21781.6
21779.1
21776.3
21773.4
21770.2
21766.8
21763.3
21759.5
21755.6
21751.4
21747.1
21742.6
21737.9
21733
21728
21722.8
21717.4
21711.9
21706.1
21700.3
21694.2
21688
21681.7
21675.2
21668.6
21661.8
21654.9
21647.8
21640.7
21633.4
21626
21618.4
21610.8
21603
21595.1
21587.2
21579.1
21571
21562.7
21554.4
21546
21537.5
21529
21520.4
21511.7
21503
21494.3
21485.5
21476.7
21467.8
21458.9
21450
21441.2
21432.3
21423.4
21414.5
21405.6
21396.7
21387.9
21379.1
21370.4
21361.6
21353
21344.4
21335.8
21327.3
21318.9
21310.6
21302.4
21294.2
21286.1
21278.2
21270.3
21262.5
21254.9
21247.3
21239.9
21232.6
21225.4
21218.4
21211.5
21204.7
21198
21191.5
21185.1
21178.9
21172.8
21166.8
21161
21155.3
21149.8
21144.5
21139.2
21134.2
21129.2
21124.4
21119.8
21115.3
21111
21106.8
21102.7
21098.8
21095
21091.4
21087.9
21084.5
21081.3
21078.2
21075.2
21072.4
21069.6
21067
21064.6
21062.2
21060
21057.8
21055.8
21053.9
21052.1
21050.4
21048.8
21047.3
21045.9
21044.6
21043.4
21042.2
21041.2
21040.2
21039.4
21038.6
21037.9
21037.3
21036.7
21036.3
21035.9
21035.6
21035.4
21035.2
21035.1
21346.2
21346
21345.5
21344.9
21344
21342.9
21341.6
21340.1
21338.4
21336.4
21334.3
21331.9
21329.3
21326.6
21323.6
21320.4
21317
21313.5
21309.7
21305.7
21301.6
21297.2
21292.7
21288
21283.1
21278
21272.8
21267.4
21261.8
21256.1
21250.2
21244.1
21237.9
21231.5
21225
21218.4
21211.6
21204.6
21197.5
21190.3
21183
21175.5
21168
21160.3
21152.5
21144.6
21136.5
21128.4
21120.2
21112
21103.6
21095.1
21086.6
21078
21069.4
21060.7
21051.9
21043.1
21034.3
21025.4
21016.5
21007.6
20998.7
20989.7
20980.8
20971.8
20962.9
20954
20945.1
20936.2
20927.3
20918.5
20909.8
20901.1
20892.4
20883.9
20875.3
20866.9
20858.5
20850.3
20842.1
20834
20826
20818.1
20810.3
20802.6
20795.1
20787.6
20780.3
20773.1
20766.1
20759.1
20752.3
20745.7
20739.1
20732.7
20726.5
20720.4
20714.4
20708.6
20703
20697.4
20692.1
20686.9
20681.8
20676.8
20672.1
20667.4
20662.9
20658.6
20654.4
20650.3
20646.4
20642.7
20639
20635.5
20632.2
20628.9
20625.8
20622.9
20620
20617.3
20614.7
20612.2
20609.9
20607.6
20605.5
20603.5
20601.6
20599.8
20598.1
20596.5
20595
20593.6
20592.3
20591.1
20590
20589
20588
20587.2
20586.4
20585.7
20585.1
20584.6
20584.1
20583.7
20583.4
20583.2
20583.1
20583
20896.9
20896.7
20896.2
20895.6
20894.7
20893.6
20892.3
20890.8
20889
20887.1
20884.9
20882.5
20880
20877.2
20874.2
20871
20867.6
20864
20860.2
20856.2
20852.1
20847.7
20843.2
20838.4
20833.5
20828.4
20823.2
20817.7
20812.1
20806.4
20800.4
20794.3
20788.1
20781.7
20775.1
20768.4
20761.6
20754.6
20747.5
20740.2
20732.8
20725.3
20717.7
20710
20702.1
20694.1
20686.1
20677.9
20669.7
20661.3
20652.9
20644.4
20635.8
20627.1
20618.4
20609.7
20600.9
20592
20583.1
20574.2
20565.2
20556.2
20547.2
20538.2
20529.2
20520.2
20511.2
20502.2
20493.3
20484.3
20475.4
20466.6
20457.8
20449
20440.3
20431.7
20423.2
20414.7
20406.3
20398
20389.7
20381.6
20373.6
20365.7
20357.8
20350.1
20342.6
20335.1
20327.8
20320.5
20313.5
20306.5
20299.7
20293
20286.5
20280.1
20273.9
20267.7
20261.8
20256
20250.3
20244.8
20239.4
20234.2
20229.1
20224.2
20219.4
20214.8
20210.3
20205.9
20201.7
20197.7
20193.8
20190
20186.4
20182.9
20179.5
20176.3
20173.2
20170.3
20167.4
20164.7
20162.1
20159.7
20157.3
20155.1
20153
20151
20149.1
20147.3
20145.6
20144
20142.5
20141.1
20139.8
20138.6
20137.5
20136.5
20135.5
20134.7
20133.9
20133.2
20132.6
20132.1
20131.7
20131.3
20131
20130.8
20130.6
20130.5
20448
20447.8
20447.4
20446.7
20445.8
20444.7
20443.4
20441.9
20440.1
20438.1
20436
20433.6
20431
20428.2
20425.2
20421.9
20418.5
20414.9
20411.1
20407.1
20402.9
20398.5
20393.9
20389.2
20384.2
20379.1
20373.8
20368.4
20362.7
20356.9
20350.9
20344.8
20338.5
20332.1
20325.5
20318.7
20311.8
20304.8
20297.6
20290.3
20282.9
20275.3
20267.6
20259.8
20251.9
20243.9
20235.8
20227.5
20219.2
20210.8
20202.3
20193.7
20185.1
20176.4
20167.6
20158.7
20149.8
20140.9
20131.9
20122.9
20113.9
20104.8
20095.7
20086.7
20077.6
20068.5
20059.4
20050.4
20041.4
20032.4
20023.4
20014.5
20005.6
19996.8
19988.1
19979.4
19970.8
19962.2
19953.8
19945.4
19937.2
19929
19920.9
19913
19905.1
19897.4
19889.8
19882.3
19874.9
19867.7
19860.6
19853.6
19846.8
19840.1
19833.6
19827.2
19820.9
19814.8
19808.8
19803
19797.3
19791.8
19786.5
19781.2
19776.2
19771.2
19766.5
19761.8
19757.3
19753
19748.8
19744.8
19740.9
19737.1
19733.5
19730
19726.6
19723.4
19720.3
19717.4
19714.5
19711.8
19709.3
19706.8
19704.5
19702.2
19700.1
19698.1
19696.2
19694.5
19692.8
19691.2
19689.7
19688.4
19687.1
19685.9
19684.8
19683.8
19682.8
19682
19681.2
19680.6
19680
19679.4
19679
19678.6
19678.3
19678.1
19678
19677.9
19999.5
19999.3
19998.9
19998.2
19997.3
19996.2
19994.9
19993.3
19991.6
19989.6
19987.4
19985
19982.4
19979.5
19976.5
19973.3
19969.8
19966.2
19962.4
19958.3
19954.1
19949.7
19945.1
19940.3
19935.3
19930.2
19924.8
19919.3
19913.6
19907.8
19901.8
19895.6
19889.3
19882.8
19876.1
19869.3
19862.4
19855.3
19848
19840.7
19833.2
19825.5
19817.8
19809.9
19801.9
19793.8
19785.6
19777.3
19768.9
19760.4
19751.9
19743.2
19734.5
19725.6
19716.8
19707.8
19698.8
19689.8
19680.8
19671.7
19662.5
19653.4
19644.2
19635
19625.9
19616.7
19607.6
19598.4
19589.3
19580.3
19571.2
19562.2
19553.3
19544.4
19535.6
19526.8
19518.2
19509.6
19501.1
19492.7
19484.3
19476.1
19468
19460
19452.1
19444.4
19436.7
19429.2
19421.8
19414.6
19407.4
19400.5
19393.6
19386.9
19380.4
19373.9
19367.7
19361.6
19355.6
19349.8
19344.1
19338.6
19333.2
19328
19322.9
19318
19313.2
19308.6
19304.1
19299.8
19295.6
19291.5
19287.6
19283.9
19280.3
19276.8
19273.5
19270.2
19267.2
19264.2
19261.4
19258.7
19256.1
19253.7
19251.4
19249.1
19247
19245.1
19243.2
19241.4
19239.7
19238.2
19236.7
19235.3
19234.1
19232.9
19231.8
19230.8
19229.9
19229
19228.3
19227.6
19227
19226.5
19226.1
19225.7
19225.4
19225.2
19225.1
19225
19551.4
19551.2
19550.8
19550.1
19549.2
19548.1
19546.7
19545.2
19543.4
19541.4
19539.2
19536.8
19534.1
19531.3
19528.2
19525
19521.5
19517.8
19514
19509.9
19505.7
19501.2
19496.6
19491.7
19486.7
19481.5
19476.2
19470.6
19464.9
19459
19452.9
19446.7
19440.3
19433.7
19427
19420.2
19413.2
19406
19398.7
19391.3
19383.7
19376
19368.2
19360.2
19352.1
19343.9
19335.7
19327.3
19318.8
19310.2
19301.5
19292.7
19283.9
19275
19266
19257
19247.9
19238.8
19229.6
19220.4
19211.2
19201.9
19192.6
19183.4
19174.1
19164.8
19155.6
19146.4
19137.2
19128
19118.9
19109.8
19100.8
19091.8
19082.9
19074.1
19065.4
19056.7
19048.1
19039.7
19031.3
19023
19014.9
19006.8
18998.9
18991.1
18983.4
18975.9
18968.4
18961.2
18954
18947
18940.1
18933.4
18926.9
18920.4
18914.2
18908
18902
18896.2
18890.5
18885
18879.7
18874.4
18869.4
18864.4
18859.7
18855.1
18850.6
18846.3
18842.1
18838
18834.1
18830.4
18826.8
18823.3
18820
18816.8
18813.7
18810.8
18808
18805.3
18802.7
18800.3
18798
18795.8
18793.7
18791.7
18789.8
18788.1
18786.4
18784.9
18783.4
18782.1
18780.8
18779.6
18778.6
18777.6
18776.7
18775.8
18775.1
18774.4
18773.9
18773.4
18772.9
18772.6
18772.3
18772.1
18772
18771.9
19103.7
19103.5
19103.1
19102.4
19101.5
19100.4
19099
19097.4
19095.6
19093.6
19091.4
19089
19086.3
19083.4
19080.3
19077.1
19073.6
19069.9
19066
19061.9
19057.6
19053.1
19048.4
19043.5
19038.5
19033.2
19027.8
19022.2
19016.4
19010.5
19004.4
18998.1
18991.6
18985
18978.2
18971.3
18964.2
18957
18949.6
18942.1
18934.4
18926.6
18918.7
18910.7
18902.5
18894.2
18885.8
18877.3
18868.7
18860
18851.3
18842.4
18833.4
18824.4
18815.3
18806.2
18797
18787.7
18778.4
18769.1
18759.8
18750.4
18741
18731.6
18722.3
18712.9
18703.5
18694.2
18684.9
18675.6
18666.4
18657.2
18648.1
18639
18630.1
18621.1
18612.3
18603.6
18594.9
18586.4
18578
18569.6
18561.4
18553.3
18545.3
18537.5
18529.8
18522.2
18514.7
18507.4
18500.3
18493.2
18486.4
18479.6
18473
18466.6
18460.3
18454.2
18448.2
18442.4
18436.7
18431.2
18425.8
18420.6
18415.5
18410.6
18405.8
18401.2
18396.7
18392.4
18388.3
18384.2
18380.3
18376.6
18373
18369.5
18366.2
18363
18360
18357
18354.3
18351.6
18349
18346.6
18344.3
18342.1
18340.1
18338.1
18336.2
18334.5
18332.9
18331.3
18329.9
18328.5
18327.3
18326.1
18325.1
18324.1
18323.2
18322.4
18321.7
18321
18320.5
18320
18319.5
18319.2
18318.9
18318.7
18318.6
18318.5
18656.5
18656.2
18655.8
18655.1
18654.2
18653
18651.7
18650.1
18648.3
18646.2
18644
18641.5
18638.8
18635.9
18632.8
18629.5
18626
18622.2
18618.3
18614.2
18609.8
18605.3
18600.6
18595.7
18590.6
18585.3
18579.8
18574.1
18568.3
18562.3
18556.1
18549.7
18543.2
18536.5
18529.7
18522.7
18515.5
18508.2
18500.7
18493.1
18485.4
18477.5
18469.5
18461.3
18453.1
18444.7
18436.2
18427.6
18418.9
18410
18401.1
18392.2
18383.1
18373.9
18364.7
18355.4
18346.1
18336.7
18327.3
18317.8
18308.4
18298.9
18289.3
18279.8
18270.3
18260.8
18251.3
18241.9
18232.4
18223
18213.7
18204.4
18195.2
18186
18177
18168
18159
18150.2
18141.5
18132.9
18124.4
18116
18107.7
18099.5
18091.5
18083.6
18075.9
18068.2
18060.8
18053.4
18046.2
18039.2
18032.3
18025.5
18018.9
18012.5
18006.2
18000
17994
17988.2
17982.5
17977
17971.6
17966.4
17961.3
17956.4
17951.7
17947.1
17942.6
17938.3
17934.1
17930.1
17926.2
17922.5
17918.9
17915.5
17912.2
17909
17905.9
17903
17900.2
17897.6
17895.1
17892.7
17890.4
17888.2
17886.1
17884.2
17882.4
17880.6
17879
17877.5
17876.1
17874.8
17873.5
17872.4
17871.3
17870.4
17869.5
17868.7
17868
17867.4
17866.8
17866.3
17865.9
17865.6
17865.3
17865.1
17865
17864.9
18209.6
18209.4
18208.9
18208.2
18207.3
18206.1
18204.7
18203.1
18201.3
18199.2
18197
18194.5
18191.8
18188.8
18185.7
18182.3
18178.8
18175
18171
18166.8
18162.5
18157.9
18153.1
18148.1
18143
18137.6
18132.1
18126.4
18120.5
18114.4
18108.2
18101.7
18095.1
18088.4
18081.4
18074.4
18067.1
18059.7
18052.1
18044.4
18036.6
18028.6
18020.5
18012.2
18003.8
17995.3
17986.7
17978
17969.1
17960.2
17951.1
17942
17932.8
17923.5
17914.1
17904.7
17895.2
17885.7
17876.1
17866.5
17856.9
17847.2
17837.6
17827.9
17818.3
17808.6
17799
17789.4
17779.8
17770.3
17760.9
17751.4
17742.1
17732.8
17723.6
17714.5
17705.5
17696.6
17687.8
17679.1
17670.5
17662
17653.7
17645.5
17637.4
17629.4
17621.6
17614
17606.4
17599.1
17591.8
17584.8
17577.8
17571.1
17564.4
17558
17551.7
17545.5
17539.5
17533.7
17528
17522.5
17517.1
17511.9
17506.9
17502
17497.2
17492.6
17488.2
17483.9
17479.7
17475.7
17471.8
17468.1
17464.5
17461.1
17457.8
17454.6
17451.6
17448.7
17445.9
17443.3
17440.8
17438.4
17436.1
17434
17431.9
17430
17428.2
17426.5
17424.9
17423.4
17422
17420.7
17419.5
17418.4
17417.3
17416.4
17415.5
17414.8
17414.1
17413.4
17412.9
17412.4
17412
17411.7
17411.5
17411.3
17411.1
17411
17763.1
17762.9
17762.4
17761.7
17760.8
17759.6
17758.2
17756.6
17754.7
17752.6
17750.3
17747.8
17745.1
17742.1
17738.9
17735.5
17731.9
17728.1
17724.1
17719.9
17715.4
17710.8
17706
17701
17695.7
17690.3
17684.7
17679
17673
17666.9
17660.5
17654
17647.3
17640.5
17633.5
17626.3
17619
17611.5
17603.8
17596
17588
17579.9
17571.7
17563.3
17554.8
17546.1
17537.4
17528.5
17519.5
17510.4
17501.2
17492
17482.6
17473.2
17463.6
17454.1
17444.4
17434.7
17425
17415.2
17405.4
17395.6
17385.8
17375.9
17366.1
17356.3
17346.5
17336.8
17327.1
17317.4
17307.8
17298.3
17288.8
17279.4
17270.1
17260.9
17251.7
17242.7
17233.8
17225
17216.3
17207.8
17199.4
17191.1
17182.9
17174.9
17167.1
17159.3
17151.8
17144.4
17137.1
17130
17123.1
17116.3
17109.6
17103.2
17096.9
17090.7
17084.7
17078.9
17073.2
17067.7
17062.3
17057.1
17052.1
17047.2
17042.4
17037.8
17033.4
17029.1
17024.9
17021
17017.1
17013.4
17009.8
17006.4
17003.1
17000
16997
16994.1
16991.3
16988.7
16986.2
16983.8
16981.6
16979.5
16977.4
16975.5
16973.8
16972.1
16970.5
16969
16967.6
16966.4
16965.2
16964.1
16963.1
16962.2
16961.3
16960.6
16959.9
16959.3
16958.8
16958.3
16957.9
16957.6
16957.4
16957.2
16957.1
16957
17317.1
17316.8
17316.4
17315.6
17314.7
17313.5
17312.1
17310.4
17308.6
17306.4
17304.1
17301.5
17298.8
17295.8
17292.5
17289.1
17285.5
17281.6
17277.5
17273.3
17268.8
17264.1
17259.2
17254.1
17248.9
17243.4
17237.7
17231.9
17225.8
17219.6
17213.2
17206.6
17199.9
17192.9
17185.8
17178.5
17171.1
17163.5
17155.7
17147.8
17139.7
17131.5
17123.1
17114.6
17105.9
17097.2
17088.2
17079.2
17070.1
17060.8
17051.5
17042
17032.5
17022.9
17013.2
17003.4
16993.6
16983.7
16973.8
16963.8
16953.9
16943.9
16933.9
16923.9
16913.9
16903.9
16893.9
16884
16874.1
16864.3
16854.5
16844.8
16835.2
16825.7
16816.2
16806.9
16797.6
16788.5
16779.5
16770.6
16761.8
16753.2
16744.7
16736.3
16728.1
16720.1
16712.1
16704.4
16696.8
16689.3
16682
16674.9
16667.9
16661.1
16654.5
16648
16641.7
16635.5
16629.5
16623.7
16618
16612.5
16607.2
16602
16596.9
16592
16587.3
16582.7
16578.3
16574
16569.9
16565.9
16562
16558.4
16554.8
16551.4
16548.1
16545
16542
16539.1
16536.4
16533.8
16531.3
16529
16526.8
16524.6
16522.7
16520.8
16519
16517.3
16515.8
16514.3
16513
16511.7
16510.6
16509.5
16508.5
16507.6
16506.8
16506.1
16505.5
16504.9
16504.4
16503.9
16503.6
16503.3
16503
16502.9
16502.7
16502.6
16871.4
16871.2
16870.7
16870
16869
16867.8
16866.4
16864.7
16862.8
16860.6
16858.3
16855.7
16852.9
16849.8
16846.5
16843.1
16839.4
16835.5
16831.3
16827
16822.5
16817.7
16812.8
16807.6
16802.3
16796.8
16791
16785.1
16779
16772.7
16766.2
16759.5
16752.7
16745.6
16738.4
16731
16723.5
16715.8
16707.9
16699.8
16691.6
16683.3
16674.7
16666.1
16657.3
16648.3
16639.3
16630.1
16620.8
16611.3
16601.8
16592.2
16582.5
16572.6
16562.8
16552.8
16542.8
16532.7
16522.6
16512.4
16502.3
16492.1
16481.9
16471.7
16461.5
16451.3
16441.2
16431
16421
16411
16401.1
16391.2
16381.4
16371.7
16362.1
16352.6
16343.3
16334
16324.9
16315.9
16307
16298.3
16289.7
16281.3
16273
16264.8
16256.9
16249.1
16241.4
16233.9
16226.6
16219.4
16212.5
16205.6
16199
16192.5
16186.2
16180
16174
16168.2
16162.5
16157
16151.6
16146.5
16141.4
16136.5
16131.8
16127.2
16122.8
16118.6
16114.4
16110.5
16106.7
16103
16099.4
16096.1
16092.8
16089.7
16086.7
16083.9
16081.2
16078.6
16076.1
16073.8
16071.6
16069.5
16067.6
16065.7
16064
16062.3
16060.8
16059.4
16058.1
16056.8
16055.7
16054.7
16053.7
16052.9
16052.1
16051.4
16050.8
16050.2
16049.7
16049.3
16049
16048.7
16048.5
16048.3
16048.2
16048.1
16426.2
16425.9
16425.5
16424.7
16423.7
16422.5
16421
16419.3
16417.4
16415.2
16412.8
16410.2
16407.3
16404.2
16400.9
16397.4
16393.7
16389.7
16385.5
16381.1
16376.5
16371.7
16366.7
16361.5
16356.1
16350.5
16344.7
16338.7
16332.5
16326.1
16319.5
16312.8
16305.8
16298.7
16291.3
16283.9
16276.2
16268.3
16260.3
16252.1
16243.8
16235.3
16226.6
16217.8
16208.8
16199.7
16190.5
16181.1
16171.6
16162
16152.3
16142.4
16132.5
16122.5
16112.4
16102.2
16092
16081.7
16071.4
16061
16050.6
16040.2
16029.8
16019.3
16008.9
15998.5
15988.2
15977.9
15967.6
15957.4
15947.3
15937.3
15927.3
15917.5
15907.7
15898.1
15888.6
15879.2
15869.9
15860.8
15851.8
15843
15834.3
15825.8
15817.4
15809.2
15801.2
15793.3
15785.6
15778.1
15770.8
15763.6
15756.6
15749.7
15743.1
15736.6
15730.3
15724.1
15718.1
15712.3
15706.6
15701.1
15695.8
15690.6
15685.6
15680.7
15676
15671.4
15667
15662.8
15658.7
15654.7
15650.9
15647.3
15643.7
15640.4
15637.1
15634.1
15631.1
15628.3
15625.6
15623
15620.6
15618.3
15616.1
15614.1
15612.1
15610.3
15608.6
15607
15605.5
15604.1
15602.8
15601.7
15600.6
15599.6
15598.7
15597.8
15597.1
15596.4
15595.8
15595.3
15594.8
15594.5
15594.1
15593.9
15593.7
15593.5
15593.4
15593.3
15981.4
15981.1
15980.6
15979.9
15978.9
15977.6
15976.1
15974.4
15972.4
15970.2
15967.8
15965.1
15962.2
15959
15955.7
15952.1
15948.3
15944.3
15940.1
15935.6
15930.9
15926.1
15921
15915.7
15910.2
15904.6
15898.7
15892.6
15886.3
15879.8
15873.2
15866.3
15859.2
15852
15844.6
15836.9
15829.1
15821.2
15813
15804.7
15796.2
15787.5
15778.7
15769.7
15760.6
15751.3
15741.9
15732.3
15722.6
15712.8
15702.8
15692.8
15682.6
15672.4
15662.1
15651.7
15641.2
15630.7
15620.1
15609.5
15598.8
15588.2
15577.5
15566.9
15556.2
15545.6
15535
15524.5
15514
15503.6
15493.3
15483.1
15472.9
15462.9
15453
15443.2
15433.5
15424
15414.6
15405.3
15396.2
15387.3
15378.5
15369.9
15361.5
15353.2
15345.1
15337.2
15329.5
15321.9
15314.5
15307.3
15300.3
15293.5
15286.8
15280.3
15274
15267.8
15261.8
15256
15250.3
15244.8
15239.5
15234.4
15229.3
15224.5
15219.8
15215.3
15210.9
15206.6
15202.6
15198.6
15194.8
15191.2
15187.7
15184.3
15181.1
15178.1
15175.1
15172.3
15169.7
15167.1
15164.7
15162.5
15160.3
15158.3
15156.4
15154.6
15152.9
15151.4
15149.9
15148.6
15147.3
15146.2
15145.1
15144.2
15143.3
15142.5
15141.8
15141.2
15140.6
15140.1
15139.7
15139.3
15139
15138.8
15138.6
15138.5
15138.4
15138.3
15537
15536.7
15536.2
15535.5
15534.4
15533.1
15531.6
15529.9
15527.8
15525.6
15523.1
15520.4
15517.4
15514.2
15510.8
15507.2
15503.3
15499.2
15495
15490.4
15485.7
15480.8
15475.6
15470.3
15464.7
15459
15453
15446.8
15440.4
15433.9
15427.1
15420.1
15413
15405.6
15398.1
15390.3
15382.4
15374.3
15366
15357.5
15348.9
15340
15331
15321.9
15312.5
15303.1
15293.4
15283.7
15273.7
15263.7
15253.5
15243.3
15232.9
15222.4
15211.8
15201.1
15190.4
15179.6
15168.8
15157.9
15147
15136.1
15125.2
15114.3
15103.4
15092.5
15081.7
15070.9
15060.2
15049.6
15039
15028.6
15018.2
15008
14997.9
14987.9
14978
14968.4
14958.8
14949.4
14940.2
14931.2
14922.3
14913.6
14905.1
14896.7
14888.6
14880.6
14872.8
14865.3
14857.8
14850.6
14843.6
14836.7
14830.1
14823.6
14817.2
14811.1
14805.1
14799.3
14793.7
14788.2
14782.9
14777.7
14772.7
14767.9
14763.2
14758.7
14754.3
14750.1
14746
14742.1
14738.4
14734.7
14731.3
14727.9
14724.7
14721.7
14718.8
14716
14713.4
14710.9
14708.5
14706.3
14704.2
14702.2
14700.3
14698.5
14696.9
14695.4
14694
14692.7
14691.5
14690.4
14689.4
14688.5
14687.6
14686.9
14686.2
14685.7
14685.1
14684.7
14684.3
14684
14683.7
14683.5
14683.3
14683.2
14683.1
14683.1
15093
15092.8
15092.2
15091.5
15090.4
15089.1
15087.5
15085.7
15083.7
15081.4
15078.8
15076.1
15073
15069.8
15066.3
15062.6
15058.7
15054.6
15050.2
15045.6
15040.8
15035.8
15030.6
15025.2
15019.5
15013.7
15007.6
15001.4
14994.9
14988.2
14981.4
14974.3
14967
14959.6
14951.9
14944
14936
14927.7
14919.2
14910.6
14901.8
14892.8
14883.6
14874.2
14864.7
14855
14845.2
14835.2
14825
14814.8
14804.3
14793.8
14783.2
14772.4
14761.6
14750.6
14739.6
14728.6
14717.4
14706.3
14695.1
14683.9
14672.7
14661.5
14650.3
14639.2
14628.1
14617
14606.1
14595.2
14584.4
14573.7
14563.1
14552.7
14542.4
14532.2
14522.2
14512.3
14502.6
14493.1
14483.8
14474.6
14465.6
14456.8
14448.2
14439.8
14431.6
14423.6
14415.8
14408.1
14400.7
14393.5
14386.4
14379.6
14372.9
14366.4
14360.1
14353.9
14348
14342.2
14336.6
14331.1
14325.8
14320.7
14315.7
14310.9
14306.3
14301.8
14297.4
14293.2
14289.2
14285.3
14281.5
14277.9
14274.5
14271.1
14268
14265
14262.1
14259.3
14256.7
14254.2
14251.9
14249.7
14247.6
14245.7
14243.8
14242.1
14240.5
14239.1
14237.7
14236.5
14235.3
14234.3
14233.3
14232.4
14231.7
14231
14230.4
14229.9
14229.4
14229
14228.7
14228.4
14228.2
14228
14227.9
14227.8
14227.7
14227.6
14649.4
14649.2
14648.7
14647.9
14646.8
14645.4
14643.8
14642
14639.9
14637.5
14635
14632.1
14629.1
14625.8
14622.2
14618.5
14614.5
14610.3
14605.8
14601.2
14596.3
14591.2
14585.9
14580.4
14574.7
14568.8
14562.6
14556.3
14549.7
14542.9
14536
14528.8
14521.4
14513.8
14506
14498
14489.8
14481.4
14472.8
14464
14455
14445.8
14436.4
14426.9
14417.1
14407.2
14397.1
14386.9
14376.5
14366
14355.3
14344.5
14333.5
14322.5
14311.4
14300.1
14288.8
14277.5
14266
14254.6
14243.1
14231.5
14220
14208.5
14197
14185.6
14174.2
14162.9
14151.6
14140.5
14129.4
14118.5
14107.7
14097
14086.5
14076.1
14065.9
14055.8
14046
14036.3
14026.8
14017.5
14008.4
13999.5
13990.8
13982.4
13974.1
13966
13958.2
13950.5
13943.1
13935.8
13928.8
13921.9
13915.2
13908.8
13902.5
13896.3
13890.4
13884.6
13879.1
13873.6
13868.4
13863.2
13858.3
13853.5
13848.9
13844.4
13840.1
13835.9
13831.9
13828
13824.2
13820.7
13817.2
13813.9
13810.8
13807.8
13804.9
13802.2
13799.7
13797.2
13794.9
13792.8
13790.7
13788.8
13787
13785.4
13783.8
13782.4
13781.1
13779.9
13778.8
13777.8
13776.9
13776.1
13775.4
13774.8
13774.3
13773.8
13773.4
13773.1
13772.8
13772.6
13772.4
13772.2
13772.1
13772.1
13772
13771.9
14206.3
14206.1
14205.5
14204.7
14203.6
14202.2
14200.6
14198.7
14196.5
14194.1
14191.5
14188.6
14185.4
14182.1
14178.5
14174.6
14170.6
14166.3
14161.8
14157.1
14152.1
14147
14141.6
14136
14130.2
14124.2
14117.9
14111.5
14104.8
14098
14090.9
14083.6
14076.1
14068.4
14060.4
14052.3
14043.9
14035.4
14026.6
14017.6
14008.4
13999.1
13989.5
13979.7
13969.7
13959.6
13949.3
13938.8
13928.1
13917.3
13906.3
13895.2
13884
13872.7
13861.2
13849.6
13838
13826.3
13814.6
13802.7
13790.9
13779
13767.2
13755.3
13743.5
13731.8
13720.1
13708.4
13696.9
13685.4
13674.1
13662.9
13651.8
13640.9
13630.1
13619.5
13609.1
13598.8
13588.8
13578.9
13569.3
13559.9
13550.7
13541.7
13532.9
13524.4
13516
13507.9
13500
13492.4
13484.9
13477.6
13470.6
13463.7
13457.1
13450.6
13444.4
13438.3
13432.4
13426.6
13421.1
13415.7
13410.4
13405.4
13400.4
13395.7
13391.1
13386.6
13382.3
13378.1
13374.1
13370.3
13366.6
13363
13359.6
13356.3
13353.2
13350.2
13347.4
13344.7
13342.2
13339.8
13337.5
13335.4
13333.4
13331.5
13329.8
13328.2
13326.7
13325.3
13324.1
13322.9
13321.9
13321
13320.2
13319.5
13318.8
13318.3
13317.8
13317.5
13317.1
13316.9
13316.7
13316.5
13316.4
13316.3
13316.2
13316.2
13316.1
13316.1
13763.6
13763.4
13762.8
13762
13760.8
13759.4
13757.7
13755.7
13753.5
13751.1
13748.4
13745.4
13742.2
13738.8
13735.1
13731.2
13727
13722.7
13718.1
13713.3
13708.3
13703
13697.6
13691.9
13686
13679.9
13673.6
13667.1
13660.3
13653.3
13646.1
13638.7
13631.1
13623.3
13615.2
13606.9
13598.4
13589.7
13580.7
13571.6
13562.2
13552.6
13542.8
13532.8
13522.6
13512.2
13501.6
13490.8
13479.9
13468.8
13457.5
13446.1
13434.5
13422.8
13411.1
13399.2
13387.2
13375.1
13363
13350.8
13338.6
13326.3
13314.1
13301.9
13289.8
13277.6
13265.6
13253.6
13241.7
13230
13218.3
13206.8
13195.4
13184.2
13173.2
13162.4
13151.7
13141.3
13131
13121
13111.2
13101.7
13092.4
13083.3
13074.4
13065.8
13057.4
13049.2
13041.3
13033.6
13026.2
13018.9
13011.9
13005
12998.4
12992
12985.8
12979.7
12973.8
12968.2
12962.6
12957.3
12952.1
12947
12942.1
12937.4
12932.8
12928.4
12924.1
12919.9
12916
12912.1
12908.4
12904.9
12901.5
12898.3
12895.2
12892.2
12889.4
12886.8
12884.3
12881.9
12879.7
12877.6
12875.7
12873.8
12872.2
12870.6
12869.2
12867.9
12866.7
12865.6
12864.7
12863.8
12863.1
12862.5
12861.9
12861.5
12861.1
12860.8
12860.6
12860.4
12860.3
12860.2
12860.1
12860.1
12860.1
12860.1
12860.1
12860
13321.3
13321.1
13320.5
13319.7
13318.5
13317
13315.2
13313.2
13310.9
13308.4
13305.6
13302.6
13299.3
13295.8
13292
13288.1
13283.8
13279.4
13274.7
13269.9
13264.8
13259.4
13253.9
13248.1
13242.2
13236
13229.6
13222.9
13216.1
13209
13201.7
13194.2
13186.4
13178.5
13170.3
13161.8
13153.2
13144.3
13135.1
13125.8
13116.2
13106.4
13096.4
13086.1
13075.7
13065
13054.2
13043.1
13031.8
13020.4
13008.8
12997
12985.1
12973.1
12960.9
12948.7
12936.3
12923.8
12911.3
12898.8
12886.2
12873.4
12860.8
12848.2
12835.7
12823.2
12810.8
12798.4
12786.2
12774
12762.1
12750.2
12738.5
12727.1
12715.8
12704.7
12693.8
12683.1
12672.7
12662.5
12652.5
12642.8
12633.4
12624.2
12615.2
12606.5
12598.1
12589.9
12582
12574.3
12566.8
12559.6
12552.6
12545.8
12539.2
12532.8
12526.6
12520.6
12514.8
12509.2
12503.7
12498.4
12493.2
12488.2
12483.3
12478.6
12474.1
12469.7
12465.4
12461.3
12457.3
12453.5
12449.8
12446.3
12442.9
12439.7
12436.6
12433.7
12431
12428.3
12425.9
12423.6
12421.4
12419.4
12417.5
12415.7
12414.1
12412.6
12411.2
12410
12408.9
12407.9
12407
12406.3
12405.7
12405.1
12404.7
12404.4
12404.1
12403.9
12403.8
12403.7
12403.7
12403.7
12403.7
12403.7
12403.8
12403.8
12403.8
12403.8
12879.5
12879.3
12878.7
12877.8
12876.5
12875
12873.2
12871.1
12868.7
12866.1
12863.3
12860.1
12856.8
12853.2
12849.3
12845.3
12841
12836.5
12831.7
12826.7
12821.6
12816.2
12810.5
12804.7
12798.6
12792.4
12785.8
12779.1
12772.2
12765
12757.6
12750
12742.1
12734
12725.6
12717.1
12708.2
12699.2
12689.9
12680.3
12670.5
12660.5
12650.2
12639.7
12629
12618.1
12606.9
12595.5
12584
12572.2
12560.2
12548.1
12535.8
12523.4
12510.8
12498.1
12485.3
12472.5
12459.5
12446.5
12433.5
12420.4
12407.3
12394.3
12381.3
12368.4
12355.5
12342.8
12330.1
12317.6
12305.3
12293.1
12281.1
12269.3
12257.7
12246.3
12235.2
12224.3
12213.6
12203.2
12193.1
12183.3
12173.7
12164.4
12155.4
12146.6
12138.1
12129.9
12122
12114.3
12106.8
12099.6
12092.6
12085.9
12079.4
12073
12066.9
12061
12055.2
12049.6
12044.2
12038.9
12033.8
12028.9
12024.1
12019.4
12014.9
12010.5
12006.2
12002.1
11998.2
11994.4
11990.7
11987.2
11983.8
11980.6
11977.6
11974.7
11972
11969.4
11967
11964.7
11962.6
11960.6
11958.8
11957.1
11955.5
11954.1
11952.8
11951.7
11950.7
11949.8
11949
11948.3
11947.8
11947.4
11947.1
11946.9
11946.8
11946.7
11946.7
11946.8
11946.9
11947
11947.1
11947.2
11947.3
11947.4
11947.5
11947.5
12438.1
12437.9
12437.3
12436.3
12435
12433.4
12431.5
12429.3
12426.9
12424.2
12421.3
12418.1
12414.6
12410.9
12407
12402.8
12398.4
12393.8
12389
12383.9
12378.7
12373.2
12367.5
12361.5
12355.4
12349
12342.4
12335.6
12328.6
12321.3
12313.8
12306
12298.1
12289.8
12281.3
12272.6
12263.6
12254.4
12244.9
12235.1
12225.1
12214.9
12204.4
12193.6
12182.6
12171.4
12159.9
12148.2
12136.3
12124.1
12111.8
12099.3
12086.6
12073.7
12060.7
12047.6
12034.3
12021
12007.6
11994.1
11980.6
11967.1
11953.5
11940
11926.6
11913.2
11899.9
11886.7
11873.6
11860.7
11848
11835.4
11823
11810.9
11799
11787.3
11775.9
11764.7
11753.8
11743.2
11732.9
11722.9
11713.2
11703.8
11694.7
11685.9
11677.4
11669.2
11661.2
11653.5
11646.1
11639
11632
11625.4
11618.9
11612.7
11606.6
11600.7
11595.1
11589.5
11584.2
11579
11573.9
11569
11564.2
11559.6
11555.1
11550.7
11546.5
11542.4
11538.5
11534.7
11531
11527.5
11524.2
11521
11518
11515.1
11512.4
11509.9
11507.5
11505.3
11503.3
11501.4
11499.6
11498
11496.5
11495.1
11493.9
11492.9
11491.9
11491.1
11490.5
11490
11489.6
11489.3