/*--------------------------------*- C++ -*----------------------------------*\
| =========                 |                                                 |
| \\      /  F ield         | OpenFOAM: The Open Source CFD Toolbox           |
|  \\    /   O peration     | Version:  v2006                                 |
|   \\  /    A nd           | Website:  www.openfoam.com                      |
|    \\/     M anipulation  |                                                 |
\*---------------------------------------------------------------------------*/
FoamFile
{
    version     2.0;
    format      ascii;
    class       volVectorField;
    location    "7";
    object      U;
}
// * * * * * * * * * * * * * * * * * * * * * * * * * * * * * * * * * * * * * //

dimensions      [0 1 -1 0 0 0 0];


internalField   nonuniform List<vector> 
50000
(
(0.000876657 -0.00213071 0)
(0.00346034 -0.00349524 0)
(0.00763995 -0.00308754 0)
(0.00967588 -0.00297985 0)
(0.0131668 -0.00286533 0)
(0.0154745 -0.00286385 0)
(0.018526 -0.0027771 0)
(0.0210491 -0.0027325 0)
(0.0237417 -0.00264545 0)
(0.0262796 -0.00257036 0)
(0.0287545 -0.0024836 0)
(0.0311487 -0.00238973 0)
(0.0334514 -0.00228987 0)
(0.0356556 -0.00218214 0)
(0.0377524 -0.00206422 0)
(0.0397349 -0.00193883 0)
(0.0415972 -0.00180649 0)
(0.0433306 -0.00166632 0)
(0.0449271 -0.0015198 0)
(0.0463799 -0.00136754 0)
(0.0476903 -0.00120714 0)
(0.048841 -0.00104345 0)
(0.0498234 -0.000875017 0)
(0.0506462 -0.000703586 0)
(0.0512997 -0.000528038 0)
(0.0517799 -0.000352181 0)
(0.052078 -0.000173402 0)
(0.0522026 5.90375e-06 0)
(0.052143 0.000175405 0)
(0.051894 0.000351723 0)
(0.0514737 0.000522717 0)
(0.0508748 0.00069142 0)
(0.0500964 0.000856841 0)
(0.0491518 0.00102023 0)
(0.0480375 0.00117474 0)
(0.0467453 0.001324 0)
(0.0452952 0.00146921 0)
(0.0436926 0.00161478 0)
(0.0419338 0.00175241 0)
(0.0400327 0.00189402 0)
(0.0379718 0.00204259 0)
(0.0357554 0.00220272 0)
(0.0333801 0.00236351 0)
(0.0308372 0.00252028 0)
(0.0281567 0.00265059 0)
(0.0253468 0.00272504 0)
(0.0224331 0.00275095 0)
(0.0194525 0.00273332 0)
(0.0164301 0.00269898 0)
(0.0133496 0.00265857 0)
(0.0102177 0.00263684 0)
(0.00703411 0.00262485 0)
(0.00378479 0.0026219 0)
(0.000478567 0.00262157 0)
(-0.00288562 0.00262383 0)
(-0.00630195 0.00262537 0)
(-0.00977093 0.00262607 0)
(-0.0132887 0.00262613 0)
(-0.0168514 0.00262522 0)
(-0.0204556 0.00262325 0)
(-0.0240971 0.00262017 0)
(-0.0277714 0.00261594 0)
(-0.0314742 0.00261051 0)
(-0.0352009 0.00260387 0)
(-0.0389467 0.00259586 0)
(-0.042707 0.0025865 0)
(-0.0464768 0.00257593 0)
(-0.0502511 0.00256412 0)
(-0.0540252 0.0025508 0)
(-0.0577938 0.00253596 0)
(-0.0615516 0.00251956 0)
(-0.0652931 0.00250151 0)
(-0.069013 0.00248201 0)
(-0.0727058 0.0024614 0)
(-0.0763671 0.00244049 0)
(-0.0799921 0.00242048 0)
(-0.083577 0.00240244 0)
(-0.0871187 0.00238725 0)
(-0.0906144 0.00237536 0)
(-0.094062 0.00236683 0)
(-0.0974592 0.00236129 0)
(-0.100804 0.00235826 0)
(-0.104093 0.00235736 0)
(-0.107326 0.0023585 0)
(-0.110499 0.00236186 0)
(-0.113611 0.00236759 0)
(-0.11666 0.0023757 0)
(-0.119644 0.00238653 0)
(-0.122563 0.00240048 0)
(-0.125416 0.00241776 0)
(-0.128201 0.00243856 0)
(-0.130919 0.00246316 0)
(-0.133569 0.0024925 0)
(-0.136152 0.00252892 0)
(-0.13867 0.0025757 0)
(-0.141128 0.00263456 0)
(-0.143528 0.00270032 0)
(-0.145869 0.00275712 0)
(-0.148142 0.00278209 0)
(-0.150321 0.00275561 0)
(-0.152366 0.00267079 0)
(-0.154239 0.00253494 0)
(-0.155905 0.00236269 0)
(-0.157343 0.00216779 0)
(-0.158537 0.00195821 0)
(-0.159481 0.00173646 0)
(-0.160167 0.00150649 0)
(-0.160589 0.00127243 0)
(-0.16074 0.00103819 0)
(-0.160624 0.00080599 0)
(-0.160257 0.00057184 0)
(-0.159636 0.000329608 0)
(-0.15876 7.70391e-05 0)
(-0.157628 -0.000185966 0)
(-0.156242 -0.000458115 0)
(-0.154601 -0.000736617 0)
(-0.152711 -0.00101723 0)
(-0.150577 -0.00129526 0)
(-0.148209 -0.00156656 0)
(-0.145616 -0.00182785 0)
(-0.142809 -0.00207738 0)
(-0.139799 -0.00231514 0)
(-0.136596 -0.00254228 0)
(-0.133208 -0.00275986 0)
(-0.129644 -0.00296811 0)
(-0.12591 -0.00316715 0)
(-0.122016 -0.00335735 0)
(-0.117969 -0.00353901 0)
(-0.113776 -0.00371245 0)
(-0.109442 -0.00387721 0)
(-0.104976 -0.00403298 0)
(-0.100382 -0.00418037 0)
(-0.0956663 -0.00431987 0)
(-0.0908363 -0.00445072 0)
(-0.0858979 -0.00457257 0)
(-0.0808578 -0.00468557 0)
(-0.0757239 -0.00478962 0)
(-0.0705009 -0.00488577 0)
(-0.0651935 -0.00497572 0)
(-0.0598152 -0.005062 0)
(-0.0543618 -0.00514507 0)
(-0.0488287 -0.00523514 0)
(-0.0432668 -0.00531426 0)
(-0.0375452 -0.00539802 0)
(-0.0319744 -0.00547702 0)
(-0.0259578 -0.00562716 0)
(-0.0205187 -0.0057587 0)
(-0.0139495 -0.00578395 0)
(-0.00865575 -0.00536989 0)
(-0.00197514 -0.00489919 0)
(0.000838863 -0.00378323 0)
(0.00144104 -0.00601365 0)
(0.00433093 -0.0052083 0)
(0.00471403 -0.00496598 0)
(0.00689191 -0.00482023 0)
(0.00766767 -0.00481137 0)
(0.00943732 -0.00469125 0)
(0.0105361 -0.00461128 0)
(0.0119802 -0.0044854 0)
(0.0132182 -0.00436434 0)
(0.0144919 -0.00422533 0)
(0.0157158 -0.00407398 0)
(0.0169011 -0.00391092 0)
(0.0180508 -0.00373602 0)
(0.0191539 -0.00354849 0)
(0.0202053 -0.00334693 0)
(0.0212066 -0.00313254 0)
(0.0221537 -0.00290805 0)
(0.0230422 -0.00266988 0)
(0.0238701 -0.00241948 0)
(0.0246349 -0.00215824 0)
(0.0253226 -0.00189121 0)
(0.0259347 -0.00160877 0)
(0.0264789 -0.00131773 0)
(0.026939 -0.00101974 0)
(0.0273167 -0.000715415 0)
(0.0276094 -0.000406363 0)
(0.0278112 -8.89833e-05 0)
(0.0279299 0.000224862 0)
(0.0279459 0.000546271 0)
(0.0278557 0.000865581 0)
(0.0276686 0.00118796 0)
(0.0273749 0.00150478 0)
(0.0269739 0.00181943 0)
(0.0264567 0.00212261 0)
(0.0258237 0.00242072 0)
(0.0250876 0.00271355 0)
(0.0242287 0.00300272 0)
(0.0232456 0.00328477 0)
(0.0221649 0.00356656 0)
(0.0209639 0.00383958 0)
(0.0196552 0.00412417 0)
(0.0182544 0.00440019 0)
(0.0167619 0.00467564 0)
(0.0151603 0.00493336 0)
(0.0134387 0.00516405 0)
(0.0115815 0.00536908 0)
(0.00956951 0.00555604 0)
(0.00739711 0.00573362 0)
(0.0050563 0.00590678 0)
(0.00256938 0.00608162 0)
(-5.97418e-05 0.00625698 0)
(-0.00282021 0.00642818 0)
(-0.00569752 0.00659248 0)
(-0.00868876 0.00675157 0)
(-0.011788 0.00690226 0)
(-0.0149893 0.00704395 0)
(-0.0182865 0.00717623 0)
(-0.021673 0.00729836 0)
(-0.025142 0.0074098 0)
(-0.0286868 0.0075104 0)
(-0.0322998 0.0075999 0)
(-0.0359736 0.00767771 0)
(-0.0397008 0.00774345 0)
(-0.0434739 0.00779705 0)
(-0.0472847 0.00783853 0)
(-0.051125 0.00786751 0)
(-0.0549869 0.00788359 0)
(-0.0588626 0.00788679 0)
(-0.0627436 0.00787707 0)
(-0.0666214 0.00785423 0)
(-0.0704881 0.00781803 0)
(-0.0743351 0.00776847 0)
(-0.0781538 0.00770566 0)
(-0.0819354 0.00763006 0)
(-0.0856706 0.00754232 0)
(-0.0893503 0.00744319 0)
(-0.092965 0.00733338 0)
(-0.0965057 0.00721343 0)
(-0.0999631 0.00708401 0)
(-0.103329 0.0069456 0)
(-0.106594 0.0067985 0)
(-0.109752 0.00664292 0)
(-0.112796 0.0064792 0)
(-0.115718 0.00630783 0)
(-0.118511 0.00612917 0)
(-0.12117 0.00594389 0)
(-0.123688 0.00575278 0)
(-0.126058 0.00555611 0)
(-0.128275 0.00535426 0)
(-0.130332 0.00514779 0)
(-0.132223 0.00493705 0)
(-0.133943 0.00472255 0)
(-0.135485 0.00450509 0)
(-0.136841 0.00428559 0)
(-0.138 0.00406427 0)
(-0.138951 0.00383791 0)
(-0.139678 0.00359771 0)
(-0.140172 0.00333045 0)
(-0.140432 0.00302328 0)
(-0.140461 0.00266898 0)
(-0.140275 0.00226945 0)
(-0.139889 0.00183471 0)
(-0.139316 0.00137765 0)
(-0.138567 0.000910399 0)
(-0.137647 0.000439752 0)
(-0.136557 -3.43086e-05 0)
(-0.135308 -0.000510206 0)
(-0.133913 -0.000983007 0)
(-0.132369 -0.00144831 0)
(-0.130658 -0.00190626 0)
(-0.128785 -0.00235866 0)
(-0.126755 -0.00280537 0)
(-0.124575 -0.00324463 0)
(-0.122254 -0.00367403 0)
(-0.119802 -0.00409121 0)
(-0.11723 -0.0044941 0)
(-0.114548 -0.00488065 0)
(-0.111767 -0.00524927 0)
(-0.108894 -0.00559972 0)
(-0.105935 -0.00593237 0)
(-0.102896 -0.00624844 0)
(-0.0997844 -0.00654978 0)
(-0.0966037 -0.00683776 0)
(-0.0933573 -0.00711284 0)
(-0.0900515 -0.00737519 0)
(-0.0866919 -0.00762521 0)
(-0.0832833 -0.00786337 0)
(-0.0798297 -0.00809035 0)
(-0.0763334 -0.00830826 0)
(-0.0727983 -0.00851863 0)
(-0.0692292 -0.00872104 0)
(-0.0656294 -0.0089136 0)
(-0.0620023 -0.00909755 0)
(-0.0583514 -0.00927184 0)
(-0.0546762 -0.00943604 0)
(-0.05098 -0.00959141 0)
(-0.0472682 -0.00973704 0)
(-0.0435411 -0.00987206 0)
(-0.0397903 -0.0100013 0)
(-0.0360598 -0.0101165 0)
(-0.0322508 -0.0102289 0)
(-0.0285779 -0.0103229 0)
(-0.0246442 -0.0104286 0)
(-0.0211694 -0.0104851 0)
(-0.0170072 -0.0105765 0)
(-0.0139863 -0.0106405 0)
(-0.00942365 -0.0110138 0)
(-0.00647737 -0.011244 0)
(-0.000366418 -0.00984059 0)
(0.000864589 -0.00526455 0)
(0.00185326 -0.00851526 0)
(0.00516369 -0.00741959 0)
(0.00587902 -0.00679541 0)
(0.0083298 -0.00670334 0)
(0.00941378 -0.00664493 0)
(0.0114674 -0.00656706 0)
(0.0128802 -0.00643249 0)
(0.0146102 -0.00629685 0)
(0.0161508 -0.00613443 0)
(0.0177074 -0.00595732 0)
(0.019215 -0.00576605 0)
(0.0206741 -0.00555513 0)
(0.0220846 -0.00532575 0)
(0.023443 -0.00508234 0)
(0.024743 -0.00481984 0)
(0.025976 -0.00453915 0)
(0.0271429 -0.00424085 0)
(0.0282412 -0.00392496 0)
(0.029262 -0.0035918 0)
(0.030202 -0.00324476 0)
(0.0310573 -0.00287983 0)
(0.0318245 -0.00250041 0)
(0.0324983 -0.00210708 0)
(0.0330732 -0.00170372 0)
(0.0335464 -0.00128419 0)
(0.0339158 -0.000860137 0)
(0.0341769 -0.000422055 0)
(0.0343231 2.51271e-05 0)
(0.0343501 0.000479169 0)
(0.0342636 0.000939572 0)
(0.0340518 0.00140462 0)
(0.0337102 0.00187252 0)
(0.0332431 0.00234386 0)
(0.0326409 0.00281119 0)
(0.0319029 0.00327862 0)
(0.0310349 0.00374435 0)
(0.0300242 0.00420004 0)
(0.0288655 0.00465814 0)
(0.0275629 0.00510637 0)
(0.0261202 0.00554153 0)
(0.0245426 0.00597494 0)
(0.0228291 0.00640223 0)
(0.0209881 0.00682966 0)
(0.0190159 0.00725519 0)
(0.0169079 0.00769318 0)
(0.014663 0.00811917 0)
(0.0122828 0.00854352 0)
(0.00977073 0.0089476 0)
(0.00711692 0.00933673 0)
(0.00434453 0.00970213 0)
(0.00145984 0.0100568 0)
(-0.00154081 0.0103934 0)
(-0.00463552 0.0107128 0)
(-0.00782461 0.0110171 0)
(-0.0111036 0.0113055 0)
(-0.0144671 0.0115765 0)
(-0.0179098 0.0118295 0)
(-0.021426 0.0120637 0)
(-0.0250092 0.0122782 0)
(-0.0286528 0.0124727 0)
(-0.032351 0.0126466 0)
(-0.0360976 0.0127988 0)
(-0.0398853 0.0129288 0)
(-0.0437067 0.0130365 0)
(-0.0475553 0.0131216 0)
(-0.051424 0.0131831 0)
(-0.0553052 0.0132209 0)
(-0.0591913 0.0132351 0)
(-0.0630751 0.0132254 0)
(-0.0669492 0.0131914 0)
(-0.0708064 0.0131329 0)
(-0.074639 0.0130494 0)
(-0.0784395 0.0129407 0)
(-0.0822004 0.0128071 0)
(-0.0859139 0.0126487 0)
(-0.0895722 0.0124661 0)
(-0.0931676 0.0122603 0)
(-0.0966915 0.0120325 0)
(-0.100136 0.0117838 0)
(-0.103493 0.0115149 0)
(-0.106756 0.0112269 0)
(-0.109918 0.0109207 0)
(-0.112972 0.0105969 0)
(-0.115911 0.010256 0)
(-0.118728 0.00989886 0)
(-0.121416 0.00952624 0)
(-0.123971 0.0091386 0)
(-0.126387 0.00873663 0)
(-0.128657 0.00832091 0)
(-0.130775 0.00789199 0)
(-0.132737 0.00745026 0)
(-0.134536 0.00699582 0)
(-0.136167 0.00652835 0)
(-0.137625 0.00604617 0)
(-0.138902 0.0055455 0)
(-0.139993 0.00502062 0)
(-0.140895 0.00446448 0)
(-0.141609 0.00387149 0)
(-0.142141 0.00324097 0)
(-0.1425 0.00257772 0)
(-0.142693 0.00189101 0)
(-0.142725 0.00119202 0)
(-0.142596 0.00048898 0)
(-0.142302 -0.00021408 0)
(-0.141847 -0.000912199 0)
(-0.141234 -0.00160625 0)
(-0.140456 -0.00229943 0)
(-0.13951 -0.00299374 0)
(-0.138396 -0.00368946 0)
(-0.137118 -0.00438334 0)
(-0.135677 -0.00507066 0)
(-0.134076 -0.00574753 0)
(-0.132315 -0.00640976 0)
(-0.130397 -0.0070527 0)
(-0.128323 -0.00767154 0)
(-0.126094 -0.00826235 0)
(-0.123713 -0.0088226 0)
(-0.121181 -0.00935139 0)
(-0.118503 -0.00984953 0)
(-0.115681 -0.0103191 0)
(-0.11272 -0.0107628 0)
(-0.109626 -0.0111831 0)
(-0.106404 -0.011581 0)
(-0.103063 -0.0119571 0)
(-0.0996106 -0.0123114 0)
(-0.0960525 -0.0126435 0)
(-0.092396 -0.0129536 0)
(-0.0886508 -0.0132426 0)
(-0.0848273 -0.0135123 0)
(-0.0809336 -0.0137641 0)
(-0.0769774 -0.0139988 0)
(-0.07297 -0.0142161 0)
(-0.0689203 -0.0144157 0)
(-0.0648332 -0.014598 0)
(-0.0607168 -0.0147642 0)
(-0.0565774 -0.0149169 0)
(-0.05242 -0.0150559 0)
(-0.0482498 -0.0151839 0)
(-0.0440679 -0.0152994 0)
(-0.0399022 -0.0154065 0)
(-0.0356844 -0.0154995 0)
(-0.0315829 -0.0155797 0)
(-0.027262 -0.0156401 0)
(-0.0233665 -0.0156674 0)
(-0.0188453 -0.0156442 0)
(-0.0153869 -0.0157178 0)
(-0.0103424 -0.0163408 0)
(-0.00682735 -0.0175536 0)
(-0.000324058 -0.014281 0)
(0.000852176 -0.00744796 0)
(0.00234645 -0.0120157 0)
(0.00594942 -0.0105158 0)
(0.00709198 -0.00953877 0)
(0.00986635 -0.00941843 0)
(0.011323 -0.00933691 0)
(0.0136777 -0.0092424 0)
(0.0154249 -0.00905925 0)
(0.0174295 -0.00886813 0)
(0.0192589 -0.00864548 0)
(0.0210685 -0.00840216 0)
(0.0228158 -0.00813388 0)
(0.0245032 -0.00784027 0)
(0.0261179 -0.0075226 0)
(0.0276567 -0.00718039 0)
(0.0291179 -0.00681454 0)
(0.0304945 -0.00642346 0)
(0.0317818 -0.00600696 0)
(0.0329755 -0.00556733 0)
(0.0340705 -0.00510034 0)
(0.0350704 -0.00461519 0)
(0.0359615 -0.00410885 0)
(0.0367378 -0.00357564 0)
(0.0374074 -0.00302828 0)
(0.0379644 -0.00245859 0)
(0.0383985 -0.00187535 0)
(0.0387098 -0.00127494 0)
(0.0389005 -0.000657729 0)
(0.038967 -3.08532e-05 0)
(0.0389003 0.000608267 0)
(0.0387 0.00125809 0)
(0.0383729 0.001914 0)
(0.0379148 0.00257939 0)
(0.0373179 0.00324957 0)
(0.0365804 0.00392396 0)
(0.0357097 0.0045985 0)
(0.0347024 0.00527422 0)
(0.0335597 0.0059442 0)
(0.0322753 0.006618 0)
(0.0308503 0.00728312 0)
(0.0292879 0.0079477 0)
(0.0275863 0.00860457 0)
(0.0257454 0.00925399 0)
(0.0237678 0.00989141 0)
(0.0216638 0.0105168 0)
(0.0194237 0.0111216 0)
(0.0170604 0.0117083 0)
(0.0145882 0.0122749 0)
(0.0119997 0.0128192 0)
(0.00929021 0.0133424 0)
(0.00647624 0.0138474 0)
(0.00355268 0.0143331 0)
(0.000509206 0.0147983 0)
(-0.00262584 0.0152404 0)
(-0.00585098 0.0156594 0)
(-0.00916526 0.0160548 0)
(-0.0125632 0.0164254 0)
(-0.0160386 0.0167703 0)
(-0.019586 0.0170883 0)
(-0.0231992 0.0173787 0)
(-0.0268718 0.0176403 0)
(-0.0305985 0.0178723 0)
(-0.0343727 0.0180743 0)
(-0.0381866 0.0182456 0)
(-0.0420335 0.0183854 0)
(-0.0459081 0.0184931 0)
(-0.0498028 0.0185683 0)
(-0.0537099 0.0186105 0)
(-0.0576227 0.0186194 0)
(-0.0615345 0.0185947 0)
(-0.0654378 0.0185361 0)
(-0.0693257 0.0184436 0)
(-0.0731912 0.0183171 0)
(-0.0770268 0.0181565 0)
(-0.0808259 0.0179618 0)
(-0.0845816 0.0177332 0)
(-0.0882869 0.0174711 0)
(-0.0919348 0.0171763 0)
(-0.0955187 0.01685 0)
(-0.0990319 0.0164928 0)
(-0.102467 0.0161054 0)
(-0.105817 0.0156892 0)
(-0.109075 0.0152453 0)
(-0.112234 0.0147747 0)
(-0.115287 0.0142784 0)
(-0.118228 0.0137573 0)
(-0.121051 0.0132123 0)
(-0.123749 0.0126443 0)
(-0.126316 0.0120546 0)
(-0.128746 0.011444 0)
(-0.131033 0.010813 0)
(-0.133171 0.0101621 0)
(-0.135155 0.00949217 0)
(-0.13698 0.0088034 0)
(-0.13864 0.00809521 0)
(-0.140131 0.00736645 0)
(-0.14145 0.00661564 0)
(-0.142596 0.00584107 0)
(-0.143572 0.00504179 0)
(-0.144378 0.00421759 0)
(-0.14502 0.00337005 0)
(-0.145498 0.00250152 0)
(-0.145811 0.00161462 0)
(-0.145959 0.000712802 0)
(-0.145937 -0.000200967 0)
(-0.145741 -0.00112387 0)
(-0.145371 -0.0020489 0)
(-0.14483 -0.00297197 0)
(-0.144118 -0.00389198 0)
(-0.143234 -0.00480864 0)
(-0.142182 -0.00572074 0)
(-0.140963 -0.00662621 0)
(-0.139579 -0.00752259 0)
(-0.138033 -0.0084072 0)
(-0.136326 -0.00927715 0)
(-0.134458 -0.0101294 0)
(-0.132431 -0.0109607 0)
(-0.130244 -0.0117679 0)
(-0.127898 -0.012548 0)
(-0.125395 -0.0132985 0)
(-0.122736 -0.0140174 0)
(-0.119925 -0.0147038 0)
(-0.116967 -0.0153567 0)
(-0.113866 -0.015976 0)
(-0.110628 -0.016562 0)
(-0.107257 -0.0171148 0)
(-0.10376 -0.0176343 0)
(-0.100141 -0.0181205 0)
(-0.0964059 -0.0185727 0)
(-0.0925614 -0.0189902 0)
(-0.0886141 -0.0193735 0)
(-0.0845714 -0.0197245 0)
(-0.0804398 -0.020045 0)
(-0.0762266 -0.020335 0)
(-0.0719395 -0.020596 0)
(-0.0675847 -0.0208298 0)
(-0.0631686 -0.0210374 0)
(-0.0586993 -0.0212217 0)
(-0.0541793 -0.0213854 0)
(-0.0496185 -0.0215279 0)
(-0.0450315 -0.0216542 0)
(-0.0403791 -0.0217599 0)
(-0.0357846 -0.0218504 0)
(-0.0309927 -0.0219044 0)
(-0.0265236 -0.0219058 0)
(-0.0214945 -0.0218296 0)
(-0.0173647 -0.0220352 0)
(-0.0116882 -0.0231337 0)
(-0.0073949 -0.0249309 0)
(-0.000746743 -0.0196464 0)
(0.000825315 -0.00967443 0)
(0.00254262 -0.0157461 0)
(0.00623409 -0.0137893 0)
(0.00755039 -0.0125006 0)
(0.0104313 -0.0123013 0)
(0.0120413 -0.0121956 0)
(0.0144906 -0.0120494 0)
(0.0163642 -0.0118105 0)
(0.0184603 -0.0115437 0)
(0.020386 -0.0112422 0)
(0.0222818 -0.0109117 0)
(0.0241104 -0.0105475 0)
(0.0258616 -0.010149 0)
(0.0275338 -0.00972299 0)
(0.029124 -0.00926331 0)
(0.0306273 -0.00877272 0)
(0.032037 -0.00825214 0)
(0.0333487 -0.0077021 0)
(0.0345665 -0.00712222 0)
(0.0356736 -0.00651066 0)
(0.0366662 -0.005875 0)
(0.037562 -0.005219 0)
(0.0383379 -0.00452904 0)
(0.0389936 -0.00382055 0)
(0.0395309 -0.00309025 0)
(0.0399422 -0.00234084 0)
(0.0402388 -0.00156968 0)
(0.0404042 -0.000783181 0)
(0.0404371 1.95183e-05 0)
(0.0403419 0.000831681 0)
(0.0401159 0.00165923 0)
(0.0397566 0.00249494 0)
(0.0392613 0.00333783 0)
(0.0386314 0.00418294 0)
(0.0378604 0.00503668 0)
(0.0369523 0.00589103 0)
(0.0359114 0.00674168 0)
(0.0347391 0.00758889 0)
(0.0334243 0.00843029 0)
(0.0319696 0.00927065 0)
(0.0303862 0.0100979 0)
(0.0286684 0.0109177 0)
(0.0268178 0.011732 0)
(0.0248429 0.0125337 0)
(0.022736 0.0133236 0)
(0.0204996 0.0140969 0)
(0.0181448 0.0148604 0)
(0.0156678 0.015602 0)
(0.0130743 0.0163214 0)
(0.0103572 0.0170144 0)
(0.00753113 0.0176891 0)
(0.00459372 0.0183276 0)
(0.00153784 0.018944 0)
(-0.00161319 0.0195329 0)
(-0.00485696 0.0200896 0)
(-0.00819078 0.0206145 0)
(-0.0116101 0.0211067 0)
(-0.0151096 0.0215648 0)
(-0.0186835 0.0219873 0)
(-0.0223258 0.0223734 0)
(-0.0260301 0.0227219 0)
(-0.0297901 0.0230316 0)
(-0.0335997 0.0233021 0)
(-0.0374522 0.0235325 0)
(-0.0413406 0.0237213 0)
(-0.0452586 0.023868 0)
(-0.0491991 0.0239724 0)
(-0.0531552 0.024034 0)
(-0.0571195 0.0240519 0)
(-0.0610851 0.0240262 0)
(-0.0650446 0.0239565 0)
(-0.0689909 0.0238427 0)
(-0.0729168 0.0236848 0)
(-0.0768149 0.023483 0)
(-0.0806783 0.0232372 0)
(-0.0845 0.0229479 0)
(-0.0882725 0.0226158 0)
(-0.0919888 0.0222413 0)
(-0.0956421 0.0218252 0)
(-0.0992256 0.0213686 0)
(-0.102732 0.0208727 0)
(-0.106153 0.0203384 0)
(-0.109482 0.0197666 0)
(-0.112713 0.0191585 0)
(-0.115838 0.0185152 0)
(-0.11885 0.0178376 0)
(-0.121743 0.017127 0)
(-0.124509 0.0163844 0)
(-0.127143 0.0156109 0)
(-0.129638 0.0148073 0)
(-0.131989 0.0139745 0)
(-0.134189 0.0131136 0)
(-0.136233 0.0122252 0)
(-0.138115 0.0113093 0)
(-0.139831 0.0103667 0)
(-0.141377 0.00939722 0)
(-0.14275 0.00839986 0)
(-0.143948 0.00737425 0)
(-0.144969 0.00632066 0)
(-0.145815 0.00523991 0)
(-0.146484 0.00413439 0)
(-0.146979 0.00300754 0)
(-0.1473 0.00186327 0)
(-0.147447 0.00070672 0)
(-0.147422 -0.000456918 0)
(-0.147225 -0.00162455 0)
(-0.146854 -0.00279442 0)
(-0.14631 -0.00396352 0)
(-0.145594 -0.00512922 0)
(-0.144705 -0.00628908 0)
(-0.143647 -0.00744034 0)
(-0.14242 -0.00857998 0)
(-0.141028 -0.00970481 0)
(-0.139473 -0.0108115 0)
(-0.137758 -0.0118967 0)
(-0.135886 -0.0129571 0)
(-0.133859 -0.0139898 0)
(-0.13168 -0.0149921 0)
(-0.129352 -0.0159622 0)
(-0.126876 -0.0168984 0)
(-0.124255 -0.0178 0)
(-0.121491 -0.0186664 0)
(-0.118587 -0.0194973 0)
(-0.115547 -0.0202921 0)
(-0.112372 -0.0210506 0)
(-0.109068 -0.0217724 0)
(-0.105639 -0.0224569 0)
(-0.102089 -0.0231036 0)
(-0.0984209 -0.0237118 0)
(-0.0946402 -0.0242809 0)
(-0.0907507 -0.0248114 0)
(-0.0867567 -0.0253033 0)
(-0.0826633 -0.0257575 0)
(-0.0784744 -0.026175 0)
(-0.0741951 -0.0265561 0)
(-0.0698306 -0.0269024 0)
(-0.0653869 -0.0272151 0)
(-0.0608708 -0.0274955 0)
(-0.0562832 -0.0277457 0)
(-0.0516351 -0.027967 0)
(-0.0469361 -0.0281634 0)
(-0.0421588 -0.028334 0)
(-0.0374049 -0.0284841 0)
(-0.0324547 -0.0285847 0)
(-0.0277628 -0.0286108 0)
(-0.0225503 -0.0285604 0)
(-0.0181116 -0.0289543 0)
(-0.0122409 -0.0304782 0)
(-0.00766426 -0.0325984 0)
(-0.00102919 -0.0254968 0)
(0.000835984 -0.0120254 0)
(0.00263838 -0.0196044 0)
(0.00632773 -0.0171861 0)
(0.00772661 -0.0155945 0)
(0.0106219 -0.0153177 0)
(0.0122965 -0.0151797 0)
(0.0147758 -0.0149793 0)
(0.0166976 -0.0146747 0)
(0.0188304 -0.0143293 0)
(0.0207975 -0.0139447 0)
(0.0227285 -0.0135202 0)
(0.0245943 -0.0130577 0)
(0.0263824 -0.0125532 0)
(0.0280878 -0.0120118 0)
(0.029714 -0.0114324 0)
(0.0312505 -0.0108155 0)
(0.0326933 -0.0101624 0)
(0.0340405 -0.00947313 0)
(0.0352914 -0.00874942 0)
(0.0364312 -0.0079975 0)
(0.0374561 -0.00720403 0)
(0.0383824 -0.00638479 0)
(0.0391892 -0.00554321 0)
(0.0398704 -0.004664 0)
(0.0404389 -0.00376769 0)
(0.0408839 -0.00284404 0)
(0.0412012 -0.00189469 0)
(0.0413916 -0.000933757 0)
(0.0414514 5.1436e-05 0)
(0.0413786 0.00105097 0)
(0.0411726 0.00206504 0)
(0.040831 0.00308745 0)
(0.0403532 0.00411941 0)
(0.0397417 0.00515789 0)
(0.038991 0.00620537 0)
(0.0380936 0.00725468 0)
(0.0370579 0.00830402 0)
(0.0358873 0.00935152 0)
(0.0345818 0.0103921 0)
(0.0331289 0.011431 0)
(0.0315332 0.0124593 0)
(0.0298125 0.0134768 0)
(0.0279489 0.0144855 0)
(0.0259439 0.0154777 0)
(0.0238111 0.0164447 0)
(0.0215486 0.0173959 0)
(0.0191587 0.0183245 0)
(0.0166446 0.0192274 0)
(0.0140097 0.0201028 0)
(0.0112597 0.0209471 0)
(0.00839219 0.0217673 0)
(0.00541024 0.0225485 0)
(0.00232104 0.0233018 0)
(-0.000873662 0.0240212 0)
(-0.0041647 0.0247023 0)
(-0.00754576 0.0253446 0)
(-0.0110142 0.0259468 0)
(-0.0145648 0.0265073 0)
(-0.0181915 0.0270252 0)
(-0.0218881 0.0274988 0)
(-0.0256487 0.0279267 0)
(-0.029467 0.0283074 0)
(-0.0333365 0.0286398 0)
(-0.0372506 0.028923 0)
(-0.0412024 0.0291556 0)
(-0.0451849 0.029337 0)
(-0.0491907 0.0294666 0)
(-0.0532131 0.0295435 0)
(-0.0572446 0.0295673 0)
(-0.0612781 0.0295376 0)
(-0.0653061 0.0294541 0)
(-0.069321 0.0293165 0)
(-0.0733156 0.0291249 0)
(-0.0772824 0.0288791 0)
(-0.0812138 0.0285794 0)
(-0.0851024 0.0282264 0)
(-0.088941 0.0278204 0)
(-0.0927221 0.0273621 0)
(-0.0964381 0.0268521 0)
(-0.100082 0.0262916 0)
(-0.103646 0.0256818 0)
(-0.107123 0.0250236 0)
(-0.110506 0.0243178 0)
(-0.113787 0.0235658 0)
(-0.11696 0.0227689 0)
(-0.120016 0.0219285 0)
(-0.122951 0.0210458 0)
(-0.125757 0.0201221 0)
(-0.128427 0.0191589 0)
(-0.130956 0.0181573 0)
(-0.133338 0.017119 0)
(-0.135566 0.0160455 0)
(-0.137636 0.0149378 0)
(-0.139544 0.0137969 0)
(-0.141283 0.0126242 0)
(-0.142852 0.0114206 0)
(-0.144247 0.0101871 0)
(-0.145465 0.00892482 0)
(-0.146506 0.00763499 0)
(-0.147368 0.00631984 0)
(-0.148053 0.00498141 0)
(-0.14856 0.00362266 0)
(-0.148888 0.0022474 0)
(-0.149038 0.000858901 0)
(-0.149009 -0.000539243 0)
(-0.1488 -0.00194307 0)
(-0.148412 -0.00334884 0)
(-0.147846 -0.0047532 0)
(-0.147103 -0.00615302 0)
(-0.146185 -0.00754514 0)
(-0.145093 -0.0089264 0)
(-0.143829 -0.0102937 0)
(-0.142397 -0.0116442 0)
(-0.140798 -0.0129745 0)
(-0.139036 -0.0142818 0)
(-0.137112 -0.015563 0)
(-0.135031 -0.0168152 0)
(-0.132794 -0.0180357 0)
(-0.130404 -0.0192219 0)
(-0.127864 -0.0203714 0)
(-0.125178 -0.0214826 0)
(-0.12235 -0.0225537 0)
(-0.119384 -0.0235835 0)
(-0.116283 -0.0245709 0)
(-0.113051 -0.0255154 0)
(-0.109694 -0.0264161 0)
(-0.106216 -0.0272723 0)
(-0.102621 -0.0280845 0)
(-0.0989139 -0.0288519 0)
(-0.0950987 -0.0295742 0)
(-0.0911796 -0.0302519 0)
(-0.0871606 -0.0308852 0)
(-0.0830462 -0.031475 0)
(-0.07884 -0.0320214 0)
(-0.074547 -0.0325248 0)
(-0.0701712 -0.0329874 0)
(-0.0657162 -0.0334102 0)
(-0.0611888 -0.033794 0)
(-0.0565897 -0.03414 0)
(-0.0519293 -0.0344506 0)
(-0.0472144 -0.0347279 0)
(-0.0424191 -0.0349737 0)
(-0.0376413 -0.0351944 0)
(-0.0326715 -0.0353529 0)
(-0.0279391 -0.0354239 0)
(-0.0227102 -0.0354168 0)
(-0.0182084 -0.0359606 0)
(-0.0123925 -0.0378828 0)
(-0.00776293 -0.0403487 0)
(-0.0011404 -0.0316006 0)
(0.000849537 -0.0144318 0)
(0.00273935 -0.0234921 0)
(0.00644935 -0.0206161 0)
(0.00792688 -0.0187065 0)
(0.0108414 -0.0183664 0)
(0.0125836 -0.0181867 0)
(0.0150943 -0.0179442 0)
(0.0170763 -0.0175678 0)
(0.0192523 -0.0171492 0)
(0.0212722 -0.0166808 0)
(0.023256 -0.016166 0)
(0.0251737 -0.0156042 0)
(0.0270135 -0.0149979 0)
(0.02877 -0.0143396 0)
(0.0304469 -0.0136402 0)
(0.0320363 -0.0128986 0)
(0.0335322 -0.0121135 0)
(0.03493 -0.0112884 0)
(0.0362251 -0.0104232 0)
(0.0374217 -0.00952267 0)
(0.0385026 -0.0085794 0)
(0.0394624 -0.00760392 0)
(0.0403209 -0.00660109 0)
(0.0410543 -0.00555689 0)
(0.041657 -0.00449041 0)
(0.0421472 -0.00339292 0)
(0.0425029 -0.00227154 0)
(0.042727 -0.00112916 0)
(0.042824 3.50134e-05 0)
(0.0427807 0.00121799 0)
(0.0425994 0.00241721 0)
(0.0422786 0.00363252 0)
(0.0418199 0.00485443 0)
(0.0412261 0.00608602 0)
(0.0404851 0.00732278 0)
(0.0395939 0.00856009 0)
(0.0385642 0.0098027 0)
(0.0373926 0.0110416 0)
(0.0360781 0.0122755 0)
(0.0346175 0.0134985 0)
(0.033014 0.014719 0)
(0.0312772 0.0159233 0)
(0.0293988 0.0171101 0)
(0.0273719 0.018283 0)
(0.0252123 0.0194375 0)
(0.022925 0.0205689 0)
(0.0205035 0.021677 0)
(0.0179517 0.0227554 0)
(0.0152748 0.0238045 0)
(0.0124781 0.0248201 0)
(0.0095616 0.0257982 0)
(0.00652831 0.0267433 0)
(0.00338393 0.0276491 0)
(0.000130324 0.0285107 0)
(-0.00322272 0.0293292 0)
(-0.00666818 0.0301009 0)
(-0.0102029 0.0308243 0)
(-0.0138213 0.0314979 0)
(-0.0175177 0.0321204 0)
(-0.0212865 0.0326895 0)
(-0.0251212 0.0332036 0)
(-0.0290149 0.0336613 0)
(-0.0329612 0.0340614 0)
(-0.0369535 0.0344025 0)
(-0.0409843 0.0346836 0)
(-0.0450464 0.0349038 0)
(-0.0491329 0.0350619 0)
(-0.0532365 0.0351573 0)
(-0.0573493 0.0351892 0)
(-0.0614642 0.0351572 0)
(-0.0655737 0.0350609 0)
(-0.06967 0.0349003 0)
(-0.0737456 0.0346751 0)
(-0.0777927 0.0343853 0)
(-0.0818037 0.0340313 0)
(-0.0857708 0.0336133 0)
(-0.0896866 0.033132 0)
(-0.0935434 0.032588 0)
(-0.0973335 0.0319821 0)
(-0.101049 0.0313152 0)
(-0.104683 0.0305886 0)
(-0.108229 0.0298035 0)
(-0.111677 0.0289608 0)
(-0.115023 0.0280622 0)
(-0.118257 0.027109 0)
(-0.121374 0.0261028 0)
(-0.124366 0.025045 0)
(-0.127227 0.0239374 0)
(-0.129951 0.0227816 0)
(-0.132532 0.0215794 0)
(-0.134963 0.0203325 0)
(-0.13724 0.0190423 0)
(-0.139357 0.0177107 0)
(-0.14131 0.0163395 0)
(-0.143094 0.0149303 0)
(-0.144705 0.0134847 0)
(-0.14614 0.0120051 0)
(-0.147398 0.0104934 0)
(-0.148475 0.0089515 0)
(-0.14937 0.00738188 0)
(-0.150083 0.00578783 0)
(-0.150612 0.00417327 0)
(-0.150957 0.00254192 0)
(-0.151118 0.000897924 0)
(-0.151094 -0.000754529 0)
(-0.150887 -0.00241205 0)
(-0.150497 -0.00407081 0)
(-0.149923 -0.00572702 0)
(-0.149166 -0.0073769 0)
(-0.148229 -0.00901668 0)
(-0.147112 -0.0106427 0)
(-0.145817 -0.0122513 0)
(-0.144348 -0.0138386 0)
(-0.142706 -0.015401 0)
(-0.140894 -0.016935 0)
(-0.138915 -0.0184375 0)
(-0.136773 -0.0199051 0)
(-0.134472 -0.0213349 0)
(-0.132013 -0.0227246 0)
(-0.129402 -0.0240723 0)
(-0.126642 -0.0253761 0)
(-0.123738 -0.0266345 0)
(-0.120692 -0.0278461 0)
(-0.117511 -0.02901 0)
(-0.114199 -0.0301256 0)
(-0.110759 -0.0311918 0)
(-0.107199 -0.0322077 0)
(-0.103523 -0.0331734 0)
(-0.0997336 -0.0340887 0)
(-0.0958384 -0.0349534 0)
(-0.0918421 -0.0357677 0)
(-0.0877495 -0.0365318 0)
(-0.0835653 -0.0372462 0)
(-0.0792925 -0.0379115 0)
(-0.0749376 -0.0385287 0)
(-0.0705058 -0.0390985 0)
(-0.066 -0.0396227 0)
(-0.0614265 -0.0401018 0)
(-0.0567869 -0.040537 0)
(-0.0520904 -0.040931 0)
(-0.0473429 -0.0412849 0)
(-0.0425227 -0.0416024 0)
(-0.0377179 -0.0418895 0)
(-0.032734 -0.0421028 0)
(-0.027979 -0.042217 0)
(-0.0227551 -0.0422343 0)
(-0.0182344 -0.042901 0)
(-0.0124813 -0.0452 0)
(-0.00781158 -0.0480961 0)
(-0.00117429 -0.0377532 0)
(0.000857 -0.0169288 0)
(0.00286564 -0.0274784 0)
(0.0066291 -0.0241417 0)
(0.00821211 -0.0219029 0)
(0.0111676 -0.0214947 0)
(0.0130003 -0.0212811 0)
(0.0155639 -0.0209927 0)
(0.0176287 -0.02055 0)
(0.0198646 -0.0200563 0)
(0.021959 -0.0195034 0)
(0.0240106 -0.0188983 0)
(0.0259936 -0.0182387 0)
(0.0279071 -0.0175271 0)
(0.0297349 -0.0167579 0)
(0.0314725 -0.0159406 0)
(0.0331258 -0.0150727 0)
(0.034684 -0.0141558 0)
(0.0361436 -0.0131914 0)
(0.037502 -0.0121826 0)
(0.0387545 -0.0111286 0)
(0.0398893 -0.0100368 0)
(0.0409051 -0.00889936 0)
(0.0418147 -0.00772488 0)
(0.0425927 -0.00651931 0)
(0.0432443 -0.0052765 0)
(0.0437753 -0.0040018 0)
(0.044165 -0.00270243 0)
(0.0444246 -0.00137203 0)
(0.0445509 -2.12849e-05 0)
(0.0445365 0.00135043 0)
(0.0443849 0.00274401 0)
(0.0440842 0.00415403 0)
(0.043638 0.00557383 0)
(0.0430554 0.0070068 0)
(0.0423202 0.00844083 0)
(0.0414377 0.00988226 0)
(0.0404103 0.011327 0)
(0.0392333 0.0127687 0)
(0.0379102 0.0142076 0)
(0.0364426 0.0156348 0)
(0.0348245 0.0170548 0)
(0.0330597 0.0184604 0)
(0.0311547 0.0198437 0)
(0.0291062 0.0212075 0)
(0.0269166 0.0225562 0)
(0.0245901 0.0238713 0)
(0.0221261 0.0251637 0)
(0.0195289 0.0264172 0)
(0.0168049 0.0276371 0)
(0.013954 0.028819 0)
(0.0109856 0.0299606 0)
(0.00790023 0.0310583 0)
(0.00469187 0.0321105 0)
(0.00137259 0.0331139 0)
(-0.00204683 0.0340719 0)
(-0.00556357 0.0349715 0)
(-0.00917169 0.0358156 0)
(-0.012866 0.0366023 0)
(-0.0166411 0.0373289 0)
(-0.0204913 0.0379937 0)
(-0.0244096 0.0385951 0)
(-0.0283888 0.0391309 0)
(-0.0324226 0.0395994 0)
(-0.0365038 0.0399998 0)
(-0.0406252 0.0403306 0)
(-0.0447796 0.0405899 0)
(-0.0489595 0.0407768 0)
(-0.0531574 0.0408908 0)
(-0.0573655 0.0409311 0)
(-0.0615762 0.0408968 0)
(-0.0657816 0.0407877 0)
(-0.0699739 0.0406034 0)
(-0.0741455 0.0403439 0)
(-0.0782882 0.0400091 0)
(-0.0823941 0.0395994 0)
(-0.0864556 0.0391151 0)
(-0.0904649 0.0385568 0)
(-0.0944141 0.0379251 0)
(-0.0982951 0.0372211 0)
(-0.1021 0.0364456 0)
(-0.105823 0.0355999 0)
(-0.109454 0.0346854 0)
(-0.112987 0.0337035 0)
(-0.116414 0.0326556 0)
(-0.119729 0.0315435 0)
(-0.122923 0.0303688 0)
(-0.125991 0.0291336 0)
(-0.128926 0.0278395 0)
(-0.13172 0.0264887 0)
(-0.134369 0.0250834 0)
(-0.136866 0.0236257 0)
(-0.139206 0.0221177 0)
(-0.141384 0.0205616 0)
(-0.143394 0.0189598 0)
(-0.145232 0.0173148 0)
(-0.146895 0.0156291 0)
(-0.148379 0.0139052 0)
(-0.149681 0.0121458 0)
(-0.1508 0.0103542 0)
(-0.151733 0.00853358 0)
(-0.152479 0.00668739 0)
(-0.153036 0.00481928 0)
(-0.153405 0.00293324 0)
(-0.153583 0.00103352 0)
(-0.153571 -0.000875861 0)
(-0.153369 -0.00279015 0)