/*--------------------------------*- C++ -*----------------------------------*\
| =========                 |                                                 |
| \\      /  F ield         | OpenFOAM: The Open Source CFD Toolbox           |
|  \\    /   O peration     | Version:  v2006                                 |
|   \\  /    A nd           | Website:  www.openfoam.com                      |
|    \\/     M anipulation  |                                                 |
\*---------------------------------------------------------------------------*/
FoamFile
{
    version     2.0;
    format      ascii;
    class       surfaceScalarField;
    location    "16.5";
    object      phi;
}
// * * * * * * * * * * * * * * * * * * * * * * * * * * * * * * * * * * * * * //

dimensions      [0 3 -1 0 0 0 0];
oriented        oriented;


internalField   nonuniform List<scalar> 
99450
(
1.62682e-05
-1.62682e-05
5.0156e-05
-3.38879e-05
8.52896e-05
-3.51335e-05
0.000116844
-3.15544e-05
0.000144885
-2.80413e-05
0.000170754
-2.58691e-05
0.000195406
-2.4651e-05
0.000219222
-2.38165e-05
0.000242268
-2.30464e-05
0.000264486
-2.22173e-05
0.000285804
-2.1318e-05
0.000306177
-2.0373e-05
0.000325583
-1.9406e-05
0.000344015
-1.84323e-05
0.000361479
-1.74635e-05
0.000377988
-1.65096e-05
0.000393567
-1.55785e-05
0.000408244
-1.46774e-05
0.000422055
-1.38107e-05
0.000435035
-1.29805e-05
0.000447225
-1.21896e-05
0.000458665
-1.14395e-05
0.000469396
-1.07311e-05
0.000479457
-1.00616e-05
0.000488884
-9.4266e-06
0.000497705
-8.82142e-06
0.000505945
-8.23985e-06
0.000513621
-7.67589e-06
0.000520745
-7.12444e-06
0.000527327
-6.58121e-06
0.00053336
-6.03357e-06
0.000538825
-5.46479e-06
0.000543678
-4.85346e-06
0.000547847
-4.16874e-06
0.000551215
-3.36814e-06
0.000553627
-2.41142e-06
0.000554912
-1.28516e-06
0.000554954
-4.16284e-08
0.000553432
1.52135e-06
0.000550162
3.26978e-06
0.000545191
4.97156e-06
0.000538763
6.42784e-06
0.000531138
7.62514e-06
0.000522497
8.64039e-06
0.00051303
9.46738e-06
0.000502974
1.00558e-05
0.000492586
1.03882e-05
0.000482107
1.04796e-05
0.000471778
1.03286e-05
0.000461875
9.90328e-06
0.000452677
9.19779e-06
0.000444393
8.28365e-06
0.000437147
7.24594e-06
0.000430913
6.23425e-06
0.000425545
5.36771e-06
0.00042086
4.68505e-06
0.0004167
4.16047e-06
0.000412956
3.74424e-06
0.000409563
3.39221e-06
0.000406486
3.07736e-06
0.000403696
2.79046e-06
0.000401166
2.52979e-06
0.000398869
2.29658e-06
0.000396777
2.09221e-06
0.000394863
1.91449e-06
0.0003931
1.76212e-06
0.000391469
1.63166e-06
0.000389946
1.52263e-06
0.000388513
1.43333e-06
0.00038715
1.36235e-06
0.000385842
1.30831e-06
0.000384572
1.26996e-06
0.000383326
1.24645e-06
0.000382089
1.23678e-06
0.000380849
1.24003e-06
0.000379593
1.25569e-06
0.000378311
1.28241e-06
0.00037699
1.32122e-06
0.000375616
1.3739e-06
0.000374173
1.44275e-06
0.000372641
1.53155e-06
0.000370996
1.64498e-06
0.000369211
1.78545e-06
0.000367254
1.95728e-06
0.000365089
2.16451e-06
0.000362683
2.40658e-06
0.00035999
2.69289e-06
0.000356957
3.03224e-06
0.000353529
3.42803e-06
0.000349641
3.8883e-06
0.000345211
4.43023e-06
0.000340137
5.07402e-06
0.000334294
5.84278e-06
0.000327526
6.76783e-06
0.000319619
7.90679e-06
0.000310287
9.33212e-06
0.000299134
1.11533e-05
0.000285739
1.33948e-05
0.00026982
1.59192e-05
0.000251379
1.84409e-05
0.000230762
2.0617e-05
0.000208542
2.22204e-05
0.000185335
2.32071e-05
0.000161751
2.35832e-05
0.000138282
2.3469e-05
0.000115343
2.29395e-05
9.32561e-05
2.20868e-05
7.24016e-05
2.08545e-05
5.32312e-05
1.91704e-05
3.62182e-05
1.70131e-05
2.18049e-05
1.44132e-05
1.02987e-05
1.15062e-05
1.64295e-06
8.65579e-06
-4.64741e-06
6.29036e-06
-9.25252e-06
4.60511e-06
-1.27595e-05
3.50701e-06
-1.56122e-05
2.85265e-06
-1.80644e-05
2.45218e-06
-2.02279e-05
2.16355e-06
-2.21441e-05
1.91624e-06
-2.38652e-05
1.72106e-06
-2.54319e-05
1.56667e-06
-2.68788e-05
1.44696e-06
-2.82153e-05
1.33651e-06
-2.94424e-05
1.22707e-06
-3.05593e-05
1.11687e-06
-3.15591e-05
9.99786e-07
-3.24274e-05
8.68326e-07
-3.31476e-05
7.20162e-07
-3.37205e-05
5.72896e-07
-3.41426e-05
4.2212e-07
-3.44135e-05
2.70882e-07
-3.45206e-05
1.07158e-07
-3.44532e-05
-6.74378e-08
-3.41941e-05
-2.59062e-07
-3.3729e-05
-4.65135e-07
-3.30393e-05
-6.89672e-07
-3.21005e-05
-9.38775e-07
-3.08953e-05
-1.20525e-06
-2.94022e-05
-1.49307e-06
-2.76057e-05
-1.79649e-06
-2.549e-05
-2.11571e-06
-2.3032e-05
-2.45803e-06
-2.01785e-05
-2.85352e-06
-1.68898e-05
-3.28865e-06
-1.31255e-05
-3.76436e-06
-9.02174e-06
-4.10373e-06
-4.46086e-06
-4.56088e-06
-7.07787e-08
-4.39008e-06
-7.07784e-08
1.38736e-05
-3.01418e-05
4.38185e-05
-6.38327e-05
7.46306e-05
-6.59457e-05
0.000101142
-5.80653e-05
0.0001235
-5.03993e-05
0.000143341
-4.57103e-05
0.000161932
-4.32425e-05
0.000179735
-4.1619e-05
0.0001967
-4.00115e-05
0.000212666
-3.81837e-05
0.000227513
-3.61654e-05
0.000241205
-3.40644e-05
0.000253735
-3.19358e-05
0.000265126
-2.98234e-05
0.000275411
-2.77485e-05
0.000284631
-2.57296e-05
0.000292839
-2.3787e-05
0.000300101
-2.19397e-05
0.000306492
-2.02018e-05
0.000312094
-1.85816e-05
0.000316989
-1.70849e-05
0.000321264
-1.5715e-05
0.000325006
-1.44729e-05
0.000328299
-1.33544e-05
0.000331224
-1.23514e-05
0.000333859
-1.14564e-05
0.000336281
-1.06626e-05
0.000338565
-9.95959e-06
0.00034078
-9.33953e-06
0.000342994
-8.79479e-06
0.000345276
-8.31595e-06
0.000347702
-7.89088e-06
0.000350349
-7.50038e-06
0.000353299
-7.1185e-06
0.000356643
-6.71168e-06
0.000360471
-6.24004e-06
0.000364853
-5.66705e-06
0.00036978
-4.96893e-06
0.000375422
-4.12063e-06
0.000381831
-3.13884e-06
0.000388824
-2.02198e-06
0.00039603
-7.78085e-07
0.000403157
4.99007e-07
0.000410114
1.68293e-06
0.000416684
2.89779e-06
0.000422688
4.0518e-06
0.000427977
5.09851e-06
0.000432449
6.00756e-06
0.000436033
6.74503e-06
0.000438654
7.28205e-06
0.000440321
7.53112e-06
0.00044111
7.49483e-06
0.000441115
7.24014e-06
0.000440491
6.85824e-06
0.000439416
6.4432e-06
0.000438036
6.06523e-06
0.000436438
5.75835e-06
0.000434654
5.52841e-06
0.00043268
5.36613e-06
0.000430502
5.25506e-06
0.00042811
5.18257e-06
0.000425498
5.14158e-06
0.000422668
5.12657e-06
0.000419626
5.1341e-06
0.00041638
5.16117e-06
0.000412938
5.20395e-06
0.000409309
5.25999e-06
0.000405504
5.32752e-06
0.000401536
5.40194e-06
0.000397416
5.48187e-06
0.000393159
5.5657e-06
0.000388777
5.65213e-06
0.000384284
5.73959e-06
0.000379695
5.82589e-06
0.000375026
5.90872e-06
0.000370291
5.99025e-06
0.000365509
6.06504e-06
0.000360697
6.13326e-06
0.000355875
6.19503e-06
0.000351066
6.25194e-06
0.000346289
6.3088e-06
0.000341563
6.3714e-06
0.000336903
6.44543e-06
0.000332319
6.54107e-06
0.000327814
6.66953e-06
0.000323391
6.82939e-06
0.000319052
7.03236e-06
0.000314788
7.2961e-06
0.000310591
7.62484e-06
0.000306449
8.03032e-06
0.000302346
8.53318e-06
0.000298262
9.15768e-06
0.000294189
9.91643e-06
0.000290113
1.08433e-05
0.000286037
1.19826e-05
0.00028199
1.33792e-05
0.000278038
1.51059e-05
0.000274226
1.72061e-05
0.000270519
1.96261e-05
0.000266788
2.21722e-05
0.000262889
2.45159e-05
0.000258786
2.63233e-05
0.000254672
2.73215e-05
0.000250901
2.73542e-05
0.000247939
2.6431e-05
0.000246213
2.46658e-05
0.000246139
2.216e-05
0.000247897
1.90968e-05
0.000251387
1.56804e-05
0.000256339
1.20616e-05
0.000262286
8.46611e-06
0.00026861
5.18226e-06
0.000274742
2.52367e-06
0.000280285
7.46665e-07
0.000285038
-1.47394e-07
0.000289084
-5.38837e-07
0.00029237
-4.33645e-07
0.000294862
-3.94197e-08
0.000296632
3.93278e-07
0.000297628
9.19698e-07
0.000297872
1.47775e-06
0.000297395
2.04313e-06
0.000296213
2.62951e-06
0.00029432
3.22938e-06
0.000291701
3.84614e-06
0.000288346
4.47166e-06
0.000284246
5.09936e-06
0.000279393
5.72141e-06
0.000273783
6.33078e-06
0.000267413
6.94301e-06
0.000260262
7.57325e-06
0.000252324
8.2081e-06
0.00024357
8.86166e-06
0.000233991
9.51145e-06
0.000223584
1.01474e-05
0.000212371
1.07479e-05
0.000200361
1.13206e-05
0.000187605
1.18177e-05
0.00017413
1.22694e-05
0.000160002
1.26348e-05
0.000145293
1.29122e-05
0.000130081
1.30964e-05
0.00011441
1.32131e-05
9.83232e-05
1.32334e-05
8.18048e-05
1.32297e-05
6.48729e-05
1.31675e-05
4.75352e-05
1.32339e-05
3.06785e-05
1.22959e-05
1.60988e-05
1.01896e-05
1.6028e-05
1.38078e-05
-4.39496e-05
4.61118e-05
-9.61367e-05
8.11145e-05
-0.000100948
0.000112127
-8.90775e-05
0.000138092
-7.63645e-05
0.000160509
-6.81274e-05
0.00018109
-6.38239e-05
0.000200762
-6.12903e-05
0.000219682
-5.89315e-05
0.000237665
-5.61666e-05
0.000254494
-5.29948e-05
0.000270049
-4.96194e-05
0.000284302
-4.61887e-05
0.00029726
-4.27814e-05
0.000308966
-3.94544e-05
0.000319464
-3.62279e-05
0.000328813
-3.31362e-05
0.000337085
-3.02113e-05
0.000344358
-2.74744e-05
0.000350717
-2.49409e-05
0.000356253
-2.2621e-05
0.000361059
-2.05211e-05
0.000365215
-1.86284e-05
0.000368806
-1.69454e-05
0.000371904
-1.54498e-05
0.000374581
-1.41336e-05
0.000376897
-1.29785e-05
0.000378905
-1.19671e-05
0.000380646
-1.1081e-05
0.000382159
-1.03073e-05
0.000383468
-9.62566e-06
0.000384596
-9.0188e-06
0.000385563
-8.46662e-06
0.00038639
-7.9455e-06
0.000387102
-7.42444e-06
0.000387726
-6.86408e-06
0.000388286
-6.22681e-06
0.000388813
-5.49569e-06
0.00038939
-4.69787e-06
0.000390119
-3.86769e-06
0.000391084
-2.98648e-06
0.000392341
-2.03532e-06
0.000393878
-1.03865e-06
0.000395612
-5.09944e-08
0.000397391
1.11905e-06
0.000399254
2.18936e-06
0.000401176
3.1759e-06
0.00040312
4.06391e-06
0.00040502
4.84483e-06
0.000406788
5.51379e-06
0.000408264
6.05511e-06
0.000409313
6.44656e-06
0.000409867
6.68531e-06
0.000409933
6.79246e-06
0.000409563
6.81336e-06
0.00040883
6.79811e-06
0.000407797
6.79135e-06
0.000406507
6.81886e-06
0.000404984
6.88837e-06
0.000403243
6.99687e-06
0.000401289
7.13643e-06
0.00039913
7.29991e-06
0.000396774
7.48285e-06
0.00039423
7.67819e-06
0.00039151
7.88124e-06
0.000388623
8.09104e-06
0.00038558
8.30327e-06
0.000382393
8.51464e-06
0.000379071
8.72344e-06
0.000375627
8.9258e-06
0.000372077
9.11533e-06
0.000368434
9.29603e-06
0.000364709
9.46416e-06
0.000360917
9.61837e-06
0.000357068
9.75738e-06
0.00035318
9.87824e-06
0.000349266
9.97924e-06
0.000345338
1.00605e-05
0.000341412
1.01216e-05
0.000337501
1.01626e-05
0.00033362
1.01896e-05
0.000329782
1.02103e-05
0.000325996
1.0231e-05
0.00032228
1.02569e-05
0.000318646
1.03033e-05
0.000315094
1.03814e-05
0.000311628
1.04988e-05
0.000308256
1.06684e-05
0.000304976
1.09048e-05
0.000301802
1.12035e-05
0.00029873
1.16051e-05
0.00029579
1.20979e-05
0.000292985
1.27216e-05
0.000290336
1.34926e-05
0.000287901
1.44171e-05
0.000285765
1.55152e-05
0.000284082
1.6789e-05
0.00028305
1.82386e-05
0.00028284
1.98356e-05
0.000283542
2.147e-05
0.000285104
2.29547e-05
0.00028736
2.40675e-05
0.000290065
2.46164e-05
0.000292957
2.44616e-05
0.000295781
2.36077e-05
0.000298306
2.21403e-05
0.000300274
2.01922e-05
0.000301441
1.79301e-05
0.000301651
1.54696e-05
0.000300767
1.29464e-05
0.000298742
1.04904e-05
0.000295635
8.28922e-06
0.000291574
6.5851e-06
0.000286844
5.47672e-06
0.000281789
4.90759e-06
0.000276574
4.67571e-06
0.000271479
4.66151e-06
0.000266674
4.76603e-06
0.000262153
4.91376e-06
0.00025798
5.09313e-06
0.000254162
5.29575e-06
0.000250675
5.52957e-06
0.000247482
5.82274e-06
0.000244496
6.21553e-06
0.000241647
6.69482e-06
0.000238851
7.26826e-06
0.000236017
7.93365e-06
0.000233069
8.66885e-06
0.000229906
9.4939e-06
0.000226463
1.03858e-05
0.00022265
1.13863e-05
0.000218371
1.2487e-05
0.000213542
1.36906e-05
0.000208071
1.49828e-05
0.000201852
1.63661e-05
0.000194785
1.78156e-05
0.000186793
1.9312e-05
0.00017778
2.08305e-05
0.000167715
2.2335e-05
0.000156554
2.37955e-05
0.000144281
2.51858e-05
0.000130903
2.64735e-05
0.000116486
2.76309e-05
0.000101052
2.86668e-05
8.46435e-05
2.96386e-05
6.72546e-05
3.05564e-05
4.92869e-05
3.12016e-05
3.25098e-05
2.90729e-05
1.87591e-05
2.39403e-05
3.47871e-05
1.38714e-05
-5.78211e-05
4.75989e-05
-0.000129864
8.50571e-05
-0.000138407
0.000119143
-0.000123164
0.000148187
-0.000105408
0.000173263
-9.32039e-05
0.00019604
-8.66013e-05
0.000217635
-8.28845e-05
0.000238412
-7.97087e-05
0.000258276
-7.6031e-05
0.000277021
-7.17399e-05
0.000294477
-6.70747e-05
0.000310567
-6.22791e-05
0.00032529
-5.75043e-05
0.000338661
-5.28258e-05
0.000350726
-4.82921e-05
0.000361533
-4.39435e-05
0.000371146
-3.98248e-05
0.000379641
-3.59686e-05
0.000387101
-3.24011e-05
0.000393615
-2.91351e-05
0.000399268
-2.61742e-05
0.000404149
-2.35099e-05
0.000408341
-2.11372e-05
0.000411919
-1.90276e-05
0.000414959
-1.71733e-05
0.000417521
-1.55412e-05
0.000419665
-1.41108e-05
0.000421441
-1.28566e-05
0.000422884
-1.17508e-05
0.000424029
-1.07702e-05
0.000424893
-9.88283e-06
0.000425489
-9.06272e-06
0.000425824
-8.28094e-06
0.000425911
-7.51148e-06
0.000425778
-6.73054e-06
0.000425472
-5.92152e-06
0.000425054
-5.07704e-06
0.000424549
-4.19356e-06
0.000423948
-3.26616e-06
0.000423252
-2.29095e-06
0.000422485
-1.26837e-06
0.000421624
-1.77645e-07
0.000420766
8.07722e-07
0.00042013
1.75521e-06
0.000419631
2.68775e-06
0.000419225
3.58158e-06
0.000418867
4.42226e-06
0.000418522
5.19011e-06
0.000418164
5.87157e-06
0.000417757
6.46176e-06
0.000417248
6.9556e-06
0.000416579
7.35477e-06
0.0004157
7.67183e-06
0.000414585
7.92801e-06
0.000413233
8.15032e-06
0.000411661
8.36275e-06
0.000409899
8.58122e-06
0.000407972
8.81482e-06
0.000405904
9.06583e-06
0.000403705
9.33497e-06
0.000401388
9.61734e-06
0.000398961
9.90927e-06
0.000396432
1.02077e-05
0.000393804
1.05088e-05
0.000391085
1.08097e-05
0.000388281
1.11073e-05
0.000385397
1.13995e-05
0.000382438
1.16815e-05
0.000379413
1.19517e-05
0.000376324
1.22038e-05
0.000373179
1.24407e-05
0.000369984
1.26592e-05
0.000366746
1.28572e-05
0.00036347
1.30328e-05
0.000360162
1.31863e-05
0.000356824
1.33177e-05
0.000353459
1.3425e-05
0.000350072
1.35083e-05
0.000346664
1.3571e-05
0.000343239
1.36147e-05
0.0003398
1.3649e-05
0.000336354
1.36771e-05
0.000332899
1.37124e-05
0.000329442
1.37603e-05
0.00032599
1.38331e-05
0.000322548
1.39404e-05
0.000319131
1.40859e-05
0.000315748
1.42879e-05
0.000312401
1.45503e-05
0.000309116
1.48899e-05
0.000305904
1.53099e-05
0.000302797
1.58285e-05
0.000299839
1.64504e-05
0.000297065
1.71911e-05
0.000294534
1.80464e-05
0.000292317
1.90064e-05
0.000290503
2.00523e-05
0.000289201
2.11375e-05
0.000288479
2.21917e-05
0.00028832
2.31143e-05
0.000288596
2.37916e-05
0.000289071
2.41413e-05
0.000289435
2.40968e-05
0.000289375
2.36683e-05
0.00028862
2.2895e-05
0.000286985
2.18273e-05
0.000284356
2.05596e-05
0.000280612
1.92134e-05
0.000275769
1.77893e-05
0.000269857
1.64024e-05
0.000263037
1.51093e-05
0.00025559
1.40315e-05
0.000247889
1.3178e-05
0.000240224
1.25725e-05
0.000232716
1.21842e-05
0.000225416
1.19616e-05
0.000218323
1.18582e-05
0.000211399
1.18387e-05
0.000204647
1.18448e-05
0.000198037
1.19056e-05
0.000191582
1.19847e-05
0.000185308
1.20964e-05
0.000179243
1.22812e-05
0.000173412
1.2525e-05
0.000167812
1.28682e-05
0.00016245
1.32961e-05
0.000157306
1.38124e-05
0.000152359
1.44413e-05
0.000147561
1.51841e-05
0.000142912
1.60353e-05
0.000138353
1.70463e-05
0.000133834
1.82097e-05
0.000129291
1.95256e-05
0.000124633
2.10243e-05
0.00011979
2.26586e-05
0.000114653
2.44485e-05
0.000109126
2.63577e-05
0.000103108
2.83526e-05
9.64814e-05
3.04223e-05
8.92121e-05
3.24551e-05
8.12284e-05
3.44571e-05
7.24867e-05
3.63726e-05
6.29015e-05
3.8252e-05
5.22872e-05
4.02529e-05
4.05932e-05
4.22504e-05
2.91479e-05
4.26469e-05
2.04704e-05
3.77504e-05
1.45721e-05
2.98387e-05
4.93592e-05
1.34585e-05
-7.12795e-05
4.7747e-05
-0.000164153
8.67762e-05
-0.000177436
0.000122905
-0.000159293
0.000153905
-0.000136408
0.000180527
-0.000119825
0.000204405
-0.000110479
0.000226787
-0.000105267
0.000248212
-0.000101133
0.00026869
-9.65085e-05
0.000288026
-9.1076e-05
0.000306035
-8.5084e-05
0.000322615
-7.8859e-05
0.000337734
-7.26233e-05
0.000351406
-6.64983e-05
0.000363676
-6.05616e-05
0.000374603
-5.48705e-05
0.000384258
-4.94794e-05
0.000392723
-4.44341e-05
0.000400092
-3.97696e-05
0.000406459
-3.55019e-05
0.000411919
-3.16345e-05
0.000416568
-2.81595e-05
0.000420491
-2.50596e-05
0.000423773
-2.23103e-05
0.000426485
-1.98847e-05
0.000428692
-1.7748e-05
0.000430452
-1.5871e-05
0.000431815
-1.42199e-05
0.000432827
-1.27628e-05
0.000433525
-1.14679e-05
0.000433947
-1.03052e-05
0.000434129
-9.2449e-06
0.000434106
-8.25801e-06
0.000433914
-7.31954e-06
0.00043359
-6.40652e-06
0.000433167
-5.49815e-06
0.00043267
-4.57991e-06
0.000432122
-3.64529e-06
0.000431551
-2.69555e-06
0.000430996
-1.73544e-06
0.000430504
-7.76346e-07
0.000430215
1.11057e-07
0.000429838
1.18499e-06
0.000429384
2.20913e-06
0.000428879
3.19257e-06
0.000428336
4.12464e-06
0.000427762
4.99627e-06
0.000427148
5.80378e-06
0.000426478
6.54179e-06
0.000425733
7.20667e-06
0.00042489
7.79897e-06
0.00042392
8.32409e-06
0.000422802
8.79044e-06
0.000421516
9.21388e-06
0.000420058
9.60807e-06
0.000418434
9.9865e-06
0.000416655
1.03607e-05
0.00041473
1.07394e-05
0.000412677
1.11193e-05
0.000410506
1.15058e-05
0.000408227
1.18968e-05
0.000405846
1.229e-05
0.000403369
1.26843e-05
0.0004008
1.30779e-05
0.000398149
1.34612e-05
0.000395417
1.38388e-05
0.000392612
1.4205e-05
0.000389736
1.45577e-05
0.000386791
1.48966e-05
0.000383781
1.52138e-05
0.000380711
1.55105e-05
0.000377584
1.5786e-05
0.000374403
1.6038e-05
0.00037117
1.62659e-05
0.000367888
1.64685e-05
0.00036456
1.66462e-05
0.000361185
1.68e-05
0.000357762
1.69309e-05
0.000354298
1.70347e-05
0.000350788
1.71247e-05
0.000347236
1.72009e-05
0.000343643
1.72701e-05
0.000340016
1.73394e-05
0.00033636
1.74165e-05
0.000332684
1.75093e-05
0.000328999
1.76253e-05
0.000325312
1.77731e-05
0.000321634
1.79657e-05
0.000317982
1.82025e-05
0.000314377
1.8495e-05
0.000310831
1.88552e-05
0.000307369
1.92911e-05
0.00030402
1.97994e-05
0.000300819
2.03918e-05
0.000297805
2.10609e-05
0.000295016
2.17945e-05
0.000292492
2.2577e-05
0.000290258
2.33716e-05
0.000288317
2.41328e-05
0.000286625
2.48062e-05
0.000285084
2.53328e-05
0.000283557
2.56683e-05
0.000281885
2.57684e-05
0.000279936
2.56177e-05
0.000277593
2.52373e-05
0.000274756
2.46648e-05
0.000271369
2.39465e-05
0.00026746
2.31223e-05
0.000263004
2.22448e-05
0.000258023
2.13842e-05
0.000252513
2.06188e-05
0.000246554
1.9991e-05
0.000240186
1.95459e-05
0.000233475
1.92829e-05
0.000226475
1.91849e-05
0.000219223
1.92135e-05
0.000211761
1.93199e-05
0.000204111
1.94883e-05
0.000196268
1.96884e-05
0.000188266
1.9907e-05
0.000180116
2.01349e-05
0.000171854
2.03589e-05
0.000163538
2.0597e-05
0.000155196
2.08665e-05
0.000146896
2.1169e-05
0.000138685
2.15063e-05
0.000130613
2.18853e-05
0.000122733
2.23211e-05
0.000115059
2.28578e-05
0.000107625
2.34694e-05
0.000100463
2.42077e-05
9.3587e-05
2.50861e-05
8.69958e-05
2.61169e-05
8.07042e-05
2.73158e-05
7.46789e-05
2.86839e-05
6.88908e-05
3.02367e-05
6.33078e-05
3.19406e-05
5.78709e-05
3.37895e-05
5.25368e-05
3.57564e-05
4.72227e-05
3.77693e-05
4.1899e-05
3.97808e-05
3.64711e-05
4.18005e-05
3.07489e-05
4.39742e-05
2.44583e-05
4.65435e-05
1.78293e-05
4.88794e-05
1.2593e-05
4.78831e-05
1.08372e-05
3.95063e-05
1.06868e-05
2.9989e-05
6.0046e-05
1.27298e-05
-8.40093e-05
4.73428e-05
-0.000198766
8.81961e-05
-0.000218289
0.000126909
-0.000198006
0.000160249
-0.000169748
0.000188458
-0.000148034
0.000213213
-0.000135234
0.000236053
-0.000128108
0.000257773
-0.000122854
0.000278496
-0.000117231
0.000298023
-0.000110603
0.000316121
-0.000103182
0.000332643
-9.53812e-05
0.000347543
-8.75234e-05
0.000360845
-7.98e-05
0.000372604
-7.2321e-05
0.000382912
-6.51785e-05
0.000391866
-5.84333e-05
0.000399581
-5.21489e-05
0.000406172
-4.63606e-05
0.000411761
-4.1091e-05
0.000416462
-3.63353e-05
0.000420383
-3.20807e-05
0.000423625
-2.83009e-05
0.000426277
-2.49623e-05
0.000428419
-2.20268e-05
0.000430124
-1.94529e-05
0.000431453
-1.71999e-05
0.000432459
-1.52268e-05
0.000433189
-1.34928e-05
0.000433681
-1.19591e-05
0.000433965
-1.05897e-05
0.000434069
-9.34873e-06
0.000434022
-8.21139e-06
0.000433846
-7.14348e-06
0.000433566
-6.12595e-06
0.000433206
-5.13833e-06
0.000432792
-4.16658e-06
0.00043235
-3.20255e-06
0.000431894
-2.23982e-06
0.000431429
-1.27043e-06
0.000430924
-2.71527e-07
0.000430287
7.47863e-07
0.000429779
1.69357e-06
0.000429343
2.6449e-06
0.000428948
3.58724e-06
0.000428566
4.5071e-06
0.000428165
5.39669e-06
0.000427721
6.24811e-06
0.000427212
7.05118e-06
0.000426613
7.80514e-06
0.000425903
8.50924e-06
0.000425062
9.1652e-06
0.000424073
9.779e-06
0.000422928
1.03588e-05
0.00042162
1.09164e-05
0.000420152
1.14542e-05
0.000418529
1.19836e-05
0.000416761
1.25075e-05
0.000414853
1.30278e-05
0.000412813
1.35458e-05
0.000410649
1.40609e-05
0.000408366
1.45722e-05
0.000405973
1.50776e-05
0.000403474
1.55766e-05
0.000400874
1.60618e-05
0.000398176
1.65362e-05
0.000395386
1.69954e-05
0.000392507
1.74371e-05
0.000389544
1.78598e-05
0.000386499
1.82588e-05
0.000383376
1.86327e-05
0.00038018
1.8982e-05
0.000376914
1.93039e-05
0.000373583
1.95975e-05
0.000370189
1.98622e-05
0.000366736
2.00999e-05
0.000363224
2.03114e-05
0.000359667
2.04876e-05
0.000356059
2.06431e-05
0.000352409
2.07753e-05
0.000348718
2.08913e-05
0.000344995
2.09936e-05
0.000341247
2.10873e-05
0.000337484
2.11793e-05
0.000333716
2.1277e-05
0.000329955
2.13863e-05
0.000326215
2.15138e-05
0.000322512
2.16685e-05
0.000318855
2.18596e-05
0.000315263
2.20864e-05
0.000311758
2.23608e-05
0.000308358
2.26908e-05
0.000305071
2.3086e-05
0.000301942
2.35212e-05
0.000298981
2.40224e-05
0.00029621
2.45646e-05
0.000293641
2.51469e-05
0.000291289
2.57231e-05
0.000289135
2.62871e-05
0.000287145
2.67954e-05
0.000285263
2.72154e-05
0.000283422
2.75091e-05
0.000281527
2.76638e-05
0.000279471
2.76733e-05
0.00027717
2.75388e-05
0.000274505
2.73295e-05
0.000271411
2.70401e-05
0.000267856
2.66776e-05
0.00026375
2.63508e-05
0.000259124
2.60104e-05
0.000253971
2.57714e-05
0.000248342
2.56203e-05
0.000242301
2.55861e-05
0.000235914
2.567e-05
0.000229232
2.58673e-05
0.000222293
2.6152e-05
0.000215091
2.65223e-05
0.00020766
2.69197e-05
0.000199969
2.73795e-05
0.000192048
2.78277e-05
0.000183882
2.8301e-05
0.000175485
2.87557e-05
0.000166882
2.92002e-05
0.000158117
2.96314e-05
0.000149226
3.006e-05
0.000140237
3.04949e-05
0.000131221
3.09016e-05
0.000122179
3.13628e-05
0.000113197
3.18403e-05
0.000104304
3.23624e-05
9.55634e-05
3.29481e-05
8.70421e-05
3.36073e-05
7.87772e-05
3.43818e-05
7.08325e-05
3.52604e-05
6.324e-05
3.62764e-05
5.60436e-05
3.74331e-05
4.92708e-05
3.87135e-05
4.29189e-05
4.01414e-05
3.69986e-05
4.16767e-05
3.14968e-05
4.32711e-05
2.63964e-05
4.48812e-05
2.16448e-05
4.65521e-05
1.70707e-05
4.85483e-05
1.25195e-05
5.10947e-05
8.31418e-06
5.30847e-05
5.89193e-06
5.03054e-05
6.61879e-06
3.87794e-05
8.30614e-06
2.83017e-05
6.83522e-05
1.14473e-05
-9.54566e-05
4.60749e-05
-0.000233393
8.90754e-05
-0.00026129
0.000131228
-0.000240158
0.000167973
-0.000206493
0.000198663
-0.000178725
0.000224836
-0.000161406
0.000248409
-0.000151681
0.000270579
-0.000145023
0.000291686
-0.000138338
0.000311543
-0.00013046
0.000329833
-0.000121473
0.000346334
-0.000111882
0.000360965
-0.000102155
0.000373757
-9.25922e-05
0.000384812
-8.33756e-05
0.000394253
-7.46198e-05
0.00040223
-6.64104e-05
0.000408903
-5.88213e-05
0.000414428
-5.18862e-05
0.000418959
-4.56223e-05
0.000422641
-4.00173e-05
0.000425603
-3.50428e-05
0.000427961
-3.06581e-05
0.000429813
-2.68146e-05
0.000431246
-2.34595e-05
0.000432331
-2.05385e-05
0.000433129
-1.79975e-05
0.000433687
-1.57845e-05
0.000434045
-1.38511e-05
0.000434237
-1.21506e-05
0.00043429
-1.06433e-05
0.00043423
-9.28851e-06
0.000434075
-8.05595e-06
0.000433846
-6.91472e-06
0.00043356
-5.84026e-06
0.000433233
-4.81106e-06
0.000432876
-3.80916e-06
0.000432493
-2.82002e-06
0.000432089
-1.83561e-06
0.000431669
-8.50544e-07
0.000431303
9.43503e-08
0.000430991
1.05975e-06
0.000430621
2.06376e-06
0.000430221
3.04522e-06
0.000429793
4.0147e-06
0.000429333
4.96743e-06
0.000428833
5.89648e-06
0.000428284
6.79753e-06
0.000427667
7.66776e-06
0.000426967
8.50505e-06
0.000426168
9.3086e-06
0.000425254
1.00793e-05
0.000424209
1.08232e-05
0.000423029
1.15394e-05
0.000421708
1.22372e-05
0.000420241
1.29209e-05
0.000418632
1.35926e-05
0.000416884
1.42558e-05
0.000414999
1.49125e-05
0.000412981
1.55639e-05
0.000410837
1.62055e-05
0.000408569
1.68401e-05
0.000406182
1.74645e-05
0.000403681
1.80771e-05
0.000401068
1.86754e-05
0.000398349
1.9255e-05
0.000395528
1.98166e-05
0.000392608
2.03566e-05
0.000389595
2.08733e-05
0.000386491
2.13621e-05
0.000383303
2.18212e-05
0.000380034
2.22508e-05
0.00037669
2.26481e-05
0.000373276
2.30115e-05
0.000369796
2.33415e-05
0.000366254
2.36424e-05
0.000362667
2.38979e-05
0.000359031
2.41242e-05
0.000355355
2.43191e-05
0.000351646
2.44843e-05
0.000347913
2.46238e-05
0.000344167
2.474e-05
0.000340416
2.48383e-05
0.000336671
2.49243e-05
0.000332945
2.50027e-05
0.000329252
2.50799e-05
0.000325602
2.51635e-05
0.00032201
2.52608e-05
0.00031849
2.53791e-05
0.000315051
2.55258e-05
0.000311717
2.56943e-05
0.000308499
2.59095e-05
0.000305423
2.61614e-05
0.000302484
2.646e-05
0.000299695
2.68116e-05
0.000297076
2.71833e-05
0.00029463
2.7593e-05
0.000292337
2.80162e-05
0.000290185
2.84395e-05
0.000288136
2.88439e-05
0.000286151
2.92004e-05
0.000284153
2.95074e-05
0.000282068
2.9749e-05
0.000279842
2.98995e-05
0.000277358
3.00227e-05
0.000274595
3.00919e-05
0.000271485
3.01504e-05
0.000267969
3.01942e-05
0.00026406
3.02595e-05
0.000259702
3.03679e-05
0.000254939
3.05347e-05
0.000249768
3.07914e-05
0.000244198
3.11557e-05
0.000238267
3.16014e-05
0.000232017
3.2117e-05
0.000225439
3.27302e-05
0.000218593
3.33682e-05
0.000211449
3.40644e-05
0.000204055
3.47729e-05
0.000196426
3.54572e-05
0.000188576
3.61506e-05
0.000180504
3.68279e-05
0.000172233
3.74705e-05
0.000163795
3.80694e-05
0.00015518
3.86756e-05
0.000146425
3.92496e-05
0.000137525
3.98015e-05
0.000128559
4.03293e-05
0.000119556
4.08434e-05
0.000110557
4.13608e-05
0.000101595
4.19106e-05
9.27371e-05
4.24649e-05
8.40398e-05
4.30792e-05
7.55461e-05
4.37541e-05
6.73316e-05
4.4491e-05
5.94426e-05
4.5322e-05
5.19252e-05
4.62309e-05
4.4845e-05
4.72216e-05
3.82079e-05
4.83138e-05
3.20527e-05
4.94263e-05
2.64024e-05
5.05315e-05
2.12338e-05
5.17207e-05
1.64906e-05
5.32915e-05
1.21005e-05
5.54848e-05
8.25533e-06
5.69299e-05
5.76479e-06
5.27959e-05
5.87462e-06
3.86696e-05
7.20103e-06
2.69753e-05
7.55532e-05
9.46901e-06
-0.000104926
4.35925e-05
-0.000267517
8.86328e-05
-0.00030633
0.000134756
-0.000286281
0.000175974
-0.000247711
0.000210349
-0.0002131
0.000238908
-0.000189965
0.000263805
-0.000176578
0.000286779
-0.000167998
0.000308532
-0.00016009
0.00032896
-0.000150888
0.000347654
-0.000140167
0.000364273
-0.0001285
0.000378676
-0.000116558
0.00039091
-0.000104826
0.00040112
-9.35862e-05
0.000409507
-8.30067e-05
0.000416292
-7.31948e-05
0.000421692
-6.42218e-05
0.000425923
-5.61168e-05
0.00042918
-4.88801e-05
0.000431643
-4.24799e-05
0.000433465
-3.68648e-05
0.000434779
-3.19715e-05
0.000435691
-2.77272e-05
0.000436293
-2.40608e-05
0.000436654
-2.09001e-05
0.000436832
-1.81759e-05
0.000436872
-1.58239e-05
0.000436805
-1.37839e-05
0.000436658
-1.20045e-05
0.000436452
-1.04365e-05
0.0004362
-9.03664e-06
0.000435912
-7.76808e-06
0.000435597
-6.59953e-06
0.00043526
-5.50338e-06
0.000434906
-4.457e-06
0.00043454
-3.44324e-06
0.000434168
-2.44825e-06
0.000433796
-1.4639e-06
0.00043343
-4.84288e-07
0.000432989
5.35877e-07
0.00043253
1.51845e-06
0.000432091
2.50255e-06
0.00043164
3.49657e-06
0.000431167
4.48711e-06
0.000430663
5.47176e-06
0.000430111
6.44795e-06
0.000429499
7.41049e-06
0.00042881
8.35602e-06
0.000428034
9.28182e-06
0.000427155
1.01866e-05
0.000426163
1.10721e-05
0.000425049
1.19373e-05
0.000423801
1.27869e-05
0.000422421
1.36175e-05
0.000420904
1.4438e-05
0.000419247
1.52497e-05
0.000417455
1.60469e-05
0.00041553
1.68378e-05
0.000413474
1.76196e-05
0.000411288
1.83918e-05
0.000408979
1.91495e-05
0.000406548
1.98954e-05
0.000403999
2.06257e-05
0.000401334
2.13405e-05
0.000398562
2.20274e-05
0.000395683
2.26948e-05
0.000392704
2.33363e-05
0.000389627
2.39499e-05
0.000386459
2.45303e-05
0.000383204
2.50762e-05
0.000379868
2.5587e-05
0.000376456
2.60597e-05
0.000372975
2.64926e-05
0.00036943
2.68868e-05
0.000365836
2.72361e-05
0.000362192
2.75415e-05
0.000358508
2.78086e-05
0.000354792
2.80346e-05
0.000351056
2.82209e-05
0.000347308
2.83714e-05
0.000343559
2.84888e-05
0.00033982
2.85778e-05
0.000336103
2.86413e-05
0.000332421
2.86848e-05
0.000328786
2.87145e-05
0.00032521
2.87391e-05
0.000321709
2.87624e-05
0.000318296
2.87916e-05
0.000314986
2.88362e-05
0.00031178
2.88999e-05
0.000308691
2.89985e-05
0.000305738
2.91145e-05
0.000302926
2.92725e-05
0.000300269
2.94688e-05
0.000297751
2.97012e-05
0.000295372
2.99715e-05
0.000293118
3.02707e-05
0.000290971
3.05865e-05
0.000288889
3.0926e-05
0.000286835
3.12539e-05
0.000284757
3.1586e-05
0.000282617
3.18891e-05
0.000280294
3.22219e-05
0.000277753
3.25642e-05
0.000274945
3.28995e-05
0.000271832
3.32637e-05
0.000268353
3.36728e-05
0.000264484
3.4129e-05
0.000260213
3.46391e-05
0.000255534
3.52128e-05
0.00025046
3.58654e-05
0.000245017
3.65994e-05
0.000239222
3.73965e-05
0.000233101
3.82375e-05
0.000226689
3.91428e-05
0.000219964
4.00925e-05
0.000212993
4.10356e-05
0.000205803
4.19629e-05
0.000198346
4.29143e-05
0.000190705
4.3792e-05
0.000182868
4.46647e-05
0.000174857
4.54811e-05
0.000166661
4.62654e-05
0.000158354
4.69825e-05
0.000149942
4.76623e-05
0.000141442
4.83007e-05
0.000132882
4.88899e-05
0.00012426
4.94657e-05
0.000115637
4.99832e-05
0.000107046
5.05017e-05
9.84943e-05
5.10168e-05
9.00415e-05
5.15319e-05
8.1743e-05
5.20526e-05
7.36191e-05
5.26148e-05
6.57503e-05
5.31909e-05
5.8144e-05
5.38372e-05
5.08658e-05
5.44997e-05
4.39731e-05
5.52066e-05
3.74747e-05
5.59247e-05
3.13931e-05
5.6613e-05
2.57604e-05
5.73534e-05
2.0554e-05
5.84979e-05
1.57203e-05
6.03185e-05
1.1274e-05
6.13762e-05
7.71645e-06
5.63535e-05
6.42014e-06
3.99659e-05
6.9114e-06
2.6484e-05
8.24646e-05
6.73594e-06
-0.000111662
3.93042e-05
-0.000300085
8.52321e-05
-0.000352258
0.000135291
-0.00033634
0.000182172
-0.000294592
0.000221945
-0.000252872
0.000254464
-0.000222484
0.000281816
-0.00020393
0.000306265
-0.000192447
0.000329064
-0.000182889
0.000350337