/*--------------------------------*- C++ -*----------------------------------*\
| =========                 |                                                 |
| \\      /  F ield         | OpenFOAM: The Open Source CFD Toolbox           |
|  \\    /   O peration     | Version:  v2006                                 |
|   \\  /    A nd           | Website:  www.openfoam.com                      |
|    \\/     M anipulation  |                                                 |
\*---------------------------------------------------------------------------*/
FoamFile
{
    version     2.0;
    format      ascii;
    class       volScalarField;
    location    "0";
    object      p;
}
// * * * * * * * * * * * * * * * * * * * * * * * * * * * * * * * * * * * * * //

dimensions      [1 -1 -2 0 0 0 0];


internalField   nonuniform List<scalar> 
67500
(
2.45619
1.6537
0.965933
1.00029
1.10779
0.980117
1.12077
0.771152
0.54946
0.658973
0.690419
0.793752
1.32103
1.83139
1.39039
1.0557
1.22185
1.71898
1.58515
0.834133
-0.509404
1.72585
1.11767
-0.328265
-0.215408
0.464195
1.15419
1.72225
2.55724
3.07001
2.96835
2.316
1.62394
1.17113
0.981881
0.885271
0.778265
0.687378
0.634729
0.595901
0.55128
0.509069
0.487416
0.497281
0.538821
0.599765
0.659955
0.702884
0.721542
0.714004
0.682612
0.633755
0.575517
0.515288
0.459679
0.415211
0.387348
0.379347
0.391955
0.423057
0.468449
0.525309
0.597781
0.692993
0.767752
0.725129
0.658802
0.603887
0.561813
0.535971
0.526438
0.529965
0.540872
0.552167
0.557343
0.552117
0.535574
0.510329
0.481587
0.455241
0.435795
0.425505
0.424735
0.433063
0.450535
0.477762
0.516357
0.568449
0.638409
0.730171
0.80227
0.780465
0.730682
0.691444
0.658476
0.633572
0.617888
0.60998
0.608824
0.613629
0.62407
0.641031
0.666819
0.704471
0.756872
0.825441
0.90791
0.996183
1.06628
1.0805
1.04932
1.01678
0.999979
1.00166
1.02471
1.06843
1.12832
1.19592
1.25547
1.29139
1.3116
1.33661
1.37389
1.4222
1.47808
1.53407
1.58205
1.62244
1.66354
1.71005
1.76048
1.81125
1.85882
1.90243
1.94404
1.98456
2.02281
2.05745
2.08814
2.11539
2.13946
2.16007
2.17698
2.19023
2.19983
2.20572
2.20807
2.20734
2.20406
2.1987
2.19165
2.18314
2.17321
2.16179
2.14872
2.1338
2.11683
2.09761
2.07601
2.05193
2.0253
1.99613
1.96445
1.93033
1.89389
1.85527
1.81465
1.77221
1.72818
1.68276
1.63621
1.58875
1.54062
1.49203
1.44321
1.39435
1.34563
1.29723
1.2493
1.20199
1.15544
1.10978
1.0651
1.02153
0.979155
0.938044
0.898264
0.859864
0.822878
0.787325
0.75321
0.720525
0.689254
0.659368
0.630832
0.603605
0.577641
0.552893
0.529311
0.506846
0.485447
0.465069
0.445664
0.427188
0.409601
0.392862
0.376935
0.361785
0.34738
0.333688
0.32068
0.30833
0.296611
0.285497
0.274967
0.264996
0.255561
0.246642
0.238216
0.230263
0.222761
0.215689
0.209026
0.202752
0.196846
0.191286
0.186053
0.181126
0.176485
0.172109
0.167979
0.164076
0.160381
0.156874
0.15354
0.15036
0.147318
0.144398
0.141585
0.138866
0.136226
0.133655
0.13114
0.128671
0.126239
0.123835
0.121454
0.119087
0.116732
0.114383
0.112038
0.109696
0.107355
0.105015
0.102676
0.100342
0.0980118
0.0956897
0.0933779
0.0910795
0.0887975
0.0865353
0.0842959
0.0820825
0.0798979
0.0777448
0.0756256
0.0735423
0.0714967
0.0694901
0.0675236
0.0655978
0.0637131
0.0618696
0.0600668
0.0583043
0.0565813
0.0548967
0.0532493
0.0516379
0.0500608
0.0485166
0.0470037
0.0455203
0.0440649
0.0426357
0.0412311
0.0398496
0.0384896
0.0371497
0.0358286
0.034525
0.0332377
0.0319657
0.030708
0.0294638
0.0282323
0.0270129
0.025805
0.0246081
0.023422
0.0222463
0.0210808
0.0199254
0.01878
0.0176447
0.0165194
0.0154043
0.0142995
0.0132053
0.0121219
0.0110495
0.0099884
0.00893898
0.00790156
0.00687649
0.00586415
0.00486493
0.00387921
0.00290742
0.00194996
0.00100725
7.97125e-05
-0.000832234
-0.00172817
-0.00260767
-0.00347033
-0.00431573
-0.00514347
-0.00595314
-0.00674437
-0.00751675
-0.00826993
-0.00900352
-0.00971718
-0.0104105
-0.0110833
-0.011735
-0.0123654
-0.0129741
-0.0135608
-0.0141252
-0.0146668
-0.0151854
-0.0156806
-0.016152
-0.0165993
-0.0170222
-0.0174204
-0.0177936
-0.0181414
-0.0184638
-0.0187606
-0.0190317
-0.019277
-0.0194966
-0.0196907
-0.0198595
-0.0200034
-0.0201227
-0.0202181
-0.0202901
-0.0203396
-0.0203674
-0.0203743
-0.0203614
-0.0203298
-0.0202805
-0.0202148
-0.0201337
-0.0200383
-0.0199298
-0.0198092
-0.0196773
-0.0195351
-0.0193831
-0.0192219
-0.0190519
-0.0188735
-0.0186868
-0.018492
-0.0182891
-0.0180783
-0.0178595
-0.0176331
-0.017399
-0.0171576
-0.0169091
-0.016654
-0.0163927
-0.0161257
-0.0158535
-0.0155767
-0.0152958
-0.0150115
-0.0147244
-0.014435
-0.0141438
-0.0138513
-0.013558
-0.0132642
-0.0129705
-0.012677
-0.0123841
-0.0120921
-0.011801
-0.0115111
-0.0112226
-0.0109355
-0.0106499
-0.0103658
-0.0100833
-0.00980245
-0.00952318
-0.00924551
-0.0089694
-0.00869482
-0.00842175
-0.00815013
-0.00787991
-0.00761105
-0.00734348
-0.00707716
-0.00681203
-0.00654803
-0.00628511
-0.00602321
-0.00576227
-0.00550225
-0.0052431
-0.00498475
-0.00472716
-0.00447029
-0.00421409
-0.00395851
-0.00370352
-0.00344906
-0.0031951
-0.0029416
-0.00268853
-0.00243584
-0.0021835
-0.00193149
-0.00167973
-0.00142833
-0.00117672
-0.00092664
-0.000671275
-0.000429867
-0.000112306
2.19122
0.856352
0.271805
0.758643
0.746288
0.488291
0.0795807
0.130466
0.13132
0.145986
0.167266
0.190574
0.220895
0.212214
0.0875395
-0.0124743
0.0394429
0.0587161
-0.363442
-1.50141
-1.72427
-0.599172
-0.201744
0.0918718
0.8302
1.70477
1.94989
1.37878
2.30862
3.10049
2.94488
1.87268
1.27301
0.871172
0.722589
0.726498
0.760373
0.816331
0.845409
0.805957
0.726425
0.655242
0.611009
0.589164
0.581677
0.57853
0.571018
0.557342
0.536083
0.504625
0.464769
0.424114
0.390023
0.364027
0.344582
0.331303
0.325051
0.327747
0.341767
0.368584
0.408315
0.46241
0.541097
0.690937
0.857162
0.760636
0.687955
0.635674
0.592664
0.562068
0.543363
0.534361
0.531156
0.529146
0.524514
0.51506
0.500299
0.481047
0.45906
0.436414
0.414795
0.395739
0.380881
0.372097
0.370843
0.377636
0.393749
0.42185
0.469318
0.571509
0.709169
0.651919
0.576817
0.540072
0.51805
0.505545
0.500748
0.501702
0.507441
0.516787
0.529242
0.546275
0.571773
0.610614
0.667078
0.744088
0.841486
0.957114
1.06113
1.06563
1.00274
0.954258
0.928173
0.921456
0.939011
0.980675
1.04316
1.1204
1.19129
1.22323
1.23174
1.25245
1.29178
1.3463
1.41182
1.47696
1.52699
1.56331
1.60215
1.64997
1.70338
1.75726
1.80598
1.84906
1.89098
1.93325
1.97366
2.00994
2.04175
2.07023
2.09585
2.11802
2.1364
2.15113
2.16219
2.16937
2.1728
2.1731
2.17088
2.1667
2.16096
2.15392
2.14557
2.13578
2.12436
2.11105
2.09564
2.07791
2.05772
2.03495
2.00956
1.98154
1.95092
1.9178
1.88228
1.84451
1.80466
1.76293
1.71953
1.6747
1.62867
1.58169
1.534
1.48581
1.43735
1.38883
1.34041
1.29229
1.24462
1.19754
1.1512
1.10572
1.06123
1.01782
0.975597
0.934634
0.894999
0.85674
0.819893
0.784478
0.750501
0.717953
0.686817
0.657064
0.628657
0.601556
0.575713
0.55108
0.527608
0.505246
0.483944
0.463656
0.444335
0.425938
0.408423
0.391751
0.375886
0.360793
0.34644
0.332797
0.319835
0.307527
0.295848
0.284772
0.274277
0.264339
0.254937
0.246049
0.237653
0.229728
0.222254
0.21521
0.208574
0.202326
0.196446
0.190912
0.185704
0.180801
0.176183
0.17183
0.167723
0.163841
0.160167
0.156681
0.153365
0.150203
0.147179
0.144275
0.141478
0.138773
0.136148
0.133588
0.131085
0.128626
0.126203
0.123807
0.121432
0.119071
0.11672
0.114375
0.112033
0.109692
0.107351
0.10501
0.102671
0.100335
0.0980028
0.0956782
0.0933636
0.0910622
0.0887772
0.086512
0.0842696
0.0820534
0.0798663
0.0777109
0.0755896
0.0735046
0.0714576
0.06945
0.0674828
0.0655567
0.063672
0.0618287
0.0600265
0.0582648
0.0565428
0.0548594
0.0532134
0.0516034
0.0500279
0.0484854
0.0469741
0.0454924
0.0440386
0.042611
0.041208
0.039828
0.0384694
0.0371309
0.035811
0.0345086
0.0332223
0.0319513
0.0306944
0.029451
0.0282201
0.0270013
0.0257938
0.0245974
0.0234115
0.022236
0.0210707
0.0199153
0.01877
0.0176345
0.0165091
0.0153939
0.0142889
0.0131945
0.0121108
0.0110381
0.00997669
0.00892693
0.00788915
0.0068637
0.00585098
0.00485135
0.00386523
0.00289303
0.00193515
0.000992023
6.40649e-05
-0.000848301
-0.00174465
-0.00262457
-0.00348763
-0.00433343
-0.00516156
-0.00597162
-0.00676322
-0.00753597
-0.00828951
-0.00902345
-0.00973745
-0.0104312
-0.0111042
-0.0117563
-0.012387
-0.0129961
-0.0135831
-0.0141478
-0.0146898
-0.0152087
-0.0157042
-0.0161759
-0.0166236
-0.0170468
-0.0174452
-0.0178186
-0.0181666
-0.0184891
-0.0187859
-0.0190569
-0.019302
-0.0195214
-0.0197151
-0.0198834
-0.0200266
-0.0201452
-0.0202398
-0.020311
-0.0203595
-0.0203863
-0.0203923
-0.0203785
-0.020346
-0.0202959
-0.0202294
-0.0201476
-0.0200517
-0.0199428
-0.0198219
-0.01969
-0.0195477
-0.0193959
-0.0192349
-0.0190652
-0.0188871
-0.0187007
-0.0185061
-0.0183033
-0.0180925
-0.0178736
-0.0176468
-0.0174123
-0.0171702
-0.016921
-0.0166651
-0.0164029
-0.0161348
-0.0158616
-0.0155838
-0.0153019
-0.0150167
-0.0147286
-0.0144383
-0.0141463
-0.0138531
-0.0135591
-0.0132648
-0.0129706
-0.0126767
-0.0123834
-0.0120911
-0.0117998
-0.0115097
-0.011221
-0.0109338
-0.0106481
-0.0103639
-0.0100814
-0.00980054
-0.00952128
-0.00924362
-0.00896755
-0.00869301
-0.00841999
-0.00814842
-0.00787826
-0.00760945
-0.00734195
-0.00707569
-0.00681063
-0.00654669
-0.00628383
-0.00602199
-0.00576111
-0.00550115
-0.00524205
-0.00498376
-0.00472622
-0.0044694
-0.00421325
-0.00395772
-0.00370277
-0.00344836
-0.00319444
-0.00294099
-0.00268795
-0.00243531
-0.00218301
-0.00193103
-0.0016793
-0.00142794
-0.00117636
-0.000926319
-0.000670991
-0.000429618
-0.000112198
3.46894
2.59915
0.684121
0.483238
0.432828
0.206822
0.0873666
0.0800765
0.0955212
0.113762
0.140678
0.18411
0.197917
0.106829
0.0859937
0.0780711
0.123104
0.145544
-0.0234356
-0.258076
-1.06404
-0.827553
0.200107
1.29747
1.37537
1.24049
2.03801
2.76996
3.74801
4.43194
3.00598
-0.145797
-0.172312
0.0656383
0.24215
0.23138
0.233335
0.287659
0.347613
0.347589
0.317668
0.302642
0.30925
0.324722
0.339241
0.337872
0.314315
0.284596
0.264924
0.256553
0.254535
0.254991
0.25662
0.258222
0.258921
0.259035
0.25776
0.254545
0.249936
0.244439
0.240176
0.246013
0.274669
0.393012
0.750368
0.401514
0.311065
0.299835
0.301192
0.308212
0.319466
0.332409
0.341422
0.340296
0.32395
0.290655
0.243955
0.192289
0.147237
0.118719
0.109435
0.116242
0.134154
0.159872
0.192486
0.233347
0.287416
0.359878
0.450962
0.656946
1.02706
0.808858
0.690186
0.624564
0.563807
0.519513
0.487977
0.465873
0.45166
0.443143
0.438364
0.436976
0.440953
0.454467
0.485905
0.539225
0.617564
0.750585
0.942729
0.913794
0.775856
0.698756
0.669142
0.670546
0.706395
0.774494
0.871977
0.997975
1.11824
1.13684
1.10911
1.11616
1.15106
1.20645
1.28216
1.361
1.40882
1.43019
1.46319
1.51585
1.5798
1.64559
1.69967
1.74228
1.78579
1.83269
1.87786
1.91689
1.94979
1.98
2.00849
2.03372
2.05503
2.07288
2.08712
2.09695
2.10247
2.1047
2.10453
2.10261
2.09951
2.09545
2.09031
2.08384
2.07575
2.06571
2.05343
2.03869
2.02131
2.00118
1.97825
1.95251
1.92403
1.89289
1.85921
1.82313
1.78483
1.74451
1.70239
1.65871
1.61372
1.56769
1.52086
1.47346
1.42572
1.37786
1.33005
1.28248
1.23531
1.18869
1.14276
1.09766
1.05352
1.01043
0.968515
0.927844
0.888492
0.850512
0.813942
0.778802
0.745099
0.712824
0.681957
0.652469
0.624322
0.597471
0.57187
0.547468
0.524215
0.502059
0.480952
0.460846
0.441695
0.423456
0.406088
0.389553
0.373815
0.35884
0.344597
0.331056
0.318189
0.305969
0.294373
0.283375
0.272952
0.263084
0.253747
0.244921
0.236584
0.228717
0.221298
0.214307
0.207723
0.201526
0.195694
0.190208
0.185047
0.180189
0.175616
0.171306
0.167241
0.1634
0.159764
0.156316
0.153036
0.149909
0.146917
0.144045
0.141278
0.1386
0.136
0.133464
0.130982
0.128542
0.126136
0.123756
0.121393
0.119043
0.1167
0.114361
0.112022
0.109683
0.107343
0.105002
0.10266
0.10032
0.0979835
0.0956536
0.0933332
0.0910257
0.0887345
0.0864631
0.0842149
0.0819931
0.0798009
0.0776409
0.0755157
0.0734274
0.0713779
0.0693684
0.0674
0.0654734
0.0635888
0.0617462
0.0599452
0.0581852
0.0564653
0.0547844
0.0531412
0.0515342
0.0499619
0.0484226
0.0469147
0.0454364
0.0439859
0.0425616
0.0411618
0.0397848
0.0384291
0.0370933
0.035776
0.0344758
0.0331917
0.0319226
0.0306675
0.0294255
0.0281959
0.0269782
0.0257716
0.0245759
0.0233907
0.0222156
0.0210505
0.0198952
0.0187498
0.0176143
0.0164887
0.0153731
0.0142678
0.0131729
0.0120886
0.0110153
0.00995329
0.00890284
0.00786434
0.00683814
0.00582464
0.00482422
0.00383728
0.00286425
0.00190554
0.00096157
3.27671e-05
-0.000880443
-0.00177763
-0.00265839
-0.00352228
-0.0043689
-0.00519783
-0.00600868
-0.00680106
-0.00757457
-0.00832885
-0.00906353
-0.00977825
-0.0104727
-0.0111464
-0.0117992
-0.0124306
-0.0130404
-0.0136281
-0.0141935
-0.0147362
-0.0152558
-0.015752
-0.0162244
-0.0166727
-0.0170966
-0.0174956
-0.0178696
-0.0182181
-0.0185411
-0.0188382
-0.0191095
-0.0193548
-0.0195741
-0.0197677
-0.0199356
-0.0200783
-0.0201962
-0.0202898
-0.0203598
-0.0204068
-0.0204318
-0.0204356
-0.0204194
-0.0203842
-0.0203312
-0.0202615
-0.0201765
-0.0200773
-0.0199651
-0.019841
-0.019706
-0.019561
-0.0194066
-0.0192435
-0.019072
-0.0188924
-0.0187049
-0.0185095
-0.0183062
-0.018095
-0.017876
-0.0176491
-0.0174146
-0.0171726
-0.0169234
-0.0166674
-0.0164051
-0.016137
-0.0158635
-0.0155855
-0.0153033
-0.0150177
-0.0147293
-0.0144387
-0.0141463
-0.0138527
-0.0135584
-0.0132638
-0.0129693
-0.0126751
-0.0123816
-0.012089
-0.0117976
-0.0115074
-0.0112186
-0.0109313
-0.0106455
-0.0103614
-0.0100789
-0.00979799
-0.00951876
-0.00924116
-0.00896514
-0.00869068
-0.00841773
-0.00814625
-0.00787618
-0.00760747
-0.00734006
-0.0070739
-0.00680893
-0.00654509
-0.00628232
-0.00602058
-0.0057598
-0.00549993
-0.00524091
-0.00498271
-0.00472526
-0.00446852
-0.00421245
-0.003957
-0.00370212
-0.00344778
-0.00319393
-0.00294054
-0.00268757
-0.00243499
-0.00218275
-0.00193083
-0.00167916
-0.00142786
-0.00117634
-0.000926351
-0.000671088
-0.000429728
-0.000112414
3.29116
1.46622
0.567173
0.444068
0.392597
0.231799
0.0889866
0.0470776
0.0314813
0.0386484
0.104142
0.200396
0.226077
0.17503
0.120656
0.136236
0.164896
0.174797
0.211352
0.456385
0.344895
-0.242747
0.630314
1.11328
1.6737
0.991548
0.713144
2.36265
5.2154
8.93389
9.45645
0.184864
0.310566
0.29782
0.269805
0.256095
0.274454
0.300653
0.31961
0.328633
0.329992
0.326892
0.321677
0.315781
0.309802
0.30365
0.296748
0.288595
0.279891
0.272494
0.267862
0.265952
0.265319
0.264376
0.262278
0.259151
0.255626
0.252221
0.249128
0.246725
0.246491
0.25241
0.269692
0.287855
0.25172
0.161121
0.157808
0.157162
0.153442
0.149979
0.147741
0.146598
0.146292
0.146529
0.14692
0.147228
0.147507
0.148095
0.149218
0.150592
0.151752
0.152503
0.152872
0.153106
0.153751
0.155198
0.158224
0.167023
0.193583
0.277406
1.34281
0.46186
0.221298
0.220141
0.219141
0.21488
0.211703
0.211869
0.210299
0.202476
0.187626
0.173144
0.16969
0.179214
0.227123
0.322558
0.464628
0.755451
1.28767
1.01476
0.755091
0.676867
0.614013
0.568415
0.557377
0.578591
0.633733
0.761978
0.972984
0.933814
0.815235
0.798444
0.846281
0.936282
1.06691
1.20738
1.25773
1.24487
1.2701
1.33012
1.40596
1.48734
1.54213
1.5748
1.61771
1.67312
1.72913
1.77448
1.80929
1.84316
1.87747
1.9079
1.93339
1.95586
1.97499
1.98861
1.99683
2.00166
2.00444
2.00588
2.00676
2.00731
2.0071
2.00571
2.00272
1.99765
1.99013
1.9799
1.96676
1.95057
1.93132
1.90902
1.88373
1.85557
1.82465
1.79112
1.75515
1.71694
1.67673
1.63478
1.59135
1.54673
1.50118
1.45497
1.40831
1.36144
1.31454
1.2678
1.22138
1.17544
1.13013
1.0856
1.04197
0.999363
0.957895
0.917658
0.878728
0.841165
0.805009
0.770283
0.736992
0.705128
0.674668
0.64558
0.617823
0.591351
0.566113
0.542058
0.519133
0.497286
0.476469
0.456632
0.437731
0.419724
0.40257
0.386233
0.370677
0.355871
0.341784
0.328387
0.315655
0.303561
0.292082
0.281194
0.270877
0.261108
0.251867
0.243134
0.234886
0.227106
0.219772
0.212863
0.20636
0.200243
0.194489
0.18908
0.183993
0.179209
0.174707
0.170467
0.166469
0.162694
0.159121
0.155734
0.152513
0.149441
0.146503
0.14368
0.14096
0.138326
0.135767
0.133268
0.13082
0.128411
0.126032
0.123675
0.121333
0.119
0.11667
0.114341
0.112009
0.109674
0.107335
0.104992
0.102647
0.100302
0.0979585
0.0956207
0.0932916
0.0909748
0.0886741
0.0863932
0.0841358
0.0819053
0.0797051
0.077538
0.0754066
0.0733132
0.0712595
0.0692469
0.0672766
0.065349
0.0634644
0.0616227
0.0598235
0.058066
0.0563493
0.054672
0.053033
0.0514305
0.049863
0.0483287
0.0468258
0.0453526
0.0439071
0.0424877
0.0410927
0.0397203
0.038369
0.0370372
0.0357237
0.034427
0.0331461
0.0318798
0.0306272
0.0293875
0.0281599
0.0269438
0.0257386
0.024544
0.0233595
0.022185
0.0210203
0.0198652
0.0187198
0.0175841
0.0164581
0.0153421
0.0142361
0.0131405
0.0120554
0.0109812
0.00991823
0.00886675
0.00782716
0.00679983
0.00578515
0.00478353
0.00379537
0.00282109
0.00186113
0.000915894
-1.41728e-05
-0.000928643
-0.00182709
-0.00270907
-0.00357419
-0.004422
-0.00525211
-0.00606411
-0.00685761
-0.00763221
-0.00838756
-0.00912327
-0.009839
-0.0105344
-0.0112091
-0.0118629
-0.0124953
-0.013106
-0.0136947
-0.0142611
-0.0148048
-0.0153255
-0.0158227
-0.0162961
-0.0167454
-0.0171702
-0.01757
-0.0179446
-0.0182937
-0.0186169
-0.018914
-0.019185
-0.0194297
-0.0196481
-0.0198404
-0.0200068
-0.0201476
-0.0202633
-0.0203544
-0.0204217
-0.020466
-0.0204881
-0.0204892
-0.0204702
-0.0204324
-0.020377
-0.0203053
-0.0202185
-0.0201179
-0.0200047
-0.0198801
-0.019745
-0.0196003
-0.0194466
-0.0192844
-0.019114
-0.0189355
-0.018749
-0.0185544
-0.0183515
-0.0181403
-0.0179207
-0.0176929
-0.0174568
-0.0172127
-0.0169611
-0.0167024
-0.016437
-0.0161657
-0.015889
-0.0156076
-0.0153223
-0.0150336
-0.0147423
-0.0144489
-0.014154
-0.0138582
-0.0135618
-0.0132655
-0.0129694
-0.0126739
-0.0123793
-0.0120858
-0.0117936
-0.0115028
-0.0112135
-0.0109259
-0.0106399
-0.0103556
-0.010073
-0.00979208
-0.00951289
-0.00923535
-0.00895944
-0.00868511
-0.00841231
-0.008141
-0.00787111
-0.00760258
-0.00733537
-0.0070694
-0.00680462
-0.00654097
-0.0062784
-0.00601683
-0.00575623
-0.00549654
-0.0052377
-0.00497966
-0.00472237
-0.00446579
-0.00420986
-0.00395455
-0.00369982
-0.00344561
-0.00319189
-0.00293863
-0.00268578
-0.00243332
-0.00218119
-0.00192939
-0.00167783
-0.00142663
-0.00117522
-0.000925328
-0.000670178
-0.000428926
-0.000112051
2.29643
0.395022
0.501818
0.486801
0.432593
0.271014
0.0354899
0.0153432
0.0324804
0.0460996
0.123561
0.218632
0.239626
0.164806
0.0330339
0.039754
0.0873679
0.0735438
0.231627
-0.269365
1.17281
1.86622
0.595785
0.244938
0.197287
0.152269
0.173455
0.623333
2.95834
3.03202
1.04129
0.245295
0.24683
0.220857
0.199713
0.221938
0.266932
0.2971
0.315535
0.324207
0.326214
0.324687
0.321382
0.316934
0.311319
0.304368
0.29607
0.28676
0.277473
0.270143
0.266072
0.264899
0.264737
0.263952
0.261883
0.258669
0.254863
0.250939
0.247093
0.243343
0.240199
0.239447
0.241594
0.244235
0.227824
0.201492
0.184497
0.173923
0.16667
0.161674
0.15842
0.156493
0.155552
0.155308
0.155498
0.155947
0.156552
0.157181
0.15772
0.15823
0.15881
0.159384
0.159691
0.159527
0.159165
0.159334
0.160807
0.166349
0.183262
0.207107
0.199172
0.106935
0.129721
0.141009
0.145341
0.1464
0.146373
0.147079
0.148641
0.149983
0.149218
0.146769
0.144488
0.144953
0.151366
0.163263
0.190572
0.265751
1.706
0.869385
0.164026
0.0471691
0.0193077
0.0105045
0.0543875
0.166131
0.339363
0.649163
1.21689
0.915746
0.713826
0.70683
0.703731
0.739673
0.856003
1.06563
1.06041
0.938211
0.931746
1.01045
1.1345
1.27895
1.33996
1.35066
1.39807
1.46987
1.5419
1.59027
1.61922
1.65467
1.69718
1.73566
1.76747
1.79806
1.82603
1.84525
1.85626
1.86385
1.87009
1.87569
1.882
1.88907
1.89576
1.9014
1.90542
1.90709
1.90598
1.9018
1.89431
1.88338
1.86901
1.85125
1.83022
1.80603
1.77882
1.7487
1.71584
1.68045
1.64278
1.6031
1.56173
1.51897
1.47512
1.43046
1.38524
1.33969
1.29399
1.24835
1.20293
1.15789
1.11339
1.06959
1.02663
0.984654
0.943775
0.904105
0.865729
0.828715
0.793108
0.758933
0.726194
0.694881
0.664968
0.636418
0.609187
0.583224
0.558475
0.534886
0.512403
0.490972
0.470545
0.451072
0.432511
0.41482
0.39796
0.381895
0.366593
0.352022
0.338153
0.324959
0.312415
0.300497
0.289181
0.278447
0.268274
0.258641
0.249528
0.240916
0.232785
0.225117
0.21789
0.211086
0.204685
0.198666
0.193009
0.187694
0.182699
0.178005
0.173591
0.169436
0.165521
0.161826
0.158331
0.155018
0.151869
0.148866
0.145992
0.143232
0.140569
0.137991
0.135482
0.13303
0.130625
0.128254
0.125909
0.123582
0.121264
0.118951
0.116638
0.11432
0.111996
0.109664
0.107325
0.104979
0.102628
0.100275
0.0979217
0.0955725
0.093231
0.0909013
0.0885875
0.0862938
0.0840241
0.0817822
0.0795714
0.077395
0.0752556
0.0731556
0.0710968
0.0690806
0.067108
0.0651795
0.0632954
0.0614553
0.0596588
0.057905
0.0561928
0.0545208
0.0528876
0.0512914
0.0497305
0.048203
0.046707
0.0452407
0.0438021
0.0423894
0.0410008
0.0396346
0.0382891
0.0369629
0.0356544
0.0343624
0.0330858
0.0318233
0.0305741
0.0293374
0.0281123
0.0268983
0.025695
0.0245017
0.0233184
0.0221446
0.0209804
0.0198255
0.0186801
0.017544
0.0164176
0.0153009
0.0141941
0.0130975
0.0120113
0.0109359
0.00987159
0.00881872
0.00777766
0.00674881
0.00573256
0.00472933
0.00373952
0.00276358
0.00180192
0.000854987
-7.67866e-05
-0.000992963
-0.00189311
-0.00277679
-0.00364358
-0.00449305
-0.0053248
-0.0061384
-0.00693346
-0.00770961
-0.00846646
-0.00920365
-0.00992083
-0.0106177
-0.0112938
-0.0119489
-0.0125827
-0.0131948
-0.013785
-0.0143528
-0.0148979
-0.01542
-0.0159186
-0.0163935
-0.0168442
-0.0172703
-0.0176715
-0.0180474
-0.0183977
-0.018722
-0.0190201
-0.0192918
-0.019537
-0.0197557
-0.0199479
-0.0201138
-0.0202537
-0.020368
-0.0204572
-0.0205219
-0.020563
-0.0205813
-0.0205778
-0.0205536
-0.0205099
-0.020448
-0.0203694
-0.0202753
-0.0201673
-0.0200467
-0.0199149
-0.019773
-0.0196221
-0.0194629
-0.019296
-0.0191218
-0.0189403
-0.0187517
-0.0185556
-0.018352
-0.0181404
-0.0179209
-0.0176933
-0.0174577
-0.0172141
-0.0169628
-0.0167044
-0.0164392
-0.0161679
-0.0158911
-0.0156094
-0.0153237
-0.0150346
-0.0147427
-0.0144488
-0.0141533
-0.0138569
-0.01356
-0.0132631
-0.0129665
-0.0126705
-0.0123755
-0.0120817
-0.0117892
-0.0114982
-0.0112087
-0.0109209
-0.0106349
-0.0103506
-0.010068
-0.00978714
-0.00950802
-0.00923059
-0.00895481
-0.00868063
-0.00840799
-0.00813685
-0.00786714
-0.00759881
-0.00733178
-0.00706601
-0.00680142
-0.00653797
-0.00627558
-0.00601421
-0.00575379
-0.00549428
-0.00523561
-0.00497774
-0.00472062
-0.00446419
-0.00420842
-0.00395326
-0.00369867
-0.0034446
-0.00319102
-0.00293789
-0.00268517
-0.00243283
-0.00218082
-0.00192914
-0.00167769
-0.0014266
-0.0011753
-0.000925517
-0.000670493
-0.000429258
-0.00011256
1.9346
0.518366
0.512728
0.502917
0.440684
0.296964
0.0604365
0.0375069
0.0408139
0.0362212
0.0765992
0.25234
0.229242
0.170308
0.173442
0.873474
1.52047
2.56545
1.10279
0.154482
0.200775
0.240375
0.244187
0.234936
0.202813
0.167861
0.143587
0.136561
0.252615
0.306377
0.288059
0.24599
0.244757
0.221285
0.204713
0.224343
0.262069
0.288641
0.304694
0.313279
0.316885
0.317105
0.314923
0.311082
0.306175
0.300562
0.294332
0.287495
0.28051
0.274262
0.269635
0.266732
0.264694
0.262421
0.259411
0.255686
0.25151
0.247143
0.242774
0.238453
0.234347
0.230884
0.227495
0.222204
0.209211
0.198099
0.186898
0.177328
0.169946
0.16449
0.160651
0.158119
0.156631
0.155953
0.155863
0.156169
0.156724
0.157383
0.15802
0.158621
0.159135
0.159415
0.159418
0.159086
0.158469
0.158166
0.158797
0.16119
0.167479
0.180868
0.190607
0.17188
0.16356
0.159324
0.156856
0.155312
0.154372
0.153735
0.153466
0.153503
0.153841
0.154468
0.155576
0.157532
0.159993
0.166529
0.186665
0.224661
0.207159
-0.0215517
0.0638117
0.0938789
0.106368
0.115793
0.126592
0.143708
0.167872
0.21489
1.95479
0.742837
-0.035113
-0.0122047
0.0913874
0.260358
0.586511
1.20848
0.96226
0.729337
0.771985
0.817111
0.915164
1.13242
1.1327
1.04663
1.07666
1.18009
1.30438
1.36032
1.37469
1.41876
1.47789
1.5251
1.55951
1.59946
1.63993
1.66528
1.67787
1.68867
1.69958
1.71043
1.72398
1.73994
1.75569
1.7705
1.78372
1.79407
1.80109
1.80457
1.80414
1.79971
1.79138
1.77926
1.76352
1.74433
1.72178
1.69597
1.66703
1.63516
1.60064
1.56378
1.52495
1.48449
1.44273
1.4
1.35656
1.31265
1.26846
1.22419
1.18001
1.13608
1.09258
1.04968
1.00754
0.966321
0.92616
0.887181
0.849487
0.813152
0.778227
0.744739
0.712692
0.682071
0.652846
0.624974
0.598405
0.573081
0.548945
0.525938
0.504003
0.483087
0.463137
0.444108
0.425956
0.408642
0.39213
0.376385
0.361378
0.347079
0.333461
0.320501
0.308174
0.296459
0.285335
0.274782
0.264781
0.255312
0.246358
0.2379
0.229918
0.222395
0.215311
0.208647
0.202383
0.196499
0.190975
0.185789
0.180923
0.176354
0.172062
0.168026
0.164226
0.160643
0.157256
0.154046
0.150996
0.148088
0.145304
0.142629
0.140046
0.137542
0.135102
0.132715
0.130367
0.128049
0.12575
0.123462
0.121179
0.118894
0.116602
0.114301
0.111988
0.109662
0.107324
0.104975
0.102617
0.100253
0.097887
0.0955231
0.0931655
0.090819
0.0884881
0.0861774
0.0838914
0.0816341
0.0794093
0.0772204
0.0750702
0.0729613
0.0708954
0.068874
0.0668982
0.0649683
0.0630844
0.0612462
0.0594529
0.0577037
0.0559971
0.0543317
0.0527058
0.0511175
0.0495649
0.048046
0.0465588
0.0451012
0.0436713
0.042267
0.0408866
0.0395281
0.03819
0.0368707
0.0355686
0.0342825
0.0330111
0.0317534
0.0305085
0.0292754
0.0280535
0.0268423
0.0256411
0.0244496
0.0232675
0.0220947
0.020931
0.0197763
0.0186308
0.0174944
0.0163673
0.0152497
0.0141418
0.013044
0.0119564
0.0108794
0.00981345
0.00875881
0.0077159
0.00668512
0.00566689
0.00466162
0.00366975
0.00269171
0.00172794
0.000778889
-0.000155001
-0.00107328
-0.00197552
-0.00286126
-0.00373008
-0.00458154
-0.00541522
-0.00623072
-0.00702762
-0.00780555
-0.00856413
-0.009303
-0.0100218
-0.0107203
-0.011398
-0.0120547
-0.01269
-0.0133038
-0.0138955
-0.014465
-0.0150118
-0.0155356
-0.0160359
-0.0165125
-0.0169649
-0.0173925
-0.0177951
-0.0181721
-0.0185231
-0.0188478
-0.0191459
-0.019417
-0.0196611
-0.019878
-0.0200679
-0.0202309
-0.0203674
-0.0204779
-0.0205629
-0.0206232
-0.0206597
-0.0206734
-0.0206653
-0.0206369
-0.0205892
-0.0205238
-0.0204422
-0.0203457
-0.0202361
-0.0201146
-0.0199827
-0.0198416
-0.019692
-0.0195349
-0.0193705
-0.0191989
-0.0190202
-0.0188338
-0.0186395
-0.0184368
-0.0182253
-0.0180048
-0.017775
-0.0175362
-0.0172885
-0.0170324
-0.0167685
-0.0164974
-0.0162199
-0.0159368
-0.015649
-0.0153572
-0.0150623
-0.0147651
-0.0144661
-0.0141662
-0.0138657
-0.0135652
-0.0132652
-0.0129659
-0.0126677
-0.0123708
-0.0120754
-0.0117817
-0.0114897
-0.0111995
-0.0109112
-0.0106247
-0.0103402
-0.0100575
-0.00977668
-0.00949765
-0.00922038
-0.00894481
-0.00867087
-0.00839852
-0.00812768
-0.0078583
-0.00759029
-0.0073236
-0.00705816
-0.00679391
-0.00653079
-0.00626873
-0.00600768
-0.00574757
-0.00548836
-0.00522998
-0.00497239
-0.00471555
-0.00445939
-0.00420387
-0.00394896
-0.0036946
-0.00344076
-0.0031874
-0.00293448
-0.00268197
-0.00242983
-0.00217802
-0.00192652
-0.00167526
-0.00142435
-0.00117323
-0.000923614
-0.000668778
-0.000427741
-0.000111825
1.84111
0.542902
0.485217
0.463572
0.399952
0.322938
0.261726
-0.323169
0.507694
0.332031
0.298715
0.23616
0.218629
0.206004
0.212471
0.241585
0.267705
0.26021
0.239495
0.263959
0.273282
0.260856
0.2477
0.231795
0.203833
0.175834
0.159797
0.153612
0.17692
0.218353
0.231876
0.240385
0.244894
0.239274
0.232448
0.242859
0.264454
0.283287
0.296601
0.305162
0.309927
0.311663
0.311042
0.308674
0.305016
0.300328
0.294794
0.28869
0.282462
0.276652
0.271726
0.267783
0.264446
0.261182
0.257702
0.253969
0.250073
0.246136
0.242274
0.238581
0.235149
0.231852
0.227617
0.220461
0.209618
0.198859
0.189065
0.180776
0.174137
0.168981
0.165109
0.162317
0.160405
0.159189
0.158501
0.158195
0.158151
0.158274
0.158485
0.158725
0.158933
0.159006
0.15892
0.158723
0.158386
0.158043
0.158115
0.159005
0.161229
0.164526
0.162605
0.16427
0.162738
0.159796
0.157466
0.15574
0.154455
0.153539
0.152965
0.152659
0.152692
0.153059
0.153687
0.154426
0.155255
0.157536
0.163989
0.172758
0.159343
0.125149
0.123777
0.125773
0.128018
0.130581
0.13486
0.142137
0.158071
0.184517
0.164174
0.0169685
0.0853928
0.121785
0.149883
0.181997
0.207775
1.95473
0.963225
-0.0497974
0.0195404
0.234554
0.547968
1.18938
0.949035
0.797226
0.872543
0.966517
1.15056
1.15275
1.08364
1.11394
1.201
1.2661
1.30062
1.36266
1.42954
1.45879
1.46434
1.47488
1.48964
1.50577
1.52963
1.55859
1.5863
1.61292
1.63782
1.65874
1.6757
1.68858
1.69663
1.69992
1.6987
1.69321
1.68379
1.67064
1.65378
1.63321
1.60902
1.58139
1.55061
1.51708
1.48123
1.44346
1.40418
1.36374
1.32242
1.28048
1.2381
1.19547
1.15276
1.11015
1.06782
1.02596
0.984763
0.944415
0.905081
0.866907
0.83001
0.79448
0.760372
0.727714
0.696509
0.666734
0.638351
0.61131
0.585551
0.561011
0.537625
0.515331
0.494068
0.473781
0.454421
0.435941
0.4183
0.40146
0.385388
0.370052
0.355424
0.341476
0.328183
0.315524
0.303476
0.29202
0.281136
0.270806
0.261013
0.251741
0.242971
0.234688
0.226873
0.21951
0.212581
0.206067
0.199949
0.194208
0.188823
0.183774
0.179041
0.174603
0.170438
0.166527
0.162849
0.159382
0.156109
0.153009
0.150065
0.147258
0.14457
0.141986
0.13949
0.137067
0.134703
0.132385
0.130101
0.127839
0.125591
0.123347
0.1211
0.118844
0.116575
0.114289
0.111985
0.109663
0.107323
0.104966
0.102597
0.100219
0.097836
0.0954527
0.0930746
0.0907068
0.0883547
0.0860234
0.0837177
0.0814423
0.0792011
0.0769977
0.0748354
0.0727165
0.070643
0.0686164
0.0666376
0.0647069
0.0628242
0.0609891
0.0592007
0.0574577
0.0557586
0.0541018
0.0524852
0.050907
0.0493649
0.0478568
0.0463805
0.0449338
0.0435145
0.0421206
0.0407502
0.0394012
0.0380721
0.0367611
0.0354667
0.0341877
0.0329228
0.0316708
0.0304309
0.0292023
0.0279842
0.026776
0.0255774
0.024388
0.0232074
0.0220356
0.0208725
0.019718
0.0185723
0.0174353
0.0163074
0.0151887
0.0140795
0.0129801
0.0118908
0.0108119
0.00974391
0.00868712
0.00764196
0.00660885
0.00558821
0.00458048
0.0035861
0.00260551
0.00163916
0.000687508
-0.000248994
-0.0011699
-0.00207475
-0.00296309
-0.00383449
-0.00468851
-0.0055247
-0.00634267
-0.00714199
-0.00792228
-0.00868316
-0.00942428
-0.0101453
-0.0108459
-0.0115257
-0.0121845
-0.012822
-0.0134378
-0.0140316
-0.0146032
-0.0151522
-0.0156782
-0.0161809
-0.0166598
-0.0171145
-0.0175445
-0.0179494
-0.0183287