/*--------------------------------*- C++ -*----------------------------------*\
| =========                 |                                                 |
| \\      /  F ield         | OpenFOAM: The Open Source CFD Toolbox           |
|  \\    /   O peration     | Version:  v2006                                 |
|   \\  /    A nd           | Website:  www.openfoam.com                      |
|    \\/     M anipulation  |                                                 |
\*---------------------------------------------------------------------------*/
FoamFile
{
    version     2.0;
    format      ascii;
    class       volScalarField;
    location    "13";
    object      p_rgh;
}
// * * * * * * * * * * * * * * * * * * * * * * * * * * * * * * * * * * * * * //

dimensions      [1 -1 -2 0 0 0 0];


internalField   nonuniform List<scalar> 
50000
(
2712.78
2712.97
2713.33
2713.88
2714.6
2715.5
2716.58
2717.83
2719.26
2720.86
2722.63
2724.56
2726.65
2728.89
2731.29
2733.83
2736.52
2739.33
2742.28
2745.34
2748.52
2751.81
2755.19
2758.66
2762.21
2765.84
2769.52
2773.26
2777.04
2780.86
2784.7
2788.55
2792.4
2796.24
2800.06
2803.86
2807.61
2811.31
2814.94
2818.5
2821.98
2825.36
2828.63
2831.78
2834.79
2837.67
2840.39
2842.95
2845.33
2847.54
2849.56
2851.38
2852.98
2854.37
2855.54
2856.47
2857.15
2857.59
2857.78
2857.7
2857.35
2856.73
2855.83
2854.65
2853.18
2851.41
2849.36
2847
2844.35
2841.4
2838.14
2834.58
2830.71
2826.55
2822.08
2817.31
2812.24
2806.88
2801.22
2795.27
2789.04
2782.52
2775.73
2768.66
2761.33
2753.75
2745.91
2737.82
2729.5
2720.95
2712.18
2703.2
2694.02
2684.64
2675.08
2665.35
2655.46
2645.41
2635.23
2624.91
2614.48
2603.94
2593.31
2582.6
2571.83
2561
2550.13
2539.24
2528.33
2517.43
2506.55
2495.7
2484.9
2474.16
2463.49
2452.91
2442.43
2432.07
2421.84
2411.76
2401.83
2392.08
2382.51
2373.14
2363.99
2355.06
2346.37
2337.94
2329.78
2321.89
2314.29
2307
2300.02
2293.37
2287.05
2281.07
2275.45
2270.19
2265.3
2260.8
2256.68
2252.95
2249.62
2246.69
2244.18
2242.08
2240.39
2239.12
2238.28
2237.86
2712.42
2712.61
2712.97
2713.52
2714.24
2715.15
2716.23
2717.49
2718.92
2720.53
2722.3
2724.24
2726.34
2728.6
2731.01
2733.56
2736.26
2739.09
2742.05
2745.12
2748.32
2751.62
2755.02
2758.5
2762.07
2765.72
2769.42
2773.18
2776.98
2780.81
2784.67
2788.54
2792.42
2796.28
2800.12
2803.94
2807.71
2811.43
2815.08
2818.66
2822.16
2825.55
2828.84
2832.01
2835.05
2837.95
2840.69
2843.27
2845.68
2847.91
2849.94
2851.78
2853.4
2854.8
2855.98
2856.93
2857.63
2858.08
2858.27
2858.21
2857.87
2857.26
2856.37
2855.19
2853.73
2851.97
2849.92
2847.57
2844.92
2841.97
2838.71
2835.15
2831.29
2827.12
2822.65
2817.88
2812.81
2807.43
2801.77
2795.82
2789.57
2783.05
2776.24
2769.17
2761.83
2754.23
2746.37
2738.27
2729.94
2721.37
2712.58
2703.58
2694.37
2684.98
2675.4
2665.64
2655.73
2645.66
2635.46
2625.12
2614.67
2604.11
2593.45
2582.72
2571.92
2561.06
2550.17
2539.25
2528.32
2517.39
2506.48
2495.61
2484.78
2474.01
2463.32
2452.71
2442.21
2431.82
2421.56
2411.45
2401.5
2391.71
2382.12
2372.73
2363.55
2354.6
2345.89
2337.43
2329.24
2321.33
2313.71
2306.4
2299.4
2292.72
2286.38
2280.39
2274.75
2269.48
2264.58
2260.06
2255.92
2252.18
2248.84
2245.91
2243.39
2241.28
2239.59
2238.32
2237.47
2237.05
2711.71
2711.9
2712.27
2712.82
2713.55
2714.46
2715.55
2716.82
2718.26
2719.88
2721.67
2723.62
2725.74
2728.02
2730.45
2733.02
2735.74
2738.6
2741.58
2744.69
2747.91
2751.24
2754.67
2758.19
2761.8
2765.48
2769.22
2773.01
2776.85
2780.73
2784.63
2788.54
2792.45
2796.36
2800.25
2804.1
2807.92
2811.68
2815.38
2819
2822.54
2825.97
2829.3
2832.51
2835.59
2838.52
2841.3
2843.92
2846.37
2848.63
2850.7
2852.57
2854.22
2855.66
2856.87
2857.84
2858.57
2859.05
2859.27
2859.22
2858.91
2858.32
2857.44
2856.28
2854.83
2853.09
2851.05
2848.71
2846.07
2843.12
2839.86
2836.31
2832.44
2828.27
2823.79
2819.01
2813.93
2808.55
2802.87
2796.9
2790.64
2784.1
2777.28
2770.18
2762.82
2755.19
2747.31
2739.18
2730.81
2722.2
2713.38
2704.35
2695.1
2685.67
2676.04
2666.25
2656.29
2646.18
2635.92
2625.54
2615.04
2604.43
2593.73
2582.95
2572.11
2561.21
2550.27
2539.3
2528.32
2517.35
2506.39
2495.46
2484.57
2473.74
2462.99
2452.33
2441.77
2431.33
2421.01
2410.84
2400.83
2391
2381.35
2371.91
2362.67
2353.67
2344.91
2336.41
2328.17
2320.21
2312.55
2305.19
2298.15
2291.43
2285.06
2279.02
2273.35
2268.04
2263.11
2258.56
2254.4
2250.64
2247.28
2244.33
2241.79
2239.67
2237.97
2236.69
2235.83
2235.41
2710.64
2710.84
2711.21
2711.76
2712.5
2713.42
2714.52
2715.81
2717.27
2718.9
2720.71
2722.69
2724.83
2727.14
2729.6
2732.21
2734.96
2737.85
2740.88
2744.03
2747.3
2750.67
2754.15
2757.73
2761.38
2765.11
2768.91
2772.76
2776.66
2780.59
2784.55
2788.52
2792.5
2796.47
2800.42
2804.34
2808.22
2812.04
2815.8
2819.49
2823.09
2826.59
2829.98
2833.25
2836.38
2839.38
2842.22
2844.9
2847.4
2849.72
2851.84
2853.76
2855.46
2856.95
2858.2
2859.22
2859.99
2860.51
2860.76
2860.75
2860.47
2859.91
2859.06
2857.93
2856.5
2854.77
2852.75
2850.42
2847.79
2844.85
2841.6
2838.04
2834.17
2830
2825.51
2820.72
2815.63
2810.23
2804.54
2798.54
2792.26
2785.69
2778.83
2771.7
2764.3
2756.64
2748.71
2740.54
2732.12
2723.48
2714.6
2705.51
2696.21
2686.71
2677.03
2667.17
2657.15
2646.97
2636.65
2626.19
2615.62
2604.94
2594.17
2583.31
2572.39
2561.41
2550.4
2539.35
2528.29
2517.24
2506.2
2495.19
2484.22
2473.32
2462.48
2451.74
2441.1
2430.57
2420.18
2409.93
2399.84
2389.92
2380.19
2370.67
2361.36
2352.28
2343.45
2334.87
2326.56
2318.53
2310.8
2303.37
2296.27
2289.49
2283.05
2276.97
2271.24
2265.88
2260.9
2256.31
2252.11
2248.31
2244.92
2241.94
2239.37
2237.23
2235.51
2234.22
2233.36
2232.93
2709.21
2709.41
2709.79
2710.35
2711.1
2712.03
2713.15
2714.45
2715.93
2717.59
2719.43
2721.44
2723.62
2725.96
2728.46
2731.11
2733.92
2736.86
2739.94
2743.14
2746.47
2749.91
2753.45
2757.09
2760.82
2764.62
2768.49
2772.42
2776.4
2780.41
2784.45
2788.5
2792.56
2796.62
2800.65
2804.65
2808.62
2812.53
2816.38
2820.15
2823.83
2827.41
2830.89
2834.24
2837.45
2840.53
2843.45
2846.2
2848.78
2851.17
2853.36
2855.35
2857.12
2858.67
2859.99
2861.06
2861.89
2862.46
2862.77
2862.8
2862.56
2862.04
2861.23
2860.12
2858.73
2857.03
2855.02
2852.71
2850.09
2847.16
2843.92
2840.36
2836.49
2832.31
2827.82
2823.01
2817.9
2812.48
2806.76
2800.73
2794.42
2787.81
2780.91
2773.74
2766.29
2758.57
2750.59
2742.36
2733.88
2725.17
2716.22
2707.06
2697.69
2688.11
2678.35
2668.41
2658.3
2648.03
2637.62
2627.07
2616.41
2605.63
2594.76
2583.81
2572.78
2561.7
2550.58
2539.44
2528.27
2517.11
2505.97
2494.85
2483.77
2472.76
2461.81
2450.96
2440.21
2429.57
2419.06
2408.71
2398.51
2388.48
2378.65
2369.02
2359.6
2350.42
2341.49
2332.81
2324.4
2316.28
2308.46
2300.95
2293.75
2286.89
2280.38
2274.22
2268.42
2262.99
2257.95
2253.3
2249.05
2245.2
2241.76
2238.74
2236.14
2233.97
2232.23
2230.92
2230.05
2229.61
2707.41
2707.61
2708
2708.57
2709.33
2710.28
2711.42
2712.74
2714.25
2715.94
2717.82
2719.87
2722.09
2724.48
2727.03
2729.74
2732.6
2735.61
2738.75
2742.03
2745.43
2748.95
2752.57
2756.3
2760.11
2764
2767.97
2771.99
2776.06
2780.18
2784.32
2788.47
2792.64
2796.8
2800.94
2805.05
2809.12
2813.13
2817.09
2820.96
2824.75
2828.44
2832.02
2835.48
2838.8
2841.97
2844.99
2847.84
2850.51
2852.99
2855.28
2857.35
2859.21
2860.84
2862.23
2863.38
2864.27
2864.91
2865.28
2865.37
2865.19
2864.71
2863.95
2862.89
2861.52
2859.85
2857.88
2855.59
2852.98
2850.06
2846.83
2843.28
2839.4
2835.21
2830.71
2825.89
2820.75
2815.3
2809.55
2803.49
2797.13
2790.47
2783.53
2776.3
2768.79
2761
2752.95
2744.65
2736.09
2727.3
2718.27
2709.01
2699.55
2689.88
2680.01
2669.97
2659.75
2649.37
2638.84
2628.18
2617.4
2606.5
2595.51
2584.43
2573.28
2562.07
2550.82
2539.54
2528.24
2516.95
2505.66
2494.41
2483.2
2472.05
2460.96
2449.97
2439.08
2428.3
2417.66
2407.17
2396.83
2386.67
2376.7
2366.94
2357.4
2348.09
2339.02
2330.22
2321.7
2313.46
2305.52
2297.9
2290.6
2283.63
2277.02
2270.76
2264.88
2259.37
2254.25
2249.52
2245.2
2241.29
2237.8
2234.73
2232.09
2229.89
2228.11
2226.78
2225.9
2225.46
2705.23
2705.44
2705.84
2706.42
2707.19
2708.16
2709.32
2710.68
2712.22
2713.95
2715.86
2717.96
2720.23
2722.68
2725.29
2728.07
2731
2734.09
2737.31
2740.67
2744.17
2747.78
2751.5
2755.33
2759.25
2763.25
2767.33
2771.46
2775.66
2779.89
2784.15
2788.43
2792.72
2797.01
2801.28
2805.52
2809.72
2813.86
2817.95
2821.95
2825.87
2829.69
2833.39
2836.97
2840.41
2843.71
2846.85
2849.81
2852.6
2855.19
2857.59
2859.76
2861.72
2863.45
2864.93
2866.17
2867.15
2867.87
2868.31
2868.48
2868.35
2867.94
2867.23
2866.22
2864.9
2863.27
2861.32
2859.06
2856.48
2853.57
2850.34
2846.79
2842.92
2838.72
2834.2
2829.35
2824.19
2818.71
2812.92
2806.81
2800.4
2793.69
2786.68
2779.38
2771.8
2763.94
2755.81
2747.41
2738.76
2729.87
2720.73
2711.37
2701.79
2692
2682.02
2671.85
2661.5
2650.99
2640.33
2629.52
2618.6
2607.55
2596.41
2585.18
2573.88
2562.52
2551.11
2539.67
2528.21
2516.76
2505.31
2493.89
2482.51
2471.19
2459.95
2448.78
2437.73
2426.78
2415.97
2405.31
2394.81
2384.49
2374.36
2364.44
2354.73
2345.27
2336.05
2327.1
2318.43
2310.05
2301.98
2294.22
2286.79
2279.7
2272.97
2266.6
2260.61
2255
2249.78
2244.97
2240.57
2236.59
2233.03
2229.9
2227.21
2224.96
2223.16
2221.8
2220.9
2220.45
2702.67
2702.89
2703.29
2703.89
2704.68
2705.67
2706.86
2708.24
2709.82
2711.6
2713.56
2715.71
2718.05
2720.56
2723.25
2726.1
2729.12
2732.29
2735.61
2739.08
2742.67
2746.4
2750.23
2754.18
2758.22
2762.36
2766.56
2770.84
2775.17
2779.54
2783.95
2788.38
2792.81
2797.25
2801.67
2806.06
2810.41
2814.71
2818.95
2823.11
2827.17
2831.14
2835
2838.72
2842.31
2845.75
2849.03
2852.13
2855.05
2857.78
2860.29
2862.6
2864.67
2866.51
2868.11
2869.45
2870.53
2871.34
2871.87
2872.12
2872.07
2871.73
2871.08
2870.13
2868.86
2867.27
2865.37
2863.14
2860.58
2857.69
2854.47
2850.93
2847.05
2842.84
2838.3
2833.43
2828.24
2822.72
2816.88
2810.72
2804.25
2797.47
2790.39
2783.01
2775.34
2767.39
2759.16
2750.66
2741.9
2732.89
2723.63
2714.15
2704.43
2694.51
2684.38
2674.06
2663.56
2652.89
2642.07
2631.11
2620.01
2608.8
2597.48
2586.08
2574.59
2563.05
2551.46
2539.83
2528.18
2516.54
2504.9
2493.28
2481.71
2470.2
2458.75
2447.39
2436.14
2425
2413.99
2403.14
2392.44
2381.93
2371.61
2361.5
2351.61
2341.96
2332.57
2323.44
2314.6
2306.05
2297.81
2289.9
2282.32
2275.09
2268.21
2261.71
2255.59
2249.86
2244.54
2239.62
2235.13
2231.06
2227.42
2224.23
2221.48
2219.18
2217.34
2215.95
2215.03
2214.57
2699.71
2699.94
2700.35
2700.97
2701.78
2702.79
2704.01
2705.43
2707.05
2708.88
2710.9
2713.11
2715.52
2718.11
2720.88
2723.82
2726.93
2730.21
2733.64
2737.22
2740.94
2744.79
2748.76
2752.85
2757.03
2761.31
2765.67
2770.11
2774.6
2779.13
2783.71
2788.3
2792.91
2797.52
2802.11
2806.68
2811.21
2815.68
2820.09
2824.43
2828.67
2832.81
2836.84
2840.74
2844.49
2848.1
2851.53
2854.8
2857.87
2860.75
2863.41
2865.86
2868.07
2870.04
2871.77
2873.23
2874.42
2875.34
2875.97
2876.31
2876.36
2876.1
2875.52
2874.63
2873.43
2871.89
2870.03
2867.83
2865.3
2862.44
2859.23
2855.69
2851.8
2847.58
2843.02
2838.13
2832.89
2827.33
2821.44
2815.22
2808.68
2801.83
2794.66
2787.19
2779.42
2771.36
2763.02
2754.4
2745.52
2736.37
2726.97
2717.34
2707.48
2697.39
2687.1
2676.61
2665.94
2655.09
2644.09
2632.94
2621.65
2610.24
2598.72
2587.11
2575.42
2563.67
2551.86
2540.02
2528.16
2516.29
2504.43
2492.6
2480.8
2469.06
2457.39
2445.8
2434.32
2422.96
2411.73
2400.65
2389.73
2378.99
2368.45
2358.12
2348.02
2338.16
2328.56
2319.23
2310.19
2301.45
2293.03
2284.93
2277.17
2269.77
2262.74
2256.08
2249.82
2243.96
2238.5
2233.47
2228.86
2224.7
2220.97
2217.7
2214.88
2212.53
2210.64
2209.22
2208.27
2207.8
2696.34
2696.58
2697.01
2697.64
2698.47
2699.51
2700.76
2702.23
2703.9
2705.78
2707.86
2710.15
2712.63
2715.31
2718.17
2721.22
2724.44
2727.83
2731.39
2735.1
2738.96
2742.95
2747.08
2751.32
2755.67
2760.12
2764.65
2769.26
2773.93
2778.65
2783.42
2788.21
2793.01
2797.81
2802.6
2807.37
2812.1
2816.77
2821.39
2825.92
2830.36
2834.7
2838.92
2843.01
2846.96
2850.75
2854.38
2857.82
2861.07
2864.12
2866.95
2869.55
2871.92
2874.05
2875.91
2877.51
2878.84
2879.88
2880.63
2881.08
2881.22
2881.05
2880.56
2879.75
2878.61
2877.13
2875.32
2873.16
2870.66
2867.82
2864.63
2861.09
2857.2
2852.97
2848.38
2843.46
2838.18
2832.57
2826.62
2820.33
2813.71
2806.77
2799.51
2791.94
2784.06
2775.88
2767.41
2758.65
2749.62
2740.33
2730.77
2720.97
2710.94
2700.68
2690.2
2679.52
2668.65
2657.6
2646.39
2635.02
2623.51
2611.88
2600.14
2588.3
2576.38
2564.38
2552.34
2540.25
2528.14
2516.03
2503.91
2491.83
2479.78
2467.78
2455.85
2444.01
2432.27
2420.65
2409.17
2397.83
2386.66
2375.67
2364.88
2354.31
2343.96
2333.86
2324.03
2314.47
2305.2
2296.24
2287.6
2279.3
2271.34
2263.75
2256.53
2249.7
2243.27
2237.25
2231.65
2226.49
2221.76
2217.48
2213.65
2210.29
2207.4
2204.98
2203.03
2201.57
2200.6
2200.12
2692.55
2692.8
2693.24
2693.9
2694.75
2695.82
2697.11
2698.62
2700.34
2702.28
2704.44
2706.8
2709.37
2712.14
2715.11
2718.27
2721.62
2725.14
2728.84
2732.7
2736.71
2740.87
2745.17
2749.58
2754.12
2758.76
2763.48
2768.29
2773.17
2778.1
2783.08
2788.08
2793.1
2798.13
2803.14
2808.13
2813.09
2817.99
2822.83
2827.58
2832.25
2836.81
2841.25
2845.56
2849.72
2853.73
2857.56
2861.2
2864.65
2867.89
2870.91
2873.7
2876.24
2878.54
2880.56
2882.32
2883.79
2884.97
2885.85
2886.42
2886.67
2886.61
2886.21
2885.49
2884.42
2883.01
2881.25
2879.14
2876.68
2873.86
2870.69
2867.16
2863.26
2859.01
2854.4
2849.44
2844.12
2838.45
2832.43
2826.06
2819.36
2812.32
2804.96
2797.27
2789.26
2780.95
2772.33
2763.42
2754.23
2744.77
2735.04
2725.06
2714.83
2704.37
2693.68
2682.78
2671.69
2660.42
2648.97
2637.36
2625.62
2613.74
2601.74
2589.64
2577.46
2565.2
2552.88
2540.52
2528.14
2515.74
2503.35
2490.98
2478.64
2466.36
2454.15
2442.02
2429.99
2418.08
2406.31
2394.69
2383.23
2371.96
2360.89
2350.04
2339.42
2329.05
2318.95
2309.13
2299.61
2290.41
2281.53
2272.99
2264.81
2257
2249.58
2242.55
2235.94
2229.74
2223.98
2218.66
2213.79
2209.38
2205.44
2201.98
2199
2196.51
2194.5
2193
2192
2191.5
2688.32
2688.57
2689.04
2689.72
2690.6
2691.7
2693.03
2694.59
2696.37
2698.38
2700.61
2703.06
2705.72
2708.6
2711.69
2714.97
2718.46
2722.13
2725.98
2730
2734.19
2738.53
2743.01
2747.63
2752.37
2757.22
2762.16
2767.2
2772.3
2777.47
2782.68
2787.92
2793.19
2798.46
2803.72
2808.97
2814.17
2819.32
2824.41
2829.42
2834.34
2839.15
2843.83
2848.39
2852.79
2857.03
2861.09
2864.96
2868.63
2872.09
2875.31
2878.3
2881.04
2883.52
2885.73
2887.65
2889.29
2890.62
2891.65
2892.35
2892.74
2892.79
2892.5
2891.87
2890.88
2889.55
2887.85
2885.8
2883.37
2880.59
2877.43
2873.9
2870
2865.73
2861.1
2856.09
2850.72
2844.99
2838.89
2832.44
2825.64
2818.5
2811.01
2803.2
2795.05
2786.59
2777.81
2768.73
2759.36
2749.71
2739.78
2729.6
2719.18
2708.47
2697.55
2686.42
2675.08
2663.56
2651.85
2639.98
2627.96
2615.81
2603.53
2591.15
2578.67
2566.12
2553.5
2540.84
2528.15
2515.44
2502.74
2490.05
2477.4
2464.8
2452.27
2439.82
2427.48
2415.25
2403.15
2391.21
2379.44
2367.86
2356.48
2345.32
2334.39
2323.73
2313.33
2303.22
2293.42
2283.93
2274.79
2265.99
2257.56
2249.51
2241.86
2234.61
2227.79
2221.39
2215.45
2209.96
2204.93
2200.38
2196.31
2192.74
2189.66
2187.09
2185.02
2183.47
2182.43
2181.92
2683.62
2683.89
2684.38
2685.09
2686
2687.14
2688.51
2690.11
2691.96
2694.04
2696.35
2698.9
2701.67
2704.66
2707.87
2711.3
2714.93
2718.77
2722.79
2727
2731.38
2735.92
2740.61
2745.45
2750.41
2755.49
2760.68
2765.96
2771.32
2776.74
2782.22
2787.73
2793.27
2798.81
2804.35
2809.87
2815.35
2820.78
2826.15
2831.44
2836.63
2841.71
2846.67
2851.49
2856.16
2860.66
2864.98
2869.1
2873.01
2876.71
2880.17
2883.38
2886.34
2889.02
2891.43
2893.54
2895.36
2896.86
2898.05
2898.91
2899.43
2899.61
2899.43
2898.91
2898.02
2896.76
2895.14
2893.14
2890.76
2888
2884.87
2881.35
2877.44
2873.15
2868.49
2863.44
2858.01
2852.21
2846.03
2839.49
2832.58
2825.32
2817.7
2809.74
2801.44
2792.81
2783.86
2774.6
2765.03
2755.17
2745.02
2734.6
2723.9
2712.99
2701.83
2690.44
2678.83
2667.03
2655.04
2642.88
2630.57
2618.11
2605.52
2592.82
2580.02
2567.15
2554.2
2541.21
2528.18
2515.14
2502.09
2489.06
2476.06
2463.11
2450.22
2437.42
2424.72
2412.14
2399.7
2387.41
2375.29
2363.35
2351.63
2340.13
2328.87
2317.87
2307.15
2296.72
2286.6
2276.81
2267.37
2258.28
2249.57
2241.26
2233.35
2225.86
2218.8
2212.19
2206.04
2200.36
2195.16
2190.45
2186.24
2182.54
2179.36
2176.69
2174.55
2172.95
2171.87
2171.34
2678.44
2678.73
2679.24
2679.98
2680.93
2682.11
2683.52
2685.18
2687.09
2689.25
2691.65
2694.3
2697.18
2700.3
2703.65
2707.23
2711.03
2715.04
2719.25
2723.66
2728.25
2733.01
2737.94
2743.02
2748.23
2753.57
2759.02
2764.57
2770.21
2775.92
2781.68
2787.49
2793.32
2799.17
2805.01
2810.83
2816.62
2822.36
2828.04
2833.63
2839.13
2844.51
2849.77
2854.89
2859.85
2864.63
2869.23
2873.63
2877.81
2881.77
2885.49
2888.95
2892.14
2895.05
2897.68
2900
2902.02
2903.71
2905.07
2906.09
2906.77
2907.09
2907.04
2906.63
2905.85
2904.68
2903.13
2901.2
2898.87
2896.15
2893.03
2889.52
2885.61
2881.3
2876.6
2871.5
2866.01
2860.13
2853.87
2847.22
2840.2
2832.81
2825.05
2816.93
2808.46
2799.65
2790.51
2781.04
2771.26
2761.17
2750.78
2740.11
2729.17
2717.98
2706.54
2694.86
2682.96
2670.85
2658.56
2646.08
2633.44
2620.64
2607.72
2594.68
2581.53
2568.3
2554.99
2541.64
2528.24
2514.82
2501.4
2487.99
2474.61
2461.28
2448.01
2434.82
2421.74
2408.77
2395.94
2383.26
2370.76
2358.45
2346.34
2334.47
2322.84
2311.47
2300.39
2289.61
2279.15
2269.02
2259.25
2249.84
2240.83
2232.22
2224.02
2216.26
2208.95
2202.1
2195.72
2189.83
2184.44
2179.56
2175.19
2171.35
2168.05
2165.28
2163.07
2161.4
2160.28
2159.73
2672.75
2673.05
2673.59
2674.36
2675.36
2676.58
2678.05
2679.76
2681.74
2683.98
2686.48
2689.23
2692.24
2695.49
2699
2702.74
2706.72
2710.92
2715.34
2719.97
2724.79
2729.8
2734.98
2740.32
2745.81
2751.43
2757.18
2763.03
2768.97
2774.99
2781.07
2787.2
2793.36
2799.53
2805.71
2811.86
2817.99
2824.07
2830.08
2836.01
2841.84
2847.55
2853.14
2858.58
2863.86
2868.96
2873.87
2878.57
2883.05
2887.29
2891.28
2895.01
2898.47
2901.63
2904.5
2907.05
2909.28
2911.18
2912.73
2913.94
2914.78
2915.25
2915.35
2915.07
2914.39
2913.33
2911.86
2909.99
2907.72
2905.04
2901.94
2898.44
2894.52
2890.19
2885.46
2880.31
2874.75
2868.79
2862.43
2855.67
2848.52
2840.98
2833.07
2824.78
2816.13
2807.12
2797.77
2788.08
2778.06
2767.72
2757.08
2746.14
2734.92
2723.44
2711.69
2699.7
2687.48
2675.04
2662.4
2649.58
2636.58
2623.43
2610.14
2596.72
2583.19
2569.58
2555.88
2542.13
2528.33
2514.51
2500.68
2486.86
2473.06
2459.31
2445.63
2432.02
2418.51
2405.12
2391.87
2378.78
2365.85
2353.12
2340.61
2328.32
2316.29
2304.52
2293.05
2281.88
2271.04
2260.54
2250.41
2240.66
2231.31
2222.37
2213.86
2205.81
2198.21
2191.1
2184.47
2178.35
2172.75
2167.67
2163.13
2159.14
2155.7
2152.83
2150.52
2148.78
2147.63
2147.05
2666.52
2666.82
2667.39
2668.21
2669.27
2670.54
2672.06
2673.83
2675.88
2678.21
2680.8
2683.67
2686.81
2690.21
2693.88
2697.8
2701.98
2706.4
2711.04
2715.91
2720.99
2726.26
2731.72
2737.35
2743.14
2749.07
2755.13
2761.3
2767.58
2773.94
2780.36
2786.84
2793.36
2799.9
2806.43
2812.96
2819.45
2825.89
2832.27
2838.56
2844.76
2850.84
2856.78
2862.58
2868.2
2873.65
2878.89
2883.92
2888.73
2893.28
2897.58
2901.6
2905.34
2908.78
2911.91
2914.71
2917.18
2919.3
2921.06
2922.46
2923.49
2924.13
2924.38
2924.23
2923.68
2922.72
2921.35
2919.56
2917.34
2914.7
2911.64
2908.14
2904.22
2899.87
2895.09
2889.88
2884.25
2878.2
2871.73
2864.85
2857.57
2849.88
2841.79
2833.32
2824.47
2815.25
2805.67
2795.74
2785.46
2774.85
2763.93
2752.7
2741.18
2729.4
2717.3
2704.97
2692.4
2679.61
2666.6
2653.4
2640.02
2626.48
2612.79
2598.97
2585.03
2570.99
2556.87
2542.69
2528.46
2514.2
2499.93
2485.66
2471.42
2457.22
2443.08
2429.01
2415.05
2401.21
2387.5
2373.94
2360.57
2347.38
2334.42
2321.68
2309.21
2297.01
2285.1
2273.51
2262.26
2251.36
2240.83
2230.7
2220.98
2211.68
2202.84
2194.46
2186.55
2179.15
2172.25
2165.88
2160.04
2154.75
2150.02
2145.86
2142.28
2139.28
2136.88
2135.07
2133.86
2133.26
2659.71
2660.02
2660.62
2661.5
2662.61
2663.95
2665.53
2667.37
2669.49
2671.9
2674.59
2677.58
2680.86
2684.42
2688.27
2692.39
2696.78
2701.43
2706.32
2711.45
2716.8
2722.37
2728.13
2734.07
2740.19
2746.45
2752.86
2759.39
2766.03
2772.76
2779.56
2786.42
2793.32
2800.25
2807.18
2814.11
2821
2827.84
2834.62
2841.31
2847.9
2854.37
2860.71
2866.89
2872.9
2878.71
2884.33
2889.71
2894.87
2899.76
2904.39
2908.73
2912.78
2916.52
2919.93
2923
2925.72
2928.09
2930.08
2931.7
2932.92
2933.74
2934.16
2934.17
2933.75
2932.91
2931.63
2929.92
2927.77
2925.18
2922.14
2918.66
2914.73
2910.35
2905.53
2900.26
2894.55
2888.41
2881.82
2874.81
2867.37
2859.52
2851.25
2842.58
2833.52
2824.06
2814.23
2804.04
2793.49
2782.59
2771.36
2759.81
2747.95
2735.78
2723.37
2710.69
2697.74
2684.56
2671.16
2657.56
2643.77
2629.8
2615.68
2601.42
2587.04
2572.55
2557.98
2543.33
2528.64
2513.9
2499.15
2484.41
2469.68
2454.99
2440.36
2425.81
2411.35
2397.01
2382.81
2368.76
2354.89
2341.22
2327.76
2314.55
2301.59
2288.91
2276.54
2264.49
2252.79
2241.45
2230.49
2219.94
2209.82
2200.14
2190.92
2182.18
2173.94
2166.21
2159.02
2152.37
2146.27
2140.75
2135.82
2131.47
2127.73
2124.6
2122.09
2120.2
2118.94
2118.31
2652.26
2652.56
2653.23
2654.17
2655.35
2656.76
2658.41
2660.33
2662.52
2665.02
2667.81
2670.92
2674.35
2678.08
2682.12
2686.45
2691.08
2695.98
2701.15
2706.56
2712.22
2718.1
2724.19
2730.48
2736.94
2743.57
2750.35
2757.27
2764.3
2771.43
2778.64
2785.92
2793.24
2800.6
2807.96
2815.31
2822.63
2829.91
2837.12
2844.25
2851.27
2858.17
2864.93
2871.52
2877.94
2884.17
2890.18
2895.95
2901.48
2906.75
2911.74
2916.43
2920.81
2924.86
2928.58
2931.95
2934.95
2937.58
2939.82
2941.67
2943.1
2944.13
2944.73
2944.89
2944.62
2943.9
2942.74
2941.12
2939.04
2936.49
2933.49
2930.02
2926.08
2921.68
2916.81
2911.48
2905.68
2899.43
2892.73
2885.57
2877.97
2869.94
2861.48
2852.59
2843.29
2833.59
2823.49
2813.01
2802.16
2790.95
2779.39
2767.5
2755.29
2742.77
2729.96
2716.88
2703.53
2689.93
2676.11
2662.07
2647.83
2633.41
2618.83
2604.1
2589.24
2574.27
2559.2
2544.06
2528.86
2513.62
2498.36
2483.1
2467.85
2452.64
2437.48
2422.4
2407.41
2392.54
2377.8
2363.22
2348.82
2334.62
2320.63
2306.89
2293.42
2280.23
2267.35
2254.8
2242.61
2230.79
2219.37
2208.36
2197.8
2187.7
2178.07
2168.94
2160.33
2152.26
2144.74
2137.78
2131.41
2125.64
2120.47
2115.92
2112.01
2108.73
2106.1
2104.12
2102.8
2102.14
2644.08
2644.42
2645.1
2646.1
2647.36
2648.89
2650.66
2652.68
2654.95
2657.52
2660.42
2663.65
2667.22
2671.14
2675.39
2679.96
2684.85
2690.03
2695.49
2701.22
2707.2
2713.43
2719.88
2726.53
2733.38
2740.41
2747.59
2754.92
2762.38
2769.95
2777.6
2785.33
2793.11
2800.92
2808.74
2816.56
2824.36
2832.1
2839.79
2847.38
2854.87
2862.23
2869.45
2876.5
2883.36
2890.02
2896.46
2902.66
2908.6
2914.27
2919.64
2924.71
2929.45
2933.85
2937.9
2941.59
2944.89
2947.8
2950.31
2952.41
2954.08
2955.31
2956.11
2956.45
2956.33
2955.75
2954.7
2953.18
2951.17
2948.69
2945.72
2942.26
2938.31
2933.88
2928.97
2923.56
2917.68
2911.32
2904.48
2897.17
2889.4
2881.17
2872.5
2863.38
2853.83
2843.86
2833.47
2822.69
2811.52
2799.97
2788.06
2775.8
2763.2
2750.29
2737.08
2723.56
2709.78
2695.74
2681.45
2666.94
2652.23
2637.32
2622.25
2607.01
2591.64
2576.15
2560.56
2544.89
2529.15
2513.37
2497.56
2481.74
2465.94
2450.17
2434.44
2418.79
2403.24
2387.79
2372.48
2357.33
2342.35
2327.57
2313.02
2298.72
2284.68
2270.94
2257.51
2244.42
2231.7
2219.36
2207.43
2195.93
2184.89
2174.33
2164.26
2154.71
2145.7
2137.25
2129.37
2122.08
2115.4
2109.35
2103.93
2099.17
2095.06
2091.62
2088.87
2086.79
2085.41
2084.71
2635.2
2635.62
2636.19
2637.21
2638.56
2640.29
2642.25
2644.4
2646.74
2649.37
2652.34
2655.69
2659.42
2663.54
2668.03
2672.87
2678.04
2683.53
2689.32
2695.39
2701.73
2708.33
2715.16
2722.22
2729.48
2736.93
2744.56
2752.34
2760.25
2768.29
2776.42
2784.63
2792.9
2801.21
2809.54
2817.87
2826.17
2834.42
2842.61
2850.71
2858.7
2866.56
2874.28
2881.81
2889.16
2896.3
2903.2
2909.85
2916.24
2922.33
2928.13
2933.59
2938.73
2943.5
2947.91
2951.94
2955.57
2958.79
2961.58
2963.95
2965.87
2967.33
2968.34
2968.87
2968.92
2968.49
2967.57
2966.14
2964.22
2961.8
2958.86
2955.42
2951.47
2947.01
2942.04
2936.56
2930.58
2924.1
2917.12
2909.65
2901.69
2893.25
2884.35
2874.98
2865.16
2854.9
2844.21
2833.1
2821.58
2809.67
2797.38
2784.72
2771.72
2758.37
2744.71
2730.75
2716.5
2701.99
2687.21
2672.2
2656.98
2641.55
2625.95
2610.17
2594.26
2578.21
2562.06
2545.82
2529.51
2513.15
2496.75
2480.34
2463.94
2447.57
2431.24
2414.99
2398.82
2382.76
2366.84
2351.07
2335.48
2320.09
2304.92
2290.01
2275.36
2261.02
2247
2233.33
2220.03
2207.13
2194.65
2182.62
2171.06
2160
2149.45
2139.44
2129.99
2121.12
2112.86
2105.21
2098.2
2091.84
2086.15
2081.15
2076.83
2073.22
2070.32
2068.14
2066.68
2065.95
2625.61
2626.2
2626.63
2627.68
2629.2
2631.16
2633.3
2635.53
2637.88
2640.49
2643.5
2646.95
2650.84
2655.22
2659.99
2665.12
2670.61
2676.45
2682.59
2689.03
2695.77
2702.77
2710.02
2717.51
2725.22
2733.13
2741.23
2749.49
2757.9
2766.44
2775.09
2783.82
2792.62
2801.47
2810.34
2819.21
2828.06
2836.86
2845.6
2854.24
2862.78
2871.18
2879.43
2887.49
2895.36
2903.01
2910.41
2917.55
2924.41
2930.98
2937.22
2943.12
2948.67
2953.85
2958.65
2963.04
2967.02
2970.56
2973.67
2976.33
2978.51
2980.23
2981.46
2982.19
2982.43
2982.15
2981.37
2980.06
2978.23
2975.86
2972.97
2969.55
2965.59
2961.1
2956.07
2950.51
2944.43
2937.81
2930.68
2923.04
2914.88
2906.22
2897.07
2887.44
2877.33
2866.76
2855.74
2844.28
2832.39
2820.09
2807.39
2794.31
2780.86
2767.06
2752.93
2738.48
2723.74
2708.71
2693.41
2677.87
2662.09
2646.11
2629.94
2613.59
2597.09
2580.46
2563.71
2546.87
2529.94
2512.96
2495.94
2478.91
2461.87
2444.86
2427.89
2410.98
2394.16
2377.45
2360.87
2344.44
2328.19
2312.14
2296.32
2280.75
2265.46
2250.47
2235.81
2221.51
2207.59
2194.08
2181.01
2168.4
2156.28
2144.67
2133.6
2123.09
2113.16
2103.85
2095.16
2087.12
2079.74
2073.05
2067.07
2061.8
2057.25
2053.45
2050.4
2048.1
2046.57
2045.8
2615.42
2615.76
2616.46
2617.54
2619.29
2621.5
2623.8
2626.03
2628.24
2630.75
2633.76
2637.3
2641.25
2646.1
2651.23
2656.73
2662.58
2668.77
2675.3
2682.15
2689.29
2696.72
2704.42
2712.37
2720.56
2728.97
2737.57
2746.35
2755.3
2764.38
2773.58
2782.88
2792.25
2801.68
2811.13
2820.59
2830.03
2839.42
2848.75
2857.99
2867.11
2876.09
2884.91
2893.55
2901.98
2910.17
2918.11
2925.78
2933.16
2940.22
2946.94
2953.32
2959.32
2964.93
2970.14
2974.92
2979.28
2983.18
2986.62
2989.58
2992.06
2994.04
2995.51
2996.46
2996.89
2996.79
2996.15
2994.96
2993.22
2990.93
2988.09
2984.68
2980.72
2976.19
2971.11
2965.46
2959.27
2952.52
2945.22
2937.39
2929.02
2920.13
2910.71
2900.79
2890.37
2879.47
2868.09
2856.26
2843.97
2831.25
2818.12
2804.59
2790.67
2776.38
2761.74
2746.78
2731.49
2715.92
2700.06
2683.95
2667.59
2651.02
2634.24
2617.29
2600.17
2582.91
2565.52
2548.03
2530.46
2512.82
2495.14
2477.44
2459.73
2442.04
2424.38
2406.79
2389.27
2371.86
2354.58
2337.45
2320.49
2303.74
2287.21
2270.94
2254.94
2239.26
2223.91
2208.93
2194.35
2180.18
2166.47
2153.23
2140.5
2128.3
2116.66
2105.61
2095.17
2085.36
2076.21
2067.74
2059.97
2052.92
2046.61
2041.05
2036.26
2032.25
2029.02
2026.6
2024.98
2024.17
2603.32
2603.65
2604.32
2605.41
2607.54
2610.31
2613
2615.32
2617.34
2619.69
2622.82
2626.79
2631.49
2636.28
2641.67
2647.52
2653.77
2660.38
2667.35
2674.64
2682.24
2690.15
2698.33
2706.78
2715.48
2724.42
2733.57
2742.91
2752.42
2762.09
2771.89
2781.79
2791.78
2801.83
2811.91
2822
2832.07
2842.1
2852.07
2861.94
2871.7
2881.3
2890.75
2899.99
2909.02
2917.81
2926.33
2934.57
2942.49
2950.09
2957.33
2964.21
2970.69
2976.77
2982.42
2987.63
2992.38
2996.66
3000.46
3003.76
3006.54
3008.81
3010.54
3011.73
3012.36
3012.44
3011.96
3010.9
3009.27
3007.05
3004.26
3000.87
2996.9
2992.34
2987.19
2981.46
2975.15
2968.25
2960.78
2952.75
2944.15
2935
2925.31
2915.08
2904.33
2893.07
2881.32
2869.08
2856.37
2843.2
2829.6
2815.58
2801.16
2786.35
2771.17
2755.65
2739.8
2723.64
2707.19
2690.46
2673.49
2656.29
2638.87
2621.27
2603.49
2585.56
2567.5
2549.33
2531.07
2512.74
2494.36
2475.94
2457.52
2439.11
2420.72
2402.4
2384.15
2365.99
2347.96
2330.08
2312.37
2294.86
2277.58
2260.56
2243.81
2227.38
2211.3
2195.58
2180.28
2165.4
2150.99
2137.08
2123.69
2110.85
2098.6
2086.96
2075.95
2065.61
2055.96
2047.02
2038.82
2031.38
2024.71
2018.84
2013.77
2009.53
2006.13
2003.56
2001.85
2000.99
2587.86
2587.96
2588.22
2589.31
2591.94
2595.09
2598.94
2602.04
2604.32
2606.49
2609.78
2614.26
2619.48
2625.08
2631.07
2637.44
2644.18
2651.28
2658.72
2666.5
2674.6
2683.01
2691.71
2700.7
2709.95
2719.45
2729.18
2739.12
2749.25
2759.55
2769.98
2780.54
2791.19
2801.9
2812.66
2823.43
2834.19
2844.91
2855.56
2866.12
2876.55
2886.83
2896.94
2906.85
2916.52
2925.95
2935.09
2943.93
2952.45
2960.62
2968.42
2975.83
2982.84
2989.41
2995.54
3001.2
3006.38
3011.06
3015.24
3018.89
3022.01
3024.58
3026.59
3028.03
3028.89
3029.16
3028.85
3027.93
3026.41
3024.28
3021.53
3018.17
3014.19
3009.6
3004.38
2998.56
2992.12
2985.07
2977.42
2969.17
2960.33
2950.9
2940.91
2930.36
2919.26
2907.61
2895.45
2882.78
2869.62
2855.98
2841.88
2827.33
2812.37
2797
2781.25
2765.14
2748.68
2731.9
2714.81
2697.44
2679.81
2661.93
2643.84
2625.54
2607.07
2588.43
2569.66
2550.77
2531.78
2512.71
2493.58
2474.42
2455.24
2436.07
2416.92
2397.82
2378.78
2359.85
2341.02
2322.34
2303.83
2285.52
2267.43
2249.6
2232.05
2214.82
2197.94
2181.44
2165.35
2149.71
2134.56
2119.91
2105.81
2092.28
2079.36
2067.08
2055.46
2044.54
2034.34
2024.9
2016.22
2008.35
2001.29
1995.07
1989.71
1985.22
1981.61
1978.9
1977.09
1976.18
2568.69
2567.88
2567.42
2568.47
2571.66
2576.94
2580.98
2584.82
2587.93
2590.71
2594.5
2599.73
2606.11
2612.72
2619.48
2626.49
2633.8
2641.44
2649.41
2657.71
2666.34
2675.29
2684.54
2694.09
2703.93
2714.03
2724.39
2734.97
2745.75
2756.72
2767.85
2779.1
2790.46
2801.9
2813.38
2824.88
2836.38
2847.84
2859.22
2870.51
2881.68
2892.69
2903.51
2914.12
2924.5
2934.6
2944.42
2953.91
2963.06
2971.85
2980.25
2988.23
2995.79
3002.89
3009.52
3015.67
3021.31
3026.43
3031.01
3035.04
3038.51
3041.4
3043.71
3045.42
3046.52
3047
3046.87
3046.1
3044.7
3042.65
3039.96
3036.63
3032.65
3028.02
3022.73
3016.81
3010.23
3003.02
2995.17
2986.7
2977.6
2967.89
2957.57
2946.67
2935.19
2923.14
2910.54
2897.41
2883.76
2869.61
2854.98
2839.88
2824.34
2808.37
2792.01
2775.26
2758.15