/*--------------------------------*- C++ -*----------------------------------*\
| =========                 |                                                 |
| \\      /  F ield         | OpenFOAM: The Open Source CFD Toolbox           |
|  \\    /   O peration     | Version:  v2006                                 |
|   \\  /    A nd           | Website:  www.openfoam.com                      |
|    \\/     M anipulation  |                                                 |
\*---------------------------------------------------------------------------*/
FoamFile
{
    version     2.0;
    format      ascii;
    class       volScalarField;
    location    "0";
    object      f;
}
// * * * * * * * * * * * * * * * * * * * * * * * * * * * * * * * * * * * * * //

dimensions      [0 0 0 0 0 0 0];


internalField   nonuniform List<scalar> 
2500
(
-7.92659e-09
-9.78843e-09
4.21667e-08
4.43722e-08
-1.18724e-07
-2.45368e-07
4.18828e-07
4.45855e-07
-3.86871e-07
-1.05315e-06
-7.27281e-07
7.07061e-07
1.74745e-06
1.60942e-06
-3.76303e-06
-2.05166e-05
-1.47232e-05
8.44668e-05
7.74394e-05
-3.73131e-05
-0.000215203
-0.00023291
-0.000117981
-5.52766e-05
8.36063e-06
7.3073e-05
0.000104752
0.000105955
8.5292e-05
5.6388e-05
3.05133e-05
1.28198e-05
3.20406e-06
2.49941e-07
-6.88578e-10
-1.26809e-10
-1.04315e-12
-2.3676e-13
2.26746e-13
3.59306e-13
1.9191e-13
5.13911e-14
-1.82135e-14
-1.22118e-14
-2.5535e-15
-1.34459e-16
1.08621e-16
7.70767e-17
3.80967e-17
2.34186e-17
-2.11836e-08
7.22519e-08
1.73208e-07
-3.12756e-07
-6.95333e-07
6.22773e-07
2.25932e-06
-4.47681e-07
-5.57133e-06
-2.58655e-06
1.07233e-05
1.05901e-05
2.2668e-06
-2.7288e-07
1.80299e-05
0.000246475
0.000647084
0.000638032
0.000114976
-0.00085117
-0.00109986
-0.000425014
0.00130573
0.00404624
0.00667847
0.00789421
0.00762999
0.00626133
0.00434174
0.0025024
0.00114622
0.000364971
4.40432e-05
-2.17914e-08
-4.05201e-09
-5.40745e-11
1.73949e-13
3.52404e-12
3.1382e-12
1.49808e-12
3.30702e-13
-2.63915e-13
-1.55878e-13
-2.98863e-14
1.02498e-15
1.57736e-15
5.59459e-16
1.7385e-16
5.53038e-17
2.22634e-17
-3.85499e-08
3.40742e-07
3.70112e-07
-1.55902e-06
-1.67111e-06
4.27088e-06
6.4591e-06
-8.44012e-06
-1.92119e-05
8.7311e-06
4.90026e-05
2.4996e-05
-1.97009e-05
7.29871e-05
0.000797919
0.00203403
0.00277731
0.00203235
-0.000463411
-0.00308507
-0.00315148
0.00126053
0.0111807
0.0238962
0.0344315
0.0382594
0.0358451
0.0287617
0.0195839
0.0110859
0.00495867
0.00151028
0.000156316
8.33761e-10
-8.4323e-11
-4.31282e-11
2.38747e-11
2.23345e-11
1.147e-11
2.80365e-12
-2.64501e-12
-1.78877e-12
-4.10616e-13
-2.99277e-15
2.10007e-14
6.90176e-15
9.7999e-16
1.90757e-16
4.44348e-17
9.38131e-18
-4.16043e-08
9.71765e-07
4.72964e-07
-4.42973e-06
-2.71297e-06
1.35366e-05
1.23578e-05
-3.12198e-05
-4.01866e-05
5.369e-05
0.000128086
1.8302e-05
-7.4918e-05
0.000810203
0.00328425
0.00635333
0.00736293
0.00445754
-0.00206363
-0.00764167
-0.0061743
0.00822532
0.035819
0.0689353
0.0951157
0.103381
0.0958303
0.0763117
0.0516273
0.0290317
0.0128669
0.00384763
0.000371615
9.18274e-10
2.37541e-10
1.37239e-10
1.1324e-10
6.95218e-11
2.08011e-11
-2.45657e-11
-1.89069e-11
-5.14775e-12
-3.46664e-13
2.13234e-13
8.99898e-14
1.13331e-14
-1.10078e-16
-9.16042e-17
-5.11839e-17
-3.57758e-17
-2.10639e-08
2.05542e-06
2.55952e-07
-9.24538e-06
-3.31011e-06
3.04292e-05
1.73202e-05
-7.473e-05
-6.25196e-05
0.000156047
0.000242015
-8.1109e-05
4.02917e-05
0.00250008
0.00807792
0.0140066
0.0147802
0.00778093
-0.00546927
-0.0150892
-0.00862259
0.0234714
0.0805042
0.146962
0.198252
0.213052
0.196437
0.155812
0.105052
0.0588515
0.0259371
0.00766497
0.000707044
9.38346e-10
6.40944e-10
4.82348e-10
3.31942e-10
1.23534e-10
-2.11961e-10
-1.85421e-10
-5.79309e-11
-5.96263e-12
1.85275e-12
8.77848e-13
1.42739e-13
-3.10633e-15
-1.64711e-15
-5.91194e-16
-2.03808e-16
-9.73068e-17
5.2886e-08
3.5691e-06
-5.00335e-07
-1.5851e-05
-2.58469e-06
5.5339e-05
1.72063e-05
-0.000139186
-7.6214e-05
0.000319435
0.000364063
-0.000226176
0.000296023
0.00524052
0.0152969
0.0247139
0.024619
0.0112497
-0.0110218
-0.0245441
-0.00998738
0.0477416
0.145989
0.258184
0.343441
0.366525
0.336873
0.266549
0.179297
0.10016
0.0439422
0.0128566
0.00113939
9.43381e-09
1.33782e-09
1.28872e-09
6.25941e-10
-1.73319e-09
-1.75366e-09
-6.08392e-10
-7.51092e-11
1.45389e-11
7.63653e-12
1.58702e-12
2.81221e-14
-1.06582e-14
-4.63558e-15
-1.04541e-15
-2.84748e-16
-1.18307e-16
1.89763e-07
5.26409e-06
-1.76665e-06
-2.32368e-05
-1.81462e-07
8.41547e-05
1.06396e-05
-0.00021578
-7.42627e-05
0.000512866
0.000495102
-0.000417737
0.000722134
0.0087894
0.024019
0.0367844
0.0350058
0.013698
-0.0182261
-0.0347688
-0.00913969
0.0792606
0.225327
0.389979
0.513942
0.546044
0.500847
0.395591
0.265583
0.147963
0.0646154
0.0187108
0.00158984
3.42002e-08
1.48538e-09
2.00207e-09
-1.80503e-08
-1.65775e-08
-6.24503e-09
-8.54986e-10
9.94726e-11
5.97118e-11
1.66223e-11
1.18256e-12
-9.32754e-14
-4.91949e-14
-9.24176e-15
-7.52892e-16
-1.41786e-16
-4.18735e-17
3.57698e-07
6.7607e-06
-3.20534e-06
-2.98829e-05
3.48885e-06
0.000110121
7.32177e-08
-0.000286114
-6.15687e-05
0.000696249
0.000599004
-0.000590647
0.00126236
0.0123578
0.0321206
0.0471919
0.0430023
0.0142421
-0.0259654
-0.0437295
-0.00636009
0.111578
0.302611
0.516295
0.676262
0.716673
0.656411
0.517668
0.346847
0.192651
0.0836796
0.0239346
0.00193452
2.28535e-08
-1.52594e-07
-2.29189e-07
-1.6416e-07
-6.28946e-08
-9.99019e-09
5.54283e-10
3.99564e-10
1.50804e-10
2.25194e-11
-5.908e-13
-4.10177e-13
-1.17589e-13
-8.51865e-15
5.07201e-16
2.4445e-16
1.38411e-16
4.90007e-07
7.65603e-06
-4.28905e-06
-3.4028e-05
6.95058e-06
0.000125895
-9.22633e-06
-0.000331173
-4.68257e-05
0.000815384
0.000656101
-0.000670788
0.00174664
0.0147793
0.0368566
0.0524761
0.0459726
0.0121219
-0.0324226
-0.0495165
-0.00315607
0.135446
0.357388
0.604879
0.789767
0.835807
0.764764
0.602204
0.402543
0.222747
0.0960891
0.0270193
0.00204759
-1.65662e-06
-1.75321e-06
-1.25907e-06
-5.6487e-07
-1.23948e-07
-2.11617e-09
2.03687e-09
1.17611e-09
2.75342e-10
9.1527e-12
-2.39843e-12
-1.15906e-12
-1.74522e-13
3.74447e-15
2.07884e-15
7.13174e-16
3.24533e-16
5.26246e-07
7.72907e-06
-4.59343e-06
-3.44863e-05
8.64472e-06
0.00012722
-1.23761e-05
-0.000337285
-4.17458e-05
0.000827391
0.00066007
-0.00058795
0.00199617
0.0150753
0.0366061
0.0508963
0.042213
0.00771472
-0.0358327
-0.0510362
-0.00152533
0.142812
0.373362
0.630821
0.823388
0.871099
0.796345
0.625886
0.417023
0.229539
0.0981351
0.0270889
0.00184798
-7.18403e-06
-6.54575e-06
-3.67867e-06
-1.20412e-06
-1.34029e-07
1.0251e-08
7.35706e-09
2.47431e-09
2.557e-10
-1.77136e-11
-9.85541e-12
-2.10687e-12
-3.38608e-14
1.36475e-14
5.44931e-15
1.07494e-15
3.70164e-16
4.51067e-07
6.66113e-06
-3.76742e-06
-2.98053e-05
7.32746e-06
0.000108947
-6.34625e-06
-0.000290321
-5.4486e-05
0.000691565
0.00061225
-0.000315229
0.0019115
0.012298
0.028847
0.0389599
0.0311443
0.00202162
-0.0355588
-0.0479426
-0.00313551
0.127732
0.339048
0.576971
0.755912
0.800299
0.730436
0.57193
0.378625
0.206246
0.0865749
0.0228651
0.00127765
-2.16333e-05
-1.73751e-05
-7.62125e-06
-1.67786e-06
-7.41583e-09
3.56766e-08
1.74828e-08
3.42088e-09
-5.27121e-11
-6.34005e-11
-2.19088e-11
-1.8846e-12
1.18843e-13
5.82398e-14
9.69435e-15
5.62495e-16
1.17885e-16
2.61176e-07
4.53113e-06
-1.64517e-06
-2.03344e-05
2.15794e-06
7.27201e-05
9.01182e-06
-0.000191699
-8.53824e-05
0.000423559
0.000503852
9.9266e-05
0.00122573
0.00666362
0.0155522
0.0211038
0.0162486
-0.00277105
-0.0289683
-0.0400276
-0.00938579
0.0878593
0.25042
0.43683
0.57796
0.612886
0.557864
0.433708
0.28374
0.151728
0.0616735
0.0150865
0.000529448
-5.71966e-05
-3.63773e-05
-1.13915e-05
-1.12668e-06
1.697e-07
1.05875e-07
2.89809e-08
1.79943e-09
-3.11047e-10
-1.60866e-10
-3.0194e-11
4.98545e-13
4.44212e-13
1.24536e-13
6.86564e-15
-5.41032e-16
-3.84401e-16
3.26674e-08
2.02484e-06
6.93896e-07
-8.97194e-06
-4.12528e-06
3.07396e-05
2.38131e-05
-7.71401e-05
-0.000105054
0.000103732
0.000386899
0.00041722
0.000289887
0.000566078
0.00194548
0.00381768
0.00309472
-0.00431399
-0.0186484
-0.0294205
-0.016831
0.0384865
0.139163
0.258621
0.349902
0.372118
0.336436
0.257565
0.164371
0.0845174
0.0319719
0.0064318
-0.00010603
-0.00013249
-5.49145e-05
-1.0953e-05
5.06478e-07
5.13971e-07
2.03938e-07
2.89568e-08
-1.55602e-09
-9.45622e-10
-2.43411e-10
-9.39153e-12
2.00547e-12
1.00068e-12
1.63347e-13
-3.52518e-15
-1.88168e-15
-9.05597e-16
-1.54909e-07
-1.05941e-07
2.1194e-06
1.06133e-06
-8.47127e-06
-4.44123e-06
2.95587e-05
1.92753e-05
-9.83414e-05
-0.00012491
0.000209405
0.000536163
-0.00045251
-0.00362252
-0.00712987
-0.00738787
-0.00441998
-0.00269268
-0.00774478
-0.0181341
-0.0209636
-0.0030303
0.0403137
0.0958702
0.138625
0.148051
0.130867
0.0953164
0.0559175
0.0247811
0.00652354
-0.000430371
-0.000465929
-0.000226847
-5.52598e-05
-1.33155e-06
1.90599e-06
1.06935e-06
2.55235e-07
6.31361e-09
-3.14998e-09
-1.45454e-09
-1.96191e-10
1.02928e-11
5.87415e-12
1.39185e-12
3.64342e-14
-1.21475e-14
-4.22136e-15
-1.12692e-15
-2.21336e-07
-1.32009e-06
2.07151e-06
7.09257e-06
-8.31809e-06
-2.45821e-05
2.23666e-05
6.95862e-05
-5.33062e-05
-0.000216112
3.45252e-05
0.000414274
-0.000732938
-0.00475804
-0.00969496
-0.0104973
-0.00581052
0.000545809
0.000702599
-0.0075098
-0.0193793
-0.0251631
-0.0219179
-0.0132763
-0.00667451
-0.0068996
-0.0104489
-0.0145219
-0.0156873
-0.0131336
-0.00849773
-0.00367367
-0.00108538
-0.000166021
1.3596e-05
8.81487e-06
4.27578e-06
1.22663e-06
9.67806e-08
-1.50067e-08
-6.86747e-09
-1.34157e-09
1.08542e-11
2.20841e-11
8.55767e-12
8.03876e-13
-1.22948e-13
-4.5539e-14
-5.31508e-15
-2.29278e-16
-1.40135e-07
-1.50679e-06
7.75945e-07
8.11461e-06
-3.63346e-06
-2.79105e-05
5.78513e-06
7.3112e-05
3.23893e-06
-0.000174379
-0.000100976
0.00015922
-0.000546097
-0.00329263
-0.00680197
-0.00729916
-0.00332789
0.00273695
0.0050669
0.000419478
-0.0112583
-0.0268425
-0.0430016
-0.0583926
-0.0707364
-0.0753207
-0.0715128
-0.0597777
-0.0431392
-0.0260929
-0.0124249
-0.0043516
-0.000841615
4.30799e-05
3.51311e-05
1.61086e-05
4.65733e-06
4.40612e-07
-9.26342e-08
-3.98895e-08
-7.33118e-09
1.46974e-10
9.06079e-11
3.32088e-11
5.36542e-12
-1.01648e-12
-4.23711e-13
-5.58781e-14
3.91652e-15
1.50626e-15
7.78413e-08
-9.31135e-07
-8.60591e-07
5.07095e-06
2.68743e-06
-1.76407e-05
-1.23133e-05
4.06478e-05
5.0355e-05
-5.84705e-05
-0.000158361
-9.57168e-05
-0.000109193
-0.000643422
-0.00157476
-0.0017268
-0.000191047
0.00294688
0.0055346
0.00481816
-0.00147245
-0.0149697
-0.0346295
-0.0560409
-0.0718652
-0.0763898
-0.070694
-0.056351
-0.0378908
-0.0208767
-0.00905279
-0.00259971
-0.000132941
5.62107e-05
3.64774e-05
1.3517e-05
2.17416e-06
-4.109e-07
-1.95766e-07
-3.80545e-08
1.69108e-09
8.92077e-10
1.77051e-10
7.81121e-12
-7.49607e-12
-3.25065e-12
-4.97157e-13
3.64132e-14
1.40673e-14
2.41156e-15
2.80338e-07
-8.6695e-08
-1.96691e-06
5.64855e-07
7.03489e-06
-1.95689e-06
-2.31908e-05
-2.15018e-06
6.73705e-05
5.19843e-05
-0.000136427
-0.00023025
0.000201977
0.00119206
0.00195747
0.00180736
0.00117989
0.00147247
0.00344505
0.00561768
0.00481153
-0.00158621
-0.0137172
-0.027644
-0.0376257
-0.0391617
-0.0344043
-0.0252342
-0.0151423
-0.00717007
-0.0023583
-0.000190786
0.000179754
8.76883e-05
1.97496e-05
4.94123e-07
-1.7293e-06
-7.47391e-07
-1.29494e-07
1.44474e-08
7.22248e-09
1.48589e-09
1.47294e-11
-3.89202e-11
-1.90274e-11
-3.76108e-12
1.06458e-13
8.17035e-14
1.83803e-14
8.95277e-16
3.39801e-07
4.63633e-07
-2.22511e-06
-2.40842e-06
8.05068e-06
8.42899e-06
-2.35406e-05
-2.82432e-05
5.15789e-05
9.96197e-05
-5.70263e-05
-0.000217882
0.000222427
0.0014146
0.00239529
0.00208074
0.000602515
-0.000295919
0.000836135
0.00357284
0.00550265
0.0047765
0.00208571
-0.000428244
-0.000669423
0.000939833
0.00330918
0.00505277
0.00522386
0.00412903
0.00253512
0.00109031
0.000300352
3.26554e-05
-1.75556e-05
-1.03496e-05
-3.21871e-06
-4.29816e-07
8.41522e-08
4.1795e-08
9.87266e-09
3.74052e-10
-1.50126e-10
-8.19618e-11
-2.0263e-11
-5.15977e-13
2.54635e-13
1.08203e-13
1.19131e-14
-9.26683e-16
2.47282e-07
5.47555e-07
-1.76815e-06
-2.85019e-06
6.10215e-06
1.01483e-05
-1.52965e-05
-3.13096e-05
2.13957e-05
8.48908e-05
1.43414e-05
-0.000115598
2.57007e-05
0.00048398
0.000771713
0.000324718
-0.000615943
-0.00112192
-0.000649849
0.000505764
0.00189796
0.00382835
0.00716953
0.0126062
0.0185799
0.0224263
0.0222983
0.0190694
0.0137095
0.00810378
0.0037348
0.00119276
0.000152226
-4.74379e-05
-3.06811e-05
-1.14858e-05
-2.11782e-06
1.79488e-07
1.17573e-07
3.89397e-08
4.26639e-09
-4.82943e-10
-2.84629e-10
-8.09507e-11
-5.1558e-12
1.07316e-12
4.98515e-13
7.93934e-14
-4.36988e-15
-2.10404e-15
1.04625e-07
2.71429e-07
-9.79524e-07
-1.41479e-06
3.15487e-06
5.5093e-06
-6.94315e-06
-1.778e-05
2.42028e-06
3.84079e-05
3.77284e-05
-2.73892e-05
-0.00017405
-0.000492687
-0.000935628
-0.00124008
-0.00113327
-0.000779811
-0.000793176
-0.00152295
-0.00204418
-0.000444697
0.00474402
0.0124927
0.0196824
0.0231026
0.0221201
0.0176111
0.011527
0.00602186
0.0023184
0.000484871
-5.83606e-05
-4.5056e-05
-1.98186e-05
-5.06053e-06
-1.1821e-08
1.68523e-07
9.06445e-08
1.98736e-08
-5.24643e-10
-6.27315e-10
-2.37418e-10
-2.16104e-11
5.15414e-12
2.3904e-12
4.17837e-13
-2.46526e-14
-9.97232e-15
-2.61088e-15
2.96786e-08
-4.9607e-08
-3.2263e-07
1.88926e-07
1.11196e-06
-4.00509e-08
-3.00049e-06
-1.75482e-06
-9.49663e-08
1.70977e-06
1.85292e-05
2.36444e-06
-0.000213745
-0.000743916
-0.00137468
-0.00141852
-0.00075374
2.63136e-05
-0.000212717
-0.00179045
-0.00336751
-0.00291315
0.000387799
0.00562392
0.0101441
0.0115463
0.0102713
0.00731863
0.00404446
0.0015584
0.00022485
-0.000206375
-0.000104283
-2.996e-05
-4.26031e-06
1.34193e-06
7.3154e-07
2.96133e-07
6.63497e-08
-9.71516e-10
-1.47247e-09
-5.87218e-10
-8.51008e-11
2.07739e-11
9.94429e-12
1.92661e-12
-7.48467e-14
-4.18234e-14
-9.40234e-15
-1.448e-15
1.47834e-08
-1.68009e-07
-7.4015e-08
8.71957e-07
3.99972e-07
-2.61206e-06
-1.91945e-06
5.48958e-06
5.53137e-06
-1.00584e-05
-1.10082e-05
-7.29997e-06
-0.000106401
-0.000399716
-0.000694406
-0.000617697
-5.62662e-05
0.000467349
0.000270167
-0.000804591
-0.00200683
-0.00234425
-0.00165381
-0.000561954
-0.00010327
-0.000402141
-0.00104776
-0.00161723
-0.0017413
-0.00141037
-0.000859532
-0.000365548
-0.000104574
-7.05706e-06
8.00933e-06
4.33997e-06
1.24217e-06
1.59947e-07
-4.12934e-08
-1.75065e-08
-3.06449e-09
-1.26051e-10
8.02822e-11
3.66552e-11
6.67021e-12
-4.95342e-13
-2.07294e-13
-3.45304e-14
-6.44363e-16
2.38507e-16
1.46797e-08
-1.0814e-07
-4.92536e-08
6.03611e-07
2.80992e-07
-1.95179e-06
-1.73372e-06
4.60125e-06
7.4684e-06
-4.80136e-06
-2.03548e-05
-1.67948e-05
5.81987e-06
4.5979e-05
0.000104953
0.000179302
0.000265816
0.000312136
0.00029219
0.000261664
0.000175662
-0.000253251
-0.00128409
-0.00288136
-0.00457883
-0.00558474
-0.00551907
-0.00463986
-0.00323773
-0.00182694
-0.000789934
-0.000225309
-1.91216e-05
2.23896e-05
1.38494e-05
4.55715e-06
5.09167e-07
-2.25054e-07
-1.17861e-07
-2.67224e-08
-5.57168e-10
2.98234e-10
1.34736e-10
2.08077e-11
-3.69637e-12
-1.56256e-12
-2.46985e-13
1.29609e-14
4.83913e-15
1.3563e-15
9.41423e-09
8.03029e-09
-2.79123e-08
-3.1924e-09
9.87764e-08
-2.73619e-08
-4.35327e-07
4.76008e-08
2.58435e-06
2.86142e-06
-6.62423e-06
-1.34695e-05
3.94288e-05
0.000189702
0.000360327
0.00036425
0.000158939
-7.24501e-05
2.82482e-05
0.000580752
0.00113345
0.0010078
-0.000145774
-0.00204554
-0.00374004
-0.00438368
-0.0040303
-0.00298306
-0.0017474
-0.000755524
-0.000197712
9.82534e-06
4.42906e-05
2.695e-05
9.20336e-06
1.35722e-06
-5.54577e-07
-3.17761e-07
-8.35189e-08
-4.62837e-09
1.01613e-09
4.54819e-10
7.86663e-11
-1.34487e-11
-6.82703e-12
-1.45387e-12
1.61353e-14
1.57826e-14
4.60316e-15
1.24908e-15
-3.09292e-09
5.98865e-08
4.01709e-08
-3.08306e-07
-1.8852e-07
9.90261e-07
8.98394e-07
-2.32312e-06
-2.98347e-06
4.02593e-06
7.52537e-06
4.29853e-07
1.3057e-05
8.3891e-05
0.000167728
0.00014007
-4.90541e-05
-0.000232791
-0.000152513
0.000263088
0.000747023
0.000839665
0.000441177
-0.0002001
-0.000659417
-0.000629303
-0.000381805
-2.9427e-05
0.000224044
0.000286225
0.000214959
0.000115629
4.51421e-05
9.11386e-06
-1.2261e-06
-1.53728e-06
-7.01145e-07
-1.42298e-07
1.89557e-08
9.34616e-09
1.82086e-09
9.21603e-11
-5.17042e-11
-2.1872e-11
-3.72358e-12
3.42877e-13
1.14842e-13
1.46863e-14
9.37119e-16
4.25044e-16
-1.32842e-08
3.027e-08
7.98657e-08
-1.8953e-07
-3.08991e-07
5.89081e-07
1.15486e-06
-1.23692e-06
-3.75702e-06
8.75637e-08
8.23789e-06
7.96186e-06
-9.19829e-06
-3.74173e-05
-5.59022e-05
-6.31334e-05
-7.71787e-05
-9.87454e-05
-0.000116958
-0.000118832
-8.7074e-05
3.96877e-05
0.000347512
0.000775894
0.00125185
0.00154611
0.00155802
0.00133224
0.00093803
0.000534562
0.000236928
7.3994e-05
8.09484e-06
-8.47475e-06
-5.42499e-06
-1.80127e-06
-2.16315e-07
1.04542e-07
5.17993e-08
1.12279e-08
6.32644e-11
-2.03768e-10
-7.85938e-11
-9.50373e-12
2.34419e-12
9.83105e-13
1.43872e-13
-3.72007e-15
-1.34184e-15
-4.36661e-16
-9.94366e-09
-1.49569e-08
4.54711e-08
6.58842e-08
-1.55473e-07
-2.61383e-07
3.74879e-07
8.4966e-07
-8.91938e-07
-2.88164e-06
6.18797e-07
6.06874e-06
-6.06758e-06
-4.44632e-05
-8.46531e-05
-7.37563e-05
5.43021e-06
7.43322e-05
1.691e-05
-0.000193708
-0.000398702
-0.000360021
1.4947e-05
0.000640848
0.00117352
0.00137877
0.00125717
0.000913365
0.000522449
0.00021985
5.1773e-05
-1.09163e-05
-1.73685e-05
-9.82444e-06
-3.25315e-06
-4.55546e-07
2.34956e-07
1.35438e-07
3.43906e-08
4.49465e-10
-6.42864e-10
-2.94925e-10
-4.529e-11
7.80223e-12
3.72278e-12
7.6877e-13
1.30799e-17
-5.62841e-15
-2.09499e-15
-7.63126e-16
3.35092e-09
-2.53527e-08
-1.35268e-08
1.39909e-07
6.02959e-08
-4.81029e-07
-3.12546e-07
1.16809e-06
1.44009e-06
-1.81229e-06
-4.40018e-06
-1.64047e-07
7.47556e-06
3.41354e-06
-8.03004e-06
1.43056e-06
4.98454e-05
9.91398e-05
7.55424e-05
-4.31508e-05
-0.000182161
-0.000223818
-0.000130403
2.48563e-05
0.00012993
0.000109492
3.17251e-05
-6.1037e-05
-0.000114351
-0.000111994
-7.68622e-05
-3.90219e-05
-1.39332e-05
-2.45216e-06
7.86269e-07
6.20075e-07
2.69816e-07
5.43261e-08
-8.42559e-09
-4.22507e-09
-9.59505e-10
-8.02771e-11
2.58505e-11
1.14216e-11
2.13921e-12
-1.01919e-13
-3.8625e-14
-7.23871e-15
-1.43495e-15
-5.08798e-16
5.9619e-09
-6.21124e-09
-3.34932e-08
3.00855e-08
1.29e-07
-7.4146e-08
-4.51502e-07
9.10348e-08
1.37404e-06
5.72118e-07
-2.74404e-06
-2.49019e-06
6.87946e-06
2.27974e-05
3.1659e-05
2.6567e-05
1.46193e-05
1.29562e-05
3.39434e-05
7.2242e-05
9.20143e-05
4.92399e-05
-8.58044e-05
-0.000277976
-0.000466877
-0.000561968
-0.000545808
-0.000444829
-0.000299728
-0.000163047
-6.85713e-05
-1.68754e-05
3.74905e-07
3.09783e-06
1.90953e-06
6.64646e-07
8.79936e-08
-3.8357e-08
-2.02119e-08
-4.86539e-09
-1.4542e-10
7.40973e-11
3.49459e-11
5.99695e-12
-9.2637e-13
-4.31272e-13
-7.68578e-14
2.096e-17
2.82787e-16
1.62869e-16
1.0715e-09
1.20773e-08
-1.7561e-08
-6.36766e-08
6.43357e-08
2.2894e-07
-1.35537e-07
-5.9691e-07
-4.3283e-08
1.37163e-06
1.22729e-06
-1.708e-06
-2.52874e-06
3.64777e-06
1.08445e-05
3.51895e-06
-2.33716e-05
-4.53105e-05
-2.20363e-05
5.32986e-05
0.000125734
0.00011891
9.52212e-06
-0.000168419
-0.000316601
-0.000356099
-0.000310332
-0.000213043
-0.000110673
-3.70372e-05
-6.88672e-07
9.23624e-06
5.93012e-06
2.55955e-06
7.16228e-07
6.00552e-08
-7.51504e-08
-4.20744e-08
-1.12393e-08
-4.27825e-10
1.86586e-10
8.1277e-11
1.49238e-11
-2.69285e-12
-1.47198e-12
-3.59983e-13
-8.34448e-15
2.45051e-15
1.02894e-15
5.37989e-16
-4.99834e-10
8.65154e-09
5.25211e-09
-3.97453e-08
-2.9359e-08
1.30754e-07
1.64543e-07
-3.46314e-07
-6.87635e-07
4.6422e-07
1.89465e-06
7.05444e-08
-5.92445e-06
-1.15305e-05
-1.23425e-05
-1.33054e-05
-2.04522e-05
-2.88194e-05
-2.85735e-05
-1.28306e-05
1.24147e-05
3.30534e-05
4.09199e-05
4.86592e-05
6.63658e-05
8.41004e-05
9.85557e-05
9.85897e-05
8.12498e-05
5.49112e-05
2.98406e-05
1.17359e-05
2.73452e-06
-9.14808e-08
-4.72197e-07
-2.66588e-07
-8.23153e-08
-1.18242e-08
3.86412e-09
1.7393e-09
3.08007e-10
-6.2679e-12
-1.02833e-11
-3.8978e-12
-6.30118e-13
9.61162e-14
3.58974e-14
5.46892e-15
7.82056e-16
4.12831e-16
-1.83378e-09
-3.65707e-09
1.44069e-08
1.64677e-08
-5.40073e-08
-5.86193e-08
1.52071e-07
1.72286e-07
-2.77458e-07
-5.25791e-07
1.82251e-07
8.43159e-07
-9.83541e-07
-5.68158e-06
-8.43723e-06
-4.19344e-06
6.25774e-06
1.10378e-05
-1.54643e-06
-2.97344e-05
-4.97191e-05
-3.75549e-05
1.74081e-05
9.91996e-05
0.000168029
0.000196009
0.000182209
0.000139025
8.69192e-05
4.26716e-05
1.43746e-05
1.86009e-06
-1.69128e-06
-1.16527e-06
-4.90069e-07
-1.21093e-07
-1.2987e-09
1.1497e-08
5.57744e-09
1.28448e-09
-4.51628e-11
-4.07659e-11
-1.28386e-11
-1.13192e-12
3.5878e-13
1.62256e-13
3.33125e-14
1.34781e-15
-1.67915e-17
5.01135e-17
-6.96625e-10
-5.06933e-09
5.5577e-09
2.43424e-08
-1.18289e-08
-8.50601e-08
-1.29609e-08
2.45254e-07
1.99731e-07
-4.86574e-07
-8.61303e-07
4.47289e-07
3.06231e-06
4.56014e-06
4.5404e-06
6.46568e-06
1.26566e-05
1.7811e-05
1.295e-05
-4.24451e-06
-2.39611e-05
-2.76736e-05
-1.01651e-05
1.85673e-05
4.14251e-05
4.15339e-05
3.07452e-05
1.37473e-05
-3.34355e-07
-7.01599e-06
-7.07037e-06
-4.42937e-06
-1.91297e-06
-5.17585e-07
-2.03411e-08
7.61559e-08
4.20155e-08
1.0545e-08
6.6743e-10
-5.57439e-10
-2.43143e-10
-4.82586e-11
1.03939e-12
1.16174e-12
3.65202e-13
4.44041e-14
-8.45999e-15
-2.36645e-15
-4.7689e-16
-1.61781e-16
7.84822e-10
4.26235e-10
-6.14845e-09
4.99708e-10
2.25664e-08
-3.59111e-09
-7.16439e-08
5.77125e-09
1.96536e-07
7.3272e-08
-3.79179e-07
-1.80418e-07
1.66128e-06
4.34585e-06
5.30948e-06
3.91911e-06
1.09886e-06
1.06959e-06
5.69438e-06
1.19748e-05
1.37596e-05
6.321e-06
-1.26171e-05
-3.68506e-05
-5.98456e-05
-7.05215e-05
-6.82443e-05
-5.56459e-05
-3.78728e-05
-2.10442e-05
-8.98732e-06
-2.48878e-06
-1.61146e-07
3.39032e-07
2.18683e-07
8.01888e-08
1.51902e-08
-2.84742e-09
-1.82981e-09
-5.98872e-10
-1.05506e-10
1.56271e-11
8.26206e-12
1.81882e-12
-4.26559e-14
-4.29211e-14
-1.10226e-14
-1.40213e-15
-2.95688e-16
-1.22253e-16
6.50611e-10
1.84522e-09
-4.6833e-09
-1.10471e-08
1.44772e-08
3.97015e-08
-2.05679e-08
-1.18813e-07
-3.02548e-08
2.66063e-07
2.82961e-07
-2.97224e-07
-1.02523e-06
-1.11943e-06
-1.07967e-06
-2.55064e-06
-5.96991e-06
-7.75318e-06
-4.03766e-06
5.49243e-06
1.41003e-05
1.28011e-05
-2.07528e-07
-2.08702e-05
-3.74723e-05
-4.15787e-05
-3.60323e-05
-2.47697e-05
-1.29601e-05
-4.43435e-06
-1.36603e-07
1.11937e-06
7.15258e-07
2.94011e-07
7.33889e-08
-2.51892e-09
-1.18874e-08
-5.62905e-09
-1.37663e-09
9.56183e-12
6.99922e-11
2.78125e-11
5.33322e-12
-4.2573e-13
-2.08565e-13
-4.44786e-14
-1.87713e-15
3.50079e-16
1.17462e-16
4.42397e-17
-2.79219e-10
6.20448e-10
1.58762e-09
-3.41833e-09
-5.42524e-09
1.38267e-08
2.16627e-08
-4.05511e-08
-8.66322e-08
5.42819e-08
2.49254e-07
-4.8541e-08
-1.09923e-06
-2.30517e-06
-2.82906e-06
-2.531e-06
-2.13869e-06
-2.6896e-06
-3.73098e-06
-3.80249e-06
-2.22146e-06
1.12086e-06
5.35401e-06
1.03325e-05
1.54537e-05
1.80012e-05
1.8292e-05
1.60818e-05
1.2139e-05
7.61995e-06
3.82575e-06
1.39421e-06
2.61834e-07
-7.90437e-08
-7.24775e-08
-3.57995e-08
-8.66098e-09
-1.5754e-10
6.45832e-10
3.05375e-10
6.80856e-11
-1.88569e-12
-2.66798e-12
-9.27633e-13
-1.72566e-13
1.09357e-14
4.69239e-15
1.06741e-15
2.87177e-16
1.23724e-16
-2.814e-10
-6.03034e-10
2.39262e-09
3.96843e-09
-8.25494e-09
-1.55541e-08
1.57695e-08
4.75477e-08
-1.01235e-08
-1.12499e-07
-6.9839e-08
1.26316e-07
1.89391e-07
-1.47221e-08
-7.4803e-10
8.28712e-07
2.26154e-06
2.70306e-06
8.04974e-07
-3.23004e-06
-6.09165e-06
-4.80717e-06
1.83885e-06
1.14368e-05
1.91434e-05
2.16484e-05
1.96482e-05
1.47263e-05
8.81449e-06
4.01536e-06
1.17503e-06
2.57242e-08
-2.22457e-07
-1.33913e-07
-4.67242e-08
-7.84055e-09
2.88752e-09
1.68967e-09
4.68068e-10
4.91699e-11
-2.32777e-11
-9.51509e-12
-1.66182e-12
1.69855e-13
9.7101e-14
2.2443e-14
2.77446e-15
4.37895e-16
1.53272e-16
8.20586e-17
-4.05426e-12
-5.60658e-10
-3.23141e-12
2.43732e-09
-1.32824e-10
-8.98133e-09
-3.40171e-09
2.82793e-08
3.04285e-08
-5.11753e-08
-1.16951e-07
5.88715e-08
5.3126e-07
1.04789e-06
1.27198e-06
1.24412e-06
1.40137e-06
1.71154e-06
1.70325e-06
9.79801e-07
-3.60169e-07
-1.45353e-06
-1.82478e-06
-1.92838e-06
-2.18727e-06
-2.63168e-06
-3.13024e-06
-3.34847e-06
-2.98907e-06
-2.15493e-06
-1.26864e-06
-5.4862e-07
-1.42811e-07
-9.5666e-09
1.77332e-08
1.10381e-08
3.71544e-09
6.07684e-10
-1.69784e-10
-1.0116e-10
-2.72628e-11
-3.54085e-12
7.54858e-13
3.61187e-13
8.7481e-14
2.42578e-15
-6.16487e-16
-1.91774e-16
-4.42585e-17
-1.65375e-18
1.38161e-10
2.09393e-10
-1.03066e-09
-1.17788e-09
3.67886e-09
4.9287e-09
-7.69694e-09
-1.54733e-08
9.69488e-09
3.81635e-08
1.05319e-08
-3.75858e-08
2.21724e-08
1.75082e-07
1.71496e-07
-1.74541e-07
-7.07018e-07
-7.88261e-07
1.13632e-08
1.45092e-06
2.32879e-06
1.52094e-06
-1.2386e-06
-4.94964e-06
-7.97946e-06
-9.07461e-06
-8.35956e-06
-6.40397e-06
-4.0501e-06
-2.08091e-06
-7.68389e-07
-1.42764e-07
5.73011e-08
4.41189e-08
2.04977e-08
5.69817e-09
3.19629e-10
-4.50089e-10
-2.16699e-10
-4.73325e-11
4.04394e-12
2.76894e-12
7.47961e-13
6.1892e-14
-2.43625e-14
-7.67035e-15
-1.2042e-15
-2.85854e-16
-8.84193e-17
-3.17941e-17
2.57452e-11
2.75661e-10
-1.83666e-10
-1.22048e-09
6.63058e-10
4.49263e-09
-6.32702e-10
-1.41003e-08
-9.3999e-09
2.86204e-08
4.83359e-08
-3.30091e-08
-2.23311e-07
-4.1763e-07
-5.0093e-07
-5.49e-07
-6.86818e-07
-8.0221e-07
-6.7813e-07
-1.78996e-07
4.53885e-07
7.66656e-07
5.45204e-07
2.94906e-08
-3.98817e-07
-3.42524e-07
-8.43108e-08
2.6291e-07
4.81329e-07
4.88213e-07
3.46091e-07
1.8281e-07
6.48731e-08
1.38555e-08
-1.55607e-09
-2.97213e-09
-1.44465e-09
-3.04424e-10
5.11821e-12
2.29081e-11
9.28201e-12
1.64168e-12
-1.94612e-13
-9.93265e-14
-2.03683e-14
-2.01071e-15
-3.77184e-16
-1.39515e-16
-4.9983e-17
-2.06819e-17
-4.90703e-11
-5.98659e-11
3.75097e-10
3.19428e-10
-1.33873e-09
-1.48502e-09
3.12089e-09
4.5871e-09
-4.82293e-09
-1.13492e-08
3.07178e-10
8.55994e-09
-3.61589e-08
-1.16246e-07
-1.17335e-07
1.33973e-08
2.02739e-07
2.10388e-07
-8.75178e-08
-5.73212e-07
-8.07172e-07
-4.38766e-07
5.75546e-07
1.88994e-06
2.98061e-06
3.38975e-06
3.15447e-06
2.46157e-06
1.6015e-06
8.49266e-07
3.49828e-07
8.0553e-08
-8.31341e-09
-1.47043e-08
-8.54361e-09
-2.82939e-09
-4.1028e-10
1.3026e-10
7.63926e-11
2.17986e-11
1.46598e-12
-8.34611e-13
-3.45898e-13
-7.16003e-14
5.76295e-16
6.33953e-16
2.05424e-16
5.31511e-17
1.19806e-17
3.36973e-18
-1.78276e-11
-1.05753e-10
1.2666e-10
4.90835e-10
-4.96622e-10
-1.76639e-09
6.30778e-10
5.63922e-09
2.68494e-09
-1.24951e-08
-1.75153e-08
1.38743e-08
8.22264e-08
1.52129e-07
1.86062e-07
2.19031e-07
2.79099e-07
3.15987e-07
2.43499e-07
2.01292e-08
-2.30184e-07
-3.19744e-07
-1.52944e-07
1.63064e-07
4.24124e-07
4.45971e-07
3.38781e-07
1.57681e-07
-4.7525e-10
-8.08308e-08
-8.62972e-08
-5.70702e-08
-2.46471e-08
-6.61609e-09
-2.51e-10
9.05946e-10
4.94114e-10
1.40157e-10
1.67089e-11
-7.40865e-12
-3.43601e-12
-6.30465e-13
5.44091e-14
3.18765e-14
7.68812e-15
1.17625e-15
2.61773e-16
7.63533e-17
2.34613e-17
9.87481e-18
1.80928e-11
2.07469e-11
-1.31653e-10
-1.02615e-10
4.8323e-10
4.06193e-10
-1.15307e-09
-1.33344e-09
1.76824e-09
3.49661e-09
-1.00537e-09
-1.73556e-09
1.93487e-08
5.15047e-08
5.12554e-08
5.63562e-09
-5.66643e-08
-5.60775e-08
4.80926e-08
2.04677e-07
2.63815e-07
1.24129e-07
-2.21826e-07
-6.66559e-07
-1.03002e-06
-1.16177e-06
-1.08406e-06
-8.5579e-07
-5.67462e-07
-3.09193e-07
-1.29825e-07
-3.25757e-08
9.04438e-10
5.0373e-09
3.07859e-09
1.03629e-09
1.69891e-10
-4.59859e-11
-2.88567e-11
-8.17171e-12
-8.47042e-13
2.66806e-13
1.07752e-13
2.27926e-14
1.582e-15
1.15871e-17
5.5256e-18
3.50579e-18
1.81487e-18
1.45618e-18
8.97651e-12
3.86807e-11
-5.02908e-11
-1.62667e-10
1.78742e-10
6.20643e-10
-2.29567e-10
-1.9817e-09
-7.71407e-10
4.47447e-09
5.89756e-09
-4.85387e-09
-2.78328e-08
-5.15234e-08
-6.39708e-08
-7.72882e-08
-9.84211e-08
-1.08144e-07
-7.85387e-08
4.87532e-10
8.59931e-08
1.08234e-07
3.91776e-08
-8.10279e-08
-1.80281e-07
-1.97343e-07
-1.62208e-07
-9.44995e-08
-2.86242e-08
1.06142e-08
2.16879e-08
1.70411e-08
7.82502e-09
1.99842e-09
-1.09841e-12
-3.3346e-10
-1.83019e-10
-5.03752e-11
-5.90487e-12
2.59254e-12
1.28608e-12
2.87581e-13
1.4006e-16
-8.19201e-15
-2.85811e-15
-6.92117e-16
-2.00669e-16
-6.40011e-17
-2.07471e-17
-8.45698e-18
-7.2492e-12
-9.40572e-12
4.22824e-11
2.53034e-11
-1.4982e-10
-1.10136e-10
3.5079e-10
4.23103e-10
-5.50247e-10
-1.13303e-09
2.50555e-10
2.71461e-10
-6.8938e-09
-1.70921e-08
-1.67513e-08
-2.35617e-09
1.68293e-08
1.59513e-08
-1.67473e-08
-6.47375e-08
-8.1766e-08
-3.65327e-08
7.33169e-08
2.12519e-07
3.23861e-07
3.6329e-07
3.3887e-07
2.68345e-07
1.78723e-07
9.83221e-08
4.19029e-08
1.09649e-08
1.4748e-10
-1.48395e-09
-9.36819e-10
-3.33163e-10
-5.75011e-11
1.50709e-11
9.81405e-12
2.83308e-12
3.25881e-13
-9.23567e-14
-3.86633e-14
-8.23682e-15
-1.32127e-15
-4.12003e-16
-1.58716e-16
-6.04997e-17
-2.23166e-17
-1.03962e-17
-1.81971e-12
-1.08089e-11
1.42329e-11
5.5645e-11
-4.96091e-11
-1.93746e-10
7.93798e-11
6.047e-10
2.05163e-10
-1.34687e-09
-1.72284e-09
1.50326e-09
8.39139e-09
1.5468e-08
1.91861e-08
2.30751e-08
2.90304e-08
3.19153e-08
2.34676e-08
7.22628e-10
-2.41189e-08
-3.04292e-08
-1.12356e-08
2.20604e-08
5.07746e-08
5.64427e-08
4.64386e-08
2.71288e-08
8.77176e-09
-2.19784e-09
-5.54387e-09
-4.56984e-09
-2.10905e-09
-5.48647e-10
-3.33953e-11
6.56004e-11
4.07095e-11
1.44699e-11
2.61711e-12
-5.34886e-13
-2.83907e-13
-6.41469e-14
-6.70351e-15
1.14012e-16
-1.5309e-16
-1.24096e-16
-6.70244e-17
-3.10133e-17
-1.30459e-17
-6.8635e-18
1.32135e-12
3.67884e-12
-7.99936e-12
-9.42579e-12
3.60964e-11
3.37887e-11
-7.8896e-11
-1.19187e-10
1.24863e-10
3.38777e-10
4.63478e-11
2.03823e-11
1.59115e-09
3.92235e-09
3.7949e-09
8.30714e-12
-4.9514e-09
-4.85096e-09
3.54025e-09
1.62246e-08
2.11636e-08
9.68847e-09
-1.85835e-08
-5.41766e-08
-8.30988e-08
-9.35268e-08
-8.71442e-08
-6.87133e-08
-4.55852e-08
-2.50151e-08
-1.06964e-08
-2.89191e-09
-1.66431e-10
3.28404e-10
2.10244e-10
7.96512e-11
1.536e-11
-2.63767e-12
-1.90833e-12
-6.76288e-13
-1.2259e-13
1.1541e-14
5.6052e-15
1.27479e-15
2.72022e-16
5.03035e-17
6.29209e-19
-5.89558e-18
-4.02758e-18
-2.75711e-18
4.50686e-13
1.5273e-12
-4.31703e-12
-1.22246e-11
6.05286e-12
4.14803e-11
1.05746e-12
-1.15234e-10
-6.02708e-11
2.68027e-10
3.93646e-10
-2.96976e-10
-1.85735e-09
-3.41392e-09
-4.137e-09
-4.64503e-09