/*--------------------------------*- C++ -*----------------------------------*\
| =========                 |                                                 |
| \\      /  F ield         | OpenFOAM: The Open Source CFD Toolbox           |
|  \\    /   O peration     | Version:  v2006                                 |
|   \\  /    A nd           | Website:  www.openfoam.com                      |
|    \\/     M anipulation  |                                                 |
\*---------------------------------------------------------------------------*/
FoamFile
{
    version     2.0;
    format      ascii;
    class       volScalarField;
    location    "11";
    object      p;
}
// * * * * * * * * * * * * * * * * * * * * * * * * * * * * * * * * * * * * * //

dimensions      [1 -1 -2 0 0 0 0];


internalField   nonuniform List<scalar> 
150000
(
16872.4
16872
16871.2
16870
16868.3
16866.2
16863.8
16861
16857.7
16854.2
16850.2
16845.9
16841.3
16836.3
16831
16825.3
16819.3
16813
16806.4
16799.5
16792.4
16784.9
16777.2
16769.2
16761
16752.6
16743.9
16735.1
16726
16716.8
16707.3
16697.8
16688
16678.2
16668.2
16658.1
16647.9
16637.6
16627.2
16616.8
16606.4
16595.9
16585.4
16574.9
16564.3
16553.8
16543.4
16532.9
16522.5
16512.2
16502
16491.8
16481.8
16471.8
16462
16452.4
16442.9
16433.6
16424.4
16415.5
16406.8
16398.3
16390.1
16382.1
16374.4
16367
16359.9
16353.1
16346.6
16340.5
16334.8
16329.4
16324.5
16320
16316
16312.4
16309.4
16306.9
16304.9
16303.6
16302.8
16302.6
16303
16304.1
16305.9
16308.3
16311.5
16315.4
16320
16325.4
16331.5
16338.5
16346.1
16354.6
16363.9
16374
16384.9
16396.6
16409.2
16422.5
16436.7
16451.7
16467.5
16484.1
16501.5
16519.7
16538.7
16558.5
16579
16600.3
16622.4
16645.2
16668.6
16692.8
16717.7
16743.2
16769.3
16796.1
16823.5
16851.5
16880
16909.1
16938.8
16969
16999.6
17030.7
17062.3
17094.2
17126.6
17159.3
17192.3
17225.6
17259.2
17293
17327.1
17361.4
17395.8
17430.4
17465.2
17500
17535
17570
17605
17640.1
17675.2
17710.3
17745.3
17780.3
17815.2
17850.1
17884.9
17919.5
17954.1
17988.5
18022.7
18056.8
18090.7
18124.4
18158
18191.5
18224.8
18257.9
18290.9
18323.7
18356.4
18388.9
18421.2
18453.4
18485.4
18517.3
18548.9
18580.4
18611.7
18643
18674.1
18705.1
18736
18766.9
18797.7
18828.4
18859.1
18889.8
18920.4
18951
18981.5
19012.1
19042.6
19073.1
19103.7
19134.3
19164.9
19195.5
19226.1
19256.8
19287.6
19318.3
19349.1
19380
19410.8
19441.8
19472.7
19503.7
19534.7
19565.7
19596.7
19627.7
19658.7
19689.7
19720.6
19751.5
19782.4
19813.2
19843.9
19874.5
19905
19935.4
19965.7
19995.7
20025.6
20055.3
20084.8
20114
20143
20171.7
20200.2
20228.3
20256.1
20283.5
20310.6
20337.4
20363.7
20389.6
20415
20440
20464.6
20488.8
20512.8
20536.3
20559
20581
20602.4
20623.3
20643.7
20663.5
20682.7
20701.3
20719.2
20736.5
20753
20769
20784.4
20799.4
20813.8
20827.7
20841.1
20853.8
20866
20877.5
20888.5
20899
20909.1
20918.7
20927.8
20936.3
20944.3
20951.7
20958.6
20964.9
20970.6
20975.7
20980.4
20984.7
20988.6
20992.2
20995.5
20998.5
21001.4
21004
21006.3
21008.4
21010.4
21012.2
21013.8
21015.3
21016.8
21018.3
21019.7
21021.2
21022.8
21024.4
21026.1
21028
21030
21032.2
21034.7
21037.4
21040.4
21043.8
21047.5
21051.6
21056
21060.9
21066.2
21072
21078.3
21085.1
21092.4
21100.2
21108.6
21117.6
21127.2
21137.4
21148.2
21159.7
21171.8
21184.6
21198.1
21212.2
21227.1
21242.6
21258.9
21275.8
21293.5
21311.9
21331
21350.8
21371.4
21392.7
21414.7
21437.5
21461
21485.2
21510.2
21535.9
21562.3
21589.4
21617.3
21645.9
21675.2
21705.2
21735.9
21767.3
21799.4
21832.2
21865.7
21899.8
21934.7
21970.2
22006.3
22043.1
22080.5
22118.6
22157.3
22196.6
22236.5
22277.1
22318.2
22359.8
22402.1
22444.9
22488.2
22532
22576.4
22621.3
22666.6
22712.4
22758.7
22805.4
22852.5
22900.1
22948
22996.3
23044.9
23093.9
23143.2
23192.8
23242.7
23292.8
23343.2
23393.8
23444.6
23495.5
23546.7
23598
23649.4
23700.9
23752.5
23804.2
23855.9
23907.7
23959.5
24011.2
24063
24114.7
24166.3
24217.8
24269.3
24320.6
24371.8
24422.8
24473.6
24524.3
24574.8
24625.1
24675.1
24724.9
24774.5
24823.8
24872.8
24921.6
24970.1
25018.2
25066.1
25113.6
25160.8
25207.6
25254.1
25300.3
25346
25391.4
25436.4
25481
25525.2
25569
25612.5
25655.7
25698.4
25740.9
25782.9
25824.6
25865.9
25906.9
25947.4
25987.6
26027.5
26067
26106.1
26144.9
26183.4
26221.4
26259.2
26296.6
26333.7
26370.4
26406.8
26442.9
26478.6
26513.9
26549
26583.7
26618
26652
26685.6
26718.9
26752
26784.9
26817.4
26849.5
26881.3
26912.7
26943.7
26974.3
27004.5
27034.2
27063.5
27092.3
27120.6
27148.4
27175.6
27202.4
27228.5
27254.1
27279.1
27303.5
27327.2
27350.2
27372.6
27394.3
27415.2
27435.4
27454.8
27473.4
27491.1
27508.1
27524.2
27539.4
27553.7
27567
27579.5
27591
27601.5
27611
27619.5
27627
27633.5
27639
27643.3
27646.6
27648.8
27649.7
16545.7
16545.3
16544.5
16543.2
16541.6
16539.5
16537.1
16534.2
16531
16527.4
16523.5
16519.2
16514.5
16509.5
16504.2
16498.5
16492.5
16486.2
16479.6
16472.7
16465.5
16458.1
16450.4
16442.4
16434.2
16425.7
16417.1
16408.2
16399.1
16389.9
16380.4
16370.9
16361.1
16351.2
16341.3
16331.1
16320.9
16310.6
16300.3
16289.9
16279.4
16268.9
16258.4
16247.8
16237.3
16226.8
16216.3
16205.9
16195.5
16185.2
16174.9
16164.7
16154.7
16144.7
16134.9
16125.2
16115.7
16106.4
16097.3
16088.3
16079.6
16071.1
16062.9
16054.9
16047.2
16039.8
16032.6
16025.8
16019.3
16013.2
16007.5
16002.1
15997.2
15992.7
15988.7
15985.1
15982.1
15979.5
15977.6
15976.2
15975.4
15975.2
15975.6
15976.7
15978.4
15980.9
15984
15987.9
15992.5
15997.9
16004
16010.9
16018.6
16027.1
16036.4
16046.4
16057.3
16069.1
16081.6
16095
16109.1
16124.1
16139.9
16156.5
16174
16192.2
16211.2
16231
16251.5
16272.8
16294.9
16317.6
16341.1
16365.3
16390.2
16415.7
16441.9
16468.7
16496.1
16524.1
16552.6
16581.7
16611.4
16641.6
16672.3
16703.4
16735
16767
16799.3
16832
16865
16898.4
16932
16965.8
16999.9
17034.2
17068.7
17103.3
17138.1
17173
17207.9
17242.9
17278
17313.1
17348.2
17383.3
17418.3
17453.3
17488.3
17523.1
17557.9
17592.6
17627.1
17661.5
17695.8
17729.9
17763.8
17797.5
17831.1
17864.5
17897.8
17931
17964
17996.9
18029.6
18062.1
18094.4
18126.6
18158.6
18190.4
18222.1
18253.5
18284.8
18316
18347.1
18378.1
18409
18439.9
18470.7
18501.4
18532.1
18562.8
18593.4
18623.9
18654.5
18685
18715.5
18746.1
18776.6
18807.2
18837.8
18868.4
18899
18929.7
18960.5
18991.2
19022
19052.8
19083.7
19114.6
19145.6
19176.6
19207.5
19238.6
19269.6
19300.6
19331.6
19362.6
19393.5
19424.4
19455.3
19486.1
19516.8
19547.4
19578
19608.3
19638.6
19668.7
19698.6
19728.3
19757.7
19787
19816
19844.7
19873.1
19901.3
19929.1
19956.6
19983.7
20010.4
20036.7
20062.7
20088.1
20113.2
20137.8
20162.1
20185.9
20209.4
20232.5
20254.9
20276.6
20297.5
20317.7
20337.3
20356.3
20374.7
20392.5
20409.6
20426.1
20442
20457.5
20472.5
20487
20500.9
20514.3
20527
20539.1
20550.6
20561.6
20572.2
20582.3
20592
20601.1
20609.7
20617.6
20625
20631.7
20637.8
20643.5
20648.8
20653.7
20658.1
20662.1
20665.7
20669
20672
20674.7
20677.2
20679.5
20681.6
20683.5
20685.2
20686.8
20688.3
20689.8
20691.2
20692.6
20694.1
20695.6
20697.2
20698.9
20700.7
20702.7
20705
20707.4
20710.2
20713.2
20716.5
20720.2
20724.2
20728.7
20733.6
20738.9
20744.6
20750.9
20757.7
20765
20772.8
20781.2
20790.2
20799.7
20809.9
20820.8
20832.2
20844.3
20857.1
20870.6
20884.7
20899.5
20915.1
20931.3
20948.2
20965.9
20984.3
21003.4
21023.2
21043.8
21065.1
21087.1
21109.9
21133.4
21157.6
21182.6
21208.3
21234.7
21261.9
21289.7
21318.3
21347.6
21377.6
21408.3
21439.7
21471.9
21504.6
21538.1
21572.3
21607.1
21642.6
21678.8
21715.6
21753
21791.1
21829.8
21869.1
21909
21949.5
21990.7
22032.3
22074.6
22117.4
22160.7
22204.6
22249
22293.8
22339.2
22385
22431.3
22478
22525.2
22572.7
22620.6
22668.9
22717.6
22766.6
22815.9
22865.5
22915.4
22965.5
23015.9
23066.5
23117.3
23168.3
23219.5
23270.8
23322.2
23373.8
23425.4
23477.1
23528.9
23580.6
23632.4
23684.2
23736
23787.7
23839.3
23890.9
23942.3
23993.6
24044.8
24095.8
24146.7
24197.4
24247.9
24298.2
24348.2
24398
24447.6
24497
24546
24594.8
24643.3
24691.4
24739.3
24786.8
24834
24880.9
24927.4
24973.5
25019.3
25064.6
25109.6
25154.1
25198.3
25242.1
25285.6
25328.7
25371.5
25414
25456.1
25497.7
25539.1
25580
25620.5
25660.7
25700.6
25740
25779.2
25817.9
25856.4
25894.5
25932.2
25969.6
26006.7
26043.4
26079.8
26115.8
26151.5
26186.8
26221.8
26256.6
26290.9
26324.9
26358.7
26392.2
26425.4
26458.2
26490.7
26522.9
26554.7
26586.1
26617.1
26647.7
26677.8
26707.5
26736.8
26765.6
26793.9
26821.7
26848.9
26875.7
26901.8
26927.4
26952.4
26976.7
27000.5
27023.5
27045.9
27067.5
27088.5
27108.6
27128
27146.6
27164.4
27181.3
27197.4
27212.6
27226.9
27240.3
27252.7
27264.2
27274.7
27284.3
27292.8
27300.3
27306.8
27312.2
27316.6
27319.9
27322.1
27323.1
16219.3
16218.8
16218
16216.8
16215.1
16213.1
16210.6
16207.8
16204.5
16201
16197
16192.7
16188
16183
16177.7
16172
16166
16159.6
16153
16146.1
16138.9
16131.5
16123.7
16115.7
16107.5
16099
16090.4
16081.5
16072.4
16063.1
16053.7
16044.1
16034.3
16024.4
16014.4
16004.3
15994.1
15983.8
15973.4
15962.9
15952.4
15941.9
15931.4
15920.8
15910.3
15899.8
15889.3
15878.8
15868.4
15858
15847.8
15837.6
15827.5
15817.5
15807.7
15798
15788.5
15779.2
15770
15761.1
15752.3
15743.8
15735.5
15727.5
15719.8
15712.3
15705.2
15698.3
15691.8
15685.7
15679.9
15674.5
15669.6
15665
15661
15657.4
15654.3
15651.8
15649.8
15648.3
15647.5
15647.3
15647.7
15648.8
15650.5
15652.9
15656
15659.9
15664.5
15669.8
15675.9
15682.8
15690.5
15699
15708.2
15718.3
15729.2
15740.9
15753.5
15766.8
15781
15796
15811.8
15828.4
15845.8
15864.1
15883.1
15902.9
15923.4
15944.7
15966.8
15989.6
16013.1
16037.3
16062.2
16087.8
16114
16140.9
16168.3
16196.3
16224.9
16254.1
16283.8
16314
16344.7
16375.9
16407.4
16439.4
16471.8
16504.5
16537.6
16571
16604.6
16638.5
16672.6
16706.9
16741.4
16776.1
16810.9
16845.8
16880.8
16915.8
16950.9
16986.1
17021.2
17056.3
17091.4
17126.4
17161.4
17196.2
17231
17265.7
17300.3
17334.7
17369
17403.1
17437
17470.8
17504.4
17537.9
17571.2
17604.3
17637.2
17670
17702.6
17735.1
17767.5
17799.7
17831.7
17863.5
17895.1
17926.6
17957.9
17989.1
18020.2
18051.2
18082.1
18113
18143.7
18174.5
18205.1
18235.7
18266.3
18296.9
18327.4
18357.9
18388.4
18419
18449.5
18480
18510.6
18541.2
18571.9
18602.5
18633.2
18664
18694.8
18725.6
18756.5
18787.4
18818.4
18849.3
18880.3
18911.3
18942.3
18973.4
19004.4
19035.4
19066.3
19097.3
19128.1
19159
19189.7
19220.3
19250.9
19281.3
19311.5
19341.6
19371.5
19401.2
19430.7
19460
19489
19517.8
19546.2
19574.4
19602.2
19629.7
19656.8
19683.6
19710
19735.9
19761.5
19786.6
19811.3
19835.7
19859.6
19883
19905.8
19927.9
19949.4
19970.4
19990.7
20010.5
20029.6
20048.1
20066
20083.2
20099.9
20115.9
20131.5
20146.5
20161
20174.9
20188.2
20200.9
20213
20224.5
20235.4
20245.9
20255.9
20265.4
20274.6
20283.2
20291.2
20298.6
20305.5
20311.7
20317.4
20322.5
20327.3
20331.6
20335.5
20339.1
20342.4
20345.3
20348
20350.5
20352.7
20354.8
20356.6
20358.4
20359.9
20361.4
20362.8
20364.2
20365.6
20367
20368.5
20370
20371.7
20373.5
20375.5
20377.6
20380
20382.7
20385.7
20389
20392.6
20396.7
20401.1
20405.9
20411.2
20416.9
20423.1
20429.9
20437.1
20445
20453.3
20462.3
20471.8
20482
20492.8
20504.3
20516.3
20529.1
20542.6
20556.7
20571.5
20587
20603.2
20620.2
20637.8
20656.2
20675.3
20695.1
20715.7
20736.9
20759
20781.7
20805.2
20829.5
20854.5
20880.2
20906.6
20933.7
20961.6
20990.2
21019.5
21049.5
21080.2
21111.6
21143.7
21176.5
21210
21244.2
21279
21314.5
21350.6
21387.4
21424.9
21463
21501.7
21541
21580.9
21621.5
21662.6
21704.3
21746.5
21789.4
21832.7
21876.6
21921
21965.9
22011.2
22057.1
22103.4
22150.1
22197.3
22244.8
22292.8
22341.1
22389.8
22438.8
22488.1
22537.8
22587.7
22637.9
22688.3
22738.9
22789.8
22840.8
22892
22943.3
22994.8
23046.3
23098
23149.7
23201.5
23253.3
23305.1
23356.9
23408.7
23460.4
23512.1
23563.7
23615.1
23666.5
23717.7
23768.8
23819.7
23870.4
23920.9
23971.1
24021.2
24071
24120.6
24170
24219
24267.8
24316.3
24364.5
24412.3
24459.8
24507
24553.9
24600.4
24646.5
24692.3
24737.7
24782.7
24827.3
24871.6
24915.5
24959
25002.2
25045
25087.4
25129.5
25171.2
25212.5
25253.5
25294.1
25334.3
25374.2
25413.7
25452.9
25491.7
25530.1
25568.2
25606
25643.4
25680.5
25717.3
25753.7
25789.8
25825.6
25861
25896.1
25930.7
25965.1
25999.1
26032.9
26066.3
26099.4
26132.2
26164.6
26196.7
26228.5
26259.9
26290.8
26321.4
26351.6
26381.3
26410.5
26439.3
26467.6
26495.4
26522.7
26549.4
26575.5
26601.1
26626.1
26650.5
26674.2
26697.3
26719.6
26741.3
26762.2
26782.4
26801.8
26820.4
26838.2
26855.2
26871.3
26886.5
26900.8
26914.2
26926.6
26938.1
26948.7
26958.2
26966.7
26974.2
26980.7
26986.2
26990.6
26993.9
26996.1
26997.1
15893.1
15892.7
15891.9
15890.6
15888.9
15886.8
15884.4
15881.5
15878.3
15874.7
15870.7
15866.4
15861.7
15856.7
15851.3
15845.6
15839.6
15833.3
15826.6
15819.7
15812.5
15805
15797.2
15789.2
15781
15772.5
15763.8
15754.9
15745.8
15736.5
15727
15717.4
15707.6
15697.7
15687.6
15677.5
15667.2
15656.9
15646.5
15636
15625.5
15615
15604.4
15593.8
15583.3
15572.7
15562.2
15551.7
15541.2
15530.9
15520.6
15510.4
15500.3
15490.3
15480.4
15470.7
15461.2
15451.8
15442.6
15433.6
15424.8
15416.3
15408
15399.9
15392.2
15384.7
15377.5
15370.6
15364
15357.9
15352
15346.6
15341.6
15337
15332.9
15329.3
15326.2
15323.6
15321.6
15320.1
15319.2
15318.9
15319.3
15320.3
15322
15324.4
15327.5
15331.3
15335.9
15341.2
15347.3
15354.2
15361.8
15370.3
15379.5
15389.6
15400.5
15412.2
15424.7
15438.1
15452.3
15467.3
15483.1
15499.7
15517.1
15535.4
15554.4
15574.2
15594.8
15616.1
15638.2
15661.1
15684.6
15708.9
15733.8
15759.4
15785.7
15812.6
15840.1
15868.1
15896.8
15926
15955.7
15986
16016.7
16047.9
16079.6
16111.6
16144
16176.8
16209.9
16243.3
16277
16311
16345.1
16379.5
16414.1
16448.8
16483.6
16518.6
16553.6
16588.7
16623.9
16659
16694.2
16729.3
16764.4
16799.5
16834.5
16869.4
16904.2
16938.9
16973.5
17007.9
17042.2
17076.3
17110.3
17144
17177.7
17211.3
17244.6
17277.8
17310.8
17343.7
17376.3
17408.8
17441
17473.1
17505
17536.8
17568.3
17599.8
17631.1
17662.3
17693.4
17724.4
17755.3
17786.1
17816.9
17847.5
17878.2
17908.8
17939.3
17969.8
18000.3
18030.8
18061.3
18091.8
18122.3
18152.9
18183.4
18214
18244.6
18275.3
18306
18336.7
18367.5
18398.3
18429.2
18460.1
18491.1
18522
18553
18584
18615.1
18646.1
18677.1
18708.1
18739.1
18770.1
18800.9
18831.8
18862.5
18893.2
18923.7
18954.2
18984.4
19014.6
19044.5
19074.2
19103.8
19133.1
19162.1
19190.9
19219.4
19247.6
19275.4
19303
19330.1
19356.9
19383.3
19409.3
19434.9
19460
19484.7
19509
19532.9
19556.2
19579.1
19601.4
19623
19644
19664.4
19684.2
19703.3
19721.9
19739.8
19757.2
19773.9
19790.1
19805.7
19820.7
19835.2
19849.1
19862.4
19875.2
19887.3
19898.9
19909.9
19920.4
19930.4
19939.8
19948.8
19957.3
19965.2
19972.5
19979.2
19985.3
19991
19996.2
20000.9
20005.3
20009.2
20012.8
20016
20018.9
20021.6
20024
20026.2
20028.2
20030
20031.6
20033.1
20034.5
20035.9
20037.2
20038.5
20039.9
20041.3
20042.8
20044.4
20046.1
20048
20050.2
20052.5
20055.1
20058.1
20061.3
20064.9
20068.8
20073.2
20078
20083.2
20088.9
20095.1
20101.8
20109
20116.8
20125.1
20134
20143.5
20153.7
20164.4
20175.9
20187.9
20200.7
20214.1
20228.2
20243
20258.5
20274.7
20291.6
20309.3
20327.6
20346.7
20366.5
20387.1
20408.4
20430.4
20453.2
20476.7
20500.9
20525.8
20551.5
20578
20605.1
20633
20661.6
20690.9
20720.9
20751.6
20783
20815.1
20847.9
20881.4
20915.6
20950.4
20985.9
21022.1
21058.9
21096.3
21134.4
21173.1
21212.5
21252.4
21293
21334.1
21375.8
21418.1
21460.9
21504.3
21548.2
21592.6
21637.5
21682.9
21728.7
21775.1
21821.8
21869
21916.6
21964.6
22012.9
22061.6
22110.7
22160.1
22209.7
22259.7
22309.9
22360.3
22411
22461.9
22512.9
22564.2
22615.6
22667.1
22718.7
22770.4
22822.1
22874
22925.8
22977.7
23029.5
23081.3
23133.1
23184.8
23236.4
23287.9
23339.3
23390.6
23441.6
23492.6
23543.3
23593.8
23644.2
23694.3
23744.1
23793.7
23843.1
23892.2
23941
23989.5
24037.7
24085.5
24133.1
24180.3
24227.2
24273.7
24319.9
24365.7
24411.1
24456.1
24500.8
24545.1
24589
24632.6
24675.8
24718.6
24761.1
24803.1
24844.9
24886.2
24927.2
24967.8
25008
25047.9
25087.4
25126.6
25165.4
25203.9
25242
25279.8
25317.2
25354.3
25391
25427.4
25463.5
25499.2
25534.6
25569.6
25604.3
25638.8
25672.9
25706.7
25740.1
25773.3
25806.1
25838.5
25870.6
25902.4
25933.8
25964.8
25995.3
26025.5
26055.2
26084.5
26113.3
26141.6
26169.4
26196.6
26223.4
26249.6
26275.2
26300.2
26324.5
26348.3
26371.4
26393.8
26415.4
26436.4
26456.6
26476
26494.7
26512.5
26529.5
26545.6
26560.8
26575.2
26588.6
26601.1
26612.6
26623.2
26632.7
26641.3
26648.8
26655.3
26660.8
26665.2
26668.5
26670.7
26671.7
15567.2
15566.8
15566
15564.7
15563
15560.9
15558.4
15555.6
15552.3
15548.7
15544.7
15540.4
15535.7
15530.6
15525.2
15519.5
15513.5
15507.1
15500.5
15493.5
15486.3
15478.7
15471
15462.9
15454.6
15446.1
15437.4
15428.4
15419.3
15409.9
15400.4
15390.8
15381
15371
15360.9
15350.8
15340.5
15330.1
15319.7
15309.2
15298.6
15288
15277.4
15266.8
15256.2
15245.6
15235.1
15224.5
15214.1
15203.6
15193.3
15183.1
15172.9
15162.9
15153
15143.3
15133.7
15124.3
15115.1
15106
15097.2
15088.6
15080.3
15072.2
15064.3
15056.8
15049.6
15042.6
15036
15029.8
15023.9
15018.4
15013.4
15008.7
15004.6
15000.9
14997.7
14995.1
14993
14991.4
14990.5
14990.2
14990.5
14991.5
14993.1
14995.4
14998.5
15002.3
15006.8
15012.1
15018.1
15025
15032.6
15041
15050.3
15060.3
15071.2
15082.9
15095.4
15108.8
15123
15138
15153.8
15170.4
15187.9
15206.1
15225.2
15245
15265.6
15287
15309.2
15332
15355.6
15379.9
15404.9
15430.6
15456.9
15483.8
15511.4
15539.5
15568.2
15597.5
15627.3
15657.6
15688.4
15719.7
15751.4
15783.5
15816
15848.9
15882
15915.5
15949.3
15983.3
16017.5
16052
16086.6
16121.4
16156.3
16191.3
16226.4
16261.6
16296.8
16332
16367.2
16402.4
16437.6
16472.7
16507.7
16542.7
16577.5
16612.2
16646.9
16681.3
16715.7
16749.8
16783.8
16817.7
16851.3
16884.8
16918
16951.1
16984.1
17016.9
17049.5
17082
17114.3
17146.4
17178.4
17210.2
17241.8
17273.2
17304.5
17335.6
17366.7
17397.7
17428.5
17459.3
17490
17520.7
17551.3
17581.8
17612.4
17642.8
17673.3
17703.8
17734.2
17764.7
17795.2
17825.7
17856.2
17886.8
17917.4
17948
17978.7
18009.4
18040.2
18071
18101.9
18132.8
18163.7
18194.7
18225.7
18256.7
18287.7
18318.8
18349.8
18380.8
18411.8
18442.8
18473.7
18504.6
18535.3
18566
18596.6
18627.1
18657.4
18687.5
18717.5
18747.3
18776.9
18806.2
18835.3
18864.1
18892.7
18920.9
18948.8
18976.4
19003.6
19030.4
19056.9
19082.9
19108.6
19133.8
19158.6
19182.9
19206.8
19230.2
19253
19275.3
19296.9
19317.9
19338.3
19358.2
19377.4
19396
19414
19431.4
19448.2
19464.5
19480.1
19495.2
19509.8
19523.7
19537
19549.7
19561.9
19573.5
19584.5
19595
19605
19614.4
19623.4
19631.8
19639.6
19646.8
19653.5
19659.6
19665.3
19670.4
19675.1
19679.3
19683.2
19686.7
19689.9
19692.7
19695.3
19697.6
19699.7
19701.6
19703.3
19704.9
19706.3
19707.7
19708.9
19710.2
19711.4
19712.7
19714
19715.4
19716.9
19718.6
19720.4
19722.5
19724.8
19727.3
19730.2
19733.3
19736.8
19740.7
19745
19749.7
19754.9
19760.5
19766.6
19773.3
19780.4
19788.1
19796.4
19805.3
19814.8
19824.9
19835.6
19847
19859
19871.7
19885.1
19899.2
19914
19929.5
19945.7
19962.6
19980.2
19998.5
20017.6
20037.4
20058
20079.3
20101.3
20124
20147.5
20171.7
20196.7
20222.4
20248.8
20276
20303.8
20332.4
20361.7
20391.7
20422.4
20453.9
20486
20518.8
20552.3
20586.4
20621.3
20656.8
20693
20729.8
20767.3
20805.4
20844.1
20883.4
20923.4
20964
21005.1
21046.8
21089.1
21132
21175.4
21219.3
21263.7
21308.6
21354.1
21400
21446.3
21493.1
21540.3
21588
21636
21684.4
21733.1
21782.2
21831.6
21881.3
21931.3
21981.6
22032.1
22082.8
22133.7
22184.9
22236.1
22287.6
22339.1
22390.8
22442.5
22494.4
22546.2
22598.1
22650
22701.9
22753.8
22805.6
22857.4
22909
22960.6
23012
23063.3
23114.5
23165.5
23216.2
23266.8
23317.2
23367.3
23417.2
23466.9
23516.3
23565.4
23614.2
23662.8
23711
23758.9
23806.5
23853.7
23900.6
23947.2
23993.4
24039.2
24084.6
24129.7
24174.4
24218.8
24262.7
24306.3
24349.5
24392.4
24434.8
24476.9
24518.7
24560
24601
24641.7
24681.9
24721.8
24761.3
24800.5
24839.3
24877.8
24915.9
24953.7
24991.1
25028.2
25065
25101.4
25137.5
25173.3
25208.7
25243.9
25278.7
25313
25347.1
25380.9
25414.3
25447.4
25480.2
25512.7
25544.8
25576.5
25607.9
25638.9
25669.5
25699.6
25729.3
25758.6
25787.4
25815.7
25843.6
25870.9
25897.6
25923.8
25949.5
25974.5
25998.9
26022.7
26045.8
26068.2
26090
26111
26131.2
26150.7
26169.4
26187.2
26204.3
26220.4
26235.7
26250.1
26263.5
26276.1
26287.6
26298.2
26307.8
26316.4
26323.9
26330.5
26336
26340.4
26343.8
26346
26346.9
15241.6
15241.2
15240.3
15239.1
15237.4
15235.2
15232.7
15229.9
15226.6
15223
15219
15214.6
15209.9
15204.8
15199.4
15193.6
15187.6
15181.2
15174.5
15167.5
15160.2
15152.7
15144.8
15136.8
15128.4
15119.9
15111.1
15102.1
15092.9
15083.5
15074
15064.3
15054.4
15044.4
15034.3
15024.1
15013.8
15003.4
14992.9
14982.3
14971.7
14961.1
14950.5
14939.8
14929.1
14918.5
14907.9
14897.3
14886.8
14876.4
14866
14855.7
14845.5
14835.5
14825.5
14815.7
14806.1
14796.7
14787.4
14778.3
14769.4
14760.8
14752.4
14744.2
14736.3
14728.7
14721.4
14714.4
14707.7
14701.4
14695.5
14689.9
14684.8
14680.1
14675.9
14672.1
14668.9
14666.1
14664
14662.4
14661.4
14661
14661.2
14662.1
14663.7
14666
14669
14672.7
14677.2
14682.4
14688.4
14695.2
14702.8
14711.2
14720.4
14730.5
14741.3
14753
14765.5
14778.9
14793.1
14808.1
14823.9
14840.6
14858.1
14876.3
14895.4
14915.3
14935.9
14957.4
14979.5
15002.5
15026.1
15050.5
15075.5
15101.3
15127.6
15154.6
15182.3
15210.5
15239.3
15268.6
15298.5
15328.9
15359.8
15391.2
15423
15455.1
15487.7
15520.7
15553.9
15587.5
15621.3
15655.4
15689.8
15724.3
15759
15793.9
15828.9
15863.9
15899.1
15934.4
15969.6
16004.9
16040.2
16075.5
16110.7
16145.9
16181
16216
16250.9
16285.6
16320.3
16354.8
16389.1
16423.3
16457.3
16491.2
16524.9
16558.4
16591.9
16624.9
16657.9
16690.7
16723.3
16755.7
16788
16820.1
16852
16883.7
16915.2
16946.6
16977.9
17009
17040.1
17071
17101.8
17132.6
17163.2
17193.8
17224.4
17254.9
17285.4
17315.8
17346.2
17376.6
17407.1
17437.5
17467.9
17498.4
17528.9
17559.4
17590
17620.6
17651.3
17682
17712.7
17743.5
17774.4
17805.3
17836.2
17867.2
17898.2
17929.2
17960.3
17991.3
18022.4
18053.4
18084.5
18115.5
18146.4
18177.3
18208.1
18238.8
18269.5
18299.9
18330.3
18360.5
18390.5
18420.4
18450
18479.4
18508.5
18537.4
18566
18594.3
18622.3
18649.9
18677.2
18704.1
18730.6
18756.7
18782.4
18807.7
18832.5
18856.8
18880.7
18904.1
18927
18949.3
18971
18992.1
19012.6
19032.5
19051.8
19070.5
19088.6
19106.1
19123
19139.3
19155
19170.1
19184.7
19198.6
19212
19224.7
19236.9
19248.5
19259.5
19270
19280
19289.3
19298.2
19306.5
19314.2
19321.4
19328
19334
19339.6
19344.6
19349.3
19353.5
19357.3
19360.7
19363.8
19366.6
19369.1
19371.4
19373.4
19375.2
19376.8
19378.3
19379.6
19380.8
19382
19383.2
19384.3
19385.5
19386.7
19388
19389.4
19391
19392.7
19394.7
19396.8
19399.3
19402
19405.1
19408.5
19412.3
19416.5
19421.2
19426.2
19431.8
19437.8
19444.4
19451.5
19459.1
19467.4
19476.2
19485.6
19495.7
19506.3
19517.7
19529.7
19542.3
19555.7
19569.7
19584.5
19599.9
19616.1
19633
19650.6
19668.9
19688
19707.8
19728.3
19749.6
19771.6
19794.3
19817.8
19842
19867
19892.7
19919.1
19946.3
19974.1
20002.7
20032
20062
20092.7
20124.2
20156.3
20189.1
20222.6
20256.8
20291.6
20327.1
20363.3
20400.2
20437.6
20475.8
20514.5
20553.9
20593.9
20634.4
20675.6
20717.4
20759.7
20802.5
20846
20889.9
20934.4
20979.4
21024.8
21070.8
21117.2
21164
21211.3
21258.9
21307
21355.5
21404.3
21453.4
21502.9
21552.6
21602.7
21653
21703.6
21754.3
21805.3
21856.5
21907.9
21959.4
22011
22062.7
22114.5
22166.4
22218.3
22270.3
22322.3
22374.2
22426.2
22478
22529.8
22581.6
22633.2
22684.7
22736.1
22787.3
22838.3
22889.2
22939.8
22990.2
23040.4
23090.4
23140.1
23189.5
23238.7
23287.6
23336.1
23384.4
23432.4
23480
23527.2
23574.2
23620.8
23667
23712.8
23758.3
23803.4
23848.2
23892.6
23936.6
23980.2
24023.4
24066.3
24108.8
24150.9
24192.7
24234
24275
24315.7
24356
24395.9
24435.4
24474.6
24513.4
24551.9
24590
24627.8
24665.3
24702.4
24739.1
24775.6
24811.7
24847.4
24882.9
24918
24952.7
24987.2
25021.3
25055.1
25088.6
25121.7
25154.5
25187
25219.1
25250.8
25282.2
25313.2
25343.8
25374
25403.7
25433
25461.8
25490.2
25518
25545.4
25572.2
25598.4
25624.1
25649.2
25673.6
25697.4
25720.6
25743.1
25764.9
25785.9
25806.2
25825.7
25844.5
25862.4
25879.5
25895.7
25911
25925.4
25939
25951.5
25963.1
25973.8
25983.4
25992
25999.6
26006.2
26011.7
26016.2
26019.5
26021.7
26022.7
14916.2
14915.8
14915
14913.7
14912
14909.8
14907.3
14904.4
14901.1
14897.5
14893.5
14889.1
14884.3
14879.2
14873.8
14868
14861.9
14855.5
14848.7
14841.7
14834.4
14826.8
14818.9
14810.8
14802.4
14793.8
14785
14775.9
14766.7
14757.3
14747.7
14737.9
14728
14717.9
14707.8
14697.5
14687.1
14676.7
14666.1
14655.5
14644.9
14634.2
14623.5
14612.8
14602.1
14591.4
14580.7
14570.1
14559.5
14549
14538.6
14528.3
14518
14507.9
14497.9
14488.1
14478.4
14468.9
14459.5
14450.4
14441.5
14432.8
14424.3
14416.1
14408.1
14400.4
14393
14386
14379.2
14372.8
14366.8
14361.2
14356
14351.2
14346.8
14343
14339.7
14336.8
14334.6
14332.9
14331.8
14331.3
14331.5
14332.3
14333.8
14336
14338.9
14342.6
14347
14352.2
14358.1
14364.9
14372.5
14380.8
14390
14400
14410.9
14422.5
14435.1
14448.4
14462.6
14477.6
14493.5
14510.2
14527.7
14546
14565.1
14585
14605.7
14627.2
14649.4
14672.4
14696.1
14720.5
14745.6
14771.5
14797.9
14825
14852.7
14881.1
14909.9
14939.4
14969.4
14999.9
15030.9
15062.3
15094.2
15126.5
15159.2
15192.2
15225.6
15259.3
15293.2
15327.4
15361.8
15396.5
15431.3
15466.3
15501.3
15536.5
15571.8
15607.1
15642.5
15677.9
15713.2
15748.6
15783.9
15819.1
15854.3
15889.3
15924.3
15959.1
15993.8
16028.4
16062.8
16097
16131
16164.9
16198.6
16232.1
16265.3
16298.6
16331.6
16364.4
16397
16429.4
16461.6
16493.7
16525.6
16557.3
16588.8
16620.2
16651.4
16682.5
16713.5
16744.4
16775.1
16805.8
16836.4
16867
16897.5
16927.9
16958.4
16988.7
17019.1
17049.5
17079.8
17110.2
17140.6
17171
17201.5
17232
17262.5
17293.1
17323.8
17354.4
17385.2
17416
17446.8
17477.7
17508.6
17539.6
17570.6
17601.7
17632.7
17663.8
17694.9
17726
17757
17788.1
17819.1
17850
17880.8
17911.6
17942.3
17972.8
18003.2
18033.5
18063.6
18093.5
18123.2
18152.7
18181.9
18210.8
18239.5
18267.9
18295.9
18323.6
18351
18378
18404.6
18430.7
18456.5
18481.9
18506.7
18531.2
18555.1
18578.6
18601.5
18623.8
18645.6
18666.7
18687.3
18707.3
18726.6
18745.4
18763.5
18781.1
18798
18814.4
18830.1
18845.3
18859.9
18873.9
18887.2
18900
18912.2
18923.8
18934.8
18945.3
18955.2
18964.5
18973.3
18981.5
18989.2
18996.3
19002.8
19008.8
19014.3
19019.3
19023.9
19028
19031.7
19035.1
19038.1
19040.8
19043.2
19045.3
19047.2
19048.9
19050.4
19051.7
19052.9
19054.1
19055.1
19056.1
19057.2
19058.2
19059.3
19060.5
19061.8
19063.2
19064.8
19066.7
19068.7
19071.1
19073.7
19076.7
19080
19083.7
19087.8
19092.3
19097.3
19102.7
19108.7
19115.1
19122.2
19129.7
19137.9
19146.6
19156
19166
19176.6
19187.9
19199.8
19212.4
19225.7
19239.7
19254.5
19269.9
19286
19302.9
19320.4
19338.8
19357.8
19377.6
19398.1
19419.4
19441.4
19464.1
19487.6
19511.8
19536.8
19562.4
19588.9
19616
19643.9
19672.4
19701.8
19731.8
19762.5
19793.9
19826
19858.9
19892.4
19926.6
19961.4
19997
20033.1
20070
20107.5
20145.6
20184.4
20223.8
20263.8
20304.4
20345.6
20387.4
20429.7
20472.6
20516.1
20560.1
20604.6
20649.6
20695.1
20741.1
20787.5
20834.4
20881.8
20929.5
20977.6
21026.1
21075
21124.2
21173.7
21223.6
21273.7
21324.1
21374.7
21425.6
21476.6
21527.9
21579.3
21630.9
21682.6
21734.4
21786.3
21838.3
21890.3
21942.3
21994.4
22046.4
22098.4
22150.4
22202.3
22254.1
22305.8
22357.4
22408.8
22460.1
22511.2
22562.1
22612.8
22663.3
22713.6
22763.6
22813.4
22862.9
22912.1
22961
23009.6
23057.9
23105.9
23153.6
23200.9
23247.9
23294.5
23340.8
23386.7
23432.2
23477.4
23522.1
23566.5
23610.6
23654.2
23697.5
23740.4
23782.9
23825.1
23866.8
23908.2
23949.3
23989.9
24030.2
24070.1
24109.7
24148.9
24187.7
24226.2
24264.4
24302.2
24339.6
24376.7
24413.5
24449.9
24486
24521.8
24557.3
24592.4
24627.2
24661.7
24695.8
24729.6
24763.1
24796.2
24829.1
24861.5
24893.7
24925.4
24956.8
24987.8
25018.4
25048.6
25078.4
25107.7
25136.6
25164.9
25192.8
25220.2
25247
25273.3
25299
25324.2
25348.7
25372.5
25395.8
25418.3
25440.1
25461.2
25481.6
25501.2
25520
25538
25555.1
25571.4
25586.8
25601.3
25614.8
25627.5
25639.1
25649.8
25659.5
25668.1
25675.8
25682.4
25687.9
25692.4
25695.8
25698
25699
14591.1
14590.7
14589.9
14588.6
14586.8
14584.7
14582.2
14579.3
14576
14572.3
14568.2
14563.8
14559
14553.9
14548.4
14542.6
14536.4
14530
14523.2
14516.1
14508.7
14501.1
14493.1
14485
14476.5
14467.9
14459
14449.9
14440.6
14431.1
14421.4
14411.6
14401.6
14391.5
14381.3
14371
14360.5
14350
14339.4
14328.7
14318
14307.3
14296.5
14285.8
14275
14264.2
14253.5
14242.8
14232.2
14221.6
14211.1
14200.7
14190.5
14180.3
14170.2
14160.3
14150.6
14141
14131.6
14122.4
14113.4
14104.6
14096
14087.7
14079.7
14071.9
14064.5
14057.3
14050.5
14044
14037.8
14032.1
14026.8
14021.9
14017.5
14013.5
14010.1
14007.2
14004.8
14003
14001.8
14001.2
14001.3
14002
14003.4
14005.5
14008.4
14012
14016.3
14021.4
14027.3
14034
14041.5
14049.9
14059
14069
14079.8
14091.5
14104
14117.3
14131.5
14146.6
14162.4
14179.1
14196.7
14215
14234.2
14254.1
14274.9
14296.4
14318.7
14341.8
14365.5
14390
14415.2
14441.2
14467.8
14495
14522.8
14551.2
14580.2
14609.8
14639.9
14670.5
14701.6
14733.1
14765.1
14797.6
14830.4
14863.5
14897
14930.8
14964.9
14999.2
15033.8
15068.5
15103.5
15138.5
15173.7
15209
15244.4
15279.9
15315.3
15350.8
15386.3
15421.7
15457.1
15492.4
15527.6
15562.8
15597.8
15632.7
15667.4
15702
15736.5
15770.7
15804.8
15838.7
15872.5
15906
15939.5
15972.5
16005.5
16038.3
16070.8
16103.2
16135.4
16167.5
16199.3
16231
16262.4
16293.8
16325
16356
16387
16417.8
16448.5
16479.1
16509.7
16540.2
16570.6
16601
16631.3
16661.7
16692
16722.3
16752.6
16782.9
16813.2
16843.6
16874
16904.5
16935
16965.5
16996.1
17026.8
17057.5
17088.3
17119.1
17150
17180.9
17211.9
17242.9
17274
17305.1
17336.2
17367.3
17398.4
17429.5
17460.6
17491.6
17522.6
17553.5
17584.4
17615.1
17645.7
17676.2
17706.5
17736.7
17766.7
17796.4
17826
17855.3
17884.3
17913.1
17941.6
17969.7
17997.5
18024.9
18052
18078.7
18104.9
18130.8
18156.2
18181.2
18205.6
18229.6
18253.1
18276.1
18298.5
18320.3
18341.6
18362.2
18382.3
18401.7
18420.6
18438.8
18456.4
18473.5
18489.9