/*--------------------------------*- C++ -*----------------------------------*\
| =========                 |                                                 |
| \\      /  F ield         | OpenFOAM: The Open Source CFD Toolbox           |
|  \\    /   O peration     | Version:  v2006                                 |
|   \\  /    A nd           | Website:  www.openfoam.com                      |
|    \\/     M anipulation  |                                                 |
\*---------------------------------------------------------------------------*/
FoamFile
{
    version     2.0;
    format      ascii;
    class       volVectorField;
    location    "11";
    object      U;
}
// * * * * * * * * * * * * * * * * * * * * * * * * * * * * * * * * * * * * * //

dimensions      [0 1 -1 0 0 0 0];


internalField   nonuniform List<vector> 
150000
(
(-0.00208213 -0.000304791 0)
(0.000771716 -0.00259421 0)
(0.00557238 -0.00301405 0)
(0.00897889 -0.00269673 0)
(0.011937 -0.00237033 0)
(0.0140289 -0.00211367 0)
(0.0159063 -0.00196972 0)
(0.0175048 -0.00188345 0)
(0.0189881 -0.00183931 0)
(0.0203932 -0.00181447 0)
(0.0217507 -0.00179968 0)
(0.0230717 -0.00178716 0)
(0.0243631 -0.0017759 0)
(0.0256301 -0.00176404 0)
(0.0268766 -0.00174924 0)
(0.0281078 -0.00173444 0)
(0.0293325 -0.00172128 0)
(0.0305547 -0.00170866 0)
(0.0317788 -0.00169585 0)
(0.0330118 -0.00168416 0)
(0.0342549 -0.00167382 0)
(0.0355106 -0.00166446 0)
(0.0367821 -0.00165536 0)
(0.0380684 -0.00164764 0)
(0.0393685 -0.00164101 0)
(0.0406812 -0.00163519 0)
(0.0420074 -0.00162799 0)
(0.0433421 -0.0016225 0)
(0.0446823 -0.00161749 0)
(0.0460292 -0.00161098 0)
(0.0473746 -0.00160581 0)
(0.048717 -0.00159866 0)
(0.0500534 -0.00159099 0)
(0.0513788 -0.00158253 0)
(0.0526897 -0.00157549 0)
(0.0539881 -0.0015666 0)
(0.0552702 -0.00155338 0)
(0.056532 -0.00153492 0)
(0.0577733 -0.00150569 0)
(0.0589927 -0.00146789 0)
(0.0601887 -0.00142506 0)
(0.0613677 -0.00137769 0)
(0.0625303 -0.00133249 0)
(0.0636857 -0.00128345 0)
(0.0648481 -0.00123573 0)
(0.0660205 -0.00119916 0)
(0.0672084 -0.00117758 0)
(0.0684346 -0.00116989 0)
(0.0696986 -0.00118029 0)
(0.0710022 -0.00121053 0)
(0.0723501 -0.00125884 0)
(0.073734 -0.00132536 0)
(0.0751489 -0.0013993 0)
(0.0765793 -0.0014719 0)
(0.0780052 -0.00153544 0)
(0.0794113 -0.00157442 0)
(0.0807846 -0.00157435 0)
(0.0821178 -0.00152911 0)
(0.0834056 -0.00144269 0)
(0.0846605 -0.00132104 0)
(0.0859018 -0.00117547 0)
(0.0871482 -0.00102631 0)
(0.0884143 -0.000893649 0)
(0.0897262 -0.000787372 0)
(0.0911012 -0.000710249 0)
(0.0925451 -0.000665911 0)
(0.0940569 -0.000649961 0)
(0.0956332 -0.000656953 0)
(0.0972605 -0.000675145 0)
(0.0989187 -0.000697623 0)
(0.100586 -0.000719203 0)
(0.10224 -0.000733388 0)
(0.103858 -0.000737052 0)
(0.10542 -0.000728449 0)
(0.106906 -0.000706777 0)
(0.1083 -0.000673362 0)
(0.109588 -0.000629658 0)
(0.110761 -0.000577884 0)
(0.11181 -0.000520019 0)
(0.112728 -0.000457811 0)
(0.113509 -0.000393179 0)
(0.114151 -0.000328237 0)
(0.114649 -0.000264673 0)
(0.115004 -0.000203912 0)
(0.115213 -0.000145265 0)
(0.115273 -9.03348e-05 0)
(0.115184 -3.21952e-05 0)
(0.114951 2.56491e-05 0)
(0.114578 8.1242e-05 0)
(0.114066 0.000132988 0)
(0.113419 0.000181262 0)
(0.112642 0.000226834 0)
(0.111737 0.000270571 0)
(0.110705 0.000314606 0)
(0.109544 0.000361973 0)
(0.108252 0.00041536 0)
(0.106823 0.000476226 0)
(0.10525 0.000546476 0)
(0.103528 0.000625875 0)
(0.101654 0.000711368 0)
(0.09963 0.000797962 0)
(0.0974664 0.000878848 0)
(0.0951811 0.000946592 0)
(0.0928013 0.0009946 0)
(0.0903592 0.00101946 0)
(0.0878878 0.00102197 0)
(0.0854221 0.0010125 0)
(0.0829971 0.00100127 0)
(0.0806455 0.00099515 0)
(0.0784035 0.000992035 0)
(0.0763103 0.000984675 0)
(0.0744093 0.000954297 0)
(0.0727447 0.000885988 0)
(0.0713504 0.000771593 0)
(0.0702412 0.000621053 0)
(0.0694012 0.000460052 0)
(0.0687794 0.00033019 0)
(0.0682843 0.000274043 0)
(0.0677841 0.000326375 0)
(0.0671217 0.000505362 0)
(0.0661376 0.0008063 0)
(0.0647019 0.00118889 0)
(0.0627516 0.00158437 0)
(0.0603109 0.00192413 0)
(0.0574744 0.00216097 0)
(0.0543702 0.00228528 0)
(0.0511212 0.00231884 0)
(0.0478173 0.00229619 0)
(0.0445105 0.00224703 0)
(0.0412239 0.00219309 0)
(0.0379662 0.00214289 0)
(0.0347449 0.00209519 0)
(0.0315688 0.00204709 0)
(0.0284477 0.00199521 0)
(0.0253946 0.00193694 0)
(0.0224239 0.00187262 0)
(0.0195471 0.0018069 0)
(0.0167742 0.00174064 0)
(0.0141154 0.00167573 0)
(0.0115785 0.00161431 0)
(0.00917197 0.00155194 0)
(0.00689994 0.00149611 0)
(0.00475936 0.00144372 0)
(0.00274531 0.00139184 0)
(0.000847983 0.00134105 0)
(-0.000947656 0.00128846 0)
(-0.00265517 0.00123007 0)
(-0.00428564 0.00116394 0)
(-0.00584394 0.00108889 0)
(-0.00731957 0.00100166 0)
(-0.00867341 0.000915362 0)
(-0.00985107 0.00083803 0)
(-0.0107898 0.000798398 0)
(-0.0114195 0.000838057 0)
(-0.0117012 0.000995705 0)
(-0.0116518 0.00132228 0)
(-0.0113778 0.0018896 0)
(-0.0110988 0.00283901 0)
(-0.0114099 0.00419487 0)
(-0.0128635 0.00572432 0)
(-0.0155679 0.00687463 0)
(-0.0191481 0.00723879 0)
(-0.0229798 0.00668855 0)
(-0.0265094 0.00528206 0)
(-0.0294018 0.00332968 0)
(-0.031469 0.00113185 0)
(-0.0326573 -0.00105372 0)
(-0.0330115 -0.00295815 0)
(-0.0326828 -0.00436179 0)
(-0.0318428 -0.00526711 0)
(-0.030557 -0.00570226 0)
(-0.0289728 -0.00568325 0)
(-0.0272411 -0.00529028 0)
(-0.0254754 -0.0046561 0)
(-0.0237422 -0.0038754 0)
(-0.0220599 -0.00302252 0)
(-0.0204486 -0.00218982 0)
(-0.0189291 -0.00147625 0)
(-0.01746 -0.000945904 0)
(-0.0159543 -0.000642946 0)
(-0.0143032 -0.000540854 0)
(-0.0123901 -0.000575905 0)
(-0.0101519 -0.000681237 0)
(-0.00756955 -0.000793667 0)
(-0.00465562 -0.000899018 0)
(-0.00142136 -0.00100415 0)
(0.00212821 -0.00111251 0)
(0.00598828 -0.00123063 0)
(0.0101569 -0.00135924 0)
(0.014632 -0.00149688 0)
(0.0194102 -0.00164254 0)
(0.0244877 -0.001795 0)
(0.02986 -0.00195395 0)
(0.0355236 -0.00211902 0)
(0.0414735 -0.00228701 0)
(0.0477057 -0.0024604 0)
(0.0542184 -0.0026344 0)
(0.0610044 -0.00280558 0)
(0.0680562 -0.0029739 0)
(0.0753679 -0.00313752 0)
(0.0829327 -0.00329541 0)
(0.0907417 -0.003446 0)
(0.0987846 -0.00359025 0)
(0.10705 -0.00372918 0)
(0.115527 -0.00386476 0)
(0.124203 -0.00399959 0)
(0.133065 -0.00413633 0)
(0.142102 -0.00427716 0)
(0.151307 -0.00442327 0)
(0.160672 -0.0045746 0)
(0.170193 -0.00472972 0)
(0.17987 -0.00488589 0)
(0.189705 -0.0050393 0)
(0.199702 -0.00518542 0)
(0.209866 -0.00531967 0)
(0.220203 -0.0054381 0)
(0.230716 -0.00553799 0)
(0.241407 -0.00561818 0)
(0.252272 -0.00567905 0)
(0.263306 -0.00572219 0)
(0.274499 -0.00574986 0)
(0.28584 -0.00576432 0)
(0.297315 -0.00576722 0)
(0.30891 -0.00575901 0)
(0.320611 -0.00573812 0)
(0.332407 -0.00570005 0)
(0.344287 -0.00563624 0)
(0.356244 -0.00553299 0)
(0.368274 -0.00537046 0)
(0.380374 -0.00512099 0)
(0.392538 -0.00474259 0)
(0.404733 -0.00415388 0)
(0.416836 -0.00316914 0)
(0.428484 -0.00140393 0)
(0.43883 0.00170044 0)
(0.44639 0.0063912 0)
(0.449393 0.0116252 0)
(0.447737 0.0153078 0)
(0.443976 0.0166513 0)
(0.439876 0.0159921 0)
(0.436695 0.0138974 0)
(0.435532 0.0110098 0)
(0.436547 0.00811654 0)
(0.44 0.00564384 0)
(0.44544 0.00383725 0)
(0.451883 0.00282004 0)
(0.458359 0.00242033 0)
(0.464279 0.00214908 0)
(0.469569 0.0014664 0)
(0.474561 0.000163177 0)
(0.479731 -0.00155075 0)
(0.485414 -0.00324643 0)
(0.491667 -0.00455653 0)
(0.498312 -0.00534675 0)
(0.505068 -0.00571859 0)
(0.511684 -0.00590466 0)
(0.51801 -0.00614442 0)
(0.524012 -0.00659128 0)
(0.529747 -0.00726329 0)
(0.535324 -0.0080369 0)
(0.540849 -0.00869272 0)
(0.546349 -0.00897402 0)
(0.551714 -0.00868305 0)
(0.556687 -0.00773813 0)
(0.560867 -0.00612422 0)
(0.563797 -0.00393492 0)
(0.565123 -0.00150283 0)
(0.56477 0.00060909 0)
(0.563264 0.00214043 0)
(0.561028 0.00316837 0)
(0.558434 0.00378284 0)
(0.555805 0.00400065 0)
(0.553441 0.0038026 0)
(0.551613 0.00324917 0)
(0.550511 0.00248327 0)
(0.550213 0.00169925 0)
(0.550535 0.00109207 0)
(0.55138 0.000686648 0)
(0.552566 0.000467704 0)
(0.553887 0.000418689 0)
(0.555176 0.000497358 0)
(0.556318 0.000635133 0)
(0.557259 0.000762432 0)
(0.558 0.000834819 0)
(0.558574 0.000842112 0)
(0.559015 0.000803807 0)
(0.559338 0.000754849 0)
(0.55953 0.000730232 0)
(0.559554 0.000752179 0)
(0.559332 0.000816615 0)
(0.558838 0.000898735 0)
(0.558071 0.000967271 0)
(0.557061 0.000997128 0)
(0.55585 0.000982665 0)
(0.554481 0.000934299 0)
(0.552992 0.000868558 0)
(0.55141 0.000802661 0)
(0.549753 0.000751241 0)
(0.548031 0.000725069 0)
(0.54624 0.000731202 0)
(0.544374 0.00077292 0)
(0.54242 0.000849346 0)
(0.540364 0.000955533 0)
(0.538193 0.00108326 0)
(0.535899 0.0012224 0)
(0.533479 0.0013628 0)
(0.530934 0.00149617 0)
(0.528271 0.00161742 0)
(0.525497 0.00172511 0)
(0.522618 0.00182096 0)
(0.51964 0.00190875 0)
(0.516562 0.00199296 0)
(0.513385 0.00207733 0)
(0.510105 0.00216375 0)
(0.506714 0.00225207 0)
(0.503206 0.00233999 0)
(0.499573 0.00242376 0)
(0.495808 0.00249962 0)
(0.491905 0.00256449 0)
(0.487859 0.0026158 0)
(0.483669 0.0026515 0)
(0.479335 0.00267028 0)
(0.474861 0.00267168 0)
(0.470252 0.00265643 0)
(0.465516 0.0026267 0)
(0.46066 0.0025862 0)
(0.455692 0.00253988 0)
(0.450619 0.00249326 0)
(0.445446 0.00245138 0)
(0.440174 0.00241797 0)
(0.434804 0.00239492 0)
(0.429335 0.00238232 0)
(0.423765 0.00237881 0)
(0.418091 0.00238228 0)
(0.412312 0.00239046 0)
(0.406424 0.00240141 0)
(0.400427 0.00241371 0)
(0.394319 0.00242649 0)
(0.388099 0.00243935 0)
(0.381768 0.00245222 0)
(0.375326 0.00246519 0)
(0.368771 0.00247841 0)
(0.362105 0.00249198 0)
(0.355327 0.00250595 0)
(0.348438 0.00252039 0)
(0.341439 0.00253538 0)
(0.334329 0.00255099 0)
(0.32711 0.00256729 0)
(0.319782 0.00258431 0)
(0.312347 0.0026021 0)
(0.304804 0.00262067 0)
(0.297156 0.00264005 0)
(0.289402 0.00266022 0)
(0.281545 0.00268116 0)
(0.273586 0.00270285 0)
(0.265525 0.00272528 0)
(0.257365 0.00274843 0)
(0.249106 0.00277226 0)
(0.24075 0.00279674 0)
(0.232298 0.00282182 0)
(0.223753 0.00284749 0)
(0.215115 0.00287371 0)
(0.206386 0.00290048 0)
(0.197567 0.00292775 0)
(0.188661 0.0029555 0)
(0.179669 0.00298369 0)
(0.170592 0.00301229 0)
(0.161434 0.00304124 0)
(0.152195 0.00307045 0)
(0.142878 0.00309977 0)
(0.133486 0.003129 0)
(0.124023 0.00315787 0)
(0.114491 0.00318599 0)
(0.104895 0.00321289 0)
(0.0952407 0.00323794 0)
(0.0855334 0.00326039 0)
(0.0757806 0.00327928 0)
(0.0659907 0.00329351 0)
(0.0561736 0.00330186 0)
(0.0463409 0.00330311 0)
(0.0365053 0.00329619 0)
(0.0266811 0.00328036 0)
(0.0168829 0.00325544 0)
(0.00712556 0.00322192 0)
(-0.00257809 0.00318101 0)
(-0.0122156 0.0031352 0)
(-0.0217782 0.00308615 0)
(-0.0312629 0.00303687 0)
(-0.0406675 0.00299102 0)
(-0.049996 0.00295035 0)
(-0.0592576 0.00291907 0)
(-0.0684626 0.00290114 0)
(-0.0776246 0.00290137 0)
(-0.086758 0.00292497 0)
(-0.0958776 0.00297565 0)
(-0.105002 0.00305437 0)
(-0.114149 0.00316037 0)
(-0.123333 0.00328874 0)
(-0.132569 0.00342929 0)
(-0.141872 0.00357189 0)
(-0.151251 0.0037067 0)
(-0.160711 0.00382679 0)
(-0.170262 0.00393033 0)
(-0.179897 0.00402508 0)
(-0.189617 0.0041092 0)
(-0.199436 0.00419233 0)
(-0.209355 0.0042823 0)
(-0.219371 0.00438522 0)
(-0.2295 0.00449562 0)
(-0.239758 0.00461827 0)
(-0.250155 0.00475366 0)
(-0.260702 0.00490375 0)
(-0.271424 0.00506398 0)
(-0.28234 0.00523952 0)
(-0.293458 0.0054296 0)
(-0.3048 0.00562826 0)
(-0.316377 0.00583401 0)
(-0.328187 0.00604074 0)
(-0.34022 0.00624099 0)
(-0.352451 0.00641834 0)
(-0.364829 0.00654181 0)
(-0.377258 0.00656808 0)
(-0.389599 0.00646349 0)
(-0.40169 0.00623641 0)
(-0.413388 0.00594759 0)
(-0.424607 0.00566609 0)
(-0.43534 0.00542812 0)
(-0.445644 0.00523918 0)
(-0.455599 0.00508557 0)
(-0.46527 0.00494708 0)
(-0.474691 0.00480869 0)
(-0.483862 0.00466604 0)
(-0.492764 0.00452051 0)
(-0.501367 0.00437449 0)
(-0.509645 0.0042284 0)
(-0.517573 0.00408068 0)
(-0.525138 0.0039288 0)
(-0.53233 0.00377087 0)
(-0.539145 0.00360725 0)
(-0.545581 0.00344067 0)
(-0.551637 0.00327448 0)
(-0.55731 0.0031115 0)
(-0.562594 0.00295443 0)
(-0.567484 0.00280641 0)
(-0.571975 0.00267076 0)
(-0.576059 0.00255125 0)
(-0.579722 0.00245181 0)
(-0.582945 0.00237451 0)
(-0.585695 0.00230894 0)
(-0.587908 0.00218964 0)
(-0.589509 0.00192612 0)
(-0.59042 0.00145083 0)
(-0.590441 0.000647098 0)
(-0.589261 -0.000343911 0)
(-0.586985 -0.0012737 0)
(-0.583739 -0.00206731 0)
(-0.579637 -0.00273635 0)
(-0.574759 -0.00330728 0)
(-0.569157 -0.00380039 0)
(-0.562878 -0.00423011 0)
(-0.555969 -0.00461006 0)
(-0.548481 -0.00495443 0)
(-0.540459 -0.00527518 0)
(-0.531936 -0.005579 0)
(-0.522935 -0.00586797 0)
(-0.513469 -0.00614222 0)
(-0.50355 -0.00640308 0)
(-0.493191 -0.006654 0)
(-0.482408 -0.0068973 0)
(-0.471216 -0.0071324 0)
(-0.459629 -0.00735822 0)
(-0.447659 -0.00757502 0)
(-0.435321 -0.0077827 0)
(-0.42263 -0.00798103 0)
(-0.409601 -0.00817062 0)
(-0.396245 -0.00835163 0)
(-0.382575 -0.00852384 0)
(-0.368606 -0.00868896 0)
(-0.354352 -0.00884756 0)
(-0.339826 -0.00899946 0)
(-0.325038 -0.00914564 0)
(-0.310002 -0.00928773 0)
(-0.29473 -0.00942732 0)
(-0.279232 -0.00956496 0)
(-0.263517 -0.00970128 0)
(-0.247592 -0.00983762 0)
(-0.231465 -0.00997397 0)
(-0.215146 -0.0101071 0)
(-0.198643 -0.0102326 0)
(-0.181964 -0.0103498 0)
(-0.165119 -0.0104627 0)
(-0.14811 -0.0105868 0)
(-0.130926 -0.0107382 0)
(-0.113542 -0.0109155 0)
(-0.0959315 -0.0110848 0)
(-0.0781552 -0.0111552 0)
(-0.0603292 -0.0109976 0)
(-0.0424765 -0.0107129 0)
(-0.0250144 -0.0105306 0)
(-0.00772377 -0.00966127 0)
(-0.00307653 0.00139764 0)
(-0.00169178 -0.00378647 0)
(0.000618822 -0.00384778 0)
(0.00113041 -0.00269384 0)
(0.000854664 -0.00182424 0)
(-0.000293801 -0.00127829 0)
(-0.00158575 -0.000935636 0)
(-0.003074 -0.00072163 0)
(-0.00459914 -0.000584724 0)
(-0.00613115 -0.000496165 0)
(-0.00764637 -0.000436768 0)
(-0.00912784 -0.000390827 0)
(-0.0105584 -0.000354519 0)
(-0.0119248 -0.000327948 0)
(-0.0132163 -0.0003128 0)
(-0.0144203 -0.000310114 0)
(-0.0155256 -0.000317119 0)
(-0.0165278 -0.000331278 0)
(-0.0174262 -0.000351103 0)
(-0.0182209 -0.0003773 0)
(-0.0189156 -0.000407469 0)
(-0.0195158 -0.000440433 0)
(-0.0200298 -0.000473843 0)
(-0.0204662 -0.000506945 0)
(-0.0208338 -0.000537251 0)
(-0.0211421 -0.000564234 0)
(-0.0213999 -0.00058754 0)
(-0.0216158 -0.000606485 0)
(-0.0217967 -0.00062055 0)
(-0.0219487 -0.000629798 0)
(-0.0220767 -0.00063566 0)
(-0.022185 -0.000634112 0)
(-0.0222756 -0.000629713 0)
(-0.022347 -0.000620736 0)
(-0.0224 -0.000607851 0)
(-0.022432 -0.000593365 0)
(-0.0224321 -0.000579637 0)
(-0.0223867 -0.000569938 0)
(-0.0222764 -0.000566008 0)
(-0.0220876 -0.000568537 0)
(-0.0218231 -0.000577548 0)
(-0.021484 -0.000597766 0)
(-0.021072 -0.000632344 0)
(-0.0205946 -0.000679799 0)
(-0.0200623 -0.000738142 0)
(-0.0194945 -0.000802533 0)
(-0.0189151 -0.000868688 0)
(-0.018347 -0.000933997 0)
(-0.0178134 -0.000986021 0)
(-0.0173294 -0.00102761 0)
(-0.0169044 -0.00104232 0)
(-0.0165339 -0.0010336 0)
(-0.0161928 -0.000996462 0)
(-0.0158362 -0.000934958 0)
(-0.0154014 -0.000856612 0)
(-0.0148168 -0.000788939 0)
(-0.014007 -0.000735308 0)
(-0.012898 -0.000713656 0)
(-0.0114355 -0.000746592 0)
(-0.00959367 -0.000832991 0)
(-0.00737656 -0.000968798 0)
(-0.00481987 -0.00114094 0)
(-0.00198649 -0.00133259 0)
(0.00104395 -0.00152786 0)
(0.00418448 -0.00170874 0)
(0.00735673 -0.0018613 0)
(0.0104829 -0.00198011 0)
(0.013499 -0.00205914 0)
(0.016362 -0.00209911 0)
(0.019036 -0.00210056 0)
(0.0215027 -0.0020679 0)
(0.0237519 -0.00200608 0)
(0.0257771 -0.00192002 0)
(0.0275795 -0.00181438 0)
(0.02916 -0.00169316 0)
(0.0305204 -0.00155949 0)
(0.0316625 -0.00141583 0)
(0.0325853 -0.00126408 0)
(0.0332877 -0.00110571 0)
(0.0337651 -0.000941766 0)
(0.0340126 -0.000772192 0)
(0.034028 -0.000596789 0)
(0.0338105 -0.000416277 0)
(0.0333638 -0.000232758 0)
(0.0326926 -5.10649e-05 0)
(0.0318033 0.000128311 0)
(0.0307058 0.000309946 0)
(0.0294085 0.000490177 0)
(0.0279234 0.000667777 0)
(0.0262639 0.000842591 0)
(0.0244433 0.0010151 0)
(0.0224739 0.00118479 0)
(0.0203685 0.00135328 0)
(0.0181398 0.00152162 0)
(0.0158002 0.00169008 0)
(0.0133618 0.00186005 0)
(0.0108383 0.00203146 0)
(0.00824267 0.00220355 0)
(0.00558625 0.00237417 0)
(0.00288046 0.00253925 0)
(0.00013544 0.0026933 0)
(-0.00264186 0.00283029 0)
(-0.00544693 0.00294468 0)
(-0.00827558 0.00303086 0)
(-0.0111215 0.0030841 0)
(-0.0139694 0.0030988 0)
(-0.0168018 0.00306857 0)
(-0.0195923 0.00298401 0)
(-0.0223114 0.00283827 0)
(-0.0249276 0.00262702 0)
(-0.027424 0.00235321 0)
(-0.0298056 0.00202893 0)
(-0.0320932 0.00167737 0)
(-0.0343281 0.00132842 0)
(-0.0365562 0.00101386 0)
(-0.0388177 0.000763211 0)
(-0.0411353 0.000602572 0)
(-0.0435109 0.000557967 0)
(-0.0459196 0.000639871 0)
(-0.0483115 0.000849579 0)
(-0.0506299 0.00117074 0)
(-0.0528346 0.00156916 0)
(-0.0549155 0.00199205 0)
(-0.0569107 0.00238298 0)
(-0.0588892 0.00271346 0)
(-0.0609115 0.00295701 0)
(-0.0630068 0.00311745 0)
(-0.0651748 0.00321196 0)
(-0.0673924 0.00325911 0)
(-0.0696328 0.00327547 0)
(-0.0718775 0.0032725 0)
(-0.0741113 0.00324984 0)
(-0.0763249 0.003218 0)
(-0.0785184 0.00317176 0)
(-0.0806878 0.00310557 0)
(-0.0828209 0.00302725 0)
(-0.0849122 0.00293107 0)
(-0.0869535 0.002817 0)
(-0.0889306 0.00268566 0)
(-0.090835 0.00253826 0)
(-0.0926459 0.00237945 0)
(-0.0943511 0.0022136 0)
(-0.0959524 0.00204822 0)
(-0.0974396 0.00189481 0)
(-0.0988171 0.00176019 0)
(-0.1001 0.0016531 0)
(-0.101304 0.00157109 0)
(-0.102451 0.00151593 0)
(-0.103567 0.00146515 0)
(-0.104654 0.00138761 0)
(-0.105685 0.00124439 0)
(-0.106589 0.00097913 0)
(-0.107224 0.000549524 0)
(-0.107393 -6.20171e-05 0)
(-0.106854 -0.000825028 0)
(-0.105427 -0.00164286 0)
(-0.103013 -0.00236878 0)
(-0.0995216 -0.00281582 0)
(-0.0946035 -0.00282556 0)
(-0.0884931 -0.00241174 0)
(-0.081847 -0.00178213 0)
(-0.0755028 -0.00113545 0)
(-0.0702793 -0.000450964 0)
(-0.0668903 0.000278085 0)
(-0.0657291 0.00100184 0)
(-0.067062 0.00174547 0)
(-0.0708665 0.00244728 0)
(-0.0767735 0.00302341 0)
(-0.0840836 0.0034268 0)
(-0.0920134 0.00355165 0)
(-0.0998564 0.00339563 0)
(-0.10692 0.0029935 0)
(-0.112716 0.00241628 0)
(-0.11698 0.00173149 0)
(-0.119656 0.00098706 0)
(-0.120793 0.000212536 0)
(-0.120559 -0.000497899 0)
(-0.119284 -0.00108982 0)
(-0.117227 -0.00158447 0)
(-0.114615 -0.00204125 0)
(-0.111603 -0.00248514 0)
(-0.108263 -0.00293213 0)
(-0.104608 -0.0033826 0)
(-0.100644 -0.00382939 0)
(-0.0963851 -0.00426575 0)
(-0.0918291 -0.00468907 0)
(-0.0869904 -0.00510062 0)
(-0.0818902 -0.00549446 0)
(-0.0765417 -0.00587502 0)
(-0.0709598 -0.00624209 0)
(-0.0651579 -0.00659611 0)
(-0.05915 -0.00693687 0)
(-0.0529498 -0.00726473 0)
(-0.0465674 -0.00758584 0)
(-0.0400178 -0.00789169 0)
(-0.0333082 -0.0081892 0)
(-0.02644 -0.00847885 0)
(-0.0194268 -0.00876132 0)
(-0.0122755 -0.00903713 0)
(-0.00498844 -0.00930574 0)
(0.00243151 -0.0095666 0)
(0.00997932 -0.00981816 0)
(0.0176484 -0.0100579 0)
(0.0254327 -0.0102828 0)
(0.0333238 -0.0104898 0)
(0.0413119 -0.0106763 0)
(0.0493869 -0.0108411 0)
(0.0575401 -0.0109849 0)
(0.0657654 -0.0111108 0)
(0.0740617 -0.011224 0)
(0.0824331 -0.0113312 0)
(0.090889 -0.0114403 0)
(0.099443 -0.0115594 0)
(0.108111 -0.0116954 0)
(0.116908 -0.0118529 0)
(0.125847 -0.0120337 0)
(0.134934 -0.0122363 0)
(0.14417 -0.0124562 0)
(0.153546 -0.0126868 0)
(0.16305 -0.0129207 0)
(0.172663 -0.0131509 0)
(0.182368 -0.0133722 0)
(0.192151 -0.0135815 0)
(0.202003 -0.013779 0)
(0.211929 -0.0139685 0)
(0.221943 -0.0141578 0)
(0.232078 -0.01436 0)
(0.242384 -0.014594 0)
(0.252938 -0.0148839 0)
(0.263844 -0.0152553 0)
(0.275239 -0.0157236 0)
(0.287304 -0.0162676 0)
(0.300293 -0.0167812 0)
(0.314617 -0.0170158 0)
(0.330937 -0.0165859 0)
(0.35011 -0.0151823 0)
(0.37283 -0.0130332 0)
(0.398281 -0.0110446 0)
(0.423863 -0.00984125 0)
(0.448382 -0.00944554 0)
(0.471469 -0.00974893 0)
(0.492961 -0.0105976 0)
(0.513397 -0.0116509 0)
(0.532875 -0.0126713 0)
(0.551648 -0.0133789 0)
(0.569988 -0.0134929 0)
(0.587934 -0.0129079 0)
(0.605192 -0.0117479 0)
(0.621247 -0.0103103 0)
(0.635562 -0.00891542 0)
(0.647782 -0.00778596 0)
(0.657863 -0.00699543 0)
(0.666057 -0.00648086 0)
(0.672772 -0.00610005 0)
(0.678389 -0.00569727 0)
(0.683126 -0.00515111 0)
(0.686969 -0.00439879 0)
(0.689662 -0.00344556 0)
(0.690788 -0.0023669 0)
(0.689912 -0.00130348 0)
(0.686796 -0.000439049 0)
(0.681556 6.10829e-05 0)
(0.674767 0.000205147 0)
(0.667326 0.000168585 0)
(0.660283 0.000175276 0)
(0.654607 0.000316003 0)
(0.651003 0.000561688 0)
(0.649758 0.000736427 0)
(0.650428 0.000757983 0)
(0.652586 0.000685184 0)
(0.655852 0.000535327 0)
(0.659877 0.000270393 0)
(0.66429 -0.000129916 0)
(0.668766 -0.000630133 0)
(0.67307 -0.00116768 0)
(0.677057 -0.00166717 0)
(0.68082 -0.00205422 0)
(0.684365 -0.0023297 0)
(0.687748 -0.00249988 0)
(0.69103 -0.00255814 0)
(0.694251 -0.00250767 0)
(0.697425 -0.00236993 0)
(0.700535 -0.00217527 0)
(0.703533 -0.00195061 0)
(0.70636 -0.00171321 0)
(0.70896 -0.00146827 0)
(0.711298 -0.00121062 0)
(0.713362 -0.000929824 0)
(0.715166 -0.000617949 0)
(0.716756 -0.000277727 0)
(0.718147 7.80285e-05 0)
(0.719335 0.000433678 0)
(0.720296 0.000779176 0)
(0.721004 0.0011025 0)
(0.721447 0.00139428 0)
(0.72162 0.0016474 0)
(0.72153 0.00186183 0)
(0.72119 0.0020402 0)
(0.720626 0.00218616 0)
(0.719871 0.00230465 0)
(0.718964 0.00240203 0)
(0.717944 0.00248514 0)
(0.716854 0.00255996 0)
(0.715731 0.00263088 0)
(0.714608 0.00270045 0)
(0.713509 0.00276991 0)
(0.712444 0.00283978 0)
(0.711416 0.00291046 0)
(0.710418 0.00298251 0)
(0.709435 0.00305643 0)
(0.708449 0.00313246 0)
(0.707442 0.00321084 0)
(0.706399 0.00329236 0)
(0.705309 0.00337884 0)
(0.704165 0.0034733 0)
(0.702963 0.00357982 0)
(0.701699 0.0037026 0)
(0.70037 0.00384467 0)
(0.698966 0.00400707 0)
(0.697475 0.00418909 0)
(0.695877 0.00438885 0)
(0.694148 0.00460358 0)
(0.692262 0.00482978 0)
(0.690188 0.00506334 0)
(0.687896 0.00529986 0)
(0.685356 0.00553503 0)
(0.682547 0.00576499 0)
(0.679452 0.00598669 0)
(0.676064 0.00619822 0)
(0.672384 0.00639901 0)
(0.668422 0.00658981 0)
(0.664192 0.00677236 0)
(0.659711 0.00694897 0)
(0.654997 0.00712207 0)
(0.650065 0.00729372 0)
(0.644926 0.00746539 0)
(0.639587 0.00763791 0)
(0.634052 0.00781152 0)
(0.628323 0.00798609 0)
(0.6224 0.0081613 0)
(0.616281 0.00833675 0)
(0.609967 0.00851208 0)
(0.603455 0.00868699 0)
(0.596745 0.00886125 0)
(0.589838 0.00903463 0)
(0.582733 0.00920691 0)
(0.575431 0.00937784 0)
(0.567933 0.00954717 0)
(0.56024 0.00971471 0)
(0.552353 0.00988023 0)
(0.544275 0.0100436 0)
(0.536007 0.0102046 0)
(0.527553 0.0103631 0)
(0.518915 0.010519 0)
(0.510096 0.0106721 0)
(0.5011 0.0108224 0)
(0.491931 0.0109699 0)
(0.482593 0.0111144 0)
(0.473091 0.0112558 0)
(0.463427 0.0113943 0)
(0.453607 0.0115297 0)
(0.443636 0.011662 0)
(0.433518 0.0117913 0)
(0.423258 0.0119173 0)
(0.412861 0.0120401 0)
(0.402331 0.0121596 0)
(0.391674 0.0122755 0)
(0.380894 0.0123878 0)
(0.369997 0.012496 0)
(0.358988 0.0126 0)
(0.347872 0.0126992 0)
(0.336655 0.0127932 0)
(0.325342 0.0128812 0)
(0.313938 0.0129627 0)
(0.30245 0.0130367 0)
(0.290883 0.0131023 0)
(0.279242 0.0131584 0)
(0.267535 0.0132038 0)
(0.255765 0.0132372 0)
(0.243938 0.0132572 0)
(0.23206 0.0132627 0)
(0.220134 0.0132528 0)
(0.208167 0.013227 0)
(0.196163 0.0131855 0)
(0.184127 0.0131297 0)
(0.172065 0.0130626 0)
(0.159984 0.0129867 0)
(0.147891 0.0129064 0)
(0.135793 0.012827 0)
(0.123695 0.0127508 0)
(0.111603 0.0126811 0)
(0.0995222 0.0126187 0)
(0.0874612 0.0125625 0)
(0.0754321 0.0125103 0)
(0.0634547 0.0124591 0)
(0.0515566 0.0124061 0)
(0.0397718 0.0123525 0)
(0.0281373 0.0123026 0)
(0.0166864 0.0122618 0)
(0.0054387 0.0122366 0)
(-0.00560318 0.0122324 0)
(-0.0164556 0.0122522 0)
(-0.0271504 0.0122919 0)
(-0.0377325 0.0123565 0)
(-0.0482351 0.0124306 0)
(-0.0586957 0.01251 0)
(-0.069135 0.0125922 0)
(-0.0795638 0.0126851 0)
(-0.0899706 0.012781 0)
(-0.100358 0.0128867 0)
(-0.110717 0.0130056 0)
(-0.121048 0.0131464 0)
(-0.131336 0.0132994 0)
(-0.141582 0.0134675 0)
(-0.151779 0.0136533 0)
(-0.161903 0.0138435 0)
(-0.17194 0.0140321 0)
(-0.181856 0.014206 0)
(-0.191607 0.0143462 0)
(-0.201126 0.014424 0)
(-0.210335 0.0144107 0)
(-0.219138 0.014269 0)
(-0.227442 0.0139756 0)
(-0.235185 0.0135362 0)
(-0.24237 0.0130003 0)
(-0.249085 0.0124399 0)
(-0.255475 0.0119249 0)
(-0.261657 0.0114953 0)
(-0.267681 0.0111465 0)
(-0.273532 0.0108453 0)
(-0.279135 0.0105454 0)
(-0.284426 0.0102182 0)
(-0.289347 0.00985036 0)
(-0.293866 0.00944069 0)
(-0.297972 0.00899734 0)
(-0.301664 0.00853226 0)
(-0.30495 0.00805725 0)
(-0.307845 0.00758125 0)
(-0.310364 0.00710847 0)
(-0.312525 0.00663842 0)
(-0.314335 0.00616532 0)
(-0.315795 0.00568318 0)
(-0.316899 0.00518682 0)
(-0.317636 0.00467136 0)
(-0.317981 0.00413009 0)
(-0.317896 0.00355281 0)
(-0.317339 0.00292604 0)
(-0.316256 0.00223319 0)
(-0.314624 0.0014635 0)
(-0.312443 0.000669849 0)
(-0.309686 -8.65011e-05 0)
(-0.306378 -0.000873129 0)
(-0.302703 -0.00173709 0)
(-0.299073 -0.00262562 0)
(-0.295553 -0.00343874 0)
(-0.292159 -0.004167 0)
(-0.288876 -0.00484164 0)
(-0.28566 -0.00549918 0)
(-0.282445 -0.0061564 0)
(-0.279158 -0.00680665 0)
(-0.275724 -0.00743493 0)
(-0.272084 -0.00802788 0)
(-0.268203 -0.00858008 0)
(-0.264072 -0.00909939 0)
(-0.25969 -0.00960129 0)
(-0.255061 -0.0100943 0)
(-0.250189 -0.0105822 0)
(-0.245075 -0.0110596 0)
(-0.239722 -0.0115205 0)
(-0.234131 -0.0119657 0)
(-0.228309 -0.0123995 0)
(-0.222263 -0.0128208 0)
(-0.21601 -0.0132255 0)
(-0.209563 -0.0136173 0)
(-0.20293 -0.0139954 0)
(-0.196115 -0.0143602 0)
(-0.189135 -0.0147134 0)
(-0.182002 -0.0150502 0)
(-0.174718 -0.0153689 0)
(-0.167296 -0.0156759 0)
(-0.159747 -0.0159688 0)
(-0.152081 -0.0162455 0)
(-0.144315 -0.0165045 0)
(-0.136457 -0.0167509 0)
(-0.128518 -0.0169853 0)
(-0.120518 -0.0172055 0)
(-0.112474 -0.0174106 0)
(-0.104392 -0.0176046 0)
(-0.0962871 -0.0177925 0)
(-0.0881694 -0.0179741 0)
(-0.0800391 -0.0181525 0)
(-0.0718959 -0.0183256 0)
(-0.0637395 -0.0185006 0)
(-0.055587 -0.018674 0)
(-0.0474671 -0.0188467 0)
(-0.0393656 -0.0190275 0)
(-0.0314001 -0.0191104 0)
(-0.0226713 -0.0192779 0)
(-0.0135563 -0.0191488 0)
(-0.00307264 -0.0177536 0)
(-0.00367275 0.00361989 0)
(-0.00198997 -0.00555599 0)
(0.00146502 -0.00529418 0)
(0.0027429 -0.00284754 0)
(0.00249408 -0.00103965 0)
(0.00098852 -7.11172e-05 0)
(-0.000659595 0.000427366 0)
(-0.00232938 0.000655547 0)
(-0.00382151 0.000748788 0)
(-0.005153 0.000759258 0)
(-0.0063236 0.000723287 0)
(-0.00733586 0.000657671 0)
(-0.00818293 0.00057086 0)
(-0.00885536 0.000464117 0)
(-0.00934666 0.000339443 0)
(-0.00965062 0.000197303 0)
(-0.00976644 4.57089e-05 0)
(-0.00970769 -0.00011803 0)
(-0.00949024 -0.000282088 0)
(-0.00912757 -0.000443483 0)
(-0.00863639 -0.000596468 0)
(-0.00803198 -0.000740099 0)
(-0.00733283 -0.000868257 0)
(-0.00655474 -0.000984215 0)
(-0.00571073 -0.00108405 0)
(-0.00481466 -0.00116986 0)
(-0.00387713 -0.00124026 0)
(-0.00290538 -0.00129927 0)
(-0.0019071 -0.00134653 0)
(-0.00088806 -0.00138408 0)
(0.000150288 -0.0014144 0)
(0.00120442 -0.00143902 0)
(0.00227436 -0.00146033 0)
(0.00336558 -0.00148006 0)
(0.00448029 -0.00150329 0)
(0.00562066 -0.00153628 0)
(0.0067912 -0.00158264 0)
(0.00799214 -0.00164644 0)
(0.00921262 -0.00172321 0)
(0.0104432 -0.00180158 0)
(0.0116915 -0.00187759 0)
(0.0129634 -0.001948 0)
(0.0142439 -0.00201085 0)
(0.0155211 -0.00206 0)
(0.0167902 -0.00208795 0)
(0.018037 -0.00209229 0)
(0.0192518 -0.00207131 0)
(0.0204434 -0.00203428 0)
(0.0216091 -0.00198402 0)
(0.0227717 -0.00193489 0)
(0.0239594 -0.00190535 0)
(0.0252013 -0.00191462 0)
(0.0265437 -0.00197632 0)
(0.0280316 -0.00210935 0)
(0.0296969 -0.0023292 0)
(0.0315718 -0.00264669 0)
(0.0336849 -0.00305266 0)
(0.036019 -0.0035206 0)
(0.0385588 -0.00401444 0)
(0.0412815 -0.00449956 0)
(0.044136 -0.00494003 0)
(0.0470692 -0.00530121 0)
(0.0500238 -0.0055649 0)
(0.0529557 -0.00572617 0)
(0.0558239 -0.00578493 0)
(0.0585937 -0.00574609 0)
(0.0612386 -0.00562579 0)
(0.0637401 -0.00543523 0)
(0.0660822 -0.00519115 0)
(0.0682538 -0.00490501 0)
(0.0702458 -0.00458575 0)
(0.0720516 -0.00424364 0)
(0.073666 -0.00388445 0)
(0.0750844 -0.00351243 0)
(0.0763029 -0.00313048 0)
(0.0773183 -0.00273892 0)
(0.0781283 -0.00233823 0)
(0.0787305 -0.00192802 0)
(0.0791233 -0.00150849 0)
(0.0793054 -0.00108048 0)
(0.0792766 -0.000644954 0)
(0.0790367 -0.000203558 0)
(0.0785847 0.000240787 0)
(0.0779168 0.000683073 0)
(0.0770334 0.00111624 0)
(0.0759418 0.00153854 0)
(0.0746465 0.00194162 0)
(0.0731544 0.00232451 0)
(0.0714759 0.00268366 0)
(0.0696213 0.00301857 0)
(0.0676004 0.00332865 0)
(0.0654253 0.00361418 0)
(0.0631088 0.00387692 0)
(0.0606617 0.00411937 0)
(0.058097 0.00434476 0)
(0.055428 0.00455528 0)
(0.0526663 0.00475401 0)
(0.0498241 0.00494169 0)
(0.0469142 0.00511761 0)
(0.0439493 0.0052809 0)
(0.04094 0.0054289 0)
(0.0378959 0.00555715 0)
(0.0348243 0.00566061 0)
(0.0317302 0.00573348 0)
(0.0286167 0.00576925 0)
(0.0254828 0.00576222 0)
(0.0223254 0.00570517 0)
(0.0191406 0.00559711 0)
(0.0159151 0.0054413 0)
(0.0126287 0.0052503 0)
(0.00925123 0.00503662 0)
(0.00574752 0.00482337 0)
(0.00208494 0.00462577 0)
(-0.00176372 0.00446094 0)
(-0.00580499 0.00433892 0)
(-0.0100193 0.00426665 0)
(-0.014365 0.004248 0)
(-0.0187954 0.00428841 0)
(-0.0232526 0.00438844 0)
(-0.0276691 0.00454523 0)
(-0.031987 0.00474607 0)
(-0.0361655 0.00497946 0)
(-0.0401795 0.00523124 0)
(-0.0440042 0.00547002 0)
(-0.0476555 0.00568577 0)
(-0.0511682 0.00584658 0)
(-0.0545645 0.0059436 0)
(-0.057873 0.0059787 0)
(-0.0611146 0.00596933 0)
(-0.0642981 0.00592811 0)
(-0.0674311 0.0058666 0)
(-0.0705023 0.00579 0)
(-0.0735078 0.00570051 0)
(-0.0764575 0.0055969 0)
(-0.0793379 0.00547675 0)
(-0.0821499 0.00534251 0)
(-0.0849017 0.00518928 0)
(-0.0875917 0.00501788 0)
(-0.0902216 0.0048284 0)
(-0.0927919 0.00462183 0)
(-0.0953014 0.00440498 0)
(-0.097748 0.00417174 0)
(-0.100127 0.00393798 0)
(-0.102431 0.00371159 0)
(-0.104649 0.00349839 0)
(-0.106771 0.00330751 0)
(-0.108774 0.00314204 0)
(-0.110643 0.00299678 0)
(-0.112373 0.00285557 0)
(-0.113951 0.00268545 0)
(-0.115382 0.0024252 0)
(-0.116702 0.00200443 0)
(-0.117972 0.00136122 0)
(-0.11929 0.000476849 0)